/*--------------------------------*- C++ -*----------------------------------*\
| =========                 |                                                 |
| \\      /  F ield         | OpenFOAM: The Open Source CFD Toolbox           |
|  \\    /   O peration     | Version:  2412                                  |
|   \\  /    A nd           | Website:  www.openfoam.com                      |
|    \\/     M anipulation  |                                                 |
\*---------------------------------------------------------------------------*/
FoamFile
{
    version     2.0;
    format      ascii;
    arch        "LSB;label=32;scalar=64";
    class       volScalarField;
    location    "7.5";
    object      p_rgh;
}
// * * * * * * * * * * * * * * * * * * * * * * * * * * * * * * * * * * * * * //

dimensions      [1 -1 -2 0 0 0 0];

internalField   nonuniform List<scalar> 
6400
(
7772.51
7772.6
7772.77
7773.01
7773.32
7773.69
7774.13
7774.64
7775.22
7775.88
7776.61
7777.39
7778.21
7779.05
7779.87
7780.64
7781.33
7781.91
7782.33
7782.57
7782.59
7782.36
7781.88
7781.14
7780.12
7778.85
7777.34
7775.62
7773.72
7771.71
7769.62
7767.51
7765.44
7763.48
7761.68
7760.1
7758.77
7757.75
7757.07
7756.75
7756.79
7757.2
7757.98
7759.09
7760.51
7762.2
7764.11
7766.18
7768.37
7770.6
7772.82
7774.98
7777.01
7778.87
7780.53
7781.94
7783.09
7783.96
7784.55
7784.86
7784.91
7784.72
7784.32
7783.74
7783.01
7782.18
7781.27
7780.32
7779.36
7778.43
7777.54
7776.71
7775.95
7775.28
7774.68
7774.17
7773.74
7773.4
7773.16
7773.04
7772.41
7772.5
7772.68
7772.92
7773.24
7773.62
7774.06
7774.59
7775.19
7775.87
7776.62
7777.42
7778.27
7779.14
7779.99
7780.8
7781.53
7782.13
7782.58
7782.84
7782.88
7782.66
7782.18
7781.42
7780.39
7779.08
7777.53
7775.76
7773.81
7771.73
7769.57
7767.39
7765.25
7763.23
7761.36
7759.72
7758.35
7757.29
7756.59
7756.25
7756.29
7756.72
7757.51
7758.66
7760.13
7761.87
7763.84
7765.98
7768.24
7770.54
7772.83
7775.05
7777.15
7779.06
7780.76
7782.21
7783.38
7784.27
7784.87
7785.18
7785.21
7785.01
7784.58
7783.97
7783.2
7782.33
7781.39
7780.4
7779.41
7778.45
7777.53
7776.67
7775.9
7775.2
7774.59
7774.06
7773.62
7773.28
7773.04
7772.91
7772.23
7772.33
7772.51
7772.76
7773.08
7773.46
7773.92
7774.45
7775.07
7775.78
7776.56
7777.41
7778.32
7779.24
7780.16
7781.04
7781.84
7782.52
7783.03
7783.35
7783.43
7783.24
7782.77
7782
7780.93
7779.57
7777.94
7776.07
7774.01
7771.81
7769.52
7767.2
7764.93
7762.77
7760.78
7759.03
7757.57
7756.44
7755.68
7755.32
7755.36
7755.81
7756.65
7757.87
7759.43
7761.28
7763.37
7765.64
7768.03
7770.47
7772.9
7775.25
7777.45
7779.47
7781.25
7782.76
7783.98
7784.88
7785.47
7785.76
7785.77
7785.51
7785.02
7784.34
7783.5
7782.56
7781.54
7780.49
7779.44
7778.42
7777.46
7776.57
7775.76
7775.04
7774.41
7773.86
7773.41
7773.05
7772.8
7772.66
7771.96
7772.07
7772.26
7772.52
7772.84
7773.23
7773.68
7774.22
7774.86
7775.59
7776.42
7777.33
7778.31
7779.33
7780.35
7781.34
7782.26
7783.05
7783.67
7784.08
7784.23
7784.1
7783.65
7782.87
7781.76
7780.32
7778.59
7776.59
7774.36
7771.97
7769.49
7766.97
7764.49
7762.13
7759.96
7758.04
7756.44
7755.2
7754.36
7753.96
7754
7754.48
7755.4
7756.72
7758.42
7760.43
7762.7
7765.17
7767.77
7770.41
7773.04
7775.57
7777.95
7780.11
7782.01
7783.6
7784.87
7785.8
7786.38
7786.63
7786.57
7786.22
7785.64
7784.85
7783.9
7782.84
7781.71
7780.56
7779.42
7778.32
7777.3
7776.36
7775.51
7774.77
7774.12
7773.56
7773.1
7772.72
7772.45
7772.3
7771.61
7771.73
7771.93
7772.2
7772.52
7772.9
7773.34
7773.87
7774.53
7775.3
7776.18
7777.17
7778.24
7779.38
7780.55
7781.7
7782.77
7783.73
7784.5
7785.05
7785.32
7785.26
7784.85
7784.07
7782.91
7781.38
7779.51
7777.32
7774.88
7772.25
7769.49
7766.69
7763.93
7761.29
7758.86
7756.72
7754.92
7753.53
7752.59
7752.13
7752.17
7752.7
7753.72
7755.19
7757.07
7759.3
7761.83
7764.57
7767.45
7770.37
7773.27
7776.06
7778.66
7781.02
7783.07
7784.77
7786.11
7787.05
7787.6
7787.79
7787.63
7787.16
7786.43
7785.48
7784.36
7783.14
7781.87
7780.58
7779.33
7778.14
7777.04
7776.04
7775.15
7774.39
7773.73
7773.16
7772.67
7772.27
7771.97
7771.81
7771.17
7771.31
7771.52
7771.79
7772.11
7772.46
7772.89
7773.42
7774.07
7774.86
7775.8
7776.89
7778.09
7779.39
7780.74
7782.09
7783.39
7784.56
7785.55
7786.28
7786.71
7786.77
7786.42
7785.65
7784.44
7782.79
7780.74
7778.32
7775.59
7772.64
7769.53
7766.36
7763.24
7760.24
7757.48
7755.04
7752.99
7751.4
7750.32
7749.79
7749.82
7750.42
7751.56
7753.22
7755.35
7757.88
7760.73
7763.83
7767.07
7770.36
7773.61
7776.73
7779.62
7782.22
7784.47
7786.31
7787.71
7788.67
7789.19
7789.28
7788.99
7788.35
7787.41
7786.25
7784.92
7783.49
7782.02
7780.56
7779.16
7777.84
7776.65
7775.59
7774.68
7773.88
7773.21
7772.62
7772.11
7771.69
7771.37
7771.17
7770.64
7770.8
7771.03
7771.3
7771.58
7771.9
7772.28
7772.78
7773.42
7774.24
7775.25
7776.45
7777.82
7779.31
7780.9
7782.51
7784.09
7785.55
7786.81
7787.8
7788.44
7788.66
7788.41
7787.65
7786.38
7784.59
7782.32
7779.61
7776.53
7773.17
7769.62
7765.99
7762.4
7758.95
7755.77
7752.94
7750.57
7748.73
7747.48
7746.86
7746.89
7747.57
7748.88
7750.78
7753.22
7756.12
7759.39
7762.93
7766.63
7770.38
7774.08
7777.6
7780.87
7783.78
7786.26
7788.27
7789.76
7790.73
7791.19
7791.15
7790.67
7789.79
7788.6
7787.16
7785.55
7783.85
7782.12
7780.44
7778.85
7777.39
7776.08
7774.95
7774
7773.2
7772.53
7771.95
7771.44
7770.99
7770.63
7770.4
7770.01
7770.21
7770.46
7770.7
7770.92
7771.14
7771.44
7771.88
7772.52
7773.37
7774.47
7775.8
7777.36
7779.11
7780.98
7782.93
7784.86
7786.69
7788.31
7789.63
7790.55
7790.98
7790.87
7790.15
7788.81
7786.86
7784.32
7781.26
7777.74
7773.88
7769.78
7765.58
7761.4
7757.39
7753.68
7750.39
7747.62
7745.46
7744
7743.26
7743.29
7744.07
7745.58
7747.79
7750.61
7753.97
7757.76
7761.85
7766.13
7770.45
7774.7
7778.74
7782.45
7785.74
7788.52
7790.72
7792.31
7793.27
7793.63
7793.41
7792.68
7791.51
7789.97
7788.18
7786.21
7784.17
7782.14
7780.18
7778.36
7776.71
7775.28
7774.06
7773.07
7772.26
7771.63
7771.09
7770.61
7770.15
7769.74
7769.46
7769.28
7769.54
7769.79
7769.94
7770
7770.07
7770.26
7770.64
7771.27
7772.17
7773.36
7774.87
7776.66
7778.7
7780.94
7783.3
7785.68
7787.97
7790.05
7791.8
7793.08
7793.81
7793.88
7793.23
7791.84
7789.69
7786.84
7783.34
7779.29
7774.81
7770.03
7765.12
7760.23
7755.53
7751.17
7747.29
7744.03
7741.49
7739.75
7738.88
7738.9
7739.81
7741.58
7744.16
7747.46
7751.39
7755.81
7760.59
7765.57
7770.6
7775.52
7780.18
7784.45
7788.2
7791.32
7793.75
7795.45
7796.4
7796.61
7796.15
7795.09
7793.53
7791.56
7789.31
7786.89
7784.43
7782
7779.71
7777.6
7775.74
7774.14
7772.81
7771.75
7770.94
7770.35
7769.92
7769.55
7769.14
7768.71
7768.35
7768.45
7768.79
7768.94
7768.84
7768.6
7768.44
7768.53
7768.89
7769.55
7770.53
7771.85
7773.55
7775.62
7778.03
7780.71
7783.58
7786.53
7789.41
7792.08
7794.37
7796.13
7797.23
7797.55
7797.01
7795.56
7793.2
7789.96
7785.94
7781.23
7776
7770.4
7764.62
7758.86
7753.31
7748.15
7743.57
7739.71
7736.7
7734.64
7733.6
7733.62
7734.68
7736.76
7739.79
7743.68
7748.29
7753.49
7759.1
7764.95
7770.84
7776.59
7782.02
7786.96
7791.26
7794.8
7797.49
7799.3
7800.2
7800.23
7799.44
7797.95
7795.87
7793.35
7790.53
7787.56
7784.56
7781.67
7778.96
7776.51
7774.38
7772.57
7771.07
7769.88
7769.01
7768.44
7768.18
7768.05
7767.86
7767.49
7767.03
7767.56
7767.9
7767.78
7767.19
7766.48
7766.05
7766.06
7766.49
7767.26
7768.35
7769.83
7771.76
7774.15
7776.99
7780.21
7783.72
7787.36
7790.98
7794.39
7797.38
7799.76
7801.36
7802.01
7801.62
7800.12
7797.51
7793.82
7789.16
7783.67
7777.52
7770.91
7764.08
7757.26
7750.67
7744.55
7739.1
7734.51
7730.93
7728.48
7727.24
7727.25
7728.5
7730.96
7734.54
7739.14
7744.6
7750.74
7757.37
7764.26
7771.19
7777.95
7784.3
7790.06
7795.03
7799.07
7802.08
7804
7804.82
7804.58
7803.37
7801.33
7798.6
7795.37
7791.83
7788.16
7784.51
7781.03
7777.83
7774.98
7772.52
7770.45
7768.73
7767.32
7766.27
7765.69
7765.62
7765.9
7766.16
7766.03
7765.53
7766.67
7766.86
7766.26
7765.01
7763.77
7763.06
7763.01
7763.52
7764.38
7765.58
7767.22
7769.39
7772.14
7775.48
7779.34
7783.6
7788.11
7792.66
7797.01
7800.91
7804.09
7806.33
7807.44
7807.26
7805.72
7802.81
7798.58
7793.15
7786.7
7779.43
7771.61
7763.49
7755.37
7747.53
7740.24
7733.74
7728.27
7724
7721.07
7719.59
7719.59
7721.07
7723.99
7728.24
7733.7
7740.18
7747.46
7755.32
7763.48
7771.69
7779.66
7787.14
7793.88
7799.67
7804.3
7807.68
7809.72
7810.41
7809.82
7808.06
7805.29
7801.72
7797.6
7793.15
7788.61
7784.17
7780
7776.22
7772.92
7770.11
7767.76
7765.8
7764.17
7762.93
7762.29
7762.4
7763.13
7763.96
7764.25
7763.89
7765.95
7765.8
7764.64
7762.79
7761.1
7760.09
7759.85
7760.25
7761.05
7762.24
7763.95
7766.33
7769.45
7773.35
7777.95
7783.15
7788.73
7794.45
7800
7805.05
7809.27
7812.35
7814.05
7814.16
7812.6
7809.35
7804.46
7798.09
7790.46
7781.83
7772.51
7762.83
7753.14
7743.78
7735.07
7727.31
7720.77
7715.67
7712.17
7710.4
7710.39
7712.15
7715.63
7720.69
7727.19
7734.89
7743.56
7752.89
7762.59
7772.33
7781.77
7790.62
7798.56
7805.34
7810.69
7814.49
7816.66
7817.17
7816.11
7813.62
7809.92
7805.29
7800.04
7794.46
7788.85
7783.45
7778.47
7774.05
7770.27
7767.12
7764.55
7762.46
7760.75
7759.43
7758.75
7759.08
7760.22
7761.53
7762.29
7762.21
7765.56
7765.02
7763.42
7761.19
7759.13
7757.71
7757.03
7756.97
7757.41
7758.35
7759.97
7762.46
7765.92
7770.41
7775.88
7782.18
7789.09
7796.28
7803.36
7809.9
7815.46
7819.65
7822.12
7822.63
7821.07
7817.4
7811.72
7804.2
7795.12
7784.82
7773.69
7762.11
7750.52
7739.31
7728.89
7719.61
7711.78
7705.68
7701.5
7699.38
7699.37
7701.48
7705.62
7711.66
7719.41
7728.59
7738.92
7750.04
7761.58
7773.17
7784.39
7794.88
7804.26
7812.2
7818.46
7822.79
7825.09
7825.35
7823.66
7820.23
7815.33
7809.34
7802.65
7795.66
7788.74
7782.21
7776.3
7771.18
7766.92
7763.51
7760.88
7758.87
7757.32
7756.17
7755.85
7756.35
7757.71
7759.31
7760.42
7760.69
7765.72
7764.9
7763.02
7760.49
7758
7755.97
7754.55
7753.7
7753.43
7753.83
7755.14
7757.58
7761.31
7766.4
7772.84
7780.47
7789.01
7798.04
7807.07
7815.52
7822.83
7828.45
7831.94
7832.99
7831.45
7827.3
7820.66
7811.72
7800.87
7788.54
7775.2
7761.33
7747.44
7734.01
7721.52
7710.39
7701.02
7693.72
7688.72
7686.19
7686.19
7688.71
7693.66
7700.89
7710.14
7721.11
7733.43
7746.69
7760.45
7774.25
7787.62
7800.1
7811.25
7820.64
7827.96
7832.89
7835.32
7835.22
7832.71
7828.05
7821.61
7813.87
7805.36
7796.61
7788.08
7780.2
7773.24
7767.39
7762.71
7759.17
7756.65
7754.97
7753.93
7753.34
7753.5
7754.4
7755.94
7757.66
7758.96
7759.49
7766.64
7765.67
7763.62
7760.67
7757.55
7754.62
7752.15
7750.21
7748.92
7748.49
7749.24
7751.44
7755.3
7760.97
7768.47
7777.66
7788.18
7799.53
7811.03
7821.95
7831.52
7839.01
7843.83
7845.58
7844.08
7839.37
7831.51
7820.89
7807.89
7793.1
7777.1
7760.47
7743.82
7727.72
7712.74
7699.41
7688.18
7679.44
7673.47
7670.46
7670.48
7673.5
7679.42
7688.05
7699.11
7712.22
7726.93
7742.76
7759.18
7775.65
7791.59
7806.47
7819.77
7830.94
7839.53
7845.15
7847.69
7847.11
7843.52
7837.24
7828.8
7818.82
7808
7797.03
7786.55
7777.07
7768.95
7762.37
7757.36
7753.85
7751.65
7750.54
7750.28
7750.65
7751.58
7753.05
7754.87
7756.71
7758.13
7758.79
7768.39
7767.33
7765.16
7761.37
7757.51
7753.35
7749.64
7746.34
7743.72
7742.17
7742.07
7743.77
7747.55
7753.69
7762.32
7773.29
7786.22
7800.43
7815.08
7829.17
7841.67
7851.61
7858.15
7860.79
7859.39
7854.06
7844.81
7832.03
7816.37
7798.59
7779.39
7759.46
7739.5
7720.23
7702.31
7686.37
7672.96
7662.52
7655.42
7651.85
7651.9
7655.51
7662.57
7672.87
7686.07
7701.71
7719.24
7738.09
7757.66
7777.3
7796.32
7814.1
7830.01
7843.38
7853.58
7859.93
7862.56
7861.35
7856.34
7847.96
7836.89
7824.02
7810.27
7796.56
7783.71
7772.39
7763.03
7755.78
7750.6
7747.36
7745.72
7745.44
7746.19
7747.65
7749.56
7751.79
7754.11
7756.23
7757.84
7758.59
7770.96
7769.51
7766.64
7762.73
7757.74
7752.16
7746.95
7742.05
7737.77
7734.72
7733.37
7734.22
7737.62
7744.06
7753.81
7766.8
7782.59
7800.33
7818.94
7837.13
7853.49
7866.62
7875.37
7879.05
7877.66
7871.68
7860.78
7845.27
7826.22
7804.76
7781.77
7757.99
7734.18
7711.15
7689.71
7670.61
7654.52
7642.01
7633.52
7629.27
7629.37
7633.72
7642.21
7654.57
7670.41
7689.12
7710.01
7732.41
7755.62
7778.91
7801.53
7822.79
7841.97
7858.12
7870.1
7877.39
7880.21
7878.26
7871.45
7860.31
7845.82
7829.22
7811.77
7794.68
7779.02
7765.65
7755.05
7747.27
7742.14
7739.57
7738.77
7739.63
7741.67
7744.4
7747.41
7750.44
7753.31
7755.83
7757.81
7758.84
7775.54
7773.14
7769.06
7763.97
7758.01
7751.26
7744.17
7737.12
7730.77
7725.89
7722.84
7722.45
7725.03
7731.42
7742.27
7757.66
7776.98
7799.15
7822.79
7846.25
7867.64
7884.97
7896.55
7901.35
7899.52
7893.23
7880.21
7860.99
7837.66
7811.92
7784.59
7756.11
7727.23
7699.02
7672.65
7649.04
7629.08
7613.57
7601.41
7595.02
7595.22
7601.92
7614.01
7629.41
7649.1
7672.2
7697.77
7724.96
7752.94
7780.75
7807.55
7832.78
7855.92
7875.74
7890.32
7898.14
7901.42
7898.73
7889.62
7874.88
7855.94
7834.55
7812.42
7791.11
7772.01
7756.26
7744.45
7736.47
7731.82
7730.07
7730.58
7732.85
7736.39
7740.66
7745.05
7749.12
7752.62
7755.74
7758.6
7760.66
7256.43
7216.18
7123.37
7028.13
6941.34
6864.72
6784.57
6682.39
6563.18
6456.44
6364.38
6302.78
6293.83
6338.02
6455.28
6647.48
6890.05
7154.99
7413.79
7643.84
7825.26
7908.33
7924.05
7929.95
7925.78
7921.05
7897
7837.59
7726.98
7557.32
7318.33
7004.89
6630.26
6219.67
5804.33
5410.83
5065.34
4788.71
4562.92
4450.05
4456.49
4578.66
4795.75
5073.02
5425.55
5819.38
6221
6608.06
6963.79
7271.59
7513.94
7689.73
7809.33
7880.66
7914.82
7923.53
7928.24
7925.07
7912.57
7838.68
7680.32
7479.53
7252.63
7019.14
6799.7
6618.24
6496.72
6431.72
6408.67
6443.86
6517.56
6598.55
6689.26
6764.42
6816.91
6865.71
6914.31
6974.75
7052.59
7103.19
1950.41
1842.15
1751.25
1651.59
1532.26
1387.29
1228.48
1073.91
955.439
879.987
843.506
840.52
845.589
889.224
1002.25
1190.41
1466.67
1840.77
2316.91
2881.2
3485.25
4081.87
4564.69
4819.63
4861.2
4717.87
4328.84
3669.54
2981.27
2372.77
1840.75
1364.15
959.982
641.417
400.648
222.423
94.9336
10.857
1.26454
1.37555
1.52668
1.60513
15.4664
89.3883
208.75
385.554
623.288
929.251
1313.49
1773.52
2284.23
2843.45
3466.25
4097.23
4554.77
4741.21
4742.6
4563.16
4165.03
3654.73
3111.51
2568.93
2086.54
1687.59
1383.29
1174.08
1046.51
987.094
960.158
932.709
937.293
969.576
1037.46
1149.63
1267.97
1368.66
1449.49
1521.07
1586.68
1678.28
1.20078
1.29327
1.24744
1.22426
1.21289
1.20488
1.21022
1.20481
1.16099
2.89605
4.83116
5.8267
5.60377
5.18322
5.0913
5.30786
5.67522
5.94939
6.10134
6.02702
10.9119
51.1065
107.557
138.426
134.345
79.8877
0.76836
0.59233
0.459798
0.493858
0.581909
0.697636
0.823463
0.934434
1.0171
1.0793
1.12728
1.17181
1.1947
1.2766
1.38555
1.45556
1.46837
1.36371
1.20381
1.05447
0.92218
0.797261
0.672572
0.548422
0.434109
0.339015
0.309964
0.476768
38.236
104.471
122.769
108.015
64.512
23.4397
7.66734
8.06891
8.02188
7.62521
7.0017
6.35079
5.54981
5.22343
5.14101
4.09759
2.97035
1.56121
0.970511
0.925035
0.946067
1.04901
1.14103
1.08473
1.05185
0.949562
1.76777
1.86516
1.83131
1.42692
1.27394
1.24903
1.22579
2.47856
3.1052
1.93297
1.92903
2.07359
2.08718
1.93484
1.80575
1.76625
1.68851
1.4475
1.42755
1.39531
1.21364
0.778396
0.41953
0.436803
0.248933
0.311468
0.480277
0.504466
0.524758
0.571056
0.643823
0.744716
0.849935
0.940199
1.00796
1.21711
1.40609
1.38296
1.43581
1.84494
1.89263
1.39991
2.04162
2.1442
2.00868
1.22251
0.842914
0.76149
0.679232
0.585846
0.495165
0.425179
0.394356
0.41395
0.338436
0.24163
0.230835
0.356139
0.560217
0.819117
1.03294
1.21391
1.32018
1.4337
1.55781
1.62693
1.43777
1.41383
1.54994
1.58192
1.63434
1.26668
1.20843
0.973906
1.538
2.56621
2.62343
2.01939
1.059
1.09377
2.28591
2.50965
2.50109
2.30649
1.92868
1.36768
1.32761
2.57381
3.99938
1.80777
1.58795
1.59868
1.69851
1.75629
1.75408
1.71203
1.49722
1.25076
1.30879
1.37594
1.22888
0.737845
0.427978
0.357651
0.354961
0.400399
0.481178
0.539584
0.57845
0.614756
0.648303
0.70467
0.785967
0.847897
0.897156
0.917321
0.917626
1.08939
2.18679
2.30249
2.37498
1.79294
2.38636
2.3271
1.38841
0.917043
0.835987
0.803387
0.716014
0.616956
0.515054
0.504859
0.472851
0.389499
0.34452
0.32404
0.316501
0.328677
0.420294
0.562825
0.715199
0.849862
0.988844
1.1036
1.21336
1.29304
1.13326
1.11767
1.16514
1.30728
1.61633
1.66671
1.14565
1.57731
2.88167
2.90849
2.62089
1.29392
0.993921
1.03732
2.448
2.53691
2.55303
2.5642
2.57602
2.5909
1.46112
2.83441
6.07023
1.76368
1.55814
1.49272
1.53118
2.75801
3.96299
2.5123
1.62635
1.14205
1.10565
1.4219
1.32509
0.803385
0.447618
0.418226
0.429856
0.465235
0.513771
0.55645
0.588814
0.616745
0.644588
0.67435
0.707379
0.743235
0.77649
0.804342
0.84613
0.920154
1.22239
2.31335
2.39228
2.172
1.61745
1.74439
1.03129
0.928973
0.838534
0.780746
0.700252
0.621347
0.597583
0.55819
0.495966
0.428506
0.386132
0.35585
0.362803
0.403739
0.487296
0.625563
0.762835
0.887944
0.997099
1.11139
1.22628
1.3056
1.08838
1.0059
0.912794
0.850678
0.83721
1.15295
1.08527
1.39359
2.87975
2.94493
1.05381
1.02625
1.01909
1.03405
2.52123
2.51179
2.12966
1.31307
1.21515
2.0646
2.53214
2.79995
6.53222
6.32251
1.85665
2.44807
6.96705
7.07808
7.13126
6.73606
2.98329
1.02243
1.03707
1.48735
1.32089
0.629134
0.475068
0.462076
0.473327
0.498462
0.530691
0.562923
0.5901
0.61068
0.624401
0.633878
0.643978
0.657861
0.67227
0.686293
0.716751
0.781952
0.8851
1.84967
2.3554
2.28755
1.34964
1.13743
1.05116
0.914517
0.821347
0.741845
0.720447
0.682343
0.623779
0.543975
0.490707
0.45828
0.42936
0.413377
0.420252
0.466436
0.578704
0.708058
0.79543
1.01396
1.16285
1.23317
1.27156
1.27509
1.24176
0.98426
0.846247
0.800314
0.761862
0.743451
0.800007
0.739479
1.3935
2.13003
1.24461
1.07565
1.07641
1.07629
2.49659
1.54838
0.977418
0.969976
0.969653
0.974063
1.4419
2.27016
5.74322
7.02953
7.15459
7.09141
7.03811
7.10922
4.87747
0.8594
1.17636
0.93803
1.21138
1.48642
1.0409
0.512142
0.488706
0.485439
0.495748
0.514803
0.538753
0.563246
0.583353
0.595309
0.597127
0.590983
0.583999
0.583539
0.627515
0.628733
0.609677
0.642529
0.742712
1.41699
2.24207
2.10104
1.31026
1.3036
1.50631
0.876137
0.791983
0.723083
0.665156
0.609597
0.596348
0.768962
0.74414
0.594661
0.534962
0.817875
1.18237
1.19559
1.22544
1.13445
0.770593
0.852349
0.955814
1.01515
0.986925
0.949458
0.884541
0.840127
0.793285
0.750539
0.715543
0.692112
0.688955
0.710089
0.739952
1.29387
1.52038
1.19131
1.20971
1.67795
2.27296
1.10491
0.925442
0.890274
0.852339
0.807866
0.766683
1.11648
1.19217
7.21763
7.16928
7.07535
7.07562
6.0249
0.417387
0.563389
0.653545
0.875108
1.51707
1.48674
0.803844
0.499067
0.492403
0.49462
0.504341
0.519131
0.536829
0.554185
0.566568
0.571637
0.562134
0.543153
0.521614
0.59241
1.26512
1.41322
0.720423
0.498358
0.589196
0.954616
2.06866
2.10179
1.35811
1.23931
1.59538
1.40694
0.745908
0.689733
0.641024
0.592054
0.548564
1.07462
1.52103
1.48898
1.45103
1.42145
1.3166
0.501592
0.451889
0.526548
0.6182
0.710179
0.787083
0.837432
0.858332
0.846864
0.812566
0.768932
0.723967
0.684612
0.653948
0.638815
0.639506
0.678151
0.736241
0.804631
1.21222
1.52561
1.86577
1.85569
1.04191
1.01043
0.992366
1.85864
1.03961
0.659645
0.594414
0.502969
0.3836
1.4867
7.1914
7.20178
7.30019
1.26172
0.393058
0.516058
0.608793
1.34182
1.50516
1.36669
0.532475
0.489254
0.490118
0.495057
0.503786
0.515165
0.527866
0.560495
0.560615
0.544113
0.524049
0.493932
0.457928
1.1636
1.39265
1.34571
1.15374
0.40806
0.434087
0.57143
1.85807
1.99271
1.25928
1.13876
1.30121
1.76428
1.61187
0.73247
0.608385
0.56433
0.546042
1.32466
1.53093
1.50168
1.43521
0.473722
0.336476
0.36535
0.414654
0.484482
0.569621
0.656785
0.726059
0.7658
0.773871
0.75029
0.709714
0.666074
0.624122
0.584112
0.558033
0.539517
0.604031
0.627805
0.71251
0.80206
0.885896
1.27777
1.88852
1.86926
0.974323
0.939082
2.98514
3.58884
2.68378
0.530146
0.413111
0.359165
0.296221
0.201279
1.41681
5.85747
4.62777
0.874663
0.407933
0.513639
0.597148
1.48746
1.5107
0.936753
0.477467
0.479835
0.483905
0.4897
0.497166
0.505979
0.542523
0.612528
0.579278
0.513475
0.489708
0.450808
0.403049
0.757149
1.33776
1.28288
1.04643
0.271512
0.303999
0.430417
1.37959
1.92008
1.99248
1.0404
1.0421
1.30373
2.13751
2.08398
0.573116
0.536497
0.730405
1.56996
1.54298
1.48062
0.44418
0.29761
0.294972
0.337967
0.354478
0.416302
0.494479
0.575318
0.634455
0.660983
0.651677
0.612329
0.563842
0.517691
0.47234
0.555153
0.650367
0.390972
0.59588
4.25017
3.82323
0.877165
0.854768
1.01388
1.87834
1.21022
0.939745
0.856664
3.61962
3.49483
3.28089
0.51269
0.276756
0.278957
0.286913
0.277685
0.248569
0.419303
0.455082
0.458251
0.46493
0.548244
1.16795
1.51998
1.53057
0.621619
0.465384
0.469948
0.474827
0.480423
0.486763
0.493811
0.591623
0.596966
0.570748
0.492273
0.461941
0.418382
0.364228
0.35846
1.18314
1.35297
0.405126
0.142996
0.204809
0.305261
0.434086
1.89009
1.96252
1.30406
0.97491
0.956917
1.34663
2.2243
1.87412
0.512764
1.01181
1.56803
1.54227
1.09479
0.308626
0.237605
0.7196
1.01703
0.424293
0.315223
0.385241
0.458388
0.506186
0.51611
0.483791
0.423878
0.365069
0.307196
0.448151
1.19889
4.43783
4.95951
4.94276
5.11367
5.31716
3.0042
0.81897
0.970174
1.09749
0.963578
2.90501
0.828826
3.44861
3.485
3.03738
0.265052
0.247092
0.277967
0.327502
0.373274
0.379304
0.379549
0.432026
0.497044
0.548552
0.6315
1.58063
1.57136
0.757497
0.450948
0.454954
0.459117
0.463556
0.468388
0.473703
0.522272
0.581585
0.581786
0.569914
0.48566
0.440081
0.395478
0.339245
0.338412
1.2649
1.4517
0.23169
0.0862961
0.137178
0.222192
0.313876
1.60982
1.94249
2.02319
1.18451
0.925882
0.921242
2.2023
2.22585
0.498377
0.903719
1.56654
1.53476
0.914963
0.268384
0.510151
0.96998
0.963879
0.975826
0.297528
0.243836
0.309118
0.345077
0.335952
0.273857
0.187561
0.115509
0.349361
4.01777
4.71577
4.52166
4.45951
4.53726
4.74691
5.06278
5.39195
1.19532
0.835723
0.885756
0.915707
4.11664
1.94735
1.99316
3.55914
2.63807
0.24313
0.285137
0.545799
0.643334
1.14504
1.7288
0.97181
0.562878
0.595198
0.629636
1.46201
1.62754
1.00603
0.44151
0.441961
0.444099
0.447114
0.45061
0.454435
0.458649
0.512774
0.567278
0.566824
0.562566
0.481895
0.42351
0.380137
0.324893
0.263279
1.11071
1.48763
0.546986
0.0875601
0.11464
0.181568
0.254543
0.633057
1.96085
2.00841
2.04127
1.03363
0.864767
1.51243
2.20218
1.25275
0.739544
1.37303
1.49717
0.499837
0.273774
0.940729
0.884945
0.861497
0.871623
0.408147
0.0924635
0.14745
0.170033
0.137725
0.0513355
-0.0710842
-0.080492
4.30516
4.52499
4.21605
4.01715
3.97045
4.08164
4.35733
4.76372
5.21801
3.84916
0.694663
0.801504
0.854066
4.25968
3.51527
2.04896
2.93691
1.87327
0.34216
0.494985
1.5888
1.91022
1.95503
1.97009
1.28744
0.654551
0.716775
1.77168
1.87167
1.35426
0.439579
0.430948
0.430523
0.431693
0.433736
0.436224
0.438961
0.441913
0.444673
0.543714
0.551094
0.547949
0.464266
0.413549
0.374575
0.321778
0.266023
0.311388
1.54779
1.16321
0.149099
0.353309
0.466619
0.249342
0.312928
1.88078
2.01235
2.04238
1.95947
0.783079
0.763584
2.21201
2.23187
0.7216
0.494517
0.646261
0.31593
0.246512
0.85893
0.830048
0.787448
0.781212
0.574435
0.0320518
0.00521718
0.0122323
-0.0478696
-0.119899
-0.253199
3.55742
4.53719
4.12693
3.83217
3.66583
3.64122
3.61375
3.60886
4.54327
5.02457
5.47305
2.28842
0.830849
0.769623
4.4015
4.35089
1.98959
1.66883
1.41989
1.12446
1.07132
1.2892
1.85769
1.94627
1.98507
2.02244
1.89623
1.97406
1.95727
0.80392
0.42009
0.417204
0.416857
0.417114
0.417924
0.419194
0.420706
0.422207
0.423602
0.424985
0.527559
0.532656
0.52745
0.447606
0.42337
0.440433
0.340572
0.278549
0.22229
1.08882
1.73446
0.422983
0.40497
0.500721
0.291651
0.331296
1.94118
2.03174
2.04542
1.24976
0.728286
0.711611
2.18485
2.22793
0.76382
0.408566
0.349989
0.301404
0.226268
0.133657
0.542457
0.774776
0.74801
0.760867
0.696758
0.150438
-0.0972127
-0.186687
-0.302883
0.520578
4.77929
4.28837
3.91022
3.65874
3.43825
2.81753
2.94384
3.32977
4.07091
4.97116
5.47859
5.75861
1.68779
0.706793
4.53544
4.48908
4.25414
3.98181
3.83974
3.8308
3.80952
1.83852
1.14226
1.1166
1.88282
1.94566
1.65434
1.05698
0.55176
0.401096
0.401157
0.40144
0.401966
0.402531
0.40324
0.403979
0.404515
0.404548
0.403906
0.402858
0.489233
0.508125
0.461589
0.436824
1.18871
1.53075
1.01452
0.308922
0.243853
0.192299
1.79488
1.84054
0.43036
0.403538
0.298245
0.346556
1.75163
2.04479
1.58264
0.713196
0.712041
0.699973
1.29302
1.94853
0.599411
0.390094
0.338463
0.311865
0.262228
0.178299
0.0840886
0.344225
0.78995
0.785943
0.809656
0.780924
-0.133185
-0.245842
-0.423038
1.04184
4.72997
4.24505
3.90494
3.47812
2.77844
2.8165
3.01816
3.53984
4.55228
5.09227
5.55596
5.87935
1.45456
0.688858
3.76846
4.59049
4.49571
3.05394
0.726804
0.749093
0.800106
1.38055
1.39451
1.0653
0.698278
0.813045
0.441519
0.366046
0.374225
0.378912
0.382456
0.384306
0.385898
0.387168
0.388088
0.388508
0.388161
0.386645
0.383606
0.381182
0.397592
0.4391
0.425551
1.00636
1.93656
1.92537
1.88995
0.757626
0.265705
0.223635
0.468534
1.91051
1.84209
0.348582
0.307994
0.344892
0.65655
1.7964
1.53612
1.9533
1.27532
0.661408
0.561327
0.511296
0.429861
0.372078
0.557885
2.15946
2.77167
2.39266
0.510929
0.400329
0.49063
0.864586
0.885792
0.897181
-0.0738351
-0.209981
-0.398409
1.2149
4.85275
4.39338
4.08076
3.90417
3.10674
3.07126
3.61236
4.36749
4.83778
5.33094
5.74031
5.34307
0.574887
0.692227
3.73687
4.63891
4.58124
1.69019
0.714418
0.77462
1.7419
1.00728
0.445251
0.409547
0.303606
0.314219
0.327071
0.340298
0.350489
0.357611
0.36246
0.366573
0.369556
0.371738
0.37313
0.373524
0.372563
0.369738
0.364312
0.356367
0.341346
0.316545
0.54179
1.91312
1.90925
1.90424
1.86885
1.67084
0.383821
0.237911
0.191125
1.20016
2.02738
1.90013
0.580711
0.361803
0.421969
0.584778
1.69158
3.00676
3.03391
1.12782
0.497113
0.454718
0.397373
1.64899
3.32757
3.41442
3.40916
3.37636
3.32647
2.39452
0.669526
0.714573
0.975788
1.01199
0.0831532
-0.0793483
-0.259624
0.553132
5.14882
4.69946
4.3953
4.22972
4.20584
4.268
4.47087
4.77827
5.20832
5.63633
5.36952
0.838997
0.704489
2.08781
3.6188
4.61688
4.62335
4.48635
1.15911
1.29627
3.48553
3.64725
0.655529
0.291211
0.289736
0.299663
0.308015
0.318295
0.329089
0.337455
0.343959
0.349285
0.353474
0.356663
0.358761
0.35952
0.358499
0.355219
0.348507
0.3359
0.315165
0.277204
0.840577
1.86295
1.87447
1.44407
1.15512
1.67231
1.04674
0.254875
0.217036
0.167085
1.7431
2.00937
2.02224
0.458643
0.538475
0.615057
2.18721
3.10272
3.08966
2.26662
0.43246
0.394593
0.603247
3.24593
3.34191
3.33825
3.36739
3.35876
3.33043
3.25438
1.72813
0.832972
0.978402
1.13316
0.764976
0.0808977
-0.0553382
0.28867
5.41885
5.17257
4.83757
4.67043
4.63238
4.73737
4.95989
5.27822
5.62262
3.03385
1.41838
1.12931
2.46574
3.30322
4.05417
4.71484
4.64322
3.19026
0.896137
0.857354
3.22338
3.6397
3.48564
0.267832
0.27114
0.281258
0.287806
0.29918
0.309645
0.318646
0.326116
0.332596
0.337958
0.342303
0.345401
0.347029
0.346728
0.3441
0.337516
0.324343
0.300896
0.257439
0.810818
1.86066
1.45216
0.273414
0.32525
1.28227
1.41973
0.455858
0.220362
0.191216
0.303729
1.8164
2.04216
1.24775
0.632521
0.669593
2.94817
3.17481
3.10902
1.59368
0.364804
0.320573
1.30862
1.06039
3.14675
3.27359
3.31013
0.995055
1.35546
1.39211
0.535788
0.913627
1.16593
1.23278
1.26674
0.242779
0.157099
0.0372506
2.20822
5.78756
5.44806
5.23778
5.04175
1.43001
1.5748
1.72777
0.70709
0.310815
1.22932
2.60626
2.70028
2.72923
4.77455
4.7378
4.68424
4.63293
3.13777
0.874599
0.905695
3.65014
3.72574
0.338898
0.247797
0.260211
0.270268
0.281478
0.291617
0.300963
0.309283
0.316686
0.323109
0.328828
0.333182
0.336207
0.337474
0.336576
0.332573
0.323057
0.304443
0.269788
0.368108
0.919297
0.178525
0.253657
0.311092
0.339368
1.41308
0.811385
0.203047
0.178862
0.155808
0.295087
1.16853
1.98587
1.8045
2.33133
3.25483
3.23347
2.67432
0.46486
0.380702
0.738376
1.3943
0.376001
0.233857
1.8562
0.714383
0.161025
0.203868
0.260348
0.343279
0.83968
1.22732
1.31221
1.34733
0.372013
0.338636
0.256377
0.340816
4.15769
4.99637
0.0167725
-0.277078
-0.467907
-0.505828
-0.393072
-0.114382
0.358262
0.742667
0.71936
0.65986
0.996835
4.5569
3.84522
4.74131
4.7021
4.68645
2.37137
0.959471
3.65826
1.58972
0.703028
0.224126
0.241121
0.252375
0.26388
0.274269
0.284041
0.293065
0.301369
0.308949
0.315817
0.321773
0.326684
0.330249
0.332226
0.332144
0.328953
0.320949
0.304042
0.276877
0.233662
0.217718
0.231637
0.280223
0.329675
0.871439
0.925296
0.210434
0.155516
0.144316
0.13324
0.146346
1.62553
3.24296
3.32848
3.31239
3.28125
1.53653
0.413968
1.04653
1.46924
1.40093
0.515249
-0.243034
-0.0707655
0.318718
0.360331
0.227086
0.293046
0.373201
0.448656
1.02892
1.36452
1.36538
0.433953
0.437406
0.389027
0.287548
0.182781
0.643701
1.0771
1.05848
0.733979
-0.349526
-0.336735
-0.114784
0.101014
0.227443
0.285546
0.302562
0.361303
0.198122
1.61814
4.78384
4.7874
4.8062
2.83182
1.02705
1.0044
0.156265
0.328423
0.202454
0.221457
0.234506
0.246422
0.257338
0.267594
0.277257
0.286391
0.295035
0.303207
0.310845
0.317877
0.324162
0.32957
0.334005
0.337457
0.339673
0.338177
0.327302
0.303178
0.282328
0.395724
0.379624
0.309615
0.332105
0.655604
0.258297
0.118766
0.115162
0.10658
0.102645
0.167575
1.59372
3.36522
3.35028
3.32411
0.808807
0.387565
1.08975
1.48086
1.41358
0.548323
-0.259837
-0.276916
0.99809
1.54088
0.591126
0.306565
0.383035
0.464527
0.547205
1.38653
1.40856
0.49924
0.439243
0.502218
0.421189
0.896163
1.69523
1.38962
1.1631
1.10499
1.03701
-0.301637
-0.0960867
0.813757
0.736034
0.201367
0.218424
0.227284
-0.0530094
0.0116183
1.48649
4.56078
3.09211
1.50426
1.58988
0.20547
0.149606
0.166604
0.186703
0.204076
0.217427
0.229602
0.24084
0.251486
0.261673
0.271519
0.281122
0.290556
0.299836
0.308959
0.317914
0.326651
0.33518
0.343522
0.352245
0.357593
0.355114
0.342834
1.09384
3.90057
3.41151
0.961779
0.282557
0.25207
0.139608
0.086691
0.088987
0.086755
0.062585
0.0643433
0.0653654
1.8453
3.38079
3.37068
1.37244
0.304051
0.225315
1.25157
1.2304
0.152458
-0.262889
-0.26523
1.26226
1.57853
1.65163
0.508102
0.383173
0.569785
0.976348
1.38211
1.36144
0.500342
0.380172
0.494054
0.440561
0.769798
1.7529
1.43652
1.22123
1.15501
-0.241085
-0.460345
0.381197
0.99124
1.1559
0.230258
0.142136
0.163658
-0.0456744
-0.0600946
0.512464
0.466489
0.095033
0.470086
1.53113
0.236859
0.139541
0.156175
0.17321
0.188263
0.201052
0.213332
0.224713
0.235564
0.246091
0.256465
0.266845
0.277363
0.288088
0.299079