/*--------------------------------*- C++ -*----------------------------------*\
| =========                 |                                                 |
| \\      /  F ield         | OpenFOAM: The Open Source CFD Toolbox           |
|  \\    /   O peration     | Version:  2412                                  |
|   \\  /    A nd           | Website:  www.openfoam.com                      |
|    \\/     M anipulation  |                                                 |
\*---------------------------------------------------------------------------*/
FoamFile
{
    version     2.0;
    format      ascii;
    arch        "LSB;label=32;scalar=64";
    class       surfaceScalarField;
    location    "7.1";
    object      phi;
}
// * * * * * * * * * * * * * * * * * * * * * * * * * * * * * * * * * * * * * //

dimensions      [0 3 -1 0 0 0 0];

oriented        oriented;

internalField   nonuniform List<scalar> 
12640
(
-2.02157e-06
2.02157e-06
4.36739e-07
-2.45706e-06
1.8694e-06
-1.43165e-06
2.96028e-06
-1.08994e-06
4.44453e-06
-1.48342e-06
6.46209e-06
-2.01691e-06
9.06814e-06
-2.60557e-06
1.21099e-05
-3.04141e-06
1.54284e-05
-3.31828e-06
1.88895e-05
-3.46106e-06
2.22264e-05
-3.33702e-06
2.53781e-05
-3.15183e-06
2.79642e-05
-2.5863e-06
2.96807e-05
-1.7167e-06
3.04852e-05
-8.04567e-07
3.02497e-05
2.35284e-07
2.90297e-05
1.21986e-06
2.67301e-05
2.29949e-06
2.34683e-05
3.26172e-06
1.93182e-05
4.14993e-06
1.43769e-05
4.94113e-06
8.8653e-06
5.51143e-06
2.90528e-06
5.9599e-06
-3.33408e-06
6.23938e-06
-9.67083e-06
6.33692e-06
-1.59063e-05
6.23571e-06
-2.17447e-05
5.83898e-06
-2.68289e-05
5.08484e-06
-3.09324e-05
4.10425e-06
-3.3608e-05
2.67646e-06
-3.47855e-05
1.17835e-06
-3.44657e-05
-3.19363e-07
-3.27263e-05
-1.73909e-06
-2.94317e-05
-3.29437e-06
-2.44569e-05
-4.97453e-06
-1.77957e-05
-6.66095e-06
-9.57321e-06
-8.2224e-06
-1.69778e-07
-9.40348e-06
9.97536e-06
-1.01454e-05
2.03176e-05
-1.03428e-05
3.02572e-05
-9.94005e-06
3.92276e-05
-8.97097e-06
4.66525e-05
-7.42567e-06
5.21409e-05
-5.48912e-06
5.52703e-05
-3.12998e-06
5.59511e-05
-6.81388e-07
5.42097e-05
1.74107e-06
5.02751e-05
3.93425e-06
4.45219e-05
5.75285e-06
3.73427e-05
7.17882e-06
2.8976e-05
8.36669e-06
1.97286e-05
9.24751e-06
9.96894e-06
9.75995e-06
1.47254e-07
9.822e-06
-9.31594e-06
9.46342e-06
-1.80877e-05
8.77185e-06
-2.59763e-05
7.88878e-06
-3.28575e-05
6.88129e-06
-3.86409e-05
5.78347e-06
-4.32338e-05
4.59309e-06
-4.65911e-05
3.35767e-06
-4.87059e-05
2.11558e-06
-4.96152e-05
9.10371e-07
-4.93508e-05
-2.63785e-07
-4.78752e-05
-1.47571e-06
-4.52762e-05
-2.59904e-06
-4.1669e-05
-3.60729e-06
-3.73164e-05
-4.35241e-06
-3.25051e-05
-4.81133e-06
-2.74936e-05
-5.01279e-06
-2.25091e-05
-4.98615e-06
-1.77648e-05
-4.74479e-06
-1.34428e-05
-4.32109e-06
-9.70059e-06
-3.74097e-06
-6.7088e-06
-2.99146e-06
-4.51305e-06
-2.19626e-06
-2.8774e-06
-1.63549e-06
-1.08618e-06
-1.79023e-06
1.52771e-06
-2.61383e-06
1.52769e-06
-3.86217e-06
5.88504e-06
-2.98289e-06
-3.33445e-06
-3.07322e-06
-1.33975e-06
-3.02404e-06
-1.13777e-06
-2.11113e-06
-2.39525e-06
-1.28631e-07
-3.99863e-06
2.87032e-06
-5.604e-06
6.73936e-06
-6.91013e-06
1.12254e-05
-7.80416e-06
1.59845e-05
-8.22024e-06
2.0677e-05
-8.02966e-06
2.48875e-05
-7.36265e-06
2.8468e-05
-6.16708e-06
3.12261e-05
-4.47512e-06
3.29903e-05
-2.56903e-06
3.35844e-05
-3.58962e-07
3.29072e-05
1.89691e-06
3.10973e-05
4.1091e-06
2.81372e-05
6.22148e-06
2.41564e-05
8.13063e-06
1.94204e-05
9.67704e-06
1.41596e-05
1.07722e-05
8.67102e-06
1.14486e-05
3.2788e-06
1.16319e-05
-1.70153e-06
1.13178e-05
-5.98109e-06
1.05161e-05
-9.37657e-06
9.23554e-06
-1.17642e-05
7.47369e-06
-1.30278e-05
5.36875e-06
-1.35021e-05
3.15145e-06
-1.29817e-05
6.58627e-07
-1.14014e-05
-1.89919e-06
-8.87157e-06
-4.26826e-06
-5.36348e-06
-6.80192e-06
-1.18073e-06
-9.15693e-06
3.41018e-06
-1.12518e-05
8.14822e-06
-1.29608e-05
1.28419e-05
-1.40979e-05
1.7279e-05
-1.45833e-05
2.13107e-05
-1.43755e-05
2.47613e-05
-1.33918e-05
2.75326e-05
-1.17431e-05
2.95273e-05
-9.42069e-06
3.07226e-05
-6.68439e-06
3.10235e-05
-3.43056e-06
3.04162e-05
-7.36728e-08
2.87833e-05
3.3743e-06
2.59117e-05
6.80634e-06
2.19165e-05
9.74858e-06
1.67412e-05
1.2355e-05
1.06262e-05
1.44828e-05
3.79252e-06
1.60822e-05
-3.55552e-06
1.71088e-05
-1.12289e-05
1.74961e-05
-1.90171e-05
1.72525e-05
-2.66557e-05
1.64112e-05
-3.38475e-05
1.50811e-05
-4.02709e-05
1.33054e-05
-4.5641e-05
1.11545e-05
-4.97845e-05
8.73785e-06
-5.261e-05
6.18474e-06
-5.39905e-05
3.49721e-06
-5.39468e-05
8.67772e-07
-5.25196e-05
-1.69013e-06
-4.9876e-05
-4.11925e-06
-4.61882e-05
-6.28722e-06
-4.16912e-05
-8.10537e-06
-3.6501e-05
-9.54377e-06
-3.07926e-05
-1.05201e-05
-2.48031e-05
-1.10017e-05
-1.88329e-05
-1.09553e-05
-1.32066e-05
-1.037e-05
-8.235e-06
-9.29191e-06
-4.19628e-06
-7.77955e-06
-1.26513e-06
-5.92282e-06
5.11043e-07
-3.97178e-06
1.27386e-06
-2.3966e-06
1.80733e-06
-2.32324e-06
3.27755e-06
-4.0844e-06
4.80608e-06
-3.54798e-06
9.43402e-06
-2.35199e-06
-4.52901e-06
-2.17707e-06
-1.5135e-06
-2.02795e-06
-1.28591e-06
-9.72537e-07
-3.44989e-06
1.16927e-06
-6.13981e-06
4.32106e-06
-8.75529e-06
8.31485e-06
-1.09035e-05
1.28898e-05
-1.23788e-05
1.77251e-05
-1.30554e-05
2.25303e-05
-1.28349e-05
2.68407e-05
-1.16733e-05
3.04626e-05
-9.78915e-06
3.31947e-05
-7.20756e-06
3.48038e-05
-4.17833e-06
3.52287e-05
-7.84098e-07
3.43536e-05
2.77209e-06
3.22304e-05
6.23233e-06
2.89452e-05
9.50676e-06
2.46162e-05
1.24596e-05
1.94351e-05
1.48581e-05
1.36478e-05
1.65594e-05
7.52127e-06
1.75752e-05
1.34526e-06
1.78081e-05
-4.59037e-06
1.72537e-05
-1.00118e-05
1.59377e-05
-1.46403e-05
1.38642e-05
-1.83166e-05
1.115e-05
-2.09708e-05
8.02326e-06
-2.23755e-05
4.55683e-06
-2.23449e-05
6.28899e-07
-2.10048e-05
-3.23872e-06
-1.81525e-05
-7.12037e-06
-1.408e-05
-1.08744e-05
-8.92495e-06
-1.43122e-05
-3.08564e-06
-1.70915e-05
3.20403e-06
-1.92508e-05
9.73932e-06
-2.06335e-05
1.6204e-05
-2.10482e-05
2.23236e-05
-2.04948e-05
2.78834e-05
-1.89504e-05
3.26599e-05
-1.65177e-05
3.6454e-05
-1.32127e-05
3.90333e-05
-9.26165e-06
4.03702e-05
-4.76579e-06
4.03473e-05
-4.92694e-08
3.86742e-05
5.0489e-06
3.5694e-05
9.78814e-06
3.09022e-05
1.45417e-05
2.4716e-05
1.85422e-05
1.7249e-05
2.19506e-05
9.00716e-06
2.43251e-05
3.29902e-07
2.57871e-05
-8.57655e-06
2.64037e-05
-1.74343e-05
2.61117e-05
-2.58618e-05
2.48404e-05
-3.36358e-05
2.2857e-05
-4.05141e-05
2.01856e-05
-4.62381e-05
1.68798e-05
-5.06507e-05
1.31512e-05
-5.36418e-05
9.17653e-06
-5.52604e-05
5.11623e-06
-5.54257e-05
1.03317e-06
-5.42241e-05
-2.89237e-06
-5.17719e-05
-6.57281e-06
-4.82028e-05
-9.85721e-06
-4.36784e-05
-1.26286e-05
-3.83514e-05
-1.48671e-05
-3.24437e-05
-1.64241e-05
-2.62498e-05
-1.71942e-05
-2.01302e-05
-1.70753e-05
-1.43153e-05
-1.6185e-05
-9.11065e-06
-1.44958e-05
-4.8332e-06
-1.20561e-05
-1.70044e-06
-9.05455e-06
1.98551e-07
-5.86905e-06
1.06796e-06
-3.26526e-06
1.83336e-06
-3.08927e-06
3.37506e-06
-5.62443e-06
8.18151e-06
-4.33145e-06
1.37663e-05
-3.33577e-06
-5.5236e-06
-3.46514e-06
-1.38323e-06
-3.7363e-06
-1.01401e-06
-2.99405e-06
-4.19155e-06
-8.68259e-07
-8.26506e-06
2.59384e-06
-1.22168e-05
7.18063e-06
-1.54898e-05
1.25407e-05
-1.77386e-05
1.82097e-05
-1.87242e-05
2.3771e-05
-1.83963e-05
2.88256e-05
-1.67279e-05
3.31518e-05
-1.41154e-05
3.63435e-05
-1.03994e-05
3.82486e-05
-6.08337e-06
3.87202e-05
-1.25557e-06
3.77426e-05
3.74965e-06
3.53003e-05
8.67465e-06
3.15201e-05
1.3287e-05
2.65929e-05
1.73868e-05
2.06813e-05
2.07696e-05
1.40919e-05
2.31487e-05
7.09653e-06
2.45703e-05
-3.89355e-08
2.49434e-05
-6.91837e-06
2.41332e-05
-1.32969e-05
2.23165e-05
-1.90068e-05
1.95748e-05
-2.36304e-05
1.57742e-05
-2.69755e-05
1.13685e-05
-2.87687e-05
6.34987e-06
-2.92654e-05
1.12529e-06
-2.81758e-05
-4.32865e-06
-2.54962e-05
-9.80019e-06
-2.13318e-05
-1.5039e-05
-1.5954e-05
-1.96901e-05
-9.32459e-06
-2.37211e-05
-1.71629e-06
-2.68591e-05
6.52872e-06
-2.88782e-05
1.51179e-05
-2.96368e-05
2.35934e-05
-2.89699e-05
3.15286e-05
-2.68855e-05
3.84619e-05
-2.34514e-05
4.39607e-05
-1.87125e-05
4.78065e-05
-1.31086e-05
4.97844e-05
-6.7445e-06
4.96394e-05
9.49704e-08
4.77904e-05
6.89741e-06
4.37938e-05
1.37842e-05
3.82361e-05
2.0099e-05
3.09066e-05
2.58714e-05
2.24734e-05
3.03837e-05
1.29579e-05
3.38405e-05
2.83772e-06
3.59078e-05
-7.4277e-06
3.66701e-05
-1.75395e-05
3.62248e-05
-2.70755e-05
3.43775e-05
-3.57304e-05
3.15125e-05
-4.33191e-05
2.77741e-05
-4.95931e-05
2.31527e-05
-5.4393e-05
1.79497e-05
-5.76335e-05
1.24152e-05
-5.92683e-05
6.74962e-06
-5.93504e-05
1.11467e-06
-5.79373e-05
-4.30542e-06
-5.51576e-05
-9.35122e-06
-5.11598e-05
-1.3853e-05
-4.60431e-05
-1.77438e-05
-4.00097e-05
-2.08999e-05
-3.33788e-05
-2.30551e-05
-2.65096e-05
-2.40639e-05
-1.95278e-05
-2.40567e-05
-1.29206e-05
-2.27907e-05
-7.08226e-06
-2.03324e-05
-2.42409e-06
-1.67133e-05
8.07834e-07
-1.22855e-05
2.51069e-06
-7.57099e-06
2.93997e-06
-3.69461e-06
3.27048e-06
-3.418e-06
4.28281e-06
-6.63568e-06
1.24646e-05
-5.54136e-06
1.93083e-05
-5.18992e-06
-5.87428e-06
-5.99739e-06
-5.75157e-07
-7.08419e-06
7.32689e-08
-6.72287e-06
-4.5525e-06
-4.52292e-06
-1.04646e-05
-4.81199e-07
-1.62581e-05
5.10374e-06
-2.10742e-05
1.16793e-05
-2.43137e-05
1.86939e-05
-2.57383e-05
2.55181e-05
-2.52203e-05
3.1741e-05
-2.29505e-05
3.69053e-05
-1.92795e-05
4.08585e-05
-1.43524e-05
4.32279e-05
-8.4528e-06
4.39125e-05
-1.94e-06
4.28574e-05
4.80478e-06
4.00905e-05
1.14415e-05
3.57838e-05
1.75933e-05
3.01312e-05
2.30391e-05
2.3292e-05
2.76085e-05
1.5697e-05
3.07437e-05
7.6047e-06
3.26628e-05
-6.5273e-07
3.32012e-05
-8.65316e-06
3.21339e-05
-1.60409e-05
2.97043e-05
-2.25321e-05
2.60658e-05
-2.78665e-05
2.11083e-05
-3.16162e-05
1.5118e-05
-3.3994e-05
8.72781e-06
-3.46122e-05
1.74355e-06
-3.34901e-05
-5.45054e-06
-3.06503e-05
-1.26399e-05
-2.61953e-05
-1.94942e-05
-2.01506e-05
-2.57351e-05
-1.27465e-05
-3.11255e-05
-4.09627e-06
-3.55099e-05
5.46186e-06
-3.84373e-05
1.55314e-05
-3.9708e-05
2.55516e-05
-3.89922e-05
3.50119e-05
-3.63479e-05
4.32633e-05
-3.17045e-05
4.99061e-05
-2.53565e-05
5.45089e-05
-1.77118e-05
5.68876e-05
-9.12325e-06
5.69691e-05
1.37104e-08
5.47129e-05
9.15388e-06
5.02725e-05
1.82248e-05
4.37795e-05
2.65917e-05
3.5547e-05
3.41032e-05
2.57487e-05
4.01811e-05
1.4981e-05
4.46072e-05
3.54458e-06
4.73432e-05
-8.07889e-06
4.82928e-05
-1.93812e-05
4.75267e-05
-3.00663e-05
4.50622e-05
-3.97727e-05
4.12185e-05
-4.81568e-05
3.61579e-05
-5.50098e-05
3.00055e-05
-6.01227e-05
2.30628e-05
-6.35049e-05
1.5798e-05
-6.50892e-05
8.33501e-06
-6.49486e-05
9.75644e-07
-6.31635e-05
-6.08984e-06
-5.98897e-05
-1.2626e-05
-5.51841e-05
-1.85612e-05
-4.92131e-05
-2.37183e-05
-4.22447e-05
-2.78708e-05
-3.4553e-05
-3.07478e-05
-2.65342e-05
-3.20824e-05
-1.83834e-05
-3.22065e-05
-1.05627e-05
-3.06108e-05
-3.66724e-06
-2.72279e-05
1.70565e-06
-2.20857e-05
5.12201e-06
-1.57004e-05
6.45911e-06
-8.90727e-06
6.14353e-06
-3.37782e-06
5.58922e-06
-2.8613e-06
5.74152e-06
-6.78771e-06
1.82077e-05
-7.02292e-06
2.63317e-05
-7.75277e-06
-5.144e-06
-9.66294e-06
1.33524e-06
-1.1787e-05
2.19746e-06
-1.20151e-05
-4.32425e-06
-9.68434e-06
-1.27951e-05
-4.82226e-06
-2.11197e-05
2.17858e-06
-2.80746e-05
1.04708e-05
-3.26053e-05
1.92734e-05
-3.45405e-05
2.77876e-05
-3.3734e-05
3.56269e-05
-3.07893e-05
4.20209e-05
-2.56732e-05
4.68478e-05
-1.91788e-05
4.98637e-05
-1.14686e-05
5.08043e-05
-2.88079e-06
4.96574e-05
5.95148e-06
4.64928e-05
1.46059e-05
4.1463e-05
2.26232e-05
3.4808e-05
2.96942e-05
2.68991e-05
3.55174e-05
1.79474e-05
3.96951e-05
8.44529e-06
4.21645e-05
-1.26865e-06
4.29148e-05
-1.06612e-05
4.15262e-05
-1.93653e-05
3.84085e-05
-2.69827e-05
3.36838e-05
-3.30816e-05
2.72074e-05
-3.77709e-05
1.98073e-05
-4.05122e-05
1.14691e-05
-4.12822e-05
2.51337e-06
-4.00308e-05
-6.70218e-06
-3.68287e-05
-1.58423e-05
-3.17325e-05
-2.45907e-05
-2.48465e-05
-3.26217e-05
-1.62212e-05
-3.97517e-05
-6.25716e-06
-4.54746e-05
4.77722e-06
-4.94717e-05
1.65163e-05
-5.14465e-05
2.82324e-05
-5.07072e-05
3.93526e-05
-4.74664e-05
4.90592e-05
-4.14095e-05
5.689e-05
-3.31857e-05
6.23766e-05
-2.31974e-05
6.51971e-05
-1.19431e-05
6.54678e-05
-2.56686e-07
6.29554e-05
1.16663e-05
5.79937e-05
2.31864e-05
5.05963e-05
3.39887e-05
4.09973e-05
4.37016e-05
2.97693e-05
5.14086e-05
1.72958e-05
5.70807e-05
4.15765e-06
6.04815e-05
-9.22132e-06
6.1672e-05
-2.21669e-05
6.04727e-05
-3.43404e-05
5.72363e-05
-4.53293e-05
5.22083e-05
-5.46797e-05
4.55098e-05
-6.21754e-05
3.75032e-05
-6.77815e-05
2.86715e-05
-7.13221e-05
1.93405e-05
-7.28181e-05
9.83156e-06
-7.23773e-05
5.33927e-07
-7.00748e-05
-8.394e-06
-6.60306e-05
-1.66713e-05
-6.04238e-05
-2.41689e-05
-5.34073e-05
-3.07353e-05
-4.52549e-05
-3.6023e-05
-3.63712e-05
-3.96309e-05
-2.67054e-05
-4.17474e-05
-1.68917e-05
-4.20193e-05
-7.34002e-06
-4.01618e-05
1.101e-06
-3.56684e-05
7.57737e-06
-2.85607e-05
1.12665e-05
-1.93885e-05
1.20699e-05
-9.71039e-06
1.06231e-05
-1.92887e-06
8.93566e-06
-1.17327e-06
7.72018e-06
-5.57122e-06
2.59285e-05
-8.58241e-06
3.49144e-05
-1.08305e-05
-2.89581e-06
-1.43792e-05
4.88383e-06
-1.84482e-05
6.26628e-06
-1.96657e-05
-3.10664e-06
-1.71852e-05
-1.52752e-05
-1.11131e-05
-2.71915e-05
-2.00526e-06
-3.7182e-05
8.79279e-06
-4.3403e-05
2.01105e-05
-4.58577e-05
3.10337e-05
-4.46567e-05
4.07538e-05
-4.05087e-05
4.88031e-05
-3.37222e-05
5.48497e-05
-2.52249e-05
5.85477e-05
-1.51662e-05
5.97823e-05
-4.11521e-06
5.84723e-05
7.26165e-06
5.47801e-05
1.82981e-05
4.88271e-05
2.85761e-05
4.09414e-05
3.75798e-05
3.14868e-05
4.49719e-05
2.0765e-05
5.04171e-05
9.39173e-06
5.3538e-05
-2.07534e-06
5.43821e-05
-1.33533e-05
5.28039e-05
-2.3748e-05
4.88028e-05
-3.28609e-05
4.27962e-05
-4.02048e-05
3.45508e-05
-4.56005e-05
2.52025e-05
-4.88423e-05
1.47106e-05
-4.97502e-05
3.42127e-06
-4.83215e-05
-8.13089e-06
-4.46834e-05
-1.94804e-05
-3.8966e-05
-3.03077e-05
-3.11647e-05
-4.0422e-05
-2.12373e-05
-4.96777e-05
-9.55913e-06
-5.71509e-05
3.49243e-06
-6.25209e-05
1.74168e-05
-6.53686e-05
3.15552e-05
-6.4844e-05
4.50015e-05
-6.0912e-05
5.67027e-05
-5.3111e-05
6.60585e-05
-4.25423e-05
7.26009e-05
-2.97407e-05
7.62929e-05
-1.56359e-05
7.67193e-05
-6.83487e-07
7.3914e-05
1.44718e-05
6.80408e-05
2.90602e-05
5.91695e-05
4.2861e-05
4.81311e-05
5.4741e-05
3.49318e-05
6.46087e-05
2.02635e-05
7.17493e-05
4.81783e-06
7.59271e-05
-1.07676e-05
7.72572e-05
-2.59073e-05
7.56127e-05
-3.99379e-05
7.12676e-05
-5.25579e-05
6.48297e-05
-6.31231e-05
5.60761e-05
-7.15185e-05
4.58991e-05
-7.75814e-05
3.47342e-05
-8.12695e-05
2.30274e-05
-8.26022e-05
1.11635e-05
-8.1737e-05
-3.30856e-07
-7.87732e-05
-1.1356e-05
-7.38044e-05
-2.16363e-05
-6.70742e-05
-3.08956e-05
-5.87333e-05
-3.90742e-05
-4.91115e-05
-4.56435e-05
-3.85523e-05
-5.01893e-05
-2.70331e-05
-5.32659e-05
-1.50182e-05
-5.4034e-05
-3.12968e-06
-5.20506e-05
7.73095e-06
-4.65285e-05
1.5899e-05
-3.67275e-05
2.00043e-05
-2.34936e-05
2.00846e-05
-9.79016e-06
1.68167e-05
1.34105e-06
1.32149e-05
2.42751e-06
1.00925e-05
-2.44673e-06
3.60203e-05
-9.81252e-06
4.47269e-05
-1.42081e-05
1.49953e-06
-2.02756e-05
1.09511e-05
-2.75754e-05
1.35659e-05
-3.04347e-05
-2.47292e-07
-2.79989e-05
-1.77108e-05
-2.02799e-05
-3.49103e-05
-7.95892e-06
-4.95028e-05
6.54579e-06
-5.79074e-05
2.13356e-05
-6.06472e-05
3.52489e-05
-5.85696e-05
4.74768e-05
-5.27361e-05
5.76732e-05
-4.39181e-05
6.51003e-05
-3.26516e-05
6.97802e-05
-1.98457e-05
7.13922e-05
-5.72685e-06
6.98696e-05
8.78441e-06
6.53848e-05
2.27831e-05
5.82282e-05
3.57329e-05
4.87557e-05
4.70527e-05
3.73937e-05
5.63342e-05
2.4403e-05
6.3408e-05
1.07501e-05
6.71907e-05
-3.07408e-06
6.82059e-05
-1.66566e-05
6.63858e-05
-2.91197e-05
6.12654e-05
-3.98687e-05
5.3545e-05
-4.88673e-05
4.35494e-05
-5.53406e-05
3.1676e-05
-5.91094e-05
1.84796e-05
-6.03567e-05
4.6689e-06
-5.90483e-05
-9.43906e-06
-5.50619e-05
-2.34666e-05
-4.83923e-05
-3.69769e-05
-3.9156e-05
-4.96579e-05
-2.77457e-05
-6.10876e-05
-1.40033e-05
-7.08931e-05
1.58612e-06
-7.81108e-05
1.84663e-05
-8.22498e-05
3.56178e-05
-8.19966e-05
5.20359e-05
-7.73308e-05
6.65095e-05
-6.75849e-05
7.80193e-05
-5.40521e-05
8.61176e-05
-3.78385e-05
9.05054e-05
-2.00229e-05
9.08956e-05
-1.07298e-06
8.78198e-05
1.75483e-05
8.09126e-05
3.5968e-05
7.05913e-05
5.31826e-05
5.72028e-05
6.81298e-05
4.14515e-05
8.03599e-05
2.39525e-05
8.92481e-05
5.4676e-06
9.44121e-05
-1.30429e-05
9.57679e-05
-3.08507e-05
9.34205e-05
-4.7325e-05
8.77412e-05
-6.17812e-05
7.92846e-05
-7.38344e-05
6.81275e-05
-8.32279e-05
5.5291e-05
-8.98316e-05
4.13375e-05
-9.36483e-05
2.68443e-05
-9.47701e-05
1.22865e-05
-9.32881e-05
-1.81068e-06
-8.944e-05
-1.5202e-05
-8.3431e-05
-2.76434e-05
-7.53381e-05
-3.89881e-05
-6.55313e-05
-4.88823e-05
-5.42566e-05
-5.69198e-05
-4.15146e-05
-6.29318e-05
-2.77538e-05
-6.70264e-05
-1.30029e-05
-6.87849e-05
2.31614e-06
-6.73696e-05
1.67454e-05
-6.09571e-05
2.77163e-05
-4.76982e-05
3.24495e-05
-2.8227e-05
3.11463e-05
-8.4855e-06
2.47467e-05
7.74133e-06
1.8449e-05
8.72599e-06
1.26248e-05
3.37932e-06
4.86458e-05
-1.1567e-05
5.62938e-05
-1.98544e-05
9.78638e-06
-2.83941e-05
1.94906e-05
-3.9834e-05
2.50057e-05
-4.54644e-05
5.38307e-06
-4.33157e-05
-1.98595e-05
-3.31256e-05
-4.51005e-05
-1.59309e-05
-6.66975e-05
3.80826e-06
-7.76464e-05
2.33995e-05
-8.02381e-05
4.12236e-05
-7.63932e-05
5.65734e-05
-6.80858e-05
6.92122e-05
-5.65565e-05
7.86012e-05
-4.20403e-05
8.43462e-05
-2.55904e-05
8.63104e-05
-7.69068e-06
8.447e-05
1.06252e-05
7.89885e-05
2.82651e-05
7.0249e-05
4.44729e-05
5.8711e-05
5.85908e-05
4.48175e-05
7.02281e-05
2.92632e-05
7.89629e-05
1.25243e-05
8.39305e-05
-4.39001e-06
8.5121e-05
-2.06726e-05
8.2669e-05
-3.60375e-05
7.66307e-05
-4.91733e-05
6.6681e-05
-5.97701e-05
5.4146e-05
-6.73026e-05
3.92082e-05
-7.20109e-05
2.31876e-05
-7.36259e-05
6.28351e-06
-7.21444e-05
-1.09211e-05
-6.76617e-05
-2.79497e-05
-6.01527e-05
-4.44865e-05
-4.96651e-05
-6.01466e-05
-3.60977e-05
-7.46561e-05
-1.99112e-05
-8.70804e-05
-1.15224e-06
-9.68698e-05
1.93739e-05
-0.000102776
4.06058e-05
-0.000103228
6.10075e-05
-9.77318e-05
7.87927e-05
-8.53695e-05
9.29467e-05
-6.82058e-05
0.000102806
-4.7698e-05
0.000107954
-2.5172e-05
0.000108911
-2.03044e-06
0.000105108
2.13505e-05
9.66667e-05
4.44098e-05
8.43894e-05
6.54602e-05
6.83895e-05
8.41302e-05
4.93105e-05
9.94392e-05
2.82697e-05
0.000110289
6.05373e-06
0.000116628
-1.61417e-05
0.000117963
-3.73684e-05
0.000114647
-5.67688e-05
0.000107142
-7.35139e-05
9.60296e-05
-8.73495e-05
8.19632e-05
-9.79242e-05
6.58669e-05
-0.000105109
4.85243e-05
-0.000108934
3.06711e-05
-0.000109587
1.294e-05
-0.000107318
-4.08176e-06
-0.000102436
-2.00871e-05
-9.52105e-05
-3.48707e-05
-8.56587e-05
-4.85412e-05
-7.40392e-05
-6.05019e-05
-6.07106e-05
-7.02474e-05
-4.57635e-05
-7.78777e-05
-2.93393e-05
-8.345e-05
-1.12389e-05
-8.68854e-05
8.62497e-06
-8.72334e-05
2.87991e-05
-8.11305e-05
4.42253e-05
-6.31245e-05
4.98509e-05
-3.38525e-05
4.62132e-05
-4.84628e-06
3.50381e-05
1.89146e-05
2.58773e-05
1.78882e-05
1.61735e-05
1.30812e-05
6.48183e-05
-1.25022e-05
6.87958e-05
-3.30453e-05
3.03288e-05
-4.4956e-05
3.14009e-05
-5.85539e-05
3.86035e-05
-6.72825e-05
1.41116e-05
-6.52434e-05
-2.18987e-05
-5.12066e-05
-5.91373e-05
-2.64231e-05
-9.14811e-05
1.04836e-06
-0.000105118
2.7182e-05
-0.000106372
4.99149e-05
-9.91258e-05
6.8947e-05
-8.71177e-05
8.43234e-05
-7.19325e-05
9.6103e-05
-5.38195e-05
0.000103141
-3.26274e-05
0.000105596
-1.01455e-05
0.000103323
1.28986e-05
9.65101e-05
3.50783e-05
8.58458e-05
5.51381e-05
7.17474e-05
7.26902e-05
5.47615e-05
8.72152e-05
3.56806e-05
9.80446e-05
1.50316e-05
0.00010458
-5.76344e-06
0.000105916
-2.57745e-05
0.00010268
-4.42662e-05
9.5122e-05
-6.01746e-05
8.25891e-05
-7.30601e-05
6.70314e-05
-8.21899e-05
4.83381e-05
-8.75876e-05
2.85853e-05
-8.94509e-05
8.14682e-06
-8.77837e-05
-1.25885e-05
-8.27656e-05
-3.2968e-05
-7.43205e-05
-5.29316e-05
-6.23344e-05
-7.2132e-05
-4.68224e-05
-9.01676e-05
-2.77286e-05
-0.000106174
-5.39138e-06
-0.000119207
1.97491e-05
-0.000127916
4.69962e-05
-0.000130475
7.31786e-05
-0.000123915
9.50527e-05
-0.000107245
0.000111736
-8.48902e-05
0.000123466
-5.94287e-05
0.000129989
-3.16957e-05
0.000130955
-2.99676e-06
0.000125987
2.63184e-05
0.000116392
5.40048e-05
0.000101547
8.03055e-05
8.21937e-05
0.000103484
5.90122e-05
0.000122622
3.3255e-05
0.000136048
6.23456e-06
0.00014365
-2.06352e-05
0.000144835
-4.60037e-05
0.000140017
-6.90514e-05
0.000130191
-8.87046e-05
0.000115684
-0.000104656
9.79155e-05
-0.000116567
7.77783e-05
-0.000124294
5.62507e-05
-0.000127964
3.4339e-05
-0.000127967
1.29414e-05
-0.000124692
-7.35816e-06
-0.000118567
-2.62112e-05
-0.000109741
-4.36944e-05
-9.83554e-05
-5.9925e-05
-8.46583e-05
-7.41974e-05
-6.88658e-05
-8.60386e-05
-5.14914e-05
-9.52512e-05
-3.21807e-05
-0.000102761
-9.72504e-06
-0.000109341
1.67297e-05
-0.000113688
4.57804e-05
-0.000110181
6.81006e-05
-8.54453e-05
7.48652e-05
-4.06178e-05
6.80146e-05
2.00428e-06
5.27458e-05
3.41826e-05
4.12717e-05
2.93642e-05
2.20038e-05
3.23501e-05
8.68236e-05
-1.15326e-06
6.99488e-05
-5.16105e-05
8.07853e-05
-7.94398e-05
5.92297e-05
-9.34468e-05
5.26102e-05
-0.00010361
2.4275e-05
-0.000100884
-2.46254e-05
-8.00449e-05
-7.99763e-05
-4.12058e-05
-0.00013032
-1.45832e-06
-0.000144865
3.23932e-05
-0.000140223
6.02986e-05
-0.000127031
8.27811e-05
-0.0001096
0.000100771
-8.99215e-05
0.000114755
-6.78039e-05
0.000124143
-4.20149e-05
0.000127498
-1.34994e-05
0.000125365
1.50321e-05
0.000117884
4.25596e-05
0.000105302
6.77201e-05
8.8167e-05
8.98258e-05
6.74255e-05
0.000107957
4.39901e-05
0.00012148
1.865e-05
0.00012992
-6.95762e-06
0.000131524
-3.16892e-05
0.000127412
-5.4097e-05
0.00011753
-7.36374e-05
0.00010213
-8.89099e-05
8.23041e-05
-9.98394e-05
5.92677e-05
-0.000106012
3.47581e-05
-0.00010796
1.0095e-05
-0.000105695
-1.4853e-05
-9.96609e-05
-3.90012e-05
-9.01805e-05
-6.24116e-05
-7.70336e-05
-8.52786e-05
-6.03229e-05
-0.000106878
-3.96266e-05
-0.00012687
-1.41951e-05
-0.000144637
1.72869e-05
-0.000159398
5.47207e-05
-0.000167908
9.07057e-05
-0.000159899
0.000118212
-0.000134751
0.000137137
-0.000103815
0.000149504
-7.17957e-05
0.000156247
-3.84387e-05
0.000156859
-3.60884e-06
0.000151889
3.12889e-05
0.000140094
6.58006e-05
0.000122201
9.81997e-05
9.83152e-05
0.00012737
7.03764e-05
0.000150561
3.88688e-05
0.000167556
5.53552e-06
0.000176984
-2.72152e-05
0.000177586
-5.78777e-05
0.00017068
-8.53757e-05
0.000157689
-0.000108372
0.00013868
-0.000126741
0.000116282
-0.000140099
9.11361e-05
-0.000148257
6.44089e-05
-0.00015138
3.74649e-05
-0.000149927
1.14915e-05
-0.000144557
-1.27259e-05
-0.000135887
-3.48796e-05
-0.000124669
-5.4912e-05
-0.000110938
-7.3655e-05
-9.40076e-05
-9.11279e-05
-7.56733e-05
-0.000104373
-5.61267e-05
-0.000114798
-3.52246e-05
-0.000123663
-1.06297e-05
-0.000133936
2.37523e-05
-0.000148068
7.277e-05
-0.000159199
0.00011113
-0.000123805
0.000118152
-4.76398e-05
0.000105947
1.42091e-05
8.9048e-05
5.10826e-05
6.89268e-05
4.94826e-05
2.54527e-05
7.58226e-05
0.000112275
1.50682e-05
5.48802e-05
-4.08636e-05
0.000136716
-0.000125809
0.000144175
-0.000155505
8.23059e-05
-0.000166828
3.55975e-05
-0.000165053
-2.6401e-05
-0.000130361
-0.000114669
-6.24252e-05
-0.000198256
-2.22875e-08
-0.000207268
4.12173e-05
-0.000181462
7.05119e-05
-0.000156325
9.42756e-05
-0.000133363
0.000114932
-0.000110577
0.00013204
-8.49113e-05
0.000143682
-5.36568e-05
0.000148491
-1.83079e-05
0.000146281
1.72418e-05
0.000138304
5.05367e-05
0.000124249
8.17761e-05
0.000104098
0.000109977
7.92163e-05
0.000132838
5.09669e-05
0.000149729
2.10226e-05
0.000159865
-1.00171e-05
0.000162564
-3.99675e-05
0.000157362
-6.77194e-05
0.000145282
-9.14924e-05
0.000125902
-0.000109951
0.000100762
-0.000122312
7.16292e-05
-0.000128284
4.07298e-05
-0.000129147
1.09578e-05
-0.000126522
-1.74778e-05
-0.00012015
-4.53725e-05
-0.000110142
-7.24181e-05
-9.70188e-05
-9.84011e-05
-8.06357e-05
-0.00012326
-5.95041e-05
-0.000148001
-2.97702e-05
-0.000174372
1.16319e-05
-0.0002008
6.3145e-05
-0.000219422
0.000112866
-0.000209621
0.000149876
-0.00017176
0.000172443
-0.000126382
0.000184296
-8.36474e-05
0.000189254
-4.33961e-05
0.000188991
-3.34513e-06
0.000182348
3.79323e-05
0.000168496
7.96522e-05
0.000146932
0.000119763
0.000119213
0.000155089
8.49642e-05
0.000184809
4.60652e-05
0.000206454
5.14831e-06
0.0002179
-3.54158e-05
0.000218149
-7.27709e-05
0.000208034
-0.000104806
0.000189724
-0.000131063
0.000164938
-0.000151301
0.000136521
-0.00016567
0.000105506
-0.000173847
7.25888e-05
-0.000175399
3.9019e-05
-0.000170829
6.92129e-06
-0.000161598
-2.19568e-05
-0.00014975
-4.6728e-05
-0.000135955
-6.87073e-05
-0.000119659
-8.99504e-05
-0.000100263
-0.000110523
-7.95424e-05
-0.000125093
-6.14157e-05
-0.000132925
-4.69116e-05
-0.000138167
-3.00653e-05
-0.000150782
1.20147e-05
-0.000190148
9.8739e-05
-0.000245923
0.000180361
-0.000205427
0.000196393
-6.3672e-05
0.000172436
3.81651e-05
0.000144872
7.86473e-05
9.2183e-05
0.000102172
1.89522e-05
0.000149055
0.000131227
2.54466e-05
2.94331e-05
3.12652e-05
0.000130897
-9.70814e-05
0.000272522
-0.000215113
0.000200337
-0.000250109
7.05937e-05
-0.000256602
-1.99082e-05
-0.000206386
-0.000164885
-9.73542e-05
-0.000307287
7.85771e-06
-0.00031248
6.88591e-05
-0.000242464
9.96455e-05
-0.000187111
0.000124039
-0.000157756
0.000150014
-0.000136552
0.000173039
-0.000107936
0.000185137
-6.57544e-05
0.000184275
-1.74455e-05
0.000175211
2.63067e-05
0.000160901
6.48474e-05
0.000142142
0.000100536
0.000117926
0.000134193
8.75794e-05
0.000163186
5.33251e-05
0.000183984
1.71797e-05
0.00019601
-2.00069e-05
0.00019975
-5.62712e-05
0.000193626
-9.02717e-05
0.000179282
-0.000119485
0.000155115
-0.000141483
0.00012276
-0.000153782
8.39282e-05
-0.000158984
4.59321e-05
-0.000158174
1.01472e-05
-0.000152812
-2.28396e-05
-0.000144619
-5.35654e-05
-0.000134698
-8.23392e-05
-0.000123206
-0.000109895
-0.000107252
-0.000139215
-8.23995e-05
-0.000172855
-4.27142e-05
-0.000214058
1.20528e-05
-0.000255568
7.4753e-05
-0.000282122
0.000135278
-0.000270146
0.00018339
-0.000219872
0.000214128
-0.00015712
0.000228613
-9.8132e-05
0.000232109
-4.68915e-05
0.000228493
2.70988e-07
0.000219073
4.73533e-05
0.000202587
9.61381e-05
0.000179508
0.000142843
0.000147699
0.000186898
0.000107522
0.000224985
6.01194e-05
0.000253855
9.30287e-06
0.000268716
-4.11053e-05
0.000268557
-8.6606e-05
0.000253535
-0.000123924
0.000227042
-0.000152861
0.000193875
-0.000174451
0.00015811
-0.000189354
0.000120408
-0.000197076
8.03075e-05
-0.000196666
3.86073e-05
-0.000189859
1.13556e-07
-0.000180004
-3.18127e-05
-0.000170692
-5.60404e-05
-0.000162648
-7.6751e-05
-0.000151498
-0.0001011
-0.000132813
-0.000129208
-0.000109598
-0.000148308
-9.1464e-05
-0.000151058
-8.2171e-05
-0.000147459
-6.484e-05
-0.000168111
-3.91233e-06
-0.000251075
0.000112416
-0.000362252
0.000241578
-0.000334587
0.000289572
-0.000111664
0.000256215
7.1523e-05
0.000178209
0.000156654
5.0405e-05
0.000229976
-5.82871e-06
0.000205289
0.000125399
0.000134965
-0.000105532
0.000223666
4.21968e-05
0.000100913
0.000395274
-0.000147826
0.000449076
-0.000291296
0.000214064
-0.000341059
2.98548e-05
-0.000308301
-0.000197643
-0.000187419
-0.000428169
-3.04775e-05
-0.000469422
9.39489e-05
-0.00036689
0.000165506
-0.000258669
0.00021387
-0.000206119
0.000257517
-0.0001802
0.000288734
-0.000139152
0.000296292
-7.33131e-05
0.0002799
-1.05292e-06
0.000249519
5.66876e-05
0.00021679
9.75769e-05
0.000185194
0.000132133
0.000152214
0.000167173
0.000113761
0.000201638
6.92537e-05
0.000228491
2.07174e-05
0.000244547
-2.79579e-05
0.000248425
-7.56452e-05
0.000241313
-0.00011775
0.000221387
-0.000152564
0.000189929
-0.000175883
0.000146079
-0.000189261
9.73056e-05
-0.000193061
4.97327e-05
-0.000191076
8.16193e-06
-0.000184647
-2.92696e-05
-0.000175643
-6.25708e-05
-0.000165232
-9.27502e-05
-0.000151412
-0.000123716
-0.000128823
-0.000161804
-8.94919e-05
-0.000212185
-3.40869e-05
-0.000269462
2.94247e-05
-0.000319079
9.28409e-05
-0.000345538
0.000152382
-0.000329686
0.000205155
-0.000272645
0.000244925
-0.000196889
0.000268104
-0.00012131
0.000276693
-5.54797e-05
0.000274777
2.18662e-06
0.000264447
5.7683e-05
0.000247204
0.000113381
0.000221315
0.000168732
0.000185003
0.000223209
0.000136051
0.000273936
7.54684e-05
0.000314438
8.46575e-06
0.000335718
-5.64784e-05
0.000333499
-0.000112973
0.000310026
-0.000158162
0.00027223
-0.000193269
0.000228981
-0.000218918
0.000183757
-0.000235113
0.000136601
-0.000241846
8.70389e-05
-0.000240936
3.76967e-05
-0.000237879
-2.94303e-06
-0.000238857
-3.08351e-05
-0.000246464
-4.84336e-05
-0.000254548
-6.86668e-05
-0.000251286
-0.000104363
-0.000230662
-0.000149831
-0.000192091
-0.000186879
-0.000140799
-0.00020235
-8.18796e-05
-0.000206378
-1.06817e-06
-0.000248922
0.000104533
-0.000356676
0.000206806
-0.000464523
0.000305728
-0.000433509
0.000346206
-0.000152142
0.000272872
0.000144858
7.53288e-05
0.000354197
-0.000109628
0.000414935
-8.688e-05
0.000182541
3.85197e-05
0.000249224
-0.000354757
0.000403334
-0.000111912
0.000303238
0.000495371
3.53627e-05
0.000716951
-0.00022834
0.000477766
-0.000376135
0.00017765
-0.000412153
-0.000161626
-0.000333665
-0.000506657
-0.000165603
-0.000637484
1.84859e-05
-0.000550979
0.000173501
-0.000413684
0.000292755
-0.000325372
0.000381127
-0.000268572
0.000432185
-0.00019021
0.000442345
-8.34735e-05
0.000419314
2.1978e-05
0.00037575
0.000100251
0.000328376
0.00014495
0.000285677
0.000174831
0.000244571
0.000208279
0.000197402
0.000248808
0.000138747
0.000287145
7.07061e-05
0.000312588
-1.06145e-07
0.000319238
-6.54868e-05
0.000306694
-0.000120638
0.000276539
-0.000159933
0.000229224
-0.000182587
0.000168733
-0.000190851
0.000105569
-0.000194138
5.30201e-05
-0.000197161
1.11849e-05
-0.000200108
-2.63223e-05
-0.000197481
-6.51958e-05
-0.000187103
-0.000103127
-0.000165112
-0.000145706
-0.000126618
-0.000200297
-7.13741e-05
-0.000267429
-6.70093e-06
-0.000334135
5.65856e-05
-0.000382365
0.000113479
-0.000402431
0.000161968
-0.000378174
0.000206424
-0.000317102
0.000246633
-0.000237099
0.000278922
-0.000153599
0.000300514
-7.70729e-05
0.000311297
-8.59736e-06
0.000308632
6.0348e-05
0.000293623
0.00012839
0.000262236
0.000200119
0.000211434
0.00027401
0.000139803
0.000345568
5.17724e-05
0.000402468
-3.97147e-05
0.000427204
-0.000123831
0.000417614
-0.00019557
0.000381766
-0.000255838
0.000332499
-0.000303953
0.000277096
-0.000337711