/*--------------------------------*- C++ -*----------------------------------*\
| =========                 |                                                 |
| \\      /  F ield         | OpenFOAM: The Open Source CFD Toolbox           |
|  \\    /   O peration     | Version:  2412                                  |
|   \\  /    A nd           | Website:  www.openfoam.com                      |
|    \\/     M anipulation  |                                                 |
\*---------------------------------------------------------------------------*/
FoamFile
{
    version     2.0;
    format      ascii;
    arch        "LSB;label=32;scalar=64";
    class       volScalarField;
    location    "3.9";
    object      alpha.glycerin;
}
// * * * * * * * * * * * * * * * * * * * * * * * * * * * * * * * * * * * * * //

dimensions      [0 0 0 0 0 0 0];

internalField   nonuniform List<scalar> 
6400
(
1
1
1
1
1
1
1
1
1
1
1
1
1
1
1
1
1
1
1
1
1
1
1
1
1
1
1
1
1
1
1
1
1
1
1
1
1
1
1
1
1
1
1
1
1
1
1
1
1
1
1
1
1
1
1
1
1
1
1
1
1
1
0.999999
0.999999
0.999999
0.999999
1
1
1
1
0.999999
1
1
1
1
1
1
1
1
1
1
1
1
1
1
1
0.999999
0.999999
0.999999
0.999999
0.999999
0.999999
0.999999
0.999999
0.999999
0.999999
0.999999
0.999999
0.999999
0.999999
0.999999
0.999999
0.999999
0.999999
0.999999
0.999999
0.999999
1
1
1
1
1
1
1
1
1
1
1
1
1
1
1
1
1
1
1
1
1
1
1
1
1
1
1
1
1
1
1
0.999999
0.999999
0.999998
0.999998
0.999999
0.999999
0.999999
0.999999
1
0.999999
0.999999
0.999999
0.999999
0.999999
1
1
1
1
1
1
1
1
1
1
1
1
1
0.999999
0.999999
0.999999
0.999999
0.999999
0.999999
0.999999
0.999999
0.999999
0.999999
0.999999
0.999999
0.999999
0.999999
0.999999
0.999999
0.999999
0.999999
0.999999
0.999999
0.999999
1
1
1
1
1
1
1
1
1
1
1
1
1
1
1
1
1
1
1
1
1
1
1
1
1
1
1
0.999999
0.999999
0.999999
0.999999
0.999998
0.999998
0.999999
1
1
1
1
0.999999
0.999999
0.999999
0.999999
0.999999
0.999999
0.999999
0.999999
0.999999
1
1
1
1
1
1
1
1
1
1
1
1
1
1
1
1
1
1
1
1
1
1
1
1
1
0.999999
0.999999
0.999999
0.999999
0.999999
0.999999
0.999999
0.999999
0.999999
0.999999
0.999999
0.999999
0.999999
0.999999
0.999999
0.999999
0.999999
0.999999
0.999999
0.999999
0.999999
0.999999
0.999999
0.999999
0.999999
0.999999
0.999999
0.999999
0.999999
1
0.999999
0.999999
0.999999
1
0.999999
0.999999
0.999999
0.999999
1
1
1
1
0.999999
0.999999
0.999999
0.999999
0.999999
0.999999
0.999999
1
1
1
1
1
1
1
1
1
1
1
1
1
1
1
1
1
1
1
1
1
1
1
1
1
1
1
1
1
1
1
1
1
1
1
1
1
1
1
1
1
1
0.999999
0.999999
0.999999
0.999999
0.999999
0.999999
0.999999
0.999999
0.999999
0.999999
0.999998
0.999998
0.999998
0.999998
0.999998
0.999998
0.999998
0.999998
0.999998
0.999999
0.999999
0.999999
0.999999
1
1
1
1
1
1
1
0.999999
1
1
1
0.999999
0.999999
0.999999
1
1
1
1
1
1
1
1
1
1
1
1
1
1
1
1
1
1
1
1
1
1
1
1
1
1
1
1
1
1
1
1
1
1
1
1
1
1
1
1
1
1
0.999999
0.999999
0.999999
0.999999
0.999998
0.999998
0.999998
0.999998
0.999998
0.999998
0.999998
0.999998
0.999997
0.999997
0.999997
0.999997
0.999997
0.999997
0.999997
0.999998
0.999998
0.999999
0.999999
0.999999
0.999999
0.999999
0.999999
0.999999
0.999999
1
1
1
1
1
1
1
1
1
1
1
1
1
1
1
1
1
1
1
1
1
1
1
1
1
1
1
1
1
1
1
1
1
1
1
1
1
1
1
1
1
1
1
1
1
1
1
1
1
1
1
0.999999
0.999999
0.999999
0.999998
0.999998
0.999998
0.999998
0.999998
0.999998
0.999997
0.999997
0.999997
0.999997
0.999997
0.999997
0.999997
0.999997
0.999997
0.999997
0.999997
0.999998
0.999998
0.999998
0.999998
0.999998
0.999999
0.999998
0.999998
0.999998
0.999999
0.999999
1
1
1
1
1
1
1
1
1
1
1
1
1
1
1
1
1
1
1
1
1
1
1
1
1
1
1
1
1
1
1
1
1
1
1
1
1
1
1
1
1
1
1
1
1
1
1
1
1
0.999999
0.999999
0.999999
0.999999
0.999998
0.999998
0.999998
0.999998
0.999998
0.999998
0.999998
0.999998
0.999998
0.999998
0.999998
0.999998
0.999998
0.999998
0.999997
0.999997
0.999997
0.999998
0.999998
0.999999
0.999999
0.999999
0.999999
0.999999
0.999999
0.999999
0.999999
0.999999
1
1
1
1
1
1
1
1
1
1
1
1
1
1
1
1
1
1
1
1
1
1
1
1
1
1
1
1
1
1
1
1
1
1
1
1
1
1
1
1
1
1
1
1
1
1
1
0.999999
0.999999
0.999999
0.999999
0.999999
0.999999
0.999998
0.999999
0.999998
0.999998
0.999998
0.999999
0.999999
0.999999
0.999999
0.999999
0.999999
0.999999
0.999999
0.999998
0.999998
0.999999
0.999999
0.999999
1
1
1
1
1
1
1
1
1
1
1
1
1
1
1
1
1
1
1
1
1
1
1
1
1
1
1
1
1
1
1
1
1
1
1
1
1
1
1
1
1
1
1
1
1
1
1
1
1
1
1
1
1
0.999999
0.999999
0.999999
0.999999
0.999999
0.999999
0.999999
0.999999
0.999999
0.999999
0.999999
0.999999
0.999999
1
1
1
1
1
1
1
1
1
0.999999
0.999999
0.999999
0.999999
0.999999
0.999999
1
1
1
1
1
1
1
1
0.999999
0.999999
1
1
1
1
1
1
1
1
1
1
1
1
1
1
1
1
1
1
1
1
1
1
1
1
1
1
1
1
1
0.999999
0.999999
0.999999
0.999999
0.999999
0.999999
0.999999
0.999999
0.999999
0.999999
0.999999
0.999999
0.999999
0.999999
0.999999
0.999999
0.999999
0.999999
0.999999
0.999999
0.999999
1
1
1
1
1
1
1
1
1
1
1
1
1
1
1
0.999999
0.999999
0.999998
0.999997
0.999997
0.999998
0.999999
1
1
1
1
1
0.999999
0.999999
0.999999
0.999999
0.999999
0.999999
0.999999
0.999999
0.999999
0.999999
0.999999
0.999999
0.999999
1
1
1
1
1
1
1
1
1
1
1
1
1
1
1
1
1
1
1
1
1
1
1
1
1
1
1
1
1
1
1
1
1
1
0.999999
1
0.999999
1
1
1
1
1
1
1
1
1
1
1
1
1
1
1
1
1
1
1
0.999999
0.999999
1
0.999999
0.999999
1
1
1
1
1
1
1
1
1
1
1
1
0.999999
0.999999
0.999999
0.999999
1
1
1
1
1
1
1
1
1
1
1
1
1
0.999999
1
1
0.999999
1
1
1
1
1
1
1
1
1
1
1
1
1
1
1
1
1
1
1
1
1
1
1
1
1
1
1
1
1
1
1
1
1
1
1
1
1
1
1
1
1
1
1
1
1
1
0.999999
0.999999
1
1
1
1
1
1
1
1
1
1
1
1
1
1
1
1
1
1
1
1
1
1
1
1
1
1
1
1
0.999999
1
1
1
1
1
1
1
1
1
1
1
1
1
1
1
1
1
1
1
1
1
1
1
1
1
1
1
1
1
1
1
1
1
1
1
1
1
1
1
1
1
1
1
1
1
1
1
1
0.999999
0.999999
0.999999
1
1
1
1
1
1
1
1
1
1
1
1
1
1
1
1
1
1
1
1
1
1
1
1
1
1
1
1
0.999999
1
1
1
1
1
1
1
1
1
1
1
1
1
1
1
1
1
1
1
1
1
1
1
1
1
1
0.999999
0.999999
0.999999
0.999999
0.999999
1
1
1
1
1
1
1
1
1
1
0.999999
1
1
1
0.999998
0.999999
1
1
1
1
1
1
1
1
1
1
1
1
1
1
1
1
1
1
1
1
1
1
1
1
1
1
1
1
1
1
1
1
0.999998
1
1
1
1
1
1
1
1
1
1
1
1
1
1
1
1
1
1
1
1
1
1
1
0.999999
0.999999
0.999999
0.999999
0.999999
0.999999
0.999999
1
1
1
1
1
1
1
1
1
1
1
0.999999
0.999998
0.999998
1
1
0.999999
0.999999
0.999999
0.999999
0.999999
1
1
1
1
1
1
1
1
1
1
1
1
1
1
1
1
1
1
1
1
1
1
1
1
1
1
0.999999
1
0.999999
1
1
1
1
1
1
1
1
1
1
1
1
1
1
1
1
1
1
1
1
1
1
1
1
1
1
1
1
1
1
1
1
1
1
1
1
1
1
1
1
1
0.999999
0.999999
0.999998
0.999998
0.999998
0.999999
1
1
0.999999
0.999999
1
1
1
1
1
1
1
1
1
1
1
1
1
1
1
1
1
1
1
1
1
1
1
1
1
1
0.999999
1
1
1
1
1
1
1
1
1
1
1
1
1
1
1
1
1
1
1
1
1
1
1
1
1
1
1
0.999999
1
1
1
1
1
1
1
1
0.999999
0.999999
1
1
1
1
1
0.999999
0.999999
0.999998
0.999999
0.999999
0.999999
0.999999
0.999999
0.999999
0.999999
0.999999
1
1
1
1
1
1
1
1
1
1
1
1
1
1
1
1
1
1
1
1
1
1
1
1
1
1
1
1
1
1
1
1
1
0.999999
0.999999
0.999999
0.999999
0.999999
0.999999
0.999999
0.999999
0.999999
0.999999
0.999999
0.999999
0.999999
0.999999
0.999999
0.999999
0.999999
1
1
1
1
0.999999
0.999999
0.999999
0.999999
0.999999
0.999999
0.999787
0.983816
0.94374
0.90428
0.880701
0.883939
0.915933
0.958875
0.992106
0.999997
0.999998
0.999998
0.999998
0.999999
0.999999
0.999999
0.999999
0.999999
0.999999
1
1
1
1
1
1
0.999999
0.999999
0.999999
0.999999
0.999999
0.999999
0.999999
0.999999
0.999999
0.999999
0.999999
0.999999
0.999999
0.999999
0.999999
1
0.999999
0.999999
1
1
1
1
1
1
1
1
1
1
1
1
1
1
1
1
1
1
1
1
1
1
1
1
1
0.999939
0.999293
0.997803
0.995251
0.991286
0.985392
0.976676
0.963623
0.943584
0.911762
0.862783
0.757396
0.594116
0.434678
0.312256
0.260284
0.233834
0.235991
0.278626
0.35454
0.483576
0.637692
0.801184
0.877894
0.921492
0.949643
0.96754
0.979293
0.987185
0.992513
0.99605
0.998292
0.999535
0.999991
1
1
1
1
1
1
1
1
1
1
1
1
1
1
1
1
1
1
1
1
1
1
1
0.0469165
0.0699947
0.0858691
0.0983094
0.107999
0.115861
0.122551
0.128501
0.134008
0.139282
0.144465
0.149651
0.154893
0.160211
0.165593
0.170996
0.176348
0.181544
0.186444
0.190868
0.194596
0.197357
0.198816
0.198652
0.196922
0.193322
0.187372
0.178581
0.166313
0.149849
0.128498
0.101331
0.0668318
0.0259155
0.00533656
0.0224773
0.0628287
0.0630953
0.0734256
0.076693
0.0774238
0.0736486
0.0660775
0.0537815
0.0164174
0.00436059
0.0390526
0.078373
0.110359
0.135604
0.155311
0.170309
0.181339
0.189124
0.194279
0.197238
0.19842
0.198025
0.196052
0.192876
0.188813
0.184123
0.179018
0.173667
0.168201
0.16272
0.157289
0.151945
0.146698
0.141525
0.136372
0.131146
0.125704
0.119843
0.113268
0.105557
0.0960671
0.083896
0.0683737
0.0458247
2.26676e-07
7.94979e-08
1.60976e-07
2.34138e-07
2.98719e-07
3.5303e-07
3.96004e-07
4.2806e-07
4.4981e-07
4.61612e-07
4.63579e-07
4.55659e-07
4.37766e-07
4.0994e-07
3.72541e-07
3.26422e-07
2.72966e-07
2.14525e-07
1.54402e-07
9.73756e-08
5.0039e-08
4.2181e-08
7.91558e-08
1.14606e-07
1.20955e-07
1.27229e-07
1.37966e-07
1.54926e-07
2.32427e-07
3.87724e-07
5.50502e-07
6.2299e-07
6.95748e-07
1.16404e-06
0.00742877
0.162289
0.261202
0.273789
0.278246
0.278248
0.278247
0.278244
0.278245
0.245667
0.096334
1.44496e-05
3.61821e-06
2.55356e-06
1.93393e-06
1.6297e-06
1.40553e-06
1.16012e-06
8.13547e-07
4.68773e-07
2.66971e-07
2.05012e-07
1.45438e-07
6.87524e-08
3.08739e-08
6.44185e-08
1.14074e-07
1.71157e-07
2.2991e-07
2.8611e-07
3.36835e-07
3.79886e-07
4.1404e-07
4.38755e-07
4.53912e-07
4.59454e-07
4.55505e-07
4.42184e-07
4.19434e-07
3.86931e-07
3.44056e-07
2.90394e-07
2.27079e-07
1.55758e-07
7.6588e-08
2.19274e-07
1.4323e-09
1.84279e-10
4.67024e-10
7.5472e-10
1.0193e-09
1.23583e-09
1.38416e-09
1.48129e-09
1.51903e-09
1.48396e-09
1.36646e-09
1.15695e-09
8.58713e-10
4.98142e-10
1.41082e-10
-1.10495e-10
-8.17529e-11
-4.03273e-11
1.70817e-12
5.90713e-11
1.9258e-09
2.87825e-08
1.06868e-07
1.5988e-07
2.35455e-07
1.37966e-07
5.84515e-06
7.2587e-05
0.000110284
0.000108492
2.92085e-05
0.000113538
0.000216823
0.000102661
0.0050041
0.113689
0.194016
0.270686
0.27825
0.278246
0.278244
0.278245
0.265114
0.192987
0.0850918
0.000256849
0.000249077
0.000391987
0.000204704
4.75092e-05
6.06865e-05
0.000120976
0.000211548
0.000224241
0.000137261
1.09178e-05
7.22864e-08
5.92074e-08
9.58811e-09
4.74847e-09
1.92083e-09
3.22859e-10
1.23042e-11
6.48428e-12
6.02503e-12
5.79234e-11
4.54636e-10
8.84147e-10
1.44009e-09
1.90141e-09
2.16614e-09
2.26333e-09
2.2283e-09
2.08518e-09
1.79032e-09
1.30572e-09
8.2704e-10
5.18093e-10
2.08518e-10
1.9622e-09
8.99822e-12
8.91272e-13
2.34835e-12
3.84309e-12
5.32885e-12
6.69203e-12
7.77424e-12
8.51525e-12
8.82999e-12
8.62338e-12
7.78648e-12
6.25828e-12
4.15768e-12
1.95499e-12
2.33857e-13
1.36659e-12
2.02634e-12
5.28797e-12
5.41787e-12
7.39312e-12
5.90127e-11
1.2214e-09
5.02128e-07
3.76973e-06
4.20987e-06
3.6076e-07
2.75164e-07
0.000123367
0.000570681
0.000571183
0.000285459
0.000402234
0.00332609
0.00427769
0.00334644
1.00254e-05
9.98279e-06
0.0316666
0.189068
0.147906
0.148282
0.175653
0.0219277
3.96485e-09
8.33121e-08
0.00353087
0.00436413
0.00363603
0.00036313
4.94479e-05
0.000239995
0.000520803
0.000520803
0.000520803
0.000433004
2.19445e-05
3.70865e-08
7.64671e-09
5.43962e-09
2.88714e-09
6.27922e-10
2.87418e-11
6.26057e-12
6.02242e-12
6.00201e-12
2.05735e-12
3.94073e-12
8.39115e-12
1.27511e-11
1.57828e-11
1.72152e-11
1.72741e-11
1.63482e-11
1.47018e-11
1.25493e-11
1.00511e-11
7.2656e-12
4.30545e-12
1.65491e-12
1.20277e-11
1.22269e-13
6.03386e-15
1.60462e-14
2.65269e-14
3.77035e-14
4.88951e-14
5.91667e-14
6.77095e-14
7.34951e-14
7.5152e-14
7.09723e-14
5.95259e-14
4.14113e-14
2.26923e-14
5.04971e-14
1.35113e-12
8.81339e-12
1.7931e-11
9.76424e-12
5.90303e-11
1.22103e-09
5.27721e-07
1.20166e-05
2.085e-05
2.08592e-05
1.45171e-05
1.654e-08
2.09921e-05
0.000394333
0.000563599
0.000560332
0.000554382
0.000447156
0.000329759
1.27947e-07
1.02046e-05
7.40691e-05
4.06589e-09
3.54147e-09
3.44896e-09
3.54147e-09
3.64294e-09
3.75268e-09
3.86088e-09
1.58752e-07
1.60653e-07
8.3599e-05
9.93406e-05
0.000304779
0.000335354
0.000284223
0.000255182
0.000458821
0.000443513
0.000160656
5.49238e-06
5.29199e-06
5.75636e-06
1.89045e-06
6.75264e-09
5.67922e-10
1.27598e-10
6.54897e-11
3.25877e-11
8.10108e-12
1.18053e-12
1.74538e-13
1.38258e-13
1.87497e-13
2.28225e-13
2.43653e-13
2.3814e-13
2.18721e-13
1.90531e-13
1.57471e-13
1.21997e-13
8.71117e-14
5.71151e-14
2.36918e-14
1.73804e-13
1.18615e-15
5.44139e-17
1.48669e-16
2.3749e-16
3.36179e-16
4.50485e-16
5.67772e-16
6.8108e-16
7.78674e-16
8.43298e-16
8.45965e-16
7.54832e-16
5.72313e-16
7.13519e-16
2.06167e-14
7.21706e-13
5.23443e-12
1.47789e-11
1.259e-10
1.6448e-09
2.24966e-08
8.81701e-06
2.05037e-05
2.08572e-05
1.6484e-05
3.11666e-06
6.33748e-09
6.03155e-09
5.48744e-09
6.04129e-09
6.42135e-09
7.03276e-09
7.52172e-09
8.01832e-09
8.69068e-09
6.60808e-06
0.00026224
0.000324623
4.83874e-09
3.34562e-09
4.7457e-09
4.4281e-09
3.91705e-09
3.96485e-09
4.09082e-09
6.36553e-06
1.18979e-05
1.6527e-06
5.69904e-07
2.80309e-06
1.16746e-08
1.0198e-08
9.06967e-09
7.75095e-09
7.47212e-09
9.47089e-06
1.92149e-05
1.92146e-05
9.60943e-06
5.52112e-08
2.74576e-09
3.04481e-10
5.29712e-11
2.49123e-11
7.20032e-12
8.60101e-13
9.6855e-14
2.67039e-14
1.64492e-14
1.18896e-14
8.80856e-15
6.60617e-15
4.97654e-15
3.72562e-15
2.73643e-15
1.93609e-15
1.50115e-15
5.54672e-15
3.75707e-15
2.15517e-15
1.69983e-16
4.70619e-18
1.52886e-17
1.27014e-17
6.99205e-18
8.13819e-18
9.20149e-18
9.9799e-18
1.04794e-17
1.17103e-17
1.25907e-17
1.23408e-17
1.60807e-17
1.72497e-16
3.53961e-15
1.28935e-13
1.23162e-12
2.91135e-12
3.44426e-11
5.5181e-10
1.26409e-08
3.67115e-06
7.95016e-06
2.0819e-06
1.87814e-08
3.07581e-08
4.03369e-08
2.01164e-08
5.5846e-09
1.93561e-08
2.09163e-08
2.10111e-08
1.82367e-08
9.03485e-09
9.11589e-09
9.13897e-09
9.34699e-09
8.40606e-08
8.93368e-09
3.29019e-09
3.86806e-09
5.88728e-09
8.0045e-09
4.3977e-09
4.49734e-09
1.32342e-06
8.22175e-07
9.01503e-07
1.59833e-06
2.06645e-06
1.11609e-06
2.09194e-08
1.09279e-08
6.50088e-08
4.94022e-09
9.82981e-06
1.91967e-05
1.9216e-05
1.45901e-05
9.47113e-07
7.21464e-09
6.18785e-10
7.98286e-11
1.62661e-11
5.44709e-12
6.29649e-13
6.33e-14
2.3013e-14
1.37737e-14
8.76055e-15
5.55045e-15
3.53787e-15
2.2796e-15
1.47829e-15
9.57124e-16
6.11306e-16
3.87716e-16
2.51873e-16
1.10769e-16
3.60425e-16
3.36848e-18
1.09052e-19
3.64347e-19
4.35117e-19
4.04852e-19
2.76642e-19
1.86914e-19
2.10006e-19
2.54297e-19
3.01659e-19
3.05908e-19
4.1569e-19
3.92891e-18
4.23021e-17
5.7601e-16
2.73186e-14
3.25226e-13
1.84372e-12
3.31116e-11
5.94801e-10
5.91303e-08
2.9867e-06
4.3637e-06
1.21792e-08
1.51736e-08
2.62621e-08
2.11495e-08
4.61324e-09
3.97764e-09
3.64184e-09
3.63255e-09
3.44062e-09
2.91575e-09
3.16126e-09
5.51267e-09
1.02154e-08
1.4179e-08
1.46088e-08
6.93338e-09
3.24412e-09
2.57394e-09
8.2187e-09
1.06377e-08
1.06377e-08
9.12512e-09
1.58922e-09
8.20671e-10
1.08716e-09
1.46327e-09
1.79378e-09
1.00775e-08
3.14345e-08
4.41718e-08
2.11075e-08
2.01341e-09
3.57347e-06
1.9051e-05
1.91967e-05
1.91465e-05
7.5263e-06
3.31096e-08
2.56221e-09
1.79349e-10
1.72969e-11
3.35864e-12
4.19602e-13
3.21311e-14
7.31463e-15
3.20511e-15
1.5257e-15
7.23276e-16
3.51171e-16
1.77551e-16
9.30597e-17
4.99632e-17
2.6792e-17
1.18129e-17
4.49773e-18
1.50079e-18
9.73762e-18
3.41726e-20
1.82349e-21
6.10069e-21
9.42705e-21
1.16505e-20
1.21011e-20
1.1235e-20
9.83329e-21
1.02127e-20
1.16534e-20
1.48878e-20
6.60259e-20
6.8814e-19
5.19466e-18
2.06283e-16
7.29583e-15
1.19367e-13
3.1874e-12
7.53747e-11
1.50997e-09
6.11521e-07
2.92125e-06
2.49709e-06
8.43433e-09
1.21792e-08
1.35132e-08
1.13321e-08
1.19621e-08
1.89872e-08
6.12976e-09
1.14196e-10
7.56319e-11
3.26717e-10
1.24224e-09
2.52273e-09
3.36836e-09
5.02039e-09
6.0711e-09
7.13674e-09
1.547e-09
2.53541e-09
1.04991e-08
1.06377e-08
8.53542e-09
4.05756e-09
1.95189e-09
6.88305e-10
1.03123e-09
1.55505e-09
1.99497e-09
2.22322e-09
4.31473e-09
9.03958e-09
1.82291e-09
1.20884e-09
1.57068e-06
1.85661e-05
1.91465e-05
1.91603e-05
7.5277e-06
3.47093e-08
2.45502e-09
1.50245e-10
1.37949e-11
3.00308e-12
3.0513e-13
1.33136e-14
1.04073e-15
2.31733e-16
7.39627e-17
2.55841e-17
9.46181e-18
3.84052e-18
1.6977e-18
7.98242e-19
3.85502e-19
1.74792e-19
7.99569e-20
2.61452e-20
1.29236e-19
4.82479e-22
3.11643e-23
1.06588e-22
1.83544e-22
2.72509e-22
3.72268e-22
4.69599e-22
5.87808e-22
7.89827e-22
1.24177e-21
3.21813e-21
1.08128e-20
7.06991e-20
3.0206e-18
1.57675e-16
6.56206e-15
1.46609e-13
4.61221e-12
1.26045e-10
2.87545e-09
1.40108e-06
2.85752e-06
1.27949e-06
5.33741e-09
1.98283e-08
5.07514e-08
2.07322e-08
4.6541e-08
5.86697e-08
3.66307e-08
7.56319e-11
6.52517e-11
5.82197e-11
9.05303e-11
8.78526e-11
8.80115e-11
2.44875e-10
2.52402e-09
3.52441e-09
9.87118e-10
2.81291e-09
1.03157e-08
5.65011e-09
1.84723e-10
1.56488e-10
2.00905e-10
6.02865e-10
1.40516e-09
2.93042e-09
3.69936e-09
3.68801e-09
3.50793e-09
1.64627e-09
9.70299e-10
1.06453e-09
1.20883e-09
1.56696e-05
1.8969e-05
1.537e-05
2.12318e-06
1.53407e-08
1.00573e-09
5.72263e-11
5.70345e-12
2.12451e-12
1.62487e-13
4.56724e-15
1.48712e-16
1.09706e-17
2.28155e-18
6.98293e-19
2.39832e-19
9.03774e-20
3.75626e-20
1.68395e-20
7.90106e-21
3.72492e-21
1.70664e-21
5.44901e-22
2.37587e-21
7.76826e-24
5.5729e-25
1.95167e-24
3.60172e-24
5.95965e-24
9.51428e-24
1.51225e-23
2.46182e-23
4.25327e-23
9.07284e-23
2.03617e-22
1.2474e-22
4.78656e-21
5.92567e-19
4.6376e-17
2.24348e-15
4.34817e-14
1.64688e-12
5.57034e-11
1.59091e-09
1.15837e-06
2.77068e-06
3.57727e-07
3.01571e-09
3.88886e-08
6.07221e-08
6.0595e-08
6.03943e-08
6.03943e-08
3.8009e-08
1.77297e-09
1.12292e-10
4.72497e-11
7.23326e-11
8.94408e-11
9.03015e-11
8.64002e-11
8.63706e-11
1.26887e-10
9.3137e-10
2.56756e-09
4.14344e-09
1.47915e-10
1.4785e-10
1.55344e-10
2.55974e-10
3.74122e-10
8.5171e-10
1.52555e-09
2.57032e-09
3.22165e-09
3.06394e-09
1.40074e-09
8.19798e-10
9.70299e-10
9.3146e-07
5.05119e-06
4.39466e-06
4.86509e-06
3.00869e-06
5.3787e-08
4.52831e-10
2.23191e-11
3.21155e-12
9.2195e-13
4.69603e-14
1.21168e-15
3.05842e-17
9.59775e-19
9.85426e-20
2.541e-20
8.21234e-21
2.87219e-21
1.10151e-21
4.595e-22
2.02854e-22
9.09497e-23
3.98448e-23
1.23034e-23
5.10869e-23
1.31654e-25
1.0353e-26
3.70298e-26
7.22713e-26
1.28909e-25
2.2776e-25
4.14927e-25
7.96985e-25
1.68493e-24
4.12426e-24
3.67005e-24
7.32223e-25
5.23952e-23
4.73874e-21
3.88761e-19
3.02195e-17
2.36535e-15
1.49339e-13
7.17055e-12
8.50594e-09
3.86965e-07
6.70371e-07
2.79159e-09
2.4044e-09
2.98233e-08
6.06613e-08
4.96816e-08
2.25764e-08
1.79874e-08
1.03609e-10
4.90857e-11
4.3994e-11
4.18473e-11
7.15734e-11
1.11798e-10
1.12951e-10
9.09326e-11
9.78097e-11
8.59387e-10
1.26889e-09
1.88353e-09
4.87481e-10
1.72254e-10
1.48379e-10
1.81839e-10
1.48876e-10
7.58384e-11
7.02937e-11
1.63473e-10
4.57754e-10
6.40952e-10
8.56987e-10
8.23769e-10
7.96464e-10
8.94888e-09
3.62472e-07
2.16297e-08
9.09296e-09
1.5103e-07
1.39539e-06
2.03862e-07
1.44934e-10
8.42736e-12
3.69744e-12
3.47858e-13
9.84583e-15
2.50168e-16
5.81359e-18
1.24063e-19
5.77165e-21
1.06509e-21
3.07486e-22
9.86929e-23
3.46535e-23
1.33611e-23
5.51687e-24
2.3418e-24
9.8248e-25
2.93794e-25
1.1667e-24
2.3177e-27
1.98612e-28
7.24161e-28
1.48328e-27
2.81391e-27
5.36773e-27
1.07153e-26
2.29441e-26
5.42558e-26
1.52571e-25
2.84191e-25
3.27214e-26
5.06896e-25
4.55542e-23
3.34084e-21
1.93114e-19
1.10613e-17
7.22382e-16
1.87936e-13
9.21414e-10
1.1815e-09
4.51254e-09
1.94829e-09
2.09877e-09
5.92201e-09
2.14863e-08
1.02743e-08
1.62539e-09
1.91519e-10
1.33967e-10
1.22525e-10
4.90015e-11
2.76413e-11
3.44476e-11
6.92577e-11
9.45165e-11
6.52591e-11
2.13437e-10
1.46289e-09
1.28303e-09
1.79166e-09
6.43716e-10
2.46583e-10
1.42312e-10
1.61444e-10
9.86125e-11
4.96154e-11
3.51056e-11
3.34286e-11
9.49038e-11
4.42481e-10
7.35324e-10
8.01162e-10
8.07095e-10
2.30618e-08
4.25546e-09
2.67057e-09
9.58838e-10
1.45546e-09
1.01163e-08
7.44438e-08
1.22636e-09
2.98504e-12
1.26681e-12
5.40836e-14
1.37011e-15
3.37069e-17
7.33912e-19
1.38747e-20
3.78535e-22
4.60071e-23
1.15927e-23
3.41835e-24
1.10809e-24
3.97719e-25
1.54595e-25
6.2567e-26
2.52431e-26
7.33227e-27
2.78337e-26
4.19706e-29
3.90886e-30
1.45046e-29
3.10378e-29
6.22006e-29
1.26727e-28
2.72874e-28
6.35821e-28
1.62596e-27
4.79799e-27
1.72291e-26
1.06878e-26
1.13422e-26
5.06896e-25
4.55542e-23
3.34084e-21
1.93114e-19
1.10613e-17
7.22382e-16
4.82141e-13
8.18402e-11
4.29826e-10
6.39967e-10
1.47834e-09
1.02951e-09
5.83363e-10
1.14776e-09
1.33173e-09
1.11972e-09
6.58172e-10
1.99272e-10
3.31843e-11
1.23238e-11
1.58516e-11
2.9699e-11
3.84897e-11
2.81046e-11
4.18906e-10
1.54551e-09
1.06777e-09
1.88598e-09
1.10713e-09
2.10508e-10
1.09827e-10
1.15286e-10
8.30736e-11
4.54109e-11
3.24385e-11
2.89253e-11
9.06851e-11
3.53764e-10
8.04721e-10
1.04639e-09
1.46233e-09
5.99326e-09
3.84816e-10
3.78534e-10
1.76279e-10
1.74443e-10
6.95599e-10
1.51556e-10
1.98552e-10
3.06586e-12
1.23472e-13
3.72819e-15
1.04947e-16
2.56308e-18
5.44513e-20
1.01878e-21
2.2778e-23
1.96614e-24
4.33918e-25
1.17976e-25
3.56414e-26
1.20102e-26
4.42428e-27
1.71553e-27
6.67897e-28
1.88987e-28
6.87144e-28
7.73489e-31
7.83191e-32
2.95275e-31
6.58236e-31
1.38805e-30
3.00537e-30
6.93856e-30
1.74694e-29
4.84992e-29
1.50267e-28
6.35921e-28
5.10099e-27
1.50322e-27
1.13422e-26
1.05082e-24
9.05512e-23
6.18589e-21
4.36847e-19
2.09351e-15
7.21803e-13
9.35926e-12
5.52006e-11
9.50576e-11
4.61962e-10
4.51216e-10
4.72476e-10
6.57342e-10
5.83661e-10
3.27075e-10
9.76095e-11
1.89747e-11
4.59029e-12
4.90076e-12
9.49998e-12
1.92295e-11
2.12428e-11
1.79e-11
5.54319e-10
1.54543e-09
9.33733e-10
1.88771e-09
1.28755e-09
1.7157e-10
8.21678e-11
7.88675e-11
5.84544e-11
2.65305e-11
1.68112e-11
1.44251e-11
1.45602e-11
6.43753e-11
2.59243e-10
4.75375e-10
5.02003e-10
2.6369e-11
4.20532e-11
3.91694e-11
1.31108e-11
1.87312e-11
7.46902e-11
1.36869e-11
6.52951e-12
3.24539e-13
5.98624e-15
1.81827e-16
5.15564e-18
1.25974e-19
2.67502e-21
5.0559e-23
1.10466e-24
8.04135e-26
1.59471e-26
4.02304e-27
1.14195e-27
3.64136e-28
1.27919e-28
4.77363e-29
1.79967e-29
4.97485e-30
1.73675e-29
1.43627e-32
1.5847e-33
6.05999e-33
1.40457e-32
3.10896e-32
7.13391e-32
1.76117e-31
4.78312e-31
1.45093e-30
4.93148e-30
2.06129e-29
1.77706e-28
1.20702e-27
1.07193e-27
2.46432e-25
3.8997e-23
3.3555e-21
4.33298e-19
3.86785e-16
1.54214e-13
1.21589e-12
5.57084e-12
1.93581e-11
5.06705e-11
7.60927e-11
1.31208e-10
1.1635e-10
7.03915e-11
2.43824e-11
5.85531e-12
1.36926e-12
1.27236e-12
2.40833e-12
7.37799e-12
1.55314e-11
1.70247e-11
1.70393e-11
6.01025e-10
1.54551e-09
8.24915e-10
1.88771e-09
1.32789e-09
1.66868e-10
6.50542e-11
5.71704e-11
3.91433e-11
1.40963e-11
6.37598e-12
5.67077e-12
5.56084e-12
4.95398e-12
9.92952e-12
2.44608e-11
3.00195e-11
2.89389e-12
4.08719e-12
3.62755e-12
2.63414e-12
5.43715e-12
6.98497e-12
2.02564e-12
3.04407e-13
9.51758e-15
2.58572e-16
7.56729e-18
2.04199e-19
4.86482e-21
1.00949e-22
1.91124e-24
4.3178e-26
3.07331e-27
5.67839e-28
1.34173e-28
3.60793e-29
1.09714e-29
3.69858e-30
1.33462e-30
4.89012e-31
1.32437e-31
4.44904e-31
2.66244e-34
3.21237e-35
1.2438e-34
2.99256e-34
6.94026e-34
1.68451e-33
4.44005e-33
1.29982e-32
4.30424e-32
1.62625e-31
7.24298e-31
4.16135e-30
6.45653e-29
3.20952e-28
2.21633e-26
2.32965e-24
2.29395e-22
2.59162e-20
1.11688e-17
4.31856e-15
1.37366e-13
8.58795e-13
2.64164e-12
3.55044e-12
4.56e-12
6.61076e-12
4.95548e-12
2.40693e-12
8.11514e-13
2.44995e-13
2.54996e-13
5.36551e-13
1.91507e-12
6.59845e-12
1.2982e-11
1.42874e-11
1.7429e-11
6.01959e-10
1.54534e-09
6.94356e-10
1.83691e-09
1.41045e-09
2.15547e-10
5.45128e-11
4.55453e-11
3.1372e-11
1.08885e-11
2.81842e-12
1.56598e-12
1.61325e-12
1.81935e-12
1.6165e-12
1.47198e-12
1.20153e-12
1.63756e-12
2.20221e-12
2.20927e-12
1.83912e-12
2.21488e-12
2.09991e-12
3.88489e-13
1.47272e-14
3.87559e-16
1.14148e-17
3.16987e-19
7.88687e-21
1.71698e-22
3.28733e-24
6.1206e-26
1.43871e-27
1.09072e-28
1.93763e-29
4.33625e-30
1.11445e-30
3.25668e-31
1.06014e-31
3.7168e-32
1.32847e-32
3.53491e-33
1.14472e-32
4.87048e-36
6.6426e-37
2.53059e-36
6.32002e-36
1.53364e-35
3.93016e-35
1.0977e-34
3.39553e-34
1.18496e-33
4.7295e-33
2.2101e-32
1.26161e-31
9.5474e-31
1.26765e-29
5.60021e-28
5.29933e-26
5.00028e-24
4.96206e-22
2.81383e-19
8.33128e-17
4.1943e-15
4.06806e-14
1.24097e-13
1.66703e-13
1.62486e-13
1.41556e-13
1.07192e-13
4.98748e-14
2.33614e-14
3.28353e-14
1.05007e-13
4.25237e-13
1.78162e-12
6.07968e-12
1.08607e-11
1.23881e-11
3.17344e-11
5.98669e-10
1.48011e-09
5.64528e-10
1.59191e-09
1.55498e-09
3.17577e-10
4.71789e-11
3.65682e-11
2.52383e-11
9.52603e-12
1.99904e-12
4.37017e-13
2.14314e-13
2.08198e-13
2.81906e-13
3.41878e-13
3.89907e-13
5.40019e-13
6.03596e-13
5.38005e-13
4.49911e-13
3.64962e-13
1.90005e-13
2.25465e-14
5.92333e-16
1.57938e-17
4.60967e-19
1.24071e-20
2.94065e-22
6.04795e-24
1.08962e-25
1.89594e-27
4.44238e-29
3.5796e-30
6.26157e-31
1.34773e-31
3.34172e-32
9.4536e-33
2.98985e-33
1.02328e-33
3.58093e-34
9.38942e-35
2.93385e-34
8.72068e-38
1.34945e-38
4.95954e-38
1.27415e-37
3.18376e-37
8.42284e-37
2.43305e-36
7.81785e-36
2.83787e-35
1.17477e-34
5.6653e-34
3.35822e-33
2.42853e-32
2.24462e-31
1.31299e-29
1.26809e-27
1.17609e-25
1.20767e-23
6.12311e-21
1.32782e-18
6.50738e-17
8.23687e-16
2.78771e-15
4.21925e-15
4.22595e-15
3.31269e-15
1.72436e-15
1.41068e-15
3.45271e-15
1.76415e-14
8.44817e-14
3.71159e-13
1.66444e-12
5.39039e-12
8.85481e-12
1.10674e-11
4.58491e-11
6.71952e-10
1.14717e-09
4.51626e-10
1.4598e-09
1.58737e-09
4.44768e-10
4.3802e-11
2.96133e-11
2.03837e-11
8.52262e-12
1.86023e-12
3.11346e-13
6.09939e-14
1.76645e-14
1.09782e-14
1.43176e-14
2.70042e-14
3.65971e-14
3.84816e-14
3.04318e-14
2.45409e-14
1.8223e-14
5.69903e-15
5.74881e-16
1.94941e-17
5.52112e-19
1.62623e-20
4.33398e-22
1.00365e-23
2.00006e-25
3.47124e-27
5.79616e-29
1.35437e-30
1.11675e-31
1.91747e-32
4.01192e-33
9.68131e-34
2.66806e-34
8.24437e-35
2.76712e-35
9.50214e-36
2.49443e-36
7.41474e-36
1.51978e-39
2.61193e-40
9.26728e-40
2.4326e-39
6.21298e-39
1.68425e-38
5.00262e-38
1.65806e-37
6.21212e-37
2.64931e-36
1.31007e-35
7.94831e-35
5.93595e-34
5.06744e-33
2.93163e-31
2.81754e-29
2.53099e-27
2.35931e-25
8.66037e-23
7.43038e-21
1.7344e-18
1.50498e-17
5.68494e-17
7.60045e-17
8.67961e-17
5.31518e-17
6.74168e-17
2.92415e-16
2.15668e-15
1.31392e-14
6.61938e-14
3.18978e-13
1.52327e-12
4.55877e-12
7.25046e-12
1.05375e-11
6.35924e-11
6.93216e-10
9.9402e-10
3.64198e-10
1.28809e-09
1.58787e-09
5.58868e-10
4.35327e-11
2.43655e-11
1.62699e-11
7.4597e-12
1.781e-12
2.79701e-13
4.59036e-14
9.06074e-15
1.61208e-15
3.27875e-16
1.9738e-16
2.90438e-16
2.54752e-16
2.38191e-16
2.62883e-16
3.39782e-16
1.30786e-16
1.32751e-17
5.14111e-19
1.62126e-20
4.9895e-22
1.3449e-23
3.09426e-25
6.05853e-27
1.02654e-28
1.67465e-30
3.93029e-32
3.29109e-33
5.55743e-34
1.13688e-34
2.68483e-35
7.2559e-36
2.20385e-36
7.29107e-37
2.46588e-37
6.48998e-38
1.83618e-37
2.5626e-41
4.87349e-42
1.67188e-41
4.46585e-41
1.16138e-40
3.2135e-40
9.76492e-40
3.31477e-39
1.27212e-38
5.54943e-38
2.79508e-37
1.71365e-36
1.28983e-35
1.09385e-34
5.79309e-33
5.36078e-31
4.42115e-29
3.19219e-27
2.41533e-25
1.86872e-22
3.81862e-20
2.4769e-19
1.04348e-18
1.27415e-18
1.27941e-18
2.59016e-18
1.76953e-17
1.68888e-16
1.44526e-15
9.55242e-15
5.2049e-14
2.80498e-13
1.38082e-12
3.80395e-12
6.11285e-12
1.15057e-11
8.31226e-11
6.59648e-10
8.68644e-10
2.8934e-10
1.11444e-09
1.58787e-09
6.15607e-10
5.71624e-11
2.07672e-11
1.28543e-11
6.3824e-12
1.67505e-12
2.5496e-13
3.55226e-14
6.42164e-15
1.06807e-15
1.30698e-16
1.54192e-17
7.7783e-19
4.01673e-19
4.86463e-19
1.41069e-18
2.07366e-18
1.86187e-18
3.71853e-19
9.87851e-21
3.94419e-22
1.32337e-23
3.69718e-25
8.59934e-27
1.67748e-28
2.80743e-30
4.51825e-32
1.0709e-33
9.12536e-35
1.52422e-35
3.06699e-36
7.12748e-37
1.89823e-37
5.69214e-38
1.86364e-38
6.23322e-39
1.6448e-39
4.43159e-39
4.15628e-43
8.76627e-44
2.90913e-43
7.87906e-43
2.07882e-42
5.8447e-42
1.80679e-41
6.24022e-41
2.4348e-40
1.07759e-39
5.48126e-39
3.36333e-38
2.51631e-37
2.08168e-36
9.94391e-35
8.45049e-33
5.67336e-31
4.03054e-29
4.96721e-27
4.50971e-24
6.52594e-22
3.88109e-21
1.33235e-20
2.00557e-20
7.29461e-20
7.52512e-19
9.04231e-18
9.96746e-17
9.72802e-16
7.02248e-15
4.13834e-14
2.53498e-13
1.24621e-12
3.18003e-12
5.40314e-12
1.35783e-11
1.02788e-10
6.35686e-10
7.27845e-10
2.22647e-10
9.46051e-10
1.58787e-09
6.15513e-10
7.3068e-11
1.87697e-11
1.0118e-11
5.26343e-12
1.52548e-12
2.32402e-13
2.78851e-14
4.4447e-15
6.87409e-16
7.76625e-17
8.28197e-18
7.2276e-19
2.11436e-20
6.83334e-21
1.97659e-20
2.87171e-20
4.01304e-20
6.60178e-21
2.48354e-22
7.48373e-24
2.99452e-25
8.95238e-27
2.14765e-28
4.23667e-30
7.08805e-32
1.13618e-33
2.73424e-35
2.37705e-36
3.95079e-37
7.86635e-38
1.80874e-38
4.76912e-39
1.41762e-39
4.60886e-40
1.52953e-40
4.06122e-41
1.03684e-40
6.4489e-45
1.51303e-45
4.85834e-45
1.32921e-44
3.5452e-44
1.00826e-43
3.15379e-43
1.10149e-42
4.33936e-42
1.93332e-41
9.84572e-41
5.99099e-40
4.40835e-39
3.5032e-38
1.45434e-36
1.03505e-34
7.81759e-33
8.3566e-31
1.05229e-28
8.96865e-26
8.87753e-24
5.3301e-23
1.70271e-22
1.39511e-21
2.1836e-20
3.40648e-19
4.6721e-18
5.87766e-17
6.56455e-16
5.13724e-15
3.30763e-14
2.33655e-13
1.12226e-12
2.69654e-12
4.99783e-12
1.62704e-11
1.21049e-10
5.86953e-10
5.93312e-10
1.65382e-10
7.90195e-10
1.28881e-09
6.26532e-10
8.456e-11
1.77635e-11
7.90833e-12
4.08275e-12
1.2989e-12
2.03173e-13
2.19623e-14
3.13699e-15
4.41065e-16
4.4004e-17
4.25379e-18
3.69729e-19
2.47728e-20
6.09749e-22
2.52893e-22
4.15798e-22
7.90263e-22
1.55996e-22
4.89896e-24
1.96332e-25
5.59648e-27
1.89392e-28
4.80176e-30
9.73582e-32
1.64842e-33
2.65749e-35
6.52961e-37
5.80874e-38
9.66042e-39
1.91407e-39
4.37637e-40
1.14749e-40
3.39393e-41
1.09906e-41
3.62997e-42
9.74128e-43
2.3403e-42
9.52529e-47
2.4957e-47
7.75435e-47
2.13528e-46
5.73764e-46
1.64376e-45
5.17691e-45
1.81801e-44
7.1849e-44
3.19954e-43
1.61815e-42
9.67522e-42
6.92395e-41
5.20318e-40
1.75731e-38
1.31043e-36
1.44454e-34
1.56347e-32
2.0315e-30
1.50544e-27
9.7011e-26
3.53149e-25
1.75475e-23
4.09393e-22
8.72335e-21
1.54561e-19
2.40171e-18
3.42485e-17
4.39223e-16
3.69376e-15
2.65666e-14
2.15048e-13
9.98953e-13
2.31437e-12
4.75109e-12
1.87067e-11
1.34473e-10
5.10619e-10
4.62427e-10
1.1717e-10
6.67191e-10
1.0742e-09
5.29621e-10
8.88609e-11
1.71189e-11
6.15556e-12
2.9554e-12
9.92245e-13
1.63017e-13
1.66124e-14
2.23733e-15
2.82707e-16
2.50614e-17
2.12413e-18
1.65209e-19
1.12691e-20
5.67586e-22
1.11113e-23
6.47114e-24
1.23109e-23
3.03108e-24
1.29714e-25
3.68074e-27
1.17252e-28
3.44791e-30
9.56944e-32
2.0311e-33
3.52512e-35
5.77159e-37
1.45619e-38
1.33005e-39
2.22503e-40
4.40969e-41
1.00719e-41
2.63676e-42