/*--------------------------------*- C++ -*----------------------------------*\
| =========                 |                                                 |
| \\      /  F ield         | OpenFOAM: The Open Source CFD Toolbox           |
|  \\    /   O peration     | Version:  2412                                  |
|   \\  /    A nd           | Website:  www.openfoam.com                      |
|    \\/     M anipulation  |                                                 |
\*---------------------------------------------------------------------------*/
FoamFile
{
    version     2.0;
    format      ascii;
    arch        "LSB;label=32;scalar=64";
    class       surfaceScalarField;
    location    "5.93";
    object      alphaPhi0.water;
}
// * * * * * * * * * * * * * * * * * * * * * * * * * * * * * * * * * * * * * //

dimensions      [0 3 -1 0 0 0 0];

oriented        oriented;

internalField   nonuniform List<scalar> 
158920
(
-2.49694e-05
2.49678e-05
-4.92643e-05
2.43128e-05
-7.34135e-05
2.41654e-05
-9.74587e-05
2.40575e-05
-0.000121516
2.40661e-05
-0.000145591
2.40821e-05
-0.000169676
2.40891e-05
-0.000193785
2.41113e-05
-0.000217909
2.41253e-05
-0.00024206
2.41518e-05
-0.000266243
2.4183e-05
-0.000290452
2.42089e-05
-0.000314689
2.4237e-05
-0.000338956
2.42659e-05
-0.000363253
2.42961e-05
-0.000387579
2.43253e-05
-0.000411931
2.43507e-05
-0.000436309
2.43762e-05
-0.00046071
2.44005e-05
-0.000485133
2.44214e-05
-0.000509578
2.44432e-05
-0.000534043
2.44636e-05
-0.000558527
2.44836e-05
-0.000583032
2.45035e-05
-0.000607555
2.45215e-05
-0.000632096
2.45395e-05
-0.000656655
2.45582e-05
-0.000681232
2.45757e-05
-0.000705824
2.45913e-05
-0.000730433
2.46085e-05
-0.000755059
2.46255e-05
-0.000779702
2.46421e-05
-0.000804362
2.46585e-05
-0.000829037
2.46745e-05
-0.000853728
2.46902e-05
-0.000878434
2.47056e-05
-0.000903156
2.47207e-05
-0.000927892
2.47352e-05
-0.000952642
2.47493e-05
-0.000977405
2.47627e-05
-0.00100218
2.47754e-05
-0.00102697
2.47874e-05
-0.00105177
2.47987e-05
-0.00107658
2.48091e-05
-0.0011014
2.48185e-05
-0.00112623
2.48271e-05
-0.00115106
2.48346e-05
-0.0011759
2.4841e-05
-0.00120075
2.48462e-05
-0.0012256
2.48503e-05
-0.00125045
2.48532e-05
-0.00127531
2.48547e-05
-0.00130016
2.48549e-05
-0.00132502
2.48536e-05
-0.00134987
2.48508e-05
-0.00137472
2.48464e-05
-0.00139956
2.48404e-05
-0.00142439
2.48327e-05
-0.00144922
2.48232e-05
-0.00147403
2.48119e-05
-0.00149883
2.47988e-05
-0.00152361
2.47836e-05
-0.00154838
2.47664e-05
-0.00157313
2.4747e-05
-0.00159785
2.47254e-05
-0.00162255
2.47016e-05
-0.00164723
2.46754e-05
-0.00167188
2.46469e-05
-0.00169649
2.46158e-05
-0.00172108
2.45822e-05
-0.00174562
2.45459e-05
-0.00177013
2.45067e-05
-0.00179459
2.44648e-05
-0.00181901
2.44198e-05
-0.00184339
2.43719e-05
-0.00186771
2.43209e-05
-0.00189197
2.42668e-05
-0.00191618
2.42094e-05
-0.00194033
2.41486e-05
-0.00196442
2.40844e-05
-0.00198843
2.40166e-05
-0.00201238
2.39452e-05
-0.00203625
2.38701e-05
-0.00206004
2.3791e-05
-0.00208375
2.37081e-05
-0.00210737
2.36212e-05
-0.0021309
2.35302e-05
-0.00215434
2.3435e-05
-0.00217767
2.33355e-05
-0.00220091
2.32317e-05
-0.00222403
2.31234e-05
-0.00224704
2.30106e-05
-0.00226993
2.2893e-05
-0.0022927
2.27707e-05
-0.00231535
2.26435e-05
-0.00233786
2.25114e-05
-0.00236023
2.23742e-05
-0.00238247
2.22318e-05
-0.00240455
2.20842e-05
-0.00242648
2.19313e-05
-0.00244825
2.17729e-05
-0.00246986
2.1609e-05
-0.0024913
2.14396e-05
-0.00251257
2.12644e-05
-0.00253365
2.10835e-05
-0.00255455
2.08966e-05
-0.00257525
2.07038e-05
-0.00259576
2.05049e-05
-0.00261606
2.02998e-05
-0.00263614
2.00884e-05
-0.00265602
1.98708e-05
-0.00267566
1.96466e-05
-0.00269508
1.9416e-05
-0.00271426
1.91788e-05
-0.00273319
1.89349e-05
-0.00275188
1.86842e-05
-0.0027703
1.84267e-05
-0.00278846
1.81624e-05
-0.00280635
1.7891e-05
-0.00282397
1.76125e-05
-0.00284129
1.73269e-05
-0.00285833
1.7034e-05
-0.00287506
1.67339e-05
-0.00289149
1.64264e-05
-0.0029076
1.61115e-05
-0.00292339
1.57891e-05
-0.00293884
1.54591e-05
-0.00295397
1.51215e-05
-0.00296874
1.47762e-05
-0.00298316
1.44231e-05
-0.00299723
1.40622e-05
-0.00301092
1.36935e-05
-0.00302424
1.33169e-05
-0.00303717
1.29323e-05
-0.00304971
1.25397e-05
-0.00306184
1.21391e-05
-0.00307357
1.17304e-05
-0.00308489
1.13135e-05
-0.00309578
1.08885e-05
-0.00310623
1.04554e-05
-0.00311624
1.0014e-05
-0.00312581
9.56434e-06
-0.00313491
9.10642e-06
-0.00314355
8.6402e-06
-0.00315172
8.16566e-06
-0.0031594
7.68278e-06
-0.00316659
7.19155e-06
-0.00317328
6.69197e-06
-0.00317947
6.18404e-06
-0.00318513
5.66777e-06
-0.00319028
5.14318e-06
-0.00319489
4.61029e-06
-0.00319895
4.06913e-06
-0.00320247
3.51972e-06
-0.00320544
2.96212e-06
-0.00320783
2.39638e-06
-0.00320965
1.82261e-06
-0.00321089
1.24099e-06
-0.00321154
6.51792e-07
-0.0032116
5.45252e-08
-0.00321103
-5.69627e-07
-0.00320985
-1.17458e-06
-0.00320805
-1.80639e-06
-0.00320562
-2.4234e-06
-0.00320255
-3.06817e-06
-0.00319884
-3.71132e-06
-0.00319448
-4.36194e-06
-0.00318945
-5.03157e-06
-0.00318375
-5.69345e-06
-0.00317738
-6.3707e-06
-0.00317032
-7.06045e-06
-0.00316257
-7.74483e-06
-0.00315413
-8.44612e-06
-0.00314498
-9.15146e-06
-0.00313511
-9.86015e-06
-0.00312453
-1.05833e-05
-0.00311322
-1.13063e-05
-0.00310119
-1.20362e-05
-0.00308841
-1.27781e-05
-0.00307489
-1.35203e-05
-0.00306062
-1.42689e-05
-0.00304559
-1.50281e-05
-0.0030298
-1.57887e-05
-0.00301324
-1.65543e-05
-0.00299592
-1.73281e-05
-0.00297781
-1.81073e-05
-0.00295892
-1.88877e-05
-0.00293924
-1.96751e-05
-0.00291877
-2.04703e-05
-0.00289751
-2.12646e-05
-0.00287544
-2.20641e-05
-0.00285257
-2.28711e-05
-0.00282889
-2.36781e-05
-0.0028044
-2.44888e-05
-0.0027791
-2.53059e-05
-0.00275297
-2.61237e-05
-0.00272603
-2.69432e-05
-0.00269826
-2.77674e-05
-0.00266966
-2.85957e-05
-0.00264024
-2.94221e-05
-0.00260999
-3.02507e-05
-0.00257891
-3.10843e-05
-0.00254699
-3.1916e-05
-0.00251424
-3.27485e-05
-0.00248066
-3.35841e-05
-0.00244624
-3.44194e-05
-0.00241098
-3.52528e-05
-0.0023749
-3.60874e-05
-0.00233797
-3.69238e-05
-0.00230021
-3.77559e-05
-0.00226163
-3.85871e-05
-0.00222221
-3.94197e-05
-0.00218196
-4.02482e-05
-0.00214088
-4.10742e-05
-0.00209898
-4.18998e-05
-0.00205626
-4.27233e-05
-0.00201272
-4.35403e-05
-0.00196836
-4.43549e-05
-0.0019232
-4.51682e-05
-0.00187722
-4.5974e-05
-0.00183045
-4.67758e-05
-0.00178287
-4.75747e-05
-0.0017345
-4.83661e-05
-0.00168535
-4.91511e-05
-0.00163542
-4.99322e-05
-0.00158472
-5.07067e-05
-0.00153324
-5.1471e-05
-0.00148102
-5.22292e-05
-0.00142803
-5.29815e-05
-0.00137431
-5.37219e-05
-0.00131986
-5.4455e-05
-0.00126468
-5.51801e-05
-0.00120878
-5.58929e-05
-0.00115219
-5.6596e-05
-0.0010949
-5.729e-05
-0.00103693
-5.79708e-05
-0.000978289
-5.86396e-05
-0.000918991
-5.92977e-05
-0.000859049
-5.99419e-05
-0.000798478
-6.05719e-05
-0.000737289
-6.11896e-05
-0.000675496
-6.17926e-05
-0.000613118
-6.23785e-05
-0.000550168
-6.29508e-05
-0.000486662
-6.35068e-05
-0.000422619
-6.40426e-05
-0.000358058
-6.45615e-05
-0.000293001
-6.5057e-05
-0.00022747
-6.5531e-05
-0.000161456
-6.60144e-05
-9.49631e-05
-6.64924e-05
-2.80273e-05
-6.69355e-05
3.93234e-05
-6.73505e-05
0.000107063
-6.77392e-05
0.000175193
-6.81291e-05
0.000243688
-6.8495e-05
0.000312525
-6.88356e-05
0.000381646
-6.91207e-05
0.000451013
-6.93659e-05
0.000520634
-6.96204e-05
0.000590459
-6.98237e-05
0.000660467
-7.00067e-05
0.000730631
-7.01626e-05
0.000800922
-7.02888e-05
0.000871312
-7.03885e-05
0.000941768
-7.04547e-05
0.00101226
-7.04872e-05
0.00108276
-7.0499e-05
0.00115322
-7.04668e-05
0.00122363
-7.04001e-05
0.00129393
-7.03062e-05
0.00136411
-7.01715e-05
0.0014341
-6.99969e-05
0.0015039
-6.97957e-05
0.00157345
-6.9551e-05
0.00164272
-6.92609e-05
0.00171166
-6.89409e-05
0.00178023
-6.85741e-05
0.0018484
-6.81607e-05
0.00191612
-6.77263e-05
0.00198335
-6.72295e-05
0.00205004
-6.66902e-05
0.00211615
-6.6109e-05
0.00218164
-6.54807e-05
0.00224644
-6.48051e-05
0.00231052
-6.40739e-05
0.00237383
-6.33123e-05
0.00243632
-6.24872e-05
0.00249792
-6.16097e-05
0.00255861
-6.06852e-05
0.00261831
-5.97056e-05
0.00267698
-5.86726e-05
0.00273456
-5.75823e-05
0.00279101
-5.64427e-05
0.00284625
-5.52422e-05
0.00290023
-5.39847e-05
0.0029529
-5.26694e-05
0.0030042
-5.13023e-05
0.00305408
-4.98748e-05
0.00310246
-4.8383e-05
0.0031493
-4.68375e-05
0.00319453
-4.5233e-05
0.00323811
-4.3577e-05
0.00327997
-4.18578e-05
0.00332005
-4.00829e-05
0.0033583
-3.82473e-05
0.00339466
-3.63662e-05
0.00342909
-3.44318e-05
0.00346153
-3.24389e-05
0.00349193
-3.03957e-05
0.00352023
-2.83049e-05
0.0035464
-2.61678e-05
0.00357039
-2.39903e-05
0.00359216
-2.17708e-05
0.00361168
-1.95111e-05
0.0036289
-1.72204e-05
0.00364381
-1.49042e-05
0.00365636
-1.25525e-05
0.00366654
-1.01845e-05
0.00367433
-7.7913e-06
0.00367972
-5.38371e-06
0.00368269
-2.96959e-06
0.00368325
-5.59053e-07
0.00368132
1.92468e-06
0.00367698
4.34191e-06
0.00367024
6.74164e-06
0.0036611
9.14783e-06
0.00364956
1.15384e-05
0.00363565
1.39127e-05
0.00361938
1.62664e-05
0.00360078
1.85961e-05
0.00357989
2.08964e-05
0.00355672
2.31705e-05
0.00353131
2.54088e-05
0.00350369
2.76144e-05
0.00347391
2.97872e-05
0.00344199
3.19205e-05
0.00340796
3.40291e-05
0.00337187
3.60928e-05
0.00333375
3.81137e-05
0.00329366
4.00959e-05
0.00325162
4.20383e-05
0.00320767
4.39446e-05
0.00316185
4.58229e-05
0.00311417
4.76767e-05
0.0030647
4.94737e-05
0.00301348
5.12235e-05
0.00296052
5.2951e-05
0.00290586
5.46618e-05
0.00284954
5.63222e-05
0.00279159
5.79511e-05
0.00273205
5.95423e-05
0.00267098
6.10668e-05
0.0026084
6.2577e-05
0.00254435
6.40545e-05
0.00247889
6.54642e-05
0.00241205
6.6841e-05
0.00234387
6.81755e-05
0.00227442
6.94525e-05
0.00220377
7.06488e-05
0.00213197
7.17948e-05
0.00205907
7.28973e-05
0.00198514
7.39299e-05
0.00191025
7.48908e-05
0.0018345
7.57512e-05
0.00175795
7.65451e-05
0.00168069
7.72629e-05
0.0016028
7.78932e-05
0.00152436
7.84318e-05
0.0014455
7.88581e-05
0.00136631
7.91937e-05
0.00128688
7.94282e-05
0.00120733
7.95488e-05
0.00112775
7.95803e-05
0.00104825
7.94936e-05
0.00096899
7.9265e-05
0.000890085
7.89035e-05
0.000811633
7.84504e-05
0.000733724
7.79077e-05
0.000656494
7.72291e-05
0.000580109
7.63843e-05
0.000504675
7.54328e-05
0.000430296
7.43776e-05
0.000357093
7.32009e-05
0.00028521
7.18825e-05
0.000214781
7.04275e-05
0.000145898
6.88806e-05
7.86519e-05
6.72443e-05
1.31628e-05
6.54876e-05
-5.04189e-05
6.35804e-05
-0.00011199
6.15697e-05
-0.000171468
5.9478e-05
-0.000228721
5.72531e-05
-0.000283655
5.49345e-05
-0.000335941
5.22869e-05
-0.000385899
4.9958e-05
-0.000433228
4.73292e-05
-0.000477823
4.45979e-05
-0.000519607
4.17871e-05
-0.000558489
3.88828e-05
-0.000594411
3.59215e-05
-0.00062715
3.27373e-05
-0.000657074
2.99243e-05
-0.000683853
2.67796e-05
-0.000707408
2.35536e-05
-0.000727708
2.02959e-05
-0.000744683
1.69723e-05
-0.000758571
1.38899e-05
-0.000769124
1.0557e-05
-0.000776327
7.20496e-06
-0.000780122
3.79655e-06
-0.00078077
6.52494e-07
-0.00077809
-2.67101e-06
-0.00077212
-5.9577e-06
-0.000762812
-9.30318e-06
-0.000750303
-1.25139e-05
-0.000734591
-1.57214e-05
-0.000715656
-1.89414e-05
-0.000693722
-2.1933e-05
-0.000668734
-2.49808e-05
-0.000640734
-2.79964e-05
-0.000609839
-3.08981e-05
-0.000576108
-3.37372e-05
-0.000539754
-3.63579e-05
-0.00050069
-3.9066e-05
-0.000459084
-4.16045e-05
-0.000415057
-4.40249e-05
-0.000368726
-4.63275e-05
-0.000320372
-4.83515e-05
-0.000269894
-5.04766e-05
-0.000217532
-5.23644e-05
-0.000163394
-5.41445e-05
-0.000107545
-5.58537e-05
-5.02877e-05
-5.72569e-05
8.33427e-06
-5.86146e-05
6.80627e-05
-5.972e-05
0.000128788
-6.07229e-05
0.000190385
-6.16044e-05
0.000252652
-6.22814e-05
0.000315478
-6.28367e-05
0.000378536
-6.30607e-05
0.000441863
-6.33204e-05
0.000505044
-6.31705e-05
0.000568058
-6.30032e-05
0.000630678
-6.26157e-05
0.000692852
-6.21755e-05
0.00075426
-6.14136e-05
0.000814962
-6.07073e-05
0.000874538
-5.95779e-05
0.000933124
-5.85868e-05
0.000990371
-5.72484e-05
0.00104623
-5.58608e-05
0.00110058
-5.43538e-05
0.00115316
-5.25795e-05
0.00120406
-5.08904e-05
0.00125311
-4.90383e-05
0.00130024
-4.71195e-05
0.00134529
-4.50421e-05
0.00138812
-4.28288e-05
0.00142871
-4.06023e-05
0.00146697
-3.82686e-05
0.00150277
-3.57993e-05
0.0015362
-3.34354e-05
0.00156715
-3.09502e-05
0.00159558
-2.84255e-05
0.00162132
-2.57416e-05
0.00164447
-2.31552e-05
0.00166495
-2.04791e-05
0.00168278
-1.7833e-05
0.00169782
-1.50324e-05
0.00171015
-1.233e-05
0.00171974
-9.59466e-06
0.00172659
-6.85077e-06
0.00173061
-4.0118e-06
0.00173191
-1.30065e-06
0.00173049
1.41916e-06
0.00172624
4.24294e-06
0.00171931
6.92723e-06
0.00170972
9.59162e-06
0.00169743
1.22838e-05
0.00168254
1.48895e-05
0.00166506
1.74874e-05
0.00164503
2.00223e-05
0.00162254
2.24918e-05
0.00159765
2.4894e-05
0.00157044
2.72054e-05
0.00154088
2.95656e-05
0.00150909
3.17851e-05
0.00147527
3.38241e-05
0.00143931
3.59565e-05
0.00140146
3.78531e-05
0.00136175
3.97074e-05
0.00132032
4.14368e-05
0.00127723
4.30876e-05
0.00123265
4.45842e-05
0.00118662
4.60229e-05
0.00113929
4.73353e-05
0.00109084
4.84432e-05
0.00104133
4.95085e-05
0.000990944
5.03889e-05
0.000939749
5.11953e-05
0.00088795
5.17992e-05
0.000835641
5.23092e-05
0.000783068
5.25725e-05
0.000730232
5.28349e-05
0.000677327
5.29048e-05
0.000624508
5.28189e-05
0.000571874
5.26339e-05
0.000519647
5.22266e-05
0.00046792
5.17272e-05
0.00041679
5.11298e-05
0.000366453
5.03365e-05
0.000317018
4.94343e-05
0.00026865
4.83685e-05
0.000221411
4.72389e-05
0.000175493
4.59174e-05
0.000130921
4.45726e-05
8.79045e-05
4.3016e-05
4.65531e-05
4.13507e-05
6.97009e-06
3.95822e-05
-3.07456e-05
3.77147e-05
-6.65467e-05
3.58001e-05
-0.000100301
3.37538e-05
-0.000131923
3.16211e-05
-0.00016129
2.93665e-05
-0.000188287
2.69956e-05
-0.000213065
2.47779e-05
-0.000235373
2.23073e-05
-0.000255366
1.9994e-05
-0.000272799
1.74327e-05
-0.000287911
1.51129e-05
-0.000300683
1.27721e-05
-0.000311031
1.03478e-05
-0.000319092
8.06214e-06
-0.000324973
5.88176e-06
-0.000328752
3.77957e-06
-0.000330482
1.73095e-06
-0.000330368
-1.14091e-07
-0.000328501
-1.86641e-06
-0.000324945
-3.55598e-06
-0.000319708
-5.23723e-06
-0.000313115
-6.5936e-06
-0.000305089
-8.02603e-06
-0.000295816
-9.27311e-06
-0.000285267
-1.05484e-05
-0.000273734
-1.15326e-05
-0.000261215
-1.25187e-05
-0.000247948
-1.32664e-05
-0.000233874
-1.40731e-05
-0.000219097
-1.47755e-05
-0.000203696
-1.54008e-05
-0.00018792
-1.57768e-05
-0.000171775
-1.61448e-05
-0.000155405
-1.63698e-05
-0.000139066
-1.63385e-05
-0.000122789
-1.62777e-05
-0.000106693
-1.60969e-05
-9.0685e-05
-1.60097e-05
-7.48794e-05
-1.58076e-05
-5.9404e-05
-1.54767e-05
-4.43088e-05
-1.50962e-05
-2.97344e-05
-1.45754e-05
-1.58513e-05
-1.3884e-05
-2.58391e-06
-1.32681e-05
9.98282e-06
-1.25673e-05
2.16981e-05
-1.17159e-05
3.25917e-05
-1.08946e-05
4.2687e-05
-1.00961e-05
5.17864e-05
-9.09935e-06
5.97864e-05
-7.99932e-06
6.66759e-05
-6.88885e-06
7.23338e-05
-5.6582e-06
7.66241e-05
-4.29158e-06
7.95483e-05
-2.92578e-06
8.10627e-05
-1.51529e-06
8.07642e-05
2.98135e-07
7.84329e-05
2.33105e-06
7.35251e-05
4.90729e-06
6.6585e-05
6.9394e-06
5.54291e-05
1.11554e-05
4.20573e-05
1.33716e-05
4.4021e-05
-1.96367e-06
6.10243e-05
-1.70035e-05
6.34739e-05
-2.44997e-06
5.11548e-05
1.23186e-05
3.5307e-05
1.58472e-05
2.99024e-05
5.40405e-06
4.41402e-05
-1.42382e-05
4.93458e-05
-5.20609e-06
3.52082e-05
1.41372e-05
2.03396e-05
1.48682e-05
8.81391e-06
1.15253e-05
-8.42298e-07
9.65586e-06
-8.37696e-06
7.53438e-06
-1.41085e-05
5.73145e-06
-1.8207e-05
4.09846e-06
-2.08039e-05
2.59714e-06
-2.20564e-05
1.25255e-06
-2.19623e-05
-9.43163e-08
-2.0606e-05
-1.35692e-06
-1.80624e-05
-2.54428e-06
-1.42937e-05
-3.76942e-06
-9.23208e-06
-5.06219e-06
-3.08285e-06
-6.14951e-06
4.40687e-06
-7.48968e-06
1.28663e-05
-8.45918e-06
2.24021e-05
-9.53544e-06
3.30576e-05
-1.06552e-05
4.46059e-05
-1.15479e-05
5.70763e-05
-1.24703e-05
7.03133e-05
-1.32369e-05
8.41466e-05
-1.38334e-05
9.85747e-05
-1.44283e-05
0.000113357
-1.47825e-05
0.000128505
-1.51485e-05
0.00014388
-1.53746e-05
0.000159232
-1.53525e-05
0.000174366
-1.51341e-05
0.000189197
-1.48306e-05
0.000203687
-1.44891e-05
0.000217649
-1.39613e-05
0.000230876
-1.32263e-05
0.000243325
-1.24479e-05
0.00025464
-1.1315e-05
0.000264903
-1.02625e-05
0.000273904
-9.00099e-06
0.000281565
-7.66058e-06
0.000287861
-6.2962e-06
0.000292446
-4.58454e-06
0.000295306
-2.85984e-06
0.000296228
-9.21808e-07
0.000295214
1.01481e-06
0.000292103
3.11182e-06
0.000286786
5.31885e-06
0.000279064
7.72324e-06
0.000268789
1.0276e-05
0.000255894
1.28957e-05
0.000240282
1.56118e-05
0.00022177
1.85122e-05
0.000200395
2.13751e-05
0.000176395
2.39997e-05
0.000149615
2.678e-05
0.000120147
2.94682e-05
8.80707e-05
3.2076e-05
5.33987e-05
3.46721e-05
1.62347e-05
3.71644e-05
-2.32288e-05
3.94643e-05
-6.50469e-05
4.18191e-05
-0.000109023
4.39768e-05
-0.000154955
4.59331e-05
-0.000202809
4.78554e-05
-0.000252493
4.96847e-05
-0.00030375
5.12575e-05
-0.000356531
5.27816e-05
-0.000410648
5.41186e-05
-0.000465779
5.51296e-05
-0.000521703
5.59223e-05
-0.000578315
5.66115e-05
-0.000635529
5.72115e-05
-0.000693279
5.77491e-05
-0.00075124
5.79605e-05
-0.000809245
5.8004e-05
-0.000866878
5.76303e-05
-0.000924033
5.71519e-05
-0.000980323
5.62889e-05
-0.00103584
5.55163e-05
-0.0010904
5.45639e-05
-0.00114376
5.33634e-05
-0.00119566
5.18965e-05
-0.00124584
5.01798e-05
-0.00129419
4.83507e-05
-0.00134056
4.63613e-05
-0.00138476
4.42049e-05
-0.00142664
4.18756e-05
-0.00146601
3.93778e-05
-0.00150277
3.67606e-05
-0.00153668
3.3906e-05
-0.00156761
3.09219e-05
-0.00159542
2.78115e-05
-0.00162015
2.4725e-05
-0.00164166
2.15114e-05
-0.00165984
1.81814e-05
-0.00167451
1.46761e-05
-0.00168568
1.11708e-05
-0.00169337
7.68203e-06
-0.00169734
3.96851e-06
-0.00169773
3.96403e-07
-0.00169421
-3.51888e-06
-0.0016869
-7.30867e-06
-0.00167605
-1.08592e-05
-0.00166134
-1.4706e-05
-0.00164302
-1.83199e-05
-0.00162108
-2.19408e-05
-0.00159536
-2.5722e-05
-0.00156586
-2.95026e-05
-0.00153274
-3.31205e-05
-0.00149594
-3.68044e-05
-0.00145591
-4.00204e-05
-0.00141256
-4.3349e-05
-0.00136589
-4.66728e-05
-0.00131604
-4.98615e-05
-0.00126284
-5.31973e-05
-0.00120676
-5.60782e-05
-0.00114808
-5.86799e-05
-0.00108661
-6.14789e-05
-0.00102279
-6.38102e-05
-0.000956917
-6.58721e-05
-0.000888799
-6.81208e-05
-0.000818721
-7.0085e-05
-0.000746897
-7.1826e-05
-0.000673813
-7.30855e-05
-0.000599511
-7.43022e-05
-0.000524651
-7.48602e-05
-0.000449101
-7.55486e-05
-0.000373179
-7.59209e-05
-0.000297229
-7.59491e-05
-0.000221482
-7.5749e-05
-0.000146483
-7.5e-05
-7.25172e-05
-7.39673e-05
9.24581e-08
-7.26115e-05
7.14037e-05
-7.13136e-05
0.00014105
-6.96477e-05
0.000208618
-6.75699e-05
0.000273674
-6.50563e-05
0.00033622
-6.2546e-05
0.000395776
-5.9556e-05
0.000452157
-5.63788e-05
0.000505178
-5.30176e-05
0.000554604
-4.94235e-05
0.000600382
-4.57793e-05
0.000641945
-4.15649e-05
0.000679106
-3.71622e-05
0.000711748
-3.26438e-05
0.000740034
-2.82911e-05
0.000763523
-2.34829e-05
0.000782093
-1.85652e-05
0.000795599
-1.35013e-05
0.000803862
-8.25957e-06
0.000807157
-3.29185e-06
0.000805054
2.10506e-06
0.000797557
7.49596e-06
0.000784697
1.28565e-05
0.000766477
1.82225e-05
0.00074289
2.35849e-05
0.000713904
2.89837e-05
0.000679609
3.42928e-05
0.000640174
3.94354e-05
0.000595402
4.47737e-05
0.000545518
4.98859e-05
0.000490593
5.49245e-05
0.000430747
5.98474e-05
0.000366644
6.41033e-05
0.000297757
6.88856e-05
0.0002245
7.32553e-05
0.000147098
7.73979e-05
6.57949e-05
8.13011e-05
-1.91025e-05
8.48967e-05
-0.000107501
8.83993e-05
-0.000199091
9.15924e-05
-0.000293542
9.44536e-05
-0.00039061
9.70714e-05
-0.000490079
9.9473e-05
-0.000591602
0.000101526
-0.000694892
0.000103292
-0.00079963
0.000104736
-0.000905491
0.00010586
-0.00101218
0.000106692
-0.0011194
0.00010721
-0.00122682
0.000107421
-0.00133415
0.000107335
-0.00144109
0.000106941
-0.00154734
0.000106251
-0.00165261
0.00010527
-0.00175663
0.000104025
-0.00185914
0.000102507
-0.00195984
0.000100703
-0.00205853
9.86823e-05
-0.00215499
9.64652e-05
-0.00224904
9.40507e-05
-0.00234049
9.14464e-05
-0.00242912
8.86373e-05
-0.0025148
8.56797e-05
-0.00259739
8.25909e-05
-0.00267676
7.93607e-05
-0.00275277
7.60098e-05
-0.00282532
7.25436e-05
-0.00289431
6.89921e-05
-0.0029597
6.53868e-05
-0.00302142
6.17221e-05
-0.00307944
5.80207e-05
-0.00313371
5.42684e-05
-0.0031842
5.04889e-05
-0.00323091
4.67032e-05
-0.00327382
4.29098e-05
-0.00331292
3.91037e-05
-0.00334821
3.52936e-05
-0.00337972
3.15118e-05
-0.00340748
2.7759e-05
-0.00343154
2.4052e-05
-0.0034519
2.03581e-05
-0.00346861
1.6719e-05
-0.00348171
1.31046e-05
-0.00349126
9.55105e-06
-0.00349726
6.00162e-06
-0.0034998
2.55033e-06
-0.00349891
-8.84403e-07
-0.00349468
-4.23486e-06
-0.00348713
-7.54926e-06
-0.00347629
-1.08375e-05
-0.00346219
-1.40997e-05
-0.00344488
-1.73068e-05
-0.00342441
-2.04651e-05
-0.00340083
-2.35742e-05
-0.00337417
-2.66585e-05
-0.00334446
-2.97106e-05
-0.0033117
-3.2752e-05
-0.00327594
-3.57611e-05
-0.0032372
-3.87394e-05
-0.0031955
-4.16935e-05
-0.00315086
-4.46408e-05
-0.0031033
-4.75654e-05
-0.00305281
-5.0479e-05
-0.00299943
-5.33809e-05
-0.00294317
-5.62605e-05
-0.00288408
-5.90875e-05
-0.0028222
-6.18774e-05
-0.00275759
-6.46064e-05
-0.00269034
-6.7257e-05
-0.00262044
-6.98964e-05
-0.00254796
-7.24792e-05
-0.00247298
-7.49822e-05
-0.00239556
-7.7416e-05
-0.00231581
-7.97496e-05
-0.00223384
-8.19674e-05
-0.00214975
-8.40885e-05
-0.00206364
-8.61091e-05
-0.00197561
-8.80304e-05
-0.00188577
-8.9837e-05
-0.00179427
-9.1506e-05
-0.00170122
-9.30558e-05
-0.00160674
-9.44756e-05
-0.00151096
-9.57831e-05
-0.00141401
-9.69452e-05
-0.00131604
-9.79757e-05
-0.00121715
-9.88898e-05
-0.00111747
-9.96788e-05
-0.00101712
-0.000100355
-0.000916209
-0.00010091
-0.000814881
-0.00010133
-0.000713245
-0.000101638
-0.000611391
-0.000101855
-0.000509381
-0.000102012
-0.000407299
-0.000102083
-0.000305332
-0.00010197
-0.000203635
-0.000101699
-0.000102241
-0.000101397
-1.38226e-06
-0.000100861
9.90833e-05
-0.000100468
0.000199028
-9.99473e-05
0.000298311
-9.92858e-05
0.000396832
-9.85233e-05
0.000494593
-9.77641e-05
0.00059156
-9.69696e-05
0.000687621
-9.60639e-05
0.000782696
-9.50774e-05
0.000876693
-9.39997e-05
0.000969518
-9.283e-05
0.00106112
-9.16043e-05
0.00115145
-9.03255e-05
0.00124041
-8.89667e-05
0.00132794
-8.75285e-05
0.00141395
-8.60094e-05
0.00149835
-8.44108e-05
0.00158111
-8.27581e-05
0.00166219
-8.10756e-05
0.00174154
-7.93548e-05
0.00181911
-7.75676e-05
0.00189481
-7.57051e-05
0.00196861
-7.37966e-05
0.00204047
-7.18575e-05
0.00211035
-6.9882e-05
0.00217823
-6.78875e-05
0.00224408
-6.5852e-05
0.00230785
-6.37686e-05
0.00236951
-6.16654e-05
0.00242906
-5.95428e-05
0.00248647
-5.74106e-05
0.00254174
-5.52682e-05
0.00259485
-5.31101e-05
0.0026458
-5.09502e-05
0.00269456
-4.87639e-05
0.00274113
-4.65718e-05
0.00278552
-4.43832e-05
0.0028277
-4.21935e-05
0.00286771
-4.00065e-05
0.00290553
-3.782e-05
0.00294118
-3.56498e-05
0.00297467
-3.34887e-05
0.00300601
-3.13388e-05
0.0030352
-2.9193e-05
0.00306225
-2.70534e-05
0.00308718
-2.49344e-05
0.00311002
-2.28357e-05
0.00313077
-2.07547e-05
0.00314947
-1.86969e-05
0.00316613
-1.6662e-05
0.00318078
-1.4651e-05
0.00319344
-1.26594e-05
0.00320413
-1.06914e-05
0.00321288
-8.7513e-06
0.00321972
-6.83946e-06
0.00322468
-4.96083e-06
0.0032278
-3.11637e-06
0.0032291
-1.29818e-06
0.00322858
5.15457e-07
0.00322631
2.26874e-06
0.00322232
3.98802e-06
0.00321665
5.6714e-06
0.00320933
7.32888e-06
0.00320037
8.95326e-06
0.00318983
1.05407e-05
0.00317774
1.20918e-05
0.00316413
1.36075e-05
0.00314905
1.50869e-05
0.00313252
1.65293e-05
0.00311458
1.79351e-05
0.00309528
1.93045e-05
0.00307464
2.06369e-05
0.00305271
2.19323e-05
0.00302952
2.3191e-05
0.00300511
2.44128e-05
0.00297951
2.55977e-05
0.00295276
2.67456e-05
0.00292491
2.78566e-05
0.00289598
2.89312e-05
0.00286601
2.99697e-05
0.00283504
3.09723e-05
0.0028031
3.19391e-05
0.00277023
3.28706e-05
0.00273646
3.37671e-05
0.00270183
3.46289e-05
0.00266638
3.54567e-05
0.00263013
3.62512e-05
0.00259312
3.70124e-05
0.00255537
3.77416e-05
0.00251694
3.84385e-05
0.00247783
3.91039e-05
0.0024381
3.97387e-05
0.00239775
4.03435e-05
0.00235683
4.09189e-05
0.00231537
4.14655e-05
0.00227339
4.19841e-05
0.00223091
4.24753e-05
0.00218797
4.29404e-05
0.00214459
4.33797e-05
0.0021008
4.37941e-05
0.00205662
4.41844e-05
0.00201207
4.45515e-05
0.00196717
4.48961e-05
0.00192195
4.5219e-05
0.00187643
4.55211e-05
0.00183063
4.58031e-05
0.00178457
4.60659e-05
0.00173826
4.63104e-05
0.00169172
4.65373e-05
0.00164498
4.67477e-05
0.00159804
4.69423e-05
0.00155091
4.71219e-05
0.00150363
4.72872e-05
0.00145619
4.74391e-05
0.00140861
4.75784e-05
0.00136091
4.77057e-05
0.00131309
4.78218e-05
0.00126516
4.79275e-05
0.00121714
4.80237e-05
0.00116903
4.81112e-05
0.00112084
4.81905e-05
0.00107258
4.82623e-05
0.00102425
4.83272e-05
0.00097587
4.8386e-05
0.000927432
4.8439e-05
0.000878946
4.84869e-05
0.000830417
4.85305e-05
0.000781847
4.85702e-05
0.000733242
4.86067e-05
0.000684602
4.86405e-05
0.000635931
4.86719e-05
0.00058723
4.87015e-05
0.000538502
4.87296e-05
0.000489747
4.87564e-05
0.000440966
4.87822e-05
0.00039216
4.88066e-05
0.000343331
4.88292e-05
0.000294484
4.88477e-05
0.000245633
4.88507e-05
0.000196854
4.87796e-05
0.00014803
4.88253e-05
9.87538e-05
4.92774e-05
4.93147e-05
4.94401e-05
4.9315e-05
-2.29435e-05
4.78927e-05
-4.75488e-05
4.88876e-05
-7.2134e-05
4.87286e-05
-9.65521e-05
4.84551e-05
-0.00012084
4.83371e-05
-0.000145035
4.82633e-05
-0.000169193
4.82387e-05
-0.000193351
4.82626e-05
-0.000217531
4.83001e-05
-0.000241729
4.83463e-05
-0.000265946
4.8398e-05
-0.000290185
4.84461e-05
-0.000314448
4.84986e-05
-0.000338732
4.85497e-05
-0.000363041
4.86045e-05
-0.000387372
4.8656e-05
-0.000411727
4.87055e-05
-0.000436104
4.87536e-05
-0.000460503
4.88002e-05
-0.000484924
4.88421e-05
-0.000509366
4.88851e-05
-0.000533829
4.89262e-05
-0.000558312
4.89665e-05
-0.000582816
4.90071e-05
-0.000607339
4.9044e-05
-0.000631881
4.9081e-05
-0.000656442
4.91187e-05
-0.000681022
4.91546e-05
-0.000705618
4.91872e-05
-0.000730233
4.92221e-05
-0.000754865
4.92564e-05
-0.000779514
4.92899e-05
-0.000804179
4.93229e-05
-0.000828861
4.93552e-05
-0.000853559
4.93869e-05
-0.000878272
4.94177e-05
-0.000903
4.94477e-05
-0.000927743
4.94767e-05
-0.000952499
4.95047e-05
-0.000977269
4.95314e-05
-0.00100205
4.95568e-05
-0.00102685
4.95807e-05
-0.00105165
4.96031e-05
-0.00107647
4.96238e-05
-0.00110129
4.96427e-05
-0.00112613
4.96596e-05
-0.00115097
4.96746e-05
-0.00117582
4.96875e-05
-0.00120067
4.96981e-05
-0.00122553
4.97063e-05
-0.00125039
4.97121e-05
-0.00127525
4.97153e-05
-0.00130011
4.97157e-05
-0.00132497
4.97132e-05
-0.00134983
4.97076e-05
-0.00137468
4.9699e-05
-0.00139953
4.9687e-05
-0.00142437
4.96717e-05
-0.0014492
4.9653e-05
-0.00147402
4.96305e-05
-0.00149883
4.96043e-05
-0.00152362
4.95741e-05
-0.00154839
4.95398e-05
-0.00157315
4.95013e-05
-0.00159788
4.94583e-05
-0.00162259
4.94109e-05
-0.00164728
4.93588e-05
-0.00167193
4.93018e-05
-0.00169656
4.92399e-05
-0.00172115
4.91728e-05
-0.0017457
4.91003e-05
-0.00177022
4.90223e-05
-0.00179469
4.89386e-05
-0.00181912
4.8849e-05
-0.00184351
4.87534e-05
-0.00186784
4.86517e-05
-0.00189212
4.85437e-05
-0.00191634
4.84291e-05
-0.0019405
4.83078e-05
-0.00196459
4.81797e-05
-0.00198862
4.80444e-05
-0.00201258
4.79018e-05
-0.00203646
4.77517e-05
-0.00206026
4.7594e-05
-0.00208399
4.74285e-05
-0.00210762
4.7255e-05
-0.00213116
4.70733e-05
-0.00215461
4.68832e-05
-0.00217796
4.66846e-05
-0.00220121
4.64773e-05
-0.00222435
4.62611e-05
-0.00224737
4.60357e-05
-0.00227028
4.58009e-05
-0.00229307
4.55567e-05
-0.00231573
4.53027e-05
-0.00233826
4.50387e-05
-0.00236065
4.47647e-05
-0.0023829
4.44803e-05
-0.002405
4.41855e-05
-0.00242695
4.38801e-05
-0.00244874
4.35638e-05
-0.00247037
4.32365e-05
-0.00249182
4.2898e-05
-0.00251311
4.25481e-05
-0.00253421
4.21866e-05
-0.00255513
4.18133e-05
-0.00257585
4.1428e-05
-0.00259638
4.10306e-05
-0.0026167
4.06209e-05
-0.00263681
4.01987e-05
-0.0026567
3.97638e-05
-0.00267637
3.9316e-05
-0.00269581
3.88553e-05
-0.00271502
3.83813e-05
-0.00273398
3.7894e-05
-0.00275268
3.73932e-05
-0.00277114
3.68787e-05
-0.00278932
3.63504e-05
-0.00280724
3.58081e-05
-0.00282488
3.52516e-05
-0.00284223
3.46808e-05
-0.0028593
3.40956e-05
-0.00287606
3.34959e-05
-0.00289251
3.28814e-05
-0.00290865
3.2252e-05
-0.00292447
3.16077e-05
-0.00293996
3.09482e-05
-0.00295511
3.02734e-05
-0.00296992
2.95833e-05
-0.00298437
2.88777e-05
-0.00299847
2.81565e-05
-0.00301219
2.74195e-05
-0.00302554
2.66668e-05
-0.00303851
2.58981e-05
-0.00305108
2.51134e-05
-0.00306325
2.43127e-05
-0.00307502
2.34958e-05
-0.00308637
2.26626e-05
-0.00309729
2.18131e-05
-0.00310778
2.09473e-05
-0.00311783
2.0065e-05
-0.00312744
1.91661e-05
-0.00313658
1.82507e-05
-0.00314526
1.73187e-05
-0.00315346
1.637e-05
-0.00316118
1.54047e-05
-0.00316841
1.44226e-05
-0.00317515
1.34239e-05
-0.00318137
1.24085e-05
-0.00318708
1.13764e-05
-0.00319226
1.03276e-05
-0.00319691
9.26215e-06
-0.00320102
8.18009e-06
-0.00320458
7.08144e-06
-0.00320759
5.96624e-06
-0.00321002
4.83455e-06
-0.00321189
3.68644e-06
-0.00321317
2.52195e-06
-0.00321386
1.34105e-06
-0.00321394
1.4318e-07
-0.00321344
-1.07523e-06
-0.00321231
-2.30212e-06
-0.00321056
-3.55532e-06
-0.00320818
-4.80747e-06
-0.00320516
-6.08563e-06
-0.00320149
-7.37823e-06
-0.00319717
-8.68437e-06
-0.00319219
-1.00114e-05
-0.00318653
-1.13462e-05
-0.0031802
-1.26983e-05
-0.00317319
-1.40742e-05
-0.00316549
-1.54482e-05
-0.00315708
-1.68459e-05
-0.00314798
-1.82583e-05
-0.00313816
-1.96804e-05
-0.00312762
-2.11193e-05
-0.00311635
-2.25706e-05
-0.00310436
-2.40329e-05
-0.00309162
-2.55104e-05
-0.00307814
-2.69996e-05
-0.00306391
-2.8499e-05
-0.00304893
-3.00125e-05
-0.00303318
-3.15377e-05
-0.00301666
-3.3071e-05
-0.00299937
-3.46168e-05
-0.0029813
-3.61756e-05
-0.00296245
-3.77386e-05
-0.00294281
-3.93133e-05
-0.00292237
-4.09076e-05
-0.00290114
-4.24924e-05
-0.00287911
-4.40944e-05
-0.00285627
-4.57083e-05
-0.00283262
-4.73241e-05
-0.00280816
-4.89478e-05
-0.00278289
-5.05805e-05
-0.00275679
-5.22193e-05
-0.00272987
-5.38603e-05
-0.00270213
-5.55075e-05
-0.00267356
-5.71703e-05
-0.00264416
-5.88184e-05
-0.00261393
-6.04799e-05