/*--------------------------------*- C++ -*----------------------------------*\
| =========                 |                                                 |
| \\      /  F ield         | OpenFOAM: The Open Source CFD Toolbox           |
|  \\    /   O peration     | Version:  2412                                  |
|   \\  /    A nd           | Website:  www.openfoam.com                      |
|    \\/     M anipulation  |                                                 |
\*---------------------------------------------------------------------------*/
FoamFile
{
    version     2.0;
    format      ascii;
    arch        "LSB;label=32;scalar=64";
    class       volScalarField;
    location    "2.9";
    object      alpha.glycerin;
}
// * * * * * * * * * * * * * * * * * * * * * * * * * * * * * * * * * * * * * //

dimensions      [0 0 0 0 0 0 0];

internalField   nonuniform List<scalar> 
6400
(
1
1
1
1
1
1
1
1
1
1
1
1
1
1
1
1
1
1
1
1
1
1
1
1
1
1
1
1
1
1
1
1
1
1
1
1
1
1
1
1
1
1
1
1
1
1
1
1
1
1
1
1
1
1
1
1
1
1
1
1
1
1
1
0.999999
0.999999
1
1
1
1
1
1
1
1
1
1
1
1
1
1
1
1
1
1
1
1
1
1
1
1
1
1
1
1
1
1
1
1
1
1
1
1
1
1
1
1
1
1
1
1
1
1
1
1
1
1
1
1
1
1
1
1
1
1
1
1
1
1
1
1
1
1
1
1
1
1
1
1
1
1
0.999999
0.999999
0.999999
1
1
1
1
1
1
1
1
1
1
1
1
1
1
1
1
1
1
1
1
1
1
1
1
1
1
1
1
1
1
1
1
1
1
1
1
1
1
1
1
1
1
1
1
1
1
1
1
1
1
1
1
1
1
1
1
1
1
1
1
1
1
1
1
1
1
1
1
1
1
1
0.999999
0.999999
0.999999
0.999999
0.999999
0.999999
0.999999
1
1
1
1
1
1
1
1
1
1
1
1
1
1
1
1
1
1
1
1
1
1
1
1
1
1
1
1
1
1
1
1
1
1
1
1
1
1
1
1
1
1
1
1
1
1
1
1
1
1
1
0.999999
0.999999
0.999999
0.999999
1
1
1
1
1
1
1
1
1
1
1
1
1
1
1
1
1
0.999999
0.999999
0.999999
0.999999
1
1
1
1
0.999999
1
0.999999
0.999999
0.999999
0.999999
1
1
1
1
1
1
1
1
1
1
1
1
1
1
1
1
1
1
1
1
1
1
1
1
1
1
1
1
1
1
1
1
1
1
1
1
1
1
1
1
1
1
1
1
0.999999
0.999999
0.999999
0.999999
1
1
1
1
1
1
1
1
1
1
1
0.999999
1
1
1
1
1
1
1
1
1
1
1
1
1
0.999999
0.999999
1
1
0.999999
0.999999
0.999999
1
1
1
1
1
1
1
1
1
1
1
1
1
1
1
1
1
1
1
1
1
1
1
1
1
1
1
1
1
1
1
1
1
1
1
1
1
1
1
1
1
1
1
1
1
1
1
1
1
1
1
1
1
1
1
1
1
1
1
0.999999
0.999999
1
1
1
1
1
1
1
1
0.999999
1
1
1
1
1
1
1
1
1
1
1
1
1
1
1
1
1
1
1
1
1
1
1
1
1
1
1
1
1
1
1
1
1
1
1
1
1
1
1
1
1
1
1
1
1
1
1
1
1
1
1
1
1
1
1
1
1
1
1
1
1
1
1
1
1
1
1
1
1
1
1
1
1
1
1
0.999999
1
1
1
0.999999
0.999999
1
1
1
1
1
1
1
1
1
1
1
1
1
1
1
1
1
1
1
1
1
1
1
1
1
1
1
1
1
1
1
1
1
1
1
1
1
1
1
1
1
1
1
1
1
1
1
1
1
1
1
1
1
1
1
1
1
1
1
1
1
1
1
1
1
1
1
1
1
1
1
1
1
1
1
1
1
1
1
1
1
1
1
1
1
1
1
1
1
1
1
1
1
1
1
1
1
1
1
1
1
1
1
1
1
1
1
1
1
1
1
1
1
1
1
1
1
1
1
1
1
1
1
1
1
1
1
1
1
1
1
1
1
1
1
1
1
1
1
1
1
1
1
1
1
1
1
1
1
1
1
1
1
1
1
1
1
1
1
1
1
1
1
1
1
1
1
1
1
1
1
1
1
1
1
1
1
1
1
1
1
1
1
1
1
1
1
1
1
1
1
1
1
1
1
1
1
1
1
1
1
1
1
1
1
1
1
1
1
1
1
1
1
1
1
1
1
1
1
1
1
1
1
1
1
1
1
1
1
1
1
1
1
1
1
1
1
1
1
1
1
1
1
1
1
1
1
1
1
1
1
1
1
1
1
1
1
1
1
1
1
1
1
1
1
1
1
1
1
1
1
1
1
1
1
1
1
1
1
1
1
1
1
1
1
1
1
1
1
1
1
1
1
1
1
1
1
1
1
1
1
1
1
1
1
1
0.999999
1
1
1
0.999999
0.999999
0.999999
0.999998
0.999998
0.999998
0.999999
1
1
1
1
1
1
1
1
1
1
1
1
1
1
1
1
1
1
1
1
1
1
1
1
1
1
1
1
1
1
1
1
1
1
1
1
1
1
1
1
1
1
1
1
1
1
1
1
1
1
1
1
1
1
1
1
1
1
1
1
1
1
1
1
1
1
1
1
1
0.999999
0.999999
1
1
0.999999
0.999999
1
1
1
1
1
1
1
1
1
1
1
1
1
1
1
1
1
1
1
1
1
1
1
1
1
1
1
1
1
1
1
1
1
1
1
1
1
1
1
1
1
1
1
1
1
1
1
1
1
1
1
1
1
1
1
1
1
1
1
1
1
1
1
1
1
1
1
1
1
1
1
1
1
1
1
1
0.999999
1
1
1
1
1
1
1
1
1
1
1
1
1
1
1
1
1
1
1
1
1
1
1
1
1
1
1
1
1
1
1
1
1
1
1
1
1
1
1
1
1
1
1
1
1
1
1
1
1
1
1
1
1
1
1
1
1
1
1
1
1
1
1
1
1
1
1
1
1
1
1
1
1
1
1
1
1
0.999999
1
1
1
1
1
1
1
0.999999
0.999999
1
1
1
1
1
1
1
1
1
1
1
1
1
1
1
1
1
1
1
1
1
1
1
1
1
1
1
1
1
1
1
1
1
1
1
1
1
1
1
1
1
1
1
1
1
1
1
1
1
1
1
1
1
1
1
1
1
1
1
1
1
1
1
1
1
1
1
1
1
1
0.999999
0.999998
1
1
0.999999
0.999998
0.999999
1
1
1
1
1
1
1
1
1
1
1
1
1
1
1
1
1
1
1
1
1
1
1
1
1
1
1
1
1
1
1
1
1
1
1
1
1
1
1
1
1
1
1
1
1
1
1
1
1
1
1
1
1
1
1
1
1
1
1
1
1
1
1
1
1
1
1
1
1
1
0.999999
0.999998
1
1
0.999999
0.999998
1
1
1
1
1
1
1
1
1
1
1
1
1
1
1
1
1
1
1
1
1
1
1
1
1
1
1
1
1
1
1
1
1
1
1
1
1
1
1
1
1
1
1
1
1
1
1
1
1
1
1
1
1
1
1
1
1
1
1
1
1
1
1
1
1
1
1
1
1
1
1
1
1
1
0.999999
0.999998
1
1
1
1
1
1
1
1
1
1
1
1
1
1
1
1
1
1
1
1
1
1
1
1
1
1
1
1
1
1
1
1
1
1
1
1
1
1
1
1
1
1
1
1
1
1
1
1
1
1
1
1
1
1
1
1
1
1
1
1
1
1
1
1
1
1
1
1
1
1
1
1
1
1
1
0.999999
0.999997
0.999996
0.999996
0.999996
0.999999
1
1
1
1
1
1
1
1
1
1
1
1
1
1
1
1
1
1
1
1
1
1
1
1
1
1
1
1
1
1
1
1
1
1
1
1
1
1
1
1
1
1
1
1
1
1
1
1
1
1
1
1
1
1
1
1
1
1
1
1
1
1
1
1
1
1
1
1
1
1
1
0.999998
0.999989
0.999964
0.999176
0.99227
0.98674
0.988562
0.995498
0.999939
0.999973
0.999993
0.999999
1
1
1
1
1
1
1
1
1
1
1
1
1
1
1
1
1
1
1
1
1
1
1
1
1
1
1
1
1
1
1
1
1
1
1
1
1
1
1
1
1
1
1
1
1
1
1
1
1
1
1
1
1
1
1
1
1
1
1
1
1
1
1
1
1
1
0.998601
0.988397
0.960033
0.862461
0.719739
0.580528
0.497883
0.463309
0.472934
0.527168
0.632325
0.772397
0.906618
0.972497
0.992798
0.99966
1
1
1
1
1
1
1
1
1
1
1
1
1
1
1
1
1
1
1
1
1
1
1
1
1
1
1
1
1
1
1
1
0.00727154
0.0117973
0.0149433
0.0173209
0.019136
0.0206335
0.0219991
0.0233624
0.0248162
0.0264292
0.0282556
0.0303418
0.0327319
0.0354711
0.0386078
0.0421953
0.0462926
0.0509648
0.0562826
0.0623212
0.0691568
0.0768619
0.085495
0.0950847
0.105602
0.116919
0.128734
0.140469
0.151143
0.159058
0.16152
0.154884
0.134841
0.101986
0.051684
0.0314944
0.0313286
0.0550837
0.0825331
0.0851519
0.0834059
0.0812624
0.0516638
0.0342741
0.0334837
0.0725832
0.116423
0.14388
0.159103
0.161808
0.1569
0.14758
0.136246
0.124281
0.112519
0.101403
0.0911612
0.0818815
0.073565
0.0661671
0.0596202
0.0538474
0.0487706
0.0443146
0.0404096
0.0369919
0.0340041
0.031395
0.0291179
0.0271299
0.0253887
0.02385
0.0224622
0.0211594
0.0198526
0.0184171
0.0166743
0.0143878
0.0113595
0.00700024
1.35693e-08
4.01779e-09
1.08022e-08
1.87282e-08
2.75602e-08
3.73708e-08
4.83571e-08
6.10301e-08
7.62001e-08
9.49904e-08
1.18894e-07
1.49876e-07
1.90517e-07
2.44188e-07
3.15275e-07
4.09405e-07
5.33637e-07
6.96455e-07
9.0737e-07
1.17585e-06
1.50916e-06
1.90948e-06
2.37588e-06
2.92257e-06
3.59711e-06
4.43449e-06
6.03683e-06
1.22408e-05
2.02459e-05
3.12502e-05
4.13202e-05
4.73354e-05
5.2053e-05
5.49056e-05
0.000108526
0.08941
0.226122
0.234857
0.220979
0.212958
0.212916
0.230117
0.241444
0.197291
0.0352707
9.97851e-05
7.04527e-05
6.82416e-05
6.48605e-05
6.21815e-05
5.40884e-05
4.0131e-05
2.67684e-05
1.65715e-05
8.59672e-06
4.57443e-06
3.10093e-06
2.33223e-06
1.80355e-06
1.40075e-06
1.08045e-06
8.27846e-07
6.31947e-07
4.82133e-07
3.6866e-07
2.83191e-07
2.18956e-07
1.70641e-07
1.34159e-07
1.06402e-07
8.50154e-08
6.82175e-08
5.466e-08
4.3331e-08
3.35022e-08
2.47167e-08
1.67997e-08
9.68713e-09
3.59491e-09
1.2204e-08
6.24123e-11
9.39235e-12
2.94816e-11
5.64982e-11
9.02317e-11
1.22323e-10
1.66517e-10
2.29848e-10
3.14334e-10
4.27112e-10
5.75916e-10
7.70675e-10
1.02394e-09
1.35163e-09
1.77833e-09
2.35125e-09
3.15366e-09
4.2919e-09
5.84626e-09
7.79944e-09
9.9559e-09
1.2411e-08
2.04663e-08
6.89969e-08
2.38794e-07
6.11445e-07
1.7548e-06
7.88162e-06
1.67005e-05
2.55343e-05
3.55969e-05
4.69671e-05
5.07318e-05
5.25334e-05
9.09954e-05
0.124151
0.281851
0.286244
0.286243
0.286244
0.286153
0.286012
0.285961
0.265918
0.0692711
0.000100071
7.30975e-05
7.19483e-05
6.2894e-05
5.68329e-05
4.61291e-05
3.0047e-05
2.06304e-05
1.16216e-05
4.23874e-06
1.02523e-06
2.78549e-07
8.84515e-08
2.73349e-08
1.33523e-08
8.57114e-09
5.97008e-09
4.24237e-09
3.06067e-09
2.25178e-09
1.68702e-09
1.27646e-09
9.66462e-10
7.28689e-10
5.46009e-10
4.06456e-10
3.01004e-10
2.22472e-10
1.6388e-10
1.23945e-10
9.42055e-11
5.96272e-11
3.16761e-11
1.04545e-11
6.63047e-11
3.76323e-13
4.63747e-14
1.56172e-13
3.2829e-13
5.63978e-13
8.89781e-13
1.32844e-12
1.92214e-12
2.74046e-12
3.88184e-12
5.48557e-12
7.74698e-12
1.09334e-11
1.54047e-11
2.16869e-11
3.07936e-11
4.49734e-11
6.81627e-11
1.08579e-10
1.94064e-10
4.38858e-10
1.13063e-09
3.45814e-09
1.9641e-08
1.01611e-07
2.90979e-07
5.95237e-07
1.41859e-06
6.14702e-05
0.000260436
0.000284136
0.000164127
0.000580729
0.00467672
0.00578256
0.00223833
0.0103479
0.166264
0.286243
0.286153
0.286011
0.285961
0.144449
0.00413421
0.00510443
0.00606901
0.00443741
0.000670799
0.000171703
0.000270101
0.000461143
0.000390961
0.000110113
3.10497e-06
8.86964e-07
3.3982e-07
1.22961e-07
3.78479e-08
6.20427e-09
1.38831e-09
3.71641e-10
1.54856e-10
8.80139e-11
5.58031e-11
3.71309e-11
2.57011e-11
1.76076e-11
1.24545e-11
8.89686e-12
6.37492e-12
4.56551e-12
3.25996e-12
2.30889e-12
1.60748e-12
1.08236e-12
6.90638e-13
4.07264e-13
1.97403e-13
6.17606e-14
4.72221e-13
2.82495e-15
4.46817e-16
1.46113e-15
3.03612e-15
5.37487e-15
8.84332e-15
1.40006e-14
2.18006e-14
3.38341e-14
5.2711e-14
8.26746e-14
1.30466e-13
2.06467e-13
3.2655e-13
5.17706e-13
8.35092e-13
1.3969e-12
2.57755e-12
6.54042e-12
2.90613e-11
1.76257e-10
5.94975e-10
1.25275e-09
2.84962e-09
1.2364e-08
1.11043e-07
5.26743e-07
6.20161e-06
3.86272e-05
0.000615919
0.00100497
0.00102254
0.00102657
0.00102895
0.000259159
1.4424e-07
1.44245e-07
1.4424e-07
0.165653
0.130594
0.128674
0.142683
2.69997e-06
2.68932e-06
2.69997e-06
0.0001637
0.000706775
0.00075025
0.000741383
0.00072617
0.000721601
0.000719623
0.000309055
4.47458e-06
8.22663e-07
1.5083e-07
2.64313e-08
5.77849e-09
1.80446e-09
6.66703e-10
1.22858e-10
2.28807e-11
6.61373e-12
2.96422e-12
1.6559e-12
9.85195e-13
5.9996e-13
3.68551e-13
2.2793e-13
1.42082e-13
8.9514e-14
5.70364e-14
3.66568e-14
2.35915e-14
1.50022e-14
9.22276e-15
5.29399e-15
2.6067e-15
8.28021e-16
4.40629e-15
7.58558e-17
1.7644e-17
6.03309e-17
1.25721e-16
2.23729e-16
3.71094e-16
5.95924e-16
9.46014e-16
1.49669e-15
2.35688e-15
3.65644e-15
5.46472e-15
7.46186e-15
8.56907e-15
1.2455e-14
2.10879e-14
4.50339e-14
1.94937e-13
1.78927e-12
1.03301e-11
3.47572e-11
1.59836e-10
9.10448e-10
8.32047e-09
6.4152e-08
8.92127e-07
4.2457e-05
6.83603e-05
5.37875e-05
3.5939e-08
4.17218e-08
4.29165e-08
6.63203e-08
8.73109e-08
9.51909e-08
2.4671e-07
1.99489e-07
0.00244431
1.59998e-07
9.9285e-08
8.05872e-08
5.61784e-08
0.000127358
3.90132e-06
2.69997e-06
3.12423e-06
3.80449e-06
4.05767e-06
2.28121e-06
1.98893e-06
1.21223e-05
3.24358e-05
0.000116982
7.09055e-05
2.02949e-06
1.7171e-07
2.50364e-08
3.35426e-09
5.91628e-10
1.1836e-10
3.47406e-11
8.11131e-12
1.21202e-12
2.42861e-13
1.32481e-13
8.32122e-14
5.02912e-14
3.00336e-14
1.78894e-14
1.06247e-14
6.32866e-15
3.80635e-15
2.319e-15
1.42755e-15
8.78604e-16
5.28609e-16
2.989e-16
1.45722e-16
4.38878e-17
1.58388e-16
8.21457e-19
1.80185e-19
6.43481e-19
1.43491e-18
2.77778e-18
5.0987e-18
9.20799e-18
1.67179e-17
3.08658e-17
5.82412e-17
1.12385e-16
2.2111e-16
4.41098e-16
8.85778e-16
1.77323e-15
3.61672e-15
1.01318e-14
7.14889e-14
1.0632e-12
8.33531e-12
2.12812e-11
1.1283e-10
9.09054e-10
9.70533e-09
8.86512e-08
8.55147e-06
2.01996e-05
6.63654e-06
2.66832e-08
3.11073e-08
3.5939e-08
4.60555e-08
8.50644e-08
6.02443e-07
7.84345e-07
7.93088e-07
5.13032e-07
5.67402e-07
2.2224e-07
2.04827e-07
1.87313e-07
5.0067e-08
7.22558e-08
7.23138e-08
1.08305e-05
2.34754e-05
2.34952e-05
2.34754e-05
9.76549e-06
1.12353e-06
6.58569e-07
4.84892e-07
3.67297e-07
2.9174e-05
1.82405e-05
5.01979e-07
2.76866e-08
3.11875e-09
4.22416e-10
6.52711e-11
2.57592e-11
5.56365e-12
5.72929e-13
7.03746e-14
1.85879e-14
7.52276e-15
3.41955e-15
1.59443e-15
7.60995e-16
3.72921e-16
1.87943e-16
9.76013e-17
5.22164e-17
2.86418e-17
1.592e-17
8.76753e-18
4.60335e-18
2.11206e-18
6.10357e-19
2.29836e-18
8.54787e-21
1.83175e-21
6.65141e-21
1.542e-20
3.13421e-20
6.10418e-20
1.181e-19
2.31839e-19
4.67297e-19
9.73086e-19
2.0991e-18
4.69264e-18
1.085e-17
2.58062e-17
6.02722e-17
1.66025e-16
9.76992e-16
1.52521e-14
3.3022e-13
4.46146e-12
1.86389e-11
5.36595e-11
5.96783e-10
7.64476e-09
1.48135e-06
8.65786e-06
8.72715e-06
2.0694e-08
2.29183e-08
2.81994e-08
4.72568e-08
4.26209e-08
3.96327e-08
4.16736e-07
7.53689e-07
7.75711e-07
7.25065e-07
5.59386e-07
7.15751e-07
7.24792e-07
6.31254e-07
1.54813e-08
1.6188e-09
2.76215e-06
2.29617e-05
2.34952e-05
2.34952e-05
2.34952e-05
2.29607e-05
5.44611e-06
5.01807e-07
2.15869e-07
9.22745e-08
1.39149e-05
1.75632e-05
3.88481e-06
2.80705e-08
2.62973e-09
2.63479e-10
4.17124e-11
1.81418e-11
2.93483e-12
1.92098e-13
1.27761e-14
1.43314e-15
3.45257e-16
1.25582e-16
5.10251e-17
2.13205e-17
9.22313e-18
4.16048e-18
1.95864e-18
9.60428e-19
4.87656e-19
2.53263e-19
1.31564e-19
6.58251e-20
2.90591e-20
8.27593e-21
3.22524e-20
1.00679e-22
2.18778e-23
8.08696e-23
1.93921e-22
4.11108e-22
8.43018e-22
1.7329e-21
3.64491e-21
7.93408e-21
1.79762e-20
4.24911e-20
1.04676e-19
2.65206e-19
6.63748e-19
1.69921e-18
6.62093e-18
8.6614e-17
2.36495e-15
6.22691e-14
1.26157e-12
9.22863e-12
1.66489e-11
2.15241e-10
3.38717e-09
1.21527e-06
5.27464e-06
1.16952e-06
1.80993e-08
2.82538e-08
8.68376e-08
8.95272e-08
7.65938e-08
1.89338e-08
1.34293e-08
4.97932e-09
2.06965e-09
1.37642e-07
2.5149e-07
1.27276e-07
2.96229e-08
7.39622e-10
7.36466e-10
7.39622e-10
4.19045e-06
2.14965e-05
2.29617e-05
2.34952e-05
1.42234e-05
8.01222e-07
7.37757e-08
4.01955e-07
1.59298e-07
5.08513e-08
1.63427e-06
1.01105e-05
3.49869e-06
1.47857e-08
1.20508e-09
1.18294e-10
4.25471e-11
1.14167e-11
1.06466e-12
5.77405e-14
2.90463e-15
1.68313e-16
1.90611e-17
4.8377e-18
1.72132e-18
6.55346e-19
2.56409e-19
1.04964e-19
4.52394e-20
2.04958e-20
9.70343e-21
4.74284e-21
2.34094e-21
1.12351e-21
4.79839e-22
1.34304e-22
5.18721e-22
1.29301e-24
2.87312e-25
1.08096e-24
2.67891e-24
5.91726e-24
1.27611e-23
2.78429e-23
6.27096e-23
1.47407e-22
3.63653e-22
9.43874e-22
2.57364e-21
7.22714e-21
1.96993e-20
5.08784e-20
1.14727e-19
2.83553e-18
1.67015e-16
4.22808e-15
6.2401e-14
4.08109e-13
2.10008e-12
3.75802e-11
1.61018e-08
4.09451e-07
2.99703e-07
1.276e-08
1.72951e-08
2.39532e-08
8.06308e-08
8.94235e-08
8.9527e-08
8.5331e-08
1.04915e-08
3.24224e-09
1.47012e-09
1.24534e-09
1.03808e-09
8.21719e-10
7.41438e-10
7.31794e-10
7.39622e-10
4.19205e-09
8.70791e-07
8.70745e-06
9.01895e-06
8.57725e-07
2.01659e-09
3.70619e-09
1.39074e-08
4.88724e-08
5.53137e-08
4.14196e-08
3.00873e-08
7.61737e-07
1.29839e-06
9.25116e-08
3.49092e-10
5.05826e-11
3.23889e-11
4.37812e-12
2.63664e-13
1.42649e-14
6.6815e-16
2.80378e-17
1.59485e-18
2.27884e-19
6.39873e-20
2.19648e-20
7.82302e-21
2.91083e-21
1.14899e-21
4.81329e-22
2.12721e-22
9.79886e-23
4.60204e-23
2.12157e-23
8.7757e-24
2.41285e-24
9.16448e-24
1.77921e-26
4.06725e-27
1.55579e-26
3.97902e-26
9.14078e-26
2.06877e-25
4.7799e-25
1.14993e-24
2.91133e-24
7.79839e-24
2.21571e-23
6.67172e-23
2.08072e-22
5.88481e-22
9.33932e-22
2.13358e-21
5.14409e-20
2.00651e-18
3.1511e-17
5.33677e-16
8.83479e-15
1.5525e-13
6.86058e-12
2.49854e-09
2.42585e-09
9.81414e-09
5.11459e-09
1.67928e-08
1.8218e-08
2.55429e-08
3.42142e-08
2.54282e-08
5.3819e-08
5.83645e-08
4.90472e-08
6.10763e-09
1.48137e-09
1.24534e-09
9.99021e-10
9.38196e-10
7.43072e-10
7.79661e-10
1.0625e-09
4.64975e-09
2.22957e-09
3.01824e-09
2.01659e-09
1.95613e-09
4.01083e-09
1.36458e-08
2.47801e-08
2.98767e-08
3.52056e-08
1.27887e-08
2.41842e-08
1.65813e-08
2.34244e-08
4.63921e-10
5.79806e-11
1.02832e-11
7.61909e-13
4.56143e-14
2.45801e-15
1.13218e-16
4.37797e-18
1.68722e-19
1.28586e-20
2.57599e-21
7.70664e-22
2.51433e-22
8.56305e-23
3.10834e-23
1.2081e-23
4.99953e-24
2.17655e-24
9.75087e-25
4.32686e-25
1.73629e-25
4.69346e-26
1.746e-25
2.59033e-28
6.12262e-29
2.37791e-28
6.26607e-28
1.49402e-27
3.54011e-27
8.63921e-27
2.21387e-26
6.01875e-26
1.74477e-25
5.40688e-25
1.79129e-24
6.18949e-24
1.79013e-23
1.5358e-23
7.90219e-23
2.13017e-21
5.14409e-20
1.42583e-18
2.9965e-17
5.33677e-16
8.83479e-15
6.68548e-13
8.42713e-12
2.53805e-10
1.22328e-09
1.55059e-09
8.53094e-09
8.00111e-09
5.20933e-09
3.85869e-09
1.15373e-09
6.6096e-10
2.61908e-08
4.80453e-08
4.33838e-08
1.86804e-08
7.1733e-09
4.98564e-09
2.0061e-09
8.17939e-10
1.06097e-09
1.20234e-09
1.69618e-09
2.27295e-09
3.50403e-09
2.14761e-08
1.76353e-09
6.40185e-09
1.26433e-08
1.25858e-08
1.20362e-08
1.59839e-08
5.36338e-09
3.83522e-09
2.16703e-09
1.58851e-10
1.19479e-10
1.86799e-11
1.39076e-12
9.25432e-14
5.56397e-15
2.91385e-16
1.32009e-17
5.11024e-19
1.74282e-20
8.2998e-22
1.11174e-22
2.80157e-23
8.35709e-24
2.62379e-24
8.80649e-25
3.18921e-25
1.24049e-25
5.12071e-26
2.1945e-26
9.39518e-27
3.66412e-27
9.74799e-28
3.5418e-27
3.94593e-30
9.68427e-31
3.81268e-30
1.03332e-29
2.55144e-29
6.31342e-29
1.62279e-28
4.41648e-28
1.28528e-27
4.01872e-27
1.35325e-26
4.90751e-26
1.86477e-25
5.84848e-25
4.59911e-25
2.72999e-24
7.90219e-23
2.13017e-21
9.82998e-20
1.6498e-18
3.01421e-17
4.5161e-15
2.00187e-13
3.0206e-12
3.63338e-11
1.97444e-10
2.21262e-10
1.01191e-09
1.11674e-09
9.35025e-10
1.09796e-09
1.16648e-09
6.5455e-10
2.19761e-10
1.76557e-08
3.70462e-08
3.59811e-08
2.21134e-08
1.32353e-08
1.99293e-09
8.78153e-10
2.87348e-09
3.20876e-09
5.4502e-09
1.15108e-08
2.47452e-08
2.40352e-08
8.63409e-10
3.12177e-09
3.79791e-09
1.37273e-09
1.17521e-09
1.74926e-09
1.01895e-09
7.15753e-10
3.19062e-10
3.43433e-11
1.71087e-11
1.78886e-12
1.28393e-13
8.64839e-15
5.08123e-16
2.5741e-17
1.13622e-18
4.37508e-20
1.47273e-21
5.49389e-23
5.0087e-24
1.04572e-24
2.83447e-25
8.24861e-26
2.57545e-26
8.73313e-27
3.2061e-27
1.25946e-27
5.17915e-28
2.14468e-28
8.14472e-29
2.13512e-29
7.56339e-29
6.22738e-32
1.59281e-32
6.34438e-32
1.76505e-31
4.50234e-31
1.1602e-30
3.1316e-30
9.0226e-30
2.8014e-29
9.41445e-29
3.4312e-28
1.35465e-27
5.62516e-27
2.02946e-26
2.03917e-26
9.69531e-26
2.72999e-24
1.64726e-22
1.94382e-20
7.90551e-19
1.62634e-17
5.7679e-16
2.21015e-14
6.09809e-13
3.91289e-12
2.05205e-11
5.37641e-11
9.65319e-11
1.78073e-10
2.48904e-10
4.2257e-10
6.51112e-10
5.49903e-10
2.11445e-10
4.74192e-11
5.90714e-09
2.27395e-08
2.41935e-08
1.67624e-08
2.03355e-09
9.69774e-10
5.29648e-09
1.15722e-08
1.78526e-08
1.91706e-08
1.83474e-08
3.50978e-09
3.97037e-10
8.57842e-10
6.4853e-10
3.24064e-10
2.6846e-10
1.83155e-10
1.98116e-10
1.07354e-10
4.75087e-11
9.66054e-12
1.61141e-12
1.34463e-13
9.78954e-15
6.46699e-16
3.66142e-17
1.80609e-18
7.77585e-20
2.93334e-21
9.81998e-23
3.33306e-24
2.2706e-25
3.94482e-26
9.69777e-27
2.62681e-27
7.67653e-28
2.45056e-28
8.53021e-29
3.2014e-29
1.2674e-29
5.09002e-30
1.88607e-30
4.87866e-31
1.68309e-30
1.00919e-33
2.69946e-34
1.08534e-33
3.09288e-33
8.12874e-33
2.1748e-32
6.14422e-32
1.86757e-31
6.16404e-31
2.21793e-30
8.71088e-30
3.72377e-29
1.6836e-28
7.1134e-28
1.80623e-27
5.21195e-27
4.91015e-25
4.099e-23
2.09281e-21
8.21999e-20
2.10954e-18
4.31081e-17
1.34923e-15
4.08726e-14
6.04645e-13
4.07221e-12
1.24014e-11
2.57328e-11
5.25279e-11
8.5981e-11
1.59079e-10
2.84145e-10
2.83516e-10
1.85457e-10
4.00117e-11
4.74192e-11
4.54849e-09
1.98559e-08
1.17365e-08
1.67549e-09
1.20961e-09
8.01307e-09
1.68448e-08
1.76757e-08
1.52717e-08
1.32303e-09
1.64316e-10
3.98931e-10
5.25826e-10
3.40246e-10
1.94732e-10
1.40754e-10
8.72455e-11
5.97752e-11
2.2277e-11
6.29697e-12
1.34171e-12
1.21605e-13
9.7538e-15
6.81906e-16
4.16714e-17
2.20669e-18
1.05257e-19
4.38714e-21
1.61857e-22
5.34023e-24
1.7495e-25
9.95351e-27
1.47649e-27
3.31071e-28
8.38165e-29
2.30666e-29
6.97194e-30
2.31238e-30
8.32562e-31
3.18423e-31
1.24375e-31
4.50622e-32
1.15187e-32
3.86752e-32
1.66609e-35
4.67706e-36
1.89291e-35
5.5121e-35
1.48831e-34
4.12062e-34
1.21413e-33
3.87822e-33
1.35517e-32
5.19745e-32
2.18828e-31
1.00698e-30
4.94751e-30
2.39297e-29
1.06142e-28
9.75173e-28
4.85166e-26
3.83032e-24
1.75579e-22
5.5306e-21
1.46016e-19
3.28016e-18
7.60894e-17
1.70283e-15
3.77191e-14
3.67566e-13
1.59511e-12
4.70041e-12
1.22756e-11
2.48195e-11
5.36617e-11
1.11639e-10
1.22401e-10
9.46285e-11
3.27303e-11
8.88903e-11
1.18895e-09
6.20615e-09
5.15126e-09
1.2951e-09
1.45651e-09
9.17149e-09
1.64917e-08
1.68438e-08
4.1417e-09
6.50888e-11
1.61835e-10
3.17947e-10
3.39787e-10
1.82025e-10
8.36758e-11
4.79049e-11
2.49807e-11
1.22279e-11
3.92462e-12
8.42056e-13
9.14336e-14
7.98923e-15
6.35973e-16
4.2739e-17
2.46309e-18
1.22953e-19
5.44885e-21
2.13833e-22
7.64251e-24
2.45372e-25
7.878e-27
4.08882e-28
5.3942e-29
1.11588e-29
2.65433e-30
6.92177e-31
1.99263e-31
6.32935e-32
2.19568e-32
8.14211e-33
3.10205e-33
1.10131e-33
2.78642e-34
9.10166e-34
2.78226e-37
8.22865e-38
3.34105e-37
9.91507e-37
2.74153e-36
7.82649e-36
2.39523e-35
8.00493e-35
2.94704e-34
1.19874e-33
5.38217e-33
2.63722e-32
1.377e-31
7.19e-31
3.82336e-30
5.57382e-29
4.09725e-27
2.56325e-25
1.15577e-23
3.84016e-22
1.08148e-20
2.6057e-19
5.43433e-18
9.54423e-17
1.4316e-15
1.79424e-14
1.44343e-13
7.43349e-13
2.94785e-12
7.53437e-12
1.87164e-11
4.1924e-11
4.96702e-11
4.24446e-11
2.19679e-11
4.89666e-11
8.50178e-10
3.42742e-09
3.15067e-09
1.0058e-09
1.62254e-09
8.16684e-09
1.60085e-08
8.61873e-09
6.86311e-10
5.83416e-11
1.41027e-10
2.10756e-10
1.97325e-10
8.02606e-11
2.58272e-11
1.06591e-11
3.7123e-12
1.25952e-12
3.40902e-13
5.49559e-14
4.89232e-15
4.57441e-16
3.61589e-17
2.37292e-18
1.32278e-19
6.32185e-21
2.65327e-22
9.8565e-24
3.29879e-25
1.00246e-26
3.126e-28
1.54888e-29
1.89877e-30
3.67698e-31
8.27345e-32
2.05758e-32
5.67554e-33
1.73552e-33
5.8266e-34
2.10261e-34
7.83674e-35
2.73236e-35
6.85405e-36
2.17739e-35
4.66505e-39
1.47042e-39
5.927e-39
1.78769e-38
5.04477e-38
1.47904e-37
4.67934e-37
1.62546e-36
6.2439e-36
2.65481e-35
1.24458e-34
6.38205e-34
3.5072e-33
1.95128e-32
1.18844e-31
2.52834e-30
2.16779e-28
1.4302e-26
7.67292e-25
3.13871e-23
1.04268e-21
2.86689e-20
6.4828e-19
1.16201e-17
1.67056e-16
2.2858e-15
2.6174e-14
2.05825e-13
1.08797e-12
3.3654e-12
9.32284e-12
2.21932e-11
2.90844e-11
2.62813e-11
1.76263e-11
3.14158e-11
7.27662e-10
2.92919e-09
2.73373e-09
7.86778e-10
1.83669e-09
5.24332e-09
6.80721e-09
2.96054e-09
1.21188e-10
5.69949e-11
1.08422e-10
1.33664e-10
1.0482e-10
3.2545e-11
7.53684e-12
2.26453e-12
4.70945e-13
9.41084e-14
1.80271e-14
2.37891e-15
2.3751e-16
2.28907e-17
1.80708e-18
1.17188e-19
6.393e-21
2.96624e-22
1.201e-23
4.27588e-25
1.36222e-26
3.94264e-28
1.16365e-29
5.45964e-31
6.34373e-32
1.1723e-32
2.51968e-33
6.01636e-34
1.59979e-34
4.73447e-35
1.54515e-35
5.44624e-36
1.9917e-36
6.83486e-37
1.70282e-37
5.25939e-37
7.80802e-41
2.66132e-41
1.0502e-40
3.20811e-40
9.19398e-40
2.74954e-39
8.91582e-39
3.18976e-38
1.26689e-37
5.58981e-37
2.72439e-36
1.45375e-35
8.33921e-35
4.90892e-34
3.61945e-33
1.10531e-31
8.88131e-30
8.99257e-28
7.01844e-26
3.65519e-24
1.46809e-22
4.73824e-21
1.23413e-19
2.58488e-18
4.39836e-17
6.50972e-16
8.30686e-15
7.81833e-14
4.85256e-13
1.76804e-12
5.67129e-12
1.52315e-11
2.2077e-11
2.02114e-11
1.55193e-11
3.41829e-11
6.72949e-10
2.77466e-09
2.44789e-09
6.08094e-10
1.86185e-09
3.43584e-09
3.31348e-09
1.36208e-09
1.47249e-10
5.26286e-11
7.78404e-11
8.75351e-11
5.72845e-11
1.44218e-11
2.77394e-12
7.01216e-13
1.07423e-13
1.32302e-14
1.43588e-15
1.39524e-16
1.27575e-17
1.13115e-18
8.49175e-20
5.33556e-21
2.83226e-22
1.27924e-23
5.02652e-25
1.73149e-26
5.32296e-28
1.48164e-29
4.17316e-31
1.84882e-32
2.03616e-33
3.60841e-34
7.46432e-35
1.72121e-35
4.43653e-36
1.2772e-36
4.06981e-37
1.40631e-37
5.06102e-38
1.71322e-38
4.24763e-39
1.27468e-38
1.30042e-42
4.83792e-43
1.85223e-42
5.7038e-42
1.65259e-41
5.01658e-41
1.65909e-40
6.08027e-40
2.48249e-39
1.129e-38
5.68495e-38
3.13586e-37
1.86468e-36
1.16693e-35
1.12703e-34
4.53578e-33
3.6599e-31
8.45852e-29
9.53304e-27
6.00389e-25
2.78033e-23
1.0118e-21
2.94486e-20
6.92335e-19
1.32439e-17
2.12237e-16
2.92801e-15
3.08595e-14
2.17051e-13
9.16811e-13
3.42477e-12
1.06193e-11
1.69587e-11
1.54869e-11
1.39596e-11
4.33202e-11
6.8588e-10
2.4223e-09
1.98579e-09
4.65089e-10
1.64223e-09
2.96502e-09
2.49453e-09
7.92641e-10
1.39804e-10
4.84662e-11
5.5294e-11
5.89554e-11
3.31431e-11
7.06801e-12
1.20914e-12
2.78255e-13
3.72253e-14
3.75041e-15
3.06807e-16
2.17119e-17
1.43263e-18
8.84836e-20
5.0839e-21
2.68518e-22
1.27712e-23
5.37662e-25
2.00749e-26
6.64079e-28
1.96849e-29
5.29434e-31
1.43307e-32
6.00256e-34
6.27515e-35
1.07252e-35
2.14918e-36
4.8113e-37
1.2071e-37
3.39356e-38
1.05969e-38
3.60157e-39
1.27891e-39
4.27622e-40
1.06727e-40
3.07695e-40
2.15067e-44
8.83259e-45
3.25018e-44
1.0036e-43
2.92732e-43
8.98184e-43
3.01543e-42
1.12599e-41
4.70016e-41
2.19008e-40
1.13117e-39
6.39518e-39
3.91589e-38
2.64203e-37
3.53547e-36
1.77758e-34
1.58264e-32
1.15924e-29
1.6688e-27
1.18843e-25
6.07046e-24
2.41598e-22
7.68013e-21
1.97273e-19
4.12487e-18
7.15572e-17
1.05795e-15
1.23649e-14
9.8354e-14
4.71654e-13
2.00666e-12
7.15527e-12
1.25784e-11
1.18099e-11
1.24627e-11
5.24073e-11
6.74756e-10
1.92987e-09
1.53162e-09
3.49855e-10
1.37493e-09
2.72452e-09
2.22368e-09
5.52139e-10
1.10187e-10
4.33749e-11
3.98987e-11
3.91532e-11
1.9875e-11
3.63986e-12
5.55826e-13
1.1699e-13
1.41743e-14
1.30216e-15
9.68468e-17
6.16209e-18
3.35527e-19
1.56447e-20
6.41662e-22
2.39752e-23
8.39936e-25
2.79563e-26
8.83746e-28
2.61606e-29
7.19305e-31
1.8343e-32
4.73082e-34
1.86352e-35
1.85012e-36
3.06676e-37
5.98667e-38
1.30809e-38
3.20985e-39
8.84856e-40
2.71739e-40
9.11119e-41
3.20022e-41
1.05879e-41
2.67665e-42
7.36409e-42
3.53364e-46
1.62788e-46
5.68057e-46
1.74646e-45
5.10591e-45
1.57651e-44
5.34741e-44
2.02379e-43
8.58508e-43
4.07221e-42
2.142e-41
1.23031e-40
7.7046e-40
5.71608e-39
1.10258e-37
7.06391e-36
8.28304e-34
1.66231e-30
3.11314e-28
2.46367e-26
1.37357e-24
5.95241e-23
2.06313e-21
5.78437e-20
1.3197e-18
2.47903e-17
3.95452e-16
5.13175e-15
4.63465e-14
2.49145e-13
1.18018e-12
4.78948e-12
9.22012e-12
9.27642e-12
1.14189e-11
6.24147e-11
6.1492e-10
1.50194e-09
1.17875e-09
2.59233e-10
1.11827e-09
2.38817e-09
2.16955e-09
5.27507e-10
9.21426e-11
3.50717e-11
2.85265e-11
2.4938e-11
1.22438e-11
1.95644e-12
2.66633e-13
5.07783e-14
5.53723e-15
4.70192e-16
3.2941e-17
1.95441e-18
9.70941e-20
4.02257e-21
1.40863e-22
4.24461e-24
1.12772e-25
2.72437e-27
6.21675e-29
1.3847e-30
3.06531e-32
6.74117e-34
1.56328e-35
5.58247e-37
5.20637e-38
8.40457e-39
1.60729e-39
3.44568e-40
8.30745e-41
2.25462e-41
6.83326e-42
2.26705e-42
7.89486e-43
2.58979e-43
6.65067e-44
1.73948e-43
5.79954e-48
3.06016e-48
9.93612e-48
3.0111e-47
8.77687e-47
2.71465e-46
9.25658e-46
3.53186e-45
1.51378e-44
7.26212e-44
3.85975e-43
2.23082e-42
1.4216e-41
1.21819e-40
3.75697e-39
3.46669e-37
5.91075e-35
1.72754e-31
5.4931e-29
4.97901e-27
3.07837e-25
1.46786e-23
5.58762e-22
1.72072e-20
4.30198e-19
8.80398e-18
1.51932e-16
2.18194e-15
2.2456e-14
1.34295e-13
7.08258e-13
3.29618e-12
6.62806e-12
7.43545e-12
1.18521e-11
7.2258e-11
5.4559e-10
1.17972e-09
9.05724e-10
1.86658e-10
8.96623e-10
1.94146e-09
1.98506e-09
6.05001e-10
9.32939e-11
2.75894e-11
1.98243e-11
1.6445e-11
7.56909e-12
1.08227e-12
1.34306e-13
2.30104e-14
2.24488e-15
1.74351e-16
1.14429e-17
6.33812e-19
2.91921e-20
1.11731e-21
3.58695e-23
9.73185e-25
2.26036e-26
4.5594e-28
8.17063e-30
1.34246e-31
2.11573e-33
3.37498e-35
5.96082e-37
1.68577e-38
1.40092e-39
2.20179e-40
4.14674e-41
8.76375e-42
2.08528e-42
5.59317e-43
1.67866e-43
5.5261e-44
1.9124e-44
6.23302e-45
1.62983e-45
4.0367e-45
9.63223e-50
5.95723e-50
1.75743e-49
5.17635e-49
1.49414e-48
4.60556e-48
1.57064e-47
6.00783e-47
2.58595e-46
1.24657e-45
6.64072e-45
3.82277e-44
2.48579e-43
2.88651e-42
1.76337e-40
2.52523e-38
5.25339e-36
1.04675e-32
8.82434e-30
9.63316e-28
6.76979e-26
3.59697e-24
1.51467e-22
5.14605e-21
1.41587e-19
3.16774e-18
5.91548e-17
9.38632e-16
1.10993e-14
7.32642e-14
4.38264e-13
2.3757e-12
4.73172e-12
6.02367e-12
1.29011e-11
7.83878e-11
4.83075e-10
9.25832e-10
6.75996e-10
1.2808e-10
7.27952e-10
1.50127e-09
1.52933e-09
5.82385e-10
1.03255e-10
2.39068e-11
1.38613e-11
1.07417e-11
4.68684e-12
5.95811e-13
6.96336e-14
1.07198e-14
9.38624e-16
6.65496e-17
4.03944e-18
2.06651e-19
8.78186e-21
3.10727e-22
9.22841e-24
2.31062e-25
4.91791e-27
8.97161e-29
1.41784e-30
1.96836e-32
2.45839e-34
2.87309e-36
3.42414e-38
5.93556e-40
3.65942e-41
5.50538e-42
1.02555e-42
2.14665e-43
5.06192e-44
1.34677e-44
4.0153e-45
1.31515e-45
4.53256e-46
1.47076e-46
3.92579e-47
9.16516e-47
1.65498e-51
1.22084e-51
3.19636e-51
8.98382e-51
2.54561e-50
7.77454e-50
2.63716e-49
1.00553e-48
4.31926e-48
2.07772e-47
1.10018e-46
6.23762e-46
4.3155e-45
1.01576e-43
1.28498e-41
2.4892e-39
5.29919e-37
4.33585e-34
1.1791e-30
1.76022e-28
1.44416e-26
8.65272e-25
4.06161e-23
1.5284e-21
4.64366e-20
1.14095e-18
2.31641e-17
4.06081e-16
5.53513e-15
4.0139e-14
2.79783e-13
1.72518e-12
3.53432e-12
5.05411e-12
1.3377e-11
7.92838e-11
4.2242e-10
6.98199e-10
4.71073e-10
8.28582e-11
5.84112e-10
1.19966e-09
1.15957e-09
4.18314e-10
8.91848e-11
2.05169e-11
9.53821e-12
6.45025e-12
2.62065e-12
2.98967e-13
3.69627e-14
4.99513e-15
3.9618e-16
2.57223e-17
1.43645e-18
6.73e-20
2.61634e-21
8.48316e-23
2.31125e-24
5.32761e-26
1.04425e-27
1.75402e-29
2.5366e-31
3.18087e-33
3.49795e-35
3.42834e-37
3.10995e-39
3.13345e-41
9.87403e-43
1.3144e-43
2.42655e-44
5.05255e-45
1.18531e-45
3.13894e-46
9.32508e-47
3.04636e-47
1.04777e-47
3.39179e-48
9.26503e-49
2.02867e-48
3.02266e-53
2.66044e-53
6.10071e-53
1.60415e-52
4.41699e-52
1.32798e-51
4.4546e-51
1.68304e-50
7.16868e-50
3.4174e-49
1.78211e-48
9.87629e-48
9.08451e-47
6.60651e-45
1.21752e-42
2.73204e-40
5.82575e-38
2.08935e-35
1.0191e-31
2.84041e-29
2.86043e-27
1.97549e-25
1.04768e-23
4.40941e-22
1.48893e-20
4.04712e-19
9.00202e-18
1.73684e-16
2.70094e-15
2.148e-14
1.79721e-13
1.23049e-12
2.65314e-12
4.16377e-12
1.25245e-11
7.40486e-11
3.44415e-10
4.80796e-10
2.95261e-10
5.20586e-11
4.47189e-10
9.78558e-10
9.61083e-10
3.41325e-10
7.09256e-11
1.6139e-11
6.44853e-12
3.71476e-12
1.32595e-12
1.40893e-13
2.00855e-14
2.29017e-15
1.66245e-16
9.90138e-18
5.07065e-19
2.1674e-20
7.67525e-22
2.26686e-23
5.62004e-25
1.18094e-26
2.11223e-28
3.24767e-30
4.30639e-32
4.95504e-34
4.97262e-36
4.3798e-38
3.42962e-40
2.519e-42
3.29179e-44
3.01867e-45
5.48499e-46
1.1406e-46
2.67185e-47
7.06576e-48
2.09729e-48
6.85009e-49
2.35572e-49
7.62294e-50
2.13611e-50
4.36437e-50
5.98388e-55
6.14277e-55
1.24111e-54
3.01029e-54
7.97869e-54
2.34739e-53
7.74526e-53
2.88321e-52
1.21042e-51
5.67934e-51
2.88871e-50
1.60915e-49
3.64031e-48
6.38217e-46
1.25061e-43
3.06846e-41
6.51057e-39
1.4705e-36
4.35185e-33
3.36902e-30
4.91449e-28
4.0857e-26
2.50245e-24
1.19463e-22
4.52913e-21
1.37313e-19
3.37489e-18
7.12596e-17
1.24491e-15
1.10127e-14
1.12729e-13
8.26077e-13
1.90882e-12
3.26327e-12
1.0485e-11
6.07987e-11
2.40818e-10
2.90533e-10
1.61788e-10
3.42503e-11
3.27478e-10
7.56029e-10
7.82189e-10
3.12647e-10
6.40892e-11
1.34368e-11
4.45545e-12
2.21083e-12
7.1446e-13
7.1375e-14
1.06959e-14
1.03543e-15
6.87964e-17
3.75584e-18
1.7557e-19
6.8181e-21
2.19099e-22
5.86705e-24
1.31866e-25
2.50823e-27
4.06126e-29
5.65498e-31