/*--------------------------------*- C++ -*----------------------------------*\
| =========                 |                                                 |
| \\      /  F ield         | OpenFOAM: The Open Source CFD Toolbox           |
|  \\    /   O peration     | Version:  2412                                  |
|   \\  /    A nd           | Website:  www.openfoam.com                      |
|    \\/     M anipulation  |                                                 |
\*---------------------------------------------------------------------------*/
FoamFile
{
    version     2.0;
    format      ascii;
    arch        "LSB;label=32;scalar=64";
    class       surfaceScalarField;
    location    "5.7";
    object      alphaPhi0.water;
}
// * * * * * * * * * * * * * * * * * * * * * * * * * * * * * * * * * * * * * //

dimensions      [0 3 -1 0 0 0 0];

oriented        oriented;

internalField   nonuniform List<scalar> 
12640
(
-2.55359e-05
2.55358e-05
-4.59873e-05
2.0452e-05
-6.71579e-05
2.1171e-05
-8.79826e-05
2.08249e-05
-0.000107541
1.95591e-05
-0.000125365
1.78237e-05
-0.000141221
1.58566e-05
-0.000154952
1.37315e-05
-0.000166446
1.1495e-05
-0.000175587
9.14186e-06
-0.000182339
6.75241e-06
-0.000186677
4.33831e-06
-0.000188682
2.00464e-06
-0.00018854
-1.41093e-07
-0.000186265
-2.27562e-06
-0.000181987
-4.27755e-06
-0.000175747
-6.23988e-06
-0.000167682
-8.0659e-06
-0.000157953
-9.7292e-06
-0.000146782
-1.11715e-05
-0.000134365
-1.24172e-05
-0.000121073
-1.32929e-05
-0.000107181
-1.38918e-05
-9.3132e-05
-1.405e-05
-7.92929e-05
-1.38397e-05
-6.60458e-05
-1.32477e-05
-5.36673e-05
-1.23792e-05
-4.23637e-05
-1.13043e-05
-3.23966e-05
-9.96743e-06
-2.38298e-05
-8.56672e-06
-1.68387e-05
-6.99087e-06
-1.16091e-05
-5.2291e-06
-8.29193e-06
-3.31659e-06
-6.56523e-06
-1.72597e-06
-6.00545e-06
-5.58888e-07
-6.23859e-06
2.34049e-07
-6.86336e-06
6.25747e-07
-7.73045e-06
8.68309e-07
-8.60885e-06
8.79909e-07
-9.32333e-06
7.16107e-07
-9.78661e-06
4.64864e-07
-9.96437e-06
1.79238e-07
-9.79006e-06
-1.72954e-07
-9.20425e-06
-5.84558e-07
-8.01323e-06
-1.18979e-06
-6.03747e-06
-1.97453e-06
-3.0038e-06
-3.03231e-06
1.42727e-06
-4.42975e-06
7.57339e-06
-6.14507e-06
1.54515e-05
-7.8771e-06
2.47711e-05
-9.31884e-06
3.53254e-05
-1.0554e-05
4.68654e-05
-1.15399e-05
5.91942e-05
-1.23286e-05
7.21169e-05
-1.29226e-05
8.53713e-05
-1.32549e-05
9.85855e-05
-1.32154e-05
0.000111339
-1.2755e-05
0.000123283
-1.19449e-05
0.000134091
-1.08088e-05
0.000143514
-9.4233e-06
0.000151386
-7.87296e-06
0.000157626
-6.24125e-06
0.000162129
-4.50506e-06
0.000164876
-2.74798e-06
0.000165844
-9.69396e-07
0.000165033
8.09716e-07
0.000162415
2.61705e-06
0.000157902
4.51283e-06
0.000151422
6.47841e-06
0.000143059
8.36268e-06
0.0001328
1.02572e-05
0.000120783
1.20162e-05
0.000107006
1.37773e-05
9.16487e-05
1.53575e-05
7.49069e-05
1.67418e-05
5.7088e-05
1.7819e-05
3.9006e-05
1.80828e-05
2.17493e-05
1.72577e-05
2.17505e-05
-2.72481e-05
5.27842e-05
-4.91854e-05
4.23896e-05
-7.17633e-05
4.37493e-05
-9.36398e-05
4.27019e-05
-0.000113797
3.97166e-05
-0.000131804
3.58322e-05
-0.000147477
3.15308e-05
-0.000160628
2.68826e-05
-0.000171299
2.21674e-05
-0.000179465
1.73084e-05
-0.000185293
1.25806e-05
-0.000188902
7.94835e-06
-0.00019028
3.38264e-06
-0.00018938
-1.0403e-06
-0.000186314
-5.34185e-06
-0.000181227
-9.36556e-06
-0.000174219
-1.32473e-05
-0.000165415
-1.68711e-05
-0.000154975
-2.01696e-05
-0.000143025
-2.31219e-05
-0.000129816
-2.56267e-05
-0.000115561
-2.75493e-05
-0.000100497
-2.89566e-05
-8.49351e-05
-2.96127e-05
-6.91888e-05
-2.95872e-05
-5.36075e-05
-2.88302e-05
-3.86011e-05
-2.73862e-05
-2.47187e-05
-2.5187e-05
-1.22809e-05
-2.24052e-05
-1.63728e-06
-1.92101e-05
6.88883e-06
-1.55164e-05
1.32024e-05
-1.15416e-05
1.74385e-05
-7.55142e-06
1.9368e-05
-3.65412e-06
1.90067e-05
-1.96067e-07
1.64338e-05
2.80897e-06
1.18324e-05
5.22966e-06
5.68998e-06
7.01331e-06
-1.52068e-06
8.09313e-06
-9.19624e-06
8.39416e-06
-1.67831e-05
8.0541e-06
-2.36757e-05
7.07403e-06
-2.92808e-05
5.43409e-06
-3.30672e-05
3.20355e-06
-3.46631e-05
4.07846e-07
-3.38287e-05
-2.80752e-06
-3.04927e-05
-6.36703e-06
-2.4825e-05
-1.00963e-05
-1.71366e-05
-1.3833e-05
-7.53223e-06
-1.74817e-05
3.86932e-06
-2.07211e-05
1.69513e-05
-2.36371e-05
3.11504e-05
-2.57407e-05
4.61861e-05
-2.73665e-05
6.15504e-05
-2.82891e-05
7.68075e-05
-2.85138e-05
9.15866e-05
-2.79957e-05
0.000105626
-2.67949e-05
0.000118636
-2.49546e-05
0.000130403
-2.25772e-05
0.000140751
-1.97721e-05
0.000149548
-1.66704e-05
0.000156689
-1.33826e-05
0.000162093
-9.90908e-06
0.00016564
-6.29507e-06
0.000167287
-2.61727e-06
0.000166945
1.1499e-06
0.000164716
4.84481e-06
0.000160686
8.54212e-06
0.000154838
1.23249e-05
0.000147128
1.60703e-05
0.000137526
1.98591e-05
0.0001259
2.36421e-05
0.000112277
2.74006e-05
9.67613e-05
3.0874e-05
7.94894e-05
3.40141e-05
6.07864e-05
3.65232e-05
4.16576e-05
3.72126e-05
2.32823e-05
3.56329e-05
4.50324e-05
-2.74936e-05
8.02784e-05
-4.95688e-05
6.44649e-05
-7.24171e-05
6.65977e-05
-9.47501e-05
6.50352e-05
-0.000115386
6.03528e-05
-0.000133853
5.42997e-05
-0.000149959
4.76377e-05
-0.000163563
4.04874e-05
-0.000174679
3.32833e-05
-0.000183277
2.59075e-05
-0.000189458
1.87624e-05
-0.000193241
1.1732e-05
-0.000194758
4.89992e-06
-0.000194005
-1.79245e-06
-0.000191079
-8.26805e-06
-0.000186047
-1.43969e-05
-0.000179006
-2.02887e-05
-0.000170062
-2.58151e-05
-0.00015937
-3.08611e-05
-0.000147099
-3.53934e-05
-0.0001335
-3.92254e-05
-0.000118761
-4.2289e-05
-0.000103351
-4.43675e-05
-8.74143e-05
-4.55502e-05
-7.13906e-05
-4.56112e-05
-5.57007e-05
-4.45203e-05
-4.074e-05
-4.23472e-05
-2.68778e-05
-3.90494e-05
-1.45254e-05
-3.47575e-05
-4.15714e-06
-2.9578e-05
4.24084e-06
-2.39137e-05
1.04245e-05
-1.77246e-05
1.45023e-05
-1.16284e-05
1.63391e-05
-5.48956e-06
1.60158e-05
1.28887e-07
1.36523e-05
5.17411e-06
9.46394e-06
9.41974e-06
3.97479e-06
1.2504e-05
-2.49334e-06
1.45625e-05
-9.3451e-06
1.5247e-05
-1.60729e-05
1.47829e-05
-2.21244e-05
1.31263e-05
-2.69605e-05
1.02708e-05
-3.01532e-05
6.39665e-06
-3.13695e-05
1.62427e-06
-3.04033e-05
-3.77411e-06
-2.70555e-05
-9.71579e-06
-2.14958e-05
-1.56577e-05
-1.38392e-05
-2.14914e-05
-4.28469e-06
-2.70378e-05
7.10479e-06
-3.21119e-05
1.99797e-05
-3.65131e-05
3.42275e-05
-3.99891e-05
4.93185e-05
-4.24575e-05
6.47937e-05
-4.37632e-05
8.02586e-05
-4.39766e-05
9.53583e-05
-4.30939e-05
0.000109714
-4.11501e-05
0.000122978
-3.82167e-05
0.000134963
-3.45605e-05
0.000145427
-3.02325e-05
0.000154233
-2.54742e-05
0.000161237
-2.03854e-05
0.00016636
-1.50316e-05
0.0001696
-9.53561e-06
0.000170958
-3.97505e-06
0.000170448
1.65927e-06
0.000168052
7.24095e-06
0.000163797
1.27965e-05
0.000157665
1.84562e-05
0.00014962
2.41149e-05
0.00013965
2.98288e-05
0.000127642
3.565e-05
0.000113748
4.12943e-05
9.79112e-05
4.67101e-05
8.02729e-05
5.16521e-05
6.13053e-05
5.54908e-05
4.20566e-05
5.64599e-05
2.35666e-05
5.41247e-05
6.85961e-05
-2.89798e-05
0.000109258
-5.19666e-05
8.74516e-05
-7.57514e-05
9.03824e-05
-9.92208e-05
8.85047e-05
-0.000120848
8.19802e-05
-0.000140047
7.34991e-05
-0.000156646
6.42367e-05
-0.000170517
5.43591e-05
-0.000181602
4.43686e-05
-0.000190229
3.45353e-05
-0.000196278
2.48116e-05
-0.00019994
1.53954e-05
-0.000201257
6.21718e-06
-0.000200302
-2.74707e-06
-0.000197157
-1.14116e-05
-0.000191899
-1.96543e-05
-0.000184574
-2.76139e-05
-0.00017527
-3.51184e-05
-0.000164116
-4.20144e-05
-0.000151273
-4.8236e-05
-0.000136958
-5.35398e-05
-0.000121464
-5.77818e-05
-0.000105037
-6.07943e-05
-8.81554e-05
-6.24311e-05
-7.12565e-05
-6.25096e-05
-5.46705e-05
-6.11059e-05
-3.89378e-05
-5.80794e-05
-2.4453e-05
-5.35335e-05
-1.16947e-05
-4.7515e-05
-8.38863e-07
-4.04331e-05
7.72698e-06
-3.24788e-05
1.38599e-05
-2.38564e-05
1.73713e-05
-1.51386e-05
1.84789e-05
-6.59572e-06
1.72849e-05
1.32408e-06
1.4086e-05
8.37408e-06
9.34963e-06
1.4157e-05
3.43787e-06
1.84167e-05
-3.12645e-06
2.1128e-05
-9.97846e-06
2.21004e-05
-1.66126e-05
2.14188e-05
-2.26222e-05
1.91379e-05
-2.75737e-05
1.52244e-05
-3.10564e-05
9.88136e-06
-3.2708e-05
3.27756e-06
-3.22291e-05
-4.25142e-06
-2.94738e-05
-1.2469e-05
-2.42585e-05
-2.08704e-05
-1.66169e-05
-2.913e-05
-6.77606e-06
-3.68756e-05
5.11621e-06
-4.40017e-05
1.85376e-05
-4.99328e-05
3.33703e-05
-5.48203e-05
4.91487e-05
-5.82349e-05
6.54576e-05
-6.0072e-05
8.18058e-05
-6.03257e-05
9.77534e-05
-5.90427e-05
0.000112892
-5.62896e-05
0.000126909
-5.22353e-05
0.000139466
-4.712e-05
0.000150368
-4.11358e-05
0.000159432
-3.45394e-05
0.000166565
-2.75187e-05
0.000171744
-2.02095e-05
0.000174995
-1.27857e-05
0.000176379
-5.35811e-06
0.000175844
2.1947e-06
0.00017348
9.6048e-06
0.000169212
1.70651e-05
0.000163189
2.44788e-05
0.000155202
3.21022e-05
0.000145142
3.98891e-05
0.000133041
4.77519e-05
0.000118731
5.56054e-05
0.000102293
6.31497e-05
8.38847e-05
7.00626e-05
6.40369e-05
7.53401e-05
4.39568e-05
7.6541e-05
2.4783e-05
7.33012e-05
9.33792e-05
-3.11354e-05
0.000140394
-5.53085e-05
0.000111624
-8.06049e-05
0.000115679
-0.000105748
0.000113648
-0.000128822
0.000105054
-0.000148993
9.36707e-05
-0.000166135
8.13791e-05
-0.000180198
6.84219e-05
-0.000191373
5.55443e-05
-0.000199777
4.29408e-05
-0.000205591
3.06263e-05
-0.000208981
1.87859e-05
-0.000210045
7.28166e-06
-0.000208823
-3.96764e-06
-0.000205367
-1.48666e-05
-0.000199707
-2.53139e-05
-0.000191899
-3.54206e-05
-0.000181992
-4.5023e-05
-0.000170117
-5.3888e-05
-0.000156359
-6.19925e-05
-0.000140976
-6.89218e-05
-0.000124231
-7.45258e-05
-0.00010642
-7.86038e-05
-8.80475e-05
-8.08032e-05
-6.95055e-05
-8.10508e-05
-5.13194e-05
-7.92912e-05
-3.40569e-05
-7.5341e-05
-1.81604e-05
-6.94293e-05
-4.14255e-06
-6.1532e-05
7.61807e-06
-5.21929e-05
1.66361e-05
-4.14957e-05
2.29279e-05
-3.01472e-05
2.62163e-05
-1.84261e-05
2.65945e-05
-6.97312e-06
2.43548e-05
3.56475e-06
1.985e-05
1.28801e-05
1.35827e-05
2.04256e-05
6.01688e-06
2.59839e-05
-2.20051e-06
2.9347e-05
-1.07014e-05
3.06032e-05
-1.89246e-05
2.9644e-05
-2.64775e-05
2.66928e-05
-3.28397e-05
2.15885e-05
-3.75649e-05
1.4608e-05
-4.02093e-05
5.92307e-06
-4.04641e-05
-3.99643e-06
-3.80212e-05
-1.49124e-05
-3.27566e-05
-2.61363e-05
-2.47715e-05
-3.71171e-05
-1.41934e-05
-4.74553e-05
-1.35872e-06
-5.68371e-05
1.34264e-05
-6.47189e-05
2.98351e-05
-7.12312e-05
4.71009e-05
-7.55042e-05
6.49748e-05
-7.79491e-05
8.28341e-05
-7.8188e-05
0.000100212
-7.64225e-05
0.000116641
-7.27207e-05
0.000131754
-6.73486e-05
0.000145218
-6.05838e-05
0.000156787
-5.27031e-05
0.000166309
-4.40593e-05
0.000173729
-3.49371e-05
0.000179029
-2.5509e-05
0.000182329
-1.60848e-05
0.000183615
-6.64283e-06
0.000183136
2.67391e-06
0.000180791
1.19514e-05
0.000176672
2.11853e-05
0.000170709
3.04438e-05
0.000162807
4.00053e-05
0.000152813
4.98842e-05
0.000140575
5.99908e-05
0.000125883
7.02972e-05
0.000108709
8.03239e-05
8.91754e-05
8.95958e-05
6.79711e-05
9.65428e-05
4.66738e-05
9.7839e-05
2.65203e-05
9.34511e-05
0.000119901
-3.38437e-05
0.000174237
-5.96623e-05
0.000137442
-8.70391e-05
0.000143055
-0.000114384
0.000140992
-0.000139365
0.000130036
-0.000160765
0.000115071
-0.000178531
9.91454e-05
-0.000192693
8.25846e-05
-0.000203714
6.65657e-05
-0.000211791
5.10193e-05
-0.000217333
3.61683e-05
-0.000220376
2.18296e-05
-0.000221093
8.00028e-06
-0.000219495
-5.5652e-06
-0.000215661
-1.86983e-05
-0.000209524
-3.14496e-05
-0.000201255
-4.36886e-05
-0.000190696
-5.55808e-05
-0.000177906
-6.66771e-05
-0.000163005
-7.6893e-05
-0.000146241
-8.56844e-05
-0.000127828
-9.29376e-05
-0.000108218
-9.82125e-05
-8.78229e-05
-0.000101197
-6.71923e-05
-0.000101681
-4.69001e-05
-9.95828e-05
-2.75754e-05
-9.46655e-05
-9.82117e-06
-8.71833e-05
5.88493e-06
-7.7238e-05
1.88709e-05
-6.51788e-05
2.87905e-05
-5.14151e-05
3.5332e-05
-3.66882e-05
3.83758e-05
-2.14692e-05
3.80103e-05
-6.60678e-06
3.44696e-05
7.10595e-06
2.82645e-05
1.90854e-05
1.98799e-05
2.88104e-05
1.00478e-05
3.58163e-05
-6.24476e-07
4.00195e-05
-1.15889e-05
4.15677e-05
-2.22145e-05
4.02693e-05
-3.20576e-05
3.65351e-05
-4.04918e-05
3.00213e-05
-4.69027e-05
2.10172e-05
-5.07878e-05
9.80655e-06
-5.18922e-05
-2.89345e-06
-4.97481e-05
-1.70573e-05
-4.44133e-05
-3.14712e-05
-3.5816e-05
-4.57147e-05
-2.41775e-05
-5.90953e-05
-9.85745e-06
-7.11602e-05
6.85801e-06
-8.14378e-05
2.49607e-05
-8.93364e-05
4.43439e-05
-9.48882e-05
6.42705e-05
-9.78741e-05
8.41961e-05
-9.81112e-05
0.000103464
-9.56873e-05
0.000121614
-9.0869e-05
0.000138193
-8.39261e-05
0.000152784
-7.51738e-05
0.000165164
-6.50822e-05
0.000175202
-5.40964e-05
0.000182891
-4.26262e-05
0.000188321
-3.09378e-05
0.000191582
-1.93447e-05
0.000192872
-7.93118e-06
0.000192245
3.30278e-06
0.000189889
1.43082e-05
0.000185825
2.52495e-05
0.000180034
3.62349e-05
0.000172381
4.76582e-05
0.000162651
5.96128e-05
0.000150408
7.22322e-05
0.000135287
8.54176e-05
0.00011719
9.84199e-05
9.61857e-05
0.000110598
7.30884e-05
0.000119637
5.02001e-05
0.000120727
2.86897e-05
0.000114958
0.00014859
-3.68866e-05
0.000211123
-6.49077e-05
0.000165463
-9.47682e-05
0.000172916
-0.000125532
0.000171756
-0.000152954
0.000157458
-0.000175949
0.000138066
-0.000194264
0.000117461
-0.000208325
9.66471e-05
-0.00021882
7.70605e-05
-0.000226374
5.8574e-05
-0.00023136
4.11558e-05
-0.000234016
2.44864e-05
-0.000234373
8.35862e-06
-0.000232427
-7.51103e-06
-0.000228186
-2.29388e-05
-0.000221706
-3.79294e-05
-0.000212804
-5.25899e-05
-0.000201493
-6.68905e-05
-0.000187729
-8.04403e-05
-0.00017146
-9.31607e-05
-0.000152994
-0.00010415
-0.000132589
-0.000113342
-0.000110656
-0.000120145
-8.7786e-05
-0.000124067
-6.44737e-05
-0.000124992
-4.14303e-05
-0.000122626
-1.93957e-05
-0.0001167
7.89788e-07
-0.000107369
1.85692e-05
-9.50174e-05
3.32667e-05
-7.98762e-05
4.4318e-05
-6.24663e-05
5.12738e-05
-4.36439e-05
5.4028e-05
-2.42235e-05
5.25318e-05
-5.11082e-06
4.7332e-05
1.23054e-05
3.88733e-05
2.75439e-05
2.78383e-05
3.98455e-05
1.50147e-05
4.86402e-05
1.27244e-06
5.37622e-05
-1.27226e-05
5.55633e-05
-2.63559e-05
5.39033e-05
-3.90564e-05
4.92373e-05
-5.01052e-05
4.10727e-05
-5.87602e-05
2.9676e-05
-6.44228e-05
1.54738e-05
-6.65077e-05
-8.03837e-07
-6.49005e-05
-1.86614e-05
-5.92804e-05
-3.70898e-05
-4.99e-05
-5.50949e-05
-3.69049e-05
-7.209e-05
-2.07655e-05
-8.72978e-05
-2.01971e-06
-0.00010018
1.87579e-05
-0.000110111
4.08446e-05
-0.000116973
6.35514e-05
-0.000120581
8.60801e-05
-0.000120642
0.000107824
-0.000117433
0.000128088
-0.000111135
0.000146438
-0.000102277
0.000162411
-9.11472e-05
0.000175791
-7.84609e-05
0.000186373
-6.46777e-05
0.000194303
-5.05549e-05
0.000199686
-3.63197e-05
0.000202753
-2.24114e-05
0.00020383
-9.00727e-06
0.00020307
4.06431e-06
0.000200655
1.67241e-05
0.000196766
2.91398e-05
0.00019129
4.17129e-05
0.000184096
5.48535e-05
0.000174782
6.89285e-05
0.000162775
8.42407e-05
0.000147489
0.000100706
0.000128094
0.000117816
0.000105101
0.000133592
7.94862e-05
0.000145254
5.43294e-05
0.000145883
3.12228e-05
0.000138067
0.000179813
-4.00065e-05
0.000251129
-7.02972e-05
0.000195753
-0.000103984
0.000206603
-0.000139606
0.000207379
-0.000170742
0.000188594
-0.000195418
0.000162743
-0.000213851
0.000135895
-0.000227352
0.000110149
-0.000236902
8.66113e-05
-0.000243548
6.52206e-05
-0.000247852
4.54614e-05
-0.000249928
2.65622e-05
-0.000249877
8.30816e-06
-0.000247552
-9.8354e-06
-0.000243026
-2.74642e-05
-0.000236115
-4.48395e-05
-0.000226752
-6.19525e-05
-0.00021469
-7.89511e-05
-0.000199726
-9.54043e-05
-0.000182014
-0.000110873
-0.000161543
-0.000124622
-0.000138697
-0.000136189
-0.000113989
-0.000144853
-8.78503e-05
-0.000150206
-6.12493e-05
-0.000151593
-3.48364e-05
-0.000149039
-9.55605e-06
-0.000141981
1.40471e-05
-0.000130972
3.4714e-05
-0.000115685
5.16289e-05
-9.67915e-05
6.40727e-05
-7.49102e-05
7.15019e-05
-5.10733e-05
7.38087e-05
-2.65301e-05
7.11135e-05
-2.41502e-06
6.36484e-05
1.97717e-05
5.22473e-05
3.89466e-05
3.77469e-05
5.43476e-05
2.11907e-05
6.51978e-05
3.63864e-06
7.13155e-05
-1.42406e-05
7.34437e-05
-3.15554e-05
7.12195e-05
-4.77284e-05
6.54118e-05
-6.20785e-05
5.5424e-05
-7.3628e-05
4.12256e-05
-8.15254e-05
2.337e-05
-8.51255e-05
2.79463e-06
-8.40668e-05
-1.97212e-05
-7.82293e-05
-4.29269e-05
-6.77365e-05
-6.55857e-05
-5.29586e-05
-8.68654e-05
-3.44038e-05
-0.000105851
-1.27749e-05
-0.000121809
1.12043e-05
-0.000134091
3.66647e-05
-0.000142436
6.27484e-05
-0.000146666
8.86003e-05
-0.000146495
0.000113409
-0.000142242
0.00013643
-0.000134155
0.000156976
-0.000122822
0.000174622
-0.000108794
0.000189076
-9.29152e-05
0.00020023
-7.5833e-05
0.00020824
-5.8565e-05
0.000213297
-4.13764e-05
0.000215919
-2.50334e-05
0.000216579
-9.66566e-06
0.000215476
5.16796e-06
0.000212998
1.92043e-05
0.000209163
3.29752e-05
0.000204169
4.67081e-05
0.000197795
6.1228e-05
0.000189588
7.71354e-05
0.000178547
9.52819e-05
0.000163186
0.000116066
0.000142528
0.000138473
0.0001166
0.000159518
8.66714e-05
0.000175183
5.8638e-05
0.000173913
3.36835e-05
0.000163022
0.000213495
-4.41516e-05
0.000295281
-7.76975e-05
0.0002293
-0.000115106
0.000244011
-0.000157383
0.000249657
-0.000193543
0.000224756
-0.000220296
0.000189497
-0.000238606
0.000154205
-0.000250341
0.000121885
-0.000257992
9.42631e-05
-0.000263114
7.03431e-05
-0.000266501
4.88485e-05
-0.000268063
2.81254e-05
-0.000267503
7.74892e-06
-0.000264817
-1.25216e-05
-0.000259964
-3.23165e-05
-0.000252905
-5.18986e-05
-0.000243256
-7.16014e-05
-0.000230613
-9.1595e-05
-0.000214545
-0.000111473
-0.00019507
-0.000130348
-0.000172244
-0.000147449
-0.000146455
-0.000161978
-0.000118255
-0.000173053
-8.83907e-05
-0.000180071
-5.75195e-05
-0.000182465
-2.68379e-05
-0.000179721
2.98521e-06
-0.000171804
3.06051e-05
-0.000158592
5.49014e-05
-0.000139981
7.47012e-05
-0.000116591
8.91128e-05
-8.93212e-05
9.7357e-05
-5.93167e-05
9.91346e-05
-2.83071e-05
9.45885e-05
2.13163e-06
8.42383e-05
3.01222e-05
6.90366e-05
5.41486e-05
5.01266e-05
7.32575e-05
2.88143e-05
8.65093e-05
6.44665e-06
9.36819e-05
-1.62383e-05
9.6127e-05
-3.7943e-05
9.29222e-05
-5.86141e-05
8.60805e-05
-7.7139e-05
7.39465e-05
-9.23795e-05
5.64645e-05
-0.000103171
3.41608e-05
-0.000108629
8.2532e-06
-0.000108312
-2.00366e-05
-0.000102083
-4.91543e-05
-9.01007e-05
-7.75679e-05
-7.2992e-05
-0.000103975
-5.14063e-05
-0.000127438
-2.61412e-05
-0.000147075
1.82303e-06
-0.000162056
3.16112e-05
-0.000172223
6.20641e-05
-0.000177118
9.21009e-05
-0.00017653
0.000120704
-0.000170845
0.000147007
-0.00016046
0.000170233
-0.000146049
0.00018982
-0.000128383
0.000205458
-0.000108554
0.000217117
-8.7493e-05
0.000224916
-6.63638e-05
0.000229314
-4.57756e-05
0.000231103
-2.68232e-05
0.000230897
-9.46066e-06
0.000229234
6.82979e-06
0.000226618
2.18185e-05
0.000222983
3.66085e-05
0.000218412
5.12784e-05
0.000213467
6.6171e-05
0.000207315
8.32867e-05
0.000198341
0.000104255
0.000183635
0.00013077
0.000161287
0.000160819
0.000131011
0.000189794
9.50759e-05
0.000211115
6.3582e-05
0.000205407
3.63977e-05
0.000190205
0.000249892
-4.90708e-05
0.000344352
-9.21194e-05
0.000272351
-0.000133835
0.000285728
-0.000182114
0.000297937
-0.000223644
0.000266288
-0.00025221
0.000218064
-0.000268998
0.000170995
-0.000277417
0.000130306
-0.000281636
9.8482e-05
-0.000284647
7.33548e-05
-0.000286779
5.0981e-05
-0.000287657
2.90033e-05
-0.000286672
6.76337e-06
-0.000283645
-1.55497e-05
-0.000278829
-3.7133e-05
-0.000271867
-5.88608e-05
-0.000262218
-8.12505e-05
-0.000249212
-0.000104601
-0.000232249
-0.000128435
-0.000210941
-0.000151657
-0.000185475
-0.000172915
-0.000156235
-0.000191218
-0.000123914
-0.000205374
-8.93519e-05
-0.000214633
-5.34748e-05
-0.000218342
-1.74221e-05
-0.000215773
1.78246e-05
-0.00020705
5.07556e-05
-0.000191522
7.98754e-05
-0.0001691
0.000103666
-0.000140381
0.000120649
-0.000106305
0.000130019
-6.86878e-05
0.000131231
-2.95195e-05
0.000124345
9.01837e-06
0.000110308
4.41589e-05
9.01862e-05
7.42708e-05
6.55546e-05
9.78894e-05
3.81575e-05
0.000113907
9.73889e-06
0.000122102
-1.8111e-05
0.000123979
-4.52851e-05
0.000120098
-7.18803e-05
0.000112677
-9.60799e-05
9.81475e-05
-0.000116055
7.64408e-05
-0.000130492
4.85986e-05
-0.000138317
1.60779e-05
-0.000138823
-1.95299e-05
-0.000131935
-5.6043e-05
-0.000118093
-9.14111e-05
-9.79488e-05
-0.00012412
-7.24706e-05
-0.000152916
-4.26291e-05
-0.000176915
-9.48869e-06
-0.000195196
2.56384e-05
-0.00020735
6.14622e-05
-0.000212943
9.66884e-05
-0.000211756
0.000130016
-0.000204172
0.000160314
-0.000190758
0.000186713
-0.000172447
0.000208587
-0.000150258
0.000225476
-0.000125442
0.000237395
-9.94121e-05
0.000244536
-7.35055e-05
0.000247627
-4.88679e-05
0.000247926
-2.71229e-05
0.000246568
-8.10324e-06
0.000243966
9.43228e-06
0.000241042
2.47428e-05
0.000237228
4.04231e-05
0.000233576
5.49306e-05
0.000230671
6.90767e-05
0.000227927
8.60317e-05
0.000222769
0.000109414
0.000209776
0.000143762
0.000185675
0.00018492
0.000150183
0.000225287
0.000108076
0.000253221
7.38517e-05
0.000239633
4.07993e-05
0.000223256
0.000290693
-4.02874e-05
0.00038464
-0.000107052
0.000339117
-0.000169097
0.000347775
-0.000226601
0.000355442
-0.000271549
0.000311237
-0.000296393
0.000242909
-0.000307191
0.000181794
-0.000308295
0.00013141
-0.000306696
9.68839e-05
-0.000306407
7.30651e-05
-0.000307493
5.2067e-05
-0.000308592
3.01018e-05
-0.00030781
5.98115e-06
-0.000305017
-1.83436e-05
-0.000300264
-4.18865e-05
-0.000293619
-6.55061e-05
-0.000284326
-9.05452e-05
-0.000271268
-0.000117659
-0.00025328
-0.000146425
-0.000229977
-0.000174961
-0.000201449
-0.000201444
-0.000168241
-0.000224427
-0.000131141
-0.000242474
-9.11895e-05
-0.000254584
-4.92219e-05
-0.00026031
-6.47599e-06
-0.000258518
3.56235e-05
-0.000249149
7.53837e-05
-0.000231282
0.000110915
-0.000204631
0.000139897
-0.000169362
0.000160523
-0.000126929
0.000171554
-7.97178e-05
0.000172193
-3.01565e-05
0.000162587
1.86252e-05
0.000143598
6.31488e-05
0.000116767
0.000101103
8.41545e-05
0.000130502
4.84635e-05
0.000149598
1.2938e-05
0.000157627
-1.96602e-05
0.000156576
-5.2027e-05
0.000152463
-8.62565e-05
0.000146905
-0.00011902
0.000130909
-0.000146037
0.000103455
-0.00016546
6.80201e-05
-0.000176207
2.68234e-05
-0.000177619
-1.81192e-05
-0.000169723
-6.39398e-05
-0.000153129
-0.000108005
-0.000128922
-0.000148326
-9.84045e-05
-0.000183433
-6.28332e-05
-0.000212486
-2.3379e-05
-0.000234649
1.8439e-05
-0.000249167
6.09706e-05
-0.000255473
0.000102541
-0.000253327
0.000141561
-0.000243192
0.000176688
-0.000225884
0.000206872
-0.000202632
0.000231347
-0.000174732
0.000249654
-0.000143748
0.00026171
-0.000111468
0.000267892
-7.96865e-05
0.000269177
-5.01529e-05
0.000267177
-2.51227e-05
0.000263568
-4.49469e-06
0.000259875
1.31253e-05
0.000255634
2.89826e-05
0.000251556
4.45007e-05
0.00024825
5.82359e-05
0.000248099
6.92267e-05
0.000251735
8.23946e-05
0.000254689
0.000106458
0.000247041
0.00015141
0.000223603
0.000208358
0.000184106
0.000264783
0.000135002
0.000302326
8.9393e-05
0.000285241
3.76542e-05
0.000274995
0.000328348
-7.655e-06
0.000392014
-7.20083e-05
0.000402922
-0.000203422
0.00047919
-0.000302674
0.000454695
-0.000349351
0.000357916
-0.000365708
0.000259267
-0.000362018
0.000178104
-0.000346678
0.00011607
-0.000334639
8.48455e-05
-0.000330627
6.90526e-05
-0.000332841
5.42805e-05
-0.000336505
3.37652e-05
-0.000337589
7.06426e-06
-0.000335186
-2.07468e-05
-0.000330659
-4.64152e-05
-0.000324419
-7.17458e-05
-0.000315046
-9.99192e-05
-0.00030094
-0.000131765
-0.000281188
-0.000166178
-0.000255186
-0.000200963
-0.000222651
-0.000233979
-0.000184277
-0.000262801
-0.00014101
-0.00028574
-9.4174e-05
-0.00030142
-4.48256e-05
-0.000309657
6.02645e-06
-0.000309369
5.66417e-05
-0.000299762
0.00010533
-0.000279968
0.000149216
-0.000248515
0.000185453
-0.000205598
0.00021127
-0.000152745
0.000224778
-9.32252e-05
0.00022493
-3.03097e-05
0.000211588
3.19664e-05
0.000185504
8.9231e-05
0.000148203
0.000138402
0.000103509
0.000175195
5.70177e-05
0.000196089
1.45329e-05
0.000200111
-2.16992e-05
0.000192808
-5.78781e-05
0.000188643
-0.00010017
0.000189198
-0.000143914
0.000174654
-0.000181867
0.000141407
-0.000209377
9.55291e-05
-0.000224333
4.17787e-05
-0.000226807
-1.56442e-05
-0.000217075
-7.36697e-05
-0.000196577
-0.000128502
-0.000167018
-0.000177885
-0.000130034
-0.000220417
-8.72637e-05
-0.000255256
-4.00494e-05
-0.000281863
9.88351e-06
-0.0002991
6.05448e-05
-0.000306134
0.00011024
-0.000303021
0.000156828
-0.000289778
0.000198504
-0.000267558
0.000233721
-0.000237848
0.000261546
-0.000202557
0.000281838
-0.00016404
0.000294738
-0.000124368
0.000300426
-8.53753e-05
0.000300026
-4.97541e-05
0.000295138
-2.02345e-05
0.000288599
2.04403e-06
0.000282843
1.8882e-05
0.000276624
3.52027e-05
0.000269777
5.13477e-05
0.000265135
6.28792e-05
0.000267806
6.65555e-05
0.000282569
6.76319e-05
0.000304186
8.48411e-05
0.000309408
0.000146188
0.00028962
0.000228145
0.000247783
0.000306618
0.000177777
0.000372334
7.88266e-05
0.00038419
8.26607e-06
0.000345403
0.000336381
4.4251e-05
0.000347626
7.40521e-05
0.000371619
-0.00010344
0.0006543
-0.000342964
0.000694221
-0.000445941
0.000460894
-0.000466216
0.000279542
-0.000444076
0.000155964
-0.000396513
6.85075e-05
-0.000364722
5.30556e-05
-0.000358419
6.275e-05
-0.000364989
6.0851e-05
-0.000371987
4.07636e-05
-0.000370828
5.90562e-06
-0.00036535
-2.62241e-05
-0.000362236
-4.95292e-05
-0.000361563
-7.24187e-05
-0.000357528
-0.000103954
-0.000345394
-0.000143899
-0.000324318
-0.000187254
-0.000294696
-0.000230585
-0.0002568
-0.000271874
-0.000211034
-0.000308567
-0.000158992
-0.000337781
-0.000102521
-0.00035789
-4.37237e-05
-0.000368453
1.65717e-05
-0.000369663
7.76468e-05
-0.000360836
0.000137562
-0.000339883
0.000193042
-0.000303995
0.000239897
-0.000252453
0.000273975
-0.000186824
0.00029197
-0.00011122
0.000292015
-3.03553e-05
0.000273294
5.06873e-05
0.000235948
0.000126577
0.000183648
0.000190702
0.000124191
0.000234652
6.64358e-05
0.000253843
1.61194e-05
0.000250427
-2.64186e-05
0.000235345
-6.87332e-05
0.000230956
-0.00011876
0.000239224
-0.000172726
0.000228619
-0.000223066
0.000191748
-0.000262176
0.000134642
-0.000284753
6.43577e-05
-0.000289617
-1.07792e-05
-0.000276371
-8.69149e-05
-0.000248833
-0.000156039
-0.000210575
-0.000216144
-0.000164505
-0.000266487
-0.000112441
-0.00030732
-5.59585e-05
-0.000338346
3.63409e-06
-0.000358692
6.44598e-05
-0.000366959
0.000124681
-0.000363242
0.000181827
-0.000346923
0.000232968
-0.000318699
0.000275495
-0.000280374
0.000308074
-0.000235136
0.000330916
-0.000186882
0.000344128
-0.00013758
0.000346845
-8.80919e-05
0.000338669
-4.15785e-05
0.000323674
-5.23936e-06
0.000309348
1.63707e-05
0.00030288
2.53493e-05
0.00029912
3.8963e-05
0.000291167
5.93011e-05
0.000281019
7.30275e-05
0.000282259
6.53158e-05
0.00031487
3.50205e-05
0.000376448
2.32643e-05
0.000411006
0.00011163
0.000391293
0.000247857
0.000322566
0.000375347
0.000144902
0.000549998
-3.72039e-05
0.000565333
-4.69326e-05
0.000353637
0.000288902
0.000214612
0.000132881
0.00033804
0.000248955
0.000169229
0.000816628
-0.000212109
0.001072
-0.00046389
0.000712676
-0.000547925
0.000363577
-0.000513251
0.000121292
-0.000417917
-2.68268e-05
-0.000356913
-7.94854e-06
-0.000352028
5.78658e-05
-0.000365669
7.44917e-05
-0.000367886
4.29817e-05
-0.00035253
-9.45075e-06
-0.00033657
-4.21829e-05
-0.000339531
-4.65676e-05
-0.000360202
-5.17478e-05
-0.000380838
-8.33169e-05
-0.000386551
-0.000138186
-0.000373575
-0.000200229
-0.000344026
-0.000260133
-0.000301284
-0.000314614
-0.000248441
-0.00036141
-0.000187968
-0.000398254
-0.000121539
-0.000424318
-5.14048e-05
-0.000438588
2.07212e-05
-0.000441789
9.49437e-05
-0.000435059
0.000170419
-0.000415358
0.000242502
-0.000376078
0.000304005
-0.000313956
0.00034924
-0.00023206
0.000373937
-0.000135919
0.000374076
-3.04956e-05
0.000348465
7.62966e-05
0.000299281
0.000175759
0.000234673
0.000255307
0.00016587
0.000303452
9.9762e-05
0.000319949
3.49035e-05
0.000315283
-3.03233e-05
0.00030057
-9.53032e-05
0.000295935
-0.000160556
0.000304477
-0.000224623
0.000292687
-0.000283664
0.00025079
-0.000331221
0.000182198
-0.000360416
9.3552e-05
-0.000365537
-5.65898e-06
-0.000348372
-0.00010408
-0.000311846
-0.000192565
-0.0002624
-0.000265589
-0.000204869
-0.000324019
-0.00014115
-0.000371039
-7.17952e-05
-0.0004077
1.60688e-06
-0.000432094
7.60366e-05
-0.000441389
0.000149211
-0.000436416
0.000217641
-0.000415353
0.000277244
-0.000378302
0.000325849
-0.00032898
0.000362443
-0.00027173
0.000385254
-0.000209693
0.000390903
-0.00014323
0.000375047
-7.22363e-05
0.000337998
-4.53113e-06
0.000291747
4.10114e-05
0.000261496
4.66205e-05
0.000257771
2.90741e-05
0.000269149
2.7584e-05
0.000266779
6.16713e-05
0.000245997
9.38089e-05
0.000235934
7.53799e-05
0.000290107
-1.91533e-05
0.00041329
-9.99185e-05
0.000495287
2.96379e-05
0.000456406
0.000286738
0.000273128
0.000558625
-7.73762e-05
0.000900212
-0.000290068
0.000772775
-0.000189792
0.000254223
9.90047e-05
0.000417303
-0.000284551
0.000548745
0.000113108
0.000364866
0.000997719
-1.90122e-05
0.0014467
-0.000382967
0.00107237
-0.000562871
0.000543482
-0.000538676
9.70977e-05
-0.000412297
-0.000153213
-0.000316357
-0.000103889
-0.000283174
2.46835e-05
-0.000289212
8.053e-05
-0.000285419
3.91891e-05
-0.000263117
-3.17519e-05
-0.000245997
-5.93021e-05
-0.000256819
-3.57443e-05
-0.000296305
-1.22614e-05
-0.000345287
-3.43349e-05
-0.000378653
-0.000104819
-0.000382074
-0.000196808
-0.000356445
-0.000285762
-0.000310663
-0.000360396
-0.000254806
-0.000417267
-0.000194368
-0.000458691
-0.000127409
-0.000491277
-5.12662e-05
-0.000514731
3.44081e-05
-0.000527463
0.000130319
-0.00053097
0.000232152
-0.000517191
0.000327994
-0.00047192
0.000404707
-0.000390669
0.000455492
-0.000282846
0.000481044
-0.00016147
0.000479973
-2.94242e-05
0.000452043
0.000104227
0.00040173
0.000226072
0.000338103
0.000318934
0.000267584
0.00037397
0.000186894
0.000400639
8.97618e-05
0.000412415
-2.14182e-05
0.000411749
-0.000135815
0.000410331
-0.000241028
0.00040969
-0.000329746
0.000381403
-0.000398124
0.000319166
-0.00044354
0.000227613
-0.000465269
0.00011528
-0.000466788
-4.13972e-06
-0.000440938
-0.000129931
-0.000396749
-0.000236754
-0.000342187
-0.000320151
-0.000281073
-0.000385132
-0.00021021
-0.000441901
-0.000125386
-0.000492524
-2.95001e-05
-0.000527979
6.67772e-05
-0.000537665
0.000153109
-0.000522747
0.000224616
-0.000486859