/*--------------------------------*- C++ -*----------------------------------*\
| =========                 |                                                 |
| \\      /  F ield         | OpenFOAM: The Open Source CFD Toolbox           |
|  \\    /   O peration     | Version:  2412                                  |
|   \\  /    A nd           | Website:  www.openfoam.com                      |
|    \\/     M anipulation  |                                                 |
\*---------------------------------------------------------------------------*/
FoamFile
{
    version     2.0;
    format      ascii;
    arch        "LSB;label=32;scalar=64";
    class       volScalarField;
    location    "2.3";
    object      alpha.oil;
}
// * * * * * * * * * * * * * * * * * * * * * * * * * * * * * * * * * * * * * //

dimensions      [0 0 0 0 0 0 0];

internalField   nonuniform List<scalar> 
6400
(
1
0.999999
1
1
1
1
1
1
1
1
1
1
1
1
1
1
1
1
1
1
1
1
1
1
1
1
1
1
1
1
1
0.999999
0.999999
0.999999
0.999999
0.999999
0.999999
1
1
1
1
1
1
1
1
1
1
1
1
1
1
1
1
1
1
1
1
0.999999
0.999999
0.999999
1
1
0.999999
0.999999
1
1
1
1
1
1
1
1
1
1
0.999999
0.999999
1
1
1
1
1
1
1
1
1
1
1
1
1
1
1
1
1
1
1
1
1
1
1
1
1
1
1
1
1
1
1
1
1
1
0.999999
0.999999
0.999999
0.999999
0.999999
0.999999
1
1
1
1
1
1
1
1
1
1
1
1
1
1
1
1
1
1
1
1
1
1
1
1
0.999999
0.999999
0.999999
0.999999
0.999999
0.999999
1
1
1
1
1
1
0.999999
0.999999
0.999999
1
1
1
1
1
1
1
1
1
1
1
1
1
1
1
1
1
1
1
1
1
1
1
1
1
1
1
1
1
1
1
1
1
1
1
1
1
1
1
1
1
1
1
1
1
1
1
1
1
1
1
1
1
1
1
1
1
1
1
1
1
1
1
1
1
1
1
1
1
1
1
1
1
1
1
0.999999
0.999999
0.999999
0.999999
1
1
1
1
0.999999
0.999999
1
1
1
1
1
1
1
1
1
1
0.999999
0.999999
0.999999
0.999999
0.999999
0.999999
0.999999
0.999999
0.999999
0.999999
1
1
1
1
1
1
1
1
1
1
1
1
1
1
1
1
1
1
1
1
1
1
1
1
1
1
1
1
0.999999
1
1
1
1
1
1
1
1
1
1
1
1
1
1
1
1
1
1
1
1
1
0.999999
1
1
1
1
1
1
0.999999
0.999999
1
1
1
1
1
1
1
1
1
1
0.999999
0.999999
0.999999
0.999999
0.999999
0.999999
0.999999
0.999999
0.999999
0.999999
0.999999
1
1
1
1
1
1
1
1
1
1
1
1
1
1
1
1
1
1
1
1
1
1
0.999999
1
1
1
1
1
1
1
1
1
1
1
1
1
1
1
1
1
1
1
1
1
1
1
1
1
1
1
1
1
1
1
1
0.999999
0.999999
0.999999
1
1
1
1
1
1
1
1
1
1
1
1
1
1
1
1
1
1
1
1
1
1
1
1
1
1
1
1
1
1
1
1
1
1
1
1
1
1
1
0.999999
0.999999
0.999999
0.999999
0.999999
0.999999
0.999999
0.999999
0.999999
1
1
1
1
1
1
1
1
1
1
1
1
1
1
1
1
0.999999
0.999999
0.999999
0.999999
0.999999
0.999999
0.999999
1
1
1
1
1
1
0.999999
0.999999
0.999999
1
1
1
1
1
1
1
1
1
1
1
1
1
1
1
1
1
1
1
1
1
1
1
1
1
1
1
1
1
1
0.999999
0.999999
0.999999
0.999999
0.999999
0.999999
0.999999
0.999999
0.999999
0.999999
0.999999
0.999999
0.999999
0.999999
0.999999
0.999999
0.999999
0.999999
1
1
1
1
1
1
1
1
1
1
1
1
1
1
1
1
1
0.999999
0.999999
0.999999
0.999999
0.999999
0.999999
1
1
1
1
1
1
1
1
1
1
1
1
0.999999
0.999999
0.999999
1
1
1
1
1
1
1
1
1
1
1
1
1
1
1
1
1
1
1
1
1
1
1
0.999999
0.999999
0.999999
0.999999
0.999999
1
1
1
1
1
1
1
1
1
1
1
1
0.999999
1
1
1
1
1
1
1
1
1
1
1
1
1
1
1
1
1
1
1
0.999999
1
1
1
1
1
1
1
1
1
1
1
1
1
1
1
1
0.999999
0.999999
0.999999
0.999999
0.999999
1
1
1
1
1
1
1
1
1
1
1
1
1
1
1
1
1
1
1
1
0.999999
0.999999
0.999999
0.999999
0.999999
0.999999
0.999999
1
1
1
1
1
1
1
1
1
1
1
1
1
1
1
1
1
0.999999
0.999999
1
1
0.999999
1
1
0.999999
0.999999
1
1
1
1
1
1
1
1
1
1
1
1
1
1
1
1
1
1
1
1
1
0.999999
0.999998
0.999999
0.999999
0.999999
0.999999
1
1
1
1
1
1
1
1
1
1
1
1
1
1
1
1
1
1
1
1
1
1
1
1
0.999999
0.999999
0.999999
0.999999
0.999999
1
1
1
0.999999
0.999999
0.999999
1
1
1
1
1
1
1
1
1
1
1
1
1
1
1
1
1
1
1
1
1
1
1
1
1
1
1
1
1
1
1
1
1
1
1
1
0.999999
1
1
0.999999
0.999998
0.999998
0.999998
0.999999
0.999999
1
0.999999
1
1
1
1
1
1
1
1
1
1
1
1
1
1
1
1
1
1
1
1
1
1
1
1
1
1
1
1
1
1
1
1
1
1
1
1
1
1
1
1
1
1
1
1
1
1
1
1
1
1
1
1
1
1
1
1
1
1
1
1
1
0.999999
0.999999
0.999999
0.999999
1
1
1
0.999999
0.999999
1
0.999999
0.999999
0.999998
0.999999
0.999998
0.999999
0.999999
1
1
1
1
1
1
1
1
1
1
1
1
1
1
1
1
1
1
1
1
1
1
1
1
1
1
1
1
1
1
1
1
1
1
1
1
1
1
1
1
1
1
1
1
1
0.999999
0.999999
1
1
1
1
1
1
1
1
1
1
1
1
1
1
1
1
1
0.999999
0.999999
0.999999
0.999999
0.999999
0.999999
0.999999
0.999999
0.999999
0.999999
0.999999
0.999998
0.999999
0.999999
0.999999
0.999999
1
1
1
1
1
1
1
1
1
1
1
1
1
1
1
1
1
1
1
1
1
1
1
1
1
1
1
1
1
1
1
1
1
1
1
1
1
1
1
1
1
1
1
1
1
1
1
1
1
1
1
1
1
1
1
1
1
1
1
1
1
1
1
1
1
0.999999
0.999999
0.999999
0.999999
0.999998
0.999999
0.999999
0.999998
0.999999
0.999999
0.999999
0.999999
1
1
1
0.999999
1
1
1
1
1
1
1
1
1
1
1
1
1
1
1
1
1
1
1
1
0.999999
0.999999
0.999999
0.999999
0.999999
1
0.999999
0.999999
0.999999
0.999999
0.999999
0.999999
0.999999
0.999999
0.999999
0.999999
0.999999
0.999999
0.999999
0.999999
0.999999
0.999999
0.999999
1
1
1
1
1
1
1
1
1
1
1
1
1
1
1
1
1
1
1
1
1
1
1
0.999999
0.999999
0.999999
0.999999
0.999999
0.999999
1
1
1
1
1
1
1
1
1
1
1
1
1
1
1
1
1
1
1
1
1
1
1
1
1
1
1
1
1
0.999999
0.999999
0.999999
0.999999
0.999999
0.999999
0.999999
0.999999
0.999999
0.999998
0.999998
0.999999
0.999999
0.999999
0.999999
0.999999
0.999998
0.999998
0.999999
0.999999
0.999999
0.999999
0.999999
0.999999
0.999999
1
1
1
1
1
1
1
1
1
1
1
1
1
1
1
1
1
1
1
1
0.999999
0.999999
0.999999
0.999999
0.999999
0.999999
1
1
1
1
1
1
1
1
1
1
1
1
1
1
1
1
1
1
1
1
1
1
1
1
1
1
1
1
1
0.999999
0.999999
0.999999
0.999999
0.999999
0.999999
0.999999
0.999999
0.999999
0.999999
0.999999
0.999999
0.999998
0.999998
0.999998
0.999998
0.999998
0.999999
0.999999
0.999999
1
1
1
1
1
1
1
1
1
1
1
1
1
1
1
1
1
1
1
1
1
1
1
1
1
0.999999
0.999999
0.999999
0.999999
0.999998
0.999999
0.999999
1
1
1
1
1
1
1
1
1
1
1
1
1
1
1
1
1
1
1
1
1
1
1
1
1
1
1
1
1
1
0.999999
0.999999
0.999999
0.999999
0.999999
0.999999
0.999999
0.999999
0.999999
0.999999
0.999999
0.999998
0.999998
0.999998
0.999999
0.999999
0.999999
0.999999
0.999999
1
1
1
1
1
1
1
1
1
1
1
1
1
1
1
1
1
1
1
1
1
1
1
1
1
1
0.999999
0.999999
0.999999
0.999999
0.999999
1
1
1
1
1
1
1
1
1
1
1
1
1
1
1
1
1
1
1
1
1
1
1
1
1
1
1
1
1
1
1
1
1
0.999999
0.999999
0.999999
0.999999
0.999999
0.999999
0.999999
0.999999
0.999999
0.999999
0.999999
0.999999
0.999999
0.999999
1
1
1
1
1
1
1
1
1
1
1
1
1
1
1
1
1
1
1
1
1
1
1
1
1
1
1
1
0.999999
0.999999
0.999999
0.999999
0.999999
1
0.999997
0.999995
0.999993
0.999992
0.999991
0.999992
0.999993
0.999994
0.999996
0.999997
0.999998
0.999999
1
1
1
1
1
1
1
1
1
1
1
1
1
1
1
1
1
1
1
1
1
1
1
0.999999
0.999999
0.999999
0.999999
0.999998
0.999998
0.999999
0.999999
0.999999
1
1
1
1
1
1
1
1
1
1
1
1
1
1
1
1
1
1
1
1
1
1
0.999999
0.999998
0.999997
0.999996
0.999994
0.999993
0.999991
0.999991
0.99999
0.999991
0.999993
0.999997
0.999998
0.948769
0.907155
0.88053
0.86169
0.848408
0.839243
0.832876
0.828459
0.8254
0.823456
0.822601
0.822952
0.824477
0.827168
0.830965
0.835558
0.84077
0.846968
0.854776
0.864357
0.874844
0.88583
0.896488
0.906856
0.918191
0.929246
0.938243
0.94445
0.948335
0.947866
0.944993
0.942619
0.941533
0.949943
0.958506
0.963166
0.969173
0.974134
0.975033
0.977201
0.978564
0.974876
0.972782
0.972274
0.966675
0.964178
0.957549
0.941074
0.94024
0.942125
0.945195
0.946766
0.945437
0.940271
0.933185
0.922909
0.910841
0.899789
0.888797
0.877275
0.866097
0.85564
0.846434
0.839137
0.833276
0.828205
0.823754
0.820117
0.817711
0.81649
0.816585
0.81796
0.820691
0.824974
0.831371
0.840833
0.854731
0.874549
0.902594
0.946153
0.179085
0.154863
0.136277
0.121325
0.110646
0.103181
0.0978205
0.0939277
0.0911437
0.0892786
0.0882078
0.0880092
0.0888445
0.0910429
0.0948498
0.100549
0.108089
0.116462
0.125195
0.135429
0.148286
0.164314
0.184894
0.207674
0.222905
0.236126
0.25184
0.270268
0.286897
0.304565
0.333827
0.349339
0.33394
0.31593
0.337182
0.354164
0.340434
0.337207
0.334648
0.331379
0.329815
0.333515
0.337334
0.339206
0.343876
0.357556
0.330503
0.320371
0.343557
0.345642
0.322965
0.297169
0.281193
0.263395
0.244373
0.230249
0.216056
0.194363
0.172474
0.154382
0.139607
0.127943
0.118844
0.110661
0.102793
0.0960244
0.0911045
0.0879036
0.0862344
0.0857861
0.0862981
0.087702
0.0900994
0.0936922
0.0988515
0.106261
0.117109
0.132569
0.15228
0.178585
1.59234e-11
1.59008e-11
1.599e-11
1.71902e-11
1.95873e-11
2.14425e-11
2.33518e-11
9.6872e-11
2.01947e-09
3.65173e-08
5.4973e-07
5.3199e-06
1.20201e-05
1.64802e-05
1.92581e-05
9.76178e-05
0.0002834
0.00063331
0.00114289
0.0017255
0.00242543
0.00320972
0.00219585
0.000176617
0.00215375
0.00415023
0.00601337
0.00786817
0.00967961
0.0114309
0.013967
0.0180715
0.0353968
0.0445233
0.0287938
3.21684e-08
3.21255e-08
3.1994e-08
3.17359e-08
3.12058e-08
3.08216e-08
3.07428e-08
3.07403e-08
3.07092e-08
3.06769e-08
1.96307e-08
0.0341985
0.0433976
0.0296225
0.017338
0.0104062
0.0101763
0.00835141
0.00644917
0.00449722
0.00247716
0.000421272
0.00240626
0.00347412
0.00263604
0.00190061
0.00129629
0.000801616
0.000408947
0.000144785
3.16647e-05
1.69369e-05
1.31324e-05
7.78684e-06
2.30856e-06
1.29808e-07
6.87477e-09
2.88162e-10
2.62801e-11
2.0213e-11
2.01273e-11
1.96455e-11
1.91625e-11
1.90576e-11
1.90785e-11
1.59008e-11
3.91984e-11
2.27183e-10
3.38261e-10
2.26661e-10
2.33518e-11
9.6872e-11
2.01947e-09
3.65173e-08
0.000181719
0.001932
0.00221166
0.0022127
0.00221211
0.00221263
0.00211341
0.000333504
0.00111347
0.00629484
0.0063981
0.00639625
0.00603546
0.00455424
0.000101637
0.00263199
0.0146838
0.0161399
0.0160732
0.0142601
0.0131357
0.00273874
2.51923e-08
2.94283e-08
3.57206e-08
4.21842e-08
4.43101e-08
4.69394e-08
9.40281e-08
7.82312e-08
7.85298e-08
4.62229e-08
3.93091e-08
3.12651e-08
3.07366e-08
3.04927e-08
8.03986e-09
6.98681e-09
6.79163e-09
6.98605e-09
3.38473e-06
0.00801971
0.0151973
0.0151874
0.0173039
0.0173039
0.00975091
0.000299841
0.00318541
0.00730172
0.00821841
0.00822719
0.00822719
0.00673165
0.000519985
0.000387812
0.00184843
0.0018833
0.00188375
0.00188324
0.00188068
0.00093444
1.29808e-07
6.87477e-09
2.85405e-10
2.35227e-11
2.0213e-11
7.06628e-11
9.72716e-11
4.53724e-11
1.90576e-11
1.64658e-11
3.70783e-11
7.28209e-11
9.63052e-11
7.9046e-11
5.18464e-11
1.71411e-07
2.96769e-06
4.26033e-06
1.07758e-05
0.000245108
0.00109493
0.00170237
0.00192423
0.00169401
0.000915762
0.000150923
7.72177e-05
0.000463424
0.00367196
0.00588471
0.00345597
0.000738337
8.65469e-05
0.000694626
0.00104307
0.00169692
0.00180911
0.00160627
0.000995609
2.04176e-06
7.56e-09
2.15167e-08
9.14124e-08
5.44106e-08
6.19603e-07
5.28185e-07
4.06167e-07
1.48394e-06
3.23987e-06
2.68327e-06
6.40228e-07
3.03799e-08
2.92818e-08
3.01889e-08
1.18636e-08
1.26143e-08
6.54633e-09
6.63268e-09
4.3175e-08
0.000241662
0.00138282
0.00175256
0.00204745
0.00135491
0.00172887
0.000293657
0.000900491
0.00252795
0.00705776
0.00632491
0.00211666
0.000111653
1.54565e-05
0.000201085
0.00114513
0.00178187
0.00161229
0.00124346
0.00053922
4.52547e-05
4.0604e-06
4.24838e-06
1.11765e-06
2.67088e-11
2.60932e-11
8.28719e-11
7.4932e-11
4.09336e-11
1.97521e-11
8.64509e-12
8.44191e-12
1.39957e-11
1.50113e-11
1.52895e-11
1.95207e-11
1.85296e-07
5.64147e-06
5.75306e-06
4.38131e-06
7.38962e-07
7.01138e-07
6.95924e-07
7.81931e-07
2.34695e-05
5.00896e-05
7.97844e-06
5.00685e-07
2.14074e-09
1.43227e-09
2.13968e-09
9.46451e-09
8.62959e-08
6.9849e-07
2.01437e-10
2.00763e-10
2.0027e-10
2.00033e-10
1.99938e-10
2.00033e-10
2.02188e-10
3.30116e-10
1.32878e-08
3.31557e-07
1.77603e-06
1.86394e-06
1.83705e-06
1.09698e-06
2.09554e-06
4.36582e-06
4.36639e-06
1.36602e-06
2.92818e-08
2.84646e-08
2.84212e-08
1.14854e-08
6.20783e-09
6.50334e-09
6.12368e-09
1.15023e-09
2.65158e-10
2.53092e-10
2.53116e-10
2.53069e-10
2.56324e-10
5.518e-10
3.88645e-05
1.55127e-07
4.48617e-08
1.32859e-08
8.37012e-09
5.66518e-09
8.37012e-09
1.21052e-08
3.2992e-05
0.000111487
3.96882e-05
9.84895e-07
8.89065e-07
8.8906e-07
8.98275e-07
7.46086e-06
7.49621e-06
4.23586e-06
3.61099e-11
1.81434e-11
1.76448e-11
1.52386e-11
9.31327e-12
1.015e-11
3.82893e-12
3.8544e-12
5.11551e-12
5.58339e-12
1.62737e-10
2.15342e-08
7.23865e-07
1.71555e-06
1.6716e-06
1.20348e-06
7.34551e-07
6.9789e-07
2.16615e-06
4.14616e-05
5.51892e-05
1.99169e-05
1.0334e-06
1.97142e-08
3.05083e-09
7.35208e-10
2.71549e-08
7.79441e-08
6.92677e-10
5.13934e-10
2.89633e-10
3.51282e-10
3.31964e-10
2.66092e-10
1.9969e-10
1.99938e-10
2.0344e-10
2.41188e-10
9.83883e-10
5.75496e-07
1.86921e-06
1.86986e-06
8.87105e-07
2.77012e-09
6.88128e-07
4.36639e-06
4.36556e-06
8.53662e-07
2.00056e-07
4.52583e-08
8.72564e-09
6.17339e-09
6.18543e-09
6.56324e-09
6.13327e-09
1.35932e-09
1.12774e-09
1.01305e-09
4.45589e-10
3.31977e-10
3.40013e-10
3.42222e-10
5.95786e-10
1.24966e-09
1.65771e-09
4.80436e-08
2.9244e-08
2.50111e-09
5.66518e-09
5.86197e-08
1.96715e-06
9.57439e-06
9.0979e-06
1.50708e-06
9.848e-07
8.89056e-07
9.19047e-07
1.12185e-06
4.93071e-06
9.85477e-07
1.09044e-10
3.43516e-09
1.20139e-10
7.36758e-12
5.10682e-12
5.09882e-12
2.85052e-12
2.94916e-12
3.56625e-12
1.48063e-11
7.9502e-09
2.07385e-07
3.03273e-07
3.52941e-07
7.43353e-07
1.24911e-06
1.18427e-06
0.000196889
0.000518708
0.000518728
0.000515609
0.000333868
1.60265e-05
6.42932e-06
4.23519e-07
7.35208e-10
7.1551e-10
7.06997e-10
6.75275e-10
6.4662e-10
6.63594e-10
6.81015e-10
5.18887e-10
2.54082e-10
1.99503e-10
2.1089e-10
2.65016e-10
2.60762e-10
4.62423e-10
1.12272e-07
4.3887e-07
4.08815e-07
4.85454e-08
2.11076e-09
2.4837e-06
4.36556e-06
1.99695e-06
2.9378e-07
2.78049e-07
6.16801e-09
6.16801e-09
6.16801e-09
7.9987e-09
9.42056e-09
9.42075e-09
9.42056e-09
6.72948e-09
2.3094e-09
2.26952e-10
1.80103e-10
4.93998e-10
1.66895e-09
1.62361e-09
1.63848e-09
1.64542e-09
1.66139e-09
2.84371e-09
2.15042e-09
2.50111e-09
2.44879e-05
5.0573e-05
0.00031598
0.000518556
0.000378728
3.87238e-05
9.84913e-07
9.06053e-07
5.53062e-07
1.84585e-07
1.33812e-07
1.30427e-07
3.44871e-08
2.95337e-11
5.24417e-12
4.31999e-12
4.06277e-12
2.85052e-12
2.89577e-12
7.77061e-12
1.11689e-10
1.7084e-09
3.60845e-08
2.18901e-07
7.25079e-07
2.76612e-06
7.76271e-05
0.000476164
0.000518708
0.000518728
0.000518728
0.000518728
0.00051565
0.000495168
0.000104801
8.249e-10
7.22294e-10
7.3548e-10
7.17221e-10
5.8285e-10
4.16428e-10
3.77661e-10
3.94576e-10
2.28659e-10
1.51712e-10
1.83518e-10
1.85913e-10
1.91157e-10
1.92934e-10
2.43566e-09
1.31433e-08
1.4375e-08
2.89693e-08
2.66539e-08
1.7208e-09
3.86947e-06
4.34301e-06
6.31325e-09
1.14217e-07
2.40402e-07
1.39861e-08
6.16801e-09
6.1682e-09
7.14703e-09
6.55784e-09
4.41688e-09
1.44798e-09
3.88072e-10
1.3373e-10
7.14488e-11
1.36746e-10
9.86476e-10
1.7649e-09
1.73145e-09
1.52556e-09
1.65771e-09
1.65836e-09
1.7594e-09
1.84627e-09
1.88345e-09
0.000323742
0.000514192
0.000518601
0.000518937
0.000519318
0.000519263
0.000447568
6.87828e-05
1.90793e-06
5.54193e-07
1.39531e-07
3.00273e-08
2.21281e-09
1.30632e-10
1.21953e-11
4.19421e-12
4.06277e-12
2.9271e-12
4.27906e-12
6.4384e-11
1.35159e-09
1.84581e-08
1.70443e-07
1.10817e-06
5.01855e-06
8.67027e-05
0.000459999
0.000516474
0.000517698
0.000518708
0.000518728
0.000515609
0.000507979
0.000497623
0.000326536
1.85141e-09
8.249e-10
4.30495e-09
3.57152e-08
5.10282e-08
1.64961e-08
7.53204e-11
6.76279e-11
1.9302e-10
3.10098e-11
9.72642e-11
1.6479e-10
2.3817e-10
3.24487e-10
2.80508e-09
1.7809e-08
3.09725e-08
3.55536e-08
2.40454e-08
1.55023e-09
3.85064e-06
1.44287e-06
2.87358e-09
1.0227e-08
8.65119e-08
3.90121e-08
1.28214e-08
1.23467e-08
3.68141e-09
2.40533e-10
1.88571e-10
1.87579e-10
1.80794e-10
1.26951e-10
6.73516e-11
8.25555e-11
1.9025e-10
3.27176e-10
3.37709e-10
7.53113e-10
3.72642e-09
3.42206e-09
1.96583e-09
1.88345e-09
4.06296e-05
0.000487329
0.000510771
0.000515738
0.000519263
0.000519263
0.000519317
0.000519263
0.000372662
4.24435e-05
4.06528e-06
9.32803e-07
1.64864e-07
1.9306e-08
1.55471e-09
8.18774e-11
6.41291e-12
4.16209e-12
4.54114e-12
7.56247e-12
1.22251e-10
2.31181e-09
2.79031e-08
2.29974e-07
1.37025e-06
6.38795e-06
0.000153598
0.000467796
0.000509748
0.000163624
4.186e-05
5.56017e-05
0.000350409
0.00049753
0.000478387
0.000455897
2.53097e-05
1.85141e-09
1.06813e-08
1.55614e-07
1.65927e-07
1.54691e-07
1.10095e-08
1.71164e-11
1.32138e-10
1.33439e-11
3.34645e-11
9.45583e-11
3.14146e-10
8.45522e-10
1.36797e-09
1.37964e-09
1.39132e-09
2.75287e-09
1.54855e-09
1.55082e-09
3.73252e-06
2.87358e-09
2.80852e-09
2.77472e-09
7.37134e-09
5.67063e-08
5.68787e-08
4.42345e-08
5.52907e-09
2.10522e-10
2.19751e-10
2.10799e-10
1.54033e-10
6.37809e-11
1.89786e-11
1.80766e-11
1.14927e-11
3.06065e-12
1.10119e-09
9.33223e-08
1.78169e-07
1.08554e-07
3.13364e-09
2.49374e-09
5.35665e-05
0.000488392
0.000501055
0.000510773
0.000417371
0.000106484
0.000106785
0.000352996
0.000348164
4.68826e-05
4.54129e-06
1.07457e-06
1.98496e-07
2.68941e-08
2.45705e-09
1.48501e-10
1.06112e-11
6.51715e-12
2.76214e-12
4.73789e-12
8.28434e-11
1.54285e-09
1.84645e-08
1.53136e-07
9.4385e-07
4.61575e-06
0.000145511
0.000296342
7.13308e-05
2.18365e-05
2.15237e-05
2.27767e-05
2.6234e-05
0.000192565
0.000459307
0.000432963
0.000197948
1.68114e-09
9.68872e-10
9.24935e-08
1.65927e-07
1.60738e-07
7.6225e-08
1.5806e-11
4.84248e-11
1.07888e-11
1.30536e-11
2.41019e-11
7.39108e-11
3.2617e-10
1.04727e-09
1.84364e-09
2.13258e-09
1.69128e-09
1.54855e-09
1.54855e-09
8.70395e-07
5.48189e-08
2.77472e-09
2.70596e-09
1.98462e-08
5.67625e-08
5.66125e-08
2.24859e-08
1.93057e-09
1.99299e-10
1.99023e-10
1.40484e-10
5.72344e-11
1.31141e-11
5.60606e-12
3.9588e-12
3.0391e-12
3.06065e-12
1.20213e-07
2.50337e-07
2.50337e-07
1.88593e-07
9.76451e-09
5.51131e-09
0.000176628
0.000482114
0.000488385
0.000414286
5.96345e-05
3.05972e-05
2.9315e-05
3.26969e-05
0.000153039
0.000107894
5.88965e-06
1.01569e-06
1.82625e-07
2.47053e-08
2.31232e-09
1.459e-10
1.21111e-11
8.16424e-12
1.61392e-12
2.2017e-12
3.04538e-11
6.12613e-10
8.25197e-09
7.96684e-08
5.97734e-07
2.89338e-05
0.000119869
7.78851e-05
2.15156e-05
2.15237e-05
2.15237e-05
2.15237e-05
2.27766e-05
2.62339e-05
0.000102189
0.000318523
0.000105514
7.58752e-10
3.85722e-10
7.50831e-11
4.68288e-08
6.78064e-08
2.28452e-09
1.54142e-11
1.53268e-11
1.05053e-11
9.46679e-12
1.12422e-11
2.2738e-11
7.92413e-11
5.04002e-10
1.96019e-09
2.88289e-09
2.88282e-09
1.56593e-09
2.25757e-09
2.18802e-09
3.07158e-09
3.42072e-09
2.65482e-09
2.64523e-08
5.19341e-08
1.2879e-08
2.42329e-10
2.41644e-10
2.42738e-10
1.82789e-10
7.55711e-11
1.65032e-11
3.19191e-12
2.48428e-12
3.00743e-12
3.01874e-12
3.0391e-12
1.6674e-07
2.46706e-07
2.05241e-07
2.53076e-08
3.95296e-09
8.38889e-09
0.000395998
0.000467462
0.000482122
0.000135582
3.05972e-05
2.9315e-05
2.9315e-05
2.9315e-05
7.85096e-05
0.000120826
7.78892e-05
5.72662e-06
1.95027e-07
2.24862e-08
1.90874e-09
1.26602e-10
8.75555e-12
5.3873e-12
1.08257e-12
8.10222e-13
7.50553e-12
1.62022e-10
2.57338e-09
3.00066e-08
4.30094e-07
5.24472e-05
0.000106565
4.30841e-05
2.08382e-05
2.15156e-05
5.15551e-05
7.36813e-05
7.23645e-05
5.40922e-05
2.50026e-05
7.67493e-06
7.40506e-06
3.85722e-10
7.50831e-11
3.34616e-11
2.03425e-11
1.74232e-11
1.74232e-11
1.74466e-11
1.45638e-11
1.15046e-11
8.00058e-12
7.15975e-12
1.28635e-11
3.77989e-11
1.29352e-10
5.85703e-10
2.0048e-09
2.69554e-09
1.69549e-09
1.43285e-08
2.18531e-09
6.74097e-07
1.68317e-08
2.44459e-09
1.06281e-08
1.68661e-09
2.74669e-10
2.72599e-10
2.42561e-10
1.87404e-10
9.05621e-11
2.42026e-11
4.55823e-12
1.54282e-12
1.73905e-12
2.73951e-12
3.23171e-12
3.06065e-12
6.64892e-09
4.37272e-08
2.1294e-11
1.04686e-10
2.53987e-10
3.83037e-09
0.000266358
0.000454489
0.000182649
3.0945e-05
3.21715e-05
3.50897e-05
7.58442e-05
0.000111026
0.000119768
0.000122086
0.000120809
1.94072e-05
1.36092e-07
1.29816e-08
9.69667e-10
6.62198e-11
1.80578e-11
3.50171e-12
6.10013e-13
1.28157e-13
1.08903e-12
2.62404e-11
4.84637e-10
1.68006e-08
1.31917e-06
3.81759e-05
5.22952e-05
1.19262e-05
2.00756e-05
6.73658e-05
0.000101595
0.000101605
0.000101604
0.000101607
6.99948e-05
8.99313e-06
1.42987e-07
1.81024e-08
1.5244e-09
4.68303e-10
1.76125e-10
5.67315e-11
2.0612e-11
2.3495e-11
1.88708e-11
1.2035e-11
6.70046e-12
4.71252e-12
6.60428e-12
2.50406e-11
8.38523e-11
2.08493e-10
7.10789e-10
1.94103e-09
1.78248e-09
1.96332e-08
2.29912e-09
1.30639e-06
7.22634e-08
1.10156e-09
8.89624e-10
8.92844e-10
1.26412e-09
5.1758e-10
2.0167e-10
1.11327e-10
4.3226e-11
9.51929e-12
1.92125e-12
1.07509e-12
1.54489e-12
3.165e-12
5.71249e-12
5.75529e-12
5.35961e-12
5.26243e-12
5.35959e-12
2.1294e-11
2.98305e-08
2.21628e-07
3.24125e-05
0.000279535
2.00887e-05
2.74481e-05
8.13285e-05
0.000123863
0.000123778
0.000123589
0.000123046
0.000122417
0.000103376
1.50463e-05
2.91306e-07
1.38681e-08
6.54297e-10
1.09866e-10
1.97925e-11
2.22606e-12
2.75063e-13
2.05356e-14
1.28157e-13
2.95266e-12
5.84594e-11
8.41932e-10
8.43083e-07
4.15891e-06
1.87078e-06
8.50885e-07
4.71802e-05
0.000101045
0.000101511
0.000101595
0.00010161
0.000101604
0.000101481
7.74823e-05
2.02334e-06
1.32213e-08
6.87503e-09
1.00252e-09
5.15117e-10
2.23825e-10
3.75252e-11
2.40473e-11
1.97091e-11
1.20235e-11
5.0385e-12
2.53111e-12
3.67597e-12
1.63377e-11
6.56558e-11
1.5893e-10
6.52551e-10
2.00697e-09
1.83292e-09
1.54699e-08
4.20711e-09
1.30817e-06
6.2004e-07
1.12663e-09
1.70247e-09
3.17302e-09
2.69845e-09
5.43902e-10
1.34184e-10
7.48683e-11
2.5798e-11
4.84384e-12
9.63715e-13
6.92423e-13
1.48301e-12
3.6631e-12
6.40755e-12
7.44282e-12
5.46324e-12
5.9656e-12
1.85199e-10
1.04685e-10
2.53062e-07
4.53738e-06
3.91142e-07
5.60308e-07
1.67129e-05
9.53601e-05
0.000123863
0.000123863
0.000123863
0.000123778
0.000123589
0.00012306
1.78685e-05
3.95426e-06
1.39079e-07
1.63014e-08
7.44812e-10
1.05991e-10
1.0939e-11
1.14586e-12
9.66132e-14
6.82574e-15
2.45554e-14
8.24111e-13
5.55301e-12
1.17773e-10
3.96207e-09
1.11386e-07
3.67395e-07
1.88756e-07
3.39031e-05
0.000100032
0.000101046
0.000101511
0.000101507
0.000101481
0.000101047
6.66855e-05
2.60128e-06
1.67116e-08
1.00772e-09
4.76961e-10
6.2949e-10
3.50815e-10
5.30622e-11
2.27226e-11
1.73059e-11
8.75827e-12
2.63557e-12
1.08504e-12
2.3771e-12
1.24486e-11
5.55127e-11
1.01124e-10
9.03279e-10
4.28536e-09
2.71062e-09
3.77988e-10
7.78658e-09
1.30916e-06
1.30811e-06
1.17175e-09
2.59813e-09
4.08439e-09
2.93751e-09
3.83381e-10
1.04439e-10
5.91298e-11
1.81572e-11
2.9205e-12
5.30881e-13
3.5449e-13
1.28553e-12
3.67715e-12
6.25207e-12
7.28237e-12
7.66417e-12
1.86739e-11
3.28004e-11
2.7511e-09
7.40813e-08
1.5094e-07
1.16216e-07
4.66167e-07
6.59404e-05
0.000123673
0.000123858
0.000123863
0.000123858
0.00012378
0.000123249
7.0047e-05
7.24653e-07
4.06074e-08
4.49881e-09
2.79979e-09
3.64991e-10
4.94387e-11
3.05872e-12
4.67044e-13
2.6416e-14
4.82984e-15
3.44845e-14
9.43131e-13
1.84336e-12
3.25504e-11
6.91639e-10
2.02074e-08
6.23682e-08
3.46506e-08
3.19983e-06
2.59436e-05
6.50376e-05
5.6631e-05
6.59545e-05
8.8113e-05
4.94509e-05
6.02212e-10
9.91465e-11
3.88428e-11
4.16815e-11
2.37472e-10
6.51762e-10
3.94496e-10
6.03206e-11
1.55781e-11
9.44194e-12
3.97936e-12
9.48659e-13
4.68196e-13
1.80549e-12
1.03827e-11
5.27175e-11
7.09853e-11
9.61404e-10
4.9451e-09
3.32956e-09
3.77656e-10
6.79241e-07
1.30915e-06
1.30898e-06
1.21952e-09
2.28784e-09
4.01675e-09
2.55207e-09
3.81947e-10
8.52441e-11
5.11457e-11
1.46374e-11
2.07922e-12
3.25926e-13
1.54522e-13
6.20237e-13
2.24678e-12
4.3361e-12
5.84045e-12
7.53684e-12
2.95959e-11
4.41542e-10
1.16962e-09
1.38996e-09
3.96845e-09
4.16208e-08
4.39101e-07
4.08143e-05
0.000123198
0.000123673
0.000103603
8.92283e-05
0.000107064
4.67771e-05
2.48704e-06
5.04414e-07
8.54294e-09
8.89587e-10
1.60727e-10
1.09008e-10
1.35532e-11
7.02371e-13
1.52782e-13
5.8632e-15
2.04475e-15
1.49458e-14
3.11979e-13
2.10836e-12
6.2376e-12
6.32919e-11
3.51467e-09
8.55004e-09
5.2836e-09
3.35745e-08
8.22296e-08
1.27655e-06
9.84235e-07
3.0841e-09
5.9525e-10
1.26754e-10
5.0602e-11
3.60409e-11
3.26964e-11
4.0747e-11
2.11477e-10
4.39718e-10
2.79357e-10
4.41366e-11
7.20609e-12
3.38762e-12
1.21794e-12
2.56066e-13
2.63504e-13
1.65846e-12
9.22449e-12
5.133e-11
6.58624e-11
8.21966e-10
4.94536e-09
2.90254e-09
3.75467e-10
1.30746e-06
1.30915e-06
1.08344e-06
1.25848e-09
1.33795e-09
2.43303e-09
2.36503e-09
6.29141e-10
7.09266e-11
4.7775e-11
1.29178e-11
1.70723e-12
2.35938e-13
6.88471e-14
1.87763e-13
8.19553e-13
1.95161e-12
3.56458e-12
6.38137e-12
2.7228e-11
7.2198e-10
2.38931e-09
1.42803e-09
1.81115e-11
3.4181e-08
1.09727e-06
1.30945e-06
1.26876e-07
8.86008e-06
6.34077e-06
3.88092e-06
6.92624e-06
5.41607e-07
2.21469e-07
2.8642e-08
1.51979e-09
2.15718e-10
8.98084e-11
3.56805e-11
3.41332e-12
1.56855e-13
4.10564e-14
1.11055e-15
5.16367e-16
2.00832e-15
3.98677e-14
8.62732e-13
1.96192e-12
2.2461e-11
4.53331e-10
1.10151e-09
6.8272e-10
3.7027e-09
5.10191e-09
2.2792e-09
9.25042e-09
4.44917e-10
1.312e-10
5.2749e-11
3.59559e-11
3.4043e-11
3.22255e-11
3.98835e-11
7.8548e-11
1.02107e-10
6.02281e-11
1.2082e-11
2.61066e-12
8.64696e-13
2.42186e-13
6.56851e-14
2.0089e-13
1.70509e-12
9.22658e-12
4.62958e-11
7.84966e-11
6.38093e-10
4.71572e-09
1.53051e-09
3.72906e-10
1.30685e-06
1.11058e-06
8.04732e-08
3.87126e-08
1.21257e-09
1.37523e-09
2.35507e-09
7.45882e-10
6.25486e-11
4.59373e-11
1.1926e-11
1.59136e-12
2.05111e-13
3.76413e-14
4.16693e-14
2.07384e-13
6.45696e-13
1.65478e-12
3.65341e-12
1.20839e-11
5.29674e-10
2.15423e-09
1.74573e-09
1.56671e-11
1.81115e-11
3.44106e-11
1.4332e-10
8.06763e-10
2.94208e-09
7.0714e-09
2.75945e-08
6.24143e-08
5.95183e-08
2.61571e-08
4.67096e-09
2.34733e-10
3.71711e-11
3.96491e-11
9.54006e-12
7.3639e-13
3.32768e-14
9.2205e-15
1.82484e-16
1.04602e-16
2.68674e-16
4.74621e-15
1.08507e-13
7.4386e-13
4.16096e-12
9.4025e-11
1.62521e-10
1.36154e-10
2.83868e-10
2.99429e-10
1.53303e-10
8.62021e-10
5.74029e-10
2.30503e-10
1.80445e-10
1.17697e-10
5.05937e-11
3.19367e-11
2.15184e-11
1.4387e-11
9.90674e-12
7.10727e-12
3.11355e-12
8.04986e-13
1.62265e-13
3.24193e-14
3.1031e-14
1.86501e-13
1.88926e-12
9.88611e-12
3.83252e-11
1.15197e-10
5.62421e-10
2.196e-09
8.28921e-10
3.71777e-10
1.30556e-06
4.314e-08
5.72715e-08
2.15298e-07
1.21592e-09
1.25046e-09
2.33745e-09
7.05652e-10
6.0852e-11
4.30258e-11
1.12531e-11
1.59397e-12
1.98968e-13
2.67696e-14
9.78433e-15
3.9084e-14
1.59684e-13
5.31208e-13
1.73422e-12
4.23071e-12
5.28091e-12
5.75754e-12
6.84076e-12
1.50179e-11
1.6682e-11
1.85722e-11
3.50979e-11
8.74942e-10
2.51634e-09
8.64312e-10
2.2348e-09
5.02501e-09
4.89628e-09
2.91095e-09
5.86779e-10
4.4338e-11
9.83237e-12
1.11807e-11
1.79319e-12
1.2837e-13
6.41206e-15
1.75475e-15
2.58582e-17
1.86446e-17
3.74644e-17
5.54181e-16
9.88575e-15
1.59955e-13
1.18403e-12
1.13634e-11
1.82431e-11
3.31197e-11
4.97779e-11
3.93864e-11
5.40475e-11
7.86038e-11
5.55714e-11
4.50756e-11
4.3246e-11
3.91453e-11
2.93882e-11
1.35365e-11
7.0174e-12
7.99866e-12
8.67874e-12
4.87353e-12
9.78251e-13
1.21889e-13
1.97209e-14
7.01676e-15
2.35558e-14
1.99241e-13
1.88938e-12
9.80262e-12
3.28822e-11
1.33837e-10
5.5194e-10
7.57498e-10
5.00301e-10
3.7151e-10
6.29055e-07
2.55446e-08
6.35453e-08
2.15299e-07
1.20783e-09
1.16213e-09
1.87841e-09
4.27979e-10
6.85721e-11
3.80594e-11
9.96397e-12
1.58455e-12
2.10396e-13
2.41379e-14
4.58518e-15
6.31014e-15
3.13308e-14
1.07046e-13
3.82233e-13
1.80011e-12
7.53287e-12
1.46628e-11
1.86155e-11
1.92552e-11
1.8964e-11
1.9929e-11
5.66818e-11
9.58109e-11
9.72514e-11
4.40582e-11
1.28971e-10
3.08934e-10
4.51989e-10
3.03075e-10
9.38729e-11
9.11566e-12
2.59277e-12
1.8501e-12
2.56922e-13
1.94901e-14
1.12747e-15
2.8436e-16
3.14705e-18
2.95641e-18
5.02269e-18
6.10575e-17
1.00465e-15
1.43094e-14
1.91087e-13
1.35744e-12
3.96246e-12
6.31715e-12
4.81228e-12
6.20481e-12
2.57379e-11
2.60405e-11
1.84308e-11
1.73153e-11
1.63854e-11
1.29198e-11
6.48831e-12
2.34619e-12
1.24225e-12
1.00615e-12
6.2766e-13
2.33347e-13
6.24978e-14
1.594e-14
2.84223e-15
3.87428e-15
2.27551e-14
2.0339e-13
1.78698e-12
9.19551e-12
2.89382e-11
1.35367e-10
5.28326e-10
4.32573e-10
3.88433e-10
3.71447e-10
3.68177e-10
2.279e-08
1.25285e-07
2.15223e-07
7.40393e-10
8.63582e-10
8.12064e-10
2.27166e-10
7.86068e-11
3.21779e-11
8.27578e-12
1.50552e-12
2.11106e-13
2.47148e-14
3.05777e-15
1.11938e-15
4.46049e-15
1.70887e-14
6.16118e-14
2.52445e-13
9.03429e-13
2.35567e-12
4.44417e-12
5.98992e-12
5.48107e-12
7.32905e-12
1.20963e-11
1.69149e-11
1.75699e-11
1.41943e-11
2.16559e-11
3.77079e-11
5.26955e-11
5.40832e-11
1.19322e-11
1.55689e-12
6.18987e-13
2.46209e-13
3.27317e-14
2.75616e-15
1.81187e-16
3.91162e-17
3.30391e-19
4.12503e-19
6.26199e-19
6.20858e-18
9.60569e-17
1.13649e-15
1.48892e-14
1.39675e-13
4.98965e-13
6.49669e-13
1.43314e-12
3.98533e-12
7.75125e-12
7.10917e-12
5.63747e-12
4.52444e-12
3.42197e-12
1.95235e-12
7.2425e-13
2.86533e-13
1.87198e-13
1.28902e-13
7.11982e-14
2.65829e-14
6.68112e-15
1.19178e-15
5.34799e-16
2.77716e-15
2.40762e-14
1.99518e-13
1.52387e-12
7.69296e-12
2.4931e-11
1.14788e-10
3.58721e-10
3.22561e-10
3.60066e-10
3.6707e-10
3.67686e-10
7.87073e-09
8.98468e-08
1.5526e-07
7.15161e-10
7.13422e-10
2.00064e-10
1.49488e-10
8.14463e-11
2.72249e-11
6.36493e-12
1.35754e-12
2.04079e-13
2.49217e-14
2.73832e-15
4.05058e-16
2.68346e-16
1.86638e-15
9.44081e-15
4.76252e-14
1.97735e-13
5.30049e-13
9.15841e-13
1.21833e-12
1.59027e-12
3.04629e-12
7.0914e-12
1.02996e-11
1.10077e-11
1.09008e-11
1.73628e-11
1.86459e-11
9.71938e-12
6.22948e-12
1.63218e-12
4.13774e-13
9.54494e-14
2.75446e-14
3.91977e-15
3.63835e-16
2.64303e-17
4.57538e-18
3.01773e-20
5.04972e-20
7.20092e-20
5.80817e-19
8.35843e-18
9.29574e-17
1.06106e-15
1.03238e-14
3.54362e-14
5.58882e-14
2.30134e-13
8.85325e-13
1.17783e-12
1.09081e-12
8.52544e-13
5.50898e-13
2.89212e-13
1.1056e-13
3.73233e-14
2.05663e-14
1.47865e-14
9.74957e-15
4.75761e-15
1.51398e-15
3.04147e-16
7.26871e-17
2.92746e-16
2.78396e-15
2.37711e-14
1.81774e-13
1.11014e-12
5.55026e-12
2.06281e-11
7.83411e-11
1.72881e-10
1.901e-10
3.23178e-10
4.052e-10
3.70652e-10
7.72414e-10
4.12488e-10
6.35384e-10
1.85916e-09
7.12082e-10
5.91002e-11
1.12558e-10
8.07841e-11
2.24763e-11
4.74657e-12
1.07261e-12
1.83661e-13
2.40043e-14
2.76095e-15
2.71814e-16
4.782e-17
7.91422e-17
5.92582e-16
3.39191e-15
1.66945e-14
5.53964e-14
1.15497e-13
1.7425e-13
2.44743e-13
5.04528e-13
1.45107e-12
2.65272e-12
3.23301e-12
3.5016e-12
4.65226e-12
5.40443e-12
4.32715e-12
1.96102e-12
3.68879e-13
6.92956e-14
9.96552e-15
2.78869e-15
4.32673e-16
4.41453e-17
3.47991e-18
4.59117e-19
2.41989e-21
5.53141e-21
7.52598e-21
4.99346e-20
6.63918e-19
7.02944e-18
7.43325e-17
6.6184e-16
2.10957e-15
3.93223e-15
1.54395e-14
6.01766e-14
7.69872e-14
7.21256e-14
5.28995e-14
2.8877e-14
1.24085e-14
3.99687e-15
1.37202e-15
8.34522e-16
6.08795e-16
3.90689e-16
1.81039e-16
5.25184e-17
1.05841e-17
2.57936e-17