/*--------------------------------*- C++ -*----------------------------------*\
| =========                 |                                                 |
| \\      /  F ield         | OpenFOAM: The Open Source CFD Toolbox           |
|  \\    /   O peration     | Version:  2412                                  |
|   \\  /    A nd           | Website:  www.openfoam.com                      |
|    \\/     M anipulation  |                                                 |
\*---------------------------------------------------------------------------*/
FoamFile
{
    version     2.0;
    format      ascii;
    arch        "LSB;label=32;scalar=64";
    class       volScalarField;
    location    "3.45";
    object      p;
}
// * * * * * * * * * * * * * * * * * * * * * * * * * * * * * * * * * * * * * //

dimensions      [1 -1 -2 0 0 0 0];

internalField   nonuniform List<scalar> 
6400
(
130265
130261
130256
130249
130242
130234
130227
130221
130218
130217
130220
130227
130239
130254
130274
130297
130324
130355
130389
130426
130464
130505
130547
130590
130634
130678
130721
130764
130806
130846
130885
130921
130955
130986
131014
131038
131059
131075
131088
131095
131099
131097
131091
131081
131066
131047
131024
130997
130967
130935
130900
130863
130826
130788
130750
130713
130677
130642
130610
130581
130554
130531
130511
130496
130484
130477
130473
130474
130479
130487
130498
130512
130528
130545
130562
130578
130593
130605
130614
130619
123629
123626
123620
123612
123603
123594
123586
123580
123575
123574
123577
123583
123594
123609
123629
123652
123680
123711
123746
123783
123823
123864
123907
123951
123995
124039
124084
124127
124170
124211
124250
124287
124321
124353
124381
124406
124426
124443
124456
124464
124467
124466
124460
124449
124434
124414
124391
124363
124333
124300
124264
124227
124189
124150
124111
124073
124036
124001
123968
123937
123910
123887
123867
123851
123839
123832
123829
123830
123835
123844
123856
123871
123888
123906
123924
123942
123957
123970
123980
123986
116997
116993
116985
116976
116966
116955
116944
116936
116930
116927
116928
116934
116944
116959
116979
117003
117032
117064
117099
117138
117178
117221
117265
117310
117356
117401
117447
117491
117535
117577
117617
117655
117690
117722
117751
117776
117798
117815
117828
117836
117840
117838
117832
117821
117806
117785
117761
117733
117702
117667
117630
117592
117552
117511
117471
117431
117393
117356
117322
117290
117262
117238
117217
117201
117189
117182
117179
117181
117187
117197
117211
117228
117247
117267
117287
117307
117325
117340
117351
117357
110367
110362
110353
110342
110328
110314
110301
110289
110281
110276
110275
110280
110289
110304
110324
110349
110379
110412
110449
110489
110532
110576
110622
110669
110716
110764
110810
110856
110901
110945
110986
111025
111061
111094
111124
111150
111173
111191
111204
111213
111216
111215
111209
111197
111181
111160
111135
111105
111072
111036
110998
110957
110915
110873
110830
110788
110748
110709
110673
110640
110610
110584
110563
110546
110534
110526
110524
110527
110534
110546
110563
110582
110604
110628
110652
110675
110695
110713
110725
110733
103741
103735
103724
103709
103692
103673
103656
103640
103628
103620
103617
103620
103629
103644
103664
103690
103721
103757
103796
103838
103883
103930
103978
104027
104077
104126
104175
104222
104269
104314
104357
104397
104435
104469
104500
104528
104551
104570
104584
104593
104597
104596
104589
104578
104561
104539
104512
104481
104446
104408
104367
104324
104279
104234
104189
104144
104101
104060
104021
103986
103954
103926
103903
103885
103873
103865
103864
103867
103877
103891
103911
103934
103960
103988
104017
104044
104069
104090
104106
104114
97120.7
97112.3
97097.4
97078.1
97055.7
97031.9
97008.6
96987.5
96970.4
96958.4
96952.7
96953.6
96961.6
96976.5
96998
97025.6
97058.8
97096.7
97138.7
97184
97231.9
97281.8
97332.9
97384.7
97436.7
97488.5
97539.6
97589.5
97638.1
97684.9
97729.5
97771.6
97811
97847.1
97879.8
97908.5
97933
97952.9
97968
97977.9
97982.4
97981.3
97974.6
97962.3
97944.4
97921.1
97892.7
97859.7
97822.4
97781.4
97737.5
97691.2
97643.4
97594.7
97546
97497.9
97451.4
97407
97365.3
97327.1
97292.9
97263.2
97238.4
97219.1
97205.5
97198
97196.8
97201.9
97213.4
97231
97254.3
97282.4
97314.2
97348.2
97382.9
97416.5
97447
97472.6
97491.9
97502.7
90506.4
90495.4
90476
90450.6
90421.1
90389.8
90358.9
90330.7
90307.3
90290.3
90280.8
90279.5
90286.6
90301.8
90324.7
90354.5
90390.6
90431.9
90477.5
90526.6
90578.3
90631.9
90686.5
90741.7
90796.8
90851.5
90905.2
90957.7
91008.6
91057.5
91104.2
91148.4
91189.7
91227.7
91262.1
91292.6
91318.7
91340
91356.3
91367.1
91372.2
91371.4
91364.6
91351.7
91332.7
91307.8
91277.4
91241.9
91201.7
91157.5
91110
91059.9
91008.1
90955.3
90902.4
90850.2
90799.5
90751.2
90705.8
90664.1
90626.6
90594.1
90567.1
90546
90531.3
90523.3
90522.6
90529.2
90543.2
90564.5
90592.7
90626.8
90665.5
90707.3
90750.1
90791.7
90829.7
90861.7
90885.9
90899.5
83900.6
83886.1
83860.6
83827.3
83788.4
83747.1
83706.3
83668.9
83637.5
83614
83600.1
83596.1
83602.4
83618.3
83643.2
83676.2
83716.1
83761.7
83812
83865.8
83922.2
83980.2
84039.1
84098.2
84157
84215
84271.8
84327
84380.5
84431.9
84480.9
84527.3
84570.8
84611
84647.6
84680.1
84708.2
84731.3
84749
84761
84767
84766.6
84759.6
84746
84725.8
84699.2
84666.4
84627.9
84584.3
84536.2
84484.5
84429.9
84373.3
84315.6
84257.7
84200.6
84144.9
84091.7
84041.8
83995.9
83954.6
83918.7
83888.7
83865.3
83849
83840.3
83839.8
83847.9
83864.7
83890.4
83924.4
83965.9
84013.5
84065.1
84118.4
84170.4
84218.3
84258.7
84289.4
84306.8
77305.8
77286.8
77253.1
77209.3
77158.2
77103.7
77049.9
77000.6
76959
76927.6
76908.3
76901.4
76907.1
76924.4
76952.3
76989.5
77034.4
77085.6
77141.7
77201.4
77263.4
77326.8
77390.7
77454.3
77517.3
77579
77639.1
77697.5
77753.8
77807.8
77859.4
77908.3
77954.3
77997
78036.1
78071.1
78101.5
78126.7
78146.4
78159.9
78167
78167.2
78160.2
78145.9
78124.4
78095.6
78060
78018.1
77970.4
77917.8
77861
77801
77738.8
77675.3
77611.5
77548.4
77487
77428.2
77372.9
77321.9
77276
77235.9
77202.3
77175.9
77157.4
77147.5
77146.9
77156.2
77176.1
77206.7
77247.8
77298.3
77356.8
77420.9
77487.6
77552.9
77614.1
77665.7
77704.9
77727.3
70725.8
70700.7
70656.2
70598.4
70531.2
70459.4
70388.5
70323.8
70269.4
70228.3
70202.4
70192.7
70198.3
70218
70250.3
70293.2
70344.8
70403.1
70466.4
70533.1
70601.9
70671.6
70741.3
70810.2
70877.7
70943.6
71007.4
71069
71128.3
71185.1
71239.5
71291.1
71339.9
71385.6
71427.6
71465.5
71498.7
71526.6
71548.6
71564.2
71572.7
71573.8
71566.9
71551.9
71528.8
71497.6
71458.8
71412.8
71360.3
71302.3
71239.6
71173.3
71104.4
71034.1
70963.5
70893.5
70825.2
70759.8
70698.2
70641.3
70589.9
70544.9
70506.8
70476.7
70455.2
70443.2
70441.9
70452.2
70475
70511
70560.1
70621.6
70693.6
70773.7
70858
70942.1
71019.1
71085.2
71135.8
71164.7
64165.3
64132.2
64073.1
63996.9
63908.3
63813.7
63720.5
63635.7
63564.9
63511.9
63478.8
63466
63472.8
63496.6
63535.2
63585.9
63646.1
63713.3
63785.5
63860.8
63937.7
64014.7
64091.1
64165.9
64238.6
64308.9
64376.5
64441.6
64503.9
64563.7
64620.9
64675.5
64727.4
64776.3
64821.7
64863.1
64899.8
64931
64956.1
64974.2
64984.6
64986.9
64980.3
64964.7
64939.8
64905.9
64863.2
64812.4
64754.3
64689.9
64620.3
64546.7
64470.1
64391.9
64313.1
64235.1
64159
64085.9
64016.9
63953.1
63895.3
63844.3
63801
63766
63740.5
63725.4
63722.4
63732.9
63758.1
63799.8
63858.1
63932.5
64021.3
64121.3
64227.8
64335.1
64434.7
64520.4
64586.2
64623.9
57630.4
57587.3
57508.6
57407.9
57290.8
57165.9
57042.8
56931.8
56840.3
56772.9
56731.8
56716.7
56726.7
56756.8
56804.4
56865.7
56937.1
57015.7
57098.9
57184.4
57270.7
57356.3
57440.2
57521.5
57599.8
57674.8
57746.5
57815
57880.5
57943.1
58003.2
58060.9
58116.2
58168.8
58218.2
58263.8
58304.8
58340.1
58369
58390.3
58403.4
58407.3
58401.4
58385.1
58358.3
58321.1
58273.9
58217.5
58152.7
58080.9
58003.2
57920.9
57835.3
57747.9
57659.8
57572.6
57487.3
57405.3
57327.8
57256
57190.8
57132.9
57083.1
57042.2
57011.3
56991.7
56985.4
56994.4
57021.4
57068.4
57136.8
57226.5
57335.8
57461
57598.2
57735.1
57864
57975.8
58062.3
58111.4
51129.7
51074.2
50968.9
50835.3
50680
50514.1
50351.1
50205.7
50087.8
50003.3
49954.1
49938.7
49954
49994.4
50055
50130.6
50216.6
50309.4
50405.8
50503.6
50601
50696.3
50788.7
50877.2
50961.5
51041.4
51117.2
51189.1
51257.5
51322.9
51385.8
51446.7
51505.7
51562.5
51616.6
51667.3
51713.5
51754
51787.6
51813.3
51829.8
51836
51831
51814.2
51785.3
51744.3
51691.7
51628.5
51555.9
51475.2
51388
51295.6
51199.6
51101.4
51002.6
50904.6
50808.7
50716.5
50629.2
50548.3
50474.5
50408.7
50351.4
50303.2
50265.2
50238.9
50226.9
50232.1
50258.8
50310.2
50389
50496.5
50631
50786.4
50964.2
51142.2
51310.2
51457.6
51572.3
51636
44676.2
44603.6
44463.8
44283.9
44076.6
43855.4
43640
43447.4
43296
43191.4
43134.5
43122
43147.9
43204.2
43283.2
43378.1
43483
43593.3
43705.8
43817.9
43928
44034.4
44136.2
44232.6
44323.2
44408.3
44488.2
44563.3
44634.3
44702.1
44767.7
44831.8
44894.8
44956.4
45016.2
45073
45125.7
45172.7
45212.6
45243.7
45264.7
45274.1
45270.7
45253.5
45222.1
45176.6
45117.6
45046.3
44964.1
44872.9
44774.4
44670.1
44561.9
44451.3
44340
44229.5
44121.5
44017.4
43918.9
43827.5
43744.2
43669.5
43603.6
43546.6
43499.2
43463.3
43442
43439.5
43462.2
43515.5
43604.5
43732.6
43900.1
44106
44326.5
44557.1
44777.5
44974.3
45129.3
45210.6
38292.4
38195.9
37996.8
37751.3
37475.8
37180.1
36892
36639.5
36446.6
36319.9
36258.5
36255.1
36299.3
36379.8
36485
36605.7
36734.5
36866.2
36997.6
37126.3
37250.8
37369.7
37481.9
37586.8
37684.3
37774.9
37859.1
37937.2
38010.3
38079.9
38147.6
38214.8
38282.1
38349.4
38415.9
38480.4
38541.2
38596.4
38644.1
38682.4
38709.4
38723.1
38721.9
38704.6
38670.5
38619.6
38552.7
38471.4
38377.7
38273.8
38161.8
38043.5
37920.9
37795.7
37669.7
37544.9
37422.7
37304.9
37193.4
37090
36996
36911.5
36836.1
36768.9
36709.8
36660.4
36624.7
36608.5
36621.1
36671.3
36767.9
36917.3
37121.1
37378.6
37669.7
37975
38269.1
38537
38752.8
38854.9
32012.3
31888.3
31585.9
31246
30873.5
30474
30086.9
29753.8
29512.2
29366.2
29308.9
29325.9
29400.3
29516.8
29658.3
29812.6
29971
30128.3
30281.4
30428.6
30569
30701.5
30825.1
30939.5
31044.5
31141.3
31230
31310.7
31385
31455
31523.9
31593.8
31665.8
31739.8
31814.6
31888.5
31959.5
32025.1
32082.8
32130.3
32165.1
32184.7
32186.9
32169.8
32132.6
32075.1
31998.5
31904.8
31796.8
31677.4
31549.2
31414.4
31274.9
31132.6
30989.4
30847.5
30708.8
30574.9
30448.4
30331.6
30225.8
30131.3
30046.3
29968.3
29895.2
29827.8
29770.6
29731.8
29724
29761.4
29858
30025.9
30272.7
30600.2
30983.7
31395.6
31798.6
32169.7
32464.9
32595.8
25865.6
25674.9
25275.6
24791.1
24248.5
23678.6
23151.4
22726.5
22449.7
22294.3
22253.1
22305.3
22427.3
22599.9
22796.5
22998.2
23195
23382.9
23560.4
23727.9
23886.1
24034.2
24170.3
24295.2
24408.3
24512.3
24605.5
24687.8
24760.9
24828.7
24896.1
24967.3
25044.1
25125.8
25210.6
25296.3
25380
25458.6
25529
25588.3
25633.2
25660.7
25667.6
25651.6
25610.9
25545.5
25456.7
25347.7
25222.3
25084.3
24937.1
24783.2
24624.4
24462.5
24299.4
24137.7
23979.8
23827.1
23682.7
23550
23431.5
23327.4
23234
23144.4
23052.9
22958.3
22865.8
22787.2
22741.5
22753.1
22837.5
23010.9
23281.1
23686.2
24199.6
24785.5
25372.4
25899.4
26291.3
26459.6
19919.7
19686.1
19170.1
18457.9
17608
16743.3
16002.9
15509.6
15125.2
14933.8
14933.1
15074.3
15303
15589
15882.1
16157.3
16408.2
16636.2
16844.3
17035.7
17214.3
17381.4
17533.1
17675.3
17787.9
17897.4
17993.2
18074
18141.8
18202.2
18263.7
18333.4
18414.1
18504.5
18601.7
18702.3
18802.3
18897.6
18984.5
19059
19117
19154.5
19167.8
19153.3
19108.5
19032.9
18929.1
18800.7
18654.2
18494.2
18325.1
18150.3
17971.5
17789.8
17606.8
17424.3
17245.2
17070.6
16905.8
16755.2
16621.8
16505.9
16400.6
16293.3
16169.8
16026.2
15865.4
15699.6
15562.7
15510.3
15568.6
15765.7
16106.7
16556.5
17262.9
18145.1
19043.2
19781.8
20273.6
20476.1
14010.6
13820.3
13289.6
12308.3
10869.4
9365.23
8167.53
7537.88
7099.63
6948.07
7111.72
7478.96
7966.69
8493.28
8950.71
9331.6
9652.82
9930.22
10177.4
10398.4
10599.7
10782.8
10936
11049.4
11210.8
11329.9
11424.8
11498.2
11552.7
11596.1
11642.3
11701.7
11779.8
11876.3
11986.9
12105.3
12225.5
12342.4
12450.7
12545.6
12620.2
12670.5
12691.8
12679.7
12629.9
12541.7
12420.8
12270.5
12102.8
11922.1
11732.9
11540
11345
11146.2
10943.8
10739.5
10532.4
10341.3
10157.9
9985.46
9830.1
9695.77
9576.29
9446.27
9269.01
9043.98
8759.07
8406.66
8017.31
7758.57
7693.92
7864.21
8243.29
8746.6
9871.93
11389.9
12851.2
13804.7
14316.4
14506.2
8042.78
7954.64
7539.81
6329.18
4320.49
2508.51
1516.49
1287.36
1189.77
1183.09
1350.32
1651.71
2024.72
2528.03
2924.72
3245.05
3516.41
3755.09
3970.25
4162.59
4336
4496.15
4638.5
4761.25
4849.39
4939.57
5013.37
5064.86
5092.5
5103.12
5113.32
5138.83
5193.42
5278.01
5385.86
5511.47
5651.49
5799.31
5938.22
6059.41
6155.65
6221.11
6250.65
6240.27
6182.67
6073.62
5928.76
5775.58
5612.81
5442.1
5261.92
5077.76
4895.84
4716.87
4536.18
4356.25
4190.52
4024.98
3864.87
3716.78
3584.27
3478.07
3405.13
3285.46
3134.22
2939.12
2668.12
2303.26
1895.57
1626.2
1453.08
1437.72
1492.2
1649.46
2734.12
4696.11
6714.21
7823.21
8271.34
8450.26
2817.07
2829.03
2730.09
1890.66
702.267
127.462
26.7135
7.18077
-3.21286
-6.71093
-7.78407
-9.47951
-6.637
81.7983
189.289
288.12
377.787
460.323
538.207
606.89
659.969
700.588
746.599
803.191
853.936
893.708
923.056
940.075
942.691
934.652
926.31
926.15
947.228
987.735
1041.51
1104.54
1185.18
1277.57
1366.26
1444.59
1507.44
1546.79
1559.02
1545.37
1502.76
1430.85
1335.94
1255.26
1175.67
1098.89
1018.87
937.39
859.081
784.184
705.09
622.746
548.822
498.83
458.232
418.612
385.554
356.24
329.848
296.327
256.482
195.426
114.634
21.7631
-4.05322
-5.1939
-4.981
-3.8649
3.51323
21.1858
143.927
802.357
2039.35
2776.22
2943.54
3061.99
223.045
263.314
251.857
78.5064
-2.05299
-6.01026
-2.69505
-4.9877
-7.2477
-7.59239
-7.05322
-6.8382
-7.14012
-8.57533
-8.66015
-7.39518
-6.50347
-6.11329
-6.03865
-6.07474
-5.89156
-5.08113
-3.79162
-2.38024
-1.6665
-1.68394
-2.19979
-2.72783
-3.05412
-3.29898
-3.52226
-3.68265
-2.96328
-3.2252
-4.05584
-4.93278
-6.01431
-6.48674
-5.14222
-2.15769
1.05827
1.58146
0.146081
-2.65734
-5.98297
-8.79927
-10.318
-10.6238
-10.4031
-9.51635
-7.77271
-5.57795
-4.41562
-3.9413
-3.12719
-2.26561
-1.99637
-2.33391
-2.28161
-0.316164
5.63355
11.5487
9.67456
1.50402
-2.73924
-3.34659
-3.6733
-4.18446
-4.49227
-4.19635
-4.34828
-4.61589
-3.72949
-3.60603
-7.2603
-2.33632
98.5242
256.121
298.18
315.103
5.08981
2.08804
-3.64319
-9.22073
-7.71847
-7.54104
-8.14129
-9.15146
-8.86552
-8.58629
-8.71545
-8.88009
-9.12545
-9.16543
-8.02383
-6.92675
-6.3732
-6.22876
-6.36307
-6.64189
-6.66793
-6.15399
-5.115
-3.73769
-2.64679
-2.57233
-3.14767
-3.64772
-4.00788
-4.25578
-4.47576
-4.67088
-4.46242
-4.5885
-5.12276
-5.82874
-6.3429
-6.085
-4.39655
-2.31008
-0.687232
-0.992412
-3.04895
-6.05921
-8.66345
-10.2448
-11.1334
-11.4743
-11.3309
-10.564
-9.20999
-7.47831
-6.04744
-4.92819
-4.16523
-3.73748
-3.24115
-2.74723
-2.32609
-1.59797
1.19103
5.27259
3.77883
-1.98409
-3.69327
-3.62035
-3.96278
-4.94195
-5.59675
-6.00223
-6.55805
-6.87305
-7.25267
-7.31301
-7.79491
-7.56176
-8.8066
-6.13881
3.46165
15.9693
0.0898233
-1.14472
-4.96144
-8.27044
-9.10745
-9.13173
-9.32887
-9.60087
-9.65687
-9.61144
-9.65899
-9.59003
-9.4222
-9.27492
-8.92787
-8.31625
-7.70405
-7.35615
-7.26723
-7.23481
-6.99531
-6.47226
-5.64254
-4.64833
-3.87112
-3.63532
-3.93069
-4.32167
-4.60114
-4.73328
-4.86446
-5.00509
-5.02891
-5.16345
-5.74828
-6.84274
-8.13773
-8.40559
-7.02344
-4.48886
-3.04028
-3.686
-5.74119
-8.26206
-10.4483
-11.7476
-12.0685
-11.8353
-11.3572
-10.6872
-9.87047
-9.01458
-8.15969
-7.20965
-6.32458
-5.59727
-4.93474
-4.33497
-3.8845
-3.08583
-1.63263
0.298897
-1.34371
-4.47904
-4.44449
-4.87341
-5.50501
-6.26824
-6.65065
-7.42892
-8.26126
-8.6229
-8.89712
-9.04604
-9.01863
-8.83625
-8.64282
-7.12127
-2.48154
4.85178
-3.71193
-5.01428
-8.08968
-10.0683
-10.4768
-10.2717
-10.1601
-10.1978
-10.2727
-10.3351
-10.4363
-10.4642
-10.26
-9.97341
-9.57555
-9.02748
-8.42182
-7.87449
-7.53383
-7.32596
-7.14033
-6.98545
-6.73108
-6.3822
-6.21838
-6.28412
-6.16744
-6.0391
-5.84362
-5.58432
-5.34691
-5.16573
-5.08496
-5.30779
-6.03469
-7.69104
-11.0909
-12.5599
-11.7605
-8.93651
-7.38291
-8.20968
-10.1902
-12.3424
-13.9215
-14.4945
-14.1851
-13.3762
-12.4741
-11.6269
-10.8911
-10.2638
-9.56916
-8.76961
-8.07675
-7.49162
-6.90171
-6.27569
-5.65008
-5.15866
-4.95844
-4.12605
-4.67706
-5.92016
-5.39803
-5.71134
-6.15659
-6.55299
-7.81685
-8.93089
-9.23249
-9.53509
-9.88993
-10.1611
-10.1783
-10.0038
-9.99506
-9.32748
-7.68142
-3.29622
-6.40017
-8.03695
-10.278
-11.1369
-11.1876
-11.0033
-10.8986
-10.922
-10.9981
-11.0665
-11.1109
-11.0826
-10.917
-10.6246
-10.2171
-9.71325
-9.18432
-8.65121
-8.24691
-7.99193
-7.83156
-7.76493
-7.73029
-7.69361
-7.8159
-8.0258
-7.99044
-7.65065
-7.16943
-6.6079
-5.9506
-5.29372
-4.9285
-5.09812
-6.01631
-8.72111
-12.6855
-15.2719
-14.8306
-12.8849
-12.3982
-13.4531
-15.0933
-16.4519
-17.029
-16.8503
-16.1549
-15.1149
-13.9593
-12.8844
-12.0554
-11.3535
-10.5666
-9.76614
-9.16365
-8.7302
-8.30557
-7.80892
-7.34535
-7.25949
-7.78559
-7.58259
-7.32482
-7.04691
-6.74481
-7.59062
-7.94778
-8.37084
-9.11598
-9.62367
-9.9132
-10.2932
-10.725
-11.0786
-11.1751
-11.1689
-11.5847
-11.9637
-11.1261
-8.2307
-8.71922
-10.4799
-11.3974
-11.5849
-11.5819
-11.5231
-11.5219
-11.5958
-11.6854
-11.748
-11.7771
-11.7467
-11.5975
-11.313
-10.9057
-10.3447
-9.72109
-9.13473
-8.63986
-8.25962
-8.05911
-8.05959
-8.31517
-8.49845
-8.6081
-8.68422
-8.67427
-8.48508
-8.1026
-7.51504
-6.72235
-5.79041
-5.22301
-5.18341
-6.40718
-9.43717
-13.0689
-15.1107
-15.5481
-15.6456
-16.7636
-18.2931
-19.4727
-20.0788
-19.9862
-19.2371
-18.0189
-16.6121
-15.2288
-14.0402
-13.1564
-12.5056
-11.8694
-11.1673
-10.4994
-9.98156
-9.49736
-9.08577
-8.79657
-8.79033
-9.27262
-9.26518
-9.72438
-10.0094
-9.65367
-9.13769
-8.87297
-9.02953
-9.66385
-10.3074
-10.6426
-10.9923
-11.3804
-11.6843
-11.8028
-11.895
-12.5147
-13.9432
-13.1401
-10.7088
-10.4219
-11.7379
-11.8771
-11.9663
-12.0011
-12.0788
-12.2033
-12.3348
-12.4158
-12.4449
-12.4611
-12.4645
-12.3972
-12.1459
-11.6695
-10.983
-10.2952
-9.68078
-9.14656
-8.75337
-8.57428
-8.56488
-8.64788
-8.75963
-8.86495
-8.94469
-8.98377
-8.92115
-8.70637
-8.27452
-7.60827
-6.75092
-6.00656
-5.94711
-7.44796
-10.4097
-13.0694
-14.5638
-15.9313
-17.7459
-20.0247
-21.8684
-22.9678
-23.4201
-23.0658
-21.9385
-20.0843
-18.0236
-16.19
-14.8306
-13.9314
-13.3896
-12.9809
-12.5136
-11.9472
-11.3479
-10.7546
-10.3346
-10.0707
-9.98388
-10.1467
-10.3745
-11.5646
-12.7471
-12.5414
-11.9153
-11.1509
-10.8013
-10.6109
-11.2189
-11.4644
-11.7058
-11.9473
-12.0604
-12.0719
-12.2037
-12.7622
-14.3605
-14.449
-13.0564
-11.587
-12.3118
-12.2595
-12.3971
-12.5027
-12.6777
-12.8701
-13.0104
-13.057
-13.0509
-13.0745
-13.1035
-13.0436
-12.8222
-12.3671
-11.7042
-11.0018
-10.3779
-9.84993
-9.4348
-9.11179
-8.92244
-8.9123
-9.02038
-9.15916
-9.23587
-9.24965
-9.20508
-9.0829
-8.82373
-8.36671
-7.75763
-7.09925
-7.31034
-9.07051
-11.4722
-13.23
-14.5724
-16.6566
-19.5527
-22.5199
-24.7048
-26.0952
-26.8193
-26.4818
-24.8998
-22.3943
-19.6583
-17.2585
-15.5722
-14.6
-14.1629
-13.9307
-13.6141
-13.1438
-12.5777
-12.0263
-11.5894
-11.2596
-11.0977
-11.1721
-11.5348
-12.07
-12.3149
-12.6074
-12.9215
-13.1522
-12.6905
-12.1815
-12.3081
-12.3833
-12.4796
-12.5775
-12.5422
-12.3916
-12.4101
-12.6735
-13.5773
-13.8983
-13.325
-12.3531
-12.6422
-12.6745
-12.8308
-12.9895
-13.2156
-13.4436
-13.576
-13.5892
-13.561
-13.5856
-13.6351
-13.6045
-13.44
-13.12
-12.6513
-12.1145
-11.6425
-11.1784
-10.6493
-10.1365
-9.72091
-9.51175
-9.50846
-9.58044
-9.60258
-9.53775
-9.42653
-9.28548
-9.09746
-8.81232
-8.50647
-8.34425
-8.93749
-10.5217
-12.387
-13.5384
-14.989
-17.4976
-20.9739
-24.38
-26.8839
-28.5239
-29.5041
-29.3968
-27.4655
-24.3913
-21.1822
-18.3553
-16.4234
-15.3365
-14.8655
-14.6983
-14.4952
-14.0998
-13.5762
-13.0719
-12.6516
-12.348
-12.1639
-12.251
-12.644
-13.4771
-14.1247
-14.2086
-14.021
-14.4531
-14.1197
-13.6925
-13.4415
-13.3418
-13.3256
-13.3123
-13.2088
-13.0012
-12.8685
-12.9987
-13.5858
-13.9534
-13.7506
-12.8815
-12.9968
-13.0724
-13.2249
-13.4152
-13.6703
-13.9119
-14.0331
-14.0307
-13.9969
-14.0145
-14.0881
-14.1892
-14.2907
-14.3352
-14.2617
-14.0217
-13.6412
-13.2334
-12.7222
-12.0532
-11.3305
-10.7468
-10.4166
-10.2297
-10.0995
-9.9333
-9.70878
-9.47628
-9.25499
-9.06093
-9.03295
-9.55709
-10.3336
-11.5548
-13.1219
-14.0689
-15.5847
-18.1221
-21.6701
-25.2285
-27.9029
-29.6382
-30.7255
-30.8966
-28.9988
-25.5587
-22.214
-19.2433
-17.2264
-16.0852
-15.5533
-15.3593
-15.2196
-14.9311
-14.463
-13.9205
-13.4607
-13.1636
-12.9701
-12.9605
-13.2192
-13.7678
-14.266
-14.2327
-14.4288
-15.2283
-14.7922
-15.1568
-14.5664
-14.3029
-14.1961
-14.1125
-13.9887
-13.8042
-13.6549
-13.7189
-14.1687
-14.5684
-14.508
-13.3685
-13.3595
-13.4511
-13.5789
-13.7785
-14.0409
-14.2842
-14.408
-14.4193
-14.4037
-14.4599
-14.6588
-15.0431
-15.554
-16.0283
-16.3938
-16.5431
-16.3931
-16.1816
-15.6952
-14.8189
-13.7387
-12.7011
-11.8639
-11.2364
-10.8089
-10.481
-10.136
-9.8117
-9.53101
-9.3765
-9.50451
-10.3295
-11.4461
-12.4574
-13.7636
-14.8831
-16.3439
-18.58
-21.6535
-24.9324
-27.5732
-29.3395
-30.4579
-30.7881
-29.032
-25.8291
-22.6349
-19.7951
-17.8615
-16.7552
-16.2291
-15.9844
-15.8476
-15.6365
-15.2474
-14.6926
-14.1332
-13.7224
-13.469
-13.3368
-13.5266
-14.2815
-14.6916
-14.632
-14.6157
-14.8171
-15.7781
-15.6534
-15.3372
-15.148
-15.0373
-14.9328
-14.8048
-14.6449
-14.5264
-14.5857
-14.8716
-15.2273
-15.1513
-13.7994
-13.7186
-13.8176
-13.9103
-14.1008
-14.3502
-14.588
-14.7294
-14.784
-14.8344
-15.0091
-15.4447
-16.1962
-17.1146
-18.0593
-18.7261
-19.0306
-19.2031
-19.0075
-18.5411
-17.766
-16.6089
-15.2133
-13.7715
-12.6109
-11.9123
-11.4643
-10.9744
-10.4462
-10.0509
-9.936
-10.0907
-10.9075
-12.1909
-13.5446
-14.7847
-15.8949
-17.3221
-19.2469
-21.6671
-24.2442
-26.5631
-28.321
-29.4408
-29.4321
-27.9821
-25.4228
-22.5718
-20.0627
-18.3574
-17.364
-16.8373
-16.5657
-16.4133
-16.2434
-15.927
-15.3858
-14.7306
-14.1841
-13.7733
-13.4576
-13.5532
-14.3547
-14.7114
-14.3401
-15.1113
-15.7052
-16.0384
-16.1847
-16.1184
-16.0194
-15.9081
-15.7861
-15.654
-15.5045
-15.3928
-15.408
-15.5726
-15.7571
-15.7129
-14.2397
-14.1422
-14.216
-14.2614
-14.4197
-14.6323
-14.8501
-15.0111
-15.1297
-15.2905
-15.6501
-16.384
-17.4897
-18.7472
-20.0498
-20.8024
-21.1266
-21.3165
-21.2126
-20.8058
-20.1005
-19.0737
-17.7379
-16.0773
-14.3821
-13.3397
-12.8331
-12.3083
-11.5294
-10.9116
-10.6989
-10.8811
-11.5981
-12.8836
-14.3791
-15.7934
-17.2208
-18.8343
-20.6432
-22.245
-24.17
-26.0136
-27.3665
-28.1023
-27.8262
-26.595
-24.5313
-22.1191
-20.0926
-18.7215
-17.8903
-17.4074
-17.1317
-16.9659
-16.8013
-16.514
-15.9924
-15.2985
-14.6531
-14.1441
-13.7803
-13.8877
-14.2326
-14.3925
-15.289
-15.8309
-16.373
-16.7844
-17.0247
-17.0837
-17.0119
-16.8698
-16.708
-16.553
-16.4042
-16.278
-16.2218
-16.2468
-16.2745
-16.2376
-14.7268
-14.7567
-14.6786
-14.6677
-14.7689
-14.9193
-15.0941
-15.2611
-15.4459
-15.7379
-16.3112
-17.3478
-18.7765
-20.3635
-21.7917
-22.5237
-22.9109
-23.1398
-23.2168
-22.9315
-22.1919
-21.0849
-19.7097
-18.1172
-16.3763
-14.861
-13.987
-13.3945
-12.7978
-12.0652
-11.6916
-11.7825
-12.4303
-13.6171
-15.1224
-16.6324
-18.1522
-20.0006
-21.817
-23.1301
-24.4787
-25.6726
-26.4212
-26.6481
-26.2108
-25.0489
-23.3186
-21.4992
-20.0291
-19.0149
-18.3619
-17.9492
-17.6927
-17.524
-17.3537
-17.0664
-16.559
-15.8607
-15.1905
-14.6683
-14.3945
-14.5302
-14.8609
-15.0119
-15.3486
-16.1072
-16.965
-17.6581
-18.068
-18.2287
-18.1714
-17.9695
-17.727
-17.5113
-17.3299
-17.1616
-17.0309
-16.9397
-16.8813
-16.8415
-15.1828
-15.4089
-15.1753
-15.1235
-15.1587
-15.2308
-15.3396
-15.4915
-15.7295
-16.149
-16.9265
-18.2306
-19.9411
-21.8235
-23.3491
-24.0597
-24.4929
-24.9498
-25.2459
-25.0708
-24.3496
-23.1409
-21.5539
-19.6965
-17.7638
-16.0682
-14.8518
-14.0783
-13.6113
-13.2083
-12.874
-12.8765
-13.3989
-14.4639
-15.8578
-17.3485
-18.8256
-20.2977
-21.6606
-22.8512
-23.8716
-24.6492
-25.05
-24.9705
-24.3975
-23.389
-22.1501
-20.9489
-19.9723
-19.2707
-18.7873
-18.4611
-18.2413
-18.081
-17.9082
-17.6259
-17.1505
-16.5061
-15.862
-15.3419
-15.0298
-14.9485
-15.1167
-15.328
-15.5856
-16.6649
-17.7662
-18.637
-19.2637
-19.5679
-19.5381
-19.2463
-18.8717
-18.5455
-18.2854
-18.0488
-17.842
-17.6852
-17.5671
-17.5024
-15.57
-15.7978
-15.6296
-15.5978
-15.582
-15.5752
-15.6067
-15.7244
-15.9986
-16.5278
-17.4709
-18.9796
-20.9198
-22.9849
-24.6432
-25.4027
-25.858
-26.5028
-26.9964
-26.9779
-26.3558
-25.1307
-23.4364
-21.2751
-18.8133
-16.785
-15.4402
-14.5857
-14.1435
-14.0548
-14.0732
-14.2346
-14.6273
-15.5281
-16.7448
-17.995
-19.1355
-20.1617
-21.0892
-21.9086
-22.5709
-23.0203
-23.1951
-23.0566
-22.6431
-22.0124
-21.2729
-20.5486
-19.9432
-19.4863
-19.1553
-18.9199
-18.7534
-18.6247
-18.4811
-18.2452
-17.8562
-17.3248
-16.755
-16.2568
-15.8977
-15.7345
-15.757
-15.8481
-16.2472
-17.4541
-18.7808
-19.8956
-20.6879
-21.1318
-21.1463
-20.7357
-20.166
-19.671
-19.2917
-18.9476
-18.6533
-18.4564
-18.286
-18.1917
-15.9914
-16.0464
-16.0403
-16.0668
-16.0308
-15.9483
-15.8985
-15.9844
-16.2933
-16.9141
-17.969
-19.5871
-21.6709
-23.8643
-25.6409
-26.5329
-26.9901
-27.6668
-28.2278
-28.3394
-27.8596
-26.7167
-25.0665
-22.8018
-19.9392
-17.5015
-16.029
-15.2496
-14.9073
-14.7559
-15.0884
-15.6118
-16.1353
-16.7476
-17.7993
-18.7866
-19.4603
-19.9562
-20.4164
-20.8509
-21.2197
-21.4821
-21.6048
-21.5681
-21.377
-21.0616
-20.6658
-20.2615
-19.9123
-19.6393
-19.4389
-19.3023
-19.2198
-19.1682
-19.1076
-18.9843
-18.7484
-18.3882
-17.9575
-17.522
-17.1372
-16.878
-16.806
-16.8854
-17.348
-18.6019
-20.2854
-21.6695
-22.4651
-22.961
-23.001
-22.4495
-21.6085
-20.8695
-20.325
-19.8407
-19.4343
-19.1852
-18.9945
-18.8736
-16.3914
-16.4066
-16.5118
-16.6045
-16.5395
-16.3435
-16.2021
-16.2932
-16.6638
-17.3713
-18.4771
-20.0804
-22.16
-24.4005
-26.2551
-27.3839
-27.9356
-28.4323
-28.8915
-29.0325
-28.6871
-27.7218
-26.126
-23.9261
-21.0866
-18.4694
-16.9405
-16.2686
-15.9538
-15.8245
-16.1368
-16.8623
-17.5284
-18.1301
-19.0888
-19.798
-19.9915
-19.9561
-19.9927
-20.1281
-20.2998
-20.4632
-20.5821
-20.6238
-20.5758
-20.4411
-20.2504
-20.042
-19.8528
-19.7046
-19.6134
-19.5875
-19.6293
-19.719
-19.8086
-19.8614
-19.8381
-19.7146
-19.4926
-19.1854
-18.8332
-18.5097
-18.3558
-18.4536
-18.9516
-20.2405
-22.2727
-23.8901
-24.7227
-25.0485
-25.0232
-24.3266
-23.1543
-22.0838
-21.3106
-20.6835
-20.1624
-19.8467
-19.6574
-19.5187
-16.8608
-16.9134
-17.1056
-17.2691
-17.1602
-16.8
-16.5128
-16.6751
-17.1781
-17.9693
-19.06
-20.5081
-22.4114
-24.545
-26.4076
-27.8149
-28.6078
-29.0199
-29.2742
-29.3122
-28.9658
-28.0451
-26.493
-24.4846
-22.0472
-19.5833
-18.0576
-17.5623
-17.3542
-17.4308
-17.6715
-18.3218
-19.1066
-19.9421
-20.6832
-20.9447
-20.663
-20.1536
-19.8533
-19.7808
-19.8239
-19.9163
-20.0119
-20.0744
-20.0875
-20.0478
-19.9648
-19.8596
-19.76
-19.6963
-19.7074
-19.8158
-20.025
-20.3007
-20.5875
-20.8426
-21.0353
-21.1532
-21.1775
-21.0855
-20.8606
-20.5727
-20.374
-20.4483
-20.9427
-22.1376
-24.2206
-26.0099
-27.0664
-27.2884
-26.9976
-26.1663
-24.673
-23.2237
-22.1789
-21.4192
-20.8122
-20.4419
-20.2513
-20.1061
-17.5527
-17.6202
-17.8808
-18.1759
-18.1117
-17.6601
-17.2375
-17.3253
-17.9111
-18.7431
-19.7272
-20.9421
-22.5034
-24.3622
-26.1481
-27.6381
-28.6927
-29.2239
-29.4414
-29.3004
-28.8078
-27.7734
-26.2491
-24.5574
-22.6486
-20.6698
-19.307
-18.8979
-18.9445
-19.3862
-19.8752
-20.6042
-21.4492
-22.1502
-22.5371
-22.2495
-21.3958
-20.4652
-19.9149
-19.6985
-19.6539
-19.6896
-19.7518
-19.8063
-19.8348
-19.8268
-19.7819
-19.7154
-19.6597
-19.6655
-19.7839
-20.046
-20.4455
-20.9141
-21.3816
-21.7936
-22.1266
-22.4072
-22.646
-22.8178
-22.8662
-22.7631
-22.6013
-22.6088
-22.9896
-23.9298
-25.711
-27.5693
-28.8276
-29.1916
-28.6743
-27.6484
-25.913
-24.1442
-22.8539
-21.9798
-21.3335
-20.9452
-20.7564
-20.6185
-18.3636
-18.4433
-18.7382
-19.2203
-19.4581
-19.0056
-18.5812
-18.5368
-19.0994
-19.7556
-20.481
-21.3812
-22.5367
-23.9714
-25.5214
-26.924
-27.9748
-28.6084
-28.8222
-28.6221
-28.0596
-27.0631
-25.7096
-24.3332
-22.925
-21.4332
-20.3749
-20.046
-20.3225
-20.9158
-21.898
-23.1932
-23.9642
-24.3209
-24.3114
-23.4055
-21.9829
-20.8075
-20.1305
-19.8269
-19.7215
-19.7101
-19.7361
-19.7672
-19.7817
-19.7653
-19.717
-19.655
-19.622
-19.6825
-19.8816
-20.269
-20.8562
-21.528
-22.1329
-22.6354
-23.0562
-23.4581
-23.8763
-24.2919
-24.6153
-24.7402
-24.6663
-24.6012
-24.7829
-25.3973
-26.6867
-28.3356
-29.6506
-30.211
-29.761
-28.4651
-26.5769
-24.6682
-23.253
-22.3292
-21.698
-21.3327
-21.1624
-21.0442
-19.1807
-19.3033
-19.4783
-20.073
-20.4579
-20.2788
-20.0267
-20.3335
-20.5674
-20.8455
-21.2224
-21.7865
-22.5601
-23.552
-24.7042
-25.8544
-26.8005
-27.4035
-27.6123
-27.4474
-26.9436
-26.1267
-25.0776
-24.0004
-22.9154
-21.8423
-21.0165
-20.8056
-21.1689
-21.8444
-23.037
-24.4885
-25.3583
-25.6017
-25.1807
-23.8733
-22.2643
-21.1355
-20.4642
-20.133
-19.9894
-19.9387
-19.9293
-19.9299
-19.9172
-19.8761
-19.8088
-19.7353
-19.7093
-19.7711
-19.9946
-20.5088
-21.3144
-22.1675
-22.8644
-23.4269
-23.9211
-24.4335
-25.0257
-25.6685
-26.1952
-26.4635
-26.4325
-26.2643
-26.2078
-26.4557
-27.1793
-28.3018
-29.3953
-29.987
-29.6404
-28.2821
-26.4521
-24.6789
-23.3331
-22.4696
-21.925
-21.6184
-21.4639
-21.3822
-20.011
-20.2086
-20.1951
-20.7337
-21.1845
-21.274
-21.2002
-21.7005
-21.7906
-21.7575
-21.8197
-22.0959
-22.5759
-23.2229
-23.9994
-24.8178
-25.5453
-26.0553
-26.2926
-26.2259
-25.8478
-25.2286
-24.4733
-23.6942
-22.8722
-22.0213
-21.3334
-21.2037
-21.5746
-22.3584
-23.423
-24.5355
-25.3271
-25.4453
-24.8473
-23.6944
-22.4063
-21.4659
-20.8905
-20.5766
-20.4148
-20.3354
-20.297
-20.2696
-20.2296
-20.1646
-20.0757
-19.9871
-19.9394
-19.9767
-20.3168
-21.0444
-21.9611
-22.8497
-23.5844
-24.212
-24.7677
-25.3487
-26.0783
-26.9607
-27.69
-28.0211
-27.9413
-27.6162
-27.2799
-27.1141
-27.2451
-27.6803
-28.202
-28.4751
-28.0971
-27.0122
-25.618