/*--------------------------------*- C++ -*----------------------------------*\
| =========                 |                                                 |
| \\      /  F ield         | OpenFOAM: The Open Source CFD Toolbox           |
|  \\    /   O peration     | Version:  2412                                  |
|   \\  /    A nd           | Website:  www.openfoam.com                      |
|    \\/     M anipulation  |                                                 |
\*---------------------------------------------------------------------------*/
FoamFile
{
    version     2.0;
    format      ascii;
    arch        "LSB;label=32;scalar=64";
    class       volScalarField;
    location    "6.8";
    object      p;
}
// * * * * * * * * * * * * * * * * * * * * * * * * * * * * * * * * * * * * * //

dimensions      [1 -1 -2 0 0 0 0];

internalField   nonuniform List<scalar> 
6400
(
8155.51
8155.53
8155.61
8155.74
8155.93
8156.14
8156.39
8156.66
8156.94
8157.24
8157.56
8157.9
8158.25
8158.62
8159.01
8159.41
8159.83
8160.26
8160.7
8161.15
8161.61
8162.07
8162.54
8163
8163.46
8163.91
8164.35
8164.78
8165.19
8165.58
8165.94
8166.28
8166.59
8166.87
8167.11
8167.31
8167.47
8167.59
8167.67
8167.7
8167.68
8167.62
8167.52
8167.37
8167.18
8166.95
8166.68
8166.38
8166.04
8165.67
8165.28
8164.87
8164.44
8163.99
8163.53
8163.06
8162.58
8162.11
8161.63
8161.15
8160.68
8160.22
8159.77
8159.33
8158.91
8158.51
8158.12
8157.75
8157.39
8157.06
8156.74
8156.44
8156.16
8155.9
8155.66
8155.44
8155.26
8155.13
8155.05
8155.03
7738.57
7738.59
7738.66
7738.79
7738.96
7739.17
7739.4
7739.67
7739.95
7740.25
7740.58
7740.92
7741.28
7741.65
7742.05
7742.46
7742.88
7743.32
7743.77
7744.23
7744.69
7745.16
7745.63
7746.1
7746.56
7747.02
7747.46
7747.89
7748.3
7748.69
7749.06
7749.4
7749.71
7749.99
7750.23
7750.43
7750.59
7750.71
7750.79
7750.82
7750.8
7750.74
7750.64
7750.49
7750.3
7750.07
7749.8
7749.5
7749.16
7748.79
7748.4
7747.99
7747.55
7747.1
7746.64
7746.16
7745.68
7745.2
7744.72
7744.23
7743.76
7743.29
7742.83
7742.39
7741.96
7741.55
7741.15
7740.77
7740.41
7740.07
7739.75
7739.45
7739.17
7738.91
7738.68
7738.47
7738.3
7738.18
7738.11
7738.09
7321.58
7321.6
7321.67
7321.8
7321.96
7322.16
7322.39
7322.65
7322.93
7323.24
7323.57
7323.91
7324.28
7324.67
7325.07
7325.49
7325.92
7326.37
7326.83
7327.3
7327.77
7328.25
7328.72
7329.2
7329.67
7330.13
7330.58
7331.02
7331.44
7331.83
7332.2
7332.55
7332.86
7333.14
7333.38
7333.58
7333.75
7333.87
7333.94
7333.97
7333.96
7333.9
7333.79
7333.64
7333.45
7333.22
7332.95
7332.64
7332.3
7331.94
7331.54
7331.12
7330.68
7330.22
7329.75
7329.27
7328.79
7328.29
7327.8
7327.31
7326.83
7326.35
7325.89
7325.43
7324.99
7324.57
7324.16
7323.78
7323.41
7323.06
7322.74
7322.43
7322.15
7321.9
7321.67
7321.47
7321.31
7321.18
7321.11
7321.09
6904.52
6904.56
6904.64
6904.76
6904.93
6905.12
6905.35
6905.61
6905.9
6906.21
6906.54
6906.89
6907.27
6907.67
6908.08
6908.51
6908.95
6909.41
6909.88
6910.36
6910.85
6911.33
6911.82
6912.31
6912.79
6913.26
6913.72
6914.17
6914.59
6914.99
6915.37
6915.72
6916.04
6916.32
6916.57
6916.78
6916.94
6917.06
6917.14
6917.17
6917.15
6917.09
6916.99
6916.84
6916.64
6916.41
6916.13
6915.82
6915.48
6915.1
6914.7
6914.27
6913.82
6913.36
6912.88
6912.39
6911.89
6911.39
6910.89
6910.38
6909.89
6909.4
6908.92
6908.46
6908.01
6907.58
6907.16
6906.77
6906.39
6906.04
6905.71
6905.4
6905.12
6904.86
6904.63
6904.43
6904.27
6904.14
6904.06
6904.03
6487.42
6487.47
6487.56
6487.69
6487.86
6488.06
6488.29
6488.55
6488.84
6489.15
6489.49
6489.86
6490.24
6490.65
6491.07
6491.51
6491.97
6492.44
6492.93
6493.42
6493.92
6494.42
6494.92
6495.42
6495.92
6496.4
6496.87
6497.33
6497.77
6498.18
6498.57
6498.93
6499.25
6499.54
6499.79
6500.01
6500.17
6500.3
6500.38
6500.41
6500.39
6500.33
6500.22
6500.07
6499.87
6499.63
6499.35
6499.03
6498.67
6498.29
6497.88
6497.44
6496.98
6496.5
6496.01
6495.51
6495
6494.48
6493.97
6493.45
6492.94
6492.44
6491.95
6491.47
6491.01
6490.57
6490.14
6489.74
6489.35
6488.99
6488.66
6488.34
6488.06
6487.79
6487.56
6487.36
6487.19
6487.06
6486.97
6486.92
6070.27
6070.34
6070.44
6070.58
6070.76
6070.96
6071.2
6071.46
6071.76
6072.08
6072.42
6072.8
6073.19
6073.61
6074.04
6074.5
6074.97
6075.46
6075.96
6076.47
6076.98
6077.5
6078.02
6078.54
6079.05
6079.55
6080.04
6080.51
6080.96
6081.39
6081.79
6082.16
6082.5
6082.8
6083.06
6083.28
6083.45
6083.58
6083.66
6083.7
6083.68
6083.62
6083.5
6083.34
6083.14
6082.89
6082.6
6082.27
6081.9
6081.51
6081.08
6080.63
6080.16
6079.66
6079.16
6078.64
6078.11
6077.58
6077.05
6076.52
6075.99
6075.47
6074.97
6074.48
6074
6073.54
6073.11
6072.69
6072.3
6071.93
6071.58
6071.26
6070.97
6070.7
6070.47
6070.26
6070.08
6069.94
6069.84
6069.77
5653.09
5653.17
5653.29
5653.44
5653.62
5653.84
5654.08
5654.35
5654.65
5654.98
5655.33
5655.71
5656.12
5656.55
5657
5657.47
5657.96
5658.46
5658.98
5659.51
5660.04
5660.58
5661.12
5661.66
5662.19
5662.71
5663.22
5663.71
5664.18
5664.62
5665.04
5665.42
5665.77
5666.09
5666.36
5666.59
5666.77
5666.91
5666.99
5667.03
5667.01
5666.94
5666.83
5666.66
5666.45
5666.19
5665.89
5665.54
5665.16
5664.75
5664.31
5663.84
5663.35
5662.84
5662.31
5661.77
5661.23
5660.67
5660.12
5659.57
5659.03
5658.49
5657.97
5657.46
5656.97
5656.5
5656.05
5655.62
5655.22
5654.84
5654.48
5654.16
5653.86
5653.58
5653.34
5653.13
5652.94
5652.79
5652.67
5652.59
5235.88
5235.97
5236.11
5236.27
5236.46
5236.68
5236.93
5237.21
5237.52
5237.86
5238.22
5238.61
5239.03
5239.47
5239.94
5240.42
5240.93
5241.46
5241.99
5242.54
5243.1
5243.66
5244.23
5244.78
5245.34
5245.88
5246.41
5246.92
5247.41
5247.88
5248.31
5248.72
5249.09
5249.41
5249.7
5249.94
5250.13
5250.28
5250.37
5250.4
5250.39
5250.32
5250.2
5250.02
5249.8
5249.53
5249.21
5248.85
5248.45
5248.02
5247.56
5247.07
5246.56
5246.02
5245.47
5244.91
5244.34
5243.77
5243.2
5242.62
5242.06
5241.5
5240.96
5240.43
5239.92
5239.43
5238.97
5238.53
5238.11
5237.72
5237.36
5237.03
5236.72
5236.44
5236.19
5235.97
5235.78
5235.61
5235.48
5235.38
4818.63
4818.75
4818.9
4819.07
4819.27
4819.5
4819.76
4820.05
4820.37
4820.71
4821.09
4821.49
4821.92
4822.38
4822.86
4823.36
4823.89
4824.44
4825
4825.57
4826.15
4826.74
4827.33
4827.92
4828.5
4829.07
4829.62
4830.16
4830.67
4831.16
4831.62
4832.05
4832.43
4832.78
4833.08
4833.34
4833.54
4833.69
4833.79
4833.83
4833.82
4833.74
4833.61
4833.43
4833.19
4832.9
4832.57
4832.19
4831.77
4831.32
4830.83
4830.32
4829.78
4829.22
4828.65
4828.06
4827.46
4826.86
4826.26
4825.67
4825.08
4824.5
4823.93
4823.38
4822.85
4822.35
4821.87
4821.41
4820.98
4820.58
4820.21
4819.87
4819.55
4819.27
4819.01
4818.78
4818.58
4818.41
4818.25
4818.14
4401.36
4401.49
4401.66
4401.85
4402.06
4402.3
4402.56
4402.86
4403.18
4403.54
4403.92
4404.34
4404.78
4405.26
4405.76
4406.28
4406.83
4407.4
4407.99
4408.59
4409.2
4409.82
4410.44
4411.06
4411.67
4412.27
4412.85
4413.42
4413.96
4414.48
4414.96
4415.41
4415.82
4416.19
4416.51
4416.78
4417
4417.16
4417.27
4417.31
4417.3
4417.22
4417.08
4416.88
4416.63
4416.33
4415.97
4415.57
4415.13
4414.65
4414.13
4413.59
4413.02
4412.44
4411.83
4411.21
4410.59
4409.96
4409.33
4408.7
4408.08
4407.48
4406.88
4406.31
4405.76
4405.23
4404.73
4404.26
4403.82
4403.41
4403.03
4402.68
4402.36
4402.07
4401.81
4401.57
4401.36
4401.17
4401.01
4400.87
3984.05
3984.2
3984.39
3984.59
3984.81
3985.06
3985.33
3985.63
3985.96
3986.32
3986.72
3987.15
3987.61
3988.11
3988.63
3989.18
3989.76
3990.35
3990.97
3991.6
3992.25
3992.9
3993.55
3994.2
3994.85
3995.48
3996.1
3996.7
3997.28
3997.82
3998.34
3998.81
3999.25
3999.65
3999.99
4000.29
4000.52
4000.7
4000.81
4000.86
4000.84
4000.76
4000.61
4000.4
4000.13
3999.8
3999.42
3998.99
3998.52
3998.01
3997.46
3996.89
3996.29
3995.67
3995.03
3994.38
3993.72
3993.05
3992.39
3991.73
3991.08
3990.44
3989.82
3989.22
3988.64
3988.09
3987.57
3987.08
3986.63
3986.2
3985.81
3985.46
3985.13
3984.84
3984.57
3984.33
3984.12
3983.91
3983.73
3983.57
3566.72
3566.89
3567.1
3567.32
3567.55
3567.79
3568.07
3568.37
3568.7
3569.07
3569.48
3569.93
3570.41
3570.92
3571.47
3572.04
3572.65
3573.28
3573.93
3574.6
3575.28
3575.97
3576.66
3577.35
3578.03
3578.71
3579.37
3580.01
3580.62
3581.2
3581.75
3582.26
3582.73
3583.15
3583.53
3583.85
3584.1
3584.29
3584.41
3584.47
3584.45
3584.36
3584.2
3583.98
3583.69
3583.33
3582.92
3582.46
3581.96
3581.41
3580.83
3580.22
3579.58
3578.93
3578.25
3577.56
3576.85
3576.15
3575.45
3574.75
3574.06
3573.39
3572.74
3572.1
3571.5
3570.92
3570.38
3569.87
3569.4
3568.96
3568.56
3568.2
3567.87
3567.58
3567.31
3567.07
3566.84
3566.63
3566.42
3566.24
3149.36
3149.56
3149.8
3150.03
3150.26
3150.5
3150.77
3151.08
3151.41
3151.79
3152.21
3152.67
3153.17
3153.71
3154.28
3154.88
3155.52
3156.18
3156.87
3157.58
3158.3
3159.03
3159.77
3160.5
3161.23
3161.95
3162.66
3163.34
3163.99
3164.61
3165.2
3165.74
3166.25
3166.71
3167.12
3167.47
3167.75
3167.95
3168.09
3168.15
3168.13
3168.03
3167.86
3167.62
3167.3
3166.92
3166.48
3165.98
3165.43
3164.85
3164.23
3163.58
3162.9
3162.2
3161.48
3160.74
3160
3159.25
3158.5
3157.76
3157.03
3156.32
3155.63
3154.96
3154.32
3153.72
3153.15
3152.63
3152.14
3151.69
3151.28
3150.91
3150.58
3150.29
3150.02
3149.78
3149.56
3149.33
3149.1
3148.88
2731.97
2732.23
2732.49
2732.72
2732.95
2733.19
2733.45
2733.75
2734.09
2734.47
2734.9
2735.38
2735.9
2736.46
2737.06
2737.69
2738.36
2739.07
2739.8
2740.55
2741.32
2742.1
2742.88
2743.66
2744.45
2745.22
2745.97
2746.69
2747.39
2748.06
2748.68
2749.27
2749.82
2750.32
2750.77
2751.15
2751.46
2751.69
2751.84
2751.9
2751.88
2751.78
2751.59
2751.33
2750.98
2750.56
2750.08
2749.53
2748.94
2748.31
2747.65
2746.95
2746.23
2745.49
2744.72
2743.93
2743.14
2742.34
2741.54
2740.76
2739.98
2739.23
2738.49
2737.79
2737.11
2736.48
2735.89
2735.34
2734.83
2734.37
2733.95
2733.58
2733.25
2732.97
2732.72
2732.49
2732.27
2732.04
2731.77
2731.52
2314.6
2314.9
2315.2
2315.42
2315.63
2315.84
2316.09
2316.38
2316.72
2317.1
2317.55
2318.04
2318.58
2319.17
2319.8
2320.46
2321.17
2321.92
2322.7
2323.5
2324.32
2325.15
2325.99
2326.83
2327.67
2328.5
2329.3
2330.08
2330.83
2331.54
2332.21
2332.84
2333.44
2333.99
2334.49
2334.91
2335.25
2335.5
2335.67
2335.74
2335.72
2335.61
2335.41
2335.12
2334.74
2334.28
2333.74
2333.14
2332.49
2331.81
2331.1
2330.36
2329.59
2328.8
2327.97
2327.13
2326.28
2325.42
2324.58
2323.74
2322.91
2322.11
2321.33
2320.58
2319.86
2319.2
2318.58
2318.01
2317.48
2317.01
2316.58
2316.2
2315.88
2315.61
2315.38
2315.18
2314.99
2314.76
2314.47
2314.16
1897.27
1897.62
1897.93
1898.13
1898.29
1898.46
1898.68
1898.95
1899.28
1899.67
1900.13
1900.65
1901.22
1901.84
1902.49
1903.19
1903.94
1904.74
1905.58
1906.44
1907.32
1908.2
1909.1
1910
1910.9
1911.8
1912.67
1913.51
1914.3
1915.06
1915.78
1916.46
1917.11
1917.72
1918.28
1918.75
1919.13
1919.41
1919.6
1919.68
1919.66
1919.54
1919.32
1919
1918.59
1918.08
1917.47
1916.8
1916.09
1915.35
1914.6
1913.81
1912.99
1912.14
1911.25
1910.35
1909.43
1908.51
1907.6
1906.71
1905.83
1904.97
1904.13
1903.33
1902.57
1901.87
1901.22
1900.63
1900.08
1899.59
1899.15
1898.77
1898.46
1898.21
1898.02
1897.86
1897.71
1897.52
1897.21
1896.85
1480.05
1480.44
1480.73
1480.85
1480.93
1481.04
1481.22
1481.46
1481.78
1482.17
1482.65
1483.2
1483.8
1484.45
1485.14
1485.87
1486.67
1487.53
1488.43
1489.36
1490.3
1491.24
1492.2
1493.17
1494.15
1495.13
1496.07
1496.97
1497.83
1498.63
1499.39
1500.11
1500.82
1501.52
1502.16
1502.69
1503.12
1503.43
1503.63
1503.72
1503.71
1503.57
1503.34
1502.99
1502.54
1501.97
1501.28
1500.51
1499.71
1498.93
1498.13
1497.29
1496.42
1495.51
1494.56
1493.59
1492.59
1491.59
1490.62
1489.66
1488.73
1487.8
1486.9
1486.04
1485.22
1484.48
1483.81
1483.2
1482.63
1482.11
1481.65
1481.27
1480.97
1480.75
1480.61
1480.53
1480.47
1480.35
1480.04
1479.65
1063.05
1063.46
1063.66
1063.62
1063.55
1063.57
1063.7
1063.91
1064.2
1064.6
1065.1
1065.69
1066.35
1067.04
1067.74
1068.49
1069.33
1070.27
1071.26
1072.27
1073.27
1074.28
1075.29
1076.34
1077.42
1078.49
1079.52
1080.49
1081.4
1082.24
1083.02
1083.77
1084.55
1085.38
1086.15
1086.77
1087.24
1087.59
1087.81
1087.91
1087.89
1087.75
1087.49
1087.12
1086.62
1085.99
1085.19
1084.25
1083.34
1082.5
1081.68
1080.82
1079.89
1078.91
1077.9
1076.84
1075.76
1074.66
1073.61
1072.6
1071.61
1070.62
1069.64
1068.69
1067.8
1067.01
1066.34
1065.73
1065.13
1064.57
1064.09
1063.69
1063.4
1063.22
1063.17
1063.2
1063.27
1063.3
1063.09
1062.68
646.927
647.144
646.899
646.471
646.132
645.997
646.085
646.269
646.514
646.898
647.447
648.106
648.851
649.604
650.279
650.99
651.89
652.946
654.054
655.16
656.241
657.288
658.341
659.466
660.681
661.89
663.017
664.064
665.042
665.921
666.682
667.384
668.243
669.316
670.302
671.01
671.523
671.896
672.122
672.235
672.22
672.05
671.776
671.397
670.875
670.202
669.22
667.983
666.873
666.04
665.271
664.391
663.402
662.354
661.266
660.126
658.909
657.667
656.541
655.515
654.471
653.393
652.309
651.249
650.258
649.422
648.778
648.214
647.586
646.949
646.412
645.992
645.691
645.554
645.629
645.859
646.186
646.58
646.811
646.589
251.492
251.708
250.938
250.158
249.671
249.52
249.601
249.624
249.735
250.054
250.55
251.139
251.876
252.678
253.297
253.88
254.654
255.57
256.522
257.496
258.512
259.598
260.774
261.877
262.668
263.489
264.459
265.478
266.483
267.431
268.288
269.084
270.061
271.094
271.698
271.88
271.949
272.019
272.068
272.08
272.052
271.976
271.862
271.718
271.576
271.428
271.022
270.124
268.935
267.996
267.154
266.199
265.145
264.073
263.085
262.341
261.633
260.49
259.203
258.081
257.067
256.112
255.194
254.287
253.417
252.726
252.281
251.779
251.057
250.335
249.815
249.445
249.187
249.142
249.336
249.608
250.027
250.754
251.522
251.318
27.3197
27.2951
26.8453
26.4748
26.277
26.2109
26.122
26.0704
26.2559
26.4534
26.6381
26.8452
27.1065
27.4064
27.8698
28.3751
28.7479
29.0683
29.409
29.7972
30.2639
30.8288
31.4295
31.893
32.2157
32.4801
32.8742
33.3481
33.8237
34.3415
34.869
35.3539
35.7348
35.5753
35.2605
35.0286
34.8408
34.7166
34.6534
34.6025
34.5763
34.6037
34.6342
34.6762
34.7956
34.9738
35.2771
35.7201
35.5658
35.0789
34.5402
34.0103
33.5058
32.9875
32.5368
32.2194
31.88
31.5855
31.0157
30.4115
29.9137
29.5156
29.1774
28.866
28.5632
28.221
27.7587
27.2718
26.9388
26.6742
26.4614
26.3045
26.2055
26.1694
26.1098
26.1309
26.3273
26.71
27.1697
27.2125
-9.88593
-9.87367
-9.83758
-9.78444
-9.75379
-9.77047
-9.97339
-9.89797
-9.60995
-9.51754
-9.5405
-9.57374
-9.64331
-9.84652
-9.56307
-9.14888
-9.04951
-9.04992
-9.04653
-9.03502
-9.02092
-9.01837
-9.08306
-9.27732
-8.83673
-8.70785
-8.69486
-8.71737
-8.80238
-8.8372
-8.85277
-8.89408
-9.12316
-10.0434
-10.4722
-10.5118
-10.5091
-10.5075
-10.5078
-10.5076
-10.506
-10.5033
-10.5008
-10.4999
-10.4997
-10.4981
-10.3206
-9.44377
-8.75791
-8.65772
-8.64142
-8.58091
-8.46578
-8.43651
-8.45214
-8.66612
-9.29845
-8.90821
-8.70382
-8.66391
-8.67348
-8.69009
-8.70022
-8.69079
-8.67958
-8.81728
-9.36942
-9.76639
-9.66439
-9.52382
-9.51766
-9.53648
-9.54779
-9.63375
-9.94151
-10.0392
-10.0135
-10.0219
-10.0551
-10.0564
-10.3671
-10.3598
-10.3389
-10.3079
-10.2841
-10.2721
-10.3034
-10.3275
-10.2974
-10.2909
-10.2986
-10.3208
-10.37
-10.4323
-10.363
-10.2673
-10.2471
-10.2461
-10.2384
-10.2279
-10.2181
-10.2136
-10.2436
-10.3024
-10.1756
-10.1645
-10.1822
-10.2115
-10.2794
-10.3294
-10.3641
-10.4025
-10.579
-10.928
-10.9979
-10.9989
-10.9948
-10.9944
-10.9946
-10.9942
-10.9927
-10.9902
-10.9875
-10.9849
-10.9866
-10.9956
-10.9688
-10.7377
-10.3729
-10.2769
-10.238
-10.1694
-10.0796
-10.0421
-10.008
-10.0269
-10.2019
-10.0966
-10.0284
-10.0111
-10.0157
-10.0257
-10.0361
-10.0377
-10.0307
-10.0419
-10.195
-10.3139
-10.3128
-10.2953
-10.3014
-10.3214
-10.3374
-10.3813
-10.4849
-10.5133
-10.515
-10.5309
-10.5419
-10.5383
-10.8717
-10.8654
-10.8468
-10.8212
-10.7999
-10.7853
-10.7812
-10.8745
-11.0687
-11.1925
-11.2402
-11.2776
-11.3156
-11.3113
-11.3643
-11.4735
-11.4871
-11.4829
-11.4724
-11.4614
-11.4527
-11.4474
-11.4483
-11.4153
-11.4882
-11.5074
-11.5071
-11.5043
-11.5017
-11.5039
-11.5093
-11.5104
-11.5112
-11.5007
-11.4962
-11.4936
-11.4894
-11.4872
-11.4871
-11.4866
-11.4852
-11.4829
-11.4807
-11.4801
-11.4804
-11.4793
-11.4773
-11.488
-11.4942
-11.4896
-11.4828
-11.4769
-11.4766
-11.4745
-11.461
-11.4057
-11.3104
-11.3559
-11.3861
-11.3804
-11.3784
-11.3789
-11.3801
-11.3777
-11.3696
-11.3132
-11.1704
-11.1148
-11.1167
-11.1133
-11.0953
-11.0811
-11.0655
-11.041
-11.0196
-11.0177
-11.0242
-11.0329
-11.0432
-11.0375
-11.3941
-11.4006
-11.392
-11.3761
-11.3703
-11.3727
-11.3925
-11.4926
-11.638
-11.7762
-11.8865
-11.9664
-12.0121
-12.0143
-12.0135
-12.0174
-12.0227
-12.0242
-12.0208
-12.0161
-12.0115
-12.0079
-12.0068
-12.0083
-12.0049
-12.0019
-11.9986
-11.996
-11.9943
-11.9936
-11.993
-11.9914
-11.9897
-11.9884
-11.9879
-11.986
-11.9812
-11.9797
-11.9791
-11.9784
-11.9772
-11.975
-11.9724
-11.9713
-11.9706
-11.9691
-11.9681
-11.9687
-11.9687
-11.968
-11.9665
-11.9655
-11.9658
-11.9672
-11.9685
-11.9697
-11.9687
-11.9549
-11.9439
-11.9369
-11.927
-11.9129
-11.8944
-11.8745
-11.8567
-11.8385
-11.8172
-11.7895
-11.749
-11.686
-11.6299
-11.5894
-11.5636
-11.5473
-11.5382
-11.5366
-11.5421
-11.5448
-11.5404
-11.5313
-11.9674
-11.9684
-11.9608
-11.9726
-12.0027
-12.0495
-12.1061
-12.1964
-12.3057
-12.4083
-12.4696
-12.5005
-12.5132
-12.5213
-12.5235
-12.5214
-12.5209
-12.5192
-12.5136
-12.5074
-12.5026
-12.499
-12.4965
-12.4944
-12.4923
-12.4907
-12.4896
-12.4881
-12.4867
-12.4858
-12.4853
-12.4847
-12.484
-12.4828
-12.4823
-12.478
-12.4738
-12.4727
-12.4718
-12.4708
-12.4694
-12.4674
-12.4648
-12.464
-12.4648
-12.4652
-12.4643
-12.4636
-12.4624
-12.4607
-12.4587
-12.4565
-12.4547
-12.4526
-12.4508
-12.4504
-12.4468
-12.4422
-12.4355
-12.4294
-12.4216
-12.4116
-12.3965
-12.3764
-12.3501
-12.3244
-12.3001
-12.2651
-12.2277
-12.1899
-12.1484
-12.1056
-12.0664
-12.0411
-12.0332
-12.0379
-12.0491
-12.0585
-12.0556
-12.0425
-12.5699
-12.5543
-12.5601
-12.5959
-12.6494
-12.7226
-12.815
-12.923
-13.0138
-13.0587
-13.0549
-13.0348
-13.0268
-13.0267
-13.0207
-13.0138
-13.0126
-13.0096
-13.0042
-12.9977
-12.9926
-12.9891
-12.9866
-12.9848
-12.9831
-12.9814
-12.9795
-12.9779
-12.9766
-12.9756
-12.9744
-12.9731
-12.9709
-12.9701
-12.9718
-12.9696
-12.9672
-12.9662
-12.965
-12.9637
-12.9622
-12.9605
-12.9585
-12.9567
-12.9564
-12.9546
-12.9534
-12.9525
-12.9514
-12.9501
-12.9485
-12.9467
-12.9451
-12.9437
-12.9424
-12.9405
-12.9366
-12.9314
-12.9258
-12.92
-12.913
-12.9028
-12.8912
-12.8715
-12.846
-12.8219
-12.8002
-12.7716
-12.7374
-12.7008
-12.6581
-12.6107
-12.5626
-12.5283
-12.5196
-12.5329
-12.5494
-12.5657
-12.5771
-12.5726
-13.1706
-13.1577
-13.1729
-13.2149
-13.2859
-13.3748
-13.479
-13.5912
-13.6751
-13.6821
-13.6373
-13.5861
-13.5552
-13.5358
-13.5179
-13.5082
-13.5062
-13.5031
-13.4959
-13.4881
-13.4822
-13.4785
-13.4758
-13.4736
-13.4718
-13.4701
-13.4689
-13.4678
-13.4669
-13.4662
-13.4654
-13.4648
-13.4626
-13.4619
-13.463
-13.4626
-13.4614
-13.46
-13.4587
-13.4573
-13.4558
-13.4545
-13.4536
-13.4516
-13.4496
-13.4471
-13.4465
-13.4456
-13.4436
-13.4416
-13.4392
-13.4369
-13.4346
-13.4324
-13.4307
-13.4288
-13.4262
-13.423
-13.419
-13.4153
-13.4112
-13.4056
-13.3938
-13.3739
-13.3468
-13.3194
-13.2972
-13.2767
-13.2535
-13.224
-13.1841
-13.1341
-13.0792
-13.0356
-13.0204
-13.0352
-13.0586
-13.0779
-13.0949
-13.0999
-13.7842
-13.7546
-13.7606
-13.8256
-13.9139
-14.0054
-14.1038
-14.1935
-14.2449
-14.2368
-14.1848
-14.1279
-14.0854
-14.0512
-14.0214
-14.0027
-13.995
-13.9902
-13.9833
-13.9756
-13.9699
-13.9667
-13.9646
-13.963
-13.9616
-13.9604
-13.9594
-13.9585
-13.9577
-13.957
-13.9561
-13.9553
-13.9541
-13.9545
-13.9573
-13.9582
-13.9568
-13.9544
-13.9527
-13.9511
-13.95
-13.9495
-13.95
-13.9494
-13.9449
-13.9409
-13.9395
-13.9379
-13.936
-13.934
-13.9318
-13.9295
-13.9271
-13.9248
-13.9224
-13.9198
-13.9167
-13.9132
-13.9101
-13.9074
-13.9053
-13.9022
-13.8944
-13.8772
-13.8488
-13.8164
-13.7923
-13.7741
-13.7591
-13.7396
-13.7077
-13.663
-13.6204
-13.5882
-13.566
-13.5665
-13.584
-13.6018
-13.6194
-13.6297
-14.3567
-14.315
-14.3253
-14.4159
-14.5061
-14.5867
-14.6682
-14.7301
-14.7565
-14.7419
-14.6962
-14.6461
-14.6055
-14.5683
-14.5296
-14.4975
-14.4799
-14.4722
-14.4665
-14.4606
-14.4562
-14.4541
-14.4529
-14.4519
-14.4511
-14.4503
-14.4496
-14.4491
-14.4486
-14.4481
-14.4477
-14.4472
-14.4462
-14.4475
-14.453
-14.4555
-14.4532
-14.4492
-14.4465
-14.4448
-14.444
-14.4444
-14.4468
-14.4473
-14.4413
-14.4356
-14.4335
-14.4316
-14.4292
-14.4268
-14.4245
-14.4222
-14.4198
-14.4175
-14.4152
-14.4127
-14.4099
-14.4071
-14.4048
-14.4037
-14.4042
-14.4058
-14.4036
-14.3871
-14.351
-14.311
-14.2813
-14.267
-14.2598
-14.2507
-14.2337
-14.2169
-14.2014
-14.1855
-14.1664
-14.1377
-14.1366
-14.1467
-14.1607
-14.1735
-14.8589
-14.8515
-14.8926
-14.9737
-15.0478
-15.1185
-15.1904
-15.2362
-15.2441
-15.2244
-15.1864
-15.1478
-15.1153
-15.0805
-15.0368
-14.9932
-14.9646
-14.9525
-14.9475
-14.9441
-14.9421
-14.9414
-14.9413
-14.9411
-14.9409
-14.9406
-14.9402
-14.94
-14.9397
-14.9395
-14.9395
-14.9394
-14.9393
-14.9409
-14.9481
-14.9516
-14.9487
-14.9428
-14.9392
-14.9373
-14.9366
-14.9379
-14.9415
-14.9423
-14.9363
-14.9303
-14.9279
-14.9256
-14.9228
-14.9204
-14.9182
-14.916
-14.9138
-14.9117
-14.9096
-14.9075
-14.9054
-14.9037
-14.9032
-14.9051
-14.9111
-14.9208
-14.927
-14.9131
-14.8728
-14.8264
-14.7948
-14.7824
-14.7789
-14.7796
-14.7892
-14.802
-14.7922
-14.7797
-14.7747
-14.7445
-14.716
-14.7126
-14.7156
-14.7237
-15.3512
-15.3739
-15.4422
-15.5008
-15.5677
-15.6306
-15.6884
-15.7197
-15.7178
-15.6976
-15.6699
-15.6443
-15.6199
-15.587
-15.5396
-15.4882
-15.4516
-15.4355
-15.4308
-15.4296
-15.4294
-15.4299
-15.4306
-15.431
-15.4312
-15.4313
-15.4312
-15.4312
-15.4311
-15.4311
-15.4313
-15.4318
-15.4322
-15.4338
-15.4403
-15.4441
-15.4412
-15.434
-15.43
-15.4281
-15.4274
-15.429
-15.4324
-15.4331
-15.4285
-15.4239
-15.422
-15.4196
-15.4168
-15.4146
-15.4127
-15.4109
-15.4092
-15.4076
-15.4061
-15.4048
-15.4039
-15.404
-15.4062
-15.4127
-15.4267
-15.4482
-15.4648
-15.4518
-15.4108
-15.3659
-15.3381
-15.3244
-15.316
-15.3183
-15.3389
-15.3633
-15.3722
-15.3669
-15.3694
-15.3609
-15.3204
-15.2932
-15.2739
-15.2689
-15.8755
-15.8959
-15.9571
-16.0143
-16.0762
-16.1316
-16.1777
-16.1976
-16.1895
-16.1718
-16.1546
-16.1394
-16.1194
-16.0859
-16.0354
-15.9806
-15.9412
-15.9237
-15.9191
-15.9186
-15.9191
-15.9201
-15.9211
-15.9218
-15.9222
-15.9224
-15.9225
-15.9226
-15.9227
-15.9228
-15.9231
-15.9239
-15.9244
-15.9253
-15.929
-15.9317
-15.9292
-15.9232
-15.9195
-15.9179
-15.9172
-15.9182
-15.9207
-15.9212
-15.9184
-15.9161
-15.9153
-15.9133
-15.9108
-15.909
-15.9076
-15.9064
-15.9054
-15.9047
-15.9043
-15.9044
-15.9053
-15.9079
-15.9136
-15.9257
-15.9492
-15.982
-16.0018
-15.9838
-15.9419
-15.8999
-15.8727
-15.8515
-15.8386
-15.8434
-15.8701
-15.9055
-15.9394
-15.9506
-15.967
-15.9746
-15.9354
-15.8831
-15.8342
-15.8149
-16.4121
-16.4283
-16.47
-16.5208
-16.5793
-16.6326
-16.6703
-16.6784
-16.6644
-16.6487
-16.6373
-16.6268
-16.6069
-16.5716
-16.5207
-16.4687
-16.433
-16.417
-16.4121
-16.411
-16.4113
-16.412
-16.4128
-16.4134
-16.4138
-16.414
-16.4142
-16.4142
-16.4143
-16.4145
-16.4147
-16.4154
-16.4158
-16.4157
-16.4164
-16.4174
-16.4158
-16.4119
-16.4092
-16.4079
-16.4073
-16.4077
-16.409
-16.4093
-16.4081
-16.4077
-16.4078
-16.4065
-16.4049
-16.4038
-16.403
-16.4025
-16.4023
-16.4026
-16.4036
-16.4055
-16.4088
-16.4144
-16.4241
-16.4421
-16.4742
-16.5148
-16.5343
-16.5131
-16.4698
-16.4298
-16.3999
-16.3728
-16.3635
-16.3812
-16.4253
-16.4739
-16.5233
-16.5437
-16.5711
-16.5856
-16.5492
-16.4765
-16.3984
-16.3667
-16.9433
-16.971
-16.9962
-17.0366
-17.0814
-17.1328
-17.1619
-17.159
-17.1384
-17.1214
-17.1109
-17.099
-17.0773
-17.0418
-16.9963
-16.9539
-16.9263
-16.913
-16.9077
-16.9057
-16.9051
-16.9052
-16.9055
-16.9057
-16.9059
-16.906
-16.9061
-16.9061
-16.9061
-16.9062
-16.9063
-16.9066
-16.9069
-16.906
-16.9051
-16.9048
-16.9038
-16.9016
-16.9
-16.8991
-16.8985
-16.8987
-16.8993
-16.8994
-16.8992
-16.8997
-16.9004
-16.8999
-16.8992
-16.8988
-16.8987
-16.899
-16.8997
-16.9012
-16.9036
-16.9073
-16.913
-16.9218
-16.9356
-16.959
-16.9981
-17.0466
-17.0729
-17.0566
-17.0125
-16.9681
-16.9339
-16.9157
-16.9221
-16.9568
-17.0127
-17.0722
-17.1257
-17.1475
-17.1742
-17.1912
-17.161
-17.0657
-16.9655
-16.9299
-17.4689
-17.5198
-17.522
-17.5518
-17.5796
-17.6203
-17.6426
-17.633
-17.6081
-17.5884
-17.5745
-17.5585
-17.5353
-17.504
-17.4694
-17.4398
-17.4204
-17.4096
-17.404
-17.4011
-17.3997
-17.399
-17.3987
-17.3986
-17.3984
-17.3983
-17.3983
-17.3982
-17.3981
-17.3981
-17.398
-17.3979
-17.398
-17.3969
-17.3958
-17.3951
-17.3944
-17.3931
-17.3921
-17.3914
-17.3909
-17.3912
-17.3915
-17.3917
-17.392
-17.3927
-17.3935
-17.3937
-17.3937
-17.394
-17.3946
-17.3956
-17.3973
-17.3998
-17.4036
-17.4091
-17.417
-17.4285
-17.4458
-17.473
-17.5163
-17.5709
-17.6074
-17.6032
-17.5674
-17.5245
-17.4875
-17.4783
-17.4959
-17.5372
-17.5997
-17.6707
-17.7027
-17.7297
-17.7579
-17.7792
-17.7574
-17.6294
-17.5145
-17.4817
-17.9951
-18.0364
-18.0241
-18.0463
-18.065
-18.0931
-18.1091
-18.0969
-18.0722
-18.0521
-18.0354
-18.017
-17.9952
-17.9708
-17.9471
-17.9278
-17.9142
-17.9054
-17.8999
-17.8964
-17.8943
-17.893
-17.8922
-17.8916
-17.8912
-17.8909
-17.8906
-17.8904
-17.8902
-17.89
-17.8899
-17.8896
-17.8894
-17.8885
-17.8877
-17.8871
-17.8865
-17.8856
-17.8849
-17.8843
-17.884
-17.8844
-17.8848
-17.8851
-17.8855
-17.8863
-17.8872
-17.8877
-17.8883
-17.8892
-17.8903
-17.8921
-17.8946
-17.8981
-17.9031
-17.91
-17.9197
-17.9331
-17.9525
-17.9814
-18.0249
-18.0806
-18.1244
-18.1311
-18.1057
-18.0797
-18.0549
-18.0334
-18.0425
-18.0885
-18.1594
-18.2218
-18.2408
-18.2754
-18.3207
-18.3506
-18.2929
-18.1366
-18.0244
-17.9961
-18.5247
-18.5327
-18.5112
-18.5232
-18.5407
-18.5554
-18.5636
-18.5513
-18.5305
-18.5132
-18.4976
-18.4809
-18.4632
-18.4457
-18.4299
-18.417
-18.4071
-18.3999
-18.3948
-18.3912
-18.3887
-18.387
-18.3857
-18.3848
-18.3841
-18.3835
-18.383
-18.3827
-18.3824
-18.3821
-18.3818
-18.3815
-18.3812
-18.3806
-18.38
-18.3795
-18.379
-18.3784
-18.3776
-18.3775
-18.3772
-18.3777
-18.3781
-18.3785
-18.3791
-18.38
-18.3809
-18.3818
-18.3828
-18.3841
-18.3859
-18.3883
-18.3915
-18.3958
-18.4017
-18.4096
-18.4203
-18.4348
-18.4547
-18.4831
-18.5237
-18.5753
-18.623
-18.6379
-18.6171
-18.6019
-18.5991
-18.573
-18.5673
-18.6116
-18.6788
-18.7187
-18.7456
-18.7898
-18.8428
-18.8421
-18.7396
-18.5847
-18.4968
-18.4733
-19.0524
-19.0264
-18.9995
-19.0081
-19.0144
-19.0113
-19.0102
-18.9994
-18.9847
-18.9724
-18.961
-18.9487
-18.9363
-18.9248
-18.9147
-18.9062
-18.8991
-18.8934
-18.8888
-18.8854
-18.8827
-18.8807
-18.8791
-18.8779
-18.8769
-18.8761
-18.8755
-18.875
-18.8746
-18.8742
-18.8739
-18.8735
-18.8732
-18.8727
-18.8722
-18.8718
-18.8714
-18.871
-18.8703
-18.8705
-18.8703
-18.8709
-18.8714
-18.8719
-18.8726
-18.8735
-18.8745
-18.8757
-18.8771
-18.8789
-18.8811
-18.884
-18.8877
-18.8927
-18.8992
-18.9077
-18.9188
-18.9333
-18.9525
-18.9787
-19.0144
-19.059
-19.1022
-19.1233
-19.1022
-19.0842
-19.0892
-19.0801
-19.0747
-19.1061
-19.151
-19.1782
-19.2064
-19.2434
-19.2694
-19.2303
-19.118
-19.0024
-18.9542
-18.9414
-19.5329
-19.4981
-19.4758
-19.4884
-19.4858
-19.4672
-19.455
-19.4459
-19.4378
-19.4318
-19.4258
-19.4188
-19.4117
-19.4055
-19.4002
-19.3952
-19.3905
-19.3861
-19.3822
-19.379
-19.3763
-19.3741
-19.3723
-19.3709
-19.3697
-19.3687
-19.368
-19.3673
-19.3668
-19.3663
-19.3659
-19.3655
-19.3652
-19.3648
-19.3644
-19.3641
-19.3637
-19.3634
-19.3629
-19.3632
-19.3632
-19.364
-19.3645
-19.3651
-19.3659
-19.3669
-19.3681
-19.3695
-19.3711
-19.3732
-19.3758
-19.3791
-19.3832
-19.3886
-19.3954
-19.404
-19.415
-19.4289
-19.4466
-19.4694
-19.4991
-19.5346
-19.57
-19.5861
-19.5715
-19.5554
-19.5502
-19.5444
-19.5462
-19.5711
-19.5961
-19.6073
-19.621
-19.6365
-19.629
-19.5751
-19.496
-19.4426
-19.4279
-19.4086
-19.9782
-19.9538
-19.9463
-19.9494
-19.9543
-19.9342
-19.9087
-19.8988
-19.896
-19.8947
-19.8941
-19.8916
-19.889
-19.8879
-19.8869
-19.8848
-19.8819
-19.8785
-19.8752
-19.8722
-19.8695
-19.8672
-19.8653
-19.8637
-19.8624
-19.8613
-19.8604
-19.8596
-19.859
-19.8584
-19.858
-19.8576
-19.8572
-19.8568
-19.8565
-19.8562
-19.8559
-19.8558
-19.8555
-19.8558
-19.856
-19.8568
-19.8574
-19.8581
-19.8589
-19.8601
-19.8614
-19.863
-19.8649
-19.8672
-19.87
-19.8735
-19.878
-19.8835
-19.8903
-19.8989
-19.9094
-19.9223
-19.938
-19.957
-19.9802
-20.006
-20.0309
-20.0417
-20.0351
-20.0254
-20.014
-20.0052
-20.0047
-20.0221
-20.0391
-20.04
-20.0341
-20.0249
-20.0039
-19.9698
-19.9342
-19.9112
-19.907
-19.9039
-20.4283
-20.4116
-20.4203
-20.4153
-20.4232
-20.4126
-20.3874
-20.3663
-20.3629
-20.3643
-20.3658
-20.3664
-20.3685
-20.3735
-20.3762
-20.376
-20.3739
-20.371
-20.368
-20.3651
-20.3624
-20.3601
-20.3581
-20.3563
-20.3549
-20.3537
-20.3527
-20.3518
-20.3511
-20.3505
-20.35
-20.3495
-20.3491
-20.3488
-20.3485
-20.3483
-20.3481
-20.3481
-20.348
-20.3482
-20.3486
-20.3494
-20.3501
-20.3509
-20.3518
-20.353
-20.3545
-20.3562
-20.3582
-20.3607
-20.3637
-20.3674
-20.3719
-20.3775
-20.3842
-20.3924
-20.4023
-20.414
-20.4277
-20.4433
-20.461
-20.4788
-20.4948
-20.5007
-20.4985
-20.4981
-20.4895
-20.4802
-20.4776
-20.488
-20.5017
-20.5028
-20.4905
-20.4699
-20.4484
-20.4287
-20.4126
-20.4081
-20.4145
-20.4237
-20.918
-20.8885
-20.9035
-20.8936
-20.8953
-20.8936
-20.8828
-20.858
-20.8412
-20.8406
-20.845
-20.8497
-20.8563
-20.8646
-20.8692
-20.8694
-20.8668
-20.8639
-20.8608
-20.8579
-20.8551
-20.8527
-20.8506
-20.8488
-20.8473
-20.846
-20.8449
-20.8439
-20.8431
-20.8425
-20.8419
-20.8415
-20.841
-20.8407
-20.8404
-20.8403
-20.8401
-20.8402
-20.8403
-20.8405
-20.8411
-20.8419
-20.8426
-20.8435
-20.8445
-20.8457
-20.8473
-20.8491
-20.8512
-20.8538
-20.8569
-20.8607
-20.8652
-20.8707
-20.8772
-20.8849
-20.8941
-20.9046
-20.9166
-20.9296
-20.9436
-20.9565
-20.967
-20.9697
-20.9701
-20.9749
-20.9741
-20.9665
-20.9673
-20.975
-20.9848
-20.9863
-20.9768
-20.9554
-20.9369
-20.9277
-20.9293
-20.9357
-20.942
-20.9582
-21.3978
-21.3861
-21.3905
-21.3839
-21.378
-21.3769
-21.3754
-21.3639
-21.3453
-21.3399
-21.3405
-21.3436
-21.3539
-21.366
-21.3711
-21.3666
-21.3606
-21.357
-21.3537
-21.3505
-21.3476
-21.3451