/*--------------------------------*- C++ -*----------------------------------*\
| =========                 |                                                 |
| \\      /  F ield         | OpenFOAM: The Open Source CFD Toolbox           |
|  \\    /   O peration     | Version:  2412                                  |
|   \\  /    A nd           | Website:  www.openfoam.com                      |
|    \\/     M anipulation  |                                                 |
\*---------------------------------------------------------------------------*/
FoamFile
{
    version     2.0;
    format      ascii;
    arch        "LSB;label=32;scalar=64";
    class       volScalarField;
    location    "4.4";
    object      alpha.glycerin;
}
// * * * * * * * * * * * * * * * * * * * * * * * * * * * * * * * * * * * * * //

dimensions      [0 0 0 0 0 0 0];

internalField   nonuniform List<scalar> 
6400
(
1
1
1
1
1
1
1
1
1
1
1
1
1
1
1
1
1
1
1
1
1
1
1
1
1
1
1
1
1
1
1
1
1
1
1
1
1
1
0.999999
0.999999
0.999999
0.999999
0.999999
0.999999
1
1
1
1
1
1
1
1
1
1
1
1
1
1
1
1
1
1
0.999999
0.999999
0.999999
0.999999
0.999999
1
1
1
0.999999
1
1
1
1
1
1
1
1
1
1
1
1
1
1
1
0.999999
0.999999
0.999999
0.999999
0.999999
0.999999
0.999999
0.999999
0.999999
0.999999
0.999999
0.999999
0.999999
0.999999
0.999999
0.999999
0.999999
0.999999
0.999999
0.999999
0.999999
1
1
1
1
1
1
1
1
1
1
1
1
1
1
1
1
1
1
1
1
1
1
1
1
1
1
1
1
1
1
1
0.999999
0.999998
0.999998
0.999998
0.999998
0.999998
0.999999
0.999999
0.999999
0.999999
0.999999
0.999999
0.999999
0.999999
0.999999
0.999999
0.999999
0.999999
0.999999
0.999999
0.999999
1
1
1
1
1
1
0.999999
0.999999
0.999999
0.999999
0.999999
0.999999
0.999999
0.999999
0.999999
0.999999
0.999999
0.999999
0.999999
0.999999
0.999999
0.999999
0.999999
0.999999
0.999999
0.999999
0.999999
1
1
1
1
1
1
1
1
1
1
1
1
1
1
1
1
1
1
1
1
1
1
1
1
1
1
1
0.999999
0.999999
0.999999
0.999999
0.999998
0.999998
0.999999
1
1
1
1
0.999999
0.999999
0.999999
0.999999
0.999999
0.999999
0.999999
0.999999
0.999999
0.999999
0.999999
1
1
0.999999
0.999999
1
1
1
1
1
1
1
1
1
1
1
1
1
1
1
1
1
1
1
0.999999
0.999999
0.999999
0.999999
0.999999
0.999999
0.999999
0.999999
0.999999
0.999999
0.999999
0.999999
0.999999
0.999999
0.999999
0.999998
0.999998
0.999998
0.999998
0.999998
0.999998
0.999998
0.999998
0.999998
0.999998
0.999998
0.999998
0.999999
0.999999
0.999999
0.999999
0.999999
0.999999
0.999999
0.999999
0.999999
0.999999
0.999999
1
1
1
0.999999
0.999999
1
0.999999
0.999999
0.999999
0.999999
0.999999
1
1
1
1
1
1
1
1
1
1
1
1
1
1
1
1
1
1
1
1
1
1
1
1
1
1
1
1
1
1
1
1
1
1
1
1
1
1
1
1
1
1
0.999999
0.999999
0.999999
0.999998
0.999998
0.999998
0.999998
0.999998
0.999998
0.999998
0.999998
0.999998
0.999997
0.999997
0.999997
0.999997
0.999997
0.999998
0.999998
0.999999
0.999999
0.999999
0.999999
1
1
1
1
1
1
0.999999
0.999999
0.999999
1
1
1
0.999999
1
1
1
1
1
1
1
1
1
1
1
1
1
1
1
1
1
1
1
1
1
1
1
1
1
1
1
1
1
1
1
1
1
1
1
1
1
1
1
1
1
1
1
1
0.999999
0.999999
0.999999
0.999998
0.999998
0.999998
0.999998
0.999998
0.999998
0.999997
0.999997
0.999997
0.999997
0.999997
0.999997
0.999997
0.999997
0.999997
0.999998
0.999998
0.999999
0.999999
0.999999
0.999999
0.999999
0.999999
0.999999
0.999999
1
1
1
1
1
1
1
1
1
1
1
1
1
1
1
1
1
1
1
1
1
1
1
1
1
1
1
1
1
1
1
1
1
1
1
1
1
1
1
1
1
1
1
1
1
1
1
1
1
1
1
1
0.999999
0.999999
0.999998
0.999998
0.999998
0.999998
0.999998
0.999998
0.999997
0.999997
0.999997
0.999997
0.999997
0.999997
0.999997
0.999997
0.999997
0.999997
0.999997
0.999998
0.999998
0.999998
0.999998
0.999998
0.999999
0.999999
0.999999
0.999999
0.999999
0.999999
1
1
1
1
1
1
1
1
1
1
1
1
1
1
1
1
1
1
1
1
1
1
1
1
1
1
1
1
1
1
1
1
1
1
1
1
1
1
1
1
1
1
1
1
1
1
1
1
1
0.999999
0.999999
0.999999
0.999999
0.999998
0.999998
0.999998
0.999998
0.999998
0.999998
0.999997
0.999998
0.999998
0.999998
0.999998
0.999998
0.999998
0.999998
0.999997
0.999997
0.999997
0.999998
0.999998
0.999999
0.999999
1
1
0.999999
0.999999
0.999999
1
1
1
1
1
1
1
1
1
1
1
1
1
1
1
1
1
1
1
1
1
1
1
1
1
1
1
1
1
1
1
1
1
1
1
1
1
1
1
1
1
1
1
1
1
1
1
1
0.999999
0.999999
0.999999
0.999999
0.999999
0.999999
0.999999
0.999998
0.999999
0.999998
0.999998
0.999998
0.999998
0.999998
0.999999
0.999999
0.999999
0.999999
0.999999
0.999998
0.999998
0.999998
0.999998
0.999999
0.999999
0.999999
1
1
1
1
1
1
1
1
1
1
1
1
1
1
1
1
1
1
1
1
1
1
1
1
1
1
1
1
1
1
1
1
1
1
1
1
1
1
1
1
1
1
1
1
1
1
1
1
1
1
1
1
1
0.999999
0.999999
0.999999
0.999999
0.999999
0.999999
0.999999
0.999999
0.999999
0.999999
0.999999
0.999999
0.999999
0.999999
0.999999
0.999999
1
1
1
1
1
0.999999
0.999999
0.999999
0.999999
0.999999
0.999999
0.999999
1
1
1
1
1
1
0.999999
0.999999
0.999999
0.999999
1
1
1
1
1
1
1
1
1
1
1
1
1
1
1
1
1
1
1
1
1
1
0.999999
1
1
1
1
1
1
1
1
1
1
1
1
1
1
1
1
1
1
1
0.999999
1
0.999999
0.999999
0.999999
1
1
1
1
1
0.999999
1
1
1
1
1
1
1
1
1
1
1
1
0.999999
0.999999
0.999998
0.999998
0.999998
0.999999
1
0.999999
0.999999
0.999999
0.999999
0.999999
0.999999
0.999999
0.999999
0.999999
0.999999
0.999999
0.999999
0.999999
0.999999
0.999999
1
1
1
1
1
1
1
1
1
1
1
1
0.999999
0.999999
0.999999
0.999999
0.999999
0.999999
1
1
0.999999
0.999999
0.999999
0.999999
0.999999
0.999999
0.999999
1
1
1
1
1
1
1
1
1
1
1
1
1
1
1
1
1
1
1
1
1
1
1
1
1
1
1
1
1
1
1
1
1
1
1
1
1
1
1
1
1
1
1
1
1
0.999999
0.999999
0.999999
0.999999
0.999999
0.999999
0.999999
0.999999
0.999999
0.999999
1
1
1
1
1
1
1
1
1
1
0.999999
0.999999
0.999999
0.999999
0.999998
0.999999
0.999999
0.999999
0.999999
0.999999
0.999999
0.999999
0.999999
0.999999
0.999999
0.999999
0.999999
0.999999
1
1
1
1
1
1
1
1
1
1
1
1
1
1
1
1
1
1
1
1
1
1
1
1
1
1
1
1
1
1
1
1
1
1
1
1
1
1
1
1
1
1
1
1
0.999999
0.999999
0.999999
0.999999
0.999999
0.999999
0.999999
0.999999
0.999999
0.999999
0.999999
0.999999
0.999999
0.999999
0.999999
0.999998
0.999999
1
0.999998
0.999999
0.999999
0.999999
0.999998
0.999998
0.999998
0.999999
0.999999
0.999999
0.999998
0.999999
0.999999
0.999999
0.999999
0.999999
0.999999
1
1
1
1
1
1
1
1
1
1
1
1
1
1
1
1
1
1
1
1
1.00001
1
1
1
1
1
1
1
1
1
1
1
1
1
1
1
1
1
1
1
1
1
1
1
1
0.999999
0.999999
0.999999
0.999999
0.999999
0.999999
0.999999
0.999999
0.999999
0.999999
0.999999
0.999999
0.999999
0.999999
0.999999
0.999999
0.999999
1
0.999998
1
1
1
1
1
1
1
1
1
1
1
1
1
1
1
1
1
1
1
1
1
1
1
1
1
1
1
1
0.999999
1
1
1
1
1
1
1
1
1.00001
1
1
1
1
1
1
1
0.999999
0.999999
1
1
1
1
1
1
1
1
1
1
1
1
1
1
1
1
1
1
1
1
1
1
1
1
1
1
1
1
0.999999
1
0.999999
1
0.999998
1
1
1
1
1
1
1
1
1
1
1
1
1
1
1
1
1
1
1
1
1
1
1
0.999999
0.999999
0.999999
0.999999
0.999998
0.999998
0.999998
0.999999
0.999999
1
1
0.999999
0.999999
1
1
1
1
1
1
0.999999
0.999999
0.999999
0.999999
0.999999
0.999998
0.999998
0.999998
0.999999
0.999999
1
1
1
1
1
1
1
1
1
1
1
1
1
1
1
1
1
1
1
1
1
1
1
1
1
0.999999
1
0.999999
1
1
1
1
1
1
1
1
1
1
1
1
1
1
1
1
1
1
1
1
1
1
1
1
0.999999
0.999999
0.999999
0.999999
0.999998
0.999999
0.999999
0.999999
0.999999
0.999999
1
0.999999
0.999998
0.999999
1
0.999999
0.999999
0.999998
0.999999
0.999998
0.999997
0.999996
0.999997
0.999998
0.999998
0.999998
0.999998
0.999999
0.999999
1
1
1
1
1
1
1
1
1
1
1
1
1
1
1
1
1
1
1
1
1
1
1
1
1
1
1
1
1
1
1
1
1
1
1
1
1
1
1
1
1
1
1
1
1
1
1
1
0.999999
0.999999
0.999999
0.999999
0.999998
0.999998
0.999998
0.999998
0.999999
0.999999
0.999999
0.999999
1
1
1
1
1
1
1
0.999999
0.999998
0.999999
0.999999
0.999998
0.999997
0.999997
0.999997
0.999997
0.999997
0.999997
0.999998
0.999998
0.999999
0.999999
1
1
1
1
1
1
1
1
1
1
1
1
1
1
1
1
1
1
1
1
1
1
1
1
1
1
1
1
1
1
1
1
1
1
1
1
1
1
1
1
1
0.999999
0.999999
1
1
1
1
0.999999
0.999999
0.999998
0.999998
0.999998
0.999998
0.999998
0.999999
0.999999
0.999999
0.998882
0.977915
0.933958
0.892769
0.868794
0.871706
0.903986
0.949388
0.987458
0.99992
0.999999
0.999998
0.999998
0.999998
0.999997
0.999997
0.999997
0.999997
0.999997
0.999998
0.999998
0.999999
0.999999
1
0.999999
0.999999
1
1
1
1
1
1
1
1
1
1
1
1
1
1
1
1
1
1
1
1
1
1
1
1
1
1
1
1
1
1
1
1
1
1
1
1
1
1
0.999796
0.999133
0.997958
0.996219
0.993838
0.990742
0.986796
0.981826
0.975547
0.967512
0.956896
0.942268
0.92107
0.888551
0.839521
0.724326
0.559207
0.402358
0.288961
0.243366
0.218901
0.221051
0.258236
0.326686
0.447608
0.60206
0.771167
0.853921
0.897496
0.926769
0.946078
0.9596
0.969551
0.977148
0.983086
0.987791
0.99152
0.994451
0.996685
0.998292
0.999344
0.999889
1
1
1
1
1
1
1
1
1
1
1
1
1
1
1
1
1
1
1
0.0680327
0.0993255
0.119998
0.135662
0.14735
0.156334
0.163489
0.16937
0.174341
0.178648
0.182455
0.185861
0.188921
0.191651
0.194032
0.196018
0.197535
0.19848
0.198727
0.198331
0.197367
0.195684
0.193104
0.189436
0.18445
0.177912
0.169528
0.159001
0.145899
0.12969
0.109761
0.0851276
0.0534406
0.0176828
0.00870655
0.0254475
0.0686816
0.0727989
0.0853542
0.0834245
0.0831458
0.0829564
0.0761826
0.0625068
0.0171338
0.00102813
0.027827
0.0636602
0.0927796
0.115839
0.134533
0.149659
0.161832
0.171601
0.179389
0.185462
0.190009
0.193278
0.195496
0.196856
0.197541
0.19768
0.197128
0.195919
0.194178
0.192003
0.189465
0.186609
0.18345
0.179972
0.176119
0.17179
0.166823
0.160975
0.153884
0.145005
0.133472
0.118035
0.097678
0.0668889
2.22593e-07
7.2003e-08
1.32401e-07
1.77142e-07
2.09748e-07
2.2999e-07
2.38233e-07
2.35974e-07
2.24838e-07
2.06337e-07
1.81958e-07
1.53281e-07
1.22074e-07
9.03041e-08
6.01259e-08
3.37913e-08
1.37077e-08
4.03728e-11
6.94818e-11
7.54734e-11
1.69238e-10
3.42374e-10
5.11244e-10
6.98171e-10
8.17035e-10
8.54043e-10
2.07084e-09
3.36874e-08
1.74141e-07
3.74273e-07
4.85112e-07
5.1473e-07
5.22331e-07
1.54066e-06
0.0154204
0.199297
0.27756
0.277591
0.27756
0.275745
0.276217
0.277656
0.277697
0.277656
0.130167
5.20377e-05
1.2417e-06
1.10216e-06
1.04728e-06
1.00343e-06
9.65551e-07
8.44422e-07
5.95006e-07
2.72314e-07
5.29388e-08
1.59969e-09
1.27044e-10
8.28216e-11
7.7482e-11
7.53194e-11
6.05695e-11
2.39519e-11
4.22598e-09
1.833e-08
4.0403e-08
6.80963e-08
9.91214e-08
1.31226e-07
1.6234e-07
1.90609e-07
2.14317e-07
2.31928e-07
2.42023e-07
2.43145e-07
2.33682e-07
2.12201e-07
1.78507e-07
1.32856e-07
7.16941e-08
2.21831e-07
1.26337e-09
1.20666e-10
2.80806e-10
4.15974e-10
5.12419e-10
5.59527e-10
5.46705e-10
5.04897e-10
4.31862e-10
3.30232e-10
2.08807e-10
8.23893e-11
-1.79376e-11
-2.23035e-11
-1.26055e-11
-3.30297e-12
1.2512e-13
1.09844e-12
4.88698e-11
6.49946e-10
6.00388e-09
1.43988e-08
6.98171e-10
2.04589e-08
8.54043e-10
2.07084e-09
3.85582e-05
0.000154989
0.000184607
9.37792e-05
4.20405e-05
0.000179686
0.000235052
0.000205244
0.00891388
0.108794
0.17746
0.258559
0.277588
0.276976
0.277098
0.277692
0.253997
0.174484
0.0875503
0.000806619
0.000104709
0.000417924
0.000338088
7.30289e-05
3.90496e-05
9.69024e-05
0.000212075
0.000288756
0.000245939
7.30396e-05
1.59967e-09
1.73854e-10
4.35621e-09
1.32115e-09
7.79032e-11
1.64517e-12
1.1802e-12
1.10472e-12
8.59407e-13
7.0124e-13
4.93032e-13
2.65283e-13
1.30438e-10
3.58567e-10
6.22419e-10
8.30456e-10
9.69209e-10
1.03404e-09
9.83003e-10
7.57564e-10
5.12071e-10
3.5273e-10
1.57409e-10
1.99025e-09
7.09207e-12
4.85054e-13
1.17693e-12
1.73014e-12
2.14382e-12
2.3785e-12
2.37135e-12
2.15772e-12
1.76652e-12
1.24879e-12
6.8622e-13
2.0646e-13
-7.77715e-15
2.48067e-14
2.47352e-14
2.55205e-14
5.85633e-14
1.25004e-13
1.09493e-12
3.43788e-11
2.33528e-09
1.40542e-06
7.41464e-06
7.41189e-06
7.40984e-07
8.08693e-07
1.95683e-05
0.000434604
0.000531166
0.000523061
0.000166702
0.000972219
0.00387573
0.00387888
0.00285544
1.69196e-05
1.68827e-05
0.0111033
0.135023
0.0971463
0.0976033
0.123333
0.00547668
2.41312e-09
2.13474e-08
0.00281636
0.00398898
0.00398621
0.00108297
7.3931e-05
8.34063e-05
0.000502151
0.000507266
0.000507266
0.000507266
0.000193763
5.00118e-08
1.36172e-09
3.69293e-10
1.37593e-11
1.64493e-12
1.18063e-12
1.16395e-12
8.88199e-13
8.51883e-13
6.90849e-13
4.81547e-13
2.56941e-13
7.39038e-13
2.54647e-12
4.12473e-12
5.34238e-12
6.08924e-12
6.3452e-12
6.12977e-12
5.47433e-12
4.35087e-12
2.81913e-12
1.18362e-12
1.12123e-11
8.9722e-14
2.88389e-15
7.06228e-15
1.03179e-14
1.29118e-14
1.45613e-14
1.49523e-14
1.40128e-14
1.18133e-14
8.58988e-15
4.87976e-15
1.67661e-15
1.26419e-15
4.64548e-14
1.13319e-12
6.37555e-12
1.03123e-11
1.75978e-12
3.43813e-11
1.05107e-09
1.30186e-06
1.58734e-05
2.02128e-05
2.02173e-05
1.85597e-05
1.19494e-06
3.07996e-09
7.88328e-05
0.00039093
0.000481703
0.000479372
0.000403103
0.000261908
0.000228629
1.83616e-07
2.06552e-05
0.000100901
2.26607e-09
2.24066e-09
2.20831e-09
2.24083e-09
2.26918e-09
2.30623e-09
2.36006e-09
3.97164e-08
3.16274e-09
6.84247e-05
2.07045e-05
0.000203202
0.000293343
0.000289093
0.000199902
0.000346552
0.000443296
0.000226756
1.00527e-05
3.7733e-06
5.72005e-06
6.51563e-06
2.80067e-06
7.95721e-08
1.64337e-12
1.18018e-12
2.57025e-11
2.76902e-11
1.05526e-11
1.47462e-12
1.66428e-13
3.85606e-14
4.0155e-14
5.42874e-14
6.66898e-14
7.349e-14
7.43697e-14
6.99192e-14
6.06746e-14
4.79085e-14
3.95083e-14
2.05278e-14
1.54526e-13
1.0028e-15
3.08552e-17
7.95411e-17
9.7757e-17
1.05019e-16
1.17191e-16
1.23356e-16
1.19494e-16
1.04732e-16
7.91986e-17
4.71031e-17
2.83066e-17
4.3458e-16
2.368e-14
5.9979e-13
4.20256e-12
9.86849e-12
3.31662e-11
2.78477e-10
4.79705e-09
4.54827e-06
1.98852e-05
2.02085e-05
1.40597e-05
4.09061e-06
6.20001e-07
2.86978e-09
2.68081e-09
2.50215e-09
2.34981e-09
2.2524e-09
2.40003e-09
2.52846e-09
2.74164e-09
5.04586e-09
4.51818e-05
0.000211784
0.000184542
2.20831e-09
2.18363e-09
2.73413e-09
3.38501e-09
5.22641e-09
3.31625e-09
3.16588e-09
3.17962e-09
4.47509e-06
4.86009e-06
1.05619e-07
1.72498e-06
7.3808e-09
9.92858e-09
1.96211e-08
2.29377e-08
2.92361e-08
3.96069e-08
8.12465e-06
1.83737e-05
1.8367e-05
1.6319e-05
2.12162e-06
6.29718e-09
4.42355e-10
7.07561e-11
2.12119e-11
8.60026e-12
1.31912e-12
1.1359e-13
2.61934e-14
1.30467e-14
8.82405e-15
6.16603e-15
4.39628e-15
3.19878e-15
2.3381e-15
1.67764e-15
1.35003e-15
7.99603e-15
7.02542e-15
2.33769e-15
3.29152e-16
9.43909e-18
2.70479e-17
2.01035e-17
5.63953e-18
2.17448e-18
1.67502e-18
1.30867e-18
1.18847e-18
9.50378e-19
8.03304e-19
6.44067e-18
1.26656e-16
5.71634e-15
1.75129e-13
1.45518e-12
2.90771e-12
1.41728e-11
2.47035e-10
2.02241e-07
2.7942e-06
2.28151e-06
1.00564e-08
5.67608e-08
4.65566e-09
3.50721e-09
4.7363e-09
4.31884e-09
2.99123e-09
2.27858e-09
2.15553e-09
3.17171e-09
5.8298e-09
8.09864e-09
8.78479e-09
7.07708e-09
1.05769e-08
5.55586e-09
5.57398e-09
2.1823e-09
1.76269e-09
5.98571e-09
8.0296e-09
5.49583e-09
8.36321e-09
1.08075e-07
2.84161e-09
2.68615e-08
1.02381e-07
7.29706e-08
1.6632e-10
1.85493e-10
1.03222e-06
1.3144e-06
1.30096e-06
4.67198e-07
5.38793e-08
1.14556e-05
1.8367e-05
1.83272e-05
1.29901e-05
7.80441e-07
4.07177e-09
2.93138e-10
3.21807e-11
5.61785e-12
1.09368e-12
9.62347e-14
2.1272e-14
1.24558e-14
8.281e-15
5.46091e-15
3.60722e-15
2.40877e-15
1.61127e-15
1.062e-15
6.81457e-16
5.66907e-16
3.66e-16
7.84419e-16
1.21378e-17
3.13839e-19
9.56269e-19
8.7922e-19
6.57596e-19
3.98525e-19
1.65689e-19
5.63927e-20
3.86407e-20
3.11122e-20
1.63693e-19
2.60189e-18
2.83215e-17
1.44612e-15
5.85492e-14
6.66857e-13
2.79445e-12
3.71127e-11
7.78158e-10
5.1841e-07
2.75338e-06
1.56553e-06
6.71105e-09
4.65229e-09
6.09046e-10
1.37657e-10
6.98156e-11
6.7181e-11
6.40162e-11
6.0819e-11
5.46925e-11
5.06629e-11
3.44751e-10
7.74329e-10
2.53869e-09
7.05987e-09
9.81697e-09
8.67985e-09
3.8526e-09
1.48284e-09
1.64126e-09
7.88378e-09
8.0296e-09
7.89597e-09
5.34435e-09
5.52327e-09
2.67689e-09
1.06723e-10
1.11519e-10
1.33143e-10
1.52935e-10
1.68438e-10
6.78562e-09
5.33042e-08
4.62749e-07
3.84761e-07
2.35711e-08
1.84787e-08
1.57933e-05
1.82852e-05
1.82538e-05
7.14545e-06
2.1301e-08
1.41286e-09
9.62682e-11
7.01425e-12
1.18034e-12
1.02645e-13
1.15264e-14
4.69622e-15
2.44669e-15
1.27341e-15
6.64985e-16
3.57611e-16
1.9722e-16
1.09802e-16
5.7777e-17
1.50082e-17
5.40376e-18
3.95682e-17
1.11698e-19
4.84156e-21
1.52895e-20
2.11644e-20
2.50347e-20
2.25937e-20
1.83131e-20
1.54321e-20
1.49415e-20
1.66889e-20
5.95994e-20
5.72385e-19
1.82039e-17
1.2227e-15
3.46137e-14
1.72934e-13
4.24856e-12
1.06043e-10
2.2685e-09
9.29504e-07
2.64923e-06
1.78197e-07
6.78753e-09
6.75313e-09
8.94634e-09
2.11396e-08
3.67832e-09
6.95054e-11
7.1621e-11
1.29373e-10
5.84585e-11
4.73254e-11
4.17399e-11
7.00919e-11
6.8854e-11
1.20637e-10
1.30206e-09
2.5608e-09
3.86136e-09
1.19135e-09
1.8301e-09
6.58259e-09
5.80826e-09
1.39744e-09
1.21546e-10
1.15172e-10
1.11926e-10
1.02288e-10
1.06901e-10
1.36571e-10
2.34439e-10
3.99423e-10
4.1565e-10
4.34147e-10
1.72431e-09
4.98385e-08
1.53728e-08
4.26701e-09
1.01364e-05
1.82538e-05
1.82709e-05
8.26411e-06
2.60261e-08
1.5875e-09
9.61553e-11
6.61689e-12
1.14814e-12
9.10269e-14
4.43338e-15
6.85656e-16
2.24452e-16
8.18124e-17
3.06839e-17
1.23004e-17
5.30602e-18
2.41121e-18
1.04164e-18
2.95558e-19
9.33044e-20
5.50004e-19
1.44445e-21
8.35401e-23
2.77562e-22
4.52142e-22
6.4134e-22
8.22716e-22
1.00497e-21
1.21876e-21
1.5706e-21
2.48e-21
3.79951e-21
8.4677e-20
5.67168e-18
3.53693e-16
1.11712e-14
1.82606e-13
5.48909e-12
1.45523e-10
1.33657e-08
1.03931e-06
1.96716e-06
6.78753e-09
5.80012e-09
1.10291e-08
5.27631e-08
5.57383e-08
2.48937e-08
1.039e-10
7.91512e-11
3.19308e-10
1.36392e-10
4.92708e-11
3.54171e-11
5.73253e-11
6.87448e-11
6.8857e-11
6.91564e-11
3.61812e-10
7.44352e-10
1.04629e-09
1.90352e-09
2.25562e-09
1.61191e-10
1.32779e-10
1.33498e-10
1.30531e-10
1.17249e-10
1.02566e-10
1.0085e-10
1.28666e-10
2.28643e-10
4.04925e-10
8.20021e-10
8.17577e-10
8.76785e-10
1.73057e-09
1.97359e-09
2.52139e-09
8.53364e-06
1.78476e-05
1.79797e-05
3.39733e-06
1.25464e-08
6.9262e-10
4.05564e-11
4.63909e-12
1.15957e-12
6.18222e-14
1.45257e-15
6.06811e-17
8.53613e-18
2.24719e-18
7.05467e-19
2.46563e-19
9.64188e-20
4.10642e-20
1.75148e-20
6.88022e-21
2.19456e-21
9.48226e-21
2.52406e-23
1.60936e-24
5.57932e-24
9.79173e-24
1.5641e-23
2.43772e-23
3.7838e-23
6.02665e-23
1.04837e-22
1.77914e-22
1.28339e-21
8.95136e-20
6.56252e-18
4.0123e-16
1.22285e-14
5.06222e-13
1.7984e-11
5.31796e-10
4.36562e-07
1.75057e-06
1.48452e-06
5.80012e-09
5.03482e-09
2.35812e-08
5.60937e-08
5.61301e-08
5.36159e-08
4.4582e-09
1.7733e-10
3.59193e-10
2.3409e-10
6.25201e-11
2.15724e-11
4.67631e-11
8.02181e-11
8.64506e-11
7.96036e-11
8.62349e-11
6.13349e-10
1.13568e-09
1.77314e-09
4.17954e-10
1.50103e-10
1.32742e-10
1.4234e-10
1.20903e-10
5.54184e-11
2.42278e-11
2.86005e-11
9.98705e-11
3.55638e-10
5.2085e-10
9.16576e-10
1.29162e-09
1.03864e-09
1.13823e-09
1.35401e-09
1.97359e-09
2.47549e-06
1.63557e-05
1.18846e-05
9.23556e-07
4.31669e-09
2.08216e-10
1.26139e-11
4.87481e-12
5.494e-13
1.69035e-14
3.79901e-16
8.49696e-18
3.92579e-19
6.99727e-20
2.0783e-20
7.07707e-21
2.65446e-21
1.08733e-21
4.57832e-22
1.84414e-22
5.75303e-23
2.25494e-22
4.75126e-25
3.26586e-26
1.17023e-25
2.17718e-25
3.78198e-25
6.61263e-25
1.20982e-24
2.39789e-24
3.88932e-24
3.30837e-24
2.94159e-22
2.90157e-20
2.38282e-18
1.6267e-16
7.02497e-15
2.02192e-13
8.48674e-12
3.04222e-10
3.85679e-07
1.7505e-06
1.7505e-06
3.35507e-07
5.05017e-09
1.68525e-08
5.61301e-08
5.61301e-08
5.61301e-08
2.34871e-08
7.30823e-10
3.24049e-10
2.53416e-10
7.00749e-11
1.06979e-11
1.58016e-11
4.24648e-11
7.26129e-11
5.69899e-11
2.05916e-10
1.3551e-09
1.17756e-09
1.75117e-09
6.86098e-10
2.06313e-10
1.23607e-10
1.27322e-10
7.0313e-11
2.65745e-11
1.43355e-11
2.29497e-11
1.43937e-10
5.69066e-10
9.17177e-10
9.32879e-10
1.09408e-09
9.71136e-10
9.9302e-10
1.13823e-09
1.80731e-08
1.0358e-07
9.8926e-07
1.92902e-06
9.98584e-07
4.46676e-09
5.14764e-11
3.43508e-12
1.87933e-12
1.29208e-13
3.08382e-15
7.03777e-17
1.39904e-18
3.23518e-20
3.06259e-21
7.85471e-22
2.51396e-22
8.82904e-23
3.3948e-23
1.3588e-23
5.25455e-24
1.58416e-24
5.89841e-24
9.25184e-27
6.8654e-28
2.52842e-27
4.94888e-27
9.15832e-27
1.73427e-26
3.55629e-26
7.93848e-26
2.88657e-26
1.17009e-26
1.39865e-24
1.67062e-22
1.80062e-20
1.77573e-18
1.64205e-16
1.46064e-14
8.40716e-13
4.24436e-11
7.6707e-08
1.08473e-06
1.70147e-06
5.02631e-07
4.67033e-09
3.82434e-09
3.36991e-08
5.61301e-08
5.40682e-08
1.79393e-08
1.72973e-10
2.298e-10
1.84281e-10
5.09313e-11
5.08399e-12
7.58824e-12
1.92388e-11
3.23327e-11
2.62061e-11
3.82652e-10
1.42831e-09
9.76659e-10
1.80834e-09
1.09625e-09
1.9026e-10
8.73412e-11
7.65037e-11
4.21387e-11
1.48197e-11
8.1083e-12
1.36552e-11
1.42181e-10
6.2376e-10
1.12355e-09
1.07609e-09
9.67901e-10
9.67901e-10
9.71136e-10
2.45626e-08
3.87172e-08
2.05503e-09
1.43593e-09
4.59882e-08
3.09568e-07
2.20774e-08
1.01787e-11
1.20472e-12
4.18209e-13
1.51677e-14
3.68092e-16
8.52377e-18
1.66338e-19
3.0095e-21
1.52839e-22
3.14778e-23
9.24951e-24
3.03051e-24
1.09249e-24
4.14805e-25
1.54875e-25
4.52509e-26
1.60209e-25
1.85045e-28
1.48359e-29
5.59236e-29
1.14538e-28
2.2372e-28
4.51183e-28
9.90521e-28
2.51339e-27
3.30422e-27
1.40306e-28
9.216e-27
1.0699e-24
1.07307e-22
8.92661e-21
6.20443e-19
4.20051e-17
2.90419e-15
1.25801e-12
5.2545e-10
2.78932e-08
3.09341e-07
1.87426e-07
7.99011e-09
3.16529e-09
3.81288e-09
8.42125e-09
6.76326e-10
8.30006e-11
1.29799e-10
1.40339e-10
6.75198e-11
9.59771e-12
1.90636e-12
4.6947e-12
1.31528e-11
1.83305e-11
1.62108e-11
4.54954e-10
1.42843e-09
8.65102e-10
1.81657e-09
1.19941e-09
1.48855e-10
6.60882e-11
5.24656e-11
2.68095e-11
7.50195e-12
3.43936e-12
2.76576e-12
2.93394e-11
2.99761e-10
1.18993e-09
2.20196e-09
2.97888e-09
1.33238e-08
3.42298e-08
4.46086e-08
1.9119e-08
2.37742e-10
2.12403e-10
4.61929e-10
1.31594e-09
4.29824e-09
2.90312e-11
1.27934e-12
4.81369e-14
1.22753e-15
3.07322e-17
6.79596e-19
1.29008e-20
2.21224e-22
7.66664e-24
1.25833e-24
3.38903e-25
1.04172e-25
3.54843e-26
1.28747e-26
4.66854e-27
1.32727e-27
4.47741e-27
3.76374e-30
3.26829e-31
1.25628e-30
2.68397e-30
5.51121e-30
1.17697e-29
2.72807e-29
7.43081e-29
2.11689e-28
4.28905e-29
1.24349e-28
9.216e-27
1.0699e-24
1.07307e-22
8.92661e-21
6.20443e-19
4.2005e-17
2.89564e-15
4.48107e-12
3.16503e-10
1.66355e-09
1.03903e-09
5.61564e-09
3.24149e-09
1.38067e-09
7.3543e-10
1.28085e-10
6.76783e-11
6.52177e-11
3.50873e-11
7.36781e-12
6.06598e-13
9.57511e-13
3.51355e-12
1.05898e-11
1.49146e-11
1.44976e-11
4.55155e-10
1.42551e-09
7.7602e-10
1.81657e-09
1.21201e-09
1.41836e-10
5.28836e-11
4.0054e-11
1.85331e-11
4.42803e-12
1.47345e-12
8.95426e-13
2.11918e-12
3.79788e-11
3.56003e-10
3.42804e-09
1.9149e-08
3.52776e-08
3.52776e-08
2.87248e-08
2.69374e-10
3.18362e-11
8.32855e-11
5.81569e-11
1.02687e-10
5.55119e-12
4.97454e-12
1.42113e-13
2.86174e-15
7.41165e-17
1.78926e-18
3.77341e-20
6.95434e-22
1.18057e-23
3.53575e-25
4.92653e-26
1.22758e-26
3.56218e-27
1.15562e-27
4.03213e-28
1.4241e-28
3.9533e-29
1.27605e-28
7.69998e-32
7.27478e-33
2.84159e-32
6.32068e-32
1.36185e-31
3.07627e-31
7.56152e-31
2.11918e-30
7.40945e-30
4.02706e-29
9.46634e-30
1.58838e-28
1.95284e-26
2.24667e-24
2.15187e-22
1.81932e-20
1.26303e-17
2.55134e-14
5.26704e-13
2.20493e-11
1.15315e-10
8.05501e-11
1.33229e-09
1.41002e-09
9.87859e-10
5.3625e-10
2.42263e-10
1.03104e-10
2.95071e-11
4.90723e-12
4.08956e-13
2.09369e-13
6.41005e-13
3.04424e-12
8.89942e-12
1.25669e-11
1.43242e-11
4.28563e-10
1.41396e-09
6.72214e-10
1.75479e-09
1.2631e-09
1.66271e-10
4.37316e-11
3.18778e-11
1.46461e-11
3.29379e-12
7.40262e-13
4.05149e-13
2.73224e-13
4.37506e-12
1.02753e-10
1.2022e-09
5.12819e-09
9.046e-09
8.10569e-09
8.33874e-10
7.6827e-12
1.10784e-11
2.12984e-11
9.96074e-12
1.32703e-11
2.56828e-12
2.15497e-13
4.61493e-15
1.20707e-16
3.2347e-18
7.54727e-20
1.56038e-21
2.83018e-23
4.80731e-25
1.4343e-26
1.86196e-27
4.35555e-28
1.20126e-28
3.73839e-29
1.26139e-29
4.35213e-30
1.18361e-30
3.66943e-30
1.56853e-33
1.62199e-34
6.41652e-34
1.48384e-33
3.35068e-33
8.00298e-33
2.09718e-32
6.24045e-32
2.22274e-31
2.08054e-30
5.62296e-30
8.44292e-30
4.51691e-28
1.054e-24
1.06729e-22
1.10287e-20
1.63243e-18
4.46128e-15
2.83617e-13
2.1348e-12
1.05676e-11
1.24121e-11
6.77632e-11
1.8121e-10
1.58235e-10
7.77914e-11
2.47215e-11
6.2434e-12
1.22231e-12
1.55302e-13
4.20234e-14
1.08239e-13
5.6846e-13
2.79621e-12
7.54432e-12
1.06054e-11
1.92226e-11
4.1363e-10
1.33825e-09
5.69908e-10
1.52284e-09
1.3767e-09
2.43313e-10
3.72642e-11
2.59759e-11
1.23025e-11
2.86871e-12
4.44876e-13
1.55901e-13
1.52436e-13
2.22873e-13
2.51962e-13
2.12824e-12
1.24576e-11
1.38411e-11
7.93716e-12
4.87844e-12
1.77744e-12
4.46115e-12
7.07531e-12
7.38074e-12
2.85078e-12
2.9533e-13
7.91263e-15
1.85707e-16
4.99843e-18
1.23577e-19
2.64043e-21
5.33337e-23
9.41109e-25
1.58991e-26
5.14336e-28
6.71958e-29
1.4983e-29
3.95932e-30
1.19041e-30
3.90575e-31
1.32088e-31
3.53123e-32
1.05424e-31
3.14608e-35
3.65475e-36
1.4342e-35
3.44567e-35
8.14725e-35
2.05649e-34
5.74545e-34
1.82748e-33
6.71324e-33
2.98856e-32
4.60792e-31
3.24543e-30
2.48022e-28
5.78887e-26
6.25177e-24
7.31906e-22
6.30428e-20
1.06026e-16
2.41693e-14
1.73683e-13
1.16677e-12
2.97315e-12
2.99696e-12
4.90783e-12
4.8727e-12
2.49979e-12
6.44305e-13
1.28508e-13
2.0624e-14
7.14404e-15
1.71654e-14
9.09183e-14
5.45709e-13
2.58004e-12
6.33734e-12
9.27352e-12
2.66293e-11
4.41019e-10
1.12298e-09
4.7629e-10
1.36433e-09
1.40418e-09
3.43676e-10
3.33938e-11
2.1284e-11
1.05263e-11
2.71299e-12
3.89397e-13
5.82513e-14
2.94163e-14
7.26836e-14
2.40326e-13
6.14621e-13
9.65227e-13
6.26512e-13
3.15808e-13
4.01436e-13
1.44894e-12
1.61174e-12
1.68635e-12
1.70921e-12
3.07934e-13
1.27453e-14
3.0246e-16
7.69091e-18
1.99897e-19
4.6549e-21
9.37062e-23
1.75525e-24
2.87712e-26
4.66275e-28
1.68111e-29
2.29227e-30
4.95155e-31
1.2658e-31
3.70291e-32
1.18782e-32
3.95133e-33
1.04204e-33
2.99951e-33
6.14287e-37
8.36376e-38
3.12007e-37
7.76207e-37
1.90346e-36
5.00208e-36
1.45814e-35
4.82928e-35
1.83484e-34
7.90629e-34
5.88225e-33
1.27294e-31
1.151e-29
1.13375e-27
1.26197e-25
1.39093e-23
1.50837e-21
2.25935e-18
2.8676e-16
6.24262e-15
7.78982e-14
1.69703e-13
1.18823e-13
9.60725e-14
9.25025e-14
4.71309e-14
1.11341e-14
1.61291e-15
8.18666e-16
2.26552e-15
1.39769e-14
8.66366e-14
5.30494e-13
2.34123e-12
5.31033e-12
8.49737e-12
3.40549e-11
4.801e-10
9.54172e-10
3.98966e-10
1.23925e-09
1.40419e-09
4.25463e-10
3.19971e-11
1.77046e-11
9.04742e-12
2.61883e-12
3.97527e-13
4.60205e-14
7.41754e-15
3.80862e-15
1.17393e-14
4.42372e-14
1.01637e-13
1.35213e-13
1.2322e-13
2.44612e-13
3.27523e-13
2.79059e-13
1.70915e-13
1.01927e-13
1.18685e-14
4.12025e-16
1.09727e-17
2.83142e-19
7.23257e-21
1.63681e-22
3.17982e-24
5.67145e-26
8.86748e-28
1.39867e-29
5.28569e-31
7.3843e-32
1.56303e-32
3.90263e-33
1.11814e-33
3.52533e-34
1.15604e-34
3.05871e-35
8.35995e-35
1.1612e-38
1.81531e-39
6.41771e-39
1.63716e-38
4.11511e-38
1.1112e-37
3.33278e-37
1.13518e-36
4.43729e-36
1.98859e-35
1.19171e-34
1.7789e-33
1.68866e-31
2.44935e-29
2.75734e-27
2.96484e-25
3.32638e-23
4.41088e-20
3.51584e-18
9.90353e-17
1.96202e-15
3.47907e-15
3.11537e-15
2.29838e-15
1.60431e-15
6.02472e-16
1.04999e-16
6.89886e-17
2.43356e-16
1.89636e-15
1.29048e-14
8.26734e-14
5.19299e-13
2.11011e-12
4.53824e-12
8.24414e-12
4.42091e-11
4.87316e-10
8.59879e-10
3.33148e-10
1.09471e-09
1.40399e-09
4.58793e-10
3.46944e-11
1.50272e-11
7.69216e-12
2.50504e-12
4.19795e-13
4.72158e-14
5.68331e-15
8.79355e-16
2.77415e-16
3.62761e-16
1.7595e-15
5.00869e-15
9.65465e-15
1.63458e-14
1.7707e-14
1.24999e-14
5.30656e-15
2.64995e-15
2.62895e-16
1.18037e-17
3.42597e-19
9.08269e-21
2.33206e-22
5.219e-24
9.92499e-26
1.72219e-27
2.61544e-29
4.06657e-31
1.59476e-32
2.25118e-33
4.69187e-34
1.15258e-34
3.25383e-35
1.01366e-35
3.28684e-36
8.76592e-37
2.2667e-36
2.11343e-40
3.74743e-41
1.26144e-40
3.28002e-40
8.39861e-40
2.31392e-39
7.08935e-39
2.46632e-38
9.84518e-38
4.50252e-37
2.73564e-36
3.52462e-35
3.26169e-33
5.07434e-31
5.67259e-29
5.88162e-27
5.93426e-25
5.63063e-22
4.41944e-20
2.18544e-18
3.43168e-17
6.70816e-17
6.04172e-17
4.12002e-17
2.09416e-17
4.70365e-18
4.25307e-18
2.00115e-17
1.98333e-16
1.67582e-15
1.16366e-14
8.0973e-14
5.13777e-13
1.90492e-12
4.00259e-12
8.87954e-12
5.6263e-11
4.82892e-10
7.50529e-10
2.68543e-10
9.62477e-10
1.40346e-09
4.58385e-10
4.26162e-11
1.31338e-11
6.43098e-12
2.32396e-12
4.32018e-13
4.85271e-14
5.40122e-15
7.71509e-16
9.89042e-17
1.41085e-17
7.4003e-18
2.54632e-17
5.95392e-17
1.10878e-16
1.35904e-16
9.59573e-17
5.62828e-17
6.47334e-17
4.93545e-18
2.71971e-19
8.97581e-21
2.53696e-22
6.69001e-24
1.50447e-25
2.83902e-27
4.85072e-29
7.22821e-31
1.11687e-32
4.55341e-34
6.4932e-35
1.3391e-35
3.25299e-36
9.09142e-37
2.81043e-37
9.0462e-38
2.43511e-38
5.94622e-38
3.68278e-42
7.3985e-43
2.37837e-42
6.27467e-42
1.62975e-41
4.55827e-41
1.41837e-40
5.00691e-40
2.02553e-39
9.35473e-39
5.65947e-38
6.99113e-37
6.09738e-35
9.31228e-33
1.00525e-30
9.54536e-29
7.43817e-27
6.8393e-25
1.0881e-21
4.17717e-20
5.09484e-19
1.14789e-18
9.46888e-19
5.22655e-19
1.6869e-19
1.94427e-19
1.27788e-18
1.45631e-17
1.62531e-16
1.4473e-15
1.04877e-14
8.07409e-14
5.09205e-13
1.72493e-12
3.66082e-12
1.00376e-11
6.94295e-11
4.8594e-10
6.3211e-10
2.08555e-10
8.37313e-10
1.38183e-09
4.2552e-10
4.83334e-11
1.18537e-11
5.24989e-12
2.033e-12
4.26407e-13
4.91625e-14
4.94412e-15
6.61406e-16
8.29277e-17
8.52624e-18
9.85583e-19
2.34546e-19
8.99746e-20
1.85581e-19
1.83592e-19
2.58264e-19
3.46162e-19
7.83867e-19
8.31501e-20
5.12629e-21
1.93668e-22
6.13434e-24
1.70354e-25
3.91703e-27
7.43643e-29
1.26528e-30
1.86788e-32
2.88916e-34
1.22519e-35
1.76946e-36
3.62968e-37
8.76055e-38
2.43418e-38
7.49346e-39
2.40265e-39
6.55181e-40
1.50157e-39
6.11194e-44
1.39282e-44
4.2853e-44
1.14205e-43
2.9973e-43
8.47007e-43
2.66171e-42
9.4733e-42
3.85597e-41
1.78466e-40
1.06205e-39
1.24582e-38
1.017e-36
1.49187e-34
1.49259e-32
1.16922e-30
8.22736e-29
1.09147e-26
2.35661e-23
6.37152e-22
6.07875e-21
1.61316e-20
1.16769e-20
4.1194e-21
6.70019e-21
6.00973e-20
7.98145e-19
1.03351e-17
1.29823e-16
1.21715e-15
9.38348e-15
8.10149e-14
4.99658e-13
1.56436e-12
3.43517e-12
1.14056e-11
8.22095e-11
4.61768e-10
5.1565e-10
1.55946e-10
7.20117e-10
1.09977e-09
4.18151e-10
5.22008e-11
1.09448e-11
4.19344e-12
1.64909e-12
3.82049e-13
4.6566e-14
4.44679e-15
5.60538e-16
6.50546e-17
6.03091e-18
5.84466e-19
5.23279e-20
1.48165e-21
4.14809e-22
2.44302e-21
3.03199e-21
4.16823e-21
7.83065e-21
1.12499e-21
1.46196e-22
3.28548e-24
1.2687e-25
3.83521e-27
9.19384e-29
1.78097e-30
3.05209e-32
4.50629e-34
7.02612e-36
3.1011e-37
4.54836e-38
9.32544e-39
2.2463e-39
6.22928e-40
1.9157e-40
6.13793e-41
1.70297e-41
3.63373e-41
9.61411e-46
2.49015e-46
7.34729e-46
1.96959e-45
5.20409e-45
1.47931e-44
4.67041e-44
1.66613e-43
6.77831e-43
3.12117e-42
1.8154e-41
2.00246e-40
1.50562e-38
2.05744e-36
1.77763e-34
1.25404e-32