/*--------------------------------*- C++ -*----------------------------------*\
| =========                 |                                                 |
| \\      /  F ield         | OpenFOAM: The Open Source CFD Toolbox           |
|  \\    /   O peration     | Version:  2412                                  |
|   \\  /    A nd           | Website:  www.openfoam.com                      |
|    \\/     M anipulation  |                                                 |
\*---------------------------------------------------------------------------*/
FoamFile
{
    version     2.0;
    format      ascii;
    arch        "LSB;label=32;scalar=64";
    class       volScalarField;
    location    "4.4";
    object      p_rgh;
}
// * * * * * * * * * * * * * * * * * * * * * * * * * * * * * * * * * * * * * //

dimensions      [1 -1 -2 0 0 0 0];

internalField   nonuniform List<scalar> 
6400
(
12452.3
12452.3
12452
12451.3
12450.2
12448.9
12447.3
12445.6
12443.8
12441.9
12440.1
12438.2
12436.4
12434.5
12432.7
12430.8
12429
12427.1
12425.2
12423.2
12421.2
12419
12416.7
12414.2
12411.6
12408.8
12405.8
12402.7
12399.3
12395.8
12392.2
12388.6
12385
12381.5
12378.2
12375.3
12372.8
12370.9
12369.6
12369
12369.1
12369.9
12371.4
12373.5
12376.2
12379.2
12382.5
12386
12389.6
12393.2
12396.8
12400.2
12403.5
12406.6
12409.5
12412.2
12414.8
12417.2
12419.4
12421.5
12423.5
12425.5
12427.3
12429.1
12430.9
12432.7
12434.5
12436.2
12438
12439.8
12441.6
12443.3
12445.1
12446.7
12448.2
12449.6
12450.6
12451.3
12451.6
12451.6
12452.3
12452.3
12452
12451.4
12450.4
12449.1
12447.7
12446.1
12444.4
12442.6
12440.8
12438.9
12437.1
12435.2
12433.4
12431.5
12429.6
12427.6
12425.6
12423.5
12421.3
12419
12416.5
12414
12411.2
12408.3
12405.2
12402
12398.6
12395.1
12391.5
12387.9
12384.3
12380.9
12377.8
12375
12372.6
12370.8
12369.6
12369
12369.1
12369.9
12371.3
12373.3
12375.8
12378.7
12381.9
12385.3
12388.9
12392.4
12396
12399.4
12402.8
12406
12409
12411.8
12414.5
12417.1
12419.4
12421.7
12423.8
12425.9
12427.8
12429.7
12431.6
12433.4
12435.2
12437
12438.8
12440.5
12442.2
12443.9
12445.6
12447.1
12448.5
12449.7
12450.7
12451.3
12451.6
12451.6
12452.6
12452.6
12452.3
12451.6
12450.7
12449.5
12448.2
12446.7
12445
12443.3
12441.6
12439.8
12437.9
12436.1
12434.2
12432.2
12430.2
12428.2
12426.1
12423.8
12421.5
12419.1
12416.5
12413.8
12410.9
12407.8
12404.6
12401.3
12397.8
12394.2
12390.6
12387
12383.5
12380.2
12377.1
12374.3
12372
12370.3
12369.1
12368.5
12368.6
12369.4
12370.7
12372.7
12375.1
12377.9
12381.1
12384.5
12388
12391.6
12395.2
12398.7
12402.1
12405.4
12408.6
12411.6
12414.4
12417.1
12419.6
12422
12424.2
12426.4
12428.5
12430.5
12432.4
12434.3
12436.1
12437.9
12439.6
12441.3
12443
12444.6
12446.2
12447.6
12448.9
12450.1
12451
12451.6
12451.9
12451.9
12453.3
12453.2
12452.9
12452.2
12451.3
12450.1
12448.8
12447.4
12445.8
12444.1
12442.4
12440.6
12438.8
12436.9
12435
12433
12431
12428.8
12426.6
12424.3
12421.9
12419.3
12416.6
12413.8
12410.7
12407.6
12404.2
12400.8
12397.2
12393.5
12389.8
12386.1
12382.6
12379.2
12376
12373.3
12370.9
12369.2
12368
12367.4
12367.5
12368.2
12369.6
12371.6
12374
12376.9
12380.1
12383.5
12387.1
12390.8
12394.5
12398.1
12401.6
12405.1
12408.3
12411.5
12414.4
12417.2
12419.9
12422.4
12424.8
12427
12429.2
12431.2
12433.2
12435.1
12437
12438.8
12440.5
12442.2
12443.9
12445.4
12446.9
12448.3
12449.6
12450.7
12451.6
12452.2
12452.6
12452.7
12454.5
12454.3
12453.8
12453.1
12452.1
12451
12449.6
12448.2
12446.6
12445
12443.3
12441.5
12439.7
12437.8
12435.9
12433.9
12431.8
12429.6
12427.3
12424.9
12422.4
12419.7
12416.9
12413.9
12410.8
12407.5
12404
12400.4
12396.6
12392.8
12389
12385.2
12381.4
12377.9
12374.7
12371.8
12369.3
12367.5
12366.2
12365.6
12365.7
12366.5
12367.9
12370
12372.5
12375.5
12378.9
12382.4
12386.2
12390
12393.8
12397.6
12401.3
12404.9
12408.3
12411.5
12414.6
12417.6
12420.3
12423
12425.4
12427.8
12430
12432.1
12434.1
12436.1
12437.9
12439.7
12441.5
12443.2
12444.8
12446.3
12447.8
12449.2
12450.4
12451.6
12452.5
12453.2
12453.7
12453.9
12456
12455.6
12455
12454.2
12453.1
12451.9
12450.6
12449.2
12447.6
12446
12444.3
12442.6
12440.7
12438.8
12436.9
12434.9
12432.7
12430.5
12428.1
12425.7
12423
12420.3
12417.3
12414.2
12410.9
12407.5
12403.8
12400.1
12396.1
12392.1
12388.1
12384
12380.1
12376.4
12372.9
12369.8
12367.2
12365.2
12363.8
12363.2
12363.3
12364.1
12365.7
12367.9
12370.6
12373.8
12377.4
12381.2
12385.2
12389.2
12393.2
12397.2
12401
12404.8
12408.4
12411.8
12415
12418.1
12420.9
12423.7
12426.2
12428.6
12430.9
12433.1
12435.1
12437.1
12439
12440.8
12442.5
12444.2
12445.8
12447.4
12448.8
12450.2
12451.5
12452.6
12453.6
12454.5
12455.1
12455.4
12457.8
12457.2
12456.4
12455.5
12454.3
12453.1
12451.7
12450.2
12448.7
12447.1
12445.4
12443.7
12441.9
12440
12438
12435.9
12433.8
12431.5
12429.1
12426.6
12423.9
12421
12417.9
12414.7
12411.3
12407.6
12403.8
12399.8
12395.7
12391.4
12387.1
12382.8
12378.6
12374.5
12370.7
12367.3
12364.4
12362.2
12360.7
12360
12360.1
12361.1
12362.8
12365.2
12368.3
12371.8
12375.7
12379.8
12384
12388.3
12392.6
12396.8
12400.9
12404.8
12408.6
12412.1
12415.5
12418.7
12421.7
12424.5
12427.1
12429.6
12432
12434.2
12436.3
12438.3
12440.1
12441.9
12443.7
12445.3
12446.9
12448.5
12449.9
12451.3
12452.7
12453.9
12455
12455.9
12456.7
12457.3
12459.9
12459.1
12458.1
12456.9
12455.7
12454.3
12452.9
12451.4
12449.9
12448.3
12446.6
12444.9
12443.1
12441.2
12439.2
12437.2
12435
12432.7
12430.2
12427.6
12424.8
12421.9
12418.7
12415.4
12411.8
12408
12404
12399.7
12395.3
12390.8
12386.1
12381.5
12376.8
12372.3
12368.1
12364.3
12361
12358.5
12356.8
12356
12356.1
12357.2
12359.2
12362
12365.4
12369.3
12373.7
12378.2
12382.8
12387.5
12392.1
12396.6
12400.9
12405
12409
12412.7
12416.2
12419.5
12422.6
12425.5
12428.2
12430.7
12433.1
12435.4
12437.5
12439.5
12441.4
12443.2
12444.9
12446.6
12448.2
12449.7
12451.2
12452.6
12454
12455.3
12456.5
12457.6
12458.7
12459.5
12462.2
12461.1
12459.8
12458.5
12457.1
12455.7
12454.2
12452.7
12451.1
12449.6
12447.9
12446.2
12444.4
12442.6
12440.6
12438.5
12436.3
12434
12431.5
12428.9
12426
12423
12419.7
12416.2
12412.5
12408.5
12404.3
12399.8
12395.1
12390.2
12385.2
12380
12374.9
12369.8
12365
12360.7
12356.9
12354
12351.9
12351
12351.2
12352.5
12354.8
12358
12362
12366.5
12371.4
12376.5
12381.6
12386.7
12391.6
12396.4
12401
12405.4
12409.5
12413.4
12417
12420.4
12423.6
12426.6
12429.4
12432
12434.4
12436.7
12438.8
12440.8
12442.7
12444.5
12446.2
12447.9
12449.4
12451
12452.5
12453.9
12455.4
12456.8
12458.2
12459.5
12460.8
12461.9
12464.6
12463.3
12461.7
12460.2
12458.6
12457.1
12455.5
12454
12452.5
12450.9
12449.3
12447.6
12445.9
12444
12442.1
12440
12437.8
12435.5
12433
12430.3
12427.4
12424.3
12420.9
12417.3
12413.4
12409.3
12404.8
12400.1
12395
12389.8
12384.2
12378.6
12372.8
12367.1
12361.5
12356.4
12352
12348.4
12346
12344.9
12345.1
12346.7
12349.5
12353.4
12358
12363.3
12368.9
12374.6
12380.3
12385.9
12391.3
12396.5
12401.4
12406
12410.3
12414.3
12418.1
12421.6
12424.9
12427.9
12430.8
12433.4
12435.8
12438.1
12440.3
12442.3
12444.1
12445.9
12447.6
12449.2
12450.8
12452.3
12453.8
12455.3
12456.8
12458.3
12459.9
12461.4
12463
12464.4
12467.2
12465.5
12463.6
12461.8
12460.1
12458.4
12456.8
12455.3
12453.8
12452.2
12450.7
12449.1
12447.4
12445.6
12443.7
12441.7
12439.5
12437.2
12434.7
12432
12429
12425.8
12422.4
12418.7
12414.7
12410.3
12405.7
12400.6
12395.3
12389.6
12383.5
12377.2
12370.7
12364.1
12357.6
12351.5
12346.1
12341.8
12338.8
12337.5
12337.7
12339.7
12343.2
12347.8
12353.5
12359.7
12366.2
12372.8
12379.2
12385.4
12391.3
12396.8
12402
12406.9
12411.4
12415.6
12419.5
12423.1
12426.4
12429.5
12432.3
12435
12437.4
12439.7
12441.8
12443.8
12445.6
12447.4
12449
12450.6
12452.1
12453.6
12455.1
12456.6
12458.2
12459.9
12461.6
12463.4
12465.3
12467
12469.8
12467.7
12465.4
12463.3
12461.4
12459.7
12458
12456.5
12455
12453.5
12452.1
12450.5
12448.9
12447.2
12445.4
12443.4
12441.3
12439
12436.5
12433.8
12430.9
12427.7
12424.2
12420.4
12416.3
12411.8
12406.9
12401.6
12395.9
12389.8
12383.1
12376.1
12368.7
12361
12353.3
12345.9
12339.2
12333.8
12330.1
12328.3
12328.7
12331.2
12335.5
12341.4
12348.3
12355.8
12363.5
12371
12378.3
12385.2
12391.6
12397.6
12403.1
12408.2
12412.9
12417.2
12421.2
12424.9
12428.2
12431.3
12434.2
12436.8
12439.2
12441.5
12443.5
12445.4
12447.2
12448.9
12450.4
12451.9
12453.4
12454.8
12456.3
12457.8
12459.5
12461.2
12463.1
12465.2
12467.5
12469.6
12472.4
12469.8
12467.1
12464.7
12462.6
12460.7
12459
12457.5
12456.1
12454.7
12453.4
12452
12450.5
12448.9
12447.1
12445.2
12443.2
12441
12438.6
12435.9
12433
12429.8
12426.3
12422.5
12418.3
12413.7
12408.7
12403.1
12397.1
12390.4
12383.2
12375.4
12366.9
12357.9
12348.6
12339.4
12331.1
12324.2
12319.4
12317.1
12317.6
12320.8
12326.4
12333.9
12342.5
12351.7
12360.8
12369.5
12377.8
12385.4
12392.4
12398.8
12404.6
12410
12414.9
12419.3
12423.4
12427.1
12430.4
12433.5
12436.3
12438.9
12441.2
12443.4
12445.4
12447.2
12448.9
12450.4
12451.9
12453.3
12454.6
12456
12457.3
12458.8
12460.5
12462.3
12464.4
12466.7
12469.5
12472.1
12474.9
12471.7
12468.4
12465.7
12463.5
12461.5
12459.9
12458.4
12457.1
12455.9
12454.7
12453.4
12452
12450.6
12449
12447.2
12445.3
12443.1
12440.8
12438.2
12435.4
12432.3
12428.8
12425
12420.8
12416.1
12410.9
12405.2
12398.8
12391.7
12383.9
12375.2
12365.6
12355
12343.7
12332.1
12321.4
12312.4
12306.2
12303.3
12303.9
12308.2
12315.5
12325.1
12336.2
12347.5
12358.5
12368.6
12377.8
12386.1
12393.7
12400.5
12406.7
12412.3
12417.3
12421.8
12425.9
12429.6
12433
12436
12438.7
12441.2
12443.4
12445.5
12447.4
12449.1
12450.6
12452
12453.3
12454.6
12455.8
12457
12458.2
12459.6
12461.2
12463.1
12465.3
12468
12471.3
12474.5
12477.3
12473.3
12469.3
12466.3
12463.9
12462.1
12460.5
12459.3
12458.1
12457.1
12456.1
12455
12453.8
12452.4
12451
12449.4
12447.6
12445.6
12443.3
12440.9
12438.1
12435.1
12431.7
12427.9
12423.7
12419
12413.7
12407.8
12401.2
12393.7
12385.4
12375.9
12365
12352.6
12338.6
12324
12310
12298.2
12290
12286.1
12287
12292.7
12302.5
12315.2
12329.4
12343.7
12356.9
12368.5
12378.7
12387.7
12395.7
12402.9
12409.3
12415.1
12420.2
12424.8
12428.8
12432.5
12435.8
12438.7
12441.3
12443.7
12445.8
12447.8
12449.5
12451.1
12452.5
12453.7
12454.9
12455.9
12456.9
12457.9
12459
12460.2
12461.6
12463.5
12465.8
12468.8
12472.8
12476.8
12479.3
12474.4
12469.6
12466.2
12463.9
12462.2
12460.9
12460
12459.1
12458.3
12457.5
12456.7
12455.7
12454.5
12453.2
12451.8
12450.1
12448.3
12446.2
12443.9
12441.2
12438.3
12435
12431.3
12427.2
12422.5
12417.1
12411.1
12404.3
12396.6
12387.8
12377.6
12365.6
12351.1
12333.9
12315
12296.5
12280.6
12269.4
12264.2
12265.5
12273.4
12286.6
12303.6
12322.4
12340.6
12356.5
12369.6
12380.7
12390.3
12398.6
12406
12412.6
12418.4
12423.5
12428.1
12432.1
12435.7
12438.9
12441.7
12444.2
12446.5
12448.4
12450.2
12451.8
12453.2
12454.4
12455.5
12456.5
12457.3
12458
12458.8
12459.6
12460.5
12461.7
12463.4
12465.7
12469.1
12473.8
12478.8
12481
12474.8
12468.9
12465.4
12463.2
12461.9
12461.1
12460.5
12460.1
12459.6
12459.1
12458.5
12457.7
12456.8
12455.7
12454.4
12452.9
12451.2
12449.3
12447.1
12444.6
12441.9
12438.7
12435.1
12431.1
12426.5
12421.2
12415.1
12408.3
12400.5
12391.6
12381.3
12368.8
12352.5
12330.8
12305.3
12279.2
12256.7
12241
12233.3
12235.1
12246.4
12265.3
12289.3
12315.4
12339.8
12358.9
12373.1
12384.4
12394.1
12402.5
12410
12416.5
12422.3
12427.4
12431.9
12435.8
12439.3
12442.3
12445
12447.3
12449.4
12451.3
12452.9
12454.3
12455.5
12456.6
12457.5
12458.2
12458.8
12459.2
12459.6
12460
12460.5
12461.3
12462.6
12464.8
12468.4
12474.2
12480.4
12483
12474.5
12467.2
12463.6
12461.9
12461.3
12461.1
12461.1
12461.1
12461.1
12460.9
12460.5
12459.9
12459.2
12458.2
12457
12455.7
12454.1
12452.4
12450.4
12448.1
12445.5
12442.5
12439.2
12435.3
12430.9
12425.8
12420
12413.3
12406
12397.8
12388.9
12378.5
12361.6
12332.8
12295.4
12256.7
12224.5
12203.5
12192.8
12195
12210.7
12236.7
12271.1
12310
12345.8
12368.8
12381.9
12391.3
12399.9
12407.8
12414.9
12421.2
12426.7
12431.6
12436
12439.7
12443
12445.8
12448.3
12450.5
12452.4
12454.1
12455.6
12456.9
12458
12458.9
12459.6
12460.1
12460.4
12460.6
12460.6
12460.5
12460.5
12460.6
12461.2
12462.9
12466.6
12473.9
12482.4
12483.2
12469.7
12461.9
12459.5
12459.3
12460
12460.9
12461.8
12462.4
12462.8
12462.9
12462.8
12462.5
12461.9
12461
12460
12458.8
12457.4
12455.8
12454
12451.9
12449.6
12447
12444
12440.5
12436.4
12431.7
12426
12419.7
12412.8
12405.7
12399.1
12392.8
12376.5
12339.3
12278.6
11998.2
11475
10999.7
10722.7
10756.9
11132.6
11662.9
12123
12308.5
12357.5
12383.5
12394.1
12400.1
12407.1
12414.4
12421.1
12427
12432.1
12436.8
12440.9
12444.4
12447.3
12449.8
12452
12454
12455.7
12457.2
12458.6
12459.7
12460.7
12461.5
12462
12462.3
12462.4
12462.2
12461.7
12461
12460.1
12459.2
12458.5
12458.7
12461.1
12469
12482.6
12450.7
12441.9
12443.2
12447.3
12451.3
12454.8
12457.7
12460.1
12461.9
12463.3
12464.3
12465
12465.4
12465.5
12465.5
12465.2
12464.6
12463.9
12463
12459.4
12450.1
12434.3
12411.6
12380.8
12340.9
12290.3
12226.5
12146
12043.3
11908.7
11725.3
11462.6
11063.4
10459.8
9083.2
7130.55
5276.28
3939.8
3415.97
3131.95
3157.35
3594.42
4395.1
5819.58
7638.87
9642.95
10635.8
11172.6
11532.5
11772.8
11943.1
12069.3
12166.1
12242
12302.5
12350.6
12388.4
12417.4
12438.4
12452.4
12460.2
12462.6
12463.5
12464.1
12464.6
12464.8
12464.8
12464.6
12464.1
12463.3
12462.3
12460.8
12459
12456.6
12453.7
12450.2
12446.2
12442.2
12441
12449.9
890.408
1290.28
1557.47
1760.36
1911.85
2028.29
2121
2197.14
2261.45
2317.12
2366.26
2410.18
2449.59
2484.69
2515.27
2540.72
2560.1
2572.11
2575.13
2569.87
2557.32
2535.52
2502.2
2454.88
2390.63
2306.42
2198.43
2062.86
1893.82
1684.47
1427.07
1109.49
702.555
245.608
193.46
509.826
1140.24
1251.63
1447.01
1438.6
1433.97
1412.96
1285.69
1044.72
375.001
67.6384
373.265
833.488
1208.08
1505.43
1746.74
1942.07
2099.3
2225.45
2325.88
2403.93
2462.37
2504.45
2533.07
2550.7
2559.66
2561.6
2554.65
2539.24
2516.96
2489.07
2456.46
2419.72
2379.03
2334.17
2284.42
2228.46
2164.2
2088.47
1996.58
1881.47
1731.99
1532.02
1268.9
875.498
0.00149598
-0.000341664
0.000283047
0.0006555
0.000864358
0.000882962
0.000708315
0.000355228
-0.000159296
-0.000823344
-0.00162944
-0.00257034
-0.0036589
-0.00492945
-0.00644541
-0.00820509
-0.0103637
-0.0127259
-0.0144937
-0.0143372
-0.0140971
-0.0145892
-0.0152193
-0.0407386
-0.0436543
0.00380819
0.151549
0.538913
0.713078
0.616354
0.473074
0.959381
3.52087
7.63041
223.08
2714.37
3824.74
3879.31
3911.37
3898.96
3904.4
3910.09
3874.15
3810.26
1775.67
16.6796
5.56148
2.58513
0.933014
0.42605
0.273461
0.330067
0.551617
0.761604
0.729406
0.311463
0.0571588
-0.011731
-0.00878068
-0.00500804
-0.00284419
-0.00381049
-0.00400621
-0.0020782
0.000185151
0.0019246
0.00309923
0.00389689
0.00434865
0.00458289
0.00468474
0.00474564
0.00479745
0.00480436
0.00470382
0.00444805
0.00402982
0.00347409
0.00275196
0.00464278
-0.00137197
-0.00134866
-0.00143057
-0.00158182
-0.00177215
-0.00200355
-0.00227774
-0.00259737
-0.00296942
-0.00340678
-0.0039291
-0.00456232
-0.00532902
-0.0061747
-0.00731058
-0.00873445
-0.0105052
-0.0124202
-0.0139643
-0.0140541
-0.0128877
-0.0148823
-0.0234507
-0.0291142
-0.024744
-0.0163313
0.549443
2.33122
2.93862
1.70181
0.973042
3.06754
4.5529
5.18748
127.168
1527.35
2498.16
3642.89
3933.89
3926.99
3928.2
3933.61
3579.27
2457.04
1229.17
13.5807
3.48199
7.04192
5.22293
1.33115
0.819638
1.66855
3.35328
4.44405
3.70083
1.07989
0.00404655
-0.00597484
-0.000733063
-0.000422671
-0.00176929
-0.0030734
-0.00283478
-0.00172624
-0.000170006
0.0010566
0.00180819
0.00215653
0.00226062
0.002184
0.00201831
0.00187382
0.00180112
0.00178866
0.00180025
0.0018082
0.00180581
0.00179741
0.00178347
0.00177545
-0.00112744
-0.00116299
-0.00122005
-0.00137422
-0.00155654
-0.00177651
-0.00203287
-0.00232768
-0.00266558
-0.0030548
-0.00350828
-0.00404526
-0.00470309
-0.00562916
-0.00683355
-0.00836374
-0.0104007
-0.012641
-0.0140342
-0.0141138
-0.014398
0.00150815
0.0784753
0.0644325
-0.0314691
-0.0406947
0.247725
6.34683
7.86537
7.74985
2.60428
14.2627
56.4721
56.6651
41.5578
0.376866
0.433941
162.946
1978.28
1426.3
1432.72
1806.99
80.5797
0.0787528
0.0838029
40.8878
58.2253
58.2154
15.8976
1.23057
1.39647
7.47716
7.58395
7.57396
7.45461
2.80249
-0.0181505
-0.0126716
-0.0084607
-0.00518844
-0.00293995
-0.00343341
-0.00360534
-0.00226173
-0.000200319
0.00133165
0.0021613
0.00256124
0.00261418
0.00247813
0.00228274
0.00212302
0.00203227
0.00199452
0.0019797
0.00196858
0.00195652
0.00195622
0.00193595
0.00197762
-0.00100416
-0.00101361
-0.00107077
-0.00118874
-0.00134814
-0.00154735
-0.00178225
-0.00205429
-0.00236974
-0.00274126
-0.00318968
-0.00374412
-0.00444462
-0.00534909
-0.00643846
-0.00790066
-0.00982804
-0.0125077
-0.0150376
-0.0159208
0.00136352
0.215125
0.27242
0.253688
0.21843
-0.0481828
-0.0572115
1.16554
5.94769
7.33218
7.3009
6.13205
3.96661
3.42855
0.0608072
0.440138
1.67533
0.0754456
0.0169407
0.0688213
0.0874336
0.083829
0.072889
0.0745198
0.0901441
0.0838403
0.996821
0.346819
3.10789
4.46121
4.39785
3.00914
5.24076
6.71971
3.40732
0.10174
0.0164638
0.0647436
0.0881348
0.0382008
-0.00192876
-0.00366078
-0.00321785
-0.00154624
0.000295761
0.00158804
0.00226098
0.00255126
0.00264751
0.00258565
0.00244356
0.00230128
0.00220029
0.00214105
0.00210609
0.00208005
0.00205551
0.00203629
0.00199518
0.00197195
-0.00084777
-0.000869408
-0.000929967
-0.00103421
-0.00117605
-0.00135238
-0.00155936
-0.00179678
-0.00206891
-0.00238578
-0.00276351
-0.00322519
-0.00380696
-0.00456659
-0.00556882
-0.00695171
-0.00901236
-0.0117821
-0.0146972
-0.0185707
0.0438529
0.27728
0.281337
0.161187
-0.00424115
-0.0461468
-0.0544901
-0.0407915
-0.00838205
0.0343978
0.0539378
0.0643313
0.0651247
0.0615623
0.0655427
0.780482
3.42351
3.00767
0.0659718
0.0722228
0.0733737
0.0746436
0.0729674
0.0736664
0.0817937
0.0859552
0.132578
0.115464
0.0258473
0.00880002
-0.0372493
-0.0670627
-0.100425
-0.113864
-0.0902363
-0.0554249
0.0882271
0.257028
0.26254
0.239492
0.0250119
-0.00371179
-0.00252832
-0.00128258
0.000610399
0.0020369
0.00260691
0.00280785
0.00283987
0.00273629
0.00256508
0.00239754
0.00227186
0.00219115
0.00214026
0.00210326
0.00207195
0.00204819
0.00201229
0.00199123
-0.000680175
-0.000706185
-0.000763704
-0.000858633
-0.000984287
-0.00113684
-0.00131255
-0.00150972
-0.00173098
-0.00198536
-0.0022895
-0.00266928
-0.00316572
-0.00383564
-0.00474289
-0.00605398
-0.00807443
-0.0107005
-0.0140517
-0.0185601
0.00777968
-0.0167987
-0.0495639
-0.0291148
-0.0197241
-0.0264516
-0.0425714
-0.044127
-0.016641
0.0162565
0.0399732
0.052975
0.0576978
0.05591
0.0490758
0.0414146
0.0376602
0.0594206
0.060397
0.0627502
0.0673716
0.0664358
0.0638513
0.0627397
0.0624413
0.0648057
0.050029
0.0300127
0.0133577
-0.00805704
-0.0342088
-0.0536091
-0.0459437
-0.0446205
-0.0303303
-0.0132378
-0.00379035
0.16987
0.264115
0.266691
0.193042
0.00476583
-0.00224307
-0.00132478
0.000351394
0.0019203
0.00254669
0.00278175
0.00284383
0.00275024
0.00257707
0.00240187
0.0022658
0.00217508
0.00211649
0.00207396
0.00203902
0.00201492
0.00198904
0.00197813
-0.000533974
-0.000555003
-0.000609647
-0.000694872
-0.000804558
-0.000934094
-0.00107838
-0.00123382
-0.00140148
-0.00158976
-0.00181539
-0.00210357
-0.00249083
-0.00301553
-0.00371512
-0.00477062
-0.00628829
-0.00773857
-0.0108851
-0.0115798
0.0157137
-0.0160484
-0.0665833
-0.0939328
-0.11616
-0.129586
-0.120556
-0.0827571
-0.0360479
0.00515089
0.0323064
0.0467153
0.0528172
0.0543539
0.0532203
0.0504893
0.0469442
0.0471278
0.0524779
0.0539996
0.0561779
0.0552146
0.0546157
0.0552268
0.0560738
0.0587653
0.0543573
0.0425332
0.0255863
-0.00106661
-0.0382765
-0.0760964
-0.106579
-0.114204
-0.0886619
-0.0476157
-0.00682982
0.00378619
0.242315
0.270063
0.281447
0.108491
-0.0034564
-0.00152424
-2.53946e-05
0.00153325
0.00226092
0.00255315
0.00265513
0.00259411
0.00244705
0.00229122
0.00216814
0.00208584
0.00203307
0.00199482
0.00196292
0.00194008
0.00191989
0.00191054
-0.000405577
-0.000423848
-0.000475575
-0.000550954
-0.000645663
-0.000753793
-0.000867975
-0.000982204
-0.0010957
-0.00121578
-0.00135819
-0.00154531
-0.0018044
-0.00214972
-0.0025871
-0.00323609
-0.00391679
-0.00429923
-0.00784587
0.000469984
0.0261453
-0.0309714
-0.0832604
-0.158932
-0.211468
-0.224441
-0.20146
-0.147578
-0.0820626
-0.026236
0.0102681
0.0299034
0.0389836
0.0426981
0.0442123
0.045268
0.0461175
0.0466086
0.0466735
0.0478141
0.0481527
0.0476141
0.0476426
0.0478191
0.048022
0.0487378
0.0452135
0.0342311
0.0134879
-0.0211871
-0.0710166
-0.126411
-0.170667
-0.186959
-0.165982
-0.105745
-0.0348201
-0.00579874
0.163537
0.284102
0.290894
0.13018
-0.00672595
-0.00262543
-0.00065688
0.000861488
0.00171432
0.00211892
0.0022929
0.00229039
0.00219343
0.00207841
0.00198647
0.00192697
0.00189097
0.00186504
0.0018419
0.00182343
0.00180804
0.0017996
-0.00028851
-0.000308423
-0.00035525
-0.000421351
-0.000502687
-0.000591454
-0.000677804
-0.000753354
-0.000815583
-0.000870729
-0.000933228
-0.00102183
-0.00115279
-0.00131882
-0.00150011
-0.00173736
-0.00176605
-0.00173958
-0.00440239
0.00964698
0.0225935
-0.0402633
-0.11977
-0.226706
-0.294469
-0.308849
-0.279304
-0.211495
-0.128531
-0.0580217
-0.011732
0.0138683
0.0268632
0.033451
0.0368012
0.0384848
0.0391441
0.0397935
0.0410391
0.0417506
0.0412008
0.0407398
0.0405798
0.040028
0.0388396
0.036647
0.0307472
0.0178245
-0.00665879
-0.0495223
-0.113712
-0.18762
-0.24674
-0.269966
-0.24923
-0.179935
-0.0859898
-0.033958
0.129672
0.293176
0.299906
0.0460384
-0.00877189
-0.00364097
-0.0015363
-8.37873e-06
0.000982649
0.0015213
0.00179176
0.00186904
0.00184132
0.00178376
0.00173639
0.00170974
0.0016978
0.00168987
0.00168014
0.00167016
0.00166157
0.00165717
-0.000183727
-0.000203711
-0.000244386
-0.00030236
-0.000372219
-0.000444179
-0.000506262
-0.000548228
-0.000566447
-0.000566753
-0.000562816
-0.000569971
-0.000594118
-0.000611034
-0.000583572
-0.00050719
-0.00017141
-0.000216357
0.00522495
0.0254755
0.0140315
-0.0502891
-0.152298
-0.277343
-0.35235
-0.367146
-0.333161
-0.254722
-0.15978
-0.0804985
-0.0287887
0.000163602
0.0155727
0.0242239
0.0293419
0.0323519
0.0339965
0.0348893
0.0356011
0.0359349
0.0351589
0.0346243
0.034067
0.032744
0.030163
0.0256683
0.0173774
0.00192069
-0.0267181
-0.0776038
-0.154963
-0.244964
-0.317273
-0.346672
-0.324687
-0.248384
-0.137924
-0.0689775
-0.00526854
0.275298
0.202385
0.00146172
-0.00961021
-0.00445531
-0.00247816
-0.000923167
0.000172675
0.000830915
0.00120089
0.00136685
0.00141958
0.00143068
0.00143773
0.00145159
0.00146913
0.00148312
0.00148989
0.00149135
0.00149095
0.00149157
-8.7217e-05
-0.000103317
-0.000138475
-0.000189641
-0.000249822
-0.000307842
-0.000350302
-0.000365868
-0.000350696
-0.000311372
-0.000262311
-0.000217266
-0.000174844
-0.000100478
4.97876e-05
0.000264561
0.000632732
0.000614709
0.00516976
0.0246597
0.0129646
-0.0493255
-0.154598
-0.28214
-0.359275
-0.378322
-0.338067
-0.254909
-0.161198
-0.0850196
-0.0360981
-0.00823369
0.00737926
0.0168386
0.0227743
0.0264444
0.0285461
0.0295657
0.0303455
0.0304952
0.0297802
0.0291452
0.0281871
0.0262265
0.0225878
0.0166003
0.0068019
-0.00992531
-0.0397909
-0.0926477
-0.173383
-0.268283
-0.346029
-0.380056
-0.35661
-0.275146
-0.155346
-0.0776531
-0.0552547
-0.0180282
0.0150418
0.00138311
-0.0112276
-0.00584182
-0.00358811
-0.00187345
-0.000668942
0.000101346
0.00056809
0.000824722
0.00096239
0.00104736
0.00111389
0.00117264
0.00122276
0.00126055
0.00128494
0.00129883
0.00130674
0.00131199
9.05784e-06
-2.05532e-06
-3.32112e-05
-7.8768e-05
-0.000131012
-0.000178259
-0.000206514
-0.000204138
-0.000167916
-0.000106324
-3.64426e-05
2.6318e-05
8.52902e-05
0.000176545
0.000339208
0.000541567
0.000706715
0.000557228
-0.000363894
0.0121726
0.00911263
-0.0444392
-0.128702
-0.233202
-0.305617
-0.321958
-0.286437
-0.215577
-0.138124
-0.0763233
-0.0360614
-0.012222
0.00165929
0.0110222
0.017213
0.0212418
0.0236539
0.0247984
0.0255107
0.0256073
0.0250601
0.0243121
0.0230215
0.0205838
0.0163162
0.00967415
-0.000408374
-0.0164953
-0.0437258
-0.0913263
-0.163853
-0.249364
-0.320186
-0.352077
-0.327309
-0.246713
-0.131499
-0.0630444
-0.0433394
-0.0343975
-0.0273319
-0.0156046
-0.0127804
-0.00769718
-0.00481847
-0.00284137
-0.00150476
-0.000623403
-6.38442e-05
0.000281484
0.000502917
0.000661151
0.000786995
0.000890769
0.000973581
0.00103489
0.00107629
0.00110209
0.00111768
0.00112681
0.00010738
9.9382e-05
7.11572e-05
3.03604e-05
-1.55666e-05
-5.52161e-05
-7.47704e-05
-6.29952e-05
-1.78562e-05
4.98643e-05
0.000119624
0.000172015
0.000206581
0.000251698
0.000330721
0.000396257
0.000295615
-0.000281192
-0.00241866
-0.00821454
-0.0162564
-0.0419568
-0.0885553
-0.152769
-0.204882
-0.219199
-0.20087
-0.15455
-0.102778
-0.0608685
-0.0321071
-0.0135786
-0.00152221
0.00684826
0.0127362
0.0167583
0.0192832
0.0205313
0.0212231
0.0213302
0.0209383
0.0200975
0.0185869
0.015872
0.0113767
0.00467033
-0.00473854
-0.0188427
-0.0414084
-0.0789407
-0.134588
-0.198939
-0.249372
-0.264907
-0.243059
-0.176559
-0.0961812
-0.0516416
-0.0359169
-0.0318191
-0.0292347
-0.0214075
-0.013557
-0.00884721
-0.00576204
-0.00368184
-0.00225433
-0.00129188
-0.000654585
-0.000229663
6.8305e-05
0.000293883
0.000474246
0.000619383
0.000732216
0.000814943
0.00087162
0.000907979
0.000930222
0.000942402
0.000202755
0.00019568
0.000170101
0.000133546
9.2583e-05
5.78774e-05
4.23435e-05
5.6145e-05
9.96551e-05
0.000159946
0.000213904
0.000238628
0.000227307
0.00019428
0.000148809
3.90065e-07
-0.000451229
-0.00119276
-0.00380468
-0.00917967
-0.0189561
-0.0344004
-0.0570619
-0.0905001
-0.121308
-0.13457
-0.12739
-0.102736
-0.0726987
-0.0466439
-0.0271324
-0.0132075
-0.00324634
0.0040305
0.00934197
0.0131049
0.0155617
0.016882
0.017553
0.0176676
0.0173656
0.0165065
0.014881
0.012109
0.00775394
0.00157664
-0.00686756
-0.0186684
-0.0360784
-0.0627305
-0.100512
-0.143399
-0.175053
-0.179332
-0.159965
-0.116728
-0.0711634
-0.045459
-0.0346864
-0.0298446
-0.0253036
-0.0189152
-0.013104
-0.0091015
-0.00627888
-0.004279
-0.00285165
-0.00186002
-0.00117121
-0.000683632
-0.000321976
-3.92122e-05
0.000187426
0.00036752
0.000505693
0.000606503
0.000676038
0.000721264
0.000748987
0.000763483
0.000289005
0.00028174
0.000258911
0.000226134
0.000189007
0.00015752
0.000142869
0.000153768
0.000188233
0.000230944
0.000257629
0.000244854
0.000179825
5.4622e-05
-8.12039e-05
-0.000408354
-0.000993297
-0.00210464
-0.0045625
-0.00906607
-0.0162151
-0.0265483
-0.0401194
-0.0579385
-0.0746874
-0.0833522
-0.0807749
-0.0683645
-0.0515759
-0.0355193
-0.0222622
-0.0118835
-0.00388512
0.00223459
0.00684533
0.01021
0.0124871
0.0138028
0.0144713
0.0146057
0.0143898
0.0134822
0.0118774
0.00919987
0.00520792
-0.000260883
-0.00748549
-0.0170561
-0.0300687
-0.0480745
-0.0717337
-0.0978312
-0.117512
-0.121295
-0.108339
-0.0832611
-0.0581134
-0.042655
-0.0333327
-0.0269705
-0.0215098
-0.0163665
-0.0121652
-0.00893034
-0.00647004
-0.00463172
-0.00328275
-0.00230529
-0.00159384
-0.0010643
-0.000655556
-0.000328558
-6.61854e-05
0.000140772
0.000298393
0.00041322
0.000492843
0.000545079
0.000577087
0.000593509
0.00036365
0.000355186
0.000335413
0.000305744
0.000271135
0.000242355
0.000226795
0.000232984
0.000256048
0.000277025
0.000270554
0.000218107
0.000107355
-6.97837e-05
-0.000338736
-0.000786982
-0.00149032
-0.00265564
-0.00476088
-0.00830587
-0.0136125
-0.0209311
-0.0298993
-0.0401084
-0.0492328
-0.0539686
-0.052953
-0.0465967
-0.0370862
-0.026996
-0.017857
-0.0101461
-0.00385803
0.00114992
0.00503984
0.0079562
0.009997
0.0112507
0.0119169
0.0120757
0.0118984
0.0110152
0.00949775
0.00702929
0.0034904
-0.00121346
-0.00722743
-0.0148506
-0.0245322
-0.0367156
-0.0511836
-0.065916
-0.0767729
-0.0796667
-0.0735708
-0.0608305
-0.0471655
-0.0368805
-0.0292605
-0.0235097
-0.0187311
-0.0146287
-0.011275
-0.00857608
-0.00644875
-0.00480985
-0.00356757
-0.00262915
-0.00191718
-0.00136334
-0.000926427
-0.000568988
-0.000282727
-5.7842e-05
0.000112763
0.00023723
0.000324022
0.000381368
0.00041629
0.000434929
0.00042805
0.000415141
0.000399708
0.000372467
0.000337405
0.000313693
0.000294336
0.000295783
0.000309724
0.000312676
0.000276584
0.000184313
3.29357e-05
-0.000187524
-0.000523743
-0.00104691
-0.00180526
-0.00292222
-0.00469311
-0.00745983
-0.0113335
-0.016342
-0.0221832
-0.0282934
-0.0334968
-0.0363584
-0.0360845
-0.0326436
-0.0269753
-0.0204325
-0.0140565
-0.00835212
-0.00348241
0.000537581
0.00375107
0.00622068
0.00800373
0.00916323
0.00981787
0.0100049
0.00983564
0.00902119
0.00763796
0.00543834
0.00238208
-0.00157841
-0.00649865
-0.0125018
-0.019729
-0.0281807
-0.0373685
-0.0459493
-0.0517848
-0.0530414
-0.0496291
-0.0432764
-0.0359532
-0.0295271
-0.0243056
-0.0200327
-0.016339
-0.013112
-0.0103725
-0.00810985
-0.00628754
-0.00484785
-0.00372168
-0.00284002
-0.00214402
-0.00158456
-0.00112963
-0.000758839
-0.000461066
-0.000227367
-5.02775e-05
7.94856e-05
0.000170518
0.000231225
0.000266662
0.000289861
0.00047754
0.000466138
0.000454102
0.000429618
0.000396968
0.000365644
0.000344097
0.00034147
0.000349897
0.000342556
0.000286362
0.000163281
-2.13719e-05
-0.000269207
-0.00063024
-0.00117812
-0.0019425
-0.00297426
-0.00444548
-0.00658323
-0.00942033
-0.0128629
-0.0166984
-0.0205408
-0.0237261
-0.0254997
-0.0253727
-0.0233035
-0.0197404
-0.0153936
-0.0109121
-0.00670294
-0.00296411
0.000224712
0.00284171
0.00489776
0.00642537
0.00747504
0.00810909
0.008318
0.00813409
0.00740691
0.00617522
0.00425957
0.00167634
-0.00159705
-0.00557049
-0.0102706
-0.0156858
-0.021657
-0.0277172
-0.0330677
-0.036653
-0.0375969
-0.0358093
-0.0321204
-0.0278223
-0.0237563
-0.020171
-0.017008
-0.0141692
-0.0116336
-0.00942765
-0.00756186
-0.00602266
-0.004772
-0.00376252
-0.0029455
-0.00227792
-0.00172787
-0.00127385
-0.000902278
-0.000603545
-0.000369235
-0.000190999
-6.00277e-05
3.25697e-05
9.49568e-05
0.000129929
0.000157267
0.000515215
0.00050609
0.000497621
0.000476876
0.000444828
0.000408366
0.000380036
0.000370568
0.000374522
0.000364272
0.000301302
0.000162284
-4.47746e-05
-0.000308632
-0.000668057
-0.00119903
-0.0019317
-0.00286543
-0.00408006
-0.00571417
-0.00779159
-0.0102072
-0.0127864
-0.0152637
-0.0172279