/*--------------------------------*- C++ -*----------------------------------*\
| =========                 |                                                 |
| \\      /  F ield         | OpenFOAM: The Open Source CFD Toolbox           |
|  \\    /   O peration     | Version:  2412                                  |
|   \\  /    A nd           | Website:  www.openfoam.com                      |
|    \\/     M anipulation  |                                                 |
\*---------------------------------------------------------------------------*/
FoamFile
{
    version     2.0;
    format      ascii;
    arch        "LSB;label=32;scalar=64";
    class       volScalarField;
    location    "0.34";
    object      p_rgh;
}
// * * * * * * * * * * * * * * * * * * * * * * * * * * * * * * * * * * * * * //

dimensions      [1 -1 -2 0 0 0 0];

internalField   nonuniform List<scalar> 
80000
(
29400.6
29400.9
29401
29401
29400.9
29400.8
29400.7
29400.7
29400.6
29400.6
29400.6
29400.6
29400.5
29400.5
29400.5
29400.5
29400.5
29400.5
29400.5
29400.5
29400.4
29400.4
29400.4
29400.4
29400.4
29400.4
29400.4
29400.4
29400.4
29400.4
29400.4
29400.4
29400.4
29400.5
29400.5
29400.5
29400.5
29400.5
29400.5
29400.5
29400.5
29400.6
29400.6
29400.6
29400.6
29400.6
29400.6
29400.6
29400.6
29400.6
29400.6
29400.6
29400.6
29400.6
29400.6
29400.6
29400.6
29400.6
29400.6
29400.6
29400.6
29400.6
29400.6
29400.6
29400.6
29400.6
29400.6
29400.6
29400.6
29400.6
29400.6
29400.6
29400.6
29400.6
29400.6
29400.6
29400.6
29400.6
29400.6
29400.6
29400.6
29400.6
29400.6
29400.6
29400.6
29400.6
29400.6
29400.6
29400.6
29400.6
29400.6
29400.6
29400.6
29400.6
29400.6
29400.6
29400.6
29400.6
29400.6
29400.6
29400.6
29400.6
29400.6
29400.6
29400.6
29400.6
29400.6
29400.6
29400.6
29400.6
29400.6
29400.6
29400.6
29400.6
29400.6
29400.6
29400.6
29400.6
29400.6
29400.6
29400.6
29400.6
29400.6
29400.6
29400.6
29400.6
29400.6
29400.6
29400.6
29400.6
29400.6
29400.6
29400.6
29400.6
29400.6
29400.6
29400.6
29400.6
29400.6
29400.6
29400.6
29400.6
29400.6
29400.6
29400.6
29400.6
29400.6
29400.6
29400.6
29400.6
29400.6
29400.6
29400.6
29400.6
29400.6
29400.6
29400.6
29400.6
29400.6
29400.6
29400.6
29400.6
29400.6
29400.6
29400.6
29400.6
29400.6
29400.6
29400.6
29400.6
29400.6
29400.6
29400.6
29400.6
29400.6
29400.6
29400.6
29400.6
29400.6
29400.6
29400.6
29400.6
29400.6
29400.6
29400.6
29400.6
29400.6
29400.6
29400.6
29400.6
29400.6
29400.6
29400.6
29400.6
29400.6
29400.6
29400.6
29400.6
29400.6
29400.6
29400.6
29400.6
29400.6
29400.6
29400.6
29400.6
29400.6
29400.6
29400.6
29400.6
29400.6
29400.6
29400.6
29400.6
29400.6
29400.6
29400.6
29400.6
29400.6
29400.6
29400.6
29400.6
29400.6
29400.6
29400.6
29400.6
29400.6
29400.6
29400.6
29400.6
29400.6
29400.6
29400.6
29400.6
29400.6
29400.6
29400.6
29400.6
29400.6
29400.7
29400.7
29400.7
29400.7
29400.7
29400.7
29400.7
29400.7
29400.7
29400.7
29400.7
29400.7
29400.7
29400.7
29400.7
29400.7
29400.7
29400.7
29400.7
29400.7
29400.7
29400.7
29400.7
29400.7
29400.7
29400.8
29400.8
29400.8
29400.8
29400.8
29400.8
29400.8
29400.8
29400.8
29400.8
29400.8
29400.8
29400.8
29400.9
29400.9
29400.9
29400.9
29400.9
29400.9
29400.9
29400.9
29401
29401
29401
29401
29401
29401
29401
29401.1
29401.1
29401.1
29401.1
29401.1
29401.1
29401.2
29401.2
29401.2
29401.2
29401.3
29401.3
29401.3
29401.3
29401.3
29401.4
29401.4
29401.4
29401.5
29401.5
29401.5
29401.6
29401.6
29401.6
29401.7
29401.7
29401.7
29401.8
29401.8
29401.9
29401.9
29402
29402
29402.1
29402.1
29402.2
29402.2
29402.3
29402.3
29402.4
29402.5
29402.5
29402.6
29402.7
29402.7
29402.8
29402.9
29403
29403.1
29403.1
29403.2
29403.3
29403.4
29403.5
29403.6
29403.7
29403.9
29404
29404.1
29404.2
29404.3
29404.5
29404.6
29404.8
29404.9
29405.1
29405.2
29405.4
29405.6
29405.7
29405.9
29406.1
29406.3
29406.5
29406.7
29406.9
29407.2
29407.4
29407.6
29407.9
29408.2
29408.4
29408.7
29409
29409.3
29409.6
29410
29410.3
29410.6
29411
29411.4
29411.8
29412.2
29412.6
29413
29413.5
29414
29414.5
29415
29415.5
29416
29416.6
29417.2
29417.8
29418.4
29419.1
29419.7
29420.5
29421.2
29421.9
29422.7
29423.5
29424.4
29425.3
29426.2
29427.1
29428.1
29429.1
29430.2
29431.2
29432.4
29433.6
29434.8
29436
29437.4
29438.7
29440.1
29441.6
29443.1
29444.7
29446.3
29448
29449.8
29451.6
29453.5
29455.5
29457.5
29459.7
29461.9
29464.2
29466.5
29469
29471.6
29474.2
29477
29479.8
29482.8
29485.9
29489.1
29492.4
29495.8
29499.4
29503.1
29507
29511
29515.1
29519.4
29523.9
29528.5
29533.3
29538.3
29543.5
29548.9
29554.5
29560.3
29566.3
29572.5
29579
29585.7
29592.7
29599.9
29607.4
29615.2
29623.3
29631.7
29640.5
29649.5
29659
29668.8
29678.9
29689.5
29700.5
29712
29723.9
29736.3
29749.2
29762.6
29776.5
29791
29806.1
29821.7
29838
29854.9
29872.4
29890.6
29909.5
29929.1
29949.5
29970.6
29992.6
30015.4
30039.1
30063.7
30089.3
30115.9
30143.5
30172.2
30202.1
30233.2
30265.5
30299.1
30334
30370.3
30408.1
30447.4
30488.2
30530.7
30574.9
30620.7
30668.4
30718
30769.4
30822.9
30878.4
30936.1
30996
31058.2
31122.9
31190.1
31259.9
31332.3
31407.6
31485.7
31566.8
31650.9
31738.1
31828.6
31922.3
32019.3
32119.8
32223.9
32331.7
32443.2
32558.5
32677.8
32801.1
32928.5
33060
33195.7
33335.6
33479.7
33628
33780.5
33937.2
34098
34263
34431.9
34604.8
34781.5
34961.9
35145.6
35332.5
35522.4
35714.8
35909.6
36106.2
36304.3
36503.4
36703
36902.7
37101.8
37299.7
37495.8
37689.4
37879.8
38066.2
38248
38424.3
38594.3
38757.4
38912.7
39059.6
39197.2
39324.9
39442
39547.9
39642
39723.7
39792.7
39848.5
39890.7
39919.2
39933.7
39934.1
39920.3
39892.5
39850.8
39795.4
39726.5
39644.4
39549.7
39442.8
39324.2
39194.6
39054.6
38904.9
38746.2
38579.3
38405
38224.1
38037.2
37845.4
37649.2
37449.4
37246.9
37042.5
36836.7
36630.2
36423.5
36217.3
36012.2
35808.8
35607.3
35408.1
35211.6
35018.3
34828.4
34642.2
34459.9
34281.6
34107.4
33937.6
33772.2
33611.2
33454.8
33302.8
33155.3
33012.4
32874
32740
32610.5
32485.2
32364.2
32247.4
32134.7
32026.1
31921.4
31820.5
31723.2
31629.6
31539.4
31452.7
31369.2
31288.9
31211.7
31137.5
31066.2
30997.7
30931.9
30868.6
30807.9
30749.6
30693.6
30639.9
30588.3
30538.9
30491.6
30446.2
30402.7
30360.9
30320.9
30282.4
30245.5
30210.1
30176.1
30143.6
30112.3
30082.4
30053.8
30026.4
30000.1
29975
29950.9
29927.8
29905.7
29884.5
29864.1
29844.5
29825.8
29807.7
29790.5
29773.9
29758
29742.8
29728.2
29714.2
29700.8
29687.9
29675.6
29663.9
29652.6
29641.8
29631.4
29621.6
29612.1
29603.1
29594.4
29586.2
29578.3
29570.7
29563.5
29556.5
29549.9
29543.5
29537.4
29531.5
29525.9
29520.5
29515.3
29510.4
29505.7
29501.1
29496.8
29492.6
29488.6
29484.8
29481.1
29477.6
29474.2
29471
29468
29465
29462.2
29459.5
29456.9
29454.5
29452.1
29449.8
29447.7
29445.6
29443.6
29441.7
29439.9
29438.2
29436.5
29434.9
29433.4
29432
29430.6
29429.3
29428
29426.8
29425.6
29424.5
29423.4
29422.4
29421.4
29420.5
29419.6
29418.8
29418
29417.2
29416.4
29415.7
29415
29414.4
29413.8
29413.2
29412.6
29412.1
29411.5
29411.1
29410.6
29410.1
29409.7
29409.3
29408.9
29408.5
29408.1
29407.8
29407.5
29407.2
29406.9
29406.6
29406.3
29406
29405.8
29405.5
29405.3
29405.1
29404.9
29404.7
29404.5
29404.3
29404.2
29404
29403.8
29403.7
29403.5
29403.4
29403.3
29403.2
29403
29402.9
29402.8
29402.7
29402.6
29402.5
29402.4
29402.3
29402.3
29402.2
29402.1
29402
29402
29401.9
29401.8
29401.8
29401.7
29401.7
29401.6
29401.6
29401.5
29401.5
29401.4
29401.4
29401.4
29401.3
29401.3
29401.3
29401.2
29401.2
29401.2
29401.1
29401.1
29401.1
29401.1
29401
29401
29401
29401
29401
29400.9
29400.9
29400.9
29400.9
29400.9
29400.9
29400.9
29400.8
29400.8
29400.8
29400.8
29400.8
29400.8
29400.8
29400.8
29400.8
29400.7
29400.7
29400.7
29400.7
29400.7
29400.7
29400.7
29400.7
29400.7
29400.7
29400.7
29400.7
29400.7
29400.7
29400.7
29400.7
29400.7
29400.6
29400.6
29400.6
29400.6
29400.6
29400.6
29400.6
29400.6
29400.6
29400.6
29400.6
29400.6
29400.6
29400.6
29400.6
29400.6
29400.6
29400.6
29400.6
29400.6
29400.6
29400.6
29400.6
29400.6
29400.6
29400.6
29400.6
29400.6
29400.6
29400.6
29400.6
29400.6
29400.6
29400.6
29400.6
29400.6
29400.6
29400.6
29400.6
29400.6
29400.6
29400.6
29400.6
29400.6
29400.6
29400.6
29400.6
29400.6
29400.6
29400.6
29400.6
29400.6
29400.6
29400.6
29400.6
29400.6
29400.6
29400.6
29400.6
29400.6
29400.6
29400.6
29400.6
29400.6
29400.6
29400.6
29400.6
29400.6
29400.6
29400.6
29400.6
29400.6
29400.6
29400.6
29400.6
29400.6
29400.6
29400.6
29400.6
29400.6
29400.6
29400.6
29400.6
29400.6
29400.6
29400.6
29400.6
29400.6
29400.6
29400.6
29400.6
29400.6
29400.6
29400.6
29400.6
29400.6
29400.6
29400.6
29400.6
29400.6
29400.6
29400.6
29400.6
29400.6
29400.6
29400.6
29400.6
29400.6
29400.6
29400.6
29400.6
29400.6
29400.6
29400.6
29400.6
29400.6
29400.6
29400.6
29400.6
29400.6
29400.6
29400.6
29400.6
29400.6
29400.6
29400.6
29400.6
29400.6
29400.6
29400.6
29400.6
29400.6
29400.6
29400.4
29400.4
29400.4
29400.5
29400.6
29400.6
29400.6
29400.6
29400.6
29400.6
29400.6
29400.6
29400.6
29400.6
29400.6
29400.6
29400.6
29400.6
29400.6
29400.6
29400.7
29400.7
29400.7
29400.7
29400.7
29400.7
29400.7
29400.6
29400.6
29400.6
29400.6
29400.6
29400.6
29400.6
29400.6
29400.6
29400.6
29400.6
29400.6
29400.6
29400.6
29400.6
29400.6
29400.6
29400.6
29400.6
29400.6
29400.6
29400.6
29400.6
29400.6
29400.6
29400.6
29400.6
29400.6
29400.6
29400.6
29400.6
29400.6
29400.6
29400.6
29400.6
29400.6
29400.6
29400.6
29400.6
29400.6
29400.6
29400.6
29400.6
29400.6
29400.6
29400.6
29400.6
29400.6
29400.6
29400.6
29400.6
29400.6
29400.6
29400.6
29400.6
29400.6
29400.6
29400.6
29400.6
29400.6
29400.6
29400.6
29400.6
29400.6
29400.6
29400.6
29400.6
29400.6
29400.6
29400.6
29400.6
29400.6
29400.6
29400.6
29400.6
29400.6
29400.6
29400.6
29400.6
29400.6
29400.6
29400.6
29400.6
29400.6
29400.6
29400.6
29400.6
29400.6
29400.6
29400.6
29400.6
29400.6
29400.6
29400.6
29400.6
29400.6
29400.6
29400.6
29400.6
29400.6
29400.6
29400.6
29400.6
29400.6
29400.6
29400.6
29400.6
29400.6
29400.6
29400.6
29400.6
29400.6
29400.6
29400.6
29400.6
29400.6
29400.6
29400.6
29400.6
29400.6
29400.6
29400.6
29400.6
29400.6
29400.6
29400.6
29400.6
29400.6
29400.6
29400.6
29400.6
29400.6
29400.6
29400.6
29400.6
29400.6
29400.6
29400.6
29400.6
29400.6
29400.6
29400.6
29400.6
29400.6
29400.6
29400.6
29400.6
29400.6
29400.6
29400.6
29400.6
29400.6
29400.6
29400.6
29400.6
29400.6
29400.6
29400.6
29400.6
29400.6
29400.6
29400.6
29400.6
29400.6
29400.6
29400.6
29400.6
29400.6
29400.6
29400.6
29400.6
29400.6
29400.6
29400.6
29400.6
29400.6
29400.6
29400.6
29400.6
29400.6
29400.6
29400.6
29400.6
29400.6
29400.6
29400.6
29400.6
29400.6
29400.6
29400.6
29400.6
29400.6
29400.6
29400.6
29400.6
29400.6
29400.6
29400.6
29400.6
29400.6
29400.6
29400.6
29400.6
29400.6
29400.6
29400.6
29400.6
29400.6
29400.6
29400.6
29400.6
29400.6
29400.7
29400.7
29400.7
29400.7
29400.7
29400.7
29400.7
29400.7
29400.7
29400.7
29400.7
29400.7
29400.7
29400.7
29400.7
29400.7
29400.7
29400.7
29400.7
29400.7
29400.7
29400.7
29400.7
29400.7
29400.7
29400.8
29400.8
29400.8
29400.8
29400.8
29400.8
29400.8
29400.8
29400.8
29400.8
29400.8
29400.8
29400.8
29400.9
29400.9
29400.9
29400.9
29400.9
29400.9
29400.9
29400.9
29400.9
29401
29401
29401
29401
29401
29401
29401.1
29401.1
29401.1
29401.1
29401.1
29401.1
29401.2
29401.2
29401.2
29401.2
29401.2
29401.3
29401.3
29401.3
29401.3
29401.4
29401.4
29401.4
29401.5
29401.5
29401.5
29401.6
29401.6
29401.6
29401.7
29401.7
29401.7
29401.8
29401.8
29401.9
29401.9
29402
29402
29402.1
29402.1
29402.2
29402.2
29402.3
29402.3
29402.4
29402.5
29402.5
29402.6
29402.7
29402.7
29402.8
29402.9
29403
29403.1
29403.1
29403.2
29403.3
29403.4
29403.5
29403.6
29403.7
29403.8
29404
29404.1
29404.2
29404.3
29404.5
29404.6
29404.7
29404.9
29405
29405.2
29405.4
29405.5
29405.7
29405.9
29406.1
29406.3
29406.5
29406.7
29406.9
29407.2
29407.4
29407.6
29407.9
29408.1
29408.4
29408.7
29409
29409.3
29409.6
29409.9
29410.3
29410.6
29411
29411.4
29411.8
29412.2
29412.6
29413
29413.5
29413.9
29414.4
29414.9
29415.5
29416
29416.6
29417.2
29417.8
29418.4
29419
29419.7
29420.4
29421.1
29421.9
29422.7
29423.5
29424.3
29425.2
29426.1
29427.1
29428
29429.1
29430.1
29431.2
29432.3
29433.5
29434.7
29436
29437.3
29438.7
29440.1
29441.5
29443.1
29444.6
29446.3
29448
29449.7
29451.6
29453.5
29455.4
29457.5
29459.6
29461.8
29464.1
29466.4
29468.9
29471.4
29474.1
29476.8
29479.7
29482.7
29485.7
29488.9
29492.2
29495.7
29499.3
29503
29506.8
29510.8
29514.9
29519.2
29523.7
29528.3
29533.1
29538.1
29543.3
29548.7
29554.3
29560
29566.1
29572.3
29578.7
29585.5
29592.4
29599.6
29607.1
29614.9
29623
29631.4
29640.1
29649.2
29658.6
29668.3
29678.5
29689.1
29700.1
29711.5
29723.4
29735.8
29748.7
29762
29776
29790.4
29805.5
29821.1
29837.3
29854.2
29871.7
29889.9
29908.7
29928.3
29948.7
29969.8
29991.7
30014.5
30038.1
30062.7
30088.3
30114.8
30142.4
30171.1
30200.9
30231.9
30264.2
30297.7
30332.6
30368.9
30406.6
30445.8
30486.6
30529
30573.1
30618.9
30666.5
30716
30767.4
30820.8
30876.2
30933.8
30993.7
31055.8
31120.4
31187.5
31257.2
31329.6
31404.8
31482.8
31563.8
31647.9
31735
31825.3
31918.9
32015.9
32116.3
32220.3
32328
32439.4
32554.7
32673.9
32797.2
32924.5
33056
33191.7
33331.5
33475.6
33623.9
33776.4
33933.2
34094.1
34259.1
34428.2
34601.3
34778.1
34958.7
35142.6
35329.8
35520
35712.8
35907.9
36104.9
36303.4
36503
36703.2
36903.4
37103.1
37301.6
37498.3
37692.6
37883.7
38070.8
38253.2
38430.2
38601
38764.8
38920.8
39068.2
39206.5
39334.8
39452.4
39558.8
39653.4
39735.5
39804.9
39860.9
39903.3
39932
39946.5
39946.9
39933.1
39905.2
39863.3
39807.5
39738.3
39655.8
39560.7
39453.2
39334.1
39203.9
39063.3
38912.9
38753.5
38585.9
38410.9
38229.2
38041.7
37849.1
37652.2
37451.9
37248.7
37043.6
36837.2
36630.1
36423
36216.3
36010.8
35806.8
35604.9
35405.4
35208.8
35015.2
34825.1
34638.7
34456.2
34277.7
34103.5
33933.6
33768.2
33607.2
33450.7
33298.7
33151.3
33008.4
32870.1
32736.1
32606.6
32481.4
32360.5
32243.8
32131.2
32022.7
31918
31817.2
31720.1
31626.5
31536.5
31449.8
31366.4
31286.2
31209.1
31135
31063.8
30995.4
30929.6
30866.5
30805.8
30747.6
30691.7
30638
30586.6
30537.2
30490
30444.6
30401.2
30359.5
30319.5
30281.1
30244.3
30208.9
30175
30142.4
30111.2
30081.4
30052.8
30025.4
29999.2
29974.1
29950.1
29927
29904.9
29883.7
29863.4
29843.9
29825.1
29807.1
29789.9
29773.3
29757.5
29742.2
29727.7
29713.7
29700.3
29687.5
29675.2
29663.4
29652.2
29641.4
29631.1
29621.2
29611.8
29602.8
29594.1
29585.9
29578
29570.5
29563.2
29556.3
29549.6
29543.3
29537.2
29531.3
29525.7
29520.3
29515.2
29510.2
29505.5
29501
29496.6
29492.4
29488.5
29484.6
29481
29477.5
29474.1
29470.9
29467.9
29464.9
29462.1
29459.4
29456.8
29454.4
29452
29449.8
29447.6
29445.5
29443.6
29441.7
29439.9
29438.1
29436.5
29434.9
29433.4
29431.9
29430.5
29429.2
29427.9
29426.7
29425.6
29424.5
29423.4
29422.4
29421.4
29420.5
29419.6
29418.7
29417.9
29417.2
29416.4
29415.7
29415
29414.4
29413.8
29413.2
29412.6
29412
29411.5
29411
29410.6
29410.1
29409.7
29409.3
29408.9
29408.5
29408.1
29407.8
29407.5
29407.1
29406.8
29406.6
29406.3
29406
29405.8
29405.5
29405.3
29405.1
29404.9
29404.7
29404.5
29404.3
29404.2
29404
29403.8
29403.7
29403.5
29403.4
29403.3
29403.1
29403
29402.9
29402.8
29402.7
29402.6
29402.5
29402.4
29402.3
29402.3
29402.2
29402.1
29402
29402
29401.9
29401.8
29401.8
29401.7
29401.7
29401.6
29401.6
29401.5
29401.5
29401.4
29401.4
29401.4
29401.3
29401.3
29401.3
29401.2
29401.2
29401.2
29401.1
29401.1
29401.1
29401.1
29401
29401
29401
29401
29401
29400.9
29400.9
29400.9
29400.9
29400.9
29400.9
29400.9
29400.8
29400.8
29400.8
29400.8
29400.8
29400.8
29400.8
29400.8
29400.8
29400.7
29400.7
29400.7
29400.7
29400.7
29400.7
29400.7
29400.7
29400.7
29400.7
29400.7
29400.7
29400.7
29400.7
29400.7
29400.7
29400.7
29400.6
29400.6
29400.6
29400.6
29400.6
29400.6
29400.6
29400.6
29400.6
29400.6
29400.6
29400.6
29400.6
29400.6
29400.6
29400.6
29400.6
29400.6
29400.6
29400.6
29400.6
29400.6
29400.6
29400.6
29400.6
29400.6
29400.6
29400.6
29400.6
29400.6
29400.6
29400.6
29400.6
29400.6
29400.6
29400.6
29400.6
29400.6
29400.6
29400.6
29400.6
29400.6
29400.6
29400.6
29400.6
29400.6
29400.6
29400.6
29400.6
29400.6
29400.6
29400.6
29400.6
29400.6
29400.6
29400.6
29400.6
29400.6
29400.6
29400.6
29400.6
29400.6
29400.6
29400.6
29400.6
29400.6
29400.6
29400.6
29400.6
29400.6
29400.6
29400.6
29400.6
29400.6
29400.6
29400.6
29400.6
29400.6
29400.6
29400.6
29400.6
29400.6
29400.6
29400.6
29400.6
29400.6
29400.6
29400.6
29400.6
29400.6
29400.6
29400.6
29400.6
29400.6
29400.6
29400.6
29400.6
29400.6
29400.6
29400.6
29400.6
29400.6
29400.6
29400.6
29400.6
29400.6
29400.6
29400.6
29400.6
29400.6
29400.6
29400.6
29400.6
29400.6
29400.6
29400.6
29400.6
29400.6
29400.6
29400.6
29400.6
29400.6
29400.6
29400.6
29400.6
29400.6
29400.6
29400.6
29400.6
29400.6
29400.6
29400.6
29400.6
29400.6
29400.6
29400.5
29400.5
29400.5
29400.5
29400.5
29400.5
29400.5
29400.6
29400.6
29400.6
29400.6
29400.6
29400.6
29400.5
29400.5
29400.5
29400.5
29400.5
29400.5
29400.5
29400.5
29400.5
29400.5
29400.5
29400.5
29400.5
29400.6
29400.6
29400.6
29400.6
29400.6
29400.6
29400.6
29400.6
29400.6
29400.6
29400.6
29400.6
29400.6
29400.6
29400.6
29400.6
29400.6
29400.6
29400.6
29400.6
29400.6
29400.6
29400.6
29400.6
29400.6
29400.6
29400.6
29400.6
29400.6
29400.6
29400.6
29400.6
29400.6
29400.6
29400.6
29400.6
29400.6
29400.6
29400.6
29400.6
29400.6
29400.6
29400.6
29400.6
29400.6
29400.6
29400.6
29400.6
29400.6
29400.6
29400.6
29400.6
29400.6
29400.6
29400.6
29400.6
29400.6
29400.6
29400.6
29400.6
29400.6
29400.6
29400.6
29400.6
29400.6
29400.6
29400.6
29400.6
29400.6
29400.6
29400.6
29400.6
29400.6
29400.6
29400.6
29400.6
29400.6
29400.6
29400.6
29400.6
29400.6
29400.6
29400.6
29400.6
29400.6
29400.6
29400.6
29400.6
29400.6
29400.6
29400.6
29400.6
29400.6
29400.6
29400.6
29400.6
29400.6
29400.6
29400.6
29400.6
29400.6
29400.6
29400.6
29400.6
29400.6
29400.6
29400.6
29400.6
29400.6
29400.6
29400.6
29400.6
29400.6
29400.6
29400.6
29400.6
29400.6
29400.6
29400.6
29400.6
29400.6
29400.6
29400.6
29400.6
29400.6
29400.6
29400.6
29400.6
29400.6
29400.6
29400.6
29400.6
29400.6
29400.6
29400.6
29400.6
29400.6
29400.6
29400.6
29400.6
29400.6
29400.6
29400.6
29400.6
29400.6
29400.6
29400.6
29400.6
29400.6
29400.6
29400.6
29400.6
29400.6
29400.6
29400.6
29400.6
29400.6
29400.6
29400.6
29400.6
29400.6
29400.6
29400.6
29400.6
29400.6
29400.6
29400.6
29400.6
29400.6
29400.6
29400.6
29400.6
29400.6
29400.6
29400.6
29400.6
29400.6
29400.6
29400.6
29400.6
29400.6
29400.6
29400.6
29400.6
29400.6
29400.6
29400.6
29400.6
29400.6
29400.6
29400.6
29400.6
29400.6
29400.6
29400.6
29400.6
29400.6
29400.6
29400.6
29400.6
29400.6
29400.6
29400.6
29400.6
29400.6
29400.6
29400.6
29400.6
29400.6
29400.6
29400.6
29400.7
29400.7
29400.7
29400.7
29400.7
29400.7
29400.7
29400.7
29400.7
29400.7
29400.7
29400.7
29400.7
29400.7
29400.7
29400.7
29400.7
29400.7
29400.7
29400.7
29400.7
29400.7
29400.7
29400.7
29400.7
29400.8
29400.8
29400.8
29400.8
29400.8
29400.8
29400.8
29400.8
29400.8
29400.8
29400.8
29400.8
29400.8
29400.9
29400.9
29400.9
29400.9
29400.9
29400.9
29400.9
29400.9
29400.9
29401
29401
29401
29401
29401
29401
29401.1
29401.1
29401.1
29401.1
29401.1
29401.1
29401.2
29401.2
29401.2
29401.2
29401.2
29401.3
29401.3
29401.3
29401.3
29401.4
29401.4
29401.4
29401.5
29401.5
29401.5
29401.6
29401.6
29401.6
29401.7
29401.7
29401.7
29401.8
29401.8
29401.9
29401.9
29402
29402
29402.1
29402.1
29402.2
29402.2
29402.3
29402.3
29402.4
29402.5
29402.5
29402.6
29402.7
29402.7
29402.8
29402.9
29403
29403
29403.1
29403.2
29403.3
29403.4
29403.5
29403.6
29403.7
29403.8
29404
29404.1
29404.2
29404.3
29404.5
29404.6
29404.7
29404.9
29405
29405.2
29405.4
29405.5
29405.7
29405.9
29406.1
29406.3
29406.5
29406.7
29406.9
29407.1
29407.4
29407.6
29407.9
29408.1
29408.4
29408.7
29409
29409.3
29409.6
29409.9
29410.2
29410.6
29411
29411.3
29411.7
29412.1
29412.6
29413
29413.4
29413.9
29414.4
29414.9
29415.4
29416
29416.5
29417.1
29417.7
29418.3
29419
29419.7
29420.4
29421.1
29421.8
29422.6
29423.4
29424.3
29425.1
29426
29427
29428
29429
29430
29431.1
29432.2
29433.4
29434.6
29435.9
29437.2
29438.5
29440
29441.4
29442.9
29444.5
29446.1
29447.8
29449.6
29451.4
29453.3
29455.3
29457.3
29459.4
29461.6
29463.9
29466.2
29468.7
29471.2
29473.9
29476.6
29479.5
29482.4
29485.5
29488.7
29492
29495.4
29498.9
29502.6
29506.5
29510.5
29514.6
29518.9
29523.3
29527.9
29532.7
29537.7
29542.9
29548.2
29553.8
29559.6
29565.5
29571.8
29578.2
29584.9
29591.8
29599
29606.5
29614.3
29622.3
29630.7
29639.4
29648.4
29657.8
29667.5
29677.7
29688.2
29699.2
29710.6
29722.4
29734.8
29747.6
29760.9
29774.8
29789.2
29804.2
29819.8
29836
29852.8
29870.3
29888.4
29907.2
29926.7
29947
29968
29989.9
30012.6
30036.2
30060.7
30086.2
30112.6
30140.1
30168.7
30198.5
30229.4
30261.5
30295
30329.8
30365.9
30403.6
30442.7
30483.4
30525.6
30569.6
30615.3
30662.8
30712.1
30763.4
30816.6
30871.9
30929.4
30989
31051
31115.5
31182.4
31251.9
31324.2
31399.2
31477
31557.8
31641.7
31728.6
31818.8
31912.2
32009
32109.3
32213.1
32320.6
32431.9
32547.1
32666.2
32789.3
32916.6
33048
33183.6
33323.4
33467.5
33615.8
33768.4
33925.2
34086.3
34251.5
34420.8
34594.1
34771.3
34952.3
35136.7
35324.4
35515.1
35708.6
35904.4
36102.2
36301.7
36502.2
36703.4
36904.7
37105.6
37305.4
37503.4
37699
37891.4
38079.9
38263.7
38442.1
38614.3
38779.5
38936.8
39085.6
39225.1
39354.6
39473.4
39580.8
39676.2
39759.2
39829.2
39885.8
39928.7
39957.6
39972.3
39972.7
39958.8
39930.6
39888.2
39831.9
39762
39678.8
39582.7
39474.2
39354
39222.5
39080.6
38928.9
38768.2
38599.1
38422.7
38239.5
38050.6
37856.6
37658.3
37456.6
37252.1
37045.8
36838.2
36630
36421.8
36214.2
36007.7
35802.9
35600.3
35400.3
35203
35009
34818.4
34631.6
34448.8
34270.1
34095.7
33925.6
33760.1
33599
33442.6
33290.6
33143.3
33000.5
32862.2
32728.3
32598.9
32473.9
32353.2
32236.6
32124.2
32015.8
31911.4
31810.8
31713.8
31620.5
31530.6
31444
31360.8
31280.9
31204
31130
31059
30990.7
30925.2
30862.2
30801.7
30743.6
30687.8
30634.3
30583
30533.9
30486.7
30441.5
30398.2
30356.6
30316.7
30278.4
30241.7
30206.4
30172.6
30140.2
30109.1
30079.3
30050.8
30023.5
29997.4
29972.4
29948.4
29925.4
29903.4
29882.2
29862
29842.5
29823.8
29805.9
29788.7
29772.2
29756.4
29741.2
29726.7
29712.7
29699.4
29686.6
29674.4
29662.6
29651.4
29640.7
29630.4
29620.5
29611.1
29602.2
29593.6
29585.3
29577.5
29569.9
29562.7
29555.8
29549.2
29542.8
29536.8
29530.9
29525.3
29520
29514.8
29509.9
29505.2
29500.6
29496.3
29492.2
29488.2
29484.4
29480.7
29477.2
29473.9
29470.7
29467.7
29464.7
29461.9
29459.2
29456.7
29454.2
29451.9
29449.6
29447.5
29445.4
29443.4
29441.6
29439.7
29438
29436.4
29434.8
29433.3
29431.8
29430.5
29429.1
29427.9
29426.7
29425.5
29424.4
29423.3
29422.3
29421.4
29420.4
29419.5
29418.7
29417.9
29417.1
29416.4
29415.7
29415
29414.3
29413.7
29413.1
29412.6
29412
29411.5
29411
29410.5
29410.1
29409.6
29409.2
29408.8
29408.5
29408.1
29407.8
29407.4
29407.1
29406.8
29406.5
29406.3
29406
29405.8
29405.5
29405.3
29405.1
29404.9
29404.7
29404.5
29404.3
29404.1
29404
29403.8
29403.7
29403.5
29403.4
29403.3
29403.1
29403
29402.9
29402.8
29402.7
29402.6
29402.5
29402.4
29402.3
29402.3
29402.2
29402.1
29402
29402
29401.9
29401.8
29401.8
29401.7
29401.7
29401.6
29401.6
29401.5
29401.5
29401.4
29401.4
29401.4
29401.3
29401.3
29401.3
29401.2
29401.2
29401.2
29401.1
29401.1
29401.1
29401.1
29401
29401
29401
29401
29401
29400.9
29400.9
29400.9
29400.9
29400.9
29400.9
29400.9
29400.8
29400.8
29400.8
29400.8
29400.8
29400.8
29400.8
29400.8
29400.8
29400.7
29400.7
29400.7
29400.7
29400.7
29400.7
29400.7
29400.7
29400.7
29400.7
29400.7
29400.7
29400.7
29400.7
29400.7
29400.7
29400.7
29400.6
29400.6
29400.6
29400.6
29400.6
29400.6
29400.6
29400.6
29400.6
29400.6
29400.6
29400.6
29400.6
29400.6
29400.6
29400.6
29400.6
29400.6
29400.6
29400.6
29400.6
29400.6
29400.6
29400.6
29400.6
29400.6
29400.6
29400.6
29400.6
29400.6
29400.6
29400.6
29400.6
29400.6
29400.6
29400.6
29400.6
29400.6
29400.6
29400.6
29400.6
29400.6
29400.6
29400.6
29400.6
29400.6
29400.6
29400.6
29400.6
29400.6
29400.6
29400.6
29400.6
29400.6
29400.6
29400.6
29400.6
29400.6
29400.6
29400.6
29400.6
29400.6
29400.6
29400.6
29400.6
29400.6
29400.6
29400.6
29400.6
29400.6
29400.6
29400.6
29400.6
29400.6
29400.6
29400.6
29400.6
29400.6
29400.6
29400.6
29400.6
29400.6
29400.6
29400.6
29400.6
29400.6
29400.6
29400.6
29400.6
29400.6
29400.6
29400.6
29400.6
29400.6
29400.6
29400.6
29400.6
29400.6
29400.6
29400.6
29400.6
29400.6
29400.6
29400.6
29400.6
29400.6
29400.6
29400.6
29400.6
29400.6
29400.6
29400.6
29400.6
29400.6
29400.6
29400.6
29400.6
29400.6
29400.6
29400.6
29400.6
29400.6
29400.6
29400.6
29400.6
29400.6
29400.6
29400.6
29400.6
29400.6
29400.6
29400.6
29400.6
29400.6
29400.6
29400.6
29400.6
29400.6
29400.6
29400.6
29400.6
29400.6
29400.6
29400.6
29400.6
29400.6
29400.6
29400.6
29400.6
29400.6
29400.6
29400.6
29400.6
29400.6
29400.6
29400.6
29400.6
29400.6
29400.6
29400.6
29400.6
29400.6
29400.6
29400.6
29400.6
29400.6
29400.6
29400.6
29400.6
29400.6
29400.6
29400.6
29400.6
29400.6
29400.6
29400.6
29400.6
29400.6
29400.6
29400.6
29400.6
29400.6
29400.6
29400.6
29400.6
29400.6
29400.6
29400.6
29400.6
29400.6
29400.6
29400.6
29400.6
29400.6
29400.6
29400.6
29400.6
29400.6
29400.6
29400.6
29400.6
29400.6
29400.6
29400.6
29400.6
29400.6
29400.6
29400.6
29400.6
29400.6
29400.6
29400.6
29400.6
29400.6
29400.6
29400.6
29400.6
29400.6
29400.6
29400.6
29400.6
29400.6
29400.6
29400.6
29400.6
29400.6
29400.6
29400.6
29400.6
29400.6
29400.6
29400.6
29400.6
29400.6
29400.6
29400.6
29400.6
29400.6
29400.6
29400.6
29400.6
29400.6
29400.6
29400.6
29400.6
29400.6
29400.6
29400.6
29400.6
29400.6
29400.6
29400.6
29400.6
29400.6
29400.6
29400.6
29400.6
29400.6
29400.6
29400.6
29400.6
29400.6
29400.6
29400.6
29400.6
29400.6
29400.6
29400.6
29400.6
29400.6
29400.6
29400.6
29400.6
29400.6
29400.6
29400.6
29400.6
29400.6
29400.6
29400.6
29400.6
29400.6
29400.6
29400.6
29400.6
29400.6
29400.6
29400.6
29400.6
29400.6
29400.6
29400.6
29400.6
29400.6
29400.6
29400.6
29400.6
29400.6
29400.6
29400.6
29400.6
29400.6
29400.6
29400.6
29400.6
29400.6
29400.6
29400.6
29400.6
29400.6
29400.6
29400.6
29400.6
29400.6
29400.6
29400.6
29400.6
29400.6
29400.6
29400.6
29400.6
29400.6
29400.6
29400.6
29400.6
29400.6
29400.6
29400.6
29400.6
29400.6
29400.6
29400.6
29400.6
29400.6
29400.6
29400.6
29400.6
29400.6
29400.6
29400.6
29400.6
29400.6
29400.6
29400.6
29400.6
29400.6
29400.6
29400.6
29400.6
29400.6
29400.6
29400.6
29400.6
29400.6
29400.6
29400.6
29400.6
29400.6
29400.6
29400.6
29400.6
29400.6
29400.6
29400.6
29400.6
29400.6
29400.6
29400.6
29400.6
29400.6
29400.6
29400.6
29400.7
29400.7
29400.7
29400.7
29400.7
29400.7
29400.7
29400.7
29400.7
29400.7
29400.7
29400.7
29400.7
29400.7
29400.7
29400.7
29400.7
29400.7
29400.7
29400.7
29400.7
29400.7
29400.7
29400.7
29400.7
29400.8
29400.8
29400.8
29400.8
29400.8
29400.8
29400.8
29400.8
29400.8
29400.8
29400.8
29400.8
29400.8
29400.9
29400.9
29400.9
29400.9
29400.9
29400.9
29400.9
29400.9
29400.9
29401
29401
29401
29401
29401
29401
29401
29401.1
29401.1
29401.1
29401.1
29401.1
29401.2
29401.2
29401.2
29401.2
29401.2
29401.3
29401.3
29401.3
29401.3
29401.4
29401.4
29401.4
29401.5
29401.5
29401.5
29401.6
29401.6
29401.6
29401.7
29401.7
29401.7
29401.8
29401.8
29401.9
29401.9
29401.9
29402
29402
29402.1
29402.2
29402.2
29402.3
29402.3
29402.4
29402.4
29402.5
29402.6
29402.6
29402.7
29402.8
29402.9
29403
29403
29403.1
29403.2
29403.3
29403.4
29403.5
29403.6
29403.7
29403.8
29403.9
29404.1
29404.2
29404.3
29404.4
29404.6
29404.7
29404.9
29405
29405.2
29405.3
29405.5
29405.7
29405.9
29406.1
29406.2
29406.5
29406.7
29406.9
29407.1
29407.3
29407.6
29407.8
29408.1
29408.4
29408.6
29408.9
29409.2
29409.5
29409.9
29410.2
29410.6
29410.9
29411.3
29411.7
29412.1
29412.5
29412.9
29413.4
29413.8
29414.3
29414.8
29415.3
29415.9
29416.4
29417
29417.6
29418.3
29418.9
29419.6
29420.3
29421
29421.7
29422.5
29423.3
29424.2
29425
29425.9
29426.9
29427.8
29428.8
29429.9
29431
29432.1
29433.3
29434.5
29435.7
29437
29438.4
29439.8
29441.2
29442.7
29444.3
29445.9
29447.6
29449.3
29451.2
29453
29455
29457
29459.1
29461.3
29463.6
29465.9
29468.4
29470.9
29473.5
29476.3
29479.1
29482
29485.1
29488.3
29491.5
29495
29498.5
29502.2
29506
29509.9
29514.1
29518.3
29522.8
29527.4
29532.1
29537.1
29542.2
29547.6
29553.1
29558.8
29564.8
29571
29577.4
29584
29590.9
29598.1
29605.5
29613.3
29621.3
29629.6
29638.3
29647.2
29656.6
29666.3
29676.4
29686.9
29697.8
29709.1
29720.9
29733.2
29746
29759.3
29773.1
29787.4
29802.4
29817.9
29834
29850.7
29868.1
29886.1
29904.9
29924.3
29944.5
29965.4
29987.2
30009.8
30033.3
30057.7
30083
30109.4
30136.8
30165.2
30194.8
30225.6
30257.6
30290.9
30325.5
30361.6
30399
30438
30478.5
30520.6
30564.4
30609.8
30657.1
30706.3
30757.3
30810.3
30865.4
30922.6
30982.1
31043.9
31108
31174.7
31244
31316
31390.7
31468.3
31548.9
31632.4
31719.1
31809
31902.1
31998.7
32098.7
32202.3
32309.6
32420.7
32535.7
32654.6
32777.6
32904.7
33035.9
33171.4
33311.2
33455.2
33603.6
33756.2
33913.2
34074.5
34240
34409.6
34583.4
34761.1
34942.6
35127.7
35316.1
35507.8
35702.2
35899.1
36098.2
36298.9
36501
36703.7
36906.7
37109.3
37311
37510.9
37708.5
37902.9
38093.5
38279.5
38460
38634.3
38801.6
38961
39111.8
39253.2
39384.4
39504.9
39613.8
39710.6
39794.8
39865.8
39923.3
39966.8
39996.2
40011.1
40011.5
39997.4
39968.8
39925.8
39868.7
39797.7
39713.2
39615.8
39505.8
39383.8
39250.6
39106.8
38953
38790.2
38619
38440.4
38255.1
38063.9
37867.7
37667.4
37463.7
37257.3
37049
36839.5
36629.7
36419.9
36210.9
36003.2
35797.2
35593.5
35392.3
35194.2
34999.4
34808.2
34620.9
34437.7
34258.6
34083.9
33913.6
33747.9
33586.8
33430.3
33278.4
33131.1
32988.4
32850.3
32716.6
32587.4
32462.6
32342.2
32225.9
32113.7
32005.6
31901.4
31801
31704.3
31611.3
31521.7
31435.5
31352.6
31272.9
31196.2
31122.6
31051.8
30983.8
30918.4
30855.7
30795.5
30737.6
30682.1
30628.8
30577.8
30528.8
30481.8
30436.8
30393.7
30352.3
30312.5
30274.4
30237.8
30202.7
30169.1
30136.8
30105.8
30076.2
30047.8
30020.7
29994.7
29969.8
29945.9
29923
29901.1
29880
29859.8
29840.4
29821.8
29804
29786.9
29770.4
29754.7
29739.6
29725.2
29711.3
29698
29685.3
29673.1
29661.4
29650.2
29639.6