/*--------------------------------*- C++ -*----------------------------------*\
| =========                 |                                                 |
| \\      /  F ield         | OpenFOAM: The Open Source CFD Toolbox           |
|  \\    /   O peration     | Version:  2412                                  |
|   \\  /    A nd           | Website:  www.openfoam.com                      |
|    \\/     M anipulation  |                                                 |
\*---------------------------------------------------------------------------*/
FoamFile
{
    version     2.0;
    format      ascii;
    arch        "LSB;label=32;scalar=64";
    class       surfaceScalarField;
    location    "6";
    object      phi;
}
// * * * * * * * * * * * * * * * * * * * * * * * * * * * * * * * * * * * * * //

dimensions      [0 3 -1 0 0 0 0];

oriented        oriented;

internalField   nonuniform List<scalar> 
12640
(
3.45718e-08
-3.44574e-08
1.82671e-07
-1.4871e-07
4.15588e-07
-2.33305e-07
6.90503e-07
-2.75256e-07
9.76547e-07
-2.86221e-07
1.2545e-06
-2.78121e-07
1.51427e-06
-2.59942e-07
1.75183e-06
-2.37567e-07
1.96679e-06
-2.14856e-07
2.16059e-06
-1.93643e-07
2.33504e-06
-1.74206e-07
2.4919e-06
-1.56498e-07
2.63243e-06
-1.4002e-07
2.7571e-06
-1.24043e-07
2.86594e-06
-1.08067e-07
2.95876e-06
-9.18131e-08
3.03499e-06
-7.49908e-08
3.09362e-06
-5.72909e-08
3.1335e-06
-3.85878e-08
3.15361e-06
-1.89319e-08
3.15318e-06
1.50632e-09
3.13166e-06
2.25044e-08
3.08867e-06
4.38534e-08
3.02408e-06
6.52847e-08
2.93807e-06
8.65161e-08
2.83113e-06
1.07253e-07
2.7041e-06
1.27186e-07
2.55812e-06
1.45997e-07
2.39461e-06
1.6342e-07
2.2152e-06
1.79228e-07
2.02166e-06
1.93264e-07
1.81588e-06
2.05413e-07
1.59981e-06
2.15617e-07
1.37533e-06
2.23909e-07
1.14428e-06
2.30378e-07
9.08291e-07
2.35209e-07
6.68849e-07
2.38578e-07
4.27257e-07
2.40652e-07
1.84618e-07
2.41631e-07
-5.81771e-08
2.41728e-07
-3.00289e-07
2.40992e-07
-5.40866e-07
2.39417e-07
-7.79107e-07
2.37054e-07
-1.01401e-06
2.33698e-07
-1.24447e-06
2.29264e-07
-1.46939e-06
2.23719e-07
-1.68738e-06
2.16803e-07
-1.89689e-06
2.08343e-07
-2.09616e-06
1.98145e-07
-2.28334e-06
1.86103e-07
-2.45669e-06
1.7232e-07
-2.6145e-06
1.56845e-07
-2.75519e-06
1.39776e-07
-2.87742e-06
1.21389e-07
-2.9801e-06
1.0193e-07
-3.06238e-06
8.16386e-08
-3.12376e-06
6.08439e-08
-3.164e-06
3.9831e-08
-3.18319e-06
1.88995e-08
-3.18161e-06
-1.72842e-09
-3.15981e-06
-2.18265e-08
-3.11849e-06
-4.11997e-08
-3.0585e-06
-5.97359e-08
-2.98072e-06
-7.74117e-08
-2.88593e-06
-9.43055e-08
-2.77481e-06
-1.10564e-07
-2.64774e-06
-1.26434e-07
-2.50467e-06
-1.42391e-07
-2.34498e-06
-1.58968e-07
-2.16752e-06
-1.76723e-07
-1.9707e-06
-1.96113e-07
-1.75282e-06
-2.17221e-07
-1.51274e-06
-2.39463e-07
-1.25109e-06
-2.61061e-07
-9.72058e-07
-2.78448e-07
-6.85839e-07
-2.856e-07
-4.11555e-07
-2.73635e-07
-1.79929e-07
-2.30967e-07
-3.30469e-08
-1.46204e-07
-3.23872e-08
1.49742e-07
-1.8462e-07
5.33394e-07
-5.32954e-07
1.07412e-06
-7.74608e-07
1.69535e-06
-8.97093e-07
2.33749e-06
-9.28701e-07
2.96109e-06
-9.01845e-07
3.54396e-06
-8.42865e-07
4.07666e-06
-7.70111e-07
4.55749e-06
-6.95398e-07
4.98912e-06
-6.24811e-07
5.37571e-06
-5.60159e-07
5.72146e-06
-5.01381e-07
6.02943e-06
-4.4687e-07
6.30118e-06
-3.94419e-07
6.53701e-06
-3.42338e-07
6.73649e-06
-2.89584e-07
6.8985e-06
-2.35137e-07
7.02112e-06
-1.77975e-07
7.10204e-06
-1.17601e-07
7.13897e-06
-5.40856e-08
7.12995e-06
1.2054e-08
7.07358e-06
8.01226e-08
6.969e-06
1.49359e-07
6.816e-06
2.18905e-07
6.61502e-06
2.87835e-07
6.36724e-06
3.5516e-07
6.07453e-06
4.19835e-07
5.73951e-06
4.80808e-07
5.36546e-06
5.37133e-07
4.95617e-06
5.88027e-07
4.51587e-06
6.32937e-07
4.04899e-06
6.71509e-07
3.56003e-06
7.03653e-07
3.05335e-06
7.2952e-07
2.53304e-06
7.4948e-07
2.0028e-06
7.6412e-07
1.46586e-06
7.74084e-07
9.24939e-07
7.80032e-07
3.82314e-07
7.82638e-07
-1.60175e-07
7.82535e-07
-7.00947e-07
7.80036e-07
-1.23844e-06
7.75156e-07
-1.77103e-06
7.67864e-07
-2.29677e-06
7.57674e-07
-2.81344e-06
7.4419e-07
-3.31848e-06
7.27063e-07
-3.80895e-06
7.05611e-07
-4.28139e-06
6.79193e-07
-4.73193e-06
6.47152e-07
-5.15638e-06
6.09117e-07
-5.55058e-06
5.65173e-07
-5.91052e-06
5.15563e-07
-6.23256e-06
4.60724e-07
-6.51347e-06
4.0135e-07
-6.75068e-06
3.38358e-07
-6.9423e-06
2.72647e-07
-7.08705e-06
2.05181e-07
-7.18441e-06
1.36959e-07
-7.23449e-06
6.89511e-08
-7.23796e-06
1.91867e-09
-7.19605e-06
-6.33487e-08
-7.11041e-06
-1.26271e-07
-6.98291e-06
-1.86478e-07
-6.81549e-06
-2.43927e-07
-6.60987e-06
-2.98893e-07
-6.36733e-06
-3.51998e-07
-6.08844e-06
-4.04176e-07
-5.77273e-06
-4.5696e-07
-5.41847e-06
-5.12131e-07
-5.02269e-06
-5.71461e-07
-4.58163e-06
-6.36206e-07
-4.09161e-06
-7.06356e-07
-3.55061e-06
-7.79651e-07
-2.96089e-06
-8.49995e-07
-2.3326e-06
-9.05936e-07
-1.68821e-06
-9.2911e-07
-1.06704e-06
-8.93753e-07
-5.28218e-07
-7.6847e-07
-1.4721e-07
-5.25808e-07
-1.79651e-07
2.37208e-07
-4.22342e-07
7.84359e-07
-1.08045e-06
1.51822e-06
-1.50878e-06
2.34248e-06
-1.72166e-06
3.18549e-06
-1.77185e-06
3.99956e-06
-1.71599e-06
4.75744e-06
-1.60084e-06
5.44739e-06
-1.45997e-06
6.06745e-06
-1.31527e-06
6.62126e-06
-1.17835e-06
7.11469e-06
-1.05324e-06
7.55376e-06
-9.40012e-07
7.94298e-06
-8.35603e-07
8.28479e-06
-7.35747e-07
8.57985e-06
-6.36948e-07
8.82773e-06
-5.36928e-07
9.02702e-06
-4.3373e-07
9.17542e-06
-3.25546e-07
9.27002e-06
-2.11379e-07
9.30786e-06
-9.12202e-08
9.28634e-06
3.40847e-08
9.20353e-06
1.6326e-07
9.05826e-06
2.94789e-07
8.85022e-06
4.26966e-07
8.58e-06
5.57964e-07
8.24914e-06
6.85838e-07
7.86016e-06
8.08557e-07
7.41657e-06
9.2409e-07
6.92278e-06
1.03055e-06
6.38402e-06
1.12637e-06
5.80606e-06
1.21043e-06
5.19498e-06
1.28209e-06
4.55688e-06
1.34124e-06
3.89761e-06
1.38825e-06
3.22258e-06
1.42395e-06
2.53656e-06
1.44955e-06
1.84363e-06
1.4664e-06
1.14707e-06
1.47598e-06
4.49443e-07
1.47964e-06
-2.47251e-07
1.47861e-06
-9.41398e-07
1.47358e-06
-1.63152e-06
1.46469e-06
-2.31598e-06
1.45176e-06
-2.9927e-06
1.43388e-06
-3.65917e-06
1.41018e-06
-4.31223e-06
1.3797e-06
-4.9481e-06
1.34112e-06
-5.56234e-06
1.29311e-06
-6.14983e-06
1.23438e-06
-6.70502e-06
1.16411e-06
-7.22219e-06
1.08223e-06
-7.69588e-06
9.89218e-07
-8.1211e-06
8.85986e-07
-8.49347e-06
7.73845e-07
-8.80945e-06
6.54522e-07
-9.0664e-06
5.29863e-07
-9.26264e-06
4.01773e-07
-9.39742e-06
2.72159e-07
-9.47083e-06
1.42866e-07
-9.48381e-06
1.54814e-08
-9.43801e-06
-1.08499e-07
-9.33562e-06
-2.27962e-07
-9.17911e-06
-3.42246e-07
-8.97095e-06
-4.51327e-07
-8.7133e-06
-5.55797e-07
-8.40765e-06
-6.56961e-07
-8.05443e-06
-7.56795e-07
-7.65262e-06
-8.58263e-07
-7.19949e-06
-9.64838e-07
-6.69074e-06
-1.07988e-06
-6.12107e-06
-1.20562e-06
-5.48543e-06
-1.34183e-06
-4.78109e-06
-1.48388e-06
-4.01091e-06
-1.62011e-06
-3.18765e-06
-1.72913e-06
-2.33907e-06
-1.77765e-06
-1.51279e-06
-1.72004e-06
-7.79806e-07
-1.50134e-06
-2.3517e-07
-1.07037e-06
-4.15499e-07
2.85402e-07
-7.0809e-07
9.25822e-07
-1.72113e-06
1.7654e-06
-2.34852e-06
2.69259e-06
-2.6491e-06
3.62982e-06
-2.70916e-06
4.52682e-06
-2.61312e-06
5.35579e-06
-2.43001e-06
6.10552e-06
-2.20977e-06
6.77506e-06
-1.98491e-06
7.36933e-06
-1.77278e-06
7.89571e-06
-1.5798e-06
8.36167e-06
-1.40618e-06
8.773e-06
-1.24715e-06
9.13286e-06
-1.09595e-06
9.44216e-06
-9.46798e-07
9.70025e-06
-7.95712e-07
9.90553e-06
-6.39661e-07
1.00556e-05
-4.76078e-07
1.01473e-05
-3.03473e-07
1.01776e-05
-1.21701e-07
1.01434e-05
6.80762e-08
1.00425e-05
2.63959e-07
9.87352e-06
4.63587e-07
9.63599e-06
6.64282e-07
9.33053e-06
8.63182e-07
8.95886e-06
1.05726e-06
8.52382e-06
1.24335e-06
8.02944e-06
1.41828e-06
7.48081e-06
1.57904e-06
6.88398e-06
1.72312e-06
6.24573e-06
1.84868e-06
5.57319e-06
1.95472e-06
4.87348e-06
2.04114e-06
4.15332e-06
2.10868e-06
3.41885e-06
2.15878e-06
2.6753e-06
2.19353e-06
1.92687e-06
2.21531e-06
1.17676e-06
2.22661e-06
4.27266e-07
2.22971e-06
-3.20068e-07
2.22657e-06
-1.06417e-06
2.21834e-06
-1.80419e-06
2.20541e-06
-2.53911e-06
2.18742e-06
-3.26744e-06
2.16297e-06
-3.98691e-06
2.13046e-06
-4.69435e-06
2.08799e-06
-5.38571e-06
2.03336e-06
-6.05604e-06
1.96435e-06
-6.69962e-06
1.87887e-06
-7.31008e-06
1.77549e-06
-7.88083e-06
1.65389e-06
-8.4054e-06
1.5147e-06
-8.87789e-06
1.35937e-06
-9.29325e-06
1.19008e-06
-9.64731e-06
1.00944e-06
-9.93703e-06
8.204e-07
-1.01605e-05
6.26e-07
-1.03168e-05
4.29218e-07
-1.04061e-05
2.32907e-07
-1.04296e-05
3.96152e-08
-1.03891e-05
-1.48389e-07
-1.02871e-05
-3.29425e-07
-1.01264e-05
-5.02549e-07
-9.90968e-06
-6.67749e-07
-9.63922e-06
-8.26053e-07
-9.31651e-06
-9.79602e-07
-8.9417e-06
-1.13168e-06
-8.51331e-06
-1.28689e-06
-8.02792e-06
-1.45062e-06
-7.4803e-06
-1.62803e-06
-6.86402e-06
-1.82256e-06
-6.17277e-06
-2.03382e-06
-5.4027e-06
-2.25475e-06
-4.55581e-06
-2.4678e-06
-3.64464e-06
-2.64104e-06
-2.6977e-06
-2.72529e-06
-1.76506e-06
-2.65335e-06
-9.24048e-07
-2.3432e-06
-2.84686e-07
-1.71074e-06
-7.01077e-07
3.05418e-07
-1.01362e-06
9.84818e-07
-2.4007e-06
1.86454e-06
-3.22829e-06
2.82364e-06
-3.60841e-06
3.78187e-06
-3.66744e-06
4.68944e-06
-3.52086e-06
5.5204e-06
-3.26128e-06
6.2658e-06
-2.95532e-06
6.92654e-06
-2.6459e-06
7.50904e-06
-2.35565e-06
8.02196e-06
-2.09314e-06
8.47386e-06
-1.85851e-06
8.87143e-06
-1.64516e-06
9.21838e-06
-1.44348e-06
9.51567e-06
-1.24495e-06
9.76244e-06
-1.04363e-06
9.95679e-06
-8.35246e-07
1.00962e-05
-6.16589e-07
1.01775e-05
-3.85741e-07
1.01976e-05
-1.42449e-07
1.01533e-05
1.11877e-07
1.00421e-05
3.74703e-07
9.86263e-06
6.42822e-07
9.61414e-06
9.12544e-07
9.29722e-06
1.1799e-06
8.91357e-06
1.4407e-06
8.46619e-06
1.69057e-06
7.95931e-06
1.92507e-06
7.39836e-06
2.14e-06
6.78989e-06
2.33172e-06
6.14133e-06
2.49747e-06
5.46059e-06
2.63582e-06
4.75549e-06
2.74673e-06
4.03335e-06
2.83143e-06
3.30064e-06
2.89222e-06
2.56267e-06
2.93233e-06
1.82336e-06
2.95552e-06
1.08543e-06
2.96551e-06
3.50482e-07
2.96569e-06
-3.80754e-07
2.95888e-06
-1.10816e-06
2.94687e-06
-1.83186e-06
2.93027e-06
-2.55189e-06
2.90863e-06
-3.26769e-06
2.87995e-06
-3.97773e-06
2.8417e-06
-4.67923e-06
2.79072e-06
-5.36826e-06
2.72363e-06
-6.0397e-06
2.63706e-06
-6.68745e-06
2.52786e-06
-7.30463e-06
2.39387e-06
-7.88398e-06
2.2344e-06
-8.41837e-06
2.0502e-06
-8.90128e-06
1.84334e-06
-9.32711e-06
1.61691e-06
-9.69141e-06
1.37468e-06
-9.99098e-06
1.12083e-06
-1.02238e-05
8.59643e-07
-1.03892e-05
5.95286e-07
-1.04873e-05
3.31675e-07
-1.05195e-05
7.23134e-08
-1.04877e-05
-1.79752e-07
-1.03946e-05
-4.22271e-07
-1.0243e-05
-6.54016e-07
-1.00357e-05
-8.75079e-07
-9.77499e-06
-1.08699e-06
-9.46213e-06
-1.2928e-06
-9.09718e-06
-1.49712e-06
-8.67846e-06
-1.70627e-06
-8.20219e-06
-1.92769e-06
-7.66262e-06
-2.16854e-06
-7.05257e-06
-2.43362e-06
-6.36466e-06
-2.72279e-06
-5.59351e-06
-3.02697e-06
-4.73929e-06
-3.32306e-06
-3.81255e-06
-3.56883e-06
-2.84003e-06
-3.69888e-06
-1.87136e-06
-3.62311e-06
-9.87003e-07
-3.2289e-06
-3.06116e-07
-2.39304e-06
-1.00774e-06
3.08259e-07
-1.32191e-06
9.90302e-07
-3.08284e-06
1.86517e-06
-4.10316e-06
2.80817e-06
-4.55162e-06
3.73945e-06
-4.59878e-06
4.61178e-06
-4.3934e-06
5.40243e-06
-4.05236e-06
6.10566e-06
-3.65873e-06
6.72464e-06
-3.26516e-06
7.2672e-06
-2.89865e-06
7.74285e-06
-2.56925e-06
8.16063e-06
-2.27667e-06
8.52765e-06
-2.01243e-06
8.84785e-06
-1.76392e-06
9.1221e-06
-1.51965e-06
9.34922e-06
-1.2715e-06
9.52695e-06
-1.01395e-06
9.65252e-06
-7.43155e-07
9.72275e-06
-4.56872e-07
9.73441e-06
-1.54826e-07
9.68442e-06
1.61353e-07
9.57025e-06
4.88555e-07
9.39016e-06
8.22747e-07
9.14341e-06
1.15923e-06
8.83041e-06
1.4929e-06
8.45274e-06
1.81838e-06
8.01333e-06
2.13002e-06
7.51641e-06
2.42208e-06
6.96754e-06
2.68904e-06
6.37358e-06
2.92593e-06
5.74249e-06
3.12889e-06
5.08281e-06
3.29593e-06
4.40301e-06
3.42704e-06
3.71094e-06
3.5241e-06
3.01326e-06
3.59058e-06
2.31515e-06
3.6312e-06
1.62016e-06
3.65133e-06
9.30283e-07
3.65625e-06
2.46213e-07
3.65066e-06
-4.3241e-07
3.63843e-06
-1.10662e-06
3.62203e-06
-1.77777e-06
3.60237e-06
-2.44708e-06
3.57888e-06
-3.11516e-06
3.54895e-06
-3.78145e-06
3.50888e-06
-4.44396e-06
3.45412e-06
-5.09902e-06
3.37958e-06
-5.74153e-06
3.28047e-06
-6.36507e-06
3.15228e-06
-6.96219e-06
2.99184e-06
-7.52497e-06
2.79798e-06
-8.04568e-06
2.57166e-06
-8.51731e-06
2.31565e-06
-8.93395e-06
2.03418e-06
-9.29103e-06
1.73233e-06
-9.58539e-06
1.41569e-06
-9.81519e-06
1.08989e-06
-9.97986e-06
7.60352e-07
-1.00799e-05
4.32019e-07
-1.01166e-05
1.09335e-07
-1.00922e-05
-2.03935e-07
-1.00094e-05
-5.05056e-07
-9.87094e-06
-7.92572e-07
-9.6796e-06
-1.06668e-06
-9.43753e-06
-1.32944e-06
-9.14605e-06
-1.58478e-06
-8.80519e-06
-1.83858e-06
-8.41335e-06
-2.09882e-06
-7.96691e-06
-2.37493e-06
-7.46011e-06
-2.67618e-06
-6.8855e-06
-3.0091e-06
-6.23485e-06
-3.37431e-06
-5.50125e-06
-3.76139e-06
-4.6826e-06
-4.14252e-06
-3.7865e-06
-4.4658e-06
-2.83643e-06
-4.64991e-06
-1.87958e-06
-4.58092e-06
-9.96372e-07
-4.11327e-06
-3.09654e-07
-3.08067e-06
-1.31732e-06
3.01908e-07
-1.6238e-06
9.64683e-07
-3.74568e-06
1.8065e-06
-4.94495e-06
2.70334e-06
-5.44869e-06
3.57875e-06
-5.4742e-06
4.38988e-06
-5.20471e-06
5.1181e-06
-4.78104e-06
5.76143e-06
-4.30213e-06
6.32533e-06
-3.82921e-06
6.81865e-06
-3.3923e-06
7.25112e-06
-3.00207e-06
7.63144e-06
-2.65721e-06
7.96642e-06
-2.34736e-06
8.25967e-06
-2.05691e-06
8.51176e-06
-1.77148e-06
8.72107e-06
-1.48074e-06
8.88492e-06
-1.17796e-06
9.00022e-06
-8.58748e-07
9.06367e-06
-5.2066e-07
9.07196e-06
-1.6343e-07
9.02204e-06
2.11053e-07
8.91132e-06
5.9917e-07
8.738e-06
9.96097e-07
8.50119e-06
1.39617e-06
8.20108e-06
1.79321e-06
7.83902e-06
2.18064e-06
7.41766e-06
2.55157e-06
6.94106e-06
2.89886e-06
6.41478e-06
3.21552e-06
5.84588e-06
3.49506e-06
5.24279e-06
3.7322e-06
4.61477e-06
3.92418e-06
3.97105e-06
4.07099e-06
3.32011e-06
4.17529e-06
2.66892e-06
4.24202e-06
2.0226e-06
4.2778e-06
1.38424e-06
4.28999e-06
7.55064e-07
4.28574e-06
1.34707e-07
4.27132e-06
-4.78383e-07
4.25183e-06
-1.0865e-06
4.23045e-06
-1.69227e-06
4.20845e-06
-2.29813e-06
4.18503e-06
-2.90589e-06
4.15695e-06
-3.51616e-06
4.11933e-06
-4.12781e-06
4.06589e-06
-4.73768e-06
3.98955e-06
-5.34058e-06
3.88349e-06
-5.92962e-06
3.74145e-06
-6.49665e-06
3.55898e-06
-7.03291e-06
3.33435e-06
-7.52993e-06
3.06875e-06
-7.98021e-06
2.76597e-06
-8.37767e-06
2.43167e-06
-8.71785e-06
2.07251e-06
-8.99776e-06
1.6956e-06
-9.21595e-06
1.30806e-06
-9.37216e-06
9.16541e-07
-9.46713e-06
5.26993e-07
-9.50247e-06
1.44701e-07
-9.48043e-06
-2.2593e-07
-9.4037e-06
-5.81785e-07
-9.27511e-06
-9.2125e-07
-9.09732e-06
-1.24467e-06
-8.87247e-06
-1.5546e-06
-8.60189e-06
-1.85574e-06
-8.28584e-06
-2.15503e-06
-7.9232e-06
-2.46188e-06
-7.51104e-06
-2.7875e-06
-7.04429e-06
-3.14332e-06
-6.51574e-06
-3.53798e-06
-5.91682e-06
-3.97346e-06
-5.23945e-06
-4.43891e-06
-4.47922e-06
-4.90286e-06
-3.64031e-06
-5.30494e-06
-2.74201e-06
-5.5486e-06
-1.82732e-06
-5.49603e-06
-9.7347e-07
-4.96752e-06
-3.03281e-07
-3.75077e-06
-1.62007e-06
2.91212e-07
-1.91498e-06
9.22593e-07
-4.37709e-06
1.71472e-06
-5.73694e-06
2.54797e-06
-6.28213e-06
3.35217e-06
-6.27823e-06
4.09055e-06
-5.94307e-06
4.74921e-06
-5.44008e-06
5.33005e-06
-4.88278e-06
5.84045e-06
-4.3395e-06
6.28971e-06
-3.8417e-06
6.68689e-06
-3.3995e-06
7.03954e-06
-3.01005e-06
7.353e-06
-2.66076e-06
7.62986e-06
-2.3334e-06
7.86993e-06
-2.01099e-06
8.071e-06
-1.68124e-06
8.22998e-06
-1.33647e-06
8.34349e-06
-9.71873e-07
8.40809e-06
-5.8496e-07
8.4204e-06
-1.75499e-07
8.37732e-06
2.54351e-07
8.27624e-06
7.00464e-07
8.11531e-06
1.15729e-06
7.8935e-06
1.61828e-06
7.61075e-06
2.07629e-06
7.26803e-06
2.52367e-06
6.86751e-06
2.95232e-06
6.41289e-06
3.35366e-06
5.90955e-06
3.71898e-06
5.36471e-06
4.03999e-06
4.78734e-06
4.30962e-06
4.18758e-06
4.52393e-06
3.57577e-06
4.68274e-06
2.96131e-06
4.78962e-06
2.3518e-06
4.85138e-06
1.75241e-06
4.87702e-06
1.1658e-06
4.8764e-06
5.92408e-07
4.85892e-06
3.08083e-08
4.83268e-06
-5.21715e-07
4.8041e-06
-1.06869e-06
4.77717e-06
-1.61394e-06
4.75346e-06
-2.1611e-06
4.73195e-06
-2.71311e-06
4.7087e-06
-3.27171e-06
4.6776e-06
-3.83667e-06
4.63042e-06
-4.40538e-06
4.55777e-06
-4.9725e-06
4.45008e-06
-5.53035e-06
4.29878e-06
-6.06969e-06
4.09781e-06
-6.58062e-06
3.84475e-06
-7.05369e-06
3.5413e-06
-7.48085e-06
3.19261e-06
-7.85596e-06
2.80626e-06
-8.1748e-06
2.39086e-06
-8.43495e-06
1.95528e-06
-8.63547e-06
1.50811e-06
-8.77656e-06
1.0572e-06
-8.85934e-06
6.09415e-07
-8.8857e-06
1.7079e-07
-8.85802e-06
-2.5377e-07
-8.77905e-06
-6.60836e-07
-8.65162e-06
-1.04875e-06
-8.47832e-06
-1.41808e-06
-8.26129e-06
-1.7718e-06
-8.00202e-06
-2.11519e-06
-7.70125e-06
-2.45596e-06
-7.35876e-06
-2.80445e-06
-6.97285e-06
-3.17339e-06
-6.53981e-06
-3.57621e-06
-6.05353e-06
-4.02398e-06
-5.50595e-06
-4.52066e-06
-4.88841e-06
-5.05598e-06
-4.1946e-06
-5.59619e-06
-3.42524e-06
-6.07393e-06
-2.59467e-06
-6.37894e-06
-1.74004e-06
-6.35045e-06
-9.32811e-07
-5.77428e-06
-2.92851e-07
-4.38992e-06
-1.91234e-06
2.78481e-07
-2.19343e-06
8.71257e-07
-4.96976e-06
1.60345e-06
-6.46876e-06
2.36334e-06
-7.04205e-06
3.09001e-06
-7.00441e-06
3.75438e-06
-6.60707e-06
4.34756e-06
-6.03347e-06
4.87486e-06
-5.40963e-06
5.3448e-06
-4.80899e-06
5.76619e-06
-4.26303e-06
6.14652e-06
-3.78005e-06
6.49117e-06
-3.355e-06
6.8029e-06
-2.97271e-06
7.08223e-06
-2.61277e-06
7.32755e-06
-2.25617e-06
7.53589e-06
-1.88934e-06
7.70378e-06
-1.50407e-06
7.8277e-06
-1.09544e-06
7.90414e-06
-6.61022e-07
7.92972e-06
-2.00683e-07
7.90125e-06
2.83192e-07
7.81608e-06
7.85984e-07
7.67228e-06
1.30143e-06
7.46872e-06
1.82219e-06
7.20504e-06
2.34031e-06
6.88168e-06
2.84734e-06
6.50009e-06
3.33413e-06
6.06328e-06
3.79059e-06
5.57625e-06
4.20608e-06
5.04632e-06
4.56994e-06
4.48312e-06
4.8728e-06
3.89808e-06
5.10892e-06
3.30309e-06
5.27763e-06
2.70905e-06
5.38354e-06
2.12445e-06
5.43581e-06
1.55472e-06
5.44656e-06
1.00219e-06
5.42873e-06
4.66522e-07
5.39438e-06
-5.46339e-08
5.35361e-06
-5.65037e-07
5.31426e-06
-1.06924e-06
5.28114e-06
-1.57214e-06
5.25616e-06
-2.07838e-06
5.23802e-06
-2.59192e-06
5.22211e-06
-3.1155e-06
5.20103e-06
-3.64981e-06
5.16449e-06
-4.19262e-06
5.10025e-06
-4.73835e-06
4.99539e-06
-5.27821e-06
4.83817e-06
-5.80125e-06
4.62036e-06
-6.2959e-06
4.33889e-06
-6.75143e-06
3.99631e-06
-7.15918e-06
3.59983e-06
-7.51304e-06
3.15958e-06
-7.80938e-06
2.68668e-06
-8.04664e-06
2.19204e-06
-8.22469e-06
1.68566e-06
-8.34438e-06
1.17635e-06
-8.40727e-06
6.71796e-07
-8.41558e-06
1.78631e-07
-8.37189e-06
-2.97814e-07
-8.27905e-06
-7.53893e-07
-8.13996e-06
-1.18798e-06
-7.95715e-06
-1.60102e-06
-7.73275e-06
-1.99634e-06
-7.46845e-06
-2.37965e-06
-7.16566e-06
-2.75886e-06
-6.82542e-06
-3.1447e-06
-6.44794e-06
-3.55075e-06
-6.0317e-06
-3.99214e-06
-5.57276e-06
-4.48249e-06
-5.0646e-06
-5.02831e-06
-4.49908e-06
-5.62097e-06
-3.86883e-06
-6.22595e-06
-3.17141e-06
-6.77095e-06
-2.41577e-06
-7.13417e-06
-1.63174e-06
-7.134e-06
-8.8265e-07
-6.52262e-06
-2.81314e-07
-4.99049e-06
-2.19348e-06
2.63885e-07
-2.4572e-06
8.11333e-07
-5.51685e-06
1.47509e-06
-7.13175e-06
2.15548e-06
-7.72225e-06
2.80404e-06
-7.65207e-06
3.40061e-06
-7.20289e-06
3.94127e-06
-6.57417e-06
4.43341e-06
-5.90114e-06
4.88516e-06
-5.25998e-06
5.30355e-06
-4.68105e-06
5.69345e-06
-4.17e-06
6.05698e-06
-3.71879e-06
6.39345e-06
-3.30952e-06
6.70017e-06
-2.91986e-06
6.97334e-06
-2.52976e-06
7.20892e-06
-2.12537e-06
7.40309e-06
-1.6987e-06
7.55249e-06
-1.24521e-06
7.65376e-06
-7.62575e-07
7.70356e-06
-2.50659e-07
7.69859e-06
2.88048e-07
7.63606e-06
8.48435e-07
7.51398e-06
1.42344e-06
7.33118e-06
2.00494e-06
7.08703e-06
2.58445e-06
6.78123e-06
3.15311e-06
6.41418e-06
3.70111e-06
5.98771e-06
4.21692e-06
5.506e-06
4.6876e-06
4.97638e-06
5.09937e-06
4.40942e-06
5.43958e-06
3.81831e-06
5.69989e-06
3.21725e-06
5.87857e-06
2.61923e-06
5.98149e-06
2.03404e-06
6.02096e-06
1.46751e-06
6.01308e-06
9.21731e-07
5.97452e-06
3.95765e-07
5.9204e-06
-1.13575e-07
5.86302e-06
-6.10798e-07
5.81154e-06
-1.10114e-06
5.77155e-06
-1.59018e-06
5.74531e-06
-2.08322e-06
5.73125e-06
-2.58504e-06
5.72423e-06
-3.09926e-06
5.71563e-06
-3.62739e-06
5.69299e-06
-4.16766e-06
5.64084e-06
-4.714e-06
5.54201e-06
-5.25607e-06
5.38047e-06
-5.78051e-06
5.14499e-06
-6.27329e-06
4.83185e-06
-6.72195e-06
4.44515e-06
-7.11713e-06
3.99518e-06
-7.45303e-06
3.49564e-06
-7.72705e-06
2.96087e-06
-7.93895e-06
2.40414e-06
-8.08988e-06
1.83675e-06
-8.1815e-06
1.26804e-06
-8.2159e-06
7.06153e-07
-8.19556e-06
1.58154e-07
-8.12338e-06
-3.7017e-07
-8.00243e-06
-8.74971e-07
-7.83569e-06
-1.35479e-06
-7.62574e-06
-1.81101e-06
-7.37456e-06
-2.24757e-06
-7.08391e-06
-2.67036e-06
-6.75586e-06
-3.08698e-06
-6.3931e-06
-3.50747e-06
-5.99846e-06
-3.94529e-06
-5.57372e-06
-4.41668e-06
-5.11826e-06
-4.93767e-06
-4.62852e-06
-5.51782e-06
-4.09829e-06
-6.15108e-06
-3.52043e-06
-6.8038e-06
-2.89035e-06
-7.40103e-06
-2.21172e-06
-7.81266e-06
-1.50573e-06
-7.83971e-06
-8.246e-07
-7.2034e-06
-2.67936e-07
-5.54703e-06
-2.46192e-06
2.45478e-07
-2.70234e-06
7.37525e-07
-6.00829e-06
1.32231e-06
-7.71538e-06
1.91771e-06
-8.31738e-06
2.4914e-06
-8.2246e-06
3.03247e-06
-7.74303e-06
3.54129e-06
-7.08296e-06
4.0248e-06
-6.38415e-06
4.4885e-06
-5.72288e-06
4.93582e-06
-5.12782e-06
5.36779e-06
-4.60177e-06
5.78235e-06
-4.13335e-06
6.17453e-06
-3.70179e-06
6.53762e-06
-3.28313e-06
6.86484e-06
-2.85729e-06
7.15056e-06
-2.41163e-06
7.39093e-06
-1.93977e-06
7.58311e-06
-1.43816e-06
7.72423e-06
-9.0444e-07
7.81093e-06
-3.38039e-07
7.83966e-06
2.58727e-07
7.80739e-06
8.80209e-07
7.71208e-06
1.51828e-06
7.55273e-06
2.16388e-06
7.3285e-06
2.80833e-06
7.03824e-06
3.44308e-06
6.68071e-06
4.05833e-06
6.25591e-06
4.64139e-06
5.76651e-06
5.17663e-06
5.2195e-06
5.64603e-06
4.62657e-06
6.0322e-06
4.00349e-06
6.3227e-06
3.36777e-06
6.51409e-06
2.73532e-06
6.61382e-06
2.11765e-06
6.63855e-06
1.52109e-06
6.60959e-06
9.47437e-07
6.54817e-06
3.95164e-07
6.4727e-06
-1.39478e-07
6.39771e-06
-6.61299e-07
6.33336e-06
-1.17556e-06
6.28579e-06
-1.68783e-06
6.25751e-06
-2.20348e-06
6.24685e-06
-2.72766e-06
6.24846e-06
-3.26473e-06
6.25285e-06
-3.81717e-06
6.24566e-06
-4.38386e-06
6.20778e-06
-4.95825e-06
6.11666e-06
-5.52774e-06
5.95024e-06
-6.07556e-06
5.69311e-06
-6.58419e-06
5.34081e-06
-7.03875e-06
4.90009e-06
-7.42923e-06
4.38608e-06
-7.75066e-06
3.81752e-06
-8.00221e-06
3.21291e-06
-8.18567e-06
2.58817e-06
-8.30393e-06
1.95561e-06
-8.35983e-06
1.32448e-06
-8.35587e-06
7.02581e-07
-8.29469e-06
9.71586e-08
-8.17948e-06
-4.85364e-07
-8.01381e-06
-1.0407e-06
-7.801e-06
-1.56768e-06
-7.54365e-06
-2.06844e-06
-7.24336e-06
-2.5479e-06
-6.90157e-06
-3.01218e-06
-6.52073e-06
-3.4678e-06
-6.10547e-06
-3.92266e-06
-5.6621e-06
-4.38852e-06
-5.19686e-06
-4.88174e-06
-4.71389e-06
-5.42046e-06
-4.21408e-06
-6.01757e-06
-3.69487e-06
-6.6704e-06
-3.15134e-06
-7.34756e-06
-2.57857e-06
-7.97395e-06
-1.97594e-06
-8.41517e-06
-1.35521e-06
-8.46022e-06
-7.53114e-07
-7.80547e-06
-2.49447e-07
-6.05082e-06
-2.71185e-06
2.19035e-07
-2.9208e-06
6.38718e-07
-6.42734e-06
1.12883e-06
-8.20417e-06
1.63274e-06
-8.8213e-06
2.13822e-06
-8.72901e-06
2.64212e-06
-8.2464e-06
3.14705e-06
-7.58799e-06
3.6558e-06
-6.89277e-06
4.16815e-06
-6.23489e-06
4.68186e-06
-5.64135e-06
5.19289e-06
-5.11283e-06
5.69431e-06
-4.63483e-06
6.17621e-06
-4.18363e-06
6.62713e-06
-3.73388e-06
7.03641e-06
-3.26639e-06
7.39667e-06
-2.77185e-06
7.70449e-06
-2.24771e-06
7.9583e-06
-1.69223e-06
8.15604e-06
-1.1025e-06
8.29416e-06
-4.76505e-07
8.3684e-06
1.84166e-07
8.3752e-06
8.73166e-07
8.3126e-06
1.58062e-06
8.18015e-06
2.2961e-06
7.97716e-06
3.01113e-06
7.70148e-06
3.71867e-06
7.34956e-06
4.41022e-06
6.91844e-06
5.07248e-06
6.40829e-06
5.68673e-06
5.82499e-06
6.22929e-06
5.18152e-06
6.67564e-06
4.49722e-06
7.00698e-06
3.79437e-06
7.21691e-06
3.09297e-06
7.31519e-06
2.40665e-06
7.32484e-06
1.74197e-06
7.27422e-06
1.10007e-06
7.18998e-06
4.78764e-07
7.09391e-06
-1.25788e-07
7.00218e-06
-7.17935e-07
6.92535e-06
-1.30199e-06
6.86958e-06
-1.88241e-06
6.83752e-06
-2.46359e-06
6.8275e-06
-3.05026e-06
6.83457e-06
-3.64737e-06
6.8494e-06
-4.25873e-06
6.85647e-06
-4.88453e-06
6.83305e-06
-5.51799e-06
6.7496e-06
-6.14353e-06
6.57527e-06
-6.73929e-06
6.2884e-06
-7.28279e-06
5.88386e-06
-7.75616e-06
5.37309e-06
-8.14898e-06
4.77858e-06
-8.45801e-06
4.12625e-06
-8.68532e-06
3.43996e-06
-8.83569e-06
2.73843e-06
-8.91437e-06
2.03434e-06
-8.92551e-06
1.33574e-06
-8.87173e-06
6.48898e-07
-8.75558e-06
-1.90453e-08
-8.58065e-06
-6.60525e-07
-8.35142e-06
-1.27029e-06
-8.07211e-06
-1.8474e-06
-7.74542e-06
-2.39554e-06
-7.37216e-06
-2.92149e-06
-6.95251e-06
-3.43205e-06
-6.48873e-06
-3.93167e-06
-5.98749e-06
-4.42388e-06
-5.45956e-06
-4.91635e-06
-4.917e-06
-5.42415e-06
-4.37007e-06
-5.96722e-06
-3.82553e-06
-6.56202e-06
-3.28645e-06
-7.20953e-06
-2.75259e-06
-7.88145e-06
-2.22168e-06
-8.50468e-06
-1.6913e-06
-8.94501e-06
-1.16388e-06
-8.98711e-06
-6.56005e-07
-8.31297e-06
-2.22147e-07
-6.48447e-06
-2.93356e-06
1.7744e-07
-3.09756e-06
4.97165e-07
-6.74683e-06
8.69723e-07
-8.57561e-06
1.27472e-06
-9.2269e-06
1.72306e-06
-9.17645e-06
2.21563e-06
-8.73928e-06
2.75233e-06
-8.12513e-06
3.32673e-06
-7.46725e-06
3.92916e-06
-6.83736e-06
4.55001e-06
-6.2625e-06
5.17937e-06
-5.74272e-06
5.80518e-06
-5.26116e-06
6.41222e-06
-4.79103e-06
6.98335e-06
-4.30517e-06
7.50301e-06
-3.786e-06
7.96194e-06
-3.2307e-06
8.35829e-06
-2.644e-06
8.69312e-06
-2.02707e-06
8.96555e-06
-1.37501e-06
9.17138e-06
-6.82453e-07
9.30468e-06
5.07357e-08
9.36067e-06
8.17092e-07
9.33767e-06
1.6035e-06
9.23662e-06
2.39703e-06
9.05778e-06
3.18986e-06
8.7979e-06
3.97854e-06
8.45019e-06
4.75801e-06
8.00724e-06
5.51557e-06
7.46518e-06
6.22896e-06
6.82766e-06
6.867e-06
6.10878e-06
7.39475e-06
5.33265e-06
7.7833e-06
4.52848e-06
8.02126e-06
3.72193e-06
8.12191e-06
2.92875e-06
8.11819e-06
2.15482e-06
8.04831e-06
1.39993e-06
7.94501e-06
6.61217e-07
7.83282e-06
-6.47092e-08
7.72838e-06
-7.80453e-07
7.64139e-06
-1.48797e-06
7.57739e-06
-2.18898e-06
7.53873e-06
-2.88524e-06
7.52382e-06
-3.57979e-06
7.52907e-06
-4.27773e-06
7.54724e-06
-4.98481e-06
7.56342e-06
-5.70393e-06
7.55202e-06
-6.42909e-06
7.47458e-06
-7.14083e-06
7.28682e-06
-7.80993e-06
6.95728e-06
-8.40683e-06
6.48052e-06
-8.91016e-06
5.87617e-06
-9.30984e-06
5.17799e-06
-9.60579e-06
4.42185e-06
-9.8044e-06
3.63814e-06
-9.91475e-06
2.8484e-06
-9.94526e-06
2.0646e-06
-9.90122e-06
1.29157e-06
-9.78471e-06
5.32346e-07
-9.59761e-06
-2.0625e-07
-9.34411e-06
-9.14275e-07
-9.03041e-06
-1.58436e-06
-8.66253e-06
-2.21575e-06
-8.24375e-06
-2.81485e-06
-7.7735e-06
-3.3922e-06
-7.24929e-06
-3.95662e-06
-6.67179e-06
-4.5094e-06
-6.04966e-06
-5.04615e-06
-5.3993e-06
-5.56682e-06
-4.7401e-06
-6.08347e-06
-4.08955e-06
-6.61789e-06
-3.46133e-06
-7.19035e-06
-2.86563e-06
-7.80533e-06
-2.30984e-06
-8.43723e-06
-1.79852e-06
-9.01568e-06
-1.33226e-06
-9.41071e-06
-9.06394e-07
-9.4126e-06
-5.15237e-07
-8.70366e-06
-1.80888e-07
-6.81854e-06
-3.11399e-06
1.09231e-07
-3.20623e-06
2.86655e-07
-6.92465e-06
5.11339e-07
-8.79955e-06
8.12198e-07
-9.52891e-06
1.22215e-06
-9.58503e-06
1.73971e-06
-9.25734e-06
2.35232e-06
-8.73824e-06
3.03771e-06
-8.15232e-06
3.7733e-06
-7.57236e-06
4.54141e-06
-7.03036e-06
5.32667e-06
-6.52807e-06
6.11247e-06
-6.04725e-06
6.87867e-06
-5.55762e-06
7.60127e-06
-5.02817e-06
8.2579e-06
-4.44299e-06
8.83719e-06
-3.81031e-06
9.34105e-06
-3.14818e-06
9.77551e-06
-2.46181e-06
1.01414e-05
-1.74116e-06
1.04327e-05
-9.74023e-07
1.06402e-05
-1.56978e-07
1.07566e-05
7.00535e-07
1.07806e-05
1.57923e-06
1.07163e-05
2.46111e-06
1.05662e-05
3.33961e-06
1.03262e-05
4.21825e-06
9.98512e-06
5.09888e-06
9.52926e-06
5.97122e-06
8.94859e-06
6.80944e-06
8.24271e-06
7.57271e-06
7.42608e-06
8.21121e-06
6.52895e-06
8.68024e-06
5.59044e-06
8.95957e-06
4.64402e-06
9.06815e-06
3.70679e-06
9.05532e-06
2.78187e-06
8.97319e-06
1.86663e-06
8.86025e-06
9.57575e-07
8.74201e-06
5.26986e-08
8.6335e-06
-8.46955e-07
8.54142e-06
-1.73889e-06
8.4698e-06
-2.62004e-06
8.4204e-06
-3.48705e-06
8.39135e-06
-4.33905e-06
8.38163e-06
-5.18043e-06
8.3892e-06
-6.01953e-06
8.40313e-06
-6.86462e-06
8.39773e-06
-7.71287e-06
8.32345e-06
-8.54004e-06
8.11458e-06
-9.30621e-06
7.72398e-06
-9.97206e-06
7.1468e-06
-1.05122e-05
6.4167e-06
-1.09187e-05
5.58477e-06
-1.11967e-05
4.70003e-06
-1.13587e-05
3.80017e-06
-1.14195e-05
2.90913e-06
-1.13917e-05
2.03663e-06
-1.12814e-05
1.18115e-06
-1.10887e-05
3.39602e-07
-1.08135e-05
-4.81515e-07
-1.04608e-05
-1.26704e-06
-1.00401e-05
-2.00523e-06
-9.56073e-06
-2.69527e-06
-9.02761e-06
-3.34814e-06
-8.43826e-06
-3.98166e-06
-7.78518e-06
-4.60972e-06
-7.06506e-06
-5.22949e-06
-6.28832e-06
-5.82284e-06
-5.47872e-06
-6.37647e-06
-4.66462e-06
-6.89773e-06
-3.87124e-06
-7.41144e-06
-3.1191e-06
-7.94261e-06
-2.42597e-06
-8.49845e-06
-1.80927e-06
-9.05373e-06
-1.28592e-06
-9.53864e-06
-8.67303e-07
-9.82889e-06
-5.48982e-07
-9.73091e-06
-3.05937e-07
-8.94654e-06
-1.14606e-07
-7.00951e-06
-3.2291e-06
-4.10831e-09
-3.20182e-06
-2.97168e-08
-6.8997e-06
1.25821e-08
-8.84095e-06
2.13638e-07
-9.73123e-06
6.17657e-07
-9.98718e-06
1.20975e-06
-9.84901e-06
1.95047e-06
-9.47898e-06
2.79337e-06
-8.99445e-06
3.7014e-06
-8.4792e-06
4.65017e-06
-7.97809e-06
5.6209e-06
-7.49801e-06
6.59484e-06
-7.02056e-06
7.5484e-06
-6.51077e-06
8.44946e-06
-5.92885e-06
9.26513e-06
-5.25835e-06
9.98105e-06
-4.52595e-06
1.06068e-05
-3.77369e-06
1.11572e-05
-3.01192e-06
1.1635e-05
-2.21877e-06
1.20305e-05
-1.36932e-06
1.23283e-05
-4.5451e-07
1.25166e-05
5.12558e-07
1.25948e-05
1.50132e-06
1.25724e-05
2.48364e-06
1.24571e-05
3.45486e-06
1.22442e-05
4.43106e-06
1.19167e-05
5.42616e-06
1.14531e-05
6.43457e-06
1.08347e-05
7.42737e-06
1.0054e-05
8.35288e-06
9.12418e-06
9.14046e-06
8.08278e-06
9.72097e-06
6.98272e-06
1.00589e-05
5.8682e-06
1.01819e-05
4.75529e-06
1.01676e-05
3.64038e-06
1.00875e-05
2.51705e-06
9.98286e-06
1.38185e-06
9.87655e-06
2.3576e-07
9.77893e-06
-9.13683e-07
9.69025e-06
-2.05684e-06
9.6124e-06
-3.18368e-06
9.5467e-06
-4.28215e-06
9.48928e-06
-5.34394e-06
9.44287e-06
-6.37088e-06
9.41564e-06
-7.37405e-06
9.40583e-06
-8.37137e-06
9.39459e-06
-9.36844e-06
9.32004e-06
-1.03353e-05
9.08091e-06
-1.12164e-05
8.60453e-06
-1.19592e-05
7.88899e-06
-1.25351e-05
6.99194e-06
-1.29411e-05
5.99037e-06
-1.3191e-05
4.94946e-06
-1.3305e-05
3.91366e-06
-1.33048e-05
2.90839e-06
-1.32081e-05
1.93931e-06
-1.30215e-05
9.94041e-07
-1.27403e-05
5.80934e-08
-1.23602e-05
-8.61934e-07
-1.18872e-05