/*--------------------------------*- C++ -*----------------------------------*\
| =========                 |                                                 |
| \\      /  F ield         | OpenFOAM: The Open Source CFD Toolbox           |
|  \\    /   O peration     | Version:  2412                                  |
|   \\  /    A nd           | Website:  www.openfoam.com                      |
|    \\/     M anipulation  |                                                 |
\*---------------------------------------------------------------------------*/
FoamFile
{
    version     2.0;
    format      ascii;
    arch        "LSB;label=32;scalar=64";
    class       volScalarField;
    location    "6.65";
    object      p_rgh;
}
// * * * * * * * * * * * * * * * * * * * * * * * * * * * * * * * * * * * * * //

dimensions      [1 -1 -2 0 0 0 0];

internalField   nonuniform List<scalar> 
6400
(
12428.3
12428.4
12428.8
12429.2
12429.7
12430.2
12430.7
12431
12431.3
12431.4
12431.4
12431.3
12431
12430.6
12429.9
12429.1
12428.1
12426.9
12425.5
12423.9
12422
12419.9
12417.5
12414.8
12411.9
12408.7
12405.2
12401.5
12397.5
12393.4
12389.2
12384.9
12380.7
12376.6
12372.9
12369.5
12366.7
12364.5
12363
12362.4
12362.5
12363.4
12365.1
12367.5
12370.5
12374
12377.8
12381.9
12386.2
12390.5
12394.7
12398.7
12402.6
12406.3
12409.7
12412.8
12415.7
12418.3
12420.6
12422.7
12424.5
12426.1
12427.5
12428.6
12429.6
12430.4
12431
12431.5
12431.8
12431.9
12431.9
12431.8
12431.6
12431.2
12430.8
12430.3
12429.9
12429.4
12429.1
12428.9
12428.1
12428.3
12428.6
12428.9
12429.4
12429.8
12430.1
12430.4
12430.6
12430.6
12430.6
12430.4
12430.1
12429.6
12428.9
12428.1
12427
12425.8
12424.4
12422.8
12420.9
12418.8
12416.5
12413.9
12411.1
12408
12404.8
12401.2
12397.6
12393.7
12389.8
12385.9
12382
12378.4
12375
12371.9
12369.4
12367.4
12366.1
12365.5
12365.6
12366.4
12368
12370.1
12372.8
12376
12379.4
12383.2
12387.1
12391
12394.9
12398.7
12402.3
12405.8
12409
12412
12414.7
12417.3
12419.5
12421.6
12423.4
12425
12426.4
12427.6
12428.6
12429.4
12430.1
12430.5
12430.9
12431.1
12431.2
12431.1
12430.9
12430.7
12430.3
12430
12429.6
12429.2
12428.9
12428.8
12427.8
12428
12428.3
12428.6
12428.9
12429.3
12429.5
12429.7
12429.8
12429.9
12429.7
12429.5
12429.1
12428.6
12427.9
12427
12425.9
12424.7
12423.3
12421.7
12419.9
12417.8
12415.6
12413.1
12410.4
12407.5
12404.4
12401.1
12397.7
12394.1
12390.5
12386.9
12383.4
12380.1
12377
12374.2
12372
12370.2
12369
12368.5
12368.6
12369.3
12370.7
12372.6
12375
12377.9
12381
12384.4
12388
12391.6
12395.2
12398.7
12402.1
12405.3
12408.4
12411.3
12413.9
12416.3
12418.5
12420.5
12422.3
12423.9
12425.3
12426.5
12427.5
12428.4
12429.1
12429.6
12430
12430.3
12430.4
12430.4
12430.3
12430.1
12429.9
12429.6
12429.2
12428.9
12428.7
12428.5
12427.3
12427.6
12427.9
12428.3
12428.6
12428.9
12429.1
12429.2
12429.3
12429.2
12429.1
12428.8
12428.3
12427.8
12427
12426.2
12425.1
12423.9
12422.5
12420.9
12419.1
12417.1
12414.9
12412.6
12410
12407.2
12404.2
12401.1
12397.9
12394.6
12391.2
12387.8
12384.5
12381.4
12378.5
12376
12373.8
12372.2
12371.1
12370.6
12370.7
12371.4
12372.6
12374.4
12376.7
12379.4
12382.3
12385.5
12388.8
12392.2
12395.6
12398.9
12402.1
12405.2
12408.1
12410.8
12413.3
12415.7
12417.8
12419.8
12421.5
12423.1
12424.5
12425.7
12426.7
12427.6
12428.3
12428.9
12429.3
12429.6
12429.8
12429.9
12429.8
12429.7
12429.5
12429.2
12428.9
12428.6
12428.3
12428
12426.8
12427.2
12427.6
12427.9
12428.2
12428.5
12428.7
12428.8
12428.8
12428.7
12428.5
12428.2
12427.8
12427.2
12426.4
12425.5
12424.5
12423.2
12421.8
12420.3
12418.5
12416.6
12414.5
12412.2
12409.7
12407.1
12404.3
12401.3
12398.2
12395
12391.8
12388.6
12385.5
12382.5
12379.7
12377.3
12375.2
12373.6
12372.5
12372
12372.1
12372.8
12374
12375.8
12378
12380.5
12383.3
12386.4
12389.5
12392.8
12396
12399.1
12402.2
12405.1
12407.9
12410.5
12413
12415.2
12417.3
12419.2
12420.9
12422.4
12423.8
12425
12426.1
12427
12427.7
12428.3
12428.8
12429.1
12429.3
12429.4
12429.4
12429.3
12429.1
12428.9
12428.6
12428.3
12427.9
12427.6
12426.4
12426.8
12427.3
12427.6
12428
12428.2
12428.4
12428.5
12428.5
12428.4
12428.1
12427.8
12427.3
12426.7
12425.9
12425
12424
12422.8
12421.4
12419.9
12418.2
12416.3
12414.3
12412.1
12409.7
12407.1
12404.4
12401.6
12398.6
12395.5
12392.4
12389.3
12386.2
12383.3
12380.6
12378.2
12376.1
12374.5
12373.5
12373
12373
12373.7
12374.9
12376.7
12378.8
12381.4
12384.2
12387.1
12390.2
12393.3
12396.5
12399.5
12402.4
12405.3
12407.9
12410.4
12412.8
12415
12417
12418.8
12420.5
12422
12423.3
12424.5
12425.6
12426.5
12427.3
12427.9
12428.4
12428.7
12429
12429.1
12429.1
12429
12428.9
12428.6
12428.3
12428
12427.5
12427.1
12426
12426.5
12427
12427.4
12427.7
12428
12428.2
12428.3
12428.2
12428.1
12427.9
12427.5
12427
12426.3
12425.6
12424.7
12423.6
12422.4
12421.1
12419.6
12418
12416.2
12414.2
12412.1
12409.8
12407.3
12404.7
12402
12399.1
12396.1
12393
12390
12386.9
12383.9
12381.2
12378.7
12376.6
12374.9
12373.8
12373.3
12373.4
12374.1
12375.4
12377.2
12379.4
12382
12384.8
12387.8
12390.9
12394
12397
12400
12402.8
12405.5
12408.1
12410.5
12412.8
12414.9
12416.8
12418.6
12420.2
12421.7
12423
12424.2
12425.2
12426.2
12426.9
12427.6
12428.1
12428.5
12428.7
12428.9
12428.9
12428.8
12428.7
12428.4
12428.1
12427.7
12427.2
12426.7
12425.6
12426.2
12426.8
12427.2
12427.6
12427.9
12428
12428.1
12428.1
12427.9
12427.7
12427.3
12426.8
12426.1
12425.4
12424.5
12423.4
12422.3
12420.9
12419.5
12417.9
12416.2
12414.3
12412.2
12410
12407.7
12405.2
12402.5
12399.7
12396.7
12393.7
12390.6
12387.4
12384.4
12381.5
12378.8
12376.6
12374.8
12373.6
12373
12373.1
12373.9
12375.3
12377.2
12379.6
12382.3
12385.3
12388.4
12391.5
12394.6
12397.6
12400.5
12403.3
12405.9
12408.4
12410.7
12412.9
12414.9
12416.8
12418.5
12420.1
12421.5
12422.8
12424
12425
12425.9
12426.7
12427.4
12427.9
12428.3
12428.6
12428.7
12428.8
12428.7
12428.5
12428.3
12427.9
12427.5
12427
12426.4
12425.4
12426
12426.6
12427.1
12427.5
12427.8
12428
12428.1
12428.1
12427.9
12427.6
12427.2
12426.7
12426.1
12425.3
12424.4
12423.4
12422.2
12420.9
12419.5
12418
12416.3
12414.5
12412.6
12410.5
12408.2
12405.8
12403.2
12400.4
12397.5
12394.4
12391.2
12387.9
12384.7
12381.5
12378.6
12376.1
12374.1
12372.8
12372.1
12372.3
12373.1
12374.7
12376.8
12379.5
12382.4
12385.6
12388.9
12392.1
12395.3
12398.4
12401.2
12404
12406.5
12408.9
12411.1
12413.2
12415.1
12416.9
12418.6
12420.1
12421.5
12422.8
12423.9
12425
12425.9
12426.7
12427.3
12427.8
12428.3
12428.5
12428.7
12428.8
12428.7
12428.5
12428.2
12427.9
12427.4
12426.8
12426.2
12425.3
12426
12426.6
12427.1
12427.6
12427.9
12428.1
12428.2
12428.2
12428
12427.7
12427.3
12426.8
12426.1
12425.3
12424.4
12423.4
12422.3
12421.1
12419.7
12418.2
12416.6
12414.9
12413.1
12411.1
12408.9
12406.6
12404
12401.3
12398.4
12395.2
12391.9
12388.4
12384.8
12381.3
12378
12375.1
12372.8
12371.2
12370.5
12370.6
12371.6
12373.5
12376
12379
12382.3
12385.8
12389.4
12392.8
12396.1
12399.2
12402.1
12404.8
12407.3
12409.6
12411.7
12413.7
12415.5
12417.2
12418.8
12420.3
12421.6
12422.9
12424
12425
12425.9
12426.7
12427.4
12427.9
12428.4
12428.6
12428.8
12428.9
12428.8
12428.6
12428.3
12427.9
12427.4
12426.7
12426.1
12425.3
12426
12426.7
12427.2
12427.7
12428.1
12428.3
12428.4
12428.4
12428.2
12427.9
12427.5
12427
12426.3
12425.5
12424.6
12423.6
12422.5
12421.3
12420
12418.6
12417.1
12415.5
12413.7
12411.8
12409.8
12407.5
12405.1
12402.4
12399.5
12396.2
12392.7
12388.9
12384.9
12380.9
12377
12373.5
12370.7
12368.8
12367.9
12368.1
12369.3
12371.5
12374.6
12378.1
12382
12386
12389.9
12393.6
12397.1
12400.2
12403.1
12405.8
12408.2
12410.4
12412.4
12414.3
12416
12417.6
12419.2
12420.6
12421.9
12423.1
12424.2
12425.2
12426.1
12426.9
12427.6
12428.2
12428.6
12428.9
12429.1
12429.1
12429
12428.8
12428.4
12428
12427.5
12426.8
12426.2
12425.4
12426.1
12426.8
12427.5
12428
12428.4
12428.6
12428.8
12428.8
12428.6
12428.3
12427.9
12427.3
12426.6
12425.8
12424.9
12423.9
12422.8
12421.7
12420.4
12419.1
12417.6
12416.1
12414.5
12412.7
12410.8
12408.7
12406.4
12403.8
12400.8
12397.5
12393.7
12389.5
12385
12380.2
12375.6
12371.4
12367.9
12365.5
12364.3
12364.5
12366.1
12368.9
12372.6
12377
12381.6
12386.3
12390.7
12394.7
12398.3
12401.6
12404.4
12407
12409.2
12411.3
12413.2
12415
12416.6
12418.1
12419.6
12420.9
12422.2
12423.4
12424.5
12425.5
12426.4
12427.2
12427.9
12428.5
12429
12429.3
12429.4
12429.5
12429.4
12429.1
12428.7
12428.2
12427.6
12427
12426.3
12425.6
12426.3
12427.1
12427.8
12428.4
12428.8
12429.1
12429.3
12429.3
12429.1
12428.8
12428.3
12427.7
12427
12426.2
12425.3
12424.3
12423.2
12422
12420.8
12419.6
12418.2
12416.8
12415.3
12413.7
12412
12410
12407.9
12405.4
12402.5
12399.1
12395.1
12390.5
12385.2
12379.5
12373.8
12368.5
12364.1
12361
12359.6
12359.8
12361.9
12365.4
12370.2
12375.6
12381.3
12386.8
12391.9
12396.2
12400
12403.2
12406
12408.4
12410.5
12412.4
12414.1
12415.7
12417.2
12418.7
12420
12421.3
12422.6
12423.7
12424.8
12425.9
12426.8
12427.6
12428.4
12429
12429.4
12429.8
12430
12430
12429.9
12429.6
12429.1
12428.6
12427.9
12427.2
12426.5
12425.8
12426.6
12427.4
12428.2
12428.9
12429.4
12429.8
12429.9
12429.9
12429.7
12429.4
12428.9
12428.2
12427.5
12426.6
12425.7
12424.6
12423.6
12422.4
12421.3
12420.1
12418.8
12417.5
12416.2
12414.8
12413.2
12411.6
12409.7
12407.4
12404.7
12401.3
12397.1
12392
12385.8
12378.9
12371.7
12365
12359.3
12355.4
12353.4
12353.7
12356.4
12361
12367.2
12374.2
12381.3
12388
12393.8
12398.5
12402.4
12405.5
12408
12410.1
12412
12413.6
12415.1
12416.5
12417.9
12419.2
12420.4
12421.7
12422.9
12424
12425.1
12426.2
12427.2
12428
12428.8
12429.5
12430
12430.4
12430.6
12430.6
12430.5
12430.1
12429.6
12429
12428.3
12427.5
12426.8
12426
12426.8
12427.8
12428.7
12429.5
12430.2
12430.6
12430.8
12430.8
12430.5
12430.1
12429.5
12428.8
12428
12427.1
12426.1
12425
12424
12422.8
12421.7
12420.5
12419.4
12418.3
12417.1
12415.9
12414.7
12413.3
12411.8
12409.9
12407.4
12404.3
12400
12394.4
12387.1
12378.6
12369.4
12360.6
12353.2
12348
12345.4
12345.7
12349.1
12355.2
12363.3
12372.5
12381.7
12389.9
12396.6
12401.7
12405.5
12408.4
12410.5
12412.3
12413.7
12415
12416.2
12417.4
12418.5
12419.7
12420.9
12422
12423.2
12424.3
12425.5
12426.5
12427.6
12428.5
12429.3
12430.1
12430.7
12431.1
12431.3
12431.4
12431.2
12430.8
12430.2
12429.5
12428.6
12427.8
12427
12426
12427
12428.1
12429.3
12430.3
12431.1
12431.6
12431.8
12431.8
12431.5
12431
12430.4
12429.6
12428.7
12427.7
12426.7
12425.6
12424.5
12423.4
12422.3
12421.2
12420.2
12419.2
12418.3
12417.4
12416.5
12415.5
12414.4
12413
12411.1
12408.4
12404.3
12398.3
12389.7
12378.8
12366.7
12354.9
12344.8
12337.8
12334.2
12334.5
12339
12347.2
12358.1
12370.4
12382.3
12392.7
12400.5
12405.9
12409.4
12411.9
12413.5
12414.8
12415.8
12416.7
12417.6
12418.5
12419.5
12420.5
12421.6
12422.7
12423.8
12424.9
12426
12427.1
12428.2
12429.2
12430.1
12430.9
12431.5
12432
12432.3
12432.4
12432.2
12431.7
12431
12430
12429
12427.9
12427
12425.6
12427
12428.4
12429.8
12431.1
12432.1
12432.7
12433
12432.9
12432.6
12432.1
12431.4
12430.5
12429.6
12428.5
12427.5
12426.4
12425.3
12424.2
12423.2
12422.2
12421.3
12420.5
12419.8
12419.2
12418.7
12418.3
12417.8
12417.2
12416.1
12414.2
12410.9
12404.7
12394.3
12379.6
12362.9
12346.1
12331.8
12322.2
12317.4
12318
12324.4
12335.8
12350.9
12367.9
12384
12397.2
12406.1
12411.3
12414.3
12416
12417
12417.6
12418.1
12418.6
12419.2
12419.9
12420.7
12421.6
12422.6
12423.6
12424.7
12425.8
12427
12428.1
12429.2
12430.2
12431.2
12432
12432.8
12433.3
12433.6
12433.7
12433.4
12432.9
12431.9
12430.7
12429.2
12427.7
12426.4
12424.2
12426.4
12428.4
12430.3
12432
12433.2
12433.9
12434.2
12434.1
12433.7
12433.1
12432.3
12431.4
12430.4
12429.3
12428.2
12427.1
12426
12425
12424
12423.2
12422.5
12421.9
12421.5
12421.2
12421.2
12421.4
12421.9
12422.4
12422.9
12422.9
12422
12417.1
12403.9
12382.5
12357.4
12333
12313.4
12299.8
12292.7
12293.8
12303.3
12319.6
12340.8
12365.6
12389.2
12407.9
12418.1
12421.2
12421.9
12421.9
12421.6
12421.2
12420.9
12420.8
12420.9
12421.3
12422
12422.7
12423.6
12424.5
12425.6
12426.7
12427.8
12429
12430.1
12431.2
12432.2
12433.2
12434
12434.6
12435
12435.1
12434.8
12434
12432.8
12431.1
12429
12426.9
12424.9
12420.1
12424.8
12428.6
12431.6
12433.8
12435.2
12436
12436.2
12435.9
12435.2
12434.4
12433.4
12432.3
12431.1
12429.8
12428.6
12427.4
12426.2
12425.1
12424.1
12423.3
12422.6
12422.2
12422.1
12422.1
12422.5
12423.5
12425.1
12427.2
12429.8
12433.2
12437.2
12436.7
12421.7
12391.1
12357.3
12325.1
12273.5
12044.8
11924.9
11932.6
12086.9
12309.6
12335.5
12369.3
12401.8
12426.8
12437.1
12435.3
12431.4
12428.6
12426.3
12424.5
12423.1
12422.1
12421.6
12421.8
12422.3
12423
12423.7
12424.6
12425.6
12426.8
12428
12429.2
12430.5
12431.7
12433
12434.1
12435.1
12435.9
12436.5
12436.8
12436.6
12435.9
12434.5
12432.2
12429.1
12425.3
12421
12411.7
12399.3
12378.1
12353.6
12329.1
12305.5
12282.9
12261.2
12240.2
12219.5
12198.8
12177.7
12155.9
12133.2
12109.3
12084.1
12057.5
12029.5
12000.4
11970.6
11940.6
11911.3
11883.6
11858.3
11836.6
11819.9
11808.7
11799.7
11788.9
11769.3
11728.1
11639.1
11466
11114.5
9815.23
8084.87
6589.48
5256.82
4973.54
4690.5
4717.4
5081.56
5740.06
7113.25
8678.93
10415.4
11230.4
11489.5
11648.9
11725.4
11761.9
11781.3
11794
11805.6
11819.5
11838.2
11862
11889.6
11919.6
11950.6
11981.8
12012.5
12042.3
12070.6
12097.5
12122.8
12146.6
12169.1
12190.6
12211.3
12231.6
12251.7
12272.1
12292.9
12314.6
12337.2
12360.4
12383.4
12402.8
12413
1330.13
1749.64
1982.37
2125.97
2209.04
2254.01
2274.77
2279.34
2272.46
2257.26
2235.74
2209.36
2179.31
2146.54
2111.94
2076.32
2040.42
2004.92
1970.35
1937.1
1905.52
1875.68
1847.5
1820.79
1794.94
1768.77
1741.44
1715.66
1688.9
1656.37
1611.41
1524.27
1348.3
1260.52
1259.97
1329.39
1367.82
1389.95
1398.81
1393.88
1380.34
1358.39
1277.54
1236.39
1097.36
1007.62
1190.94
1396.42
1549.64
1619.77
1661.31
1691.99
1716.98
1741.72
1767.83
1794.19
1821.64
1849.53
1878.34
1908.68
1940.71
1974.29
2009.16
2044.94
2081.02
2116.76
2151.44
2184.2
2214.19
2240.44
2261.74
2276.59
2283.06
2277.93
2256.48
2210.75
2126.81
1982.3
1748.91
1328.97
0.0017845
0.00214341
0.00223126
0.0023631
0.00254138
0.00276372
0.00303731
0.00336598
0.00375203
0.00419718
0.00470631
0.0052746
0.00593281
0.0069138
0.00840236
0.01071
0.0139573
0.0255705
0.0379688
0.0181027
-0.00102138
4.32346e-05
0.00066867
0.014943
0.189645
0.594892
0.647345
0.651121
1.03612
1.44693
2.64439
4.30024
6.08256
18.2437
1398.58
3682.21
3727.32
3755.4
3772.64
3775.63
3775.31
3771.32
3753.67
3722.73
3463.22
703.261
14.3516
7.39789
5.3297
3.18901
1.51094
0.718988
0.469419
0.404388
0.690599
0.861923
0.677488
0.177224
-0.00677339
-0.0173389
-0.0215826
-0.00631522
0.00999297
0.0094288
0.00573531
0.00662659
0.00565824
0.00461948
0.00426881
0.00432959
0.00453139
0.00468562
0.00478612
0.00485421
0.00489384
0.00491263
0.00491594
0.00491339
0.0049115
0.00460711
0.00227983
0.00230117
0.00236549
0.00248091
0.00264674
0.00286556
0.00314205
0.00348338
0.00389986
0.00440377
0.00501081
0.00574319
0.00662544
0.00777697
0.00961726
0.0126848
0.0166566
0.0175013
0.0230324
0.0219308
0.00332086
0.00224376
0.00205278
0.00255824
0.210952
3.69678
5.7566
2.80571
1.28427
1.44029
2.84949
3.62057
4.21578
4.91249
584.448
1798.1
2613.42
3436.8
3795.24
3586.24
3598.46
3794.31
3394.06
2573.44
1638.17
257.168
6.42917
5.81355
5.86211
6.32774
2.30619
0.758105
0.938716
3.08234
6.82888
6.79609
4.27257
0.133704
-0.00258184
-0.00806529
-0.010061
-0.00886477
-0.00206667
0.00489937
0.00755484
0.00600869
0.00464696
0.00442581
0.00440752
0.0044766
0.00459368
0.00470555
0.00479378
0.00486604
0.00492277
0.00496173
0.00498859
0.005009
0.0050326
0.00506435
0.00206022
0.00216514
0.00227163
0.00240195
0.00257278
0.00278574
0.00304751
0.00336176
0.00373099
0.00415723
0.0046449
0.00519799
0.00587031
0.0068017
0.00806932
0.010144
0.012875
0.0861122
0.255396
0.276673
0.0583661
-9.0078e-06
0.000736357
0.000195283
0.444169
5.08381
5.79557
5.88318
3.59885
1.65702
26.5321
45.6037
45.6779
40.7424
22.4404
0.203753
0.159028
0.143128
552.674
182.605
180.026
412.388
0.0106346
0.0110851
0.0121835
14.4641
42.9409
48.0778
47.9858
25.3048
0.803746
0.687497
5.7859
6.89266
6.89262
6.8333
5.73513
0.487798
-0.0179334
-0.0191587
0.00319207
0.0738197
0.0911005
0.0407706
0.00552835
0.0061882
0.00571417
0.00456158
0.00414342
0.00421604
0.00448795
0.00468082
0.0048024
0.00488423
0.00493409
0.00496171
0.00497121
0.00496896
0.00494841
0.00488352
0.00207976
0.00212608
0.00220156
0.00231513
0.00246932
0.00266417
0.00290517
0.00319699
0.0035442
0.00394974
0.00441928
0.00495159
0.00550287
0.00598464
0.00628853
0.00670152
0.0409305
0.294796
0.29425
0.28812
0.192079
0.00298531
0.00153044
-0.00152372
-0.00432782
-0.00485382
1.41931
5.29674
5.46887
5.14749
2.62945
2.87824
4.93052
3.91795
0.0416609
0.93644
1.70558
0.175289
0.00236031
0.0120661
0.0135958
0.0105617
0.01151
0.0116963
0.0121728
0.0115729
5.38121
4.77899
0.802467
1.78824
3.02727
3.04455
2.44794
3.66109
4.92322
2.65272
-0.0189536
-0.0129312
-0.0194176
-0.0215223
0.119492
0.208564
0.214901
0.218529
0.111514
0.00776787
0.00384317
0.00352339
0.00362813
0.00407746
0.00440277
0.00459896
0.00473211
0.00483046
0.00489429
0.00492798
0.00493904
0.00493752
0.0049258
0.0048968
0.00196239
0.00200033
0.00206438
0.00216065
0.00229293
0.00246305
0.00267607
0.0029373
0.003251
0.00362025
0.00404359
0.0044924
0.00492749
0.00521395
0.00475333
0.00317804
0.00541128
0.169847
0.303246
0.225173
0.00254336
0.00724565
0.00254946
-0.00284859
-0.00729809
-0.0115919
-0.0130648
-0.00225332
0.00158843
0.00179561
0.0053706
0.00852417
0.00593145
0.00364104
0.0462117
1.21086
1.70638
1.08853
0.0112153
0.0139682
0.0116444
0.0111128
0.0106839
0.011068
0.0118353
0.0135333
0.0116662
0.00766083
0.0159589
0.0147442
0.185076
0.251348
0.0480953
0.000660559
-0.00672725
-0.0177297
-0.0166535
-0.0170256
-0.0194916
-0.0240959
-0.0237222
0.0274497
0.17823
0.224755
0.224131
0.166183
0.0117583
0.00304596
0.00284779
0.00350065
0.00416456
0.00446729
0.00460478
0.00470097
0.00476141
0.00479049
0.00479885
0.00479681
0.0047873
0.00476529
0.00179335
0.00182079
0.00187082
0.00194567
0.00204857
0.00218178
0.00234956
0.00255682
0.00280895
0.00311295
0.0034745
0.00387177
0.00425562
0.00447888
0.00400726
0.0028515
0.0031735
0.00279481
0.00757878
0.010145
0.00213369
0.000316774
-0.00376466
-0.00655993
-0.00806687
-0.00837802
-0.00612384
-0.00216422
0.00103503
0.0030693
0.00448012
0.00546175
0.00569211
0.00520201
0.00485458
0.00389338
0.00111548
0.0078426
0.0103664
0.0110563
0.0106409
0.00951073
0.00950826
0.0103068
0.011353
0.0124799
0.0136325
0.0143747
0.0157535
0.0188052
0.0178534
0.00271429
-0.00809623
-0.0101831
-0.011566
-0.0159082
-0.0190402
-0.020324
-0.0201717
-0.0205068
-0.0184009
-0.0129637
-0.0110965
0.0968497
0.231812
0.233728
0.111865
0.00163092
0.00177012
0.00261387
0.00362477
0.00410626
0.00430838
0.00443597
0.00451071
0.00454605
0.00455884
0.00456004
0.00455523
0.00454296
0.00158408
0.00160101
0.00163411
0.00168345
0.00175079
0.00183772
0.00194737
0.00208427
0.00225481
0.0024692
0.00273844
0.00305474
0.00341019
0.00378827
0.00405749
0.0046653
0.00746134
0.0111957
0.00288985
-0.0084439
-0.0101177
-0.0136988
-0.0160069
-0.0161828
-0.014562
-0.0113706
-0.00697608
-0.00285866
0.000159271
0.00253936
0.00429602
0.00518853
0.00522666
0.00529962
0.00581546
0.00590104
0.00545716
0.00537201
0.00728956
0.00856169
0.00903853
0.00887207
0.00946718
0.0100936
0.0110173
0.0124434
0.0133507
0.0134864
0.0140211
0.0137668
0.0111329
0.00592744
-0.000195835
-0.00529241
-0.0117001
-0.0209463
-0.0303684
-0.0371503
-0.0391123
-0.0360471
-0.0282073
-0.0178499
-0.00468994
0.00228265
0.150797
0.240289
0.177075
0.00385647
0.000869072
0.00180646
0.00292967
0.00359101
0.00388087
0.00405161
0.00415424
0.00420851
0.00423501
0.0042459
0.00424865
0.00424583
0.00134386
0.00135137
0.00136603
0.00138718
0.00141501
0.00144965
0.00149221
0.0015451
0.001613
0.00170518
0.00183453
0.00200863
0.00226593
0.00271888
0.00348833
0.00514065
0.00843168
0.0112725
-0.00365681
-0.0178942
-0.0280396
-0.0335433
-0.033841
-0.0303028
-0.0240429
-0.016665
-0.0102318
-0.00528489
-0.00163277
0.00103129
0.00290326
0.00406166
0.00462602
0.00493182
0.00513224
0.00531898
0.00560398
0.00581532
0.00614723
0.00727011
0.00816131
0.00848484
0.00903284
0.00958464
0.0104255
0.0115158
0.0122592
0.0125281
0.0125517
0.0120785
0.0103032
0.00584285
-0.00152808
-0.0106938
-0.0220692
-0.0365688
-0.0519769
-0.0634497
-0.0669237
-0.0607297
-0.0454152
-0.0242807
-0.0020239
0.00822576
0.0832495
0.249703
0.139363
-0.00181722
0.000279614
0.00118063
0.00226206
0.00301485
0.00336951
0.00358317
0.00371816
0.00379683
0.00384181
0.00386614
0.0038777
0.00388077
0.00108475
0.00108277
0.0010784
0.00107035
0.00105703
0.00103642
0.00100656
0.00096591
0.0009145
0.00085619
0.00079887
0.000754594
0.000784508
0.00103651
0.00164493
0.00448749
0.00948332
0.00157425
-0.015821
-0.0396118
-0.0580849
-0.0611153
-0.0568228
-0.0471717
-0.0388437
-0.0260164
-0.0155434
-0.00874175
-0.00405762
-0.000774353
0.00145815
0.00292903
0.00388539
0.00455572
0.0050031
0.00523419
0.00534419
0.00554398
0.00569643
0.0064778
0.00753045
0.00800702
0.00851867
0.0090371
0.00973107
0.0104663
0.0109274
0.0109748
0.0105834
0.00951668
0.00710145
0.00230688
-0.00566786
-0.0174491
-0.0345359
-0.0577361
-0.0828821
-0.101268
-0.106126
-0.0954931
-0.0714989
-0.0403079
-0.00882442
0.0100059
0.056935
0.253696
0.111081
-0.0029375
0.000257036
0.000824572
0.0017315
0.00244934
0.00282156
0.00306474
0.00322727
0.00332984
0.00339423
0.0034332
0.00345478
0.00346322
0.000817614
0.000806475
0.0007838
0.000747446
0.000693965
0.000618859
0.000516452
0.000380039
0.000202541
-2.20305e-05
-0.000298608
-0.000626962
-0.000963424
-0.00119423
-0.00096638
0.00428831
0.00408672
-0.0112268
-0.0385414
-0.0731411
-0.0952002
-0.101629
-0.0956149
-0.0770537
-0.0533438
-0.034564
-0.0229982
-0.0132492
-0.00711837
-0.00297504
-0.000211672
0.00165447
0.00293967
0.00387292
0.00455974
0.00503457
0.00533438
0.00538184
0.00537495
0.00597867
0.00697166
0.00743196
0.00786218
0.00828904
0.00875813
0.00912499
0.00924276
0.00899371
0.00822986
0.00664907
0.00360952
-0.00199314
-0.0115838
-0.0272119
-0.052018
-0.0868851
-0.124381
-0.150837
-0.156799
-0.140628
-0.106893
-0.0657716
-0.0244631
0.0037328
0.0732718
0.252329
0.162689
0.000343518
0.000286712
0.000629662
0.00129133
0.00189584
0.00225776
0.00251672
0.00270021
0.00282465
0.00290816
0.00296216
0.00299448
0.00300886
0.000552872
0.000533668
0.000494661
0.000432811
0.000343036
0.000218394
4.94506e-05
-0.000176128
-0.000473809
-0.000862594
-0.00136719
-0.00201062
-0.00279814
-0.00372458
-0.00459116
-0.00114899
-0.00507689
-0.0273255
-0.0649043
-0.109824
-0.142347
-0.151598
-0.138673
-0.110905
-0.0771499
-0.0456777
-0.0293631
-0.0180821
-0.010267
-0.00518121
-0.00183723
0.000416953
0.00198817
0.00312668
0.0039784
0.00459003
0.00494557
0.00501924
0.00508804
0.00543647
0.00635439
0.00674031
0.0070763
0.00739169
0.00764455
0.00771666
0.00753601
0.00698205
0.00584349
0.00376628
5.13075e-05
-0.00654415
-0.0178578
-0.0371842
-0.069444
-0.115544
-0.164277
-0.197341
-0.204003
-0.183124
-0.141386
-0.09223
-0.0440859
-0.0119484
0.105057
0.254469
0.183649
0.00216879
-0.000422756
0.000171539
0.000760483
0.00129702
0.00166588
0.00194381
0.00214906
0.00229591
0.00239902
0.00246845
0.00251164
0.00253197
0.00030044
0.000274615
0.000222164
0.000139333
1.97826e-05
-0.000145394
-0.000368738
-0.000667479
-0.00106486
-0.00159268
-0.00229769
-0.00323211
-0.00445618
-0.00615271
-0.00825822
-0.00998804
-0.013036
-0.0384923
-0.0862737
-0.13952
-0.17977
-0.195759
-0.184319
-0.147108
-0.0965949
-0.057802
-0.0347547
-0.0220829
-0.0128201
-0.00702999
-0.00325697
-0.00071689
0.00106343
0.00234936
0.00332168
0.00405027
0.00450367
0.00465674
0.00468281
0.0049126
0.00570083
0.00598161
0.00623198
0.00642724
0.00647729
0.00630765
0.00587794
0.00505347
0.00359982
0.00115879
-0.00299675
-0.0101721
-0.0223095
-0.0435045
-0.0800329
-0.13287
-0.18799
-0.223793
-0.230357
-0.207127
-0.161491
-0.108398
-0.0568951
-0.0272863
0.0522013
0.179597
0.100855
-0.00149489
-0.0017714
-0.000661843
4.13575e-05
0.000616905
0.0010344
0.00134898
0.00158435
0.00175715
0.0018814
0.00196694
0.00202113
0.00204731
6.86626e-05
3.79127e-05
-2.44147e-05
-0.000122467
-0.000263272
-0.000456823
-0.000717411
-0.00106509
-0.00152791
-0.00214588
-0.00298049
-0.00410918
-0.00565521
-0.00787366
-0.00936134
-0.012377
-0.0169667
-0.0421561
-0.0952944
-0.152994
-0.196878
-0.215164
-0.203134
-0.162953
-0.108441
-0.0626539
-0.0400461
-0.0238073
-0.0142098
-0.00821243
-0.00429207
-0.00162206
0.000262437
0.00162268
0.00264766
0.00342732
0.00394103
0.00416089
0.0042251
0.00441658
0.00497032
0.00520796
0.00538332
0.00545656
0.00533759
0.00498629
0.00437008
0.00334474
0.00168137
-0.00094407
-0.00520006
-0.0122723
-0.0237837
-0.0436805
-0.0788613
-0.131273
-0.186416
-0.221414
-0.227581
-0.204357
-0.159275
-0.106486
-0.0525149
-0.0264578
-0.0146429
-0.00858453
-0.00218907
-0.00361917
-0.0034032
-0.00179421
-0.000814701
-0.000117718
0.000379161
0.000747164
0.00102096
0.00122319
0.00136992
0.00147196
0.00153726
0.0015694
-0.000136153
-0.000169953
-0.000238203
-0.00034508
-0.000497613
-0.000705783
-0.000983866
-0.00135186
-0.00183787
-0.00248185
-0.00334346
-0.0045062
-0.00611641
-0.00830544
-0.00151832
-0.00124277
-0.0184688
-0.0421201
-0.0884499
-0.144133
-0.187673
-0.206358
-0.19485
-0.155478
-0.102774
-0.058151
-0.0379393
-0.0230042
-0.014305
-0.00864601
-0.00486152
-0.00223885
-0.000366018
0.000995603
0.0020228
0.00281406
0.00336318
0.00364676
0.00373593
0.00390931
0.00426653
0.00444761
0.00456796
0.00452816
0.00427942
0.00380071
0.00305594
0.001908
0.000153351
-0.00248236
-0.00653879
-0.0128905
-0.0225659
-0.0389871
-0.0679735
-0.111644
-0.159023
-0.190553
-0.196539
-0.17572
-0.134682
-0.0849442
-0.0396065
-0.0182992
-0.016185
-0.013049
-0.0109272
-0.0073107
-0.0046749
-0.00282967
-0.00164211
-0.000833194
-0.000256724
0.000166088
0.000479108
0.000710638
0.000879212
0.000997019
0.00107284
0.00111122
-0.000309768
-0.000344793
-0.000415015
-0.000524394
-0.000679295
-0.000888656
-0.00116511
-0.00152593
-0.00199478
-0.00260402
-0.00339743
-0.00443929
-0.0058289
-0.00759731
-0.000639053
0.00187372
-0.00684485
-0.0339266
-0.0671669
-0.112714
-0.151254
-0.168122
-0.158513
-0.123187
-0.081387
-0.0496892
-0.0328446
-0.0204026
-0.0131882
-0.008372
-0.0049744
-0.00255993
-0.00080032
0.000497918
0.00148227
0.00224843
0.00280288
0.00312047
0.0032419
0.00340157
0.00361744
0.00373677
0.0038101
0.00367648
0.00333584
0.00277561
0.00195587
0.000757569
-0.000989144
-0.00349273
-0.00714
-0.0124665
-0.0201561
-0.032091
-0.0516978
-0.080811
-0.113523
-0.136735
-0.141231
-0.125125
-0.0930902
-0.0557476
-0.0275259
-0.0172943
-0.0149204
-0.0135957
-0.0113148
-0.00806037
-0.00531175
-0.00352762
-0.00230956
-0.00145218
-0.000826751
-0.000364372
-2.01738e-05
0.000235614
0.000422601
0.000553802
0.000638188
0.000683874
-0.000450002
-0.000484716
-0.000553299
-0.000659599
-0.000808713
-0.00100785
-0.00126692
-0.00159894
-0.00202069
-0.00255351
-0.00322241
-0.00405895
-0.00511432
-0.0063792
-0.00523952
0.00538899
0.00130997
-0.0176431
-0.0412765
-0.0703797
-0.0979167
-0.111049
-0.106337
-0.0810951
-0.0554648
-0.0382872
-0.0258772
-0.0168556
-0.0113947
-0.0075569
-0.00471344
-0.00261802
-0.00104874
0.000137991
0.00104554
0.00175977
0.00229228
0.00262137
0.00276752
0.00291523
0.00303457
0.00309772
0.00312665
0.00292006
0.00252117
0.00191549
0.00106162
-0.00011647
-0.00178334
-0.00406644
-0.00724148
-0.0116335
-0.0176283
-0.0259711
-0.0378645
-0.0537409
-0.0706945
-0.0822181
-0.0830289
-0.0728977
-0.0545268
-0.0351722
-0.0216454
-0.0178692
-0.0152156
-0.0128911
-0.0101749
-0.00755379
-0.0054729
-0.00392947
-0.0027861
-0.0019377
-0.00130283
-0.000823036
-0.000460579
-0.000189384
1.02759e-05
0.000151435
0.000239403
0.000297246
-0.000556537
-0.000589985
-0.000653789
-0.000752646
-0.000889681
-0.00107018
-0.00130095
-0.00159037
-0.00194824
-0.0023854
-0.00291188
-0.00353374
-0.00425989
-0.00506836
-0.00590117
-0.00298637
0.00601606
0.00218058
-0.0106617
-0.0300012
-0.0483167
-0.0594441
-0.0570072
-0.0472274
-0.0335522
-0.0264994
-0.0189528
-0.0133048
-0.00941721
-0.00648608
-0.00421821
-0.00247669
-0.00113329
-9.18574e-05
0.000719538
0.00136215
0.00185101
0.00217
0.00233092
0.00246862
0.00252151
0.00254014
0.00252743
0.00226319
0.00183476
0.00121987
0.000380456
-0.000759742
-0.00229273
-0.0043253
-0.00702108
-0.0105882
-0.0152736
-0.0213692
-0.029052
-0.0377731
-0.0455368
-0.0494447
-0.0479953
-0.0423476
-0.0339196
-0.0257887
-0.0197887
-0.0170973
-0.0143088
-0.011666
-0.00922623
-0.00714452
-0.00546894
-0.00413989
-0.00310285
-0.00230051
-0.00168124
-0.00120303
-0.000835816
-0.000557558
-0.000351206
-0.00020435
-0.000114501
-4.74909e-05
-0.000630473
-0.000662865
-0.000718938
-0.000807532
-0.000928255
-0.00108494
-0.00128141
-0.00152191
-0.00181043
-0.00214981
-0.00253973
-0.00297361
-0.00343546
-0.00390168
-0.00432951
-0.00469698
-0.00220957
0.00166628
4.42431e-05
-0.00608915
-0.0141211
-0.020964
-0.0240583
-0.0288853
-0.0239657
-0.0182079
-0.013683
-0.0102364
-0.00752851
-0.00535069
-0.00360047
-0.00220428
-0.00109319
-0.000210122
0.000491666
0.00105318
0.00148633
0.00177963
0.00194352
0.00207287
0.00207688
0.00206509
0.00201546
0.00170205
0.00127313
0.000666749
-0.000138007
-0.00119996
-0.00258027
-0.00435328
-0.00660959
-0.00946069
-0.0130468
-0.0175062
-0.0227998
-0.0283737
-0.0330153
-0.0353521
-0.034723
-0.0311742
-0.0263304
-0.0216663
-0.0181408
-0.0153607
-0.01279
-0.0105251
-0.00853409
-0.00682006
-0.00539483
-0.00423203
-0.00329886
-0.0025557
-0.00196765
-0.00150497
-0.00114424
-0.000867148
-0.00065975
-0.000511092
-0.000420323
-0.000350111
-0.00067514
-0.000706122
-0.000752265
-0.000829554
-0.000931599
-0.00106226
-0.00122261
-0.00141387
-0.00163576
-0.00188628
-0.00215935
-0.00244345
-0.00271885
-0.00295601
-0.00314899
-0.00324038
-0.00347325
-0.00417345
-0.00436883
-0.00434496
-0.00627091
-0.0109427
-0.0157641
-0.0163671
-0.0147428
-0.0123016
-0.00982462
-0.00766524
-0.00582224
-0.00425784
-0.00294694
-0.00186105
-0.000969225
-0.000242514
0.000346499
0.000823163
0.00119466