/*--------------------------------*- C++ -*----------------------------------*\
| =========                 |                                                 |
| \\      /  F ield         | OpenFOAM: The Open Source CFD Toolbox           |
|  \\    /   O peration     | Version:  2412                                  |
|   \\  /    A nd           | Website:  www.openfoam.com                      |
|    \\/     M anipulation  |                                                 |
\*---------------------------------------------------------------------------*/
FoamFile
{
    version     2.0;
    format      ascii;
    arch        "LSB;label=32;scalar=64";
    class       volVectorField;
    location    "75";
    object      U;
}
// * * * * * * * * * * * * * * * * * * * * * * * * * * * * * * * * * * * * * //

dimensions      [0 1 -1 0 0 0 0];

internalField   nonuniform List<vector> 
6400
(
(-5.41318e-07 4.2777e-07 0)
(-2.93491e-06 7.17158e-07 0)
(-5.96699e-06 7.05373e-07 0)
(-8.57006e-06 4.98993e-07 0)
(-9.96006e-06 2.29756e-07 0)
(-9.74591e-06 -9.60118e-08 0)
(-7.79584e-06 -3.94315e-07 0)
(-4.06989e-06 -7.0475e-07 0)
(1.34635e-06 -9.45504e-07 0)
(8.40584e-06 -1.21244e-06 0)
(1.69835e-05 -1.4142e-06 0)
(2.69708e-05 -1.60918e-06 0)
(3.81325e-05 -1.69455e-06 0)
(5.03586e-05 -1.80507e-06 0)
(6.34367e-05 -1.81461e-06 0)
(7.72916e-05 -1.88074e-06 0)
(9.16859e-05 -1.85662e-06 0)
(0.000106637 -1.86401e-06 0)
(0.000121949 -1.80353e-06 0)
(0.000137425 -1.67681e-06 0)
(0.000152818 -1.49428e-06 0)
(0.000167998 -1.36336e-06 0)
(0.000182868 -1.12639e-06 0)
(0.000197659 -9.91301e-07 0)
(0.000211914 -8.30324e-07 0)
(0.000225526 -7.66114e-07 0)
(0.000238121 -3.76973e-07 0)
(0.000249332 -6.20759e-08 0)
(0.000259438 8.55603e-08 0)
(0.000268218 3.76729e-07 0)
(0.000275181 7.89707e-07 0)
(0.00028015 8.77917e-07 0)
(0.000283208 7.37585e-07 0)
(0.000284757 7.41975e-07 0)
(0.000284267 1.4077e-06 0)
(0.000280821 1.86182e-06 0)
(0.000275916 1.80137e-06 0)
(0.000268313 1.54264e-06 0)
(0.000258553 2.01434e-06 0)
(0.00024635 2.44745e-06 0)
(0.000232192 2.34772e-06 0)
(0.000216421 2.36667e-06 0)
(0.000198868 2.39822e-06 0)
(0.00018018 2.53764e-06 0)
(0.000160094 2.70076e-06 0)
(0.000139 2.69419e-06 0)
(0.000117215 2.76893e-06 0)
(9.49891e-05 2.77411e-06 0)
(7.2685e-05 2.80734e-06 0)
(5.05741e-05 2.75133e-06 0)
(2.904e-05 2.76584e-06 0)
(8.24607e-06 2.65285e-06 0)
(-1.13706e-05 2.63632e-06 0)
(-2.97405e-05 2.47921e-06 0)
(-4.64838e-05 2.454e-06 0)
(-6.16901e-05 2.24214e-06 0)
(-7.48273e-05 2.13338e-06 0)
(-8.59552e-05 1.79445e-06 0)
(-9.46474e-05 1.67e-06 0)
(-0.00010128 1.26092e-06 0)
(-0.000105467 1.12664e-06 0)
(-0.000107628 7.20548e-07 0)
(-0.000107382 6.33143e-07 0)
(-0.000105257 1.41161e-07 0)
(-0.000100822 -2.75161e-08 0)
(-9.48567e-05 -4.91821e-07 0)
(-8.70554e-05 -4.31504e-07 0)
(-7.83194e-05 -7.94501e-07 0)
(-6.83102e-05 -7.25467e-07 0)
(-5.79546e-05 -1.03572e-06 0)
(-4.70772e-05 -8.56381e-07 0)
(-3.66393e-05 -1.01417e-06 0)
(-2.65346e-05 -7.29955e-07 0)
(-1.76086e-05 -7.38304e-07 0)
(-9.80001e-06 -3.71094e-07 0)
(-3.8335e-06 -2.33212e-07 0)
(3.312e-07 1.89125e-07 0)
(2.22362e-06 4.39691e-07 0)
(2.21654e-06 7.5247e-07 0)
(7.55414e-07 6.46937e-07 0)
(-1.02941e-06 2.49809e-06 0)
(-5.40961e-06 4.51258e-06 0)
(-1.00493e-05 4.1559e-06 0)
(-1.30747e-05 2.25276e-06 0)
(-1.29333e-05 -6.65326e-07 0)
(-8.81825e-06 -4.00908e-06 0)
(-2.73495e-07 -7.61056e-06 0)
(1.27481e-05 -1.10769e-05 0)
(3.02313e-05 -1.44777e-05 0)
(5.19115e-05 -1.75572e-05 0)
(7.76382e-05 -2.05299e-05 0)
(0.000106884 -2.29511e-05 0)
(0.000139368 -2.5093e-05 0)
(0.00017452 -2.67004e-05 0)
(0.000212178 -2.81429e-05 0)
(0.000251661 -2.90185e-05 0)
(0.000292725 -2.96935e-05 0)
(0.000334763 -2.9933e-05 0)
(0.000377602 -3.02405e-05 0)
(0.000420629 -2.96459e-05 0)
(0.000463747 -2.87336e-05 0)
(0.000506174 -2.7426e-05 0)
(0.000547786 -2.61854e-05 0)
(0.000587838 -2.49889e-05 0)
(0.000626315 -2.36829e-05 0)
(0.000662765 -2.11076e-05 0)
(0.000696582 -1.82135e-05 0)
(0.000726974 -1.55462e-05 0)
(0.000753661 -1.29083e-05 0)
(0.000775881 -9.38331e-06 0)
(0.000793742 -5.77553e-06 0)
(0.000806316 -2.20972e-06 0)
(0.000813655 1.22478e-06 0)
(0.000815717 4.66792e-06 0)
(0.000812368 8.03264e-06 0)
(0.00080205 1.28529e-05 0)
(0.000786393 1.68064e-05 0)
(0.000764562 1.96113e-05 0)
(0.000736941 2.39454e-05 0)
(0.000703158 2.82376e-05 0)
(0.000664148 3.10313e-05 0)
(0.000619893 3.35282e-05 0)
(0.000571065 3.61795e-05 0)
(0.000518393 3.8759e-05 0)
(0.000462887 4.02692e-05 0)
(0.000404759 4.16835e-05 0)
(0.000344398 4.27362e-05 0)
(0.000283021 4.33583e-05 0)
(0.000221395 4.31563e-05 0)
(0.000160471 4.2704e-05 0)
(0.000100663 4.15228e-05 0)
(4.31988e-05 4.01617e-05 0)
(-1.16207e-05 3.80354e-05 0)
(-6.25851e-05 3.58664e-05 0)
(-0.000109887 3.29981e-05 0)
(-0.000152246 3.01373e-05 0)
(-0.00018978 2.6161e-05 0)
(-0.000221028 2.24152e-05 0)
(-0.000246863 1.79363e-05 0)
(-0.000266038 1.40238e-05 0)
(-0.000279763 9.35637e-06 0)
(-0.000286756 5.55451e-06 0)
(-0.000288524 7.73229e-07 0)
(-0.000283707 -2.92509e-06 0)
(-0.000274227 -7.36684e-06 0)
(-0.000259043 -1.01491e-05 0)
(-0.000240505 -1.35526e-05 0)
(-0.000217526 -1.5328e-05 0)
(-0.000192743 -1.77185e-05 0)
(-0.000165381 -1.81915e-05 0)
(-0.000138032 -1.90208e-05 0)
(-0.000110147 -1.79771e-05 0)
(-8.42076e-05 -1.72663e-05 0)
(-5.98285e-05 -1.48219e-05 0)
(-3.91415e-05 -1.26349e-05 0)
(-2.18428e-05 -9.05045e-06 0)
(-9.49775e-06 -5.73601e-06 0)
(-1.65986e-06 -1.81317e-06 0)
(1.27781e-06 1.03665e-06 0)
(7.87402e-07 1.90957e-06 0)
(-1.13012e-06 4.97969e-06 0)
(-5.29308e-06 8.2204e-06 0)
(-8.55384e-06 6.43327e-06 0)
(-8.67722e-06 1.11144e-06 0)
(-3.94828e-06 -6.33106e-06 0)
(6.74887e-06 -1.51218e-05 0)
(2.38972e-05 -2.42839e-05 0)
(4.77656e-05 -3.35887e-05 0)
(7.81151e-05 -4.23555e-05 0)
(0.000114878 -5.08448e-05 0)
(0.000157414 -5.83824e-05 0)
(0.000205318 -6.51897e-05 0)
(0.000257824 -7.07923e-05 0)
(0.000314727 -7.5765e-05 0)
(0.000375051 -7.94314e-05 0)
(0.000438128 -8.22428e-05 0)
(0.00050306 -8.38006e-05 0)
(0.000569616 -8.48729e-05 0)
(0.000636815 -8.4965e-05 0)
(0.000704816 -8.43111e-05 0)
(0.000772395 -8.20913e-05 0)
(0.000839076 -7.92296e-05 0)
(0.000903447 -7.54673e-05 0)
(0.000965406 -7.19152e-05 0)
(0.00102463 -6.73046e-05 0)
(0.00108044 -6.1219e-05 0)
(0.00113163 -5.34546e-05 0)
(0.00117798 -4.62341e-05 0)
(0.00121775 -3.86763e-05 0)
(0.00125127 -2.95656e-05 0)
(0.00127713 -1.91242e-05 0)
(0.00129556 -9.33123e-06 0)
(0.00130562 7.51152e-07 0)
(0.00130732 1.0929e-05 0)
(0.00130025 2.14813e-05 0)
(0.00128385 3.28776e-05 0)
(0.0012576 4.42749e-05 0)
(0.00122258 5.46607e-05 0)
(0.00117848 6.6034e-05 0)
(0.00112537 7.6319e-05 0)
(0.00106415 8.52938e-05 0)
(0.000994944 9.37253e-05 0)
(0.000918653 0.000101518 0)
(0.000835727 0.000107339 0)
(0.000748511 0.000112344 0)
(0.000657459 0.000116159 0)
(0.000563489 0.000119284 0)
(0.000467601 0.000120522 0)
(0.000371546 0.000120314 0)
(0.000276238 0.000118625 0)
(0.000183154 0.000116103 0)
(9.29022e-05 0.000111576 0)
(7.53621e-06 0.000106244 0)
(-7.32246e-05 9.91444e-05 0)
(-0.000147382 9.19829e-05 0)
(-0.000214773 8.25909e-05 0)
(-0.000273312 7.27279e-05 0)
(-0.000324105 6.10135e-05 0)
(-0.000365081 5.00972e-05 0)
(-0.000397708 3.77847e-05 0)
(-0.000420002 2.66378e-05 0)
(-0.000433894 1.3938e-05 0)
(-0.000437311 2.81732e-06 0)
(-0.000432951 -9.38032e-06 0)
(-0.000419022 -1.88353e-05 0)
(-0.000398983 -2.89771e-05 0)
(-0.000371216 -3.60314e-05 0)
(-0.000339143 -4.34895e-05 0)
(-0.00030152 -4.72768e-05 0)
(-0.000262498 -5.11583e-05 0)
(-0.000220804 -5.11507e-05 0)
(-0.000180405 -5.10703e-05 0)
(-0.000140371 -4.7219e-05 0)
(-0.000104329 -4.31842e-05 0)
(-7.15317e-05 -3.59087e-05 0)
(-4.48915e-05 -2.85414e-05 0)
(-2.36886e-05 -1.90482e-05 0)
(-9.64784e-06 -1.02788e-05 0)
(-1.71412e-06 -2.11569e-06 0)
(3.99136e-07 1.72181e-06 0)
(-9.99191e-07 6.95525e-06 0)
(-3.5336e-06 1.01998e-05 0)
(-3.46174e-06 5.40723e-06 0)
(1.41284e-06 -4.8301e-06 0)
(1.28767e-05 -1.88053e-05 0)
(3.1911e-05 -3.47109e-05 0)
(5.92147e-05 -5.17255e-05 0)
(9.48099e-05 -6.85182e-05 0)
(0.000138777 -8.49381e-05 0)
(0.000190505 -0.000100175 0)
(0.000249536 -0.000114387 0)
(0.000314969 -0.000126586 0)
(0.000386721 -0.000137603 0)
(0.000463613 -0.000146471 0)
(0.000544631 -0.000153672 0)
(0.000628527 -0.000158404 0)
(0.000715067 -0.000161769 0)
(0.000803174 -0.000163458 0)
(0.000892585 -0.000164179 0)
(0.000982213 -0.00016249 0)
(0.00107117 -0.000159019 0)
(0.00115801 -0.000153434 0)
(0.00124235 -0.000146749 0)
(0.0013231 -0.000138636 0)
(0.00139985 -0.000130147 0)
(0.00147135 -0.000119007 0)
(0.00153746 -0.000105341 0)
(0.00159615 -9.05161e-05 0)
(0.00164716 -7.53011e-05 0)
(0.0016894 -5.79341e-05 0)
(0.00172199 -3.94248e-05 0)
(0.00174443 -2.00469e-05 0)
(0.00175664 -7.11413e-07 0)
(0.00175736 1.95692e-05 0)
(0.00174654 3.99202e-05 0)
(0.00172388 6.19482e-05 0)
(0.00168876 8.38073e-05 0)
(0.00164138 0.000105116 0)
(0.00158217 0.000125857 0)
(0.00151088 0.00014487 0)
(0.00142984 0.000162349 0)
(0.00133912 0.000179174 0)
(0.0012398 0.000193455 0)
(0.00113215 0.000206029 0)
(0.00101713 0.000215941 0)
(0.000897133 0.000223934 0)
(0.000773267 0.000229071 0)
(0.000647781 0.000231549 0)
(0.000521174 0.000230897 0)
(0.000395776 0.000228247 0)
(0.000273119 0.000222304 0)
(0.000155125 0.000214142 0)
(4.21011e-05 0.000203181 0)
(-6.42024e-05 0.000191028 0)
(-0.000163362 0.000175344 0)
(-0.000251482 0.000158324 0)
(-0.000330378 0.00013838 0)
(-0.000397506 0.000118281 0)
(-0.000454375 9.56709e-05 0)
(-0.000497795 7.39901e-05 0)
(-0.000530236 5.02116e-05 0)
(-0.000548572 2.84471e-05 0)
(-0.000556676 5.02429e-06 0)
(-0.000551675 -1.50254e-05 0)
(-0.000537836 -3.58383e-05 0)
(-0.000512276 -5.20487e-05 0)
(-0.000480345 -6.84695e-05 0)
(-0.000439444 -7.92783e-05 0)
(-0.000394786 -8.97126e-05 0)
(-0.000344479 -9.40384e-05 0)
(-0.000294026 -9.74759e-05 0)
(-0.000241626 -9.47164e-05 0)
(-0.000192411 -9.08844e-05 0)
(-0.000144959 -8.13563e-05 0)
(-0.000103645 -7.0866e-05 0)
(-6.73086e-05 -5.59837e-05 0)
(-3.91287e-05 -4.09221e-05 0)
(-1.79573e-05 -2.4154e-05 0)
(-5.40175e-06 -9.90684e-06 0)
(4.95237e-08 -1.03205e-07 0)
(-7.82097e-07 7.70686e-06 0)
(-8.32494e-07 8.90972e-06 0)
(3.7315e-06 -4.82049e-07 0)
(1.50469e-05 -1.75149e-05 0)
(3.45232e-05 -3.93474e-05 0)
(6.32338e-05 -6.42878e-05 0)
(0.000101515 -9.02534e-05 0)
(0.000149637 -0.0001165 0)
(0.000207195 -0.000141425 0)
(0.000273853 -0.00016515 0)
(0.000348483 -0.000186478 0)
(0.000431028 -0.000205913 0)
(0.000520421 -0.000222601 0)
(0.000615391 -0.000236646 0)
(0.000714485 -0.000246933 0)
(0.000817259 -0.000254725 0)
(0.000922595 -0.00025961 0)
(0.00103031 -0.000262742 0)
(0.00113858 -0.000262932 0)
(0.00124662 -0.000260655 0)
(0.00135284 -0.000254615 0)
(0.00145716 -0.000246345 0)
(0.00155797 -0.000235116 0)
(0.00165492 -0.000222523 0)
(0.00174587 -0.000207401 0)
(0.00183075 -0.000190143 0)
(0.00190822 -0.000169247 0)
(0.0019778 -0.000146333 0)
(0.00203731 -0.00012067 0)
(0.00208673 -9.3461e-05 0)
(0.00212438 -6.40407e-05 0)
(0.0021503 -3.3757e-05 0)
(0.00216326 -2.09043e-06 0)
(0.0021627 3.03429e-05 0)
(0.00214744 6.44399e-05 0)
(0.00211868 9.90067e-05 0)
(0.00207485 0.00013348 0)
(0.00201703 0.000166645 0)
(0.00194554 0.000199049 0)
(0.00186008 0.000229915 0)
(0.00176122 0.000259523 0)
(0.00165133 0.000285682 0)
(0.00153199 0.000308935 0)
(0.00140336 0.000328542 0)
(0.00126601 0.000345638 0)
(0.00112162 0.000358424 0)
(0.0009729 0.000366936 0)
(0.000821277 0.000370572 0)
(0.000669237 0.000370605 0)
(0.000517602 0.000365291 0)
(0.000369946 0.000356204 0)
(0.000226537 0.000342492 0)
(9.01315e-05 0.000326324 0)
(-3.9072e-05 0.000305967 0)
(-0.000157894 0.000281928 0)
(-0.000266661 0.000252736 0)
(-0.000361779 0.000222781 0)
(-0.000445394 0.000189196 0)
(-0.000513669 0.000155552 0)
(-0.000569404 0.00011859 0)
(-0.000608213 8.33158e-05 0)
(-0.000634547 4.59372e-05 0)
(-0.000644546 1.19999e-05 0)
(-0.000643425 -2.29248e-05 0)
(-0.0006274 -5.20912e-05 0)
(-0.000602118 -8.1224e-05 0)
(-0.00056419 -0.000103258 0)
(-0.000520538 -0.000124251 0)
(-0.000467734 -0.000137049 0)
(-0.000412561 -0.000148003 0)
(-0.000352446 -0.00015008 0)
(-0.000293969 -0.000149943 0)
(-0.000234863 -0.000141274 0)
(-0.000181 -0.000130413 0)
(-0.000130509 -0.000112276 0)
(-8.81013e-05 -9.26384e-05 0)
(-5.22381e-05 -6.8325e-05 0)
(-2.60156e-05 -4.46079e-05 0)
(-8.39117e-06 -2.12525e-05 0)
(-3.5237e-07 -3.91984e-06 0)
(-5.16717e-07 6.86851e-06 0)
(2.31026e-06 3.72706e-06 0)
(1.21009e-05 -1.24355e-05 0)
(3.06029e-05 -3.77025e-05 0)
(5.90443e-05 -6.93115e-05 0)
(9.80349e-05 -0.000104228 0)
(0.000148046 -0.000140931 0)
(0.000208751 -0.000177105 0)
(0.00028003 -0.000212187 0)
(0.000360837 -0.000244559 0)
(0.000450904 -0.000274755 0)
(0.000549252 -0.000301114 0)
(0.000654656 -0.000324535 0)
(0.000765124 -0.000342964 0)
(0.000880702 -0.00035774 0)
(0.000999687 -0.000367784 0)
(0.00112222 -0.000375494 0)
(0.00124587 -0.000378899 0)
(0.00136992 -0.000378976 0)
(0.00149256 -0.00037421 0)
(0.00161386 -0.000366074 0)
(0.00173202 -0.000353907 0)
(0.00184701 -0.000338809 0)
(0.00195654 -0.000319447 0)
(0.00205966 -0.000297687 0)
(0.00215426 -0.000271686 0)
(0.0022412 -0.000242666 0)
(0.00231839 -0.000210035 0)
(0.00238525 -0.000173811 0)
(0.00243965 -0.000133639 0)
(0.00248161 -9.2194e-05 0)
(0.00250911 -4.84472e-05 0)
(0.00252275 -3.58275e-06 0)
(0.00252024 4.39567e-05 0)
(0.00250149 9.27758e-05 0)
(0.00246733 0.000142129 0)
(0.00241643 0.000190076 0)
(0.00234996 0.000238835 0)
(0.00226785 0.000286265 0)
(0.00217067 0.000331501 0)
(0.00205836 0.000372755 0)
(0.00193234 0.000409822 0)
(0.00179569 0.000441766 0)
(0.00164838 0.00047116 0)
(0.00149145 0.000496296 0)
(0.00132765 0.000515347 0)
(0.00115833 0.000527395 0)
(0.000985974 0.000533728 0)
(0.000812094 0.000533109 0)
(0.000639757 0.000526751 0)
(0.000469908 0.000513074 0)
(0.000306221 0.000494815 0)
(0.000148684 0.000470088 0)
(1.93898e-06 0.000441732 0)
(-0.000134666 0.000405858 0)
(-0.000258173 0.000366097 0)
(-0.00037012 0.000321102 0)
(-0.000465231 0.000275138 0)
(-0.00054677 0.000224601 0)
(-0.00060985 0.000174315 0)
(-0.000658722 0.00012075 0)
(-0.000688875 7.10957e-05 0)
(-0.000705748 1.95986e-05 0)
(-0.00070452 -2.61131e-05 0)
(-0.000692025 -7.16698e-05 0)
(-0.000663763 -0.000108795 0)
(-0.000626888 -0.000144477 0)
(-0.000577466 -0.000169975 0)
(-0.000523507 -0.000192887 0)
(-0.000461207 -0.000204346 0)
(-0.000398464 -0.000212298 0)
(-0.000332029 -0.000208658 0)
(-0.000269288 -0.000201355 0)
(-0.00020751 -0.000183508 0)
(-0.000152963 -0.000162531 0)
(-0.000103429 -0.000133437 0)
(-6.3563e-05 -0.000102902 0)
(-3.17495e-05 -6.8637e-05 0)
(-1.11306e-05 -3.67625e-05 0)
(-5.12704e-07 -8.98899e-06 0)
(-2.39565e-07 4.40175e-06 0)
(5.66124e-06 -5.82019e-06 0)
(2.09253e-05 -3.06892e-05 0)
(4.71371e-05 -6.63382e-05 0)
(8.48724e-05 -0.000108804 0)
(0.000134714 -0.000155534 0)
(0.000196492 -0.00020337 0)
(0.000270083 -0.000251068 0)
(0.000354525 -0.000296128 0)
(0.000449533 -0.000338733 0)
(0.000553742 -0.000377412 0)
(0.000666449 -0.000411812 0)
(0.000785329 -0.000440295 0)
(0.000910059 -0.000464366 0)
(0.00103954 -0.000482818 0)
(0.00117363 -0.000496822 0)
(0.00130985 -0.00050535 0)
(0.00144658 -0.000509533 0)
(0.00158254 -0.000507747 0)
(0.00171782 -0.000501739 0)
(0.00185076 -0.000490041 0)
(0.00198094 -0.000474401 0)
(0.00210604 -0.000453416 0)
(0.00222568 -0.00042791 0)
(0.00233696 -0.000396917 0)
(0.00244008 -0.000362545 0)
(0.00253341 -0.000323197 0)
(0.0026168 -0.000280448 0)
(0.00268817 -0.000231743 0)
(0.00274682 -0.000178601 0)
(0.00279095 -0.000122421 0)
(0.00282021 -6.46027e-05 0)
(0.00283317 -3.77332e-06 0)
(0.00282963 5.90449e-05 0)
(0.00280829 0.000125448 0)
(0.00277032 0.000190583 0)
(0.00271364 0.000255394 0)
(0.00264023 0.000320348 0)
(0.00254926 0.000383182 0)
(0.00244213 0.000442918 0)
(0.00231871 0.000498863 0)
(0.00218048 0.00054828 0)
(0.00202896 0.000592417 0)
(0.00186645 0.000631632 0)
(0.00169419 0.000664842 0)
(0.00151432 0.000689747 0)
(0.0013289 0.000707013 0)
(0.00113936 0.00071514 0)
(0.000948953 0.000715587 0)
(0.000758904 0.000706603 0)
(0.000572811 0.000690069 0)
(0.000391336 0.000664434 0)
(0.000218494 0.000632296 0)
(5.55432e-05 0.000591432 0)
(-9.29568e-05 0.000545574 0)
(-0.000231242 0.000491813 0)
(-0.000353727 0.000434357 0)
(-0.000462351 0.000370254 0)
(-0.000551071 0.000305663 0)
(-0.00062464 0.000236072 0)
(-0.000678239 0.000168267 0)
(-0.000717085 9.81518e-05 0)
(-0.000735488 3.41869e-05 0)
(-0.00074056 -3.05265e-05 0)
(-0.000726808 -8.63216e-05 0)
(-0.00070259 -0.000140467 0)
(-0.000662458 -0.00018292 0)
(-0.000615284 -0.000222046 0)
(-0.000556306 -0.000247495 0)
(-0.000494742 -0.000268297 0)
(-0.000426136 -0.000274531 0)
(-0.000359261 -0.00027552 0)
(-0.000290312 -0.000262483 0)
(-0.000227143 -0.00024448 0)
(-0.000166658 -0.000214581 0)
(-0.000115152 -0.000181085 0)
(-7.0242e-05 -0.000139654 0)
(-3.6392e-05 -9.75511e-05 0)
(-1.24955e-05 -5.39699e-05 0)
(-7.61254e-07 -1.54334e-05 0)
(4.58222e-08 2.7458e-07 0)
(8.98174e-06 -1.96023e-05 0)
(2.99025e-05 -5.57175e-05 0)
(6.38657e-05 -0.000103244 0)
(0.000111227 -0.000158623 0)
(0.000171827 -0.000217669 0)
(0.000245666 -0.000278233 0)
(0.000331721 -0.000337132 0)
(0.000429461 -0.000393681 0)
(0.000537737 -0.000445862 0)
(0.000655129 -0.000493677 0)
(0.000779454 -0.000534374 0)
(0.000910564 -0.000569574 0)
(0.00104763 -0.000598379 0)
(0.00119022 -0.000621769 0)
(0.00133581 -0.000637646 0)
(0.00148291 -0.00064768 0)
(0.00162903 -0.000650388 0)
(0.00177521 -0.000648247 0)
(0.00191959 -0.000639141 0)
(0.00206225 -0.000624994 0)
(0.00219997 -0.000603581 0)
(0.0023327 -0.000577006 0)
(0.00245806 -0.00054328 0)
(0.00257596 -0.00050392 0)
(0.00268467 -0.000458809 0)
(0.00278395 -0.000409929 0)
(0.00287072 -0.000354749 0)
(0.00294538 -0.000293849 0)
(0.00300624 -0.000225959 0)
(0.00305236 -0.000154862 0)
(0.0030821 -8.06193e-05 0)
(0.00309452 -4.19476e-06 0)
(0.00308958 7.67244e-05 0)
(0.00306699 0.000160311 0)
(0.0030245 0.000243262 0)
(0.00296487 0.000326047 0)
(0.0028849 0.000408469 0)
(0.00278755 0.000487494 0)
(0.00267255 0.000564261 0)
(0.00254063 0.000635245 0)
(0.00239273 0.000699488 0)
(0.00223084 0.00075561 0)
(0.00205694 0.000805389 0)
(0.00187298 0.000846568 0)
(0.00168125 0.000878971 0)
(0.00148316 0.000900496 0)
(0.00128147 0.000912231 0)
(0.00107768 0.000912268 0)
(0.000875703 0.000902391 0)
(0.000676128 0.000880736 0)
(0.000483296 0.000849899 0)
(0.000297056 0.000807117 0)
(0.00012322 0.000755661 0)
(-3.84986e-05 0.00069564 0)
(-0.000184269 0.00063073 0)
(-0.000317881 0.000556002 0)
(-0.000433089 0.0004774 0)
(-0.0005328 0.000391496 0)
(-0.000610487 0.000307565 0)
(-0.00067301 0.000218903 0)
(-0.000714093 0.000134378 0)
(-0.000740437 4.87046e-05 0)
(-0.000745631 -2.79231e-05 0)
(-0.000738435 -0.000103404 0)
(-0.000712461 -0.000166362 0)
(-0.000677458 -0.000225696 0)
(-0.000627294 -0.000269597 0)
(-0.000572227 -0.000307879 0)
(-0.000506707 -0.000328924 0)
(-0.000440818 -0.000343225 0)
(-0.000369581 -0.000340115 0)
(-0.00030229 -0.000330131 0)
(-0.00023475 -0.000304294 0)
(-0.000174931 -0.000272582 0)
(-0.000119538 -0.000228544 0)
(-7.46007e-05 -0.000181046 0)
(-3.78503e-05 -0.000126918 0)
(-1.36042e-05 -7.3672e-05 0)
(-7.08914e-07 -2.21611e-05 0)
(3.06246e-07 -5.34107e-06 0)
(1.22235e-05 -3.77566e-05 0)
(3.87087e-05 -8.71496e-05 0)
(8.0614e-05 -0.000148952 0)
(0.000137423 -0.000218051 0)
(0.000208976 -0.000291158 0)
(0.00029445 -0.000364457 0)
(0.000393089 -0.000436219 0)
(0.000503383 -0.000503232 0)
(0.00062411 -0.00056542 0)
(0.000752312 -0.000620118 0)
(0.000887967 -0.000668379 0)
(0.00103007 -0.000709236 0)
(0.00117799 -0.000744652 0)
(0.00132924 -0.000770722 0)
(0.0014837 -0.000788902 0)
(0.00163798 -0.000797527 0)
(0.00179231 -0.000800224 0)
(0.00194524 -0.000795928 0)
(0.00209688 -0.00078548 0)
(0.0022446 -0.000765997 0)
(0.00238776 -0.000739729 0)
(0.00252423 -0.000705118 0)
(0.00265369 -0.000664269 0)
(0.00277544 -0.000615915 0)
(0.00288932 -0.00056108 0)
(0.00299125 -0.000499254 0)
(0.00308021 -0.000432156 0)
(0.00315557 -0.00035706 0)
(0.00321816 -0.000275753 0)
(0.00326432 -0.000187972 0)
(0.00329418 -9.77214e-05 0)
(0.00330595 -2.98322e-06 0)
(0.00329994 9.57542e-05 0)
(0.00327434 0.00019741 0)
(0.00322944 0.00029912 0)
(0.00316617 0.000401461 0)
(0.00308379 0.000500944 0)
(0.00298115 0.000598278 0)
(0.00286081 0.000691947 0)
(0.00272269 0.000779635 0)
(0.00256848 0.000857977 0)
(0.00239971 0.000927697 0)
(0.00221858 0.000987897 0)
(0.00202712 0.00103873 0)
(0.00182706 0.00107758 0)
(0.00162095 0.00110508 0)
(0.0014103 0.00111889 0)
(0.00119878 0.00112029 0)
(0.000987584 0.0011074 0)
(0.000780788 0.00108284 0)
(0.000578456 0.00104413 0)
(0.000385712 0.000993861 0)
(0.000201225 0.000929047 0)
(3.24163e-05 0.000856416 0)
(-0.000122659 0.000774709 0)
(-0.000259636 0.000687475 0)
(-0.000383322 0.000589399 0)
(-0.000486907 0.000487912 0)
(-0.00057423 0.000380915 0)
(-0.000638159 0.000277898 0)
(-0.000687525 0.000171182 0)
(-0.000714393 7.1974e-05 0)
(-0.000727643 -2.66293e-05 0)
(-0.000719856 -0.000112629 0)
(-0.000701296 -0.000195165 0)
(-0.000664718 -0.000261241 0)
(-0.000621221 -0.00032119 0)
(-0.000563963 -0.000361789 0)
(-0.000504194 -0.000394387 0)
(-0.000435686 -0.000406469 0)
(-0.000369155 -0.000409826 0)
(-0.000299197 -0.000393444 0)
(-0.000235316 -0.00036887 0)
(-0.000173108 -0.000327467 0)
(-0.000120287 -0.000279848 0)
(-7.35304e-05 -0.000220584 0)
(-3.83228e-05 -0.000158719 0)
(-1.31387e-05 -9.26634e-05 0)
(-8.31135e-07 -2.94294e-05 0)
(5.48922e-07 -1.24065e-05 0)
(1.53117e-05 -5.99008e-05 0)
(4.74631e-05 -0.000125397 0)
(9.72537e-05 -0.000202862 0)
(0.000163883 -0.000287703 0)
(0.000246405 -0.000375414 0)
(0.000343909 -0.000463177 0)
(0.000453964 -0.000546648 0)
(0.00057549 -0.00062511 0)
(0.000706466 -0.000695301 0)
(0.000845579 -0.000758338 0)
(0.000991301 -0.000812449 0)
(0.00114345 -0.000859292 0)
(0.00129826 -0.00089724 0)
(0.00145561 -0.000927104 0)
(0.00161439 -0.000945332 0)
(0.0017744 -0.000954849 0)
(0.00193441 -0.000955364 0)
(0.0020931 -0.00094935 0)
(0.00224757 -0.000934831 0)
(0.00239816 -0.000911359 0)
(0.00254297 -0.000877478 0)
(0.00268198 -0.00083717 0)
(0.0028135 -0.000787717 0)
(0.00293845 -0.000731625 0)
(0.00305251 -0.000665567 0)
(0.00315502 -0.000591778 0)
(0.00324373 -0.000509992 0)
(0.00331998 -0.000421733 0)
(0.00338113 -0.000324983 0)
(0.00342668 -0.000221945 0)
(0.00345466 -0.000112921 0)
(0.00346599 -1.00474e-06 0)
(0.00345768 0.000116033 0)
(0.00343072 0.00023623 0)
(0.00338358 0.000358396 0)
(0.0033176 0.000478307 0)
(0.00323349 0.00059642 0)
(0.00312904 0.000711822 0)
(0.00300494 0.000824131 0)
(0.00286481 0.00092819 0)
(0.00270823 0.00102255 0)
(0.00253617 0.00110435 0)
(0.00235139 0.00117649 0)
(0.00215581 0.00123596 0)
(0.00195184 0.001283 0)
(0.00174099 0.00131494 0)
(0.00152657 0.00133254 0)
(0.00130996 0.00133326 0)
(0.00109546 0.0013195 0)
(0.000883345 0.00128931 0)
(0.00067831 0.00124547 0)
(0.000479748 0.0011847 0)
(0.000293229 0.00111081 0)
(0.000116457 0.00102171 0)
(-4.21397e-05 0.00092588 0)
(-0.000186018 0.000819888 0)
(-0.000309684 0.000708701 0)
(-0.000420334 0.000586565 0)
(-0.000508962 0.000463595 0)
(-0.000581481 0.000336749 0)
(-0.000630828 0.000216389 0)
(-0.000666227 9.4373e-05 0)
(-0.000679208 -1.60907e-05 0)
(-0.000680302 -0.000123726 0)
(-0.000661136 -0.000214692 0)
(-0.000633412 -0.000299512 0)
(-0.000589075 -0.000363664 0)
(-0.000540281 -0.00041902 0)
(-0.000479482 -0.000451351 0)
(-0.000418663 -0.000473381 0)
(-0.000351141 -0.000472051 0)
(-0.00028789 -0.000460273 0)
(-0.000223229 -0.000427217 0)
(-0.000166491 -0.000385197 0)
(-0.00011323 -0.000326464 0)
(-7.05386e-05 -0.000261919 0)
(-3.53836e-05 -0.000187594 0)
(-1.26425e-05 -0.000112256 0)
(-6.11735e-07 -3.59755e-05 0)
(7.42287e-07 -2.07317e-05 0)
(1.84066e-05 -8.63242e-05 0)
(5.63439e-05 -0.000170098 0)
(0.000114601 -0.000265766 0)
(0.000191575 -0.000367503 0)
(0.000285755 -0.000471638 0)
(0.000394205 -0.00057237 0)
(0.000515273 -0.000668278 0)
(0.000646602 -0.000756004 0)
(0.000787092 -0.000835809 0)
(0.00093456 -0.000905242 0)
(0.0010883 -0.000966195 0)
(0.00124631 -0.00101566 0)
(0.00140733 -0.00105594 0)
(0.00156828 -0.00108568 0)
(0.00173046 -0.00110645 0)
(0.00189353 -0.0011157 0)
(0.00205678 -0.00111621 0)
(0.00221687 -0.00110517 0)
(0.00237292 -0.00108619 0)
(0.00252244 -0.00105666 0)
(0.00266838 -0.0010183 0)
(0.00280754 -0.00096949 0)
(0.00294001 -0.000913473 0)
(0.00306217 -0.000846323 0)
(0.00317381 -0.000770128 0)
(0.00327321 -0.000682926 0)
(0.00336134 -0.00058816 0)
(0.00343491 -0.000484125 0)
(0.00349392 -0.000373643 0)
(0.0035366 -0.000254156 0)
(0.00356373 -0.000128266 0)
(0.00357181 3.14361e-06 0)
(0.00356244 0.000137924 0)
(0.00353371 0.000277413 0)
(0.00348663 0.000417245 0)
(0.00341921 0.000556023 0)
(0.00333414 0.000692317 0)
(0.00322944 0.00082829 0)
(0.00310501 0.000957866 0)
(0.00296493 0.00107811 0)
(0.00281092 0.00118597 0)
(0.00264039 0.00128321 0)
(0.00245496 0.00136664 0)
(0.00225919 0.00143591 0)
(0.0020545 0.00148938 0)
(0.0018438 0.00152742 0)
(0.00162864 0.00154709 0)
(0.00141264 0.00154905 0)
(0.00119669 0.00153192 0)
(0.000985389 0.00149876 0)
(0.000778627 0.0014474 0)
(0.000582078 0.00137975 0)
(0.000393267 0.00129279 0)
(0.000218176 0.00119329 0)
(5.37815e-05 0.00107871 0)
(-9.06049e-05 0.000957829 0)
(-0.000219904 0.000826169 0)
(-0.000328281 0.000691156 0)
(-0.000423169 0.000545997 0)
(-0.00049536 0.000404541 0)
(-0.000553233 0.000260467 0)
(-0.000587957 0.000126208 0)
(-0.000610444 -6.94472e-06 0)
(-0.00061124 -0.000124221 0)
(-0.000602434 -0.000235941 0)
(-0.000574774 -0.00032659 0)
(-0.000541134 -0.000408198 0)
(-0.000492652 -0.000465085 0)
(-0.000442315 -0.00051056 0)
(-0.000382076 -0.000529699 0)
(-0.000324262 -0.000536427 0)
(-0.000261827 -0.000517705 0)
(-0.000205621 -0.000487329 0)
(-0.000149916 -0.000435203 0)
(-0.000103494 -0.000374057 0)
(-6.21098e-05 -0.000297561 0)
(-3.19239e-05 -0.000216494 0)
(-1.04771e-05 -0.00012883 0)
(-6.1071e-07 -4.22726e-05 0)
(9.23118e-07 -3.03949e-05 0)
(2.16095e-05 -0.000116878 0)
(6.59636e-05 -0.000222155 0)
(0.000133655 -0.000337758 0)
(0.000221883 -0.000458726 0)
(0.000327163 -0.000577848 0)
(0.000446643 -0.000692484 0)
(0.000577544 -0.000798684 0)
(0.000718159 -0.000896396 0)
(0.000866108 -0.000982758 0)
(0.00102046 -0.00105925 0)
(0.00117894 -0.00112356 0)
(0.00134109 -0.00117736 0)
(0.00150463 -0.00121797 0)
(0.00166932 -0.00124895 0)
(0.0018334 -0.00126865 0)
(0.00199746 -0.00127877 0)
(0.00215885 -0.0012759 0)
(0.00231782 -0.00126281 0)
(0.0024715 -0.00123699 0)
(0.00262074 -0.00120305 0)
(0.00276341 -0.00115806 0)
(0.00289996 -0.00110291 0)
(0.00302714 -0.00103528 0)
(0.00314442 -0.000958031 0)
(0.0032502 -0.000869471 0)
(0.00334624 -0.000772083 0)
(0.00342953 -0.00066327 0)
(0.00350037 -0.000545528 0)
(0.00355519 -0.000418193 0)
(0.00359589 -0.000283916 0)
(0.00361958 -0.000140934 0)
(0.00362664 7.20966e-06 0)
(0.00361506 0.000161188 0)
(0.00358619 0.000318071 0)
(0.00353839 0.000476741 0)
(0.0034723 0.000633861 0)
(0.0033864 0.000790032 0)
(0.00328348 0.000943205 0)
(0.00316252 0.00108935 0)
(0.00302574 0.00122343 0)
(0.00287378 0.0013469 0)
(0.00270771 0.00145845 0)
(0.00252788 0.00155511 0)
(0.00233614 0.00163409 0)
(0.00213529 0.00169584 0)
(0.00192774 0.00173813 0)
(0.00171773 0.00176135 0)
(0.00150508 0.00176275 0)
(0.00129347 0.00174498 0)
(0.0010836 0.00170615 0)
(0.000882039 0.00164875 0)
(0.000687921 0.00157011 0)
(0.000505004 0.00147568 0)
(0.000329599 0.00136228 0)
(0.000169783 0.00123675 0)
(2.16023e-05 0.00109547 0)
(-0.000105702 0.000949066 0)
(-0.00021875 0.000792309 0)
(-0.00031036 0.000634798 0)
(-0.000389657 0.000470778 0)
(-0.000446035 0.000313965 0)
(-0.000490234 0.000156605 0)
(-0.000512164 1.32739e-05 0)
(-0.000524109 -0.000125874 0)
(-0.000515731 -0.00024459 0)
(-0.000500414 -0.000354704 0)
(-0.000468059 -0.000439354 0)
(-0.000432457 -0.000512071 0)
(-0.000384123 -0.000556332 0)
(-0.000336481 -0.000586767 0)
(-0.000281065 -0.000588231 0)
(-0.000230096 -0.000575666 0)
(-0.00017643 -0.000536555 0)
(-0.000130426 -0.000485277 0)
(-8.65862e-05 -0.000412991 0)
(-5.27867e-05 -0.00033253 0)
(-2.51418e-05 -0.000239538 0)
(-8.49669e-06 -0.000144355 0)
(-1.88851e-07 -4.69504e-05 0)
(1.09627e-06 -4.14248e-05 0)
(2.55313e-05 -0.000152503 0)
(7.74653e-05 -0.000282009 0)
(0.000155583 -0.000421045 0)
(0.000255572 -0.000560352 0)
(0.000372357 -0.000695331 0)
(0.000502209 -0.00082163 0)
(0.000642616 -0.00093859 0)
(0.000790709 -0.0010432 0)
(0.000945174 -0.0011367 0)
(0.00110375 -0.00121677 0)
(0.00126577 -0.00128554 0)
(0.00142919 -0.00134027 0)
(0.00159405 -0.0013834 0)
(0.00175836 -0.00141334 0)
(0.00192217 -0.00143344 0)
(0.00208308 -0.00143989 0)
(0.00224139 -0.00143485 0)
(0.00239478 -0.00141602 0)
(0.00254438 -0.0013868 0)
(0.00268782 -0.00134491 0)
(0.00282487 -0.00129313 0)
(0.00295278 -0.00122825 0)
(0.00307299 -0.00115245 0)
(0.00318332 -0.00106355 0)
(0.00328479 -0.000965075 0)
(0.00337427 -0.00085471 0)
(0.00345272 -0.00073451 0)
(0.00351746 -0.000602337 0)
(0.00356916 -0.000461405 0)
(0.00360537 -0.000310423 0)
(0.00362693 -0.000152141 0)
(0.00363144 1.38442e-05 0)
(0.00361975 0.000184298 0)
(0.00358992 0.000359397 0)
(0.00354318 0.000535213 0)
(0.00347793 0.000711509 0)
(0.00339501 0.000884653 0)
(0.00329471 0.00105441 0)
(0.00317889 0.00121552 0)
(0.00304697 0.00136589 0)
(0.00290012 0.0015032 0)
(0.00273952 0.00162796 0)
(0.00256704 0.001736 0)
(0.00238414 0.00182626 0)
(0.00219178 0.00189497 0)
(0.00199346 0.00194296 0)
(0.00179098 0.00196749 0)
(0.00158781 0.00197129 0)
(0.00138327 0.00195099 0)
(0.00118313 0.00190897 0)
(0.000987052 0.0018421 0)
(0.000800462 0.00175682 0)
(0.000620527 0.00165095 0)
(0.000453942 0.00152927 0)
(0.000296336 0.00138795 0)
(0.000155597 0.00123563 0)
(2.5756e-05 0.00106875 0)
(-8.32351e-05 0.000898705 0)
(-0.000180313 0.000719991 0)
(-0.000256021 0.000544471 0)
(-0.000320719 0.000365377 0)
(-0.000363496 0.000197766 0)
(-0.000396614 3.23803e-05 0)
(-0.000408817 -0.000114323 0)
(-0.000413763 -0.000253622 0)
(-0.000400225 -0.000367841 0)
(-0.000382641 -0.000470301 0)
(-0.000350178 -0.000543187 0)
(-0.000317116 -0.000601479 0)