/*--------------------------------*- C++ -*----------------------------------*\
| =========                 |                                                 |
| \\      /  F ield         | OpenFOAM: The Open Source CFD Toolbox           |
|  \\    /   O peration     | Version:  2412                                  |
|   \\  /    A nd           | Website:  www.openfoam.com                      |
|    \\/     M anipulation  |                                                 |
\*---------------------------------------------------------------------------*/
FoamFile
{
    version     2.0;
    format      ascii;
    arch        "LSB;label=32;scalar=64";
    class       volScalarField;
    location    "7.1";
    object      p;
}
// * * * * * * * * * * * * * * * * * * * * * * * * * * * * * * * * * * * * * //

dimensions      [1 -1 -2 0 0 0 0];

internalField   nonuniform List<scalar> 
6400
(
7069.78
7069.7
7069.54
7069.31
7069.02
7068.69
7068.33
7067.97
7067.65
7067.39
7067.24
7067.23
7067.42
7067.84
7068.53
7069.54
7070.92
7072.69
7074.9
7077.57
7080.7
7084.31
7088.37
7092.88
7097.78
7103.02
7108.54
7114.26
7120.1
7125.96
7131.75
7137.34
7142.65
7147.56
7151.97
7155.79
7158.95
7161.38
7163.04
7163.89
7163.91
7163.1
7161.48
7159.07
7155.93
7152.11
7147.68
7142.74
7137.4
7131.72
7125.86
7119.89
7113.92
7108.04
7102.35
7096.93
7091.84
7087.15
7082.9
7079.17
7075.9
7073.12
7070.84
7069.04
7067.68
7066.73
7066.15
7065.89
7065.9
7066.13
7066.53
7067.05
7067.64
7068.27
7068.88
7069.45
7069.93
7070.31
7070.58
7070.72
6706.9
6706.81
6706.63
6706.4
6706.09
6705.73
6705.35
6704.96
6704.61
6704.31
6704.12
6704.07
6704.21
6704.58
6705.23
6706.2
6707.54
6709.29
6711.47
6714.12
6717.26
6720.88
6724.97
6729.52
6734.47
6739.78
6745.38
6751.19
6757.12
6763.06
6768.98
6774.67
6780.09
6785.09
6789.58
6793.47
6796.69
6799.17
6800.86
6801.73
6801.75
6800.93
6799.28
6796.83
6793.63
6789.74
6785.23
6780.21
6774.77
6768.95
6763
6756.93
6750.86
6744.9
6739.12
6733.63
6728.48
6723.75
6719.47
6715.69
6712.41
6709.65
6707.4
6705.62
6704.29
6703.38
6702.84
6702.63
6702.69
6702.97
6703.42
6704
6704.64
6705.3
6705.95
6706.55
6707.06
6707.45
6707.74
6707.88
6344.09
6343.99
6343.81
6343.55
6343.21
6342.81
6342.37
6341.93
6341.5
6341.13
6340.86
6340.72
6340.77
6341.05
6341.6
6342.49
6343.75
6345.43
6347.57
6350.2
6353.34
6356.98
6361.12
6365.75
6370.81
6376.25
6382.01
6387.99
6394.12
6400.28
6406.37
6412.26
6417.92
6423.12
6427.78
6431.83
6435.17
6437.75
6439.5
6440.41
6440.43
6439.58
6437.87
6435.33
6432.02
6427.98
6423.28
6418.06
6412.41
6406.43
6400.25
6393.98
6387.71
6381.56
6375.62
6369.98
6364.71
6359.88
6355.54
6351.72
6348.43
6345.68
6343.45
6341.74
6340.49
6339.66
6339.22
6339.11
6339.27
6339.66
6340.21
6340.88
6341.61
6342.36
6343.08
6343.73
6344.29
6344.72
6345.03
6345.19
5981.38
5981.27
5981.06
5980.76
5980.38
5979.92
5979.41
5978.87
5978.34
5977.86
5977.46
5977.19
5977.09
5977.23
5977.65
5978.4
5979.54
5981.12
5983.19
5985.77
5988.9
5992.58
5996.8
6001.54
6006.76
6012.41
6018.41
6024.67
6031.09
6037.56
6043.97
6050.19
6056.12
6061.69
6066.6
6070.87
6074.41
6077.14
6079
6079.96
6079.99
6079.09
6077.29
6074.61
6071.12
6066.85
6061.85
6056.35
6050.4
6044.11
6037.61
6031.01
6024.44
6018.01
6011.81
6005.95
6000.5
5995.53
5991.09
5987.21
5983.91
5981.18
5979.01
5977.38
5976.24
5975.55
5975.26
5975.31
5975.63
5976.18
5976.88
5977.69
5978.56
5979.43
5980.26
5981
5981.63
5982.12
5982.47
5982.64
5618.76
5618.63
5618.39
5618.05
5617.61
5617.07
5616.46
5615.8
5615.13
5614.5
5613.93
5613.47
5613.18
5613.13
5613.36
5613.93
5614.89
5616.32
5618.28
5620.8
5623.91
5627.63
5631.95
5636.85
5642.29
5648.21
5654.54
5661.17
5668.01
5674.91
5681.76
5688.43
5694.82
5700.75
5706.05
5710.65
5714.45
5717.39
5719.39
5720.43
5720.47
5719.51
5717.57
5714.7
5710.95
5706.37
5701.03
5695.11
5688.73
5682
5675.06
5668.02
5661.04
5654.21
5647.67
5641.51
5635.81
5630.66
5626.08
5622.13
5618.81
5616.12
5614.03
5612.51
5611.54
5611.04
5610.96
5611.23
5611.77
5612.53
5613.44
5614.45
5615.5
5616.54
5617.51
5618.38
5619.1
5619.66
5620.06
5620.26
5256.26
5256.1
5255.82
5255.43
5254.92
5254.28
5253.54
5252.74
5251.9
5251.06
5250.27
5249.58
5249.04
5248.73
5248.68
5248.99
5249.75
5251
5252.81
5255.24
5258.32
5262.08
5266.52
5271.62
5277.34
5283.62
5290.37
5297.49
5304.85
5312.32
5319.74
5326.98
5334
5340.41
5346.18
5351.2
5355.36
5358.56
5360.76
5361.89
5361.94
5360.89
5358.78
5355.65
5351.54
5346.58
5340.83
5334.37
5327.41
5320.11
5312.59
5304.99
5297.47
5290.14
5283.15
5276.6
5270.59
5265.19
5260.46
5256.42
5253.08
5250.45
5248.48
5247.13
5246.37
5246.12
5246.3
5246.87
5247.69
5248.72
5249.91
5251.17
5252.45
5253.7
5254.86
5255.87
5256.71
5257.36
5257.83
5258.07
4893.87
4893.68
4893.34
4892.9
4892.31
4891.56
4890.68
4889.7
4888.66
4887.58
4886.52
4885.53
4884.68
4884.06
4883.65
4883.65
4884.11
4885.12
4886.73
4889.03
4892.05
4895.85
4900.42
4905.76
4911.82
4918.54
4925.83
4933.55
4941.58
4949.76
4957.93
4965.95
4973.6
4980.68
4987.06
4992.61
4997.2
5000.76
5003.18
5004.44
5004.49
5003.34
5001.02
4997.56
4993.05
4987.56
4981.24
4974.2
4966.45
4958.44
4950.2
4941.9
4933.69
4925.73
4918.18
4911.15
4904.75
4899.06
4894.13
4890
4886.66
4884.1
4882.29
4881.18
4880.68
4880.74
4881.27
4882.19
4883.34
4884.75
4886.28
4887.86
4889.43
4890.94
4892.31
4893.5
4894.47
4895.22
4895.8
4896.07
4531.59
4531.35
4530.98
4530.49
4529.81
4528.94
4527.89
4526.72
4525.44
4524.08
4522.7
4521.35
4520.1
4519.04
4518.25
4517.85
4517.94
4518.61
4519.96
4522.08
4525.02
4528.84
4533.56
4539.18
4545.65
4552.91
4560.84
4569.31
4578.17
4587.23
4596.32
4605.25
4613.74
4621.63
4628.75
4634.95
4640.09
4644.06
4646.78
4648.18
4648.24
4646.97
4644.37
4640.52
4635.5
4629.38
4622.33
4614.49
4606
4597.02
4587.88
4578.69
4569.65
4560.93
4552.69
4545.07
4538.2
4532.16
4527.01
4522.78
4519.46
4517.02
4515.42
4514.59
4514.45
4514.9
4515.85
4517.17
4518.82
4520.66
4522.6
4524.56
4526.46
4528.26
4529.89
4531.3
4532.42
4533.26
4533.85
4534.26
4169.51
4169.26
4168.84
4168.23
4167.37
4166.31
4165.12
4163.79
4162.27
4160.6
4158.84
4157.05
4155.32
4153.73
4152.47
4151.58
4151.19
4151.44
4152.44
4154.29
4157.1
4160.93
4165.8
4171.74
4178.69
4186.59
4195.31
4204.69
4214.55
4224.68
4234.94
4244.93
4254.46
4263.34
4271.36
4278.34
4284.14
4288.62
4291.68
4293.26
4293.33
4291.89
4288.98
4284.65
4279
4272.13
4264.21
4255.41
4245.91
4235.87
4225.61
4215.35
4205.29
4195.63
4186.56
4178.25
4170.82
4164.37
4158.97
4154.64
4151.36
4149.1
4147.78
4147.33
4147.63
4148.58
4150.05
4151.94
4154.11
4156.46
4158.88
4161.28
4163.54
4165.62
4167.51
4169.19
4170.61
4171.67
4172.4
4172.81
3807.75
3807.53
3806.82
3805.56
3804.15
3803
3801.96
3800.78
3799.16
3797.17
3794.98
3792.7
3790.41
3788.23
3786.32
3784.8
3783.81
3783.51
3784.05
3785.56
3788.17
3791.96
3796.99
3803.28
3810.79
3819.45
3829.11
3839.58
3850.67
3862.11
3873.72
3885.02
3895.83
3905.9
3915
3922.93
3929.5
3934.57
3938.04
3939.84
3939.92
3938.29
3934.99
3930.07
3923.67
3915.91
3906.95
3897
3886.28
3875
3863.34
3851.81
3840.53
3829.74
3819.68
3810.52
3802.44
3795.54
3789.87
3785.45
3782.25
3780.23
3779.28
3779.3
3780.16
3781.72
3783.85
3786.42
3789.22
3792.18
3795.16
3798.02
3800.52
3802.56
3804.44
3806.3
3808.41
3810.29
3811.43
3811.86
3446.54
3446.05
3444.34
3441.69
3439.37
3438.16
3437.97
3437.51
3436.07
3433.83
3431.19
3428.33
3425.38
3422.47
3419.78
3417.48
3415.74
3414.75
3414.69
3415.74
3418.05
3421.75
3426.92
3433.59
3441.75
3451.29
3462.07
3473.87
3486.43
3499.5
3512.67
3525.57
3537.91
3549.41
3559.8
3568.84
3576.33
3582.11
3586.07
3588.11
3588.2
3586.35
3582.58
3576.99
3569.68
3560.86
3550.68
3539.35
3527.15
3514.33
3501.12
3488.01
3475.25
3463.11
3451.86
3441.72
3432.88
3425.46
3419.5
3415.03
3411.99
3410.29
3409.82
3410.43
3411.98
3414.29
3417.19
3420.5
3424.14
3427.84
3431.46
3434.74
3437.22
3438.67
3439.75
3441.87
3445.07
3448.56
3450.9
3451.68
3085.97
3084.91
3081.68
3077.52
3074.28
3073.08
3073.8
3074.23
3073.1
3070.65
3067.51
3063.99
3060.24
3056.47
3052.86
3049.6
3046.92
3045.05
3044.22
3044.65
3046.53
3050.06
3055.33
3062.41
3071.3
3081.89
3094
3107.37
3121.69
3136.77
3151.85
3166.65
3180.82
3194.01
3205.92
3216.27
3224.84
3231.46
3235.98
3238.31
3238.41
3236.29
3231.98
3225.59
3217.26
3207.16
3195.51
3182.56
3168.6
3153.94
3138.88
3123.87
3109.33
3095.57
3082.9
3071.61
3061.9
3053.89
3047.65
3043.16
3040.36
3039.1
3039.25
3040.62
3043.03
3046.26
3050.12
3054.41
3058.95
3063.49
3067.81
3071.55
3073.98
3074.79
3075.25
3077.54
3081.76
3086.88
3090.95
3092.41
2726.08
2724.48
2720.38
2715.61
2711.7
2710.29
2711.1
2711.67
2710.51
2707.77
2704.06
2699.77
2695.09
2690.28
2685.54
2681.12
2677.28
2674.3
2672.48
2672.09
2673.38
2676.6
2681.91
2689.42
2699.13
2710.95
2724.65
2739.91
2756.3
2773.93
2791.26
2808.32
2824.66
2839.85
2853.55
2865.45
2875.28
2882.86
2888.03
2890.69
2890.8
2888.36
2883.43
2876.1
2866.55
2854.97
2841.61
2826.75
2810.71
2793.86
2776.57
2759.28
2742.61
2726.9
2712.55
2699.9
2689.18
2680.54
2674.03
2669.59
2667.15
2666.5
2667.44
2669.76
2673.22
2677.58
2682.58
2688.04
2693.64
2699.18
2704.36
2708.72
2711.54
2712.56
2713.33
2716.14
2721.13
2726.99
2732.05
2734.16
2366.99
2365.15
2360.99
2356.23
2352.24
2350.32
2350.28
2350.2
2348.54
2345.29
2340.89
2335.69
2329.98
2323.95
2317.84
2311.99
2306.71
2302.35
2299.27
2297.8
2298.26
2301.03
2306.27
2314.17
2324.81
2338.09
2353.73
2371.3
2390.28
2410.75
2430.88
2450.68
2469.59
2487.15
2502.95
2516.62
2527.91
2536.6
2542.52
2545.56
2545.67
2542.87
2537.2
2528.8
2517.83
2504.53
2489.17
2472.07
2453.59
2434.13
2414.14
2394.14
2374.9
2356.85
2340.48
2326.21
2314.34
2305.03
2298.29
2294.02
2292.11
2292.25
2294.21
2297.7
2302.46
2308.17
2314.55
2321.33
2328.2
2334.93
2341.15
2346.42
2350.18
2352.32
2354.34
2358.02
2363.44
2369.45
2374.69
2377.16
2008.76
2006.9
2003.04
1998.49
1994.57
1992.09
1990.95
1989.71
1987.21
1983.27
1978.09
1971.93
1965
1957.54
1949.79
1942.18
1935.12
1929.03
1924.34
1921.5
1920.92
1922.9
1927.86
1936.11
1947.79
1962.81
1980.81
2001.25
2023.49
2047.12
2070.76
2093.86
2115.83
2136.17
2154.41
2170.12
2183.08
2193.04
2199.81
2203.28
2203.39
2200.15
2193.64
2183.99
2171.39
2156.1
2138.42
2118.71
2097.38
2074.84
2051.59
2028.33
2005.96
1985.06
1966.25
1950.06
1936.86
1926.86
1920.01
1916.13
1914.92
1916.1
1919.33
1924.29
1930.62
1937.96
1945.99
1954.32
1962.65
1970.69
1978.14
1984.6
1989.73
1993.54
1997.11
2001.75
2007.6
2013.72
2018.9
2021.49
1651.05
1649.22
1645.48
1641.01
1636.98
1634.02
1631.88
1629.59
1626.28
1621.69
1615.77
1608.59
1600.32
1591.19
1581.46
1571.71
1562.44
1554.18
1547.47
1542.8
1540.64
1541.62
1546.03
1554.47
1567.31
1584.45
1605.36
1629.32
1655.49
1683.24
1711.04
1738.09
1763.65
1787.21
1808.31
1826.35
1841.2
1852.57
1860.27
1864.2
1864.31
1860.58
1853.12
1842.04
1827.58
1809.99
1789.62
1766.9
1742.26
1716.07
1688.91
1661.66
1635.46
1611.08
1589.3
1570.8
1556.08
1545.39
1538.59
1535.24
1535.19
1537.76
1542.6
1549.37
1557.63
1566.95
1576.92
1587.06
1597.04
1606.55
1615.29
1622.99
1629.57
1635.02
1640.15
1645.88
1652.3
1658.81
1664.17
1666.88
1293.34
1291.48
1287.77
1283.24
1278.96
1275.49
1272.63
1269.62
1265.77
1260.6
1253.9
1245.63
1235.87
1224.81
1212.87
1200.5
1188.6
1177.7
1168.57
1161.7
1157.45
1156.89
1160.11
1168.34
1182.43
1202.17
1226.73
1255.06
1286.15
1318.9
1351.82
1383.61
1413.33
1440.59
1465.17
1485.67
1502.6
1515.54
1524.3
1528.74
1528.82
1524.55
1515.97
1503.26
1486.69
1466.53
1443.02
1416.88
1388.42
1357.94
1326.1
1293.94
1263.03
1234.38
1208.96
1187.66
1171.2
1159.95
1153.69
1151.27
1152.93
1157.16
1163.87
1172.76
1183.3
1194.95
1207.09
1219.31
1231.18
1242.35
1252.58
1261.71
1269.59
1276.42
1282.97
1289.88
1297.21
1304.28
1309.88
1312.68
934.853
932.955
929.336
924.807
920.255
916.257
912.74
909.069
904.85
899.186
891.782
882.446
871.139
858.056
843.665
828.614
813.704
799.64
787.677
778.466
772.588
769.052
769.65
776.719
792.138
815.076
844.207
877.875
914.85
953.92
993.306
1030.85
1065.15
1096.34
1124.2
1148.4
1167.92
1182.7
1192.65
1197.64
1197.68
1192.78
1182.91
1168.27
1149.18
1125.94
1098.77
1068.85
1036.22
1000.65
962.917
924.811
888.149
854.326
824.494
799.847
781.38
769.89
765.487
766.459
768.675
774.265
783.024
794.407
807.563
821.567
835.96
850.316
864.141
877.062
888.907
899.588
909.189
917.302
925.3
933.58
941.945
949.562
955.304
958.179
575.733
573.463
570.085
566.069
561.574
557.031
552.602
547.673
543.404
537.706
530.115
520.146
507.561
492.577
475.683
457.468
438.699
420.126
403.909
391.286
382.707
376.818
373.993
377.491
394.317
422.01
457.548
498.067
542.458
589.436
636.591
680.635
719.621
755.124
788.782
815.657
837.449
853.968
864.982
870.413
870.367
864.847
853.801
837.381
815.873
790.034
756.989
723.026
686.21
645.041
600.453
555.076
511.172
470.658
434.959
405.79
384.862
373.896
373.118
376.932
380.526
387.905
399.488
414.791
431.56
448.188
464.728
481.071
496.655
511.018
524.079
535.872
546.531
557.309
567.595
577.702
587.067
594.758
600.325
603.358
234.928
232.779
230.606
228.583
225.456
221.022
216.196
211.722
206.366
200.628
194.136
185.928
175.508
163.511
150.537
136.701
122.651
108.622
96.6974
86.7494
78.6953
73.188
71.2574
74.3453
83.418
101.081
126.461
156.934
193.96
237.962
286.394
335.507
379.21
415.352
452.276
485.344
511.02
530.033
542.633
548.737
548.49
541.919
528.895
509.426
483.446
449.111
415.563
381.285
340.506
294.558
248.51
205.515
167.588
136.165
110.786
92.1683
80.1956
74.2114
72.5647
74.7981
79.8288
86.8578
95.3341
105.621
117.586
129.627
141.707
154.1
166.193
177.321
187.595
197.63
207.48
217.331
227.721
238.05
247.132
253.978
258.312
260.833
32.1157
30.8558
29.9002
29.6056
28.7117
26.6205
23.811
20.9567
18.1235
15.6692
13.2841
10.2907
6.63714
2.96705
-0.465585
-3.62943
-6.21236
-7.38788
-7.82238
-8.34531
-8.77408
-8.99145
-9.01074
-8.8452
-8.34438
-6.90367
-3.3051
2.84754
12.818
28.2831
50.0283
79.8383
109.375
140.446
167.974
192.422
212.886
228.198
238.293
243.148
242.932
237.377
226.388
210.495
189.934
166.162
138.915
109.866
82.4263
53.9826
32.5989
16.6205
5.54771
-1.40794
-5.75986
-7.823
-8.60151
-8.95887
-9.10984
-9.14917
-9.09808
-8.94941
-8.72197
-8.46199
-7.54585
-5.25413
-2.53979
0.597709
3.97784
7.32039
10.5909
14.0285
17.9951
22.7155
27.9195
32.9005
37.1724
40.4037
42.2577
43.6601
-9.88402
-10.0008
-10.0168
-10.0324
-10.1132
-10.2595
-10.3466
-10.2801
-10.0851
-9.80073
-9.4775
-9.11115
-8.75355
-8.51275
-8.43779
-8.5073
-8.61633
-8.69727
-8.90853
-9.17261
-9.40029
-9.53847
-9.58376
-9.5924
-9.64937
-9.78744
-9.94309
-9.94422
-9.81784
-9.82687
-9.97104
-9.01396
-4.3718
1.69445
9.5928
19.0996
28.9366
37.187
42.9885
45.772
45.494
41.8593
35.0994
26.635
17.2668
8.32919
0.95829
-4.26856
-8.48809
-9.87622
-9.80983
-9.81759
-9.86379
-9.85725
-9.79869
-9.7303
-9.66681
-9.62107
-9.60664
-9.61234
-9.59821
-9.53354
-9.44257
-9.41282
-9.52684
-9.64593
-9.7265
-9.80766
-9.91714
-10.0078
-10.0482
-10.0033
-9.94214
-9.83248
-9.5763
-9.20086
-8.8057
-8.62974
-8.58694
-8.46825
-10.721
-10.7864
-10.7679
-10.6686
-10.6631
-10.7682
-10.928
-11.0304
-11.0073
-10.8065
-10.4046
-9.93707
-9.55227
-9.32878
-9.27224
-9.3557
-9.53856
-9.75209
-9.95259
-10.0975
-10.1689
-10.2068
-10.2298
-10.2487
-10.2879
-10.3594
-10.458
-10.5175
-10.5312
-10.7046
-11.1434
-11.6487
-11.6647
-11.4324
-11.3599
-11.3877
-11.427
-11.4487
-11.4594
-11.4669
-11.4934
-11.498
-11.4494
-11.3595
-11.2432
-11.1379
-11.1029
-11.1811
-11.178
-10.8867
-10.7094
-10.6192
-10.5343
-10.4406
-10.3035
-10.2308
-10.2363
-10.2393
-10.2357
-10.2319
-10.2089
-10.1568
-10.0979
-10.0743
-10.0989
-10.137
-10.1726
-10.2146
-10.2748
-10.3511
-10.4378
-10.4926
-10.4805
-10.3798
-10.1829
-9.88499
-9.53433
-9.35749
-9.33741
-9.2789
-11.3375
-11.3735
-11.327
-11.2687
-11.3345
-11.5519
-11.8531
-12.0795
-12.1157
-11.9139
-11.5
-10.9923
-10.5772
-10.3527
-10.3155
-10.4196
-10.6079
-10.8002
-10.9177
-10.9578
-10.9444
-10.9179
-10.9085
-10.9252
-10.9659
-11.0254
-11.097
-11.1655
-11.2334
-11.3956
-11.669
-11.9123
-12.0098
-11.8918
-11.7856
-11.7567
-11.7595
-11.7641
-11.7734
-11.7905
-11.8163
-11.8289
-11.8067
-11.7484
-11.6667
-11.5898
-11.5626
-11.5849
-11.5318
-11.4305
-11.3478
-11.2678
-11.1716
-11.0539
-10.9306
-10.89
-10.9384
-10.9821
-10.9865
-10.9553
-10.896
-10.8223
-10.7539
-10.7064
-10.686
-10.6847
-10.6938
-10.7099
-10.7341
-10.7687
-10.8417
-10.9487
-10.9997
-10.9472
-10.7834
-10.5275
-10.0997
-9.84434
-9.81787
-9.80466
-11.9399
-12.001
-11.9648
-11.9923
-12.2026
-12.5975
-12.992
-13.2031
-13.18
-12.9448
-12.5277
-12.0162
-11.6017
-11.3998
-11.3824
-11.4649
-11.571
-11.6508
-11.6724
-11.6445
-11.5997
-11.558
-11.539
-11.5499
-11.5891
-11.6505
-11.7234
-11.7941
-11.862
-11.9596
-12.0938
-12.2257
-12.2907
-12.24
-12.1715
-12.1489
-12.1595
-12.1788
-12.2046
-12.2386
-12.2715
-12.2801
-12.2499
-12.1859
-12.1147
-12.0637
-12.0521
-12.0544
-12.0162
-11.9689
-11.9296
-11.8698
-11.8049
-11.7252
-11.6647
-11.6692
-11.7021
-11.7079
-11.6794
-11.627
-11.5546
-11.4694
-11.3859
-11.3188
-11.2751
-11.2537
-11.2497
-11.26
-11.2854
-11.3271
-11.3823
-11.4544
-11.5067
-11.483
-11.3454
-11.1051
-10.7555
-10.4175
-10.3159
-10.291
-12.4735
-12.5453
-12.6017
-12.7584
-13.1247
-13.6092
-13.9707
-14.1038
-14.0429
-13.794
-13.3887
-12.9218
-12.5501
-12.3811
-12.344
-12.3568
-12.3665
-12.3542
-12.3203
-12.264
-12.207
-12.159
-12.1333
-12.1344
-12.1622
-12.2126
-12.2767
-12.3422
-12.4016
-12.462
-12.533
-12.6037
-12.6333
-12.6101
-12.5743
-12.5626
-12.578
-12.6109
-12.6533
-12.7076
-12.7526
-12.7639
-12.7303
-12.6545
-12.571
-12.5218
-12.5053
-12.4979
-12.4773
-12.4433
-12.4016
-12.3692
-12.3438
-12.3261
-12.3393
-12.3716
-12.382
-12.3608
-12.3171
-12.2561
-12.1784
-12.0889
-11.9987
-11.9238
-11.8721
-11.8437
-11.8346
-11.8408
-11.86
-11.8913
-11.9361
-11.9904
-12.0305
-12.0151
-11.8984
-11.6701
-11.3773
-11.0581
-10.8865
-10.8091
-12.9159
-13.0008
-13.1418
-13.4388
-13.9248
-14.4001
-14.6964
-14.791
-14.7196
-14.4744
-14.0847
-13.6611
-13.3515
-13.1915
-13.1233
-13.0871
-13.0486
-12.9918
-12.9221
-12.8486
-12.7835
-12.7348
-12.7077
-12.7042
-12.7242
-12.7626
-12.8114
-12.8632
-12.9115
-12.9552
-13.0002
-13.0406
-13.055
-13.0418
-13.0284
-13.0237
-13.0378
-13.0773
-13.1336
-13.2047
-13.2692
-13.2792
-13.2303
-13.1244
-13.0041
-12.9247
-12.8878
-12.8764
-12.854
-12.8271
-12.8032
-12.8025
-12.8223
-12.8673
-12.9301
-12.9741
-12.9764
-12.947
-12.8986
-12.8372
-12.7634
-12.6795
-12.5947
-12.5236
-12.475
-12.4482
-12.4394
-12.4446
-12.4616
-12.4894
-12.526
-12.5659
-12.5933
-12.5752
-12.4713
-12.2703
-12.0209
-11.7597
-11.5593
-11.4228
-13.3372
-13.4363
-13.6434
-14.0383
-14.5301
-14.9644
-15.2232
-15.3086
-15.2263
-14.9857
-14.6029
-14.2239
-13.9692
-13.8288
-13.764
-13.7155
-13.652
-13.5694
-13.4813
-13.3995
-13.3343
-13.2883
-13.2622
-13.2565
-13.2698
-13.2972
-13.3336
-13.3735
-13.411
-13.4447
-13.4778
-13.5071
-13.519
-13.514
-13.5134
-13.5182
-13.5298
-13.5611
-13.6146
-13.6819
-13.7361
-13.7389
-13.6765
-13.5502
-13.3973
-13.286
-13.2327
-13.2102
-13.2044
-13.1989
-13.2069
-13.244
-13.3094
-13.3934
-13.4696
-13.5083
-13.5045
-13.4715
-13.4267
-13.3735
-13.311
-13.2402
-13.1696
-13.1126
-13.0755
-13.0571
-13.0535
-13.062
-13.082
-13.1121
-13.1485
-13.184
-13.2037
-13.1806
-13.0847
-12.926
-12.7406
-12.5339
-12.3396
-12.1735
-13.7926
-13.8905
-14.1516
-14.5662
-15.0049
-15.3685
-15.595
-15.6582
-15.5696
-15.3103
-14.9463
-14.6379
-14.4383
-14.3422
-14.2932
-14.2455
-14.176
-14.0885
-13.9999
-13.923
-13.8636
-13.8228
-13.7989
-13.7911
-13.7976
-13.8153
-13.8407
-13.8699
-13.8984
-13.9242
-13.9494
-13.9734
-13.988
-13.9914
-13.9954
-14.0036
-14.0099
-14.0259
-14.0626
-14.1089
-14.1386
-14.1195
-14.0429
-13.9148
-13.7651
-13.6469
-13.5945
-13.5828
-13.5885
-13.6048
-13.6407
-13.7053
-13.7943
-13.8874
-13.9568
-13.9863
-13.9803
-13.9509
-13.9141
-13.8725
-13.8244
-13.7706
-13.7205
-13.6842
-13.6655
-13.662
-13.6714
-13.6927
-13.7266
-13.7713
-13.8186
-13.857
-13.8718
-13.8427
-13.7614
-13.6658
-13.5516
-13.4008
-13.2155
-13.0446
-14.253
-14.3496
-14.6359
-15.0213
-15.3983
-15.683
-15.8518
-15.8906
-15.767
-15.4897
-15.1844
-14.9551
-14.8264
-14.7696
-14.7391
-14.7014
-14.6402
-14.5638
-14.488
-14.4247
-14.3767
-14.3432
-14.3229
-14.314
-14.3161
-14.3267
-14.3436
-14.3639
-14.3844
-14.4018
-14.4177
-14.4368
-14.4565
-14.4709
-14.4788
-14.4795
-14.4718
-14.4704
-14.4873
-14.5119
-14.5177
-14.4773
-14.3866
-14.2663
-14.141
-14.042
-13.9979
-13.9993
-14.0195
-14.051
-14.0998
-14.1709
-14.2578
-14.3405
-14.3983
-14.4217
-14.4158
-14.3977
-14.3723
-14.3427
-14.3084
-14.2734
-14.2467
-14.2351
-14.2397
-14.2585
-14.2918
-14.339
-14.4015
-14.4737
-14.5395
-14.5831
-14.5909
-14.5549
-14.5227
-14.5025
-14.4406
-14.3212
-14.1442
-13.9706
-14.6974
-14.7919
-15.0535
-15.3873
-15.7074
-15.9325
-16.0367
-16.017
-15.8481
-15.6015
-15.3882
-15.2493
-15.1855
-15.1606
-15.1469
-15.12
-15.074
-15.0168
-14.9603
-14.9125
-14.8761
-14.852
-14.8365
-14.8305
-14.8314
-14.8385
-14.8505
-14.8658
-14.882
-14.8949
-14.9074
-14.9225
-14.9427
-14.9648
-14.9765
-14.9671
-14.94
-14.9229
-14.9233
-14.9381
-14.9307
-14.8758
-14.7774
-14.6629
-14.5608
-14.4846
-14.4502
-14.462
-14.4906
-14.5264
-14.5734
-14.6346
-14.7058
-14.7711
-14.8172
-14.8383
-14.8389
-14.8283
-14.8115
-14.7907
-14.7687
-14.7528
-14.7506
-14.7659
-14.7976
-14.8472
-14.9164
-15.0019
-15.1061
-15.213
-15.2979
-15.345
-15.3403
-15.3264
-15.3631
-15.3844
-15.3305
-15.2141
-15.0473
-14.853
-15.1738
-15.2327
-15.4147
-15.6684
-15.9156
-16.0791
-16.1199
-16.0463
-15.9013
-15.7498
-15.6353
-15.5812
-15.5625
-15.5581
-15.5537
-15.5373
-15.5073
-15.4698
-15.4328
-15.4012
-15.3769
-15.3601
-15.3498
-15.3457
-15.3471
-15.3533
-15.3635
-15.3776
-15.3944
-15.4128
-15.4315
-15.449
-15.4668
-15.4842
-15.4931
-15.4822
-15.4636
-15.4362
-15.4134
-15.406
-15.3912
-15.3306
-15.2274
-15.1173
-15.0293
-14.9711
-14.9433
-14.9575
-14.9866
-15.0181
-15.0544
-15.0993
-15.1507
-15.1986
-15.2334
-15.2511
-15.2539
-15.2471
-15.2347
-15.2203
-15.2108
-15.2144
-15.2364
-15.2785
-15.3412
-15.432
-15.5472
-15.6819
-15.844
-16.0027
-16.1113
-16.1528
-16.1534
-16.1731
-16.2187
-16.223
-16.1598
-16.0332
-15.8656
-15.5937
-15.7093
-15.7386
-15.8151
-15.9353
-16.0649
-16.1531
-16.1672
-16.126
-16.0727
-16.0172
-15.9851
-15.9759
-15.9783
-15.9821
-15.9828
-15.9744
-15.9572
-15.9351
-15.9129
-15.8935
-15.8783
-15.8679
-15.8622
-15.8611
-15.8645
-15.872
-15.8828
-15.897
-15.9159
-15.9401
-15.9659
-15.991
-16.0101
-16.0219
-16.0407
-16.068
-16.068
-16.0233
-15.9679
-15.929
-15.8942
-15.8271
-15.7196
-15.6127
-15.5328
-15.4864
-15.4623
-15.4708
-15.494
-15.5164
-15.5392
-15.5674
-15.6004
-15.6311
-15.6527
-15.6632
-15.6628
-15.6559
-15.6458
-15.6386
-15.6424
-15.6639
-15.7072
-15.7746
-15.8728
-16.0144
-16.1825
-16.3932
-16.6709
-16.913
-17.0466
-17.0739
-17.0584
-17.0381
-17.0214
-16.9766
-16.8847
-16.7194
-16.5248
-16.1608
-16.2642
-16.2666
-16.2725
-16.2978
-16.3357
-16.3705
-16.4049
-16.4199
-16.4151
-16.4111
-16.411
-16.4171
-16.4259
-16.433
-16.4367
-16.4338
-16.4252
-16.4134
-16.4009
-16.3898
-16.3812
-16.376
-16.3744
-16.3766
-16.3822
-16.3912
-16.4033
-16.4189
-16.4389
-16.4636
-16.492
-16.5204
-16.5402
-16.5542
-16.5912
-16.6569
-16.6776
-16.6207
-16.5298
-16.4752
-16.4259
-16.3455
-16.2315
-16.1264
-16.0509
-16.0122
-15.9915
-15.99
-16.0016
-16.0136
-16.0246
-16.0398
-16.0583
-16.073
-16.0801
-16.0794
-16.0742
-16.0655
-16.0578
-16.0576
-16.0721
-16.1066
-16.1658
-16.2555
-16.3935
-16.5852
-16.8112
-17.1579
-17.5622
-17.8497
-17.9801
-17.9864
-17.9142
-17.8223
-17.7302
-17.6317
-17.4876
-17.2695
-17.0005
-16.5879
-16.7733
-16.7734
-16.7572
-16.7576
-16.7741
-16.8014
-16.8283
-16.8483
-16.8584
-16.8633
-16.8714
-16.8823
-16.8928
-16.9022
-16.9078
-16.9087
-16.9057
-16.9004
-16.8943
-16.8889
-16.8853
-16.8843
-16.8864
-16.8913
-16.899
-16.9096
-16.9235
-16.9412
-16.9629
-16.9886
-17.0172
-17.0434
-17.0584
-17.0664
-17.0945
-17.1494
-17.1844
-17.1426
-17.0663
-17.02
-16.9725
-16.8744
-16.7476
-16.6419
-16.5716
-16.5344
-16.5145
-16.5011
-16.4984
-16.5005
-16.5023
-16.5108
-16.5207
-16.5242
-16.5195
-16.5104
-16.4996
-16.4885
-16.4819
-16.4861
-16.5058
-16.5461
-16.6139
-16.7228
-16.8995
-17.1304
-17.433
-17.9114
-18.3623
-18.6388
-18.7478
-18.7334
-18.6322
-18.4982
-18.3501
-18.1874
-17.9857
-17.702
-17.3422
-16.9276
-17.2715
-17.2692
-17.2541
-17.2547
-17.2672
-17.2831
-17.2981
-17.3122
-17.3237
-17.3347
-17.3472
-17.3599
-17.3717
-17.3819
-17.3891
-17.3929
-17.393
-17.3923
-17.3908
-17.3897
-17.3901
-17.3927
-17.3977
-17.4051
-17.415
-17.4278
-17.4439
-17.4641
-17.4879
-17.5147
-17.5439
-17.5672
-17.5728
-17.5664
-17.578
-17.6255
-17.664
-17.6434
-17.604
-17.5752
-17.5249
-17.3985
-17.2575
-17.1513
-17.0859
-17.0439
-17.0197
-16.9956
-16.981
-16.9757
-16.9772
-16.9796
-16.9813
-16.9759
-16.9625
-16.9499
-16.9375
-16.9271
-16.9224
-16.9279
-16.9472
-16.9862
-17.0548
-17.1776
-17.3787
-17.6366
-18.0189
-18.5507
-19.0108
-19.2848
-19.386
-19.3573
-19.2428
-19.0878
-18.902
-18.671
-18.4209
-18.0678
-17.5874
-17.2313
-17.7642
-17.7618
-17.7545
-17.7541
-17.7601
-17.7699
-17.7824
-17.7953
-17.8071
-17.819
-17.832
-17.845
-17.8572
-17.8676
-17.8757
-17.8815
-17.885
-17.8873
-17.8892
-17.8916
-17.8952
-17.9008
-17.9084
-17.9182
-17.9305
-17.9457
-17.9644
-17.9871
-18.0124
-18.0398
-18.0676
-18.085
-18.0839
-18.0814
-18.114
-18.1776
-18.2154
-18.1984
-18.1623
-18.1358
-18.0542
-17.8984
-17.7565
-17.6575
-17.5928
-17.5477
-17.5232
-17.4961
-17.4735
-17.4695
-17.4758
-17.473
-17.4574
-17.4326
-17.4111
-17.3989
-17.3909
-17.3842
-17.3817
-17.386
-17.4006
-17.4319
-17.4938
-17.6193
-17.8214
-18.0937
-18.509
-19.0331
-19.5066
-19.8095
-19.9267
-19.8996
-19.7837
-19.6177
-19.4033
-19.1217
-18.8003
-18.3447
-17.8034
-17.5842
-18.2576
-18.2576
-18.2541
-18.2546
-18.2592
-18.2665
-18.2758
-18.2863
-18.2974
-18.3093
-18.322
-18.3347
-18.3465
-18.357
-18.3659
-18.3732
-18.379
-18.384
-18.3887
-18.394
-18.4004
-18.4085
-18.4186
-18.4308
-18.4455
-18.4633
-18.4846
-18.5095
-18.5358
-18.5632
-18.5879
-18.6003
-18.6103
-18.6505
-18.727
-18.7932
-18.8041
-18.7672
-18.7208
-18.6673
-18.5382
-18.3793
-18.2487
-18.1585
-18.0939
-18.0519
-18.033
-18.0119
-17.9934
-17.993
-18.0014
-17.9931
-17.9539
-17.9073
-17.8818
-17.8721
-17.8669
-17.8634
-17.8613
-17.8625
-17.8694
-17.8894
-17.9394
-18.0506
-18.2332
-18.4943
-18.8778
-19.3653
-19.8377
-20.1828
-20.3492
-20.3515
-20.238
-20.0525
-19.7927
-19.4478
-19.0303
-18.5386
-18.1427
-18.0441
-18.7523
-18.7535
-18.7528
-18.7543
-18.7581
-18.7639
-18.7717
-18.7809
-18.7914
-18.8029
-18.8148
-18.8267
-18.8381
-18.8487
-18.8583
-18.8668
-18.8745
-18.8816
-18.8887
-18.8964
-18.9053
-18.9158
-18.9283
-18.9429
-18.96
-18.9803
-19.004
-19.0306
-19.0578
-19.0853
-19.1082
-19.1264
-19.1731
-19.2619
-19.3417
-19.3791
-19.3611
-19.2963
-19.2337
-19.1433
-18.998
-18.8508
-18.7338
-18.6452
-18.5799
-18.5455
-18.5324
-18.5205
-18.5142
-18.5194
-18.5259
-18.5042
-18.4504
-18.4011
-18.3775
-18.3697
-18.3663
-18.3628
-18.3591
-18.3568
-18.3573
-18.3661
-18.4006
-18.4865
-18.6359
-18.8599
-19.1809
-19.5907
-20.0042
-20.3392
-20.5322
-20.5709
-20.4547
-20.233
-19.9189
-19.524
-19.1024
-18.7603
-18.6043
-18.5775
-19.2474
-19.2489
-19.2507
-19.2532
-19.2569
-19.2622
-19.2691
-19.2775
-19.2871
-19.2977
-19.3088
-19.3201
-19.3311
-19.3418
-19.352
-19.3615
-19.3706
-19.3795
-19.3886
-19.3985
-19.4096
-19.4224
-19.4373
-19.4544
-19.474
-19.4966
-19.5224
-19.5499
-19.5781
-19.6054
-19.6263
-19.673
-19.7626
-19.8472
-19.8929
-19.8979
-19.8551
-19.7778
-19.6977
-19.5875
-19.4519
-19.3228
-19.2139
-19.1225
-19.06
-19.0372
-19.0347
-19.0267
-19.0211
-19.0299
-19.0255
-18.9922
-18.9443
-18.9089
-18.8923
-18.8853
-18.8808
-18.8769
-18.8726
-18.8683
-18.8648
-18.8664
-18.8875
-18.9486
-19.0628
-19.2447
-19.5059
-19.8231
-20.145
-20.3967
-20.5209
-20.5067
-20.3677
-20.1239
-19.814
-19.4924
-19.2325
-19.0931
-19.0738
-19.0944
-19.7432
-19.7448
-19.7482
-19.7514
-19.7553
-19.7604
-19.7668
-19.7745
-19.7834
-19.7931
-19.8035
-19.8142
-19.825
-19.8358
-19.8464
-19.8567
-19.867
-19.8775
-19.8884
-19.9001
-19.9133
-19.9283
-19.9456
-19.9652
-19.9872
-20.012
-20.0394
-20.0672
-20.0959
-20.1217
-20.1532
-20.2343
-20.3196
-20.3622
-20.3772
-20.3609
-20.3068
-20.2336
-20.1483
-20.0398
-19.9195
-19.8029
-19.6987
-19.6127
-19.5583
-19.5504
-19.555
-19.5476
-19.5296
-19.5244
-19.5083
-19.4786
-19.448
-19.4273
-19.4158
-19.4094
-19.4052
-19.4015
-19.3977
-19.3937
-19.3901
-19.3901
-19.4051
-19.4516
-19.5439
-19.6973
-19.9146
-20.171
-20.4146
-20.5839
-20.6331
-20.5533
-20.3851
-20.1578
-19.9037
-19.6875
-19.565
-19.5368
-19.5574
-19.5715
-20.2404
-20.2424
-20.246
-20.2494
-20.2534
-20.2584
-20.2644
-20.2715
-20.2797
-20.2888
-20.2986
-20.3088
-20.3194
-20.3302
-20.3411
-20.3522
-20.3634
-20.3751
-20.3876
-20.4011
-20.4161
-20.4334
-20.4531
-20.4753
-20.4995
-20.5264
-20.5548
-20.5823
-20.6109
-20.6337
-20.6836
-20.7704
-20.8164
-20.8286
-20.8265
-20.7994
-20.7525
-20.6901
-20.6107
-20.5127
-20.4042
-20.2974
-20.2046
-20.1434
-20.1224
-20.1251
-20.1167
-20.0832
-20.0452
-20.0247
-20.0043
-19.9819
-19.9631
-19.9503
-19.9424
-19.9374
-19.9344
-19.9321
-19.93
-19.9283
-19.9276
-19.931
-19.9479
-19.991
-20.0731
-20.2134
-20.404
-20.621
-20.8129
-20.9296
-20.9388
-20.8478
-20.6879
-20.4796
-20.2747
-20.1224
-20.0494
-20.0403
-20.0667
-20.0804
-20.7388
-20.7409
-20.7439
-20.7472
-20.7512
-20.7559
-20.7616
-20.7683
-20.7759
-20.7845
-20.7937
-20.8036
-20.814
-20.8247
-20.8359
-20.8475
-20.8596
-20.8724
-20.8862
-20.9012
-20.9182
-20.9379
-20.96
-20.9846
-21.0111
-21.0401
-21.0686
-21.0954
-21.1228
-21.1424
-21.1959
-21.2647
-21.2749
-21.2747
-21.2668
-21.2453
-21.211
-21.1585
-21.09
-21.0053
-20.9097
-20.816
-20.7533
-20.731
-20.7378
-20.743
-20.7033
-20.6214
-20.5629
-20.532
-20.511
-20.4948
-20.4831
-20.4753
-20.4703
-20.4673
-20.4659
-20.4653
-20.4655
-20.467
-20.4707
-20.4791
-20.5028
-20.5501
-20.634
-20.7568
-20.924
-21.1101
-21.2657
-21.3447
-21.3364
-21.2532
-21.1169
-20.9488
-20.786
-20.6682
-20.6089
-20.5908
-20.5926
-20.5973
-21.2373
-21.2394
-21.2418
-21.2448
-21.2486
-21.2531
-21.2585
-21.2647
-21.2719
-21.28
-21.2888
-21.2983
-21.3085
-21.3192
-21.3306
-21.3426
-21.3554
-21.3691
-21.384
-21.4005
-21.4196
-21.4417
-21.4663
-21.4932