/*--------------------------------*- C++ -*----------------------------------*\
| =========                 |                                                 |
| \\      /  F ield         | OpenFOAM: The Open Source CFD Toolbox           |
|  \\    /   O peration     | Version:  2412                                  |
|   \\  /    A nd           | Website:  www.openfoam.com                      |
|    \\/     M anipulation  |                                                 |
\*---------------------------------------------------------------------------*/
FoamFile
{
    version     2.0;
    format      ascii;
    arch        "LSB;label=32;scalar=64";
    class       surfaceScalarField;
    location    "7.1";
    object      phi;
}
// * * * * * * * * * * * * * * * * * * * * * * * * * * * * * * * * * * * * * //

dimensions      [0 3 -1 0 0 0 0];

oriented        oriented;

internalField   nonuniform List<scalar> 
12640
(
-6.80442e-06
6.80442e-06
-9.41641e-06
2.61201e-06
-9.33265e-06
-8.3337e-08
-7.91061e-06
-1.42144e-06
-6.21169e-06
-1.69838e-06
-4.84662e-06
-1.36464e-06
-4.05625e-06
-7.8993e-07
-3.9021e-06
-1.53687e-07
-4.21233e-06
3.10684e-07
-4.82429e-06
6.1219e-07
-5.60352e-06
7.79189e-07
-6.31916e-06
7.1576e-07
-6.94624e-06
6.26782e-07
-7.42986e-06
4.83724e-07
-7.80287e-06
3.73392e-07
-8.11848e-06
3.1558e-07
-8.45698e-06
3.38767e-07
-8.8735e-06
4.16974e-07
-9.50861e-06
6.35473e-07
-1.04395e-05
9.31201e-07
-1.17097e-05
1.27065e-06
-1.33486e-05
1.63935e-06
-1.53294e-05
1.98121e-06
-1.75763e-05
2.24707e-06
-2.00124e-05
2.43598e-06
-2.252e-05
2.50749e-06
-2.49508e-05
2.43085e-06
-2.71652e-05
2.21457e-06
-2.90144e-05
1.8493e-06
-3.0351e-05
1.33696e-06
-3.0915e-05
5.64221e-07
-3.06608e-05
-2.54451e-07
-2.94458e-05
-1.21571e-06
-2.72746e-05
-2.17215e-06
-2.40742e-05
-3.2012e-06
-2.00076e-05
-4.06686e-06
-1.5181e-05
-4.82667e-06
-9.67734e-06
-5.50395e-06
-3.71153e-06
-5.96606e-06
2.44251e-06
-6.15441e-06
8.5531e-06
-6.11121e-06
1.43901e-05
-5.83751e-06
1.96768e-05
-5.28711e-06
2.42561e-05
-4.57983e-06
2.80313e-05
-3.77566e-06
3.07556e-05
-2.72442e-06
3.24806e-05
-1.72479e-06
3.31974e-05
-7.16129e-07
3.29962e-05
2.0149e-07
3.18066e-05
1.18957e-06
2.99052e-05
1.9017e-06
2.74547e-05
2.45148e-06
2.46374e-05
2.81843e-06
2.16187e-05
3.01967e-06
1.85419e-05
3.07785e-06
1.55742e-05
2.96891e-06
1.28268e-05
2.74856e-06
1.04227e-05
2.40497e-06
8.40873e-06
2.01428e-06
6.77068e-06
1.63802e-06
5.57759e-06
1.19302e-06
4.73132e-06
8.46251e-07
4.16333e-06
5.68414e-07
3.77925e-06
3.85347e-07
3.46986e-06
3.11081e-07
3.13407e-06
3.37124e-07
2.7134e-06
4.21422e-07
2.23408e-06
4.79424e-07
1.713e-06
5.21005e-07
1.23589e-06
4.77727e-07
9.35731e-07
3.0116e-07
9.55159e-07
-1.91609e-08
1.51234e-06
-5.57564e-07
2.73194e-06
-1.21956e-06
4.60802e-06
-1.87553e-06
6.83158e-06
-2.22352e-06
8.70693e-06
-1.8758e-06
9.08484e-06
-3.77235e-07
6.61318e-06
2.47326e-06
6.61283e-06
-5.27266e-06
1.20776e-05
-3.86964e-06
1.20985e-06
1.9246e-06
-5.87655e-06
9.58172e-06
-9.07768e-06
1.73164e-05
-9.43242e-06
2.39558e-05
-8.00352e-06
2.8948e-05
-5.78145e-06
3.22382e-05
-3.44341e-06
3.39804e-05
-1.43123e-06
3.45364e-05
5.64704e-08
3.43314e-05
9.84002e-07
3.36581e-05
1.38951e-06
3.27871e-05
1.49815e-06
3.18219e-05
1.44913e-06
3.082e-05
1.37581e-06
2.9681e-05
1.45524e-06
2.83628e-05
1.65731e-06
2.67896e-05
1.99053e-06
2.48687e-05
2.55663e-06
2.25379e-05
3.26235e-06
1.9763e-05
4.04593e-06
1.65549e-05
4.84769e-06
1.29639e-05
5.57222e-06
9.05753e-06
6.15346e-06
4.94448e-06
6.54943e-06
7.57778e-07
6.69479e-06
-3.32775e-06
6.51706e-06
-7.15716e-06
6.0447e-06
-1.05091e-05
5.20163e-06
-1.32245e-05
4.05262e-06
-1.54011e-05
2.74078e-06
-1.67827e-05
1.12707e-06
-1.72413e-05
-7.56747e-07
-1.67814e-05
-2.63146e-06
-1.55209e-05
-4.4614e-06
-1.34547e-05
-6.13304e-06
-1.06755e-05
-7.606e-06
-7.38249e-06
-8.79725e-06
-3.70561e-06
-9.64348e-06
1.4722e-07
-1.00077e-05
3.95181e-06
-9.91605e-06
7.48275e-06
-9.36855e-06
1.06251e-05
-8.42939e-06
1.31473e-05
-7.10174e-06
1.48772e-05
-5.50494e-06
1.58132e-05
-3.65954e-06
1.57826e-05
-1.69394e-06
1.48023e-05
2.64264e-07
1.28816e-05
2.12279e-06
1.03482e-05
3.724e-06
7.07029e-06
5.18082e-06
3.18769e-06
6.33494e-06
-1.15462e-06
7.16141e-06
-5.74479e-06
7.61065e-06
-1.03969e-05
7.73085e-06
-1.49066e-05
7.4793e-06
-1.91383e-05
6.98079e-06
-2.30162e-05
6.28354e-06
-2.64466e-05
5.44556e-06
-2.93384e-05
4.53074e-06
-3.17748e-05
3.6307e-06
-3.37482e-05
2.8212e-06
-3.52794e-05
2.10091e-06
-3.65008e-05
1.60761e-06
-3.74874e-05
1.29791e-06
-3.83356e-05
1.18466e-06
-3.90664e-05
1.15153e-06
-3.96521e-05
1.06518e-06
-3.99683e-05
8.37771e-07
-3.97891e-05
2.9906e-07
-3.87864e-05
-7.01327e-07
-3.65384e-05
-2.26698e-06
-3.26838e-05
-4.4115e-06
-2.69972e-05
-6.905e-06
-1.9618e-05
-9.2542e-06
-1.11595e-05
-1.06825e-05
-2.85439e-06
-1.01803e-05
3.47855e-06
-6.70866e-06
5.1414e-06
8.09339e-07
1.17546e-05
-4.93477e-06
1.70128e-05
-2.06791e-06
-1.65608e-06
6.12254e-06
-1.40663e-05
1.68777e-05
-1.98326e-05
2.77783e-05
-2.0333e-05
3.72418e-05
-1.7467e-05
4.44857e-05
-1.30251e-05
4.94118e-05
-8.36902e-06
5.23067e-05
-4.32572e-06
5.36385e-05
-1.27461e-06
5.39328e-05
6.90186e-07
5.35679e-05
1.75489e-06
5.28224e-05
2.24417e-06
5.18461e-05
2.42614e-06
5.06693e-05
2.55232e-06
4.93069e-05
2.81726e-06
4.76681e-05
3.29568e-06
4.56825e-05
3.97597e-06
4.32877e-05
4.95157e-06
4.03898e-05
6.15999e-06
3.69602e-05
7.47524e-06
3.29921e-05
8.81608e-06
2.85546e-05
1.00106e-05
2.36586e-05
1.10505e-05
1.85124e-05
1.16967e-05
1.31964e-05
1.2012e-05
7.90682e-06
1.18082e-05
2.81456e-06
1.11387e-05
-1.93798e-06
9.95618e-06
-6.14064e-06
8.25812e-06
-9.54011e-06
6.14344e-06
-1.20422e-05
3.6318e-06
-1.37895e-05
9.92117e-07
-1.43698e-05
-2.05052e-06
-1.39709e-05
-4.85978e-06
-1.26303e-05
-7.47317e-06
-1.0448e-05
-9.7879e-06
-7.59306e-06
-1.16517e-05
-4.2925e-06
-1.29434e-05
-7.57058e-07
-1.35427e-05
2.7408e-06
-1.34138e-05
5.94862e-06
-1.25761e-05
8.61219e-06
-1.10925e-05
1.0523e-05
-9.01255e-06
1.15446e-05
-6.52734e-06
1.1589e-05
-3.70498e-06
1.05486e-05
-6.53627e-07
8.51741e-06
2.29593e-06
5.49031e-06
5.14968e-06
1.50913e-06
7.70403e-06
-3.20476e-06
9.89357e-06
-8.46767e-06
1.15973e-05
-1.40336e-05
1.27271e-05
-1.97885e-05
1.33654e-05
-2.54922e-05
1.34349e-05
-3.10051e-05
1.29934e-05
-3.61607e-05
1.21382e-05
-4.08391e-05
1.09637e-05
-4.49526e-05
9.56023e-06
-4.84737e-05
8.05201e-06
-5.14032e-05
6.55961e-06
-5.37816e-05
5.19847e-06
-5.57043e-05
4.02245e-06
-5.71434e-05
3.04574e-06
-5.83164e-05
2.46991e-06
-5.92167e-05
2.08406e-06
-5.98818e-05
1.8159e-06
-6.029e-05
1.47298e-06
-6.02804e-05
8.28517e-07
-5.95663e-05
-4.14448e-07
-5.77269e-05
-2.54039e-06
-5.42428e-05
-5.75101e-06
-4.8644e-05
-1.00099e-05
-4.06238e-05
-1.49252e-05
-3.03135e-05
-1.95656e-05
-1.85414e-05
-2.24551e-05
-6.98019e-06
-2.17406e-05
1.78404e-06
-1.54735e-05
4.91341e-06
-2.31989e-06
1.66678e-05
-5.92399e-06
2.29372e-05
-2.95177e-06
-4.62779e-06
6.52737e-06
-2.35455e-05
1.96228e-05
-3.29285e-05
3.31132e-05
-3.38239e-05
4.46372e-05
-2.89909e-05
5.307e-05
-2.14574e-05
5.84278e-05
-1.37262e-05
6.13296e-05
-7.22693e-06
6.25294e-05
-2.47383e-06
6.27179e-05
5.0232e-07
6.23781e-05
2.09551e-06
6.17841e-05
2.83788e-06
6.10647e-05
3.14621e-06
6.02648e-05
3.3525e-06
5.93135e-05
3.76905e-06
5.8086e-05
4.52375e-06
5.64325e-05
5.62953e-06
5.4255e-05
7.12914e-06
5.14654e-05
8.94989e-06
4.79849e-05
1.09564e-05
4.37756e-05
1.30261e-05
3.89058e-05
1.48812e-05
3.34886e-05
1.64687e-05
2.75794e-05
1.76072e-05
2.14266e-05
1.81662e-05
1.51676e-05
1.80691e-05
9.04373e-06
1.72643e-05
3.25791e-06
1.57428e-05
-1.97023e-06
1.3486e-05
-6.41479e-06
1.05869e-05
-9.92143e-06
7.13766e-06
-1.21725e-05
3.24317e-06
-1.35323e-05
-6.90658e-07
-1.36936e-05
-4.69897e-06
-1.27339e-05
-8.43387e-06
-1.07805e-05
-1.17428e-05
-7.93571e-06
-1.44983e-05
-4.57639e-06
-1.63043e-05
-9.4085e-07
-1.71796e-05
2.66571e-06
-1.70218e-05
5.97526e-06
-1.58872e-05
8.57802e-06
-1.36967e-05
1.02796e-05
-1.07151e-05
1.09397e-05
-7.1874e-06
1.04171e-05
-3.18237e-06
8.81197e-06
9.51248e-07
5.9327e-06
5.17545e-06
1.92981e-06
9.15344e-06
-3.06344e-06
1.26986e-05
-8.81823e-06
1.56498e-05
-1.51358e-05
1.7916e-05
-2.17473e-05
1.93393e-05
-2.84324e-05
2.0051e-05
-3.50047e-05
2.00077e-05
-4.12473e-05
1.92363e-05
-4.69763e-05
1.78676e-05
-5.20611e-05
1.60492e-05
-5.64191e-05
1.39193e-05
-5.99835e-05
1.1618e-05
-6.2798e-05
9.37626e-06
-6.49242e-05
7.32675e-06
-6.6468e-05
5.56781e-06
-6.75169e-05
4.09542e-06
-6.82408e-05
3.19367e-06
-6.87432e-05
2.58627e-06
-6.9103e-05
2.17624e-06
-6.93387e-05
1.70943e-06
-6.93168e-05
8.06425e-07
-6.87212e-05
-1.01094e-06
-6.70024e-05
-4.26017e-06
-6.34874e-05
-9.26573e-06
-5.74095e-05
-1.60863e-05
-4.81267e-05
-2.42068e-05
-3.56324e-05
-3.20588e-05
-2.11375e-05
-3.69477e-05
-7.18794e-06
-3.56887e-05
2.8159e-06
-2.54787e-05
5.99856e-06
-5.5008e-06
2.26656e-05
-7.91883e-06
3.08564e-05
-6.15693e-06
-6.38978e-06
4.16276e-06
-3.38657e-05
2.01546e-05
-4.89209e-05
3.73313e-05
-5.10007e-05
5.15762e-05
-4.32353e-05
6.09712e-05
-3.0852e-05
6.58717e-05
-1.86264e-05
6.76356e-05
-8.99049e-06
6.76049e-05
-2.4431e-06
6.68176e-05
1.28976e-06
6.58495e-05
3.0649e-06
6.50333e-05
3.65495e-06
6.44199e-05
3.76126e-06
6.39867e-05
3.78703e-06
6.35254e-05
4.23112e-06
6.28094e-05
5.24097e-06
6.16321e-05
6.80864e-06
5.98284e-05
8.93463e-06
5.72589e-05
1.15208e-05
5.38416e-05
1.43744e-05
4.94843e-05
1.73837e-05
4.42941e-05
2.00712e-05
3.83354e-05
2.2427e-05
3.17624e-05
2.41797e-05
2.47693e-05
2.51581e-05
1.76108e-05
2.52254e-05
1.05648e-05
2.43073e-05
3.87701e-06
2.24279e-05
-2.19682e-06
1.95583e-05
-7.38504e-06
1.57744e-05
-1.15468e-05
1.12985e-05
-1.43554e-05
6.0504e-06
-1.58969e-05
8.48956e-07
-1.61035e-05
-4.49391e-06
-1.49927e-05
-9.54553e-06
-1.25909e-05
-1.41446e-05
-9.29256e-06
-1.77962e-05
-5.25345e-06
-2.03431e-05
-8.60674e-07
-2.15723e-05
3.49446e-06
-2.13768e-05
7.51425e-06
-1.99063e-05
1.065e-05
-1.68315e-05
1.26825e-05
-1.27471e-05
1.35505e-05
-8.055e-06
1.29261e-05
-2.55783e-06
1.09394e-05
2.93852e-06
7.56937e-06
8.54634e-06
2.87923e-06
1.38437e-05
-2.92355e-06
1.85007e-05
-9.61225e-06
2.23374e-05
-1.68512e-05
2.51538e-05
-2.43965e-05
2.68839e-05
-3.20014e-05
2.76559e-05
-3.93931e-05
2.74003e-05
-4.63587e-05
2.62035e-05
-5.26301e-05
2.41409e-05
-5.80679e-05
2.14886e-05
-6.25639e-05
1.84162e-05
-6.60861e-05
1.51404e-05
-6.86669e-05
1.19573e-05
-7.03966e-05
9.05701e-06
-7.14034e-05
6.57556e-06
-7.19484e-05
4.64177e-06
-7.21629e-05
3.40938e-06
-7.23217e-05
2.74611e-06
-7.25887e-05
2.44464e-06
-7.30447e-05
2.16689e-06
-7.36286e-05
1.39144e-06
-7.40292e-05
-6.0943e-07
-7.35866e-05
-4.70156e-06
-7.12576e-05
-1.15931e-05
-6.56285e-05
-2.17147e-05
-5.52373e-05
-3.45982e-05
-3.97616e-05
-4.75344e-05
-2.13505e-05
-5.53583e-05
-4.47768e-06
-5.25634e-05
6.36118e-06
-3.63179e-05
8.11032e-06
-7.24913e-06
3.07756e-05
-1.1664e-05
4.25204e-05
-1.29246e-05
-5.1296e-06
-1.8409e-06
-4.49498e-05
1.87432e-05
-6.95051e-05
4.19366e-05
-7.41939e-05
6.05974e-05
-6.18958e-05
7.13406e-05
-4.1595e-05
7.50698e-05
-2.2356e-05
7.45421e-05
-8.46284e-06
7.21882e-05
-8.86179e-08
6.95516e-05
3.92716e-06
6.74482e-05
5.16954e-06
6.61719e-05
4.93253e-06
6.56515e-05
4.28289e-06
6.55232e-05
3.9177e-06
6.55449e-05
4.21175e-06
6.54903e-05
5.29712e-06
6.49342e-05
7.366e-06
6.36016e-05
1.0268e-05
6.13139e-05
1.38087e-05
5.79478e-05
1.77406e-05
5.34258e-05
2.19057e-05
4.78366e-05
2.56603e-05
4.12451e-05
2.9018e-05
3.38706e-05
3.15534e-05
2.59435e-05
3.30844e-05
1.77664e-05
3.34028e-05
9.68387e-06
3.23906e-05
1.97957e-06
3.01328e-05
-4.98161e-06
2.65194e-05
-1.09276e-05
2.17198e-05
-1.54207e-05
1.57913e-05
-1.88266e-05
9.45671e-06
-2.04778e-05
2.50101e-06
-2.04526e-05
-4.51806e-06
-1.87465e-05
-1.1251e-05
-1.57852e-05
-1.71057e-05
-1.15186e-05
-2.20625e-05
-6.32395e-06
-2.55369e-05
-6.88854e-07
-2.72064e-05
4.88089e-06
-2.69459e-05
9.95195e-06
-2.4977e-05
1.39907e-05
-2.08703e-05
1.68971e-05
-1.5654e-05
1.81994e-05
-9.3578e-06
1.77751e-05
-2.13447e-06
1.55475e-05
5.16492e-06
1.18625e-05
1.22304e-05
6.51645e-06
1.91891e-05
-1.12409e-07
2.51293e-05
-7.72262e-06
2.99479e-05
-1.60378e-05
3.34698e-05
-2.47218e-05
3.55687e-05
-3.3409e-05
3.63434e-05
-4.17476e-05
3.57384e-05
-4.95653e-05
3.402e-05
-5.64865e-05
3.10605e-05
-6.2345e-05
2.73456e-05
-6.70356e-05
2.31057e-05
-7.04925e-05
1.85969e-05
-7.27849e-05
1.425e-05
-7.40367e-05
1.03095e-05
-7.44121e-05
6.9517e-06
-7.43008e-05
4.53103e-06
-7.39441e-05
3.0533e-06
-7.37339e-05
2.53699e-06
-7.39997e-05
2.71204e-06
-7.49344e-05
3.10254e-06
-7.66266e-05
3.0835e-06
-7.89155e-05
1.67887e-06
-8.09162e-05
-2.7008e-06
-8.09847e-05
-1.15242e-05
-7.65181e-05
-2.61815e-05
-6.46251e-05
-4.64915e-05
-4.44477e-05
-6.7711e-05
-1.96653e-05
-8.0141e-05
2.16328e-06
-7.43932e-05
1.3677e-05
-4.78281e-05
1.19926e-05
-5.56604e-06
4.27705e-05
-1.73056e-05
5.98258e-05
-2.00838e-05
-2.35175e-06
-2.20367e-06
-6.28302e-05
2.86344e-05
-0.000100343
5.8454e-05
-0.000104013
7.86563e-05
-8.20981e-05
8.76172e-05
-5.05556e-05
8.77763e-05
-2.25151e-05
8.31336e-05
-3.81979e-06
7.70394e-05
6.00589e-06
7.16353e-05
9.33243e-06
6.79999e-05
8.80559e-06
6.62055e-05
6.72865e-06
6.5885e-05
4.60367e-06
6.63214e-05
3.48167e-06
6.72429e-05
3.2906e-06
6.80596e-05
4.48064e-06
6.83387e-05
7.08719e-06
6.76727e-05
1.09348e-05
6.57739e-05
1.57086e-05
6.24906e-05
2.10253e-05
5.77764e-05
2.66213e-05
5.16849e-05
3.17533e-05
4.43297e-05
3.63752e-05
3.59373e-05
3.99478e-05
2.68134e-05
4.22103e-05
1.73401e-05
4.28781e-05
7.90659e-06
4.18256e-05
-1.06019e-06
3.91011e-05
-9.17196e-06
3.46325e-05
-1.60252e-05
2.85737e-05
-2.1507e-05
2.12731e-05
-2.50692e-05
1.3018e-05
-2.66934e-05
4.12354e-06
-2.63832e-05
-4.83009e-06
-2.42088e-05
-1.34269e-05
-2.01188e-05
-2.11969e-05
-1.44552e-05
-2.77271e-05
-7.72969e-06
-3.22632e-05
-4.15438e-07
-3.45215e-05
6.86875e-06
-3.42311e-05
1.3395e-05
-3.1504e-05
1.88221e-05
-2.62981e-05
2.25279e-05
-1.93598e-05
2.42611e-05
-1.10909e-05
2.43031e-05
-2.17618e-06
2.20245e-05
7.44427e-06
1.75479e-05
1.67077e-05
1.16718e-05
2.50659e-05
4.06686e-06
3.27348e-05
-4.75881e-06
3.87741e-05
-1.43916e-05
4.31027e-05
-2.44656e-05
4.56423e-05
-3.44784e-05
4.63557e-05
-4.41416e-05
4.54014e-05
-5.30347e-05
4.29134e-05
-6.07636e-05
3.87903e-05
-6.71053e-05
3.36886e-05
-7.20615e-05
2.80636e-05
-7.5402e-05
2.19391e-05
-7.72898e-05
1.61391e-05
-7.78605e-05
1.08813e-05
-7.74443e-05
6.53634e-06
-7.63692e-05
3.45603e-06
-7.51315e-05
1.81505e-06
-7.42595e-05
1.66424e-06
-7.43461e-05
2.79815e-06
-7.57574e-05
4.51341e-06
-7.90644e-05
6.39055e-06
-8.41312e-05
6.74706e-06
-9.00067e-05
3.17684e-06
-9.44888e-05
-7.04047e-06
-9.40198e-05
-2.66496e-05
-8.4523e-05
-5.59869e-05
-6.33044e-05
-8.89282e-05
-3.17285e-05
-0.000111716
1.30281e-06
-0.000107423
2.04942e-05
-6.70173e-05
1.7957e-05
-3.03072e-06
6.0728e-05
-1.98768e-05
7.97026e-05
-7.68098e-06
-1.45481e-05
4.19426e-05
-0.000112454
9.68266e-05
-0.000155227
0.000128367
-0.000135553
0.000132381
-8.61118e-05
0.000121565
-3.97391e-05
0.000107225
-8.17467e-06
9.35259e-05
9.88058e-06
8.1552e-05
1.79798e-05
7.25348e-05
1.83505e-05
6.70352e-05
1.43043e-05
6.48357e-05
8.92849e-06
6.50747e-05
4.36489e-06
6.67091e-05
1.84723e-06
6.90038e-05
9.95851e-07
7.11839e-05
2.30102e-06
7.26347e-05
5.63719e-06
7.29009e-05
1.06698e-05
7.1572e-05
1.70388e-05
6.84447e-05
2.41535e-05
6.35519e-05
3.15148e-05
5.67736e-05
3.85318e-05
4.8405e-05
4.47438e-05
3.86796e-05
4.9673e-05
2.80543e-05
5.28354e-05
1.69151e-05
5.40175e-05
5.78041e-06
5.29598e-05
-4.78907e-06
4.96697e-05
-1.43917e-05
4.4234e-05
-2.24778e-05
3.66583e-05
-2.88201e-05
2.76141e-05
-3.28968e-05
1.70943e-05
-3.4673e-05
5.89973e-06
-3.40786e-05
-5.42432e-06
-3.1018e-05
-1.64873e-05
-2.55381e-05
-2.66768e-05
-1.81429e-05
-3.51225e-05
-9.46601e-06
-4.09401e-05
-7.03048e-08
-4.39171e-05
9.30012e-06
-4.36015e-05
1.77298e-05
-3.99335e-05
2.48612e-05
-3.34302e-05
2.99175e-05
-2.44162e-05
3.25606e-05
-1.37345e-05
3.2428e-05
-2.04455e-06
3.02847e-05
9.58715e-06
2.54273e-05
2.15652e-05
1.81981e-05
3.22953e-05
9.32147e-06
4.16116e-05
-1.08016e-06
4.91758e-05
-1.24529e-05
5.44757e-05
-2.42825e-05
5.74727e-05
-3.61044e-05
5.81787e-05
-4.73261e-05
5.66248e-05
-5.75063e-05
5.30956e-05
-6.62849e-05
4.75711e-05
-7.33847e-05
4.07902e-05
-7.8532e-05
3.32118e-05
-8.17578e-05
2.5165e-05
-8.305e-05
1.74311e-05
-8.26758e-05
1.05062e-05
-8.10102e-05
4.87043e-06
-7.85379e-05
9.84094e-07
-7.58999e-05
-8.22108e-07
-7.38356e-05
-3.9867e-07
-7.32008e-05
2.16464e-06
-7.50216e-05
6.33485e-06
-8.00422e-05
1.14114e-05
-8.89849e-05
1.569e-05
-0.000101085
1.5277e-05
-0.000115409
7.28279e-06
-0.000131177
-1.0882e-05
-0.000143785
-4.3378e-05
-0.000140399
-9.23146e-05
-0.000107147
-0.000144969
-4.83767e-05
-0.000166192
5.79994e-06
-0.000121197
2.01037e-05
-1.73319e-05
8.08315e-05
-7.64026e-06
8.73426e-05
5.9217e-05
-8.14058e-05
0.000169739
-0.000222976
0.000256959
-0.000242446
0.000284103
-0.000162696
0.000251542
-5.355e-05
0.000191437
2.03661e-05
0.000139591
4.36718e-05
0.000105434
4.40382e-05
8.37779e-05
3.96363e-05
7.01993e-05
3.19305e-05
6.31356e-05
2.13686e-05
6.14425e-05
1.06215e-05
6.28552e-05
2.95273e-06
6.64659e-05
-1.76257e-06
7.08622e-05
-3.39944e-06
7.50333e-05
-1.86909e-06
7.81908e-05
2.48039e-06
7.97469e-05
9.11392e-06
7.92606e-05
1.75249e-05
7.64164e-05
2.69973e-05
7.12115e-05
3.6719e-05
6.36475e-05
4.60949e-05
5.39486e-05
5.44413e-05
4.25702e-05
6.10496e-05
2.99413e-05
6.54619e-05
1.66721e-05
6.72841e-05
3.40059e-06
6.62293e-05
-9.23505e-06
6.23045e-05
-2.06457e-05
5.5645e-05
-3.04137e-05
4.64275e-05
-3.79768e-05
3.51782e-05
-4.26833e-05
2.18015e-05
-4.47428e-05
7.95935e-06
-4.36722e-05
-6.49495e-06
-3.93815e-05
-2.0778e-05
-3.25514e-05
-3.35068e-05
-2.32355e-05
-4.4438e-05
-1.19121e-05
-5.22631e-05
3.98177e-07
-5.62273e-05
1.26108e-05
-5.58142e-05
2.36973e-05
-5.10198e-05
3.26891e-05
-4.24223e-05
3.89861e-05
-3.07129e-05
4.28019e-05
-1.75494e-05
4.32239e-05
-2.46615e-06
4.01957e-05
1.26151e-05
3.48546e-05
2.69057e-05
2.64514e-05
4.06976e-05
1.5832e-05
5.22304e-05
3.35961e-06
6.16481e-05
-1.02285e-05
6.80641e-05
-2.43613e-05
7.16058e-05
-3.84154e-05
7.22329e-05
-5.16903e-05
6.98995e-05
-6.35653e-05
6.49696e-05
-7.36781e-05
5.76823e-05
-8.15923e-05
4.87027e-05
-8.70083e-05
3.86263e-05
-9.00205e-05
2.81764e-05
-9.04913e-05
1.79021e-05
-8.87983e-05
8.81415e-06
-8.53892e-05
1.46324e-06
-8.0875e-05
-3.52818e-06
-7.6079e-05
-5.61689e-06
-7.19861e-05
-4.49119e-06
-6.987e-05
4.81366e-08
-7.11543e-05
7.61858e-06
-7.78371e-05
1.80944e-05
-9.1293e-05
2.91463e-05
-0.000113662
3.76454e-05
-0.000150114
4.37348e-05
-0.000205938
4.49421e-05
-0.000269739
2.04223e-05
-0.000303705
-5.83483e-05
-0.000275573
-0.0001731
-0.000184299
-0.000257464
-6.66685e-05
-0.000238831
6.17456e-06
-9.01731e-05
8.70052e-05
3.32874e-05
5.40547e-05
0.000177303
-0.000225421
0.000334654
-0.000380326
0.000433013
-0.000340804
0.000449955
-0.000179638
0.000391299
5.10636e-06
0.000285102
0.000126563
0.000183259
0.000145515
0.000115975
0.000111324
7.95815e-05
7.60313e-05
6.1505e-05
5.00078e-05
5.42833e-05
2.8592e-05
5.43205e-05
1.05851e-05
5.86237e-05
-1.34991e-06
6.53868e-05
-8.52533e-06
7.28579e-05
-1.08706e-05
7.98281e-05
-8.83953e-06
8.53374e-05
-3.02949e-06
8.86454e-05
5.80528e-06
8.92538e-05
1.69156e-05
8.68449e-05
2.94053e-05
8.12708e-05
4.22924e-05
7.27032e-05
5.4662e-05
6.13985e-05
6.57457e-05
4.78492e-05
7.45987e-05
3.27898e-05
8.05219e-05
1.67347e-05
8.33397e-05
7.06175e-07
8.22584e-05
-1.45743e-05
7.75853e-05
-2.83378e-05
6.94077e-05
-4.00992e-05
5.81878e-05
-4.87318e-05
4.381e-05
-5.48776e-05
2.79468e-05
-5.72733e-05
1.0355e-05
-5.56117e-05
-8.15608e-06
-5.06798e-05
-2.57093e-05
-4.18305e-05
-4.23557e-05
-2.97611e-05
-5.65067e-05
-1.50731e-05
-6.69501e-05
1.09017e-06
-7.23891e-05
1.70952e-05
-7.18175e-05
3.1286e-05
-6.52091e-05
4.28804e-05
-5.40156e-05
5.12911e-05
-3.91239e-05
5.56567e-05
-2.19164e-05
5.64864e-05
-3.29711e-06
5.34681e-05
1.56331e-05
4.64288e-05
3.39453e-05
3.65631e-05
5.05641e-05
2.35822e-05
6.52118e-05
8.64676e-06
7.65837e-05
-7.7182e-06
8.44285e-05
-2.47926e-05
8.86792e-05
-4.16734e-05
8.91129e-05
-5.75149e-05
8.57408e-05
-7.15364e-05
7.89917e-05
-8.32713e-05
6.94189e-05
-9.22234e-05
5.76573e-05
-9.80729e-05
4.44787e-05
-0.000100611
3.07167e-05
-0.000100045
1.73382e-05
-9.65647e-05
5.33478e-06
-9.07594e-05
-4.34126e-06
-8.33609e-05
-1.09261e-05
-7.53553e-05
-1.36219e-05
-6.79913e-05
-1.18544e-05
-6.29378e-05
-5.00439e-06
-6.20838e-05
6.76567e-06
-6.87172e-05
2.47289e-05
-8.66632e-05
4.7093e-05
-0.00012417
7.51515e-05
-0.000194375
0.00011394
-0.000299893
0.000150461
-0.000408525
0.000129054
-0.000468022
1.14797e-06
-0.000452999
-0.000188124
-0.000353995
-0.000356471
-0.000190666
-0.000402159
-3.78751e-05
-0.000242966
4.91292e-05
9.26106e-05
-3.85563e-05
0.000272517
-0.000405326
0.000408756
-0.000516563
0.00047511
-0.000407158
0.000477463
-0.000181991
0.00041601
6.65589e-05
0.000308656
0.000233918
0.000193838
0.000260335
0.000108453
0.000196709
6.15912e-05
0.000122894
4.20923e-05
6.95063e-05
3.80099e-05
3.2674e-05
4.24325e-05
6.16164e-06
5.1663e-05
-1.05813e-05
6.31573e-05
-2.00206e-05
7.4998e-05
-2.27123e-05
8.57443e-05
-1.95868e-05
9.43591e-05
-1.16452e-05
0.000100018
1.46022e-07
0.000102109
1.48252e-05
0.000100276
3.12388e-05
9.4327e-05
4.82426e-05
8.44087e-05
6.45821e-05
7.09929e-05
7.91637e-05
5.47757e-05
9.08173e-05
3.66181e-05
9.86802e-05
1.71352e-05
0.000102822
-2.39086e-06
0.000101783
-2.11386e-05
9.63326e-05
-3.79589e-05
8.62283e-05
-5.22856e-05
7.25152e-05
-6.30959e-05
5.46211e-05
-7.0047e-05
3.4899e-05
-7.22842e-05
1.2593e-05
-7.09807e-05
-9.4588e-06
-6.46727e-05
-3.20164e-05
-5.33912e-05
-5.36363e-05
-3.82228e-05
-7.16745e-05
-1.90814e-05
-8.60915e-05
2.06905e-06
-9.35404e-05
2.3107e-05
-9.28565e-05
4.16047e-05
-8.37094e-05
5.61072e-05
-6.85198e-05
6.63976e-05
-4.94141e-05
7.20364e-05
-2.75542e-05
7.27926e-05
-4.05219e-06
6.93955e-05
1.90311e-05
6.11962e-05
4.2145e-05
4.91285e-05
6.26322e-05
3.33291e-05
8.10119e-05
1.50402e-05
9.4874e-05
-5.0361e-06
0.000104507
-2.56399e-05
0.000109285
-4.5825e-05
0.0001093
-6.50244e-05
0.000104942
-8.17407e-05
9.57096e-05
-9.55821e-05
8.32619e-05
-0.000105895
6.79708e-05
-0.000112109
5.06931e-05
-0.00011421
3.28177e-05
-0.00011217
1.5298e-05
-0.000106347
-4.88731e-07
-9.73578e-05
-1.33299e-05
-8.60408e-05
-2.22424e-05
-7.35524e-05
-2.61101e-05
-6.12136e-05
-2.41934e-05
-5.09673e-05
-1.52509e-05
-4.55958e-05
1.3942e-06
-4.84515e-05
2.75846e-05
-6.71307e-05
6.57712e-05
-0.00011388
0.000121899
-0.000199313
0.000199373
-0.000313672
0.000264818
-0.000420265
0.000235646
-0.000484324
6.52072e-05
-0.000486961
-0.000185484
-0.000424989
-0.000418443
-0.00028789
-0.000539254
-0.000100142
-0.000430712
-5.10118e-05
0.000127348
-0.000165904
0.000253891
-0.000531868
0.000306938
-0.000569609
0.000316147
-0.000416367
0.000297716
-0.00016356
0.000251377
0.000112898
0.000185122
0.000300173
0.000110439
0.000335018
4.93078e-05
0.00025784
1.61155e-05
0.000156085
6.75482e-06
7.88665e-05
1.20175e-05
2.74111e-05
2.47842e-05
-6.60516e-06
4.181e-05
-2.76071e-05
6.00704e-05
-3.82809e-05
7.76543e-05
-4.02956e-05
9.32962e-05
-3.52276e-05
0.000105889
-2.42369e-05
0.000114541
-8.50407e-06
0.000118534
1.08331e-05
0.0001174
3.2374e-05
0.000110967
5.46752e-05
9.94492e-05
7.60997e-05
8.3442e-05
9.517e-05
6.37424e-05
0.000110516
4.14217e-05
0.000121
1.79928e-05
0.000126251
-6.0587e-06
0.000125835
-2.90942e-05
0.000119368
-4.95021e-05
0.000106636
-6.63663e-05
8.9379e-05
-7.99967e-05
6.82512e-05
-8.81312e-05
4.30332e-05
-9.18463e-05
1.63079e-05
-8.98933e-05
-1.14119e-05
-8.18951e-05
-4.00154e-05
-6.86382e-05
-6.68944e-05
-4.89317e-05
-9.13823e-05
-2.42745e-05
-0.00011075
3.28106e-06
-0.000121097
3.02934e-05
-0.000119868
5.41146e-05
-0.00010753
7.25385e-05
-8.6943e-05
8.54536e-05
-6.2329e-05
9.19058e-05
-3.40065e-05
9.307e-05
-5.216e-06
8.80832e-05
2.40189e-05
7.88104e-05
5.14193e-05
6.38029e-05
7.76413e-05
4.51384e-05
9.96776e-05
2.27981e-05
0.000117214
-1.67919e-06
0.000128983
-2.71703e-05
0.000134775
-5.17126e-05
0.000133841
-7.47798e-05
0.000128008
-9.49099e-05
0.000115838
-0.000111371
9.97221e-05
-0.000123348
7.99458e-05
-0.000130251
5.75951e-05
-0.000131658
3.42247e-05
-0.000127691
1.13317e-05
-0.000118855
-9.32472e-06
-0.000105759
-2.64249e-05
-8.93594e-05
-3.86422e-05
-7.08991e-05
-4.45702e-05
-5.15744e-05
-4.35175e-05
-3.33907e-05
-3.34335e-05
-1.88155e-05
-1.31796e-05
-1.1616e-05
2.03859e-05
-1.84335e-05
7.25893e-05
-4.85279e-05
0.000151994
-0.000106294
0.000257141
-0.000177719
0.000336244
-0.000242075
0.000300003
-0.000289726
0.000112857
-0.000314843
-0.000160367
-0.00031354
-0.000419746
-0.000265619
-0.000587179
-0.000135425
-0.000560907
-0.000186438
8.99689e-05
-0.000255872
0.000109197
-0.000551095
7.10602e-05
-0.000531472
2.61719e-05
-0.000371479
-5.04143e-06
-0.000132347
-2.34355e-05
0.000131292
-3.90421e-05
0.000315779
-5.22317e-05
0.000348207
-5.91639e-05
0.000264773
-5.71676e-05
0.000154089
-4.46364e-05
6.63357e-05
-2.33741e-05
6.14863e-06
2.47885e-06
-3.24578e-05
3.0156e-05
-5.52838e-05
5.77668e-05
-6.58909e-05
8.34104e-05
-6.59383e-05
0.000105298
-5.71146e-05
0.000122861
-4.17998e-05
0.000135259
-2.0902e-05
0.000141725
4.36703e-06
0.000141452
3.26456e-05
0.0001343
6.18269e-05
0.000120536
8.98632e-05
0.000100909
0.000114796
7.65994e-05
0.000134826
4.91581e-05
0.000148442
2.00167e-05
0.000155392
-9.29704e-06
0.000155149
-3.75299e-05
0.000147601
-6.3229e-05
0.000132335
-8.47332e-05
0.000110883
-0.000100707
8.42245e-05
-0.000110709
5.30352e-05
-0.000114577
2.01745e-05
-0.000111537
-1.44518e-05
-0.000102253
-4.92985e-05
-8.53431e-05
-8.38042e-05
-6.0298e-05
-0.000116427
-2.98258e-05
-0.000141222
4.49048e-06
-0.000155413
3.83383e-05
-0.000153717
6.77032e-05
-0.000136896
9.11028e-05
-0.000110343
0.000106708
-7.79337e-05
0.000115261
-4.25595e-05
0.000117022
-6.97737e-06
0.000111743
2.9297e-05
0.000100162
6.29992e-05
8.21973e-05
9.56051e-05
5.86849e-05
0.000123189
3.08936e-05
0.000145005
3.95787e-07
0.000159481
-3.06598e-05
0.000165831
-6.10031e-05
0.000164185
-8.89781e-05
0.000155984
-0.000113674
0.000140534
-0.000133689
0.000119737
-0.000148006
9.42639e-05
-0.000155756
6.53461e-05
-0.000156407
3.48762e-05
-0.000150013
4.93844e-06
-0.000137229
-2.2108e-05
-0.000118865
-4.47886e-05
-9.60913e-05
-6.14154e-05
-6.94418e-05
-7.12191e-05
-4.05794e-05
-7.23789e-05
-1.10284e-05
-6.29832e-05
1.6709e-05
-4.0916e-05
4.05052e-05
-3.40999e-06
5.64001e-05
5.66946e-05
6.34242e-05
0.000144972
6.24439e-05
0.000258122
5.53282e-05
0.000343359
4.29534e-05
0.000312377
2.34487e-05
0.000132361
-1.2252e-05
-0.000124668
-6.71176e-05
-0.000364879
-0.000112874
-0.000541423
-9.51145e-05
-0.000578666
-0.000281552
3.37608e-06
-0.000259247
-7.20922e-05
-0.000475626
-0.000167421
-0.000436144
-0.00025109
-0.00028781
-0.000306276
-7.71609e-05
-0.00031481
0.000139827
-0.000282863
0.000283834
-0.000232577
0.000297921
-0.000184975
0.000217171
-0.000143506
0.000112619
-0.000103382
2.62116e-05
-6.16294e-05
-3.56034e-05
-1.86475e-05
-7.54391e-05
2.39602e-05
-9.78908e-05
6.39274e-05
-0.000105858
9.93464e-05
-0.000101357
0.000129528
-8.7296e-05
0.000153169
-6.54404e-05
0.000170196
-3.79281e-05
0.000179567
-5.00284e-06
0.000180091
3.21219e-05
0.0001716
7.03194e-05
0.000154371
0.000107093
0.000129634
0.000139534
9.90566e-05
0.000165404
6.45977e-05
0.000182901
2.82078e-05
0.000191782
-8.63903e-06
0.000191996
-4.40302e-05
0.000182992
-7.65383e-05
0.000164843
-0.000103494
0.000137839
-0.000123318
0.000104048
-0.000135475
6.5193e-05
-0.00013956
2.42601e-05
-0.000135521
-1.84901e-05
-0.000122413
-6.24065e-05
-0.000100496
-0.000105722
-7.09311e-05
-0.000145991
-3.4812e-05
-0.000177342
5.30525e-06
-0.000195531
4.49399e-05
-0.000193352
7.96289e-05
-0.000171585
0.000108242
-0.000138957
0.000128069
-9.77622e-05
0.000139544
-5.40353e-05
0.000142104
-9.53851e-06
0.000136745
3.4656e-05
0.000123019
7.67258e-05
0.00010097
0.000117655
7.12583e-05
0.000152901
3.5764e-05
0.0001805
-2.82009e-06
0.000198065
-4.18692e-05
0.00020488
-7.95465e-05
0.000201862
-0.000113994
0.000190431
-0.00014451
0.00017105
-0.000169475
0.000144703
-0.000187262
0.00011205
-0.000196476
7.45611e-05
-0.000196482
3.4882e-05
-0.0001871
-4.4436e-06
-0.000169435
-3.97722e-05
-0.000144633
-6.959e-05
-0.000113393
-9.26548e-05
-7.65326e-05
-0.000108079
-3.52821e-05
-0.000113629
8.95293e-06
-0.000107218
5.45469e-05
-8.65099e-05
9.93893e-05
-4.82521e-05
0.00014389
1.2195e-05
0.00019013
9.87317e-05
0.000244259
0.000203993
0.000299751
0.000287866
0.00033393
0.000278199
0.000325684
0.00014061
0.000267621
-6.66062e-05
0.000178355
-0.000275613
7.61978e-05
-0.000439266
-4.26562e-06
-0.000498203
-0.000285818
-8.14851e-05
-0.000177761
-0.000213179
-0.000343932
-0.000343656
-0.000305667
-0.000452227
-0.000179238
-0.000518196
-1.11906e-05
-0.000518206
0.000139838
-0.000461771
0.000227399
-0.000378669
0.000214819
-0.000296925
0.000135426
-0.000225395
4.10896e-05
-0.000158784
-4.03991e-05
-9.45007e-05
-9.98861e-05
-3.1477e-05
-0.000138463
2.86254e-05
-0.000157993
8.33764e-05
-0.000160608
0.000130932
-0.000148913
0.000169838
-0.000126202
0.000200664
-9.62654e-05
0.000222473
-5.97361e-05
0.000234818
-1.7348e-05
0.000236318
3.06222e-05
0.000225543
8.10956e-05
0.000203576
0.000129059
0.000172141
0.000170969
0.00013374
0.000203805
9.08044e-05
0.000225837
4.57666e-05
0.00023682
-3.66716e-07
0.000238129
-4.50002e-05
0.000227625
-8.59651e-05
0.000205808
-0.000120132
0.000172007
-0.000144972
0.000128889
-0.000159542
7.97625e-05
-0.000163378
2.80964e-05
-0.000156776
-2.50925e-05
-0.000139555
-7.9627e-05
-0.000113156
-0.000132121
-7.89814e-05
-0.000180167
-3.78228e-05
-0.0002185
5.85427e-06
-0.000239208
4.92731e-05
-0.000236771
8.95974e-05
-0.00021191
0.000122287
-0.000171647
0.000147122
-0.000122598
0.000162354
-6.92677e-05
0.0001671
-1.42839e-05
0.000161544
4.02113e-05
0.000144945
9.33257e-05
0.000117887
0.000144712
7.97768e-05
0.000191011
3.41142e-05
0.000226163
-1.48442e-05
0.000247024
-6.29491e-05
0.000252985
-0.000108332
0.000247245
-0.000149921
0.000232021
-0.000187182
0.000208312
-0.000218322
0.000175843
-0.000241003
0.000134731
-0.000253069
8.66273e-05
-0.000252959
3.47731e-05
-0.000241077
-1.63244e-05
-0.000218558
-6.22908e-05
-0.000186591
-0.000101557
-0.000146015
-0.00013323