/*--------------------------------*- C++ -*----------------------------------*\
| =========                 |                                                 |
| \\      /  F ield         | OpenFOAM: The Open Source CFD Toolbox           |
|  \\    /   O peration     | Version:  2412                                  |
|   \\  /    A nd           | Website:  www.openfoam.com                      |
|    \\/     M anipulation  |                                                 |
\*---------------------------------------------------------------------------*/
FoamFile
{
    version     2.0;
    format      ascii;
    arch        "LSB;label=32;scalar=64";
    class       volScalarField;
    location    "0.95";
    object      alpha.lava;
}
// * * * * * * * * * * * * * * * * * * * * * * * * * * * * * * * * * * * * * //

dimensions      [0 0 0 0 0 0 0];

internalField   nonuniform List<scalar> 
6400
(
1
1
1
1
1
1
1
1
1
1
1
1
1
1
1
1
1
1
1
1
1
1
1
1
1
1
1
1
1
1
1
1
1
1
1
1
1
1
1
1
1
1
1
1
1
1
1
0.999999
0.999999
0.999998
0.999997
0.999997
0.999996
0.999996
0.999995
0.999995
0.999995
0.999995
0.999995
0.999995
0.999995
0.999995
0.999995
0.999995
0.999995
0.999995
0.999994
0.999994
0.999994
0.999993
0.999993
0.999992
0.999992
0.999992
0.999992
0.999992
0.999992
0.999993
0.999994
1
0.999998
1
1
1
1
1.00001
1.00001
1.00001
1.00001
1.00001
1.00001
1.00001
1.00001
1.00001
1.00001
1.00001
1.00001
1.00001
1.00001
1.00001
1.00001
1.00001
1.00001
1
1
1
0.999998
0.999997
0.999995
0.999994
0.999994
0.999993
0.999993
0.999994
0.999994
0.999995
0.999996
0.999998
0.999999
1
1
1
1
1
1
1
1
1
1
1
1
1
1
0.999999
0.999998
0.999997
0.999996
0.999996
0.999995
0.999994
0.999994
0.999994
0.999993
0.999992
0.999991
0.999991
0.99999
0.999989
0.999989
0.999989
0.999989
0.999989
0.99999
0.999991
0.999992
0.999992
0.999993
0.999995
0.999997
1.00001
0.999997
1
1
1
1
1.00001
1.00001
1.00001
1.00001
1.00001
1.00001
1.00001
1.00001
1.00002
1.00002
1.00002
1.00001
1.00001
1.00001
1.00001
1.00001
1.00001
1.00001
1
1
0.999998
0.999995
0.999993
0.999991
0.99999
0.999989
0.999988
0.999988
0.999988
0.999989
0.999991
0.999993
0.999995
0.999997
0.999999
1
1
1
1.00001
1.00001
1.00001
1.00001
1.00001
1.00001
1.00001
1.00001
1
1
1
1
0.999999
0.999998
0.999996
0.999995
0.999994
0.999993
0.999991
0.99999
0.999989
0.999988
0.999987
0.999986
0.999986
0.999986
0.999987
0.999988
0.999989
0.99999
0.999991
0.999993
0.999994
0.999996
0.999997
0.999999
1.00001
0.999996
1
1
1
1
1.00001
1.00001
1.00001
1.00001
1.00001
1.00001
1.00002
1.00002
1.00002
1.00002
1.00002
1.00001
1.00001
1.00001
1.00001
1.00001
1.00001
1.00001
1
1
0.999997
0.999994
0.999992
0.999989
0.999987
0.999986
0.999985
0.999984
0.999985
0.999985
0.999987
0.999989
0.999991
0.999994
0.999996
0.999999
1
1
1.00001
1.00001
1.00001
1.00001
1.00001
1.00001
1.00001
1.00001
1.00001
1
1
1
1
0.999999
0.999997
0.999996
0.999994
0.999993
0.999991
0.99999
0.999988
0.999987
0.999986
0.999986
0.999986
0.999986
0.999987
0.999988
0.999989
0.99999
0.999991
0.999992
0.999994
0.999996
0.999998
1
1.00001
0.999997
1
1
1
1.00001
1.00001
1.00001
1.00001
1.00001
1.00001
1.00002
1.00002
1.00002
1.00002
1.00002
1.00002
1.00001
1.00001
1.00001
1.00001
1.00001
1.00001
1
1
0.999998
0.999996
0.999993
0.999991
0.999988
0.999986
0.999985
0.999983
0.999983
0.999983
0.999984
0.999986
0.999988
0.99999
0.999993
0.999995
0.999998
1
1
1.00001
1.00001
1.00001
1.00001
1.00001
1.00001
1.00001
1.00001
1.00001
1
1
1
1
0.999998
0.999997
0.999995
0.999993
0.999991
0.999989
0.999988
0.999987
0.999985
0.999985
0.999985
0.999985
0.999985
0.999986
0.999987
0.999989
0.99999
0.999992
0.999993
0.999994
0.999996
0.999998
1
1.00001
0.999996
1
1
1
1
1.00001
1.00001
1.00001
1.00001
1.00001
1.00001
1.00002
1.00002
1.00002
1.00002
1.00002
1.00001
1.00001
1.00001
1.00001
1.00001
1.00001
1
1
0.999997
0.999995
0.999992
0.99999
0.999987
0.999985
0.999983
0.999982
0.999982
0.999982
0.999983
0.999984
0.999986
0.999988
0.999991
0.999994
0.999997
0.999999
1
1
1.00001
1.00001
1.00001
1.00001
1.00001
1.00001
1.00001
1.00001
1.00001
1
1
1
0.999999
0.999997
0.999996
0.999994
0.999992
0.999991
0.999989
0.999988
0.999987
0.999986
0.999986
0.999986
0.999987
0.999987
0.999988
0.999989
0.99999
0.999991
0.999993
0.999994
0.999996
0.999998
1
1.00001
0.999995
1
1
1
1
1.00001
1.00001
1.00001
1.00001
1.00001
1.00001
1.00002
1.00002
1.00002
1.00002
1.00001
1.00001
1.00001
1.00001
1.00001
1.00001
1
1
1
0.999997
0.999995
0.999992
0.99999
0.999988
0.999986
0.999984
0.999983
0.999982
0.999982
0.999982
0.999983
0.999985
0.999987
0.999989
0.999992
0.999994
0.999997
0.999999
1
1
1
1.00001
1.00001
1.00001
1.00001
1.00001
1.00001
1
1
1
1
0.999999
0.999997
0.999996
0.999994
0.999993
0.999991
0.99999
0.999988
0.999987
0.999987
0.999986
0.999986
0.999987
0.999987
0.999988
0.999989
0.99999
0.999991
0.999993
0.999994
0.999997
0.999998
1
1.00001
0.999996
1
1
1
1.00001
1.00001
1.00001
1.00001
1.00001
1.00001
1.00001
1.00001
1.00002
1.00002
1.00001
1.00001
1.00001
1.00001
1.00001
1.00001
1.00001
1
1
0.999998
0.999996
0.999994
0.999992
0.99999
0.999988
0.999986
0.999985
0.999983
0.999983
0.999983
0.999983
0.999984
0.999985
0.999987
0.999989
0.999991
0.999993
0.999996
0.999998
0.999999
1
1
1
1
1
1
1
1
1
1
1
1
0.999999
0.999998
0.999997
0.999995
0.999994
0.999993
0.999991
0.99999
0.999989
0.999988
0.999988
0.999988
0.999988
0.999989
0.999989
0.99999
0.99999
0.999991
0.999993
0.999994
0.999997
0.999998
1
1
0.999996
1
1
1.00001
1.00001
1.00001
1.00001
1.00001
1.00001
1.00001
1.00001
1.00001
1.00001
1.00001
1.00001
1.00001
1.00001
1.00001
1.00001
1.00001
1
1
1
0.999998
0.999996
0.999994
0.999992
0.999991
0.999989
0.999987
0.999985
0.999984
0.999983
0.999983
0.999983
0.999983
0.999984
0.999986
0.999988
0.99999
0.999992
0.999994
0.999995
0.999997
0.999998
1
1
1
1
1
1
1
1
1
1
1
1
0.999999
0.999998
0.999997
0.999996
0.999994
0.999993
0.999991
0.99999
0.99999
0.99999
0.99999
0.99999
0.99999
0.99999
0.999991
0.999991
0.999992
0.999994
0.999995
0.999997
0.999998
1
1
0.999996
1
1.00001
1.00001
1.00001
1.00001
1.00001
1.00001
1.00001
1.00001
1.00001
1.00001
1.00001
1.00001
1.00001
1.00001
1.00001
1.00001
1
1
1
1
0.999999
0.999998
0.999996
0.999994
0.999993
0.999992
0.99999
0.999988
0.999987
0.999985
0.999984
0.999983
0.999983
0.999984
0.999985
0.999986
0.999987
0.999989
0.999991
0.999992
0.999994
0.999995
0.999996
0.999998
0.999999
1
1
1
1
1
1
1
1
1
1
1
0.999999
0.999998
0.999997
0.999995
0.999994
0.999992
0.999992
0.999991
0.999991
0.999992
0.999992
0.999992
0.999992
0.999992
0.999993
0.999994
0.999995
0.999996
0.999998
0.999999
1
1
0.999997
1
1.00001
1.00001
1.00001
1.00001
1.00001
1.00001
1.00001
1.00001
1.00001
1.00001
1.00001
1.00001
1.00001
1.00001
1.00001
1
1
1
1
1
0.999998
0.999997
0.999996
0.999995
0.999994
0.999993
0.999992
0.99999
0.999989
0.999988
0.999986
0.999986
0.999986
0.999986
0.999987
0.999988
0.999989
0.99999
0.999991
0.999992
0.999993
0.999994
0.999995
0.999997
0.999998
1
1
1
1
1
1
1
1
1
1
1
1
0.999999
0.999998
0.999996
0.999995
0.999994
0.999993
0.999993
0.999993
0.999993
0.999993
0.999993
0.999993
0.999993
0.999993
0.999995
0.999995
0.999996
0.999998
0.999999
1
1
0.999997
1
1.00001
1.00001
1.00001
1.00001
1.00001
1.00001
1.00001
1.00001
1.00001
1.00001
1.00001
1.00001
1.00001
1.00001
1
1
1
1
1
0.999999
0.999998
0.999997
0.999996
0.999996
0.999995
0.999994
0.999993
0.999992
0.99999
0.999989
0.999988
0.999987
0.999987
0.999987
0.999988
0.999988
0.999989
0.999989
0.99999
0.999991
0.999992
0.999993
0.999994
0.999996
0.999997
0.999998
1
1
1
1
1
1
1
1
1
1
1
0.999999
0.999998
0.999997
0.999995
0.999994
0.999993
0.999993
0.999993
0.999993
0.999993
0.999993
0.999993
0.999994
0.999993
0.999995
0.999995
0.999995
0.999998
0.999998
1
1
0.999997
1
1.00001
1.00001
1.00001
1.00001
1.00001
1.00001
1.00001
1.00001
1.00001
1.00001
1.00001
1.00001
1.00001
1
1
1
1
1
0.999999
0.999998
0.999998
0.999997
0.999997
0.999996
0.999996
0.999995
0.999994
0.999993
0.999991
0.99999
0.999989
0.999988
0.999988
0.999988
0.999988
0.999988
0.999988
0.999989
0.999989
0.99999
0.999991
0.999992
0.999994
0.999996
0.999998
0.999999
1
1
1
1
1
1
1
1
1
1
1
1
1
0.999998
0.999997
0.999995
0.999995
0.999994
0.999994
0.999994
0.999993
0.999994
0.999994
0.999994
0.999994
0.999995
0.999995
0.999996
0.999997
0.999998
1
1
0.999997
1
1
1.00001
1.00001
1.00001
1.00001
1.00001
1.00001
1.00001
1.00001
1.00001
1.00001
1.00001
1
1
1
1
1
1
0.999999
0.999999
0.999998
0.999998
0.999997
0.999997
0.999997
0.999996
0.999995
0.999994
0.999992
0.999991
0.99999
0.999989
0.999989
0.999988
0.999988
0.999988
0.999988
0.999988
0.999989
0.99999
0.999991
0.999993
0.999995
0.999997
0.999999
1
1
1
1
1
1
1
1
1
1
1
1
1
1
1
0.999998
0.999997
0.999996
0.999995
0.999995
0.999994
0.999994
0.999994
0.999995
0.999995
0.999994
0.999995
0.999995
0.999996
0.999997
0.999998
1
1
0.999997
1
1
1.00001
1.00001
1.00001
1.00001
1.00001
1.00001
1.00001
1.00001
1
1
1
1
1
1
1
1
1
0.999999
0.999999
0.999998
0.999998
0.999998
0.999998
0.999998
0.999997
0.999996
0.999995
0.999993
0.999992
0.999991
0.999991
0.99999
0.99999
0.999989
0.999989
0.999989
0.999989
0.99999
0.999991
0.999992
0.999994
0.999996
0.999998
1
1
1
1
1
1
1
1
1
1
1
1
1
1
1
1
1
0.999998
0.999997
0.999996
0.999996
0.999996
0.999996
0.999996
0.999996
0.999996
0.999995
0.999996
0.999996
0.999997
0.999998
0.999999
1
1
0.999998
1
1
1
1
1
1
1.00001
1
1
1
1
1
1
1
1
1
0.999999
0.999999
0.999999
0.999999
0.999999
0.999999
0.999999
0.999999
0.999999
0.999999
0.999998
0.999998
0.999997
0.999996
0.999995
0.999995
0.999994
0.999994
0.999994
0.999993
0.999993
0.999993
0.999993
0.999994
0.999994
0.999996
0.999998
0.999999
1
1
1
1
1.00001
1.00001
1.00001
1
1.00001
1.00001
1.00001
1.00001
1.00001
1.00001
1.00001
1
1
1
1
1
1
1
1
1
1
1
1
0.999999
1
1
1
1
1
1
1
0.999998
0.999997
0.999996
0.999995
0.999998
0.999998
0.999999
0.999999
0.999998
0.999997
0.999997
0.999996
0.999996
0.999996
0.999997
0.999997
0.999997
0.999997
0.999998
0.999998
0.999998
0.999999
0.999999
1
1
1
1
1
1
1
1
1
1
1
1
1
1
0.999999
0.999999
0.999999
0.999999
1
1
1
1
1
1
1.00001
1.00001
1.00001
1.00001
1.00001
1.00001
1.00001
1.00001
1.00001
1.00001
1.00001
1.00001
1.00001
1.00001
1.00001
1.00001
1
1
1
1.00001
1.00001
1.00001
1.00001
1.00001
1.00001
1
1.00001
1
1.00001
1.00001
1
1.00001
1
0.999995
0.999989
0.999989
0.999987
0.999987
0.999988
0.999988
0.999989
0.999988
0.999988
0.999988
0.999988
0.999989
0.999989
0.99999
0.999991
0.999992
0.999993
0.999995
0.999996
0.999997
0.999999
1
1
1
1
1
1.00001
1.00001
1.00001
1.00001
1.00001
1.00001
1.00001
1.00001
1.00001
1.00001
1.00001
1.00001
1.00001
1.00001
1.00001
1.00001
1.00001
1.00001
1.00001
1.00001
1.00001
1.00001
1.00001
1.00001
1.00001
1.00001
1.00001
1.00001
1.00001
1.00001
1.00001
1.00001
1.00001
1.00001
1.00001
1.00001
1.00001
1.00001
1.00001
1.00001
1.00001
1.00001
1.00001
1.00001
1.00001
1.00001
1.00001
1.00001
1.00001
1.00001
1.00001
1.00001
1
0.999995
0.999984
0.999981
0.99998
0.99998
0.999981
0.999981
0.999981
0.999981
0.999982
0.999982
0.999983
0.999984
0.999985
0.999987
0.999988
0.99999
0.999992
0.999993
0.999995
0.999997
0.999999
1
1
1
1.00001
1.00001
1.00001
1.00001
1.00001
1.00001
1.00001
1.00001
1.00002
1.00002
1.00002
1.00002
1.00002
1.00002
1.00002
1.00002
1.00001
1.00001
1.00001
1.00001
1.00001
1.00001
1.00001
1.00001
1.00001
1.00001
1.00001
1.00001
1.00001
1.00001
1.00001
1.00001
1.00001
1.00001
1.00001
1.00001
1.00001
1.00001
1.00002
1.00002
1.00002
1.00002
1.00002
1.00002
1.00002
1.00002
1.00002
1.00002
1.00002
1.00002
1.00002
1.00002
1.00002
1.00002
1.00001
0.999966
0.999945
0.999949
0.999951
0.999948
0.999946
0.999945
0.999945
0.999945
0.999945
0.999947
0.999949
0.999951
0.999953
0.999956
0.999959
0.999962
0.999965
0.999968
0.99997
0.999973
0.999975
0.999978
0.99998
0.999982
0.999985
0.999987
0.999989
0.999992
0.999994
0.999994
0.999995
0.999996
0.999996
0.999996
0.999996
0.999996
0.999996
0.999995
0.999995
0.999995
0.999995
0.999994
0.999991
0.999988
0.999986
0.999984
0.999983
0.999982
0.999982
0.999983
0.999985
0.999986
0.999989
0.999991
0.999994
0.999996
0.999999
0.999999
0.999999
0.999999
0.999999
1
1
0.999999
0.999999
0.999999
0.999998
0.999998
0.999998
0.999997
0.999996
0.999995
0.999995
0.999993
0.999991
0.99999
0.999988
0.999986
0.999982
1.08938e-05
2.42305e-05
1.94538e-05
1.44024e-05
1.18224e-05
9.55559e-06
7.56013e-06
6.36591e-06
5.7134e-06
5.31722e-06
5.18104e-06
5.07377e-06
5.00601e-06
5.06016e-06
5.23162e-06
5.64007e-06
6.16372e-06
6.63747e-06
7.4328e-06
9.09989e-06
1.08986e-05
1.25365e-05
1.42929e-05
1.62191e-05
1.80639e-05
1.98118e-05
2.16293e-05
2.32788e-05
2.48855e-05
2.70037e-05
2.96548e-05
3.1895e-05
3.3963e-05
3.60095e-05
3.75718e-05
3.84629e-05
3.88252e-05
3.89338e-05
3.8514e-05
3.75243e-05
3.59471e-05
3.42427e-05
3.24736e-05
3.27125e-05
3.25476e-05
3.20371e-05
3.12777e-05
3.0393e-05
2.93968e-05
2.82954e-05
2.70719e-05
2.57704e-05
2.4332e-05
2.28242e-05
2.14243e-05
2.02836e-05
1.94352e-05
1.90038e-05
2.0323e-05
2.28848e-05
2.55364e-05
2.79763e-05
3.02864e-05
3.26826e-05
3.4913e-05
3.69388e-05
3.84585e-05
3.97551e-05
4.08258e-05
4.13806e-05
4.17144e-05
4.16758e-05
4.06411e-05
3.94713e-05
3.81824e-05
3.65312e-05
3.56587e-05
3.50282e-05
3.77932e-05
3.58799e-05
1.14774e-16
1.90402e-25
5.88954e-24
6.1705e-22
5.05789e-18
1.57184e-23
1.11399e-18
1.34094e-26
-7.75583e-53
-1.5897e-28
7.68454e-25
1.03516e-19
2.08015e-28
9.0572e-24
9.5288e-24
1.81336e-28
1.62959e-55
-2.467e-65
-5.72411e-67
2.65825e-24
2.51284e-23
3.29798e-23
1.28167e-23
-4.84627e-33
0
0
-4.93038e-33
-4.93038e-33
0
0
0
-7.7981e-71
-3.27812e-71
-1.27735e-71
-4.68728e-72
-2.46519e-33
0
0
0
-6.43885e-74
-1.95142e-74
-2.08214e-75
0
0
-2.46519e-33
-1.95866e-71
2.36848e-64
-5.0484e-56
5.20124e-25
6.16298e-34
2.97382e-20
8.82871e-20
2.20992e-19
4.7816e-19
5.49876e-19
7.19812e-19
1.45103e-18
1.80765e-18
2.08212e-18
2.80048e-18
2.97357e-18
2.35019e-18
2.06931e-18
3.92804e-18
4.07744e-18
1.58264e-18
1.2652e-21
2.30284e-22
-2.70224e-43
4.83176e-19
1.10686e-46
2.76031e-22
3.30571e-22
-1.96949e-32
7.27014e-24
1.75273e-22
1.65881e-22
5.99345e-22
3.87705e-23
1.02989e-16
5.67602e-23
1.15955e-26
2.72155e-26
7.41266e-29
3.6623e-30
1.26684e-31
3.28187e-26
5.02333e-31
-2.06065e-51
-5.69828e-31
-1.46886e-42
1.07041e-28
2.08015e-28
1.33853e-23
1.28487e-23
0
-3.664e-28
-3.5911e-23
-4.80279e-23
3.16556e-24
4.1164e-23
3.60353e-23
2.15578e-23
-3.84353e-23
-1.50322e-29
-2.48534e-28
-2.20879e-23
-4.71524e-23
-2.81769e-23
-2.32293e-23
-7.87215e-24
-5.14602e-24
-1.224e-23
-1.02988e-23
-8.23837e-24
-5.7082e-24
-3.85387e-24
-2.39879e-24
-1.23055e-24
-3.8426e-25
-1.24354e-24
-5.82885e-25
-1.33479e-24
-5.38358e-24
-5.14923e-24
-2.56668e-29
-1.16796e-23
-1.4581e-24
6.45088e-25
-1.23011e-23
-4.81479e-36
2.73738e-25
-2.86986e-40
8.48673e-25
3.13037e-24
5.6843e-27
1.37465e-24
4.11974e-24
7.65261e-27
5.38556e-27
9.81368e-24
9.55751e-24
-4.90309e-24
-1.30681e-26
7.5155e-24
1.02559e-23
7.11954e-27
-3.76158e-38
-4.33392e-24
0
-2.45433e-24
5.23102e-22
6.20763e-22
-2.42204e-24
-1.33915e-45
2.77601e-22
1.60724e-22
9.68099e-22
3.34806e-30
4.3957e-29
1.57023e-21
1.11467e-26
2.72932e-26
1.17568e-28
1.28342e-31
1.22182e-31
1.91427e-25
1.87895e-27
5.07984e-26
3.69912e-26
3.83286e-30
3.58898e-28
8.04219e-27
1.43226e-26
1.69242e-26
5.575e-29
4.31672e-32
2.09524e-28
-5.08373e-29
9.45086e-28
2.70311e-29
-4.0024e-30
-1.35078e-29
-2.78285e-29
-3.16054e-29
-1.20477e-29
-3.5314e-29
-1.11187e-29
-2.47295e-29
-3.9101e-29
-1.03481e-29
1.37613e-31
2.8211e-31
1.90617e-33
1.33457e-33
6.53662e-34
1.47008e-34
1.28178e-35
3.89844e-37
6.20232e-39
6.38683e-40
-9.7391e-34
1.23307e-38
1.59361e-37
4.97331e-37
-1.21052e-28
-9.3567e-29
-3.91739e-29
-4.02356e-31
-1.72004e-31
-1.92846e-47
6.69371e-28
-2.60536e-33
3.74211e-28
2.11913e-27
5.6553e-27
2.1628e-27
4.09815e-27
7.98322e-27
4.90388e-27
3.75884e-27
3.623e-27
1.81166e-27
1.11503e-28
1.98849e-27
3.51278e-27
0
-5.95053e-28
-2.70131e-29
1.8042e-28
1.39801e-28
1.08082e-27
1.63256e-27
-2.00647e-29
4.5497e-31
1.12331e-28
8.31997e-28
2.22314e-27
3.34806e-30
3.34807e-30
3.08802e-24
1.11464e-26
2.03715e-26
1.32506e-27
1.4007e-29
4.53311e-34
3.5196e-29
2.95954e-30
3.55529e-30
1.82872e-30
2.63812e-31
1.72702e-31
4.07682e-31
1.7409e-31
1.37196e-31
9.02667e-32
4.65773e-32
1.31252e-31
6.7215e-33
9.58905e-33
1.65041e-32
6.20223e-32
1.25592e-33
1.29025e-33
2.8481e-33
4.97882e-33
8.04742e-33
1.14072e-32
1.47619e-32
1.78185e-32
2.00172e-32
2.10774e-32
2.08922e-32
1.93833e-32
1.65627e-32
1.28283e-32
8.71177e-33
5.1061e-33
2.33218e-33
7.71806e-34
2.7012e-34
5.73855e-36
5.68133e-33
5.09127e-32
1.63006e-31
3.53707e-31
6.06128e-31
8.66328e-31
1.1172e-30
1.19649e-30
1.14492e-30
9.49775e-31
6.71601e-31
4.24996e-31
1.89166e-31
4.71407e-32
1.68413e-31
3.6941e-31
1.554e-31
4.45874e-32
1.56889e-33
5.71907e-31
5.1255e-32
2.52378e-31
1.57957e-31
3.79048e-31
5.0397e-33
4.66422e-32
-1.03454e-32
3.83374e-30
3.93082e-32
2.984e-32
1.15704e-30
3.2457e-33
-6.39384e-34
3.18587e-30
7.51618e-31
5.28644e-31
6.16768e-30
8.45377e-29
1.10301e-29
1.49149e-30
3.99808e-30
1.64358e-31
9.84811e-34
2.61501e-35
1.6379e-35
3.49414e-36
7.24249e-36
1.6462e-36
7.80616e-36
1.1179e-35
5.55182e-36
3.13816e-37
4.92114e-37
9.76621e-37
3.06206e-37
1.26732e-37
1.79846e-38
1.97878e-38
1.21484e-38
6.23222e-38
1.16971e-39
3.0648e-39
1.70186e-39
3.70307e-39
5.95704e-39
8.61625e-39
1.01551e-38
1.18889e-38
1.35062e-38
1.43249e-38
1.42157e-38
1.32231e-38
1.11564e-38
8.42393e-39
5.56023e-39
3.21583e-39
1.457e-39
4.61451e-40
7.92558e-41
1.49113e-44
9.13457e-42
1.153e-38
1.06673e-37
3.72743e-37
8.55007e-37
1.48263e-36
2.12974e-36
2.50555e-36
2.45647e-36
3.03986e-36
2.0787e-36
1.4433e-36
3.1142e-37
1.57053e-37
1.57626e-37
2.91347e-39
9.29426e-37
1.10696e-37
6.63795e-39
1.62001e-36
3.79594e-38
4.48366e-37
8.68835e-37
4.67156e-36
1.04013e-37
7.40979e-37
-6.05094e-37
6.16491e-35
9.6852e-37
1.09652e-36
1.55864e-36
6.9493e-39
-8.58584e-39
3.34911e-35
5.70617e-36
4.17605e-36
6.14408e-35
9.61259e-34
7.12598e-34
1.26682e-36
4.10041e-37
3.12119e-38
1.97385e-39
3.34198e-41
2.64439e-42
1.37018e-42
1.45486e-42
6.62075e-43
3.08316e-43
3.72756e-43
4.03529e-42
1.24842e-43
3.39292e-44
1.76245e-44
6.71303e-45
3.42512e-45
2.53602e-45
2.39787e-44
1.66359e-44
1.56607e-46
3.18818e-46
6.96444e-46
1.37697e-45
2.44108e-45
4.00739e-45
5.73765e-45
7.49329e-45
9.06655e-45
1.01426e-44
1.05041e-44
1.02239e-44
9.36172e-45
7.7521e-45
5.6816e-45
3.56579e-45
1.93767e-45
8.42727e-46
2.61461e-46
4.34581e-47
5.69137e-51
4.17229e-49
2.75027e-47
3.76223e-44
2.70393e-43
9.03368e-43
1.99249e-42
3.34622e-42
4.33536e-42
4.43195e-42
3.61401e-42
2.31765e-42
1.15652e-42
4.03722e-43
7.13208e-44
6.82742e-46
1.7384e-46
9.65378e-45
1.90743e-45
9.88303e-47
1.06e-44
4.52686e-46
1.89293e-43
3.53929e-45
4.99919e-44
1.62163e-45
1.09431e-44
-1.93008e-41
6.07812e-43
1.86199e-44
2.0015e-44
5.19362e-44
1.97861e-46
-1.21095e-43
5.16576e-42
1.82125e-42
5.46452e-43
1.81513e-42
1.65635e-40
1.35887e-39
3.56021e-41
3.67213e-42
8.99157e-44
1.19446e-45
3.9707e-49
6.53367e-48
2.36667e-48
2.74433e-48
5.83238e-49
3.48722e-49
4.4601e-49
2.49345e-49
6.19577e-50
2.2439e-50
1.11537e-50
6.57551e-51
2.79768e-51
3.64919e-51
3.84095e-50
1.35467e-50
1.43245e-52
3.56443e-52
7.58951e-52
1.46163e-51
2.52074e-51
4.01623e-51
5.56331e-51
7.00623e-51
8.14438e-51
8.71802e-51
8.57483e-51
7.92285e-51
6.89433e-51
5.42517e-51
3.78456e-51
2.26111e-51
1.15578e-51
4.71601e-52
1.40357e-52
2.27363e-53
2.76582e-57
2.00455e-55
1.95909e-54
4.96306e-51
1.31876e-49
7.34557e-49
2.17895e-48
4.41025e-48
6.4372e-48
6.9848e-48
5.75829e-48
3.63542e-48
1.74762e-48
5.88065e-49
1.00001e-49
1.403e-52
3.04781e-53
6.8798e-51
9.92906e-52
8.0309e-53
6.76737e-51
5.05633e-52
4.78113e-51
3.16302e-51
3.92884e-50
2.67407e-51
1.34141e-50
-3.72016e-46
4.18473e-49
1.02314e-50
4.34111e-50
7.82325e-50
6.72903e-52
-1.29173e-48
6.25289e-48
3.7896e-48
1.00989e-48
4.84014e-49
1.74402e-46
4.08568e-44
1.1691e-46
1.22263e-46
3.39781e-50
9.2632e-51
8.42035e-55
3.97464e-54
4.28607e-54
7.32516e-54
1.11272e-54
9.83701e-55
1.68844e-54
9.80266e-55
6.35019e-56
2.33415e-56
1.54033e-56
1.1652e-56
3.54364e-57
2.38246e-57
7.16584e-56
8.92906e-57
1.86925e-58
4.70197e-58
9.78054e-58
1.83643e-57
3.07936e-57
4.75079e-57
6.34158e-57
7.65446e-57
8.47522e-57
8.5918e-57
7.96939e-57
6.90184e-57
5.61175e-57
4.1231e-57
2.67509e-57
1.48874e-57
7.07992e-58
2.6692e-58
7.38295e-59
1.13353e-59
1.51918e-63
1.08357e-61
6.62892e-61
7.35296e-60
2.57631e-56
3.66116e-55
1.6864e-54
4.45263e-54
7.79568e-54
9.50421e-54
8.33473e-54
5.44145e-54
2.61609e-54
8.58284e-55
1.44461e-55
1.80646e-58
1.1657e-60
1.11646e-58
3.25731e-59
4.67066e-59
1.10977e-58
3.56677e-58
6.9351e-57
-8.92218e-55
1.21109e-55
3.91242e-57
5.21966e-56
-4.30889e-51
7.03528e-55
1.95993e-56
5.87521e-56
1.26828e-55
2.05425e-57
-1.75887e-53
1.3073e-53
1.14357e-53
1.81775e-54
1.24349e-54
2.09873e-52
2.37087e-49
2.97296e-52
5.05403e-54
1.57747e-55
2.72323e-58
2.55516e-60
9.29629e-60
8.64858e-60
1.74314e-59
2.69874e-60
3.5563e-60
4.9616e-60
1.7456e-60
8.47753e-62
3.79021e-62
3.95234e-62
2.46714e-62
5.34838e-63
4.31665e-63
1.437e-61
6.60125e-63
2.8141e-64
7.02267e-64
1.41862e-63
2.57871e-63
4.16792e-63
6.16598e-63
7.84794e-63
8.97833e-63
9.36632e-63
8.88707e-63
7.67347e-63
6.16285e-63
4.64558e-63
3.17106e-63
1.90798e-63
9.86022e-64
4.37674e-64
1.5427e-64
3.99836e-65
5.81182e-66
9.07768e-70
6.46147e-68
4.03673e-67
1.82332e-66
7.96668e-64
1.12075e-61
9.40351e-61
3.51115e-60
7.80509e-60
1.11954e-59
1.06945e-59
7.5315e-60
3.81032e-60
1.26223e-60
2.12286e-61
2.66259e-64
1.24945e-66
1.45751e-65
1.92538e-65
3.80229e-65
5.38593e-65
7.14337e-64
1.11952e-62
-3.00079e-59
9.23003e-62
4.55368e-63
3.29059e-61
-6.62041e-56
1.72227e-60
5.63129e-62
1.22311e-61
4.10613e-61
8.206e-63
-2.07985e-58
7.86711e-59
6.26102e-59
4.50289e-60
3.76897e-60
4.12732e-58
3.78136e-56
1.63151e-57
2.46611e-59
1.48357e-61
1.82492e-63
8.72847e-66
2.87727e-65
2.37716e-65
5.39037e-65
5.62786e-66
4.84286e-66
2.13634e-65
2.35609e-66
1.3277e-67
9.51502e-68
1.39234e-67
5.73538e-68
9.93685e-69
1.20347e-68
2.5371e-67
8.6212e-69
4.73585e-70
1.14826e-69
2.23211e-69
3.88825e-69
5.99115e-69
8.40012e-69
1.00684e-68
1.07786e-68
1.0457e-68
9.16668e-69
7.26055e-69
5.31928e-69
3.6599e-69
2.30865e-69
1.28289e-69
6.15332e-70
2.56172e-70
8.57584e-71
2.13751e-71
3.03464e-72
6.18687e-76
4.53355e-74
2.88689e-73
1.23324e-72
9.87797e-72
2.88316e-68
4.57718e-67
2.42745e-66
6.98029e-66
1.21463e-65
1.27453e-65
9.76372e-66
5.40662e-66
1.90798e-66
3.28817e-67
4.15876e-70
1.7283e-72
3.38436e-72
4.66056e-71
6.69412e-71
1.23234e-70
1.83409e-69
4.95619e-68
-8.51563e-64
2.8122e-68
1.30535e-68
8.52525e-67
-9.9745e-61
1.99198e-66
2.70961e-67
3.19411e-67
1.32824e-66
2.10888e-68
-1.75593e-63
5.2564e-64
4.97637e-64
1.39431e-65
1.61591e-65
1.34077e-63
4.06976e-61
5.43112e-63
5.00493e-64
7.88157e-67
9.93622e-69
2.79706e-71
9.5134e-71
8.07647e-71
2.15897e-70
1.80974e-71
1.3077e-71
9.08335e-71
5.50565e-72
3.14099e-73
3.09988e-73
5.14368e-73
1.4464e-73
2.18763e-74
3.07568e-74
3.4405e-73
9.58541e-75
8.66281e-76
2.01843e-75
3.75204e-75
6.22143e-75
9.07769e-75
1.19856e-74
1.34413e-74
1.33883e-74
1.20135e-74
9.7055e-75
7.02253e-75
4.67417e-75
2.96086e-75
1.7216e-75
8.89136e-76
4.00688e-76
1.58889e-76
5.15895e-77
1.27211e-77
1.82326e-78
4.64398e-82
3.49719e-80
2.29797e-79
9.42702e-79
6.67678e-78
2.8098e-75
1.56199e-73
1.32899e-72
5.27597e-72
1.18577e-71
1.46236e-71
1.24195e-71
7.63779e-72
3.01495e-72
5.63602e-73
7.77104e-76
4.85292e-78
4.60714e-78
1.86865e-76
1.06512e-76
4.75045e-76
1.96876e-76
1.65766e-73
-1.73906e-68
2.62508e-93
5.97835e-74
1.54754e-73
-8.34987e-66
-7.3751e-93
1.58572e-72
1.47283e-72
4.56465e-72
6.23129e-74
-1.2569e-68
1.69985e-69
3.37537e-69
4.79123e-71
1.01089e-70
5.68186e-69
3.37331e-66
2.4411e-68
3.84361e-70
7.16729e-72
4.34449e-74
1.03386e-76
3.58614e-76
3.17832e-76
9.73344e-76
8.41647e-77
7.81272e-77
4.38061e-76
2.54846e-77
1.11874e-78
1.37067e-78
2.33029e-78
4.21742e-79
6.26597e-80
7.6478e-80
7.91862e-79
1.71003e-80
1.75286e-81
3.90684e-81
6.91635e-81
1.08773e-80
1.49756e-80
1.85385e-80
1.93747e-80
1.78385e-80
1.4686e-80
1.08656e-80
7.08383e-81
4.25483e-81
2.44033e-81
1.29155e-81
6.14395e-82
2.59425e-82
9.83413e-83
3.12491e-83
7.73277e-84
1.13857e-84
3.56099e-88
2.75146e-86
1.89437e-85
7.84392e-85
5.31267e-84
5.40046e-83
1.6157e-80
4.87547e-79
3.2493e-78
1.05017e-77
1.67581e-77
1.65565e-77
1.13072e-77
5.02404e-78
1.0758e-78
1.72746e-81
1.05618e-83
1.19615e-83
3.34043e-82
2.47425e-82
1.12435e-81
5.09524e-82
1.32988e-79
-2.66852e-73
5.12126e-99
3.78608e-79
3.77181e-78
-9.35595e-71
0
1.02288e-77
1.11117e-77
2.45404e-77
4.3926e-79
-2.08246e-73
6.72939e-75
1.60773e-74
2.26504e-76
8.398e-76
3.15561e-74
5.30477e-73
1.11909e-73
1.42862e-76
4.63074e-77
2.16992e-79
4.66682e-82
1.52233e-81
1.4313e-81
4.86684e-81
4.97813e-82
5.80324e-82
2.17128e-81
1.52549e-82
4.99096e-84
6.79216e-84
1.08441e-83
1.42884e-84
2.28072e-85
2.91805e-85
2.4803e-84
4.29695e-86
3.96582e-87
8.43832e-87
1.41914e-86
2.10904e-86
2.72777e-86
3.15029e-86
3.04819e-86
2.57406e-86
1.92462e-86
1.28246e-86
7.41226e-87
3.92734e-87
1.98001e-87
9.22557e-88
3.90546e-88
1.49809e-88
5.31594e-89
1.64002e-89
4.10084e-90
6.32645e-91
2.7546e-94
2.23539e-92
1.63361e-91
6.97337e-91
4.34653e-90
4.70299e-89
5.48434e-88
1.09831e-85
1.72697e-84
8.71389e-84
1.93973e-83
2.39326e-83
1.81929e-83
8.79263e-84
2.18634e-84
4.30553e-87
1.65205e-89
2.90586e-89
2.38016e-88
6.67442e-88
9.04976e-88
1.24391e-87
5.95775e-85
-3.83632e-78
-3.84747e-104
3.28874e-85
3.79631e-83
-1.2919e-75
-9.1247e-81
7.8609e-83
9.1272e-83
1.72207e-82
3.12154e-84
-3.9437e-78
6.74333e-80
1.28563e-79
2.2496e-81
4.41851e-81
2.45614e-79
6.50491e-78
7.14495e-79
1.71795e-81
3.16132e-82
1.81095e-84
2.4292e-87
7.15972e-87
7.34445e-87
2.76783e-86
3.69489e-87
4.79407e-87
1.1412e-86
9.68347e-88
2.66354e-89
3.58557e-89
4.59632e-89
5.0666e-90
8.84632e-91
1.10718e-90
7.71196e-90
1.08789e-91
9.83157e-93
1.99475e-92
3.1828e-92
4.46397e-92
5.41376e-92
5.82309e-92
5.20097e-92
4.01534e-92
2.71344e-92
1.61263e-92
8.20136e-93
3.77442e-93
1.63692e-93
6.53499e-94
2.38043e-94
8.00804e-95
2.69281e-95
2.69281e-95
4.53672e-94
9.02783e-94
1.47917e-96
1.00407e-97
1.49148e-97
6.70635e-97
3.73249e-96
3.79773e-95
5.60685e-94
1.66717e-92
8.34622e-91
6.91356e-90
2.20097e-89
3.64278e-89
3.22613e-89
1.6491e-89
4.54599e-90
1.08251e-92
4.95668e-95
6.4018e-95
6.7009e-94
1.98718e-93
2.71371e-93
3.32885e-93
2.83308e-90
-5.80183e-83
0
1.87946e-90
1.46747e-89
-2.16293e-80
-1.80679e-85
4.60416e-88
6.06875e-88
1.31876e-87
2.91012e-89
-6.90717e-83
7.70854e-85
1.21119e-84
2.36192e-86
3.28269e-86
1.62508e-84
5.18011e-83
6.34838e-84
1.94288e-86
2.57344e-87
1.86179e-89
1.48277e-92
3.71977e-92
4.32869e-92
1.74411e-91
2.97612e-92
3.954e-92
8.50185e-92
6.80384e-93
1.69905e-94
2.43803e-94
2.78395e-94
2.36671e-95
4.43232e-96
4.63767e-96
3.02631e-95
3.39031e-97
2.64512e-98
5.11752e-98
7.75142e-98
1.02536e-97
1.16546e-97
1.16686e-97
9.60953e-98
6.77223e-98
4.12783e-98
2.17554e-98
9.71796e-99
3.85421e-99
1.42215e-99
4.78581e-100
4.79121e-100
5.23536e-99
4.70652e-95
2.04643e-92
1.17103e-91
2.38545e-92
7.87236e-92
1.01544e-96
5.84118e-103
5.33241e-103
3.62086e-102
3.03732e-101
5.62742e-100
7.07293e-99
3.79916e-97
5.49856e-96
2.40865e-95
5.53419e-95
6.19799e-95
3.33569e-95
9.72127e-96
2.64765e-98
1.64261e-100
2.47429e-100
2.16553e-99
6.80891e-99
9.9203e-99
1.04861e-98
1.5846e-95
-8.24429e-88
-1.21474e-92
1.14897e-95
1.56506e-94
-5.07976e-85
-5.17005e-90
3.77182e-93
4.43711e-93
6.56325e-93
1.72186e-94
-7.79662e-88
4.79794e-90
9.02332e-90
1.45652e-91
3.06785e-91
1.22951e-89
1.9703e-88
8.25139e-89
1.93422e-91
2.54399e-92
2.00041e-94
1.11829e-97
2.2439e-97
3.17007e-97
1.19227e-96
2.46948e-97
3.15806e-97
7.51407e-97
5.55414e-98
1.15613e-99
1.68632e-99
1.91989e-99
1.40825e-100
2.63443e-101
2.42443e-101
1.50464e-100
1.37507e-102
7.84104e-104
1.44638e-103
2.07982e-103
2.59333e-103
2.76244e-103
2.56746e-103
1.9433e-103
1.24418e-103
6.79806e-104
3.14773e-104
1.22321e-104
4.17371e-105
4.50319e-105
4.60318e-102
4.18871e-98
2.67483e-94
2.65092e-90
9.70503e-88
5.51048e-87
1.17098e-87
3.69896e-87
5.42444e-92
9.60642e-100
1.64622e-104
2.65711e-107
2.61145e-107
5.77429e-106
9.9815e-105
1.9016e-103
4.58143e-102
2.62427e-101
7.96477e-101
1.22108e-100
6.8983e-101
2.20647e-101
6.94842e-104
4.97564e-106
1.02852e-105
7.8829e-105
2.51436e-104
4.01375e-104
4.13192e-104
1.06763e-100
-1.8764e-92
-7.61596e-97
7.07195e-101
1.71983e-99
-1.11086e-89
-1.61343e-94
3.8157e-98
4.84468e-98
5.30453e-98
1.52607e-99
-1.20694e-92
4.18623e-95
8.96061e-95
1.07568e-96
3.71875e-96
1.39725e-94
1.22073e-93
1.10243e-93
1.535e-96
2.69371e-97
2.05931e-99
1.03733e-102
1.70573e-102
2.91278e-102
8.8569e-102
2.29284e-102
2.86173e-102
6.26954e-102
4.789e-103
8.65564e-105
1.16266e-104
1.28607e-104
9.01233e-106
1.76635e-106
1.23838e-106
8.14677e-106
6.27102e-108
2.59417e-109
4.56548e-109
6.23849e-109
7.33747e-109
7.31734e-109
6.29907e-109
4.36278e-109
2.51966e-109
1.22131e-109
6.25566e-110
1.19436e-109
1.33534e-105
1.98249e-101
2.25353e-97
1.91888e-93
1.18919e-89
1.28427e-85
4.12135e-83
2.2481e-82
4.80513e-83
1.54113e-82
2.26138e-87
4.81258e-95
8.4262e-100
8.38883e-105
1.17127e-109
1.44851e-110
1.44818e-110
1.83118e-109
3.96955e-108
3.02107e-107
1.07019e-106
2.39905e-106
1.37294e-106
5.33454e-107
2.27711e-109
1.14667e-111
3.37558e-111
2.83493e-110
1.02324e-109
1.74969e-109
1.89107e-109
6.60997e-106
-4.32555e-97
-1.85804e-101
4.57765e-106
8.19781e-105
-1.27013e-94
-3.13645e-99
3.59899e-103
5.39815e-103
6.31107e-103
1.73748e-104
-2.13701e-97
5.17256e-100
1.1331e-99
1.41292e-101
2.66403e-101
1.4186e-99
1.45833e-98
9.46398e-99
1.47208e-101
2.69804e-102
2.23899e-104
1.08594e-107
1.65146e-107
3.21938e-107
7.07739e-107
2.15478e-107
2.74418e-107
5.00796e-107
4.31432e-108
7.71275e-110
1.03222e-109
1.10354e-109
7.10822e-111
1.43739e-111
8.70298e-112
5.50592e-111
3.61626e-113
9.55265e-115
1.60328e-114
2.08282e-114
2.31526e-114
2.15794e-114
1.7185e-114
1.08533e-114
1.08534e-114
7.55731e-114
1.71943e-109
3.6363e-105
6.11753e-101
8.489e-97
9.44253e-93
7.79059e-89
4.60751e-85
5.14107e-81
1.54178e-78
8.11321e-78
1.70639e-78
5.63762e-78
8.77063e-83
1.93618e-90
4.0292e-95
4.48905e-100
5.29036e-105
4.9857e-110
2.5281e-114