/*--------------------------------*- C++ -*----------------------------------*\
| =========                 |                                                 |
| \\      /  F ield         | OpenFOAM: The Open Source CFD Toolbox           |
|  \\    /   O peration     | Version:  2412                                  |
|   \\  /    A nd           | Website:  www.openfoam.com                      |
|    \\/     M anipulation  |                                                 |
\*---------------------------------------------------------------------------*/
FoamFile
{
    version     2.0;
    format      ascii;
    arch        "LSB;label=32;scalar=64";
    class       volScalarField;
    location    "0.95";
    object      p_rgh;
}
// * * * * * * * * * * * * * * * * * * * * * * * * * * * * * * * * * * * * * //

dimensions      [1 -1 -2 0 0 0 0];

internalField   nonuniform List<scalar> 
6400
(
24423.7
24425.2
24438.3
24447
24446.5
24447
24448.4
24449.4
24447.1
24438.7
24423
24401.1
24373.5
24340.2
24303.8
24265.9
24227.4
24188.2
24149.8
24115.4
24088
24068.6
24056.6
24050.3
24048.7
24051.1
24057.4
24067
24079.3
24093.1
24107.4
24121.5
24134.9
24147.8
24160.3
24173.2
24186.8
24201.2
24216.3
24231.8
24247.5
24263.2
24278.9
24294.9
24311.5
24328.7
24346.8
24365.7
24385.2
24404.9
24424.6
24443.7
24461.5
24477.2
24489.9
24498.7
24502.6
24501
24493.2
24479.1
24459
24433.6
24404.2
24372.3
24339
24305.8
24273.8
24244.4
24218.9
24197.9
24181.4
24168.6
24159
24152.4
24149.7
24151.8
24158.4
24166.9
24171.8
24172.5
24435
24425.6
24432.5
24444.9
24451.1
24454
24454
24452.4
24448
24438.1
24421.3
24398.2
24369.9
24336.5
24299.5
24261
24222.3
24184.2
24147.8
24115.3
24088.6
24068.7
24055.5
24048.4
24046.7
24049.6
24056.6
24066.8
24079.4
24093.2
24107.5
24121.4
24134.8
24147.6
24160.2
24173.1
24186.6
24200.8
24215.6
24230.5
24245.5
24260.4
24275.5
24291.1
24307.5
24324.9
24343.3
24362.8
24382.9
24403.4
24423.9
24443.7
24462.3
24478.8
24492.3
24501.6
24505.9
24504.3
24496.1
24481.3
24460.2
24434
24403.9
24371.6
24338.2
24304.9
24273.2
24244.1
24218.9
24198.3
24182.1
24169.5
24160
24153.4
24150.5
24151.7
24156.9
24163.8
24167
24170
24449.1
24436.8
24436.8
24445.6
24453.4
24458.2
24458.3
24454.9
24448.2
24436.7
24419.3
24396.6
24369.2
24337.3
24301.9
24264.7
24227.3
24190.9
24156.8
24126.5
24101.5
24082.3
24069
24061.1
24058.3
24060
24065.7
24074.6
24085.9
24098.6
24112
24125.4
24138.4
24151.1
24163.6
24176.4
24189.8
24203.9
24218.5
24233.2
24247.9
24262.6
24277.4
24292.8
24309.1
24326.3
24344.5
24363.5
24383.2
24403.2
24423.2
24442.8
24461.5
24478.2
24492.1
24501.9
24506.7
24505.6
24498
24483.8
24463.7
24438.7
24410
24379
24346.6
24314
24282.4
24253.3
24228.1
24207.6
24191.6
24179.2
24169.8
24162.9
24158.9
24158.2
24160.3
24163.8
24164.1
24164.6
24452.8
24447
24446.6
24450.4
24455.2
24459.7
24460
24456.1
24448.4
24436.1
24418.3
24396.1
24369.9
24339.8
24306.1
24270
24233.6
24198.5
24166.2
24137.8
24114
24095.2
24081.5
24073
24069.4
24070.3
24075.2
24083.2
24093.5
24105.3
24117.8
24130.6
24143.1
24155.3
24167.6
24180.3
24193.7
24207.7
24222.2
24236.7
24251.2
24265.7
24280.4
24295.7
24311.8
24328.9
24346.9
24365.7
24384.9
24404.5
24424.2
24443.6
24462.1
24478.8
24492.8
24502.8
24507.8
24507
24499.8
24486.3
24467
24443
24415.4
24385.3
24353.7
24321.4
24290.1
24261.2
24236.2
24216
24200.4
24188.8
24180.1
24173.7
24169
24165.8
24163.6
24162.3
24159.7
24156.2
24447.8
24450
24453.5
24455.9
24457.8
24460.3
24460.4
24457.2
24450
24438
24420.4
24398.5
24373.2
24344.6
24312.8
24278.6
24243.7
24210
24178.9
24151.4
24128.2
24109.5
24095.8
24087
24083.2
24083.7
24088
24095.2
24104.5
24115.3
24126.9
24138.6
24150.3
24161.8
24173.6
24186
24199.1
24213
24227.2
24241.6
24255.9
24270.4
24285.2
24300.7
24317
24334.3
24352.3
24370.9
24389.9
24409.2
24428.6
24447.7
24465.9
24482.3
24495.9
24505.6
24510.4
24509.5
24502.5
24489.4
24470.8
24447.8
24421.3
24392.2
24361.4
24329.9
24299.1
24270.7
24246.2
24226.4
24211.3
24200.2
24192.3
24186
24180.3
24174.2
24167.7
24162.6
24158.3
24152.1
24442.9
24448.7
24455
24458.2
24459.6
24461.1
24461.1
24458.5
24452.1
24441.2
24424.6
24403.2
24378.5
24351.3
24321.5
24289.7
24257
24225.2
24195.6
24169.2
24146.7
24128.5
24114.9
24106.2
24102.2
24102.2
24105.7
24111.9
24120.1
24129.5
24139.7
24150.1
24160.5
24171.1
24182.2
24194.1
24206.8
24220.4
24234.3
24248.4
24262.6
24277.1
24292
24307.8
24324.4
24341.9
24359.9
24378.4
24397.2
24416.1
24435
24453.6
24471.3
24487.1
24500.2
24509.4
24513.9
24512.9
24506
24493.4
24475.7
24453.7
24428.3
24400.4
24370.6
24340
24310.2
24282.6
24258.8
24239.5
24224.9
24214.2
24206.1
24199.1
24191.8
24183.6
24175.3
24169.3
24164.9
24159.2
24443.1
24448.6
24455.1
24459.4
24461.8
24463.4
24463.4
24460.7
24454.7
24444.6
24428.9
24407.8
24383.3
24357
24329.3
24300.2
24270.4
24241.2
24214
24189.6
24168.7
24151.7
24138.9
24130.5
24126.2
24125.6
24128.1
24133
24139.6
24147.3
24155.7
24164.3
24173.3
24182.7
24193
24204.4
24216.8
24230.2
24244.1
24258.3
24272.7
24287.6
24303
24319.1
24336.1
24353.6
24371.5
24389.6
24407.8
24425.8
24443.8
24461.3
24477.8
24492.5
24504.6
24513
24517
24515.9
24509.4
24497.6
24481
24460.4
24436.5
24409.9
24381.3
24351.9
24323
24296.3
24273.1
24254.2
24239.7
24228.7
24219.6
24210.9
24202.1
24193.1
24185.6
24181
24176.7
24174
24449.1
24453.4
24458.3
24462.6
24465.7
24467.7
24467.5
24464.1
24457.2
24446.9
24432
24411.9
24388.1
24362.8
24336.6
24309.8
24282.6
24256.2
24231.5
24209.5
24190.5
24174.9
24162.9
24154.6
24149.8
24148.2
24149.3
24152.5
24157.3
24163.1
24169.6
24176.6
24184.2
24192.7
24202.4
24213.4
24225.7
24239
24253.1
24267.7
24282.7
24298.1
24314.1
24330.7
24347.9
24365.5
24383.2
24400.9
24418.3
24435.5
24452.4
24468.8
24484
24497.6
24508.7
24516.5
24520.2
24519.2
24513.3
24502.6
24487.4
24468.5
24446.2
24421.1
24393.9
24365.7
24337.8
24311.7
24288.5
24269.1
24253.5
24240.9
24229.8
24219.4
24209.5
24201
24195.8
24192.3
24187.3
24186.2
24458
24462.6
24465.9
24468.7
24471.1
24472.2
24471.1
24466.4
24458
24446.7
24432.1
24413.2
24391.2
24367.4
24343
24318.3
24293.6
24269.8
24247.9
24228.3
24211.3
24197.1
24185.7
24177.3
24171.8
24169
24168.5
24170
24172.8
24176.8
24181.5
24187
24193.5
24201.2
24210.3
24221
24233.2
24246.7
24261
24276.1
24291.7
24307.8
24324.3
24341.3
24358.6
24376.1
24393.5
24410.7
24427.5
24443.9
24459.9
24475.1
24489.3
24501.8
24512
24519.2
24522.6
24521.8
24516.4
24506.8
24493.1
24475.9
24455.4
24432
24406.3
24379.4
24352.6
24327.2
24304
24283.7
24266.4
24251.2
24237.8
24226
24216
24208.6
24204.7
24200.6
24194.5
24192.4
24468.6
24473.5
24475.6
24476.8
24477.6
24476.9
24474.3
24468.2
24458.3
24446.1
24431.7
24414.4
24394.7
24373.5
24351.7
24329.5
24307.5
24286.4
24267
24249.8
24234.7
24221.8
24210.9
24202.4
24196.2
24192.3
24190.5
24190.3
24191.5
24193.7
24197
24201.4
24206.9
24213.9
24222.6
24232.9
24244.8
24258.2
24272.6
24287.8
24303.6
24319.8
24336.3
24353.2
24370.2
24387.3
24404.3
24421
24437.1
24452.8
24467.9
24482.2
24495.5
24507.1
24516.6
24523.3
24526.6
24525.8
24521
24512.2
24499.9
24484.2
24465.5
24443.8
24419.6
24394.2
24368.6
24344.1
24321
24299.8
24280.5
24262.9
24247.4
24234.7
24225
24217.9
24213.1
24207.3
24200.3
24197.4
24480
24484.8
24485.6
24485.4
24484.5
24481.9
24478
24470.9
24460.4
24447.9
24433.7
24417.7
24400.1
24381.4
24362.1
24342.5
24323.1
24304.6
24287.7
24272.6
24259.2
24247.3
24237.1
24228.6
24222
24217.3
24214.4
24213
24212.9
24213.9
24216.1
24219.4
24224.1
24230.3
24238.3
24248
24259.5
24272.5
24286.6
24301.6
24317.2
24333
24349.2
24365.6
24382.3
24399.2
24415.8
24432.1
24447.8
24462.9
24477.3
24490.8
24503.1
24513.9
24522.8
24529.1
24532.1
24531.5
24527.1
24519.1
24508
24493.8
24476.6
24456.4
24433.6
24409.3
24384.9
24361.2
24338.3
24316.5
24295.9
24276.6
24259.6
24246.2
24235.9
24227.2
24220
24212.8
24205.1
24203.4
24488.3
24492.8
24492.5
24491
24488.7
24484.7
24479.8
24472.1
24461.7
24449.5
24435.9
24421.1
24405.1
24388.6
24371.6
24354.3
24337.2
24321.1
24306.4
24293.2
24281.2
24270.4
24260.7
24252.3
24245.5
24240.2
24236.6
24234.4
24233.5
24233.7
24235.1
24237.7
24241.7
24247.3
24254.5
24263.6
24274.5
24286.9
24300.5
24314.8
24329.7
24344.9
24360.3
24376.1
24392.3
24408.7
24424.9
24440.8
24456
24470.4
24484
24496.5
24507.9
24517.9
24526.1
24531.9
24534.7
24534.1
24530.1
24523.1
24513.3
24500.8
24485.3
24466.8
24445.5
24422.8
24399.8
24376.9
24354.4
24332.3
24311
24291
24273.3
24259.1
24247.2
24235.7
24226.4
24218.5
24210.5
24210.9
24494.8
24498.2
24496.8
24494.1
24490.7
24485.3
24479.8
24471.8
24461.7
24450.3
24437.8
24424.2
24409.8
24395
24379.8
24364.4
24349.5
24335.5
24322.9
24311.4
24300.9
24291.2
24282.3
24274.3
24267.6
24262.2
24258.3
24255.7
24254.4
24254.2
24255.2
24257.3
24260.8
24265.7
24272.4
24280.8
24290.9
24302.5
24315.3
24328.8
24342.7
24356.9
24371.5
24386.5
24402
24417.7
24433.3
24448.5
24462.9
24476.4
24488.9
24500.4
24510.7
24519.7
24527.2
24532.5
24535
24534.2
24530.5
24524.1
24515.6
24504.7
24490.9
24474
24454.4
24433.2
24411.6
24389.8
24367.8
24346.1
24325.2
24305.4
24287.5
24272.3
24258.7
24245.1
24235.1
24227.1
24219.9
24222.4
24499.4
24500.9
24498.5
24494.7
24490.3
24483.7
24477.3
24469.4
24459.6
24448.7
24437.2
24425.1
24412.5
24399.5
24386.1
24372.7
24359.9
24348
24337.4
24327.8
24318.9
24310.4
24302.5
24295.3
24289.1
24284
24280.3
24277.8
24276.4
24276.1
24276.9
24278.8
24282
24286.6
24292.8
24300.6
24310
24320.8
24332.5
24345
24357.8
24370.9
24384.5
24398.5
24413
24427.6
24442.1
24456.1
24469.3
24481.5
24492.6
24502.7
24511.9
24520.1
24527
24531.9
24534
24533.1
24529.3
24523.4
24515.6
24505.8
24493.3
24477.6
24459.4
24439.7
24419.5
24398.9
24377.8
24356.9
24337.1
24318.3
24300.7
24284.9
24270.4
24256.6
24246.9
24239.1
24232.9
24236.3
24502.4
24501.1
24497.3
24492.7
24487.7
24480.9
24473.7
24465.8
24456.7
24446.8
24436.6
24426
24415.2
24404
24392.7
24381.4
24370.7
24361
24352.4
24344.7
24337.3
24330.2
24323.4
24317.2
24311.7
24307.3
24304.1
24301.8
24300.6
24300.3
24301
24302.7
24305.6
24309.9
24315.6
24322.8
24331.4
24341.2
24351.8
24362.9
24374.4
24386.3
24398.6
24411.4
24424.5
24437.7
24450.7
24463.1
24474.6
24485.1
24494.5
24503.1
24511
24518.3
24524.7
24529.1
24530.9
24529.9
24526.2
24520.7
24513.7
24504.8
24493.4
24478.9
24462.1
24443.9
24425.3
24406.2
24386.6
24367.5
24349.7
24332.4
24315.6
24300
24286
24273.5
24264.7
24257.7
24251.8
24253.6
24504
24500.3
24495.2
24490.3
24484.7
24478.9
24472.6
24465.5
24457.5
24449
24440.2
24431.4
24422.5
24413.3
24403.9
24394.7
24386.1
24378.4
24371.7
24365.6
24359.7
24353.8
24348.1
24342.9
24338.4
24334.7
24332
24330.2
24329.1
24328.8
24329.4
24331
24333.6
24337.4
24342.5
24348.9
24356.4
24364.8
24374
24383.6
24393.4
24403.7
24414.3
24425.4
24436.8
24448.2
24459.4
24469.9
24479.5
24488
24495.6
24502.6
24509.4
24515.9
24521.6
24525.5
24527
24525.8
24522.4
24517.4
24511.2
24503.6
24493.5
24480.7
24465.5
24449.4
24433
24416.2
24398.8
24382.2
24366.9
24352
24336.6
24322.2
24310.1
24299.4
24291.9
24286.3
24279.7
24279.9
24504.4
24498.5
24493
24489.2
24483.9
24478.5
24473
24467.1
24460.8
24454.2
24447.5
24440.7
24433.7
24426.4
24419
24411.8
24405.2
24399.3
24394.2
24389.4
24384.7
24380
24375.4
24371.2
24367.6
24364.8
24362.6
24361.2
24360.5
24360.4
24361
24362.5
24364.9
24368.2
24372.6
24378
24384.3
24391.3
24398.8
24406.6
24414.6
24422.8
24431.5
24440.5
24449.7
24459
24468
24476.5
24484.1
24490.8
24496.7
24502.4
24508.1
24513.8
24518.7
24522.1
24523.1
24521.7
24518.4
24513.9
24508.7
24502.4
24494.2
24483.2
24470.1
24456.2
24442.4
24428.3
24413.7
24399.7
24387.1
24374.8
24361.8
24349.6
24340.3
24331.3
24325.9
24321
24313.2
24313
24505.2
24497.3
24491.9
24489.8
24485.9
24481.6
24477.3
24472.8
24468.2
24463.5
24458.8
24454
24449
24443.7
24438.3
24433
24428.2
24424.1
24420.3
24416.8
24413.2
24409.7
24406.3
24403.2
24400.6
24398.6
24397.2
24396.2
24395.8
24395.9
24396.6
24398
24400.1
24402.8
24406.4
24410.6
24415.4
24420.8
24426.4
24432.1
24437.9
24444
24450.3
24457
24463.8
24470.8
24477.6
24483.9
24489.6
24494.5
24499
24503.4
24507.9
24512.6
24516.7
24519.4
24520.1
24518.7
24515.7
24511.6
24507.3
24502.4
24496.1
24487.4
24476.6
24465.3
24454.3
24443.4
24431.9
24421
24411.4
24402.1
24392.1
24383.2
24376.8
24370.6
24367.5
24363.9
24356.8
24357.2
24509.8
24495.9
24493.9
24495.8
24495
24492.7
24490.3
24487.8
24485.2
24482.6
24479.9
24477
24474
24470.8
24467.5
24464.2
24461.3
24458.8
24456.5
24454.3
24452.2
24450.1
24448.1
24446.4
24445.1
24444
24443.3
24442.8
24442.6
24442.7
24443.2
24444
24445.3
24447
24449.1
24451.6
24454.4
24457.5
24460.8
24464.1
24467.5
24471
24474.8
24478.7
24482.9
24487.3
24491.6
24495.7
24499.4
24502.6
24505.5
24508.3
24511.3
24514.2
24516.8
24518.5
24518.9
24517.9
24515.5
24512.4
24509.1
24505.9
24502
24496.6
24489.3
24481.3
24473.7
24467
24460.4
24454.2
24448.5
24442.9
24437.3
24432.3
24429.4
24426.1
24423.1
24419.9
24416.8
24428.5
24523.4
24506.4
24504.1
24506.2
24507.9
24508.2
24508
24507.7
24507.4
24507
24506.5
24505.9
24505.1
24504.2
24503.2
24502.3
24501.5
24500.8
24500.2
24499.6
24499.1
24498.6
24498.2
24497.9
24497.8
24497.7
24497.8
24497.8
24497.9
24498
24498.2
24498.4
24498.7
24499.1
24499.5
24500.1
24500.6
24501.2
24501.8
24502.4
24503
24503.8
24504.6
24505.5
24506.5
24507.6
24508.7
24509.9
24510.9
24511.8
24512.5
24513.3
24514.2
24515
24515.8
24516.2
24516.4
24516.1
24515.4
24514.2
24513.1
24512.1
24511.2
24509.7
24507.5
24504.8
24502.5
24501
24499.8
24498.7
24497.7
24496.7
24495.7
24495
24495.5
24494.2
24490.8
24488.8
24492.1
24514.3
0.279246
0.618423
0.499343
0.371035
0.304547
0.246149
0.194742
0.163859
0.146959
0.13677
0.133267
0.130449
0.128658
0.130027
0.134441
0.144954
0.158406
0.170563
0.190997
0.23387
0.280136
0.322263
0.367444
0.41699
0.46445
0.509419
0.556181
0.598625
0.639968
0.694464
0.762667
0.820302
0.873512
0.926174
0.966385
0.989334
0.998678
1.00149
0.990713
0.965273
0.924724
0.880909
0.835432
0.841622
0.837435
0.824362
0.804889
0.782192
0.756621
0.728327
0.696873
0.663421
0.626461
0.587674
0.551666
0.522368
0.500544
0.489433
0.523401
0.589319
0.657465
0.720147
0.77956
0.841165
0.898378
0.950232
0.98912
1.0224
1.04993
1.06415
1.0726
1.07151
1.04489
1.01484
0.981856
0.939219
0.91624
0.899823
0.970722
0.925157
-0.00186559
-0.00437138
-0.000982717
0.000312359
0.000173199
0.000179312
0.000210792
9.54133e-05
2.80864e-05
7.93909e-05
0.000122378
0.000101618
8.50109e-05
8.72287e-05
0.000110739
0.000132048
0.000128296
0.000111341
9.81719e-05
9.85934e-05
0.000104711
0.000108598
0.000111243
0.000113022
0.000114926
0.0001156
0.000114341
0.000114423
0.000116972
0.000120653
0.0001246
0.000127235
0.000129855
0.00013302
0.000136136
0.00013852
0.000139931
0.000141204
0.000142225
0.000142618
0.000144193
0.000145956
0.000145364
0.000144961
0.000146877
0.000145474
0.000142288
0.000142124
0.000144008
0.000142806
0.000131086
0.000130502
0.000147938
0.00012826
0.000115752
0.000139858
0.00012421
0.000100594
0.000117492
0.00013413
0.000107071
7.14353e-05
0.000103127
0.000131854
0.00010854
6.24068e-05
5.49302e-05
8.98356e-05
0.000135584
0.000109678
3.4986e-05
2.94719e-05
9.3494e-05
0.000125422
0.000122751
9.48491e-05
3.74012e-05
3.01546e-05
9.13583e-05
9.48149e-05
9.98566e-05
-0.00307649
-0.00123286
0.000226897
0.000256377
0.000168539
0.000213177
0.00013774
6.20871e-05
7.38633e-05
0.00010904
0.000107544
9.745e-05
9.50802e-05
0.000108129
0.000123604
0.000120628
0.000109701
0.000102057
0.000102581
0.000107534
0.000111461
0.000115453
0.000118771
0.000119646
0.000119437
0.000118139
0.000118851
0.000121536
0.000124846
0.000128246
0.000130753
0.000133503
0.000136655
0.000139423
0.000141404
0.000142405
0.000143355
0.000144674
0.000145317
0.000146414
0.000147798
0.000147365
0.000146429
0.000147767
0.000146841
0.000143715
0.000142831
0.000143422
0.000144429
0.000136615
0.000128545
0.000144835
0.000136081
0.000116033
0.000134332
0.000130402
0.000107623
0.000112473
0.000127002
0.000120222
8.48876e-05
9.63813e-05
0.00012032
0.000115789
8.09154e-05
6.81954e-05
8.18424e-05
0.000117743
0.000113804
6.456e-05
4.55856e-05
8.69223e-05
0.000114132
0.000111324
9.99328e-05
6.32454e-05
5.01551e-05
7.72996e-05
8.89139e-05
0.00351481
-0.000530041
-0.0009913
5.59136e-05
0.000234118
0.000110199
0.000196106
0.000254257
0.000191536
0.00010279
9.03055e-05
0.000107884
0.00012403
0.000124658
0.000117961
0.000117518
0.000113571
0.00011026
0.000107241
0.000106693
0.000109949
0.000114358
0.000119193
0.000122523
0.000121142
0.000119771
0.000119041
0.000121055
0.000124566
0.000127888
0.000130925
0.000133224
0.000135542
0.000138106
0.000140221
0.000141889
0.000142856
0.000143662
0.000145509
0.000146531
0.000146866
0.000147881
0.000148075
0.00014573
0.000146109
0.000147083
0.000145023
0.000142286
0.000139206
0.000143754
0.000145776
0.000126352
0.000135372
0.000146597
0.000119395
0.00012477
0.000136798
0.000120197
0.000107398
0.000110886
0.000134939
0.000106262
8.78461e-05
9.77895e-05
0.000120054
0.000107652
8.72971e-05
6.86964e-05
8.35226e-05
0.000116564
0.000105145
6.57642e-05
6.58612e-05
8.46808e-05
8.54295e-05
0.00010307
9.93188e-05
7.21404e-05
6.61847e-05
7.27106e-05
0.00279031
0.000519404
-0.000198784
4.81357e-05
0.000188486
6.63132e-05
8.50931e-05
0.000186081
0.000199903
0.00013049
9.22478e-05
9.81184e-05
0.000124392
0.000138597
0.000128925
0.000114293
0.000105065
0.000104929
0.000107725
0.000109225
0.000111969
0.000116551
0.000120593
0.000123032
0.00012106
0.000119574
0.00011944
0.000121549
0.000124812
0.000127456
0.000130143
0.000132865
0.000135584
0.000138202
0.000140013
0.000141311
0.000142454
0.000143199
0.000144569
0.000145902
0.000145984
0.000145866
0.000146366
0.000144872
0.000144416
0.000144294
0.000142989
0.000144319
0.000140034
0.000136049
0.000147137
0.000134196
0.000127728
0.000143964
0.000127702
0.000121906
0.000128427
0.000122783
0.000119765
0.000105681
0.000124393
0.000111822
0.000100773
9.41507e-05
0.000115043
0.00010853
9.13913e-05
7.90161e-05
8.39752e-05
0.000109094
0.000107946
7.09434e-05
5.61922e-05
7.66911e-05
8.40044e-05
9.71863e-05
0.000109075
9.49061e-05
7.96663e-05
6.29773e-05
0.00115549
0.000414669
-7.1509e-05
4.44434e-05
0.00020573
0.000149171
6.48414e-05
9.19336e-05
0.000139899
0.000132769
0.000110664
0.000102628
0.000115801
0.000132776
0.000130254
0.000118152
0.000108968
0.000105984
0.000108139
0.000110805
0.000115024
0.000120055
0.000122524
0.000122896
0.000120346
0.000119341
0.000120346
0.000122648
0.000125688
0.000128318
0.000131209
0.000134462
0.000137462
0.000140038
0.000141782
0.000142817
0.000144026
0.000145302
0.000146347
0.000147198
0.000147648
0.000147441
0.000146867
0.000144845
0.000145712
0.000146448
0.00014077
0.000141031
0.000145365
0.00013713
0.000139507
0.000137697
0.000130841
0.00013717
0.000126165
0.000127812
0.000130149
0.000113833
0.000115857
0.000113947
0.000129024
0.000109373
9.80367e-05
8.67686e-05
0.000114774
0.000128577
9.89727e-05
6.92068e-05
7.20534e-05
0.000107323
0.000129713
0.000107265
6.54921e-05
5.47966e-05
6.30055e-05
8.57315e-05
0.000109924
0.000105768
9.64733e-05
7.6785e-05
0.000405815
0.000364456
9.33381e-06
-5.84303e-05
0.000140102
0.000220675
0.000134028
9.13863e-05
0.000100108
0.00011799
0.000121342
0.000117786
0.000115452
0.00012144
0.000122083
0.000115974
0.00011177
0.000108845
0.000109524
0.000112728
0.000117024
0.000121452
0.000122618
0.000122121
0.000120027
0.000119305
0.000120445
0.000121981
0.000123794
0.000125647
0.000128166
0.000131373
0.000134239
0.000136395
0.000138072
0.00013906
0.000139684
0.00014094
0.000142225
0.000142138
0.000142033
0.000143289
0.000144235
0.000140342
0.000139605
0.00014634
0.00014329
0.000133405
0.000138969
0.000143173
0.000137923
0.000130009
0.00013389
0.000140447
0.000119141
0.000120421
0.000140772
0.000123771
0.000102284
9.81595e-05
0.000131886
0.000127718
0.000104073
7.28035e-05
8.41151e-05
0.000133407
0.000134117
8.73279e-05
6.05454e-05
8.40062e-05
0.000116321
0.000127894
0.000116388
8.54702e-05
6.09566e-05
6.67222e-05
9.27284e-05
0.000103355
0.000101322
9.58023e-05
-1.31152e-05
0.000374432
0.0001601
-4.75764e-05
2.13851e-05
0.000159645
0.000164851
0.000120887
0.00010174
0.000111306
0.000126271
0.000132552
0.000124652
0.000116993
0.000115308
0.000112529
0.000111545
0.000110309
0.000111413
0.000115651
0.00011967
0.000122223
0.00012172
0.000120643
0.00011989
0.000120517
0.000122596
0.000124687
0.000126779
0.000128827
0.000131153
0.000133895
0.000136222
0.000137581
0.000138906
0.000140494
0.000141113
0.000141721
0.000143751
0.000144217
0.000142476
0.000142608
0.000146673
0.000144488
0.000136878
0.000141338
0.000149842
0.000139591
0.00012884
0.000140149
0.000146954
0.00012575
0.000125527
0.000147735
0.000127912
0.000105056
0.000128291
0.000145383
0.000119622
8.36085e-05
0.000105866
0.00013296
0.000133707
9.04913e-05
6.24078e-05
9.96283e-05
0.000142402
0.000113643
7.23272e-05
7.54834e-05
9.7868e-05
0.000109055
0.000122001
0.00011071
7.74214e-05
6.16566e-05
7.14697e-05
9.33045e-05
9.55771e-05
0.000101761
-0.000205333
0.000188287
0.000237141
6.67609e-05
6.05226e-06
8.5825e-05
0.000135798
0.000132795
0.000110325
0.00010529
0.000116928
0.000127334
0.000126296
0.000117117
0.000114376
0.000112697
0.000112795
0.000113112
0.000114733
0.000118884
0.000122021
0.000122917
0.000121625
0.000119814
0.000119157
0.000119408
0.000120646
0.000122234
0.000124385
0.000126953
0.000129514
0.000131937
0.00013395
0.000134766
0.000135122
0.00013678
0.000138122
0.000137769
0.000139292
0.000141962
0.000141093
0.000138453
0.00014193
0.000146617
0.0001397
0.000132371
0.000142211
0.000149048
0.000129813
0.00012687
0.000151042
0.000134517
0.000113385
0.000137767
0.000143252
0.000115061
0.000104024
0.000133295
0.000143002
0.000103772
8.6697e-05
0.00011275
0.000138076
0.000117099
7.57637e-05
7.2945e-05
0.000126124
0.000131831
8.4292e-05
6.80719e-05
8.55716e-05
9.06552e-05
0.000107893
0.000119297
0.000103964
8.3232e-05
7.06921e-05
8.24426e-05
8.86552e-05
9.44857e-05
-0.000193817
3.33549e-06
0.000201416
0.000186351
8.55546e-05
7.80404e-05
0.000110231
0.000129732
0.000124188
0.000113059
0.000112173
0.000117017
0.000121339
0.000116263
0.000113502
0.000111456
0.000111702
0.000114261
0.00011737
0.000120845
0.000122743
0.000122499
0.000121362
0.000120766
0.000121247
0.000122101
0.000123198
0.000124432
0.000126121
0.000128293
0.000130359
0.000131825
0.000133208
0.000134198
0.000134164
0.000135298
0.000137824
0.000137942
0.000137636
0.000140361
0.000142152
0.000139741
0.000137929
0.000142379
0.000145059
0.000135475
0.000130147
0.000147385
0.00014024
0.000118385
0.000140408
0.000146002
0.00012107
0.000123448
0.000135307
0.0001325
0.00010621
0.000115394
0.000138196
0.000122078
8.94328e-05
0.00010052
0.000134443
0.000128457
9.34151e-05
6.45551e-05
9.91887e-05
0.000140313
0.000111022
7.21842e-05
7.42652e-05
7.93718e-05
9.10339e-05
0.000114874
0.000116216
0.000106153
8.90864e-05
8.22422e-05
8.95367e-05
9.208e-05
-3.97783e-05
-9.21206e-05
7.72721e-05
0.000183
0.000144892
0.000107038
9.98943e-05
0.000113543
0.000122218
0.000118193
0.000113666
0.000111468
0.000116527
0.000116618
0.000115567
0.000113725
0.000113167
0.000115515
0.000118672
0.00012094
0.000121814
0.000120977
0.000120453
0.000120316
0.000120859
0.000121723
0.000122802
0.000124315
0.000126283
0.000128464
0.000130518
0.000131633
0.000132292
0.000133464
0.000133831
0.000133965
0.000136172
0.000137635
0.000137158
0.000137867
0.000139162
0.000140273
0.00013945
0.000136438
0.000140051
0.000142466
0.000128452
0.000137271
0.00014819
0.000124212
0.00012885
0.000139302
0.000128852
0.000131101
0.000125249
0.000129475
0.000109285
0.000113915
0.000132065
0.000132939
9.05982e-05
8.49252e-05
0.000132122
0.000137879
0.000113002
7.91142e-05
7.69331e-05
0.000124961
0.000136309
0.00010416
8.51418e-05
7.58338e-05
7.30833e-05
9.42846e-05
0.000108034
0.000107634
0.000107795
9.38724e-05
9.01646e-05
9.06896e-05
0.000179877
1.46943e-05
2.86191e-05
0.000127047
0.000149186
0.000127084
0.000102068
0.000100543
0.000111849
0.000116206
0.000116626
0.000112108
0.000113907
0.000115206
0.000115859
0.000116392
0.000117442
0.000119344
0.000121219
0.000121571
0.000121604
0.00012067
0.000120257
0.000120485
0.000121072
0.000121893
0.000122829
0.00012418
0.000125953
0.000127517
0.000129002
0.000130206
0.000130824
0.000132122
0.000133675
0.00013433
0.000135576
0.000136627
0.000137135
0.000138902
0.00013715
0.000135462
0.00014076
0.000139756
0.00013331
0.000140988
0.00013364
0.00012997
0.000143575
0.00013156
0.000134861
0.00013256
0.000116255
0.000135816
0.000135062
0.000136753
0.000102561
0.000100551
0.000123317
0.000153811
0.000106997
6.79901e-05
0.000110567
0.000138532
0.000123465
0.000101307
7.8768e-05
0.000102288
0.000130506
0.000121042
0.000107201
9.06623e-05
6.97843e-05
7.5234e-05
9.13359e-05
9.17862e-05
0.000104822
0.000105933
9.56484e-05
8.8749e-05
0.000231029
0.000140603
6.58936e-05
8.7129e-05
0.000119769
0.000123916
0.000108344
9.76572e-05
0.000103781
0.000109714
0.000115624
0.000114334
0.000114194
0.000114168
0.000114282
0.000115183
0.000117618
0.000119961
0.000121943
0.000121877
0.000122004
0.000121708
0.000121416
0.000121549
0.000121973
0.000122943
0.000124273
0.000125879
0.000127956
0.000129608
0.000130611
0.000131723
0.000132686
0.000133631
0.000134851
0.000136144
0.000137977
0.000137761
0.00013582
0.000140502
0.000141838
0.000134415
0.000135045
0.000144516
0.000136641
0.000136013
0.000136458
0.000134263
0.000139095
0.0001229
0.000138403
0.000149314
0.000113347
0.000116527
0.000129609
0.000156098
0.000120473
8.96755e-05
9.10617e-05
0.000152902
0.000133676
7.65968e-05
8.46982e-05
0.000124271
0.000117533
0.000100435
8.42808e-05
8.84581e-05
0.000110812
0.000115013
0.000119036
0.000118231
9.53518e-05
7.97816e-05
8.92657e-05
8.53603e-05
8.8933e-05
0.000104039
0.000105332
9.70021e-05
0.000164768
0.000176022
0.000112329
8.07231e-05
8.92026e-05
0.000105145
0.000109637
0.00010231
0.000104223
0.000107813
0.000114657
0.000116547
0.000116704
0.000116314
0.000116467
0.000116421
0.000117762
0.000118501
0.000119739
0.000119479
0.000119744
0.000120225
0.000120558
0.00012113
0.000121169
0.000121894
0.000123216
0.000124577
0.00012637
0.000128384
0.000129705
0.000130853
0.00013271
0.000134753
0.000135569
0.00013574
0.000138817
0.000141393
0.000135941
0.000136381
0.000145001
0.000141446
0.000131211
0.000140603
0.000143768
0.000136541
0.000129349
0.000136053
0.000150764
0.000120611
0.000118024
0.000157384
0.000134063
0.000116067
0.000102712
0.000147656
0.000146712
0.000107826
7.43146e-05
0.000128707
0.000146771
0.000105607
7.82096e-05
0.000111014
0.000123767
0.000102856
8.16089e-05
7.85211e-05
9.16959e-05
9.37406e-05
0.000103581
0.000125332
0.000123638
0.000102743
9.73168e-05
9.34553e-05
8.24331e-05
8.61039e-05
0.00010156
0.000107844
8.31038e-05
0.000140788
0.000132968
9.34054e-05
8.06334e-05
8.99287e-05
0.000105503
0.00010616
0.000107512
0.000108878
0.000113558
0.000116173
0.000116808
0.000116386
0.000117714
0.000118392
0.000120162
0.000120511
0.000121498
0.000121363
0.000121247
0.000121479
0.000121571
0.000121768
0.000122481
0.000123737
0.000125659
0.000127362
0.000128819
0.000130842
0.000132884
0.000133954
0.00013527
0.000138199
0.00014022
0.000138589
0.000138896
0.000145462
0.00014399
0.000136674
0.000142447
0.000149766
0.000138006
0.000134381
0.000145678
0.000149473
0.000129541
0.000121708
0.000154055
0.000139574
0.000107734
0.000137507
0.000138925
0.000133249
9.76567e-05
0.000126273
0.000153785
0.000127302
8.33473e-05
0.00011489
0.000138132
0.000123585
8.74963e-05
9.31108e-05
0.000123525
0.000121936
9.90853e-05
8.5266e-05
8.58114e-05
7.70559e-05
7.51783e-05
9.494e-05
0.000115675
0.000117246
0.000107742
0.000108607
0.000100867
8.43965e-05
8.2778e-05
9.52836e-05
4.9748e-05
8.5121e-05
0.00011497
0.000106029
9.09538e-05
8.82324e-05
0.00010101
0.000107169
0.000110863
0.000111716
0.000113145
0.000114103
0.000114606
0.000113611
0.000114974
0.000115423
0.000117293
0.000117892
0.000119105
0.00011979
0.000120002
0.000120347
0.000120595
0.000121209
0.000122156
0.000123232
0.000125097
0.000127186
0.000128688
0.000130406
0.000133284
0.000135598
0.000136425
0.00013863
0.000142631
0.000143219
0.000139951
0.000143524
0.00014847
0.000142753
0.000140667
0.000150194
0.000147696
0.000133346
0.000133876
0.00015407
0.000146658
0.000117772
0.0001361
0.000146223
0.000117894
0.000131264
0.000129742
0.00013829
9.76892e-05
0.000108949
0.000156539
0.000136004
9.44244e-05
0.000116095
0.000123879
0.000129124
0.00011098
8.77708e-05
0.000104808
0.000122445
0.000116252
0.000109041
0.000108237
9.19698e-05
7.39074e-05
6.98715e-05
8.31907e-05
0.000100877
0.000100951
9.99133e-05
0.000111087
0.000107151
9.11e-05
8.35711e-05
7.13189e-05
6.04516e-05
8.75721e-05
0.000104502
0.0001036
9.70237e-05
0.000101492
0.000107866
0.000113081
0.000114926
0.000114645
0.000113736
0.000114285
0.000113462
0.000115426
0.000116045
0.000117759
0.000118495
0.000119294
0.000119902
0.000119966
0.000120266
0.000120719
0.000121775
0.000123312
0.000125123
0.000127072
0.000129475
0.000131587
0.000133021
0.000135417
0.000138658
0.000140072
0.000140597
0.000142965
0.000146345
0.000145797
0.000145063
0.000147726
0.000147217
0.000142767
0.00014576
0.000153183
0.00014551
0.000128057
0.000140209
0.000151042
0.000130975
0.000132464
0.000138142
0.000113888
0.000130266
0.000129396
0.000150353
0.000102135
7.9128e-05
0.000142269
0.000140994
0.000102585
0.000119914
0.000116725
0.000112746
0.00011704
9.64452e-05
9.1668e-05
0.000103252
0.000106603
0.000116491
0.000132093
0.000121925
0.00010462
9.35492e-05
7.93228e-05
8.48428e-05
9.67464e-05
9.12439e-05
9.42047e-05
0.000108953
0.000111411
0.000101194
0.000106562
7.68447e-05
8.00299e-05
9.66855e-05
0.000105394
0.000103712
0.000104145
0.000107377
0.000110405
0.000112108
0.000111981
0.000110797
0.000112152
0.000111832
0.000114307
0.00011556
0.000117228
0.000118365
0.000119222
0.000120063
0.000120306
0.000120733
0.000121348
0.000122391
0.000123942
0.000125919
0.000127913
0.000130251
0.000133109
0.000135429
0.000137506
0.00014056
0.000143093
0.000144849
0.000145352
0.000145674
0.000147643
0.00015031
0.000149262
0.000148401
0.000146358
0.00014228
0.000145514
0.000151726
0.00013814
0.000138527
0.000141381
0.000128573
0.000138712
0.000147947
0.000112341
0.000116843
0.000110766
0.000156077
0.000122579
6.89068e-05
0.00011611