/*--------------------------------*- C++ -*----------------------------------*\
| =========                 |                                                 |
| \\      /  F ield         | OpenFOAM: The Open Source CFD Toolbox           |
|  \\    /   O peration     | Version:  2412                                  |
|   \\  /    A nd           | Website:  www.openfoam.com                      |
|    \\/     M anipulation  |                                                 |
\*---------------------------------------------------------------------------*/
FoamFile
{
    version     2.0;
    format      ascii;
    arch        "LSB;label=32;scalar=64";
    class       volScalarField;
    location    "4";
    object      alpha.glycerin;
}
// * * * * * * * * * * * * * * * * * * * * * * * * * * * * * * * * * * * * * //

dimensions      [0 0 0 0 0 0 0];

internalField   nonuniform List<scalar> 
6400
(
1
1
1
1
1
1
1
1
1
1
1
1
1
1
1
1
1
1
1
1
1
1
1
1
1
1
1
1
1
1
1
1
1
1
1
1
1
1
1
1
1
1
1
1
1
1
1
1
1
1
1
1
1
1
1
1
1
1
1
1
1
1
0.999999
0.999999
0.999999
0.999999
1
1
1
1
0.999999
1
1
1
1
1
1
1
1
1
1
1
1
1
1
1
1
0.999999
0.999999
0.999999
0.999999
0.999999
0.999999
0.999999
0.999999
0.999999
0.999999
0.999999
0.999999
0.999999
0.999999
0.999999
0.999999
0.999999
0.999999
0.999999
0.999999
1
1
1
1
1
1
1
1
1
1
1
1
1
1
1
1
1
1
1
1
1
1
1
1
1
1
1
1
1
1
1
0.999999
0.999999
0.999999
0.999998
0.999999
0.999999
0.999999
1
1
0.999999
0.999999
0.999999
0.999999
0.999999
1
1
1
1
1
1
1
1
1
1
1
1
1
0.999999
0.999999
0.999999
0.999999
0.999999
0.999999
0.999999
0.999999
0.999999
0.999999
0.999999
0.999999
0.999999
0.999999
0.999999
0.999999
0.999999
0.999999
0.999999
0.999999
0.999999
1
1
1
1
1
1
1
1
1
1
1
1
1
1
1
1
1
1
1
1
1
1
1
1
1
1
1
0.999999
0.999999
0.999999
0.999999
0.999998
0.999998
0.999999
1
1
1
1
0.999999
0.999999
0.999999
0.999999
0.999999
0.999999
0.999999
0.999999
0.999999
0.999999
1
1
1
1
1
1
1
1
1
1
1
1
1
1
1
1
1
1
1
1
1
1
1
1
1
1
0.999999
0.999999
0.999999
0.999999
0.999999
0.999999
0.999999
0.999999
0.999999
0.999999
0.999999
0.999999
0.999999
0.999999
0.999999
0.999999
0.999999
0.999999
0.999999
0.999999
0.999999
0.999999
0.999999
0.999999
0.999999
0.999999
0.999999
0.999999
0.999999
0.999999
0.999999
0.999999
0.999999
0.999999
0.999999
0.999999
1
1
1
1
0.999999
1
0.999999
0.999999
0.999999
0.999999
0.999999
1
1
1
1
1
1
1
1
1
1
1
1
1
1
1
1
1
1
1
1
1
1
1
1
1
1
1
1
1
1
1
1
1
1
1
1
1
1
1
1
0.999999
0.999999
0.999999
0.999999
0.999999
0.999998
0.999998
0.999998
0.999998
0.999998
0.999998
0.999998
0.999998
0.999998
0.999998
0.999998
0.999998
0.999998
0.999998
0.999998
0.999998
0.999999
0.999999
0.999999
0.999999
1
1
1
1
1
1
0.999999
0.999999
0.999999
1
1
1
1
1
1
1
1
1
1
1
1
1
1
1
1
1
1
1
1
1
1
1
1
1
1
1
1
1
1
1
1
1
1
1
1
1
1
1
1
1
1
1
1
1
1
1
0.999999
0.999999
0.999999
0.999999
0.999998
0.999998
0.999998
0.999998
0.999998
0.999998
0.999997
0.999997
0.999997
0.999997
0.999997
0.999997
0.999997
0.999997
0.999997
0.999998
0.999998
0.999999
0.999999
0.999999
0.999999
0.999999
0.999999
0.999999
0.999999
1
1
1
1
1
1
1
1
1
1
1
1
1
1
1
1
1
1
1
1
1
1
1
1
1
1
1
1
1
1
1
1
1
1
1
1
1
1
1
1
1
1
1
1
1
1
1
1
1
1
1
0.999999
0.999999
0.999999
0.999998
0.999998
0.999998
0.999998
0.999998
0.999998
0.999997
0.999997
0.999997
0.999997
0.999997
0.999997
0.999997
0.999997
0.999997
0.999997
0.999997
0.999997
0.999998
0.999998
0.999998
0.999998
0.999999
0.999998
0.999998
0.999999
0.999999
0.999999
1
1
1
1
1
1
1
1
1
1
1
1
1
1
1
1
1
1
1
1
1
1
1
1
1
1
1
1
1
1
1
1
1
1
1
1
1
1
1
1
1
1
1
1
1
1
1
1
0.999999
0.999999
0.999999
0.999999
0.999999
0.999998
0.999998
0.999998
0.999998
0.999997
0.999998
0.999997
0.999998
0.999997
0.999998
0.999998
0.999998
0.999998
0.999998
0.999997
0.999997
0.999997
0.999998
0.999998
0.999999
0.999999
1
0.999999
0.999999
0.999999
0.999999
0.999999
1
1
1
1
1
1
1
1
1
1
1
1
1
1
1
1
1
1
1
1
1
1
1
1
1
1
1
1
1
1
1
1
1
1
1
1
1
1
1
1
1
1
1
1
1
1
1
0.999999
0.999999
0.999999
0.999999
0.999999
0.999998
0.999999
0.999998
0.999998
0.999998
0.999998
0.999998
0.999998
0.999998
0.999999
0.999999
0.999999
0.999999
0.999999
0.999998
0.999998
0.999998
0.999998
0.999999
0.999999
0.999999
1
1
1
1
1
1
1
1
1
1
1
1
1
1
1
1
1
1
1
1
1
1
1
1
1
1
1
1
1
1
1
1
1
1
1
1
1
1
1
1
1
1
1
1
1
1
1
1
1
1
1
1
0.999999
0.999999
0.999999
0.999999
0.999999
0.999999
0.999999
0.999999
0.999999
0.999999
0.999999
0.999999
0.999999
0.999999
0.999999
0.999999
0.999999
1
1
1
1
1
0.999999
0.999999
0.999999
0.999999
0.999999
0.999999
0.999999
1
1
1
1
1
1
1
0.999999
1
1
1
1
1
1
1
1
1
1
1
1
1
1
1
1
1
1
1
1
1
1
1
1
1
1
1
1
1
1
1
1
1
1
1
1
1
1
1
1
1
1
1
1
0.999999
0.999999
0.999999
0.999999
0.999999
0.999999
0.999999
1
0.999999
1
0.999999
1
1
1
1
1
1
1
1
1
1
1
1
0.999999
0.999998
0.999998
0.999997
0.999998
0.999999
1
1
1
1
1
0.999999
0.999999
0.999999
0.999999
0.999999
0.999999
0.999999
0.999999
0.999999
0.999999
0.999999
0.999999
1
1
1
1
1
1
1
1
1
1
1
1
1
1
0.999999
1
1
1
1
1
1
1
1
1
1
1
1
1
1
1
1
1
1
1
1
1
1
1
1
1
1
1
1
1
1
1
1
1
1
1
1
1
1
1
1
1
1
1
1
1
1
1
1
1
1
1
1
1
1
1
1
1
1
0.999999
0.999999
0.999999
0.999999
0.999999
0.999999
0.999999
1
1
1
1
1
1
1
1
1
1
1
0.999999
1
1
0.999999
0.999999
1
1
1
1
1
0.999999
0.999999
0.999999
0.999999
1
1
1
1
1
1
1
1
1
1
1
1
1
1
1
1
1
1
1
1
1
1
1
1
1
1
1
1
1
1
1
1
1
1
1
1
1
1
1
1
1
1
1
1
1
1
1
1
1
1
1
1
1
1
1
1
1
1
1
1
1
1
1
1
1
1
0.999999
1
1
0.999999
0.999999
0.999999
1
1
1
1
0.999999
0.999999
0.999999
1
1
1
1
1
1
1
1
1
1
1
1
1
1
1
1
1
1
1
1
1
1
1
1
1
1
1
1
1
1
1
1
1
1
1
1
1
0.999999
1
1
1
1
1
1
1
1
1
1
1
1
1
1
1
1
1
1
1
1
1
1
1
1
1
1
0.999999
1
1
0.999999
1
1
1
1
1
1
1
1
1
1
1
1
1
1
1
1
1
1
1
1
1
1
1
1
1
1
0.999999
0.999999
0.999999
0.999999
0.999999
1
1
1
1
1
1
1
1
1
1
0.999999
1
1
0.999999
0.999998
0.999998
1
1
1
1
1
1
1
1
1
1
1
1
1
1
1
1
1
1
1
1
1
1
1
1
1
1
1
1
1
1
1
1
0.999998
1
1
1
1
1
1
1
1
1
1
1
1
1
1
1
1
1
1
1
1
1
1
1
0.999999
0.999999
0.999999
0.999999
0.999998
0.999999
0.999999
0.999999
0.999999
1
1
0.999999
0.999999
1
1
1
1
1
0.999999
0.999998
0.999998
1
0.999999
0.999998
0.999998
0.999998
0.999998
0.999999
0.999999
1
1
1
1
1
1
1
1
1
1
1
1
1
1
1
1
1
1
1
1
1
1
1
1
1
0.999999
1
0.999999
1
1
1
1
1
1
1
1
1
1
1
1
1
1
1
1
1
1
1
1
1
1
1
1
1
1
0.999999
0.999999
0.999999
1
0.999999
1
0.999999
1
0.999999
0.999999
1
1
1
1
1
0.999999
0.999999
0.999998
0.999998
0.999998
0.999998
0.999999
0.999999
0.999999
0.999999
0.999999
1
1
1
1
1
1
1
1
1
1
1
1
1
1
1
1
1
1
1
1
1
1
1
1
1
1
1
1
1
1
1
1
1
1
1
1
1
1
1
1
1
1
1
1
1
1
1
1
1
1
1
1
1
0.999999
0.999999
0.999999
0.999999
1
0.999999
1
0.999999
0.999999
0.999999
0.999999
1
1
1
1
1
0.999999
0.999999
0.999998
0.999999
0.999999
0.999999
0.999999
0.999999
0.999999
0.999999
0.999999
0.999999
1
1
1
1
1
1
1
1
1
1
1
1
1
1
1
1
1
1
1
1
1
1
1
1
1
1
1
1
0.999999
0.999999
0.999999
0.999999
0.999999
0.999999
0.999999
0.999999
0.999999
0.999999
0.999999
0.999999
0.999999
0.999999
0.999999
0.999999
0.999999
0.999999
0.999999
0.999999
1
1
1
0.999999
0.999999
0.999999
0.999999
0.999999
0.999999
0.999999
0.999999
0.999588
0.981959
0.940304
0.9
0.87605
0.879237
0.911716
0.955797
0.990769
0.999998
0.999998
0.999997
0.999998
0.999999
0.999999
0.999999
0.999999
0.999999
0.999999
0.999999
1
1
1
1
1
1
0.999999
0.999999
0.999999
0.999999
0.999999
0.999999
0.999999
0.999999
0.999999
0.999999
0.999999
0.999999
0.999999
0.999999
0.999999
0.999999
0.999998
0.999999
0.999999
1
1
1
1
1
1
1
1
1
1
1
1
1
1
1
1
1
1
1
1
1
1
0.999968
0.999448
0.99822
0.996125
0.992946
0.98834
0.981794
0.97242
0.958706
0.938001
0.905491
0.855847
0.746944
0.583685
0.424973
0.304092
0.254268
0.228724
0.230745
0.271781
0.345864
0.473015
0.627252
0.792668
0.870996
0.91523
0.944117
0.962707
0.975142
0.98371
0.989703
0.99389
0.996759
0.998607
0.999644
1
1
1
1
1
1
1
1
1
1
1
1
1
1
1
1
1
1
1
1
1
1
1
0.0513861
0.0763075
0.0933103
0.106551
0.11678
0.124995
0.131898
0.13795
0.143464
0.148656
0.153675
0.158614
0.163528
0.168431
0.173309
0.178115
0.182772
0.187169
0.191162
0.194573
0.19718
0.198715
0.198897
0.197817
0.195247
0.190827
0.184121
0.17469
0.161949
0.145243
0.123924
0.0970823
0.0630658
0.0231659
0.00598322
0.0229246
0.0642589
0.0650366
0.0760211
0.0778307
0.0785918
0.0756836
0.0684887
0.0556124
0.0158913
0.00237393
0.0357116
0.0743341
0.105861
0.13088
0.150655
0.165982
0.177547
0.186021
0.191966
0.195771
0.197802
0.198426
0.197752
0.195774
0.192804
0.189097
0.184866
0.180281
0.175481
0.170567
0.165612
0.160658
0.155718
0.150772
0.145767
0.140607
0.135148
0.129174
0.122377
0.114308
0.104274
0.0913002
0.0746502
0.0502648
2.36428e-07
8.25524e-08
1.63565e-07
2.34209e-07
2.94816e-07
3.43775e-07
3.80166e-07
4.0459e-07
4.17866e-07
4.20608e-07
4.13246e-07
3.9614e-07
3.69731e-07
3.34691e-07
2.92116e-07
2.4357e-07
1.91226e-07
1.37977e-07
8.77032e-08
4.50031e-08
1.74913e-08
3.61092e-08
4.64966e-08
5.14809e-08
5.59724e-08
6.47133e-08
7.77318e-08
1.03814e-07
1.96732e-07
3.6593e-07
5.22686e-07
5.8585e-07
6.45867e-07
1.23422e-06
0.00880862
0.1669
0.267887
0.278186
0.278183
0.278185
0.278184
0.278181
0.278183
0.253919
0.101811
1.07974e-05
1.67738e-06
1.45356e-06
1.17898e-06
1.0493e-06
9.29926e-07
7.36446e-07
4.62311e-07
2.05415e-07
7.43373e-08
4.62031e-08
3.80431e-08
2.78608e-08
1.69093e-08
2.32609e-08
5.62026e-08
1.00987e-07
1.51599e-07
2.04149e-07
2.55071e-07
3.01625e-07
3.41818e-07
3.74325e-07
3.98312e-07
4.13211e-07
4.186e-07
4.142e-07
3.99651e-07
3.74402e-07
3.37656e-07
2.8881e-07
2.2883e-07
1.59419e-07
7.99891e-08
2.30164e-07
1.47828e-09
1.81463e-10
4.51965e-10
7.19185e-10
9.5615e-10
1.13832e-09
1.24659e-09
1.30168e-09
1.29662e-09
1.22212e-09
1.07245e-09
8.45933e-10
5.55293e-10
2.38638e-10
-2.62373e-11
-7.44071e-11
-4.65453e-11
-1.41043e-11
5.96535e-12
1.2828e-10
3.65364e-09
4.13113e-08
9.85308e-08
1.2978e-07
1.70524e-07
7.77318e-08
8.78753e-06
8.63292e-05
0.000128737
0.000111362
2.98882e-05
0.000129028
0.000227156
0.000128998
0.00569673
0.112303
0.188345
0.266771
0.278186
0.278183
0.278181
0.278183
0.262596
0.188175
0.0855009
0.00026196
0.000220188
0.000406195
0.000234754
4.69831e-05
5.6617e-05
0.000117212
0.000214787
0.000238664
0.000159004
1.87965e-05
3.60154e-08
1.90034e-08
1.45898e-08
3.05363e-09
1.22761e-09
2.82425e-10
1.12558e-11
4.13629e-12
2.36778e-12
1.92723e-12
2.03655e-10
5.75966e-10
1.03232e-09
1.51605e-09
1.83253e-09
1.9939e-09
2.02159e-09
1.93835e-09
1.70695e-09
1.27038e-09
8.02152e-10
5.1124e-10
2.10097e-10
2.07853e-09
9.15629e-12
8.54625e-13
2.21287e-12
3.55011e-12
4.82846e-12
5.93428e-12
6.71709e-12
7.13318e-12
7.12644e-12
6.63512e-12
5.61714e-12
4.098e-12
2.3001e-12
7.29044e-13
1.49346e-13
1.38517e-12
1.38543e-12
1.39507e-12
1.62315e-12
5.94986e-12
1.27865e-10
1.31153e-08
1.35326e-06
5.31849e-06
4.21657e-06
2.30039e-07
1.75918e-07
0.00019281
0.000560919
0.000561261
0.000262966
0.00046839
0.00350663
0.00418832
0.00322546
1.18474e-05
1.18037e-05
0.0259125
0.176048
0.135423
0.135855
0.163106
0.0172519
3.40973e-09
6.0937e-08
0.00336819
0.00427913
0.00381463
0.000435936
4.88985e-05
0.000208811
0.000517992
0.000517992
0.000517992
0.000477326
3.82983e-05
3.5558e-08
1.09861e-08
2.27868e-09
1.68941e-09
5.20101e-10
2.57596e-11
4.02488e-12
3.47063e-12
2.23396e-12
1.90953e-12
1.80967e-12
5.03538e-12
8.997e-12
1.21915e-11
1.41164e-11
1.47969e-11
1.44582e-11
1.33689e-11
1.16761e-11
9.5428e-12
7.04461e-12
4.24681e-12
1.66358e-12
1.25422e-11
1.23497e-13
5.67863e-15
1.48364e-14
2.39702e-14
3.33271e-14
4.21773e-14
4.96089e-14
5.48906e-14
5.72011e-14
5.55468e-14
4.89503e-14
3.71074e-14
2.19592e-14
1.09764e-14
1.10592e-13
2.11087e-12
1.06305e-11
1.49702e-11
8.53741e-12
1.28186e-10
2.25719e-09
2.16747e-06
1.65225e-05
2.07063e-05
2.07063e-05
1.13279e-05
1.93041e-08
3.33268e-05
0.000397015
0.00054839
0.000545212
0.000525457
0.000395386
0.000302103
1.52112e-07
1.23759e-05
7.94145e-05
3.25893e-09
3.05994e-09
2.98841e-09
3.05994e-09
3.13736e-09
3.22507e-09
3.31805e-09
1.15687e-07
1.1703e-07
7.82849e-05
6.85386e-05
0.000283968
0.000328481
0.000284777
0.000240389
0.000439435
0.000441468
0.000171954
5.5042e-06
4.7365e-06
6.49876e-06
2.9923e-06
1.02989e-07
8.47698e-10
1.09546e-10
5.71482e-11
3.79905e-11
1.17621e-11
1.91199e-12
2.29884e-13
9.63013e-14
1.30495e-13
1.71383e-13
1.9465e-13
1.99169e-13
1.89576e-13
1.7007e-13
1.44091e-13
1.14101e-13
8.26123e-14
5.62498e-14
2.42738e-14
1.80692e-13
1.21973e-15
5.18102e-17
1.39494e-16
2.14318e-16
2.92157e-16
3.80575e-16
4.65096e-16
5.38127e-16
5.88684e-16
6.03888e-16
5.62859e-16
4.5229e-16
3.15231e-16
1.007e-15
5.30637e-14
1.22482e-12
7.22513e-12
1.87548e-11
1.31752e-10
2.00078e-09
1.95583e-07
1.25353e-05
2.03612e-05
2.07016e-05
1.19511e-05
1.91847e-06
5.57947e-09
5.05002e-09
5.57082e-09
5.58842e-09
5.66028e-09
5.7609e-09
5.85895e-09
6.01739e-09
7.59013e-09
1.24449e-05
0.000261262
0.000280907
4.98249e-09
2.91146e-09
4.2985e-09
4.23629e-09
3.98376e-09
3.40973e-09
3.57511e-09
2.33824e-06
1.12605e-05
2.92471e-06
4.29187e-07
2.58452e-06
1.17878e-08
8.94135e-09
8.36186e-09
8.18808e-09
8.1919e-09
5.42442e-06
1.90375e-05
1.90354e-05
1.46158e-05
7.99718e-07
5.02156e-09
4.68065e-10
8.07399e-11
2.98569e-11
1.02721e-11
1.52355e-12
1.47447e-13
3.13575e-14
1.67961e-14
1.18242e-14
8.66342e-15
6.45984e-15
4.86832e-15
3.66304e-15
2.71233e-15
1.93903e-15
1.32439e-15
6.00013e-15
4.43188e-15
2.30788e-15
2.0576e-16
5.74919e-18
1.81331e-17
1.47247e-17
6.68958e-18
6.85568e-18
7.39841e-18
7.66432e-18
7.47749e-18
8.16824e-18
8.16039e-18
7.50993e-18
2.17112e-17
3.93875e-16
8.66205e-15
2.69279e-13
1.93857e-12
4.56638e-12
5.4739e-11
8.87546e-10
2.77189e-07
4.95471e-06
6.16693e-06
3.93286e-08
1.0817e-08
2.60052e-08
2.04048e-08
5.75125e-09
1.30446e-08
1.60191e-08
1.61259e-08
1.59379e-08
9.48059e-09
7.00657e-09
9.41408e-09
9.05314e-09
9.05548e-09
7.29704e-08
7.72867e-09
2.87643e-09
3.10072e-09
5.50073e-09
9.32689e-09
4.92359e-09
3.74415e-09
9.54005e-07
5.63901e-07
4.4201e-07
3.06732e-07
2.29855e-06
2.26926e-06
1.01638e-06
8.94135e-09
8.36186e-09
7.47688e-09
1.73216e-06
1.85938e-05
1.90386e-05
1.89829e-05
4.94426e-06
1.87831e-08
1.58819e-09
1.4657e-10
1.99841e-11
7.87636e-12
1.24562e-12
1.01045e-13
2.60936e-14
1.49213e-14
9.58473e-15
6.14877e-15
3.95556e-15
2.57293e-15
1.68538e-15
1.10211e-15
7.10075e-16
4.51459e-16
3.06683e-16
1.45126e-16
4.44349e-16
4.53547e-18
1.39074e-19
4.55855e-19
5.20641e-19
4.68238e-19
3.11327e-19
1.79558e-19
1.64814e-19
1.91466e-19
1.96627e-19
1.98064e-19
4.18783e-19
1.10092e-17
4.98365e-17
1.81963e-15
6.33793e-14
5.4111e-13
4.35339e-12
8.30897e-11
1.49873e-09
5.2359e-07
3.89773e-06
2.53462e-06
8.36347e-09
9.01769e-09
6.92789e-09
6.84105e-09
3.30184e-09
2.68417e-09
2.1597e-09
1.56602e-09
1.16044e-09
1.29299e-09
2.57602e-09
4.98605e-09
9.55811e-09
1.34089e-08
1.35716e-08
6.04292e-09
2.67249e-09
2.41403e-09
8.60067e-09
1.00081e-08
1.00085e-08
8.99683e-09
1.51102e-09
4.20519e-10
5.4594e-10
7.75456e-10
9.24276e-10
1.07538e-09
1.52198e-08
4.96901e-08
4.95437e-08
5.26319e-09
2.82768e-09
1.22024e-05
1.89829e-05
1.89139e-05
1.50563e-05
8.00612e-07
6.66335e-09
4.54292e-10
4.17655e-11
3.37169e-12
8.11364e-13
6.95114e-14
1.00795e-14
4.12589e-15
1.99904e-15
9.66045e-16
4.72539e-16
2.39962e-16
1.26349e-16
6.82346e-17
3.70051e-17
1.75797e-17
5.88936e-18
1.98631e-18
1.34264e-17
4.47566e-20
2.3073e-21
7.61978e-21
1.15363e-20
1.4059e-20
1.41771e-20
1.2882e-20
1.1163e-20
1.12434e-20
1.20019e-20
1.71966e-20
1.50157e-19
1.08503e-18
1.6966e-17
8.83387e-16
2.40702e-14
3.07702e-13
7.8436e-12
1.79295e-10
3.46902e-09
1.16126e-06
3.62019e-06
6.10264e-07
7.06867e-09
8.36348e-09
9.10894e-09
1.37879e-08
2.42006e-08
2.23088e-08
3.3446e-09
6.03901e-11
5.26774e-11
1.2461e-10
6.93982e-10
1.27472e-09
1.77953e-09
3.38653e-09
4.53281e-09
6.22247e-09
1.34073e-09
2.37998e-09
9.81111e-09
9.9811e-09
6.14916e-09
2.32531e-09
9.59653e-10
3.69159e-10
5.38956e-10
9.69524e-10
1.69444e-09
1.86471e-09
1.9029e-09
7.48808e-09
1.3046e-08
4.30209e-09
1.56546e-09
8.95721e-06
1.88881e-05
1.89006e-05
1.55132e-05
8.741e-07
6.90571e-09
4.36432e-10
3.63676e-11
3.00361e-12
6.84054e-13
4.22029e-14
2.19164e-15
3.86752e-16
1.18914e-16
4.07022e-17
1.47115e-17
5.80418e-18
2.50411e-18
1.15621e-18
5.52232e-19
2.43961e-19
1.05959e-19
3.48717e-20
1.76777e-19
6.30436e-22
3.96989e-23
1.34682e-22
2.28563e-22
3.34729e-22
4.50955e-22
5.6148e-22
6.89904e-22
9.13742e-22
1.43494e-21
3.64191e-21
8.4506e-21
1.68457e-19
1.02498e-17
4.50609e-16
1.5751e-14
3.37111e-13
1.01005e-11
2.61962e-10
4.20226e-08
1.81701e-06
3.26468e-06
7.85558e-08
5.13585e-09
7.87533e-09
3.09694e-08
4.11831e-08
5.55346e-08
5.44517e-08
1.68004e-08
5.26774e-11
5.07697e-11
4.91645e-11
6.4012e-11
6.546e-11
6.98067e-11
7.40124e-11
1.47546e-09
2.37593e-09
1.00488e-09
2.53199e-09
8.70739e-09
2.92983e-09
1.46742e-10
1.4939e-10
1.74155e-10
3.67071e-10
7.76922e-10
1.54101e-09
2.69517e-09
3.38454e-09
3.38454e-09
2.4152e-09
1.10854e-09
1.07383e-09
1.21491e-09
5.93298e-06
1.87834e-05
1.88748e-05
8.14442e-06
4.44388e-08
2.81161e-09
1.64612e-10
1.41036e-11
4.98155e-12
4.96421e-13
1.63805e-14
4.72334e-16
2.44978e-17
3.94462e-18
1.11048e-18
3.67016e-19
1.33568e-19
5.39731e-20
2.37338e-20
1.09937e-20
5.09338e-21
2.31477e-21
7.46387e-22
3.2458e-21
1.03552e-23
7.20377e-25
2.51152e-24
4.57001e-24
7.47805e-24
1.18296e-23
1.86082e-23
3.00534e-23
5.19488e-23
1.07718e-22
1.18223e-22
4.16322e-22
1.87196e-20
1.69765e-18
1.66487e-16
7.64562e-15
1.48211e-13
5.27854e-12
1.65902e-10
6.80511e-08
1.99504e-06
2.61657e-06
5.13585e-09
3.00424e-09
3.51209e-08
5.73061e-08
5.69618e-08
5.66175e-08
4.20913e-08
1.01471e-08
1.10725e-10
6.85303e-11
4.3129e-11
7.00549e-11
9.40168e-11
9.48826e-11
8.60304e-11
8.62526e-11
1.80586e-10
1.00119e-09
2.2023e-09
1.88149e-09
1.46742e-10
1.46489e-10
1.58068e-10
2.04174e-10
1.8155e-10
2.72379e-10
4.12323e-10
8.08422e-10
1.64556e-09
2.73144e-09
2.2261e-09
8.911e-10
9.22703e-10
1.07457e-09
2.93785e-06
6.77829e-06
6.59327e-06
4.72416e-06
3.36982e-07
1.32009e-09
6.20956e-11
4.63146e-12
2.23723e-12
1.67453e-13
4.42437e-15
1.09403e-16
2.86569e-18
1.87178e-19
4.02339e-20
1.24881e-20
4.27908e-21
1.60598e-21
6.59509e-22
2.88284e-22
1.27966e-22
5.56975e-23
1.73557e-23
7.14845e-23
1.79353e-25
1.36145e-26
4.85981e-26
9.35675e-26
1.65238e-25
2.89844e-25
5.25294e-25
1.00849e-24
2.17122e-24
4.78471e-24
1.62338e-25
5.36856e-24
5.33542e-22
4.99955e-20
4.24153e-18
3.10376e-16
1.71934e-14
8.47314e-13
3.66173e-11
6.07699e-08
8.59034e-07
9.71163e-07
3.00424e-09
2.30508e-09
4.3171e-08
5.73061e-08
5.73061e-08
2.00774e-08
3.83921e-10
1.01493e-10
9.68355e-11
5.46459e-11
3.39059e-11
5.27962e-11
9.79014e-11
1.03548e-10
8.66097e-11
1.09291e-10
1.04466e-09
1.2696e-09
1.80401e-09
3.80651e-10
1.8908e-10
1.47547e-10
1.68368e-10
1.17909e-10
5.38868e-11
3.87313e-11
5.47467e-11
1.94311e-10
4.93101e-10
7.78812e-10
1.04837e-09
8.1525e-10
8.99943e-10
1.4621e-07
8.6338e-08
1.35131e-08
1.18083e-08
1.43601e-06
4.88819e-07
4.14025e-10
1.75365e-11
2.70455e-12
7.72317e-13
3.33983e-14
8.45768e-16
2.05676e-17
4.3371e-19
1.34795e-20
1.77598e-21
4.79901e-22
1.51496e-22
5.21906e-23
1.98024e-23
8.09024e-24
3.39649e-24
1.41459e-24
4.26262e-25
1.67712e-24
3.22513e-27
2.66049e-28
9.69773e-28
1.96036e-27
3.68289e-27
6.97894e-27
1.38814e-26
2.97913e-26
7.37207e-26
1.83e-25
1.89263e-26
3.1145e-26
2.32124e-24
2.31922e-22
1.93747e-20
1.29207e-18
9.48013e-17
1.1505e-14
1.76316e-12
9.59352e-09
4.40912e-09
2.58258e-09
2.63116e-09
1.61279e-09
1.44962e-08
4.34001e-08
2.64957e-08
2.3794e-09
3.28276e-10
2.8731e-10
2.09591e-10
6.93289e-11
1.95774e-11
2.29394e-11
4.76026e-11
7.87681e-11
5.27947e-11
2.54132e-10
1.47998e-09
1.22161e-09
1.79493e-09
7.67967e-10
2.30805e-10
1.30973e-10
1.45845e-10
8.24544e-11
4.1499e-11
3.02991e-11
3.37743e-11
1.60333e-10
5.37473e-10
7.68e-10
7.69893e-10
7.87052e-10
6.75286e-09
1.01696e-07
8.88364e-09
1.30568e-09
7.26889e-10
5.76259e-09
1.78503e-07
5.10845e-09
4.6227e-12
2.61659e-12
1.84084e-13
4.49307e-15
1.13263e-16
2.60557e-18
5.11156e-20
1.087e-21
8.29405e-23
1.87344e-23
5.4092e-24
1.72176e-24
6.07448e-25
2.33305e-25
9.33054e-26
3.73812e-26
1.09294e-26
4.10515e-26
5.96555e-29
5.33858e-30
1.98273e-29
4.18852e-29
8.31234e-29
1.68184e-28
3.60671e-28
8.40414e-28
2.19677e-27
6.72679e-27
1.52155e-26
4.42483e-27
2.94947e-26
2.32124e-24
2.31922e-22
1.93747e-20
1.29207e-18
9.48013e-17
1.1505e-14
5.91564e-12
3.69874e-10
8.85361e-10
1.72974e-09
1.59722e-09
1.04618e-09
2.92541e-09
1.99072e-09
1.24187e-09
9.71948e-10
6.4792e-10
2.39289e-10
3.27278e-11
8.04463e-12
1.15263e-11
2.3054e-11
3.02627e-11
2.35983e-11
4.4353e-10
1.50803e-09
1.00707e-09
1.86906e-09
1.1455e-09
1.84151e-10
9.71032e-11
9.49069e-11
6.50243e-11
3.23036e-11
2.3144e-11
2.46424e-11
1.11237e-10
4.19866e-10
8.26322e-10
1.08282e-09
3.15117e-09
1.03778e-08
3.07953e-09
5.57242e-10
2.15034e-10
1.48355e-10
6.09885e-10
6.8021e-10
1.05912e-09
6.0156e-12
4.87508e-13
1.47089e-14
3.84635e-16
9.45384e-18
2.05714e-19
3.9171e-21
7.4091e-23
3.83996e-24
7.25884e-25
1.92011e-25
5.69552e-26
1.88532e-26
6.85659e-27
2.62668e-27
1.01593e-27
2.89122e-28
1.03903e-27
1.12291e-30
1.09127e-31
4.1208e-31
9.07141e-31
1.8943e-30
4.07148e-30
9.35444e-30
2.35005e-29
6.5575e-29
2.15295e-28
1.23764e-27
3.56768e-27
1.03242e-27
4.02442e-26
4.71016e-24
4.72863e-22
3.38247e-20
2.38167e-18
3.80272e-14
6.57675e-13
4.34095e-11
1.15241e-10
3.96013e-10
7.85311e-10
5.23856e-10
3.70024e-10
5.76821e-10
5.1997e-10
3.09955e-10
9.88511e-11
1.55573e-11
2.78142e-12
3.31094e-12
7.33728e-12
1.65407e-11
1.93257e-11
1.67593e-11
5.41757e-10
1.50813e-09
8.94751e-10
1.86906e-09
1.25836e-09
1.58729e-10
7.37465e-11
6.64984e-11
4.32967e-11
1.68016e-11
9.84871e-12
8.40642e-12
1.36137e-11
8.48346e-11
3.08238e-10
7.00157e-10
1.32579e-09
2.04225e-09
6.58859e-11
5.1009e-11
2.4154e-11
1.98103e-11
6.23037e-11
6.31877e-11
2.8623e-11
1.31289e-12
2.37343e-14
7.04002e-16
2.00681e-17
4.94381e-19
1.06205e-20
2.01037e-22
3.77639e-24
1.66504e-25
2.75369e-26
6.72636e-27
1.87276e-27
5.86419e-28
2.03284e-28
7.49457e-29
2.80821e-29
7.80265e-30
2.69056e-29
2.12903e-32
2.25348e-33
8.6341e-33
1.97681e-32
4.3333e-32
9.86861e-32
2.42349e-31
6.56361e-31
1.9914e-30
6.95528e-30
3.18682e-29
4.30743e-28
1.17371e-28
1.03242e-27
1.27981e-25
2.30037e-22
1.76864e-20
1.43599e-18
6.98837e-15
4.72854e-13
3.10655e-12
7.62338e-12
4.10498e-11
1.14363e-10
1.22838e-10
1.40541e-10
1.31806e-10
8.24781e-11
2.87363e-11
5.87018e-12
9.88473e-13
8.53186e-13
1.75547e-12
5.94386e-12
1.36996e-11
1.59426e-11
1.59882e-11
5.63999e-10
1.50803e-09
7.87767e-10
1.86906e-09
1.28734e-09
1.57741e-10
5.93519e-11
5.00275e-11
3.0746e-11
9.8436e-12
3.96746e-12
3.3793e-12
3.3256e-12
4.17293e-12
1.45496e-11
4.1354e-11
6.08535e-11
5.50119e-12
5.91442e-12
4.72836e-12
4.18885e-12
4.29738e-12
6.06728e-12
7.27041e-12
1.29608e-12
4.93528e-14
9.799e-16
2.92046e-17
8.03781e-19
1.94639e-20
4.09904e-22
7.73851e-24
1.48528e-25
6.53392e-27
1.00792e-27
2.3014e-28
6.06085e-29
1.80952e-29
6.01811e-30
2.14558e-30
7.81714e-31
2.12701e-31
7.05523e-31
4.02782e-34
4.66264e-35
1.80888e-34
4.30067e-34
9.87936e-34
2.37998e-33
6.24013e-33
1.82221e-32
6.03711e-32
2.3024e-31
1.02928e-30
8.40912e-30
9.02445e-29
8.4029e-28
1.043e-25
1.5227e-23
1.3741e-21
1.47406e-19
1.88127e-16
5.11445e-14
3.54941e-13
1.78517e-12
4.51456e-12
6.61423e-12
8.76827e-12
1.05949e-11
7.33392e-12
3.12368e-12
9.06833e-13
2.07208e-13
1.78746e-13
3.7385e-13
1.44546e-12
5.42649e-12
1.15904e-11
1.34627e-11
1.77286e-11
5.53927e-10
1.50731e-09
6.61556e-10
1.7798e-09
1.39156e-09
2.14755e-10
4.9906e-11
4.03608e-11
2.52123e-11
7.86791e-12
1.83698e-12
9.78224e-13
1.03976e-12
1.18449e-12
1.24432e-12
1.48154e-12
1.33836e-12
1.21919e-12
2.17155e-12
2.31772e-12
2.23921e-12
2.44411e-12
2.98804e-12
1.2574e-12
7.13019e-14
1.61198e-15
4.32248e-17
1.24343e-18
3.14599e-20
6.96466e-22
1.35428e-23
2.50444e-25
4.86595e-27
2.32058e-28
3.52055e-29
7.61493e-30
1.91392e-30
5.49121e-31
1.76346e-31
6.10978e-32
2.17254e-32
5.80642e-33
1.85621e-32
7.51621e-36
9.8347e-37
3.75589e-36
9.27182e-36
2.22919e-35
5.67206e-35
1.57894e-34
4.89691e-34
1.71656e-33
6.91274e-33
3.23112e-32
1.9612e-31
3.09014e-30
4.87604e-29
5.42826e-27
3.54888e-25
3.30547e-23
3.59086e-21
4.67781e-18
7.16204e-16
1.57368e-14
1.23706e-13
2.54008e-13
3.01396e-13
3.02329e-13
2.53013e-13
1.52888e-13
6.07377e-14
2.03279e-14
2.39197e-14
6.954e-14
3.00779e-13
1.36528e-12
5.03965e-12
9.73127e-12
1.16869e-11
3.05425e-11
5.55805e-10
1.39879e-09
5.40367e-10
1.54334e-09
1.51904e-09
3.13107e-10
4.34177e-11
3.26033e-11
2.07388e-11
7.08482e-12
1.35939e-12
2.77719e-13
1.44779e-13
1.56918e-13
2.48016e-13
3.49135e-13
4.82148e-13
6.34446e-13
7.09694e-13
6.85914e-13
6.1617e-13
5.18187e-13
3.90125e-13
9.23452e-14
3.00452e-15
6.29034e-17
1.77059e-18
4.94932e-20
1.19262e-21
2.49212e-23
4.55443e-25
7.83212e-27
1.47205e-28
7.5588e-30
1.15897e-30
2.41595e-31
5.85547e-32
1.62678e-32
5.07651e-33
1.71752e-33
5.98275e-34
1.57546e-34
4.85899e-34
1.37146e-37
2.05028e-38
7.52941e-38
1.91459e-37
4.74702e-37
1.24916e-36
3.60079e-36
1.15845e-35
4.22446e-35
1.76578e-34
8.55524e-34
5.31672e-33
4.19021e-32
7.83445e-31
8.52128e-29
8.56489e-27
7.77675e-25
7.68051e-23
1.02807e-19
1.05207e-17
2.73151e-16
2.66239e-15
6.53047e-15
8.17306e-15
7.95984e-15
5.70906e-15
2.40679e-15
1.25973e-15
2.31026e-15
1.11264e-14
5.72361e-14
2.69296e-13
1.29033e-12
4.50152e-12
7.98149e-12
1.04884e-11
4.27214e-11
6.24792e-10
1.09622e-09
4.3574e-10
1.41334e-09
1.53947e-09
4.36742e-10
4.06468e-11
2.65586e-11
1.70836e-11
6.50901e-12
1.307e-12
2.02212e-13
3.75718e-14
1.21383e-14
9.36115e-15
1.78633e-14
3.72702e-14
5.47091e-14
5.92558e-14
5.6089e-14
4.94511e-14
3.3096e-14
1.36527e-14
2.83751e-15
9.86958e-17
2.22757e-18
6.32343e-20
1.7524e-21
4.13089e-23
8.367e-25
1.4723e-26
2.42027e-28
4.45768e-30
2.36526e-31
3.60639e-32
7.32092e-33
1.72766e-33
4.67776e-34
1.42666e-34
4.73572e-35
1.61963e-35
4.27087e-36
1.25256e-35
2.43331e-39
4.06492e-40
1.43621e-39
3.73429e-39
9.46942e-39
2.55461e-38
7.5707e-38
2.51072e-37
9.44474e-37
4.06357e-36
2.01899e-35
1.28853e-34
1.00274e-33
1.65742e-32
1.86406e-30
1.92665e-28
1.68955e-26
1.50676e-24
1.44317e-21
1.09998e-19
5.20171e-18
4.99417e-17
1.33547e-16
1.50251e-16
1.61718e-16
8.77947e-17
6.38583e-17
1.88054e-16
1.35294e-15
8.72303e-15
4.65199e-14
2.37035e-13
1.20055e-12
3.8666e-12
6.59082e-12
1.00288e-11
5.83092e-11
6.4207e-10
9.62551e-10
3.5484e-10
1.24658e-09
1.53968e-09
5.37308e-10
4.0836e-11
2.20018e-11
1.3876e-11
5.85838e-12
1.28811e-12
1.88794e-13
2.93624e-14
5.47939e-15
9.60155e-16
2.89829e-16
3.13307e-16
5.983e-16
6.82097e-16
7.51882e-16
8.28858e-16
6.53836e-16
2.89021e-16
7.07255e-17
2.5776e-18
6.55607e-20
1.95353e-21
5.49185e-23
1.28856e-24
2.56709e-26
4.41065e-28
7.06445e-30
1.29014e-31
7.01545e-33
1.06086e-33
2.10856e-34
4.87281e-35
1.29447e-35
3.88186e-36
1.27072e-36
4.28218e-37
1.13312e-37
3.1592e-37
4.17343e-41
7.75052e-42
2.6402e-41
6.9882e-41
1.80462e-40
4.969e-40
1.50625e-39
5.11466e-39
1.96963e-38
8.65989e-38
4.37962e-37
2.81421e-36
2.22031e-35
3.46958e-34
3.71426e-32
3.69981e-30
2.97367e-28
2.02965e-26
1.83945e-24
2.95067e-21
1.10358e-19
9.00264e-19
2.31069e-18
2.70715e-18
2.22604e-18
2.49122e-18
1.16705e-17
1.08827e-16
9.55399e-16
6.61152e-15
3.77566e-14
2.13881e-13
1.11207e-12
3.28662e-12
5.60738e-12
1.08927e-11
7.58331e-11
6.16083e-10
8.4148e-10
2.83546e-10
1.08153e-09
1.53968e-09
5.79056e-10
5.36028e-11
1.88682e-11
1.11373e-11
5.14135e-12
1.2448e-12
1.77439e-13
2.37455e-14
4.13298e-15
6.56706e-16
7.94042e-17
1.1106e-17
7.29684e-19
9.956e-19
1.85234e-18
2.41419e-18
3.0997e-18
4.1901e-18
1.65426e-18
4.82374e-20
1.57835e-21
5.19155e-23
1.51963e-24
3.61335e-26
7.18238e-28
1.21962e-29
1.92309e-31
3.50748e-33
1.9574e-34
2.94906e-35
5.77281e-36
1.31365e-36
3.44084e-37
1.01912e-37
3.3032e-38
1.10135e-38
2.92505e-39
7.7542e-39
6.87908e-43
1.4226e-43
4.67651e-43
1.2553e-42
3.28896e-42
9.20109e-42
2.83674e-41
9.79635e-41
3.83314e-40
1.70843e-39
8.72108e-39
5.58627e-38
4.36501e-37
6.44438e-36
6.38312e-34
5.86272e-32
3.81703e-30
2.57783e-28
3.04056e-26
7.1456e-23
1.88617e-21
1.51872e-20
2.99464e-20
3.87727e-20
6.90954e-20
5.22503e-19
6.09252e-18
6.71897e-17
6.70273e-16
5.03762e-15
3.08861e-14
1.97991e-13
1.02746e-12
2.79826e-12
4.9906e-12
1.27188e-11
9.3902e-11
5.99665e-10
7.05649e-10
2.19129e-10
9.2246e-10
1.53968e-09
5.68359e-10
6.66814e-11
1.70585e-11
8.85621e-12
4.31955e-12
1.16033e-12
1.6604e-13
1.93026e-14
2.99122e-15
4.45265e-16
4.97323e-17
5.31823e-18
4.97589e-19
1.9938e-20
1.01949e-20
2.22304e-20
3.7121e-20
7.22303e-20
2.03386e-20
9.66677e-22
2.90489e-23
1.17039e-24
3.69156e-26
9.08278e-28
1.8293e-29
3.10818e-31
4.87356e-33
8.93889e-35
5.12861e-36
7.73708e-37
1.50048e-37
3.38053e-38
8.77129e-39
2.57639e-39
8.29668e-40
2.7463e-40
7.3471e-41
1.84239e-40
1.08381e-44
2.50227e-45
7.94298e-45
2.15395e-44
5.70485e-44
1.61413e-43
5.03371e-43
1.75698e-42
6.93655e-42
3.1096e-41
1.58831e-40
1.0054e-39
7.68605e-39
1.05386e-37
9.28762e-36
7.17862e-34
5.11767e-32
5.39256e-30
6.49726e-28
1.42901e-24
2.55098e-23
1.8644e-22
3.76417e-22
1.30953e-21
1.59263e-20
2.40964e-19
3.26915e-18
4.11512e-17
4.6888e-16
3.80034e-15
2.53236e-14
1.86278e-13
9.45448e-13
2.41061e-12
4.62938e-12
1.50598e-11
1.10979e-10
5.58021e-10
5.75168e-10
1.633e-10
7.75193e-10
1.24794e-09
5.73477e-10
7.58699e-11
1.60351e-11
6.95464e-12
3.39186e-12
1.00386e-12
1.48298e-13
1.56563e-14
2.19422e-15
2.97877e-16
2.94177e-17
2.86364e-18
2.51792e-19
1.70574e-20
5.17318e-22
2.99852e-22
6.33234e-22
1.30988e-21
4.79467e-22
1.90572e-23
7.08764e-25
2.15743e-26
7.80516e-28
2.03882e-29
4.2311e-31
7.28522e-33
1.14757e-34
2.1315e-36
1.26004e-37
1.91253e-38
3.69517e-39
8.28385e-40
2.13863e-40
6.25342e-41
2.00691e-41
6.61535e-42
1.79059e-42
4.21723e-42
1.62409e-46
4.20048e-47
1.28816e-46
3.51574e-46
9.38055e-46
2.67302e-45
8.38981e-45
2.94281e-44
1.16466e-43
5.21382e-43
2.64275e-42
1.63851e-41
1.21144e-40
1.50965e-39
1.09969e-37
7.84351e-36
9.52297e-34
1.00468e-31
1.15962e-29
2.40429e-26
2.73359e-25
1.49974e-24
1.64178e-23
3.11459e-22
6.46468e-21
1.12718e-19
1.73687e-18
2.47905e-17
3.23593e-16
2.80467e-15
2.07912e-14
1.74376e-13
8.55968e-13
2.09007e-12
4.39142e-12
1.71511e-11
1.23682e-10
4.87195e-10
4.48953e-10
1.16174e-10
6.57693e-10
1.04519e-09
4.88587e-10
7.94199e-11
1.53269e-11
5.43027e-12
2.48258e-12
7.78571e-13
1.21179e-13
1.217e-14
1.61843e-15
1.97836e-16
1.7379e-17
1.48083e-18
1.16855e-19
8.11221e-21
4.02907e-22
9.89104e-24
9.99575e-24
1.91784e-23
9.25517e-24