/*--------------------------------*- C++ -*----------------------------------*\
| =========                 |                                                 |
| \\      /  F ield         | OpenFOAM: The Open Source CFD Toolbox           |
|  \\    /   O peration     | Version:  2412                                  |
|   \\  /    A nd           | Website:  www.openfoam.com                      |
|    \\/     M anipulation  |                                                 |
\*---------------------------------------------------------------------------*/
FoamFile
{
    version     2.0;
    format      ascii;
    arch        "LSB;label=32;scalar=64";
    class       surfaceScalarField;
    location    "5.45";
    object      alphaPhi0.molasses;
}
// * * * * * * * * * * * * * * * * * * * * * * * * * * * * * * * * * * * * * //

dimensions      [0 3 -1 0 0 0 0];

oriented        oriented;

internalField   nonuniform List<scalar> 
12640
(
3.80312e-13
-3.81889e-13
-3.00934e-14
1.37301e-13
-1.37077e-12
1.08108e-12
-3.67381e-12
2.07097e-12
-6.52822e-12
2.62238e-12
-9.85197e-12
3.0945e-12
-1.35397e-11
3.46048e-12
-1.7473e-11
3.70776e-12
-2.15869e-11
3.89022e-12
-2.58287e-11
4.02162e-12
-3.01431e-11
4.09899e-12
-3.44541e-11
4.10219e-12
-3.86974e-11
4.04298e-12
-4.2819e-11
3.93141e-12
-4.67844e-11
3.78731e-12
-5.05604e-11
3.61173e-12
-5.4112e-11
3.4029e-12
-5.73926e-11
3.14914e-12
-6.03518e-11
2.84639e-12
-6.29348e-11
2.4903e-12
-6.5092e-11
2.08559e-12
-6.67804e-11
1.63862e-12
-6.79659e-11
1.1578e-12
-6.86202e-11
6.4873e-13
-6.87219e-11
1.17492e-13
-6.82528e-11
-4.325e-13
-6.71987e-11
-9.9812e-13
-6.55472e-11
-1.57746e-12
-6.32891e-11
-2.1677e-12
-6.04176e-11
-2.76652e-12
-5.69294e-11
-3.37052e-12
-5.28251e-11
-3.97565e-12
-4.81118e-11
-4.57536e-12
-4.28052e-11
-5.16098e-12
-3.69326e-11
-5.72058e-12
-3.05355e-11
-6.23994e-12
-2.3672e-11
-6.70234e-12
-1.64171e-11
-7.09045e-12
-8.86312e-12
-7.38709e-12
-1.1169e-12
-7.57747e-12
6.7029e-12
-7.64974e-12
1.44705e-11
-7.5967e-12
2.20574e-11
-7.41559e-12
2.93377e-11
-7.10916e-12
3.61931e-11
-6.68478e-12
4.25174e-11
-6.15491e-12
4.82205e-11
-5.53561e-12
5.32322e-11
-4.84657e-12
5.75032e-11
-4.10903e-12
6.10065e-11
-3.3454e-12
6.37366e-11
-2.57694e-12
6.57076e-11
-1.8235e-12
6.69502e-11
-1.10181e-12
6.75088e-11
-4.25892e-13
6.74376e-11
1.94338e-13
6.67967e-11
7.52647e-13
6.56474e-11
1.24733e-12
6.40495e-11
1.68008e-12
6.20579e-11
2.05522e-12
5.97218e-11
2.3788e-12
5.70839e-11
2.65762e-12
5.41788e-11
2.89992e-12
5.10352e-11
3.11248e-12
4.7676e-11
3.30155e-12
4.41253e-11
3.46706e-12
4.04076e-11
3.60894e-12
3.65544e-11
3.7213e-12
3.25972e-11
3.80417e-12
2.8576e-11
3.85019e-12
2.45313e-11
3.85849e-12
2.05182e-11
3.81511e-12
1.65973e-11
3.71422e-12
1.28498e-11
3.53545e-12
9.36132e-12
3.27324e-12
6.23471e-12
2.9098e-12
3.5835e-12
2.43322e-12
1.5592e-12
1.80605e-12
2.97589e-13
1.04536e-12
-1.52516e-13
2.39339e-13
-3.43954e-13
-3.19302e-13
-2.8109e-13
-2.36683e-12
1.77036e-12
-6.48321e-12
4.76826e-12
-1.24926e-11
7.6654e-12
-1.99606e-11
9.67601e-12
-2.8568e-11
1.12904e-11
-3.80754e-11
1.25594e-11
-4.82698e-11
1.34967e-11
-5.89456e-11
1.41657e-11
-6.99323e-11
1.4616e-11
-8.10516e-11
1.48375e-11
-9.21474e-11
1.48321e-11
-1.03068e-10
1.46162e-11
-1.13695e-10
1.42335e-11
-1.23915e-10
1.37074e-11
-1.33627e-10
1.30535e-11
-1.42722e-10
1.22603e-11
-1.51087e-10
1.13123e-11
-1.586e-10
1.01955e-11
-1.65141e-10
8.90758e-12
-1.70593e-10
7.4555e-12
-1.74852e-10
5.85859e-12
-1.77828e-10
4.1366e-12
-1.79443e-10
2.30799e-12
-1.79631e-10
3.88254e-13
-1.78335e-10
-1.60856e-12
-1.75507e-10
-3.67148e-12
-1.71109e-10
-5.79002e-12
-1.65111e-10
-7.95357e-12
-1.57492e-10
-1.01495e-11
-1.48245e-10
-1.23624e-11
-1.37376e-10
-1.45719e-11
-1.24914e-10
-1.67509e-11
-1.10914e-10
-1.88638e-11
-9.54619e-11
-2.08666e-11
-7.86813e-11
-2.27075e-11
-6.0736e-11
-2.43292e-11
-4.18309e-11
-2.56728e-11
-2.22095e-11
-2.66825e-11
-2.14865e-12
-2.73096e-11
1.80498e-11
-2.75174e-11
3.80692e-11
-2.72836e-11
5.75902e-11
-2.6603e-11
7.63023e-11
-2.5487e-11
9.39161e-11
-2.39647e-11
1.10174e-10
-2.20798e-11
1.24859e-10
-1.989e-11
1.37801e-10
-1.74622e-11
1.48884e-10
-1.487e-11
1.5804e-10
-1.21879e-11
1.65255e-10
-9.48837e-12
1.7056e-10
-6.83696e-12
1.74024e-10
-4.29106e-12
1.75751e-10
-1.89677e-12
1.75866e-10
3.1172e-13
1.74509e-10
2.3142e-12
1.71825e-10
4.1034e-12
1.67956e-10
5.68379e-12
1.63037e-10
7.068e-12
1.5719e-10
8.2745e-12
1.50521e-10
9.32595e-12
1.43125e-10
1.02465e-11
1.35078e-10
1.10591e-11
1.26452e-10
1.17778e-11
1.17315e-10
1.24083e-11
1.07739e-10
1.29447e-11
9.7802e-11
1.33803e-11
8.75936e-11
1.37013e-11
7.7209e-11
1.38963e-11
6.67685e-11
1.39395e-11
5.64026e-11
1.38064e-11
4.6279e-11
1.34541e-11
3.65792e-11
1.28472e-11
2.75224e-11
1.19417e-11
1.93332e-11
1.07124e-11
1.22721e-11
9.10952e-12
6.61508e-12
7.0788e-12
2.63761e-12
4.64014e-12
4.4661e-13
2.06262e-12
-7.58182e-14
-1.28977e-12
7.42102e-13
-5.16673e-12
5.20806e-12
-1.17736e-11
1.09456e-11
-2.08408e-11
1.63199e-11
-3.19596e-11
2.03825e-11
-4.47352e-11
2.36572e-11
-5.8849e-11
2.62673e-11
-7.39738e-11
2.822e-11
-8.98219e-11
2.96181e-11
-1.06117e-10
3.05244e-11
-1.2262e-10
3.09656e-11
-1.39099e-10
3.09518e-11
-1.55352e-10
3.05285e-11
-1.71188e-10
2.97514e-11
-1.8644e-10
2.86653e-11
-2.00936e-10
2.72838e-11
-2.1451e-10
2.56004e-11
-2.26991e-10
2.35922e-11
-2.38207e-10
2.12468e-11
-2.47987e-10
1.85611e-11
-2.56168e-10
1.55486e-11
-2.62594e-10
1.2236e-11
-2.67125e-10
8.65735e-12
-2.69633e-10
4.84421e-12
-2.70007e-10
8.26323e-13
-2.68149e-10
-3.36973e-12
-2.63972e-10
-7.71928e-12
-2.57407e-10
-1.21986e-11
-2.48399e-10
-1.67812e-11
-2.36909e-10
-2.14362e-11
-2.22925e-10
-2.61247e-11
-2.06463e-10
-3.07969e-11
-1.87574e-10
-3.53891e-11
-1.66355e-10
-3.98216e-11
-1.42953e-10
-4.39991e-11
-1.17569e-10
-4.7813e-11
-9.0469e-11
-5.11463e-11
-6.19726e-11
-5.38812e-11
-3.24562e-11
-5.59072e-11
-2.34061e-12
-5.71308e-11
2.79207e-11
-5.74823e-11
5.78575e-11
-5.69227e-11
8.69993e-11
-5.54466e-11
1.14894e-10
-5.30836e-11
1.41122e-10
-4.98967e-11
1.65316e-10
-4.59796e-11
1.87167e-10
-4.14509e-11
2.06438e-10
-3.64479e-11
2.22963e-10
-3.11176e-11
2.36652e-10
-2.56095e-11
2.47487e-10
-2.0066e-11
2.5551e-10
-1.46177e-11
2.60822e-10
-9.37666e-12
2.63567e-10
-4.43431e-12
2.6392e-10
1.43072e-13
2.62078e-10
4.31479e-12
2.58245e-10
8.06575e-12
2.52624e-10
1.14017e-11
2.45407e-10
1.43448e-11
2.36773e-10
1.69286e-11
2.26881e-10
1.91947e-11
2.15874e-10
2.11877e-11
2.03875e-10
2.29464e-11
1.90999e-10
2.44978e-11
1.7736e-10
2.58496e-11
1.63068e-10
2.69982e-11
1.48248e-10
2.7926e-11
1.3303e-10
2.86135e-11
1.17569e-10
2.90257e-11
1.02031e-10
2.91238e-11
8.6624e-11
2.88451e-11
7.15732e-11
2.81257e-11
5.71496e-11
2.68855e-11
4.36366e-11
2.50656e-11
3.13577e-11
2.26013e-11
2.06421e-11
1.94375e-11
1.18514e-11
1.5489e-11
5.33423e-12
1.07878e-11
1.2901e-12
5.76175e-12
1.04937e-12
-2.07247e-12
2.60005e-12
-7.58248e-12
1.03165e-11
-1.63579e-11
1.93286e-11
-2.80156e-11
2.76012e-11
-4.21341e-11
3.4124e-11
-5.82916e-11
3.94392e-11
-7.60869e-11
4.36894e-11
-9.51497e-11
4.69123e-11
-1.15111e-10
4.92147e-11
-1.35656e-10
5.07117e-11
-1.56479e-10
5.14421e-11
-1.77313e-10
5.14547e-11
-1.97899e-10
5.07995e-11
-2.18001e-10
4.95596e-11
-2.37392e-10
4.77863e-11
-2.55858e-10
4.55064e-11
-2.7318e-10
4.27083e-11
-2.89144e-10
3.93736e-11
-3.03532e-10
3.54874e-11
-3.16136e-10
3.1052e-11
-3.26747e-10
2.60835e-11
-3.35167e-10
2.06159e-11
-3.41207e-10
1.46923e-11
-3.44692e-10
8.35816e-12
-3.45462e-10
1.65664e-12
-3.4337e-10
-5.37067e-12
-3.38289e-10
-1.26833e-11
-3.30107e-10
-2.02385e-11
-3.18739e-10
-2.79873e-11
-3.04125e-10
-3.58703e-11
-2.86241e-10
-4.38136e-11
-2.65107e-10
-5.17232e-11
-2.40795e-10
-5.94823e-11
-2.1344e-10
-6.6949e-11
-1.83247e-10
-7.39579e-11
-1.50494e-10
-8.03246e-11
-1.1554e-10
-8.58547e-11
-7.88154e-11
-9.03551e-11
-4.08199e-11
-9.36481e-11
-2.1073e-12
-9.55854e-11
3.67318e-11
-9.60603e-11
7.50896e-11
-9.50167e-11
1.12364e-10
-9.24553e-11
1.47982e-10
-8.84336e-11
1.81418e-10
-8.30641e-11
2.12215e-10
-7.65073e-11
2.39994e-10
-6.89633e-11
2.64469e-10
-6.06588e-11
2.85444e-10
-5.18349e-11
3.02816e-10
-4.27322e-11
3.16569e-10
-3.35803e-11
3.26762e-10
-2.45865e-11
3.33522e-10
-1.59301e-11
3.37029e-10
-7.7546e-12
3.37503e-10
-1.65281e-13
3.35183e-10
6.7741e-12
3.30324e-10
1.30376e-11
3.23176e-10
1.86319e-11
3.13981e-10
2.35887e-11
3.02966e-10
2.79581e-11
2.90335e-10
3.18026e-11
2.76274e-10
3.51874e-11
2.60949e-10
3.81707e-11
2.44517e-10
4.07901e-11
2.27127e-10
4.30628e-11
2.08932e-10
4.49815e-11
1.90086e-10
4.65271e-11
1.70766e-10
4.76605e-11
1.51158e-10
4.83368e-11
1.31481e-10
4.84843e-11
1.11976e-10
4.80202e-11
9.29314e-11
4.68306e-11
7.46559e-11
4.48162e-11
5.74985e-11
4.18749e-11
4.18149e-11
3.79331e-11
2.80082e-11
3.28889e-11
1.65058e-11
2.66347e-11
7.73379e-12
1.92063e-11
2.02859e-12
1.11315e-11
2.91703e-12
-2.61886e-12
5.00694e-12
-9.55121e-12
1.68513e-11
-2.01984e-11
2.95873e-11
-3.40679e-11
4.10992e-11
-5.07175e-11
5.04018e-11
-6.96687e-11
5.80209e-11
-9.04914e-11
6.41451e-11
-1.12754e-10
6.88128e-11
-1.36068e-10
7.21717e-11
-1.60058e-10
7.43538e-11
-1.84404e-10
7.54528e-11
-2.08792e-10
7.55231e-11
-2.32944e-10
7.46492e-11
-2.56574e-10
7.29091e-11
-2.79424e-10
7.03794e-11
-3.01234e-10
6.70864e-11
-3.21754e-10
6.30281e-11
-3.40732e-10
5.81824e-11
-3.5792e-10
5.25382e-11
-3.73069e-10
4.6097e-11
-3.85935e-10
3.88797e-11
-3.96278e-10
3.09223e-11
-4.03865e-10
2.22739e-11
-4.0847e-10
1.29884e-11
-4.09882e-10
3.12087e-12
-4.07901e-10
-7.27318e-12
-4.02349e-10
-1.81354e-11
-3.93067e-10
-2.94005e-11
-3.79928e-10
-4.09903e-11
-3.6284e-10
-5.2808e-11
-3.41759e-10
-6.47315e-11
-3.16702e-10
-7.66083e-11
-2.87754e-10
-8.82508e-11
-2.5508e-10
-9.9436e-11
-2.18937e-10
-1.09908e-10
-1.79676e-10
-1.19388e-10
-1.37745e-10
-1.27584e-10
-9.36832e-11
-1.34212e-10
-4.81115e-11
-1.39011e-10
-1.71493e-12
-1.4177e-10
4.47798e-11
-1.4234e-10
9.06308e-11
-1.4065e-10
1.35109e-10
-1.36713e-10
1.77526e-10
-1.30628e-10
2.1726e-10
-1.22573e-10
2.53775e-10
-1.12795e-10
2.86636e-10
-1.01598e-10
3.15519e-10
-8.9317e-11
3.4021e-10
-7.63059e-11
3.60606e-10
-6.29142e-11
3.767e-10
-4.9471e-11
3.88576e-10
-3.62731e-11
3.96394e-10
-2.35734e-11
4.00369e-10
-1.15749e-11
4.00761e-10
-4.23943e-13
3.97857e-10
9.78926e-12
3.91954e-10
1.90278e-11
3.83347e-10
2.72984e-11
3.72324e-10
3.46433e-11
3.59154e-10
4.11301e-11
3.44084e-10
4.68432e-11
3.27337e-10
5.1871e-11
3.0912e-10
5.62899e-11
2.89624e-10
6.01544e-11
2.69033e-10
6.34881e-11
2.47526e-10
6.62897e-11
2.25295e-10
6.85288e-11
2.02536e-10
7.01614e-11
1.79475e-10
7.11162e-11
1.56349e-10
7.13086e-11
1.33442e-10
7.06093e-11
1.11063e-10
6.88802e-11
8.95756e-11
6.59688e-11
6.93444e-11
6.1767e-11
5.07719e-11
5.6164e-11
3.42997e-11
4.9017e-11
2.04499e-11
4.01386e-11
9.71155e-12
2.95989e-11
2.62762e-12
1.78848e-11
5.38741e-12
-3.01409e-12
7.81037e-12
-1.11304e-11
2.45789e-11
-2.3343e-11
4.14213e-11
-3.90975e-11
5.64918e-11
-5.78808e-11
6.88243e-11
-7.91861e-11
7.89679e-11
-1.02525e-10
8.71307e-11
-1.27455e-10
9.33936e-11
-1.53528e-10
9.79049e-11
-1.80365e-10
1.00861e-10
-2.07604e-10
1.02377e-10
-2.34933e-10
1.02552e-10
-2.62038e-10
1.01474e-10
-2.88627e-10
9.92395e-11
-3.14402e-10
9.59215e-11
-3.39085e-10
9.1562e-11
-3.62392e-10
8.61572e-11
-3.8405e-10
7.96928e-11
-4.03782e-10
7.21527e-11
-4.2131e-10
6.35388e-11
-4.36356e-10
5.38688e-11
-4.4864e-10
4.31787e-11
-4.57882e-10
3.15166e-11
-4.63808e-10
1.89393e-11
-4.66149e-10
5.50866e-12
-4.64647e-10
-8.70855e-12
-4.59062e-10
-2.3637e-11
-4.49178e-10
-3.91867e-11
-4.34815e-10
-5.52448e-11
-4.15837e-10
-7.16681e-11
-3.92168e-10
-8.82746e-11
-3.63809e-10
-1.04837e-10
-3.30844e-10
-1.2108e-10
-2.93463e-10
-1.36678e-10
-2.51964e-10
-1.51264e-10
-2.06767e-10
-1.64441e-10
-1.58406e-10
-1.75797e-10
-1.0753e-10
-1.84936e-10
-5.48885e-11
-1.91499e-10
-1.30326e-12
-1.95199e-10
5.23545e-11
-1.95838e-10
1.052e-10
-1.93333e-10
1.56369e-10
-1.87717e-10
2.05056e-10
-1.79146e-10
2.5054e-10
-1.67884e-10
2.9221e-10
-1.54289e-10
3.29581e-10
-1.3879e-10
3.62302e-10
-1.21857e-10
3.90153e-10
-1.03976e-10
4.13038e-10
-8.56222e-11
4.30977e-10
-6.72389e-11
4.44085e-10
-4.92211e-11
4.52563e-10
-3.19039e-11
4.5667e-10
-1.5552e-11
4.56713e-10
-3.5616e-13
4.53025e-10
1.3568e-11
4.45951e-10
2.61717e-11
4.35832e-10
3.7464e-11
4.23e-10
4.74985e-11
4.07765e-10
5.63633e-11
3.90413e-10
6.41669e-11
3.71206e-10
7.10217e-11
3.50383e-10
7.70273e-11
3.28167e-10
8.22546e-11
3.04766e-10
8.6742e-11
2.8039e-10
9.04887e-11
2.55245e-10
9.34669e-11
2.29556e-10
9.56159e-11
2.03555e-10
9.68587e-11
1.77511e-10
9.70727e-11
1.51713e-10
9.61092e-11
1.2651e-10
9.37712e-11
1.02275e-10
8.98833e-11
7.94193e-11
8.42948e-11
5.83588e-11
7.68924e-11
3.96006e-11
6.74406e-11
2.37246e-11
5.56786e-11
1.13318e-11
4.16555e-11
3.1101e-12
2.57842e-11
8.34562e-12
-3.35677e-12
1.09608e-11
-1.23636e-11
3.32119e-11
-2.58713e-11
5.45652e-11
-4.32106e-11
7.34842e-11
-6.38184e-11
8.90866e-11
-8.71036e-11
1.01912e-10
-1.12576e-10
1.12267e-10
-1.39735e-10
1.20223e-10
-1.68131e-10
1.25981e-10
-1.97332e-10
1.29754e-10
-2.26988e-10
1.3174e-10
-2.56762e-10
1.3205e-10
-2.86349e-10
1.30806e-10
-3.15438e-10
1.28096e-10
-3.43733e-10
1.24007e-10
-3.70926e-10
1.18574e-10
-3.96726e-10
1.11803e-10
-4.20836e-10
1.03676e-10
-4.42961e-10
9.41795e-11
-4.62796e-10
8.33042e-11
-4.80033e-10
7.10618e-11
-4.94353e-10
5.7479e-11
-5.0543e-10
4.2597e-11
-5.12936e-10
2.64673e-11
-5.16539e-10
9.15114e-12
-5.15916e-10
-9.27916e-12
-5.10755e-10
-2.87344e-11
-5.0077e-10
-4.90996e-11
-4.85712e-10
-7.02238e-11
-4.65388e-10
-9.19094e-11
-4.39674e-10
-1.13903e-10
-4.08537e-10
-1.35887e-10
-3.72049e-10
-1.57479e-10
-3.30408e-10
-1.7823e-10
-2.83948e-10
-1.97635e-10
-2.33146e-10
-2.15151e-10
-1.78629e-10
-2.30223e-10
-1.21159e-10
-2.42313e-10
-6.16213e-11
-2.50943e-10
-9.93086e-13
-2.55731e-10
5.96914e-11
-2.56425e-10
1.19385e-10
-2.52927e-10
1.77074e-10
-2.45303e-10
2.31817e-10
-2.33783e-10
2.82788e-10
-2.18744e-10
3.29299e-10
-2.00684e-10
3.70819e-10
-1.80186e-10
4.06977e-10
-1.57884e-10
4.37556e-10
-1.34419e-10
4.62485e-10
-1.10413e-10
4.8182e-10
-8.64361e-11
4.95726e-10
-6.29939e-11
5.04454e-10
-4.05077e-11
5.0832e-10
-1.93081e-11
5.07687e-10
3.71153e-13
5.02942e-10
1.83887e-11
4.94483e-10
3.4688e-11
4.82702e-10
4.92822e-11
4.67976e-10
6.22415e-11
4.50658e-10
7.36774e-11
4.31073e-10
8.37263e-11
4.09517e-10
9.25289e-11
3.8626e-10
1.0021e-10
3.61549e-10
1.06865e-10
3.35619e-10
1.12545e-10
3.08691e-10
1.17261e-10
2.80994e-10
1.20981e-10
2.52752e-10
1.23648e-10
2.24218e-10
1.25159e-10
1.95655e-10
1.2538e-10
1.6738e-10
1.24109e-10
1.39735e-10
1.21127e-10
1.13131e-10
1.16187e-10
8.79867e-11
1.09129e-10
6.47835e-11
9.97791e-11
4.4043e-11
8.78598e-11
2.64334e-11
7.29657e-11
1.26445e-11
5.51204e-11
3.48882e-12
3.46292e-11
1.16891e-11
-3.63764e-12
1.43993e-11
-1.33179e-11
4.25372e-11
-2.78864e-11
6.87884e-11
-4.65827e-11
9.18508e-11
-6.87481e-11
1.10925e-10
-9.37435e-11
1.26584e-10
-1.21013e-10
1.39219e-10
-1.50073e-10
1.48975e-10
-1.80422e-10
1.56032e-10
-2.11632e-10
1.60679e-10
-2.43312e-10
1.63151e-10
-2.75152e-10
1.63638e-10
-3.06837e-10
1.62259e-10
-3.38077e-10
1.59126e-10
-3.68563e-10
1.54309e-10
-3.97999e-10
1.47849e-10
-4.26076e-10
1.39746e-10
-4.52493e-10
1.29985e-10
-4.76935e-10
1.18539e-10
-4.99079e-10
1.0539e-10
-5.18586e-10
9.05332e-11
-5.35101e-10
7.39779e-11
-5.4825e-10
5.57481e-11
-5.57646e-10
3.58801e-11
-5.62891e-10
1.44244e-11
-5.63583e-10
-8.54981e-12
-5.59329e-10
-3.2945e-11
-5.49757e-10
-5.86241e-11
-5.34535e-10
-8.5396e-11
-5.13391e-10
-1.13003e-10
-4.86135e-10
-1.4111e-10
-4.52679e-10
-1.69295e-10
-4.13067e-10
-1.97046e-10
-3.67487e-10
-2.23766e-10
-3.16297e-10
-2.48783e-10
-2.60029e-10
-2.71379e-10
-1.99398e-10
-2.90816e-10
-1.35288e-10
-3.06384e-10
-6.87412e-11
-3.17453e-10
-9.12237e-13
-3.23523e-10
6.69725e-11
-3.24272e-10
1.33674e-10
-3.1959e-10
1.97997e-10
-3.09587e-10
2.58847e-10
-2.94592e-10
3.15276e-10
-2.75128e-10
3.66513e-10
-2.51869e-10
4.11979e-10
-2.25593e-10
4.51294e-10
-1.97128e-10
4.84258e-10
-1.67302e-10
5.10841e-10
-1.36903e-10
5.31154e-10
-1.06649e-10
5.45425e-10
-7.7162e-11
5.53977e-10
-4.89583e-11
5.57195e-10
-2.24338e-11
5.55512e-10
2.13454e-12
5.4938e-10
2.45851e-11
5.39259e-10
4.48569e-11
5.25597e-10
6.29748e-11
5.0882e-10
7.90306e-11
4.89326e-10
9.31663e-11
4.67477e-10
1.05551e-10
4.43603e-10
1.16359e-10
4.18002e-10
1.25747e-10
3.90944e-10
1.33836e-10
3.62676e-10
1.40703e-10
3.33437e-10
1.46366e-10
3.03451e-10
1.50807e-10
2.72957e-10
1.53957e-10
2.42195e-10
1.55712e-10
2.11444e-10
1.55899e-10
1.81001e-10
1.54302e-10
1.51233e-10
1.50628e-10
1.22534e-10
1.44607e-10
9.53807e-11
1.35993e-10
7.02719e-11
1.2459e-10
4.78031e-11
1.10025e-10
2.8679e-11
9.17831e-11
1.37049e-11
6.97854e-11
3.77301e-12
4.42641e-11
1.53238e-11
-3.84212e-12
1.80522e-11
-1.4068e-11
5.24297e-11
-2.95502e-11
8.39458e-11
-4.94167e-11
1.11408e-10
-7.29689e-11
1.34169e-10
-9.94509e-11
1.52763e-10
-1.2828e-10
1.67752e-10
-1.58939e-10
1.79347e-10
-1.90954e-10
1.87771e-10
-2.23853e-10
1.93315e-10
-2.57262e-10
1.96313e-10
-2.90846e-10
1.96994e-10
-3.24331e-10
1.95534e-10
-3.57428e-10
1.92036e-10
-3.89857e-10
1.86574e-10
-4.21321e-10
1.79172e-10
-4.51523e-10
1.69832e-10
-4.80154e-10
1.58523e-10
-5.06892e-10
1.45206e-10
-5.31396e-10
1.29844e-10
-5.53302e-10
1.12408e-10
-5.72218e-10
9.28783e-11
-5.87722e-10
7.125e-11
-5.99365e-10
4.75312e-11
-6.06673e-10
2.17483e-11
-6.09158e-10
-6.04357e-12
-6.0633e-10
-3.57488e-11
-5.97716e-10
-6.72133e-11
-5.82879e-10
-1.00208e-10
-5.61448e-10
-1.34413e-10
-5.3314e-10
-1.694e-10
-4.97792e-10
-2.04627e-10
-4.55393e-10
-2.39434e-10
-4.06105e-10
-2.73047e-10
-3.5029e-10
-3.04595e-10
-2.88528e-10
-3.33142e-10
-2.21622e-10
-3.57727e-10
-1.50593e-10
-3.7742e-10
-7.66608e-11
-3.91395e-10
-1.19346e-12
-3.99002e-10
7.43493e-11
-3.99829e-10
1.48493e-10
-3.9375e-10
2.19824e-10
-3.80937e-10
2.87062e-10
-3.6185e-10
3.49114e-10
-3.37201e-10
4.05115e-10
-3.07889e-10
4.54445e-10
-2.74934e-10
4.96721e-10
-2.39403e-10
5.31781e-10
-2.02344e-10
5.59654e-10
-1.64739e-10
5.80527e-10
-1.27468e-10
5.94719e-10
-9.1286e-11
6.0264e-10
-5.68037e-11
6.04767e-10
-2.44855e-11
6.01616e-10
5.35433e-12
5.9372e-10
3.25381e-11
5.8161e-10
5.70107e-11
5.65796e-10
7.88161e-11
5.46759e-10
9.80789e-11
5.24942e-10
1.14978e-10
5.00746e-10
1.29725e-10
4.74533e-10
1.42533e-10
4.46625e-10
1.53599e-10
4.17309e-10
1.63077e-10
3.86845e-10
1.7107e-10
3.55471e-10
1.77624e-10
3.23415e-10
1.82722e-10
2.909e-10
1.86309e-10
2.58173e-10
1.88255e-10
2.25484e-10
1.88381e-10
1.93142e-10
1.86417e-10
1.61481e-10
1.82046e-10
1.30926e-10
1.74905e-10
1.01949e-10
1.64701e-10
7.51225e-11
1.51139e-10
5.10756e-11
1.33786e-10
3.06034e-11
1.11966e-10
1.45769e-11
8.55183e-11
3.99007e-12
5.45687e-11
1.91825e-11
-3.99332e-12
2.18678e-11
-1.47255e-11
6.28521e-11
-3.10358e-11
9.99541e-11
-5.19806e-11
1.32064e-10
-7.67828e-11
1.58685e-10
-1.04634e-10
1.80333e-10
-1.34825e-10
1.97668e-10
-1.6686e-10
2.11116e-10
-2.00253e-10
2.2091e-10
-2.34575e-10
2.27398e-10
-2.69424e-10
2.30939e-10
-3.04498e-10
2.31862e-10
-3.39517e-10
2.30366e-10
-3.74237e-10
2.26589e-10
-4.08393e-10
2.20585e-10
-4.4172e-10
2.12376e-10
-4.73928e-10
2.01939e-10
-5.04718e-10
1.89231e-10
-5.33763e-10
1.7419e-10
-5.60713e-10
1.56749e-10
-5.85181e-10
1.36845e-10
-6.06739e-10
1.14419e-10
-6.24918e-10
8.94202e-11
-6.39203e-10
6.18135e-11
-6.49038e-10
3.15859e-11
-6.53838e-10
-1.23869e-12
-6.53002e-10
-3.65792e-11
-6.45935e-10
-7.42762e-11
-6.32073e-10
-1.14068e-10
-6.10918e-10
-1.5557e-10
-5.82066e-10
-1.98257e-10
-5.4525e-10
-2.41453e-10
-5.00374e-10
-2.84326e-10
-4.47546e-10
-3.25896e-10
-3.87114e-10
-3.65053e-10
-3.19691e-10
-4.00596e-10
-2.46168e-10
-4.31284e-10
-1.67718e-10
-4.55907e-10
-8.57708e-11
-4.73384e-10
-1.95502e-12
-4.82862e-10
8.19807e-11
-4.83813e-10
1.64268e-10
-4.7609e-10
2.43222e-10
-4.59948e-10
3.17331e-10
-4.36024e-10
3.85333e-10
-4.05275e-10
4.46259e-10
-3.68892e-10
4.99448e-10
-3.28201e-10
5.44535e-10
-2.84558e-10
5.81414e-10
-2.39275e-10
6.10203e-10
-1.93557e-10
6.31197e-10
-1.48465e-10
6.44826e-10
-1.04892e-10
6.5162e-10
-6.35534e-11
6.52165e-10
-2.49755e-11
6.47083e-10
1.04935e-11
6.37001e-10
4.26726e-11
6.22532e-10
7.15223e-11
6.04256e-10
9.71215e-11
5.82712e-10
1.19637e-10
5.5839e-10
1.393e-10
5.3173e-10
1.56369e-10
5.03122e-10
1.71108e-10
4.72911e-10
1.83761e-10
4.41398e-10
1.94526e-10
4.08844e-10
2.03541e-10
3.75488e-10
2.10878e-10
3.41542e-10
2.16547e-10
3.07222e-10
2.20486e-10
2.72742e-10
2.2257e-10
2.38353e-10
2.22587e-10
2.04319e-10
2.20248e-10
1.70984e-10
2.15161e-10
1.38737e-10
2.06917e-10
1.08096e-10
1.95095e-10
7.96458e-11
1.79331e-10
5.41204e-11
1.59045e-10
3.23595e-11
1.33455e-10
1.5356e-11
1.02245e-10
4.17255e-12
6.54846e-11
2.32308e-11
-4.13826e-12
2.58406e-11
-1.53831e-11
7.38127e-11
-3.25448e-11
1.16838e-10
-5.45349e-11
1.53789e-10
-8.05395e-11
1.84425e-10
-1.09664e-10
2.09198e-10
-1.41126e-10
2.28877e-10
-1.74337e-10
2.44084e-10
-2.08882e-10
2.55223e-10
-2.4434e-10
2.6264e-10
-2.80373e-10
2.66771e-10
-3.16667e-10
2.67974e-10
-3.52992e-10
2.66526e-10
-3.89114e-10
2.62566e-10
-4.24818e-10
2.56163e-10
-4.5986e-10
2.47311e-10
-4.93982e-10
2.35972e-10
-5.26894e-10
2.22072e-10
-5.58279e-10
2.05519e-10
-5.87778e-10
1.86206e-10
-6.14989e-10
1.64024e-10
-6.39454e-10
1.38859e-10
-6.60653e-10
1.10602e-10
-6.78007e-10
7.91528e-11
-6.90872e-10
4.44386e-11
-6.98556e-10
6.43285e-12
-7.00329e-10
-3.48188e-11
-6.95453e-10
-7.91661e-11
-6.83212e-10
-1.26326e-10
-6.62947e-10
-1.75854e-10
-6.34103e-10
-2.27124e-10
-5.96269e-10
-2.79315e-10
-5.49227e-10
-3.31401e-10
-4.92997e-10
-3.82162e-10
-4.27885e-10
-4.30208e-10
-3.54515e-10
-4.74013e-10
-2.73866e-10
-5.11984e-10
-1.87277e-10
-5.4255e-10
-9.64293e-11
-5.64287e-10
-3.2757e-12
-5.76072e-10
9.00699e-11
-5.77216e-10
1.81468e-10
-5.67547e-10
2.6889e-10
-5.47433e-10
3.50539e-10
-5.17745e-10
4.24951e-10
-4.79772e-10
4.91044e-10
-4.35086e-10
5.48125e-10
-3.85398e-10
5.9587e-10
-3.32424e-10
6.34267e-10
-2.77785e-10
6.63557e-10
-2.2294e-10
6.84174e-10
-1.69147e-10
6.96699e-10
-1.17448e-10
7.01807e-10
-6.86585e-11
7.00224e-10
-2.33657e-11
6.92697e-10
1.80618e-11
6.79963e-10
5.54511e-11
6.62728e-10
8.87984e-11
6.4165e-10
1.18232e-10
6.17327e-10
1.4398e-10
5.90298e-10
1.66333e-10
5.6104e-10
1.85617e-10
5.29969e-10
2.02154e-10
4.97446e-10
2.16243e-10
4.6378e-10
2.28136e-10
4.29234e-10
2.38015e-10
3.94031e-10
2.45993e-10
3.58373e-10
2.521e-10
3.22441e-10
2.56293e-10
2.86433e-10
2.58434e-10
2.50548e-10
2.58309e-10
2.15041e-10
2.55573e-10
1.802e-10
2.49803e-10
1.4643e-10
2.40474e-10
1.14212e-10
2.27087e-10
8.421e-11
2.09095e-10
5.71998e-11
1.85807e-10
3.41453e-11
1.56257e-10
1.61366e-11
1.19993e-10
4.35874e-12
7.70112e-11
2.74741e-11
-4.30813e-12
2.99964e-11
-1.61325e-11
8.53819e-11
-3.42369e-11
1.34694e-10
-5.73835e-11
1.767e-10
-8.45776e-11
2.11381e-10
-1.14944e-10
2.3933e-10
-1.47581e-10
2.61287e-10
-1.81862e-10
2.78148e-10
-2.17339e-10
2.90494e-10
-2.53695e-10
2.98805e-10
-2.90622e-10
3.03522e-10
-3.27885e-10
3.05078e-10
-3.65265e-10
3.03765e-10
-4.02587e-10
2.99764e-10
-4.3966e-10
2.93129e-10
-4.76288e-10
2.83848e-10
-5.12237e-10
2.71847e-10
-5.47245e-10
2.57018e-10
-5.81005e-10
2.39228e-10
-6.13162e-10
2.18321e-10
-6.43302e-10
1.94129e-10
-6.70942e-10
1.66468e-10
-6.95521e-10
1.35152e-10
-7.16392e-10
9.99953e-11
-7.32821e-10
6.084e-11
-7.43999e-10
1.75809e-11
-7.49052e-10
-2.97953e-11
-7.47077e-10
-8.11727e-11
-7.37174e-10
-1.36262e-10
-7.18491e-10
-1.94571e-10
-6.90276e-10
-2.55375e-10
-6.51931e-10
-3.17698e-10
-6.0307e-10
-3.80302e-10
-5.4358e-10
-4.41696e-10
-4.73683e-10
-5.00153e-10
-3.93987e-10
-5.5376e-10
-3.05543e-10
-6.00482e-10
-2.09876e-10
-6.38273e-10
-1.08972e-10
-6.65245e-10
-5.19336e-12
-6.79901e-10
9.88793e-11
-6.81333e-10
2.0063e-10
-6.69335e-10
2.97595e-10
-6.44429e-10
3.87622e-10
-6.07804e-10
4.69005e-10
-5.61196e-10
5.40542e-10
-5.06688e-10
6.01537e-10
-4.4649e-10
6.51741e-10
-3.82756e-10
6.91283e-10
-3.17468e-10
7.20574e-10
-2.52369e-10
7.40235e-10
-1.88927e-10
7.51032e-10
-1.28332e-10
7.5382e-10
-7.14954e-11
7.49496e-10
-1.9054e-11
7.38957e-10
2.86151e-11
7.23066e-10
7.13709e-11
7.02632e-10
1.09265e-10
6.78393e-10
1.425e-10
6.51012e-10
1.71382e-10
6.21071e-10
1.96283e-10
5.89082e-10
2.17601e-10
5.55481e-10
2.35735e-10
5.2064e-10
2.5105e-10
4.84872e-10
2.63857e-10
4.48429e-10
2.74396e-10
4.11524e-10
2.82821e-10
3.74327e-10
2.89204e-10
3.36996e-10
2.93515e-10
2.99672e-10
2.95632e-10
2.62529e-10
2.95309e-10
2.25749e-10
2.92191e-10
1.89608e-10
2.85767e-10
1.54438e-10
2.75451e-10
1.20746e-10
2.60574e-10
8.9182e-11
2.40442e-10
6.06366e-11
2.14127e-10
3.61632e-11
1.80497e-10
1.70394e-11
1.38877e-10
4.57157e-12
8.92478e-11
3.1943e-11
-4.5384e-12
3.43978e-11
-1.70623e-11
9.76853e-11
-3.63149e-11
1.53731e-10
-6.08182e-11
2.01005e-10
-8.93369e-11
2.39697e-10
-1.2089e-10
2.70681e-10
-1.54621e-10
2.94822e-10
-1.89819e-10
3.1316e-10
-2.26069e-10
3.26568e-10
-2.63072e-10
3.35647e-10
-3.00641e-10
3.40944e-10
-3.3859e-10
3.42896e-10
-3.76785e-10
3.41844e-10
-4.15084e-10
3.37962e-10
-4.53353e-10
3.31313e-10
-4.9143e-10
3.21853e-10
-5.29122e-10
3.09478e-10
-5.66192e-10
2.94038e-10
-6.02356e-10
2.75348e-10
-6.37268e-10
2.53194e-10
-6.70512e-10
2.27336e-10
-7.0159e-10
1.9751e-10
-7.29903e-10
1.63428e-10
-7.54746e-10
1.24798e-10
-7.75293e-10
8.1345e-11
-7.90613e-10
3.28557e-11
-7.99675e-10
-2.07801e-11
-8.01385e-10
-7.95102e-11
-7.94627e-10
-1.43068e-10
-7.78316e-10
-2.10929e-10
-7.51456e-10
-2.8228e-10
-7.13205e-10
-3.55992e-10
-6.62951e-10
-4.306e-10
-6.00389e-10
-5.04302e-10
-5.25599e-10
-5.7499e-10
-4.39129e-10
-6.40282e-10
-3.42076e-10
-6.97593e-10
-2.36163e-10
-7.44246e-10
-1.23754e-10
-7.77714e-10
-7.73233e-12
-7.95976e-10
1.08715e-10
-7.97822e-10
2.22359e-10
-7.83e-10
3.30176e-10
-7.52239e-10
4.2957e-10
-7.07165e-10
5.18546e-10
-6.50125e-10
5.95793e-10
-5.83898e-10
6.60652e-10
-5.1135e-10
7.13014e-10
-4.35176e-10
7.53209e-10
-3.57771e-10
7.81886e-10
-2.81181e-10
7.99898e-10
-2.07084e-10
8.08243e-10
-1.36807e-10
8.07994e-10
-7.13446e-11
8.00249e-10
-1.13688e-11
7.8608e-10
4.27589e-11
7.66495e-10
9.09543e-11
7.42414e-10
1.33358e-10
7.14658e-10
1.70273e-10
6.83947e-10
2.02108e-10
6.50906e-10
2.29331e-10
6.16069e-10
2.52435e-10
5.79889e-10
2.71899e-10
5.42743e-10
2.88169e-10
5.04938e-10
3.01622e-10
4.66717e-10
3.12564e-10
4.28266e-10
3.21206e-10
3.89731e-10
3.27661e-10
3.51219e-10
3.31935e-10
3.12834e-10
3.3391e-10
2.74672e-10
3.33348e-10
2.3688e-10
3.29847e-10
1.99637e-10
3.22858e-10
1.63251e-10
3.11671e-10
1.28151e-10
2.95494e-10
9.50293e-11
2.73374e-10
6.48011e-11
2.44155e-10
3.87044e-11
2.0639e-10
1.81992e-11
1.59171e-10
4.84065e-12
1.02404e-10
3.67009e-11
-4.86875e-12
3.91481e-11
-1.83771e-11
1.11016e-10
-3.90944e-11
1.74271e-10
-6.52743e-11
2.27035e-10
-9.53183e-11
2.69588e-10
-1.28085e-10
3.0329e-10
-1.62729e-10
3.29311e-10
-1.98649e-10
3.48933e-10
-2.35416e-10
3.632e-10
-2.72831e-10
3.72938e-10
-3.10757e-10
3.78759e-10
-3.4913e-10
3.81172e-10
-3.87873e-10
3.80505e-10
-4.26927e-10
3.76946e-10
-4.662e-10
3.70528e-10
-5.05581e-10
3.61186e-10
-5.44915e-10
3.48773e-10
-5.84e-10
3.3309e-10
-6.22576e-10
3.13894e-10
-6.60314e-10
2.90903e-10
-6.9681e-10
2.63801e-10
-7.31559e-10
2.32223e-10
-7.63941e-10
1.9577e-10
-7.93199e-10
1.5401e-10
-8.18428e-10
1.06522e-10
-8.38569e-10
5.294e-11
-8.52425e-10
-6.98365e-12
-8.58689e-10
-7.33082e-11
-8.55994e-10
-1.45823e-10
-8.42979e-10
-2.24002e-10
-8.18347e-10
-3.06966e-10
-7.80947e-10
-3.93443e-10
-7.29863e-10
-4.81732e-10
-6.64519e-10
-5.69697e-10
-5.8478e-10
-6.54784e-10
-4.9106e-10
-7.34069e-10
-3.84451e-10
-8.04283e-10
-2.66883e-10
-8.61913e-10
-1.4119e-10
-9.03519e-10
-1.09346e-11
-9.26341e-10
1.19908e-10
-9.28764e-10
2.47313e-10
-9.10479e-10
3.67542e-10
-8.72491e-10
4.77429e-10
-8.17007e-10
5.74639e-10
-7.47221e-10
6.57778e-10
-6.66879e-10
7.2631e-10
-5.79733e-10
7.80363e-10
-4.89143e-10
8.20555e-10
-3.97963e-10
8.47844e-10
-3.0854e-10
8.63383e-10
-2.22744e-10
8.68441e-10
-1.42009e-10
8.6435e-10
-6.73878e-11
8.52442e-10
4.35264e-13
8.33992e-10
6.11395e-11
8.10167e-10
1.14741e-10
7.82001e-10
1.61506e-10
7.50392e-10
2.01877e-10
7.16112e-10
2.36388e-10
6.79813e-10
2.6563e-10
6.42049e-10
2.90195e-10
6.03274e-10
3.10662e-10
5.63866e-10
3.27556e-10
5.2412e-10
3.41338e-10
4.84263e-10
3.5238e-10
4.44456e-10
3.60964e-10
4.04801e-10
3.67256e-10
3.65369e-10
3.71296e-10
3.26195e-10
3.73002e-10
2.87325e-10
3.72123e-10
2.48805e-10
3.68258e-10
2.10756e-10
3.60786e-10
1.73361e-10
3.48932e-10
1.37009e-10
3.31702e-10
1.02309e-10
3.07919e-10
7.02464e-11
2.76055e-10
4.21711e-11
2.34299e-10
1.98624e-11
1.81309e-10
5.22824e-12
1.16879e-10
4.18742e-11
-5.41345e-12
4.4466e-11
-2.04635e-11
1.25941e-10
-4.3251e-11
1.96918e-10
-7.14517e-11
2.55131e-10
-1.03237e-10
3.01275e-10
-1.37189e-10
3.37138e-10
-1.72551e-10
3.64565e-10
-2.08832e-10
3.85112e-10
-2.45779e-10
4.00054e-10
-2.83246e-10
4.10323e-10
-3.21223e-10
4.16666e-10
-3.5971e-10
4.19601e-10
-3.98736e-10
4.19485e-10
-4.38298e-10
4.16472e-10
-4.78372e-10
4.10577e-10
-5.18892e-10
4.01689e-10
-5.59746e-10
3.89615e-10
-6.0077e-10
3.74104e-10
-6.4173e-10
3.54846e-10
-6.82327e-10
3.3149e-10
-7.22172e-10
3.0363e-10
-7.60775e-10
2.70804e-10
-7.97511e-10
2.32476e-10
-8.31594e-10
1.88054e-10
-8.62047e-10
1.36927e-10
-8.877e-10
7.85366e-11
-9.07183e-10
1.24362e-11
-9.18957e-10
-6.16019e-11
-9.21373e-10
-1.43477e-10
-9.12746e-10
-2.32698e-10
-8.91417e-10
-3.28364e-10
-8.55838e-10
-4.29089e-10
-8.04696e-10
-5.32945e-10
-7.3704e-10
-6.37431e-10
-6.52416e-10
-7.39502e-10
-5.50997e-10
-8.35609e-10
-4.3378e-10
-9.21659e-10
-3.02888e-10
-9.93005e-10
-1.61759e-10
-1.04489e-09
-1.48622e-11
-1.0735e-09
1.32805e-10
-1.07669e-09
2.762e-10
-1.05412e-09
4.10662e-10
-1.00714e-09
5.32296e-10
-9.38731e-10
6.38347e-10
-8.53229e-10
7.27395e-10
-7.55755e-10
7.99178e-10
-6.51266e-10
8.54213e-10
-5.43947e-10
8.93524e-10
-4.37134e-10
9.18467e-10
-3.33447e-10
9.30559e-10
-2.34891e-10
9.31386e-10
-1.4296e-10
9.2257e-10
-5.87219e-11
9.05715e-10
1.71531e-11
8.82325e-10
8.4424e-11
8.53736e-10
1.43258e-10
8.21089e-10
1.9411e-10
7.85347e-10
2.37596e-10
7.47314e-10
2.74413e-10
7.07661e-10
3.05281e-10
6.66939e-10
3.30917e-10
6.25603e-10
3.51996e-10
5.84014e-10
3.69138e-10
5.42459e-10
3.8288e-10
5.01139e-10
3.9368e-10
4.60186e-10
4.01889e-10
4.19666e-10