/*--------------------------------*- C++ -*----------------------------------*\
| =========                 |                                                 |
| \\      /  F ield         | OpenFOAM: The Open Source CFD Toolbox           |
|  \\    /   O peration     | Version:  2412                                  |
|   \\  /    A nd           | Website:  www.openfoam.com                      |
|    \\/     M anipulation  |                                                 |
\*---------------------------------------------------------------------------*/
FoamFile
{
    version     2.0;
    format      ascii;
    arch        "LSB;label=32;scalar=64";
    class       volScalarField;
    location    "5.45";
    object      p_rgh;
}
// * * * * * * * * * * * * * * * * * * * * * * * * * * * * * * * * * * * * * //

dimensions      [1 -1 -2 0 0 0 0];

internalField   nonuniform List<scalar> 
6400
(
15686.2
15686.2
15686.2
15686.2
15686.2
15686.2
15686.2
15686.2
15686.2
15686.2
15686.2
15686.2
15686.2
15686.2
15686.2
15686.2
15686.2
15686.2
15686.2
15686.2
15686.2
15686.2
15686.2
15686.2
15686.2
15686.2
15686.2
15686.2
15686.2
15686.2
15686.2
15686.2
15686.2
15686.2
15686.2
15686.2
15686.2
15686.2
15686.2
15686.2
15686.2
15686.2
15686.2
15686.2
15686.2
15686.2
15686.2
15686.2
15686.2
15686.2
15686.2
15686.2
15686.2
15686.2
15686.2
15686.2
15686.2
15686.2
15686.2
15686.2
15686.2
15686.2
15686.2
15686.2
15686.2
15686.2
15686.2
15686.2
15686.2
15686.2
15686.2
15686.2
15686.2
15686.2
15686.2
15686.2
15686.2
15686.2
15686.2
15686.2
15686.2
15686.2
15686.2
15686.2
15686.2
15686.2
15686.2
15686.2
15686.2
15686.2
15686.2
15686.2
15686.2
15686.2
15686.2
15686.2
15686.2
15686.2
15686.2
15686.2
15686.2
15686.2
15686.2
15686.2
15686.2
15686.2
15686.2
15686.2
15686.2
15686.2
15686.2
15686.2
15686.2
15686.2
15686.2
15686.2
15686.2
15686.2
15686.2
15686.2
15686.2
15686.2
15686.2
15686.2
15686.2
15686.2
15686.2
15686.2
15686.2
15686.2
15686.2
15686.2
15686.2
15686.2
15686.2
15686.2
15686.2
15686.2
15686.2
15686.2
15686.2
15686.2
15686.2
15686.2
15686.2
15686.2
15686.2
15686.2
15686.2
15686.2
15686.2
15686.2
15686.2
15686.2
15686.2
15686.2
15686.2
15686.2
15686.2
15686.2
15686.2
15686.2
15686.2
15686.2
15686.2
15686.2
15686.2
15686.2
15686.2
15686.2
15686.2
15686.2
15686.2
15686.2
15686.2
15686.2
15686.2
15686.2
15686.2
15686.2
15686.2
15686.2
15686.2
15686.2
15686.2
15686.2
15686.2
15686.2
15686.2
15686.2
15686.2
15686.2
15686.2
15686.2
15686.2
15686.2
15686.2
15686.2
15686.2
15686.2
15686.2
15686.2
15686.2
15686.2
15686.2
15686.2
15686.2
15686.2
15686.2
15686.2
15686.2
15686.2
15686.2
15686.2
15686.2
15686.2
15686.2
15686.2
15686.2
15686.2
15686.2
15686.2
15686.2
15686.2
15686.2
15686.2
15686.2
15686.2
15686.2
15686.2
15686.2
15686.2
15686.2
15686.2
15686.2
15686.2
15686.2
15686.2
15686.2
15686.2
15686.2
15686.2
15686.2
15686.2
15686.2
15686.2
15686.2
15686.2
15686.2
15686.2
15686.2
15686.2
15686.2
15686.2
15686.2
15686.2
15686.2
15686.2
15686.2
15686.2
15686.2
15686.2
15686.2
15686.2
15686.2
15686.2
15686.2
15686.2
15686.2
15686.2
15686.2
15686.2
15686.2
15686.2
15686.2
15686.2
15686.2
15686.2
15686.2
15686.2
15686.2
15686.2
15686.2
15686.2
15686.2
15686.2
15686.2
15686.2
15686.2
15686.2
15686.2
15686.2
15686.2
15686.2
15686.2
15686.2
15686.2
15686.2
15686.2
15686.2
15686.2
15686.2
15686.2
15686.2
15686.2
15686.2
15686.2
15686.2
15686.2
15686.2
15686.2
15686.2
15686.2
15686.2
15686.2
15686.2
15686.2
15686.2
15686.2
15686.2
15686.2
15686.2
15686.2
15686.2
15686.2
15686.2
15686.2
15686.2
15686.2
15686.2
15686.2
15686.2
15686.2
15686.2
15686.2
15686.2
15686.2
15686.2
15686.2
15686.2
15686.2
15686.2
15686.2
15686.2
15686.2
15686.2
15686.2
15686.2
15686.2
15686.2
15686.2
15686.2
15686.2
15686.2
15686.2
15686.2
15686.2
15686.2
15686.2
15686.2
15686.2
15686.2
15686.2
15686.2
15686.2
15686.2
15686.2
15686.2
15686.2
15686.2
15686.2
15686.2
15686.2
15686.2
15686.2
15686.2
15686.2
15686.2
15686.2
15686.2
15686.2
15686.2
15686.2
15686.2
15686.2
15686.2
15686.2
15686.2
15686.2
15686.2
15686.2
15686.2
15686.2
15686.2
15686.2
15686.2
15686.2
15686.2
15686.2
15686.2
15686.2
15686.2
15686.2
15686.2
15686.2
15686.2
15686.2
15686.2
15686.2
15686.2
15686.2
15686.2
15686.2
15686.2
15686.2
15686.2
15686.2
15686.2
15686.2
15686.2
15686.2
15686.2
15686.2
15686.2
15686.2
15686.2
15686.2
15686.2
15686.2
15686.2
15686.2
15686.2
15686.2
15686.2
15686.2
15686.2
15686.2
15686.2
15686.2
15686.2
15686.2
15686.2
15686.2
15686.2
15686.2
15686.2
15686.2
15686.2
15686.2
15686.2
15686.2
15686.2
15686.2
15686.2
15686.2
15686.2
15686.2
15686.2
15686.2
15686.2
15686.2
15686.2
15686.2
15686.2
15686.2
15686.2
15686.2
15686.2
15686.2
15686.2
15686.2
15686.2
15686.2
15686.2
15686.2
15686.2
15686.2
15686.2
15686.2
15686.2
15686.2
15686.2
15686.2
15686.2
15686.2
15686.2
15686.2
15686.2
15686.2
15686.2
15686.2
15686.2
15686.2
15686.2
15686.2
15686.2
15686.2
15686.2
15686.2
15686.2
15686.2
15686.2
15686.2
15686.2
15686.2
15686.2
15686.2
15686.2
15686.2
15686.2
15686.2
15686.2
15686.2
15686.2
15686.2
15686.2
15686.2
15686.2
15686.2
15686.2
15686.2
15686.2
15686.2
15686.2
15686.2
15686.2
15686.2
15686.2
15686.2
15686.2
15686.2
15686.2
15686.2
15686.2
15686.2
15686.2
15686.2
15686.2
15686.2
15686.2
15686.2
15686.2
15686.2
15686.2
15686.2
15686.2
15686.2
15686.2
15686.2
15686.2
15686.2
15686.2
15686.2
15686.2
15686.2
15686.2
15686.2
15686.2
15686.2
15686.2
15686.2
15686.2
15686.2
15686.2
15686.2
15686.2
15686.2
15686.2
15686.2
15686.2
15686.2
15686.2
15686.2
15686.2
15686.2
15686.2
15686.2
15686.2
15686.2
15686.2
15686.2
15686.2
15686.2
15686.2
15686.2
15686.2
15686.2
15686.2
15686.2
15686.2
15686.2
15686.2
15686.2
15686.2
15686.2
15686.2
15686.2
15686.2
15686.2
15686.2
15686.2
15686.2
15686.2
15686.2
15686.2
15686.2
15686.2
15686.2
15686.2
15686.2
15686.2
15686.2
15686.2
15686.2
15686.2
15686.2
15686.2
15686.2
15686.2
15686.2
15686.2
15686.2
15686.2
15686.2
15686.2
15686.2
15686.2
15686.2
15686.2
15686.2
15686.2
15686.2
15686.2
15686.2
15686.2
15686.2
15686.2
15686.2
15686.2
15686.2
15686.2
15686.2
15686.2
15686.2
15686.2
15686.2
15686.2
15686.2
15686.2
15686.2
15686.2
15686.2
15686.2
15686.2
15686.2
15686.2
15686.2
15686.2
15686.2
15686.2
15686.2
15686.2
15686.2
15686.2
15686.2
15686.2
15686.2
15686.2
15686.2
15686.2
15686.2
15686.2
15686.2
15686.2
15686.2
15686.2
15686.2
15686.2
15686.2
15686.2
15686.2
15686.2
15686.2
15686.2
15686.2
15686.2
15686.2
15686.2
15686.2
15686.2
15686.2
15686.2
15686.2
15686.2
15686.2
15686.2
15686.2
15686.2
15686.2
15686.2
15686.2
15686.2
15686.2
15686.2
15686.2
15686.2
15686.2
15686.2
15686.2
15686.2
15686.2
15686.2
15686.2
15686.2
15686.2
15686.2
15686.2
15686.2
15686.2
15686.2
15686.2
15686.2
15686.2
15686.2
15686.2
15686.2
15686.2
15686.2
15686.2
15686.2
15686.2
15686.2
15686.2
15686.2
15686.2
15686.2
15686.2
15686.2
15686.2
15686.2
15686.2
15686.2
15686.2
15686.2
15686.2
15686.2
15686.2
15686.2
15686.2
15686.2
15686.2
15686.2
15686.2
15686.2
15686.2
15686.2
15686.2
15686.2
15686.2
15686.2
15686.2
15686.2
15686.2
15686.2
15686.2
15686.2
15686.2
15686.2
15686.2
15686.2
15686.2
15686.2
15686.2
15686.2
15686.2
15686.2
15686.2
15686.2
15686.2
15686.2
15686.2
15686.2
15686.2
15686.2
15686.2
15686.2
15686.2
15686.2
15686.2
15686.2
15686.2
15686.2
15686.2
15686.2
15686.2
15686.2
15686.2
15686.2
15686.2
15686.2
15686.2
15686.2
15686.2
15686.2
15686.2
15686.2
15686.2
15686.2
15686.2
15686.2
15686.2
15686.2
15686.2
15686.2
15686.2
15686.2
15686.2
15686.2
15686.2
15686.2
15686.2
15686.2
15686.2
15686.2
15686.2
15686.2
15686.2
15686.2
15686.2
15686.2
15686.2
15686.2
15686.2
15686.2
15686.2
15686.2
15686.2
15686.2
15686.2
15686.2
15686.2
15686.2
15686.2
15686.2
15686.2
15686.2
15686.2
15686.2
15686.2
15686.2
15686.2
15686.2
15686.2
15686.2
15686.2
15686.2
15686.2
15686.2
15686.2
15686.2
15686.2
15686.2
15686.2
15686.2
15686.2
15686.2
15686.2
15686.2
15686.2
15686.2
15686.2
15686.2
15686.2
15686.2
15686.2
15686.2
15686.2
15686.2
15686.2
15686.2
15686.2
15686.2
15686.2
15686.2
15686.2
15686.2
15686.2
15686.2
15686.2
15686.2
15686.2
15686.2
15686.2
15686.2
15686.2
15686.2
15686.2
15686.2
15686.2
15686.2
15686.2
15686.2
15686.2
15686.2
15686.2
15686.2
15686.2
15686.2
15686.2
15686.2
15686.2
15686.2
15686.2
15686.2
15686.2
15686.2
15686.2
15686.3
15686.3
15686.3
15686.3
15686.3
15686.3
15686.2
15686.2
15686.2
15686.2
15686.2
15686.2
15686.2
15686.2
15686.2
15686.2
15686.2
15686.2
15686.2
15686.2
15686.2
15686.2
15686.2
15686.2
15686.2
15686.2
15686.2
15686.2
15686.2
15686.2
15686.2
15686.2
15686.2
15686.2
15686.2
15686.2
15686.2
15686.2
15686.2
15686.2
15686.2
15686.2
15686.2
15686.2
15686.2
15686.2
15686.2
15686.2
15686.2
15686.2
15686.2
15686.2
15686.2
15686.2
15686.2
15686.2
15686.2
15686.2
15686.2
15686.2
15686.2
15686.2
15686.2
15686.2
15686.2
15686.2
15686.2
15686.2
15686.2
15686.2
15686.2
15686.2
15686.2
15686.2
15686.2
15686.2
15686.2
15686.2
15686.2
15686.3
15686.3
15686.3
15686.3
15686.3
15686.3
15686.3
15686.3
15686.2
15686.2
15686.2
15686.2
15686.2
15686.2
15686.2
15686.2
15686.2
15686.2
15686.2
15686.2
15686.2
15686.2
15686.2
15686.2
15686.2
15686.2
15686.2
15686.2
15686.2
15686.2
15686.2
15686.2
15686.2
15686.2
15686.2
15686.2
15686.2
15686.2
15686.2
15686.2
15686.2
15686.2
15686.2
15686.2
15686.2
15686.2
15686.2
15686.2
15686.2
15686.2
15686.2
15686.2
15686.2
15686.2
15686.2
15686.2
15686.2
15686.2
15686.2
15686.2
15686.2
15686.2
15686.2
15686.2
15686.2
15686.2
15686.2
15686.2
15686.2
15686.2
15686.2
15686.2
15686.2
15686.2
15686.2
15686.2
15686.2
15686.2
15686.2
15686.3
15686.3
15686.3
15686.3
15686.3
15686.3
15686.3
15686.3
15686.3
15686.3
15686.2
15686.2
15686.2
15686.2
15686.2
15686.2
15686.2
15686.2
15686.2
15686.2
15686.2
15686.2
15686.2
15686.2
15686.2
15686.2
15686.2
15686.2
15686.2
15686.2
15686.2
15686.2
15686.2
15686.2
15686.2
15686.2
15686.2
15686.2
15686.2
15686.2
15686.2
15686.2
15686.2
15686.2
15686.2
15686.2
15686.2
15686.2
15686.2
15686.2
15686.2
15686.2
15686.2
15686.2
15686.2
15686.2
15686.2
15686.2
15686.2
15686.2
15686.2
15686.2
15686.2
15686.2
15686.2
15686.2
15686.2
15686.2
15686.2
15686.2
15686.2
15686.2
15686.2
15686.2
15686.2
15686.2
15686.2
15686.2
15686.2
15686.3
15686.3
15686.3
15686.3
15686.3
15686.3
15686.3
15686.3
15686.3
15686.3
15686.3
15686.3
15686.2
15686.2
15686.2
15686.2
15686.2
15686.2
15686.2
15686.2
15686.2
15686.2
15686.2
15686.2
15686.2
15686.2
15686.2
15686.2
15686.2
15686.2
15686.2
15686.2
15686.2
15686.2
15686.2
15686.2
15686.2
15686.2
15686.2
15686.2
15686.2
15686.2
15686.2
15686.2
15686.2
15686.2
15686.2
15686.2
15686.2
15686.2
15686.2
15686.2
15686.2
15686.2
15686.2
15686.2
15686.2
15686.2
15686.2
15686.2
15686.2
15686.2
15686.2
15686.2
15686.2
15686.2
15686.2
15686.2
15686.2
15686.2
15686.2
15686.2
15686.2
15686.2
15686.2
15686.2
15686.2
15686.2
15686.2
15686.3
15686.3
15686.3
15686.3
15686.3
15686.3
15686.3
15686.3
15686.3
15686.3
15686.3
15686.3
15686.3
15686.3
15686.2
15686.2
15686.2
15686.2
15686.2
15686.2
15686.2
15686.2
15686.2
15686.2
15686.2
15686.2
15686.2
15686.2
15686.2
15686.2
15686.2
15686.2
15686.2
15686.2
15686.2
15686.2
15686.2
15686.2
15686.2
15686.2
15686.2
15686.2
15686.2
15686.2
15686.2
15686.2
15686.2
15686.2
15686.2
15686.2
15686.2
15686.2
15686.2
15686.2
15686.2
15686.2
15686.2
15686.2
15686.2
15686.2
15686.2
15686.2
15686.2
15686.2
15686.2
15686.2
15686.2
15686.2
15686.2
15686.2
15686.2
15686.2
15686.2
15686.2
15686.2
15686.2
15686.2
15686.2
15686.2
15686.2
15686.3
15686.3
15686.3
15686.3
15686.3
15686.3
15686.3
15686.3
15686.3
15686.3
15686.3
15686.3
15686.3
15686.3
15686.2
15686.2
15686.2
15686.2
15686.2
15686.2
15686.2
15686.2
15686.2
15686.2
15686.2
15686.2
15686.2
15686.2
15686.2
15686.2
15686.2
15686.2
15686.2
15686.2
15686.2
15686.2
15686.2
15686.2
15686.2
15686.2
15686.2
15686.2
15686.2
15686.2
15686.2
15686.2
15686.2
15686.2
15686.2
15686.2
15686.2
15686.2
15686.2
15686.2
15686.2
15686.2
15686.2
15686.2
15686.2
15686.2
15686.2
15686.2
15686.2
15686.2
15686.2
15686.2
15686.2
15686.2
15686.2
15686.2
15686.2
15686.2
15686.2
15686.2
15686.2
15686.2
15686.2
15686.2
15686.2
15686.2
15686.3
15686.3
15686.3
15686.3
15686.3
15686.3
15686.3
15686.3
15686.3
15686.3
15686.3
15686.3
15686.3
15686.3
15686.2
15686.2
15686.2
15686.2
15686.2
15686.2
15686.2
15686.2
15686.2
15686.2
15686.2
15686.2
15686.2
15686.2
15686.2
15686.2
15686.2
15686.2
15686.2
15686.2
15686.2
15686.2
15686.2
15686.2
15686.2
15686.2
15686.2
15686.2
15686.2
15686.2
15686.2
15686.2
15686.2
15686.2
15686.2
15686.2
15686.2
15686.2
15686.2
15686.2
15686.2
15686.2
15686.2
15686.2
15686.2
15686.2
15686.2
15686.2
15686.2
15686.2
15686.2
15686.2
15686.2
15686.2
15686.2
15686.2
15686.2
15686.2
15686.2
15686.2
15686.2
15686.2
15686.2
15686.2
15686.2
15686.3
15686.3
15686.3
15686.3
15686.3
15686.3
15686.3
15686.3
15686.3
15686.3
15686.3
15686.3
15686.3
15686.3
15686.3
15686.3
15686.2
15686.2
15686.2
15686.2
15686.2
15686.2
15686.2
15686.2
15686.2
15686.2
15686.2
15686.2
15686.2
15686.2
15686.2
15686.2
15686.2
15686.2
15686.2
15686.2
15686.2
15686.2
15686.2
15686.2
15686.2
15686.2
15686.2
15686.2
15686.2
15686.2
15686.2
15686.2
15686.2
15686.2
15686.2
15686.2
15686.2
15686.2
15686.2
15686.2
15686.2
15686.2
15686.2
15686.2
15686.2
15686.2
15686.2
15686.2
15686.2
15686.2
15686.2
15686.2
15686.2
15686.2
15686.2
15686.2
15686.2
15686.2
15686.2
15686.2
15686.2
15686.2
15686.2
15686.2
15686.2
15686.2
15686.2
15686.2
15686.2
15686.2
15686.2
15686.2
15686.2
15686.2
15686.2
15686.2
15686.2
15686.2
15686.2
15686.2
15686.2
15686.2
15686.2
15686.2
15686.2
15686.2
15686.2
15686.2
15686.2
15686.2
15686.2
15686.2
15686.2
15686.2
15686.2
15686.2
15686.2
15686.2
15686.2
15686.2
15686.2
15686.2
15686.2
15686.2
15686.2
15686.2
15686.2
15686.2
15686.2
15686.2
15686.2
15686.2
0.0646874
0.077653
0.0784907
0.0798951
0.0810984
0.081525
0.0814214
0.0808838
0.0797421
0.0779783
0.0756041
0.0729654
0.0705688
0.0687562
0.066931
0.0646303
0.0623489
0.0597673
0.0568873
0.0537413
0.0507613
0.0478319
0.0452815
0.0432526
0.0421715
0.0429526
0.0441042
0.0460033
0.0494454
0.054163
0.0599905
0.0672559
0.0760275
0.0864008
0.0980513
0.110863
0.12341
0.13672
0.14722
0.152889
0.1531
0.147822
0.137584
0.123975
0.109068
0.0964605
0.0852627
0.0751186
0.066271
0.0588751
0.0527494
0.0479754
0.0444888
0.0428987
0.0420121
0.0414804
0.0412783
0.0413617
0.0415195
0.0419358
0.0423035
0.0425847
0.042748
0.042696
0.0425159
0.0429628
0.0445557
0.0459692
0.0473602
0.0484231
0.0490545
0.0493222
0.0490843
0.048458
0.0476518
0.0463712
0.0436887
0.0398597
0.0349946
0.0213443
-0.00133669
-0.00131898
-0.00128531
-0.00123396
-0.00116422
-0.00107525
-0.000965895
-0.000834723
-0.000679747
-0.000498024
-0.000285325
-3.65765e-05
0.000253228
0.000590201
0.00098386
0.00144595
0.00199125
0.00264073
0.00342264
0.0043731
0.00554155
0.00699021
0.00878381
0.0109707
0.0135845
0.016733
0.0205452
0.0251221
0.0306623
0.0374499
0.0457193
0.0556453
0.0673031
0.0805745
0.0950333
0.109907
0.123206
0.134654
0.143301
0.147937
0.147925
0.143255
0.134504
0.122934
0.110224
0.0970586
0.0836323
0.0706601
0.0588421
0.0485478
0.0398665
0.0327186
0.0268923
0.022087
0.0180572
0.0146877
0.0118832
0.00955137
0.00761861
0.00602071
0.00470168
0.00361592
0.00272045
0.00197821
0.00135792
0.000832908
0.000385515
8.1569e-06
-0.000309341
-0.000580898
-0.00081645
-0.00102225
-0.00120181
-0.00135714
-0.00148916
-0.00159812
-0.00168466
-0.00174947
-0.00179274
-0.00181341
-0.00127403
-0.00125644
-0.00122106
-0.00116702
-0.00109362
-0.000999841
-0.000884313
-0.000745274
-0.000580466
-0.000386997
-0.000161168
0.000101705
0.000407489
0.000763614
0.00117958
0.00166742
0.00224223
0.00292323
0.00373475
0.0047075
0.00588098
0.00730558
0.0090394
0.01114
0.0136665
0.0166989
0.0203408
0.0247137
0.0299822
0.0363472
0.0440243
0.0532284
0.0641355
0.0767849
0.0908736
0.106656
0.122556
0.136368
0.146571
0.151928
0.151942
0.146684
0.136659
0.123295
0.108308
0.0932912
0.0794122
0.0668009
0.0557007
0.046214
0.0382556
0.0316525
0.0261896
0.0216457
0.0178457
0.0146646
0.0119956
0.00975432
0.0078749
0.00630285
0.00499085
0.00389726
0.00298514
0.00222242
0.00158171
0.00104025
0.000580327
0.000188012
-0.000148627
-0.000439584
-0.000692429
-0.000912444
-0.00110322
-0.00126716
-0.00140585
-0.00152027
-0.00161103
-0.00167849
-0.00172276
-0.00174396
-0.00133136
-0.00131476
-0.00128099
-0.00122926
-0.00115886
-0.00106881
-0.000957843
-0.00082431
-0.000666075
-0.000480375
-0.000263682
-1.15468e-05
0.000281712
0.000623477
0.00102323
0.00149306
0.00204848
0.00270908
0.00349905
0.00444793
0.0055911
0.00696947
0.00862807
0.0106178
0.0130006
0.0158517
0.0192592
0.0233354
0.0282275
0.0341187
0.0412305
0.0498263
0.0602258
0.0728346
0.0880921
0.10504
0.123018
0.139366
0.151471
0.157783
0.157797
0.15154
0.139425
0.123554
0.106347
0.0899022
0.0752125
0.0626288
0.0520052
0.0431306
0.0357547
0.0296478
0.0245941
0.0203912
0.0168706
0.0139044
0.0113962
0.00927434
0.00748366
0.00597775
0.00471537
0.00365964
0.00277743
0.0020392
0.00141931
0.000896096
0.000451508
7.12283e-05
-0.00025576
-0.000538385
-0.000783743
-0.00099704
-0.00118188
-0.00134066
-0.00147487
-0.00158545
-0.00167292
-0.00173758
-0.0017796
-0.00179927
-0.00136712
-0.00135114
-0.0013186
-0.00126888
-0.00120136
-0.00111516
-0.00100913
-0.000881812
-0.0007313
-0.000555148
-0.000350207
-0.000112464
0.000163193
0.000483341
0.00085648
0.00129351
0.00180829
0.0024183
0.00314508
0.00401466
0.00505769
0.00630885
0.00780642
0.00959306
0.0117196
0.0142479
0.0172538
0.0208346
0.0251198
0.0302823
0.0365535
0.0442387
0.0537606
0.0657918
0.0812144
0.100793
0.122953
0.144007
0.159123
0.166859
0.167086
0.159571
0.1437
0.123522
0.10261
0.083602
0.0682731
0.0560517
0.0462091
0.0381889
0.03162
0.0262335
0.0218045
0.0181319
0.0150529
0.0124476
0.0102316
0.00834444
0.00674071
0.00538267
0.00423683
0.0032727
0.00246234
0.00178049
0.00120488
0.000716536
0.000299908
-5.74649e-05
-0.000365676
-0.000632981
-0.000865814
-0.00106882
-0.00124519
-0.00139701
-0.00152556
-0.00163164
-0.0017157
-0.00177804
-0.0018188
-0.00183824
-0.00143636
-0.00142166
-0.00139156
-0.00134551
-0.00128297
-0.00120322
-0.00110529
-0.000987928
-0.000849564
-0.000688175
-0.000501166
-0.000285196
-3.59418e-05
0.000252182
0.000586378
0.000975866
0.0014323
0.00197017
0.00260713
0.00336413
0.0042654
0.00533804
0.00661171
0.00811912
0.00989785
0.0119933
0.0144633
0.0173843
0.0208608
0.0250421
0.0301506
0.0364993
0.0445299
0.0551547
0.0704919
0.0926267
0.12218
0.151414
0.170282
0.179468
0.179891
0.170944
0.149682
0.122497
0.0956822
0.0734094
0.0579331
0.0467076
0.0382328
0.0314996
0.026057
0.0216383
0.0180312
0.0150504
0.0125481
0.0104186
0.00859098
0.0070186
0.00566817
0.00451283
0.00352846
0.00269247
0.00198364
0.00138241
0.000871207
0.000434738
6.01069e-05
-0.000263326
-0.000544187
-0.00078932
-0.00100396
-0.00119188
-0.00135567
-0.00149701
-0.00161693
-0.00171602
-0.0017946
-0.00185284
-0.00189081
-0.00190879
-0.00152551
-0.00151243
-0.00148549
-0.00144424
-0.0013883
-0.00131708
-0.00122988
-0.00112574
-0.00100349
-0.000861639
-0.000698255
-0.000510841
-0.000296133
-4.98681e-05
0.000233483
0.000561019
0.000941697
0.00138655
0.00190881
0.00252375
0.00324842
0.00410107
0.00510065
0.00626697
0.00762174
0.0091906
0.0110068
0.013116
0.0155802
0.0184911
0.02201
0.0263844
0.031811
0.0387658
0.0506191
0.0745036
0.10967
0.144149
0.173323
0.188243
0.189923
0.176891
0.149765
0.117316
0.0821352
0.0577133
0.0423791
0.0337495
0.027736
0.0229437
0.0190859
0.0159653
0.0134095
0.0112831
0.00947885
0.00791948
0.00655657
0.00536174
0.00431695
0.00340808
0.0026218
0.00194464
0.00136308
0.000863969
0.000434977
6.49783e-05
-0.00025572
-0.000535268
-0.000780284
-0.000995967
-0.00118625
-0.00135393
-0.00150089
-0.00162829
-0.00173677
-0.00182665
-0.00189805
-0.00195097
-0.00198541
-0.0020016
-0.00163233
-0.00162119
-0.00159805
-0.0015626
-0.0015146
-0.00145368
-0.00137938
-0.00129112
-0.0011882
-0.00106973
-0.000934559
-0.00078116
-0.000607514
-0.000410923
-0.000187821
6.64233e-05
0.000357673
0.00069309
0.00108104
0.00153074
0.00205161
0.00265241
0.00334028
0.00412021
0.00499526
0.00596755
0.00704008
0.00821735
0.00949898
0.0108733
0.0123606
0.0140359
0.0154995
0.0151751
0.0142255
0.0260289
0.0671459
0.119862
0.158735
0.183295
0.19194
0.173988
0.121558
0.0815967
0.0503964
0.0259249
0.0180452
0.0164752
0.0147056
0.0126546
0.0108901
0.00940549
0.00811807
0.00698873
0.00598121
0.00506448
0.00422243
0.0034506
0.00274923
0.0021187
0.00155755
0.00106222
0.00062744
0.000246891
-8.61262e-05
-0.000378184
-0.000635324
-0.000862805
-0.00106497
-0.00124524
-0.00140613
-0.00154936
-0.00167599
-0.00178656
-0.00188125
-0.00196004
-0.0020228
-0.00206936
-0.00209961
-0.00211367
-0.00175506
-0.00174613
-0.00172736
-0.00169857
-0.00165967
-0.00161051
-0.00155094
-0.00148077
-0.00139981
-0.00130783
-0.00120453
-0.00108946
-0.000961949
-0.000821003
-0.00066519
-0.000492534
-0.000300474
-8.5931e-05
0.000154409
0.000423512
0.000723032
0.00105199
0.00140526
0.00177229
0.00213621
0.00247339
0.00275284
0.0029321
0.00293593
0.00261368
0.00176449
0.000195261
-0.00334651
-0.0138822
-0.0342465
-0.0405876
0.0257225
0.20879
0.21066
0.202316
0.219686
0.229191
0.0995951
0.047037
-0.00462015
-0.029112
-0.0171694
-0.00484552
-0.000420175
0.00103843
0.00185454
0.00228274
0.0024143
0.00237198
0.00221914
0.00198492
0.0016936
0.00136897
0.0010317
0.000697674
0.000377792
7.86035e-05
-0.000196769
-0.000447668
-0.000675051
-0.000880795
-0.00106715
-0.00123634
-0.00139032
-0.00153058
-0.00165815
-0.00177359
-0.00187707
-0.00196844
-0.00204739
-0.00211351
-0.0021664
-0.0022057
-0.00223113
-0.00224276
-0.00189087
-0.00188438
-0.00187041
-0.00184894
-0.00182004
-0.0017838
-0.00174035
-0.00168994
-0.0016329
-0.00156969
-0.00150089
-0.00142716
-0.00134925
-0.00126791
-0.00118392
-0.001098
-0.00101093
-0.000923704
-0.000837983
-0.000756887
-0.000686277
-0.000636522
-0.000624613
-0.000676296
-0.000827966
-0.00112862
-0.00164274
-0.00245769
-0.00371669
-0.00569714
-0.00879954
-0.0134248
-0.0211846
-0.037601
-0.0637598
-0.0736856
-0.0095606
0.503914
0.697807
0.616804
0.596805
1.14094
1.21951
0.126046
-0.0610978
-0.0874716
-0.0551724
-0.0275168
-0.0163059
-0.0110248
-0.00740806
-0.00497213
-0.00338972
-0.00233262
-0.00162678
-0.00117819
-0.000918727
-0.000794874
-0.000765301
-0.000798798
-0.000872474
-0.00097005
-0.00108035
-0.00119603
-0.00131247
-0.00142698
-0.00153808
-0.00164496
-0.00174714
-0.00184421
-0.00193567
-0.00202089
-0.0020991
-0.00216949
-0.0022312
-0.00228344
-0.0023255
-0.00235681
-0.00237697
-0.00238594
-0.0020367
-0.00203279
-0.00202394
-0.00201026
-0.00199199
-0.00196944
-0.00194307
-0.0019135
-0.00188163
-0.00184858
-0.0018158
-0.00178508
-0.00175854
-0.00173869
-0.00172845
-0.00173119
-0.00175091
-0.00179246
-0.00186215
-0.0019687
-0.00212474
-0.00234907
-0.00266927
-0.00312463
-0.0037689
-0.00467332
-0.00593092
-0.00766447
-0.0100625
-0.0134747
-0.018414
-0.0254412
-0.0362865
-0.055672
-0.0821874
-0.0929547
-0.05681
1.3955
2.50659
3.70489
3.52931
5.0766
7.5354
0.153302
-0.115172
-0.118669
-0.0794964
-0.0464594
-0.0307069
-0.0221346
-0.0160649
-0.0118434
-0.00894559
-0.00687577
-0.00537139
-0.00428322
-0.00350385
-0.00295323
-0.00257169
-0.00231438
-0.00214776
-0.00204688
-0.00199332
-0.00197368
-0.00197826
-0.00200012
-0.00203427
-0.00207705
-0.00212566
-0.00217781
-0.00223153
-0.00228503
-0.00233665
-0.00238488
-0.00242835
-0.00246586
-0.00249642
-0.00251926
-0.00253382
-0.00253995
-0.00218934
-0.0021881
-0.00218455
-0.00217893
-0.00217165
-0.00216322
-0.00215439
-0.00214619
-0.00214
-0.00213761
-0.00214129
-0.00215389
-0.00217884
-0.00222031
-0.00228323
-0.00237344
-0.00249788
-0.00266492
-0.00288495
-0.00317148
-0.00354284
-0.00402467
-0.00465312
-0.00547828
-0.00656753
-0.00800916
-0.00991686
-0.0124364
-0.0157761
-0.0202954
-0.0265246
-0.0351314
-0.0480335
-0.0696914
-0.0966884
-0.107344
-0.096859
21.4966
12.0538
21.6535
21.3824
9.13707
11.4942
-0.0140242
-0.143797
-0.130086
-0.0933636
-0.0600544
-0.0419391
-0.0311563
-0.0233909
-0.0178653
-0.0139325
-0.0110263
-0.00884326
-0.00719918
-0.00595927
-0.00502456
-0.00432185
-0.00379589
-0.00340474
-0.00311642
-0.00290657
-0.00275663
-0.00265254
-0.00258365
-0.00254185
-0.00252092
-0.00251591
-0.00252285
-0.00253837
-0.00255962
-0.00258409
-0.00260961
-0.00263432
-0.00265666
-0.00267535
-0.00268943
-0.0026982
-0.0027014
-0.00234549
-0.00234694
-0.00234874
-0.00235126
-0.00235505
-0.00236081
-0.00236956
-0.00238268
-0.002402
-0.00242991
-0.00246944
-0.00252439
-0.00259938
-0.00270007
-0.0028332
-0.00300681
-0.0032304
-0.00351533
-0.00387538
-0.00432785
-0.00489535
-0.00560845
-0.00650926
-0.00765524
-0.00912287
-0.0110112
-0.0134458
-0.0165838
-0.0206359
-0.0259314
-0.0329374
-0.0423007
-0.0558262
-0.0766432
-0.100136
-0.110759
-0.0993647
54.1972
1064.63
309.095
306.521
892.263
10.7695
-0.118794
-0.139711
-0.127316
-0.0980668
-0.0672272
-0.0491532
-0.0375225
-0.0289724
-0.0227295
-0.0181173
-0.0146068
-0.0119053
-0.00981798
-0.00819836
-0.00693861
-0.00595832
-0.00519602
-0.00460429
-0.00414625
-0.0037931
-0.00352234
-0.00331644
-0.00316169
-0.00304741
-0.00296515
-0.00290815
-0.00287092
-0.0028489
-0.00283826
-0.00283574
-0.00283861
-0.00284454
-0.00285164
-0.00285838
-0.00286364
-0.00286656
-0.00286682
-0.00250185
-0.00250594
-0.00251302
-0.00252357
-0.00253825
-0.00255794
-0.00258387
-0.00261773
-0.00266175
-0.00271882
-0.00279262
-0.00288778
-0.00300996
-0.00316606
-0.00336438
-0.00361478
-0.00392889
-0.00432046
-0.00480584
-0.00540501
-0.00614331
-0.00705417
-0.00818282
-0.00959047
-0.011358
-0.0135888
-0.0164119
-0.0199842
-0.0245062
-0.0302654
-0.0376429
-0.0471561
-0.0601876
-0.0784301
-0.0968055
-0.104139
-0.095364
70.1039
9516.43
7213.54
7221.45
9197.5
6.71961
-0.121168
-0.126397
-0.117994
-0.0950305
-0.0681048
-0.0524975
-0.041222
-0.0327312
-0.026319
-0.0213821
-0.0175137
-0.0144685
-0.0120635
-0.0101564
-0.00864051
-0.00743465
-0.00647548
-0.00571319
-0.00510826
-0.00462915
-0.00425068
-0.00395284
-0.00371966
-0.00353845
-0.003399
-0.00329308
-0.00321395
-0.00315604
-0.00311472
-0.00308608
-0.0030669
-0.00305447
-0.00304663
-0.00304163
-0.00303819
-0.00303536
-0.00303272
-0.00265517
-0.00266181
-0.00267398
-0.00269228
-0.00271744
-0.00275048
-0.00279281
-0.00284636
-0.00291367
-0.00299806
-0.00310373
-0.00323596
-0.00340125
-0.00360751
-0.00386426
-0.00418278
-0.00457633
-0.00506038
-0.00565305
-0.00637586
-0.00725539
-0.00832585
-0.00963294
-0.0112381
-0.0132226
-0.0156896
-0.0187657
-0.0225983
-0.0273651
-0.0333065
-0.0407387
-0.050035
-0.0621352
-0.0784612
-0.0928376
-0.0989935
-0.0916848
84.8738
11921.9
11909
11908.3
11924.5
2.93721
-0.0962288
-0.108105
-0.101197
-0.0858498
-0.0660106
-0.0527376
-0.0426499
-0.0348702
-0.0286857
-0.0237174
-0.0197148
-0.0164918
-0.0138937
-0.011793
-0.0100929
-0.0087171
-0.00760433
-0.00670518
-0.00597961
-0.00539489
-0.00492448
-0.00454688
-0.00424468
-0.00400379
-0.00381275
-0.0036622
-0.00354447
-0.0034532
-0.00338312
-0.00332983
-0.00328971
-0.00325978
-0.00323761
-0.00322134
-0.00320952
-0.00320115
-0.00319574
-0.00280238
-0.0028114
-0.00282839
-0.00285399
-0.00288901
-0.00293456
-0.00299217
-0.00306395
-0.00315267
-0.00326195
-0.00339638
-0.00356173
-0.00376509
-0.00401511
-0.00432219
-0.0046986
-0.00515869
-0.00571904
-0.00639868
-0.00721973
-0.00820857
-0.0093984
-0.0108331
-0.0125713
-0.0146906
-0.0172905
-0.0204951
-0.0244402
-0.0292742
-0.0351812
-0.0424521
-0.0513597
-0.0621689
-0.0777075
-0.0898434
-0.0950542
-0.0896244
93.9866
12259
12260.5
12258.8
12255.2
1.70236
-0.0751368
-0.0878641
-0.0832336
-0.0737523
-0.0609471
-0.0509692
-0.0424843
-0.0357636
-0.02999
-0.0251975
-0.0212372
-0.0179754
-0.0152978
-0.013091
-0.0112755
-0.00978492
-0.00856247
-0.00756147
-0.00674317
-0.00607495
-0.00553
-0.00508635
-0.00472592
-0.00443384
-0.00419789
-0.00400797
-0.00385577
-0.00373438
-0.00363808
-0.00356214
-0.00350263
-0.00345638
-0.00342082
-0.00339395
-0.00337426
-0.00336066
-0.00335264
-0.00294059
-0.00295181
-0.00297324
-0.00300558
-0.00304966
-0.00310664
-0.00317813
-0.00326634
-0.00337419
-0.00350547
-0.00366502
-0.0038589
-0.00409459
-0.00438118
-0.00472958
-0.00515262
-0.00566524
-0.00628446
-0.00702959
-0.00792242
-0.00898806
-0.0102572
-0.0117705
-0.0135812
-0.0157598
-0.0183947
-0.021617
-0.0255515
-0.0303274
-0.0360417
-0.0430431
-0.0516424
-0.0622623
-0.0758002
-0.0854829
-0.0907501
-0.0859662
97.9952
12540.8
12572.6
12567.6
12526.1
4.14194
-0.0611298
-0.0716897
-0.0673778
-0.0629669
-0.0554171
-0.04831
-0.0415176
-0.0355984
-0.0303934
-0.0259361
-0.0221451
-0.0189457
-0.0162927
-0.0140525
-0.0121824
-0.010629
-0.00933897
-0.00827045
-0.00738768
-0.00665853
-0.00605707
-0.00556182
-0.00515475
-0.00482077
-0.00454734
-0.00432399
-0.00414206
-0.00399434
-0.00387484
-0.00377863
-0.00370165
-0.00364058
-0.00359278
-0.00355619
-0.00352926
-0.00351087
-0.00350046
-0.00306721
-0.00308038
-0.00310583
-0.00314422
-0.00319642
-0.00326359
-0.00334736
-0.00344995
-0.00357433
-0.00372438
-0.00390504
-0.00412248
-0.00438431
-0.00469978
-0.00507999
-0.00553792
-0.00608854
-0.0067488
-0.00753765
-0.00847603
-0.0095867
-0.0108958
-0.0124428
-0.0142737
-0.016451
-0.019022
-0.0221703
-0.0259758
-0.0305667
-0.0360707
-0.0427089
-0.0508337
-0.0607513
-0.0730305
-0.081364
-0.0851008
-0.0806052
78.3397
8106.97
11003.2
10983
7944.83
7.17647
-0.0537853
-0.0628209
-0.0589954
-0.0563002
-0.0511287
-0.0456444
-0.0400305
-0.034866
-0.0301986
-0.0260889
-0.0225164
-0.0194256
-0.016928
-0.014693
-0.0128172
-0.0112505
-0.00993077
-0.00882658
-0.00790748
-0.00713934
-0.00649906
-0.00596667
-0.0055248
-0.00515858
-0.0048555
-0.00460508
-0.00439856
-0.00422866
-0.00408932
-0.00397556
-0.00388326
-0.0038091
-0.00375043
-0.00370516
-0.00367173
-0.00364904
-0.0036365
-0.00317996
-0.00319483
-0.00322379
-0.00326749
-0.00332677
-0.00340275
-0.00349702
-0.00361176
-0.0037499
-0.00391529
-0.00411284
-0.00434864
-0.00463022
-0.00496672
-0.00536913
-0.0058502
-0.00642438
-0.00710798
-0.00791938
-0.00887838
-0.010005
-0.0113137
-0.0128522
-0.0146534
-0.0167651
-0.0192566
-0.0222431
-0.0258322
-0.030146
-0.0353136
-0.041507
-0.049061
-0.0582414