/*--------------------------------*- C++ -*----------------------------------*\
| =========                 |                                                 |
| \\      /  F ield         | OpenFOAM: The Open Source CFD Toolbox           |
|  \\    /   O peration     | Version:  2412                                  |
|   \\  /    A nd           | Website:  www.openfoam.com                      |
|    \\/     M anipulation  |                                                 |
\*---------------------------------------------------------------------------*/
FoamFile
{
    version     2.0;
    format      ascii;
    arch        "LSB;label=32;scalar=64";
    class       volScalarField;
    location    "6.1";
    object      p;
}
// * * * * * * * * * * * * * * * * * * * * * * * * * * * * * * * * * * * * * //

dimensions      [1 -1 -2 0 0 0 0];

internalField   nonuniform List<scalar> 
6400
(
8169.52
8169.6
8169.66
8169.67
8169.6
8169.45
8169.22
8168.92
8168.56
8168.14
8167.66
8167.13
8166.56
8165.95
8165.31
8164.63
8163.93
8163.21
8162.47
8161.72
8160.96
8160.2
8159.45
8158.7
8157.97
8157.25
8156.56
8155.9
8155.27
8154.69
8154.14
8153.64
8153.19
8152.79
8152.44
8152.15
8151.92
8151.74
8151.62
8151.57
8151.57
8151.63
8151.75
8151.92
8152.16
8152.45
8152.79
8153.19
8153.64
8154.14
8154.68
8155.26
8155.89
8156.54
8157.22
8157.93
8158.66
8159.4
8160.15
8160.9
8161.65
8162.39
8163.12
8163.84
8164.53
8165.2
8165.84
8166.44
8167
8167.52
8167.99
8168.41
8168.76
8169.06
8169.28
8169.42
8169.48
8169.47
8169.41
8169.33
7752.52
7752.6
7752.65
7752.64
7752.57
7752.42
7752.19
7751.9
7751.54
7751.13
7750.66
7750.14
7749.58
7748.98
7748.34
7747.67
7746.98
7746.26
7745.53
7744.79
7744.04
7743.29
7742.54
7741.81
7741.08
7740.38
7739.69
7739.04
7738.42
7737.84
7737.3
7736.8
7736.35
7735.96
7735.61
7735.32
7735.09
7734.92
7734.8
7734.74
7734.74
7734.8
7734.92
7735.1
7735.33
7735.62
7735.96
7736.35
7736.8
7737.29
7737.83
7738.41
7739.02
7739.67
7740.34
7741.04
7741.76
7742.49
7743.23
7743.97
7744.72
7745.45
7746.18
7746.88
7747.57
7748.23
7748.86
7749.45
7750.01
7750.52
7750.98
7751.39
7751.74
7752.03
7752.24
7752.39
7752.46
7752.46
7752.41
7752.33
7335.53
7335.62
7335.68
7335.66
7335.58
7335.43
7335.21
7334.92
7334.57
7334.16
7333.7
7333.18
7332.63
7332.03
7331.4
7330.73
7330.04
7329.33
7328.61
7327.87
7327.12
7326.38
7325.64
7324.9
7324.18
7323.48
7322.81
7322.16
7321.54
7320.96
7320.42
7319.93
7319.48
7319.09
7318.74
7318.45
7318.22
7318.05
7317.93
7317.87
7317.87
7317.93
7318.05
7318.22
7318.45
7318.74
7319.08
7319.48
7319.92
7320.41
7320.94
7321.52
7322.13
7322.77
7323.44
7324.14
7324.85
7325.58
7326.31
7327.05
7327.79
7328.52
7329.24
7329.94
7330.63
7331.28
7331.91
7332.5
7333.05
7333.56
7334.01
7334.42
7334.76
7335.04
7335.26
7335.41
7335.49
7335.5
7335.44
7335.35
6918.61
6918.71
6918.78
6918.76
6918.68
6918.53
6918.3
6918.02
6917.67
6917.26
6916.8
6916.29
6915.73
6915.13
6914.5
6913.83
6913.14
6912.43
6911.7
6910.96
6910.21
6909.46
6908.72
6907.99
6907.26
6906.56
6905.88
6905.23
6904.61
6904.03
6903.49
6902.99
6902.55
6902.15
6901.8
6901.51
6901.28
6901.1
6900.98
6900.92
6900.92
6900.98
6901.1
6901.28
6901.51
6901.8
6902.14
6902.53
6902.98
6903.47
6904.01
6904.58
6905.19
6905.84
6906.51
6907.21
6907.92
6908.65
6909.39
6910.13
6910.87
6911.61
6912.33
6913.03
6913.72
6914.38
6915
6915.6
6916.15
6916.65
6917.11
6917.52
6917.86
6918.14
6918.36
6918.51
6918.59
6918.61
6918.54
6918.44
6501.76
6501.88
6501.95
6501.94
6501.85
6501.7
6501.47
6501.18
6500.83
6500.42
6499.95
6499.44
6498.88
6498.27
6497.63
6496.96
6496.26
6495.54
6494.81
6494.06
6493.3
6492.55
6491.79
6491.05
6490.32
6489.61
6488.93
6488.27
6487.64
6487.05
6486.51
6486.01
6485.55
6485.15
6484.8
6484.5
6484.27
6484.09
6483.97
6483.91
6483.91
6483.97
6484.08
6484.26
6484.5
6484.79
6485.13
6485.53
6485.98
6486.48
6487.02
6487.6
6488.22
6488.87
6489.56
6490.26
6490.98
6491.72
6492.46
6493.21
6493.96
6494.7
6495.43
6496.15
6496.84
6497.5
6498.14
6498.74
6499.3
6499.81
6500.27
6500.68
6501.03
6501.32
6501.54
6501.69
6501.78
6501.79
6501.72
6501.6
6085.01
6085.13
6085.2
6085.19
6085.1
6084.94
6084.71
6084.41
6084.05
6083.63
6083.16
6082.64
6082.06
6081.45
6080.8
6080.12
6079.41
6078.67
6077.92
6077.16
6076.39
6075.63
6074.86
6074.1
6073.36
6072.64
6071.94
6071.27
6070.63
6070.04
6069.48
6068.97
6068.51
6068.1
6067.74
6067.44
6067.2
6067.02
6066.89
6066.83
6066.83
6066.89
6067.01
6067.19
6067.43
6067.73
6068.08
6068.48
6068.94
6069.45
6070
6070.59
6071.22
6071.88
6072.57
6073.29
6074.03
6074.78
6075.53
6076.3
6077.06
6077.81
6078.56
6079.28
6079.99
6080.66
6081.31
6081.92
6082.49
6083.01
6083.48
6083.9
6084.26
6084.55
6084.78
6084.95
6085.04
6085.05
6084.98
6084.85
5668.34
5668.46
5668.53
5668.52
5668.42
5668.25
5668.01
5667.71
5667.33
5666.9
5666.42
5665.88
5665.29
5664.66
5664
5663.3
5662.57
5661.82
5661.05
5660.27
5659.49
5658.7
5657.91
5657.14
5656.38
5655.64
5654.93
5654.24
5653.59
5652.97
5652.41
5651.88
5651.41
5650.99
5650.63
5650.32
5650.07
5649.89
5649.76
5649.7
5649.7
5649.76
5649.88
5650.06
5650.31
5650.61
5650.97
5651.38
5651.85
5652.37
5652.93
5653.54
5654.18
5654.86
5655.57
5656.3
5657.06
5657.82
5658.6
5659.38
5660.16
5660.93
5661.69
5662.44
5663.16
5663.86
5664.52
5665.15
5665.73
5666.27
5666.75
5667.18
5667.55
5667.86
5668.1
5668.27
5668.36
5668.38
5668.31
5668.18
5251.76
5251.88
5251.95
5251.92
5251.82
5251.64
5251.38
5251.06
5250.67
5250.22
5249.72
5249.16
5248.55
5247.91
5247.22
5246.5
5245.75
5244.98
5244.19
5243.38
5242.57
5241.76
5240.96
5240.16
5239.38
5238.62
5237.88
5237.17
5236.5
5235.87
5235.29
5234.75
5234.26
5233.83
5233.46
5233.14
5232.89
5232.7
5232.57
5232.51
5232.51
5232.57
5232.7
5232.88
5233.13
5233.44
5233.81
5234.24
5234.72
5235.25
5235.83
5236.45
5237.12
5237.82
5238.55
5239.3
5240.08
5240.87
5241.67
5242.47
5243.27
5244.07
5244.85
5245.62
5246.36
5247.08
5247.76
5248.41
5249.01
5249.57
5250.07
5250.52
5250.9
5251.23
5251.48
5251.66
5251.76
5251.79
5251.72
5251.59
4835.27
4835.38
4835.44
4835.41
4835.29
4835.09
4834.82
4834.48
4834.07
4833.6
4833.07
4832.49
4831.86
4831.18
4830.47
4829.72
4828.95
4828.15
4827.33
4826.5
4825.66
4824.82
4823.99
4823.16
4822.36
4821.57
4820.81
4820.08
4819.38
4818.73
4818.12
4817.57
4817.06
4816.62
4816.23
4815.91
4815.65
4815.45
4815.32
4815.26
4815.26
4815.32
4815.45
4815.65
4815.91
4816.23
4816.61
4817.05
4817.54
4818.09
4818.69
4819.34
4820.02
4820.75
4821.5
4822.28
4823.09
4823.9
4824.73
4825.56
4826.39
4827.21
4828.02
4828.82
4829.59
4830.33
4831.04
4831.71
4832.34
4832.92
4833.44
4833.91
4834.32
4834.66
4834.93
4835.12
4835.24
4835.27
4835.21
4835.09
4418.86
4418.97
4419.02
4418.97
4418.83
4418.62
4418.33
4417.96
4417.53
4417.03
4416.48
4415.87
4415.21
4414.5
4413.76
4412.98
4412.17
4411.34
4410.49
4409.62
4408.75
4407.88
4407.01
4406.15
4405.31
4404.49
4403.7
4402.94
4402.22
4401.54
4400.91
4400.33
4399.81
4399.35
4398.95
4398.62
4398.35
4398.15
4398.01
4397.94
4397.94
4398.01
4398.15
4398.35
4398.61
4398.95
4399.34
4399.79
4400.31
4400.88
4401.5
4402.18
4402.89
4403.64
4404.43
4405.24
4406.08
4406.93
4407.79
4408.65
4409.51
4410.37
4411.21
4412.04
4412.84
4413.62
4414.36
4415.06
4415.71
4416.32
4416.87
4417.37
4417.8
4418.16
4418.45
4418.66
4418.8
4418.84
4418.79
4418.68
4002.55
4002.65
4002.68
4002.62
4002.46
4002.23
4001.91
4001.52
4001.06
4000.53
3999.94
3999.3
3998.6
3997.86
3997.08
3996.26
3995.41
3994.54
3993.65
3992.75
3991.84
3990.93
3990.02
3989.13
3988.25
3987.39
3986.56
3985.76
3985.01
3984.3
3983.64
3983.04
3982.49
3982.01
3981.6
3981.25
3980.97
3980.77
3980.63
3980.56
3980.56
3980.63
3980.77
3980.98
3981.25
3981.6
3982.01
3982.48
3983.02
3983.61
3984.26
3984.97
3985.72
3986.51
3987.33
3988.18
3989.05
3989.94
3990.84
3991.74
3992.64
3993.54
3994.42
3995.28
3996.12
3996.94
3997.71
3998.45
3999.14
3999.78
4000.37
4000.89
4001.35
4001.74
4002.05
4002.29
4002.44
4002.5
4002.46
4002.37
3586.33
3586.42
3586.44
3586.35
3586.18
3585.91
3585.57
3585.15
3584.65
3584.09
3583.47
3582.78
3582.05
3581.27
3580.44
3579.58
3578.69
3577.77
3576.84
3575.89
3574.94
3573.98
3573.03
3572.09
3571.16
3570.26
3569.39
3568.55
3567.75
3567
3566.31
3565.68
3565.11
3564.61
3564.18
3563.82
3563.53
3563.31
3563.17
3563.09
3563.09
3563.17
3563.31
3563.53
3563.82
3564.18
3564.6
3565.1
3565.66
3566.28
3566.97
3567.71
3568.5
3569.33
3570.2
3571.09
3572.01
3572.94
3573.88
3574.83
3575.78
3576.72
3577.64
3578.55
3579.44
3580.29
3581.11
3581.89
3582.62
3583.3
3583.92
3584.48
3584.98
3585.4
3585.74
3586
3586.17
3586.25
3586.24
3586.15
3170.22
3170.29
3170.29
3170.18
3169.98
3169.69
3169.31
3168.85
3168.32
3167.72
3167.05
3166.32
3165.54
3164.71
3163.84
3162.93
3161.99
3161.02
3160.04
3159.04
3158.03
3157.02
3156.02
3155.03
3154.05
3153.1
3152.18
3151.29
3150.45
3149.65
3148.92
3148.25
3147.65
3147.13
3146.68
3146.31
3146.01
3145.78
3145.63
3145.56
3145.56
3145.63
3145.79
3146.01
3146.31
3146.69
3147.13
3147.65
3148.23
3148.89
3149.62
3150.4
3151.24
3152.12
3153.03
3153.98
3154.95
3155.93
3156.92
3157.92
3158.92
3159.91
3160.89
3161.84
3162.78
3163.68
3164.55
3165.38
3166.16
3166.88
3167.55
3168.15
3168.68
3169.14
3169.51
3169.8
3170
3170.1
3170.11
3170.03
2754.21
2754.26
2754.23
2754.1
2753.88
2753.55
2753.14
2752.63
2752.05
2751.4
2750.69
2749.92
2749.09
2748.2
2747.27
2746.31
2745.31
2744.29
2743.25
2742.2
2741.13
2740.06
2739
2737.95
2736.92
2735.91
2734.93
2733.99
2733.09
2732.25
2731.46
2730.75
2730.13
2729.58
2729.11
2728.72
2728.41
2728.18
2728.02
2727.94
2727.95
2728.03
2728.19
2728.43
2728.74
2729.13
2729.59
2730.13
2730.74
2731.44
2732.21
2733.04
2733.93
2734.87
2735.84
2736.84
2737.87
2738.91
2739.96
2741.02
2742.07
2743.12
2744.15
2745.16
2746.15
2747.11
2748.03
2748.91
2749.74
2750.52
2751.23
2751.88
2752.46
2752.95
2753.37
2753.69
2753.92
2754.05
2754.07
2754.02
2338.3
2338.32
2338.28
2338.12
2337.86
2337.5
2337.04
2336.49
2335.86
2335.16
2334.39
2333.56
2332.68
2331.74
2330.74
2329.71
2328.66
2327.57
2326.47
2325.36
2324.23
2323.1
2321.97
2320.85
2319.76
2318.69
2317.65
2316.64
2315.68
2314.78
2313.94
2313.18
2312.52
2311.95
2311.46
2311.06
2310.74
2310.49
2310.33
2310.25
2310.26
2310.34
2310.51
2310.76
2311.09
2311.5
2311.98
2312.53
2313.17
2313.91
2314.73
2315.63
2316.58
2317.59
2318.62
2319.69
2320.78
2321.88
2323
2324.12
2325.24
2326.34
2327.43
2328.5
2329.55
2330.57
2331.55
2332.5
2333.39
2334.22
2334.99
2335.68
2336.31
2336.86
2337.31
2337.68
2337.94
2338.09
2338.13
2338.1
1922.47
1922.48
1922.41
1922.24
1921.95
1921.54
1921.03
1920.42
1919.73
1918.97
1918.15
1917.26
1916.32
1915.31
1914.25
1913.15
1912.02
1910.88
1909.71
1908.53
1907.33
1906.12
1904.92
1903.74
1902.58
1901.44
1900.33
1899.26
1898.22
1897.24
1896.34
1895.53
1894.83
1894.24
1893.74
1893.32
1892.99
1892.74
1892.57
1892.49
1892.49
1892.58
1892.76
1893.03
1893.37
1893.79
1894.29
1894.86
1895.53
1896.31
1897.19
1898.16
1899.19
1900.27
1901.38
1902.52
1903.67
1904.84
1906.02
1907.22
1908.41
1909.58
1910.73
1911.86
1912.97
1914.06
1915.12
1916.13
1917.09
1917.98
1918.8
1919.56
1920.24
1920.84
1921.35
1921.76
1922.05
1922.22
1922.29
1922.27
1506.71
1506.72
1506.64
1506.45
1506.13
1505.68
1505.1
1504.42
1503.66
1502.84
1501.95
1501
1500
1498.93
1497.79
1496.6
1495.4
1494.19
1492.96
1491.71
1490.43
1489.14
1487.86
1486.6
1485.38
1484.17
1482.99
1481.83
1480.71
1479.64
1478.65
1477.78
1477.05
1476.46
1475.95
1475.53
1475.18
1474.92
1474.74
1474.66
1474.66
1474.76
1474.95
1475.23
1475.59
1476.03
1476.53
1477.1
1477.79
1478.61
1479.58
1480.64
1481.76
1482.92
1484.11
1485.32
1486.55
1487.78
1489.04
1490.32
1491.59
1492.83
1494.05
1495.24
1496.41
1497.57
1498.71
1499.81
1500.83
1501.79
1502.67
1503.49
1504.23
1504.9
1505.48
1505.94
1506.25
1506.44
1506.52
1506.5
1090.93
1091.01
1090.96
1090.78
1090.44
1089.93
1089.27
1088.49
1087.64
1086.74
1085.79
1084.79
1083.74
1082.6
1081.35
1080.05
1078.76
1077.5
1076.22
1074.9
1073.54
1072.15
1070.77
1069.43
1068.14
1066.88
1065.62
1064.37
1063.14
1061.95
1060.85
1059.9
1059.15
1058.59
1058.11
1057.68
1057.32
1057.05
1056.87
1056.78
1056.79
1056.89
1057.09
1057.4
1057.78
1058.24
1058.73
1059.25
1059.91
1060.78
1061.85
1063.04
1064.28
1065.55
1066.82
1068.12
1069.41
1070.7
1072.04
1073.41
1074.77
1076.09
1077.37
1078.61
1079.83
1081.08
1082.33
1083.54
1084.64
1085.65
1086.59
1087.47
1088.29
1089.05
1089.71
1090.24
1090.58
1090.76
1090.8
1090.72
674.905
675.347
675.516
675.403
675.032
674.45
673.668
672.733
671.764
670.798
669.784
668.727
667.648
666.457
665.047
663.544
662.16
660.868
659.547
658.158
656.691
655.159
653.633
652.2
650.867
649.543
648.193
646.825
645.456
644.08
642.769
641.682
640.946
640.499
640.065
639.604
639.224
638.934
638.716
638.626
638.645
638.732
638.956
639.315
639.744
640.27
640.753
641.125
641.691
642.635
643.905
645.309
646.71
648.098
649.495
650.887
652.238
653.582
655.013
656.53
658.016
659.426
660.765
662.044
663.3
664.641
666.08
667.452
668.636
669.68
670.67
671.62
672.519
673.396
674.213
674.844
675.212
675.315
675.154
674.719
272.474
273.983
274.653
274.701
274.429
273.978
273.27
272.303
271.401
270.596
269.737
268.845
268.037
267.204
266.11
264.827
263.662
262.576
261.451
260.297
259.151
258.058
257.051
255.96
254.556
253.197
252.06
251.035
250.061
249.124
248.29
247.688
247.263
246.768
245.948
245.055
244.328
243.794
243.435
243.253
243.249
243.415
243.755
244.268
244.961
245.865
246.862
247.603
248.037
248.565
249.331
250.272
251.233
252.216
253.319
254.701
256.178
257.303
258.21
259.215
260.334
261.489
262.636
263.724
264.756
265.908
267.22
268.297
269.094
269.817
270.604
271.403
272.171
273.024
273.849
274.387
274.633
274.567
273.924
272.45
34.0252
35.2763
35.7651
35.8416
35.7405
35.5466
35.3108
35.1041
34.8269
34.5078
34.1644
33.8253
33.4955
33.1705
33.0356
32.8616
32.479
32.0133
31.5416
31.1026
30.7326
30.4547
30.1933
29.7564
29.2097
28.6205
28.1868
27.8833
27.6606
27.5355
27.4888
27.3457
26.859
26.0621
25.3143
24.6809
24.1555
23.7657
23.5325
23.3917
23.3686
23.5096
23.7329
24.0403
24.5086
25.0985
25.8916
26.8357
27.5815
27.9561
28.0047
28.0951
28.2712
28.5295
28.8991
29.4216
29.9367
30.4991
30.8461
31.09
31.4126
31.8213
32.2741
32.7301
33.1665
33.5243
33.6765
33.7756
33.9858
34.2748
34.5841
34.8803
35.1538
35.4282
35.5766
35.7292
35.8255
35.7449
35.2739
34.0652
-10.1265
-10.116
-10.0764
-10.072
-10.0989
-10.1838
-10.1473
-9.71927
-9.58824
-9.60535
-9.60906
-9.58531
-9.63497
-9.80895
-9.48626
-9.00908
-8.91221
-8.89572
-8.88055
-8.86323
-8.85284
-8.86778
-8.96091
-9.19804
-8.74555
-8.6134
-8.61524
-8.6317
-8.63972
-8.62627
-8.63861
-8.92699
-9.61345
-10.3025
-10.4394
-10.4362
-10.4336
-10.4359
-10.4373
-10.438
-10.4379
-10.4364
-10.4337
-10.4305
-10.4307
-10.4323
-10.3908
-10.0076
-9.1212
-8.50269
-8.40834
-8.41574
-8.40793
-8.37876
-8.37004
-8.54095
-9.1337
-8.90996
-8.59114
-8.49995
-8.49977
-8.52543
-8.55869
-8.5806
-8.58847
-8.72847
-9.41354
-9.76183
-9.74074
-9.59591
-9.57232
-9.5921
-9.62802
-9.77331
-10.1472
-10.1627
-10.113
-10.1242
-10.1704
-10.1777
-10.6109
-10.6106
-10.5995
-10.5968
-10.5942
-10.6079
-10.6094
-10.4847
-10.42
-10.4028
-10.3899
-10.3761
-10.3887
-10.431
-10.3389
-10.1928
-10.1446
-10.1222
-10.1041
-10.089
-10.0797
-10.0834
-10.1267
-10.1982
-10.0715
-10.0529
-10.0775
-10.1057
-10.1392
-10.1698
-10.2232
-10.4186
-10.7475
-10.9183
-10.9355
-10.9251
-10.9226
-10.9252
-10.927
-10.9279
-10.9277
-10.9262
-10.9232
-10.9198
-10.9195
-10.9254
-10.9261
-10.8584
-10.5517
-10.1848
-10.0728
-10.0328
-9.99408
-9.95492
-9.91597
-9.92258
-10.0689
-10.0152
-9.92729
-9.88964
-9.8922
-9.91051
-9.94045
-9.96895
-9.99399
-10.0632
-10.2815
-10.3811
-10.3834
-10.3536
-10.3577
-10.3883
-10.4381
-10.5164
-10.6129
-10.609
-10.6134
-10.6369
-10.6487
-10.6501
-11.1042
-11.1062
-11.105
-11.108
-11.1134
-11.1309
-11.1779
-11.2548
-11.2847
-11.2802
-11.2802
-11.2832
-11.2843
-11.272
-11.2977
-11.3763
-11.3814
-11.3689
-11.36
-11.3528
-11.3487
-11.3505
-11.3584
-11.3254
-11.4128
-11.4252
-11.426
-11.4253
-11.4301
-11.4365
-11.441
-11.4428
-11.4349
-11.4299
-11.4282
-11.422
-11.4185
-11.4196
-11.4204
-11.421
-11.421
-11.4198
-11.4175
-11.4153
-11.416
-11.4185
-11.4185
-11.4193
-11.4292
-11.4314
-11.4247
-11.4188
-11.4141
-11.4128
-11.4044
-11.3585
-11.2362
-11.2582
-11.3208
-11.3128
-11.3096
-11.313
-11.3232
-11.3345
-11.3493
-11.3468
-11.2351
-11.1968
-11.1951
-11.2165
-11.2233
-11.2343
-11.2493
-11.2044
-11.1423
-11.1268
-11.13
-11.1421
-11.1575
-11.1556
-11.5977
-11.6116
-11.6234
-11.6302
-11.6437
-11.6671
-11.7189
-11.7725
-11.8091
-11.8455
-11.8799
-11.8981
-11.9081
-11.9134
-11.9134
-11.908
-11.9129
-11.915
-11.9168
-11.9185
-11.9195
-11.9195
-11.921
-11.9259
-11.9233
-11.9216
-11.9204
-11.9202
-11.9212
-11.9217
-11.9211
-11.9203
-11.9192
-11.9192
-11.9205
-11.9159
-11.9134
-11.914
-11.9142
-11.9145
-11.9144
-11.9134
-11.9115
-11.9093
-11.9094
-11.9102
-11.9097
-11.9099
-11.9097
-11.909
-11.9073
-11.9054
-11.9041
-11.9037
-11.9032
-11.9028
-11.9045
-11.8954
-11.8841
-11.8797
-11.8731
-11.8635
-11.8529
-11.8447
-11.8409
-11.8393
-11.8389
-11.8347
-11.8317
-11.8266
-11.8113
-11.784
-11.7584
-11.7304
-11.6931
-11.671
-11.6636
-11.6604
-11.6595
-11.6505
-12.1114
-12.1292
-12.1388
-12.1488
-12.1682
-12.1968
-12.2391
-12.2871
-12.326
-12.3532
-12.3713
-12.3867
-12.4006
-12.4087
-12.4097
-12.4069
-12.4067
-12.4072
-12.4078
-12.4085
-12.4092
-12.4098
-12.4105
-12.4111
-12.4115
-12.4128
-12.4137
-12.4143
-12.4149
-12.416
-12.4171
-12.4177
-12.4171
-12.4164
-12.4151
-12.4107
-12.4092
-12.409
-12.4089
-12.4086
-12.4081
-12.4075
-12.4061
-12.4049
-12.4045
-12.4059
-12.4074
-12.4079
-12.4067
-12.4045
-12.4018
-12.3991
-12.3964
-12.3936
-12.3904
-12.3882
-12.3848
-12.3804
-12.3745
-12.3692
-12.3631
-12.3561
-12.3486
-12.3419
-12.3363
-12.3337
-12.3351
-12.3327
-12.3235
-12.3113
-12.3008
-12.287
-12.2643
-12.2385
-12.2156
-12.1977
-12.1863
-12.1794
-12.1722
-12.1473
-12.6351
-12.646
-12.6499
-12.6674
-12.697
-12.7333
-12.7727
-12.811
-12.8449
-12.8635
-12.8712
-12.882
-12.8945
-12.9024
-12.9028
-12.8994
-12.8973
-12.8971
-12.8978
-12.899
-12.9002
-12.9013
-12.9023
-12.9035
-12.9043
-12.9047
-12.905
-12.9055
-12.9061
-12.9062
-12.9062
-12.906
-12.9048
-12.9079
-12.9091
-12.9077
-12.9065
-12.9049
-12.9043
-12.9036
-12.903
-12.9025
-12.9027
-12.9034
-12.9023
-12.9008
-12.8992
-12.8979
-12.8966
-12.8945
-12.8927
-12.8907
-12.8883
-12.8858
-12.8834
-12.8806
-12.8769
-12.8719
-12.8664
-12.8605
-12.8536
-12.8459
-12.8385
-12.8323
-12.8284
-12.8276
-12.8287
-12.8259
-12.8155
-12.8012
-12.7915
-12.7838
-12.767
-12.7432
-12.723
-12.7097
-12.7014
-12.694
-12.6889
-12.6718
-13.1505
-13.1579
-13.1636
-13.1907
-13.2286
-13.2668
-13.3027
-13.3385
-13.3721
-13.3909
-13.39
-13.3855
-13.3886
-13.3937
-13.3941
-13.3909
-13.3883
-13.3878
-13.3887
-13.3898
-13.3909
-13.3919
-13.3929
-13.3937
-13.3945
-13.3953
-13.3961
-13.3969
-13.3978
-13.3987
-13.3995
-13.4003
-13.3988
-13.4005
-13.4052
-13.407
-13.4052
-13.4017
-13.3997
-13.3984
-13.3977
-13.3977
-13.3998
-13.4031
-13.4021
-13.3967
-13.3929
-13.3924
-13.3906
-13.3875
-13.3848
-13.3821
-13.3792
-13.3763
-13.3732
-13.3702
-13.3669
-13.3629
-13.3581
-13.3527
-13.3463
-13.3391
-13.3315
-13.3246
-13.3197
-13.3173
-13.3145
-13.3057
-13.2936
-13.2864
-13.2878
-13.2882
-13.277
-13.2568
-13.2344
-13.2176
-13.2084
-13.2004
-13.1956
-13.1886
-13.6563
-13.6611
-13.6756
-13.712
-13.7544
-13.7923
-13.8262
-13.8619
-13.8978
-13.92
-13.9143
-13.8932
-13.8805
-13.8793
-13.8801
-13.8792
-13.8773
-13.8775
-13.8788
-13.8802
-13.8817
-13.8831
-13.8843
-13.8855
-13.8865
-13.8875
-13.8883
-13.8891
-13.8899
-13.8908
-13.8916
-13.8927
-13.8927
-13.8949
-13.903
-13.9068
-13.9036
-13.8975
-13.894
-13.8922
-13.8915
-13.8919
-13.8954
-13.9006
-13.9006
-13.8923
-13.887
-13.8858
-13.883
-13.88
-13.8774
-13.8749
-13.8722
-13.8695
-13.8665
-13.8632
-13.8595
-13.8553
-13.8505
-13.8449
-13.8386
-13.8314
-13.8236
-13.8159
-13.809
-13.8019
-13.7902
-13.7744
-13.7613
-13.7634
-13.7779
-13.787
-13.7805
-13.7614
-13.7382
-13.7185
-13.7089
-13.7044
-13.698
-13.6952
-14.1532
-14.1541
-14.1855
-14.2309
-14.2751
-14.3115
-14.3432
-14.378
-14.4148
-14.4379
-14.4302
-14.3986
-14.3723
-14.3637
-14.3638
-14.3643
-14.3654
-14.367
-14.369
-14.3711
-14.3729
-14.3746
-14.376
-14.3773
-14.3784
-14.3793
-14.3803
-14.3812
-14.3821
-14.3831
-14.3843
-14.3854
-14.3861
-14.3883
-14.3982
-14.4032
-14.399
-14.3906
-14.3863
-14.3845
-14.3837
-14.3842
-14.3883
-14.3938
-14.3937
-14.3856
-14.3802
-14.3785
-14.3757
-14.3726
-14.37
-14.3675
-14.3649
-14.3622
-14.3594
-14.3563
-14.3529
-14.3489
-14.3442
-14.3388
-14.3326
-14.3255
-14.3174
-14.3086
-14.2994
-14.2869
-14.2672
-14.2427
-14.2252
-14.2281
-14.2472
-14.263
-14.263
-14.249
-14.2293
-14.2116
-14.203
-14.2043
-14.199
-14.2012
-14.6461
-14.65
-14.7025
-14.75
-14.7929
-14.8268
-14.8538
-14.8831
-14.9158
-14.9372
-14.9298
-14.8966
-14.8656
-14.8527
-14.8516
-14.8533
-14.8554
-14.8578
-14.8603
-14.8626
-14.8647
-14.8665
-14.8681
-14.8695
-14.8706
-14.8717
-14.8726
-14.8735
-14.8744
-14.8753
-14.8764
-14.8779
-14.8787
-14.8808
-14.8882
-14.8923
-14.889
-14.8816
-14.8771
-14.8755
-14.8745
-14.8748
-14.8781
-14.8821
-14.8818
-14.8756
-14.8718
-14.8704
-14.868
-14.8652
-14.863
-14.8607
-14.8584
-14.856
-14.8533
-14.8504
-14.8471
-14.8434
-14.8391
-14.8341
-14.8283
-14.8215
-14.8136
-14.8046
-14.7936
-14.777
-14.7504
-14.7168
-14.6893
-14.6827
-14.6961
-14.7147
-14.7243
-14.7214
-14.711
-14.701
-14.6977
-14.7024
-14.6969
-14.7051
-15.155
-15.1666
-15.2319
-15.2679
-15.307
-15.3414
-15.362
-15.3815
-15.4045
-15.4191
-15.4133
-15.3863
-15.36
-15.3475
-15.345
-15.346
-15.3479
-15.3503
-15.3528
-15.3551
-15.3573
-15.3591
-15.3607
-15.3621
-15.3633
-15.3643
-15.3652
-15.3661
-15.367
-15.3678
-15.3686
-15.37
-15.3704
-15.3712
-15.3749
-15.3775
-15.3754
-15.3705
-15.3673
-15.3661
-15.3653
-15.3652
-15.3668
-15.3689
-15.3681
-15.3645
-15.3626
-15.362
-15.3604
-15.3583
-15.3564
-15.3545
-15.3524
-15.3502
-15.3479
-15.3453
-15.3424
-15.3391
-15.3353
-15.331
-15.3259
-15.3201
-15.3133
-15.3051
-15.2937
-15.2747
-15.2429
-15.2003
-15.1607
-15.14
-15.1457
-15.1652
-15.1849
-15.1944
-15.1947
-15.1933
-15.1955
-15.2013
-15.1998
-15.2109
-15.6908
-15.7014
-15.7517
-15.7855
-15.8234
-15.8581
-15.8734
-15.8825
-15.89
-15.8971
-15.8924
-15.8743
-15.8561
-15.8458
-15.8422
-15.8417
-15.8427
-15.8444
-15.8465
-15.8486
-15.8505
-15.8522
-15.8538
-15.8551
-15.8562
-15.8572
-15.8581
-15.8589
-15.8596
-15.8604
-15.861
-15.8618
-15.8618
-15.8615
-15.8623
-15.8635
-15.8627
-15.8602
-15.8585
-15.8575
-15.8569
-15.8567
-15.8573
-15.8577
-15.8568
-15.855
-15.8543
-15.8542
-15.8531
-15.8517
-15.8502
-15.8486
-15.8468
-15.8449
-15.8429
-15.8408
-15.8384
-15.8358
-15.8328
-15.8295
-15.8258
-15.8216
-15.8171
-15.8117
-15.8028
-15.7828
-15.7458
-15.6969
-15.6502
-15.6202
-15.6155
-15.6299
-15.6535
-15.6733
-15.6835
-15.6892
-15.6958
-15.7024
-15.7063
-15.7066
-16.2294
-16.2356
-16.2678
-16.3085
-16.344
-16.3745
-16.3899
-16.3936
-16.392
-16.388
-16.3804
-16.3677
-16.3545
-16.3454
-16.3406
-16.3388
-16.3387
-16.3397
-16.3411
-16.3427
-16.3444
-16.3458
-16.3472
-16.3484
-16.3494
-16.3503
-16.3511
-16.3519
-16.3525
-16.3531
-16.3535
-16.3539
-16.3538
-16.3531
-16.3528
-16.3531
-16.3529
-16.3518
-16.3509
-16.3501
-16.3495
-16.3495
-16.3496
-16.3495
-16.3488
-16.3478
-16.3475
-16.3474
-16.3466
-16.3456
-16.3444
-16.3431
-16.3416
-16.3401
-16.3386
-16.3369
-16.3352
-16.3334
-16.3315
-16.3296
-16.3276
-16.3259
-16.325
-16.3259
-16.3245
-16.3075
-16.2729
-16.2229
-16.171
-16.1325
-16.1177
-16.1255
-16.143
-16.1622
-16.1804
-16.1919
-16.2001
-16.2058
-16.2092
-16.2107
-16.7607
-16.7651
-16.7893
-16.8312
-16.8601
-16.8892
-16.9105
-16.9135
-16.9065
-16.8935
-16.8798
-16.8661
-16.8536
-16.8444
-16.8388
-16.8361
-16.8351
-16.8353
-16.8362
-16.8373
-16.8386
-16.8398
-16.8409
-16.8419
-16.8429
-16.8437
-16.8444
-16.845
-16.8456
-16.846
-16.8464
-16.8465
-16.8465
-16.8459
-16.8456
-16.8456
-16.8455
-16.8448
-16.8441
-16.8434
-16.8429
-16.843
-16.8431
-16.8428
-16.8423
-16.8418
-16.8415
-16.8413
-16.8407
-16.8399
-16.839
-16.8379
-16.8368
-16.8357
-16.8346
-16.8335
-16.8325
-16.8316
-16.831
-16.8307
-16.831
-16.8325
-16.8376
-16.85
-16.8647
-16.8611
-16.8272
-16.7769
-16.7319
-16.7009
-16.6851
-16.683
-16.6864
-16.6893
-16.6982
-16.7081
-16.7137
-16.7155
-16.7169
-16.7199
-17.2968
-17.2921
-17.3039
-17.344
-17.3755
-17.4049
-17.4295
-17.4362
-17.4272
-17.4042
-17.3819
-17.3645
-17.3512
-17.3418
-17.336
-17.3327
-17.3312
-17.3309
-17.3313
-17.3321
-17.333
-17.334
-17.3349
-17.3357
-17.3365
-17.3372
-17.3378
-17.3384
-17.3388
-17.3392
-17.3395
-17.3396
-17.3395
-17.3392
-17.339
-17.3389
-17.3388
-17.3382
-17.3375
-17.3372
-17.3367
-17.3368
-17.3368
-17.3366
-17.3363
-17.336
-17.3357
-17.3354
-17.335
-17.3344
-17.3337
-17.333
-17.3323
-17.3316
-17.3309
-17.3305
-17.3302
-17.3303
-17.3309
-17.3324
-17.3351
-17.3402
-17.3525
-17.3766
-17.3998
-17.3946
-17.3686
-17.3381
-17.314
-17.2883
-17.2724
-17.2709
-17.2727
-17.2625
-17.2495
-17.2485
-17.2433
-17.2351
-17.2323
-17.2358
-17.8193
-17.8167
-17.8187
-17.8521
-17.8901
-17.9145
-17.9337
-17.9504
-17.9427
-17.9111
-17.8805
-17.8599
-17.8463
-17.8373
-17.8316
-17.8283
-17.8267
-17.8262
-17.8264
-17.8269
-17.8276
-17.8283
-17.829
-17.8297
-17.8304
-17.8309
-17.8314
-17.8319
-17.8322
-17.8325
-17.8327
-17.8328
-17.8328
-17.8326
-17.8324
-17.8323
-17.8321
-17.8317
-17.8309
-17.831
-17.8305
-17.8307
-17.8307
-17.8306
-17.8303
-17.8301
-17.8299
-17.8297
-17.8294
-17.829
-17.8286
-17.8282
-17.8278
-17.8276
-17.8274
-17.8276
-17.828
-17.829
-17.8309
-17.8339
-17.8385
-17.8466
-17.8642
-17.8926
-17.9097
-17.8996
-17.8756
-17.8622
-17.8541
-17.8419
-17.8279
-17.8348
-17.8534
-17.8601
-17.8353
-17.8128
-17.7906
-17.7671
-17.7578
-17.7585
-18.3113
-18.324
-18.3393
-18.3572
-18.3855
-18.3997
-18.4224
-18.4469
-18.4433
-18.4081
-18.3738
-18.3519
-18.3387
-18.3305
-18.3256
-18.3228
-18.3215
-18.3211
-18.3213
-18.3217
-18.3222
-18.3228
-18.3233
-18.3239
-18.3243
-18.3248
-18.3251
-18.3255
-18.3257
-18.3259
-18.326
-18.3261
-18.3261
-18.3259
-18.3258
-18.3257
-18.3255
-18.3252
-18.3244
-18.3247
-18.3243
-18.3245
-18.3246
-18.3245
-18.3243
-18.3242
-18.3241
-18.324
-18.3239
-18.3237
-18.3236
-18.3235
-18.3235
-18.3236
-18.324
-18.3247
-18.3258
-18.3276
-18.3303
-18.3345
-18.3403
-18.3499
-18.3693
-18.3955
-18.4018
-18.3901
-18.3716
-18.366
-18.3664
-18.3701
-18.3682
-18.3838
-18.419
-18.4428
-18.4342
-18.3942
-18.3514
-18.3066
-18.2822
-18.2793
-18.792
-18.8171
-18.853
-18.8535
-18.8554
-18.8641
-18.8931
-18.9211
-18.9214
-18.8942
-18.861
-18.8399
-18.8277
-18.8216
-18.818
-18.8163
-18.8157
-18.8157
-18.816
-18.8165
-18.8169
-18.8173
-18.8177
-18.8181
-18.8184
-18.8187
-18.819
-18.8192
-18.8193
-18.8194
-18.8195
-18.8195
-18.8194
-18.8193
-18.8192
-18.8191
-18.8188
-18.8186
-18.818
-18.8183
-18.8181
-18.8183
-18.8184
-18.8184
-18.8183
-18.8183
-18.8183
-18.8183
-18.8184
-18.8184
-18.8185
-18.8188
-18.8191
-18.8196
-18.8205
-18.8217
-18.8234
-18.8258
-18.8291
-18.8339
-18.8402
-18.8498
-18.868
-18.8907
-18.8848
-18.8765
-18.8744
-18.8773
-18.8787
-18.8765
-18.8882
-18.9229
-18.973
-19.0063
-19.0129
-18.9719
-18.9087
-18.8374
-18.7943
-18.7871
-19.2854
-19.3259
-19.3533
-19.334
-19.3184
-19.327
-19.3556
-19.3785
-19.3827
-19.3655
-19.3399
-19.3231
-19.3141
-19.3102
-19.309
-19.309
-19.3095
-19.3102
-19.3108
-19.3113
-19.3117
-19.312
-19.3122
-19.3124
-19.3126
-19.3127
-19.3128
-19.3129
-19.313
-19.313
-19.313
-19.3129
-19.3128
-19.3127
-19.3126
-19.3125
-19.3122
-19.3121
-19.3118
-19.3118
-19.3118
-19.3121
-19.3122
-19.3123
-19.3123
-19.3124
-19.3125
-19.3127
-19.3129
-19.3131
-19.3135
-19.314
-19.3147
-19.3156
-19.3168
-19.3184
-19.3206
-19.3234
-19.3272
-19.3321
-19.3383
-19.3471
-19.3613
-19.3778
-19.3727
-19.3712
-19.3804
-19.3869
-19.3814
-19.3646
-19.3871
-19.4544
-19.5102
-19.5507
-19.5606
-19.5211
-19.4407
-19.3491
-19.2917
-19.2811
-19.8059
-19.8469
-19.8514
-19.8187
-19.7883
-19.7961
-19.8202
-19.8365
-19.8399
-19.829
-19.8132
-19.8023
-19.7981
-19.7976
-19.7992
-19.8014
-19.8033
-19.8047
-19.8057
-19.8063
-19.8066
-19.8068
-19.8069
-19.8069
-19.8069
-19.8068
-19.8068
-19.8067
-19.8067
-19.8066
-19.8065
-19.8064
-19.8062
-19.8061
-19.806
-19.8059
-19.8056
-19.8056
-19.8054
-19.8054
-19.8055
-19.8058
-19.806
-19.8061
-19.8062
-19.8064
-19.8066
-19.8069
-19.8073
-19.8078
-19.8084
-19.8091
-19.8101
-19.8113
-19.8129
-19.8149
-19.8175
-19.8206
-19.8246
-19.8295
-19.8353
-19.843
-19.8542
-19.857
-19.8658
-19.8754
-19.8848
-19.8898
-19.873
-19.8514
-19.8911
-19.9716
-20.0116
-20.0423
-20.0565
-20.026
-19.9379
-19.8452
-19.7886
-19.7853
-20.345
-20.3666
-20.3615
-20.3309
-20.28
-20.2759
-20.2915
-20.3038
-20.3054
-20.2966
-20.2859
-20.2791
-20.2806
-20.2846
-20.2893
-20.2942
-20.2976
-20.2997
-20.3009
-20.3015
-20.3017
-20.3017
-20.3016
-20.3014
-20.3012
-20.301
-20.3008
-20.3006
-20.3004
-20.3002
-20.3
-20.2999
-20.2997
-20.2995
-20.2994
-20.2993
-20.2991
-20.299
-20.299
-20.2989
-20.2992
-20.2995
-20.2997
-20.2999
-20.3001
-20.3004
-20.3007
-20.3012
-20.3017
-20.3023
-20.3031
-20.3041
-20.3054
-20.3069
-20.3088
-20.3111
-20.314
-20.3174
-20.3216
-20.3265
-20.3319
-20.3377
-20.3513
-20.3417
-20.3531
-20.3703
-20.3846
-20.3912
-20.3746
-20.3679
-20.4196
-20.4685
-20.4802
-20.4795
-20.4891
-20.4739
-20.4016
-20.3301
-20.2889
-20.2989
-20.8951
-20.896
-20.8854
-20.8621
-20.8143
-20.7769
-20.7707
-20.7823
-20.789
-20.7811
-20.7693
-20.7647
-20.7641
-20.7696
-20.7801
-20.7883
-20.7931
-20.7956
-20.7968
-20.7971
-20.7971
-20.7968
-20.7964
-20.796
-20.7955
-20.7951
-20.7948
-20.7944
-20.7941
-20.7938
-20.7936
-20.7933
-20.7931
-20.7929
-20.7928
-20.7926
-20.7925
-20.7924
-20.7925
-20.7924
-20.7927
-20.7931
-20.7934
-20.7936
-20.7939
-20.7943
-20.7947
-20.7953
-20.796
-20.7968
-20.7978
-20.799
-20.8005
-20.8023
-20.8044
-20.807
-20.8102
-20.8139
-20.8182
-20.8232
-20.829
-20.8328
-20.8469
-20.844
-20.8474
-20.8624
-20.8852
-20.8976
-20.8999
-20.9183
-20.9506
-20.9657
-20.9652
-20.9395
-20.9032
-20.8699
-20.8317
-20.8
-20.7859
-20.7962
-21.4489
-21.4365
-21.4237
-21.406
-21.3727
-21.3187
-21.2728
-21.2702
-21.2948
-21.3033
-21.2895
-21.2723
-21.2628
-21.2648
-21.2732
-21.2852
-21.2909
-21.2929
-21.2934
-21.2932