/*--------------------------------*- C++ -*----------------------------------*\
| =========                 |                                                 |
| \\      /  F ield         | OpenFOAM: The Open Source CFD Toolbox           |
|  \\    /   O peration     | Version:  2412                                  |
|   \\  /    A nd           | Website:  www.openfoam.com                      |
|    \\/     M anipulation  |                                                 |
\*---------------------------------------------------------------------------*/
FoamFile
{
    version     2.0;
    format      ascii;
    arch        "LSB;label=32;scalar=64";
    class       volVectorField;
    location    "6.1";
    object      U;
}
// * * * * * * * * * * * * * * * * * * * * * * * * * * * * * * * * * * * * * //

dimensions      [0 1 -1 0 0 0 0];

internalField   nonuniform List<vector> 
6400
(
(-1.22353e-06 1.21991e-06 0)
(1.36263e-05 -3.98898e-06 0)
(4.99643e-05 -8.64736e-06 0)
(0.000101583 -1.11832e-05 0)
(0.000160694 -1.21845e-05 0)
(0.000221794 -1.22196e-05 0)
(0.00028147 -1.16998e-05 0)
(0.000337804 -1.08969e-05 0)
(0.000389886 -1.00121e-05 0)
(0.000437472 -9.13897e-06 0)
(0.000480637 -8.29121e-06 0)
(0.000519559 -7.48922e-06 0)
(0.00055444 -6.72378e-06 0)
(0.000585423 -5.97066e-06 0)
(0.000612556 -5.22327e-06 0)
(0.000635828 -4.47883e-06 0)
(0.000655184 -3.71814e-06 0)
(0.000670512 -2.91683e-06 0)
(0.000681659 -2.06883e-06 0)
(0.000688461 -1.18039e-06 0)
(0.000690783 -2.62817e-07 0)
(0.000688525 6.76329e-07 0)
(0.000681619 1.62772e-06 0)
(0.000670033 2.57837e-06 0)
(0.000653778 3.51331e-06 0)
(0.000632919 4.41896e-06 0)
(0.00060759 5.28371e-06 0)
(0.000577992 6.09714e-06 0)
(0.000544396 6.85219e-06 0)
(0.000507129 7.54209e-06 0)
(0.000466555 8.163e-06 0)
(0.000423068 8.71034e-06 0)
(0.000377077 9.1806e-06 0)
(0.000328995 9.57349e-06 0)
(0.000279223 9.8897e-06 0)
(0.000228134 1.01363e-05 0)
(0.000176065 1.0318e-05 0)
(0.000123321 1.04389e-05 0)
(7.01719e-05 1.05071e-05 0)
(1.68468e-05 1.0534e-05 0)
(-3.64501e-05 1.05184e-05 0)
(-8.95197e-05 1.04571e-05 0)
(-0.000142165 1.03577e-05 0)
(-0.000194174 1.02061e-05 0)
(-0.000245307 1.0002e-05 0)
(-0.000295313 9.75142e-06 0)
(-0.000343912 9.43999e-06 0)
(-0.000390785 9.06193e-06 0)
(-0.000435571 8.60808e-06 0)
(-0.000477882 8.07411e-06 0)
(-0.000517332 7.47049e-06 0)
(-0.000553554 6.79717e-06 0)
(-0.000586197 6.05466e-06 0)
(-0.000614952 5.2565e-06 0)
(-0.000639559 4.41244e-06 0)
(-0.000659813 3.53018e-06 0)
(-0.00067556 2.62428e-06 0)
(-0.000686711 1.70591e-06 0)
(-0.000693234 7.8722e-07 0)
(-0.000695148 -1.2679e-07 0)
(-0.000692515 -1.02822e-06 0)
(-0.000685435 -1.90993e-06 0)
(-0.000674036 -2.76815e-06 0)
(-0.000658456 -3.6023e-06 0)
(-0.000638824 -4.41471e-06 0)
(-0.000615244 -5.20797e-06 0)
(-0.000587784 -5.98505e-06 0)
(-0.000556453 -6.76175e-06 0)
(-0.000521177 -7.55216e-06 0)
(-0.000481814 -8.37105e-06 0)
(-0.000438174 -9.22924e-06 0)
(-0.00039009 -1.01193e-05 0)
(-0.000337536 -1.1005e-05 0)
(-0.000280821 -1.1795e-05 0)
(-0.000220884 -1.2316e-05 0)
(-0.00015968 -1.22785e-05 0)
(-0.000100643 -1.12662e-05 0)
(-4.92641e-05 -8.73138e-06 0)
(-1.32753e-05 -4.07169e-06 0)
(1.29713e-06 1.18136e-06 0)
(4.12328e-06 -1.35409e-05 0)
(5.49811e-05 -5.43291e-05 0)
(0.000148366 -8.83736e-05 0)
(0.000271905 -0.000108846 0)
(0.000410445 -0.0001176 0)
(0.000553087 -0.000118138 0)
(0.00069261 -0.000113583 0)
(0.000824691 -0.000106257 0)
(0.000947115 -9.78043e-05 0)
(0.00105911 -8.91673e-05 0)
(0.00116068 -8.07325e-05 0)
(0.00125221 -7.2671e-05 0)
(0.00133411 -6.49364e-05 0)
(0.00140671 -5.73693e-05 0)
(0.00147012 -4.98437e-05 0)
(0.00152433 -4.22719e-05 0)
(0.00156921 -3.45316e-05 0)
(0.00160453 -2.64896e-05 0)
(0.00162994 -1.80874e-05 0)
(0.00164508 -9.34242e-06 0)
(0.00164959 -3.25271e-07 0)
(0.00164321 8.88254e-06 0)
(0.00162575 1.81888e-05 0)
(0.00159715 2.74902e-05 0)
(0.00155744 3.6674e-05 0)
(0.00150683 4.56228e-05 0)
(0.00144564 5.4216e-05 0)
(0.00137436 6.2334e-05 0)
(0.00129363 6.98714e-05 0)
(0.00120421 7.67391e-05 0)
(0.001107 8.28732e-05 0)
(0.00100294 8.82272e-05 0)
(0.000893018 9.27801e-05 0)
(0.000778219 9.65387e-05 0)
(0.000659497 9.95338e-05 0)
(0.000537739 0.000101826 0)
(0.000413752 0.00010348 0)
(0.000288251 0.000104563 0)
(0.000161856 0.000105148 0)
(3.51022e-05 0.00010531 0)
(-9.15428e-05 0.000105076 0)
(-0.000217638 0.000104443 0)
(-0.000342738 0.000103416 0)
(-0.000466359 0.000101934 0)
(-0.00058796 9.9962e-05 0)
(-0.000706943 9.7477e-05 0)
(-0.000822643 9.43995e-05 0)
(-0.000934309 9.06609e-05 0)
(-0.0010411 8.61886e-05 0)
(-0.00114212 8.0946e-05 0)
(-0.00123642 7.49605e-05 0)
(-0.00132311 6.82626e-05 0)
(-0.00140136 6.09022e-05 0)
(-0.0014704 5.29712e-05 0)
(-0.00152961 4.45785e-05 0)
(-0.00157849 3.58289e-05 0)
(-0.00161669 2.68405e-05 0)
(-0.00164398 1.77294e-05 0)
(-0.00166029 8.60741e-06 0)
(-0.00166566 -4.44326e-07 0)
(-0.00166024 -9.34264e-06 0)
(-0.00164426 -1.80231e-05 0)
(-0.00161803 -2.64476e-05 0)
(-0.00158186 -3.46135e-05 0)
(-0.00153606 -4.25487e-05 0)
(-0.00148086 -5.03098e-05 0)
(-0.00141639 -5.79755e-05 0)
(-0.00134266 -6.56846e-05 0)
(-0.00125949 -7.35797e-05 0)
(-0.00116657 -8.17755e-05 0)
(-0.00106349 -9.02966e-05 0)
(-0.000949959 -9.89819e-05 0)
(-0.000826076 -0.000107374 0)
(-0.00069274 -0.000114539 0)
(-0.000552268 -0.000118912 0)
(-0.000409087 -0.000118141 0)
(-0.000270452 -0.000109136 0)
(-0.000147208 -8.85047e-05 0)
(-5.44374e-05 -5.44328e-05 0)
(-4.0213e-06 -1.36891e-05 0)
(8.89926e-06 -4.99636e-05 0)
(9.01459e-05 -0.000147662 0)
(0.000225324 -0.000222214 0)
(0.000397324 -0.000267013 0)
(0.000586816 -0.000286339 0)
(0.000780533 -0.000287261 0)
(0.000969566 -0.000276383 0)
(0.0011484 -0.000258863 0)
(0.00131412 -0.000238418 0)
(0.00146564 -0.000217295 0)
(0.00160295 -0.000196566 0)
(0.00172651 -0.000176682 0)
(0.00183692 -0.000157562 0)
(0.0019346 -0.000138861 0)
(0.00201976 -0.00012026 0)
(0.00209236 -0.000101534 0)
(0.00215223 -8.24231e-05 0)
(0.00219905 -6.26547e-05 0)
(0.00223236 -4.20822e-05 0)
(0.00225168 -2.07153e-05 0)
(0.00225652 1.30685e-06 0)
(0.00224651 2.37906e-05 0)
(0.00222139 4.65107e-05 0)
(0.00218107 6.92177e-05 0)
(0.00212562 9.16452e-05 0)
(0.00205532 0.000113511 0)
(0.00197062 0.000134518 0)
(0.00187219 0.000154369 0)
(0.00176091 0.000172786 0)
(0.00163785 0.000189536 0)
(0.00150424 0.000204446 0)
(0.00136142 0.000217403 0)
(0.00121077 0.000228367 0)
(0.00105366 0.000237366 0)
(0.0008914 0.00024449 0)
(0.000725226 0.00024989 0)
(0.000556231 0.000253736 0)
(0.000385367 0.000256215 0)
(0.000213445 0.000257511 0)
(4.11527e-05 0.000257792 0)
(-0.000130918 0.000257147 0)
(-0.000302221 0.000255589 0)
(-0.000472211 0.000253098 0)
(-0.000640285 0.000249549 0)
(-0.000805754 0.000244838 0)
(-0.000967834 0.000238856 0)
(-0.00112562 0.000231433 0)
(-0.00127809 0.000222396 0)
(-0.0014241 0.000211574 0)
(-0.0015624 0.000198871 0)
(-0.0016917 0.00018431 0)
(-0.00181073 0.00016798 0)
(-0.00191832 0.000150025 0)
(-0.00201342 0.000130654 0)
(-0.00209515 0.000110135 0)
(-0.00216281 8.87433e-05 0)
(-0.00221591 6.67621e-05 0)
(-0.00225416 4.44739e-05 0)
(-0.00227743 2.21472e-05 0)
(-0.00228579 -2.60091e-10 0)
(-0.00227944 -2.17618e-05 0)
(-0.00225872 -4.29858e-05 0)
(-0.00222402 -6.35849e-05 0)
(-0.00217577 -8.35577e-05 0)
(-0.00211438 -0.00010298 0)
(-0.00204014 -0.000122007 0)
(-0.00195324 -0.000140856 0)
(-0.00185363 -0.00015985 0)
(-0.00174106 -0.000179323 0)
(-0.00161511 -0.000199515 0)
(-0.00147524 -0.000220418 0)
(-0.00132111 -0.00024157 0)
(-0.0011529 -0.000261801 0)
(-0.000971875 -0.000278873 0)
(-0.000781104 -0.000289183 0)
(-0.000586243 -0.000287572 0)
(-0.000396257 -0.00026755 0)
(-0.000224342 -0.000222268 0)
(-8.96625e-05 -0.000147527 0)
(-8.83516e-06 -4.99987e-05 0)
(1.16793e-05 -0.000102654 0)
(0.000112964 -0.000273236 0)
(0.000275504 -0.000395247 0)
(0.000477966 -0.000467105 0)
(0.000697972 -0.000497405 0)
(0.000921052 -0.000497575 0)
(0.0011377 -0.000478209 0)
(0.00134208 -0.000447714 0)
(0.00153112 -0.000412187 0)
(0.00170369 -0.000375391 0)
(0.00185986 -0.000339243 0)
(0.0020002 -0.000304554 0)
(0.00212543 -0.000271198 0)
(0.00223611 -0.000238589 0)
(0.00233248 -0.000206158 0)
(0.00241447 -0.000173491 0)
(0.00248185 -0.000140176 0)
(0.0025342 -0.000105807 0)
(0.00257105 -7.0134e-05 0)
(0.00259183 -3.31388e-05 0)
(0.002596 4.98253e-06 0)
(0.00258312 4.39182e-05 0)
(0.00255289 8.32862e-05 0)
(0.00250518 0.000122653 0)
(0.00244009 0.000161552 0)
(0.00235791 0.000199486 0)
(0.00225918 0.000235929 0)
(0.00214468 0.000270353 0)
(0.00201544 0.000302254 0)
(0.00187272 0.000331205 0)
(0.00171798 0.000356884 0)
(0.00155283 0.000379097 0)
(0.00137891 0.000397784 0)
(0.00119788 0.000413013 0)
(0.00101129 0.000424963 0)
(0.000820576 0.000433911 0)
(0.000626979 0.000440189 0)
(0.000431559 0.000444149 0)
(0.000235191 0.000446125 0)
(3.85928e-05 0.000446414 0)
(-0.000157634 0.000445184 0)
(-0.000352955 0.000442484 0)
(-0.000546847 0.000438262 0)
(-0.000738722 0.000432308 0)
(-0.000927877 0.000424408 0)
(-0.00111345 0.000414314 0)
(-0.00129442 0.000401721 0)
(-0.00146961 0.00038632 0)
(-0.00163766 0.000367815 0)
(-0.00179713 0.000346025 0)
(-0.00194647 0.000320958 0)
(-0.00208418 0.00029276 0)
(-0.00220884 0.000261703 0)
(-0.00231921 0.00022816 0)
(-0.00241422 0.000192588 0)
(-0.00249308 0.000155483 0)
(-0.00255518 0.000117349 0)
(-0.00260021 7.86799e-05 0)
(-0.00262802 3.99406e-05 0)
(-0.0026387 1.53121e-06 0)
(-0.0026325 -3.6192e-05 0)
(-0.00260981 -7.29734e-05 0)
(-0.00257108 -0.000108673 0)
(-0.00251682 -0.000143296 0)
(-0.00244746 -0.000176986 0)
(-0.00236335 -0.00021003 0)
(-0.00226466 -0.000242834 0)
(-0.00215133 -0.000275943 0)
(-0.00202306 -0.000309914 0)
(-0.00187934 -0.000345128 0)
(-0.00171957 -0.000381523 0)
(-0.00154335 -0.000418267 0)
(-0.00135082 -0.000453327 0)
(-0.00114331 -0.000482939 0)
(-0.000924076 -0.000501152 0)
(-0.000699125 -0.000499624 0)
(-0.000478029 -0.000467991 0)
(-0.000275173 -0.000395136 0)
(-0.000112727 -0.000272621 0)
(-1.16621e-05 -0.000102443 0)
(1.30815e-05 -0.000164529 0)
(0.000125367 -0.000417427 0)
(0.000303245 -0.000590284 0)
(0.000522188 -0.000689452 0)
(0.000757715 -0.000729623 0)
(0.000994729 -0.000727408 0)
(0.00122368 -0.000697765 0)
(0.00143888 -0.00065252 0)
(0.00163742 -0.00060021 0)
(0.00181836 -0.000546127 0)
(0.0019819 -0.000493068 0)
(0.00212874 -0.000442217 0)
(0.00225967 -0.000393395 0)
(0.00237534 -0.000345713 0)
(0.00247601 -0.00029828 0)
(0.0025616 -0.000250439 0)
(0.00263177 -0.00020163 0)
(0.00268605 -0.000151333 0)
(0.00272392 -9.92114e-05 0)
(0.00274479 -4.52069e-05 0)
(0.00274808 1.04435e-05 0)
(0.00273332 6.7311e-05 0)
(0.00270016 0.000124846 0)
(0.00264846 0.000182411 0)
(0.00257828 0.000239312 0)
(0.00248994 0.000294809 0)
(0.00238399 0.000348119 0)
(0.00226129 0.000398447 0)
(0.00212294 0.000445033 0)
(0.00197033 0.000487217 0)
(0.00180506 0.00052449 0)
(0.00162895 0.000556554 0)
(0.00144386 0.000583332 0)
(0.00125162 0.000604952 0)
(0.00105398 0.000621715 0)
(0.000852463 0.000634076 0)
(0.000648401 0.000642581 0)
(0.000442857 0.00064779 0)
(0.000236679 0.000650222 0)
(3.05313e-05 0.000650324 0)
(-0.000175067 0.000648369 0)
(-0.000379677 0.000644453 0)
(-0.000582883 0.000638501 0)
(-0.000784204 0.000630203 0)
(-0.000983011 0.000619187 0)
(-0.00117847 0.000605006 0)
(-0.00136953 0.000587173 0)
(-0.00155492 0.000565208 0)
(-0.00173317 0.000538658 0)
(-0.00190267 0.000507239 0)
(-0.00206171 0.000470922 0)
(-0.00220859 0.000429913 0)
(-0.00234171 0.000384623 0)
(-0.00245968 0.00033563 0)
(-0.00256134 0.000283618 0)
(-0.00264581 0.000229337 0)
(-0.00271248 0.000173549 0)
(-0.002761 0.000116989 0)
(-0.00279127 6.03421e-05 0)
(-0.00280339 4.20789e-06 0)
(-0.00279766 -5.09001e-05 0)
(-0.0027745 -0.000104615 0)
(-0.0027344 -0.000156746 0)
(-0.00267788 -0.00020731 0)
(-0.00260541 -0.000256537 0)
(-0.00251734 -0.000304862 0)
(-0.00241382 -0.000352897 0)
(-0.00229482 -0.000401426 0)
(-0.00216003 -0.000451247 0)
(-0.00200891 -0.000502894 0)
(-0.00184083 -0.000556262 0)
(-0.00165531 -0.000610159 0)
(-0.00145237 -0.000661691 0)
(-0.00123319 -0.000705538 0)
(-0.00100084 -0.000733329 0)
(-0.000761179 -0.000733381 0)
(-0.000523825 -0.000691088 0)
(-0.000303805 -0.000590228 0)
(-0.000125402 -0.000416437 0)
(-1.30472e-05 -0.000164078 0)
(1.36685e-05 -0.000230708 0)
(0.000130647 -0.00057066 0)
(0.000315001 -0.000795719 0)
(0.000540232 -0.00092151 0)
(0.000780695 -0.000970065 0)
(0.00102112 -0.000963889 0)
(0.00125222 -0.000922626 0)
(0.00146873 -0.000861612 0)
(0.0016681 -0.000791784 0)
(0.00184964 -0.000719864 0)
(0.00201371 -0.000649471 0)
(0.00216107 -0.000582136 0)
(0.00229254 -0.000517619 0)
(0.00240878 -0.00045468 0)
(0.00251005 -0.00039203 0)
(0.00259621 -0.000328724 0)
(0.00266685 -0.000264039 0)
(0.00272145 -0.000197373 0)
(0.0027594 -0.000128325 0)
(0.0027801 -5.68167e-05 0)
(0.00278295 1.68822e-05 0)
(0.00276743 9.22332e-05 0)
(0.00273319 0.00016852 0)
(0.00268003 0.000244896 0)
(0.002608 0.000320426 0)
(0.0025174 0.000394112 0)
(0.00240877 0.000464894 0)
(0.00228297 0.000531693 0)
(0.00214114 0.000593465 0)
(0.00198473 0.000649272 0)
(0.0018155 0.000698373 0)
(0.00163539 0.000740342 0)
(0.00144646 0.000775081 0)
(0.00125073 0.000802802 0)
(0.00105006 0.000823975 0)
(0.000846087 0.000839289 0)
(0.000640133 0.000849558 0)
(0.000433237 0.000855594 0)
(0.000226165 0.000858139 0)
(1.94628e-05 0.000857818 0)
(-0.000186489 0.000855025 0)
(-0.000391405 0.000849914 0)
(-0.000595025 0.000842394 0)
(-0.000797023 0.000832044 0)
(-0.000996907 0.000818293 0)
(-0.00119394 0.000800454 0)
(-0.0013871 0.000777781 0)
(-0.00157509 0.000749572 0)
(-0.00175634 0.000715174 0)
(-0.00192909 0.000674167 0)
(-0.00209146 0.000626473 0)
(-0.00224157 0.000572362 0)
(-0.00237768 0.000512408 0)
(-0.00249828 0.000447427 0)
(-0.00260217 0.000378378 0)
(-0.00268842 0.000306299 0)
(-0.00275646 0.000232238 0)
(-0.00280596 0.000157191 0)
(-0.00283688 8.20723e-05 0)
(-0.00284935 7.68151e-06 0)
(-0.00284372 -6.5311e-05 0)
(-0.00282043 -0.000136432 0)
(-0.00278 -0.000205442 0)
(-0.00272296 -0.000272379 0)
(-0.00264979 -0.000337567 0)
(-0.00256082 -0.000401591 0)
(-0.00245626 -0.000465265 0)
(-0.00233608 -0.000529609 0)
(-0.00220003 -0.00059566 0)
(-0.00204762 -0.00066413 0)
(-0.00187826 -0.000734906 0)
(-0.00169138 -0.000806501 0)
(-0.00148689 -0.000875243 0)
(-0.00126566 -0.000934332 0)
(-0.0010304 -0.000973016 0)
(-0.000786574 -0.000976187 0)
(-0.000543507 -0.000924653 0)
(-0.000316426 -0.000796376 0)
(-0.000130864 -0.000569893 0)
(-1.35526e-05 -0.000230238 0)
(1.38364e-05 -0.000298268 0)
(0.000131637 -0.000726686 0)
(0.000316589 -0.00100377 0)
(0.000541266 -0.00115498 0)
(0.000779705 -0.00121046 0)
(0.00101689 -0.00119912 0)
(0.00124407 -0.00114548 0)
(0.00145653 -0.00106842 0)
(0.00165215 -0.00098116 0)
(0.00183051 -0.000891684 0)
(0.00199208 -0.000804313 0)
(0.00213758 -0.000720855 0)
(0.00226776 -0.000641012 0)
(0.00238318 -0.000563173 0)
(0.00248401 -0.000485616 0)
(0.00257006 -0.000407067 0)
(0.00264084 -0.00032663 0)
(0.00269573 -0.000243631 0)
(0.00273408 -0.000157643 0)
(0.00275523 -6.8587e-05 0)
(0.00275856 2.32247e-05 0)
(0.00274354 0.000117152 0)
(0.00270976 0.000212317 0)
(0.00265702 0.000307665 0)
(0.00258531 0.000402022 0)
(0.00249488 0.000494126 0)
(0.00238624 0.000582632 0)
(0.00226019 0.000666156 0)
(0.00211789 0.000743338 0)
(0.00196083 0.000812919 0)
(0.00179084 0.000873869 0)
(0.00161004 0.000925591 0)
(0.00142069 0.000967956 0)
(0.001225 0.00100128 0)
(0.00102498 0.00102627 0)
(0.000822349 0.0010439 0)
(0.000618446 0.00105532 0)
(0.000414247 0.00106164 0)
(0.000210406 0.00106388 0)
(7.31618e-06 0.00106287 0)
(-0.000194812 0.00105913 0)
(-0.000395872 0.00105289 0)
(-0.000595779 0.00104404 0)
(-0.000794374 0.00103202 0)
(-0.000991333 0.00101608 0)
(-0.00118606 0.000995211 0)
(-0.00137761 0.000968352 0)
(-0.00156466 0.00093449 0)
(-0.00174555 0.000892712 0)
(-0.00191834 0.000842414 0)
(-0.00208094 0.000783454 0)
(-0.00223128 0.000716186 0)
(-0.00236745 0.000641392 0)
(-0.00248788 0.00056018 0)
(-0.00259132 0.00047383 0)
(-0.00267689 0.000383705 0)
(-0.00274408 0.000291164 0)
(-0.00279262 0.00019748 0)
(-0.00282254 0.000103788 0)
(-0.00283406 1.10855e-05 0)
(-0.00282754 -7.98117e-05 0)
(-0.00280348 -0.000168337 0)
(-0.00276243 -0.000254211 0)
(-0.00270492 -0.000337495 0)
(-0.00263143 -0.000418609 0)
(-0.00254233 -0.000498278 0)
(-0.00243783 -0.000577495 0)
(-0.00231801 -0.000657492 0)
(-0.00218272 -0.000739525 0)
(-0.00203164 -0.000824496 0)
(-0.00186426 -0.00091235 0)
(-0.00168003 -0.0010014 0)
(-0.00147873 -0.00108733 0)
(-0.00126096 -0.00116199 0)
(-0.00102897 -0.00121235 0)
(-0.000787683 -0.00121988 0)
(-0.000545911 -0.00116057 0)
(-0.000318672 -0.00100607 0)
(-0.000131998 -0.000726963 0)
(-1.36879e-05 -0.000297981 0)
(1.38386e-05 -0.000365615 0)
(0.000130348 -0.000881691 0)
(0.000312339 -0.00120947 0)
(0.000532236 -0.00138456 0)
(0.000764497 -0.00144572 0)
(0.000994798 -0.00142855 0)
(0.00121512 -0.00136246 0)
(0.00142138 -0.00126982 0)
(0.00161191 -0.00116599 0)
(0.00178647 -0.00105996 0)
(0.00194553 -0.000956569 0)
(0.0020897 -0.000857821 0)
(0.00221946 -0.00076334 0)
(0.00233512 -0.000671181 0)
(0.00243669 -0.000579203 0)
(0.00252383 -0.000485798 0)
(0.00259596 -0.000389903 0)
(0.00265239 -0.000290784 0)
(0.00269242 -0.000188007 0)
(0.00271535 -8.15128e-05 0)
(0.00272052 2.83327e-05 0)
(0.00270735 0.000140785 0)
(0.00267541 0.000254812 0)
(0.00262447 0.000369162 0)
(0.00255447 0.000482431 0)
(0.00246557 0.000593099 0)
(0.0023582 0.00069954 0)
(0.00223307 0.000800043 0)
(0.0020913 0.00089289 0)
(0.00193436 0.000976445 0)
(0.00176421 0.00104932 0)
(0.00158314 0.00111068 0)
(0.00139365 0.00116033 0)
(0.0011982 0.00119873 0)
(0.000999029 0.00122686 0)
(0.000797961 0.00124609 0)
(0.000596353 0.00125795 0)
(0.000395114 0.00126396 0)
(0.00019477 0.00126543 0)
(-4.43977e-06 0.00126343 0)
(-0.000202474 0.00125863 0)
(-0.0003994 0.00125132 0)
(-0.000595302 0.00124135 0)
(-0.00079019 0.00122807 0)
(-0.000983906 0.00121048 0)
(-0.001176 0.00118727 0)
(-0.00136563 0.00115696 0)
(-0.00155146 0.00111811 0)
(-0.00173168 0.00106946 0)
(-0.00190411 0.00101016 0)
(-0.0020664 0.000940002 0)
(-0.00221622 0.00085945 0)
(-0.00235149 0.000769567 0)
(-0.00247054 0.000671832 0)
(-0.00257217 0.000567918 0)
(-0.00265558 0.000459553 0)
(-0.00272036 0.000348426 0)
(-0.00276639 0.000236081 0)
(-0.00279376 0.000123874 0)
(-0.00280277 1.29796e-05 0)
(-0.00279388 -9.56571e-05 0)
(-0.00276761 -0.00020139 0)
(-0.00272456 -0.000303912 0)
(-0.00266529 -0.000403321 0)
(-0.00259028 -0.00050012 0)
(-0.00249992 -0.000595154 0)
(-0.00239451 -0.000689557 0)
(-0.00227423 -0.000784712 0)
(-0.00213916 -0.000882065 0)
(-0.0019892 -0.000982701 0)
(-0.00182406 -0.0010867 0)
(-0.00164333 -0.00119229 0)
(-0.00144675 -0.00129464 0)
(-0.00123471 -0.00138446 0)
(-0.00100905 -0.00144661 0)
(-0.000774062 -0.00145922 0)
(-0.000537865 -0.00139341 0)
(-0.000314901 -0.00121421 0)
(-0.000130977 -0.000883535 0)
(-1.38082e-05 -0.00036554 0)
(1.38202e-05 -0.000432009 0)
(0.000127967 -0.00103357 0)
(0.000304917 -0.00140989 0)
(0.000517593 -0.00160718 0)
(0.000741554 -0.00167316 0)
(0.000963576 -0.0016502 0)
(0.00117654 -0.00157241 0)
(0.001377 -0.00146546 0)
(0.00156361 -0.00134662 0)
(0.00173619 -0.00122565 0)
(0.0018951 -0.0011077 0)
(0.00204066 -0.000994848 0)
(0.00217295 -0.00088657 0)
(0.00229185 -0.000780662 0)
(0.00239702 -0.000674649 0)
(0.00248792 -0.000566654 0)
(0.00256385 -0.000455483 0)
(0.00262407 -0.000340363 0)
(0.00266785 -0.000220871 0)
(0.00269445 -9.69672e-05 0)
(0.00270315 3.09223e-05 0)
(0.00269335 0.000161947 0)
(0.00266457 0.000294921 0)
(0.00261652 0.000428408 0)
(0.0025491 0.000560799 0)
(0.00246236 0.000690344 0)
(0.0023566 0.000815143 0)
(0.00223238 0.00093314 0)
(0.00209067 0.00104221 0)
(0.00193295 0.00114025 0)
(0.00176125 0.00122541 0)
(0.00157811 0.00129654 0)
(0.00138635 0.00135331 0)
(0.00118882 0.00139634 0)
(0.000988026 0.00142697 0)
(0.00078596 0.00144707 0)
(0.00058401 0.00145869 0)
(0.000383024 0.00146379 0)
(0.000183412 0.00146402 0)
(-1.47232e-05 0.00146072 0)
(-0.000211475 0.00145471 0)
(-0.00040705 0.00144635 0)
(-0.000601671 0.00143544 0)
(-0.00079549 0.00142124 0)
(-0.0009885 0.0014025 0)
(-0.0011804 0.00137756 0)
(-0.00137042 0.00134445 0)
(-0.00155722 0.0013012 0)
(-0.0017388 0.00124604 0)
(-0.00191265 0.0011778 0)
(-0.00207601 0.0010962 0)
(-0.00222623 0.00100189 0)
(-0.00236101 0.000896306 0)
(-0.00247862 0.000781424 0)
(-0.00257793 0.000659403 0)
(-0.00265831 0.000532397 0)
(-0.00271954 0.000402425 0)
(-0.00276166 0.000271283 0)
(-0.0027849 0.000140532 0)
(-0.00278965 1.15025e-05 0)
(-0.00277644 -0.00011475 0)
(-0.00274588 -0.000237516 0)
(-0.00269861 -0.000356481 0)
(-0.00263524 -0.000471793 0)
(-0.00255628 -0.000584031 0)
(-0.00246214 -0.000694131 0)
(-0.00235321 -0.000803302 0)
(-0.00222985 -0.000913001 0)
(-0.0020924 -0.00102479 0)
(-0.00194114 -0.00113992 0)
(-0.00177614 -0.00125865 0)
(-0.00159727 -0.00137923 0)
(-0.00140442 -0.00149652 0)
(-0.00119792 -0.00160027 0)
(-0.000979279 -0.0016735 0)
(-0.00075219 -0.00169122 0)
(-0.000523912 -0.00161979 0)
(-0.00030794 -0.00141741 0)
(-0.00012903 -0.00103691 0)
(-1.39877e-05 -0.00043216 0)
(1.38319e-05 -0.000497128 0)
(0.000124917 -0.0011811 0)
(0.000295429 -0.00160333 0)
(0.000499479 -0.0018213 0)
(0.0007144 -0.00189189 0)
(0.000928435 -0.00186409 0)
(0.00113544 -0.00177628 0)
(0.00133252 -0.00165715 0)
(0.0015184 -0.00152554 0)
(0.00169274 -0.00139179 0)
(0.00185562 -0.00126117 0)
(0.00200693 -0.00113564 0)
(0.00214619 -0.00101447 0)
(0.00227267 -0.000895263 0)
(0.00238554 -0.000775336 0)
(0.00248393 -0.000652697 0)
(0.00256701 -0.000526114 0)
(0.002634 -0.000394827 0)
(0.00268419 -0.000258428 0)
(0.00271681 -0.000116891 0)
(0.0027311 2.93182e-05 0)
(0.00272637 0.000179244 0)
(0.00270208 0.000331537 0)
(0.0026579 0.000484585 0)
(0.00259368 0.00063661 0)
(0.00250936 0.000785686 0)
(0.00240501 0.000929682 0)
(0.00228095 0.00106619 0)
(0.00213793 0.00119258 0)
(0.00197733 0.00130619 0)
(0.0018013 0.00140454 0)
(0.00161268 0.001486 0)
(0.00141477 0.00155006 0)
(0.00121093 0.0015975 0)
(0.00100406 0.00163015 0)
(0.000796348 0.00165053 0)
(0.000589233 0.00166132 0)
(0.000383516 0.001665 0)
(0.000179514 0.00166362 0)
(-2.27663e-05 0.00165876 0)
(-0.000223489 0.00165139 0)
(-0.000422919 0.00164194 0)
(-0.000621339 0.00163018 0)
(-0.000818988 0.00161526 0)
(-0.00101597 0.00159572 0)
(-0.00121213 0.0015695 0)
(-0.00140679 0.00153411 0)
(-0.00159859 0.00148683 0)
(-0.00178528 0.00142524 0)
(-0.00196389 0.00134772 0)
(-0.00213111 0.00125391 0)
(-0.0022838 0.00114475 0)
(-0.00241941 0.00102224 0)
(-0.00253618 0.000889 0)
(-0.00263312 0.000747821 0)
(-0.00270988 0.000601351 0)
(-0.00276654 0.000451935 0)
(-0.00280339 0.000301565 0)
(-0.0028208 0.000151968 0)
(-0.00281928 4.60512e-06 0)
(-0.00279942 -0.000139368 0)
(-0.00276194 -0.000279194 0)
(-0.00270759 -0.000414569 0)
(-0.00263702 -0.000545717 0)
(-0.00255079 -0.000673308 0)
(-0.00244933 -0.000798339 0)
(-0.00233308 -0.000922008 0)
(-0.0022026 -0.00104572 0)
(-0.00205862 -0.00117104 0)
(-0.00190191 -0.00129932 0)
(-0.00173309 -0.00143101 0)
(-0.00155254 -0.0015645 0)
(-0.00136049 -0.00169449 0)
(-0.00115743 -0.00181007 0)
(-0.00094473 -0.00189272 0)
(-0.000725579 -0.00191468 0)
(-0.000506292 -0.0018378 0)
(-0.000298948 -0.00161354 0)
(-0.000126369 -0.00118564 0)
(-1.40813e-05 -0.000497757 0)
(1.38332e-05 -0.00056069 0)
(0.000120934 -0.00132325 0)
(0.000283617 -0.00178858 0)
(0.000478057 -0.00202623 0)
(0.00068412 -0.00210226 0)
(0.000891775 -0.00207176 0)
(0.00109578 -0.0019768 0)
(0.00129353 -0.00184854 0)
(0.00148345 -0.00170704 0)
(0.00166475 -0.00156308 0)
(0.001837 -0.0014219 0)
(0.00199952 -0.00128524 0)
(0.00215116 -0.00115208 0)
(0.00229046 -0.00101981 0)
(0.0024159 -0.000885726 0)
(0.00252617 -0.000747938 0)
(0.00262029 -0.000605364 0)
(0.00269752 -0.000457352 0)
(0.00275721 -0.000303496 0)
(0.00279861 -0.000143734 0)
(0.00282084 2.14644e-05 0)
(0.00282308 0.000191038 0)
(0.00280472 0.000363446 0)
(0.00276541 0.000536885 0)
(0.00270496 0.000709462 0)
(0.0026232 0.000879176 0)
(0.0025199 0.00104376 0)
(0.00239499 0.00120045 0)
(0.00224884 0.00134607 0)
(0.00208263 0.00147714 0)
(0.00189857 0.00159036 0)
(0.00169995 0.00168336 0)
(0.00149075 0.00175534 0)
(0.00127504 0.00180729 0)
(0.00105623 0.00184174 0)
(0.000836747 0.00186206 0)
(0.000618068 0.00187166 0)
(0.00040093 0.00187363 0)
(0.000185581 0.00187043 0)
(-2.79918e-05 0.00186385 0)
(-0.000239908 0.00185499 0)
(-0.000450349 0.00184432 0)
(-0.00065952 0.00183161 0)
(-0.000867629 0.00181594 0)
(-0.00107484 0.00179568 0)
(-0.00128113 0.0017684 0)
(-0.001486 0.00173095 0)
(-0.00168809 0.00167976 0)
(-0.00188487 0.00161144 0)
(-0.0020727 0.00152373 0)
(-0.00224748 0.00141619 0)
(-0.0024054 0.00129023 0)
(-0.00254359 0.00114869 0)
(-0.00266033 0.000995094 0)
(-0.00275492 0.000833037 0)
(-0.00282746 0.000665732 0)
(-0.00287845 0.000495822 0)
(-0.00290851 0.000325412 0)
(-0.00291822 0.000156291 0)
(-0.00290813 -9.98822e-06 0)
(-0.00287893 -0.000172153 0)
(-0.00283148 -0.00032938 0)
(-0.00276667 -0.00048141 0)
(-0.00268529 -0.00062858 0)
(-0.0025879 -0.000771707 0)
(-0.00247491 -0.000911838 0)
(-0.00234674 -0.00105006 0)
(-0.00220416 -0.00118754 0)
(-0.00204836 -0.00132562 0)
(-0.00188081 -0.00146565 0)
(-0.00170287 -0.00160827 0)
(-0.00151564 -0.00175209 0)
(-0.00131997 -0.00189184 0)
(-0.00111676 -0.00201621 0)
(-0.000907543 -0.0021055 0)
(-0.00069521 -0.00212962 0)
(-0.000485135 -0.00204646 0)
(-0.000287486 -0.00180125 0)
(-0.000122463 -0.00132906 0)
(-1.39659e-05 -0.000562096 0)
(1.36974e-05 -0.000622086 0)
(0.000115114 -0.00145858 0)
(0.000268022 -0.00196431 0)
(0.000451857 -0.00222171 0)
(0.000649895 -0.00230562 0)
(0.000853912 -0.00227611 0)
(0.00105919 -0.00217816 0)
(0.00126294 -0.00204475 0)
(0.00146282 -0.00189678 0)
(0.00165723 -0.0017454 0)
(0.00184504 -0.00159585 0)
(0.00202489 -0.00144955 0)
(0.00219487 -0.00130511 0)
(0.00235268 -0.00115972 0)
(0.00249594 -0.00101078 0)
(0.00262277 -0.000856797 0)
(0.00273202 -0.000697163 0)
(0.00282317 -0.000531465 0)
(0.00289573 -0.000359245 0)
(0.00294895 -0.000180277 0)
(0.00298176 5.04326e-06 0)
(0.00299311 0.000195527 0)
(0.00298225 0.000389354 0)
(0.00294888 0.000584477 0)
(0.00289288 0.000778954 0)
(0.00281395 0.000970888 0)
(0.0027115 0.00115804 0)
(0.00258486 0.0013374 0)
(0.00243379 0.0015051 0)
(0.00225904 0.00165661 0)
(0.00206285 0.00178738 0)
(0.00184907 0.00189397 0)
(0.00162266 0.00197508 0)
(0.00138869 0.00203205 0)
(0.00115126 0.0020684 0)
(0.000913001 0.00208861 0)
(0.000675313 0.00209705 0)
(0.000438826 0.00209739 0)
(0.000203756 0.00209245 0)
(-2.98035e-05 0.00208417 0)
(-0.000261746 0.00207368 0)
(-0.000491956 0.00206151 0)
(-0.000720337 0.00204742 0)
(-0.000946864 0.00203053 0)
(-0.00117166 0.00200915 0)
(-0.00139487 0.00198059 0)
(-0.00161628 0.00194102 0)
(-0.00183472 0.00188571 0)
(-0.00204731 0.0018099 0)
(-0.00224951 0.00171038 0)
(-0.00243602 0.00158662 0)
(-0.00260215 0.0014408 0)
(-0.00274465 0.00127704 0)
(-0.002862 0.00110016 0)
(-0.00295403 0.000914756 0)
(-0.00302147 0.000724669 0)
(-0.00306546 0.000532763 0)
(-0.00308703 0.000341101 0)
(-0.00308692 0.000151353 0)
(-0.0030657 -3.4881e-05 0)
(-0.00302412 -0.000216148 0)
(-0.00296325 -0.000391494 0)
(-0.00288426 -0.000560712 0)
(-0.00278814 -0.000724359 0)
(-0.00267547 -0.000883514 0)
(-0.00254647 -0.00103932 0)
(-0.00240142 -0.00119262 0)
(-0.00224122 -0.00134403 0)
(-0.00206767 -0.00149438 0)
(-0.00188311 -0.00164483 0)
(-0.00168991 -0.0017962 0)
(-0.00149009 -0.00194739 0)
(-0.00128531 -0.00209331 0)
(-0.00107722 -0.00222246 0)
(-0.000867838 -0.0023143 0)
(-0.000660174 -0.00233702 0)
(-0.000458851 -0.00224536 0)
(-0.000271902 -0.00197942 0)
(-0.000116438 -0.0014662 0)
(-1.36593e-05 -0.000624174 0)
(1.31855e-05 -0.000680009 0)
(0.000105857 -0.00158469 0)
(0.000246069 -0.00212876 0)
(0.000418139 -0.00240778 0)
(0.000609613 -0.00250419 0)
(0.00081386 -0.00248127 0)
(0.0010259 -0.00238587 0)
(0.00124194 -0.00225202 0)
(0.00145832 -0.0021013 0)
(0.00167235 -0.00194535 0)
(0.00188209 -0.00178953 0)
(0.00208546 -0.00163493 0)
(0.00227982 -0.00147968 0)
(0.00246188 -0.00132071 0)
(0.00262819 -0.00115563 0)
(0.00277607 -0.000983786 0)
(0.00290437 -0.000805533 0)
(0.003013 -0.000620864 0)
(0.00310186 -0.000429108 0)
(0.00317014 -0.000229616 0)
(0.00321641 -2.25663e-05 0)
(0.00323917 0.00019067 0)
(0.0032375 0.000407794 0)
(0.00321123 0.000626362 0)
(0.0031605 0.000844456 0)
(0.00308503 0.00106059 0)
(0.00298369 0.00127289 0)
(0.00285496 0.00147822 0)
(0.00269763 0.00167198 0)
(0.00251177 0.00184819 0)
(0.00229946 0.00200048 0)
(0.00206525 0.00212373 0)
(0.00181548 0.00221584 0)
(0.0015567 0.00227872 0)
(0.00129381 0.00231741 0)
(0.00102947 0.00233796 0)
(0.000764811 0.00234579 0)
(0.000500257 0.00234515 0)
(0.000236053 0.00233904 0)
(-2.74118e-05 0.00232934 0)
(-0.000289527 0.00231714 0)
(-0.00054958 0.00230295 0)
(-0.000806837 0.00228657 0)
(-0.00106073 0.0022673 0)
(-0.00131114 0.0022437 0)
(-0.00155842 0.00221303 0)
(-0.00180289 0.00217085 0)
(-0.00204388 0.00211093 0)
(-0.00227826 0.00202643 0)
(-0.00250017 0.00191263 0)
(-0.00270261 0.00176893 0)
(-0.00287965 0.00159887 0)
(-0.00302775 0.00140847 0)
(-0.00314583 0.00120435 0)
(-0.00323456 0.000992377 0)
(-0.00329563 0.000777035 0)
(-0.00333099 0.000561249 0)
(-0.00334219 0.000346744 0)
(-0.00333002 0.000134812 0)
(-0.0032949 -7.29412e-05 0)
(-0.00323763 -0.000274712 0)
(-0.00315959 -0.000469265 0)
(-0.00306245 -0.000656447 0)
(-0.00294756 -0.000837206 0)
(-0.00281552 -0.00101314 0)
(-0.0026662 -0.00118565 0)
(-0.00249942 -0.00135515 0)
(-0.00231609 -0.00152123 0)
(-0.00211871 -0.00168373 0)
(-0.00191083 -0.0018434 0)
(-0.00169603 -0.00200126 0)
(-0.00147737 -0.00215661 0)
(-0.00125747 -0.00230464 0)
(-0.00103892 -0.00243372 0)
(-0.000824658 -0.00252273 0)
(-0.000618396 -0.0025387 0)
(-0.000424623 -0.00243443 0)
(-0.000249681 -0.00214659 0)
(-0.000107023 -0.00159465 0)
(-1.31148e-05 -0.000682479 0)
(1.18589e-05 -0.000732006 0)
(9.06404e-05 -0.00169781 0)
(0.000214074 -0.00227952 0)
(0.000373378 -0.00258488 0)
(0.000560803 -0.00270123 0)
(0.000770487 -0.00269258 0)