/*--------------------------------*- C++ -*----------------------------------*\
| =========                 |                                                 |
| \\      /  F ield         | OpenFOAM: The Open Source CFD Toolbox           |
|  \\    /   O peration     | Version:  2412                                  |
|   \\  /    A nd           | Website:  www.openfoam.com                      |
|    \\/     M anipulation  |                                                 |
\*---------------------------------------------------------------------------*/
FoamFile
{
    version     2.0;
    format      ascii;
    arch        "LSB;label=32;scalar=64";
    class       volScalarField;
    location    "7.85";
    object      p;
}
// * * * * * * * * * * * * * * * * * * * * * * * * * * * * * * * * * * * * * //

dimensions      [1 -1 -2 0 0 0 0];

internalField   nonuniform List<scalar> 
6400
(
130856
130855
130855
130854
130852
130849
130844
130836
130824
130808
130787
130760
130726
130686
130638
130584
130523
130456
130383
130305
130224
130138
130051
129963
129875
129787
129702
129620
129542
129468
129399
129336
129279
129229
129186
129149
129120
129097
129082
129074
129073
129079
129092
129113
129140
129174
129214
129261
129315
129374
129439
129509
129583
129660
129741
129824
129908
129991
130074
130154
130232
130305
130374
130437
130493
130543
130586
130622
130652
130675
130693
130705
130713
130718
130720
130721
130720
130720
130719
130719
124219
124218
124217
124217
124216
124213
124209
124202
124191
124175
124154
124127
124094
124053
124006
123951
123890
123822
123749
123670
123587
123501
123413
123324
123234
123146
123060
122978
122899
122824
122755
122692
122635
122585
122541
122505
122475
122453
122438
122430
122429
122435
122448
122468
122496
122530
122570
122617
122671
122731
122796
122866
122940
123019
123100
123184
123268
123353
123437
123518
123596
123671
123740
123803
123860
123910
123954
123990
124019
124042
124059
124071
124078
124082
124084
124084
124083
124082
124081
124081
117581
117581
117580
117581
117581
117579
117576
117571
117561
117547
117527
117501
117468
117427
117380
117325
117262
117193
117118
117038
116953
116865
116775
116684
116593
116503
116416
116331
116251
116176
116106
116042
115984
115934
115890
115853
115824
115801
115786
115778
115778
115784
115797
115817
115845
115879
115920
115967
116021
116082
116147
116218
116294
116374
116457
116542
116629
116715
116801
116885
116965
117041
117111
117176
117234
117285
117328
117364
117393
117415
117431
117441
117447
117449
117449
117448
117446
117444
117442
117442
110942
110942
110943
110945
110947
110948
110947
110944
110936
110924
110906
110882
110849
110809
110761
110705
110641
110571
110493
110410
110323
110232
110138
110044
109950
109858
109768
109681
109599
109522
109450
109385
109327
109276
109232
109195
109165
109143
109128
109120
109119
109126
109139
109159
109187
109221
109263
109311
109366
109427
109494
109567
109644
109726
109812
109900
109989
110079
110168
110254
110337
110416
110489
110555
110615
110666
110710
110745
110773
110794
110808
110816
110819
110819
110816
110812
110808
110805
110802
110801
104302
104303
104305
104309
104313
104317
104320
104320
104317
104308
104292
104270
104238
104199
104150
104093
104028
103954
103874
103787
103695
103600
103503
103404
103306
103210
103116
103026
102941
102862
102789
102722
102663
102611
102566
102529
102499
102477
102462
102454
102454
102460
102474
102494
102522
102557
102599
102648
102703
102766
102835
102910
102990
103075
103164
103256
103349
103443
103536
103627
103714
103797
103873
103942
104003
104056
104100
104135
104161
104179
104190
104195
104195
104191
104185
104178
104171
104165
104161
104159
97660.2
97661.8
97665.8
97672.1
97680.3
97688.6
97696.1
97701.2
97702.2
97698
97685.9
97665.5
97636.2
97597.2
97548.4
97489.7
97421.6
97344.7
97259.9
97168.4
97071.6
96970.8
96867.6
96763.6
96660.1
96558.6
96460.3
96366.3
96277.9
96195.6
96120
96051.8
95991.1
95938.1
95892.9
95855.5
95825.8
95803.6
95788.8
95781.3
95780.9
95787.6
95801.3
95822.2
95850.2
95885.3
95927.8
95977.5
96034.5
96098.7
96169.7
96247.3
96330.9
96419.8
96513.1
96609.8
96708.6
96808.1
96906.9
97003.4
97096
97183.2
97263.8
97336.3
97400
97454.1
97498.2
97532.3
97556.6
97571.8
97578.9
97579.2
97574.1
97565.3
97554.3
97542.5
97531.6
97522.6
97516.7
97513.9
91015
91017.8
91024
91033.7
91047.3
91060.8
91074.3
91086.3
91093.9
91095.2
91087.5
91070.5
91043.4
91005.3
90956
90895.5
90824.1
90742.9
90652.7
90555.1
90451.5
90343.7
90233.3
90122.2
90012
89904.1
89800.2
89701.4
89608.4
89522.5
89444
89373.6
89311.4
89257.5
89211.8
89174.3
89144.7
89122.7
89108.3
89101.1
89101
89107.9
89121.8
89142.8
89171
89206.5
89249.4
89300.1
89358.4
89424.4
89498
89578.9
89666.5
89760.1
89858.9
89961.8
90067.2
90173.8
90279.9
90383.5
90483
90576.6
90662.6
90739.6
90806.4
90862.3
90906.7
90939.5
90961.2
90972.4
90974.4
90968.7
90957.2
90941.8
90924.4
90906.9
90890.8
90877.8
90869.1
90864.9
84365.2
84369.6
84379
84394.5
84414.5
84434.9
84456
84475.5
84491.1
84499.4
84497.6
84485.3
84461.3
84424.5
84374.6
84311.8
84236.4
84149.7
84052.8
83947.4
83835.4
83718.8
83599.6
83479.8
83361.3
83245.8
83134.8
83029.9
82931.9
82841.7
82760
82687.1
82623.3
82568.4
82522.4
82484.9
82455.6
82434.2
82420.3
82413.5
82413.8
82421
82435
82456
82484.2
82519.9
82563.3
82614.8
82674.4
82742.5
82819
82903.6
82995.9
83095.2
83200.6
83310.9
83424.6
83540
83655
83767.7
83875.9
83977.4
84070.3
84152.9
84223.7
84281.8
84326.5
84357.9
84376.1
84382.1
84377.4
84364
84344
84320.3
84294.7
84269.6
84247.1
84228.7
84216.6
84210.6
77709.3
77715.6
77728.2
77751.4
77778.3
77808.3
77839.3
77869.2
77895.5
77912.3
77918.3
77911.9
77891.6
77856.6
77806.1
77740.3
77660
77566.4
77461.1
77346.2
77223.8
77096.4
76966.3
76835.9
76707.4
76582.7
76463.5
76351.3
76247.3
76152.3
76066.9
75991.5
75926
75870.3
75824.2
75787.1
75758.5
75737.9
75724.7
75718.7
75719.4
75726.8
75740.9
75761.8
75789.8
75825.4
75869
75921
75982
76052.1
76131.7
76220.4
76318.1
76424.1
76537.4
76656.6
76780.3
76906.3
77032.4
77156.2
77275.1
77386.6
77488.2
77577.7
77653.6
77714.4
77759.6
77789.1
77803
77802.4
77789.1
77766
77735.7
77700.6
77664.4
77629.7
77599
77574.3
77557.4
77549
71045.1
71054.7
71075.1
71102.9
71139
71180.7
71224.7
71266.9
71308.3
71335.5
71351.1
71352.1
71336.8
71303.7
71252.5
71183
71096.5
70994.4
70878.8
70752.1
70617
70476.4
70333.2
70190.1
70049.5
69913.9
69785
69664.5
69553.5
69453
69363.6
69285.5
69218.6
69162.4
69116.6
69080.4
69053
69033.7
69021.7
69016.6
69018
69025.6
69039.5
69060
69087.5
69122.5
69165.9
69218.1
69280.1
69352.2
69434.9
69528.3
69632
69745.6
69868
69997.9
70133.5
70272.4
70412.1
70549.6
70681.7
70805.5
70917.9
71016.2
71098.3
71162.7
71208.3
71235.3
71244.1
71235.5
71210.7
71174.9
71130.8
71081.9
71032.2
70985.5
70944.6
70911.9
70889.2
70877.8
64369.4
64382.3
64408.2
64445.6
64493.6
64550.5
64610.8
64672.2
64726.6
64769.4
64797.7
64808.4
64799.1
64768.6
64716.3
64642.5
64548.3
64435.7
64307.3
64166.1
64015.5
63858.9
63699.8
63541.4
63386.6
63238.1
63097.9
62967.7
62848.9
62742.4
62648.7
62568
62499.9
62443.8
62399
62364.3
62338.9
62321.5
62311.4
62307.6
62309.8
62317.6
62331.2
62350.8
62377.1
62411
62453.4
62505.3
62567.7
62641.5
62727.3
62825.5
62935.9
63058
63191.1
63333.5
63483.2
63637.7
63793.8
63948.1
64096.6
64235.6
64361.4
64470.7
64560.7
64629.3
64675.6
64699.4
64701.8
64682
64645
64591.8
64530.3
64463.5
64396.7
64334.7
64281.3
64238.9
64209.5
64194.4
57678.8
57695.6
57728.6
57777.2
57839.6
57917.5
57998.4
58080.2
58155.1
58216.9
58261
58283.5
58281.9
58254.6
58201
58121.5
58017.8
57892.3
57748.1
57589.1
57419.6
57243.6
57065.4
56888.9
56717.3
56553.8
56400.4
56259.3
56131.8
56018.7
55920.5
55837.3
55768.6
55713.3
55670.4
55638.5
55616
55601.6
55593.9
55592.1
55595.3
55603.3
55616.1
55634.3
55658.7
55690.4
55730.8
55781.4
55843.5
55918.5
56007.1
56110.2
56227.7
56359.5
56504.6
56661.5
56828
57001.2
57177.3
57352.1
57520.8
57678.8
57821.3
57944.3
58044
58118
58164.9
58184.3
58177.5
58144.9
58091
58019.3
57935
57845
57756.5
57675.3
57606.3
57552.2
57514.9
57495.2
50968.8
50990.3
51032.4
51095.5
51178.2
51277.5
51385.1
51493.8
51594.7
51680.1
51743.7
51781
51788.9
51765.4
51710.2
51623.8
51508.3
51366.5
51202.9
51022.2
50829.5
50630.1
50429.1
50231
50039.9
49858.9
49690.6
49537.1
49399.7
49279.6
49177
49091.8
49023.2
48969.9
48930.3
48902.4
48884.3
48874.1
48870
48870.7
48875.2
48883.3
48894.9
48910.8
48932.1
48960.4
48997.5
49045.4
49106.1
49181.2
49272.2
49380
49505.2
49647.5
49806.1
49979.8
50166
50361.5
50561.8
50761.7
50955.5
51136.9
51300
51440.9
51552.5
51633.2
51680.9
51694.9
51675.4
51628.1
51553.4
51456.9
51345.3
51227
51110.8
51005.5
50916.6
50847.7
50800.1
50775.4
44232.5
44260.1
44313.8
44396
44505.1
44632.6
44772.3
44914.1
45047.1
45161.4
45249.2
45304.9
45324.4
45305.7
45248.3
45153.3
45023.2
44861.2
44673.4
44466.1
44245.3
44017.7
43789.4
43566
43352
43151
42965.7
42798.2
42650.1
42522.4
42415.5
42329
42261.8
42212.1
42177.6
42155.8
42143.9
42139.6
42140.4
42144.6
42150.9
42158.9
42168.7
42181.2
42197.9
42220.9
42252.6
42296
42353.5
42427.7
42520.2
42632.4
42765.3
42918.8
43092.5
43285.3
43494.5
43716.5
43946.2
44177
44401.6
44612.6
44802.2
44963.4
45090.7
45180.2
45229.3
45237.2
45205
45136.7
45035.5
44908
44762.6
44609.4
44459.7
44323.9
44209.5
44120.7
44059.9
44028.9
37459.8
37496.8
37572
37680.3
37816.8
37979.8
38158.8
38341.2
38513.5
38663.7
38781.5
38859.7
38893.6
38880.7
38820.5
38714.5
38566.1
38380.4
38161.6
37921.8
37666.9
37405.1
37144.3
36891.1
36650.9
36427.3
36222.9
36039.7
35879.9
35744.1
35633
35546.2
35482.1
35438.2
35411.3
35398.1
35395.2
35399
35406.5
35415.5
35424.1
35431.9
35438.9
35446.5
35456.6
35471.8
35495.7
35531.8
35583.9
35655.3
35748.2
35864
36004.8
36170
36360
36574.1
36810.1
37063.8
37329
37597.6
37860.4
38108.9
38330.3
38518
38664.7
38765.1
38816.2
38816.8
38768.1
38674.3
38540.4
38374.8
38188
37992.2
37801.2
37627.3
37479.7
37364.5
37286.2
37246.7
30635.1
30684.1
30782.2
30924.2
31103.6
31313.1
31541.5
31774.1
31995
32189.3
32344.4
32450.6
32502.1
32496.2
32432.5
32313
32141.8
31925.4
31671.8
31391.3
31094.6
30791.2
30491.6
30203.9
29933.9
29685.1
29459.6
29258.2
29085.9
28941
28826
28740.5
28681.7
28646.3
28630.3
28629.3
28638.5
28653.5
28670.3
28685.6
28697.3
28704.5
28707.7
28708.4
28709.2
28713.5
28725.8
28751.2
28794.9
28861.3
28953.4
29072.9
29220.4
29396.9
29603.9
29841.6
30108.4
30399.7
30708.3
31023.5
31335.1
31627.5
31889.6
32110.5
32281.4
32395.6
32449
32440.2
32370.8
32245.1
32071.1
31859
31621.5
31373.6
31131.2
30909.5
30719.7
30569.8
30467.3
30415.9
23739
23805.1
23935.8
24122.8
24356
24624.8
24915.5
25210.9
25492
25741.9
25943
26083.4
26156.5
26159.4
26092
25956.3
25757.5
25503.5
25205.7
24876.5
24528.3
24173.7
23828.1
23501
23197.8
22921.8
22674.4
22454.9
22265.2
22108.8
21990.3
21908.1
21857.6
21834.3
21833.4
21848.9
21874.8
21905
21934.2
21958.3
21973.8
21980.1
21977.8
21969.1
21957.2
21946.4
21942.3
21952
21983
22042
22131.9
22256.2
22408.8
22595
22818.7
23081.6
23383
23718.8
24080.8
24454.5
24824.3
25173.6
25486.6
25749.3
25950.1
26081
26137
26116.6
26021.3
25856.5
25632.4
25362.4
25062.9
24750.3
24443.5
24160.3
23915.3
23720.5
23585.8
23519
16746.3
16836.1
17011.9
17257.9
17559.7
17904
18273.9
18648.7
19003.3
19324.2
19582.9
19765.8
19866
19880.3
19808.8
19653.2
19419.4
19117.6
18763.9
18373.7
17962.8
17548.9
17146.8
16775.6
16436.6
16132.5
15864.1
15626.3
15413
15239.6
15119
15044.5
15006.2
14999.4
15018.7
15056.7
15105.3
15156.2
15202
15237.9
15258.2
15262.7
15252.8
15231.3
15202.3
15171.1
15144.3
15131.2
15143.4
15192.1
15277.1
15410.3
15564.7
15757.2
15995.7
16284.1
16623.7
17012.7
17439.3
17883.7
18328.2
18750.1
19128.1
19444
19682.6
19834.2
19893
19857.8
19729.9
19515.4
19227.1
18886.9
18511.7
18118.2
17729.6
17366.9
17049.7
16795.3
16619
16534.2
9621.34
9746.53
9991.36
10318.5
10707.4
11143
11610.6
12085.4
12522.3
12945.2
13273.6
13503.8
13631.9
13657
13579.4
13399.5
13124.1
12763.9
12345.2
11883.9
11396.8
10909.1
10442.9
10017.6
9637.28
9303.54
9020.42
8783.83
8538.45
8328.25
8209.8
8149.42
8126.14
8139.77
8185.46
8253.21
8331.94
8410.17
8477.05
8530.32
8555.89
8557.91
8538.04
8500.19
8449.61
8392.76
8335.23
8288.71
8273.14
8315.68
8425.42
8539.04
8676.68
8865.6
9114.03
9427.08
9810.13
10268.9
10776
11312.2
11851.1
12362.1
12818.7
13199.3
13484
13661.5
13724.6
13673.9
13509.8
13235.1
12856.3
12437
11970.6
11474.7
10984.1
10521.2
10109.4
9774.14
9540.77
9439
3118.1
3262.71
3501.1
3797.44
4154.1
4577.32
5067.4
5604.89
6162.79
6655.78
7056.34
7343.47
7509.92
7555.12
7481.14
7280.28
6961.89
6525.1
6029.85
5515.56
4992.44
4498
4061.92
3689.1
3367.54
3085.99
2842.75
2639.69
2486.67
2372.26
2306.56
2289.49
2297.17
2333.92
2395.71
2472.08
2554.09
2632.23
2697.03
2742.41
2762.79
2758.14
2730.69
2683.85
2622.02
2554.18
2482.52
2413.78
2371.14
2369.31
2400.89
2464.44
2567.58
2714.58
2908.74
3158.95
3480.71
3879.57
4357.54
4904.17
5490.43
6074.52
6622.53
7081.19
7414.83
7616.03
7675.1
7600.82
7392.04
7050.75
6582.05
6071.87
5511.12
4964.75
4457.32
4002.49
3615.46
3312.07
3097.61
2995.1
239.005
277.901
347.547
430.756
539.837
690.714
897.467
1170.73
1530.09
1894.51
2194.1
2411.58
2535.56
2570.73
2520.44
2368.81
2140.15
1849.82
1545.62
1235.92
942.761
702.795
521.952
387.296
282.947
201.497
139.575
93.947
60.857
37.5603
22.9698
18.2654
25.9607
40.5755
60.6921
83.7323
107.686
130.177
148.407
160.414
164.35
159.822
147.371
128.56
104.95
82.5404
62.4313
44.3709
34.3278
34.4135
41.9315
55.0089
76.2341
108.888
155.517
221.452
315.615
450.034
637.728
892.936
1215.87
1569.46
1908.36
2240.51
2491.5
2648.61
2690.47
2632.5
2470.03
2207.56
1872.3
1484.61
1138.11
867.731
654.856
488.927
367.238
282.247
219.722
187.056
-1.89059
-3.79743
-4.52365
-5.71187
-6.67342
-6.98238
-7.04489
-5.0306
23.8964
55.9403
90.776
122.503
137.921
137.592
116.756
69.3766
14.3587
-7.99586
-8.86697
-8.6741
-8.31797
-8.12604
-8.03405
-7.93847
-7.90025
-7.91665
-7.84505
-7.63549
-7.41208
-7.38183
-7.66351
-8.14328
-8.37942
-8.37842
-8.4333
-8.51219
-8.57939
-8.63459
-8.65506
-8.59873
-8.43675
-8.23414
-8.18001
-8.20967
-8.05724
-7.75165
-7.362
-6.92071
-6.60539
-6.51141
-6.5941
-6.77826
-7.02945
-7.30194
-7.529
-7.68757
-7.84998
-8.05902
-8.28768
-8.48041
-8.86714
-9.19251
-7.71547
46.8171
111.258
164.575
183.805
177.336
147.794
99.4335
49.9375
9.64814
-7.46468
-8.20194
-7.95657
-7.65594
-7.31665
-7.05684
-6.76165
-5.41587
-6.88422
-7.21575
-7.43693
-7.88264
-8.15972
-8.25499
-8.2493
-8.37828
-9.05973
-9.63211
-10.1679
-10.0846
-9.76566
-9.56711
-9.41412
-9.13892
-8.80969
-8.71074
-8.81328
-8.70411
-8.59227
-8.51694
-8.47853
-8.43457
-8.37972
-8.38597
-8.40336
-8.34193
-8.28163
-8.40631
-8.74296
-9.04796
-9.11081
-9.05705
-9.04299
-9.0675
-9.12221
-9.17408
-9.20277
-9.19265
-9.11529
-8.97875
-8.90277
-8.84826
-8.69793
-8.43267
-8.0752
-7.68722
-7.38677
-7.25894
-7.30585
-7.45754
-7.67157
-7.90277
-8.11301
-8.28816
-8.44631
-8.59587
-8.72636
-8.80762
-8.93638
-9.10461
-8.9587
-9.18947
-9.43245
-9.56443
-9.56439
-9.58397
-9.50593
-9.4992
-9.4563
-9.14751
-8.8786
-8.84461
-8.78131
-8.71037
-8.63618
-8.58035
-8.53707
-8.43701
-8.22108
-8.28633
-8.37017
-8.58882
-8.72717
-8.85532
-8.98493
-9.1887
-9.55494
-9.92834
-10.0896
-10.0289
-9.87321
-9.71716
-9.57361
-9.44468
-9.32792
-9.28489
-9.32505
-9.36699
-9.29382
-9.12801
-9.02597
-9.03401
-8.98507
-8.96187
-8.93533
-8.89615
-8.92728
-9.14766
-9.46284
-9.6723
-9.70862
-9.66544
-9.65869
-9.69761
-9.74933
-9.79609
-9.8209
-9.81587
-9.77059
-9.68995
-9.58735
-9.4522
-9.29237
-9.05563
-8.70784
-8.33997
-8.03617
-7.86804
-7.88785
-8.04099
-8.26386
-8.50038
-8.72401
-8.9248
-9.0753
-9.19001
-9.30892
-9.45292
-9.56852
-9.65654
-9.67858
-9.67452
-9.68061
-9.70742
-9.70791
-9.73707
-9.75726
-9.82054
-9.86388
-9.77947
-9.5728
-9.42513
-9.32343
-9.26522
-9.25247
-9.25483
-9.25837
-9.23695
-9.0708
-9.13926
-9.20981
-9.30883
-9.38735
-9.47728
-9.58916
-9.71839
-9.95711
-10.2304
-10.4311
-10.4791
-10.411
-10.2922
-10.1867
-10.0874
-9.98115
-9.89006
-9.8527
-9.90605
-9.90819
-9.76812
-9.59601
-9.58783
-9.54145
-9.50288
-9.47227
-9.45362
-9.53898
-9.74068
-9.97257
-10.1342
-10.2112
-10.2413
-10.2722
-10.3275
-10.3775
-10.3971
-10.3876
-10.3458
-10.2915
-10.2507
-10.1831
-10.0729
-9.9412
-9.7849
-9.5639
-9.25738
-8.92182
-8.66527
-8.62389
-8.75162
-8.95313
-9.1702
-9.38585
-9.5813
-9.72403
-9.83649
-9.92277
-9.99723
-10.1049
-10.2209
-10.3002
-10.2803
-10.2715
-10.3049
-10.3351
-10.395
-10.3599
-10.3832
-10.4067
-10.3041
-10.1347
-9.99621
-9.89232
-9.84662
-9.86252
-9.87796
-9.8749
-9.82551
-9.92376
-10.0647
-10.0586
-9.99468
-10.0133
-10.088
-10.217
-10.3777
-10.5584
-10.7286
-10.8731
-10.9331
-10.8992
-10.8205
-10.7243
-10.6384
-10.5724
-10.4839
-10.455
-10.498
-10.5727
-10.4553
-10.2302
-10.1433
-10.1014
-10.0641
-10.0377
-10.0267
-10.1051
-10.2584
-10.4457
-10.5981
-10.7204
-10.8102
-10.8972
-10.9981
-11.0707
-11.0605
-10.9845
-10.9057
-10.8455
-10.785
-10.7031
-10.6298
-10.5931
-10.5598
-10.46
-10.2654
-9.96429
-9.65328
-9.55608
-9.65117
-9.81245
-9.97591
-10.127
-10.2664
-10.3921
-10.5051
-10.5984
-10.6482
-10.7075
-10.7942
-10.8152
-10.7791
-10.7622
-10.7752
-10.8158
-10.8827
-10.8928
-10.9162
-10.9406
-10.8356
-10.688
-10.5575
-10.4878
-10.4748
-10.5085
-10.5363
-10.5098
-10.4307
-10.7403
-10.9588
-10.9512
-10.8297
-10.7482
-10.7688
-10.8741
-11.0308
-11.1849
-11.2927
-11.369
-11.41
-11.4141
-11.3913
-11.3576
-11.3368
-11.267
-11.1287
-11.0533
-11.0471
-11.0666
-10.9951
-10.7925
-10.6911
-10.6618
-10.6226
-10.6186
-10.6247
-10.6729
-10.7855
-10.948
-11.1141
-11.2816
-11.4232
-11.5825
-11.7343
-11.8163
-11.7826
-11.6702
-11.5547
-11.4463
-11.3353
-11.229
-11.1694
-11.1782
-11.2266
-11.2389
-11.1529
-10.9472
-10.6478
-10.5425
-10.6254
-10.7333
-10.8338
-10.9233
-11.0032
-11.0946
-11.1767
-11.2405
-11.2943
-11.3272
-11.3353
-11.3046
-11.2745
-11.2799
-11.3036
-11.3252
-11.3638
-11.3707
-11.3525
-11.3633
-11.3254
-11.2481
-11.161
-11.1197
-11.104
-11.125
-11.1464
-11.0888
-11.0075
-11.377
-11.4647
-11.431
-11.3659
-11.4093
-11.5006
-11.6247
-11.7701
-11.8721
-11.9212
-11.9562
-11.9683
-11.9556
-11.9542
-11.9914
-12.0508
-12.0008
-11.7706
-11.6231
-11.5702
-11.5326
-11.4632
-11.3377
-11.2597
-11.2443
-11.2067
-11.2188
-11.2456
-11.2629
-11.3342
-11.4756
-11.652
-11.8549
-12.0568
-12.256
-12.4293
-12.5301
-12.5117
-12.4066
-12.2489
-12.0699
-11.896
-11.7569
-11.6843
-11.6834
-11.7374
-11.7982
-11.7881
-11.695
-11.5022
-11.4096
-11.4535
-11.5119
-11.5775
-11.6588
-11.7418
-11.8118
-11.8743
-11.9178
-11.949
-11.9523
-11.9163
-11.8664
-11.832
-11.8301
-11.8474
-11.8581
-11.8725
-11.8504
-11.7838
-11.7935
-11.8246
-11.8336
-11.7902
-11.7535
-11.7122
-11.682
-11.6499
-11.5837
-11.5303
-11.8991
-11.7949
-11.6397
-11.7297
-12.0197
-12.3136
-12.514
-12.6548
-12.7144
-12.7093
-12.6787
-12.6326
-12.581
-12.568
-12.6191
-12.7013
-12.6686
-12.4266
-12.1953
-12.0923
-12.0465
-11.9899
-11.905
-11.848
-11.8371
-11.807
-11.8302
-11.8958
-11.8879
-11.9055
-12.0257
-12.2108
-12.4425
-12.7023
-12.9352
-13.1419
-13.2936
-13.3407
-13.2593
-13.0815
-12.8308
-12.5627
-12.3623
-12.2669
-12.2447
-12.2674
-12.3043
-12.325
-12.296
-12.2155
-12.1202
-12.1253
-12.1636
-12.2177
-12.3018
-12.4078
-12.5009
-12.5644
-12.6111
-12.624
-12.5986
-12.5374
-12.4752
-12.4329
-12.4143
-12.4125
-12.4068
-12.4069
-12.3754
-12.276
-12.2702
-12.3576
-12.4212
-12.3798
-12.3402
-12.3033
-12.2122
-12.1036
-12.0441
-12.0201
-12.5015
-12.3537
-12.2444
-12.4389
-12.8557
-13.2235
-13.4273
-13.5711
-13.6485
-13.6084
-13.4797
-13.3749
-13.2923
-13.2396
-13.2407
-13.2624
-13.2127
-13.0168
-12.7909
-12.6645
-12.6119
-12.5601
-12.5036
-12.447
-12.4299
-12.4074
-12.4258
-12.5181
-12.5328
-12.4883
-12.6007
-12.8208
-13.1183
-13.4472
-13.7479
-14.0098
-14.2236
-14.3352
-14.3051
-14.1302
-13.8068
-13.4201
-13.1183
-12.9728
-12.9297
-12.9151
-12.9023
-12.8987
-12.8826
-12.8419
-12.7503
-12.7493
-12.7887
-12.8412
-12.9208
-13.0277
-13.1455
-13.2355
-13.2884
-13.298
-13.2539
-13.1755
-13.1018
-13.047
-13.0138
-12.988
-12.9611
-12.946
-12.9196
-12.8277
-12.7875
-12.896
-12.9898
-12.9554
-12.888
-12.8721
-12.7701
-12.5983
-12.5248
-12.5157
-13.3071
-13.1902
-13.2013
-13.476
-13.9124
-14.2019
-14.3459
-14.4636
-14.509
-14.464
-14.2969
-14.1322
-14.0196
-13.9291
-13.852
-13.7862
-13.6907
-13.5441
-13.4017
-13.2944
-13.2152
-13.1556
-13.0904
-13.0329
-13.0053
-12.9944
-12.9895
-13.0637
-13.1284
-13.0779
-13.1925
-13.4878
-13.869
-14.282
-14.6568
-14.9881
-15.2773
-15.4499
-15.4403
-15.2281
-14.8427
-14.3706
-13.9706
-13.7526
-13.666
-13.6139
-13.5618
-13.5212
-13.4935
-13.4335
-13.3634
-13.3661
-13.4116
-13.4659
-13.544
-13.65
-13.7666
-13.8812
-13.9502
-13.9627
-13.9096
-13.8233
-13.74
-13.6756
-13.6263
-13.5753
-13.5257
-13.4865
-13.4563
-13.4019
-13.3512
-13.4228
-13.5136
-13.5247
-13.4396
-13.4491
-13.3795
-13.1772
-13.0273
-13.0505
-14.261
-14.2311
-14.2268
-14.5926
-14.9857
-15.1447
-15.2046
-15.3022
-15.3177
-15.2056
-15.0223
-14.8508
-14.7305
-14.5991
-14.4615
-14.3252
-14.1865
-14.0961
-14.0273
-13.9213
-13.8145
-13.7317
-13.6484
-13.5881
-13.5566
-13.5637
-13.5752
-13.6251
-13.7043
-13.6998
-13.7965
-14.1687
-14.5801
-15.076
-15.4977
-15.8653
-16.1832
-16.3646
-16.3522
-16.14
-15.7547
-15.2562
-14.7821
-14.4993
-14.3626
-14.2822
-14.2141
-14.1584
-14.1115
-14.0419
-13.9908
-13.9922
-14.034
-14.089
-14.1669
-14.2718
-14.386
-14.5002
-14.596
-14.6241
-14.5688
-14.4696
-14.3722
-14.303
-14.2346
-14.1656
-14.102
-14.0442
-14.0015
-13.9632
-13.9345
-13.9452
-14.0126
-14.0626
-14.0036
-14.012
-13.9995
-13.7973
-13.567
-13.6073
-15.1125
-15.251
-15.1906
-15.5197
-15.7686
-15.8519
-15.9474
-16.085
-16.1262
-16.023
-15.8249
-15.6159
-15.4436
-15.2633
-15.0873
-14.9036
-14.7485
-14.708
-14.6508
-14.5066
-14.3772
-14.2734
-14.1985
-14.1543
-14.143
-14.1651
-14.2172
-14.2742
-14.3356
-14.3628
-14.4779
-14.8421
-15.2571
-15.7524
-16.1806
-16.5337
-16.82
-16.9979
-17.0101
-16.8238
-16.469
-15.9889
-15.5111
-15.1825
-15.0063
-14.9001
-14.8191
-14.7541
-14.7026
-14.649
-14.6204
-14.623
-14.6533
-14.7095
-14.7883
-14.8868
-14.9933
-15.0999
-15.2104
-15.2642
-15.2157
-15.0937
-14.9733
-14.8914
-14.8193
-14.7448
-14.6738
-14.6108
-14.5555
-14.5142
-14.4958
-14.4928
-14.5358
-14.5861
-14.5575
-14.5416
-14.5627
-14.3829
-14.1464
-14.1607
-15.7127
-15.9611
-15.9665
-16.1468
-16.2897
-16.3631
-16.5077
-16.7099
-16.85
-16.8503
-16.703
-16.4579
-16.1707
-15.9251
-15.7184
-15.5157
-15.3951
-15.3441
-15.222
-15.0537
-14.9234
-14.8301
-14.7781
-14.7584
-14.7601
-14.7823
-14.8406
-14.9113
-14.9764
-15.0322
-15.1572
-15.4639
-15.8625
-16.288
-16.6962
-17.0295
-17.2828
-17.4456
-17.473
-17.3153
-16.9905
-16.5526
-16.131
-15.8096
-15.6028
-15.4723
-15.3755
-15.3013
-15.2486
-15.2238
-15.2261
-15.2336
-15.2653
-15.3251
-15.4042
-15.4932
-15.5821
-15.6717
-15.7691
-15.8383
-15.8077
-15.676
-15.5399
-15.4434
-15.3719
-15.3039
-15.2358
-15.1687
-15.1063
-15.0563
-15.0348
-15.0433
-15.0703
-15.098
-15.0761
-15.0421
-15.0415
-14.934
-14.7249
-14.6886
-16.1354
-16.3503
-16.4852
-16.604
-16.7103
-16.8047
-16.9507
-17.141
-17.3037
-17.3747
-17.3153
-17.1033
-16.8021
-16.5524
-16.3402
-16.1483
-16.0368
-15.9334
-15.7721
-15.6204
-15.5014
-15.4203
-15.3695
-15.3457
-15.3362
-15.3445
-15.3857
-15.439
-15.5093
-15.5981
-15.7123
-15.9577
-16.3299
-16.6933
-17.0578
-17.3754
-17.6093
-17.7583
-17.7959
-17.6568
-17.3586
-16.9809
-16.6274
-16.3484
-16.1422
-15.9994
-15.8995
-15.8207
-15.7637
-15.7691
-15.7893
-15.8084
-15.8584
-15.9287
-16.0097
-16.0888
-16.1558
-16.2167
-16.2832
-16.3355
-16.3185
-16.2063
-16.0804
-15.9844
-15.9089
-15.8418
-15.7779
-15.7118
-15.6453
-15.5856
-15.5492
-15.5493
-15.5726
-15.5821
-15.5606
-15.5128
-15.4799
-15.404
-15.2619
-15.2055
-16.5158
-16.6571
-16.893
-17.0439
-17.1255
-17.222
-17.3482
-17.4884
-17.6068
-17.6772
-17.6654
-17.5253
-17.3164
-17.1188
-16.9265
-16.7548
-16.6277
-16.5012
-16.3613
-16.2392
-16.1407
-16.0573
-15.9887
-15.9372
-15.8973
-15.8688
-15.8632
-15.8774
-15.9246
-16.0094
-16.1034
-16.3166
-16.6649
-16.9889
-17.3224
-17.6247
-17.8517
-18.0032
-18.0377
-17.9067
-17.6478
-17.3311
-17.0436
-16.815
-16.6313
-16.4825
-16.3884
-16.3148
-16.276
-16.2979
-16.3139
-16.3555
-16.4294
-16.5159
-16.6012
-16.6705
-16.7207
-16.754
-16.783
-16.8031
-16.7846
-16.7039
-16.6072
-16.524
-16.4488
-16.3756
-16.3031
-16.2317
-16.1604
-16.0907
-16.0373
-16.0249
-16.0566
-16.0694
-16.0421
-15.974
-15.9134
-15.8486
-15.7594
-15.717
-16.9336
-17.055
-17.3622
-17.5131
-17.5551
-17.6296
-17.7268
-17.8307
-17.919
-17.9715
-17.9658
-17.8883
-17.7654
-17.623
-17.4686
-17.3259
-17.2123
-17.1078
-17.006
-16.9186
-16.8357
-16.747
-16.6617
-16.5773
-16.487
-16.3889
-16.3094
-16.2649
-16.2671
-16.318
-16.3869
-16.5844
-16.9029
-17.2284
-17.5599
-17.8568
-18.0886
-18.2354
-18.2528
-18.1346
-17.9147
-17.6617
-17.4389
-17.2518
-17.089
-16.938
-16.8463
-16.7873
-16.7761
-16.7993
-16.8178
-16.8851
-16.9857
-17.0873
-17.1745
-17.2381
-17.2806
-17.2992
-17.3001
-17.2929
-17.2647
-17.206
-17.1366
-17.0682
-16.996
-16.9172
-16.8312
-16.7407
-16.6514
-16.568
-16.5011
-16.4948
-16.5356
-16.5619
-16.532
-16.4522
-16.3731
-16.3116
-16.2689
-16.249
-17.3842
-17.5115
-17.8629
-17.951
-17.9804
-18.0352
-18.1083
-18.1862
-18.2556
-18.302
-18.3115
-18.276
-18.2048
-18.1072
-17.9966
-17.8964
-17.8228
-17.7521
-17.6831
-17.6172
-17.5342
-17.4509
-17.3688
-17.2638
-17.1196
-16.9476
-16.7848
-16.6711
-16.6193
-16.6278
-16.6833
-16.8573
-17.1511
-17.4872
-17.8166
-18.1149
-18.3426
-18.4648
-18.4736
-18.3734
-18.2002
-18.0139
-17.8295
-17.6615
-17.5157
-17.383
-17.296
-17.2545
-17.2632
-17.2718
-17.3083
-17.4044
-17.5323
-17.6481
-17.7351
-17.7973
-17.8401
-17.8577
-17.8475
-17.8236
-17.7887
-17.7386
-17.6822
-17.623
-17.5548
-17.4733
-17.3746
-17.2591
-17.1447
-17.0589
-17.0141
-17.0077
-17.0369
-17.0676
-17.0411
-16.9638
-16.8708
-16.818
-16.8167
-16.816
-17.8414
-17.9691
-18.3195
-18.3576
-18.3895
-18.4371
-18.4978
-18.5629
-18.6263
-18.6759
-18.7035
-18.6986
-18.6626
-18.603
-18.5359
-18.4897
-18.454
-18.4141
-18.3707
-18.3168
-18.256
-18.2103
-18.1655
-18.0576
-17.8642
-17.6069
-17.3622
-17.1901
-17.088
-17.0514
-17.1011
-17.2563
-17.513
-17.8245
-18.1375
-18.4179
-18.6134
-18.7177
-18.7329
-18.6613
-18.5397
-18.3889
-18.2207
-18.0547
-17.9152
-17.8109
-17.7435
-17.7187
-17.7419
-17.7378
-17.8048
-17.9279
-18.0731
-18.2036
-18.2945
-18.3679
-18.4166
-18.4326
-18.4225
-18.393
-18.3567
-18.3119
-18.26
-18.2052
-18.1417
-18.0607
-17.9558
-17.8086
-17.6907
-17.6275
-17.6167
-17.6272
-17.6287
-17.6455
-17.6119
-17.5237
-17.4075
-17.3729
-17.3989
-17.4117
-18.2868
-18.4562
-18.7148
-18.7437
-18.7861
-18.835
-18.8933
-18.9565
-19.0179
-19.076
-19.1201
-19.1416
-19.1372
-19.1153
-19.104
-19.1052
-19.101
-19.0892
-19.0703
-19.0344
-19.0179
-19.0286
-19.0226
-18.9236
-18.686
-18.3832
-18.1131
-17.924
-17.7912
-17.7141
-17.7199
-17.817
-18.0033
-18.2567
-18.5388
-18.7835
-18.959
-19.0523
-19.0726
-19.0276
-18.9258
-18.7856
-18.6223
-18.4581
-18.3206
-18.2289
-18.1816
-18.1807
-18.207
-18.2087
-18.3111
-18.4578
-18.6153
-18.76
-18.8656
-18.9564
-19.0122
-19.0256
-19.0099
-18.9817
-18.9456
-18.9086
-18.8646
-18.8182
-18.7666
-18.6967
-18.5967
-18.4608
-18.3468
-18.2687
-18.2656
-18.2955
-18.3204
-18.3039
-18.2553
-18.1492
-18.0124
-17.9689
-18.0064
-18.0262
-18.7286
-18.9221
-19.0756
-19.125
-19.1782
-19.2321
-19.2893
-19.3499
-19.4145
-19.4817
-19.5412
-19.589
-19.6202
-19.6507
-19.6968
-19.7348
-19.7571
-19.7669
-19.7569
-19.744
-19.76
-19.7906
-19.7786
-19.68
-19.482
-19.2193
-18.9745
-18.7858
-18.6335
-18.5246
-18.4991
-18.5488
-18.6796
-18.869
-19.0666
-19.2406
-19.3688
-19.4319
-19.446
-19.4155
-19.3319
-19.2049
-19.0524
-18.8946
-18.7598
-18.6721
-18.6397
-18.6709
-18.6739
-18.7216
-18.8348
-18.9936
-19.1649
-19.3163
-19.4483
-19.5466
-19.6045
-19.6193
-19.5988
-19.5687
-19.5345
-19.5016
-19.4714
-19.4421
-19.4143
-19.3763
-19.3038
-19.2874
-19.1472
-19.0534
-19.0269
-19.0988
-19.1305
-19.0647
-18.974
-18.8423
-18.6933
-18.6041
-18.6154
-18.6492
-19.1891
-19.3307
-19.4551
-19.5174
-19.5747
-19.6307
-19.6862
-19.7459
-19.8133
-19.8862
-19.9627
-20.0397
-20.1166
-20.2129
-20.3034
-20.3714
-20.415
-20.4291
-20.4148
-20.4096
-20.4233
-20.4314
-20.3891
-20.2897
-20.137
-19.9516
-19.7859
-19.6168
-19.4368
-19.2983
-19.2733
-19.3246
-19.4377
-19.5804
-19.7006
-19.7795
-19.8326
-19.8685
-19.8903
-19.8702
-19.8031
-19.6868
-19.5431
-19.3898
-19.2578
-19.1791
-19.1531
-19.2079
-19.2073
-19.2772
-19.3894
-19.5441
-19.7158
-19.8714
-20.0165
-20.1207
-20.1785
-20.1944
-20.1777
-20.1417
-20.1099
-20.0825
-20.0647
-20.0558
-20.0594
-20.0865
-20.1186
-20.2353
-20.1489
-20.0538
-19.9772
-20.0383
-20.0504
-19.9481
-19.7683
-19.5904
-19.4085
-19.279
-19.2545
-19.2835
-19.6887
-19.7689
-19.8671
-19.9252
-19.9798
-20.0331
-20.0882
-20.149
-20.219
-20.3005
-20.3982
-20.5111
-20.6433
-20.7946
-20.9216
-21.0139
-21.0674
-21.0729
-21.0502
-21.0226
-21.0021
-20.9723
-20.9161
-20.8189
-20.693
-20.5566
-20.4512
-20.3399
-20.1688
-20.0276
-19.9955
-20.0521
-20.1535
-20.2497
-20.3117
-20.3407
-20.3511
-20.3856
-20.427
-20.4395
-20.3913
-20.2754
-20.1152
-19.9528
-19.831
-19.7738
-19.751
-19.7878
-19.8117
-19.8819
-19.9827
-20.1183
-20.2727
-20.4226
-20.5574
-20.6601
-20.7213
-20.7435
-20.7389
-20.7023
-20.6746
-20.6531
-20.6438
-20.651
-20.6859
-20.792
-20.9912
-21.1931
-21.2553
-21.1305
-21.0116
-21.0199
-21.0334
-20.8828
-20.6207
-20.3765
-20.14
-19.9821
-19.9366
-19.9317
-20.276
-20.2912
-20.3229
-20.349
-20.3912
-20.4419
-20.4999
-20.5653
-20.6426
-20.7401
-20.8644
-21.0181
-21.2008
-21.3882
-21.5478
-21.6609
-21.7209
-21.723
-21.6823
-21.6206
-21.5657
-21.5175
-21.4482
-21.3556
-21.2484
-21.1362
-21.0597
-21.0031
-20.854
-20.7153
-20.691
-20.7564
-20.8407
-20.8874
-20.8962
-20.9127
-20.9501
-21.0148
-21.0845
-21.1333
-21.1028
-20.9758
-20.7724
-20.5861
-20.4782
-20.4278
-20.4219
-20.4393
-20.474
-20.5306
-20.6133
-20.7203
-20.8453
-20.9728
-21.0837
-21.1734
-21.2319
-21.2594
-21.2668
-21.259
-21.2347
-21.2145
-21.2094
-21.2285
-21.2891
-21.4404
-21.7296
-21.994
-22.1101
-22.0357
-21.8453
-21.7984
-21.8091
-21.7014
-21.4506
-21.1445
-20.8597
-20.6758