/*--------------------------------*- C++ -*----------------------------------*\
| =========                 |                                                 |
| \\      /  F ield         | OpenFOAM: The Open Source CFD Toolbox           |
|  \\    /   O peration     | Version:  2412                                  |
|   \\  /    A nd           | Website:  www.openfoam.com                      |
|    \\/     M anipulation  |                                                 |
\*---------------------------------------------------------------------------*/
FoamFile
{
    version     2.0;
    format      ascii;
    arch        "LSB;label=32;scalar=64";
    class       volScalarField;
    location    "6.6";
    object      p_rgh;
}
// * * * * * * * * * * * * * * * * * * * * * * * * * * * * * * * * * * * * * //

dimensions      [1 -1 -2 0 0 0 0];

internalField   nonuniform List<scalar> 
6400
(
9847.77
9848.09
9848.72
9849.64
9850.85
9852.32
9854.03
9855.93
9858
9860.16
9862.37
9864.57
9866.67
9868.61
9870.3
9871.68
9872.66
9873.18
9873.17
9872.58
9871.38
9869.55
9867.09
9864
9860.34
9856.12
9851.44
9846.37
9841.02
9835.49
9829.9
9824.37
9819.01
9813.96
9809.31
9805.19
9801.68
9798.87
9796.82
9795.58
9795.18
9795.63
9796.92
9799.01
9801.85
9805.37
9809.48
9814.08
9819.04
9824.24
9829.55
9834.84
9839.99
9844.85
9849.34
9853.35
9856.8
9859.65
9861.85
9863.39
9864.27
9864.53
9864.18
9863.31
9861.95
9860.2
9858.14
9855.83
9853.38
9850.85
9848.33
9845.87
9843.55
9841.4
9839.49
9837.84
9836.49
9835.46
9834.76
9834.41
9847.45
9847.78
9848.41
9849.35
9850.58
9852.08
9853.83
9855.77
9857.89
9860.11
9862.39
9864.65
9866.83
9868.85
9870.62
9872.07
9873.12
9873.7
9873.74
9873.19
9872.01
9870.19
9867.71
9864.59
9860.86
9856.58
9851.82
9846.65
9841.19
9835.54
9829.83
9824.18
9818.7
9813.53
9808.78
9804.56
9800.97
9798.09
9795.99
9794.72
9794.31
9794.78
9796.1
9798.24
9801.16
9804.77
9808.99
9813.7
9818.79
9824.12
9829.57
9834.99
9840.25
9845.23
9849.81
9853.9
9857.41
9860.29
9862.51
9864.05
9864.91
9865.12
9864.72
9863.78
9862.35
9860.52
9858.37
9855.98
9853.45
9850.85
9848.25
9845.74
9843.36
9841.17
9839.21
9837.54
9836.16
9835.11
9834.41
9834.04
9846.82
9847.15
9847.8
9848.77
9850.04
9851.6
9853.41
9855.45
9857.66
9860
9862.41
9864.82
9867.15
9869.32
9871.26
9872.86
9874.05
9874.75
9874.89
9874.42
9873.29
9871.47
9868.96
9865.77
9861.95
9857.54
9852.59
9847.23
9841.54
9835.66
9829.7
9823.79
9818.07
9812.66
9807.69
9803.27
9799.51
9796.5
9794.3
9792.97
9792.54
9793.03
9794.42
9796.68
9799.75
9803.55
9807.98
9812.94
9818.29
9823.89
9829.6
9835.29
9840.8
9846
9850.79
9855.02
9858.64
9861.6
9863.85
9865.38
9866.19
9866.32
9865.81
9864.73
9863.15
9861.15
9858.83
9856.28
9853.58
9850.83
9848.1
9845.46
9842.97
9840.69
9838.66
9836.92
9835.5
9834.42
9833.69
9833.32
9845.85
9846.19
9846.87
9847.88
9849.21
9850.85
9852.77
9854.94
9857.3
9859.82
9862.43
9865.06
9867.62
9870.04
9872.21
9874.05
9875.47
9876.36
9876.66
9876.31
9875.24
9873.44
9870.88
9867.59
9863.61
9858.99
9853.78
9848.11
9842.09
9835.84
9829.5
9823.21
9817.11
9811.34
9806.03
9801.31
9797.28
9794.06
9791.7
9790.28
9789.83
9790.35
9791.85
9794.28
9797.58
9801.67
9806.45
9811.78
9817.52
9823.54
9829.67
9835.76
9841.64
9847.19
9852.27
9856.73
9860.54
9863.61
9865.91
9867.42
9868.16
9868.16
9867.47
9866.18
9864.36
9862.11
9859.53
9856.72
9853.77
9850.79
9847.84
9845.01
9842.36
9839.94
9837.8
9835.98
9834.49
9833.36
9832.61
9832.22
9844.53
9844.89
9845.6
9846.67
9848.08
9849.82
9851.88
9854.22
9856.79
9859.55
9862.43
9865.35
9868.24
9870.99
9873.51
9875.67
9877.39
9878.56
9879.09
9878.9
9877.93
9876.15
9873.54
9870.11
9865.9
9860.97
9855.43
9849.35
9842.86
9836.11
9829.25
9822.43
9815.81
9809.53
9803.76
9798.62
9794.23
9790.71
9788.14
9786.59
9786.1
9786.68
9788.32
9790.99
9794.62
9799.1
9804.34
9810.18
9816.48
9823.07
9829.78
9836.42
9842.83
9848.84
9854.29
9859.11
9863.16
9866.39
9868.75
9870.23
9870.86
9870.67
9869.74
9868.15
9866
9863.4
9860.46
9857.29
9854
9850.7
9847.47
9844.39
9841.52
9838.92
9836.63
9834.69
9833.11
9831.93
9831.13
9830.73
9842.85
9843.22
9843.98
9845.1
9846.61
9848.48
9850.7
9853.25
9856.08
9859.14
9862.37
9865.68
9868.99
9872.18
9875.14
9877.74
9879.87
9881.4
9882.23
9882.26
9881.43
9879.69
9877.01
9873.41
9868.92
9863.61
9857.6
9850.97
9843.88
9836.48
9828.94
9821.43
9814.12
9807.2
9800.82
9795.13
9790.28
9786.38
9783.53
9781.81
9781.26
9781.91
9783.74
9786.72
9790.76
9795.76
9801.6
9808.12
9815.14
9822.48
9829.94
9837.31
9844.41
9851.05
9857.02
9862.25
9866.62
9870.04
9872.46
9873.9
9874.37
9873.94
9872.67
9870.69
9868.09
9865.02
9861.6
9857.97
9854.25
9850.54
9846.94
9843.54
9840.4
9837.57
9835.1
9833.02
9831.34
9830.09
9829.25
9828.83
9840.8
9841.18
9841.97
9843.16
9844.77
9846.78
9849.2
9852
9855.13
9858.56
9862.22
9866.01
9869.84
9873.59
9877.12
9880.28
9882.93
9884.94
9886.16
9886.49
9885.84
9884.15
9881.39
9877.58
9872.74
9866.97
9860.37
9853.05
9845.19
9836.96
9828.56
9820.19
9812.04
9804.29
9797.15
9790.77
9785.33
9780.94
9777.74
9775.8
9775.18
9775.92
9777.98
9781.34
9785.9
9791.56
9798.16
9805.53
9813.46
9821.75
9830.16
9838.47
9846.45
9853.89
9860.5
9866.26
9871.01
9874.66
9877.17
9878.54
9878.8
9878.03
9876.32
9873.82
9870.66
9866.99
9862.97
9858.75
9854.46
9850.25
9846.2
9842.42
9838.95
9835.85
9833.17
9830.93
9829.15
9827.82
9826.94
9826.5
9838.37
9838.72
9839.57
9840.81
9842.52
9844.68
9847.31
9850.39
9853.88
9857.75
9861.92
9866.3
9870.78
9875.22
9879.46
9883.32
9886.64
9889.25
9890.98
9891.69
9891.28
9889.67
9886.82
9882.75
9877.49
9871.14
9863.85
9855.65
9846.85
9837.61
9828.15
9818.71
9809.5
9800.74
9792.66
9785.44
9779.26
9774.29
9770.64
9768.43
9767.72
9768.54
9770.89
9774.72
9779.92
9786.38
9793.92
9802.34
9811.41
9820.88
9830.48
9839.94
9848.99
9857.29
9864.83
9871.27
9876.5
9880.43
9883.02
9884.28
9884.26
9883.05
9880.79
9877.63
9873.74
9869.31
9864.54
9859.58
9854.62
9849.78
9845.2
9840.96
9837.12
9833.71
9830.79
9828.38
9826.48
9825.1
9824.18
9823.73
9835.53
9835.82
9836.75
9837.99
9839.81
9842.1
9844.96
9848.35
9852.25
9856.62
9861.4
9866.48
9871.75
9877.04
9882.16
9886.92
9891.08
9894.44
9896.81
9898.01
9897.91
9896.42
9893.48
9889.1
9883.33
9876.25
9868.01
9858.85
9848.91
9838.43
9827.69
9816.94
9806.45
9796.47
9787.25
9779.01
9771.94
9766.24
9762.05
9759.5
9758.66
9759.59
9762.27
9766.65
9772.63
9780.06
9788.75
9798.45
9808.92
9819.84
9830.91
9841.81
9852.24
9861.72
9870.24
9877.48
9883.29
9887.54
9890.2
9891.3
9890.9
9889.13
9886.15
9882.16
9877.37
9872
9866.29
9860.44
9854.64
9849.07
9843.85
9839.09
9834.82
9831.08
9827.9
9825.31
9823.31
9821.89
9820.94
9820.5
9832.28
9832.47
9833.54
9834.62
9836.62
9838.97
9842.05
9845.79
9850.13
9855.07
9860.55
9866.47
9872.7
9879.03
9885.24
9891.09
9896.3
9900.62
9903.79
9905.62
9905.93
9904.6
9901.56
9896.82
9890.43
9882.5
9873.2
9862.79
9851.44
9839.46
9827.16
9814.84
9802.82
9791.37
9780.78
9771.3
9763.17
9756.59
9751.74
9748.76
9747.76
9748.8
9751.87
9756.91
9763.82
9772.42
9782.49
9793.76
9805.92
9818.62
9831.48
9844.11
9856.02
9867.13
9876.91
9885.14
9891.61
9896.23
9898.95
9899.81
9898.92
9896.42
9892.53
9887.49
9881.56
9875.03
9868.16
9861.21
9854.41
9847.96
9842.02
9836.67
9831.95
9827.85
9824.38
9821.64
9819.56
9818.16
9817.21
9816.8
9828.65
9828.82
9829.74
9830.88
9832.7
9835.16
9838.44
9842.55
9847.35
9852.94
9859.24
9866.15
9873.52
9881.12
9888.69
9895.9
9902.42
9907.93
9912.13
9914.75
9915.57
9914.46
9911.32
9906.15
9899.02
9890.07
9879.49
9867.6
9854.53
9840.74
9826.56
9812.36
9798.49
9785.29
9773.08
9762.13
9752.73
9745.11
9739.47
9735.98
9734.76
9735.9
9739.41
9745.23
9753.23
9763.22
9774.95
9788.1
9802.31
9817.16
9832.22
9847.06
9860.98
9873.82
9885.1
9894.5
9901.78
9906.81
9909.55
9910.08
9908.53
9905.1
9900.05
9893.69
9886.34
9878.38
9870.11
9861.83
9853.83
9846.34
9839.55
9833.57
9828.41
9823.94
9820.15
9817.3
9815.21
9813.94
9813.01
9812.63
9823.34
9817.25
9824.91
9826.67
9828.16
9830.5
9833.96
9838.48
9843.74
9850.05
9857.29
9865.37
9874.12
9883.26
9892.49
9901.39
9909.55
9916.56
9922.04
9925.65
9927.14
9926.31
9923.06
9917.39
9909.38
9899.18
9887.04
9873.22
9858.23
9842.29
9825.87
9809.42
9793.35
9778.07
9763.94
9751.27
9740.38
9731.52
9724.95
9720.85
9719.34
9720.55
9724.52
9731.23
9740.51
9752.16
9765.87
9781.28
9797.96
9815.42
9833.12
9850.4
9866.96
9882.02
9895.14
9905.95
9914.16
9919.64
9922.36
9922.42
9920.01
9915.4
9908.91
9900.9
9891.75
9882.06
9872.07
9862.17
9852.72
9844
9836.24
9829.61
9824.04
9819.17
9815.02
9812.12
9810.21
9809.12
9804.48
9807.11
9816.15
9805.43
9812.8
9821.57
9822.59
9824.53
9828.12
9833.18
9839.1
9846.2
9854.5
9863.95
9874.33
9885.35
9896.62
9907.63
9917.84
9926.73
9933.81
9938.68
9940.99
9940.54
9937.18
9930.92
9921.84
9910.15
9896.14
9880.18
9862.73
9844.15
9825.03
9805.88
9787.22
9769.49
9753.1
9738.41
9725.77
9715.51
9707.86
9703.02
9701.13
9702.35
9706.79
9714.47
9725.24
9738.85
9754.92
9773.04
9792.7
9813.33
9834.31
9854.83
9874.34
9892.08
9907.43
9919.93
9929.23
9935.19
9937.8
9937.22
9933.7
9927.58
9919.3
9909.32
9898.12
9886.06
9873.94
9862.06
9850.88
9840.68
9831.75
9824.33
9818.25
9813.03
9808.47
9805.8
9804.43
9799.54
9788.28
9797.55
9811.39
9808.78
9808.41
9814.47
9815.56
9816.5
9820.08
9825.79
9832.76
9840.81
9850.53
9861.64
9873.97
9887.25
9901.03
9914.68
9927.46
9938.71
9947.79
9954.2
9957.56
9957.57
9954.1
9947.12
9936.77
9923.29
9907.03
9888.44
9868
9846.29
9823.92
9801.55
9779.81
9759.21
9740.19
9723.18
9708.59
9696.74
9687.86
9682.13
9679.7
9680.8
9685.66
9694.38
9706.86
9722.79
9741.69
9763.02
9786.24
9810.71
9835.6
9860.15
9883.36
9904.39
9922.47
9936.99
9947.54
9953.98
9956.35
9954.89
9949.95
9941.93
9931.41
9918.92
9905.04
9890.35
9875.51
9861.25
9848.01
9835.85
9825.06
9816.34
9809.86
9803.97
9799.78
9797.93
9796.89
9786.11
9781.15
9792.02
9796.93
9788.78
9799.28
9803.98
9805.93
9805.31
9807.97
9814.78
9823.49
9832.82
9844.41
9857.81
9872.66
9888.64
9905.47
9922.52
9938.64
9952.87
9964.42
9972.75
9977.39
9977.99
9974.37
9966.53
9954.61
9938.92
9919.92
9898.15
9874.15
9848.57
9822.27
9796.05
9770.69
9746.76
9724.75
9705.15
9688.42
9674.83
9664.53
9657.64
9654.38
9655.17
9660.34
9670.11
9684.49
9703.17
9725.51
9750.77
9778.26
9807.36
9837.14
9866.51
9894.31
9919.41
9940.81
9957.75
9969.76
9976.68
9978.65
9975.99
9969.2
9958.78
9945.47
9929.89
9912.67
9894.58
9876.66
9859.81
9843.86
9829.04
9815.88
9805.69
9799.12
9792.68
9788.56
9787.8
9786.47
9779.38
9762.53
9772.37
9768.15
9684.23
9700.06
9786.49
9793.56
9790.04
9790.58
9799.33
9811.37
9822.96
9836.26
9851.94
9869.55
9888.59
9909.15
9930.69
9951.41
9969.67
9984.38
9995.08
10001.3
10002.5
9998.73
9989.77
9975.83
9957.33
9934.87
9909.15
9880.77
9850.44
9819.44
9788.61
9759.04
9731.4
9706.17
9683.81
9664.78
9649.32
9637.39
9628.99
9624.41
9624.46
9629.72
9640.54
9656.99
9678.79
9705.23
9735.28
9768.06
9802.82
9838.43
9873.76
9907.24
9937.45
9963.07
9983.09
9996.9
10004.4
10005.7
10001.4
9992.24
9978.53
9961.55
9941.95
9920.32
9897.63
9875.72
9855.64
9837.43
9820.69
9805.82
9794.59
9786.3
9778.57
9774.53
9774.95
9772.87
9720.23
9666.55
9748.64
9756.32
9654.55
9654.68
9761.33
9779.11
9773.81
9771.42
9782.33
9799.24
9812.55
9827.44
9845.16
9865.46
9887.54
9912.49
9939.25
9965.92
9989.6
10008.5
10022.1
10030.1
10032.1
10028
10017.6
10001.2
9979.14
9952.34
9921.85
9888.14
9851.46
9815.09
9778.68
9744.17
9712.37
9683.52
9657.92
9636.21
9618.79
9605.41
9595.35
9588.46
9586.67
9591.54
9603.51
9622.56
9648.41
9680.13
9716.07
9754.94
9796.05
9838.93
9881.81
9922.58
9959.3
9990.26
10014.2
10030.3
10038.3
10038.5
10031.8
10019.5
10001.6
9979.94
9955.37
9928.71
9900.88
9874.65
9851.6
9830.98
9812.6
9797.01
9784.24
9772.52
9761.61
9755.24
9755.18
9755.55
9648.12
9646.78
9737.84
9760.68
9742.39
9654.66
9707.92
9736.06
9761.94
9757.54
9768.17
9785.82
9801.19
9817.91
9837.66
9860.78
9887.34
9917.62
9950.3
9983.31
10013.5
10036.6
10054.1
10064.5
10067.6
10063.3
10051.2
10031.4
10004.7
9972.83
9937.4
9898.97
9857.52
9811.41
9766.73
9726.05
9689.85
9657.31
9628.24
9603.96
9585.24
9571.17
9558.98
9547.93
9542.73
9546.56
9559.75
9581.67
9612.06
9650.16
9693.52
9739.78
9788.73
9840.1
9892.02
9941.69
9986.61
10024.2
10052.7
10071.3
10079.5
10077.8
10067.6
10049.9
10027.2
10000
9970.07
9938.58
9907.04
9876.53
9848.99
9824.85
9804.53
9788.52
9774.16
9758.62
9744.6
9738.47
9727.76
9697.81
9644.52
9717.91
9734.64
9767.63
9752.65
9703.04
9723.91
9765.44
9757.92
9746.25
9751.11
9766.59
9784.43
9804.15
9826.97
9853.78
9886.25
9923.57
9962.78
10000.5
10035.8
10067.5
10090.1
10103.4
10107.6
10102.7
10088
10063.5
10031.1
9994.04
9953.96
9909.19
9858.48
9803.88
9749.58
9702.94
9662.46
9624.72
9589.09
9530.47
9349.6
9203.37
9084.6
9007.36
8998.92
9087.38
9204.05
9337.33
9480.29
9600.29
9667.35
9721.23
9778.75
9840.05
9902.89
9963.36
10017.6
10062.3
10096
10117.7
10126.7
10123.2
10108.9
10085.4
10054.8
10020.7
9985.38
9949.65
9915.35
9881.96
9850.99
9823.18
9799.23
9779.94
9761.24
9742.68
9729.1
9730.92
9717.61
9685.72
9688.67
9719.76
9732.35
8394.35
8293
8636.82
8755.65
8469.03
7940
7399.44
7251.36
7494.73
7859.09
8206.99
8557.11
8897.42
9291.63
9704.01
9980.05
10024.2
10065.7
10104.5
10132.6
10149.8
10155.9
10152.1
10134.9
10102.1
10059.2
9978.43
9880.27
9813.16
9474.77
8582.87
7348.25
6513
5886.63
5244.65
4548.04
4083.53
4011.59
4064.08
3934.25
3455.66
3064.33
2939.23
3145.9
3577.65
4246.13
5109.33
6115.96
7020.68
7778.37
8546.15
9369.62
9902.97
10057.4
10112.6
10151.2
10174.2
10181.9
10175
10155
10125
10087.6
10053.4
10013.4
9970.82
9695.98
9326.88
8908.13
8496.1
8098.56
7685.46
7303.63
7081.61
7187.5
7652.86
8167.01
8426.7
8218.41
7879.84
7998.6
1773.82
1619.86
1302.72
977.144
716.809
610.78
689.194
759.749
802.49
867.769
1011.15
1261.58
1628.85
2130.96
2895.08
3860.73
4926.16
6005.33
6958.74
7646.96
8049.19
8219.74
8274.02
8111.75
7440.64
6355.72
5190.94
4194.33
3034.07
1898.08
1135.81
781.912
638.094
504.022
251.834
85.1728
39.5656
36.2447
43.6524
42.7503
26.2775
19.7113
14.224
9.93249
5.95598
4.21998
64.3489
229.732
512.278
974.04
1663.71
2804.26
4701.32
6763.4
8069.34
8740.38
9011.65
8990.04
8707.55
8178.46
7432.25
6558.97
5621.43
4619.61
3537.18
2738.69
2132.33
1633.55
1277.36
1028.53
827.257
657.596
528.731
440.721
424.729
563.878
795.64
976.056
1222.03
1311.03
0.70996
0.702144
0.687088
0.696701
0.761763
0.857997
1.41272
0.888067
0.909248
0.940968
0.981445
1.04353
1.56964
2.87145
6.87956
51.9966
181.591
400.515
706.197
993.303
1190.8
1262.79
1176.94
847.876
403.841
29.4227
0.453666
0.647827
1.09486
1.19196
1.30568
2.39001
5.91279
11.5398
16.4967
13.0476
8.33926
7.199
7.09582
7.23483
6.32407
4.52747
3.27971
2.46232
1.88215
1.78424
1.91563
1.9562
1.8905
1.7637
1.64386
1.64313
1.54592
2.10843
672.971
1208.99
1520.12
1568.42
1375.42
1050.41
710.38
414.976
206.377
61.6443
6.24048
4.22796
3.75922
2.8495
1.77327
1.58217
1.58607
1.61788
1.64983
1.67021
1.76579
2.1622
1.26546
1.33877
1.33445
1.32601
1.32747
1.02478
1.51546
1.59286
1.11798
0.890386
0.836644
0.856679
1.03735
1.45277
1.2561
1.02619
1.06656
1.29256
2.4444
0.240975
0.198462
0.244881
0.294236
0.363013
0.417612
0.481063
0.555577
0.604908
0.566717
0.440529
0.344608
0.565479
0.846708
0.99386
1.2379
3.80307
4.81303
4.40073
5.84862
5.27789
4.04637
3.89595
3.87796
3.88196
3.63049
2.52563
2.12612
1.82205
1.67626
1.71695
1.73077
1.70366
1.61507
1.44936
1.2559
1.10006
1.06147
1.20625
0.640443
0.392852
0.243129
0.453054
0.68265
0.985545
1.27282
1.53651
1.7074
1.59004
2.57031
3.4775
3.68894
3.69195
3.80903
3.68443
2.9819
2.63546
3.74652
3.57912
1.57611
1.19706
1.25593
1.31472
1.60685
1.59928
0.918382
0.507165
0.916323
1.55187
1.60043
0.807204
0.736842
0.811568
1.66995
1.90877
1.9517
0.974672
1.72017
3.30623
3.37792
0.89669
0.260399
0.261983
0.30872
0.389207
0.504371
0.765533
1.53805
1.60468
0.788864
0.662339
0.952238
0.848789
0.953434
1.04348
1.06962
2.09699
3.67534
3.63825
4.0867
3.69265
3.13529
3.04544
2.8545
2.77503
2.7206
2.15788
2.02673
1.90701
1.88251
3.2194
2.32989
1.56241
1.46347
1.34461
0.99389
0.900149
2.04728
2.03479
1.8499
1.03906
0.194553
1.53383
2.30118
2.45797
2.61479
2.68807
2.01286
1.33534
2.25174
3.90001
4.07528
4.16834
4.18576
4.34101
4.41331
4.39981
4.33977
4.29623
2.14405
1.12311
1.18505
1.39035
2.04194
1.5113
0.524133
0.477496
0.436664
1.31285
1.07121
0.60658
0.694253
0.770354
1.1757
1.60277
1.89565
1.10024
1.06593
3.24962
3.66016
3.54116
1.64662
0.408787
0.357363
0.445168
0.544069
0.623036
1.26532
1.78773
1.42653
0.848884
0.963341
2.32617
2.41838
2.51819
1.11627
0.859191
1.021
2.86513
4.0143
3.47122
2.8574
2.70181
2.53393
2.38952
2.13409
2.04188
1.90399
2.29435
3.12839
3.06304
3.0264
2.98587
2.59075
1.59078
0.749016
0.422518
0.364674
1.08728
1.02713
0.154576
0.251305
0.518943
0.531505
0.375119
0.458128
1.31411
1.90121
1.3404
0.740538
1.47795
3.56201
4.10879
4.19574
4.28311
3.23272
1.92126
1.97706
2.271
1.81196
1.05315
1.09932
1.55227
1.9654
1.68749
0.531705
0.498563
0.458922
0.449202
0.510216
0.618485
0.688584
0.705553
0.651043
0.629329
0.775085
1.16255
1.31516
1.22484
1.15948
3.2997
3.26271
3.29119
1.7474
0.692234
0.58124
0.609506
0.626248
1.44349
1.4976
0.983158
0.677963
1.24246
2.4433
2.57487
2.5704
0.851581
0.88469
1.03053
3.25632
4.07748
3.32126
2.55631
2.34727
2.38253
2.19222
2.56186
3.11118
3.06687
2.96404
2.87582
2.71206
2.501
2.49847
2.39495
0.603697
0.259331
0.194461
0.117347
0.0550776
0.025976
0.0202097
0.0348417
0.069371
0.11724
0.170969
0.219525
0.259896
0.308427
0.365024
0.304478
0.383809
1.5069
3.73047
4.19123
3.54357
2.89783
2.41755
1.74389
1.23564
0.974994
1.00241
1.08777
1.90482
1.948
0.540502
0.517398
0.48684
0.490999
0.54465
0.635672
0.695007
0.691431
0.628176
0.579272
0.55382
0.584836
0.9934
1.10421
1.13011
1.04988
1.44725
3.38634
2.81571
2.04208
1.43046
0.551769
0.535351
0.530666
1.28562
1.1746
0.665457
0.402908
1.4765
2.6297
2.54953
0.789483
0.854466
0.983529
3.41025
3.9695
3.82841
2.22577
2.17629
2.17952
2.53388
3.21969
3.05631
2.91053
2.80547
1.11864
0.114938
0.175461
1.30434
1.24161
0.202426
0.132108
0.104323
0.0667231
0.0314723
0.0112208
0.00853299
0.0245565
0.0562692
0.0998465
0.149969
0.201436
0.233822
0.23945
0.209913
0.14767
0.103648
0.0792928
0.0711748
0.605522
4.85207
5.29149
5.43166
3.40554
0.88255
0.861782
0.883228
0.896563
1.44111
1.89618
0.524098
0.510366
0.4854
0.474564
0.525401
0.73406
1.21088
1.28981
0.68282
0.5115
0.480786
0.452873
0.891934
1.54115
1.44557
1.02273
1.0685
1.59036
2.59845
2.46436
2.03689
0.618915
0.434269
0.440224
0.47802
0.872454
0.799221
0.459927
0.657431
2.73178
1.35174
0.808741
0.838197
1.02629
3.53941
3.86966
3.42221
1.86008
1.97265
2.02524
3.37427
3.15568
2.95494
1.4271
0.119964
0.091945
0.0685693
0.0194677
-0.00336866
-0.0063368
0.0498291
0.0212434
0.00721756
-0.0038803
-0.0176882
-0.0270773
-0.0251969
-0.0091952
0.0187816
0.0585267
0.102451
0.199685
0.238816
0.169296
0.116999
0.0662326
0.0212945
-0.0137027
-0.0286196
0.000614973
3.68452
5.29153
5.45333
5.56637
1.54547
0.70811
0.729491
0.768576
0.814174
1.06266
0.484643
0.470982
0.446717
0.412945
0.74187
2.08379
2.33854
2.36897
1.50796
0.452333
0.411316
0.386863
0.338805
1.27143
1.42095
0.781579
1.11139
2.04061
2.34637
2.07077
1.1166
0.410378
0.379556
0.413152
0.435983
0.46348
0.534042
0.51629
0.540571
2.81367
1.57902
0.84551
0.853625
1.17032
3.70541
3.81709
2.95848
1.758
1.74979
2.47125
3.33361
3.10632
0.541409
0.0837931
0.0841751
0.0990579
0.0999362
0.0601021
-0.0736769
-0.0951702
-0.0939331
-0.0905761
-0.0888242
-0.0868053
-0.0855897
-0.0834909
-0.0753155
-0.0587165
-0.0350474
-0.00664267
0.070686
0.741776
0.888908
0.43881
0.0211342
-0.0309682
-0.0757512
-0.118232
-0.132742
0.783984
4.8623
5.29584
5.43051
5.51769
2.20631
0.513028
0.55185
0.61953
0.788288
0.884596
0.429508
0.412995
0.371465
0.394383
1.74566
2.11466
2.25625
2.34055
2.3474
0.670172
0.346747
0.332128
0.291642
0.271899
0.740501
0.746926
0.927295
1.03652
0.855079
0.422454
0.255808
0.324994
0.37755
0.422958
0.456574
0.477946
0.494179
0.52766
0.583196
2.42276
2.11837
0.879144
0.86375
1.18105
3.68288
3.74829
1.67608
1.59329
1.65186
3.48207
3.3231
2.80896
-0.0239916
-0.0353384
-0.0075894
0.184724
1.29546
1.36894
0.101964
-0.194487
-0.198401
-0.189548
-0.181179
-0.173208
-0.162862
-0.150223
-0.137877
-0.119915
-0.100778
-0.0811118
0.593777
0.867009
0.837424
0.774642
-0.0214227
-0.139453
-0.185403
-0.231956
0.404047
4.58305
5.14207
5.24092
5.33501
5.41433
3.14853
0.310349
0.378235
0.614544
1.59188
0.865611
0.375148
0.348757
0.297006
0.28006
1.34883
1.61007
0.774026
1.66563
2.3198
1.0016
0.288764
0.28468
0.252794
0.207672
0.154624
0.114121
0.128093
0.125781
0.137674
0.187364
0.26345
0.339817
0.402985
0.450293
0.482944
0.501546
0.514916
0.540934
0.59002
0.969617
2.24937
1.31995
0.854613
0.903936
2.52935
3.16445
1.21716
1.35713
3.5023
3.40681
3.21899
3.02581
0.30257
-0.275299
-0.163175
1.54395
2.05523
2.04876
1.68213
-0.30721
-0.309573
-0.292937
-0.276198
-0.260864
-0.244114
-0.225504
-0.206937
-0.189661
-0.175852
-0.145252
0.793725
0.766737
0.725557
0.522062
-0.135903
-0.246788
-0.307562
0.158734
4.60638
5.05055
5.05659
5.1037
5.18073
5.27657
2.54045
0.126968
0.216143
1.42718
1.46932
0.783141
0.333559
0.297449
0.247665
0.190776
0.284184
0.0857081
0.147101
0.20424
2.30909
1.38882
0.237651
0.240151
0.218195
0.190857
0.178804
0.1792
0.16832
0.150896
0.166533
0.207678
0.283295
0.363436
0.429031
0.472953
0.500619
0.512307
0.519623
0.535635
0.572214
0.632265
2.25867
2.24419
0.824829
0.805301
0.781765
0.858875
0.892551
1.35829
3.4572
3.15339
3.15277
2.68846
-0.293968
-0.568074
0.697276
1.75398
1.79514
1.83596
1.8731
0.857598
-0.432765
-0.406686
-0.379989
-0.353615
-0.328742
-0.304238
-0.282398
-0.266182
-0.258297
-0.152594
0.71004
0.662828
0.552197
0.0156234
-0.21915
-0.0224549
1.29761
5.01622
4.96768
4.90071
4.87635
4.91274
5.01464
5.14131
0.408489
0.0792488
1.0571
1.31408
1.27794
0.51024
0.316323
0.268811
0.227603
0.168646
0.112755
0.10306
0.14013
0.18402
2.27832
1.63467
0.202496
0.203628
0.189522
0.214449
0.361418
0.370455
0.3643
0.25538
0.158992
0.207573
0.287978
0.602738
1.54405
1.60186
1.44049
0.783483
0.50586
0.508349
0.527653
0.55204
1.98734
1.85097
0.785907
0.719135
0.675379
0.564539
0.849117
3.54985
3.20766
2.95138
2.79698
2.59733
-0.419916
-0.770672
0.897454
1.41051
1.45263
1.51198
1.59165
1.73034
-0.427947
-0.532294
-0.493549
-0.452667
-0.417895
-0.387647
-0.362695
-0.347231
-0.3456
-0.241017
0.624465
0.56
-0.0355208
-0.117212
0.991602
4.12535
4.86077
4.74713
4.7032
4.7435
4.76273
4.82573
4.31215
0.605744
0.226213
0.613675
1.20548
1.14878
0.30298
0.425257
0.307916
0.26115
0.230981
0.190991
0.155907
0.145886
0.161007
0.178115
1.6464
1.43816
0.166104
0.176376
0.184241
0.363462
0.369841
0.349892
0.337066
0.143681
0.116729
0.155439
2.34564
3.8547
3.91581
3.85768
3.83274
3.78053
3.64098
1.37797
0.436183
0.462559
0.587721
0.609987
0.619539
0.585483
1.00172
0.619954
1.06075
3.44246
3.05833
2.7773
2.60915
2.52881
0.39994
-0.870926
0.304277
1.06951
1.07947
0.681471
1.26451
1.5569
1.56112
-0.672405
-0.614734
-0.556821
-0.509877
-0.47309
-0.444479
-0.428783
-0.431346
-0.419075
0.529922
0.470213
-0.186391
-0.0558162
3.34522
4.391
4.50106
4.5021
2.95604
0.235677
1.10423
1.07989
0.158668
0.440867
0.887179
1.26517
0.985866
0.204739
0.270017
0.631052
0.302854
0.313145
0.259141
0.2172
0.197897
0.227122
0.219109
0.188726
0.351735
0.705865
0.153594
0.159081
0.196642
0.382195
0.361449
0.234219
0.12713
0.0985298
0.21056
3.09909
3.72622
3.79928
2.48
0.342407
0.539218
0.702702
3.01066
3.02469
2.20134
0.323617
0.396715
0.393204
0.346291
0.395815
1.24649
1.18043
0.949813
3.36486
2.96023
2.64201
2.45172
2.38792
1.95703
-0.977413
-0.689985
0.766799
0.099813
-1.32841
-0.487855
1.43853
1.88343
-0.397936
-0.737645
-0.662423
-0.601471
-0.556555
-0.523315
-0.505495
-0.507608
-0.527508
-0.247562
0.415567
-0.268364
0.0694543
-0.744443
0.405569
2.53811
-0.402419
-0.426067
-0.253378
-0.0644211
0.0460527
0.170628
1.2142
1.40012
1.40562
0.18753
0.223901
0.407955
1.11831
0.271795
0.31771
0.309446
0.257317
0.248975
0.283289
0.257187
0.215581
0.175687
0.338137
0.152176
0.149765
0.193078
0.382615
0.288591
0.093759
0.0663631
0.0866913
2.28856
3.51334
3.61389
2.73558
0.176693
0.220822
0.257134
0.260967
0.232721
2.34526
2.42491
1.36568
0.212441
0.198179
0.162074
0.102863
1.10942
1.00055
0.512731
1.73318
2.88901
2.56285
2.3497
2.27393
2.25085
-0.93261
-1.33113
0.508054
-1.09643
-1.592
-1.385
1.33276
1.77976
1.44151
-0.85627
-0.763543
-0.688103
-0.633537
-0.594439
-0.571893
-0.56908
-0.590546
-0.536592
0.401316
-0.28038
-0.490902
-0.640504
-0.769642
-0.858377
-0.829095
0.791559
2.10535
2.30756
2.37557
0.93458
0.49713
1.48045
1.08095
0.241585
0.507448
1.13266
1.07474
0.25793
0.277999
0.268581
0.260335
0.303427
0.302125
0.23893
0.205313
0.192037
0.229911
0.153542
0.144811
0.161529
0.321584
0.262508
0.0923951
0.0424661
0.0263898
1.52208
2.42081
1.80104
0.491568
0.110365
0.186607
1.27485
0.15657
0.112379
0.0536239
2.26597
2.23019
0.2126
0.00272265
-0.0301317
-0.104227
0.189677
0.836894
0.441435
0.136201
2.91037
2.56143
2.3244
2.21888
2.2129
-1.18215
-1.7656
0.258611
-1.14853
-1.73797
-1.55776
-0.258346
1.69389
1.82913
-0.963185
-0.853276
-0.764203
-0.699699
-0.653596
-0.624528
-0.614498
-0.627682
-0.567096
0.368136
0.131208
-0.38807
-0.459338
-0.55152
-0.627318
1.29225
2.00973
2.17761
2.36547
2.43602
2.43461
-0.117746
1.23479
1.53819
0.296797
1.10716
1.15707
0.0368313
0.241829
0.245982
0.244278
0.260687
0.300371
0.282433
0.226994
0.202363
0.188051
0.179188
0.152645
0.141271
0.167704
0.31375
0.264347
0.0858581
0.0275304
-0.0330686
-0.109988
-0.0817558
0.28269
0.634565
0.400487
1.14007
1.64089
0.117087
0.01676
-0.0497835
0.885985
2.02878
1.5683
-0.142359
-0.203986
-0.267276
-0.383571
0.704926
0.396468
0.273801
2.65838
2.64578
2.39573
2.25231
1.93863
-1.50431
-1.98364
-1.71934
-0.575413
-1.79144
-1.62616
-0.358398
1.65624
1.7662
-1.04849
-0.925495
-0.824853
-0.751322
-0.697741
-0.66168
-0.643924
-0.646845
-0.64338
-0.400675
0.157038
-0.279384
-0.316202
-0.402508
-0.250086
2.02069
2.02689
2.17278
2.33853
1.54663
1.03869
-0.207221
0.897822
1.72711
0.31397
1.10859
1.16631
-0.431827
0.225905
0.227489
0.226891
0.282435
0.284029
0.224559
0.212635
0.194561
0.177427
0.162149
0.14833
0.136324
0.144195
0.296516
0.276617
0.0789821
0.0223514
-0.0574666
0.203043
2.15017
2.13949
2.16334
1.18465
1.61418
1.61797
0.0657563
-0.0182358
0.214051
-0.196471
1.58853
1.50596
-0.159662
-0.336124
-0.394479
-0.500848
0.550449
0.681541
0.471248
-0.0640627
1.23347
1.1445
-0.666191
-1.26275
-1.88417
-1.9657
-0.777677
-0.387912
-1.77121
-1.59079
-0.598476
1.67203
1.93768
-1.10518
-0.976059
-0.867036
-0.785844
-0.725206
-0.682587
-0.657696
-0.651759
-0.661597
-0.645239
0.159038
0.172453
-0.246387
-0.330889
-0.507319
-0.56072
1.10031
2.23761
2.36898
-0.420921
-0.543502
-0.3341
1.72457
1.83238
0.3529
1.1174
0.47259
-0.467601
0.210401
0.21417
0.213504
0.261484
0.226227
0.203894
0.193961
0.180827
0.166994
0.153341
0.140802
0.129163
0.118003
0.167405
0.260461
0.137702
0.034095
-0.0526202
1.99529
2.18381
1.72204
0.253546
-0.175237
0.340064
1.62392
0.784317
-0.130416
0.207289
-0.238689
-0.252075
1.12334
0.61442
-0.416961
-0.475518
-0.570929
-0.255772
0.516823
0.0931876
-1.00242
-1.1348
-1.396
-1.65327
-1.79183
-1.85267
-1.90691
-0.282926
0.0919825
-1.0878
-1.26335
-0.76211
1.73103
2.0682
-0.694505
-1.00501
-0.889779
-0.802057
-0.735323
-0.687007
-0.65642
-0.644355
-0.650069
-0.659247
-0.0400812
0.722985
0.319384
-0.297398
-0.434781
-0.554586
-0.597198
2.23713
2.40672
-0.222879
-0.539452
-0.353882
1.80364
1.9105
1.7398
0.151393
-0.479873
-0.469281
0.194619
0.21156
0.209469
0.190971
0.188527
0.183515
0.175352
0.165151
0.153849
0.142202
0.130922
0.119846
0.108631
0.0963277
0.0945713
0.109375
0.0353434
-0.00810205
0.449468
0.117776
-0.193056
-0.180982
-0.17187
-0.170613
0.799063
2.06009
-0.0929715
0.2026
0.087958
-0.282316
-0.190043
0.507098
-0.174666
-0.511592
-0.598582
-0.716624
-0.193398
-0.771049
-1.02813
-1.1982
-1.37841
-1.51734
-1.6508
-1.72887
-1.78994
-0.732094
0.504918
1.83088
1.78539
-0.685338
1.76889
2.15281
-0.503506
-1.01377
-0.893022
-0.799812
-0.728059
-0.674931
-0.639743
-0.623125
-0.626645
-0.647224
-0.632895
0.67098
0.877082
0.839035
0.249425
0.0563399
1.19269
2.23073
2.27189
-0.386214
-0.496279
1.19302
1.89313
2.00974
2.09278
-0.454806
-0.443663
-0.166628
0.178617
0.193084
0.193886
0.173388
0.170459
0.165435
0.158422
0.149855
0.140203
0.129956
0.119528
0.10887
0.0978073
0.0857995
0.0715111
0.0517112
0.0245786
-0.00456918
-0.0761441
-0.118271
-0.143611
-0.159779
-0.1709
-0.173476
0.846361
2.11456
-0.120362
-0.137296
1.08277
-0.241609
-0.271969
-0.187715
-0.151256
-0.449703
-0.594397
-0.698347
-0.796955
-0.89001
-0.996261
-1.11414
-1.245
-1.35743
-1.47458
-1.57087
-1.64734
-1.51606
1.93426
1.98754
2.06815
-0.616308
1.59449
2.3109
-0.430154
-1.00241
-0.877328
-0.779746
-0.704118
-0.647041
-0.607765
-0.586562
-0.586017
-0.608347
-0.650937
-0.70703
0.436114
1.4002
1.69654
1.69953
1.69082
1.60557
0.208644
-0.889751
0.313871
1.91447
2.01832
2.12747
1.13066
-0.449056
-0.360858
0.652206
0.162988
0.161919
0.172388
0.157642
0.154192
0.149248
0.142883
0.135246
0.126597
0.117234
0.107419
0.0970236
0.0859703
0.0738772
0.0605184
0.0432159
0.0204973
-0.00874864
-0.0459998
-0.0845969
-0.118975
-0.148643
-0.169654
-0.175544
1.74927
2.16318
-0.184031
-0.258656
1.18195
1.24114
-0.185681
-0.308893
-0.2623
-0.459516
-0.566442
-0.661325
-0.764586
-0.866966
-0.95161
-1.02642
-1.11322
-1.21528
-1.31013
-1.4051
-1.49717
-1.59087
2.0347
2.1663
0.369185
-0.439768
2.19278
2.42786
-0.293766
-0.9718
-0.844154
-0.743365
-0.66514
-0.605244
-0.562603
-0.536667
-0.529259
-0.544478
-0.584617
-0.646462
-0.725296
-0.815794
-0.786287
-0.564076
-0.490061
-0.94444
-0.839354
-0.883892
0.404331
2.03376
2.17841
1.66859
-0.431063
-0.432749
-0.215653
0.680058
0.148208
0.147226
0.145351
0.143764
0.139276
0.134398
0.128441
0.121389
0.113398
0.104625
0.0952891
0.0850381
0.0740423
0.0620955
0.0485818
0.0324874
0.0128102
-0.0113463
-0.0403203
-0.0719048
-0.106004
-0.139142
-0.164277
-0.163405
2.21947
2.2064
-0.264052
-0.315921
0.333167
1.5191
1.40032
-0.314312
-0.397888
-0.450282
-0.521108
-0.609714
-0.588098
-0.771558
-0.816057
-0.892681
-0.971885
-0.442147
0.523598
-1.10637