/*--------------------------------*- C++ -*----------------------------------*\
| =========                 |                                                 |
| \\      /  F ield         | OpenFOAM: The Open Source CFD Toolbox           |
|  \\    /   O peration     | Version:  2412                                  |
|   \\  /    A nd           | Website:  www.openfoam.com                      |
|    \\/     M anipulation  |                                                 |
\*---------------------------------------------------------------------------*/
FoamFile
{
    version     2.0;
    format      ascii;
    arch        "LSB;label=32;scalar=64";
    class       volScalarField;
    location    "1.1";
    object      p;
}
// * * * * * * * * * * * * * * * * * * * * * * * * * * * * * * * * * * * * * //

dimensions      [1 -1 -2 0 0 0 0];

internalField   nonuniform List<scalar> 
6400
(
23511.1
23518.2
23517.4
23515.5
23517.5
23525
23535.2
23546.1
23557.9
23570.2
23583.2
23597.4
23612.7
23628.9
23646.1
23664.3
23683.3
23702.9
23723.2
23744
23765.2
23786.3
23807
23827.1
23846.3
23864.6
23881.7
23897.3
23911.1
23922.8
23932.3
23939.7
23945.1
23949.1
23951.9
23954
23955.5
23956.5
23957
23956.8
23955.9
23954.2
23951.4
23947.7
23942.9
23937.2
23930.9
23924.1
23917.1
23909.9
23902.4
23894.5
23885.7
23875.7
23864.1
23850.6
23835
23817.1
23796.7
23773.8
23748.2
23720
23689.5
23657
23623.3
23588.9
23554.7
23521
23488.3
23456.4
23425.4
23394.7
23364.5
23335
23307.2
23282.3
23261.8
23246.2
23235.7
23230.4
22265.4
22279.8
22287.3
22289.2
22290.7
22296.3
22305.2
22315.9
22328
22341
22354.7
22369.4
22385
22401.5
22419
22437.7
22457.3
22477.6
22498.2
22519.1
22540
22561
22581.9
22602.4
22622.1
22640.8
22658
22673.7
22687.5
22699.2
22708.8
22716.3
22722
22726.1
22729
22731
22732.4
22733.3
22733.6
22733.4
22732.3
22730.4
22727.5
22723.6
22718.6
22712.9
22706.5
22699.6
22692.3
22684.8
22677
22668.5
22659.1
22648.6
22636.5
22622.7
22606.8
22588.8
22568.3
22545.3
22519.5
22491.2
22460.4
22427.7
22393.7
22359.1
22324.7
22290.8
22257.9
22225.8
22194.6
22164.2
22134.6
22105.9
22078.9
22054.7
22034.7
22019.8
22012
22017.1
21034.8
21049
21060.4
21066
21069.3
21074.9
21083.4
21093.8
21106
21119.3
21133.1
21148
21163.6
21179.7
21196.5
21214.2
21233.1
21253
21273.2
21293.5
21313.6
21333.7
21353.8
21373.9
21393.6
21412.4
21430
21445.9
21460
21472
21481.8
21489.7
21495.6
21500
21503.1
21505.3
21506.8
21507.7
21508.1
21507.8
21506.7
21504.6
21501.5
21497.4
21492.2
21486.3
21479.7
21472.7
21465.4
21457.7
21449.7
21441
21431.4
21420.6
21408.3
21394.3
21378.3
21360.2
21339.6
21316.5
21290.7
21262.3
21231.6
21199
21165.3
21131.2
21097.5
21064.6
21032.8
21002.2
20972.6
20944
20916.4
20890
20865.4
20843.4
20825
20810.9
20803.6
20811.4
19813.3
19822.2
19833.3
19841
19846.6
19853.7
19862.8
19873.6
19885.8
19898.9
19912.5
19927.3
19943.1
19959.4
19975.6
19992.2
20009.9
20028.8
20048.5
20068.2
20087.6
20106.7
20125.9
20145.2
20164.3
20182.9
20200.3
20216.3
20230.4
20242.6
20252.7
20260.8
20267.1
20271.7
20275
20277.3
20278.8
20279.8
20280.2
20279.9
20278.8
20276.7
20273.5
20269.2
20264
20258
20251.4
20244.5
20237.2
20229.6
20221.5
20212.6
20202.7
20191.6
20179.1
20165
20149
20130.9
20110.6
20087.7
20062.2
20034.1
20003.7
19971.7
19938.7
19905.4
19872.5
19840.7
19810.1
19780.9
19753
19726.4
19701.1
19677.5
19655.9
19636.6
19620.2
19607.1
19600.1
19608.9
18597.9
18601.8
18610.1
18617.7
18624.4
18632.7
18642.7
18654.3
18667.1
18680.1
18693.1
18707
18722.5
18739
18755.5
18771.9
18788.4
18805.9
18824.2
18842.9
18861.3
18879.4
18897.5
18915.7
18933.9
18951.7
18968.6
18984.1
18998
19010.1
19020.2
19028.4
19034.7
19039.5
19042.9
19045.3
19046.9
19048
19048.4
19048.2
19047.1
19045.1
19042.1
19038.1
19033.3
19027.7
19021.5
19015
19008.1
19000.7
18992.7
18983.8
18973.8
18962.6
18950
18935.8
18920
18902.2
18882.3
18859.9
18835
18807.5
18777.9
18746.7
18714.6
18682.4
18650.6
18619.6
18589.8
18561.4
18534.6
18509.6
18486.5
18465.6
18446.8
18430.1
18415.7
18403.7
18397.2
18406.8
17383.4
17385.1
17390.8
17397.7
17404.8
17413.5
17423.7
17435.6
17449
17462.5
17475.3
17488.1
17502.3
17518.2
17535
17551.6
17567.9
17584.4
17601.4
17618.7
17635.9
17652.8
17669.7
17686.6
17703.5
17720.1
17735.9
17750.6
17763.8
17775.3
17785
17792.9
17799.1
17803.7
17807.2
17809.7
17811.5
17812.7
17813.3
17813.3
17812.4
17810.7
17808.1
17804.5
17800.2
17795.1
17789.5
17783.4
17776.8
17769.6
17761.7
17752.8
17742.8
17731.6
17719.1
17705.2
17689.8
17672.8
17653.8
17632.5
17608.7
17582.4
17553.9
17523.9
17493.1
17462.3
17431.8
17402.1
17373.3
17345.8
17319.9
17296
17274.5
17255.5
17238.7
17224
17211.2
17200
17194.2
17203.7
16171
16172
16176.3
16182.5
16189.8
16198.5
16208.4
16219.5
16232.6
16246.5
16259.7
16271.9
16284.7
16299.2
16315.3
16332
16348.4
16364.5
16380.6
16396.8
16412.9
16428.8
16444.6
16460.4
16476
16491.2
16505.7
16519.3
16531.5
16542.2
16551.2
16558.5
16564.3
16568.8
16572.2
16574.8
16576.9
16578.4
16579.3
16579.6
16579.2
16578
16575.9
16573
16569.3
16564.9
16559.9
16554.3
16547.9
16540.8
16532.8
16523.7
16513.5
16502.2
16489.8
16476.2
16461.5
16445.2
16427.3
16407.3
16384.9
16360
16332.9
16304.3
16274.8
16245.3
16216.3
16188.1
16160.7
16134.5
16109.6
16086.7
16066.3
16048.3
16032.7
16019.3
16007.7
15997.4
15992.1
16000.8
14961.6
14962.7
14966.3
14972
14979.2
14988
14997.3
15007
15018.7
15032.2
15045.8
15058.4
15070.7
15084
15098.9
15114.8
15130.9
15146.8
15162.5
15178
15193.3
15208.3
15223.2
15238
15252.5
15266.6
15279.9
15292.4
15303.6
15313.4
15321.6
15328.4
15333.7
15337.9
15341.2
15344
15346.2
15348.1
15349.4
15350.1
15350.2
15349.6
15348.1
15345.9
15342.8
15339.1
15334.6
15329.4
15323.3
15316.2
15307.9
15298.5
15288
15276.5
15264.2
15250.9
15236.7
15221.3
15204.5
15185.7
15164.7
15141.5
15116
15088.9
15060.8
15032.6
15004.7
14977.7
14951.8
14926.9
14903.4
14881.6
14861.9
14844.5
14829.3
14816.7
14806.2
14797.1
14792.1
14800
13755.4
13756.6
13759.9
13764.7
13771.3
13779.8
13788.6
13797
13806.6
13818.4
13831.8
13844.9
13857.6
13870.7
13884.8
13899.7
13915
13930.2
13945.3
13960.1
13974.7
13989
14003
14016.9
14030.4
14043.4
14055.7
14067
14077.3
14086.2
14093.8
14099.9
14104.9
14108.9
14112.2
14115
14117.5
14119.6
14121.2
14122.3
14122.8
14122.6
14121.7
14119.9
14117.5
14114.2
14110.3
14105.4
14099.5
14092.5
14084.1
14074.6
14063.9
14052.5
14040.3
14027.7
14014.3
14000
13984.3
13966.9
13947.4
13925.7
13902
13876.8
13850.4
13823.7
13797.2
13771.3
13746.3
13722.4
13699.9
13679
13659.9
13642.7
13627.8
13615.6
13606
13598
13593.3
13601.3
12552.5
12553.7
12556.7
12560.5
12565.6
12573.1
12581.4
12589
12596.8
12606.5
12618.3
12631.1
12644.1
12657.4
12671.1
12685.3
12699.5
12713.7
12727.7
12741.5
12755.1
12768.3
12781.3
12794
12806.3
12818.1
12829.1
12839.2
12848.4
12856.3
12863.1
12868.8
12873.4
12877.2
12880.5
12883.4
12886
12888.3
12890.2
12891.6
12892.5
12892.6
12892.1
12890.8
12888.9
12886.3
12882.9
12878.6
12873.2
12866.5
12858.5
12849.2
12839
12828
12816.6
12805
12792.9
12780.1
12766
12750.1
12732.1
12712
12689.9
12666.4
12641.9
12617
12592.1
12567.5
12543.5
12520.2
12498
12477.3
12458.4
12441.4
12426.5
12414.5
12405.3
12398.1
12394.3
12402.7
11352.8
11353.7
11356.5
11359.5
11362.6
11368.2
11375.5
11382.8
11389.7
11397.5
11407.1
11418.4
11430.7
11443.7
11457
11470.4
11483.7
11496.7
11509.5
11522
11534.3
11546.3
11558
11569.3
11580.2
11590.5
11600.2
11609.1
11617
11624
11629.9
11634.9
11639.1
11642.7
11645.8
11648.7
11651.3
11653.6
11655.6
11657.1
11658.1
11658.5
11658.3
11657.5
11656.3
11654.4
11651.9
11648.5
11644
11638.1
11630.9
11622.5
11613.1
11603.2
11593
11582.7
11572.2
11561.2
11548.9
11534.8
11518.4
11499.7
11479
11457
11434.1
11410.9
11387.9
11365.1
11342.4
11319.9
11297.8
11276.9
11257.9
11241.1
11226.6
11214.6
11205.5
11198.8
11196
11204.5
10155.1
10155.7
10158.5
10161
10162.4
10165.5
10170.9
10177.5
10184.2
10191.3
10199.4
10208.9
10219.7
10231.6
10244
10256.5
10268.8
10280.8
10292.5
10303.9
10315
10325.9
10336.4
10346.6
10356.3
10365.5
10374.1
10381.9
10389
10395.1
10400.3
10404.7
10408.4
10411.6
10414.4
10416.9
10419.2
10421.1
10422.7
10423.9
10424.5
10424.7
10424.5
10424.1
10423.4
10422.3
10420.8
10418.4
10414.9
10410.1
10403.9
10396.6
10388.5
10379.8
10371
10362.1
10353
10343.5
10332.8
10320.4
10305.7
10288.6
10269.4
10248.6
10227
10205.4
10184.1
10163.4
10142.7
10121.7
10100.4
10079.8
10061
10044.9
10031.2
10019.9
10010.9
10004.5
10002.5
10010.2
8958.38
8958.75
8961.38
8963.86
8964.64
8965.63
8968.52
8973.48
8979.81
8986.82
8994.46
9002.89
9012.39
9022.87
9034.02
9045.35
9056.56
9067.52
9078.25
9088.78
9099.11
9109.18
9118.95
9128.36
9137.36
9145.89
9153.87
9161.19
9167.75
9173.45
9178.25
9182.21
9185.46
9188.17
9190.47
9192.43
9194.03
9195.22
9195.94
9196.17
9195.97
9195.48
9194.85
9194.25
9193.73
9193.19
9192.34
9190.81
9188.23
9184.4
9179.33
9173.21
9166.35
9159.05
9151.53
9143.87
9135.95
9127.47
9117.93
9106.77
9093.54
9078.06
9060.53
9041.42
9021.37
9001.14
8981.48
8962.68
8944.36
8925.72
8906.43
8887.19
8869.55
8854.63
8842.36
8832.12
8823.84
8818.19
8816.55
8823.6
7762.13
7761.9
7764.06
7766.59
7767.58
7767.73
7768.58
7771.48
7776.51
7783.11
7790.53
7798.58
7807.26
7816.62
7826.42
7836.42
7846.38
7856.23
7865.94
7875.56
7885.04
7894.37
7903.46
7912.26
7920.72
7928.76
7936.31
7943.28
7949.53
7954.94
7959.46
7963.1
7965.97
7968.21
7969.92
7971.15
7971.86
7972.02
7971.6
7970.67
7969.36
7967.92
7966.6
7965.61
7965.03
7964.72
7964.36
7963.51
7961.77
7958.9
7954.92
7950.03
7944.54
7938.73
7932.71
7926.45
7919.71
7912.15
7903.4
7893.12
7881.06
7867.2
7851.67
7834.76
7816.84
7798.53
7780.55
7763.44
7747.12
7731
7714.43
7697.68
7681.96
7668.63
7657.86
7649.06
7641.94
7637.27
7635.83
7642.93
6566.52
6565.1
6566.28
6568.34
6569.88
6570.33
6570.53
6571.85
6575.3
6580.71
6587.52
6595.07
6603.14
6611.51
6620.1
6628.71
6637.33
6645.9
6654.44
6662.95
6671.41
6679.77
6688.01
6696.04
6703.8
6711.22
6718.22
6724.67
6730.46
6735.46
6739.58
6742.82
6745.26
6746.97
6748.03
6748.45
6748.21
6747.3
6745.77
6743.74
6741.45
6739.19
6737.29
6735.97
6735.31
6735.17
6735.21
6734.97
6734.04
6732.14
6729.27
6725.6
6721.47
6717.16
6712.75
6708.07
6702.74
6696.31
6688.41
6678.89
6667.82
6655.44
6642.02
6627.7
6612.63
6597.01
6581.3
6565.97
6551.38
6537.41
6523.64
6509.83
6496.63
6485.04
6475.71
6468.26
6462.4
6458.42
6456.85
6463.69
5371.98
5369.25
5369.05
5369.98
5371.47
5372.66
5373.37
5374.44
5376.81
5380.94
5386.52
5393.12
5400.23
5407.57
5414.9
5422.21
5429.48
5436.78
5444.13
5451.52
5458.9
5466.26
5473.53
5480.67
5487.62
5494.28
5500.56
5506.35
5511.51
5515.93
5519.54
5522.32
5524.28
5525.47
5525.91
5525.6
5524.54
5522.76
5520.36
5517.55
5514.61
5511.86
5509.63
5508.14
5507.43
5507.37
5507.64
5507.82
5507.5
5506.4
5504.45
5501.78
5498.71
5495.53
5492.35
5488.99
5484.97
5479.73
5472.83
5464.2
5454.11
5443.08
5431.58
5419.87
5407.92
5395.67
5383.06
5370.29
5357.73
5345.82
5334.6
5323.83
5313.48
5303.99
5296.21
5290.1
5285.36
5281.71
5279.47
5284.59
4177.59
4174.68
4173.41
4172.81
4173.46
4174.75
4176.16
4177.69
4179.9
4183.14
4187.55
4192.83
4198.66
4204.65
4210.64
4216.54
4222.46
4228.46
4234.6
4240.83
4247.12
4253.41
4259.65
4265.78
4271.76
4277.5
4282.9
4287.84
4292.22
4295.92
4298.91
4301.14
4302.63
4303.36
4303.32
4302.51
4300.92
4298.63
4295.8
4292.66
4289.51
4286.68
4284.43
4282.96
4282.26
4282.2
4282.51
4282.83
4282.83
4282.26
4280.98
4279.09
4276.79
4274.38
4271.98
4269.45
4266.36
4262.16
4256.41
4248.98
4240.18
4230.63
4220.96
4211.54
4202.49
4193.62
4184.61
4175.18
4165.49
4156.02
4147.32
4139.34
4131.93
4124.8
4118.79
4114.08
4110.34
4106.99
4103.86
4105.81
2982.08
2980.93
2979.19
2977.42
2976.92
2977.73
2979.27
2981.23
2983.52
2986.33
2989.73
2993.71
2998.01
3002.45
3006.82
3011.16
3015.5
3019.98
3024.62
3029.42
3034.31
3039.23
3044.12
3048.94
3053.63
3058.14
3062.38
3066.23
3069.59
3072.39
3074.6
3076.19
3077.17
3077.52
3077.2
3076.19
3074.5
3072.2
3069.45
3066.5
3063.63
3061.13
3059.21
3058.01
3057.47
3057.47
3057.74
3058.05
3058.16
3057.89
3057.13
3055.89
3054.31
3052.57
3050.78
3048.87
3046.55
3043.42
3039.06
3033.33
3026.4
3018.76
3011.03
3003.73
2997.11
2991.18
2985.55
2979.74
2973.45
2966.98
2960.91
2955.57
2950.88
2946.2
2941.98
2938.6
2936
2933.62
2929.73
2927.3
1787.1
1789.32
1787.36
1785.01
1783.81
1783.98
1785.17
1786.92
1788.97
1791.18
1793.6
1796.16
1798.8
1801.38
1803.89
1806.29
1808.71
1811.2
1813.84
1816.6
1819.47
1822.38
1825.29
1828.18
1831.01
1833.75
1836.34
1838.68
1840.7
1842.35
1843.59
1844.44
1844.91
1845
1844.67
1843.9
1842.66
1840.99
1839.01
1836.89
1834.87
1833.17
1831.95
1831.28
1831.1
1831.27
1831.59
1831.87
1831.98
1831.85
1831.43
1830.77
1829.91
1828.94
1827.91
1826.78
1825.4
1823.52
1820.91
1817.39
1813.03
1808.11
1803.06
1798.3
1794.18
1790.81
1788.02
1785.39
1782.55
1779.42
1776.37
1773.73
1771.67
1769.47
1767.04
1764.62
1763.39
1763.74
1762.47
1753.89
594.373
596.975
595.601
593.877
593.06
593.079
593.601
594.349
595.136
595.896
596.608
597.278
597.863
598.365
598.764
599.105
599.411
599.734
600.087
600.488
600.922
601.383
601.858
602.346
602.845
603.348
603.839
604.296
604.69
605.005
605.234
605.388
605.48
605.517
605.492
605.384
605.173
604.853
604.441
603.988
603.561
603.233
603.059
603.057
603.204
603.436
603.676
603.857
603.94
603.917
603.802
603.619
603.4
603.179
602.972
602.762
602.49
602.076
601.442
600.543
599.396
598.095
596.773
595.556
594.538
593.788
593.283
592.925
592.574
592.187
591.805
591.568
591.591
591.441
590.914
590.218
590.61
592.874
593.493
583.546
-10.0475
-10.037
-10.0425
-10.0473
-10.0491
-10.0502
-10.0513
-10.0521
-10.0526
-10.0529
-10.0531
-10.0532
-10.0532
-10.0532
-10.0531
-10.0528
-10.0524
-10.052
-10.0514
-10.0503
-10.0491
-10.048
-10.0468
-10.0456
-10.0443
-10.0432
-10.042
-10.0409
-10.0398
-10.0385
-10.0368
-10.0354
-10.0341
-10.0328
-10.0318
-10.0312
-10.031
-10.031
-10.0312
-10.0319
-10.0329
-10.034
-10.0351
-10.035
-10.0351
-10.0355
-10.0359
-10.0365
-10.0372
-10.0379
-10.0387
-10.0395
-10.0404
-10.0413
-10.0422
-10.0428
-10.0433
-10.0436
-10.0429
-10.0413
-10.0398
-10.0384
-10.0371
-10.0357
-10.0345
-10.0334
-10.0327
-10.032
-10.0315
-10.0313
-10.0313
-10.0315
-10.0322
-10.033
-10.0339
-10.035
-10.0355
-10.0352
-10.0321
-10.0363
-10.5439
-10.5419
-10.5443
-10.5459
-10.5462
-10.5458
-10.5457
-10.5456
-10.5456
-10.5456
-10.5456
-10.5457
-10.5456
-10.5457
-10.5457
-10.5456
-10.5456
-10.5456
-10.5456
-10.5456
-10.5456
-10.5456
-10.5456
-10.5456
-10.5456
-10.5456
-10.5456
-10.5456
-10.5456
-10.5456
-10.5456
-10.5456
-10.5456
-10.5456
-10.5456
-10.5456
-10.5456
-10.5456
-10.5456
-10.5456
-10.5456
-10.5456
-10.5456
-10.5456
-10.5456
-10.5456
-10.5456
-10.5456
-10.5456
-10.5456
-10.5456
-10.5456
-10.5456
-10.5456
-10.5456
-10.5456
-10.5456
-10.5457
-10.5456
-10.5456
-10.5456
-10.5457
-10.5456
-10.5456
-10.5456
-10.5457
-10.5457
-10.5457
-10.5456
-10.5456
-10.5457
-10.5457
-10.5457
-10.5457
-10.5456
-10.5456
-10.5456
-10.5456
-10.5456
-10.5457
-11.0358
-11.0335
-11.0349
-11.0362
-11.0365
-11.0364
-11.0362
-11.0362
-11.0361
-11.0361
-11.0361
-11.0362
-11.0361
-11.0362
-11.0362
-11.0361
-11.0361
-11.0361
-11.0361
-11.0361
-11.0361
-11.0361
-11.0361
-11.0361
-11.0361
-11.0361
-11.0361
-11.0361
-11.0361
-11.0361
-11.0361
-11.0361
-11.0361
-11.0361
-11.0361
-11.0361
-11.0361
-11.0361
-11.0361
-11.0361
-11.0361
-11.0361
-11.0361
-11.0361
-11.0361
-11.0361
-11.0361
-11.0361
-11.0361
-11.0361
-11.0361
-11.0361
-11.0361
-11.0361
-11.0361
-11.0361
-11.0361
-11.0362
-11.0362
-11.0361
-11.0361
-11.0362
-11.0361
-11.0361
-11.0361
-11.0361
-11.0362
-11.0362
-11.0361
-11.0361
-11.0361
-11.0362
-11.0362
-11.0362
-11.0361
-11.0361
-11.0361
-11.0361
-11.0362
-11.0362
-11.5293
-11.5265
-11.5259
-11.5262
-11.5267
-11.5268
-11.5267
-11.5267
-11.5267
-11.5267
-11.5266
-11.5267
-11.5266
-11.5266
-11.5266
-11.5266
-11.5266
-11.5266
-11.5266
-11.5266
-11.5266
-11.5266
-11.5266
-11.5266
-11.5266
-11.5266
-11.5266
-11.5266
-11.5266
-11.5266
-11.5266
-11.5266
-11.5266
-11.5266
-11.5266
-11.5266
-11.5266
-11.5266
-11.5266
-11.5266
-11.5266
-11.5266
-11.5266
-11.5266
-11.5266
-11.5266
-11.5266
-11.5266
-11.5266
-11.5266
-11.5266
-11.5266
-11.5266
-11.5266
-11.5266
-11.5266
-11.5266
-11.5266
-11.5267
-11.5266
-11.5266
-11.5266
-11.5267
-11.5266
-11.5266
-11.5266
-11.5266
-11.5267
-11.5267
-11.5266
-11.5266
-11.5266
-11.5267
-11.5267
-11.5267
-11.5266
-11.5266
-11.5266
-11.5266
-11.5267
-12.0189
-12.0179
-12.0171
-12.0169
-12.017
-12.0172
-12.0172
-12.0172
-12.0172
-12.0172
-12.0171
-12.0172
-12.0172
-12.0171
-12.0171
-12.0171
-12.0171
-12.0171
-12.0171
-12.0171
-12.0171
-12.0171
-12.0171
-12.0171
-12.0171
-12.0171
-12.0171
-12.0171
-12.0171
-12.0171
-12.0171
-12.0171
-12.0171
-12.0171
-12.0171
-12.0171
-12.0171
-12.0171
-12.0171
-12.0171
-12.0171
-12.0171
-12.0171
-12.0171
-12.0171
-12.0171
-12.0171
-12.0171
-12.0171
-12.0171
-12.0171
-12.0171
-12.0171
-12.0171
-12.0171
-12.0171
-12.0171
-12.0171
-12.0171
-12.0171
-12.0171
-12.0171
-12.0172
-12.0171
-12.0171
-12.0171
-12.0171
-12.0172
-12.0172
-12.0171
-12.0171
-12.0171
-12.0171
-12.0172
-12.0172
-12.0171
-12.0171
-12.0171
-12.0171
-12.0171
-12.5079
-12.5082
-12.5079
-12.5076
-12.5076
-12.5076
-12.5077
-12.5077
-12.5077
-12.5077
-12.5076
-12.5077
-12.5077
-12.5076
-12.5076
-12.5076
-12.5076
-12.5076
-12.5076
-12.5076
-12.5076
-12.5076
-12.5076
-12.5076
-12.5076
-12.5076
-12.5076
-12.5076
-12.5076
-12.5076
-12.5076
-12.5076
-12.5076
-12.5076
-12.5076
-12.5076
-12.5076
-12.5076
-12.5076
-12.5076
-12.5076
-12.5076
-12.5076
-12.5076
-12.5076
-12.5076
-12.5076
-12.5076
-12.5076
-12.5076
-12.5076
-12.5076
-12.5076
-12.5076
-12.5076
-12.5076
-12.5076
-12.5076
-12.5076
-12.5076
-12.5076
-12.5076
-12.5076
-12.5077
-12.5076
-12.5076
-12.5076
-12.5077
-12.5077
-12.5077
-12.5076
-12.5076
-12.5076
-12.5076
-12.5077
-12.5077
-12.5076
-12.5076
-12.5076
-12.5076
-12.9979
-12.9983
-12.9983
-12.9982
-12.9982
-12.9981
-12.9982
-12.9981
-12.9982
-12.9982
-12.9982
-12.9981
-12.9982
-12.9981
-12.9981
-12.9981
-12.9981
-12.9981
-12.9981
-12.9981
-12.9981
-12.9981
-12.9981
-12.9981
-12.9981
-12.9981
-12.9981
-12.9981
-12.9981
-12.9981
-12.9981
-12.9981
-12.9981
-12.9981
-12.9981
-12.9981
-12.9981
-12.9981
-12.9981
-12.9981
-12.9981
-12.9981
-12.9981
-12.9981
-12.9981
-12.9981
-12.9981
-12.9981
-12.9981
-12.9981
-12.9981
-12.9981
-12.9981
-12.9981
-12.9981
-12.9981
-12.9981
-12.9981
-12.9981
-12.9982
-12.9981
-12.9981
-12.9981
-12.9982
-12.9982
-12.9981
-12.9981
-12.9981
-12.9982
-12.9982
-12.9982
-12.9981
-12.9981
-12.9981
-12.9981
-12.9982
-12.9982
-12.9981
-12.9981
-12.9981
-13.4884
-13.4886
-13.4886
-13.4887
-13.4887
-13.4887
-13.4887
-13.4886
-13.4886
-13.4887
-13.4887
-13.4886
-13.4886
-13.4886
-13.4886
-13.4886
-13.4886
-13.4886
-13.4886
-13.4886
-13.4886
-13.4886
-13.4886
-13.4886
-13.4886
-13.4886
-13.4886
-13.4886
-13.4886
-13.4886
-13.4886
-13.4886
-13.4886
-13.4886
-13.4886
-13.4886
-13.4886
-13.4886
-13.4886
-13.4886
-13.4886
-13.4886
-13.4886
-13.4886
-13.4886
-13.4886
-13.4886
-13.4886
-13.4886
-13.4886
-13.4886
-13.4886
-13.4886
-13.4886
-13.4886
-13.4887
-13.4886
-13.4886
-13.4886
-13.4887
-13.4886
-13.4886
-13.4886
-13.4887
-13.4887
-13.4887
-13.4886
-13.4886
-13.4886
-13.4887
-13.4887
-13.4887
-13.4886
-13.4886
-13.4886
-13.4886
-13.4886
-13.4886
-13.4886
-13.4886
-13.9791
-13.9791
-13.9791
-13.9792
-13.9792
-13.9792
-13.9792
-13.9792
-13.9791
-13.9791
-13.9792
-13.9792
-13.9791
-13.9791
-13.9791
-13.9791
-13.9791
-13.9791
-13.9791
-13.9791
-13.9791
-13.9791
-13.9791
-13.9791
-13.9791
-13.9791
-13.9791
-13.9791
-13.9791
-13.9791
-13.9791
-13.9791
-13.9791
-13.9791
-13.9791
-13.9791
-13.9791
-13.9791
-13.9791
-13.9791
-13.9791
-13.9791
-13.9791
-13.9791
-13.9791
-13.9791
-13.9791
-13.9791
-13.9791
-13.9791
-13.9791
-13.9791
-13.9791
-13.9791
-13.9791
-13.9792
-13.9791
-13.9791
-13.9791
-13.9792
-13.9792
-13.9791
-13.9791
-13.9791
-13.9792
-13.9792
-13.9791
-13.9791
-13.9791
-13.9791
-13.9791
-13.9792
-13.9792
-13.9791
-13.9791
-13.9791
-13.9791
-13.9791
-13.9791
-13.9791
-14.4697
-14.4696
-14.4696
-14.4696
-14.4697
-14.4697
-14.4697
-14.4697
-14.4696
-14.4696
-14.4696
-14.4697
-14.4696
-14.4696
-14.4696
-14.4696
-14.4696
-14.4696
-14.4696
-14.4696
-14.4696
-14.4696
-14.4696
-14.4696
-14.4696
-14.4696
-14.4696
-14.4696
-14.4696
-14.4696
-14.4696
-14.4696
-14.4696
-14.4696
-14.4696
-14.4696
-14.4696
-14.4696
-14.4696
-14.4696
-14.4696
-14.4696
-14.4696
-14.4696
-14.4696
-14.4696
-14.4696
-14.4696
-14.4696
-14.4696
-14.4696
-14.4696
-14.4697
-14.4696
-14.4696
-14.4696
-14.4697
-14.4696
-14.4696
-14.4696
-14.4697
-14.4697
-14.4696
-14.4696
-14.4696
-14.4697
-14.4697
-14.4696
-14.4696
-14.4696
-14.4696
-14.4696
-14.4697
-14.4696
-14.4696
-14.4696
-14.4696
-14.4696
-14.4696
-14.4696
-14.9602
-14.9601
-14.9601
-14.9602
-14.9602
-14.9602
-14.9601
-14.9602
-14.9602
-14.9601
-14.9601
-14.9601
-14.9601
-14.9601
-14.9601
-14.9601
-14.9601
-14.9601
-14.9601
-14.9601
-14.9601
-14.9601
-14.9601
-14.9601
-14.9601
-14.9601
-14.9601
-14.9601
-14.9601
-14.9601
-14.9601
-14.9601
-14.9601
-14.9601
-14.9601
-14.9601
-14.9601
-14.9601
-14.9601
-14.9601
-14.9601
-14.9601
-14.9601
-14.9601
-14.9601
-14.9601
-14.9601
-14.9601
-14.9601
-14.9601
-14.9601
-14.9601
-14.9601
-14.9601
-14.9601
-14.9601
-14.9602
-14.9601
-14.9601
-14.9601
-14.9601
-14.9602
-14.9601
-14.9601
-14.9601
-14.9601
-14.9602
-14.9602
-14.9601
-14.9601
-14.9601
-14.9601
-14.9601
-14.9601
-14.9601
-14.9601
-14.9601
-14.9601
-14.9601
-14.9601
-15.4507
-15.4507
-15.4506
-15.4507
-15.4507
-15.4507
-15.4506
-15.4506
-15.4507
-15.4507
-15.4506
-15.4506
-15.4506
-15.4506
-15.4506
-15.4506
-15.4506
-15.4506
-15.4506
-15.4506
-15.4506
-15.4506
-15.4506
-15.4506
-15.4506
-15.4506
-15.4506
-15.4506
-15.4506
-15.4506
-15.4506
-15.4506
-15.4506
-15.4506
-15.4506
-15.4506
-15.4506
-15.4506
-15.4506
-15.4506
-15.4506
-15.4506
-15.4506
-15.4506
-15.4506
-15.4506
-15.4506
-15.4506
-15.4506
-15.4506
-15.4506
-15.4506
-15.4506
-15.4506
-15.4506
-15.4506
-15.4507
-15.4506
-15.4506
-15.4506
-15.4506
-15.4507
-15.4506
-15.4506
-15.4506
-15.4506
-15.4506
-15.4507
-15.4506
-15.4507
-15.4506
-15.4506
-15.4506
-15.4506
-15.4506
-15.4506
-15.4506
-15.4506
-15.4506
-15.4506
-15.9412
-15.9412
-15.9412
-15.9412
-15.9412
-15.9412
-15.9411
-15.9411
-15.9411
-15.9412
-15.9412
-15.9411
-15.9411
-15.9411
-15.9411
-15.9411
-15.9411
-15.9411
-15.9411
-15.9411
-15.9411
-15.9411
-15.9411
-15.9411
-15.9411
-15.9411
-15.9411
-15.9411
-15.9411
-15.9411
-15.9411
-15.9411
-15.9411
-15.9411
-15.9411
-15.9411
-15.9411
-15.9411
-15.9411
-15.9411
-15.9411
-15.9411
-15.9411
-15.9411
-15.9411
-15.9411
-15.9411
-15.9411
-15.9411
-15.9411
-15.9411
-15.9411
-15.9411
-15.9411
-15.9411
-15.9411
-15.9412
-15.9412
-15.9411
-15.9411
-15.9411
-15.9412
-15.9412
-15.9411
-15.9411
-15.9411
-15.9411
-15.9411
-15.9411
-15.9411
-15.9412
-15.9411
-15.9411
-15.9411
-15.9411
-15.9411
-15.9411
-15.9411
-15.9411
-15.9411
-16.4316
-16.4317
-16.4317
-16.4317
-16.4317
-16.4317
-16.4317
-16.4317
-16.4316
-16.4317
-16.4317
-16.4316
-16.4316
-16.4316
-16.4316
-16.4316
-16.4316
-16.4316
-16.4316
-16.4316
-16.4316
-16.4316
-16.4316
-16.4316
-16.4316
-16.4316
-16.4316
-16.4316
-16.4316
-16.4316
-16.4316
-16.4316
-16.4316
-16.4316
-16.4316
-16.4316
-16.4316
-16.4316
-16.4316
-16.4316
-16.4316
-16.4316
-16.4316
-16.4316
-16.4316
-16.4316
-16.4316
-16.4316
-16.4316
-16.4316
-16.4316
-16.4316
-16.4316
-16.4316
-16.4316
-16.4316
-16.4316
-16.4317
-16.4317
-16.4316
-16.4316
-16.4316
-16.4317
-16.4317
-16.4317
-16.4316
-16.4316
-16.4316
-16.4316
-16.4316
-16.4316
-16.4316
-16.4316
-16.4316
-16.4316
-16.4316
-16.4316
-16.4316
-16.4316
-16.4316
-16.9221
-16.9222
-16.9222
-16.9221
-16.9221
-16.9222
-16.9222
-16.9222
-16.9222
-16.9222
-16.9221
-16.9221
-16.9221
-16.9221
-16.9221
-16.9221
-16.9221
-16.9221
-16.9221
-16.9221
-16.9221
-16.9221
-16.9221
-16.9221
-16.9221
-16.9221
-16.9221
-16.9221
-16.9221
-16.9221
-16.9221
-16.9221
-16.9221
-16.9221
-16.9221
-16.9221
-16.9221
-16.9221
-16.9221
-16.9221
-16.9221
-16.9221
-16.9221
-16.9221
-16.9221
-16.9221
-16.9221
-16.9221
-16.9221
-16.9221
-16.9221
-16.9221
-16.9221
-16.9221
-16.9221
-16.9221
-16.9221
-16.9221
-16.9222
-16.9221
-16.9221
-16.9221
-16.9221
-16.9221
-16.9222
-16.9222
-16.9221
-16.9221
-16.9221
-16.9221
-16.9221
-16.9221
-16.9221
-16.9221
-16.9221
-16.9221
-16.9221
-16.9222
-16.9221
-16.9221
-17.4126
-17.4127
-17.4127
-17.4127
-17.4126
-17.4127
-17.4127
-17.4127
-17.4127
-17.4127
-17.4127
-17.4126
-17.4126
-17.4126
-17.4126
-17.4126
-17.4126
-17.4126
-17.4126
-17.4126
-17.4126
-17.4126
-17.4126
-17.4126
-17.4126
-17.4126
-17.4126
-17.4126
-17.4126
-17.4126
-17.4126
-17.4126
-17.4126
-17.4126
-17.4126
-17.4126
-17.4126
-17.4126
-17.4126
-17.4126
-17.4126
-17.4126
-17.4126
-17.4126
-17.4126
-17.4126
-17.4126
-17.4126
-17.4126
-17.4126
-17.4126
-17.4126
-17.4126
-17.4126
-17.4126
-17.4126
-17.4126
-17.4126
-17.4126
-17.4126
-17.4126
-17.4126
-17.4126
-17.4126
-17.4126
-17.4126
-17.4127
-17.4126
-17.4126
-17.4126
-17.4126
-17.4126
-17.4126
-17.4126
-17.4127
-17.4126
-17.4126
-17.4127
-17.4127
-17.4127
-17.9031
-17.9031
-17.9032
-17.9032
-17.9032
-17.9032
-17.9032
-17.9032
-17.9032
-17.9031
-17.9031
-17.9031
-17.9031
-17.9031
-17.9031
-17.9031
-17.9031
-17.9031
-17.9031
-17.9031
-17.9031
-17.9031
-17.9031
-17.9031
-17.9031
-17.9031
-17.9031
-17.9031
-17.9031
-17.9031
-17.9031
-17.9031
-17.9031
-17.9031
-17.9031
-17.9031
-17.9031
-17.9031
-17.9031
-17.9031
-17.9031
-17.9031
-17.9031
-17.9031
-17.9031
-17.9031
-17.9031
-17.9031
-17.9031
-17.9031
-17.9031
-17.9031
-17.9031
-17.9031
-17.9031
-17.9031
-17.9031
-17.9031
-17.9031
-17.9031
-17.9031
-17.9031
-17.9031
-17.9031
-17.9031
-17.9031
-17.9031
-17.9031
-17.9031
-17.9031
-17.9031
-17.9031
-17.9031
-17.9031
-17.9031
-17.9031
-17.9031
-17.9031
-17.9031
-17.9032
-18.3937
-18.3936
-18.3937
-18.3937
-18.3937
-18.3937
-18.3937
-18.3937
-18.3937
-18.3936
-18.3936
-18.3936
-18.3936
-18.3937
-18.3936
-18.3936
-18.3936
-18.3936
-18.3936
-18.3936
-18.3936
-18.3936
-18.3936
-18.3936
-18.3936
-18.3936
-18.3936
-18.3936
-18.3936
-18.3936
-18.3936
-18.3936
-18.3936
-18.3936
-18.3936
-18.3936
-18.3936
-18.3936
-18.3936
-18.3936
-18.3936
-18.3936
-18.3936
-18.3936
-18.3936
-18.3936
-18.3936
-18.3936
-18.3936
-18.3936
-18.3936
-18.3936
-18.3936
-18.3936
-18.3936
-18.3936
-18.3936
-18.3936
-18.3936
-18.3936
-18.3936
-18.3937
-18.3936
-18.3936
-18.3936
-18.3936
-18.3936
-18.3936
-18.3936
-18.3936
-18.3936
-18.3936
-18.3936
-18.3937
-18.3936
-18.3936
-18.3937
-18.3936
-18.3936
-18.3936
-18.8842
-18.8842
-18.8842
-18.8842
-18.8842
-18.8842
-18.8841
-18.8841
-18.8841
-18.8841
-18.8842
-18.8842
-18.8842
-18.8842
-18.8841
-18.8841
-18.8841
-18.8841
-18.8841
-18.8841
-18.8841
-18.8841
-18.8841
-18.8841
-18.8841
-18.8841
-18.8841
-18.8841
-18.8841
-18.8841
-18.8841
-18.8841
-18.8841
-18.8841
-18.8841
-18.8841
-18.8841
-18.8841
-18.8841
-18.8841
-18.8841
-18.8841
-18.8841
-18.8841
-18.8841
-18.8841
-18.8841
-18.8841
-18.8841
-18.8841
-18.8841
-18.8841
-18.8841
-18.8841
-18.8841
-18.8841
-18.8841
-18.8841
-18.8841
-18.8841
-18.8841
-18.8841
-18.8841
-18.8841
-18.8841
-18.8841
-18.8841
-18.8842
-18.8842
-18.8841
-18.8842
-18.8841
-18.8841
-18.8842
-18.8842
-18.8841
-18.8841
-18.8842
-18.8842
-18.8841
-19.3747
-19.3747
-19.3747
-19.3746
-19.3746
-19.3746
-19.3746
-19.3746
-19.3746
-19.3746
-19.3746
-19.3747
-19.3746
-19.3746
-19.3746
-19.3746
-19.3746
-19.3746
-19.3746
-19.3746
-19.3746
-19.3746
-19.3746
-19.3746
-19.3746
-19.3746
-19.3746
-19.3746
-19.3746
-19.3746
-19.3746
-19.3746
-19.3746
-19.3746
-19.3746
-19.3746
-19.3746
-19.3746
-19.3746
-19.3746
-19.3746
-19.3746
-19.3746
-19.3746
-19.3746
-19.3746
-19.3746
-19.3746
-19.3746
-19.3746
-19.3746
-19.3746
-19.3746
-19.3746
-19.3746
-19.3746
-19.3746
-19.3746
-19.3746
-19.3746
-19.3746
-19.3746
-19.3746
-19.3746
-19.3746
-19.3746
-19.3746
-19.3746
-19.3746
-19.3746
-19.3746
-19.3747
-19.3746
-19.3746
-19.3746
-19.3746
-19.3746
-19.3746
-19.3747
-19.3747
-19.8651
-19.8652
-19.8652
-19.8651
-19.8651
-19.8651
-19.8651
-19.8651
-19.8652
-19.8652
-19.8652
-19.8652
-19.8651
-19.8651
-19.8651
-19.8651
-19.8651
-19.8651
-19.8651
-19.8651
-19.8651
-19.8651
-19.8651
-19.8651
-19.8651
-19.8651
-19.8651
-19.8651
-19.8651
-19.8651
-19.8651
-19.8651
-19.8651
-19.8651
-19.8651
-19.8651
-19.8651
-19.8651
-19.8651
-19.8651
-19.8651
-19.8651
-19.8651
-19.8651
-19.8651
-19.8651
-19.8651
-19.8651
-19.8651
-19.8651
-19.8651
-19.8651
-19.8651
-19.8651
-19.8651
-19.8651
-19.8651
-19.8651
-19.8651
-19.8651
-19.8651
-19.8651
-19.8651
-19.8651
-19.8651
-19.8651
-19.8651
-19.8651
-19.8651
-19.8651
-19.8651
-19.8652
-19.8652
-19.8651
-19.8651
-19.8652
-19.8652
-19.8651
-19.8651
-19.8651
-20.3556
-20.3556
-20.3556
-20.3556
-20.3556
-20.3556
-20.3556
-20.3557
-20.3557
-20.3557
-20.3557
-20.3556
-20.3556
-20.3556
-20.3556
-20.3556
-20.3556
-20.3556
-20.3556
-20.3556
-20.3556
-20.3556
-20.3556
-20.3556
-20.3556
-20.3556
-20.3556
-20.3556
-20.3556
-20.3556
-20.3556
-20.3556
-20.3556
-20.3556
-20.3556
-20.3556
-20.3556
-20.3556
-20.3556
-20.3556
-20.3556
-20.3556
-20.3556
-20.3556
-20.3556
-20.3556
-20.3556
-20.3556
-20.3556
-20.3556
-20.3556
-20.3556
-20.3556
-20.3556
-20.3556
-20.3556
-20.3556
-20.3556
-20.3556
-20.3556
-20.3556
-20.3556
-20.3556
-20.3556
-20.3556
-20.3556
-20.3556
-20.3556
-20.3556
-20.3556
-20.3556
-20.3556
-20.3557
-20.3557
-20.3557
-20.3557
-20.3557
-20.3557
-20.3557
-20.3557
-20.8461
-20.8461
-20.8461
-20.8462
-20.8462
-20.8461
-20.8462
-20.8462
-20.8462
-20.8462
-20.8461
-20.8461
-20.8461
-20.8461
-20.8461
-20.8461
-20.8461
-20.8461
-20.8461
-20.8461
-20.8461
-20.8461
-20.8461
-20.8461
-20.8461
-20.8461
-20.8461
-20.8461
-20.8461
-20.8461
-20.8461
-20.8461
-20.8461
-20.8461
-20.8461
-20.8461
-20.8461
-20.8461
-20.8461
-20.8461
-20.8461
-20.8461
-20.8461
-20.846
-20.8461
-20.8461
-20.8461
-20.8461
-20.8461
-20.8461
-20.8461
-20.8461
-20.8461
-20.8461
-20.8461
-20.8461
-20.8461
-20.8461
-20.8461
-20.8461
-20.8461
-20.8461
-20.8461
-20.8461
-20.8461
-20.8461
-20.8461
-20.8461
-20.8461
-20.8461
-20.8461
-20.8461
-20.8461
-20.8462
-20.8462
-20.8462
-20.8462
-20.8462
-20.8462
-20.8462
-21.3367
-21.3366
-21.3366
-21.3367
-21.3367