/*--------------------------------*- C++ -*----------------------------------*\
| =========                 |                                                 |
| \\      /  F ield         | OpenFOAM: The Open Source CFD Toolbox           |
|  \\    /   O peration     | Version:  2412                                  |
|   \\  /    A nd           | Website:  www.openfoam.com                      |
|    \\/     M anipulation  |                                                 |
\*---------------------------------------------------------------------------*/
FoamFile
{
    version     2.0;
    format      ascii;
    arch        "LSB;label=32;scalar=64";
    class       surfaceScalarField;
    location    "1.1";
    object      phi;
}
// * * * * * * * * * * * * * * * * * * * * * * * * * * * * * * * * * * * * * //

dimensions      [0 3 -1 0 0 0 0];

oriented        oriented;

internalField   nonuniform List<scalar> 
12640
(
-5.59536e-10
6.223e-10
-2.71859e-10
7.12687e-11
-2.17236e-10
-6.62539e-10
-4.91409e-10
-9.56509e-10
-9.15022e-10
-9.31308e-10
-1.21998e-09
-8.10957e-10
-1.42933e-09
-7.19557e-10
-1.64038e-09
-6.8818e-10
-1.83541e-09
-7.06893e-10
-2.04818e-09
-7.40708e-10
-2.28217e-09
-7.5746e-10
-2.51158e-09
-7.57544e-10
-2.72319e-09
-7.42437e-10
-2.9176e-09
-7.05185e-10
-3.0812e-09
-6.51116e-10
-3.19938e-09
-5.97619e-10
-3.27122e-09
-5.54328e-10
-3.30147e-09
-5.12749e-10
-3.28889e-09
-4.57105e-10
-3.22858e-09
-3.79677e-10
-3.11818e-09
-2.90228e-10
-2.9603e-09
-2.10152e-10
-2.76247e-09
-1.57595e-10
-2.53639e-09
-1.35816e-10
-2.29378e-09
-1.34685e-10
-2.04095e-09
-1.40815e-10
-1.7785e-09
-1.4619e-10
-1.50705e-09
-1.49593e-10
-1.23251e-09
-1.53504e-10
-9.65463e-10
-1.60805e-10
-7.16867e-10
-1.72977e-10
-4.9478e-10
-1.89305e-10
-3.03644e-10
-2.07086e-10
-1.44349e-10
-2.23143e-10
-1.40484e-11
-2.35962e-10
9.32287e-11
-2.46765e-10
1.84463e-10
-2.58522e-10
2.65209e-10
-2.73647e-10
3.38701e-10
-2.92195e-10
4.06877e-10
-3.1175e-10
4.71823e-10
-3.2878e-10
5.361e-10
-3.40251e-10
6.01787e-10
-3.44514e-10
6.69486e-10
-3.41306e-10
7.38509e-10
-3.31311e-10
8.08382e-10
-3.15774e-10
8.80669e-10
-2.96258e-10
9.59898e-10
-2.74377e-10
1.05296e-09
-2.51472e-10
1.16733e-09
-2.28446e-10
1.30896e-09
-2.06018e-10
1.48083e-09
-1.85281e-10
1.68255e-09
-1.68048e-10
1.91111e-09
-1.56486e-10
2.16223e-09
-1.52108e-10
2.4319e-09
-1.54813e-10
2.7176e-09
-1.6267e-10
3.01853e-09
-1.72591e-10
3.33457e-09
-1.81298e-10
3.66405e-09
-1.86126e-10
4.00114e-09
-1.85579e-10
4.33453e-09
-1.80038e-10
4.64857e-09
-1.7246e-10
4.92657e-09
-1.68603e-10
5.15476e-09
-1.76084e-10
5.3246e-09
-2.02376e-10
5.43266e-09
-2.52499e-10
5.47861e-09
-3.27406e-10
5.46318e-09
-4.2452e-10
5.38701e-09
-5.39859e-10
5.24896e-09
-6.71025e-10
5.04054e-09
-8.16444e-10
4.74074e-09
-9.70692e-10
4.32064e-09
-1.11865e-09
3.76172e-09
-1.23918e-09
3.07538e-09
-1.32144e-09
2.29742e-09
-1.37465e-09
1.47855e-09
-1.41519e-09
7.04736e-10
-1.41934e-09
-1.11264e-09
-1.33591e-09
-1.90188e-10
-1.17475e-09
-8.57799e-10
-9.06653e-10
-1.60313e-09
-1.07475e-09
-2.05535e-09
-1.65997e-09
-2.19214e-09
-2.25461e-09
-2.15457e-09
-2.76497e-09
-2.07794e-09
-3.26484e-09
-2.02988e-09
-3.73738e-09
-2.00935e-09
-4.21293e-09
-1.997e-09
-4.70708e-09
-1.96945e-09
-5.18201e-09
-1.92913e-09
-5.61581e-09
-1.86452e-09
-6.00722e-09
-1.75482e-09
-6.34149e-09
-1.59316e-09
-6.58313e-09
-1.40429e-09
-6.70723e-09
-1.22233e-09
-6.71061e-09
-1.06215e-09
-6.60451e-09
-9.09941e-10
-6.40385e-09
-7.43365e-10
-6.11992e-09
-5.5742e-10
-5.75712e-09
-3.71445e-10
-5.31939e-09
-2.13156e-10
-4.81964e-09
-9.9312e-11
-4.28029e-09
-2.92463e-11
-3.72389e-09
8.26944e-12
-3.16578e-09
2.53423e-11
-2.61588e-09
2.97602e-11
-2.0841e-09
2.48271e-11
-1.58183e-09
1.14742e-11
-1.11923e-09
-9.47227e-12
-7.03125e-10
-3.60446e-11
-3.37339e-10
-6.53772e-11
-2.31943e-11
-9.50842e-11
2.41103e-10
-1.24592e-10
4.60918e-10
-1.55299e-10
6.43776e-10
-1.8937e-10
7.9686e-10
-2.27958e-10
9.2566e-10
-2.69979e-10
1.03479e-09
-3.12053e-10
1.12971e-09
-3.49517e-10
1.21741e-09
-3.77922e-10
1.30546e-09
-3.94386e-10
1.40045e-09
-3.98401e-10
1.5075e-09
-3.91931e-10
1.63119e-09
-3.78859e-10
1.77709e-09
-3.63901e-10
1.95263e-09
-3.51308e-10
2.1663e-09
-3.43803e-10
2.4255e-09
-3.42214e-10
2.73436e-09
-3.46002e-10
3.09261e-09
-3.54326e-10
3.49613e-09
-3.66958e-10
3.93871e-09
-3.84441e-10
4.41426e-09
-4.07472e-10
4.91864e-09
-4.3603e-10
5.4508e-09
-4.68873e-10
6.01259e-09
-5.03682e-10
6.60686e-09
-5.37765e-10
7.23364e-09
-5.69157e-10
7.88578e-09
-5.97956e-10
8.54626e-09
-6.27448e-10
9.1891e-09
-6.64395e-10
9.78365e-09
-7.18154e-10
1.03004e-08
-7.9902e-10
1.0715e-08
-9.16573e-10
1.10098e-08
-1.07804e-09
1.11705e-08
-1.28653e-09
1.11843e-08
-1.5387e-09
1.10387e-08
-1.8242e-09
1.07232e-08
-2.12882e-09
1.02281e-08
-2.44159e-09
9.5387e-09
-2.7561e-09
8.63168e-09
-3.06221e-09
7.48503e-09
-3.3391e-09
6.09823e-09
-3.55923e-09
4.49909e-09
-3.69564e-09
2.75269e-09
-3.69485e-09
9.0926e-10
-3.35782e-09
-1.9912e-09
-1.4175e-09
-9.99879e-10
-1.63934e-09
-1.94479e-09
-1.42776e-09
-2.53292e-09
-1.49571e-09
-2.9005e-09
-2.00071e-09
-3.08247e-09
-2.63307e-09
-3.14025e-09
-3.2658e-09
-3.14356e-09
-3.90656e-09
-3.1332e-09
-4.51486e-09
-3.09961e-09
-5.11304e-09
-3.03798e-09
-5.72309e-09
-2.95204e-09
-6.29146e-09
-2.86041e-09
-6.78532e-09
-2.76791e-09
-7.21491e-09
-2.64585e-09
-7.58597e-09
-2.45629e-09
-7.86682e-09
-2.19654e-09
-8.00999e-09
-1.90838e-09
-7.98621e-09
-1.63682e-09
-7.80133e-09
-1.39342e-09
-7.49039e-09
-1.15886e-09
-7.09032e-09
-9.13503e-10
-6.61735e-09
-6.59257e-10
-6.07072e-09
-4.17106e-10
-5.45429e-09
-2.09933e-10
-4.78812e-09
-4.90984e-11
-4.101e-09
6.73418e-11
-3.41793e-09
1.48106e-10
-2.75639e-09
2.01553e-10
-2.1291e-09
2.32703e-10
-1.54571e-09
2.44367e-10
-1.01219e-09
2.39387e-10
-5.31269e-10
2.21459e-10
-1.04676e-10
1.94267e-10
2.6594e-10
1.60248e-10
5.80462e-10
1.20137e-10
8.42048e-10
7.34914e-11
1.05672e-09
1.97303e-11
1.23123e-09
-4.07965e-11
1.37157e-09
-1.06095e-10
1.48349e-09
-1.72449e-10
1.57408e-09
-2.35103e-10
1.65251e-09
-2.89529e-10
1.72913e-09
-3.32787e-10
1.81398e-09
-3.6442e-10
1.91606e-09
-3.86532e-10
2.04378e-09
-4.03025e-10
2.206e-09
-4.18324e-10
2.41215e-09
-4.36069e-10
2.67091e-09
-4.58256e-10
2.98789e-09
-4.85126e-10
3.36377e-09
-5.15754e-10
3.79423e-09
-5.49006e-10
4.27179e-09
-5.84422e-10
4.78853e-09
-6.2267e-10
5.33842e-09
-6.65403e-10
5.91871e-09
-7.1454e-10
6.53021e-09
-7.71239e-10
7.17665e-09
-8.35074e-10
7.86236e-09
-9.04243e-10
8.58829e-09
-9.77167e-10
9.3474e-09
-1.05492e-09
1.0122e-08
-1.14282e-09
1.08846e-08
-1.24977e-09
1.16012e-08
-1.38545e-09
1.22364e-08
-1.55722e-09
1.27574e-08
-1.76877e-09
1.31365e-08
-2.02142e-09
1.3351e-08
-2.3157e-09
1.33809e-08
-2.6509e-09
1.32064e-08
-3.02126e-09
1.28085e-08
-3.41543e-09
1.21731e-08
-3.82096e-09
1.1295e-08
-4.22893e-09
1.01714e-08
-4.6276e-09
8.79743e-09
-4.99365e-09
7.17343e-09
-5.29263e-09
5.30302e-09
-5.4666e-09
3.23184e-09
-5.39255e-09
1.0121e-09
-4.73938e-09
-2.61246e-09
-1.06399e-09
-1.68428e-09
-1.58893e-09
-3.13332e-09
-1.62432e-09
-3.65207e-09
-1.75518e-09
-3.86703e-09
-2.21426e-09
-3.96657e-09
-2.80877e-09
-4.0204e-09
-3.44066e-09
-4.0546e-09
-4.08429e-09
-4.08425e-09
-4.70577e-09
-4.09102e-09
-5.32762e-09
-4.04377e-09
-5.98051e-09
-3.91888e-09
-6.58585e-09
-3.74097e-09
-7.07817e-09
-3.56559e-09
-7.45924e-09
-3.41078e-09
-7.77224e-09
-3.23337e-09
-8.02569e-09
-2.98026e-09
-8.17495e-09
-2.64555e-09
-8.15769e-09
-2.27018e-09
-7.95031e-09
-1.89864e-09
-7.58707e-09
-1.54876e-09
-7.12649e-09
-1.21477e-09
-6.60516e-09
-8.88062e-10
-6.02757e-09
-5.71209e-10
-5.39e-09
-2.77187e-10
-4.70288e-09
-2.00325e-11
-3.99088e-09
1.9283e-10
-3.28105e-09
3.61607e-10
-2.59488e-09
4.90445e-10
-1.94717e-09
5.83838e-10
-1.34675e-09
6.45564e-10
-7.97487e-10
6.79156e-10
-3.00848e-10
6.88155e-10
1.41203e-10
6.75765e-10
5.25695e-10
6.44576e-10
8.51037e-10
5.96703e-10
1.11943e-09
5.34075e-10
1.33672e-09
4.58598e-10
1.51016e-09
3.72294e-10
1.64657e-09
2.77639e-10
1.75242e-09
1.77899e-10
1.83509e-09
7.71001e-11
1.90357e-09
-2.06152e-11
1.96797e-09
-1.11986e-10
2.03855e-09
-1.95456e-10
2.12529e-09
-2.71359e-10
2.2384e-09
-3.41382e-10
2.38902e-09
-4.07623e-10
2.58864e-09
-4.7176e-10
2.84718e-09
-5.34697e-10
3.17016e-09
-5.96733e-10
3.557e-09
-6.57941e-10
4.00143e-09
-7.18493e-10
4.49405e-09
-7.78883e-10
5.02578e-09
-8.4027e-10
5.59052e-09
-9.04867e-10
6.1865e-09
-9.75951e-10
6.81614e-09
-1.05699e-09
7.4843e-09
-1.15024e-09
8.19498e-09
-1.25591e-09
8.94687e-09
-1.37331e-09
9.73002e-09
-1.50345e-09
1.05251e-08
-1.65161e-09
1.13056e-08
-1.82763e-09
1.20403e-08
-2.04292e-09
1.26954e-08
-2.30532e-09
1.32358e-08
-2.61482e-09
1.36276e-08
-2.96342e-09
1.38421e-08
-3.34037e-09
1.38575e-08
-3.73813e-09
1.36557e-08
-4.15516e-09
1.32162e-08
-4.5926e-09
1.25231e-08
-5.04999e-09
1.15754e-08
-5.51771e-09
1.03872e-08
-5.97315e-09
8.97224e-09
-6.38363e-09
7.34098e-09
-6.70976e-09
5.47657e-09
-6.88152e-09
3.36475e-09
-6.72055e-09
1.03665e-09
-5.77495e-09
-3.02565e-09
-6.8463e-10
-2.04131e-09
-1.27293e-09
-4.00876e-09
-1.53538e-09
-4.6718e-09
-1.80666e-09
-4.84657e-09
-2.28667e-09
-4.88972e-09
-2.86446e-09
-4.89789e-09
-3.48204e-09
-4.90054e-09
-4.09458e-09
-4.91086e-09
-4.6573e-09
-4.93948e-09
-5.21011e-09
-4.94787e-09
-5.82488e-09
-4.86375e-09
-6.44797e-09
-4.65469e-09
-6.97034e-09
-4.38236e-09
-7.3359e-09
-4.12185e-09
-7.57697e-09
-3.88562e-09
-7.75029e-09
-3.62338e-09
-7.85806e-09
-3.28668e-09
-7.84435e-09
-2.87316e-09
-7.65923e-09
-2.41934e-09
-7.3119e-09
-1.9656e-09
-6.85518e-09
-1.53203e-09
-6.33531e-09
-1.11879e-09
-5.76731e-09
-7.20974e-10
-5.14993e-09
-3.40767e-10
-4.48857e-09
1.17511e-11
-3.80127e-09
3.25179e-10
-3.1114e-09
5.9247e-10
-2.44009e-09
8.11872e-10
-1.80299e-09
9.8498e-10
-1.20956e-09
1.11468e-09
-6.64161e-10
1.20379e-09
-1.69067e-10
1.25434e-09
2.72587e-10
1.26758e-09
6.56668e-10
1.24495e-09
9.80673e-10
1.18929e-09
1.24619e-09
1.10528e-09
1.4588e-09
9.98631e-10
1.62602e-09
8.74957e-10
1.75529e-09
7.3911e-10
1.85374e-09
5.95351e-10
1.92885e-09
4.47835e-10
1.98902e-09
3.00782e-10
2.0433e-09
1.58113e-10
2.10099e-09
2.2874e-11
2.17184e-09
-1.0309e-10
2.26684e-09
-2.18981e-10
2.39864e-09
-3.24619e-10
2.58045e-09
-4.20173e-10
2.82352e-09
-5.06333e-10
3.13418e-09
-5.84733e-10
3.51213e-09
-6.5813e-10
3.95109e-09
-7.29946e-10
4.44132e-09
-8.03486e-10
4.97295e-09
-8.81489e-10
5.53907e-09
-9.6653e-10
6.13772e-09
-1.06177e-09
6.77209e-09
-1.17122e-09
7.44813e-09
-1.29892e-09
8.16949e-09
-1.44786e-09
8.9319e-09
-1.61941e-09
9.72024e-09
-1.81433e-09
1.05105e-08
-2.03483e-09
1.1275e-08
-2.28685e-09
1.19868e-08
-2.58043e-09
1.26202e-08
-2.92663e-09
1.31466e-08
-3.33107e-09
1.35322e-08
-3.7887e-09
1.3741e-08
-4.28332e-09
1.37424e-08
-4.79476e-09
1.35128e-08
-5.30819e-09
1.30348e-08
-5.82082e-09
1.23011e-08
-6.33428e-09
1.13262e-08
-6.84087e-09
1.01367e-08
-7.31554e-09
8.75575e-09
-7.72886e-09
7.195e-09
-8.04906e-09
5.41968e-09
-8.20032e-09
3.34525e-09
-7.9458e-09
9.92026e-10
-6.71465e-09
-3.3749e-09
-4.41571e-10
-2.34984e-09
-9.65685e-10
-4.72589e-09
-1.36502e-09
-5.58051e-09
-1.73317e-09
-5.79254e-09
-2.23329e-09
-5.83605e-09
-2.7956e-09
-5.84679e-09
-3.40842e-09
-5.83239e-09
-4.02449e-09
-5.79894e-09
-4.55794e-09
-5.78995e-09
-5.01894e-09
-5.81195e-09
-5.52507e-09
-5.78681e-09
-6.10384e-09
-5.62269e-09
-6.65917e-09
-5.32187e-09
-7.07135e-09
-4.96167e-09
-7.3112e-09
-4.60574e-09
-7.43314e-09
-4.25574e-09
-7.48505e-09
-3.87185e-09
-7.451e-09
-3.42489e-09
-7.2873e-09
-2.92276e-09
-6.98242e-09
-2.39862e-09
-6.56691e-09
-1.88265e-09
-6.07893e-09
-1.38684e-09
-5.53867e-09
-9.10482e-10
-4.95249e-09
-4.53308e-10
-4.32781e-09
-2.20033e-11
-3.67894e-09
3.72582e-10
-3.0241e-09
7.20831e-10
-2.38107e-09
1.01723e-09
-1.76472e-09
1.26024e-09
-1.18562e-09
1.45084e-09
-6.50298e-10
1.5906e-09
-1.6321e-10
1.68009e-09
2.71339e-10
1.7187e-09
6.49344e-10
1.70606e-09
9.68999e-10
1.64417e-09
1.23213e-09
1.53837e-09
1.44372e-09
1.39656e-09
1.61017e-09
1.2274e-09
1.73814e-09
1.03883e-09
1.83439e-09
8.37691e-10
1.90636e-09
6.3006e-10
1.96213e-09
4.21739e-10
2.01016e-09
2.18238e-10
2.05907e-09
2.44266e-11
2.11835e-09
-1.5579e-10
2.19936e-09
-3.19479e-10
2.31552e-09
-4.64511e-10
2.4808e-09
-5.89596e-10
2.70684e-09
-6.94786e-10
3.0002e-09
-7.82209e-10
3.36121e-09
-8.56386e-10
3.78476e-09
-9.23648e-10
4.26251e-09
-9.90794e-10
4.78532e-09
-1.06381e-09
5.34593e-09
-1.14739e-09
5.9414e-09
-1.24538e-09
6.57428e-09
-1.36162e-09
7.25067e-09
-1.50065e-09
7.9745e-09
-1.6676e-09
8.7407e-09
-1.8674e-09
9.5312e-09
-2.10359e-09
1.0317e-08
-2.37805e-09
1.10655e-08
-2.69264e-09
1.1749e-08
-3.05193e-09
1.23469e-08
-3.46425e-09
1.28418e-08
-3.93897e-09
1.32094e-08
-4.48015e-09
1.34162e-08
-5.08038e-09
1.34223e-08
-5.7186e-09
1.31911e-08
-6.36827e-09
1.26981e-08
-7.00749e-09
1.19465e-08
-7.62141e-09
1.09666e-08
-8.19034e-09
9.79656e-09
-8.69238e-09
8.45906e-09
-9.11301e-09
6.96738e-09
-9.43979e-09
5.27674e-09
-9.58912e-09
3.25655e-09
-9.25786e-09
9.40428e-10
-7.73748e-09
-3.80406e-09
-3.09989e-10
-2.66075e-09
-7.62413e-10
-5.34719e-09
-1.2148e-09
-6.35463e-09
-1.64691e-09
-6.60325e-09
-2.14098e-09
-6.66462e-09
-2.66119e-09
-6.71333e-09
-3.23804e-09
-6.7367e-09
-3.87605e-09
-6.69309e-09
-4.44104e-09
-6.63071e-09
-4.87293e-09
-6.61032e-09
-5.27203e-09
-6.61049e-09
-5.75557e-09
-6.52452e-09
-6.29263e-09
-6.28226e-09
-6.75472e-09
-5.89985e-09
-7.04935e-09
-5.44355e-09
-7.18801e-09
-4.96435e-09
-7.22354e-09
-4.4705e-09
-7.17514e-09
-3.94524e-09
-7.0243e-09
-3.38065e-09
-6.75819e-09
-2.79052e-09
-6.38954e-09
-2.19818e-09
-5.94245e-09
-1.62063e-09
-5.43543e-09
-1.06492e-09
-4.88037e-09
-5.3471e-10
-4.28872e-09
-3.56806e-11
-3.67403e-09
4.24028e-10
-3.05085e-09
8.36096e-10
-2.43344e-09
1.19373e-09
-1.83505e-09
1.49254e-09
-1.26708e-09
1.73062e-09
-7.38813e-10
1.90765e-09
-2.57771e-10
2.02354e-09
1.70172e-10
2.0776e-09
5.41674e-10
2.06941e-09
8.56866e-10
2.00056e-09
1.11905e-09
1.87583e-09
1.33316e-09
1.7031e-09
1.50429e-09
1.49203e-09
1.6374e-09
1.25277e-09
1.73812e-09
9.95139e-10
1.81328e-09
7.28389e-10
1.87071e-09
4.61083e-10
1.91851e-09
2.00859e-10
1.96496e-09
-4.58944e-11
2.01946e-09
-2.74183e-10
2.09367e-09
-4.80218e-10
2.20148e-09
-6.61118e-10
2.35692e-09
-8.14876e-10
2.57108e-09
-9.4087e-10
2.84968e-09
-1.04072e-09
3.19268e-09
-1.11898e-09
3.59583e-09
-1.18298e-09
4.05266e-09
-1.24191e-09
4.55611e-09
-1.3052e-09
5.10013e-09
-1.38096e-09
5.68173e-09
-1.47501e-09
6.30241e-09
-1.59122e-09
6.96702e-09
-1.73305e-09
7.67906e-09
-1.90568e-09
8.43407e-09
-2.11675e-09
9.21475e-09
-2.37488e-09
9.99104e-09
-2.68676e-09
1.07266e-08
-3.05542e-09
1.13886e-08
-3.48079e-09
1.19549e-08
-3.96272e-09
1.24124e-08
-4.50401e-09
1.2748e-08
-5.11064e-09
1.29394e-08
-5.78561e-09
1.29507e-08
-6.52035e-09
1.27367e-08
-7.29104e-09
1.22649e-08
-8.06497e-09
1.15368e-08
-8.8034e-09
1.0587e-08
-9.46724e-09
9.44793e-09
-1.00281e-08
8.14252e-09
-1.04866e-08
6.68902e-09
-1.08461e-08
5.06392e-09
-1.10163e-08
3.1272e-09
-1.06232e-08
9.25543e-10
-8.82439e-09
-4.31582e-09
-2.62212e-10
-2.95897e-09
-6.54566e-10
-5.8847e-09
-1.10506e-09
-6.97289e-09
-1.57333e-09
-7.23079e-09
-2.07211e-09
-7.27089e-09
-2.53365e-09
-7.34064e-09
-3.03275e-09
-7.4284e-09
-3.65624e-09
-7.44738e-09
-4.28622e-09
-7.37796e-09
-4.77388e-09
-7.29459e-09
-5.14442e-09
-7.2427e-09
-5.53673e-09
-7.17423e-09
-6.00186e-09
-6.99554e-09
-6.45662e-09
-6.65792e-09
-6.79704e-09
-6.17844e-09
-6.98963e-09
-5.60991e-09
-7.0594e-09
-4.99496e-09
-7.02887e-09
-4.35034e-09
-6.89895e-09
-3.68049e-09
-6.66687e-09
-2.99435e-09
-6.34064e-09
-2.30729e-09
-5.93479e-09
-1.63399e-09
-5.46325e-09
-9.84874e-10
-4.93879e-09
-3.67406e-10
-4.3749e-09
2.11585e-10
-3.78577e-09
7.45334e-10
-3.18509e-09
1.22688e-09
-2.58562e-09
1.64909e-09
-1.99934e-09
2.00529e-09
-1.43765e-09
2.29035e-09
-9.11569e-10
2.50136e-09
-4.31258e-10
2.63735e-09
-4.47311e-12
2.69868e-09
3.65392e-10
2.68704e-09
6.79904e-10
2.60578e-09
9.43991e-10
2.46046e-09
1.1633e-09
2.2588e-09
1.34251e-09
2.01052e-09
1.48555e-09
1.7268e-09
1.5969e-09
1.41972e-09
1.68242e-09
1.10141e-09
1.749e-09
7.83134e-10
1.80382e-09
4.74368e-10
1.85448e-09
1.82398e-10
1.91016e-09
-8.75177e-11
1.98287e-09
-3.31564e-10
2.08705e-09
-5.4685e-10
2.23696e-09
-7.31369e-10
2.44308e-09
-8.84475e-10
2.70979e-09
-1.00766e-09
3.03569e-09
-1.10514e-09
3.41601e-09
-1.18411e-09
3.84512e-09
-1.2544e-09
4.31818e-09
-1.32734e-09
4.83203e-09
-1.41387e-09
5.38588e-09
-1.52223e-09
5.98153e-09
-1.65671e-09
6.62194e-09
-1.81892e-09
7.30801e-09
-2.01118e-09
8.03434e-09
-2.24002e-09
8.78547e-09
-2.51718e-09
9.53494e-09
-2.85701e-09
1.02488e-08
-3.27123e-09
1.08934e-08
-3.76415e-09
1.14416e-08
-4.33171e-09
1.18752e-08
-4.96607e-09
1.21814e-08
-5.66172e-09
1.23475e-08
-6.41649e-09
1.2349e-08
-7.22554e-09
1.2149e-08
-8.0758e-09
1.1715e-08
-8.9406e-09
1.10465e-08
-9.77901e-09
1.01604e-08
-1.05398e-08
9.0702e-09
-1.1186e-08
7.78662e-09
-1.17091e-08
6.35069e-09
-1.21146e-08
4.77438e-09
-1.22996e-08
2.96289e-09
-1.18439e-08
9.23121e-10
-9.79403e-09
-4.7741e-09
-2.4865e-10
-3.25275e-09
-5.97863e-10
-6.3701e-09
-1.00371e-09
-7.51289e-09
-1.48236e-09
-7.77591e-09
-2.00764e-09
-7.78576e-09
-2.45098e-09
-7.8338e-09
-2.86117e-09
-7.96897e-09
-3.4139e-09
-8.08898e-09
-4.06264e-09
-8.09575e-09
-4.63864e-09
-7.99821e-09
-5.06617e-09
-7.86851e-09
-5.43918e-09
-7.729e-09
-5.83658e-09
-7.52889e-09
-6.23834e-09
-7.20055e-09
-6.57254e-09
-6.71876e-09
-6.79848e-09
-6.10594e-09
-6.91361e-09
-5.40399e-09
-6.92494e-09
-4.6476e-09
-6.83377e-09
-3.85929e-09
-6.64256e-09
-3.0564e-09
-6.35956e-09
-2.25431e-09
-5.99569e-09
-1.46654e-09
-5.56191e-09
-7.0432e-10
-5.06982e-09
2.22063e-11
-4.53296e-09
7.03944e-10
-3.96613e-09
1.33279e-09
-3.38403e-09
1.90133e-09
-2.80005e-09
2.402e-09
-2.22599e-09
2.82715e-09
-1.6727e-09
3.16984e-09
-1.15116e-09
3.42502e-09
-6.72246e-10
3.59023e-09
-2.44669e-10
3.66595e-09
1.27606e-10
3.65547e-09
4.46151e-10
3.56449e-09
7.16277e-10
3.40054e-09
9.44084e-10
3.17262e-09
1.13456e-09
2.89121e-09
1.29162e-09
2.56832e-09
1.41919e-09
2.21732e-09
1.52185e-09
1.85184e-09
1.60472e-09
1.48446e-09
1.67312e-09
1.12552e-09
1.73331e-09
7.82814e-10
1.794e-09
4.6217e-10
1.86758e-09
1.68323e-10
1.96921e-09
-9.47201e-11
2.11353e-09
-3.24155e-10
2.31072e-09
-5.19318e-10
2.56411e-09
-6.8233e-10
2.87086e-09
-8.18111e-10
3.22481e-09
-9.3398e-10
3.61999e-09
-1.03935e-09
4.05301e-09
-1.1453e-09
4.5243e-09
-1.26346e-09
5.03759e-09
-1.40381e-09
5.59768e-09
-1.57255e-09
6.20691e-09
-1.77158e-09
6.86205e-09
-2.00087e-09
7.55272e-09
-2.26292e-09
8.26139e-09
-2.56678e-09
8.96473e-09
-2.92898e-09
9.6366e-09
-3.36912e-09
1.0251e-08
-3.90227e-09
1.07834e-08
-4.53295e-09
1.121e-08
-5.25542e-09
1.1511e-08
-6.05678e-09
1.16703e-08
-6.91894e-09
1.16688e-08
-7.82067e-09
1.14783e-08
-8.74136e-09
1.108e-08
-9.66243e-09
1.04742e-08
-1.05583e-08
9.66605e-09
-1.13944e-08
8.63859e-09
-1.21293e-08
7.38925e-09
-1.27339e-08
5.96927e-09
-1.31837e-08
4.43592e-09
-1.33671e-08
2.74777e-09
-1.28367e-08
8.59087e-10
-1.05747e-08
-5.09292e-09
-2.43178e-10
-3.52877e-09
-5.68461e-10
-6.82641e-09
-9.15387e-10
-8.01613e-09
-1.35452e-09
-8.30752e-09
-1.91411e-09
-8.30296e-09
-2.38734e-09
-8.31164e-09
-2.76088e-09
-8.44002e-09
-3.21077e-09
-8.6421e-09
-3.80209e-09
-8.76814e-09
-4.4086e-09
-8.74086e-09
-4.91506e-09
-8.58395e-09
-5.33039e-09
-8.35735e-09
-5.71222e-09
-8.06809e-09
-6.06754e-09
-7.68113e-09
-6.36956e-09
-7.16417e-09
-6.59531e-09
-6.51611e-09
-6.73693e-09
-5.76061e-09
-6.7879e-09
-4.92875e-09
-6.74164e-09
-4.05013e-09
-6.59712e-09
-3.14945e-09
-6.36027e-09
-2.24671e-09
-6.0404e-09
-1.35691e-09
-5.64738e-09
-4.92866e-10
-5.19209e-09
3.33579e-10
-4.68729e-09
1.11078e-09
-4.14778e-09
1.8283e-09
-3.58914e-09
2.47697e-09
-3.026e-09
3.04888e-09
-2.47078e-09
3.53692e-09
-1.93415e-09
3.93471e-09
-1.42629e-09
4.23684e-09
-9.57206e-10
4.43964e-09
-5.35011e-10
4.54236e-09
-1.6363e-10
4.54781e-09
1.5803e-10
4.46234e-09
4.34622e-10
4.29493e-09
6.7188e-10
4.05628e-09
8.74874e-10
3.7583e-09
1.04767e-09
3.4139e-09
1.19373e-09
3.03668e-09
1.31616e-09
2.63995e-09
1.41782e-09
2.23567e-09
1.50181e-09
1.83368e-09
1.57303e-09
1.44194e-09
1.64008e-09
1.0676e-09
1.7159e-09
7.17809e-10
1.81605e-09
3.99511e-10
1.95494e-09
1.1786e-10
2.14192e-09
-1.25561e-10
2.3794e-09
-3.33517e-10
2.66372e-09
-5.1226e-10
2.98798e-09
-6.69868e-10
3.34573e-09
-8.15012e-10
3.73422e-09
-9.56868e-10
4.15662e-09
-1.10541e-09
4.62146e-09
-1.27108e-09
5.13853e-09
-1.46327e-09
5.71255e-09
-1.68839e-09
6.33807e-09
-1.94909e-09
6.99832e-09
-2.24629e-09
7.66881e-09
-2.58387e-09
8.32365e-09
-2.97305e-09
8.94165e-09
-3.43253e-09
9.50713e-09
-3.98304e-09
1.00049e-08
-4.64159e-09
1.04167e-08
-5.41722e-09
1.07228e-08
-6.30644e-09
1.0904e-08
-7.28581e-09
1.09324e-08
-8.313e-09
1.07754e-08
-9.34228e-09
1.04132e-08
-1.03419e-08
9.85568e-09
-1.12996e-08
9.10674e-09
-1.22057e-08
8.14929e-09
-1.3035e-08
6.95853e-09
-1.37323e-08
5.58416e-09
-1.42382e-08
4.09009e-09
-1.44179e-08
2.4779e-09
-1.38206e-08
6.93284e-10
-1.1369e-08
-5.40701e-09
-2.50421e-10
-3.74601e-09
-5.71403e-10
-7.21051e-09
-8.51033e-10
-8.45592e-09
-1.21137e-09
-8.79473e-09
-1.76088e-09
-8.83063e-09
-2.29632e-09
-8.81359e-09
-2.70049e-09
-8.89625e-09
-3.08672e-09
-9.10405e-09
-3.56663e-09
-9.32736e-09
-4.11738e-09
-9.42374e-09
-4.6438e-09
-9.34143e-09
-5.1092e-09
-9.10568e-09
-5.51484e-09
-8.75285e-09
-5.86265e-09
-8.29003e-09
-6.14566e-09
-7.71196e-09
-6.36387e-09
-7.02013e-09
-6.51651e-09
-6.22711e-09
-6.59556e-09
-5.35452e-09
-6.58917e-09
-4.42767e-09
-6.49043e-09
-3.47311e-09
-6.30063e-09
-2.51302e-09
-6.02644e-09
-1.56523e-09
-5.67739e-09
-6.43592e-10
-5.26413e-09
2.3887e-10
-4.79892e-09
1.06961e-09
-4.29565e-09
1.83641e-09
-3.76949e-09
2.52875e-09
-3.23522e-09
3.13839e-09
-2.70589e-09
3.65954e-09
-2.19277e-09
4.08781e-09
-1.70615e-09
4.41936e-09
-1.25523e-09
4.65083e-09
-8.46791e-10
4.78055e-09
-4.83616e-10
4.81002e-09
-1.6429e-10
4.74465e-09
1.15359e-10
4.59339e-09
3.60278e-10
4.36776e-09
5.74842e-10
4.08064e-09
7.62408e-10
3.74536e-09
9.25252e-10
3.37479e-09
1.0646e-09
2.98056e-09
1.18112e-09
2.5725e-09
1.27635e-09
2.15881e-09
1.35501e-09
1.74701e-09
1.42666e-09
1.34532e-09
1.50527e-09
9.6334e-10
1.60624e-09
6.11068e-10
1.74231e-09
2.96463e-10
1.92058e-09
2.27624e-11
2.14193e-09
-2.12624e-10
2.40261e-09
-4.1693e-10
2.69657e-09
-5.99245e-10
3.01806e-09
-7.6798e-10
3.36461e-09
-9.29986e-10
3.74004e-09
-1.0917e-09
4.15507e-09
-1.26115e-09
4.62365e-09
-1.44922e-09
5.15527e-09
-1.66854e-09
5.74694e-09
-1.93049e-09
6.37953e-09
-2.24266e-09
7.0215e-09
-2.6097e-09
7.63985e-09
-3.03716e-09
8.21071e-09
-3.53432e-09
8.72144e-09
-4.11494e-09
9.16403e-09
-4.79637e-09
9.53166e-09
-5.59896e-09
9.82127e-09
-6.53687e-09
1.00249e-08
-7.60273e-09
1.01111e-08
-8.75601e-09
1.00234e-08
-9.93298e-09
9.7196e-09
-1.10744e-08
9.19795e-09
-1.2151e-08
8.48499e-09
-1.31622e-08
7.58883e-09
-1.40948e-08
6.49168e-09
-1.48946e-08
5.20345e-09
-1.54725e-08
3.76796e-09
-1.56807e-08
2.18846e-09
-1.50482e-08
4.99865e-10
-1.24211e-08
-5.93273e-09
-2.75139e-10
-3.91072e-09
-5.99728e-10
-7.52786e-09
-8.40297e-10
-8.81246e-09
-1.09266e-09
-9.20147e-09
-1.56785e-09
-9.31719e-09
-2.12349e-09
-9.34915e-09
-2.61017e-09
-9.40301e-09
-3.00768e-09
-9.56334e-09
-3.41071e-09
-9.79202e-09
-3.85508e-09
-9.97239e-09
-4.32625e-09
-9.99916e-09
-4.78644e-09
-9.84045e-09
-5.20927e-09
-9.50698e-09
-5.56991e-09
-9.0203e-09
-5.86044e-09
-8.40133e-09
-6.08604e-09
-7.66972e-09
-6.25301e-09
-6.84527e-09
-6.35737e-09
-5.94652e-09
-6.38751e-09
-4.99568e-09
-6.33347e-09
-4.01561e-09
-6.19153e-09
-3.0291e-09
-5.96546e-09
-2.05471e-09
-5.66356e-09
-1.10821e-09
-5.29689e-09
-2.02719e-10
-4.87742e-09
6.49061e-10
-4.41811e-09
1.43517e-09
-3.93228e-09
2.1447e-09
-3.43325e-09
2.76937e-09
-2.93372e-09
3.30374e-09
-2.44601e-09
3.74456e-09
-1.98171e-09
4.08947e-09
-1.55051e-09
4.33649e-09
-1.15838e-09
4.48474e-09
-8.06565e-10
4.53574e-09
-4.92387e-10
4.49441e-09
-2.11315e-10
4.3692e-09
4.09875e-11
4.17125e-09
2.6754e-10
3.91313e-09
4.69772e-10
3.60739e-09
6.47593e-10
3.26549e-09
7.99751e-10
2.89708e-09
9.25026e-10
2.51013e-09
1.02454e-09
2.11173e-09
1.1043e-09
1.70934e-09
1.17622e-09
1.31195e-09
1.25597e-09
9.30216e-10
1.35856e-09
5.75121e-10
1.49399e-09
2.55517e-10
1.6656e-09
-2.44539e-11
1.87172e-09
-2.66662e-10
2.10862e-09
-4.78186e-10
2.37252e-09
-6.68745e-10
2.66042e-09
-8.47453e-10
2.97125e-09
-1.02055e-09
3.30801e-09
-1.19131e-09
3.67959e-09
-1.36287e-09
4.09944e-09
-1.54226e-09
4.57981e-09
-1.74312e-09
5.12293e-09
-1.98436e-09
5.71372e-09
-2.28546e-09
6.32081e-09
-2.662e-09
6.90737e-09
-3.12321e-09
7.44447e-09
-3.67305e-09
7.91362e-09
-4.31271e-09
8.30264e-09
-5.04708e-09
8.60886e-09
-5.88867e-09
8.84799e-09
-6.85663e-09
9.03977e-09
-7.96244e-09
9.16689e-09
-9.19347e-09
9.16076e-09
-1.05002e-08
8.93725e-09
-1.18076e-08
8.46689e-09
-1.30505e-08
7.78144e-09
-1.41965e-08
6.94683e-09
-1.5231e-08
5.96023e-09
-1.6111e-08
4.80138e-09
-1.67627e-08
3.45258e-09
-1.70223e-08
1.94205e-09
-1.63948e-08
3.90455e-10
-1.36122e-08
-6.63242e-09
-2.90374e-10
-4.04194e-09
-6.33296e-10
-7.78504e-09
-8.70956e-10
-9.09519e-09
-1.05401e-09
-9.48584e-09
-1.39423e-09
-9.67637e-09
-1.89329e-09
-9.80771e-09
-2.4202e-09
-9.91722e-09
-2.88376e-09
-1.00514e-08
-3.27916e-09
-1.02366e-08
-3.65471e-09
-1.04133e-08
-4.04122e-09
-1.04948e-08
-4.44564e-09
-1.0413e-08
-4.84194e-09
-1.01419e-08
-5.20027e-09
-9.68674e-09
-5.50235e-09
-9.07108e-09
-5.7475e-09
-8.32748e-09
-5.93906e-09
-7.48415e-09
-6.07373e-09
-6.56651e-09
-6.14206e-09
-5.59552e-09
-6.13296e-09
-4.59384e-09
-6.04058e-09
-3.58243e-09
-5.86542e-09
-2.5819e-09
-5.61456e-09
-1.60917e-09
-5.29842e-09
-6.79049e-10
-4.92914e-09
1.96186e-10
-4.51868e-09
1.00512e-09
-4.07852e-09
1.73776e-09
-3.61967e-09
2.38572e-09
-3.15374e-09
2.94292e-09
-2.69341e-09
3.40529e-09
-2.25166e-09
3.77047e-09
-1.83921e-09
4.0375e-09
-1.46193e-09
4.20721e-09
-1.12005e-09
4.28272e-09
-8.09643e-10
4.26972e-09
-5.25606e-10
4.17638e-09
-2.64145e-10
4.01271e-09
-2.3995e-11
3.78963e-09
1.93597e-10
3.5178e-09
3.85518e-10
3.2068e-09
5.4793e-10
2.86492e-09
6.7826e-10
2.49961e-09
7.78011e-10
2.11855e-09
8.55178e-10
1.73048e-09
9.24233e-10
1.34547e-09
1.00258e-09
9.74217e-10
1.10483e-09
6.26677e-10
1.23825e-09
3.10422e-10
1.40233e-09
2.92117e-11
1.59234e-09
-2.17847e-10
1.80393e-09
-4.36427e-10
2.0357e-09
-6.3595e-10
2.28898e-09
-8.27181e-10
2.56653e-09
-1.01869e-09
2.87214e-09
-1.21414e-09
3.21136e-09
-1.41274e-09
3.59206e-09
-1.61406e-09
4.02273e-09
-1.82476e-09
4.50672e-09
-2.06264e-09
5.03497e-09
-2.35507e-09
5.58368e-09
-2.73159e-09
6.12242e-09
-3.21509e-09
6.62364e-09
-3.81476e-09
7.0639e-09
-4.52758e-09
7.4198e-09
-5.34386e-09
7.67967e-09
-6.2575e-09
7.86209e-09
-7.27005e-09
8.00672e-09
-8.39534e-09
8.12634e-09
-9.64733e-09
8.1662e-09
-1.10159e-08
8.02507e-09
-1.24415e-08
7.62884e-09
-1.38313e-08
7.00113e-09
-1.51047e-08
6.23263e-09
-1.62115e-08
5.36362e-09
-1.71325e-08
4.34192e-09
-1.7821e-08
3.11431e-09
-1.81222e-08
1.74368e-09
-1.7486e-08
3.67549e-10
-1.4569e-08
-7.19175e-09
-2.67216e-10
-4.18442e-09
-6.22756e-10
-8.05474e-09
-9.02577e-10
-9.36754e-09
-1.07412e-09
-9.71535e-09
-1.30358e-09
-9.90502e-09
-1.67109e-09
-1.0134e-08
-2.15716e-09
-1.03577e-08
-2.64803e-09
-1.05555e-08
-3.07871e-09
-1.07303e-08
-3.44055e-09
-1.08768e-08
-3.77752e-09
-1.09501e-08
-4.11761e-09
-1.08949e-08
-4.46212e-09
-1.06688e-08
-4.79121e-09
-1.0257e-08
-5.08893e-09
-9.67443e-09
-5.34792e-09
-8.94886e-09
-5.5633e-09
-8.11398e-09
-5.72861e-09
-7.19641e-09
-5.83301e-09
-6.22138e-09
-5.86671e-09
-5.20959e-09
-5.82241e-09
-4.18338e-09
-5.69949e-09
-3.16281e-09
-5.50249e-09
-2.16728e-09
-5.24073e-09
-1.21233e-09
-4.92522e-09
-3.112e-10
-4.56725e-09
5.25586e-10
-4.17681e-09
1.28861e-09
-3.76336e-09
1.96969e-09
-3.33716e-09
2.56147e-09
-2.91049e-09
3.05813e-09
-2.49638e-09
3.45592e-09
-2.10578e-09
3.75399e-09
-1.74446e-09
3.95462e-09
-1.41234e-09
4.06282e-09
-1.10522e-09
4.08553e-09
-8.18175e-10
4.03066e-09
-5.48401e-10
3.90649e-09
-2.96581e-10
3.72127e-09
-6.65941e-11
3.48298e-09
1.35792e-10
3.19933e-09
3.04867e-10
2.87812e-09
4.37525e-10
2.52788e-09
5.36066e-10
2.15854e-09
6.10052e-10
1.78135e-09
6.75431e-10
1.40793e-09
7.5026e-10
1.04869e-09
8.48583e-10
7.11537e-10
9.75943e-10
4.01433e-10
1.12929e-09
1.20828e-10
1.30125e-09
-1.3014e-10
1.48577e-09
-3.54423e-10
1.6821e-09
-5.59365e-10
1.89536e-09
-7.56519e-10
2.13444e-09
-9.58587e-10
2.40822e-09
-1.17424e-09
2.72235e-09
-1.40475e-09
3.07828e-09
-1.64579e-09
3.47441e-09
-1.89492e-09
3.90632e-09
-2.16051e-09
4.36458e-09
-2.4662e-09
4.83453e-09
-2.84752e-09
5.29992e-09
-3.34005e-09
5.74641e-09
-3.9679e-09
6.15458e-09
-4.73637e-09
6.49576e-09
-5.63546e-09
6.74378e-09
-6.64265e-09
6.90091e-09
-7.73557e-09
7.00042e-09
-8.90545e-09
7.07409e-09
-1.01712e-08
7.10665e-09
-1.15532e-08
7.01546e-09
-1.30298e-08
6.71047e-09
-1.45124e-08
6.17567e-09
-1.58808e-08
5.49768e-09
-1.70442e-08
4.73096e-09
-1.7979e-08
3.84238e-09
-1.86752e-08
2.7538e-09
-1.89775e-08
1.56471e-09
-1.82867e-08
3.37249e-10
-1.5205e-08
-7.47605e-09
-1.75713e-10
-4.35766e-09
-5.41047e-10
-8.38695e-09
-8.58639e-10
-9.72815e-09
-1.09054e-09
-9.99828e-09
-1.27129e-09
-1.01186e-08
-1.52369e-09
-1.03595e-08
-1.8919e-09
-1.06904e-08
-2.33769e-09
-1.10032e-08
-2.76743e-09
-1.12475e-08
-3.1408e-09
-1.14051e-08
-3.46408e-09
-1.14668e-08
-3.76802e-09
-1.14074e-08
-4.06653e-09
-1.11962e-08
-4.35958e-09
-1.08181e-08
-4.64114e-09
-1.02756e-08
-4.90231e-09
-9.59213e-09
-5.13374e-09
-8.79316e-09
-5.32229e-09
-7.90839e-09
-5.45672e-09
-6.96047e-09
-5.52621e-09
-5.97269e-09
-5.52518e-09
-4.96433e-09
-5.45139e-09
-3.95608e-09
-5.30809e-09
-2.96581e-09
-5.10174e-09
-2.01042e-09
-4.8418e-09
-1.10324e-09
-4.53801e-09
-2.55555e-10
-4.19977e-09
5.23588e-10
-3.83578e-09
1.22573e-09
-3.45564e-09
1.84292e-09
-3.07043e-09
2.36783e-09
-2.69182e-09
2.79541e-09
-2.32941e-09
3.12416e-09
-1.98832e-09
3.35672e-09
-1.66865e-09
3.49905e-09
-1.36726e-09
3.55875e-09
-1.08073e-09
3.54341e-09
-8.08032e-10
3.45969e-09
-5.51707e-10
3.31341e-09
-3.17399e-10
3.11012e-09
-1.1218e-10
2.85607e-09
5.77611e-11
2.55911e-09
1.89712e-10
2.22932e-09
2.86761e-10
1.87912e-09
3.58885e-10
1.52229e-09
4.21607e-10
1.17203e-09
4.91932e-10
8.38596e-10
5.82986e-10
5.27825e-10
6.99989e-10
2.41548e-10
8.39731e-10
-2.03948e-11
9.93696e-10
-2.58291e-10
1.15336e-09