/*--------------------------------*- C++ -*----------------------------------*\
| =========                 |                                                 |
| \\      /  F ield         | OpenFOAM: The Open Source CFD Toolbox           |
|  \\    /   O peration     | Version:  2412                                  |
|   \\  /    A nd           | Website:  www.openfoam.com                      |
|    \\/     M anipulation  |                                                 |
\*---------------------------------------------------------------------------*/
FoamFile
{
    version     2.0;
    format      ascii;
    arch        "LSB;label=32;scalar=64";
    class       volScalarField;
    location    "9.3";
    object      p_rgh;
}
// * * * * * * * * * * * * * * * * * * * * * * * * * * * * * * * * * * * * * //

dimensions      [1 -1 -2 0 0 0 0];

internalField   nonuniform List<scalar> 
6400
(
7802.67
7802.07
7800.95
7799.33
7797.25
7794.76
7791.91
7788.77
7785.42
7781.94
7778.39
7774.86
7771.42
7768.11
7765
7762.13
7759.53
7757.22
7755.21
7753.5
7752.09
7750.95
7750.08
7749.43
7748.99
7748.72
7748.59
7748.56
7748.63
7748.74
7748.9
7749.07
7749.25
7749.41
7749.56
7749.68
7749.77
7749.83
7749.86
7749.84
7749.79
7749.7
7749.56
7749.38
7749.16
7748.9
7748.6
7748.27
7747.92
7747.57
7747.22
7746.89
7746.63
7746.44
7746.37
7746.44
7746.69
7747.16
7747.88
7748.87
7750.15
7751.76
7753.69
7755.95
7758.51
7761.37
7764.49
7767.81
7771.3
7774.87
7778.46
7782
7785.41
7788.6
7791.5
7794.04
7796.15
7797.79
7798.93
7799.55
7803.28
7802.65
7801.49
7799.83
7797.7
7795.14
7792.23
7789.02
7785.6
7782.04
7778.43
7774.83
7771.31
7767.95
7764.79
7761.88
7759.24
7756.91
7754.9
7753.19
7751.79
7750.67
7749.81
7749.19
7748.78
7748.54
7748.43
7748.44
7748.53
7748.67
7748.84
7749.03
7749.22
7749.39
7749.55
7749.68
7749.78
7749.84
7749.87
7749.86
7749.8
7749.71
7749.57
7749.39
7749.17
7748.9
7748.6
7748.26
7747.89
7747.52
7747.14
7746.8
7746.5
7746.29
7746.18
7746.22
7746.44
7746.88
7747.57
7748.55
7749.83
7751.43
7753.37
7755.64
7758.24
7761.14
7764.31
7767.7
7771.25
7774.89
7778.56
7782.18
7785.66
7788.92
7791.89
7794.49
7796.66
7798.35
7799.52
7800.16
7804.42
7803.77
7802.55
7800.81
7798.57
7795.9
7792.85
7789.49
7785.92
7782.21
7778.45
7774.71
7771.06
7767.59
7764.34
7761.35
7758.67
7756.3
7754.27
7752.58
7751.2
7750.12
7749.31
7748.75
7748.39
7748.21
7748.16
7748.22
7748.36
7748.55
7748.76
7748.98
7749.19
7749.39
7749.56
7749.71
7749.81
7749.88
7749.91
7749.91
7749.86
7749.77
7749.63
7749.45
7749.22
7748.94
7748.62
7748.26
7747.87
7747.45
7747.04
7746.64
7746.29
7746.01
7745.84
7745.81
7745.97
7746.35
7746.99
7747.92
7749.17
7750.77
7752.72
7755.02
7757.68
7760.66
7763.92
7767.43
7771.11
7774.9
7778.73
7782.5
7786.13
7789.54
7792.65
7795.37
7797.64
7799.42
7800.65
7801.31
7806.13
7805.44
7804.14
7802.27
7799.88
7797.02
7793.76
7790.18
7786.37
7782.43
7778.43
7774.48
7770.65
7767.01
7763.61
7760.52
7757.77
7755.37
7753.33
7751.65
7750.31
7749.29
7748.56
7748.08
7747.82
7747.73
7747.78
7747.93
7748.14
7748.4
7748.67
7748.94
7749.19
7749.41
7749.61
7749.76
7749.88
7749.96
7750
7750
7749.96
7749.87
7749.73
7749.55
7749.31
7749.02
7748.68
7748.29
7747.86
7747.39
7746.91
7746.44
7745.99
7745.62
7745.34
7745.21
7745.27
7745.55
7746.11
7746.97
7748.18
7749.76
7751.72
7754.07
7756.8
7759.88
7763.29
7766.97
7770.85
7774.87
7778.93
7782.94
7786.82
7790.47
7793.8
7796.71
7799.14
7801.04
7802.35
7803.05
7808.47
7807.72
7806.3
7804.27
7801.65
7798.53
7794.98
7791.09
7786.95
7782.68
7778.38
7774.13
7770.03
7766.17
7762.6
7759.37
7756.52
7754.07
7752.02
7750.38
7749.11
7748.18
7747.56
7747.21
7747.08
7747.12
7747.3
7747.57
7747.89
7748.23
7748.58
7748.91
7749.21
7749.47
7749.69
7749.87
7750
7750.09
7750.13
7750.14
7750.1
7750.01
7749.88
7749.7
7749.46
7749.15
7748.79
7748.36
7747.88
7747.34
7746.77
7746.19
7745.63
7745.13
7744.71
7744.43
7744.34
7744.48
7744.91
7745.68
7746.82
7748.36
7750.32
7752.72
7755.55
7758.78
7762.39
7766.31
7770.47
7774.79
7779.17
7783.53
7787.74
7791.72
7795.34
7798.52
7801.18
7803.24
7804.67
7805.44
7811.49
7810.66
7809.09
7806.83
7803.94
7800.47
7796.53
7792.22
7787.66
7782.97
7778.25
7773.63
7769.2
7765.03
7761.22
7757.82
7754.87
7752.37
7750.33
7748.74
7747.56
7746.77
7746.3
7746.12
7746.16
7746.38
7746.72
7747.14
7747.6
7748.06
7748.51
7748.92
7749.27
7749.57
7749.82
7750.01
7750.15
7750.25
7750.3
7750.31
7750.28
7750.21
7750.09
7749.91
7749.67
7749.35
7748.96
7748.49
7747.94
7747.32
7746.65
7745.94
7745.22
7744.54
7743.93
7743.46
7743.17
7743.13
7743.4
7744.02
7745.06
7746.54
7748.51
7750.96
7753.91
7757.32
7761.17
7765.39
7769.91
7774.63
7779.44
7784.23
7788.89
7793.29
7797.31
7800.84
7803.79
7806.08
7807.67
7808.51
7815.28
7814.35
7812.58
7810.04
7806.77
7802.85
7798.41
7793.58
7788.48
7783.25
7778.02
7772.92
7768.06
7763.55
7759.46
7755.85
7752.77
7750.22
7748.19
7746.68
7745.63
7745.01
7744.75
7744.79
7745.06
7745.51
7746.06
7746.67
7747.3
7747.91
7748.47
7748.96
7749.38
7749.73
7750
7750.2
7750.35
7750.45
7750.51
7750.53
7750.52
7750.46
7750.35
7750.19
7749.95
7749.63
7749.22
7748.7
7748.08
7747.36
7746.55
7745.67
7744.76
7743.86
7743.02
7742.3
7741.76
7741.48
7741.52
7741.96
7742.85
7744.25
7746.19
7748.71
7751.79
7755.43
7759.57
7764.17
7769.14
7774.35
7779.7
7785.05
7790.27
7795.21
7799.74
7803.73
7807.06
7809.64
7811.43
7812.36
7819.95
7818.89
7816.88
7813.96
7810.19
7805.69
7800.62
7795.13
7789.37
7783.5
7777.64
7771.96
7766.58
7761.64
7757.2
7753.35
7750.12
7747.52
7745.54
7744.14
7743.28
7742.89
7742.9
7743.23
7743.79
7744.52
7745.33
7746.18
7747.02
7747.79
7748.49
7749.08
7749.57
7749.95
7750.24
7750.46
7750.61
7750.71
7750.77
7750.79
7750.79
7750.76
7750.67
7750.53
7750.31
7750
7749.57
7749.01
7748.31
7747.48
7746.51
7745.44
7744.3
7743.13
7741.99
7740.96
7740.1
7739.5
7739.25
7739.43
7740.13
7741.4
7743.3
7745.87
7749.11
7753
7757.52
7762.58
7768.08
7773.92
7779.92
7785.95
7791.85
7797.47
7802.64
7807.23
7811.08
7814.04
7816.06
7817.1
7825.62
7824.44
7822.11
7818.66
7814.21
7808.96
7803.12
7796.85
7790.31
7783.65
7777.03
7770.64
7764.65
7759.18
7754.34
7750.22
7746.84
7744.2
7742.29
7741.07
7740.45
7740.37
7740.73
7741.42
7742.35
7743.44
7744.58
7745.72
7746.8
7747.77
7748.62
7749.3
7749.85
7750.27
7750.57
7750.77
7750.9
7750.99
7751.04
7751.08
7751.1
7751.09
7751.05
7750.95
7750.76
7750.47
7750.04
7749.45
7748.68
7747.72
7746.58
7745.28
7743.86
7742.36
7740.86
7739.43
7738.16
7737.16
7736.53
7736.38
7736.82
7737.92
7739.74
7742.34
7745.75
7749.95
7754.9
7760.52
7766.68
7773.25
7780.05
7786.89
7793.59
7800
7805.97
7811.34
7815.87
7819.35
7821.7
7822.87
7832.52
7831.15
7828.36
7824.2
7818.87
7812.68
7805.88
7798.68
7791.22
7783.63
7776.1
7768.87
7762.14
7756.06
7750.76
7746.33
7742.79
7740.15
7738.37
7737.38
7737.1
7737.42
7738.22
7739.37
7740.77
7742.29
7743.84
7745.33
7746.69
7747.88
7748.89
7749.66
7750.27
7750.7
7750.98
7751.15
7751.25
7751.31
7751.35
7751.39
7751.43
7751.47
7751.48
7751.45
7751.33
7751.09
7750.68
7750.07
7749.23
7748.14
7746.81
7745.25
7743.5
7741.6
7739.65
7737.73
7735.95
7734.45
7733.34
7732.76
7732.84
7733.69
7735.39
7738.02
7741.6
7746.14
7751.59
7757.86
7764.81
7772.26
7780
7787.8
7795.45
7802.82
7809.76
7816.09
7821.52
7825.72
7828.53
7829.86
7840.89
7839.19
7835.81
7830.74
7824.32
7816.99
7809.02
7800.7
7792.11
7783.39
7774.78
7766.53
7758.91
7752.11
7746.29
7741.52
7737.83
7735.22
7733.63
7732.97
7733.13
7733.97
7735.34
7737.08
7739.05
7741.11
7743.14
7745.04
7746.73
7748.17
7749.34
7750.23
7750.86
7751.28
7751.51
7751.62
7751.66
7751.66
7751.66
7751.7
7751.77
7751.87
7751.97
7752.04
7752.02
7751.87
7751.51
7750.91
7750.02
7748.81
7747.27
7745.41
7743.26
7740.9
7738.4
7735.88
7733.47
7731.33
7729.61
7728.48
7728.1
7728.6
7730.11
7732.72
7736.48
7741.39
7747.42
7754.45
7762.34
7770.86
7779.75
7788.71
7797.52
7806.05
7814.16
7821.65
7828.18
7833.31
7836.7
7838.29
7850.6
7848.8
7844.74
7838.63
7830.94
7822.15
7812.83
7803.07
7793.06
7782.9
7772.93
7763.45
7754.77
7747.13
7740.7
7735.57
7731.76
7729.23
7727.93
7727.73
7728.47
7729.98
7732.07
7734.55
7737.23
7739.95
7742.56
7744.95
7747.02
7748.74
7750.08
7751.05
7751.68
7752.04
7752.17
7752.16
7752.08
7751.99
7751.95
7751.97
7752.08
7752.26
7752.49
7752.71
7752.85
7752.84
7752.6
7752.05
7751.14
7749.81
7748.04
7745.84
7743.24
7740.31
7737.16
7733.91
7730.72
7727.78
7725.28
7723.44
7722.45
7722.49
7723.71
7726.24
7730.15
7735.47
7742.16
7750.11
7759.13
7768.95
7779.26
7789.7
7800.01
7809.97
7819.4
7828.37
7836.22
7842.41
7846.53
7848.43
7862.78
7860.49
7855.59
7848.34
7839.29
7828.75
7817.67
7806.03
7794.1
7782.12
7770.43
7759.43
7749.48
7740.86
7733.75
7728.24
7724.34
7722.01
7721.11
7721.51
7723.01
7725.38
7728.39
7731.8
7735.37
7738.89
7742.2
7745.16
7747.66
7749.68
7751.18
7752.2
7752.78
7753
7752.97
7752.78
7752.52
7752.29
7752.16
7752.17
7752.3
7752.62
7753.03
7753.46
7753.83
7754.04
7753.98
7753.55
7752.65
7751.22
7749.22
7746.64
7743.52
7739.93
7735.99
7731.84
7727.69
7723.75
7720.28
7717.53
7715.75
7715.16
7715.97
7718.34
7722.37
7728.13
7735.57
7744.59
7754.98
7766.42
7778.52
7790.88
7803.15
7814.9
7826.21
7836.79
7846.08
7853.43
7858.36
7860.66
7877.35
7874.62
7868.78
7860.21
7849.51
7837.17
7823.77
7809.69
7795.29
7780.95
7767.11
7754.23
7742.74
7732.97
7725.11
7719.23
7715.29
7713.26
7712.93
7714.13
7716.62
7720.1
7724.27
7728.84
7733.5
7738.01
7742.16
7745.77
7748.77
7751.1
7752.75
7753.76
7754.22
7754.23
7753.93
7753.46
7752.95
7752.53
7752.27
7752.24
7752.48
7752.93
7753.55
7754.27
7754.97
7755.51
7755.73
7755.5
7754.69
7753.19
7750.96
7747.96
7744.24
7739.87
7734.97
7729.73
7724.39
7719.21
7714.51
7710.59
7707.78
7706.37
7706.61
7708.69
7712.8
7718.99
7727.29
7737.58
7749.64
7763.08
7777.45
7792.27
7807.08
7821.3
7834.85
7847.33
7858.17
7866.88
7872.6
7875.37
7894.72
7891.47
7884.71
7874.74
7862.11
7847.4
7831.19
7814.05
7796.54
7779.22
7762.68
7747.49
7734.15
7723.04
7714.36
7708.13
7704.23
7702.66
7703.12
7705.38
7709.14
7714.04
7719.69
7725.7
7731.72
7737.43
7742.58
7746.96
7750.52
7753.17
7754.93
7755.86
7756.08
7755.75
7755.04
7754.17
7753.28
7752.56
7752.11
7752.03
7752.33
7753
7753.96
7755.11
7756.27
7757.28
7757.93
7758.02
7757.38
7755.87
7753.41
7749.96
7745.55
7740.28
7734.23
7727.66
7720.84
7714.11
7707.84
7702.45
7698.31
7695.81
7695.26
7696.88
7700.96
7707.59
7716.85
7728.65
7742.74
7758.67
7775.89
7793.82
7811.81
7829.24
7845.57
7860.36
7872.99
7882.94
7889.65
7892.9
7915.32
7911.51
7903.75
7892.2
7877.31
7859.67
7839.99
7819.06
7797.69
7776.68
7756.78
7738.7
7723.09
7710.43
7700.93
7694.45
7690.85
7689.85
7691.32
7694.96
7700.38
7707.1
7714.62
7722.45
7730.15
7737.32
7743.68
7748.95
7753.12
7756.08
7757.89
7758.63
7758.47
7757.62
7756.33
7754.86
7753.45
7752.3
7751.59
7751.42
7751.82
7752.77
7754.18
7755.9
7757.73
7759.4
7760.66
7761.24
7760.91
7759.48
7756.82
7752.9
7747.69
7741.38
7733.95
7725.75
7717.1
7708.42
7700.17
7692.87
7687.03
7683.11
7681.49
7682.44
7686.27
7693.26
7703.57
7717.18
7733.77
7752.8
7773.61
7795.41
7817.37
7838.66
7858.47
7876.02
7890.77
7902.19
7909.88
7913.65
7939.56
7935.14
7926.29
7912.97
7895.5
7874.36
7850.41
7824.76
7798.58
7772.96
7748.86
7727.17
7708.73
7694.26
7684.02
7677.49
7674.41
7674.28
7677.07
7682.49
7690.04
7699.11
7709.02
7719.15
7728.94
7737.89
7745.68
7752.03
7756.85
7760.12
7761.89
7762.29
7761.54
7759.9
7757.78
7755.48
7753.33
7751.61
7750.52
7750.22
7750.75
7752.08
7754.09
7756.6
7759.33
7761.94
7764.06
7765.35
7765.49
7764.27
7761.48
7757.05
7750.99
7743.35
7734.28
7724.09
7713.17
7702.03
7691.29
7681.57
7673.55
7667.81
7664.82
7664.85
7668.01
7675.16
7686.55
7702.34
7722.06
7745
7770.29
7796.93
7823.85
7849.89
7873.87
7894.76
7911.93
7924.96
7933.69
7938.02
7968.08
7962.9
7952.92
7937.74
7917.33
7891.96
7862.71
7831.07
7798.82
7767.42
7738.04
7711.79
7689.77
7673.14
7662.79
7657.23
7654.56
7655.2
7659.56
7667.27
7677.6
7689.69
7702.64
7715.66
7728.05
7739.23
7748.78
7756.4
7761.98
7765.54
7767.18
7767.06
7765.44
7762.57
7759.37
7755.93
7752.76
7750.24
7748.65
7748.16
7748.85
7750.67
7753.49
7757.06
7761.02
7764.91
7768.27
7770.55
7771.4
7770.51
7767.65
7762.68
7755.6
7746.39
7735.27
7722.6
7708.86
7694.67
7680.77
7667.98
7657.16
7649.13
7644.59
7643.63
7645.43
7652.14
7664.44
7682.88
7706.56
7734.41
7765.33
7798.09
7831.31
7863.35
7892.44
7917.26
7937.01
7951.76
7961.64
7966.63
7999.2
7994.81
7984.15
7967.34
7943.95
7913.65
7877.9
7838.65
7798.89
7760.46
7724.57
7692.45
7665.6
7645.95
7636.65
7632.97
7629.22
7630.02
7636.46
7647.6
7661.98
7678.41
7695.58
7712.48
7728.3
7742.3
7753.97
7763.01
7769.32
7773.05
7774.34
7773.43
7770.63
7766.44
7761.43
7756.32
7751.74
7748.15
7745.86
7745.09
7745.98
7748.44
7752.32
7757.32
7762.97
7768.66
7773.6
7777.26
7779.16
7778.89
7776.13
7770.71
7762.52
7751.52
7737.9
7722.05
7704.58
7686.26
7667.94
7650.73
7635.91
7624.68
7618.43
7617.01
7619.15
7623.69
7636.12
7658.29
7687.21
7721.32
7759.29
7799.64
7840.71
7880.26
7915.51
7944.69
7966.79
7982.76
7993.52
7999.64
8033.33
8031.76
8020.98
8003.2
7977.21
7940.23
7895.53
7639.24
7278.59
6845.52
6367.93
5891.15
5464.88
5132.97
4927.71
4845.08
4891.97
5025.53
5219.35
5467.71
5748.3
6043.25
6336.96
6611.73
6854.36
7041.61
7174.16
7257.79
7304.42
7324.97
7324.59
7304.23
7261.29
7198.52
7122.44
7045.49
6977.56
6924.58
6893.13
6887.02
6906.26
6946.62
7004.86
7078.35
7159.64
7238.85
7303.84
7349.44
7374.89
7381.23
7367.23
7328.93
7258.03
7144.54
6980.55
6760.79
6488.75
6186.91
5870.45
5555.68
5260.34
5003.32
4759.17
4612.81
4580.75
4688.25
4954.32
5346.52
5801.22
6304.26
6818.72
7288.08
7670.1
7900.6
7944.46
7979.19
8002.61
8018.5
8028.33
8031.03
7003.89
7011.51
6688.63
6228.6
5606.17
4725.09
3590.28
2560.72
1750.16
1145.88
704.969
396.96
190.689
60.7191
2.64248
1.10466
0.942236
22.972
92.6323
190.268
319.449
478.976
662.547
860.939
1064.13
1271.46
1460.49
1613.96
1718.81
1768.71
1765.73
1714.89
1625.49
1513.42
1392.28
1282.59
1194.64
1127.28
1080.7
1056.67
1059.02
1092.17
1155.15
1245.64
1361.01
1490.98
1619.69
1735.28
1818.15
1852.6
1830.5
1748.5
1612.02
1428.45
1212.71
985.981
771.73
570.995
389.161
231.855
103.849
2.19718
1.89753
1.89068
1.95251
3.8957
31.7898
144.768
358.837
685.367
1160.05
1817.38
2682.86
3753.79
4853.15
5685.41
6268.98
6699.19
7000.89
6993.37
1409.79
1204.53
978.362
740.205
477.837
214.027
37.1171
8.44476
6.34825
3.51195
2.21635
1.51276
1.2367
1.20713
1.21645
1.13432
1.00988
0.94313
0.831873
0.721941
0.664278
0.652527
0.632646
0.595429
0.55495
0.520091
0.508816
0.488276
0.460486
0.415964
0.34171
0.252519
0.197417
0.204767
0.520809
0.980479
1.20573
0.890038
0.784808
1.11639
1.5741
1.53444
1.42526
1.416
1.26941
1.11536
1.08204
1.05088
1.03358
1.03188
1.04477
1.07209
1.10931
1.15828
1.22485
1.29185
1.34963
1.44029
1.55898
1.67041
1.76438
1.85579
1.83093
1.84243
1.88939
1.94943
1.99848
2.14588
2.39143
2.69448
3.52077
4.95692
7.44768
50.8558
260.649
529.121
769.413
982.649
1179.75
1355.31
0.622274
0.64275
0.733115
0.807816
0.943934
1.46407
2.19365
4.32702
4.29075
1.92179
1.33779
1.18699
1.17767
1.22312
1.27335
2.24227
2.57317
2.52316
2.45614
1.96206
0.929587
0.724284
0.715149
0.995253
1.20587
1.16905
1.01666
0.626198
0.537887
0.499252
0.43994
0.39097
0.379599
0.407248
0.610225
0.875709
1.114
0.517496
0.416373
0.796317
1.42321
1.64992
1.41043
1.37443
1.35512
1.30275
1.17182
1.14583
1.13007
1.10787
1.10838
1.13515
1.16844
1.21478
1.28177
1.35056
1.38704
1.42426
1.75764
2.10255
2.18737
2.10207
2.04327
2.03432
2.03988
2.14203
2.05088
2.03776
1.92149
1.76838
1.66816
1.70636
1.82636
2.06933
1.7689
0.852197
0.45076
0.545207
0.938375
1.56546
0.751676
0.781086
0.810204
0.852863
0.914108
0.983549
1.5285
4.5263
5.15816
1.87735
1.16865
1.14521
1.17969
1.72265
2.52025
2.5323
2.50576
2.46288
2.43883
2.45142
2.46905
1.49459
0.687743
0.658846
1.1806
1.83052
1.86785
1.05904
0.550957
0.50976
0.437912
0.348426
0.709341
1.86082
1.82197
1.82034
1.6981
0.427913
0.323882
0.664192
1.39396
1.66935
1.86112
1.99457
2.11691
2.11154
1.63202
1.23178
1.21111
1.14764
1.13814
1.15249
1.1736
1.19846
1.2434
1.28596
1.31545
1.79446
2.11715
2.17559
2.21776
2.23057
2.16294
2.14646
2.16281
2.18424
2.01162
1.97069
1.8239
1.57546
1.37511
1.25415
1.14716
1.02667
0.93406
0.575645
0.406745
2.62364
3.15763
1.91617
0.831969
0.836058
0.869423
0.905613
0.948296
1.00891
1.0884
1.1275
3.35912
2.0173
1.10131
1.14106
2.17329
2.49877
2.00805
1.08353
1.32701
2.42544
2.39932
2.41421
2.43337
1.63974
0.665063
0.582301
0.515016
0.998706
1.89716
1.41555
0.535996
0.484673
0.398867
0.33945
1.44167
1.83543
1.84586
1.19765
0.201732
0.235523
0.263843
0.300328
0.355066
0.685
1.69823
2.00931
2.18303
2.29632
2.39723
2.4199
1.60903
1.13293
1.1628
1.18819
1.19716
1.18646
1.20158
1.2097
1.43833
1.99473
2.02982
2.06191
1.90636
1.48893
1.42606
1.44906
1.48928
1.87362
3.18688
5.01931
4.51507
1.85473
1.16671
1.04403
0.894676
0.748657
0.568735
0.33306
0.139506
2.0618
3.13991
1.96195
1.23423
0.992508
0.919689
0.940929
0.975532
1.02654
1.08093
1.22204
3.15284
2.04122
1.13413
2.06665
3.17879
2.29451
0.676399
0.821099
1.98853
2.36106
1.77508
1.32699
1.00324
0.6177
0.445387
0.414317
0.392873
0.410008
1.79325
1.63064
0.47976
0.404871
0.320284
0.299656
1.78644
1.80189
1.8262
1.86246
0.389298
0.20992
0.234408
0.265147
0.300619
0.639879
0.937665
1.89332
1.40375
1.44973
2.13002
2.43687
2.49315
1.31606
1.1724
1.21902
1.34046
1.21712
1.14558
1.13172
1.68588
1.90743
1.92628
1.66678
1.23781
1.26053
1.28247
1.30565
1.33425
2.75538
5.71508
5.47968
5.16879
4.91132
4.20635
0.758632
0.490607
0.39698
0.242366
0.0811008
-0.101866
-0.00497724
1.11745
2.26806
1.4354
3.13077
2.64669
1.55442
1.17875
1.34003
2.69725
2.67332
1.72556
1.26109
1.73192
3.31141
3.23645
1.11644
0.575561
0.807283
0.794361
0.552983
0.386568
0.370681
0.37125
0.371156
0.362883
0.339041
0.32241
0.334219
1.4247
1.32896
0.383692
0.317536
0.247684
0.174116
1.01413
1.79024
1.77663
1.87971
1.60244
0.282829
0.20913
0.239779
0.271617
0.371543
0.806852
1.09406
1.2967
1.38173
1.45453
2.22953
2.53923
1.66336
1.15566
1.26086
2.0657
1.25847
1.07129
1.11694
1.79144
1.80273
1.72733
1.07696
1.0992
1.11772
1.13434
1.15191
1.16538
2.69381
5.57839
5.30128
4.94091
4.6491
4.46907
4.06223
0.427453
0.000465321
-0.0349562
-0.109813
-0.212953
-0.283775
0.3381
2.38757
2.17713
3.14857
3.16151
3.21477
3.25359
3.24118
3.16562
2.31279
0.790692
1.24081
3.29445
3.34387
2.45409
0.597107
0.535766
0.48139
0.399858
0.3653
0.352773
0.35348
0.347856
0.339014
0.322848
0.295428
0.276192
0.279983
0.503641
0.476854
0.310796
0.268931
0.212309
0.116752
0.00695117
0.692
0.730992
1.88882
1.76725
0.300907
0.184809
0.216877
0.249531
0.285246
0.339734
0.813085
1.42205
1.40298
1.41807
1.60978
2.60299
1.79181
1.12245
1.26478
2.0323
1.47753
0.979832
1.08343
1.67748
1.68493
1.21157
0.940389
0.958714
0.971662
0.980493
0.986975
0.975923
0.928913
2.95456
5.18637
4.78817
4.47871
4.27444
4.19517
2.48632
-0.232371
-0.247191
-0.196903
-0.174358
-0.138548
0.103032
2.59688
2.05016
3.12429
3.14266
3.21069
3.19134
1.98583
0.731309
0.313636
0.720581
2.2931
3.35115
3.37914
1.20416
0.583045
0.715216
0.55244
0.379566
0.382174
0.364732
0.36399
0.338961
0.325601
0.303708
0.275784
0.258475
0.261656
0.263194
0.270554
0.278078
0.25754
0.219732
0.152713
0.0567969
-0.026493
-0.0436556
1.34514
1.61814
0.33245
0.157985
0.191252
0.224009
0.258216
0.303796
0.562828
1.38324
1.5221
1.39703
1.54225
2.66932
2.1569
1.09782
1.13023
1.96227
1.5776
0.878262
1.02137
1.57284
1.55151
0.838145
0.802679
0.818718
0.824707
0.822377
0.813171
0.78245
0.69963
1.49167
5.12444
4.72492
4.40249
4.18858
4.08873
4.13439
0.207356
-0.387696
-0.204363
-0.0580363
0.0669002
0.184985
1.58898
2.04594
3.03135
3.16158
3.11794
0.492867
0.223717
0.251166
0.284904
0.968172
2.25005
3.40302
2.36708
0.832495
1.68557
4.81345
1.4038
0.698087
0.38376
0.363264
0.54577
0.338182
0.31832
0.299383
0.278765
0.26675
0.268634
0.271677
0.278232
0.276344
0.260241
0.530257
0.611405
0.279357
0.268218
0.211775
1.45174
1.04847
0.18792
0.127463
0.160555
0.191672
0.223836
0.265048
0.462183
1.29975
1.36398
1.37999
2.25464
2.69753
2.60698
1.04489
0.990431
1.7746
1.35195
0.772175
1.05149
1.46269
1.40534
0.645711
0.670778
0.687689
0.686423
0.6702
0.643467
0.595754
0.510445
1.02294
5.1994
4.75385
4.42604
4.21163
4.10743
4.12869
1.87516
-0.410781
-0.195692
0.0528277
0.243707
0.382129
2.15577
3.04296
3.19694
3.21832
0.413654
0.142021
0.172073
0.201803
0.239645
0.790683
1.62787
3.44505
1.21549
1.42176
7.00449
6.71777
0.299519
0.320361
0.400162
0.573746
0.554356
0.31699
0.314431
0.3047
0.294498
0.289763
0.291632
0.294131
0.291876
0.289306
0.852827
1.31751
1.29393
1.25032
1.182
1.09055
0.820331
0.0766767
0.0554324
0.0945631
0.124027
0.150974
0.179414
0.217729
0.819755
1.4314
1.25544
1.34341
2.46542
2.69496
2.42902
0.909631
0.893893
1.25416
1.34025
0.666612
0.977514
1.36457
1.32949
0.526628
0.556822
0.577312
0.570924
0.54258
0.499978
0.440421
0.336562
0.20523
0.74838
4.99842
4.56175
4.3597
4.24167
4.25332
4.44924
-0.233593
-0.186339
0.119465
0.345788
0.496399
4.6469
2.09407
3.26089
0.844221
0.0769268
0.101183
0.121249
0.146141
0.184156
0.334798
0.76637
2.92229
3.2483
4.36255
7.08294
6.80043
0.576369
0.331255
0.385239
0.414741
0.441951
0.309183
0.31364
0.312528
0.311251
0.312513
0.315696
0.316287
0.30765
0.2788
0.811391
1.3298
1.29523
1.26121
1.21784
1.01076
0.110325
0.0232066
0.0418334
0.0637322
0.0827087
0.101655
0.123779
0.158624
1.04818
1.42643
1.25897
1.27298
2.542
2.69729
1.75265
0.799469
0.806058
1.86478
1.88021
0.589095
0.7539
1.1817
0.799991
0.481717
0.482059
0.499258
0.487272
0.451474
0.400049
0.33577
0.213042
0.0986796
0.483945
4.42736
4.83683
4.60936
4.48605
4.50094
4.59723
-0.477111
-0.139496
0.167317
0.393424
1.412
5.83392
1.70151
0.267909
0.0808733
0.0704525
0.0740583
0.0849988
0.101645
0.130322
0.166803
0.725376
0.740879
5.5439
7.18342
7.08794
7.11801
3.49724
0.283183
0.448123
0.765029
0.306271
0.318328
0.31504
0.31858
0.322082
0.327268
0.332761
0.334294
0.326626
0.300077
0.315754
0.422777
0.451699
0.315819
0.119452
0.0770269
0.051869
0.0380211
0.0298291
0.0305701
0.035925
0.0432729
0.0565342
0.144821
1.23227
1.39227
1.1592
1.15029
2.37886
2.747
1.05661
0.706368
0.725356
2.09719
2.00013
0.539084
0.477941
0.426085
0.409243
0.462854
0.456876
0.457265
0.434146
0.419032
0.456116
0.256852
0.151898
0.0476881
-0.0769288
0.32659
5.16985
4.94745
4.83899
4.84283
4.79706
0.544691
-0.0238182
0.237247
0.520285
5.70273
6.01754
1.11394
0.168177
0.0855685
0.0675798
0.0641394
0.0701363
0.0813713
0.100006
0.11987
0.378652
0.372794
1.46361
7.22825
7.12898
7.11104
6.59977
0.953619
1.25894
1.33606
0.411728
0.321435
0.3172
0.321928
0.327013
0.333884
0.340954
0.347348
0.358109
0.340584
0.316708
0.30244
0.269576
0.19506
0.152449
0.109799
0.0704848
0.0430664
0.0187183
-0.00783079
-0.0193577
-0.026747
-0.0254956
0.655632
1.20504
1.3057
0.975335
1.01679
2.33242
2.7498
0.844674
0.607173
0.648255
2.07763
1.99165
0.51908
0.499621
0.465024
1.29209
0.870237
0.45135
0.435183
0.408975
1.0048
1.13343
0.210513
0.128491
0.0460677
-0.0526788
-0.149192
0.411947
5.30953
5.25082
5.21319
5.30972
5.12463
1.89905
2.10284
5.20452
6.1161
6.16324
0.119578
0.112677
0.083108
0.0688079
0.0655287
0.065294
0.0709548
0.0820773
0.090549
0.0857806
0.273196
0.242236
1.18087
7.23689
7.21942
7.30863
4.43909
1.14221
1.28844
0.791911
0.314167
0.317424
0.322539
0.328486
0.336077
0.343748
0.351365
0.358463
0.391281
0.381242
0.348296
0.276217
0.223456
0.17601
0.132183
0.0823032
0.0347475
-0.0199625
-0.0552029
-0.0860749
-0.113092
0.0714928
1.04427
1.08483
1.14805
0.65266
0.804102
2.6113
3.4022
0.7815
0.504381
0.576391
2.04687
2.02955
0.746281
0.535357
1.66826
1.91601
0.772738
0.424068
0.401279
0.631213
1.2012
1.15082
0.59406
0.117771
0.059262
-0.00438656
-0.0711267
-0.121048
0.552938
5.51208
5.63625
5.69896
5.83202
5.96959
6.03718
6.09663
6.18213
5.77279
0.116265
0.0985125
0.0873871
0.07286
0.0658061
0.0604767
0.0566195
0.0603156
0.0452004
0.0269236
0.737602
1.00626
0.943015
1.28778
3.84251
5.83215
3.30601
0.963253
0.729199
0.740557
0.32306
0.313505
0.320878
0.328476
0.336692
0.344776
0.351456
0.354083
0.354226
0.337766
0.31104
0.274688
0.250106
0.196931
0.138437
0.0648177
-2.78825e-05
-0.0583439
-0.114551
-0.169135
-0.160254
0.839335
0.906306
0.897793
0.931718
0.237469
0.5877
3.15897
3.37322
0.868201
0.366691
0.537033
1.99716
1.99468
1.97883
1.52651
2.01246
1.91096
1.12281
0.354844
0.343089
1.00339
1.17542
1.13546
1.00907
0.108787
0.0701392
0.0355507
0.00630571
-0.0126062
0.00645119
0.313482
5.15339
6.1721
6.22185
6.31492
6.34805
6.32184
4.54985
0.624586
0.109787
0.107988
0.100649
0.0744949
0.0642209
0.0525983
0.0381729
0.0270674
-0.00775028
0.191574
1.64479
1.59579
1.25
0.747914
0.738047
0.809988
0.918574
1.0275
1.36918
1.26164
0.4275
0.307023
0.318254
0.327829
0.336597
0.3448
0.351363
0.354221
0.350676
0.343004
0.337566
0.306075
0.256659
0.184482
0.114628
0.0450781
-0.0300545
-0.107719
-0.187284
-0.201159
0.695995
0.759624
0.699837
0.681994
0.34414
-0.208449
0.126401
3.15646
3.30065
0.893595
0.207646
0.679936
1.90132
1.9011
1.92385
1.93042
1.8873
1.83422
1.7057
0.280659
0.373282
1.16228
1.13449
1.11004
1.08814
0.423161
0.0772539
0.065291
0.0673166
0.0891631
0.132913
0.241881
1.11312
3.28293
4.09142
4.72703
4.07966
2.50736
0.614172
0.516311
0.107288
0.113494
0.103676
0.0797065
0.0631035
0.0463864
0.0230274
-0.00900165
-0.0466138
-0.0661937
1.00563
1.56694
1.50476
0.719272
0.725585
0.838504
0.963325
1.06803
1.45189
1.32113
0.354137
0.299168
0.314756
0.325766
0.33462
0.342313
0.348516
0.352181
0.37037
0.369919
0.345629
0.304357
0.229973
0.170189
0.101126
0.0215481
-0.0695301
-0.169145
-0.164571
0.660181
0.610753
0.553234
0.409608
-0.385794
-0.489649
-0.390357
-0.144013
3.09051
3.22575
0.716941
0.0352428
0.888948
1.76541
1.75149
1.73414
1.72217
1.70713
1.70153
0.933351
0.211951
0.502434
1.0942
1.07989
1.06855
1.06193
1.05571
0.198127
0.092074
0.330011
0.285223
0.317855
1.33451
2.32794
3.28617
2.11287
1.04579
0.792637
0.518417
0.445112
0.702161
0.107139
0.1116
0.10734
0.0907789
0.0650835
0.0458722
0.0178937
-0.0220372
-0.0753235
-0.139819
0.673549
1.56911
1.50521
1.53948
1.57905
1.62181
1.62953
1.59084
1.47084
0.564805
0.266352
0.293105
0.310408
0.321579
0.329757
0.33641
0.354661
0.398357
0.394195
0.352462
0.301186
0.264123
0.218088
0.163089
0.0824779
-0.00748505
-0.117328
-0.103068
0.586851
0.497437
0.366361
-0.426623
-0.601779
-0.606947
-0.562104
-0.473775
1.47185
3.06487
3.15397
0.662639
-0.137311
0.715362
1.62305
1.50171
0.371196
0.232494
-0.0610427
0.0403624
0.238454
0.186418
0.236691
1.03472
0.968114
0.971342
1.02072
0.954539
0.695789
0.519667
1.259
1.32639
1.32812
2.27493
2.43182
2.34372
2.52796
2.55889
2.06874
1.22747
0.444818
0.766167
0.109715
0.109305
0.112042
0.100742
0.0707362
0.0518725
0.0236041
-0.0177434
-0.0736575
-0.142693
0.682563
1.60445
1.55481
1.58105
1.11522
1.15154
1.57807
1.2661
0.449815
0.218373
0.260433
0.288515
0.305238
0.315177
0.326312
0.385393
0.406223
0.383748
0.32402
0.309133
0.282504
0.24755
0.207014
0.14524
0.0624389
-0.0388809
-0.169264
0.495652
0.443258
0.122854
-0.506656
-0.588941
-0.627652
-0.626439
0.159124
1.69511
2.9283
3.00193
3.07478
0.943996
-0.297254
0.526015
1.50434
1.08314
-0.331758
-0.360231
-0.318504
-0.229717
-0.132534
0.297973
0.519225
-0.0261817
-0.125017
-0.0731235
0.0681923
0.0553005
0.023833
0.914587
1.21272
1.39998
1.44577
1.08096
0.849486
1.11756
2.1588
2.42126
1.29985
0.782336
0.358469
0.60838
0.113046
0.11419
0.117565
0.108398
0.0802703
0.062723
0.0380206
0.0013752
-0.0495038
-0.117252
0.0180481
0.465235
0.468408
-0.0219919
-0.00155529
0.456533
0.710426
0.215795
0.152931
0.212533
0.257087
0.284499
0.30136
0.3586
0.379903
0.381767
0.343508
0.310481
0.304987
0.288515
0.261578
0.235409
0.188932
0.127003
0.0440922
-0.0671736
-0.0622126
0.418886
0.130772
-0.465927
-0.529238
-0.381263
0.271128
2.29779
2.78276
2.81787
2.86462
2.92013
3.00166
0.730958
-0.418566
0.532627
1.43777
1.39426
-0.430555
-0.441804
-0.39286
-0.307613
-0.13254
0.459137
0.619253
0.155814
-0.139959
-0.131633
-0.105211
-0.0595434
0.00582317
0.112726
0.0932875
0.373896
0.950905
0.360305
0.253501
0.295817
0.322874
0.329272
0.33055
0.320186
0.315682
0.310109
0.116099
0.113638
0.12326
0.115253
0.0956635
0.0754222
0.0563533
0.0280883
-0.0117357
-0.0656023
-0.132576
-0.195464
-0.222164
-0.210767
-0.155514
-0.0792618
0.00196416
0.0801495
0.151414
0.211509
0.25521
0.318343
0.365066
0.368373
0.358308
0.296625
0.294966
0.291297
0.283752
0.266661
0.240417
0.207611
0.171472
0.109234
0.0289145
0.395847
0.167075
0.333282
-0.427585
-0.525503
-0.0413391
2.51052
2.77927
2.75022
2.7513
2.7752
2.81705
2.88368
2.98383
-0.177241
-0.463906
0.51996
1.44505
1.4482
-0.436655
-0.450958
-0.404906
-0.333031
-0.16114
0.462202
0.613134
0.227127
-0.149435
-0.141554
-0.112463
-0.0467972
0.0821023
0.0786925
0.0952912
0.130347
0.170256
0.633145
0.74254
0.336902
0.320297
0.326796
0.31662
0.316467
0.299964
0.292595
0.118123
0.114963
0.115218
0.121553
0.104344
0.0873085
0.0737615
0.0538405
0.025658
-0.012415
-0.0582736
-0.100409
-0.122745
-0.117652
-0.0864529
-0.0381979
0.0212398
0.088877
0.15327
0.220903
0.318472
0.352616
0.361707
0.315692
0.283861
0.281741
0.279578
0.275148
0.265465
0.247515
0.222479
0.190495
0.150549
0.0947717
0.194768
1.23907
0.820785
-0.0726877
-0.441479
-0.108465
2.41235
2.51403
1.44282
-0.157276
0.567255
1.56008
2.18737
1.88211
0.631826
-0.54696
-0.407783
0.323064
1.52297
1.0048
-0.393468
-0.400981
-0.364317
-0.305324
-0.237311
0.422498
0.626688
0.149624
-0.157892
-0.158538
-0.121683
1.23703
1.76914
1.03538
0.227251
0.138715
0.173268
0.857422
1.27278
1.14023
0.340771
0.31448
0.294371
0.283887
0.279347
0.275282
0.118771
0.116845
0.115032
0.116931
0.10527
0.0970767
0.087761
0.0741038
0.0547547
0.0288494
-0.00206287
-0.0315637
-0.0504621
-0.052168
-0.0368271
-0.00815812
0.0327911
0.0853454
0.169898
0.293303
0.338111
0.299088
0.288531
0.277692
0.270892
0.270288
0.270349
0.264196
0.250504
0.231482
0.207952
0.179671
0.140297
0.111726
1.2104
1.25715
0.853335
-0.300242
-0.403413
0.686127
2.35608
0.121869
-0.741445
-0.767102
-0.766191
-0.734987
-0.641351
-0.548475
-0.525246
-0.374172
-0.263837
-0.0337742
1.67366
0.360248
-0.292547
-0.302633
-0.280333
-0.241565
-0.197608
0.435109
0.653854