/*--------------------------------*- C++ -*----------------------------------*\
| =========                 |                                                 |
| \\      /  F ield         | OpenFOAM: The Open Source CFD Toolbox           |
|  \\    /   O peration     | Version:  2412                                  |
|   \\  /    A nd           | Website:  www.openfoam.com                      |
|    \\/     M anipulation  |                                                 |
\*---------------------------------------------------------------------------*/
FoamFile
{
    version     2.0;
    format      ascii;
    arch        "LSB;label=32;scalar=64";
    class       surfaceScalarField;
    location    "3";
    object      alphaPhi0.mercury;
}
// * * * * * * * * * * * * * * * * * * * * * * * * * * * * * * * * * * * * * //

dimensions      [0 3 -1 0 0 0 0];

oriented        oriented;

internalField   nonuniform List<scalar> 
12640
(
1.44452e-05
-1.44451e-05
3.38401e-05
-1.93943e-05
5.37022e-05
-1.98618e-05
7.2687e-05
-1.89847e-05
8.99328e-05
-1.72457e-05
0.000104975
-1.50417e-05
0.00011755
-1.25748e-05
0.000127527
-9.97754e-06
0.000134869
-7.34273e-06
0.000139623
-4.7538e-06
0.00014196
-2.33748e-06
0.000142113
-1.51687e-07
0.00014039
1.72127e-06
0.000137059
3.33033e-06
0.000132439
4.62293e-06
0.000126845
5.59322e-06
0.000120545
6.29661e-06
0.000113795
6.74824e-06
0.000106825
6.97054e-06
9.98338e-05
6.99275e-06
9.29726e-05
6.86004e-06
8.63391e-05
6.63171e-06
8.00265e-05
6.31202e-06
7.40626e-05
5.96284e-06
6.83931e-05
5.66541e-06
6.30159e-05
5.37096e-06
5.7887e-05
5.12367e-06
5.29404e-05
4.94456e-06
4.81236e-05
4.81679e-06
4.34147e-05
4.70885e-06
3.8743e-05
4.67088e-06
3.40351e-05
4.70714e-06
2.9293e-05
4.74178e-06
2.45337e-05
4.75902e-06
1.971e-05
4.82292e-06
1.49021e-05
4.8069e-06
1.01399e-05
4.76134e-06
5.484e-06
4.65527e-06
9.36179e-07
4.54741e-06
-3.42467e-06
4.36043e-06
-7.59628e-06
4.17115e-06
-1.15425e-05
3.94581e-06
-1.52632e-05
3.72037e-06
-1.87684e-05
3.50505e-06
-2.2048e-05
3.27921e-06
-2.51085e-05
3.05992e-06
-2.79934e-05
2.88395e-06
-3.07827e-05
2.78822e-06
-3.34792e-05
2.69542e-06
-3.62323e-05
2.75243e-06
-3.91555e-05
2.92288e-06
-4.23733e-05
3.21793e-06
-4.59424e-05
3.56947e-06
-4.99678e-05
4.02598e-06
-5.4525e-05
4.55775e-06
-5.97095e-05
5.1848e-06
-6.5546e-05
5.83644e-06
-7.20283e-05
6.48179e-06
-7.91385e-05
7.10936e-06
-8.67697e-05
7.63008e-06
-9.47732e-05
8.00246e-06
-0.000102952
8.17853e-06
-0.000111066
8.11372e-06
-0.000118832
7.76669e-06
-0.00012596
7.12947e-06
-0.000132087
6.12748e-06
-0.000136845
4.75946e-06
-0.000139891
3.04578e-06
-0.000140891
9.99259e-07
-0.000139558
-1.33315e-06
-0.000135563
-3.99557e-06
-0.000128742
-6.82168e-06
-0.000119058
-9.68447e-06
-0.000106575
-1.24835e-05
-9.14482e-05
-1.5127e-05
-7.39608e-05
-1.7487e-05
-5.46182e-05
-1.93415e-05
-3.43131e-05
-2.03038e-05
-1.44634e-05
-1.98489e-05
-1.44628e-05
1.89667e-05
-3.34113e-05
4.54235e-05
-4.58508e-05
7.27774e-05
-4.72158e-05
9.90213e-05
-4.52287e-05
0.000122886
-4.11102e-05
0.000143673
-3.58286e-05
0.00016105
-2.99523e-05
0.000174827
-2.37555e-05
0.00018497
-1.74857e-05
0.00019155
-1.13337e-05
0.000194761
-5.55008e-06
0.000194909
-2.98518e-07
0.000192287
4.34373e-06
0.000187292
8.32247e-06
0.000180352
1.15617e-05
0.000171898
1.4048e-05
0.00016236
1.58355e-05
0.000152144
1.69627e-05
0.000141597
1.75142e-05
0.000131013
1.75745e-05
0.00012063
1.72415e-05
0.000110652
1.66085e-05
0.000101161
1.57992e-05
9.2222e-05
1.48982e-05
8.39061e-05
1.39806e-05
7.61814e-05
1.30973e-05
6.89942e-05
1.23118e-05
6.22853e-05
1.16517e-05
5.59674e-05
1.11304e-05
4.9963e-05
1.07088e-05
4.42169e-05
1.04141e-05
3.86788e-05
1.02435e-05
3.33051e-05
1.01143e-05
2.80723e-05
9.99039e-06
2.30602e-05
9.83345e-06
1.81785e-05
9.68727e-06
1.3466e-05
9.47269e-06
8.93821e-06
9.18206e-06
4.66655e-06
8.81807e-06
6.6147e-07
8.36453e-06
-3.09561e-06
7.92743e-06
-6.63318e-06
7.48284e-06
-9.9332e-06
7.01994e-06
-1.30421e-05
6.61324e-06
-1.6017e-05
6.25303e-06
-1.89273e-05
5.96871e-06
-2.18493e-05
5.80415e-06
-2.48597e-05
5.79699e-06
-2.81942e-05
6.02875e-06
-3.18522e-05
6.40977e-06
-3.60147e-05
7.08546e-06
-4.08132e-05
8.01687e-06
-4.63914e-05
9.14844e-06
-5.28756e-05
1.05109e-05
-6.03444e-05
1.2027e-05
-6.89158e-05
1.37561e-05
-7.85146e-05
1.54343e-05
-8.91303e-05
1.7096e-05
-0.000100687
1.86648e-05
-0.000112974
1.99148e-05
-0.000125727
2.07551e-05
-0.000138636
2.10881e-05
-0.000151321
2.07999e-05
-0.000163357
1.9804e-05
-0.000174238
1.80116e-05
-0.00018347
1.53608e-05
-0.000190547
1.1837e-05
-0.000194984
7.48159e-06
-0.000196336
2.35078e-06
-0.000194295
-3.37468e-06
-0.000188528
-9.76329e-06
-0.000178829
-1.65218e-05
-0.000165185
-2.33284e-05
-0.000147655
-3.00132e-05
-0.000126454
-3.6327e-05
-0.00010197
-4.19694e-05
-7.49376e-05
-4.63721e-05
-4.66903e-05
-4.85499e-05
-1.93106e-05
-4.72277e-05
-3.3773e-05
2.07654e-05
-5.41764e-05
5.01476e-05
-7.52335e-05
8.07606e-05
-7.78292e-05
0.000110177
-7.46452e-05
0.000136945
-6.78777e-05
0.000160331
-5.92149e-05
0.000179963
-4.95844e-05
0.000195667
-3.94598e-05
0.000207406
-2.92256e-05
0.000215282
-1.92091e-05
0.00021951
-9.77983e-06
0.00022044
-1.22921e-06
0.000218437
6.34607e-06
0.00021396
1.28001e-05
0.000207465
1.80588e-05
0.000199411
2.2101e-05
0.000190248
2.49953e-05
0.000180387
2.68235e-05
0.000170178
2.77239e-05
0.000159932
2.78227e-05
0.000149883
2.7292e-05
0.000140152
2.63449e-05
0.000130889
2.507e-05
0.000122127
2.3668e-05
0.000113862
2.22495e-05
0.000106001
2.09552e-05
9.85198e-05
1.97869e-05
9.12849e-05
1.88809e-05
8.41947e-05
1.82172e-05
7.71386e-05
1.7763e-05
7.00228e-05
1.75282e-05
6.28092e-05
1.74555e-05
5.54596e-05
1.74623e-05
4.79411e-05
1.75077e-05
4.02513e-05
1.7522e-05
3.24457e-05
1.74917e-05
2.45688e-05
1.73482e-05
1.67443e-05
1.70054e-05
9.04891e-06
1.65124e-05
1.48816e-06
1.59245e-05
-5.72416e-06
1.51392e-05
-1.25652e-05
1.43235e-05
-1.90273e-05
1.34816e-05
-2.50784e-05
1.26636e-05
-3.07354e-05
1.19089e-05
-3.60384e-05
1.12703e-05
-4.10767e-05
1.08409e-05
-4.59359e-05
1.06547e-05
-5.07468e-05
1.08387e-05
-5.56976e-05
1.13601e-05
-6.08849e-05
1.22727e-05
-6.65045e-05
1.36369e-05
-7.26904e-05
1.53349e-05
-7.96591e-05
1.74801e-05
-8.75173e-05
1.98854e-05
-9.62217e-05
2.24601e-05
-0.00010596
2.51723e-05
-0.000116699
2.78333e-05
-0.000128214
3.01783e-05
-0.000140475
3.21749e-05
-0.000153196
3.34765e-05
-0.000166065
3.3957e-05
-0.000178693
3.34282e-05
-0.000190619
3.17315e-05
-0.000201351
2.87434e-05
-0.000210359
2.4369e-05
-0.000217112
1.85898e-05
-0.000221077
1.14455e-05
-0.00022177
3.0435e-06
-0.000218732
-6.41254e-06
-0.000211685
-1.68103e-05
-0.000200381
-2.78252e-05
-0.000184746
-3.89625e-05
-0.000164859
-4.98998e-05
-0.000140954
-6.02298e-05
-0.000113447
-6.94753e-05
-8.31423e-05
-7.66754e-05
-5.15458e-05
-8.0146e-05
-2.11662e-05
-7.76069e-05
-5.4939e-05
2.24042e-05
-7.6581e-05
5.45815e-05
-0.000107412
8.79828e-05
-0.000111231
0.000119914
-0.000106576
0.000148827
-9.67904e-05
0.000173937
-8.43243e-05
0.000194866
-7.05142e-05
0.000211455
-5.6049e-05
0.000223721
-4.14929e-05
0.000231772
-2.72612e-05
0.000235933
-1.39423e-05
0.000236617
-1.91114e-06
0.000234269
8.69191e-06
0.000229364
1.77013e-05
0.00022242
2.5003e-05
0.000213946
3.05784e-05
0.000204439
3.4507e-05
0.000194315
3.69493e-05
0.000183948
3.8092e-05
0.000173643
3.81287e-05
0.000163614
3.73187e-05
0.000154054
3.58999e-05
0.000144975
3.41415e-05
0.000136472
3.21651e-05
0.00012843
3.02874e-05
0.000120781
2.86052e-05
0.000113412
2.71583e-05
0.000106158
2.6138e-05
9.88808e-05
2.54952e-05
9.14586e-05
2.51845e-05
8.3801e-05
2.51843e-05
7.57739e-05
2.54811e-05
6.73424e-05
2.5893e-05
5.84982e-05
2.63513e-05
4.92502e-05
2.67692e-05
3.97431e-05
2.69977e-05
2.99867e-05
2.71033e-05
2.02153e-05
2.67757e-05
1.04864e-05
2.62404e-05
9.94623e-07
2.54156e-05
-8.17689e-06
2.43101e-05
-1.6909e-05
2.30549e-05
-2.5101e-05
2.16728e-05
-3.27409e-05
2.03026e-05
-3.97939e-05
1.89609e-05
-4.62619e-05
1.77372e-05
-5.22602e-05
1.68384e-05
-5.79382e-05
1.6332e-05
-6.33259e-05
1.62259e-05
-6.86022e-05
1.66361e-05
-7.40008e-05
1.76713e-05
-7.97057e-05
1.9342e-05
-8.59506e-05
2.15801e-05
-9.27825e-05
2.43122e-05
-0.000100449
2.75519e-05
-0.000109062
3.10735e-05
-0.000118715
3.48247e-05
-0.000129336
3.84537e-05
-0.000140991
4.18324e-05
-0.000153417
4.46002e-05
-0.000166428
4.64881e-05
-0.000179696
4.72243e-05
-0.000192822
4.65551e-05
-0.000205339
4.42474e-05
-0.0002167
4.01043e-05
-0.000226344
3.4012e-05
-0.000233688
2.59327e-05
-0.000238132
1.58895e-05
-0.000239128
4.03915e-06
-0.000236232
-9.30791e-06
-0.000229001
-2.40399e-05
-0.000217115
-3.97102e-05
-0.000200496
-5.55805e-05
-0.000179193
-7.12009e-05
-0.000153411
-8.60109e-05
-0.000123611
-9.92748e-05
-9.0654e-05
-0.000109633
-5.61412e-05
-0.000114659
-2.28655e-05
-0.000110882
-7.7805e-05
2.42315e-05
-0.000100813
5.96091e-05
-0.00014279
9.61197e-05
-0.000147741
0.000130758
-0.000141214
0.000161834
-0.000127865
0.000188492
-0.000110983
0.000210338
-9.2361e-05
0.000227277
-7.29884e-05
0.00023937
-5.35855e-05
0.000246823
-3.47155e-05
0.000250018
-1.71411e-05
0.000249522
-1.41273e-06
0.000245804
1.2409e-05
0.000239455
2.40499e-05
0.000231061
3.33983e-05
0.000221193
4.04449e-05
0.000210408
4.52918e-05
0.000199182
4.81721e-05
0.000187924
4.93461e-05
0.000176954
4.90914e-05
0.000166511
4.77548e-05
0.00015676
4.56438e-05
0.000147711
4.31864e-05
0.000139297
4.05773e-05
0.000131496
3.80884e-05
0.000124209
3.58923e-05
0.000117143
3.42242e-05
0.000110215
3.30664e-05
0.000103211
3.24984e-05
9.59417e-05
3.24531e-05
8.82835e-05
3.28418e-05
8.01655e-05
3.35987e-05
7.1397e-05
3.4661e-05
6.20511e-05
3.56968e-05
5.22173e-05
3.66022e-05
4.19215e-05
3.72923e-05
3.14162e-05
3.76076e-05
2.07628e-05
3.74283e-05
1.0219e-05
3.67836e-05
-6.64684e-08
3.57005e-05
-9.99947e-06
3.42426e-05
-1.93788e-05
3.24337e-05
-2.81514e-05
3.04447e-05
-3.62197e-05
2.83702e-05
-4.35962e-05
2.63365e-05
-5.02939e-05
2.4434e-05
-5.63341e-05
2.28778e-05
-6.18422e-05
2.18395e-05
-6.69725e-05
2.13559e-05
-7.19059e-05
2.15693e-05
-7.68682e-05
2.26339e-05
-8.209e-05
2.4564e-05
-8.78226e-05
2.73127e-05
-9.42807e-05
3.07701e-05
-0.000101641
3.49117e-05
-0.000110089
3.95219e-05
-0.000119735
4.44708e-05
-0.000130626
4.93437e-05
-0.000142657
5.38642e-05
-0.000155771
5.77139e-05
-0.000169734
6.04513e-05
-0.000184203
6.16934e-05
-0.000198749
6.11002e-05
-0.000212854
5.83516e-05
-0.000225915
5.31645e-05
-0.000237294
4.53896e-05
-0.000246316
3.49539e-05
-0.000252313
2.18864e-05
-0.000254636
6.36265e-06
-0.000252699
-1.12436e-05
-0.00024606
-3.06782e-05
-0.000234268
-5.15008e-05
-0.000217169
-7.26785e-05
-0.000194754
-9.36161e-05
-0.000167218
-0.000113547
-0.000135039
-0.000131455
-9.9181e-05
-0.000145492
-6.13869e-05
-0.000152454
-2.47423e-05
-0.000147527
-0.000102548
2.65147e-05
-0.000127328
6.60644e-05
-0.000182338
0.000106617
-0.000188292
0.000144712
-0.000179309
0.000178454
-0.000161607
0.000206885
-0.000139413
0.000229665
-0.000115141
0.000246738
-9.00631e-05
0.000258293
-6.51395e-05
0.000264601
-4.10226e-05
0.000266226
-1.87686e-05
0.00026383
9.86548e-07
0.000257986
1.82518e-05
0.000249397
3.26351e-05
0.000238783
4.40088e-05
0.00022681
5.24136e-05
0.000214104
5.79958e-05
0.00020122
6.10544e-05
0.00018861
6.19583e-05
0.000176609
6.10957e-05
0.000165459
5.89072e-05
0.000155334
5.57709e-05
0.000146157
5.23635e-05
0.000137908
4.88245e-05
0.000130436
4.55589e-05
0.000123565
4.27612e-05
0.000117082
4.07051e-05
0.000110731
3.94167e-05
0.000104261
3.89666e-05
9.74483e-05
3.92656e-05
9.00934e-05
4.01961e-05
8.2032e-05
4.16595e-05
7.32794e-05
4.34127e-05
6.37888e-05
4.51865e-05
5.35283e-05
4.68618e-05
4.27524e-05
4.80672e-05
3.16162e-05
4.87431e-05
2.03874e-05
4.86566e-05
9.24547e-06
4.79251e-05
-1.61645e-06
4.65618e-05
-1.19327e-05
4.45582e-05
-2.16934e-05
4.21935e-05
-3.07039e-05
3.94543e-05
-3.88704e-05
3.65358e-05
-4.61877e-05
3.36528e-05
-5.2606e-05
3.08515e-05
-5.83288e-05
2.86e-05
-6.33496e-05
2.68597e-05
-6.7831e-05
2.58372e-05
-7.19937e-05
2.57317e-05
-7.61401e-05
2.67801e-05
-8.05699e-05
2.89935e-05
-8.55005e-05
3.22429e-05
-9.1314e-05
3.65831e-05
-9.82193e-05
4.18166e-05
-0.000106454
4.77567e-05
-0.000116059
5.40755e-05
-0.000127137
6.04219e-05
-0.000139886
6.66142e-05
-0.000154054
7.18825e-05
-0.000169455
7.58527e-05
-0.000185716
7.79534e-05
-0.000202356
7.77399e-05
-0.000218804
7.47991e-05
-0.000234388
6.87474e-05
-0.000248354
5.9354e-05
-0.000259928
4.65274e-05
-0.000268287
3.02455e-05
-0.000272673
1.07495e-05
-0.0002724
-1.15157e-05
-0.000266858
-3.62197e-05
-0.000255505
-6.28531e-05
-0.000238074
-9.01095e-05
-0.000214474
-0.000117216
-0.000184853
-0.000143169
-0.00014971
-0.0001666
-0.000110132
-0.000185071
-6.80756e-05
-0.00019451
-2.706e-05
-0.000188543
-0.000129609
2.93693e-05
-0.000156697
7.445e-05
-0.000227417
0.000120375
-0.000234216
0.000162976
-0.000221908
0.000200099
-0.000198729
0.000230692
-0.000170006
0.00025446
-0.000138908
0.000271502
-0.000107105
0.000282132
-7.5768e-05
0.000286799
-4.56882e-05
0.000286317
-1.82899e-05
0.000281291
6.01533e-06
0.000272603
2.694e-05
0.000261072
4.41656e-05
0.000247531
5.75481e-05
0.000232794
6.71486e-05
0.000217595
7.31958e-05
0.000202571
7.60779e-05
0.000188232
7.63015e-05
0.000174981
7.43512e-05
0.000163019
7.08731e-05
0.00015243
6.63632e-05
0.000143169
6.16261e-05
0.000135158
5.68362e-05
0.000128243
5.24733e-05
0.000122015
4.89894e-05
0.000116348
4.63727e-05
0.000110794
4.49711e-05
0.000105091
4.46697e-05
9.89246e-05
4.54325e-05
9.20794e-05
4.70408e-05
8.43515e-05
4.93867e-05
7.55349e-05
5.22287e-05
6.57341e-05
5.49865e-05
5.51312e-05
5.74639e-05
4.37235e-05
5.94742e-05
3.18779e-05
6.0588e-05
1.98157e-05
6.07182e-05
7.92174e-06
5.98183e-05
-3.66425e-06
5.81468e-05
-1.45303e-05
5.54233e-05
-2.46235e-05
5.22857e-05
-3.40437e-05
4.88736e-05
-4.22611e-05
4.47525e-05
-4.94243e-05
4.08156e-05
-5.56075e-05
3.70344e-05
-6.07389e-05
3.37313e-05
-6.49694e-05
3.10903e-05
-6.85207e-05
2.93884e-05
-7.16281e-05
2.88389e-05
-7.46409e-05
2.97924e-05
-7.79106e-05
3.22626e-05
-8.18259e-05
3.61575e-05
-8.66844e-05
4.14409e-05
-9.28303e-05
4.79621e-05
-0.000100563
5.54899e-05
-0.000110122
6.36343e-05
-0.000121731
7.20325e-05
-0.000135191
8.00751e-05
-0.000150649
8.73407e-05
-0.000167849
9.30529e-05
-0.000186389
9.64925e-05
-0.000205749
9.70988e-05
-0.000225246
9.42956e-05
-0.000244126
8.76267e-05
-0.000261483
7.67109e-05
-0.000276393
6.14368e-05
-0.000287918
4.17705e-05
-0.000295109
1.79419e-05
-0.000297111
-9.51339e-06
-0.000293193
-4.01369e-05
-0.000282589
-7.34561e-05
-0.00026491
-0.000107788
-0.00023993
-0.000142195
-0.000207725
-0.000175375
-0.000168792
-0.000205532
-0.000124353
-0.00022951
-7.66607e-05
-0.000242202
-2.99283e-05
-0.000235276
-0.000159536
3.2825e-05
-0.000189521
8.52346e-05
-0.000279825
0.000138269
-0.00028725
0.000186691
-0.000270329
0.000227995
-0.000240032
0.000261115
-0.000203125
0.000285891
-0.000163683
0.000302631
-0.000123846
0.00031187
-8.50042e-05
0.00031435
-4.81671e-05
0.000310852
-1.47939e-05
0.000302486
1.43836e-05
0.000290116
3.93107e-05
0.000274815
5.94703e-05
0.000257569
7.47926e-05
0.000239358
8.53587e-05
0.000221038
9.15139e-05
0.000203365
9.37469e-05
0.000186951
9.27129e-05
0.000172165
8.91348e-05
0.000159264
8.37727e-05
0.000148279
7.73477e-05
0.000139101
7.08044e-05
0.000131634
6.43031e-05
0.00012538
5.87289e-05
0.000120189
5.41819e-05
0.000115527
5.10364e-05
0.000111143
4.93562e-05
0.000106535
4.92798e-05
0.000101323
5.06446e-05
9.5125e-05
5.3239e-05
8.76553e-05
5.68561e-05
7.89897e-05
6.08939e-05
6.89858e-05
6.49899e-05
5.76838e-05
6.87656e-05
4.5332e-05
7.18257e-05
3.2473e-05
7.34466e-05
1.9199e-05
7.39917e-05
6.19191e-06
7.28247e-05
-6.27397e-06
7.06121e-05
-1.80359e-05
6.71843e-05
-2.88007e-05
6.30497e-05
-3.84924e-05
5.85649e-05
-4.69429e-05
5.32027e-05
-5.39905e-05
4.78631e-05
-5.97865e-05
4.28305e-05
-6.41974e-05
3.81423e-05
-6.74579e-05
3.4351e-05
-6.97634e-05
3.16939e-05
-7.1554e-05
3.06293e-05
-7.30734e-05
3.13113e-05
-7.48563e-05
3.40445e-05
-7.73419e-05
3.8642e-05
-8.09263e-05
4.50246e-05
-8.60758e-05
5.31114e-05
-9.31462e-05
6.25607e-05
-0.000102422
7.29108e-05
-0.00011425
8.38615e-05
-0.000128725
9.4551e-05
-0.00014568
0.000104296
-0.000165074
0.000112446
-0.000186414
0.000117832
-0.000209139
0.000119823
-0.00023245
0.000117606
-0.000255436
0.000110613
-0.000277104
9.83802e-05
-0.000296309
8.06414e-05
-0.000311913
5.73762e-05
-0.000322767
2.87971e-05
-0.000327836
-4.4428e-06
-0.000326107
-4.1865e-05
-0.000316686
-8.28767e-05
-0.000298912
-0.000125561
-0.000272399
-0.000168709
-0.000237069
-0.000210705
-0.000193367
-0.000249234
-0.000142668
-0.000280208
-8.75429e-05
-0.000297326
-3.33608e-05
-0.000289458
-0.000192895
3.68232e-05
-0.000226343
9.89901e-05
-0.000341991
0.00016151
-0.000349769
0.000217377
-0.000326195
0.000263751
-0.000286406
0.000299644
-0.000239019
0.000325256
-0.000189292
0.000341236
-0.000139829
0.000348406
-9.21699e-05
0.000347714
-4.74772e-05
0.000340564
-7.64352e-06
0.000327782
2.71639e-05
0.000310706
5.6384e-05
0.000290619
7.95633e-05
0.000268741
9.66693e-05
0.00024621
0.000107892
0.000224077
0.000113643
0.000203215
0.000114606
0.000184294
0.00011163
0.000167783
0.000105641
0.000153996
9.75566e-05
0.000142625
8.87162e-05
0.000133812
7.96171e-05
0.000126807
7.13086e-05
0.000121714
6.38226e-05
0.00011788
5.8016e-05
0.000114833
5.4084e-05
0.000111985
5.22051e-05
0.000108839
5.24268e-05
0.000104873
5.46098e-05
9.96802e-05
5.84312e-05
9.28281e-05
6.37076e-05
8.41219e-05
6.95995e-05
7.36048e-05
7.55066e-05
6.13077e-05
8.10624e-05
4.78965e-05
8.52365e-05
3.3367e-05
8.79757e-05
1.8624e-05
8.87342e-05
4.00536e-06
8.74427e-05
-9.79694e-06
8.44136e-05
-2.26872e-05
8.00739e-05
-3.43495e-05
7.47112e-05
-4.47199e-05
6.89347e-05
-5.33967e-05
6.18792e-05
-6.04488e-05
5.49152e-05
-6.57233e-05
4.81053e-05
-6.92485e-05
4.16678e-05
-7.12615e-05
3.63642e-05
-7.21404e-05
3.25727e-05
-7.20983e-05
3.05867e-05
-7.16319e-05
3.08438e-05
-7.1469e-05
3.38801e-05
-7.20181e-05
3.91897e-05
-7.39176e-05
4.6923e-05
-7.76566e-05
5.68497e-05
-8.37332e-05
6.86375e-05
-9.27265e-05
8.19045e-05
-0.000104592
9.57281e-05
-0.000119953
0.000109912
-0.000138648
0.000122991
-0.000160594
0.000134392
-0.000185334
0.000142572
-0.000212128
0.000146616
-0.000240148
0.000145626
-0.000268297
0.000138763
-0.000295361
0.000125445
-0.00031997
0.000105251
-0.000340771
7.8179e-05
-0.000356397
4.4424e-05
-0.000365367
4.52847e-06
-0.000366719
-4.05128e-05
-0.000359061
-9.05342e-05
-0.000341507
-0.000143114
-0.000313416
-0.000196801
-0.000274422
-0.000249698
-0.000224833
-0.000298822
-0.000166084
-0.000338957
-0.000101206
-0.000362205
-3.72557e-05
-0.000353407
-0.00023015
4.11991e-05
-0.000267541
0.000116526
-0.000417317
0.000191846
-0.000425091
0.000257188
-0.000391537
0.000309456
-0.000338674
0.000348161
-0.000277723
0.00037415
-0.00021528
0.000388622
-0.000154308
0.000392815
-9.63582e-05
0.000388006
-4.26725e-05
0.000375866
4.49833e-06
0.000357526
4.55053e-05
0.000334578
7.93257e-05
0.000308506
0.000105636
0.000280829
0.000124344
0.000252953
0.000135775
0.000226129
0.000140468
0.000201414
0.000139321
0.000179626
0.000133418
0.000161202
0.000124065
0.000146401
0.000112359
0.000134988
0.000100131
0.000126548
8.80575e-05
0.000120918
7.69395e-05
0.000117217
6.75245e-05
0.00011527
5.99635e-05
0.00011428
5.50739e-05
0.000113603
5.2881e-05
0.000112534
5.3496e-05
0.000110297
5.6845e-05
0.000106317
6.24109e-05
0.000100152
6.98718e-05
9.14634e-05
7.82873e-05
8.02528e-05
8.67169e-05
6.68103e-05
9.45043e-05
5.14481e-05
0.000100598
3.48801e-05
0.000104543
1.79225e-05
0.000105691
1.13433e-06
0.00010423
-1.44997e-05
0.000100047
-2.88895e-05
9.44629e-05
-4.16765e-05
8.74976e-05
-5.27898e-05
8.00476e-05
-6.19965e-05
7.10858e-05
-6.91544e-05
6.20731e-05
-7.39506e-05
5.29017e-05
-7.64606e-05
4.4178e-05
-7.6974e-05
3.68777e-05
-7.58152e-05
3.14134e-05
-7.34404e-05
2.82111e-05
-7.06026e-05
2.80046e-05
-6.77872e-05
3.10631e-05
-6.5869e-05
3.72699e-05
-6.54371e-05
4.64899e-05
-6.72564e-05
5.86685e-05
-7.19504e-05
7.33315e-05
-7.99812e-05
8.99357e-05
-9.21212e-05
0.000107869
-0.000108292
0.000126084
-0.000128911
0.000143609
-0.000153737
0.000159218
-0.000182423
0.000171258
-0.000214207
0.0001784
-0.00024799
0.00017941
-0.00028249
0.000173263
-0.000316224
0.000159181
-0.000347621
0.00013665
-0.000375013
0.000105573
-0.000396671
6.60832e-05
-0.000410872
1.87299e-05
-0.000416316
-3.50691e-05
-0.000411248
-9.56024e-05
-0.000394467
-0.000159898
-0.000364925
-0.000226344
-0.000321862
-0.000292762
-0.000265152
-0.000355532
-0.000196097
-0.000408012
-0.000118211
-0.00044009
-4.13884e-05
-0.000430227
-0.000271539
4.55148e-05
-0.000313056
0.000138982
-0.000510784
0.000232062
-0.000518171
0.000309351
-0.000468827
0.000367995
-0.000397318
0.000408987
-0.000318717
0.000434429
-0.000240718
0.000446296
-0.000166181
0.000446106
-9.61642e-05
0.000436145
-3.27131e-05
0.000417513
2.31258e-05
0.000392113
7.09079e-05
0.000361771
0.00010967
0.0003283
0.000139103
0.000293466
0.000159167
0.000259006
0.000170235
0.000226478
0.000172997
0.000197192
0.000168611
0.000172078
0.000158533
0.000151774
0.00014437
0.000135957
0.000128177
0.000124663
0.000111428
0.00011722
9.55017e-05
0.000113055
8.11063e-05
0.000111807
6.87725e-05
0.000112293
5.94782e-05
0.000114075
5.32912e-05
0.00011626
5.06966e-05
0.00011789
5.18654e-05
0.000118062
5.66728e-05
0.000115889
6.45834e-05
0.00011069
7.50705e-05
0.000102066
8.69111e-05
8.99045e-05
9.88778e-05
7.48564e-05
0.000109552
5.70668e-05
0.000118387
3.75523e-05
0.000124057
1.72834e-05
0.000125959
-2.50074e-06
0.000124014
-2.06769e-05
0.000118222
-3.71773e-05
0.000110963
-5.16144e-05
0.000101934
-6.39451e-05
9.23779e-05
-7.38173e-05
8.09577e-05
-8.10758e-05
6.93316e-05
-8.51685e-05
5.69945e-05
-8.65784e-05
4.55881e-05
-8.51425e-05
3.54418e-05
-8.14307e-05
2.77013e-05
-7.61421e-05
2.29217e-05
-6.99843e-05
2.18455e-05
-6.39707e-05
2.50479e-05
-5.88377e-05
3.21355e-05
-5.54955e-05
4.31466e-05
-5.46696e-05
5.7842e-05
-5.72067e-05
7.58686e-05
-6.39598e-05
9.66891e-05
-7.55792e-05
0.000119488
-9.25916e-05
0.000143097
-0.000115253
0.00016627
-0.000143466
0.000187431
-0.000176926
0.000204718
-0.000214672
0.000216146
-0.000255449
0.000220188
-0.000297732
0.000215548
-0.000339741
0.000201192
-0.000379604
0.000176514
-0.000415199
0.000141169
-0.000444524
9.54085e-05
-0.000465577
3.97822e-05
-0.000476198
-2.44493e-05
-0.000475052
-9.67497e-05
-0.00045998
-0.000174971
-0.000429514
-0.000256809
-0.000382196
-0.000340079
-0.00031713
-0.000420597
-0.000234873
-0.000490267
-0.00013927
-0.000535689
-4.52422e-05
-0.000524251
-0.000316781
4.89092e-05
-0.000361966
0.000168204
-0.000630077
0.000286619
-0.000636585
0.000378884
-0.000561092
0.000443482
-0.000461917
0.000485147
-0.000360382
0.000508313
-0.000263881
0.000516023
-0.000173893
0.000509976
-9.01171e-05
0.000492917
-1.56463e-05
0.000466194
4.98458e-05
0.000432014
0.000105074
0.000392486
0.000149201
0.000349807
0.000181783
0.000306155
0.000202823
0.000263668
0.000212719
0.000224245
0.000212418
0.000189521
0.000203337
0.000160627
0.000187431
0.000138248
0.000166751
0.000121983
0.000144442
0.000111309
0.000122101
0.000105523
0.000101288
0.000103855
8.27745e-05
0.000105248
6.73792e-05
0.000109304
5.54215e-05
0.000114887
4.77093e-05
0.00012088
4.47029e-05
0.00012616
4.65856e-05
0.000129526
5.33065e-05
0.000129785
6.43244e-05
0.000126022
7.88331e-05
0.000117597
9.53354e-05
0.000104385
0.000112089
8.68505e-05
0.000127086
6.55431e-05
0.000139694
4.19976e-05
0.000147602
1.71138e-05
0.000150842
-6.68869e-06
0.000147815
-2.86476e-05
0.00014018
-4.81531e-05
0.000130467
-6.49139e-05
0.000118694
-7.91944e-05
0.000106658
-9.03352e-05
9.20979e-05
-9.77301e-05
7.67261e-05
-0.000101502
6.07666e-05
-0.000101064
4.51495e-05
-9.69092e-05
3.12864e-05
-8.97564e-05
2.05479e-05
-8.09086e-05
1.40729e-05
-7.08464e-05
1.1782e-05
-6.0495e-05
1.46951e-05
-5.12108e-05
2.285e-05
-4.38671e-05
3.58019e-05
-3.9521e-05
5.34956e-05
-3.92639e-05
7.56117e-05
-4.40114e-05
0.000101437
-5.4671e-05
0.000130149
-7.21322e-05
0.000160559
-9.69323e-05
0.000191071
-0.000128746
0.000219246
-0.000167764
0.000243736
-0.000212612
0.000260995
-0.000261892
0.000269469
-0.000313716
0.000267372
-0.000365919
0.000253396
-0.000416139
0.000226734
-0.000461979
0.000187009
-0.000500933
0.000134361
-0.000530575
6.94231e-05
-0.000548407
-6.61831e-06
-0.000552816
-9.23406e-05
-0.000540788
-0.000186998
-0.000510514
-0.000287082
-0.000459562
-0.000391029
-0.000385341
-0.000494814
-0.000286128
-0.000589477
-0.000165578
-0.000656236
-4.78504e-05
-0.000641981
-0.00036463
5.32136e-05
-0.000415179
0.000212455
-0.000789317
0.00036627
-0.000790398
0.000474624
-0.000669443
0.00054202
-0.000529313
0.000580688
-0.000399048
0.000598645
-0.000281836
0.000599712
-0.000174957
0.000586195
-7.66104e-05
0.000560001
1.05454e-05
0.00052309
8.67704e-05
0.000477992
0.000150176
0.000427139
0.000200064
0.000373131
0.000235784
0.00031864
0.000257319
0.000266242
0.000265119
0.000218481
0.000260182
0.00017746
0.000244358
0.000144664
0.000220226
0.00012027
0.000191144
0.00010421
0.000160503
9.51051e-05
0.000131206
9.19168e-05
0.000104476
9.35007e-05
8.11903e-05
9.89825e-05
6.18971e-05
0.000107648
4.67562e-05
0.000118193
3.71649e-05
0.000129291
3.36047e-05
0.000139471
3.64064e-05
0.000147201
4.55764e-05
0.000150407
6.11186e-05
0.000148204
8.10359e-05
0.000140079
0.00010346
0.000125775
0.000126393
0.000105343
0.000147517
7.98755e-05
0.000165161
5.03633e-05
0.000177113
1.9646e-05
0.000181559
-1.04402e-05
0.0001779
-3.84969e-05
0.000168236
-6.2574e-05
0.000154543
-8.35087e-05
0.000139628
-0.000100783
0.000123931
-0.000113699
0.000105013
-0.000121582
8.46083e-05
-0.000124364
6.35475e-05
-0.000121809
4.25946e-05
-0.000114421
2.38981e-05
-0.000103177
9.30277e-06
-8.93002e-05
1.95055e-07
-7.42922e-05
-3.22697e-06
-5.8966e-05
-6.32004e-07
-4.42678e-05
8.15106e-06
-3.17541e-05
2.3288e-05
-2.27335e-05
4.44754e-05
-1.84191e-05
7.12981e-05
-2.00491e-05
0.000103069
-2.90237e-05
0.000139125
-4.61994e-05
0.000177735
-7.26957e-05
0.000217568
-0.000108702
0.000255253
-0.000153933
0.000288968
-0.000207245
0.000314309
-0.000266804
0.000329029
-0.000330203
0.000330773
-0.000394838
0.000318031
-0.000457872
0.000289769
-0.000516382
0.000245518
-0.000567388
0.000185365
-0.000608003
0.000110038
-0.000635314
2.06917e-05
-0.000647164
-8.04916e-05
-0.000640558
-0.000193603
-0.000612861
-0.000314778
-0.000560481
-0.000443406
-0.000477853
-0.000577442
-0.000357975
-0.000709354
-0.000202199
-0.000812014
-4.97251e-05
-0.000794456
-0.000414355
7.24081e-05
-0.000487587
0.000301638
-0.00101855
0.000501499
-0.000990259
0.000615705
-0.000783647
0.000672263
-0.000585871
0.000699677
-0.000426457
0.000708602
-0.000290763
0.000700768
-0.000167116
0.000677353
-5.31862e-05
0.000639578
4.83183e-05
0.0005901
0.000136241
0.000531657
0.00020861
0.00046711
0.000264617
0.000399366
0.000303529
0.000331554
0.000325134
0.000267008
0.00032966
0.000209048
0.00031814
0.000160478
0.000292929
0.000123447
0.000257259
9.80019e-05
0.000216588
8.29929e-05
0.000175511
7.68637e-05
0.000137335
7.77111e-05
0.000103628
8.39337e-05
7.49677e-05
9.48423e-05
5.09887e-05
0.000108978
3.26209e-05
0.000125843
2.03008e-05
0.00014361
1.58381e-05
0.000160443
1.95749e-05
0.000173737
3.22817e-05
0.00018176
5.30959e-05
0.00018228
8.05162e-05
0.0001746
0.000111139
0.000158836
0.000142156
0.000134692
0.000171661
0.000103388
0.000196464
6.7048e-05
0.000213452
2.75402e-05
0.000221066
-1.17568e-05
0.000217197
-4.82398e-05
0.000204718
-8.10357e-05
0.000187339
-0.00010924
0.000167831
-0.000131844
0.000146534
-0.000147705
0.000120873
-0.000156662
9.35652e-05
-0.000158346
6.523e-05
-0.000153251
3.74993e-05
-0.000141419
1.20656e-05
-0.000124673
-7.44354e-06
-0.00010445
-2.00284e-05
-8.29066e-05
-2.47707e-05
-6.13183e-05
-2.22206e-05
-4.02028e-05
-1.29644e-05
-2.12559e-05
4.3414e-06
-6.03131e-06
2.92515e-05
3.94418e-06
6.13234e-05
6.97558e-06
0.000100038
1.35637e-06
0.000144745
-1.48571e-05
0.00019395
-4.23973e-05
0.00024511
-8.27523e-05
0.00029561
-0.000135095
0.000341312
-0.000198593
0.000377808
-0.000270522
0.000400959
-0.000348051
0.000408303
-0.0004279
0.000397881
-0.000506532
0.0003684
-0.00058046
0.000319446
-0.000646275
0.000251179
-0.000700611
0.000164373
-0.000740266
6.03462e-05
-0.000762492
-5.82663e-05
-0.000764202
-0.000191893
-0.000742982
-0.000335999
-0.000694753
-0.000491636
-0.000610252
-0.000661946
-0.000471595
-0.000848013
-0.000268839
-0.00101477
-5.99516e-05
-0.00100334
-0.000474307
0.000128352
-0.000615939
0.000453637
-0.00134383
0.000707547
-0.00124417
0.00081538
-0.000891478
0.000839265
-0.000609759
0.00084133
-0.000428516
0.000836647
-0.000286078
0.000819811
-0.000150284
0.000786403
-1.97755e-05
0.000735217
9.95063e-05
0.000670767
0.000200694
0.000596348
0.000283038
0.000515202
0.000345756
0.000430697
0.000388033
0.00034654
0.000409293
0.000266902
0.0004093
0.000196051
0.00038899
0.000138279
0.0003507
9.6075e-05
0.000299462
6.92715e-05
0.000243391
5.64506e-05
0.000188333
5.43007e-05
0.000139486
5.97155e-05
9.82143e-05
7.09666e-05
6.37178e-05
8.69717e-05
3.49848e-05
0.000107365
1.22288e-05
0.000131972
-4.30499e-06
0.000158534
-1.0723e-05
0.00018479
-6.68074e-06
0.000207249
9.8225e-06
0.000222239
3.81052e-05
0.000227024
7.57298e-05
0.000221002
0.000117161
0.000204264
0.000158893
0.000176647
0.000199277
0.000138546
0.000234565
9.26762e-05
0.000259321
4.28855e-05
0.000270857
-7.98397e-06
0.000268066
-5.72983e-05
0.000254032
-0.000102559
0.000232599
-0.000141492
0.000206762
-0.000172029
0.00017707
-0.000193693
0.000142537
-0.00020536
0.000105231
-0.000206966
6.68358e-05
-0.000198207
2.87392e-05
-0.000180615
-5.5265e-06
-0.000155622
-3.24361e-05
-0.00012713
-4.852e-05
-9.70911e-05
-5.48097e-05
-6.71054e-05
-5.22058e-05
-3.84727e-05
-4.15964e-05
-1.15711e-05
-2.25594e-05
1.1269e-05
6.41238e-06
2.8235e-05
4.43585e-05
3.75373e-05
9.07368e-05
3.68169e-05
0.000145466
2.33863e-05
0.000207382
-5.46939e-06
0.000273966
-5.08553e-05
0.000340996
-0.000112015
0.000402472
-0.000187978
0.000453771
-0.000275235
0.000488217
-0.000370024
0.000503092
-0.000468186
0.000496044
-0.000565569
0.000465782
-0.000657991
0.000411867
-0.000741342
0.00033453
-0.000811894
0.000234924
-0.000866325