/*--------------------------------*- C++ -*----------------------------------*\
| =========                 |                                                 |
| \\      /  F ield         | OpenFOAM: The Open Source CFD Toolbox           |
|  \\    /   O peration     | Version:  2412                                  |
|   \\  /    A nd           | Website:  www.openfoam.com                      |
|    \\/     M anipulation  |                                                 |
\*---------------------------------------------------------------------------*/
FoamFile
{
    version     2.0;
    format      ascii;
    arch        "LSB;label=32;scalar=64";
    class       surfaceScalarField;
    location    "2.6";
    object      phi;
}
// * * * * * * * * * * * * * * * * * * * * * * * * * * * * * * * * * * * * * //

dimensions      [0 3 -1 0 0 0 0];

oriented        oriented;

internalField   nonuniform List<scalar> 
12640
(
-1.30404e-09
1.02128e-09
-1.97012e-09
3.24532e-09
-1.21101e-09
4.04963e-09
1.0242e-09
1.99996e-09
3.51983e-09
-2.56421e-09
4.29819e-09
-7.18882e-09
2.15896e-09
-8.66509e-09
-2.21016e-09
-5.19414e-09
-6.36746e-09
2.05885e-09
-7.56238e-09
9.25207e-09
-4.58437e-09
1.20193e-08
1.23194e-09
8.23388e-09
6.62136e-09
-4.30465e-10
8.32756e-09
-9.25329e-09
5.16495e-09
-1.32011e-08
-1.15416e-09
-9.95778e-09
-6.99897e-09
-1.35376e-09
-9.01409e-09
7.72935e-09
-6.13277e-09
1.22718e-08
-1.53972e-10
1.00325e-08
5.43765e-09
2.69032e-09
7.60159e-09
-5.3739e-09
5.47096e-09
-9.77648e-09
6.62506e-10
-8.58888e-09
-3.89341e-09
-3.14162e-09
-5.76146e-09
3.11785e-09
-4.30657e-09
6.8096e-09
-7.96105e-10
6.45661e-09
2.59524e-09
2.97201e-09
4.13476e-09
-1.25731e-09
3.40214e-09
-3.9322e-09
1.26658e-09
-4.04977e-09
-8.48507e-10
-2.15506e-09
-1.85501e-09
3.03559e-10
-1.5087e-09
1.95742e-09
-3.35413e-10
2.21613e-09
8.4804e-10
1.36508e-09
1.44966e-09
1.64384e-10
1.35527e-09
-6.93338e-10
8.45799e-10
-9.23388e-10
3.19452e-10
-6.57095e-10
3.51489e-11
-2.17399e-10
2.11769e-11
1.30089e-10
1.52257e-10
2.92353e-10
2.92267e-10
3.075e-10
3.86226e-10
2.36726e-10
4.51992e-10
1.00504e-10
5.0875e-10
-9.68931e-11
5.23202e-10
-3.01269e-10
4.29276e-10
-3.88353e-10
2.07548e-10
-2.37755e-10
-4.94901e-11
1.41389e-10
-1.61265e-10
5.42797e-10
1.71882e-11
6.4713e-10
4.50048e-10
2.44152e-10
8.7567e-10
-5.46616e-10
9.36758e-10
-1.24543e-09
4.36329e-10
-1.26369e-09
-4.48063e-10
-3.30951e-10
-1.17818e-09
1.18611e-09
-1.1551e-09
2.35373e-09
-1.569e-10
2.19498e-09
1.38474e-09
3.97593e-10
2.5204e-09
-2.26992e-09
2.33615e-09
-4.21801e-09
6.14152e-10
-3.94267e-09
-1.85412e-09
-1.08085e-09
-3.60094e-09
3.10051e-09
-3.34544e-09
6.22318e-09
-8.76424e-10
6.14785e-09
2.65274e-09
2.37243e-09
5.28859e-09
-3.43059e-09
5.41149e-09
-8.18536e-09
2.72795e-09
-9.11719e-09
-1.52522e-09
-5.39812e-09
-5.29778e-09
1.28811e-09
-6.96239e-09
7.65645e-09
-6.02768e-09
1.07189e-08
-3.22164e-09
9.34509e-09
3.66207e-09
-6.98581e-11
-7.73912e-10
-2.33667e-09
1.96463e-09
-3.87682e-09
4.89907e-09
-3.05714e-09
5.10474e-09
4.09948e-10
1.53157e-09
4.42656e-09
-4.36814e-09
5.99199e-09
-9.13625e-09
3.34145e-09
-9.30198e-09
-2.56451e-09
-3.81826e-09
-8.34568e-09
4.81485e-09
-1.02463e-08
1.17241e-08
-6.63022e-09
1.25628e-08
7.43906e-10
6.34175e-09
7.63079e-09
-3.71008e-09
9.88495e-09
-1.19225e-08
6.08624e-09
-1.35682e-08
-1.52918e-09
-7.72285e-09
-8.44197e-09
2.19388e-09
-1.06441e-08
1.05265e-08
-7.04179e-09
1.27679e-08
2.15468e-11
8.1113e-09
6.3653e-09
-3.36958e-10
8.56579e-09
-7.64677e-09
5.88626e-09
-1.00282e-08
4.25011e-10
-6.83167e-09
-4.42029e-09
-5.21519e-10
-6.0616e-09
5.11666e-09
-4.07264e-09
7.25647e-09
-9.47203e-11
5.41917e-09
3.42943e-09
1.31852e-09
4.76038e-09
-2.48087e-09
3.69103e-09
-4.11537e-09
1.34695e-09
-3.2688e-09
-7.21576e-10
-9.8768e-10
-1.48711e-09
1.2044e-09
-8.81003e-10
2.23601e-09
4.12659e-10
1.93285e-09
1.53267e-09
8.5436e-10
1.96317e-09
-2.23104e-10
1.71627e-09
-7.86819e-10
1.1605e-09
-7.69929e-10
6.94561e-10
-4.22534e-10
5.06279e-10
-4.82328e-11
5.40661e-10
1.87486e-10
6.36315e-10
2.79595e-10
6.88917e-10
2.83472e-10
7.14644e-10
2.15774e-10
7.85495e-10
4.81391e-11
9.12911e-10
-2.13629e-10
9.93657e-10
-4.57143e-10
8.78408e-10
-4.92681e-10
5.19499e-10
-1.95028e-10
7.47633e-11
3.41284e-10
-1.43745e-10
7.77979e-10
1.18618e-10
7.1562e-10
8.1937e-10
1.46902e-12
1.54447e-09
-1.05149e-09
1.71466e-09
-1.74632e-09
9.91262e-10
-1.41735e-09
-3.81543e-10
4.30643e-11
-1.58733e-09
1.92449e-09
-1.68952e-09
2.98081e-09
-2.98554e-10
2.19405e-09
1.99893e-09
-4.25639e-10
3.82404e-09
-3.5811e-09
3.8083e-09
-5.28765e-09
1.55616e-09
-4.08592e-09
-1.89088e-09
-1.39793e-10
-4.50925e-09
4.56908e-09
-4.48653e-09
7.22985e-09
-1.43255e-09
5.88671e-09
3.21584e-09
7.83834e-10
6.92523e-09
-5.54585e-09
7.51286e-09
-9.63094e-09
4.40195e-09
-9.09782e-09
-1.09513e-09
-4.13501e-09
-6.62475e-09
2.64812e-09
-9.53579e-09
7.97839e-09
-8.71451e-09
9.83231e-09
6.4431e-09
3.09273e-09
-2.44484e-09
3.14869e-10
-9.18361e-10
-4.04002e-09
3.09563e-09
-7.04913e-09
6.45167e-09
-5.88409e-09
6.61437e-09
-6.4451e-10
2.55974e-09
5.65261e-09
-4.07455e-09
8.78024e-09
-9.48095e-09
6.10775e-09
-9.96588e-09
-1.4105e-09
-4.50402e-09
-9.51308e-09
4.23602e-09
-1.31806e-08
1.12611e-08
-9.86027e-09
1.2263e-08
-1.23951e-09
6.37749e-09
7.68277e-09
-3.14402e-09
1.16708e-08
-1.08346e-08
8.49974e-09
-1.23181e-08
2.71018e-10
-6.91735e-09
-7.99709e-09
2.04607e-09
-1.15274e-08
9.38378e-09
-8.61894e-09
1.11746e-08
-1.42357e-09
6.93994e-09
5.66243e-09
-3.86194e-10
8.79104e-09
-6.47655e-09
6.82647e-09
-8.22035e-09
1.64534e-09
-5.31328e-09
-3.36539e-09
-2.87476e-11
-5.46854e-09
4.44413e-09
-4.01486e-09
5.9133e-09
-4.33281e-10
4.20664e-09
2.96789e-09
8.75294e-10
4.46674e-09
-2.00393e-09
3.7576e-09
-3.06776e-09
1.79696e-09
-2.23684e-09
-2.91635e-11
-4.45043e-10
-7.80714e-10
1.12328e-09
-3.66199e-10
1.7372e-09
6.42533e-10
1.38212e-09
1.52436e-09
5.50781e-10
1.86303e-09
-1.86395e-10
1.68829e-09
-5.18981e-10
1.30584e-09
-4.71251e-10
1.00959e-09
-2.51807e-10
8.94927e-10
-4.65746e-11
8.72122e-10
8.72116e-11
8.19322e-10
1.8223e-10
7.25506e-10
2.53692e-10
7.02727e-10
2.4131e-10
8.62329e-10
6.15351e-11
1.16473e-09
-2.74509e-10
1.38422e-09
-5.92961e-10
1.25012e-09
-6.31153e-10
6.84526e-10
-2.36324e-10
-4.69721e-11
4.48464e-10
-4.29678e-10
9.81363e-10
-3.78983e-11
8.70386e-10
1.08722e-09
-4.72969e-11
2.31415e-09
-1.36049e-09
2.72776e-09
-2.21262e-09
1.74826e-09
-1.81606e-09
-3.29955e-10
-6.80661e-11
-2.31629e-09
2.17396e-09
-2.76523e-09
3.45391e-09
-9.63281e-10
2.60881e-09
2.39202e-09
-3.38187e-10
5.37915e-09
-3.92591e-09
5.94347e-09
-5.95801e-09
3.27369e-09
-4.84301e-09
-1.45188e-09
-7.53844e-10
-5.55831e-09
4.21937e-09
-6.41707e-09
7.15941e-09
-3.11994e-09
6.07656e-09
2.80028e-09
1.22846e-09
8.10262e-09
-4.89259e-09
9.63453e-09
-8.98385e-09
6.13144e-09
-8.89115e-09
-1.03193e-09
-4.77576e-09
-7.64513e-09
1.37737e-09
-9.75655e-09
6.83795e-09
7.05519e-09
5.82257e-09
-2.71217e-09
4.31678e-09
-3.81361e-09
-9.12025e-10
-1.17871e-09
-7.27209e-09
3.90361e-09
-1.04471e-08
8.62968e-09
-7.7386e-09
9.45215e-09
3.37459e-11
4.69414e-09
8.44121e-09
-3.75323e-09
1.20019e-08
-1.11602e-08
7.80991e-09
-1.28051e-08
-2.25795e-09
-7.09975e-09
-1.23888e-08
3.10092e-09
-1.63674e-08
1.20131e-08
-1.1539e-08
1.43937e-08
-5.91935e-10
8.78832e-09
1.00631e-08
-1.54545e-09
1.42681e-08
-1.06279e-08
9.87806e-09
-1.33862e-08
-9.14447e-11
-8.61402e-09
-9.53893e-09
5.29472e-10
-1.31128e-08
8.65608e-09
-9.30661e-09
1.14379e-08
-9.78359e-10
7.98025e-09
6.78375e-09
9.47048e-10
9.86733e-09
-5.38604e-09
7.3615e-09
-7.75174e-09
1.60157e-09
-5.55938e-09
-3.67484e-09
-7.8392e-10
-5.67693e-09
3.5762e-09
-3.95019e-09
5.33722e-09
-1.69423e-10
4.1584e-09
3.23844e-09
1.33201e-09
4.60589e-09
-1.28802e-09
3.76941e-09
-2.42356e-09
1.78964e-09
-1.9166e-09
4.87379e-11
-5.15809e-10
-6.02377e-10
7.82739e-10
-1.65923e-10
1.34836e-09
7.59866e-10
1.14427e-09
1.50922e-09
5.49493e-10
1.75785e-09
-2.80158e-13
1.59637e-09
-2.81051e-10
1.3172e-09
-3.1998e-10
1.1355e-09
-2.55192e-10
1.05655e-09
-1.74061e-10
9.53907e-10
-6.32835e-11
7.55182e-10
1.13014e-10
5.59935e-10
3.038e-10
5.78165e-10
3.52256e-10
9.27982e-10
1.10806e-10
1.45865e-09
-3.9e-10
1.77247e-09
-8.7068e-10
1.48479e-09
-9.35547e-10
5.67566e-10
-3.65192e-10
-4.92109e-10
6.2806e-10
-9.09197e-10
1.40984e-09
-1.3285e-10
1.28e-09
1.64066e-09
2.56918e-13
3.38656e-09
-1.87024e-09
3.78955e-09
-3.15062e-09
2.15369e-09
-2.73548e-09
-9.11654e-10
-4.29586e-10
-3.60476e-09
2.66836e-09
-3.94563e-09
4.6232e-09
-1.14635e-09
3.82399e-09
3.58847e-09
1.63235e-10
7.51131e-09
-4.59286e-09
7.93398e-09
-7.64944e-09
4.03834e-09
-6.85386e-09
-2.3212e-09
-2.17757e-09
-7.49788e-09
4.01473e-09
-8.20186e-09
8.21209e-09
-3.62722e-09
7.8385e-09
3.82052e-09
2.86908e-09
9.75852e-09
-4.07294e-09
1.04185e-08
-9.2293e-09
5.09708e-09
-9.84012e-09
-2.40647e-09
-5.47673e-09
-6.68945e-09
1.54493e-09
5.1937e-09
5.83344e-09
-6.86653e-10
7.03145e-09
-4.3859e-09
4.04477e-09
-5.63665e-09
-2.7833e-09
-2.22691e-09
-9.99453e-09
4.73726e-09
-1.28436e-08
1.10388e-08
-8.54195e-09
1.20457e-08
1.21151e-09
5.96531e-09
1.07591e-08
-4.50769e-09
1.39259e-08
-1.3461e-08
8.13916e-09
-1.53252e-08
-3.60308e-09
-8.48308e-09
-1.43664e-08
3.45996e-09
-1.75795e-08
1.37e-08
-1.12001e-08
1.63332e-08
9.8199e-10
9.94608e-09
1.17551e-08
-1.58935e-09
1.499e-08
-1.15607e-08
9.31253e-09
-1.44945e-08
-1.34264e-09
-9.27865e-09
-1.0454e-08
5.11292e-10
-1.29916e-08
9.07997e-09
-8.22049e-09
1.19443e-08
3.52191e-10
8.3234e-09
7.53885e-09
1.09993e-09
9.68531e-09
-5.313e-09
6.52667e-09
-7.66415e-09
7.8243e-10
-5.46687e-09
-3.90592e-09
-7.67434e-10
-5.19723e-09
3.46511e-09
-3.1021e-09
5.14732e-09
5.21279e-10
4.01911e-09
3.41488e-09
1.36254e-09
4.26938e-09
-1.06749e-09
3.21585e-09
-2.11135e-09
1.37819e-09
-1.66801e-09
-2.42121e-11
-4.45856e-10
-3.87292e-10
6.6632e-10
1.20969e-10
1.14148e-09
9.01858e-10
9.80056e-10
1.42285e-09
5.14951e-10
1.52007e-09
8.73292e-11
1.3667e-09
-1.59783e-10
1.21855e-09
-2.70643e-10
1.17351e-09
-3.27558e-10
1.12582e-09
-3.26807e-10
9.22978e-10
-1.91064e-10
5.72487e-10
1.03697e-10
3.07237e-10
4.17617e-10
4.27566e-10
4.82658e-10
1.02035e-09
9.95307e-11
1.78087e-09
-6.38151e-10
2.12681e-09
-1.29172e-09
1.59519e-09
-1.30743e-09
2.74061e-10
-4.31473e-10
-1.07806e-09
9.72731e-10
-1.41702e-09
1.99589e-09
-1.43786e-10
1.70937e-09
2.29672e-09
-1.28356e-10
4.45131e-09
-2.67897e-09
4.67136e-09
-4.33348e-09
2.28142e-09
-3.67645e-09
-1.68732e-09
-5.55689e-10
-4.84486e-09
3.50312e-09
-4.84512e-09
5.98056e-09
-1.0377e-09
4.88683e-09
4.77393e-09
2.07018e-10
9.15246e-09
-5.74926e-09
9.09409e-09
-9.50853e-09
4.07724e-09
-8.52121e-09
-3.30842e-09
-2.88985e-09
-8.73692e-09
4.4515e-09
-8.79373e-09
9.35255e-09
-3.2562e-09
8.9351e-09
4.54388e-09
3.39678e-09
9.72133e-09
-4.03668e-09
9.16036e-09
-9.0239e-09
4.16065e-09
-8.67887e-09
-8.24163e-10
-3.57599e-09
1.5249e-09
2.10175e-09
2.83029e-09
5.95524e-09
-1.59332e-09
7.60352e-09
-7.128e-09
4.26523e-09
-8.31908e-09
-3.80299e-09
-3.34472e-09
-1.20561e-08
5.5156e-09
-1.47742e-08
1.29903e-08
-9.21197e-09
1.38941e-08
2.05561e-09
6.65696e-09
1.23863e-08
-5.21653e-09
1.52093e-08
-1.49484e-08
8.36902e-09
-1.65938e-08
-4.27959e-09
-8.83762e-09
-1.51642e-08
4.01347e-09
-1.77396e-08
1.45754e-08
-1.05711e-08
1.68637e-08
1.877e-09
9.86639e-09
1.21821e-08
-2.01785e-09
1.4611e-08
-1.18316e-08
8.46005e-09
-1.42886e-08
-1.92141e-09
-8.70878e-09
-1.01719e-08
1.01251e-09
-1.18712e-08
9.11489e-09
-6.88977e-09
1.14641e-08
1.10033e-09
7.66777e-09
7.29092e-09
7.50048e-10
8.67072e-09
-5.0753e-09
5.43744e-09
-6.94353e-09
3.03312e-10
-4.67035e-09
-3.52292e-09
-3.2688e-10
-4.24369e-09
3.36298e-09
-2.1754e-09
4.65004e-09
9.11352e-10
3.48107e-09
3.13093e-09
1.10874e-09
3.56657e-09
-9.26329e-10
2.52887e-09
-1.70824e-09
1.04203e-09
-1.26128e-09
5.60546e-11
-2.48415e-10
-7.68615e-11
6.00243e-10
3.8167e-10
9.15939e-10
9.20305e-10
7.63852e-10
1.18998e-09
4.26394e-10
1.18199e-09
1.29637e-10
1.10867e-09
-8.03854e-11
1.14094e-09
-2.65152e-10
1.23394e-09
-4.39126e-10
1.17814e-09
-4.97269e-10
8.26248e-10
-3.02567e-10
3.00763e-10
1.37089e-10
-1.40266e-11
5.70086e-10
2.6236e-10
6.10167e-10
1.15215e-09
2.58688e-11
2.16002e-09
-9.88223e-10
2.50337e-09
-1.80272e-09
1.65878e-09
-1.70597e-09
-1.27759e-10
-4.47463e-10
-1.78846e-09
1.40565e-09
-2.01338e-09
2.63999e-09
-1.84987e-10
2.11887e-09
2.96043e-09
-3.42487e-10
5.52051e-09
-3.57205e-09
5.53203e-09
-5.53205e-09
2.37983e-09
-4.56102e-09
-2.46457e-09
-6.33727e-10
-6.05467e-09
4.26746e-09
-5.74386e-09
7.10943e-09
-1.05945e-09
5.66463e-09
5.6386e-09
1.21856e-10
1.0349e-08
-6.69017e-09
9.88764e-09
-1.08054e-08
4.06525e-09
-9.53234e-09
-3.92684e-09
-3.25902e-09
-9.35138e-09
4.59719e-09
-8.91735e-09
9.58504e-09
-2.99149e-09
8.96697e-09
4.59888e-09
3.44814e-09
9.29644e-09
-3.31521e-09
8.96116e-09
-7.19593e-09
5.14768e-09
-6.44839e-09
-2.38685e-09
-4.02936e-09
5.7718e-09
6.47016e-10
3.45954e-09
6.87658e-09
-3.84897e-09
9.67433e-09
-9.92848e-09
5.28133e-09
-1.0546e-08
-4.5803e-09
-4.29188e-09
-1.397e-08
6.01474e-09
-1.65027e-08
1.43834e-08
-9.73962e-09
1.52597e-08
2.83698e-09
7.28873e-09
1.37524e-08
-5.42298e-09
1.62222e-08
-1.55632e-08
8.55357e-09
-1.70742e-08
-4.68531e-09
-8.94996e-09
-1.55201e-08
4.08928e-09
-1.75806e-08
1.45008e-08
-9.97877e-09
1.65097e-08
2.38382e-09
9.47457e-09
1.21189e-08
-2.01836e-09
1.39634e-08
-1.11991e-08
7.73085e-09
-1.32266e-08
-2.08576e-09
-7.7877e-09
-9.48104e-09
1.22861e-09
-1.06317e-08
8.46647e-09
-5.81025e-09
1.03301e-08
1.39128e-09
6.7367e-09
6.6629e-09
5.87102e-10
7.56049e-09
-4.37159e-09
4.54264e-09
-5.77725e-09
1.3167e-10
-3.67457e-09
-2.94466e-09
2.31255e-11
-3.33304e-09
3.00169e-09
-1.49255e-09
3.90373e-09
1.00914e-09
2.82718e-09
2.66325e-09
8.8687e-10
2.85606e-09
-6.76531e-10
1.96561e-09
-1.21147e-09
8.52298e-10
-8.3008e-10
2.07607e-10
-9.27241e-11
1.94795e-10
4.67182e-10
5.26635e-10
6.41295e-10
8.14439e-10
5.34429e-10
8.84886e-10
3.48221e-10
8.48011e-10
1.77897e-10
9.13935e-10
-2.1588e-11
1.14168e-09
-3.07857e-10
1.34009e-09
-6.05802e-10
1.21502e-09
-7.00723e-10
6.57765e-10
-4.06974e-10
-6.14319e-11
2.10837e-10
-3.92288e-10
7.65744e-10
1.10706e-10
7.46867e-10
1.36414e-09
-9.20437e-11
2.63708e-09
-1.42312e-09
2.92731e-09
-2.39941e-09
1.67448e-09
-2.14883e-09
-6.6144e-10
-4.48829e-10
-2.65042e-09
1.89457e-09
-2.7045e-09
3.34372e-09
-2.27391e-10
2.56275e-09
3.68838e-09
-5.48653e-10
6.64901e-09
-4.46571e-09
6.38913e-09
-6.73284e-09
2.41051e-09
-5.47622e-09
-3.3216e-09
-8.18129e-10
-7.30171e-09
4.83147e-09
-6.63749e-09
8.00437e-09
-1.10178e-09
6.31323e-09
6.37189e-09
1.55795e-10
1.12823e-08
-7.22584e-09
1.03759e-08
-1.15507e-08
3.86995e-09
-1.01254e-08
-4.47586e-09
-3.61063e-09
-9.64603e-09
4.3006e-09
-8.59822e-09
9.17006e-09
-2.23288e-09
8.60611e-09
5.41613e-09
3.63777e-09
9.62193e-09
-2.34276e-09
8.42694e-09
-5.99654e-09
-4.75489e-09
-9.24657e-09
6.03235e-09
-6.44892e-09
7.84323e-09
1.45379e-09
2.95521e-09
9.70608e-09
-5.07938e-09
1.20282e-08
-1.17516e-08
5.98569e-09
-1.23211e-08
-5.54667e-09
-5.20149e-09
-1.56642e-08
6.23945e-09
-1.77295e-08
1.53333e-08
-9.82517e-09
1.6238e-08
3.69797e-09
7.82079e-09
1.47729e-08
-5.34964e-09
1.66801e-08
-1.56533e-08
8.32003e-09
-1.70825e-08
-5.12837e-09
-8.91836e-09
-1.55456e-08
3.90917e-09
-1.6966e-08
1.39498e-08
-9.09917e-09
1.57688e-08
2.86073e-09
9.01975e-09
1.17793e-08
-1.74438e-09
1.30004e-08
-1.0154e-08
6.83035e-09
-1.18782e-08
-2.23496e-09
-6.85876e-09
-8.6833e-09
1.21799e-09
-9.32564e-09
7.54304e-09
-4.7672e-09
9.06049e-09
1.58211e-09
5.87577e-09
5.9603e-09
6.20386e-10
6.4568e-09
-3.49637e-09
3.71282e-09
-4.57569e-09
6.22574e-12
-2.78515e-09
-2.40498e-09
2.12214e-10
-2.54816e-09
2.53269e-09
-9.60493e-10
3.15846e-09
1.01202e-09
2.25965e-09
2.20112e-09
7.62441e-10
2.23445e-09
-3.88544e-10
1.51258e-09
-7.60074e-10
7.28996e-10
-4.99724e-10
3.50051e-10
-3.84048e-11
3.94631e-10
2.78278e-10
5.79998e-10
3.69919e-10
6.44327e-10
3.46945e-10
5.72409e-10
3.12412e-10
5.65317e-10
2.3509e-10
8.04813e-10
1.61135e-13
1.22223e-09
-4.19726e-10
1.48097e-09
-8.41283e-10
1.22235e-09
-9.38733e-10
4.09961e-10
-4.95406e-10
-5.06861e-10
3.38667e-10
-8.03329e-10
1.01699e-09
5.36938e-12
8.99902e-10
1.68034e-09
-2.52614e-10
3.21172e-09
-1.94416e-09
3.37342e-09
-3.08288e-09
1.61249e-09
-2.63567e-09
-1.33058e-09
-4.35327e-10
-3.62262e-09
2.43732e-09
-3.41699e-09
4.10231e-09
-2.09285e-10
3.03695e-09
4.48182e-09
-7.44714e-10
7.76058e-09
-5.34732e-09
7.12573e-09
-7.91239e-09
2.29376e-09
-6.39176e-09
-4.22736e-09
-1.07898e-09
-8.42672e-09
5.21462e-09
-7.30052e-09
8.66142e-09
-9.88507e-10
6.7918e-09
6.99626e-09
2.25751e-10
1.17955e-08
-7.46504e-09
1.03053e-08
-1.18291e-08
3.30369e-09
-1.02829e-08
-4.90737e-09
-3.74839e-09
-9.25013e-09
3.94524e-09
-7.21077e-09
8.51891e-09
-4.25542e-10
7.87032e-09
6.01156e-09
3.00747e-09
7.67645e-09
-2.80293e-09
-4.62301e-09
-1.01933e-08
2.96364e-09
-1.1217e-08
8.61137e-09
-5.95743e-09
9.42106e-09
3.66958e-09
3.98218e-09
1.20498e-08
-5.44123e-09
1.35415e-08
-1.31826e-08
6.12539e-09
-1.38207e-08
-6.50499e-09
-5.98937e-09
-1.68303e-08
6.28512e-09
-1.82468e-08
1.58132e-08
-9.45886e-09
1.66786e-08
4.46817e-09
8.04897e-09
1.52086e-08
-5.1681e-09
1.6413e-08
-1.52876e-08
7.65151e-09
-1.65512e-08
-5.4861e-09
-8.55477e-09
-1.50692e-08
3.71179e-09
-1.57788e-08
1.31079e-08
-7.92419e-09
1.46791e-08
3.22173e-09
8.36135e-09
1.10432e-08
-1.45786e-09
1.16303e-08
-8.95324e-09
5.7285e-09
-1.03648e-08
-2.33898e-09
-5.84685e-09
-7.71213e-09
1.20743e-09
-7.8792e-09
6.59647e-09
-3.70489e-09
7.79683e-09
1.6937e-09
5.04863e-09
5.16432e-09
6.68836e-10
5.3117e-09
-2.66819e-09
2.89538e-09
-3.48087e-09
-1.01275e-10
-2.01003e-09
-1.88954e-09
3.4429e-10
-1.83579e-09
2.09496e-09
-5.114e-10
2.50826e-09
9.7133e-10
1.7879e-09
1.7597e-09
6.73393e-10
1.6825e-09
-1.49108e-10
1.13596e-09
-4.17899e-10
6.47482e-10
-2.87685e-10
4.81735e-10
-6.24347e-11
5.42464e-10
7.35807e-11
5.71102e-10
1.35013e-10
4.36074e-10
2.1512e-10
2.68629e-10
3.13795e-10
3.39562e-10
2.86046e-10
7.78795e-10
-2.96919e-11
1.37397e-09
-6.07027e-10
1.64445e-09
-1.14092e-09
1.1899e-09
-1.19842e-09
8.21804e-11
-5.53395e-10
-1.02189e-09
5.29281e-10
-1.22395e-09
1.3233e-09
-3.57442e-11
1.06331e-09
2.09722e-09
-4.57485e-10
3.85571e-09
-2.5397e-09
3.80667e-09
-3.82865e-09
1.46246e-09
-3.14277e-09
-2.09801e-09
-4.04434e-10
-4.62848e-09
3.0024e-09
-4.07741e-09
4.85846e-09
-1.13742e-10
3.48917e-09
5.27598e-09
-9.39805e-10
8.73855e-09
-6.16166e-09
7.64897e-09
-8.96511e-09
2.03629e-09
-7.19903e-09
-5.05454e-09
-1.36221e-09
-9.24021e-09
5.3808e-09
-7.59032e-09
8.96193e-09
-7.13419e-10
6.94827e-09
7.38031e-09
2.13895e-10
1.1726e-08
-7.43464e-09
9.64269e-09
-1.15517e-08
2.57025e-09
-9.81704e-09
-4.8448e-09
-3.45834e-09
-7.91737e-09
3.6206e-09
-5.17976e-09
7.37939e-09
2.60935e-10
6.05847e-09
3.66893e-09
1.23082e-09
-2.36149e-09
-5.7242e-09
-1.9554e-09
-1.04496e-08
4.88075e-09
-1.10327e-08
1.14968e-08
-5.31739e-09
1.19572e-08
4.81678e-09
4.98052e-09
1.3375e-08
-5.9107e-09
1.42882e-08
-1.43347e-08
5.94431e-09
-1.48338e-08
-7.2353e-09
-6.48907e-09
-1.7353e-08
6.16714e-09
-1.80703e-08
1.57383e-08
-8.75817e-09
1.64905e-08
5.01714e-09
7.93754e-09
1.50173e-08
-4.85378e-09
1.55085e-08
-1.44154e-08
6.71073e-09
-1.54408e-08
-5.63502e-09
-7.84694e-09
-1.40984e-08
3.48981e-09
-1.41597e-08
1.19627e-08
-6.63797e-09
1.32292e-08
3.35705e-09
7.48465e-09
9.94097e-09
-1.1804e-09
9.9974e-09
-7.61892e-09
4.58998e-09
-8.69497e-09
-2.30752e-09
-4.7378e-09
-6.58945e-09
1.22664e-09
-6.39345e-09
5.65092e-09
-2.73171e-09
6.53735e-09
1.67119e-09
4.22364e-09
4.2913e-09
6.87712e-10
4.18807e-09
-1.91884e-09
2.15826e-09
-2.49433e-09
-1.48558e-10
-1.32368e-09
-1.38908e-09
4.51524e-10
-1.20869e-09
1.70424e-09
-1.63999e-10
1.94192e-09
8.73213e-10
1.3812e-09
1.33319e-09
5.88023e-10
1.20117e-09
2.59633e-11
8.41003e-10
-1.79317e-10
6.15154e-10
-1.73627e-10
6.10036e-10
-1.42374e-10
6.43711e-10
-1.32737e-10
5.0271e-10
-6.1105e-11
1.90807e-10
1.32155e-10
-2.55507e-11
3.42263e-10
1.71049e-10
3.2314e-10
8.32857e-10
-1.12142e-10
1.58806e-09
-8.62481e-10
1.81762e-09
-1.49099e-09
1.10813e-09
-1.4653e-09
-3.22951e-10
-5.73418e-10
-1.58964e-09
7.78369e-10
-1.6329e-09
1.67166e-09
-5.08974e-12
1.22734e-09
2.59552e-09
-6.98687e-10
4.5285e-09
-3.1786e-09
4.19161e-09
-4.5945e-09
1.22624e-09
-3.64368e-09
-2.91111e-09
-3.71291e-10
-5.58616e-09
3.52852e-09
-4.62356e-09
5.53135e-09
5.69301e-11
3.86623e-09
5.99774e-09
-1.11966e-09
9.48287e-09
-6.8227e-09
7.9008e-09
-9.77233e-09
1.66804e-09
-7.8089e-09
-5.6994e-09
-1.65557e-09
-9.63431e-09
5.26294e-09
-7.46994e-09
8.80374e-09
-3.26253e-10
6.70773e-09
7.46051e-09
1.13334e-10
1.11158e-08
-7.08002e-09
8.59153e-09
-1.06561e-08
1.90337e-09
-8.73954e-09
-4.39411e-09
-2.90202e-09
-6.5982e-09
3.02905e-09
-4.59152e-09
5.58643e-09
-1.29208e-09
4.00166e-09
6.25465e-10
2.09673e-09
-5.86743e-09
-4.08224e-09
-1.32796e-09
-1.05684e-08
7.7132e-09
-1.21048e-08
1.39155e-08
-5.72293e-09
1.32252e-08
5.34869e-09
5.1796e-09
1.41214e-08
-6.35615e-09
1.45033e-08
-1.48809e-08
5.53934e-09
-1.51533e-08
-7.70527e-09
-6.64206e-09
-1.72452e-08
5.87387e-09
-1.72603e-08
1.51088e-08
-7.79734e-09
1.57185e-08
5.32235e-09
7.55e-09
1.42706e-08
-4.38181e-09
1.41038e-08
-1.30889e-08
5.6108e-09
-1.38662e-08
-5.57384e-09
-6.9088e-09
-1.276e-08
3.20001e-09
-1.22899e-08
1.05694e-08
-5.36082e-09
1.15394e-08
3.28472e-09
6.50279e-09
8.61641e-09
-8.69949e-10
8.28012e-09
-6.19732e-09
3.52166e-09
-6.96893e-09
-2.15821e-09
-3.62733e-09
-5.42951e-09
1.2297e-09
-4.99835e-09
4.71963e-09
-1.91656e-09
5.33113e-09
1.53422e-09
3.45108e-09
3.42084e-09
7.04216e-10
3.16973e-09
-1.24896e-09
1.54538e-09
-1.63497e-09
-1.41744e-10
-7.5026e-10
-9.39572e-10
5.12939e-10
-7.02814e-10
1.34548e-09
6.52248e-11
1.4505e-09
7.22278e-10
1.03707e-09
9.3668e-10
5.10853e-10
8.03687e-10
1.4721e-10
6.3247e-10
-3.10092e-11
6.28431e-10
-1.45782e-10
7.2706e-10
-2.71249e-10
6.90873e-10
-3.39388e-10
3.7123e-10
-2.21675e-10
-8.99374e-11
9.24623e-11
-3.05463e-10
3.92541e-10
6.24373e-11
3.44608e-10
9.61916e-10
-2.42238e-10
1.85003e-09
-1.17326e-09
1.98268e-09
-1.87424e-09
9.67769e-10
-1.72615e-09
-7.96421e-10
-5.55584e-10
-2.18487e-09
1.06951e-09
-2.00561e-09
2.03812e-09
9.86061e-11
1.37896e-09
3.14184e-09
-9.61416e-10
5.17525e-09
-3.81668e-09
4.48672e-09
-5.32709e-09
9.10683e-10
-4.10937e-09
-3.70628e-09
-3.56931e-10
-6.40569e-09
3.94648e-09
-4.99296e-09
6.03723e-09
2.96029e-10
4.11713e-09
6.57336e-09
-1.27128e-09
9.90076e-09
-7.25961e-09
7.83075e-09
-1.02453e-08
1.2099e-09
-8.16094e-09
-6.09584e-09
-1.94708e-09
-9.55717e-09
4.84316e-09
-6.93932e-09
8.17895e-09
1.491e-10
6.097e-09
7.26498e-09
-3.41185e-11
1.00776e-08
-6.4087e-09
7.23068e-09
-9.27113e-09
1.0504e-09
-7.3083e-09
-4.44189e-09
-2.29568e-09
-6.3562e-09
2.43154e-09
-4.74052e-09
4.3808e-09
2.77916e-09
9.05145e-09
-6.30898e-09
4.52303e-09
-6.22525e-09
-4.64453e-09
3.37576e-10
-1.27419e-08
8.64246e-09
-1.35164e-08
1.42695e-08
-5.86347e-09
1.32654e-08
5.88177e-09
5.04606e-09
1.44213e-08
-6.41932e-09
1.41506e-08
-1.46704e-08
4.88071e-09
-1.47572e-08
-7.91553e-09
-6.4617e-09
-1.65282e-08
5.42172e-09
-1.5881e-08
1.3993e-08
-6.64332e-09
1.44555e-08
5.37839e-09
6.94238e-09
1.30498e-08
-3.78538e-09
1.23222e-08
-1.14321e-08
4.43133e-09
-1.19815e-08
-5.32782e-09
-5.83771e-09
-1.11727e-08
2.85948e-09
-1.03033e-08
9.04905e-09
-4.15345e-09
9.76199e-09
3.05419e-09
5.51161e-09
7.1916e-09
-5.35551e-10
6.59155e-09
-4.7867e-09
2.56023e-09
-5.31112e-09
-1.94125e-09
-2.59884e-09
-4.32396e-09
1.20667e-09
-3.76329e-09
3.85237e-09
-1.26836e-09
4.24578e-09
1.3274e-09
2.77642e-09
2.61253e-09
7.25018e-10
2.29237e-09
-6.82029e-10
1.05386e-09
-9.35381e-10
-1.09289e-10
-3.13966e-10
-5.69818e-10
5.18682e-10
-3.29025e-10
1.01932e-09
1.85111e-10
1.03837e-09
5.35978e-10
7.59488e-10
5.82894e-10
4.45248e-10
4.91117e-10
2.19141e-10
5.01007e-10
3.37913e-11
6.73486e-10
-1.95806e-10
8.20795e-10
-4.4133e-10
6.78012e-10
-5.41929e-10
1.78397e-10
-3.47417e-10
-3.98323e-10
9.04952e-11
-5.62451e-10
4.57832e-10
1.54118e-11
3.48647e-10
1.15474e-09
-4.11039e-10
2.13739e-09
-1.51921e-09
2.11739e-09
-2.26725e-09
7.62971e-10
-1.96841e-09
-1.31879e-09
-5.1021e-10
-2.7713e-09
1.36983e-09
-2.31386e-09
2.38419e-09
2.68832e-10
1.50056e-09
3.68755e-09
-1.2228e-09
5.72817e-09
-4.39377e-09
4.64833e-09
-5.95814e-09
5.31524e-10
-4.50368e-09
-4.40868e-09
-3.83595e-10
-6.9944e-09
4.18239e-09
-5.13248e-09
6.28845e-09
5.83616e-10
4.18646e-09
6.92572e-09
-1.39294e-09
9.91291e-09
-7.42375e-09
7.40983e-09
-1.03223e-08
6.91995e-10
-8.20833e-09
-6.19541e-09
-2.20551e-09
-8.99414e-09
4.16142e-09
-6.03022e-09
7.15612e-09
6.72468e-10
5.19508e-09
6.77783e-09
-2.02161e-10
8.57115e-09
-5.51349e-09
5.3582e-09
-7.59099e-09
-3.99186e-10
-5.61345e-09
-4.76664e-09
-1.24462e-09
-5.35837e-09
2.71738e-09
3.26372e-09
1.13134e-08
-2.85543e-09
1.05569e-08
-6.69371e-09
3.32737e-09
-6.02246e-09
-7.01772e-09
-4.54774e-10
-1.42329e-08
7.74022e-09
-1.37505e-08
1.3589e-08
-5.30034e-09
1.27808e-08
6.33813e-09
4.87016e-09
1.41151e-08
-6.05715e-09
1.31724e-08
-1.37605e-08
4.00149e-09
-1.37236e-08
-7.83819e-09
-5.99642e-09
-1.52491e-08
4.82853e-09
-1.40425e-08
1.24779e-08
-5.39225e-09
1.28124e-08
5.17993e-09
6.17803e-09
1.14535e-08
-3.09833e-09
1.03036e-08
-9.56518e-09
3.26075e-09
-9.92568e-09
-4.91581e-09
-4.70995e-09
-9.44356e-09
2.49576e-09
-8.31973e-09
7.50865e-09
-3.07205e-09
8.01333e-09
2.69858e-09
4.56865e-09
5.75359e-09
-2.03384e-10
5.009e-09
-3.46937e-09
1.72815e-09
-3.80539e-09
-1.68934e-09
-1.6939e-09
-3.32508e-09
1.16738e-09
-2.72034e-09
3.08773e-09
-7.82939e-10
3.31599e-09
1.07804e-09
2.21058e-09
1.89075e-09
7.38661e-10
1.55985e-09
-2.36652e-10
6.68636e-10
-4.06674e-10
-7.0036e-11
-1.39822e-11
-2.87496e-10
4.75755e-10
-7.96644e-11
7.30237e-10
2.11561e-10
7.03049e-10
3.27298e-10
5.41355e-10
2.74541e-10
3.85819e-10
2.55372e-10
2.43453e-10
4.32113e-10
2.4973e-11
7.35168e-10
-3.09168e-10
8.80504e-10
-6.39607e-10
6.02604e-10
-7.34583e-10
-6.85743e-11
-4.42106e-10
-7.20276e-10
1.15867e-10
-7.84061e-10
5.29043e-10
2.96863e-11
3.36926e-10
1.39199e-09
-6.00951e-10
2.41766e-09
-1.87135e-09
2.19459e-09
-2.64441e-09
4.92625e-10
-2.18794e-09
-1.85782e-09
-4.64072e-10
-3.29954e-09
1.63046e-09
-2.52471e-09
2.66529e-09
4.92752e-10
1.58217e-09
4.17222e-09
-1.44372e-09
6.11188e-09
-4.83603e-09
4.63478e-09
-6.41728e-09
1.11941e-10
-4.79994e-09
-4.94164e-09
-4.84746e-10
-7.27118e-09
4.16131e-09
-5.00922e-09
6.21029e-09
8.87447e-10
4.03635e-09
6.98967e-09
-1.47752e-09
9.47688e-09
-7.28418e-09
6.65084e-09
-9.97603e-09
1.62712e-10
-7.93435e-09
-5.97137e-09
-2.40118e-09
-7.98674e-09
3.29084e-09
-4.85098e-09
5.85189e-09
1.10853e-09
4.11367e-09
5.87845e-09
-3.48649e-10
6.53405e-09
-4.42432e-09
3.12399e-09
-5.58946e-09
-1.32183e-09
-3.39162e-09
-3.47924e-09
3.96325e-10
2.29792e-09
7.81774e-09
2.51688e-09
1.07689e-08
-2.40769e-09
8.76457e-09
-7.48147e-09
1.46094e-09
-7.63222e-09
-7.96549e-09
-1.87886e-09
-1.41276e-08
6.59787e-09
-1.28494e-08
1.25478e-08
-4.3672e-09
1.19362e-08
6.4626e-09
4.63078e-09
1.31386e-08
-5.36047e-09
1.16442e-08
-1.22888e-08
2.99889e-09
-1.22023e-08
-7.45744e-09
-5.3393e-09
-1.35034e-08
4.11466e-09
-1.1894e-08
1.06914e-08
-4.14634e-09
1.09502e-08
4.74244e-09
5.35327e-09
9.60546e-09
-2.34601e-09
8.19818e-09
-7.61554e-09
2.1806e-09
-7.84823e-09
-4.3686e-09
-3.61167e-09
-7.68384e-09
2.12362e-09
-6.45273e-09
6.03714e-09
-2.16524e-09
6.39164e-09
2.24904e-09
3.72435e-09
4.37601e-09
1.12607e-10
3.5938e-09
-2.29917e-09
1.04149e-09
-2.50518e-09
-1.4267e-09
-9.3861e-10
-2.46778e-09
1.11403e-09
-1.88767e-09
2.43894e-09
-4.54903e-10
2.54872e-09
8.02266e-10
1.74953e-09
1.26472e-09
7.37754e-10
9.66768e-10
8.67017e-11
3.75519e-10
-3.90877e-11
-3.47708e-11
1.63765e-10
-9.1775e-11
3.92892e-10
5.69377e-11
4.75858e-10
1.59554e-10
4.33125e-10
1.06165e-10
3.7013e-10
1.17829e-11
3.2717e-10
8.67071e-11
2.2573e-10
4.09372e-10
-4.30587e-11
7.9596e-10
-4.68994e-10
8.94766e-10
-8.53842e-10
4.66083e-10
-9.14316e-10
-3.5339e-10
-5.11809e-10
-1.03161e-09
1.58561e-10
-9.53628e-10
6.0057e-10
9.852e-11
3.15666e-10
1.63931e-09
-7.92544e-10
2.64388e-09
-2.20465e-09
2.18378e-09
-2.98949e-09
1.67866e-10
-2.39051e-09
-2.35954e-09
-4.47227e-10
-3.702e-09
1.81035e-09
-2.6013e-09
2.85296e-09
7.4673e-10
1.62764e-09
4.52038e-09
-1.58621e-09
6.24445e-09
-5.09099e-09
4.41042e-09
-6.6673e-09
-3.15095e-10
-4.99622e-09
-5.22918e-09
-6.89903e-10
-7.17216e-09
3.84675e-09
-4.61359e-09
5.78477e-09
1.1674e-09
3.67274e-09
6.72301e-09
-1.51478e-09
8.598e-09
-6.85298e-09
5.61174e-09
-9.24625e-09
-3.1928e-10
-7.37543e-09
-5.43786e-09
-2.51703e-09
-6.66001e-09
2.33292e-09
-3.60261e-09
4.43347e-09
1.2916e-09
3.02883e-09
4.61521e-09
-3.33321e-10
4.47065e-09
-3.03773e-09
1.85572e-09
-3.24306e-09
-6.01274e-10
-1.16363e-09
8.06476e-10
8.71039e-10
6.6538e-09
5.46786e-09
3.88792e-09
8.85523e-09
-3.50687e-09
7.71192e-09
-8.72771e-09
1.05885e-09
-8.43443e-09
-7.64418e-09
-2.58808e-09
-1.29831e-08
5.5657e-09
-1.1325e-08
1.11771e-08
-3.37266e-09
1.0727e-08
6.16798e-09
4.28371e-09
1.15734e-08
-4.46718e-09
9.72411e-09
-1.04687e-08
1.99479e-09
-1.0387e-08
-6.7719e-09
-4.56138e-09
-1.14136e-08
3.36954e-09
-9.60218e-09
8.82763e-09
-3.00718e-09
9.05249e-09
4.09123e-09
4.53909e-09
7.63265e-09
-1.59942e-09
6.14555e-09
-5.74158e-09
1.25543e-09
-5.89818e-09
-3.72544e-09
-2.60616e-09
-5.99563e-09
1.78022e-09
-4.79438e-09
4.72801e-09
-1.46322e-09
4.98165e-09
1.73887e-09
3.01159e-09
3.11711e-09
3.92008e-10
2.38531e-09
-1.3207e-09
5.02049e-10
-1.44684e-09
-1.17668e-09
-3.46664e-10
-1.77423e-09
1.04889e-09
-1.26871e-09
1.9092e-09
-2.70818e-10
1.93944e-09
5.15245e-10
1.38435e-09
7.37495e-10
7.18795e-10
5.01823e-10
2.96257e-10
1.57908e-10
1.8463e-10
-1.33168e-11
2.36191e-10
2.08522e-11
2.77795e-10
9.54982e-11
2.52165e-10
4.69085e-11
2.17405e-10
-1.15559e-10
2.35169e-10
-2.05485e-10
2.65315e-10
-2.79155e-11
1.70618e-10
4.11502e-10
-1.58738e-10
8.36009e-10
-6.6042e-10
8.56732e-10
-1.07003e-09
2.82009e-10
-1.07202e-09
-6.45496e-10
-5.5533e-10
-1.30105e-09
2.11525e-10
-1.06139e-09
6.60918e-10
1.96234e-10
2.76267e-10
1.8431e-09
-9.84276e-10
2.76437e-09
-2.5052e-09
2.07153e-09
-3.28167e-09
-1.68698e-10
-2.55934e-09
-2.74296e-09
-4.56985e-10
-3.90642e-09
1.89544e-09
-2.52764e-09
2.92258e-09
9.76457e-10
1.61264e-09
4.64041e-09
-1.66566e-09
6.05711e-09
-5.16206e-09
3.97445e-09
-6.70023e-09
-6.86317e-10
-5.07265e-09