/*--------------------------------*- C++ -*----------------------------------*\
| =========                 |                                                 |
| \\      /  F ield         | OpenFOAM: The Open Source CFD Toolbox           |
|  \\    /   O peration     | Version:  2412                                  |
|   \\  /    A nd           | Website:  www.openfoam.com                      |
|    \\/     M anipulation  |                                                 |
\*---------------------------------------------------------------------------*/
FoamFile
{
    version     2.0;
    format      ascii;
    arch        "LSB;label=32;scalar=64";
    class       volScalarField;
    location    "2.3";
    object      p_rgh;
}
// * * * * * * * * * * * * * * * * * * * * * * * * * * * * * * * * * * * * * //

dimensions      [1 -1 -2 0 0 0 0];

internalField   nonuniform List<scalar> 
6400
(
24495.1
24483.5
24472.8
24469.3
24480.8
24506.3
24532.6
24541.5
24521.6
24479
24435.2
24415.7
24433.3
24478.7
24525.2
24544.1
24522.8
24472.3
24420.5
24394.8
24406.2
24444.1
24484
24503.5
24494.3
24465.1
24434.2
24417.8
24421.4
24439.1
24459.2
24471.8
24473.6
24467.9
24461
24457.9
24460.1
24465.9
24472.5
24477.6
24480.8
24482.8
24484.5
24486.3
24488
24489.3
24490
24490.4
24490.9
24491.6
24492.2
24491.7
24489.6
24486.5
24483.6
24482.3
24482.9
24484
24483.2
24478.4
24470.4
24462.5
24459.5
24464
24473.4
24480.9
24478.8
24464.1
24442
24424.7
24423.8
24443.1
24474.2
24500.2
24505
24483.1
24442.3
24398.5
24366.9
24351
24498.9
24499.8
24492
24476.9
24464.2
24466.1
24485.8
24513.6
24531.6
24525.4
24494.2
24453.4
24425.9
24427.9
24457.6
24496.2
24519.5
24512.5
24479
24438.2
24412.2
24412.8
24435.8
24464.6
24482
24480.1
24462.9
24442.5
24430.3
24431.3
24442.2
24455.7
24465.1
24467.8
24465.8
24462.9
24462.3
24465
24469.6
24474.5
24478.3
24480.8
24482.7
24484.6
24486.5
24488.1
24489.1
24489.3
24489.1
24489.1
24489.6
24490
24489.6
24487.5
24483.9
24480.2
24478.1
24478.4
24480.2
24480.8
24477.4
24469.6
24460.2
24454.3
24456.2
24465.5
24476.3
24480.1
24471.4
24451.7
24430.6
24420.6
24429
24453.1
24480.7
24496.6
24490.5
24461.6
24420.2
24369.9
24490.5
24508.2
24512.1
24498.1
24471.4
24449.6
24449.7
24476.1
24515.4
24543.4
24539.9
24502.9
24451.2
24414
24412.2
24445.3
24491.7
24522.4
24519.3
24485
24440.5
24410.3
24408.2
24430.5
24460.5
24480.2
24480.9
24466
24447.1
24435.4
24435.6
24445.1
24457.3
24466.1
24469.3
24468.5
24467
24467.3
24470
24474.1
24478.1
24481
24483
24484.8
24486.7
24488.7
24490
24490.4
24489.7
24488.9
24488.7
24489.4
24490.2
24489.7
24486.8
24481.8
24476.9
24474.7
24476.5
24480.6
24482.8
24478.9
24468
24454.6
24446.3
24449.5
24464.1
24481.7
24490
24480.2
24454
24424.1
24407.6
24415.7
24446
24482.7
24504.9
24497
24461.3
24404
24473.5
24504
24524.2
24524.4
24499.3
24461.2
24433.6
24436.9
24473.7
24524.4
24557.7
24549.9
24502.2
24440.1
24399
24401.5
24443.3
24497
24529.8
24523.2
24483.6
24435.5
24405.5
24406.4
24431.9
24463.5
24482.9
24482.4
24467
24448.7
24438.4
24439.9
24449.8
24461.4
24469.4
24472.1
24471.6
24470.7
24471.7
24474.6
24478.3
24481.5
24483.7
24485.3
24487
24489
24490.8
24491.7
24491.1
24489.6
24488.2
24488.2
24489.5
24490.9
24490
24485.6
24478.8
24472.9
24471.5
24475.9
24483
24486.4
24480.5
24465
24447
24437.5
24444.5
24466.2
24490.4
24500.5
24486.4
24452
24415.1
24397.1
24409.9
24447.4
24487.5
24505
24489.9
24448
24458.8
24486.9
24517.6
24539
24534.1
24499.7
24452.4
24420.8
24427.6
24472.7
24530.7
24565.3
24552.9
24498.1
24431.8
24391.9
24399.3
24445.7
24500.3
24530.1
24519.6
24478.5
24432.6
24407
24411.5
24437.6
24466.7
24482.7
24480.4
24465.9
24450.6
24443.4
24446.5
24456
24466
24472.3
24474.4
24474.1
24474.2
24475.9
24479
24482.1
24484.5
24485.9
24487.1
24488.8
24490.9
24492.5
24492.7
24491.2
24488.7
24487.1
24487.5
24489.8
24491.7
24490.1
24484
24475.1
24468.4
24468.5
24476.2
24486.5
24490.7
24482.2
24461.8
24439.6
24429.4
24440.3
24468.6
24498
24508.9
24491
24451.1
24411
24394
24410.1
24448.4
24484.3
24497.5
24487.5
24460
24466.6
24492.2
24527.8
24552
24543.9
24501.1
24445
24409.7
24419.3
24471
24534.2
24569.6
24554
24495.4
24428
24390
24400.2
24447.4
24500
24526.5
24514.5
24475.4
24434.2
24413.1
24419.1
24443.1
24468.2
24480.9
24478.2
24466.1
24454.5
24450.2
24454
24462.4
24470.3
24475
24476.6
24477
24478
24480.3
24483.2
24485.7
24487.1
24487.9
24488.8
24490.6
24492.8
24494.2
24493.5
24490.8
24487.5
24485.8
24487.2
24490.7
24493
24490.6
24482.2
24471
24463.7
24465.8
24477.4
24491.3
24496.4
24484.8
24459
24432.4
24421.7
24436.6
24470.9
24504.8
24516.2
24495.3
24451.9
24410.5
24394.8
24412.2
24449.8
24484.5
24508.4
24482.9
24457.5
24461.2
24492.3
24536.8
24565
24553.2
24501.8
24437.9
24400.1
24413
24470.4
24537.2
24572.2
24553.7
24492.9
24426.1
24390.8
24403.1
24449.6
24499
24522.3
24509.8
24473.8
24437.7
24420.6
24427.2
24448.5
24469.6
24479.8
24477.3
24467.9
24459.6
24457.4
24461.4
24468.3
24474.5
24478
24479.4
24480.3
24482
24484.6
24487.2
24488.9
24489.4
24489.6
24490.4
24492.4
24494.8
24495.8
24494.2
24490.2
24486
24484.6
24487.3
24492.3
24495.2
24491.3
24480.1
24466.4
24458.7
24463.5
24479.8
24497.5
24502.9
24487.7
24456.4
24425.7
24415.2
24434.2
24473.8
24510.8
24521.5
24497.6
24452.2
24411.9
24399.8
24421.1
24460
24504.2
24519.1
24469.1
24444.4
24451.5
24493
24546.2
24576.6
24560.1
24501
24431.8
24393.8
24410.6
24471.7
24539.3
24571.9
24550.5
24489.6
24426
24394.9
24409
24453.4
24498
24517.4
24504.7
24472.6
24442.1
24429
24436
24454.4
24471.7
24479.6
24477.4
24470.4
24464.9
24464.4
24468.3
24474
24478.6
24481.2
24482.5
24483.9
24486.1
24488.7
24490.8
24491.6
24491.3
24491
24492
24494.4
24496.9
24497.4
24494.5
24489.1
24484.3
24483.6
24488.1
24494.9
24498
24492.2
24477.7
24461.4
24453.8
24462
24483.3
24504.5
24509.7
24490.6
24454.1
24420.5
24411.1
24434
24477.2
24514.6
24522.8
24496.5
24452.1
24417.4
24412.9
24437.6
24480.5
24549.6
24498.6
24455.7
24431.5
24445.4
24495.3
24554.1
24584.6
24563.6
24499.2
24427.9
24391.9
24412
24474.3
24539.4
24567.9
24544.6
24486.2
24428.3
24402.5
24417.6
24458.1
24496.6
24511.7
24499.5
24472.1
24447.7
24438.4
24445.4
24460.8
24474.3
24480.1
24478.3
24473.5
24470.4
24471.1
24474.9
24479.4
24482.8
24484.6
24485.8
24487.5
24490
24492.5
24494
24493.8
24492.8
24492.2
24493.5
24496.4
24499
24498.8
24494.4
24487.6
24482.4
24482.9
24489.6
24498.3
24501.4
24493.2
24475.1
24456.3
24449.4
24461.4
24487.5
24511.6
24516
24493
24452.7
24417.8
24410.4
24436.3
24480.3
24515.4
24520.2
24493.4
24454.1
24428.3
24428.9
24451.8
24555.3
24530.9
24492.4
24447.8
24424.1
24442.2
24497.6
24559.4
24588.6
24563.9
24497.1
24426.8
24394.2
24416.6
24477.3
24537.5
24561.2
24537.3
24483.6
24433.1
24412.7
24427.8
24463.2
24494.9
24506.1
24495
24472.8
24454.2
24448.2
24454.8
24467.1
24477.3
24481.3
24480
24477.1
24475.9
24477.5
24481
24484.4
24486.7
24487.9
24489
24491
24493.6
24495.9
24496.6
24495.6
24493.9
24493.3
24495
24498.5
24501.2
24500
24494
24485.8
24480.5
24482.6
24491.9
24502.5
24505.2
24494.2
24472.5
24451.7
24445.9
24461.8
24492
24518.1
24521.1
24495
24452.5
24418.3
24413.3
24440.7
24483
24513.8
24515.6
24490.5
24457.8
24437.3
24433.5
24530.2
24547.3
24535.2
24494.3
24444.6
24419.7
24440.7
24499.5
24561.9
24588.5
24561.2
24494.8
24428.5
24400.4
24424
24480.7
24534
24552.8
24529.5
24482.1
24439.8
24424.4
24438.7
24468.3
24493.4
24501.3
24491.8
24474.6
24461.2
24457.9
24463.8
24473.2
24480.5
24483.3
24482.6
24481.2
24481.4
24483.5
24486.5
24489
24490.3
24491.1
24492.2
24494.4
24497.1
24499
24498.9
24496.9
24494.6
24494.2
24496.7
24500.9
24503.4
24501.1
24493.2
24483.7
24478.7
24482.9
24495
24507.2
24509.1
24495.2
24470.2
24448.1
24443.9
24463.3
24496.6
24523.2
24524.4
24496.2
24453.8
24422
24419.8
24447.3
24485.8
24511.2
24509.9
24486.3
24457.5
24433.5
24487
24537.7
24559.6
24545
24496.2
24442.2
24418
24441.8
24501.7
24561.8
24584.8
24555.9
24492.7
24432.8
24409.9
24433.4
24484.4
24529.6
24543.5
24521.8
24481.7
24447.8
24436.9
24449.7
24473.5
24492.6
24497.8
24490.1
24477.4
24468.4
24467
24472.1
24479.1
24484.2
24486
24485.8
24485.6
24486.7
24489
24491.5
24493
24493.6
24494
24495.3
24497.7
24500.3
24501.7
24500.7
24497.9
24495.2
24495.2
24498.6
24503.5
24505.7
24501.9
24492.2
24481.6
24477.3
24483.9
24498.7
24512.1
24512.9
24496.2
24468.7
24446.1
24443.9
24466.1
24500.8
24526.5
24525.6
24496.7
24456.5
24428.9
24429.7
24455.8
24488.8
24507.5
24501.9
24479
24449.4
24450.1
24508
24552.4
24571.3
24549.1
24495.7
24441.7
24420.3
24446.1
24504.3
24559.4
24577.7
24548.8
24491.2
24439.4
24422
24444.3
24488
24524.8
24534.2
24515
24482.5
24456.6
24449.5
24460.4
24478.8
24492.6
24495.8
24489.8
24481
24475.4
24475.5
24479.6
24484.7
24488.1
24489.3
24489.5
24490
24491.7
24494
24495.8
24496.6
24496.6
24496.9
24498.3
24500.8
24503.3
24504
24502.1
24498.5
24495.8
24496.4
24500.9
24506.4
24508.1
24502.7
24491.2
24479.9
24476.7
24485.7
24502.8
24516.9
24516.3
24497.3
24468.3
24446.3
24446.2
24470.1
24504.3
24527.7
24524.7
24496.8
24460.8
24438.7
24442
24465.4
24491.1
24501.8
24493.3
24471.8
24441.1
24476.6
24519.9
24560.2
24573.5
24548
24495.1
24444.6
24427.1
24453.3
24506.9
24554.8
24568.3
24540.8
24490.6
24448.1
24435.7
24455.8
24491.7
24520
24525.8
24509.7
24484.5
24465.7
24461.6
24470.5
24484
24493.5
24495.2
24490.9
24485.3
24482.3
24483.1
24486.5
24490
24492.1
24492.9
24493.3
24494.4
24496.3
24498.4
24499.6
24499.8
24499.4
24499.6
24501.1
24503.8
24506
24506
24503.2
24499
24496.4
24498
24503.5
24509.4
24510.4
24503.3
24490.3
24478.8
24477
24488.3
24507
24521
24518.9
24498.3
24469.3
24449.1
24451
24475.2
24507.1
24526.9
24522.2
24496.7
24466.7
24450.4
24455.4
24474.4
24492.1
24497.5
24490.9
24465.1
24462.9
24483.7
24522.3
24559.4
24570.3
24544.8
24495.4
24450.8
24437.4
24462.4
24509.2
24548.6
24557.5
24532.7
24491.2
24458.1
24450.1
24467.3
24495.2
24515.9
24518.9
24506
24487.6
24474.7
24472.7
24479.6
24489.1
24495.3
24496.1
24493.2
24489.9
24488.7
24490
24492.6
24494.9
24496.1
24496.7
24497.3
24498.7
24500.6
24502.3
24503
24502.6
24501.9
24502.1
24503.9
24506.6
24508.5
24507.7
24504
24499.5
24497.3
24499.9
24506.4
24512.4
24512.4
24503.9
24490
24478.9
24478.7
24491.6
24510.9
24523.9
24520.3
24499.3
24472
24454.6
24458.3
24481.2
24509
24524.5
24518.8
24496.9
24473.6
24462.8
24468.3
24482.8
24495.2
24501.4
24507.6
24474.3
24466
24483.9
24521.5
24555.8
24564.3
24540.1
24496.5
24459.4
24450.2
24472.6
24511
24541.3
24546.3
24525.3
24493.1
24468.9
24464.5
24478.2
24498.6
24512.7
24513.8
24504.1
24491.5
24483.4
24482.8
24487.9
24494.1
24497.8
24498.1
24496.4
24494.8
24494.7
24496.1
24498
24499.4
24500.1
24500.4
24501.2
24502.7
24504.5
24505.7
24505.9
24505
24504.2
24504.6
24506.6
24509.2
24510.6
24509.1
24504.8
24500.2
24498.7
24502.2
24509.3
24515.1
24514.2
24504.7
24490.7
24480.5
24481.8
24495.4
24514
24525.3
24520.7
24500.8
24476.7
24462.8
24467.6
24487.8
24510.3
24521.3
24515.2
24497.7
24481.1
24474.9
24480.8
24492.4
24504.3
24544.1
24501.7
24474.8
24468.1
24487.6
24522
24550.6
24555.8
24534
24498.2
24469.7
24464.3
24482.9
24512.3
24533.9
24536
24519.5
24496.3
24480
24478
24488.1
24502
24510.8
24510.8
24504.1
24496.1
24491.5
24491.7
24495.1
24498.9
24501
24501.1
24500.2
24499.7
24500.2
24501.5
24502.8
24503.5
24503.8
24504.1
24505
24506.4
24507.9
24508.6
24508.3
24507.2
24506.4
24507
24509.2
24511.6
24512.4
24510.2
24505.5
24501.2
24500.5
24504.9
24512.2
24517.4
24515.6
24505.7
24492.5
24483.9
24486.3
24499.7
24516.2
24525.4
24520.2
24502.7
24483.1
24473
24478.2
24494.6
24511.2
24518
24512.2
24499.5
24489
24487.1
24493.4
24504.1
24555.3
24526.1
24499.5
24479.8
24478.2
24495.9
24522.8
24543.1
24544.7
24526.8
24500.4
24481
24478.9
24493.2
24513.5
24527.2
24527.3
24515.5
24500.4
24490.6
24490.2
24497
24505.4
24510.3
24509.8
24505.6
24501.2
24498.9
24499.5
24501.6
24503.7
24504.7
24504.8
24504.5
24504.6
24505.3
24506.3
24507
24507.4
24507.4
24507.7
24508.5
24509.7
24510.8
24511.1
24510.4
24509.3
24508.7
24509.6
24511.7
24513.7
24513.8
24511.1
24506.6
24503.1
24503.4
24508.2
24514.9
24518.9
24516.2
24506.9
24495.7
24489.5
24492.8
24504.6
24517.9
24524.1
24518.9
24504.9
24490.7
24484.6
24489.5
24501.5
24512.3
24515.6
24510.8
24502.9
24497.9
24498.9
24504.8
24538.5
24532.3
24520.2
24504.7
24494
24494.3
24505.7
24521.6
24532.3
24531.4
24519.7
24504.4
24494.4
24494.6
24503.5
24514.7
24521.4
24520.5
24513.7
24505.9
24501.3
24501.6
24505.3
24509.3
24511.4
24510.9
24508.8
24506.9
24506.1
24506.6
24507.7
24508.6
24509
24509.1
24509.1
24509.5
24510
24510.6
24511
24511
24511.1
24511.3
24511.9
24512.8
24513.3
24513.2
24512.5
24511.7
24511.5
24512.4
24513.9
24515.1
24514.6
24512.2
24509
24507
24507.9
24511.9
24516.5
24518.6
24515.9
24509
24501.8
24498.6
24501.8
24510
24518.1
24521
24516.8
24508.1
24500.1
24497.6
24501.3
24508.3
24513.8
24515
24512.3
24508.7
24507.1
24507.5
24512.7
24518.3
24519.1
24516.5
24512.6
24509.8
24509.8
24512.5
24515.9
24517.8
24516.9
24513.8
24510.5
24508.9
24509.7
24512
24514.4
24515.5
24514.9
24513.2
24511.7
24511.2
24511.6
24512.5
24513.2
24513.5
24513.2
24512.9
24512.6
24512.6
24512.8
24513.1
24513.2
24513.3
24513.3
24513.4
24513.5
24513.7
24513.9
24513.9
24513.9
24513.9
24514
24514.2
24514.3
24514.4
24514.3
24514
24513.8
24513.8
24514.1
24514.6
24514.9
24514.7
24514
24513.1
24512.7
24513.2
24514.4
24515.7
24516
24515
24513.1
24511.3
24510.8
24511.9
24514
24515.8
24516
24514.6
24512.4
24510.8
24510.8
24512.2
24514
24515.1
24515.2
24514.6
24513.5
24511.5
0.395449
0.802429
0.71418
0.605167
0.546306
0.484412
0.423044
0.378642
0.347006
0.320816
0.300628
0.282221
0.267861
0.259766
0.258024
0.265744
0.27858
0.290898
0.312154
0.356429
0.40504
0.450786
0.500131
0.553973
0.605509
0.654116
0.705169
0.751432
0.796373
0.853988
0.924395
0.983344
1.03677
1.08836
1.12628
1.14587
1.1513
1.14971
1.13384
1.10274
1.05639
1.00681
0.95572
0.956698
0.947828
0.9307
0.907917
0.882781
0.85559
0.826487
0.796167
0.764752
0.731241
0.697053
0.666267
0.641517
0.623675
0.616235
0.65369
0.722865
0.794072
0.858292
0.917992
0.979542
1.0364
1.08713
1.12488
1.15626
1.18037
1.18988
1.19381
1.18911
1.16157
1.1329
1.102
1.06149
1.04073
1.02278
1.09588
1.01998
5.74518e-05
5.57131e-05
8.0995e-05
9.51531e-05
8.66803e-05
6.45722e-05
5.54166e-05
6.84987e-05
8.57316e-05
8.93681e-05
8.16174e-05
7.55044e-05
7.45468e-05
7.55758e-05
7.68734e-05
7.92544e-05
8.20899e-05
8.46262e-05
8.59909e-05
8.5053e-05
8.37572e-05
8.49298e-05
8.74426e-05
8.95427e-05
9.14388e-05
9.31524e-05
9.41375e-05
9.46866e-05
9.55509e-05
9.66694e-05
9.77116e-05
9.87813e-05
9.98648e-05
0.000100733
0.00010151
0.00010235
0.000103074
0.000103685
0.000104346
0.000104734
0.000104695
0.000104824
0.000105131
0.000104815
0.000104315
0.000105104
0.000105835
0.000103972
0.000101455
0.000101749
0.000103089
0.000102428
0.000101562
0.000101611
0.000100019
9.69972e-05
9.60103e-05
9.69644e-05
9.69281e-05
9.60145e-05
9.64793e-05
9.74911e-05
9.47166e-05
8.80737e-05
8.50472e-05
8.86814e-05
9.35311e-05
9.35634e-05
9.01474e-05
8.7514e-05
8.72058e-05
8.76362e-05
8.60443e-05
8.42837e-05
8.38155e-05
8.58804e-05
8.83646e-05
8.86074e-05
8.65733e-05
8.33271e-05
7.64381e-05
6.53696e-05
7.71306e-05
9.17958e-05
8.99621e-05
7.69355e-05
6.68239e-05
7.05049e-05
8.2251e-05
8.67899e-05
8.21311e-05
7.81316e-05
7.87867e-05
8.06138e-05
8.16049e-05
8.24842e-05
8.33913e-05
8.48223e-05
8.67212e-05
8.72419e-05
8.68582e-05
8.78294e-05
8.97032e-05
9.10773e-05
9.22913e-05
9.37411e-05
9.49346e-05
9.57747e-05
9.67446e-05
9.78504e-05
9.87827e-05
9.96875e-05
0.000100682
0.000101566
0.000102353
0.000103176
0.000103874
0.000104392
0.000104962
0.000105427
0.000105522
0.00010565
0.000106005
0.000105834
0.000105122
0.00010533
0.000106178
0.000105244
0.000103068
0.000102803
0.000103764
0.000103062
0.000101804
0.000101765
0.000101067
9.89314e-05
9.79077e-05
9.84473e-05
9.79163e-05
9.59907e-05
9.53565e-05
9.63825e-05
9.57086e-05
9.19814e-05
8.88306e-05
8.99073e-05
9.27515e-05
9.24618e-05
8.9461e-05
8.74253e-05
8.77688e-05
8.86669e-05
8.81877e-05
8.63504e-05
8.46559e-05
8.50554e-05
8.70176e-05
8.79672e-05
8.69267e-05
8.58366e-05
8.72835e-05
6.44377e-05
5.99321e-05
6.7706e-05
8.36514e-05
8.75421e-05
7.90734e-05
7.08965e-05
7.31192e-05
8.2108e-05
8.466e-05
8.2057e-05
8.15327e-05
8.29671e-05
8.41138e-05
8.49545e-05
8.49683e-05
8.5003e-05
8.67061e-05
8.87534e-05
8.91103e-05
8.9225e-05
9.0356e-05
9.14909e-05
9.22514e-05
9.33977e-05
9.48144e-05
9.59367e-05
9.69809e-05
9.8236e-05
9.93747e-05
0.000100302
0.000101277
0.000102199
0.000102935
0.000103702
0.00010446
0.000104923
0.000105351
0.000105944
0.000106163
0.000106035
0.000106427
0.000106913
0.000105979
0.000104728
0.000105587
0.000106744
0.000105144
0.000103065
0.000103266
0.000103282
0.000101723
0.000101247
0.000101694
0.000100324
9.81432e-05
9.8042e-05
9.86079e-05
9.67734e-05
9.39745e-05
9.39579e-05
9.63782e-05
9.62457e-05
9.20352e-05
8.86954e-05
8.97111e-05
9.18578e-05
9.11576e-05
8.831e-05
8.65187e-05
8.70176e-05
8.85219e-05
8.89879e-05
8.7058e-05
8.43768e-05
8.41241e-05
8.58525e-05
8.69066e-05
8.64559e-05
9.24803e-05
8.74263e-05
7.29579e-05
6.68294e-05
7.41703e-05
8.53979e-05
8.6945e-05
7.87615e-05
7.27919e-05
7.677e-05
8.24669e-05
8.28924e-05
8.1583e-05
8.18149e-05
8.30128e-05
8.48703e-05
8.59221e-05
8.54436e-05
8.58878e-05
8.80864e-05
8.94969e-05
8.98698e-05
9.08715e-05
9.231e-05
9.32779e-05
9.41957e-05
9.54771e-05
9.66581e-05
9.75706e-05
9.86368e-05
9.98016e-05
0.000100784
0.000101737
0.00010271
0.000103472
0.000104151
0.00010494
0.000105506
0.000105801
0.000106307
0.000106733
0.00010648
0.000106317
0.000107152
0.000107369
0.000105687
0.000104691
0.000105884
0.000106129
0.00010434
0.000103495
0.000103586
0.000102394
0.000101307
0.000101715
0.000101231
9.88251e-05
9.75839e-05
9.87024e-05
9.86773e-05
9.57477e-05
9.28854e-05
9.3657e-05
9.6107e-05
9.5072e-05
9.0947e-05
8.88906e-05
9.03433e-05
9.18629e-05
9.07865e-05
8.81404e-05
8.63715e-05
8.65729e-05
8.83882e-05
8.93969e-05
8.77364e-05
8.53952e-05
8.49864e-05
8.60378e-05
8.69252e-05
7.39977e-05
8.47267e-05
8.33907e-05
7.08966e-05
6.75279e-05
7.39402e-05
8.35639e-05
8.49584e-05
7.85056e-05
7.58401e-05
7.99065e-05
8.30659e-05
8.32575e-05
8.28127e-05
8.26776e-05
8.4092e-05
8.64492e-05
8.70324e-05
8.65884e-05
8.78309e-05
8.97077e-05
9.05258e-05
9.12595e-05
9.27e-05
9.39539e-05
9.48825e-05
9.60447e-05
9.73791e-05
9.84374e-05
9.94189e-05
0.000100533
0.000101544
0.000102453
0.000103435
0.000104284
0.000104901
0.000105609
0.000106298
0.000106596
0.000106918
0.000107521
0.000107587
0.00010689
0.000107007
0.000108048
0.00010761
0.000105793
0.000105442
0.000106046
0.000105313
0.000104335
0.000104067
0.000102839
0.000101288
0.000101597
0.000102145
0.000100147
9.73957e-05
9.75122e-05
9.91665e-05
9.83063e-05
9.44961e-05
9.21471e-05
9.40471e-05
9.59883e-05
9.38005e-05
8.98906e-05
8.87164e-05
9.03166e-05
9.15432e-05
9.05945e-05
8.82673e-05
8.60953e-05
8.59692e-05
8.79126e-05
8.90353e-05
8.77629e-05
8.59223e-05
8.54656e-05
8.63728e-05
6.76254e-05
7.97569e-05
8.7925e-05
8.39715e-05
7.388e-05
6.92609e-05
7.54098e-05
8.36176e-05
8.31701e-05
7.85607e-05
7.83618e-05
8.12818e-05
8.34612e-05
8.4434e-05
8.39633e-05
8.37617e-05
8.58188e-05
8.78756e-05
8.79602e-05
8.83141e-05
8.99648e-05
9.12858e-05
9.20797e-05
9.32628e-05
9.47113e-05
9.57854e-05
9.67814e-05
9.80585e-05
9.9269e-05
0.000100292
0.000101378
0.000102433
0.000103317
0.000104236
0.000105169
0.000105831
0.000106416
0.000107135
0.000107555
0.000107668
0.000108144
0.000108695
0.000108225
0.000107401
0.000107834
0.000108468
0.000107552
0.000106407
0.000106069
0.000105433
0.000104923
0.000105182
0.0001041
0.000101511
0.000100911
0.000102532
0.000102175
9.87088e-05
9.6398e-05
9.78036e-05
9.9579e-05
9.75315e-05
9.29638e-05
9.17526e-05
9.45488e-05
9.5816e-05
9.29562e-05
8.93345e-05
8.85069e-05
8.9896e-05
9.10803e-05
9.07744e-05
8.86713e-05
8.61915e-05
8.5904e-05
8.76855e-05
8.87926e-05
8.79574e-05
8.65024e-05
8.6146e-05
6.80846e-05
6.78972e-05
7.7822e-05
8.58302e-05
8.37763e-05
7.553e-05
7.21963e-05
7.84708e-05
8.38111e-05
8.25543e-05
8.02873e-05
8.06123e-05
8.23195e-05
8.46517e-05
8.56652e-05
8.48959e-05
8.54331e-05
8.77793e-05
8.90549e-05
8.93457e-05
9.05152e-05
9.207e-05
9.29958e-05
9.39555e-05
9.53807e-05
9.67131e-05
9.77481e-05
9.89091e-05
0.000100167
0.000101258
0.000102324
0.000103432
0.00010437
0.000105215
0.00010615
0.000106928
0.000107458
0.000108096
0.000108681
0.000108793
0.000108913
0.000109517
0.000109757
0.000108983
0.000108381
0.000108582
0.000108457
0.000108038
0.000107511
0.000105943
0.000104618
0.000105543
0.000106006
0.000103015
0.000100192
0.000101378
0.000103279
0.000101337
9.70365e-05
9.56708e-05
9.83413e-05
9.99681e-05
9.63779e-05
9.16139e-05
9.15164e-05
9.46877e-05
9.54408e-05
9.24631e-05
8.92321e-05
8.83014e-05
8.91688e-05
9.05811e-05
9.09204e-05
8.90107e-05
8.64994e-05
8.60181e-05
8.74386e-05
8.8533e-05
8.80835e-05
8.70715e-05
8.03536e-05
6.96149e-05
6.85896e-05
7.71332e-05
8.48148e-05
8.2753e-05
7.56954e-05
7.50832e-05
8.02672e-05
8.31864e-05
8.27507e-05
8.20501e-05
8.20007e-05
8.37369e-05
8.62378e-05
8.66577e-05
8.62242e-05
8.76161e-05
8.94865e-05
9.02718e-05
9.11469e-05
9.27475e-05
9.40869e-05
9.50037e-05
9.61958e-05
9.76127e-05
9.8804e-05
9.9923e-05
0.000101169
0.000102327
0.000103373
0.000104477
0.000105506
0.000106348
0.000107218
0.000108087
0.000108687
0.00010921
0.000109824
0.000110123
0.00011008
0.000110253
0.000110659
0.000110607
0.000110102
0.000109512
0.000108619
0.00010847
0.000109242
0.000108054
0.000104932
0.000104666
0.000107094
0.000105977
0.000101167
9.94316e-05
0.000102282
0.000103754
0.000100282
9.53791e-05
9.51546e-05
9.90456e-05
9.99367e-05
9.5198e-05
9.06797e-05
9.13106e-05
9.43639e-05
9.4841e-05
9.22996e-05
8.95251e-05
8.81133e-05
8.84137e-05
9.00525e-05
9.08521e-05
8.93546e-05
8.70683e-05
8.63704e-05
8.73738e-05
8.8271e-05
8.81075e-05
8.64414e-05
8.0784e-05
7.22069e-05
7.1171e-05
7.84546e-05
8.45027e-05
8.1768e-05
7.732e-05
7.81517e-05
8.1402e-05
8.3269e-05
8.3883e-05
8.3282e-05
8.32784e-05
8.55533e-05
8.75658e-05
8.76934e-05
8.82406e-05
8.99466e-05
9.11946e-05
9.19481e-05
9.32769e-05
9.48938e-05
9.60938e-05
9.7199e-05
9.85574e-05
9.98756e-05
0.000101028
0.000102247
0.000103477
0.000104563
0.000105631
0.000106713
0.000107626
0.000108432
0.000109284
0.000110009
0.000110558
0.000111101
0.000111498
0.00011164
0.000111628
0.000111516
0.000111398
0.000111609
0.000111728
0.000110103
0.000108305
0.000109458
0.000110496
0.000107057
0.00010373
0.00010606
0.000108714
0.000104987
9.93594e-05
9.93195e-05
0.000103224
0.000104032
9.89515e-05
9.3829e-05
9.50353e-05
9.95222e-05
9.95115e-05
9.42829e-05
9.02303e-05
9.10745e-05
9.36019e-05
9.4074e-05
9.23685e-05
8.99918e-05
8.8031e-05
8.78618e-05
8.94243e-05
9.05073e-05
8.95216e-05
8.76854e-05
8.69741e-05
8.74912e-05
8.81775e-05
7.99088e-05
8.50632e-05
8.07591e-05
7.35719e-05
7.3314e-05
7.99774e-05
8.34976e-05
8.13016e-05
7.93992e-05
8.0297e-05
8.2188e-05
8.43299e-05
8.50905e-05
8.43554e-05
8.50881e-05
8.73691e-05
8.85904e-05
8.91053e-05
9.05102e-05
9.21527e-05
9.31372e-05
9.41432e-05
9.56441e-05
9.71002e-05
9.82876e-05
9.95793e-05
0.000100963
0.000102197
0.000103385
0.000104633
0.000105804
0.00010688
0.000107973
0.000108999
0.00010985
0.000110613
0.000111315
0.000111966
0.000112566
0.00011286
0.000113068
0.000113457
0.000113363
0.000112365
0.000111896
0.000113178
0.000112945
0.00010967
0.000108834
0.000111714
0.000110672
0.000104674
0.00010322
0.000108205
0.000109496
0.000103343
9.8045e-05
9.94495e-05
0.000104201
0.000103909
9.72899e-05
9.26068e-05
9.50024e-05
9.94374e-05
9.87618e-05
9.36853e-05
9.02495e-05
9.07188e-05
9.24926e-05
9.31051e-05
9.2381e-05
9.04293e-05
8.82204e-05
8.76367e-05
8.89096e-05
8.99593e-05
8.94517e-05
8.82189e-05
8.75222e-05
8.77929e-05
7.26825e-05
8.02715e-05
8.45251e-05
8.06614e-05
7.50308e-05
7.61795e-05
8.09396e-05
8.26656e-05
8.17874e-05
8.12638e-05
8.15537e-05
8.34062e-05
8.57146e-05
8.60994e-05
8.59658e-05
8.74316e-05
8.91184e-05
8.99038e-05
9.09536e-05
9.26952e-05
9.41748e-05
9.52545e-05
9.65638e-05
9.80683e-05
9.93904e-05
0.000100657
0.00010205
0.000103401
0.000104628
0.000105856
0.000107077
0.000108201
0.000109273
0.000110355
0.000111387
0.00011224
0.000112814
0.000113372
0.000114188
0.000114523
0.000114276
0.000114697
0.000115599
0.000114905
0.00011275
0.000113116
0.000114926
0.000112415
0.000108706
0.000111125
0.000114332
0.000109242
0.000101982
0.000103814
0.000110101
0.00010916
0.000101689
9.6653e-05
9.97932e-05
0.000105062
0.000103185
9.57843e-05
9.19241e-05
9.48479e-05
9.87244e-05
9.77526e-05
9.3426e-05
9.05812e-05
9.05032e-05
9.1367e-05
9.21239e-05
9.21476e-05
9.06256e-05
8.84857e-05
8.77328e-05
8.85329e-05
8.93863e-05
8.92748e-05
8.85018e-05
8.79576e-05
7.33626e-05
7.39713e-05
8.05436e-05
8.3688e-05
8.00746e-05
7.69776e-05
7.8623e-05
8.14314e-05
8.26771e-05
8.29989e-05
8.25255e-05
8.27943e-05
8.49616e-05
8.67276e-05
8.70797e-05
8.79883e-05
8.97445e-05
9.09691e-05
9.18071e-05
9.32066e-05
9.48849e-05
9.62452e-05
9.75357e-05
9.90298e-05
0.000100479
0.000101771
0.000103119
0.000104536
0.000105879
0.000107147
0.000108408
0.000109624
0.000110707
0.000111695
0.000112791
0.000113966
0.000114674
0.000114909
0.000115757
0.00011671
0.000116184
0.000115482
0.000116511
0.00011761
0.000115482
0.000113624
0.000115815
0.000115588
0.00010975
0.000108424
0.000114817
0.000115984
0.000106523
0.000100156
0.000105195
0.000111121
0.000108371
9.94783e-05
9.54442e-05
0.000100432
0.000105243
0.00010197
9.47122e-05
9.17138e-05
9.45136e-05
9.75237e-05
9.64617e-05
9.3109e-05
9.09234e-05
9.02613e-05
9.04038e-05
9.12477e-05
9.16635e-05
9.05306e-05
8.8769e-05
8.7939e-05
8.8284e-05
8.89286e-05
8.90447e-05
8.85586e-05
7.92164e-05
7.42017e-05
7.5613e-05
8.10423e-05
8.24323e-05
7.99961e-05
7.89592e-05
8.01862e-05
8.18682e-05
8.3602e-05
8.4195e-05
8.37785e-05
8.46978e-05
8.66517e-05
8.76956e-05
8.8429e-05
9.00154e-05
9.17437e-05
9.2891e-05
9.40563e-05
9.56176e-05
9.71405e-05
9.84869e-05
9.99419e-05
0.000101495
0.000102923
0.000104263
0.000105653
0.00010707
0.000108425
0.000109731
0.000111081
0.000112366
0.00011332
0.000114163
0.000115483
0.000116741
0.000116821
0.000117031
0.000118643
0.000119085
0.000117673
0.000116956
0.00011862
0.000118154
0.000115077
0.000116397
0.000119422
0.000114035
0.000106163
0.000109701
0.00011874
0.000115754
0.000103387
9.96155e-05
0.000106225
0.000112054
0.000107208
9.70626e-05
9.48453e-05
0.00010091
0.000104494
0.000100477
9.39652e-05
9.17169e-05
9.41263e-05
9.62541e-05
9.51578e-05
9.28018e-05
9.10805e-05
8.98899e-05
8.9638e-05
9.04466e-05
9.0939e-05
9.02308e-05
8.89372e-05
8.80951e-05
8.81132e-05
8.85902e-05
8.87609e-05
8.29416e-05
7.90104e-05
7.53156e-05
7.75998e-05
8.11496e-05
8.15921e-05
8.06784e-05
8.05037e-05
8.09965e-05
8.26529e-05
8.45254e-05
8.49579e-05
8.52974e-05
8.68561e-05
8.83491e-05
8.91472e-05
9.0287e-05
9.20402e-05
9.3612e-05
9.48981e-05
9.63735e-05
9.79781e-05
9.94268e-05
0.000100823
0.000102364
0.000103943
0.000105411
0.000106817
0.000108264
0.000109708
0.000111032
0.000112397
0.00011399
0.000115322
0.000115957
0.000116892
0.000118741
0.000119462
0.000118691
0.000119646
0.000121203
0.000121133
0.000119291
0.000119698
0.000120106
0.000116114
0.000114954
0.000121402
0.000122096
0.000110343
0.000103201
0.000112678
0.000121822
0.00011392
0.000100908
9.86102e-05
0.000107502
0.000112798
0.000105057
9.50282e-05
9.4848e-05
0.000100897
0.000103152
9.88809e-05
9.31676e-05
9.14994e-05
9.35126e-05
9.48012e-05
9.39523e-05
9.25394e-05
9.09865e-05
8.9503e-05
8.90636e-05
8.95933e-05
9.00671e-05
8.97783e-05
8.89065e-05
8.81287e-05
8.79882e-05
8.83167e-05
8.07755e-05
8.23109e-05
7.84471e-05
7.69713e-05
7.90627e-05
8.09784e-05
8.1622e-05
8.18414e-05
8.16299e-05
8.21034e-05
8.39009e-05
8.52252e-05
8.5727e-05
8.69168e-05
8.86972e-05
8.9987e-05
9.0986e-05
9.24337e-05
9.41052e-05
9.55652e-05
9.70185e-05
9.86546e-05
0.000100273
0.000101738
0.000103216
0.000104806
0.000106421
0.000107948
0.000109468
0.000111071
0.000112514
0.000113727
0.00011531
0.000117266
0.000118295
0.000118546
0.000120253
0.000122422
0.000121905
0.000121069
0.000122011
0.000123226
0.000122252
0.000122331
0.000123924
0.00011938
0.000112198
0.000116837
0.000127374
0.000122395
0.000104843
0.000101672
0.000116391
0.000123245
0.000112606
9.87815e-05
9.82109e-05
0.000109251
0.000112308
0.000102323
9.35726e-05
9.48521e-05
0.000100368
0.000101775
9.75302e-05
9.24497e-05
9.11779e-05
9.2487e-05
9.30993e-05
9.28032e-05
9.20641e-05
9.06689e-05
8.92371e-05
8.85852e-05
8.87617e-05
8.91696e-05
8.91744e-05
8.86211e-05
8.79955e-05
8.78169e-05
7.69266e-05
8.13202e-05
8.07486e-05
7.84951e-05
7.8374e-05
7.95546e-05
8.07746e-05
8.20518e-05
8.25654e-05
8.25714e-05
8.36728e-05
8.52776e-05
8.61308e-05
8.69627e-05
8.8549e-05
9.02667e-05
9.15793e-05
9.29248e-05
9.45557e-05
9.61433e-05
9.76043e-05
9.91674e-05
0.000100874
0.000102524
0.000104056
0.000105614
0.000107292
0.000108957
0.000110554
0.000112346
0.000114199
0.000115498
0.000116672
0.000118856
0.000120946
0.000121042
0.000121401
0.000124219
0.000125786
0.00012483
0.000124258
0.000124397
0.000123145
0.000122994
0.000127871
0.000127911
0.000115478
0.000108522
0.000121593
0.000133529
0.000119861
9.87185e-05
0.000101083
0.000117981
0.000122884
0.000109876
9.50364e-05
9.84251e-05
0.000110517
0.000110688
9.96818e-05
9.24087e-05
9.41742e-05
9.91271e-05
0.000100252
9.63053e-05
9.20797e-05
9.08957e-05
9.11518e-05
9.13635e-05
9.14937e-05
9.11495e-05
9.01451e-05
8.89275e-05
8.81136e-05
8.7989e-05
8.82981e-05
8.84589e-05
8.81378e-05
8.7634e-05
7.54374e-05
7.83597e-05
8.04898e-05
7.99007e-05
7.92865e-05
7.93923e-05
7.98559e-05
8.1122e-05
8.24472e-05
8.28573e-05
8.35426e-05
8.51283e-05
8.6505e-05
8.73852e-05
8.85727e-05
9.02367e-05
9.18089e-05
9.32264e-05
9.48211e-05
9.65272e-05
9.8116e-05
9.96308e-05
0.000101274
0.000103044
0.000104764
0.000106393
0.000108123
0.000109938
0.000111584
0.000113347
0.000115641
0.000117617
0.000118565
0.000120194
0.000123345
0.000124803
0.000123906
0.000125028
0.0001277
0.000128628
0.000129027
0.000128785
0.000125462
0.000120753
0.000125437
0.000135595
0.000129042
0.000108186
0.000106
0.00012915
0.000138902
0.000116372
9.47049e-05
0.000100734
0.000118843
0.000122549
0.000105351
9.19088e-05
9.9142e-05
0.000110699
0.00010856
9.79282e-05
9.14352e-05
9.28252e-05
9.72316e-05