/*--------------------------------*- C++ -*----------------------------------*\
| =========                 |                                                 |
| \\      /  F ield         | OpenFOAM: The Open Source CFD Toolbox           |
|  \\    /   O peration     | Version:  2412                                  |
|   \\  /    A nd           | Website:  www.openfoam.com                      |
|    \\/     M anipulation  |                                                 |
\*---------------------------------------------------------------------------*/
FoamFile
{
    version     2.0;
    format      ascii;
    arch        "LSB;label=32;scalar=64";
    class       surfaceScalarField;
    location    "4.78";
    object      alphaPhi0.water;
}
// * * * * * * * * * * * * * * * * * * * * * * * * * * * * * * * * * * * * * //

dimensions      [0 3 -1 0 0 0 0];

oriented        oriented;

internalField   nonuniform List<scalar> 
158920
(
-5.97719e-06
5.97684e-06
-1.16714e-05
5.64029e-06
-1.7217e-05
5.499e-06
-2.27752e-05
5.52288e-06
-2.83443e-05
5.54336e-06
-3.39139e-05
5.55124e-06
-3.94847e-05
5.55787e-06
-4.50615e-05
5.56777e-06
-5.06499e-05
5.58203e-06
-5.62542e-05
5.59981e-06
-6.18797e-05
5.62231e-06
-6.7527e-05
5.64503e-06
-7.3197e-05
5.66828e-06
-7.88918e-05
5.69351e-06
-8.46131e-05
5.72023e-06
-9.03605e-05
5.74655e-06
-9.61341e-05
5.77277e-06
-0.000101934
5.79895e-06
-0.00010776
5.82617e-06
-0.000113613
5.85153e-06
-0.000119492
5.87867e-06
-0.000125398
5.90609e-06
-0.000131333
5.93383e-06
-0.000137296
5.96268e-06
-0.000143288
5.99215e-06
-0.000149311
6.02204e-06
-0.000155365
6.05365e-06
-0.000161452
6.08671e-06
-0.000167572
6.11956e-06
-0.000173727
6.15428e-06
-0.000179918
6.19036e-06
-0.000186146
6.22766e-06
-0.000192412
6.26624e-06
-0.000198719
6.30613e-06
-0.000205067
6.34733e-06
-0.000211457
6.38983e-06
-0.000217891
6.43364e-06
-0.00022437
6.47875e-06
-0.000230895
6.52518e-06
-0.000237469
6.57291e-06
-0.000244091
6.62195e-06
-0.000250764
6.67225e-06
-0.000257488
6.72383e-06
-0.000264265
6.77667e-06
-0.000271096
6.83078e-06
-0.000277983
6.88616e-06
-0.000284926
6.94279e-06
-0.000291927
7.00068e-06
-0.000298987
7.05982e-06
-0.000306108
7.12021e-06
-0.00031329
7.18186e-06
-0.000320535
7.24478e-06
-0.000327845
7.30898e-06
-0.000335219
7.37446e-06
-0.000342661
7.44125e-06
-0.000350171
7.50932e-06
-0.00035775
7.5787e-06
-0.0003654
7.64939e-06
-0.000373121
7.72139e-06
-0.000380917
7.79472e-06
-0.000388786
7.86938e-06
-0.000396732
7.94538e-06
-0.000404755
8.02273e-06
-0.000412857
8.10142e-06
-0.000421039
8.18145e-06
-0.000429302
8.26283e-06
-0.000437648
8.34556e-06
-0.000446078
8.42964e-06
-0.000454594
8.51508e-06
-0.000463196
8.60188e-06
-0.000471886
8.69005e-06
-0.000480667
8.77959e-06
-0.000489537
8.8705e-06
-0.000498501
8.96278e-06
-0.000507558
9.05642e-06
-0.000516709
9.15144e-06
-0.000525958
9.24783e-06
-0.000535304
9.34559e-06
-0.000544749
9.44473e-06
-0.000554295
9.54525e-06
-0.000563942
9.64715e-06
-0.000573693
9.75041e-06
-0.000583549
9.85505e-06
-0.00059351
9.96105e-06
-0.000603579
1.00684e-05
-0.000613757
1.01771e-05
-0.000624044
1.02872e-05
-0.000634443
1.03986e-05
-0.000644955
1.05114e-05
-0.000655581
1.06255e-05
-0.000666323
1.07409e-05
-0.000677181
1.08577e-05
-0.000688157
1.09758e-05
-0.000699253
1.10952e-05
-0.000710469
1.12159e-05
-0.000721808
1.1338e-05
-0.00073327
1.14613e-05
-0.000744856
1.15858e-05
-0.000756568
1.17117e-05
-0.000768407
1.18388e-05
-0.000780375
1.19672e-05
-0.000792472
1.20967e-05
-0.0008047
1.22275e-05
-0.000817061
1.23595e-05
-0.000829554
1.24927e-05
-0.000842181
1.26271e-05
-0.000854945
1.27626e-05
-0.000867844
1.28992e-05
-0.000880882
1.30369e-05
-0.000894058
1.31758e-05
-0.000907374
1.33157e-05
-0.000920832
1.34566e-05
-0.000934431
1.35986e-05
-0.000948173
1.37416e-05
-0.000962059
1.38856e-05
-0.00097609
1.40305e-05
-0.000990267
1.41763e-05
-0.00100459
1.4323e-05
-0.00101906
1.44706e-05
-0.00103368
1.4619e-05
-0.00104845
1.47682e-05
-0.00106337
1.49182e-05
-0.00107844
1.50689e-05
-0.00109366
1.52203e-05
-0.00110903
1.53723e-05
-0.00112456
1.5525e-05
-0.00114024
1.56782e-05
-0.00115607
1.5832e-05
-0.00117206
1.59863e-05
-0.0011882
1.6141e-05
-0.0012045
1.62961e-05
-0.00122095
1.64516e-05
-0.00123756
1.66073e-05
-0.00125432
1.67633e-05
-0.00127124
1.69195e-05
-0.00128832
1.70759e-05
-0.00130555
1.72323e-05
-0.00132294
1.73887e-05
-0.00134048
1.75452e-05
-0.00135819
1.77015e-05
-0.00137605
1.78577e-05
-0.00139406
1.80136e-05
-0.00141223
1.81693e-05
-0.00143055
1.83246e-05
-0.00144904
1.84795e-05
-0.00146767
1.86339e-05
-0.00148646
1.87877e-05
-0.0015054
1.89408e-05
-0.00152449
1.90932e-05
-0.00154374
1.92448e-05
-0.00156314
1.93955e-05
-0.00158268
1.95452e-05
-0.00160238
1.96938e-05
-0.00162222
1.98412e-05
-0.00164221
1.99874e-05
-0.00166234
2.01323e-05
-0.00168262
2.02757e-05
-0.00170303
2.04175e-05
-0.00172359
2.05577e-05
-0.00174429
2.06961e-05
-0.00176512
2.08327e-05
-0.00178609
2.09673e-05
-0.00180719
2.10998e-05
-0.00182842
2.12301e-05
-0.00184978
2.13581e-05
-0.00187127
2.14837e-05
-0.00189287
2.16067e-05
-0.0019146
2.1727e-05
-0.00193645
2.18445e-05
-0.00195841
2.19591e-05
-0.00198048
2.20706e-05
-0.00200266
2.21789e-05
-0.00202494
2.22839e-05
-0.00204733
2.23854e-05
-0.00206981
2.24834e-05
-0.00209239
2.25775e-05
-0.00211506
2.26678e-05
-0.00213781
2.2754e-05
-0.00216065
2.2836e-05
-0.00218357
2.29136e-05
-0.00220655
2.29868e-05
-0.00222961
2.30553e-05
-0.00225273
2.3119e-05
-0.00227591
2.31777e-05
-0.00229914
2.32313e-05
-0.00232242
2.32796e-05
-0.00234574
2.33225e-05
-0.0023691
2.33597e-05
-0.0023925
2.33911e-05
-0.00241591
2.34165e-05
-0.00243935
2.34358e-05
-0.0024628
2.34487e-05
-0.00248625
2.34551e-05
-0.00250971
2.34549e-05
-0.00253316
2.34478e-05
-0.00255659
2.34336e-05
-0.00258001
2.34122e-05
-0.00260339
2.33833e-05
-0.00262674
2.33468e-05
-0.00265004
2.33025e-05
-0.00267329
2.32503e-05
-0.00269648
2.31898e-05
-0.0027196
2.3121e-05
-0.00274265
2.30436e-05
-0.00276561
2.29574e-05
-0.00278847
2.28623e-05
-0.00281123
2.2758e-05
-0.00283388
2.26443e-05
-0.0028564
2.25211e-05
-0.00287879
2.23882e-05
-0.00290103
2.22452e-05
-0.00292313
2.20921e-05
-0.00294505
2.19287e-05
-0.00296681
2.17547e-05
-0.00298838
2.15699e-05
-0.00300976
2.13742e-05
-0.00303092
2.11673e-05
-0.00305187
2.09491e-05
-0.00307259
2.07194e-05
-0.00309307
2.04778e-05
-0.0031133
2.02244e-05
-0.00313326
1.99588e-05
-0.00315294
1.96809e-05
-0.00317233
1.93905e-05
-0.00319142
1.90873e-05
-0.00321019
1.87713e-05
-0.00322863
1.84421e-05
-0.00324673
1.80997e-05
-0.00326448
1.77438e-05
-0.00328185
1.73742e-05
-0.00329884
1.69909e-05
-0.00331544
1.65935e-05
-0.00333162
1.6182e-05
-0.00334738
1.57561e-05
-0.00336269
1.53156e-05
-0.00337755
1.48604e-05
-0.00339194
1.43903e-05
-0.00340585
1.39053e-05
-0.00341925
1.3405e-05
-0.00343214
1.28895e-05
-0.0034445
1.23584e-05
-0.00345632
1.18117e-05
-0.00346757
1.12493e-05
-0.00347824
1.06709e-05
-0.00348831
1.00764e-05
-0.00349778
9.46573e-06
-0.00350662
8.83873e-06
-0.00351481
8.19528e-06
-0.00352235
7.53525e-06
-0.00352921
6.85852e-06
-0.00353537
6.16498e-06
-0.00354083
5.45455e-06
-0.00354555
4.72714e-06
-0.00354954
3.98269e-06
-0.00355276
3.22119e-06
-0.0035552
2.44267e-06
-0.00355685
1.64729e-06
-0.00355768
8.35422e-07
-0.00355769
4.97907e-09
-0.00355683
-8.59622e-07
-0.00355511
-1.71988e-06
-0.00355249
-2.61411e-06
-0.003549
-3.49776e-06
-0.00354457
-4.42418e-06
-0.00353921
-5.35855e-06
-0.0035329
-6.30861e-06
-0.00352561
-7.29138e-06
-0.00351734
-8.2719e-06
-0.00350806
-9.27972e-06
-0.00349775
-1.03115e-05
-0.0034864
-1.13448e-05
-0.00347399
-1.24112e-05
-0.00346051
-1.34815e-05
-0.00344593
-1.45743e-05
-0.00343024
-1.56909e-05
-0.00341343
-1.68111e-05
-0.00339547
-1.79594e-05
-0.00337635
-1.91149e-05
-0.00335606
-2.02913e-05
-0.00333457
-2.14852e-05
-0.00331188
-2.26909e-05
-0.00328796
-2.39184e-05
-0.00326281
-2.51533e-05
-0.0032364
-2.64106e-05
-0.00320872
-2.76769e-05
-0.00317976
-2.89598e-05
-0.0031495
-3.02577e-05
-0.00311793
-3.1567e-05
-0.00308503
-3.28941e-05
-0.00305081
-3.42278e-05
-0.00301523
-3.55776e-05
-0.00297829
-3.69353e-05
-0.00293998
-3.83077e-05
-0.00290029
-3.96871e-05
-0.00285921
-4.10794e-05
-0.00281673
-4.2478e-05
-0.00277285
-4.38864e-05
-0.00272754
-4.53021e-05
-0.00268082
-4.6725e-05
-0.00263266
-4.81539e-05
-0.00258307
-4.95884e-05
-0.00253204
-5.10268e-05
-0.00247957
-5.24691e-05
-0.00242566
-5.39131e-05
-0.0023703
-5.53589e-05
-0.00231349
-5.68037e-05
-0.00225524
-5.82481e-05
-0.00219555
-5.9688e-05
-0.00213443
-6.11256e-05
-0.00207187
-6.25547e-05
-0.00200789
-6.39781e-05
-0.0019425
-6.53904e-05
-0.00187571
-6.67931e-05
-0.00180752
-6.81815e-05
-0.00173797
-6.95548e-05
-0.00166705
-7.09112e-05
-0.00159481
-7.22465e-05
-0.00152124
-7.35631e-05
-0.00144639
-7.48519e-05
-0.00137027
-7.61171e-05
-0.00129292
-7.73497e-05
-0.00121437
-7.85507e-05
-0.00113465
-7.97179e-05
-0.0010538
-8.08447e-05
-0.000971862
-8.19344e-05
-0.000888885
-8.29753e-05
-0.000804911
-8.3971e-05
-0.000719991
-8.49184e-05
-0.000634179
-8.58087e-05
-0.000547532
-8.66447e-05
-0.000460115
-8.74146e-05
-0.000372005
-8.81075e-05
-0.000283247
-8.87553e-05
-0.000193854
-8.9391e-05
-0.000103882
-8.99693e-05
-1.34317e-05
-9.04474e-05
7.74093e-05
-9.08382e-05
0.000168574
-9.1162e-05
0.000260004
-9.14266e-05
0.000351647
-9.164e-05
0.000443396
-9.17465e-05
0.00053514
-9.17402e-05
0.000626786
-9.16432e-05
0.000718268
-9.14788e-05
0.000809518
-9.12481e-05
0.000900469
-9.09482e-05
0.000991048
-9.05767e-05
0.00108119
-9.01402e-05
0.00117083
-8.964e-05
0.0012599
-8.9072e-05
0.00134835
-8.84427e-05
0.0014361
-8.77538e-05
0.00152312
-8.70233e-05
0.0016094
-8.62753e-05
0.00169482
-8.54252e-05
0.00177936
-8.45386e-05
0.00186298
-8.36162e-05
0.00194563
-8.26526e-05
0.00202728
-8.16517e-05
0.00210789
-8.06187e-05
0.00218745
-7.95553e-05
0.00226591
-7.84593e-05
0.00234324
-7.7333e-05
0.00241942
-7.61832e-05
0.00249443
-7.50086e-05
0.00256824
-7.38093e-05
0.00264083
-7.25843e-05
0.00271217
-7.13356e-05
0.00278223
-7.00644e-05
0.002851
-6.87694e-05
0.00291846
-6.74523e-05
0.00298457
-6.61089e-05
0.0030493
-6.47356e-05
0.00311264
-6.33361e-05
0.00317455
-6.19103e-05
0.00323501
-6.04573e-05
0.00329399
-5.89728e-05
0.00335144
-5.74524e-05
0.00340734
-5.58982e-05
0.00346165
-5.43112e-05
0.00351434
-5.26891e-05
0.00356537
-5.10275e-05
0.00361469
-4.93232e-05
0.00366227
-4.75776e-05
0.00370806
-4.57907e-05
0.00375201
-4.39575e-05
0.00379409
-4.20766e-05
0.00383424
-4.01466e-05
0.00387241
-3.81645e-05
0.00390854
-3.61297e-05
0.00394258
-3.40399e-05
0.00397447
-3.18913e-05
0.00400415
-2.96831e-05
0.00403156
-2.74086e-05
0.00405662
-2.50684e-05
0.00407929
-2.26642e-05
0.00409948
-2.01898e-05
0.00411712
-1.76419e-05
0.00413214
-1.50186e-05
0.00414446
-1.23243e-05
0.00415401
-9.55181e-06
0.00416073
-6.71427e-06
0.00416453
-3.80338e-06
0.00416535
-8.18404e-07
0.00416304
2.31098e-06
0.00415758
5.45378e-06
0.00414891
8.67175e-06
0.004137
1.19139e-05
0.00412174
1.52595e-05
0.00410306
1.86816e-05
0.00408095
2.2111e-05
0.00405531
2.56353e-05
0.00402614
2.91747e-05
0.00399336
3.27827e-05
0.00395696
3.63956e-05
0.00391691
4.00551e-05
0.00387319
4.37175e-05
0.00382579
4.74e-05
0.00377472
5.10665e-05
0.00372
5.4728e-05
0.00366161
5.83854e-05
0.0035996
6.20009e-05
0.00353401
6.55905e-05
0.00346488
6.91342e-05
0.00339229
7.25967e-05
0.00331626
7.60292e-05
0.0032369
7.93568e-05
0.00315429
8.2611e-05
0.00306852
8.57711e-05
0.0029797
8.88131e-05
0.00288796
9.17514e-05
0.00279342
9.45393e-05
0.00269623
9.7199e-05
0.00259651
9.97183e-05
0.00249445
0.000102063
0.00239019
0.00010425
0.00228393
0.000106264
0.00217584
0.000108091
0.00206611
0.000109726
0.00195496
0.000111144
0.0018426
0.00011236
0.00172926
0.000113346
0.00161513
0.000114128
0.00150045
0.000114685
0.00138547
0.000114982
0.00127042
0.000115049
0.00115554
0.000114877
0.00104111
0.000114427
0.000927379
0.000113738
0.000814591
0.000112788
0.000702978
0.000111611
0.000592825
0.000110152
0.000484376
0.000108448
0.000377889
0.000106485
0.000273621
0.000104266
0.000171771
0.000101849
7.2558e-05
9.92115e-05
-2.37936e-05
9.63498e-05
-0.000116984
9.31886e-05
-0.000206929
8.9944e-05
-0.000293306
8.63758e-05
-0.000376157
8.28506e-05
-0.000454951
7.87913e-05
-0.000529584
7.46324e-05
-0.000599873
7.02879e-05
-0.000666055
6.61803e-05
-0.000727642
6.15848e-05
-0.000784577
5.6934e-05
-0.000836728
5.21513e-05
-0.00088438
4.76507e-05
-0.0009271
4.27156e-05
-0.000964949
3.78409e-05
-0.000998021
3.30683e-05
-0.00102616
2.81391e-05
-0.00104943
2.3272e-05
-0.00106783
1.83939e-05
-0.00108167
1.38462e-05
-0.00109067
8.99939e-06
-0.00109501
4.33467e-06
-0.00109481
-1.88381e-07
-0.00109014
-4.67317e-06
-0.00108116
-8.97605e-06
-0.00106798
-1.31804e-05
-0.00105064
-1.73427e-05
-0.00102926
-2.13797e-05
-0.00100404
-2.52256e-05
-0.000975273
-2.87649e-05
-0.000942843
-3.24305e-05
-0.000907074
-3.57718e-05
-0.000868232
-3.88477e-05
-0.000826209
-4.20293e-05
-0.000781406
-4.48039e-05
-0.000733859
-4.75419e-05
-0.000683849
-5.00025e-05
-0.000631499
-5.23484e-05
-0.000577036
-5.44665e-05
-0.000520627
-5.64141e-05
-0.000462484
-5.81455e-05
-0.000402759
-5.97233e-05
-0.000341644
-6.11124e-05
-0.000279431
-6.22116e-05
-0.000216166
-6.32655e-05
-0.000152109
-6.40545e-05
-8.74291e-05
-6.46746e-05
-2.23939e-05
-6.503e-05
4.29521e-05
-6.5345e-05
0.000108308
-6.53611e-05
0.000173489
-6.51884e-05
0.00023848
-6.49965e-05
0.000302686
-6.4205e-05
0.000366241
-6.3548e-05
0.000429044
-6.27962e-05
0.000490723
-6.16779e-05
0.000551059
-6.03429e-05
0.000609931
-5.88827e-05
0.000667318
-5.73978e-05
0.000722974
-5.56591e-05
0.000776973
-5.39943e-05
0.000828923
-5.19411e-05
0.000878798
-4.98662e-05
0.000926502
-4.77025e-05
0.00097194
-4.54432e-05
0.00101492
-4.29923e-05
0.00105547
-4.0558e-05
0.00109354
-3.80768e-05
0.00112901
-3.5468e-05
0.00116196
-3.29376e-05
0.00119213
-3.01586e-05
0.00121954
-2.74072e-05
0.00124425
-2.47007e-05
0.00126591
-2.16614e-05
0.00128485
-1.89448e-05
0.00130095
-1.61105e-05
0.00131406
-1.31229e-05
0.00132431
-1.02568e-05
0.0013316
-7.28286e-06
0.00133599
-4.38743e-06
0.00133742
-1.42465e-06
0.00133597
1.46042e-06
0.00133175
4.22931e-06
0.00132483
6.92155e-06
0.00131522
9.61014e-06
0.00130308
1.21352e-05
0.00128843
1.46462e-05
0.00127163
1.67899e-05
0.00125254
1.90782e-05
0.00123141
2.1133e-05
0.00120836
2.30385e-05
0.00118348
2.4889e-05
0.00115707
2.64058e-05
0.00112929
2.77848e-05
0.00110008
2.92127e-05
0.00106978
3.03042e-05
0.0010384
3.13824e-05
0.00100594
3.24661e-05
0.000972729
3.32082e-05
0.000938801
3.39259e-05
0.000904364
3.44347e-05
0.000869663
3.47001e-05
0.000834742
3.49193e-05
0.000799729
3.50107e-05
0.000764569
3.5159e-05
0.000729436
3.5132e-05
0.000694447
3.49876e-05
0.000659642
3.48041e-05
0.00062515
3.44911e-05
0.000590886
3.42638e-05
0.000557188
3.36989e-05
0.000523768
3.34206e-05
0.00049065
3.31187e-05
0.000457864
3.27866e-05
0.000425335
3.25291e-05
0.000392888
3.24477e-05
0.000360626
3.22618e-05
0.00032835
3.22763e-05
0.000295648
3.27033e-05
0.000262294
3.33545e-05
0.000227442
3.48523e-05
0.000191675
3.57687e-05
0.000152738
3.89381e-05
0.000112094
4.06443e-05
8.96991e-05
2.23951e-05
8.22888e-05
7.41041e-06
5.88279e-05
2.3461e-05
2.13141e-05
3.75141e-05
-1.90296e-05
4.03441e-05
-4.76774e-05
2.86483e-05
-5.74083e-05
9.73146e-06
-7.80335e-05
2.06256e-05
-0.000119121
4.10871e-05
-0.000160857
4.17373e-05
-0.000199544
3.86881e-05
-0.000237449
3.79054e-05
-0.000274117
3.66668e-05
-0.000310252
3.61325e-05
-0.000346004
3.57501e-05
-0.000381612
3.56078e-05
-0.00041734
3.57286e-05
-0.000453092
3.57511e-05
-0.000489055
3.59607e-05
-0.00052531
3.62544e-05
-0.000561774
3.64648e-05
-0.000598533
3.67605e-05
-0.000635467
3.69333e-05
-0.000672444
3.69771e-05
-0.00070966
3.72152e-05
-0.000747052
3.73933e-05
-0.000784312
3.72601e-05
-0.000821511
3.71974e-05
-0.000858476
3.6962e-05
-0.000895152
3.66728e-05
-0.000931564
3.64101e-05
-0.00096745
3.58853e-05
-0.00100273
3.5283e-05
-0.00103719
3.44634e-05
-0.00107064
3.34466e-05
-0.00110306
3.24189e-05
-0.00113434
3.12786e-05
-0.00116431
2.99785e-05
-0.00119256
2.82493e-05
-0.00121905
2.64969e-05
-0.00124371
2.4657e-05
-0.00126612
2.24035e-05
-0.0012863
2.01832e-05
-0.00130405
1.77529e-05
-0.00131921
1.51573e-05
-0.00133152
1.23107e-05
-0.00134083
9.311e-06
-0.00134707
6.2363e-06
-0.00135015
3.07515e-06
-0.00134986
-2.98012e-07
-0.00134607
-3.78691e-06
-0.00133886
-7.21179e-06
-0.00132818
-1.06784e-05
-0.00131388
-1.42993e-05
-0.00129613
-1.77487e-05
-0.001275
-2.11351e-05
-0.00125033
-2.46644e-05
-0.00122211
-2.82252e-05
-0.00119079
-3.13169e-05
-0.00115601
-3.47745e-05
-0.00111796
-3.80572e-05
-0.00107694
-4.10248e-05
-0.00103243
-4.45142e-05
-0.000984968
-4.74605e-05
-0.000934493
-5.0477e-05
-0.000881151
-5.33432e-05
-0.000825007
-5.61425e-05
-0.0007664
-5.86036e-05
-0.000705164
-6.12344e-05
-0.000641696
-6.3467e-05
-0.000576182
-6.55142e-05
-0.000508605
-6.75766e-05
-0.000439302
-6.93018e-05
-0.000368812
-7.04909e-05
-0.000297021
-7.17929e-05
-0.000224156
-7.28689e-05
-0.000150622
-7.35367e-05
-7.64218e-05
-7.42027e-05
-2.20836e-06
-7.42144e-05
7.20172e-05
-7.42254e-05
0.000145703
-7.36856e-05
0.000218797
-7.30922e-05
0.000290909
-7.21118e-05
0.000361914
-7.10041e-05
0.000431635
-6.97218e-05
0.000499656
-6.80237e-05
0.000565622
-6.59685e-05
0.000629238
-6.36199e-05
0.000690248
-6.10161e-05
0.000748484
-5.82383e-05
0.000803622
-5.51385e-05
0.000855415
-5.17928e-05
0.000903553
-4.8137e-05
0.000947721
-4.41666e-05
0.000987763
-4.00415e-05
0.0010233
-3.55384e-05
0.00105439
-3.1087e-05
0.00108065
-2.62648e-05
0.00110173
-2.10795e-05
0.00111737
-1.56462e-05
0.00112735
-9.9846e-06
0.00113172
-4.37509e-06
0.00113008
1.64776e-06
0.0011222
7.88422e-06
0.00110852
1.36819e-05
0.00108822
2.02954e-05
0.00106155
2.66774e-05
0.00102826
3.32935e-05
0.000988175
4.00835e-05
0.000941856
4.63197e-05
0.000888648
5.32029e-05
0.000828811
5.98348e-05
0.000762611
6.62026e-05
0.000689971
7.2639e-05
0.000611118
7.8853e-05
0.000526112
8.50057e-05
0.000435057
9.10548e-05
0.000338368
9.66942e-05
0.000236149
0.000102222
0.000128788
0.000107365
1.73563e-05
0.000111434
-9.87792e-05
0.000116138
-0.000219051
0.000120272
-0.000342927
0.000123877
-0.000470055
0.00012713
-0.000600122
0.000130068
-0.000732654
0.000132533
-0.000867165
0.000134507
-0.00100323
0.000136064
-0.00114046
0.000137233
-0.00127842
0.000137964
-0.00141668
0.000138257
-0.00155475
0.000138077
-0.00169219
0.00013744
-0.0018286
0.000136412
-0.00196365
0.000135046
-0.00209687
0.000133227
-0.00222792
0.000131051
-0.00235644
0.00012852
-0.00248205
0.000125607
-0.00260439
0.000122339
-0.00272321
0.00011882
-0.00283828
0.000115067
-0.00294932
0.000111047
-0.00305608
0.000106769
-0.00315838
0.000102298
-0.00325594
9.75684e-05
-0.00334866
9.26953e-05
-0.00343636
8.77054e-05
-0.00351897
8.26101e-05
-0.00359637
7.73977e-05
-0.00366848
7.21101e-05
-0.00373527
6.67952e-05
-0.00379666
6.13962e-05
-0.0038526
5.59448e-05
-0.00390309
5.04948e-05
-0.0039482
4.50935e-05
-0.0039879
3.97074e-05
-0.00402228
3.43775e-05
-0.00405139
2.91098e-05
-0.0040753
2.39132e-05
-0.00409405
1.87521e-05
-0.00410765
1.36049e-05
-0.00411625
8.59853e-06
-0.00411996
3.70357e-06
-0.0041187
-1.25956e-06
-0.0041127
-6.00061e-06
-0.00410207
-1.06346e-05
-0.00408688
-1.5187e-05
-0.00406719
-1.96896e-05
-0.0040431
-2.40919e-05
-0.00401471
-2.83792e-05
-0.00398216
-3.2554e-05
-0.0039455
-3.66599e-05
-0.00390483
-4.06708e-05
-0.00386027
-4.45676e-05
-0.0038119
-4.83642e-05
-0.00375983
-5.20732e-05
-0.00370419
-5.56368e-05
-0.0036451
-5.90884e-05
-0.00358268
-6.24212e-05
-0.00351704
-6.56405e-05
-0.00344827
-6.87617e-05
-0.00337651
-7.17608e-05
-0.00330185
-7.46623e-05
-0.00322441
-7.74287e-05
-0.00314438
-8.00386e-05
-0.00306181
-8.25642e-05
-0.00297683
-8.49839e-05
-0.00288957
-8.72653e-05
-0.00280015
-8.94123e-05
-0.00270871
-9.14461e-05
-0.00261532
-9.33911e-05
-0.00252012
-9.51921e-05
-0.00242326
-9.68584e-05
-0.00232477
-9.84932e-05
-0.00222476
-9.99999e-05
-0.00212335
-0.000101412
-0.0020206
-0.000102758
-0.00191655
-0.000104049
-0.0018113
-0.000105251
-0.00170496
-0.000106332
-0.00159767
-0.000107296
-0.00148943
-0.000108242
-0.00138032
-0.000109101
-0.00127044
-0.000109885
-0.00115983
-0.000110604
-0.00104857
-0.000111262
-0.000936712
-0.000111859
-0.000824447
-0.000112267
-0.000711727
-0.000112721
-0.000598659
-0.00011307
-0.000485287
-0.000113373
-0.000371778
-0.000113509
-0.000258315
-0.000113464
-0.000144954
-0.000113363
-3.18093e-05
-0.000113147
8.10424e-05
-0.000112853
0.000193579
-0.000112539
0.000305628
-0.000112051
0.000417
-0.000111374
0.000527665
-0.000110668
0.000637615
-0.000109953
0.000746727
-0.000109115
0.000854866
-0.00010814
0.000961899
-0.000107036
0.0010677
-0.0001058
0.00117214
-0.000104451
0.00127514
-0.000103001
0.00137661
-0.000101465
0.00147643
-9.9825e-05
0.0015745
-9.80744e-05
0.00167074
-9.62322e-05
0.00176502
-9.42836e-05
0.00185727
-9.22538e-05
0.00194742
-9.01489e-05
0.00203539
-8.79716e-05
0.0021211
-8.57174e-05
0.00220451
-8.34058e-05
0.00228556
-8.10533e-05
0.00236421
-7.86477e-05
0.00244043
-7.6219e-05
0.00251418
-7.37515e-05
0.00258544
-7.12564e-05
0.00265417
-6.873e-05
0.00272035
-6.61861e-05
0.00278399
-6.36373e-05
0.00284507
-6.10744e-05
0.00290358
-5.85099e-05
0.00295952
-5.5939e-05
0.00301289
-5.33744e-05
0.00306369
-5.07979e-05
0.00311192
-4.8224e-05
0.00315758
-4.5663e-05
0.00320068
-4.30984e-05
0.00324122
-4.05428e-05
0.00327923
-3.80005e-05
0.0033147
-3.54717e-05
0.00334766
-3.29579e-05
0.0033781
-3.04393e-05
0.00340604
-2.79452e-05
0.00343152
-2.54803e-05
0.00345453
-2.30127e-05
0.00347512
-2.05812e-05
0.00349331
-1.81897e-05
0.00350911
-1.5806e-05
0.00352257
-1.34612e-05
0.00353374
-1.11687e-05
0.00354264
-8.89283e-06
0.0035493
-6.66292e-06
0.00355379
-4.48746e-06
0.00355614
-2.35682e-06
0.00355639
-2.45328e-07
0.0035546
1.78735e-06
0.00355083
3.76726e-06
0.00354513
5.69761e-06
0.00353757
7.56857e-06
0.00352818
9.38406e-06
0.00351704
1.1144e-05
0.0035042
1.28453e-05
0.00348971
1.44839e-05
0.00347364
1.60692e-05
0.00345605
1.75954e-05
0.003437
1.90521e-05
0.00341654
2.0452e-05
0.00339475
2.17963e-05
0.00337167
2.3081e-05
0.00334736
2.43093e-05
0.00332188
2.54821e-05
0.00329529
2.65918e-05
0.00326765
2.76419e-05
0.00323901
2.86392e-05
0.00320942
2.95863e-05
0.00317894
3.04804e-05
0.00314761
3.13239e-05
0.00311551
3.21145e-05
0.00308266
3.28509e-05
0.00304912
3.35409e-05
0.00301493
3.41831e-05
0.00298015
3.47782e-05
0.00294482
3.53289e-05
0.00290899
3.58356e-05
0.0028727
3.62957e-05
0.00283599
3.67129e-05
0.0027989
3.70898e-05
0.00276147
3.7428e-05
0.00272374
3.77276e-05
0.00268575
3.79896e-05
0.00264754
3.82158e-05
0.00260914
3.8406e-05
0.00257058
3.85609e-05
0.00253189
3.86828e-05
0.00249312
3.87729e-05
0.00245429
3.88325e-05
0.00241543
3.88629e-05
0.00237656
3.88651e-05
0.00233773
3.884e-05
0.00229894
3.87883e-05
0.00226023
3.87109e-05
0.00222162
3.86088e-05
0.00218314
3.84833e-05
0.0021448
3.83357e-05
0.00210664
3.81671e-05
0.00206866
3.79787e-05
0.00203089
3.77712e-05
0.00199334
3.75455e-05
0.00195604
3.73023e-05
0.001919
3.70426e-05
0.00188223
3.67672e-05
0.00184575
3.6477e-05
0.00180958
3.6173e-05
0.00177373
3.58561e-05
0.0017382
3.55269e-05
0.00170301
3.51865e-05
0.00166818
3.48355e-05
0.0016337
3.4475e-05
0.0015996
3.41057e-05
0.00156587
3.37281e-05
0.00153252
3.33431e-05
0.00149957
3.29511e-05
0.00146702
3.2553e-05
0.00143487
3.21494e-05
0.00140313
3.17409e-05
0.0013718
3.13282e-05
0.00134089
3.09118e-05
0.0013104
3.04922e-05
0.00128033
3.00701e-05
0.00125068
2.96459e-05
0.00122146
2.92202e-05
0.00119267
2.87936e-05
0.0011643
2.83664e-05
0.00113636
2.79392e-05
0.00110885
2.75122e-05
0.00108176
2.7086e-05
0.0010551
2.66611e-05
0.00102886
2.62377e-05
0.00100304
2.58164e-05
0.000977647
2.53974e-05
0.000952666
2.4981e-05
0.000928098
2.45675e-05
0.00090394
2.41573e-05
0.000880189
2.37508e-05
0.000856841
2.33481e-05
0.000833891
2.29496e-05
0.000811335
2.25554e-05
0.000789169
2.21659e-05
0.000767388
2.17812e-05
0.000745986
2.14016e-05
0.000724958
2.10273e-05
0.0007043
2.06585e-05
0.000684004
2.02954e-05
0.000664066
1.99381e-05
0.000644479
1.95868e-05
0.000625237
1.92416e-05
0.000606334
1.89028e-05
0.000587763
1.85705e-05
0.000569518
1.82446e-05
0.000551593
1.79254e-05
0.00053398
1.7613e-05
0.000516672
1.73074e-05
0.000499663
1.70089e-05
0.000482946
1.67174e-05
0.000466512
1.64331e-05
0.000450356
1.6156e-05
0.00043447
1.58861e-05
0.000418846
1.56237e-05
0.000403478
1.53686e-05
0.000388356
1.5121e-05
0.000373475
1.48809e-05
0.000358827
1.46484e-05
0.000344403
1.44235e-05
0.000330197
1.42062e-05
0.0003162
1.39966e-05
0.000302405
1.37948e-05
0.000288805
1.36006e-05
0.00027539
1.34143e-05
0.000262154
1.32358e-05
0.000249089
1.30651e-05
0.000236187
1.29022e-05
0.00022344
1.27473e-05
0.000210839
1.26003e-05
0.000198378
1.24612e-05
0.000186048
1.233e-05
0.000173841
1.22069e-05
0.000161749
1.20917e-05
0.000149765
1.19846e-05
0.000137879
1.18855e-05
0.000126085
1.17944e-05
0.000114373
1.17114e-05
0.000102737
1.16365e-05
9.11667e-05
1.15697e-05
7.96556e-05
1.15111e-05
6.8195e-05
1.14606e-05
5.67775e-05
1.14176e-05
4.53975e-05
1.13798e-05
3.40419e-05
1.13554e-05
2.26893e-05
1.13524e-05
1.13426e-05
1.13466e-05
1.13427e-05
-4.85953e-06
1.08857e-05
-1.07048e-05
1.15571e-05
-1.65945e-05
1.14452e-05
-2.23637e-05
1.13347e-05
-2.80521e-05
1.12635e-05
-3.36902e-05
1.12123e-05
-3.93089e-05
1.11928e-05
-4.49243e-05
1.11945e-05
-5.05465e-05
1.1212e-05
-5.61807e-05
1.12391e-05
-6.18301e-05
1.12751e-05
-6.74964e-05
1.13136e-05
-7.31812e-05
1.13543e-05
-7.88851e-05
1.13981e-05
-8.46098e-05
1.14452e-05
-9.03565e-05
1.14931e-05
-9.61262e-05
1.15422e-05
-0.00010192
1.15923e-05
-0.000107739
1.16446e-05
-0.000113584
1.16956e-05
-0.000119455
1.17495e-05
-0.000125354
1.18045e-05
-0.000131281
1.18602e-05
-0.000137238
1.19189e-05
-0.000143225
1.19785e-05
-0.000149244
1.20396e-05
-0.000155294
1.21034e-05
-0.000161378
1.21698e-05
-0.000167496
1.22369e-05
-0.00017365
1.23071e-05
-0.00017984
1.23798e-05
-0.000186068
1.24549e-05
-0.000192335
1.25324e-05
-0.000198642
1.26124e-05
-0.000204991
1.26949e-05
-0.000211382
1.278e-05
-0.000217816
1.28676e-05
-0.000224296
1.29578e-05
-0.000230822
1.30506e-05
-0.000237396
1.31459e-05
-0.000244019
1.32438e-05
-0.000250691
1.33442e-05
-0.000257415
1.34471e-05
-0.000264192
1.35526e-05
-0.000271023
1.36606e-05
-0.000277909
1.37712e-05
-0.000284851
1.38843e-05
-0.000291851
1.39999e-05
-0.00029891
1.41181e-05
-0.00030603
1.42388e-05
-0.000313211
1.4362e-05
-0.000320454
1.44878e-05
-0.000327762
1.46161e-05
-0.000335136
1.4747e-05
-0.000342576
1.48806e-05
-0.000350084
1.50167e-05
-0.000357662
1.51554e-05
-0.00036531
1.52968e-05
-0.00037303
1.54408e-05
-0.000380824
1.55874e-05
-0.000388692
1.57367e-05
-0.000396636
1.58887e-05
-0.000404658
1.60434e-05
-0.000412758
1.62007e-05
-0.000420938
1.63608e-05
-0.0004292
1.65235e-05
-0.000437544
1.6689e-05
-0.000445973
1.68571e-05
-0.000454486
1.7028e-05
-0.000463087
1.72016e-05
-0.000471776
1.73779e-05
-0.000480554
1.7557e-05
-0.000489424
1.77388e-05
-0.000498385
1.79234e-05
-0.00050744
1.81107e-05
-0.000516591
1.83007e-05
-0.000525837
1.84935e-05
-0.000535182
1.8689e-05
-0.000544625
1.88873e-05
-0.000554169
1.90883e-05
-0.000563815
1.92921e-05
-0.000573564
1.94986e-05
-0.000583418
1.97078e-05
-0.000593378
1.99198e-05
-0.000603445
2.01345e-05
-0.000613621
2.0352e-05
-0.000623907
2.05721e-05
-0.000634304
2.07949e-05
-0.000644814
2.10204e-05
-0.000655438
2.12486e-05
-0.000666178
2.14795e-05
-0.000677035
2.17131e-05
-0.000688009
2.19493e-05
-0.000699103
2.21881e-05
-0.000710318
2.24295e-05
-0.000721655
2.26736e-05
-0.000733115
2.29202e-05
-0.000744699
2.31694e-05
-0.00075641
2.34211e-05
-0.000768247
2.36753e-05
-0.000780213
2.3932e-05
-0.000792309
2.41912e-05
-0.000804535
2.44527e-05
-0.000816894
2.47167e-05
-0.000829385
2.49831e-05
-0.000842011
2.52518e-05
-0.000854773
2.55228e-05
-0.000867671
2.57961e-05
-0.000880707
2.60716e-05
-0.000893881
2.63493e-05
-0.000907196
2.66291e-05
-0.000920652
2.6911e-05
-0.000934249
2.7195e-05
-0.00094799
2.7481e-05
-0.000961875
2.77689e-05
-0.000975904
2.80588e-05
-0.00099008
2.83504e-05
-0.0010044
2.86439e-05
-0.00101887
2.89391e-05
-0.00103349
2.92359e-05
-0.00104826
2.95344e-05
-0.00106317
2.98343e-05
-0.00107824
3.01358e-05
-0.00109346
3.04386e-05
-0.00110883
3.07427e-05
-0.00112436
3.1048e-05
-0.00114004
3.13546e-05
-0.00115587
3.16621e-05
-0.00117185
3.19707e-05
-0.00118799
3.22802e-05
-0.00120429
3.25904e-05
-0.00122074
3.29014e-05
-0.00123735
3.3213e-05
-0.00125411
3.3525e-05
-0.00127103
3.38375e-05
-0.00128811
3.41502e-05
-0.00130534
3.44631e-05
-0.00132273
3.47761e-05
-0.00134027
3.5089e-05
-0.00135797
3.54017e-05
-0.00137583
3.57141e-05
-0.00139385
3.60261e-05
-0.00141202
3.63375e-05
-0.00143034
3.66482e-05
-0.00144882
3.69581e-05
-0.00146745
3.72669e-05
-0.00148624
3.75746e-05
-0.00150518
3.7881e-05
-0.00152428
3.81859e-05
-0.00154352
3.84891e-05
-0.00156292
3.87906e-05
-0.00158247
3.90901e-05
-0.00160216
3.93875e-05
-0.00162201
3.96825e-05
-0.00164199
3.9975e-05
-0.00166213
4.02648e-05
-0.00168241
4.05518e-05
-0.00170283
4.08356e-05
-0.00172339
4.11161e-05
-0.00174408
4.13932e-05
-0.00176492
4.16665e-05
-0.00178589
4.19358e-05
-0.00180699
4.2201e-05
-0.00182823
4.24618e-05
-0.00184959
4.2718e-05
-0.00187107
4.29693e-05
-0.00189268
4.32155e-05
-0.00191441
4.34563e-05
-0.00193626
4.36916e-05
-0.00195823
4.3921e-05
-0.0019803
4.41443e-05
-0.00200249
4.43611e-05
-0.00202477
4.45714e-05
-0.00204716
4.47747e-05
-0.00206965
4.49707e-05
-0.00209224
4.51593e-05
-0.00211491
4.53401e-05
-0.00213767
4.55128e-05
-0.00216051
4.56771e-05
-0.00218343
4.58327e-05
-0.00220643
4.59793e-05
-0.00222949
4.61167e-05
-0.00225262
4.62444e-05
-0.0022758
4.63623e-05
-0.00229904
4.64698e-05
-0.00232233
4.65668e-05
-0.00234566
4.66529e-05
-0.00236903
4.67277e-05
-0.00239243
4.67909e-05
-0.00241586
4.68422e-05
-0.00243931
4.68812e-05
-0.00246277
4.69075e-05
-0.00248624
4.69209e-05
-0.0025097
4.69208e-05
-0.00253316
4.69071e-05
-0.00255661
4.68792e-05
-0.00258004
4.68369e-05
-0.00260343
4.67797e-05
-0.0026268
4.67073e-05
-0.00265011
4.66193e-05
-0.00267338
4.65154e-05
-0.00269659
4.63951e-05
-0.00271973
4.62581e-05
-0.00274279
4.6104e-05