/*--------------------------------*- C++ -*----------------------------------*\
| =========                 |                                                 |
| \\      /  F ield         | OpenFOAM: The Open Source CFD Toolbox           |
|  \\    /   O peration     | Version:  2412                                  |
|   \\  /    A nd           | Website:  www.openfoam.com                      |
|    \\/     M anipulation  |                                                 |
\*---------------------------------------------------------------------------*/
FoamFile
{
    version     2.0;
    format      ascii;
    arch        "LSB;label=32;scalar=64";
    class       volVectorField;
    location    "4.78";
    object      U;
}
// * * * * * * * * * * * * * * * * * * * * * * * * * * * * * * * * * * * * * //

dimensions      [0 1 -1 0 0 0 0];

internalField   nonuniform List<vector> 
80000
(
(-0.000406169 0.000641215 0)
(-0.00119145 0.00052209 0)
(-0.00194282 0.000504557 0)
(-0.00268723 0.000519255 0)
(-0.00343612 0.000527814 0)
(-0.00418453 0.000532438 0)
(-0.00493348 0.000534807 0)
(-0.00568251 0.000536596 0)
(-0.00643286 0.000538238 0)
(-0.00718504 0.000539938 0)
(-0.00793974 0.000541928 0)
(-0.00869734 0.000543831 0)
(-0.00945793 0.000545702 0)
(-0.0102217 0.000547759 0)
(-0.010989 0.000549907 0)
(-0.0117597 0.000551971 0)
(-0.012534 0.000554 0)
(-0.0133118 0.000556012 0)
(-0.0140931 0.000558094 0)
(-0.0148779 0.000560029 0)
(-0.0156663 0.000562123 0)
(-0.0164583 0.000564272 0)
(-0.017254 0.000566506 0)
(-0.0180535 0.00056876 0)
(-0.0188569 0.000571143 0)
(-0.0196643 0.000573584 0)
(-0.0204758 0.000576191 0)
(-0.0212916 0.000578937 0)
(-0.0221119 0.000581679 0)
(-0.0229366 0.000584592 0)
(-0.0237661 0.000587636 0)
(-0.0246006 0.000590793 0)
(-0.0254401 0.000594068 0)
(-0.0262849 0.000597461 0)
(-0.0271351 0.00060097 0)
(-0.0279909 0.000604596 0)
(-0.0288525 0.000608336 0)
(-0.02972 0.000612192 0)
(-0.0305937 0.000616162 0)
(-0.0314737 0.000620247 0)
(-0.0323601 0.000624446 0)
(-0.0332533 0.000628757 0)
(-0.0341532 0.000633179 0)
(-0.0350602 0.000637713 0)
(-0.0359743 0.000642358 0)
(-0.0368957 0.000647113 0)
(-0.0378246 0.000651978 0)
(-0.0387612 0.000656953 0)
(-0.0397057 0.000662037 0)
(-0.0406581 0.00066723 0)
(-0.0416187 0.000672532 0)
(-0.0425877 0.000677945 0)
(-0.0435652 0.000683468 0)
(-0.0445513 0.000689104 0)
(-0.0455463 0.000694852 0)
(-0.0465504 0.000700712 0)
(-0.0475636 0.000706684 0)
(-0.0485862 0.000712769 0)
(-0.0496184 0.000718967 0)
(-0.0506603 0.000725279 0)
(-0.0517121 0.000731705 0)
(-0.052774 0.000738247 0)
(-0.0538462 0.000744903 0)
(-0.0549288 0.000751673 0)
(-0.056022 0.000758558 0)
(-0.0571261 0.000765558 0)
(-0.0582411 0.000772671 0)
(-0.0593673 0.000779899 0)
(-0.0605048 0.000787242 0)
(-0.0616539 0.000794699 0)
(-0.0628146 0.000802272 0)
(-0.0639873 0.000809959 0)
(-0.065172 0.000817761 0)
(-0.066369 0.000825678 0)
(-0.0675784 0.000833708 0)
(-0.0688005 0.000841852 0)
(-0.0700353 0.000850111 0)
(-0.0712832 0.000858483 0)
(-0.0725442 0.000866969 0)
(-0.0738186 0.000875568 0)
(-0.0751065 0.000884281 0)
(-0.0764081 0.000893106 0)
(-0.0777236 0.000902043 0)
(-0.0790533 0.000911092 0)
(-0.0803971 0.000920251 0)
(-0.0817555 0.00092952 0)
(-0.0831285 0.000938898 0)
(-0.0845162 0.000948385 0)
(-0.085919 0.00095798 0)
(-0.0873369 0.000967684 0)
(-0.0887702 0.000977494 0)
(-0.090219 0.000987411 0)
(-0.0916835 0.000997432 0)
(-0.0931639 0.00100756 0)
(-0.0946603 0.00101779 0)
(-0.096173 0.00102812 0)
(-0.097702 0.00103855 0)
(-0.0992476 0.00104908 0)
(-0.10081 0.00105971 0)
(-0.102389 0.00107044 0)
(-0.103985 0.00108127 0)
(-0.105599 0.00109218 0)
(-0.10723 0.0011032 0)
(-0.108878 0.0011143 0)
(-0.110545 0.00112549 0)
(-0.112229 0.00113677 0)
(-0.113931 0.00114814 0)
(-0.115651 0.00115959 0)
(-0.117389 0.00117112 0)
(-0.119147 0.00118273 0)
(-0.120922 0.00119443 0)
(-0.122716 0.00120619 0)
(-0.12453 0.00121803 0)
(-0.126362 0.00122994 0)
(-0.128213 0.00124193 0)
(-0.130084 0.00125397 0)
(-0.131974 0.00126608 0)
(-0.133884 0.00127825 0)
(-0.135813 0.00129048 0)
(-0.137762 0.00130277 0)
(-0.139731 0.0013151 0)
(-0.141719 0.00132748 0)
(-0.143728 0.00133991 0)
(-0.145757 0.00135238 0)
(-0.147806 0.00136489 0)
(-0.149876 0.00137743 0)
(-0.151966 0.00139001 0)
(-0.154076 0.00140261 0)
(-0.156207 0.00141524 0)
(-0.158358 0.00142788 0)
(-0.16053 0.00144054 0)
(-0.162723 0.00145321 0)
(-0.164936 0.00146589 0)
(-0.16717 0.00147856 0)
(-0.169425 0.00149124 0)
(-0.171701 0.0015039 0)
(-0.173997 0.00151655 0)
(-0.176315 0.00152919 0)
(-0.178653 0.0015418 0)
(-0.181012 0.00155438 0)
(-0.183392 0.00156692 0)
(-0.185792 0.00157943 0)
(-0.188213 0.00159189 0)
(-0.190655 0.0016043 0)
(-0.193118 0.00161665 0)
(-0.195601 0.00162893 0)
(-0.198104 0.00164114 0)
(-0.200628 0.00165327 0)
(-0.203172 0.00166532 0)
(-0.205736 0.00167728 0)
(-0.20832 0.00168914 0)
(-0.210925 0.00170088 0)
(-0.213548 0.00171252 0)
(-0.216192 0.00172403 0)
(-0.218855 0.00173541 0)
(-0.221537 0.00174666 0)
(-0.224239 0.00175776 0)
(-0.226959 0.0017687 0)
(-0.229698 0.00177948 0)
(-0.232455 0.00179009 0)
(-0.235231 0.00180051 0)
(-0.238024 0.00181075 0)
(-0.240835 0.00182078 0)
(-0.243663 0.00183061 0)
(-0.246509 0.00184021 0)
(-0.249371 0.00184959 0)
(-0.252249 0.00185873 0)
(-0.255144 0.00186762 0)
(-0.258054 0.00187624 0)
(-0.260979 0.0018846 0)
(-0.263919 0.00189268 0)
(-0.266874 0.00190046 0)
(-0.269843 0.00190795 0)
(-0.272825 0.00191511 0)
(-0.27582 0.00192195 0)
(-0.278827 0.00192845 0)
(-0.281847 0.00193461 0)
(-0.284878 0.0019404 0)
(-0.28792 0.00194581 0)
(-0.290973 0.00195085 0)
(-0.294035 0.00195548 0)
(-0.297106 0.0019597 0)
(-0.300186 0.0019635 0)
(-0.303273 0.00196686 0)
(-0.306368 0.00196978 0)
(-0.309469 0.00197223 0)
(-0.312576 0.00197421 0)
(-0.315688 0.00197569 0)
(-0.318804 0.00197668 0)
(-0.321923 0.00197715 0)
(-0.325045 0.00197709 0)
(-0.328169 0.00197648 0)
(-0.331293 0.00197532 0)
(-0.334418 0.00197358 0)
(-0.337541 0.00197126 0)
(-0.340663 0.00196833 0)
(-0.343782 0.00196479 0)
(-0.346897 0.00196062 0)
(-0.350007 0.00195581 0)
(-0.353112 0.00195034 0)
(-0.356209 0.00194419 0)
(-0.359299 0.00193735 0)
(-0.362379 0.00192982 0)
(-0.365449 0.00192156 0)
(-0.368508 0.00191257 0)
(-0.371554 0.00190283 0)
(-0.374586 0.00189233 0)
(-0.377603 0.00188106 0)
(-0.380604 0.00186899 0)
(-0.383587 0.00185611 0)
(-0.386551 0.0018424 0)
(-0.389494 0.00182786 0)
(-0.392416 0.00181247 0)
(-0.395315 0.00179621 0)
(-0.39819 0.00177907 0)
(-0.401038 0.00176103 0)
(-0.403859 0.00174209 0)
(-0.406651 0.00172221 0)
(-0.409412 0.0017014 0)
(-0.412142 0.00167963 0)
(-0.414837 0.00165689 0)
(-0.417498 0.00163317 0)
(-0.420121 0.00160846 0)
(-0.422706 0.00158273 0)
(-0.42525 0.00155599 0)
(-0.427753 0.0015282 0)
(-0.430212 0.00149936 0)
(-0.432625 0.00146947 0)
(-0.434991 0.00143849 0)
(-0.437308 0.00140643 0)
(-0.439574 0.00137327 0)
(-0.441788 0.00133899 0)
(-0.443946 0.0013036 0)
(-0.446048 0.00126706 0)
(-0.448092 0.00122938 0)
(-0.450075 0.00119053 0)
(-0.451996 0.00115052 0)
(-0.453852 0.00110933 0)
(-0.455641 0.00106695 0)
(-0.457363 0.00102337 0)
(-0.459013 0.000978584 0)
(-0.460591 0.000932582 0)
(-0.462095 0.000885355 0)
(-0.463521 0.000836893 0)
(-0.464869 0.000787189 0)
(-0.466135 0.000736236 0)
(-0.467318 0.000684027 0)
(-0.468415 0.000630556 0)
(-0.469425 0.000575816 0)
(-0.470345 0.000519804 0)
(-0.471173 0.000462516 0)
(-0.471907 0.000403952 0)
(-0.472543 0.000344114 0)
(-0.473081 0.00028301 0)
(-0.473518 0.000220658 0)
(-0.473851 0.000157103 0)
(-0.474079 9.24758e-05 0)
(-0.474199 2.75695e-05 0)
(-0.474208 -3.65786e-05 0)
(-0.474101 -0.000108507 0)
(-0.473883 -0.000177674 0)
(-0.473545 -0.000249572 0)
(-0.473089 -0.000322557 0)
(-0.47251 -0.000396643 0)
(-0.471807 -0.000472664 0)
(-0.470977 -0.00054932 0)
(-0.470018 -0.000627758 0)
(-0.468928 -0.000707468 0)
(-0.467704 -0.000788049 0)
(-0.466343 -0.000870292 0)
(-0.464845 -0.00095354 0)
(-0.463205 -0.00103823 0)
(-0.461423 -0.00112418 0)
(-0.459495 -0.00121115 0)
(-0.45742 -0.00129948 0)
(-0.455195 -0.00138884 0)
(-0.452819 -0.00147954 0)
(-0.450288 -0.00157137 0)
(-0.447601 -0.00166426 0)
(-0.444756 -0.00175832 0)
(-0.44175 -0.00185343 0)
(-0.438582 -0.00194973 0)
(-0.435249 -0.00204701 0)
(-0.43175 -0.0021454 0)
(-0.428082 -0.00224477 0)
(-0.424244 -0.00234506 0)
(-0.420233 -0.00244627 0)
(-0.416049 -0.00254836 0)
(-0.411688 -0.00265134 0)
(-0.40715 -0.00275507 0)
(-0.402433 -0.00285964 0)
(-0.397535 -0.00296492 0)
(-0.392455 -0.00307092 0)
(-0.387191 -0.00317752 0)
(-0.381743 -0.00328472 0)
(-0.376108 -0.00339243 0)
(-0.370287 -0.0035006 0)
(-0.364277 -0.00360917 0)
(-0.358079 -0.00371807 0)
(-0.35169 -0.00382726 0)
(-0.345111 -0.00393665 0)
(-0.338341 -0.00404619 0)
(-0.331378 -0.00415577 0)
(-0.324224 -0.00426533 0)
(-0.316878 -0.00437476 0)
(-0.309339 -0.00448398 0)
(-0.301609 -0.00459288 0)
(-0.293686 -0.00470135 0)
(-0.285573 -0.00480928 0)
(-0.277269 -0.00491653 0)
(-0.268776 -0.00502297 0)
(-0.260095 -0.00512845 0)
(-0.251227 -0.00523285 0)
(-0.242174 -0.005336 0)
(-0.232938 -0.00543778 0)
(-0.223521 -0.00553801 0)
(-0.213926 -0.00563652 0)
(-0.204156 -0.00573315 0)
(-0.194213 -0.00582771 0)
(-0.184101 -0.00591994 0)
(-0.173825 -0.00600966 0)
(-0.163388 -0.00609674 0)
(-0.152795 -0.006181 0)
(-0.142051 -0.00626213 0)
(-0.131161 -0.0063399 0)
(-0.120132 -0.00641409 0)
(-0.108968 -0.0064845 0)
(-0.0976776 -0.00655097 0)
(-0.0862668 -0.00661313 0)
(-0.0747436 -0.00667065 0)
(-0.0631153 -0.00672295 0)
(-0.0513871 -0.00676939 0)
(-0.0395918 -0.00681383 0)
(-0.0276946 -0.00685696 0)
(-0.0157173 -0.00689357 0)
(-0.00367808 -0.00692298 0)
(0.008416 -0.00694646 0)
(0.0205549 -0.00696468 0)
(0.032726 -0.00697889 0)
(0.0449285 -0.00698851 0)
(0.0571677 -0.00698826 0)
(0.0693862 -0.00698049 0)
(0.0815975 -0.00696697 0)
(0.0937903 -0.00694791 0)
(0.105955 -0.00692362 0)
(0.118082 -0.00689416 0)
(0.130161 -0.00685942 0)
(0.142183 -0.00681954 0)
(0.154141 -0.00677481 0)
(0.166024 -0.00672529 0)
(0.177825 -0.00667111 0)
(0.189536 -0.00661236 0)
(0.201155 -0.00655068 0)
(0.212668 -0.00648759 0)
(0.224065 -0.00641786 0)
(0.235348 -0.0063446 0)
(0.246511 -0.0062688 0)
(0.257545 -0.00619029 0)
(0.268446 -0.0061091 0)
(0.27921 -0.00602545 0)
(0.289832 -0.00593957 0)
(0.300309 -0.00585155 0)
(0.310636 -0.0057615 0)
(0.320809 -0.00566967 0)
(0.330826 -0.00557609 0)
(0.340683 -0.00548078 0)
(0.350377 -0.00538383 0)
(0.359904 -0.00528527 0)
(0.369262 -0.00518506 0)
(0.378448 -0.00508319 0)
(0.387457 -0.00497967 0)
(0.396288 -0.00487447 0)
(0.404937 -0.00476731 0)
(0.413399 -0.00465825 0)
(0.421672 -0.00454735 0)
(0.429751 -0.00443446 0)
(0.437633 -0.00431934 0)
(0.445314 -0.00420184 0)
(0.452788 -0.00408199 0)
(0.460051 -0.00395978 0)
(0.467098 -0.00383503 0)
(0.473926 -0.00370744 0)
(0.480527 -0.00357688 0)
(0.486897 -0.00344342 0)
(0.49303 -0.00330698 0)
(0.49892 -0.0031674 0)
(0.504561 -0.00302443 0)
(0.509946 -0.00287792 0)
(0.515069 -0.00272777 0)
(0.519922 -0.00257393 0)
(0.524498 -0.00241628 0)
(0.52879 -0.00225452 0)
(0.53279 -0.00208841 0)
(0.53649 -0.00191773 0)
(0.53988 -0.00174249 0)
(0.542952 -0.00156272 0)
(0.545697 -0.00137818 0)
(0.548105 -0.0011887 0)
(0.550168 -0.000993963 0)
(0.551874 -0.000794194 0)
(0.553214 -0.000589628 0)
(0.554178 -0.000380724 0)
(0.554757 -0.000167636 0)
(0.554944 4.00845e-05 0)
(0.554714 0.000271649 0)
(0.554074 0.00050177 0)
(0.553006 0.000734127 0)
(0.551507 0.000972529 0)
(0.549566 0.00121793 0)
(0.547174 0.00146515 0)
(0.544325 0.00171597 0)
(0.54101 0.00197005 0)
(0.537225 0.00222682 0)
(0.532963 0.00248587 0)
(0.52822 0.0027467 0)
(0.522992 0.0030092 0)
(0.517276 0.00327218 0)
(0.511071 0.00353506 0)
(0.504376 0.00379722 0)
(0.497194 0.00405825 0)
(0.489526 0.00431756 0)
(0.481374 0.00457422 0)
(0.472743 0.00482742 0)
(0.463639 0.00507672 0)
(0.45407 0.00532137 0)
(0.444045 0.00556063 0)
(0.433572 0.00579406 0)
(0.422663 0.0060205 0)
(0.411331 0.00623939 0)
(0.399589 0.00645017 0)
(0.387453 0.00665191 0)
(0.37494 0.00684364 0)
(0.362069 0.00702483 0)
(0.348858 0.00719515 0)
(0.335329 0.00735358 0)
(0.321504 0.00749868 0)
(0.307407 0.00763114 0)
(0.29306 0.00775107 0)
(0.27849 0.00785722 0)
(0.263724 0.00794798 0)
(0.248791 0.00802348 0)
(0.23372 0.00808316 0)
(0.218541 0.00812636 0)
(0.203281 0.00815312 0)
(0.187974 0.00816327 0)
(0.172652 0.00815642 0)
(0.157347 0.00813257 0)
(0.142093 0.008091 0)
(0.126926 0.0080308 0)
(0.111879 0.00795294 0)
(0.0969828 0.00785831 0)
(0.0822726 0.0077453 0)
(0.0677834 0.00761465 0)
(0.0535428 0.0074666 0)
(0.0396041 0.00730268 0)
(0.0259816 0.00712555 0)
(0.0126846 0.00692982 0)
(-0.00026049 0.00671867 0)
(-0.0127728 0.00648895 0)
(-0.0248086 0.00625232 0)
(-0.0364718 0.00599202 0)
(-0.0475941 0.00573589 0)
(-0.0581589 0.00544434 0)
(-0.0682158 0.00514604 0)
(-0.0777539 0.00483572 0)
(-0.0866736 0.00454107 0)
(-0.0949596 0.00421356 0)
(-0.102674 0.00388273 0)
(-0.109802 0.00354593 0)
(-0.116268 0.00322625 0)
(-0.122066 0.00287936 0)
(-0.127251 0.00253718 0)
(-0.131798 0.00220077 0)
(-0.135684 0.00185357 0)
(-0.13892 0.001517 0)
(-0.141539 0.0011814 0)
(-0.143509 0.000862284 0)
(-0.144831 0.000525904 0)
(-0.145538 0.000206967 0)
(-0.145647 -0.000105197 0)
(-0.145166 -0.000414415 0)
(-0.144103 -0.00070697 0)
(-0.14246 -0.000991758 0)
(-0.140261 -0.00127487 0)
(-0.137539 -0.00154643 0)
(-0.134317 -0.00180344 0)
(-0.130576 -0.00203939 0)
(-0.126355 -0.00228331 0)
(-0.121711 -0.00250775 0)
(-0.11662 -0.00270883 0)
(-0.111109 -0.00291162 0)
(-0.105224 -0.00309977 0)
(-0.0989748 -0.00327585 0)
(-0.0923886 -0.00343781 0)
(-0.0854894 -0.0035871 0)
(-0.0783014 -0.00372396 0)
(-0.0708515 -0.00384824 0)
(-0.0631643 -0.00396007 0)
(-0.0552634 -0.0040622 0)
(-0.0471766 -0.0041462 0)
(-0.0389217 -0.00421493 0)
(-0.0305338 -0.00427621 0)
(-0.0220392 -0.00432862 0)
(-0.013457 -0.00436571 0)
(-0.0048039 -0.00438623 0)
(0.00389923 -0.00439444 0)
(0.0126035 -0.00439312 0)
(0.0212868 -0.00437274 0)
(0.0299285 -0.00435375 0)
(0.0385044 -0.00429581 0)
(0.0470016 -0.00423915 0)
(0.0553809 -0.00418209 0)
(0.0636051 -0.00410143 0)
(0.0716757 -0.00400978 0)
(0.0795574 -0.00390804 0)
(0.0872485 -0.00379169 0)
(0.0947362 -0.00367134 0)
(0.101964 -0.00355183 0)
(0.108918 -0.00341556 0)
(0.115614 -0.00327381 0)
(0.122028 -0.00312374 0)
(0.128144 -0.00297013 0)
(0.133943 -0.00280939 0)
(0.139413 -0.00264893 0)
(0.144552 -0.00248563 0)
(0.149355 -0.00231883 0)
(0.153812 -0.00215287 0)
(0.157907 -0.00197424 0)
(0.161638 -0.00179833 0)
(0.164997 -0.00162293 0)
(0.16799 -0.00143392 0)
(0.170595 -0.00125596 0)
(0.172807 -0.00107045 0)
(0.174645 -0.000881529 0)
(0.176096 -0.000691754 0)
(0.177157 -0.000499968 0)
(0.177831 -0.000306193 0)
(0.178122 -0.000114621 0)
(0.178027 7.56264e-05 0)
(0.17755 0.000261191 0)
(0.176704 0.000440793 0)
(0.175498 0.000614624 0)
(0.173954 0.000786413 0)
(0.17209 0.000950981 0)
(0.169915 0.00110589 0)
(0.167441 0.00126019 0)
(0.164685 0.00140401 0)
(0.161667 0.00153817 0)
(0.158413 0.00167207 0)
(0.154943 0.00178992 0)
(0.151272 0.0018983 0)
(0.147427 0.00199646 0)
(0.14342 0.00208071 0)
(0.139268 0.00216026 0)
(0.134983 0.00222279 0)
(0.130582 0.00227012 0)
(0.126086 0.00230704 0)
(0.121515 0.00234052 0)
(0.1169 0.00236499 0)
(0.112259 0.00237982 0)
(0.107603 0.00238299 0)
(0.10294 0.00237073 0)
(0.0982746 0.00235299 0)
(0.0936206 0.00233602 0)
(0.0889932 0.00231823 0)
(0.0844117 0.0023073 0)
(0.0798731 0.00228393 0)
(0.0753769 0.00225506 0)
(0.0709439 0.00222401 0)
(0.066562 0.00219288 0)
(0.062225 0.00216413 0)
(0.05793 0.00214373 0)
(0.0536654 0.00213163 0)
(0.0494196 0.00212625 0)
(0.0451813 0.00213724 0)
(0.0409284 0.00218276 0)
(0.036613 0.00227492 0)
(0.0321462 0.00242492 0)
(0.0275333 0.0026525 0)
(0.0227415 0.00262724 0)
(0.017032 0.00208337 0)
(0.0124855 0.00108164 0)
(0.0109461 -0.000331869 0)
(0.0104659 0.00129533 0)
(0.00520309 0.00249664 0)
(0.000594634 0.00281021 0)
(-0.00569614 0.00169783 0)
(-0.00680616 -0.000235704 0)
(-0.00781621 0.000888251 0)
(-0.0126585 0.00216656 0)
(-0.0183415 0.0026563 0)
(-0.0236478 0.00279215 0)
(-0.0286538 0.00260858 0)
(-0.0335482 0.00246409 0)
(-0.0383219 0.00237096 0)
(-0.0430428 0.00232405 0)
(-0.0477435 0.00230782 0)
(-0.0524288 0.00230655 0)
(-0.0571255 0.00230953 0)
(-0.06186 0.00232602 0)
(-0.0666312 0.00234911 0)
(-0.0714306 0.0023747 0)
(-0.0762588 0.00239548 0)
(-0.0811214 0.00240565 0)
(-0.086012 0.0024126 0)
(-0.0909321 0.00241574 0)
(-0.0958728 0.00241771 0)
(-0.100826 0.00242976 0)
(-0.10578 0.00244884 0)
(-0.110709 0.00245122 0)
(-0.115612 0.00242882 0)
(-0.120482 0.00240349 0)
(-0.125301 0.00236945 0)
(-0.130055 0.00232575 0)
(-0.13472 0.00228223 0)
(-0.139274 0.00222235 0)
(-0.143705 0.00215254 0)
(-0.14799 0.00207298 0)
(-0.152106 0.00196887 0)
(-0.156032 0.00184465 0)
(-0.159743 0.00171903 0)
(-0.163212 0.00158379 0)
(-0.166414 0.00143198 0)
(-0.169329 0.00126613 0)
(-0.171934 0.00110534 0)
(-0.174208 0.000931545 0)
(-0.176127 0.000750598 0)
(-0.177663 0.000560752 0)
(-0.178802 0.000362383 0)
(-0.179519 0.000163001 0)
(-0.179805 -4.9083e-05 0)
(-0.179643 -0.000259326 0)
(-0.179019 -0.000470185 0)
(-0.177935 -0.000683725 0)
(-0.176381 -0.000899867 0)
(-0.174364 -0.00110831 0)
(-0.171881 -0.00131066 0)
(-0.168935 -0.00151502 0)
(-0.165545 -0.00171914 0)
(-0.161677 -0.00190243 0)
(-0.157371 -0.00210348 0)
(-0.152662 -0.00229488 0)
(-0.147491 -0.00247212 0)
(-0.141877 -0.00267488 0)
(-0.135864 -0.00284991 0)
(-0.129438 -0.00302646 0)
(-0.122615 -0.00319444 0)
(-0.115417 -0.00336244 0)
(-0.107862 -0.00351852 0)
(-0.099959 -0.00367657 0)
(-0.0917265 -0.00380739 0)
(-0.0832038 -0.00394074 0)
(-0.0744076 -0.00406983 0)
(-0.0653826 -0.00417732 0)
(-0.056119 -0.00425304 0)
(-0.0466585 -0.0043383 0)
(-0.037058 -0.00440478 0)
(-0.0273275 -0.00444443 0)
(-0.0175183 -0.00447414 0)
(-0.00765317 -0.00448809 0)
(0.00224577 -0.00448129 0)
(0.0121351 -0.00446165 0)
(0.0219349 -0.00441786 0)
(0.0316119 -0.00436202 0)
(0.0411539 -0.00429419 0)
(0.050572 -0.0042125 0)
(0.0598007 -0.00410934 0)
(0.0687875 -0.0039894 0)
(0.0774892 -0.00385289 0)
(0.0858692 -0.00369974 0)
(0.0938984 -0.00353063 0)
(0.101545 -0.00334866 0)
(0.108772 -0.0031509 0)
(0.115543 -0.00293422 0)
(0.121816 -0.00270335 0)
(0.127562 -0.0024548 0)
(0.132757 -0.00219406 0)
(0.137349 -0.00193459 0)
(0.1413 -0.00165643 0)
(0.144602 -0.00133565 0)
(0.147218 -0.00101665 0)
(0.149121 -0.000688649 0)
(0.150264 -0.00036102 0)
(0.150614 1.49723e-05 0)
(0.150204 0.000381229 0)
(0.14897 0.000729868 0)
(0.146871 0.00111486 0)
(0.143951 0.00149867 0)
(0.140158 0.00189743 0)
(0.13552 0.0023007 0)
(0.129972 0.00267497 0)
(0.123498 0.00308279 0)
(0.116214 0.00347759 0)
(0.108017 0.00386052 0)
(0.0989281 0.00424486 0)
(0.0890698 0.00461723 0)
(0.0783401 0.00498592 0)
(0.0667756 0.00534349 0)
(0.0544603 0.00567654 0)
(0.0413638 0.00600707 0)
(0.027608 0.00631472 0)
(0.0131828 0.00655749 0)
(-0.00194374 0.00683471 0)
(-0.01759 0.0070804 0)
(-0.0337622 0.00729314 0)
(-0.0503676 0.00748334 0)
(-0.0674031 0.00765652 0)
(-0.0848287 0.00780375 0)
(-0.102555 0.0079219 0)
(-0.12053 0.00801713 0)
(-0.1387 0.00808562 0)
(-0.157012 0.0081279 0)
(-0.175408 0.00814412 0)
(-0.193823 0.00813653 0)
(-0.212196 0.00810355 0)
(-0.230472 0.00804583 0)
(-0.248602 0.00796377 0)
(-0.266531 0.00785784 0)
(-0.284206 0.00773126 0)
(-0.301579 0.00758391 0)
(-0.318599 0.00741496 0)
(-0.335216 0.00722683 0)
(-0.35139 0.00702217 0)
(-0.367088 0.00680069 0)
(-0.382276 0.00656425 0)
(-0.396919 0.00631525 0)
(-0.410986 0.00605588 0)
(-0.424443 0.00578414 0)
(-0.437266 0.00549959 0)
(-0.449437 0.00520543 0)
(-0.46094 0.00490538 0)
(-0.471758 0.00459941 0)
(-0.48188 0.00429068 0)
(-0.491299 0.00398111 0)
(-0.500005 0.00366859 0)
(-0.507989 0.00335323 0)
(-0.515248 0.00303749 0)
(-0.521784 0.00272239 0)
(-0.527602 0.00240836 0)
(-0.532705 0.00209681 0)
(-0.537102 0.00178873 0)
(-0.540802 0.00148409 0)
(-0.54381 0.00118245 0)
(-0.546128 0.000885434 0)
(-0.547769 0.000596328 0)
(-0.548745 0.000314847 0)
(-0.549072 2.4877e-05 0)
(-0.54874 -0.000239463 0)
(-0.547787 -0.000507952 0)
(-0.546216 -0.000771679 0)
(-0.544038 -0.00103013 0)
(-0.541264 -0.00128299 0)
(-0.537907 -0.00152987 0)
(-0.533984 -0.00177105 0)
(-0.529505 -0.00200686 0)
(-0.524481 -0.00223746 0)
(-0.518927 -0.00246154 0)
(-0.512857 -0.00267858 0)
(-0.506282 -0.0028892 0)
(-0.499219 -0.00309366 0)
(-0.491685 -0.00329117 0)
(-0.483695 -0.00348158 0)
(-0.475266 -0.00366498 0)
(-0.46641 -0.00384153 0)
(-0.457143 -0.00401159 0)
(-0.447479 -0.00417476 0)
(-0.437435 -0.00433058 0)
(-0.427029 -0.0044789 0)
(-0.416277 -0.00462067 0)
(-0.405191 -0.00475619 0)
(-0.39379 -0.00488461 0)
(-0.382091 -0.00500551 0)
(-0.370111 -0.00511938 0)
(-0.357863 -0.00522679 0)
(-0.345362 -0.0053267 0)
(-0.332626 -0.0054197 0)
(-0.319667 -0.00550897 0)
(-0.306496 -0.00559239 0)
(-0.293128 -0.00567018 0)
(-0.279574 -0.0057437 0)
(-0.265841 -0.00581364 0)
(-0.251941 -0.00587875 0)
(-0.237885 -0.00593698 0)
(-0.223688 -0.00598914 0)
(-0.20936 -0.00603957 0)
(-0.19491 -0.00608509 0)
(-0.180348 -0.00612641 0)
(-0.165683 -0.00616387 0)
(-0.150925 -0.00619784 0)
(-0.13609 -0.00622804 0)
(-0.121172 -0.00624799 0)
(-0.106184 -0.00627063 0)
(-0.0911506 -0.00628707 0)
(-0.0760805 -0.0063007 0)
(-0.0609594 -0.0063074 0)
(-0.0458207 -0.00630288 0)
(-0.0307221 -0.00629324 0)
(-0.0156235 -0.00627831 0)
(-0.000545911 -0.00625893 0)
(0.01449 -0.00623891 0)
(0.0294763 -0.00621006 0)
(0.0444007 -0.00617023 0)
(0.0592004 -0.00612767 0)
(0.0739291 -0.00608536 0)
(0.0885617 -0.00603716 0)
(0.103074 -0.00598128 0)
(0.117451 -0.00591834 0)
(0.131677 -0.00584861 0)
(0.145733 -0.00577256 0)
(0.159607 -0.0056909 0)
(0.173285 -0.00560422 0)
(0.186755 -0.0055119 0)
(0.200003 -0.00541393 0)
(0.213014 -0.00531097 0)
(0.225776 -0.0052026 0)
(0.238275 -0.00508966 0)
(0.250502 -0.0049725 0)
(0.262445 -0.00485125 0)
(0.274096 -0.00472627 0)
(0.285444 -0.00459822 0)
(0.296483 -0.00446773 0)
(0.307208 -0.00433474 0)
(0.317611 -0.00420014 0)
(0.32769 -0.00406376 0)
(0.337439 -0.00392577 0)
(0.346855 -0.00378652 0)
(0.355934 -0.00364628 0)
(0.364674 -0.00350568 0)
(0.373074 -0.00336466 0)
(0.381134 -0.00322335 0)
(0.388851 -0.00308206 0)
(0.396226 -0.00294116 0)
(0.40326 -0.00280018 0)
(0.40995 -0.0026593 0)
(0.416297 -0.00251872 0)
(0.422303 -0.00237857 0)
(0.427968 -0.00223893 0)
(0.433293 -0.00210015 0)
(0.43828 -0.00196229 0)
(0.44293 -0.00182505 0)
(0.447244 -0.00168832 0)
(0.451223 -0.00155279 0)
(0.454871 -0.00141832 0)
(0.45819 -0.00128463 0)
(0.461181 -0.00115298 0)
(0.463849 -0.00102282 0)
(0.466198 -0.000894082 0)
(0.468231 -0.000767634 0)
(0.469953 -0.000642779 0)
(0.47137 -0.000519998 0)
(0.472485 -0.000400129 0)
(0.473305 -0.000282767 0)
(0.473835 -0.000167377 0)
(0.474084 -5.25925e-05 0)
(0.474052 5.38271e-05 0)
(0.473752 0.000159774 0)
(0.47319 0.00026339 0)
(0.472372 0.000363825 0)
(0.471306 0.00046112 0)
(0.470001 0.00055533 0)
(0.468462 0.000646408 0)
(0.466699 0.000734171 0)
(0.46472 0.000818769 0)
(0.462531 0.000900151 0)
(0.460141 0.000977948 0)
(0.457558 0.00105245 0)
(0.454791 0.00112389 0)
(0.451847 0.00119217 0)
(0.448733 0.00125728 0)
(0.445458 0.00131934 0)
(0.442028 0.00137805 0)
(0.438452 0.00143354 0)
(0.434738 0.00148608 0)
(0.430892 0.00153586 0)
(0.426922 0.00158279 0)
(0.422834 0.00162696 0)
(0.418636 0.00166834 0)
(0.414334 0.00170683 0)
(0.409935 0.00174274 0)
(0.405446 0.00177605 0)
(0.400872 0.00180682 0)
(0.39622 0.00183519 0)
(0.391496 0.00186123 0)
(0.386707 0.00188482 0)
(0.381857 0.00190609 0)
(0.376953 0.00192518 0)
(0.372 0.00194219 0)
(0.367003 0.00195714 0)
(0.361967 0.0019701 0)
(0.356897 0.00198115 0)
(0.351798 0.0019903 0)
(0.346675 0.0019976 0)
(0.341532 0.00200313 0)
(0.336373 0.00200698 0)
(0.331204 0.00200921 0)
(0.326027 0.00200991 0)
(0.320847 0.00200912 0)
(0.315667 0.00200691 0)
(0.310492 0.0020033 0)
(0.305324 0.00199836 0)
(0.300168 0.00199213 0)
(0.295025 0.00198468 0)
(0.2899 0.00197607 0)
(0.284795 0.00196637 0)
(0.279713 0.00195565 0)
(0.274656 0.00194395 0)
(0.269628 0.00193131 0)
(0.264631 0.00191777 0)
(0.259666 0.00190339 0)
(0.254736 0.0018882 0)
(0.249843 0.00187227 0)
(0.244989 0.00185563 0)
(0.240176 0.00183834 0)
(0.235406 0.00182044 0)
(0.23068 0.00180197 0)
(0.225999 0.00178297 0)
(0.221365 0.0017635 0)
(0.21678 0.00174359 0)
(0.212244 0.00172328 0)
(0.207758 0.0017026 0)
(0.203324 0.0016816 0)
(0.198943 0.00166029 0)
(0.194614 0.00163873 0)
(0.190339 0.00161694 0)
(0.186119 0.00159495 0)
(0.181954 0.0015728 0)
(0.177844 0.00155051 0)
(0.173791 0.00152812 0)
(0.169793 0.00150564 0)
(0.165852 0.00148311 0)
(0.161968 0.00146056 0)
(0.158141 0.001438 0)
(0.15437 0.00141547 0)
(0.150656 0.00139298 0)
(0.147 0.00137055 0)
(0.143399 0.00134821 0)
(0.139856 0.00132597 0)
(0.136368 0.00130386 0)
(0.132937 0.00128189 0)
(0.129561 0.00126008 0)
(0.126241 0.00123845 0)
(0.122975 0.001217 0)
(0.119764 0.00119577 0)
(0.116607 0.00117475 0)
(0.113504 0.00115397 0)
(0.110453 0.00113343 0)
(0.107455 0.00111314 0)
(0.104508 0.00109313 0)
(0.101613 0.00107339 0)
(0.0987676 0.00105395 0)
(0.095972 0.0010348 0)
(0.0932252 0.00101596 0)
(0.0905267 0.000997435 0)
(0.0878754 0.000979232 0)
(0.0852707 0.000961358 0)
(0.0827117 0.000943822 0)
(0.0801976 0.00092663 0)
(0.0777275 0.000909785 0)
(0.0753005 0.000893291 0)
(0.0729157 0.000877154 0)
(0.0705722 0.000861379 0)
(0.0682692 0.000845972 0)
(0.0660056 0.000830936 0)
(0.0637805 0.000816273 0)
(0.0615929 0.000801987 0)
(0.059442 0.000788079 0)
(0.0573267 0.000774553 0)
(0.0552459 0.000761411 0)
(0.0531989 0.000748655 0)
(0.0511844 0.000736287 0)
(0.0492016 0.000724309 0)
(0.0472494 0.00071272 0)
(0.0453267 0.000701523 0)
(0.0434327 0.000690719 0)
(0.0415662 0.000680309 0)
(0.0397262 0.000670294 0)
(0.0379116 0.000660673 0)
(0.0361215 0.000651449 0)
(0.0343547 0.000642621 0)
(0.0326103 0.000634191 0)
(0.0308872 0.000626157 0)
(0.0291842 0.000618522 0)
(0.0275005 0.000611285 0)
(0.0258348 0.000604447 0)
(0.0241861 0.000598008 0)
(0.0225534 0.000591967 0)
(0.0209356 0.000586326 0)
(0.0193316 0.000581083 0)
(0.0177404 0.000576239 0)
(0.0161607 0.000571794 0)
(0.0145917 0.000567749 0)
(0.0130321 0.000564106 0)
(0.0114809 0.000560864 0)
(0.00993708 0.000558016 0)
(0.00839949 0.000555535 0)
(0.0068666 0.000553314 0)
(0.00533973 0.00055174 0)
(0.00381484 0.000551184 0)
(0.0022857 0.000550479 0)
(0.000762338 0.000549924 0)
(-0.000296969 0.00165056 0)
(-0.00102613 0.00168185 0)
(-0.00184235 0.0016426 0)
(-0.00261802 0.0016297 0)
(-0.00338957 0.00162289 0)
(-0.00414944 0.00161692 0)
(-0.00490636 0.00161427 0)
(-0.0056611 0.00161431 0)
(-0.00641646 0.00161656 0)
(-0.00717296 0.00162021 0)
(-0.00793133 0.00162523 0)
(-0.00869186 0.00163049 0)
(-0.00945476 0.00163597 0)
(-0.0102202 0.00164192 0)
(-0.0109883 0.00164829 0)
(-0.0117592 0.0016546 0)
(-0.0125332 0.00166096 0)
(-0.0133103 0.00166733 0)
(-0.0140908 0.00167393 0)
(-0.0148746 0.00168014 0)
(-0.015662 0.00168675 0)
(-0.016453 0.00169343 0)
(-0.0172477 0.00170015 0)
(-0.0180463 0.00170723 0)
(-0.018849 0.00171442 0)
(-0.0196557 0.00172177 0)
(-0.0204667 0.00172954 0)
(-0.0212821 0.00173768 0)
(-0.022102 0.00174587 0)
(-0.0229266 0.00175452 0)
(-0.023756 0.00176353 0)
(-0.0245904 0.00177288 0)
(-0.0254299 0.00178258 0)
(-0.0262748 0.00179264 0)
(-0.0271251 0.00180305 0)
(-0.027981 0.00181382 0)
(-0.0288427 0.00182494 0)
(-0.0297103 0.00183641 0)
(-0.0305841 0.00184824 0)
(-0.0314642 0.00186042 0)
(-0.0323507 0.00187295 0)
(-0.0332439 0.00188582 0)
(-0.0341438 0.00189902 0)
(-0.0350507 0.00191257 0)
(-0.0359648 0.00192645 0)
(-0.0368862 0.00194067 0)
(-0.037815 0.00195522 0)
(-0.0387515 0.0019701 0)
(-0.0396958 0.00198532 0)
(-0.0406481 0.00200086 0)
(-0.0416086 0.00201674 0)
(-0.0425774 0.00203294 0)
(-0.0435547 0.00204949 0)
(-0.0445407 0.00206636 0)
(-0.0455355 0.00208358 0)
(-0.0465394 0.00210113 0)
(-0.0475525 0.00211902 0)
(-0.0485749 0.00213725 0)
(-0.0496069 0.00215582 0)
(-0.0506486 0.00217473 0)
(-0.0517002 0.00219398 0)
(-0.0527619 0.00221358 0)
(-0.0538339 0.00223352 0)
(-0.0549163 0.0022538 0)
(-0.0560094 0.00227443 0)
(-0.0571132 0.0022954 0)
(-0.058228 0.00231671 0)
(-0.059354 0.00233837 0)
(-0.0604914 0.00236037 0)
(-0.0616402 0.00238271 0)
(-0.0628008 0.0024054 0)
(-0.0639733 0.00242843 0)
(-0.0651578 0.0024518 0)
(-0.0663546 0.00247552 0)
(-0.0675638 0.00249958 0)
(-0.0687857 0.00252398 0)
(-0.0700203 0.00254872 0)
(-0.071268 0.0025738 0)
(-0.0725288 0.00259922 0)
(-0.073803 0.00262498 0)
(-0.0750907 0.00265109 0)
(-0.0763921 0.00267752 0)
(-0.0777075 0.0027043 0)
(-0.0790369 0.0027314 0)
(-0.0803806 0.00275884 0)
(-0.0817387 0.0027866 0)
(-0.0831115 0.0028147 0)
(-0.0844991 0.00284312 0)
(-0.0859017 0.00287186 0)
(-0.0873194 0.00290093 0)
(-0.0887525 0.00293031 0)
(-0.0902011 0.00296002 0)
(-0.0916654 0.00299004 0)
(-0.0931456 0.00302037 0)
(-0.0946418 0.00305101 0)
(-0.0961543 0.00308196 0)
(-0.0976831 0.00311321 0)
(-0.0992285 0.00314476 0)
(-0.100791 0.0031766 0)
(-0.10237 0.00320873 0)
(-0.103966 0.00324115 0)
(-0.105579 0.00327385 0)
(-0.10721 0.00330683 0)
(-0.108858 0.00334009 0)
(-0.110524 0.00337361 0)
(-0.112208 0.00340739 0)
(-0.11391 0.00344144 0)
(-0.11563 0.00347574 0)
(-0.117368 0.00351028 0)
(-0.119125 0.00354506 0)
(-0.120901 0.00358007 0)
(-0.122695 0.00361532 0)
(-0.124508 0.00365078 0)
(-0.12634 0.00368645 0)
(-0.128191 0.00372233 0)
(-0.130062 0.00375841 0)
(-0.131952 0.00379468 0)
(-0.133861 0.00383113 0)
(-0.13579 0.00386775 0)
(-0.137739 0.00390454 0)
(-0.139708 0.00394148 0)
(-0.141696 0.00397856 0)
(-0.143705 0.00401578 0)
(-0.145734 0.00405313 0)
(-0.147783 0.00409059 0)
(-0.149852 0.00412815 0)
(-0.151942 0.00416581 0)
(-0.154052 0.00420355 0)
(-0.156183 0.00424136 0)
(-0.158334 0.00427923 0)
(-0.160506 0.00431714 0)
(-0.162698 0.00435508 0)
(-0.164912 0.00439304 0)
(-0.167146 0.00443101 0)
(-0.169401 0.00446896 0)
(-0.171676 0.00450689 0)
(-0.173973 0.00454478 0)
(-0.17629 0.00458261 0)
(-0.178628 0.00462038 0)
(-0.180987 0.00465805 0)
(-0.183367 0.00469563 0)
(-0.185767 0.00473308 0)
(-0.188188 0.00477039 0)
(-0.19063 0.00480755 0)
(-0.193093 0.00484454 0)
(-0.195576 0.00488133 0)
(-0.198079 0.0049179 0)
(-0.200603 0.00495425 0)
(-0.203147 0.00499034 0)