/*--------------------------------*- C++ -*----------------------------------*\
| =========                 |                                                 |
| \\      /  F ield         | OpenFOAM: The Open Source CFD Toolbox           |
|  \\    /   O peration     | Version:  2412                                  |
|   \\  /    A nd           | Website:  www.openfoam.com                      |
|    \\/     M anipulation  |                                                 |
\*---------------------------------------------------------------------------*/
FoamFile
{
    version     2.0;
    format      ascii;
    arch        "LSB;label=32;scalar=64";
    class       surfaceScalarField;
    location    "6.15";
    object      alphaPhi0.gasoline;
}
// * * * * * * * * * * * * * * * * * * * * * * * * * * * * * * * * * * * * * //

dimensions      [0 3 -1 0 0 0 0];

oriented        oriented;

internalField   nonuniform List<scalar> 
12640
(
5.65335e-06
-5.6533e-06
1.34375e-05
-7.80705e-06
2.26793e-05
-9.24191e-06
3.19051e-05
-9.22196e-06
4.01283e-05
-8.22121e-06
4.68455e-05
-6.71702e-06
5.18439e-05
-4.99889e-06
5.50002e-05
-3.15674e-06
5.63347e-05
-1.33482e-06
5.59027e-05
4.31632e-07
5.37865e-05
2.11594e-06
5.01041e-05
3.68217e-06
4.4968e-05
5.13606e-06
3.84928e-05
6.47523e-06
3.08335e-05
7.65951e-06
2.20615e-05
8.77224e-06
1.2342e-05
9.71979e-06
1.96356e-06
1.03787e-05
-9.09991e-06
1.10637e-05
-2.06591e-05
1.15592e-05
-3.25054e-05
1.18463e-05
-4.43906e-05
1.18851e-05
-5.60454e-05
1.16544e-05
-6.71731e-05
1.11271e-05
-7.74756e-05
1.03017e-05
-8.6631e-05
9.15445e-06
-9.43119e-05
7.68001e-06
-0.00010025
5.93694e-06
-0.000104208
3.95745e-06
-0.000105901
1.69237e-06
-0.000105284
-6.17521e-07
-0.000102178
-3.10662e-06
-9.65715e-05
-5.60598e-06
-8.8491e-05
-8.08e-06
-7.80774e-05
-1.0413e-05
-6.55704e-05
-1.25062e-05
-5.1266e-05
-1.43038e-05
-3.55284e-05
-1.57374e-05
-1.88031e-05
-1.6725e-05
-1.57308e-06
-1.72298e-05
1.56391e-05
-1.72117e-05
3.2333e-05
-1.66931e-05
4.79916e-05
-1.56575e-05
6.21783e-05
-1.41858e-05
7.45001e-05
-1.23208e-05
8.46404e-05
-1.01391e-05
9.23675e-05
-7.72631e-06
9.75854e-05
-5.21735e-06
0.000100255
-2.6688e-06
0.000100391
-1.34727e-07
9.81526e-05
2.23875e-06
9.36422e-05
4.51136e-06
8.71255e-05
6.51751e-06
7.88852e-05
8.24075e-06
6.92123e-05
9.67298e-06
5.84587e-05
1.07539e-05
4.69464e-05
1.15127e-05
3.49913e-05
1.1955e-05
2.29058e-05
1.20862e-05
1.09649e-05
1.19416e-05
-5.79321e-07
1.15435e-05
-1.14946e-05
1.09157e-05
-2.17769e-05
1.02843e-05
-3.11538e-05
9.37839e-06
-3.95323e-05
8.37911e-06
-4.67419e-05
7.21026e-06
-5.27202e-05
5.97896e-06
-5.73246e-05
4.60482e-06
-6.04133e-05
3.08851e-06
-6.19621e-05
1.54817e-06
-6.17795e-05
-1.83194e-07
-5.98415e-05
-1.93806e-06
-5.60473e-05
-3.79435e-06
-5.04123e-05
-5.63509e-06
-4.29726e-05
-7.44018e-06
-3.40373e-05
-8.93542e-06
-2.41309e-05
-9.90675e-06
-1.42804e-05
-9.85126e-06
-6.00855e-06
-8.27276e-06
-6.009e-06
5.79519e-06
-1.14255e-05
1.58831e-05
-1.7895e-05
2.9019e-05
-2.23811e-05
4.22986e-05
-2.25032e-05
5.406e-05
-1.9983e-05
6.35044e-05
-1.61613e-05
7.02565e-05
-1.17513e-05
7.42787e-05
-7.17934e-06
7.56255e-05
-2.68202e-06
7.45475e-05
1.50916e-06
7.13029e-05
5.36023e-06
6.61908e-05
8.79423e-06
5.94794e-05
1.18477e-05
5.12878e-05
1.46672e-05
4.1752e-05
1.71957e-05
3.11317e-05
1.9393e-05
1.95595e-05
2.12922e-05
7.00696e-06
2.29314e-05
-6.10158e-06
2.41723e-05
-1.96066e-05
2.50641e-05
-3.32384e-05
2.54776e-05
-4.67414e-05
2.53874e-05
-5.981e-05
2.4722e-05
-7.21485e-05
2.34644e-05
-8.34568e-05
2.16087e-05
-9.34262e-05
1.91226e-05
-0.000101767
1.60191e-05
-0.000108179
1.23486e-05
-0.000112397
8.1751e-06
-0.00011426
3.55469e-06
-0.000113529
-1.3482e-06
-0.00011016
-6.47527e-06
-0.000104182
-1.15828e-05
-9.55627e-05
-1.6699e-05
-8.45235e-05
-2.14514e-05
-7.12744e-05
-2.57548e-05
-5.61239e-05
-2.94536e-05
-3.94829e-05
-3.23778e-05
-2.18119e-05
-3.4395e-05
-3.63719e-06
-3.54032e-05
1.45265e-05
-3.5374e-05
3.2123e-05
-3.42882e-05
4.86397e-05
-3.21728e-05
6.36111e-05
-2.91555e-05
7.66942e-05
-2.54029e-05
8.74952e-05
-2.0939e-05
9.57997e-05
-1.60296e-05
0.000101393
-1.08096e-05
0.000104223
-5.49776e-06
0.000104377
-2.87762e-07
0.00010197
4.64691e-06
9.71739e-05
9.30869e-06
9.01915e-05
1.35007e-05
8.12939e-05
1.71392e-05
7.08267e-05
2.01409e-05
5.9099e-05
2.24819e-05
4.64397e-05
2.41725e-05
3.31565e-05
2.52384e-05
1.95564e-05
2.56859e-05
5.94534e-06
2.55534e-05
-7.41033e-06
2.49003e-05
-2.03225e-05
2.38287e-05
-3.24181e-05
2.23812e-05
-4.35906e-05
2.05523e-05
-5.36413e-05
1.84307e-05
-6.25928e-05
1.61627e-05
-7.01678e-05
1.35544e-05
-7.62309e-05
1.06682e-05
-8.06671e-05
7.5245e-06
-8.30944e-05
3.97553e-06
-8.33849e-05
1.07667e-07
-8.12196e-05
-4.10306e-06
-7.6372e-05
-8.64228e-06
-6.86951e-05
-1.33124e-05
-5.8302e-05
-1.78333e-05
-4.55332e-05
-2.17044e-05
-3.1244e-05
-2.41962e-05
-1.71956e-05
-2.38999e-05
-6.28101e-06
-1.91874e-05
-1.229e-05
6.94447e-06
-1.837e-05
1.95362e-05
-3.04836e-05
3.56372e-05
-3.84823e-05
5.21772e-05
-3.90439e-05
6.711e-05
-3.49162e-05
7.93007e-05
-2.83522e-05
8.83121e-05
-2.07629e-05
9.40717e-05
-1.29391e-05
9.67228e-05
-5.33332e-06
9.65289e-05
1.70306e-06
9.38641e-05
8.02494e-06
8.90641e-05
1.35943e-05
8.232e-05
1.8592e-05
7.39343e-05
2.30531e-05
6.40895e-05
2.70406e-05
5.29424e-05
3.05401e-05
4.0671e-05
3.35635e-05
2.76245e-05
3.59777e-05
1.38076e-05
3.7989e-05
-4.95238e-07
3.93668e-05
-1.50641e-05
4.00464e-05
-2.9598e-05
3.99213e-05
-4.38119e-05
3.89358e-05
-5.73866e-05
3.70389e-05
-7.0002e-05
3.4224e-05
-8.13387e-05
3.04592e-05
-9.10761e-05
2.57567e-05
-9.89042e-05
2.01771e-05
-0.000104576
1.38472e-05
-0.000107786
6.76476e-06
-0.000108386
-7.49137e-07
-0.000106311
-8.55059e-06
-0.000101316
-1.65775e-05
-9.362e-05
-2.43955e-05
-8.32566e-05
-3.18148e-05
-7.05475e-05
-3.84636e-05
-5.58863e-05
-4.41144e-05
-3.96208e-05
-4.86427e-05
-2.22234e-05
-5.1792e-05
-4.25577e-06
-5.33709e-05
1.36851e-05
-5.33148e-05
3.09999e-05
-5.16028e-05
4.71754e-05
-4.83484e-05
6.17305e-05
-4.37108e-05
7.41704e-05
-3.78428e-05
8.42281e-05
-3.09967e-05
9.16791e-05
-2.34808e-05
9.63132e-05
-1.54439e-05
9.80775e-05
-7.26152e-06
9.69726e-05
8.17519e-07
9.31145e-05
8.50466e-06
8.68369e-05
1.5586e-05
7.84485e-05
2.18889e-05
6.81352e-05
2.74522e-05
5.6314e-05
3.19618e-05
4.32895e-05
3.55062e-05
2.93961e-05
3.80638e-05
1.49695e-05
3.96631e-05
3.47629e-07
4.0308e-05
-1.41679e-05
4.00692e-05
-2.83211e-05
3.90532e-05
-4.18513e-05
3.73585e-05
-5.45457e-05
3.50755e-05
-6.62408e-05
3.22477e-05
-7.68069e-05
2.8998e-05
-8.59549e-05
2.53121e-05
-9.36265e-05
2.12276e-05
-9.96328e-05
1.66757e-05
-0.000103646
1.15386e-05
-0.000105501
5.83163e-06
-0.000104884
-5.08564e-07
-0.000101361
-7.62528e-06
-9.47053e-05
-1.52975e-05
-8.47377e-05
-2.32792e-05
-7.15221e-05
-3.10481e-05
-5.55041e-05
-3.77217e-05
-3.78374e-05
-4.18623e-05
-2.071e-05
-4.10268e-05
-7.35745e-06
-3.25403e-05
-1.96467e-05
7.15618e-06
-2.55301e-05
2.10251e-05
-4.43513e-05
3.94061e-05
-5.68631e-05
5.86122e-05
-5.82502e-05
7.59787e-05
-5.22832e-05
9.00046e-05
-4.23783e-05
0.00010016
-3.09188e-05
0.000106508
-1.9287e-05
0.000109392
-8.21703e-06
0.000109263
1.83253e-06
0.000106546
1.0742e-05
0.000101595
1.85453e-05
9.47077e-05
2.54794e-05
8.61278e-05
3.1633e-05
7.60564e-05
3.71117e-05
6.46875e-05
4.19089e-05
5.21856e-05
4.6065e-05
3.86044e-05
4.95588e-05
2.41968e-05
5.23965e-05
9.19717e-06
5.43666e-05
-6.20144e-06
5.54451e-05
-2.16961e-05
5.54161e-05
-3.69966e-05
5.42365e-05
-5.1775e-05
5.18175e-05
-6.56669e-05
4.81162e-05
-7.83032e-05
4.30956e-05
-8.93378e-05
3.6791e-05
-9.842e-05
2.92585e-05
-0.000105196
2.06219e-05
-0.00010948
1.10475e-05
-0.000110966
7.36363e-07
-0.000109441
-1.00772e-05
-0.000104914
-2.11049e-05
-9.73817e-05
-3.19291e-05
-8.70246e-05
-4.2173e-05
-7.40906e-05
-5.13984e-05
-5.88339e-05
-5.93718e-05
-4.17492e-05
-6.57283e-05
-2.34129e-05
-7.01292e-05
-4.38964e-06
-7.23952e-05
1.46136e-05
-7.23194e-05
3.29525e-05
-6.99431e-05
5.00012e-05
-6.53984e-05
6.5137e-05
-5.88479e-05
7.79223e-05
-5.06294e-05
8.80945e-05
-4.117e-05
9.53237e-05
-3.07108e-05
9.94503e-05
-1.95719e-05
0.000100488
-8.30159e-06
9.84648e-05
2.83841e-06
9.35894e-05
1.33781e-05
8.61206e-05
2.30532e-05
7.64117e-05
3.15966e-05
6.48182e-05
3.90441e-05
5.16119e-05
4.51659e-05
3.72765e-05
4.98412e-05
2.21533e-05
5.31876e-05
6.60429e-06
5.52117e-05
-8.98712e-06
5.58989e-05
-2.43325e-05
5.54131e-05
-3.91528e-05
5.38715e-05
-5.32088e-05
5.14137e-05
-6.63644e-05
4.8231e-05
-7.83535e-05
4.42366e-05
-8.90852e-05
3.97296e-05
-9.84326e-05
3.46592e-05
-0.000106167
2.89615e-05
-0.00011221
2.27175e-05
-0.000116401
1.57287e-05
-0.000118403
7.83385e-06
-0.000117666
-1.24593e-06
-0.000113889
-1.14024e-05
-0.000106641
-2.25457e-05
-9.55088e-05
-3.44112e-05
-8.04134e-05
-4.61436e-05
-6.18708e-05
-5.62648e-05
-4.152e-05
-6.22141e-05
-2.2073e-05
-6.04745e-05
-7.49139e-06
-4.71234e-05
-2.71389e-05
6.80089e-06
-3.23331e-05
2.1684e-05
-5.9235e-05
4.26502e-05
-7.78295e-05
6.51865e-05
-8.07869e-05
8.55506e-05
-7.26475e-05
0.000101496
-5.83242e-05
0.00011238
-4.18023e-05
0.000118558
-2.54648e-05
0.000120802
-1.04599e-05
0.000119856
2.77822e-06
0.000116338
1.42603e-05
0.000110615
2.42681e-05
0.00010308
3.30147e-05
9.39181e-05
4.07945e-05
8.33747e-05
4.76547e-05
7.14985e-05
5.37847e-05
5.83964e-05
5.91666e-05
4.41186e-05
6.38363e-05
2.89381e-05
6.75768e-05
1.29873e-05
7.03172e-05
-3.43466e-06
7.18669e-05
-2.00933e-05
7.20746e-05
-3.66884e-05
7.08314e-05
-5.28456e-05
6.79742e-05
-6.8155e-05
6.34249e-05
-8.21992e-05
5.71386e-05
-9.45913e-05
4.9182e-05
-0.000104923
3.95889e-05
-0.000112828
2.85264e-05
-0.000118044
1.62629e-05
-0.000120111
2.80246e-06
-0.000118896
-1.12937e-05
-0.000114409
-2.55928e-05
-0.00010656
-3.978e-05
-9.54951e-05
-5.32394e-05
-8.14321e-05
-6.54632e-05
-6.47035e-05
-7.61022e-05
-4.589e-05
-8.45432e-05
-2.55097e-05
-9.0511e-05
-4.32853e-06
-9.35778e-05
1.68464e-05
-9.34952e-05
3.72072e-05
-9.03047e-05
5.60236e-05
-8.42158e-05
7.26702e-05
-7.54952e-05
8.66294e-05
-6.45893e-05
9.75168e-05
-5.20592e-05
0.000105043
-3.82397e-05
0.000109135
-2.36645e-05
0.00010975
-8.91727e-06
0.000107045
5.54383e-06
0.000101247
1.91755e-05
9.26045e-05
3.16949e-05
8.15198e-05
4.26807e-05
6.84722e-05
5.20926e-05
5.37674e-05
5.98729e-05
3.7944e-05
6.5665e-05
2.13845e-05
6.97444e-05
4.51454e-06
7.2078e-05
-1.22915e-05
7.27037e-05
-2.86925e-05
7.1815e-05
-4.44196e-05
6.9599e-05
-5.92428e-05
6.62358e-05
-7.29805e-05
6.19665e-05
-8.54657e-05
5.67201e-05
-9.6638e-05
5.09005e-05
-0.000106426
4.44456e-05
-0.000114705
3.72392e-05
-0.000121349
2.93615e-05
-0.000126241
2.06204e-05
-0.000128964
1.05577e-05
-0.000129152
-1.0581e-06
-0.000126096
-1.44579e-05
-0.000119088
-2.95524e-05
-0.000107223
-4.62766e-05
-9.01649e-05
-6.32019e-05
-6.85359e-05
-7.78943e-05
-4.46758e-05
-8.60734e-05
-2.26803e-05
-8.24692e-05
-7.06079e-06
-6.27415e-05
-3.41982e-05
5.91424e-06
-3.82478e-05
2.12635e-05
-7.45854e-05
4.53893e-05
-0.000101956
7.30788e-05
-0.000108477
9.8175e-05
-9.77438e-05
0.000116819
-7.69683e-05
0.000128265
-5.32478e-05
0.000133654
-3.0853e-05
0.000134463
-1.12683e-05
0.000131934
5.30767e-06
0.000126963
1.92313e-05
0.000120033
3.11983e-05
0.000111521
4.15267e-05
0.000101571
5.07434e-05
9.02579e-05
5.89673e-05
7.76508e-05
6.63913e-05
6.37969e-05
7.30201e-05
4.86554e-05
7.89771e-05
3.24389e-05
8.37929e-05
1.53279e-05
8.74278e-05
-2.46306e-06
8.96573e-05
-2.06192e-05
9.02303e-05
-3.88173e-05
8.90292e-05
-5.66594e-05
8.58161e-05
-7.36852e-05
8.04505e-05
-8.94417e-05
7.28952e-05
-0.000103466
6.32065e-05
-0.00011532
5.14435e-05
-0.000124589
3.77954e-05
-0.000130668
2.23413e-05
-0.000133481
5.61524e-06
-0.000132566
-1.22092e-05
-0.000127914
-3.02454e-05
-0.000119438
-4.82572e-05
-0.000107293
-6.53858e-05
-9.16204e-05
-8.11356e-05
-7.28286e-05
-9.4894e-05
-5.14864e-05
-0.000105885
-2.83279e-05
-0.000113669
-4.25029e-06
-0.000117656
1.9862e-05
-0.000117608
4.29982e-05
-0.000113441
6.43984e-05
-0.000105616
8.31364e-05
-9.42343e-05
9.87564e-05
-8.02101e-05
0.000110803
-6.41054e-05
0.000118951
-4.63864e-05
0.000123146
-2.78587e-05
0.000123478
-9.24855e-06
0.000119955
9.0656e-06
0.000113005
2.61262e-05
0.000102971
4.17303e-05
9.02696e-05
5.5383e-05
7.54308e-05
6.69282e-05
5.89532e-05
7.63468e-05
4.12587e-05
8.33586e-05
2.29389e-05
8.80651e-05
4.38314e-06
9.0636e-05
-1.392e-05
9.10077e-05
-3.16693e-05
8.95637e-05
-4.85367e-05
8.64663e-05
-6.43234e-05
8.20236e-05
-7.87971e-05
7.64417e-05
-9.20225e-05
6.99472e-05
-0.000103839
6.27182e-05
-0.000114237
5.48451e-05
-0.000123315
4.63185e-05
-0.000130926
3.69731e-05
-0.00013701
2.67045e-05
-0.000141222
1.47705e-05
-0.000143037
7.57182e-07
-0.000141514
-1.59805e-05
-0.000135287
-3.57795e-05
-0.000122888
-5.8675e-05
-0.000103026
-8.30634e-05
-7.6368e-05
-0.000104551
-4.7124e-05
-0.000115318
-2.19436e-05
-0.00010765
-6.03826e-06
-7.86466e-05
-4.02361e-05
3.3377e-06
-4.15857e-05
1.74885e-05
-8.87372e-05
4.5624e-05
-0.000130092
8.15514e-05
-0.000144404
0.000114665
-0.000130857
0.000137659
-9.99617e-05
0.000149578
-6.51667e-05
0.000153196
-3.44704e-05
0.000151452
-9.52317e-06
0.000146411
1.03481e-05
0.000139312
2.63307e-05
0.000130848
3.96626e-05
0.00012112
5.12532e-05
0.000110268
6.15946e-05
9.81672e-05
7.10679e-05
8.4756e-05
7.98018e-05
6.99572e-05
8.78186e-05
5.38914e-05
9.50423e-05
3.6506e-05
0.000101178
1.79791e-05
0.000105954
-1.42802e-06
0.000109064
-2.14315e-05
0.000110234
-4.16144e-05
0.000109213
-6.1541e-05
0.000105743
-8.07454e-05
9.96556e-05
-9.86386e-05
9.07889e-05
-0.000114713
7.92814e-05
-0.000128535
6.52652e-05
-0.000139394
4.86548e-05
-0.000146793
2.97403e-05
-0.000150394
9.21652e-06
-0.000149972
-1.26311e-05
-0.000145097
-3.51193e-05
-0.000135861
-5.74912e-05
-0.000122314
-7.89311e-05
-0.00010463
-9.88182e-05
-8.32419e-05
-0.000116282
-5.87207e-05
-0.000130406
-3.19998e-05
-0.00014039
-4.15624e-06
-0.000145499
2.36728e-05
-0.000145436
5.04965e-05
-0.000140265
7.50496e-05
-0.00013017
9.65347e-05
-0.000115719
0.000114248
-9.7922e-05
0.000127669
-7.75261e-05
0.000136663
-5.53804e-05
0.000141014
-3.22104e-05
0.000140829
-9.06313e-06
0.000136377
1.35187e-05
0.000128008
3.4495e-05
0.000116154
5.35835e-05
0.000101399
7.01379e-05
8.43196e-05
8.40102e-05
6.5516e-05
9.51544e-05
4.55537e-05
0.000103325
2.49785e-05
0.000108641
4.37162e-06
0.000111242
-1.58057e-05
0.000111185
-3.51819e-05
0.000108941
-5.34104e-05
0.000104696
-7.03174e-05
9.89311e-05
-8.57558e-05
9.188e-05
-9.97061e-05
8.3897e-05
-0.000112195
7.52059e-05
-0.000123336
6.59857e-05
-0.000133189
5.61707e-05
-0.000141969
4.57533e-05
-0.000149526
3.42613e-05
-0.00015576
2.10035e-05
-0.000160105
5.10251e-06
-0.000161328
-1.47572e-05
-0.000157121
-3.99857e-05
-0.000144353
-7.14436e-05
-0.000119908
-0.00010751
-8.49232e-05
-0.000139536
-4.70492e-05
-0.000153191
-1.74515e-05
-0.000137246
-3.08047e-06
-9.30161e-05
-4.33161e-05
-1.15436e-06
-4.04317e-05
1.27873e-05
-0.00010268
5.16095e-05
-0.000168915
0.000100185
-0.00019298
0.000141725
-0.000172398
0.000167602
-0.000125839
0.000178131
-7.56945e-05
0.000178128
-3.44673e-05
0.000172029
-3.42422e-06
0.000163249
1.91285e-05
0.000153449
3.61295e-05
0.000143079
5.00324e-05
0.000132146
6.21855e-05
0.00012037
7.33704e-05
0.000107484
8.39531e-05
9.32974e-05
9.39884e-05
7.76112e-05
0.000103504
6.04665e-05
0.000112187
4.17239e-05
0.00011992
2.1591e-05
0.000126087
2.6306e-07
0.000130392
-2.19298e-05
0.000132427
-4.45434e-05
0.000131826
-6.70716e-05
0.000128271
-8.89712e-05
0.000121555
-0.000109578
0.000111396
-0.000128277
9.79807e-05
-0.000144354
8.13416e-05
-0.000157161
6.14625e-05
-0.000166352
3.89313e-05
-0.00017122
1.40853e-05
-0.000171297
-1.2553e-05
-0.000166411
-4.00037e-05
-0.000156342
-6.75603e-05
-0.00014111
-9.41633e-05
-0.000121001
-0.000118927
-9.6328e-05
-0.000140954
-6.7882e-05
-0.000158852
-3.67453e-05
-0.000171526
-4.07354e-06
-0.000178171
2.86882e-05
-0.000178198
6.0014e-05
-0.00017159
8.85612e-05
-0.000158716
0.000113397
-0.000140555
0.000133709
-0.000118234
0.000148865
-9.26821e-05
0.000158706
-6.522e-05
0.000163151
-3.66546e-05
0.000162326
-8.23714e-06
0.000156471
1.93746e-05
0.000146169
4.47997e-05
0.000132145
6.76123e-05
0.000114681
8.7605e-05
9.48284e-05
0.000103864
7.3108e-05
0.000116874
5.02789e-05
0.000126152
2.69828e-05
0.000131937
3.88238e-06
0.000134343
-1.85662e-05
0.000133633
-3.98468e-05
0.000130221
-5.96426e-05
0.000124492
-7.7797e-05
0.000117086
-9.41842e-05
0.000108267
-0.000108844
9.85564e-05
-0.000121906
8.82686e-05
-0.000133585
7.76639e-05
-0.000144237
6.68216e-05
-0.000154133
5.56483e-05
-0.00016355
4.36784e-05
-0.000172568
3.00214e-05
-0.000180749
1.32835e-05
-0.000186497
-9.00885e-06
-0.000186434
-4.00492e-05
-0.000175691
-8.21868e-05
-0.000149081
-0.000134118
-0.000105742
-0.000182874
-5.44835e-05
-0.000204449
-1.31597e-05
-0.000178569
1.53252e-06
-0.000107707
-4.1783e-05
-7.43991e-07
-3.96881e-05
3.47891e-05
-0.000138213
0.000109565
-0.000243691
0.000178267
-0.000261681
0.000213453
-0.000207584
0.000222349
-0.000134735
0.000218731
-7.20756e-05
0.000209125
-2.48615e-05
0.000195782
9.91766e-06
0.000181736
3.31747e-05
0.000168462
4.9402e-05
0.000156037
6.2457e-05
0.000143883
7.43393e-05
0.000131402
8.58511e-05
0.000118051
9.7304e-05
0.000103298
0.000108741
8.6872e-05
0.00011993
6.85898e-05
0.000130468
4.84768e-05
0.000140033
2.65424e-05
0.00014802
2.97007e-06
0.000153963
-2.1858e-05
0.000157254
-4.7426e-05
0.000157393
-7.31314e-05
0.000153976
-9.83454e-05
0.000146769
-0.000122238
0.000135289
-0.000144109
0.000119852
-0.000163102
0.000100335
-0.000178549
7.69088e-05
-0.000189844
5.02263e-05
-0.000196271
2.0511e-05
-0.000197265
-1.156e-05
-0.000192432
-4.48392e-05
-0.000181553
-7.84401e-05
-0.000164457
-0.000111261
-0.000141388
-0.000141997
-0.000112826
-0.000169517
-7.95031e-05
-0.000192176
-4.27273e-05
-0.000208303
-3.94619e-06
-0.000216952
3.48995e-05
-0.000217045
7.18873e-05
-0.000208579
0.000105535
-0.000192364
0.000134463
-0.000169483
0.000157842
-0.000141615
0.000175027
-0.000109869
0.000185831
-7.60246e-05
0.000190144
-4.09668e-05
0.000188235
-6.32731e-06
0.000180725
2.68851e-05
0.000168032
5.74908e-05
0.000150987
8.46563e-05
0.000130273
0.000108317
0.000106951
0.000127184
8.16759e-05
0.00014215
5.53784e-05
0.000152451
2.87443e-05
0.000158571
2.58746e-06
0.000160501
-2.25305e-05
0.000158752
-4.60584e-05
0.000153748
-6.76052e-05
0.000146038
-8.70076e-05
0.000136487
-0.000104366
0.000125625
-0.00011964
0.000113829
-0.000133082
0.00010171
-0.000145044
8.96253e-05
-0.000156174
7.79508e-05
-0.000166935
6.64086e-05
-0.000178186
5.49283e-05
-0.000190682
4.25166e-05
-0.000204429
2.70308e-05
-0.000217953
4.51484e-06
-0.000228514
-2.94879e-05
-0.000233911
-7.67898e-05
-0.000227355
-0.000140673
-0.000192026
-0.000218203
-0.000118814
-0.000277661
-3.80302e-05
-0.000259353
7.303e-07
-0.000146467
-4.10527e-05
2.4286e-05
-6.39744e-05
0.000128164
-0.000242091
0.000270996
-0.000386523
0.000367296
-0.000357981
0.00037812
-0.000218408
0.000333543
-9.01583e-05
0.000283403
-2.19359e-05
0.000248132
1.04091e-05
0.000221249
3.68e-05
0.000199821
5.46014e-05
0.000182848
6.6374e-05
0.000168798
7.65067e-05
0.000156019
8.71176e-05
0.000143404
9.84658e-05
0.000129917
0.000110791
0.000114922
0.000123736
9.79001e-05
0.000136951
7.86489e-05
0.000149719
5.70854e-05
0.000161595
3.31405e-05
0.000171964
7.01831e-06
0.000180085
-2.09311e-05
0.000185203
-4.99947e-05
0.000186457
-7.94525e-05
0.000183434
-0.000108729
0.000176046
-0.000136582
0.000163142
-0.000162361
0.000145632
-0.000185035
0.000123009
-0.000203844
9.57166e-05
-0.000217819
6.42002e-05
-0.000226417
2.91078e-05
-0.000228626
-9.35262e-06
-0.000224064
-4.94019e-05
-0.000212305
-9.01997e-05
-0.000193226
-0.000130342
-0.000166781
-0.000168442
-0.000133587
-0.000202713
-9.43522e-05
-0.000231412
-5.02844e-05
-0.000252373
-3.72494e-06
-0.000263514
4.297e-05
-0.000263741
8.70878e-05
-0.000252697
0.000126846
-0.000232124
0.000160734
-0.000203371
0.000187675
-0.000168556
0.000207144
-0.000129338
0.000218854
-8.77368e-05
0.000222935
-4.50511e-05
0.000219723
-3.11719e-06
0.000209663
3.69417e-05
0.000193837
7.33149e-05
0.000173105
0.000105388
0.000148452
0.000132972
0.000120767
0.00015487
9.11075e-05
0.00017181
6.0606e-05
0.000182952
2.99377e-05
0.00018924
1.67231e-07
0.00019027
-2.81022e-05
0.00018702
-5.39655e-05
0.00017961
-7.76409e-05
0.000169712
-9.83569e-05
0.000157202
-0.000116502
0.000143769
-0.000132064
0.000129389
-0.000145468
0.000115114
-0.000157256
0.000101413
-0.000168147
8.88402e-05
-0.000179255
7.75162e-05
-0.000192002
6.7675e-05
-0.000208041
5.85572e-05
-0.000229168
4.81572e-05
-0.000256874
3.22212e-05
-0.000295229
8.86795e-06
-0.000351267
-2.07512e-05
-0.000400319
-9.16219e-05
-0.0003888
-0.000229721
-0.00028724
-0.00037922
-0.000137166
-0.000409425
-2.64618e-05
-0.000257171
-6.75149e-05
9.16216e-05
-0.000155596
0.000295249
-0.000445718
0.000484457
-0.00057573
0.000586591
-0.000460115
0.000578652
-0.000210469
0.000484498
3.99435e-06
0.000372534
9.00276e-05
0.000291597
9.13445e-05
0.000243543
8.48534e-05
0.000214014
8.41292e-05
0.000194444
8.59435e-05
0.000179843
9.11064e-05
0.000167752
9.92083e-05
0.000155889
0.00011033
0.000142961
0.000123718
0.000128141
0.000138556
0.000110879
0.000154214
9.08169e-05
0.000169781
6.78249e-05
0.000184588
4.16877e-05
0.000198102
1.26626e-05
0.000209111
-1.89138e-05
0.00021678
-5.21316e-05
0.000219675
-8.62206e-05
0.000217524
-0.00012008
0.000209906
-0.000152828
0.00019589
-0.000183358
0.000176162
-0.000210527
0.000150179
-0.000233331
0.00011852
-0.000250787
8.16566e-05
-0.000262268
4.05896e-05
-0.000266242
-5.3787e-06
-0.000262139
-5.35044e-05
-0.000249625
-0.000102714
-0.000228413
-0.000151554
-0.000198377
-0.00019848
-0.00015977
-0.000241321
-0.000113248
-0.000277935
-6.02657e-05
-0.000305355
-3.43055e-06
-0.000320349
5.33986e-05
-0.000320571
0.000106699
-0.000305998
0.00015382
-0.000279245
0.000193373
-0.000242925
0.000224397
-0.000199582
0.000246252
-0.000151196
0.000258925
-0.000100411
0.00026249
-4.86173e-05
0.000257243
2.12993e-06
0.000244231
4.99542e-05
0.000224344
9.32037e-05
0.000198871
0.000130863
0.000169227
0.000162613
0.000136388
0.000187709
0.000101375
0.000206823
6.58219e-05
0.000218504
3.03546e-05
0.000224706
-3.70169e-06
0.000224326
-3.53215e-05
0.000218639
-6.45019e-05
0.00020879
-9.01681e-05
0.000195378
-0.000112181
0.000179214
-0.000130834
0.000162421
-0.000146252
0.000144806
-0.000159075
0.000127936
-0.000169868
0.000112205
-0.000179661
9.86333e-05
-0.000189815
8.76705e-05
-0.000202389
8.02496e-05
-0.000220691
7.68596e-05
-0.000249695
7.71604e-05
-0.000299163
8.16904e-05
-0.00038403
9.37342e-05
-0.00050104
9.62593e-05
-0.000597548
4.88666e-06
-0.000605529
-0.000221741
-0.000502885
-0.000481864
-0.0003098
-0.00060251
-9.74305e-05
-0.000469541
-0.000164946
0.000180062
-0.000335658
0.000432523
-0.000698179
0.000593485
-0.000736686
0.000655822
-0.000522366
0.00063312
-0.000187708
0.000534949
0.000102168
0.00041016
0.000214815
0.000309456
0.000192047
0.000249567
0.000144741
0.000217844
0.000115852
0.0001997
0.000104086
0.000188119
0.000102688
0.000178389
0.000108938
0.000168418
0.0001203
0.000156999
0.000135137
0.000142995
0.000152559
0.000126009
0.0001712
0.000105375
0.000190416
8.0936e-05
0.000209026
5.22133e-05
0.000226825
2.0062e-05
0.000241262
-1.55122e-05
0.000252354
-5.36278e-05
0.000257791
-9.31353e-05
0.000257031
-0.000132729
0.0002495
-0.000171371
0.000234533
-0.000207629
0.00021242
-0.000240243
0.000182794
-0.000268067
0.000146344
-0.000290127
0.000103717
-0.000304404
5.48675e-05
-0.000310911
1.12766e-06
-0.000307834
-5.65816e-05
-0.000294796
-0.000115752
-0.000271508
-0.000174842
-0.000237364
-0.000232623
-0.000192427
-0.000286256
-0.000136843
-0.000333519
-7.26056e-05
-0.000369593
-3.23655e-06
-0.000389718
6.62835e-05
-0.000390091
0.000130832
-0.000370547
0.000187065
-0.000335478
0.000233556
-0.000289415
0.000269177
-0.000235202
0.000293779
-0.000175796
0.000307257
-0.000113886
0.000309962
-5.13187e-05
0.000302024
1.00696e-05
0.000285158
6.68201e-05
0.000260065
0.000118295
0.000228953
0.000161975
0.000193071
0.000198496
0.000153885
0.000226895
0.000112613
0.000248094
7.08148e-05
0.000260303
2.98244e-05
0.000265697
-9.62373e-06
0.000263775
-4.5731e-05
0.000254747
-7.79131e-05
0.000240973
-0.000105312
0.000222777
-0.000128724
0.000202625
-0.000147391
0.000181089
-0.000162232
0.000159647
-0.000173614
0.00013932
-0.000182494
0.000121086
-0.000189596
0.000105735
-0.000196627
9.47015e-05
-0.00020594
8.95633e-05
-0.000221704
9.2624e-05
-0.000252355
0.00010781
-0.000311837
0.000141173
-0.000413145
0.000195042
-0.000538408
0.000221522
-0.000637855
0.000104335
-0.000664725
-0.000194846
-0.000607568
-0.000538938
-0.000447439
-0.00076264
-0.000188723
-0.000728257
-0.000353669
0.00022029
-0.000555947
0.000399333
-0.000877222
0.000471295
-0.000808555
0.000479247
-0.000530324
0.000451095
-0.000159448
0.000397743
0.000155552
0.000328868
0.00028369
0.00026525
0.000255664
0.000225221
0.000184769
0.00020574
0.000135332
0.000197443
0.000112383
0.000192813
0.000107318
0.000188344
0.000113408
0.000182237
0.000126406
0.000173349
0.000144025
0.00016111
0.000164798
0.000144868
0.000187443
0.0001242
0.000211083
9.82581e-05
0.000234968
6.78595e-05
0.000257224
3.19273e-05
0.000277194
-8.49689e-06
0.000292779
-5.27272e-05
0.000302022
-9.89411e-05
0.000303246
-0.000145573
0.000296132
-0.000191276
0.000280236
-0.000234307
0.000255452
-0.000273496
0.000221982
-0.000307438
0.000180286
-0.000334848
0.000131127
-0.000353701
7.37204e-05
-0.000363672
1.10988e-05
-0.000361944
-5.83087e-05
-0.000348428
-0.000129267
-0.000322717
-0.000200551
-0.000283685
-0.000271654
-0.00023067
-0.00033927
-0.000164512
-0.000399676
-8.73375e-05
-0.000446766
-3.4538e-06
-0.000473601
8.04851e-05
-0.000474028
0.000158283
-0.000448342
0.00022596
-0.000403154
0.000280999
-0.000344453
0.000322446
-0.000276646
0.000350147
-0.000203495
0.000364533
-0.000128272
0.000365805
-5.25901e-05
0.0003543
2.15742e-05
0.000331698
8.94229e-05
0.00030065
0.000149347
0.000261967
0.000200659
0.000218567
0.000241898
0.00017183
0.000273633
0.000123334
0.000296591
7.41524e-05
0.000309486
2.6233e-05
0.000313618
-1.89503e-05
0.000308959
-6.05846e-05
0.000296382
-9.66379e-05
0.000277026
-0.000126369
0.000252509
-0.000150243
0.000226499
-0.000168238
0.000199086
-0.000181749
0.000173159
-0.000190875
0.000148446
-0.000196297
0.000126509
-0.00019895
0.000108389
-0.000199932
9.56843e-05
-0.000201179
9.08103e-05
-0.000206655
9.80997e-05
-0.000222829
0.000123983
-0.000259819
0.000178163
-0.000320377
0.000255599
-0.000386686
0.00028783
-0.000440995
0.000158653
-0.000475511
-0.000160047
-0.000475566
-0.000538576
-0.000409164
-0.000828796
-0.000228346
-0.000909075
-0.000582015
0.000144603
-0.00070055
0.000185473
-0.000918089
0.00016651
-0.000789597
0.000143986
-0.000507805
0.000138066
-0.000153534
0.000153306
0.000140345
0.000164042
0.000272953
0.000168366
0.00025134
0.000173214
0.000179921
0.000181417
0.000127129
0.00019119
0.000102609
0.000199345
9.91617e-05
0.000203873
0.000108879
0.000204051
0.000126227
0.000199521
0.000148554
0.000190056
0.000174262
0.000175652
0.000201847
0.000155249
0.000231486
0.000129425
0.000260793
9.60935e-05
0.000290555
5.57543e-05
0.000317534
8.96445e-06
0.000339569
-4.27503e-05
0.000353737
-9.746e-05
0.000357956
-0.000152627
0.000351299
-0.000206687
0.000334296
-0.000257772
0.000306536
-0.00030486
0.00026907
-0.000346995
0.000222422
-0.000381199
0.000165333
-0.000407172
9.96941e-05
-0.000421639
2.55664e-05
-0.000423002
-5.69449e-05
-0.000409147
-0.000143121
-0.000379713
-0.000229984
-0.000334053
-0.000317314
-0.000271527
-0.000401794
-0.000193328
-0.000477873
-0.000102716
-0.000537377
-4.66057e-06
-0.000571655
9.38336e-05
-0.000572521
0.000185866
-0.000540373
0.000266453
-0.000483739
0.000332097
-0.000410096
0.000381769
-0.000326318
0.000414213
-0.000235939
0.000429871
-0.000143929
0.000428577
-5.12934e-05
0.000411316
3.88376e-05
0.000381087
0.000119652
0.000340453
0.000189981
0.000291759
0.000249353
0.000239093
0.000294564
0.00018347
0.000329257
0.000126391
0.00035367
6.85116e-05
0.000367365
1.20353e-05
0.000370094
-4.1195e-05
0.00036219
-8.85045e-05
0.000343692
-0.000128165
0.000316688
-0.000160627
0.000284971
-0.000184308
0.000250181
-0.000201462
0.000216239
-0.000212154
0.000183852
-0.000217253
0.000153546
-0.000217676
0.000126932
-0.000213414
0.000104127
-0.000204574
8.68449e-05
-0.000192268
7.85042e-05
-0.000178337
8.41684e-05
-0.00016629
0.000111937
-0.000157134
0.000169005
-0.000147849
0.000246313
-0.000134203
0.000274185
-0.000119636
0.00014412
-0.000131652
-0.000147914
-0.000161908
-0.000508335
-0.000187831
-0.000802832
-0.000149028
-0.000947878
-0.000731043
1.18212e-05
-0.000712371
-5.93385e-05
-0.000846944
-0.000131609
-0.000717426
-0.000174057
-0.000465362
-0.000158876
-0.000168794
-9.2301e-05
7.37701e-05
-9.19736e-06
0.00018985
6.22843e-05
0.000179858
0.000117545
0.00012466
0.000160427
8.4247e-05
0.000194368
6.8668e-05
0.000219432
7.40976e-05
0.000236082
9.2228e-05
0.000244477
0.000117832
0.000245734
0.000147297
0.000239961
0.000180036
0.000227628
0.00021418
0.000208609
0.000250506
0.00018091
0.000288492
0.000145166
0.0003263
9.93532e-05
0.000363348
4.40201e-05
0.000394902
-1.75149e-05
0.000415272
-8.29217e-05
0.000423363
-0.000147934
0.000416312
-0.000211897
0.00039826
-0.000272236
0.000366876
-0.000328559
0.000325395
-0.00038047
0.000274334
-0.000424441
0.000209304
-0.000459215
0.000134468
-0.000481545
4.78965e-05
-0.000486536
-5.19532e-05
-0.000472437
-0.000157219
-0.000438534
-0.000263885
-0.000385217
-0.00037063
-0.00031273
-0.00047428
-0.000222711
-0.00056789
-0.000118994
-0.000641092
-6.72347e-06
-0.000683925
0.000106511
-0.000685754
0.000213348
-0.00064721
0.000307625
-0.000578016
0.000385814
-0.000488286
0.00044452
-0.000385023
0.000483194
-0.000274612
0.000500577
-0.000161312
0.000495577
-4.62924e-05
0.000469921
6.44921e-05
0.00042745
0.000162123
0.000373933
0.000243498
0.000313522
0.000309764
0.000249611
0.000358475
0.000183938
0.00039493
0.000117355
0.000420253
4.94723e-05
0.000435248
-1.66127e-05
0.000436179
-8.0098e-05
0.000425676
-0.000135852
0.000399447
-0.000182242
0.000363078
-0.00021688
0.00031961
-0.000241017
0.000274318
-0.00025601
0.000231233
-0.000262631