/*--------------------------------*- C++ -*----------------------------------*\
| =========                 |                                                 |
| \\      /  F ield         | OpenFOAM: The Open Source CFD Toolbox           |
|  \\    /   O peration     | Version:  2412                                  |
|   \\  /    A nd           | Website:  www.openfoam.com                      |
|    \\/     M anipulation  |                                                 |
\*---------------------------------------------------------------------------*/
FoamFile
{
    version     2.0;
    format      ascii;
    arch        "LSB;label=32;scalar=64";
    class       volScalarField;
    location    "5.05";
    object      p;
}
// * * * * * * * * * * * * * * * * * * * * * * * * * * * * * * * * * * * * * //

dimensions      [1 -1 -2 0 0 0 0];

internalField   nonuniform List<scalar> 
6400
(
8156.12
8156.01
8155.86
8155.75
8155.68
8155.69
8155.78
8155.94
8156.17
8156.46
8156.8
8157.2
8157.65
8158.14
8158.66
8159.22
8159.82
8160.44
8161.09
8161.76
8162.45
8163.15
8163.86
8164.57
8165.28
8165.98
8166.66
8167.33
8167.97
8168.58
8169.16
8169.7
8170.2
8170.64
8171.04
8171.37
8171.65
8171.86
8172
8172.08
8172.08
8172.02
8171.88
8171.68
8171.42
8171.09
8170.71
8170.27
8169.79
8169.26
8168.69
8168.1
8167.47
8166.83
8166.16
8165.49
8164.81
8164.13
8163.45
8162.78
8162.13
8161.49
8160.87
8160.27
8159.7
8159.17
8158.66
8158.19
8157.76
8157.38
8157.04
8156.75
8156.53
8156.36
8156.27
8156.25
8156.3
8156.4
8156.54
8156.65
7739.31
7739.2
7739.07
7738.97
7738.93
7738.95
7739.03
7739.19
7739.41
7739.69
7740.02
7740.41
7740.84
7741.31
7741.82
7742.37
7742.95
7743.57
7744.2
7744.86
7745.53
7746.22
7746.92
7747.61
7748.3
7748.99
7749.66
7750.31
7750.94
7751.54
7752.11
7752.64
7753.12
7753.56
7753.94
7754.27
7754.54
7754.74
7754.88
7754.95
7754.96
7754.89
7754.76
7754.57
7754.31
7753.99
7753.62
7753.19
7752.72
7752.2
7751.65
7751.07
7750.46
7749.83
7749.18
7748.52
7747.85
7747.18
7746.52
7745.86
7745.22
7744.59
7743.99
7743.4
7742.85
7742.32
7741.83
7741.38
7740.96
7740.59
7740.26
7739.99
7739.77
7739.62
7739.52
7739.49
7739.52
7739.61
7739.73
7739.84
7322.52
7322.38
7322.26
7322.17
7322.14
7322.17
7322.26
7322.41
7322.62
7322.89
7323.22
7323.59
7324.01
7324.48
7324.98
7325.52
7326.08
7326.68
7327.31
7327.95
7328.61
7329.29
7329.97
7330.65
7331.33
7332
7332.66
7333.3
7333.92
7334.51
7335.07
7335.59
7336.06
7336.49
7336.87
7337.19
7337.45
7337.65
7337.79
7337.86
7337.86
7337.8
7337.67
7337.48
7337.23
7336.92
7336.55
7336.13
7335.67
7335.16
7334.62
7334.05
7333.45
7332.83
7332.19
7331.54
7330.89
7330.23
7329.58
7328.94
7328.31
7327.69
7327.1
7326.53
7325.98
7325.47
7324.99
7324.54
7324.14
7323.78
7323.47
7323.21
7323
7322.84
7322.75
7322.72
7322.74
7322.81
7322.94
7323.07
6905.7
6905.53
6905.39
6905.31
6905.28
6905.31
6905.4
6905.55
6905.77
6906.03
6906.35
6906.72
6907.14
6907.6
6908.09
6908.63
6909.19
6909.78
6910.39
6911.03
6911.68
6912.35
6913.02
6913.7
6914.37
6915.04
6915.69
6916.33
6916.94
6917.52
6918.08
6918.59
6919.06
6919.49
6919.86
6920.18
6920.44
6920.63
6920.77
6920.84
6920.84
6920.78
6920.66
6920.47
6920.21
6919.91
6919.54
6919.13
6918.67
6918.17
6917.63
6917.06
6916.47
6915.85
6915.22
6914.58
6913.93
6913.28
6912.64
6912
6911.37
6910.77
6910.18
6909.61
6909.08
6908.57
6908.1
6907.66
6907.27
6906.92
6906.61
6906.35
6906.15
6906
6905.91
6905.88
6905.9
6905.98
6906.11
6906.27
6488.81
6488.62
6488.46
6488.38
6488.35
6488.38
6488.48
6488.63
6488.85
6489.11
6489.43
6489.8
6490.22
6490.67
6491.17
6491.7
6492.26
6492.85
6493.46
6494.09
6494.74
6495.4
6496.07
6496.75
6497.42
6498.09
6498.74
6499.38
6499.99
6500.58
6501.13
6501.64
6502.11
6502.54
6502.91
6503.23
6503.49
6503.69
6503.83
6503.9
6503.9
6503.84
6503.71
6503.52
6503.27
6502.96
6502.59
6502.18
6501.72
6501.22
6500.68
6500.11
6499.51
6498.9
6498.27
6497.62
6496.98
6496.33
6495.69
6495.05
6494.43
6493.82
6493.24
6492.67
6492.14
6491.64
6491.17
6490.74
6490.35
6490
6489.69
6489.44
6489.24
6489.09
6489
6488.97
6489
6489.08
6489.23
6489.4
6071.85
6071.65
6071.47
6071.38
6071.36
6071.39
6071.49
6071.65
6071.86
6072.13
6072.46
6072.83
6073.24
6073.7
6074.2
6074.73
6075.3
6075.89
6076.5
6077.13
6077.79
6078.45
6079.13
6079.8
6080.48
6081.15
6081.81
6082.45
6083.07
6083.66
6084.22
6084.74
6085.22
6085.65
6086.03
6086.35
6086.62
6086.82
6086.96
6087.03
6087.03
6086.97
6086.84
6086.65
6086.39
6086.08
6085.71
6085.29
6084.82
6084.31
6083.77
6083.19
6082.59
6081.97
6081.33
6080.69
6080.03
6079.38
6078.73
6078.09
6077.47
6076.86
6076.27
6075.71
6075.17
6074.67
6074.2
6073.77
6073.38
6073.03
6072.72
6072.47
6072.27
6072.12
6072.03
6072
6072.03
6072.12
6072.28
6072.46
5654.81
5654.6
5654.41
5654.32
5654.29
5654.33
5654.43
5654.6
5654.82
5655.1
5655.43
5655.8
5656.22
5656.69
5657.19
5657.73
5658.3
5658.89
5659.51
5660.16
5660.82
5661.49
5662.17
5662.86
5663.55
5664.23
5664.9
5665.55
5666.18
5666.78
5667.36
5667.89
5668.38
5668.82
5669.21
5669.54
5669.81
5670.02
5670.16
5670.23
5670.24
5670.17
5670.04
5669.84
5669.58
5669.26
5668.88
5668.45
5667.97
5667.45
5666.9
5666.31
5665.7
5665.06
5664.42
5663.76
5663.1
5662.43
5661.78
5661.13
5660.5
5659.88
5659.29
5658.72
5658.18
5657.67
5657.19
5656.76
5656.36
5656
5655.7
5655.44
5655.23
5655.08
5654.99
5654.96
5654.98
5655.08
5655.25
5655.44
5237.69
5237.47
5237.28
5237.18
5237.16
5237.2
5237.31
5237.49
5237.72
5238
5238.34
5238.73
5239.16
5239.63
5240.14
5240.69
5241.27
5241.87
5242.51
5243.16
5243.83
5244.52
5245.22
5245.92
5246.62
5247.32
5248
5248.67
5249.32
5249.94
5250.53
5251.08
5251.58
5252.04
5252.44
5252.79
5253.07
5253.28
5253.43
5253.51
5253.51
5253.44
5253.31
5253.1
5252.83
5252.5
5252.1
5251.66
5251.17
5250.63
5250.06
5249.45
5248.83
5248.18
5247.51
5246.84
5246.16
5245.49
5244.81
5244.15
5243.51
5242.88
5242.28
5241.7
5241.15
5240.63
5240.15
5239.7
5239.3
5238.93
5238.62
5238.35
5238.14
5237.98
5237.88
5237.85
5237.87
5237.96
5238.14
5238.35
4820.49
4820.26
4820.07
4819.98
4819.96
4820.01
4820.13
4820.31
4820.56
4820.86
4821.21
4821.61
4822.06
4822.54
4823.07
4823.62
4824.22
4824.84
4825.48
4826.15
4826.84
4827.54
4828.26
4828.98
4829.7
4830.42
4831.13
4831.82
4832.49
4833.13
4833.74
4834.31
4834.84
4835.31
4835.74
4836.09
4836.39
4836.61
4836.77
4836.85
4836.85
4836.78
4836.64
4836.42
4836.14
4835.79
4835.38
4834.91
4834.4
4833.84
4833.25
4832.62
4831.97
4831.3
4830.61
4829.92
4829.22
4828.53
4827.84
4827.16
4826.5
4825.86
4825.24
4824.65
4824.09
4823.56
4823.06
4822.6
4822.19
4821.81
4821.49
4821.21
4820.98
4820.82
4820.71
4820.67
4820.69
4820.78
4820.97
4821.18
4403.21
4402.98
4402.79
4402.7
4402.68
4402.75
4402.88
4403.08
4403.34
4403.66
4404.03
4404.45
4404.91
4405.42
4405.96
4406.53
4407.14
4407.78
4408.44
4409.13
4409.84
4410.56
4411.3
4412.05
4412.79
4413.54
4414.27
4414.99
4415.69
4416.36
4416.99
4417.59
4418.14
4418.64
4419.08
4419.46
4419.77
4420.01
4420.17
4420.26
4420.26
4420.19
4420.03
4419.8
4419.5
4419.13
4418.7
4418.21
4417.67
4417.08
4416.46
4415.81
4415.13
4414.43
4413.72
4413
4412.28
4411.56
4410.85
4410.15
4409.47
4408.81
4408.17
4407.57
4406.99
4406.45
4405.94
4405.47
4405.03
4404.65
4404.3
4404.01
4403.77
4403.59
4403.48
4403.42
4403.44
4403.54
4403.72
4403.94
3985.85
3985.62
3985.43
3985.34
3985.34
3985.41
3985.57
3985.78
3986.07
3986.41
3986.8
3987.24
3987.72
3988.25
3988.81
3989.4
3990.03
3990.69
3991.38
3992.09
3992.82
3993.57
3994.34
3995.11
3995.89
3996.67
3997.43
3998.18
3998.91
3999.62
4000.28
4000.91
4001.49
4002.02
4002.49
4002.9
4003.23
4003.48
4003.66
4003.75
4003.75
4003.67
4003.51
4003.26
4002.94
4002.54
4002.08
4001.56
4000.98
4000.37
3999.71
3999.02
3998.31
3997.58
3996.84
3996.08
3995.33
3994.58
3993.84
3993.12
3992.42
3991.74
3991.08
3990.45
3989.86
3989.3
3988.77
3988.29
3987.84
3987.43
3987.07
3986.76
3986.5
3986.3
3986.17
3986.11
3986.12
3986.21
3986.4
3986.62
3568.42
3568.18
3567.98
3567.9
3567.91
3568.01
3568.18
3568.42
3568.73
3569.1
3569.51
3569.98
3570.49
3571.03
3571.62
3572.23
3572.88
3573.57
3574.28
3575.02
3575.78
3576.56
3577.36
3578.17
3578.99
3579.8
3580.61
3581.4
3582.16
3582.9
3583.61
3584.28
3584.9
3585.47
3585.97
3586.41
3586.76
3587.04
3587.23
3587.32
3587.33
3587.24
3587.06
3586.8
3586.45
3586.02
3585.53
3584.96
3584.35
3583.69
3583
3582.27
3581.52
3580.75
3579.97
3579.18
3578.39
3577.6
3576.83
3576.08
3575.35
3574.64
3573.96
3573.31
3572.7
3572.12
3571.57
3571.07
3570.6
3570.17
3569.78
3569.45
3569.17
3568.94
3568.79
3568.71
3568.71
3568.8
3568.99
3569.21
3150.9
3150.65
3150.45
3150.37
3150.4
3150.52
3150.72
3151
3151.34
3151.74
3152.18
3152.68
3153.21
3153.78
3154.39
3155.03
3155.71
3156.42
3157.16
3157.93
3158.72
3159.54
3160.38
3161.23
3162.09
3162.94
3163.79
3164.63
3165.44
3166.23
3166.98
3167.69
3168.36
3168.97
3169.52
3169.99
3170.38
3170.68
3170.88
3170.99
3170.99
3170.9
3170.7
3170.42
3170.04
3169.57
3169.03
3168.42
3167.76
3167.05
3166.31
3165.54
3164.74
3163.93
3163.1
3162.27
3161.44
3160.61
3159.8
3159.01
3158.25
3157.51
3156.81
3156.13
3155.5
3154.9
3154.33
3153.81
3153.31
3152.86
3152.45
3152.08
3151.77
3151.52
3151.34
3151.23
3151.22
3151.3
3151.49
3151.73
2733.29
2733.02
2732.82
2732.75
2732.8
2732.95
2733.19
2733.5
2733.89
2734.32
2734.81
2735.34
2735.9
2736.5
2737.13
2737.8
2738.5
2739.23
2740.01
2740.81
2741.65
2742.5
2743.38
2744.28
2745.19
2746.1
2747
2747.89
2748.75
2749.59
2750.39
2751.15
2751.87
2752.54
2753.13
2753.65
2754.08
2754.41
2754.63
2754.75
2754.75
2754.65
2754.43
2754.12
2753.7
2753.19
2752.6
2751.93
2751.21
2750.45
2749.65
2748.83
2747.98
2747.12
2746.24
2745.36
2744.48
2743.61
2742.76
2741.93
2741.13
2740.35
2739.62
2738.92
2738.26
2737.64
2737.06
2736.51
2735.99
2735.51
2735.06
2734.66
2734.31
2734.02
2733.8
2733.67
2733.64
2733.71
2733.91
2734.17
2315.6
2315.3
2315.08
2315.01
2315.09
2315.29
2315.58
2315.95
2316.38
2316.86
2317.39
2317.96
2318.56
2319.19
2319.84
2320.53
2321.25
2322.02
2322.83
2323.67
2324.54
2325.44
2326.37
2327.32
2328.29
2329.25
2330.22
2331.16
2332.09
2332.97
2333.83
2334.65
2335.43
2336.16
2336.83
2337.4
2337.87
2338.24
2338.48
2338.61
2338.62
2338.5
2338.27
2337.92
2337.46
2336.89
2336.23
2335.49
2334.7
2333.87
2333.02
2332.14
2331.24
2330.32
2329.38
2328.44
2327.51
2326.58
2325.68
2324.81
2323.97
2323.16
2322.39
2321.66
2320.98
2320.35
2319.75
2319.18
2318.64
2318.12
2317.63
2317.18
2316.79
2316.45
2316.19
2316.02
2315.95
2316.02
2316.24
2316.54
1897.83
1897.47
1897.21
1897.16
1897.29
1897.55
1897.91
1898.34
1898.83
1899.37
1899.95
1900.56
1901.19
1901.85
1902.53
1903.23
1903.97
1904.77
1905.61
1906.5
1907.41
1908.36
1909.34
1910.35
1911.38
1912.41
1913.44
1914.46
1915.44
1916.39
1917.3
1918.18
1919.03
1919.85
1920.59
1921.23
1921.76
1922.16
1922.44
1922.58
1922.58
1922.46
1922.2
1921.81
1921.3
1920.67
1919.93
1919.1
1918.22
1917.32
1916.4
1915.47
1914.5
1913.52
1912.52
1911.52
1910.52
1909.54
1908.58
1907.66
1906.78
1905.94
1905.13
1904.37
1903.67
1903.02
1902.42
1901.84
1901.27
1900.71
1900.18
1899.67
1899.22
1898.82
1898.5
1898.27
1898.16
1898.22
1898.48
1898.85
1480.04
1479.53
1479.21
1479.18
1479.38
1479.74
1480.2
1480.71
1481.27
1481.88
1482.51
1483.17
1483.84
1484.52
1485.21
1485.91
1486.66
1487.49
1488.38
1489.3
1490.26
1491.25
1492.28
1493.35
1494.45
1495.57
1496.67
1497.76
1498.81
1499.81
1500.77
1501.71
1502.65
1503.57
1504.41
1505.13
1505.72
1506.18
1506.48
1506.64
1506.64
1506.5
1506.21
1505.78
1505.21
1504.51
1503.67
1502.72
1501.73
1500.75
1499.78
1498.79
1497.77
1496.71
1495.64
1494.57
1493.5
1492.45
1491.44
1490.48
1489.56
1488.67
1487.83
1487.04
1486.31
1485.67
1485.09
1484.51
1483.9
1483.3
1482.71
1482.15
1481.62
1481.15
1480.75
1480.43
1480.25
1480.31
1480.64
1481.14
1062.42
1061.52
1061
1060.99
1061.32
1061.85
1062.43
1063.03
1063.68
1064.37
1065.07
1065.78
1066.5
1067.21
1067.89
1068.57
1069.31
1070.16
1071.1
1072.08
1073.08
1074.1
1075.18
1076.33
1077.51
1078.7
1079.9
1081.06
1082.18
1083.22
1084.2
1085.19
1086.24
1087.32
1088.3
1089.12
1089.8
1090.3
1090.64
1090.81
1090.82
1090.65
1090.33
1089.86
1089.23
1088.44
1087.47
1086.34
1085.18
1084.11
1083.12
1082.1
1081.03
1079.9
1078.75
1077.6
1076.46
1075.34
1074.26
1073.25
1072.3
1071.38
1070.48
1069.64
1068.89
1068.29
1067.78
1067.22
1066.57
1065.9
1065.23
1064.59
1063.97
1063.42
1062.91
1062.45
1062.16
1062.19
1062.71
1063.58
645.306
642.996
642.058
642.198
642.838
643.671
644.461
645.147
645.875
646.681
647.476
648.245
649.03
649.806
650.474
651.049
651.737
652.667
653.716
654.782
655.83
656.884
658.02
659.263
660.57
661.896
663.216
664.5
665.72
666.793
667.732
668.72
669.949
671.319
672.519
673.453
674.22
674.8
675.152
675.353
675.374
675.153
674.795
674.304
673.595
672.746
671.604
670.117
668.692
667.525
666.578
665.572
664.418
663.182
661.927
660.679
659.429
658.17
656.997
655.954
654.975
653.995
653.009
652.051
651.233
650.735
650.402
649.897
649.152
648.362
647.598
646.835
646.115
645.477
644.805
644.069
643.477
643.352
644.25
646.464
247.403
244.75
244.307
244.966
245.984
247.09
247.99
248.576
249.176
249.865
250.516
251.131
251.81
252.584
253.344
253.969
254.532
255.276
256.138
257.065
258.07
259.209
260.542
261.8
262.675
263.6
264.802
266.149
267.538
268.852
270.091
271.409
272.777
273.771
274.308
274.588
274.802
274.977
275.084
275.132
275.122
275.039
274.893
274.682
274.412
274.145
273.786
273.033
271.786
270.333
269.064
267.783
266.401
265.025
263.78
262.845
262.067
260.957
259.596
258.383
257.39
256.516
255.701
254.916
254.231
253.866
253.591
252.991
252.128
251.363
250.718
250.061
249.418
248.872
248.137
247.119
246.123
245.478
245.883
248.407
23.4357
23.0157
23.3133
23.7928
24.3212
24.8277
25.3416
25.9313
26.3129
26.5749
26.8009
27.033
27.2636
27.5188
27.9313
28.5225
28.9388
29.2095
29.476
29.8317
30.3121
30.9223
31.5799
32.0487
32.5024
32.8955
33.4116
34.0612
34.7794
35.5159
36.3254
37.0656
37.3671
37.1615
36.9269
36.7183
36.5139
36.3679
36.3041
36.2387
36.2049
36.2628
36.3058
36.3326
36.4474
36.5959
36.8658
37.2345
37.3762
36.7996
35.9956
35.2342
34.4858
33.791
33.209
32.7664
32.3018
31.9166
31.4019
30.7943
30.2829
29.9081
29.6357
29.4223
29.1859
28.776
28.0676
27.5836
27.3336
27.1487
26.9387
26.7136
26.3969
25.9023
25.3067
24.7925
24.2607
23.7786
23.4792
23.8776
-10.1692
-10.1714
-10.1672
-10.1898
-10.2036
-10.2469
-10.1371
-9.58027
-9.37867
-9.33101
-9.29517
-9.24282
-9.24625
-9.3414
-9.35248
-9.00145
-8.68886
-8.61881
-8.61369
-8.60959
-8.60778
-8.63797
-8.76946
-9.12243
-8.52016
-8.2848
-8.27799
-8.32295
-8.40681
-8.56405
-8.6774
-8.95214
-9.68877
-10.3051
-10.4187
-10.4166
-10.4211
-10.4226
-10.4216
-10.4195
-10.4199
-10.4232
-10.4227
-10.4214
-10.4179
-10.4143
-10.4063
-10.1294
-9.13904
-8.59047
-8.40208
-8.21796
-8.0979
-8.03012
-8.00494
-8.20418
-8.89854
-8.76906
-8.35071
-8.21836
-8.20316
-8.21183
-8.21951
-8.22289
-8.27873
-8.68359
-9.52151
-9.66935
-9.44159
-9.31703
-9.33529
-9.35981
-9.45658
-9.87817
-10.2321
-10.2033
-10.2025
-10.2006
-10.2133
-10.2019
-10.669
-10.6677
-10.663
-10.666
-10.6675
-10.6848
-10.6959
-10.5538
-10.4851
-10.4498
-10.4073
-10.3604
-10.3252
-10.312
-10.2737
-10.1422
-10.0365
-9.97252
-9.94385
-9.92444
-9.91337
-9.92052
-9.98114
-10.0984
-9.90716
-9.8466
-9.87204
-9.91213
-9.97121
-10.0735
-10.1626
-10.3702
-10.7352
-10.8912
-10.9032
-10.8971
-10.9035
-10.9072
-10.9095
-10.9102
-10.9109
-10.9111
-10.9089
-10.9048
-10.8992
-10.8952
-10.9043
-10.873
-10.5426
-10.176
-10.0238
-9.8969
-9.81075
-9.75697
-9.70906
-9.72091
-9.89986
-9.87899
-9.77113
-9.71994
-9.72547
-9.75052
-9.78641
-9.83158
-9.89987
-10.0821
-10.3092
-10.3645
-10.3488
-10.3614
-10.4073
-10.4528
-10.5151
-10.6583
-10.6957
-10.6826
-10.6871
-10.6912
-10.702
-10.7002
-11.1601
-11.1583
-11.1637
-11.1776
-11.1889
-11.2078
-11.2527
-11.3085
-11.3172
-11.2921
-11.2695
-11.248
-11.2282
-11.2094
-11.2001
-11.2258
-11.3066
-11.2865
-11.2747
-11.2671
-11.2636
-11.2698
-11.2846
-11.2527
-11.3447
-11.3765
-11.3942
-11.4051
-11.4124
-11.4158
-11.4205
-11.4223
-11.4171
-11.4091
-11.4019
-11.3981
-11.4007
-11.4022
-11.4026
-11.4025
-11.4031
-11.4038
-11.4025
-11.4013
-11.399
-11.3965
-11.4004
-11.406
-11.4129
-11.4154
-11.4104
-11.4048
-11.3967
-11.3886
-11.371
-11.3205
-11.1657
-11.1797
-11.2628
-11.2513
-11.2519
-11.261
-11.2744
-11.2955
-11.3172
-11.2495
-11.1654
-11.1626
-11.1945
-11.2293
-11.255
-11.2781
-11.2962
-11.2617
-11.2071
-11.1863
-11.1859
-11.1884
-11.1962
-11.1938
-11.6573
-11.6662
-11.6975
-11.7325
-11.7546
-11.7691
-11.7954
-11.8129
-11.8186
-11.8248
-11.8284
-11.8292
-11.8302
-11.833
-11.836
-11.8384
-11.8374
-11.8451
-11.8547
-11.86
-11.863
-11.866
-11.8728
-11.8815
-11.8804
-11.8826
-11.8883
-11.8922
-11.8938
-11.8949
-11.8959
-11.8963
-11.8962
-11.8979
-11.8965
-11.8962
-11.8966
-11.8968
-11.8966
-11.8964
-11.8965
-11.8967
-11.8958
-11.8961
-11.8962
-11.8931
-11.8912
-11.8909
-11.8913
-11.8895
-11.8866
-11.884
-11.881
-11.8771
-11.8728
-11.8695
-11.8727
-11.8637
-11.8489
-11.8442
-11.8416
-11.8379
-11.8294
-11.816
-11.8111
-11.8126
-11.8111
-11.8125
-11.8144
-11.8179
-11.8195
-11.8076
-11.8007
-11.7883
-11.7495
-11.7312
-11.7199
-11.7052
-11.6929
-11.6868
-12.1721
-12.2006
-12.2456
-12.2909
-12.3224
-12.3345
-12.3316
-12.3191
-12.316
-12.3188
-12.3189
-12.3185
-12.3197
-12.3216
-12.3244
-12.3281
-12.3318
-12.3385
-12.3442
-12.3486
-12.3526
-12.3569
-12.3612
-12.3654
-12.3706
-12.3753
-12.3788
-12.3819
-12.3849
-12.3878
-12.3911
-12.394
-12.3956
-12.3944
-12.3946
-12.3963
-12.3952
-12.3926
-12.3911
-12.39
-12.3896
-12.3897
-12.3903
-12.3936
-12.3957
-12.3922
-12.3884
-12.3922
-12.3922
-12.3867
-12.3808
-12.3757
-12.3713
-12.3666
-12.3614
-12.3566
-12.352
-12.3469
-12.3409
-12.3355
-12.3306
-12.3259
-12.3207
-12.3146
-12.3077
-12.3055
-12.303
-12.3008
-12.3028
-12.3091
-12.3111
-12.308
-12.3096
-12.3166
-12.3089
-12.297
-12.2705
-12.2388
-12.2055
-12.1891
-12.7055
-12.7497
-12.7822
-12.8265
-12.858
-12.8729
-12.8569
-12.8208
-12.8013
-12.799
-12.8013
-12.8041
-12.8077
-12.8115
-12.8153
-12.8195
-12.8239
-12.8288
-12.834
-12.839
-12.8436
-12.8483
-12.8528
-12.8572
-12.8612
-12.8652
-12.8689
-12.8719
-12.8746
-12.8772
-12.8806
-12.8818
-12.8842
-12.8881
-12.8945
-12.8983
-12.8952
-12.8885
-12.8849
-12.8831
-12.8822
-12.8822
-12.8841
-12.8905
-12.8957
-12.892
-12.8845
-12.8826
-12.8795
-12.8756
-12.8696
-12.8652
-12.8615
-12.8573
-12.8527
-12.8481
-12.8432
-12.8377
-12.8319
-12.8263
-12.8209
-12.8153
-12.8094
-12.8037
-12.7992
-12.7954
-12.7921
-12.789
-12.7878
-12.7885
-12.7898
-12.7944
-12.8118
-12.8392
-12.85
-12.8363
-12.8057
-12.7701
-12.7318
-12.7021
-13.2458
-13.2726
-13.2953
-13.333
-13.3628
-13.3796
-13.3592
-13.3131
-13.2817
-13.2766
-13.2829
-13.2894
-13.2947
-13.2995
-13.3042
-13.3091
-13.3143
-13.3197
-13.3251
-13.33
-13.3345
-13.3389
-13.3432
-13.3473
-13.3512
-13.355
-13.3585
-13.3617
-13.3647
-13.3676
-13.3715
-13.374
-13.374
-13.3799
-13.3907
-13.3958
-13.3911
-13.3813
-13.3764
-13.3746
-13.3733
-13.3731
-13.3756
-13.383
-13.3895
-13.3865
-13.3758
-13.371
-13.3687
-13.3648
-13.3592
-13.3549
-13.3509
-13.3466
-13.3421
-13.3375
-13.3328
-13.3277
-13.3223
-13.3169
-13.3116
-13.3061
-13.3002
-13.2942
-13.2887
-13.2839
-13.2794
-13.2754
-13.2714
-13.2667
-13.2648
-13.2767
-13.3079
-13.3472
-13.3651
-13.3516
-13.3222
-13.2868
-13.2577
-13.2201
-13.7634
-13.7683
-13.7866
-13.8119
-13.8376
-13.8549
-13.8323
-13.792
-13.7638
-13.76
-13.7674
-13.7753
-13.782
-13.7881
-13.7939
-13.7995
-13.8051
-13.8106
-13.8159
-13.8209
-13.8257
-13.8301
-13.8343
-13.8384
-13.8422
-13.8459
-13.8492
-13.8523
-13.8551
-13.8579
-13.8609
-13.8639
-13.864
-13.8693
-13.88
-13.8847
-13.8802
-13.871
-13.8658
-13.8646
-13.8634
-13.8629
-13.8648
-13.8707
-13.8758
-13.8729
-13.8635
-13.8584
-13.8563
-13.8528
-13.8488
-13.8451
-13.8414
-13.8374
-13.8331
-13.8285
-13.8237
-13.8185
-13.8132
-13.8077
-13.8021
-13.7963
-13.7904
-13.7845
-13.7786
-13.7728
-13.7674
-13.762
-13.7563
-13.7495
-13.7459
-13.7598
-13.7958
-13.8363
-13.8553
-13.8407
-13.8148
-13.7835
-13.7775
-13.7393
-14.2545
-14.251
-14.2627
-14.2766
-14.2919
-14.3003
-14.2889
-14.2633
-14.2474
-14.2474
-14.2546
-14.2628
-14.2705
-14.2776
-14.284
-14.2902
-14.2962
-14.302
-14.3074
-14.3125
-14.3173
-14.3217
-14.3258
-14.3298
-14.3335
-14.3369
-14.3402
-14.3431
-14.3457
-14.3482
-14.3511
-14.3529
-14.353
-14.356
-14.3629
-14.3664
-14.364
-14.3583
-14.3549
-14.354
-14.3531
-14.3525
-14.3533
-14.3562
-14.3582
-14.3553
-14.3489
-14.3455
-14.3441
-14.3421
-14.3388
-14.3356
-14.332
-14.3281
-14.3239
-14.3194
-14.3145
-14.3095
-14.3042
-14.2986
-14.2929
-14.2869
-14.2806
-14.2742
-14.2677
-14.2613
-14.2551
-14.249
-14.2426
-14.2362
-14.2326
-14.2421
-14.272
-14.3042
-14.3177
-14.3068
-14.2876
-14.267
-14.2709
-14.252
-14.7218
-14.7194
-14.7312
-14.7395
-14.7464
-14.7495
-14.7458
-14.7363
-14.7326
-14.7362
-14.7438
-14.7524
-14.7607
-14.7682
-14.7751
-14.7817
-14.788
-14.7939
-14.7994
-14.8045
-14.8092
-14.8136
-14.8177
-14.8215
-14.825
-14.8283
-14.8313
-14.8341
-14.8365
-14.8387
-14.8407
-14.8421
-14.8421
-14.843
-14.8462
-14.8488
-14.8485
-14.8462
-14.8447
-14.8439
-14.8434
-14.8429
-14.843
-14.8435
-14.843
-14.8402
-14.8363
-14.8343
-14.8335
-14.8318
-14.8293
-14.8264
-14.8231
-14.8193
-14.8152
-14.8108
-14.8061
-14.8009
-14.7955
-14.7898
-14.7838
-14.7775
-14.771
-14.7643
-14.7574
-14.7505
-14.7437
-14.7371
-14.7305
-14.7245
-14.7214
-14.7257
-14.7423
-14.7619
-14.7702
-14.765
-14.7565
-14.7497
-14.7511
-14.7488
-15.1857
-15.1884
-15.1991
-15.2078
-15.2122
-15.2146
-15.2159
-15.2161
-15.2193
-15.2256
-15.2341
-15.2432
-15.252
-15.2599
-15.2672
-15.274
-15.2804
-15.2863
-15.2918
-15.2969
-15.3015
-15.3058
-15.3098
-15.3135
-15.317
-15.3202
-15.323
-15.3256
-15.328
-15.3299
-15.3315
-15.3325
-15.3327
-15.3328
-15.3342
-15.336
-15.3368
-15.3364
-15.3356
-15.3349
-15.3345
-15.3341
-15.3339
-15.3335
-15.3322
-15.3298
-15.3272
-15.3257
-15.3247
-15.323
-15.3207
-15.3179
-15.3147
-15.3111
-15.3071
-15.3026
-15.2978
-15.2926
-15.2871
-15.2812
-15.275
-15.2684
-15.2615
-15.2544
-15.247
-15.2397
-15.2325
-15.2256
-15.2191
-15.2136
-15.2105
-15.2117
-15.2186
-15.2283
-15.2336
-15.2331
-15.233
-15.2363
-15.234
-15.2414
-15.6488
-15.6571
-15.6693
-15.6817
-15.6881
-15.692
-15.6955
-15.6998
-15.7062
-15.7148
-15.7248
-15.7348
-15.7442
-15.7527
-15.7602
-15.7672
-15.7735
-15.7794
-15.7848
-15.7897
-15.7943
-15.7985
-15.8023
-15.8059
-15.8092
-15.8123
-15.815
-15.8175
-15.8197
-15.8215
-15.823
-15.824
-15.8245
-15.8247
-15.8257
-15.8269
-15.8277
-15.8277
-15.8273
-15.8267
-15.8263
-15.826
-15.8257
-15.825
-15.8236
-15.8217
-15.8197
-15.8182
-15.8168
-15.8149
-15.8126
-15.8099
-15.8067
-15.8032
-15.7992
-15.7948
-15.79
-15.7847
-15.7791
-15.773
-15.7665
-15.7596
-15.7523
-15.7447
-15.7368
-15.7289
-15.7213
-15.714
-15.7074
-15.7021
-15.6989
-15.6986
-15.702
-15.7072
-15.7109
-15.7127
-15.7137
-15.7163
-15.709
-15.7152
-16.1082
-16.1159
-16.1367
-16.1557
-16.1653
-16.1705
-16.1759
-16.1829
-16.1924
-16.2038
-16.2159
-16.2274
-16.2376
-16.2465
-16.2542
-16.2611
-16.2674
-16.273
-16.2782
-16.283
-16.2874
-16.2915
-16.2952
-16.2986
-16.3018
-16.3047
-16.3073
-16.3097
-16.3117
-16.3135
-16.3149
-16.316
-16.3168
-16.3173
-16.3181
-16.319
-16.3197
-16.3198
-16.3194
-16.3189
-16.3186
-16.3183
-16.3179
-16.3172
-16.3159
-16.3142
-16.3125
-16.3109
-16.3093
-16.3073
-16.305
-16.3023
-16.2992
-16.2957
-16.2917
-16.2873
-16.2825
-16.2772
-16.2715
-16.2652
-16.2584
-16.2512
-16.2434
-16.2352
-16.2267
-16.2182
-16.2098
-16.2021
-16.1948
-16.1893
-16.1857
-16.1845
-16.1859
-16.1888
-16.1914
-16.1931
-16.193
-16.1895
-16.1762
-16.1765
-16.5567
-16.5631
-16.5938
-16.6233
-16.6373
-16.6453
-16.6538
-16.6641
-16.6774
-16.6928
-16.7081
-16.7214
-16.7324
-16.7415
-16.7491
-16.7559
-16.7619
-16.7673
-16.7722
-16.7767
-16.7809
-16.7848
-16.7884
-16.7917
-16.7947
-16.7974
-16.7999
-16.8022
-16.8041
-16.8058
-16.8072
-16.8083
-16.8092
-16.8099
-16.8107
-16.8114
-16.812
-16.8121
-16.8115
-16.8114
-16.8111
-16.8108
-16.8104
-16.8097
-16.8085
-16.807
-16.8054
-16.8038
-16.8021
-16.8001
-16.7977
-16.7951
-16.792
-16.7886
-16.7847
-16.7804
-16.7756
-16.7703
-16.7644
-16.7579
-16.7509
-16.7432
-16.7349
-16.726
-16.7168
-16.7073
-16.698
-16.6893
-16.6816
-16.6754
-16.6711
-16.6689
-16.6688
-16.6701
-16.6719
-16.6732
-16.6714
-16.6626
-16.6477
-16.6458
-16.992
-16.9976
-17.0354
-17.0806
-17.1036
-17.1164
-17.1287
-17.1434
-17.1617
-17.1824
-17.2024
-17.2175
-17.2292
-17.2379
-17.2452
-17.2515
-17.2572
-17.262
-17.2666
-17.2709
-17.2748
-17.2785
-17.2818
-17.285
-17.2878
-17.2904
-17.2928
-17.2949
-17.2968
-17.2984
-17.2998
-17.3009
-17.3018
-17.3026
-17.3033
-17.304
-17.3045
-17.3045
-17.3038
-17.3041
-17.3038
-17.3035
-17.3031
-17.3024
-17.3012
-17.2999
-17.2985
-17.2969
-17.2951
-17.2931
-17.2909
-17.2882
-17.2853
-17.2819
-17.2781
-17.2739
-17.2691
-17.2638
-17.2579
-17.2513
-17.244
-17.2358
-17.2269
-17.2173
-17.207
-17.1964
-17.186
-17.1762
-17.1678
-17.161
-17.1559
-17.1528
-17.1518
-17.1517
-17.1521
-17.1522
-17.1476
-17.1331
-17.1154
-17.109
-17.4259
-17.4295
-17.4691
-17.5259
-17.563
-17.5866
-17.6039
-17.62
-17.6441
-17.6736
-17.6992
-17.7169
-17.729
-17.7358
-17.7424
-17.7479
-17.7529
-17.7573
-17.7615
-17.7654
-17.7691
-17.7725
-17.7756
-17.7786
-17.7812
-17.7837
-17.7859
-17.7879
-17.7897
-17.7912
-17.7926
-17.7937
-17.7946
-17.7954
-17.7961
-17.7967
-17.797
-17.7971
-17.7964
-17.7969
-17.7966
-17.7963
-17.7959
-17.7952
-17.7942
-17.793
-17.7917
-17.7901
-17.7884
-17.7865
-17.7843
-17.7818
-17.7789
-17.7757
-17.772
-17.7679
-17.7632
-17.758
-17.7521
-17.7454
-17.7378
-17.7293
-17.7197
-17.7091
-17.6977
-17.6857
-17.6737
-17.6623
-17.6528
-17.6455
-17.64
-17.6369
-17.6358
-17.6344
-17.6326
-17.6302
-17.6207
-17.5984
-17.5738
-17.5658
-17.8877
-17.8878
-17.9275
-17.9863
-18.023
-18.055
-18.0833
-18.1045
-18.1364
-18.174
-18.2033
-18.2217
-18.2323
-18.236
-18.2409
-18.2452
-18.2492
-18.2531
-18.2568
-18.2603
-18.2636
-18.2668
-18.2697
-18.2724
-18.2749
-18.2772
-18.2793
-18.2811
-18.2828
-18.2843
-18.2855
-18.2866
-18.2875
-18.2883
-18.289
-18.2895
-18.2897
-18.2899
-18.2895
-18.2896
-18.2895
-18.2893
-18.2889
-18.2882
-18.2873
-18.2863
-18.285
-18.2836
-18.282
-18.2801
-18.278
-18.2756
-18.2729
-18.2698
-18.2664
-18.2624
-18.2579
-18.2528
-18.247
-18.2403
-18.2326
-18.2238
-18.2136
-18.202
-18.189
-18.1752
-18.1613
-18.147
-18.1379
-18.1321
-18.1275
-18.1247
-18.1234
-18.1186
-18.1118
-18.1042
-18.0873
-18.0583
-18.0322
-18.0243
-18.3932
-18.3773
-18.4132
-18.4804
-18.5335
-18.5659
-18.5965
-18.6195
-18.6489
-18.6825
-18.7129
-18.7321
-18.7398
-18.7387
-18.7405
-18.7431
-18.746
-18.7492
-18.7523
-18.7554
-18.7584
-18.7613
-18.764
-18.7665
-18.7688
-18.7709
-18.7728
-18.7745
-18.7761
-18.7775
-18.7787
-18.7797
-18.7806
-18.7813
-18.7819
-18.7824
-18.7826
-18.7828
-18.7826
-18.7826
-18.7825
-18.7823
-18.782
-18.7814
-18.7806
-18.7797
-18.7785
-18.7772
-18.7757
-18.774
-18.772
-18.7698
-18.7673
-18.7644
-18.7612
-18.7575
-18.7533
-18.7484
-18.7428
-18.7363
-18.7286
-18.7196
-18.7089
-18.6963
-18.6816
-18.6653
-18.6492
-18.6367
-18.6321
-18.6366
-18.6413
-18.6431
-18.6384
-18.6281
-18.6102
-18.5887
-18.5582
-18.5198
-18.4958
-18.4921
-18.921
-18.8893
-18.9216
-19.0036
-19.0719
-19.1273
-19.1678
-19.1982
-19.2089
-19.2138
-19.2291
-19.2448
-19.2477
-19.2431
-19.2404
-19.2411
-19.243
-19.2454
-19.248
-19.2508
-19.2534
-19.256
-19.2584
-19.2607
-19.2628
-19.2648
-19.2665
-19.2681
-19.2696
-19.2709
-19.272
-19.273
-19.2738
-19.2745
-19.2751
-19.2755
-19.2758
-19.2759
-19.2759
-19.2757
-19.2757
-19.2756
-19.2753
-19.2748
-19.2741
-19.2732
-19.2722
-19.271
-19.2696
-19.2681
-19.2663
-19.2643
-19.262
-19.2594
-19.2565
-19.2531
-19.2492
-19.2448
-19.2396
-19.2334
-19.226
-19.2171
-19.2062
-19.1928
-19.1762
-19.155
-19.1426
-19.1415
-19.155
-19.1814
-19.2128
-19.2296
-19.2213
-19.1898
-19.1404
-19.0807
-19.0361
-19.0088
-18.9862
-18.9856
-19.4764
-19.4577
-19.4941
-19.5786
-19.6576
-19.7316
-19.7803
-19.8176
-19.8176
-19.7932
-19.7691
-19.7577
-19.7522
-19.7459
-19.7391
-19.7386
-19.7397
-19.7416
-19.7438
-19.7462
-19.7486
-19.7509
-19.7531
-19.7551
-19.7571
-19.7588
-19.7604
-19.7619
-19.7632
-19.7644
-19.7655
-19.7664
-19.7671
-19.7678
-19.7683
-19.7687
-19.769
-19.7691
-19.7692
-19.769
-19.7691
-19.769
-19.7687
-19.7683
-19.7677
-19.7669
-19.766
-19.765
-19.7638
-19.7624
-19.7608
-19.7591
-19.7571
-19.7548
-19.7522
-19.7492
-19.7459
-19.7419
-19.7373
-19.7318
-19.7251
-19.7168
-19.7064
-19.6929
-19.6725
-19.651
-19.6516
-19.6789
-19.7205
-19.7791
-19.8377
-19.8616
-19.8406
-19.7824
-19.6895
-19.5905
-19.5463
-19.5062
-19.4804
-19.5021
-20.0746
-20.0778
-20.1248
-20.1904
-20.2707
-20.3593
-20.4327
-20.4736
-20.4656
-20.4164
-20.3518
-20.2868
-20.2531
-20.2419
-20.2367
-20.2351
-20.2362
-20.2376
-20.2396
-20.2417
-20.2438
-20.2459
-20.2479
-20.2497
-20.2515
-20.253
-20.2545
-20.2558
-20.257
-20.2581
-20.259
-20.2599
-20.2606
-20.2612
-20.2617
-20.2621
-20.2624
-20.2625
-20.2626
-20.2625
-20.2626
-20.2625
-20.2623
-20.2619
-20.2614
-20.2608
-20.26
-20.2591
-20.2581
-20.2569
-20.2556
-20.2541
-20.2524
-20.2505
-20.2483
-20.2458
-20.243
-20.2398
-20.2359
-20.2314
-20.2258
-20.2188
-20.2105
-20.1979
-20.1685
-20.161
-20.1913
-20.2477
-20.3097
-20.3885
-20.4568
-20.4821
-20.4545
-20.3783
-20.2733
-20.1677
-20.1073
-20.0354
-20.0129
-20.0501
-20.6999
-20.7032
-20.7415
-20.7997
-20.863
-20.9591
-21.0571
-21.1129
-21.1151
-21.0631
-20.9664
-20.852
-20.7626
-20.7325
-20.733
-20.7309
-20.7323
-20.7336
-20.7354
-20.7373
-20.7392
-20.741
-20.7428
-20.7445
-20.746
-20.7474
-20.7487
-20.7499
-20.7509
-20.7519
-20.7528
-20.7535
-20.7541
-20.7547
-20.7552
-20.7555
-20.7558
-20.756
-20.7561
-20.7561
-20.7562
-20.7562
-20.756
-20.7557
-20.7553
-20.7548
-20.7541
-20.7534
-20.7525
-20.7516
-20.7505
-20.7493
-20.7479
-20.7464
-20.7447
-20.7428
-20.7407
-20.7382
-20.7354
-20.7321
-20.7282
-20.7232
-20.7182
-20.7109
-20.6839
-20.6911
-20.748
-20.8134
-20.8921
-20.98
-21.0463
-21.0695
-21.0383
-20.9549
-20.8615
-20.7813
-20.6982
-20.6301
-20.6132
-20.639
-21.3111
-21.3042
-21.3236
-21.3759
-21.4277
-21.5207
-21.6299
-21.6884
-21.6933
-21.6539
-21.5682
-21.4378
-21.2916
-21.2274
-21.2273
-21.2272
-21.2281
-21.2297
-21.2313
-21.233
-21.2347
-21.2363
-21.2379
-21.2393