/*--------------------------------*- C++ -*----------------------------------*\
| =========                 |                                                 |
| \\      /  F ield         | OpenFOAM: The Open Source CFD Toolbox           |
|  \\    /   O peration     | Version:  2412                                  |
|   \\  /    A nd           | Website:  www.openfoam.com                      |
|    \\/     M anipulation  |                                                 |
\*---------------------------------------------------------------------------*/
FoamFile
{
    version     2.0;
    format      ascii;
    arch        "LSB;label=32;scalar=64";
    class       volScalarField;
    location    "2.9";
    object      p;
}
// * * * * * * * * * * * * * * * * * * * * * * * * * * * * * * * * * * * * * //

dimensions      [1 -1 -2 0 0 0 0];

internalField   nonuniform List<scalar> 
6400
(
131810
131809
131803
131791
131774
131752
131723
131690
131651
131608
131559
131505
131447
131383
131314
131241
131163
131080
130993
130902
130806
130707
130605
130501
130395
130288
130180
130074
129969
129868
129771
129680
129595
129518
129450
129393
129347
129314
129293
129286
129292
129312
129344
129390
129448
129516
129595
129683
129779
129881
129987
130098
130210
130323
130436
130547
130656
130762
130865
130963
131056
131145
131228
131306
131379
131447
131510
131568
131622
131670
131714
131754
131788
131818
131843
131863
131878
131888
131893
131893
125173
125172
125166
125155
125138
125116
125088
125056
125017
124974
124926
124872
124814
124751
124682
124609
124531
124448
124361
124269
124173
124073
123971
123865
123758
123650
123542
123434
123328
123225
123127
123034
122948
122870
122801
122743
122696
122662
122641
122633
122639
122659
122692
122738
122797
122867
122947
123037
123134
123237
123345
123457
123571
123686
123800
123912
124022
124129
124232
124331
124425
124514
124597
124675
124748
124816
124878
124936
124989
125037
125080
125119
125153
125182
125207
125226
125241
125250
125255
125255
118539
118538
118533
118523
118506
118485
118458
118426
118388
118345
118298
118245
118187
118123
118055
117982
117904
117821
117733
117640
117544
117443
117339
117232
117123
117013
116902
116792
116684
116579
116477
116382
116293
116212
116141
116081
116032
115997
115974
115966
115972
115993
116027
116075
116135
116207
116290
116382
116482
116589
116700
116815
116932
117049
117166
117279
117392
117500
117605
117704
117798
117887
117971
118049
118122
118189
118251
118309
118361
118408
118451
118489
118522
118551
118575
118593
118607
118616
118620
118620
111908
111908
111904
111895
111879
111859
111832
111801
111764
111722
111674
111622
111564
111501
111433
111360
111281
111198
111109
111016
110918
110816
110710
110601
110489
110376
110263
110149
110037
109928
109823
109723
109630
109546
109471
109407
109356
109318
109294
109286
109292
109313
109348
109398
109461
109537
109624
109720
109824
109935
110051
110171
110291
110413
110532
110650
110765
110875
110981
111082
111177
111266
111350
111428
111501
111567
111629
111686
111737
111784
111826
111863
111896
111924
111947
111965
111977
111985
111988
111987
105281
105282
105279
105271
105257
105237
105212
105181
105145
105103
105056
105004
104946
104884
104816
104742
104663
104579
104490
104395
104296
104192
104084
103972
103857
103740
103622
103504
103387
103273
103162
103057
102959
102869
102789
102721
102666
102626
102600
102590
102596
102618
102656
102708
102776
102856
102948
103050
103160
103277
103399
103524
103651
103777
103902
104023
104141
104255
104363
104465
104561
104651
104735
104812
104884
104951
105012
105067
105118
105164
105206
105242
105274
105301
105323
105340
105351
105358
105359
105357
98656.5
98659
98657.6
98650.7
98638.1
98619.7
98595.6
98565.8
98530.4
98489.4
98443
98391.2
98334
98271.3
98203.3
98129.7
98050.5
97965.8
97875.4
97779.4
97678.1
97571.7
97460.7
97345.4
97226.7
97105.3
96982.1
96858.3
96735.1
96614
96496.4
96384.5
96278
96181.8
96095.9
96022.4
95962.7
95918.1
95889.8
95878.3
95884.1
95907.4
95947.7
96004.5
96076.5
96162.7
96261.4
96370.8
96489.1
96614.2
96744.1
96876.7
97010.4
97143.3
97273.7
97400.4
97522.5
97639
97749.4
97853.3
97950.4
98040.7
98124.4
98201.8
98273.1
98338.7
98398.8
98453.8
98503.8
98549.1
98589.5
98625.2
98656
98681.8
98702.5
98717.9
98728
98732.9
98732.8
98729.3
92033.6
92038.1
92038.9
92034.1
92023.4
92006.7
91984
91955.4
91920.9
91880.7
91834.8
91783.4
91726.5
91664.1
91596.1
91522.4
91442.9
91357.4
91266
91168.6
91065.2
90956.1
90841.6
90722.3
90598.8
90471.8
90342.4
90211.5
90080.7
89951.5
89824.9
89703.9
89589.5
89484.5
89390.6
89309.9
89244.1
89194.7
89162.8
89149.5
89155.1
89180
89223.6
89285.1
89363.5
89457.1
89564.3
89683
89811.1
89946.2
90085.8
90228
90370.5
90511.4
90649
90782
90908.8
91029.1
91142.3
91248
91346.1
91436.6
91520.1
91596.7
91667.1
91731.5
91790.6
91844.6
91893.6
91937.9
91977.3
92012.1
92041.9
92066.4
92085.6
92099.3
92107.5
92110.2
92107.7
92102
85411
85418.5
85422.4
85420.3
85412.1
85397.6
85376.6
85349.4
85316.1
85276.6
85231.5
85180.6
85124
85061.8
84994
84920.3
84840.5
84754.5
84662.1
84563
84457.4
84345.2
84226.9
84103
83974.1
83840.6
83703.8
83564.6
83424.4
83285.2
83148.4
83016.6
82891.6
82776.1
82672.3
82582.6
82509.2
82453.7
82417.6
82401.8
82407
82434
82481.5
82549
82635
82738
82855.7
82985.9
83125.8
83272.9
83424.8
83578.6
83731.9
83882.5
84028.6
84168.8
84301.7
84425.8
84541.9
84649.5
84748.4
84838.9
84921.6
84997
85066
85129
85186.6
85239.3
85287.2
85330.4
85368.6
85402.6
85431.2
85454.3
85471.7
85483.2
85488.7
85488.5
85482.9
85474
78786.5
78798.5
78806.7
78808.3
78803.3
78791.5
78772.9
78747.5
78715.6
78677.1
78632.8
78582.4
78526.3
78464.5
78397
78323.5
78243.7
78157.4
78064
77963.5
77855.4
77740
77617.5
77488.3
77353.6
77212.6
77067.4
76918.2
76767.2
76616.1
76467
76322.2
76184.3
76055.9
75939.9
75839.4
75756.5
75693.5
75652
75633.3
75638.1
75666.8
75719.4
75794.2
75889.7
76004
76134.6
76278.7
76433.3
76595.3
76761.7
76929.4
77095.5
77257.7
77413.8
77562.1
77701.6
77831.2
77949.3
78058.8
78158.1
78247.9
78329.2
78402.8
78469.6
78530.6
78586.4
78637.4
78684.1
78726.3
78764
78796.3
78823.4
78844.7
78859.9
78868.7
78870.8
78866.7
78856.5
78843
72157.1
72175.9
72190.1
72196.7
72195.8
72187.6
72172
72149
72119
72082
72038.3
71988.5
71932.9
71871.7
71804.8
71732
71652.6
71566.3
71472.4
71370.4
71260.1
71141.3
71014.2
70878.6
70739.2
70589.2
70433.7
70273.3
70109.8
69944.9
69781.1
69620.9
69467.3
69323.4
69192.5
69078.6
68984.2
68912
68863.8
68841.4
68845.5
68876.5
68934.6
69018.7
69125.6
69253.6
69399.8
69560.9
69733.2
69913.1
70097.1
70281.3
70462.6
70638.3
70805.9
70963.7
71110.3
71244.8
71366.8
71477.1
71575.8
71664.1
71742.9
71813.6
71877.5
71935.6
71989
72038.1
72083.2
72124.3
72160.9
72192.1
72217.6
72236.9
72249.3
72254.5
72252.2
72242.8
72226.3
72205.8
65517.6
65547.3
65570.1
65583
65587.6
65584.2
65572.7
65553
65525.3
65489.7
65447
65397.9
65343.1
65282.8
65217
65145.4
65067.2
64981.5
64887.6
64784.7
64672.3
64550.3
64418.8
64278.2
64129.1
63970.7
63804.3
63631.3
63453.3
63272.5
63091.2
62912.8
62740.4
62577.9
62429.3
62298.5
62190.1
62106.5
62050.2
62023
62026.1
62059.9
62123.9
62220
62340.4
62485
62650
62831.5
63025.1
63226.4
63431.1
63635.3
63834.7
64026.1
64207
64375.4
64529.8
64669.7
64794.8
64905.5
65002.1
65087.6
65162.8
65229.3
65288.8
65343.1
65393.2
65439.9
65483.4
65523.3
65558.9
65588.9
65612.7
65629.3
65638.1
65638.6
65630.6
65614.1
65588.5
65557.4
58860.6
58908
58943
58963.9
58975.6
58978.9
58973.3
58958.1
58933.3
58899.4
58857.7
58809.4
58755.5
58696.6
58632.7
58563.2
58487.1
58403.2
58310.1
58206.8
58092.8
57968.1
57832.2
57685.3
57527.7
57359.4
57181.1
56993.8
56799.4
56599.9
56398.4
56198.4
56003.6
55818.7
55649.1
55497
55371.6
55274.2
55207.7
55174.5
55176.3
55213.5
55285.9
55392.6
55530.7
55695.6
55883.4
56089.6
56308.8
56535.9
56765.6
56993.4
57213.7
57423.4
57619.5
57799.7
57962.5
58107.5
58235
58346.4
58436.9
58518.9
58588.5
58648.8
58702.2
58751.1
58797.1
58840.8
58882.4
58921.3
58956
58984.9
59006.6
59019.9
59023.8
59017.9
59002.4
58976.9
58938.3
58890.1
52172.7
52248.9
52301.6
52332.9
52354.4
52368
52371.4
52362.8
52341.7
52309.7
52268.7
52221
52168.2
52111.3
52050.3
51984.4
51912.1
51831.5
51740.5
51637.7
51523.2
51395.6
51255.3
51102.2
50936.2
50757.3
50566
50363
50149.8
49929
49703.8
49478.4
49256.8
49044.6
48850.5
48678.4
48526.7
48411.6
48332.5
48291.5
48291.1
48332.2
48414.2
48535.2
48693.1
48882.7
49098.2
49334.1
49584.1
49841.9
50101.1
50355.8
50601.9
50833.1
51046.4
51239.5
51411.1
51560.7
51689
51797
51885.5
51959
52019.7
52070.8
52115.7
52157.2
52197.6
52237.8
52277.5
52315.5
52349.8
52377.4
52397
52405.5
52402.2
52387.2
52361.6
52324.2
52267
52191.6
45432.4
45555.3
45632.2
45676.8
45714.2
45745.4
45763.8
45765
45748.9
45718.5
45677.6
45629.9
45578.2
45524
45467.4
45407.2
45341.1
45266.2
45179.3
45078.7
44963.7
44834.1
44689.8
44530.7
44356.5
44166.8
43961.7
43741.6
43506.8
43261.5
43008.4
42754
42500.4
42252.5
42029.8
41829.9
41658.4
41514.7
41419.7
41368.3
41364.7
41410.2
41503.7
41642.8
41823.4
42042.7
42291.6
42563.7
42850.7
43145.4
43440.2
43728.1
44003.2
44258.9
44491.7
44698.8
44879
45032.4
45159.9
45263.2
45344.8
45406.8
45455
45493.1
45525.8
45557.3
45590.4
45626.2
45664.1
45702
45736.7
45764.5
45780.4
45781.7
45766.7
45736.8
45695.3
45641.3
45557.7
45440
38624.4
38815.5
38920.3
38975
39038
39101.4
39145.5
39162.2
39152.6
39123
39080.7
39031.9
38980.8
38930.1
38880.1
38828.9
38772.8
38707
38627.1
38530.3
38416.2
38285.2
38137.6
37973.2
37791.2
37590.7
37371.3
37134.1
36872.8
36598.8
36310
36018.6
35730.3
35450.4
35190.2
34953.7
34749.7
34588.9
34464.8
34397.5
34389.4
34440
34547.5
34708.8
34918.4
35170.3
35460.3
35777
36108.5
36447.4
36784.7
37111.6
37420.2
37705.4
37960.4
38182.5
38371
38526.5
38650.9
38746.3
38815.9
38863.1
38892.7
38912.2
38927.8
38945.3
38968.8
38999.6
39036.3
39075.4
39111.8
39139.6
39151.2
39141.2
39106.7
39050.6
38984.7
38913.2
38795.8
38614.2
31721.5
31947.1
32084
32176.4
32298.8
32424.5
32512.5
32549.8
32546.5
32516
32470.5
32419.2
32368.7
32323
32283
32245.7
32205
32154
32084.8
31993.8
31881.7
31750
31599.9
31431.3
31242.6
31031.5
30796.5
30532
30250.8
29945.2
29617.3
29283.4
28952.1
28628.3
28323
28044.9
27800
27606.1
27460.7
27366.9
27354.7
27412.4
27537.1
27726
27970.7
28264.1
28597.9
28973.3
29357.3
29749.5
30137.8
30511.5
30861.3
31179.3
31458.8
31696.3
31891.9
32047.3
32165.1
32248.5
32301
32326.9
32330.5
32323.9
32315
32313.1
32323.8
32348.6
32384.7
32426.3
32466
32495
32502.2
32476.5
32409.4
32306.2
32193.2
32086
31927.2
31692.8
24637.4
24746.9
24898
25157.3
25464.5
25719.6
25877.2
25937.4
25935.8
25897.4
25843
25784.9
25732.2
25691.7
25665.7
25649.5
25632.2
25605.2
25550.3
25467.7
25358.4
25226.4
25074.8
24903.9
24711.4
24492
24241.8
23962.1
23650.2
23305.8
22934.5
22549.9
22168.5
21787.7
21427.1
21095
20806
20573.4
20394.6
20259.8
20255
20322.1
20466.3
20690.2
20976.5
21319.1
21712
22142.9
22594.1
23052.1
23502.3
23931.9
24330.1
24686.4
24992.6
25244.6
25444.9
25596.5
25703.3
25769.3
25797.9
25793.8
25763.4
25719.1
25675.2
25646.5
25641.3
25661.2
25700.5
25749.8
25797.7
25832.6
25837.6
25788.6
25664.9
25459.2
25205.6
24970.4
24785.7
24615.4
17290.5
17254.8
17453
17960.3
18571.6
19030.7
19287.1
19346
19324.1
19261.4
19189.5
19118.9
19059.4
19022.6
19014.4
19028.1
19045.8
19046.3
19012.4
18940.1
18834.2
18702.6
18551.3
18381.6
18191.4
17968.9
17710.3
17412.4
17072.1
16687.1
16263.3
15815
15348.8
14929.1
14507.2
14106.1
13760.6
13501.4
13345.3
13228.5
13149.5
13188.6
13335
13604
13933.4
14333.5
14789.6
15289.9
15816.4
16350.4
16872.9
17368.9
17825.2
18227.1
18561.7
18824
19025.2
19167.9
19257
19298.5
19296.4
19254
19178.4
19085.4
18993.7
18931.2
18908.8
18927.6
18976.6
19040.3
19103
19153.8
19169.5
19098.3
18886.3
18514.4
18022.8
17582.4
17348.4
17295.7
9765.08
9613.16
10119.2
11087.6
11942.9
12481.9
12641.7
12809.7
12743.3
12629.9
12525.4
12428
12349.2
12309.1
12319.2
12367.6
12425.2
12458.4
12444.9
12381.6
12277.7
12145.4
11995.9
11833.2
11655
11443.9
11185
10877.5
10520.7
10105
9634.52
9130.6
8628.06
8112.64
7601.89
7097.14
6659.46
6313.26
6033.62
5893.57
5854.31
5932.27
6126.04
6421.2
6807.49
7274.62
7812.69
8410.34
9028.14
9647.53
10246.8
10813.5
11335.3
11789.5
12150.9
12413.4
12609.3
12734.8
12798.1
12807.8
12769.9
12685.6
12558.7
12406.7
12261.3
12158.6
12123.5
12154.1
12229.5
12323.3
12411.4
12502.6
12547.1
12469.5
12275.7
11836.7
11096
10187.1
9717.56
9817.65
3612.02
3114.81
3408.47
4968.94
6179.26
6778.9
6927.16
6694.63
6349.75
6075.45
5907.84
5766.73
5652.95
5593.42
5609.46
5688.04
5788.4
5858.7
5870.86
5823.08
5727.13
5602.63
5472.59
5350.28
5219.77
5054.31
4833.58
4561.34
4249.85
3890.84
3493.23
3072.85
2647.22
2221.45
1871.36
1561.83
1327.71
1162
1053.01
999.372
993.331
1042.65
1138.92
1288.95
1496.35
1760.61
2069.24
2479.5
2940
3434.34
3945.33
4467.08
4985.91
5456.72
5817.19
6026.56
6193.91
6275.78
6295.56
6263.38
6189.82
6072.26
5905.07
5703.94
5514.18
5389.03
5365.38
5431.62
5555.6
5710.35
5860.69
6126.98
6384.3
6467.98
6465.3
5971.86
4826.18
3408.57
3243.97
3664.96
842.33
811.853
484.233
1032.42
2052.68
2572.66
2560.57
2217.86
1713.39
1398.63
1283.59
1192.72
1122.96
1086.75
1094.85
1141.36
1203.43
1245.47
1253.94
1231.28
1185.68
1132.41
1086.75
1056.95
1026.29
977.962
888.417
756.371
605.163
441.592
294.423
172.307
76.2869
5.916
-6.73513
-6.65671
-6.48861
-6.38071
-6.26654
-6.15452
-6.04391
-5.95716
-5.85821
-5.77513
-5.80597
-6.0899
-4.37977
40.9188
147.433
291.184
473.504
698.727
958.448
1207.55
1381.8
1463.6
1498.42
1508.24
1490.41
1452.05
1403.74
1344.09
1258.73
1151.95
1051.32
988.046
984.451
1031.22
1110.61
1198.01
1328.48
1656.61
2051.37
2296.21
2250.62
1803.08
957.415
548.397
839.821
887.964
453.029
323.024
168.792
74.8449
130.352
395.698
388.721
241.892
76.3219
16.7623
-0.802504
-6.27068
-8.0886
-9.45509
-11.1337
-12.1303
-11.1538
-9.75715
-9.8756
-10.0587
-8.85847
-8.46257
-8.27563
-7.22155
-7.13405
-7.3455
-7.51358
-7.59836
-7.67485
-7.65751
-7.60637
-7.51921
-7.27574
-6.91122
-7.09754
-7.05651
-6.98822
-6.91274
-6.82537
-6.73141
-6.63385
-6.53325
-6.42602
-6.3147
-6.22564
-6.13531
-5.72144
-5.80901
-5.95205
-5.88076
-5.66533
-5.43132
-5.20935
-4.94086
-4.53411
-4.00954
-3.14987
-2.00113
-2.47011
-5.08103
-6.16267
-1.90325
2.75414
1.82699
-2.44463
-3.09526
-1.70065
0.279381
2.2945
3.17846
14.2993
75.2341
222.852
328.078
289.996
114.831
131.953
242.748
409.027
481.803
259.344
84.1862
41.3884
16.2193
2.60641
6.51912
3.84185
3.09014
0.47768
-5.38655
-10.0598
-12.0985
-12.8777
-13.9273
-15.2153
-15.6105
-14.7309
-13.1413
-11.7792
-11.3099
-10.2213
-7.87494
-6.42245
-6.6805
-7.2095
-7.51025
-7.6741
-7.78729
-7.86898
-7.89565
-7.86723
-7.80868
-7.74158
-7.64927
-7.64615
-7.66107
-7.57573
-7.48326
-7.39474
-7.30458
-7.21144
-7.11463
-7.01215
-6.9051
-6.78872
-6.62365
-6.39458
-6.31024
-6.18291
-6.02885
-5.83209
-5.59596
-5.32163
-5.00352
-4.59772
-3.97828
-3.15322
-2.77971
-3.68149
-5.67466
-7.60337
-7.89594
-6.80419
-5.62546
-6.16275
-7.22848
-6.35397
-4.8035
-4.13674
-4.69966
-2.5631
10.4696
31.6208
52.0314
66.4207
68.1181
67.861
99.4977
175.654
339.699
124.739
22.6431
8.08822
3.11023
0.0439694
-4.00314
-7.5283
-6.63141
-6.97012
-8.5734
-10.5115
-12.0485
-13.0853
-13.824
-14.2489
-14.0409
-13.1061
-11.8733
-10.9629
-10.6645
-10.2314
-9.25048
-8.3426
-8.0324
-8.12031
-8.26152
-8.37542
-8.45432
-8.4987
-8.48542
-8.44909
-8.39772
-8.32901
-8.25255
-8.19302
-8.17417
-8.10655
-8.03752
-7.95988
-7.8758
-7.7852
-7.68794
-7.58281
-7.4688
-7.34216
-7.19174
-7.02472
-6.90251
-6.77224
-6.6104
-6.41411
-6.19456
-5.9329
-5.64194
-5.30809
-4.96116
-4.67064
-4.54305
-4.70039
-5.04478
-5.30159
-5.29332
-5.37188
-5.65824
-5.91712
-5.8989
-5.39101
-4.75201
-4.47442
-4.83054
-5.18042
-1.6828
12.3423
37.9867
64.016
66.9854
52.8869
45.0681
50.2128
205.592
29.8932
3.73079
1.46131
0.287434
-3.33763
-8.02564
-9.72941
-9.22031
-9.23868
-10.0923
-11.3731
-12.6126
-13.5615
-14.2661
-14.6651
-14.5193
-13.7448
-12.6777
-11.8159
-11.2982
-10.7981
-10.1027
-9.43766
-9.03052
-8.89518
-8.88747
-8.91377
-8.94209
-8.95323
-8.9591
-8.94232
-8.90798
-8.86056
-8.80836
-8.7618
-8.71857
-8.6673
-8.60629
-8.53553
-8.45541
-8.36683
-8.26963
-8.16264
-8.04414
-7.91167
-7.76304
-7.60422
-7.44807
-7.28325
-7.10041
-6.89181
-6.65976
-6.42382
-6.17728
-5.93626
-5.7329
-5.60619
-5.59649
-5.78599
-6.07765
-6.21663
-6.11898
-6.08118
-6.37698
-6.77376
-6.83744
-6.49176
-6.06752
-5.92312
-6.37916
-7.82728
-9.08802
-5.21883
17.3288
56.8137
61.1401
47.7813
45.3685
45.4976
104.317
-1.65045
-2.6285
-5.52105
-4.00231
-6.24817
-8.5219
-9.32096
-9.60867
-10.1743
-11.1275
-12.2156
-13.2345
-14.0471
-14.6195
-14.9
-14.7668
-14.1738
-13.3005
-12.4438
-11.7829
-11.2259
-10.6371
-10.1254
-9.79209
-9.62856
-9.56478
-9.54388
-9.5372
-9.53068
-9.52083
-9.49648
-9.46712
-9.43078
-9.3948
-9.36388
-9.32375
-9.26741
-9.19866
-9.12658
-9.04866
-8.96278
-8.8669
-8.75947
-8.63906
-8.50425
-8.35562
-8.19696
-8.03198
-7.85727
-7.67007
-7.4718
-7.2602
-7.04609
-6.83337
-6.64128
-6.49774
-6.43066
-6.44658
-6.55779
-6.73879
-6.86169
-6.87778
-6.8721
-6.92421
-6.9861
-6.88813
-6.59562
-6.34188
-6.44857
-7.335
-9.31541
-11.7915
-13.0914
-7.00512
31.7941
46.4322
38.1471
39.713
34.3559
38.1875
-5.54156
-4.28311
-11.307
-8.82398
-8.95485
-10.1389
-10.4738
-10.685
-11.2785
-12.1105
-12.971
-13.7549
-14.4261
-14.8998
-15.1163
-14.9914
-14.4819
-13.6866
-12.8458
-12.1623
-11.625
-11.1488
-10.7609
-10.4882
-10.321
-10.2254
-10.1704
-10.136
-10.1112
-10.0902
-10.0669
-10.0354
-9.99855
-9.9592
-9.91153
-9.86844
-9.82782
-9.77814
-9.71704
-9.64625
-9.56583
-9.47326
-9.36729
-9.24722
-9.11085
-8.95853
-8.7934
-8.61849
-8.43534
-8.24599
-8.05365
-7.86778
-7.68975
-7.52666
-7.38934
-7.29427
-7.26278
-7.29333
-7.35636
-7.43382
-7.48757
-7.49008
-7.45846
-7.35629
-7.12202
-6.72274
-6.23737
-5.90744
-6.09604
-7.29125
-9.42439
-11.7392
-13.1108
-12.2273
5.88581
26.3862
27.8531
26.8564
20.3319
9.40271
-17.0934
-9.70173
-12.7043
-12.1023
-11.3536
-11.9606
-11.9248
-11.9435
-12.3315
-12.9456
-13.6338
-14.306
-14.8563
-15.2409
-15.3896
-15.2221
-14.7112
-13.9626
-13.1972
-12.5749
-12.0914
-11.69
-11.3746
-11.1343
-10.9679
-10.8574
-10.784
-10.7337
-10.6969
-10.667
-10.6391
-10.6102
-10.5771
-10.5439
-10.5101
-10.4715
-10.4254
-10.3754
-10.3193
-10.2553
-10.182
-10.0953
-9.99473
-9.87938
-9.74372
-9.58722
-9.41142
-9.22064
-9.02321
-8.82943
-8.64853
-8.49187
-8.35074
-8.23753
-8.15684
-8.11386
-8.11691
-8.16462
-8.22344
-8.26664
-8.28883
-8.23658
-8.0936
-7.80868
-7.29816
-6.53032
-5.6495
-5.01985
-5.12716
-6.67832
-9.13312
-11.2148
-12.2066
-11.7222
-6.25113
15.4803
20.3387
13.7645
8.18257
7.16492
-17.037
-16.1855
-16.1099
-14.1499
-13.2917
-13.4009
-13.1952
-13.0714
-13.2782
-13.7041
-14.2229
-14.7606
-15.2205
-15.5234
-15.5971
-15.3816
-14.883
-14.2186
-13.5652
-13.0267
-12.5972
-12.2459
-11.9654
-11.7482
-11.5876
-11.4718
-11.3887
-11.3282
-11.2826
-11.2461
-11.2143
-11.1842
-11.1537
-11.1234
-11.0925
-11.0591
-11.0207
-10.9795
-10.9325
-10.8787
-10.8149
-10.7404
-10.6521
-10.5454
-10.4163
-10.2578
-10.0661
-9.8476
-9.61934
-9.40646
-9.23221
-9.11035
-9.02566
-8.97665
-8.95778
-8.96951
-9.01326
-9.08592
-9.15934
-9.19838
-9.21421
-9.1477
-8.93957
-8.51376
-7.74641
-6.55628
-5.12167
-3.91918
-4.11623
-6.57365
-9.57191
-11.6668
-12.2247
-11.6283
-9.3973
8.40205
15.9569
10.5177
3.95092
3.35586
-18.2128
-18.8634
-19.2815
-16.1516
-14.7575
-14.5376
-14.3232
-14.118
-14.179
-14.4183
-14.7713
-15.1572
-15.4891
-15.6884
-15.6909
-15.4614
-15.0255
-14.4822
-13.9516
-13.4964
-13.1175
-12.8036
-12.5485
-12.3464
-12.1904
-12.072
-11.9829
-11.9156
-11.8641
-11.8232
-11.7891
-11.7591
-11.7315
-11.7053
-11.6794
-11.6524
-11.6216
-11.5935
-11.5576
-11.5178
-11.471
-11.4155
-11.3505
-11.2678
-11.1549
-10.9966
-10.7855
-10.5295
-10.2553
-10.0089
-9.83102
-9.73527
-9.7178
-9.75187
-9.81242
-9.88935
-9.98101
-10.0853
-10.1846
-10.2479
-10.2804
-10.2552
-10.0842
-9.67495
-8.8106
-7.31585
-5.37522
-3.92671
-4.45148
-9.04358
-12.9833
-14.4839
-13.9567
-12.3106
-10.754
-1.89542
11.3872
5.62938
-2.16578
-4.15473
-18.5906
-17.881
-20.1481
-19.0397
-16.447
-15.6392
-15.4455
-15.1531
-15.0807
-15.1659
-15.3588
-15.5882
-15.7818
-15.8754
-15.8217
-15.6024
-15.2432
-14.8112
-14.38
-13.9904
-13.652
-13.3648
-13.1265
-12.9332
-12.7794
-12.6591
-12.566
-12.4944
-12.439
-12.3958
-12.3612
-12.3322
-12.3077
-12.2864
-12.2672
-12.2483
-12.2304
-12.2123
-12.1919
-12.1711
-12.1484
-12.1229
-12.0944
-12.0524
-11.9737
-11.8308
-11.6137
-11.3242
-11.0062
-10.7223
-10.5392
-10.4668
-10.4937
-10.5976
-10.7386
-10.8917
-11.045
-11.1916
-11.3298
-11.4485
-11.5476
-11.6434
-11.6614
-11.5784
-11.1297
-9.86816
-7.93739
-7.72868
-12.7572
-17.5268
-19.2465
-18.5719
-17.0615
-14.2185
-12.7321
-10.8559
4.50325
-4.03198
-11.4796
-11.6243
-19.2635
-18.3621
-18.3178
-19.1778
-18.0273
-16.9194
-16.6911
-16.2114
-16.0056
-15.9572
-16.013
-16.1093
-16.1876
-16.198
-16.1055
-15.8979
-15.5929
-15.2325
-14.8629
-14.5146
-14.202
-13.9306
-13.701
-13.5111
-13.3571
-13.2345
-13.1383
-13.0637
-13.0063
-12.9623
-12.929
-12.9041
-12.8846
-12.8684
-12.8556
-12.8444
-12.8405
-12.8355
-12.8327
-12.8345
-12.8414
-12.8569
-12.8817
-12.9027
-12.8829
-12.7837
-12.5686
-12.2668
-11.9224
-11.6115
-11.4388
-11.4117
-11.4792
-11.6129
-11.7916
-11.9994
-12.215
-12.4228
-12.6226
-12.8253
-13.0529
-13.357
-13.7397
-14.3559
-14.7922
-13.8932
-14.164
-14.7422
-18.8543
-24.5146
-26.2851
-22.8063
-19.4468
-15.9914
-14.1128
-13.3505
-9.09756
-10.4814
-15.7475
-15.3216
-19.8063
-19.3821
-19.8056
-20.6985
-19.708
-18.7896
-17.958
-17.255
-16.9218
-16.7528
-16.6959
-16.6893
-16.6825
-16.6344
-16.5162
-16.3162
-16.0435
-15.7247
-15.3906
-15.0663
-14.7675
-14.5025
-14.2744
-14.0828
-13.9255
-13.799
-13.6996
-13.6228
-13.5647
-13.5218
-13.4908
-13.4691
-13.4543
-13.4452
-13.4412
-13.4425
-13.4486
-13.4579
-13.4744
-13.5015
-13.5428
-13.6071
-13.7009
-13.8064
-13.8757
-13.8334
-13.6198
-13.324
-12.9628
-12.6337
-12.4976
-12.565
-12.7207
-12.8811
-13.0518
-13.2616
-13.504
-13.77
-14.0479
-14.3567
-14.7643
-15.3524
-16.2215
-17.8731
-19.9028
-20.0038
-21.6689
-21.5618
-24.0471
-29.3184
-30.2336
-23.9895
-20.2343
-16.7622
-14.7003
-14.899
-14.3756
-15.9001
-17.2284
-16.6782
-20.1066
-20.6398
-21.2144
-21.6429
-21.7326
-20.6978
-19.201
-18.2451
-17.7787
-17.5034
-17.361
-17.282
-17.2187
-17.1341
-17.0026
-16.8111
-16.5618
-16.2701
-15.9578
-15.6459
-15.351
-15.0836
-14.8495
-14.6504
-14.4856
-14.3525
-14.2495
-14.171
-14.1133
-14.0723
-14.0447
-14.0278
-14.0194
-14.0183
-14.0239
-14.0353
-14.0511
-14.0748
-14.1117
-14.1642
-14.2403
-14.3582
-14.5306
-14.7331
-14.8987
-14.9109
-14.7176
-14.4319
-14.0836
-13.7477
-13.677
-13.892
-14.1845
-14.416
-14.5663
-14.717
-14.9294
-15.2106
-15.5554
-15.9733
-16.5715
-17.453
-18.7759
-21.2457
-25.1207
-29.6256
-29.3209
-26.2012
-27.5107
-30.0012
-24.8091
-21.6978
-19.5126
-16.6488
-15.0335
-16.0332
-16.4758
-17.9994
-17.7104
-17.4675
-20.4877
-21.6232
-22.3926
-22.77
-23.1973
-21.939
-20.0904
-19.059
-18.5147
-18.1768
-17.9868
-17.8687
-17.7769
-17.6775
-17.5469
-17.3699
-17.1427
-16.8719
-16.5723
-16.2626
-15.9606
-15.68
-15.4301
-15.2156
-15.0381
-14.897
-14.7875
-14.707
-14.6504
-14.6128
-14.5902
-14.5794
-14.5782
-14.5853
-14.5992
-14.6179
-14.6443
-14.6839
-14.7392
-14.8136
-14.9212
-15.0903
-15.3372
-15.6278
-15.8704
-15.9417
-15.7994
-15.5394
-15.2525
-14.9694
-15.0294
-15.4521
-15.8904
-16.18
-16.3112
-16.3672
-16.4878
-16.7266
-17.0915
-17.5907
-18.3222
-19.3971
-20.9545
-23.5689
-27.3442
-30.8474
-28.6114
-27.2161
-28.7795
-27.5849
-20.8739
-19.4853
-18.1047
-16.211
-15.1824
-16.9221
-18.829
-18.7284
-18.4577
-18.3158
-20.4003
-21.6442
-22.7882
-23.2141
-23.18
-22.118
-20.4465
-19.5989
-19.0817
-18.7513
-18.559
-18.4377
-18.3465
-18.2542
-18.1406
-17.9884
-17.7873
-17.5364
-17.2444
-16.9287
-16.6086
-16.3013
-16.0221
-15.7809
-15.5822
-15.4265
-15.3103
-15.2284
-15.1744
-15.1422
-15.1264
-15.123
-15.1293
-15.1436
-15.1637
-15.1904
-15.2291
-15.2826
-15.3519
-15.4434
-15.5751
-15.7812
-16.0821
-16.4264
-16.7202
-16.8396
-16.7806
-16.6043
-16.4051
-16.3095
-16.6813
-17.3608
-17.9062
-18.1566
-18.2216
-18.1668
-18.1387
-18.2787
-18.6041
-19.1213
-19.8818
-21.0144
-22.57
-24.8696
-27.984
-30.0616
-29.4233
-29.5165
-30.248
-28.2217
-21.3035
-18.9609
-17.4104
-16.2504
-16.0269
-19.2337
-20.0285
-20.0168
-19.3094
-19.1565
-19.8293
-20.7371
-22.1004
-22.53
-22.2524
-21.4584
-20.3957
-19.8658
-19.4686
-19.2088
-19.0544
-18.9671
-18.9088
-18.8458
-18.7648
-18.6492
-18.4839
-18.2604
-17.9789
-17.6537
-17.3039
-16.954
-16.6291
-16.3468
-16.1164
-15.9406
-15.8154
-15.7328
-15.6835
-15.6591
-15.6524
-15.658
-15.6723
-15.6931
-15.7199
-15.7562
-15.8061
-15.8697
-15.9478
-16.0506
-16.1963
-16.4134
-16.7425
-17.1066
-17.4016
-17.5613
-17.5905
-17.5352
-17.4617
-17.8132
-18.8466
-19.714
-20.1757
-20.2725
-20.2049
-20.0155
-19.8104
-19.7995
-20.0291
-20.4888
-21.194
-22.2623
-23.7402
-25.7744
-28.5921
-30.362
-30.139
-30.1209
-30.5155
-30.0123
-25.2263
-20.4247
-18.4544
-17.5861
-18.4289
-20.5934
-20.1713
-20.2979
-19.9898
-19.9168
-18.5171
-19.3518
-20.5243
-20.9566
-20.9047
-20.5577
-20.1605
-19.9467
-19.713
-19.5516
-19.4631
-19.4501
-19.4626
-19.4486
-19.4169
-19.3543
-19.2391
-19.0554
-18.7892
-18.4509
-18.0563
-17.6458
-17.255
-16.9118
-16.6354
-16.4332
-16.2979
-16.2168
-16.1759
-16.163
-16.1684
-16.1852
-16.209
-16.2377
-16.2721
-16.3175
-16.376
-16.4454
-16.525
-16.6291
-16.7748
-16.9919
-17.3047
-17.6557
-17.9361
-18.1097
-18.2164
-18.254
-18.3874
-19.3935
-21.1354
-22.1499
-22.3517
-22.2815
-22.1014
-21.7854
-21.4015
-21.203
-21.2944
-21.6476
-22.2503
-23.1919
-24.5496
-26.4034
-29.093
-31.1613
-31.3308
-31.1027
-30.6856
-29.8844
-27.984
-24.0718
-21.7862
-20.7501
-20.7014
-20.699
-21.0691
-20.9001
-20.6678
-20.6265
-17.4211
-18.2882
-19.1924
-19.5105
-19.7471
-19.8476
-19.932
-19.9657
-19.8849
-19.8231
-19.8177
-19.9166
-20.0473
-20.0873
-20.1159
-20.1277
-20.083
-19.9687
-19.7554
-19.4151
-18.9647
-18.4394
-17.9316
-17.4868
-17.1322
-16.8959
-16.7516
-16.677
-16.6502
-16.6542
-16.6759
-16.707
-16.7427
-16.7812
-16.8235
-16.8762
-16.9399
-17.0105
-17.0898
-17.1877
-17.3199
-17.5107
-17.7796
-18.0931
-18.3468
-18.5208
-18.6763
-18.7882
-19.2515
-20.8146
-22.8459
-23.94
-24.0216
-23.9372
-23.7417
-23.3391
-22.7975
-22.4078
-22.3388
-22.5587
-23.0304
-23.8093
-24.9965
-26.6521
-29.0857
-31.4699
-32.4339
-32.3049
-31.551
-30.2285
-28.335
-25.7951
-23.6844
-22.5425
-21.8516
-21.657
-21.5626
-21.3993
-21.2448
-21.1962
-16.4268
-17.456
-18.2561
-18.5316
-18.9256
-19.3953
-19.8055
-20.0264
-20.0749
-20.1011
-20.2359
-20.5058
-20.7582
-20.8355
-20.9377
-21.0806
-21.2267
-21.2909
-21.1948
-20.891
-20.3532
-19.5975
-18.7938
-18.1199
-17.6162
-17.3202
-17.169
-17.1101
-17.1068
-17.1355
-17.1786
-17.2274
-17.2774
-17.3276
-17.3764
-17.4349
-17.5
-17.5693
-17.6437
-17.7302
-17.8404
-17.9915
-18.2001
-18.4559
-18.6719
-18.8376
-19.0112
-19.1995
-20.0102
-21.8783
-23.9957
-24.9722
-25.1544
-25.1985
-25.0357
-24.5762
-23.9106
-23.3492
-23.1201
-23.1979
-23.5252
-24.1247
-25.0876
-26.4817
-28.5403
-30.9332
-32.7002
-33.0528
-32.1946
-30.4925
-28.4922
-26.622
-24.5274
-23.1217
-22.6441
-22.2948
-22.0413
-21.8488
-21.715
-21.6496
-15.8888
-17.0091
-17.6184
-17.9009
-18.4344
-19.1678
-19.8076
-20.1711
-20.3304
-20.4909
-20.8204
-21.2658
-21.5533
-21.7282
-21.959
-22.3565
-22.846
-23.2311
-23.3443
-23.127
-22.5474
-21.5295
-20.1745
-18.947
-18.1244
-17.6975
-17.5438
-17.516
-17.5503
-17.6123
-17.6827
-17.7522
-17.8172
-17.8779
-17.9357
-17.9959
-18.0593
-18.1243
-18.1909
-18.2635
-18.3492
-18.4581
-18.6008
-18.7728
-18.9535
-19.1016
-19.2769
-19.5318
-20.5842
-22.6284
-24.7218
-25.57
-25.935
-26.1121
-25.9663
-25.4583
-24.6926
-23.9944
-23.6272
-23.5723
-23.7579
-24.1812
-24.8996
-25.9775
-27.5716
-29.6051
-31.46
-32.283
-31.7664
-30.2156
-28.3195
-26.4998
-24.9571
-23.8867
-23.2396
-22.7717
-22.4393
-22.2468
-22.1283
-22.0356
-16.2841
-17.0273
-17.3164
-17.5983
-18.222
-19.1361
-19.9349
-20.4139
-20.7055
-20.968
-21.2913
-21.7838
-22.2366
-22.6386
-23.1322
-23.9101
-24.7827
-25.4807
-25.8218
-25.7508
-25.2096
-24.0486
-22.1503
-20.0897
-18.6853
-18.0245
-17.8782
-17.8979
-17.9894
-18.0963
-18.1982
-18.2891
-18.3682
-18.4379
-18.5009
-18.561
-18.6203
-18.6784
-18.7355
-18.7941
-18.8579
-18.932
-19.0214
-19.1304
-19.2565
-19.3833
-19.5585
-19.8719
-21.06
-23.1788
-25.045
-25.9165
-26.4398
-26.6871
-26.5397
-25.9766
-25.1267
-24.3481
-23.8832
-23.7212
-23.7852
-24.0544
-24.5499
-25.3094
-26.4108
-27.8674
-29.3056
-30.118
-29.9896
-29.0304
-27.6427
-26.2314
-25.0236
-24.1034
-23.5238
-23.1063
-22.7741
-22.585
-22.4887
-22.3841
-17.292
-17.5583
-17.4287
-17.5531
-18.2688
-19.2836
-20.1757
-20.7411
-21.1784
-21.4492
-21.5827
-22.0054
-22.648
-23.3754
-24.2869
-25.4347
-26.5892
-27.495
-27.9534
-27.9122
-27.3952
-26.3005
-24.1974
-21.344
-19.1773
-18.3016
-18.1715
-18.284
-18.4505
-18.6064
-18.7387
-18.8474
-18.9365
-19.0105
-19.0747
-19.1319
-19.1849
-19.2346
-19.2814
-19.3271
-19.3739
-19.4239
-19.4795
-19.5463
-19.631
-19.7453
-19.9168
-20.2597
-21.4781
-23.4772
-25.1186
-26.0442
-26.6281
-26.8943
-26.7327
-26.1223
-25.2493
-24.4482
-23.9363
-23.7052
-23.682
-23.8337
-24.1562
-24.6574
-25.3539
-26.2645
-27.2335
-27.8775
-27.9444
-27.4948
-26.6108
-25.6291
-24.7759
-24.09
-23.6354
-23.3141
-23.0373
-22.8682
-22.7946
-22.7071
-18.3461
-18.3994
-18.1697
-17.9187
-18.6302
-19.5894
-20.5129
-21.1076
-21.6541
-21.9504
-21.9055
-22.1752
-22.9341
-23.9589
-25.23
-26.5896
-27.8429
-28.7989
-29.2044
-29.0695
-28.5326
-27.6032
-25.8182
-22.6076
-19.6338
-18.5226
-18.4999
-18.7347
-18.9787
-19.1723
-19.3217
-19.4375
-19.5274
-19.5994
-19.659
-19.7096
-19.7543
-19.7946
-19.8309
-19.8654
-19.8997
-19.9351
-19.9732
-20.0195
-20.0846
-20.1912
-20.354
-20.7104
-21.783
-23.5198
-25.0465
-25.9245
-26.4852
-26.7394
-26.5628
-25.9523
-25.1128
-24.3487
-23.8458
-23.592
-23.5205
-23.5984
-23.8078
-24.1367
-24.5713
-25.1083
-25.6961
-26.1539
-26.3155
-26.1138
-25.5806
-24.9557
-24.4082
-23.9636
-23.6591
-23.4378
-23.2394
-23.1125
-23.0542
-23.0062
-19.3501
-19.4317
-19.4214
-19.2778