/*--------------------------------*- C++ -*----------------------------------*\
| =========                 |                                                 |
| \\      /  F ield         | OpenFOAM: The Open Source CFD Toolbox           |
|  \\    /   O peration     | Version:  2412                                  |
|   \\  /    A nd           | Website:  www.openfoam.com                      |
|    \\/     M anipulation  |                                                 |
\*---------------------------------------------------------------------------*/
FoamFile
{
    version     2.0;
    format      ascii;
    arch        "LSB;label=32;scalar=64";
    class       surfaceScalarField;
    location    "2.9";
    object      phi;
}
// * * * * * * * * * * * * * * * * * * * * * * * * * * * * * * * * * * * * * //

dimensions      [0 3 -1 0 0 0 0];

oriented        oriented;

internalField   nonuniform List<scalar> 
12640
(
2.05884e-05
-2.05884e-05
4.4262e-05
-2.36768e-05
6.76149e-05
-2.33552e-05
8.92788e-05
-2.16659e-05
0.000108261
-1.89844e-05
0.000124023
-1.57647e-05
0.000136249
-1.22285e-05
0.000144797
-8.55071e-06
0.000149652
-4.85762e-06
0.000150913
-1.26326e-06
0.000148911
1.99892e-06
0.000143975
4.93375e-06
0.000136524
7.44879e-06
0.000126979
9.54242e-06
0.000115812
1.11625e-05
0.000103509
1.2299e-05
9.04844e-05
1.30223e-05
7.71417e-05
1.33418e-05
6.38484e-05
1.32917e-05
5.0931e-05
1.29137e-05
3.86631e-05
1.22625e-05
2.72379e-05
1.142e-05
1.68541e-05
1.03809e-05
7.61839e-06
9.23574e-06
-4.89177e-07
8.10917e-06
-7.38721e-06
6.89895e-06
-1.30977e-05
5.70926e-06
-1.76587e-05
4.55789e-06
-2.10965e-05
3.43446e-06
-2.3413e-05
2.31447e-06
-2.46873e-05
1.27419e-06
-2.50072e-05
3.21155e-07
-2.44963e-05
-5.09008e-07
-2.31398e-05
-1.35479e-06
-2.09943e-05
-2.14421e-06
-1.81267e-05
-2.86662e-06
-1.46011e-05
-3.5246e-06
-1.04837e-05
-4.11614e-06
-5.86603e-06
-4.61617e-06
-8.53623e-07
-5.01052e-06
4.39094e-06
-5.24222e-06
9.7587e-06
-5.36493e-06
1.50953e-05
-5.3334e-06
2.02413e-05
-5.14271e-06
2.50457e-05
-4.80125e-06
2.93536e-05
-4.30523e-06
3.30028e-05
-3.64705e-06
3.58402e-05
-2.83586e-06
3.77057e-05
-1.86482e-06
3.8433e-05
-7.27139e-07
3.78995e-05
5.33042e-07
3.58633e-05
2.03536e-06
3.22992e-05
3.5632e-06
2.71385e-05
5.1598e-06
2.03346e-05
6.80338e-06
1.18487e-05
8.48581e-06
1.74974e-06
1.00993e-05
-9.88477e-06
1.16352e-05
-2.29175e-05
1.30334e-05
-3.71073e-05
1.41902e-05
-5.21646e-05
1.5057e-05
-6.77417e-05
1.55759e-05
-8.3439e-05
1.56952e-05
-9.88058e-05
1.53641e-05
-0.000113395
1.45866e-05
-0.000126668
1.32699e-05
-0.000138089
1.14191e-05
-0.000147159
9.06915e-06
-0.000153395
6.23639e-06
-0.000156385
2.98994e-06
-0.000155746
-6.38858e-07
-0.000151154
-4.59211e-06
-0.000142527
-8.62785e-06
-0.000129921
-1.26074e-05
-0.000113515
-1.64083e-05
-9.36548e-05
-1.98617e-05
-7.09376e-05
-2.27184e-05
-4.63949e-05
-2.45434e-05
-2.14534e-05
-2.49419e-05
-2.14549e-05
2.40775e-05
-4.467e-05
5.31401e-05
-5.27431e-05
8.23746e-05
-5.25926e-05
0.000109777
-4.90713e-05
0.000133973
-4.31838e-05
0.000154217
-3.60125e-05
0.000170167
-2.81826e-05
0.000181634
-2.00213e-05
0.000188625
-1.18528e-05
0.000191278
-3.92007e-06
0.000189907
3.36568e-06
0.000184862
9.97385e-06
0.000176589
1.57166e-05
0.000165625
2.05026e-05
0.000152522
2.42614e-05
0.000137838
2.69782e-05
0.000122132
2.87214e-05
0.000105938
2.95298e-05
8.97119e-05
2.95123e-05
7.38503e-05
2.87728e-05
5.86838e-05
2.74287e-05
4.45199e-05
2.55838e-05
3.1508e-05
2.33916e-05
1.97824e-05
2.09585e-05
9.50819e-06
1.83796e-05
6.84136e-07
1.57189e-05
-6.67581e-06
1.30658e-05
-1.26024e-05
1.04825e-05
-1.71626e-05
7.99463e-06
-2.04227e-05
5.57603e-06
-2.2436e-05
3.28998e-06
-2.32884e-05
1.17627e-06
-2.29844e-05
-8.10624e-07
-2.1624e-05
-2.71328e-06
-1.92827e-05
-4.48376e-06
-1.60491e-05
-6.09838e-06
-1.20097e-05
-7.56179e-06
-7.27538e-06
-8.84759e-06
-1.93822e-06
-9.94968e-06
3.85591e-06
-1.08002e-05
9.97068e-06
-1.13518e-05
1.61956e-05
-1.15842e-05
2.23527e-05
-1.14848e-05
2.82417e-05
-1.10264e-05
3.36594e-05
-1.02143e-05
3.84005e-05
-9.0428e-06
4.22497e-05
-7.49395e-06
4.5001e-05
-5.58601e-06
4.64595e-05
-3.32322e-06
4.64457e-05
-7.14082e-07
4.47821e-05
2.19545e-06
4.13474e-05
5.46873e-06
3.59895e-05
8.92e-06
2.86159e-05
1.25328e-05
1.92119e-05
1.62075e-05
7.69969e-06
1.99986e-05
-5.7635e-06
2.35635e-05
-2.10265e-05
2.68991e-05
-3.79302e-05
2.99374e-05
-5.61342e-05
3.23934e-05
-7.52495e-05
3.41703e-05
-9.48389e-05
3.5162e-05
-0.000114391
3.52428e-05
-0.000133354
3.43229e-05
-0.000151078
3.23071e-05
-0.000166944
2.91336e-05
-0.000180317
2.47903e-05
-0.000190584
1.9336e-05
-0.000197184
1.28357e-05
-0.000199618
5.42396e-06
-0.000197596
-2.66287e-06
-0.00019074
-1.14498e-05
-0.000179012
-2.03597e-05
-0.000162429
-2.9193e-05
-0.000141215
-3.76257e-05
-0.000115783
-4.52955e-05
-8.69145e-05
-5.15872e-05
-5.60676e-05
-5.53903e-05
-2.52932e-05
-5.57175e-05
-4.67487e-05
2.63847e-05
-7.1057e-05
5.87361e-05
-8.50944e-05
9.14939e-05
-8.53501e-05
0.000122241
-7.98187e-05
0.00014942
-7.03632e-05
0.000172274
-5.88672e-05
0.000190417
-4.63276e-05
0.000203698
-3.33031e-05
0.000212134
-2.029e-05
0.000215915
-7.70352e-06
0.000215356
3.92346e-06
0.000210923
1.44051e-05
0.000203129
2.35074e-05
0.000192565
3.10629e-05
0.000179816
3.70062e-05
0.00016547
4.13193e-05
0.000150104
4.40857e-05
0.000134242
4.53925e-05
0.000118349
4.54086e-05
0.000102837
4.42871e-05
8.80365e-05
4.22288e-05
7.41363e-05
3.94807e-05
6.13837e-05
3.61393e-05
4.98766e-05
3.24616e-05
3.9675e-05
2.85796e-05
3.07255e-05
2.46695e-05
2.30624e-05
2.07313e-05
1.65849e-05
1.69625e-05
1.12215e-05
1.33599e-05
6.87288e-06
9.92581e-06
3.4405e-06
6.72334e-06
8.8374e-07
3.73404e-06
-8.48904e-07
9.23065e-07
-1.86623e-06
-1.69493e-06
-2.2068e-06
-4.1421e-06
-1.94085e-06
-6.36293e-06
-1.07848e-06
-8.42215e-06
3.17276e-07
-1.02406e-05
2.1938e-06
-1.18226e-05
4.4869e-06
-1.3089e-05
7.13083e-06
-1.3991e-05
1.00174e-05
-1.44658e-05
1.30263e-05
-1.44889e-05
1.59993e-05
-1.39949e-05
1.87616e-05
-1.29729e-05
2.11344e-05
-1.14127e-05
2.29017e-05
-9.25939e-06
2.38507e-05
-6.534e-06
2.37743e-05
-3.24649e-06
2.24834e-05
5.76458e-07
1.97806e-05
4.8977e-06
1.54915e-05
9.75717e-06
9.49484e-06
1.49162e-05
1.60754e-06
2.042e-05
-8.2533e-06
2.60687e-05
-1.99126e-05
3.16588e-05
-3.35032e-05
3.71552e-05
-4.89086e-05
4.23053e-05
-6.57508e-05
4.67799e-05
-8.39272e-05
5.05692e-05
-0.000103014
5.32552e-05
-0.000122573
5.47186e-05
-0.000142088
5.47558e-05
-0.00016097
5.32019e-05
-0.000178597
4.99315e-05
-0.000194312
4.48461e-05
-0.000207457
3.79343e-05
-0.000217368
2.92453e-05
-0.000223434
1.89001e-05
-0.000225104
7.09219e-06
-0.000221926
-5.84294e-06
-0.000213608
-1.97707e-05
-0.000199986
-3.39831e-05
-0.000181093
-4.80869e-05
-0.00015716
-6.15581e-05
-0.000128614
-7.38399e-05
-9.62978e-05
-8.39017e-05
-6.18316e-05
-8.98549e-05
-2.76867e-05
-8.98635e-05
-7.44345e-05
2.90165e-05
-0.000100073
6.48791e-05
-0.000120954
0.000100949
-0.000121418
0.000134585
-0.000113453
0.000164135
-9.99117e-05
0.000188795
-8.35267e-05
0.000208188
-6.57205e-05
0.000222184
-4.72998e-05
0.00023088
-2.89857e-05
0.000234466
-1.12902e-05
0.000233449
4.93962e-06
0.000228345
1.95072e-05
0.000219747
3.21028e-05
0.00020829
4.252e-05
0.000194633
5.06624e-05
0.000179426
5.65241e-05
0.0001633
6.02072e-05
0.00014679
6.18976e-05
0.000130384
6.18103e-05
0.000114495
6.01748e-05
9.94315e-05
5.72937e-05
8.54809e-05
5.34325e-05
7.27083e-05
4.8912e-05
6.13006e-05
4.38685e-05
5.11814e-05
3.86986e-05
4.23414e-05
3.35105e-05
3.47196e-05
2.83545e-05
2.81817e-05
2.35015e-05
2.26237e-05
1.89182e-05
1.79445e-05
1.46049e-05
1.40646e-05
1.06028e-05
1.08236e-05
6.97504e-06
8.17576e-06
3.57111e-06
6.06725e-06
4.14093e-07
4.43094e-06
-2.50501e-06
3.34614e-06
-5.27687e-06
2.72481e-06
-7.79884e-06
2.61309e-06
-1.0126e-05
2.95686e-06
-1.21628e-05
3.74189e-06
-1.38699e-05
4.95635e-06
-1.52009e-05
6.48157e-06
-1.59864e-05
8.23315e-06
-1.62359e-05
1.00804e-05
-1.5838e-05
1.18653e-05
-1.47542e-05
1.34007e-05
-1.29453e-05
1.45132e-05
-1.037e-05
1.49845e-05
-7.00417e-06
1.45927e-05
-2.8543e-06
1.31416e-05
2.02749e-06
1.03304e-05
7.70852e-06
5.99019e-06
1.4097e-05
-9.15504e-08
2.09978e-05
-7.97214e-06
2.83008e-05
-1.7775e-05
3.58721e-05
-2.95568e-05
4.34413e-05
-4.33274e-05
5.09264e-05
-5.88902e-05
5.78685e-05
-7.62397e-05
6.41292e-05
-9.49543e-05
6.92831e-05
-0.000114738
7.30377e-05
-0.000135124
7.51023e-05
-0.000155584
7.52138e-05
-0.000175515
7.31314e-05
-0.000194236
6.86505e-05
-0.00021105
6.16588e-05
-0.000225244
5.21266e-05
-0.000236078
4.00769e-05
-0.00024287
2.56909e-05
-0.000245004
9.22449e-06
-0.000242005
-8.8432e-06
-0.00023334
-2.84361e-05
-0.000218868
-4.84538e-05
-0.000198584
-6.83703e-05
-0.000172658
-8.74823e-05
-0.000141561
-0.000104935
-0.000106183
-0.000119278
-6.82409e-05
-0.000127798
-3.04394e-05
-0.000127666
-0.000104873
3.22538e-05
-0.000132324
7.22799e-05
-0.000160977
0.000112164
-0.0001613
0.000149013
-0.000150301
0.000181026
-0.000131925
0.000207344
-0.000109844
0.000227578
-8.59553e-05
0.000241695
-6.14174e-05
0.000249847
-3.71384e-05
0.000252356
-1.37993e-05
0.000249867
7.42832e-06
0.000242976
2.63976e-05
0.000232402
4.26752e-05
0.00021889
5.60299e-05
0.000203185
6.63655e-05
0.00018601
7.36961e-05
0.000168059
7.81531e-05
0.00014994
8.00106e-05
0.000132177
7.95672e-05
0.000115202
7.71446e-05
9.93511e-05
7.31426e-05
8.48862e-05
6.78968e-05
7.1872e-05
6.19257e-05
6.02954e-05
5.54443e-05
5.02102e-05
4.87832e-05
4.15854e-05
4.2135e-05
3.41295e-05
3.58105e-05
2.78388e-05
2.97919e-05
2.25272e-05
2.42289e-05
1.80243e-05
1.91067e-05
1.4226e-05
1.44001e-05
1.10714e-05
1.01291e-05
8.30659e-06
6.3359e-06
5.98923e-06
2.73185e-06
4.19308e-06
-7.08155e-07
2.79518e-06
-3.8779e-06
1.92194e-06
-6.92398e-06
1.56486e-06
-9.76664e-06
1.74189e-06
-1.23368e-05
2.4402e-06
-1.45647e-05
3.61931e-06
-1.63763e-05
5.20936e-06
-1.75726e-05
7.10059e-06
-1.81234e-05
9.16304e-06
-1.7897e-05
1.12473e-05
-1.68355e-05
1.31633e-05
-1.4859e-05
1.47117e-05
-1.19167e-05
1.5669e-05
-7.96046e-06
1.57848e-05
-2.96976e-06
1.48458e-05
2.96648e-06
1.25641e-05
9.98996e-06
8.70502e-06
1.79558e-05
3.01123e-06
2.66915e-05
-4.63255e-06
3.59446e-05
-1.43777e-05
4.56173e-05
-2.63248e-05
5.53883e-05
-4.04776e-05
6.50789e-05
-5.67703e-05
7.41607e-05
-7.49625e-05
8.23206e-05
-9.48858e-05
8.92054e-05
-0.000116171
9.43223e-05
-0.000138334
9.72642e-05
-0.000160805
9.76832e-05
-0.000182928
9.52537e-05
-0.000203957
8.96785e-05
-0.000223115
8.0815e-05
-0.000239584
6.85939e-05
-0.000252552
5.30433e-05
-0.000261206
3.4343e-05
-0.000264837
1.28536e-05
-0.000262831
-1.08495e-05
-0.000254577
-3.66897e-05
-0.000239815
-6.3214e-05
-0.000218448
-8.97365e-05
-0.000190624
-0.000115306
-0.000156805
-0.000138754
-0.000117977
-0.000158109
-7.59998e-05
-0.000169778
-3.38019e-05
-0.000169864
-0.000138675
3.64859e-05
-0.000168808
8.19834e-05
-0.000206474
0.000126839
-0.000206156
0.000167803
-0.000191266
0.000202865
-0.00016699
0.000231072
-0.000138052
0.000252131
-0.000107016
0.000266065
-7.53525e-05
0.000273201
-4.42758e-05
0.000273944
-1.4543e-05
0.000269198
1.21742e-05
0.000259672
3.59223e-05
0.000246215
5.61309e-05
0.000229711
7.25346e-05
0.000211061
8.50153e-05
0.00019109
9.36674e-05
0.000170566
9.86751e-05
0.000150185
0.000100388
0.000130514
9.92321e-05
0.000111997
9.56546e-05
9.49795e-05
9.0155e-05
7.97383e-05
8.3135e-05
6.62347e-05
7.54274e-05
5.4528e-05
6.71495e-05
4.45123e-05
5.87976e-05
3.60676e-05
5.0579e-05
2.9034e-05
4.28439e-05
2.3196e-05
3.56298e-05
1.83511e-05
2.90733e-05
1.43085e-05
2.31487e-05
1.08878e-05
1.78203e-05
7.91542e-06
1.31014e-05
5.44901e-06
8.80275e-06
3.35167e-06
4.83001e-06
1.59481e-06
1.04973e-06
2.75406e-07
-2.55729e-06
-5.20621e-07
-6.12648e-06
-7.76466e-07
-9.50894e-06
-3.82705e-07
-1.27284e-05
6.21981e-07
-1.55669e-05
2.22762e-06
-1.79793e-05
4.35063e-06
-1.96929e-05
6.88418e-06
-2.06544e-05
9.63853e-06
-2.06491e-05
1.25145e-05
-1.97096e-05
1.5306e-05
-1.7649e-05
1.77671e-05
-1.43767e-05
1.96682e-05
-9.86085e-06
2.07885e-05
-4.08974e-06
2.08298e-05
2.92529e-06
1.94543e-05
1.13655e-05
1.6341e-05
2.10691e-05
1.13326e-05
3.16999e-05
4.06225e-06
4.32148e-05
-5.60503e-06
5.52843e-05
-1.77984e-05
6.75811e-05
-3.24046e-05
7.96843e-05
-4.9409e-05
9.11641e-05
-6.8947e-05
0.000101858
-9.05798e-05
0.000110838
-0.000113989
0.000117731
-0.000138646
0.000121922
-0.000163922
0.00012296
-0.000189106
0.000120438
-0.000213383
0.000113955
-0.000235854
0.000103284
-0.000255604
8.83423e-05
-0.000271642
6.90784e-05
-0.000283049
4.57474e-05
-0.000288947
1.87488e-05
-0.000288591
-1.12065e-05
-0.000281201
-4.40807e-05
-0.000266373
-7.80423e-05
-0.00024389
-0.00011222
-0.000213816
-0.000145382
-0.000176605
-0.000175967
-0.000133345
-0.000201373
-8.61159e-05
-0.000217009
-3.81663e-05
-0.000217813
-0.000176843
4.19966e-05
-0.000210803
9.47372e-05
-0.000259217
0.000146142
-0.000257565
0.000192421
-0.000237549
0.000231313
-0.000205885
0.00026179
-0.000168532
0.000283632
-0.00012886
0.000297077
-8.87976e-05
0.000302625
-4.98252e-05
0.000300954
-1.28731e-05
0.000293154
1.99744e-05
0.000280079
4.89969e-05
0.000262848
7.33609e-05
0.000242488
9.28942e-05
0.000220028
0.000107477
0.000196456
0.000117241
0.000172655
0.000122478
0.00014941
0.000123633
0.000127347
0.000121293
0.000106998
0.000116
8.86495e-05
0.000108501
7.24632e-05
9.93194e-05
5.8457e-05
8.94323e-05
4.66246e-05
7.89808e-05
3.68745e-05
6.85469e-05
2.87892e-05
5.8664e-05
2.23604e-05
4.9273e-05
1.71431e-05
4.08476e-05
1.29531e-05
3.32636e-05
9.52267e-06
2.65791e-05
6.69396e-06
2.0649e-05
4.24448e-06
1.5551e-05
2.01958e-06
1.10283e-05
1.19352e-07
6.73132e-06
-1.55406e-06
2.72447e-06
-2.82556e-06
-1.28436e-06
-3.59819e-06
-5.35231e-06
-3.74436e-06
-9.36107e-06
-3.16865e-06
-1.33022e-05
-1.80447e-06
-1.69291e-05
2.98139e-07
-2.00799e-05
3.06504e-06
-2.24579e-05
6.35291e-06
-2.39405e-05
1.00471e-05
-2.43417e-05
1.39589e-05
-2.36201e-05
1.786e-05
-2.1549e-05
2.15696e-05
-1.80854e-05
2.48352e-05
-1.31258e-05
2.72781e-05
-6.53214e-06
2.85771e-05
1.62696e-06
2.84252e-05
1.15179e-05
2.6429e-05
2.30659e-05
2.22242e-05
3.59051e-05
1.55784e-05
4.98607e-05
6.23953e-06
6.46228e-05
-5.99119e-06
7.9811e-05
-2.12123e-05
9.49045e-05
-3.95096e-05
0.000109461
-6.04749e-05
0.000122823
-8.41853e-05
0.000134549
-0.000110213
0.000143761
-0.000137988
0.000149699
-0.000166839
0.000151813
-0.000195928
0.000149528
-0.000224369
0.000142397
-0.000251099
0.000130014
-0.00027505
0.00011229
-0.000295128
8.91537e-05
-0.000310193
6.08098e-05
-0.000319164
2.77173e-05
-0.000321153
-9.21958e-06
-0.000315094
-5.01416e-05
-0.000300414
-9.27244e-05
-0.0002767
-0.000135937
-0.000243893
-0.000178193
-0.0002024
-0.000217463
-0.0001534
-0.000250375
-9.92897e-05
-0.000271119
-4.38058e-05
-0.000273297
-0.000220647
4.90709e-05
-0.000259876
0.000111372
-0.000321524
0.000171311
-0.000317509
0.000224368
-0.00029061
0.000267924
-0.000249442
0.00030098
-0.00020159
0.000323494
-0.000151375
0.000335967
-0.000101271
0.000339197
-5.30559e-05
0.000334276
-7.95408e-06
0.000322381
3.18682e-05
0.000304759
6.66156e-05
0.000282679
9.54364e-05
0.000257437
0.000118133
0.000230217
0.000134697
0.000202176
0.000145282
0.000174328
0.000150326
0.00014758
0.000150382
0.00012268
0.000146195
0.000100099
0.000138582
8.02048e-05
0.000128396
6.30942e-05
0.000116431
4.87159e-05
0.000103811
3.70533e-05
9.06438e-05
2.75695e-05
7.80308e-05
2.02259e-05
6.60077e-05
1.44878e-05
5.50112e-05
1.02369e-05
4.50984e-05
6.99181e-06
3.65082e-05
4.47444e-06
2.90956e-05
2.36654e-06
2.27559e-05
4.31444e-07
1.74854e-05
-1.39837e-06
1.28579e-05
-3.19248e-06
8.52583e-06
-4.86434e-06
4.39713e-06
-6.28323e-06
1.35521e-07
-7.1593e-06
-4.47516e-06
-7.36266e-06
-9.15653e-06
-6.66967e-06
-1.39939e-05
-5.00286e-06
-1.85945e-05
-2.40661e-06
-2.26747e-05
1.02635e-06
-2.58894e-05
5.1898e-06
-2.81025e-05
9.94169e-06
-2.90923e-05
1.50468e-05
-2.87241e-05
2.03733e-05
-2.68745e-05
2.56464e-05
-2.33577e-05
3.05079e-05
-1.79864e-05
3.46042e-05
-1.06275e-05
3.75399e-05
-1.30772e-06
3.90153e-05
1.00437e-05
3.84174e-05
2.36649e-05
3.53766e-05
3.89466e-05
2.96037e-05
5.5634e-05
2.07371e-05
7.34892e-05
8.50742e-06
9.204e-05
-7.28852e-06
0.000110699
-2.66063e-05
0.000128778
-4.95286e-05
0.000145745
-7.56723e-05
0.000160694
-0.00010488
0.00017297
-0.000136448
0.000181269
-0.000169665
0.000185033
-0.000203569
0.000183433
-0.000237108
0.000175937
-0.000269179
0.000162083
-0.000298467
0.000141577
-0.000323681
0.000114367
-0.000343483
8.06105e-05
-0.000356545
4.07781e-05
-0.000361637
-4.12901e-06
-0.000357587
-5.41933e-05
-0.000343409
-0.000106905
-0.000318452
-0.000160896
-0.000282436
-0.00021421
-0.00023564
-0.00026426
-0.000179364
-0.000306651
-0.000116284
-0.000334197
-5.0985e-05
-0.000338596
-0.000271632
5.80217e-05
-0.000317902
0.000132976
-0.000396482
0.000204072
-0.000388607
0.000265643
-0.000352183
0.000314774
-0.000298572
0.000350545
-0.00023736
0.000373344
-0.000174174
0.000384098
-0.000112026
0.000383978
-5.2937e-05
0.000374649
1.37075e-06
0.00035744
4.90747e-05
0.000333998
9.00529e-05
0.000305816
0.000123611
0.000274462
0.000149481
0.000241382
0.000167773
0.000207866
0.000178795
0.000175146
0.000183044
0.000144232
0.000181295
0.000115928
0.0001745
9.08373e-05
0.000163674
6.94126e-05
0.000149822
5.13031e-05
0.000134542
3.68218e-05
0.000118294
2.50712e-05
0.000102396
1.63741e-05
8.67282e-05
1.00044e-05
7.23771e-05
5.58271e-06
5.94323e-05
2.58309e-06
4.80971e-05
6.22705e-07
3.84674e-05
-7.44854e-07
3.04618e-05
-1.86241e-06
2.38722e-05
-3.13135e-06
1.87536e-05
-4.61989e-06
1.43462e-05
-6.36352e-06
1.02698e-05
-8.22082e-06
6.25502e-06
-9.91906e-06
1.83438e-06
-1.12307e-05
-3.16295e-06
-1.1737e-05
-8.64989e-06
-1.11483e-05
-1.45822e-05
-9.25594e-06
-2.04865e-05
-6.15781e-06
-2.57724e-05
-1.98209e-06
-3.00647e-05
3.12907e-06
-3.32131e-05
9.03868e-06
-3.50013e-05
1.55835e-05
-3.52683e-05
2.25377e-05
-3.38281e-05
2.96293e-05
-3.04486e-05
3.64522e-05
-2.48084e-05
4.2672e-05
-1.68463e-05
4.76934e-05
-6.32775e-06
5.12386e-05
6.49991e-06
5.24229e-05
2.2482e-05
5.10182e-05
4.03523e-05
4.64104e-05
6.02423e-05
3.82752e-05
8.16243e-05
2.62534e-05
0.000104061
1.00263e-05
0.000126926
-1.06176e-05
0.000149421
-3.54771e-05
0.000170605
-6.44923e-05
0.000189709
-9.73989e-05
0.000205878
-0.000133538
0.000217409
-0.000171958
0.000223456
-0.000211718
0.000223193
-0.000251581
0.0002158
-0.000290221
0.000200723
-0.000326114
0.00017747
-0.000357771
0.000146023
-0.000383625
0.000106465
-0.000402028
5.91813e-05
-0.000411295
5.13774e-06
-0.000410172
-5.53154e-05
-0.000397096
-0.000119982
-0.000371076
-0.000186917
-0.000331431
-0.000253855
-0.000278223
-0.000317467
-0.000212755
-0.000372117
-0.000138121
-0.000408831
-5.99711e-05
-0.000416748
-0.000331605
6.92507e-05
-0.000387156
0.00016111
-0.000488342
0.00024684
-0.000474336
0.000319016
-0.000424358
0.000374525
-0.00035408
0.000412889
-0.000275724
0.000435206
-0.00019649
0.000443083
-0.000119902
0.000438238
-4.8092e-05
0.00042297
1.66353e-05
0.000398946
7.30994e-05
0.000368138
0.00012086
0.000332432
0.000159313
0.000293546
0.000188364
0.000253235
0.000208083
0.000213051
0.000218981
0.000174413
0.000221682
0.000138526
0.000217185
0.000106364
0.000206663
7.84818e-05
0.000191558
5.52747e-05
0.00017303
3.65307e-05
0.000153287
2.18138e-05
0.000133013
1.10658e-05
0.000113145
3.25717e-06
9.45374e-05
-1.70312e-06
7.73376e-05
-4.45373e-06
6.21829e-05
-5.61781e-06
4.92611e-05
-5.7858e-06
3.86354e-05
-5.63065e-06
3.03068e-05
-5.57885e-06
2.38208e-05
-5.97806e-06
1.91535e-05
-7.10125e-06
1.54704e-05
-8.90238e-06
1.2072e-05
-1.12261e-05
8.57974e-06
-1.36579e-05
4.26684e-06
-1.57889e-05
-1.03169e-06
-1.69977e-05
-7.44136e-06
-1.68247e-05
-1.47558e-05
-1.4921e-05
-2.2391e-05
-1.13535e-05
-2.93408e-05
-6.39949e-06
-3.50195e-05
-3.0533e-07
-3.93079e-05
6.92133e-06
-4.22283e-05
1.50693e-05
-4.34164e-05
2.38957e-05
-4.26543e-05
3.31277e-05
-3.968e-05
4.24874e-05
-3.41672e-05
5.1302e-05
-2.56595e-05
5.90434e-05
-1.40673e-05
6.49969e-05
5.48599e-07
6.8714e-05
1.8767e-05
6.93283e-05
3.97399e-05
6.64113e-05
6.31605e-05
5.93617e-05
8.86744e-05
4.7757e-05
0.000115666
3.12486e-05
0.000143434
9.48689e-06
0.000171182
-1.77221e-05
0.000197814
-5.00268e-05
0.000222015
-8.71182e-05
0.000242971
-0.000128495
0.000258788
-0.000173223
0.000268185
-0.000220034
0.000270004
-0.000267528
0.000263294
-0.000314127
0.000247323
-0.000358183
0.000221527
-0.00039791
0.000185751
-0.000431379
0.000139936
-0.000456625
8.44292e-05
-0.000471635
2.0148e-05
-0.000474672
-5.22772e-05
-0.000463636
-0.000131017
-0.000436997
-0.000213555
-0.000393557
-0.000297294
-0.00033279
-0.000378233
-0.000255834
-0.000449071
-0.000166152
-0.000498515
-7.1103e-05
-0.0005118
-0.000402709
8.32953e-05
-0.000470451
0.000198137
-0.000603181
0.000303319
-0.000579515
0.00038843
-0.000509466
0.000450754
-0.000416401
0.000490974
-0.000315942
0.000511439
-0.000216954
0.00051479
-0.000123248
0.000503264
-3.6563e-05
0.000480172
3.97294e-05
0.000447444
0.000105833
0.000407435
0.000160874
0.000362387
0.000204365
0.000314368
0.000236386
0.000265295
0.00025716
0.000217038
0.000267243
0.000171313
0.000267412
0.00012959
0.000258912
9.29758e-05
0.000243281
6.23148e-05
0.000222222
3.72157e-05
0.000198131
1.79047e-05
0.000172599
3.56425e-06
0.000147354
-6.29742e-06
0.000123007
-1.21964e-05
0.000100437
-1.50119e-05
8.01533e-05
-1.54192e-05
6.25905e-05
-1.41211e-05
4.79635e-05
-1.20058e-05
3.65205e-05
-9.73514e-06
2.80367e-05
-7.98329e-06
2.20697e-05
-7.385e-06
1.8556e-05
-8.13349e-06
1.62198e-05
-1.02303e-05
1.41697e-05
-1.33501e-05
1.17e-05
-1.71043e-05
8.02116e-06
-2.06601e-05
2.5238e-06
-2.32731e-05
-4.82918e-06
-2.40303e-05
-1.39998e-05
-2.23864e-05
-2.40362e-05
-1.84674e-05
-3.3261e-05
-1.2794e-05
-4.06942e-05
-5.57967e-06
-4.65233e-05
2.92393e-06
-5.07327e-05
1.27623e-05
-5.32552e-05
2.37807e-05
-5.36728e-05
3.57516e-05
-5.16504e-05
4.80885e-05
-4.6503e-05
6.01892e-05
-3.77585e-05
7.12419e-05
-2.51177e-05
8.04799e-05
-8.68667e-06
8.72734e-05
1.19762e-05
9.06217e-05
3.63939e-05
8.9905e-05
6.38788e-05
8.44681e-05
9.41121e-05
7.37432e-05
0.000126391
5.7181e-05
0.000159996
3.43511e-05
0.000194012
4.98865e-06
0.000227176
-3.09395e-05
0.000257944
-7.29594e-05
0.000284992
-0.000120631
0.000306462
-0.000172774
0.000320329
-0.000227969
0.000325201
-0.00028462
0.000319947
-0.0003409
0.000303606
-0.000394954
0.000275583
-0.000444529
0.000235329
-0.000487498
0.000182907
-0.000521561
0.000118493
-0.000544155
4.2742e-05
-0.000553173
-4.32584e-05
-0.000545668
-0.000138522
-0.000519451
-0.000239772
-0.000472349
-0.000344396
-0.000402945
-0.000447636
-0.000311743
-0.000540274
-0.000202285
-0.000607978
-8.47468e-05
-0.000629341
-0.000487455
0.000100612
-0.000571062
0.000247746
-0.000750311
0.000379275
-0.000711042
0.000479764
-0.000609951
0.000548326
-0.000484959
0.000588543
-0.000356153
0.000604816
-0.000233227
0.000601208
-0.000119633
0.000580583
-1.59401e-05
0.000547284
7.30327e-05
0.000503533
0.000149593
0.000452206
0.000212206
0.00039574
0.000260834
0.000336563
0.000295565
0.000276915
0.000316811
0.000219021
0.00032514
0.000164863
0.000321572
0.000116258
0.000307519
7.45764e-05
0.000284964
4.07731e-05
0.000256026
1.43891e-05
0.000224515
-5.12066e-06
0.000192108
-1.83269e-05
0.000160559
-2.62626e-05
0.000130942
-2.96774e-05
0.000103851
-2.95141e-05
7.99903e-05
-2.66717e-05
5.97484e-05
-2.21808e-05
4.34733e-05
-1.6926e-05
3.12664e-05
-1.18516e-05
2.29629e-05
-7.97368e-06
1.81926e-05
-6.05169e-06
1.66347e-05
-6.41449e-06
1.65832e-05
-9.12414e-06
1.68798e-05
-1.35072e-05
1.60831e-05
-1.94172e-05
1.39308e-05
-2.53089e-05
8.41453e-06
-3.02051e-05
6.56906e-08
-3.27156e-05
-1.14909e-05
-3.20081e-05
-2.47455e-05
-2.82363e-05
-3.70346e-05
-2.19651e-05
-4.69672e-05
-1.40598e-05
-5.44304e-05
-4.18397e-06
-6.06101e-05
7.57565e-06
-6.50161e-05
2.11813e-05
-6.72793e-05
3.63135e-05
-6.67826e-05
5.24617e-05
-6.26504e-05
6.87203e-05
-5.40154e-05
8.40199e-05
-4.04149e-05
9.72642e-05
-2.19282e-05
0.000108063
1.18027e-06
0.000114825
2.96342e-05
0.000117026
6.16788e-05
0.000113938
9.72011e-05
0.000104637
0.000135691
8.85309e-05
0.000176102
6.49015e-05
0.000217642
3.32739e-05
0.000258804
-6.68245e-06
0.000297901
-5.39507e-05
0.000332261
-0.000108892
0.000361403
-0.000169718
0.000381156
-0.000234913
0.000390397
-0.000302542
0.000387578
-0.000370481
0.000371548
-0.000436448
0.000341553
-0.000498133
0.000297016
-0.000552918
0.000237692
-0.000598105
0.00016368
-0.000630627
7.5263e-05
-0.000648215
-2.56711e-05
-0.000646358
-0.00014038
-0.00062234
-0.000263791
-0.000572632
-0.000394106
-0.000494098
-0.000526171
-0.000385497
-0.000648877
-0.000249514
-0.000743965
-0.000101206
-0.000777648
-0.00058866
0.000122271
-0.00069333
0.000316234
-0.000944271
0.000483978
-0.000878783
0.000601904
-0.000727875
0.000674248
-0.000557303
0.000710554
-0.000392456
0.000718764
-0.000241443
0.000704256
-0.000105116
0.000672393
1.59132e-05
0.000625573
0.000119848
0.000568028
0.000207139
0.000502841
0.000277398
0.000432638
0.000331038
0.000360094
0.000368107
0.000287778
0.000389126
0.00021819
0.000394727
0.000153981
0.00038578
9.74846e-05
0.000364014
5.05505e-05
0.000331897
1.34794e-05
0.000293097
-1.37496e-05
0.000251743
-3.22572e-05
0.000210615
-4.32901e-05
0.000171592
-4.81616e-05
0.000135814
-4.80555e-05
0.000103746
-4.3855e-05
7.57916e-05
-3.67223e-05
5.26182e-05
-2.78232e-05
3.45768e-05
-1.83963e-05
2.18422e-05
-9.72841e-06
1.42975e-05
-3.18902e-06
1.16554e-05
4.06016e-07
1.30414e-05
4.28784e-07
1.65617e-05
-3.19845e-06
2.05076e-05
-9.76208e-06
2.26465e-05
-1.80042e-05
2.21718e-05
-2.77971e-05
1.82055e-05
-3.62477e-05
8.51394e-06
-4.19491e-05
-5.79228e-06
-4.37414e-05
-2.2956e-05
-4.15234e-05
-3.92553e-05
-3.60606e-05
-5.24325e-05
-2.75169e-05
-6.29764e-05
-1.65761e-05
-7.15528e-05
-2.77281e-06
-7.88207e-05
1.3895e-05
-8.39477e-05
3.31172e-05
-8.60045e-05
5.40278e-05
-8.35598e-05
7.55035e-05
-7.54889e-05
9.60522e-05
-6.09608e-05
0.00011448
-4.03527e-05
0.000129809
-1.41462e-05
0.000141056
1.83909e-05
0.00014722
5.55176e-05
0.000147276
9.71475e-05
0.000140348
0.000142621
0.00012545
0.000191001
0.000101653
0.00024144
6.81925e-05
0.000292266
2.46237e-05
0.00034147
-2.94157e-05
0.0003863
-9.24111e-05
0.000424399
-0.000163436
0.000452181
-0.000240465
0.000467426
-0.000321044
0.000468157
-0.000402779
0.000453283
-0.00048312
0.000421894
-0.000559424
0.000373319
-0.000628755
0.000307023
-0.000687998
0.000222923
-0.000733794
0.000121058
-0.00076224
2.77441e-06
-0.00076966
-0.00013296
-0.000751168
-0.000282283
-0.000701608
-0.000443666
-0.00061492
-0.00061286
-0.00048546
-0.000778339
-0.000312984
-0.000916441
-0.000121057
-0.000969573
-0.000709716
0.00015679
-0.000850118
0.000423078
-0.00121056
0.000636645
-0.00109235
0.000768235
-0.000859465
0.000837054
-0.00062613
0.000862879
-0.000418284
0.000858013
-0.000236586
0.00082855
-7.56457e-05
0.000780105
6.43598e-05
0.000716671
0.000183284
0.000642355
0.000281449
0.00056058
0.000359167
0.000474301
0.000417314
0.000386097
0.000456312
0.000298648
0.000476575
0.000215052
0.000478322
0.000138685
0.000462147
7.26714e-05
0.000430027
1.98666e-05
0.000384702
-1.99578e-05
0.000332922
-4.6735e-05
0.000278521
-6.26771e-05
0.000226558
-6.99244e-05
0.000178841
-7.04708e-05
0.000136362
-6.53912e-05
9.86688e-05
-5.59679e-05
6.63709e-05
-4.33005e-05
3.99538e-05
-2.8561e-05
1.98403e-05
-1.35212e-05
6.8053e-06
7.6367e-08
7.02709e-07
9.67285e-06
2.06108e-06
1.47135e-05
8.00229e-06
1.49263e-05
1.63498e-05
1.08577e-05
2.45765e-05
2.12079e-06
3.13829e-05
-1.03895e-05
3.46809e-05
-2.39789e-05
3.1793e-05
-3.8389e-05
2.29219e-05
-4.94371e-05
5.25317e-06
-5.64157e-05
-1.59801e-05
-5.86813e-05
-3.69925e-05
-5.63091e-05
-5.48074e-05
-4.95493e-05
-6.97386e-05
-3.77364e-05
-8.33676e-05
-2.16885e-05
-9.487e-05
-1.53123e-06
-0.000104105
2.25415e-05
-0.000110077
4.96288e-05
-0.000110646
7.77334e-05
-0.000103591
0.000104988
-8.82122e-05
0.000129597
-6.4958e-05
0.000150424
-3.49686e-05
0.000167233
1.58596e-06
0.000178241
4.45135e-05
0.000182677
9.27156e-05
0.000179276
0.000146026
0.000166741
0.000203538
0.000143808
0.000264375
0.000109215
0.00032686
6.18923e-05
0.000388793
1.25696e-06
0.000446936
-7.12055e-05
0.000496861
-0.000154416
0.000535391
-0.000245333
0.000558343
-0.000341275
0.000564098
-0.000439368
0.000551376
-0.000536599
0.000519124
-0.00063012
0.000466838
-0.000716933
0.000393834
-0.000793554
0.000299544
-0.000856196
0.000183699
-0.000900269
4.6847e-05
-0.000921345
-0.000111885
-0.000913506
-0.000290122
-0.000869339
-0.000487834
-0.000778018
-0.000704183
-0.000626171
-0.000930187
-0.000405403
-0.00113721
-0.000149423
-0.00122555
-0.00085914
0.000229939
-0.00108006
0.000614753
-0.00159537
0.000879335
-0.00135694
0.00100129
-0.000981424
0.00104444
-0.000669274
0.00104815
-0.000421999
0.00102358
-0.000212007
0.000975957
-2.80295e-05
0.000907768
0.000132541
0.000823743
0.000267317
0.000729391
0.000375807
0.000628392
0.000460166
0.000523434
0.000522269
0.000416909
0.000562834
0.00031157
0.000581914
0.000210997
0.000578894
0.000119363
0.000553781
4.17313e-05
0.000507658
-1.8912e-05
0.000445346
-6.09623e-05
0.000374973
-8.63735e-05
0.000303933
-9.84771e-05
0.000238663
-0.000101027
0.000181392
-9.63514e-05
0.000131688
-8.58789e-05
8.81992e-05
-7.06042e-05
5.10994e-05
-5.14837e-05
2.08369e-05
-2.88722e-05
-2.76761e-06
-5.93591e-06
-1.61278e-05
1.45056e-05
-1.97361e-05
3.01113e-05
-1.35423e-05
3.84527e-05
-3.37324e-07
3.98764e-05
1.49273e-05
3.47321e-05
2.97213e-05
2.34015e-05
4.27132e-05
6.50539e-06
5.15759e-05
-1.41058e-05
5.24024e-05
-3.42868e-05
4.31006e-05
-5.3344e-05
2.43076e-05
-6.84847e-05
-8.42528e-07
-7.84515e-05
-2.70288e-05
-8.2334e-05
-5.09279e-05
-7.94348e-05
-7.26406e-05
-6.93556e-05
-9.3449e-05
-5.20783e-05
-0.000112149
-2.83434e-05
-0.000127841
1.33567e-06
-0.000139756
3.63405e-05
-0.00014565
7.34432e-05
-0.000140692
0.000109615
-0.000124381
0.000142306
-9.7646e-05
0.000170283
-6.29423e-05
0.000193825
-2.19527e-05
0.000210861
2.74805e-05
0.000220669
8.29116e-05
0.000221806
0.000144892
0.000212857
0.000212491
0.000191991
0.000285245
0.000156868
0.000361986
0.000105487
0.000440176
3.73237e-05
0.0005151
-4.68845e-05
0.000581069
-0.000144821
0.000633327
-0.000252688
0.000666208
-0.00036681
0.000678219
-0.000483698
0.000668263
-0.000600328
0.000635752