/*--------------------------------*- C++ -*----------------------------------*\
| =========                 |                                                 |
| \\      /  F ield         | OpenFOAM: The Open Source CFD Toolbox           |
|  \\    /   O peration     | Version:  2412                                  |
|   \\  /    A nd           | Website:  www.openfoam.com                      |
|    \\/     M anipulation  |                                                 |
\*---------------------------------------------------------------------------*/
FoamFile
{
    version     2.0;
    format      ascii;
    arch        "LSB;label=32;scalar=64";
    class       volScalarField;
    location    "7.4";
    object      alpha.ethanol;
}
// * * * * * * * * * * * * * * * * * * * * * * * * * * * * * * * * * * * * * //

dimensions      [0 0 0 0 0 0 0];

internalField   nonuniform List<scalar> 
6400
(
1
0.999998
0.999999
0.999999
0.999999
0.999999
0.999999
0.999999
0.999999
1
1
1
1
1
1
1
1
1
1
1
1
1
1
1
1
1
1
1
1
1
1
1
1
1
1
1
1
1
0.999999
0.999999
0.999999
0.999999
0.999998
0.999999
0.999999
1
1
1
1
1
1
0.999999
0.999999
0.999999
1
1
1
1
0.999999
0.999999
1
1
1
1
1
1
1
1
1
1
1
0.999999
0.999998
0.999999
1
1
1
0.999999
0.999999
1
1
0.999997
0.999997
0.999997
0.999999
1
0.999999
0.999999
0.999999
0.999999
1
1
1
1
1
1
1
1
1
1
1
1
1
1
1
1
1
1
1
1
1
1
1
1
1
1
0.999999
0.999999
0.999999
0.999999
0.999999
0.999999
0.999998
0.999998
0.999999
1
1
1
1
1
0.999999
0.999999
1
1
1
1
1
1
1
1
1
1
1
1
0.999999
0.999999
1
1
1
0.999999
0.999998
0.999998
1
1
1
0.999999
0.999998
0.999997
0.999999
0.999997
0.999999
0.999998
0.999997
0.999999
1
1
0.999999
0.999998
0.999998
0.999999
1
1
1
1
1
1
1
1
1
1
1
1
1
1
1
1
1
1
0.999999
0.999999
0.999998
0.999997
0.999997
0.999998
0.999998
0.999998
0.999999
0.999999
0.999999
0.999999
0.999999
1
1
1
0.999999
0.999999
1
1
1
1
1
1
1
1
1
1
1
1
1
1
1
0.999999
0.999997
0.999997
0.999997
1
1
1
1
1
1
1
1
0.999998
0.999998
0.999997
0.999996
0.999997
0.999997
0.999998
0.999998
0.999998
0.999999
1
1
0.999999
0.999998
0.999998
0.999999
1
1
0.999999
0.999999
1
1
1
0.999999
0.999999
1
1
1
1
1
1
1
1
1
1
0.999998
0.999997
0.999998
0.999999
0.999999
0.999997
0.999997
0.999997
0.999998
0.999999
1
1
1
1
1
1
0.999999
0.999999
0.999999
0.999999
0.999999
0.999999
0.999999
1
1
1
0.999999
0.999999
0.999999
0.999999
1
1
1
1
1
1
1
1
1
1
1
0.999999
0.999999
0.999999
0.999998
0.999997
0.999997
0.999998
0.999999
1
0.999998
1
0.999998
0.999999
1
1
1
0.999999
0.999999
0.999999
1
1
1
0.999999
0.999998
0.999998
0.999999
1
1
1
1
0.999999
0.999999
1
1
1
1
1
1
1
1
1
1
1
1
0.999998
0.999998
0.999999
1
1
1
1
0.999999
0.999999
0.999998
0.999997
0.999997
0.999997
0.999997
0.999999
0.999999
0.999999
0.999999
1
1
1
1
1
1
0.999998
0.999997
0.999998
0.999999
0.999999
0.999998
0.999998
0.999996
0.999995
0.999995
0.999996
1
1
0.999999
0.999999
0.999998
1
1
1
1
0.999999
0.999999
1
0.999999
1
1
1
1
1
1
1
1
1
0.999998
0.999998
0.999999
0.999999
0.999999
0.999999
0.999998
0.999998
0.999998
0.999999
0.999999
0.999999
1
1
1
1
1
1
1
1
1
1
1
1
0.999999
1
1
1
1
1
1
1
0.999999
0.999999
0.999999
0.999999
1
1
1
1
1
1
1
1
0.999999
0.999999
0.999999
0.999998
0.999997
0.999998
0.999999
0.999999
1
0.999999
0.999998
0.999998
0.999997
0.999997
0.999999
1
0.999999
0.999999
0.999999
1
0.999999
0.999999
0.999998
0.999997
0.999999
0.999999
1
1
1
1
1
1
1
1
1
1
0.999999
0.999999
0.999999
0.999998
0.999997
0.999997
0.999999
1
1
1
1
1
1
1
1
1
1
1
0.999999
0.999999
0.999999
0.999999
1
1
1
1
1
1
1
1
1
1
1
1
1
1
1
1
1
1
0.999999
0.999998
0.999999
1
1
1
1
1
1
1
1
1
1
1
1
1
0.999998
0.999997
0.999998
0.999999
0.999998
0.999998
0.999999
1
0.999999
0.999999
0.999999
1
1
1
1
1
1
1
1
1
1
1
1
1
0.999999
0.999999
0.999999
1
0.999999
0.999999
1
1
1
1
1
1
1
1
0.999999
0.999999
0.999999
0.999999
0.999999
1
1
1
1
1
1
1
1
1
1
1
1
1
1
1
1
1
1
1
0.999999
0.999998
0.999998
0.999998
0.999999
1
1
1
1
0.999999
0.999999
0.999999
1
1
0.999999
0.999999
0.999998
0.999997
0.999999
0.999999
0.999999
0.999998
0.999999
1
1
1
1
1
1
1
0.999999
1
1
1
1
1
1
1
1
1
1
1
1
1
1
1
1
0.999998
0.999998
0.999998
0.999998
0.999998
0.999998
0.999999
1
1
1
1
1
1
1
1
1
1
1
1
1
1
1
1
1
1
1
1
1
1
1
1
1
1
1
0.999998
0.999997
0.999997
0.999999
1
1
1
1
0.999999
0.999998
0.999998
0.999999
0.999999
0.999998
0.999997
0.999997
0.999997
0.999997
0.999999
0.999999
0.999999
1
1
1
0.999999
1
1
1
1
1
1
1
1
1
1
1
1
1
1
1
0.999999
1
1
1
0.999999
0.999999
0.999999
0.999999
1
1
1
1
1
1
1
1
1
1
1
1
1
1
1
1
1
1
1
1
1
1
1
1
1
1
1
1
1
1
1
1
1
1
1
1
1
1
1
1
1
0.999999
0.999998
0.999997
0.999997
0.999997
0.999997
0.999998
0.999999
1
1
1
1
1
1
1
1
1
1
1
0.999999
1
1
1
1
1
1
1
1
1
1
1
1
1
1
1
1
1
1
1
1
1
1
1
1
1
1
1
1
1
1
1
1
1
1
1
1
1
1
1
1
1
1
1
1
1
1
1
1
1
1
1
1
1
1
1
1
1
1
1
1
0.999999
0.999999
0.999999
0.999999
0.999999
1
1
1
1
1
1
1
1
1
1
1
1
1
1
1
1
1
1
0.999999
1
1
1
1
1
1
1
1
1
1
1
1
1
1
1
1
1
1
1
1
1
1
1
1
1
1
1
1
1
1
1
1
1
1
1
1
1
1
1
1
1
1
1
1
1
1
1
1
1
1
1
1
1
1
1
1
1
1
1
1
1
1
1
0.999999
0.999999
0.999999
1
1
0.999999
0.999999
1
1
0.999999
0.999999
1
1
1
1
1
0.999999
1
1
1
1
1
1
1
1
1
1
1
1
1
1
1
1
1
1
1
1
1
1
1
1
1
1
1
1
1
1
1
1
1
1
1
1
1
1
1
1
1
1
1
1
1
1
1
1
1
1
1
1
1
1
1
1
1
1
1
1
1
1
1
1
0.999999
1
1
1
0.999999
0.999999
1
0.999991
0.999972
0.99998
1
1
1
1
0.999999
1
1
1
1
1
1
1
1
1
1
1
1
1
1
1
1
1
1
1
1
1
1
1
1
1
1
1
1
1
1
1
1
1
1
1
1
1
1
1
1
1
1
0.999999
0.999999
0.999999
1
1
1
1
1
1
0.999999
0.999999
1
1
1
1
1
1
0.999999
0.999999
1
1
1
1
1
1
1
1
1
1
0.999996
0.999968
0.999966
0.999966
0.99999
1
1
1
1
1
1
1
1
1
1
1
1
1
1
1
1
1
1
1
1
1
1
1
1
1
1
1
1
1
1
1
1
1
1
1
1
1
1
1
1
1
1
1
0.999999
0.999999
0.999999
0.999999
0.999999
0.999999
1
1
1
0.999999
0.999998
0.999998
0.999998
0.999999
1
1
1
1
1
1
1
1
1
1
1
1
1
1
1
1
1
1
0.999999
0.999971
0.999966
0.999969
0.999988
1
1
1
1
1
1
1
1
1
1
1
1
1
1
1
1
1
1
1
1
1
1
1
1
1
1
1
1
1
1
1
0.999999
0.999999
0.999999
0.999999
0.999999
1
1
1
1
1
1
1
0.999999
0.999999
0.999999
0.999999
0.999999
0.999999
0.999999
0.999998
0.999998
0.999999
0.999998
0.999998
0.999998
0.999999
1
1
1
1
1
1
1
1
1
1
1
1
1
1
1
1
1
1
1
0.999998
0.999995
0.999998
0.999998
1
1
1
1
1
1
1
1
1
1
1
1
1
1
1
1
1
1
1
1
1
1
1
1
1
1
1
1
1
0.999999
0.999999
0.999999
0.999999
0.999999
0.999999
0.999999
1
1
1
1
0.999999
0.999999
0.999999
0.999999
0.999998
0.999999
0.999999
0.999999
0.999999
0.999999
0.999999
0.999999
0.999999
0.999999
0.999999
0.999999
0.999999
1
1
1
1
1
1
1
1
1
1
1
1
1
1
1
1
1
1
1
1
1
1
1
1
1
1
1
1
0.999999
0.999999
1
1
1
1
1
1
1
1
1
1
1
1
1
1
1
1
1
1
1
0.999999
0.999999
0.999999
0.999999
0.999999
0.999999
0.999999
0.999999
0.999999
0.999999
0.999998
0.999997
0.999995
0.999992
0.999989
0.999986
0.999985
0.999984
0.999986
0.999988
0.999991
0.999994
0.999997
0.999997
0.999998
0.999999
0.999999
0.999999
0.999999
0.999999
0.999999
1
0.999999
0.999999
0.999999
0.999999
0.999999
0.999999
0.999999
0.999999
0.999999
1
1
1
1
1
1
1
1
1
1
1
1
0.999999
0.999999
0.999999
0.999999
0.999987
0.999986
0.999983
0.999984
0.999989
0.999995
1
1
1
1
1
1
1
1
1
1
1
1
1
1
1
1
1
1
1
1
1
1
0.999999
0.999998
0.999995
0.999987
0.999972
0.999948
0.999911
0.999861
0.999802
0.999744
0.999695
0.999669
0.999669
0.999696
0.999745
0.999803
0.999862
0.999911
0.999947
0.99997
0.999985
0.999994
0.999998
0.999999
1
1
1
1
1
1
1
1
1
1
1
1
1
1
1
1
1
1
1
1
1
1
0.999993
0.999986
0.999978
0.999974
0.999978
0.99998
0.984703
0.985931
0.972426
0.9549
0.933489
0.909017
0.879504
0.842118
0.797484
0.751604
0.710668
0.677147
0.642572
0.626446
0.628324
0.647997
0.682456
0.727951
0.779666
0.832753
0.882482
0.925421
0.95851
0.981322
0.995527
1
1
0.999999
0.999667
0.996581
0.988174
0.974457
0.956475
0.933393
0.905798
0.876623
0.848897
0.825547
0.80917
0.801457
0.802625
0.812288
0.829683
0.852771
0.879736
0.908098
0.934852
0.957217
0.97442
0.987144
0.995435
0.999261
0.999998
1
1
0.995251
0.981007
0.958972
0.926661
0.883919
0.833474
0.7797
0.727394
0.682045
0.647901
0.627943
0.625337
0.6398
0.672537
0.712061
0.752825
0.799157
0.844571
0.881584
0.909876
0.933246
0.95296
0.968726
0.982348
0.981167
0.448689
0.425309
0.387058
0.337251
0.280029
0.220946
0.165081
0.116523
0.076905
0.0486814
0.0309555
0.0190093
0.014467
0.014302
0.0165875
0.0219854
0.0323939
0.0510048
0.0810339
0.124838
0.1836
0.255948
0.336242
0.413333
0.476713
0.527706
0.556012
0.555849
0.527634
0.470581
0.403757
0.343381
0.28632
0.233729
0.188501
0.151764
0.123639
0.103878
0.0919369
0.0869755
0.0881175
0.0952715
0.108073
0.126796
0.153509
0.189608
0.2347
0.287645
0.345908
0.405006
0.466577
0.523945
0.554919
0.558875
0.534404
0.484421
0.422944
0.348706
0.269459
0.196103
0.135163
0.0890302
0.0566548
0.0363252
0.0250925
0.0194848
0.0175119
0.0183032
0.0227255
0.0332221
0.0494933
0.075431
0.112563
0.159433
0.213484
0.268907
0.32181
0.367836
0.401461
0.422921
2.49001e-05
1.1506e-05
1.03544e-05
9.93559e-06
9.83677e-06
9.86225e-06
9.83677e-06
9.88433e-06
1.03976e-05
1.20397e-05
6.83028e-05
0.000135568
8.32092e-05
6.19408e-05
5.39272e-05
4.90731e-05
4.41875e-05
7.72849e-05
0.000108023
0.000164348
0.000319989
0.000486395
0.00063663
0.00123467
0.00476967
0.00907384
0.0106258
0.00888415
0.0039205
1.77916e-06
2.04252e-06
2.02346e-06
2.02889e-06
2.02474e-06
2.02889e-06
2.19887e-06
3.43379e-06
6.04502e-06
8.80102e-06
1.03393e-05
1.24522e-05
1.52616e-05
1.6056e-05
1.22372e-05
6.28404e-06
4.24115e-06
3.88397e-06
4.12927e-06
4.12927e-06
4.12596e-06
4.12927e-06
0.00193685
0.00805422
0.0102331
0.00928394
0.00536015
0.00156808
0.000709503
0.00065626
0.000542992
0.000396373
0.00025865
0.000163596
9.67656e-05
6.19094e-05
4.82192e-05
5.65351e-05
0.000100901
0.000151934
7.90714e-05
1.77647e-05
1.30438e-05
1.29311e-05
1.29536e-05
1.29311e-05
1.37113e-05
1.77672e-05
1.99661e-05
2.03719e-05
1.99642e-05
8.85597e-05
8.84705e-05
9.05488e-05
4.95298e-05
1.89017e-05
9.83677e-06
9.88433e-06
6.86048e-05
0.000202087
0.000120375
4.03732e-05
3.8114e-05
2.57158e-05
1.94615e-05
1.66646e-05
1.5917e-05
1.78352e-05
5.31964e-05
6.64441e-05
4.72117e-05
4.38535e-05
3.02202e-05
3.40035e-05
4.17486e-05
3.62427e-05
1.91249e-05
7.01861e-06
3.23169e-06
2.07987e-06
1.13417e-06
2.61732e-06
2.20705e-06
2.02531e-06
2.02889e-06
4.61313e-06
3.57194e-05
5.8507e-05
4.97754e-05
1.62668e-05
4.52203e-05
4.92435e-05
1.60821e-05
5.7524e-05
0.000125629
0.000113808
5.21834e-05
3.56873e-06
3.88397e-06
4.18814e-06
4.24073e-06
4.17393e-06
4.27582e-06
4.46076e-06
7.16281e-06
2.99911e-05
5.12609e-05
6.36387e-05
6.69762e-05
6.3318e-05
4.75402e-05
3.20298e-05
1.93639e-05
1.98048e-05
1.63557e-05
1.39272e-05
1.38553e-05
2.69995e-05
6.09779e-05
7.15056e-05
5.97431e-05
5.03381e-05
6.22129e-05
4.58042e-05
2.30053e-05
7.39357e-05
0.000198492
0.000200401
6.78154e-05
2.60839e-05
2.88626e-05
0.000121369
0.000127834
0.000129949
0.000115042
9.33802e-05
3.74804e-05
1.38649e-05
4.71293e-05
0.000340011
0.000234403
3.59127e-05
2.57167e-05
1.94626e-05
1.69857e-05
1.68017e-05
1.68017e-05
1.67965e-05
6.52852e-05
7.51043e-05
4.90366e-05
4.76721e-05
1.30028e-05
1.27342e-06
9.32156e-07
9.45077e-07
3.35847e-07
1.7945e-06
2.46384e-06
2.6855e-06
9.33253e-07
1.66027e-06
4.17254e-06
4.18977e-06
3.27464e-06
8.5135e-08
1.19566e-07
8.29098e-05
0.000111969
0.000118773
0.000130975
0.000131086
3.59102e-05
0.00016991
0.000172015
0.000159945
1.25986e-05
3.33513e-06
5.62455e-06
1.07658e-05
1.05959e-05
4.27582e-06
1.01095e-05
1.48373e-05
6.26221e-06
7.01936e-06
8.94155e-06
9.98671e-06
9.55234e-06
8.90838e-06
8.58298e-06
6.60127e-06
6.1768e-06
1.46458e-05
1.45776e-05
1.38556e-05
1.38802e-05
2.19176e-05
7.03767e-05
7.83839e-05
7.74095e-05
8.01954e-05
7.9504e-05
4.93676e-05
9.58194e-05
0.000260225
0.000261095
0.000196929
3.53506e-05
3.01475e-05
3.11704e-05
0.000126479
0.000152621
0.000153524
0.000153524
0.000153524
0.000153397
5.9637e-05
5.12299e-05
0.000397571
0.000637834
0.000256705
3.43011e-05
2.57167e-05
0.000122245
0.000164108
6.86698e-05
5.15621e-05
3.93212e-05
5.43374e-05
7.83174e-05
7.55528e-05
1.46107e-05
3.56969e-07
2.02165e-08
-3.70439e-09
2.31402e-08
3.08863e-09
3.30115e-09
1.70946e-08
4.37598e-08
4.47423e-08
3.69245e-08
7.44124e-08
7.53939e-08
7.92204e-08
8.51461e-08
1.20001e-07
6.58407e-05
0.000130137
0.00013122
0.000130975
6.83394e-05
4.69705e-05
0.000141693
3.36183e-06
3.2775e-06
3.16027e-06
5.42515e-06
5.14697e-06
4.23733e-06
4.23733e-06
1.00238e-05
1.43759e-05
5.05187e-06
5.13886e-06
5.41921e-06
5.76222e-06
5.97335e-06
6.23708e-06
6.65229e-06
6.21691e-06
6.21747e-06
6.21747e-06
9.84462e-06
1.9226e-05
2.11908e-05
5.80876e-06
3.81892e-06
4.33263e-06
2.1808e-06
2.44274e-05
6.48582e-05
4.17642e-05
9.36197e-05
0.000261095
0.000160332
3.23923e-05
3.23134e-05
3.23132e-05
3.23132e-05
0.000144312
0.000149466
9.44825e-05
1.52124e-05
2.25731e-05
0.000145518
0.000140905
6.45662e-05
0.000305616
0.000648031
0.00066743
0.000567302
0.000647745
0.000672753
0.000673322
0.000575501
0.000198008
3.67577e-05
3.96556e-05
8.6446e-05
6.07377e-05
6.51812e-06
4.51426e-08
5.89159e-09
2.96436e-09
2.52347e-09
2.83661e-09
3.08863e-09
6.28254e-08
7.25991e-08
6.71017e-08
2.94978e-08
2.7353e-08
6.12271e-08
8.515e-08
1.05901e-07
1.24997e-07
2.01705e-07
0.000113521
0.000130866
0.000131085
7.3076e-05
2.56418e-05
1.91488e-05
1.83943e-05
3.15515e-06
3.1462e-06
3.14854e-06
3.16869e-06
6.79361e-06
1.22353e-05
1.24216e-05
7.62722e-06
5.08122e-06
5.04521e-06
5.13886e-06
5.41921e-06
5.76222e-06
6.03871e-06
1.20943e-05
1.6368e-05
1.72913e-05
2.83566e-05
3.91954e-05
3.92238e-05
3.88091e-05
2.21867e-05
1.05167e-06
9.9653e-07
1.25308e-06
1.35917e-06
6.2009e-06
1.37189e-05
2.52649e-06
0.000167333
0.000167531
3.66456e-05
3.23132e-05
3.23132e-05
3.23132e-05
0.000141353
5.25026e-05
5.58637e-06
5.07735e-06
4.60537e-06
6.91229e-06
0.000105472
0.000125779
0.000145015
0.000667525
0.000670235
0.000673563
0.000673637
0.000673705
0.000671187
0.00044659
0.000154124
3.37585e-05
4.86569e-05
8.89998e-05
2.5949e-05
5.62807e-08
6.00268e-09
2.65249e-09
2.83885e-09
2.49211e-09
2.54055e-09
3.04914e-09
5.69034e-09
8.04136e-09
6.3562e-09
6.3562e-09
8.21718e-09
2.07171e-07
4.76727e-07
5.13171e-07
2.34172e-07
3.67129e-07
5.53362e-05
0.000129731
0.000130866
5.99496e-05
2.73718e-05
3.87446e-05
6.64586e-05
3.7443e-05
3.14797e-06
3.1462e-06
3.14854e-06
3.16869e-06
3.29897e-06
7.80539e-06
3.12042e-05
3.18256e-05
2.42557e-05
2.44507e-05
5.35636e-05
7.4673e-05
7.35952e-05
7.17957e-05
5.47787e-05
3.81249e-05
3.66229e-05
3.1048e-05
2.05457e-05
9.32325e-06
9.00014e-07
9.1829e-07
9.63262e-07
1.10596e-06
1.31711e-06
1.42869e-06
1.63837e-06
2.11633e-06
2.52649e-06
0.000121634
5.77299e-05
3.23134e-05
4.10756e-05
7.38747e-05
0.000139788
3.34272e-05
5.16728e-06
4.60537e-06
4.60537e-06
4.60536e-06
1.64595e-05
4.1397e-05
2.97625e-05
0.000398572
0.000671196
0.00067238
0.000673563
0.000603966
0.000218717
1.63019e-05
1.69783e-05
3.21535e-05
9.3138e-05
9.16882e-05
1.33043e-05
2.58113e-08
1.87042e-09
4.73204e-10
2.36015e-09
2.45847e-09
2.49181e-09
5.18168e-09
8.84454e-09
8.3317e-09
6.30976e-09
7.29816e-09
8.97765e-06
3.93051e-05
3.87713e-05
1.29642e-05
3.66513e-07
1.05997e-06
1.7594e-06
0.000123649
0.000129731
0.000116491
3.05459e-05
3.21781e-05
6.73341e-05
8.56238e-05
4.63749e-05
3.14854e-06
3.14899e-06
3.16087e-06
3.26093e-06
3.91881e-06
5.27183e-05
0.000106051
0.000105174
0.000103914
0.000102949
9.9391e-05
1.8473e-05
8.88748e-07
8.88748e-07
8.88734e-07
8.88748e-07
8.90748e-07
8.94954e-07
8.96631e-07
8.96866e-07
9.00276e-07
9.1856e-07
1.08546e-06
3.5745e-06
1.82278e-06
2.00197e-06
2.19294e-06
2.3073e-06
1.68394e-05
5.05924e-05
4.79547e-05
9.99569e-05
9.99569e-05
0.00012988
2.63654e-05
6.81338e-06
6.6422e-06
5.06959e-06
4.76156e-06
4.46987e-06
5.01617e-06
7.21735e-06
2.72787e-05
0.000590822
0.000671196
0.000283382
1.81714e-05
1.58513e-05
1.61625e-05
1.63019e-05
8.38754e-05
9.33285e-05
4.86959e-05
2.19418e-07
4.39055e-09
3.88605e-10
1.54133e-10
4.30408e-09
2.57383e-09
3.5273e-09
3.33261e-08
1.31794e-07
3.28217e-08
7.29816e-09
1.13949e-08
5.27868e-05
8.85849e-05
9.59907e-05
3.83239e-05
1.94351e-06
1.75947e-06
2.64504e-06
5.19555e-05
0.000127678
0.000124723
5.09055e-05
3.29887e-05
3.38926e-05
8.77517e-05
0.000119332
7.93381e-05
3.16087e-06
3.1777e-06
3.30272e-06
9.21883e-06
9.36517e-05
0.000106051
0.000106051
9.15232e-05
4.25938e-06
1.05942e-06
9.20662e-07
8.89912e-07
8.88636e-07
8.88748e-07
8.89806e-07
9.18229e-07
8.96514e-07
8.96866e-07
8.98858e-07
9.17014e-07
9.62817e-07
1.01843e-06
2.14467e-06
3.60143e-05
0.000212697
9.63649e-05
2.65894e-06
8.00653e-06
1.34094e-05
3.27341e-05
9.91908e-05
8.32042e-05
3.04061e-05
2.15543e-05
8.58529e-05
0.000185385
4.60083e-05
4.47097e-06
3.99084e-06
3.95964e-06
4.51055e-06
6.76207e-06
8.21648e-05
0.000112845
6.36939e-05
3.41434e-05
1.51369e-05
1.57118e-05
1.88708e-05
9.65892e-05
9.49431e-05
2.60891e-05
3.91526e-08
1.8428e-09
1.2233e-10
2.9193e-11
1.39566e-09
1.36198e-09
2.42378e-06
4.09748e-06
1.28076e-06
1.91384e-08
1.13938e-08
1.91397e-08
3.83747e-05
9.56593e-05
0.000102837
5.66924e-05
3.86499e-06
2.64511e-06
3.78654e-06
4.07292e-06
0.000103154
0.000126827
0.000131536
3.36059e-05
3.44448e-05
3.5398e-05
0.000109859
0.00016172
6.82321e-05
3.30272e-06
3.92346e-06
6.34422e-05
0.000105336
0.000106051
8.46114e-05
2.20301e-06
1.79387e-06
1.27596e-06
9.99873e-07
9.01095e-07
8.89912e-07
8.89869e-07
1.06708e-06
1.07483e-06
9.06506e-07
8.98861e-07
9.05573e-07
1.20108e-06
9.1584e-06
2.27451e-05
7.6967e-05
0.000390425
0.000426993
0.000425617
6.50885e-05
1.30993e-05
1.45927e-05
1.85417e-05
7.08082e-05
1.75098e-05
2.30942e-05
2.15415e-05
0.000270998
0.000271794
0.000132489
3.99085e-06
3.77811e-06
3.78329e-06
3.95964e-06
4.51055e-06
7.08091e-06
1.54412e-05
1.58504e-05
1.53862e-05
1.50125e-05
1.51369e-05
8.76056e-05
9.7403e-05
8.08223e-05
3.54614e-06
7.86434e-09
3.62076e-10
3.17642e-11
9.11336e-12
8.19764e-12
7.6642e-12
8.09879e-06
8.13935e-06
2.39169e-06
3.01026e-08
1.91391e-08
3.03789e-08
1.02667e-06
6.41967e-05
0.000105069
4.33769e-05
4.34856e-06
3.78652e-06
4.07317e-06
4.07292e-06
5.61429e-06
0.000124191
0.000134576
0.00011469
3.46666e-05
3.52252e-05
3.87881e-05
0.00016172
0.000160814
3.65925e-06
2.16418e-05
0.000104932
0.000105243
0.000105336
2.61073e-05
3.74536e-06
1.1441e-05
4.20896e-05
3.59408e-05
1.87273e-06
9.00574e-07
8.94277e-07
9.90455e-07
1.05194e-06
9.17637e-07
9.06951e-07
9.3174e-07
2.99227e-06
0.000203425
0.000425147
0.000429115
0.000429768
0.000429191
0.000428887
0.000425617
0.000105862
1.74009e-05
1.7684e-05
1.47405e-05
1.45514e-05
2.61761e-05
2.44926e-05
0.000271546
0.000271895
0.000206612
4.50043e-06
3.78329e-06
3.77949e-06
3.78329e-06
3.13865e-05
3.30867e-05
1.59089e-05
1.51276e-05
1.50125e-05
1.50575e-05
4.48698e-05
0.000106389
9.98108e-05
1.96636e-05
2.82663e-08
9.58818e-10
4.06424e-11
9.79961e-12
8.10791e-12
8.0925e-12
4.52717e-06
8.13935e-06
8.14153e-06
2.87314e-06
1.9274e-07
3.02782e-08
3.66955e-08
5.901e-08
5.07654e-05
0.000106003
4.12903e-05
4.62604e-06
4.35053e-06
4.62036e-06
5.22314e-06
6.13279e-06
9.352e-05
0.000137976
0.000140004
0.000116886
3.57838e-05
3.67586e-05
0.000117371
0.000165253
1.66653e-05
1.50797e-05
0.000103281
0.000104932
9.57238e-05
9.51148e-06
6.84961e-06
6.2161e-05
7.25077e-05
7.22684e-05
4.54764e-05
9.32694e-07
9.03881e-07
9.17788e-07
9.25617e-07
9.3134e-07
9.38218e-07
1.05724e-06
0.000260744
0.000425489
0.000430048
0.000430347
0.000430343
0.000429768
0.000429191
0.000428887
0.000423199
0.000252021
1.71505e-05
1.45519e-05
1.4509e-05
0.000137272
0.000102292
0.00020786
0.000271546
0.000262895
5.25811e-06
9.11103e-06
7.68971e-05
0.000120511
0.000142572
0.000135539
4.54869e-05
1.55537e-05
1.51276e-05
1.97471e-05
0.00012779
0.000107913
1.60065e-05
2.76293e-08
9.12526e-10
3.11494e-11
6.84555e-12
8.07198e-12
8.05322e-12
8.08426e-12
7.548e-06
8.14277e-06
8.14126e-06
5.39022e-06
1.18524e-06
1.30754e-07
6.08128e-08
8.5935e-08
2.52077e-05
0.0001065
7.66297e-05
8.47088e-06
8.81072e-06
3.76364e-05
2.91421e-05
8.30517e-06
7.20993e-05
0.000140006
0.000140168
0.000140004
6.58859e-05
3.58866e-05
6.27825e-05
0.000165253
0.000143196
1.48169e-05
2.11136e-05
7.29766e-05
3.76767e-05
1.17809e-05
3.97179e-05
7.26269e-05
7.25931e-05
7.25077e-05
7.01889e-05
1.03661e-06
9.27936e-07
9.25617e-07
9.31676e-07
9.53258e-07
1.06591e-06
5.19661e-05
0.00042545
0.00043058
0.000430855
0.000430542
0.000430347
0.000405985
0.000398743
0.000423199
0.000418701
0.00041383
0.00028621
2.82532e-05
1.33516e-05
0.000261486
0.000201606
0.000108959
0.000181327
0.000257957
8.61981e-05
3.94478e-05
0.000105128
0.000142581
0.000142562
9.93818e-05
2.0405e-05
1.87121e-05
6.95987e-05
0.00012779
0.000126294
2.63383e-05
3.24813e-09
8.07291e-11
3.31435e-12
2.3092e-12
6.17463e-12
7.99595e-12
8.05324e-12
8.05324e-12
2.44356e-06
8.14126e-06
8.14277e-06
8.14127e-06
1.81487e-06
5.17203e-07
7.08371e-07
3.36724e-07
2.42728e-06
0.000105162
0.00012128
2.53245e-05
1.08999e-05
4.62771e-05
4.82113e-05
1.2058e-05
5.44531e-05
0.000140171
0.000140169
0.000140168
4.77464e-05
3.53652e-05
6.18472e-05
0.000163049
0.000158602
1.48697e-05
1.38245e-05
1.3668e-05
1.27173e-05
1.20427e-05
3.29371e-05
7.26243e-05
7.2651e-05
7.25931e-05
5.61763e-05
1.3555e-06
9.79582e-07
9.3758e-07
9.58497e-07
1.01395e-06
1.46178e-06
0.000104946
0.000429249
0.000431033
0.000431007
0.000430857
0.000388351
0.000369393
0.000370217
0.000406764
0.000421235
0.000419414
0.00041391
9.48854e-05
1.20307e-05
0.000265978
0.000192866
0.000108959
0.000110449
0.000102573
6.13556e-05
5.91868e-05
6.58086e-05
7.76276e-05
7.73073e-05
7.52987e-05
0.000135296
0.000139823
0.000140217
9.48388e-05
2.25085e-06
1.90113e-10
1.97844e-11
4.57971e-12
2.27371e-12
2.25957e-12
6.11859e-12
9.74058e-12
8.05324e-12
8.08432e-12
8.52776e-12
8.08886e-06
8.14126e-06
8.13741e-06
1.73252e-06
7.44101e-07
1.33081e-06
7.94439e-07
1.68237e-06
1.57688e-05
0.00012413
0.00012413
1.54321e-05
1.66437e-05
4.75542e-05
2.83438e-05
3.60407e-05
0.000138206
0.000140168
6.25599e-05
3.53652e-05
3.48473e-05
3.89868e-05
0.000139385
8.91589e-05
1.33273e-05
1.41663e-05
4.30018e-05
1.23394e-05
1.22587e-05
1.23394e-05
4.23419e-05
7.25931e-05
7.25164e-05
5.46867e-05
3.31014e-06
1.10173e-06
9.84038e-07
1.04481e-06
3.19859e-06
5.18018e-06
0.000187019
0.000431067
0.000431319
0.000431144
0.000419321
0.000369177
0.000369284
0.000369393
0.000422148
0.000421801
0.000421235
0.000419414
8.44775e-05
1.18248e-05
0.000274649
0.000278566
0.00014896
0.000289367
0.000283864
0.000279989
0.000273464
0.00026469
8.42244e-05
7.28633e-05
0.000102833
0.000122641
7.52427e-05
2.03556e-05
7.57331e-07
2.00031e-10
2.84284e-11
1.82174e-11
1.69408e-11
2.90915e-12
2.25824e-12
7.51982e-12
2.5861e-11
8.737e-12
8.52776e-12
1.45414e-11
8.09871e-06
8.13741e-06
7.13648e-06
1.75407e-06
1.18372e-06
2.05798e-06
1.37087e-06
2.00812e-06
2.2769e-06
4.85268e-05
0.000125475
0.000126285
2.78894e-05
3.23534e-05
4.34043e-05
4.43842e-05
5.59761e-05
9.00452e-05
9.28208e-05
7.89817e-05
3.44431e-05
3.12531e-05
2.91621e-05
1.46082e-05
1.33273e-05
5.83182e-05
6.76081e-05
1.22892e-05
1.22987e-05
1.22807e-05
1.2949e-05
5.89586e-05
7.19574e-05
7.14227e-05
5.06426e-05
1.98596e-06
1.10873e-06
1.30652e-06
6.07543e-06
2.08853e-05
0.000358769
0.00043132
0.000431318
0.000431319
0.000395564
0.000369199
0.000369199
0.000411342
0.000422516
0.000422328
0.000421801
0.000412719
1.21685e-05
1.18472e-05
0.000222499
0.000296412
0.00029645
0.000295654
0.000241057
2.55942e-05
2.48554e-05
6.96703e-05
9.53473e-05
7.14842e-05
2.51762e-05
8.47321e-06
3.58998e-07
1.41888e-09
1.25638e-09
7.81352e-09
4.71227e-09
5.64648e-10
2.72432e-11
2.24845e-12
2.25827e-12
9.42426e-12
8.54476e-11
1.31879e-11
1.45414e-11
2.66783e-07
5.18693e-06
8.08219e-06
2.67785e-06
2.09004e-06
1.8301e-05
3.83713e-05
1.39436e-05
2.2769e-06
2.20609e-06
1.97382e-06
7.90511e-05
0.000137001
0.00013702
5.16269e-05
5.34598e-05
5.02635e-05
5.27936e-05
5.61848e-05
0.000168838
0.000197527
0.000163611
3.32169e-05
2.18232e-05
1.75922e-05
2.48348e-05
0.000145193
0.000147996
0.000224348
0.000227372
0.000149916
2.67062e-05
3.138e-05
6.9389e-05
7.11213e-05
7.08556e-05
3.7035e-05
1.42059e-06
1.65072e-06
5.85588e-06
1.79984e-05
0.000316113
0.000431271
0.000431319
0.000431271
0.000431498
0.0003769
0.000409021
0.000423641
0.000423872
0.000422516
0.000420504
7.09471e-05
1.58856e-05
1.18472e-05
0.000211473
0.000296539
0.000296412
0.000293919
9.43171e-05
2.42185e-05
1.62579e-05
1.21578e-05
5.6549e-06
4.59629e-06
3.69226e-08
6.23939e-08
1.97074e-09
8.86681e-11
3.78658e-10
4.06488e-09
6.11037e-10
1.83089e-10
4.67053e-11
2.23375e-12
2.25411e-12
1.06501e-11
1.4871e-10
1.79677e-09
1.23676e-09
9.61438e-08
2.82429e-07
2.22148e-06
2.78788e-06
2.20373e-05
0.000112941
0.000119068
9.92722e-05
8.27565e-06
1.97382e-06
1.94866e-06
1.89944e-06
8.38927e-05
0.000137146
0.000137146
5.85052e-05
5.2861e-05
5.45602e-05
5.56296e-05
0.000191328
0.000199091
0.000197527
4.44825e-05
2.28823e-05
2.18232e-05
0.000103005
0.00014316
0.000173644
0.000233854
0.000233765
0.000233735
0.000233411
7.42277e-05
4.83876e-05
6.83142e-05
7.08101e-05
7.11443e-05
2.52433e-06
2.34062e-06
4.67483e-06
6.09929e-06
0.000134553
0.00043104
0.000431271
0.00043104
0.00043083
0.000432644
0.000429109
0.000426053
0.000424997
0.000414761
8.56567e-05
2.3529e-05
1.9666e-05
0.00020545
0.000210607
0.000296287
0.000296609
0.00029607
0.000235462
2.86969e-05
0.000154884
0.000215203
2.74343e-05
8.85872e-09
6.34929e-09
4.71116e-07
1.97485e-07
8.82691e-11
8.81271e-11
8.79637e-11
1.85084e-10
1.92957e-10
5.37056e-11
1.50445e-12
2.48783e-12
1.07842e-11
9.83032e-11
1.40378e-08
2.84824e-08
1.80014e-08
9.66255e-09
1.29124e-08
9.38094e-06
0.000109592
0.000120428
0.000120506
0.000119068
7.43911e-05
2.71202e-06
1.60453e-06
1.81498e-06
2.76356e-06
8.3499e-05
0.000129792
0.000124205
5.47554e-05
5.56334e-05
0.000110041
0.000202044
0.000199824
0.000161642
3.11373e-05
2.44249e-05
5.56768e-05
0.000107446
5.59646e-05
0.000189625
0.000233854
0.000233869
0.000233587
0.000231356
0.000205454
4.86894e-05
4.93958e-05
7.13047e-05
7.16651e-05
7.80067e-06
3.74213e-06
3.66509e-06
5.31311e-06
8.76316e-05
0.000429813
0.000431343
0.00043083
0.000431446
0.00043074
0.000426999
0.000419856
0.000146019
9.40107e-05
7.33411e-05
7.3271e-05
0.000210079
0.000215057
0.000273886
0.00029652
0.000296355
0.000278851
4.38135e-05
4.00819e-05
0.000237587
0.000237527
0.000228431
3.56659e-09
2.30734e-09
2.61445e-07
1.34207e-09
1.54396e-10
8.95661e-11
8.79995e-11
2.24782e-10
1.89033e-10
2.51819e-11
5.54133e-13
4.49769e-12
1.66039e-11
1.01559e-10
2.4132e-08
4.48162e-08
1.8899e-08
1.91179e-09
1.36173e-09
3.84749e-05
0.000120177
0.000120473
0.000118914
0.000115932
0.000112251
3.00353e-05
6.9627e-07
6.16472e-07
2.15407e-06
2.68432e-06
3.87966e-05
9.01518e-05
0.000128588
0.000124966
0.000202044
0.000203899
0.000183211
3.95372e-05
1.38859e-05
3.89992e-05
0.000106018
0.000106382
1.81594e-05
0.00010866
0.000233854
0.000233587
0.000187456
0.000172589
8.81011e-05
3.09965e-05
7.14155e-05
7.17904e-05
7.19314e-05
4.83427e-05
3.6651e-06
3.94753e-06
4.61953e-06
9.44488e-06
0.000198879
0.000429663
0.000430292
0.000430244
0.000220806
0.000153782
0.000108135
7.64971e-05
5.69995e-05
9.71576e-05
0.000128214
0.000125025
0.000104667
0.00029546
0.000296355
0.000296076
0.000296076
0.000194637
2.96824e-05
4.36289e-05
0.00023762
0.000237291
2.03687e-05
3.53018e-11
4.52678e-09
3.90117e-09
8.81514e-10
1.25827e-10
7.27257e-11
1.81915e-10
1.11778e-10
9.49971e-12
5.33931e-13
1.12081e-11
5.72823e-11
1.88322e-10
2.01061e-08
4.48162e-08
4.44544e-08
1.54908e-09
1.36173e-09
3.88182e-05
0.000120077
0.000108377
2.48948e-05
1.77486e-05
0.000106125
7.91863e-05
4.51654e-06
3.55627e-07
4.32311e-07
9.83092e-07
2.7414e-07
2.88048e-05
0.000160028
0.000201311
0.000203899
0.000204267
0.000201319
1.81396e-05
1.28255e-05
0.00010258
0.000105448
0.000106018
1.60718e-05
4.64923e-06
0.000121536
0.000105418
2.41674e-05
2.41486e-05
2.39495e-05
2.62517e-05
7.17032e-05
7.19386e-05
7.19314e-05
7.12813e-05
3.94754e-06
3.42939e-06
4.16065e-06
5.99558e-06
9.51758e-06
0.000157306
0.000279048
0.000194523
0.000105362
9.50728e-05
7.82709e-05
5.84186e-05
4.29373e-05
4.04895e-05
1.45327e-05
9.89806e-06
4.91603e-05
0.000294732
0.000215775
0.000296076
0.000295364
0.000294362
6.72727e-05
4.42061e-05
0.000236721
0.000213397
4.69638e-05
5.53043e-12
1.67165e-08
7.37797e-09
1.73579e-09
2.60784e-10
3.04954e-11
7.4708e-11
5.07539e-11
2.56941e-12
5.21158e-13
2.36528e-11
1.91344e-10
1.93233e-10
4.50543e-09
2.82962e-08
2.47904e-08
1.55736e-09
1.3608e-09
9.53912e-06
5.50357e-05
5.46222e-06
3.91031e-06
5.2455e-06
2.20777e-05
7.72101e-05
2.78151e-05
1.85829e-07
1.3443e-07
1.23634e-07
1.27842e-07
2.74262e-07
2.56094e-05
0.000189982
0.000204267
0.000204267
0.000204267
2.78562e-05
1.26328e-05
6.33804e-05
0.000103062
8.05943e-05
7.8476e-06
2.62228e-06
3.85763e-05
4.84036e-05
2.41486e-05
2.39495e-05
2.39495e-05
2.39495e-05
3.9694e-05
7.17032e-05
7.19324e-05
7.16994e-05
4.31103e-06
2.20437e-06
8.6541e-06
8.31352e-06
7.9789e-06
1.01841e-05
2.18763e-05
6.37383e-05
0.000127471
0.00012693
0.000124285
0.000106904
1.88698e-05
1.99114e-06
1.38077e-06
1.26193e-06
7.3968e-06
0.000136725
0.000177148
0.000294428
0.000294362
0.000185884
6.10026e-05
5.84969e-05
0.000217053
2.74239e-05
1.22113e-05
8.32727e-13
6.96948e-10
4.363e-09
3.01229e-09
3.44244e-10
1.25034e-11
3.36866e-11
1.88758e-11
4.81326e-13
4.98947e-13
3.69577e-11
4.5055e-10
8.0345e-10
1.18151e-09
1.22384e-09
1.67994e-09
1.37373e-09
1.36675e-09
2.05432e-07
2.03443e-07
3.3488e-07
1.21693e-06
4.01882e-06
6.61093e-06
5.36747e-05
3.53894e-05
4.90982e-07
1.24688e-07
1.24688e-07
1.23619e-07
1.27842e-07
3.55727e-07
1.99805e-05
0.000203729
0.000204267
0.000203745
2.38459e-05
1.17502e-05
1.02009e-05
2.53363e-05
1.09957e-05
2.61903e-06
2.07368e-06
3.02809e-05
0.000112222
8.15266e-05
2.42178e-05
2.39495e-05
2.39633e-05
2.42609e-05
4.21567e-05
7.16994e-05
7.04566e-05
6.5668e-06
1.45742e-06
1.20715e-05
8.92849e-06
7.10167e-06
9.9538e-06
9.49086e-05
0.000126911
0.000127471
0.000126911
0.000125383
5.22276e-05
2.34166e-05
2.7903e-05
1.03034e-05
8.87102e-08
8.87166e-08
1.08396e-09
4.29061e-05
0.000132499
0.000147921
2.20248e-05
7.13335e-05
0.000121891
3.52388e-05
1.47887e-15
1.22864e-15
4.36256e-15
8.3071e-11
2.73898e-09
1.94781e-09
1.28221e-10
4.1365e-12
1.27053e-11
5.60536e-12
8.41573e-14
2.60899e-13
4.20523e-11
7.69019e-10
2.07457e-09
1.65143e-09
1.33198e-09
1.38033e-09
1.37452e-09
1.3982e-09