/*--------------------------------*- C++ -*----------------------------------*\
| =========                 |                                                 |
| \\      /  F ield         | OpenFOAM: The Open Source CFD Toolbox           |
|  \\    /   O peration     | Version:  2412                                  |
|   \\  /    A nd           | Website:  www.openfoam.com                      |
|    \\/     M anipulation  |                                                 |
\*---------------------------------------------------------------------------*/
FoamFile
{
    version     2.0;
    format      ascii;
    arch        "LSB;label=32;scalar=64";
    class       volScalarField;
    location    "2.65";
    object      p_rgh;
}
// * * * * * * * * * * * * * * * * * * * * * * * * * * * * * * * * * * * * * //

dimensions      [1 -1 -2 0 0 0 0];

internalField   nonuniform List<scalar> 
6400
(
24604.3
24576.6
24544.4
24533.9
24567
24639.3
24712.9
24736.9
24682.5
24568.1
24454.9
24412.6
24475
24615.2
24757.2
24820.4
24767.9
24629.5
24484.1
24412.7
24451.2
24571.8
24703.1
24773.9
24753.1
24662.8
24559.7
24499.4
24506
24564.1
24633.9
24677.3
24677.4
24643.8
24600.8
24571.6
24566.4
24580.2
24599.8
24613.3
24615.6
24609.1
24599.4
24591.4
24587
24585.4
24585.5
24586.7
24588.7
24590.7
24590.6
24586.7
24579.2
24571.5
24569
24575
24587.6
24598.8
24598.8
24583.4
24558.4
24539.3
24541.9
24571.4
24615.2
24647.6
24644.3
24599.1
24532.7
24483
24484.3
24544.6
24637.4
24714.3
24732.2
24677.4
24572.5
24460.1
24379.8
24340.2
24623
24626.3
24600.2
24555.7
24521.9
24531.1
24590.5
24671.5
24724.4
24709.9
24627.6
24521.1
24453.8
24469.6
24563.9
24684.5
24762.3
24753.7
24665.9
24552.1
24477.7
24481.4
24554.8
24651
24715.2
24716.9
24663.8
24592.5
24543.5
24538.3
24570.9
24616.2
24647.4
24651.3
24632.1
24604.9
24585.2
24580.1
24587
24597.9
24605.2
24606
24601.9
24596.3
24591.7
24588.5
24586.2
24584.3
24583.6
24584.8
24587.6
24589.6
24587.6
24580.6
24571.2
24565.4
24568.6
24581
24596.2
24603.1
24593.7
24569.7
24544
24534.5
24552.5
24592.9
24634.3
24650.1
24625.5
24569.4
24511.7
24487.4
24515.2
24585.1
24662.4
24706.8
24692.9
24620.2
24515.9
24388.8
24599.4
24648.2
24653.6
24610.7
24536.8
24480.3
24487.1
24567.2
24682
24763.7
24757.6
24659.1
24521.3
24424.7
24428.1
24531.7
24675.8
24777.8
24782.1
24691.8
24564
24472.9
24465
24535.7
24636.7
24709.6
24719.4
24671.2
24600.7
24548.9
24538.8
24566.3
24607.9
24638.3
24644.2
24628.6
24605.2
24587.6
24582.2
24586.9
24594.8
24600
24600.6
24598
24594.6
24591.5
24588.2
24584.3
24580.6
24579.2
24582
24587.7
24592
24589.9
24579.5
24565.2
24556.1
24560.9
24580.4
24604.5
24616.8
24604.6
24569.6
24530.1
24512.3
24533.9
24589.4
24650.2
24678.9
24652.7
24580.2
24499.3
24457.2
24482.2
24565.6
24664.8
24725
24707.8
24619.3
24475.7
24549.3
24634.7
24685.7
24681.7
24610.1
24506.1
24435.3
24452.7
24563.3
24710.6
24807.7
24791
24663.1
24495.3
24385.8
24399.2
24527.2
24694.3
24804.8
24800.4
24692.2
24549.4
24454
24452.7
24534.1
24642.6
24715.8
24720.7
24666.9
24593.9
24543.6
24536.8
24566.3
24607.5
24635.5
24639.2
24623.3
24601.3
24585.9
24581.7
24585.8
24592.1
24595.9
24596.3
24594.9
24593.1
24590.7
24586.6
24580.6
24575.3
24574.4
24580.1
24589.7
24596
24591.9
24575.8
24555.4
24544.4
24554.1
24583.8
24617.7
24632.6
24612.6
24562.5
24509.3
24488.4
24520.7
24595.8
24673.9
24707.1
24669.3
24575.8
24477
24430.7
24467
24567.7
24674.8
24723.5
24689.1
24585.8
24503.3
24584.1
24666.2
24722
24705.3
24608.8
24480.5
24400
24428.1
24562
24730.3
24833.2
24805.1
24658.2
24477.2
24368.1
24393.2
24534.1
24705.8
24810.1
24794.3
24678.6
24537.5
24451.5
24459.9
24544.3
24647.1
24710.1
24707.1
24652.5
24585.7
24544.1
24542.9
24572.1
24608
24629.7
24629.7
24614.3
24596
24584.5
24582.1
24585.5
24589.4
24591.2
24591.4
24591.5
24591.5
24589.7
24584.1
24575.7
24568.9
24569.3
24578.9
24592.8
24600.7
24593.5
24570.6
24543.8
24531.5
24547.3
24587.9
24631.4
24647.9
24619.4
24555
24490.1
24467.6
24509.8
24600.7
24690.7
24725.1
24678.1
24571.9
24466.3
24423
24466.6
24568.4
24664.5
24702.7
24681.3
24499.5
24522.3
24592.5
24690
24754.8
24729.5
24610.2
24458.7
24368.5
24404.6
24557
24741.3
24848.8
24813.9
24656.3
24469.4
24362.1
24392.8
24536.8
24705
24801.8
24780.8
24667.2
24535.3
24459.5
24472.1
24551.5
24643.1
24695.4
24688.7
24639
24582.2
24549.3
24550.9
24576.3
24604.8
24620.2
24618.3
24605.5
24591.9
24584.1
24582.6
24584.1
24585.2
24585.4
24586.2
24588.4
24590.4
24588.6
24580.8
24569.4
24561.3
24563.7
24578.3
24597.2
24606.5
24595.2
24564.2
24530.1
24516.7
24539.5
24592.3
24645.9
24664.1
24626.9
24548.1
24471.6
24447.1
24497.9
24602.3
24702.2
24737.7
24684.5
24571.2
24463.6
24423.4
24469.5
24568.7
24661.5
24726.2
24555.1
24489
24499.7
24587.5
24711.2
24787.3
24752.2
24609.8
24437.4
24340.4
24385.2
24553.6
24749.9
24858.8
24817.2
24652.4
24463.6
24360.2
24395.4
24538.7
24700.3
24788.9
24764.8
24656.5
24535.5
24469.2
24483.7
24556
24635.8
24679
24670.8
24627.4
24580.2
24554.5
24557.1
24577.8
24599.5
24610.2
24607.7
24598
24588.6
24583.5
24581.9
24581
24579.6
24579
24581.3
24586.3
24590
24587.3
24576.3
24561.3
24552.1
24557.8
24578.6
24603.2
24613.5
24596.6
24556.1
24514.2
24500.2
24531.5
24597.4
24661.3
24680.2
24633.5
24540.3
24453.5
24428.5
24488
24603.7
24709.9
24743.6
24684.1
24567.3
24463.1
24431.9
24487.4
24589.3
24704.7
24648.8
24511.9
24443.5
24466.2
24584.8
24733.1
24815.4
24768.1
24605.7
24418.7
24320.4
24374.7
24554.2
24754.7
24859.4
24810.6
24643.1
24459.4
24364.6
24404.5
24543.6
24693.8
24771.2
24744
24643
24535.3
24479.8
24496
24560.4
24628
24662.2
24652.8
24615.8
24577.7
24558.3
24561.5
24577.8
24593.7
24600.5
24597.9
24591.2
24585.4
24582.1
24579.7
24576.5
24573.1
24572.6
24577.1
24585
24590.1
24585.7
24570.5
24551.5
24541.9
24551.8
24580.1
24610.7
24621.2
24597.5
24546.5
24496.9
24483.5
24524
24603
24675.8
24693.9
24637.4
24532.1
24438.4
24415.4
24482.8
24605
24710.9
24738.4
24673.5
24560.1
24470.4
24458.5
24522.1
24632.1
24728
24585.2
24463.9
24399
24443.3
24586.3
24750.6
24833.9
24775.4
24599.2
24405.8
24310.9
24373.2
24556.6
24752.8
24848.6
24794.4
24630.9
24459.3
24376.7
24419.7
24549.7
24683.6
24747.8
24718.7
24628.1
24536.1
24492.1
24509.2
24564.4
24619.3
24644.6
24634.7
24604.2
24574.8
24561.2
24564.6
24576.7
24587.2
24591
24588.9
24585
24582.2
24580
24576.3
24570.7
24565.8
24566.1
24573.7
24584.6
24590.6
24583.5
24563.3
24540.3
24530.8
24546.2
24582.5
24619.1
24629
24597.5
24535.9
24479.4
24467.5
24517.5
24608
24687.3
24703.3
24638.3
24524.7
24428.6
24409.7
24482.4
24604.5
24703.2
24721.9
24656.4
24556.2
24489.1
24489.6
24546.7
24739.1
24667.7
24555.7
24431.7
24371.1
24428.3
24586.8
24760
24841.5
24774.3
24591.5
24399.2
24311.3
24378.8
24559.1
24744.1
24828.3
24771.4
24617.9
24463.5
24394.4
24438
24554.6
24669.5
24720.6
24691.7
24613.6
24538.2
24504.9
24521.4
24566.8
24609.2
24626.9
24617.3
24593.4
24572
24563.1
24566.1
24574.1
24580.2
24581.7
24580.5
24579.4
24579.1
24577.2
24571.8
24563.7
24557.9
24559.9
24571
24585.1
24591.3
24580.7
24554.8
24527.8
24519.2
24540.9
24585.7
24627.7
24636.1
24596.5
24525
24463
24453.6
24512.1
24611.6
24694.5
24707.2
24635.9
24518.8
24425
24411.5
24486
24601.8
24688.6
24699
24637.9
24554.2
24500.7
24488.3
24663.6
24707.3
24666.5
24549.3
24413.6
24351.4
24417
24585.5
24761.6
24838.2
24765
24582.6
24398.5
24320.4
24390.4
24561.3
24729.6
24800.7
24743.8
24604.7
24470.6
24415
24456.9
24558
24653.1
24692.1
24665
24600.2
24540.6
24516.4
24531.4
24567.1
24598.5
24610
24601.5
24583.8
24569.1
24563.6
24565.7
24570.1
24572.6
24572.8
24573
24574.6
24576
24573.7
24566.1
24555.7
24549.6
24554
24569.1
24586.3
24592
24577.1
24545.3
24514.7
24507.8
24536.2
24589.2
24635.6
24641.6
24594.2
24514.4
24449
24442.8
24508.5
24613.3
24696.2
24704.5
24629.6
24514.3
24427.5
24420.4
24493.5
24598.2
24670.3
24672.4
24614.3
24540.5
24476.9
24534.3
24674.4
24728.9
24682.2
24545.1
24398.6
24338.2
24411.5
24583.8
24755.6
24824.2
24748
24572.8
24403.3
24337.2
24406.7
24562.9
24710.5
24767.8
24713.3
24591.6
24479.3
24436.6
24475.2
24559.6
24635.5
24663.9
24639.7
24587.8
24542.5
24525.9
24538.7
24565.5
24587.6
24594.5
24587.5
24575.2
24565.8
24562.6
24563.5
24564.7
24564.7
24564.5
24566.5
24570.4
24572.8
24569.5
24559.3
24546.9
24541
24548.5
24567.9
24587.8
24592.4
24572.6
24535
24501.5
24497
24532.2
24592.3
24641.6
24644.5
24590.5
24505
24438.8
24436.5
24506.7
24612.4
24691.3
24694.7
24619.5
24511.4
24435.8
24435.6
24504.6
24594.2
24648
24638.1
24581.7
24505.6
24418.6
24583.1
24703.3
24750.1
24684
24535.2
24388.9
24335.6
24413.9
24582.1
24742.3
24800.4
24724.3
24562.7
24412.8
24359.7
24426
24563.5
24687.8
24731.6
24681.5
24579.1
24488.7
24457.6
24491.6
24559.5
24617.6
24637
24616.3
24576.4
24543.5
24532.8
24543.2
24562.3
24576.9
24580.5
24575.2
24567.3
24562
24560.2
24559.7
24558.4
24556.6
24556.9
24560.8
24566.6
24569.5
24564.5
24551.6
24537.5
24532.5
24543.6
24567.3
24589.3
24592.1
24567.3
24524.6
24489.2
24487.7
24529
24594.2
24644.5
24644
24585.1
24497.5
24433.4
24435.2
24507
24608.7
24679.9
24678.1
24606.2
24510.2
24449
24455.3
24516.6
24586.7
24619.2
24601.4
24548.8
24377.7
24483.8
24604.6
24713.7
24746.3
24672.5
24525.6
24388.5
24344.5
24423
24579.5
24722.1
24768.4
24695.8
24552.8
24426
24385.8
24446.3
24562.4
24662.7
24694.2
24650.3
24567.5
24497.8
24476.6
24505.2
24557.6
24600
24612.3
24595.4
24566.1
24543.4
24537
24545
24557.8
24566.6
24568
24564.4
24560.1
24557.7
24556.4
24554.5
24551.3
24548.7
24549.9
24555.8
24563.2
24565.8
24558.7
24543.2
24528
24524.6
24539.4
24566.8
24590
24590.4
24561.1
24514.5
24478.9
24480.8
24526.7
24594.4
24643.3
24639.1
24577.9
24492.3
24433.4
24439.3
24509.1
24601.9
24662.4
24656
24590.7
24510.7
24465
24475.8
24525.7
24574.9
24593.3
24580.4
24428.9
24431
24491.7
24599.5
24700.4
24728.2
24656
24519.2
24397
24362.7
24437.1
24575.6
24696
24730.2
24664.2
24543.6
24441.5
24413.3
24466
24559.6
24636.6
24657.6
24620.8
24556.9
24505.9
24492.6
24515.5
24553.9
24583.2
24590.2
24577.1
24556.8
24542
24538.7
24544.3
24552.1
24556.7
24557
24555.1
24553.5
24552.8
24551.6
24548.4
24543.8
24541.1
24543.6
24551.3
24559.6
24561.4
24552.2
24534.6
24519
24517.6
24535.8
24565.8
24589
24586.8
24554
24505.9
24471.7
24476.9
24525.1
24591.8
24636.8
24629.2
24569.1
24489.8
24439
24448.3
24512.6
24592.5
24640.2
24630.2
24574.5
24512
24480.9
24493.4
24532.1
24567.3
24587.3
24534.5
24447.7
24427.6
24479.4
24584.6
24679.7
24703.2
24635.9
24515.1
24412
24387.3
24453.8
24569.4
24665.3
24688.3
24631.8
24535.6
24458.2
24440.2
24483.5
24554.8
24610.5
24623.1
24594
24547.5
24512.4
24504.9
24522.2
24548.7
24567.6
24571
24561.5
24548.3
24539.5
24538
24541.5
24545.6
24547.5
24547.3
24546.9
24547.2
24547.6
24546
24541.6
24536.3
24534
24537.9
24547
24555.7
24556.4
24545.2
24526.3
24511.2
24511.9
24532.5
24563.5
24585.5
24580.8
24546.6
24499.6
24468.6
24476.5
24523.9
24585.7
24624.6
24614.7
24559.3
24490.5
24449.7
24461.3
24516.6
24580.6
24615
24602.9
24558.2
24513.1
24494.8
24509
24540.1
24573.4
24626.9
24510.9
24437
24419.8
24476
24573.7
24655.2
24671.4
24611.9
24512
24431
24415.2
24470.6
24561
24632.2
24646
24600.8
24529.2
24474.4
24464.4
24497.5
24548.2
24585.6
24592.2
24570.8
24539.3
24516.9
24513.3
24525.5
24542.4
24553.5
24554.6
24548.3
24540.6
24535.9
24535.4
24537.1
24538.6
24538.9
24538.8
24539.6
24541.2
24541.9
24539.6
24534.4
24529
24527.6
24532.8
24542.8
24551.1
24550.4
24537.9
24518.8
24505
24507.8
24529.5
24559.5
24579.1
24572.5
24539
24495.9
24469.7
24479.3
24522.8
24576.2
24607.4
24596.5
24549
24493.8
24463.9
24476
24520.1
24567.1
24588.8
24576.2
24543.1
24514.2
24507.5
24523.2
24551.6
24652.2
24568
24491.7
24436.7
24434.2
24486.4
24564.9
24625.1
24632.4
24583.6
24508.6
24451.7
24444.4
24487.2
24551.5
24599
24605.2
24571.9
24523.3
24488.5
24484.4
24507.6
24540.4
24562.9
24565.4
24551.1
24531.8
24519.1
24517.9
24525.6
24535.2
24540.9
24541
24537.3
24533.4
24531.3
24531.1
24531.5
24531.5
24531.1
24531.5
24533.1
24535.1
24535.4
24532.5
24527.2
24522.4
24522.3
24528.4
24538.2
24545
24542.6
24529.7
24512.3
24501.4
24506.4
24527.4
24553.7
24568.7
24560.4
24530.3
24494.6
24475.3
24486.1
24522.7
24564.4
24586.2
24575
24538
24498.3
24479.6
24491.2
24522.8
24553
24563.7
24552.2
24530.6
24516.2
24517.8
24533.2
24603.3
24574.8
24534.9
24490.4
24462.2
24466.4
24502.3
24550.7
24584.3
24584.3
24551.8
24507.1
24476.3
24475.7
24502.7
24539.3
24563.9
24564.6
24544.6
24518.2
24500.9
24500.5
24513.9
24530.8
24541.4
24541.6
24533.8
24524.3
24518.7
24518.7
24522.6
24526.9
24529.2
24528.9
24527.3
24525.9
24525.2
24525
24524.7
24524.1
24523.9
24524.6
24526.2
24527.6
24527.4
24524.6
24520.5
24517.6
24518.6
24523.9
24531
24534.9
24531.7
24521.4
24509.3
24503.3
24508.9
24524.8
24542.4
24550.6
24542.5
24521.1
24498.4
24488.3
24497.9
24522.5
24547.7
24558.8
24549.6
24526.7
24504.7
24496.5
24505.2
24523
24537.5
24540.1
24532
24521.5
24517.1
24521.5
24526.2
24527.5
24523.9
24516
24506.5
24501.1
24503.6
24513.2
24524.5
24530.8
24528.7
24519.8
24509.6
24504
24505.8
24513.1
24521.1
24525.3
24524
24518.8
24513.3
24510.7
24511.7
24515.1
24518.5
24520.1
24519.5
24517.7
24516
24515.3
24515.7
24516.6
24517.3
24517.5
24517.3
24517
24516.8
24516.8
24516.8
24516.6
24516.3
24516.3
24516.6
24517.1
24517.4
24517.2
24516.2
24515
24514.3
24514.8
24516.6
24518.6
24519.5
24518.3
24515.2
24512.1
24511
24513.1
24517.7
24522.1
24523.6
24520.7
24514.8
24509.5
24507.9
24511.3
24517.7
24523.3
24524.8
24521.6
24516
24511.8
24511.2
24514.2
24518.1
24520
24518.8
24515.9
24513.9
24514.4
0.408432
0.811874
0.701272
0.579826
0.520031
0.452924
0.381917
0.333373
0.308521
0.285717
0.259686
0.23574
0.223838
0.216573
0.210792
0.215394
0.232326
0.246606
0.264365
0.306642
0.35692
0.403057
0.451695
0.504524
0.557209
0.6066
0.657267
0.704432
0.750442
0.808632
0.879228
0.938243
0.991828
1.04373
1.08203
1.10196
1.10765
1.10623
1.09047
1.05943
1.01306
0.963352
0.912361
0.913633
0.905064
0.888117
0.865337
0.840103
0.812906
0.784081
0.754356
0.723653
0.690632
0.656448
0.625338
0.601067
0.582659
0.575134
0.613713
0.684285
0.755501
0.818938
0.877893
0.939786
0.995384
1.04497
1.08415
1.11715
1.14047
1.14841
1.15016
1.14495
1.11647
1.08829
1.05935
1.02138
1.00404
0.991315
1.07266
1.00778
6.89127e-05
7.63353e-05
8.41754e-05
7.90153e-05
6.59895e-05
5.04297e-05
4.79897e-05
6.31807e-05
8.64521e-05
9.88372e-05
9.28397e-05
8.00317e-05
7.20596e-05
6.82173e-05
7.10532e-05
8.00643e-05
9.10054e-05
9.9799e-05
0.000100668
9.57852e-05
9.05229e-05
8.97732e-05
9.39127e-05
0.000100121
0.000105613
0.000109249
0.000110118
0.000109406
0.000109178
0.000110263
0.000112237
0.00011445
0.000116271
0.000117293
0.000117789
0.000118256
0.000118794
0.000119358
0.000119748
0.000119593
0.000119021
0.000118762
0.00011878
0.000118581
0.000118434
0.00011881
0.000117998
0.000113903
0.000109937
0.000109866
0.000112198
0.000113912
0.000114091
0.000111534
0.000105189
9.9062e-05
9.64419e-05
9.8242e-05
0.000100691
0.000103897
0.000106733
0.000105655
9.71813e-05
8.49569e-05
7.95018e-05
8.55097e-05
9.48114e-05
9.94489e-05
9.75319e-05
9.2887e-05
8.82514e-05
8.39474e-05
8.14926e-05
8.13237e-05
8.48079e-05
8.85975e-05
8.97987e-05
8.72367e-05
8.33816e-05
8.62163e-05
6.96303e-05
6.85199e-05
7.44166e-05
7.79474e-05
7.35433e-05
6.5341e-05
6.08184e-05
6.55405e-05
7.7027e-05
8.42451e-05
8.26244e-05
7.87955e-05
7.79404e-05
7.82909e-05
7.9508e-05
8.24106e-05
8.66062e-05
9.12725e-05
9.4511e-05
9.47829e-05
9.36467e-05
9.42232e-05
9.70421e-05
0.000100362
0.000103531
0.000106284
0.000108007
0.000108834
0.000109713
0.000111055
0.000112572
0.000114088
0.000115477
0.000116504
0.000117222
0.000117862
0.00011841
0.000118827
0.000119173
0.000119246
0.000118954
0.000118708
0.000118615
0.000118155
0.000117394
0.000117294
0.000117178
0.000115172
0.000112192
0.000111049
0.000111569
0.000111635
0.000110978
0.000109538
0.000106348
0.000102565
0.00010086
0.000100965
0.000100633
9.99069e-05
0.000100571
0.000101065
9.80353e-05
9.1605e-05
8.72313e-05
8.87591e-05
9.30324e-05
9.44294e-05
9.2166e-05
8.9721e-05
8.86491e-05
8.7674e-05
8.60462e-05
8.45892e-05
8.43306e-05
8.57039e-05
8.74131e-05
8.72268e-05
8.53546e-05
8.42728e-05
6.85433e-05
5.9253e-05
6.11964e-05
6.4947e-05
7.44268e-05
7.69649e-05
7.1603e-05
6.53834e-05
6.64904e-05
7.41198e-05
7.87519e-05
7.93563e-05
8.03465e-05
8.22225e-05
8.33439e-05
8.39068e-05
8.43879e-05
8.62339e-05
9.0528e-05
9.47311e-05
9.64154e-05
9.68759e-05
9.82421e-05
9.99844e-05
0.000101724
0.000104041
0.000106609
0.000108577
0.00011001
0.000111376
0.000112658
0.000113832
0.000115055
0.00011618
0.000117023
0.000117712
0.000118267
0.000118585
0.00011889
0.000119201
0.000119092
0.000118703
0.000118579
0.00011831
0.000116912
0.000115639
0.000116214
0.000116765
0.000114785
0.000111852
0.000110154
0.000109014
0.000108193
0.000108432
0.000108061
0.000105587
0.000102947
0.000101811
0.000100476
9.74616e-05
9.5012e-05
9.62573e-05
9.92434e-05
9.85879e-05
9.31685e-05
8.87385e-05
8.88425e-05
9.06746e-05
9.03148e-05
8.81936e-05
8.72557e-05
8.78483e-05
8.83754e-05
8.74654e-05
8.5088e-05
8.29942e-05
8.33683e-05
8.52386e-05
8.59046e-05
8.49776e-05
7.33439e-05
7.0477e-05
6.49755e-05
6.34323e-05
6.71156e-05
7.43435e-05
7.67095e-05
7.22995e-05
6.81401e-05
7.09678e-05
7.59719e-05
7.74222e-05
7.76626e-05
7.94319e-05
8.21342e-05
8.48148e-05
8.62372e-05
8.64619e-05
8.80513e-05
9.15931e-05
9.46603e-05
9.64229e-05
9.80435e-05
0.000100192
0.00010194
0.000103605
0.000105668
0.000107665
0.000109269
0.000110769
0.000112217
0.000113445
0.000114581
0.00011568
0.000116557
0.000117269
0.000117918
0.000118293
0.000118456
0.000118716
0.00011875
0.000118303
0.000117976
0.000118285
0.000117757
0.000115652
0.000114264
0.000114726
0.000114699
0.000113106
0.000111331
0.000109507
0.000107464
0.000106602
0.000106519
0.000104905
0.000102235
0.00010118
0.000101518
9.99368e-05
9.58614e-05
9.28885e-05
9.41141e-05
9.66731e-05
9.53058e-05
9.09818e-05
8.86899e-05
8.9733e-05
9.06428e-05
8.89906e-05
8.64497e-05
8.52937e-05
8.58604e-05
8.71953e-05
8.73771e-05
8.53692e-05
8.32476e-05
8.32043e-05
8.44558e-05
8.49913e-05
6.57929e-05
6.96855e-05
6.89603e-05
6.39134e-05
6.17937e-05
6.62648e-05
7.37195e-05
7.58464e-05
7.18691e-05
7.0363e-05
7.40536e-05
7.72895e-05
7.81647e-05
7.87183e-05
8.02044e-05
8.3148e-05
8.63928e-05
8.7735e-05
8.8154e-05
9.01666e-05
9.31415e-05
9.53799e-05
9.72884e-05
9.95148e-05
0.000101629
0.000103304
0.000105102
0.000107064
0.000108769
0.000110282
0.00011178
0.000113104
0.000114245
0.000115343
0.000116268
0.000116962
0.000117628
0.000118147
0.000118329
0.000118522
0.000118701
0.000118375
0.000117507
0.000117392
0.000117878
0.000116965
0.000114798
0.000113572
0.000113266
0.00011259
0.000111645
0.000110169
0.000107687
0.000105964
0.000105984
0.000105179
0.000102073
9.95745e-05
9.98767e-05
0.000100837
9.87047e-05
9.39877e-05
9.15224e-05
9.34444e-05
9.50552e-05
9.25638e-05
8.86178e-05
8.75715e-05
8.90862e-05
8.97005e-05
8.8086e-05
8.56447e-05
8.39747e-05
8.41712e-05
8.5784e-05
8.63387e-05
8.48004e-05
8.30558e-05
8.29145e-05
8.38247e-05
6.27486e-05
6.85867e-05
7.22284e-05
7.08329e-05
6.53911e-05
6.29193e-05
6.74573e-05
7.40673e-05
7.44579e-05
7.14599e-05
7.20009e-05
7.54017e-05
7.82039e-05
7.959e-05
8.00085e-05
8.12157e-05
8.44318e-05
8.74573e-05
8.86086e-05
8.98008e-05
9.22578e-05
9.4681e-05
9.65769e-05
9.86581e-05
0.00010096
0.000102865
0.000104569
0.000106444
0.000108247
0.000109816
0.000111327
0.000112731
0.000113914
0.000115016
0.000116024
0.000116759
0.000117373
0.000117958
0.000118218
0.000118305
0.000118547
0.000118672
0.000117862
0.000116793
0.00011678
0.000116957
0.000115882
0.000114201
0.000112742
0.000111549
0.000111096
0.000110605
0.000108194
0.000105225
0.000104836
0.000105598
0.00010354
9.9366e-05
9.72702e-05
9.86474e-05
9.97141e-05
9.66466e-05
9.16689e-05
9.05165e-05
9.30744e-05
9.37551e-05
9.04311e-05
8.68111e-05
8.62892e-05
8.77038e-05
8.83841e-05
8.7425e-05
8.52222e-05
8.31473e-05
8.30662e-05
8.45609e-05
8.5237e-05
8.4149e-05
8.28044e-05
8.26814e-05
6.14779e-05
6.09832e-05
6.65913e-05
7.17755e-05
7.11603e-05
6.60654e-05
6.41479e-05
6.93884e-05
7.4247e-05
7.3795e-05
7.23695e-05
7.34763e-05
7.62675e-05
7.92754e-05
8.08108e-05
8.10263e-05
8.26148e-05
8.58792e-05
8.82566e-05
8.95719e-05
9.15506e-05
9.40278e-05
9.60248e-05
9.79035e-05
0.000100145
0.000102299
0.000104105
0.000105909
0.000107748
0.000109396
0.000110926
0.000112397
0.00011366
0.000114766
0.00011583
0.000116686
0.000117302
0.00011789
0.000118265
0.000118279
0.0001183
0.000118613
0.000118512
0.000117435
0.000116378
0.00011602
0.000115703
0.000115025
0.000113541
0.000111191
0.000109926
0.000110443
0.000109375
0.000105342
0.000102842
0.000104173
0.000104757
0.000101347
9.66086e-05
9.53327e-05
9.77983e-05
9.84821e-05
9.40912e-05
8.93282e-05
8.94433e-05
9.22584e-05
9.22667e-05
8.87796e-05
8.56226e-05
8.50532e-05
8.60113e-05
8.69077e-05
8.66251e-05
8.46436e-05
8.24737e-05
8.2161e-05
8.34056e-05
8.41272e-05
8.34449e-05
8.2509e-05
6.71293e-05
6.13876e-05
6.03059e-05
6.5872e-05
7.16452e-05
7.08061e-05
6.58616e-05
6.56941e-05
7.05461e-05
7.37438e-05
7.37995e-05
7.3518e-05
7.44634e-05
7.72357e-05
8.03932e-05
8.16267e-05
8.21517e-05
8.43636e-05
8.72041e-05
8.90692e-05
9.08331e-05
9.32398e-05
9.55164e-05
9.73837e-05
9.94139e-05
0.00010163
0.000103615
0.00010544
0.000107296
0.000109031
0.000110596
0.000112108
0.000113475
0.00011462
0.000115687
0.000116649
0.000117355
0.000117939
0.000118413
0.000118539
0.000118367
0.000118303
0.00011846
0.000118163
0.000117221
0.000115986
0.000114856
0.000114633
0.000114481
0.000112123
0.000109032
0.000109115
0.000110381
0.000107363
0.000102043
0.00010102
0.000103597
0.000103614
9.89601e-05
9.38143e-05
9.38291e-05
9.72542e-05
9.69653e-05
9.15657e-05
8.73736e-05
8.83046e-05
9.09211e-05
9.05775e-05
8.75479e-05
8.48799e-05
8.39231e-05
8.43321e-05
8.54256e-05
8.56075e-05
8.39872e-05
8.19445e-05
8.1468e-05
8.24187e-05
8.30598e-05
8.26825e-05
7.01338e-05
6.78681e-05
6.18655e-05
6.08431e-05
6.64957e-05
7.16752e-05
7.00109e-05
6.65627e-05
6.76263e-05
7.12796e-05
7.37495e-05
7.45915e-05
7.45263e-05
7.54706e-05
7.85069e-05
8.12726e-05
8.23101e-05
8.3637e-05
8.61562e-05
8.84247e-05
9.01655e-05
9.23275e-05
9.47901e-05
9.6905e-05
9.88646e-05
0.000101015
0.000103123
0.000105028
0.000106903
0.00010873
0.000110379
0.000111924
0.000113389
0.000114638
0.000115705
0.000116684
0.000117497
0.000118141
0.000118647
0.000118917
0.000118922
0.000118601
0.000118239
0.000118005
0.000117872
0.000117145
0.000115111
0.000113668
0.000114341
0.000113641
0.000109381
0.000106884
0.00010937
0.000110148
0.000104532
9.90041e-05
9.97046e-05
0.000102995
0.00010231
9.61594e-05
9.11588e-05
9.27753e-05
9.65529e-05
9.51258e-05
8.94089e-05
8.5922e-05
8.71203e-05
8.91818e-05
8.88062e-05
8.65459e-05
8.42941e-05
8.28566e-05
8.28278e-05
8.391e-05
8.44139e-05
8.32036e-05
8.1497e-05
8.10107e-05
8.16259e-05
8.21347e-05
6.51343e-05
7.03057e-05
6.73558e-05
6.17808e-05
6.15216e-05
6.72368e-05
7.08185e-05
6.9289e-05
6.76765e-05
6.89203e-05
7.16111e-05
7.42426e-05
7.53611e-05
7.5346e-05
7.68209e-05
7.98054e-05
8.18957e-05
8.31992e-05
8.52906e-05
8.77787e-05
8.97318e-05
9.16333e-05
9.3978e-05
9.63153e-05
9.83874e-05
0.000100499
0.000102679
0.000104701
0.000106607
0.000108492
0.000110251
0.000111857
0.000113389
0.000114792
0.000115963
0.000116916
0.000117717
0.000118454
0.000119025
0.000119235
0.000119421
0.000119457
0.000118952
0.000117924
0.000117481
0.000117821
0.000116461
0.000113554
0.000113375
0.000114884
0.000111687
0.000105584
0.000105489
0.000110167
0.00010911
0.000101417
9.66531e-05
9.85354e-05
0.000102603
0.000100683
9.30956e-05
8.89396e-05
9.19062e-05
9.53331e-05
9.3104e-05
8.76841e-05
8.49366e-05
8.58319e-05
8.7213e-05
8.69543e-05
8.55724e-05
8.36959e-05
8.19882e-05
8.15833e-05
8.25283e-05
8.3104e-05
8.2306e-05
8.10733e-05
8.06248e-05
8.10356e-05
5.96593e-05
6.58523e-05
6.97759e-05
6.69395e-05
6.22226e-05
6.31812e-05
6.78469e-05
7.00412e-05
6.94274e-05
6.89374e-05
6.97854e-05
7.22832e-05
7.499e-05
7.59289e-05
7.6439e-05
7.85191e-05
8.10128e-05
8.26569e-05
8.44166e-05
8.68784e-05
8.92196e-05
9.11867e-05
9.33442e-05
9.57222e-05
9.79473e-05
0.000100076
0.00010229
0.000104453
0.000106459
0.000108394
0.000110252
0.000111945
0.000113499
0.000114997
0.000116393
0.000117485
0.000118192
0.000118879
0.000119661
0.000119823
0.000119715
0.000119904
0.000120139
0.000119133
0.000117495
0.000117583
0.000117574
0.000114255
0.000111828
0.000114588
0.000115496
0.000108258
0.000101708
0.000105096
0.000110602
0.0001072
9.86396e-05
9.3992e-05
9.76548e-05
0.000102164
9.84307e-05
9.02045e-05
8.73484e-05
9.09191e-05
9.35828e-05
9.09937e-05
8.63781e-05
8.42139e-05
8.46424e-05
8.52596e-05
8.5173e-05
8.44876e-05
8.2961e-05
8.11999e-05
8.0637e-05
8.12978e-05
8.18198e-05
8.13912e-05
8.05777e-05
8.02655e-05
6.01418e-05
5.98996e-05
6.56754e-05
6.88709e-05
6.59932e-05
6.30586e-05
6.46338e-05
6.78714e-05
6.96353e-05
7.00144e-05
6.97908e-05
7.06205e-05
7.32444e-05
7.55099e-05
7.64247e-05
7.78119e-05
8.01875e-05
8.22278e-05
8.38508e-05
8.59747e-05
8.84604e-05
9.06979e-05
9.28475e-05
9.5209e-05
9.75746e-05
9.97843e-05
0.000101998
0.000104253
0.00010641
0.000108445
0.000110414
0.00011226
0.000113863
0.000115293
0.000116798
0.000118247
0.000119067
0.000119471
0.000120375
0.000121026
0.000120622
0.000120044
0.000120432
0.000120508
0.000118698
0.000117776
0.000118727
0.000116137
0.000110391
0.000110928
0.000116988
0.000115059
0.00010375
9.86889e-05
0.000105161
0.000110037
0.000105269
9.52836e-05
9.16565e-05
9.73731e-05
0.000101216
9.57583e-05
8.78809e-05
8.62613e-05
8.97521e-05
9.1474e-05
8.88704e-05
8.51693e-05
8.3539e-05
8.34366e-05
8.3465e-05
8.35433e-05
8.33032e-05
8.20634e-05
8.05026e-05
7.98596e-05
8.02288e-05
8.06713e-05
8.05207e-05
8.0024e-05
6.47407e-05
5.98374e-05
6.07771e-05
6.59106e-05
6.77417e-05
6.55544e-05
6.43269e-05
6.56421e-05
6.78663e-05
6.9865e-05
7.05923e-05
7.05496e-05
7.18788e-05
7.43193e-05
7.59614e-05
7.71791e-05
7.92358e-05
8.16197e-05
8.35231e-05
8.54218e-05
8.77644e-05
9.01672e-05
9.24148e-05
9.4761e-05
9.72402e-05
9.96247e-05
0.000101899
0.000104186
0.000106458
0.00010861
0.000110675
0.00011273
0.000114586
0.000115982
0.000117271
0.000118956
0.000120303
0.000120491
0.000120885
0.000122169
0.000122385
0.0001214
0.000120685
0.000120921
0.00011955
0.000117812
0.000119751
0.000120314
0.000112631
0.000105885
0.000111629
0.00011957
0.000113024
9.91593e-05
9.6782e-05
0.000104502
0.000109267
0.000102629
9.14695e-05
9.00508e-05
9.71305e-05
9.94586e-05
9.29903e-05
8.60663e-05
8.54027e-05
8.84229e-05
8.93742e-05
8.68953e-05
8.40823e-05
8.27782e-05
8.21658e-05
8.18632e-05
8.20628e-05
8.20204e-05
8.11047e-05
7.98461e-05
7.91746e-05
7.93181e-05
7.96977e-05
7.96995e-05
6.7284e-05
6.38916e-05
6.00502e-05
6.19204e-05
6.5735e-05
6.66344e-05
6.57109e-05
6.53619e-05
6.6138e-05
6.81483e-05
7.01959e-05
7.08733e-05
7.14677e-05
7.33546e-05
7.53954e-05
7.67554e-05
7.83798e-05
8.07017e-05
8.29793e-05
8.50009e-05
8.72361e-05
8.97027e-05
9.20879e-05
9.44346e-05
9.69329e-05
9.94927e-05
0.000101946
0.00010432
0.000106692
0.00010897
0.00011106
0.00011318
0.000115421
0.000117179
0.000118202
0.000119597
0.000121619
0.000122357
0.000121863
0.000122562
0.000123543
0.000123628
0.000122636
0.000122299
0.000120535
0.000116587
0.000117543
0.000123625
0.000120806
0.000107015
0.000101992
0.000113749
0.000121272
0.00010995
9.57336e-05
9.4828e-05
0.000104295
0.000108766
9.9128e-05
8.80726e-05
8.91801e-05
9.6497e-05
9.71987e-05
9.03934e-05
8.45475e-05
8.43899e-05
8.69078e-05
8.72471e-05
8.51418e-05
8.31438e-05
8.19069e-05
8.09211e-05
8.04689e-05
8.06169e-05
8.0689e-05
8.01284e-05
7.9184e-05
7.85557e-05
7.85847e-05
7.88937e-05
6.4571e-05
6.67812e-05
6.3024e-05
6.10318e-05
6.2983e-05
6.52808e-05
6.61882e-05
6.62693e-05
6.60756e-05
6.68005e-05
6.8825e-05
7.04257e-05
7.11568e-05
7.25195e-05
7.46587e-05
7.6458e-05
7.79614e-05
7.99504e-05
8.23017e-05
8.45283e-05
8.67678e-05
8.92617e-05
9.18312e-05
9.42971e-05
9.67852e-05
9.94032e-05
0.000102039
0.000104575
0.000107092
0.000109599
0.000111807
0.000113765
0.000116092
0.000118535
0.000119825
0.000120477
0.000122455
0.00012457
0.000124411
0.000123759
0.000123814
0.00012436
0.000124408
0.000125268
0.000124747
0.000117963
0.000112228
0.000119371
0.000128533
0.000119099
9.98674e-05
9.9251e-05
0.000115932
0.000121113
0.000107473
9.30388e-05
9.33549e-05
0.000105134
0.000107452
9.51791e-05
8.54413e-05
8.85263e-05
9.5322e-05
9.48583e-05
8.83011e-05
8.3276e-05
8.32929e-05
8.51193e-05
8.50516e-05
8.35786e-05
8.22075e-05
8.09831e-05
7.98624e-05
7.92527e-05
7.92554e-05
7.93972e-05
7.91311e-05
7.84667e-05
7.7964e-05
7.79595e-05
6.03866e-05
6.51634e-05
6.5159e-05
6.26579e-05
6.21298e-05
6.33316e-05
6.48483e-05
6.61539e-05
6.65769e-05
6.66221e-05
6.78183e-05
6.96666e-05
7.08189e-05
7.18412e-05
7.36762e-05
7.58084e-05
7.76061e-05
7.94656e-05
8.17319e-05
8.40985e-05
8.63994e-05
8.8856e-05
9.15369e-05
9.4229e-05
9.6834e-05
9.94801e-05
0.000102221
0.000104902
0.000107519
0.000110292
0.000112934
0.000114891
0.000116817
0.000119651
0.000122008
0.000122378
0.000123018
0.000125606
0.000127319
0.000127182
0.000126125
0.000124767
0.000123537
0.000125374
0.000130033
0.000126473
0.000112221
0.000108003
0.000123916
0.000133644
0.000115301
9.28972e-05
9.76021e-05
0.000115862
0.000119375
0.000104219
8.87533e-05
9.26747e-05
0.000105837
0.000105112
9.13949e-05
8.34642e-05
8.75077e-05
9.34595e-05
9.25758e-05
8.66339e-05
8.23787e-05
8.22251e-05
8.31149e-05
8.28748e-05
8.20043e-05
8.10851e-05
8.00423e-05
7.89454e-05
7.81919e-05
7.804e-05
7.82103e-05
7.81612e-05
7.77465e-05
7.73648e-05
5.92482e-05
6.1642e-05
6.43914e-05
6.39963e-05
6.31012e-05
6.29489e-05
6.3507e-05
6.48949e-05
6.62091e-05
6.65918e-05
6.72057e-05
6.88427e-05
7.04541e-05
7.15542e-05
7.29653e-05
7.49907e-05
7.70519e-05
7.90041e-05
8.12125e-05
8.36847e-05
8.61513e-05
8.86125e-05
9.12694e-05
9.41152e-05
9.69483e-05
9.97246e-05
0.000102585
0.000105434
0.00010807
0.000110855
0.000114024
0.000116571
0.000118089
0.00012041
0.00012395
0.00012568
0.000125207
0.000126005
0.000128135
0.000130122
0.000130992
0.000129273
0.000124144
0.000120978
0.000128333
0.000136813
0.000125447
0.000103116
0.00010458
0.000130349
0.000137551
0.000110972
8.88178e-05
9.70049e-05
0.000115509
0.000117873
9.92619e-05
8.47877e-05