/*--------------------------------*- C++ -*----------------------------------*\
| =========                 |                                                 |
| \\      /  F ield         | OpenFOAM: The Open Source CFD Toolbox           |
|  \\    /   O peration     | Version:  2412                                  |
|   \\  /    A nd           | Website:  www.openfoam.com                      |
|    \\/     M anipulation  |                                                 |
\*---------------------------------------------------------------------------*/
FoamFile
{
    version     2.0;
    format      ascii;
    arch        "LSB;label=32;scalar=64";
    class       volScalarField;
    location    "3.25";
    object      alpha.lava;
}
// * * * * * * * * * * * * * * * * * * * * * * * * * * * * * * * * * * * * * //

dimensions      [0 0 0 0 0 0 0];

internalField   nonuniform List<scalar> 
6400
(
1
1
1
1
1
1.00001
1.00001
1.00001
1
1
1
1
1
1.00001
1.00001
1.00001
1.00001
1
1
1
1
1
1.00001
1.00001
1
1
1
1
1
1
1.00001
1.00001
1.00001
1
1
1
1
1
1.00001
1.00001
1.00001
1
1
1
1
1
1
1
1
0.999999
0.999997
0.999996
0.999995
0.999995
0.999995
0.999995
0.999996
0.999996
0.999995
0.999994
0.999993
0.999993
0.999994
0.999996
0.999997
0.999997
0.999996
0.999994
0.999992
0.999992
0.999992
0.999993
0.999994
0.999994
0.999993
0.999993
0.999992
0.999992
0.999993
0.999999
0.999999
1
1
1
1
1.00001
1.00001
1.00001
1.00001
1.00001
1.00001
1.00001
1.00001
1.00001
1.00001
1.00001
1.00001
1.00001
1.00001
1.00001
1
1
1.00001
1.00001
1.00001
1
1
0.999996
0.999993
0.999992
0.999993
0.999995
0.999996
0.999997
0.999996
0.999996
0.999996
0.999997
0.999999
1
1
1
1
1
1
1
1
1
1
1
1
1
1
0.999998
0.999997
0.999996
0.999996
0.999996
0.999996
0.999995
0.999994
0.999993
0.999992
0.999991
0.999991
0.999992
0.999992
0.999992
0.99999
0.999989
0.999989
0.999989
0.99999
0.999992
0.999994
0.999994
0.999995
0.999996
0.999997
1
0.999998
1
1
1
1
1
1.00001
1.00001
1.00001
1.00002
1.00002
1.00002
1.00001
1.00001
1.00001
1.00001
1.00002
1.00002
1.00002
1.00001
1.00001
1
1
1
1
1
0.999999
0.999995
0.999991
0.999987
0.999986
0.999987
0.999989
0.999991
0.999992
0.999993
0.999993
0.999994
0.999996
0.999999
1
1
1.00001
1.00001
1.00001
1.00001
1.00001
1.00001
1.00001
1.00001
1.00001
1.00001
1
1
0.999999
0.999997
0.999996
0.999995
0.999995
0.999995
0.999994
0.999992
0.999989
0.999987
0.999986
0.999986
0.999987
0.999988
0.999989
0.999989
0.999988
0.999988
0.999989
0.999991
0.999993
0.999996
0.999997
0.999999
1
1.00001
0.999996
1
1
1
1
1
1.00001
1.00001
1.00001
1.00002
1.00002
1.00002
1.00002
1.00001
1.00001
1.00001
1.00001
1.00002
1.00002
1.00002
1.00001
1.00001
1
0.999999
0.999998
0.999999
0.999998
0.999996
0.999992
0.999987
0.999983
0.999982
0.999983
0.999986
0.999988
0.99999
0.999991
0.999992
0.999993
0.999995
0.999998
1
1
1.00001
1.00001
1.00001
1.00001
1.00001
1.00001
1.00001
1.00001
1.00001
1.00001
1
1
0.999999
0.999997
0.999995
0.999995
0.999995
0.999995
0.999993
0.99999
0.999987
0.999985
0.999984
0.999985
0.999987
0.999989
0.99999
0.99999
0.999989
0.999989
0.99999
0.999992
0.999995
0.999997
1
1
1.00001
0.999996
1
1
1
1.00001
1.00001
1.00001
1.00001
1.00001
1.00001
1.00002
1.00002
1.00002
1.00002
1.00001
1.00001
1.00001
1.00001
1.00002
1.00002
1.00001
1.00001
1
0.999997
0.999994
0.999994
0.999995
0.999995
0.999992
0.999988
0.999984
0.999981
0.99998
0.999982
0.999985
0.999988
0.999991
0.999992
0.999993
0.999994
0.999997
1
1
1.00001
1.00001
1.00001
1.00001
1.00001
1.00001
1.00001
1.00001
1.00001
1.00001
1
1
1
0.999997
0.999994
0.999992
0.999992
0.999992
0.999992
0.99999
0.999987
0.999984
0.999982
0.999982
0.999984
0.999986
0.999988
0.99999
0.999991
0.999991
0.999991
0.999992
0.999994
0.999996
1
1
1.00001
0.999996
0.999999
1
1
1.00001
1.00001
1.00001
1.00001
1.00001
1.00001
1.00001
1.00002
1.00002
1.00002
1.00002
1.00001
1.00001
1.00001
1.00001
1.00001
1.00001
1.00001
1
0.999998
0.999993
0.99999
0.999991
0.999992
0.999992
0.999989
0.999986
0.999982
0.999979
0.99998
0.999982
0.999985
0.999989
0.999991
0.999993
0.999994
0.999996
0.999998
1
1
1.00001
1.00001
1.00001
1.00001
1.00001
1.00001
1.00001
1
1
1
1
1
0.999999
0.999996
0.999993
0.999991
0.999991
0.999991
0.999991
0.99999
0.999988
0.999985
0.999984
0.999984
0.999985
0.999988
0.99999
0.999991
0.999992
0.999992
0.999992
0.999994
0.999996
0.999999
1
1.00001
0.999996
0.999999
1
1
1.00001
1.00001
1.00001
1.00001
1.00001
1.00001
1.00001
1.00002
1.00002
1.00002
1.00002
1.00002
1.00001
1.00001
1.00001
1.00001
1.00001
1.00001
1.00001
1
0.999995
0.999991
0.999988
0.999989
0.99999
0.99999
0.999988
0.999985
0.999981
0.99998
0.99998
0.999983
0.999986
0.999989
0.999992
0.999993
0.999995
0.999996
0.999998
1
1
1
1.00001
1.00001
1.00001
1.00001
1
1
1
1
1
1
1
0.999998
0.999994
0.999991
0.99999
0.99999
0.99999
0.999991
0.99999
0.999988
0.999986
0.999984
0.999984
0.999986
0.999989
0.999991
0.999992
0.999993
0.999994
0.999994
0.999996
0.999998
1
1.00001
0.999997
1
1
1
1.00001
1.00001
1.00001
1.00001
1.00001
1.00001
1.00001
1.00001
1.00001
1.00002
1.00002
1.00002
1.00001
1.00001
1
1
1
1.00001
1.00001
1
0.999998
0.999992
0.999988
0.999986
0.999987
0.999988
0.999988
0.999987
0.999985
0.999982
0.999981
0.999982
0.999984
0.999988
0.999991
0.999993
0.999995
0.999996
0.999997
0.999998
1
1
1
1
1.00001
1.00001
1
1
1
1
1
1
1
1
0.999997
0.999994
0.999991
0.999989
0.999989
0.99999
0.999991
0.999991
0.999989
0.999988
0.999986
0.999986
0.999988
0.99999
0.999992
0.999993
0.999995
0.999995
0.999997
0.999998
1
1.00001
0.999998
1
1
1
1.00001
1.00001
1.00001
1.00001
1.00001
1.00001
1.00001
1.00001
1.00001
1.00001
1.00002
1.00002
1.00001
1.00001
1
1
0.999999
1
1
1
1
0.999996
0.999991
0.999987
0.999985
0.999986
0.999987
0.999987
0.999987
0.999984
0.999983
0.999982
0.999983
0.999985
0.999988
0.999991
0.999993
0.999995
0.999996
0.999996
0.999997
0.999998
1
1
1
1
1
1
1
1
0.999999
1
1
1
1
0.999997
0.999994
0.999991
0.999989
0.99999
0.999991
0.999992
0.999992
0.999991
0.999989
0.999988
0.999988
0.999989
0.999991
0.999994
0.999996
0.999996
0.999997
0.999998
1
1
0.999998
1
1.00001
1.00001
1.00001
1.00001
1.00001
1.00001
1.00001
1.00001
1.00001
1.00001
1.00001
1.00001
1.00001
1.00001
1.00001
1.00001
1.00001
1
0.999998
0.999996
0.999998
0.999999
1
0.999999
0.999995
0.99999
0.999987
0.999985
0.999985
0.999986
0.999987
0.999986
0.999985
0.999983
0.999983
0.999984
0.999987
0.999989
0.999992
0.999994
0.999995
0.999996
0.999996
0.999997
0.999998
0.999999
1
1
1
1
1
1
1
0.999999
1
1
1
1
0.999998
0.999994
0.999991
0.999989
0.99999
0.999992
0.999994
0.999994
0.999993
0.999992
0.99999
0.99999
0.999992
0.999994
0.999996
0.999997
0.999999
1
1
1
0.999998
1.00001
1.00001
1.00001
1.00001
1.00001
1.00001
1.00001
1.00001
1.00001
1.00001
1.00001
1.00001
1
1
1.00001
1.00001
1.00001
1.00001
1
0.999999
0.999995
0.999994
0.999996
0.999998
0.999999
0.999998
0.999995
0.999991
0.999987
0.999986
0.999986
0.999988
0.999988
0.999988
0.999987
0.999987
0.999987
0.999987
0.999989
0.999991
0.999993
0.999994
0.999995
0.999996
0.999997
0.999997
0.999998
0.999999
1
1
1
1
1
1
0.999999
0.999999
0.999999
1
1
1
0.999997
0.999994
0.999991
0.99999
0.999991
0.999993
0.999995
0.999995
0.999995
0.999993
0.999992
0.999992
0.999994
0.999996
0.999997
0.999999
1
1
1
0.999997
1
1.00001
1.00001
1.00001
1.00001
1.00001
1.00001
1.00001
1.00001
1.00001
1.00001
1.00001
1.00001
1
1
1
1.00001
1.00001
1.00001
1
0.999997
0.999994
0.999994
0.999995
0.999998
0.999999
0.999998
0.999995
0.999991
0.999988
0.999987
0.999987
0.999989
0.999989
0.99999
0.999989
0.999988
0.999988
0.999989
0.999989
0.999991
0.999992
0.999994
0.999995
0.999996
0.999997
0.999998
0.999998
0.999999
1
1
1
1
1
1
0.999998
0.999998
0.999999
1
1
0.999999
0.999996
0.999993
0.999991
0.999991
0.999992
0.999994
0.999995
0.999995
0.999995
0.999994
0.999993
0.999994
0.999995
0.999996
0.999999
1
1
1
0.999996
1
1.00001
1.00001
1.00001
1.00001
1.00001
1.00001
1.00001
1.00001
1.00001
1.00001
1.00001
1.00001
1
1
1
1
1
1
1
1
0.999996
0.999993
0.999993
0.999995
0.999998
0.999998
0.999997
0.999994
0.999991
0.999988
0.999987
0.999988
0.999989
0.99999
0.99999
0.999989
0.999989
0.999988
0.999988
0.999989
0.999991
0.999993
0.999995
0.999997
0.999998
0.999999
1
1
1
1
1
1
1
1
1
0.999999
0.999999
0.999999
1
1
0.999999
0.999997
0.999994
0.999992
0.999992
0.999992
0.999994
0.999995
0.999996
0.999995
0.999994
0.999994
0.999994
0.999995
0.999998
0.999999
1
1
0.999996
1
1.00001
1.00001
1.00001
1.00001
1.00001
1.00001
1.00001
1.00001
1.00001
1.00001
1.00001
1.00001
1.00001
1
0.999999
0.999998
1
1
1
1
1
0.999996
0.999995
0.999995
0.999996
0.999998
0.999998
0.999997
0.999994
0.999991
0.999989
0.999988
0.999988
0.999989
0.99999
0.99999
0.999989
0.999989
0.999989
0.999989
0.99999
0.999992
0.999995
0.999998
1
1
1
1
1
1
1
1
1.00001
1.00001
1
1
1
1
1
1
1
0.999999
0.999997
0.999995
0.999993
0.999993
0.999993
0.999994
0.999996
0.999996
0.999995
0.999995
0.999995
0.999996
0.999997
0.999998
1
1
0.999997
1
1
1.00001
1.00001
1.00001
1.00001
1.00001
1.00001
1.00001
1
1
1.00001
1.00001
1.00001
1
1
0.999998
0.999997
0.999999
1
1
1
1
0.999997
0.999996
0.999996
0.999996
0.999997
0.999997
0.999996
0.999994
0.999991
0.99999
0.999989
0.99999
0.99999
0.99999
0.999991
0.99999
0.99999
0.999991
0.999992
0.999993
0.999996
0.999998
1
1
1
1
1
1
1
1
1
1.00001
1.00001
1.00001
1
1
1
1
1
0.999999
0.999999
0.999998
0.999996
0.999995
0.999994
0.999995
0.999997
0.999997
0.999997
0.999997
0.999997
0.999997
0.999998
0.999999
1
1
0.999999
1
1
1
1
1.00001
1.00001
1.00001
1.00001
1
1
0.999999
1
1
1
1
1
0.999998
0.999997
0.999997
0.999998
1
1
1
1
0.999999
0.999997
0.999997
0.999997
0.999998
0.999998
0.999997
0.999996
0.999994
0.999993
0.999993
0.999993
0.999994
0.999994
0.999994
0.999994
0.999995
0.999996
0.999997
0.999999
1
1
1
1.00001
1.00001
1.00001
1
1
1
1
1.00001
1.00001
1.00001
1.00001
1
1
1
1
1
1
1
1
1
0.999999
0.999999
1
1
1
1
1
1
1
1
1
1
1
0.999998
0.999996
0.999993
0.999997
0.999998
1
1
1
0.999999
0.999996
0.999994
0.999994
0.999996
0.999998
1
1
0.999999
0.999997
0.999996
0.999997
0.999998
1
1
1
1
1
1
1
1
1
1
1
1
1
1
0.999999
0.999999
0.999999
1
1
1
1
1
1
1
1
1.00001
1.00001
1.00001
1.00001
1.00001
1
1
1
1.00001
1.00001
1.00001
1.00001
1.00001
1.00001
1
1
1
1
1.00001
1.00001
1.00001
1.00001
1.00001
1.00001
1.00001
1
1.00001
1.00001
1.00001
1.00001
1.00001
1.00001
1
0.999997
0.999991
0.99999
0.999987
0.999986
0.999987
0.999989
0.99999
0.999991
0.99999
0.999989
0.999988
0.999987
0.999988
0.99999
0.999993
0.999995
0.999996
0.999996
0.999996
0.999996
0.999997
1
1
1
1.00001
1.00001
1.00001
1.00001
1.00001
1.00001
1.00001
1.00001
1.00001
1.00001
1.00001
1.00001
1.00001
1.00001
1.00001
1.00001
1.00001
1.00001
1.00001
1.00001
1.00001
1.00001
1.00001
1.00001
1.00001
1.00001
1.00001
1.00001
1.00001
1.00001
1.00001
1.00001
1.00001
1.00001
1.00001
1.00001
1.00001
1.00001
1.00001
1.00001
1.00001
1.00001
1.00002
1.00002
1.00002
1.00002
1.00001
1.00001
1.00002
1.00002
1.00002
1.00002
1.00001
1.00001
1
0.999996
0.999986
0.999982
0.999981
0.99998
0.99998
0.999981
0.999982
0.999983
0.999984
0.999984
0.999984
0.999984
0.999985
0.999986
0.999989
0.999991
0.999994
0.999996
0.999996
0.999997
0.999998
1
1
1.00001
1.00001
1.00001
1.00001
1.00001
1.00001
1.00001
1.00001
1.00002
1.00002
1.00002
1.00002
1.00002
1.00002
1.00002
1.00002
1.00002
1.00001
1.00001
1.00001
1.00001
1.00001
1.00001
1.00001
1.00001
1.00001
1.00001
1.00001
1.00001
1.00001
1.00001
1.00001
1.00001
1.00001
1.00001
1.00001
1.00001
1.00001
1.00001
1.00002
1.00002
1.00002
1.00002
1.00002
1.00002
1.00002
1.00002
1.00002
1.00002
1.00002
1.00002
1.00002
1.00002
1.00002
1.00002
1.00001
0.999952
0.999928
0.999935
0.999938
0.999929
0.999923
0.999925
0.999928
0.999922
0.999919
0.999924
0.99993
0.999927
0.999926
0.999931
0.999938
0.999938
0.99994
0.999945
0.999951
0.999953
0.999953
0.999957
0.999962
0.999964
0.999967
0.99997
0.999974
0.999977
0.999978
0.99998
0.999981
0.999982
0.999982
0.999982
0.999983
0.999983
0.999983
0.999983
0.999982
0.999982
0.999982
0.999981
0.999978
0.999975
0.999973
0.999971
0.99997
0.999969
0.99997
0.999971
0.999972
0.999974
0.999978
0.99998
0.999981
0.999984
0.999988
0.999989
0.999986
0.999987
0.999989
0.99999
0.999986
0.999985
0.999987
0.999987
0.999983
0.999982
0.999983
0.999982
0.999979
0.999978
0.999978
0.999978
0.999975
0.999975
0.999975
0.999976
0.999976
2.48835e-05
4.31425e-05
3.543e-05
2.95159e-05
3.34548e-05
3.37001e-05
2.70059e-05
2.04209e-05
2.36702e-05
2.56845e-05
2.17449e-05
1.60588e-05
1.9799e-05
2.27836e-05
1.96351e-05
1.49301e-05
1.77583e-05
2.04698e-05
1.95599e-05
1.82463e-05
2.16424e-05
2.53194e-05
2.61388e-05
2.57969e-05
2.82131e-05
3.10842e-05
3.25582e-05
3.32954e-05
3.53209e-05
3.82574e-05
4.07835e-05
4.2321e-05
4.4242e-05
4.63939e-05
4.78172e-05
4.83836e-05
4.85313e-05
4.84821e-05
4.78924e-05
4.66073e-05
4.46468e-05
4.25687e-05
4.05668e-05
4.07775e-05
4.04254e-05
3.94842e-05
3.87686e-05
3.83412e-05
3.71938e-05
3.5343e-05
3.43275e-05
3.40205e-05
3.28256e-05
3.05996e-05
2.9886e-05
3.07344e-05
3.00367e-05
2.77291e-05
2.94039e-05
3.44758e-05
3.73578e-05
3.76714e-05
4.00536e-05
4.57197e-05
4.8044e-05
4.69015e-05
4.76188e-05
5.16229e-05
5.26925e-05
5.06762e-05
5.02345e-05
5.2075e-05
5.09036e-05
4.81028e-05
4.64468e-05
4.54518e-05
4.41098e-05
4.24093e-05
4.47093e-05
4.08857e-05
1.70018e-21
9.9923e-22
5.49572e-22
2.95934e-23
8.49504e-26
1.50821e-21
6.99068e-24
1.01478e-26
1.0406e-26
2.39511e-22
1.44551e-22
8.27504e-23
4.1997e-26
3.93215e-22
0
-6.02058e-22
1.03398e-26
4.25584e-23
3.86502e-23
1.75712e-23
6.17552e-27
2.81403e-23
0
-4.69147e-22
2.58494e-27
0
0
0
5.07941e-25
4.94113e-60
5.08551e-25
0
2.14679e-24
0
0
0
6.10046e-25
1.29247e-27
2.10156e-24
3.60542e-19
4.04931e-19
1.79044e-18
1.02829e-23
2.58494e-27
0
2.58494e-27
1.81075e-24
9.22627e-28
1.81063e-24
8.23629e-28
4.78472e-24
1.94403e-22
1.03398e-26
-9.45365e-49
9.1713e-56
-4.52561e-22
-3.33111e-45
1.48551e-22
1.66096e-17
6.55934e-22
1.11132e-22
4.90625e-23
4.6101e-25
2.62364e-24
7.45271e-22
1.69228e-22
1.14802e-23
8.2974e-23
1.66874e-22
9.32911e-23
3.05267e-24
6.70246e-23
5.89593e-23
2.93648e-23
2.57873e-23
1.11052e-23
1.11624e-23
3.23981e-25
3.86887e-18
8.72865e-24
1.70014e-21
3.05636e-26
3.01385e-26
2.38009e-27
5.29575e-26
5.70022e-22
5.82822e-22
1.00799e-26
1.32519e-28
7.11341e-28
2.25551e-27
4.20993e-27
2.68022e-26
1.62576e-22
2.77506e-26
2.07841e-23
5.13265e-25
8.26626e-30
8.78596e-28
8.44634e-27
3.45767e-27
8.84709e-24
7.93532e-27
8.39591e-23
2.91838e-29
8.43514e-34
-7.30573e-30
0
2.64216e-36
-2.91826e-24
0
-1.05088e-23
1.74224e-36
-8.39076e-28
-2.56902e-30
-7.31994e-26
-8.15663e-54
-3.5689e-26
-2.95722e-49
7.70372e-35
7.66027e-35
-1.15617e-61
1.03841e-51
-1.0213e-24
-2.33959e-28
-1.95405e-24
3.37598e-29
8.8681e-28
2.44352e-29
4.0478e-28
2.57377e-35
3.63707e-34
-8.85163e-59
-1.25736e-23
1.92103e-28
1.2927e-23
2.29199e-27
6.30824e-28
2.85221e-23
4.12773e-28
3.41696e-28
4.80211e-28
5.44769e-27
1.05036e-28
2.22541e-22
5.95081e-23
1.14667e-23
2.18378e-27
8.27384e-28
1.27695e-27
8.30335e-27
1.23374e-22
1.54236e-22
7.01702e-23
3.68979e-22
7.29483e-28
1.27328e-27
2.23461e-26
3.21717e-25
7.12877e-26
1.70014e-21
3.25216e-26
2.8523e-26
2.0217e-27
9.43694e-29
3.33658e-27
1.41263e-26
6.89534e-29
1.32514e-28
1.2745e-27
3.21245e-27
2.67313e-27
1.32737e-27
1.10384e-27
1.60516e-27
9.33712e-27
7.96886e-28
8.251e-30
3.67636e-28
2.26041e-26
3.63767e-31
3.06653e-30
5.30865e-30
3.8517e-27
6.5746e-29
7.39762e-33
-1.1067e-34
-1.9977e-30
-1.2712e-34
-2.0089e-31
-1.03288e-29
9.51141e-38
4.38523e-37
7.91682e-37
6.78159e-37
4.23622e-37
2.2079e-37
1.68555e-37
1.10437e-38
1.98622e-39
4.872e-46
-9.7328e-34
-1.67048e-53
9.18248e-37
2.4803e-36
-1.20885e-28
-9.35697e-29
-3.92356e-29
8.02369e-33
9.88413e-34
5.14503e-35
5.14864e-35
2.25324e-31
2.79217e-27
1.41309e-28
-1.36621e-28
7.96766e-31
3.04704e-29
1.13303e-26
2.38354e-28
3.40287e-28
6.1649e-28
6.95054e-27
-1.28193e-27
1.68946e-27
1.46209e-27
1.95331e-26
-3.91589e-28
1.35399e-27
1.27679e-27
1.00473e-26
1.76076e-27
1.06639e-27
7.20328e-28
1.10849e-26
6.22709e-28
1.31981e-27
2.2405e-26
2.81258e-26
7.12509e-26
5.29489e-24
1.96379e-26
2.17059e-26
1.38549e-27
9.42686e-29
1.15191e-29
8.14926e-29
4.77865e-30
8.22323e-30
1.1265e-29
6.71358e-30
1.92482e-30
3.69695e-30
5.89873e-30
4.62341e-30
1.24028e-30
1.04728e-30
1.37906e-30
1.18608e-30
5.07358e-31
3.79798e-31
3.00347e-31
1.41792e-31
4.84901e-32
2.52077e-32
1.60691e-32
1.1999e-32
1.15488e-32
1.47643e-32
1.78179e-32
2.00129e-32
2.10684e-32
2.0882e-32
1.93709e-32
1.65502e-32
1.28174e-32
8.70385e-33
5.10133e-33
2.33011e-33
7.71259e-34
2.69994e-34
5.75701e-36
5.67192e-33
5.08282e-32
1.62771e-31
3.53256e-31
6.05476e-31
8.65551e-31
1.11649e-30
1.19596e-30
1.14472e-30
9.49939e-31
6.76941e-31
4.25721e-31
1.95554e-31
1.26776e-31
2.16778e-31
4.96686e-31
3.98775e-31
4.35745e-31
1.36382e-30
1.83464e-30
7.04733e-31
3.62831e-30
5.63521e-30
3.29734e-30
8.28268e-31
2.7837e-30
4.43128e-30
6.85752e-30
1.49134e-30
3.6409e-30
5.61185e-30
1.78681e-30
1.06427e-30
5.67635e-30
2.01372e-30
1.39741e-30
7.02654e-30
8.7492e-29
3.73221e-29
2.9017e-30
1.04198e-29
2.35613e-31
5.11106e-33
6.83507e-35
8.56327e-34
3.59057e-35
8.81284e-35
3.44733e-35
3.1209e-35
1.60721e-35
1.2622e-35
1.66727e-35
1.08957e-35
2.66473e-36
1.65341e-36
4.30813e-36
4.76761e-36
6.00561e-37
6.1441e-37
1.33356e-36
1.95621e-37
4.59961e-38
2.09852e-38
9.72297e-39
6.51977e-39
8.61523e-39
1.01521e-38
1.18837e-38
1.34971e-38
1.43168e-38
1.42001e-38
1.32058e-38
1.11397e-38
8.41008e-39
5.55064e-39
3.21013e-39
1.45446e-39
4.60718e-40
7.91577e-41
1.8221e-44
9.11111e-42
1.14973e-38
1.06383e-37
3.71846e-37
8.53241e-37
1.48006e-36
2.12674e-36
2.50374e-36
2.45478e-36
3.03675e-36
2.08379e-36
1.44475e-36
3.14357e-37
1.77416e-37
4.13322e-37
6.59761e-38
1.0879e-36
4.01182e-36
5.53868e-36
4.4613e-36
1.35668e-36
6.69611e-35
2.09507e-35
1.70349e-35
2.83784e-36
5.14554e-35
1.97797e-35
1.01165e-34
6.4606e-36
4.28206e-35
2.91572e-35
8.6278e-36
2.27607e-36
5.58063e-35
1.49401e-35
6.03302e-36
4.81916e-34
2.70904e-33
8.47629e-34
2.60834e-36
2.98547e-36
8.31965e-38
4.19841e-39
3.20843e-40
1.0182e-39
5.20622e-41
1.24718e-40
2.32153e-40
1.61015e-40
3.56341e-41
5.36778e-41
9.9041e-41
5.54534e-41
7.8357e-42
5.98789e-42
8.93085e-42
6.82684e-42
1.70296e-42
1.09338e-42
5.43834e-43
1.69841e-43
6.14772e-44
1.9912e-44
5.13279e-45
4.00775e-45
5.73779e-45
7.49098e-45
9.06085e-45
1.01327e-44
1.04911e-44
1.02091e-44
9.34604e-45
7.7374e-45
5.66973e-45
3.55796e-45
1.93334e-45
8.40875e-46
2.60928e-46
4.33855e-47
7.50204e-51
4.15967e-49
2.74095e-47
3.74876e-44
2.69505e-43
9.00788e-43
1.98773e-42
3.33987e-42
4.32977e-42
4.42764e-42
3.61389e-42
2.31932e-42
1.15814e-42
4.04828e-43
8.35963e-44
4.91213e-44
5.41125e-44
2.77719e-43
7.71008e-43
6.12376e-42
8.41732e-42
4.86685e-42
4.67305e-41
1.01379e-40
6.56594e-41
1.54938e-41
8.87364e-41
1.35372e-40
1.2106e-40
3.40752e-41
1.55581e-40
1.69008e-40
6.18541e-41
1.58029e-41
6.36027e-41
3.16373e-41
1.18549e-41
1.27364e-40
9.13889e-40
4.52387e-39
4.55197e-41
2.23217e-41
2.90245e-43
2.15979e-44
2.27715e-45
9.20721e-45
3.43787e-46
9.74803e-46
1.96688e-45
1.32092e-45
2.72464e-46
3.64462e-46
7.68646e-46
3.94837e-46
4.80333e-47
3.44903e-47
4.64332e-47
3.03339e-47
6.40273e-48
3.46451e-48
1.34282e-48
3.67618e-49
1.07035e-49
2.12989e-50
3.61681e-51
4.01661e-51
5.5624e-51
7.0024e-51
8.13687e-51
8.70628e-51
8.56113e-51
7.90809e-51
6.87969e-51
5.41232e-51
3.7748e-51
2.255e-51
1.1526e-51
4.70328e-52
1.40003e-52
2.2688e-53
3.74351e-57
1.99759e-55
1.9518e-54
4.94214e-51
1.31327e-49
7.3184e-49
2.17207e-48
4.39924e-48
6.42631e-48
6.97605e-48
5.757e-48
3.63838e-48
1.75059e-48
5.89731e-49
1.04271e-49
8.22083e-50
8.82066e-50
5.86077e-49
2.21136e-48
2.60774e-47
3.37373e-47
2.50281e-47
2.70132e-46
6.41915e-46
4.75495e-46
1.09977e-46
7.0489e-46
1.15088e-45
9.99356e-46
2.95039e-46
1.5052e-45
1.656e-45
6.00292e-46
1.42568e-46
5.11975e-46
2.781e-46
7.84908e-47
5.91454e-46
3.61951e-45
1.34621e-43
1.84903e-46
3.50867e-46
1.43598e-48
2.41298e-49
3.25929e-50
1.11535e-49
4.09362e-51
1.20585e-50
2.23749e-50
1.38585e-50
2.73975e-51
3.33566e-51
6.8412e-51
3.34728e-51
3.75081e-52
2.35247e-52
2.94187e-52
1.65815e-52
2.94248e-53
1.31867e-53
4.05139e-54
9.70835e-55
2.09398e-55
2.40491e-56
3.40354e-57
4.75134e-57
6.33936e-57
7.6485e-57
8.4641e-57
8.57767e-57
7.9533e-57
6.88584e-57
5.59708e-57
4.1112e-57
2.66676e-57
1.48391e-57
7.05658e-58
2.66057e-58
7.36057e-59
1.13058e-59
2.00821e-63
1.07928e-61
6.60208e-61
7.3193e-60
2.56342e-56
3.64407e-55
1.67951e-54
4.43796e-54
7.77786e-54
9.48948e-54
8.32946e-54
5.44485e-54
2.62128e-54
8.61428e-55
1.46206e-55
1.36068e-55
1.96362e-55
1.55622e-54
6.92103e-54
1.42384e-52
1.77328e-52
1.58376e-52
1.94257e-51
4.98822e-51
3.993e-51
1.00537e-51
6.6988e-51
1.16002e-50
1.05008e-50
3.05604e-51
1.65505e-50
1.94088e-50
7.05342e-51
1.58338e-51
5.888e-51
3.22859e-51
8.42274e-52
6.21154e-51
3.49484e-50
7.17961e-49
8.89148e-52
1.87679e-51
1.75658e-53
3.10099e-54
3.91903e-55
1.54329e-54
4.96509e-56
1.52756e-55
2.89278e-55
1.66465e-55
3.12393e-56
3.76904e-56
7.17198e-56
3.31681e-56
3.40403e-57
1.89862e-57
2.1778e-57
1.06514e-57
1.60582e-58
5.95269e-59
1.45599e-59
2.97262e-60
4.58459e-61
2.92671e-62
4.23822e-63
6.1659e-63
7.84349e-63
8.96816e-63
9.35117e-63
8.86869e-63
7.65436e-63
6.14544e-63
4.63093e-63
3.16012e-63
1.90092e-63
9.82236e-64
4.35972e-64
1.53683e-64
3.98404e-65
5.79363e-66
1.16193e-69
6.43201e-68
4.01853e-67
1.8146e-66
7.92084e-64
1.11442e-61
9.35597e-61
3.49631e-60
7.78108e-60
1.11742e-59
1.06819e-59
7.53456e-60
3.81734e-60
1.26719e-60
2.13774e-61
1.98118e-61
5.26986e-61
4.83566e-60
2.65975e-59
8.52359e-58
1.22268e-57
1.17949e-57
1.73837e-56
4.94484e-56
3.83467e-56
1.08356e-56
7.52117e-56
1.32462e-55
1.28121e-55
3.87298e-56
2.14719e-55
2.62104e-55
9.57975e-56
2.07764e-56
8.04091e-56
4.42287e-56
1.11706e-56
7.95252e-56
4.32326e-55
1.45158e-54
9.01311e-57
2.47311e-56
2.55024e-58
4.7942e-59
6.68816e-60
2.45444e-59
8.13196e-61
2.35112e-60
4.44221e-60
2.42781e-60
4.21783e-61
5.00668e-61
8.90885e-61
3.82138e-61
3.55309e-62
1.81681e-62
1.88092e-62
7.99476e-63
1.01945e-63
3.1619e-64
6.27129e-65
1.04786e-65
1.1242e-66
3.77884e-68
5.99836e-69
8.3986e-69
1.00599e-68
1.07625e-68
1.04363e-68
9.14329e-69
7.23856e-69
5.30118e-69
3.64619e-69
2.29925e-69
1.27733e-69
6.12579e-70
2.55014e-70
8.53787e-71
2.12859e-71
3.02344e-72
7.56403e-76
4.50981e-74
2.87208e-73
1.22682e-72
9.81932e-72
2.86451e-68
4.54988e-67
2.41486e-66
6.95245e-66
1.2117e-65
1.27251e-65
9.76488e-66
5.41378e-66
1.91516e-66
3.30811e-67
3.10707e-67
1.63841e-66
1.77795e-65
1.26178e-64
5.37962e-63
1.01685e-62
9.86134e-63
1.75829e-61
5.86467e-61
4.56915e-61
1.35508e-61
9.9518e-61
6.77189e-61
1.58033e-60
5.69579e-61
3.27267e-60
4.08597e-60
1.50711e-60
3.16843e-61
1.28131e-60
7.0374e-61
1.69863e-61
1.20985e-60
6.30553e-60
2.00569e-59
1.13172e-61
4.23761e-61
4.35724e-63
8.72223e-64
1.11211e-64
4.30251e-64
1.39376e-65
3.898e-65
7.40649e-65
4.01631e-65
6.56942e-66
7.58774e-66
1.2878e-65
5.13611e-66
4.3036e-67
2.02169e-67
1.89225e-67
6.99422e-68
7.48831e-69
1.93621e-69
3.1254e-70
4.18113e-71
3.07884e-72
5.33401e-74
9.07916e-75
1.19813e-74
1.34242e-74
1.33647e-74
1.19842e-74
9.67568e-75
6.99711e-75
4.65539e-75
2.94786e-75
1.71343e-75
8.84671e-76
3.98619e-76
1.58063e-76
5.13265e-77
1.26597e-77
1.81543e-78
5.53588e-82
3.47633e-80
2.28447e-79
9.37199e-79
6.63299e-78
2.7892e-75
1.55107e-73
1.32072e-72
5.2495e-72
1.18185e-71
1.45952e-71
1.24145e-71
7.64611e-72
3.02638e-72
5.67217e-73
6.33373e-73
5.60598e-72
8.23355e-71
6.83547e-70
3.72814e-68
9.19437e-68
9.99967e-68
1.93416e-66
7.84117e-66
6.45176e-66
1.91427e-66
1.5575e-65
-7.97884e-61
8.04306e-85
9.62183e-66
5.69286e-65
7.22919e-65
2.72611e-65
5.42732e-66
2.31561e-65
1.29238e-65
2.96222e-66
2.12123e-65
1.05149e-64
3.55279e-64
1.98015e-66
8.30893e-66
8.32898e-68
1.80381e-68
2.3036e-69
8.48489e-69
2.73401e-70
7.4783e-70
1.37957e-69
7.39779e-70
1.14732e-70
1.27517e-70
2.09694e-70
7.89889e-71
6.00597e-72
2.57533e-72
2.19301e-72
7.07317e-73
6.32779e-74
1.36229e-74
1.79679e-75
1.89486e-76
9.45283e-78
8.2446e-80
1.49771e-80
1.8525e-80
1.93465e-80
1.77992e-80
1.4643e-80
1.08257e-80
7.0535e-81
4.23475e-81
2.42782e-81
1.28445e-81
6.10839e-82
2.57887e-82
9.77555e-83
3.10669e-83
7.69017e-84
1.13307e-84
5.27243e-88
2.73295e-86
1.88172e-85
7.7921e-85
5.27478e-84
5.35932e-83
1.60271e-80
4.83838e-79
3.22889e-78
1.04547e-77
1.67158e-77
1.65352e-77
1.13192e-77
5.04996e-78
1.08115e-78
1.68433e-78
2.17565e-77
4.40609e-76
4.81174e-75
3.12848e-73
8.95982e-73
1.17908e-72
2.40912e-71
1.14799e-70
1.03652e-70
3.0794e-71
2.68823e-70
-4.63824e-64
-5.23209e-69
1.67499e-70
1.11599e-69
1.42495e-69
5.51143e-70
8.72712e-71
4.56781e-70
2.65786e-70
5.82661e-71
4.2108e-70
2.00923e-69
7.10872e-69
4.06269e-71
1.82382e-70
1.77625e-72
4.099e-73
5.13918e-74
1.87767e-73
5.8887e-75
1.61393e-74
2.87758e-74
1.50739e-74
2.23346e-75
2.40252e-75
3.82e-75
1.36973e-75
9.56288e-77
3.73224e-77
2.90951e-77
8.24694e-78
6.12947e-79
1.09605e-79
1.1763e-80
9.75397e-82
3.33137e-83
1.45671e-85
2.72779e-86
3.14707e-86
3.04281e-86
2.56715e-86
1.91787e-86
1.27687e-86
7.37478e-87
3.90551e-87
1.96811e-87
9.16652e-88
3.87908e-88
1.5732e-88
1.59172e-88
2.33644e-87
1.9913e-85
2.45564e-85
3.92199e-88
1.62289e-91
1.61768e-91
6.92059e-91
4.31204e-90
4.6639e-89
5.43827e-88
1.08851e-85
1.71349e-84
8.66528e-84
1.93254e-83
2.3892e-83
1.82019e-83
8.8708e-84
2.20294e-84
4.42129e-84
1.03011e-82
2.51592e-81
4.22726e-80
3.29139e-78
1.03989e-77
1.57704e-77
3.68898e-76
1.83194e-75
1.85341e-75
5.63009e-76
5.06246e-75
-1.65166e-67
-2.08017e-71
-1.77517e-94
2.47128e-74
3.14351e-74
1.18796e-74
-1.93117e-71
6.1276e-75
6.02539e-75
1.28243e-75
9.29063e-75
4.30282e-74
1.62322e-73
9.34092e-76
4.39893e-75
4.19292e-77
1.00199e-77
1.27011e-78
4.63491e-78
1.41128e-79
3.84235e-79
6.68499e-79
3.42051e-79
4.83398e-80
5.07404e-80
7.7904e-80
2.66289e-80
1.72478e-81
6.13732e-82
4.4082e-82
1.10695e-82
6.80589e-84
1.0116e-84
8.81084e-86
5.74026e-87
1.34773e-88
2.97994e-91
5.41271e-92
5.81644e-92
5.18961e-92
4.00246e-92
2.70215e-92
1.60434e-92
8.15258e-93
3.74921e-93
1.6355e-93
1.6455e-93
5.64625e-92
1.23944e-88
1.39311e-85
7.11548e-84
2.03756e-83
1.55728e-83
8.26041e-84
4.37616e-90
4.44258e-95
3.70561e-96
3.70297e-96
3.76227e-95
5.55447e-94
1.65102e-92
8.26922e-91
6.86366e-90
2.19068e-89
3.6346e-89
3.22463e-89
1.66526e-89
4.62463e-90
1.24814e-89
5.18314e-88
1.67406e-86
4.11963e-85
4.27108e-83
1.49584e-82
2.36367e-82
6.77587e-81
3.34639e-80
3.64067e-80
1.15964e-80
1.07024e-79
-4.7811e-71
-2.23443e-74
4.79438e-95
6.0348e-79
7.67975e-79
2.90999e-79
-2.28878e-74
1.3479e-99
1.48918e-79
3.09866e-80
2.26643e-79
1.02165e-78
4.09525e-78
2.38636e-80
1.15503e-79
1.10046e-81
2.65865e-82
3.3655e-83
1.24189e-82
3.73651e-84
9.92407e-84
1.70488e-83
8.58144e-84
1.16144e-84
1.18811e-84
1.77035e-84
5.78438e-85
3.50242e-86
1.13796e-86
7.5831e-87
1.70687e-87
8.68663e-89
1.07304e-89
7.5688e-91
3.87512e-92
6.3455e-94
7.30156e-97
1.16522e-97
1.16538e-97
9.58443e-98
6.74667e-98
4.10752e-98
2.16226e-98
2.0622e-98
2.57984e-98
9.56556e-95
3.95404e-91
1.15447e-87
2.51309e-84
2.60443e-81
1.2492e-79
3.54438e-79
2.71989e-79
1.4371e-79
8.01344e-86
7.99952e-91
2.54974e-95
1.08853e-99
5.31836e-100
5.57219e-100
7.00113e-99
3.76003e-97
5.4508e-96
2.39369e-95
5.51682e-95
6.18989e-95
3.36647e-95
9.94935e-96
4.72486e-95
2.71488e-93
1.37224e-91
4.17523e-90
6.20387e-88
2.62402e-87
3.98854e-87
1.39927e-85
7.037e-85
8.00381e-85
2.66421e-85
2.56711e-84
-1.24475e-74
-8.87416e-78
-3.82813e-82
1.61334e-83
2.06543e-83
7.81608e-84
-1.30116e-77
0
4.02388e-84
8.24299e-85
6.06411e-84
2.64414e-83
1.12789e-82
6.73739e-85
3.28114e-84
3.15076e-86
7.72855e-87
9.74038e-88
3.60041e-87
1.07324e-88
2.7693e-88
4.71926e-88
2.35698e-88
3.08376e-89
3.06917e-89
4.46184e-89
1.39922e-89
7.96994e-91
2.376e-91
1.47528e-91
3.01035e-92
1.27561e-93
1.3096e-94
7.46382e-96
3.01662e-97
3.54775e-99
2.23109e-102
2.76346e-103
2.56324e-103
1.93697e-103
1.24115e-103
1.2491e-103
8.90759e-102
5.88583e-98
3.90461e-94
1.85651e-90
6.95424e-87
1.97473e-83
4.24836e-80
4.3167e-77
1.93606e-75
5.39036e-75
4.13384e-75
2.20472e-75
1.2743e-81
1.41147e-86
4.92722e-91
1.10481e-95
2.53203e-100
3.08442e-104
2.08461e-104
1.88062e-103
4.53548e-102
2.60473e-101
7.92715e-101
1.21898e-100
6.95672e-101
2.30804e-101
2.42035e-100
1.6709e-98
1.30289e-96
5.01563e-95
9.31562e-93
5.18144e-92
7.67777e-92
3.0136e-90
1.09479e-89
1.86434e-89
6.80232e-90
6.8859e-89
-3.07123e-78
-2.70912e-81
-3.80005e-85
3.91498e-88
6.04054e-88
2.29541e-88
-5.55704e-81
-2.37808e-85
9.14894e-89
2.40724e-89
1.77735e-88
7.50443e-88
3.36933e-87
2.05733e-89
1.01182e-88
9.73708e-91
2.44035e-91
3.06763e-92
1.13033e-91
3.34776e-93
8.38555e-93
1.41711e-92
7.04127e-93
8.97745e-94
8.71234e-94
1.24269e-93
3.7588e-94
2.02595e-95
5.58228e-96
3.24587e-96
6.06698e-97
2.16114e-98
1.84853e-99
8.50982e-101
2.73729e-102
2.36103e-104
8.59718e-108
7.32841e-109
6.56637e-109
7.99574e-109
2.09854e-105
2.04495e-101
1.65959e-97
1.13735e-93
6.46822e-90
2.97328e-86
1.08456e-82
3.00689e-79
6.40926e-76
6.37842e-73
2.64864e-71
7.22416e-71
5.55493e-71
2.98738e-71
1.74332e-77
2.13788e-82
8.7394e-87
2.16784e-91
5.03673e-96
1.48876e-100
5.42599e-105
3.9134e-108
3.33184e-108
2.9942e-107
1.06367e-106
2.39775e-106
1.38251e-106
5.77835e-107
1.61334e-105
1.25084e-103
1.44236e-101
7.5868e-100
1.56509e-97
1.0765e-96
1.70373e-96
7.04133e-95
-9.92757e-90
0
1.96802e-94
1.99536e-93
-7.32416e-82
-7.33568e-85
-1.8426e-88
-2.36048e-104
1.92103e-92
7.29437e-93
-2.01855e-84
-3.29902e-88
3.49526e-113
7.46823e-94
5.62348e-93
2.31269e-92
1.07989e-91
6.81403e-94
3.37128e-93
3.22914e-95
8.30001e-96
1.03631e-96
3.83095e-96
1.13124e-97
2.75124e-97
4.61568e-97
2.28338e-97
2.85081e-98
2.70685e-98
3.80806e-98
1.11793e-98
5.74159e-100
1.47018e-100
8.0616e-101
1.39516e-101
4.2309e-103
3.02968e-104
1.12623e-105
2.90729e-107
1.89047e-109
6.39674e-112
6.71299e-112
2.89929e-109
3.51499e-105
3.68371e-101
3.35416e-97
2.62449e-93
1.73757e-89
9.54414e-86
4.23632e-82
1.50329e-78
4.07024e-75
8.62684e-72
8.40437e-69
3.20373e-67
8.51922e-67
6.57605e-67
3.56552e-67
2.12629e-73
2.74042e-78
1.31041e-82
4.0408e-87
1.04847e-91
2.97433e-96
1.17125e-100
5.42433e-105
2.98446e-109
1.68136e-112
1.43436e-112
4.91821e-112