/*--------------------------------*- C++ -*----------------------------------*\
| =========                 |                                                 |
| \\      /  F ield         | OpenFOAM: The Open Source CFD Toolbox           |
|  \\    /   O peration     | Version:  2412                                  |
|   \\  /    A nd           | Website:  www.openfoam.com                      |
|    \\/     M anipulation  |                                                 |
\*---------------------------------------------------------------------------*/
FoamFile
{
    version     2.0;
    format      ascii;
    arch        "LSB;label=32;scalar=64";
    class       volVectorField;
    location    "9.95";
    object      U;
}
// * * * * * * * * * * * * * * * * * * * * * * * * * * * * * * * * * * * * * //

dimensions      [0 1 -1 0 0 0 0];

internalField   nonuniform List<vector> 
6400
(
(8.15878e-08 -3.42084e-07 0)
(1.6397e-06 -4.21308e-07 0)
(1.14278e-06 9.65671e-07 0)
(-1.28741e-06 1.9456e-06 0)
(-3.67805e-06 1.61929e-06 0)
(-3.98974e-06 -2.03698e-07 0)
(-1.18909e-06 -2.6373e-06 0)
(3.46752e-06 -4.02189e-06 0)
(6.96263e-06 -3.02645e-06 0)
(6.45843e-06 2.65324e-07 0)
(1.43168e-06 4.1141e-06 0)
(-5.53864e-06 6.04625e-06 0)
(-1.00882e-05 4.44724e-06 0)
(-8.82374e-06 -2.03373e-07 0)
(-1.7596e-06 -5.35744e-06 0)
(7.27642e-06 -7.81733e-06 0)
(1.27488e-05 -5.74265e-06 0)
(1.08513e-05 2.80903e-08 0)
(2.11416e-06 6.26661e-06 0)
(-8.58657e-06 9.19445e-06 0)
(-1.48029e-05 6.80491e-06 0)
(-1.24605e-05 2.20934e-07 0)
(-2.52564e-06 -6.82154e-06 0)
(9.35136e-06 -1.01345e-05 0)
(1.61145e-05 -7.6062e-06 0)
(1.35581e-05 -5.48205e-07 0)
(2.9564e-06 6.99844e-06 0)
(-9.58448e-06 1.06186e-05 0)
(-1.67107e-05 8.14216e-06 0)
(-1.41951e-05 9.52439e-07 0)
(-3.46202e-06 -6.80927e-06 0)
(9.25398e-06 -1.06699e-05 0)
(1.65951e-05 -8.43489e-06 0)
(1.43903e-05 -1.43894e-06 0)
(4.03439e-06 6.27447e-06 0)
(-8.42398e-06 1.03254e-05 0)
(-1.58708e-05 8.50839e-06 0)
(-1.42299e-05 1.98936e-06 0)
(-4.69005e-06 -5.45612e-06 0)
(7.15441e-06 -9.65782e-06 0)
(1.46279e-05 -8.40232e-06 0)
(1.37608e-05 -2.58625e-06 0)
(5.37892e-06 4.41786e-06 0)
(-5.58773e-06 8.73609e-06 0)
(-1.30329e-05 8.14199e-06 0)
(-1.3084e-05 3.18561e-06 0)
(-6.08672e-06 -3.25378e-06 0)
(3.82789e-06 -7.65023e-06 0)
(1.11958e-05 -7.76061e-06 0)
(1.22274e-05 -3.74779e-06 0)
(6.72299e-06 2.04751e-06 0)
(-2.04553e-06 6.47262e-06 0)
(-9.2768e-06 7.27124e-06 0)
(-1.12563e-05 4.2148e-06 0)
(-7.23374e-06 -8.9508e-07 0)
(3.63267e-07 -5.28143e-06 0)
(7.378e-06 -6.69212e-06 0)
(1.01822e-05 -4.54278e-06 0)
(7.53109e-06 -1.32703e-07 0)
(1.08496e-06 4.12653e-06 0)
(-5.60122e-06 6.02154e-06 0)
(-9.02259e-06 4.68153e-06 0)
(-7.55328e-06 9.69502e-07 0)
(-2.21137e-06 -3.05214e-06 0)
(3.99873e-06 -5.26244e-06 0)
(7.76604e-06 -4.60295e-06 0)
(7.24389e-06 -1.58355e-06 0)
(2.96085e-06 2.07077e-06 0)
(-2.58791e-06 4.40501e-06 0)
(-6.39261e-06 4.28898e-06 0)
(-6.58052e-06 1.96529e-06 0)
(-3.34606e-06 -1.17858e-06 0)
(1.31806e-06 -3.4401e-06 0)
(4.85281e-06 -3.73549e-06 0)
(5.56512e-06 -2.12574e-06 0)
(3.43891e-06 3.16076e-07 0)
(-5.73965e-08 2.1693e-06 0)
(-2.9175e-06 2.57206e-06 0)
(-3.71147e-06 1.69157e-06 0)
(-1.35169e-06 1.32001e-06 0)
(-8.0511e-07 1.14681e-06 0)
(-3.23671e-07 -7.45933e-07 0)
(7.48029e-07 -4.27536e-08 0)
(3.02007e-07 1.22881e-06 0)
(-1.45432e-07 1.96788e-06 0)
(-2.90638e-07 1.43797e-06 0)
(2.91763e-08 -5.25973e-07 0)
(5.62154e-07 -2.95877e-06 0)
(7.94006e-07 -4.17574e-06 0)
(3.65484e-07 -2.91022e-06 0)
(-5.89605e-07 6.17653e-07 0)
(-1.44811e-06 4.52904e-06 0)
(-1.49888e-06 6.29245e-06 0)
(-4.84487e-07 4.36495e-06 0)
(1.11085e-06 -6.00444e-07 0)
(2.28369e-06 -5.87274e-06 0)
(2.14664e-06 -8.1706e-06 0)
(5.72625e-07 -5.72652e-06 0)
(-1.61153e-06 4.22228e-07 0)
(-3.06416e-06 6.83213e-06 0)
(-2.7654e-06 9.61808e-06 0)
(-7.20531e-07 6.84227e-06 0)
(1.94788e-06 -1.6139e-07 0)
(3.62782e-06 -7.42076e-06 0)
(3.2076e-06 -1.06212e-05 0)
(8.11087e-07 -7.70818e-06 0)
(-2.20877e-06 -2.05676e-07 0)
(-4.04983e-06 7.59692e-06 0)
(-3.55368e-06 1.11409e-05 0)
(-9.37719e-07 8.29847e-06 0)
(2.29768e-06 6.56377e-07 0)
(4.247e-06 -7.39412e-06 0)
(3.73915e-06 -1.12228e-05 0)
(1.0467e-06 -8.65591e-06 0)
(-2.26794e-06 -1.21377e-06 0)
(-4.27733e-06 6.81506e-06 0)
(-3.82547e-06 1.08818e-05 0)
(-1.19661e-06 8.77872e-06 0)
(2.07203e-06 1.83283e-06 0)
(4.10417e-06 -5.94747e-06 0)
(3.77344e-06 -1.02149e-05 0)
(1.32807e-06 -8.72777e-06 0)
(-1.79462e-06 -2.51407e-06 0)
(-3.82584e-06 4.83721e-06 0)
(-3.6752e-06 9.26919e-06 0)
(-1.51205e-06 8.50184e-06 0)
(1.38814e-06 3.18508e-06 0)
(3.40445e-06 -3.60587e-06 0)
(3.48029e-06 -8.15979e-06 0)
(1.67026e-06 -8.15606e-06 0)
(-9.53525e-07 -3.82551e-06 0)
(-2.94087e-06 2.31751e-06 0)
(-3.2646e-06 6.93617e-06 0)
(-1.84246e-06 7.67693e-06 0)
(4.78621e-07 4.34931e-06 0)
(2.42693e-06 -1.09526e-06 0)
(2.99947e-06 -5.70112e-06 0)
(1.96976e-06 -7.10393e-06 0)
(-4.04766e-08 -4.73113e-06 0)
(-1.93283e-06 -7.75216e-09 0)
(-2.72714e-06 4.48564e-06 0)
(-2.06242e-06 6.41517e-06 0)
(-3.52531e-07 4.90007e-06 0)
(1.46405e-06 9.05074e-07 0)
(2.43427e-06 -3.35284e-06 0)
(2.08658e-06 -5.6297e-06 0)
(6.5824e-07 -4.83971e-06 0)
(-1.05694e-06 -1.57151e-06 0)
(-2.14729e-06 2.3106e-06 0)
(-2.06674e-06 4.72734e-06 0)
(-9.03016e-07 4.50527e-06 0)
(7.0806e-07 1.94803e-06 0)
(1.94551e-06 -1.42011e-06 0)
(2.21929e-06 -3.76138e-06 0)
(1.38277e-06 -3.95241e-06 0)
(-2.88066e-07 -2.16753e-06 0)
(-2.28732e-06 3.95561e-07 0)
(-3.86585e-06 2.4076e-06 0)
(-2.74748e-06 3.03971e-06 0)
(-1.44444e-06 3.19152e-06 0)
(6.2807e-08 2.40073e-06 0)
(-5.90773e-07 7.14559e-07 0)
(7.15627e-07 9.9568e-07 0)
(-3.84816e-07 1.47732e-06 0)
(-1.22664e-06 1.01977e-06 0)
(-1.28561e-06 -3.36377e-07 0)
(-3.17175e-07 -2.01207e-06 0)
(1.24373e-06 -3.01635e-06 0)
(2.39843e-06 -2.45582e-06 0)
(2.19471e-06 -2.39649e-07 0)
(4.47371e-07 2.61664e-06 0)
(-1.97106e-06 4.42823e-06 0)
(-3.55608e-06 3.84757e-06 0)
(-3.11794e-06 8.27741e-07 0)
(-6.4016e-07 -3.12857e-06 0)
(2.55185e-06 -5.71332e-06 0)
(4.50932e-06 -5.18044e-06 0)
(3.8659e-06 -1.51748e-06 0)
(7.77843e-07 3.36522e-06 0)
(-3.04574e-06 6.64029e-06 0)
(-5.30654e-06 6.23093e-06 0)
(-4.52106e-06 2.13624e-06 0)
(-9.91989e-07 -3.43396e-06 0)
(3.28611e-06 -7.27029e-06 0)
(5.77632e-06 -7.04309e-06 0)
(4.92763e-06 -2.73333e-06 0)
(1.14783e-06 3.27448e-06 0)
(-3.39345e-06 7.53437e-06 0)
(-6.03447e-06 7.54701e-06 0)
(-5.20438e-06 3.24242e-06 0)
(-1.36384e-06 -2.95028e-06 0)
(3.2624e-06 -7.4988e-06 0)
(5.99714e-06 -7.80973e-06 0)
(5.28006e-06 -3.7216e-06 0)
(1.56254e-06 2.41982e-06 0)
(-2.98682e-06 7.13043e-06 0)
(-5.7687e-06 7.78857e-06 0)
(-5.25405e-06 4.10281e-06 0)
(-1.82403e-06 -1.77837e-06 0)
(2.51053e-06 -6.53843e-06 0)
(5.30362e-06 -7.58028e-06 0)
(5.06452e-06 -4.44653e-06 0)
(2.04763e-06 1.00535e-06 0)
(-1.97074e-06 5.71712e-06 0)
(-4.74952e-06 7.15722e-06 0)
(-4.83708e-06 4.6787e-06 0)
(-2.31937e-06 -2.17038e-07 0)
(1.31522e-06 -4.79593e-06 0)
(4.06086e-06 -6.6233e-06 0)
(4.50111e-06 -4.85279e-06 0)
(2.52787e-06 -5.9482e-07 0)
(-6.82355e-07 3.77711e-06 0)
(-3.36949e-06 5.95028e-06 0)
(-4.15072e-06 4.88889e-06 0)
(-2.72079e-06 1.30994e-06 0)
(5.40689e-08 -2.78704e-06 0)
(2.65506e-06 -5.23362e-06 0)
(3.73639e-06 -4.83379e-06 0)
(2.81341e-06 -1.937e-06 0)
(4.6849e-07 1.8231e-06 0)
(-2.00574e-06 4.44536e-06 0)
(-3.31257e-06 4.6219e-06 0)
(-2.82701e-06 2.38541e-06 0)
(-8.90507e-07 -9.76007e-07 0)
(1.41158e-06 -3.65441e-06 0)
(2.85465e-06 -4.29373e-06 0)
(2.72595e-06 -2.67385e-06 0)
(1.17544e-06 2.36102e-07 0)
(-9.09369e-07 2.85205e-06 0)
(-2.41338e-06 3.83682e-06 0)
(-2.58819e-06 2.7777e-06 0)
(-1.40747e-06 3.37385e-07 0)
(4.85691e-07 -2.16471e-06 0)
(2.13486e-06 -3.47306e-06 0)
(2.71019e-06 -3.03492e-06 0)
(1.7996e-06 -1.19803e-06 0)
(-3.89896e-07 1.13153e-06 0)
(-2.9978e-06 3.19372e-06 0)
(-2.26325e-06 3.86729e-06 0)
(-2.28408e-06 2.08595e-06 0)
(1.59558e-06 7.77661e-07 0)
(4.80515e-07 3.60994e-07 0)
(1.47126e-06 1.29163e-07 0)
(-7.95465e-08 9.47126e-07 0)
(-1.84013e-06 1.64552e-06 0)
(-2.88319e-06 1.71286e-06 0)
(-2.31928e-06 7.68786e-07 0)
(-2.00552e-09 -9.85243e-07 0)
(2.96157e-06 -2.64657e-06 0)
(4.68694e-06 -3.09241e-06 0)
(3.71912e-06 -1.74393e-06 0)
(1.64559e-07 9.0529e-07 0)
(-4.10215e-06 3.4143e-06 0)
(-6.43308e-06 4.1936e-06 0)
(-5.07258e-06 2.52031e-06 0)
(-4.24907e-07 -8.77337e-07 0)
(4.96209e-06 -4.11149e-06 0)
(7.81817e-06 -5.19926e-06 0)
(6.16371e-06 -3.29484e-06 0)
(6.63053e-07 6.90229e-07 0)
(-5.60269e-06 4.51514e-06 0)
(-8.89409e-06 5.89415e-06 0)
(-7.08037e-06 3.88222e-06 0)
(-1.01813e-06 -4.86623e-07 0)
(5.84822e-06 -4.73611e-06 0)
(9.48046e-06 -6.37444e-06 0)
(7.65749e-06 -4.37682e-06 0)
(1.34322e-06 1.72518e-07 0)
(-5.83683e-06 4.68024e-06 0)
(-9.71516e-06 6.54744e-06 0)
(-8.03399e-06 4.68686e-06 0)
(-1.76745e-06 1.58393e-07 0)
(5.46342e-06 -4.44983e-06 0)
(9.51715e-06 -6.522e-06 0)
(8.13118e-06 -4.91542e-06 0)
(2.18743e-06 -5.90177e-07 0)
(-4.8635e-06 3.97695e-06 0)
(-9.03562e-06 6.23015e-06 0)
(-8.08053e-06 4.97568e-06 0)
(-2.69379e-06 1.00899e-06 0)
(3.98685e-06 -3.39694e-06 0)
(8.23044e-06 -5.80749e-06 0)
(7.80771e-06 -4.97789e-06 0)
(3.14972e-06 -1.48665e-06 0)
(-3.02061e-06 2.66291e-06 0)
(-7.29391e-06 5.20147e-06 0)
(-7.46092e-06 4.83602e-06 0)
(-3.63749e-06 1.89689e-06 0)
(1.93134e-06 -1.92526e-06 0)
(6.19414e-06 -4.55523e-06 0)
(6.96206e-06 -4.65813e-06 0)
(4.01521e-06 -2.30546e-06 0)
(-8.98444e-07 1.14027e-06 0)
(-5.0965e-06 3.81409e-06 0)
(-6.41899e-06 4.35391e-06 0)
(-4.32501e-06 2.58564e-06 0)
(-8.33029e-08 -4.50654e-07 0)
(3.98547e-06 -3.10696e-06 0)
(5.77036e-06 -4.01784e-06 0)
(4.45628e-06 -2.79631e-06 0)
(8.83729e-07 -1.86093e-07 0)
(-2.97048e-06 2.38343e-06 0)
(-5.07964e-06 3.57646e-06 0)
(-4.43068e-06 2.84401e-06 0)
(-1.50634e-06 6.70037e-07 0)
(2.04142e-06 -1.73434e-06 0)
(4.32154e-06 -3.10436e-06 0)
(4.21291e-06 -2.78641e-06 0)
(1.91157e-06 -1.04624e-06 0)
(-1.2525e-06 1.12504e-06 0)
(-3.58479e-06 2.57374e-06 0)
(-3.92518e-06 2.59246e-06 0)
(-2.20564e-06 1.25353e-06 0)
(5.84907e-07 -6.9577e-07 0)
(2.92191e-06 -2.27383e-06 0)
(3.50902e-06 -2.76369e-06 0)
(1.94627e-06 -1.88467e-06 0)
(-8.98218e-07 1.80423e-07 0)
(-6.91515e-07 1.81668e-06 0)
(-1.9608e-06 -4.20061e-07 0)
(2.4279e-06 -2.21203e-06 0)
(1.84184e-06 -1.21369e-07 0)
(1.81946e-06 -8.92874e-07 0)
(8.67135e-07 -4.16175e-07 0)
(-9.36003e-07 1.05186e-06 0)
(-2.86047e-06 2.61962e-06 0)
(-3.65326e-06 3.09359e-06 0)
(-2.28672e-06 1.73134e-06 0)
(9.53903e-07 -1.09734e-06 0)
(4.3159e-06 -3.90927e-06 0)
(5.55796e-06 -4.89859e-06 0)
(3.45511e-06 -3.1001e-06 0)
(-1.17571e-06 8.21226e-07 0)
(-5.72584e-06 4.74595e-06 0)
(-7.29011e-06 6.26728e-06 0)
(-4.53901e-06 4.18613e-06 0)
(1.25609e-06 -5.97301e-07 0)
(6.78684e-06 -5.44059e-06 0)
(8.63257e-06 -7.44093e-06 0)
(5.39888e-06 -5.20235e-06 0)
(-1.27575e-06 2.08449e-07 0)
(-7.55634e-06 5.76044e-06 0)
(-9.65535e-06 8.18798e-06 0)
(-6.14819e-06 5.9405e-06 0)
(1.07575e-06 1.7452e-07 0)
(7.85144e-06 -5.84924e-06 0)
(1.01818e-05 -8.63981e-06 0)
(6.62696e-06 -6.52846e-06 0)
(-8.06585e-07 -6.73185e-07 0)
(-7.82554e-06 5.59106e-06 0)
(-1.037e-05 8.68361e-06 0)
(-6.98893e-06 6.84943e-06 0)
(3.34754e-07 1.1598e-06 0)
(7.37479e-06 -5.13098e-06 0)
(1.01351e-05 -8.47313e-06 0)
(7.13824e-06 -7.04451e-06 0)
(2.06853e-07 -1.74341e-06 0)
(-6.66664e-06 4.38683e-06 0)
(-9.64823e-06 7.9279e-06 0)
(-7.2124e-06 7.00552e-06 0)
(-9.04129e-07 2.27488e-06 0)
(5.65298e-06 -3.54031e-06 0)
(8.85681e-06 -7.23092e-06 0)
(7.10874e-06 -6.88028e-06 0)
(1.58647e-06 -2.84834e-06 0)
(-4.54512e-06 2.53316e-06 0)
(-7.95828e-06 6.31834e-06 0)
(-6.96379e-06 6.5606e-06 0)
(-2.32064e-06 3.30056e-06 0)
(3.31377e-06 -1.56306e-06 0)
(6.9062e-06 -5.38059e-06 0)
(6.67182e-06 -6.19214e-06 0)
(2.93832e-06 -3.72126e-06 0)
(-2.15052e-06 5.71714e-07 0)
(-5.86077e-06 4.34891e-06 0)
(-6.32656e-06 5.66298e-06 0)
(-3.47267e-06 3.9524e-06 0)
(1.04379e-06 2.60713e-07 0)
(4.78522e-06 -3.38909e-06 0)
(5.84111e-06 -5.09851e-06 0)
(3.79612e-06 -4.07574e-06 0)
(-1.25653e-07 -9.93704e-07 0)
(-3.78007e-06 2.4359e-06 0)
(-5.27006e-06 4.40914e-06 0)
(-3.93081e-06 3.97925e-06 0)
(-6.17504e-07 1.50577e-06 0)
(2.82353e-06 -1.60496e-06 0)
(4.58359e-06 -3.69812e-06 0)
(3.84263e-06 -3.75182e-06 0)
(1.14035e-06 -1.87229e-06 0)
(-1.99369e-06 8.37369e-07 0)
(-3.90511e-06 2.9228e-06 0)
(-3.67888e-06 3.35354e-06 0)
(-1.58108e-06 2.01537e-06 0)
(1.12734e-06 -3.14438e-07 0)
(2.87762e-06 -2.40105e-06 0)
(2.75044e-06 -3.09262e-06 0)
(1.0713e-06 -1.85344e-06 0)
(1.23763e-06 -1.90907e-07 0)
(-4.42766e-07 -2.73445e-06 0)
(1.69161e-06 -4.56329e-06 0)
(2.49951e-06 -4.68603e-07 0)
(1.27391e-06 -1.63738e-06 0)
(1.87499e-06 -2.18125e-06 0)
(1.05551e-06 -8.36018e-07 0)
(-1.09906e-06 1.63932e-06 0)
(-3.43311e-06 3.76527e-06 0)
(-4.19356e-06 4.02982e-06 0)
(-2.37e-06 1.81171e-06 0)
(1.38624e-06 -2.00248e-06 0)
(4.93752e-06 -5.30203e-06 0)
(5.9177e-06 -5.92662e-06 0)
(3.30873e-06 -3.08184e-06 0)
(-1.6955e-06 1.94756e-06 0)
(-6.21523e-06 6.3448e-06 0)
(-7.37266e-06 7.37098e-06 0)
(-4.14181e-06 4.08834e-06 0)
(1.84567e-06 -1.88843e-06 0)
(7.12475e-06 -7.18175e-06 0)
(8.43931e-06 -8.59081e-06 0)
(4.77134e-06 -5.05445e-06 0)
(-1.91518e-06 1.5876e-06 0)
(-7.74508e-06 7.56108e-06 0)
(-9.21743e-06 9.34085e-06 0)
(-5.33524e-06 5.75954e-06 0)
(1.73412e-06 -1.2329e-06 0)
(7.89582e-06 -7.6518e-06 0)
(9.5385e-06 -9.78361e-06 0)
(5.67633e-06 -6.36237e-06 0)
(-1.46267e-06 6.77627e-07 0)
(-7.75015e-06 7.31817e-06 0)
(-9.58106e-06 9.78564e-06 0)
(-5.96055e-06 6.71732e-06 0)
(9.64099e-07 -8.8115e-08 0)
(7.20374e-06 -6.74784e-06 0)
(9.25432e-06 -9.53766e-06 0)
(6.07746e-06 -6.99082e-06 0)
(-3.91969e-07 -6.59703e-07 0)
(-6.44324e-06 5.84543e-06 0)
(-8.74077e-06 8.93781e-06 0)
(-6.16692e-06 7.03998e-06 0)
(-3.3936e-07 1.37282e-06 0)
(5.41566e-06 -4.83498e-06 0)
(7.97461e-06 -8.19984e-06 0)
(6.10908e-06 -7.02964e-06 0)
(1.04579e-06 -2.15555e-06 0)
(-4.33617e-06 3.64343e-06 0)
(-7.14783e-06 7.23213e-06 0)
(-6.03215e-06 6.81077e-06 0)
(-1.79167e-06 2.79903e-06 0)
(3.16758e-06 -2.5078e-06 0)
(6.19895e-06 -6.25142e-06 0)
(5.81702e-06 -6.54419e-06 0)
(2.40466e-06 -3.40563e-06 0)
(-2.09479e-06 1.35032e-06 0)
(-5.27713e-06 5.1588e-06 0)
(-5.5516e-06 6.08079e-06 0)
(-2.92398e-06 3.78139e-06 0)
(1.08971e-06 -3.78909e-07 0)
(4.32731e-06 -4.13848e-06 0)
(5.13948e-06 -5.55999e-06 0)
(3.22586e-06 -4.02431e-06 0)
(-2.71638e-07 -4.88102e-07 0)
(-3.43881e-06 3.09886e-06 0)
(-4.63425e-06 4.86633e-06 0)
(-3.34261e-06 4.00096e-06 0)
(-3.86433e-07 1.11178e-06 0)
(2.58251e-06 -2.17284e-06 0)
(4.00618e-06 -4.12412e-06 0)
(3.23698e-06 -3.82459e-06 0)
(8.20435e-07 -1.59136e-06 0)
(-1.86938e-06 1.27963e-06 0)
(-3.41246e-06 3.26369e-06 0)
(-3.10071e-06 3.41213e-06 0)
(-1.29447e-06 1.80509e-06 0)
(8.47254e-07 -5.47012e-07 0)
(2.16549e-06 -2.23133e-06 0)
(2.31007e-06 -2.27127e-06 0)
(2.47619e-06 -1.31056e-06 0)
(1.33545e-06 -3.46645e-06 0)
(-5.97638e-07 -4.11303e-06 0)
(1.52789e-06 -3.37667e-07 0)
(-2.45604e-07 -1.51716e-06 0)
(2.1357e-06 -3.26946e-06 0)
(3.04887e-06 -3.05656e-06 0)
(1.73695e-06 -9.14204e-07 0)
(-1.28036e-06 2.19317e-06 0)
(-4.20822e-06 4.57357e-06 0)
(-4.98678e-06 4.58711e-06 0)
(-2.68214e-06 1.7687e-06 0)
(1.7085e-06 -2.60236e-06 0)
(5.6538e-06 -6.04292e-06 0)
(6.57644e-06 -6.29498e-06 0)
(3.53589e-06 -2.81467e-06 0)
(-1.98153e-06 2.68106e-06 0)
(-6.78675e-06 7.05198e-06 0)
(-7.86422e-06 7.56529e-06 0)
(-4.28587e-06 3.61907e-06 0)
(2.072e-06 -2.72753e-06 0)
(7.52246e-06 -7.84071e-06 0)
(8.74441e-06 -8.62558e-06 0)
(4.82851e-06 -4.42403e-06 0)
(-2.07604e-06 2.4868e-06 0)
(-7.96559e-06 8.14811e-06 0)
(-9.34313e-06 9.22671e-06 0)
(-5.32114e-06 5.00167e-06 0)
(1.81558e-06 -2.16365e-06 0)
(7.93683e-06 -8.17059e-06 0)
(9.4945e-06 -9.56355e-06 0)
(5.60182e-06 -5.54087e-06 0)
(-1.46668e-06 1.58797e-06 0)
(-7.63173e-06 7.7533e-06 0)
(-9.39677e-06 9.48096e-06 0)
(-5.84677e-06 5.866e-06 0)
(8.91471e-07 -9.63226e-07 0)
(6.94784e-06 -7.12137e-06 0)
(8.95652e-06 -9.20038e-06 0)
(5.93482e-06 -6.16542e-06 0)
(-2.60109e-07 1.48451e-07 0)
(-6.08758e-06 6.16049e-06 0)
(-8.36536e-06 8.5934e-06 0)
(-6.00718e-06 6.26197e-06 0)
(-5.10962e-07 6.27324e-07 0)
(4.99796e-06 -5.12484e-06 0)
(7.55248e-06 -7.89472e-06 0)
(5.93564e-06 -6.33595e-06 0)
(1.23031e-06 -1.48605e-06 0)
(-3.8964e-06 3.91536e-06 0)
(-6.70662e-06 6.97782e-06 0)
(-5.84316e-06 6.19985e-06 0)
(-1.9599e-06 2.18495e-06 0)
(2.74305e-06 -2.79329e-06 0)
(5.76071e-06 -6.0754e-06 0)
(5.60679e-06 -6.02945e-06 0)
(2.5286e-06 -2.84756e-06 0)
(-1.71708e-06 1.6509e-06 0)
(-4.85798e-06 5.05383e-06 0)
(-5.3135e-06 5.64339e-06 0)
(-2.98205e-06 3.25634e-06 0)
(7.79645e-07 -7.10826e-07 0)
(3.93501e-06 -4.1086e-06 0)
(4.86674e-06 -5.19685e-06 0)
(3.20468e-06 -3.53331e-06 0)
(-3.92808e-08 -1.38823e-07 0)
(-3.07556e-06 3.11842e-06 0)
(-4.3231e-06 4.55055e-06 0)
(-3.23701e-06 3.52852e-06 0)
(-5.37169e-07 7.46364e-07 0)
(2.24899e-06 -2.22886e-06 0)
(3.64879e-06 -3.8424e-06 0)
(3.02244e-06 -3.36746e-06 0)
(8.46461e-07 -1.22301e-06 0)
(-1.61523e-06 1.33849e-06 0)
(-3.0503e-06 2.96644e-06 0)
(-2.81378e-06 2.94581e-06 0)
(-1.22694e-06 1.54372e-06 0)
(7.80657e-07 -2.43237e-07 0)
(2.36247e-06 -1.39467e-06 0)
(2.34543e-06 -1.43149e-06 0)
(2.29383e-06 -2.2761e-06 0)
(-3.17594e-06 -4.41293e-07 0)
(-9.83573e-07 3.17621e-07 0)
(-2.1556e-06 -2.91867e-07 0)
(1.13469e-06 -2.56193e-06 0)
(3.71969e-06 -3.97097e-06 0)
(4.20163e-06 -3.54799e-06 0)
(2.066e-06 -1.03654e-06 0)
(-1.77857e-06 2.56692e-06 0)
(-5.14053e-06 5.24826e-06 0)
(-5.76515e-06 5.16227e-06 0)
(-2.85086e-06 1.92095e-06 0)
(2.21723e-06 -2.91029e-06 0)
(6.49602e-06 -6.56224e-06 0)
(7.2246e-06 -6.67554e-06 0)
(3.60963e-06 -2.83836e-06 0)
(-2.49136e-06 2.97503e-06 0)
(-7.53492e-06 7.42195e-06 0)
(-8.38512e-06 7.75101e-06 0)
(-4.28666e-06 3.52026e-06 0)
(2.54522e-06 -2.99856e-06 0)
(8.14017e-06 -8.05944e-06 0)
(9.12006e-06 -8.62764e-06 0)
(4.76123e-06 -4.22331e-06 0)
(-2.49611e-06 2.71666e-06 0)
(-8.44318e-06 8.21018e-06 0)
(-9.58321e-06 9.05293e-06 0)
(-5.21196e-06 4.70853e-06 0)
(2.15532e-06 -2.3567e-06 0)
(8.26229e-06 -8.10233e-06 0)
(9.60634e-06 -9.25539e-06 0)
(5.46692e-06 -5.19365e-06 0)
(-1.71815e-06 1.72687e-06 0)
(-7.81555e-06 7.56252e-06 0)
(-9.40494e-06 9.05809e-06 0)
(-5.70874e-06 5.47372e-06 0)
(1.04942e-06 -1.06549e-06 0)
(7.00507e-06 -6.85035e-06 0)
(8.88398e-06 -8.71094e-06 0)
(5.80587e-06 -5.75865e-06 0)
(-3.34432e-07 2.13653e-07 0)
(-6.04561e-06 5.83182e-06 0)
(-8.23938e-06 8.06072e-06 0)
(-5.89589e-06 5.84192e-06 0)
(-5.03894e-07 5.7001e-07 0)
(4.88728e-06 -4.78674e-06 0)
(7.39687e-06 -7.36298e-06 0)
(5.84287e-06 -5.92321e-06 0)
(1.2679e-06 -1.42988e-06 0)
(-3.74741e-06 3.58818e-06 0)
(-6.53858e-06 6.45956e-06 0)
(-5.76077e-06 5.78419e-06 0)
(-2.01359e-06 2.09764e-06 0)
(2.58629e-06 -2.51675e-06 0)
(5.59343e-06 -5.59986e-06 0)
(5.52332e-06 -5.62022e-06 0)
(2.57125e-06 -2.72246e-06 0)
(-1.57688e-06 1.43453e-06 0)
(-4.69777e-06 4.62074e-06 0)
(-5.21495e-06 5.22619e-06 0)
(-2.99055e-06 3.07066e-06 0)
(6.7255e-07 -5.75929e-07 0)
(3.78251e-06 -3.73126e-06 0)
(4.74042e-06 -4.77799e-06 0)
(3.16356e-06 -3.2921e-06 0)
(2.68794e-08 -2.0133e-07 0)
(-2.92735e-06 2.7832e-06 0)
(-4.15733e-06 4.11538e-06 0)
(-3.13246e-06 3.22095e-06 0)
(-5.53118e-07 7.32397e-07 0)
(2.10135e-06 -1.93206e-06 0)
(3.41723e-06 -3.37999e-06 0)
(2.80234e-06 -2.97855e-06 0)
(7.49624e-07 -1.12059e-06 0)
(-1.50262e-06 1.08687e-06 0)
(-2.70967e-06 2.50606e-06 0)
(-2.30504e-06 2.58659e-06 0)
(-6.39405e-07 1.51922e-06 0)
(1.36641e-06 -6.08031e-08 0)
(1.03621e-06 -8.51555e-07 0)
(1.95279e-06 -1.38826e-08 0)
(-4.23833e-06 4.42641e-06 0)
(-3.64255e-06 1.03835e-06 0)
(-3.34716e-06 1.48266e-06 0)
(-8.61102e-07 -1.75855e-09 0)
(2.30301e-06 -2.53423e-06 0)
(4.69967e-06 -4.44531e-06 0)
(4.83546e-06 -4.13459e-06 0)
(2.0835e-06 -1.23261e-06 0)
(-2.37721e-06 2.9215e-06 0)
(-5.99175e-06 5.91816e-06 0)
(-6.35152e-06 5.72844e-06 0)
(-2.83184e-06 2.06168e-06 0)
(2.79087e-06 -3.23202e-06 0)
(7.22858e-06 -7.10482e-06 0)
(7.64254e-06 -7.09305e-06 0)
(3.4662e-06 -2.90133e-06 0)
(-3.07147e-06 3.25359e-06 0)
(-8.15624e-06 7.82416e-06 0)
(-8.65063e-06 8.01542e-06 0)
(-4.05311e-06 3.51089e-06 0)
(3.09027e-06 -3.22444e-06 0)
(8.62046e-06 -8.3176e-06 0)
(9.2271e-06 -8.74755e-06 0)
(4.45128e-06 -4.16033e-06 0)
(-2.99069e-06 2.87091e-06 0)
(-8.78448e-06 8.31454e-06 0)
(-9.55742e-06 9.02883e-06 0)
(-4.86258e-06 4.59363e-06 0)
(2.57262e-06 -2.4483e-06 0)
(8.46299e-06 -8.07766e-06 0)
(9.46831e-06 -9.12112e-06 0)
(5.10236e-06 -5.05529e-06 0)
(-2.05134e-06 1.74485e-06 0)
(-7.89425e-06 7.41574e-06 0)
(-9.18794e-06 8.82585e-06 0)
(-5.35462e-06 5.31189e-06 0)
(1.29786e-06 -1.03186e-06 0)
(6.98597e-06 -6.62002e-06 0)
(8.61926e-06 -8.41826e-06 0)
(5.47802e-06 -5.5921e-06 0)
(-5.09392e-07 1.34278e-07 0)
(-5.95976e-06 5.53801e-06 0)
(-7.95675e-06 7.72175e-06 0)
(-5.60245e-06 5.66212e-06 0)
(-3.83392e-07 6.61789e-07 0)
(4.76791e-06 -4.47363e-06 0)
(7.12157e-06 -7.01202e-06 0)
(5.58523e-06 -5.74077e-06 0)
(1.18038e-06 -1.52269e-06 0)
(-3.62238e-06 3.27362e-06 0)
(-6.28461e-06 6.10215e-06 0)
(-5.52905e-06 5.58238e-06 0)
(-1.93187e-06 2.15742e-06 0)
(2.482e-06 -2.23653e-06 0)
(5.36984e-06 -5.25795e-06 0)
(5.30522e-06 -5.4017e-06 0)
(2.47209e-06 -2.73942e-06 0)
(-1.5109e-06 1.19722e-06 0)
(-4.50535e-06 4.29078e-06 0)
(-4.99585e-06 4.97341e-06 0)
(-2.85553e-06 3.0205e-06 0)
(6.54575e-07 -4.02572e-07 0)
(3.61744e-06 -3.42501e-06 0)
(4.50812e-06 -4.49485e-06 0)
(2.98174e-06 -3.17698e-06 0)
(-5.44898e-09 -3.17282e-07 0)
(-2.78179e-06 2.48758e-06 0)
(-3.89661e-06 3.7842e-06 0)
(-2.88689e-06 3.0237e-06 0)
(-4.60734e-07 7.80943e-07 0)
(1.96532e-06 -1.64299e-06 0)
(3.09065e-06 -2.97834e-06 0)
(2.44213e-06 -2.65871e-06 0)
(5.83155e-07 -1.04413e-06 0)
(-1.2781e-06 8.86641e-07 0)
(-2.05073e-06 2.13496e-06 0)
(-1.42899e-06 2.12812e-06 0)
(-2.32985e-08 9.16041e-07 0)
(-5.60474e-07 -9.61392e-08 0)
(6.55709e-07 1.90784e-06 0)
(-2.73015e-06 7.16855e-06 0)
(-4.55598e-06 1.1446e-06 0)
(-2.86942e-06 2.66824e-06 0)
(-2.81007e-06 3.07946e-06 0)
(-7.48947e-07 7.66259e-07 0)
(2.56764e-06 -2.72747e-06 0)
(5.26048e-06 -5.13267e-06 0)
(5.26924e-06 -4.7225e-06 0)
(2.00871e-06 -1.34697e-06 0)
(-2.95642e-06 3.29619e-06 0)
(-6.707e-06 6.4961e-06 0)
(-6.74806e-06 6.13099e-06 0)
(-2.68183e-06 2.05734e-06 0)
(3.34903e-06 -3.59806e-06 0)
(7.8009e-06 -7.56501e-06 0)
(7.85116e-06 -7.34766e-06 0)
(3.19576e-06 -2.81339e-06 0)
(-3.61284e-06 3.58519e-06 0)
(-8.59252e-06 8.15178e-06 0)
(-8.69737e-06 8.12071e-06 0)
(-3.70319e-06 3.34824e-06 0)
(3.5752e-06 -3.51264e-06 0)
(8.89937e-06 -8.51544e-06 0)
(9.11458e-06 -8.72235e-06 0)
(4.0378e-06 -3.9507e-06 0)
(-3.41067e-06 3.09319e-06 0)
(-8.92044e-06 8.37549e-06 0)
(-9.32133e-06 8.87942e-06 0)
(-4.42353e-06 4.34318e-06 0)
(2.90974e-06 -2.61337e-06 0)
(8.46758e-06 -8.02983e-06 0)
(9.13867e-06 -8.8853e-06 0)
(4.66259e-06 -4.79407e-06 0)
(-2.30573e-06 1.84358e-06 0)
(-7.79443e-06 7.27028e-06 0)
(-8.80108e-06 8.52027e-06 0)
(-4.93495e-06 5.04286e-06 0)
(1.47869e-06 -1.08504e-06 0)
(6.81477e-06 -6.41509e-06 0)
(8.20953e-06 -8.08e-06 0)
(5.09112e-06 -5.33342e-06 0)
(-6.33653e-07 1.47942e-07 0)
(-5.75161e-06 5.29305e-06 0)
(-7.55231e-06 7.36402e-06 0)
(-5.25102e-06 5.40524e-06 0)
(-2.91262e-07 6.56322e-07 0)
(4.5581e-06 -4.22897e-06 0)
(6.74597e-06 -6.66508e-06 0)
(5.2678e-06 -5.49437e-06 0)
(1.09811e-06 -1.51538e-06 0)
(-3.43611e-06 3.0434e-06 0)
(-5.94743e-06 5.76823e-06 0)
(-5.23281e-06 5.3297e-06 0)
(-1.83324e-06 2.11852e-06 0)
(2.34147e-06 -2.04957e-06 0)
(5.07577e-06 -4.95288e-06 0)
(5.01686e-06 -5.14334e-06 0)
(2.33719e-06 -2.66199e-06 0)
(-1.42823e-06 1.05649e-06 0)
(-4.25161e-06 4.00646e-06 0)
(-4.7015e-06 4.69124e-06 0)
(-2.6702e-06 2.88398e-06 0)
(6.35015e-07 -3.23248e-07 0)
(3.39862e-06 -3.16827e-06 0)
(4.19738e-06 -4.19082e-06 0)
(2.73836e-06 -2.98463e-06 0)
(-4.83312e-08 -3.44751e-07 0)
(-2.5873e-06 2.2416e-06 0)
(-3.55077e-06 3.43673e-06 0)
(-2.56548e-06 2.75482e-06 0)
(-3.461e-07 7.44456e-07 0)
(1.78424e-06 -1.40236e-06 0)
(2.68972e-06 -2.55735e-06 0)
(2.06062e-06 -2.25577e-06 0)
(5.20178e-07 -8.67576e-07 0)
(-8.61129e-07 6.98962e-07 0)
(-1.35671e-06 1.5127e-06 0)
(-1.06523e-06 1.13167e-06 0)
(-1.52965e-06 3.95483e-07 0)
(-7.44132e-07 2.45716e-06 0)
(7.33447e-07 5.52195e-06 0)
(-2.70399e-06 2.98904e-07 0)
(-6.60423e-07 2.31756e-06 0)
(-3.48545e-06 4.72076e-06 0)
(-3.84609e-06 4.04482e-06 0)
(-1.29799e-06 8.07816e-07 0)
(2.80118e-06 -3.2233e-06 0)
(5.84636e-06 -5.77026e-06 0)
(5.62807e-06 -5.13552e-06 0)
(1.84239e-06 -1.34143e-06 0)
(-3.52499e-06 3.64824e-06 0)
(-7.27981e-06 6.91815e-06 0)
(-6.94725e-06 6.33365e-06 0)
(-2.40141e-06 1.92705e-06 0)
(3.88842e-06 -3.93857e-06 0)
(8.21623e-06 -7.85925e-06 0)
(7.86167e-06 -7.39214e-06 0)
(2.80849e-06 -2.59669e-06 0)
(-4.11839e-06 3.885e-06 0)
(-8.86398e-06 8.30331e-06 0)
(-8.55325e-06 8.00863e-06 0)
(-3.25353e-06 3.05511e-06 0)
(4.01023e-06 -3.76819e-06 0)
(9.01356e-06 -8.53836e-06 0)
(8.82623e-06 -8.48425e-06 0)
(3.54386e-06 -3.61456e-06 0)
(-3.77177e-06 3.28495e-06 0)
(-8.90032e-06 8.27155e-06 0)
(-8.92985e-06 8.53005e-06 0)
(-3.92086e-06 3.97284e-06 0)
(3.18851e-06 -2.7542e-06 0)
(8.33591e-06 -7.83442e-06 0)
(8.68072e-06 -8.46726e-06 0)
(4.17566e-06 -4.4183e-06 0)
(-2.50727e-06 1.93123e-06 0)
(-7.58238e-06 7.00304e-06 0)
(-8.31229e-06 8.05594e-06 0)
(-4.47874e-06 4.66557e-06 0)
(1.61952e-06 -1.1429e-06 0)
(6.55977e-06 -6.1173e-06 0)
(7.72365e-06 -7.60742e-06 0)
(4.6744e-06 -4.97104e-06 0)
(-7.34006e-07 1.84914e-07 0)
(-5.48747e-06 4.98616e-06 0)
(-7.09292e-06 6.89679e-06 0)
(-4.871e-06 5.04893e-06 0)
(-2.04197e-07 6.0945e-07 0)
(4.31858e-06 -3.95119e-06 0)
(6.33264e-06 -6.23066e-06 0)
(4.92028e-06 -5.15113e-06 0)
(1.00342e-06 -1.44928e-06 0)
(-3.2413e-06 2.80647e-06 0)
(-5.58418e-06 5.3671e-06 0)
(-4.90291e-06 4.984e-06 0)
(-1.70777e-06 2.00812e-06 0)
(2.20728e-06 -1.87618e-06 0)
(4.76204e-06 -4.59659e-06 0)
(4.69053e-06 -4.79577e-06 0)
(2.16512e-06 -2.50434e-06 0)
(-1.36087e-06 9.44498e-07 0)
(-3.98084e-06 3.68431e-06 0)
(-4.36535e-06 4.3255e-06 0)
(-2.44102e-06 2.66377e-06 0)
(6.35954e-07 -2.82236e-07 0)
(3.16382e-06 -2.88401e-06 0)
(3.84194e-06 -3.80909e-06 0)
(2.44703e-06 -2.7074e-06 0)
(-1.13194e-07 -3.26724e-07 0)
(-2.37358e-06 1.97686e-06 0)
(-3.15447e-06 3.01645e-06 0)
(-2.19299e-06 2.39854e-06 0)
(-2.08731e-07 6.52823e-07 0)
(1.59786e-06 -1.15724e-06 0)
(2.29128e-06 -2.08412e-06 0)
(1.71898e-06 -1.81146e-06 0)
(4.72748e-07 -7.52002e-07 0)
(-6.72696e-07 2.94184e-07 0)
(-1.36122e-06 6.9865e-07 0)
(-1.4984e-06 4.68799e-07 0)
(-1.47396e-06 1.57968e-06 0)
(4.09907e-06 1.23095e-07 0)
(1.13693e-06 -1.10205e-06 0)
(2.23824e-06 4.31261e-07 0)
(-2.29148e-06 3.68242e-06 0)
(-5.16478e-06 5.20765e-06 0)
(-4.82601e-06 4.0921e-06 0)
(-1.36783e-06 5.84625e-07 0)
(3.32355e-06 -3.65657e-06 0)
(6.41649e-06 -6.2093e-06 0)
(5.81228e-06 -5.33585e-06 0)
(1.53936e-06 -1.21324e-06 0)
(-4.07481e-06 3.9703e-06 0)
(-7.68333e-06 7.17634e-06 0)
(-6.93034e-06 6.33539e-06 0)
(-1.98952e-06 1.6794e-06 0)
(4.39571e-06 -4.24125e-06 0)
(8.45641e-06 -7.98255e-06 0)
(7.66079e-06 -7.23586e-06 0)
(2.30136e-06 -2.27089e-06 0)
(-4.5816e-06 4.13688e-06 0)
(-8.95954e-06 8.28016e-06 0)
(-8.20821e-06 7.70126e-06 0)
(-2.69822e-06 2.66224e-06 0)
(4.39679e-06 -3.97192e-06 0)
(8.96084e-06 -8.39372e-06 0)
(8.3569e-06 -8.0655e-06 0)
(2.96182e-06 -3.19022e-06 0)
(-4.08222e-06 3.42648e-06 0)
(-8.72909e-06 8.01615e-06 0)
(-8.38048e-06 8.02135e-06 0)
(-3.34339e-06 3.52663e-06 0)
(3.42463e-06 -2.85067e-06 0)
(8.07966e-06 -7.5087e-06 0)
(8.09395e-06 -7.91246e-06 0)
(3.62682e-06 -3.97491e-06 0)
(-2.67815e-06 1.98748e-06 0)
(-7.27508e-06 6.63271e-06 0)
(-7.72229e-06 7.47963e-06 0)
(-3.9684e-06 4.22735e-06 0)
(1.74709e-06 -1.1851e-06 0)
(6.24121e-06 -5.74463e-06 0)
(7.1627e-06 -7.04575e-06 0)
(4.20825e-06 -4.55104e-06 0)
(-8.39722e-07 2.24265e-07 0)
(-5.18895e-06 4.63232e-06 0)
(-6.57953e-06 6.36127e-06 0)
(-4.44198e-06 4.63685e-06 0)
(-9.2545e-08 5.43483e-07 0)
(4.07064e-06 -3.65027e-06 0)
(5.88215e-06 -5.74406e-06 0)
(4.52267e-06 -4.75165e-06 0)
(8.68012e-07 -1.34878e-06 0)
(-3.05796e-06 2.56639e-06 0)
(-5.1956e-06 4.92696e-06 0)
(-4.52153e-06 4.58246e-06 0)
(-1.53038e-06 1.85307e-06 0)
(2.09728e-06 -1.71294e-06 0)
(4.42999e-06 -4.20991e-06 0)
(4.31187e-06 -4.39273e-06 0)
(1.93519e-06 -2.29573e-06 0)
(-1.32405e-06 8.51206e-07 0)
(-3.69519e-06 3.33832e-06 0)
(-3.97679e-06 3.9068e-06 0)
(-2.15172e-06 2.39128e-06 0)
(6.70015e-07 -2.63523e-07 0)
(2.91605e-06 -2.57993e-06 0)
(3.43557e-06 -3.37723e-06 0)
(2.09775e-06 -2.37853e-06 0)
(-2.08049e-07 -2.84676e-07 0)
(-2.145e-06 1.69588e-06 0)
(-2.71038e-06 2.55041e-06 0)
(-1.77007e-06 1.99348e-06 0)
(-4.19775e-08 5.31939e-07 0)
(1.41678e-06 -9.24845e-07 0)
(1.87096e-06 -1.64534e-06 0)
(1.27482e-06 -1.46465e-06 0)
(1.27693e-07 -7.33412e-07 0)
(-9.85522e-07 4.8009e-08 0)
(-7.50949e-07 2.62501e-07 0)
(-1.29186e-06 8.06473e-08 0)
(5.20374e-06 -5.67553e-06 0)
(4.71077e-06 -2.08897e-06 0)
(4.21427e-06 -1.91448e-06 0)
(2.62356e-07 4.0057e-07 0)
(-3.81831e-06 3.40014e-06 0)
(-6.00869e-06 5.11624e-06 0)
(-4.99376e-06 4.06147e-06 0)
(-9.84271e-07 3.93269e-07 0)
(3.92092e-06 -3.97049e-06 0)
(6.81794e-06 -6.43119e-06 0)
(5.76526e-06 -5.30215e-06 0)
(1.09771e-06 -9.57607e-07 0)
(-4.59097e-06 4.23966e-06 0)
(-7.90546e-06 7.23314e-06 0)
(-6.69462e-06 6.1078e-06 0)
(-1.45266e-06 1.3121e-06 0)
(4.86001e-06 -4.48298e-06 0)
(8.51344e-06 -7.90234e-06 0)
(7.24898e-06 -6.85642e-06 0)
(1.68303e-06 -1.83464e-06 0)
(-4.99187e-06 4.32426e-06 0)
(-8.87451e-06 8.06055e-06 0)
(-7.66694e-06 7.18452e-06 0)
(-2.04765e-06 2.16879e-06 0)
(4.72699e-06 -4.11489e-06 0)
(8.74236e-06 -8.07045e-06 0)
(7.71666e-06 -7.45881e-06 0)
(2.30388e-06 -2.67515e-06 0)
(-4.33638e-06 3.518e-06 0)
(-8.41196e-06 7.6093e-06 0)
(-7.68601e-06 7.35232e-06 0)
(-2.70288e-06 3.00014e-06 0)
(3.61536e-06 -2.91125e-06 0)
(7.70689e-06 -7.06187e-06 0)
(7.39177e-06 -7.22469e-06 0)
(3.02589e-06 -3.45771e-06 0)
(-2.81849e-06 2.02719e-06 0)
(-6.88223e-06 6.17504e-06 0)
(-7.04381e-06 6.79799e-06 0)
(-3.41152e-06 3.72016e-06 0)
(1.86337e-06 -1.23109e-06 0)
(5.86869e-06 -5.31706e-06 0)
(6.53739e-06 -6.40331e-06 0)
(3.69795e-06 -4.06439e-06 0)
(-9.53414e-07 2.87658e-07 0)
(-4.8639e-06 4.25335e-06 0)
(-6.01985e-06 5.76666e-06 0)
(-3.96717e-06 4.16031e-06 0)
(4.5718e-08 4.37088e-07 0)
(3.81906e-06 -3.3477e-06 0)