/*--------------------------------*- C++ -*----------------------------------*\
| =========                 |                                                 |
| \\      /  F ield         | OpenFOAM: The Open Source CFD Toolbox           |
|  \\    /   O peration     | Version:  2412                                  |
|   \\  /    A nd           | Website:  www.openfoam.com                      |
|    \\/     M anipulation  |                                                 |
\*---------------------------------------------------------------------------*/
FoamFile
{
    version     2.0;
    format      ascii;
    arch        "LSB;label=32;scalar=64";
    class       surfaceScalarField;
    location    "5.4";
    object      phi;
}
// * * * * * * * * * * * * * * * * * * * * * * * * * * * * * * * * * * * * * //

dimensions      [0 3 -1 0 0 0 0];

oriented        oriented;

internalField   nonuniform List<scalar> 
12640
(
-2.06582e-08
1.74397e-08
-3.69275e-08
6.19842e-08
-2.21137e-08
7.77558e-08
2.57248e-08
3.03043e-08
7.81053e-08
-6.86871e-08
8.957e-08
-1.58834e-07
3.6188e-08
-1.67913e-07
-6.03895e-08
-6.49866e-08
-1.40167e-07
1.06725e-07
-1.42628e-07
2.45939e-07
-5.0921e-08
2.54393e-07
8.91922e-08
1.05333e-07
1.92376e-07
-1.28188e-07
1.87043e-07
-3.09489e-07
6.48202e-08
-3.20783e-07
-1.08037e-07
-1.40716e-07
-2.27761e-07
1.34676e-07
-2.17142e-07
3.44823e-07
-7.59588e-08
3.61087e-07
1.15524e-07
1.67215e-07
2.43762e-07
-1.2745e-07
2.31085e-07
-3.51686e-07
8.36242e-08
-3.74603e-07
-1.12015e-07
-1.8371e-07
-2.41153e-07
1.08585e-07
-2.29861e-07
3.3306e-07
-8.79799e-08
3.63909e-07
9.90316e-08
1.90413e-07
2.22825e-07
-8.13693e-08
2.1616e-07
-2.94799e-07
8.96722e-08
-3.34579e-07
-7.87709e-08
-1.89451e-07
-1.92859e-07
4.8545e-08
-1.93679e-07
2.4313e-07
-8.97835e-08
2.92791e-07
5.35174e-08
1.83324e-07
1.55645e-07
-1.28655e-08
1.66377e-07
-1.8462e-07
8.95971e-08
-2.45346e-07
-2.52773e-08
-1.75497e-07
-1.15164e-07
-2.4319e-08
-1.37836e-07
1.24118e-07
-9.03134e-08
1.97459e-07
-4.294e-09
1.68545e-07
7.47311e-08
6.1759e-08
1.11025e-07
-6.55912e-08
9.29993e-08
-1.53341e-07
3.41488e-08
-1.6473e-07
-3.64254e-08
-9.91124e-08
-8.74997e-08
1.09276e-08
-9.76975e-08
1.14601e-07
-6.29348e-08
1.64092e-07
1.9698e-09
1.3491e-07
6.82097e-08
3.80889e-08
1.04125e-07
-8.19838e-08
8.9659e-08
-1.65871e-07
2.80265e-08
-1.67688e-07
-5.25277e-08
-8.0801e-08
-1.10452e-07
5.42247e-08
-1.12239e-07
1.67062e-07
-5.24701e-08
1.94193e-07
3.98926e-08
1.15601e-07
1.14893e-07
-3.02904e-08
1.28989e-07
-1.64662e-07
7.11569e-08
-2.1149e-07
-2.85233e-08
-1.41753e-07
-1.14488e-07
7.92007e-09
-1.37456e-07
1.54616e-07
-8.36545e-08
2.16273e-07
1.65686e-08
1.58859e-07
1.06525e-07
1.54405e-08
1.3676e-07
-1.34058e-07
9.36497e-08
-2.09351e-07
5.18617e-09
-1.73956e-07
-7.92044e-08
-5.14007e-08
-1.20648e-07
9.31975e-08
-1.12653e-07
1.90959e-07
-7.48948e-08
2.04983e-07
-3.0422e-08
1.44263e-07
4.0668e-08
9.03587e-09
-1.95895e-08
-4.06205e-08
3.13133e-08
-7.55879e-08
9.43696e-08
-5.50755e-08
1.02589e-07
2.62102e-08
2.77725e-08
1.16474e-07
-9.88984e-08
1.45157e-07
-1.96879e-07
7.46857e-08
-1.8594e-07
-6.51659e-08
-4.68437e-08
-1.88446e-07
1.52348e-07
-2.06894e-07
2.89399e-07
-9.22692e-08
2.64559e-07
9.66719e-08
7.16137e-08
2.44945e-07
-1.86827e-07
2.53274e-07
-3.55591e-07
1.04992e-07
-3.22818e-07
-1.17472e-07
-9.46369e-08
-2.80102e-07
2.01486e-07
-2.80288e-07
3.90392e-07
-1.12591e-07
3.55743e-07
1.25406e-07
1.12963e-07
2.91831e-07
-1.97753e-07
2.87275e-07
-3.94919e-07
1.1525e-07
-3.64424e-07
-1.20961e-07
-1.26803e-07
-2.8209e-07
1.77161e-07
-2.76822e-07
3.72022e-07
-1.14247e-07
3.51053e-07
1.05626e-07
1.35299e-07
2.54733e-07
-1.446e-07
2.52879e-07
-3.29082e-07
1.10935e-07
-3.22039e-07
-8.18775e-08
-1.40595e-07
-2.14905e-07
1.03141e-07
-2.2034e-07
2.72258e-07
-1.07081e-07
2.82623e-07
5.21219e-08
1.43507e-07
1.67731e-07
-5.73299e-08
1.84003e-07
-2.09296e-07
1.04423e-07
-2.39834e-07
-1.8447e-08
-1.47044e-07
-1.17569e-07
8.95758e-09
-1.47716e-07
1.4478e-07
-1.04035e-07
1.97672e-07
-1.69959e-08
1.51968e-07
6.83395e-08
3.90085e-08
1.14856e-07
-8.37126e-08
1.07067e-07
-1.60577e-07
5.30458e-08
-1.60329e-07
-2.21197e-08
-8.61988e-08
-8.65892e-08
2.73487e-08
-1.12749e-07
1.28805e-07
-8.73667e-08
1.70487e-07
-1.85921e-08
1.29687e-07
6.41724e-08
2.16668e-08
1.20674e-07
-1.0341e-07
1.18736e-07
-1.81837e-07
5.32758e-08
-1.68497e-07
-4.63039e-08
-6.37435e-08
-1.27828e-07
8.16289e-08
-1.43773e-07
1.89882e-07
-7.99112e-08
1.98326e-07
3.27178e-08
9.679e-08
1.32231e-07
-6.26274e-08
1.60578e-07
-1.92049e-07
9.85735e-08
-2.17286e-07
-2.06435e-08
-1.21715e-07
-1.29511e-07
4.23696e-08
-1.65588e-07
1.82996e-07
-1.08804e-07
2.21625e-07
6.97133e-09
1.38321e-07
1.1542e-07
-1.80541e-08
1.58441e-07
-1.60022e-07
1.19288e-07
-2.12585e-07
2.65904e-08
-1.54087e-07
-7.10251e-08
-2.40766e-08
-1.38009e-07
1.04491e-07
-1.56554e-07
1.70584e-07
-1.30248e-07
1.59939e-07
8.34719e-08
7.30615e-08
-5.1704e-08
1.89901e-08
-3.54611e-08
-7.3246e-08
4.48059e-08
-1.35402e-07
1.26478e-07
-1.03155e-07
1.42633e-07
2.01681e-08
5.80329e-08
1.61611e-07
-9.36851e-08
2.20758e-07
-2.19508e-07
1.39278e-07
-2.2512e-07
-5.0446e-08
-8.35684e-08
-2.35848e-07
1.34965e-07
-2.92838e-07
2.98281e-07
-1.69539e-07
2.9434e-07
7.20101e-08
1.08061e-07
2.87805e-07
-1.60001e-07
3.4043e-07
-3.49793e-07
1.88121e-07
-3.4016e-07
-8.42445e-08
-1.27355e-07
-3.1431e-07
1.67798e-07
-3.61801e-07
3.70871e-07
-1.95803e-07
3.59715e-07
8.54847e-08
1.39373e-07
3.14855e-07
-1.60655e-07
3.57998e-07
-3.648e-07
1.93637e-07
-3.56607e-07
-7.67154e-08
-1.46273e-07
-2.93092e-07
1.39166e-07
-3.33728e-07
3.34403e-07
-1.84451e-07
3.33443e-07
5.91375e-08
1.47524e-07
2.53893e-07
-1.08356e-07
2.94635e-07
-2.87779e-07
1.71039e-07
-2.97839e-07
-3.479e-08
-1.4674e-07
-2.03142e-07
6.98474e-08
-2.47086e-07
2.29927e-07
-1.56582e-07
2.54354e-07
5.41636e-09
1.44561e-07
1.46306e-07
-2.8014e-08
1.96963e-07
-1.68393e-07
1.44055e-07
-2.1015e-07
2.77352e-08
-1.44699e-07
-8.75461e-08
-1.66125e-08
-1.48417e-07
1.06209e-07
-1.34984e-07
1.67769e-07
-6.27691e-08
1.46883e-07
3.08563e-08
6.05812e-08
1.05141e-07
-4.84472e-08
1.30881e-07
-1.31619e-07
9.88104e-08
-1.53369e-07
2.19292e-08
-1.0417e-07
-6.79607e-08
-4.73226e-09
-1.30436e-07
1.00587e-07
-1.32851e-07
1.61118e-07
-6.77393e-08
1.43252e-07
3.83549e-08
4.98057e-08
1.33039e-07
-7.62936e-08
1.63241e-07
-1.6991e-07
1.05805e-07
-1.77234e-07
-1.47287e-08
-8.77256e-08
-1.34765e-07
5.51851e-08
-1.85378e-07
1.74224e-07
-1.33101e-07
2.00656e-07
-2.82921e-09
1.15249e-07
1.33306e-07
-3.74665e-08
1.96779e-07
-1.72376e-07
1.49506e-07
-2.12405e-07
1.76653e-08
-1.34021e-07
-1.23173e-07
1.8318e-08
-1.93039e-07
1.58121e-07
-1.54763e-07
2.07714e-07
-3.39055e-08
1.42914e-07
9.9919e-08
4.72598e-09
1.75974e-07
-1.2787e-07
1.60153e-07
-1.85775e-07
6.50255e-08
-1.48126e-07
-6.61311e-08
-4.7884e-08
-1.66111e-07
5.83366e-08
-1.8265e-07
1.2529e-07
1.05719e-07
1.15226e-07
-4.89922e-08
1.02185e-07
-9.5051e-08
5.24068e-09
-5.88365e-08
-1.26273e-07
5.29106e-08
-1.96667e-07
1.73617e-07
-1.37906e-07
2.08344e-07
3.5978e-08
1.05634e-07
2.22774e-07
-9.41134e-08
2.92563e-07
-2.72254e-07
1.77739e-07
-3.04536e-07
-7.06868e-08
-1.47244e-07
-3.0456e-07
1.22562e-07
-3.69673e-07
3.4527e-07
-2.08658e-07
3.76118e-07
9.37721e-08
1.80561e-07
3.56964e-07
-1.35916e-07
4.15569e-07
-3.86709e-07
2.25393e-07
-4.17464e-07
-1.04956e-07
-2.03069e-07
-3.78496e-07
1.3372e-07
-4.30566e-07
3.95005e-07
-2.29942e-07
4.27138e-07
1.02767e-07
2.12953e-07
3.69948e-07
-1.19535e-07
4.17166e-07
-3.75835e-07
2.23969e-07
-4.11344e-07
-8.88734e-08
-2.14205e-07
-3.36609e-07
9.34471e-08
-3.81753e-07
3.32734e-07
-2.11104e-07
3.73912e-07
6.49121e-08
2.07111e-07
2.84644e-07
-6.07341e-08
3.31285e-07
-2.75213e-07
1.94711e-07
-3.24564e-07
-3.33491e-08
-1.97317e-07
-2.21e-07
2.17208e-08
-2.73132e-07
2.0796e-07
-1.78327e-07
2.68281e-07
-3.65521e-09
1.8606e-07
1.52004e-07
1.94295e-08
2.13942e-07
-1.38989e-07
1.65228e-07
-2.13314e-07
4.46599e-08
-1.78449e-07
-8.22018e-08
-6.35175e-08
-1.58064e-07
7.03057e-08
-1.56743e-07
1.61518e-07
-8.72888e-08
1.73735e-07
1.60366e-08
1.06672e-07
1.09319e-07
-7.42584e-09
1.54148e-07
-1.17775e-07
1.30292e-07
-1.74682e-07
4.4506e-08
-1.49768e-07
-6.82127e-08
-5.02867e-08
-1.55383e-07
7.98872e-08
-1.69828e-07
1.76913e-07
-9.58726e-08
1.87296e-07
3.6105e-08
9.81843e-08
1.59239e-07
-5.01109e-08
2.03603e-07
-1.80366e-07
1.37098e-07
-2.1863e-07
-1.09187e-08
-1.37421e-07
-1.60831e-07
2.41316e-08
-2.26099e-07
1.78173e-07
-1.64804e-07
2.36679e-07
-7.60904e-09
1.63303e-07
1.57142e-07
-3.0749e-09
2.34406e-07
-1.69012e-07
1.79161e-07
-2.40428e-07
2.36926e-08
-1.7775e-07
-1.41961e-07
-1.8666e-08
-2.24141e-07
1.45272e-07
-1.80243e-07
2.23398e-07
-4.05003e-08
1.77982e-07
1.13819e-07
4.23021e-08
1.98254e-07
-1.04193e-07
1.68949e-07
-1.85105e-07
4.14828e-08
-1.67727e-07
-1.01664e-07
-7.07379e-08
-1.64029e-07
5.01964e-08
9.60689e-08
8.73555e-08
1.96874e-09
1.43745e-07
-9.24947e-08
1.16651e-07
-1.49818e-07
-1.00051e-08
-9.35946e-08
-1.70335e-07
6.35434e-08
-2.48993e-07
2.24571e-07
-1.674e-07
2.7001e-07
4.81363e-08
1.41485e-07
2.6927e-07
-1.06153e-07
3.44575e-07
-3.26468e-07
2.03817e-07
-3.70425e-07
-8.47225e-08
-1.87491e-07
-3.47711e-07
1.30113e-07
-4.14178e-07
3.95015e-07
-2.28263e-07
4.38758e-07
1.07945e-07
2.20835e-07
3.92727e-07
-1.38918e-07
4.49335e-07
-4.28632e-07
2.37816e-07
-4.72872e-07
-1.17817e-07
-2.41192e-07
-4.04954e-07
1.3162e-07
-4.52793e-07
4.26585e-07
-2.35879e-07
4.72452e-07
1.13005e-07
2.47088e-07
3.86453e-07
-1.12731e-07
4.28475e-07
-3.96518e-07
2.24784e-07
-4.45848e-07
-9.55909e-08
-2.43969e-07
-3.43642e-07
8.19932e-08
-3.8388e-07
3.42499e-07
-2.08667e-07
3.97624e-07
6.74344e-08
2.3236e-07
2.83312e-07
-4.52667e-08
3.26514e-07
-2.75292e-07
1.91057e-07
-3.38959e-07
-3.11912e-08
-2.19094e-07
-2.12682e-07
2.203e-09
-2.63819e-07
1.9934e-07
-1.75305e-07
2.74731e-07
-1.07056e-08
2.05164e-07
1.38184e-07
4.25494e-08
2.02271e-07
-1.2332e-07
1.64339e-07
-2.13899e-07
5.65539e-08
-1.96356e-07
-6.43046e-08
-9.04567e-08
-1.45788e-07
4.84879e-08
-1.58879e-07
1.57413e-07
-1.03522e-07
1.90904e-07
-4.48176e-09
1.36681e-07
9.77632e-08
1.89142e-08
1.59544e-07
-1.10565e-07
1.49849e-07
-1.91777e-07
6.61253e-08
-1.82374e-07
-5.82503e-08
-8.01478e-08
-1.63526e-07
7.00572e-08
-1.91026e-07
1.93159e-07
-1.16836e-07
2.20578e-07
2.8322e-08
1.29477e-07
1.69007e-07
-3.8697e-08
2.24222e-07
-1.95122e-07
1.555e-07
-2.50745e-07
-5.59391e-09
-1.68462e-07
-1.70578e-07
1.12543e-08
-2.43546e-07
1.89493e-07
-1.78759e-07
2.64428e-07
-1.0522e-08
1.91328e-07
1.64943e-07
1.04681e-08
2.4615e-07
-1.75332e-07
1.87086e-07
-2.60905e-07
2.42751e-08
-2.00368e-07
-1.4645e-07
-3.26176e-08
-2.28163e-07
1.4416e-07
-1.79383e-07
2.32073e-07
-3.53134e-08
1.89695e-07
1.15938e-07
5.14043e-08
1.8549e-07
-9.85389e-08
1.35422e-07
-1.77047e-07
1.42794e-08
-1.46262e-07
-7.80002e-08
-3.60047e-08
5.00405e-08
-1.59155e-08
7.28281e-08
9.2419e-08
-1.38231e-08
1.77545e-07
-1.52063e-07
1.48638e-07
-2.11292e-07
-1.32265e-08
-1.26889e-07
-2.11286e-07
7.20038e-08
-3.03245e-07
2.68346e-07
-2.02237e-07
3.24242e-07
5.2384e-08
1.76182e-07
3.08241e-07
-1.09017e-07
3.9426e-07
-3.63108e-07
2.36191e-07
-4.18723e-07
-8.52894e-08
-2.20872e-07
-3.77055e-07
1.27517e-07
-4.53189e-07
4.20874e-07
-2.55519e-07
4.76116e-07
1.04228e-07
2.49243e-07
4.10164e-07
-1.32101e-07
4.7549e-07
-4.43098e-07
2.58834e-07
-4.98056e-07
-1.09964e-07
-2.63696e-07
-4.10321e-07
1.2098e-07
-4.66083e-07
4.29736e-07
-2.50688e-07
4.85374e-07
1.01421e-07
2.63264e-07
3.80825e-07
-9.93244e-08
4.30242e-07
-3.90042e-07
2.34109e-07
-4.48283e-07
-8.09032e-08
-2.54811e-07
-3.28947e-07
6.62394e-08
-3.76397e-07
3.2809e-07
-2.13797e-07
3.91584e-07
5.02021e-08
2.38922e-07
2.61752e-07
-2.78799e-08
3.12416e-07
-2.55256e-07
1.93549e-07
-3.27233e-07
-1.18174e-08
-2.2325e-07
-1.86347e-07
-1.69155e-08
-2.45633e-07
1.75174e-07
-1.76667e-07
2.59322e-07
-3.19259e-08
2.08106e-07
1.08857e-07
6.30151e-08
1.82103e-07
-9.67816e-08
1.6574e-07
-1.96963e-07
7.9254e-08
-1.99534e-07
-3.35018e-08
-1.1246e-07
-1.25244e-07
2.0355e-08
-1.60995e-07
1.39818e-07
-1.27113e-07
1.94427e-07
-3.54342e-08
1.59319e-07
7.79066e-08
4.72066e-08
1.62389e-07
-9.34191e-08
1.73263e-07
-1.95809e-07
9.58262e-08
-2.04937e-07
-3.97893e-08
-1.07766e-07
-1.66522e-07
5.33962e-08
-2.12681e-07
1.96484e-07
-1.43718e-07
2.40991e-07
1.17001e-08
1.54525e-07
1.71034e-07
-2.31923e-08
2.42005e-07
-1.96846e-07
1.77732e-07
-2.6719e-07
8.79663e-09
-1.89489e-07
-1.70304e-07
-3.15566e-09
-2.55201e-07
1.87759e-07
-1.9451e-07
2.74038e-07
-2.23031e-08
2.05844e-07
1.61182e-07
2.28671e-08
2.49616e-07
-1.69127e-07
1.94283e-07
-2.61334e-07
3.19544e-08
-2.05872e-07
-1.39618e-07
-4.16196e-08
-2.22008e-07
1.32648e-07
-1.74352e-07
2.19409e-07
-3.48838e-08
1.79152e-07
1.05842e-07
4.92161e-08
1.6402e-07
-8.39e-08
1.21215e-07
-1.40001e-07
3.53893e-08
-9.87626e-08
-1.5712e-08
-1.40941e-07
1.11705e-07
-4.15858e-08
9.69866e-08
1.26412e-07
-4.29497e-08
2.39903e-07
-2.00412e-07
1.88247e-07
-2.63357e-07
-1.78769e-08
-1.60648e-07
-2.54011e-07
7.40795e-08
-3.56868e-07
3.04945e-07
-2.35682e-07
3.75082e-07
5.63289e-08
2.14303e-07
3.44378e-07
-1.0188e-07
4.4007e-07
-3.87574e-07
2.66328e-07
-4.59473e-07
-8.46079e-08
-2.56534e-07
-4.02096e-07
1.12914e-07
-4.87409e-07
4.31113e-07
-2.80537e-07
5.03205e-07
9.87083e-08
2.79202e-07
4.22854e-07
-1.12144e-07
4.96928e-07
-4.40036e-07
2.78093e-07
-5.11439e-07
-9.99202e-08
-2.87132e-07
-4.11068e-07
9.70636e-08
-4.75301e-07
4.14909e-07
-2.64456e-07
4.86003e-07
8.74168e-08
2.79809e-07
3.71082e-07
-7.33727e-08
4.28911e-07
-3.66342e-07
2.43215e-07
-4.38757e-07
-6.36716e-08
-2.6549e-07
-3.10818e-07
3.93352e-08
-3.66885e-07
2.98093e-07
-2.19497e-07
3.74492e-07
3.03879e-08
2.44812e-07
2.37457e-07
-1.15253e-09
2.97252e-07
-2.2177e-07
1.97231e-07
-3.05636e-07
1.00613e-08
-2.26173e-07
-1.57941e-07
-4.33294e-08
-2.27161e-07
1.39886e-07
-1.79622e-07
2.3523e-07
-5.54688e-08
2.09111e-07
7.80275e-08
8.85922e-08
1.62163e-07
-6.14423e-08
1.68825e-07
-1.72362e-07
1.03898e-07
-1.99855e-07
-1.75189e-09
-1.37291e-07
-1.05242e-07
-1.43572e-08
-1.64613e-07
1.15331e-07
-1.52072e-07
1.93935e-07
-6.67602e-08
1.82417e-07
5.87342e-08
7.99733e-08
1.66285e-07
-6.99169e-08
1.97233e-07
-1.94453e-07
1.25226e-07
-2.25511e-07
-2.21001e-08
-1.3781e-07
-1.69967e-07
3.08037e-08
-2.33933e-07
1.92988e-07
-1.69563e-07
2.56989e-07
-4.09947e-09
1.80005e-07
1.72816e-07
-2.18901e-09
2.58339e-07
-1.90417e-07
1.98111e-07
-2.76913e-07
2.22098e-08
-2.08939e-07
-1.69239e-07
-2.23977e-08
-2.6446e-07
1.76908e-07
-2.07474e-07
2.74845e-07
-3.2514e-08
2.1657e-07
1.5666e-07
3.87256e-08
2.49955e-07
-1.5371e-07
1.97135e-07
-2.51276e-07
3.6022e-08
-2.04766e-07
-1.3368e-07
-5.11368e-08
-2.13066e-07
1.13727e-07
-1.63534e-07
1.96309e-07
-2.65175e-08
1.61435e-07
1.08448e-07
4.82578e-08
1.61261e-07
-6.29038e-08
1.20113e-07
-1.08295e-07
-6.8126e-08
-2.03423e-07
8.00197e-08
-1.80536e-07
1.61587e-07
-2.35362e-08
1.17165e-07
1.84905e-07
-4.51443e-08
2.97848e-07
-2.34237e-07
2.19854e-07
-3.12349e-07
-2.51637e-08
-1.96421e-07
-2.92291e-07
7.08387e-08
-4.02407e-07
3.3396e-07
-2.6317e-07
4.19049e-07
5.93498e-08
2.50189e-07
3.72053e-07
-9.02719e-08
4.74174e-07
-4.02594e-07
2.88423e-07
-4.90774e-07
-8.30531e-08
-2.88137e-07
-4.17245e-07
9.44654e-08
-5.08136e-07
4.3163e-07
-2.96291e-07
5.2018e-07
9.27073e-08
3.04386e-07
4.25497e-07
-8.90189e-08
5.04569e-07
-4.27867e-07
2.87761e-07
-5.15107e-07
-8.98861e-08
-3.05699e-07
-4.02545e-07
7.074e-08
-4.71573e-07
3.92219e-07
-2.69039e-07
4.78065e-07
7.39359e-08
2.91859e-07
3.53492e-07
-4.57516e-08
4.16314e-07
-3.36331e-07
2.44096e-07
-4.22207e-07
-4.74202e-08
-2.72314e-07
-2.8661e-07
1.14326e-08
-3.48253e-07
2.63412e-07
-2.18252e-07
3.52029e-07
1.19314e-08
2.47579e-07
2.08939e-07
2.59912e-08
2.75229e-07
-1.85107e-07
1.95303e-07
-2.8018e-07
3.02133e-08
-2.26613e-07
-1.27136e-07
-6.96147e-08
-2.03996e-07
1.02732e-07
-1.78178e-07
2.08506e-07
-7.68647e-08
2.08032e-07
4.6515e-08
1.13438e-07
1.3943e-07
-2.53786e-08
1.6842e-07
-1.46031e-07
1.25803e-07
-1.98175e-07
2.90318e-08
-1.60636e-07
-8.40627e-08
-4.87302e-08
-1.65302e-07
8.97661e-08
-1.73481e-07
1.91245e-07
-9.55052e-08
2.03102e-07
3.97387e-08
1.11346e-07
1.67476e-07
-4.58304e-08
2.16621e-07
-1.9049e-07
1.50435e-07
-2.42583e-07
-5.75107e-09
-1.65335e-07
-1.7071e-07
8.11788e-09
-2.49478e-07
1.86452e-07
-1.89681e-07
2.68376e-07
-1.75385e-08
2.0181e-07
1.71834e-07
1.83372e-08
2.67907e-07
-1.80643e-07
2.11332e-07
-2.8102e-07
3.22061e-08
-2.23517e-07
-1.65604e-07
-4.0339e-08
-2.66209e-07
1.62776e-07
-2.11873e-07
2.69262e-07
-3.77755e-08
2.21034e-07
1.50511e-07
5.17577e-08
2.42454e-07
-1.36046e-07
1.8958e-07
-2.34802e-07
3.24402e-08
-1.96043e-07
-1.2805e-07
-5.52567e-08
-1.95335e-07
9.61347e-08
-1.36554e-07
1.7119e-07
8.97603e-10
1.39584e-07
1.16608e-07
3.75681e-08
1.36877e-07
-6.24714e-08
-8.03639e-08
-1.47024e-07
-1.42362e-08
-2.26993e-07
1.23517e-07
-1.82824e-07
2.19546e-07
2.46078e-11
1.62146e-07
2.26078e-07
-3.99696e-08
3.41805e-07
-2.65039e-07
2.45111e-07
-3.57019e-07
-3.02444e-08
-2.3024e-07
-3.21522e-07
6.28919e-08
-4.37051e-07
3.51992e-07
-2.84589e-07
4.50993e-07
5.91123e-08
2.79873e-07
3.88126e-07
-7.49087e-08
4.94743e-07
-4.05318e-07
3.03164e-07
-5.07731e-07
-7.79243e-08
-3.11312e-07
-4.1965e-07
7.37123e-08
-5.14322e-07
4.20322e-07
-3.04268e-07
5.22405e-07
8.3173e-08
3.2009e-07
4.15495e-07
-6.50095e-08
4.9798e-07
-4.05265e-07
2.89865e-07
-5.0487e-07
-7.66816e-08
-3.14598e-07
-3.82445e-07
4.48706e-08
-4.54906e-07
3.61119e-07
-2.66709e-07
4.57982e-07
5.79018e-08
2.94773e-07
3.26072e-07
-1.96887e-08
3.92711e-07
-3.00173e-07
2.38981e-07
-3.95751e-07
-2.93887e-08
-2.70981e-07
-2.54682e-07
-1.40585e-08
-3.20842e-07
2.24812e-07
-2.12005e-07
3.22021e-07
-7.44004e-09
2.43364e-07
1.74914e-07
5.00878e-08
2.46639e-07
-1.46543e-07
1.89243e-07
-2.49373e-07
5.03086e-08
-2.21183e-07
-9.29987e-08
-9.23188e-08
-1.76277e-07
6.54354e-08
-1.73226e-07
1.78297e-07
-9.71117e-08
2.01954e-07
1.37291e-08
1.34137e-07
1.13845e-07
9.28288e-09
1.64799e-07
-1.17719e-07
1.45308e-07
-1.92023e-07
5.91428e-08
-1.79112e-07
-6.14145e-08
-8.025e-08
-1.62731e-07
6.34487e-08
-1.91083e-07
1.84319e-07
-1.2173e-07
2.18044e-07
2.03891e-08
1.38457e-07
1.6511e-07
-2.20384e-08
2.30716e-07
-1.8233e-07
1.71392e-07
-2.52923e-07
1.00274e-08
-1.8718e-07
-1.67505e-07
-1.32488e-08
-2.58324e-07
1.75783e-07
-2.03995e-07
2.72133e-07
-2.95778e-08
2.16586e-07
1.66631e-07
3.64604e-08
2.69645e-07
-1.67021e-07
2.1738e-07
-2.76862e-07
3.98257e-08
-2.2981e-07
-1.57941e-07
-5.45493e-08
-2.5945e-07
1.45611e-07
-2.07771e-07
2.55288e-07
-3.92088e-08
2.16036e-07
1.41173e-07
5.91243e-08
2.2612e-07
-1.17377e-07
1.72297e-07
-2.11194e-07
2.43368e-08
-1.77525e-07
-1.17395e-07
-5.12889e-08
-1.63876e-07
8.15856e-08
-9.56175e-08
1.41791e-07
1.91153e-08
1.0372e-07
8.47665e-08
8.52383e-09
-5.02761e-08
9.71867e-09
-1.14871e-07
-1.3467e-07
-4.55856e-09
-2.43112e-07
1.85013e-07
-2.03637e-07
2.79982e-07
2.89763e-09
1.96393e-07
2.54289e-07
-3.73197e-08
3.76704e-07
-2.8784e-07
2.65888e-07
-3.90859e-07
-3.23144e-08
-2.59003e-07
-3.4048e-07
4.99789e-08
-4.59347e-07
3.56963e-07
-2.98985e-07
4.68718e-07
5.58768e-08
3.02221e-07
3.92496e-07
-5.5579e-08
5.01647e-07
-3.9473e-07
3.10357e-07
-5.09398e-07
-6.97841e-08
-3.2579e-07
-4.10375e-07
5.02656e-08
-5.07155e-07
3.96646e-07
-3.05005e-07
5.09723e-07
7.08573e-08
3.26676e-07
3.94804e-07
-3.95714e-08
4.7937e-07
-3.72027e-07
2.85526e-07
-4.81131e-07
-6.11463e-08
-3.14629e-07
-3.5331e-07
1.88209e-08
-4.28181e-07
3.21639e-07
-2.5898e-07
4.26507e-07
4.0163e-08
2.89581e-07
2.91644e-07
5.46127e-09
3.61299e-07
-2.58039e-07
2.29566e-07
-3.60289e-07
-1.03905e-08
-2.62553e-07
-2.17883e-07
-3.7703e-08
-2.87855e-07
1.82553e-07
-2.02443e-07
2.85345e-07
-2.69591e-08
2.33079e-07
1.38074e-07
7.15233e-08
2.14466e-07
-1.06404e-07
1.80585e-07
-2.13964e-07
6.96235e-08
-2.10522e-07
-5.79551e-08
-1.11563e-07
-1.46622e-07
2.84057e-08
-1.66053e-07
1.4519e-07
-1.15519e-07
1.91186e-07
-1.82134e-08
1.5051e-07
8.76175e-08
4.20366e-08
1.5899e-07
-8.78475e-08
1.61781e-07
-1.81394e-07
8.68066e-08
-1.92259e-07
-3.90963e-08
-1.08317e-07
-1.57712e-07
3.66778e-08
-2.04362e-07
1.72914e-07
-1.44029e-07
2.26585e-07
2.11409e-09
1.60662e-07
1.59883e-07
1.25141e-09
2.39224e-07
-1.69603e-07
1.87108e-07
-2.5582e-07
2.41266e-08
-2.02738e-07
-1.61057e-07
-3.31535e-08
-2.60531e-07
1.60617e-07
-2.1198e-07
2.67658e-07
-3.93629e-08
2.23869e-07
1.58056e-07
5.20749e-08
2.64072e-07
-1.49345e-07
2.16218e-07
-2.64142e-07
4.44396e-08
-2.27622e-07
-1.4727e-07
-6.49448e-08
-2.4522e-07
1.25537e-07
-1.95849e-07
2.3323e-07
-3.68978e-08
2.02013e-07
1.29368e-07
6.10973e-08
2.02863e-07
-9.79841e-08
1.48746e-07
-1.81531e-07
1.5945e-08
-1.5116e-07
-1.00655e-07
-4.23974e-08
-1.28716e-07
6.50149e-08
-7.24202e-08
1.02885e-07
-1.20419e-10
6.17895e-08
-6.82403e-10
1.76807e-07
-1.53287e-07
5.0876e-08
-1.42221e-07
-1.55153e-07
2.68407e-08
-2.92565e-07
2.20483e-07
-2.3355e-07
3.1271e-07
4.04544e-09
2.20268e-07
2.7632e-07
-2.963e-08
4.01274e-07
-2.97103e-07
2.79583e-07
-4.10816e-07
-3.2118e-08
-2.80953e-07
-3.4801e-07
3.2972e-08
-4.67469e-07
3.48903e-07
-3.04896e-07
4.71515e-07
5.03183e-08
3.15996e-07
3.85084e-07
-3.37554e-08
4.9425e-07
-3.7215e-07
3.09013e-07
-4.9646e-07
-5.97408e-08
-3.31195e-07
-3.90309e-07
2.56266e-08
-4.86895e-07
3.62716e-07
-2.97847e-07
4.83868e-07
5.72159e-08
3.24502e-07
3.65071e-07
-1.41165e-08
4.49698e-07
-3.30756e-07
2.74364e-07
-4.46346e-07
-4.49586e-08
-3.06708e-07
-3.173e-07
-6.17519e-09
-3.92834e-07
2.76572e-07
-2.45678e-07
3.86469e-07
2.25027e-08
2.77555e-07
2.52645e-07
2.86764e-08
3.2377e-07
-2.12671e-07
2.15798e-07
-3.18716e-07
7.77236e-09
-2.48448e-07
-1.78731e-07
-5.86792e-08
-2.51058e-07
1.39157e-07
-1.89551e-07
2.44734e-07
-4.4855e-08
2.18114e-07
1.00891e-07
8.9628e-08
1.80423e-07
-6.69178e-08
1.69304e-07
-1.76379e-07
8.64517e-08
-1.95863e-07
-2.4349e-08
-1.26771e-07
-1.16625e-07
-6.43006e-09
-1.56599e-07
1.11264e-07
-1.30467e-07
1.76773e-07
-4.71351e-08
1.62055e-07
6.22012e-08
7.12446e-08
1.50919e-07
-5.81741e-08
1.73736e-07
-1.67168e-07
1.10046e-07
-1.99669e-07
-1.8432e-08
-1.31574e-07
-1.50214e-07
1.0943e-08
-2.12043e-07
1.57842e-07
-1.60672e-07
2.28502e-07
-1.38734e-08
1.76908e-07
1.51892e-07
2.27596e-08
2.41186e-07
-1.53175e-07
1.96161e-07
-2.51357e-07
3.54205e-08
-2.1133e-07
-1.51692e-07
-5.04949e-08
-2.55571e-07
1.41992e-07
-2.12592e-07
2.55483e-07
-4.58476e-08
2.23441e-07
1.46728e-07
6.42517e-08
2.51188e-07
-1.2892e-07
2.07305e-07
-2.43996e-07
4.52195e-08
-2.1736e-07
-1.34427e-07
-7.08778e-08
-2.24206e-07
1.04155e-07
-1.76589e-07
2.05098e-07
-3.08965e-08
1.8058e-07
1.16069e-07
5.81255e-08
1.75195e-07
-7.91018e-08
1.21934e-07
-1.48968e-07
6.47145e-09
-1.21976e-07
-8.88089e-08
-3.40798e-08
-1.10077e-07
4.60902e-08
-6.86333e-08
7.03689e-08
3.76471e-08
2.49492e-07
-9.7916e-08
2.16377e-07
-1.95392e-07
3.10165e-08
-1.52415e-07
-2.05376e-07
1.83821e-08
-3.30126e-07
2.26794e-07
-2.48589e-07
3.3167e-07
7.95614e-09
2.40741e-07
2.8834e-07
-1.59639e-08
4.11404e-07
-2.92903e-07
2.8439e-07
-4.15746e-07
-2.95214e-08
-2.94062e-07
-3.43208e-07
1.37205e-08
-4.60597e-07
3.28696e-07
-3.01868e-07
4.5901e-07
4.26603e-08
3.19737e-07
3.661e-07
-1.14296e-08
4.72779e-07
-3.39295e-07
2.99163e-07
-4.69569e-07
-4.82078e-08
-3.26702e-07
-3.603e-07
1.83744e-09
-4.54428e-07
3.20868e-07
-2.83136e-07
4.46271e-07
4.28183e-08
3.13259e-07
3.27593e-07
9.3561e-09
4.10283e-07
-2.84149e-07
2.56894e-07
-4.02464e-07
-2.88114e-08
-2.90932e-07
-2.75982e-07
-2.82612e-08
-3.50399e-07
2.28723e-07
-2.27361e-07
3.40066e-07
5.70436e-09
2.59054e-07
2.10747e-07
4.82908e-08
2.81681e-07
-1.66794e-07
1.98168e-07
-2.73264e-07
2.42405e-08
-2.29157e-07
-1.38891e-07
-7.55147e-08
-2.11894e-07
9.71593e-08
-1.73675e-07
2.02308e-07
-6.01952e-08
1.98989e-07
6.4963e-08
1.03103e-07
1.45772e-07
-3.03803e-08
1.55562e-07
-1.38554e-07
9.97997e-08
-1.77702e-07
6.32459e-09
-1.3679e-07
-8.73447e-08
-3.70132e-08
-1.44854e-07
7.82729e-08
-1.40933e-07
1.59192e-07
-7.16667e-08
1.67779e-07
3.84669e-08
9.50835e-08
1.40462e-07
-3.02971e-08
1.80191e-07
-1.49859e-07
1.27656e-07
-2.00562e-07
-1.30925e-10
-1.48447e-07
-1.40088e-07
-1.22732e-08
-2.13291e-07
1.39739e-07
-1.70683e-07
2.23318e-07
-2.70067e-08
1.85929e-07
1.41058e-07
4.10998e-08
2.36034e-07
-1.33893e-07
1.97879e-07
-2.39488e-07
4.3469e-08
-2.12092e-07
-1.39495e-07
-6.40037e-08
-2.43265e-07
1.2103e-07
-2.05557e-07
2.36113e-07
-4.87554e-08
2.14966e-07
1.32928e-07
7.19158e-08
2.31317e-07
-1.07164e-07
1.90962e-07
-2.17622e-07
4.2295e-08
-1.99469e-07
-1.19767e-07
-7.17361e-08
-1.97421e-07
8.30729e-08
-1.51357e-07
1.73046e-07
-2.20411e-08
1.53654e-07
1.01779e-07
5.08887e-08
1.4428e-07
-6.22234e-08
9.06614e-08
-1.1731e-07
-1.05114e-08
-9.37046e-08
-8.40928e-08
-2.35457e-08
-8.85634e-08
3.87657e-08
4.64092e-08
1.8007e-07
1.98727e-08
2.56777e-07
-1.2512e-07
1.97214e-07
-2.32436e-07
1.2245e-09
-1.89766e-07
-2.27161e-07
-2.0116e-10
-3.41731e-07
2.25365e-07
-2.50988e-07
3.39736e-07
9.37938e-09
2.53709e-07
2.87241e-07
3.60279e-10
4.0618e-07
-2.75908e-07
2.80288e-07
-4.04455e-07
-2.46358e-08
-2.96468e-07
-3.26604e-07
-6.10049e-09
-4.39438e-07
2.97333e-07
-2.9022e-07
4.3127e-07
3.34365e-08
3.12588e-07
3.36909e-07
9.90224e-09
4.38794e-07
-2.97721e-07
2.81617e-07
-4.29631e-07
-3.57754e-08
-3.12057e-07
-3.22189e-07
-1.9692e-08
-4.11866e-07
2.73039e-07
-2.61994e-07
3.98403e-07
2.82876e-08
2.93121e-07
2.84468e-07
2.95517e-08
3.63505e-07
-2.34318e-07
2.3437e-07
-3.51261e-07
-1.33368e-08
-2.6774e-07
-2.31507e-07
-4.62784e-08
-3.0327e-07
1.80199e-07
-2.05262e-07
2.89151e-07
-9.61066e-09
2.34624e-07
1.67997e-07
6.32602e-08
2.37247e-07
-1.22402e-07
1.77765e-07
-2.25699e-07
3.84042e-08
-2.05203e-07
-1.0021e-07
-8.72342e-08
-1.72283e-07
5.84034e-08
-1.55686e-07
1.59663e-07
-7.23756e-08
1.76131e-07
3.1894e-08
1.11007e-07
1.12095e-07
1.51841e-09
1.39998e-07
-1.01901e-07
1.0908e-07
-1.56355e-07
3.27168e-08
-1.40708e-07
-6.00298e-08
-6.17918e-08
-1.31258e-07
4.74748e-08
-1.46387e-07
1.38697e-07
-9.07287e-08
1.66844e-07
1.73635e-08
1.12157e-07
1.2793e-07
-5.35797e-09
1.80745e-07
-1.29747e-07
1.38854e-07
-1.9427e-07
1.51143e-08
-1.57751e-07
-1.27618e-07
-3.19223e-08
-2.07944e-07
1.19007e-07
-1.73638e-07
2.10672e-07
-3.68267e-08
1.86848e-07
1.27728e-07
5.53242e-08
2.23949e-07
-1.12379e-07
1.92256e-07
-2.20309e-07
4.80411e-08
-2.04597e-07
-1.24938e-07
-7.28982e-08
-2.24228e-07
9.86136e-08
-1.9138e-07
2.10236e-07
-4.81632e-08
1.98651e-07
1.17224e-07
7.4605e-08
2.05589e-07
-8.51779e-08
1.6844e-07
-1.86432e-07
3.63502e-08
-1.75083e-07
-1.0376e-07
-6.77254e-08
-1.66535e-07
6.34032e-08
-1.22341e-07
1.39284e-07
-1.20826e-08
1.23563e-07
8.54378e-08
4.04627e-08
1.09156e-07
-4.81273e-08
5.49605e-08
-8.73386e-08
-2.27104e-08
-6.28865e-08
-6.06772e-08
-4.95875e-09
2.88233e-08
1.20123e-08
1.2521e-07
1.48821e-07
2.14917e-08
2.39508e-07
-1.63132e-07
1.92025e-07
-2.64723e-07
-3.99269e-10
-2.082e-07
-2.26577e-07
-1.31443e-08
-3.3724e-07
2.1312e-07
-2.45751e-07
3.31145e-07
7.78961e-09
2.56067e-07
2.74221e-07
1.83215e-08
3.86506e-07
-2.46447e-07
2.67095e-07
-3.7718e-07
-1.87236e-08
-2.88168e-07
-2.99988e-07
-2.58866e-08
-4.0542e-07
2.56067e-07
-2.70172e-07
3.89714e-07
2.39564e-08
2.95325e-07
2.99831e-07
2.97652e-08
3.94417e-07
-2.49087e-07
2.57053e-07
-3.7866e-07
-2.3734e-08
-2.88461e-07
-2.78621e-07
-3.85648e-08
-3.61749e-07
2.21093e-07
-2.3537e-07
3.42572e-07
1.48619e-08
2.65501e-07
2.3844e-07
4.61524e-08
3.12035e-07
-1.83129e-07
2.07848e-07
-2.95055e-07
3.18116e-10
-2.38558e-07
-1.86523e-07
-5.99688e-08
-2.54032e-07
1.32715e-07
-1.80425e-07
2.3583e-07
-2.24122e-08
2.05533e-07
1.26811e-07
7.33447e-08
1.9282e-07
-8.09821e-08
1.55536e-07
-1.77784e-07
4.93563e-08
-1.77583e-07
-6.48084e-08
-9.35668e-08
-1.34267e-07
2.41342e-08
-1.36394e-07
1.18183e-07
-8.06143e-08
1.50236e-07
3.48618e-09
1.13022e-07
8.1113e-08
2.77626e-08
1.23296e-07
-6.74422e-08
1.13657e-07
-1.32244e-07
5.33527e-08
-1.38179e-07
-3.61005e-08
-7.99631e-08
-1.16414e-07
1.95997e-08
-1.46386e-07
1.15541e-07
-1.03194e-07
1.58962e-07
3.7108e-11
1.21891e-07
1.13912e-07
1.61366e-08
1.75222e-07
-1.07041e-07
1.42896e-07
-1.80689e-07
2.64072e-08
-1.59198e-07
-1.13455e-07
-4.76723e-08
-1.96186e-07
9.59431e-08
-1.69241e-07
1.9078e-07
-4.2698e-08
1.7974e-07
1.12657e-07
6.52539e-08
2.05547e-07
-8.91255e-08
1.79517e-07
-1.94506e-07
4.88141e-08
-1.894e-07
-1.08863e-07
-7.71937e-08
-1.99545e-07
7.54772e-08
-1.70916e-07
1.79129e-07
-4.42078e-08
1.75692e-07
1.00446e-07
7.26849e-08
1.75613e-07
-6.38549e-08
1.41459e-07
-1.52343e-07
2.83089e-08
-1.46244e-07
-8.69836e-08
-5.98705e-08
-1.33681e-07
4.58531e-08
-9.25558e-08
1.06005e-07
-3.78373e-09
9.28899e-08
6.63063e-08
2.88849e-08
7.4398e-08
-3.49651e-08
3.20196e-08
-5.66584e-08
-1.19486e-08
-3.1932e-08
2.80301e-09
-1.50306e-07
1.52193e-07
-3.32019e-08
1.44281e-07
1.41157e-07
-1.66069e-09
2.50284e-07
-1.67762e-07
1.9662e-07
-2.59319e-07
2.44411e-09
-2.09512e-07
-2.16369e-07
-2.8332e-08
-3.1935e-07
1.87577e-07
-2.3113e-07
3.07379e-07
5.50389e-09
2.49032e-07
2.50653e-07
3.66865e-08
3.52623e-07
-2.07917e-07
2.44097e-07
-3.37613e-07
-1.31577e-08
-2.70986e-07
-2.649e-07
-4.44111e-08
-3.59571e-07
2.08646e-07
-2.41645e-07
3.38589e-07
1.5535e-08
2.70293e-07
2.56861e-07
4.72257e-08
3.41284e-07
-1.97118e-07
2.25769e-07
-3.21064e-07
-1.34019e-08
-2.58509e-07
-2.31875e-07
-5.41316e-08
-3.0604e-07
1.68484e-07
-2.03762e-07
2.83013e-07
3.83263e-09
2.33029e-07
1.91861e-07
5.88105e-08
2.57923e-07
-1.33547e-07
1.77883e-07
-2.37637e-07
1.09087e-08
-2.05873e-07
-1.43312e-07
-6.92731e-08
-2.04651e-07
8.86296e-08
-1.5336e-07
1.83286e-07
-3.15095e-08
1.74008e-07
8.93208e-08
7.87389e-08
1.50185e-07
-4.42508e-08
1.31894e-07
-1.32036e-07
5.59626e-08
-1.48214e-07
-3.46238e-08
-9.49243e-08
-9.94141e-08
-4.53563e-09
-1.16101e-07
7.97552e-08
-8.38468e-08
1.22937e-07
-1.85315e-08
1.09774e-07
5.41773e-08
4.77952e-08
1.05679e-07
-3.6519e-08
1.12582e-07
-1.06798e-07
6.67397e-08
-1.30064e-07
-1.67121e-08
-9.14738e-08
-1.00534e-07
-4.45287e-09
-1.40183e-07
9.10488e-08
-1.07863e-07
1.45279e-07
-1.25477e-08
1.24711e-07
9.86773e-08
3.3644e-08
1.63176e-07
-8.30561e-08
1.38956e-07
-1.61305e-07
3.29827e-08
-1.53683e-07
-9.79999e-08
-5.92854e-08
-1.77995e-07
7.19113e-08
-1.57151e-07
1.65502e-07
-4.41125e-08
1.65966e-07
9.63979e-08