/*--------------------------------*- C++ -*----------------------------------*\
| =========                 |                                                 |
| \\      /  F ield         | OpenFOAM: The Open Source CFD Toolbox           |
|  \\    /   O peration     | Version:  2412                                  |
|   \\  /    A nd           | Website:  www.openfoam.com                      |
|    \\/     M anipulation  |                                                 |
\*---------------------------------------------------------------------------*/
FoamFile
{
    version     2.0;
    format      ascii;
    arch        "LSB;label=32;scalar=64";
    class       volVectorField;
    location    "0.9";
    object      U;
}
// * * * * * * * * * * * * * * * * * * * * * * * * * * * * * * * * * * * * * //

dimensions      [0 1 -1 0 0 0 0];

internalField   nonuniform List<vector> 
6400
(
(-0.000539651 0.000539428 0)
(-0.00161076 0.00052972 0)
(-0.0026677 0.000525733 0)
(-0.00370856 0.000514774 0)
(-0.00472303 0.00049897 0)
(-0.00570135 0.000478529 0)
(-0.00663393 0.000453089 0)
(-0.00751013 0.000421985 0)
(-0.00831797 0.000384522 0)
(-0.00904406 0.000339965 0)
(-0.00967355 0.000287563 0)
(-0.0101901 0.00022655 0)
(-0.0105759 0.000156178 0)
(-0.0108117 7.57747e-05 0)
(-0.0108771 -1.51838e-05 0)
(-0.0107513 -0.000116995 0)
(-0.0104133 -0.00022925 0)
(-0.00984181 -0.000351004 0)
(-0.00901788 -0.000481438 0)
(-0.00792647 -0.000618315 0)
(-0.00655748 -0.000758786 0)
(-0.00490807 -0.000898637 0)
(-0.00298468 -0.00103216 0)
(-0.000805135 -0.00115274 0)
(0.00159839 -0.00125253 0)
(0.00417944 -0.00132281 0)
(0.00688456 -0.00135785 0)
(0.00961433 -0.0013605 0)
(0.0122768 -0.00131656 0)
(0.0148088 -0.00121025 0)
(0.0170949 -0.00101951 0)
(0.0188814 -0.000764665 0)
(0.0200204 -0.000427094 0)
(0.0204897 -3.05375e-05 0)
(0.0201323 0.000408933 0)
(0.0188826 0.000869465 0)
(0.0167609 0.00132762 0)
(0.0137482 0.00171263 0)
(0.00997703 0.00203494 0)
(0.00570773 0.00224701 0)
(0.00113208 0.00232412 0)
(-0.00346884 0.00226971 0)
(-0.00780274 0.00207712 0)
(-0.0116291 0.00177313 0)
(-0.0147621 0.00138712 0)
(-0.0170797 0.000954774 0)
(-0.0185225 0.000508258 0)
(-0.019094 7.87997e-05 0)
(-0.0188598 -0.000309473 0)
(-0.0179141 -0.000637987 0)
(-0.0163611 -0.000908762 0)
(-0.0143505 -0.00109332 0)
(-0.0120565 -0.00120009 0)
(-0.00961328 -0.00125309 0)
(-0.00708427 -0.00125928 0)
(-0.00456591 -0.00123375 0)
(-0.00215066 -0.00117166 0)
(0.000104338 -0.00108261 0)
(0.00215155 -0.000970743 0)
(0.00396046 -0.000846229 0)
(0.00551151 -0.000714929 0)
(0.00679826 -0.00058119 0)
(0.00782223 -0.000451604 0)
(0.00859212 -0.000327573 0)
(0.00912174 -0.00021196 0)
(0.0094284 -0.000104106 0)
(0.00953329 -6.56249e-06 0)
(0.00945485 8.0579e-05 0)
(0.00921318 0.000157447 0)
(0.00882796 0.000224787 0)
(0.00831752 0.000283278 0)
(0.00769894 0.000333376 0)
(0.00698836 0.00037574 0)
(0.0062004 0.000411112 0)
(0.00534806 0.000440253 0)
(0.00444321 0.000463712 0)
(0.00349682 0.000481861 0)
(0.00251919 0.000495038 0)
(0.00151992 0.000503579 0)
(0.000507846 0.000507697 0)
(-0.000552174 0.00163289 0)
(-0.00165769 0.0016131 0)
(-0.00275335 0.0015951 0)
(-0.00382864 0.00156286 0)
(-0.00487953 0.00151719 0)
(-0.00589748 0.00145765 0)
(-0.00687287 0.00138306 0)
(-0.00779513 0.00129164 0)
(-0.0086526 0.00118136 0)
(-0.00943224 0.00104998 0)
(-0.0101194 0.000895139 0)
(-0.0106976 0.000714426 0)
(-0.0111487 0.000505448 0)
(-0.0114528 0.000266025 0)
(-0.0115884 -5.59089e-06 0)
(-0.0115325 -0.00031038 0)
(-0.0112619 -0.000647956 0)
(-0.010753 -0.0010178 0)
(-0.00998297 -0.00141567 0)
(-0.00893184 -0.00183622 0)
(-0.00758368 -0.00227074 0)
(-0.00592882 -0.00270738 0)
(-0.00396638 -0.00313001 0)
(-0.00170752 -0.00351903 0)
(0.000822281 -0.00385105 0)
(0.00357853 -0.0040996 0)
(0.00649845 -0.00423819 0)
(0.00948458 -0.00424876 0)
(0.0123995 -0.00408731 0)
(0.0150983 -0.00372542 0)
(0.0175326 -0.00313941 0)
(0.0194675 -0.0023666 0)
(0.0207499 -0.00134341 0)
(0.0213229 -0.000138143 0)
(0.0210311 0.00120211 0)
(0.0198031 0.00261023 0)
(0.0176085 0.00402157 0)
(0.0144614 0.00521801 0)
(0.0105172 0.00621018 0)
(0.00600099 0.00685737 0)
(0.00115587 0.00708693 0)
(-0.00371796 0.0069145 0)
(-0.00830327 0.00633598 0)
(-0.0123233 0.00539676 0)
(-0.0155836 0.00420401 0)
(-0.0179593 0.00287431 0)
(-0.0193965 0.0015043 0)
(-0.0199077 0.000192672 0)
(-0.0195712 -0.000988713 0)
(-0.0185062 -0.00198278 0)
(-0.0168078 -0.00280972 0)
(-0.0146361 -0.00338201 0)
(-0.0121493 -0.00374873 0)
(-0.00943971 -0.00392913 0)
(-0.00666279 -0.00394351 0)
(-0.00394075 -0.00382982 0)
(-0.00136404 -0.00360682 0)
(0.0010058 -0.00330299 0)
(0.00312445 -0.00294084 0)
(0.00496481 -0.00254494 0)
(0.00651668 -0.00213397 0)
(0.00777935 -0.00172251 0)
(0.0087606 -0.00132395 0)
(0.00947548 -0.00094637 0)
(0.00994219 -0.000594981 0)
(0.0101823 -0.000271904 0)
(0.0102172 1.9775e-05 0)
(0.0100693 0.000279835 0)
(0.00976039 0.000508805 0)
(0.00931069 0.000708845 0)
(0.00873933 0.000881998 0)
(0.00806386 0.00102997 0)
(0.00730012 0.0011549 0)
(0.00646237 0.00125908 0)
(0.00556349 0.00134473 0)
(0.00461517 0.00141355 0)
(0.00362797 0.00146672 0)
(0.00261152 0.00150528 0)
(0.00157481 0.00153034 0)
(0.000525981 0.00154198 0)
(-0.000552069 0.00273867 0)
(-0.00165775 0.00271921 0)
(-0.00275603 0.00268352 0)
(-0.00383568 0.00263019 0)
(-0.00489045 0.00255627 0)
(-0.00591279 0.00245975 0)
(-0.00689377 0.00233834 0)
(-0.00782322 0.0021892 0)
(-0.00868966 0.00200895 0)
(-0.00948021 0.00179382 0)
(-0.0101803 0.00153974 0)
(-0.0107737 0.00124245 0)
(-0.011242 0.000897706 0)
(-0.0115652 0.000501522 0)
(-0.0117212 5.05799e-05 0)
(-0.0116866 -0.000457211 0)
(-0.0114381 -0.00102196 0)
(-0.0109498 -0.00164468 0)
(-0.0101965 -0.00231775 0)
(-0.00915701 -0.0030338 0)
(-0.00781278 -0.00377845 0)
(-0.00615159 -0.0045332 0)
(-0.00416963 -0.00527155 0)
(-0.00187527 -0.00596084 0)
(0.000708444 -0.00656155 0)
(0.00354004 -0.00702791 0)
(0.00655843 -0.00730776 0)
(0.00967807 -0.00734781 0)
(0.0127858 -0.00708294 0)
(0.0157544 -0.00647294 0)
(0.0184535 -0.00549919 0)
(0.0206804 -0.00417629 0)
(0.0222553 -0.00244393 0)
(0.0230448 -0.000380841 0)
(0.0228926 0.00192974 0)
(0.0217162 0.00442364 0)
(0.0193836 0.00681788 0)
(0.0159513 0.00897725 0)
(0.0116283 0.0107374 0)
(0.00659139 0.0118538 0)
(0.00118957 0.0122754 0)
(-0.00422633 0.0119579 0)
(-0.00933145 0.0109472 0)
(-0.0137742 0.00928338 0)
(-0.0172981 0.00716677 0)
(-0.0197919 0.00483149 0)
(-0.0212143 0.00244424 0)
(-0.0215943 0.000175774 0)
(-0.02104 -0.00185412 0)
(-0.0197366 -0.00356225 0)
(-0.0177586 -0.00491233 0)
(-0.0152877 -0.00589131 0)
(-0.0125686 -0.00651866 0)
(-0.00968952 -0.006812 0)
(-0.00678115 -0.00680976 0)
(-0.00395565 -0.00657154 0)
(-0.00129967 -0.00615051 0)
(0.00112838 -0.00559558 0)
(0.00328671 -0.00495292 0)
(0.00515159 -0.00425967 0)
(0.00671455 -0.00354826 0)
(0.00797794 -0.00284387 0)
(0.0089521 -0.00216527 0)
(0.00965419 -0.00152609 0)
(0.0101046 -0.000934169 0)
(0.0103262 -0.000394338 0)
(0.0103426 9.13072e-05 0)
(0.0101765 0.000522864 0)
(0.00985035 0.000901921 0)
(0.00938519 0.00123206 0)
(0.00880005 0.00151681 0)
(0.00811237 0.00175968 0)
(0.00733812 0.00196445 0)
(0.00649163 0.00213497 0)
(0.00558563 0.0022748 0)
(0.00463152 0.00238686 0)
(0.00363959 0.00247337 0)
(0.00261927 0.00253617 0)
(0.00157928 0.00257705 0)
(0.000527455 0.00259595 0)
(-0.000563758 0.00385484 0)
(-0.00168978 0.00383427 0)
(-0.00280766 0.00378512 0)
(-0.00391026 0.00371149 0)
(-0.00499023 0.00361036 0)
(-0.00604022 0.00347862 0)
(-0.00705191 0.00331277 0)
(-0.00801579 0.00310867 0)
(-0.00892097 0.00286155 0)
(-0.009755 0.00256603 0)
(-0.0105036 0.0022162 0)
(-0.0111507 0.00180582 0)
(-0.0116778 0.00132853 0)
(-0.0120642 0.00077824 0)
(-0.012287 0.000149535 0)
(-0.0123206 -0.000561757 0)
(-0.0121412 -0.00135816 0)
(-0.0117184 -0.00223436 0)
(-0.0110222 -0.00318897 0)
(-0.0100273 -0.00421059 0)
(-0.0087085 -0.00527986 0)
(-0.00704611 -0.00637346 0)
(-0.00502763 -0.0074526 0)
(-0.00265343 -0.00847196 0)
(6.18693e-05 -0.00937501 0)
(0.00308441 -0.0100952 0)
(0.00635764 -0.0105572 0)
(0.00980033 -0.0106827 0)
(0.0132951 -0.0103876 0)
(0.0166965 -0.00959193 0)
(0.0198476 -0.00825697 0)
(0.0225446 -0.00636133 0)
(0.0245708 -0.00387781 0)
(0.025725 -0.000868962 0)
(0.0258654 0.00258604 0)
(0.02472 0.00624096 0)
(0.0221887 0.00983607 0)
(0.018404 0.0131668 0)
(0.0134114 0.0158607 0)
(0.00754818 0.0176101 0)
(0.00125906 0.0182759 0)
(-0.00505708 0.0177524 0)
(-0.0109957 0.0161223 0)
(-0.0161263 0.0136007 0)
(-0.0200612 0.0104107 0)
(-0.0227096 0.00689245 0)
(-0.0240807 0.00327251 0)
(-0.0242326 -8.06904e-05 0)
(-0.023333 -0.00304306 0)
(-0.0215845 -0.0055116 0)
(-0.0191539 -0.00739259 0)
(-0.0162547 -0.0087549 0)
(-0.0131087 -0.00958297 0)
(-0.00985234 -0.0099214 0)
(-0.00662829 -0.00984889 0)
(-0.00355422 -0.00944863 0)
(-0.000710148 -0.00879487 0)
(0.00184902 -0.00795902 0)
(0.00408827 -0.00700711 0)
(0.00599179 -0.00599325 0)
(0.00755942 -0.00496249 0)
(0.00880139 -0.00394902 0)
(0.00973556 -0.00297988 0)
(0.0103846 -0.00207177 0)
(0.0107747 -0.00123583 0)
(0.0109323 -0.000476897 0)
(0.0108833 0.000203013 0)
(0.010654 0.000804632 0)
(0.0102679 0.00133139 0)
(0.00974652 0.00178875 0)
(0.00910953 0.00218211 0)
(0.00837469 0.00251692 0)
(0.0075579 0.00279858 0)
(0.00667312 0.00303265 0)
(0.0057326 0.00322428 0)
(0.00474723 0.00337762 0)
(0.00372679 0.00349581 0)
(0.00268006 0.00358166 0)
(0.00161515 0.00363749 0)
(0.000539333 0.00366323 0)
(-0.000577854 0.00499695 0)
(-0.00173113 0.00497145 0)
(-0.00287634 0.00491173 0)
(-0.00400868 0.00482045 0)
(-0.00512146 0.00469487 0)
(-0.00620787 0.00453126 0)
(-0.0072603 0.00432504 0)
(-0.00827005 0.00407078 0)
(-0.00922701 0.00376222 0)
(-0.0101194 0.00339224 0)
(-0.0109335 0.00295293 0)
(-0.0116533 0.00243583 0)
(-0.0122606 0.00183214 0)
(-0.0127341 0.00113319 0)
(-0.0130501 0.000331 0)
(-0.0131821 -0.000581104 0)
(-0.0130976 -0.00160776 0)
(-0.0127665 -0.0027457 0)
(-0.0121576 -0.00399461 0)
(-0.0112319 -0.00534003 0)
(-0.00995888 -0.0067634 0)
(-0.00830712 -0.00822874 0)
(-0.00625079 -0.00969459 0)
(-0.00378043 -0.0111014 0)
(-0.000897803 -0.0123749 0)
(0.0023744 -0.0134261 0)
(0.00598718 -0.0141536 0)
(0.00986426 -0.0144472 0)
(0.0138944 -0.0141907 0)
(0.0179067 -0.0132678 0)
(0.0217102 -0.0115973 0)
(0.0250903 -0.00913384 0)
(0.0277831 -0.00584068 0)
(0.0295479 -0.00174624 0)
(0.030044 0.00298579 0)
(0.0290088 0.00803984 0)
(0.0263512 0.013204 0)
(0.0220141 0.0180034 0)
(0.0161024 0.021876 0)
(0.00902419 0.0245471 0)
(0.0013317 0.0255116 0)
(-0.00639825 0.0247128 0)
(-0.0135126 0.0222713 0)
(-0.0195224 0.0185841 0)
(-0.0240462 0.0139756 0)
(-0.0269709 0.00895834 0)
(-0.0282276 0.00397156 0)
(-0.0279474 -0.000725817 0)
(-0.0265043 -0.00473024 0)
(-0.0241139 -0.0079991 0)
(-0.0210263 -0.0104611 0)
(-0.0174977 -0.0121688 0)
(-0.0137507 -0.0131364 0)
(-0.00997167 -0.0134512 0)
(-0.00632436 -0.0132317 0)
(-0.00291754 -0.0125871 0)
(0.00017245 -0.011624 0)
(0.00289779 -0.0104409 0)
(0.00523465 -0.00912358 0)
(0.00717884 -0.00774379 0)
(0.00874122 -0.0063586 0)
(0.00994383 -0.00501095 0)
(0.0108149 -0.00373298 0)
(0.011385 -0.00254517 0)
(0.0116868 -0.00145919 0)
(0.0117527 -0.000479987 0)
(0.0116128 0.000392356 0)
(0.0112957 0.00116035 0)
(0.0108267 0.00183017 0)
(0.0102285 0.00240948 0)
(0.00952121 0.00290576 0)
(0.00872297 0.00332669 0)
(0.00784922 0.0036799 0)
(0.00691325 0.00397279 0)
(0.00592671 0.00421202 0)
(0.00489984 0.004403 0)
(0.00384164 0.00454992 0)
(0.00276007 0.00465669 0)
(0.00166239 0.00472602 0)
(0.000554967 0.00475793 0)
(-0.000593807 0.0061692 0)
(-0.00177952 0.00613853 0)
(-0.00295844 0.00606982 0)
(-0.00412668 0.00596383 0)
(-0.00527887 0.0058175 0)
(-0.00640919 0.00562649 0)
(-0.00751105 0.00538527 0)
(-0.00857676 0.00508717 0)
(-0.00959722 0.00472436 0)
(-0.0105616 0.00428785 0)
(-0.011457 0.00376758 0)
(-0.012268 0.00315255 0)
(-0.0129764 0.00243116 0)
(-0.0135609 0.00159161 0)
(-0.0139964 0.000622619 0)
(-0.014254 -0.000485664 0)
(-0.0142998 -0.00174004 0)
(-0.0140985 -0.00314628 0)
(-0.0136089 -0.00470115 0)
(-0.0127874 -0.006392 0)
(-0.0115873 -0.0081999 0)
(-0.00996599 -0.0100845 0)
(-0.00788742 -0.0119973 0)
(-0.00531897 -0.0138662 0)
(-0.00224609 -0.0155993 0)
(0.00132453 -0.0170838 0)
(0.00535765 -0.0181878 0)
(0.00978652 -0.0187639 0)
(0.0145 -0.018657 0)
(0.0193197 -0.0177041 0)
(0.0240181 -0.0157537 0)
(0.0283435 -0.0127448 0)
(0.0320072 -0.00860246 0)
(0.0346052 -0.00325576 0)
(0.0357096 0.00293295 0)
(0.0349991 0.00982737 0)
(0.0322125 0.0169608 0)
(0.0271318 0.0237964 0)
(0.0200013 0.0293488 0)
(0.0112117 0.0331329 0)
(0.0014249 0.0345103 0)
(-0.00832629 0.0333681 0)
(-0.0171686 0.0298355 0)
(-0.0244751 0.0244541 0)
(-0.0297441 0.017908 0)
(-0.0327714 0.0109469 0)
(-0.0338196 0.00423593 0)
(-0.0329856 -0.00192634 0)
(-0.0306525 -0.00716055 0)
(-0.0273539 -0.0112954 0)
(-0.0233567 -0.0143183 0)
(-0.0189569 -0.0163098 0)
(-0.0144144 -0.0173269 0)
(-0.00996962 -0.017518 0)
(-0.00578443 -0.0170418 0)
(-0.00196429 -0.0160472 0)
(0.0014201 -0.0146772 0)
(0.00433459 -0.01306 0)
(0.00677274 -0.0113049 0)
(0.00874627 -0.00950105 0)
(0.0102825 -0.00771723 0)
(0.0114179 -0.00600393 0)
(0.012194 -0.00439691 0)
(0.0126523 -0.00291692 0)
(0.0128339 -0.00157603 0)
(0.0127781 -0.000376121 0)
(0.0125192 0.000685212 0)
(0.0120887 0.00161409 0)
(0.0115138 0.00242014 0)
(0.0108185 0.00311357 0)
(0.0100234 0.00370463 0)
(0.00914647 0.00420385 0)
(0.00820235 0.00462156 0)
(0.00720354 0.00496704 0)
(0.00616081 0.0052483 0)
(0.00508358 0.00547203 0)
(0.00397976 0.005644 0)
(0.00285614 0.00576885 0)
(0.00171904 0.00584998 0)
(0.000573698 0.00588706 0)
(-0.000611689 0.00737533 0)
(-0.00183403 0.00734097 0)
(-0.00305144 0.00726495 0)
(-0.00426081 0.00714741 0)
(-0.00545815 0.0069847 0)
(-0.00663896 0.00677181 0)
(-0.00779795 0.00650226 0)
(-0.00892873 0.00616816 0)
(-0.0100236 0.00576012 0)
(-0.0110728 0.0052672 0)
(-0.0120649 0.00467697 0)
(-0.0129852 0.00397566 0)
(-0.0138163 0.0031484 0)
(-0.0145368 0.0021796 0)
(-0.0151208 0.00105366 0)
(-0.0155374 -0.000244053 0)
(-0.0157498 -0.00172565 0)
(-0.015718 -0.0033991 0)
(-0.0153924 -0.00527017 0)
(-0.0147182 -0.00732759 0)
(-0.0136373 -0.00955418 0)
(-0.0120886 -0.0119131 0)
(-0.0100144 -0.0143452 0)
(-0.00736194 -0.0167688 0)
(-0.00409236 -0.0190749 0)
(-0.000188245 -0.0211258 0)
(0.00433606 -0.0227552 0)
(0.00942771 -0.0237727 0)
(0.0149907 -0.0239801 0)
(0.0208507 -0.0231436 0)
(0.0267205 -0.0210205 0)
(0.0323008 -0.017505 0)
(0.0373393 -0.0124421 0)
(0.0411582 -0.00581191 0)
(0.0432094 0.00222545 0)
(0.0431227 0.0114025 0)
(0.0404054 0.0212301 0)
(0.0344814 0.030595 0)
(0.0255061 0.0386559 0)
(0.014228 0.0441236 0)
(0.00156644 0.0460878 0)
(-0.0111171 0.0444473 0)
(-0.0224909 0.0392519 0)
(-0.0315246 0.0314512 0)
(-0.0376338 0.0222886 0)
(-0.0407236 0.0127985 0)
(-0.0411772 0.00379559 0)
(-0.0394134 -0.00407714 0)
(-0.0359361 -0.0106813 0)
(-0.0313258 -0.0157196 0)
(-0.0260868 -0.019263 0)
(-0.0205439 -0.0214206 0)
(-0.0149933 -0.022352 0)
(-0.00971747 -0.022261 0)
(-0.00488094 -0.0213736 0)
(-0.000577295 -0.0198857 0)
(0.00313763 -0.0179809 0)
(0.00624977 -0.0158195 0)
(0.00877601 -0.0135372 0)
(0.0107513 -0.0112394 0)
(0.0122249 -0.00900622 0)
(0.0132523 -0.00689169 0)
(0.0138914 -0.00493459 0)
(0.0141964 -0.00315107 0)
(0.0142191 -0.00155239 0)
(0.0140069 -0.000134122 0)
(0.0135976 0.00110997 0)
(0.0130258 0.00219106 0)
(0.012321 0.0031231 0)
(0.0115082 0.00391981 0)
(0.010608 0.00459505 0)
(0.00963731 0.00516271 0)
(0.00861 0.00563581 0)
(0.00753756 0.00602566 0)
(0.00642961 0.00634193 0)
(0.00529415 0.00659261 0)
(0.00413772 0.00678516 0)
(0.00296585 0.00692448 0)
(0.00178361 0.00701516 0)
(0.000595024 0.00705637 0)
(-0.000631192 0.00861892 0)
(-0.00189331 0.00858254 0)
(-0.00315254 0.00850146 0)
(-0.00440693 0.008376 0)
(-0.00565391 0.00820197 0)
(-0.00689052 0.00797365 0)
(-0.00811303 0.00768371 0)
(-0.00931669 0.00732305 0)
(-0.0104954 0.00688073 0)
(-0.0116414 0.00634382 0)
(-0.0127444 0.00569745 0)
(-0.0137918 0.0049248 0)
(-0.014767 0.00400729 0)
(-0.0156494 0.00292488 0)
(-0.0164129 0.0016566 0)
(-0.017025 0.000181548 0)
(-0.0174453 -0.00151984 0)
(-0.0176318 -0.00346424 0)
(-0.0175244 -0.00565495 0)
(-0.0170564 -0.00809574 0)
(-0.0161555 -0.0107826 0)
(-0.0147371 -0.0136702 0)
(-0.0127202 -0.0167033 0)
(-0.0100225 -0.0197912 0)
(-0.00657323 -0.0228096 0)
(-0.00232137 -0.0255938 0)
(0.00275004 -0.0279401 0)
(0.00860631 -0.0296071 0)
(0.0151805 -0.0303385 0)
(0.0223361 -0.0298217 0)
(0.0297268 -0.0277457 0)
(0.0370049 -0.023829 0)
(0.0437929 -0.0178675 0)
(0.0493783 -0.00981926 0)
(0.0530421 0.000400847 0)
(0.0541245 0.0126045 0)
(0.0515249 0.0257675 0)
(0.0446708 0.0387703 0)
(0.0336259 0.0504372 0)
(0.0187034 0.0586596 0)
(0.00174665 0.0614225 0)
(-0.0152307 0.0589054 0)
(-0.0302577 0.0512174 0)
(-0.0415423 0.0400394 0)
(-0.0485075 0.0272617 0)
(-0.0513766 0.0142065 0)
(-0.0508027 0.00235558 0)
(-0.0475592 -0.00770525 0)
(-0.04238 -0.0157361 0)
(-0.0360107 -0.0216611 0)
(-0.0291206 -0.0256206 0)
(-0.0220999 -0.0277697 0)
(-0.0153036 -0.028407 0)
(-0.00903359 -0.0278107 0)
(-0.00344574 -0.0263125 0)
(0.00139675 -0.0241446 0)
(0.00545743 -0.0215418 0)
(0.00875214 -0.018702 0)
(0.0113305 -0.0157867 0)
(0.0132582 -0.0129155 0)
(0.0146136 -0.0101772 0)
(0.015475 -0.00762835 0)
(0.0159222 -0.00529928 0)
(0.0160235 -0.00320819 0)
(0.0158415 -0.00134856 0)
(0.0154329 0.000281843 0)
(0.0148381 0.00169789 0)
(0.0140957 0.00291792 0)
(0.0132366 0.0039615 0)
(0.0122857 0.00484711 0)
(0.0112631 0.00559289 0)
(0.0101845 0.00621644 0)
(0.00906251 0.00673364 0)
(0.00790707 0.00715793 0)
(0.00672613 0.00750071 0)
(0.00552584 0.00777159 0)
(0.00431113 0.00797919 0)
(0.00308613 0.00812898 0)
(0.00185438 0.00822639 0)
(0.000618417 0.00827057 0)
(-0.000651687 0.00990259 0)
(-0.00195545 0.00986567 0)
(-0.00325849 0.00978226 0)
(-0.00456033 0.00965302 0)
(-0.00585996 0.00947337 0)
(-0.00715612 0.00923702 0)
(-0.00844692 0.00893582 0)
(-0.00972957 0.00855958 0)
(-0.0110001 0.00809588 0)
(-0.0122527 0.00752988 0)
(-0.0134798 0.00684421 0)
(-0.0146705 0.00601887 0)
(-0.0158106 0.00503122 0)
(-0.0168809 0.00385613 0)
(-0.0178564 0.00246639 0)
(-0.0187046 0.000833501 0)
(-0.0193847 -0.00107113 0)
(-0.0198401 -0.00327476 0)
(-0.0200086 -0.00579105 0)
(-0.0198279 -0.0086443 0)
(-0.0191907 -0.011812 0)
(-0.0179846 -0.0152859 0)
(-0.0161069 -0.019009 0)
(-0.0134351 -0.0228872 0)
(-0.00985614 -0.0267836 0)
(-0.00527337 -0.0305064 0)
(0.000375806 -0.0338126 0)
(0.00709037 -0.0364055 0)
(0.0148479 -0.037944 0)
(0.0235241 -0.0380556 0)
(0.0328094 -0.0363254 0)
(0.0422974 -0.0322554 0)
(0.0514829 -0.0255476 0)
(0.0595792 -0.0158952 0)
(0.0658006 -0.00308959 0)
(0.0686597 0.0126081 0)
(0.0667447 0.0302891 0)
(0.0593127 0.0487431 0)
(0.0455226 0.0658127 0)
(0.0252921 0.0783035 0)
(0.00184216 0.0820871 0)
(-0.0214225 0.0783833 0)
(-0.0415 0.0667018 0)
(-0.055633 0.0503563 0)
(-0.0636198 0.0322969 0)
(-0.0657848 0.0147345 0)
(-0.0632431 -0.000840304 0)
(-0.0576421 -0.0133932 0)
(-0.0500138 -0.0229427 0)
(-0.041317 -0.0296533 0)
(-0.0322832 -0.0337808 0)
(-0.0234082 -0.0356292 0)
(-0.015103 -0.0356698 0)
(-0.00768128 -0.0343153 0)
(-0.00126465 -0.0319301 0)
(0.00415121 -0.0288436 0)
(0.00854299 -0.0253429 0)
(0.0119728 -0.0216649 0)
(0.0145351 -0.0179934 0)
(0.0163371 -0.0144628 0)
(0.0174916 -0.0111593 0)
(0.0181129 -0.00814207 0)
(0.0182972 -0.00542656 0)
(0.0181348 -0.00302399 0)
(0.0176986 -0.000915251 0)
(0.0170447 0.000912073 0)
(0.0162265 0.00248224 0)
(0.0152825 0.00382201 0)
(0.0142439 0.00495764 0)
(0.0131349 0.00591357 0)
(0.011974 0.00671284 0)
(0.010775 0.0073769 0)
(0.00954844 0.00792448 0)
(0.00830219 0.00837147 0)
(0.00704203 0.00873087 0)
(0.00577192 0.00901419 0)
(0.00449495 0.00923039 0)
(0.00321344 0.00938628 0)
(0.00192922 0.00948728 0)
(0.000643166 0.00953306 0)
(-0.000672405 0.0112276 0)
(-0.00201825 0.0111915 0)
(-0.00336564 0.0111087 0)
(-0.00471576 0.0109803 0)
(-0.00606933 0.0108014 0)
(-0.00742699 0.0105652 0)
(-0.0087889 0.0102629 0)
(-0.0101546 0.00988355 0)
(-0.0115225 0.0094133 0)
(-0.0128897 0.00883561 0)
(-0.0142514 0.00813071 0)
(-0.0155999 0.00727538 0)
(-0.016924 0.00624276 0)
(-0.0182073 0.0050022 0)
(-0.0194271 0.00351945 0)
(-0.0205523 0.00175727 0)
(-0.0215411 -0.000323365 0)
(-0.0223368 -0.00276067 0)
(-0.022876 -0.00559295 0)
(-0.0230558 -0.00885355 0)
(-0.0227716 -0.0125372 0)
(-0.0219039 -0.0166573 0)
(-0.0202857 -0.0211628 0)
(-0.0177547 -0.0259724 0)
(-0.014142 -0.0309371 0)
(-0.00929039 -0.0358443 0)
(-0.0030778 -0.0404087 0)
(0.00455863 -0.044274 0)
(0.0136302 -0.0470087 0)
(0.0240709 -0.0481788 0)
(0.0356633 -0.0471987 0)
(0.0479515 -0.0434089 0)
(0.0603502 -0.0362338 0)
(0.072058 -0.0251206 0)
(0.0817859 -0.0094308 0)
(0.0877553 0.0104855 0)
(0.0879096 0.0343575 0)
(0.0803994 0.0606935 0)
(0.06331 0.0857938 0)
(0.0351084 0.105031 0)
(0.00198253 0.110436 0)
(-0.0306416 0.105057 0)
(-0.0584291 0.0869478 0)
(-0.0761586 0.0623743 0)
(-0.0843528 0.0366113 0)
(-0.0847352 0.0132025 0)
(-0.0791513 -0.00667251 0)
(-0.0698618 -0.0220693 0)
(-0.0588172 -0.0330884 0)
(-0.0469993 -0.0403002 0)
(-0.0352252 -0.0441691 0)
(-0.0241013 -0.0453105 0)
(-0.0140845 -0.0443488 0)
(-0.0053733 -0.0418664 0)
(0.00195902 -0.0382581 0)
(0.0079282 -0.0339627 0)
(0.0125887 -0.0293255 0)
(0.0160619 -0.0246239 0)
(0.018499 -0.0200611 0)
(0.0200636 -0.0157806 0)
(0.0209101 -0.0118572 0)
(0.021188 -0.0083474 0)
(0.0210237 -0.0052451 0)
(0.0205205 -0.00253671 0)
(0.0197653 -0.000200503 0)
(0.0188206 0.00179928 0)
(0.01774 0.00349754 0)
(0.0165637 0.00493076 0)
(0.0153216 0.00613322 0)
(0.0140361 0.00713616 0)
(0.0127229 0.00796798 0)
(0.011393 0.00865403 0)
(0.0100541 0.00921591 0)
(0.00871126 0.00967196 0)
(0.00736765 0.0100368 0)
(0.00602476 0.0103236 0)
(0.00468346 0.0105413 0)
(0.00334382 0.0106985 0)
(0.00200575 0.0107997 0)
(0.00066842 0.0108455 0)
(-0.000692537 0.0125935 0)
(-0.00207933 0.0125596 0)
(-0.00347 0.0124808 0)
(-0.00486753 0.0123581 0)
(-0.00627448 0.0121866 0)
(-0.00769351 0.0119593 0)
(-0.00912708 0.0116672 0)
(-0.0105773 0.0112984 0)
(-0.0120455 0.0108382 0)
(-0.0135322 0.0102686 0)
(-0.0150361 0.00956776 0)
(-0.0165536 0.00870942 0)
(-0.0180779 0.00766252 0)
(-0.0195969 0.00639075 0)
(-0.0210921 0.00485228 0)
(-0.022536 0.00299986 0)
(-0.0238886 0.000781444 0)
(-0.0250926 -0.00185845 0)
(-0.0260805 -0.00497784 0)
(-0.0267468 -0.0086142 0)
(-0.0269638 -0.0128336 0)
(-0.0265733 -0.0176402 0)
(-0.0253774 -0.0230172 0)
(-0.0231552 -0.0289078 0)
(-0.0196624 -0.0351543 0)
(-0.0146657 -0.0415345 0)
(-0.007958 -0.0477162 0)
(0.000605483 -0.0532761 0)
(0.0110811 -0.0577012 0)
(0.0235015 -0.0604684 0)
(0.037778 -0.0608503 0)
(0.053503 -0.0580221 0)
(0.0700681 -0.050989 0)
(0.0867175 -0.0388055 0)
(0.101769 -0.0204158 0)
(0.112832 0.00464257 0)
(0.117281 0.0368358 0)
(0.111028 0.0738937 0)
(0.0901867 0.111565 0)
(0.0505367 0.144161 0)
(0.000836078 0.152928 0)
(-0.0454596 0.143473 0)
(-0.0842191 0.113378 0)
(-0.106146 0.0763529 0)
(-0.113094 0.0391129 0)
(-0.109409 0.00770121 0)
(-0.098842 -0.0169874 0)
(-0.0843637 -0.0351284 0)
(-0.0685072 -0.0471966 0)
(-0.0526101 -0.0542695 0)
(-0.0374791 -0.0572461 0)
(-0.023747 -0.057127 0)
(-0.0117893 -0.0546221 0)
(-0.00169887 -0.050518 0)
(0.00654996 -0.0452828 0)
(0.0130103 -0.0394315 0)
(0.0178212 -0.0333789 0)
(0.0211873 -0.0274461 0)
(0.023337 -0.0218531 0)
(0.0245068 -0.0167403 0)
(0.0248962 -0.0121743 0)
(0.0247017 -0.0081506 0)
(0.0240884 -0.00467184 0)
(0.0231628 -0.00168481 0)
(0.0220209 0.000850618 0)
(0.0207319 0.00298791 0)
(0.0193489 0.00477857 0)
(0.0179102 0.00627085 0)
(0.0164427 0.00750842 0)
(0.0149648 0.00852989 0)
(0.0134881 0.00936918 0)
(0.0120197 0.0100555 0)
(0.0105635 0.0106133 0)
(0.00912115 0.0110631 0)
(0.00769242 0.011421 0)
(0.00627607 0.0117014 0)
(0.00487033 0.0119131 0)
(0.00347283 0.0120662 0)
(0.00208135 0.012164 0)
(0.000693282 0.0122081 0)
(-0.000711267 0.0139983 0)
(-0.00213623 0.0139682 0)
(-0.00356748 0.0138964 0)
(-0.00500972 0.0137845 0)
(-0.00646743 0.0136274 0)
(-0.00794542 0.0134184 0)
(-0.00944857 0.0131481 0)
(-0.0109818 0.0128045 0)
(-0.0125499 0.0123725 0)
(-0.0141572 0.011833 0)
(-0.0158069 0.0111625 0)
(-0.0175004 0.0103322 0)
(-0.0192365 0.00930744 0)
(-0.0210097 0.00804637 0)
(-0.0228081 0.00649953 0)
(-0.0246107 0.00460902 0)
(-0.0263838 0.00230827 0)
(-0.0280768 -0.000477555 0)
(-0.0296078 -0.00383041 0)
(-0.030882 -0.00782199 0)
(-0.0317611 -0.0125454 0)
(-0.0320425 -0.0180543 0)
(-0.0314974 -0.0243876 0)
(-0.0298228 -0.0314896 0)
(-0.0266837 -0.0392486 0)
(-0.0217474 -0.0474383 0)
(-0.0146902 -0.0556598 0)
(-0.00526828 -0.0634262 0)
(0.00662932 -0.0701468 0)
(0.0211595 -0.0751558 0)
(0.0383988 -0.0777339 0)
(0.0581656 -0.0768437 0)
(0.0800174 -0.0710388 0)
(0.103157 -0.0587161 0)
(0.125799 -0.0381929 0)
(0.145569 -0.00747041 0)
(0.157781 0.0344302 0)
(0.156364 0.0860071 0)
(0.135573 0.144466 0)
(0.0783603 0.201199 0)
(-0.00662768 0.21291 0)
(-0.0777707 0.196307 0)
(-0.127825 0.146189 0)
(-0.150822 0.0900779 0)
(-0.153305 0.0380579 0)
(-0.141349 -0.00418437 0)
(-0.122504 -0.0342694 0)
(-0.100552 -0.0543156 0)
(-0.0783553 -0.0664445 0)
(-0.0573669 -0.0723143 0)
(-0.0383524 -0.0734866 0)
(-0.0217005 -0.0712702 0)
(-0.00765438 -0.0666439 0)
(0.00381927 -0.060312 0)
(0.0129264 -0.0529354 0)
(0.0197354 -0.0451114 0)
(0.024496 -0.0373254 0)
(0.0275245 -0.0299366 0)
(0.0291535 -0.0231866 0)
(0.0297004 -0.0171611 0)
(0.0294656 -0.011923 0)
(0.0286628 -0.00741748 0)
(0.027467 -0.00359632 0)
(0.0260244 -0.000381492 0)
(0.0244231 0.00230013 0)
(0.0227365 0.00452374 0)
(0.021013 0.00635865 0)
(0.0192852 0.00786619 0)
(0.0175742 0.00909997 0)
(0.0158921 0.0101061 0)
(0.0142447 0.0109239 0)
(0.012634 0.0115858 0)
(0.0110591 0.0121192 0)
(0.00951742 0.0125458 0)
(0.00800482 0.0128836 0)
(0.00651686 0.0131466 0)
(0.00504877 0.0133449 0)
(0.00359574 0.0134878 0)
(0.00215329 0.0135791 0)
(0.0007169 0.0136195 0)
(-0.000727803 0.0154385 0)
(-0.00218656 0.0154137 0)
(-0.00365395 0.0153522 0)
(-0.00513633 0.0152559 0)
(-0.00664004 0.0151203 0)
(-0.00817207 0.0149387 0)
(-0.00973986 0.0147022 0)
(-0.0113514 0.0143992 0)
(-0.013015 0.0140144 0)
(-0.0147395 0.0135284 0)
(-0.0165333 0.012917 0)
(-0.0184039 0.0121496 0)
(-0.0203575 0.0111887 0)
(-0.0223967 0.00998791 0)
(-0.0245191 0.00849069 0)
(-0.026714 0.00662872 0)
(-0.0289582 0.00432048 0)
(-0.0312096 0.00147056 0)
(-0.0333978 -0.00202965 0)
(-0.0354274 -0.00630666 0)
(-0.0371529 -0.0114633 0)
(-0.0383607 -0.0176679 0)
(-0.0387429 -0.0249783 0)
(-0.0379281 -0.0334295 0)
(-0.0355004 -0.0429748 0)
(-0.0309377 -0.0533241 0)
(-0.0237717 -0.0640768 0)
(-0.0136644 -0.0746431 0)
(-0.000379114 -0.084338 0)
(0.0162495 -0.0923842 0)
(0.0365086 -0.0982332 0)
(0.060724 -0.100538 0)
(0.0888769 -0.0977063 0)
(0.120394 -0.0872213 0)
(0.153908 -0.0659661 0)
(0.186626 -0.0302118 0)
(0.213419 0.0220078 0)
(0.225646 0.0932425 0)
(0.206848 0.188441 0)
(0.116432 0.308787 0)
(-0.00863017 0.362492 0)
(-0.129787 0.288728 0)
(-0.203428 0.182638 0)
(-0.219286 0.0968986 0)
(-0.208583 0.0271357 0)
(-0.182443 -0.0263689 0)
(-0.149801 -0.0615508 0)
(-0.117297 -0.0817614 0)
(-0.0871081 -0.0919786 0)
(-0.0601244 -0.0950628 0)
(-0.0368209 -0.0932678 0)
(-0.0172132 -0.0878885 0)
(-0.00107981 -0.0804026 0)
(0.011809 -0.0711676 0)
(0.0215906 -0.0610531 0)
(0.0284928 -0.0507672 0)
(0.0328947 -0.0408958 0)
(0.0352454 -0.0318034 0)
(0.0360484 -0.0237845 0)
(0.0357188 -0.0168384 0)
(0.0345992 -0.0109105 0)
(0.0329962 -0.00600079 0)
(0.0310985 -0.0019095 0)
(0.0290385 0.00145559 0)
(0.0269096 0.00420804 0)
(0.0247771 0.00644888 0)
(0.0226807 0.00826623 0)
(0.0206433 0.00973511 0)
(0.0186765 0.010919 0)
(0.0167839 0.0118708 0)
(0.0149641 0.0126341 0)
(0.0132122 0.0132447 0)
(0.0115216 0.0137316 0)
(0.00988446 0.0141173 0)
(0.00829251 0.014421 0)
(0.00673766 0.0146559 0)
(0.00521186 0.014833 0)
(0.0037078 0.0149599 0)
(0.00221887 0.0150414 0)
(0.000738489 0.0150764 0)
(-0.000741399 0.016909 0)
(-0.00222803 0.0168907 0)
(-0.00372546 0.0168425 0)
(-0.00524154 0.0167666 0)
(-0.00678434 0.016659 0)
(-0.00836289 0.0165138 0)
(-0.00998724 0.0163229 0)
(-0.0116685 0.0160755 0)
(-0.0134189 0.0157572 0)
(-0.015252 0.0153491 0)
(-0.017182 0.0148272 0)
(-0.0192238 0.0141604 0)
(-0.0213918 0.0133097 0)
(-0.0236994 0.0122258 0)
(-0.0261564 0.0108466 0)
(-0.0287667 0.0090947 0)
(-0.0315233 0.00687451 0)
(-0.0344027 0.00406903 0)
(-0.037354 0.000536636 0)
(-0.0402759 -0.00389392 0)
(-0.0430707 -0.00940955 0)
(-0.0454905 -0.0161764 0)
(-0.0471722 -0.0244196 0)
(-0.0477067 -0.0343462 0)
(-0.0464328 -0.045878 0)
(-0.0426633 -0.0588273 0)
(-0.035773 -0.0727026 0)
(-0.0252299 -0.0867461 0)
(-0.0107331 -0.100146 0)
(0.00773705 -0.112225 0)
(0.0308529 -0.122291 0)
(0.0594758 -0.12946 0)
(0.0943516 -0.13208 0)
(0.136192 -0.126556 0)
(0.184711 -0.108154 0)
(0.237733 -0.0735811 0)
(0.288124 -0.0159554 0)
(0.316462 0.0808593 0)
(0.305433 0.24323 0)
(0.207448 0.34282 0)
(0.0574709 0.341524 0)
(-0.202194 0.312051 0)
(-0.309072 0.226022 0)
(-0.317478 0.0819695 0)
(-0.285043 -0.0100678 0)
(-0.232733 -0.0681492 0)
(-0.179202 -0.102712 0)
(-0.132096 -0.119605 0)
(-0.0925517 -0.124703 0)
(-0.059348 -0.12275 0)
(-0.0317245 -0.116434 0)
(-0.00926272 -0.107209 0)
(0.00872123 -0.095812 0)
(0.0228937 -0.0829116 0)
(0.0331102 -0.0693745 0)
(0.0397231 -0.0560375 0)
(0.0433272 -0.0436952 0)
(0.0445323 -0.032748 0)
(0.0440382 -0.0233137 0)
(0.0425119 -0.0154691 0)
(0.0402552 -0.0090298 0)
(0.0376266 -0.00375028 0)
(0.0348938 0.000499364 0)
(0.0321187 0.00390563 0)
(0.0293982 0.00662798 0)
(0.0267802 0.00879757 0)
(0.0242879 0.0105218 0)
(0.0219296 0.0118884 0)
(0.0197036 0.0129695 0)
(0.0176024 0.0138233 0)
(0.015615 0.0144967 0)
(0.0137288 0.0150269 0)
(0.0119303 0.015444 0)
(0.010206 0.0157709 0)
(0.00854297 0.0160265 0)
(0.00692905 0.0162226 0)
(0.00535289 0.0163711 0)
(0.00380457 0.0164766 0)
(0.0022755 0.0165454 0)
(0.000757209 0.0165731 0)
(-0.000751388 0.0184033 0)
(-0.00225858 0.0183931 0)
(-0.0037784 0.0183609 0)
(-0.00531998 0.0183094 0)
(-0.00689285 0.0182357 0)
(-0.00850787 0.018135 0)
(-0.0101775 0.0180006 0)
(-0.011916 0.0178232 0)