/*--------------------------------*- C++ -*----------------------------------*\
| =========                 |                                                 |
| \\      /  F ield         | OpenFOAM: The Open Source CFD Toolbox           |
|  \\    /   O peration     | Version:  2412                                  |
|   \\  /    A nd           | Website:  www.openfoam.com                      |
|    \\/     M anipulation  |                                                 |
\*---------------------------------------------------------------------------*/
FoamFile
{
    version     2.0;
    format      ascii;
    arch        "LSB;label=32;scalar=64";
    class       volScalarField;
    location    "5.95";
    object      p;
}
// * * * * * * * * * * * * * * * * * * * * * * * * * * * * * * * * * * * * * //

dimensions      [1 -1 -2 0 0 0 0];

internalField   nonuniform List<scalar> 
6400
(
9647.04
9646.21
9644.56
9642.11
9638.91
9634.99
9630.42
9625.25
9619.56
9613.44
9606.97
9600.27
9593.43
9586.57
9579.81
9573.25
9567.02
9561.22
9555.96
9551.34
9547.43
9544.3
9542.01
9540.57
9539.97
9540.21
9541.22
9542.94
9545.27
9548.09
9551.28
9554.7
9558.18
9561.58
9564.75
9567.54
9569.85
9571.57
9572.61
9572.94
9572.52
9571.38
9569.56
9567.14
9564.22
9560.9
9557.35
9553.69
9550.1
9546.71
9543.68
9541.14
9539.21
9538
9537.57
9537.99
9539.28
9541.45
9544.48
9548.33
9552.92
9558.2
9564.05
9570.38
9577.07
9584.01
9591.09
9598.17
9605.16
9611.95
9618.44
9624.53
9630.14
9635.21
9639.67
9643.46
9646.54
9648.89
9650.47
9651.26
9157.37
9156.52
9154.85
9152.37
9149.12
9145.15
9140.5
9135.26
9129.48
9123.27
9116.71
9109.9
9102.95
9095.97
9089.09
9082.42
9076.08
9070.18
9064.83
9060.12
9056.15
9052.99
9050.67
9049.22
9048.65
9048.93
9050.01
9051.82
9054.26
9057.22
9060.56
9064.12
9067.75
9071.3
9074.6
9077.52
9079.93
9081.72
9082.81
9083.16
9082.72
9081.54
9079.66
9077.14
9074.09
9070.64
9066.94
9063.13
9059.38
9055.85
9052.68
9050.03
9048
9046.71
9046.23
9046.62
9047.91
9050.1
9053.17
9057.07
9061.75
9067.11
9073.07
9079.51
9086.32
9093.38
9100.57
9107.77
9114.87
9121.75
9128.33
9134.5
9140.19
9145.32
9149.83
9153.66
9156.79
9159.15
9160.75
9161.55
8668.52
8667.65
8665.93
8663.39
8660.05
8655.96
8651.19
8645.79
8639.85
8633.45
8626.68
8619.66
8612.49
8605.28
8598.17
8591.26
8584.69
8578.58
8573.04
8568.18
8564.07
8560.81
8558.44
8556.99
8556.46
8556.84
8558.07
8560.07
8562.74
8565.97
8569.59
8573.46
8577.4
8581.25
8584.83
8588
8590.62
8592.56
8593.75
8594.13
8593.67
8592.4
8590.37
8587.65
8584.36
8580.64
8576.63
8572.51
8568.45
8564.62
8561.18
8558.28
8556.05
8554.6
8554.02
8554.35
8555.63
8557.86
8561.02
8565.05
8569.88
8575.44
8581.61
8588.27
8595.32
8602.62
8610.04
8617.46
8624.78
8631.86
8638.62
8644.96
8650.79
8656.04
8660.66
8664.58
8667.77
8670.19
8671.82
8672.64
8180.53
8179.63
8177.84
8175.19
8171.71
8167.46
8162.49
8156.86
8150.66
8143.98
8136.92
8129.57
8122.06
8114.5
8107.02
8099.76
8092.85
8086.42
8080.58
8075.46
8071.15
8067.75
8065.29
8063.83
8063.38
8063.9
8065.35
8067.64
8070.67
8074.3
8078.38
8082.71
8087.13
8091.44
8095.46
8099.02
8101.96
8104.14
8105.49
8105.92
8105.43
8104.02
8101.75
8098.72
8095.06
8090.9
8086.43
8081.83
8077.28
8072.99
8069.13
8065.86
8063.32
8061.63
8060.88
8061.13
8062.4
8064.7
8067.99
8072.22
8077.3
8083.15
8089.65
8096.66
8104.06
8111.72
8119.5
8127.27
8134.91
8142.3
8149.33
8155.91
8161.96
8167.4
8172.17
8176.23
8179.51
8182.01
8183.68
8184.53
7693.43
7692.48
7690.59
7687.81
7684.15
7679.67
7674.43
7668.5
7661.96
7654.9
7647.43
7639.64
7631.66
7623.62
7615.66
7607.91
7600.53
7593.65
7587.4
7581.93
7577.34
7573.72
7571.15
7569.68
7569.31
7570.03
7571.78
7574.47
7577.99
7582.19
7586.88
7591.88
7596.96
7601.92
7606.55
7610.64
7614.03
7616.56
7618.11
7618.63
7618.08
7616.48
7613.89
7610.43
7606.23
7601.47
7596.35
7591.07
7585.87
7580.94
7576.49
7572.7
7569.74
7567.72
7566.75
7566.88
7568.15
7570.54
7574.02
7578.53
7583.96
7590.22
7597.16
7604.65
7612.55
7620.71
7628.97
7637.21
7645.29
7653.08
7660.49
7667.4
7673.74
7679.43
7684.41
7688.63
7692.05
7694.64
7696.38
7697.26
7207.27
7206.26
7204.25
7201.29
7197.4
7192.63
7187.05
7180.74
7173.77
7166.24
7158.24
7149.89
7141.32
7132.67
7124.08
7115.7
7107.7
7100.23
7093.46
7087.52
7082.54
7078.65
7075.92
7074.41
7074.15
7075.11
7077.25
7080.47
7084.63
7089.57
7095.08
7100.94
7106.9
7112.72
7118.15
7122.96
7126.94
7129.92
7131.77
7132.39
7131.76
7129.91
7126.9
7122.85
7117.95
7112.39
7106.41
7100.25
7094.16
7088.4
7083.18
7078.72
7075.2
7072.76
7071.51
7071.5
7072.77
7075.29
7079.03
7083.91
7089.8
7096.59
7104.12
7112.24
7120.78
7129.58
7138.47
7147.31
7155.95
7164.26
7172.13
7179.46
7186.16
7192.16
7197.4
7201.83
7205.41
7208.12
7209.94
7210.86
6722.1
6721.01
6718.87
6715.69
6711.51
6706.39
6700.41
6693.63
6686.14
6678.03
6669.4
6660.37
6651.07
6641.65
6632.27
6623.11
6614.33
6606.13
6598.67
6592.13
6586.67
6582.4
6579.46
6577.9
6577.75
6579.02
6581.64
6585.52
6590.49
6596.37
6602.93
6609.89
6616.98
6623.9
6630.36
6636.09
6640.84
6644.4
6646.62
6647.38
6646.66
6644.47
6640.91
6636.12
6630.32
6623.73
6616.64
6609.35
6602.14
6595.3
6589.11
6583.81
6579.59
6576.62
6575.02
6574.84
6576.12
6578.83
6582.91
6588.26
6594.75
6602.22
6610.5
6619.41
6628.75
6638.35
6648.03
6657.61
6666.94
6675.88
6684.32
6692.15
6699.28
6705.65
6711.19
6715.87
6719.64
6722.49
6724.39
6725.35
6238.01
6236.83
6234.51
6231.07
6226.55
6221.02
6214.56
6207.23
6199.13
6190.34
6180.95
6171.1
6160.93
6150.58
6140.25
6130.11
6120.38
6111.26
6102.96
6095.67
6089.58
6084.85
6081.61
6079.96
6079.95
6081.57
6084.78
6089.46
6095.44
6102.49
6110.35
6118.7
6127.21
6135.52
6143.28
6150.18
6155.9
6160.21
6162.89
6163.84
6163
6160.39
6156.13
6150.4
6143.45
6135.56
6127.08
6118.35
6109.73
6101.56
6094.15
6087.8
6082.73
6079.12
6077.1
6076.73
6078.05
6081
6085.51
6091.47
6098.7
6107.03
6116.24
6126.13
6136.47
6147.05
6157.67
6168.15
6178.31
6188.01
6197.12
6205.54
6213.17
6219.96
6225.85
6230.81
6234.79
6237.79
6239.79
6240.8
5755.08
5753.77
5751.26
5747.51
5742.59
5736.57
5729.56
5721.61
5712.81
5703.23
5692.97
5682.16
5670.94
5659.49
5648.01
5636.71
5625.82
5615.58
5606.23
5598
5591.12
5585.78
5582.16
5580.37
5580.49
5582.53
5586.44
5592.09
5599.3
5607.8
5617.27
5627.34
5637.62
5647.66
5657.07
5665.42
5672.37
5677.6
5680.89
5682.06
5681.07
5677.94
5672.8
5665.89
5657.49
5647.98
5637.75
5627.24
5616.86
5607.04
5598.15
5590.51
5584.4
5580.02
5577.51
5576.95
5578.33
5581.6
5586.67
5593.4
5601.57
5610.95
5621.31
5632.38
5643.93
5655.69
5667.45
5679
5690.15
5700.73
5710.62
5719.7
5727.91
5735.16
5741.44
5746.7
5750.92
5754.08
5756.17
5757.24
5273.43
5271.92
5269.22
5265.1
5259.7
5253.11
5245.48
5236.85
5227.27
5216.8
5205.54
5193.62
5181.18
5168.43
5155.58
5142.88
5130.59
5118.98
5108.35
5098.97
5091.1
5085
5080.87
5078.87
5079.11
5081.61
5086.34
5093.16
5101.86
5112.12
5123.58
5135.78
5148.24
5160.45
5171.88
5182.05
5190.52
5196.92
5200.95
5202.42
5201.25
5197.46
5191.23
5182.84
5172.65
5161.1
5148.71
5135.98
5123.45
5111.6
5100.89
5091.7
5084.34
5079.06
5075.99
5075.21
5076.71
5080.41
5086.18
5093.88
5103.2
5113.89
5125.65
5138.17
5151.16
5164.34
5177.45
5190.25
5202.54
5214.14
5224.91
5234.76
5243.59
5251.35
5258.02
5263.61
5268.08
5271.42
5273.57
5274.74
4793.28
4791.31
4788.57
4783.94
4777.93
4770.69
4762.39
4753.04
4742.61
4731.16
4718.77
4705.57
4691.72
4677.44
4662.98
4648.61
4634.65
4621.4
4609.2
4598.4
4589.31
4582.22
4577.43
4575.12
4575.44
4578.46
4584.14
4592.35
4602.84
4615.25
4629.14
4643.96
4659.12
4673.99
4687.93
4700.36
4710.72
4718.57
4723.54
4725.39
4723.99
4719.39
4711.8
4701.56
4689.14
4675.08
4660
4644.54
4629.35
4615.03
4602.11
4591.05
4582.21
4575.87
4572.17
4571.19
4572.88
4577.15
4583.77
4592.71
4603.48
4615.76
4629.21
4643.47
4658.19
4673.04
4687.73
4702
4715.61
4728.37
4740.14
4750.82
4760.33
4768.61
4775.67
4781.6
4786.35
4789.9
4792.01
4793.38
4314.71
4312.43
4309.49
4304.17
4297.35
4289.34
4280.36
4270.29
4258.98
4246.45
4232.8
4218.15
4202.68
4186.62
4170.26
4153.92
4137.95
4122.72
4108.63
4096.08
4085.47
4077.16
4071.49
4068.73
4069.07
4072.63
4079.39
4089.24
4101.88
4116.9
4133.76
4151.8
4170.29
4188.45
4205.5
4220.7
4233.4
4243.04
4249.18
4251.51
4249.85
4244.25
4234.97
4222.44
4207.25
4190.06
4171.66
4152.84
4134.39
4117.05
4101.47
4088.18
4077.6
4070.03
4065.64
4064.48
4066.49
4071.52
4079.29
4089.72
4102.22
4116.44
4131.94
4148.29
4165.07
4181.9
4198.44
4214.4
4229.52
4243.59
4256.47
4268.07
4278.29
4287.06
4294.45
4300.69
4305.79
4309.63
4311.61
4313.22
3838.17
3835.74
3832.06
3825.81
3817.85
3808.92
3799.33
3788.69
3776.53
3762.84
3747.81
3731.53
3714.19
3696.06
3677.47
3658.8
3640.44
3622.84
3606.46
3591.78
3579.28
3569.44
3562.61
3559.18
3559.44
3563.55
3571.55
3583.31
3598.52
3616.7
3637.18
3659.18
3681.78
3704.02
3724.91
3743.54
3759.12
3770.96
3778.54
3781.49
3779.5
3772.67
3761.32
3745.97
3727.33
3706.27
3683.74
3660.77
3638.34
3617.34
3598.55
3582.59
3569.97
3561
3555.87
3554.59
3557.06
3563.13
3572.57
3584.62
3599.23
3615.8
3633.79
3652.66
3671.88
3691
3709.7
3727.63
3744.47
3759.99
3774.06
3786.62
3797.75
3806.81
3814.32
3820.87
3826.52
3830.66
3832.9
3834.57
3365.4
3361
3355.83
3348.3
3339.04
3328.86
3318.96
3308.26
3295.45
3280.5
3264.01
3245.91
3226.43
3205.88
3184.67
3163.25
3142.06
3121.61
3102.46
3085.16
3070.3
3058.49
3050.18
3045.85
3045.87
3050.51
3059.89
3073.91
3092.21
3114.22
3139.12
3165.97
3193.66
3220.94
3246.56
3269.41
3288.5
3303.01
3312.38
3316.16
3313.75
3305.43
3291.55
3272.71
3249.79
3223.93
3196.32
3168.22
3140.9
3115.47
3092.82
3073.7
3058.69
3048.14
3042.21
3040.87
3043.97
3051.23
3062.43
3076.88
3094.21
3113.69
3134.7
3156.58
3178.67
3200.46
3221.64
3241.91
3260.69
3277.82
3293.1
3306.58
3318.38
3327.37
3334.57
3341.65
3348.16
3352.87
3355.96
3358.47
2888.62
2884.3
2875.24
2869.05
2860.38
2848.74
2838.96
2828.61
2815.35
2799.62
2781.69
2761.62
2739.61
2716.11
2691.74
2667.18
2642.72
2618.91
2596.44
2575.98
2558.14
2543.84
2533.71
2528.11
2527.6
2532.64
2543.51
2560.16
2582.22
2608.92
2639.26
2672.05
2706.01
2739.55
2770.99
2799
2822.44
2840.17
2852.11
2856.56
2853.72
2843.63
2826.66
2803.49
2775.16
2743.29
2709.34
2674.89
2641.63
2610.87
2583.62
2560.76
2542.96
2530.64
2523.91
2522.67
2526.61
2535.3
2548.37
2566.25
2586.95
2609.98
2634.65
2660.13
2685.54
2710.15
2734.28
2757.31
2778.54
2797.42
2813.66
2827.48
2839.59
2848.61
2854.76
2862.25
2868.41
2871.42
2876.62
2879.22
2403.19
2388.1
2383.69
2386.46
2381.77
2368.36
2359.1
2349.87
2336.56
2319.99
2301.11
2279.18
2254.12
2226.7
2198.45
2170.4
2142.35
2114.76
2088.5
2064.36
2042.77
2025.57
2013.04
2005.55
2004
2009.17
2021.47
2040.94
2067.22
2099.54
2136.63
2176.98
2218.89
2260.28
2298.84
2333.26
2362.24
2384.13
2398.26
2403.89
2400.68
2388.65
2368.08
2339.62
2304.25
2264.84
2222.98
2180.83
2140.09
2102.73
2069.84
2042.42
2021.38
2007.29
2000.14
1999.52
2004.87
2015.45
2030.61
2053.01
2077.58
2104.77
2133.79
2163.5
2192.82
2219.85
2247.47
2274.08
2298.57
2319.31
2335.76
2349.65
2362.4
2370.98
2375.41
2382.66
2385.22
2380.16
2380.8
2391.71
1924.78
1900.52
1900.25
1907.84
1904.25
1888.94
1879.46
1873.73
1861.59
1843.88
1823.88
1800.04
1771.28
1738.88
1705.8
1673.15
1640.82
1608.87
1578.21
1550.09
1525.1
1504.87
1488.46
1477.91
1474.47
1479.15
1492.65
1515.18
1546.43
1585.35
1630.25
1679.82
1732.05
1783.57
1831.14
1873.67
1908.99
1935.56
1952.65
1959.91
1956.37
1942.14
1917.48
1882.93
1837.8
1789.41
1738
1685.83
1634.62
1589.48
1550.3
1517.79
1493.18
1477.27
1470.12
1471.08
1479.22
1493.39
1512.59
1537.58
1565.63
1597.7
1632.1
1666.75
1700.22
1731.98
1763.36
1794.31
1822.72
1845.62
1862.69
1876.95
1888.95
1895.04
1897.07
1904.34
1904.19
1893.42
1889.12
1908.45
1464.58
1442.28
1438.56
1443.14
1432.61
1412.78
1402.72
1402.43
1392.2
1374.51
1352.87
1325.93
1292.83
1254.9
1215.3
1175.97
1137.31
1099.36
1063.12
1031.21
1006.65
978.271
955.719
940.54
934.09
937.913
953.175
980.199
1018.78
1067.06
1121.26
1181.35
1246.2
1310.34
1368.85
1421.17
1464.07
1496.18
1516.84
1526.65
1522.99
1506.08
1475.94
1431.58
1377.62
1316.28
1248.24
1179.84
1121.04
1072.18
1026.56
987.174
957.347
938.227
930.11
932.505
944.843
965.994
994.177
1019.65
1049.06
1086.97
1128.56
1169.95
1209.51
1247.16
1284.08
1320.13
1352.74
1378.61
1397.29
1412.33
1421.56
1421.18
1420.66
1429.84
1434.37
1424.22
1422.53
1439.25
1015.42
999.578
992.476
987.503
968.58
945.181
933.944
932.411
927.557
912.81
889.147
858.46
820.359
775.751
727.417
678.511
630.834
584.286
539.206
501.557
465.797
435.233
410.813
394.168
386.494
389.834
405.503
435.296
481.832
543.115
614.006
687.367
763.27
841.999
913.22
976.248
1028.05
1066.22
1090.82
1101.39
1097.93
1079.83
1047.35
989.341
922.434
849.719
772.715
695.132
626.589
557.662
497.249
450.807
416.589
394.561
383.861
383.222
393.416
413.646
443.291
481.22
520.175
568.814
622.513
673.132
719.999
764.305
808.314
851.27
889.898
920.558
942.699
955.542
960.239
951.384
949.259
960.852
971.746
968.417
968.126
978.019
568.813
555.787
542.349
532.287
509.128
486.433
474.427
468.431
460.769
447.534
427.017
398.887
362.988
319.924
272.96
227.921
189.355
156.392
126.078
104.847
89.0503
76.2044
65.996
58.7352
54.6334
54.7829
59.4633
69.2318
86.0355
113.213
154.009
216.22
296.656
386.464
467.486
541.63
603.812
649.024
679.613
689.689
684.311
661.548
615.356
557.388
497.63
409.021
306.812
220.007
158.822
119.152
91.8116
74.004
62.3623
55.7134
53.2353
53.4663
58.0339
66.1498
78.2592
94.5793
115.185
143.498
182.738
222.223
263.525
306.538
351.125
394.62
434.299
466.918
488.278
498.47
497.758
488.019
484.218
496.961
510.905
510.146
510.371
513.977
192.125
183.106
172.609
158.376
137.021
119.856
112.474
113.218
112.052
106.153
96.2342
82.9387
66.5049
46.7766
26.9998
11.4551
1.31029
-5.00391
-8.5862
-9.12825
-8.79753
-8.67307
-8.64667
-8.58726
-8.49398
-8.39239
-8.26677
-8.16897
-8.33537
-8.57322
-6.03742
5.4738
30.7811
74.7378
133.066
196.237
246.183
283
306.187
314.701
311.612
296.823
264.317
217.481
152.959
84.8698
31.3069
3.02
-6.0723
-7.19848
-7.55129
-7.82823
-7.98019
-8.0842
-8.14984
-8.18763
-8.21503
-8.20026
-8.13996
-8.17512
-8.35565
-7.26903
-1.88419
7.586
22.1382
40.8936
62.8111
86.1525
107.288
124.471
133.993
137.24
132.287
123.289
120.279
129.935
140.565
143.057
143.891
143.159
3.65282
2.07859
-2.1062
-6.76192
-9.75434
-9.4494
-9.14012
-9.01602
-9.13125
-9.46838
-9.82921
-10.0026
-10.0871
-10.1139
-9.90359
-9.6499
-9.52052
-9.53806
-9.58104
-9.57545
-9.46197
-9.34174
-9.25619
-9.16542
-9.08535
-9.01283
-8.96618
-8.96166
-9.06255
-9.2367
-9.56726
-10.1637
-10.1063
-7.53897
2.0189
16.4242
36.5995
55.783
68.147
72.2249
69.2919
61.4226
43.1415
20.2743
-2.86145
-8.54364
-9.07052
-9.5386
-9.33763
-8.73255
-8.52809
-8.60385
-8.68405
-8.74969
-8.8012
-8.82738
-8.83535
-8.80696
-8.74174
-8.6931
-8.61267
-8.40351
-8.44265
-8.42993
-8.40182
-8.3515
-8.32793
-8.27261
-7.95621
-7.00702
-6.14581
-5.87586
-6.40212
-7.62005
-8.54708
-8.98461
-8.44911
-6.56021
-5.87605
-6.97767
-10.8406
-10.8412
-10.8388
-10.8698
-10.7855
-10.7523
-10.6981
-10.7006
-10.7186
-10.7239
-10.7273
-10.7614
-10.8242
-10.8243
-10.6712
-10.4269
-10.2259
-10.1537
-10.1542
-10.1389
-10.0609
-9.96335
-9.88425
-9.81305
-9.74491
-9.67401
-9.65371
-9.70731
-9.85678
-10.1122
-10.5397
-10.7731
-10.8058
-10.8523
-10.9994
-11.1719
-11.3689
-11.5302
-11.6465
-11.7429
-11.8162
-11.8423
-11.8996
-12.4504
-13.4555
-11.7267
-10.5214
-10.2637
-10.0114
-9.70874
-9.53001
-9.47074
-9.45785
-9.45758
-9.45422
-9.44546
-9.43
-9.40975
-9.39001
-9.36407
-9.2791
-9.17797
-9.10013
-8.99616
-8.92191
-8.87459
-8.86917
-8.92932
-9.09024
-9.28317
-9.43483
-9.56266
-9.66792
-9.73016
-9.76041
-9.8977
-10.0457
-9.99824
-9.97439
-9.92351
-11.3236
-11.3267
-11.3346
-11.3217
-11.1991
-11.1967
-11.1757
-11.1633
-11.1749
-11.1922
-11.2444
-11.3772
-11.5472
-11.6269
-11.5528
-11.3043
-11.0079
-10.821
-10.7555
-10.7194
-10.6542
-10.578
-10.5143
-10.4614
-10.4148
-10.3643
-10.3665
-10.4324
-10.5675
-10.7473
-11.0129
-11.1859
-11.2548
-11.3326
-11.4685
-11.628
-11.8022
-11.9433
-12.0571
-12.1644
-12.2562
-12.3311
-12.4382
-12.6222
-12.5881
-12.1212
-11.5422
-11.1663
-10.8423
-10.5887
-10.4284
-10.3181
-10.242
-10.1844
-10.1329
-10.0808
-10.0292
-9.99036
-9.98028
-9.98787
-9.96572
-9.91458
-9.818
-9.68326
-9.54802
-9.44618
-9.40004
-9.4307
-9.54744
-9.72671
-9.88607
-10.0226
-10.1306
-10.2072
-10.2773
-10.3855
-10.5186
-10.5488
-10.5414
-10.4784
-11.8234
-11.8061
-11.8074
-11.8005
-11.7685
-11.7404
-11.6924
-11.6576
-11.6555
-11.6892
-11.7773
-11.9494
-12.1618
-12.2803
-12.2466
-12.0313
-11.7039
-11.4844
-11.3853
-11.3142
-11.2463
-11.1809
-11.1273
-11.0884
-11.0663
-11.0516
-11.0854
-11.1799
-11.2741
-11.3418
-11.4883
-11.5949
-11.6556
-11.7431
-11.8631
-12.0124
-12.1636
-12.2907
-12.4115
-12.5335
-12.647
-12.7748
-12.9068
-12.9473
-12.7569
-12.4592
-12.1824
-11.9309
-11.6834
-11.4667
-11.285
-11.1336
-11.0126
-10.9081
-10.811
-10.7112
-10.6183
-10.5591
-10.5608
-10.6265
-10.7131
-10.7295
-10.6461
-10.497
-10.3209
-10.1764
-10.0842
-10.0499
-10.1016
-10.2313
-10.3952
-10.5348
-10.6368
-10.7069
-10.7893
-10.8923
-11.0009
-11.0374
-11.0251
-10.9743
-12.3425
-12.3487
-12.3513
-12.3363
-12.3031
-12.2764
-12.2439
-12.202
-12.1937
-12.2335
-12.318
-12.4538
-12.6062
-12.6911
-12.6597
-12.4997
-12.2557
-12.0754
-11.9759
-11.8997
-11.8322
-11.7718
-11.7231
-11.6877
-11.6722
-11.6838
-11.7685
-11.9072
-11.9684
-11.999
-12.0263
-12.0822
-12.1317
-12.2076
-12.3086
-12.4366
-12.5672
-12.6819
-12.8063
-12.9468
-13.0828
-13.238
-13.3567
-13.3501
-13.2011
-12.9839
-12.7931
-12.6214
-12.454
-12.302
-12.1616
-12.0297
-11.9035
-11.7591
-11.5932
-11.4126
-11.2398
-11.1222
-11.1009
-11.1764
-11.3038
-11.3946
-11.3962
-11.3056
-11.1599
-11.0033
-10.9077
-10.8397
-10.7991
-10.8491
-10.9667
-11.0923
-11.1713
-11.2369
-11.3317
-11.4441
-11.5249
-11.5349
-11.5083
-11.4628
-12.881
-12.9502
-12.9401
-12.894
-12.8331
-12.7924
-12.7783
-12.7722
-12.7903
-12.8392
-12.8944
-12.9431
-12.9764
-12.9756
-12.9239
-12.8238
-12.709
-12.6067
-12.531
-12.4653
-12.4041
-12.3523
-12.3113
-12.2803
-12.2646
-12.2844
-12.3984
-12.5661
-12.6244
-12.6191
-12.567
-12.5933
-12.6227
-12.6723
-12.7481
-12.8419
-12.9467
-13.0572
-13.2022
-13.3674
-13.5169
-13.6492
-13.7285
-13.7281
-13.6574
-13.5409
-13.4192
-13.3059
-13.2078
-13.1393
-13.1069
-13.0876
-13.0263
-12.8599
-12.6034
-12.3158
-12.022
-11.7866
-11.6708
-11.6884
-11.7945
-11.9135
-11.9708
-11.9728
-11.9258
-11.7989
-11.7284
-11.7091
-11.6261
-11.5822
-11.5927
-11.6785
-11.7355
-11.793
-11.88
-11.9951
-12.0535
-12.0709
-12.0616
-12.0111
-13.4279
-13.5298
-13.4651
-13.4128
-13.3396
-13.3012
-13.292
-13.323
-13.3828
-13.4606
-13.5024
-13.4796
-13.4032
-13.3188
-13.2458
-13.1944
-13.1557
-13.1183
-13.0709
-13.0164
-12.9657
-12.9248
-12.893
-12.8698
-12.8603
-12.8808
-12.9751
-13.116
-13.1745
-13.1622
-13.1071
-13.0776
-13.09
-13.1306
-13.1749
-13.228
-13.3073
-13.4211
-13.5898
-13.7727
-13.9217
-14.0239
-14.0876
-14.116
-14.1133
-14.0811
-14.0323
-13.9832
-13.9537
-13.9612
-14.003
-14.0453
-14.0116
-13.8493
-13.5845
-13.2813
-12.9318
-12.6066
-12.3828
-12.3004
-12.3269
-12.4072
-12.4789
-12.5363
-12.5626
-12.5218
-12.4736
-12.4965
-12.4486
-12.3518
-12.2862
-12.2971
-12.3429
-12.397
-12.4797
-12.5678
-12.6152
-12.651
-12.6563
-12.5976
-13.9418
-13.9902
-13.9435
-13.899
-13.8486
-13.8186
-13.8163
-13.8581
-13.9384
-14.021
-14.0574
-14.0101
-13.8956
-13.7885
-13.7222
-13.6742
-13.6517
-13.6331
-13.5989
-13.5572
-13.5203
-13.4921
-13.4703
-13.4555
-13.4538
-13.4759
-13.5423
-13.6369
-13.6831
-13.6682
-13.6192
-13.5614
-13.5462
-13.5814
-13.6007
-13.6133
-13.6686
-13.7917
-13.9782
-14.1792
-14.3346
-14.4287
-14.4983
-14.5572
-14.6041
-14.6274
-14.6335
-14.6407
-14.6703
-14.7225
-14.7757
-14.7921
-14.7265
-14.5804
-14.3415
-14.0663
-13.7666
-13.4466
-13.187
-13.0318
-12.9787
-13.0003
-13.0407
-13.0758
-13.1196
-13.1464
-13.1215
-13.1285
-13.1292
-13.0559
-13.0067
-12.9593
-12.9892
-13.0502
-13.1299
-13.1967
-13.2379
-13.26
-13.2362
-13.1723
-14.4299
-14.4336
-14.4156
-14.3913
-14.3597
-14.3396
-14.3407
-14.3758
-14.4465
-14.5136
-14.5468
-14.5022
-14.4118
-14.3164
-14.2508
-14.215
-14.1866
-14.1582
-14.1303
-14.1037
-14.0811
-14.0651
-14.0535
-14.0465
-14.0514
-14.0773
-14.13
-14.1971
-14.2321
-14.2082
-14.1437
-14.0688
-14.0307
-14.0489
-14.0487
-14.0268
-14.0615
-14.1895
-14.3982
-14.6207
-14.7881
-14.8778
-14.9543
-15.0372
-15.1164
-15.1767
-15.2176
-15.2674
-15.3431
-15.428
-15.4913
-15.4787
-15.3783
-15.1987
-14.9561
-14.6914
-14.4464
-14.1885
-13.9635
-13.7998
-13.7084
-13.6876
-13.6916
-13.693
-13.6907
-13.6966
-13.7034
-13.7096
-13.72
-13.6972
-13.6876
-13.6737
-13.6972
-13.7467
-13.8008
-13.8352
-13.8363
-13.8298
-13.8031
-13.7558
-14.907
-14.9053
-14.9008
-14.8888
-14.8707
-14.8578
-14.8583
-14.8786
-14.919
-14.96
-14.9788
-14.9525
-14.8982
-14.8353
-14.7757
-14.7343
-14.707
-14.689
-14.677
-14.6671
-14.6584
-14.6503
-14.644
-14.6418
-14.6563
-14.6989
-14.7624
-14.8261
-14.8514
-14.8112
-14.7209
-14.6235
-14.57
-14.5617
-14.5422
-14.499
-14.5179
-14.6475
-14.8696
-15.1083
-15.2759
-15.3616
-15.4377
-15.5317
-15.6286
-15.7126
-15.7823
-15.8615
-15.972
-16.0974
-16.1729
-16.1295
-15.9812
-15.758
-15.5034
-15.2474
-15.0246
-14.8224
-14.6514
-14.5227
-14.4455
-14.4111
-14.3931
-14.3778
-14.3399
-14.3008
-14.3003
-14.3066
-14.3133
-14.3229
-14.3419
-14.4214
-14.4603
-14.4698
-14.4596
-14.4542
-14.4308
-14.4321
-14.4183
-14.3765
-15.3819
-15.3883
-15.3932
-15.3914
-15.3832
-15.3737
-15.3675
-15.3693
-15.3864
-15.4048
-15.411
-15.3956
-15.3635
-15.3224
-15.2832
-15.2542
-15.2368
-15.2325
-15.2329
-15.2279
-15.2218
-15.2153
-15.2087
-15.2113
-15.2462
-15.3221
-15.4229
-15.5173
-15.5517
-15.4922
-15.3689
-15.2533
-15.177
-15.1397
-15.0975
-15.0568
-15.0724
-15.2003
-15.4146
-15.6439
-15.7961
-15.8707
-15.9382
-16.0375
-16.1387
-16.2309
-16.3147
-16.403
-16.5217
-16.6558
-16.7272
-16.6618
-16.4969
-16.2618
-16.024
-15.8009
-15.5981
-15.4224
-15.2849
-15.1963
-15.1528
-15.131
-15.1171
-15.0841
-15.0358
-14.9786
-14.9386
-14.9195
-14.9142
-14.9311
-14.9814
-15.1061
-15.182
-15.1609
-15.0812
-15.0431
-15.023
-15.0311
-15.0659
-15.0183
-15.8691
-15.8819
-15.8963
-15.9045
-15.9036
-15.8929
-15.8747
-15.8554
-15.8574
-15.8677
-15.8711
-15.8645
-15.8471
-15.8222
-15.7965
-15.7767
-15.7704
-15.7761
-15.7753
-15.7651
-15.7554
-15.7465
-15.7433
-15.7623
-15.8224
-15.9302
-16.0667
-16.1964
-16.2553
-16.1982
-16.0631
-15.945
-15.8488
-15.7835
-15.7255
-15.7002
-15.7366
-15.8698
-16.0647
-16.2646
-16.3792
-16.433
-16.4955
-16.5808
-16.6649
-16.7446
-16.8184
-16.8914
-16.9823
-17.0811
-17.121
-17.0794
-16.9569
-16.7724
-16.5786
-16.3882
-16.2157
-16.0729
-15.9623
-15.8858
-15.8459
-15.8372
-15.8411
-15.8175
-15.7545
-15.6877
-15.61
-15.5487
-15.5195
-15.5186
-15.5731
-15.6954
-15.7915
-15.7667
-15.6636
-15.6129
-15.6033
-15.614
-15.6658
-15.634
-16.3711
-16.388
-16.4128
-16.4323
-16.437
-16.4211
-16.3876
-16.343
-16.3278
-16.3417
-16.3491
-16.3497
-16.3414
-16.3268
-16.3101
-16.2981
-16.3001
-16.3041
-16.2986
-16.2912
-16.2843
-16.2786
-16.2812
-16.3089
-16.3836
-16.5129
-16.6758
-16.8287
-16.904
-16.8666
-16.7534
-16.6472
-16.5492
-16.4596
-16.4038
-16.4021
-16.4737
-16.6204
-16.7998
-16.9699
-17.0559
-17.0905
-17.1411
-17.2046
-17.2649
-17.305
-17.3288
-17.3621
-17.4214
-17.4911
-17.5353
-17.5218
-17.4671
-17.3427
-17.1965
-17.0334
-16.8949
-16.7824
-16.6941
-16.6231
-16.5685
-16.5395
-16.5409
-16.5447
-16.4885
-16.389
-16.2745
-16.1863
-16.133
-16.108
-16.144
-16.2308
-16.3055
-16.2933
-16.2154
-16.1728
-16.1658
-16.1681
-16.1985
-16.1969
-16.8825
-16.9023
-16.9369
-16.9668
-16.974
-16.9479
-16.9025
-16.8524
-16.8081
-16.8276
-16.8408
-16.8453
-16.8423
-16.8338
-16.8232
-16.8175
-16.8209
-16.8222
-16.8179
-16.8153
-16.814
-16.8145
-16.8194
-16.8418
-16.9126
-17.0518
-17.2308
-17.4042
-17.4804
-17.4661
-17.3913
-17.3115
-17.2218
-17.1206
-17.091
-17.1119
-17.2179
-17.3753
-17.5382
-17.6774
-17.7542
-17.781
-17.8296
-17.9008
-17.9342
-17.9134
-17.8726
-17.8641
-17.9035
-17.964
-18.0179
-18.0455
-18.0514
-17.9814
-17.855
-17.7153
-17.5991
-17.5041
-17.4328
-17.3776
-17.3145
-17.2454
-17.2169
-17.21
-17.1732
-17.0634
-16.9329
-16.8295
-16.7579
-16.7171
-16.723
-16.7516
-16.7927
-16.7889
-16.7469
-16.7175
-16.7072
-16.697
-16.6991
-16.6974
-17.3953
-17.412
-17.4513
-17.4898
-17.496
-17.4597
-17.4193
-17.3827
-17.3404
-17.3428
-17.3509
-17.3515
-17.3489
-17.3429
-17.3364
-17.3347
-17.3361
-17.3377
-17.3399
-17.3414
-17.3429
-17.3494
-17.359
-17.374
-17.4423
-17.5828
-17.7539
-17.9029
-17.9813
-17.988
-17.9532
-17.9015
-17.8159
-17.7279
-17.7446
-17.7825
-17.9168
-18.0783
-18.2256
-18.336
-18.3997
-18.4338
-18.5059
-18.5847
-18.6023
-18.5464
-18.4646
-18.4209
-18.4343
-18.4777
-18.525
-18.5857
-18.638
-18.6369
-18.5088
-18.3852
-18.2851
-18.1882
-18.1124
-18.0712
-18.0361
-17.9716
-17.9133
-17.8725
-17.8196
-17.726
-17.5966
-17.4784
-17.3897
-17.3329
-17.3056
-17.2879
-17.3002
-17.2987
-17.2781
-17.2556
-17.2397
-17.2201
-17.2013
-17.1884
-17.9038
-17.9137
-17.945
-17.9846
-17.9918
-17.969
-17.9493
-17.9342
-17.9168
-17.8936
-17.877
-17.8667
-17.8602
-17.8539
-17.8493
-17.849
-17.8508
-17.8553
-17.8629
-17.866
-17.8684
-17.8862
-17.9157
-17.9469
-18.0155
-18.1333
-18.2625
-18.3662
-18.4264
-18.4385
-18.4297
-18.3917
-18.3275
-18.2852
-18.3272
-18.3916
-18.5504
-18.7158
-18.8507
-18.946
-19.0042
-19.0589
-19.1578
-19.261
-19.3017
-19.2412
-19.1253
-19.0342
-19.0015
-19.0091
-19.0341
-19.1061
-19.1833
-19.2261
-19.1185
-19.0143
-18.9146
-18.8126
-18.7326
-18.6955
-18.6884
-18.6755
-18.6392
-18.5888
-18.4962
-18.3912
-18.2615
-18.1305
-18.0247
-17.9502
-17.8967
-17.851
-17.8425
-17.8385
-17.822
-17.7987
-17.7777
-17.7539
-17.7254
-17.7065
-18.4014
-18.4067
-18.4288
-18.4558
-18.4706
-18.4765
-18.4835
-18.4949
-18.495
-18.4545
-18.4082
-18.3849
-18.3737
-18.366
-18.3613
-18.36
-18.3615
-18.3711
-18.3878
-18.3929
-18.3933
-18.4193
-18.4818
-18.5473
-18.601
-18.6823
-18.7792
-18.8281
-18.8405
-18.827
-18.8171
-18.795
-18.7754
-18.7876
-18.8517
-18.9442
-19.1224
-19.3055
-19.4318
-19.5331
-19.6
-19.6762
-19.8102
-19.9843
-20.0909
-20.0531
-19.9205
-19.759
-19.632
-19.5729
-19.555
-19.5983
-19.6961
-19.7462
-19.6746
-19.5821
-19.4854
-19.3905
-19.3231
-19.3006
-19.3054
-19.3336
-19.3621
-19.334
-19.2172
-19.0614
-18.9207
-18.7786
-18.6549
-18.5668
-18.4973
-18.4414
-18.4172
-18.4027
-18.3781
-18.3496
-18.3245
-18.2999
-18.2711
-18.2475
-18.8934
-18.8962
-18.9071
-18.9206
-18.9417
-18.9624
-18.9923
-19.025
-19.0262
-18.9739
-18.9252
-18.9018
-18.8861
-18.8772
-18.8724
-18.8696
-18.8727
-18.8878
-18.9239
-18.9519
-18.952
-18.9626
-19.0287
-19.1157
-19.1534
-19.1938
-19.2579
-19.2694
-19.2257
-19.1789
-19.1544
-19.1579
-19.1974
-19.2553
-19.3337
-19.4531
-19.6469
-19.8548
-19.9865
-20.1109
-20.202
-20.3003
-20.4928
-20.775
-21.0096
-21.0672
-20.9429
-20.6853
-20.3919
-20.189
-20.0999
-20.0894
-20.1778
-20.2303
-20.1786
-20.0915
-20.0191
-19.9406
-19.8911
-19.8999
-19.933
-20.0041
-20.0981
-20.0934
-19.9626
-19.7535
-19.5748
-19.4158
-19.2717
-19.1689
-19.0994
-19.0479
-19.0113
-18.9776
-18.9388
-18.9039
-18.8755
-18.8516
-18.8289
-18.8062
-19.3814
-19.381
-19.3832
-19.3903
-19.4028
-19.4198
-19.4554
-19.4914
-19.49
-19.4529
-19.4224
-19.4042
-19.3923
-19.3855
-19.3828
-19.3837
-19.3867
-19.4044
-19.4511
-19.5115
-19.5276
-19.5225
-19.5549
-19.629
-19.6529
-19.654
-19.6732
-19.6621
-19.6045
-19.5388
-19.5009
-19.5255
-19.6138
-19.71
-19.799
-19.9375
-20.1413
-20.3683
-20.5246
-20.6736
-20.8016
-20.9317
-21.1824
-21.5698
-21.9651
-22.162
-22.0619
-21.7276
-21.2795
-20.8832
-20.6809
-20.6058
-20.6393
-20.6761
-20.6281
-20.5613
-20.5098
-20.4616
-20.4487
-20.5026
-20.5836
-20.7014
-20.8307
-20.8505
-20.7185
-20.479
-20.2334
-20.0394
-19.8669
-19.7495
-19.697
-19.6575
-19.6083
-19.5501
-19.4968
-19.456
-19.4247
-19.4012
-19.3851
-19.3672
-19.8685
-19.8686
-19.867
-19.8661
-19.8665
-19.8801
-19.9078
-19.9304
-19.9312
-19.9182
-19.9081
-19.8994
-19.8932
-19.8897
-19.8895
-19.8926
-19.899
-19.9158
-19.9495
-20.0096
-20.0428
-20.0419
-20.0527
-20.0937
-20.1102
-20.0909
-20.0882
-20.0664
-20.0064
-19.9412
-19.8989
-19.9255
-20.0343
-20.1621
-20.273
-20.418
-20.6241
-20.855
-21.0395
-21.2064
-21.3647
-21.5303
-21.8085
-22.2354
-22.72
-22.9979
-22.9546
-22.6212
-22.1165
-21.6013
-21.2826
-21.1432
-21.1043
-21.095
-21.0482
-20.9926
-20.953
-20.938
-20.9637
-21.0548
-21.1875
-21.3561
-21.5133
-21.5603
-21.4446
-21.2089
-20.9184
-20.6447
-20.4297
-20.3196
-20.292
-20.262
-20.1919
-20.1108
-20.0473
-20.0016
-19.9677
-19.9434
-19.9308
-19.9173
-20.3583
-20.3594
-20.3575
-20.3538
-20.3526
-20.3634
-20.3814
-20.395
-20.3996
-20.3985
-20.396
-20.393
-20.3911
-20.3909
-20.3932
-20.3983
-20.4067
-20.4209
-20.4438
-20.4821
-20.5217
-20.5489
-20.5675
-20.5772
-20.5673
-20.5473
-20.5459
-20.5259
-20.4665
-20.4015
-20.3643
-20.3828
-20.4859
-20.6291
-20.7597
-20.9074
-21.1033
-21.3186
-21.5161
-21.6917
-21.8625
-22.0471
-22.3166
-22.7214
-23.1743
-23.4642
-23.4728
-23.2229
-22.7508
-22.2357
-21.8573
-21.6627
-21.5699
-21.5133
-21.4543
-21.3951
-21.3581
-21.3594
-21.4115
-21.5128
-21.6662
-21.8714
-22.0814
-22.1655
-22.082
-21.8695
-21.5545
-21.2004
-20.9598
-20.8966
-20.8833
-20.848
-20.748
-20.6562
-20.5867
-20.5369
-20.5014
-20.4763
-20.4645
-20.4548
-20.8505
-20.852
-20.851
-20.849
-20.8496
-20.857
-20.8678
-20.8769
-20.8823
-20.8847
-20.8858
-20.8863
-20.8874
-20.8899
-20.8943
-20.9013
-20.9115
-20.9259
-20.947
-20.9796
-21.02
-21.0535
-21.0667
-21.0616
-21.0459
-21.0332
-21.0319
-21.0174
-20.9703
-20.9183
-20.8877
-20.9094
-20.9925
-21.1239
-21.2603
-21.4045
-21.5811
-21.7685
-21.9536
-22.1252
-22.2915
-22.4599
-22.6841
-23.0136
-23.3843
-23.6393
-23.6793
-23.5057
-23.1444
-22.702
-22.3474
-22.1298
-22.0082
-21.9228
-21.848
-21.7822
-21.7432
-21.7458
-21.8005
-21.8952
-22.0386
-22.2325
-22.4554
-22.5826
-22.5326
-22.3263
-22.0108
-21.6982
-21.5087
-21.4778
-21.4623
-21.3958
-21.2839
-21.184
-21.1118
-21.0603
-21.0242
-20.9997
-20.9876
-20.9805
-21.3438
-21.3447
-21.3447
-21.3445
-21.3464
-21.3516
-21.3586
-21.3651
-21.3701
-21.3739
-21.3768
-21.3795
-21.3827
-21.387
-21.3931
-21.4014
-21.4126
-21.4273
-21.4472
-21.4758
-21.5133