/*--------------------------------*- C++ -*----------------------------------*\
| =========                 |                                                 |
| \\      /  F ield         | OpenFOAM: The Open Source CFD Toolbox           |
|  \\    /   O peration     | Version:  2412                                  |
|   \\  /    A nd           | Website:  www.openfoam.com                      |
|    \\/     M anipulation  |                                                 |
\*---------------------------------------------------------------------------*/
FoamFile
{
    version     2.0;
    format      ascii;
    arch        "LSB;label=32;scalar=64";
    class       volScalarField;
    location    "3.37";
    object      p_rgh;
}
// * * * * * * * * * * * * * * * * * * * * * * * * * * * * * * * * * * * * * //

dimensions      [1 -1 -2 0 0 0 0];

internalField   nonuniform List<scalar> 
80000
(
29416.6
29416.7
29416.7
29416.7
29416.7
29416.7
29416.7
29416.7
29416.8
29416.8
29416.9
29416.9
29417
29417.1
29417.1
29417.2
29417.3
29417.4
29417.5
29417.6
29417.8
29417.9
29418
29418.1
29418.3
29418.4
29418.6
29418.8
29418.9
29419.1
29419.3
29419.5
29419.7
29419.9
29420.1
29420.3
29420.5
29420.7
29421
29421.2
29421.4
29421.7
29422
29422.2
29422.5
29422.8
29423.1
29423.4
29423.7
29424
29424.3
29424.7
29425
29425.4
29425.7
29426.1
29426.5
29426.9
29427.3
29427.7
29428.1
29428.5
29429
29429.4
29429.9
29430.3
29430.8
29431.3
29431.8
29432.3
29432.8
29433.4
29433.9
29434.5
29435.1
29435.6
29436.2
29436.8
29437.5
29438.1
29438.7
29439.4
29440.1
29440.8
29441.5
29442.2
29442.9
29443.7
29444.4
29445.2
29446
29446.8
29447.6
29448.5
29449.3
29450.2
29451.1
29452
29452.9
29453.9
29454.9
29455.8
29456.9
29457.9
29458.9
29460
29461.1
29462.2
29463.3
29464.5
29465.6
29466.8
29468.1
29469.3
29470.6
29471.9
29473.2
29474.5
29475.9
29477.3
29478.7
29480.1
29481.6
29483.1
29484.6
29486.2
29487.8
29489.4
29491
29492.7
29494.4
29496.2
29497.9
29499.7
29501.6
29503.5
29505.4
29507.3
29509.3
29511.3
29513.4
29515.5
29517.6
29519.8
29522
29524.2
29526.5
29528.8
29531.2
29533.6
29536.1
29538.6
29541.2
29543.8
29546.4
29549.1
29551.8
29554.6
29557.5
29560.4
29563.3
29566.3
29569.4
29572.5
29575.6
29578.9
29582.1
29585.5
29588.9
29592.3
29595.8
29599.4
29603
29606.7
29610.5
29614.3
29618.2
29622.2
29626.2
29630.4
29634.5
29638.8
29643.1
29647.5
29652
29656.5
29661.2
29665.9
29670.7
29675.5
29680.5
29685.5
29690.7
29695.9
29701.2
29706.6
29712
29717.6
29723.3
29729
29734.9
29740.8
29746.9
29753
29759.3
29765.6
29772.1
29778.6
29785.3
29792
29798.9
29805.9
29813
29820.2
29827.6
29835
29842.6
29850.3
29858.1
29866
29874.1
29882.2
29890.6
29899
29907.5
29916.2
29925.1
29934
29943.1
29952.3
29961.7
29971.2
29980.9
29990.7
30000.6
30010.7
30020.9
30031.3
30041.8
30052.5
30063.3
30074.3
30085.4
30096.7
30108.1
30119.7
30131.5
30143.4
30155.5
30167.7
30180.1
30192.7
30205.4
30218.3
30231.4
30244.6
30258
30271.6
30285.3
30299.2
30313.3
30327.5
30341.9
30356.5
30371.2
30386.2
30401.2
30416.5
30431.9
30447.5
30463.3
30479.3
30495.4
30511.6
30528.1
30544.7
30561.5
30578.4
30595.5
30612.8
30630.2
30647.8
30665.5
30683.4
30701.5
30719.7
30738.1
30756.6
30775.2
30794
30812.9
30831.9
30851.1
30870.4
30889.9
30909.4
30929.1
30948.9
30968.8
30988.8
31008.9
31029
31049.3
31069.7
31090.1
31110.6
31131.1
31151.8
31172.4
31193.1
31213.9
31234.6
31255.4
31276.2
31297
31317.8
31338.6
31359.3
31380.1
31400.7
31421.4
31441.9
31462.4
31482.8
31503.1
31523.3
31543.3
31563.2
31583
31602.6
31622
31641.3
31660.3
31679.1
31697.7
31716
31734.1
31751.9
31769.4
31786.5
31803.4
31819.9
31836
31851.7
31867
31881.9
31896.3
31910.3
31923.8
31936.8
31949.2
31961.1
31972.5
31983.2
31993.3
32002.8
32011.6
32019.8
32027.2
32033.9
32039.9
32045
32049.4
32053
32055.6
32057.5
32058.4
32058.4
32057.4
32055.5
32052.6
32048.7
32043.7
32037.7
32030.6
32022.4
32013
32002.6
31991
31978.2
31964.2
31949
31932.5
31914.9
31896
31875.8
31854.4
31831.7
31807.7
31782.4
31755.9
31728
31698.9
31668.5
31636.8
31603.8
31569.5
31533.9
31497.1
31459
31419.7
31379.1
31337.3
31294.3
31250
31204.6
31158.1
31110.3
31061.4
31011.4
30960.3
30908.2
30854.9
30800.6
30745.3
30689
30631.7
30573.5
30514.3
30454.3
30393.3
30331.5
30268.8
30205.4
30141.1
30076.2
30010.4
29943.9
29876.8
29809.2
29740.9
29672.1
29602.7
29532.9
29462.7
29392.1
29321
29249.7
29178
29106.1
29034.1
28961.9
28889.7
28817.4
28745.2
28673.1
28601.1
28529.4
28457.9
28386.9
28316.3
28246.2
28176.7
28107.8
28039.8
27972.6
27906.4
27841.2
27777.1
27714.3
27652.8
27592.8
27534.4
27477.6
27422.6
27369.5
27318.4
27269.4
27222.6
27178.1
27136.1
27096.6
27059.7
27025.6
26994.4
26966
26940.7
26918.4
26899.3
26883.4
26870.8
26861.6
26855.7
26853.3
26854.3
26858.8
26866.7
26878.2
26893.2
26911.5
26933.4
26958.6
26987.1
27019
27054
27092.2
27133.5
27177.7
27224.8
27274.5
27326.9
27381.8
27438.9
27498.3
27559.6
27622.8
27687.6
27753.9
27821.5
27890.2
27959.7
28030
28100.7
28171.7
28242.8
28313.7
28384.3
28454.3
28523.6
28591.9
28659.1
28724.9
28789.2
28851.7
28912.4
28971.1
29027.6
29081.8
29133.6
29182.7
29229
29272.6
29313.3
29350.8
29385.3
29416.8
29445.1
29470.2
29492.1
29510.7
29526.1
29538.2
29547.1
29552.8
29555.3
29554.6
29550.8
29544.1
29534.3
29521.7
29506.3
29488.3
29467.6
29444.5
29419
29391.3
29361.6
29330
29296.6
29261.6
29225.2
29187.6
29148.9
29109.4
29069.3
29028.9
28988.2
28947.7
28907.4
28867.7
28828.7
28790.8
28754.2
28719.2
28685.9
28654.6
28625.6
28599
28575.2
28554.2
28536.2
28521.4
28510
28502
28497.6
28496.6
28499.3
28505.5
28515.3
28528.5
28545.1
28564.9
28587.7
28613.5
28642
28673
28706.3
28741.6
28778.6
28817.2
28857.1
28897.9
28939.4
28981.4
29023.5
29065.6
29107.3
29148.5
29188.8
29228.1
29266.1
29302.6
29337.3
29370.2
29400.9
29429.4
29455.5
29479
29499.7
29517.5
29532.3
29543.9
29552.3
29557.4
29559
29557.1
29551.6
29542.5
29529.7
29513.2
29493
29469.1
29441.5
29410.2
29375.3
29336.8
29294.8
29249.2
29200.3
29148.2
29092.9
29034.6
28973.7
28910.1
28844.1
28775.8
28705.5
28633.5
28559.8
28484.9
28408.9
28332.1
28254.8
28177.3
28099.7
28022.5
27945.8
27870
27795.2
27721.9
27650.2
27580.4
27512.8
27447.5
27384.9
27325.2
27268.4
27215
27165
27118.6
27075.9
27037.2
27002.5
26972
26945.7
26923.7
26906.2
26893.1
26884.5
26880.4
26880.8
26885.8
26895.2
26909
26927.3
26949.8
26976.6
27007.5
27042.4
27081.3
27123.9
27170.2
27220
27273.2
27329.6
27389.1
27451.4
27516.4
27584
27654
27726.1
27800.3
27876.3
27954
28033.2
28113.8
28195.5
28278.3
28362
28446.5
28531.6
28617.1
28703
28789.2
28875.4
28961.7
29047.9
29133.8
29219.6
29304.8
29389.6
29473.8
29557.6
29640.6
29722.9
29804.3
29884.8
29964.5
30043.3
30121
30197.5
30272.9
30347.1
30420.1
30491.8
30562.2
30631.3
30698.9
30765.2
30830.1
30893.4
30955.3
31015.7
31074.4
31131.7
31187.3
31241.2
31293.5
31344.2
31393.1
31440.3
31485.8
31529.5
31571.4
31611.5
31649.8
31686.2
31720.8
31753.6
31784.5
31813.5
31840.6
31865.9
31889.2
31910.7
31930.4
31948.2
31964.1
31978.2
31990.5
32001.1
32009.8
32016.9
32022.2
32025.9
32027.9
32028.4
32027.3
32024.6
32020.6
32015
32008.1
31999.8
31990.3
31979.5
31967.4
31954.2
31939.9
31924.5
31908.1
31890.7
31872.3
31853.1
31832.9
31812
31790.3
31767.8
31744.6
31720.8
31696.3
31671.3
31645.7
31619.6
31593
31565.9
31538.5
31510.7
31482.6
31454.2
31425.5
31396.5
31367.4
31338.1
31308.7
31279.1
31249.5
31219.8
31190.1
31160.4
31130.8
31101.1
31071.6
31042.1
31012.8
30983.6
30954.5
30925.6
30896.9
30868.4
30840.2
30812.1
30784.3
30756.8
30729.5
30702.5
30675.8
30649.3
30623.2
30597.4
30571.9
30546.8
30521.9
30497.4
30473.3
30449.5
30426
30402.9
30380.1
30357.7
30335.7
30314
30292.6
30271.7
30251
30230.8
30210.9
30191.3
30172.1
30153.3
30134.8
30116.7
30098.9
30081.4
30064.3
30047.6
30031.1
30015
29999.3
29983.8
29968.7
29953.9
29939.5
29925.3
29911.5
29897.9
29884.7
29871.7
29859
29846.7
29834.6
29822.8
29811.2
29800
29789
29778.2
29767.7
29757.5
29747.5
29737.8
29728.3
29719
29709.9
29701.1
29692.5
29684.2
29676
29668
29660.3
29652.7
29645.4
29638.2
29631.2
29624.4
29617.8
29611.4
29605.1
29599
29593.1
29587.3
29581.7
29576.2
29570.9
29565.7
29560.7
29555.8
29551.1
29546.5
29542
29537.6
29533.4
29529.3
29525.3
29521.4
29517.7
29514
29510.5
29507
29503.7
29500.4
29497.3
29494.2
29491.3
29488.4
29485.6
29482.9
29480.3
29477.8
29475.3
29472.9
29470.6
29468.4
29466.2
29464.1
29462.1
29460.1
29458.2
29456.4
29454.6
29452.9
29451.2
29449.6
29448.1
29446.6
29445.1
29443.7
29442.3
29441
29439.8
29438.6
29437.4
29436.3
29435.2
29434.1
29433.1
29432.1
29431.2
29430.3
29429.4
29428.6
29427.8
29427
29426.3
29425.6
29424.9
29424.3
29423.7
29423.1
29422.6
29422
29421.5
29421.1
29420.6
29420.2
29419.8
29419.5
29419.1
29418.8
29418.5
29418.2
29418
29417.8
29417.6
29417.4
29417.2
29417.1
29417
29416.9
29416.8
29416.8
29416.8
29416.5
29416.5
29416.6
29416.6
29416.6
29416.7
29416.7
29416.8
29416.8
29416.9
29416.9
29417
29417.1
29417.2
29417.2
29417.3
29417.4
29417.5
29417.6
29417.7
29417.8
29417.9
29418
29418.2
29418.3
29418.5
29418.6
29418.8
29418.9
29419.1
29419.3
29419.5
29419.6
29419.8
29420
29420.3
29420.5
29420.7
29420.9
29421.2
29421.4
29421.7
29421.9
29422.2
29422.5
29422.8
29423.1
29423.4
29423.7
29424
29424.3
29424.7
29425
29425.4
29425.7
29426.1
29426.5
29426.9
29427.3
29427.7
29428.1
29428.5
29428.9
29429.4
29429.8
29430.3
29430.8
29431.3
29431.8
29432.3
29432.8
29433.4
29433.9
29434.5
29435
29435.6
29436.2
29436.8
29437.4
29438.1
29438.7
29439.4
29440.1
29440.7
29441.4
29442.2
29442.9
29443.6
29444.4
29445.2
29446
29446.8
29447.6
29448.4
29449.3
29450.2
29451.1
29452
29452.9
29453.9
29454.8
29455.8
29456.8
29457.8
29458.9
29460
29461
29462.1
29463.3
29464.4
29465.6
29466.8
29468
29469.3
29470.5
29471.8
29473.1
29474.5
29475.8
29477.2
29478.6
29480.1
29481.6
29483.1
29484.6
29486.1
29487.7
29489.3
29491
29492.7
29494.4
29496.1
29497.9
29499.7
29501.5
29503.4
29505.3
29507.2
29509.2
29511.2
29513.3
29515.4
29517.5
29519.7
29521.9
29524.1
29526.4
29528.8
29531.1
29533.6
29536
29538.5
29541.1
29543.7
29546.3
29549
29551.8
29554.6
29557.4
29560.3
29563.2
29566.2
29569.3
29572.4
29575.5
29578.8
29582
29585.4
29588.8
29592.2
29595.7
29599.3
29602.9
29606.6
29610.4
29614.2
29618.1
29622.1
29626.1
29630.2
29634.4
29638.7
29643
29647.4
29651.9
29656.4
29661
29665.8
29670.5
29675.4
29680.4
29685.4
29690.5
29695.7
29701
29706.4
29711.9
29717.5
29723.1
29728.9
29734.7
29740.7
29746.7
29752.9
29759.1
29765.4
29771.9
29778.4
29785.1
29791.9
29798.8
29805.8
29812.9
29820.1
29827.4
29834.8
29842.4
29850.1
29857.9
29865.8
29873.9
29882.1
29890.4
29898.8
29907.3
29916
29924.9
29933.8
29942.9
29952.1
29961.5
29971
29980.7
29990.4
30000.4
30010.5
30020.7
30031.1
30041.6
30052.2
30063.1
30074
30085.2
30096.5
30107.9
30119.5
30131.2
30143.2
30155.2
30167.5
30179.9
30192.4
30205.2
30218.1
30231.1
30244.3
30257.7
30271.3
30285
30298.9
30313
30327.2
30341.6
30356.2
30371
30385.9
30401
30416.3
30431.7
30447.3
30463.1
30479
30495.1
30511.4
30527.8
30544.5
30561.2
30578.2
30595.3
30612.6
30630
30647.6
30665.3
30683.2
30701.3
30719.5
30737.8
30756.3
30775
30793.8
30812.7
30831.7
30850.9
30870.2
30889.7
30909.2
30928.9
30948.7
30968.6
30988.6
31008.7
31028.9
31049.2
31069.5
31090
31110.5
31131
31151.7
31172.3
31193
31213.8
31234.6
31255.4
31276.2
31297
31317.8
31338.6
31359.4
31380.1
31400.8
31421.4
31442
31462.5
31482.9
31503.2
31523.4
31543.5
31563.4
31583.2
31602.8
31622.3
31641.5
31660.6
31679.4
31698
31716.4
31734.5
31752.3
31769.8
31787
31803.8
31820.3
31836.5
31852.2
31867.5
31882.5
31896.9
31910.9
31924.4
31937.5
31949.9
31961.9
31973.2
31984
31994.2
32003.7
32012.5
32020.7
32028.2
32034.9
32040.9
32046.1
32050.5
32054
32056.8
32058.6
32059.5
32059.6
32058.6
32056.7
32053.9
32050
32045
32039
32031.9
32023.8
32014.4
32004
31992.4
31979.6
31965.6
31950.4
31934
31916.4
31897.5
31877.3
31855.9
31833.2
31809.2
31783.9
31757.3
31729.5
31700.3
31669.9
31638.2
31605.1
31570.8
31535.2
31498.4
31460.3
31420.9
31380.3
31338.5
31295.4
31251.2
31205.7
31159.1
31111.3
31062.4
31012.4
30961.3
30909
30855.8
30801.4
30746.1
30689.8
30632.4
30574.1
30514.9
30454.8
30393.8
30332
30269.3
30205.8
30141.5
30076.4
30010.7
29944.2
29877.1
29809.3
29741
29672.2
29602.7
29532.9
29462.6
29391.9
29320.8
29249.4
29177.7
29105.7
29033.6
28961.4
28889.1
28816.8
28744.5
28672.3
28600.3
28528.5
28456.9
28385.8
28315.1
28244.9
28175.4
28106.5
28038.3
27971
27904.7
27839.4
27775.3
27712.4
27650.8
27590.7
27532.2
27475.3
27420.2
27367
27315.8
27266.7
27219.8
27175.2
27133.1
27093.5
27056.6
27022.4
26991.1
26962.6
26937.2
26914.9
26895.8
26879.8
26867.2
26857.9
26852
26849.6
26850.6
26855.1
26863.1
26874.5
26889.5
26907.9
26929.8
26955
26983.6
27015.5
27050.7
27088.9
27130.3
27174.6
27221.7
27271.6
27324.1
27379.1
27436.4
27495.9
27557.4
27620.7
27685.7
27752.1
27819.9
27888.7
27958.5
28028.9
28099.8
28171
28242.3
28313.4
28384.2
28454.4
28523.8
28592.3
28659.7
28725.7
28790.2
28852.9
28913.8
28972.6
29029.3
29083.6
29135.5
29184.7
29231.2
29274.9
29315.7
29353.4
29388
29419.6
29448
29473.1
29495
29513.7
29529.1
29541.2
29550.1
29555.8
29558.2
29557.5
29553.7
29546.9
29537.1
29524.4
29508.9
29490.7
29470
29446.7
29421.1
29393.3
29363.4
29331.6
29298.1
29262.9
29226.3
29188.5
29149.6
29109.9
29069.6
29028.9
28988.1
28947.2
28906.7
28866.8
28827.6
28789.4
28752.6
28717.3
28683.8
28652.3
28623.1
28596.3
28572.3
28551.1
28533
28518.1
28506.6
28498.5
28494
28493.1
28495.7
28502
28511.8
28525.2
28541.9
28561.8
28584.9
28610.9
28639.6
28670.8
28704.3
28739.8
28777.1
28816
28856.1
28897.1
28938.9
28981.2
29023.6
29065.9
29107.8
29149.2
29189.8
29229.2
29267.4
29304.1
29339
29372.1
29403
29431.6
29457.8
29481.4
29502.2
29520.1
29535
29546.7
29555.2
29560.3
29561.9
29560.1
29554.6
29545.5
29532.7
29516.2
29496
29472
29444.3
29412.9
29377.9
29339.3
29297.1
29251.4
29202.4
29150.1
29094.7
29036.3
28975.1
28911.3
28845.1
28776.7
28706.2
28634
28560.1
28485
28408.8
28331.8
28254.3
28176.5
28098.8
28021.3
27944.5
27868.5
27793.5
27720
27648.2
27578.2
27510.4
27445
27382.3
27322.4
27265.5
27212
27161.8
27115.3
27072.6
27033.8
26999
26968.4
26942.1
26920.1
26902.5
26889.4
26880.8
26876.7
26877.2
26882.1
26891.6
26905.4
26923.7
26946.3
26973.1
27004.1
27039.1
27078.1
27120.8
27167.2
27217.2
27270.5
27327
27386.5
27449
27514.1
27581.8
27651.9
27724.2
27798.4
27874.6
27952.4
28031.7
28112.4
28194.3
28277.2
28361
28445.5
28530.7
28616.3
28702.3
28788.6
28874.9
28961.3
29047.5
29133.6
29219.3
29304.7
29389.6
29473.9
29557.7
29640.8
29723
29804.6
29885.2
29964.9
30043.7
30121.4
30198
30273.4
30347.7
30420.7
30492.4
30562.9
30632
30699.7
30766
30830.9
30894.3
30956.2
31016.6
31075.4
31132.7
31188.3
31242.3
31294.6
31345.3
31394.2
31441.5
31486.9
31530.7
31572.6
31612.7
31651
31687.5
31722.1
31754.9
31785.8
31814.8
31841.9
31867.2
31890.6
31912.1
31931.7
31949.5
31965.4
31979.5
31991.8
32002.3
32011.1
32018.1
32023.4
32027.1
32029.1
32029.5
32028.3
32025.7
32021.6
32016
32009
32000.7
31991.1
31980.3
31968.2
31955
31940.7
31925.2
31908.8
31891.3
31872.9
31853.6
31833.5
31812.5
31790.7
31768.2
31745
31721.2
31696.7
31671.6
31646
31619.8
31593.2
31566.2
31538.7
31510.9
31482.7
31454.3
31425.6
31396.6
31367.5
31338.2
31308.7
31279.1
31249.5
31219.8
31190.1
31160.4
31130.7
31101
31071.5
31042
31012.6
30983.4
30954.4
30925.5
30896.8
30868.2
30840
30811.9
30784.1
30756.5
30729.2
30702.2
30675.5
30649.1
30623
30597.2
30571.7
30546.5
30521.7
30497.2
30473
30449.2
30425.7
30402.6
30379.9
30357.5
30335.4
30313.7
30292.4
30271.4
30250.8
30230.5
30210.6
30191.1
30171.9
30153
30134.5
30116.4
30098.6
30081.2
30064.1
30047.3
30030.9
30014.8
29999.1
29983.6
29968.5
29953.7
29939.3
29925.1
29911.3
29897.7
29884.5
29871.5
29858.9
29846.5
29834.4
29822.6
29811.1
29799.8
29788.8
29778.1
29767.6
29757.3
29747.4
29737.6
29728.1
29718.8
29709.8
29701
29692.4
29684
29675.9
29667.9
29660.1
29652.6
29645.2
29638.1
29631.1
29624.3
29617.7
29611.3
29605
29598.9
29593
29587.2
29581.6
29576.1
29570.8
29565.7
29560.6
29555.8
29551
29546.4
29541.9
29537.6
29533.3
29529.2
29525.2
29521.4
29517.6
29514
29510.4
29507
29503.6
29500.4
29497.2
29494.2
29491.2
29488.4
29485.6
29482.9
29480.3
29477.7
29475.3
29472.9
29470.6
29468.4
29466.2
29464.1
29462.1
29460.1
29458.2
29456.4
29454.6
29452.9
29451.2
29449.6
29448
29446.5
29445.1
29443.7
29442.3
29441
29439.7
29438.5
29437.4
29436.2
29435.1
29434.1
29433.1
29432.1
29431.2
29430.3
29429.4
29428.6
29427.8
29427
29426.3
29425.6
29424.9
29424.3
29423.7
29423.1
29422.6
29422
29421.5
29421.1
29420.6
29420.2
29419.8
29419.4
29419.1
29418.8
29418.5
29418.2
29418
29417.8
29417.6
29417.4
29417.2
29417.1
29417
29416.9
29416.8
29416.8
29416.8
29416.7
29416.7
29416.6
29416.6
29416.6
29416.7
29416.7
29416.7
29416.8
29416.8
29416.9
29416.9
29417
29417.1
29417.2
29417.2
29417.3
29417.4
29417.5
29417.6
29417.8
29417.9
29418
29418.1
29418.3
29418.4
29418.6
29418.7
29418.9
29419.1
29419.2
29419.4
29419.6
29419.8
29420
29420.2
29420.5
29420.7
29420.9
29421.2
29421.4
29421.7
29421.9
29422.2
29422.5
29422.7
29423
29423.3
29423.7
29424
29424.3
29424.6
29425
29425.3
29425.7
29426.1
29426.4
29426.8
29427.2
29427.6
29428
29428.5
29428.9
29429.4
29429.8
29430.3
29430.8
29431.2
29431.7
29432.3
29432.8
29433.3
29433.9
29434.4
29435
29435.6
29436.2
29436.8
29437.4
29438
29438.7
29439.3
29440
29440.7
29441.4
29442.1
29442.8
29443.6
29444.3
29445.1
29445.9
29446.7
29447.5
29448.4
29449.2
29450.1
29451
29451.9
29452.9
29453.8
29454.8
29455.7
29456.8
29457.8
29458.8
29459.9
29461
29462.1
29463.2
29464.3
29465.5
29466.7
29467.9
29469.2
29470.4
29471.7
29473
29474.4
29475.7
29477.1
29478.5
29480
29481.5
29483
29484.5
29486
29487.6
29489.2
29490.9
29492.6
29494.3
29496
29497.8
29499.6
29501.4
29503.3
29505.2
29507.1
29509.1
29511.1
29513.2
29515.3
29517.4
29519.6
29521.8
29524
29526.3
29528.6
29531
29533.4
29535.9
29538.4
29540.9
29543.5
29546.2
29548.9
29551.6
29554.4
29557.2
29560.1
29563.1
29566.1
29569.1
29572.2
29575.4
29578.6
29581.8
29585.2
29588.6
29592
29595.5
29599.1
29602.7
29606.4
29610.2
29614
29617.9
29621.9
29625.9
29630
29634.2
29638.4
29642.8
29647.2
29651.6
29656.2
29660.8
29665.5
29670.3
29675.2
29680.1
29685.1
29690.3
29695.5
29700.7
29706.1
29711.6
29717.2
29722.8
29728.6
29734.4
29740.4
29746.4
29752.5
29758.8
29765.1
29771.6
29778.1
29784.8
29791.5
29798.4
29805.4
29812.5
29819.7
29827
29834.5
29842.1
29849.7
29857.5
29865.5
29873.5
29881.7
29890
29898.4
29907
29915.6
29924.5
29933.4
29942.5
29951.7
29961.1
29970.6
29980.2
29990
29999.9
30010
30020.2
30030.6
30041.1
30051.8
30062.6
30073.6
30084.7
30096
30107.4
30119
30130.8
30142.7
30154.8
30167
30179.4
30192
30204.7
30217.6
30230.6
30243.9
30257.2
30270.8
30284.5
30298.4
30312.5
30326.7
30341.1
30355.7
30370.5
30385.4
30400.5
30415.7
30431.2
30446.8
30462.6
30478.5
30494.6
30510.9
30527.3
30544
30560.7
30577.7
30594.8
30612.1
30629.5
30647.1
30664.8
30682.8
30700.8
30719
30737.4
30755.9
30774.5
30793.3
30812.3
30831.3
30850.5
30869.9
30889.3
30908.9
30928.6
30948.4
30968.3
30988.3
31008.4
31028.6
31048.9
31069.3
31089.7
31110.2
31130.8
31151.5
31172.2
31192.9
31213.7
31234.5
31255.3
31276.1
31296.9
31317.8
31338.6
31359.4
31380.1
31400.9
31421.5
31442.1
31462.7
31483.1
31503.4
31523.7
31543.8
31563.7
31583.6
31603.2
31622.7
31642
31661.1
31680
31698.6
31717
31735.1
31753
31770.5
31787.8
31804.7
31821.2
31837.4
31853.2
31868.6
31883.6
31898.1
31912.1
31925.7
31938.8
31951.3
31963.3
31974.7
31985.6
31995.8
32005.3
32014.3
32022.5
32030
32036.8
32042.8
32048.1
32052.5
32056.2
32059
32060.9
32061.9
32061.9
32061.1
32059.2
32056.4
32052.5
32047.6
32041.7
32034.6
32026.5
32017.2
32006.8
31995.2
31982.5
31968.5
31953.3
31936.9
31919.3
31900.4
31880.2
31858.8
31836.1
31812.1
31786.8
31760.2
31732.3
31703.2
31672.7
31640.9
31607.9
31573.5
31537.9
31501
31462.8
31423.4
31382.7
31340.9
31297.7
31253.4
31207.9
31161.2
31113.4
31064.4
31014.3
30963.1
30910.8
30857.4
30803
30747.6
30691.2
30633.8
30575.4
30516.2
30456
30394.9
30332.9
30270.1
30206.6
30142.2
30077.1
30011.2
29944.7
29877.5
29809.6
29741.2
29672.2
29602.7
29532.8
29462.3
29391.5
29320.3
29248.8
29177
29104.9
29032.7
28960.4
28887.9
28815.5
28743.1
28670.7
28598.6
28526.6
28455
28383.7
28312.9
28242.5
28172.8
28103.7
28035.4
27968
27901.5
27836
27771.7
27708.6
27646.9
27586.6
27527.8
27470.8
27415.5
27362
27310.6
27261.3
27214.3
27169.5
27127.2
27087.5
27050.4
27016
26984.5
26956
26930.4
26908
26888.7
26872.7
26860
26850.6
26844.7
26842.2
26843.2
26847.7
26855.7
26867.2
26882.2
26900.6
26922.6
26947.9
26976.6
27008.7
27043.9
27082.4
27123.9
27168.4
27215.7
27265.9
27318.6
27373.8
27431.4
27491.1
27552.9
27616.5
27681.8
27748.6
27816.7
27885.9
27956
28026.7
28098
28169.6
28241.2
28312.7
28383.9
28454.5
28524.3
28593.2
28660.9
28727.3
28792.1
28855.2
28916.4
28975.6
29032.6
29087.2
29139.4
29188.9
29235.6
29279.6
29320.5
29358.5
29393.3
29425.1
29453.6
29478.9
29500.9
29519.6
29535.1
29547.2
29556.1
29561.7
29564.1
29563.4
29559.5
29552.5
29542.6
29529.7
29514.1
29495.7
29474.7
29451.2
29425.4
29397.3
29367.1
29334.9
29301
29265.5
29228.5
29190.3
29151.1
29111
29070.2
29029.1
28987.7
28946.4
28905.4
28865
28825.3
28786.7
28749.3
28713.6
28679.6
28647.6
28618
28590.8
28566.4
28544.9
28526.5
28511.4
28499.6
28491.5
28486.9
28485.9
28488.6
28495
28505
28518.5
28535.5
28555.7
28579.2
28605.5
28634.6
28666.3
28700.3
28736.3
28774.1
28813.5
28854.1
28895.7
28938
28980.7
29023.6
29066.4
29108.8
29150.7
29191.7
29231.6
29270.1
29307.2
29342.5
29375.8
29407
29436
29462.4
29486.3
29507.3
29525.4
29540.5
29552.3
29560.9
29566.1
29567.8
29566
29560.6
29551.5
29538.6
29522.1
29501.8
29477.7
29449.8
29418.3
29383.1
29344.2
29301.8
29255.8
29206.5
29153.9
29098.2
29039.5
28978
28913.9
28847.3
28778.4
28707.6
28634.9
28560.7
28485.1
28408.5
28331.1
28253.2
28175
28096.9
28019
27941.8
27865.4
27790.1
27716.3
27644.1
27573.8
27505.7
27440
27376.9
27316.8
27259.7
27205.9
27155.6
27108.9
27066
27027
26992.1
26961.4
26934.9
26912.9
26895.2
26882.1
26873.5
26869.4
26869.9
26874.8
26884.3
26898.3
26916.7
26939.4
26966.3
26997.5
27032.6
27071.8
27114.7
27161.3
27211.4
27265
27321.7
27381.5
27444.2
27509.6
27577.5
27647.8
27720.3
27794.8
27871.2
27949.2
28028.8
28109.7
28191.8
28274.9
28358.9
28443.7
28529
28614.9
28701
28787.4
28873.9
28960.4
29046.8
29133
29218.9
29304.5
29389.5
29474
29557.9
29641.2
29723.4
29805.1
29885.8
29965.7
30044.5
30122.3
30199
30274.5
30348.8
30422
30493.8
30564.3
30633.5
30701.3
30767.7
30832.6
30896.1
30958
31018.5
31077.4
31134.6
31190.3
31244.4
31296.8
31347.5
31396.5
31443.8
31489.3
31533.1
31575
31615.2
31653.5
31690.1
31724.7
31757.5
31788.4
31817.4
31844.6
31869.8
31893.2
31914.7
31934.3
31952.1
31968
31982.1
31994.4
32004.8
32013.5
32020.5
32025.8
32029.4
32031.3
32031.7
32030.5
32027.8
32023.6
32017.9
32010.9
32002.6
31992.9
31982
31969.8
31956.5
31942.1
31926.6
31910.1
31892.6
31874.1
31854.8
31834.5
31813.5
31791.7
31769.1
31745.8
31721.9
31697.4
31672.2
31646.6
31620.4
31593.7
31566.6
31539.1
31511.2
31483
31454.5
31425.8
31396.8
31367.6
31338.2
31308.7
31279.1
31249.4
31219.7
31190
31160.2
31130.5
31100.8
31071.2
31041.7
31012.4
30983.1
30954
30925.1
30896.4
30867.9
30839.6
30811.5
30783.7
30756.1
30728.8
30701.8
30675
30648.6
30622.5
30596.7
30571.2
30546
30521.2
30496.7
30472.5
30448.7
30425.2
30402.1
30379.3
30356.9
30334.9
30313.2
30291.9
30270.9
30250.3
30230
30210.1
30190.6
30171.4
30152.5
30134.1
30115.9
30098.2
30080.7
30063.6
30046.9
30030.5
30014.4
29998.6
29983.2
29968.1
29953.3
29938.9
29924.7
29910.9
29897.3
29884.1
29871.1
29858.5
29846.1
29834
29822.2
29810.7
29799.4
29788.5
29777.7
29767.2
29757
29747
29737.3
29727.8
29718.5
29709.5
29700.7
29692.1
29683.7
29675.6
29667.6
29659.9
29652.4
29645
29637.8
29630.9
29624.1
29617.5
29611
29604.8
29598.7
29592.8
29587
29581.4
29575.9
29570.6
29565.5
29560.5
29555.6
29550.8
29546.2
29541.8
29537.4
29533.2
29529.1
29525.1
29521.2
29517.5
29513.8
29510.3
29506.8
29503.5
29500.3
29497.1
29494.1
29491.1
29488.3
29485.5
29482.8
29480.2
29477.6
29475.2
29472.8
29470.5
29468.3
29466.1
29464
29462
29460
29458.1
29456.3
29454.5
29452.8
29451.1
29449.5
29448
29446.5
29445
29443.6
29442.3
29441
29439.7
29438.5
29437.3
29436.2
29435.1
29434
29433
29432.1
29431.1
29430.2
29429.4
29428.5
29427.7
29427
29426.3
29425.6
29424.9
29424.3
29423.7
29423.1
29422.5
29422
29421.5
29421
29420.6
29420.2
29419.8
29419.4
29419.1
29418.8
29418.5
29418.2
29418
29417.7
29417.5
29417.3
29417.2
29417.1
29416.9
29416.9
29416.8
29416.7
29416.7
29416.5
29416.5
29416.6
29416.6
29416.6
29416.6
29416.7
29416.7
29416.8
29416.8
29416.9
29416.9
29417
29417.1
29417.1
29417.2
29417.3
29417.4
29417.5
29417.6
29417.7
29417.8
29418
29418.1
29418.2
29418.4
29418.5
29418.7
29418.9
29419
29419.2
29419.4
29419.6
29419.8
29420
29420.2
29420.4
29420.6
29420.9
29421.1
29421.4
29421.6
29421.9
29422.1
29422.4
29422.7
29423
29423.3
29423.6
29423.9
29424.2
29424.6
29424.9
29425.3
29425.6
29426
29426.4
29426.8
29427.2
29427.6
29428
29428.4
29428.9
29429.3
29429.8
29430.2
29430.7
29431.2
29431.7
29432.2
29432.7
29433.2
29433.8
29434.3
29434.9
29435.5
29436.1
29436.7
29437.3
29437.9
29438.6
29439.3
29439.9
29440.6
29441.3
29442
29442.8
29443.5
29444.3
29445
29445.8
29446.6
29447.5
29448.3
29449.2
29450
29450.9
29451.8
29452.8
29453.7
29454.7
29455.6
29456.6
29457.7
29458.7
29459.8
29460.9
29462
29463.1
29464.2
29465.4
29466.6
29467.8
29469
29470.3
29471.6
29472.9
29474.2
29475.6
29477
29478.4
29479.8
29481.3
29482.8
29484.3
29485.9
29487.5
29489.1
29490.7
29492.4
29494.1
29495.8
29497.6
29499.4
29501.2
29503.1
29505
29506.9
29508.9
29510.9
29513
29515.1
29517.2
29519.4
29521.6
29523.8
29526.1
29528.4
29530.8
29533.2
29535.7
29538.2
29540.7
29543.3
29545.9
29548.6
29551.4
29554.1
29557
29559.9
29562.8
29565.8
29568.8
29571.9
29575.1
29578.3
29581.6
29584.9
29588.3
29591.7
29595.2
29598.8
29602.4
29606.1
29609.9
29613.7
29617.6
29621.6
29625.6
29629.7
29633.8
29638.1
29642.4
29646.8
29651.3
29655.8
29660.4
29665.1
29669.9
29674.8
29679.7
29684.7
29689.8
29695
29700.3
29705.7
29711.2
29716.7
29722.4
29728.1
29734
29739.9
29745.9
29752.1
29758.3
29764.6
29771.1
29777.6
29784.3
29791
29797.9
29804.9
29812
29819.2
29826.5
29834
29841.5
29849.2
29857
29864.9
29872.9
29881.1
29889.4
29897.8
29906.4
29915
29923.9
29932.8
29941.9
29951.1
29960.5
29970
29979.6
29989.4
29999.3
30009.4
30019.6
30029.9
30040.5
30051.1
30061.9
30072.9
30084
30095.3
30106.7
30118.3
30130.1
30142
30154
30166.3
30178.7
30191.2
30203.9
30216.8
30229.9
30243.1
30256.5
30270.1
30283.8
30297.7
30311.7
30326
30340.4
30355
30369.7
30384.6
30399.7
30415
30430.4
30446
30461.8
30477.7
30493.9
30510.1
30526.6
30543.2
30560
30577
30594.1
30611.3
30628.8
30646.4
30664.1
30682.1
30700.1
30718.4
30736.7
30755.2
30773.9
30792.7
30811.6
30830.7
30849.9
30869.3
30888.7
30908.3
30928
30947.9
30967.8
30987.8
31007.9
31028.2
31048.5
31068.9
31089.4
31109.9
31130.5
31151.2
31171.9
31192.7
31213.5
31234.3
31255.1
31276
31296.9
31317.7
31338.6
31359.4
31380.2
31401
31421.7
31442.3
31462.9
31483.4
31503.8
31524.1
31544.2
31564.2
31584.1
31603.8
31623.4
31642.7
31661.9
31680.8
31699.5
31718
31736.2
31754.1
31771.7
31789
31806
31822.6
31838.9
31854.7
31870.2
31885.2
31899.8
31914
31927.6
31940.8
31953.4
31965.5
31977
31987.9
31998.2
32007.8
32016.8
32025.2
32032.8
32039.7
32045.8
32051.1
32055.7
32059.4
32062.2
32064.2
32065.3
32065.5
32064.7
32062.9
32060.2
32056.4
32051.6
32045.7
32038.7
32030.6
32021.4
32011
31999.5
31986.8
31972.8
31957.7
31941.3
31923.7
31904.8
31884.7
31863.2
31840.5
31816.5
31791.2
31764.6
31736.7
31707.4
31676.9
31645.1
31612
31577.6
31541.9
31504.9
31466.7
31427.2
31386.4
31344.4
31301.2
31256.8
31211.2
31164.4
31116.5
31067.4
31017.2
30965.8
30913.4
30860
30805.5
30749.9
30693.4
30635.9
30577.4
30518
30457.6
30396.4
30334.4
30271.5
30207.8
30143.3
30078
30012
29945.3
29878
29810
29741.5
29672.4
29602.7
29532.6
29462
29391
29319.6
29247.9
29176
29103.8
29031.4
28958.8
28886.2
28813.6
28740.9
28668.4
28596.1
28523.9
28452
28380.5
28309.5
28238.9
28168.9
28099.6
28031.1
27963.4
27896.6
27830.9
27766.3
27702.9
27640.9
27580.3
27521.3
27463.9
27408.3
27354.6
27302.9
27253.4
27206
27161
27118.4
27078.4
27041
27006.4
26974.7
26945.9
26920.2
26897.6
26878.1
26862
26849.2
26839.7
26833.7
26831.1
26832.1
26836.6
26844.6
26856.1
26871.1
26889.7
26911.8
26937.2
26966.1
26998.3
27033.8
27072.5
27114.3
27159
27206.7
27257.1
27310.2
27365.8
27423.8
27483.9
27546.1
27610.2
27676
27743.2
27811.8
27881.5
27952.1
28023.5
28095.3
28167.4
28239.6
28311.7
28383.4
28454.6
28525
28594.5
28662.7
28729.7
28795
28858.7
28920.4
28980.1
29037.6
29092.6
29145.2
29195.1
29242.3
29286.6
29327.9
29366.2
29401.3
29433.3
29462
29487.5
29509.6
29528.5
29544
29556.2
29565.1
29570.7
29573
29572.1
29568.1
29561
29550.8
29537.8
29521.8
29503.1
29481.8
29458
29431.7
29403.2
29372.6
29339.9
29305.5
29269.5
29231.9
29193.1
29153.2
29112.5
29071.1
29029.3
28987.2
28945.2
28903.5
28862.3
28821.9
28782.5
28744.4
28707.9
28673.3
28640.6
28610.3
28582.6
28557.6
28535.6
28516.7
28501.2
28489.2
28480.8
28476.1
28475.1
28477.9
28484.4
28494.6
28508.4
28525.8
28546.5
28570.5
28597.5
28627.2
28659.6
28694.3
28731
28769.6
28809.8
28851.1
28893.5
28936.6
28980.1
29023.7
29067.2
29110.4
29152.9
29194.5
29235
29274.2
29311.8
29347.6
29381.5
29413.2
29442.6
29469.4
29493.6
29515
29533.4
29548.7
29560.8
29569.5
29574.9
29576.7
29575
29569.5
29560.4
29547.6
29530.9
29510.5
29486.2
29458.2
29426.4
29390.9
29351.7
29308.9
29262.5
29212.8
29159.8
29103.6
29044.4
28982.3
28917.6
28850.5
28781
28709.6
28636.3
28561.5
28485.3
28408.1
28330.1
28251.5
28172.7
28094
28015.6
27937.7
27860.8
27785
27710.6
27637.9
27567.1
27498.5
27432.4
27368.9
27308.4
27250.9
27196.8
27146.1
27099.1
27056
27016.8
26981.7
26950.8
26924.2
26902
26884.3
26871.1
26862.4
26858.3
26858.8
26863.9
26873.5
26887.6
26906.1
26929
26956.1
26987.5
27022.9
27062.3
27105.5
27152.4
27202.8
27256.7
27313.8
27373.9
27436.9
27502.7
27571
27641.6
27714.5
27789.4
27866.1
27944.5
28024.4
28105.6
28188
28271.5
28355.8
28440.9
28526.5
28612.6
28699
28785.7
28872.5
28959.2
29045.8
29132.3
29218.4
29304.1
29389.4
29474.1
29558.1
29641.6
29724
29805.8
29886.8
29966.7
30045.7
30123.7
30200.5