/*--------------------------------*- C++ -*----------------------------------*\
| =========                 |                                                 |
| \\      /  F ield         | OpenFOAM: The Open Source CFD Toolbox           |
|  \\    /   O peration     | Version:  2412                                  |
|   \\  /    A nd           | Website:  www.openfoam.com                      |
|    \\/     M anipulation  |                                                 |
\*---------------------------------------------------------------------------*/
FoamFile
{
    version     2.0;
    format      ascii;
    arch        "LSB;label=32;scalar=64";
    class       volScalarField;
    location    "2.15";
    object      alpha.lava;
}
// * * * * * * * * * * * * * * * * * * * * * * * * * * * * * * * * * * * * * //

dimensions      [0 0 0 0 0 0 0];

internalField   nonuniform List<scalar> 
6400
(
1
1
1.00001
1.00001
1
1
1
1
1
1
1
1.00001
1
1
1
1
1
1
1
1
1
1
1
1
1
1
1
1
1
1
1
1
1
1
1
1
1
1
1
1
1
1
1
1
1
1
1
0.999999
0.999999
0.999998
0.999997
0.999997
0.999996
0.999995
0.999995
0.999995
0.999994
0.999994
0.999994
0.999994
0.999995
0.999995
0.999995
0.999995
0.999995
0.999995
0.999994
0.999994
0.999994
0.999994
0.999993
0.999993
0.999992
0.999992
0.999992
0.999992
0.999993
0.999994
0.999994
1
0.999999
1
1
1
1
1.00001
1.00001
1.00001
1.00001
1.00001
1.00001
1.00001
1.00001
1.00001
1.00001
1.00001
1.00001
1.00001
1.00001
1.00001
1.00001
1.00001
1.00001
1
1
1
0.999999
0.999997
0.999996
0.999995
0.999994
0.999994
0.999994
0.999994
0.999995
0.999996
0.999997
0.999998
1
1
1
1
1
1
1
1
1
1
1
1
1
1
0.999999
0.999998
0.999997
0.999997
0.999996
0.999995
0.999994
0.999994
0.999994
0.999993
0.999993
0.999992
0.999992
0.999991
0.99999
0.99999
0.99999
0.99999
0.99999
0.999991
0.999991
0.999992
0.999992
0.999993
0.999994
0.999995
0.999998
1.00001
0.999998
1
1
1
1
1.00001
1.00001
1.00001
1.00001
1.00001
1.00001
1.00001
1.00002
1.00002
1.00002
1.00001
1.00001
1.00001
1.00001
1.00001
1.00001
1.00001
1.00001
1
1
0.999997
0.999995
0.999993
0.999991
0.99999
0.999989
0.999988
0.999988
0.999989
0.99999
0.999991
0.999993
0.999995
0.999998
1
1
1
1.00001
1.00001
1.00001
1.00001
1.00001
1.00001
1.00001
1.00001
1.00001
1
1
1
1
0.999998
0.999997
0.999996
0.999995
0.999993
0.999992
0.999991
0.99999
0.999989
0.999988
0.999987
0.999987
0.999986
0.999987
0.999987
0.999988
0.99999
0.999991
0.999992
0.999993
0.999995
0.999996
0.999997
1
1.00001
0.999996
1
1
1
1
1.00001
1.00001
1.00001
1.00001
1.00001
1.00001
1.00001
1.00002
1.00002
1.00002
1.00002
1.00001
1.00001
1.00001
1.00001
1.00001
1.00001
1.00001
1
1
0.999997
0.999994
0.999992
0.99999
0.999988
0.999986
0.999985
0.999985
0.999985
0.999986
0.999987
0.999989
0.999992
0.999994
0.999997
0.999999
1
1
1.00001
1.00001
1.00001
1.00001
1.00001
1.00001
1.00001
1.00001
1.00001
1
1
1
1
0.999998
0.999997
0.999995
0.999994
0.999992
0.999991
0.999989
0.999988
0.999987
0.999986
0.999986
0.999986
0.999986
0.999987
0.999988
0.99999
0.999991
0.999992
0.999993
0.999995
0.999996
0.999998
1
1.00001
0.999997
1
1
1
1.00001
1.00001
1.00001
1.00001
1.00001
1.00001
1.00001
1.00002
1.00002
1.00002
1.00002
1.00002
1.00002
1.00001
1.00001
1.00001
1.00001
1.00001
1
1
0.999998
0.999996
0.999993
0.999991
0.999988
0.999986
0.999985
0.999984
0.999983
0.999983
0.999984
0.999986
0.999988
0.99999
0.999993
0.999996
0.999998
1
1
1.00001
1.00001
1.00001
1.00001
1.00001
1.00001
1.00001
1.00001
1.00001
1
1
1
0.999999
0.999998
0.999996
0.999994
0.999992
0.999991
0.999989
0.999987
0.999986
0.999985
0.999985
0.999985
0.999985
0.999985
0.999986
0.999987
0.999989
0.999991
0.999993
0.999994
0.999995
0.999996
0.999999
1
1.00001
0.999996
1
1
1
1
1.00001
1.00001
1.00001
1.00001
1.00001
1.00001
1.00002
1.00002
1.00002
1.00002
1.00002
1.00001
1.00001
1.00001
1.00001
1.00001
1.00001
1
1
0.999997
0.999995
0.999992
0.99999
0.999987
0.999985
0.999984
0.999983
0.999982
0.999982
0.999983
0.999985
0.999987
0.999989
0.999991
0.999994
0.999997
0.999999
1
1
1.00001
1.00001
1.00001
1.00001
1.00001
1.00001
1.00001
1.00001
1
1
1
1
0.999998
0.999997
0.999995
0.999993
0.999992
0.99999
0.999989
0.999987
0.999986
0.999986
0.999986
0.999986
0.999987
0.999987
0.999988
0.999989
0.99999
0.999992
0.999994
0.999995
0.999997
0.999999
1
1.00001
0.999996
1
1
1
1
1.00001
1.00001
1.00001
1.00001
1.00001
1.00001
1.00002
1.00002
1.00001
1.00001
1.00001
1.00001
1.00001
1.00001
1.00001
1.00001
1
1
0.999999
0.999997
0.999995
0.999993
0.99999
0.999988
0.999986
0.999984
0.999983
0.999982
0.999982
0.999983
0.999984
0.999985
0.999987
0.99999
0.999992
0.999995
0.999997
0.999999
1
1
1
1.00001
1.00001
1.00001
1.00001
1.00001
1
1
1
1
1
0.999998
0.999997
0.999995
0.999994
0.999992
0.999991
0.999989
0.999988
0.999987
0.999986
0.999986
0.999987
0.999987
0.999988
0.999988
0.999989
0.99999
0.999991
0.999994
0.999995
0.999998
0.999999
1
1.00001
0.999996
1
1
1.00001
1.00001
1.00001
1.00001
1.00001
1.00001
1.00001
1.00001
1.00002
1.00002
1.00001
1.00001
1.00001
1.00001
1.00001
1.00001
1.00001
1
1
1
0.999998
0.999996
0.999994
0.999992
0.99999
0.999988
0.999986
0.999985
0.999984
0.999983
0.999983
0.999983
0.999984
0.999985
0.999987
0.999989
0.999991
0.999994
0.999996
0.999997
0.999999
1
1
1
1
1
1
1
1
1
1
1
1
0.999999
0.999997
0.999996
0.999995
0.999994
0.999992
0.999991
0.999989
0.999988
0.999988
0.999988
0.999988
0.999989
0.999989
0.999989
0.99999
0.99999
0.999991
0.999993
0.999995
0.999998
0.999999
1
1
0.999996
1
1
1.00001
1.00001
1.00001
1.00001
1.00001
1.00001
1.00001
1.00001
1.00001
1.00001
1.00001
1.00001
1.00001
1.00001
1.00001
1.00001
1.00001
1
1
0.999999
0.999997
0.999995
0.999994
0.999992
0.999991
0.999989
0.999987
0.999985
0.999984
0.999983
0.999983
0.999983
0.999984
0.999985
0.999986
0.999988
0.99999
0.999992
0.999993
0.999995
0.999997
0.999998
0.999999
1
1
1
1
1
1
1
1
1
1
0.999999
0.999998
0.999997
0.999996
0.999995
0.999994
0.999992
0.999991
0.99999
0.999989
0.999989
0.999989
0.99999
0.99999
0.999991
0.999991
0.999991
0.999992
0.999994
0.999995
0.999997
0.999999
1
1
0.999996
1
1.00001
1.00001
1.00001
1.00001
1.00001
1.00001
1.00001
1.00001
1.00001
1.00001
1.00001
1.00001
1.00001
1.00001
1.00001
1.00001
1
1
1
1
0.999999
0.999997
0.999995
0.999994
0.999993
0.999992
0.99999
0.999988
0.999987
0.999985
0.999984
0.999983
0.999983
0.999984
0.999985
0.999986
0.999988
0.999989
0.999991
0.999992
0.999994
0.999995
0.999996
0.999998
0.999999
1
1
1
1
1
1
1
1
1
1
0.999999
0.999999
0.999997
0.999996
0.999995
0.999994
0.999992
0.999992
0.999991
0.999991
0.999991
0.999991
0.999992
0.999992
0.999993
0.999993
0.999994
0.999995
0.999996
0.999998
1
1
1.00001
0.999997
1
1.00001
1.00001
1.00001
1.00001
1.00001
1.00001
1.00001
1.00001
1.00001
1.00001
1.00001
1.00001
1.00001
1.00001
1.00001
1
1
1
1
1
0.999999
0.999997
0.999996
0.999995
0.999994
0.999993
0.999992
0.999991
0.999989
0.999988
0.999986
0.999986
0.999986
0.999986
0.999987
0.999988
0.999989
0.99999
0.999991
0.999992
0.999993
0.999994
0.999995
0.999997
0.999998
0.999999
1
1
1
1
1
1
1
1
1
1
1
0.999999
0.999997
0.999996
0.999995
0.999993
0.999993
0.999993
0.999992
0.999992
0.999993
0.999993
0.999993
0.999994
0.999994
0.999995
0.999996
0.999996
0.999998
1
1
1.00001
0.999998
1
1.00001
1.00001
1.00001
1.00001
1.00001
1.00001
1.00001
1.00001
1.00001
1.00001
1.00001
1.00001
1.00001
1.00001
1
1
1
1
1
0.999999
0.999998
0.999997
0.999997
0.999996
0.999995
0.999994
0.999993
0.999992
0.999991
0.999989
0.999988
0.999988
0.999987
0.999988
0.999988
0.999988
0.999989
0.99999
0.99999
0.999991
0.999992
0.999993
0.999994
0.999995
0.999997
0.999998
1
1
1
1
1
1
1
1
1
1
1
0.999999
0.999998
0.999996
0.999995
0.999994
0.999994
0.999993
0.999993
0.999993
0.999993
0.999993
0.999993
0.999994
0.999994
0.999995
0.999995
0.999996
0.999998
0.999999
1
1
0.999998
1
1.00001
1.00001
1.00001
1.00001
1.00001
1.00001
1.00001
1.00001
1.00001
1.00001
1.00001
1.00001
1.00001
1.00001
1
1
1
1
0.999999
0.999998
0.999998
0.999997
0.999997
0.999996
0.999996
0.999995
0.999994
0.999993
0.999992
0.99999
0.999989
0.999989
0.999988
0.999988
0.999988
0.999988
0.999989
0.999989
0.999989
0.99999
0.999991
0.999992
0.999994
0.999996
0.999997
0.999999
1
1
1
1
1
1
1
1
1
1
1
1
0.999999
0.999998
0.999996
0.999995
0.999994
0.999994
0.999994
0.999994
0.999993
0.999993
0.999994
0.999994
0.999994
0.999995
0.999996
0.999996
0.999998
0.999998
1
1
0.999998
1
1.00001
1.00001
1.00001
1.00001
1.00001
1.00001
1.00001
1.00001
1.00001
1.00001
1.00001
1.00001
1
1
1
1
1
1
0.999999
0.999998
0.999998
0.999998
0.999998
0.999998
0.999997
0.999996
0.999995
0.999994
0.999993
0.999991
0.99999
0.99999
0.999989
0.999989
0.999989
0.999988
0.999988
0.999989
0.999989
0.99999
0.999991
0.999993
0.999995
0.999997
0.999999
1
1
1
1
1
1
1
1
1
1
1
1
1
1
1
0.999998
0.999996
0.999995
0.999995
0.999995
0.999995
0.999994
0.999994
0.999995
0.999995
0.999994
0.999995
0.999996
0.999997
0.999998
0.999998
1
1
0.999998
1
1
1.00001
1.00001
1.00001
1.00001
1.00001
1.00001
1.00001
1.00001
1.00001
1
1
1
1
1
1
1
1
0.999999
0.999999
0.999998
0.999998
0.999998
0.999998
0.999998
0.999997
0.999996
0.999995
0.999994
0.999993
0.999992
0.999991
0.999991
0.99999
0.99999
0.99999
0.999989
0.99999
0.99999
0.999991
0.999992
0.999994
0.999996
0.999998
1
1
1
1
1
1
1
1
1
1
1
1
1
1
1
1
0.999999
0.999998
0.999997
0.999996
0.999996
0.999996
0.999996
0.999996
0.999996
0.999996
0.999996
0.999997
0.999997
0.999998
0.999999
1
1
1
0.999998
1
1
1
1
1
1
1.00001
1
1
1
1
1
1
1
1
1
1
1
0.999999
0.999999
0.999999
0.999999
0.999999
0.999999
0.999999
0.999999
0.999999
0.999998
0.999997
0.999996
0.999996
0.999995
0.999995
0.999994
0.999994
0.999994
0.999993
0.999993
0.999993
0.999994
0.999995
0.999996
0.999998
0.999999
1
1
1
1
1
1
1
1
1
1
1.00001
1.00001
1.00001
1.00001
1
1
1
1
1
1
1
1
1
1
1
1
1
0.999999
1
1
1
1
1
1
1
0.999998
0.999997
0.999997
0.999996
0.999998
0.999999
0.999999
0.999999
0.999998
0.999998
0.999997
0.999997
0.999997
0.999997
0.999997
0.999997
0.999997
0.999998
0.999998
0.999999
0.999999
0.999999
1
1
1
1
1
1
1
1
1
1
1
1
1
1
1
1
0.999999
0.999999
0.999999
1
1
1
1
1
1
1.00001
1.00001
1.00001
1.00001
1.00001
1.00001
1.00001
1.00001
1.00001
1.00001
1.00001
1.00001
1.00001
1.00001
1.00001
1.00001
1
1
1
1.00001
1.00001
1.00001
1.00001
1.00001
1.00001
1.00001
1.00001
1.00001
1.00001
1.00001
1.00001
1.00001
1
0.999995
0.99999
0.99999
0.999988
0.999988
0.999989
0.999989
0.999989
0.999989
0.999988
0.999988
0.999989
0.999989
0.99999
0.999991
0.999992
0.999993
0.999994
0.999995
0.999997
0.999998
0.999999
1
1
1
1
1.00001
1.00001
1.00001
1.00001
1.00001
1.00001
1.00001
1.00001
1.00001
1.00001
1.00001
1.00001
1.00001
1.00001
1.00001
1.00001
1.00001
1.00001
1.00001
1.00001
1.00001
1.00001
1.00001
1.00001
1.00001
1.00001
1.00001
1.00001
1.00001
1.00001
1.00001
1.00001
1.00001
1.00001
1.00001
1.00001
1.00001
1.00001
1.00001
1.00001
1.00001
1.00001
1.00001
1.00002
1.00002
1.00002
1.00001
1.00002
1.00001
1.00002
1.00002
1.00001
1.00001
1
0.999995
0.999985
0.999981
0.999981
0.999981
0.999982
0.999982
0.999982
0.999982
0.999982
0.999983
0.999984
0.999985
0.999986
0.999988
0.999989
0.999991
0.999992
0.999994
0.999996
0.999998
0.999999
1
1
1
1.00001
1.00001
1.00001
1.00001
1.00001
1.00001
1.00001
1.00002
1.00002
1.00002
1.00002
1.00002
1.00002
1.00002
1.00002
1.00002
1.00001
1.00001
1.00001
1.00001
1.00001
1.00001
1.00001
1.00001
1.00001
1.00001
1.00001
1.00001
1.00001
1.00001
1.00001
1.00001
1.00001
1.00001
1.00001
1.00001
1.00001
1.00002
1.00002
1.00002
1.00002
1.00002
1.00002
1.00002
1.00002
1.00002
1.00002
1.00002
1.00002
1.00002
1.00002
1.00002
1.00002
1.00002
1.00001
0.999963
0.999941
0.999944
0.999944
0.999941
0.999939
0.999937
0.999935
0.999935
0.999935
0.999935
0.999937
0.999938
0.999941
0.999943
0.999946
0.999949
0.999952
0.999956
0.999958
0.999961
0.999964
0.999967
0.99997
0.999972
0.999975
0.999978
0.999981
0.999983
0.999985
0.999987
0.999988
0.999988
0.999988
0.999988
0.999989
0.999989
0.999989
0.999988
0.999988
0.999988
0.999988
0.999987
0.999984
0.999981
0.999979
0.999977
0.999976
0.999976
0.999976
0.999977
0.999979
0.999981
0.999983
0.999986
0.999989
0.999991
0.999994
0.999995
0.999995
0.999995
0.999995
0.999995
0.999995
0.999994
0.999993
0.999992
0.999991
0.99999
0.999989
0.999987
0.999986
0.999985
0.999984
0.999982
0.999981
0.999979
0.999979
0.999979
0.999977
1.57206e-05
3.17481e-05
2.84863e-05
2.43559e-05
2.21186e-05
1.97187e-05
1.73029e-05
1.55269e-05
1.42494e-05
1.32035e-05
1.24155e-05
1.17127e-05
1.11681e-05
1.0856e-05
1.07767e-05
1.10566e-05
1.1536e-05
1.20021e-05
1.28223e-05
1.45388e-05
1.64205e-05
1.81847e-05
2.00839e-05
2.21566e-05
2.41422e-05
2.60183e-05
2.79932e-05
2.9784e-05
3.15241e-05
3.37569e-05
3.6488e-05
3.87758e-05
4.08518e-05
4.28587e-05
4.43362e-05
4.51022e-05
4.53184e-05
4.52622e-05
4.46516e-05
4.34502e-05
4.16566e-05
3.97365e-05
3.77561e-05
3.7796e-05
3.74511e-05
3.67838e-05
3.5896e-05
3.4916e-05
3.3854e-05
3.2714e-05
3.15219e-05
3.02835e-05
2.89623e-05
2.76161e-05
2.64044e-05
2.54276e-05
2.4716e-05
2.44027e-05
2.58284e-05
2.84855e-05
3.12267e-05
3.37061e-05
3.60181e-05
3.8403e-05
4.05975e-05
4.25422e-05
4.39678e-05
4.51372e-05
4.6063e-05
4.6457e-05
4.66219e-05
4.64503e-05
4.5385e-05
4.42725e-05
4.30781e-05
4.15198e-05
4.0732e-05
4.00358e-05
4.28299e-05
3.97912e-05
1.50147e-24
1.50147e-24
1.24609e-24
4.97645e-25
4.58551e-27
4.58551e-27
4.58551e-27
6.8613e-27
4.56855e-27
4.59177e-42
-4.81194e-36
-2.57238e-31
0
2.67751e-27
1.71493e-26
7.34025e-26
6.19779e-26
1.05362e-26
1.05362e-26
1.05362e-26
2.16538e-26
2.48234e-26
1.00148e-26
3.19436e-27
9.52178e-28
-1.95208e-58
2.22517e-28
3.49909e-29
-3.22769e-60
9.62965e-36
-3.63508e-66
-9.62965e-36
0
0
0
-1.5505e-85
4.02439e-38
5.44718e-39
8.7705e-40
1.84209e-44
0
-5.14172e-32
-5.88873e-32
-2.4456e-32
-2.94939e-33
-4.46927e-38
-6.05028e-41
-2.35288e-41
-2.72068e-39
-1.88287e-31
-1.0366e-31
-8.30511e-32
-5.46294e-32
-4.27642e-51
1.49896e-35
2.38843e-28
1.51408e-27
2.10497e-27
1.0525e-27
4.81482e-36
3.65545e-20
5.85536e-20
-3.85186e-35
6.19618e-25
1.50054e-24
1.0075e-24
6.93655e-20
4.91694e-19
9.10865e-19
7.66223e-19
2.81565e-19
2.51043e-20
1.9862e-24
6.53715e-25
3.8837e-20
7.87268e-20
3.44776e-20
7.86814e-25
5.10537e-25
6.01594e-21
2.12834e-22
1.5015e-24
4.12091e-23
1.29467e-22
1.81479e-24
4.63642e-27
4.02213e-24
9.13974e-27
1.63052e-25
1.15202e-25
-3.49182e-29
-1.23486e-24
5.61394e-31
2.72141e-26
2.89425e-26
1.18108e-25
2.87103e-25
3.65209e-25
1.05449e-26
7.46598e-25
3.10791e-26
3.03211e-26
1.34981e-26
4.11043e-27
1.82435e-27
-3.53027e-26
1.31372e-59
0
-5.33257e-26
-1.41485e-25
-1.23783e-25
-3.10721e-27
-1.27745e-25
-2.04992e-25
-1.62794e-25
-5.6407e-28
8.04088e-38
1.55577e-38
3.5081e-39
7.49367e-45
0
-2.70495e-25
-2.74302e-25
-1.02231e-25
-1.1335e-26
-2.53242e-31
-3.3828e-34
-1.25784e-34
-1.87963e-38
-7.74777e-25
-4.33819e-25
-3.50062e-25
-2.51541e-25
-7.95922e-30
8.92649e-28
1.08065e-26
2.55047e-27
5.43102e-27
8.01976e-25
-3.36096e-24
4.81482e-36
0
-1.068e-24
1.23352e-24
1.95924e-24
1.0032e-24
-6.81767e-25
-6.54236e-25
7.80624e-25
1.01016e-24
5.10309e-25
5.56913e-26
5.58111e-27
5.10352e-27
5.80747e-26
1.48255e-25
7.42409e-26
8.16635e-25
4.96143e-25
5.88372e-26
1.70168e-21
1.51633e-24
3.24977e-25
8.21208e-25
1.38685e-26
4.45704e-27
7.14377e-27
2.13546e-27
3.60727e-27
1.81244e-26
7.99071e-27
7.21471e-27
2.2715e-26
2.46337e-26
2.55185e-26
9.24183e-27
1.33164e-26
1.20046e-26
1.05202e-26
1.03674e-26
8.75867e-27
7.35698e-27
5.08857e-27
3.15579e-27
2.27703e-27
1.50607e-27
7.48615e-28
1.37882e-28
1.14029e-32
-1.90179e-31
-1.03405e-29
6.80029e-38
2.21012e-37
3.51531e-37
3.23679e-37
2.07229e-37
1.83137e-37
1.00322e-37
4.30821e-38
1.38814e-38
4.32763e-39
-9.73637e-34
6.83629e-38
7.81739e-37
2.35285e-36
-1.20982e-28
-9.35693e-29
-3.92001e-29
-5.74785e-33
1.85627e-30
1.14967e-30
7.09687e-30
7.70465e-28
4.72487e-28
1.02916e-27
5.05263e-27
4.20221e-27
6.65986e-27
9.65112e-27
1.38022e-26
7.61397e-27
4.9253e-27
5.75249e-27
6.31928e-27
4.9508e-27
4.89145e-27
4.1839e-27
3.14543e-27
3.42675e-27
4.41461e-27
5.45723e-27
6.11979e-27
6.05323e-27
5.10259e-27
1.12578e-26
2.41397e-26
1.24585e-26
9.96455e-27
3.78964e-27
3.60813e-26
4.99746e-24
1.96158e-26
2.16922e-26
1.382e-27
8.0606e-29
3.59037e-31
6.06486e-29
3.43572e-30
5.47524e-30
3.36846e-30
1.18339e-30
6.44916e-31
1.20443e-30
7.32971e-31
5.12453e-31
2.3124e-31
2.17732e-31
2.56733e-31
1.41741e-31
1.12878e-31
1.17561e-31
1.2738e-31
5.05223e-32
3.58186e-32
2.35922e-32
1.60793e-32
1.20019e-32
1.15489e-32
1.47628e-32
1.78182e-32
2.00155e-32
2.10738e-32
2.08882e-32
1.93785e-32
1.65579e-32
1.28241e-32
8.70875e-33
5.1043e-33
2.33142e-33
7.7161e-34
2.70079e-34
5.74807e-36
5.67731e-33
5.08774e-32
1.6291e-31
3.53522e-31
6.05864e-31
8.66013e-31
1.11692e-30
1.19628e-30
1.14484e-30
9.49849e-31
6.76693e-31
4.25494e-31
1.95376e-31
1.2603e-31
2.13345e-31
4.24304e-31
2.57462e-31
1.93783e-31
1.79363e-31
6.79986e-31
2.20667e-31
4.90762e-31
3.06698e-31
5.75023e-31
1.96902e-31
2.60267e-31
2.22587e-31
4.08101e-30
5.58507e-31
2.80402e-31
1.54495e-30
2.47443e-31
2.07604e-31
3.52112e-30
8.60773e-31
7.80187e-31
6.48981e-30
8.4848e-29
3.21263e-29
2.33499e-30
5.9416e-30
1.8034e-31
2.91722e-33
2.98151e-35
4.66475e-34
2.79952e-35
6.20154e-35
2.47539e-36
9.03564e-36
1.21255e-35
6.74594e-36
1.0025e-36
1.06912e-36
1.38597e-36
9.02622e-37
4.62524e-37
3.17956e-37
2.44605e-37
1.88627e-37
1.73317e-37
7.55231e-38
4.51271e-38
2.10097e-38
9.73211e-39
6.51979e-39
8.61589e-39
1.0154e-38
1.18869e-38
1.35027e-38
1.43216e-38
1.42097e-38
1.32164e-38
1.115e-38
8.41859e-39
5.55655e-39
3.21366e-39
1.45604e-39
4.61178e-40
7.92219e-41
1.65474e-44
9.12489e-42
1.15166e-38
1.06555e-37
3.72381e-37
8.54305e-37
1.48161e-36
2.12855e-36
2.50491e-36
2.45584e-36
3.03863e-36
2.08277e-36
1.44425e-36
3.13329e-37
1.77416e-37
1.90602e-37
4.5613e-38
1.0182e-36
2.66365e-37
2.67435e-37
1.87853e-36
4.37945e-37
2.1283e-36
1.48503e-36
6.03571e-36
7.58346e-37
1.9316e-36
7.51172e-37
8.49169e-35
2.33317e-36
3.64719e-36
7.51074e-36
1.08552e-36
7.21136e-37
4.84575e-35
1.14774e-35
5.29613e-36
4.79073e-34
2.67268e-33
8.37339e-34
2.29039e-36
1.64915e-36
6.07439e-38
2.46524e-39
3.77238e-41
8.61022e-41
9.88932e-42
1.00661e-41
5.18579e-42
4.34965e-42
6.29795e-42
1.04858e-41
3.32679e-42
2.7854e-42
1.86111e-42
2.04334e-42
1.25683e-42
9.30729e-43
7.29898e-43
5.14492e-43
2.68337e-43
1.43396e-43
6.14198e-44
1.9948e-44
5.13681e-45
4.00785e-45
5.73776e-45
7.49246e-45
9.06442e-45
1.01388e-44
1.04991e-44
1.02182e-44
9.3557e-45
7.74646e-45
5.67705e-45
3.5628e-45
1.93602e-45
8.42027e-46
2.61262e-46
4.34324e-47
6.58163e-51
4.16715e-49
2.74648e-47
3.75679e-44
2.70035e-43
9.02331e-43
1.99061e-42
3.34374e-42
4.33319e-42
4.43027e-42
3.6141e-42
2.31842e-42
1.15717e-42
4.04224e-43
8.34419e-44
4.89433e-44
5.16593e-44
2.18179e-43
3.82135e-43
8.10938e-43
7.88772e-43
1.10576e-42
2.48395e-42
2.14546e-42
3.45159e-42
2.90423e-42
4.04396e-42
3.5382e-42
1.32462e-41
4.91118e-42
6.39611e-42
6.94099e-42
5.69485e-42
3.64467e-42
1.4476e-41
5.22088e-42
5.66894e-42
4.08116e-41
4.43924e-40
4.2659e-39
4.35086e-41
1.42057e-41
1.73236e-43
4.27561e-45
2.72628e-49
4.77477e-46
4.13629e-47
4.62165e-47
2.66174e-47
2.15413e-47
3.24463e-47
2.79884e-47
1.81158e-47
1.54659e-47
9.82699e-48
9.8684e-48
5.68994e-48
4.15365e-48
2.85971e-48
1.72736e-48
7.87336e-49
3.39568e-49
1.072e-49
2.13478e-50
3.61763e-51
4.01657e-51
5.56301e-51
7.0048e-51
8.14151e-51
8.7135e-51
8.56954e-51
7.91714e-51
6.88867e-51
5.4202e-51
3.7808e-51
2.25876e-51
1.15456e-51
4.71116e-52
1.40223e-52
2.27188e-53
3.24624e-57
2.00173e-55
1.95614e-54
4.95463e-51
1.31656e-49
7.33462e-49
2.17618e-48
4.40598e-48
6.43307e-48
6.98121e-48
5.75796e-48
3.63705e-48
1.74906e-48
5.88797e-49
1.04066e-49
8.20122e-50
8.61901e-50
4.89513e-49
1.07094e-48
3.14164e-48
2.75646e-48
5.00968e-48
1.00956e-47
1.04038e-47
1.821e-47
1.5839e-47
2.29401e-47
2.09915e-47
5.37822e-47
3.18036e-47
4.4018e-47
4.34832e-47
3.90775e-47
2.45579e-47
4.9963e-47
2.271e-47
1.96026e-47
1.24709e-46
1.11966e-45
1.31788e-43
1.54706e-46
2.54547e-46
2.96549e-49
3.1454e-50
1.17624e-52
4.30798e-51
3.18002e-52
3.87795e-52
2.19839e-52
1.68453e-52
2.42019e-52
1.63702e-52
1.21737e-52
1.03524e-52
6.53168e-53
5.97406e-53
3.19725e-53
2.18844e-53
1.34185e-53
7.03446e-54
2.71296e-54
9.32972e-55
2.09819e-55
2.41102e-56
3.40366e-57
4.75109e-57
6.34081e-57
7.65225e-57
8.47099e-57
8.58638e-57
7.96319e-57
6.89566e-57
5.60608e-57
4.11851e-57
2.67188e-57
1.48688e-57
7.07098e-58
2.66591e-58
7.37449e-59
1.13245e-59
1.75805e-63
1.08185e-61
6.61814e-61
7.33938e-60
2.57115e-56
3.65435e-55
1.68359e-54
4.4468e-54
7.78898e-54
9.49825e-54
8.33266e-54
5.44316e-54
2.61889e-54
8.59959e-55
1.45921e-55
1.35891e-55
1.9256e-55
1.34761e-54
3.13767e-54
1.52241e-53
1.22143e-53
2.75393e-53
5.72671e-53
6.22682e-53
1.18898e-52
1.15683e-52
1.66303e-52
1.30038e-52
3.77106e-52
2.42987e-52
3.47453e-52
3.58323e-52
3.22601e-52
2.043e-52
3.55775e-52
1.61491e-52
1.35784e-52
9.63049e-52
7.34021e-51
6.48125e-49
5.53388e-52
4.63552e-52
2.58246e-54
1.78996e-55
5.34789e-59
4.2576e-56
2.88244e-57
3.48472e-57
2.02088e-57
1.44845e-57
2.07249e-57
1.33198e-57
9.86074e-58
8.18051e-58
5.00116e-58
4.2978e-58
2.12826e-58
1.34223e-58
7.39723e-59
3.35362e-59
1.07126e-59
2.90652e-60
4.59485e-61
2.93468e-62
4.23804e-63
6.16602e-63
7.84633e-63
8.97449e-63
9.36052e-63
8.87999e-63
7.66609e-63
6.15612e-63
4.6399e-63
3.16683e-63
1.90525e-63
9.84559e-64
4.37019e-64
1.54046e-64
3.99292e-65
5.80507e-66
1.03043e-69
6.44969e-68
4.02949e-67
1.81981e-66
7.94817e-64
1.11824e-61
9.38428e-61
3.50513e-60
7.79585e-60
1.11872e-59
1.06893e-59
7.53301e-60
3.81401e-60
1.26488e-60
2.13327e-61
1.97345e-61
5.17674e-61
4.27592e-60
1.23988e-59
7.90404e-59
6.92105e-59
1.76392e-58
3.99596e-58
4.81252e-58
8.32057e-58
9.83642e-58
1.3398e-57
-2.73234e-54
2.33876e-57
2.32042e-57
3.19999e-57
3.3695e-57
3.04317e-57
1.93657e-57
3.35287e-57
1.46816e-57
1.27461e-57
9.16146e-57
6.7019e-56
4.7915e-55
4.0316e-57
3.56557e-57
2.83951e-59
1.95338e-60
4.80432e-63
4.93873e-61
3.31283e-62
3.72737e-62
2.17774e-62
1.47638e-62
2.05476e-62
1.29679e-62
9.26845e-63
7.40504e-63
4.34661e-63
3.55735e-63
1.63939e-63
9.44457e-64
4.68253e-64
1.84958e-64
4.91338e-65
1.03085e-65
1.12655e-66
3.78958e-68
5.99819e-69
8.39967e-69
1.00653e-68
1.07725e-68
1.04491e-68
9.15763e-69
7.25203e-69
5.31227e-69
3.65458e-69
2.30501e-69
1.28074e-69
6.14268e-70
2.55725e-70
8.56126e-71
2.13411e-71
3.03045e-72
6.84109e-76
4.52403e-74
2.88101e-73
1.23068e-72
9.85426e-72
2.87571e-68
4.5663e-67
2.42231e-66
6.96927e-66
1.21352e-65
1.27372e-65
9.76438e-66
5.40969e-66
1.91158e-66
3.30067e-67
3.09712e-67
1.60894e-66
1.58061e-65
6.12346e-65
4.52455e-64
4.66247e-64
1.25238e-63
3.09115e-63
4.34702e-63
7.22922e-63
9.35309e-63
1.34115e-62
-1.22025e-57
-7.26791e-82
2.51708e-62
3.45319e-62
3.64775e-62
3.36534e-62
1.92903e-62
3.69737e-62
1.61209e-62
1.30324e-62
1.04509e-61
7.35375e-61
4.66171e-60
2.83926e-62
4.46052e-62
3.9339e-64
2.58774e-65
1.97408e-68
6.1697e-66
4.08906e-67
4.53798e-67
2.56862e-67
1.71838e-67
2.29575e-67
1.45957e-67
1.00928e-67
7.72555e-68
4.31878e-68
3.35807e-68
1.4434e-68
7.57292e-69
3.36931e-69
1.15658e-69
2.54548e-70
4.11876e-71
3.08345e-72
5.34983e-74
9.07919e-75
1.19842e-74
1.34349e-74
1.33792e-74
1.20022e-74
9.69395e-75
7.01267e-75
4.66689e-75
2.95582e-75
1.71843e-75
8.87405e-76
3.99887e-76
1.5857e-76
5.14881e-77
1.26975e-77
1.8203e-78
5.06197e-82
3.48883e-80
2.29258e-79
9.40521e-79
6.65915e-78
2.80152e-75
1.55766e-73
1.32564e-72
5.26536e-72
1.18425e-71
1.46122e-71
1.24179e-71
7.64124e-72
3.02084e-72
5.65908e-73
6.32046e-73
5.49231e-72
7.3233e-71
3.19666e-70
2.91699e-69
3.45908e-69
1.09452e-68
2.63895e-68
4.30301e-68
7.36493e-68
9.76454e-68
1.53987e-67
-1.97423e-61
-1.78545e-86
3.07968e-67
4.2383e-67
4.4723e-67
4.26675e-67
1.30222e-67
4.36105e-67
2.05585e-67
1.53883e-67
1.37753e-66
9.2183e-66
6.12514e-65
2.77542e-67
6.70156e-67
6.02067e-69
3.88038e-70
4.51388e-73
8.81535e-71
5.61982e-72
6.37382e-72
3.41985e-72
2.27918e-72
2.8948e-72
1.83367e-72
1.23432e-72
9.11569e-73
4.85671e-73
3.57876e-73
1.4397e-73
6.88202e-74
2.74314e-74
8.18476e-75
1.4964e-75
1.86428e-76
9.45109e-78
8.27002e-80
1.49774e-80
1.85336e-80
1.9364e-80
1.78234e-80
1.46694e-80
1.08501e-80
7.07206e-81
4.24703e-81
2.43547e-81
1.28879e-81
6.13013e-82
2.58827e-82
9.81138e-83
3.11786e-83
7.71623e-84
1.1364e-84
3.85511e-88
2.74408e-86
1.88931e-85
7.82333e-85
5.29751e-84
5.38396e-83
1.61054e-80
4.86048e-79
3.2411e-78
1.04832e-77
1.67408e-77
1.65485e-77
1.13121e-77
5.04082e-78
1.07862e-78
1.67407e-78
2.12874e-77
3.87893e-76
2.01094e-75
2.10544e-74
2.8167e-74
1.07371e-73
2.57192e-73
4.64721e-73
8.46422e-73
1.1635e-72
1.93922e-72
-2.36306e-65
-7.67046e-91
4.22092e-72
5.87653e-72
6.07454e-72
5.98832e-72
-3.61156e-68
2.33195e-72
2.92246e-72
2.12261e-72
2.04518e-71
1.33726e-70
8.71974e-70
4.09573e-72
1.14743e-71
1.01156e-73
6.51034e-75
6.21078e-78
1.40286e-75
8.49119e-77
1.01415e-76
5.08438e-77
3.38149e-77
4.15874e-77
2.57819e-77
1.68442e-77
1.20244e-77
6.12074e-78
4.26399e-78
1.6079e-78
7.04443e-79
2.518e-79
6.51926e-80
9.89858e-81
9.56887e-82
3.32066e-83
1.46128e-85
2.72796e-86
3.14909e-86
3.04614e-86
2.5714e-86
1.92201e-86
1.28029e-86
7.39769e-87
3.91885e-87
1.97538e-87
9.20258e-88
3.89531e-88
1.49412e-88
5.30358e-89
2.13523e-89
1.40884e-89
6.93786e-90
3.04429e-92
2.37612e-92
1.62864e-91
6.95268e-91
4.33271e-90
4.68736e-89
5.46608e-88
1.09433e-85
1.7215e-84
8.69576e-84
1.9368e-83
2.3917e-83
1.81964e-83
8.85405e-84
2.1965e-84
4.37887e-84
1.00494e-82
2.18364e-81
1.51474e-80
1.70054e-79
2.65091e-79
1.13808e-78
3.03758e-78
4.98821e-78
1.09768e-77
1.55898e-77
2.66715e-77
-2.46158e-69
-7.51659e-74
6.00088e-77
9.12945e-77
9.31467e-77
9.2532e-77
-1.13101e-71
5.71958e-96
4.59372e-77
3.33021e-77
3.36299e-76
2.17913e-75
1.5492e-74
7.18653e-77
2.13117e-76
1.88592e-78
1.19271e-79
1.35427e-82
2.50801e-80
1.4189e-81
1.78365e-81
8.40825e-82
5.50137e-82
6.6509e-82
4.03792e-82
2.55709e-82
1.7655e-82
8.61772e-83
5.67459e-83
2.00457e-83
8.07283e-84
2.59588e-84
5.85523e-85
7.4174e-86
5.60723e-87
1.33814e-88
2.989e-91
5.41368e-92
5.82059e-92
5.1966e-92
4.01035e-92
2.70905e-92
1.6094e-92
8.18234e-93
3.7648e-93
1.63239e-93
6.51675e-94
6.51701e-94
7.9737e-94
1.49562e-90
1.78766e-88
5.76626e-88
3.70214e-88
2.57583e-88
7.13412e-95
6.66919e-97
6.65251e-97
3.71904e-96
3.78351e-95
5.5861e-94
1.66067e-92
8.31493e-91
6.89356e-90
2.19718e-89
3.63964e-89
3.22548e-89
1.66182e-89
4.59098e-90
1.22651e-89
5.01277e-88
1.431e-86
1.28685e-85
1.63605e-84
2.86358e-84
1.29006e-83
4.06378e-83
2.54238e-83
1.42405e-82
2.35832e-82
4.11943e-82
-2.36339e-73
-2.20482e-77
-1.56355e-93
1.56778e-81
1.59643e-81
1.56532e-81
-1.99572e-75
-4.85666e-101
7.89395e-82
5.77579e-82
6.10637e-81
3.93724e-80
3.08222e-79
1.42836e-81
4.29843e-81
3.94663e-83
2.38946e-84
2.77844e-87
4.90324e-85
2.62349e-86
3.4273e-86
1.5308e-86
9.79013e-87
1.16853e-86
6.97272e-87
4.28093e-87
2.864e-87
1.34505e-87
8.39911e-88
2.78502e-88
1.03424e-88
3.00398e-89
5.93546e-90
6.31812e-91
3.76363e-92
6.27098e-94
7.32141e-97
1.16555e-97
1.1663e-97
9.59986e-98
6.76232e-98
4.11998e-98
2.17044e-98
9.69072e-99
3.87958e-99
3.98293e-99
8.89052e-97
3.90068e-93
1.4758e-89
4.41977e-86
4.73651e-84
1.54523e-83
9.96222e-84
6.90762e-84
1.94211e-90
8.88459e-96
2.48698e-100
3.02689e-101
3.02579e-101
5.60406e-100
7.04439e-99
3.78345e-97
5.47942e-96
2.40258e-95
5.52776e-95
6.19467e-95
3.35789e-95
9.89663e-96
4.58771e-95
2.59161e-93
1.14316e-91
1.16657e-90
1.79261e-89
3.62944e-89
1.63311e-88
5.89456e-88
-2.36532e-83
6.30482e-108
3.93026e-87
7.12052e-87
-2.19707e-77
-3.566e-81
-1.74146e-93
2.9301e-86
3.02823e-86
2.90724e-86
-2.6712e-79
0
1.50553e-86
1.10618e-86
1.21444e-85
7.69677e-85
6.75506e-84
3.22392e-86
9.41606e-86
9.01567e-88
5.23365e-89
6.24814e-92
1.04974e-89
5.30404e-91
7.13067e-91
3.03734e-91
1.9167e-91
2.2592e-91
1.32508e-91
7.87895e-92
5.11475e-92
2.31491e-92
1.37594e-92
4.29686e-93
1.4779e-93
3.8986e-94
6.79404e-95
6.12354e-96
2.90772e-97
3.4859e-99
2.22765e-102
2.76463e-103
2.56583e-103
1.94098e-103
1.24203e-103
6.78209e-104
4.91643e-104
8.16005e-104
5.41589e-100
4.28657e-96
2.52406e-92
1.11921e-88
3.78848e-85
1.15904e-81
1.12112e-79
3.58493e-79
2.31279e-79
1.62805e-79
4.73368e-86
2.31076e-91
6.11976e-96
1.22835e-100
7.93749e-105
5.29566e-105
9.93705e-105
1.8933e-103
4.56327e-102
2.61637e-101
7.94941e-101
1.2202e-100
6.93469e-101
2.27681e-101
2.33128e-100
1.56657e-98
1.036e-96
1.25019e-95
2.10566e-94
5.14991e-94
2.37923e-93
9.19574e-93
-6.81413e-87
1.74407e-106
7.0807e-92
1.3489e-91
-2.02885e-81
-4.75557e-85
-7.58048e-99
6.03784e-91
6.19178e-91
5.94487e-91
-3.11424e-83
-8.59038e-89
3.06981e-91
2.29538e-91
2.64295e-90
1.64926e-89
1.60758e-88
7.93671e-91
2.26634e-90
2.21775e-92
1.24334e-93
1.61493e-96
2.44711e-94
1.17368e-95
1.61642e-95
6.56045e-96
4.08681e-96
4.77045e-96
2.75849e-96
1.59028e-96
1.0037e-96
4.38582e-97
2.4906e-97
7.35703e-98
2.35542e-98
5.67967e-99
8.80845e-100
6.79517e-101
2.61264e-102
2.30349e-104
8.52812e-108
7.33374e-109
6.29378e-109
4.35759e-109
4.36357e-109
1.14216e-107
1.40027e-103
1.62759e-99
1.46488e-95
1.06292e-91
6.00785e-88
2.5723e-84
8.57921e-81
2.69267e-77
2.34222e-75
7.30438e-75
4.7029e-75
3.35081e-75
1.02472e-81
5.41508e-87
1.54109e-91
3.35369e-96
6.53339e-101
1.32699e-105
1.5928e-109
1.08646e-109
3.95185e-108
3.01081e-107
1.06753e-106
2.39852e-106
1.37811e-106
5.60828e-107
1.55356e-105
1.14532e-103
1.06972e-101
1.52592e-100
2.78935e-99
7.93296e-99
3.93901e-98
1.56671e-97
-1.20085e-90
6.65315e-112
1.39081e-96
2.76261e-96
-1.85466e-85
-5.67935e-89
-4.42734e-94
1.33922e-95
1.37011e-95
1.30851e-95
-3.34143e-87
-8.98346e-92
5.3527e-96
5.16436e-96
6.18732e-95
3.82996e-94
4.10761e-93
2.09721e-95
5.95566e-95
5.82078e-97
3.20626e-98
4.17961e-101
6.1273e-99
2.82653e-100
3.97302e-100
1.53777e-100
9.45995e-101
1.09374e-100
6.25681e-101
3.50545e-101
2.1569e-101
9.12977e-102
4.97422e-102
1.39688e-102
4.18714e-103
9.29092e-104
1.29351e-104
8.65312e-106
2.73951e-107
1.82916e-109
4.13732e-113
1.22218e-113
1.28141e-113
1.22209e-111
2.08747e-107
3.02648e-103
3.72846e-99
3.86799e-95
3.33317e-91
2.3255e-87
1.26464e-83
5.22572e-80
1.71423e-76
5.47757e-73
4.30584e-71
1.31143e-70
8.43501e-71
6.04008e-71
1.94014e-77
1.13146e-82
3.56226e-87
8.2546e-92
1.81662e-96
4.67473e-101