/*--------------------------------*- C++ -*----------------------------------*\
| =========                 |                                                 |
| \\      /  F ield         | OpenFOAM: The Open Source CFD Toolbox           |
|  \\    /   O peration     | Version:  2412                                  |
|   \\  /    A nd           | Website:  www.openfoam.com                      |
|    \\/     M anipulation  |                                                 |
\*---------------------------------------------------------------------------*/
FoamFile
{
    version     2.0;
    format      ascii;
    arch        "LSB;label=32;scalar=64";
    class       volScalarField;
    location    "0.15";
    object      alpha.soap;
}
// * * * * * * * * * * * * * * * * * * * * * * * * * * * * * * * * * * * * * //

dimensions      [0 0 0 0 0 0 0];

internalField   nonuniform List<scalar> 
6400
(
1
1
1
1
1
1
1
1
1
1
1
1
1
1
1
1
1
1
1
1
1
1
1
1
1
1
1
1
1
1
1
1
1
1
1
1
1
1
1
1
1
1
1
1
1
1
1
1
1
1
1
1
1
1
1
1
1
1
1
1
1
1
1
1
1
1
1
1
1
1
1
1
1
1
1
1
1
1
1
1
1
1
1
1
1
1
1
1
1
1
1
1
1
1
1
1
1
1
1
1
1
1
1
1
1
1
1
1
1
1
1
1
1
1
1
1
1
1
1
1
1
1
1
1
1
1
1
1
1
1
1
1
1
1
1
1
1
1
1
1
1
1
1
1
1
1
1
1
1
1
1
1
1
1
1
1
1
1
1
1
1
1
1
1
1
1
1
1
1
1
1
1
1
1
1
1
1
1
1
1
1
1
1
1
1
1
1
1
1
1
1
1
1
1
1
1
1
1
1
1
1
1
1
1
1
1
1
1
1
1
1
1
1
1
1
1
1
1
1
1
1
1
1
1
1
1
1
1
1
1
1
1
1
1
1
1
1
1
1
1
1
1
1
1
1
1
1
1
1
1
1
1
1
1
1
1
1
1
1
1
1
1
1
1
1
1
1
1
1
1
1
1
1
1
1
1
1
1
1
1
1
1
1
1
1
1
1
1
1
1
1
1
1
1
1
1
1
1
1
1
1
1
1
1
1
1
1
1
1
1
1
1
1
1
1
1
1
1
1
1
1
1
1
1
1
1
1
1
1
1
1
1
1
1
1
1
1
1
1
1
1
1
1
1
1
1
1
1
1
1
1
1
1
1
1
1
1
1
1
1
1
1
1
1
1
1
1
1
1
1
1
1
1
1
1
1
1
1
1
1
1
1
1
1
1
1
1
1
1
1
1
1
1
1
1
1
1
1
1
1
1
1
1
1
1
1
1
1
1
1
1
1
1
1
1
1
1
1
1
1
1
1
1
1
1
1
1
1
1
1
1
1
1
1
1
1
1
1
1
1
1
1
1
1
1
1
1
1
1
1
1
1
1
1
1
1
1
1
1
1
1
1
1
1
1
1
1
1
1
1
1
1
1
1
1
1
1
1
1
1
1
1
1
1
1
1
1
1
1
1
1
1
1
1
1
1
1
1
1
1
1
1
1
1
1
1
1
1
1
1
1
1
1
1
1
1
1
1
1
1
1
1
1
1
1
1
1
1
1
1
1
1
1
1
1
1
1
1
1
1
1
1
1
1
1
1
1
1
1
1
1
1
1
1
1
1
1
1
1
1
1
1
1
1
1
1
1
1
1
1
1
1
1
1
1
1
1
1
1
1
1
1
1
1
1
1
1
1
1
1
1
1
1
1
1
1
1
1
1
1
1
1
1
1
1
1
1
1
1
1
1
1
1
1
1
1
1
1
1
1
1
1
1
1
1
1
1
1
1
1
1
1
1
1
1
1
1
1
1
1
1
1
1
1
1
1
1
1
1
1
1
1
1
1
1
1
1
1
1
1
1
1
1
1
1
1
1
1
1
1
1
1
1
1
1
1
1
1
1
1
1
1
1
1
1
1
1
1
1
1
1
1
1
1
1
1
1
1
1
1
1
1
1
1
1
1
1
1
1
1
1
1
1
1
1
1
1
1
1
1
1
1
1
1
1
1
1
1
1
1
1
1
1
1
1
1
1
1
1
1
1
1
1
1
1
1
1
1
1
1
1
1
1
1
1
1
1
1
1
1
1
1
1
1
1
1
1
1
1
1
1
1
1
1
1
1
1
1
1
1
1
1
1
1
1
1
1
1
1
1
1
1
1
1
1
1
1
1
1
1
1
1
1
1
1
1
1
1
1
1
1
1
1
1
1
1
1
1
1
1
1
1
1
1
1
1
1
1
1
1
1
1
1
1
1
1
1
1
1
1
1
1
1
1
1
1
1
1
1
1
1
1
1
1
1
1
1
1
1
1
1
1
1
1
1
1
1
1
1
1
1
1
1
1
1
1
1
1
1
1
1
1
1
1
1
1
1
1
1
1
1
1
1
1
1
1
1
1
1
1
1
1
1
1
1
1
1
1
1
1
1
1
1
1
1
1
1
1
1
1
1
1
1
1
1
1
1
1
1
1
1
1
1
1
1
1
1
1
1
1
1
1
1
1
1
1
1
1
1
1
1
1
1
1
1
1
1
1
1
1
1
1
1
1
1
1
1
1
1
1
1
1
1
1
1
1
1
1
1
1
1
1
1
1
1
1
1
1
1
1
1
1
1
1
1
1
1
1
1
1
1
1
1
1
1
1
1
1
1
1
1
1
1
1
1
1
1
1
1
1
1
1
1
1
1
1
1
1
1
1
1
1
1
1
1
1
1
1
1
1
1
1
1
1
1
1
1
1
1
1
1
1
1
1
1
1
1
1
1
1
1
1
1
1
1
1
1
1
1
1
1
1
1
1
1
1
1
1
1
1
1
1
1
1
1
1
1
1
1
1
1
1
1
1
1
1
1
1
1
1
1
1
1
1
1
1
1
1
1
1
1
1
1
1
1
1
1
1
1
1
1
1
1
1
1
1
1
1
1
1
1
1
1
1
1
1
1
1
1
1
1
1
1
1
1
1
1
1
1
1
1
1
1
1
1
1
1
1
1
1
1
1
1
1
1
1
1
1
1
1
1
1
1
1
1
1
1
1
1
1
1
1
1
1
1
1
1
1
1
1
1
1
1
1
1
1
1
1
1
1
1
1
1
1
1
1
1
1
1
1
1
1
1
1
1
1
1
1
1
1
1
1
1
1
1
1
1
1
1
1
1
1
1
1
1
1
1
1
1
1
1
1
1
1
1
1
1
1
1
1
1
1
1
1
1
1
1
1
1
1
1
1
1
1
1
1
1
1
1
1
1
1
1
1
1
1
1
1
1
1
1
1
1
1
1
1
1
1
1
1
1
1
1
1
1
1
1
1
1
1
1
1
1
1
1
1
1
1
1
1
1
1
1
1
1
1
1
1
1
1
1
1
1
1
1
1
1
1
1
1
1
1
1
1
1
1
1
1
1
1
1
1
1
1
1
1
1
1
1
1
1
1
1
1
1
1
1
1
1
1
1
1
1
1
1
1
1
1
1
1
1
1
1
1
1
1
1
1
1
1
1
1
1
1
1
1
1
1
1
1
1
1
1
1
1
1
1
1
1
1
1
1
1
1
1
1
1
1
1
1
1
1
1
1
1
1
1
1
1
1
1
1
1
1
1
1
1
1
1
1
1
1
1
1
1
1
1
1
1
1
1
1
1
1
1
1
1
1
1
1
1
1
1
1
1
1
1
1
1
1
1
1
1
1
1
1
1
1
1
1
1
1
1
1
1
1
1
1
1
1
1
1
1
1
1
1
1
1
1
1
1
1
1
1
1
1
1
1
1
1
1
1
1
1
1
1
1
1
1
1
1
1
1
1
1
1
1
1
1
1
1
1
1
1
1
1
1
1
1
1
1
1
1
1
1
1
1
1
1
1
1
0.999999
0.999997
0.999994
0.999991
0.999988
0.999986
0.999983
0.99998
0.999978
0.999975
0.999973
0.999971
0.999969
0.999967
0.999966
0.999964
0.999963
0.999963
0.999962
0.999962
0.999963
0.999963
0.999964
0.999965
0.999967
0.999968
0.99997
0.999973
0.999975
0.999977
0.99998
0.999982
0.999985
0.999988
0.999991
0.999993
0.999996
0.999999
1
1
1
1
1
1
1
1
1
1
1
1
1
1
1
1
1
1
1
1
1
2.84456e-05
2.83283e-05
2.80704e-05
2.7712e-05
2.7222e-05
2.66046e-05
2.58522e-05
2.4963e-05
2.39415e-05
2.27904e-05
2.15068e-05
2.00831e-05
1.85284e-05
1.68435e-05
1.50286e-05
1.3089e-05
1.10265e-05
8.83512e-06
6.52344e-06
4.11892e-06
1.71041e-06
7.54447e-08
-9.57216e-48
0
2.36969e-86
3.78971e-84
5.42382e-82
6.97841e-80
8.03244e-78
8.21152e-76
7.38648e-74
5.77978e-72
3.87958e-70
2.1961e-68
1.02641e-66
3.85536e-65
1.12306e-63
2.41515e-62
3.56886e-61
3.24924e-60
2.63093e-60
2.79085e-61
1.25815e-62
2.49474e-64
2.58408e-66
1.88566e-68
1.06507e-70
4.95853e-73
2.0595e-75
8.26558e-78
3.40002e-80
1.47385e-82
6.74996e-85
3.24059e-87
1.61552e-89
8.19706e-92
0
-4.09861e-40
-4.46868e-21
1.19257e-06
3.57298e-06
5.96641e-06
8.24452e-06
1.04106e-05
1.2505e-05
1.44925e-05
1.62936e-05
1.79398e-05
1.95318e-05
2.10263e-05
2.23148e-05
2.34043e-05
2.4431e-05
2.54486e-05
2.62453e-05
2.68392e-05
2.74304e-05
2.77448e-05
2.79996e-05
2.81125e-05
3.90649e-12
3.92422e-12
3.93362e-12
3.79004e-12
3.61803e-12
3.43811e-12
3.23681e-12
3.00177e-12
2.73331e-12
2.43968e-12
2.13125e-12
1.8188e-12
1.51022e-12
1.21431e-12
9.39142e-13
6.91337e-13
4.76934e-13
3.00863e-13
1.66517e-13
7.44675e-14
2.07035e-14
-3.03555e-20
-8.15605e-52
3.14279e-84
1.16129e-82
1.61971e-80
2.01674e-78
2.23231e-76
2.18124e-74
1.8571e-72
1.36055e-70
8.44903e-69
4.3668e-67
1.83593e-65
6.09673e-64
1.53721e-62
2.78102e-61
3.26371e-60
2.76572e-59
4.23949e-59
3.82113e-59
1.57158e-59
2.0547e-60
1.25815e-62
2.49474e-64
2.58408e-66
1.88566e-68
1.06507e-70
4.95853e-73
2.0595e-75
8.26558e-78
3.40002e-80
1.47385e-82
6.74943e-85
3.24059e-87
1.61552e-89
2.01431e-89
-1.60753e-44
-6.74326e-23
-5.58119e-19
5.33017e-14
1.33534e-13
2.5664e-13
4.13917e-13
6.06865e-13
8.44723e-13
1.11509e-12
1.39632e-12
1.67844e-12
1.96156e-12
2.24006e-12
2.52228e-12
2.79448e-12
3.00889e-12
3.16934e-12
3.30304e-12
3.46909e-12
3.77104e-12
3.95799e-12
3.93213e-12
4.46111e-15
4.45058e-15
4.44464e-15
4.25911e-15
4.02767e-15
3.7715e-15
3.4814e-15
3.14304e-15
2.77792e-15
2.39553e-15
2.00804e-15
1.63229e-15
1.28162e-15
9.66699e-16
6.94436e-16
4.68573e-16
2.90932e-16
1.60998e-16
7.526e-17
2.67532e-17
5.27292e-18
-2.4546e-20
-5.97042e-56
1.821e-81
1.38983e-79
1.93833e-77
2.40871e-75
2.65365e-73
2.56964e-71
2.16515e-69
1.56868e-67
9.63515e-66
4.93114e-64
2.05769e-62
6.80698e-61
1.71899e-59
3.13775e-58
3.78457e-57
3.14835e-56
6.765e-56
6.09996e-56
1.96443e-56
2.49424e-57
2.19482e-59
4.52612e-61
4.88834e-63
3.73786e-65
2.22154e-67
1.08806e-69
4.72597e-72
1.96366e-74
8.27939e-77
3.65756e-79
1.7065e-81
8.3611e-84
4.26104e-86
2.81078e-86
-5.01706e-49
3.47374e-20
-4.40206e-19
1.70825e-17
5.49009e-17
1.26474e-16
2.37974e-16
3.97586e-16
6.11203e-16
8.68724e-16
1.16125e-15
1.48753e-15
1.83543e-15
2.17966e-15
2.52322e-15
2.86327e-15
3.16341e-15
3.42518e-15
3.63338e-15
3.83447e-15
4.16219e-15
4.38771e-15
4.39941e-15
9.3022e-18
9.22612e-18
9.07158e-18
8.64267e-18
8.11045e-18
7.50035e-18
6.80769e-18
6.03592e-18
5.20965e-18
4.36563e-18
3.54193e-18
2.77243e-18
2.08072e-18
1.485e-18
9.96089e-19
6.17237e-19
3.44779e-19
1.67222e-19
6.62409e-20
1.90329e-20
2.42139e-21
-6.19172e-38
-5.32972e-60
4.03921e-79
1.12458e-76
1.55251e-74
1.90456e-72
2.0672e-70
1.9686e-68
1.62904e-66
1.15829e-64
6.98161e-63
3.5087e-61
1.43975e-59
4.69369e-58
1.17177e-56
2.12407e-55
2.5629e-54
2.10431e-53
5.11539e-53
4.59878e-53
1.36693e-53
1.72567e-54
1.94236e-56
4.12734e-58
4.63435e-60
3.70795e-62
2.31874e-64
1.19698e-66
5.45809e-69
2.35942e-71
1.02359e-73
4.60871e-76
2.17831e-78
1.0779e-80
5.53248e-83
0
-1.66316e-53
1.26749e-23
2.60135e-23
1.14036e-20
4.6183e-20
1.25822e-19
2.68199e-19
4.96173e-19
8.34781e-19
1.28338e-18
1.82318e-18
2.44102e-18
3.13355e-18
3.87789e-18
4.6599e-18
5.43417e-18
6.12054e-18
6.7328e-18
7.27449e-18
7.78004e-18
8.39484e-18
8.71658e-18
8.83498e-18
3.70056e-20
3.64326e-20
3.51661e-20
3.28389e-20
3.00453e-20
2.67725e-20
2.30772e-20
1.91045e-20
1.50758e-20
1.12248e-20
7.75577e-21
4.80613e-21
2.97469e-21
2.00395e-21
1.25467e-21
7.15675e-22
3.61463e-22
1.5481e-22
5.24099e-23
1.2268e-23
1.20113e-24
-4.72066e-39
-3.19602e-64
2.40427e-76
6.94442e-74
9.4476e-72
1.13985e-69
1.21452e-67
1.1338e-65
9.18905e-64
6.39661e-62
3.77525e-60
1.85897e-58
7.4826e-57
2.39707e-55
5.89518e-54
1.05658e-52
1.26795e-51
1.02575e-50
2.69235e-50
2.41519e-50
6.85894e-51
8.66339e-52
1.13655e-53
2.4907e-55
2.91073e-57
2.4403e-59
1.60893e-61
8.78361e-64
4.22752e-66
1.91585e-68
8.63215e-71
4.00054e-73
1.93347e-75
9.74265e-78
5.07865e-80
2.39702e-95
-7.46075e-58
8.08332e-31
4.23997e-27
6.63076e-24
3.37618e-23
1.09829e-22
2.68426e-22
5.52049e-22
1.01258e-21
1.67758e-21
2.54359e-21
4.02678e-21
6.56574e-21
9.6416e-21
1.31455e-20
1.69267e-20
2.05417e-20
2.37843e-20
2.68085e-20
2.94552e-20
3.18942e-20
3.35745e-20
3.4283e-20
8.53706e-23
8.40516e-23
8.08044e-23
7.49166e-23
6.78499e-23
5.97005e-23
5.06765e-23
4.11954e-23
3.18339e-23
2.31571e-23
1.56162e-23
9.47012e-24
5.20161e-24
3.31227e-24
1.93871e-24
1.01976e-24
4.66743e-25
1.77052e-25
5.14437e-26
9.87138e-27
7.49215e-28
-1.16445e-42
-5.11743e-68
3.55175e-73
3.47346e-71
4.62615e-69
5.4702e-67
5.70444e-65
5.20701e-63
4.12433e-61
2.8055e-59
1.61835e-57
7.79289e-56
3.07024e-54
9.64095e-53
2.3291e-51
4.11365e-50
4.88955e-49
3.89308e-48
1.07458e-47
9.62486e-48
2.66194e-48
3.37676e-49
4.93196e-51
1.11552e-52
1.35811e-54
1.19446e-56
8.31685e-59
4.81449e-61
2.45635e-63
1.17439e-65
5.53967e-68
2.66606e-70
1.32938e-72
6.8791e-75
3.66958e-77
-2.31392e-101
-4.91312e-62
2.33867e-49
1.27082e-30
4.83951e-27
3.06399e-26
1.17715e-25
3.28856e-25
7.5442e-25
1.51213e-24
2.6907e-24
4.32592e-24
7.76609e-24
1.30379e-23
1.95524e-23
2.71352e-23
3.55839e-23
4.4053e-23
5.19035e-23
5.9193e-23
6.57382e-23
7.23147e-23
7.59814e-23
7.80634e-23
2.21881e-25
2.18438e-25
2.09279e-25
1.92719e-25
1.72885e-25
1.50333e-25
1.25795e-25
1.0053e-25
7.6148e-26
5.41356e-26
3.5578e-26
2.09975e-26
1.0824e-26
6.5258e-27
3.57753e-27
1.73921e-27
7.23451e-28
2.43981e-28
6.11543e-29
9.68991e-30
5.75329e-31
-4.23842e-47
-2.06388e-83
5.16275e-71
1.4471e-68
1.88608e-66
2.17938e-64
2.21889e-62
1.97642e-60
1.52725e-58
1.0135e-56
5.70443e-55
2.68132e-53
1.032e-51
3.16997e-50
7.50651e-49
1.30345e-47
1.53019e-46
1.19837e-45
3.42168e-45
3.06104e-45
8.33837e-46
1.06476e-46
1.68696e-48
3.94028e-50
5.00142e-52
4.61918e-54
3.40185e-56
2.09343e-58
1.13668e-60
5.76594e-63
2.86827e-65
1.44526e-67
7.49721e-70
4.01713e-72
2.20899e-74
-9.22989e-103
-4.87324e-66
7.2321e-50
4.84264e-34
4.30958e-30
3.38045e-29
1.52722e-28
4.8453e-28
1.23206e-27
2.68914e-27
5.13712e-27
8.76174e-27
1.67021e-26
2.90089e-26
4.48748e-26
6.38378e-26
8.54214e-26
1.07705e-25
1.28852e-25
1.48659e-25
1.66171e-25
1.84817e-25
1.94912e-25
1.99907e-25
6.65542e-28
6.54756e-28
6.25271e-28
5.7197e-28
5.08357e-28
4.37022e-28
3.6071e-28
2.83595e-28
2.1071e-28
1.4645e-28
9.37621e-29
5.37583e-29
2.65104e-29
1.50262e-29
7.73307e-30
3.48418e-30
1.32167e-30
3.97997e-31
8.65477e-32
1.14134e-32
5.35464e-34
-3.32375e-49
3.50991e-71
1.93118e-68
5.14658e-66
6.54578e-64
7.37432e-62
7.31609e-60
6.34813e-58
4.77785e-56
3.08808e-54
1.69312e-52
7.7557e-51
2.91151e-49
8.73513e-48
2.02454e-46
3.45079e-45
3.99332e-44
3.07477e-43
8.98045e-43
8.0238e-43
2.16795e-43
2.79086e-44
4.71956e-46
1.1389e-47
1.50838e-49
1.46461e-51
1.1428e-53
7.49524e-56
4.34768e-58
2.35207e-60
1.24199e-62
6.60069e-65
3.58844e-67
2.00571e-69
1.14562e-71
-5.8867e-92
-7.28704e-70
-3.58446e-56
2.32768e-37
4.6221e-33
4.44378e-32
2.34572e-31
8.42013e-31
2.36606e-30
5.60471e-30
1.14582e-29
2.06797e-29
4.15646e-29
7.47752e-29
1.19511e-28
1.74595e-28
2.38352e-28
3.053e-28
3.70137e-28
4.31897e-28
4.86645e-28
5.45253e-28
5.8021e-28
5.93214e-28
2.2668e-30
2.22774e-30
2.12069e-30
1.9276e-30
1.69829e-30
1.44448e-30
1.17715e-30
9.11521e-31
6.65064e-31
4.52349e-31
2.82315e-31
1.57251e-31
7.48511e-32
3.98413e-32
1.92997e-32
8.08479e-33
2.80762e-33
7.58526e-34
1.43977e-34
1.59345e-35
5.98552e-37
-2.3517e-52
1.28689e-63
6.08765e-66
1.58532e-63
1.96351e-61
2.15281e-59
2.07781e-57
1.75347e-55
1.28333e-53
8.06576e-52
4.30129e-50
1.91755e-48
7.01302e-47
2.05299e-45
4.65251e-44
7.77548e-43
8.8563e-42
6.70137e-41
1.98574e-40
1.77165e-40
4.77107e-41
6.19906e-42
1.10672e-43
2.76077e-45
3.81913e-47
3.90396e-49
3.23323e-51
2.26574e-53
1.40885e-55
8.16536e-58
4.60266e-60
2.59713e-62
1.48962e-64
8.7384e-67
5.23042e-69
3.16715e-71
-3.3137e-86
1.93479e-57
8.99535e-41
5.89124e-36
6.8791e-35
4.2134e-34
1.70151e-33
5.2624e-33
1.34873e-32
2.94276e-32
5.60699e-32
1.18523e-31
2.20021e-31
3.6182e-31
5.42202e-31
7.55913e-31
9.84087e-31
1.20899e-30
1.42473e-30
1.6211e-30
1.82826e-30
1.96277e-30
2.00995e-30
8.66219e-33
8.50415e-33
8.07093e-33
7.29233e-33
6.37312e-33
5.36787e-33
4.32352e-33
3.30109e-33
2.36788e-33
1.57779e-33
9.60894e-34
5.20405e-34
2.39732e-34
1.20258e-34
5.49999e-35
2.14983e-35
6.86365e-36
1.67218e-36
2.78852e-37
2.61319e-38
7.96008e-40
-6.37553e-54
2.57918e-63
1.66732e-63
4.27233e-61
5.14572e-59
5.48271e-57
5.14023e-55
4.21235e-53
2.9933e-51
1.8268e-49
9.46402e-48
4.10212e-46
1.46042e-44
4.16836e-43
9.22913e-42
1.51084e-40
1.69146e-39
1.25706e-38
3.75597e-38
3.34606e-38
9.01618e-39
1.18351e-39
2.21307e-41
5.71145e-43
8.26245e-45
8.90467e-47
7.84161e-49
5.88465e-51
3.93433e-53
2.45231e-55
1.48257e-57
8.93357e-60
5.44198e-62
3.37183e-64
2.12247e-66
1.34992e-68
2.59743e-70
-5.25697e-59
4.1919e-44
8.8507e-39
1.24302e-37
8.78037e-37
3.96706e-36
1.34361e-35
3.71201e-35
8.6184e-35
1.72904e-34
3.82265e-34
7.31153e-34
1.23397e-33
1.89289e-33
2.69328e-33
3.56416e-33
4.43898e-33
5.27977e-33
6.06563e-33
6.89373e-33
7.43769e-33
7.64441e-33
3.67795e-35
3.60777e-35
3.4144e-35
3.06817e-35
2.66186e-35
2.2222e-35
1.77083e-35
1.33457e-35
9.42164e-36
6.1574e-36
3.66398e-36
1.93222e-36
8.64328e-37
4.09523e-37
1.77421e-37
6.49613e-38
1.91541e-38
4.2312e-39
6.24253e-40
5.00027e-41
8.42357e-43
-2.89789e-56
5.15724e-63
4.09258e-61
1.0149e-58
1.18714e-56
1.22753e-54
1.1163e-52
8.87068e-51
6.11236e-49
3.61839e-47
1.8195e-45
7.66236e-44
2.65373e-42
7.37982e-41
1.59507e-39
2.55516e-38
2.8082e-37
2.04858e-36
6.1437e-36
5.46605e-36
1.47844e-36
1.96803e-37
3.82106e-39
1.0212e-40
1.54696e-42
1.7604e-44
1.65123e-46
1.32979e-48
9.58581e-51
6.44878e-53
4.19898e-55
2.71483e-57
1.76615e-59
1.16279e-61
7.74318e-64
5.19013e-66
2.16993e-67
1.93431e-63
2.57593e-47
1.56408e-41
2.60831e-40
2.10832e-39
1.05976e-38
3.90821e-38
1.15795e-37
2.84977e-37
6.00131e-37
1.38858e-36
2.73179e-36
4.71941e-36
7.38741e-36
1.07035e-35
1.43912e-35
1.81754e-35
2.18317e-35
2.52793e-35
2.89583e-35
3.13343e-35
3.22262e-35
1.72131e-37
1.68738e-37
1.593e-37
1.42452e-37
1.22784e-37
1.01691e-37
8.02517e-38
5.97589e-38
4.1566e-38
2.66773e-38
1.55352e-38
7.99299e-39
3.48087e-39
1.56206e-39
6.43363e-40
2.2157e-40
6.06289e-41
1.22158e-41
1.60661e-42
1.11147e-43
9.83282e-46
-1.3913e-56
1.27762e-60
1.72567e-58
2.13493e-56
2.42315e-54
2.42849e-52
2.13945e-50
1.64673e-48
1.09926e-46
6.30749e-45
3.07666e-43
1.25808e-41
4.23584e-40
1.14683e-38
2.41767e-37
3.78613e-36
4.08027e-35
2.92016e-34
8.75919e-34
7.78486e-34
2.11922e-34
2.8655e-35
5.74712e-37
1.59231e-38
2.52952e-40
3.04443e-42
3.04732e-44
2.63925e-46
2.05655e-48
1.49808e-50
1.05455e-52
7.34579e-55
5.12632e-57
3.60221e-59
2.54856e-61
1.85061e-63
3.52113e-65
5.17604e-63
2.08122e-50
3.23644e-44
6.32113e-43
5.78623e-42
3.21534e-41
1.28484e-40
4.06251e-40
1.05528e-39
2.32527e-39
5.62006e-39
1.13548e-38
2.00674e-38
3.20212e-38
4.71687e-38
6.43452e-38
8.22745e-38
9.97965e-38
1.16328e-37
1.34154e-37
1.45763e-37
1.49677e-37
8.81884e-40
8.64124e-40
8.1411e-40
7.24952e-40
6.21313e-40
5.10959e-40
3.99704e-40
2.94375e-40
2.01972e-40
1.27486e-40
7.27914e-41
3.66268e-41
1.55758e-41
6.63482e-42
2.60771e-42
8.48434e-43
2.16573e-43
4.00549e-44
4.73451e-45
2.86015e-46
1.38717e-48
1.71958e-56
2.7044e-58
3.35999e-56
3.99127e-54
4.38919e-52
4.2587e-50
3.6312e-48
2.70521e-46
1.7485e-44
9.71988e-43
4.59677e-41
1.82408e-39
5.96646e-38
1.57152e-36
3.22877e-35
4.93901e-34
5.21441e-33
3.65926e-32
1.09454e-31
9.71914e-32
2.66843e-32
3.66761e-33
7.57597e-35
2.17874e-36
3.63566e-38
4.63637e-40
4.96231e-42
4.63245e-44
3.91176e-46
3.09452e-48
2.36286e-50
1.77955e-52
1.3374e-54
1.00705e-56
7.59515e-59
6.07504e-61
1.19079e-62
1.6848e-60
2.19426e-53
7.78207e-47
1.76117e-45
1.80704e-44
1.10138e-43
4.7468e-43
1.59596e-42
4.35949e-42
1.00939e-41
2.51522e-41
5.21104e-41
9.41534e-41
1.53064e-40
2.28927e-40
3.16253e-40
4.08302e-40
4.9935e-40
5.85864e-40
6.79369e-40
7.42031e-40
7.61921e-40
4.91658e-42
4.8165e-42
4.53028e-42
4.02e-42
3.42859e-42
2.80227e-42
2.17498e-42
1.58598e-42
1.07478e-42
6.68348e-43
3.74991e-43
1.8503e-43
7.71117e-44
3.12297e-44
1.17593e-44
3.63117e-45
8.69463e-46
1.48618e-46
1.59247e-47
8.49651e-49
2.36041e-51
3.12342e-54
2.37849e-56
6.01772e-54
6.70382e-52
7.06415e-50
6.63087e-48
5.46922e-46
3.94232e-44
2.46644e-42
1.32786e-40
6.08579e-39
2.34226e-37
7.43868e-36
1.90496e-34
3.81207e-33
5.6922e-32
5.88232e-31
4.04516e-30
1.2032e-29
1.06739e-29
2.96061e-30
4.13931e-31
8.78792e-33
2.62701e-34
4.61354e-36
6.24651e-38
7.16447e-40
7.22617e-42
6.62958e-44
5.71222e-46
4.74696e-48
3.87886e-50
3.15132e-52
2.55344e-54
2.06163e-56
1.82698e-58
3.72227e-60
4.93209e-58
2.38361e-56
2.16255e-49
5.61689e-48
6.41144e-47
4.2512e-46
1.9634e-45
6.98964e-45
2.00076e-44
4.87631e-44
1.24445e-43
2.63522e-43
4.85393e-43
8.02146e-43
1.21591e-42
1.69835e-42
2.21032e-42
2.72044e-42
3.21139e-42
3.74228e-42
4.10482e-42
4.22127e-42
2.9668e-44
2.9064e-44
2.73039e-44
2.41601e-44
2.05227e-44
1.66855e-44
1.28623e-44
9.29776e-45
6.23316e-45
3.82622e-45
2.11477e-45
1.02625e-45
4.20501e-46
1.62223e-46
5.87614e-47
1.73051e-47
3.90965e-48
6.22067e-49
6.09421e-50
2.87293e-51
2.00617e-53
1.31371e-53
3.90225e-54
9.67438e-52
1.00348e-49
1.00949e-47
9.17134e-46
7.31692e-44
5.10249e-42
3.08942e-40
1.61039e-38
7.15022e-37
2.66815e-35
8.22448e-34
2.04707e-32
3.98831e-31
5.80992e-30
5.87159e-29
3.95335e-28
1.16611e-27
1.03337e-27
2.90016e-28
4.12847e-29
9.23251e-31
2.79894e-32
5.1846e-34
7.46991e-36
9.20297e-38
1.00544e-39
1.00488e-41
9.45807e-44
8.58252e-46
7.63442e-48
6.72737e-50
5.88577e-52
5.10928e-54
2.35842e-55
1.03208e-57
1.87355e-57
2.75967e-57
6.93141e-52
2.04076e-50
2.57204e-49
1.84339e-48
9.06085e-48
3.39548e-47
1.01404e-46
2.61319e-46
6.78926e-46
1.46308e-45
2.73676e-45
4.58372e-45
7.02852e-45
9.91467e-45
1.30035e-44
1.60931e-44
1.9096e-44
2.23536e-44
2.45862e-44
2.52988e-44
1.92834e-46
1.88951e-46
1.77368e-46
1.56609e-46
1.32603e-46
1.07345e-46
8.22805e-47
5.90466e-47
3.92304e-47
2.38252e-47
1.30065e-47
6.22633e-48
2.51654e-48
9.26575e-49
3.24252e-49
9.15343e-50
1.96315e-50
2.91484e-51
2.74641e-52
4.91219e-53
5.78363e-53
2.00617e-53
1.37998e-51
1.3881e-49
1.33527e-47
1.28223e-45
1.12669e-43
8.69427e-42
5.86557e-40
3.43678e-38
1.73431e-36
7.45929e-35
2.69855e-33
8.07301e-32
1.95267e-30
3.70271e-29
5.25888e-28
5.19227e-27
3.41904e-26
9.97553e-26
8.8297e-26
2.51179e-26
3.64479e-27
8.90901e-29
2.64011e-30
5.1712e-32
7.94888e-34
1.05457e-35
1.25119e-37
1.36575e-39
1.40773e-41
1.3986e-43
1.35801e-45
1.30095e-47
1.23138e-49
1.18432e-51
5.82586e-53
6.31839e-55
3.51908e-57
3.47114e-55
2.84284e-54
8.38992e-53
1.16123e-51
8.93465e-51
4.64728e-50
1.82295e-49
5.65223e-49
1.53635e-48
4.05191e-48
8.86134e-48
1.67894e-47
2.84349e-47
4.40294e-47
6.26353e-47
8.27385e-47
1.02932e-46
1.22645e-46
1.44109e-46
1.58851e-46
1.63329e-46
1.34411e-48
1.31763e-48
1.23638e-48
1.09003e-48
9.20739e-49
7.42914e-49
5.66957e-49
4.04579e-49
2.66941e-49
1.60779e-49
8.69323e-50
4.1178e-50
1.64717e-50
5.79992e-51
1.96958e-51
5.35601e-52
1.0877e-52
3.03137e-53
3.48628e-53
4.42669e-53
4.91219e-53
1.85314e-51
1.89994e-49
1.79374e-47
1.61512e-45
1.45574e-43
1.22779e-41
9.16656e-40
5.98371e-38
3.39322e-36
1.65798e-34
6.90912e-33
2.42373e-31
7.0378e-30
1.65406e-28
3.05153e-27
4.22263e-26
4.06868e-25
2.61687e-24
7.53532e-24
6.66258e-24
1.92485e-24
2.85047e-25
7.56245e-27
2.20738e-28
4.58493e-30
7.54022e-32
1.08001e-33
1.3949e-35
1.66674e-37
1.88519e-39
2.05461e-41
2.18249e-43
2.2775e-45
2.33496e-47
2.54899e-49
1.30717e-50
1.45684e-52
4.84172e-55
1.24966e-54
1.3185e-54
8.29147e-55
5.77381e-54
4.81774e-53
2.6395e-52
1.07815e-51
3.45475e-51
9.85838e-51
2.6316e-50
5.82856e-50
1.11682e-49
1.9098e-49
2.98139e-49
4.26877e-49
5.66848e-49
7.08067e-49
8.46253e-49
9.96979e-49
1.10117e-48
1.13139e-48
1.00063e-50
9.81567e-51
9.21044e-51
8.11308e-51
6.84248e-51
5.50897e-51
4.19185e-51
2.97992e-51
1.9568e-51
1.1718e-51
6.29283e-52
2.95853e-52
1.17517e-52
3.96612e-53
1.30492e-53
3.55131e-54
1.79375e-54
1.60537e-53
3.03137e-53
3.48628e-53
2.33994e-51
2.43113e-49
2.32249e-47
2.08717e-45
1.7765e-43
1.47414e-41
1.18326e-39
8.56066e-38
5.40927e-36
2.97004e-34
1.4058e-32
5.6785e-31
1.93225e-29
5.4464e-28
1.24361e-26
2.23127e-25
3.00617e-24
2.82383e-23
1.77159e-22
5.02462e-22
4.43854e-22
1.30478e-22
1.97431e-23
5.66189e-25
1.6366e-26
3.61618e-28
6.3821e-30
9.89569e-32
1.39477e-33
1.82868e-35
2.27466e-37
2.72446e-39
3.1722e-41
3.61276e-43
4.02377e-45
2.1152e-46
2.74718e-48
2.91447e-50
3.01594e-52
2.9211e-54
8.29147e-55
4.96812e-55
1.64477e-55
3.60988e-55
1.64434e-54
7.00588e-54
2.30991e-53
6.89975e-53
1.85738e-52
4.15422e-52
8.03187e-52
1.38422e-51
2.17468e-51
3.12793e-51
4.16619e-51
5.21579e-51
6.24537e-51
7.36956e-51
8.15109e-51
8.37297e-51
7.9264e-53
7.78213e-53
7.30493e-53
6.43295e-53
5.42191e-53
4.36095e-53
3.31369e-53
2.35117e-53
1.54003e-53
9.19223e-54
4.91663e-54
2.30137e-54
9.10169e-55
2.91302e-55
1.882e-55
3.4924e-55
1.15201e-54
1.79375e-54
2.17651e-53
2.5703e-51
2.75324e-49
2.71726e-47
2.49139e-45
2.13609e-43
1.72166e-41
1.31642e-39
1.00867e-37
7.0669e-36
4.32525e-34
2.30102e-32
1.05576e-30
4.13584e-29
1.36551e-27
3.73656e-26
8.28807e-25
1.44576e-23
1.89547e-22
1.73408e-21
1.05959e-20
2.95376e-20
2.60693e-20
7.81184e-21
1.20944e-21
3.74174e-23
1.07547e-24
2.53707e-26
4.82232e-28
8.11956e-30
1.25229e-31
1.80623e-33
2.47688e-35
3.26682e-37
4.17565e-39
5.19415e-41
6.5427e-43
3.67264e-44
4.90504e-46
5.44306e-48
5.90142e-50
5.95187e-52
5.45774e-54
1.64478e-55
1.64478e-55
9.44906e-56
2.45036e-56
4.9283e-56
1.67347e-55
5.25936e-55
1.42212e-54
3.19991e-54
6.22221e-54
1.0778e-53
1.70023e-53
2.45246e-53
3.27156e-53
4.09922e-53
4.91292e-53
5.8033e-53
6.42412e-53
6.59662e-53
6.65759e-55
6.54347e-55
6.14661e-55
5.41487e-55
4.56499e-55
3.67263e-55
2.79122e-55
1.9805e-55
1.29684e-55
7.73462e-56
4.13202e-56
1.91081e-56
7.3069e-57
7.82658e-57
9.80133e-56
1.882e-55
3.4924e-55
2.3342e-53
2.35554e-51
2.73805e-49
2.86826e-47
2.74734e-45
2.42719e-43
1.99162e-41
1.52614e-39
1.10036e-37
7.71289e-36
5.13539e-34
3.05151e-32
1.57436e-30
7.00701e-29
2.66341e-27
8.53514e-26
2.26776e-24
4.88669e-23
8.28685e-22
1.05678e-20
9.40633e-20
5.5881e-19
1.52742e-18
1.34679e-18
4.12191e-19
6.54078e-20
2.18333e-21
6.2564e-23
1.58261e-24
3.25357e-26
5.97022e-28
1.01037e-29
1.60657e-31
2.43298e-33
3.539e-35
4.97224e-37
6.7622e-39
3.84627e-40
5.97266e-42
7.43909e-44
9.01656e-46
1.01796e-47
1.06142e-49
1.01419e-51
8.7322e-54
9.44906e-56
2.45036e-56
1.39237e-56
2.96414e-57
2.58458e-57
4.25799e-57
1.17687e-56
2.65541e-56
5.17439e-56
8.9802e-56
1.41869e-55
2.04821e-55
2.73339e-55
3.42507e-55
4.1062e-55
4.85384e-55
5.37666e-55
5.51688e-55
5.90965e-57
5.81588e-57
5.46897e-57
4.82269e-57
4.07055e-57
3.27974e-57
2.49702e-57
1.77509e-57
1.16447e-57
6.95093e-58
3.64066e-58
2.50585e-58
1.21376e-57
5.00176e-57
7.82594e-57
2.07171e-55
2.47757e-53
2.76611e-51
2.70564e-49
2.47224e-47
2.55317e-45
2.38818e-43
2.04369e-41
1.61215e-39
1.17949e-37
8.04207e-36
5.16433e-34
3.28294e-32
1.89246e-30
9.48118e-29
4.09622e-27
1.51159e-25
4.70392e-24
1.2141e-22
2.54245e-21
4.19176e-20
5.19752e-19
4.49645e-18
2.59444e-17
6.97087e-17
6.13433e-17
1.91363e-17
3.11645e-18
1.12427e-19
3.21659e-21
8.76849e-23
1.95898e-24
3.93235e-26
7.32118e-28
1.2854e-29
2.15163e-31
3.45336e-33
5.33543e-35
8.10308e-37
5.03189e-38
8.02587e-40
1.04267e-41
1.31854e-43
1.54018e-45
1.64818e-47
1.60089e-49
1.39382e-51
1.05616e-53
9.73412e-56
2.9634e-57
2.58457e-57
1.33549e-57
8.63992e-59
1.00824e-58
2.34273e-58
4.60326e-58
7.98243e-58
1.25986e-57
1.81695e-57
2.42245e-57
3.03312e-57
3.63519e-57
4.29785e-57
4.76261e-57
4.88211e-57
5.52637e-59
5.44694e-59
5.12933e-59
4.53056e-59
3.83203e-59
3.09594e-59
2.36478e-59
1.68733e-59
1.10174e-59
6.37739e-60
9.0381e-60
1.30513e-58
2.50581e-58
1.21294e-57
1.4916e-55
1.95408e-53
2.34031e-51
2.5709e-49
2.59352e-47
2.37605e-45
1.99316e-43
1.84014e-41
1.53592e-39
1.17167e-37
8.22281e-36
5.3353e-34
3.22468e-32
1.87127e-30
1.02663e-28
5.0018e-27
2.09951e-25
7.52782e-24
2.27674e-22
5.7129e-21
1.16328e-19
1.86511e-18
2.24843e-17
1.89649e-16
1.11464e-15
2.76009e-15
2.44419e-15
8.05994e-16
1.30861e-16
5.09794e-18
1.45805e-19
4.30731e-21
1.0512e-22
2.31768e-24
4.75986e-26
9.24057e-28
1.71049e-29
3.02833e-31
5.14098e-33
3.28817e-34
6.1067e-36
8.9771e-38
1.27675e-39
1.67554e-41
2.01421e-43
2.19785e-45
2.15051e-47
1.84832e-49
1.7724e-51
1.72267e-53
1.55699e-55
1.66204e-57
8.63906e-59
5.40315e-59
1.23145e-59
2.96515e-60
4.27584e-60
7.53893e-60
1.18788e-59
1.70838e-59
2.27223e-59
2.83966e-59
3.39929e-59
4.01647e-59
4.44947e-59
4.55518e-59
5.42775e-61
5.35906e-61
5.0556e-61
4.4756e-61
3.79695e-61
3.07951e-61
2.3634e-61
1.67338e-61
1.32904e-61
1.08946e-60
4.84059e-60
9.03452e-60
5.27638e-58
8.32362e-56
1.19492e-53
1.55689e-51
1.84754e-49
2.00533e-47
1.99212e-45
1.81441e-43
1.51623e-41
1.19225e-39
9.81121e-38
7.29236e-36
4.94198e-34
3.07203e-32
1.75907e-30
9.36241e-29
4.86563e-27
2.29367e-25
9.3788e-24
3.27165e-22
9.62845e-21
2.35139e-19
4.65976e-18
7.27291e-17
8.59833e-16
7.22073e-15
3.43389e-14
7.29076e-14
6.64302e-14
2.59919e-14
4.99832e-15
2.02739e-16
5.80869e-18
1.87183e-19
5.02179e-21
1.22211e-22
2.77707e-24
5.96776e-26
1.22105e-27
2.38229e-29
5.8383e-31
3.19485e-32
5.94889e-34
9.21406e-36
1.36135e-37
1.83848e-39
2.25311e-41
2.47899e-43
2.40506e-45
2.54445e-47
2.74887e-49
2.73539e-51
2.5065e-53
2.1077e-55
1.594e-57
1.2298e-59
2.9651e-60
1.54311e-60
1.02435e-61
7.27137e-62
1.17536e-61
1.69771e-61
2.24938e-61
2.80237e-61
3.34713e-61
3.94894e-61
4.37006e-61
4.4659e-61
5.58202e-63
5.52217e-63
5.22073e-63
4.63527e-63
3.94779e-63
3.2121e-63
2.38389e-63
3.09282e-63
6.8269e-62
1.329e-61
1.08835e-60
1.96385e-58
3.49009e-56
5.5682e-54
8.01058e-52
1.04346e-49
1.23444e-47
1.33195e-45
1.31093e-43
1.17884e-41
9.68936e-40
7.30016e-38
5.38734e-36
3.94654e-34
2.60568e-32
1.56319e-30
8.56156e-29
4.30432e-27
2.02755e-25
9.1026e-24
3.62205e-22
1.23234e-20
3.53451e-19
8.41332e-18
1.62581e-16
2.50492e-15
2.93923e-14
1.77798e-13
3.91911e-13
1.14236e-12
1.00694e-12
3.72243e-13
1.27768e-13
6.90131e-15
2.02676e-16
7.18027e-18
2.13388e-19
5.76731e-21
1.45577e-22
3.46858e-24
7.83831e-26
1.6827e-27
1.28637e-28
2.86775e-30
4.96299e-32
8.28784e-34
1.26207e-35
1.73825e-37
2.14716e-39
2.34126e-41
2.76214e-43
3.31593e-45
3.66164e-47
3.71265e-49
3.43177e-51
2.66256e-53
1.87085e-55
1.18609e-57
6.79206e-60
1.02366e-61
5.63572e-62
1.51895e-62
1.46736e-63
1.75284e-63
2.34144e-63
2.90494e-63
3.45813e-63
4.07032e-63
4.49706e-63
4.58613e-63
5.99309e-65
5.94159e-65
5.63154e-65
5.01799e-65
4.267e-65
3.35337e-65
1.33418e-64
1.39113e-63
3.09259e-63
2.23304e-61
5.07336e-59
1.0258e-56
1.84677e-54
2.97859e-52
4.324e-50
5.66969e-48
6.7328e-46
7.27155e-44
7.14027e-42
6.38262e-40
5.19847e-38
3.85398e-36
2.61409e-34
1.79316e-32
1.16761e-30
6.82701e-29
3.60802e-27
1.72982e-25
7.58067e-24
3.13995e-22
1.19945e-20
3.98697e-19
1.11687e-17
2.59903e-16
4.99645e-15
7.42818e-14
5.64753e-13
1.85884e-12
8.69239e-12
2.57751e-11
2.24441e-11
6.66949e-12
1.27762e-12
1.41703e-13
6.17051e-15
2.42434e-16
8.04938e-18
2.43364e-19
6.85992e-21
1.81873e-22
4.55137e-24
3.76007e-25
9.90857e-27
1.96229e-28
3.71744e-30
6.39049e-32
9.90499e-34
1.37318e-35
1.67543e-37
2.27488e-39
3.04142e-41
3.72416e-43
4.10512e-45
3.85636e-47
3.28866e-49
2.54237e-51
1.77648e-53
1.1173e-55
6.29635e-58
3.16079e-60
1.51673e-62
1.46731e-63
7.56087e-64
3.54047e-65
2.46123e-65
3.14325e-65
3.73649e-65
4.38394e-65
4.83326e-65
4.91836e-65
6.69725e-67
6.65509e-67
6.32655e-67
5.61844e-67
5.06684e-67
7.3522e-66
2.51388e-65
1.33417e-64
3.14953e-62
8.43927e-60
1.9764e-57
4.08358e-55
7.50194e-53
1.23256e-50
1.81901e-48
2.41916e-46
2.90695e-44
3.16743e-42
3.12805e-40
2.80214e-38
2.27795e-36
1.68087e-34
1.12314e-32
6.84761e-31
4.32589e-29
2.49868e-27
1.28868e-25
5.96609e-24
2.48535e-22
9.4124e-21
3.38744e-19
1.09229e-17
3.00734e-16
7.02629e-15
1.27969e-13
1.19073e-12
5.14549e-12
3.41994e-11
1.73389e-10
5.42988e-10
4.72534e-10
1.3095e-10
2.52619e-11
2.70872e-12
1.63174e-13
7.17729e-15
2.68598e-16
9.14878e-18
2.89446e-19
8.56103e-21
6.28787e-22
2.36337e-23
5.60051e-25
1.20165e-26
2.34499e-28
4.09934e-30
6.37295e-32
8.6894e-34
1.39701e-35
2.08559e-37
2.71589e-39
3.0745e-41
3.15748e-43
2.94794e-45
2.49305e-47
1.90657e-49
1.3149e-51
8.14879e-54
4.51741e-56
2.22694e-58
9.68587e-61
3.69743e-63
3.54043e-65
1.46828e-65
1.86558e-66
3.43277e-67
4.18007e-67
4.92029e-67
5.41029e-67
5.4933e-67
7.76666e-69
7.73681e-69
7.35168e-69
7.35064e-69
2.51198e-67
5.06684e-67
7.3522e-66
2.62206e-63
8.42504e-61
2.33119e-58
5.62884e-56
1.19795e-53
2.26398e-51
3.82041e-49
5.77994e-47
7.86372e-45
9.65304e-43
1.07073e-40
1.07328e-38
9.72547e-37
7.9666e-35
5.8979e-33
3.94466e-31
2.37453e-29
1.30005e-27
7.48687e-26
3.82651e-24
1.73364e-22
6.9918e-21
2.51282e-19
8.14645e-18
2.516e-16
6.93023e-15
1.5077e-13
1.73003e-12
1.05733e-11
8.91266e-11
6.53256e-10
3.16204e-09
9.59844e-09
8.35724e-09
2.38537e-09
4.83381e-10
5.53373e-11
3.72839e-12
1.85428e-13
7.89028e-15
3.04561e-16
1.08493e-17
6.48467e-19
3.8663e-20
1.13432e-21
2.7494e-23
6.10503e-25
1.20654e-26
2.10472e-28
3.46351e-30
6.29822e-32
9.72602e-34
1.33106e-35
1.65006e-37
1.85223e-39
1.88161e-41
1.73198e-43
1.44039e-45
1.08063e-47
7.29563e-50
4.41806e-52
2.38969e-54
1.14781e-56
4.85803e-59
1.79383e-61
5.70637e-64
1.86558e-66