/*--------------------------------*- C++ -*----------------------------------*\
| =========                 |                                                 |
| \\      /  F ield         | OpenFOAM: The Open Source CFD Toolbox           |
|  \\    /   O peration     | Version:  2412                                  |
|   \\  /    A nd           | Website:  www.openfoam.com                      |
|    \\/     M anipulation  |                                                 |
\*---------------------------------------------------------------------------*/
FoamFile
{
    version     2.0;
    format      ascii;
    arch        "LSB;label=32;scalar=64";
    class       surfaceScalarField;
    location    "1.7";
    object      alphaPhi0.lava;
}
// * * * * * * * * * * * * * * * * * * * * * * * * * * * * * * * * * * * * * //

dimensions      [0 3 -1 0 0 0 0];

oriented        oriented;

internalField   nonuniform List<scalar> 
12640
(
-2.63834e-11
7.56276e-11
-3.3909e-11
2.18057e-10
4.59865e-11
2.59218e-10
2.05636e-10
1.31018e-10
3.55153e-10
-1.1195e-10
3.94223e-10
-3.08378e-10
2.85416e-10
-2.93047e-10
9.84974e-11
-1.97431e-11
-2.17122e-11
3.89103e-10
5.26126e-11
6.95204e-10
3.31473e-10
7.03041e-10
6.82254e-10
3.99787e-10
9.0571e-10
-1.1224e-11
8.75415e-10
-2.42163e-10
6.32444e-10
-1.13396e-10
3.64017e-10
3.15294e-10
2.71468e-10
7.89304e-10
4.30376e-10
1.03146e-09
7.43635e-10
9.26346e-10
1.02044e-09
5.75919e-10
1.1114e-09
2.10361e-10
9.99623e-10
2.62015e-11
7.89123e-10
7.68188e-11
6.16885e-10
2.71685e-10
5.61877e-10
4.6487e-10
6.12355e-10
5.52368e-10
6.97791e-10
5.17872e-10
7.47844e-10
4.12561e-10
7.32951e-10
3.0338e-10
6.67218e-10
2.30534e-10
5.84296e-10
1.96864e-10
5.10638e-10
1.82842e-10
4.53337e-10
1.68433e-10
4.04419e-10
1.45621e-10
3.52485e-10
1.17979e-10
2.91663e-10
9.28344e-11
2.2344e-10
7.41433e-11
1.53106e-10
6.0359e-11
8.51356e-11
4.69063e-11
2.079e-11
3.00947e-11
-4.13952e-11
9.59522e-12
-1.0352e-10
-1.15927e-11
-1.66348e-10
-2.9005e-11
-2.28471e-10
-3.90074e-11
-2.86669e-10
-4.03523e-11
-3.36966e-10
-3.44899e-11
-3.75808e-10
-2.4698e-11
-4.00975e-10
-1.44738e-11
-4.11945e-10
-5.86428e-12
-4.09548e-10
1.44673e-12
-3.94895e-10
9.65824e-12
-3.68055e-10
2.09631e-11
-3.27302e-10
3.52722e-11
-2.69795e-10
4.92075e-11
-1.93764e-10
5.77783e-11
-1.01015e-10
5.82901e-11
2.21681e-12
5.41613e-11
1.07623e-10
5.49239e-11
2.09669e-10
7.09667e-11
3.09998e-10
1.04675e-10
4.17061e-10
1.44823e-10
5.39553e-10
1.69633e-10
6.76157e-10
1.61118e-10
8.09678e-10
1.2155e-10
9.1201e-10
8.08709e-11
9.61628e-10
8.16659e-11
9.62595e-10
1.48281e-10
9.50614e-10
2.55725e-10
9.73057e-10
3.3045e-10
1.05156e-09
2.9015e-10
1.15027e-09
1.11645e-10
1.18309e-09
-1.27053e-10
1.06495e-09
-2.66308e-10
7.80508e-10
-1.59477e-10
4.10358e-10
2.20286e-10
8.33884e-11
7.29009e-10
-1.19203e-10
1.11375e-09
-1.83714e-10
1.14856e-09
-1.1963e-10
8.01434e-10
2.14546e-10
7.48456e-12
-2.14179e-12
-1.88356e-10
2.51711e-10
-3.33732e-10
4.88122e-10
-3.20402e-10
5.44303e-10
-1.57004e-10
3.85851e-10
2.82253e-11
1.21442e-10
8.48774e-11
-4.98931e-11
-5.11791e-11
4.8032e-11
-2.87116e-10
4.33477e-10
-4.19693e-10
9.30048e-10
-2.67482e-10
1.25866e-09
1.81735e-10
1.23114e-09
7.41564e-10
8.89289e-10
1.14024e-09
4.9628e-10
1.21599e-09
3.56003e-10
1.03262e-09
6.0449e-10
8.33373e-10
1.11332e-09
8.58375e-10
1.58762e-09
1.17699e-09
1.7687e-09
1.6525e-09
1.59931e-09
2.05819e-09
1.23253e-09
2.2379e-09
9.05027e-10
2.19379e-09
7.76674e-10
2.05071e-09
8.52589e-10
1.949e-09
1.01742e-09
1.95297e-09
1.1354e-09
2.03299e-09
1.13403e-09
2.11179e-09
1.0256e-09
2.12629e-09
8.71547e-10
2.06039e-09
7.31021e-10
1.93788e-09
6.29566e-10
1.79382e-09
5.59693e-10
1.65006e-09
5.0044e-10
1.50859e-09
4.3676e-10
1.35972e-09
3.66881e-10
1.1944e-09
2.98112e-10
1.01132e-09
2.38357e-10
8.16486e-10
1.9044e-10
6.18597e-10
1.51758e-10
4.24453e-10
1.17602e-10
2.37218e-10
8.48635e-11
5.73951e-11
5.38271e-11
-1.15004e-10
2.7603e-11
-2.78678e-10
1.01533e-11
-4.30335e-10
4.1938e-12
-5.65003e-10
9.9044e-12
-6.76953e-10
2.48314e-11
-7.60929e-10
4.49469e-11
-8.13404e-10
6.64729e-11
-8.33415e-10
8.77009e-11
-8.2238e-10
1.09759e-10
-7.82603e-10
1.35538e-10
-7.15034e-10
1.66951e-10
-6.17816e-10
2.02124e-10
-4.87221e-10
2.34794e-10
-3.21356e-10
2.57466e-10
-1.24607e-10
2.671e-10
9.06225e-11
2.69659e-10
3.07902e-10
2.78701e-10
5.15332e-10
3.06958e-10
7.13766e-10
3.54535e-10
9.16812e-10
4.03334e-10
1.13991e-09
4.24233e-10
1.3821e-09
3.979e-10
1.615e-09
3.35176e-10
1.78984e-09
2.81615e-10
1.86715e-09
2.92262e-10
1.84958e-09
3.8959e-10
1.79433e-09
5.29227e-10
1.78127e-09
6.1166e-10
1.853e-09
5.41879e-10
1.96295e-09
3.11803e-10
1.98633e-09
3.63665e-11
1.79463e-09
-9.34676e-11
1.3496e-09
6.28756e-11
7.26632e-10
4.77726e-10
6.50215e-11
9.32066e-10
-4.24938e-10
1.14459e-09
-5.83093e-10
9.72884e-10
4.47343e-10
1.32565e-10
3.61375e-11
-2.24166e-10
3.57803e-10
-6.70122e-10
7.25772e-10
-9.91282e-10
9.97726e-10
-1.03863e-09
1.05647e-09
-8.40321e-10
8.67647e-10
-5.75204e-10
5.48141e-10
-4.61061e-10
3.27315e-10
-6.03024e-10
4.13421e-10
-8.9009e-10
8.32064e-10
-1.05186e-09
1.38541e-09
-8.42285e-10
1.76366e-09
-2.36482e-10
1.76248e-09
5.32735e-10
1.4296e-09
1.12785e-09
1.04092e-09
1.34851e-09
9.0261e-10
1.26436e-09
1.14071e-09
1.14786e-09
1.62162e-09
1.26227e-09
2.06392e-09
1.68087e-09
2.23622e-09
2.26121e-09
2.09891e-09
2.77362e-09
1.79444e-09
3.06351e-09
1.52354e-09
3.12995e-09
1.40933e-09
3.08458e-09
1.44418e-09
3.04972e-09
1.53112e-09
3.0793e-09
1.56884e-09
3.14815e-09
1.51273e-09
3.19465e-09
1.38209e-09
3.17165e-09
1.22634e-09
3.0703e-09
1.08593e-09
2.91154e-09
9.73477e-10
2.72282e-09
8.79191e-10
2.52026e-09
7.87602e-10
2.30524e-09
6.9091e-10
2.0718e-09
5.91973e-10
1.81596e-09
4.99202e-10
1.54047e-09
4.19644e-10
1.25386e-09
3.55202e-10
9.66448e-10
3.03147e-10
6.86712e-10
2.59125e-10
4.19863e-10
2.20154e-10
1.68444e-10
1.86027e-10
-6.61102e-11
1.58928e-10
-2.81985e-10
1.41946e-10
-4.76027e-10
1.37324e-10
-6.43439e-10
1.45132e-10
-7.78232e-10
1.62878e-10
-8.74549e-10
1.86371e-10
-9.28631e-10
2.11692e-10
-9.40489e-10
2.37423e-10
-9.13953e-10
2.65639e-10
-8.54309e-10
3.00437e-10
-7.64444e-10
3.44169e-10
-6.42134e-10
3.93597e-10
-4.8137e-10
4.3922e-10
-2.78434e-10
4.69875e-10
-3.94452e-11
4.80844e-10
2.16562e-10
4.80175e-10
4.64012e-10
4.86627e-10
6.85095e-10
5.17815e-10
8.83556e-10
5.74004e-10
1.08517e-09
6.3064e-10
1.31964e-09
6.48676e-10
1.5905e-09
6.02974e-10
1.8558e-09
5.09732e-10
2.03906e-09
4.31611e-10
2.07646e-09
4.43495e-10
1.97052e-09
5.76594e-10
1.81095e-09
7.74998e-10
1.72733e-09
9.12101e-10
1.79708e-09
8.67091e-10
1.96583e-09
6.24394e-10
2.05616e-09
3.10812e-10
1.86501e-09
1.30338e-10
1.29017e-09
2.16263e-10
4.01148e-10
5.18804e-10
-4.41096e-10
8.30931e-10
-8.30853e-10
9.26399e-10
5.8863e-10
2.24987e-10
2.40919e-10
-1.44245e-10
6.13478e-10
-7.42595e-10
9.71667e-10
-1.36247e-09
1.34928e-09
-1.74532e-09
1.6437e-09
-1.75625e-09
1.69306e-09
-1.45071e-09
1.42957e-09
-1.07493e-09
9.89256e-10
-9.13245e-10
6.6134e-10
-1.08236e-09
7.11695e-10
-1.41341e-09
1.17967e-09
-1.55485e-09
1.82925e-09
-1.22408e-09
2.29031e-09
-4.33053e-10
2.31737e-09
5.09211e-10
1.95665e-09
1.21366e-09
1.5106e-09
1.48766e-09
1.31511e-09
1.44841e-09
1.51269e-09
1.40641e-09
1.97512e-09
1.62342e-09
2.42269e-09
2.14159e-09
2.62372e-09
2.79169e-09
2.53004e-09
3.34326e-09
2.26514e-09
3.66124e-09
2.00794e-09
3.76217e-09
1.87099e-09
3.75778e-09
1.85486e-09
3.75593e-09
1.88459e-09
3.79594e-09
1.88049e-09
3.84924e-09
1.80722e-09
3.86231e-09
1.67844e-09
3.79962e-09
1.5301e-09
3.65946e-09
1.39082e-09
3.46312e-09
1.26874e-09
3.23456e-09
1.15647e-09
2.9869e-09
1.04381e-09
2.72141e-09
9.2723e-10
2.43449e-09
8.1132e-10
2.12528e-09
7.04374e-10
1.79891e-09
6.12901e-10
1.46525e-09
5.38687e-10
1.13532e-09
4.79246e-10
8.1827e-10
4.30293e-10
5.20073e-10
3.88411e-10
2.43859e-10
3.52617e-10
-8.92115e-12
3.24498e-10
-2.3706e-10
3.07111e-10
-4.38235e-10
3.03153e-10
-6.08116e-10
3.13091e-10
-7.40572e-10
3.34196e-10
-8.29469e-10
3.61331e-10
-8.71691e-10
3.89609e-10
-8.69649e-10
4.17662e-10
-8.3105e-10
4.49176e-10
-7.64816e-10
4.90687e-10
-6.74922e-10
5.45874e-10
-5.56519e-10
6.0977e-10
-3.98776e-10
6.67884e-10
-1.94878e-10
7.03275e-10
4.64646e-11
7.08823e-10
2.97509e-10
6.96526e-10
5.22808e-10
6.94185e-10
7.01801e-10
7.27552e-10
8.48352e-10
7.96624e-10
1.0082e-09
8.65307e-10
1.22816e-09
8.77479e-10
1.51052e-09
7.98527e-10
1.78824e-09
6.5431e-10
1.94838e-09
5.36517e-10
1.90637e-09
5.52689e-10
1.68213e-09
7.47405e-10
1.41879e-09
1.04453e-09
1.30239e-09
1.2722e-09
1.42632e-09
1.26607e-09
1.68928e-09
9.94864e-10
1.82404e-09
6.00051e-10
1.54925e-09
3.10943e-10
7.7276e-10
2.82751e-10
-1.75437e-10
4.95639e-10
-7.46407e-10
7.42313e-10
6.07767e-10
1.56941e-10
6.11697e-10
-9.60088e-11
1.10833e-09
-6.20124e-10
1.34869e-09
-1.33086e-09
1.62334e-09
-2.00756e-09
1.98878e-09
-2.38624e-09
2.28499e-09
-2.30997e-09
2.29522e-09
-1.86299e-09
1.93622e-09
-1.36189e-09
1.38114e-09
-1.14423e-09
9.7956e-10
-1.31667e-09
1.03371e-09
-1.64852e-09
1.56634e-09
-1.73314e-09
2.28766e-09
-1.28942e-09
2.78079e-09
-3.80726e-10
2.79285e-09
6.34537e-10
2.39743e-09
1.3658e-09
1.92623e-09
1.66146e-09
1.7209e-09
1.67753e-09
1.90825e-09
1.72173e-09
2.34654e-09
2.01568e-09
2.76138e-09
2.56197e-09
2.94083e-09
3.18698e-09
2.85075e-09
3.69151e-09
2.60944e-09
3.97927e-09
2.37507e-09
4.08328e-09
2.24089e-09
4.10254e-09
2.20311e-09
4.1183e-09
2.19803e-09
4.151e-09
2.16241e-09
4.17109e-09
2.07108e-09
4.13751e-09
1.93724e-09
4.02898e-09
1.78945e-09
3.85124e-09
1.6487e-09
3.62512e-09
1.51954e-09
3.37037e-09
1.39563e-09
3.09689e-09
1.26972e-09
2.80561e-09
1.14071e-09
2.49475e-09
1.01411e-09
2.16549e-09
8.98009e-10
1.824e-09
7.98571e-10
1.48002e-09
7.17609e-10
1.1441e-09
6.52958e-10
8.25133e-10
6.0057e-10
5.29196e-10
5.56954e-10
2.59406e-10
5.20926e-10
1.66094e-11
4.94108e-10
-1.99207e-10
4.79988e-10
-3.86992e-10
4.81749e-10
-5.42985e-10
4.99709e-10
-6.60714e-10
5.29867e-10
-7.33552e-10
5.65026e-10
-7.59142e-10
5.98694e-10
-7.42866e-10
6.29805e-10
-6.96999e-10
6.64686e-10
-6.34164e-10
7.13395e-10
-5.5828e-10
7.81162e-10
-4.59615e-10
8.60215e-10
-3.20204e-10
9.29305e-10
-1.29208e-10
9.64727e-10
1.00901e-10
9.5804e-10
3.31379e-10
9.28204e-10
5.15858e-10
9.14955e-10
6.3337e-10
9.52259e-10
7.13361e-10
1.03595e-09
8.26644e-10
1.11272e-09
1.03733e-09
1.1066e-09
1.33987e-09
9.77427e-10
1.63279e-09
7.7032e-10
1.76274e-09
6.1463e-10
1.63174e-09
6.50254e-10
1.29196e-09
9.24071e-10
9.48985e-10
1.32523e-09
8.3462e-10
1.63094e-09
1.02743e-09
1.64247e-09
1.34899e-09
1.32986e-09
1.44935e-09
8.61952e-10
1.05167e-09
5.00038e-10
2.82416e-10
4.2009e-10
-3.61738e-10
5.50932e-10
4.86007e-10
-8.90634e-11
1.05268e-09
-2.22502e-10
1.83559e-09
-5.20836e-10
1.99293e-09
-1.06351e-09
2.01977e-09
-1.80674e-09
2.19544e-09
-2.51009e-09
2.5398e-09
-2.84826e-09
2.83871e-09
-2.64318e-09
2.82306e-09
-2.02696e-09
2.39648e-09
-1.3938e-09
1.76474e-09
-1.12212e-09
1.32207e-09
-1.29268e-09
1.3857e-09
-1.61471e-09
1.95368e-09
-1.64704e-09
2.6988e-09
-1.12841e-09
3.19035e-09
-1.68132e-10
3.193e-09
8.53741e-10
2.80506e-09
1.571e-09
2.3591e-09
1.87439e-09
2.17028e-09
1.93609e-09
2.3364e-09
2.0364e-09
2.71391e-09
2.35157e-09
3.05801e-09
2.86078e-09
3.19535e-09
3.40754e-09
3.10964e-09
3.83347e-09
2.90566e-09
4.07459e-09
2.70982e-09
4.16732e-09
2.58922e-09
4.18998e-09
2.53438e-09
4.19909e-09
2.49455e-09
4.20358e-09
2.42482e-09
4.17898e-09
2.3115e-09
4.09771e-09
2.16838e-09
3.94947e-09
2.01773e-09
3.74384e-09
1.87379e-09
3.49915e-09
1.73812e-09
3.23117e-09
1.60492e-09
2.94752e-09
1.46914e-09
2.64933e-09
1.33129e-09
2.33618e-09
1.19723e-09
2.01012e-09
1.07475e-09
1.67705e-09
9.69807e-10
1.34576e-09
8.84555e-10
1.02587e-09
8.17397e-10
7.25947e-10
7.64662e-10
4.52059e-10
7.22837e-10
2.0691e-10
6.90595e-10
-9.94101e-12
6.69728e-10
-2.00422e-10
6.64318e-10
-3.65039e-10
6.78022e-10
-5.00214e-10
7.10603e-10
-5.98197e-10
7.55956e-10
-6.50916e-10
8.03845e-10
-6.56471e-10
8.45581e-10
-6.23813e-10
8.80592e-10
-5.70786e-10
9.18745e-10
-5.1402e-10
9.74544e-10
-4.5609e-10
1.05483e-09
-3.79692e-10
1.1479e-09
-2.5726e-10
1.2241e-09
-7.37464e-11
1.25225e-09
1.51691e-10
1.22391e-09
3.64981e-10
1.16792e-09
5.0676e-10
1.13853e-09
5.58637e-10
1.17785e-09
5.72716e-10
1.27451e-09
6.50663e-10
1.35445e-09
8.72277e-10
1.32143e-09
1.21413e-09
1.1342e-09
1.52897e-09
8.6315e-10
1.62146e-09
6.77064e-10
1.39315e-09
7.41598e-10
9.46481e-10
1.09429e-09
5.53112e-10
1.58231e-09
4.67716e-10
1.93675e-09
7.19224e-10
1.93964e-09
1.04777e-09
1.57775e-09
1.08555e-09
1.05366e-09
6.86944e-10
6.42973e-10
1.26087e-10
4.55154e-10
2.86201e-10
-3.89573e-10
1.42119e-09
-5.24395e-10
2.66116e-09
-6.29561e-10
2.92961e-09
-8.54767e-10
2.7422e-09
-1.37811e-09
2.54692e-09
-2.14164e-09
2.62595e-09
-2.84383e-09
2.97148e-09
-3.10092e-09
3.30106e-09
-2.7407e-09
3.2882e-09
-1.96261e-09
2.82619e-09
-1.23e-09
2.15099e-09
-9.33879e-10
1.68807e-09
-1.10823e-09
1.75607e-09
-1.40896e-09
2.32977e-09
-1.38709e-09
3.06452e-09
-8.21765e-10
3.54043e-09
1.36282e-10
3.54922e-09
1.10834e-09
3.20134e-09
1.77189e-09
2.80716e-09
2.06053e-09
2.64072e-09
2.14916e-09
2.77386e-09
2.2796e-09
3.07553e-09
2.58407e-09
3.34242e-09
3.02799e-09
3.44071e-09
3.47854e-09
3.36479e-09
3.81567e-09
3.19887e-09
3.99978e-09
3.0365e-09
4.06554e-09
2.92266e-09
4.07245e-09
2.84664e-09
4.0588e-09
2.77179e-09
4.02754e-09
2.66943e-09
3.96021e-09
2.53449e-09
3.83941e-09
2.38004e-09
3.6618e-09
2.22279e-09
3.43809e-09
2.07215e-09
3.18399e-09
1.92793e-09
2.91233e-09
1.78531e-09
2.6295e-09
1.64095e-09
2.33703e-09
1.49626e-09
2.03522e-09
1.3571e-09
1.72616e-09
1.23089e-09
1.41483e-09
1.12365e-09
1.10879e-09
1.03798e-09
8.16906e-10
9.72791e-10
5.47589e-10
9.24427e-10
3.06813e-10
8.88967e-10
9.64398e-11
8.64754e-10
-8.59501e-11
8.53931e-10
-2.44745e-10
8.61587e-10
-3.81955e-10
8.92163e-10
-4.93328e-10
9.44664e-10
-5.68504e-10
1.01007e-09
-5.96929e-10
1.07401e-09
-5.77194e-10
1.12494e-09
-5.2298e-10
1.16302e-09
-4.59077e-10
1.20268e-09
-4.06257e-10
1.26377e-09
-3.63844e-10
1.35459e-09
-3.03896e-10
1.45798e-09
-1.87441e-10
1.5341e-09
3.08338e-12
1.54397e-09
2.36795e-10
1.48133e-09
4.39372e-10
1.38876e-09
5.38253e-10
1.33789e-09
5.23812e-10
1.37872e-09
4.79291e-10
1.48946e-09
5.3992e-10
1.57228e-09
7.93077e-10
1.51152e-09
1.18285e-09
1.26962e-09
1.50846e-09
9.46341e-10
1.54286e-09
7.46799e-10
1.21118e-09
8.50446e-10
6.82136e-10
1.27137e-09
2.79744e-10
1.81002e-09
2.43735e-10
2.16247e-09
5.32847e-10
2.11298e-09
8.41369e-10
1.67888e-09
8.32622e-10
1.0777e-09
4.87782e-10
5.3814e-10
1.33087e-10
-5.42222e-10
1.61235e-09
-8.37087e-10
3.37997e-09
-9.47594e-10
3.99482e-09
-9.35719e-10
3.81489e-09
-1.07857e-09
3.28828e-09
-1.57149e-09
2.89865e-09
-2.33396e-09
2.92847e-09
-2.99991e-09
3.31254e-09
-3.14995e-09
3.69298e-09
-2.64398e-09
3.69912e-09
-1.75048e-09
3.22837e-09
-9.7329e-10
2.54477e-09
-6.8108e-10
2.08778e-09
-8.50532e-10
2.16077e-09
-1.10683e-09
2.71597e-09
-1.02718e-09
3.40964e-09
-4.46716e-10
3.85343e-09
4.55645e-10
3.87314e-09
1.32899e-09
3.58235e-09
1.9105e-09
3.25518e-09
2.17299e-09
3.11785e-09
2.28038e-09
3.21935e-09
2.42752e-09
3.44707e-09
2.70482e-09
3.64034e-09
3.07089e-09
3.7006e-09
3.41952e-09
3.62851e-09
3.66553e-09
3.48826e-09
3.7883e-09
3.34595e-09
3.81899e-09
3.23038e-09
3.80132e-09
3.13182e-09
3.76011e-09
3.02533e-09
3.69493e-09
2.89409e-09
3.59237e-09
2.73838e-09
3.44213e-09
2.5701e-09
3.24501e-09
2.40207e-09
3.01161e-09
2.24086e-09
2.75552e-09
2.08594e-09
2.48752e-09
1.93366e-09
2.21339e-09
1.7819e-09
1.93504e-09
1.63248e-09
1.65309e-09
1.49097e-09
1.3691e-09
1.36451e-09
1.08687e-09
1.25926e-09
8.12819e-10
1.17819e-09
5.55329e-10
1.12027e-09
3.22973e-10
1.08128e-09
1.21675e-10
1.05638e-09
-4.79323e-11
1.04345e-09
-1.909e-10
1.04532e-09
-3.14547e-10
1.06873e-09
-4.22185e-10
1.11932e-09
-5.07868e-10
1.1951e-09
-5.57284e-10
1.28324e-09
-5.56654e-10
1.36416e-09
-5.05643e-10
1.423e-09
-4.24316e-10
1.4612e-09
-3.45811e-10
1.49896e-09
-2.94567e-10
1.5622e-09
-2.6402e-10
1.65992e-09
-2.12496e-10
1.76758e-09
-8.90766e-11
1.83366e-09
1.2264e-10
1.81218e-09
3.74036e-10
1.70257e-09
5.67109e-10
1.56546e-09
6.19415e-10
1.49184e-09
5.38781e-10
1.53771e-09
4.46095e-10
1.66701e-09
5.06114e-10
1.75685e-09
7.99267e-10
1.67604e-09
1.22398e-09
1.39705e-09
1.5299e-09
1.04996e-09
1.48253e-09
8.65538e-10
1.05693e-09
1.0174e-09
4.88907e-10
1.48039e-09
1.2269e-10
2.01019e-09
1.48228e-10
2.28859e-09
4.53732e-10
2.12194e-09
6.80416e-10
1.55039e-09
5.84568e-10
7.89105e-10
1.16247e-10
-4.13274e-10
1.64249e-09
-9.33261e-10
3.84171e-09
-1.2833e-09
4.91629e-09
-1.30048e-09
5.00589e-09
-1.16039e-09
4.41526e-09
-1.20175e-09
3.62502e-09
-1.65342e-09
3.12606e-09
-2.3925e-09
3.16268e-09
-2.9951e-09
3.60292e-09
-3.03421e-09
4.03186e-09
-2.41903e-09
4.06221e-09
-1.47302e-09
3.61029e-09
-7.04041e-10
2.95868e-09
-4.31131e-10
2.53694e-09
-5.78432e-10
2.61583e-09
-7.70963e-10
3.12864e-09
-6.39757e-10
3.75177e-09
-7.82066e-11
4.1466e-09
7.26913e-10
4.17719e-09
1.47375e-09
3.95211e-09
1.96384e-09
3.69964e-09
2.19843e-09
3.59528e-09
2.31835e-09
3.66812e-09
2.46939e-09
3.82619e-09
2.70736e-09
3.94922e-09
2.99133e-09
3.96927e-09
3.24221e-09
3.89131e-09
3.40419e-09
3.76263e-09
3.46987e-09
3.62789e-09
3.46547e-09
3.50418e-09
3.42181e-09
3.38307e-09
3.35414e-09
3.24823e-09
3.26047e-09
3.09089e-09
3.13158e-09
2.91461e-09
2.96193e-09
2.7303e-09
2.75461e-09
2.54852e-09
2.51951e-09
2.37456e-09
2.26835e-09
2.2083e-09
2.01056e-09
2.04725e-09
1.75171e-09
1.89007e-09
1.49405e-09
1.73861e-09
1.23813e-09
1.59804e-09
9.84614e-10
1.47533e-09
7.35973e-10
1.37681e-09
4.97667e-10
1.30565e-09
2.78094e-10
1.26041e-09
8.64453e-11
1.23562e-09
-7.12952e-11
1.22495e-09
-1.96136e-10
1.22572e-09
-2.96488e-10
1.24185e-09
-3.83087e-10
1.28231e-09
-4.60272e-10
1.35429e-09
-5.19295e-10
1.45452e-09
-5.40658e-10
1.56543e-09
-5.07045e-10
1.66146e-09
-4.20398e-10
1.72441e-09
-3.09139e-10
1.75805e-09
-2.15758e-10
1.78957e-09
-1.66888e-10
1.85116e-09
-1.46623e-10
1.95118e-09
-9.68699e-11
2.05563e-09
4.40118e-11
2.10064e-09
2.85817e-10
2.03542e-09
5.5646e-10
1.86956e-09
7.33949e-10
1.68525e-09
7.33151e-10
1.59268e-09
5.88592e-10
1.65011e-09
4.60199e-10
1.80391e-09
5.30521e-10
1.90814e-09
8.55826e-10
1.82339e-09
1.28347e-09
1.53808e-09
1.53159e-09
1.20767e-09
1.38986e-09
1.06957e-09
9.00345e-10
1.26806e-09
3.47454e-10
1.72756e-09
5.36312e-11
2.16915e-09
1.27507e-10
2.27953e-09
3.56086e-10
1.89648e-09
4.27135e-10
1.10933e-09
2.37015e-10
-4.77174e-11
1.65026e-09
-7.03259e-10
4.07442e-09
-1.38098e-09
5.49443e-09
-1.70636e-09
5.97167e-09
-1.5809e-09
5.62784e-09
-1.28491e-09
4.76022e-09
-1.23256e-09
3.83242e-09
-1.64521e-09
3.30876e-09
-2.34206e-09
3.38417e-09
-2.86194e-09
3.87233e-09
-2.80053e-09
4.33141e-09
-2.1245e-09
4.38632e-09
-1.18905e-09
3.98038e-09
-4.71209e-10
3.39842e-09
-2.2465e-10
3.03588e-09
-3.353e-10
3.11905e-09
-4.55938e-10
3.56995e-09
-2.86646e-10
4.10216e-09
2.28724e-10
4.43768e-09
9.14107e-10
4.4774e-09
1.52682e-09
4.3172e-09
1.9272e-09
4.13544e-09
2.13267e-09
4.05961e-09
2.25522e-09
4.10373e-09
2.3969e-09
4.19708e-09
2.58858e-09
4.25502e-09
2.7949e-09
4.23444e-09
2.96076e-09
4.14276e-09
3.05236e-09
4.01355e-09
3.07009e-09
3.8755e-09
3.03479e-09
3.7377e-09
2.96761e-09
3.59319e-09
2.87772e-09
3.43185e-09
2.76294e-09
3.25021e-09
2.61728e-09
3.05378e-09
2.43835e-09
2.85275e-09
2.23006e-09
2.65643e-09
2.00122e-09
2.46982e-09
1.76198e-09
2.2935e-09
1.52095e-09
2.12592e-09
1.28373e-09
1.96615e-09
1.05277e-09
1.8158e-09
8.28159e-10
1.6797e-09
6.09313e-10
1.5648e-09
3.97277e-10
1.47773e-09
1.96894e-10
1.42173e-09
1.71695e-11
1.39443e-09
-1.31559e-10
1.38841e-09
-2.43181e-10
1.39528e-09
-3.20874e-10
1.4116e-09
-3.77209e-10
1.44271e-09
-4.26752e-10
1.50035e-09
-4.74372e-10
1.59343e-09
-5.07268e-10
1.71695e-09
-4.99755e-10
1.84793e-09
-4.31298e-10
1.95444e-09
-3.07976e-10
2.01564e-09
-1.68564e-10
2.039e-09
-6.49705e-11
2.05975e-09
-2.31693e-11
2.11587e-09
-1.39431e-11
2.21311e-09
3.86551e-11
2.30624e-09
2.03404e-10
2.31966e-09
4.7684e-10
2.20147e-09
7.59658e-10
1.97588e-09
9.10073e-10
1.74845e-09
8.50619e-10
1.64556e-09
6.49455e-10
1.72255e-09
4.99574e-10
1.90658e-09
5.83567e-10
2.03408e-09
9.19235e-10
1.96658e-09
1.30954e-09
1.71145e-09
1.46978e-09
1.43783e-09
1.24179e-09
1.36575e-09
7.32254e-10
1.58845e-09
2.35572e-10
1.97499e-09
5.25047e-12
2.22499e-09
4.61947e-11
2.05444e-09
1.44422e-10
1.3861e-09
4.29073e-10
3.32905e-10
1.80807e-09
-2.52177e-10
4.27351e-09
-1.12556e-09
5.76598e-09
-1.83957e-09
6.49835e-09
-2.03336e-09
6.54005e-09
-1.73424e-09
5.9427e-09
-1.31114e-09
4.94985e-09
-1.1995e-09
3.99565e-09
-1.57778e-09
3.50712e-09
-2.21207e-09
3.62932e-09
-2.63506e-09
4.14035e-09
-2.49255e-09
4.6037e-09
-1.807e-09
4.68025e-09
-9.37567e-10
4.3415e-09
-3.02385e-10
3.85666e-09
-8.51085e-11
3.56839e-09
-1.51698e-10
3.65367e-09
-2.03019e-10
4.03227e-09
-1.19306e-11
4.46552e-09
4.39532e-10
4.73812e-09
9.98672e-10
4.78221e-09
1.48228e-09
4.67625e-09
1.79899e-09
4.5511e-09
1.97287e-09
4.49368e-09
2.08743e-09
4.50823e-09
2.20982e-09
4.54362e-09
2.35471e-09
4.54392e-09
2.49406e-09
4.4842e-09
2.5916e-09
4.37268e-09
2.62849e-09
4.23257e-09
2.60902e-09
4.0816e-09
2.54929e-09
3.92415e-09
2.46384e-09
3.755e-09
2.35844e-09
3.56841e-09
2.23147e-09
3.36429e-09
2.07928e-09
3.14908e-09
1.90113e-09
2.93239e-09
1.70092e-09
2.72292e-09
1.48618e-09
2.52578e-09
1.26588e-09
2.34231e-09
1.04818e-09
2.17162e-09
8.38817e-10
2.01281e-09
6.402e-10
1.86713e-09
4.51562e-10
1.73916e-09
2.70704e-10
1.63607e-09
9.72238e-11
1.56501e-09
-6.42609e-11
1.52911e-09
-2.03505e-10
1.52459e-09
-3.08544e-10
1.54138e-09
-3.73212e-10
1.56846e-09
-4.03489e-10
1.60153e-09
-4.16853e-10
1.64762e-09
-4.31796e-10
1.72152e-09
-4.52837e-10
1.83385e-09
-4.61774e-10
1.97736e-09
-4.26202e-10
2.12314e-09
-3.23559e-10
2.2332e-09
-1.66475e-10
2.28536e-09
-5.56629e-12
2.29243e-09
9.92863e-11
2.29827e-09
1.26958e-10
2.34529e-09
1.23592e-10
2.43432e-09
1.82094e-10
2.508e-09
3.72342e-10
2.48141e-09
6.71172e-10
2.30643e-09
9.52181e-10
2.02571e-09
1.06273e-09
1.76706e-09
9.44144e-10
1.66709e-09
6.99835e-10
1.77237e-09
5.42659e-10
1.99119e-09
6.36371e-10
2.1503e-09
9.54602e-10
2.12068e-09
1.27386e-09
1.92668e-09
1.33543e-09
1.73369e-09
1.04364e-09
1.7195e-09
5.43046e-10
1.91002e-09
9.43711e-11
2.12459e-09
-1.13835e-10
2.07409e-09
-1.09566e-10
1.56211e-09
6.12904e-10
4.81967e-10
2.18986e-09
1.47141e-10
4.6701e-09
-6.3666e-10
5.9796e-09
-1.5599e-09
6.67728e-09
-2.16093e-09
6.9572e-09
-2.19433e-09
6.7636e-09
-1.76153e-09
6.06507e-09
-1.27032e-09
5.06785e-09
-1.13572e-09
4.17271e-09
-1.47851e-09
3.75692e-09
-2.0302e-09
3.91754e-09
-2.35026e-09
4.41922e-09
-2.15314e-09
4.85993e-09
-1.50608e-09
4.95279e-09
-7.44998e-10
4.69339e-09
-2.11351e-10
4.31982e-09
-2.40042e-11
4.11121e-09
-4.70677e-11
4.19663e-09
-4.0516e-11
4.50125e-09
1.55298e-10
4.8375e-09
5.33428e-10
5.048e-09
9.70947e-10
5.08914e-09
1.33798e-09
5.02091e-09
1.57964e-09
4.93362e-09
1.72046e-09
4.88279e-09
1.8192e-09
4.86715e-09
1.91728e-09
4.85169e-09
2.01968e-09
4.80165e-09
2.10544e-09
4.70439e-09
2.15181e-09
4.56803e-09
2.14946e-09
4.40866e-09
2.10418e-09
4.23732e-09
2.02838e-09
4.05621e-09
1.93236e-09
3.86191e-09
1.82014e-09
3.65171e-09
1.69085e-09
3.42748e-09
1.54238e-09
3.19597e-09
1.37467e-09
2.96625e-09
1.19102e-09
2.74671e-09
9.9779e-10
2.54283e-09
8.0304e-10
2.35653e-09
6.14765e-10
2.1872e-09
4.38876e-10
2.03368e-09
2.77469e-10
1.89677e-09
1.28477e-10
1.78086e-09
-1.22267e-11
1.69361e-09
-1.46463e-10
1.64277e-09
-2.69406e-10
1.63125e-09
-3.68973e-10
1.65339e-09
-4.31242e-10
1.69593e-09
-4.50254e-10
1.7449e-09
-4.3549e-10
1.7951e-09
-4.09821e-10
1.85548e-09
-3.95218e-10
1.94393e-09
-3.94513e-10
2.07235e-09
-3.8285e-10
2.2306e-09
-3.21401e-10
2.38374e-09
-1.87754e-10
2.48873e-09
-3.68448e-12
2.52403e-09
1.68044e-10
2.50931e-09
2.62856e-10
2.49675e-09
2.69408e-10
2.53103e-09
2.52798e-10
2.60603e-09
3.18971e-10
2.65298e-09
5.31267e-10
2.58203e-09
8.42512e-10
2.35432e-09
1.10417e-09
2.03276e-09
1.1648e-09
1.76298e-09
9.93262e-10
1.68343e-09
7.23383e-10
1.82625e-09
5.71023e-10
2.08321e-09
6.66913e-10
2.27973e-09
9.4442e-10
2.30101e-09
1.17423e-09
2.18003e-09
1.13905e-09
2.05794e-09
7.94497e-10
2.05012e-09
2.96335e-10
2.11591e-09
-9.71263e-11
2.05818e-09
-2.35033e-10
1.64523e-09
7.39261e-10
2.94664e-10
2.71036e-09
2.506e-10
5.3447e-09
-2.02211e-10
6.41876e-09
-1.00125e-09
6.8286e-09
-1.82962e-09
7.03115e-09
-2.29449e-09
7.06123e-09
-2.19952e-09
6.77021e-09
-1.69508e-09
6.08272e-09
-1.19547e-09
5.17395e-09
-1.06709e-09
4.39831e-09
-1.37022e-09
4.07276e-09
-1.82596e-09
4.25394e-09
-2.04817e-09
4.71534e-09
-1.82689e-09
5.11135e-09
-1.25708e-09
5.21446e-09
-6.29844e-10
5.03677e-09
-2.04316e-10
4.77465e-09
-4.67588e-11
4.64136e-09
-3.4047e-11
4.72409e-09
1.30064e-11
4.9587e-09
1.97833e-10
5.20614e-09
5.00484e-10
5.35797e-09
8.28795e-10
5.38803e-09
1.09649e-09
5.33935e-09
1.27403e-09
5.27048e-09
1.38286e-09
5.21446e-09
1.46212e-09
5.16742e-09
1.53549e-09
5.10655e-09
1.60281e-09
5.01171e-09
1.64913e-09
4.87805e-09
1.66083e-09
4.7133e-09
1.63413e-09
4.5291e-09
1.575e-09
4.33293e-09
1.49297e-09
4.1264e-09
1.3957e-09
3.90783e-09
1.28637e-09
3.67654e-09
1.1648e-09
3.43546e-09
1.02976e-09
3.19122e-09
8.81236e-10
2.95245e-09
7.21691e-10
2.72742e-09
5.56374e-10
2.52193e-09
3.92735e-10
2.33831e-09
2.38817e-10
2.17588e-09
1.00669e-10
2.03293e-09
-2.02062e-11
1.90958e-09
-1.27563e-10
1.81008e-09
-2.27685e-10
1.74265e-09
-3.23673e-10
1.71569e-09
-4.1001e-10
1.7317e-09
-4.72293e-10
1.78291e-09
-4.94589e-10
1.8526e-09
-4.71679e-10
1.92382e-09
-4.17203e-10
1.99065e-09
-3.59424e-10
2.06405e-09
-3.22628e-10
2.16462e-09
-3.06245e-10
2.30475e-09
-2.77982e-10
2.47079e-09
-1.94029e-10
2.62226e-09
-3.51553e-11
2.71281e-09
1.65598e-10
2.72385e-09
3.34863e-10
2.68279e-09
4.08339e-10
2.64893e-09
3.89041e-10
2.66663e-09
3.60354e-10
2.72183e-09
4.34455e-10
2.73714e-09
6.60535e-10
2.62366e-09
9.66745e-10
2.35656e-09
1.19164e-09
2.01805e-09
1.19737e-09
1.76406e-09
9.84629e-10
1.72543e-09
7.08099e-10
1.91544e-09
5.7064e-10
2.2125e-09
6.62338e-10
2.44623e-09
8.84202e-10
2.51441e-09
1.0147e-09
2.4455e-09
8.80291e-10
2.339e-09
4.82945e-10
2.24676e-09
3.60487e-11
2.08949e-09
-2.17831e-10
1.68091e-09
7.97779e-10
-1.06082e-10
3.1747e-09
8.74976e-12
6.16569e-09
-6.18274e-11
7.17281e-09
-4.84105e-10
7.26314e-09
-1.21076e-09
7.12222e-09
-1.92652e-09
7.03943e-09
-2.26408e-09
6.95355e-09
-2.08298e-09
6.66413e-09
-1.57076e-09
6.06884e-09
-1.11636e-09
5.30952e-09
-1.01639e-09
4.68511e-09
-1.27711e-09
4.44976e-09
-1.6343e-09
4.63128e-09
-1.7743e-09
5.02998e-09
-1.5586e-09
5.36812e-09
-1.09132e-09
5.47575e-09
-6.06241e-10
5.37278e-09
-2.85222e-10
5.20963e-09
-1.57141e-10
5.1388e-09
-1.20706e-10
5.21434e-09
-5.18793e-11
5.38549e-09
1.10364e-10
5.555e-09
3.42076e-10
5.65252e-09
5.78822e-10
5.66345e-09
7.67064e-10
5.61685e-09
8.93303e-10
5.54832e-09
9.74401e-10
5.47604e-09
1.03504e-09
5.39547e-09
1.08761e-09
5.29258e-09
1.12971e-09
5.15675e-09
1.15105e-09
4.98777e-09
1.1438e-09
4.79296e-09
1.10706e-09
4.58141e-09
1.04615e-09
4.35902e-09
9.68398e-10
4.12775e-09
8.7973e-10
3.88745e-09
7.82991e-10
3.63883e-09
6.78513e-10
3.38524e-09
5.65456e-10
3.13303e-09
4.43454e-10
2.89052e-09
3.13961e-10
2.66582e-09
1.81279e-10
2.46507e-09
5.25018e-11
2.29076e-09
-6.41335e-11
2.14184e-09
-1.62507e-10
2.01561e-09
-2.41971e-10
1.91127e-09
-3.08234e-10
1.8328e-09
-3.69749e-10
1.78892e-09
-4.3057e-10
1.78862e-09
-4.83995e-10
1.83392e-09
-5.13088e-10
1.91482e-09
-5.00285e-10
2.01128e-09
-4.41925e-10
2.10366e-09
-3.56234e-10
2.18562e-09
-2.76122e-10
2.27002e-09
-2.26232e-10
2.37941e-09
-2.00838e-10
2.52569e-09
-1.60379e-10
2.69129e-09
-5.88145e-11
2.83128e-09
1.16552e-10
2.8983e-09
3.20684e-10
2.87875e-09
4.73359e-10
2.80801e-09
5.16469e-10
2.75047e-09
4.7024e-10
2.74796e-09
4.32379e-10
2.77896e-09
5.12655e-10
2.76194e-09
7.4037e-10
2.61501e-09
1.02255e-09
2.33033e-09
1.19657e-09
2.00563e-09
1.14857e-09
1.79801e-09
9.10611e-10
1.82166e-09
6.46305e-10
2.06752e-09
5.32128e-10
2.40212e-09
6.1389e-10
2.65957e-09
7.67701e-10
2.74348e-09
7.9099e-10
2.66561e-09
5.67181e-10
2.48247e-09
1.90726e-10
2.2013e-09
-1.05775e-10
1.71503e-09
8.0633e-10
-4.67934e-10
3.42071e-09
-3.90129e-10
6.87152e-09
-2.47531e-10
8.07672e-09
-2.68275e-10
8.03058e-09
-6.53627e-10
7.52237e-09
-1.29349e-09
7.07413e-09
-1.88131e-09
6.86582e-09
-2.10652e-09
6.76432e-09
-1.89058e-09
6.53972e-09
-1.43305e-09
6.07867e-09
-1.06676e-09
5.49278e-09
-1.00918e-09
5.02405e-09
-1.22774e-09
4.86758e-09
-1.49456e-09
5.03363e-09
-1.57479e-09
5.35938e-09
-1.38906e-09
5.63556e-09
-1.03453e-09
5.74175e-09
-6.84685e-10
5.69851e-09
-4.56563e-10
5.61246e-09
-3.56397e-10
5.5855e-09
-3.08132e-10
5.64785e-09
-2.32786e-10
5.76223e-09
-9.83456e-11
5.86432e-09
7.28973e-11
5.91122e-09
2.38987e-10
5.8954e-09
3.69028e-10
5.83553e-09
4.5855e-10
5.75196e-09
5.19696e-10
5.65398e-09
5.67182e-10
5.5376e-09
6.06738e-10
5.3948e-09
6.35382e-10
5.22088e-09
6.46188e-10
5.01821e-09
6.34718e-10
4.79371e-09
6.0119e-10
4.55522e-09
5.49887e-10
4.30818e-09
4.86394e-10
4.05531e-09
4.15481e-10
3.79775e-09
3.39849e-10
3.53704e-09
2.60138e-10
3.27667e-09
1.75538e-10
3.02262e-09
8.50495e-11
2.78282e-09
-1.08756e-11
2.5655e-09
-1.08739e-10
2.37696e-09
-2.01615e-10
2.21955e-09
-2.80993e-10
2.09138e-09
-3.40781e-10
1.98843e-09
-3.81351e-10
1.90869e-09
-4.10389e-10
1.85575e-09
-4.38232e-10
1.8387e-09
-4.69359e-10
1.86694e-09
-4.95514e-10
1.94184e-09
-4.9748e-10
2.05121e-09
-4.56954e-10
2.17202e-09
-3.72762e-10
2.28268e-09
-2.67572e-10
2.37694e-09
-1.77256e-10
2.46937e-09
-1.24339e-10
2.58345e-09
-9.67405e-11
2.72941e-09
-4.91951e-11
2.88557e-09
6.28318e-11
3.00413e-09
2.4282e-10
3.03934e-09
4.35216e-10
2.98451e-09
5.58577e-10
2.88249e-09
5.6643e-10
2.80036e-09
4.96057e-10
2.77559e-09
4.52574e-10
2.78079e-09
5.34732e-10
2.73551e-09
7.49731e-10
2.57031e-09
9.90856e-10
2.29544e-09
1.10644e-09
2.01837e-09
1.01324e-09
1.88762e-09
7.69635e-10
1.992e-09
5.3487e-10
2.29583e-09
4.48043e-10
2.6524e-09
5.11314e-10
2.89723e-09
5.89944e-10
2.93286e-09
5.24263e-10
2.75274e-09
2.89065e-10
2.37972e-09
2.83176e-11
1.77736e-09
7.93758e-10
-5.79117e-10
3.42804e-09
-6.75177e-10
7.27201e-09
-5.63396e-10
8.82614e-09
-3.86894e-10
8.8985e-09
-4.1219e-10
8.21938e-09
-7.46236e-10
7.42056e-09
-1.275e-09
6.88023e-09
-1.7345e-09
6.66778e-09
-1.88417e-09
6.60368e-09