/*--------------------------------*- C++ -*----------------------------------*\
| =========                 |                                                 |
| \\      /  F ield         | OpenFOAM: The Open Source CFD Toolbox           |
|  \\    /   O peration     | Version:  2412                                  |
|   \\  /    A nd           | Website:  www.openfoam.com                      |
|    \\/     M anipulation  |                                                 |
\*---------------------------------------------------------------------------*/
FoamFile
{
    version     2.0;
    format      ascii;
    arch        "LSB;label=32;scalar=64";
    class       volScalarField;
    location    "25";
    object      p_rgh;
}
// * * * * * * * * * * * * * * * * * * * * * * * * * * * * * * * * * * * * * //

dimensions      [1 -1 -2 0 0 0 0];

internalField   nonuniform List<scalar> 
6400
(
24722.2
24722.3
24725
24730.5
24738.2
24747.5
24758.4
24770.5
24783.8
24797.6
24811.2
24824.2
24836.2
24847.2
24856.7
24864.3
24869.6
24872
24871.4
24867.6
24860.5
24850.1
24836.5
24819.5
24799
24775
24748
24718.6
24687.5
24655.1
24621.8
24587.9
24554
24520.5
24487.8
24456.3
24426.2
24397.7
24371
24346.4
24324
24304
24286.9
24273.3
24263.7
24258.3
24257.1
24259.8
24266.1
24275.5
24287.9
24302.9
24320.2
24339.4
24360.2
24382.1
24404.5
24426.8
24448.2
24468.4
24487.1
24504.2
24519.8
24533.8
24546.2
24556.7
24565.1
24571.7
24577
24581.5
24585.7
24589.3
24591.9
24593.5
24594.4
24595.4
24596.6
24597.8
24598.3
24598
24725.3
24724.2
24726.3
24731.3
24738.8
24747.8
24758.6
24770.6
24783.6
24797.2
24810.8
24823.8
24835.9
24846.8
24856.2
24863.6
24868.6
24870.9
24870.2
24866.4
24859
24848.3
24834.1
24816.6
24795.9
24772.1
24745.4
24716.3
24685.2
24652.7
24619.2
24585.2
24551.2
24517.7
24484.9
24453.3
24423
24394.6
24368.1
24343.8
24321.9
24302.4
24285.9
24272.8
24263.6
24258.5
24257.4
24260.3
24266.8
24276.6
24289.4
24304.9
24322.5
24342
24363
24385
24407.5
24430
24451.7
24472
24490.7
24507.7
24523.2
24537.1
24549.3
24559.5
24567.6
24573.6
24578.2
24582.1
24585.8
24589.3
24592
24593.7
24594.8
24595.7
24596.6
24597.6
24598.1
24598.4
24723.5
24721.9
24724
24728.9
24736
24744.7
24755.2
24767
24779.6
24792.7
24805.7
24818.4
24830.3
24841.1
24850.5
24857.9
24862.8
24864.9
24864.1
24860.3
24853.3
24842.9
24829.1
24811.9
24791.7
24768.5
24742.6
24714.3
24684
24652
24618.9
24585.2
24551.6
24518.4
24485.9
24454.5
24424.5
24396.2
24370.1
24346.3
24324.9
24306
24289.9
24277.2
24268.1
24262.9
24261.5
24263.9
24269.7
24278.9
24291.1
24305.9
24322.8
24341.5
24361.5
24382.7
24404.6
24426.5
24447.7
24467.8
24486.2
24503
24518.5
24532.9
24545.7
24556.7
24565.3
24571.7
24576.6
24580.8
24584.8
24588.7
24591.9
24594.3
24595.8
24596.9
24598
24598.9
24599.2
24599.4
24719
24717.1
24719.5
24724.3
24731
24739.2
24749
24760.3
24772.5
24785.1
24797.6
24809.8
24821.5
24832.2
24841.6
24849.1
24854.1
24856.2
24855.4
24851.7
24845.1
24835.2
24822
24805.5
24785.9
24763.5
24738.5
24711.2
24681.7
24650.5
24618.2
24585.3
24552.4
24519.9
24487.9
24456.9
24427.1
24399.2
24373.5
24350.2
24329.3
24311
24295.4
24282.9
24273.8
24268.3
24266.2
24267.6
24272.4
24280.6
24291.9
24305.7
24321.6
24339.1
24357.9
24378
24398.9
24420
24440.7
24460.3
24478.4
24495.3
24510.9
24525.7
24539.2
24551
24560.6
24567.9
24573.5
24578.4
24582.8
24587
24590.7
24593.7
24596
24597.8
24599.2
24600.2
24600.7
24600.7
24712.6
24710.6
24713.5
24718.3
24724.8
24732.6
24741.8
24752.3
24763.9
24775.8
24787.7
24799.4
24810.5
24820.9
24830.1
24837.5
24842.6
24844.9
24844.3
24840.8
24834.5
24825.1
24812.6
24797
24778.4
24756.9
24732.9
24706.5
24678
24647.8
24616.5
24584.8
24553.1
24521.6
24490.5
24460.1
24430.9
24403.4
24378.1
24355.3
24335
24317.2
24302.1
24289.9
24280.7
24274.7
24271.7
24272
24275.7
24282.7
24292.8
24305.3
24319.7
24335.8
24353.2
24371.9
24391.6
24411.7
24431.7
24450.7
24468.6
24485.2
24501
24516
24530.1
24542.7
24553.3
24561.8
24568.5
24574.2
24579.2
24583.7
24587.9
24591.7
24594.9
24597.6
24599.5
24600.8
24601.7
24601.7
24704.8
24703.1
24706.5
24711.3
24717.6
24725.1
24733.7
24743.5
24754.2
24765.3
24776.4
24787.3
24797.7
24807.4
24816.1
24823.2
24828.4
24830.9
24830.6
24827.3
24821.1
24812
24800.1
24785.4
24767.8
24747.5
24724.6
24699.4
24672.1
24643.3
24613.6
24583.5
24553.5
24523.6
24493.8
24464.6
24436.3
24409.6
24385
24362.7
24342.9
24325.6
24310.8
24298.8
24289.6
24283
24279.3
24278.5
24280.9
24286.5
24294.9
24305.7
24318.4
24332.6
24348.4
24365.6
24383.9
24402.8
24421.7
24439.9
24457.1
24473.4
24488.9
24503.9
24518.3
24531.6
24543.4
24553.3
24561.3
24568
24573.7
24579
24583.9
24588.5
24592.6
24596
24598.5
24600.3
24601.8
24601.9
24696.3
24695.2
24699
24703.9
24709.9
24717
24725.1
24734.1
24743.9
24754
24764.1
24774
24783.5
24792.4
24800.4
24807
24811.9
24814.5
24814.4
24811.4
24805.3
24796.5
24785
24771
24754.4
24735.4
24713.9
24690
24664.3
24637.3
24609.5
24581.5
24553.6
24525.6
24497.7
24470.1
24443.3
24417.9
24394.3
24372.8
24353.5
24336.6
24322.2
24310.4
24301.1
24294.1
24289.6
24287.7
24288.7
24292.6
24299.2
24308
24318.7
24331
24345
24360.4
24377
24394.5
24412
24429.1
24445.3
24460.8
24475.9
24490.6
24505
24518.9
24531.6
24542.8
24552.3
24560.2
24567
24573.2
24579
24584.4
24589.2
24593.2
24596.2
24598.6
24600.6
24600.6
24687.3
24687.1
24691.3
24696.3
24701.9
24708.3
24715.5
24723.6
24732.3
24741.4
24750.3
24759.1
24767.6
24775.6
24782.7
24788.6
24793
24795.4
24795.3
24792.5
24786.7
24778.3
24767.3
24754
24738.6
24720.9
24700.9
24678.8
24655
24630
24604.4
24578.6
24552.8
24527
24501.3
24475.8
24451.1
24427.5
24405.4
24384.9
24366.4
24350
24336
24324.4
24315
24307.8
24302.6
24299.6
24299.2
24301.4
24306.1
24313
24321.7
24332.1
24344.1
24357.7
24372.5
24388.2
24404.2
24419.9
24435
24449.6
24463.9
24478.2
24492.4
24506.3
24519.6
24531.8
24542.5
24551.8
24559.8
24567
24573.6
24579.6
24584.9
24589.4
24592.9
24595.7
24597.8
24597.6
24679
24679.2
24683.4
24688
24692.9
24698.2
24704.2
24710.9
24718.2
24726.1
24733.9
24741.5
24749.1
24756.2
24762.5
24767.5
24771.2
24773.2
24773.1
24770.5
24765.2
24757.3
24747.1
24734.8
24720.5
24704.3
24686
24665.7
24643.9
24621
24597.6
24574
24550.4
24526.9
24503.5
24480.5
24458.2
24436.8
24416.5
24397.4
24379.9
24364.4
24351
24339.7
24330.4
24322.8
24317
24313.1
24311.4
24312
24315
24320.1
24327.1
24335.7
24346
24357.7
24370.8
24384.8
24399.2
24413.6
24427.6
24441.3
24454.8
24468.4
24482.1
24495.8
24509.1
24521.7
24533.3
24543.6
24552.7
24560.8
24568
24574.4
24580.1
24584.8
24588.6
24591.5
24593.5
24592.9
24671.5
24671.9
24675.2
24678.9
24682.6
24686.6
24691
24696.1
24701.7
24707.9
24714.4
24720.9
24727.5
24733.8
24739.3
24743.6
24746.7
24748.3
24748.2
24745.9
24741.3
24734.2
24725
24713.8
24700.8
24686
24669.5
24651.1
24631.3
24610.4
24589
24567.5
24546
24524.8
24504
24483.6
24463.9
24444.8
24426.5
24409.2
24393
24378.5
24365.9
24355.1
24345.9
24338.1
24331.6
24326.8
24324.1
24323.5
24325.2
24328.9
24334.4
24341.5
24350.1
24360.1
24371.6
24384.1
24397.3
24410.6
24423.7
24436.6
24449.3
24462.1
24475.1
24488.2
24501.2
24513.8
24525.5
24536.3
24546
24554.6
24562.3
24569
24574.7
24579.6
24583.4
24586.2
24587.7
24586.8
24664.5
24664.8
24666.4
24668.5
24670.9
24673.4
24676.3
24679.7
24683.5
24687.8
24692.6
24697.9
24703.5
24708.9
24713.7
24717.4
24720.1
24721.5
24721.5
24719.7
24715.8
24709.6
24701.4
24691.3
24679.8
24666.6
24651.8
24635.3
24617.4
24598.5
24579.2
24559.8
24540.6
24521.7
24503.4
24485.7
24468.5
24451.9
24435.7
24420.2
24405.7
24392.5
24380.8
24370.5
24361.4
24353.4
24346.5
24341.1
24337.6
24336.1
24336.8
24339.4
24343.7
24349.4
24356.5
24364.9
24374.8
24386
24398.1
24410.6
24423.1
24435.3
24447.3
24459.1
24471.1
24483.3
24495.6
24507.8
24519.3
24530
24539.8
24548.5
24556.3
24563
24568.7
24573.4
24577.1
24579.6
24580.6
24579.6
24656.9
24656.9
24656.7
24657.1
24658.2
24659.5
24661.2
24663.1
24665.3
24667.8
24670.9
24674.6
24678.9
24683.2
24687.1
24690.2
24692.4
24693.7
24693.8
24692.4
24689.1
24683.7
24676.6
24667.8
24657.8
24646.4
24633.5
24619
24603.3
24586.6
24569.6
24552.5
24535.7
24519.3
24503.4
24488.1
24473.4
24459
24445
24431.4
24418.6
24406.7
24395.9
24386.2
24377.3
24369.3
24362.2
24356.5
24352.5
24350.5
24350.5
24352.2
24355.3
24359.7
24365.2
24372
24380.3
24390
24401
24412.7
24424.6
24436.2
24447.4
24458.2
24469
24480.1
24491.5
24502.9
24513.9
24524.1
24533.5
24542
24549.6
24556.1
24561.7
24566.1
24569.6
24571.8
24572.5
24571.7
24647.8
24647.6
24646
24645
24645.2
24645.7
24646.8
24647.5
24648.4
24649.5
24651.1
24653.4
24656.1
24659
24661.6
24663.6
24665.2
24666.2
24666.3
24665
24662.2
24657.6
24651.4
24644.1
24635.7
24626.1
24615.3
24603.2
24589.9
24575.9
24561.5
24547.1
24532.7
24518.7
24505.1
24492.1
24479.5
24467.3
24455.3
24443.7
24432.5
24422
24412.2
24403.2
24394.7
24386.9
24380
24374.3
24370.1
24367.7
24367
24367.7
24369.7
24372.6
24376.5
24381.5
24388
24396
24405.5
24416.1
24427.2
24438.1
24448.5
24458.4
24468.1
24477.9
24488.1
24498.4
24508.6
24518.2
24526.9
24534.8
24541.9
24548.1
24553.4
24557.7
24561
24563
24563.7
24563
24636.5
24636
24633.7
24632.1
24631.7
24631.8
24632.2
24632.2
24632
24632
24632.6
24633.8
24635.2
24636.6
24637.7
24638.6
24639.2
24639.7
24639.6
24638.5
24636
24632.2
24627.2
24621.3
24614.5
24606.8
24598.1
24588.3
24577.7
24566.5
24555
24543.2
24531.3
24519.5
24508.1
24497.1
24486.6
24476.4
24466.4
24456.7
24447.2
24438.1
24429.4
24421.3
24413.6
24406.5
24400.1
24394.6
24390.4
24387.5
24386
24385.8
24386.5
24388.1
24390.4
24393.7
24398.3
24404.4
24412.1
24421.2
24431.1
24441.1
24450.7
24459.7
24468.4
24477
24485.9
24495
24504
24512.7
24520.6
24527.7
24534.1
24539.9
24544.8
24548.8
24552.1
24554.2
24554.9
24554.3
24622.8
24622
24619.5
24617.8
24617.1
24616.8
24616.3
24615.6
24614.7
24614
24613.8
24614.2
24614.8
24615.1
24615.1
24614.8
24614.7
24614.7
24614.4
24613.5
24611.6
24608.7
24604.8
24600.2
24594.8
24588.6
24581.7
24574
24565.8
24557.3
24548.4
24539.1
24529.6
24519.9
24510.4
24501.4
24492.8
24484.6
24476.6
24468.7
24460.9
24453.4
24446.1
24439.2
24432.6
24426.4
24420.8
24415.8
24411.6
24408.4
24406.2
24405.1
24404.8
24405.4
24406.7
24408.7
24411.7
24416.1
24421.9
24429.2
24437.5
24446.3
24454.9
24463
24470.7
24478.2
24485.8
24493.6
24501.4
24508.9
24515.8
24522
24527.6
24532.7
24537.1
24540.9
24543.9
24546
24546.8
24546.4
24607.2
24606
24603.5
24601.8
24600.6
24599.9
24598.8
24597.3
24595.7
24594.6
24594.2
24594.3
24594.5
24594.2
24593.6
24592.8
24592.2
24591.9
24591.7
24591
24589.7
24587.7
24584.8
24581.2
24576.8
24571.7
24566
24560
24553.7
24547.4
24540.7
24533.7
24526.2
24518.6
24511.2
24504.1
24497.5
24491.2
24485.1
24478.9
24472.9
24466.9
24461.2
24455.7
24450.4
24445.4
24440.6
24436.1
24432.1
24428.7
24426.1
24424.5
24423.8
24424.1
24424.9
24426.3
24428.4
24431.3
24435.4
24440.7
24447.3
24454.5
24461.9
24468.9
24475.6
24482
24488.3
24494.7
24501.2
24507.4
24513.2
24518.4
24523.1
24527.4
24531.3
24534.5
24537.1
24539.1
24539.9
24539.6
24590
24588.8
24586.2
24584.5
24583.2
24581.7
24580
24578
24576.2
24575
24574.6
24574.7
24574.9
24574.6
24574
24573.2
24572.6
24572.3
24572.2
24571.9
24571.1
24569.7
24567.6
24564.6
24560.9
24556.6
24551.8
24547
24542.2
24537.5
24532.7
24527.5
24522.1
24516.4
24511
24505.9
24501.2
24496.7
24492.3
24487.7
24483.2
24478.7
24474.4
24470.3
24466.3
24462.4
24458.5
24454.7
24450.9
24447.6
24445.1
24443.5
24443.1
24443.5
24444.5
24445.7
24447.2
24449.1
24451.7
24455.3
24460
24465.4
24471.3
24477
24482.6
24487.8
24492.8
24497.8
24502.8
24507.8
24512.4
24516.6
24520.3
24523.8
24526.9
24529.6
24531.7
24533.2
24534.2
24534.1
24570.6
24570.3
24568.8
24566.7
24565.2
24563.5
24561.5
24559.4
24557.6
24556.5
24556.2
24556.4
24556.7
24556.8
24556.5
24556
24555.7
24555.6
24555.6
24555.6
24555.2
24554.3
24552.7
24550.4
24547.5
24543.9
24540.2
24536.5
24533
24529.6
24526.3
24522.7
24519
24515.2
24511.7
24508.4
24505.4
24502.4
24499.4
24496.2
24493
24489.8
24486.7
24483.8
24480.9
24478.1
24475.1
24472
24468.9
24466.1
24464
24462.8
24462.7
24463.4
24464.5
24465.7
24466.8
24468
24469.6
24471.8
24474.7
24478.4
24482.4
24486.6
24490.7
24494.6
24498.3
24501.9
24505.6
24509.1
24512.5
24515.6
24518.3
24520.9
24523.2
24525.3
24527.1
24528.3
24529.2
24529.4
24546.4
24549
24548.5
24547.3
24545.9
24544.3
24542.5
24540.8
24539.5
24538.6
24538.3
24538.5
24538.9
24539.1
24539.1
24539.1
24539
24539.1
24539.2
24539.2
24539.1
24538.6
24537.8
24536.5
24534.7
24532.5
24530.1
24527.9
24525.7
24523.8
24521.8
24519.8
24517.6
24515.6
24513.7
24512
24510.5
24508.9
24507.1
24505.2
24503.2
24501.2
24499.4
24497.6
24495.9
24494.1
24492.2
24490.3
24488.3
24486.5
24485.1
24484.4
24484.4
24485
24485.9
24486.9
24487.6
24488.3
24489
24490.1
24491.6
24493.5
24495.7
24498.1
24500.4
24502.7
24504.9
24507.1
24509.2
24511.1
24512.9
24514.6
24516.2
24517.8
24519.4
24520.9
24522.2
24523.4
24524.2
24524.6
24512.7
24514.8
24515
24515
24515.4
24515.8
24516
24515.8
24515.6
24515.5
24515.6
24515.7
24515.8
24515.6
24515.2
24514.6
24514
24513.5
24512.8
24512.2
24511.5
24510.8
24510
24509.1
24508
24506.9
24505.8
24504.7
24503.7
24502.9
24502
24501.1
24500.3
24499.5
24498.8
24498.2
24497.7
24497.1
24496.4
24495.7
24494.8
24494
24493.2
24492.5
24491.7
24490.9
24490
24489
24488.1
24487.3
24486.6
24486.1
24485.8
24485.7
24485.7
24485.7
24485.6
24485.1
24484.6
24484.2
24483.8
24483.6
24483.5
24483.4
24483.4
24483.5
24483.7
24483.9
24484.2
24484.4
24484.7
24485.2
24485.8
24486.7
24488.1
24490
24492.6
24496.4
24501.4
24508.2
11.0225
16.4
20.3112
23.2392
25.1613
26.5001
27.549
28.4509
28.995
29.2598
29.2698
29.093
28.8571
28.8434
28.9192
28.9814
28.9942
28.944
28.8
28.5713
28.2817
27.9327
27.5358
27.1002
26.607
26.0519
25.4291
24.7439
24.0077
23.2328
22.4274
21.5942
20.7322
19.8402
18.9263
17.9837
17.0089
16.0062
14.9768
13.9275
12.8706
11.8196
10.7709
9.73819
8.7409
7.84072
7.09092
6.35595
5.64272
4.94926
4.27864
3.63855
3.02862
2.44784
1.90099
1.41618
1.03988
1.0946
1.16484
1.24476
1.30854
1.35898
1.39779
1.43557
1.47138
1.50059
1.52876
1.62302
1.7801
2.03365
2.43976
2.89651
3.39377
3.87892
4.33371
4.73004
4.87638
4.61136
3.94369
2.6689
-0.00336969
-0.00334641
-0.00331499
-0.00326365
-0.00317003
-0.0030471
-0.00291254
-0.00276141
-0.00258062
-0.00238296
-0.00217906
-0.0019646
-0.0017353
-0.00148544
-0.00121222
-0.000913229
-0.00059242
-0.000251822
0.000112248
0.000494421
0.00088543
0.00127922
0.00167788
0.00208302
0.00249495
0.00291591
0.00333918
0.00377025
0.00421907
0.00468496
0.00516225
0.00564685
0.00613578
0.00662895
0.00713246
0.00764641
0.00815872
0.00867879
0.00921429
0.00973941
0.0102517
0.010769
0.0112812
0.0117849
0.0122791
0.0127648
0.0132504
0.0137293
0.0142083
0.0146933
0.015163
0.0156116
0.0160624
0.0165203
0.0169636
0.0173758
0.0177747
0.0181885
0.0185731
0.0189337
0.0192586
0.0195736
0.0198839
0.0201783
0.0204645
0.0206911
0.0208994
0.021101
0.02132
0.0214972
0.0216557
0.0218488
0.0220459
0.0221935
0.0222651
0.0223236
0.0224269
0.0224397
0.0223169
0.0222711
-0.00337285
-0.00335906
-0.00332354
-0.00326686
-0.00317646
-0.0030552
-0.0029153
-0.0027617
-0.00258161
-0.00238296
-0.00217665
-0.00195991
-0.00172933
-0.00147941
-0.00120762
-0.000910877
-0.000590818
-0.000251184
0.000110151
0.000490047
0.000880768
0.00127677
0.00167914
0.00208955
0.00250707
0.00293409
0.00336395
0.00379834
0.00424463
0.00470432
0.0051748
0.00565387
0.00614011
0.0066324
0.00713474
0.00764956
0.00816521
0.00868335
0.00921562
0.00974276
0.0102561
0.0107723
0.0112835
0.0117874
0.0122832
0.012767
0.0132519
0.0137328
0.0142097
0.0146906
0.0151639
0.0156163
0.0160625
0.0165105
0.0169531
0.0173745
0.017771
0.0181775
0.0185666
0.018938
0.0192762
0.0195976
0.0199104
0.0201918
0.0204756
0.0207149
0.0209314
0.0211281
0.0213395
0.0215238
0.0216868
0.0218676
0.0220482
0.0221961
0.0222831
0.022338
0.0224337
0.0225018
0.0224516
0.0223825
-0.00340354
-0.00338568
-0.00333056
-0.00326496
-0.00317921
-0.00305989
-0.00291504
-0.00276109
-0.00258882
-0.00239399
-0.00218726
-0.00196879
-0.0017376
-0.0014884
-0.00121867
-0.000923595
-0.000601625
-0.000259727
0.000102334
0.000482663
0.000875728
0.00127595
0.00167915
0.0020875
0.00249935
0.00292111
0.00335342
0.00379153
0.00423738
0.00469404
0.00516196
0.00564065
0.00613018
0.00662615
0.00712844
0.00764609
0.00817077
0.00868629
0.00921244
0.0097463
0.0102642
0.0107776
0.0112854
0.0117876
0.0122881
0.0127728
0.0132554
0.0137373
0.0142109
0.014688
0.0151703
0.0156319
0.0160737
0.0165096
0.0169522
0.0173914
0.0177906
0.0181872
0.0185667
0.0189422
0.019293
0.01961
0.0199167
0.0201736
0.0204558
0.020709
0.0209434
0.0211359
0.0213406
0.0215426
0.0217103
0.0218657
0.0220319
0.0221955
0.0223246
0.0223708
0.0224412
0.022563
0.0226076
0.0225149
-0.00338643
-0.00338259
-0.00332968
-0.00325595
-0.00317183
-0.00306057
-0.00291727
-0.00276131
-0.00259419
-0.00240737
-0.00220368
-0.00198313
-0.00174624
-0.0014903
-0.00121552
-0.000920272
-0.000599723
-0.000258504
9.96464e-05
0.000472596
0.000858046
0.00125267
0.00165233
0.0020586
0.00246889
0.00288781
0.00331892
0.00375955
0.00420939
0.00466985
0.00514138
0.00562268
0.00611606
0.00662088
0.00712795
0.00764407
0.00817481
0.00869655
0.00921403
0.00974132
0.010262
0.0107801
0.0112901
0.0117877
0.0122885
0.01278
0.0132655
0.0137507
0.0142255
0.0146959
0.0151746
0.015643
0.0160907
0.0165228
0.0169499
0.017388
0.0177858
0.0181712
0.0185431
0.0189125
0.0192645
0.0195782
0.0198881
0.0201419
0.0204091
0.0206637
0.0209064
0.0211111
0.021317
0.0215329
0.0217317
0.0218979
0.0220414
0.0221624
0.0222816
0.0223441
0.0223873
0.0224688
0.0225452
0.0225469
-0.00335459
-0.00335339
-0.00331372
-0.00324036
-0.00315558
-0.00305646
-0.0029243
-0.00276962
-0.00260253
-0.00241871
-0.00221675
-0.00199477
-0.00175374
-0.00149271
-0.00121251
-0.000915587
-0.000597991
-0.000262286
8.90112e-05
0.000453582
0.000829774
0.00121748
0.0016131
0.0020174
0.00242829
0.00284732
0.00327767
0.00371856
0.00417014
0.00463382
0.00511177
0.00560077
0.00609816
0.00660943
0.00712531
0.00763954
0.00816644
0.00869437
0.0092132
0.0097347
0.0102505
0.0107696
0.0112889
0.0117876
0.0122824
0.0127745
0.0132636
0.0137547
0.0142348
0.0147019
0.0151736
0.0156419
0.0160919
0.0165259
0.0169455
0.0173783
0.0177817
0.0181646
0.0185257
0.0188773
0.0192215
0.0195284
0.0198313
0.020091
0.0203561
0.0206247
0.02088
0.0210966
0.0213018
0.0215096
0.0217087
0.021878
0.0220267
0.0221453
0.0222471
0.0223245
0.0223758
0.022422
0.0224532
0.0224938
-0.00332921
-0.00331791
-0.00328765
-0.00322072
-0.00313555
-0.00304188
-0.00292375
-0.00277809
-0.00261298
-0.00242848
-0.00222394
-0.00199814
-0.00175286
-0.00148939
-0.00120746
-0.000910384
-0.000596381
-0.000267121
7.57343e-05
0.000430803
0.000796447
0.00117516
0.00156613
0.00196793
0.00237826
0.00279724
0.00322826
0.00367172
0.00412739
0.00459409
0.00507534
0.00557234
0.0060751
0.00658716
0.00710911
0.00762672
0.00814614
0.00866999
0.00919048
0.00971572
0.0102293
0.0107387
0.0112603
0.0117692
0.012264
0.0127517
0.0132382
0.0137362
0.0142262
0.0146937
0.015158
0.0156278
0.0160821
0.016513
0.016921
0.0173363
0.0177412
0.0181278
0.0184908
0.0188335
0.0191669
0.0194807
0.0197825
0.0200468
0.0202955
0.0205604
0.0208226
0.0210539
0.0212642
0.0214625
0.0216528
0.0218147
0.021946
0.0220746
0.0221899
0.0222746
0.0223423
0.0223957
0.0223997
0.0224082
-0.00329936
-0.00328041
-0.00325532
-0.00319949
-0.00311658
-0.00302463
-0.00291405
-0.00277756
-0.00261709
-0.00243285
-0.00222604
-0.00199721
-0.0017484
-0.00148281
-0.00120186
-0.000907863
-0.000599292
-0.000276357
5.97556e-05
0.000408477
0.000766914
0.00113636
0.00152027
0.00191844
0.00232824
0.0027469
0.00317728
0.00362235
0.00408386
0.00455738
0.00504024
0.00553911
0.00604528
0.00655525
0.00707555
0.00759562
0.00811424
0.00863196
0.00914485
0.00966984
0.0101919
0.0106936
0.0112033
0.0117167
0.0122225
0.0127139
0.0131948
0.0136908
0.014192
0.0146671
0.0151192
0.0155777
0.0160409
0.01648
0.0168836
0.0172792
0.0176762
0.0180639
0.0184317
0.0187737
0.0190877
0.0194003
0.0197122
0.0200055
0.0202546
0.0205002
0.0207475
0.0209799
0.0212
0.0213996
0.0215884
0.0217537
0.0218634
0.0219758
0.0221082
0.0222078
0.022269
0.0223295
0.0223552
0.0223358
-0.00326763
-0.00324077
-0.0032148
-0.00317101
-0.00309755
-0.00300686
-0.00289978
-0.00276885
-0.00261255
-0.00242988
-0.0022229
-0.00199422
-0.00174473
-0.00147869
-0.00119806
-0.000906443
-0.000603253
-0.000287418
4.10294e-05
0.000384081
0.000739818
0.00110468
0.00148212
0.00187749
0.00228754
0.00270875
0.00314068
0.0035843
0.00404546
0.00452213
0.00500473
0.00550017
0.00600547
0.00651197
0.0070257
0.00754191
0.00805946
0.00857693
0.00908142
0.00959509
0.0101227
0.0106312
0.0111306
0.0116365
0.0121492
0.0126565
0.0131356
0.0136189
0.0141206
0.0146088
0.0150602
0.0154974
0.0159533
0.0163997
0.0168181
0.0172061
0.0175912
0.0179766
0.01835
0.0187049
0.0190053
0.0193076
0.0196068
0.0199153
0.0201832
0.0204353
0.0206646
0.0208784
0.0210952
0.0212982
0.0214868
0.0216744
0.0218028
0.0218871
0.0220066
0.022119
0.0221725
0.0222166
0.0222552
0.0222463
-0.00323848
-0.00320905
-0.00317642
-0.00313762
-0.00307369
-0.00298801
-0.0028824
-0.00275329
-0.00259933
-0.00241973
-0.00221482
-0.00198895
-0.00174395
-0.00148135
-0.00120248
-0.000911054
-0.000608842
-0.000295136
2.823e-05
0.000364107
0.000716886
0.0010811
0.00145561
0.00184449
0.00224987
0.00267071
0.00310583
0.00355056
0.00400709
0.00447972
0.0049603
0.00545016
0.00595127
0.00645552
0.00696357
0.00747055
0.00798012
0.00850059
0.00900739
0.00950565
0.0100271
0.0105482
0.0110517
0.0115444
0.0120475
0.0125664
0.0130578
0.0135278
0.0140128
0.0145096
0.0149818
0.0154095
0.0158434
0.0162792
0.0167116
0.0171092
0.017486
0.0178581
0.0182248
0.0186
0.0189086
0.0192095
0.0194931
0.0197948
0.0200674
0.0203366
0.0205765
0.0207881
0.020999
0.0211982
0.0213655
0.021543
0.0216989
0.0217918
0.0218823
0.0219921
0.0220583
0.0220794
0.0221094
0.0221214
-0.00320773
-0.00318729
-0.0031481
-0.00310799
-0.00304923
-0.0029667
-0.0028625
-0.00273406
-0.00258158
-0.00240618
-0.0022065
-0.00198462
-0.001744
-0.00148681
-0.00121251
-0.000923465
-0.00062245
-0.000307991
1.66648e-05
0.000348906
0.000696539
0.00105912
0.0014333
0.0018204
0.00222236
0.00263881
0.0030719
0.00351654
0.00396939
0.00443543
0.00491023
0.00539303
0.00588599
0.00638425
0.00688993
0.00739372
0.00789023
0.00840303
0.00892119
0.00942079
0.00992872
0.0104508
0.0109686
0.0114655
0.0119498
0.0124616
0.0129665
0.0134363
0.0138972
0.0143741
0.014863
0.0153105
0.0157444
0.0161602
0.016585
0.0169909
0.017373
0.0177394
0.0180881
0.0184669
0.0187879
0.0190968
0.0193804
0.0196719
0.0199292
0.020197
0.0204551
0.0206783
0.0208878
0.0210912
0.0212468
0.021386
0.0215378
0.0216563
0.0217361
0.0218302
0.0219062
0.0219333
0.0219394
0.0219554
-0.00317936
-0.00317093
-0.00313278
-0.00308708
-0.00302767
-0.00294469
-0.00284062
-0.0027137
-0.00256355
-0.0023927
-0.00220046
-0.00198572
-0.00174988
-0.00149727
-0.00122622
-0.000938694
-0.000639967
-0.000327837
-1.50072e-06
0.000332097
0.000677204
0.00103639
0.00140907
0.00179491
0.00219521
0.00260765
0.00303455
0.00347506
0.00392506
0.00438624
0.00485588
0.0053339
0.0058208
0.00631005
0.00680885
0.00731641
0.00781278
0.00831212
0.00883009
0.00934066
0.00984546
0.0103572
0.010875
0.0113839
0.0118624
0.0123567
0.0128639
0.0133432
0.0137983
0.014248
0.0147239
0.0151768
0.0156222
0.0160354
0.0164503
0.0168566
0.0172469
0.0176214
0.0179601
0.0183366
0.0186675
0.0189795
0.019264
0.0195507
0.0197944
0.0200428
0.0203038
0.020543
0.0207564
0.0209504
0.0211019
0.0212165
0.0213455
0.0214752
0.0215744
0.0216583
0.02173
0.021772
0.0217668
0.0217657
-0.00315907
-0.00315911
-0.00312634
-0.00307516
-0.00301059
-0.00292388
-0.00281751
-0.00269207
-0.00254579
-0.0023795
-0.00219368
-0.00198737
-0.00175948
-0.00151269
-0.00124714
-0.000961548
-0.000662977
-0.000353467
-2.8789e-05
0.00030616
0.000652626
0.00101249
0.0013836
0.00176647
0.00216443
0.00257457
0.00299596
0.00342875
0.00387276
0.0043292
0.00479402
0.00526825
0.00575453
0.00624202
0.00673085
0.00723633
0.00774419
0.00824514
0.00875737
0.00926928
0.0097745
0.0102798
0.0107884
0.0113011
0.0117799
0.0122557
0.0127546
0.0132379
0.0136977
0.0141392
0.0146044
0.0150558
0.0155018
0.0159115
0.0163194
0.0167248
0.0171215
0.017504
0.0178371
0.0182053
0.0185423
0.0188512
0.0191306
0.0194127
0.0196619
0.0198955
0.0201372
0.0203701
0.0205844
0.0207767
0.0209308
0.0210426
0.0211515
0.0212726
0.0213845
0.0214768
0.0215424
0.0215983
0.0216166
0.0216035
-0.00315427
-0.00315425
-0.0031247
-0.00306987
-0.0029994
-0.00290829
-0.00279857
-0.00267312
-0.00253073
-0.00237004
-0.0021898
-0.00199019
-0.00176815
-0.00152655
-0.0012685
-0.000989958
-0.000693928
-0.000385616
-6.27194e-05
0.000271731
0.000617577
0.000978802
0.00135232
0.00173421
0.00212766
0.00253418
0.0029531
0.0033816
0.00382115
0.00427512
0.0047382
0.00520843
0.00569319
0.00618697
0.00667603
0.0071701
0.00767593
0.00818315
0.0086976
0.00920973
0.00971016
0.0102085
0.0107099
0.0112259
0.0117117
0.0121713
0.0126557
0.0131413
0.0136034
0.0140372
0.0144862
0.0149385
0.0153946
0.0158083
0.0162044
0.0166045
0.0170083
0.0173954
0.0177207
0.0180685
0.018406
0.0187153
0.018987
0.0192498
0.0194996
0.0197396
0.0199838
0.0201968
0.020388
0.0205678
0.020728
0.0208624
0.0209884
0.0210997
0.0211991
0.0212847
0.0213429
0.0213979
0.0214421
0.0214514
-0.00316346
-0.00315637
-0.00312696
-0.00306912
-0.00299372
-0.00289957
-0.00278752
-0.00266076
-0.00251912
-0.00236237
-0.00218744
-0.00199461
-0.00177909
-0.00154102
-0.00128667
-0.00101449
-0.000724132
-0.000418655
-9.60382e-05
0.000238982
0.000583229
0.00094085
0.00131324
0.00169516
0.00208471
0.00248483
0.00290041
0.00332829
0.00376674
0.0042214
0.00468918
0.00516284
0.00564346
0.00613888
0.0066397
0.00713415
0.00762557
0.00811799
0.00862703
0.00914504
0.00964629
0.0101348
0.0106214
0.0111371
0.0116429
0.0120981
0.0125574
0.0130405
0.0135189
0.013963
0.0143889
0.0148221
0.015281
0.0157125
0.0161048
0.0164834
0.0168889
0.017285
0.0176098
0.0179285
0.0182472
0.0185523
0.0188411
0.0190944
0.0193284
0.0195547
0.0198039
0.0200342
0.0202137
0.0203611
0.0205067
0.0206542
0.0208071
0.0209455
0.0210458
0.0211162
0.0211694
0.0212001
0.0212424
0.0212671
-0.00317874
-0.00316623
-0.00313204
-0.003072
-0.00299301
-0.00289633
-0.00278331
-0.00265628
-0.0025137
-0.00235688
-0.0021828
-0.00199308
-0.00178452
-0.00155267
-0.00130154
-0.00103273
-0.000747038
-0.000447136
-0.00012944
0.000205404
0.000550406
0.000904198
0.00127085
0.00165056
0.00203953
0.00243636
0.00284898
0.00327708
0.00371799
0.0041746
0.00464661
0.00512982
0.00561164
0.00609443
0.00658944
0.00709248
0.00758806
0.00806484
0.00854886
0.00906096
0.00957375
0.0100659
0.010536
0.0110324
0.0115576
0.0120378
0.0124794
0.0129345
0.0134067
0.013883
0.0143132
0.0147232
0.0151592
0.0155988
0.0160103
0.0163621
0.016743
0.0171372
0.0174872
0.0177976
0.0180893
0.018366
0.0186573
0.0189153
0.0191553
0.0193705
0.019594
0.0198304
0.020044
0.0202001
0.0203236
0.0204466
0.0205957
0.0207462
0.020863
0.020931
0.0209875
0.0210103
0.0210261
0.0210352
-0.00319349
-0.00318065
-0.00314139
-0.00307933
-0.00299785
-0.00289957
-0.00278528
-0.00265856
-0.00251623
-0.00235942
-0.0021844
-0.00199139
-0.00178239
-0.00155414
-0.0013071
-0.00104166
-0.00075852
-0.000462412
-0.000153005
0.00017356
0.000514648
0.000864626
0.00122364
0.00159725
0.00198503
0.00238346
0.00279812
0.00322955
0.00367626
0.00413739
0.00460752
0.00509225
0.00558249
0.00605745
0.0065266
0.00701373
0.00751848
0.00800711
0.00847509
0.00896236
0.00947512
0.00998583
0.01046
0.0109249
0.0114329
0.0119409
0.0124022
0.0128474
0.0132817
0.0137627
0.0142141
0.0146213
0.0150317
0.0154486
0.0158822
0.0162363
0.0165867
0.0169438
0.017299
0.0176306
0.0179381
0.018199
0.018479
0.0187278
0.0189563
0.0191845
0.0193933
0.0195957
0.0198128
0.0200106
0.0201621
0.0202808
0.0204049
0.0205249
0.0206369
0.0207095
0.0207727
0.0208149
0.0208242
0.020802
-0.00320351
-0.00319339
-0.00315174
-0.00308836
-0.00300594
-0.0029077
-0.00279243
-0.00266479
-0.00252164
-0.00236366
-0.00218906
-0.00199383
-0.00178061
-0.00155038
-0.00130421
-0.00104286
-0.000764706
-0.000471936
-0.000169464
0.00014601
0.000478002
0.000822858
0.00117673
0.0015438
0.00192823
0.00232759
0.00274638
0.0031821
0.00363311
0.00410059
0.0045679
0.00503588
0.00552172
0.00600546
0.00646569
0.0069221
0.00741013
0.00791283
0.00839299
0.00886042
0.00935121
0.00986719
0.0103641
0.0108236
0.0112998
0.0117964
0.01227
0.0127347
0.013144
0.0135994
0.014057
0.014473
0.0148845
0.0152688
0.0156987
0.0160702
0.0164297
0.0167536
0.0170848
0.0174073
0.0177187
0.0179753
0.0182582
0.0185343
0.0187491
0.018965
0.0191925
0.0193862
0.0195694
0.019771
0.0199508
0.0200875
0.0201989
0.020288
0.0203689
0.0204288
0.0204777
0.0205237
0.0205547
0.0205471
-0.00320999
-0.00320222
-0.0031612
-0.00309837
-0.00301594
-0.00291949
-0.00280562
-0.00267854
-0.00253494
-0.00237234
-0.00219348
-0.00199564
-0.00177943
-0.00154702
-0.00129933
-0.0010393
-0.000768155
-0.00048337
-0.000187115
0.000118975
0.000438972
0.000775601
0.00112622
0.00149205
0.00187609
0.00227497
0.00269454
0.00313054
0.00357542
0.0040391
0.00451
0.00496367
0.00542508
0.00590786
0.00638136
0.00683264
0.00729236
0.00778469
0.00828148
0.00875241
0.00921793
0.00971221
0.0102173
0.0106918
0.0111578
0.01164
0.0120997
0.0125798
0.0129871
0.0134114
0.0138614
0.0142738
0.0146976
0.0150706
0.0154854
0.0158483
0.0162206
0.0165395
0.0168633
0.0171883
0.0175075
0.0177522
0.0179883
0.0182757
0.018533
0.0187329
0.0189485
0.0191517
0.0193115
0.019486
0.0196686
0.019828
0.0199452
0.0200328
0.0200973
0.0201429
0.0201747
0.0201963
0.0202193
0.0202292
-0.00321334
-0.00320493
-0.00316572
-0.00310709
-0.00302709
-0.00293332
-0.00282229
-0.00269612
-0.00255447
-0.00239014
-0.00220547
-0.00200199
-0.00178101
-0.00154712
-0.00130012
-0.00104127
-0.000774667
-0.000498152
-0.000210436
8.83846e-05
0.000400224
0.000728958
0.00107476
0.00143976
0.00182617
0.00222581
0.00264231
0.00307556
0.00350875
0.00394922
0.00441377
0.00486978
0.00531537
0.00578121
0.00626189
0.0067309
0.00718107
0.00764724
0.00814043
0.00862455
0.00908471
0.00955562
0.0100467
0.010523
0.0109864
0.0114629
0.0119081
0.0123874
0.0128079
0.0132088
0.0136495
0.0140532
0.0144771
0.0148462
0.0152578
0.0156144