/*--------------------------------*- C++ -*----------------------------------*\
| =========                 |                                                 |
| \\      /  F ield         | OpenFOAM: The Open Source CFD Toolbox           |
|  \\    /   O peration     | Version:  2412                                  |
|   \\  /    A nd           | Website:  www.openfoam.com                      |
|    \\/     M anipulation  |                                                 |
\*---------------------------------------------------------------------------*/
FoamFile
{
    version     2.0;
    format      ascii;
    arch        "LSB;label=32;scalar=64";
    class       surfaceScalarField;
    location    "4.8";
    object      phi;
}
// * * * * * * * * * * * * * * * * * * * * * * * * * * * * * * * * * * * * * //

dimensions      [0 3 -1 0 0 0 0];

oriented        oriented;

internalField   nonuniform List<scalar> 
12640
(
-4.5094e-08
4.50765e-08
-2.59145e-07
2.1394e-07
-6.01265e-07
3.41855e-07
-1.00846e-06
4.06899e-07
-1.43274e-06
4.23901e-07
-1.84341e-06
4.10283e-07
-2.22324e-06
3.79488e-07
-2.56495e-06
3.41259e-07
-2.86717e-06
3.01734e-07
-3.13195e-06
2.64324e-07
-3.36304e-06
2.30616e-07
-3.5642e-06
2.00622e-07
-3.73865e-06
1.73878e-07
-3.88897e-06
1.49724e-07
-4.01691e-06
1.27201e-07
-4.12323e-06
1.05365e-07
-4.20792e-06
8.35907e-08
-4.27064e-06
6.15736e-08
-4.31087e-06
3.91034e-08
-4.32802e-06
1.60721e-08
-4.32144e-06
-7.51361e-09
-4.2906e-06
-3.14873e-08
-4.23521e-06
-5.56589e-08
-4.15525e-06
-7.98613e-08
-4.05089e-06
-1.03968e-07
-3.92243e-06
-1.27875e-07
-3.77026e-06
-1.51499e-07
-3.59476e-06
-1.74784e-07
-3.39636e-06
-1.97663e-07
-3.17558e-06
-2.20051e-07
-2.93305e-06
-2.41811e-07
-2.66959e-06
-2.62777e-07
-2.38622e-06
-2.82733e-07
-2.08424e-06
-3.01387e-07
-1.76529e-06
-3.18411e-07
-1.43139e-06
-3.33403e-07
-1.08494e-06
-3.45999e-07
-7.28662e-07
-3.55873e-07
-3.6559e-07
-3.62702e-07
9.28152e-10
-3.66186e-07
3.67462e-07
-3.66235e-07
7.30588e-07
-3.62858e-07
1.08688e-06
-3.56047e-07
1.4332e-06
-3.46089e-07
1.76663e-06
-3.3319e-07
2.08443e-06
-3.17545e-07
2.38436e-06
-2.99621e-07
2.66457e-06
-2.79838e-07
2.92365e-06
-2.58648e-07
3.16058e-06
-2.36442e-07
3.37454e-06
-2.13406e-07
3.56495e-06
-1.898e-07
3.73143e-06
-1.65845e-07
3.8737e-06
-1.41603e-07
3.99158e-06
-1.17181e-07
4.08501e-06
-9.27182e-08
4.15403e-06
-6.82948e-08
4.19881e-06
-4.40469e-08
4.21965e-06
-2.01248e-08
4.21706e-06
3.26846e-09
4.19172e-06
2.59666e-08
4.14438e-06
4.78746e-08
4.07586e-06
6.89623e-08
3.98686e-06
8.93155e-08
3.87786e-06
1.09184e-07
3.74886e-06
1.29057e-07
3.59913e-06
1.4965e-07
3.42718e-06
1.71758e-07
3.2306e-06
1.96305e-07
3.00613e-06
2.24132e-07
2.75002e-06
2.55722e-07
2.45869e-06
2.90869e-07
2.12998e-06
3.28123e-07
1.76503e-06
3.64179e-07
1.37096e-06
3.93099e-07
9.6415e-07
4.05627e-07
5.74055e-07
3.88718e-07
2.46588e-07
3.25936e-07
4.22585e-08
2.02699e-07
4.06536e-08
-2.14641e-07
2.59329e-07
-7.77437e-07
7.76206e-07
-1.57924e-06
1.14315e-06
-2.50513e-06
1.33224e-06
-3.46203e-06
1.38003e-06
-4.38599e-06
1.33329e-06
-5.23919e-06
1.23175e-06
-6.00414e-06
1.10518e-06
-6.67678e-06
9.73314e-07
-7.26127e-06
8.47706e-07
-7.76569e-06
7.33901e-07
-8.19902e-06
6.32705e-07
-8.5694e-06
5.42888e-07
-8.88346e-06
4.62316e-07
-9.14589e-06
3.88106e-07
-9.35933e-06
3.17175e-07
-9.52468e-06
2.47206e-07
-9.64174e-06
1.76922e-07
-9.70976e-06
1.05613e-07
-9.72776e-06
3.29375e-08
-9.69469e-06
-4.12232e-08
-9.6097e-06
-1.1661e-07
-9.47225e-06
-1.92789e-07
-9.28221e-06
-2.69237e-07
-9.03982e-06
-3.45459e-07
-8.7456e-06
-4.21043e-07
-8.40022e-06
-4.95711e-07
-8.00449e-06
-5.69302e-07
-7.55923e-06
-6.41682e-07
-7.06542e-06
-7.12642e-07
-6.52426e-06
-7.81818e-07
-5.93725e-06
-8.48694e-07
-5.30646e-06
-9.12523e-07
-4.63458e-06
-9.72358e-07
-3.92507e-06
-1.02709e-06
-3.18226e-06
-1.07545e-06
-2.41136e-06
-1.1162e-06
-1.6184e-06
-1.14819e-06
-8.10144e-07
-1.17037e-06
6.05377e-09
-1.18184e-06
8.22474e-07
-1.18216e-06
1.63138e-06
-1.17129e-06
2.42521e-06
-1.1494e-06
3.19686e-06
-1.11724e-06
3.9398e-06
-1.07558e-06
4.64817e-06
-1.02529e-06
5.31696e-06
-9.67693e-07
5.94212e-06
-9.04189e-07
6.52062e-06
-8.36253e-07
7.05029e-06
-7.65131e-07
7.52961e-06
-6.91664e-07
7.95751e-06
-6.1657e-07
8.3333e-06
-5.40436e-07
8.65658e-06
-4.63629e-07
8.92707e-06
-3.86381e-07
9.14467e-06
-3.09024e-07
9.30955e-06
-2.31904e-07
9.42211e-06
-1.55401e-07
9.48308e-06
-7.99727e-08
9.49355e-06
-6.21034e-09
9.45488e-06
6.54662e-08
9.36863e-06
1.34776e-07
9.23628e-06
2.01743e-07
9.05902e-06
2.66777e-07
8.83729e-06
3.30884e-07
8.57034e-06
3.95751e-07
8.25578e-06
4.63787e-07
7.88926e-06
5.37696e-07
7.46448e-06
6.2038e-07
6.97339e-06
7.14357e-07
6.40715e-06
8.2093e-07
5.7578e-06
9.38974e-07
5.02116e-06
1.06323e-06
4.2009e-06
1.18261e-06
3.31383e-06
1.27804e-06
2.39606e-06
1.32104e-06
1.5089e-06
1.27344e-06
7.4152e-07
1.09092e-06
2.03634e-07
7.38245e-07
2.4363e-07
-3.46569e-07
6.05703e-07
-1.15648e-06
1.58569e-06
-2.2512e-06
2.23744e-06
-3.48531e-06
2.56598e-06
-4.74608e-06
2.64033e-06
-5.95513e-06
2.54188e-06
-7.06544e-06
2.34169e-06
-8.05494e-06
2.09423e-06
-8.91849e-06
1.83644e-06
-9.66188e-06
1.59071e-06
-1.02963e-05
1.36796e-06
-1.08342e-05
1.17033e-06
-1.12873e-05
9.95748e-07
-1.16652e-05
8.4011e-07
-1.19751e-05
6.97932e-07
-1.22213e-05
5.63391e-07
-1.2406e-05
4.31874e-07
-1.25296e-05
3.00524e-07
-1.25917e-05
1.67698e-07
-1.25913e-05
3.25825e-08
-1.25275e-05
-1.05064e-07
-1.23994e-05
-2.4482e-07
-1.22063e-05
-3.85885e-07
-1.19481e-05
-5.2732e-07
-1.16251e-05
-6.68224e-07
-1.1238e-05
-8.0789e-07
-1.07875e-05
-9.45865e-07
-1.02745e-05
-1.08193e-06
-9.69992e-06
-1.21594e-06
-9.06469e-06
-1.34764e-06
-8.3699e-06
-1.47645e-06
-7.61708e-06
-1.60143e-06
-6.80844e-06
-1.72117e-06
-5.94703e-06
-1.83384e-06
-5.037e-06
-1.93724e-06
-4.08367e-06
-2.02895e-06
-3.09358e-06
-2.10651e-06
-2.07447e-06
-2.16754e-06
-1.03511e-06
-2.20999e-06
1.49127e-08
-2.23213e-06
1.06554e-06
-2.23304e-06
2.10656e-06
-2.21254e-06
3.12805e-06
-2.1711e-06
4.1207e-06
-2.11007e-06
5.07599e-06
-2.03103e-06
5.98646e-06
-1.93588e-06
6.8458e-06
-1.82711e-06
7.64902e-06
-1.70741e-06
8.39244e-06
-1.57959e-06
9.07357e-06
-1.44608e-06
9.69085e-06
-1.30867e-06
1.02433e-05
-1.16866e-06
1.07304e-05
-1.02703e-06
1.11517e-05
-8.84463e-07
1.15073e-05
-7.41368e-07
1.17971e-05
-5.982e-07
1.20213e-05
-4.55523e-07
1.21805e-05
-3.14037e-07
1.22756e-05
-1.74553e-07
1.2308e-05
-3.80355e-08
1.22791e-05
9.47833e-08
1.21908e-05
2.23476e-07
1.20447e-05
3.48201e-07
1.18418e-05
4.69927e-07
1.1582e-05
5.90773e-07
1.12638e-05
7.14136e-07
1.08829e-05
8.44705e-07
1.04328e-05
9.8781e-07
9.90407e-06
1.14899e-06
9.28534e-06
1.33292e-06
8.56417e-06
1.54184e-06
7.72963e-06
1.77314e-06
6.77597e-06
2.01638e-06
5.70773e-06
2.25015e-06
4.54614e-06
2.43872e-06
3.33621e-06
2.52987e-06
2.1531e-06
2.45536e-06
1.10493e-06
2.13793e-06
3.30317e-07
1.51197e-06
5.74398e-07
-4.20057e-07
1.02556e-06
-1.37287e-06
2.53812e-06
-2.63009e-06
3.49427e-06
-4.02304e-06
3.95862e-06
-5.4287e-06
4.04559e-06
-6.76388e-06
3.87672e-06
-7.97962e-06
3.55723e-06
-9.05372e-06
3.16806e-06
-9.98199e-06
2.76456e-06
-1.07721e-05
2.38088e-06
-1.14379e-05
2.03382e-06
-1.19943e-05
1.72687e-06
-1.24551e-05
1.45699e-06
-1.28321e-05
1.21782e-06
-1.3134e-05
1.00097e-06
-1.33669e-05
7.97558e-07
-1.3534e-05
6.00226e-07
-1.36364e-05
4.04135e-07
-1.36742e-05
2.06467e-07
-1.36467e-05
5.86353e-09
-1.35532e-05
-1.98035e-07
-1.3393e-05
-4.04666e-07
-1.31657e-05
-6.12889e-07
-1.28713e-05
-8.21379e-07
-1.25104e-05
-1.02888e-06
-1.20837e-05
-1.23442e-06
-1.1592e-05
-1.43746e-06
-1.1036e-05
-1.63782e-06
-1.04165e-05
-1.83551e-06
-9.73402e-06
-2.03035e-06
-8.98907e-06
-2.22173e-06
-8.18261e-06
-2.40832e-06
-7.31629e-06
-2.58803e-06
-6.39278e-06
-2.75798e-06
-5.416e-06
-2.91474e-06
-4.39132e-06
-3.0544e-06
-3.32571e-06
-3.17295e-06
-2.22754e-06
-3.26657e-06
-1.10645e-06
-3.33194e-06
2.69474e-08
-3.36639e-06
1.16144e-06
-3.36837e-06
2.2856e-06
-3.33752e-06
3.38825e-06
-3.27456e-06
4.45895e-06
-3.18158e-06
5.48831e-06
-3.06119e-06
6.46832e-06
-2.91668e-06
7.3924e-06
-2.75194e-06
8.25547e-06
-2.57117e-06
9.05397e-06
-2.37872e-06
9.78573e-06
-2.17841e-06
1.04497e-05
-1.97309e-06
1.10453e-05
-1.76477e-06
1.15727e-05
-1.55476e-06
1.20317e-05
-1.34385e-06
1.24226e-05
-1.13256e-06
1.27456e-05
-9.21391e-07
1.30008e-05
-7.1098e-07
1.31887e-05
-5.02264e-07
1.33103e-05
-2.96373e-07
1.33665e-05
-9.45976e-08
1.3359e-05
1.02021e-07
1.32893e-05
2.92909e-07
1.31588e-05
4.78406e-07
1.29683e-05
6.60205e-07
1.27171e-05
8.41755e-07
1.24026e-05
1.02848e-06
1.20195e-05
1.22769e-06
1.15595e-05
1.4478e-06
1.10111e-05
1.69738e-06
1.03604e-05
1.98362e-06
9.59262e-06
2.30974e-06
8.69436e-06
2.6715e-06
7.65803e-06
3.05282e-06
6.48719e-06
3.42111e-06
5.20332e-06
3.72272e-06
3.85344e-06
3.87991e-06
2.51734e-06
3.79165e-06
1.31292e-06
3.34251e-06
4.01175e-07
2.42433e-06
9.7672e-07
-4.50505e-07
1.47599e-06
-1.46322e-06
3.55072e-06
-2.78352e-06
4.81445e-06
-4.22824e-06
5.40342e-06
-5.66978e-06
5.48711e-06
-7.02502e-06
5.23208e-06
-8.24698e-06
4.77953e-06
-9.31602e-06
4.2373e-06
-1.023e-05
3.6789e-06
-1.09986e-05
3.15004e-06
-1.16373e-05
2.67317e-06
-1.21628e-05
2.25296e-06
-1.25901e-05
1.88499e-06
-1.29318e-05
1.56049e-06
-1.31976e-05
1.26811e-06
-1.33944e-05
9.95899e-07
-1.35261e-05
7.33651e-07
-1.35947e-05
4.74327e-07
-1.36005e-05
2.13788e-07
-1.35435e-05
-4.99362e-08
-1.34233e-05
-3.17285e-07
-1.32397e-05
-5.87534e-07
-1.2993e-05
-8.59184e-07
-1.26835e-05
-1.13053e-06
-1.23121e-05
-1.40005e-06
-1.18799e-05
-1.66662e-06
-1.13876e-05
-1.92978e-06
-1.08361e-05
-2.1896e-06
-1.02256e-05
-2.44642e-06
-9.55607e-06
-2.70044e-06
-8.82724e-06
-2.95128e-06
-8.03901e-06
-3.19741e-06
-7.19194e-06
-3.43609e-06
-6.28772e-06
-3.66332e-06
-5.32947e-06
-3.87421e-06
-4.32205e-06
-4.06313e-06
-3.27219e-06
-4.22419e-06
-2.18829e-06
-4.35191e-06
-1.08015e-06
-4.44154e-06
4.13081e-08
-4.4893e-06
1.16443e-06
-4.49294e-06
2.27732e-06
-4.45182e-06
3.36827e-06
-4.36689e-06
4.42639e-06
-4.24104e-06
5.44203e-06
-4.07817e-06
6.40722e-06
-3.8832e-06
7.31565e-06
-3.66168e-06
8.16278e-06
-3.41957e-06
8.9458e-06
-3.16295e-06
9.66336e-06
-2.89713e-06
1.03152e-05
-2.62608e-06
1.09019e-05
-2.35249e-06
1.1424e-05
-2.07787e-06
1.18822e-05
-1.80292e-06
1.22767e-05
-1.52796e-06
1.26077e-05
-1.25326e-06
1.28752e-05
-9.79399e-07
1.30795e-05
-7.07367e-07
1.32209e-05
-4.38546e-07
1.33001e-05
-1.74548e-07
1.33181e-05
8.327e-08
1.32761e-05
3.34177e-07
1.31752e-05
5.78703e-07
1.30158e-05
8.19225e-07
1.27967e-05
1.06056e-06
1.25148e-05
1.3103e-06
1.2164e-05
1.57856e-06
1.1735e-05
1.87704e-06
1.12151e-05
2.21756e-06
1.05891e-05
2.60997e-06
9.84065e-06
3.05871e-06
8.95459e-06
3.55808e-06
7.92149e-06
4.08648e-06
6.74281e-06
4.60035e-06
5.43797e-06
5.02819e-06
4.05229e-06
5.26635e-06
2.66546e-06
5.17939e-06
1.39995e-06
4.60908e-06
4.30854e-07
3.39489e-06
1.40828e-06
-4.54205e-07
1.93014e-06
-1.47072e-06
4.56735e-06
-2.78587e-06
6.12956e-06
-4.21105e-06
6.82885e-06
-5.61919e-06
6.89538e-06
-6.9305e-06
6.54367e-06
-8.1021e-06
5.95169e-06
-9.11813e-06
5.25359e-06
-9.97865e-06
4.5398e-06
-1.06946e-05
3.86657e-06
-1.12823e-05
3.26134e-06
-1.17586e-05
2.72965e-06
-1.21389e-05
2.26542e-06
-1.24356e-05
1.85734e-06
-1.26583e-05
1.49128e-06
-1.2814e-05
1.15235e-06
-1.29071e-05
8.27696e-07
-1.29399e-05
5.08143e-07
-1.29132e-05
1.88245e-07
-1.28277e-05
-1.3454e-07
-1.26837e-05
-4.60649e-07
-1.24817e-05
-7.89069e-07
-1.22227e-05
-1.11789e-06
-1.19082e-05
-1.44503e-06
-1.15395e-05
-1.76877e-06
-1.11183e-05
-2.08801e-06
-1.06457e-05
-2.4026e-06
-1.01225e-05
-2.71312e-06
-9.54873e-06
-3.02059e-06
-8.92373e-06
-3.32597e-06
-8.24614e-06
-3.6295e-06
-7.51454e-06
-3.92975e-06
-6.72804e-06
-4.22342e-06
-5.88691e-06
-4.50536e-06
-4.99314e-06
-4.76898e-06
-4.05069e-06
-5.00664e-06
-3.06567e-06
-5.21034e-06
-2.04612e-06
-5.37266e-06
-1.00167e-06
-5.48721e-06
5.67621e-08
-5.54896e-06
1.1175e-06
-5.55487e-06
2.16853e-06
-5.50399e-06
3.19805e-06
-5.39747e-06
4.19508e-06
-5.23908e-06
5.15004e-06
-5.03411e-06
6.05515e-06
-4.78927e-06
6.90477e-06
-4.51224e-06
7.69521e-06
-4.21093e-06
8.42477e-06
-3.89339e-06
9.09341e-06
-3.56661e-06
9.70224e-06
-3.23569e-06
1.02528e-05
-2.9038e-06
1.07466e-05
-2.57237e-06
1.11846e-05
-2.24163e-06
1.15674e-05
-1.91133e-06
1.18947e-05
-1.58116e-06
1.2166e-05
-1.25132e-06
1.23808e-05
-9.22714e-07
1.25386e-05
-5.969e-07
1.26393e-05
-2.75778e-07
1.26831e-05
3.89143e-08
1.26706e-05
3.46158e-07
1.26023e-05
6.46526e-07
1.24783e-05
9.42976e-07
1.22973e-05
1.24155e-06
1.20558e-05
1.5519e-06
1.17476e-05
1.887e-06
1.13633e-05
2.26176e-06
1.08899e-05
2.69137e-06
1.0312e-05
3.18833e-06
9.61276e-06
3.75848e-06
8.77641e-06
4.39494e-06
7.79221e-06
5.07121e-06
6.65943e-06
5.73365e-06
5.39438e-06
6.29379e-06
4.03873e-06
6.62266e-06
2.669e-06
6.54988e-06
1.40765e-06
5.87141e-06
4.34797e-07
4.3686e-06
1.8424e-06
-4.43433e-07
2.37348e-06
-1.43091e-06
5.55494e-06
-2.6999e-06
7.39846e-06
-4.06415e-06
8.19335e-06
-5.4019e-06
8.23316e-06
-6.6393e-06
7.78122e-06
-7.7386e-06
7.0515e-06
-8.68785e-06
6.2028e-06
-9.48857e-06
5.34054e-06
-1.01516e-05
4.52987e-06
-1.06923e-05
3.80222e-06
-1.11266e-05
3.1638e-06
-1.14685e-05
2.60676e-06
-1.17293e-05
2.11746e-06
-1.19178e-05
1.6792e-06
-1.20406e-05
1.27463e-06
-1.21019e-05
8.88619e-07
-1.2104e-05
5.10218e-07
-1.20487e-05
1.32899e-07
-1.19369e-05
-2.46229e-07
-1.17701e-05
-6.27447e-07
-1.155e-05
-1.00927e-06
-1.12788e-05
-1.38928e-06
-1.09591e-05
-1.76501e-06
-1.05936e-05
-2.13456e-06
-1.01847e-05
-2.49708e-06
-9.73462e-06
-2.85295e-06
-9.24427e-06
-3.20365e-06
-8.71369e-06
-3.55133e-06
-8.14159e-06
-3.89821e-06
-7.52556e-06
-4.24567e-06
-6.86265e-06
-4.59283e-06
-6.15024e-06
-4.93603e-06
-5.38688e-06
-5.26894e-06
-4.57309e-06
-5.583e-06
-3.71174e-06
-5.86824e-06
-2.80813e-06
-6.11423e-06
-1.86981e-06
-6.31129e-06
-9.06163e-07
-6.4512e-06
7.20199e-08
-6.5275e-06
1.05314e-06
-6.53633e-06
2.02524e-06
-6.47638e-06
2.97662e-06
-6.34909e-06
3.8964e-06
-6.15899e-06
4.77508e-06
-5.91287e-06
5.6052e-06
-5.61944e-06
6.38172e-06
-5.28879e-06
7.10208e-06
-4.93132e-06
7.76604e-06
-4.55735e-06
8.37516e-06
-4.1757e-06
8.93216e-06
-3.79263e-06
9.43995e-06
-3.41149e-06
9.90087e-06
-3.03315e-06
1.03162e-05
-2.65682e-06
1.06862e-05
-2.2811e-06
1.101e-05
-1.9047e-06
1.1286e-05
-1.52709e-06
1.15123e-05
-1.14886e-06
1.16873e-05
-7.71667e-07
1.18096e-05
-3.9778e-07
1.18781e-05
-2.94385e-08
1.18926e-05
3.31841e-07
1.18528e-05
6.86385e-07
1.17586e-05
1.03744e-06
1.16085e-05
1.39197e-06
1.13994e-05
1.76145e-06
1.11255e-05
2.16143e-06
1.07778e-05
2.60995e-06
1.03444e-05
3.12529e-06
9.8106e-06
3.72248e-06
9.16077e-06
4.40859e-06
8.37995e-06
5.17594e-06
7.45733e-06
5.99397e-06
6.39081e-06
6.80024e-06
5.19361e-06
7.49105e-06
3.90267e-06
7.91369e-06
2.58899e-06
7.86361e-06
1.37054e-06
7.0899e-06
4.24486e-07
5.31377e-06
2.26532e-06
-4.26267e-07
2.79977e-06
-1.36843e-06
6.49717e-06
-2.571e-06
8.60084e-06
-3.85627e-06
9.47885e-06
-5.11222e-06
9.48891e-06
-6.27298e-06
8.94184e-06
-7.30617e-06
8.0851e-06
-8.20279e-06
7.09906e-06
-8.96421e-06
6.10158e-06
-9.59907e-06
5.16481e-06
-1.01197e-05
4.323e-06
-1.05388e-05
3.58286e-06
-1.08679e-05
2.93541e-06
-1.11163e-05
2.36511e-06
-1.12912e-05
1.85323e-06
-1.13981e-05
1.38062e-06
-1.14407e-05
9.30443e-07
-1.14217e-05
4.9055e-07
-1.13431e-05
5.37072e-08
-1.12069e-05
-3.82847e-07
-1.10159e-05
-8.18933e-07
-1.07732e-05
-1.25238e-06
-1.04827e-05
-1.6801e-06
-1.01489e-05
-2.09914e-06
-9.77625e-06
-2.50752e-06
-9.3688e-06
-2.90472e-06
-8.92988e-06
-3.29194e-06
-8.46146e-06
-3.67203e-06
-7.9638e-06
-4.04884e-06
-7.43525e-06
-4.42653e-06
-6.87236e-06
-4.80829e-06
-6.27047e-06
-5.19441e-06
-5.62493e-06
-5.58125e-06
-4.93232e-06
-5.96122e-06
-4.19142e-06
-6.32353e-06
-3.4039e-06
-6.65538e-06
-2.57429e-06
-6.94346e-06
-1.70973e-06
-7.17548e-06
-8.19421e-07
-7.34119e-06
8.59808e-08
-7.43264e-06
9.94929e-07
-7.44507e-06
1.89557e-06
-7.37683e-06
2.77631e-06
-7.22961e-06
3.62634e-06
-7.00874e-06
4.43623e-06
-6.72241e-06
5.19877e-06
-6.38158e-06
5.9094e-06
-5.999e-06
6.56673e-06
-5.58824e-06
7.17223e-06
-5.16241e-06
7.72944e-06
-4.73246e-06
8.24301e-06
-4.30569e-06
8.71735e-06
-3.88529e-06
9.15562e-06
-3.47084e-06
9.55915e-06
-3.05972e-06
9.92738e-06
-2.64867e-06
1.02582e-05
-2.23481e-06
1.05483e-05
-1.8165e-06
1.0794e-05
-1.39383e-06
1.09917e-05
-9.68504e-07
1.1138e-05
-5.43268e-07
1.12305e-05
-1.21118e-07
1.12674e-05
2.95621e-07
1.12479e-05
7.066e-07
1.11711e-05
1.11482e-06
1.10359e-05
1.52777e-06
1.08397e-05
1.95829e-06
1.05775e-05
2.42416e-06
1.02418e-05
2.94615e-06
9.82228e-06
3.54509e-06
9.30686e-06
4.23801e-06
8.68257e-06
5.03282e-06
7.93724e-06
5.92105e-06
7.06199e-06
6.8689e-06
6.05502e-06
7.80681e-06
4.92743e-06
8.61828e-06
3.71117e-06
9.12963e-06
2.46985e-06
9.10445e-06
1.3126e-06
8.24628e-06
4.07678e-07
6.21662e-06
2.67226e-06
-4.07004e-07
3.20677e-06
-1.29718e-06
7.38719e-06
-2.42661e-06
9.72971e-06
-3.63159e-06
1.06838e-05
-4.81382e-06
1.06705e-05
-5.91688e-06
1.00443e-05
-6.91304e-06
9.08154e-06
-7.79406e-06
7.97949e-06
-8.55861e-06
6.86545e-06
-9.21021e-06
5.81643e-06
-9.75544e-06
4.86874e-06
-1.02018e-05
4.02971e-06
-1.05567e-05
3.2905e-06
-1.08262e-05
2.63479e-06
-1.10157e-05
2.04282e-06
-1.11294e-05
1.49435e-06
-1.11706e-05
9.71561e-07
-1.11418e-05
4.61683e-07
-1.10458e-05
-4.24896e-08
-1.08857e-05
-5.43129e-07
-1.06658e-05
-1.03901e-06
-1.03914e-05
-1.52693e-06
-1.00688e-05
-2.00291e-06
-9.70461e-06
-2.46345e-06
-9.3058e-06
-2.90643e-06
-8.87879e-06
-3.33176e-06
-8.42893e-06
-3.74175e-06
-7.95972e-06
-4.14109e-06
-7.47229e-06
-4.53604e-06
-6.96494e-06
-4.93357e-06
-6.43321e-06
-5.33966e-06
-5.87052e-06
-5.75671e-06
-5.26982e-06
-6.18156e-06
-4.62534e-06
-6.60531e-06
-3.93407e-06
-7.01442e-06
-3.19648e-06
-7.39255e-06
-2.41653e-06
-7.72297e-06
-1.60114e-06
-7.99045e-06
-7.59438e-07
-8.1825e-06
9.79266e-08
-8.28971e-06
9.59449e-07
-8.3064e-06
1.81329e-06
-8.23058e-06
2.6479e-06
-8.06418e-06
3.45244e-06
-7.81324e-06
4.21742e-06
-7.48731e-06
4.9356e-06
-7.09961e-06
5.60282e-06
-6.66604e-06
6.21874e-06
-6.20396e-06
6.7867e-06
-5.73016e-06
7.3127e-06
-5.25823e-06
7.80372e-06
-4.79645e-06
8.26584e-06
-4.34713e-06
8.70292e-06
-3.90761e-06
9.11594e-06
-3.47238e-06
9.50299e-06
-3.03532e-06
9.85985e-06
-2.59125e-06
1.01808e-05
-2.13703e-06
1.04595e-05
-1.67205e-06
1.06896e-05
-1.19805e-06
1.08655e-05
-7.18433e-07
1.09824e-05
-2.37278e-07
1.10369e-05
2.41802e-07
1.1027e-05
7.17203e-07
1.09514e-05
1.19098e-06
1.08092e-05
1.67048e-06
1.05984e-05
2.16938e-06
1.03156e-05
2.70725e-06
9.95484e-06
3.30698e-06
9.50871e-06
3.99116e-06
8.96878e-06
4.77775e-06
8.3268e-06
5.67449e-06
7.5758e-06
6.67167e-06
6.7116e-06
7.7327e-06
5.73539e-06
8.78268e-06
4.65811e-06
9.69534e-06
3.50747e-06
1.02801e-05
2.33838e-06
1.02732e-05
1.24716e-06
9.33651e-06
3.89223e-07
7.07332e-06
3.06246e-06
-3.86457e-07
3.59299e-06
-1.22111e-06
8.22137e-06
-2.2773e-06
1.07848e-05
-3.41138e-06
1.18177e-05
-4.54264e-06
1.18007e-05
-5.6244e-06
1.11249e-05
-6.63162e-06
1.00891e-05
-7.55311e-06
8.90049e-06
-8.38113e-06
7.69265e-06
-9.11033e-06
6.5456e-06
-9.73851e-06
5.49756e-06
-1.02657e-05
4.55766e-06
-1.06935e-05
3.71897e-06
-1.10245e-05
2.96646e-06
-1.12618e-05
2.28085e-06
-1.14085e-05
1.64176e-06
-1.14673e-05
1.0311e-06
-1.1441e-05
4.35953e-07
-1.13328e-05
-1.50176e-07
-1.11475e-05
-7.28078e-07
-1.08915e-05
-1.29478e-06
-1.05727e-05
-1.84553e-06
-1.02003e-05
-2.37527e-06
-9.78397e-06
-2.87979e-06
-9.33364e-06
-3.35675e-06
-8.85882e-06
-3.80656e-06
-8.36778e-06
-4.23277e-06
-7.86646e-06
-4.64235e-06
-7.35762e-06
-5.04479e-06
-6.83997e-06
-5.4511e-06
-6.30805e-06
-5.87145e-06
-5.75306e-06
-6.31157e-06
-5.16497e-06
-6.76954e-06
-4.53528e-06
-7.23495e-06
-3.85913e-06
-7.69055e-06
-3.13608e-06
-8.11558e-06
-2.36981e-06
-8.4892e-06
-1.56728e-06
-8.79289e-06
-7.37853e-07
-9.01183e-06
1.07752e-07
-9.13524e-06
9.58025e-07
-9.15667e-06
1.80116e-06
-9.07381e-06
2.62564e-06
-8.88884e-06
3.42043e-06
-8.60825e-06
4.17573e-06
-8.2428e-06
4.88388e-06
-7.80792e-06
5.54073e-06
-7.32299e-06
6.14677e-06
-6.81006e-06
6.70743e-06
-6.29085e-06
7.2317e-06
-5.78251e-06
7.72951e-06
-5.29425e-06
8.20894e-06
-4.82654e-06
8.67437e-06
-4.37302e-06
9.12582e-06
-3.92382e-06
9.5593e-06
-3.46879e-06
9.96766e-06
-2.99961e-06
1.03417e-05
-2.51113e-06
1.06715e-05
-2.00202e-06
1.09475e-05
-1.47408e-06
1.11608e-05
-9.31658e-07
1.13041e-05
-3.80258e-07
1.13717e-05
1.74645e-07
1.13599e-05
7.2941e-07
1.12669e-05
1.28425e-06
1.10922e-05
1.84543e-06
1.08349e-05
2.42683e-06
1.04928e-05
3.04936e-06
1.00621e-05
3.73751e-06
9.53845e-06
4.51451e-06
8.91834e-06
5.39752e-06
8.20022e-06
6.3923e-06
7.38517e-06
7.48651e-06
6.47729e-06
8.64049e-06
5.48457e-06
9.77543e-06
4.42123e-06
1.07589e-05
3.3127e-06
1.13888e-05
2.20484e-06
1.13809e-05
1.17815e-06
1.03627e-05
3.70853e-07
7.88135e-06
3.43453e-06
-3.61979e-07
3.95443e-06
-1.13449e-06
8.99327e-06
-2.1179e-06
1.17667e-05
-3.19662e-06
1.28963e-05
-4.31099e-06
1.29141e-05
-5.42271e-06
1.22356e-05
-6.50552e-06
1.11723e-05
-7.53977e-06
9.93469e-06
-8.50602e-06
8.65829e-06
-9.38582e-06
7.42528e-06
-1.01647e-05
6.27691e-06
-1.08332e-05
5.22661e-06
-1.13861e-05
4.27222e-06
-1.18221e-05
3.40271e-06
-1.21424e-05
2.60145e-06
-1.23495e-05
1.8492e-06
-1.24458e-05
1.1279e-06
-1.24341e-05
4.24791e-07
-1.23185e-05
-2.65257e-07
-1.21056e-05
-9.40588e-07
-1.18045e-05
-1.59556e-06
-1.14265e-05
-2.22337e-06
-1.09841e-05
-2.81766e-06
-1.04904e-05
-3.37345e-06
-9.95916e-06
-3.88805e-06
-9.40357e-06
-4.3622e-06
-8.8357e-06
-4.80071e-06
-8.26499e-06
-5.21315e-06
-7.69688e-06
-5.61297e-06
-7.1313e-06
-6.01677e-06
-6.56185e-06
-6.44099e-06
-5.97693e-06
-6.89661e-06
-5.36267e-06
-7.38396e-06
-4.70729e-06
-7.89055e-06
-4.00412e-06
-8.39402e-06
-3.25224e-06
-8.86777e-06
-2.45568e-06
-9.28604e-06
-1.62202e-06
-9.62678e-06
-7.61102e-07
-9.87284e-06
1.16152e-07
-1.00125e-05
9.98375e-07
-1.00388e-05
1.87399e-06
-9.94939e-06
2.7316e-06
-9.74646e-06
3.55999e-06
-9.43669e-06
4.34861e-06
-9.03148e-06
5.08876e-06
-8.5481e-06
5.77545e-06
-8.00967e-06
6.40955e-06
-7.44411e-06
6.99885e-06
-6.88006e-06
7.55617e-06
-6.33973e-06
8.09533e-06
-5.83332e-06
8.62696e-06
-5.3581e-06
9.15564e-06
-4.90167e-06
9.6796e-06
-4.44781e-06
1.01917e-05
-3.98101e-06
1.0681e-05
-3.48895e-06
1.11337e-05
-2.96412e-06
1.15355e-05
-2.40431e-06
1.18728e-05
-1.81185e-06
1.21331e-05
-1.19231e-06
1.23056e-05
-5.5295e-07
1.23819e-05
9.84019e-08
1.23564e-05
7.5511e-07
1.22267e-05
1.41427e-06
1.19926e-05
2.07981e-06
1.16545e-05
2.76509e-06
1.12116e-05
3.49227e-06
1.06618e-05
4.28723e-06
1.00036e-05
5.17251e-06
9.23901e-06
6.16194e-06
8.37496e-06
7.25628e-06
7.4237e-06
8.43788e-06
6.40197e-06
9.66252e-06
5.32967e-06
1.08481e-05
4.22934e-06
1.18595e-05
3.12813e-06
1.249e-05
2.06426e-06
1.24444e-05
1.10057e-06
1.13263e-05
3.49697e-07
8.63373e-06
3.78388e-06
-3.26715e-07
4.28041e-06
-1.02097e-06
9.68726e-06
-1.92795e-06
1.26723e-05
-2.97071e-06
1.39397e-05
-4.11252e-06
1.40554e-05
-5.3192e-06
1.34418e-05
-6.55665e-06
1.24105e-05
-7.78943e-06
1.11678e-05
-8.97955e-06
9.84834e-06
-1.00906e-05
8.53668e-06
-1.10929e-05
7.2799e-06
-1.19654e-05
6.09989e-06
-1.26961e-05
5.00339e-06
-1.32801e-05
3.98701e-06
-1.37179e-05
3.03943e-06
-1.40123e-05
2.1437e-06
-1.41658e-05
1.28161e-06
-1.41811e-05
4.40344e-07
-1.40629e-05
-3.8315e-07
-1.38199e-05
-1.18329e-06
-1.34649e-05
-1.95051e-06
-1.30128e-05
-2.67544e-06
-1.24799e-05
-3.35055e-06
-1.18834e-05
-3.97017e-06
-1.12406e-05
-4.53099e-06
-1.05693e-05
-5.03373e-06
-9.88617e-06
-5.48414e-06
-9.2053e-06
-5.89432e-06
-8.53627e-06
-6.28234e-06
-7.88138e-06
-6.67203e-06
-7.23371e-06
-7.08905e-06
-6.57785e-06
-7.5529e-06
-5.89471e-06
-8.06751e-06
-5.16843e-06
-8.61728e-06
-4.3907e-06
-9.17225e-06
-3.56109e-06
-9.6979e-06
-2.68502e-06
-1.01626e-05
-1.7715e-06
-1.05408e-05
-8.31161e-07
-1.08136e-05
1.24955e-07
-1.09688e-05
1.08591e-06
-1.09999e-05
2.04078e-06
-1.09044e-05
2.97879e-06
-1.06846e-05
3.88869e-06
-1.03467e-05
4.75877e-06
-9.90172e-06
5.5782e-06
-9.3677e-06
6.33974e-06
-8.77135e-06
7.04367e-06
-8.14816e-06
7.70043e-06
-7.53692e-06
8.32811e-06
-6.96752e-06
8.94607e-06
-6.4514e-06
9.56787e-06
-5.98003e-06
1.01977e-05
-5.53167e-06
1.08308e-05
-5.08114e-06
1.14556e-05
-4.60611e-06
1.20561e-05
-4.08967e-06
1.26135e-05
-3.5218e-06
1.31083e-05
-2.89951e-06
1.35223e-05
-2.2263e-06
1.38389e-05
-1.50942e-06
1.40436e-05
-7.57992e-07
1.41244e-05
1.75608e-08
1.4073e-05
8.06561e-07
1.38865e-05
1.60112e-06
1.35657e-05
2.40098e-06
1.31129e-05
3.21825e-06
1.25283e-05
4.07716e-06
1.18102e-05
5.00562e-06
1.09589e-05
6.02416e-06
9.98148e-06
7.13972e-06
8.89474e-06
8.34351e-06
7.72512e-06
9.60816e-06
6.50682e-06
1.08816e-05
5.27794e-06
1.20777e-05
4.07639e-06
1.30613e-05
2.93787e-06
1.36283e-05
1.89745e-06
1.34846e-05
9.99418e-07
1.22251e-05
3.17593e-07
9.31609e-06
4.10066e-06
-2.67755e-07
4.54746e-06
-8.5143e-07
1.02716e-05
-1.67161e-06
1.34913e-05
-2.70267e-06
1.49722e-05
-3.92836e-06
1.52807e-05
-5.30887e-06
1.4823e-05
-6.7922e-06
1.38949e-05
-8.31828e-06
1.26942e-05
-9.82338e-06
1.13536e-05
-1.12481e-05
9.96209e-06
-1.2545e-05
8.57795e-06
-1.36812e-05
7.23739e-06
-1.4638e-05
5.96141e-06
-1.54088e-05
4.75878e-06
-1.59952e-05
3.62669e-06
-1.64021e-05
2.55117e-06
-1.66323e-05
1.51244e-06
-1.66877e-05
4.96265e-07
-1.65729e-05
-4.97357e-07
-1.62992e-05
-1.45653e-06
-1.58834e-05
-2.36594e-06
-1.53453e-05
-3.21332e-06
-1.4705e-05
-3.99071e-06
-1.39831e-05
-4.69222e-06
-1.32007e-05
-5.31356e-06
-1.23801e-05
-5.85466e-06
-1.15432e-05
-6.32138e-06
-1.07104e-05
-6.72761e-06
-9.89708e-06
-7.0962e-06
-9.10978e-06
-7.45991e-06
-8.34178e-06
-7.85765e-06
-7.57266e-06
-8.32262e-06
-6.77585e-06
-8.86489e-06
-5.93013e-06
-9.46352e-06
-5.02642e-06
-1.00765e-05
-4.06656e-06
-1.06584e-05
-3.05885e-06
-1.1171e-05
-2.01466e-06
-1.15858e-05
-9.45786e-07
-1.18833e-05
1.37023e-07
-1.20526e-05
1.2238e-06
-1.20876e-05
2.30506e-06
-1.19865e-05
3.37157e-06
-1.1752e-05
4.41271e-06
-1.13887e-05
5.41525e-06
-1.09051e-05
6.36484e-06
-1.03181e-05
7.2496e-06
-9.65692e-06
8.06721e-06
-8.96658e-06
8.83108e-06
-8.30161e-06
9.56683e-06
-7.70409e-06
1.03017e-05
-7.18709e-06
1.10527e-05
-6.73179e-06
1.18223e-05
-6.30203e-06
1.26009e-05
-5.86056e-06
1.33713e-05
-5.37715e-06
1.41113e-05
-4.83013e-06
1.47963e-05
-4.20714e-06
1.54016e-05
-3.50504e-06
1.59044e-05
-2.72933e-06
1.62843e-05
-1.88958e-06
1.65224e-05
-9.96376e-07
1.66023e-05
-6.24513e-08
1.65125e-05
8.96454e-07
1.62489e-05
1.8648e-06
1.5815e-05
2.83513e-06
1.52162e-05
3.81741e-06
1.44533e-05
4.84037e-06
1.35227e-05
5.93673e-06
1.24234e-05
7.12397e-06
1.11665e-05
8.39721e-06
9.77917e-06
9.73168e-06
8.30427e-06
1.1084e-05
6.79814e-06
1.23887e-05
5.32404e-06
1.35525e-05
3.94414e-06
1.44415e-05
2.71284e-06
1.48596e-05
1.67163e-06
1.45262e-05
8.47288e-07
1.30506e-05
2.6215e-07
9.90062e-06
4.36364e-06
-1.62846e-07
4.70985e-06
-5.81222e-07
1.06915e-05
-1.29947e-06
1.42087e-05
-2.35388e-06
1.60289e-05
-3.73651e-06
1.6662e-05
-5.38381e-06
1.64711e-05
-7.21192e-06
1.57239e-05
-9.12751e-06
1.46094e-05
-1.10351e-05
1.32602e-05
-1.28485e-05
1.17749e-05
-1.45017e-05
1.0231e-05
-1.59509e-05
8.68653e-06
-1.71724e-05
7.183e-06
-1.81602e-05
5.74658e-06
-1.89203e-05
4.38679e-06
-1.9462e-05
3.09273e-06
-1.97887e-05
1.83907e-06
-1.98992e-05
6.0671e-07
-1.97968e-05
-5.99764e-07
-1.94953e-05
-1.75799e-06
-1.90173e-05
-2.84401e-06
-1.83878e-05
-3.84283e-06
-1.76306e-05
-4.74807e-06
-1.67681e-05
-5.55484e-06
-1.58248e-05
-6.25712e-06
-1.48267e-05
-6.85296e-06
-1.38014e-05
-7.34691e-06
-1.27764e-05
-7.75291e-06
-1.17753e-05
-8.09743e-06
-1.08121e-05
-8.4232e-06
-9.88197e-06
-8.78779e-06
-8.95773e-06
-9.24679e-06
-8.00167e-06
-9.82078e-06
-6.98576e-06
-1.04792e-05
-5.90202e-06
-1.11601e-05
-4.75777e-06
-1.18025e-05
-3.56619e-06
-1.23627e-05
-2.34189e-06
-1.28104e-05
-1.098e-06
-1.31276e-05
1.55902e-07
-1.33069e-05
1.41189e-06
-1.3344e-05
2.66288e-06
-1.32378e-05
3.90291e-06
-1.29924e-05
5.1234e-06
-1.26096e-05
6.30966e-06
-1.20917e-05
7.44235e-06
-1.14512e-05
8.50102e-06
-1.07159e-05
9.47694e-06
-9.94286e-06
1.03867e-05
-9.2117e-06
1.12667e-05
-8.58449e-06
1.21556e-05
-8.07644e-06
1.30744e-05
-7.65088e-06
1.40213e-05
-7.2491e-06
1.49789e-05
-6.81842e-06
1.59228e-05
-6.32113e-06
1.68244e-05
-5.73161e-06
1.76531e-05
-5.03556e-06
1.83789e-05
-4.23041e-06
1.89755e-05
-3.32555e-06
1.94198e-05
-2.3336e-06
1.96889e-05
-1.26521e-06
1.97605e-05
-1.33774e-07
1.96182e-05
1.03903e-06
1.92572e-05
2.22599e-06
1.86852e-05
3.40719e-06
1.79139e-05
4.58872e-06
1.69448e-05
5.80944e-06
1.57678e-05
7.11366e-06
1.43765e-05
8.51532e-06
1.27831e-05
9.99066e-06
1.10243e-05
1.14906e-05
9.16067e-06
1.29475e-05
7.27403e-06
1.42751e-05
5.45911e-06
1.53669e-05
3.81152e-06
1.60882e-05
2.41762e-06
1.62527e-05
1.34152e-06
1.56024e-05
6.01896e-07
1.37898e-05
1.64786e-07
1.03367e-05
4.52896e-06
2.49049e-08
4.68473e-06
-1.49057e-07
1.08673e-05
-7.57554e-07
1.48154e-05
-1.89364e-06
1.71676e-05
-3.52816e-06
1.82943e-05
-5.54595e-06
1.84888e-05
-7.8155e-06
1.7994e-05
-1.02049e-05
1.69981e-05
-1.25843e-05
1.56382e-05
-1.48405e-05
1.40297e-05
-1.68909e-05
1.228e-05
-1.86836e-05
1.0478e-05
-2.01926e-05
8.69083e-06
-2.14148e-05
6.9677e-06
-2.23649e-05
5.33574e-06
-2.306e-05
3.78686e-06
-2.35038e-05
2.28195e-06
-2.36878e-05
7.89801e-07
-2.3611e-05
-6.77281e-07
-2.32906e-05
-2.07899e-06
-2.27569e-05
-3.37833e-06
-2.20414e-05
-4.55871e-06
-2.11699e-05
-5.6199e-06
-2.01645e-05
-6.56047e-06
-1.90509e-05
-7.3708e-06
-1.78579e-05
-8.04596e-06
-1.66175e-05
-8.5871e-06
-1.53646e-05
-9.00547e-06
-1.4134e-05
-9.32759e-06
-1.29519e-05
-9.60461e-06
-1.18192e-05
-9.91972e-06
-1.06998e-05
-1.03655e-05
-9.5393e-06
-1.09805e-05
-8.30092e-06
-1.17169e-05
-6.98214e-06
-1.24782e-05
-5.60104e-06
-1.31829e-05
-4.17784e-06
-1.37852e-05
-2.73072e-06
-1.42568e-05
-1.27391e-06
-1.45838e-05
1.86073e-07
-1.47662e-05
1.64496e-06
-1.48021e-05
3.09889e-06
-1.4691e-05
4.54802e-06
-1.44406e-05
5.98881e-06
-1.40495e-05
7.40588e-06
-1.35079e-05
8.77417e-06
-1.28185e-05
1.00588e-05
-1.19997e-05
1.12373e-05
-1.11204e-05
1.23293e-05
-1.03028e-05
1.33871e-05
-9.64137e-06
1.44663e-05
-9.15468e-06
1.55907e-05
-8.77427e-06
1.67495e-05
-8.40663e-06
1.79131e-05
-7.98111e-06
1.90492e-05
-7.45615e-06
2.01233e-05
-6.80479e-06
2.10997e-05
-6.01107e-06
2.19436e-05
-5.07325e-06