/*--------------------------------*- C++ -*----------------------------------*\
| =========                 |                                                 |
| \\      /  F ield         | OpenFOAM: The Open Source CFD Toolbox           |
|  \\    /   O peration     | Version:  2412                                  |
|   \\  /    A nd           | Website:  www.openfoam.com                      |
|    \\/     M anipulation  |                                                 |
\*---------------------------------------------------------------------------*/
FoamFile
{
    version     2.0;
    format      ascii;
    arch        "LSB;label=32;scalar=64";
    class       surfaceScalarField;
    location    "5.2";
    object      phi;
}
// * * * * * * * * * * * * * * * * * * * * * * * * * * * * * * * * * * * * * //

dimensions      [0 3 -1 0 0 0 0];

oriented        oriented;

internalField   nonuniform List<scalar> 
12640
(
4.31317e-06
-4.31317e-06
1.41187e-05
-9.80877e-06
2.52439e-05
-1.11279e-05
3.68008e-05
-1.15594e-05
4.82123e-05
-1.14139e-05
5.89895e-05
-1.07792e-05
6.88075e-05
-9.81989e-06
7.74834e-05
-8.6775e-06
8.49116e-05
-7.42956e-06
9.10154e-05
-6.10494e-06
9.57334e-05
-4.71898e-06
9.90098e-05
-3.27738e-06
0.000100775
-1.76629e-06
0.000100979
-2.04175e-07
9.95308e-05
1.44704e-06
9.64939e-05
3.03591e-06
9.18877e-05
4.60546e-06
8.57611e-05
6.12648e-06
7.82107e-05
7.55047e-06
6.93892e-05
8.8218e-06
5.95005e-05
9.88926e-06
4.87842e-05
1.07173e-05
3.75256e-05
1.126e-05
2.60435e-05
1.14835e-05
1.4688e-05
1.1357e-05
3.81464e-06
1.08749e-05
-6.22378e-06
1.00401e-05
-1.5121e-05
8.89872e-06
-2.25878e-05
7.46762e-06
-2.83894e-05
5.80156e-06
-3.22903e-05
3.90019e-06
-3.41235e-05
1.83221e-06
-3.39432e-05
-1.81344e-07
-3.16467e-05
-2.29769e-06
-2.74433e-05
-4.20465e-06
-2.15219e-05
-5.92266e-06
-1.4192e-05
-7.3314e-06
-5.79331e-06
-8.40047e-06
3.28852e-06
-9.0841e-06
1.26264e-05
-9.34062e-06
2.18109e-05
-9.18694e-06
3.04173e-05
-8.60784e-06
3.80397e-05
-7.62301e-06
4.42835e-05
-6.24459e-06
4.88689e-05
-4.58694e-06
5.15458e-05
-2.67891e-06
5.20757e-05
-5.31786e-07
5.04616e-05
1.61329e-06
4.66971e-05
3.76512e-06
4.08012e-05
5.89785e-06
3.30129e-05
7.7909e-06
2.35647e-05
9.45115e-06
1.27831e-05
1.07848e-05
9.85325e-07
1.1801e-05
-1.15103e-05
1.24982e-05
-2.43306e-05
1.28217e-05
-3.71004e-05
1.27705e-05
-4.94554e-05
1.23562e-05
-6.1077e-05
1.16238e-05
-7.16703e-05
1.05956e-05
-8.10075e-05
9.33799e-06
-8.88916e-05
7.88362e-06
-9.51909e-05
6.29847e-06
-9.98225e-05
4.63128e-06
-0.00010275
2.92736e-06
-0.000103979
1.22913e-06
-0.000103531
-4.47726e-07
-0.000101467
-2.06565e-06
-9.78664e-05
-3.60389e-06
-9.28169e-05
-5.05369e-06
-8.64002e-05
-6.42141e-06
-7.86803e-05
-7.72505e-06
-6.97459e-05
-8.93953e-06
-5.97062e-05
-1.00444e-05
-4.87444e-05
-1.0966e-05
-3.71783e-05
-1.15699e-05
-2.54942e-05
-1.16871e-05
-1.426e-05
-1.12354e-05
-4.32465e-06
-9.93471e-06
-4.32335e-06
8.93512e-06
-1.3252e-05
2.61605e-05
-2.70393e-05
4.52669e-05
-3.02386e-05
6.50005e-05
-3.12969e-05
8.44306e-05
-3.08475e-05
0.00010272
-2.90719e-05
0.000119312
-2.64147e-05
0.000133907
-2.32743e-05
0.000146356
-1.98809e-05
0.000156588
-1.63389e-05
0.000164557
-1.26895e-05
0.000170242
-8.96466e-06
0.000173634
-5.15924e-06
0.000174699
-1.27113e-06
0.000173478
2.66711e-06
0.00016995
6.56275e-06
0.000164186
1.03687e-05
0.000156288
1.4025e-05
0.000146409
1.74297e-05
0.000134766
2.04657e-05
0.000121636
2.30217e-05
0.000107336
2.50189e-05
9.22268e-05
2.6372e-05
7.67142e-05
2.69986e-05
6.12113e-05
2.68622e-05
4.61549e-05
2.59331e-05
3.1962e-05
2.42339e-05
1.90583e-05
2.18027e-05
7.80881e-06
1.87167e-05
-1.47134e-06
1.5081e-05
-8.64473e-06
1.10727e-05
-1.37477e-05
6.9341e-06
-1.64186e-05
2.48839e-06
-1.68371e-05
-1.88054e-06
-1.5132e-05
-5.91144e-06
-1.14603e-05
-9.59625e-06
-6.19855e-06
-1.2595e-05
2.99233e-07
-1.48998e-05
7.59794e-06
-1.63837e-05
1.52781e-05
-1.70212e-05
2.28582e-05
-1.67675e-05
2.98559e-05
-1.56061e-05
3.57977e-05
-1.35654e-05
4.03234e-05
-1.07705e-05
4.30332e-05
-7.2961e-06
4.3678e-05
-3.32211e-06
4.20465e-05
1.10242e-06
3.7973e-05
5.68997e-06
3.15004e-05
1.02409e-05
2.28101e-05
1.45911e-05
1.18499e-05
1.87536e-05
-9.45907e-07
2.22488e-05
-1.53664e-05
2.52066e-05
-3.10557e-05
2.74914e-05
-4.75749e-05
2.90193e-05
-6.44849e-05
2.97341e-05
-8.13442e-05
2.96318e-05
-9.77341e-05
2.87468e-05
-0.000113236
2.71251e-05
-0.000127485
2.48437e-05
-0.000140143
2.19964e-05
-0.000150952
1.86918e-05
-0.000159696
1.5043e-05
-0.000166211
1.11454e-05
-0.0001704
7.11434e-06
-0.000172203
3.02937e-06
-0.000171607
-1.04788e-06
-0.000168657
-5.01952e-06
-0.000163359
-8.90622e-06
-0.000155725
-1.26925e-05
-0.00014577
-1.63796e-05
-0.000133538
-1.99607e-05
-0.000119106
-2.33737e-05
-0.000102638
-2.65145e-05
-8.4438e-05
-2.91686e-05
-6.50702e-05
-3.09392e-05
-4.53735e-05
-3.13842e-05
-2.62671e-05
-3.03413e-05
-8.9413e-06
-2.72597e-05
-1.32683e-05
1.00528e-05
-2.33075e-05
2.93561e-05
-4.63464e-05
5.1128e-05
-5.20137e-05
7.37621e-05
-5.39341e-05
9.60739e-05
-5.31621e-05
0.000117058
-5.00584e-05
0.000136079
-4.54385e-05
0.00015282
-4.0017e-05
0.000167141
-3.42034e-05
0.000178997
-2.8197e-05
0.000188372
-2.20659e-05
0.000195239
-1.58333e-05
0.000199592
-9.51353e-06
0.000201455
-3.13527e-06
0.000200797
3.32395e-06
0.000197654
9.70455e-06
0.000192102
1.59206e-05
0.000184228
2.18983e-05
0.000174187
2.7472e-05
0.000162182
3.2471e-05
0.000148495
3.67095e-05
0.00013343
4.00844e-05
0.000117367
4.24361e-05
0.000100711
4.36537e-05
8.39193e-05
4.36537e-05
6.74492e-05
4.24024e-05
5.17566e-05
3.99259e-05
3.72574e-05
3.6302e-05
2.43345e-05
3.16405e-05
1.33086e-05
2.61084e-05
4.45748e-06
1.99257e-05
-1.94129e-06
1.33351e-05
-6.19224e-06
6.74205e-06
-8.02504e-06
-4.44423e-08
-7.58208e-06
-6.35043e-06
-5.19408e-06
-1.19795e-05
-1.04226e-06
-1.67413e-05
4.31583e-06
-2.0252e-05
1.06068e-05
-2.26692e-05
1.72989e-05
-2.37086e-05
2.38852e-05
-2.33499e-05
2.98848e-05
-2.16012e-05
3.4836e-05
-1.85112e-05
3.82959e-05
-1.42243e-05
3.98804e-05
-8.87513e-06
3.92563e-05
-2.69453e-06
3.63059e-05
4.0538e-06
3.09356e-05
1.10587e-05
2.30864e-05
1.80866e-05
1.27529e-05
2.49201e-05
2.88746e-07
3.12129e-05
-1.4136e-05
3.66691e-05
-3.01684e-05
4.12358e-05
-4.74136e-05
4.47346e-05
-6.54226e-05
4.70268e-05
-8.37284e-05
4.80382e-05
-0.000101874
4.77749e-05
-0.000119402
4.62722e-05
-0.000135884
4.36069e-05
-0.000150943
3.99036e-05
-0.000164237
3.52914e-05
-0.000175501
2.99556e-05
-0.00018454
2.40814e-05
-0.000191162
1.77666e-05
-0.000195298
1.12506e-05
-0.000196846
4.5797e-06
-0.000195772
-2.1184e-06
-0.000192128
-8.65753e-06
-0.000185896
-1.51308e-05
-0.000177062
-2.15178e-05
-0.000165652
-2.7782e-05
-0.000151693
-3.39126e-05
-0.000135244
-3.98183e-05
-0.000116456
-4.52991e-05
-9.56592e-05
-4.99653e-05
-7.34954e-05
-5.3104e-05
-5.09836e-05
-5.3898e-05
-2.92809e-05
-5.20468e-05
-9.96129e-06
-4.65847e-05
-2.32323e-05
1.06924e-05
-3.40021e-05
3.17076e-05
-6.73646e-05
5.56819e-05
-7.59906e-05
8.06206e-05
-7.88751e-05
0.000105115
-7.7659e-05
0.000128049
-7.29941e-05
0.000148766
-6.61581e-05
0.000166972
-5.8225e-05
0.000182589
-4.98219e-05
0.000195607
-4.12168e-05
0.000206037
-3.24965e-05
0.000213881
-2.36793e-05
0.000219114
-1.47478e-05
0.000221698
-5.72039e-06
0.000221632
3.39028e-06
0.00021891
1.24255e-05
0.000213577
2.12537e-05
0.000205726
2.97487e-05
0.000195493
3.77051e-05
0.000183088
4.48747e-05
0.000168741
5.10555e-05
0.000152805
5.60182e-05
0.000135662
5.95781e-05
0.000117766
6.15476e-05
9.9612e-05
6.18062e-05
8.16986e-05
6.03148e-05
6.4518e-05
5.71063e-05
4.85196e-05
5.23015e-05
3.41226e-05
4.604e-05
2.16928e-05
3.85422e-05
1.15298e-05
3.00937e-05
3.82376e-06
2.1047e-05
-1.18514e-06
1.17573e-05
-3.88201e-06
2.65883e-06
-4.22141e-06
-6.00506e-06
-2.33981e-06
-1.38559e-05
1.26438e-06
-2.03407e-05
6.35156e-06
-2.53344e-05
1.23919e-05
-2.87048e-05
1.88296e-05
-3.01422e-05
2.51718e-05
-2.96894e-05
3.08845e-05
-2.73128e-05
3.54824e-05
-2.31089e-05
3.84743e-05
-1.72169e-05
3.94991e-05
-9.90144e-06
3.8204e-05
-1.4018e-06
3.43678e-05
7.88684e-06
2.7873e-05
1.75499e-05
1.87225e-05
2.72331e-05
7.1151e-06
3.65236e-05
-6.83004e-06
4.51543e-05
-2.28672e-05
5.27024e-05
-4.05694e-05
5.89343e-05
-5.94862e-05
6.3649e-05
-7.91397e-05
6.66802e-05
-9.90063e-05
6.79068e-05
-0.000118573
6.73437e-05
-0.000137345
6.50469e-05
-0.000154868
6.1132e-05
-0.000170747
5.57851e-05
-0.000184629
4.91767e-05
-0.000196244
4.15752e-05
-0.000205397
3.32386e-05
-0.000211929
2.43042e-05
-0.000215764
1.50899e-05
-0.000216837
5.65724e-06
-0.000215119
-3.83134e-06
-0.000210671
-1.30999e-05
-0.000203504
-2.22929e-05
-0.000193637
-3.13803e-05
-0.000181082
-4.03345e-05
-0.000165846
-4.91485e-05
-0.000147938
-5.77271e-05
-0.000127446
-6.57934e-05
-0.000104678
-7.27355e-05
-8.03158e-05
-7.74684e-05
-5.54768e-05
-7.8739e-05
-3.15442e-05
-7.59823e-05
-1.0503e-05
-6.76294e-05
-3.37347e-05
1.11711e-05
-4.51749e-05
3.39318e-05
-9.01275e-05
6.01428e-05
-0.000102203
8.73307e-05
-0.000106065
0.00011382
-0.00010415
0.000138383
-9.75583e-05
0.000160368
-8.81444e-05
0.000179577
-7.74358e-05
0.00019603
-6.62768e-05
0.000209813
-5.50009e-05
0.000220964
-4.36483e-05
0.000229482
-3.21988e-05
0.000235334
-2.06e-05
0.00023848
-8.86743e-06
0.000238861
3.00927e-06
0.000236404
1.48823e-05
0.000231145
2.65128e-05
0.000223114
3.7779e-05
0.000212472
4.83473e-05
0.000199362
5.79835e-05
0.000184065
6.63508e-05
0.000166921
7.31612e-05
0.000148366
7.81318e-05
0.000128891
8.10214e-05
0.000109032
8.16658e-05
8.93678e-05
7.99795e-05
7.04412e-05
7.60343e-05
5.27916e-05
6.99532e-05
3.68831e-05
6.19511e-05
2.31332e-05
5.22947e-05
1.18647e-05
4.13646e-05
3.30894e-06
2.96047e-05
-2.31629e-06
1.73837e-05
-5.24858e-06
5.59157e-06
-5.54084e-06
-5.71309e-06
-3.57441e-06
-1.58233e-05
4.13452e-07
-2.43301e-05
6.01549e-06
-3.09379e-05
1.26814e-05
-3.53717e-05
1.98283e-05
-3.72904e-05
2.68645e-05
-3.67281e-05
3.31902e-05
-3.36423e-05
3.83253e-05
-2.82482e-05
4.16847e-05
-2.05803e-05
4.28268e-05
-1.1047e-05
4.14124e-05
1.00936e-08
3.72189e-05
1.2079e-05
3.00396e-05
2.47289e-05
2.00258e-05
3.72474e-05
7.13414e-06
4.94167e-05
-8.24779e-06
6.05385e-05
-2.59604e-05
7.04176e-05
-4.54954e-05
7.84714e-05
-6.63466e-05
8.4502e-05
-8.79225e-05
8.82583e-05
-0.00010967
8.9658e-05
-0.000130986
8.86626e-05
-0.000151317
8.53816e-05
-0.000170174
7.99904e-05
-0.000187102
7.27151e-05
-0.000201767
6.38454e-05
-0.000213881
5.36916e-05
-0.00022326
4.26206e-05
-0.000229775
3.08221e-05
-0.000233346
1.86616e-05
-0.000234004
6.31376e-06
-0.000231702
-6.13608e-06
-0.000226588
-1.82185e-05
-0.000218713
-3.01742e-05
-0.000208104
-4.19956e-05
-0.000194774
-5.36721e-05
-0.00017868
-6.52493e-05
-0.000159741
-7.6673e-05
-0.000137936
-8.7604e-05
-0.000113488
-9.71859e-05
-8.70657e-05
-0.00010389
-5.99051e-05
-0.000105899
-3.36702e-05
-0.000102217
-1.08484e-05
-9.04488e-05
-4.45808e-05
1.1592e-05
-5.67682e-05
3.64042e-05
-0.000114941
6.52541e-05
-0.000131054
9.50039e-05
-0.000135815
0.000123591
-0.000132738
0.000149639
-0.000123607
0.000172587
-0.000111094
0.00019241
-9.726e-05
0.00020931
-8.31773e-05
0.000223489
-6.91819e-05
0.000235061
-5.52209e-05
0.00024401
-4.11485e-05
0.000250284
-2.68739e-05
0.000253789
-1.23726e-05
0.000254397
2.4009e-06
0.000252024
1.72566e-05
0.000246603
3.19346e-05
0.00023816
4.62224e-05
0.000226772
5.97361e-05
0.000212617
7.2139e-05
0.000195958
8.30107e-05
0.000177172
9.1947e-05
0.000156719
9.85856e-05
0.000135138
0.000102604
0.000113053
0.000103752
9.11238e-05
0.000101911
7.00395e-05
9.71197e-05
5.04091e-05
8.95834e-05
3.27841e-05
7.95745e-05
1.76466e-05
6.74293e-05
5.37822e-06
5.3629e-05
-3.56034e-06
3.85387e-05
-9.57119e-06
2.339e-05
-1.22941e-05
8.31038e-06
-1.20463e-05
-5.96452e-06
-9.07382e-06
-1.87992e-05
-3.75254e-06
-2.96545e-05
3.26403e-06
-3.79568e-05
1.16824e-05
-4.37909e-05
2.05743e-05
-4.61818e-05
2.93732e-05
-4.55262e-05
3.74135e-05
-4.16818e-05
4.40143e-05
-3.48482e-05
4.85477e-05
-2.51127e-05
5.0685e-05
-1.3183e-05
4.97712e-05
9.25894e-07
4.56538e-05
1.61993e-05
3.82396e-05
3.21467e-05
2.74287e-05
4.80627e-05
1.34763e-05
6.33739e-05
-3.45917e-06
7.7479e-05
-2.30822e-05
9.00454e-05
-4.47724e-05
0.000100165
-6.79294e-05
0.00010766
-9.19112e-05
0.00011224
-0.000116003
0.000113749
-0.000139544
0.000112204
-0.000161897
0.000107733
-0.000182505
0.000100597
-0.000200888
9.10953e-05
-0.00021666
7.9614e-05
-0.000229546
6.65735e-05
-0.000239354
5.2426e-05
-0.000246027
3.74922e-05
-0.000249503
2.21339e-05
-0.000249851
6.65684e-06
-0.000247162
-8.83148e-06
-0.000241561
-2.3826e-05
-0.000233205
-3.8536e-05
-0.000222143
-5.30637e-05
-0.000208395
-6.74247e-05
-0.000191835
-8.18132e-05
-0.000172247
-9.62635e-05
-0.000149422
-0.000110429
-0.000123397
-0.00012321
-9.47781e-05
-0.000132508
-6.49626e-05
-0.000135713
-3.59942e-05
-0.000131184
-1.1094e-05
-0.000115346
-5.56744e-05
1.20269e-05
-6.87958e-05
3.95572e-05
-0.000142471
7.19529e-05
-0.00016345
0.00010496
-0.000168822
0.000135945
-0.000163723
0.000163419
-0.000151082
0.000187022
-0.000134697
0.000207067
-0.000117306
0.000224052
-0.000100163
0.000238358
-8.3489e-05
0.000250156
-6.70195e-05
0.000259433
-5.04255e-05
0.000266057
-3.34975e-05
0.000269876
-1.61908e-05
0.000270691
1.58619e-06
0.000268275
1.96732e-05
0.000262559
3.76515e-05
0.000253514
5.52673e-05
0.000241129
7.21218e-05
0.000225585
8.76839e-05
0.000207128
0.000101468
0.000186163
0.000112913
0.000163195
0.000121554
0.000138852
0.000126948
0.000113872
0.000128733
8.90505e-05
0.000126731
6.5205e-05
0.000120963
4.30841e-05
0.000111702
2.33513e-05
9.93038e-05
6.62077e-06
8.41563e-05
-6.51828e-06
6.67647e-05
-1.63471e-05
4.8365e-05
-2.22625e-05
2.93042e-05
-2.44477e-05
1.0496e-05
-2.29689e-05
-7.44149e-06
-1.82874e-05
-2.34783e-05
-1.09875e-05
-3.6952e-05
-1.41969e-06
-4.75221e-05
9.50566e-06
-5.47127e-05
2.11761e-05
-5.78474e-05
3.27653e-05
-5.71101e-05
4.34335e-05
-5.23444e-05
5.24451e-05
-4.38543e-05
5.9132e-05
-3.17943e-05
6.27374e-05
-1.67836e-05
6.29844e-05
6.82987e-07
5.93676e-05
1.98197e-05
5.18407e-05
3.96765e-05
4.03269e-05
5.95785e-05
2.50677e-05
7.86345e-05
6.11624e-06
9.64314e-05
-1.55868e-05
0.00011175
-3.98998e-05
0.000124479
-6.59456e-05
0.000133705
-9.29372e-05
0.000139229
-0.000120027
0.000140836
-0.000146424
0.000138599
-0.000171392
0.000132698
-0.000194273
0.000123475
-0.00021454
0.000111359
-0.000231778
9.68488e-05
-0.000245704
8.04963e-05
-0.000256139
6.28578e-05
-0.000263067
4.44194e-05
-0.000266539
2.56054e-05
-0.000266596
6.71495e-06
-0.000263496
-1.19304e-05
-0.000257465
-2.98551e-05
-0.000248726
-4.72712e-05
-0.000237431
-6.43541e-05
-0.000223553
-8.12974e-05
-0.000206894
-9.8467e-05
-0.00018703
-0.000116122
-0.000163451
-0.000134005
-0.000135863
-0.000150796
-0.000104706
-0.000163666
-7.1523e-05
-0.000168898
-3.894e-05
-0.000163768
-1.13084e-05
-0.00014298
-6.69857e-05
1.2536e-05
-8.13319e-05
4.40527e-05
-0.000173988
8.15741e-05
-0.000200971
0.000118911
-0.00020616
0.000152574
-0.000197386
0.000181143
-0.000179651
0.000204789
-0.000158343
0.000224454
-0.000136972
0.000241087
-0.000116797
0.000255282
-9.76848e-05
0.000267243
-7.898e-05
0.000276891
-6.00734e-05
0.000283951
-4.05577e-05
0.000288222
-2.04609e-05
0.000289322
4.86182e-07
0.000286961
2.20336e-05
0.000280923
4.36889e-05
0.000271171
6.50181e-05
0.000257604
8.56882e-05
0.000240354
0.000104933
0.000219671
0.000122151
0.000195953
0.00013663
0.0001698
0.000147706
0.000141951
0.000154795
0.000113292
0.000157389
8.4792e-05
0.000155229
5.74516e-05
0.000148301
3.21798e-05
0.000136972
9.7789e-06
0.000121704
-8.77319e-06
0.000102709
-2.35718e-05
8.15659e-05
-3.38911e-05
5.86879e-05
-3.96165e-05
3.50338e-05
-4.08999e-05
1.17844e-05
-3.7806e-05
-1.053e-05
-3.09672e-05
-3.03122e-05
-2.08024e-05
-4.71131e-05
-8.10299e-06
-6.02191e-05
6.33559e-06
-6.91493e-05
2.17467e-05
-7.32561e-05
3.70762e-05
-7.24372e-05
5.13071e-05
-6.65727e-05
6.3523e-05
-5.60674e-05
7.28846e-05
-4.1153e-05
7.87963e-05
-2.26931e-05
8.06332e-05
-1.15241e-06
7.78318e-05
2.26215e-05
7.03095e-05
4.71981e-05
5.8084e-05
7.18018e-05
4.10896e-05
9.56256e-05
2.01157e-05
0.000117401
-4.518e-06
0.000136381
-3.21955e-05
0.000152155
-6.19079e-05
0.000163415
-9.26722e-05
0.000169991
-0.000123555
0.000171717
-0.000153554
0.000168598
-0.000181799
0.000160943
-0.000207523
0.0001492
-0.000230113
0.000133951
-0.000249138
0.000115874
-0.000264314
9.56729e-05
-0.000275492
7.40361e-05
-0.00028268
5.16101e-05
-0.000285998
2.89266e-05
-0.000285687
6.40884e-06
-0.00028205
-1.55624e-05
-0.000275433
-3.64668e-05
-0.000266289
-5.64091e-05
-0.00025483
-7.58071e-05
-0.000241081
-9.50397e-05
-0.000224778
-0.000114764
-0.000205217
-0.000135679
-0.000181429
-0.000157789
-0.000152519
-0.000179705
-0.000118438
-0.000197749
-8.07775e-05
-0.000206559
-4.30503e-05
-0.000201496
-1.15014e-05
-0.000174533
-7.84897e-05
1.34691e-05
-9.48007e-05
5.15632e-05
-0.000212081
9.71438e-05
-0.000246551
0.00014024
-0.000249256
0.000176276
-0.000233422
0.000204619
-0.000207994
0.000226848
-0.000180573
0.000245004
-0.000155127
0.000260616
-0.00013241
0.000274438
-0.000111507
0.000286579
-9.11211e-05
0.000296765
-7.02593e-05
0.000304605
-4.83985e-05
0.000309512
-2.53677e-05
0.000311197
-1.19923e-06
0.000309026
2.42034e-05
0.000302861
4.98534e-05
0.000292386
7.54935e-05
0.000277509
0.000100565
0.00025831
0.000124132
0.000234963
0.000145497
0.000207893
0.0001637
0.000177804
0.000177794
0.000145597
0.000187002
0.000112341
0.000190644
7.92223e-05
0.000188347
4.74389e-05
0.000180085
1.82138e-05
0.000166199
-7.31017e-06
0.000147231
-2.8684e-05
0.000124086
-4.51071e-05
9.79924e-05
-5.60912e-05
6.96744e-05
-6.17938e-05
4.07377e-05
-6.17998e-05
1.17909e-05
-5.67421e-05
-1.55874e-05
-4.70052e-05
-4.0049e-05
-3.33324e-05
-6.07866e-05
-1.65326e-05
-7.70205e-05
2.32357e-06
-8.80076e-05
2.23154e-05
-9.32498e-05
4.23345e-05
-9.24584e-05
6.10692e-05
-8.53098e-05
7.73421e-05
-7.23426e-05
9.02609e-05
-5.40741e-05
9.89466e-05
-3.13812e-05
0.000102677
-4.88591e-06
0.000100869
2.44273e-05
9.34744e-05
5.45892e-05
8.0184e-05
8.50887e-05
6.14953e-05
0.00011431
3.76596e-05
0.000141232
9.4335e-06
0.000164603
-2.22834e-05
0.00018387
-5.65405e-05
0.000197671
-9.21087e-05
0.000205558
-0.000127711
0.000207318
-0.000162184
0.00020307
-0.000194459
0.000193217
-0.000223617
0.000178357
-0.000248984
0.000159318
-0.000270065
0.000136956
-0.000286606
0.000112213
-0.000298523
8.59517e-05
-0.000305898
5.89845e-05
-0.000308904
3.19323e-05
-0.000307886
5.39013e-06
-0.000303361
-2.00875e-05
-0.00029594
-4.38885e-05
-0.000286124
-6.62267e-05
-0.000274468
-8.74647e-05
-0.000261143
-0.000108368
-0.000245898
-0.000130011
-0.00022782
-0.000153757
-0.000205199
-0.00018041
-0.000176021
-0.000208884
-0.000139027
-0.000234743
-9.53105e-05
-0.000250274
-4.96214e-05
-0.000247186
-1.18668e-05
-0.000212288
-9.03571e-05
1.60392e-05
-0.00011084
6.62461e-05
-0.000262288
0.000124987
-0.000305292
0.000175321
-0.00029959
0.000211806
-0.000269906
0.000236516
-0.000232704
0.000254178
-0.000198236
0.000268741
-0.00016969
0.000282322
-0.000145992
0.000295519
-0.000124706
0.000308038
-0.000103641
0.00031916
-8.13822e-05
0.000328149
-5.73883e-05
0.000334326
-3.15457e-05
0.000336909
-3.78263e-06
0.000335292
2.58193e-05
0.000329119
5.60259e-05
0.000318044
8.65677e-05
0.000301896
0.000116714
0.000280528
0.000145499
0.000254112
0.000171913
0.000223091
0.000194721
0.000188166
0.000212721
0.00015053
0.00022464
0.000111499
0.000229677
7.25745e-05
0.000227275
3.5283e-05
0.00021738
1.083e-06
0.000200401
-2.86574e-05
0.000176974
-5.32795e-05
0.000148709
-7.1738e-05
0.00011645
-8.37125e-05
8.16472e-05
-8.87972e-05
4.58196e-05
-8.74642e-05
1.04548e-05
-7.97232e-05
-2.33306e-05
-6.65676e-05
-5.32058e-05
-4.86874e-05
-7.86671e-05
-2.70315e-05
-9.86767e-05
-2.71232e-06
-0.000112327
2.30147e-05
-0.000118977
4.85531e-05
-0.000117998
7.26834e-05
-0.000109442
9.41242e-05
-9.37857e-05
0.000111364
-7.13167e-05
0.000123509
-4.35285e-05
0.000129725
-1.11044e-05
0.000129385
2.47646e-05
0.000122065
6.19095e-05
0.000107822
9.93323e-05
8.68151e-05
0.000135318
5.94658e-05
0.000168582
2.6703e-05
0.000197367
-1.01533e-05
0.000220729
-5.01825e-05
0.000237704
-9.17141e-05
0.000247093
-0.000133217
0.000248822
-0.00017321
0.000243064
-0.000210374
0.000230381
-0.000243631
0.000211614
-0.000272237
0.000187925
-0.000295623
0.000160341
-0.000313603
0.000130192
-0.000326206
9.85532e-05
-0.000333475
6.62506e-05
-0.000335819
3.42739e-05
-0.000333679
3.24905e-06
-0.000327749
-2.60185e-05
-0.000318915
-5.27238e-05
-0.000308
-7.71443e-05
-0.000295943
-9.95251e-05
-0.000283401
-0.000120913
-0.000270396
-0.00014302
-0.00025594
-0.000168217
-0.000237432
-0.000198921
-0.000210828
-0.000235491
-0.000172082
-0.00027349
-0.000120369
-0.000301988
-6.19785e-05
-0.000305579
-1.33026e-05
-0.000260962
-0.000103659
2.25885e-05
-0.000133428
9.33264e-05
-0.000333025
0.000170918
-0.000382883
0.000228934
-0.000357606
0.000262112
-0.000303085
0.000277878
-0.00024847
0.000286415
-0.000206774
0.000294625
-0.0001779
0.000305122
-0.000156489
0.000317728
-0.000137313
0.000331168
-0.000117082
0.000344061
-9.42772e-05
0.000355042
-6.83709e-05
0.000362955
-3.94615e-05
0.000367049
-7.88015e-06
0.000366456
2.64085e-05
0.000360715
6.17634e-05
0.000349359
9.79203e-05
0.000332007
0.000134064
0.000308338
0.000169165
0.000278413
0.000201836
0.000242627
0.000230506
0.000201876
0.000253472
0.00015745
0.000269066
0.000111162
0.000275967
6.49388e-05
0.0002735
2.07373e-05
0.000261583
-1.94853e-05
0.000240625
-5.45873e-05
0.000212076
-8.31952e-05
0.000177318
-0.000104188
0.000137444
-0.000117137
9.45975e-05
-0.000121767
5.04526e-05
-0.000118462
7.15171e-06
-0.000107766
-3.40224e-05
-9.03902e-05
-7.05772e-05
-6.72547e-05
-0.000101798
-3.97244e-05
-0.000126203
-8.88231e-06
-0.000143165
2.3479e-05
-0.000151335
5.59639e-05
-0.00015048
8.67403e-05
-0.000140217
0.000113983
-0.000121028
0.000136623
-9.39569e-05
0.000153009
-5.99156e-05
0.00016233
-2.04251e-05
0.000163735
2.33589e-05
0.000156701
6.89454e-05
0.00014112
0.000114918
0.000117209
0.000159234
8.58164e-05
0.000199978
4.75559e-05
0.000235629
4.013e-06
0.000264274
-4.30443e-05
0.000284764
-9.19918e-05
0.000296044
-0.000140812
0.000297646
-0.000187599
0.000289853
-0.000230689
0.000273474
-0.000268799
0.000249726
-0.000301027
0.000220156
-0.000326953
0.000186269
-0.000346428
0.00014967
-0.000359411
0.000111539
-0.000366374
7.32169e-05
-0.000367538
3.54418e-05
-0.000363501
-7.84235e-07
-0.000355362
-3.41544e-05
-0.000344191
-6.38917e-05
-0.00033138
-8.99541e-05
-0.000318423
-0.000112482
-0.000306798
-0.000132539
-0.00029738
-0.000152439
-0.00028942
-0.000176178
-0.00027925
-0.000209093
-0.00025952
-0.000255223
-0.000221396
-0.000311615
-0.000160438
-0.000362949
-8.40769e-05
-0.00038194
-1.76515e-05
-0.00032739
-0.000121309
3.46626e-05
-0.00016809
0.000129916
-0.000428279
0.000225106
-0.000478074
0.000287822
-0.000420322
0.000314905
-0.000330168
0.000319324
-0.000252889
0.000317046
-0.000204497
0.000318331
-0.000179186
0.000326238
-0.000164396
0.00033946
-0.000150535
0.000355337
-0.000132959
0.000371345
-0.000110286
0.000385457
-8.24828e-05
0.000396204
-5.02095e-05
0.000402607
-1.42838e-05
0.000403739
2.52756e-05
0.000398923
6.65785e-05
0.000387597
0.000109245
0.000369242
0.000152417
0.000343237
0.000195169
0.00030938
0.000235691
0.000267918
0.000271967
0.000219868
0.00030152
0.000167014
0.000321918
0.000111565
0.000331413
5.61589e-05
0.000328905
3.31007e-06
0.000314431
-4.468e-05
0.000288616
-8.61064e-05
0.000253505
-0.0001195
0.000210716
-0.000143646
0.000161597
-0.000157797
0.000108757
-0.000161866
5.45298e-05
-0.000156025
1.31721e-06
-0.000141178
-4.88643e-05
-0.000118513
-9.32392e-05
-8.93355e-05
-0.000130973
-5.4616e-05
-0.000160923
-1.63936e-05
-0.000181389
2.40284e-05
-0.000191759
6.459e-05
-0.000191044
0.000103215
-0.000178843
0.000137878
-0.000155692
0.000166718
-0.000122797
0.000188395
-8.1594e-05
0.000201569
-3.36009e-05
0.00020522
1.97045e-05
0.000198663
7.54969e-05
0.000181528
0.000132047
0.000154297
0.00018646
0.00011767
0.000236601
7.26905e-05
0.000280604
2.09925e-05
0.000315966
-3.5038e-05
0.00034079
-9.33938e-05
0.000354396
-0.00015136
0.000355611
-0.000206536
0.000345031
-0.000256813
0.000323752
-0.000300662
0.000293578
-0.00033708
0.000256576
-0.00036572
0.000214912
-0.000386571
0.000170524
-0.000399788
0.000124758
-0.000405735
7.91642e-05
-0.000405165
3.4871e-05
-0.000398117
-7.83455e-06
-0.000386476
-4.57963e-05
-0.00037161
-7.87592e-05
-0.000355287
-0.000106277
-0.000340002
-0.000127767
-0.000328418
-0.000144122
-0.000322543
-0.000158314
-0.00032197
-0.00017675
-0.000321492
-0.00020957
-0.000309928
-0.000266788
-0.000273752
-0.000347793
-0.000205456
-0.000431248
-0.000112534
-0.000474864
-2.58911e-05
-0.00041404
-0.000147202
4.81372e-05
-0.000216227
0.000154587
-0.000534729
0.000250225
-0.000573713
0.000309396
-0.000479495
0.000332394
-0.000353167
0.000333056
-0.000253551
0.000328178
-0.00019962
0.000329167
-0.000180175
0.000339406
-0.000174633
0.000356966
-0.000168093
0.000378126
-0.000154117
0.000399479
-0.000131637
0.000418563
-0.000101563
0.000433654
-6.52984e-05
0.000443509
-2.41365e-05
0.000447285
2.15011e-05
0.000444091
6.97729e-05
0.000433427
0.000119909
0.000414408
0.000171436
0.00038603
0.000223546
0.000347777
0.000273941
0.000299531
0.000320211
0.000242481
0.000358569
0.000178882
0.000385516
0.000111816
0.000398478
4.48354e-05
0.000395886
-1.86966e-05
0.000377964
-7.63973e-05
0.000346319
-0.000125587
0.000302696
-0.000164321
0.000249453
-0.000191698
0.000188975
-0.000206941
0.000123999
-0.000209802
5.73888e-05
-0.000200615
-7.87238e-06
-0.000180967
-6.8516e-05
-0.000151873
-0.000122336
-0.00011497
-0.000167879
-7.20791e-05
-0.000203815
-2.47986e-05
-0.000228669
2.48762e-05
-0.000241433
7.48555e-05
-0.000241021
0.000122419
-0.000226405
0.000165582
-0.000198854
0.000202297
-0.000159512
0.000230325
-0.000109623
0.000248324
-5.16013e-05
0.000254984
1.30446e-05
0.00024901
8.14719e-05
0.000230594
0.000150464
0.00019959
0.000217465
0.000156595
0.000279594
0.000103353
0.000333845
4.17261e-05
0.000377593
-2.59978e-05
0.000408515
-9.59114e-05
0.000424311
-0.000165334
0.000425034
-0.000230998
0.000410695
-0.000290067
0.000382819
-0.000340743
0.00034425
-0.000381941
0.00029777
-0.000413471
0.000246439
-0.000435447
0.000192498
-0.00044845
0.000137758
-0.0004528
8.35109e-05
-0.000449026
3.10959e-05
-0.000437932
-1.89288e-05
-0.00042112
-6.26093e-05
-0.000399999
-9.98798e-05
-0.000377403
-0.000128873
-0.000356707
-0.000148464
-0.000341518
-0.000159313
-0.000334455
-0.000165379
-0.000334873
-0.000176334
-0.000336014
-0.00020843
-0.000325153
-0.000277651
-0.000288843
-0.000384105
-0.000220975
-0.000499119
-0.000127764
-0.000568076
-3.40219e-05
-0.000507781
-0.000181226
5.1219e-05
-0.000267446
0.000136365
-0.000619878
0.000204257
-0.000641607
0.000248721
-0.000523961
0.000272934
-0.000377381
0.000285126
-0.000265744
0.000295169
-0.000209663
0.000310286
-0.000195292
0.000332807
-0.000197155
0.000361023
-0.00019631
0.000391729
-0.000184824
0.000421688
-0.000161596
0.000448295
-0.000128171
0.000469783
-8.6786e-05
0.000484755
-3.91098e-05
0.000492481
1.37741e-05
0.000492177
7.00762e-05
0.000483072
0.000129015
0.000464029
0.00019048
0.000433552
0.000254025
0.000390249
0.000317247
0.000333717
0.000376745
0.000265416
0.000426871
0.0001884
0.000462532
0.000106923
0.000479954
2.56914e-05
0.000477117
-5.10613e-05
0.000454714
-0.000119831
0.000415084
-0.000177619
0.000360479
-0.000222878
0.000294705
-0.000253865
0.000219956
-0.000269669
0.000139798
-0.000269983
5.77012e-05
-0.000255786
-2.20697e-05
-0.000229148
-9.5151e-05
-0.000191709
-0.000159771
-0.000145062
-0.00021452
-9.19556e-05
-0.000256916
-3.40024e-05
-0.000286618
2.66285e-05
-0.00030206
8.71659e-05
-0.000301556
0.000145414
-0.00028465
0.000198633
-0.000252069
0.000244353
-0.000205225
0.000280525
-0.000145786
0.000305074
-7.61418e-05
0.000315907
2.21507e-06
0.000311612
8.57685e-05
0.000291743
0.000170335
0.000256296
0.000252918
0.000206476
0.00032942
0.000143629
0.000396696
6.98602e-05
0.000451363
-1.13996e-05
0.000489773
-9.66444e-05
0.000509553
-0.000180535
0.000508921
-0.000259111
0.000489267
-0.000329031
0.000452736
-0.000387793
0.00040301
-0.000434432
0.000344408
-0.000468815
0.000280823
-0.000491554
0.000215239
-0.000503372
0.000149578
-0.000504956
8.50979e-05
-0.00049676
2.29027e-05
-0.00047955
-3.61366e-05
-0.000454447
-8.77123e-05
-0.000423968
-0.000130359
-0.000391078
-0.000161762
-0.000359539
-0.000180003
-0.000333188
-0.000185664
-0.000314077
-0.000184489
-0.000300694
-0.000189717
-0.00028689
-0.000222233
-0.000263938
-0.0003006
-0.000225393
-0.000422647
-0.000170946
-0.000553561
-0.000104307
-0.000634718
-3.24537e-05
-0.000579632
-0.000213681
3.34098e-05
-0.000300857
6.50313e-05
-0.000651503
8.43924e-05
-0.000660971
0.000105257
-0.000544829
0.000131933
-0.000404059
0.000164845
-0.000298658
0.000202463
-0.000247282
0.000243451
-0.000236281
0.000286949
-0.000240651
0.000331727
-0.000241087
0.000376081
-0.000229176
0.00041815
-0.000203663
0.000455799
-0.000165818
0.000486682
-0.000117667
0.000509627
-6.20523e-05
0.000523869
-4.6465e-07
0.000528098
6.58501e-05
0.000521985
0.00013513
0.000503957
0.000208507
0.000471664
0.000286317
0.000422773
0.000366136
0.000356455
0.00044306
0.000274656
0.000508669
0.000181566
0.00055562
8.28353e-05
0.000578684
-1.59085e-05
0.000575859
-0.000107777
0.00054658
-0.000188268
0.000495573
-0.000255175
0.000427384
-0.000305933
0.000345462
-0.000339169
0.000253192
-0.00035326
0.000153891
-0.000348921
5.33631e-05
-0.000326886
-4.41044e-05
-0.000290165
-0.000131871
-0.000240775
-0.000209161
-0.000182193
-0.000273103
-0.000115852
-0.000323256
-4.44667e-05
-0.000358003
2.95198e-05
-0.000376045
0.000103353
-0.000375387
0.000174411
-0.000355707
0.000239974
-0.000317633
0.000297397
-0.000262651
0.000344225
-0.00019262
0.000377271
-0.000109192
0.000394518
-1.50347e-05
0.000393208
8.70764e-05
0.000372741
0.000190796
0.000333908
0.000291742
0.000277203
0.000386117
0.000203896
0.000469995
0.000116139
0.000539113
1.82623e-05
0.000587646
-8.45961e-05
0.000612408
-0.00018615
0.000610474
-0.000280718
0.000583835
-0.000363502
0.00053552
-0.00043168
0.000471189
-0.000484088
0.000396818
-0.000521093
0.000317828
-0.000543906
0.000238053