/*--------------------------------*- C++ -*----------------------------------*\
| =========                 |                                                 |
| \\      /  F ield         | OpenFOAM: The Open Source CFD Toolbox           |
|  \\    /   O peration     | Version:  2412                                  |
|   \\  /    A nd           | Website:  www.openfoam.com                      |
|    \\/     M anipulation  |                                                 |
\*---------------------------------------------------------------------------*/
FoamFile
{
    version     2.0;
    format      ascii;
    arch        "LSB;label=32;scalar=64";
    class       volScalarField;
    location    "1.4";
    object      alpha.glycerin;
}
// * * * * * * * * * * * * * * * * * * * * * * * * * * * * * * * * * * * * * //

dimensions      [0 0 0 0 0 0 0];

internalField   nonuniform List<scalar> 
6400
(
1
1
1
1
1
1
1
1
1
1
1
1
1
1
1
1
1
1
1
1
1
1
1
1
1
1
1
1
1
1
1
1
1
1
1
1
1
1
1
1
1
1
1
1
1
1
1
1
1
1
1
1
1
1
1
1
1
1
1
1
1
1
1
1
1
1
1
1
1
1
1
1
1
1
1
1
1
1
1
1
1
1
1
1
1
1
1
1
1
1
1
1
1
1
1
1
1
1
1
1
1
1
1
1
1
1
1
1
1
1
1
1
1
1
1
1
1
1
1
1
1
1
1
1
1
1
1
1
1
1
1
1
1
1
1
1
1
1
1
1
1
1
1
1
1
1
1
1
1
1
1
1
1
1
1
1
1
1
1
1
1
1
1
1
1
1
1
1
1
1
1
1
1
1
1
1
1
1
1
1
1
1
1
1
1
1
1
1
1
1
1
1
1
1
1
1
1
1
1
1
1
1
1
1
1
1
1
1
1
1
1
1
1
1
1
1
1
1
1
1
1
1
1
1
1
1
1
1
1
1
1
1
1
1
1
1
1
1
1
1
1
1
1
1
1
1
1
1
1
1
1
1
1
1
1
1
1
1
1
1
1
1
1
1
1
1
1
1
1
1
1
1
1
1
1
1
1
1
1
1
1
1
1
1
1
1
1
1
1
1
1
1
1
1
1
1
1
1
1
1
1
1
1
1
1
1
1
1
1
1
1
1
1
1
1
1
1
1
1
1
1
1
1
1
1
1
1
1
1
1
1
1
1
1
1
1
1
1
1
1
1
1
1
1
1
1
1
1
1
1
1
1
1
1
1
1
1
1
1
1
1
1
1
1
1
1
1
1
1
1
1
1
1
1
1
1
1
1
1
1
1
1
1
1
1
1
1
1
1
1
1
1
1
1
1
1
1
1
1
1
1
1
1
1
1
1
1
1
1
1
1
1
1
1
1
1
1
1
1
1
1
1
1
1
1
1
1
1
1
1
1
1
1
1
1
1
1
1
1
1
1
1
1
1
1
1
1
1
1
1
1
1
1
1
1
1
1
1
1
1
1
1
1
1
1
1
1
1
1
1
1
1
1
1
1
1
1
1
1
1
1
1
1
1
1
1
1
1
1
1
1
1
1
1
1
1
1
1
1
1
1
1
1
1
1
1
1
1
1
1
1
1
1
1
1
1
1
1
1
1
1
1
1
1
1
1
1
1
1
1
1
1
1
1
1
1
1
1
1
1
1
1
1
1
1
1
1
1
1
1
1
1
1
1
1
1
1
1
1
1
1
1
1
1
1
1
1
1
1
1
1
1
1
1
1
1
1
1
1
1
1
1
1
1
1
1
1
1
1
1
1
1
1
1
1
1
1
1
1
1
1
1
1
1
1
1
1
1
1
1
1
1
1
1
1
1
1
1
1
1
1
1
1
1
1
1
1
1
1
1
1
1
1
1
1
1
1
1
1
1
1
1
1
1
1
1
1
1
1
1
1
1
1
1
1
1
1
1
1
1
1
1
1
1
1
1
1
1
1
1
1
1
1
1
1
1
1
1
1
1
1
1
1
1
1
1
1
1
1
1
1
1
1
1
1
1
1
1
1
1
1
1
1
1
1
1
1
1
1
1
1
1
1
1
1
1
1
1
1
1
1
1
1
1
1
1
1
1
1
1
1
1
1
1
1
1
1
1
1
1
1
1
1
1
1
1
1
1
1
1
1
1
1
1
1
1
1
1
1
1
1
1
1
1
1
1
1
1
1
1
1
1
1
1
1
1
1
1
1
1
1
1
1
1
1
1
1
1
1
1
1
1
1
1
1
1
1
1
1
1
1
1
1
1
1
1
1
1
1
1
1
1
1
1
1
1
1
1
1
1
1
1
1
1
1
1
1
1
1
1
1
1
1
1
1
1
1
1
1
1
1
1
1
1
1
1
1
1
1
1
1
1
1
1
1
1
1
1
1
1
1
1
1
1
1
1
1
1
1
1
1
1
1
1
1
1
1
1
1
1
1
1
1
1
1
1
1
1
1
1
1
1
1
1
1
1
1
1
1
1
1
1
1
1
1
1
1
1
1
1
1
1
1
1
1
1
1
1
1
1
1
1
1
1
1
1
1
1
1
1
1
1
1
1
1
1
1
1
1
1
1
1
1
1
1
1
1
1
1
1
1
1
1
1
1
1
1
1
1
1
1
1
1
1
1
1
1
1
1
1
1
1
1
1
1
1
1
1
1
1
1
1
1
1
1
1
1
1
1
1
1
1
1
1
1
1
1
1
1
1
1
1
1
1
1
1
1
1
1
1
1
1
1
1
1
1
1
1
1
1
1
1
1
1
1
1
1
1
1
1
1
1
1
1
1
1
1
1
1
1
1
1
1
1
1
1
1
1
1
1
1
1
1
1
1
1
1
1
1
1
1
1
1
1
1
1
1
1
1
1
1
1
1
1
1
1
1
1
1
1
1
1
1
1
1
1
1
1
1
1
1
1
1
1
1
1
1
1
1
1
1
1
1
1
1
1
1
1
1
1
1
1
1
1
1
1
1
1
1
1
1
1
1
1
1
1
1
1
1
1
1
1
1
1
1
1
1
1
1
1
1
1
1
1
1
1
1
1
1
1
1
1
1
1
1
1
1
1
1
1
1
1
1
1
1
1
1
1
1
1
1
1
1
1
1
1
1
1
1
1
1
1
1
1
1
1
1
1
1
1
1
1
1
1
1
1
1
1
1
1
1
1
1
1
1
1
1
1
1
1
1
1
1
1
1
1
1
1
1
1
1
1
1
1
1
1
1
1
1
1
1
1
1
1
1
1
1
1
1
1
1
1
1
1
1
1
1
1
1
1
1
1
1
1
1
1
1
1
1
1
1
1
1
1
1
1
1
1
1
1
1
1
1
1
1
1
1
1
1
1
1
1
1
1
1
1
1
1
1
1
1
1
1
1
1
1
1
1
1
1
1
1
1
1
1
1
1
1
1
1
1
1
1
1
1
1
1
1
1
1
1
1
1
1
1
1
1
1
1
1
1
1
1
1
1
1
1
1
1
1
1
1
1
1
1
1
1
1
1
1
1
1
1
1
1
1
1
1
1
1
1
1
1
1
1
1
1
1
1
1
1
1
1
1
1
1
1
1
1
1
1
1
1
1
1
1
1
1
1
1
1
1
1
1
1
1
1
1
1
1
1
1
1
1
1
1
1
1
1
1
1
1
1
1
1
1
1
1
1
1
1
1
1
1
1
1
1
1
1
1
1
1
1
1
1
1
1
1
1
1
1
1
1
1
1
1
1
1
1
1
1
1
1
1
1
1
1
1
1
1
1
1
1
1
1
1
1
1
1
1
1
1
1
1
1
1
1
1
1
1
1
1
1
1
1
1
1
1
1
1
1
1
1
1
1
1
1
1
1
1
1
1
1
1
1
1
1
1
1
1
1
1
1
1
1
1
1
1
1
1
1
1
1
1
1
1
1
1
1
1
1
1
1
1
1
1
1
1
1
1
1
1
0.999999
0.999998
0.999997
0.999996
0.999994
0.999993
0.999992
0.999991
0.999989
0.999988
0.999987
0.999986
0.999985
0.999985
0.999984
0.999983
0.999983
0.999983
0.999983
0.999983
0.999983
0.999984
0.999985
0.999985
0.999986
0.999987
0.999988
0.999989
0.999991
0.999992
0.999993
0.999994
0.999996
0.999997
0.999998
0.999999
1
1
1
1
1
1
1
1
1
1
1
1
1
1
1
1
1
1
1
1
1
1
5.62478e-06
8.19642e-06
9.83225e-06
1.09514e-05
1.16374e-05
1.19922e-05
1.20949e-05
1.20017e-05
1.17522e-05
1.13737e-05
1.08858e-05
1.03021e-05
9.63294e-06
8.88613e-06
8.06823e-06
7.1842e-06
6.23935e-06
5.23937e-06
4.19001e-06
3.09615e-06
1.96441e-06
7.80106e-07
1.38973e-07
1.17461e-57
1.17461e-57
3.19777e-54
2.5319e-52
1.44507e-50
7.24825e-49
3.25626e-47
1.27006e-45
4.31051e-44
1.2664e-42
3.18405e-41
6.73407e-40
1.17012e-38
1.61829e-37
1.70498e-36
1.28151e-35
6.09583e-35
4.78475e-35
7.37507e-36
3.37979e-37
7.91682e-39
1.39699e-40
2.15137e-42
3.21375e-44
5.01664e-46
8.40709e-48
1.46988e-49
0
-4.33121e-42
-6.52255e-47
-5.11699e-52
-2.92104e-163
0
1.03612e-33
1.69078e-07
6.83487e-07
1.76929e-06
2.95478e-06
4.10701e-06
5.23013e-06
6.31458e-06
7.35293e-06
8.3375e-06
9.25628e-06
1.00991e-05
1.08521e-05
1.15063e-05
1.20455e-05
1.24591e-05
1.27227e-05
1.28132e-05
1.27097e-05
1.23699e-05
1.16446e-05
1.04771e-05
8.8865e-06
6.09282e-06
7.63451e-16
6.07428e-16
8.55546e-16
1.04567e-15
1.21255e-15
1.37712e-15
1.54282e-15
1.70762e-15
1.86918e-15
2.02496e-15
2.16273e-15
2.26428e-15
2.32127e-15
2.32148e-15
2.25136e-15
2.09718e-15
1.84998e-15
1.51189e-15
1.10341e-15
6.69887e-16
2.90451e-16
6.60981e-17
-5.49089e-22
1.49786e-48
1.66015e-48
1.22541e-46
4.6789e-45
1.77552e-43
6.22783e-42
1.95775e-40
5.46022e-39
1.33144e-37
2.78536e-36
4.87956e-35
6.93707e-34
7.6786e-33
6.38373e-32
3.73694e-31
7.55661e-31
7.73213e-31
7.31402e-31
6.31846e-31
1.50023e-31
3.37892e-37
7.91425e-39
1.39637e-40
2.15003e-42
3.21127e-44
5.01416e-46
8.22249e-48
1.46652e-49
-1.01401e-55
2.49031e-69
0
2.87641e-49
4.44562e-24
7.9351e-29
-7.23451e-22
5.33622e-17
2.52346e-16
6.60581e-16
1.17974e-15
1.6722e-15
2.05216e-15
2.29328e-15
2.41037e-15
2.4339e-15
2.39219e-15
2.30569e-15
2.18389e-15
2.03056e-15
1.86816e-15
1.70329e-15
1.53729e-15
1.37122e-15
1.20028e-15
1.02587e-15
8.38966e-16
5.92886e-16
7.46977e-16
1.8515e-18
1.02753e-18
1.43613e-18
1.75767e-18
2.06313e-18
2.25189e-18
2.47693e-18
2.83686e-18
3.18425e-18
3.56691e-18
4.00561e-18
4.47648e-18
7.33614e-18
7.56057e-18
7.49779e-18
7.10057e-18
6.30828e-18
5.12845e-18
3.64495e-18
2.11672e-18
8.68746e-19
1.73685e-19
-1.52207e-31
5.52788e-46
5.8114e-46
4.36468e-44
1.65476e-42
6.26305e-41
2.19656e-39
6.90305e-38
1.92286e-36
4.67798e-35
9.75761e-34
1.70488e-32
2.42199e-31
2.69155e-30
2.25581e-29
1.34672e-28
3.2923e-28
4.19199e-28
4.00186e-28
2.68217e-28
5.98093e-29
3.76195e-31
9.40659e-33
1.79256e-34
3.02374e-36
5.02639e-38
8.88984e-40
1.72417e-41
3.64769e-43
8.25177e-45
1.9519e-46
5.02745e-48
2.87641e-49
2.10964e-26
5.78018e-27
3.04826e-27
1.36078e-19
7.39974e-19
2.09012e-18
3.80171e-18
5.55484e-18
6.92279e-18
7.74275e-18
8.04794e-18
7.975e-18
6.14289e-18
4.45712e-18
3.95376e-18
3.48173e-18
3.04905e-18
2.70917e-18
2.39914e-18
2.16699e-18
1.99919e-18
1.68474e-18
1.37336e-18
9.75152e-19
1.73918e-18
2.69436e-20
2.71393e-20
3.97789e-20
4.82153e-20
5.67882e-20
6.62613e-20
7.65424e-20
8.76959e-20
9.99487e-20
1.11778e-19
1.21825e-19
1.29107e-19
1.31548e-19
1.25046e-19
1.1117e-19
8.65694e-20
5.16766e-20
2.94248e-20
2.18465e-20
1.2763e-20
4.82571e-21
8.29366e-22
-1.45545e-33
3.18484e-45
1.03931e-43
7.93208e-42
2.98112e-40
1.12553e-38
3.94304e-37
1.23547e-35
3.42457e-34
8.27602e-33
1.71258e-31
2.96706e-30
4.18257e-29
4.62441e-28
3.86798e-27
2.31737e-26
6.20513e-26
8.50415e-26
8.09232e-26
5.14728e-26
1.09097e-26
1.10204e-28
2.93257e-30
5.99765e-32
1.08314e-33
1.90144e-35
3.48557e-37
6.90216e-39
1.479e-40
3.37924e-42
8.07895e-44
3.07081e-45
2.44883e-46
9.59129e-32
2.35423e-29
2.44391e-29
6.53581e-22
3.9836e-21
1.22523e-20
2.3593e-20
3.37319e-20
6.16548e-20
1.03241e-19
1.29785e-19
1.49376e-19
1.51087e-19
1.47398e-19
1.36919e-19
1.22897e-19
1.06593e-19
9.09764e-20
7.74276e-20
6.59313e-20
5.61973e-20
4.70637e-20
3.8391e-20
2.62672e-20
2.60731e-20
1.13689e-22
1.06131e-22
1.53738e-22
1.88236e-22
2.24265e-22
2.65942e-22
3.14135e-22
3.69192e-22
4.30784e-22
4.9506e-22
5.56641e-22
6.10272e-22
6.46614e-22
6.50635e-22
5.91056e-22
5.05526e-22
3.35358e-22
1.58128e-22
1.08582e-22
6.21518e-23
2.22912e-23
3.52356e-24
-3.1815e-34
4.34656e-43
1.30294e-41
1.00333e-39
3.70129e-38
1.38533e-36
4.82677e-35
1.50055e-33
4.11841e-32
9.83689e-31
2.00901e-29
3.43246e-28
4.77221e-27
5.21179e-26
4.31613e-25
2.56904e-24
7.19735e-24
1.016e-23
9.66319e-24
6.03798e-24
1.25561e-24
1.60058e-26
4.54108e-28
1.00026e-29
1.94698e-31
3.64824e-33
7.0208e-35
1.43574e-36
3.14078e-38
7.28036e-40
1.76035e-41
2.10265e-42
6.51151e-44
2.23024e-42
2.85252e-34
5.4086e-32
2.74346e-24
1.82629e-23
5.96863e-23
1.19156e-22
1.87816e-22
4.21619e-22
6.19624e-22
7.42541e-22
7.8516e-22
7.66427e-22
7.10886e-22
6.33239e-22
5.48001e-22
4.6134e-22
3.82717e-22
3.16283e-22
2.62494e-22
2.18489e-22
1.80036e-22
1.45216e-22
9.98538e-23
1.06789e-22
5.58315e-25
5.02097e-25
7.24356e-25
8.95215e-25
1.07599e-24
1.28978e-24
1.5451e-24
1.84757e-24
2.19962e-24
2.5884e-24
2.98798e-24
3.36835e-24
3.67513e-24
3.82359e-24
3.60177e-24
3.18608e-24
2.27474e-24
1.13804e-24
6.70702e-25
3.73853e-25
1.27245e-25
1.86518e-26
1.28566e-39
3.37722e-41
2.66962e-39
9.7632e-38
3.50898e-36
1.29521e-34
4.47008e-33
1.37333e-31
3.71753e-30
8.7419e-29
1.75517e-27
2.9452e-26
4.02063e-25
4.31513e-24
3.51881e-23
2.06795e-22
5.91225e-22
8.43122e-22
8.0241e-22
5.00419e-22
1.03661e-22
1.53272e-24
4.64729e-26
1.10675e-27
2.33769e-29
4.72726e-31
9.69488e-33
2.08215e-34
4.7251e-36
1.12655e-37
2.78731e-39
5.70921e-40
1.14792e-41
3.12886e-40
6.84714e-37
1.67345e-34
1.43598e-26
1.0331e-25
3.56614e-25
7.37206e-25
1.31722e-24
2.90632e-24
3.98052e-24
4.61493e-24
4.66086e-24
4.39503e-24
3.93146e-24
3.39351e-24
2.85134e-24
2.34225e-24
1.90357e-24
1.54617e-24
1.26335e-24
1.03576e-24
8.43949e-25
6.74203e-25
4.639e-25
5.15357e-25
3.34963e-27
2.97416e-27
4.29287e-27
5.3478e-27
6.48513e-27
7.8586e-27
9.54013e-27
1.15869e-26
1.40421e-26
1.68587e-26
1.98855e-26
2.29142e-26
2.55652e-26
2.71945e-26
2.63168e-26
2.37193e-26
1.77179e-26
9.47924e-27
5.01218e-27
2.71636e-27
8.80681e-28
1.20682e-28
1.085e-37
2.48359e-39
2.17211e-37
7.78897e-36
2.72287e-34
9.73749e-33
3.29927e-31
9.98725e-30
2.65831e-28
6.13608e-27
1.20758e-25
1.9841e-24
2.65073e-23
2.78511e-22
2.22738e-21
1.28691e-20
3.69634e-20
5.26906e-20
5.02004e-20
3.15242e-20
6.55995e-21
1.08174e-22
3.5139e-24
9.07997e-26
2.09315e-27
4.60912e-29
1.01982e-30
2.33365e-32
5.57572e-34
1.38625e-35
3.55746e-37
7.20947e-38
1.33414e-39
3.75129e-38
1.78603e-38
3.47206e-37
9.17117e-29
7.07011e-28
2.5632e-27
5.47092e-27
1.12208e-26
2.27258e-26
2.99134e-26
3.38053e-26
3.33433e-26
3.06093e-26
2.67091e-26
2.25138e-26
1.84844e-26
1.48735e-26
1.18698e-26
9.48715e-27
7.63912e-27
6.17968e-27
4.98262e-27
3.94661e-27
2.70891e-27
3.04656e-27
2.36682e-29
2.09136e-29
3.02459e-29
3.79735e-29
4.64828e-29
5.69749e-29
7.01165e-29
8.65026e-29
1.06677e-28
1.30567e-28
1.57185e-28
1.84901e-28
2.1061e-28
2.28631e-28
2.26431e-28
2.07715e-28
1.6059e-28
9.09466e-29
4.43993e-29
2.34406e-29
7.28018e-30
9.40601e-31
7.60588e-36
1.62485e-37
1.48745e-35
5.21981e-34
1.77296e-32
6.04925e-31
1.99752e-29
5.94642e-28
1.55293e-26
3.51116e-25
6.75871e-24
1.0849e-22
1.41486e-21
1.451e-20
1.13451e-19
6.42338e-19
1.83319e-18
2.59445e-18
2.47487e-18
1.57421e-18
3.30113e-19
5.95793e-21
2.07911e-22
5.84931e-24
1.47896e-25
3.57271e-27
8.61612e-29
2.12647e-30
5.41852e-32
1.42256e-33
3.94426e-35
7.66802e-36
2.63038e-37
1.78603e-38
1.78603e-38
1.78603e-38
7.04132e-31
5.76641e-30
2.18209e-29
4.79063e-29
1.07706e-28
2.04921e-28
2.62306e-28
2.89935e-28
2.80273e-28
2.51518e-28
2.1462e-28
1.77024e-28
1.42281e-28
1.1227e-28
8.80272e-29
6.92374e-29
5.49416e-29
4.38646e-29
3.49966e-29
2.74896e-29
1.8805e-29
2.12391e-29
1.92721e-31
1.70216e-31
2.46892e-31
3.12422e-31
3.86188e-31
4.79033e-31
5.97874e-31
7.49468e-31
9.40717e-31
1.17379e-30
1.44212e-30
1.73177e-30
2.01387e-30
2.23139e-30
2.26086e-30
2.11063e-30
1.68307e-30
1.00196e-30
4.5901e-31
2.37044e-31
7.05362e-32
8.14963e-33
4.529e-34
8.19961e-36
8.61452e-34
2.95602e-32
9.72358e-31
3.14415e-29
1.00887e-27
2.95065e-26
7.54988e-25
1.66968e-23
3.139e-22
4.91437e-21
6.24366e-20
6.23432e-19
4.75356e-18
2.63092e-17
7.40343e-17
1.03589e-16
9.89464e-17
6.40077e-17
1.35454e-17
2.64775e-19
9.95804e-21
3.06096e-22
8.5264e-24
2.27341e-25
6.02538e-27
1.6199e-28
4.44869e-30
1.2454e-31
7.87601e-33
7.35319e-34
2.44255e-35
6.53184e-37
1.78603e-38
3.65337e-37
6.40313e-33
5.54138e-32
2.17312e-31
4.88222e-31
1.1721e-30
2.12466e-30
2.65432e-30
2.87466e-30
2.72527e-30
2.39267e-30
1.99811e-30
1.61337e-30
1.27003e-30
9.82937e-31
7.57132e-31
5.85936e-31
4.5815e-31
3.61014e-31
2.84983e-31
2.21996e-31
1.51264e-31
1.70826e-31
1.7761e-33
1.57232e-33
2.28886e-33
2.91974e-33
3.64602e-33
4.57899e-33
5.79875e-33
7.38969e-33
9.44513e-33
1.202e-32
1.50791e-32
1.84981e-32
2.19789e-32
2.48864e-32
2.58349e-32
2.45499e-32
2.01934e-32
1.25683e-32
5.46458e-33
2.74408e-33
1.51198e-33
1.80307e-33
1.49248e-33
4.53454e-34
4.24492e-32
1.4315e-30
4.5564e-29
1.39513e-27
4.31172e-26
1.23298e-24
3.08859e-23
6.67514e-22
1.22442e-20
1.86738e-19
2.30759e-18
2.23878e-17
1.66191e-16
8.9991e-16
2.52917e-15
3.54446e-15
3.38346e-15
2.19334e-15
4.66877e-16
9.69751e-18
3.94635e-19
1.33046e-20
4.09981e-22
1.21257e-23
3.5548e-25
1.04945e-26
3.13389e-28
9.44574e-30
1.65172e-30
6.89334e-32
1.92559e-33
5.64217e-35
4.94492e-37
3.16418e-35
9.74752e-35
6.10675e-34
2.5047e-33
5.72637e-33
1.44668e-32
2.5132e-32
3.06331e-32
3.25278e-32
3.02101e-32
2.59377e-32
2.11904e-32
1.6743e-32
1.29051e-32
9.7931e-33
7.40771e-33
5.63831e-33
4.34292e-33
3.37712e-33
2.63728e-33
2.03723e-33
1.38208e-33
1.55649e-33
1.82481e-35
1.62215e-35
2.37124e-35
3.04993e-35
3.84906e-35
4.89673e-35
6.29557e-35
8.16108e-35
1.06294e-34
1.3807e-34
1.77017e-34
2.22081e-34
2.69972e-34
3.12832e-34
3.3391e-34
3.22782e-34
2.74467e-34
1.74795e-34
8.73163e-35
1.31829e-34
8.33855e-34
1.51198e-33
1.80307e-33
5.15027e-32
1.85088e-30
6.05926e-29
1.87055e-27
5.48661e-26
1.5795e-24
4.35435e-23
1.06926e-21
2.25747e-20
4.0381e-19
5.9949e-18
7.19759e-17
6.77796e-16
4.92784e-15
2.77916e-14
6.64472e-14
8.62105e-14
8.30756e-14
5.91847e-14
1.51178e-14
2.96867e-16
1.31368e-17
4.87854e-19
1.66968e-20
5.49899e-22
1.79097e-23
5.8381e-25
1.90844e-26
6.3892e-28
1.18462e-28
4.94805e-30
1.38965e-31
4.15534e-33
4.7291e-35
9.74752e-35
7.91439e-35
2.59081e-35
3.49424e-35
7.59967e-35
2.01377e-34
3.36185e-34
3.98834e-34
4.15149e-34
3.76933e-34
3.16114e-34
2.52382e-34
1.9496e-34
1.47029e-34
1.09323e-34
8.11545e-35
6.0719e-35
4.60527e-35
3.53314e-35
2.72893e-35
2.09016e-35
1.41135e-35
1.58227e-35
2.06383e-37
1.84463e-37
2.70885e-37
3.51402e-37
4.48375e-37
5.78125e-37
7.55061e-37
9.96393e-37
1.32353e-36
1.75645e-36
2.30404e-36
2.96036e-36
3.68815e-36
4.38331e-36
4.82323e-36
4.73358e-36
3.877e-36
3.98181e-36
2.6925e-35
8.73163e-35
1.31829e-34
1.29154e-33
5.33182e-32
1.96875e-30
6.76525e-29
2.17018e-27
6.51377e-26
1.83184e-24
4.89966e-23
1.3053e-21
3.13634e-20
6.47178e-19
1.12891e-17
1.63127e-16
1.90342e-15
1.75563e-14
1.28748e-13
5.34265e-13
9.29674e-13
9.93785e-13
9.82714e-13
8.79758e-13
3.00782e-13
7.66636e-15
3.71303e-16
1.52666e-17
5.8274e-19
2.14359e-20
7.77139e-22
2.80175e-23
1.00489e-24
1.67073e-25
8.25755e-27
2.67556e-28
8.69784e-30
2.67103e-31
7.65615e-33
1.92876e-34
2.59081e-35
2.03329e-35
8.69163e-36
2.62564e-36
2.93792e-36
5.02064e-36
5.80112e-36
5.91383e-36
5.23536e-36
4.28142e-36
3.33568e-36
2.51609e-36
1.85466e-36
1.34997e-36
9.82683e-37
7.2224e-37
5.39127e-37
4.07936e-37
3.1155e-37
2.36561e-37
1.58941e-37
1.77168e-37
2.54183e-39
2.28641e-39
3.37434e-39
4.41607e-39
5.69943e-39
7.45207e-39
9.89363e-39
1.3301e-38
1.80359e-38
2.44806e-38
3.28988e-38
4.33587e-38
5.54754e-38
6.77164e-38
7.47797e-38
6.92157e-38
3.65033e-37
2.13322e-36
3.98181e-36
2.68676e-35
1.01567e-33
4.24798e-32
1.70576e-30
6.30325e-29
2.1514e-27
6.79476e-26
1.98928e-24
5.40475e-23
1.37399e-21
3.36855e-20
7.77442e-19
1.57016e-17
2.67337e-16
3.76716e-15
4.33589e-14
3.99477e-13
1.87685e-12
3.91556e-12
1.05278e-11
1.41825e-11
1.36677e-11
8.85802e-12
2.00694e-12
1.67927e-13
8.98495e-15
4.11984e-16
1.76445e-17
7.28257e-19
2.94676e-20
1.17609e-21
4.67294e-23
9.35086e-24
4.58024e-25
1.44776e-26
4.84268e-28
1.50968e-29
4.35833e-31
1.16244e-32
2.81616e-34
8.69163e-36
2.62564e-36
1.54847e-36
2.62289e-37
7.07431e-38
9.03192e-38
9.31025e-38
8.01703e-38
6.37963e-38
4.84215e-38
3.56129e-38
2.56268e-38
1.82408e-38
1.30084e-38
9.38484e-39
6.89079e-39
5.1403e-39
3.88054e-39
2.92043e-39
1.95194e-39
2.16142e-39
3.37745e-41
3.05973e-41
4.53964e-41
5.99552e-41
7.83014e-41
1.03877e-40
1.40286e-40
1.92301e-40
2.66453e-40
3.70333e-40
5.1059e-40
6.93083e-40
9.03099e-40
9.06293e-40
2.85678e-39
3.15523e-38
6.36272e-38
3.65319e-37
1.49217e-35
6.86126e-34
2.92556e-32
1.15027e-30
4.42184e-29
1.65421e-27
5.65194e-26
1.76984e-24
5.08746e-23
1.3446e-21
3.26512e-20
7.39557e-19
1.62808e-17
3.2018e-16
5.3482e-15
7.50998e-14
8.39749e-13
4.67497e-12
1.23878e-11
5.00135e-11
1.42395e-10
1.90863e-10
1.84188e-10
1.24981e-10
3.28966e-11
3.12913e-12
1.87111e-13
9.66265e-15
4.68465e-16
2.18708e-17
9.94451e-19
4.42437e-20
8.83332e-21
5.14636e-22
1.87026e-23
6.8824e-25
2.34842e-26
7.36468e-28
2.11789e-29
5.5744e-31
1.33886e-32
2.89642e-34
7.94308e-36
2.55115e-37
6.76226e-38
3.6059e-38
4.15706e-39
1.21899e-39
1.31797e-39
1.03888e-39
7.65108e-40
5.47758e-40
3.84279e-40
2.67171e-40
1.86485e-40
1.31958e-40
9.52464e-41
7.00156e-41
5.22303e-41
3.89507e-41
2.58916e-41
2.8462e-41
4.80227e-43
4.38408e-43
6.54109e-43
8.72061e-43
1.15298e-42
1.55283e-42
2.13467e-42
2.98609e-42
4.23219e-42
6.03231e-42
8.54682e-42
1.11644e-41
1.58705e-41
3.03651e-40
6.71907e-40
2.87615e-39
1.18984e-37
6.57553e-36
3.39837e-34
1.60856e-32
6.97609e-31
2.76795e-29
1.0072e-27
3.55029e-26
1.23123e-24
3.86247e-23
1.10038e-21
2.84858e-20
6.70644e-19
1.44105e-17
2.89036e-16
5.46978e-15
9.15086e-14
1.22572e-12
8.35497e-12
2.82747e-11
1.39791e-10
6.09478e-10
1.94061e-09
2.50678e-09
2.42895e-09
1.72065e-09
4.72454e-10
4.96819e-11
3.35674e-12
1.97278e-13
1.09272e-14
5.817e-16
2.99231e-17
4.52561e-18
3.9506e-19
1.83864e-20
7.36965e-22
2.77198e-23
9.52798e-25
2.97325e-26
8.40943e-28
2.14344e-29
5.52067e-31
1.50347e-32
3.80152e-34
8.24479e-36
1.61024e-37
4.05724e-39
8.9784e-40
4.35449e-40
3.45801e-41
1.46235e-41
1.30086e-41
9.09497e-42
6.20208e-42
4.20689e-42
2.87116e-42
1.99111e-42
1.41191e-42
1.02231e-42
7.53324e-43
5.56558e-43
3.6786e-43
4.01236e-43
7.25376e-45
6.67629e-45
1.00198e-44
1.34888e-44
1.8062e-44
2.47088e-44
3.45993e-44
4.94326e-44
7.18254e-44
1.04409e-43
1.20304e-43
7.64296e-43
4.63208e-42
1.74515e-41
4.5682e-40
3.03245e-38
1.9441e-36
1.13687e-34
6.06246e-33
2.95047e-31
1.31047e-29
5.30943e-28
1.95717e-26
6.57396e-25
2.12908e-23
6.80189e-22
1.94402e-20
4.99047e-19
1.15069e-17
2.3804e-16
4.46439e-15
7.96311e-14
1.21001e-12
1.00125e-11
4.72921e-11
2.92846e-10
1.57951e-09
7.17437e-09
2.21392e-08
2.7436e-08
2.67021e-08
1.98674e-08
5.74074e-09
6.69607e-10
5.173e-11
3.49775e-12
2.23169e-13
1.36247e-14
1.37527e-15
2.1097e-16
1.32079e-17
5.75806e-19
2.41342e-20
9.16527e-22
3.1252e-23
9.5401e-25
2.65498e-26
8.43352e-28
2.50831e-29
6.19089e-31
1.37937e-32
2.81348e-34
5.24117e-36
8.9157e-38
1.42145e-39
3.21924e-41
8.19772e-42
3.58282e-42
2.18129e-43
1.53995e-43
1.07024e-43
7.06951e-44
4.71225e-44
3.20015e-44
2.22802e-44
1.58827e-44
1.15571e-44
8.4569e-45
5.55678e-45
6.01141e-45
1.15636e-46
1.07342e-46
1.62087e-46
2.20399e-46
2.99013e-46
4.15702e-46
5.93342e-46
8.67262e-46
1.27352e-45
1.68343e-45
3.33609e-44
8.11094e-44
7.72159e-43
5.80668e-41
4.70746e-39
3.49075e-37
2.34576e-35
1.43265e-33
7.95842e-32
4.02134e-30
1.84737e-28
7.7082e-27
2.91727e-25
9.9748e-24
3.0874e-22
9.22798e-21
2.6977e-19
6.96828e-18
1.5963e-16
3.24954e-15
6.00165e-14
8.47321e-13
7.25339e-12
5.62661e-11
4.41067e-10
2.94262e-09
1.61646e-08
7.03257e-08
2.10037e-07
2.48464e-07
2.4301e-07
1.9095e-07
5.81634e-08
7.56962e-09
6.80787e-10
5.3685e-11
3.98049e-12
2.80547e-13
7.73934e-14
6.72061e-15
3.18171e-16
1.49841e-17
6.33085e-19
2.37268e-20
7.81412e-22
2.75173e-23
9.36724e-25
2.72446e-26
7.11634e-28
1.69089e-29
3.65435e-31
7.18839e-33
1.28737e-34
2.09863e-36
3.11084e-38
4.19404e-40
5.46367e-42
1.85527e-43
5.30835e-44
8.22595e-45
1.64095e-45
1.25489e-45
8.19415e-46
5.4417e-46
3.71764e-46
2.60806e-46
1.87339e-46
1.35745e-46
8.8654e-47
9.50926e-47
1.93389e-48
1.81116e-48
2.75223e-48
3.78097e-48
5.19913e-48
7.34947e-48
1.07004e-47
1.57001e-47
2.19585e-47
4.61188e-46
1.35971e-45
4.11084e-44
4.14209e-42
3.99847e-40
3.47596e-38
2.73005e-36
1.94207e-34
1.25279e-32
7.33132e-31
3.89068e-29
1.87069e-27
8.13731e-26
3.1963e-24
1.13114e-22
3.5851e-21
1.02266e-19
2.84412e-18
7.54761e-17
1.75628e-15
3.64988e-14
5.36608e-13
4.77952e-12
4.56442e-11
4.09535e-10
3.76214e-09
2.91927e-08
1.54604e-07
5.66747e-07
1.64515e-06
1.85006e-06
1.81898e-06
1.51739e-06
4.85846e-07
6.94636e-08
7.57876e-09
7.10872e-10
6.21719e-11
6.31561e-12
1.24297e-12
1.21383e-13
6.44561e-15
2.99907e-16
1.23989e-17
4.83206e-19
1.86316e-20
6.48638e-22
2.01533e-23
5.63429e-25
1.42175e-26
3.2451e-28
6.71109e-30
1.25904e-31
2.14427e-33
3.31584e-35
4.65391e-37
5.92199e-39
6.81004e-41
7.13137e-43
8.16239e-45
8.42352e-46
3.26259e-46
2.09814e-47
1.48622e-47
9.73383e-48
6.51903e-48
4.49887e-48
3.18915e-48
2.28781e-48
1.48486e-48
1.57876e-48
3.37435e-50
3.1892e-50
4.87794e-50
6.77193e-50
9.44144e-50
1.35714e-49
1.98239e-49
3.00227e-49
5.79377e-48
2.05801e-47
1.03419e-45
1.35745e-43
1.58147e-41
1.64456e-39
1.53837e-37
1.29839e-35
9.9058e-34
6.83873e-32
4.2731e-30
2.41549e-28
1.23318e-26
5.67537e-25
2.34899e-23
8.71892e-22
2.89219e-20
8.48807e-19
2.25981e-17
6.20172e-16
1.4765e-14
2.56378e-13
2.97723e-12
3.5079e-11
3.32141e-10
3.15129e-09
2.52687e-08
1.86621e-07
1.53451e-06
6.11614e-06
1.05491e-05
1.12603e-05
1.11314e-05
9.87758e-06
4.78203e-06
4.81187e-07
6.94625e-08
7.9741e-09
8.84877e-10
9.53263e-11
1.10504e-11
9.93214e-13
7.9282e-14
3.99833e-15
1.57299e-16
6.57631e-18
2.49342e-19
8.33446e-21
2.4862e-22
6.64235e-24
1.59447e-25
3.44844e-27
6.73458e-29
1.18961e-30
1.90278e-32
2.75747e-34
3.6214e-36
4.30647e-38
4.62792e-40
4.47965e-42
3.88849e-44
3.2572e-46
1.21667e-47
4.04855e-48
2.81057e-49
1.80059e-49
1.1944e-49
8.10644e-50
5.6696e-50
4.02599e-50
2.59643e-50
2.73586e-50
6.11132e-52
5.83035e-52
8.9772e-52
1.25968e-51
1.78079e-51
2.57837e-51
3.90082e-51
2.90946e-50
2.30544e-49
1.21723e-47
2.50485e-45
3.61116e-43
4.66096e-41
5.17634e-39
4.9927e-37
4.38768e-35
3.5769e-33
2.66138e-31
1.7679e-29
1.0056e-27
5.24953e-26
2.50588e-24
1.08936e-22
4.29248e-21
1.52681e-19
4.92452e-18
1.44737e-16
3.95025e-15
8.10604e-14
1.00139e-12
1.44046e-11
1.46635e-10
1.58296e-09
1.45079e-08
1.0874e-07
6.59983e-07
1.1302e-05
3.54737e-05
5.51735e-05
5.61148e-05
5.57617e-05
5.23221e-05
2.71274e-05
2.21967e-06
3.53951e-07
5.49101e-08
6.93962e-09
7.24769e-10
7.12241e-11
6.14514e-12
4.68227e-13
2.96967e-14
1.28563e-15
4.75044e-17
1.62177e-18
4.95932e-20
1.36015e-21
3.37084e-23
7.58837e-25
1.55838e-26
2.9299e-28
5.0554e-30
8.02145e-32
1.17187e-33
1.49371e-35
1.66044e-37
1.67405e-39
1.52837e-41
1.25737e-43
9.18277e-46
4.31987e-48
1.39631e-49
1.49231e-50
3.46611e-51
2.26009e-51
1.51763e-51
1.04711e-51
7.35922e-52
4.71555e-52
4.92332e-52
1.14333e-53
1.10125e-53
1.70715e-53
2.42153e-53
3.46534e-53
5.08004e-53
8.40642e-53
1.26048e-51
1.09395e-49
2.80384e-47
4.17885e-45
5.54977e-43
6.75015e-41
7.6753e-39
7.99838e-37
7.47001e-35
6.27483e-33
4.7407e-31
3.28085e-29
2.19372e-27
1.3117e-25
6.95385e-24
3.29638e-22
1.39904e-20
5.30187e-19
1.78334e-17
5.34025e-16
1.46702e-14
2.74184e-13
2.46783e-12
2.934e-11
2.80022e-10
2.7743e-09
2.51764e-08
1.83497e-07
1.08712e-06
4.60585e-05
0.000117559
0.000231096
0.000235212
0.000234627
0.00022406
0.000153821
1.50232e-05
6.79943e-07
1.0971e-07
1.42718e-08
1.50445e-09
1.59615e-10
1.49319e-11
1.57255e-12
1.2513e-13
5.7488e-15
2.12772e-16
7.13424e-18
2.13956e-19
5.74133e-21
1.36921e-22
2.91057e-24
5.57649e-26
9.66045e-28
1.51531e-29
2.12333e-31
2.68156e-33
3.20553e-35
3.60808e-37
3.67275e-39
3.35792e-41
2.76482e-43
2.09024e-45
1.42326e-47
6.34119e-50
1.2993e-51
7.17514e-53
4.40096e-53
2.93414e-53
1.9992e-53
1.39054e-53
8.85228e-54
9.15646e-54
2.1995e-55
2.13925e-55
3.33903e-55
4.78766e-55
6.90942e-55
1.03675e-54
1.6011e-54
3.79063e-53
2.43673e-50
5.76189e-48
1.11034e-45
1.86697e-43
2.78093e-41
3.72416e-39
4.6203e-37
5.14986e-35
5.0848e-33
4.428e-31
3.45441e-29
2.33728e-27
1.42366e-25
7.93648e-24
3.98119e-22
1.78049e-20
7.05355e-19
2.47253e-17
7.74386e-16
2.19092e-14
4.56803e-13
4.43412e-12
2.50295e-11
2.60126e-10
2.34185e-09
2.30068e-08
1.64819e-07
7.90701e-07
8.4496e-05
0.000617676
0.000774263
0.000876022
0.000875869
0.000850985
0.000923892
4.91608e-05
5.36534e-07
1.01612e-07
1.3756e-08
1.46882e-09
1.74222e-10
1.57616e-11
3.00433e-12
2.54988e-13
1.07028e-14
3.86172e-16
1.25121e-17
3.59686e-19
9.17043e-21
2.11384e-22
4.41579e-24
8.27543e-26
1.39634e-27
2.13099e-29
2.9954e-31
3.81842e-33
4.33417e-35
4.41142e-37
4.09254e-39
3.46975e-41
2.65559e-43
1.80537e-45
1.08779e-47
5.584e-50
1.67259e-52
3.48265e-54
8.98433e-55
5.80487e-55
3.92711e-55
2.70357e-55
1.70988e-55
1.752e-55
4.33222e-57
4.25529e-57
6.68761e-57
9.69176e-57
1.41576e-56
1.95578e-56
5.71119e-56
1.58173e-54
2.78558e-52
6.53889e-50
1.35606e-47
2.50646e-45
7.48292e-43
2.24561e-40
4.17394e-38
6.34411e-36
9.03972e-34
1.17307e-31
1.1475e-29
9.65688e-28
7.14058e-26
4.57755e-24
2.56821e-22
1.26844e-20
5.5444e-19
2.12449e-17
7.18592e-16
2.18193e-14
5.19462e-13
5.36846e-12
1.90448e-11
7.97275e-11
1.17249e-09
1.43295e-08
8.56531e-08
3.59346e-07
9.88811e-05
0.00309063
0.00195032
0.00303937
0.00304408
0.00154028
0.0022838
5.24407e-05
2.38874e-07
5.60608e-08
1.00102e-08
1.06274e-09
1.19283e-10
2.37976e-11
4.27267e-12
3.21492e-13
1.31552e-14
4.54877e-16
1.42836e-17
3.9687e-19
9.74914e-21
2.11406e-22
4.07151e-24
7.06861e-26
1.10701e-27
1.56063e-29
1.96796e-31
2.25011e-33
2.34085e-35
2.20861e-37
1.88185e-39
1.44018e-41
9.97446e-44
6.2173e-46
3.46415e-48
1.72422e-50
6.4445e-53
3.0957e-55
1.92635e-56
1.18066e-56
7.89912e-57
5.38502e-57
3.38367e-57
3.4341e-57
8.70033e-59
8.6314e-59
1.36583e-58
2.00114e-58
2.95908e-58
2.77596e-58
1.31715e-57
5.71119e-56
1.33806e-53
3.49373e-51
8.05483e-49
1.65417e-46
3.04829e-44
5.07507e-42
7.68238e-40
1.76192e-37
6.43869e-35
1.17105e-32
2.45476e-30
2.82837e-28
2.57252e-26
1.94619e-24
1.26677e-22
7.14589e-21
3.46414e-19
1.44193e-17
5.2198e-16
1.71967e-14
4.31014e-13
4.61415e-12
1.52946e-11
2.94049e-11
6.49689e-10
8.59159e-09
8.71868e-09
7.24579e-08
5.32522e-05
0.00538283
0.0127719
0.0107099
0.0106969
0.00969109
0.00239421
2.51121e-05
5.96622e-08
1.12671e-08
7.37092e-09
1.08744e-09
1.29977e-10
2.82686e-11
4.24634e-12
3.0408e-13
1.20692e-14
3.94036e-16
1.16944e-17
3.05453e-19
7.00452e-21
1.41636e-22
2.54013e-24
4.04891e-26
5.7789e-28
7.43478e-30
8.6054e-32
8.98733e-34
8.47326e-36
7.25454e-38
5.62974e-40
3.9495e-42
2.49917e-44
1.4198e-46
7.22281e-49
3.26939e-51
1.30695e-53
3.34258e-56
4.93695e-58
2.46283e-58
1.61916e-58
1.09426e-58
6.8317e-59
6.86723e-59
1.77451e-60
1.77822e-60
2.83305e-60
4.19627e-60
6.24405e-60
4.59209e-60
2.37638e-59
1.31715e-57
3.43693e-55
9.99317e-53
2.58267e-50
5.98022e-48
1.25065e-45
2.37956e-43
4.14311e-41
6.62582e-39
9.75467e-37
2.11009e-34
1.60067e-31
5.84576e-29
7.29617e-27
6.90059e-25
5.33453e-23
3.43958e-21
1.86544e-19
8.55322e-18
3.38235e-16
1.22175e-14
3.31819e-13
3.68468e-12
1.24125e-11
1.65167e-11
7.78192e-10
5.83747e-09
5.87506e-10
4.3094e-09
1.91753e-07
0.00546656
0.240492
0.192058
0.193356
0.231495
0.00149187
1.00172e-07
5.94742e-09
2.56827e-09
6.20823e-09
1.46231e-09
1.42246e-10
2.64306e-11
3.61772e-12
2.45165e-13
9.27652e-15
2.84482e-16
7.86121e-18
1.90051e-19
4.00052e-21
7.41047e-23
1.21508e-24
1.76836e-26
2.29575e-28
2.67559e-30
2.81223e-32
2.66986e-34
2.28979e-36
1.77567e-38
1.24946e-40
7.97207e-43
4.59593e-45
2.38248e-47
1.10494e-49
4.56006e-52
1.66769e-54
4.90602e-57
1.76841e-59
5.23569e-60
3.37203e-60
2.25946e-60
1.40176e-60
1.39552e-60
3.66173e-62
3.70667e-62
5.94502e-62
8.90026e-62
1.3344e-61
1.03279e-61
4.3591e-61
2.37638e-59
6.07191e-57
1.87893e-54
5.2385e-52
1.32601e-49
3.07746e-47
6.60705e-45
1.31931e-42
2.45089e-40
4.24173e-38
6.86899e-36
1.05107e-33
6.4534e-30
1.67417e-27
2.05935e-25
1.88307e-23
1.39542e-21
8.60894e-20
4.44833e-18
1.9533e-16
7.66528e-15
2.31035e-13
2.90477e-12
1.03578e-11
1.02878e-11
6.16173e-10
3.86266e-09
1.98873e-10
-2.85812e-10
5.25154e-08
0.00514915
0.412356
0.412832
0.412823
0.411974
0.00102298
6.14522e-09
9.06333e-10
1.87946e-09
4.81249e-09
1.36042e-09
1.35295e-10
2.22596e-11
2.77259e-12
1.73059e-13
6.13472e-15
1.7536e-16
4.46766e-18
9.89803e-20
1.89962e-21
3.19182e-23
4.73696e-25
6.24747e-27
7.34686e-29
7.73086e-31
7.3261e-33
6.27184e-35
4.86691e-37
3.41622e-39
2.17174e-41
1.25248e-43
6.53543e-46
3.07777e-48
1.29895e-50
4.88136e-53
1.62158e-55
4.75064e-58
1.08387e-60
1.13341e-61
7.1157e-62
4.72248e-62
2.91194e-62
2.87099e-62
7.61657e-64
7.78903e-64
1.25738e-63
1.90203e-63
2.89959e-63
2.63252e-63
8.49558e-63
4.3591e-61
1.03047e-58
3.25088e-56
9.29888e-54
2.42738e-51
5.8583e-49
1.32712e-46
2.85695e-44
5.85698e-42
1.1483e-39
2.15995e-37
3.90086e-35
8.39581e-32
3.05066e-28
5.09739e-26
5.60956e-24
4.83061e-22
3.40567e-20
1.98994e-18
9.69908e-17
4.11637e-15
1.38636e-13
2.08851e-12
8.32653e-12
5.96158e-12
3.53187e-10
2.4478e-09
2.03785e-10
-8.74311e-10
1.52918e-08
0.00482467
0.412832
0.412832
0.412832
0.412823
0.00110165
7.78678e-10
5.06215e-10
1.87686e-09
3.64692e-09
1.04348e-09
1.09968e-10
1.73336e-11
1.93125e-12
1.07512e-13
3.51447e-15
9.30997e-17
2.16985e-18
4.37214e-20
7.62412e-22
1.15897e-23
1.55178e-25
1.84292e-27
1.95267e-29
1.8497e-31
1.57451e-33
1.21027e-35
8.43021e-38
5.33194e-40
3.05322e-42
1.58568e-44
7.46085e-47
3.17062e-49
1.21229e-51
4.13812e-54
1.25085e-56
3.33381e-59
7.48101e-62
2.51031e-63
1.5156e-63
9.95474e-64
6.10203e-64
5.95796e-64