/*--------------------------------*- C++ -*----------------------------------*\
| =========                 |                                                 |
| \\      /  F ield         | OpenFOAM: The Open Source CFD Toolbox           |
|  \\    /   O peration     | Version:  2412                                  |
|   \\  /    A nd           | Website:  www.openfoam.com                      |
|    \\/     M anipulation  |                                                 |
\*---------------------------------------------------------------------------*/
FoamFile
{
    version     2.0;
    format      ascii;
    arch        "LSB;label=32;scalar=64";
    class       surfaceScalarField;
    location    "5.12";
    object      phi;
}
// * * * * * * * * * * * * * * * * * * * * * * * * * * * * * * * * * * * * * //

dimensions      [0 3 -1 0 0 0 0];

oriented        oriented;

internalField   nonuniform List<scalar> 
158920
(
-9.94527e-06
9.94527e-06
-1.95233e-05
9.54535e-06
-2.89493e-05
9.40143e-06
-3.83843e-05
9.42193e-06
-4.78352e-05
9.44869e-06
-5.72915e-05
9.46388e-06
-6.67528e-05
9.47765e-06
-7.62244e-05
9.49543e-06
-8.57124e-05
9.51817e-06
-9.52218e-05
9.54471e-06
-0.00010476
9.57798e-06
-0.000114327
9.6093e-06
-0.000123924
9.64107e-06
-0.000133553
9.67462e-06
-0.000143216
9.70948e-06
-0.000152913
9.74336e-06
-0.000162645
9.77659e-06
-0.000172412
9.80968e-06
-0.000182214
9.84365e-06
-0.000192051
9.87525e-06
-0.000201923
9.90888e-06
-0.000211832
9.94278e-06
-0.000221779
9.97725e-06
-0.000231764
1.00135e-05
-0.000241789
1.005e-05
-0.000251853
1.00873e-05
-0.00026196
1.01271e-05
-0.000272112
1.01689e-05
-0.000282306
1.02101e-05
-0.000292547
1.0254e-05
-0.000302835
1.02999e-05
-0.000313173
1.03475e-05
-0.000323561
1.03967e-05
-0.000334002
1.04477e-05
-0.000344497
1.05004e-05
-0.000355047
1.05548e-05
-0.000365653
1.06108e-05
-0.000376319
1.06686e-05
-0.000387044
1.07279e-05
-0.000397831
1.07889e-05
-0.000408681
1.08515e-05
-0.000419596
1.09157e-05
-0.000430577
1.09814e-05
-0.000441625
1.10485e-05
-0.000452741
1.11172e-05
-0.000463929
1.11873e-05
-0.000475188
1.12589e-05
-0.00048652
1.13319e-05
-0.000497926
1.14064e-05
-0.000509409
1.14822e-05
-0.000520968
1.15594e-05
-0.000532607
1.1638e-05
-0.000544325
1.1718e-05
-0.000556125
1.17993e-05
-0.000568007
1.18821e-05
-0.000579974
1.19662e-05
-0.000592026
1.20516e-05
-0.000604165
1.21384e-05
-0.000616392
1.22266e-05
-0.000628709
1.2316e-05
-0.000641116
1.24068e-05
-0.000653615
1.24989e-05
-0.000666208
1.25923e-05
-0.000678896
1.2687e-05
-0.000691679
1.2783e-05
-0.00070456
1.28802e-05
-0.000717539
1.29786e-05
-0.000730618
1.30783e-05
-0.000743798
1.31792e-05
-0.00075708
1.32813e-05
-0.000770465
1.33846e-05
-0.000783954
1.3489e-05
-0.000797549
1.35946e-05
-0.000811251
1.37013e-05
-0.000825061
1.38092e-05
-0.00083898
1.39181e-05
-0.000853008
1.4028e-05
-0.000867148
1.41391e-05
-0.0008814
1.42511e-05
-0.000895764
1.43641e-05
-0.000910243
1.44781e-05
-0.000924837
1.45931e-05
-0.000939546
1.47089e-05
-0.000954372
1.48257e-05
-0.000969316
1.49433e-05
-0.000984378
1.50617e-05
-0.00099956
1.5181e-05
-0.00101486
1.53009e-05
-0.00103028
1.54216e-05
-0.00104583
1.55431e-05
-0.00106149
1.56651e-05
-0.00107728
1.57878e-05
-0.00109319
1.59111e-05
-0.00110923
1.6035e-05
-0.00112539
1.61593e-05
-0.00114167
1.62841e-05
-0.00115808
1.64094e-05
-0.00117462
1.6535e-05
-0.00119128
1.66609e-05
-0.00120807
1.67872e-05
-0.00122498
1.69136e-05
-0.00124202
1.70403e-05
-0.00125919
1.71671e-05
-0.00127649
1.7294e-05
-0.00129391
1.7421e-05
-0.00131146
1.75479e-05
-0.00132913
1.76748e-05
-0.00134693
1.78015e-05
-0.00136486
1.7928e-05
-0.00138292
1.80543e-05
-0.0014011
1.81802e-05
-0.0014194
1.83058e-05
-0.00143783
1.8431e-05
-0.00145639
1.85556e-05
-0.00147507
1.86796e-05
-0.00149387
1.8803e-05
-0.0015128
1.89257e-05
-0.00153185
1.90476e-05
-0.00155102
1.91686e-05
-0.00157031
1.92886e-05
-0.00158972
1.94076e-05
-0.00160924
1.95255e-05
-0.00162888
1.96422e-05
-0.00164864
1.97576e-05
-0.00166851
1.98716e-05
-0.0016885
1.99842e-05
-0.00170859
2.00953e-05
-0.0017288
2.02047e-05
-0.00174911
2.03124e-05
-0.00176953
2.04182e-05
-0.00179005
2.05221e-05
-0.00181068
2.0624e-05
-0.0018314
2.07237e-05
-0.00185222
2.08213e-05
-0.00187314
2.09164e-05
-0.00189415
2.10092e-05
-0.00191525
2.10993e-05
-0.00193644
2.11868e-05
-0.00195771
2.12716e-05
-0.00197906
2.13534e-05
-0.0020005
2.14322e-05
-0.00202201
2.15079e-05
-0.00204359
2.15804e-05
-0.00206524
2.16495e-05
-0.00208695
2.17151e-05
-0.00210873
2.17771e-05
-0.00213057
2.18354e-05
-0.00215246
2.18899e-05
-0.0021744
2.19403e-05
-0.00219638
2.19866e-05
-0.00221841
2.20287e-05
-0.00224048
2.20663e-05
-0.00226258
2.20995e-05
-0.00228471
2.21279e-05
-0.00230686
2.21516e-05
-0.00232903
2.21704e-05
-0.00235122
2.21841e-05
-0.00237341
2.21926e-05
-0.00239561
2.21957e-05
-0.0024178
2.21933e-05
-0.00243999
2.21853e-05
-0.00246216
2.21715e-05
-0.00248431
2.21517e-05
-0.00250644
2.21258e-05
-0.00252853
2.20937e-05
-0.00255059
2.20552e-05
-0.0025726
2.20101e-05
-0.00259456
2.19584e-05
-0.00261646
2.18998e-05
-0.00263829
2.18341e-05
-0.00266005
2.17614e-05
-0.00268174
2.16813e-05
-0.00270333
2.15937e-05
-0.00272483
2.14985e-05
-0.00274622
2.13955e-05
-0.00276751
2.12846e-05
-0.00278868
2.11655e-05
-0.00280972
2.10383e-05
-0.00283062
2.09025e-05
-0.00285138
2.07583e-05
-0.00287198
2.06053e-05
-0.00289243
2.04434e-05
-0.0029127
2.02725e-05
-0.00293279
2.00925e-05
-0.0029527
1.99031e-05
-0.0029724
1.97041e-05
-0.0029919
1.94956e-05
-0.00301118
1.92773e-05
-0.00303022
1.9049e-05
-0.00304904
1.88106e-05
-0.0030676
1.8562e-05
-0.0030859
1.8303e-05
-0.00310394
1.80334e-05
-0.00312169
1.77532e-05
-0.00313915
1.74622e-05
-0.00315631
1.71603e-05
-0.00317316
1.68472e-05
-0.00318968
1.6523e-05
-0.00320587
1.61874e-05
-0.00322171
1.58403e-05
-0.0032372
1.54816e-05
-0.00325231
1.51112e-05
-0.00326704
1.4729e-05
-0.00328137
1.43347e-05
-0.0032953
1.39283e-05
-0.00330881
1.35098e-05
-0.00332189
1.30789e-05
-0.00333453
1.26356e-05
-0.00334671
1.21798e-05
-0.00335842
1.17114e-05
-0.00336965
1.12303e-05
-0.00338039
1.07363e-05
-0.00339062
1.02294e-05
-0.00340033
9.70955e-06
-0.0034095
9.17661e-06
-0.00341813
8.63053e-06
-0.00342621
8.07123e-06
-0.0034337
7.49864e-06
-0.00344062
6.91269e-06
-0.00344693
6.31332e-06
-0.00345263
5.70047e-06
-0.00345771
5.07412e-06
-0.00346214
4.43424e-06
-0.00346592
3.78083e-06
-0.00346903
3.11391e-06
-0.00347147
2.43351e-06
-0.00347321
1.7398e-06
-0.00347424
1.03312e-06
-0.00347456
3.14661e-07
-0.00347412
-4.35167e-07
-0.00347294
-1.18219e-06
-0.00347098
-1.95369e-06
-0.00346827
-2.71704e-06
-0.00346476
-3.50377e-06
-0.00346045
-4.31855e-06
-0.00345532
-5.12915e-06
-0.00344936
-5.95646e-06
-0.00344255
-6.80733e-06
-0.00343489
-7.66377e-06
-0.00342636
-8.5305e-06
-0.00341694
-9.41816e-06
-0.00340662
-1.03177e-05
-0.0033954
-1.12228e-05
-0.00338325
-1.21479e-05
-0.00337016
-1.30867e-05
-0.00335613
-1.40303e-05
-0.00334114
-1.49926e-05
-0.00332517
-1.59679e-05
-0.00330822
-1.69494e-05
-0.00329027
-1.7948e-05
-0.00327132
-1.89576e-05
-0.00325134
-1.99752e-05
-0.00323033
-2.10093e-05
-0.00320828
-2.20508e-05
-0.00318518
-2.31022e-05
-0.00316101
-2.41692e-05
-0.00313576
-2.52412e-05
-0.00310944
-2.63241e-05
-0.00308202
-2.74209e-05
-0.0030535
-2.85215e-05
-0.00302386
-2.96329e-05
-0.0029931
-3.07572e-05
-0.00296122
-3.18837e-05
-0.0029282
-3.30207e-05
-0.00289403
-3.41655e-05
-0.00285872
-3.53154e-05
-0.00282224
-3.64758e-05
-0.0027846
-3.76385e-05
-0.00274579
-3.88077e-05
-0.00270581
-3.99855e-05
-0.00266464
-4.11633e-05
-0.00262229
-4.23484e-05
-0.00257875
-4.35355e-05
-0.00253403
-4.47256e-05
-0.0024881
-4.59222e-05
-0.00244099
-4.71158e-05
-0.00239267
-4.83136e-05
-0.00234316
-4.95113e-05
-0.00229245
-5.07085e-05
-0.00224054
-5.19076e-05
-0.00218744
-5.3103e-05
-0.00213314
-5.4299e-05
-0.00207765
-5.54905e-05
-0.00202096
-5.66796e-05
-0.0019631
-5.78637e-05
-0.00190406
-5.90415e-05
-0.00184384
-6.02152e-05
-0.00178246
-6.13803e-05
-0.00171992
-6.25396e-05
-0.00165623
-6.36869e-05
-0.0015914
-6.48247e-05
-0.00152545
-6.59512e-05
-0.00145838
-6.70648e-05
-0.00139021
-6.81652e-05
-0.00132096
-6.92503e-05
-0.00125064
-7.03193e-05
-0.00117927
-7.13702e-05
-0.00110686
-7.24031e-05
-0.00103345
-7.34148e-05
-0.000959039
-7.44053e-05
-0.000883665
-7.5372e-05
-0.00080735
-7.63135e-05
-0.00073012
-7.72281e-05
-0.000652005
-7.81131e-05
-0.000573036
-7.89672e-05
-0.000493248
-7.9786e-05
-0.00041268
-8.05654e-05
-0.000331385
-8.12937e-05
-0.000249379
-8.20038e-05
-0.000166659
-8.27184e-05
-8.32664e-05
-8.33912e-05
7.26991e-07
-8.39919e-05
8.52646e-05
-8.45364e-05
0.000170302
-8.5036e-05
0.000255797
-8.54941e-05
0.000341716
-8.59183e-05
0.000427965
-8.6248e-05
0.000514432
-8.64668e-05
0.000601121
-8.6688e-05
0.000687907
-8.67852e-05
0.000774732
-8.68255e-05
0.000861533
-8.68006e-05
0.00094824
-8.67069e-05
0.00103478
-8.65367e-05
0.00112108
-8.63094e-05
0.00120708
-8.59946e-05
0.00129267
-8.5595e-05
0.00137779
-8.51221e-05
0.00146236
-8.45696e-05
0.0015463
-8.39424e-05
0.00162954
-8.32369e-05
0.00171199
-8.24533e-05
0.0017936
-8.16099e-05
0.00187428
-8.06783e-05
0.00195395
-7.96745e-05
0.00203256
-7.86062e-05
0.00211003
-7.74692e-05
0.0021863
-7.62706e-05
0.00226131
-7.50136e-05
0.00233501
-7.36979e-05
0.00240734
-7.23289e-05
0.00247827
-7.09241e-05
0.00254773
-6.94676e-05
0.0026157
-6.79681e-05
0.00268214
-6.64349e-05
0.00274702
-6.48729e-05
0.0028103
-6.3283e-05
0.00287197
-6.16704e-05
0.00293202
-6.00418e-05
0.00299041
-5.83951e-05
0.00304715
-5.6733e-05
0.00310222
-5.50693e-05
0.00315561
-5.33932e-05
0.00320734
-5.17233e-05
0.00325737
-5.00336e-05
0.00330571
-4.83408e-05
0.00335236
-4.66469e-05
0.00339731
-4.49505e-05
0.00344055
-4.3247e-05
0.00348209
-4.15391e-05
0.00352192
-3.98307e-05
0.00356004
-3.81144e-05
0.00359642
-3.63805e-05
0.00363106
-3.4639e-05
0.00366395
-3.2887e-05
0.00369507
-3.11205e-05
0.0037244
-2.93326e-05
0.00375193
-2.75251e-05
0.00377762
-2.56938e-05
0.00380146
-2.3839e-05
0.00382341
-2.1948e-05
0.00384344
-2.00309e-05
0.00386153
-1.80867e-05
0.00387763
-1.61019e-05
0.0038917
-1.40741e-05
0.0039037
-1.19975e-05
0.00391358
-9.88512e-06
0.00392132
-7.737e-06
0.00392685
-5.53363e-06
0.00393013
-3.27744e-06
0.00393111
-9.78707e-07
0.00392968
1.42911e-06
0.00392586
3.8293e-06
0.00391958
6.27812e-06
0.00391079
8.7936e-06
0.00389942
1.13639e-05
0.00388543
1.39917e-05
0.00386877
1.66592e-05
0.0038494
1.93734e-05
0.00382726
2.2142e-05
0.0038023
2.4955e-05
0.00377449
2.78104e-05
0.00374379
3.07017e-05
0.00371016
3.36308e-05
0.00367356
3.65968e-05
0.00363398
3.95853e-05
0.00359138
4.25952e-05
0.00354577
4.56182e-05
0.00349711
4.86548e-05
0.00344542
5.16964e-05
0.00339067
5.47473e-05
0.00333288
5.7793e-05
0.00327206
6.08199e-05
0.00320825
6.38066e-05
0.00314149
6.67575e-05
0.0030718
6.96871e-05
0.00299923
7.25732e-05
0.00292385
7.53848e-05
0.00284571
7.81416e-05
0.0027649
8.08124e-05
0.0026815
8.34015e-05
0.0025956
8.58929e-05
0.00250733
8.82734e-05
0.00241679
9.05386e-05
0.00232411
9.26823e-05
0.00222943
9.46834e-05
0.00213289
9.65343e-05
0.00203464
9.82501e-05
0.00193486
9.97821e-05
0.00183372
0.000101139
0.0017314
0.000102316
0.00162811
0.000103291
0.00152404
0.000104071
0.00141938
0.000104657
0.00131439
0.000104998
0.00120925
0.000105142
0.0011042
0.000105046
0.000999482
0.000104721
0.000895309
0.000104174
0.000791925
0.000103385
0.000689548
0.000102376
0.00058843
0.000101117
0.000488824
9.96046e-05
0.00039096
9.7861e-05
0.000295077
9.58796e-05
0.000201355
9.37191e-05
0.000109972
9.13792e-05
2.116e-05
8.88098e-05
-6.4844e-05
8.60014e-05
-0.00014769
8.28432e-05
-0.000227709
8.00167e-05
-0.000304194
7.64833e-05
-0.000377197
7.30024e-05
-0.000446472
6.92741e-05
-0.000511854
6.53817e-05
-0.000573208
6.13543e-05
-0.000630568
5.73605e-05
-0.000683571
5.30026e-05
-0.00073255
4.89795e-05
-0.000776986
4.44367e-05
-0.000817031
4.00461e-05
-0.000852546
3.55156e-05
-0.000883524
3.09794e-05
-0.000910094
2.65702e-05
-0.000932056
2.19612e-05
-0.00094954
1.74846e-05
-0.000962397
1.28575e-05
-0.000970774
8.37975e-06
-0.000974694
3.92285e-06
-0.00097423
-4.63155e-07
-0.000969486
-4.7456e-06
-0.000960598
-8.89023e-06
-0.000947438
-1.31619e-05
-0.000930171
-1.72666e-05
-0.000908937
-2.12334e-05
-0.000884037
-2.49016e-05
-0.000855337
-2.87062e-05
-0.000823088
-3.22566e-05
-0.000787365
-3.57264e-05
-0.000748555
-3.88084e-05
-0.000706537
-4.20126e-05
-0.000661626
-4.49039e-05
-0.000614043
-4.75762e-05
-0.000563901
-5.01359e-05
-0.000511368
-5.25291e-05
-0.000456636
-5.47304e-05
-0.00040012
-5.65192e-05
-0.000341804
-5.83239e-05
-0.000281915
-5.9897e-05
-0.000220753
-6.1166e-05
-0.000158407
-6.2343e-05
-9.51659e-05
-6.32349e-05
-3.12425e-05
-6.39175e-05
3.32068e-05
-6.44485e-05
9.79863e-05
-6.47846e-05
0.000162896
-6.49175e-05
0.00022769
-6.47978e-05
0.000292289
-6.45982e-05
0.000356351
-6.40547e-05
0.000419634
-6.32762e-05
0.000482193
-6.25548e-05
0.000543647
-6.14576e-05
0.000603968
-6.03284e-05
0.00066292
-5.89614e-05
0.000720393
-5.74803e-05
0.000776211
-5.58189e-05
0.000830344
-5.41289e-05
0.000882549
-5.21973e-05
0.00093271
-5.01542e-05
0.000980771
-4.8056e-05
0.00102652
-4.57551e-05
0.00106998
-4.34597e-05
0.00111101
-4.10411e-05
0.00114953
-3.85239e-05
0.00118535
-3.58215e-05
0.00121858
-3.32355e-05
0.00124906
-3.04704e-05
0.0012767
-2.76362e-05
0.00130159
-2.48792e-05
0.00132338
-2.178e-05
0.00134225
-1.88684e-05
0.00135825
-1.60046e-05
0.00137124
-1.29946e-05
0.00138118
-9.95027e-06
0.00138806
-6.88501e-06
0.00139199
-3.92936e-06
0.00139288
-8.90935e-07
0.00139086
2.02079e-06
0.00138592
4.94398e-06
0.00137808
7.83878e-06
0.00136745
1.06366e-05
0.00135409
1.33568e-05
0.00133806
1.60327e-05
0.00131946
1.86034e-05
0.00129842
2.10444e-05
0.00127503
2.33913e-05
0.00124948
2.55481e-05
0.0012218
2.76781e-05
0.00119209
2.97018e-05
0.00116066
3.14308e-05
0.00112737
3.3292e-05
0.0010925
3.48584e-05
0.0010563
3.62023e-05
0.00101875
3.75507e-05
0.000980069
3.86768e-05
0.000940352
3.97157e-05
0.000899795
4.05552e-05
0.000858488
4.13069e-05
0.000816614
4.18735e-05
0.000774363
4.22519e-05
0.000731943
4.24206e-05
0.000689428
4.25148e-05
0.000647097
4.23313e-05
0.000605022
4.20757e-05
0.000563587
4.14361e-05
0.00052277
4.08177e-05
0.000482782
3.99885e-05
0.000443799
3.8984e-05
0.000405901
3.78977e-05
0.000369375
3.65268e-05
0.000334397
3.49783e-05
0.000300872
3.35255e-05
0.000269024
3.18478e-05
0.000238898
3.01261e-05
0.000210373
2.85259e-05
0.000183665
2.67076e-05
0.000158703
2.49629e-05
0.000135612
2.30916e-05
0.000114529
2.10833e-05
9.5382e-05
1.91475e-05
7.8181e-05
1.72018e-05
6.27424e-05
1.54395e-05
4.90879e-05
1.36553e-05
3.72177e-05
1.1871e-05
2.70302e-05
1.01883e-05
1.85202e-05
8.51055e-06
1.14916e-05
7.029e-06
6.13508e-06
5.35674e-06
2.06403e-06
4.07121e-06
-8.12508e-07
2.87676e-06
-2.55417e-06
1.74188e-06
-3.33915e-06
7.84993e-07
-3.45088e-06
1.11544e-07
-3.02438e-06
-4.26625e-07
-2.30437e-06
-7.19937e-07
-1.64157e-06
-6.62823e-07
-1.37805e-06
-2.63899e-07
-2.34518e-06
9.66691e-07
-4.08929e-06
1.74409e-06
-9.20949e-06
5.12059e-06
-1.5563e-05
6.35382e-06
-5.02932e-06
-1.05335e-05
2.12213e-05
-2.62505e-05
3.20331e-05
-1.08117e-05
2.86107e-05
3.42208e-06
2.19316e-05
6.67841e-06
2.68121e-05
-4.88107e-06
5.08297e-05
-2.40176e-05
6.29809e-05
-1.21502e-05
5.49284e-05
8.05385e-06
4.6282e-05
8.64779e-06
4.02846e-05
5.99866e-06
3.48506e-05
5.43554e-06
3.0203e-05
4.64924e-06
2.58665e-05
4.33761e-06
2.15638e-05
4.30291e-06
1.68856e-05
4.67768e-06
1.16971e-05
5.18772e-06
5.71127e-06
5.98578e-06
-1.01658e-06
6.72858e-06
-8.77321e-06
7.7577e-06
-1.75355e-05
8.76305e-06
-2.74978e-05
9.96243e-06
-3.86624e-05
1.11644e-05
-5.09917e-05
1.23295e-05
-6.48143e-05
1.38234e-05
-8.01273e-05
1.53142e-05
-9.68077e-05
1.66817e-05
-0.00011506
1.82528e-05
-0.000134845
1.97862e-05
-0.000156278
2.14338e-05
-0.000179479
2.32018e-05
-0.000204355
2.48769e-05
-0.000230985
2.6632e-05
-0.000259259
2.82747e-05
-0.000289164
2.99053e-05
-0.000320806
3.16421e-05
-0.000354159
3.33531e-05
-0.000389138
3.49799e-05
-0.000425457
3.63192e-05
-0.000463158
3.77018e-05
-0.000502168
3.90099e-05
-0.000542179
4.00119e-05
-0.00058324
4.10626e-05
-0.000625083
4.18439e-05
-0.000667534
4.24509e-05
-0.000710314
4.27811e-05
-0.000753251
4.29381e-05
-0.00079619
4.29389e-05
-0.000838925
4.27351e-05
-0.000881189
4.22641e-05
-0.000922787
4.15979e-05
-0.000963588
4.0801e-05
-0.00100338
3.97909e-05
-0.00104195
3.85664e-05
-0.00107919
3.72391e-05
-0.00111494
3.57495e-05
-0.00114892
3.39834e-05
-0.00118105
3.21283e-05
-0.00121128
3.02255e-05
-0.00123916
2.78819e-05
-0.0012647
2.55364e-05
-0.0012877
2.30035e-05
-0.00130773
2.00251e-05
-0.00132495
1.72289e-05
-0.00133912
1.41673e-05
-0.0013501
1.09824e-05
-0.00135781
7.70675e-06
-0.00136216
4.35571e-06
-0.00136295
7.93104e-07
-0.00136016
-2.79708e-06
-0.00135385
-6.30761e-06
-0.00134381
-1.00432e-05
-0.00133012
-1.36843e-05
-0.001313
-1.71165e-05
-0.00129223
-2.07773e-05
-0.00126777
-2.44568e-05
-0.0012397
-2.80761e-05
-0.00120791
-3.17856e-05
-0.00117281
-3.50992e-05
-0.00113433
-3.8475e-05
-0.00109277
-4.15568e-05
-0.001048
-4.47746e-05
-0.0010002
-4.78003e-05
-0.000949219
-5.09749e-05
-0.000895337
-5.38813e-05
-0.000838787
-5.655e-05
-0.000779656
-5.9131e-05
-0.000718291
-6.13655e-05
-0.000654763
-6.35282e-05
-0.000589162
-6.56014e-05
-0.000521734
-6.74289e-05
-0.000452636
-6.90981e-05
-0.000382179
-7.04569e-05
-0.000310473
-7.17052e-05
-0.000238084
-7.23876e-05
-0.000164925
-7.31573e-05
-9.16534e-05
-7.327e-05
-1.80382e-05
-7.36141e-05
5.53361e-05
-7.33738e-05
0.000128195
-7.28592e-05
0.000200149
-7.19554e-05
0.000271044
-7.08961e-05
0.000340459
-6.94162e-05
0.000408043
-6.75849e-05
0.000473875
-6.58317e-05
0.000537189
-6.33137e-05
0.000597813
-6.06224e-05
0.00065549
-5.76752e-05
0.000709654
-5.41617e-05
0.000760366
-5.07103e-05
0.000807002
-4.6636e-05
0.000849267
-4.2265e-05
0.000887106
-3.78399e-05
0.000920204
-3.30991e-05
0.000948277
-2.80738e-05
0.000971135
-2.28588e-05
0.000988348
-1.7213e-05
0.000999838
-1.14889e-05
0.00100542
-5.58037e-06
0.00100494
4.84305e-07
0.000998713
6.22775e-06
0.000985991
1.27253e-05
0.000966696
1.92963e-05
0.000941312
2.53841e-05
0.000909199
3.21128e-05
0.000870428
3.87713e-05
0.000825656
4.47709e-05
0.000774368
5.12882e-05
0.000716696
5.76733e-05
0.000652599
6.40985e-05
0.000582814
6.97865e-05
0.000506825
7.59909e-05
0.00042501
8.18167e-05
0.000337618
8.73926e-05
0.000244772
9.28472e-05
0.000147454
9.73183e-05
4.51823e-05
0.00010227
-6.14486e-05
0.000106629
-0.000172148
0.000110697
-0.000286398
0.000114248
-0.000403869
0.000117469
-0.00052434
0.000120469
-0.000647491
0.000123151
-0.00077283
0.000125339
-0.000899926
0.000127096
-0.00102836
0.000128437
-0.0011577
0.000129336
-0.00128752
0.000129824
-0.00141748
0.000129962
-0.00154717
0.00012969
-0.00167619
0.000129023
-0.00180417
0.000127983
-0.00193072
0.00012655
-0.00205546
0.000124736
-0.00217802
0.000122563
-0.00229814
0.00012012
-0.00241553
0.000117396
-0.00252988
0.000114352
-0.00264093
0.000111049
-0.00274845
0.000107515
-0.00285217
0.000103729
-0.00295186
9.96843e-05
-0.00304731
9.54557e-05
-0.0031384
9.10929e-05
-0.00322497
8.65722e-05
-0.0033069
8.19259e-05
-0.00338408
7.71813e-05
-0.0034564
7.23256e-05
-0.00352377
6.73667e-05
-0.00358611
6.23388e-05
-0.00364341
5.73036e-05
-0.00369565
5.22389e-05
-0.00374278
4.71304e-05
-0.00378479
4.20106e-05
-0.00382172
3.69338e-05
-0.00385361
3.18871e-05
-0.00388048
2.68771e-05
-0.00390239
2.19097e-05
-0.00391941
1.70156e-05
-0.00393158
1.21734e-05
-0.00393902
7.43859e-06
-0.00394176
2.74813e-06
-0.00393987
-1.89573e-06
-0.0039335
-6.37204e-06
-0.00392274
-1.07601e-05
-0.00390771
-1.503e-05
-0.00388851
-1.91912e-05
-0.00386527
-2.32467e-05
-0.00383811
-2.71582e-05
-0.00380717
-3.09376e-05
-0.00377257
-3.45966e-05
-0.00373443
-3.8142e-05
-0.00369287
-4.15665e-05
-0.00364802
-4.48435e-05
-0.00360002
-4.79994e-05
-0.00354896
-5.10648e-05
-0.00349494
-5.40134e-05
-0.00343805
-5.6887e-05
-0.00337839
-5.96683e-05
-0.00331604
-6.2345e-05
-0.00325113
-6.49152e-05
-0.00318373
-6.73918e-05
-0.00311395
-6.97808e-05
-0.00304183
-7.21219e-05
-0.00296744
-7.439e-05
-0.00289084
-7.65947e-05
-0.00281209
-7.87501e-05
-0.00273123
-8.08627e-05
-0.00264831
-8.29177e-05
-0.00256346
-8.4857e-05
-0.00247666
-8.6796e-05
-0.00238801
-8.86486e-05
-0.00229756
-9.04496e-05
-0.00220539
-9.21765e-05
-0.00211152
-9.3866e-05
-0.00201602
-9.54988e-05
-0.00191901
-9.70101e-05
-0.00182055
-9.84655e-05
-0.00172064
-9.99094e-05
-0.00161939
-0.000101252
-0.0015169
-0.000102486
-0.00141326
-0.00010364
-0.00130854
-0.000104725
-0.00120278
-0.00010576
-0.00109609
-0.000106685
-0.000988623
-0.000107471
-0.000880429
-0.000108194
-0.000771628
-0.000108801
-0.000662308
-0.00010932
-0.000552523
-0.000109786
-0.000442342
-0.000110182
-0.000331993
-0.000110351
-0.000221659
-0.000110334
-0.000111436
-0.000110224
-1.4656e-06
-0.000109971
0.000108231
-0.000109697
0.00021751
-0.000109281
0.000326172
-0.000108662
0.000434074
-0.000107903
0.000541216
-0.000107142
0.000647531
-0.000106315
0.000752875
-0.000105345
0.000857144
-0.00010427
0.000960224
-0.00010308
0.00106201
-0.000101783
0.00116239
-0.000100383
0.00126128
-9.88877e-05
0.00135859
-9.73186e-05
0.00145427
-9.56784e-05
0.00154823
-9.39575e-05
0.00164041
-9.21837e-05
0.00173075
-9.03404e-05
0.00181919
-8.84331e-05
0.00190566
-8.64706e-05
0.00199011
-8.4458e-05
0.00207252
-8.24078e-05
0.00215283
-8.03078e-05
0.00223101
-7.81785e-05
0.00230702
-7.60159e-05
0.00238083
-7.38103e-05
0.0024524
-7.15686e-05
0.0025217
-6.92973e-05
0.0025887
-6.69938e-05
0.00265336
-6.46604e-05
0.00271567
-6.2308e-05
0.00277559
-5.99252e-05
0.00283312
-5.75234e-05
0.00288822
-5.51002e-05
0.00294088
-5.26554e-05
0.00299109
-5.02083e-05
0.00303883
-4.77413e-05
0.0030841
-4.52648e-05
0.00312688
-4.27793e-05
0.00316717
-4.02945e-05
0.003205
-3.78193e-05
0.00324034
-3.53447e-05
0.00327323
-3.28826e-05
0.00330367
-3.0443e-05
0.00333168
-2.80114e-05
0.00335729
-2.56036e-05
0.00338051
-2.32218e-05
0.00340138
-2.08744e-05
0.00341993
-1.85423e-05
0.00343618
-1.62493e-05
0.00345019
-1.40119e-05
0.00346199
-1.1799e-05
0.00347162
-9.63393e-06
0.00347914
-7.51383e-06
0.00348457
-5.43584e-06
0.00348797
-3.39125e-06
0.00348938
-1.40925e-06
0.00348885
5.2742e-07
0.00348645
2.39883e-06
0.00348222
4.22967e-06
0.00347621
6.01529e-06
0.00346846
7.74674e-06
0.00345904
9.42253e-06
0.00344799
1.10453e-05
0.00343538
1.26152e-05
0.00342124
1.41401e-05
0.00340563
1.56087e-05
0.0033886
1.7025e-05
0.00337022
1.83892e-05
0.00335052
1.97007e-05
0.00332956
2.09584e-05
0.0033074
2.21625e-05
0.00328407
2.33228e-05
0.00325964
2.44332e-05
0.00323415
2.54937e-05
0.00320764
2.65064e-05
0.00318017
2.74705e-05
0.00315179
2.83837e-05
0.00312254
2.92511e-05
0.00309246
3.00722e-05
0.00306162
3.08481e-05
0.00303004
3.15794e-05
0.00299777
3.22696e-05
0.00296485
3.29158e-05
0.00293133
3.35191e-05
0.00289725
3.40809e-05
0.00286265
3.46024e-05
0.00282757
3.50834e-05
0.00279204
3.55249e-05
0.00275611
3.59301e-05
0.00271981
3.62987e-05
0.00268318
3.66315e-05
0.00264625
3.69292e-05
0.00260906
3.71929e-05
0.00257164
3.74235e-05
0.00253401
3.76218e-05
0.00249623
3.77887e-05
0.0024583
3.79253e-05
0.00242027
3.80325e-05
0.00238216
3.81116e-05
0.00234399
3.81635e-05
0.0023058
3.81891e-05
0.00226761
3.81896e-05
0.00222945
3.81659e-05
0.00219133
3.81189e-05
0.00215328
3.80494e-05
0.00211532
3.79584e-05
0.00207747
3.78468e-05
0.00203975
3.77157e-05
0.00200219
3.75659e-05
0.00196479
3.73982e-05
0.00192757
3.72136e-05
0.00189056
3.7013e-05
0.00185376
3.67972e-05
0.0018172
3.65671e-05
0.00178087
3.63236e-05
0.0017448
3.60675e-05
0.001709
3.57995e-05
0.00167348
3.55206e-05
0.00163825
3.52314e-05
0.00160332
3.49328e-05
0.00156869
3.46255e-05
0.00153438
3.43104e-05
0.00150039
3.3988e-05
0.00146673
3.36591e-05
0.00143341
3.33243e-05
0.00140043
3.29844e-05
0.00136778
3.26401e-05
0.00133549
3.22918e-05
0.00130355
3.19403e-05
0.00127197
3.15861e-05
0.00124074
3.12298e-05
0.00120986
3.0872e-05
0.00117935
3.05132e-05
0.0011492
3.01539e-05
0.0011194
2.97948e-05
0.00108996
2.94363e-05
0.00106089
2.90788e-05
0.00103216
2.87227e-05
0.00100379
2.83686e-05
0.000975778
2.80169e-05
0.00094811
2.7668e-05
0.000920787
2.73224e-05
0.000893807
2.69803e-05
0.000867165
2.66422e-05
0.000840856
2.63084e-05
0.000814877
2.59792e-05
0.000789222
2.56551e-05
0.000763886
2.53363e-05
0.000738863
2.50231e-05
0.000714147
2.47159e-05
0.000689733
2.44148e-05
0.000665613
2.41202e-05
0.000641781
2.38323e-05
0.000618229
2.35514e-05
0.000594952
2.32777e-05
0.00057194
2.30115e-05
0.000549188
2.2753e-05
0.000526686
2.25023e-05
0.000504426
2.22596e-05
0.000482401
2.20253e-05
0.000460602
2.17993e-05
0.00043902
2.1582e-05
0.000417647
2.13734e-05
0.000396473
2.11737e-05
0.00037549
2.09832e-05
0.000354689
2.08018e-05
0.000334059
2.06299e-05
0.000313592
2.04673e-05
0.000293278
2.03144e-05
0.000273107
2.01712e-05
0.000253069
2.00379e-05
0.000233155
1.99144e-05
0.000213354
1.98009e-05
0.000193656
1.96975e-05
0.000174052
1.96044e-05
0.000154531
1.95216e-05
0.000135082
1.9449e-05
0.000115696
1.93862e-05
9.63644e-05
1.93318e-05
7.70853e-05
1.92791e-05
5.78325e-05
1.92528e-05
3.8553e-05
1.92797e-05
1.92706e-05
1.92828e-05
1.92709e-05
-8.62006e-06
1.85952e-05
-1.84022e-05
1.93632e-05
-2.82214e-05
1.92398e-05
-3.79011e-05
1.9105e-05
-4.74888e-05
1.90248e-05
-5.70205e-05
1.89699e-05
-6.65332e-05
1.89523e-05
-7.60464e-05
1.89597e-05
-8.55717e-05
1.89854e-05
-9.51149e-05
1.90225e-05
-0.00010468
1.90722e-05
-0.000114269
1.91232e-05
-0.000123883
1.91777e-05
-0.000133523
1.92362e-05
-0.000143192
1.92996e-05
-0.00015289
1.93643e-05
-0.000162619
1.94309e-05
-0.00017238
1.94992e-05
-0.000182175
1.95703e-05
-0.000192004
1.96403e-05
-0.000201869
1.97141e-05
-0.000211771
1.97894e-05
-0.00022171
1.9866e-05
-0.000231689
1.99464e-05
-0.000241708
2.00276e-05
-0.000251769
2.01106e-05
-0.000261872
2.01972e-05
-0.000272019
2.02871e-05
-0.000282212
2.03771e-05
-0.000292451
2.0471e-05
-0.000302739
2.05681e-05
-0.000313076
2.06679e-05
-0.000323464
2.07705e-05
-0.000333905
2.08761e-05
-0.0003444
2.09846e-05
-0.000354951
2.10961e-05
-0.000365558
2.12104e-05
-0.000376224
2.13278e-05
-0.00038695
2.1448e-05
-0.000397737
2.15713e-05
-0.000408587
2.16975e-05
-0.000419502
2.18265e-05
-0.000430482
2.19585e-05
-0.000441529
2.20934e-05
-0.000452646
2.22311e-05
-0.000463832
2.23716e-05
-0.00047509
2.25149e-05
-0.000486421
2.26611e-05
-0.000497826
2.28101e-05
-0.000509307
2.29619e-05
-0.000520866
2.31164e-05
-0.000532503
2.32737e-05
-0.00054422
2.34337e-05
-0.000556018
2.35964e-05
-0.0005679
2.37619e-05
-0.000579865
2.39302e-05
-0.000591915
2.41011e-05
-0.000604053
2.42747e-05
-0.000616278
2.4451e-05
-0.000628594
2.463e-05
-0.000640999
2.48115e-05
-0.000653497
2.49957e-05
-0.000666089
2.51825e-05
-0.000678775
2.53719e-05
-0.000691557
2.55638e-05
-0.000704436
2.57583e-05
-0.000717414
2.59552e-05
-0.000730491
2.61546e-05
-0.00074367
2.63564e-05
-0.00075695
2.65606e-05
-0.000770334
2.67671e-05
-0.000783822
2.69761e-05
-0.000797416
2.71873e-05
-0.000811117
2.74007e-05
-0.000824925
2.76164e-05
-0.000838842
2.78342e-05
-0.00085287
2.80542e-05
-0.000867008
2.82762e-05
-0.000881259
2.85003e-05
-0.000895622
2.87264e-05
-0.0009101
2.89545e-05
-0.000924692
2.91844e-05
-0.000939401
2.94161e-05
-0.000954226
2.96497e-05
-0.000969168
2.98849e-05
-0.00098423
3.01218e-05
-0.00099941
3.03603e-05
-0.00101471
3.06003e-05
-0.00103013
3.08417e-05
-0.00104567
3.10846e-05
-0.00106134
3.13288e-05
-0.00107713
3.15742e-05
-0.00109304
3.18208e-05
-0.00110907
3.20685e-05
-0.00112523
3.23173e-05
-0.00114152
3.2567e-05
-0.00115793
3.28175e-05
-0.00117446
3.30688e-05
-0.00119112
3.33207e-05
-0.00120791
3.35732e-05
-0.00122482
3.38262e-05
-0.00124186
3.40796e-05
-0.00125903
3.43333e-05
-0.00127632
3.45872e-05
-0.00129375
3.48412e-05
-0.00131129
3.50951e-05
-0.00132897
3.53489e-05
-0.00134677
3.56024e-05
-0.0013647
3.58555e-05
-0.00138276
3.61082e-05
-0.00140094
3.63602e-05
-0.00141924
3.66114e-05
-0.00143768
3.68618e-05
-0.00145623
3.71111e-05
-0.00147491
3.73593e-05
-0.00149372
3.76062e-05
-0.00151265
3.78516e-05
-0.00153169
3.80955e-05
-0.00155086
3.83376e-05
-0.00157016
3.85778e-05
-0.00158956
3.88159e-05
-0.00160909
3.90518e-05
-0.00162874
3.92854e-05
-0.0016485
3.95163e-05
-0.00166837
3.97445e-05
-0.00168836
3.99699e-05
-0.00170846
4.01921e-05
-0.00172866
4.04111e-05
-0.00174898
4.06266e-05
-0.0017694
4.08384e-05
-0.00178993
4.10464e-05
-0.00181055
4.12504e-05
-0.00183128
4.145e-05
-0.00185211
4.16453e-05
-0.00187303
4.18358e-05
-0.00189404
4.20215e-05
-0.00191514
4.2202e-05
-0.00193634
4.23772e-05
-0.00195761
4.25469e-05
-0.00197897
4.27108e-05
-0.00200041
4.28687e-05
-0.00202192
4.30204e-05
-0.00204351
4.31656e-05
-0.00206516
4.3304e-05
-0.00208689
4.34355e-05
-0.00210867
4.35599e-05
-0.00213051
4.36767e-05
-0.00215241
4.37859e-05
-0.00217436
4.3887e-05
-0.00219635
4.39799e-05
-0.00221839
4.40644e-05
-0.00224046
4.414e-05
-0.00226257
4.42066e-05
-0.00228471
4.4264e-05
-0.00230687
4.43117e-05
-0.00232905
4.43496e-05
-0.00235124
4.43774e-05
-0.00237345
4.43947e-05
-0.00239565
4.44013e-05
-0.00241786
4.4397e-05
-0.00244006
4.43813e-05
-0.00246224
4.43541e-05
-0.0024844
4.4315e-05
-0.00250654
4.42637e-05
-0.00252865
4.41999e-05
-0.00255072
4.41233e-05
-0.00257274
4.40337e-05
-0.00259472
4.39307e-05
-0.00261663
4.3814e-05
-0.00263848
4.36833e-05
-0.00266026
4.35383e-05
-0.00268196
4.33786e-05
-0.00270357
4.3204e-05
-0.00272509
4.30142e-05
-0.0027465
4.28088e-05
-0.0027678
4.25875e-05
-0.00278899
4.235e-05
-0.00281005
4.2096e-05
-0.00283097
4.18252e-05
-0.00285175
4.15373e-05
-0.00287238
4.1232e-05
-0.00289285
4.09089e-05
-0.00291314
4.05678e-05
-0.00293326
4.02084e-05
-0.00295319
3.98302e-05
-0.00297292
3.94331e-05
-0.00299244
3.90167e-05
-0.00301174
3.85808e-05
-0.00303082
3.81249e-05
-0.00304966
3.76489e-05
-0.00306825
3.71524e-05
-0.00308658
3.66352e-05
-0.00310464
3.60969e-05
-0.00312243
3.55373e-05
-0.00313992
3.4956e-05
-0.00315712
3.43529e-05
-0.003174
3.37277e-05
-0.00319056
3.308e-05
-0.00320678
3.24096e-05
-0.00322265
3.17163e-05
-0.00323817
3.09998e-05
-0.00325332
3.02598e-05
-0.00326809
2.94961e-05
-0.00328246
2.87084e-05
-0.00329643
2.78966e-05
-0.00330998
2.70604e-05