/*--------------------------------*- C++ -*----------------------------------*\
| =========                 |                                                 |
| \\      /  F ield         | OpenFOAM: The Open Source CFD Toolbox           |
|  \\    /   O peration     | Version:  2412                                  |
|   \\  /    A nd           | Website:  www.openfoam.com                      |
|    \\/     M anipulation  |                                                 |
\*---------------------------------------------------------------------------*/
FoamFile
{
    version     2.0;
    format      ascii;
    arch        "LSB;label=32;scalar=64";
    class       volScalarField;
    location    "9.75";
    object      alpha.soap;
}
// * * * * * * * * * * * * * * * * * * * * * * * * * * * * * * * * * * * * * //

dimensions      [0 0 0 0 0 0 0];

internalField   nonuniform List<scalar> 
6400
(
1
0.999999
1
1
0.999998
0.999998
0.999998
0.999999
0.999999
0.999999
0.999999
0.999999
0.999999
0.999999
0.999999
1
0.999999
0.999999
1
1
1
1
1
1
1
1
1
1
1
1
1
1
1
1
0.999999
1
1
1
1
1
1
1
1
1
1
1
1
0.999999
0.999998
0.999998
0.999999
1
1
1
1
1
1
1
1
1
1
1
1
1
1
1
1
1
0.999999
0.999997
0.999997
0.999998
0.999999
0.999999
0.999996
0.999996
0.999997
0.999999
1
0.999999
0.999999
0.999998
0.999999
0.999998
0.999998
0.999998
0.999998
0.999998
0.999998
0.999998
0.999998
0.999998
0.999998
0.999998
0.999998
1
1
1
1
1
1
1
1
1
1
1
1
1
1
1
1
0.999999
0.999999
0.999999
1
0.999999
0.999999
0.999999
1
1
1
1
1
1
1
1
0.999999
0.999999
0.999999
0.999999
0.999999
0.999999
0.999999
1
1
1
1
1
1
1
1
1
1
1
1
1
0.999999
0.999998
0.999998
0.999998
0.999999
1
0.999999
0.999996
0.999996
0.999997
0.999999
0.999998
0.999999
1
0.999997
0.999998
0.999998
0.999999
0.999999
1
0.999999
0.999998
0.999998
0.999998
0.999998
0.999998
0.999999
0.999999
0.999999
1
0.999999
0.999999
0.999999
1
1
1
1
1
1
1
1
1
0.999999
0.999999
1
1
1
0.999999
0.999998
0.999999
1
1
1
1
1
1
1
1
1
1
1
1
0.999998
0.999997
0.999997
0.999998
0.999999
0.999999
1
1
1
1
0.999999
0.999999
0.999999
0.999999
0.999998
0.999998
1
1
1
1
1
1
1
1
1
0.999999
0.999999
0.999999
0.999997
0.999999
0.999999
1
0.999999
0.999999
1
1
1
1
0.999999
0.999998
0.999998
1
0.999999
0.999999
1
0.999999
0.999998
0.999999
1
1
1
1
1
1
1
1
1
1
1
1
1
1
1
1
1
1
1
1
1
1
0.999999
0.999999
0.999998
0.999998
0.999998
0.999998
0.999998
0.999998
0.999998
0.999999
0.999999
0.999999
0.999999
0.999999
1
1
1
1
1
1
1
0.999999
0.999999
0.999999
1
1
1
1
1
1
0.999999
0.999999
0.999999
0.999998
0.999997
0.999998
1
1
0.999999
0.999998
1
0.999998
1
1
1
1
1
1
0.999999
1
1
1
1
0.999999
0.999998
0.999998
1
1
1
1
1
1
1
1
1
1
1
1
1
1
1
1
1
1
1
0.999999
0.999998
0.999998
0.999998
0.999998
0.999998
0.999997
0.999997
0.999997
0.999997
0.999997
0.999998
0.999999
1
1
1
1
1
1
0.999999
1
1
1
1
1
1
1
1
1
1
0.999998
0.999996
0.999995
0.999995
0.999995
0.999999
0.999996
0.999995
0.999995
0.999998
1
0.999999
0.999999
0.999999
0.999999
1
0.999999
1
1
1
1
1
1
1
1
1
0.999999
0.999999
1
1
0.999999
0.999998
0.999999
0.999998
0.999998
0.999998
0.999999
0.999999
0.999999
1
1
1
1
1
1
1
0.999999
0.999999
0.999999
0.999999
1
1
1
1
1
1
1
0.999999
1
0.999999
0.999999
0.999999
0.999999
0.999999
1
1
1
1
1
1
1
1
1
1
1
1
1
1
1
1
0.999997
0.999995
0.999995
0.999997
0.999999
0.999999
0.999999
0.999999
0.999999
1
1
0.999999
1
0.999999
1
0.999999
1
1
1
1
1
0.999999
1
1
1
1
1
0.999999
0.999999
0.999999
0.999999
0.999998
0.999999
0.999999
0.999998
0.999998
0.999998
0.999999
1
0.999999
0.999998
0.999998
0.999998
0.999999
1
1
1
1
1
1
1
1
1
1
1
1
1
1
0.999999
0.999999
0.999999
0.999999
1
1
1
1
1
1
1
1
1
1
1
1
1
1
1
1
1
1
0.999998
0.999997
0.999998
0.999999
1
1
1
0.999999
1
1
0.999999
1
1
0.999999
1
0.999999
1
1
1
1
1
0.999999
0.999999
1
1
0.999999
1
1
1
1
1
1
0.999999
0.999999
1
1
1
1
1
1
1
1
1
1
1
1
1
1
1
1
1
1
1
1
1
1
1
1
1
1
1
1
1
1
1
1
1
1
1
1
1
1
1
1
1
1
1
1
0.999999
0.999999
0.999998
0.999998
0.999999
0.999999
0.999999
0.999999
0.999999
1
1
1
0.999999
1
0.999999
0.999999
0.999999
1
0.999998
1
1
0.999999
0.999999
0.999999
1
0.999999
1
1
1
0.999999
1
1
1
1
1
0.999999
1
1
1
1
1
1
1
1
1
1
1
1
1
0.999999
1
1
1
1
1
1
1
1
1
1
1
1
1
1
1
1
1
1
1
1
1
1
1
1
1
1
1
1
1
0.999999
0.999999
0.999999
0.999999
0.999999
0.999999
0.999999
0.999999
1
1
1
1
0.999999
0.999999
1
0.999999
1
0.999999
1
1
1
1
0.999999
0.999999
1
1
1
1
0.999999
0.999999
0.999999
1
1
1
1
1
0.999999
0.999999
0.999999
1
1
1
1
1
1
1
0.999999
0.999999
0.999999
0.999999
1
1
1
1
0.999999
0.999999
1
1
1
1
1
1
1
1
1
1
1
1
1
1
1
1
1
1
1
1
1
1
1
1
1
1
0.999999
1
1
1
1
1
1
1
1
1
0.999997
0.999995
1
0.999999
1
1
0.999997
0.999999
1
0.999994
0.999999
0.999999
1
1
1
0.999999
1
1
1
1
1
1
1
0.999999
0.999999
0.999999
0.999999
1
1
1
1
1
1
1
1
1
1
1
1
1
1
1
1
1
1
1
1
1
1
1
1
1
1
1
1
1
1
1
1
1
1
1
1
1
1
1
1
1
1
1
1
1
1
1
1
1
1
1
1
0.999979
0.999924
0.999911
0.999958
0.999996
0.999999
1
1
1
0.999999
0.99987
0.999971
1
1
1
1
1
1
1
1
1
1
1
1
1
1
1
1
1
1
1
1
1
1
1
1
1
1
1
1
1
1
1
1
1
1
1
1
1
1
1
1
1
1
1
1
1
1
1
1
1
1
1
1
1
1
1
1
1
1
1
1
1
1
1
1
1
1
1
0.999996
0.99992
0.999905
0.999905
0.999905
0.999932
0.999999
0.999998
1
1
0.999999
0.99985
0.99989
0.999999
1
1
1
1
1
1
1
1
1
1
1
1
1
1
1
1
1
1
1
1
1
1
0.999999
0.999999
0.999999
0.999999
0.999999
0.999999
0.999999
0.999999
0.999999
1
1
1
1
1
1
1
1
1
1
1
1
1
1
1
1
1
1
1
1
1
1
1
1
1
1
1
1
1
1
1
1
1
1
1
0.999998
0.999995
0.999989
0.999946
0.999921
0.999922
0.999993
0.999998
0.99999
1
0.99928
0.999383
0.999948
0.999999
1
1
1
1
1
1
1
1
1
1
1
1
1
1
1
1
1
0.999999
0.999999
0.999999
0.999999
0.999999
0.999999
1
1
1
1
1
1
1
1
1
1
1
1
1
1
1
1
1
1
1
1
1
1
1
1
1
1
1
1
1
1
1
1
1
1
1
1
1
1
1
1
1
1
1
1
1
1
1
1
0.999994
0.999993
0.999719
0.997845
0.999743
0.998162
0.995358
0.998743
1
1
0.999999
0.999998
1
1
1
1
1
1
1
1
1
1
1
1
1
0.999999
0.999999
0.999999
0.999999
0.999999
1
1
1
1
1
1
1
1
1
1
1
1
1
1
1
1
1
1
1
1
1
1
1
1
1
1
1
1
1
1
1
1
1
1
1
1
1
1
1
1
1
1
1
1
0.999999
0.999999
0.999999
1
0.999999
0.999999
0.999999
0.999935
0.997878
0.99636
0.997413
0.999044
0.995207
0.995208
0.998595
1
0.999997
0.999995
0.999998
1
1
1
1
1
1
1
1
1
1
1
1
1
0.999999
0.999999
1
1
1
1
1
0.999999
0.999999
1
1
1
1
1
1
1
1
1
1
1
1
1
1
1
1
1
1
1
1
1
1
1
1
1
1
1
1
1
1
1
1
1
1
1
1
0.999999
1
1
1
1
1
1
0.999999
0.999999
0.999999
0.998866
0.996363
0.996357
0.99678
0.99918
0.99841
0.995206
0.996609
0.999886
0.999997
0.999996
0.999998
1
1
1
1
1
1
1
1
1
1
1
1
1
1
1
1
1
1
1
1
1
1
1
1
1
1
1
1
1
1
1
1
1
1
1
1
1
1
1
1
1
1
1
1
1
1
1
1
1
1
1
1
1
1
1
1
1
1
1
1
1
1
1
0.999999
1
0.999999
0.999999
0.999999
0.998257
0.996354
0.998017
0.99898
0.99918
0.999022
0.996011
0.995942
0.999068
0.999996
0.999996
0.999998
0.999998
0.999998
0.999999
1
1
1
1
1
1
1
1
1
1
1
1
1
1
1
1
1
1
1
1
1
1
1
1
0.999999
0.999999
0.999998
0.999997
0.999997
0.999997
0.999997
0.999997
0.999997
0.999997
0.999998
0.999999
0.999999
1
1
1
1
1
1
1
1
1
1
1
1
1
1
1
1
1
1
1
1
1
1
1
0.999999
0.999999
0.999999
0.999999
0.99998
0.998843
0.997198
0.998596
0.99898
0.999069
0.998884
0.997893
0.998655
0.999529
0.999984
0.999983
0.999966
0.99995
0.999954
0.999973
0.99999
0.999997
1
1
1
1
1
1
1
1
1
1
1
1
1
1
1
1
1
1
0.999995
0.999998
0.999989
0.999975
0.999954
0.999929
0.999906
0.999891
0.999888
0.999888
0.999887
0.99988
0.99987
0.999864
0.999792
0.999486
0.999234
0.99932
0.999651
1
1
1
1
1
1
1
1
1
1
1
1
1
1
1
1
1
1
0.999999
0.999996
0.999989
0.999979
0.999973
0.999975
0.99998
0.999946
0.999341
0.997862
0.998284
0.99872
0.80086
0.805548
0.827598
0.859919
0.881104
0.895717
0.908826
0.923661
0.941065
0.960272
0.977454
0.990621
0.99783
0.999914
0.999998
1
1
1
1
1
0.99967
0.979633
0.952625
0.916946
0.874154
0.826214
0.774356
0.722815
0.679957
0.655244
0.651561
0.667947
0.692655
0.719609
0.744397
0.76389
0.778975
0.790202
0.794744
0.792405
0.778268
0.75352
0.721133
0.683582
0.637547
0.59774
0.569935
0.555246
0.555129
0.564082
0.581746
0.612511
0.656217
0.708429
0.763153
0.818898
0.874628
0.925525
0.967184
0.996394
1
1
1
1
1
1
1
0.999993
0.999729
0.995387
0.98074
0.950669
0.912969
0.876386
0.84439
0.814082
0.782475
0.750196
0.717076
0.712327
0.0989922
0.0987986
0.104027
0.119927
0.142935
0.169154
0.197899
0.232993
0.273277
0.315039
0.366148
0.43849
0.523503
0.593589
0.647167
0.684807
0.703479
0.700792
0.671838
0.610956
0.51794
0.424093
0.32708
0.239958
0.171495
0.114444
0.0692921
0.0397307
0.0236906
0.017305
0.0153613
0.0164941
0.0227092
0.0335949
0.0475246
0.0596524
0.0653795
0.0654937
0.0576479
0.0472636
0.0357339
0.0239199
0.0117342
0.000970376
1.48465e-07
1.23491e-07
1.1475e-07
1.08862e-07
1.04775e-07
9.59582e-08
6.29735e-06
0.00375448
0.015051
0.0337873
0.0612077
0.103102
0.164551
0.250126
0.357487
0.475533
0.603792
0.708477
0.778282
0.810575
0.813218
0.791911
0.749088
0.686469
0.591761
0.467969
0.349646
0.25285
0.179303
0.128327
0.0946779
0.0715801
0.0558385
0.048578
0.0470106
0.0459784
2.78963e-06
2.36784e-06
2.23467e-06
2.22849e-06
2.22843e-06
2.22846e-06
2.22845e-06
2.22874e-06
2.23223e-06
2.25914e-06
2.50412e-06
2.77924e-06
2.93043e-06
0.00913106
0.0216377
0.0341388
0.0448844
0.0501373
0.0462125
0.0325079
0.0154104
0.00479766
0.00183532
0.00133071
0.000999868
0.000765233
0.000505808
0.000262055
9.62717e-05
1.8858e-05
-7.39388e-08
2.02133e-07
2.01963e-07
2.03435e-07
2.09491e-07
2.20993e-07
2.31845e-07
2.37707e-07
2.45556e-07
2.63922e-07
3.11862e-07
4.28996e-07
5.76815e-07
6.72448e-07
3.37718e-07
3.70377e-07
3.23171e-07
2.27017e-07
1.11244e-07
1.26227e-07
4.24356e-06
5.28708e-06
1.26437e-05
3.08933e-05
0.00011357
0.000333656
0.000675346
0.00099053
0.00113652
0.00776011
0.0331279
0.07169
0.105842
0.120201
0.114486
0.087215
0.054755
0.0271488
0.00726769
9.15734e-06
2.91345e-06
2.71757e-06
2.7119e-06
2.71757e-06
2.70933e-06
2.79041e-06
3.57127e-06
4.26785e-06
4.26945e-06
4.26785e-06
7.9381e-06
1.68892e-05
1.93463e-05
1.1916e-05
3.49101e-06
2.22846e-06
2.22874e-06
2.23223e-06
2.25914e-06
2.50413e-06
2.77924e-06
2.84616e-06
2.83339e-06
2.93043e-06
3.13024e-06
3.24577e-06
4.01928e-06
1.36083e-05
0.000104378
0.000189564
0.000280364
0.000312525
0.000251501
0.000186389
0.000140708
0.000104433
6.35682e-05
2.73143e-05
7.97456e-06
1.06324e-06
1.93117e-07
2.01877e-07
2.03435e-07
3.30848e-07
5.44115e-07
4.27054e-07
2.37707e-07
2.45556e-07
2.63922e-07
7.50737e-07
3.31145e-06
3.46643e-06
3.50536e-06
3.42626e-06
2.67545e-06
2.17755e-06
2.02229e-06
1.11147e-06
3.35983e-07
6.21353e-08
1.30517e-07
2.32926e-07
3.25812e-07
1.28164e-06
7.23782e-06
3.35784e-05
8.42267e-05
0.000134881
0.000144734
9.71675e-05
0.000124842
0.000173438
0.000188937
0.000140196
6.33686e-05
7.03574e-05
5.742e-05
3.05262e-05
1.28095e-05
1.01144e-05
9.61916e-06
9.81113e-06
3.14156e-06
2.70933e-06
2.74344e-06
2.26704e-05
1.71101e-05
4.7817e-06
5.07769e-06
5.0078e-06
2.45187e-05
4.02868e-05
4.02899e-05
1.65696e-05
2.30983e-06
2.22948e-06
2.24285e-06
5.76504e-06
1.31518e-05
1.15069e-05
2.84615e-06
2.84615e-06
5.86829e-06
1.43246e-05
1.28064e-05
1.59898e-05
3.41655e-05
9.28858e-05
0.000134627
4.39525e-05
3.16611e-05
3.97721e-05
3.5159e-05
2.99348e-05
2.51594e-05
1.90773e-05
1.07467e-05
3.62437e-06
8.1055e-07
2.58668e-07
2.35535e-07
2.06249e-07
2.24122e-07
1.14085e-06
2.15112e-06
4.68404e-07
2.51426e-07
2.74587e-07
3.49496e-07
1.74685e-06
3.22796e-06
2.64546e-06
7.80131e-07
6.8293e-07
3.80814e-07
1.40711e-07
7.79953e-08
6.40912e-08
6.09507e-08
5.98997e-08
3.33347e-08
4.09172e-08
5.83692e-07
5.82734e-07
7.9537e-07
2.95511e-06
1.08161e-05
1.72563e-05
1.963e-05
1.68646e-05
2.17492e-05
2.60569e-05
2.83101e-05
1.49749e-05
7.31223e-06
8.65117e-05
0.000431238
0.00044057
0.000364375
0.000108545
4.54238e-05
1.56748e-05
2.91613e-06
2.73567e-06
2.96418e-05
4.02918e-05
4.04269e-05
8.0663e-06
2.64656e-05
4.09121e-05
2.51064e-05
4.02914e-05
3.30841e-05
2.4805e-06
2.36035e-06
2.30983e-06
4.5635e-06
4.51493e-05
6.45664e-05
6.41963e-05
2.34411e-05
3.26876e-06
7.58998e-06
1.76638e-05
1.72573e-05
1.40089e-05
1.65801e-05
0.000112253
0.000186319
2.60739e-05
5.29222e-06
6.94809e-06
7.62798e-06
7.73682e-06
1.01551e-05
7.7848e-06
3.65719e-06
9.17936e-07
3.09648e-07
2.60913e-07
2.6095e-07
2.35535e-07
6.12237e-07
1.14532e-06
1.29508e-06
6.05988e-07
3.23834e-07
3.60158e-07
5.42479e-07
9.74783e-07
1.18942e-06
1.08273e-06
8.0919e-07
7.77608e-07
6.82159e-07
3.80814e-07
1.33759e-07
5.34114e-08
2.95735e-08
2.67601e-08
2.64279e-08
2.54593e-08
2.78969e-08
6.08829e-07
6.2362e-07
8.12694e-07
2.88104e-06
5.38689e-06
4.54543e-06
2.98307e-06
3.91495e-06
3.74621e-06
3.91064e-06
3.63455e-06
2.93065e-06
2.29725e-06
0.000155685
0.000454879
0.000430456
8.66313e-05
3.60912e-06
1.23805e-05
4.21328e-06
4.89347e-06
4.01459e-05
4.04397e-05
1.62027e-05
1.19054e-05
4.03978e-05
4.10133e-05
3.31747e-05
3.45115e-05
3.40998e-06
2.51053e-06
2.47507e-06
3.93636e-06
4.22613e-05
6.4633e-05
6.46316e-05
6.45664e-05
6.41342e-05
2.1752e-05
7.65846e-06
7.57971e-06
7.8049e-06
8.82205e-06
4.62556e-05
0.000124943
0.000106193
1.8958e-06
2.18126e-06
2.74667e-06
3.65284e-06
4.89891e-06
7.45649e-06
8.21726e-06
7.05854e-06
7.41426e-06
2.27615e-05
1.23771e-05
6.26175e-06
1.99633e-05
2.77091e-05
2.76571e-05
2.42123e-05
2.43766e-05
1.8712e-05
8.35137e-06
2.83169e-06
1.21721e-06
1.18942e-06
1.19059e-06
1.16832e-06
1.25831e-05
4.08036e-05
3.90364e-05
2.84838e-06
2.06423e-07
5.17089e-08
2.72259e-08
2.49727e-08
2.11501e-08
3.03722e-08
2.33097e-06
5.53546e-06
5.3091e-06
4.79962e-06
4.54818e-06
3.06501e-06
9.43214e-07
1.04165e-06
1.1345e-06
1.31433e-06
1.61303e-06
2.89969e-06
2.02773e-06
7.20792e-07
2.74779e-05
5.91592e-05
4.14698e-05
1.83694e-06
7.94693e-07
7.00691e-07
1.15079e-05
3.99977e-05
4.02217e-05
1.32314e-05
1.28742e-05
2.964e-05
3.98992e-05
2.89578e-05
4.12796e-06
1.96515e-06
2.21085e-06
2.47643e-06
1.64746e-05
6.46333e-05
6.46322e-05
6.46336e-05
6.45911e-05
6.42561e-05
3.88517e-05
7.64061e-06
7.7766e-06
1.59883e-05
0.000111183
0.00014079
0.000128728
1.76246e-05
1.66812e-06
1.73826e-06
2.02019e-06
2.74667e-06
3.67398e-06
4.91226e-06
1.26713e-05
5.93461e-05
7.05323e-05
7.08209e-05
6.87214e-05
6.96648e-05
7.2085e-05
7.20478e-05
7.21763e-05
7.19983e-05
7.16042e-05
7.19361e-05
7.44766e-05
6.10746e-05
3.46094e-05
1.00269e-05
1.81102e-06
2.97672e-06
4.50121e-05
0.000109606
0.000109454
7.8193e-05
1.72683e-05
3.12315e-07
4.0664e-08
2.11432e-08
1.67408e-08
7.33166e-09
2.19793e-06
7.95209e-06
7.9516e-06
7.95225e-06
7.9147e-06
4.7875e-06
6.20366e-07
8.46236e-07
1.07732e-06
1.14412e-06
1.63479e-06
1.52874e-06
7.47609e-07
7.10244e-07
2.35603e-06
3.244e-05
1.8875e-05
1.17647e-06
7.01351e-07
7.08136e-07
4.191e-06
2.58695e-05
4.00474e-05
3.60944e-05
1.36558e-05
2.87307e-05
2.88908e-05
2.19951e-05
1.93817e-06
1.8833e-06
1.95822e-06
2.17443e-06
1.9584e-05
6.46322e-05
6.46345e-05
6.46322e-05
6.45737e-05
6.42061e-05
4.09782e-05
8.1228e-06
1.66342e-05
0.000122543
0.000148857
0.000146222
0.000117255
2.21902e-06
1.68885e-06
1.67337e-06
1.73826e-06
2.02019e-06
2.7762e-06
8.73407e-06
6.2072e-05
7.05323e-05
7.08209e-05
7.10122e-05
7.10788e-05
7.12375e-05
7.18267e-05
7.20478e-05
6.13873e-05
4.46989e-05
6.51403e-05
7.4005e-05
7.87141e-05
8.17756e-05
8.42877e-05
8.76145e-05
5.34066e-05
3.81404e-05
7.67557e-05
0.000109606
0.000109662
0.000109454
0.000108765
3.96173e-05
9.3928e-07
1.5151e-08
7.91556e-09
4.39057e-09
4.53386e-09
1.83192e-06
6.43526e-06
4.16474e-06
4.6085e-07
4.89443e-07
5.43187e-07
1.38763e-06
1.14176e-06
8.86083e-06
1.19764e-05
5.951e-06
5.90945e-07
4.52988e-07
6.16986e-07
8.01698e-05
9.23257e-05
1.16019e-05
7.1493e-07
6.89199e-07
6.77544e-07
7.20401e-07
5.41498e-06
9.39304e-06
3.94184e-06
2.46269e-05
4.35917e-05
2.11131e-05
1.85814e-06
1.84748e-06
1.8833e-06
1.9885e-06
6.43625e-06
5.4155e-05
6.46322e-05
6.45996e-05
6.44929e-05
6.42434e-05
4.47461e-05
1.09841e-05
8.24925e-05
0.000150438
0.000150245
0.000148857
0.000114454
3.12328e-06
1.6657e-06
1.73826e-06
3.76554e-06
3.98376e-06
4.93722e-06
6.30264e-06
1.39528e-05
2.99997e-05
3.65993e-05
3.48766e-05
3.23072e-05
3.26876e-05
3.43454e-05
3.96522e-05
2.08412e-05
1.96111e-05
1.89559e-05
1.55761e-05
2.63484e-05
4.47106e-05
7.10508e-05
9.91991e-05
0.000104052
0.000107217
0.00010959
0.000109661
0.00010959
0.000108902
0.000107626
0.000106257
6.04076e-05
4.34284e-07
4.39057e-09
4.39057e-09
4.38813e-09
4.53386e-09
7.73776e-09
3.64517e-08
2.17662e-07
4.31327e-07
1.88659e-06
8.15577e-06
1.16525e-05
1.19121e-05
1.19318e-05
8.55702e-06
4.8088e-07
2.63355e-07
4.52988e-07
0.000170486
0.00015017
1.0183e-05
1.15061e-06
1.28906e-06
2.37002e-07
1.30317e-08
6.91382e-09
2.52845e-07
2.86387e-07
2.25751e-05
0.000111238
1.93378e-05
1.83527e-06
1.83434e-06
1.84748e-06
1.91225e-06
2.3016e-06
3.27421e-05
6.46211e-05
6.44929e-05
6.42112e-05
6.37451e-05
5.24538e-05
1.87196e-05
8.90922e-05
0.000150534
0.000150845
0.000150286
0.000135919
1.96465e-05
1.79881e-06
2.39502e-06
3.46818e-05
6.6721e-05
2.7434e-05
8.70855e-06
1.43474e-05
1.81516e-05
2.24705e-05
4.50455e-05
0.000152603
0.000159962
0.000115535
5.47103e-05
6.61772e-05
3.96509e-05
1.50166e-05
1.08598e-05
1.00889e-05
9.41444e-06
8.59906e-06
1.76593e-05
6.3786e-05
0.000108112
0.00010915
0.00010959
9.2279e-05
0.000103625
0.000106257
0.000103527
0.000100637
5.83857e-05
6.54647e-09
4.39057e-09
4.53386e-09
6.0279e-09
6.07062e-08
1.39623e-06
1.01892e-05
1.3671e-05
1.71424e-06
5.56118e-07
4.96841e-07
5.05865e-07
6.31702e-07
5.74646e-07
2.15556e-07
2.66086e-07
9.65873e-05
0.000250143
0.000253208
3.51454e-05
2.02879e-06
2.14451e-06
1.10004e-07
6.91382e-09
5.1848e-09
2.14363e-06
5.4416e-06
2.85103e-05
0.000111272
1.32205e-05
1.8295e-06
1.82988e-06
1.83434e-06
1.86148e-06
2.03803e-06
1.41556e-05
6.44105e-05
6.41692e-05
4.89222e-05
3.90041e-05
4.49681e-05
3.91976e-05
5.99624e-05
0.00013188
0.000150497
0.000150927
0.000150361
0.000131852
2.67124e-05
7.01565e-06
1.34524e-05
7.4329e-05
0.000113111
9.81063e-05
0.000126819
0.000135083
0.000137967
0.000159484
0.000159984
0.000159984
0.000159984
0.000159979
0.000159824
0.000159779
0.000120263
4.65858e-05
9.41457e-06
8.5992e-06
8.21725e-06
7.83795e-06
7.08709e-06
5.10596e-05
0.000108112
0.00010915
2.4966e-05
7.65355e-06
2.62792e-05
7.76288e-05
9.84961e-05
9.51373e-05
3.25669e-05
6.54647e-09
6.02791e-09
1.19269e-08
1.2403e-07
2.92484e-05
0.000104474
0.000110638
5.74158e-05
1.10728e-05
4.82021e-07
2.82051e-07
2.04928e-07
1.93137e-07
1.95459e-07
1.19411e-05
0.000234889
0.000253208
0.000253623
0.000246221
3.71513e-05
9.00596e-08
8.59431e-09
5.20606e-09
5.20606e-09
1.12216e-06
6.74425e-06
2.13257e-05
0.000111232
1.14569e-05
1.82833e-06
1.82856e-06
1.82988e-06
1.84091e-06
1.92872e-06
8.80641e-06
5.00155e-05
3.86778e-05
5.01152e-06
5.34118e-06
3.43444e-05
4.66154e-05
2.11235e-05
2.34321e-05
0.000132296
0.000150655
0.00015121
0.000150537
0.000148866
0.000123572
0.000107768
0.000101676
0.000124414
0.000151693
0.00015415
0.000157682
0.000159305
0.000159608
0.000159653
0.000159984
0.000159977
0.000159812
0.000159834
0.000159695
0.000159751
0.000159718
3.44374e-05
1.19957e-05
8.88554e-06
7.09973e-06
6.66995e-06
5.45154e-06
5.81732e-05
8.17915e-05
2.60961e-05
3.51944e-07
2.68161e-07
2.25423e-07
5.32192e-05
9.26016e-05
9.02583e-05
4.57609e-07
1.19272e-08
2.01449e-08
3.71182e-06
8.77543e-05
0.000111383
0.000111656
0.000110638
7.48846e-05
2.35164e-05
1.5316e-06
2.82051e-07
2.04928e-07
1.93722e-07
2.17084e-07
0.000230718
0.000253623
0.000253623
0.000253623
0.00014302
5.98129e-07
1.32141e-08
5.41161e-09
5.14483e-09
4.72653e-08
3.51506e-06
1.38449e-05
0.000110898
1.27092e-05
1.82856e-06
1.82848e-06
1.82856e-06
1.83576e-06
1.88647e-06
7.58385e-06
3.14864e-05
1.85834e-05
5.11742e-06
5.01202e-06
5.34118e-06
6.45054e-06
6.34369e-06
5.80162e-06
1.56556e-05
0.000106758
0.000150686
0.000150906
0.000150537
0.000149135
0.000147385
0.000146082
0.000145712
0.000140786
0.000114877
0.000132173
0.000157962
0.0001386
9.17238e-05
9.21866e-05
0.00010213
0.000127762
0.000159659
0.000159737
0.000159671
0.000159343
9.39522e-05
1.31039e-05
1.05976e-05
7.04577e-06
5.45586e-06
4.98415e-06
4.02781e-06
2.06845e-06
9.37313e-06
1.03362e-06
2.25423e-07
2.22284e-07
2.22107e-07
5.22902e-05
8.95251e-05
3.55907e-05
2.17682e-08
1.09203e-07
7.69934e-06
0.000107835
0.000111656
0.000110745
6.00096e-05
7.58296e-05
7.58195e-05
5.79526e-05
2.84561e-05
4.28019e-06
2.17084e-07
2.7924e-07
0.00013668
0.000253616
0.000253623
0.000253616
0.000134755
2.15302e-07
1.95909e-08
5.742e-09
4.53378e-09
1.29686e-09
2.04542e-06
8.08952e-06
0.000109738
1.57407e-05
1.82856e-06
3.83249e-05
2.44567e-06
1.88653e-06
1.92462e-06
4.95464e-06
1.81133e-05
1.58155e-05
5.96828e-06
3.10594e-05
5.91646e-05
3.66308e-05
7.31217e-06
5.80162e-06
5.76231e-06
9.10633e-06
4.91892e-05
0.000110527
0.000144463
0.000147469
0.000147521
0.000147183
0.000146082
0.000145713
0.000141662
0.000138347
0.00013753
6.61444e-05
6.54822e-05
6.52669e-05
6.52669e-05
6.52669e-05
0.000120687
0.000159502
0.000159343
0.000158057
7.98878e-05
1.0011e-05
7.76123e-06
6.45131e-06
4.98415e-06
4.02788e-06
2.06852e-06
6.44145e-07
2.78213e-07
2.32412e-07
2.22841e-07
2.22107e-07
2.2203e-07
2.22071e-07
7.40226e-05
9.40058e-05
8.03505e-06
2.35659e-07
3.16226e-06
8.43407e-05
0.000111204
2.5902e-05
5.29731e-08
1.32472e-05
7.49813e-05
9.37209e-05
9.42921e-05
7.40063e-05
1.08788e-05
3.17186e-07
3.19303e-06
0.000194112
0.000253616
0.000214305
4.80524e-05
2.08161e-07
2.16451e-08
3.74668e-09
1.43218e-09
1.04925e-09
1.97224e-06
3.29166e-06
6.53732e-05
2.2135e-05
4.78842e-05
9.90074e-05
5.90441e-05
1.92432e-06
1.85819e-06
2.07893e-06
4.89578e-06
4.77985e-06
2.71159e-05
0.000100569
0.000100569
0.000100884
0.000100539
6.72534e-05
2.28711e-05
1.2138e-05
1.34123e-05
1.68403e-05
2.26502e-05
4.81749e-05
6.53996e-05
8.14846e-05
0.000103891
0.000142931
0.000138335
0.000135821
0.00011232
0.000118434
0.00011939
0.000112057
6.67446e-05
8.21679e-05
0.000152617
0.000156854
0.000157967
0.000113884
1.57076e-05
9.09181e-06
8.14516e-06
7.37544e-06
7.11431e-06
7.863e-06
1.98605e-05
1.6804e-05
2.506e-06
2.85911e-07
2.26715e-07
2.22683e-07
2.22107e-07
2.22071e-07
2.80407e-06
9.40534e-05
3.92946e-05
3.74063e-07
7.28713e-07
5.37391e-05
0.000103927
1.99808e-08
2.13884e-08
5.29731e-08
2.66808e-07
5.76003e-05
9.59568e-05
9.59568e-05
8.07042e-05
1.19807e-05
4.86486e-06
1.18431e-05
7.58309e-05
2.90779e-05
4.69434e-06
5.45045e-07
1.73336e-08
2.5614e-09
1.04815e-09
9.21158e-10
2.01028e-06
6.42747e-06
1.28192e-05
1.8245e-05
9.90074e-05
0.000101187
0.000100521
5.93566e-05
2.96594e-06
1.24945e-06
1.11909e-06
1.55507e-06
3.59461e-05
0.000100102
0.000100887
8.87587e-05
5.742e-05
7.85216e-05
7.85216e-05
7.78184e-05
7.63581e-05
2.43581e-05
2.00503e-05
2.00817e-05
2.21159e-05
2.5691e-05
2.93406e-05
3.36658e-05
6.48287e-05
0.000133085
7.02188e-05
6.45391e-05
7.46861e-05
0.000131636
0.000133922
0.000137342
0.000145823
0.000137571
7.6099e-05
1.43337e-05
1.14461e-05
9.91586e-06
8.88439e-06
8.14558e-06
9.32594e-06
1.67816e-05
5.46847e-05
5.45295e-05
2.26736e-05
3.5962e-07
2.40357e-07
2.24956e-07
2.22627e-07
2.22111e-07
2.22631e-07
3.46864e-05
8.50048e-05
9.40591e-06
9.86048e-07
2.66101e-05
2.95927e-05
1.50118e-08
1.99808e-08
3.73945e-07
1.15698e-06
1.8925e-06
3.08261e-05
8.7375e-05
8.40468e-05
6.98445e-05
1.49451e-05
7.13616e-06
4.66815e-06
1.49459e-06
4.09624e-07
2.57237e-07
1.44047e-08
1.7531e-09
9.20399e-10
8.67939e-10
1.62524e-06
1.23154e-05
2.24429e-05
9.35563e-06
0.000101187
0.000101727
0.000102081
0.000101485
5.96749e-05
1.11909e-06
9.23424e-07
1.11909e-06
2.17843e-05
0.000100044
8.86671e-05
2.09723e-06
2.48322e-06
8.04833e-06
2.51744e-05
2.41201e-05
2.71845e-05
2.00503e-05
2.00503e-05
2.00503e-05
2.42349e-05
7.28873e-05
8.27305e-05
8.31962e-05
8.25782e-05
6.73876e-05
6.45391e-05
6.37948e-05
6.37597e-05
6.37869e-05
8.88199e-05
0.000101729
2.83215e-05
1.79192e-05
1.71893e-05
1.679e-05
1.43774e-05
1.14382e-05
1.14022e-05
8.88772e-06
9.18537e-06
3.82881e-05
5.57948e-05
5.49292e-05
3.51584e-05
8.21087e-07
2.55436e-07
2.29768e-07
2.24956e-07
2.22631e-07
2.2262e-07
2.23235e-07
0.000108341
4.67985e-05
1.44411e-06
2.78862e-06
1.50118e-08
1.00452e-08
1.50118e-08
1.13931e-06
1.30616e-05
2.68667e-05
3.4574e-05
3.43369e-05
6.32013e-05
8.16186e-05
8.62079e-05
6.63695e-05
4.94679e-06
4.29149e-07
1.05275e-07
2.10003e-08
4.15477e-09
1.18591e-09
8.67472e-10
8.62236e-10
1.38613e-06
1.11642e-05
7.03064e-05
5.33971e-06
8.23567e-05
0.000102081
0.000102409
0.000102422
0.000101836
2.02404e-05
8.36805e-07
9.23424e-07
1.40033e-05
8.14801e-05
2.45557e-05
1.8354e-06
2.08833e-06
7.92212e-06
1.80445e-05
2.59983e-05
2.74958e-05
3.79803e-05
3.72857e-05
3.0867e-05
2.65125e-05
3.17835e-05
5.95524e-05
8.31394e-05
7.90409e-05
9.3125e-05
9.59878e-05
9.84919e-05
9.95798e-05
9.95691e-05
5.63857e-05
2.06653e-05
1.88741e-05
1.83985e-05
1.77167e-05
1.71768e-05
2.47436e-05
3.40638e-05
2.95894e-05
9.97077e-06
9.85687e-06
5.40263e-05
5.63091e-05
5.57948e-05
1.5484e-05
3.38965e-07
2.50378e-07
2.3731e-07
2.29786e-07
2.25725e-07
2.23235e-07
2.23512e-07
0.000113596
7.51254e-05
3.44212e-06
2.99507e-06
8.67523e-06
1.00452e-08
6.00292e-09
6.45797e-08
1.02222e-05
9.18116e-05
0.000113624
0.000115339
0.000161175
0.000166115
0.000129513
0.000116392
8.2674e-05
5.46474e-06
2.18287e-07
3.13888e-08
4.57891e-09
1.17693e-09
8.67025e-10
8.67939e-10
6.97404e-07
8.05646e-06
7.0582e-05
5.13222e-06
1.68594e-05
9.92628e-05
0.000102422
0.000102472
0.000102523
9.47272e-05
8.16293e-07
8.36805e-07
9.52472e-06
4.90471e-05
1.56524e-06
1.56524e-06
2.554e-06
1.57435e-05
3.25391e-05
8.35468e-05
0.000102877
0.000140655
0.000140981
0.000139931
7.61303e-05
4.30016e-05
4.96624e-05
5.16038e-05
5.17695e-05
7.97125e-05
9.8979e-05
9.96059e-05
9.96061e-05
9.96062e-05
7.35512e-05
2.24407e-05
2.01443e-05
1.88804e-05
1.84009e-05
2.69533e-05
0.000139948
0.000146544
2.94126e-05
1.21556e-05
2.07704e-05
6.08881e-05
5.88043e-05
1.55042e-05
3.44855e-07
2.54864e-07
2.45701e-07
2.4373e-07
2.37103e-07
2.61609e-07
2.33211e-07
2.24703e-07
0.000122059
0.000101681
5.58423e-06
3.03017e-06
1.34974e-05
1.26204e-08
1.9083e-09
1.91918e-09
1.92753e-09
3.00295e-05
0.000106287
0.000161287
0.000163874
0.000201367
0.000208848
0.000185137
0.000129503
3.66191e-05
7.26358e-07
9.6238e-08
1.1208e-08
1.70089e-09
8.86266e-10
8.64698e-10
4.39001e-08
1.70585e-06
7.07196e-05
5.10383e-06
5.09863e-06
3.10122e-05
8.1733e-05
0.000102523
0.000102523
9.27163e-05
7.77835e-07
1.07774e-06
2.88669e-05
4.49907e-05
1.56467e-06
1.56524e-06
7.57969e-06
1.56553e-05
2.33829e-05
2.39243e-05
2.81216e-05
3.80751e-05
0.000126195
0.000164252
0.000164252
0.000164381
0.000164483
0.000113207
5.30205e-05
5.97685e-05
8.02629e-05
9.90224e-05
9.96059e-05
8.82482e-05
4.83477e-05
2.73399e-05
2.24566e-05
2.3503e-05
6.81837e-05
0.000162336
0.000159502
0.000156406
3.14162e-05
1.51847e-05
6.25137e-05
6.15138e-05
2.91848e-05
1.40632e-07
2.69178e-07
2.62742e-07
2.48139e-07
2.45825e-07
2.44798e-07
1.46796e-05
1.08939e-05
5.63172e-05
0.000167302
0.000140204
9.74765e-06
2.49219e-06
1.41757e-05
8.1342e-08
1.96083e-09
1.96073e-09
1.96124e-09
1.96405e-09
2.0003e-09
4.79965e-06
7.79247e-06
0.000105131
0.000216226
0.000219396
0.000222568
0.000108463
3.44855e-06
2.23269e-07
2.26362e-08
2.63937e-09
9.64297e-10
8.90697e-10
9.76221e-10
1.07019e-08
7.33825e-05
5.96968e-06
5.62343e-06
5.28844e-06
1.23627e-05
8.87953e-05
0.000102523
4.19905e-05
6.49528e-07
7.07925e-06
5.07216e-05
4.55308e-05
1.56524e-06
1.74483e-06
2.51112e-05
0.000110872
0.000127642
5.11647e-05
2.18866e-05
2.19444e-05
2.19182e-05
0.00016005
0.000164284
0.000164386
0.000164483
0.000164585
0.00016323
6.71854e-05
6.92038e-05
7.23493e-05
7.29544e-05
0.000156842
0.000164686
0.000140306
0.000117528
0.0001647
0.000163833
0.000162739
0.000162336
7.98538e-05
3.22977e-05
5.86944e-05
6.3684e-05
5.5196e-05
1.2492e-06
1.86053e-08
2.6085e-07
5.50203e-07
2.55012e-07
2.48142e-07
6.47729e-06
0.000131427
0.000167095
0.000167681
0.000167698
0.000167533
3.33517e-05
1.47849e-06
1.42e-05
1.59238e-07
1.96083e-09
1.96124e-09
1.96405e-09
1.97847e-09
2.1902e-09
1.13663e-08
2.62446e-07
6.01222e-07
9.42852e-05
0.000222568
0.000222568
0.000219126
3.45641e-05
4.50759e-07
3.93774e-08
3.72827e-09
1.10633e-09
9.51853e-10
1.04075e-09
4.81187e-08
8.15917e-05
2.45856e-05
5.6288e-06
3.35048e-06
3.56819e-06
1.50493e-05
6.88276e-05
9.08568e-06
5.4883e-07
4.77984e-06
5.07216e-05
4.70597e-05
1.74483e-06
7.31504e-06
0.000109107
0.000131452
0.000131514
0.0001312
3.19004e-05
2.18714e-05
2.20485e-05
5.56242e-05
0.0001641
0.000164482
0.000164585
0.000164598
0.00016461
0.000127601
7.23478e-05
7.66776e-05
0.000164675
0.000164895
0.00016487
0.000164841
0.000164837
0.000164831
0.000164667
0.000163798
7.70883e-05
5.03987e-05
5.74351e-05
6.69809e-05
6.29277e-05
1.29935e-06
7.35171e-08
1.26715e-08
4.3385e-07
5.47141e-07
4.38762e-07
2.77095e-07
5.5238e-05
0.000167095
0.000167681
0.000167733
0.000167716
0.000167698
2.60906e-05
1.20768e-06
1.41757e-05
1.82999e-07
1.97726e-09
1.97308e-09
1.97786e-09
2.05283e-09
3.23154e-09
4.91418e-08
3.9592e-07
1.00613e-06
1.68374e-06
0.000175559
0.000223594
0.000224943
8.02092e-05
5.43164e-07
4.56361e-08
3.30492e-09
9.52719e-10
8.24061e-10
8.86254e-10
7.56306e-07
8.69352e-05
2.49822e-05
3.53294e-06
2.8473e-06
2.54695e-06
2.56259e-06
4.38031e-06
1.25968e-06
4.46436e-07
7.91105e-07
7.9095e-06
3.06541e-05
1.10947e-06
2.41629e-05
0.000131432
0.000131563
0.000131432
0.000131301
0.000124964
2.22618e-05
2.30116e-05
3.71138e-05
0.000162905
0.000164219
0.000164495
0.00016461
0.00016461
0.00016461
0.000156813
0.000164747
0.000164819
0.000164864
0.00016484
0.000164838
0.00016483
0.000164667
0.000140132
3.57049e-05
3.49152e-05
6.02829e-05
7.05198e-05
6.2517e-05
2.71655e-07
5.77633e-07
6.42427e-07
1.10222e-08
9.34926e-08
5.31194e-07
4.93588e-07
3.38633e-06
4.11913e-06
0.000135926
0.000167725
0.000167725
0.000167727
0.000104563
4.23789e-06
1.13549e-06
7.15832e-06
2.26696e-07
2.80294e-09
2.41539e-09
1.99219e-09
2.33427e-09
7.10311e-09
2.21774e-07
1.38993e-06
1.68374e-06
3.56554e-06
0.000149354
0.000224943
0.000225177
9.45202e-05
4.20784e-07
3.03546e-08
2.29681e-09
8.12818e-10
7.77789e-10
8.23963e-10
2.7199e-06
8.69353e-05
2.49275e-05
2.84891e-06
2.51061e-06
2.03309e-06
1.51798e-06
7.49456e-07
3.25371e-07
2.89361e-07
1.52025e-06
1.31475e-06
9.5725e-07
4.39148e-07
7.47888e-06
9.78722e-05
0.000131432
0.000131301
0.000130969
0.000130401
5.96264e-05
2.44742e-05
2.60848e-05
5.60362e-05
0.000144123
0.000163743
0.000164489
0.00016461
0.00016446