/*--------------------------------*- C++ -*----------------------------------*\
| =========                 |                                                 |
| \\      /  F ield         | OpenFOAM: The Open Source CFD Toolbox           |
|  \\    /   O peration     | Version:  2412                                  |
|   \\  /    A nd           | Website:  www.openfoam.com                      |
|    \\/     M anipulation  |                                                 |
\*---------------------------------------------------------------------------*/
FoamFile
{
    version     2.0;
    format      ascii;
    arch        "LSB;label=32;scalar=64";
    class       volScalarField;
    location    "10";
    object      p_rgh;
}
// * * * * * * * * * * * * * * * * * * * * * * * * * * * * * * * * * * * * * //

dimensions      [1 -1 -2 0 0 0 0];

internalField   nonuniform List<scalar> 
6400
(
12413.4
12413.3
12413.3
12413.3
12413.3
12413.4
12413.4
12413.5
12413.6
12413.8
12413.9
12414.2
12414.4
12414.7
12414.9
12415.2
12415.5
12415.8
12416.1
12416.4
12416.6
12416.7
12416.8
12416.7
12416.5
12416.2
12415.6
12414.9
12414
12412.9
12411.7
12410.3
12408.8
12407.3
12405.8
12404.4
12403.2
12402.3
12401.6
12401.3
12401.4
12401.8
12402.5
12403.6
12404.8
12406.2
12407.7
12409.3
12410.7
12412.1
12413.3
12414.4
12415.3
12415.9
12416.4
12416.8
12416.9
12417
12416.9
12416.8
12416.6
12416.3
12416
12415.7
12415.4
12415.1
12414.8
12414.6
12414.4
12414.2
12414
12413.8
12413.7
12413.6
12413.5
12413.5
12413.5
12413.5
12413.5
12413.5
12413.4
12413.3
12413.3
12413.3
12413.3
12413.4
12413.5
12413.5
12413.7
12413.8
12414
12414.2
12414.4
12414.6
12414.9
12415.1
12415.4
12415.7
12415.9
12416.1
12416.3
12416.4
12416.4
12416.3
12416.1
12415.7
12415.2
12414.5
12413.6
12412.6
12411.5
12410.2
12408.9
12407.6
12406.2
12405
12404
12403.1
12402.6
12402.3
12402.4
12402.7
12403.4
12404.3
12405.4
12406.6
12408
12409.3
12410.7
12411.9
12413
12414
12414.8
12415.5
12416
12416.3
12416.5
12416.6
12416.6
12416.5
12416.3
12416.1
12415.9
12415.6
12415.3
12415.1
12414.8
12414.6
12414.4
12414.2
12414
12413.9
12413.7
12413.6
12413.6
12413.5
12413.5
12413.5
12413.5
12413.5
12413.4
12413.4
12413.3
12413.4
12413.4
12413.4
12413.5
12413.6
12413.7
12413.8
12414
12414.2
12414.4
12414.6
12414.8
12415.1
12415.3
12415.5
12415.7
12415.9
12416
12416.1
12416
12415.9
12415.7
12415.3
12414.8
12414.1
12413.4
12412.4
12411.4
12410.2
12409
12407.8
12406.6
12405.6
12404.6
12403.9
12403.4
12403.2
12403.2
12403.5
12404.1
12404.9
12405.9
12407
12408.2
12409.4
12410.6
12411.7
12412.8
12413.7
12414.5
12415.1
12415.6
12415.9
12416.2
12416.3
12416.3
12416.2
12416.1
12415.9
12415.7
12415.5
12415.2
12415
12414.8
12414.5
12414.3
12414.2
12414
12413.9
12413.8
12413.7
12413.6
12413.6
12413.5
12413.5
12413.5
12413.6
12413.4
12413.4
12413.4
12413.4
12413.4
12413.4
12413.5
12413.6
12413.7
12413.8
12414
12414.1
12414.3
12414.5
12414.7
12415
12415.2
12415.4
12415.6
12415.7
12415.8
12415.9
12415.8
12415.7
12415.4
12415.1
12414.6
12414
12413.2
12412.3
12411.3
12410.3
12409.1
12408
12406.9
12405.9
12405
12404.3
12403.9
12403.7
12403.7
12404
12404.5
12405.3
12406.2
12407.2
12408.4
12409.5
12410.6
12411.7
12412.7
12413.5
12414.3
12414.9
12415.3
12415.7
12415.9
12416
12416.1
12416
12415.9
12415.8
12415.6
12415.4
12415.1
12414.9
12414.7
12414.5
12414.3
12414.1
12414
12413.9
12413.7
12413.7
12413.6
12413.6
12413.5
12413.5
12413.5
12413.6
12413.4
12413.4
12413.3
12413.3
12413.4
12413.4
12413.5
12413.5
12413.6
12413.8
12413.9
12414.1
12414.3
12414.5
12414.7
12414.9
12415.1
12415.3
12415.5
12415.6
12415.7
12415.7
12415.7
12415.6
12415.3
12415
12414.5
12413.9
12413.2
12412.4
12411.4
12410.4
12409.3
12408.2
12407.1
12406.1
12405.3
12404.6
12404.1
12403.9
12403.9
12404.2
12404.8
12405.5
12406.4
12407.4
12408.5
12409.6
12410.7
12411.8
12412.7
12413.5
12414.2
12414.8
12415.3
12415.6
12415.8
12415.9
12415.9
12415.9
12415.8
12415.7
12415.5
12415.3
12415.1
12414.9
12414.6
12414.4
12414.3
12414.1
12413.9
12413.8
12413.7
12413.6
12413.6
12413.5
12413.5
12413.5
12413.5
12413.6
12413.4
12413.3
12413.3
12413.3
12413.3
12413.4
12413.4
12413.5
12413.6
12413.7
12413.8
12414
12414.2
12414.4
12414.6
12414.8
12415
12415.2
12415.4
12415.5
12415.6
12415.7
12415.7
12415.5
12415.3
12415
12414.6
12414
12413.3
12412.5
12411.5
12410.5
12409.4
12408.3
12407.2
12406.2
12405.3
12404.6
12404.1
12403.9
12403.9
12404.2
12404.8
12405.5
12406.5
12407.5
12408.7
12409.8
12410.9
12411.9
12412.8
12413.6
12414.3
12414.8
12415.3
12415.6
12415.8
12415.9
12415.9
12415.8
12415.7
12415.6
12415.4
12415.2
12415
12414.8
12414.6
12414.4
12414.2
12414
12413.9
12413.8
12413.7
12413.6
12413.5
12413.5
12413.5
12413.5
12413.5
12413.5
12413.3
12413.3
12413.2
12413.2
12413.3
12413.3
12413.3
12413.4
12413.5
12413.6
12413.8
12413.9
12414.1
12414.3
12414.5
12414.7
12414.9
12415.2
12415.3
12415.5
12415.6
12415.7
12415.7
12415.6
12415.4
12415.2
12414.8
12414.2
12413.5
12412.7
12411.8
12410.7
12409.6
12408.4
12407.2
12406.1
12405.2
12404.4
12403.9
12403.6
12403.7
12404
12404.6
12405.5
12406.5
12407.6
12408.8
12410
12411.1
12412.1
12413.1
12413.9
12414.5
12415
12415.4
12415.7
12415.8
12415.9
12415.9
12415.8
12415.7
12415.5
12415.3
12415.1
12414.9
12414.7
12414.5
12414.3
12414.1
12413.9
12413.8
12413.7
12413.6
12413.5
12413.5
12413.4
12413.4
12413.4
12413.4
12413.5
12413.2
12413.2
12413.2
12413.2
12413.2
12413.2
12413.3
12413.3
12413.4
12413.5
12413.7
12413.8
12414
12414.2
12414.4
12414.7
12414.9
12415.1
12415.3
12415.5
12415.7
12415.8
12415.8
12415.8
12415.7
12415.4
12415.1
12414.6
12413.9
12413.1
12412.1
12411
12409.8
12408.5
12407.2
12405.9
12404.8
12404
12403.4
12403.1
12403.1
12403.5
12404.2
12405.2
12406.3
12407.6
12408.9
12410.2
12411.4
12412.5
12413.5
12414.2
12414.9
12415.3
12415.7
12415.9
12416
12416
12416
12415.9
12415.7
12415.5
12415.3
12415.1
12414.8
12414.6
12414.4
12414.2
12414
12413.8
12413.7
12413.6
12413.5
12413.4
12413.4
12413.3
12413.3
12413.3
12413.3
12413.4
12413.2
12413.1
12413.1
12413.1
12413.1
12413.1
12413.2
12413.2
12413.3
12413.4
12413.6
12413.7
12413.9
12414.1
12414.3
12414.6
12414.8
12415.1
12415.4
12415.6
12415.8
12415.9
12416
12416.1
12416
12415.8
12415.5
12415.1
12414.4
12413.6
12412.6
12411.4
12410
12408.5
12407
12405.6
12404.3
12403.2
12402.5
12402.2
12402.2
12402.7
12403.5
12404.7
12406
12407.5
12409
12410.4
12411.8
12413
12414
12414.8
12415.4
12415.8
12416.1
12416.2
12416.3
12416.2
12416.1
12416
12415.8
12415.5
12415.3
12415
12414.8
12414.5
12414.3
12414.1
12413.9
12413.7
12413.6
12413.5
12413.4
12413.3
12413.3
12413.3
12413.3
12413.2
12413.3
12413.3
12413.1
12413
12413
12413
12413
12413
12413
12413.1
12413.2
12413.3
12413.4
12413.6
12413.8
12414
12414.3
12414.5
12414.8
12415.1
12415.4
12415.7
12416
12416.2
12416.4
12416.5
12416.5
12416.4
12416.1
12415.7
12415.1
12414.3
12413.2
12411.9
12410.4
12408.6
12406.8
12405.1
12403.5
12402.2
12401.2
12400.8
12400.9
12401.5
12402.5
12403.9
12405.5
12407.3
12409.1
12410.8
12412.3
12413.6
12414.6
12415.4
12416
12416.4
12416.6
12416.7
12416.6
12416.5
12416.3
12416.1
12415.8
12415.6
12415.3
12415
12414.7
12414.4
12414.2
12414
12413.8
12413.6
12413.5
12413.4
12413.3
12413.2
12413.2
12413.2
12413.2
12413.2
12413.2
12413.2
12413
12412.9
12412.9
12412.9
12412.9
12412.9
12412.9
12412.9
12413
12413.1
12413.2
12413.4
12413.6
12413.9
12414.2
12414.5
12414.8
12415.1
12415.5
12415.8
12416.2
12416.5
12416.7
12416.9
12417.1
12417.1
12416.9
12416.6
12416.1
12415.3
12414.1
12412.7
12410.9
12408.8
12406.6
12404.4
12402.3
12400.6
12399.5
12398.9
12399
12399.8
12401.1
12402.9
12404.9
12407.1
12409.2
12411.2
12412.9
12414.4
12415.5
12416.3
12416.8
12417.1
12417.2
12417.2
12417
12416.8
12416.6
12416.3
12415.9
12415.6
12415.3
12414.9
12414.6
12414.3
12414.1
12413.8
12413.6
12413.4
12413.3
12413.2
12413.2
12413.1
12413.1
12413.1
12413.1
12413.1
12413.1
12413.1
12412.9
12412.9
12412.8
12412.8
12412.8
12412.7
12412.7
12412.7
12412.8
12412.8
12413
12413.2
12413.4
12413.7
12414
12414.3
12414.7
12415.1
12415.5
12415.9
12416.3
12416.7
12417.1
12417.5
12417.7
12417.9
12417.9
12417.7
12417.3
12416.5
12415.4
12413.7
12411.7
12409.2
12406.4
12403.6
12401
12398.8
12397.3
12396.5
12396.7
12397.6
12399.4
12401.6
12404.3
12407.1
12409.7
12412.1
12414
12415.5
12416.7
12417.4
12417.8
12418
12418
12417.8
12417.5
12417.2
12416.8
12416.4
12416
12415.6
12415.2
12414.8
12414.5
12414.1
12413.8
12413.6
12413.4
12413.2
12413.1
12413
12412.9
12412.9
12412.9
12413
12413
12413
12413.1
12413.1
12412.9
12412.8
12412.8
12412.7
12412.6
12412.5
12412.4
12412.4
12412.4
12412.5
12412.6
12412.8
12413
12413.3
12413.6
12414
12414.4
12414.9
12415.4
12415.9
12416.4
12417
12417.5
12418
12418.4
12418.8
12419
12419
12418.8
12418.1
12417
12415.2
12412.8
12409.8
12406.3
12402.8
12399.4
12396.6
12394.6
12393.7
12393.8
12395.1
12397.3
12400.3
12403.8
12407.4
12410.7
12413.5
12415.7
12417.3
12418.3
12418.9
12419.1
12419.1
12418.8
12418.5
12418
12417.5
12417
12416.5
12416
12415.5
12415
12414.6
12414.2
12413.8
12413.5
12413.2
12413
12412.8
12412.7
12412.6
12412.6
12412.6
12412.7
12412.8
12412.9
12412.9
12413
12413
12412.9
12412.8
12412.7
12412.6
12412.4
12412.3
12412.1
12412
12412
12412
12412.1
12412.3
12412.5
12412.8
12413.2
12413.6
12414
12414.6
12415.1
12415.7
12416.4
12417
12417.7
12418.4
12419.1
12419.7
12420.2
12420.5
12420.6
12420.2
12419.1
12417.3
12414.6
12410.9
12406.5
12402
12397.6
12394.1
12391.5
12390.2
12390.3
12391.9
12394.9
12398.9
12403.5
12408.2
12412.5
12415.8
12418.3
12419.8
12420.6
12420.9
12420.8
12420.4
12419.9
12419.2
12418.5
12417.8
12417.2
12416.5
12415.9
12415.3
12414.7
12414.2
12413.7
12413.3
12413
12412.7
12412.4
12412.3
12412.2
12412.1
12412.1
12412.2
12412.3
12412.5
12412.6
12412.8
12412.9
12412.9
12413
12412.9
12412.8
12412.6
12412.3
12412
12411.8
12411.6
12411.5
12411.5
12411.5
12411.7
12411.9
12412.2
12412.6
12413.1
12413.6
12414.2
12414.8
12415.5
12416.3
12417.1
12418
12418.9
12419.8
12420.7
12421.6
12422.3
12422.8
12422.8
12422
12420.3
12417.1
12412.6
12407.1
12401.1
12395.4
12390.8
12387.5
12385.7
12385.7
12387.7
12391.5
12396.8
12403
12409.4
12414.9
12419.1
12421.8
12423.1
12423.5
12423.4
12422.8
12422
12421.1
12420.1
12419.1
12418.2
12417.3
12416.5
12415.7
12415
12414.4
12413.8
12413.2
12412.8
12412.4
12412.1
12411.8
12411.6
12411.5
12411.5
12411.6
12411.7
12411.9
12412.2
12412.5
12412.7
12412.9
12413
12413.3
12413.2
12412.9
12412.6
12412.2
12411.9
12411.6
12411.4
12411.3
12411.2
12411.3
12411.5
12411.8
12412.1
12412.5
12413.1
12413.6
12414.3
12415
12415.8
12416.7
12417.7
12418.7
12419.8
12421
12422.2
12423.5
12424.7
12425.7
12426.2
12426
12424.4
12420.9
12415.2
12407.8
12399.6
12391.9
12385.7
12381.4
12379
12378.8
12381.1
12385.9
12393
12401.5
12410.2
12417.6
12422.9
12425.8
12426.9
12426.8
12426.1
12425
12423.7
12422.4
12421.2
12419.9
12418.8
12417.8
12416.9
12416
12415.2
12414.5
12413.8
12413.2
12412.7
12412.3
12411.9
12411.6
12411.4
12411.3
12411.3
12411.4
12411.6
12411.9
12412.2
12412.5
12412.9
12413.1
12413.3
12413.8
12413.7
12413.1
12412.6
12412.2
12411.9
12411.6
12411.4
12411.3
12411.3
12411.4
12411.6
12411.9
12412.4
12412.9
12413.5
12414.1
12414.9
12415.7
12416.6
12417.5
12418.6
12419.8
12421.1
12422.5
12424.1
12425.8
12427.6
12429.3
12430.7
12431.3
12430.4
12426.5
12418.8
12408.2
12396.1
12385.1
12376.4
12371
12368
12367.7
12370.8
12377.3
12386.9
12398.5
12410.7
12420.7
12427.4
12430.5
12431
12430.1
12428.7
12427.1
12425.4
12423.7
12422.2
12420.8
12419.6
12418.5
12417.5
12416.6
12415.8
12415
12414.3
12413.7
12413.1
12412.6
12412.2
12411.9
12411.6
12411.5
12411.5
12411.6
12411.9
12412.2
12412.6
12413
12413.5
12413.8
12414
12414.7
12414.6
12413.6
12412.7
12412.1
12411.7
12411.3
12411.1
12411
12411.1
12411.3
12411.5
12411.9
12412.4
12413
12413.7
12414.4
12415.2
12416.1
12417.1
12418.2
12419.4
12420.7
12422.2
12423.9
12425.9
12428.3
12430.9
12433.7
12436.7
12439.5
12440.6
12436.4
12425.1
12408.7
12389.7
12373.6
12362.2
12355.3
12351.7
12351.7
12356
12364.6
12377.5
12394.3
12412.9
12427.8
12436.9
12439.5
12437.9
12435.1
12432.3
12429.7
12427.3
12425.1
12423.2
12421.6
12420.2
12419
12418
12417
12416.1
12415.3
12414.5
12413.8
12413.2
12412.7
12412.2
12411.8
12411.6
12411.5
12411.5
12411.6
12411.9
12412.3
12412.8
12413.4
12414
12414.8
12415.1
12416.3
12415.5
12414
12412.8
12411.8
12410.9
12410.3
12409.9
12409.7
12409.7
12409.8
12410.1
12410.5
12411.1
12411.7
12412.4
12413.2
12414.1
12415.1
12416.2
12417.4
12418.7
12420.2
12421.8
12423.9
12426.5
12429.7
12433.5
12437.9
12443.4
12450.3
12456.8
12454.4
12440
12416
12388.8
12367.2
12352.8
12345.7
12341
12340.8
12346.2
12356.2
12372.4
12395
12423
12444.1
12454.9
12454.8
12447.9
12441.5
12436.7
12432.6
12429.1
12426.1
12423.5
12421.4
12419.8
12418.5
12417.4
12416.3
12415.3
12414.3
12413.4
12412.6
12411.9
12411.3
12410.8
12410.4
12410.1
12410
12410
12410.2
12410.6
12411.2
12412
12413
12414.2
12415.6
12416.5
12351.1
12204.6
12097.8
12013.3
11949.6
11902.9
11869.2
11845.7
11830.1
11820.6
11815.8
11814.6
11816.2
11819.7
11824.4
11829.8
11835.3
11840.5
11845.2
11849.2
11852.5
11855.3
11857.8
11860.8
11865
11870.1
11875.3
11879.9
11881.9
11877.9
11853.7
11779.2
11653.2
11236.3
9863.11
8469.18
7437.83
6717.12
6489.66
6290.53
6286.73
6505.56
6913.19
7676.84
8742.41
10350.2
11437.4
11673.8
11793.1
11857.1
11874.9
11878.2
11877.1
11874.2
11870.9
11867.1
11863.9
11861.5
11859.9
11858.4
11856.2
11852.9
11848.7
11843.8
11838.4
11833.1
11828.4
11824.9
11823.3
11824.3
11829
11838.5
11854
11877.3
11910.8
11957.2
12020.3
12104
12209.5
12353.6
1284.15
1543.5
1672.26
1736.23
1767.97
1783.97
1792.51
1797.72
1801.38
1804.34
1807.09
1809.85
1812.82
1816.12
1819.84
1824.26
1829.65
1836.02
1843.33
1851.46
1860.32
1869.69
1879.05
1888.15
1897.7
1908.64
1922.9
1940.18
1960.79
1986.94
2014.39
2019.98
2061.02
1941.64
1763.26
1808.54
1851.62
1861.86
1854.59
1848.87
1848.31
1853.91
1865.9
1854.46
1792.39
1669.61
1857.06
2034.08
2037.26
2018.44
1988.92
1964.87
1943.95
1926.17
1910.09
1897.02
1886.23
1876.48
1867.62
1858.43
1849.4
1841.03
1833.61
1827.22
1821.82
1817.32
1813.61
1810.48
1807.77
1805.29
1802.86
1800.21
1796.92
1792.05
1783.84
1768.16
1736.66
1672.8
1544.03
1284.1
-0.000215139
-0.000439587
-0.000547474
-0.000728332
-0.000963729
-0.00128059
-0.00169423
-0.00221555
-0.00278106
-0.00325992
-0.00384653
-0.00483179
-0.00325844
0.0291178
0.122066
0.204458
0.141736
0.0569375
0.00502458
-0.00486169
-0.00392276
0.0762993
0.530268
0.991552
1.15437
1.19887
1.18684
1.46476
2.0541
2.95352
3.2157
3.60112
6.85766
740.05
3341.71
3543.6
3564.44
3578.65
3585.62
3583.88
3583.14
3583.33
3576.03
3561.79
3537.31
2909.93
362.376
4.44146
3.09727
2.90699
2.55896
1.58409
1.1039
0.941267
1.08536
1.39354
1.44406
1.21892
0.809652
0.239418
0.0171546
0.00697232
0.00479866
0.00443804
0.0292656
0.0527229
0.0593965
0.0472855
0.0255804
0.00670544
0.00155668
0.00193577
0.00243128
0.0024776
0.00263615
0.00294
0.00320221
0.00341357
0.00354267
0.00377976
-0.000537318
-0.000607707
-0.000725139
-0.000903225
-0.00114345
-0.00144373
-0.00180918
-0.00222436
-0.0026758
-0.00306027
-0.00347572
-0.00433621
-0.00505237
0.03897
0.164066
0.216542
0.170085
0.0912475
0.0205748
-0.00264681
-0.0042037
0.00160047
1.66906
4.83547
4.93069
4.77255
1.46024
1.44667
4.43032
8.92122
7.85983
3.66935
3.88893
118.643
881.363
1669.69
2185.55
2625.12
2906.61
2554.04
2554.37
2817.62
2569.09
2185.79
1585.4
683.615
24.8529
5.68053
5.69871
10.464
11.7798
5.993
1.01048
0.997197
3.23057
6.55036
6.54524
6.46025
4.74032
0.183574
0.00844428
0.0075132
0.0069343
0.0155272
0.0347389
0.0453806
0.0488827
0.038649
0.0157209
0.00441121
0.00358264
0.00360437
0.00333679
0.00301386
0.00293612
0.00302174
0.00316551
0.00330122
0.00340049
0.00346021
-0.000408102
-0.000476091
-0.000590933
-0.000766783
-0.00101272
-0.0013433
-0.00176413
-0.00228862
-0.00286171
-0.00338474
-0.00399253
-0.0049064
-0.00523445
0.103004
0.249563
0.251955
0.248989
0.220917
0.00218527
-0.00484012
-0.00506635
-0.00640788
0.749732
4.52678
4.95092
5.01296
2.79874
1.36737
9.22137
36.8253
36.942
36.9717
35.6244
8.19697
0.0246447
0.0671424
0.0460694
0.017642
0.00736233
0.00725873
0.00642483
0.00559971
0.00530415
0.00534489
0.00557887
-0.0338782
4.84811
38.6233
39.1751
39.129
36.6777
4.94576
0.924405
2.47617
6.62701
6.6178
6.57569
6.46538
1.81806
0.00710015
0.0072643
0.00673528
0.00863209
0.138004
0.198021
0.199943
0.202626
0.190105
0.122022
0.0220189
0.00139608
0.00148619
0.00202988
0.00229555
0.00253382
0.00285628
0.00314315
0.00335917
0.00350466
0.00358807
-0.000344206
-0.000400626
-0.000513779
-0.000690361
-0.00093282
-0.00124606
-0.00164152
-0.0021438
-0.00270967
-0.00321916
-0.00378045
-0.00449023
-0.00529918
-0.004424
0.110061
0.244853
0.176036
0.0116179
-0.0075988
-0.00561095
-0.00492937
-0.00585615
-0.00621054
-0.00669106
1.2295
4.50126
4.60495
4.58757
1.42296
0.0163957
2.22208
4.34957
4.14856
0.776903
0.316755
1.08545
1.08237
0.197573
0.00763477
0.00743971
0.00686879
0.00670192
0.00659423
0.0065441
0.00658989
0.00680475
1.8493
6.28323
5.43621
1.46724
0.00300666
0.680809
1.58006
3.22431
4.4984
3.96818
1.8361
0.00503736
0.00548923
0.00634338
0.00722319
0.0081994
0.0576467
0.200826
0.204706
0.208314
0.20869
0.207685
0.205297
0.121789
0.00170173
0.000961324
0.00152302
0.00204929
0.00247369
0.00284977
0.00315869
0.00339338
0.00354816
0.00362365
-0.000242302
-0.000286374
-0.000388819
-0.00055065
-0.000776457
-0.00107366
-0.00145868
-0.0019581
-0.00251885
-0.00309677
-0.00387652
-0.0049537
-0.00575605
-0.00625602
-0.00801185
-0.0108952
-0.0108507
-0.00971117
-0.00794678
-0.00569617
-0.00453616
-0.00545208
-0.00733394
-0.0102392
-0.0109394
-0.0022286
0.00254082
0.00121677
0.00884494
0.0106265
0.00884787
0.00880302
0.00696985
0.00734572
0.165321
0.703128
0.681882
0.177221
0.00705775
0.00696739
0.00605965
0.00554162
0.00533914
0.00529137
0.00537487
0.00606711
0.00624328
0.0063818
0.00683617
0.007045
0.00700465
0.232224
0.816545
0.573077
0.0212356
0.00559498
0.00177609
0.00276973
0.00425034
0.00583527
0.00820029
0.0120443
0.00798955
0.138811
0.202148
0.0801763
0.090616
0.20521
0.209736
0.131508
0.00108484
0.000493438
0.001029
0.00182738
0.0024271
0.00285435
0.00319263
0.00344053
0.00359938
0.0036667
-0.000104057
-0.000142416
-0.000232518
-0.000374325
-0.000574196
-0.000839798
-0.00118764
-0.00164667
-0.00218497
-0.00276553
-0.00353775
-0.00455882
-0.00568019
-0.00674391
-0.007834
-0.00979514
-0.0116267
-0.0113341
-0.00997336
-0.00876379
-0.00802077
-0.00797728
-0.0082314
-0.00829218
-0.00640301
-0.00242525
0.00143252
0.00397154
0.00606435
0.0073582
0.00789845
0.00810048
0.00760386
0.00674769
0.00585862
0.00453734
0.00558806
0.00800616
0.00819297
0.00675358
0.00610388
0.00598524
0.00605487
0.00595135
0.00588843
0.00642944
0.00670093
0.00692938
0.00734855
0.00724844
0.00774462
0.00739116
0.00424261
0.00197538
0.00228595
0.00278012
0.00307491
0.00328478
0.00397289
0.00495793
0.00643676
0.00897926
0.0091214
0.012497
0.0191119
0.00392631
-0.00850299
0.016061
0.124649
0.0541703
-8.36396e-05
-0.000311843
0.000558424
0.0015913
0.00236486
0.00286292
0.00322351
0.0034787
0.00364016
0.00370537
5.67528e-05
2.24211e-05
-5.30077e-05
-0.000170784
-0.000337584
-0.000560385
-0.000855785
-0.00125587
-0.00173662
-0.00225087
-0.00294425
-0.00392533
-0.00516396
-0.00668123
-0.00834969
-0.0102036
-0.0125317
-0.0143112
-0.0153039
-0.0157804
-0.015708
-0.0150889
-0.0134667
-0.0108778
-0.00694117
-0.00265074
0.00106351
0.00420356
0.00649125
0.00742412
0.00760233
0.00761321
0.007407
0.00718461
0.0068686
0.00622573
0.00563403
0.00586366
0.00657748
0.00630894
0.00609717
0.00582913
0.00557909
0.00562007
0.0058298
0.00621917
0.00644911
0.00653605
0.00691497
0.00701513
0.00694154
0.00642183
0.00579247
0.0049974
0.0042299
0.00388487
0.00317813
0.00234797
0.001857
0.0015287
0.00119797
0.000699381
-0.00055937
-0.00687925
-0.0129056
-0.0123231
-0.0104282
-0.0108597
-0.0103359
0.00669116
0.00962384
-0.000582277
0.000627694
0.00162322
0.00236159
0.00288835
0.0032583
0.00350993
0.00366814
0.00373397
0.000226438
0.000198801
0.000140662
4.99005e-05
-7.92848e-05
-0.000253104
-0.000487932
-0.000819488
-0.00123505
-0.00170465
-0.00232632
-0.00324763
-0.00475361
-0.00666992
-0.0088795
-0.0118348
-0.0152526
-0.0186055
-0.0212178
-0.0226236
-0.022512
-0.0210096
-0.0182938
-0.0141751
-0.00904142
-0.00397817
0.000205434
0.00334541
0.00547435
0.00664767
0.00714752
0.00728456
0.00717324
0.00690395
0.00661414
0.00626713
0.00580122
0.00562559
0.00579883
0.00599118
0.00608357
0.00574214
0.00547786
0.00547445
0.00569981
0.00600946
0.00623468
0.00637417
0.00654731
0.00659986
0.00659026
0.00640396
0.00576684
0.00470032
0.00360163
0.00263845
0.00158653
0.000292793
-0.00133269
-0.00352897
-0.00639711
-0.00973646
-0.0133632
-0.0175038
-0.0195082
-0.0164781
-0.0129629
-0.0128876
-0.0122592
-0.00720014
0.0169819
0.0160546
0.00173902
0.00203746
0.00254418
0.00297861
0.00331935
0.00354554
0.00368743
0.00374948
0.000396612
0.000377559
0.000337995
0.000275827
0.000186414
6.41613e-05
-0.000105664
-0.000354771
-0.000678273
-0.00107883
-0.00150588
-0.002536
-0.00426658
-0.00678857
-0.010054
-0.0145031
-0.0196938
-0.025142
-0.0300981
-0.0335692
-0.0346009
-0.0326821
-0.0278968
-0.020934
-0.0132269
-0.00629789
-0.000994504
0.00254233
0.0047304
0.00597951
0.00659699
0.00686017
0.0069155
0.00682162
0.00657152
0.00615742
0.00563584
0.00530254
0.0052852
0.00561103
0.0058816
0.00556698
0.00529026
0.00523711
0.00541012
0.00563
0.00578834
0.00588308
0.00597442
0.00599715
0.00590788
0.00562355
0.00504862
0.00415143
0.00302235
0.00170872
4.9815e-05
-0.00235395
-0.0061279
-0.0119292
-0.0196276
-0.0275194
-0.0333677
-0.0358032
-0.0336614
-0.0269641
-0.019534
-0.0153506
-0.0128862
-0.0102777
0.0163264
0.0226918
0.00916936
0.00238577
0.00280933
0.00311758
0.00339828
0.00358193
0.00369468
0.00374528
0.000560529
0.000550214
0.000528919
0.000495138
0.000445366
0.000374937
0.000272782
0.000116352
-0.000100909
-0.000388583
-0.000628352
-0.0016561
-0.00392663
-0.00723845
-0.0118778
-0.0181481
-0.0260059
-0.0351129
-0.044339
-0.0505569
-0.0509214
-0.0469598
-0.0400186
-0.0309434
-0.0204624
-0.0107399
-0.00319207
0.00135399
0.00380913
0.00522915
0.00597444
0.00632757
0.00645928
0.00645141
0.00632006
0.00605598
0.00568097
0.00525324
0.00507752
0.00524211
0.00557079
0.00535422
0.00508031
0.00499384
0.00508488
0.00522013
0.00531762
0.00537019
0.00538795
0.00533825
0.00517612
0.00483948
0.00423478
0.0032662
0.00190002
9.56182e-05
-0.00242622
-0.00640278
-0.0134202
-0.0248066
-0.0395755
-0.0537499
-0.0627558
-0.0642203
-0.0574061
-0.0445512
-0.0301963
-0.0188955
-0.0121712
-0.00822822
0.0014141
0.0216497
0.00601036
0.00260378
0.00308746
0.00326761
0.00346902
0.00359963
0.00367668
0.00371119
0.000710772
0.000708479
0.00070396
0.000696467
0.000683576
0.000661857
0.000624158
0.000555051
0.000438013
0.000261647
0.000187724
-0.000828051
-0.00353376
-0.00787256
-0.0140873
-0.0227814
-0.0345141
-0.049257
-0.0617761
-0.0688755
-0.0733642
-0.0695065
-0.0579907
-0.0416182
-0.0245147
-0.0133639
-0.00604101
-0.000158568
0.00281338
0.00441855
0.00529705
0.00572873
0.00592163
0.005965
0.00590038
0.00572083
0.00541033
0.00509619
0.00484688
0.00486395
0.00517096
0.00506595
0.00484095
0.00474009
0.00475465
0.00480239
0.00482824
0.00481712
0.00476098
0.00463096
0.00438131
0.00394838
0.00323713
0.00212801
0.000514914
-0.00177047
-0.00522733
-0.0111527
-0.022258
-0.0403416
-0.0633922
-0.0845672
-0.0969571
-0.0974213
-0.0856421
-0.0653347
-0.0424555
-0.0228791
-0.0101112
-0.00371229
-0.000816836
0.00793522
0.0066516
0.00322458
0.00347711
0.00343919
0.00351412
0.00357773
0.00361578
0.00363275
0.000840939
0.000845436
0.00085516
0.000869999
0.000888406
0.000908002
0.000924231
0.000924887
0.000886654
0.000790014
0.000794724
-9.64162e-05
-0.00309082
-0.00841577
-0.0158544
-0.0265438
-0.0430231
-0.0643227
-0.0843989
-0.0975754
-0.0997496
-0.0942842
-0.0820285
-0.0612397
-0.0347956
-0.0161946
-0.00314131
-0.00212323
0.00185725
0.00358542
0.00457183
0.00505498
0.00529876
0.00538736
0.00538191
0.00529183
0.00509289
0.00485616
0.00462586
0.00453999
0.00476205
0.00474013
0.00454653
0.0044549
0.00441276
0.00438531
0.00434407
0.00426972
0.00414215
0.00393054
0.00359048
0.00305806
0.00223094
0.000963696
-0.000905082
-0.00365063
-0.00796579
-0.0157265
-0.0305326
-0.0545976
-0.0845393
-0.111128
-0.12604
-0.125904
-0.110298
-0.0834516
-0.0528936
-0.0256866
-0.00681678
0.00291117
0.0055892
0.0117105
0.0149052
0.00421647
0.00374848
0.00354506
0.00349228
0.00349077
0.00349304
0.00349436
0.000947263
0.000956815
0.000977317
0.00100904
0.00105091
0.00110106
0.00115571
0.00120403
0.00121663
0.00117274
0.00108609
0.000394899
-0.0026735
-0.00855402
-0.0170088
-0.0305391
-0.0504825
-0.0751339
-0.10104
-0.119524
-0.125615
-0.11975
-0.101877
-0.0763483
-0.0496145
-0.020432
-0.0050177
-0.00195712
0.00106412
0.00276996
0.00379494
0.00431884
0.00461275
0.00475162
0.00479623
0.00477457
0.00467257
0.00452171
0.00434232
0.00424585
0.00434742
0.00437814
0.0042167
0.00413078
0.00405331
0.00396933
0.00387139
0.00373815
0.003544
0.00325736
0.00283426
0.00221031
0.00127943
-0.000117457
-0.00216894
-0.00520866
-0.0100058
-0.0186642
-0.0354278
-0.062642
-0.0961486
-0.125318
-0.141327
-0.140979
-0.123495
-0.093128
-0.0580685
-0.0261696
-0.00345425
0.00896177
0.0120597
0.127543
0.045691
0.00304208
0.00379208
0.00346645
0.00334838
0.00330992
0.00329239
0.00328537
0.00102864
0.00104117
0.00106855
0.00111099
0.00116747
0.00123607
0.00131232
0.00138574
0.00142504
0.0013967
0.00124105
0.000483406
-0.00217777
-0.00805657
-0.0175849
-0.0323324
-0.053729
-0.0798332
-0.106646
-0.12574
-0.132431
-0.12477
-0.105578
-0.0790105
-0.0518149
-0.0225587
-0.0057672
0.00187169
0.000343108
0.00199861
0.00295957
0.00352997
0.00387867
0.00407832
0.0041793
0.00422053
0.0042014
0.00413135
0.00400125
0.00392417
0.00396092
0.00398454
0.00386458
0.00377859
0.00367888
0.00355698
0.00341566
0.00323308
0.00298297
0.00263443
0.00214432
0.00145053
0.000450521
-0.00101642
-0.00314442
-0.00626444
-0.0110345
-0.0192514
-0.0351382
-0.0620884
-0.0951186
-0.123957
-0.139555
-0.139102
-0.121725
-0.0916071
-0.056457
-0.0240102
0.000135045
0.00783161
0.103465
0.131591
0.0574744
0.00269685
0.00332259
0.00310668
0.00304365
0.00301908
0.00300965
0.00300693
0.00108615
0.00109941
0.00113002
0.00117714
0.00123976
0.00131541
0.00139846
0.00147702
0.00152265
0.00148842
0.00131242
0.00066063
-0.0015233
-0.00684955
-0.0158817
-0.0308943
-0.0513498
-0.0760057
-0.1003
-0.117597
-0.123013
-0.114729
-0.0955399
-0.0727362
-0.0469034
-0.0197466
-0.00449759
0.0034962
-0.000374895
0.00118341
0.00208317
0.00271466
0.00312535
0.00338716
0.00354846
0.00364841
0.00369604
0.00369563
0.00362284
0.00357278
0.00358237
0.0035842
0.00350313
0.00341441
0.00329957
0.00315424
0.00298221
0.00276183
0.00246915
0.00207527
0.00153876
0.000801766
-0.000226126
-0.00169493
-0.0037915
-0.00680225
-0.0111423
-0.0179992
-0.0312601
-0.0536824
-0.0822572
-0.10783
-0.121844
-0.121384
-0.106105
-0.0795065
-0.0481249
-0.0199589
-0.00156223
0.0713829
0.134008
0.134916
0.0256202
0.00202656
0.00249277
0.00254632
0.00260692
0.00264001
0.00266236
0.00267744
0.00112245
0.00113395
0.00116523
0.00121149
0.00127325
0.00134669
0.00142514
0.00149515
0.00152927
0.00148163
0.00128684
0.000708109
-0.000885698
-0.00515631
-0.0128813
-0.0241927
-0.0398577
-0.0608314
-0.083211
-0.0971716
-0.101366
-0.0904734
-0.0752191
-0.0581075
-0.0304839
-0.0132587
-0.00234323
0.0021871
-0.00129537
0.000338192
0.00123316
0.0019032
0.0023778
0.0027027
0.00292643
0.00308096
0.00318357
0.00323948
0.00322146
0.00320181
0.00320497
0.00319676
0.00314029
0.00305168
0.00292685
0.00276821
0.00257626
0.00233018
0.0020093
0.0015873
0.00102659
0.000274826
-0.00074209
-0.00215978
-0.00411246
-0.00684781
-0.0105051
-0.0159473
-0.0252338
-0.0407446
-0.0614467
-0.080892
-0.0919389
-0.0912956
-0.0790834
-0.0591339
-0.0369968
-0.0173653
0.062616
0.133722
0.135354
0.0398284
0.000319831
0.00100635
0.00161131
0.00193589
0.00211793
0.00222504
0.00228537
0.00232917
0.00114182
0.00114696
0.0011793
0.00121888
0.00127506
0.00133984
0.00140594
0.00145967
0.0014733
0.00140288
0.0011892
0.000676367
-0.000482106
-0.00331838
-0.00907711
-0.0166065
-0.0265607
-0.0418313
-0.0564796
-0.0665801
-0.0696155
-0.0649333
-0.0562323
-0.0376177
-0.019275
-0.0080272
-7.30004e-05
0.00127241
-0.00208103
-0.000497316
0.000426076
0.00113675
0.00166901
0.00205226
0.00233136
0.0025351
0.00268336
0.00278295
0.0028132
0.00282453
0.00283344
0.0028247
0.00278672
0.00269934
0.0025697
0.00240508
0.00220215
0.00194167
0.0016065
0.00117275
0.000608372
-0.000132238
-0.00109571
-0.00240305
-0.00417659
-0.00655252
-0.00963302
-0.0138063
-0.0197904
-0.028812
-0.0405825
-0.0520181
-0.0581592
-0.0570171
-0.0491757
-0.0379994
-0.026537
0.0277415
0.12773
0.132434
0.0476343
-0.00291115
-0.00123799
0.00011885
0.000925833
0.00138911
0.00165918
0.00182783
0.00191231
0.00200137
0.00114738
0.00113993
0.00118063
0.00120225
0.00125282
0.00130473
0.00135386
0.001387
0.00137973
0.00129335
0.00106905
0.000609556
-0.00025386
-0.00193319
-0.00533591
-0.0109388
-0.0178218
-0.0274889
-0.0343731
-0.0413566
-0.0436361
-0.0436681
-0.0362262
-0.021369
-0.0107751
-0.00361164
0.00179419
-0.00212221
-0.00275315
-0.00126767
-0.00030559
0.000446798
0.00102417
0.00145545
0.00178021
0.00202505
0.00220986
0.00234334
0.00241286
0.00245414
0.00247475
0.0024718
0.00244861
0.00236347
0.00223396
0.00206898
0.00186269
0.00159766
0.00126054
0.000830089
0.000282228
-0.000419934
-0.00132003
-0.00249374
-0.00403647
-0.00605186
-0.00863593
-0.0119454
-0.0161222
-0.0211564
-0.0270755
-0.0320536
-0.0341252
-0.0323697
-0.0280381
-0.0225984
-0.00984607
0.0270376
0.0388785
0.0143814
-0.00444917
-0.00290217
-0.00153287
-0.000314488
0.000474139
0.000967024
0.00127891
0.00148233
0.00157898
0.00171102
0.00113746
0.00112806
0.00115404
0.00117844
0.00121388
0.00125018
0.00127994
0.00129024
0.00126052
0.00115949
0.000937945
0.000528374
-0.000153169
-0.00123165
-0.0031287
-0.00633381
-0.0111029
-0.0170529
-0.0226318
-0.0262905
-0.0287304
-0.0273731
-0.0211747
-0.00975528
-0.00502282
-0.0005068
-0.000369023
-0.00499181
-0.00320803
-0.00189034
-0.000913095
-0.000138703
0.000464417
0.000928091
0.0012857
0.00156129