/*--------------------------------*- C++ -*----------------------------------*\
| =========                 |                                                 |
| \\      /  F ield         | OpenFOAM: The Open Source CFD Toolbox           |
|  \\    /   O peration     | Version:  2412                                  |
|   \\  /    A nd           | Website:  www.openfoam.com                      |
|    \\/     M anipulation  |                                                 |
\*---------------------------------------------------------------------------*/
FoamFile
{
    version     2.0;
    format      ascii;
    arch        "LSB;label=32;scalar=64";
    class       volScalarField;
    location    "9";
    object      p_rgh;
}
// * * * * * * * * * * * * * * * * * * * * * * * * * * * * * * * * * * * * * //

dimensions      [1 -1 -2 0 0 0 0];

internalField   nonuniform List<scalar> 
6400
(
7267.4
7267.63
7268.14
7268.95
7270.04
7271.42
7273.04
7274.9
7276.96
7279.19
7281.55
7284.01
7286.52
7289.05
7291.56
7294.01
7296.37
7298.61
7300.71
7302.63
7304.37
7305.92
7307.27
7308.42
7309.38
7310.15
7310.76
7311.22
7311.54
7311.74
7311.86
7311.9
7311.89
7311.84
7311.78
7311.7
7311.64
7311.59
7311.56
7311.56
7311.59
7311.65
7311.74
7311.84
7311.96
7312.08
7312.19
7312.28
7312.31
7312.29
7312.18
7311.96
7311.62
7311.13
7310.47
7309.63
7308.59
7307.35
7305.9
7304.25
7302.4
7300.37
7298.17
7295.83
7293.38
7290.85
7288.28
7285.71
7283.17
7280.7
7278.34
7276.12
7274.09
7272.26
7270.67
7269.33
7268.27
7267.5
7267.01
7266.79
7267.15
7267.37
7267.88
7268.68
7269.79
7271.18
7272.83
7274.72
7276.81
7279.07
7281.47
7283.96
7286.5
7289.07
7291.62
7294.1
7296.48
7298.75
7300.86
7302.8
7304.55
7306.1
7307.45
7308.59
7309.54
7310.3
7310.89
7311.33
7311.63
7311.82
7311.92
7311.94
7311.91
7311.85
7311.76
7311.68
7311.6
7311.55
7311.51
7311.51
7311.54
7311.61
7311.7
7311.81
7311.95
7312.08
7312.21
7312.31
7312.36
7312.36
7312.27
7312.07
7311.75
7311.27
7310.63
7309.8
7308.77
7307.53
7306.09
7304.43
7302.56
7300.51
7298.29
7295.93
7293.45
7290.89
7288.29
7285.68
7283.1
7280.6
7278.21
7275.96
7273.9
7272.04
7270.43
7269.08
7268.01
7267.24
7266.76
7266.55
7266.59
7266.81
7267.31
7268.13
7269.26
7270.69
7272.4
7274.34
7276.5
7278.83
7281.3
7283.86
7286.48
7289.12
7291.73
7294.29
7296.72
7299.03
7301.18
7303.14
7304.91
7306.47
7307.82
7308.95
7309.88
7310.62
7311.18
7311.58
7311.84
7311.99
7312.04
7312.02
7311.96
7311.86
7311.75
7311.64
7311.54
7311.47
7311.43
7311.42
7311.46
7311.53
7311.63
7311.76
7311.92
7312.08
7312.24
7312.37
7312.47
7312.51
7312.46
7312.3
7312.02
7311.58
7310.97
7310.17
7309.15
7307.92
7306.47
7304.8
7302.91
7300.83
7298.56
7296.14
7293.6
7290.98
7288.31
7285.63
7282.98
7280.41
7277.94
7275.63
7273.5
7271.6
7269.94
7268.55
7267.47
7266.69
7266.22
7266.01
7265.71
7265.93
7266.43
7267.27
7268.44
7269.93
7271.72
7273.76
7276.01
7278.45
7281.03
7283.71
7286.44
7289.19
7291.91
7294.55
7297.08
7299.46
7301.67
7303.69
7305.49
7307.06
7308.4
7309.52
7310.42
7311.11
7311.62
7311.96
7312.16
7312.24
7312.23
7312.16
7312.03
7311.89
7311.73
7311.59
7311.46
7311.37
7311.31
7311.3
7311.33
7311.41
7311.54
7311.69
7311.88
7312.08
7312.29
7312.48
7312.64
7312.74
7312.76
7312.67
7312.44
7312.06
7311.5
7310.74
7309.75
7308.53
7307.08
7305.38
7303.45
7301.31
7298.98
7296.48
7293.85
7291.12
7288.33
7285.54
7282.78
7280.09
7277.53
7275.11
7272.9
7270.9
7269.17
7267.74
7266.62
7265.84
7265.37
7265.16
7264.5
7264.71
7265.22
7266.07
7267.28
7268.88
7270.78
7272.95
7275.34
7277.93
7280.66
7283.5
7286.39
7289.28
7292.15
7294.94
7297.58
7300.07
7302.37
7304.45
7306.29
7307.88
7309.21
7310.3
7311.15
7311.78
7312.22
7312.48
7312.6
7312.59
7312.5
7312.34
7312.14
7311.92
7311.71
7311.51
7311.34
7311.22
7311.15
7311.13
7311.16
7311.26
7311.4
7311.6
7311.83
7312.09
7312.36
7312.62
7312.86
7313.05
7313.16
7313.16
7313.03
7312.73
7312.23
7311.52
7310.58
7309.38
7307.92
7306.19
7304.21
7301.99
7299.56
7296.94
7294.18
7291.31
7288.37
7285.42
7282.5
7279.66
7276.95
7274.4
7272.05
7269.95
7268.12
7266.59
7265.44
7264.65
7264.19
7264
7262.95
7263.14
7263.63
7264.5
7265.74
7267.52
7269.57
7271.91
7274.48
7277.26
7280.19
7283.22
7286.31
7289.41
7292.46
7295.4
7298.23
7300.87
7303.28
7305.44
7307.33
7308.94
7310.27
7311.32
7312.11
7312.66
7312.99
7313.15
7313.15
7313.03
7312.82
7312.56
7312.26
7311.95
7311.66
7311.4
7311.18
7311.02
7310.92
7310.89
7310.93
7311.04
7311.22
7311.45
7311.74
7312.07
7312.43
7312.79
7313.14
7313.44
7313.66
7313.79
7313.77
7313.58
7313.18
7312.55
7311.66
7310.48
7309.02
7307.26
7305.21
7302.89
7300.33
7297.55
7294.61
7291.55
7288.41
7285.26
7282.13
7279.1
7276.21
7273.48
7270.97
7268.72
7266.75
7265.04
7263.9
7263.11
7262.67
7262.52
7261.04
7261.2
7261.68
7262.59
7264.09
7265.87
7268.06
7270.6
7273.41
7276.42
7279.6
7282.88
7286.23
7289.58
7292.87
7296.04
7299.07
7301.89
7304.44
7306.71
7308.66
7310.29
7311.6
7312.59
7313.3
7313.74
7313.95
7313.97
7313.82
7313.56
7313.21
7312.81
7312.39
7311.97
7311.58
7311.24
7310.96
7310.75
7310.62
7310.58
7310.63
7310.76
7310.97
7311.26
7311.62
7312.04
7312.5
7312.98
7313.46
7313.91
7314.28
7314.56
7314.69
7314.64
7314.37
7313.84
7313.01
7311.88
7310.41
7308.61
7306.47
7304.03
7301.3
7298.33
7295.17
7291.87
7288.47
7285.05
7281.67
7278.4
7275.28
7272.33
7269.6
7267.16
7265.1
7263.44
7262.06
7261.24
7260.83
7260.7
7258.8
7258.96
7259.44
7260.46
7261.88
7263.68
7266.04
7268.9
7272.06
7275.39
7278.87
7282.46
7286.12
7289.79
7293.39
7296.86
7300.14
7303.17
7305.89
7308.28
7310.3
7311.95
7313.23
7314.16
7314.76
7315.06
7315.11
7314.95
7314.62
7314.17
7313.64
7313.08
7312.51
7311.96
7311.46
7311.02
7310.67
7310.41
7310.25
7310.19
7310.24
7310.39
7310.64
7311
7311.44
7311.96
7312.55
7313.17
7313.81
7314.44
7315.01
7315.47
7315.8
7315.92
7315.81
7315.41
7314.68
7313.6
7312.13
7310.28
7308.04
7305.44
7302.51
7299.29
7295.84
7292.26
7288.52
7284.78
7281.1
7277.53
7274.12
7270.87
7267.81
7265.07
7262.85
7261.23
7259.99
7259.11
7258.72
7258.6
7256.32
7256.53
7256.96
7257.62
7258.69
7260.38
7263.04
7266.51
7270.28
7274.09
7277.97
7281.94
7285.99
7290.05
7294.03
7297.85
7301.45
7304.74
7307.68
7310.21
7312.32
7313.99
7315.23
7316.06
7316.51
7316.63
7316.47
7316.09
7315.53
7314.86
7314.12
7313.36
7312.61
7311.9
7311.27
7310.73
7310.29
7309.97
7309.77
7309.69
7309.74
7309.92
7310.22
7310.64
7311.18
7311.82
7312.55
7313.35
7314.19
7315.03
7315.83
7316.53
7317.09
7317.45
7317.54
7317.31
7316.71
7315.7
7314.24
7312.33
7309.97
7307.18
7303.99
7300.46
7296.65
7292.63
7288.56
7284.45
7280.39
7276.44
7272.65
7268.94
7265.27
7261.91
7259.3
7257.97
7257.17
7256.73
7256.45
7256.31
7253.7
7253.95
7253.96
7253.96
7254.37
7255.34
7258.21
7263.12
7267.92
7272.4
7276.81
7281.27
7285.8
7290.34
7294.77
7299.05
7303.04
7306.66
7309.86
7312.57
7314.78
7316.46
7317.64
7318.33
7318.6
7318.49
7318.06
7317.4
7316.57
7315.62
7314.62
7313.62
7312.66
7311.77
7310.99
7310.32
7309.79
7309.4
7309.15
7309.06
7309.11
7309.31
7309.67
7310.17
7310.81
7311.59
7312.49
7313.49
7314.56
7315.66
7316.75
7317.75
7318.61
7319.24
7319.59
7319.58
7319.14
7318.23
7316.8
7314.83
7312.32
7309.3
7305.8
7301.9
7297.66
7293.19
7288.61
7284
7279.46
7275.05
7270.73
7266.38
7261.65
7255.62
7252.47
7253.25
7253.52
7253.88
7254.1
7253.96
7251.15
7251.26
7250.61
7249.83
7249.34
7249.73
7252.85
7258.72
7264.86
7270.2
7275.31
7280.39
7285.52
7290.66
7295.68
7300.5
7304.97
7309
7312.51
7315.43
7317.74
7319.43
7320.52
7321.04
7321.06
7320.65
7319.9
7318.9
7317.72
7316.44
7315.13
7313.85
7312.64
7311.54
7310.58
7309.78
7309.14
7308.68
7308.39
7308.27
7308.32
7308.55
7308.96
7309.54
7310.3
7311.24
7312.33
7313.57
7314.91
7316.33
7317.75
7319.11
7320.33
7321.32
7322
7322.27
7322.05
7321.27
7319.88
7317.84
7315.17
7311.87
7307.99
7303.62
7298.85
7293.8
7288.62
7283.38
7278.24
7273.23
7268.25
7263.06
7256.06
7250.11
7247.13
7246.81
7249.56
7250.77
7251.76
7251.78
7248.69
7248.58
7247.26
7245.99
7245.01
7245.01
7248.27
7253.9
7261.22
7267.44
7273.35
7279.19
7285.09
7290.97
7296.74
7302.23
7307.3
7311.83
7315.72
7318.89
7321.32
7323
7323.95
7324.24
7323.95
7323.17
7322.01
7320.57
7318.97
7317.29
7315.61
7313.99
7312.5
7311.17
7310.02
7309.07
7308.32
7307.77
7307.43
7307.29
7307.35
7307.61
7308.06
7308.74
7309.62
7310.72
7312.03
7313.54
7315.2
7316.98
7318.82
7320.62
7322.29
7323.73
7324.82
7325.44
7325.5
7324.9
7323.57
7321.48
7318.61
7314.98
7310.64
7305.69
7300.25
7294.45
7288.45
7282.48
7276.59
7270.86
7265.15
7259.28
7251.27
7245.34
7242.44
7243.89
7246.06
7247.84
7249.55
7249.84
7246.27
7245.67
7244.17
7242.45
7241.4
7241.14
7243.83
7249.96
7257.23
7264.06
7270.81
7277.58
7284.45
7291.26
7297.95
7304.29
7310.11
7315.25
7319.59
7323.06
7325.61
7327.26
7328.04
7328.03
7327.32
7326.05
7324.38
7322.42
7320.3
7318.14
7316.03
7314.04
7312.22
7310.63
7309.26
7308.15
7307.28
7306.65
7306.27
7306.1
7306.16
7306.44
7306.95
7307.7
7308.72
7310
7311.54
7313.35
7315.38
7317.6
7319.92
7322.25
7324.49
7326.49
7328.09
7329.17
7329.58
7329.23
7328.01
7325.86
7322.76
7318.73
7313.83
7308.17
7301.89
7295.17
7288.2
7281.22
7274.37
7267.75
7261.29
7254.88
7248.34
7242.03
7239.87
7241.44
7243.05
7245.34
7247.28
7248.09
7243.58
7242.74
7240.99
7238.95
7237.27
7237.37
7240.05
7245.53
7252.38
7259.8
7267.48
7275.38
7283.4
7291.48
7299.33
7306.75
7313.49
7319.38
7324.27
7328.08
7330.76
7332.34
7332.89
7332.48
7331.24
7329.35
7327.03
7324.43
7321.69
7318.96
7316.33
7313.9
7311.73
7309.85
7308.26
7306.98
7305.99
7305.29
7304.86
7304.68
7304.73
7305.03
7305.58
7306.41
7307.54
7309
7310.79
7312.93
7315.39
7318.11
7321.01
7323.98
7326.92
7329.61
7331.87
7333.54
7334.42
7334.39
7333.32
7331.13
7327.78
7323.28
7317.69
7311.14
7303.81
7295.91
7287.69
7279.43
7271.37
7263.65
7256.33
7249.48
7243.43
7238.97
7237.06
7237.76
7240.21
7242.87
7245.13
7246.23
7240.27
7239.07
7236.74
7233.94
7231.69
7231.35
7233.81
7238.98
7246.05
7254.23
7263.09
7272.42
7282
7291.61
7300.94
7309.69
7317.59
7324.39
7329.94
7334.14
7336.95
7338.41
7338.61
7337.68
7335.79
7333.15
7330
7326.57
7323.09
7319.68
7316.45
7313.52
7310.96
7308.77
7306.95
7305.51
7304.42
7303.65
7303.19
7302.99
7303.05
7303.35
7303.93
7304.81
7306.04
7307.67
7309.71
7312.21
7315.14
7318.45
7322.07
7325.86
7329.6
7333.12
7336.23
7338.63
7340.13
7340.52
7339.67
7337.46
7333.83
7328.77
7322.35
7314.72
7306.08
7296.69
7286.87
7276.98
7267.34
7258.21
7249.82
7242.41
7236.36
7232.36
7231.1
7232.55
7235.79
7239.43
7242.42
7243.92
7236.13
7234.4
7231.1
7227.11
7223.79
7222.66
7224.71
7229.9
7237.55
7246.84
7257.28
7268.47
7280.02
7291.59
7302.79
7313.25
7322.58
7330.51
7336.85
7341.51
7344.4
7345.67
7345.41
7343.8
7341.05
7337.42
7333.22
7328.89
7324.46
7320.21
7316.29
7312.78
7309.83
7307.33
7305.28
7303.69
7302.51
7301.71
7301.24
7301.04
7301.09
7301.39
7301.96
7302.86
7304.16
7305.92
7308.19
7311.05
7314.5
7318.45
7322.93
7327.68
7332.48
7337.02
7341.23
7344.59
7346.86
7347.82
7347.26
7345.06
7341.15
7335.43
7328.01
7319.04
7308.75
7297.48
7285.64
7273.67
7262.01
7251.06
7241.25
7233
7226.72
7223.08
7222.62
7225.23
7229.83
7234.84
7238.88
7240.94
7230.71
7228.11
7223.26
7217.5
7212.66
7210.51
7212.15
7217.66
7226.38
7237.15
7249.56
7263.06
7277.12
7291.23
7304.87
7317.5
7328.65
7337.97
7345.26
7350.41
7353.41
7354.39
7353.53
7351.04
7347.19
7342.29
7337.02
7331.29
7325.67
7320.41
7315.71
7311.68
7308.27
7305.45
7303.18
7301.46
7300.24
7299.44
7299.02
7298.83
7298.87
7299.12
7299.64
7300.5
7301.81
7303.66
7306.12
7309.3
7313.27
7318.04
7323.52
7329.48
7335.64
7341.67
7347.05
7351.59
7354.86
7356.55
7356.41
7354.24
7350.01
7343.51
7334.88
7324.26
7311.91
7298.21
7283.7
7269.01
7254.78
7241.6
7230
7220.64
7213.8
7210.34
7210.82
7214.97
7221.46
7228.4
7233.94
7236.82
7225.09
7221.11
7213.81
7205.2
7197.78
7193.73
7194.76
7200.94
7211.54
7223.82
7238.59
7255.03
7272.34
7289.84
7306.77
7322.34
7335.92
7347.08
7355.57
7361.32
7364.37
7364.92
7363.24
7359.62
7354.39
7348.05
7340.88
7333.49
7326.47
7320.03
7314.43
7309.74
7306.12
7303.01
7300.51
7298.7
7297.49
7296.74
7296.45
7296.3
7296.31
7296.48
7296.87
7297.62
7298.89
7300.8
7303.25
7306.68
7311.21
7316.88
7323.58
7331.03
7338.85
7346.58
7353.69
7359.82
7364.38
7367.02
7367.44
7365.35
7360.86
7353.36
7343.15
7330.35
7315.25
7298.31
7280.19
7261.83
7244.24
7228.29
7214.85
7204.14
7196.22
7192.73
7194.67
7201.43
7210.95
7220.84
7228.56
7232.53
7219.06
7212.6
7200.96
7187.91
7177.02
7170.16
7170.17
7177.58
7190.99
7204.44
7222.63
7242.87
7264.4
7286.51
7307.97
7327.6
7344.52
7358.17
7368.31
7374.89
7378.02
7377.86
7374.96
7369.76
7362.57
7354.12
7344.94
7335.66
7326.89
7319.04
7312.41
7307.27
7303.39
7299.82
7297
7295.17
7294.13
7293.6
7293.56
7293.5
7293.48
7293.47
7293.56
7293.98
7295.1
7297.19
7299.42
7303.03
7308.18
7314.93
7323.16
7332.49
7342.42
7352.3
7361.41
7369.51
7375.82
7379.78
7380.98
7379.1
7373.96
7365.17
7352.83
7337.08
7318.23
7296.89
7273.87
7250.43
7228.3
7208.87
7193.4
7182.03
7171.94
7167.85
7172.03
7182.48
7196.28
7210.85
7222.37
7228.2
5606.66
5427.4
5161.92
4939.7
4766.28
4649.8
4750.22
5061.27
5336.14
5589.16
5875.42
6136.17
6412.5
6688.72
6925.76
7101.74
7217.59
7286.72
7325.16
7342.9
7351.83
7358.56
7367.24
7374.41
7353.28
7261.79
7158.78
7055.66
6962.89
6889.44
6841.47
6820.25
6815.38
6804.66
6790.65
6785.11
6783.79
6782.99
6784.39
6786.43
6787.23
6787.46
6787.52
6788.54
6799.71
6815.84
6825.04
6832.74
6844.94
6880.81
6946.66
7036.16
7136.38
7233.44
7323.54
7381.31
7376.18
7364.58
7357.82
7354.49
7343.98
7314.76
7260.75
7170
7027.32
6819.76
6542.36
6210.85
5873.13
5573.27
5304.06
5149.47
4889.1
4641.1
4671.12
4869.22
5115.63
5372.5
5620.37
5761.71
727.188
654.71
496.972
367.447
265.83
170.646
95.1383
63.9508
114.033
230.647
456.483
740.623
1069.88
1467.69
1918.67
2386.55
2809.58
3137.95
3363.11
3479.41
3495.05
3404.26
3223.94
2979.66
2739.83
2509.51
2307.41
2120.25
1952.29
1804.71
1677.55
1573.36
1498.84
1442.22
1402.84
1384.17
1385.05
1400.39
1420.14
1432.82
1430.66
1414.29
1388.26
1360.97
1344.99
1344.96
1363.45
1426.39
1531.54
1669.31
1834.81
2026.87
2243.65
2472.27
2714.95
2983.01
3211.74
3429.7
3557.58
3586.92
3506.92
3318.88
3025.47
2634.67
2176.18
1694.62
1239.15
850.759
560.773
339.724
175.761
97.3619
70.8178
121.796
219.835
322.084
435.558
580.506
743.547
829.063
9.26114
9.64436
7.92927
6.02282
4.0233
2.42077
1.42186
0.873783
0.928322
1.02247
0.967668
0.850454
0.694741
0.536355
0.42338
0.365052
0.333936
0.310899
0.283875
0.254607
0.213905
0.148049
0.117094
1.34033
0.37692
0.414484
0.43714
0.48194
0.50159
0.46281
0.404097
0.361032
0.37975
0.403788
0.410816
0.402282
0.384019
0.329598
0.264487
0.213283
0.185136
0.183909
0.217628
0.282303
0.363569
0.43667
0.481231
0.480667
0.57647
0.734469
0.722163
0.680883
0.745369
1.27376
1.91525
5.72616
20.3129
4.53158
0.168536
0.230693
0.298856
0.358714
0.409073
0.45214
0.496639
0.543554
0.597075
0.665363
0.75136
0.83206
0.831414
0.914976
1.34306
1.69387
2.14796
3.18356
6.38447
9.17307
10.8197
10.4903
3.43267
1.77161
1.71146
1.61148
1.36012
1.26919
1.138
1.05639
0.956514
0.968491
0.908577
0.801674
0.657903
0.536081
0.466842
0.431853
0.40635
0.37782
0.343422
0.308148
0.267535
0.219735
0.18573
0.157681
0.162186
0.180462
0.215331
0.256017
0.296587
0.32035
0.335656
0.344962
0.492095
0.757836
0.714027
0.500587
0.487269
0.388676
0.32596
0.463734
0.536584
0.370494
0.220551
0.245291
0.324636
0.400152
0.441404
0.435242
0.411376
0.416441
0.415345
0.397707
0.403077
0.886831
1.40748
0.439364
0.182237
0.228251
0.256715
0.317623
0.372739
0.415758
0.454123
0.489766
0.527053
0.569961
0.623211
0.688063
0.758781
0.851453
0.905221
0.953001
0.881995
0.820249
0.923883
1.46903
3.83342
4.57111
4.14871
3.23019
3.76524
0.772716
0.810317
0.851569
0.855494
1.02486
1.15142
1.36453
2.16497
1.9279
1.59819
1.18726
0.651292
0.513888
0.44968
0.401239
0.361905
0.332585
0.311841
0.29214
0.268582
0.2437
0.226329
0.212759
0.206566
0.212336
0.228153
0.24712
0.2727
0.289723
0.30714
0.325941
0.415478
0.760018
0.624682
0.473034
0.419816
0.343274
0.768104
0.893685
0.842904
0.823288
0.431249
0.186481
0.263694
0.350736
0.398868
0.402798
0.381831
0.395791
0.410601
0.40054
0.364472
1.00106
1.74292
0.239582
0.245037
0.256287
0.243676
0.257942
0.316981
0.377101
0.408583
0.443995
0.499324
0.555399
0.617256
0.68495
0.74996
0.801939
0.844548
0.888165
0.859401
0.723145
0.683551
0.873808
3.79589
4.81832
3.63568
2.47456
3.72182
0.608867
0.624571
0.622056
0.592801
0.672487
2.40629
4.2378
4.33923
4.41113
3.88709
1.31441
0.54619
0.472825
0.424338
0.388643
0.356413
0.328276
0.305681
0.286103
0.266708
0.247059
0.230387
0.22071
0.215208
0.214213
0.220695
0.248543
0.262107
0.264947
0.276
0.303374
0.326074
0.64025
0.673612
0.452074
0.388856
0.457599
0.903377
0.826981
0.777753
0.502661
0.0253045
0.0864387
0.168365
0.299174
0.434278
0.532895
0.395741
0.392467
0.411737
0.406458
0.949738
1.27113
0.983558
0.192815
0.19078
0.173038
0.278052
0.408616
0.445822
0.508678
0.583399
0.525943
0.51096
0.519578
0.569249
0.623162
0.685637
0.737439
0.779805
0.801878
0.774685
0.692212
0.647114
0.633048
0.894071
3.71748
4.59095
2.38096
3.46097
0.622195
0.58573
0.509618
0.390034
0.438917
3.70233
4.07975
4.24967
4.36137
3.49346
1.02574
0.484069
0.43362
0.398103
0.371969
0.345601
0.319692
0.298081
0.280332
0.264428
0.249752
0.237174
0.234248
0.235234
0.233878
0.235885
0.234848
0.234848
0.240558
0.253827
0.275912
0.300548
0.333834
0.66065
0.459111
0.357628
0.647647
0.844862
0.771797
0.656377
-0.090279
-0.0749667
-0.0141287
0.0754212
0.227205
1.29049
1.58701
0.403949
0.402669
0.414841
0.516575
1.35166
1.30741
0.44159
0.152298
0.132478
0.312666
0.296868
0.315726
0.370562
0.448724
0.520043
0.53399
0.530072
0.463643
0.497925
0.534351
0.579105
0.624101
0.661151
0.6755
0.65666
0.617317
0.595434
0.598407
0.593601
1.58969
4.66462
2.38005
4.01749
0.658188
0.587343
0.470263
0.309607
0.847622
3.96388
4.0717
4.23927
4.18356
1.14649
0.648711
0.43638
0.386335
0.364826
0.350482
0.333694
0.314471
0.296806
0.281146
0.266398
0.252613
0.240561
0.233325
0.232983
0.225941
0.220908
0.222833
0.2267
0.23169
0.239608
0.252096
0.269209
0.285601
0.487533
0.485738
0.318302
0.435507
0.807456
0.730596
0.514821
-0.162345
-0.154295
-0.0922877
0.0148918
0.194911
1.5194
1.64772
0.477495
0.426219
0.417909
0.659414
1.32756
1.22601
0.176377
0.107374
0.209135
0.228834
0.223572
0.255588
0.318523
0.318279
0.370616
0.484484
0.497903
0.449679
0.414198
0.409535
0.430171
0.45595
0.480107
0.492678
0.492101
0.487397
0.497871
0.530331
0.560099
0.586137
4.16993
2.82117
5.05363
1.36418
0.618165
0.502031
0.345843
3.70974
4.04924
4.19178
3.97266
0.990096
0.675806
0.686442
0.664101
0.391019
0.329694
0.328137
0.319681
0.30613
0.292162
0.278964
0.265918
0.253204
0.24155
0.231783
0.224434
0.219876
0.217961
0.218292
0.220548
0.225536
0.230718
0.236826
0.243636
0.250897
0.248571
0.43588
0.382621
0.247339
0.796351
0.714293
0.669132
0.0347177
-0.0549618
-0.0476748
-0.00939179
0.110131
1.0666
1.71297
0.739851
0.456548
0.417533
0.565209
1.32579
1.06023
0.112386
0.101071
0.2123
0.177618
0.182399
0.202485
0.102133
0.197112
0.423398
0.765719
0.778066
0.614301
0.297858
0.25836
0.247528
0.244313
0.248274
0.25816
0.27673
0.309694
0.361395
0.429961
0.497917
0.558702
3.40511
4.65949
5.21354
5.09534
2.30051
2.17545
4.20892
4.47636
4.32831
3.49384
0.575465
0.641659
0.820178
0.930861
0.954128
0.438283
0.297417
0.308394
0.308015
0.299434
0.288348
0.27665
0.264423
0.252042
0.240284
0.22991
0.221489
0.215399
0.211733
0.210427
0.211205
0.213554
0.217602
0.221889
0.224879
0.224939
0.216391
0.239406
0.252163
0.0568613
0.607384
0.732443
0.678549
0.65693
0.665598
0.648749
0.0729885
0.13131
0.271255
1.77363
1.24882
0.469003
0.403662
0.533187
1.27572
0.919809
0.051693
0.0895362
0.181937
0.160498
0.13938
-0.0446459
0.0324202
0.384494
0.680487
0.701719
0.70951
0.499878
0.163905
0.0854325
0.0382051
0.00399756
-0.0162957
0.000970488
0.0223505
0.0946819
0.195238
0.30785
0.415041
0.518856
3.82543
4.79822
5.31927
5.32316
5.26717
5.12461
4.95222
4.82675
2.80555
0.592109
0.575362
0.64427
0.871596
0.899596
0.908811
0.353366
0.28103
0.297501
0.300848
0.295337
0.286117
0.275113
0.262873
0.249995
0.23734
0.225769
0.215958
0.208347
0.2031
0.200165
0.199308
0.200122
0.201854
0.203722
0.205329
0.204327
0.196316
0.174999
0.135124
0.0631124
0.00166333
0.0471023
0.731
0.7048
0.721759
0.801535
0.208282
0.172265
0.285774
1.69458
1.438
0.454875
0.375227
0.465011
1.19316
0.513606
0.0114497
-0.000184043
0.130617
0.0189942
-0.104689
-0.0564022
0.191781
0.633718
0.649615
0.644739
0.43195
0.0432195
-0.00473091
-0.109353
-0.183658
0.141409
0.857692
0.270241
-0.243546
-0.127914
0.0204545
0.177863
0.326161
0.861511
4.89578
4.96812
3.97397
5.29545
5.33095
5.27636
5.22155
1.38154
0.590557
0.632349
0.653393
0.885298
0.89427
0.676907
0.241133
0.253716
0.282145
0.296447
0.299231
0.29472
0.286079
0.27476
0.2615
0.247121
0.232702
0.219298
0.2077
0.198391
0.191552
0.18712
0.184844
0.184303
0.184858
0.18556
0.185455
0.184332
0.179775
0.167149
0.139472
0.0901055
0.0187256
-0.0534609
-0.0391919
0.152574
0.168929
0.0592787
0.101793
0.22107
0.305669
1.95836
1.31026
0.400464
0.325691
0.343439
0.757838
0.0862407
-0.00530302
-0.0611347
-0.0849566
-0.0912228
-0.0651142
0.00968571
0.630192
0.642693
0.628346
0.25347
-0.0423563
-0.110344
-0.21759
-0.246949
1.2076
4.12923
4.4961
4.53828
2.94775
0.286832
-0.149982
0.0520749
0.240494
3.90497
5.68771
4.81298
0.527617
1.00866
1.85632
1.07714
0.610243
0.643138
0.620436
0.834644
0.778662
0.573462
0.30557
0.222159
0.245595
0.271444
0.29032
0.299875
0.301358
0.29687
0.287963
0.275497
0.260191
0.243182
0.225996
0.210026
0.196203
0.185027
0.176673
0.171023
0.167769
0.166422
0.166348
0.166809
0.16678
0.165754
0.163451
0.157527
0.143185
0.115648
0.0738702
0.0294212
-0.0015582
-0.0064601
0.0245786
0.0849881
0.17041
0.25119
0.365459
2.54323
1.33663
0.324929
0.262236
0.240121
0.142183
0.0481466
-0.00145664
-0.0355289
-0.0454739
-0.0384958
-0.013997
0.403604
0.655651
0.659376
0.343964
-0.0387073
-0.10221
-0.196762
0.110813
2.44002
4.50655
4.26378
4.16646
4.24476
4.47107
4.63509
2.55087
1.3844
3.40277
5.62623
5.80647
5.2473
0.451919
0.46387
0.472237
0.47052
0.571186
0.909804
0.873129
0.545568
0.468247
0.267882
0.256307
0.259805
0.272172
0.286805
0.298546
0.304958
0.305664
0.301012
0.291392
0.277048
0.258528
0.237499
0.216348
0.197026
0.180584
0.167459
0.157774
0.151325
0.147699
0.146327
0.146484
0.147353
0.148211
0.149433
0.148865
0.147058
0.140501
0.123746
0.101562
0.0801995
0.0686154
0.0739243
0.099484
0.143491
0.197533
0.2452
0.932943
2.73707
1.31632
0.239727
0.198906
0.157823
0.106133
0.0540724
0.019059
0.0585361
0.0313826
0.0118514
0.138611
0.521999
0.401491
0.54714
0.00070336
-0.0333586
-0.128512
-0.221269
1.3394
4.58213
4.37393
4.17197
4.0581
4.12679
4.34889
4.65941
4.97282
5.25016
5.48249
5.68488
5.85169
6.07084
0.440863
0.446072
0.451133
0.450712
0.430278
0.489987
0.566457
0.344764
0.313631
0.293843
0.283748
0.283103
0.289311
0.297976
0.305901
0.310726
0.311142
0.3063
0.29578
0.278919
0.255731
0.228838
0.202209
0.17871
0.159391
0.14441
0.133764
0.12716
0.123978
0.123563
0.125025
0.127331
0.129876
0.135298
0.137718
0.136816
0.133605
0.126458
0.122102
0.114913
0.093876
0.100952
0.120509
0.156944
0.186693
0.219433
1.79407
2.87213
1.12162
0.161778
0.147034
0.132587
0.104522
0.0719867
0.0791892
0.114634
0.0608673
0.0525433
0.419546
0.2154
0.0854959
0.0526616
0.0368796
-0.000261309
-0.103207
-0.252008
1.32531
3.40795
3.26837
3.60744
4.18455
4.21908
4.40904
4.70305
5.02934
5.32914
5.5798
5.79324
6.01259
6.17127
0.425762
0.427029
0.429755
0.422845
0.408883
0.390027
0.367691
0.345465
0.324054
0.308418
0.299595
0.29734
0.300593
0.306144
0.312112
0.316261
0.316796
0.31195
0.300685
0.280699
0.250718
0.215252
0.18121
0.152661
0.130359
0.113843
0.102839
0.0968822
0.0953225
0.104411
0.116735
0.109706
0.111508
0.118368
0.125027
0.127592
0.127777
0.129845
0.286395
0.314734
0.270219
0.24037
0.308101
0.246324
0.173124
0.8738
2.96361
2.92902
0.702886
0.100362
0.11169
0.118658
0.109421
0.0968776
0.162031
0.133331
0.0821755
0.36531
0.427143
0.0926527
0.112656
0.0849212
0.0842309
0.0593604
-0.0168101
-0.0883757
-0.198062
-0.534842
-0.73821
-0.0973359
4.49074
4.56407
4.7
4.95891
5.26267
5.56902
5.84155
6.09547
5.95653
1.67524
0.409767
0.409106
0.408053
0.403341
0.392147
0.37769
0.361053
0.344087
0.32843
0.316242
0.308772
0.30602
0.307566
0.311534
0.316573
0.320667
0.321938
0.317512
0.305701
0.281967
0.241097
0.192256
0.14959
0.115045
0.090069
0.0726499
0.062157
0.058165
0.0598506
0.0873607
0.101176
0.110809
0.100137
0.102449
0.111477
0.1194
0.120967
0.119288
0.278796
0.327096
0.325902
0.323838
0.322878
0.247527
0.745605
3.01104
2.95724
2.90984
0.513719
0.0597149
0.0918755
0.112875
0.113055
0.178186
0.174274
0.134709
0.175591
0.391186
0.106952
0.0818946
0.224054
0.112411
0.131232
0.15465
0.133352
0.0436149
-0.116347
-0.352396
-0.595071
-0.76699
-0.13869
2.25749
3.87557
4.40782
4.35136
4.37066
4.43669
3.14471
1.63193
1.41345
0.395459
0.393635
0.391368
0.385933
0.377574
0.366705
0.354144
0.341214
0.329244
0.319621
0.313228
0.310379
0.31088
0.31399
0.3186
0.323022
0.325721
0.321441
0.313857
0.396436
0.274851
0.195042
0.117498
0.0586074
0.03325
0.0162103
0.00744311
0.00727822
0.0146702
0.0353732
0.0707619
0.0859503
0.0999342
0.0916697
0.0987608
0.10957
0.114444
0.115112
0.116408
0.329702
0.33667
0.333011
0.263673
0.205734
1.67402
3.00167
2.91356
2.34664
0.102999
0.0349639
0.0861565
0.112993
0.181088
0.195999
0.169968
0.119329
0.358368
0.302481
-0.00788719
0.057067
0.215832
0.132565
0.170537
0.271052
0.293632
0.156933
0.0030863
-0.156802
-0.321076
-0.560795
-0.690766
-0.591225
-0.100947
0.308148
0.496255
0.658967
0.84719
0.828072
1.00841
1.4244
0.382346
0.380335
0.377362
0.372406
0.365497
0.356941
0.347224
0.33717
0.327507
0.319685
0.314061
0.311077
0.310836
0.31305
0.317211
0.322151
0.32646
0.397517
1.32116
2.39842
1.91805
0.586096
0.0202685
-0.0182783
-0.0423378
-0.0592737
-0.0659143
-0.06053
-0.0439814
-0.0204156
0.0209945
0.0577482
0.0783203
0.0872416
0.0865374
0.0996209
0.109945
0.112698
0.11613
0.225768
0.302953
0.210568
0.152911
0.224232
2.19526
0.608499
1.07992
0.251998
-0.0415292
0.0428628
0.0976166
0.196369
0.218792
0.19515
0.128302
0.15768
0.321366
-0.02067
-0.0648041
-0.00563302
0.198546
0.160729
0.197591
0.30595
0.347351
0.278316
0.0349926
-0.193241
-0.382144
-0.592556
-0.603064
-0.0218491
0.494724
0.732297
0.545243
0.278805
0.393346
0.457489
0.487212
0.594245
0.370249
0.368304
0.365094
0.360673
0.354927
0.348031
0.340318
0.331878
0.324094
0.317267
0.311938
0.308521
0.307245
0.308183
0.311163
0.318149
0.572736
2.17121
2.7914
2.6858
2.58177
1.09141
-0.0515461
-0.0897805
-0.122493
-0.145246
-0.1556
-0.146922
-0.118557
-0.0793528
-0.0398588
0.0215129
0.0554579
0.080014
0.0795561
0.0877927
0.102055
0.112457
0.121295
0.16672
0.182685
0.168267
0.163816
0.368019
2.07353
-0.0763363
-0.114967
-0.0743554
0.0113316
0.0898376
0.220162
0.242216
0.231236
0.201435
0.0608932
0.140923
0.287284
-0.0795241
-0.115354
-0.0598757
0.179269
0.260427
0.210866
0.255288
0.361315
0.29697
0.0309181
-0.24719
-0.530324
-0.565937
0.221664
0.34011
0.559407
0.780341
0.0714028
0.173454
0.29722
0.364885
0.385796
0.380305
0.358647
0.357079
0.353982
0.35013
0.345319
0.339581
0.333053
0.326093
0.319234
0.312867
0.307356
0.302995
0.299964
0.298322
0.299213
0.500261
2.6728
2.86134
2.75454
2.64162
2.53721
0.47748
-0.0383167
0.0703218
0.399107
0.397214
0.080546
-0.226618
-0.20651
-0.147815
-0.0903317
-0.0274312
0.0313484
0.0634011
0.0720047
0.0791142
0.0970899
0.112234
0.125292
0.136709
0.180785
0.188187
0.204598
1.16396
1.19352
-0.00805759
-0.0276038
0.0199702
0.0899935
0.140932
0.209414
0.244967
0.254411
0.208593
0.058334
0.0343065
0.00143367
-0.123371
-0.145227
-0.0916982
0.131654
0.275394
0.211338
0.233663
0.287154
0.290227
0.0148882
-0.252515
-0.531357
-0.68332
-0.00736337
0.368209
0.569583
0.799415
0.0709146
0.130095
0.242667
0.309323
0.341623
0.346556
0.347753
0.346369
0.343727
0.340444
0.336345
0.331428
0.325808
0.319698
0.313363
0.307031
0.30088
0.294992
0.289101
0.283669
0.30977
2.49351
2.96611
2.84325
2.73379
2.62133
0.406245
0.4284
0.634435
1.24649
1.18053
1.12783
1.11355
-0.0711432
-0.299453
-0.220062
-0.143067
-0.0771717
0.00665066
0.0478655
0.0776513
0.0740387
0.0933548
0.11073
0.126003
0.146777
0.226082
0.204631
0.214071
1.14571
1.66053
0.0617376
0.0626504
0.137323
0.164462
0.205141
0.222089
0.215254
0.217194
0.142226
0.072006
-0.00819932
-0.0932047
-0.146024
-0.150326
-0.0981614
0.0493961
0.272244
0.248797
0.215342
0.218391
0.282128
0.0284616
-0.229936
-0.480878
-0.663633
-0.597946
0.35232
0.584354
0.820459
0.7215
0.0796118
0.184897
0.248899
0.285309
0.299466
0.337438
0.336242
0.334172
0.33137
0.32784
0.323557
0.318597
0.313042
0.306965
0.300388
0.293292
0.285379
0.275638
0.267482
0.865812
3.06433
2.96281
2.84501
2.71799
1.9097
0.29206
1.11205
1.24973
1.15428
1.06179
0.998322
0.986319
0.189918
-0.393103
-0.287941
-0.191256
-0.110372
-0.0140617
0.0353161
0.071764
0.0755784
0.0902136
0.108444
0.123905
0.169621
0.226828
0.209514
0.199322
1.04009
2.0055
0.105786
0.470976
0.72598
0.563283
0.322228
0.499056
0.364734
0.22136
0.159467
0.0882685
0.00416202
-0.0791869
-0.13065
-0.131499
-0.0805659
0.0785991
0.273815
0.279291
0.191108
0.155409
0.253851
0.186132
-0.182597
-0.395934
-0.562293
-0.630004
-0.546852
0.641167
0.837459
0.901903
0.0373929
0.135399
0.195062
0.229628
0.248118
0.327762
0.326779
0.325163
0.32277
0.319733
0.315995
0.311586
0.306468
0.300562
0.293694
0.285634
0.275509
0.26173
0.385168
2.66609
3.07864
2.95943
2.64523
1.00721
0.0580872
0.294767
1.29719
1.1878
1.06424
0.950712
0.743828
0.0144014
-0.473633
-0.45719
-0.335027
-0.224016
-0.131867
-0.0321394
0.0283258
0.0681915
0.0771547
0.091283
0.108083
0.120895
0.15391
0.218609
0.204445
0.206506
2.52602
2.75231
0.137564
0.314787
0.756862
0.874777
1.56701
2.15211
2.23877
2.05332
0.689257
0.0833136
0.0101371
-0.0555125
-0.0913846
-0.0836605
-0.0337483
0.0983528
0.282656
0.260764
0.161722
0.119097
0.147457
0.188686
-0.0429984
-0.299023
-0.428872
-0.49249
-0.485812
0.182899
0.892684
0.115886
0.0369468
0.100554
0.152691
0.182783
0.201014
0.318649
0.317907
0.316593
0.314581
0.312017
0.308807
0.304926
0.300262
0.294641
0.287759