/*--------------------------------*- C++ -*----------------------------------*\
| =========                 |                                                 |
| \\      /  F ield         | OpenFOAM: The Open Source CFD Toolbox           |
|  \\    /   O peration     | Version:  2412                                  |
|   \\  /    A nd           | Website:  www.openfoam.com                      |
|    \\/     M anipulation  |                                                 |
\*---------------------------------------------------------------------------*/
FoamFile
{
    version     2.0;
    format      ascii;
    arch        "LSB;label=32;scalar=64";
    class       surfaceScalarField;
    location    "7.85";
    object      phi;
}
// * * * * * * * * * * * * * * * * * * * * * * * * * * * * * * * * * * * * * //

dimensions      [0 3 -1 0 0 0 0];

oriented        oriented;

internalField   nonuniform List<scalar> 
12640
(
-9.85887e-06
9.85887e-06
-1.70012e-05
7.14217e-06
-2.13065e-05
4.30533e-06
-2.37571e-05
2.45091e-06
-2.53469e-05
1.59025e-06
-2.67812e-05
1.43461e-06
-2.83441e-05
1.56304e-06
-2.99876e-05
1.64367e-06
-3.15791e-05
1.59177e-06
-3.28024e-05
1.22346e-06
-3.34095e-05
6.06964e-07
-3.31962e-05
-2.13298e-07
-3.20174e-05
-1.17892e-06
-2.97173e-05
-2.30018e-06
-2.63251e-05
-3.39184e-06
-2.1902e-05
-4.42307e-06
-1.657e-05
-5.33175e-06
-1.04745e-05
-6.09508e-06
-3.8214e-06
-6.65278e-06
3.13565e-06
-6.95674e-06
1.02275e-05
-7.09154e-06
1.72114e-05
-6.98368e-06
2.38534e-05
-6.64126e-06
3.00087e-05
-6.15434e-06
3.54479e-05
-5.43795e-06
4.00614e-05
-4.61232e-06
4.37275e-05
-3.6651e-06
4.63245e-05
-2.59621e-06
4.77847e-05
-1.45929e-06
4.81007e-05
-3.15021e-07
4.72436e-05
8.5773e-07
4.52072e-05
2.03705e-06
4.21242e-05
3.08375e-06
3.80626e-05
4.06194e-06
3.31685e-05
4.89427e-06
2.75059e-05
5.66315e-06
2.12008e-05
6.30589e-06
1.44204e-05
6.78097e-06
7.34215e-06
7.07843e-06
1.08071e-07
7.2343e-06
-7.15086e-06
7.25907e-06
-1.42563e-05
7.1054e-06
-2.11034e-05
6.84713e-06
-2.74638e-05
6.36053e-06
-3.32526e-05
5.7889e-06
-3.82699e-05
5.01753e-06
-4.24453e-05
4.17548e-06
-4.56849e-05
3.23973e-06
-4.78101e-05
2.12547e-06
-4.8792e-05
9.82238e-07
-4.86551e-05
-1.36395e-07
-4.72098e-05
-1.44466e-06
-4.45929e-05
-2.61615e-06
-4.0997e-05
-3.59489e-06
-3.62889e-05
-4.70676e-06
-3.07035e-05
-5.58406e-06
-2.43127e-05
-6.38953e-06
-1.73431e-05
-6.9684e-06
-9.97149e-06
-7.37039e-06
-2.39455e-06
-7.57568e-06
5.16209e-06
-7.55551e-06
1.24423e-05
-7.27943e-06
1.92095e-05
-6.76688e-06
2.5266e-05
-6.05625e-06
3.04201e-05
-5.15368e-06
3.45033e-05
-4.08252e-06
3.74284e-05
-2.92466e-06
3.91947e-05
-1.7665e-06
3.98319e-05
-6.37617e-07
3.9532e-05
2.99943e-07
3.84286e-05
1.10424e-06
3.67906e-05
1.63906e-06
3.49383e-05
1.85255e-06
3.30639e-05
1.87395e-06
3.11505e-05
1.91312e-06
2.88137e-05
2.33769e-06
2.53839e-05
3.43067e-06
1.98566e-05
5.52755e-06
1.12549e-05
8.60274e-06
1.12557e-05
-9.44277e-06
1.93015e-05
-1.40718e-05
1.17715e-05
-1.39406e-05
4.17473e-06
-1.11756e-05
-3.1345e-07
-7.60958e-06
-1.97534e-06
-4.73289e-06
-1.44182e-06
-3.22061e-06
5.10675e-08
-3.27836e-06
1.70172e-06
-4.60071e-06
2.91436e-06
-6.7934e-06
3.41653e-06
-9.2839e-06
3.09746e-06
-1.15389e-05
2.04176e-06
-1.31083e-05
3.90759e-07
-1.38044e-05
-1.60405e-06
-1.3463e-05
-3.733e-06
-1.20941e-05
-5.79149e-06
-9.73793e-06
-7.68772e-06
-6.47447e-06
-9.35862e-06
-2.45902e-06
-1.06682e-05
2.13833e-06
-1.15534e-05
7.10407e-06
-1.20561e-05
1.2214e-05
-1.20925e-05
1.7369e-05
-1.17951e-05
2.23141e-05
-1.10982e-05
2.68299e-05
-9.95251e-06
3.07733e-05
-8.55435e-06
3.40174e-05
-6.90767e-06
3.63912e-05
-4.96873e-06
3.78337e-05
-2.90087e-06
3.82606e-05
-7.40835e-07
3.78422e-05
1.27702e-06
3.63587e-05
3.52101e-06
3.39409e-05
5.50216e-06
3.06305e-05
7.37307e-06
2.64817e-05
9.04382e-06
2.16606e-05
1.04846e-05
1.63246e-05
1.16422e-05
1.05508e-05
1.25552e-05
4.48748e-06
1.31422e-05
-1.72758e-06
1.34497e-05
-7.94821e-06
1.34801e-05
-1.40612e-05
1.3219e-05
-1.987e-05
1.26567e-05
-2.52859e-05
1.17772e-05
-3.01492e-05
1.06528e-05
-3.43601e-05
9.22894e-06
-3.77501e-05
7.56601e-06
-4.02024e-05
5.69267e-06
-4.17535e-05
3.6773e-06
-4.22818e-05
1.51141e-06
-4.17206e-05
-6.96687e-07
-4.02846e-05
-2.87941e-06
-3.78844e-05
-5.01502e-06
-3.45177e-05
-6.96026e-06
-3.03594e-05
-8.86394e-06
-2.55164e-05
-1.04259e-05
-2.02236e-05
-1.16812e-05
-1.45849e-05
-1.26058e-05
-8.8519e-06
-1.31022e-05
-3.2242e-06
-1.32025e-05
2.07146e-06
-1.28507e-05
6.83833e-06
-1.2046e-05
1.09136e-05
-1.08416e-05
1.40933e-05
-9.23489e-06
1.62569e-05
-7.31621e-06
1.73415e-05
-5.16653e-06
1.73274e-05
-2.91057e-06
1.63584e-05
-7.97702e-07
1.46206e-05
1.10069e-06
1.24659e-05
2.45607e-06
1.05102e-05
3.06146e-06
9.25985e-06
2.88998e-06
9.17167e-06
1.94032e-06
1.05248e-05
5.21024e-07
1.30836e-05
-6.44309e-07
1.60782e-05
-6.55461e-07
1.80528e-05
1.45654e-06
1.70704e-05
6.51114e-06
1.10228e-05
1.46516e-05
2.22764e-05
-9.37565e-06
2.86772e-05
-1.27292e-05
1.51255e-05
-1.03729e-05
1.81896e-06
-4.45495e-06
-6.23102e-06
2.42966e-06
-8.85977e-06
8.43032e-06
-7.44229e-06
1.2357e-05
-3.87507e-06
1.40716e-05
-1.20729e-08
1.38831e-05
3.10337e-06
1.23873e-05
4.91297e-06
1.02668e-05
5.21833e-06
8.11882e-06
4.18969e-06
6.30676e-06
2.20269e-06
5.34421e-06
-6.41434e-07
5.20504e-06
-3.59467e-06
6.14038e-06
-6.72808e-06
8.02103e-06
-9.56868e-06
1.07839e-05
-1.21211e-05
1.42932e-05
-1.41774e-05
1.83376e-05
-1.55978e-05
2.27328e-05
-1.64513e-05
2.73227e-05
-1.66826e-05
3.18227e-05
-1.62951e-05
3.60158e-05
-1.5291e-05
3.98984e-05
-1.38348e-05
4.31007e-05
-1.17566e-05
4.54497e-05
-9.25653e-06
4.70899e-05
-6.60867e-06
4.76313e-05
-3.44203e-06
4.71891e-05
-2.98628e-07
4.5569e-05
2.89733e-06
4.31628e-05
5.92796e-06
3.97323e-05
8.93334e-06
3.53867e-05
1.17187e-05
3.025e-05
1.41806e-05
2.44799e-05
1.62554e-05
1.81222e-05
1.80011e-05
1.13518e-05
1.93266e-05
4.40009e-06
2.00949e-05
-2.69009e-06
2.05411e-05
-9.78904e-06
2.05804e-05
-1.67806e-05
2.02117e-05
-2.35295e-05
1.94066e-05
-2.98978e-05
1.81462e-05
-3.57379e-05
1.64935e-05
-4.09542e-05
1.44458e-05
-4.53387e-05
1.19509e-05
-4.88694e-05
9.22351e-06
-5.14069e-05
6.21476e-06
-5.29496e-05
3.05395e-06
-5.33462e-05
-3.00447e-07
-5.2804e-05
-3.4222e-06
-5.12158e-05
-6.60408e-06
-4.85297e-05
-9.64735e-06
-4.51747e-05
-1.22197e-05
-4.10515e-05
-1.45497e-05
-3.63451e-05
-1.63882e-05
-3.13022e-05
-1.76494e-05
-2.60988e-05
-1.83062e-05
-2.09455e-05
-1.83563e-05
-1.60811e-05
-1.7715e-05
-1.17327e-05
-1.63939e-05
-8.06513e-06
-1.45085e-05
-5.2507e-06
-1.20486e-05
-3.41746e-06
-9.14884e-06
-2.61961e-06
-5.964e-06
-2.84284e-06
-2.68732e-06
-4.00064e-06
3.60064e-07
-5.65989e-06
2.76054e-06
-7.26814e-06
4.06558e-06
-8.41771e-06
4.21191e-06
-8.38784e-06
2.85991e-06
-6.59368e-06
1.45866e-07
-2.72425e-06
-3.34751e-06
3.04641e-06
-6.41383e-06
9.59878e-06
-7.20807e-06
1.47465e-05
-3.69147e-06
1.59875e-05
5.27078e-06
1.11266e-05
1.95102e-05
3.34032e-05
-1.06982e-05
3.93756e-05
-1.45125e-05
1.89403e-05
-1.11707e-05
-1.52234e-06
-3.03331e-06
-1.43682e-05
6.73624e-06
-1.8629e-05
1.52544e-05
-1.596e-05
2.07889e-05
-9.40882e-06
2.30189e-05
-2.24104e-06
2.27824e-05
3.34058e-06
2.09467e-05
6.7489e-06
1.84268e-05
7.73827e-06
1.59704e-05
6.64616e-06
1.41378e-05
4.03447e-06
1.30871e-05
4.0897e-07
1.31828e-05
-3.69032e-06
1.43017e-05
-7.84714e-06
1.65223e-05
-1.17898e-05
1.97217e-05
-1.53212e-05
2.35971e-05
-1.80532e-05
2.80485e-05
-2.00491e-05
3.28311e-05
-2.12334e-05
3.7699e-05
-2.15501e-05
4.2441e-05
-2.10372e-05
4.68629e-05
-1.9713e-05
5.06528e-05
-1.76246e-05
5.37589e-05
-1.48626e-05
5.59838e-05
-1.14812e-05
5.703e-05
-7.65428e-06
5.72177e-05
-3.6286e-06
5.62063e-05
7.14024e-07
5.39891e-05
5.11497e-06
5.0578e-05
9.33929e-06
4.6134e-05
1.33785e-05
4.0852e-05
1.70022e-05
3.47485e-05
2.02851e-05
2.79302e-05
2.30743e-05
2.05896e-05
2.53419e-05
1.29771e-05
2.69395e-05
5.04707e-06
2.80255e-05
-2.9944e-06
2.85831e-05
-1.10364e-05
2.86227e-05
-1.89377e-05
2.81131e-05
-2.66448e-05
2.71138e-05
-3.40216e-05
2.55233e-05
-4.08202e-05
2.32923e-05
-4.6993e-05
2.06189e-05
-5.24103e-05
1.73682e-05
-5.6893e-05
1.37064e-05
-6.02568e-05
9.5787e-06
-6.24721e-05
5.26937e-06
-6.37088e-05
9.36326e-07
-6.36254e-05
-3.50544e-06
-6.23372e-05
-7.89202e-06
-6.0034e-05
-1.19505e-05
-5.66583e-05
-1.55955e-05
-5.24644e-05
-1.87437e-05
-4.768e-05
-2.11727e-05
-4.23529e-05
-2.29762e-05
-3.67858e-05
-2.38728e-05
-3.12692e-05
-2.38726e-05
-2.59209e-05
-2.30633e-05
-2.10899e-05
-2.12253e-05
-1.69733e-05
-1.86253e-05
-1.37214e-05
-1.53007e-05
-1.15174e-05
-1.13531e-05
-1.04711e-05
-7.01068e-06
-1.05765e-05
-2.58258e-06
-1.1705e-05
1.48827e-06
-1.34884e-05
4.54397e-06
-1.55435e-05
6.12075e-06
-1.69913e-05
5.65902e-06
-1.69465e-05
2.81411e-06
-1.45557e-05
-2.24499e-06
-8.95101e-06
-8.95162e-06
-4.88696e-07
-1.48769e-05
8.96293e-06
-1.66612e-05
1.63688e-05
-1.10975e-05
1.81859e-05
3.45312e-06
1.2654e-05
2.50415e-05
4.60598e-05
-1.33561e-05
5.27319e-05
-1.93456e-05
2.49305e-05
-1.60671e-05
-4.80033e-06
-5.19684e-06
-2.52381e-05
8.82395e-06
-3.26494e-05
2.0915e-05
-2.80504e-05
2.79626e-05
-1.64559e-05
2.98585e-05
-4.13655e-06
2.82349e-05
4.96453e-06
2.47296e-05
1.02543e-05
2.0692e-05
1.17755e-05
1.70799e-05
1.02586e-05
1.45007e-05
6.6141e-06
1.32956e-05
1.61458e-06
1.35036e-05
-3.89837e-06
1.50041e-05
-9.34789e-06
1.78014e-05
-1.4587e-05
2.16102e-05
-1.91294e-05
2.63432e-05
-2.27855e-05
3.15974e-05
-2.53026e-05
3.71528e-05
-2.67882e-05
4.28356e-05
-2.72327e-05
4.82509e-05
-2.64525e-05
5.32091e-05
-2.4671e-05
5.75159e-05
-2.19308e-05
6.09499e-05
-1.82955e-05
6.33253e-05
-1.38559e-05
6.46219e-05
-8.9511e-06
6.46292e-05
-3.63686e-06
6.32504e-05
2.09209e-06
6.07021e-05
7.66304e-06
5.68949e-05
1.31465e-05
5.1916e-05
1.83574e-05
4.58369e-05
2.30808e-05
3.88975e-05
2.72237e-05
3.11972e-05
3.07741e-05
2.30588e-05
3.34803e-05
1.45239e-05
3.54746e-05
5.78584e-06
3.67636e-05
-3.05086e-06
3.74197e-05
-1.18857e-05
3.74574e-05
-2.0593e-05
3.68205e-05
-2.90972e-05
3.56182e-05
-3.73075e-05
3.3734e-05
-4.50589e-05
3.10442e-05
-5.2009e-05
2.75696e-05
-5.81046e-05
2.34645e-05
-6.31395e-05
1.87418e-05
-6.72129e-05
1.36527e-05
-6.9962e-05
8.0193e-06
-7.13454e-05
2.32063e-06
-7.13968e-05
-3.45286e-06
-7.01273e-05
-9.16032e-06
-6.75994e-05
-1.44773e-05
-6.39436e-05
-1.92499e-05
-5.93202e-05
-2.33654e-05
-5.38727e-05
-2.66184e-05
-4.79393e-05
-2.89082e-05
-4.16464e-05
-3.01648e-05
-3.52224e-05
-3.02962e-05
-2.9039e-05
-2.92466e-05
-2.33139e-05
-2.69503e-05
-1.83572e-05
-2.35816e-05
-1.4416e-05
-1.92414e-05
-1.16936e-05
-1.40753e-05
-1.04201e-05
-8.2843e-06
-1.0704e-05
-2.29893e-06
-1.2348e-05
3.13189e-06
-1.52866e-05
7.48221e-06
-1.88036e-05
9.63684e-06
-2.19248e-05
8.7788e-06
-2.32675e-05
4.15617e-06
-2.11087e-05
-4.40343e-06
-1.38045e-05
-1.62561e-05
-1.5702e-06
-2.71131e-05
1.21608e-05
-3.03934e-05
2.21573e-05
-2.10942e-05
2.37445e-05
1.86474e-06
1.56493e-05
3.31383e-05
6.17086e-05
-1.7708e-05
7.04403e-05
-2.71994e-05
3.44228e-05
-2.29427e-05
-9.05655e-06
-6.69681e-06
-4.14838e-05
1.34211e-05
-5.27672e-05
2.97628e-05
-4.43918e-05
3.79945e-05
-2.46874e-05
3.83866e-05
-4.52877e-06
3.39124e-05
9.43838e-06
2.72576e-05
1.69094e-05
2.04927e-05
1.85409e-05
1.48955e-05
1.58558e-05
1.1228e-05
1.02815e-05
9.38703e-06
3.45595e-06
9.48666e-06
-3.9972e-06
1.14576e-05
-1.13181e-05
1.49689e-05
-1.80978e-05
1.97502e-05
-2.39108e-05
2.54945e-05
-2.85306e-05
3.18517e-05
-3.1661e-05
3.8557e-05
-3.34942e-05
4.52429e-05
-3.39188e-05
5.16908e-05
-3.28998e-05
5.75803e-05
-3.05601e-05
6.26566e-05
-2.70074e-05
6.67213e-05
-2.23614e-05
6.96487e-05
-1.67841e-05
7.12281e-05
-1.05306e-05
7.1269e-05
-3.67703e-06
7.00805e-05
3.28117e-06
6.7319e-05
1.04245e-05
6.31399e-05
1.73252e-05
5.75441e-05
2.39532e-05
5.07701e-05
2.98551e-05
4.30095e-05
3.49849e-05
3.45629e-05
3.9221e-05
2.5575e-05
4.24683e-05
1.61878e-05
4.48618e-05
6.60671e-06
4.63448e-05
-3.03464e-06
4.70615e-05
-1.26695e-05
4.70927e-05
-2.22432e-05
4.63946e-05
-3.16454e-05
4.50208e-05
-4.05938e-05
4.26829e-05
-4.91501e-05
3.96007e-05
-5.69698e-05
3.53894e-05
-6.38828e-05
3.03774e-05
-6.95536e-05
2.44127e-05
-7.38488e-05
1.7948e-05
-7.69442e-05
1.1115e-05
-7.8402e-05
3.77891e-06
-7.83122e-05
-3.54201e-06
-7.6803e-05
-1.0669e-05
-7.38485e-05
-1.74314e-05
-6.95971e-05
-2.35012e-05
-6.41979e-05
-2.87647e-05
-5.79323e-05
-3.2884e-05
-5.09189e-05
-3.59213e-05
-4.35181e-05
-3.7565e-05
-3.59516e-05
-3.78622e-05
-2.85639e-05
-3.66336e-05
-2.16971e-05
-3.38167e-05
-1.5683e-05
-2.95955e-05
-1.09189e-05
-2.40051e-05
-7.74901e-06
-1.7245e-05
-6.35477e-06
-9.67828e-06
-6.90174e-06
-1.75185e-06
-9.63095e-06
5.86089e-06
-1.44451e-05
1.22957e-05
-2.06713e-05
1.58621e-05
-2.69965e-05
1.51035e-05
-3.12407e-05
8.40091e-06
-3.0615e-05
-5.02882e-06
-2.21695e-05
-2.47029e-05
-5.76798e-06
-4.35164e-05
1.4178e-05
-5.03392e-05
2.9655e-05
-3.65713e-05
3.247e-05
-9.51011e-07
2.04043e-05
4.52049e-05
8.21098e-05
-2.22581e-05
9.2699e-05
-3.00284e-05
4.21939e-05
-1.26782e-05
-2.64066e-05
1.83426e-05
-7.25047e-05
4.48259e-05
-7.92504e-05
5.77123e-05
-5.72783e-05
5.85753e-05
-2.55502e-05
5.20782e-05
1.9684e-06
4.1516e-05
2.00003e-05
2.96542e-05
2.87706e-05
1.8796e-05
2.93987e-05
1.03791e-05
2.42724e-05
5.12435e-06
1.55362e-05
2.69358e-06
5.88641e-06
2.89264e-06
-4.19716e-06
5.46794e-06
-1.3895e-05
9.96712e-06
-2.25989e-05
1.5972e-05
-2.99174e-05
2.29955e-05
-3.5555e-05
3.07658e-05
-3.94313e-05
3.88995e-05
-4.16279e-05
4.69589e-05
-4.19786e-05
5.47642e-05
-4.07056e-05
6.18856e-05
-3.76815e-05
6.8033e-05
-3.3154e-05
7.30105e-05
-2.73378e-05
7.66733e-05
-2.04458e-05
7.87455e-05
-1.26019e-05
7.92819e-05
-4.2124e-06
7.8028e-05
4.53611e-06
7.50102e-05
1.34432e-05
7.03456e-05
2.19909e-05
6.42525e-05
3.00475e-05
5.68003e-05
3.73082e-05
4.80601e-05
4.37259e-05
3.85939e-05
4.86882e-05
2.84876e-05
5.25755e-05
1.82002e-05
5.51499e-05
7.61944e-06
5.69261e-05
-2.97438e-06
5.76557e-05
-1.35965e-05
5.77152e-05
-2.41279e-05
5.69263e-05
-3.4492e-05
5.53851e-05
-4.46672e-05
5.28581e-05
-5.41619e-05
4.90953e-05
-6.2877e-05
4.41043e-05
-7.04746e-05
3.79747e-05
-7.69465e-05
3.0884e-05
-8.1769e-05
2.27697e-05
-8.48661e-05
1.42111e-05
-8.64891e-05
5.40065e-06
-8.61879e-05
-3.84485e-06
-8.42055e-05
-1.26534e-05
-8.06037e-05
-2.10354e-05
-7.54881e-05
-2.8619e-05
-6.9093e-05
-3.51613e-05
-6.15892e-05
-4.03887e-05
-5.33291e-05
-4.41817e-05
-4.44476e-05
-4.64468e-05
-3.54834e-05
-4.68268e-05
-2.65643e-05
-4.55532e-05
-1.8228e-05
-4.21534e-05
-1.08667e-05
-3.69568e-05
-4.90431e-06
-2.99672e-05
-8.07996e-07
-2.13409e-05
9.25486e-07
-1.14115e-05
-2.23314e-07
-6.02974e-07
-4.53816e-06
1.01755e-05
-1.19161e-05
1.96729e-05
-2.22287e-05
2.6174e-05
-3.39082e-05
2.67831e-05
-4.46763e-05
1.91697e-05
-5.18697e-05
2.16423e-06
-5.22233e-05
-2.43505e-05
-4.04973e-05
-5.52421e-05
-1.42607e-05
-7.65749e-05
1.73768e-05
-6.82095e-05
3.47727e-05
-1.83471e-05
2.52006e-05
5.47753e-05
0.000107309
-2.10128e-05
0.000113712
-4.46508e-06
2.56463e-05
5.36918e-05
-8.45637e-05
0.000116175
-0.000134987
0.000147772
-0.000110847
0.000139805
-4.93113e-05
0.000108825
5.42952e-06
7.77021e-05
3.30912e-05
5.21001e-05
4.5602e-05
3.14288e-05
4.94413e-05
1.49675e-05
4.58592e-05
3.39835e-06
3.58398e-05
-3.88377e-06
2.2816e-05
-6.79903e-06
8.79986e-06
-6.14086e-06
-4.85651e-06
-2.57358e-06
-1.74627e-05
3.28056e-06
-2.84529e-05
1.08702e-05
-3.75069e-05
1.96188e-05
-4.43037e-05
2.91864e-05
-4.89986e-05
3.91762e-05
-5.16169e-05
4.90025e-05
-5.18043e-05
5.83588e-05
-5.00618e-05
6.69725e-05
-4.62952e-05
7.45241e-05
-4.07058e-05
8.06821e-05
-3.34959e-05
8.52417e-05
-2.50054e-05
8.79983e-05
-1.53586e-05
8.8921e-05
-5.13482e-06
8.76503e-05
5.80713e-06
8.4621e-05
1.64723e-05
7.96071e-05
2.70052e-05
7.26062e-05
3.70493e-05
6.40492e-05
4.58661e-05
5.4326e-05
5.345e-05
4.35611e-05
5.94539e-05
3.2095e-05
6.40421e-05
2.03818e-05
6.68635e-05
8.80791e-06
6.85004e-05
-2.81322e-06
6.92771e-05
-1.44062e-05
6.93084e-05
-2.61284e-05
6.86485e-05
-3.79823e-05
6.72389e-05
-4.93401e-05
6.42158e-05
-6.01404e-05
5.98952e-05
-7.0251e-05
5.42143e-05
-7.88706e-05
4.65935e-05
-8.59429e-05
3.79553e-05
-9.14081e-05
2.82337e-05
-9.48795e-05
1.76812e-05
-9.62221e-05
6.74206e-06
-9.57863e-05
-4.28155e-06
-9.32032e-05
-1.52371e-05
-8.88415e-05
-2.53975e-05
-8.26957e-05
-3.47648e-05
-7.51114e-05
-4.27455e-05
-6.61761e-05
-4.93237e-05
-5.62368e-05
-5.41203e-05
-4.5597e-05
-5.70856e-05
-3.46736e-05
-5.77494e-05
-2.39221e-05
-5.63041e-05
-1.3642e-05
-5.24328e-05
-4.44397e-06
-4.6154e-05
3.11467e-06
-3.75249e-05
8.44344e-06
-2.66687e-05
1.08722e-05
-1.38396e-05
9.60241e-06
6.67048e-07
3.88153e-06
1.5896e-05
-6.79214e-06
3.0346e-05
-2.28527e-05
4.22341e-05
-4.3856e-05
4.77864e-05
-7.11462e-05
4.64594e-05
-0.000105554
3.65699e-05
-0.000140088
1.01827e-05
-0.000150916
-4.44133e-05
-0.000119721
-0.000107771
-5.51594e-05
-0.000132773
6.21627e-06
-7.97227e-05
2.33988e-05
3.75917e-05
0.000130712
-3.37646e-06
0.000117089
6.96492e-05
-4.73796e-05
0.000183738
-0.000198652
0.000276883
-0.000228131
0.000311665
-0.000145629
0.000279391
-1.70365e-05
0.000204486
8.03338e-05
0.000124875
0.000112702
6.72063e-05
0.00010327
3.06388e-05
8.60081e-05
6.64929e-06
6.98483e-05
-8.63923e-06
5.11286e-05
-1.6965e-05
3.11417e-05
-1.97203e-05
1.15554e-05
-1.80151e-05
-6.56114e-06
-1.28822e-05
-2.25952e-05
-5.02103e-06
-3.63135e-05
4.55884e-06
-4.7086e-05
1.56081e-05
-5.53526e-05
2.74939e-05
-6.08847e-05
3.95682e-05
-6.3692e-05
5.15667e-05
-6.38037e-05
6.29749e-05
-6.14704e-05
7.33958e-05
-5.67161e-05
8.26077e-05
-4.99177e-05
9.0123e-05
-4.10112e-05
9.57439e-05
-3.06267e-05
9.9432e-05
-1.90474e-05
0.000100749
-6.45247e-06
9.99698e-05
6.58686e-06
9.65611e-05
1.9881e-05
9.07263e-05
3.28396e-05
8.28998e-05
4.48751e-05
7.31588e-05
5.56067e-05
6.18893e-05
6.47193e-05
4.92523e-05
7.2091e-05
3.63307e-05
7.69639e-05
2.3239e-05
7.99556e-05
1.02151e-05
8.15248e-05
-2.61551e-06
8.2108e-05
-1.54979e-05
8.21911e-05
-2.85928e-05
8.17436e-05
-4.1718e-05
8.03644e-05
-5.50835e-05
7.75816e-05
-6.75943e-05
7.24064e-05
-7.89028e-05
6.55232e-05
-8.9033e-05
5.67242e-05
-9.73138e-05
4.62368e-05
-0.000103311
3.42324e-05
-0.000107139
2.15099e-05
-0.000108686
8.29049e-06
-0.000107715
-5.25076e-06
-0.000104515
-1.84359e-05
-9.91223e-05
-3.07885e-05
-9.17245e-05
-4.21618e-05
-8.24999e-05
-5.19693e-05
-7.17972e-05
-6.00254e-05
-5.98434e-05
-6.60731e-05
-4.71147e-05
-6.98136e-05
-3.3855e-05
-7.10086e-05
-2.0695e-05
-6.9464e-05
-8.01592e-06
-6.51119e-05
3.57242e-06
-5.7742e-05
1.33806e-05
-4.73327e-05
2.06292e-05
-3.3917e-05
2.44284e-05
-1.76387e-05
2.37467e-05
1.34844e-06
1.71371e-05
2.2505e-05
2.91992e-06
4.45627e-05
-2.04697e-05
6.56235e-05
-5.82882e-05
8.56043e-05
-0.000119557
0.000107726
-0.000203865
0.000120876
-0.000283118
8.94358e-05
-0.000318593
-8.93779e-06
-0.00028601
-0.000140355
-0.000192003
-0.000226779
-7.3227e-05
-0.000198497
4.27645e-06
-3.99106e-05
0.000134989
3.53741e-05
8.17148e-05
0.000170262
-0.000182268
0.000308832
-0.000337221
0.000399025
-0.000318324
0.000425564
-0.000172167
0.000386746
2.17805e-05
0.000287211
0.000179869
0.000171486
0.000228428
7.93456e-05
0.00019541
2.24754e-05
0.000142879
-9.44122e-06
0.000101766
-2.73217e-05
6.901e-05
-3.56184e-05
3.9439e-05
-3.704e-05
1.29776e-05
-3.33247e-05
-1.02752e-05
-2.56424e-05
-3.02764e-05
-1.54478e-05
-4.65076e-05
-3.00023e-06
-5.95335e-05
1.08578e-05
-6.92104e-05
2.55616e-05
-7.55878e-05
4.03668e-05
-7.84966e-05
5.48988e-05
-7.83354e-05
6.8778e-05
-7.53495e-05
8.14321e-05
-6.93705e-05
9.2488e-05
-6.09743e-05
0.000101765
-5.02893e-05
0.000108861
-3.77233e-05
0.000113561
-2.37479e-05
0.000115698
-8.59028e-06
0.000114968
7.31594e-06
0.0001114
2.34492e-05
0.00010502
3.92199e-05
9.58718e-05
5.40243e-05
8.42831e-05
6.71961e-05
7.08386e-05
7.81643e-05
5.645e-05
8.648e-05
4.13163e-05
9.2098e-05
2.62097e-05
9.50626e-05
1.17626e-05
9.59725e-05
-2.19254e-06
9.60637e-05
-1.62361e-05
9.62353e-05
-3.09449e-05
9.64533e-05
-4.61401e-05
9.55606e-05
-6.12228e-05
9.26655e-05
-7.63366e-05
8.75213e-05
-8.98342e-05
7.9022e-05
-0.000101529
6.84205e-05
-0.000110876
5.55849e-05
-0.00011791
4.12675e-05
-0.000122108
2.57079e-05
-0.000123587
9.77047e-06
-0.000122157
-6.67992e-06
-0.000118218
-2.2375e-05
-0.00011162
-3.73866e-05
-0.000102711
-5.10716e-05
-9.15812e-05
-6.30992e-05
-7.87743e-05
-7.28328e-05
-6.45057e-05
-8.0342e-05
-4.91444e-05
-8.51755e-05
-3.31294e-05
-8.70243e-05
-1.69868e-05
-8.56074e-05
-1.31594e-06
-8.07834e-05
1.32461e-05
-7.23045e-05
2.61708e-05
-6.02576e-05
3.63205e-05
-4.40667e-05
4.27048e-05
-2.40229e-05
4.38632e-05
1.90319e-07
3.80104e-05
2.83583e-05
2.20896e-05
6.04844e-05
-9.43193e-06
9.71458e-05
-6.75839e-05
0.000143756
-0.000162362
0.000202504
-0.000280142
0.000238658
-0.000381478
0.000190774
-0.00042511
3.46944e-05
-0.000404534
-0.000160933
-0.000318454
-0.00031286
-0.0001777
-0.000339251
-3.67507e-05
-0.000180861
9.82354e-05
7.91173e-05
2.59758e-06
0.0002241
-0.00032725
0.000326745
-0.000439865
0.000376337
-0.000367916
0.00038291
-0.00017874
0.00034351
6.118e-05
0.000260195
0.000263185
0.00015455
0.000334073
5.90972e-05
0.000290863
-4.99627e-06
0.000206972
-3.94884e-05
0.000136259
-5.58599e-05
8.53824e-05
-6.14253e-05
4.50054e-05
-5.96691e-05
1.12215e-05
-5.25368e-05
-1.74074e-05
-4.17813e-05
-4.10312e-05
-2.79407e-05
-6.03474e-05
-1.20143e-05
-7.54596e-05
5.43916e-06
-8.66641e-05
2.33876e-05
-9.35367e-05
4.15749e-05
-9.66846e-05
5.9218e-05
-9.5979e-05
7.58033e-05
-9.19351e-05
9.09719e-05
-8.45395e-05
0.000104294
-7.42963e-05
0.000115773
-6.17686e-05
0.000124603
-4.65536e-05
0.000130587
-2.97322e-05
0.000133596
-1.1599e-05
0.000133427
7.48636e-06
0.000129624
2.72528e-05
0.000122399
4.64462e-05
0.000111926
6.44977e-05
9.84003e-05
8.0722e-05
8.24007e-05
9.41642e-05
6.5018e-05
0.000103863
4.69281e-05
0.000110188
2.97172e-05
0.000112274
1.35176e-05
0.000112172
-1.65644e-06
0.000111238
-1.70448e-05
0.000111624
-3.35955e-05
0.000113004
-5.13219e-05
0.000113287
-6.95066e-05
0.00011085
-8.69594e-05
0.000104974
-0.000103133
9.51954e-05
-0.00011691
8.21973e-05
-0.000128053
6.67275e-05
-0.000135831
4.90458e-05
-0.000140413
3.02893e-05
-0.000141586
1.09431e-05
-0.000139776
-8.48991e-06
-0.00013473
-2.74212e-05
-0.000126642
-4.54743e-05
-0.000115854
-6.18596e-05
-0.000102709
-7.62438e-05
-8.73652e-05
-8.81763e-05
-7.02341e-05
-9.74729e-05
-5.17494e-05
-0.00010366
-3.25259e-05
-0.000106248
-1.27821e-05
-0.000105352
6.63134e-06
-0.000100197
2.5118e-05
-9.07915e-05
4.17034e-05
-7.68434e-05
5.60719e-05
-5.84354e-05
6.64511e-05
-3.44017e-05
7.1618e-05
-4.9757e-06
6.931e-05
3.06677e-05
5.57996e-05
7.39962e-05
2.32462e-05
0.0001297
-3.97737e-05
0.000206777
-0.000133925
0.000296656
-0.000237588
0.000342322
-0.00032065
0.000273836
-0.000365111
7.91535e-05
-0.000367102
-0.000158941
-0.000327592
-0.000352368
-0.000229134
-0.000437708
-8.17502e-05
-0.000328244
1.64879e-05
9.06403e-05
-8.80426e-05
0.000176762
-0.000413371
0.000203009
-0.000466113
0.000198521
-0.000363428
0.000181227
-0.000161446
0.000149021
9.33857e-05
0.000102488
0.000309717
4.14083e-05
0.000395152
-1.99533e-05
0.000352225
-6.3833e-05
0.000250851
-8.75605e-05
0.000159986
-9.61966e-05
9.40165e-05
-9.53839e-05
4.41914e-05
-8.81583e-05
3.9947e-06
-7.63068e-05
-2.92599e-05
-6.09509e-05
-5.63879e-05
-4.28228e-05
-7.8476e-05
-2.25052e-05
-9.57776e-05
-1.00684e-06
-0.000108162
2.12054e-05
-0.000115748
4.31866e-05
-0.000118665
6.45133e-05
-0.000117305
8.45915e-05
-0.000112013
0.000102848
-0.000102795
0.000119007
-9.04549e-05
0.000132455
-7.52163e-05
0.000143504
-5.76015e-05
0.000151292
-3.75208e-05
0.000155527
-1.58338e-05
0.000155556
7.45607e-06
0.000152095
3.07131e-05
0.000144128
5.44132e-05
0.000132153
7.6473e-05
0.000116088
9.6787e-05
9.70032e-05
0.000113249
7.60185e-05
0.000124848
5.51767e-05
0.00013103
3.50777e-05
0.000132373
1.66293e-05
0.00013062
-1.1366e-06
0.000129003
-1.91623e-05
0.000129649
-3.82853e-05
0.000132127
-5.88312e-05
0.000133833
-8.01856e-05
0.000132204
-0.000101047
0.000125835
-0.000120256
0.000114403
-0.000136716
9.86579e-05
-0.000149408
7.94186e-05
-0.00015827
5.79077e-05
-0.000162987
3.5007e-05
-0.000163959
1.19147e-05
-0.000161128
-1.13203e-05
-0.000154735
-3.38138e-05
-0.00014505
-5.51602e-05
-0.000132144
-7.47651e-05
-0.000116143
-9.22457e-05
-9.78033e-05
-0.000106517
-7.73822e-05
-0.000117895
-5.54433e-05
-0.0001256
-3.2191e-05
-0.000129501
-8.36865e-06
-0.000129175
1.56105e-05
-0.000124177
3.88673e-05
-0.000114049
6.06215e-05
-9.85982e-05
7.98276e-05
-7.7642e-05
9.61007e-05
-5.06751e-05
0.000107802
-1.66766e-05
0.000112994
2.54757e-05
0.000108566
7.84239e-05
8.89073e-05
0.000149359
4.87839e-05
0.000246901
-8.2006e-06
0.000353642
-6.58876e-05
0.000400011
-0.000109981
0.000317931
-0.00014372
0.000112894
-0.000169032
-0.000133627
-0.000186991
-0.000334408
-0.000172243
-0.000452458
-9.13948e-05
-0.000409093
-7.49097e-05
4.90153e-05
-0.000137058
4.79675e-05
-0.000412324
9.5188e-07
-0.000419098
-5.34837e-05
-0.000308993
-9.20809e-05
-0.000122849
-0.000113215
0.000114518
-0.000122218
0.00031872
-0.000132081
0.000405015
-0.000141735
0.000361877
-0.000150099
0.000259213
-0.000152196
0.000162081
-0.000147191
8.90112e-05
-0.000136557
3.35579e-05
-0.000121544
-1.10187e-05
-0.00010345
-4.7354e-05
-8.24966e-05
-7.73403e-05
-5.87911e-05
-0.00010218
-3.34767e-05
-0.000121091
-6.77417e-06
-0.000134864
2.04877e-05
-0.00014301
4.72211e-05
-0.000145399
7.2744e-05
-0.000142828
9.65199e-05
-0.000135789
0.000118323
-0.000124598
0.000137828
-0.000109961
0.000154538
-9.19265e-05
0.000167877
-7.09418e-05
0.000177605
-4.725e-05
0.00018313
-2.13597e-05
0.000184867
5.71936e-06
0.000181398
3.41816e-05
0.000172962
6.28495e-05
0.00015904
9.03947e-05
0.000140767
0.00011506
0.000118659
0.000135357
9.44454e-05
0.000149061
6.9433e-05
0.000156042
4.48857e-05
0.000156919
2.13113e-05
0.000154194
-1.35451e-06
0.000151668
-2.41326e-05
0.000152426
-4.80276e-05
0.000156021
-7.2913e-05
0.000158718
-9.792e-05
0.000157211
-0.000122106
0.000150022
-0.000144429
0.000136727
-0.000163167
0.000117396
-0.000177392
9.36445e-05
-0.0001872
6.77172e-05
-0.000192153
3.99608e-05
-0.000192602
1.23641e-05
-0.000189045
-1.48766e-05
-0.000181067
-4.17917e-05
-0.000169146
-6.70821e-05
-0.000153382
-9.05298e-05
-0.000134498
-0.000111131
-0.000112663
-0.000128352
-8.83295e-05
-0.000142229
-6.20642e-05
-0.000151866
-3.42539e-05
-0.000157312
-5.26446e-06
-0.000158165
2.41602e-05
-0.000153602
5.32541e-05
-0.000143144
8.11139e-05
-0.000126459
0.000107101
-0.00010363
0.000130623
-7.41982e-05
0.000151134
-3.71876e-05
0.000167512
9.09701e-06
0.000178259
6.76773e-05
0.000182268
0.000145348
0.000180153
0.000249016
0.00017626
0.000357535
0.000171824
0.000404445
0.000164727
0.000325026
0.000142787
0.000134836
9.67892e-05
-8.76315e-05
3.271e-05
-0.00027033
-2.92313e-05
-0.000390516
-4.36904e-05
-0.000394631
-0.0001186
-1.80507e-05
-0.000119007
-9.32595e-05
-0.000337115
-0.000187895
-0.000324464
-0.000278223
-0.000218666
-0.000344458
-5.66157e-05
-0.00036766
0.00013772
-0.00035045
0.000301508
-0.000312133
0.000366698
-0.00027478
0.000324524
-0.000246458
0.000230891
-0.000224549
0.000140174
-0.000203215
6.76775e-05
-0.000180389
1.07325e-05
-0.000155542
-3.58659e-05
-0.000129662
-7.32333e-05
-0.000101895
-0.000105107
-7.23092e-05
-0.000131766
-4.05662e-05
-0.000152834
-7.50091e-06
-0.000167929
2.56709e-05
-0.000176181
5.78776e-05
-0.000177605
8.83653e-05
-0.000173316
0.000116537
-0.000163961
0.000142191
-0.000150253
0.00016528
-0.000133051
0.000185425
-0.000112071
0.000202019
-8.75345e-05
0.000214395
-5.9626e-05
0.000222273
-2.92378e-05
0.000224809
3.18333e-06
0.000221775
3.72155e-05
0.00021286
7.17639e-05
0.000197685
0.00010557
0.000177228
0.000135517
0.000152013
0.000160572
0.000123273
0.0001778
9.2492e-05
0.000186822
6.06704e-05
0.00018874
2.89476e-05
0.000185917
-2.05386e-06
0.00018267
-3.28782e-05
0.000183251
-6.42704e-05
0.000187414
-9.55613e-05
0.000190009
-0.000126354
0.000188004
-0.000154566
0.000178234
-0.000179682
0.000161844
-0.000201033
0.000138749
-0.000216811
0.000109424
-0.000227358
7.82641e-05
-0.000232516
4.51202e-05
-0.000232485
1.23334e-05
-0.000227482
-1.98799e-05
-0.000218023
-5.12512e-05
-0.000203531
-8.15746e-05
-0.000184658
-0.000109403
-0.000161895
-0.000133895
-0.000136105
-0.000154142
-0.000107811
-0.000170523
-7.68743e-05
-0.000182803
-4.35706e-05
-0.000190616
-8.31793e-06
-0.000193418
2.77698e-05
-0.000189691
6.38096e-05
-0.000179184
9.89986e-05
-0.000161649
0.000133046
-0.000137678
0.000165735
-0.000106888
0.000196932
-6.83846e-05
0.000226772
-2.07442e-05
0.000255492
3.8956e-05
0.000284747
0.000116093
0.000320557
0.000213206
0.000364645
0.000313445
0.000406826
0.000362262
0.00042534
0.000306512
0.000402341
0.000157836
0.000332303
-1.75938e-05
0.000234438
-0.000172467
0.000125195
-0.000281271
3.19843e-05
-0.000301423
-8.66147e-05
-8.12999e-05
-3.77077e-05
-0.000204122
-0.000214295
-0.000328156
-0.000200431
-0.000439411
-0.000107412
-0.000520575
2.45477e-05
-0.000544627
0.000161772
-0.000513526
0.000270407
-0.000451199
0.000304373
-0.000386381
0.000259705
-0.000334518
0.000179029
-0.000292549
9.82041e-05
-0.000255132
3.02603e-05
-0.000219247
-2.51526e-05
-0.000184853
-7.02602e-05
-0.000150346
-0.000107742
-0.000115246
-0.000140207
-7.85287e-05
-0.000168483
-3.97946e-05
-0.000191568
1.60686e-07
-0.000207884
3.97292e-05
-0.000215749
7.75903e-05
-0.000215466
0.000112673
-0.000208398
0.000144875
-0.000196163
0.000174533
-0.00017991
0.000201694
-0.00016021
0.000225922
-0.000136299
0.000246502
-0.000108115
0.000262281
-7.54049e-05
0.00027279
-3.97475e-05
0.000277519
-1.54614e-06
0.000275705
3.90299e-05
0.000266724
8.07434e-05
0.000250984
0.000121309
0.000227786
0.000158715
0.000198256
0.000190101
0.000162924
0.000213132
0.000122758
0.000226988
8.06329e-05
0.000230865
3.87255e-05
0.000227824
-1.69278e-06
0.000223088
-4.14536e-05
0.000223012
-8.28283e-05
0.000228788
-0.000124633
0.000231815
-0.000163823
0.000227194
-0.000199264
0.000213676
-0.000229065
0.000191645
-0.000252813
0.000162497
-0.00027039
0.000127001
-0.000280978
8.88522e-05
-0.000285339
4.94806e-05
-0.000284119
1.1114e-05
-0.00027755
-2.64489e-05
-0.00026521
-6.35917e-05
-0.000247275
-9.951e-05
-0.000224167
-0.000132512
-0.00019739
-0.000160673
-0.000167667
-0.000183866
-0.000135355
-0.000202836
-0.000100138
-0.00021802
-6.17689e-05