/*--------------------------------*- C++ -*----------------------------------*\
| =========                 |                                                 |
| \\      /  F ield         | OpenFOAM: The Open Source CFD Toolbox           |
|  \\    /   O peration     | Version:  2412                                  |
|   \\  /    A nd           | Website:  www.openfoam.com                      |
|    \\/     M anipulation  |                                                 |
\*---------------------------------------------------------------------------*/
FoamFile
{
    version     2.0;
    format      ascii;
    arch        "LSB;label=32;scalar=64";
    class       volScalarField;
    location    "2";
    object      alpha.gasoline;
}
// * * * * * * * * * * * * * * * * * * * * * * * * * * * * * * * * * * * * * //

dimensions      [0 0 0 0 0 0 0];

internalField   nonuniform List<scalar> 
6400
(
1
1.00001
1
0.999999
0.999999
0.999999
1
1
1
1
1
1
1
1
1
1
1
1
1
1
1
1
1
1
1
1
1
1
1
1
1
1
1
1
1
1
1
1
1
1
1
1
1
1
1
1
1
1
1
1
1
1
1
1
1
1
1
1
1
1
1
1
1
1
1
1
1
1
1
0.999999
0.999999
1
1
1
1
1
1
0.999999
0.999999
0.999999
0.999994
0.999999
1
1
0.999999
0.999999
0.999999
1
1
1
1
1
1
1
1
1
1
1
1
1
1
1
1
1
1
1
1
1
1
1
1
1
1
1
1
1
1
1
1
1
1
1
1
1
1
1
1
1
1
1
1
1
1
1
1
1
1
1
1
1
1
1
1
1
1
1
1
0.999999
0.999999
0.999999
1
1
1
0.999999
1
1
0.999999
1
1
0.999999
1
0.999999
0.999999
1
1
1
1
1
1
1
1
1
1
1
1
0.999999
1
1
1
1
1
1
1
1
1
1
1
1
1
1
1
1
1
1
1
1
1
1
1
1
1
1
1
1
1
1
1
1
1
1
1
1
1
1
1
1
1
1
1
1
1
1
1
1
1
0.999999
0.999999
0.999999
0.999999
1
1
1
0.999999
1
1
0.999998
0.999998
1
0.999999
1
1
0.999999
0.999999
0.999999
1
1
1
1
1
1
1
1
1
1
1
0.999999
0.999999
1
1
1
1
1
1
1
1
1
1
1
1
1
1
1
1
1
1
1
1
1
1
1
1
1
1
1
1
1
1
1
1
1
1
1
1
1
1
1
1
1
1
1
1
1
1
0.999999
0.999999
0.999999
0.999999
0.999999
1
1
1
1
0.999999
0.999999
0.999999
0.999999
1
1
1
1
1
1
1
1
1
1
1
1
1
1
1
1
0.999999
0.999999
0.999999
0.999999
1
1
1
1
1
1
1
1
1
1
1
1
1
1
1
1
1
1
1
1
1
1
1
1
1
1
1
1
1
1
1
1
1
1
1
1
1
1
1
1
1
1
1
1
1
1
1
1
0.999999
1
1
1
1
1
1
0.999999
1
1
0.999999
1
1
1
1
1
1
1
1
1
1
1
1
1
1
1
1
0.999999
0.999999
0.999999
1
1
1
1
1
1
1
1
1
1
1
1
1
1
1
1
1
1
1
1
1
1
1
1
1
1
1
1
1
1
1
1
1
1
1
1
1
1
1
1
1
1
1
1
1
1
1
1
1
1
1
1
1
1
1
1
1
1
1
1
1
1
1
1
1
1
1
1
1
1
1
1
1
1
1
1
1
1
0.999999
0.999999
0.999999
1
1
1
1
1
1
1
1
1
1
1
1
1
1
1
1
1
1
1
1
1
1
1
1
1
1
1
1
1
1
1
1
1
1
1
1
1
1
1
1
1
1
1
1
1
1
1
1
1
1
1
1
1
1
0.999999
1
1
1
1
1
1
1
1
1
0.999999
1
1
1
1
1
1
1
1
1
1
1
0.999999
0.999999
0.999999
1
1
1
1
1
1
1
1
1
1
1
1
1
1
1
1
1
1
1
1
1
1
1
1
1
1
1
1
1
1
1
1
1
1
1
1
1
1
1
1
1
1
1
1
1
1
1
1
1
1
1
1
1
1
1
1
1
1
1
1
1
1
1
1
1
1
1
1
1
1
1
1
1
1
1
1
1
0.999999
1
1
1
1
1
0.999999
1
1
1
1
1
1
1
1
1
1
1
1
1
1
1
1
1
1
1
1
1
1
1
1
1
1
1
1
1
1
1
1
1
1
1
1
1
1
1
1
1
1
1
1
1
1
1
1
1
1
1
1
1
1
1
1
1
1
1
1
1
1
1
1
1
1
1
1
1
1
1
1
1
1
1
1
0.999999
0.999999
0.999999
1
1
1
1
1
1
1
1
1
1
1
1
1
1
1
1
1
1
1
1
1
1
1
1
1
1
1
1
1
1
1
1
1
1
1
1
1
1
1
1
1
1
1
1
1
1
1
1
1
1
1
1
1
1
1
1
1
1
1
1
1
1
1
1
1
1
1
1
1
1
1
1
1
1
1
1
1
1
1
1
1
1
1
1
1
1
1
1
1
1
1
1
1
1
1
1
1
1
1
1
1
1
1
1
1
1
1
1
1
1
1
1
1
1
1
1
1
1
1
1
1
1
1
1
1
1
1
1
1
1
1
1
1
1
1
1
1
1
1
1
1
1
1
1
1
1
1
1
1
1
1
1
1
1
1
1
1
1
1
1
1
1
1
1
1
1
1
1
1
1
1
1
1
1
1
1
1
1
1
1
1
1
1
1
1
1
1
1
1
1
1
1
1
1
1
1
1
1
1
1
1
1
1
1
1
1
1
1
1
1
1
1
1
1
1
1
1
1
0.999999
1
1
1
1
1
1
1
1
1
1
1
1
1
1
1
1
1
1
1
1
1
1
1
1
1
1
1
1
1
1
1
1
1
1
1
1
1
1
1
1
1
1
1
1
1
1
1
1
1
1
1
1
1
1
1
1
1
1
1
1
1
1
1
1
1
1
1
1
1
1
1
1
1
1
1
0.999999
1
1
1
0.999999
1
1
0.999999
1
1
1
1
1
1
1
1
1
1
1
1
1
1
1
1
1
1
1
1
1
1
1
1
1
1
1
1
1
1
1
1
1
1
1
1
1
1
1
1
1
1
1
1
1
1
1
1
1
1
1
1
1
1
1
1
1
1
1
1
1
1
1
1
1
1
1
1
1
1
1
1
1
1
1
1
0.999999
1
1
1
1
1
1
1
1
1
1
1
1
1
1
1
1
1
1
1
1
1
1
1
1
1
1
1
1
1
1
1
1
1
1
1
1
1
1
1
1
1
1
1
1
1
1
1
1
1
0.999999
0.999999
1
1
1
1
1
1
1
1
1
1
1
1
1
1
1
1
1
1
1
1
1
1
1
1
1
1
1
1
1
1
1
1
1
0.999999
0.999999
0.999999
1
1
1
1
1
1
1
1
1
1
1
1
1
1
1
1
1
0.999999
1
0.999999
1
1
1
1
1
1
1
1
1
1
1
1
1
1
1
1
1
1
1
1
1
1
1
1
1
1
1
1
1
1
1
1
1
1
1
1
1
1
1
1
1
1
1
1
1
1
1
1
1
1
1
1
1
1
0.999999
0.999999
0.999999
0.999976
0.999962
0.999982
0.999993
0.999997
0.999999
1
1
1
1
1
1
1
1
1
1
1
1
1
1
1
1
1
1
1
1
1
1
1
1
1
1
1
1
1
1
1
1
1
1
1
1
1
1
1
1
1
1
1
1
1
1
1
1
1
1
1
1
1
1
1
1
1
1
1
1
1
1
1
1
1
1
1
1
0.999999
0.999998
0.999994
0.999985
0.999969
0.999979
0.989985
0.991006
0.999555
0.999767
0.99988
0.999945
0.999979
0.999995
1
1
1
1
1
1
1
1
1
1
1
1
1
1
1
1
0.999829
0.999624
0.999581
0.99992
1
1
0.999999
0.999994
1
1
1
1
1
1
1
1
1
1
1
1
1
1
1
1
1
1
1
1
0.999986
0.999563
0.999231
0.999434
0.99996
1
1
1
1
1
1
1
1
1
1
1
1
1
1
1
0.999996
0.999982
0.999953
0.999898
0.999799
0.999609
0.993526
0.991665
0.470432
0.462884
0.651951
0.749585
0.772387
0.800235
0.834874
0.867312
0.894437
0.921445
0.955839
0.992425
1
1
1
1
1
1
1
1
0.999992
0.999445
0.99848
0.999999
0.996193
0.984054
0.98404
0.998481
0.999999
1
0.99981
0.998891
0.999725
1
1
1
1
0.980057
0.948487
0.927877
0.927346
0.945213
0.975833
1
1
1
1
1
0.999983
1
1
1
0.999991
0.986579
0.973579
0.975392
0.998632
0.999271
0.998684
0.999978
1
1
1
1
1
1
1
1
0.996079
0.963644
0.932268
0.907368
0.88295
0.853252
0.819681
0.789546
0.763568
0.67564
0.48439
0.474425
0.00312378
0.000143241
0.0209148
0.0793963
0.0987559
0.1178
0.155136
0.190914
0.218063
0.246021
0.311205
0.435802
0.613215
0.727981
0.795438
0.866773
0.932589
0.971078
0.969587
0.888959
0.872267
0.872039
0.939979
0.99993
0.997654
0.996341
0.997968
0.999196
0.999974
0.999989
0.99993
0.999882
0.999883
0.94474
0.719463
0.526968
0.365807
0.257737
0.200022
0.171472
0.169159
0.193234
0.245213
0.342166
0.498726
0.67829
0.87656
1
0.999999
1
0.999999
0.999992
0.999909
0.999295
0.992859
0.995623
0.998484
0.983478
0.868126
0.857461
0.859052
0.942319
0.978289
0.950828
0.880901
0.791595
0.713534
0.620445
0.461338
0.337625
0.267845
0.238237
0.211844
0.17675
0.135806
0.107994
0.0874472
0.0295709
5.41905e-05
1.52075e-05
5.54496e-05
0.000126867
0.000125181
0.00040973
0.00498611
0.0116576
0.0119547
0.0109131
0.0174445
0.028486
0.0347721
0.0542649
0.265023
0.753231
0.922983
0.931594
0.934713
0.938872
0.920736
0.895912
0.888547
0.891224
0.898856
0.917191
0.933531
0.946855
0.955336
0.959449
0.949472
0.927014
0.815412
0.58816
0.371867
0.151091
0.0584698
0.0131078
0.000313661
8.91428e-05
3.06618e-05
6.93698e-06
-9.40865e-09
5.22103e-06
5.63637e-05
0.000294653
0.00943354
0.0562031
0.144901
0.319944
0.546699
0.798378
0.94974
0.968014
0.973169
0.970576
0.957689
0.939713
0.912694
0.872096
0.860938
0.860593
0.867829
0.892175
0.925479
0.926012
0.922503
0.91982
0.815538
0.367963
0.0672526
0.0378089
0.0334967
0.0222611
0.0137434
0.0129946
0.01308
0.00724366
0.000543309
8.63112e-05
7.94126e-05
1.52075e-05
5.55776e-05
0.000815737
0.000816074
6.52137e-05
0.000172172
0.00018806
0.00119954
0.00176563
0.000762792
0.000607801
0.00426769
0.140722
0.27346
0.275043
0.268794
0.303745
0.314741
0.284339
0.239135
0.199071
0.165908
0.151683
0.154779
0.187021
0.224629
0.253962
0.26826
0.254669
0.183086
0.0994888
0.0369931
0.0336696
0.00942778
8.67155e-06
0.000163825
5.37496e-05
1.38415e-05
2.25001e-06
2.15126e-07
1.97939e-09
3.07178e-09
2.94614e-09
8.30956e-07
1.22416e-05
7.70921e-05
4.34946e-05
6.03791e-05
0.0148442
0.0429073
0.0575925
0.129801
0.221515
0.3006
0.309592
0.288512
0.244667
0.184717
0.129666
0.0965729
0.107145
0.136302
0.172956
0.212918
0.2591
0.267972
0.24723
0.235228
0.251121
0.168746
0.0221894
4.78702e-06
5.85842e-05
0.00164049
0.00214744
0.000436541
0.000187148
8.67579e-05
0.000901901
0.000905008
1.51554e-05
5.59218e-05
0.000125965
0.000110914
1.8179e-05
4.46648e-05
4.90342e-05
5.91256e-05
0.000314211
0.000783277
0.000519895
6.12236e-05
2.59054e-05
2.60321e-05
2.75623e-05
3.16722e-05
3.74688e-05
0.000135897
1.53363e-05
5.93013e-06
6.42878e-06
6.41689e-06
7.46452e-06
9.11625e-06
1.07168e-05
1.26555e-05
1.45301e-05
1.51962e-05
1.44365e-05
1.34035e-05
1.22834e-05
1.00471e-05
1.41659e-05
8.473e-06
1.44883e-06
4.64303e-06
4.40201e-06
2.80947e-06
1.97791e-06
2.02761e-07
2.71152e-09
2.96033e-09
2.98084e-09
1.29779e-06
1.3288e-06
4.90863e-06
3.43902e-06
4.00911e-06
2.27819e-05
7.26072e-06
3.17663e-06
1.38829e-06
3.92488e-06
7.92159e-06
1.29316e-05
1.65179e-05
1.37603e-05
1.16994e-05
1.03409e-05
9.88094e-06
9.98547e-06
4.72721e-06
1.27089e-05
1.64214e-05
0.000201695
9.76484e-05
4.03518e-06
2.96574e-06
2.48613e-06
2.3454e-06
2.419e-06
3.1103e-06
5.21436e-06
2.77539e-05
4.40398e-05
6.61702e-05
5.11151e-05
2.57424e-05
0.000221343
0.000208809
3.11034e-05
8.01837e-05
3.48789e-06
1.53937e-06
3.71546e-06
1.11212e-05
1.40456e-05
2.02282e-05
7.75745e-05
0.000583063
0.000755235
0.000294628
2.59054e-05
2.57771e-05
2.60321e-05
3.21785e-05
4.13019e-05
1.90519e-05
1.42752e-05
7.64151e-06
6.41674e-06
6.42195e-06
2.01223e-05
3.40024e-05
3.40952e-05
3.4001e-05
3.35703e-05
1.71388e-05
1.95493e-05
1.65471e-05
1.04742e-05
9.68614e-06
1.38103e-05
1.25028e-06
1.07844e-06
1.55928e-06
3.48628e-06
4.5195e-06
4.53115e-06
1.74364e-06
2.17858e-09
2.22559e-09
2.61061e-09
3.16143e-06
4.00748e-06
1.17283e-06
1.47446e-07
2.07049e-07
9.92655e-07
1.95361e-05
1.76194e-06
9.45809e-08
3.89962e-05
6.45908e-05
6.40462e-05
6.44502e-05
4.06327e-05
2.14196e-05
1.69035e-05
1.03409e-05
9.88091e-06
1.09121e-05
1.33056e-05
9.87406e-06
7.59028e-06
4.18153e-06
2.96574e-06
2.48613e-06
1.98826e-06
2.26894e-06
2.3454e-06
2.27489e-05
8.53875e-05
2.59387e-05
1.48175e-05
2.00684e-05
1.36906e-05
4.63487e-06
2.48507e-06
1.57251e-06
1.03616e-06
0.000150077
5.04148e-05
2.44613e-07
7.60622e-07
2.56606e-06
3.92603e-06
7.10376e-06
2.91597e-05
0.000438314
0.000755235
0.000503724
2.59054e-05
2.23219e-05
4.0965e-05
6.02669e-05
6.04473e-05
4.46103e-05
8.79133e-06
8.21537e-06
6.42195e-06
4.47234e-06
2.57507e-06
1.1253e-06
1.19982e-05
1.82787e-05
2.66887e-05
4.21922e-05
4.21922e-05
4.21922e-05
3.06394e-05
5.96101e-06
1.26505e-06
1.07844e-06
1.07325e-06
2.45137e-07
7.37378e-10
4.90154e-07
1.33841e-06
4.82512e-07
1.42881e-09
1.83258e-09
2.54154e-07
6.73439e-07
1.4864e-06
1.01723e-06
6.9434e-09
7.80773e-09
1.18115e-07
2.16792e-06
1.11549e-06
1.71217e-08
8.18614e-07
2.37141e-05
2.96392e-05
4.67504e-06
4.13915e-05
0.000155579
0.000167605
7.75475e-05
1.20107e-05
1.18269e-05
1.46157e-05
1.7054e-05
1.58535e-05
2.26646e-05
1.43467e-05
2.17298e-06
1.29667e-06
1.92499e-06
2.28213e-06
3.67249e-05
3.96007e-05
8.64021e-06
4.85914e-06
5.16435e-06
3.24981e-06
9.25492e-07
3.92781e-07
1.09432e-07
9.7407e-07
9.81853e-05
6.606e-05
4.17831e-08
1.48396e-07
5.59376e-07
1.02916e-06
2.37896e-06
7.14252e-06
0.000199032
0.000755235
0.000736612
0.000528463
1.81077e-05
1.74479e-05
1.6895e-05
1.65284e-05
1.50227e-05
1.02708e-05
8.78458e-06
8.20415e-06
6.38608e-06
7.136e-06
5.61405e-09
1.97419e-09
1.0604e-09
8.03167e-10
1.89823e-06
2.47012e-05
3.42925e-05
3.37754e-05
3.28545e-05
8.00718e-06
2.11957e-06
2.64424e-06
4.486e-07
6.0661e-11
1.37071e-10
1.80709e-10
2.08726e-10
1.41918e-09
3.05301e-09
5.82943e-11
3.50487e-11
2.23669e-11
6.63842e-08
5.24893e-09
4.69837e-09
1.06228e-08
1.2806e-08
4.88112e-08
2.45695e-08
2.71784e-09
3.24049e-09
3.5175e-09
6.63697e-08
8.74616e-05
0.000167605
0.000174327
0.000177835
0.000107517
4.59977e-05
6.16747e-05
8.02383e-05
7.47874e-05
2.13342e-05
1.74159e-06
1.24547e-06
9.23967e-07
1.81255e-06
5.32771e-06
5.47974e-06
1.47095e-06
1.59822e-06
1.44554e-06
1.23959e-06
6.57113e-07
1.87879e-07
7.6946e-08
3.44533e-08
1.71943e-06
2.1853e-05
2.64634e-05
9.61563e-09
3.06532e-08
1.19653e-07
2.53789e-07
6.37657e-07
4.05263e-06
3.59569e-05
0.000400849
0.000714732
0.00071799
0.00064197
8.018e-05
1.71767e-05
1.64022e-05
3.19934e-05
0.000177139
0.000268232
0.000268366
0.000216765
0.000102262
1.97421e-09
1.0604e-09
8.21224e-10
4.1175e-10
8.03168e-10
4.18515e-09
3.50737e-08
4.40463e-06
2.41609e-09
6.29838e-06
6.90604e-06
2.12835e-06
4.64657e-08
5.21558e-12
1.4777e-10
4.56532e-10
3.40941e-10
1.26618e-09
2.86484e-09
3.50487e-11
2.26768e-11
2.12186e-11
2.0658e-11
2.11056e-11
3.05323e-09
8.41209e-08
1.66324e-07
1.67814e-07
9.03342e-08
4.10693e-10
1.97918e-09
3.24049e-09
2.09345e-05
7.16649e-05
0.000143997
0.000183655
0.000210468
0.000217986
0.000219232
0.0002041
6.87628e-05
3.07144e-06
1.84902e-06
1.68575e-06
1.25881e-06
8.00457e-07
9.19263e-07
1.11708e-06
3.01918e-07
4.03464e-07
4.09772e-07
4.01542e-07
2.98666e-07
1.49037e-07
5.17155e-08
2.88282e-08
2.25079e-08
1.99977e-06
1.1869e-05
9.63227e-09
4.60696e-09
8.60715e-09
2.74151e-08
6.07064e-08
1.79797e-07
1.53017e-06
8.13436e-06
1.8466e-05
0.000210906
0.000492416
0.000635605
0.000610773
0.000533251
0.000548422
0.000713357
0.000744522
0.000745088
0.000744522
0.00063231
0.000110383
6.46921e-06
1.1237e-09
1.28358e-09
1.53161e-10
9.8566e-09
2.85128e-07
6.08689e-07
2.48058e-09
4.96804e-12
4.90695e-12
2.99453e-06
4.91717e-12
4.92926e-12
4.93665e-12
1.7894e-10
1.05252e-09
4.26372e-10
2.56818e-09
7.65668e-09
5.09268e-08
3.25835e-11
2.0658e-11
2.05037e-11
6.43912e-10
6.3301e-09
1.18783e-07
1.67448e-07
5.9911e-08
8.35893e-12
8.35631e-12
8.33208e-11
5.56437e-06
9.42098e-06
1.26678e-10
8.50373e-06
4.28354e-05
7.0461e-05
0.000195191
0.000356192
0.000209785
5.13878e-05
7.08597e-06
2.07113e-06
6.14615e-07
4.90742e-07
4.08435e-07
3.18174e-07
2.44694e-07
2.27382e-07
2.04941e-07
1.57377e-07
1.19593e-07
8.9336e-08
4.86551e-08
2.63652e-08
2.14098e-08
2.10288e-08
2.00672e-06
4.52201e-06
4.60695e-09
4.01504e-09
4.60696e-09
8.61172e-09
1.48207e-08
4.88247e-08
2.11134e-07
6.93497e-07
1.77161e-06
3.10185e-06
1.97213e-05
0.000103666
0.00025837
0.000582745
0.000735545
0.000741348
0.000745517
0.000744522
0.000735589
0.000291099
2.04208e-05
1.99316e-08
3.8263e-10
9.92816e-11
1.50315e-10
2.2108e-10
1.16061e-09
4.51838e-07
4.86605e-08
4.90695e-12
4.89994e-12
4.88654e-12
4.89994e-12
4.91717e-12
5.61972e-12
1.1589e-10
1.09897e-09
2.30102e-09
2.49903e-09
1.73834e-08
6.02082e-07
1.03931e-07
2.05037e-11
2.05037e-11
1.68129e-09
5.47059e-09
4.83991e-12
5.49108e-10
4.73872e-12
5.13091e-12
8.35889e-12
5.31868e-08
1.09801e-11
1.57076e-11
2.36031e-11
1.26678e-10
3.66651e-09
9.40332e-08
9.96559e-05
0.000387352
0.000388546
0.000365102
0.000250271
0.000185185
0.000204393
0.000310368
0.000254424
2.40257e-05
2.24912e-07
1.79948e-07
1.14847e-07
7.51498e-08
5.4493e-08
4.13032e-08
2.6364e-08
2.14098e-08
2.04964e-08
2.04964e-08
2.00455e-06
6.36858e-08
4.01504e-09
4.01504e-09
4.00455e-09
8.82464e-09
4.32231e-09
1.17815e-08
3.89854e-08
1.7148e-07
3.47588e-07
5.09923e-07
5.69495e-07
6.01448e-07
6.96843e-07
2.82336e-05
1.08896e-05
0.000268298
0.0006735
0.000632018
0.000243389
4.94666e-09
4.66656e-10
1.82031e-12
7.36032e-13
2.07849e-11
1.25068e-10
7.37765e-10
1.4667e-10
6.63796e-12
6.01689e-12
5.95795e-12
4.89969e-12
4.87649e-12
5.17865e-12
6.07813e-12
5.8388e-12
2.53011e-11
7.00918e-10
2.60404e-08
6.94679e-08
2.12679e-08
6.38111e-07
5.44395e-07
3.64624e-08
2.05037e-11
6.28466e-10
4.83991e-12
4.61755e-12
4.57155e-12
4.61755e-12
5.33195e-12
8.56839e-12
1.22572e-11
1.09704e-11
1.09704e-11
1.22851e-11
2.32801e-10
6.01112e-09
8.92333e-08
3.88957e-05
0.000359125
0.000395228
0.000398488
0.000399314
0.000399314
0.0003996
0.000399885
0.000399652
0.000367925
0.000107197
8.20544e-07
7.37893e-08
5.45291e-08
3.91244e-08
3.41521e-08
3.14532e-08
8.25024e-08
1.55675e-07
2.04655e-08
1.81164e-06
1.00203e-07
7.76505e-08
3.13877e-07
3.76597e-07
4.32239e-09
1.95836e-09
3.57037e-09
1.24188e-08
3.45359e-08
6.0914e-08
7.73101e-08
6.89094e-08
5.36429e-08
3.29497e-08
1.62556e-07
1.87307e-07
3.16052e-08
4.78141e-09
6.72552e-10
5.75947e-11
9.51893e-12
-1.39023e-12
9.73144e-13
1.07181e-12
3.32031e-12
6.55942e-11
7.96643e-10
8.10687e-10
1.91254e-10
1.89117e-11
9.73965e-12
5.01786e-12
4.91819e-12
5.84001e-12
6.89233e-12
5.97458e-12
8.41973e-12
5.1089e-09
4.84806e-08
2.36104e-07
3.74116e-06
4.43697e-07
5.37833e-07
2.37668e-07
1.16284e-10
3.24692e-11
6.09371e-12
5.88989e-12
4.55765e-12
6.16237e-12
7.477e-12
1.0807e-11
1.37019e-11
1.69101e-11
1.59231e-11
2.32357e-12
5.00697e-13
-7.50496e-12
1.06138e-11
-9.869e-11
-1.45858e-09
0.000210637
0.000324951
0.000369522
0.000398316
0.000399853
0.000399652
0.000399792
0.000399652
0.000397098
0.000128957
6.87723e-08
3.91319e-08
3.41444e-08
3.20649e-08
3.16533e-08
2.35373e-07
2.45418e-07
1.64002e-07
3.40774e-07
9.43767e-08
2.85095e-07
5.03235e-07
4.95266e-07
2.30524e-07
1.42497e-09
1.7899e-09
3.67418e-09
7.24681e-09
1.09327e-08
1.16796e-08
8.68654e-09
5.72432e-09
3.6455e-09
2.4576e-07
3.18656e-07
2.70409e-08
5.93501e-10
7.62839e-11
9.32382e-12
1.55415e-12
9.41604e-13
9.23353e-13
1.15156e-12
3.6971e-12
1.61838e-11
8.00549e-11
2.87415e-10
7.7799e-11
2.45743e-11
1.11461e-11
4.3075e-12
4.07238e-12
5.75263e-12
6.75341e-12
5.27224e-12
1.49973e-10
3.35685e-08
5.53938e-08
2.91243e-07
9.30341e-06
2.75111e-10
1.58284e-07
2.36767e-07
1.89402e-09
3.49381e-10
1.32446e-11
5.51334e-12
4.14786e-12
4.17633e-12
6.08649e-12
1.02898e-11
2.15117e-11
2.38333e-11
2.01982e-11
4.03833e-12
4.58168e-13
4.36556e-13
3.26211e-13
-1.61485e-12
-1.78996e-11
-2.08321e-11
9.98086e-12
8.92785e-11
3.21993e-05
0.000114409
0.000177633
0.00020563
0.000223088
0.000223343
0.000157671
9.11185e-06
4.68828e-08
3.26047e-08
3.16316e-08
3.16552e-08
1.99191e-07
2.47276e-07
2.49133e-07
8.67864e-08
4.93221e-08
2.60576e-07
5.02281e-07
5.03197e-07
2.17862e-07
1.30546e-09
1.39532e-09
1.70875e-09
2.40394e-09
3.55982e-09
3.86222e-09
3.04656e-09
2.73129e-09
2.15651e-09
1.79871e-07
2.30694e-07
5.34634e-08
2.8154e-12
-1.11238e-13
1.33358e-12
1.05029e-12
8.46881e-13
9.18223e-13
2.11005e-12
4.74237e-12
4.53593e-12
2.48864e-12
2.55604e-12
6.04932e-12
7.90612e-12
5.92632e-12
1.75293e-12
1.75228e-12
3.0566e-12
5.16667e-12
4.08847e-12
3.06202e-10
5.48237e-08
5.82362e-08
1.05338e-07
9.33226e-06
2.7034e-10
2.70814e-10
5.86866e-08
7.4743e-10
7.22808e-10
2.35622e-11
2.68928e-12
1.10621e-12
1.42504e-12
2.65807e-12
4.72129e-12
1.17934e-11
1.95208e-11
1.43423e-11
4.46135e-12
4.7742e-13
4.3311e-13
4.33396e-13
4.59441e-13
5.61726e-13
8.31634e-13
1.86303e-12
8.96622e-12
2.6904e-11
1.2625e-10
2.43526e-08
1.13646e-07
8.81391e-07
2.2436e-06
2.65238e-05
1.57479e-05
1.6001e-06
3.6354e-08
3.16392e-08
3.15989e-08
4.44117e-08
2.49133e-07
2.49133e-07
7.28312e-08
3.64158e-08
7.28907e-08
2.91749e-07
3.58633e-07
2.27568e-08
1.28548e-09
1.30137e-09
1.37831e-09
1.59627e-09
2.42373e-09
3.04656e-09
2.73129e-09
2.61601e-09
1.58222e-09
5.14487e-11
9.46556e-12
2.93156e-12
2.02574e-12
1.54561e-12
1.2509e-12
1.04587e-12
8.26896e-13
8.14668e-13
1.13574e-12
2.6703e-12
2.22596e-12
2.26826e-12
3.2443e-12
2.63888e-12
1.86528e-12
8.73077e-13
4.22783e-13
6.4434e-13
1.71502e-12
3.61497e-12
3.62548e-12
1.71358e-10
2.97318e-08
2.11235e-08
7.73852e-10
9.3496e-06
2.70944e-10
2.7034e-10
2.70944e-10
9.00605e-10
8.69231e-10
1.79078e-11
8.22079e-13
3.55172e-13
3.22171e-13
5.89669e-13
8.88373e-13
2.19237e-12
4.38463e-12
2.81029e-12
1.56516e-12
4.90183e-13
4.25466e-13
7.89434e-13
1.55386e-12
2.79596e-12
4.08861e-12
5.48508e-12
8.08066e-12
1.25385e-11
2.68886e-11
1.26224e-10
1.20216e-09
4.98539e-08
1.76112e-07
4.51731e-07
2.8231e-06
1.3444e-06
3.9558e-08
3.20864e-08
3.16552e-08
3.20871e-08
9.94037e-08
2.1811e-07
6.46989e-08
3.59075e-08
3.64158e-08
2.63997e-08
1.55141e-08
1.28914e-09
1.28914e-09
1.28464e-09
1.30137e-09
1.37826e-09
1.59725e-09
2.39918e-09
3.04656e-09
2.73129e-09
1.70541e-09
3.02684e-10
5.14433e-11
9.4179e-12
2.93157e-12
7.7689e-12
7.08417e-12
3.35312e-12
9.62301e-13
3.80186e-13
2.1176e-13
1.67002e-13
1.5136e-13
1.16245e-13
1.77882e-13
1.31094e-13
1.18254e-13
8.12926e-14
1.22003e-13
3.73047e-13
1.39738e-12
3.30112e-12
4.43747e-12
5.26557e-11
2.28674e-09
2.37038e-09
7.73324e-10
9.3593e-06
1.01676e-08
2.86431e-10
2.99702e-10
1.01043e-09
7.73813e-10
7.64107e-12
4.552e-13
1.34953e-13
4.96965e-14
6.71305e-14
8.70309e-14
9.34753e-14
9.72634e-14
7.4088e-14
3.37408e-14
4.87428e-14
2.46758e-13
1.00159e-12
4.22724e-12
1.46921e-11
3.67726e-11
6.02211e-11
6.02239e-11
2.69117e-11
1.26216e-10
1.10402e-09
1.29645e-08
1.19842e-07
2.13141e-07
2.87559e-07
2.23144e-07
7.15519e-08
3.83359e-08
3.28953e-08
3.20871e-08
3.28954e-08
3.42227e-08
4.27381e-08
5.8566e-08
3.60301e-08
3.56849e-08
3.6645e-08
2.63997e-08
5.32491e-09
1.28914e-09
1.30105e-09
1.00113e-09
-1.62279e-09
7.57063e-05
8.3389e-05
7.21361e-08
1.12909e-07
2.76866e-08
3.47348e-09
6.05593e-10
5.94804e-11
1.01426e-11
3.05355e-11
2.19529e-11
7.11133e-12
1.27507e-12
1.86399e-13
3.53502e-14
1.8131e-14
1.47573e-14
1.22965e-14
1.29488e-14
1.39618e-14
1.43152e-14
1.94468e-14
6.63933e-14
3.33718e-13
1.36694e-12
3.25453e-12
8.6305e-12
9.6748e-11
3.13131e-11
3.13131e-11
3.21034e-09
9.36278e-06
1.02133e-07
2.98984e-10
5.37588e-10
7.89932e-10
3.14106e-10
1.12569e-12
2.74587e-13
7.03226e-14
1.19442e-14
4.95239e-15
7.61109e-15
9.17418e-15
8.12682e-15
4.46123e-15
3.26946e-15
1.28001e-14
1.25932e-13
1.00043e-12
6.367e-12
2.78853e-11
8.53135e-11
1.75127e-10
2.22974e-10
2.36165e-10
1.10382e-09
1.11838e-08
8.46757e-08
2.13141e-07
6.28336e-05
5.13136e-05
1.64416e-05
9.35527e-05
7.21265e-08
3.83513e-08
3.28953e-08
3.42227e-08
4.20206e-08
4.59119e-08
5.17379e-08
3.60301e-08
1.60383e-05
2.85755e-05
4.15827e-08
5.17525e-08
3.80695e-05
0.000428123
0.000572701
0.000520396
0.000543997
0.000543997
0.000223938
3.04586e-05
3.41685e-07
2.15493e-07
5.8856e-09
3.66428e-10
5.85126e-11
3.88822e-11
3.29148e-11
1.1294e-11
1.86741e-12
1.972e-13
1.75429e-14
1.75707e-15
7.02312e-16
7.83211e-16
1.13345e-15
1.39555e-15
1.94808e-15
8.57154e-15
5.88245e-14
3.44465e-13
1.50472e-12
3.29281e-12
1.25636e-11
1.02487e-10
3.13131e-11
3.76898e-11
9.3703e-08
9.36278e-06
1.51184e-07
4.37367e-10
5.60157e-10
1.84634e-10
6.42938e-11
4.04841e-13
1.7159e-13
4.77132e-14
7.08174e-15
1.07685e-15
4.27536e-16
4.66093e-16
4.42241e-16
3.60815e-16
7.94941e-16
1.01892e-14
1.25687e-13
1.24681e-12
8.76963e-12
4.03306e-11
1.17557e-10
2.20768e-10
3.69931e-10
2.35667e-09
7.41629e-08
1.09138e-07
5.23747e-06
0.000131909
0.000497526
0.00049772
0.000478089
0.000538267
0.000385804
1.44296e-05
2.35969e-07
4.14761e-06
4.71944e-08
4.97035e-08
5.55145e-08
1.0443e-07
0.000207451
0.000487009
0.000142117
0.000124729
0.000569098
0.000628693
0.000607531
0.000593624
0.000527419
0.000536363
0.000528781
0.000458154
6.00437e-05
8.58611e-07
1.88026e-08
1.84591e-09
2.03736e-10
4.98802e-11
3.46663e-11
1.42339e-11
2.37496e-12
2.2481e-13
1.6598e-14
1.04229e-15
7.15527e-17
4.54848e-17
6.00544e-17
1.16183e-16
7.93051e-16
7.76196e-15
6.08185e-14
3.95043e-13
1.60599e-12
3.35621e-12
1.41523e-11
8.00223e-11
3.76898e-11
1.23809e-10
4.43568e-07
9.36278e-06
7.08836e-08
6.03709e-10
5.9405e-10
4.8328e-11
1.21904e-11
5.28563e-13
1.33295e-13
3.80456e-14
5.90909e-15
7.01603e-16
7.28039e-17
1.91869e-17
1.6423e-17
3.96805e-17
5.55371e-16
9.23957e-15
1.29537e-13
1.46616e-12
1.13323e-11
5.1331e-11
1.2362e-10
2.10657e-10
9.64522e-10
5.94429e-09
6.53276e-07
1.27431e-05
0.000277911
0.000491719
0.00049772
0.00050336
0.000535909
0.000553611
0.000578064
0.000495711
0.000427108
0.000475199
0.000123089
5.83959e-08
5.87457e-08
4.15315e-08
0.000178953
0.000545309
0.000591047
0.000617705
0.00063283
0.000636523
0.00037225
9.17917e-05
5.12649e-05
0.000125863
0.000449449
0.000512035
0.000244613
2.77884e-06
7.91781e-08
7.61937e-09
7.24775e-10
8.4438e-11
2.65624e-11
1.42786e-11
2.70909e-12
2.32572e-13
1.5411e-14
8.92068e-16
3.61787e-17
6.64777e-18
6.71355e-18
5.6583e-17
7.4959e-16
8.25483e-15
6.6401e-14
4.1413e-13
1.62258e-12
3.3311e-12
1.42498e-11
6.57825e-11
6.39409e-11
1.04376e-07
1.38687e-06
9.3612e-06
1.89936e-11
1.24095e-09
6.53831e-10
3.6633e-11
6.79812e-12
5.49104e-13
1.24203e-13
3.43376e-14
5.53621e-15
6.57346e-16
5.60895e-17
4.98409e-18
3.46094e-18
1.9387e-17
4.5016e-16
8.09555e-15
1.28384e-13
1.65287e-12
1.37302e-11
5.18869e-11
9.3803e-11
4.85965e-10
3.12683e-09
2.70625e-08
8.69331e-07
0.000124943
0.000454668
0.000452793
0.000148407
4.08174e-05
6.50412e-05
0.000303398
0.00058974
0.000586267
0.000581153
0.000561382
0.000493338
6.53022e-08
6.15354e-08
2.87873e-08
5.75269e-06
0.000508059
0.000615998
0.00063283
0.000636523
0.000637016
0.000434509
5.12165e-05
5.05523e-05
5.06231e-05
5.06231e-05
0.00050782
0.00031507
7.56163e-06
2.14123e-07
2.14079e-08
2.00697e-09
1.84184e-10
2.64356e-11
1.385e-11
2.85794e-12
2.29011e-13
1.29358e-14
6.65915e-16
2.43546e-17
5.3031e-18
5.60691e-18
5.59297e-17
7.85614e-16
8.56327e-15
6.75551e-14
4.15332e-13
1.5361e-12
3.09013e-12
1.18375e-11
1.17915e-11
4.67021e-11
1.13974e-06
9.84757e-06
6.46041e-06
1.804e-11
1.23464e-09
5.74361e-10
2.49282e-11
7.77826e-12
4.95567e-13
1.21087e-13
3.17507e-14
5.33106e-15
6.34456e-16
5.27607e-17
3.82801e-18
2.55317e-18
1.32086e-17
3.46821e-16
6.85143e-15
1.21326e-13
1.74739e-12
1.32265e-11
4.32376e-11
1.47119e-10
1.14399e-09
1.0981e-08
9.02427e-08
1.31771e-06
0.000200152
0.000447207
4.35694e-05
3.62073e-05
3.59433e-05
3.62073e-05
0.000196743
0.000591237
0.00058974
0.000586267
0.000581153
0.000215837
3.79141e-07
2.00145e-06
7.27376e-10
-1.6569e-08
8.30047e-05
0.000382059
0.00063098
0.00063682
0.000636523
0.000636824
0.00041522
5.12165e-05
5.05509e-05
5.63547e-05
0.000342876
0.00024588
1.47528e-05
3.75049e-07
4.0187e-08
3.90423e-09
3.55062e-10
4.35314e-11
1.19762e-11
2.32693e-12
1.91296e-13
9.93584e-15
4.51165e-16
1.49925e-17
3.90779e-18
5.12475e-18
5.69953e-17
7.87624e-16
8.49557e-15
6.5816e-14
3.76111e-13
1.22722e-12
2.7891e-12
9.0591e-12
9.06604e-12
4.63653e-11
2.00498e-06
1.41445e-05
5.72415e-06
1.65397e-11
8.16845e-10
4.24054e-10
6.71768e-12
4.29653e-12
4.28543e-13
1.14613e-13
2.68295e-14
4.83246e-15
5.7599e-16
4.71803e-17
3.14414e-18
1.64746e-18
8.40114e-18
2.3598e-16
5.17521e-15
1.04292e-13
1.65184e-12
1.05341e-11
2.79493e-11
2.33763e-10
2.07418e-09
2.01954e-08
1.85856e-07
1.06303e-05
0.000177712
0.000203905
3.96949e-05
3.59421e-05
3.62073e-05
0.000193548
0.000591082
0.000590759
0.000590759
0.000586953
0.000296034
3.98451e-07
3.96668e-07
3.38303e-06
4.38879e-11
-3.76061e-09
1.22853e-06
2.3059e-05
0.000139925
0.000281634
0.000632439
0.000620756
0.00058859
0.000166065
5.17077e-05
5.92886e-05
0.000270274
0.000203341
1.65994e-05
4.92605e-07
5.50308e-08
5.47966e-09
4.99536e-10
6.2209e-11
6.87488e-12
1.58558e-12
1.37705e-13
6.01825e-15
2.48158e-16
7.98076e-18
2.00546e-18
4.38107e-18
5.30543e-17
7.1e-16
7.32949e-15
5.3578e-14
2.71089e-13
9.31228e-13
2.67447e-12
8.36191e-12
8.40047e-12
2.21965e-11
1.75876e-06
1.41465e-05
1.32679e-05
1.50326e-11
3.88742e-10
3.13282e-10
2.62204e-12
2.10836e-12
3.78197e-13
9.2204e-14
1.88087e-14
3.31636e-15
3.92399e-16
3.28968e-17
2.30167e-18
8.54538e-19
4.06409e-18
1.22354e-16
2.96626e-15
6.67046e-14
1.06792e-12
7.46182e-12
3.38326e-11
2.89793e-10
2.71377e-09
2.8212e-08
2.62236e-07
1.56134e-05
0.000123836
0.000124449
4.10237e-05
3.68544e-05
0.000155427
0.0005363
0.000562704
0.000590759
0.00035876
0.000136051
7.29662e-06
7.85676e-08
1.64915e-08
1.52639e-06
2.24763e-11
-3.24022e-09
1.46527e-07
1.33801e-06
3.64074e-06
6.56039e-06
5.26909e-05
0.00013968
0.000280938
0.000133979
3.03996e-05
0.000111555
0.000262402
0.000214591
1.82859e-05
4.75515e-07
5.29877e-08
5.22371e-09
4.63205e-10
5.35247e-11
4.55808e-12
7.04945e-13
5.19815e-14
2.15588e-15
8.04837e-17
2.64564e-18
7.39066e-19
3.23977e-18
3.96743e-17
5.06319e-16
5.00812e-15
3.60436e-14
1.89615e-13
7.9017e-13
2.81647e-12
8.91194e-12
8.8825e-12
1.02807e-11
8.55572e-07
1.41465e-05
1.41405e-05
1.42555e-11
1.61104e-10
1.7884e-10
2.87908e-12
1.7217e-12
3.53003e-13
7.22336e-14
1.31748e-14
1.95947e-15
2.20972e-16
1.92091e-17
1.45535e-18
3.24077e-19
1.20909e-18
3.78699e-17
1.01929e-15
2.49611e-14
4.19778e-13
3.50559e-12
2.94028e-11
2.67971e-10
2.71637e-09
2.79915e-08
2.5327e-07
1.04575e-05
0.000108636
0.000125316
4.4483e-05
2.25845e-05
0.000209776
0.000391453
0.000167024
7.65511e-05
1.05228e-05
4.14359e-06
1.20162e-06
-2.18521e-09
1.013e-09
2.28011e-09
2.07237e-11
-3.05131e-10
1.30774e-08
9.06847e-08
3.43858e-07
1.06865e-06
5.94927e-06
1.75828e-05
1.4861e-05
5.76321e-06
1.62781e-05
0.000193915
0.000254123
0.000126936
2.81236e-06
2.21852e-07
2.43438e-08
2.36026e-09
2.07011e-10
2.31181e-11
1.77005e-12
1.65911e-13
9.12735e-15
3.30838e-16
1.34866e-17
7.57392e-19
2.48384e-19
2.24874e-18
2.89664e-17
3.51479e-16
3.44064e-15
2.63013e-14
1.5852e-13
7.55161e-13
3.93439e-12
1.00785e-11
8.90318e-12
6.28204e-12
2.94739e-07
1.41465e-05
1.26188e-05
1.27632e-11
5.08264e-11
6.18154e-11
5.91211e-12
2.1286e-12
3.46188e-13
6.52119e-14
1.11095e-14
1.42976e-15
1.49497e-16
1.27887e-17
9.71802e-19
1.02949e-19
3.32963e-19
6.33844e-18
1.4587e-16
3.67965e-15
7.69462e-14
9.53228e-13
1.31673e-11
1.34135e-10
1.3484e-09
1.37609e-08
1.23153e-07
1.45682e-06
6.34504e-05
0.000127132
6.39122e-05
1.67623e-05
5.65711e-05
4.70028e-05
1.38908e-05
3.84524e-06
1.35506e-06
4.32582e-07
9.61591e-08
-1.11914e-09
-4.31552e-11
6.36338e-11
1.94573e-11
1.92454e-11
2.20645e-10
1.18658e-08
4.67555e-08
3.43858e-07
6.05928e-06
1.82624e-05
3.08541e-06
3.31658e-06
1.2004e-05
0.000157371
0.000134939
2.37866e-05
2.39983e-07
2.76642e-08
3.02428e-09
3.00037e-10
3.71386e-11
3.35566e-12
3.30842e-13
2.07859e-14
8.78736e-16
4.18959e-17
1.88285e-18
1.11856e-19
1.5378e-19
1.88169e-18
2.48259e-17
2.87325e-16
2.84055e-15
2.3374e-14
1.52427e-13
8.10923e-13
5.10855e-12
1.03036e-11
8.8156e-12
3.56911e-12
6.67401e-08
1.41431e-05
2.55307e-06
7.9421e-12
1.0733e-11
1.91094e-11
8.08505e-12
3.33926e-12
3.87617e-13
6.42331e-14
1.06724e-14
1.30941e-15
1.32981e-16
1.12442e-17
8.43019e-19
6.9602e-20
3.93522e-20
7.43141e-19
1.6733e-17
3.2079e-16
6.94699e-15
1.29673e-13
1.20768e-12
1.29913e-11
9.56194e-11
9.20508e-10
7.96112e-09
2.0744e-07
1.11975e-05
3.02043e-05
2.89923e-05
5.72242e-06
3.39254e-05
6.14226e-05
5.7341e-06
1.35506e-06
4.32582e-07
4.41326e-08
9.37734e-09
6.32249e-11
9.14547e-12
9.23723e-12
1.6724e-11
1.67445e-11
2.16831e-10
2.02098e-08
2.73989e-08
5.75054e-07
5.00352e-06
2.83466e-06
2.10671e-07
2.59017e-06
8.64471e-06
1.15157e-05
3.53272e-06
1.27341e-06
1.35432e-07
1.72371e-09
1.75304e-10
2.14621e-11
2.59146e-12
4.239e-13
3.20935e-14
1.38642e-15
5.22641e-17
2.4536e-18
1.17333e-19
1.46849e-20
1.24805e-19
1.84987e-18
2.44596e-17
2.77035e-16
2.75214e-15
2.32838e-14
1.62285e-13
9.45456e-13
5.40173e-12
1.03037e-11
8.30058e-12
3.56667e-12
3.41377e-06
1.38722e-05
2.1804e-07
4.70912e-12
4.63828e-12
9.08049e-12
8.83585e-12
3.99982e-12
4.79597e-13
7.02398e-14
1.09123e-14
1.31806e-15
1.3573e-16
1.1922e-17
8.97552e-19
6.05096e-20