/*--------------------------------*- C++ -*----------------------------------*\
| =========                 |                                                 |
| \\      /  F ield         | OpenFOAM: The Open Source CFD Toolbox           |
|  \\    /   O peration     | Version:  2412                                  |
|   \\  /    A nd           | Website:  www.openfoam.com                      |
|    \\/     M anipulation  |                                                 |
\*---------------------------------------------------------------------------*/
FoamFile
{
    version     2.0;
    format      ascii;
    arch        "LSB;label=32;scalar=64";
    class       surfaceScalarField;
    location    "2.25";
    object      alphaPhi0.water;
}
// * * * * * * * * * * * * * * * * * * * * * * * * * * * * * * * * * * * * * //

dimensions      [0 3 -1 0 0 0 0];

oriented        oriented;

internalField   nonuniform List<scalar> 
12640
(
-1.74447e-05
1.74446e-05
-3.09906e-05
1.35465e-05
-4.52943e-05
1.43036e-05
-5.90459e-05
1.37503e-05
-7.16523e-05
1.26048e-05
-8.286e-05
1.12077e-05
-9.24889e-05
9.63038e-06
-0.000100284
7.7967e-06
-0.000106075
5.79096e-06
-0.000109733
3.65649e-06
-0.000111169
1.4357e-06
-0.000110336
-8.3396e-07
-0.000107323
-3.01503e-06
-0.000102239
-5.08283e-06
-9.52162e-05
-7.02639e-06
-8.6558e-05
-8.65511e-06
-7.62451e-05
-1.03185e-05
-6.45666e-05
-1.16752e-05
-5.17517e-05
-1.28096e-05
-3.80235e-05
-1.37336e-05
-2.38814e-05
-1.4144e-05
-9.57157e-06
-1.4307e-05
4.65329e-06
-1.42266e-05
1.83087e-05
-1.36592e-05
3.1046e-05
-1.27372e-05
4.24919e-05
-1.14446e-05
5.23827e-05
-9.89175e-06
6.04181e-05
-8.03737e-06
6.64416e-05
-6.02385e-06
7.02926e-05
-3.85032e-06
7.18406e-05
-1.54814e-06
7.08481e-05
9.91745e-07
6.72248e-05
3.6231e-06
6.1142e-05
6.08357e-06
5.32302e-05
7.91253e-06
4.39702e-05
9.26036e-06
3.38335e-05
1.01374e-05
2.32227e-05
1.06123e-05
1.24136e-05
1.08108e-05
1.55913e-06
1.08556e-05
-9.30741e-06
1.08668e-05
-2.02064e-05
1.08988e-05
-3.10265e-05
1.082e-05
-4.16069e-05
1.05803e-05
-5.16376e-05
1.00306e-05
-6.05839e-05
8.94608e-06
-6.80938e-05
7.50961e-06
-7.36176e-05
5.52383e-06
-7.66096e-05
2.99223e-06
-7.68686e-05
2.59206e-07
-7.46251e-05
-2.24341e-06
-7.01609e-05
-4.46413e-06
-6.35815e-05
-6.57932e-06
-5.50786e-05
-8.50252e-06
-4.48674e-05
-1.02107e-05
-3.32206e-05
-1.16463e-05
-2.05018e-05
-1.27192e-05
-7.07175e-06
-1.34306e-05
6.71221e-06
-1.37839e-05
2.04411e-05
-1.3728e-05
3.37751e-05
-1.3333e-05
4.64271e-05
-1.26512e-05
5.80412e-05
-1.16137e-05
6.8435e-05
-1.0394e-05
7.74875e-05
-9.05342e-06
8.48121e-05
-7.32538e-06
9.05017e-05
-5.68965e-06
9.42536e-05
-3.75136e-06
9.59347e-05
-1.68064e-06
9.54682e-05
4.66328e-07
9.2864e-05
2.60354e-06
8.82451e-05
4.61835e-06
8.17259e-05
6.5192e-06
7.34595e-05
8.26703e-06
6.36683e-05
9.79223e-06
5.257e-05
1.10994e-05
4.03874e-05
1.21832e-05
2.7621e-05
1.2767e-05
1.5562e-05
1.20604e-05
1.55637e-05
-1.7893e-05
3.53366e-05
-3.18639e-05
2.75171e-05
-4.66438e-05
2.90825e-05
-6.0776e-05
2.78812e-05
-7.37515e-05
2.55807e-05
-8.53135e-05
2.27718e-05
-9.52454e-05
1.95637e-05
-0.00010329
1.58405e-05
-0.000109283
1.17817e-05
-0.000113103
7.47327e-06
-0.000114623
2.95507e-06
-0.000113803
-1.65313e-06
-0.000110634
-6.18853e-06
-0.00010507
-1.06443e-05
-9.72931e-05
-1.48092e-05
-8.74466e-05
-1.84964e-05
-7.57395e-05
-2.20259e-05
-6.26237e-05
-2.47971e-05
-4.82384e-05
-2.71933e-05
-3.31424e-05
-2.88277e-05
-1.73766e-05
-2.99131e-05
-1.4309e-06
-3.02559e-05
1.42156e-05
-2.98727e-05
2.93783e-05
-2.88202e-05
4.37084e-05
-2.70675e-05
5.6866e-05
-2.46037e-05
6.84761e-05
-2.1502e-05
7.82557e-05
-1.78146e-05
8.58682e-05
-1.36338e-05
9.10386e-05
-9.01963e-06
9.35963e-05
-4.10549e-06
9.36025e-05
9.86351e-07
9.11559e-05
6.07064e-06
8.6199e-05
1.10409e-05
7.84035e-05
1.57082e-05
6.77168e-05
1.99481e-05
5.43384e-05
2.35178e-05
3.88071e-05
2.6146e-05
2.15337e-05
2.80859e-05
3.21555e-06
2.91744e-05
-1.53715e-05
2.94538e-05
-3.34001e-05
2.89273e-05
-5.01159e-05
2.75358e-05
-6.49752e-05
2.54394e-05
-7.74418e-05
2.2497e-05
-8.71633e-05
1.86674e-05
-9.39028e-05
1.42494e-05
-9.78077e-05
9.42924e-06
-9.91657e-05
4.35086e-06
-9.81569e-05
-7.49223e-07
-9.45433e-05
-5.85676e-06
-8.83638e-05
-1.0643e-05
-7.98692e-05
-1.5073e-05
-6.93573e-05
-1.90138e-05
-5.71845e-05
-2.23834e-05
-4.37073e-05
-2.51239e-05
-2.92789e-05
-2.71482e-05
-1.42313e-05
-2.84787e-05
1.07021e-06
-2.90857e-05
1.63547e-05
-2.90127e-05
3.11781e-05
-2.81563e-05
4.51421e-05
-2.66154e-05
5.82838e-05
-2.47563e-05
6.99607e-05
-2.20722e-05
7.99891e-05
-1.90827e-05
8.80702e-05
-1.54066e-05
9.39834e-05
-1.16021e-05
9.77593e-05
-7.52679e-06
9.93464e-05
-3.26795e-06
9.8727e-05
1.08509e-06
9.59739e-05
5.35619e-06
9.11573e-05
9.43547e-06
8.43896e-05
1.32883e-05
7.584e-05
1.68185e-05
6.57066e-05
1.99271e-05
5.42383e-05
2.25688e-05
4.16464e-05
2.47764e-05
2.85049e-05
2.59111e-05
1.60509e-05
2.45173e-05
3.16169e-05
-1.84974e-05
5.38341e-05
-3.28616e-05
4.18825e-05
-4.80534e-05
4.42744e-05
-6.26676e-05
4.24949e-05
-7.60862e-05
3.89992e-05
-8.80565e-05
3.47424e-05
-9.8374e-05
2.98799e-05
-0.000106695
2.41582e-05
-0.000112913
1.79991e-05
-0.000116873
1.14325e-05
-0.00011842
4.50116e-06
-0.000117518
-2.55194e-06
-0.000114227
-9.48311e-06
-0.0001086
-1.62724e-05
-0.000100758
-2.26519e-05
-9.08135e-05
-2.8447e-05
-7.93157e-05
-3.35246e-05
-6.62183e-05
-3.78917e-05
-5.1852e-05
-4.1561e-05
-3.64849e-05
-4.41967e-05
-2.06954e-05
-4.56999e-05
-4.61857e-06
-4.63283e-05
1.13373e-05
-4.58266e-05
2.67596e-05
-4.42419e-05
4.12928e-05
-4.15981e-05
5.45849e-05
-3.78916e-05
6.63074e-05
-3.32213e-05
7.61188e-05
-2.76251e-05
8.3727e-05
-2.1242e-05
8.89269e-05
-1.42194e-05
9.14693e-05
-6.64761e-06
9.13174e-05
1.13805e-06
8.85071e-05
8.88023e-06
8.31063e-05
1.64416e-05
7.49608e-05
2.38542e-05
6.43869e-05
3.05234e-05
5.15768e-05
3.63295e-05
3.67063e-05
4.10177e-05
2.03841e-05
4.44088e-05
3.20359e-06
4.63553e-05
-1.42198e-05
4.68775e-05
-3.12143e-05
4.59221e-05
-4.71662e-05
4.34879e-05
-6.13979e-05
3.96712e-05
-7.3477e-05
3.45763e-05
-8.32102e-05
2.84012e-05
-9.0418e-05
2.14581e-05
-9.49575e-05
1.39697e-05
-9.6814e-05
6.20804e-06
-9.59273e-05
-1.63526e-06
-9.24039e-05
-9.37951e-06
-8.6293e-05
-1.67535e-05
-7.78706e-05
-2.34953e-05
-6.73967e-05
-2.94881e-05
-5.52049e-05
-3.45762e-05
-4.16448e-05
-3.86859e-05
-2.7067e-05
-4.17291e-05
-1.18629e-05
-4.36861e-05
3.61975e-06
-4.45706e-05
1.8981e-05
-4.43748e-05
3.39794e-05
-4.31551e-05
4.81983e-05
-4.08347e-05
6.12274e-05
-3.7786e-05
7.29013e-05
-3.37462e-05
8.28349e-05
-2.90159e-05
9.10631e-05
-2.3634e-05
9.71698e-05
-1.77079e-05
0.000101106
-1.14624e-05
0.000102825
-4.98679e-06
0.000102212
1.69764e-06
9.93751e-05
8.19431e-06
9.43117e-05
1.45e-05
8.72811e-05
2.03198e-05
7.84334e-05
2.5667e-05
6.78907e-05
3.04703e-05
5.6005e-05
3.44552e-05
4.30049e-05
3.77785e-05
2.94353e-05
3.94835e-05
1.66459e-05
3.73093e-05
4.82638e-05
-1.96544e-05
7.349e-05
-3.46849e-05
5.69144e-05
-5.06021e-05
6.01904e-05
-6.60346e-05
5.79257e-05
-8.0251e-05
5.32142e-05
-9.2971e-05
4.74614e-05
-0.000103894
4.08016e-05
-0.000112786
3.30478e-05
-0.00011948
2.46926e-05
-0.000123639
1.55934e-05
-0.000125326
6.18641e-06
-0.000124319
-3.56026e-06
-0.000120795
-1.30071e-05
-0.000114795
-2.22809e-05
-0.000106391
-3.10525e-05
-9.58882e-05
-3.89516e-05
-8.34645e-05
-4.59492e-05
-6.93248e-05
-5.203e-05
-5.41342e-05
-5.67533e-05
-3.80184e-05
-6.0311e-05
-2.12142e-05
-6.25001e-05
-4.12125e-06
-6.34213e-05
1.28241e-05
-6.27742e-05
2.92117e-05
-6.06298e-05
4.46794e-05
-5.70654e-05
5.88245e-05
-5.20386e-05
7.12439e-05
-4.56441e-05
8.16662e-05
-3.80495e-05
8.97353e-05
-2.9311e-05
9.51916e-05
-1.96752e-05
9.79173e-05
-9.3738e-06
9.76687e-05
1.38582e-06
9.4483e-05
1.20654e-05
8.81491e-05
2.27756e-05
7.90021e-05
3.30014e-05
6.73834e-05
4.21423e-05
5.34653e-05
5.02479e-05
3.79081e-05
5.65754e-05
2.10833e-05
6.12344e-05
3.45244e-06
6.39868e-05
-1.43834e-05
6.47138e-05
-3.18759e-05
6.34148e-05
-4.84544e-05
6.00666e-05
-6.36387e-05
5.4856e-05
-7.68808e-05
4.78191e-05
-8.7752e-05
3.92731e-05
-9.58305e-05
2.95373e-05
-0.000101027
1.91665e-05
-0.000103204
8.38603e-06
-0.000102372
-2.46785e-06
-9.86206e-05
-1.31308e-05
-9.21504e-05
-2.32239e-05
-8.31153e-05
-3.25308e-05
-7.19981e-05
-4.06063e-05
-5.90285e-05
-4.75474e-05
-4.45086e-05
-5.32074e-05
-2.90007e-05
-5.72377e-05
-1.27912e-05
-5.98952e-05
3.68433e-06
-6.1045e-05
2.01454e-05
-6.08347e-05
3.59126e-05
-5.89214e-05
5.10579e-05
-5.59792e-05
6.4936e-05
-5.16631e-05
7.74333e-05
-4.62423e-05
8.80798e-05
-3.96612e-05
9.68012e-05
-3.23545e-05
0.000103258
-2.41647e-05
0.000107359
-1.55633e-05
0.000109087
-6.71419e-06
0.000108456
2.32966e-06
0.000105449
1.12023e-05
0.000100087
1.98631e-05
9.2556e-05
2.785e-05
8.30854e-05
3.51372e-05
7.18833e-05
4.16722e-05
5.92424e-05
4.70971e-05
4.54468e-05
5.15769e-05
3.11209e-05
5.3811e-05
1.76968e-05
5.07358e-05
6.59607e-05
-2.11919e-05
9.46835e-05
-3.70764e-05
7.27973e-05
-5.4053e-05
7.71637e-05
-7.06007e-05
7.44718e-05
-8.59034e-05
6.85173e-05
-9.96424e-05
6.12001e-05
-0.000111457
5.26158e-05
-0.00012116
4.27488e-05
-0.000128327
3.18575e-05
-0.000132928
2.01936e-05
-0.000134694
7.95298e-06
-0.000133493
-4.76623e-06
-0.000129465
-1.70342e-05
-0.000122856
-2.88934e-05
-0.000113908
-3.99935e-05
-0.000102652
-5.02108e-05
-8.91723e-05
-5.94339e-05
-7.41952e-05
-6.70024e-05
-5.75916e-05
-7.33552e-05
-3.98997e-05
-7.80068e-05
-2.15329e-05
-8.08702e-05
-3.05063e-06
-8.19034e-05
1.52949e-05
-8.1117e-05
3.31225e-05
-7.84543e-05
5.00287e-05
-7.39699e-05
6.55667e-05
-6.75765e-05
7.92585e-05
-5.93356e-05
9.07773e-05
-4.95677e-05
9.98073e-05
-3.83408e-05
0.000106019
-2.58884e-05
0.000109169
-1.25254e-05
0.000109173
1.37982e-06
0.000105556
1.56824e-05
9.86531e-05
2.96783e-05
8.85887e-05
4.30658e-05
7.56021e-05
5.51286e-05
6.0237e-05
6.56129e-05
4.27493e-05
7.40633e-05
2.38841e-05
8.01e-05
4.13864e-06
8.37327e-05
-1.57664e-05
8.46191e-05
-3.53488e-05
8.29976e-05
-5.39193e-05
7.86376e-05
-7.08636e-05
7.1801e-05
-8.56186e-05
6.25749e-05
-9.77157e-05
5.13709e-05
-0.000106786
3.8608e-05
-0.00011235
2.47297e-05
-0.000114575
1.06109e-05
-0.000113427
-3.61596e-06
-0.00010906
-1.74976e-05
-0.000101628
-3.06557e-05
-9.16519e-05
-4.25073e-05
-7.92251e-05
-5.30327e-05
-6.48314e-05
-6.19391e-05
-4.89702e-05
-6.90656e-05
-3.19336e-05
-7.42714e-05
-1.42281e-05
-7.75985e-05
3.73438e-06
-7.90061e-05
2.14156e-05
-7.8515e-05
3.88338e-05
-7.63389e-05
5.51268e-05
-7.22711e-05
7.02209e-05
-6.67559e-05
8.3505e-05
-5.95253e-05
9.51719e-05
-5.13276e-05
0.000104468
-4.16504e-05
0.000111557
-3.12545e-05
0.000116145
-2.01508e-05
0.000118077
-8.64471e-06
0.000117286
3.12165e-06
0.000113833
1.46559e-05
0.000107977
2.57182e-05
9.9738e-05
3.60883e-05
8.94113e-05
4.54637e-05
7.73013e-05
5.37832e-05
6.36259e-05
6.07751e-05
4.87751e-05
6.64292e-05
3.34105e-05
6.91772e-05
1.9137e-05
6.5011e-05
8.50985e-05
-2.31995e-05
0.000117882
-4.00679e-05
8.96618e-05
-5.84175e-05
9.55115e-05
-7.63909e-05
9.24468e-05
-9.30844e-05
8.52132e-05
-0.000108139
7.62539e-05
-0.000121146
6.56199e-05
-0.00013192
5.35215e-05
-0.000139895
3.98321e-05
-0.000144997
2.52916e-05
-0.000146882
9.8399e-06
-0.000145677
-5.96932e-06
-0.000141407
-2.13039e-05
-0.000134083
-3.62246e-05
-0.000123925
-5.01512e-05
-0.000111184
-6.29422e-05
-9.65051e-05
-7.41106e-05
-7.96419e-05
-8.38701e-05
-6.15245e-05
-9.1475e-05
-4.24056e-05
-9.71217e-05
-2.23688e-05
-0.000100901
-1.91991e-06
-0.000102348
1.84203e-05
-0.000101457
3.81763e-05
-9.82109e-05
5.68615e-05
-9.26551e-05
7.40726e-05
-8.47869e-05
8.94875e-05
-7.47495e-05
0.000102531
-6.26108e-05
0.000112827
-4.86369e-05
0.000120062
-3.31243e-05
0.000123964
-1.64266e-05
0.000123996
1.34815e-06
0.000120195
1.94827e-05
0.000112604
3.72686e-05
0.000101417
5.4251e-05
8.67004e-05
6.98441e-05
6.92748e-05
8.30381e-05
4.93503e-05
9.3988e-05
2.78364e-05
0.000101614
5.19525e-06
0.000106374
-1.76489e-05
0.000107463
-4.01294e-05
0.000105478
-6.13813e-05
9.98905e-05
-8.07028e-05
9.11236e-05
-9.74539e-05
7.93267e-05
-0.000111065
6.49824e-05
-0.000121043
4.85857e-05
-0.000127292
3.09787e-05
-0.000129439
1.27578e-05
-0.000127778
-5.27761e-06
-0.000122548
-2.27285e-05
-0.000114051
-3.91521e-05
-0.000102503
-5.40537e-05
-8.84574e-05
-6.70774e-05
-7.22531e-05
-7.81426e-05
-5.45351e-05
-8.67832e-05
-3.56244e-05
-9.31822e-05
-1.60211e-05
-9.72023e-05
3.83856e-06
-9.88661e-05
2.3471e-05
-9.81474e-05
4.24593e-05
-9.53264e-05
6.02384e-05
-9.00489e-05
7.65921e-05
-8.31084e-05
9.15818e-05
-7.45145e-05
0.000104215
-6.39609e-05
0.00011472
-5.21568e-05
0.00012255
-3.90845e-05
0.000127558
-2.51569e-05
0.000129637
-1.07219e-05
0.000128715
4.04434e-06
0.000124864
1.85067e-05
0.000118214
3.23673e-05
0.000108995
4.53082e-05
9.75412e-05
5.69182e-05
8.41801e-05
6.7146e-05
6.91768e-05
7.57803e-05
5.29578e-05
8.26488e-05
3.63214e-05
8.58149e-05
2.09712e-05
8.03619e-05
0.000106071
-2.57339e-05
0.000143614
-4.38674e-05
0.000107793
-6.37256e-05
0.000115371
-8.34624e-05
0.000112186
-0.00010186
0.000103611
-0.000118656
9.30477e-05
-0.000133259
8.02204e-05
-0.000145273
6.55338e-05
-0.000154315
4.888e-05
-0.000160067
3.10437e-05
-0.000162301
1.20693e-05
-0.000160872
-7.3997e-06
-0.000155925
-2.62499e-05
-0.000147661
-4.44787e-05
-0.000136222
-6.15962e-05
-0.000122188
-7.69822e-05
-0.000105699
-9.05957e-05
-8.71037e-05
-0.000102462
-6.68971e-05
-0.00011168
-4.53371e-05
-0.00011868
-2.30043e-05
-0.000123235
-3.49208e-07
-0.000125007
2.22602e-05
-0.000124069
4.42674e-05
-0.000120219
6.52911e-05
-0.000113679
8.47767e-05
-0.000104274
0.000102235
-9.2209e-05
0.000117207
-7.75836e-05
0.000129178
-6.06079e-05
0.000137815
-4.17602e-05
0.000142444
-2.10547e-05
0.000142732
1.05996e-06
0.000138721
2.34923e-05
0.000130325
4.56633e-05
0.000117673
6.69014e-05
0.000100984
8.65323e-05
8.08118e-05
0.00010321
5.78195e-05
0.000116979
3.27905e-05
0.000126642
6.59461e-06
0.000132568
-1.99387e-05
0.000133996
-4.60436e-05
0.000131584
-7.07053e-05
0.000124553
-9.31024e-05
0.000113521
-0.00011239
9.86143e-05
-0.000127886
8.04777e-05
-0.00013924
5.99394e-05
-0.000146072
3.78102e-05
-0.000148414
1.50997e-05
-0.000146031
-7.66069e-06
-0.000139563
-2.91976e-05
-0.000129422
-4.92941e-05
-0.00011602
-6.74582e-05
-9.98531e-05
-8.32463e-05
-8.15832e-05
-9.64139e-05
-6.13914e-05
-0.000106976
-4.01718e-05
-0.000114402
-1.82512e-05
-0.000119123
3.95984e-06
-0.000121077
2.57614e-05
-0.000119949
4.67497e-05
-0.000116314
6.67599e-05
-0.000110058
8.51557e-05
-0.000101503
0.000101625
-9.09839e-05
0.000115745
-7.80812e-05
0.000127261
-6.36733e-05
0.000136019
-4.78414e-05
0.000141745
-3.08824e-05
0.000144052
-1.30271e-05
0.000142941
5.15472e-06
0.000138543
2.29042e-05
0.000130975
3.99356e-05
0.000120534
5.57507e-05
0.000107558
6.98964e-05
9.25888e-05
8.21168e-05
7.59013e-05
9.24679e-05
5.80412e-05
0.00010051
3.99758e-05
0.000103882
2.32949e-05
9.70446e-05
0.000129366
-2.89124e-05
0.000172525
-4.85826e-05
0.000127464
-7.00553e-05
0.000136846
-9.17548e-05
0.000133887
-0.000112295
0.000124149
-0.000131218
0.00011197
-0.000147881
9.68867e-05
-0.000161645
7.92975e-05
-0.00017209
5.93267e-05
-0.000178641
3.75958e-05
-0.000181123
1.4553e-05
-0.000179337
-9.18274e-06
-0.000173494
-3.21054e-05
-0.00016394
-5.40307e-05
-0.000151055
-7.44786e-05
-0.000135145
-9.28927e-05
-0.000116495
-0.000109245
-9.57169e-05
-0.000123243
-7.30904e-05
-0.000134309
-4.89367e-05
-0.000142836
-2.40225e-05
-0.00014815
1.35992e-06
-0.00015039
2.67144e-05
-0.000149423
5.15934e-05
-0.000145098
7.54953e-05
-0.000137582
9.76774e-05
-0.000126457
0.000117795
-0.000112327
0.000135075
-9.48625e-05
0.000149327
-7.48585e-05
0.000159503
-5.19351e-05
0.000165237
-2.67878e-05
0.000166097
2.00173e-07
0.000161899
2.76904e-05
0.000152439
5.51227e-05
0.000137912
8.14274e-05
0.000118743
0.000105701
9.52099e-05
0.000126742
6.84753e-05
0.000143713
3.91585e-05
0.000155957
8.40318e-06
0.000163323
-2.28411e-05
0.00016524
-5.35352e-05
0.000162278
-8.25036e-05
0.000153522
-0.000108701
0.000139718
-0.000131238
0.000121151
-0.000149169
9.84085e-05
-0.000161963
7.27325e-05
-0.000169556
4.5404e-05
-0.00017173
1.72726e-05
-0.000168693
-1.06992e-05
-0.000160585
-3.73074e-05
-0.00014838
-6.15007e-05
-0.000132485
-8.33537e-05
-0.000113771
-0.000101959
-9.24488e-05
-0.000117734
-6.96801e-05
-0.000129742
-4.55315e-05
-0.00013855
-2.07455e-05
-0.000143909
4.10673e-06
-0.00014593
2.86419e-05
-0.000144484
5.22605e-05
-0.000139932
7.45826e-05
-0.00013238
9.50655e-05
-0.000121987
0.000113279
-0.000109198
0.000129474
-9.42776e-05
0.000142619
-7.68179e-05
0.000152453
-5.76751e-05
0.000158739
-3.7168e-05
0.00016164
-1.59282e-05
0.00016042
6.37469e-06
0.000155293
2.80313e-05
0.00014658
4.86512e-05
0.000134577
6.77557e-05
0.000119639
8.48349e-05
0.000102596
9.91606e-05
8.38531e-05
0.00011121
6.40044e-05
0.00012036
4.42229e-05
0.000123665
2.61268e-05
0.000115142
0.000155493
-3.28805e-05
0.000205405
-5.40524e-05
0.000148636
-7.72973e-05
0.000160091
-0.000101143
0.000157732
-0.000124305
0.000147309
-0.000146008
0.000133673
-0.000165259
0.000116141
-0.000181369
9.54111e-05
-0.000193512
7.1471e-05
-0.000201054
4.51326e-05
-0.000203869
1.73642e-05
-0.000201683
-1.13652e-05
-0.000194797
-3.89862e-05
-0.000183664
-6.51627e-05
-0.000168493
-8.96504e-05
-0.000149965
-0.00011142
-0.000129106
-0.000130103
-0.000105835
-0.000146516
-8.03048e-05
-0.00015984
-5.34666e-05
-0.000169673
-2.53178e-05
-0.000176299
3.42166e-06
-0.00017913
3.2142e-05
-0.000178145
6.04902e-05
-0.000173448
8.7514e-05
-0.000164608
0.000113084
-0.000152027
0.000136327
-0.000135569
0.000156779
-0.000115313
0.000173648
-9.17254e-05
0.000186024
-6.4309e-05
0.000193239
-3.40023e-05
0.000195093
-1.65327e-06
0.000190722
3.20612e-05
0.000180312
6.55333e-05
0.000163494
9.82441e-05
0.000141084
0.00012811
0.000113451
0.000154374
8.1694e-05
0.000175468
4.70905e-05
0.000190559
1.06381e-05
0.000199774
-2.60106e-05
0.000201888
-6.25694e-05
0.000198836
-9.70935e-05
0.000188045
-0.000128288
0.000170912
-0.000154765
0.000147627
-0.000175858
0.000119501
-0.00019063
8.75043e-05
-0.000198748
5.35219e-05
-0.000200592
1.9117e-05
-0.000196333
-1.49581e-05
-0.000186264
-4.73746e-05
-0.000171237
-7.65261e-05
-0.00015239
-0.000102197
-0.000130066
-0.000124279
-0.000105701
-0.000142096
-7.9352e-05
-0.00015609
-5.17461e-05
-0.000166155
-2.36359e-05
-0.00017202
4.55885e-06
-0.000174125
3.23239e-05
-0.000172249
5.88303e-05
-0.000166438
8.39821e-05
-0.000157532
0.000107032
-0.000145038
0.00012768
-0.000129847
0.000145468
-0.000112066
0.000160627
-9.19763e-05
0.000172316
-6.93638e-05
0.000179878
-4.47294e-05
0.000182906
-1.89566e-05
0.000181616
7.66526e-06
0.000175663
3.39863e-05
0.00016545
5.88663e-05
0.000151184
8.20229e-05
0.000133952
0.000102066
0.000114288
0.000118824
9.29733e-05
0.000132527
7.07929e-05
0.000142542
4.91078e-05
0.000145351
2.95694e-05
0.00013468
0.000185062
-3.77316e-05
0.000243137
-6.03543e-05
0.000171259
-8.52663e-05
0.000185002
-0.000111622
0.000184086
-0.000137944
0.000173631
-0.000163154
0.000158884
-0.000186022
0.000139008
-0.000204889
0.000114276
-0.000219194
8.57793e-05
-0.00022821
5.41475e-05
-0.000231219
2.03805e-05
-0.000228114
-1.44751e-05
-0.000220005
-4.70894e-05
-0.000206419
-7.87454e-05
-0.00018924
-0.000106831
-0.000168222
-0.000132441
-0.000144098
-0.000154228
-0.000117666
-0.000172949
-8.89514e-05
-0.000188554
-5.84296e-05
-0.000200195
-2.66646e-05
-0.000208065
5.91434e-06
-0.000211711
3.85593e-05
-0.000210792
7.05075e-05
-0.000205398
0.000101569
-0.00019567
0.000131081
-0.000181538
0.000158257
-0.000162744
0.000182767
-0.000139821
0.000202734
-0.000111691
0.000217941
-7.95167e-05
0.000227457
-4.3517e-05
0.000230517
-4.7124e-06
0.000226251
3.63274e-05
0.000214314
7.74703e-05
0.000195108
0.00011745
0.000168737
0.00015448
0.000136242
0.000186867
9.85475e-05
0.000213161
5.72338e-05
0.000231872
1.37426e-05
0.000243265
-3.06383e-05
0.000246269
-7.42518e-05
0.000242449
-0.000115469
0.000229261
-0.000152712
0.000208153
-0.000184387
0.0001793
-0.000208871
0.000143984
-0.000226026
0.000104659
-0.000235075
6.2573e-05
-0.000236265
2.03083e-05
-0.000229871
-2.13505e-05
-0.000217156
-6.00874e-05
-0.000198575
-9.51058e-05
-0.00017563
-0.000125141
-0.00014938
-0.000150528
-0.000120605
-0.00017087
-9.03498e-05
-0.000186344
-5.90535e-05
-0.000197451
-2.7005e-05
-0.000204068
5.15362e-06
-0.000206283
3.66739e-05
-0.000203769
6.70644e-05
-0.000196828
9.49337e-05
-0.000185401
0.000121034
-0.000171138
0.000144546
-0.000153358
0.000165172
-0.00013269
0.000182553
-0.000109356
0.000195953
-8.27628e-05
0.000205036
-5.38131e-05
0.000208995
-2.2914e-05
0.000207434
9.22772e-06
0.000200243
4.11798e-05
0.00018794
7.11702e-05
0.000171239
9.87247e-05
0.00015077
0.000122536
0.000127644
0.000141952
0.000103102
0.00015707
7.81325e-05
0.000167511
5.47295e-05
0.000168753
3.4068e-05
0.000155342
0.000219131
-4.4246e-05
0.000287381
-6.77971e-05
0.000194812
-9.3376e-05
0.000210581
-0.000122434
0.00021314
-0.000152937
0.000204131
-0.000182797
0.000188745
-0.00020987
0.000166083
-0.000233064
0.00013747
-0.000250451
0.000103167
-0.000260834
6.45239e-05
-0.000264078
2.36266e-05
-0.000260319
-1.82338e-05
-0.000249575
-5.78362e-05
-0.000233889
-9.44363e-05
-0.000212997
-0.000127723
-0.000188661
-0.000156776
-0.00016111
-0.000181778
-0.000130907
-0.000203151
-9.88136e-05
-0.000220645
-6.43208e-05
-0.000234687
-2.80863e-05
-0.0002443
8.90591e-06
-0.000248703
4.59768e-05
-0.000247862
8.24602e-05
-0.00024188
0.000117898
-0.000231107
0.000151944
-0.000215583
0.000184052
-0.000194852
0.000212941
-0.000168709
0.000237339
-0.000136089
0.000256288
-9.84647e-05
0.000268949
-5.61766e-05
0.000273877
-9.63962e-06
0.000269945
4.02603e-05
0.000257122
9.02922e-05
0.000234894
0.000139676
0.000203754
0.00018562
0.000164787
0.000225833
0.000119621
0.000258326
6.98577e-05
0.000281635
1.78809e-05
0.000295241
-3.47636e-05
0.000298912
-8.804e-05
0.000295724
-0.000138472
0.000279691
-0.000183543
0.000253223
-0.000221103
0.000216859
-0.000250435
0.000173316
-0.000270201
0.000124425
-0.000279594
7.19669e-05
-0.000279784
2.04988e-05
-0.000270816
-3.03199e-05
-0.000254277
-7.66284e-05
-0.0002313
-0.000118085
-0.000203029
-0.000153413
-0.000171527
-0.00018203
-0.000138063
-0.000204334
-0.000103171
-0.000221235
-6.73468e-05
-0.000233274
-3.09119e-05
-0.000240502
5.76522e-06
-0.00024296
4.18154e-05
-0.000239818
7.59556e-05
-0.000230969
0.000107996
-0.000217442
0.000137261
-0.000200403
0.000163769
-0.000179864
0.000187417
-0.000156338
0.00020762
-0.000129559
0.000223839
-9.89817e-05
0.000234665
-6.46391e-05
0.000239938
-2.81854e-05
0.000238292
1.08757e-05
0.000229942
4.95296e-05
0.000215141
8.59716e-05
0.00019481
0.000119055
0.000170047
0.0001473
0.000142509
0.000169491
0.000113897
0.000185682
8.59686e-05
0.000195439
6.15306e-05
0.000193191
3.93323e-05
0.000177543
0.000258463
-5.31246e-05
0.000340506
-7.7965e-05
0.000219652
-0.000101869
0.000234481
-0.000132925
0.000244194
-0.000167982
0.000239189
-0.000204374
0.000225138
-0.000237997
0.000199703
-0.000266415
0.000165883
-0.00028772
0.00012447
-0.000300334
7.71405e-05
-0.00030394
2.7225e-05
-0.000298519
-2.36544e-05
-0.000285102
-7.12528e-05
-0.000264947
-0.000114591
-0.000239938
-0.000152733
-0.000211573
-0.000185141
-0.000180236
-0.000213117
-0.000146728
-0.000236659
-0.000110204
-0.000257169
-7.09735e-05
-0.000273917
-2.9597e-05
-0.000285675
1.28927e-05
-0.000291191
5.50001e-05
-0.000289967
9.62218e-05
-0.0002831
0.000136637
-0.000271521
0.00017609
-0.000255035
0.000214
-0.000232761
0.000248635
-0.000203344
0.000278676
-0.00016613
0.000302905
-0.000122694
0.000319432
-7.27027e-05
0.000327043
-1.72513e-05
0.000325005
4.22976e-05
0.000311112
0.000104183
0.000285168
0.000165619
0.000247757
0.000223029
0.000200549
0.000273041
0.000145418
0.000313456
8.52017e-05
0.00034185
2.38811e-05
0.000356561
-3.85442e-05
0.000361336
-0.000103836
0.000361014
-0.000166316
0.000342169
-0.000221763
0.000308668
-0.000268192
0.000263287
-0.000303472
0.000208595
-0.000325954
0.000146907
-0.000335751
8.17636e-05
-0.000333379
1.81256e-05
-0.000320381
-4.33189e-05
-0.000298622
-9.83878e-05
-0.000269465
-0.000147241
-0.000234391
-0.000188486
-0.000196324
-0.000220097
-0.000157342
-0.000243314
-0.000117966
-0.00026061
-7.7713e-05
-0.000273526
-3.60345e-05
-0.00028218
6.14827e-06
-0.000285142
4.77485e-05
-0.000281418
8.6766e-05
-0.000269986
0.000122504
-0.000253179
0.00015495
-0.000232848
0.000185096
-0.000210009
0.000212472
-0.000183712
0.000236603
-0.000153691
0.000256493
-0.000118872
0.000270603
-7.87471e-05
0.000277176
-3.47558e-05
0.000275559
1.24932e-05
0.000265645
5.94437e-05
0.000247706
0.000103911
0.000222615
0.000144149
0.00019198
0.000177937
0.000158279
0.000203192
0.000124225
0.000219736
9.31447e-05
0.000226519
6.96649e-05
0.000216673
4.60592e-05
0.000201149
0.000304521
-6.70643e-05
0.000407572
-9.45888e-05
0.000247173
-0.000110293
0.000250182
-0.00014195
0.000275852
-0.000183625
0.000280866
-0.000228844
0.000270357
-0.000271622
0.000242477
-0.000306727
0.00020099
-0.000332647
0.000150386
-0.000347968
9.24663e-05
-0.000351464
3.07231e-05
-0.000343561
-3.1555e-05
-0.000325797
-8.90181e-05
-0.000300514
-0.000139875
-0.000270122
-0.000183126
-0.000236772
-0.000218491
-0.000201437
-0.000248453
-0.000163626
-0.000274469
-0.000123036
-0.000297759
-7.85816e-05
-0.00031837
-3.13744e-05
-0.00033288
1.73649e-05
-0.000339928
6.51155e-05
-0.000337716
0.000111109
-0.000329093
0.000156011
-0.000316424
0.000201353
-0.000300377
0.000246166
-0.000277575
0.000288082
-0.00024526
0.000325738
-0.000203787
0.000356558
-0.000153514
0.000379574
-9.57194e-05
0.000392585
-3.02634e-05
0.00039229
4.25919e-05
0.000377302
0.00011917
0.000348062
0.000194859
0.000304296
0.000266795
0.000246993
0.000330344
0.000179115
0.000381334
0.000105673
0.000415292
3.22494e-05
0.000429983
-4.27726e-05
0.000436357
-0.000124373
0.000442613
-0.000203301
0.000421095
-0.000272275
0.000377641
-0.000327811
0.000318823
-0.000368698
0.000249482
-0.000394641
0.00017285
-0.000404874
9.19982e-05
-0.000397726
1.09785e-05
-0.000378805
-6.22389e-05
-0.000349052
-0.000128141
-0.000311435
-0.000184857
-0.0002681
-0.000231821
-0.000222302
-0.000265894
-0.000177096
-0.00028852
-0.000133224
-0.000304482
-8.86424e-05
-0.000318107
-4.16385e-05
-0.000329182
6.99726e-06
-0.000333777
5.50127e-05
-0.000329434
9.97369e-05
-0.000314711
0.000139808
-0.000293249
0.000175644
-0.000268683
0.000208194
-0.000242558
0.000240022
-0.000215541
0.000269336
-0.000183004
0.000294455
-0.00014399
0.000312784
-9.70743e-05
0.000322062
-4.40329e-05
0.000320779
1.37753e-05
0.000308562
7.16611e-05
0.000286311
0.000126163
0.000255519
0.000174942
0.000217708
0.000215747
0.000175342
0.000245556
0.000133791
0.000261289
9.88272e-05
0.000261485
8.1825e-05
0.000233675
5.75026e-05
0.00022547
0.000362023
-8.50708e-05
0.000492642
-0.000117504
0.000279603
-0.000115782
0.000248461
-0.000149158
0.000309231
-0.000202472
0.000334179
-0.000260939
0.000328827
-0.000314924
0.00029646
-0.000359218
0.000245281
-0.000391164
0.000182338
-0.000408586
0.000109888
-0.000411228
3.33684e-05
-0.000398896
-4.38869e-05
-0.000374573
-0.000113343
-0.000341633
-0.000172815
-0.00030399
-0.000220772
-0.000264809
-0.000257673
-0.000225711
-0.000287551
-0.00018526
-0.00031492
-0.000141101
-0.000341918
-9.1305e-05
-0.000368165
-3.57569e-05
-0.000388427
1.97266e-05
-0.000395411
7.33432e-05
-0.000391333
0.000124226
-0.000379976
0.000174063
-0.000366261
0.000225999
-0.000352314
0.000279565
-0.000331141
0.000331715
-0.000297412
0.000378774
-0.000250847
0.000419289
-0.00019403
0.000451463
-0.000127895
0.000472602
-5.14035e-05
0.000478474
3.67197e-05
0.000465562
0.000132082
0.000429492
0.000230929
0.000372945
0.000323343
0.00030013
0.000403159
0.000216032
0.000465432
0.000128003
0.00050332
4.24307e-05
0.000515555
-4.76999e-05
0.000526487
-0.000146211
0.000541123
-0.000243979
0.000518863
-0.000331242
0.000464905
-0.000402594
0.000390175
-0.000454753
0.000301642
-0.000483361
0.000201459
-0.000488369
9.7006e-05
-0.000480081
2.69019e-06
-0.000450236
-9.20851e-05
-0.000409728
-0.000168649
-0.000360982
-0.000233605
-0.000304601
-0.000288202
-0.0002465
-0.000323995
-0.000193622
-0.000341398
-0.00014588
-0.000352224
-9.82934e-05
-0.000365692
-4.59113e-05
-0.000381564
1.05061e-05
-0.000390194
6.76412e-05
-0.000386569
0.000119533
-0.000366602
0.00016259
-0.000336306
0.000199185
-0.000305277
0.000234568
-0.000277941
0.000270578
-0.000251551
0.000306677
-0.000219102
0.000339253
-0.000176564
0.000363925
-0.000121745
0.000377536
-5.76444e-05
0.000377627
1.36846e-05
0.000363816
8.54735e-05
0.000336855
0.000153126
0.000299066
0.000212731
0.000251304
0.000263509
0.000196649
0.000300213
0.000143557
0.000314383
0.000102489
0.000302553
0.000100192
0.00023597
6.94685e-05
0.000256194
0.000431491
-8.09509e-05
0.000573591
-0.000125452
0.000324104
-9.52244e-05
0.000218234
-0.000133574
0.000347582
-0.000213916
0.000414518
-0.00029987
0.000414777
-0.000373372
0.000369964
-0.000429981
0.00030189
-0.000468887
0.000221243
-0.000489966
0.000130967
-0.000489015
3.2416e-05
-0.000471435
-6.14698e-05
-0.000437229
-0.00014755
-0.000393098
-0.000216946
-0.00034482
-0.000269049
-0.000297856
-0.000304637
-0.000254485
-0.000330922
-0.000213115
-0.000356291
-0.000166121
-0.000388912
-0.000107419
-0.000426868
-3.94384e-05
-0.000456409
2.77289e-05
-0.000462579
9.01239e-05
-0.000453728
0.00014598
-0.000435832
0.000201509
-0.00042179
0.000263245
-0.00041405
0.000330649
-0.000398547
0.000394835
-0.0003616
0.000451543
-0.000307557
0.000499915
-0.000242404
0.000538882
-0.000166862
0.000566222
-7.87442e-05
0.000578964
2.39779e-05
0.000569762
0.000141284
0.000533847
0.000266844
0.00047009
0.0003871
0.000381772
0.000491477
0.000275217
0.000571987
0.000163472
0.000615066
5.17797e-05
0.000627247
-6.19414e-05
0.000640208
-0.000182099
0.000661281
-0.000304513
0.000641277
-0.000416798
0.000577191
-0.000505827
0.000479205
-0.000566282
0.000362095
-0.000595431
0.000230607
-0.00059842
9.99927e-05
-0.000575561
-2.01715e-05
-0.000548305
-0.000119342
-0.000505727
-0.000211228
-0.000444283
-0.000295049
-0.000367687
-0.000364799
-0.000288416
-0.000403267
-0.00022371
-0.000406104
-0.000172285
-0.000403648
-0.000124354
-0.000413624
-6.49246e-05
-0.000440993
5.45202e-06