/*--------------------------------*- C++ -*----------------------------------*\
| =========                 |                                                 |
| \\      /  F ield         | OpenFOAM: The Open Source CFD Toolbox           |
|  \\    /   O peration     | Version:  2412                                  |
|   \\  /    A nd           | Website:  www.openfoam.com                      |
|    \\/     M anipulation  |                                                 |
\*---------------------------------------------------------------------------*/
FoamFile
{
    version     2.0;
    format      ascii;
    arch        "LSB;label=32;scalar=64";
    class       volVectorField;
    location    "2.25";
    object      U;
}
// * * * * * * * * * * * * * * * * * * * * * * * * * * * * * * * * * * * * * //

dimensions      [0 1 -1 0 0 0 0];

internalField   nonuniform List<vector> 
6400
(
(-0.0019203 0.00175414 0)
(-0.00494706 0.00135791 0)
(-0.00760314 0.00143434 0)
(-0.0105105 0.00138071 0)
(-0.01316 0.00126584 0)
(-0.0155519 0.00112219 0)
(-0.0176405 0.000962927 0)
(-0.0193825 0.000769874 0)
(-0.0207358 0.00056795 0)
(-0.0216702 0.000350936 0)
(-0.0221703 0.000123455 0)
(-0.0222163 -0.000101869 0)
(-0.0218057 -0.000316557 0)
(-0.0209819 -0.000507875 0)
(-0.0198039 -0.000685867 0)
(-0.0182206 -0.00083195 0)
(-0.0162841 -0.000984372 0)
(-0.0140886 -0.00111535 0)
(-0.0116363 -0.00122302 0)
(-0.00903307 -0.00131275 0)
(-0.00626642 -0.0013429 0)
(-0.00341737 -0.00135878 0)
(-0.000590402 -0.00134335 0)
(0.00216739 -0.00127454 0)
(0.004757 -0.00117252 0)
(0.00711649 -0.00103692 0)
(0.00918825 -0.000867921 0)
(0.0109198 -0.000681893 0)
(0.0122647 -0.000487163 0)
(0.0131998 -0.000293173 0)
(0.0137039 -8.77019e-05 0)
(0.0137512 0.000151936 0)
(0.0132405 0.000415051 0)
(0.0122307 0.000656798 0)
(0.010851 0.000810855 0)
(0.00916626 0.000873566 0)
(0.00730175 0.000830227 0)
(0.00533251 0.000726471 0)
(0.00327919 0.0006257 0)
(0.00124277 0.000560282 0)
(-0.000797961 0.000548977 0)
(-0.00284305 0.00059577 0)
(-0.0048798 0.000675494 0)
(-0.00692367 0.000786711 0)
(-0.00887213 0.00087476 0)
(-0.0107017 0.00086565 0)
(-0.0123369 0.000784008 0)
(-0.0136338 0.000610255 0)
(-0.0144956 0.000358163 0)
(-0.0148156 9.04173e-05 0)
(-0.0146038 -0.000142607 0)
(-0.0139542 -0.000340301 0)
(-0.0128898 -0.000529937 0)
(-0.0114338 -0.000716618 0)
(-0.00961437 -0.000891438 0)
(-0.00748488 -0.00104725 0)
(-0.00510587 -0.00117014 0)
(-0.00254391 -0.00125285 0)
(0.000163796 -0.00129463 0)
(0.00288419 -0.00129501 0)
(0.00552462 -0.00126022 0)
(0.00809248 -0.00119634 0)
(0.0104903 -0.00109729 0)
(0.0126976 -0.000986876 0)
(0.0146223 -0.00086543 0)
(0.0162466 -0.000712501 0)
(0.0175423 -0.000569108 0)
(0.0184517 -0.000384946 0)
(0.0189998 -0.000180984 0)
(0.0191261 3.17367e-05 0)
(0.0188199 0.000249263 0)
(0.018105 0.000450417 0)
(0.0169963 0.000641118 0)
(0.015522 0.000816236 0)
(0.013722 0.000972251 0)
(0.0116352 0.00110386 0)
(0.00930281 0.00121559 0)
(0.00675664 0.00127603 0)
(0.00439894 0.00120408 0)
(0.00169346 0.00154927 0)
(-0.00196809 0.00531882 0)
(-0.00508516 0.00415074 0)
(-0.00783266 0.00437476 0)
(-0.0108217 0.00419953 0)
(-0.0135519 0.003851 0)
(-0.0160119 0.00342199 0)
(-0.0181729 0.00292667 0)
(-0.0199725 0.00236292 0)
(-0.0213632 0.00175062 0)
(-0.0223333 0.00109416 0)
(-0.0228526 0.000410209 0)
(-0.0229056 -0.000277668 0)
(-0.0224949 -0.000956624 0)
(-0.0216084 -0.00160246 0)
(-0.0202779 -0.00220542 0)
(-0.0184982 -0.00271484 0)
(-0.016334 -0.00321813 0)
(-0.0138536 -0.00361313 0)
(-0.0111103 -0.00395025 0)
(-0.00817621 -0.0041896 0)
(-0.00509198 -0.00431676 0)
(-0.00196646 -0.00436407 0)
(0.00116583 -0.00429838 0)
(0.00423258 -0.00412372 0)
(0.00712369 -0.00384668 0)
(0.00980961 -0.0034703 0)
(0.0122246 -0.00300203 0)
(0.014303 -0.00245783 0)
(0.015992 -0.00184819 0)
(0.0172205 -0.00119481 0)
(0.0179553 -0.000496235 0)
(0.0181781 0.000237604 0)
(0.0179131 0.000986918 0)
(0.0171871 0.00170663 0)
(0.0159556 0.00232194 0)
(0.0141304 0.00281392 0)
(0.0117803 0.00319067 0)
(0.00899271 0.00345875 0)
(0.00579668 0.00361932 0)
(0.00234679 0.00369333 0)
(-0.00125275 0.00370606 0)
(-0.00484206 0.00367361 0)
(-0.00821546 0.00356632 0)
(-0.0112781 0.00336805 0)
(-0.0139286 0.00307646 0)
(-0.0160762 0.00264791 0)
(-0.0176523 0.00211674 0)
(-0.0186509 0.00146809 0)
(-0.0191332 0.000733377 0)
(-0.0191648 -2.87748e-05 0)
(-0.0187248 -0.00075491 0)
(-0.017767 -0.00142805 0)
(-0.0163324 -0.00205482 0)
(-0.0144732 -0.0026228 0)
(-0.0122569 -0.00311931 0)
(-0.00974953 -0.00353357 0)
(-0.00702118 -0.00384871 0)
(-0.00413467 -0.00405623 0)
(-0.00111378 -0.00415899 0)
(0.00191382 -0.00415719 0)
(0.00485605 -0.00404871 0)
(0.00773096 -0.00384466 0)
(0.0104126 -0.00356243 0)
(0.0128616 -0.00319156 0)
(0.0150132 -0.00277836 0)
(0.0168002 -0.00226155 0)
(0.0181979 -0.00173741 0)
(0.0191485 -0.0011362 0)
(0.0196869 -0.000502885 0)
(0.019795 0.000139967 0)
(0.0194632 0.000777813 0)
(0.018708 0.00139606 0)
(0.0175576 0.0019682 0)
(0.0160306 0.00250141 0)
(0.0141655 0.00297106 0)
(0.0120092 0.00337303 0)
(0.00960263 0.00370574 0)
(0.00697244 0.00388113 0)
(0.00453823 0.00367167 0)
(0.00175173 0.00471973 0)
(-0.00204134 0.00899058 0)
(-0.00524747 0.00703173 0)
(-0.00806186 0.00740789 0)
(-0.0111492 0.00711026 0)
(-0.0139726 0.00652073 0)
(-0.0165214 0.00580024 0)
(-0.0187565 0.00495718 0)
(-0.0206214 0.0040113 0)
(-0.0220695 0.00297056 0)
(-0.0230774 0.00185301 0)
(-0.0236129 0.000698421 0)
(-0.0236611 -0.000475646 0)
(-0.0232252 -0.00163707 0)
(-0.0223145 -0.00276204 0)
(-0.0209486 -0.00381551 0)
(-0.0191802 -0.00474957 0)
(-0.0170212 -0.00559383 0)
(-0.014536 -0.00628103 0)
(-0.0117969 -0.0068622 0)
(-0.00884768 -0.00725998 0)
(-0.0057549 -0.00749159 0)
(-0.00258328 -0.00756628 0)
(0.000592683 -0.00745218 0)
(0.00369417 -0.00717492 0)
(0.00662991 -0.00672497 0)
(0.00934475 -0.00610732 0)
(0.0117749 -0.0053353 0)
(0.0138601 -0.00442211 0)
(0.0155396 -0.00338052 0)
(0.0167626 -0.00223451 0)
(0.0174899 -0.0010172 0)
(0.0176911 0.000228231 0)
(0.0173642 0.00146716 0)
(0.0165282 0.00267002 0)
(0.0152001 0.00383587 0)
(0.0133793 0.00490362 0)
(0.0111368 0.0058583 0)
(0.00847775 0.00663934 0)
(0.00544644 0.00719213 0)
(0.00220951 0.00750812 0)
(-0.00113792 0.00757929 0)
(-0.00447436 0.00741005 0)
(-0.00765234 0.00700597 0)
(-0.010559 0.00635698 0)
(-0.0130865 0.00550464 0)
(-0.0151936 0.00450546 0)
(-0.0168298 0.00339751 0)
(-0.0179591 0.00220216 0)
(-0.0185779 0.000969694 0)
(-0.018679 -0.000278604 0)
(-0.018249 -0.00151214 0)
(-0.01731 -0.00269376 0)
(-0.0158992 -0.00378408 0)
(-0.0140612 -0.00474337 0)
(-0.0118564 -0.00556458 0)
(-0.00934466 -0.00623329 0)
(-0.00659559 -0.00673144 0)
(-0.00368224 -0.00706148 0)
(-0.000635686 -0.00721878 0)
(0.00242301 -0.00720757 0)
(0.00539558 -0.00702594 0)
(0.00827032 -0.00666669 0)
(0.0109609 -0.00619344 0)
(0.0134082 -0.00554573 0)
(0.0155687 -0.00479766 0)
(0.0173743 -0.00391235 0)
(0.0187895 -0.00294991 0)
(0.0197952 -0.0019127 0)
(0.0203653 -0.000837132 0)
(0.0204845 0.0002626 0)
(0.0201509 0.00133515 0)
(0.019364 0.00237094 0)
(0.018162 0.0033469 0)
(0.0165793 0.00423946 0)
(0.0146378 0.00503975 0)
(0.0123998 0.00572061 0)
(0.00990687 0.00627864 0)
(0.00719339 0.00656974 0)
(0.00469769 0.00621465 0)
(0.00182132 0.00800588 0)
(-0.00218248 0.0128296 0)
(-0.00556094 0.0100079 0)
(-0.00849027 0.0105596 0)
(-0.011743 0.010148 0)
(-0.0147329 0.00931024 0)
(-0.0174365 0.00828745 0)
(-0.0198113 0.00708395 0)
(-0.0217957 0.00573079 0)
(-0.0233463 0.00423214 0)
(-0.0244213 0.00264237 0)
(-0.0249899 0.000988191 0)
(-0.0250379 -0.000690751 0)
(-0.0245623 -0.00235285 0)
(-0.0235833 -0.00395564 0)
(-0.0221166 -0.00545334 0)
(-0.0202123 -0.00680013 0)
(-0.0179068 -0.0079706 0)
(-0.0152815 -0.00898451 0)
(-0.0123705 -0.00978393 0)
(-0.00921168 -0.010365 0)
(-0.00592271 -0.0106994 0)
(-0.00256282 -0.010812 0)
(0.000812753 -0.0106648 0)
(0.00410686 -0.0102653 0)
(0.00722631 -0.0096246 0)
(0.0101118 -0.00874441 0)
(0.0126882 -0.00763833 0)
(0.0148932 -0.00632902 0)
(0.0166667 -0.00484645 0)
(0.0179496 -0.00321589 0)
(0.0187081 -0.00147976 0)
(0.018908 0.000308676 0)
(0.0185098 0.00209034 0)
(0.0175597 0.00384027 0)
(0.0160704 0.00553666 0)
(0.0140343 0.00705945 0)
(0.0115678 0.00839902 0)
(0.00872893 0.00944095 0)
(0.00559338 0.0101977 0)
(0.00228175 0.0106344 0)
(-0.00113343 0.0107495 0)
(-0.00453082 0.0105296 0)
(-0.00779215 0.00996156 0)
(-0.0108467 0.00909245 0)
(-0.013576 0.00791562 0)
(-0.0158912 0.00648782 0)
(-0.0177349 0.00488552 0)
(-0.0190381 0.00316992 0)
(-0.0197621 0.00138099 0)
(-0.0199015 -0.000419249 0)
(-0.0194606 -0.00218652 0)
(-0.0184755 -0.00387036 0)
(-0.0169776 -0.00541236 0)
(-0.0150237 -0.00679124 0)
(-0.0126845 -0.00796804 0)
(-0.0100105 -0.00891862 0)
(-0.00708243 -0.00963631 0)
(-0.00397998 -0.0101066 0)
(-0.000734746 -0.0103259 0)
(0.00251826 -0.0103103 0)
(0.00569592 -0.0100319 0)
(0.00875198 -0.00953505 0)
(0.0116106 -0.00883377 0)
(0.0142224 -0.00792525 0)
(0.0165166 -0.00683075 0)
(0.0184472 -0.00559819 0)
(0.019962 -0.00421944 0)
(0.021033 -0.0027382 0)
(0.0216501 -0.00120198 0)
(0.0217758 0.000355932 0)
(0.0213947 0.00189859 0)
(0.0205487 0.00340126 0)
(0.0192615 0.00480356 0)
(0.0175698 0.00607411 0)
(0.0155048 0.00720319 0)
(0.0131171 0.00817805 0)
(0.0104742 0.00896882 0)
(0.00759942 0.00936715 0)
(0.00498016 0.00885391 0)
(0.00194671 0.0114471 0)
(-0.00237056 0.0169429 0)
(-0.00598048 0.0131306 0)
(-0.00907355 0.0138978 0)
(-0.0125511 0.013381 0)
(-0.0157646 0.0122959 0)
(-0.0186832 0.0109548 0)
(-0.0212493 0.00938212 0)
(-0.0234055 0.00759777 0)
(-0.0250864 0.00561313 0)
(-0.0262487 0.00350435 0)
(-0.0268727 0.00130349 0)
(-0.0269282 -0.000950566 0)
(-0.0264176 -0.00314938 0)
(-0.0253436 -0.00525779 0)
(-0.0237207 -0.00722191 0)
(-0.0216243 -0.00900664 0)
(-0.0191323 -0.0105816 0)
(-0.0162754 -0.0119031 0)
(-0.0131045 -0.012954 0)
(-0.00969344 -0.0137233 0)
(-0.00613655 -0.0141742 0)
(-0.00248961 -0.0143157 0)
(0.00118821 -0.0141261 0)
(0.00477014 -0.013602 0)
(0.00816835 -0.0127555 0)
(0.0113255 -0.0116004 0)
(0.0141557 -0.0101562 0)
(0.0165828 -0.00843403 0)
(0.0185458 -0.00647306 0)
(0.0199846 -0.00431735 0)
(0.0208441 -0.00200451 0)
(0.0210758 0.00036291 0)
(0.0206686 0.00278585 0)
(0.0196605 0.00516597 0)
(0.0180047 0.00743108 0)
(0.0157548 0.00945465 0)
(0.0130075 0.011246 0)
(0.00981895 0.0126737 0)
(0.00631353 0.0136859 0)
(0.00260324 0.0142913 0)
(-0.00119387 0.0144233 0)
(-0.00500812 0.0141377 0)
(-0.00866314 0.0133798 0)
(-0.0120679 0.0121969 0)
(-0.0151227 0.0106031 0)
(-0.0177034 0.00870271 0)
(-0.0197243 0.00653421 0)
(-0.0211525 0.0042019 0)
(-0.021939 0.00181246 0)
(-0.0220598 -0.000613038 0)
(-0.0215385 -0.00297099 0)
(-0.020408 -0.00520503 0)
(-0.0187337 -0.00725623 0)
(-0.0165693 -0.00907587 0)
(-0.0139683 -0.0106234 0)
(-0.0110286 -0.0118654 0)
(-0.00782503 -0.0127978 0)
(-0.00443032 -0.0134045 0)
(-0.000909572 -0.013687 0)
(0.00264036 -0.0136525 0)
(0.00609582 -0.0132875 0)
(0.0093991 -0.0126312 0)
(0.012503 -0.011703 0)
(0.0153402 -0.0104872 0)
(0.0178237 -0.00905972 0)
(0.0199152 -0.00740322 0)
(0.0215802 -0.00559285 0)
(0.0227416 -0.00363515 0)
(0.0233882 -0.00158667 0)
(0.0235171 0.000476265 0)
(0.023129 0.00252747 0)
(0.0222006 0.00452447 0)
(0.0207683 0.00638277 0)
(0.0189152 0.00806744 0)
(0.0166751 0.00954674 0)
(0.0140957 0.0108212 0)
(0.0112355 0.0118519 0)
(0.00814477 0.0123594 0)
(0.00536723 0.0116467 0)
(0.00211741 0.0151402 0)
(-0.00262243 0.0214228 0)
(-0.0065151 0.0164694 0)
(-0.00980239 0.0174818 0)
(-0.0135666 0.0168792 0)
(-0.017071 0.0155408 0)
(-0.0202636 0.0138669 0)
(-0.0230845 0.0118954 0)
(-0.0254752 0.00961951 0)
(-0.0273459 0.00712249 0)
(-0.0286358 0.0044295 0)
(-0.0293482 0.00161801 0)
(-0.0293924 -0.00124257 0)
(-0.0287721 -0.00403186 0)
(-0.0275604 -0.00669392 0)
(-0.0257699 -0.00918363 0)
(-0.0234744 -0.0114467 0)
(-0.0207028 -0.013433 0)
(-0.0175479 -0.0150986 0)
(-0.0140783 -0.016421 0)
(-0.0103149 -0.0173797 0)
(-0.00639117 -0.0179696 0)
(-0.00238302 -0.0181472 0)
(0.00166459 -0.0179159 0)
(0.00562323 -0.0172645 0)
(0.00937878 -0.016216 0)
(0.0128685 -0.0147696 0)
(0.0160204 -0.0129532 0)
(0.01875 -0.0107894 0)
(0.020971 -0.00830744 0)
(0.0226197 -0.00556391 0)
(0.0236002 -0.00265695 0)
(0.0239155 0.000386512 0)
(0.0235348 0.00353711 0)
(0.0224256 0.00660464 0)
(0.0205724 0.00951657 0)
(0.0180523 0.0121583 0)
(0.0149721 0.0144405 0)
(0.0113308 0.0162918 0)
(0.00733237 0.0175864 0)
(0.00307594 0.0183699 0)
(-0.00130065 0.018536 0)
(-0.00565588 0.0181847 0)
(-0.0098541 0.0172032 0)
(-0.01377 0.0157055 0)
(-0.0172278 0.0136453 0)
(-0.0201291 0.0111801 0)
(-0.0224118 0.00837555 0)
(-0.0239513 0.00534762 0)
(-0.0247733 0.00223491 0)
(-0.0248709 -0.000868052 0)
(-0.0242278 -0.00389279 0)
(-0.0229222 -0.00673715 0)
(-0.0209995 -0.00933638 0)
(-0.0185342 -0.0116177 0)
(-0.0156102 -0.0135531 0)
(-0.0123179 -0.0151242 0)
(-0.00875473 -0.0162789 0)
(-0.00499992 -0.0170328 0)
(-0.00110968 -0.0173812 0)
(0.00279529 -0.0173039 0)
(0.00660484 -0.0168645 0)
(0.0102355 -0.0160006 0)
(0.0136571 -0.0148217 0)
(0.0167677 -0.0133102 0)
(0.0195039 -0.0114923 0)
(0.0218203 -0.00940803 0)
(0.0236374 -0.00711483 0)
(0.0249429 -0.00464139 0)
(0.0256645 -0.00202641 0)
(0.0257971 0.000622425 0)
(0.0253525 0.00323876 0)
(0.0243162 0.0057503 0)
(0.0227213 0.00811201 0)
(0.020655 0.0102483 0)
(0.0181741 0.0121188 0)
(0.0153334 0.0136996 0)
(0.0122043 0.0149746 0)
(0.00882745 0.0155863 0)
(0.00585188 0.0146267 0)
(0.00234409 0.0191629 0)
(-0.00294323 0.0263664 0)
(-0.00718231 0.0200527 0)
(-0.0106883 0.021377 0)
(-0.0148012 0.0207055 0)
(-0.0186637 0.0191029 0)
(-0.0222134 0.0170913 0)
(-0.0253869 0.0146843 0)
(-0.0280625 0.0118983 0)
(-0.0301564 0.00881282 0)
(-0.0316279 0.00545906 0)
(-0.0324156 0.00196181 0)
(-0.0324469 -0.0015478 0)
(-0.0317372 -0.00500898 0)
(-0.0303634 -0.00833 0)
(-0.0283401 -0.0114103 0)
(-0.0257392 -0.0141781 0)
(-0.0226439 -0.0165946 0)
(-0.019116 -0.0186654 0)
(-0.0152303 -0.020253 0)
(-0.0110798 -0.0214205 0)
(-0.00673473 -0.0221549 0)
(-0.00225867 -0.0223929 0)
(0.00225508 -0.0221011 0)
(0.00666205 -0.0213408 0)
(0.0108626 -0.0200863 0)
(0.0147946 -0.0183333 0)
(0.0183525 -0.0161185 0)
(0.0214557 -0.0134672 0)
(0.0240113 -0.0104291 0)
(0.0258943 -0.00705731 0)
(0.0270684 -0.00343427 0)
(0.0275442 0.000405795 0)
(0.027162 0.0043418 0)
(0.025918 0.00818831 0)
(0.0238435 0.0118521 0)
(0.0209751 0.0152316 0)
(0.0174245 0.0180991 0)
(0.0132251 0.0204408 0)
(0.00859698 0.0220902 0)
(0.00367135 0.0230855 0)
(-0.00139314 0.0233131 0)
(-0.00646736 0.0228604 0)
(-0.0113385 0.0216115 0)
(-0.0158688 0.0196903 0)
(-0.019894 0.0170895 0)
(-0.0232149 0.013973 0)
(-0.0257979 0.0104284 0)
(-0.027533 0.00660691 0)
(-0.0283955 0.00264596 0)
(-0.0284227 -0.00126247 0)
(-0.0276305 -0.00500212 0)
(-0.0260609 -0.00853088 0)
(-0.0238111 -0.0117211 0)
(-0.0209726 -0.0145196 0)
(-0.0176538 -0.0168809 0)
(-0.0139309 -0.0187575 0)
(-0.00990962 -0.0201591 0)
(-0.0057044 -0.0210585 0)
(-0.00134803 -0.0214587 0)
(0.00299617 -0.0213554 0)
(0.00724676 -0.020788 0)
(0.0112975 -0.0197257 0)
(0.0150547 -0.0182629 0)
(0.0185349 -0.0164487 0)
(0.0215939 -0.0141818 0)
(0.0241669 -0.0116478 0)
(0.0262234 -0.00880783 0)
(0.0277028 -0.0057621 0)
(0.0285215 -0.00251316 0)
(0.0286581 0.000775101 0)
(0.0281386 0.00402724 0)
(0.0269614 0.00714759 0)
(0.0251602 0.0100641 0)
(0.0228191 0.012701 0)
(0.0200175 0.0149757 0)
(0.01684 0.0168891 0)
(0.013379 0.0184123 0)
(0.00964707 0.019079 0)
(0.0064545 0.0178641 0)
(0.00264329 0.0236018 0)
(-0.00336292 0.0318802 0)
(-0.00798943 0.0239129 0)
(-0.0117222 0.0255891 0)
(-0.0162637 0.0248988 0)
(-0.0205416 0.0230643 0)
(-0.0245335 0.0207046 0)
(-0.0281355 0.0178499 0)
(-0.0311987 0.0145172 0)
(-0.0336294 0.0107061 0)
(-0.0353226 0.00661911 0)
(-0.0361864 0.00234771 0)
(-0.0361887 -0.00195258 0)
(-0.0353777 -0.00618794 0)
(-0.0337853 -0.0102079 0)
(-0.0314377 -0.0139079 0)
(-0.0284743 -0.0172348 0)
(-0.0249987 -0.0201479 0)
(-0.0210051 -0.0226257 0)
(-0.0166205 -0.0245369 0)
(-0.0119934 -0.0259655 0)
(-0.00712902 -0.0268152 0)
(-0.00208577 -0.0271136 0)
(0.00296845 -0.0267893 0)
(0.00790058 -0.025903 0)
(0.0126588 -0.0243952 0)
(0.0171184 -0.0223296 0)
(0.0211835 -0.0196937 0)
(0.0247541 -0.0165241 0)
(0.0277123 -0.0128613 0)
(0.0299628 -0.00882952 0)
(0.0314217 -0.00434074 0)
(0.0320505 0.000364601 0)
(0.0316695 0.0051939 0)
(0.0302831 0.00997697 0)
(0.0279666 0.0145217 0)
(0.0246523 0.0187273 0)
(0.0205081 0.0223216 0)
(0.0156311 0.0252607 0)
(0.0102237 0.0272977 0)
(0.00444672 0.0285543 0)
(-0.0015236 0.0288246 0)
(-0.00748069 0.0283075 0)
(-0.0132114 0.0267775 0)
(-0.0185424 0.0243601 0)
(-0.0232279 0.021151 0)
(-0.0270765 0.0171884 0)
(-0.0300605 0.0127552 0)
(-0.0320288 0.00799772 0)
(-0.0329521 0.00307528 0)
(-0.032834 -0.00176299 0)
(-0.0318027 -0.00638404 0)
(-0.0299312 -0.0106259 0)
(-0.0272642 -0.0144983 0)
(-0.0239522 -0.0178599 0)
(-0.0200949 -0.0206547 0)
(-0.0158376 -0.0228851 0)
(-0.0112909 -0.0245344 0)
(-0.00652632 -0.0255782 0)
(-0.00162591 -0.0260268 0)
(0.00325244 -0.0258757 0)
(0.0080286 -0.0251578 0)
(0.0125658 -0.0238947 0)
(0.016749 -0.0221271 0)
(0.0206698 -0.0199034 0)
(0.0241308 -0.017231 0)
(0.0270255 -0.0141408 0)
(0.0293566 -0.0107125 0)
(0.0310686 -0.00701061 0)
(0.0320342 -0.00311059 0)
(0.0321787 0.000944503 0)
(0.0315727 0.0049282 0)
(0.0302076 0.00875869 0)
(0.0281373 0.0123149 0)
(0.0254345 0.0154785 0)
(0.0222206 0.0182021 0)
(0.0186285 0.0204579 0)
(0.0147491 0.022226 0)
(0.0106159 0.0229013 0)
(0.00719823 0.0213792 0)
(0.00301095 0.0285525 0)
(-0.00390389 0.038093 0)
(-0.00899983 0.028096 0)
(-0.012931 0.03017 0)
(-0.0179079 0.0295672 0)
(-0.0226818 0.0275222 0)
(-0.0272345 0.0248114 0)
(-0.0313925 0.021472 0)
(-0.0350141 0.0174657 0)
(-0.0378495 0.0129258 0)
(-0.0397722 0.00799704 0)
(-0.0407667 0.00278822 0)
(-0.0407542 -0.00242806 0)
(-0.0397592 -0.00758406 0)
(-0.037845 -0.0123717 0)
(-0.0351229 -0.0168306 0)
(-0.0317261 -0.0207636 0)
(-0.027771 -0.0241656 0)
(-0.0232275 -0.0270613 0)
(-0.0182771 -0.0293555 0)
(-0.0130502 -0.0310358 0)
(-0.00755759 -0.0320612 0)
(-0.0018958 -0.0324152 0)
(0.0038121 -0.0320775 0)
(0.00941264 -0.0310315 0)
(0.014803 -0.0293078 0)
(0.0198841 -0.0269091 0)
(0.0245695 -0.0238301 0)
(0.0287236 -0.0201004 0)
(0.0321728 -0.0157944 0)
(0.0348958 -0.0109121 0)
(0.0367454 -0.00549912 0)
(0.0375661 0.000214135 0)
(0.0372589 0.00610266 0)
(0.0357301 0.0119681 0)
(0.0330819 0.0176251 0)
(0.0292403 0.0227955 0)
(0.0243911 0.0273309 0)
(0.0186123 0.0309335 0)
(0.012227 0.0335061 0)
(0.00539439 0.0350628 0)
(-0.00162084 0.0354339 0)
(-0.00865798 0.0347547 0)
(-0.0155197 0.0328448 0)
(-0.0217984 0.0298616 0)
(-0.027421 0.0258536 0)
(-0.0319952 0.0209476 0)
(-0.0353884 0.0154077 0)
(-0.0376217 0.00952602 0)
(-0.0385788 0.00348402 0)
(-0.0383158 -0.00243244 0)
(-0.0369168 -0.00810422 0)
(-0.0345784 -0.0132046 0)
(-0.0314259 -0.0178055 0)
(-0.0274889 -0.0217573 0)
(-0.0230155 -0.0250245 0)
(-0.0181255 -0.0276024 0)
(-0.0129039 -0.0294823 0)
(-0.00748819 -0.0306875 0)
(-0.00193194 -0.0311934 0)
(0.00358304 -0.0309771 0)
(0.00895549 -0.0300877 0)
(0.0140718 -0.0285803 0)
(0.0188023 -0.0264529 0)
(0.0231955 -0.0237984 0)
(0.0271304 -0.0206632 0)
(0.0304667 -0.0170284 0)
(0.0331385 -0.0129583 0)
(0.0350884 -0.00847891 0)
(0.0362676 -0.00378043 0)
(0.0364968 0.00110039 0)
(0.0357593 0.00596411 0)
(0.0341636 0.010616 0)
(0.031707 0.0148964 0)
(0.028541 0.0186912 0)
(0.0248203 0.0219166 0)
(0.0206923 0.0245189 0)
(0.0163099 0.0264874 0)
(0.0117316 0.0270868 0)
(0.00809747 0.0251423 0)
(0.00347093 0.0341204 0)
(-0.00458686 0.0451632 0)
(-0.0102318 0.0325083 0)
(-0.0142821 0.035087 0)
(-0.0197103 0.0347649 0)
(-0.0250844 0.0326026 0)
(-0.0303378 0.0295629 0)
(-0.0352515 0.0256825 0)
(-0.0395015 0.0209752 0)
(-0.0428365 0.0155571 0)
(-0.0451823 0.00954595 0)
(-0.0463226 0.00324019 0)
(-0.0462631 -0.00306318 0)
(-0.0450118 -0.00918596 0)
(-0.0427136 -0.0149856 0)
(-0.0394993 -0.0201973 0)
(-0.0354691 -0.0248342 0)
(-0.0309372 -0.028755 0)
(-0.0258161 -0.0321004 0)
(-0.0201965 -0.0348039 0)
(-0.0142771 -0.036746 0)
(-0.00806292 -0.0379841 0)
(-0.00164029 -0.0384295 0)
(0.00482322 -0.038056 0)
(0.0111524 -0.0368692 0)
(0.0172804 -0.0349171 0)
(0.0231233 -0.0321751 0)
(0.0285557 -0.0286401 0)
(0.0333901 -0.0243279 0)
(0.0375276 -0.0192817 0)
(0.0408988 -0.0134647 0)
(0.0432068 -0.00700507 0)
(0.0443336 -0.000181702 0)
(0.044109 0.00701983 0)
(0.0424937 0.014223 0)
(0.0394861 0.0211754 0)
(0.0350175 0.0275056 0)
(0.029277 0.0330954 0)
(0.0223778 0.037598 0)
(0.014793 0.0408341 0)
(0.00662495 0.042772 0)
(-0.00180339 0.0430929 0)
(-0.0102652 0.0424547 0)
(-0.0184329 0.0401288 0)
(-0.0259556 0.0364039 0)
(-0.0326219 0.0313536 0)
(-0.0380587 0.0253073 0)
(-0.0420621 0.0185016 0)
(-0.0445513 0.0112011 0)
(-0.0455143 0.00378789 0)
(-0.0450207 -0.00339685 0)
(-0.0431646 -0.0102226 0)
(-0.0402033 -0.0164329 0)
(-0.0363444 -0.0217776 0)
(-0.0316567 -0.0263753 0)
(-0.0263846 -0.03011 0)
(-0.0207116 -0.0330159 0)
(-0.0147714 -0.0351304 0)
(-0.00862368 -0.0364725 0)
(-0.00230039 -0.0370248 0)
(0.00398072 -0.0367563 0)
(0.0100666 -0.0356795 0)
(0.0158632 -0.0338362 0)
(0.021215 -0.0313554 0)
(0.0261565 -0.0282364 0)
(0.0306098 -0.0245692 0)
(0.0344556 -0.0203638 0)
(0.0376376 -0.0155539 0)
(0.0399816 -0.0102734 0)
(0.041355 -0.00453147 0)
(0.0416764 0.00129337 0)
(0.04085 0.00717242 0)
(0.0389122 0.0128196 0)
(0.0359985 0.0179818 0)
(0.0322504 0.0225168 0)
(0.0278318 0.0262588 0)
(0.0230063 0.029192 0)
(0.0179959 0.0312886 0)
(0.0129318 0.0316916 0)
(0.00919023 0.0292224 0)
(0.00408586 0.0404706 0)
(-0.0055362 0.0533275 0)
(-0.0118151 0.0372165 0)
(-0.0157004 0.0403211 0)
(-0.0215042 0.0404991 0)
(-0.0276307 0.038396 0)
(-0.0338366 0.0351682 0)
(-0.0396854 0.0307747 0)
(-0.0448279 0.0252464 0)
(-0.0489435 0.0186924 0)
(-0.0517327 0.0113901 0)
(-0.0530039 0.00374759 0)
(-0.0527943 -0.00393275 0)
(-0.0512753 -0.0112644 0)
(-0.0484332 -0.0180912 0)
(-0.0445277 -0.024168 0)
(-0.039825 -0.0295275 0)
(-0.0345538 -0.034039 0)
(-0.0287647 -0.0378497 0)
(-0.022384 -0.0409221 0)
(-0.0156587 -0.043227 0)
(-0.00863509 -0.0447202 0)
(-0.00133391 -0.0452581 0)
(0.00602543 -0.0448349 0)
(0.013221 -0.0434991 0)
(0.0201893 -0.0412993 0)
(0.0268904 -0.0382418 0)
(0.0331965 -0.034235 0)
(0.0389138 -0.0293575 0)
(0.0439009 -0.0234062 0)
(0.0480611 -0.0165649 0)
(0.0509567 -0.00893382 0)
(0.0525575 -0.000653143 0)
(0.0526435 0.0080139 0)
(0.0508901 0.016817 0)
(0.0473698 0.025406 0)
(0.0421223 0.0332848 0)
(0.0353729 0.0401095 0)
(0.0271364 0.0456496 0)
(0.0179904 0.0495631 0)
(0.00812068 0.0519347 0)
(-0.00175218 0.0525817 0)
(-0.0119588 0.051709 0)
(-0.0220428 0.0488668 0)
(-0.0311897 0.0443715 0)
(-0.0392211 0.0381461 0)
(-0.0456325 0.0306193 0)
(-0.0503424 0.0221315 0)
(-0.0532009 0.0130055 0)
(-0.0540497 0.00395426 0)
(-0.0531843 -0.00479817 0)
(-0.0507834 -0.0129812 0)
(-0.0469423 -0.0203583 0)
(-0.0421283 -0.0266521 0)
(-0.0365155 -0.0318767 0)
(-0.0302867 -0.0360009 0)
(-0.0237343 -0.0391724 0)
(-0.0169315 -0.0415177 0)
(-0.00994425 -0.0430453 0)
(-0.00276381 -0.0436694 0)
(0.00440573 -0.0433382 0)
(0.0113881 -0.0420075 0)
(0.0179424 -0.0397764 0)
(0.0239795 -0.0368951 0)
(0.0295797 -0.0332907 0)
(0.0346262 -0.0290731 0)
(0.0391256 -0.0242291 0)
(0.0428878 -0.0186241 0)
(0.0457852 -0.0123599 0)
(0.047525 -0.0055701 0)
(0.0479018 0.00150056 0)
(0.0469933 0.00860461 0)
(0.0446942 0.015475 0)
(0.0411465 0.0217371 0)
(0.0365704 0.027108 0)
(0.0312301 0.0314029 0)
(0.0255101 0.0346156 0)
(0.0197577 0.0366825 0)
(0.0142313 0.0366226 0)
(0.0104942 0.0336086 0)
(0.00484998 0.0477464 0)
(-0.00687217 0.0626352 0)
(-0.0140266 0.0422022 0)
(-0.0173522 0.0456592 0)
(-0.0232051 0.0468518 0)
(-0.0300976 0.0452285 0)
(-0.0375181 0.0419619 0)
(-0.044769 0.0370294 0)
(-0.0511574 0.0303797 0)
(-0.0562408 0.0224568 0)
(-0.0596514 0.0135451 0)
(-0.0611495 0.00424722 0)
(-0.0607549 -0.00508411 0)
(-0.0586314 -0.0139446 0)
(-0.055048 -0.021952 0)
(-0.0503269 -0.0290166 0)
(-0.0447041 -0.0350161 0)
(-0.0385943 -0.0401247 0)
(-0.0319872 -0.0443367 0)
(-0.0248153 -0.0478305 0)
(-0.0172684 -0.0505917 0)
(-0.00924301 -0.0523832 0)
(-0.000858847 -0.0530344 0)
(0.00752947 -0.0525061 0)
(0.0156705 -0.0509647 0)
(0.0235436 -0.048539 0)
(0.0312294 -0.0452283 0)
(0.0385288 -0.0408586 0)
(0.0453689 -0.0353823 0)
(0.0515169 -0.0285328 0)
(0.056631 -0.0206408 0)
(0.0604531 -0.0116869 0)
(0.0626879 -0.00189291 0)
(0.0630353 0.00849787 0)
(0.0613892 0.0191976 0)
(0.0574715 0.0295974 0)
(0.0512078 0.0394646 0)
(0.0429778 0.0481289 0)
(0.0329857 0.0550995 0)
(0.0218577 0.0601043 0)
(0.0099607 0.0628863 0)
(-0.0014291 0.0635713 0)
(-0.0137524 0.0629935 0)
(-0.0262956 0.0594902 0)
(-0.0375992 0.0536287 0)
(-0.0474862 0.0457038 0)
(-0.0553285 0.0363109 0)
(-0.060996 0.0259353 0)
(-0.064065 0.014775 0)
(-0.0646497 0.00371383 0)
(-0.0632309 -0.00689149 0)
(-0.0598946 -0.0165827 0)
(-0.0549536 -0.0252699 0)
(-0.0488761 -0.0325883 0)
(-0.0419739 -0.0383741 0)
(-0.0346182 -0.0428743 0)
(-0.0271395 -0.0462058 0)
(-0.019534 -0.0487448 0)
(-0.0116398 -0.050499 0)
(-0.00341513 -0.0512515 0)
(0.00487258 -0.0508347 0)
(0.0129071 -0.0491502 0)
(0.0203095 -0.0464714 0)
(0.0270866 -0.0430715 0)
(0.0334077 -0.0390494 0)
(0.0391443 -0.0343247 0)
(0.0444087 -0.0288478 0)
(0.0490407 -0.0224565 0)
(0.0526031 -0.0150735 0)
(0.0548166 -0.00698165 0)
(0.0554638 0.00165023 0)
(0.0544467 0.0103453 0)
(0.0516822 0.018693 0)
(0.0472908 0.0262226 0)
(0.0415857 0.0326194 0)
(0.0349799 0.0376324 0)
(0.0280203 0.0410586 0)
(0.0213212 0.0428102 0)
(0.0155728 0.0416591 0)
(0.0122227 0.038158 0)
(0.00589748 0.0560722 0)
(-0.00905093 0.0743113 0)
(-0.017689 0.0476207 0)
(-0.0196363 0.050427 0)
(-0.0245262 0.0538416 0)
(-0.0323183 0.0535331 0)
(-0.0415151 0.05047 0)
(-0.0507662 0.044814 0)
(-0.0588473 0.036851 0)
(-0.0651719 0.0270911 0)
(-0.069296 0.0161735 0)
(-0.0709539 0.00465583 0)
(-0.0702684 -0.00677151 0)
(-0.0673857 -0.0173564 0)
(-0.0627139 -0.0267828 0)
(-0.0567565 -0.0347664 0)
(-0.050048 -0.0413846 0)
(-0.0429518 -0.0469207 0)
(-0.0354975 -0.0515513 0)
(-0.0276109 -0.0555784 0)
(-0.0191351 -0.0589364 0)
(-0.00995519 -0.0611267 0)
(-0.000308658 -0.0618886 0)
(0.00926826 -0.0611614 0)
(0.0183786 -0.0593897 0)
(0.0271051 -0.0567343 0)
(0.0357092 -0.0532029 0)
(0.0441816 -0.0486367 0)
(0.0524652 -0.0424152 0)
(0.0600045 -0.03455 0)
(0.0664708 -0.0253233 0)
(0.0715512 -0.0146895 0)
(0.074842 -0.00288816 0)
(0.0759596 0.00994096 0)
(0.0743038 0.0232922 0)
(0.0699042 0.0365094 0)
(0.0628015 0.048595 0)
(0.0529132 0.0590268 0)
(0.0406877 0.0672556 0)
(0.026878 0.0730449 0)
(0.0125807 0.0757605 0)
(-0.00089432 0.076642 0)
(-0.0159658 0.0770925 0)
(-0.0319182 0.0731633 0)
(-0.0462055 0.06602 0)
(-0.0582338 0.0564838 0)
(-0.0674354 0.0448882 0)
(-0.074009 0.0316775 0)
(-0.0775014 0.0177193 0)
(-0.0776632 0.00412945 0)
(-0.0750783 -0.00930595 0)
(-0.0703385 -0.0211991 0)
(-0.0639068 -0.0314745 0)
(-0.056131 -0.0399229 0)
(-0.0476854 -0.046307 0)
(-0.039059 -0.0508435 0)
(-0.030608 -0.0541728 0)
(-0.0222647 -0.0568755 0)
(-0.0134891 -0.0589949 0)
(-0.0041196 -0.0600252 0)
(0.00549922 -0.0595735 0)
(0.0147648 -0.0573598 0)
(0.0230897 -0.0539194 0)
(0.0305305 -0.0498082 0)
(0.037506 -0.0452698 0)
(0.0440603 -0.0402993 0)
(0.0502657 -0.0343461 0)
(0.0559852 -0.0271612 0)
(0.0606326 -0.018595 0)
(0.0636591 -0.00885889 0)
(0.0646693 0.00172167 0)
(0.0635034 0.0123872 0)
(0.0600753 0.0225871 0)
(0.0546217 0.0318088 0)
(0.0475608 0.0396528 0)
(0.0392333 0.0455024 0)
(0.030465 0.0490237 0)
(0.0224182 0.0499571 0)
(0.017109 0.0463524 0)
(0.0150584 0.0431468 0)
(0.00771746 0.0657939 0)
(-0.0118028 0.0887659 0)
(-0.0229174 0.0527657 0)
(-0.0220032 0.0523741 0)
(-0.0247095 0.0608897 0)
(-0.0344582 0.0631609 0)
(-0.0465736 0.0609879 0)
(-0.0586049 0.0545917 0)
(-0.0688885 0.0449535 0)
(-0.0767076 0.0329183 0)
(-0.0816971 0.019399 0)
(-0.0835661 0.0051995 0)
(-0.0821369 -0.00853478 0)
(-0.0779479 -0.02136 0)
(-0.0717257 -0.0326408 0)
(-0.0641511 -0.0417466 0)
(-0.0560403 -0.0489469 0)
(-0.0478977 -0.054746 0)
(-0.0397454 -0.0598305 0)
(-0.0312669 -0.0645363 0)
(-0.0218771 -0.0686427 0)
(-0.0113223 -0.071388 0)
(-0.000129907 -0.0721147 0)
(0.0107038 -0.0709087 0)
(0.0207371 -0.0685808 0)
(0.0303602 -0.0656828 0)
(0.0399199 -0.0623645 0)
(0.0499078 -0.0580555 0)
(0.0601259 -0.0515234 0)
(0.0695085 -0.042922 0)
(0.0777243 -0.0325563 0)
(0.0845403 -0.0205663 0)
(0.0895221 -0.00700985 0)
(0.0920945 0.00779748 0)
(0.091441 0.023707 0)
(0.086558 0.0398655 0)
(0.0773296 0.0556238 0)
(0.0645866 0.0698455 0)
(0.0491338 0.0812213 0)
(0.032103 0.0884615 0)
(0.015722 0.0910497 0)
(-0.000423412 0.0926916 0)
(-0.0183308 0.094632 0)
(-0.0377946 0.0900217 0)
(-0.0558363 0.0800438 0)
(-0.071186 0.0664765 0)
(-0.0832293 0.0506886 0)
(-0.0912672 0.0334896 0)
(-0.0943545 0.0157857 0)
(-0.0936853 -0.000942957 0)
(-0.0898209 -0.0152052 0)
(-0.0831397 -0.0282167 0)
(-0.074716 -0.0397671 0)
(-0.0645669 -0.0493435 0)
(-0.0535249 -0.0559931 0)
(-0.0428902 -0.0598442 0)
(-0.0334385 -0.0626615 0)
(-0.024631 -0.0654549 0)
(-0.0151618 -0.0682815 0)
(-0.00451405 -0.0699826 0)
(0.00688439 -0.06993 0)
(0.0177982 -0.0671948 0)
(0.0270747 -0.0626206 0)
(0.0349807 -0.0574871 0)
(0.0421997 -0.0524212 0)
(0.0493907 -0.047201 0)
(0.0568857 -0.0408977 0)
(0.0641653 -0.0328453 0)
(0.0703247 -0.0226392 0)
(0.0746101 -0.0108476 0)
(0.0762782 0.0018901 0)
(0.0750083 0.0149224 0)
(0.0709693 0.0275137 0)
(0.0644315 0.0388424 0)
(0.055548 0.0483593 0)
(0.0447141 0.0552589 0)
(0.0332719 0.0585302 0)
(0.0224868 0.0578398 0)
(0.018721 0.0489918 0)
(0.0190574 0.0479844 0)
(0.00959734 0.0777081 0)
(-0.00865498 0.105562 0)
(-0.0256156 0.0590274 0)
(-0.0199779 0.0479805 0)
(-0.0175981 0.066135 0)
(-0.0339041 0.0766442 0)
(-0.0520746 0.0766601 0)
(-0.06902 0.0681578 0)
(-0.0825483 0.0551779 0)
(-0.0923799 0.0396911 0)
(-0.0982864 0.0223689 0)
(-0.0998108 0.00393682 0)
(-0.0974473 -0.0137522 0)
(-0.0919192 -0.0296457 0)
(-0.0834175 -0.0424256 0)
(-0.0733229 -0.0521408 0)
(-0.0632084 -0.0590155 0)
(-0.0538471 -0.0641162 0)
(-0.0451426 -0.0685956 0)
(-0.0361591 -0.0735373 0)