/*--------------------------------*- C++ -*----------------------------------*\
| =========                 |                                                 |
| \\      /  F ield         | OpenFOAM: The Open Source CFD Toolbox           |
|  \\    /   O peration     | Version:  2412                                  |
|   \\  /    A nd           | Website:  www.openfoam.com                      |
|    \\/     M anipulation  |                                                 |
\*---------------------------------------------------------------------------*/
FoamFile
{
    version     2.0;
    format      ascii;
    arch        "LSB;label=32;scalar=64";
    class       surfaceScalarField;
    location    "5.4";
    object      alphaPhi0.oil;
}
// * * * * * * * * * * * * * * * * * * * * * * * * * * * * * * * * * * * * * //

dimensions      [0 3 -1 0 0 0 0];

oriented        oriented;

internalField   nonuniform List<scalar> 
12640
(
5.98375e-08
-5.9905e-08
1.07511e-07
-4.68298e-08
9.13601e-08
1.68231e-08
3.8343e-09
8.80519e-08
-1.43344e-07
1.47755e-07
-3.3311e-07
1.89932e-07
-5.47735e-07
2.14471e-07
-7.71939e-07
2.24095e-07
-9.94243e-07
2.22156e-07
-1.20669e-06
2.12081e-07
-1.40431e-06
1.97051e-07
-1.58427e-06
1.79256e-07
-1.74547e-06
1.60384e-07
-1.88808e-06
1.41625e-07
-2.01284e-06
1.23499e-07
-2.12046e-06
1.06126e-07
-2.21156e-06
8.9548e-08
-2.28669e-06
7.37631e-08
-2.34636e-06
5.85788e-08
-2.39091e-06
4.3713e-08
-2.42047e-06
2.88966e-08
-2.43503e-06
1.39949e-08
-2.43444e-06
-1.06396e-09
-2.41848e-06
-1.63223e-08
-2.38693e-06
-3.18243e-08
-2.3395e-06
-4.76111e-08
-2.27588e-06
-6.3713e-08
-2.19576e-06
-8.01493e-08
-2.09884e-06
-9.68737e-08
-1.9849e-06
-1.13795e-07
-1.85391e-06
-1.30746e-07
-1.70602e-06
-1.47523e-07
-1.54166e-06
-1.63874e-07
-1.36157e-06
-1.79473e-07
-1.16687e-06
-1.93963e-07
-9.59102e-07
-2.06917e-07
-7.40193e-07
-2.17947e-07
-5.12424e-07
-2.2671e-07
-2.78422e-07
-2.32862e-07
-4.11222e-08
-2.36096e-07
1.96444e-07
-2.36313e-07
4.31257e-07
-2.33524e-07
6.60297e-07
-2.27728e-07
8.80851e-07
-2.19231e-07
1.09043e-06
-2.08264e-07
1.28678e-06
-1.95048e-07
1.46813e-06
-1.8007e-07
1.63315e-06
-1.63772e-07
1.78099e-06
-1.46636e-07
1.91122e-06
-1.2908e-07
2.02359e-06
-1.11311e-07
2.11817e-06
-9.36022e-08
2.19523e-06
-7.61857e-08
2.25512e-06
-5.91242e-08
2.29829e-06
-4.24904e-08
2.32522e-06
-2.63698e-08
2.33639e-06
-1.07226e-08
2.33227e-06
4.46563e-09
2.31325e-06
1.92636e-08
2.27968e-06
3.37146e-08
2.2318e-06
4.79261e-08
2.1697e-06
6.20646e-08
2.09325e-06
7.63111e-08
2.00217e-06
9.08627e-08
1.89598e-06
1.05903e-07
1.77405e-06
1.21605e-07
1.63567e-06
1.38036e-07
1.48036e-06
1.54958e-07
1.30815e-06
1.71845e-07
1.12006e-06
1.87716e-07
9.1866e-07
2.01003e-07
7.08711e-07
2.09513e-07
4.97835e-07
2.10383e-07
2.96949e-07
2.00294e-07
1.20275e-07
1.75924e-07
-1.56327e-08
1.3494e-07
-9.45257e-08
7.76972e-08
-1.06096e-07
1.02276e-08
-5.79966e-08
-4.94593e-08
-5.92323e-08
4.85431e-08
-1.07525e-07
2.64027e-08
-2.34328e-08
-1.44004e-07
1.88626e-07
-4.72726e-07
4.17496e-07
-9.35578e-07
6.11055e-07
-1.49544e-06
7.49996e-07
-2.11307e-06
8.32069e-07
-2.75336e-06
8.6418e-07
-3.38847e-06
8.56751e-07
-3.99803e-06
8.20782e-07
-4.56838e-06
7.66243e-07
-5.09118e-06
7.0068e-07
-5.56239e-06
6.29995e-07
-5.98095e-06
5.58397e-07
-6.34748e-06
4.88085e-07
-6.66311e-06
4.19717e-07
-6.92898e-06
3.53387e-07
-7.14613e-06
2.89045e-07
-7.31545e-06
2.26272e-07
-7.43753e-06
1.64459e-07
-7.51263e-06
1.02942e-07
-7.54067e-06
4.12318e-08
-7.52135e-06
-2.09926e-08
-7.45419e-06
-8.39232e-08
-7.33867e-06
-1.47656e-07
-7.17427e-06
-2.12218e-07
-6.9605e-06
-2.77587e-07
-6.69695e-06
-3.43699e-07
-6.38334e-06
-4.10357e-07
-6.01966e-06
-4.77202e-07
-5.60628e-06
-5.43659e-07
-5.14418e-06
-6.08973e-07
-4.63504e-06
-6.72165e-07
-4.08141e-06
-7.32059e-07
-3.48682e-06
-7.87333e-07
-2.85582e-06
-8.36535e-07
-2.19399e-06
-8.78255e-07
-1.50785e-06
-9.11196e-07
-8.04776e-07
-9.34185e-07
-9.27812e-08
-9.46252e-07
6.1972e-07
-9.46915e-07
1.3243e-06
-9.36166e-07
2.01275e-06
-9.14223e-07
2.67739e-06
-8.81923e-07
3.31124e-06
-8.40185e-07
3.90811e-06
-7.90025e-07
4.46281e-06
-7.32941e-07
4.9713e-06
-6.7051e-07
5.43073e-06
-6.04413e-07
5.8393e-06
-5.36111e-07
6.19605e-06
-4.66646e-07
6.50064e-06
-3.96933e-07
6.75327e-06
-3.27711e-07
6.95456e-06
-2.59471e-07
7.10531e-06
-1.92444e-07
7.20642e-06
-1.26862e-07
7.25897e-06
-6.28012e-08
7.26397e-06
-2.29226e-10
7.22239e-06
6.10031e-08
7.13513e-06
1.21008e-07
7.00281e-06
1.80162e-07
6.82576e-06
2.38923e-07
6.60392e-06
2.97866e-07
6.33686e-06
3.57564e-07
6.0238e-06
4.18555e-07
5.66376e-06
4.81197e-07
5.25586e-06
5.45483e-07
4.79992e-06
6.10454e-07
4.29728e-06
6.74039e-07
3.75187e-06
7.3266e-07
3.17144e-06
7.80919e-07
2.5689e-06
8.11433e-07
1.96359e-06
8.14892e-07
1.38187e-06
7.8095e-07
8.56593e-07
6.99763e-07
4.24578e-07
5.65131e-07
1.2063e-07
3.79509e-07
-3.35559e-08
1.62136e-07
-4.90924e-08
-3.60701e-08
-1.08632e-07
-1.34288e-08
-9.32129e-08
-1.82317e-07
1.46193e-07
-5.64633e-07
5.71812e-07
-1.16019e-06
1.01358e-06
-1.93422e-06
1.38561e-06
-2.83713e-06
1.65318e-06
-3.8164e-06
1.81141e-06
-4.8243e-06
1.87214e-06
-5.82197e-06
1.85438e-06
-6.7803e-06
1.7789e-06
-7.67899e-06
1.66464e-06
-8.50501e-06
1.52646e-06
-9.2513e-06
1.37614e-06
-9.91514e-06
1.22211e-06
-1.04965e-05
1.06911e-06
-1.09963e-05
9.18934e-07
-1.14159e-05
7.72075e-07
-1.17563e-05
6.28534e-07
-1.20186e-05
4.87712e-07
-1.22034e-05
3.48601e-07
-1.23109e-05
2.10049e-07
-1.2341e-05
7.11356e-08
-1.22933e-05
-6.87523e-08
-1.21672e-05
-2.09955e-07
-1.19622e-05
-3.5257e-07
-1.16778e-05
-4.96536e-07
-1.13136e-05
-6.41693e-07
-1.08695e-05
-7.87783e-07
-1.03453e-05
-9.34375e-07
-9.74166e-06
-1.08071e-06
-9.05949e-06
-1.22561e-06
-8.30068e-06
-1.36749e-06
-7.46822e-06
-1.50427e-06
-6.56636e-06
-1.63351e-06
-5.60083e-06
-1.75239e-06
-4.57888e-06
-1.85797e-06
-3.50927e-06
-1.94731e-06
-2.40223e-06
-2.01764e-06
-1.26922e-06
-2.06658e-06
-1.22627e-07
-2.09221e-06
1.02461e-06
-2.0935e-06
2.15942e-06
-2.07033e-06
3.26911e-06
-2.02327e-06
4.34175e-06
-1.95395e-06
5.36642e-06
-1.86429e-06
6.33354e-06
-1.75664e-06
7.23501e-06
-1.63396e-06
8.06437e-06
-1.49948e-06
8.81689e-06
-1.3566e-06
9.4894e-06
-1.20835e-06
1.00801e-05
-1.05711e-06
1.0588e-05
-9.04765e-07
1.10132e-05
-7.52799e-07
1.1356e-05
-6.02298e-07
1.16173e-05
-4.53898e-07
1.17983e-05
-3.08036e-07
1.19003e-05
-1.64954e-07
1.19245e-05
-2.46997e-08
1.18724e-05
1.12896e-07
1.1745e-05
2.48093e-07
1.15434e-05
3.81525e-07
1.12681e-05
5.14013e-07
1.09192e-05
6.46558e-07
1.04964e-05
7.80179e-07
9.99901e-06
9.15795e-07
9.42614e-06
1.0539e-06
8.77737e-06
1.19415e-06
8.05338e-06
1.33439e-06
7.2572e-06
1.47021e-06
6.39559e-06
1.5943e-06
5.48063e-06
1.69589e-06
4.53146e-06
1.76054e-06
3.57571e-06
1.77047e-06
2.65001e-06
1.70628e-06
1.79907e-06
1.5501e-06
1.07218e-06
1.29127e-06
5.15991e-07
9.34929e-07
1.61981e-07
5.15472e-07
9.22582e-09
1.16284e-07
-9.88112e-08
-8.45369e-08
-7.9569e-09
-4.15031e-07
4.77697e-07
-1.01782e-06
1.1756e-06
-1.87459e-06
1.87106e-06
-2.93775e-06
2.44957e-06
-4.14727e-06
2.86332e-06
-5.44133e-06
3.10599e-06
-6.76379e-06
3.19526e-06
-8.06853e-06
3.15986e-06
-9.32067e-06
3.03168e-06
-1.04954e-05
2.83996e-06
-1.15763e-05
2.60805e-06
-1.25538e-05
2.35455e-06
-1.34235e-05
2.09303e-06
-1.41845e-05
1.83145e-06
-1.48377e-05
1.57326e-06
-1.53844e-05
1.3195e-06
-1.58258e-05
1.07023e-06
-1.61625e-05
8.24667e-07
-1.63953e-05
5.8149e-07
-1.65242e-05
3.39113e-07
-1.6549e-05
9.62363e-08
-1.64695e-05
-1.48017e-07
-1.62852e-05
-3.94106e-07
-1.59955e-05
-6.42091e-07
-1.56001e-05
-8.91766e-07
-1.5099e-05
-1.14276e-06
-1.44923e-05
-1.39456e-06
-1.37805e-05
-1.64641e-06
-1.29644e-05
-1.89706e-06
-1.20458e-05
-2.14467e-06
-1.10272e-05
-2.38659e-06
-9.91258e-06
-2.61941e-06
-8.7077e-06
-2.83901e-06
-7.42001e-06
-3.04078e-06
-6.05901e-06
-3.21975e-06
-4.63619e-06
-3.37096e-06
-3.16491e-06
-3.48982e-06
-1.66003e-06
-3.57238e-06
-1.37641e-07
-3.61556e-06
1.38551e-06
-3.61765e-06
2.89247e-06
-3.5783e-06
4.36667e-06
-3.49851e-06
5.7925e-06
-3.38085e-06
7.15577e-06
-3.22866e-06
8.44408e-06
-3.04608e-06
9.64693e-06
-2.83799e-06
1.07559e-05
-2.60967e-06
1.17647e-05
-2.36662e-06
1.2669e-05
-2.11389e-06
1.34662e-05
-1.85552e-06
1.4155e-05
-1.59472e-06
1.4735e-05
-1.33391e-06
1.52064e-05
-1.0748e-06
1.557e-05
-8.18573e-07
1.5827e-05
-5.65994e-07
1.59786e-05
-3.17482e-07
1.60264e-05
-7.32188e-08
1.59718e-05
1.66936e-07
1.5816e-05
4.03387e-07
1.55602e-05
6.36981e-07
1.52052e-05
8.68861e-07
1.47514e-05
1.10043e-06
1.41986e-05
1.33315e-06
1.35464e-05
1.56828e-06
1.27944e-05
1.80635e-06
1.19427e-05
2.04643e-06
1.09928e-05
2.28489e-06
9.94935e-06
2.51449e-06
8.82109e-06
2.72344e-06
7.62325e-06
2.89466e-06
6.37925e-06
3.00549e-06
5.12223e-06
3.02839e-06
3.89567e-06
2.93366e-06
2.75213e-06
2.69432e-06
1.74979e-06
2.29424e-06
9.45313e-07
1.7402e-06
3.823e-07
1.07949e-06
7.63845e-08
4.23403e-07
-2.1235e-08
-1.47867e-07
1.40296e-07
-6.26599e-07
9.57141e-07
-1.43212e-06
1.98183e-06
-2.52544e-06
2.96493e-06
-3.84481e-06
3.76967e-06
-5.31997e-06
4.33917e-06
-6.88145e-06
4.6681e-06
-8.46705e-06
4.78169e-06
-1.00257e-05
4.71952e-06
-1.15187e-05
4.52571e-06
-1.29187e-05
4.24071e-06
-1.42069e-05
3.89714e-06
-1.53721e-05
3.52095e-06
-1.64087e-05
3.13132e-06
-1.7315e-05
2.73991e-06
-1.80916e-05
2.35215e-06
-1.87398e-05
1.96974e-06
-1.92607e-05
1.59279e-06
-1.96551e-05
1.22029e-06
-1.99232e-05
8.50676e-07
-2.00653e-05
4.82073e-07
-2.00812e-05
1.12876e-07
-1.99706e-05
-2.57964e-07
-1.97331e-05
-6.30959e-07
-1.93685e-05
-1.0061e-06
-1.88768e-05
-1.38299e-06
-1.82582e-05
-1.76101e-06
-1.75133e-05
-2.13934e-06
-1.66429e-05
-2.51683e-06
-1.56484e-05
-2.89177e-06
-1.45318e-05
-3.26164e-06
-1.32962e-05
-3.62269e-06
-1.19464e-05
-3.96997e-06
-1.04888e-05
-4.29742e-06
-8.93245e-06
-4.59818e-06
-7.2885e-06
-4.86487e-06
-5.57074e-06
-5.09003e-06
-3.79511e-06
-5.26688e-06
-1.97939e-06
-5.38962e-06
-1.42748e-07
-5.45382e-06
1.69481e-06
-5.45689e-06
3.51303e-06
-5.39826e-06
5.29205e-06
-5.27931e-06
7.01312e-06
-5.10374e-06
8.65923e-06
-4.87664e-06
1.02156e-05
-4.60437e-06
1.16698e-05
-4.29417e-06
1.30119e-05
-3.95382e-06
1.42345e-05
-3.59131e-06
1.53325e-05
-3.21399e-06
1.63028e-05
-2.82789e-06
1.71439e-05
-2.43773e-06
1.7855e-05
-2.04699e-06
1.84365e-05
-1.65807e-06
1.88889e-05
-1.27264e-06
1.92131e-05
-8.91783e-07
1.94104e-05
-5.16148e-07
1.9482e-05
-1.46067e-07
1.94294e-05
2.18516e-07
1.92539e-05
5.78043e-07
1.89567e-05
9.33506e-07
1.85389e-05
1.28631e-06
1.8001e-05
1.63818e-06
1.73433e-05
1.99095e-06
1.65658e-05
2.3461e-06
1.56685e-05
2.70416e-06
1.4652e-05
3.06356e-06
1.35186e-05
3.41908e-06
1.22736e-05
3.76035e-06
1.09273e-05
4.07074e-06
9.49682e-06
4.3263e-06
8.00815e-06
4.49536e-06
6.4981e-06
4.53975e-06
5.01476e-06
4.41839e-06
3.61663e-06
4.09395e-06
2.36934e-06
3.54322e-06
1.33919e-06
2.77226e-06
5.83136e-07
1.83758e-06
1.3661e-07
8.71929e-07
1.16446e-07
-1.98794e-07
3.39566e-07
-8.03029e-07
1.56168e-06
-1.78375e-06
2.96302e-06
-3.08247e-06
4.26399e-06
-4.62301e-06
5.31074e-06
-6.32476e-06
6.04146e-06
-8.11116e-06
6.45497e-06
-9.9152e-06
6.58622e-06
-1.1682e-05
6.48712e-06
-1.33706e-05
6.21507e-06
-1.49519e-05
5.82247e-06
-1.64064e-05
5.35181e-06
-1.77219e-05
4.83669e-06
-1.8892e-05
4.30209e-06
-1.99144e-05
3.76364e-06
-2.07893e-05
3.22886e-06
-2.1518e-05
2.70026e-06
-2.21014e-05
2.17787e-06
-2.25402e-05
1.66052e-06
-2.28348e-05
1.14632e-06
-2.29851e-05
6.33231e-07
-2.29909e-05
1.19476e-07
-2.28522e-05
-3.96055e-07
-2.25688e-05
-9.13833e-07
-2.21406e-05
-1.43371e-06
-2.15681e-05
-1.95504e-06
-2.08518e-05
-2.47692e-06
-1.99927e-05
-2.99819e-06
-1.8992e-05
-3.51736e-06
-1.78514e-05
-4.03232e-06
-1.65733e-05
-4.54e-06
-1.51607e-05
-5.03557e-06
-1.36187e-05
-5.51243e-06
-1.19544e-05
-5.96234e-06
-1.01775e-05
-6.37579e-06
-8.30067e-06
-6.74249e-06
-6.3395e-06
-7.05212e-06
-4.31212e-06
-7.29526e-06
-2.23885e-06
-7.46399e-06
-1.41572e-07
-7.55224e-06
1.95683e-06
-7.55648e-06
4.03321e-06
-7.47586e-06
6.06482e-06
-7.31216e-06
8.03017e-06
-7.07034e-06
9.9098e-06
-6.75752e-06
1.16868e-05
-6.38259e-06
1.33471e-05
-5.95579e-06
1.48797e-05
-5.48779e-06
1.62765e-05
-4.98956e-06
1.75322e-05
-4.47111e-06
1.86436e-05
-3.94069e-06
1.9609e-05
-3.40458e-06
2.0428e-05
-2.86728e-06
2.11005e-05
-2.33183e-06
2.1627e-05
-1.80028e-06
2.20081e-05
-1.27397e-06
2.22448e-05
-7.5377e-07
2.23381e-05
-2.40194e-07
2.22893e-05
2.66623e-07
2.20997e-05
7.67085e-07
2.17705e-05
1.26221e-06
2.1303e-05
1.7535e-06
2.06981e-05
2.24293e-06
1.99565e-05
2.73258e-06
1.90788e-05
3.22413e-06
1.80652e-05
3.71808e-06
1.69169e-05
4.21232e-06
1.56366e-05
4.69999e-06
1.42298e-05
5.16774e-06
1.27075e-05
5.5938e-06
1.10876e-05
5.94702e-06
9.39772e-06
6.18616e-06
7.67698e-06
6.26157e-06
5.97683e-06
6.11976e-06
4.36069e-06
5.71151e-06
2.90122e-06
5.00437e-06
1.67441e-06
4.00087e-06
7.51064e-07
2.76267e-06
1.85603e-07
1.43887e-06
3.02052e-07
-2.3844e-07
5.78379e-07
-9.46509e-07
2.26951e-06
-2.07641e-06
4.09295e-06
-3.55236e-06
5.73981e-06
-5.28414e-06
7.04249e-06
-7.18059e-06
7.93798e-06
-9.15816e-06
8.43256e-06
-1.11456e-05
8.57344e-06
-1.30851e-05
8.42667e-06
-1.49339e-05
8.06419e-06
-1.66623e-05
7.5509e-06
-1.8251e-05
6.93972e-06
-1.96875e-05
6.27199e-06
-2.09653e-05
5.57866e-06
-2.20816e-05
4.87928e-06
-2.30364e-05
4.18352e-06
-2.38305e-05
3.49461e-06
-2.44648e-05
2.81253e-06
-2.49398e-05
2.1358e-06
-2.52557e-05
1.46229e-06
-2.54123e-05
7.89802e-07
-2.54094e-05
1.16516e-07
-2.52469e-05
-5.58625e-07
-2.49249e-05
-1.23591e-06
-2.44436e-05
-1.91493e-06
-2.38039e-05
-2.59472e-06
-2.30068e-05
-3.27399e-06
-2.20535e-05
-3.9513e-06
-2.09459e-05
-4.62486e-06
-1.96858e-05
-5.29234e-06
-1.82753e-05
-5.95032e-06
-1.67178e-05
-6.59306e-06
-1.50178e-05
-7.21233e-06
-1.31826e-05
-7.79745e-06
-1.12225e-05
-8.33583e-06
-9.15105e-06
-8.81379e-06
-6.98541e-06
-9.2176e-06
-4.74572e-06
-9.53477e-06
-2.45462e-06
-9.7549e-06
-1.36598e-07
-9.87003e-06
2.18281e-06
-9.87562e-06
4.47773e-06
-9.77045e-06
6.72285e-06
-9.55689e-06
8.89415e-06
-9.24117e-06
1.09698e-05
-8.83263e-06
1.29309e-05
-8.34308e-06
1.47621e-05
-7.78628e-06
1.64514e-05
-7.17653e-06
1.79908e-05
-6.52826e-06
1.93748e-05
-5.85456e-06
2.06008e-05
-5.16607e-06
2.16675e-05
-4.47066e-06
2.25745e-05
-3.77362e-06
2.33218e-05
-3.07838e-06
2.39094e-05
-2.38721e-06
2.43377e-05
-1.70161e-06
2.46073e-05
-1.02263e-06
2.47189e-05
-3.51042e-07
2.46734e-05
3.12714e-07
2.44723e-05
9.6884e-07
2.41167e-05
1.61823e-06
2.36082e-05
2.26236e-06
2.29482e-05
2.90327e-06
2.2138e-05
3.54321e-06
2.11785e-05
4.18396e-06
2.00708e-05
4.82614e-06
1.88162e-05
5.46722e-06
1.74174e-05
6.09908e-06
1.58799e-05
6.70542e-06
1.42144e-05
7.25946e-06
1.2439e-05
7.7225e-06
1.0582e-05
8.04326e-06
8.684e-06
8.15981e-06
6.79907e-06
8.00503e-06
4.99511e-06
7.51597e-06
3.35163e-06
6.64854e-06
1.95449e-06
5.39859e-06
8.88288e-07
3.82923e-06
2.23725e-07
2.10332e-06
5.24453e-07
-2.70441e-07
8.48752e-07
-1.06742e-06
3.06563e-06
-2.32882e-06
5.3538e-06
-3.96293e-06
7.37319e-06
-5.86568e-06
8.94451e-06
-7.93519e-06
1.0007e-05
-1.00806e-05
1.05777e-05
-1.22269e-05
1.0719e-05
-1.4314e-05
1.05132e-05
-1.6298e-05
1.00482e-05
-1.81491e-05
9.40225e-06
-1.98485e-05
8.63874e-06
-2.13849e-05
7.80707e-06
-2.2752e-05
6.94392e-06
-2.39472e-05
6.0726e-06
-2.497e-05
5.20478e-06
-2.58208e-05
4.34423e-06
-2.64999e-05
3.49079e-06
-2.70076e-05
2.6426e-06
-2.73435e-05
1.79736e-06
-2.75072e-05
9.52762e-07
-2.74985e-05
1.07036e-07
-2.73172e-05
-7.40693e-07
-2.69633e-05
-1.59039e-06
-2.64375e-05
-2.44119e-06
-2.5741e-05
-3.29161e-06
-2.48752e-05
-4.1399e-06
-2.38423e-05
-4.9843e-06
-2.26442e-05
-5.82289e-06
-2.1283e-05
-6.65335e-06
-1.97608e-05
-7.47223e-06
-1.80803e-05
-8.27327e-06
-1.62456e-05
-9.04665e-06
-1.42634e-05
-9.77908e-06
-1.21442e-05
-1.04544e-05
-9.9024e-06
-1.10548e-05
-7.55652e-06
-1.15626e-05
-5.12872e-06
-1.19616e-05
-2.644e-06
-1.22385e-05
-1.29403e-07
-1.23835e-05
2.38686e-06
-1.23906e-05
4.87629e-06
-1.22586e-05
7.31096e-06
-1.19902e-05
9.66439e-06
-1.15931e-05
1.19124e-05
-1.1079e-05
1.40342e-05
-1.04631e-05
1.60129e-05
-9.76309e-06
1.78361e-05
-8.99783e-06
1.94959e-05
-8.18601e-06
2.09877e-05
-7.34425e-06
2.23094e-05
-6.48575e-06
2.34606e-05
-5.61976e-06
2.44412e-05
-4.75208e-06
2.52511e-05
-3.88609e-06
2.589e-05
-3.02395e-06
2.63577e-05
-2.1672e-06
2.66543e-05
-1.31709e-06
2.67801e-05
-4.74793e-07
2.6736e-05
3.58802e-07
2.65231e-05
1.18347e-06
2.61431e-05
1.99977e-06
2.55978e-05
2.80895e-06
2.48892e-05
3.61293e-06
2.40193e-05
4.41393e-06
2.299e-05
5.21396e-06
2.18028e-05
6.01378e-06
2.04595e-05
6.81088e-06
1.89623e-05
7.59635e-06
1.73163e-05
8.35132e-06
1.55312e-05
9.04421e-06
1.36249e-05
9.62855e-06
1.16253e-05
1.00425e-05
9.57364e-06
1.02111e-05
7.52626e-06
1.00521e-05
5.55517e-06
9.48681e-06
3.74679e-06
8.45676e-06
2.19718e-06
6.94772e-06
1.00442e-06
5.02124e-06
2.53437e-07
2.85299e-06
7.76726e-07
-2.99363e-07
1.14765e-06
-1.18008e-06
3.94502e-06
-2.56727e-06
6.74003e-06
-4.35287e-06
9.15776e-06
-6.4181e-06
1.10086e-05
-8.64995e-06
1.22378e-05
-1.095e-05
1.28776e-05
-1.32397e-05
1.3008e-05
-1.54578e-05
1.27306e-05
-1.75601e-05
1.21508e-05
-1.95173e-05
1.13607e-05
-2.13118e-05
1.04345e-05
-2.29338e-05
9.42971e-06
-2.43784e-05
8.38836e-06
-2.56434e-05
7.33702e-06
-2.67279e-05
6.28884e-06
-2.76318e-05
5.24779e-06
-2.83546e-05
4.21335e-06
-2.88955e-05
3.18329e-06
-2.92535e-05
2.15519e-06
-2.94278e-05
1.12684e-06
-2.94176e-05
9.66539e-08
-2.92225e-05
-9.35958e-07
-2.88425e-05
-1.97046e-06
-2.82784e-05
-3.00529e-06
-2.75318e-05
-4.03816e-06
-2.6605e-05
-5.06657e-06
-2.55007e-05
-6.08839e-06
-2.42216e-05
-7.10173e-06
-2.277e-05
-8.10467e-06
-2.11476e-05
-9.09424e-06
-1.93564e-05
-1.00642e-05
-1.73993e-05
-1.10035e-05
-1.52823e-05
-1.18958e-05
-1.30154e-05
-1.27209e-05
-1.0614e-05
-1.34559e-05
-8.09807e-06
-1.40782e-05
-5.49189e-06
-1.45674e-05
-2.823e-06
-1.49071e-05
-1.21146e-07
-1.5085e-05
2.58272e-06
-1.50942e-05
5.25731e-06
-1.49329e-05
7.87201e-06
-1.46046e-05
1.03977e-05
-1.41186e-05
1.28077e-05
-1.34888e-05
1.50792e-05
-1.27342e-05
1.71937e-05
-1.18772e-05
1.91386e-05
-1.09422e-05
2.09063e-05
-9.95305e-06
2.24935e-05
-8.93078e-06
2.38997e-05
-7.89118e-06
2.51253e-05
-6.84455e-06
2.61708e-05
-5.79659e-06
2.70358e-05
-4.75007e-06
2.77196e-05
-3.70661e-06
2.82211e-05
-2.66755e-06
2.85397e-05
-1.6345e-06
2.86755e-05
-6.09276e-07
2.86292e-05
4.06505e-07
2.84021e-05
1.41193e-06
2.79963e-05
2.40694e-06
2.7414e-05
3.39233e-06
2.66582e-05
4.36963e-06
2.57321e-05
5.34082e-06
2.46387e-05
6.30804e-06
2.33804e-05
7.27249e-06
2.19593e-05
8.23231e-06
2.03773e-05
9.17851e-06
1.86382e-05
1.00905e-05
1.67503e-05
1.0932e-05
1.47298e-05
1.1649e-05
1.26039e-05
1.21684e-05
1.04137e-05
1.24014e-05
8.21665e-06
1.22491e-05
6.08872e-06
1.16148e-05
4.12328e-06
1.04223e-05
2.42721e-06
8.64361e-06
1.11256e-06
6.33568e-06
2.79388e-07
3.6856e-06
1.05733e-06
-3.30335e-07
1.47731e-06
-1.3009e-06
4.91412e-06
-2.82205e-06
8.2601e-06
-4.76609e-06
1.11009e-05
-6.99711e-06
1.32388e-05
-9.38999e-06
1.46296e-05
-1.1839e-05
1.53266e-05
-1.42626e-05
1.54315e-05
-1.66e-05
1.50676e-05
-1.88081e-05
1.43591e-05
-2.08594e-05
1.34133e-05
-2.27377e-05
1.23153e-05
-2.44357e-05
1.11303e-05
-2.59503e-05
9.90515e-06
-2.72803e-05
8.66886e-06
-2.84249e-05
7.43511e-06
-2.93827e-05
6.20732e-06
-3.01517e-05
4.98413e-06
-3.07298e-05
3.76301e-06
-3.11149e-05
2.54167e-06
-3.1305e-05
1.31833e-06
-3.12989e-05
9.17883e-08
-3.10955e-05
-1.13819e-06
-3.06944e-05
-2.37041e-06
-3.00963e-05
-3.60226e-06
-2.93033e-05
-4.83014e-06
-2.83186e-05
-6.05036e-06
-2.7146e-05
-7.26013e-06
-2.57893e-05
-8.45774e-06
-2.4251e-05
-9.64228e-06
-2.25328e-05
-1.08121e-05
-2.06349e-05
-1.19617e-05
-1.85589e-05
-1.30794e-05
-1.63093e-05
-1.41457e-05
-1.38957e-05
-1.51348e-05
-1.13343e-05
-1.60179e-05
-8.64688e-06
-1.67662e-05
-5.86023e-06
-1.73548e-05
-3.00475e-06
-1.77634e-05
-1.13086e-07
-1.79777e-05
2.78089e-06
-1.79894e-05
5.64303e-06
-1.77963e-05
8.43988e-06
-1.7403e-05
1.11394e-05
-1.68198e-05
1.37123e-05
-1.60634e-05
1.61329e-05
-1.51568e-05
1.83815e-05
-1.41276e-05
2.04445e-05
-1.3007e-05
2.23154e-05
-1.18257e-05
2.39929e-05
-1.061e-05
2.54785e-05
-9.37844e-06
2.67742e-05
-8.14177e-06
2.78808e-05
-6.9046e-06
2.87977e-05
-5.66824e-06
2.95231e-05
-4.43319e-06
3.00549e-05
-3.20046e-06
3.03917e-05
-1.9722e-06
3.0533e-05
-7.5139e-07
3.04798e-05
4.59214e-07
3.02339e-05
1.65762e-06
2.97979e-05
2.84296e-06
2.9175e-05
4.01521e-06
2.83695e-05
5.1752e-06
2.73861e-05
6.32433e-06
2.62296e-05
7.46463e-06
2.49041e-05
8.59811e-06
2.34122e-05
9.72442e-06
2.1755e-05
1.08358e-05
1.99346e-05
1.19111e-05
1.79567e-05
1.29101e-05
1.5835e-05
1.3771e-05
1.35943e-05
1.44097e-05
1.12744e-05
1.4722e-05
8.93323e-06
1.45911e-05
6.64936e-06
1.38995e-05
4.52317e-06
1.25493e-05
2.67339e-06
1.04941e-05
1.22845e-06
7.78173e-06
3.08732e-07
4.6069e-06
1.36895e-06
-3.69234e-07
1.84588e-06
-1.44855e-06
5.99222e-06
-3.12689e-06
9.93745e-06
-5.24998e-06
1.32234e-05
-7.66029e-06
1.56486e-05
-1.02191e-05
1.71873e-05
-1.28142e-05
1.79217e-05
-1.53634e-05
1.79804e-05
-1.78083e-05
1.75117e-05
-2.01093e-05
1.66593e-05
-2.22419e-05
1.55458e-05
-2.41933e-05
1.42675e-05
-2.59588e-05
1.28971e-05
-2.75377e-05
1.14856e-05
-2.89304e-05
1.00629e-05
-3.01359e-05
8.64204e-06
-3.11513e-05
7.22425e-06
-3.19722e-05
5.80665e-06
-3.25941e-05
4.38644e-06
-3.30131e-05
2.96209e-06
-3.32262e-05
1.53275e-06
-3.32311e-05
9.7808e-08
-3.30255e-05
-1.34261e-06
-3.26083e-05
-2.78661e-06
-3.19795e-05
-4.23004e-06
-3.11415e-05
-5.66717e-06
-3.00987e-05
-7.09224e-06
-2.88568e-05
-8.50134e-06
-2.7421e-05
-9.89287e-06
-2.57951e-05
-1.12677e-05
-2.398e-05
-1.26269e-05
-2.19744e-05
-1.39671e-05
-1.9777e-05
-1.52767e-05
-1.73904e-05
-1.65324e-05
-1.48238e-05
-1.77017e-05
-1.20944e-05
-1.87477e-05
-9.22635e-06
-1.96347e-05
-6.24957e-06
-2.03321e-05
-3.19773e-06
-2.08158e-05
-1.06598e-07
-2.10694e-05
2.98704e-06
-2.10836e-05
6.0462e-06
-2.08561e-05
9.03456e-06
-2.0392e-05
1.19171e-05
-1.97031e-05
1.46611e-05
-1.88083e-05
1.72379e-05
-1.77346e-05
1.96252e-05
-1.65158e-05
2.18088e-05
-1.51914e-05
2.37834e-05
-1.38011e-05
2.55507e-05
-1.23781e-05
2.71152e-05
-1.09438e-05
2.84809e-05
-9.50823e-06
2.96489e-05
-8.07341e-06
3.06177e-05
-6.63782e-06
3.13841e-05
-5.20029e-06
3.19444e-05
-3.7615e-06
3.2296e-05
-2.32456e-06
3.24383e-05
-8.94294e-07
3.23724e-05
5.24513e-07
3.21013e-05
1.92835e-06
3.16287e-05
3.31539e-06
3.09592e-05
4.68473e-06
3.00985e-05
6.03595e-06
2.90537e-05
7.36924e-06
2.78325e-05
8.686e-06
2.64415e-05
9.98927e-06
2.48844e-05
1.12817e-05
2.31614e-05
1.25589e-05
2.12717e-05
1.38009e-05
1.92173e-05
1.49647e-05
1.70076e-05
1.5981e-05
1.46636e-05
1.6754e-05
1.22219e-05
1.71642e-05
9.73842e-06
1.70749e-05
7.29306e-06
1.63451e-05
4.99226e-06
1.48505e-05
2.96819e-06
1.25185e-05
1.37079e-06
9.38005e-06
3.48573e-07
5.63143e-06
1.71773e-06
-4.2327e-07
2.26862e-06
-1.64558e-06
7.21387e-06
-3.52125e-06
1.18123e-05
-5.85701e-06
1.5559e-05
-8.46721e-06
1.82581e-05
-1.11977e-05
1.9917e-05
-1.39331e-05
2.06568e-05
-1.65942e-05
2.0641e-05
-1.91287e-05
2.00449e-05
-2.15034e-05
1.90324e-05
-2.36993e-05
1.77402e-05
-2.57083e-05
1.62753e-05
-2.75295e-05
1.47174e-05
-2.91652e-05
1.31204e-05
-3.06177e-05
1.15147e-05
-3.18858e-05
9.90953e-06
-3.29639e-05
8.30203e-06
-3.38438e-05
6.68644e-06
-3.45175e-05
5.0601e-06
-3.49788e-05
3.42336e-06
-3.52233e-05
1.77718e-06
-3.52473e-05
1.2168e-07
-3.5047e-05
-1.54306e-06
-3.46191e-05
-3.21455e-06
-3.39627e-05
-4.88653e-06
-3.308e-05
-6.54982e-06
-3.19771e-05
-8.19513e-06
-3.0662e-05
-9.81636e-06
-2.91429e-05
-1.14119e-05
-2.74254e-05
-1.29852e-05
-2.55102e-05
-1.4542e-05
-2.33936e-05
-1.60837e-05
-2.10704e-05
-1.75998e-05
-1.85399e-05
-1.90628e-05
-1.58107e-05
-2.04307e-05
-1.29021e-05
-2.16561e-05
-9.84166e-06
-2.26948e-05
-6.6631e-06
-2.35102e-05
-3.40369e-06
-2.40746e-05
-1.024e-07
-2.43699e-05
3.20129e-06
-2.43863e-05
6.46786e-06
-2.41215e-05
9.65854e-06
-2.35813e-05
1.27353e-05
-2.27783e-05
1.56617e-05
-2.17331e-05
1.84049e-05
-2.04761e-05
2.09387e-05
-1.90479e-05
2.32474e-05
-1.74983e-05
2.53279e-05
-1.58798e-05
2.71864e-05
-1.42347e-05
2.88317e-05
-1.25873e-05
3.027e-05
-1.09448e-05
3.15026e-05
-9.30415e-06
3.25259e-05
-7.65939e-06
3.33343e-05
-6.00706e-06
3.3922e-05
-4.34774e-06
3.42853e-05
-2.68646e-06
3.44231e-05
-1.03101e-06
3.4338e-05
6.10534e-07
3.40346e-05
2.23263e-06
3.35182e-05
3.83265e-06
3.27949e-05
5.40894e-06
3.18723e-05
6.95935e-06
3.07606e-05
8.48159e-06
2.9472e-05
9.97522e-06
2.80174e-05
1.14443e-05
2.64028e-05
1.28966e-05
2.4627e-05
1.43348e-05
2.26848e-05
1.57431e-05
2.05726e-05
1.70768e-05
1.82938e-05
1.82596e-05
1.58636e-05
1.91841e-05
1.33124e-05
1.97151e-05
1.06912e-05
1.96956e-05
8.07734e-06
1.89583e-05
5.5811e-06
1.73459e-05
3.34953e-06
1.47493e-05
1.56169e-06
1.11676e-05
4.02866e-07
6.79083e-06
2.11712e-06
-5.02396e-07
2.77061e-06
-1.92226e-06
8.63352e-06
-4.0553e-06
1.39445e-05
-6.64908e-06
1.81532e-05
-9.48148e-06
2.10893e-05
-1.23829e-05
2.28179e-05
-1.5241e-05
2.35147e-05
-1.79869e-05
2.33868e-05
-2.05803e-05
2.26378e-05
-2.29979e-05
2.14493e-05
-2.52287e-05
1.99705e-05
-2.7271e-05
1.83174e-05
-2.91288e-05
1.65749e-05
-3.08083e-05
1.47996e-05
-3.23143e-05
1.30203e-05
-3.36452e-05
1.12401e-05
-3.47909e-05
9.44768e-06
-3.5737e-05
7.63269e-06
-3.64705e-05
5.79382e-06
-3.69824e-05
3.93552e-06
-3.72671e-05
2.06202e-06
-3.73194e-05
1.74052e-07
-3.7133e-05
-1.72942e-06
-3.67013e-05
-3.64608e-06
-3.6021e-05
-5.56681e-06
-3.50939e-05
-7.4769e-06
-3.39278e-05
-9.3612e-06
-3.25346e-05
-1.12095e-05
-3.09268e-05
-1.30198e-05
-2.9113e-05
-1.4799e-05
-2.7095e-05
-1.65601e-05
-2.48655e-05
-1.83131e-05
-2.24134e-05
-2.00518e-05
-1.97334e-05
-2.17427e-05
-1.68338e-05
-2.33302e-05
-1.3737e-05
-2.47528e-05
-1.04757e-05
-2.5956e-05
-7.08836e-06
-2.68975e-05
-3.61606e-06
-2.75468e-05
-1.00474e-07
-2.78853e-05
3.4168e-06
-2.79034e-05
6.89462e-06
-2.75991e-05
1.02926e-05
-2.69789e-05
1.35705e-05
-2.60556e-05
1.66877e-05
-2.48497e-05
1.96058e-05
-2.33936e-05
2.22928e-05
-2.17342e-05
2.473e-05
-1.99348e-05
2.69171e-05
-1.80661e-05
2.8867e-05
-1.61838e-05
3.05952e-05
-1.43147e-05
3.21103e-05
-1.2459e-05
3.34118e-05
-1.06048e-05
3.44934e-05
-8.73994e-06
3.53457e-05
-6.85825e-06
3.59601e-05
-4.961e-06
3.63312e-05
-3.05653e-06
3.64588e-05
-1.15769e-06
3.63476e-05
7.22495e-07
3.6005e-05
2.57591e-06
3.54384e-05
4.39991e-06
3.46551e-05
6.19282e-06
3.36648e-05
7.95023e-06
3.24815e-05
9.66529e-06
3.11239e-05
1.13332e-05
2.96104e-05
1.29581e-05
2.79509e-05
1.45563e-05
2.61425e-05
1.61434e-05
2.41733e-05
1.77123e-05
2.2032e-05
1.92182e-05
1.97143e-05
2.05774e-05
1.72268e-05
2.16716e-05
1.45907e-05
2.23511e-05
1.18468e-05
2.24392e-05
9.06354e-06
2.17412e-05
6.34942e-06
2.00597e-05
3.86608e-06
1.72325e-05
1.82972e-06
1.32041e-05
4.76949e-07
8.14195e-06
2.59294e-06
-6.22394e-07
3.39262e-06
-2.32354e-06
1.03346e-05
-4.79802e-06
1.64176e-05
-7.70385e-06
2.10604e-05
-1.07734e-05
2.41574e-05
-1.38266e-05
2.58712e-05
-1.67669e-05
2.64552e-05
-1.95482e-05
2.61685e-05
-2.21499e-05
2.52399e-05
-2.45628e-05
2.38628e-05
-2.67863e-05
2.21952e-05
-2.88262e-05
2.03588e-05
-3.06917e-05
1.84419e-05
-3.23939e-05
1.65032e-05
-3.39414e-05
1.4569e-05
-3.5332e-05
1.26317e-05
-3.65484e-05
1.06651e-05
-3.75662e-05
8.65158e-06
-3.83653e-05
6.59403e-06
-3.8934e-05
4.50528e-06
-3.92662e-05
2.39517e-06
-3.93559e-05
2.64532e-07
-3.91932e-05
-1.89139e-06
-3.87665e-05
-4.07224e-06
-3.80676e-05
-6.26519e-06
-3.70972e-05
-8.44682e-06
-3.58653e-05
-1.05927e-05
-3.43888e-05
-1.26857e-05
-3.26864e-05
-1.47219e-05
-3.07727e-05
-1.67123e-05
-2.86516e-05
-1.86809e-05
-2.6312e-05
-2.06526e-05
-2.37335e-05
-2.263e-05
-2.09039e-05
-2.45723e-05
-1.78319e-05
-2.64023e-05
-1.45461e-05
-2.80387e-05
-1.1086e-05
-2.94166e-05
-7.49542e-06
-3.04887e-05
-3.8194e-06
-3.12237e-05
-1.00991e-07
-3.16048e-05
3.61758e-06
-3.16232e-05
7.29492e-06
-3.12778e-05
1.08911e-05
-3.05764e-05
1.4365e-05
-2.95309e-05
1.76722e-05
-2.81584e-05
2.07674e-05
-2.64902e-05
2.36093e-05
-2.45775e-05
2.61733e-05
-2.25002e-05
2.84628e-05
-2.0357e-05
3.05015e-05
-1.82238e-05
3.23136e-05
-1.61279e-05
3.39098e-05
-1.40561e-05
3.52862e-05
-1.1982e-05
3.64308e-05
-9.88514e-06
3.73293e-05
-7.75711e-06
3.79695e-05
-5.60146e-06
3.83447e-05
-3.43174e-06
3.84558e-05
-1.26879e-06
3.83118e-05
8.66535e-07
3.79248e-05
2.96302e-06
3.73046e-05
5.0202e-06
3.64591e-05
7.0384e-06
3.53987e-05
9.01057e-06
3.4142e-05
1.0922e-05
3.27168e-05
1.27584e-05
3.11535e-05
1.45214e-05
2.94694e-05
1.62404e-05
2.76588e-05
1.79541e-05
2.57002e-05
1.96709e-05
2.35722e-05
2.13463e-05
2.12612e-05
2.28887e-05
1.87636e-05
2.41696e-05
1.60876e-05
2.50273e-05
1.3257e-05
2.527e-05
1.03207e-05
2.46779e-05
7.37383e-06
2.30074e-05
4.58641e-06
2.00208e-05
2.21824e-06
1.55731e-05
5.88755e-07
9.76904e-06
3.185e-06
-8.11512e-07
4.20368e-06
-2.92187e-06
1.24449e-05
-5.84955e-06
1.93428e-05
-9.12212e-06
2.4334e-05
-1.24207e-05
2.7455e-05
-1.55723e-05
2.90231e-05
-1.85178e-05
2.94012e-05
-2.12537e-05
2.89043e-05
-2.37881e-05
2.7774e-05
-2.6129e-05
2.62034e-05
-2.82877e-05
2.43539e-05
-3.02775e-05
2.23489e-05
-3.21117e-05
2.02765e-05
-3.38061e-05
1.81979e-05
-3.53756e-05
1.61388e-05
-3.68181e-05
1.40743e-05
-3.81047e-05
1.19519e-05
-3.91952e-05
9.74234e-06
-4.00605e-05
7.45944e-06
-4.06869e-05
5.13186e-06
-4.10702e-05
2.7786e-06
-4.12048e-05
3.99168e-07
-4.10762e-05
-2.01992e-06
-4.06643e-05
-4.48402e-06
-3.99538e-05
-6.97549e-06
-3.8943e-05
-9.4574e-06
-3.76441e-05
-1.18912e-05
-3.60799e-05
-1.42495e-05
-3.42775e-05
-1.65236e-05
-3.22613e-05
-1.8728e-05
-3.00407e-05
-2.0901e-05
-2.76001e-05
-2.30926e-05
-2.49062e-05
-2.53235e-05
-2.19355e-05
-2.75426e-05
-1.86998e-05
-2.96377e-05
-1.52386e-05
-3.14997e-05
-1.16001e-05
-3.30552e-05
-7.83404e-06
-3.4255e-05
-3.98798e-06
-3.50699e-05
-1.03939e-07
-3.5489e-05
3.77768e-06
-3.55051e-05
7.61696e-06
-3.51173e-05
1.13777e-05
-3.43375e-05
1.50217e-05
-3.31751e-05
1.85018e-05
-3.16387e-05
2.1765e-05
-2.97536e-05
2.47554e-05
-2.75681e-05
2.74367e-05
-2.51816e-05
2.98176e-05
-2.2738e-05
3.1938e-05
-2.0344e-05
3.38345e-05
-1.80242e-05
3.55177e-05
-1.5739e-05
3.69763e-05
-1.34401e-05
3.81894e-05
-1.10977e-05
3.91366e-05
-8.70364e-06
3.98022e-05
-6.2662e-06
4.01776e-05
-3.80639e-06
4.02664e-05
-1.35669e-06
4.00844e-05
1.04932e-06
3.96512e-05
3.39672e-06
3.89802e-05