/*--------------------------------*- C++ -*----------------------------------*\
| =========                 |                                                 |
| \\      /  F ield         | OpenFOAM: The Open Source CFD Toolbox           |
|  \\    /   O peration     | Version:  2412                                  |
|   \\  /    A nd           | Website:  www.openfoam.com                      |
|    \\/     M anipulation  |                                                 |
\*---------------------------------------------------------------------------*/
FoamFile
{
    version     2.0;
    format      ascii;
    arch        "LSB;label=32;scalar=64";
    class       surfaceScalarField;
    location    "7.7";
    object      phi;
}
// * * * * * * * * * * * * * * * * * * * * * * * * * * * * * * * * * * * * * //

dimensions      [0 3 -1 0 0 0 0];

oriented        oriented;

internalField   nonuniform List<scalar> 
12640
(
-6.71716e-06
6.71716e-06
-1.04645e-05
3.74665e-06
-1.18798e-05
1.41492e-06
-1.23195e-05
4.39489e-07
-1.30452e-05
7.25591e-07
-1.48949e-05
1.84959e-06
-1.82629e-05
3.36785e-06
-2.31289e-05
4.86591e-06
-2.93482e-05
6.21934e-06
-3.65119e-05
7.16371e-06
-4.42186e-05
7.70683e-06
-5.2097e-05
7.87844e-06
-5.97609e-05
7.66377e-06
-6.68521e-05
7.0914e-06
-7.31204e-05
6.26812e-06
-7.83362e-05
5.21591e-06
-8.23517e-05
4.01508e-06
-8.50583e-05
2.70624e-06
-8.64371e-05
1.3788e-06
-8.65255e-05
8.85388e-08
-8.53955e-05
-1.12986e-06
-8.31244e-05
-2.27098e-06
-7.98551e-05
-3.26916e-06
-7.57411e-05
-4.11408e-06
-7.09399e-05
-4.8015e-06
-6.56444e-05
-5.29608e-06
-6.00075e-05
-5.63771e-06
-5.42129e-05
-5.79515e-06
-4.84213e-05
-5.79135e-06
-4.27657e-05
-5.65515e-06
-3.73347e-05
-5.43101e-06
-3.22e-05
-5.13478e-06
-2.73877e-05
-4.81188e-06
-2.29235e-05
-4.46373e-06
-1.87841e-05
-4.13925e-06
-1.49623e-05
-3.82175e-06
-1.14039e-05
-3.55808e-06
-8.01806e-06
-3.38582e-06
-4.73993e-06
-3.27908e-06
-1.51737e-06
-3.22362e-06
1.72513e-06
-3.24295e-06
5.07906e-06
-3.35392e-06
8.5975e-06
-3.51825e-06
1.23515e-05
-3.75359e-06
1.64094e-05
-4.05721e-06
2.07849e-05
-4.37464e-06
2.55197e-05
-4.73391e-06
3.06302e-05
-5.10975e-06
3.6092e-05
-5.46125e-06
4.18299e-05
-5.73738e-06
4.77886e-05
-5.95805e-06
5.38748e-05
-6.08562e-06
5.99611e-05
-6.08585e-06
6.58822e-05
-5.92077e-06
7.14854e-05
-5.603e-06
7.65934e-05
-5.10802e-06
8.10489e-05
-4.45547e-06
8.4698e-05
-3.64905e-06
8.73497e-05
-2.65163e-06
8.8901e-05
-1.55129e-06
8.92495e-05
-3.48643e-07
8.8318e-05
9.31055e-07
8.6072e-05
2.24564e-06
8.25303e-05
3.54126e-06
7.77616e-05
4.76889e-06
7.18694e-05
5.89217e-06
6.50693e-05
6.79961e-06
5.76614e-05
7.40724e-06
4.99621e-05
7.69892e-06
4.23061e-05
7.65606e-06
3.50668e-05
7.23903e-06
2.86598e-05
6.40592e-06
2.35213e-05
5.13749e-06
1.98617e-05
3.65985e-06
1.76435e-05
2.21883e-06
1.63667e-05
1.27634e-06
1.51904e-05
1.17577e-06
1.28287e-05
2.36281e-06
7.90614e-06
4.92254e-06
7.90462e-06
-5.57709e-06
1.22938e-05
-5.97952e-06
4.14849e-06
-2.18496e-06
-2.37996e-06
3.21627e-06
-4.96186e-06
8.12443e-06
-4.18263e-06
1.10113e-05
-1.03735e-06
1.10563e-05
3.3228e-06
8.03933e-06
7.88296e-06
2.26746e-06
1.19915e-05
-5.7716e-06
1.5203e-05
-1.54111e-05
1.73464e-05
-2.59074e-05
1.83751e-05
-3.66244e-05
1.83804e-05
-4.70799e-05
1.7547e-05
-5.68258e-05
1.60136e-05
-6.55983e-05
1.39884e-05
-7.31357e-05
1.15524e-05
-7.92534e-05
8.82395e-06
-8.38625e-05
5.98794e-06
-8.69363e-05
3.16234e-06
-8.84817e-05
4.15575e-07
-8.85776e-05
-2.17515e-06
-8.73114e-05
-4.53568e-06
-8.48335e-05
-6.59279e-06
-8.13329e-05
-8.30295e-06
-7.70033e-05
-9.62618e-06
-7.20298e-05
-1.06113e-05
-6.6614e-05
-1.12113e-05
-6.0901e-05
-1.1505e-05
-5.50514e-05
-1.1505e-05
-4.92027e-05
-1.12794e-05
-4.3453e-05
-1.08843e-05
-3.78399e-05
-1.04254e-05
-3.24119e-05
-9.89269e-06
-2.72121e-05
-9.33989e-06
-2.22178e-05
-8.81725e-06
-1.739e-05
-8.38785e-06
-1.26964e-05
-8.08123e-06
-8.06677e-06
-7.90957e-06
-3.45971e-06
-7.8309e-06
1.1779e-06
-7.88048e-06
5.90072e-06
-8.0764e-06
1.07803e-05
-8.39715e-06
1.5841e-05
-8.8134e-06
2.11154e-05
-9.33048e-06
2.66469e-05
-9.90508e-06
3.24085e-05
-1.04944e-05
3.83786e-05
-1.10786e-05
4.45278e-05
-1.16091e-05
5.0811e-05
-1.2019e-05
5.70722e-05
-1.22178e-05
6.31958e-05
-1.2208e-05
6.9022e-05
-1.19111e-05
7.43898e-05
-1.1288e-05
7.91466e-05
-1.03595e-05
8.31108e-05
-9.07211e-06
8.60814e-05
-7.42606e-06
8.78622e-05
-5.42975e-06
8.83292e-05
-3.11859e-06
8.73468e-05
-5.69026e-07
8.48316e-05
2.1661e-06
8.07578e-05
5.00417e-06
7.51749e-05
7.82855e-06
6.81516e-05
1.05649e-05
5.98364e-05
1.30843e-05
5.04697e-05
1.52585e-05
4.03148e-05
1.69537e-05
2.97835e-05
1.7938e-05
1.94305e-05
1.80519e-05
9.89638e-06
1.719e-05
1.87744e-06
1.52567e-05
-3.93709e-06
1.22193e-05
-7.0182e-06
8.21896e-06
-7.07946e-06
3.7219e-06
-4.34881e-06
-5.12786e-07
3.01459e-07
-3.3748e-06
5.23843e-06
-3.75977e-06
8.2825e-06
-6.81132e-07
6.85653e-06
6.34684e-06
1.47641e-05
-4.91053e-06
1.72039e-05
-3.42832e-06
2.66627e-06
3.14667e-06
-8.9548e-06
1.20996e-05
-1.39145e-05
2.07066e-05
-1.27894e-05
2.69197e-05
-7.25009e-06
2.9497e-05
7.45821e-07
2.82338e-05
9.14672e-06
2.34547e-05
1.67711e-05
1.58336e-05
2.28244e-05
6.21707e-06
2.69629e-05
-4.59048e-06
2.91829e-05
-1.59157e-05
2.97059e-05
-2.71067e-05
2.87382e-05
-3.77368e-05
2.66438e-05
-4.74026e-05
2.36548e-05
-5.58572e-05
2.0007e-05
-6.28621e-05
1.58285e-05
-6.83304e-05
1.14561e-05
-7.2221e-05
7.05266e-06
-7.4543e-05
2.737e-06
-7.5374e-05
-1.34457e-06
-7.48123e-05
-5.09786e-06
-7.30325e-05
-8.37242e-06
-7.02143e-05
-1.11208e-05
-6.65466e-05
-1.3294e-05
-6.2288e-05
-1.48707e-05
-5.75814e-05
-1.59186e-05
-5.26399e-05
-1.64467e-05
-4.75807e-05
-1.65649e-05
-4.25476e-05
-1.63146e-05
-3.76135e-05
-1.58212e-05
-3.29305e-05
-1.51109e-05
-2.84075e-05
-1.44182e-05
-2.41002e-05
-1.36499e-05
-1.99839e-05
-1.29354e-05
-1.60104e-05
-1.23617e-05
-1.21352e-05
-1.19563e-05
-8.31257e-06
-1.17324e-05
-4.48772e-06
-1.16561e-05
-6.22539e-07
-1.1746e-05
3.32986e-06
-1.20288e-05
7.39859e-06
-1.24653e-05
1.16219e-05
-1.30358e-05
1.60526e-05
-1.37599e-05
2.07214e-05
-1.45723e-05
2.56238e-05
-1.53951e-05
3.07778e-05
-1.62311e-05
3.61172e-05
-1.69473e-05
4.15567e-05
-1.74576e-05
4.70304e-05
-1.76909e-05
5.24101e-05
-1.75872e-05
5.75215e-05
-1.70221e-05
6.2276e-05
-1.60422e-05
6.64015e-05
-1.44847e-05
6.9721e-05
-1.23913e-05
7.20338e-05
-9.73848e-06
7.31508e-05
-6.54607e-06
7.2933e-05
-2.9002e-06
7.12298e-05
1.13457e-06
6.79735e-05
5.42268e-06
6.31243e-05
9.85371e-06
5.67071e-05
1.42463e-05
4.88737e-05
1.83991e-05
3.97474e-05
2.22109e-05
2.96092e-05
2.53962e-05
1.88245e-05
2.77377e-05
7.82339e-06
2.89394e-05
-2.77822e-06
2.86542e-05
-1.22522e-05
2.66636e-05
-1.97689e-05
2.27723e-05
-2.44836e-05
1.69337e-05
-2.57034e-05
9.43948e-06
-2.30928e-05
1.1108e-06
-1.69125e-05
-6.69438e-06
-8.452e-06
-1.18343e-05
1.17578e-07
-1.23278e-05
5.9771e-06
-6.54147e-06
6.35451e-06
5.97112e-06
2.11191e-05
-5.29685e-06
2.25007e-05
-3.28588e-06
6.55778e-07
5.06162e-06
-1.73017e-05
1.70061e-05
-2.58584e-05
2.90501e-05
-2.48328e-05
3.8075e-05
-1.62744e-05
4.23215e-05
-3.49996e-06
4.14903e-05
9.97861e-06
3.63707e-05
2.18912e-05
2.79807e-05
3.12148e-05
1.74062e-05
3.75378e-05
5.60359e-06
4.09853e-05
-6.63803e-06
4.1948e-05
-1.86747e-05
4.07751e-05
-3.00024e-05
3.79718e-05
-4.02327e-05
3.38854e-05
-4.90762e-05
2.88505e-05
-5.6386e-05
2.31381e-05
-6.20364e-05
1.71058e-05
-6.59949e-05
1.10108e-05
-6.83049e-05
5.04685e-06
-6.90663e-05
-5.82254e-07
-6.84044e-05
-5.75863e-06
-6.65038e-05
-1.0272e-05
-6.35873e-05
-1.40364e-05
-5.98829e-05
-1.69973e-05
-5.56025e-05
-1.91504e-05
-5.09816e-05
-2.05397e-05
-4.62106e-05
-2.12189e-05
-4.14464e-05
-2.13303e-05
-3.68215e-05
-2.09396e-05
-3.24267e-05
-2.02154e-05
-2.82469e-05
-1.92901e-05
-2.44363e-05
-1.8228e-05
-2.08679e-05
-1.72174e-05
-1.75069e-05
-1.6296e-05
-1.42955e-05
-1.55731e-05
-1.11399e-05
-1.51122e-05
-8.03075e-06
-1.48419e-05
-4.90492e-06
-1.47818e-05
-1.72773e-06
-1.49225e-05
1.5494e-06
-1.53053e-05
4.9134e-06
-1.58291e-05
8.42833e-06
-1.65509e-05
1.21586e-05
-1.74907e-05
1.61332e-05
-1.85478e-05
2.0438e-05
-1.97011e-05
2.50136e-05
-2.08078e-05
2.98485e-05
-2.17832e-05
3.49021e-05
-2.25117e-05
4.00693e-05
-2.28582e-05
4.52331e-05
-2.27506e-05
5.03231e-05
-2.21114e-05
5.50584e-05
-2.07768e-05
5.92627e-05
-1.86884e-05
6.27001e-05
-1.58282e-05
6.51256e-05
-1.21634e-05
6.63612e-05
-7.78107e-06
6.62157e-05
-2.75423e-06
6.45553e-05
2.7951e-06
6.12671e-05
8.71057e-06
5.62966e-05
1.48243e-05
4.96626e-05
2.08803e-05
4.14659e-05
2.65955e-05
3.18684e-05
3.18076e-05
2.11168e-05
3.61472e-05
9.56559e-06
3.92891e-05
-2.32003e-06
4.08259e-05
-1.38981e-05
4.02326e-05
-2.4333e-05
3.70979e-05
-3.2602e-05
3.1041e-05
-3.76229e-05
2.19552e-05
-3.83459e-05
1.01622e-05
-3.39692e-05
-3.26746e-06
-2.48234e-05
-1.58398e-05
-1.28163e-05
-2.38399e-05
-1.26248e-06
-2.38831e-05
6.21301e-06
-1.40164e-05
6.91506e-06
5.27001e-06
2.80302e-05
-6.62238e-06
2.91233e-05
-5.39162e-06
-5.74192e-07
4.22086e-06
-2.69135e-05
1.9936e-05
-4.15729e-05
3.69456e-05
-4.18419e-05
4.99662e-05
-2.92944e-05
5.58458e-05
-9.37885e-06
5.45163e-05
1.13088e-05
4.76203e-05
2.87877e-05
3.69432e-05
4.1892e-05
2.40339e-05
5.04475e-05
1.01093e-05
5.49098e-05
-3.9095e-06
5.5967e-05
-1.73874e-05
5.42526e-05
-2.98086e-05
5.03933e-05
-4.08346e-05
4.49113e-05
-5.01789e-05
3.81947e-05
-5.77594e-05
3.07189e-05
-6.34741e-05
2.28209e-05
-6.72981e-05
1.48351e-05
-6.93059e-05
7.05482e-06
-6.96393e-05
-2.48882e-07
-6.84571e-05
-6.9412e-06
-6.60009e-05
-1.27281e-05
-6.2498e-05
-1.75391e-05
-5.82305e-05
-2.12642e-05
-5.34481e-05
-2.3933e-05
-4.83827e-05
-2.56043e-05
-4.32599e-05
-2.63391e-05
-3.82841e-05
-2.63028e-05
-3.35811e-05
-2.56396e-05
-2.92663e-05
-2.45274e-05
-2.53317e-05
-2.32229e-05
-2.18196e-05
-2.17396e-05
-1.86698e-05
-2.03675e-05
-1.57934e-05
-1.91733e-05
-1.30567e-05
-1.83107e-05
-1.04285e-05
-1.77409e-05
-7.79703e-06
-1.74742e-05
-5.13408e-06
-1.74462e-05
-2.42345e-06
-1.76352e-05
4.13809e-07
-1.81448e-05
3.31508e-06
-1.87324e-05
6.3718e-06
-1.96089e-05
9.70012e-06
-2.08196e-05
1.33111e-05
-2.21588e-05
1.73031e-05
-2.36927e-05
2.16961e-05
-2.52004e-05
2.6478e-05
-2.65645e-05
3.16138e-05
-2.76469e-05
3.69735e-05
-2.82173e-05
4.24989e-05
-2.82754e-05
4.79966e-05
-2.76086e-05
5.32415e-05
-2.60216e-05
5.8009e-05
-2.34559e-05
6.19946e-05
-1.98137e-05
6.49839e-05
-1.51523e-05
6.67365e-05
-9.53322e-06
6.70351e-05
-3.05258e-06
6.57012e-05
4.12923e-06
6.25897e-05
1.1822e-05
5.7632e-05
1.97821e-05
5.08189e-05
2.76936e-05
4.21775e-05
3.52373e-05
3.18671e-05
4.21182e-05
2.00741e-05
4.79402e-05
7.11609e-06
5.22474e-05
-6.53177e-06
5.4474e-05
-2.02303e-05
5.39303e-05
-3.30241e-05
4.989e-05
-4.36522e-05
4.16683e-05
-5.04901e-05
2.87926e-05
-5.16845e-05
1.13551e-05
-4.54611e-05
-9.4921e-06
-3.20354e-05
-2.92646e-05
-1.48789e-05
-4.09973e-05
4.19403e-07
-3.91829e-05
8.90728e-06
-2.25034e-05
8.50357e-06
5.67224e-06
3.65348e-05
-9.25515e-06
3.8379e-05
-9.92976e-06
1.01136e-07
2.09711e-06
-3.89398e-05
2.43316e-05
-6.38071e-05
4.86308e-05
-6.61408e-05
6.67839e-05
-4.7447e-05
7.42286e-05
-1.6823e-05
7.13367e-05
1.42011e-05
6.10783e-05
3.90466e-05
4.64335e-05
5.65366e-05
2.97134e-05
6.71675e-05
1.25006e-05
7.21225e-05
-4.17947e-06
7.26475e-05
-1.974e-05
6.98126e-05
-3.37647e-05
6.4418e-05
-4.59313e-05
5.70779e-05
-5.60477e-05
4.83106e-05
-6.4004e-05
3.86745e-05
-6.97745e-05
2.8591e-05
-7.33972e-05
1.84571e-05
-7.49557e-05
8.61298e-06
-7.46317e-05
-5.73146e-07
-7.26127e-05
-8.9604e-06
-6.92205e-05
-1.61208e-05
-6.47489e-05
-2.20115e-05
-5.94803e-05
-2.65321e-05
-5.37601e-05
-2.96512e-05
-4.78434e-05
-3.15194e-05
-4.19965e-05
-3.21852e-05
-3.64694e-05
-3.18302e-05
-3.13804e-05
-3.07302e-05
-2.68008e-05
-2.91088e-05
-2.29346e-05
-2.70906e-05
-1.95963e-05
-2.50789e-05
-1.67402e-05
-2.32242e-05
-1.42177e-05
-2.16961e-05
-1.19719e-05
-2.05572e-05
-9.79097e-06
-1.99228e-05
-7.59268e-06
-1.96732e-05
-5.34497e-06
-1.96943e-05
-3.01987e-06
-1.99603e-05
-6.6409e-07
-2.05004e-05
1.81478e-06
-2.12109e-05
4.53978e-06
-2.23336e-05
7.52905e-06
-2.38089e-05
1.09136e-05
-2.55439e-05
1.4773e-05
-2.7553e-05
1.92331e-05
-2.96615e-05
2.42049e-05
-3.15371e-05
2.96772e-05
-3.31195e-05
3.56762e-05
-3.42161e-05
4.19162e-05
-3.4515e-05
4.82355e-05
-3.39275e-05
5.43806e-05
-3.21663e-05
6.01003e-05
-2.91751e-05
6.50593e-05
-2.47721e-05
6.8956e-05
-1.90481e-05
7.15236e-05
-1.20999e-05
7.25055e-05
-4.03404e-06
7.16566e-05
4.97816e-06
6.88139e-05
1.46649e-05
6.38714e-05
2.47251e-05
5.67741e-05
3.47909e-05
4.74911e-05
4.45195e-05
3.61273e-05
5.34809e-05
2.28254e-05
6.12414e-05
7.82397e-06
6.72485e-05
-8.48562e-06
7.07829e-05
-2.54825e-05
7.09263e-05
-4.2181e-05
6.65887e-05
-5.69355e-05
5.64241e-05
-6.72804e-05
3.91379e-05
-7.00585e-05
1.41329e-05
-6.22753e-05
-1.7274e-05
-4.36903e-05
-4.78495e-05
-1.90742e-05
-6.56167e-05
2.98099e-06
-6.1237e-05
1.40206e-05
-3.35447e-05
1.14905e-05
8.19936e-06
4.80281e-05
-1.20166e-05
5.0396e-05
-9.39849e-06
-2.51664e-06
1.66234e-05
-6.49615e-05
5.50315e-05
-0.000102215
8.70547e-05
-9.81639e-05
0.000103485
-6.38772e-05
0.000104833
-1.81708e-05
9.53668e-05
2.36677e-05
7.86284e-05
5.57851e-05
5.77785e-05
7.73868e-05
3.55838e-05
8.93624e-05
1.39186e-05
9.37872e-05
-6.24507e-06
9.2811e-05
-2.44289e-05
8.79957e-05
-4.04283e-05
8.04167e-05
-5.39721e-05
7.06216e-05
-6.49754e-05
5.93143e-05
-7.33872e-05
4.70868e-05
-7.92025e-05
3.44069e-05
-8.2527e-05
2.17815e-05
-8.34689e-05
9.55468e-06
-8.22522e-05
-1.79088e-06
-7.90543e-05
-1.21593e-05
-7.43565e-05
-2.08185e-05
-6.85398e-05
-2.78278e-05
-6.19072e-05
-3.3166e-05
-5.48382e-05
-3.67229e-05
-4.77382e-05
-3.86234e-05
-4.08737e-05
-3.90543e-05
-3.45266e-05
-3.81812e-05
-2.88682e-05
-3.63909e-05
-2.40669e-05
-3.39113e-05
-2.00692e-05
-3.10888e-05
-1.68795e-05
-2.82688e-05
-1.4376e-05
-2.57282e-05
-1.23835e-05
-2.36888e-05
-1.06444e-05
-2.22961e-05
-8.99324e-06
-2.15738e-05
-7.33166e-06
-2.1335e-05
-5.58748e-06
-2.14391e-05
-3.77258e-06
-2.17764e-05
-1.92914e-06
-2.23452e-05
9.43723e-08
-2.32359e-05
2.28884e-06
-2.45294e-05
4.83936e-06
-2.63606e-05
8.0154e-06
-2.87209e-05
1.17997e-05
-3.1338e-05
1.63031e-05
-3.41653e-05
2.16879e-05
-3.69219e-05
2.78293e-05
-3.92606e-05
3.45919e-05
-4.09782e-05
4.18434e-05
-4.1766e-05
4.93151e-05
-4.1399e-05
5.67082e-05
-3.95593e-05
6.3712e-05
-3.61788e-05
7.00141e-05
-3.1074e-05
7.51423e-05
-2.41764e-05
7.88337e-05
-1.57916e-05
8.07544e-05
-5.95535e-06
8.05864e-05
5.14532e-06
7.81228e-05
1.71277e-05
7.32342e-05
2.96129e-05
6.57823e-05
4.22424e-05
5.57379e-05
5.45636e-05
4.31104e-05
6.61085e-05
2.79771e-05
7.63757e-05
1.04264e-05
8.48004e-05
-9.29147e-06
9.05014e-05
-3.0793e-05
9.24286e-05
-5.30928e-05
8.88903e-05
-7.43201e-05
7.76527e-05
-9.16788e-05
5.64958e-05
-0.000102011
2.44643e-05
-0.00010172
-1.7565e-05
-8.59936e-05
-6.35772e-05
-5.35457e-05
-9.80661e-05
-1.37793e-05
-0.000101001
1.28674e-05
-6.01921e-05
1.45884e-05
6.48129e-06
6.26146e-05
-8.97085e-06
5.9367e-05
1.98001e-05
-3.12875e-05
8.9203e-05
-0.000134364
0.000160385
-0.000173397
0.000198408
-0.000136187
0.000195446
-6.09158e-05
0.000166352
1.09238e-05
0.000133449
5.65714e-05
0.000101582
8.76517e-05
7.08009e-05
0.000108168
4.12505e-05
0.000118913
1.40141e-05
0.000121024
-1.02297e-05
0.000117055
-3.1467e-05
0.000109234
-4.96087e-05
9.85593e-05
-6.46635e-05
8.56766e-05
-7.66481e-05
7.12986e-05
-8.55275e-05
5.59656e-05
-9.13509e-05
4.02296e-05
-9.4163e-05
2.45931e-05
-9.4223e-05
9.61539e-06
-9.1726e-05
-4.28688e-06
-8.71775e-05
-1.67077e-05
-8.08374e-05
-2.71608e-05
-7.31851e-05
-3.54829e-05
-6.47611e-05
-4.15929e-05
-5.60061e-05
-4.548e-05
-4.73293e-05
-4.73011e-05
-3.91085e-05
-4.72749e-05
-3.17186e-05
-4.55709e-05
-2.53344e-05
-4.27751e-05
-2.01339e-05
-3.91125e-05
-1.61031e-05
-3.51208e-05
-1.31932e-05
-3.11795e-05
-1.12132e-05
-2.77089e-05
-9.87839e-06
-2.50247e-05
-8.86106e-06
-2.33147e-05
-7.92812e-06
-2.25082e-05
-6.94873e-06
-2.23159e-05
-5.83737e-06
-2.25518e-05
-4.6195e-06
-2.29952e-05
-3.34407e-06
-2.36212e-05
-2.09127e-06
-2.44887e-05
-5.70749e-07
-2.60498e-05
1.43942e-06
-2.83707e-05
4.09488e-06
-3.13764e-05
7.78838e-06
-3.50317e-05
1.24586e-05
-3.88357e-05
1.8225e-05
-4.26884e-05
2.50878e-05
-4.61236e-05
3.28637e-05
-4.87542e-05
4.142e-05
-5.03227e-05
5.04047e-05
-5.03841e-05
5.94564e-05
-4.86116e-05
6.81563e-05
-4.48792e-05
7.60779e-05
-3.8996e-05
8.28855e-05
-3.09843e-05
8.80214e-05
-2.0928e-05
9.12079e-05
-9.14261e-06
9.19341e-05
4.41852e-06
9.00639e-05
1.89982e-05
8.52908e-05
3.43866e-05
7.7552e-05
4.99816e-05
6.67082e-05
6.54075e-05
5.27321e-05
8.00844e-05
3.56071e-05
9.35e-05
1.52223e-05
0.000105184
-8.50129e-06
0.000114223
-3.55413e-05
0.000119468
-6.54489e-05
0.000118798
-9.72777e-05
0.000109481
-0.000131382
9.05997e-05
-0.000167889
6.09743e-05
-0.00020077
1.5318e-05
-0.00020605
-5.82958e-05
-0.000167578
-0.000136534
-9.32793e-05
-0.000175301
-1.95251e-05
-0.000133947
1.08939e-05
-2.39367e-05
7.35063e-05
1.10852e-05
4.82819e-05
0.000101791
-0.000121994
0.000231591
-0.000264165
0.000337006
-0.000278813
0.000379259
-0.000178439
0.000351005
-3.26611e-05
0.000277276
8.4653e-05
0.000195698
0.000138149
0.000131734
0.000151617
8.39424e-05
0.00015596
4.4843e-05
0.000158012
1.13888e-05
0.00015448
-1.71789e-05
0.000145623
-4.14914e-05
0.000133546
-6.18337e-05
0.000118901
-7.84598e-05
0.000102302
-9.13943e-05
8.42331e-05
-0.00010067
6.52428e-05
-0.000106285
4.5846e-05
-0.000108448
2.67576e-05
-0.00010734
8.50709e-06
-0.000103271
-8.35675e-06
-9.67666e-05
-2.32119e-05
-8.83297e-05
-3.55973e-05
-7.83829e-05
-4.54282e-05
-6.77123e-05
-5.22612e-05
-5.67682e-05
-5.64219e-05
-4.61226e-05
-5.79446e-05
-3.62158e-05
-5.71805e-05
-2.74441e-05
-5.43426e-05
-2.02001e-05
-5.002e-05
-1.45805e-05
-4.47332e-05
-1.05744e-05
-3.9128e-05
-8.13112e-06
-3.36238e-05
-6.92225e-06
-2.89182e-05
-6.52434e-06
-2.54228e-05
-6.62877e-06
-2.32106e-05
-6.742e-06
-2.23953e-05
-6.55422e-06
-2.2504e-05
-6.07983e-06
-2.30265e-05
-5.5419e-06
-2.35336e-05
-5.11788e-06
-2.40459e-05
-4.74345e-06
-2.48641e-05
-4.29175e-06
-2.65024e-05
-3.08226e-06
-2.95809e-05
-1.00454e-06
-3.34547e-05
2.22861e-06
-3.82651e-05
7.07813e-06
-4.36854e-05
1.33625e-05
-4.8973e-05
2.11372e-05
-5.38985e-05
3.01779e-05
-5.77951e-05
4.03203e-05
-6.04654e-05
5.11595e-05
-6.12234e-05
6.22481e-05
-5.97003e-05
7.31258e-05
-5.5757e-05
8.32788e-05
-4.91491e-05
9.21229e-05
-3.98286e-05
9.92009e-05
-2.80062e-05
0.000103851
-1.37927e-05
0.000105832
2.43692e-06
0.000104743
2.00865e-05
0.000100367
3.87618e-05
9.2412e-05
5.79348e-05
8.0852e-05
7.69658e-05
6.55617e-05
9.53735e-05
4.64124e-05
0.000112649
2.32493e-05
0.000128346
-4.56619e-06
0.000142039
-3.77824e-05
0.000152685
-7.75018e-05
0.000158518
-0.000127608
0.000159586
-0.000196204
0.000159197
-0.000283368
0.000148139
-0.000361478
9.34258e-05
-0.000392159
-2.76161e-05
-0.00035084
-0.000177852
-0.000243293
-0.000282851
-0.000107567
-0.00026967
-1.09135e-05
-0.000120593
6.25958e-05
5.55802e-05
-7.29808e-06
0.000215185
-0.000281598
0.000375767
-0.000424747
0.0004834
-0.000386446
0.000520532
-0.000215571
0.000486772
1.10008e-06
0.000385955
0.00018547
0.000264849
0.000259255
0.000163683
0.000252782
9.31661e-05
0.000226477
4.31401e-05
0.000208038
3.94123e-06
0.000193679
-2.84114e-05
0.000177976
-5.54342e-05
0.00016057
-7.78297e-05
0.000141297
-9.59272e-05
0.000120401
-0.000109819
9.81259e-05
-0.000119381
7.4806e-05
-0.000124707
5.11707e-05
-0.000125858
2.79088e-05
-0.000123222
5.87242e-06
-0.000117173
-1.44048e-05
-0.000108089
-3.22936e-05
-9.68531e-05
-4.68322e-05
-8.42424e-05
-5.80383e-05
-7.05773e-05
-6.59258e-05
-5.68582e-05
-7.01416e-05
-4.3662e-05
-7.11428e-05
-3.16702e-05
-6.91748e-05
-2.12749e-05
-6.47401e-05
-1.29372e-05
-5.83592e-05
-6.70708e-06
-5.09645e-05
-2.94144e-06
-4.28938e-05
-1.23086e-06
-3.53343e-05
-1.18184e-06
-2.89673e-05
-2.35846e-06
-2.42464e-05
-3.99086e-06
-2.15783e-05
-5.39806e-06
-2.0988e-05
-6.12329e-06
-2.17786e-05
-6.23728e-06
-2.29125e-05
-6.29454e-06
-2.34765e-05
-6.88214e-06
-2.34587e-05
-7.74418e-06
-2.40024e-05
-8.44741e-06
-2.57992e-05
-8.81902e-06
-2.92091e-05
-7.81381e-06
-3.44596e-05
-5.09926e-06
-4.09795e-05
-3.44506e-07
-4.84401e-05
6.56565e-06
-5.58832e-05
1.53894e-05
-6.27222e-05
2.60797e-05
-6.84853e-05
3.81932e-05
-7.25789e-05
5.12786e-05
-7.43087e-05
6.49655e-05
-7.33871e-05
7.85633e-05
-6.93546e-05
9.15754e-05
-6.21612e-05
0.000103033
-5.12861e-05
0.000112447
-3.74207e-05
0.000119194
-2.05411e-05
0.000122757
-1.12657e-06
0.000122713
2.01301e-05
0.00011882
4.26552e-05
0.000110848
6.59071e-05
9.86878e-05
8.91266e-05
8.23011e-05
0.000111761
6.15658e-05
0.000133384
3.59618e-05
0.00015395
4.81922e-06
0.000173182
-3.38366e-05
0.000191341
-8.46101e-05
0.00020929
-0.000157951
0.000232927
-0.000263338
0.000264584
-0.000387517
0.000272318
-0.000489964
0.000195873
-0.000526622
9.04353e-06
-0.000494204
-0.000210272
-0.000389335
-0.000387719
-0.000225503
-0.000433501
-5.80429e-05
-0.000288053
4.55328e-06
0.000108157
-0.000115455
0.000285283
-0.000458724
0.000415167
-0.000554631
0.000486098
-0.000457377
0.000507636
-0.000237109
0.000476301
3.24349e-05
0.000392292
0.000269479
0.000278527
0.00037302
0.000169857
0.000361452
8.8311e-05
0.000308022
3.16435e-05
0.000264706
-1.07404e-05
0.000236063
-4.52838e-05
0.00021252
-7.42159e-05
0.000189503
-9.83935e-05
0.000165475
-0.000117955
0.000139962
-0.000132652
0.000112823
-0.000142436
8.45904e-05
-0.000147179
5.59138e-05
-0.000147076
2.78069e-05
-0.000142369
1.16511e-06
-0.000133636
-2.31377e-05
-0.000121622
-4.43078e-05
-0.000106986
-6.14696e-05
-9.05127e-05
-7.45145e-05
-7.33349e-05
-8.31069e-05
-5.60972e-05
-8.73821e-05
-3.9813e-05
-8.74283e-05
-2.51173e-05
-8.38706e-05
-1.26303e-05
-7.72259e-05
-2.85155e-06
-6.81362e-05
3.9494e-06
-5.77644e-05
7.49346e-06
-4.64376e-05
8.19819e-06
-3.60389e-05
6.43427e-06
-2.72032e-05
3.29852e-06
-2.11103e-05
-4.23696e-07
-1.78555e-05
-3.55801e-06
-1.7853e-05
-5.45026e-06
-1.98859e-05
-6.41844e-06
-2.19441e-05
-7.35171e-06
-2.25434e-05
-9.14025e-06
-2.16702e-05
-1.18472e-05
-2.12953e-05
-1.46953e-05
-2.29508e-05
-1.67583e-05
-2.71458e-05
-1.69446e-05
-3.42732e-05
-1.47307e-05
-4.31932e-05
-1.03303e-05
-5.28403e-05
-2.81493e-06
-6.33983e-05
7.39521e-06
-7.2932e-05
2.00302e-05
-8.11199e-05
3.46215e-05
-8.71698e-05
5.06538e-05
-9.03406e-05
6.75863e-05
-9.03192e-05
8.47228e-05
-8.64908e-05
0.000100961
-7.83986e-05
0.000115788
-6.61133e-05
0.000128379
-5.00107e-05
0.000137733
-2.98946e-05
0.000143287
-6.68012e-06
0.000144715
1.87034e-05
0.000141537
4.58338e-05
0.000133671
7.37733e-05
0.000121065
0.000101733
0.000103763
0.000129063
8.18032e-05
0.000155343
5.49459e-05
0.000180808
2.22255e-05
0.000205903
-1.8908e-05
0.000232475
-7.53983e-05
0.00026578
-0.000157693
0.000315222
-0.000266612
0.000373504
-0.000378856
0.000384559
-0.00046171
0.000278727
-0.000497275
4.46085e-05
-0.000482798
-0.000224751
-0.000420356
-0.000450158
-0.000293552
-0.000560309
-0.000112417
-0.000469187
-0.000107866
0.00012931
-0.000244766
0.000252361
-0.000581774
0.000310112
-0.000612382
0.000330574
-0.000477839
0.000332854
-0.000239389
0.000310021
5.52677e-05
0.000265861
0.000313638
0.000198046
0.000440834
0.000122303
0.000437196
5.65577e-05
0.000373766
5.83328e-06
0.00031543
-3.44417e-05
0.000276337
-6.86943e-05
0.000246772
-9.85664e-05
0.000219374
-0.000124103
0.000191013
-0.000145069
0.000160928
-0.000160864
0.000128618
-0.000170808
9.45343e-05
-0.000174769
5.9875e-05
-0.000172929
2.59664e-05
-0.000165714
-6.0502e-06
-0.000153591
-3.52619e-05
-0.000137424
-6.04753e-05
-0.000118374
-8.05203e-05
-9.74174e-05
-9.54701e-05
-7.55705e-05
-0.000104951
-5.40219e-05
-0.000108927
-3.3738e-05
-0.000107709
-1.56525e-05
-0.000101954
-4.8854e-07
-9.23883e-05
1.1022e-05
-7.96465e-05
1.82026e-05
-6.49452e-05
2.1882e-05
-5.01171e-05
2.12583e-05
-3.54152e-05
1.7437e-05
-2.33815e-05
1.15935e-05
-1.52664e-05
5.57203e-06
-1.18335e-05
2.3877e-07
-1.25196e-05
-3.86277e-06
-1.57843e-05
-6.9276e-06
-1.88793e-05
-1.00387e-05
-1.94322e-05
-1.39575e-05
-1.77513e-05
-1.8822e-05
-1.64306e-05
-2.37688e-05
-1.80038e-05
-2.78045e-05
-2.311e-05
-2.99144e-05
-3.2163e-05
-2.91619e-05
-4.39455e-05
-2.44931e-05
-5.75088e-05
-1.5931e-05
-7.19599e-05
-3.95649e-06
-8.4906e-05
1.1205e-05
-9.62807e-05
2.89338e-05
-0.000104898
4.86488e-05
-0.000110055
6.96258e-05
-0.000111296
9.08773e-05
-0.000107742
0.000111858
-9.93782e-05
0.000130921
-8.51761e-05
0.000147134
-6.62222e-05
0.000159799
-4.25591e-05
0.000168125
-1.50049e-05
0.000171282
1.55462e-05
0.000169159
4.79569e-05
0.000161531
8.14021e-05
0.000148491
0.000114774
0.000130436
0.000147118
0.000107783
0.000177997
8.0874e-05
0.000207717
4.93727e-05
0.000237404
1.15352e-05
0.000270311
-3.72462e-05
0.000314561
-0.00010067
0.000378646
-0.000173405
0.000446237
-0.000237614
0.000448768
-0.00027923
0.000320344
-0.000303403
6.87804e-05
-0.000308348
-0.000219806
-0.000299698
-0.00045881
-0.000251674
-0.000608333
-0.000131823
-0.000589038
-0.000239688
9.60748e-05
-0.000340841
0.000136992
-0.000622692
0.000127627
-0.000603018
0.000105067
-0.000455279
8.83679e-05
-0.000222691
7.76819e-05
6.5953e-05
7.31384e-05
0.000318181
6.01171e-05
0.000453855
3.52704e-05
0.000462041
2.41235e-06
0.000406623
-3.21545e-05
0.000349996
-6.54881e-05
0.00030967
-9.74334e-05
0.000278717
-0.000127409
0.00024935
-0.00015452
0.000218123
-0.000177179
0.000183586
-0.000194045
0.000145485
-0.00020423
0.00010472
-0.000207239
6.28861e-05
-0.00020316
2.18874e-05
-0.000192455
-1.67546e-05
-0.000176173
-5.15423e-05
-0.000155251
-8.13944e-05
-0.000130627
-0.000105141
-0.000103675
-0.000122419
-7.59897e-05
-0.000132635
-4.889e-05
-0.000136026
-2.35258e-05
-0.000133074
-1.07857e-06
-0.000124402
1.73264e-05
-0.000110794
3.11712e-05
-9.34916e-05
3.99803e-05
-7.37541e-05
4.30147e-05
-5.31508e-05
4.15248e-05
-3.39244e-05
3.59236e-05
-1.77794e-05
2.75732e-05
-6.91521e-06
1.81076e-05
-2.36747e-06
8.69425e-06
-3.1058e-06
-1.7342e-07
-6.91622e-06
-8.26218e-06
-1.07902e-05
-1.61483e-05
-1.15458e-05
-2.45215e-05
-9.37801e-06
-3.3004e-05
-7.94803e-06
-4.07278e-05
-1.028e-05
-4.67655e-05
-1.70723e-05
-5.03977e-05
-2.85307e-05
-4.988e-05
-4.44629e-05
-4.46659e-05
-6.27225e-05
-3.51493e-05
-8.14759e-05
-2.09075e-05
-9.91471e-05
-2.82488e-06
-0.000114363
1.87263e-05
-0.000126448
4.30452e-05
-0.000134373
6.91074e-05
-0.000137358
9.61149e-05
-0.000134749
0.000122293
-0.000125556
0.000146693
-0.000109575
0.000168022
-8.75522e-05
0.00018501
-5.95469e-05
0.000196508
-2.65027e-05
0.000202132
9.92288e-06
0.000201397
4.8692e-05
0.000194138
8.86618e-05
0.000180655
0.000128256
0.000161691
0.000166082
0.000138479
0.000201209
0.000112291
0.000233906
8.42052e-05
0.00026549
5.4669e-05
0.000299846
2.46447e-05
0.000344585
-4.45451e-06
0.000407746
-2.51912e-05
0.000466971
-3.52838e-05
0.000458862
-3.77082e-05
0.000322768
-4.81124e-05
7.91829e-05
-7.00301e-05
-0.000197886
-0.000102711
-0.000426131
-0.000124909
-0.000586134
-9.36232e-05
-0.000620325
-0.000333312
3.75531e-05
-0.000378394
1.32813e-05
-0.000598421
-3.69499e-05
-0.000552787
-9.01632e-05
-0.000402066
-0.00012457
-0.000188285
-0.000128224
6.96071e-05
-0.000103961
0.000293916
-7.29243e-05
0.000422818
-5.43215e-05
0.000443437
-5.50275e-05
0.000407329
-7.19592e-05
0.000366927
-9.7358e-05
0.000335068
-0.00012639
0.000307748
-0.000156646
0.000279605
-0.000185636
0.000247113
-0.000210656
0.000208607
-0.000229328
0.000164158
-0.000239934
0.000115327
-0.000241696
6.46486e-05
-0.000234772
1.49654e-05
-0.000219981
-3.1544e-05
-0.000198313
-7.32094e-05
-0.000171088
-0.000108619
-0.000139572
-0.000136658
-0.000105427
-0.000156566
-7.03553e-05
-0.000167708
-3.61305e-05
-0.000170253
-4.52279e-06
-0.000164683
2.30728e-05
-0.000151998
4.57287e-05
-0.00013345
6.25078e-05
-0.000110271
7.28463e-05
-8.40927e-05
7.6677e-05
-5.69817e-05
7.45219e-05
-3.17697e-05
6.69189e-05
-1.0177e-05
5.52237e-05
4.77959e-06
4.03027e-05
1.25532e-05
2.33792e-05
1.38177e-05
6.1374e-06
1.03255e-05
-1.05472e-05
5.8945e-06
-2.65625e-05
4.46945e-06
-4.25344e-05
6.59377e-06
-5.70119e-05
6.52918e-06
-6.95039e-05
2.2117e-06
-7.83249e-05
-8.25125e-06
-8.23835e-05
-2.44718e-05
-8.24388e-05
-4.44071e-05
-7.65058e-05
-6.86548e-05
-6.53747e-05
-9.26063e-05
-4.8474e-05
-0.000116047
-2.65967e-05
-0.000136239
-7.48681e-07
-0.000152296
2.89385e-05
-0.000164061
6.15018e-05
-0.000169921
9.53001e-05
-0.000168548
0.000128973
-0.00015923
0.00016032
-0.000140922
0.000187488
-0.00011472
0.000209409
-8.14681e-05
0.00022524
-4.23337e-05
0.000234033
1.12893e-06
0.000235054
4.76702e-05
0.000228199
9.55162e-05
0.000213952
0.000142503
0.000193713
0.000186319
0.000169533
0.000225388
0.000143922
0.000259516
0.000119595
0.000289816
9.93156e-05
0.000320125
8.70568e-05
0.000356844
9.15393e-05
0.000403263
0.000114837
0.000443672
0.00014869
0.00042501
0.000172816
0.00029864
0.000167883
8.41186e-05
0.00012981
-0.000159814
7.18972e-05
-0.000368215
1.16517e-05
-0.00052589
-2.84254e-05
-0.000580246
-0.000361738
-1.30821e-05
-0.000365313
-7.25414e-05
-0.000538961
-0.000137633
-0.000487695
-0.000199633
-0.000340065
-0.00024431
-0.000143608
-0.00024555
7.08478e-05
-0.000206766
0.000255132
-0.000152091
0.000368144
-0.000109252
0.000400598
-9.34534e-05
0.000391531
-9.92865e-05
0.00037276
-0.000119466
0.000355247
-0.000147881
0.000336163
-0.000180262
0.000311987
-0.00021286
0.000279712
-0.000241845
0.000237591
-0.000263489
0.000185803
-0.000275069
0.000126907
-0.000275632
6.52124e-05
-0.000265517
4.84891e-06
-0.00024591
-5.11532e-05
-0.0002182
-0.000100922
-0.00018365
-0.000143171
-0.000143822
-0.000176488
-0.00010052
-0.000199869
-5.62681e-05
-0.00021196
-1.33928e-05
-0.000213127
2.58958e-05
-0.000203971
6.00617e-05
-0.000186164
8.79399e-05
-0.000161328
0.000108477
-0.000130808
0.000120775
-9.63916e-05
0.000125632
-6.18398e-05
0.000122167
-2.83057e-05
0.000111951
3.84281e-08
9.42191e-05
2.2511e-05
7.01733e-05
3.65987e-05
4.29339e-05
4.10568e-05
1.49462e-05
3.83132e-05
-1.18901e-05
3.27306e-05
-3.74639e-05
3.00429e-05
-6.3482e-05
3.26114e-05
-8.83902e-05
3.14369e-05
-0.000108691
2.25124e-05
-0.000122868
5.92552e-06
-0.000130106
-1.72332e-05
-0.000130132
-4.43806e-05
-0.000123665
-7.51211e-05
-0.000109597
-0.000106674
-8.89829e-05
-0.000136661
-6.26097e-05
-0.000162612
-3.09265e-05
-0.000183979
5.47488e-06
-0.000200462
4.61218e-05
-0.000210569