/*--------------------------------*- C++ -*----------------------------------*\
| =========                 |                                                 |
| \\      /  F ield         | OpenFOAM: The Open Source CFD Toolbox           |
|  \\    /   O peration     | Version:  2412                                  |
|   \\  /    A nd           | Website:  www.openfoam.com                      |
|    \\/     M anipulation  |                                                 |
\*---------------------------------------------------------------------------*/
FoamFile
{
    version     2.0;
    format      ascii;
    arch        "LSB;label=32;scalar=64";
    class       surfaceScalarField;
    location    "1.75";
    object      alphaPhi0.mercury;
}
// * * * * * * * * * * * * * * * * * * * * * * * * * * * * * * * * * * * * * //

dimensions      [0 3 -1 0 0 0 0];

oriented        oriented;

internalField   nonuniform List<scalar> 
12640
(
2.61486e-05
-2.61486e-05
6.00887e-05
-3.39395e-05
9.35815e-05
-3.34921e-05
0.000125634
-3.20521e-05
0.000155899
-3.02636e-05
0.000183973
-2.80726e-05
0.000209449
-2.54755e-05
0.000231937
-2.24868e-05
0.000251082
-1.91434e-05
0.000266558
-1.54757e-05
0.000278083
-1.15242e-05
0.000285432
-7.34934e-06
0.000288444
-3.01204e-06
0.000287155
1.28834e-06
0.000281331
5.82265e-06
0.000271202
1.01271e-05
0.000256976
1.42252e-05
0.000239036
1.79395e-05
0.000217818
2.12165e-05
0.000193882
2.39361e-05
0.000167817
2.60646e-05
0.000140315
2.75012e-05
0.000112094
2.82212e-05
8.38793e-05
2.82141e-05
5.63974e-05
2.74812e-05
3.0345e-05
2.60517e-05
6.39236e-06
2.39521e-05
-1.48356e-05
2.12274e-05
-3.31843e-05
1.83484e-05
-4.80396e-05
1.48555e-05
-5.92075e-05
1.11681e-05
-6.64425e-05
7.23466e-06
-6.96588e-05
3.21668e-06
-6.90325e-05
-6.24586e-07
-6.44018e-05
-4.62996e-06
-5.61119e-05
-8.29311e-06
-4.46653e-05
-1.1452e-05
-3.0651e-05
-1.40175e-05
-1.48326e-05
-1.58192e-05
1.92593e-06
-1.67606e-05
1.87546e-05
-1.6833e-05
3.46924e-05
-1.59413e-05
4.89522e-05
-1.42596e-05
6.06997e-05
-1.17441e-05
6.93349e-05
-8.63117e-06
7.43721e-05
-5.03437e-06
7.54758e-05
-1.10219e-06
7.27288e-05
2.74788e-06
6.59738e-05
6.75534e-06
5.5189e-05
1.07842e-05
4.06415e-05
1.45454e-05
2.25893e-05
1.80485e-05
1.30366e-06
2.12816e-05
-2.27313e-05
2.40321e-05
-4.90024e-05
2.62707e-05
-7.68364e-05
2.78362e-05
-0.000105517
2.86848e-05
-0.0001343
2.87873e-05
-0.000162435
2.81381e-05
-0.000189196
2.67618e-05
-0.000213854
2.46581e-05
-0.000235779
2.19248e-05
-0.000254428
1.86478e-05
-0.000269309
1.48789e-05
-0.000280087
1.0776e-05
-0.000286471
6.38265e-06
-0.000288279
1.80652e-06
-0.000285699
-2.58102e-06
-0.000278701
-6.99964e-06
-0.000267442
-1.12605e-05
-0.000252147
-1.5297e-05
-0.000233098
-1.90514e-05
-0.000210624
-2.24771e-05
-0.000185082
-2.55434e-05
-0.000156863
-2.8219e-05
-0.000126391
-3.04728e-05
-9.40742e-05
-3.23193e-05
-6.02738e-05
-3.38052e-05
-2.60462e-05
-3.42295e-05
-2.60413e-05
3.34815e-05
-5.96295e-05
7.72404e-05
-7.7697e-05
0.000120102
-7.6352e-05
0.000161248
-7.31962e-05
0.000200513
-6.95267e-05
0.00023756
-6.51171e-05
0.000271981
-5.98946e-05
0.000303363
-5.38673e-05
0.000331301
-4.70797e-05
0.000355431
-3.9606e-05
0.000375421
-3.15144e-05
0.000390971
-2.29007e-05
0.000401871
-1.39134e-05
0.000407859
-4.70196e-06
0.000408988
4.6924e-06
0.000405232
1.38805e-05
0.000396712
2.27436e-05
0.000383624
3.10265e-05
0.000366323
3.85161e-05
0.000345238
4.50204e-05
0.000320946
5.03558e-05
0.000294061
5.43852e-05
0.00026528
5.70014e-05
0.000235349
5.81432e-05
0.000205004
5.7825e-05
0.000174989
5.60655e-05
0.00014596
5.29801e-05
0.000118496
4.86915e-05
9.33954e-05
4.3448e-05
7.09291e-05
3.73218e-05
5.1529e-05
3.05695e-05
3.53685e-05
2.3396e-05
2.25111e-05
1.60728e-05
1.2988e-05
8.89596e-06
6.35281e-06
2.00355e-06
2.46079e-06
-4.40269e-06
8.23409e-07
-9.81811e-06
9.62331e-07
-1.41611e-05
2.39538e-06
-1.72552e-05
4.51324e-06
-1.88781e-05
6.6513e-06
-1.89686e-05
8.22445e-06
-1.75122e-05
8.54423e-06
-1.45786e-05
7.16829e-06
-1.03685e-05
3.55871e-06
-5.02185e-06
-2.67087e-06
1.19606e-06
-1.19088e-05
8.13746e-06
-2.45664e-05
1.54064e-05
-4.06648e-05
2.28525e-05
-6.00972e-05
3.02128e-05
-8.27427e-05
3.71851e-05
-0.000108261
4.35614e-05
-0.000136126
4.91437e-05
-0.000165803
5.37098e-05
-0.0001966
5.70717e-05
-0.000227834
5.90761e-05
-0.000258749
5.96052e-05
-0.000288571
5.8613e-05
-0.000316548
5.61162e-05
-0.000341924
5.21373e-05
-0.000364073
4.68035e-05
-0.000382414
4.02621e-05
-0.00039646
3.26894e-05
-0.000405882
2.42963e-05
-0.000410428
1.53185e-05
-0.000410025
5.97742e-06
-0.000404621
-3.59958e-06
-0.000394188
-1.30145e-05
-0.000378975
-2.22141e-05
-0.000359189
-3.10484e-05
-0.000335127
-3.93612e-05
-0.000307122
-4.70569e-05
-0.000275551
-5.40482e-05
-0.00024081
-6.02862e-05
-0.000203317
-6.5714e-05
-0.000163497
-7.02945e-05
-0.000121709
-7.41076e-05
-7.81216e-05
-7.73901e-05
-3.36501e-05
-7.86937e-05
-5.96945e-05
3.49153e-05
-9.45441e-05
7.96809e-05
-0.000122461
0.000123568
-0.000120237
0.000165784
-0.000115411
0.000206174
-0.000109914
0.00024438
-0.000103321
0.000279995
-9.5509e-05
0.000312604
-8.64751e-05
0.000341809
-7.62842e-05
0.00036722
-6.5018e-05
0.000388486
-5.2781e-05
0.000405305
-3.9721e-05
0.000417406
-2.60156e-05
0.000424598
-1.18962e-05
0.000426769
2.52015e-06
0.000423982
1.6666e-05
0.000416285
3.04402e-05
0.000404011
4.32993e-05
0.000387419
5.5106e-05
0.000366982
6.54558e-05
0.000343241
7.40953e-05
0.000316848
8.07759e-05
0.000288504
8.53437e-05
0.000258903
8.77418e-05
0.00022882
8.79054e-05
0.000198907
8.59774e-05
0.000169861
8.20243e-05
0.000142237
7.63156e-05
0.000116629
6.90562e-05
9.34213e-05
6.05294e-05
7.29531e-05
5.10384e-05
5.5424e-05
4.09255e-05
4.08997e-05
3.05978e-05
2.93542e-05
2.04445e-05
2.05385e-05
1.08239e-05
1.40491e-05
2.0901e-06
9.69338e-06
-5.4609e-06
6.94939e-06
-1.14149e-05
5.26286e-06
-1.55655e-05
4.17719e-06
-1.77914e-05
3.15812e-06
-1.7953e-05
1.71385e-06
-1.60741e-05
-6.36478e-07
-1.22334e-05
-4.386e-06
-6.62084e-06
-1.03055e-05
8.98725e-07
-1.87163e-05
9.60862e-06
-2.9895e-05
1.93168e-05
-4.4133e-05
2.96431e-05
-6.15067e-05
4.02233e-05
-8.19639e-05
5.06666e-05
-0.000105334
6.05526e-05
-0.000131309
6.95346e-05
-0.000159448
7.72832e-05
-0.000189213
8.34767e-05
-0.000220002
8.78623e-05
-0.000251098
9.01735e-05
-0.000281781
9.0289e-05
-0.000311291
8.81223e-05
-0.000338861
8.36829e-05
-0.000363804
7.70747e-05
-0.000385405
6.83983e-05
-0.000403105
5.79568e-05
-0.000416437
4.60173e-05
-0.00042504
3.28971e-05
-0.000428672
1.89506e-05
-0.000427277
4.5833e-06
-0.000420697
-1.01762e-05
-0.000409081
-2.46275e-05
-0.00039261
-3.8681e-05
-0.00037155
-5.21042e-05
-0.000346199
-6.47091e-05
-0.000316901
-7.63521e-05
-0.000284048
-8.68986e-05
-0.000248057
-9.62721e-05
-0.000209348
-0.000104416
-0.000168348
-0.000111288
-0.00012541
-0.000117041
-8.07091e-05
-0.000122088
-3.51425e-05
-0.00012426
-9.48397e-05
3.63348e-05
-0.000130878
8.23005e-05
-0.000168424
0.000127337
-0.000165271
0.00017072
-0.000158793
0.000212276
-0.000151468
0.000251645
-0.000142689
0.000288385
-0.000132249
0.000322081
-0.000120172
0.000352304
-0.000106508
0.000378645
-9.13589e-05
0.000400709
-7.48467e-05
0.000418156
-5.71687e-05
0.000430683
-3.85437e-05
0.000438054
-1.92682e-05
0.000440193
3.79531e-07
0.000436951
1.99071e-05
0.00042854
3.88506e-05
0.000415176
5.66619e-05
0.000397204
7.30753e-05
0.000375141
8.75165e-05
0.000349598
9.96355e-05
0.000321269
0.000109102
0.000290903
0.000115707
0.000259361
0.000119281
0.000227379
0.000119885
0.00019574
0.000117615
0.000165145
0.000112618
0.000136234
0.000105227
0.000109564
9.57263e-05
8.55568e-05
8.45371e-05
6.45567e-05
7.20411e-05
4.67536e-05
5.87304e-05
3.22369e-05
4.5114e-05
2.09496e-05
3.17323e-05
1.27211e-05
1.90562e-05
7.19149e-06
7.62257e-06
4.13016e-06
-2.40254e-06
2.94853e-06
-1.02401e-05
3.04244e-06
-1.56644e-05
3.8436e-06
-1.85934e-05
4.74681e-06
-1.88539e-05
5.22234e-06
-1.65462e-05
4.46838e-06
-1.14763e-05
1.8907e-06
-4.04151e-06
-2.86055e-06
5.64945e-06
-1.04249e-05
1.71704e-05
-2.11558e-05
3.0044e-05
-3.52196e-05
4.37032e-05
-5.27167e-05
5.77179e-05
-7.35991e-05
7.15483e-05
-9.77058e-05
8.46602e-05
-0.000124708
9.65385e-05
-0.000154163
0.00010674
-0.000185506
0.000114821
-0.000218083
0.000120439
-0.000251145
0.000123234
-0.000283894
0.000123035
-0.000315493
0.000119716
-0.00034513
0.000113315
-0.000371927
0.000103867
-0.000395235
9.17031e-05
-0.000414386
7.71051e-05
-0.000428848
6.04788e-05
-0.000438264
4.23144e-05
-0.000442371
2.30615e-05
-0.000441072
3.28777e-06
-0.000434327
-1.69159e-05
-0.000422309
-3.66421e-05
-0.000405223
-5.57633e-05
-0.000383375
-7.39488e-05
-0.000357082
-9.09983e-05
-0.000326758
-0.000106671
-0.000292801
-0.000120852
-0.000255652
-0.000133419
-0.000215756
-0.000144311
-0.000173524
-0.000153521
-0.000129356
-0.000161211
-8.34356e-05
-0.000168008
-3.65963e-05
-0.000171101
-0.000131435
3.82117e-05
-0.000169088
8.59765e-05
-0.000216186
0.000132702
-0.000211995
0.000177775
-0.000203864
0.000221013
-0.000194705
0.00026203
-0.000183705
0.000300405
-0.000170624
0.00033567
-0.000155437
0.000367368
-0.000138206
0.000395039
-0.000119031
0.000418254
-9.80619e-05
0.000436611
-7.55264e-05
0.000449759
-5.16923e-05
0.000457415
-2.69251e-05
0.000459425
-1.63054e-06
0.000455538
2.37935e-05
0.000446132
4.82555e-05
0.000431215
7.15769e-05
0.000411287
9.3001e-05
0.000386856
0.000111945
0.000358585
0.000127903
0.000327366
0.000140318
0.00029403
0.00014904
0.000259465
0.000153844
0.000224587
0.000154761
0.000190266
0.000151934
0.000157242
0.000145642
0.000126279
0.00013619
9.7929e-05
0.000124077
7.26823e-05
0.000109783
5.09089e-05
9.38154e-05
3.28221e-05
7.68173e-05
1.85181e-05
5.94132e-05
7.94141e-06
4.23015e-05
9.98016e-07
2.59947e-05
-2.7737e-06
1.13916e-05
-3.85286e-06
-1.32749e-06
-2.70427e-06
-1.1394e-05
-4.37016e-08
-1.83277e-05
3.57683e-06
-2.22122e-05
7.33532e-06
-2.26078e-05
1.04927e-05
-1.96987e-05
1.21812e-05
-1.31618e-05
1.18635e-05
-3.72407e-06
8.69563e-06
8.814e-06
2.42723e-06
2.34336e-05
-7.26364e-06
3.973e-05
-2.09199e-05
5.73568e-05
-3.85446e-05
7.53431e-05
-6.00965e-05
9.31033e-05
-8.53759e-05
0.000109944
-0.000114027
0.000125194
-0.000145567
0.000138282
-0.000179394
0.000148648
-0.000214743
0.000155786
-0.000250839
0.000159327
-0.000286711
0.000158903
-0.000321438
0.00015444
-0.000354044
0.000145919
-0.000383651
0.000133473
-0.000409436
0.000117488
-0.000430658
9.8329e-05
-0.000446717
7.65402e-05
-0.000457247
5.28466e-05
-0.000462035
2.78517e-05
-0.000460833
2.08789e-06
-0.000453887
-2.38601e-05
-0.000441272
-4.92571e-05
-0.000423303
-7.37328e-05
-0.000400285
-9.69681e-05
-0.000372657
-0.000118629
-0.000340845
-0.000138486
-0.00030531
-0.000156389
-0.000266505
-0.000172229
-0.000224881
-0.000185941
-0.000180914
-0.000197494
-0.000134975
-0.000207154
-8.72588e-05
-0.000215723
-3.85211e-05
-0.000219839
-0.000169955
4.05598e-05
-0.000209647
9.05843e-05
-0.000266208
0.000139485
-0.000260893
0.000186696
-0.000251073
0.00023209
-0.000240098
0.00027525
-0.000226865
0.000315722
-0.000211097
0.000353024
-0.00019274
0.000386657
-0.00017184
0.000416116
-0.000148491
0.000440904
-0.00012285
0.000460539
-9.5162e-05
0.000474585
-6.57384e-05
0.000482696
-3.50364e-05
0.000484593
-3.52778e-06
0.00048022
2.81657e-05
0.000469382
5.90928e-05
0.000452619
8.83384e-05
0.000430119
0.000115499
0.000402659
0.000139402
0.000371013
0.000159548
0.000336036
0.000175294
0.000298782
0.000186292
0.000260347
0.000192278
0.000221742
0.000193365
0.000183977
0.000189698
0.000147923
0.000181695
0.000114326
0.000169788
8.38566e-05
0.000154545
5.70571e-05
0.00013658
3.43132e-05
0.000116558
1.59215e-05
9.5209e-05
2.01282e-06
7.33175e-05
-7.43437e-06
5.17417e-05
-1.30421e-05
3.15989e-05
-1.4913e-05
1.32641e-05
-1.35472e-05
-2.69096e-06
-9.61181e-06
-1.53288e-05
-3.75505e-06
-2.41847e-05
3.15557e-06
-2.91227e-05
1.03433e-05
-2.97954e-05
1.65742e-05
-2.59305e-05
2.13494e-05
-1.79395e-05
2.36697e-05
-6.04863e-06
2.27529e-05
9.72555e-06
1.81391e-05
2.80427e-05
9.38761e-06
4.84788e-05
-3.56662e-06
7.03115e-05
-2.12462e-05
9.30261e-05
-4.36289e-05
0.000115491
-7.03816e-05
0.000136701
-0.00010113
0.000155945
-0.000135334
0.000172486
-0.000172329
0.000185641
-0.000211265
0.00019472
-0.000251192
0.00019925
-0.000291112
0.000198822
-0.000329886
0.000193215
-0.000366444
0.000182478
-0.000399649
0.000166679
-0.000428533
0.000146372
-0.000452302
0.000122099
-0.000470383
9.4621e-05
-0.000482282
6.47437e-05
-0.00048776
3.33284e-05
-0.000486717
1.0427e-06
-0.000479339
-3.12407e-05
-0.00046586
-6.274e-05
-0.000446618
-9.29785e-05
-0.000422063
-0.000121528
-0.000392663
-0.000148034
-0.000358892
-0.000172259
-0.000321274
-0.000194008
-0.00028032
-0.000213186
-0.00023651
-0.000229755
-0.00019031
-0.000243696
-0.000142111
-0.000255354
-9.20946e-05
-0.000265738
-4.09294e-05
-0.000271004
-0.000210885
4.33962e-05
-0.000253041
9.61363e-05
-0.000318946
0.000147621
-0.000312376
0.000197439
-0.000300889
0.000245427
-0.000288086
0.000291215
-0.000272653
0.000334277
-0.000254159
0.000374121
-0.000232584
0.000410203
-0.000207923
0.00044195
-0.000180239
0.000468787
-0.000149688
0.000490136
-0.000116512
0.000505463
-8.10668e-05
0.000514279
-4.38536e-05
0.00051623
-5.47927e-06
0.000511025
3.33697e-05
0.000498841
7.12757e-05
0.000479647
0.000107532
0.000454126
0.000141019
0.000422824
0.000170704
0.000386726
0.000195646
0.000346978
0.000215042
0.000304849
0.000228421
0.000261548
0.000235578
0.000218327
0.000236586
0.000176246
0.000231778
0.000136389
0.00022155
9.95461e-05
0.00020663
6.64763e-05
0.000187614
3.77933e-05
0.000165262
1.3889e-05
0.000140463
-4.68064e-06
0.000113784
-1.81771e-05
8.6817e-05
-2.67105e-05
6.02749e-05
-3.05363e-05
3.54269e-05
-2.98945e-05
1.26292e-05
-2.54758e-05
-7.10123e-06
-1.808e-05
-2.27182e-05
-8.47319e-06
-3.37884e-05
2.43911e-06
-4.00353e-05
1.35429e-05
-4.09027e-05
2.4083e-05
-3.64763e-05
3.25233e-05
-2.63864e-05
3.81962e-05
-1.17279e-05
4.02123e-05
7.70436e-06
3.78761e-05
3.0376e-05
3.05074e-05
5.58475e-05
1.7869e-05
8.29526e-05
-1.42158e-08
0.000110914
-2.32312e-05
0.000138713
-5.17861e-05
0.000165259
-8.50974e-05
0.000189257
-0.000122601
0.000209988
-0.000163496
0.000226534
-0.000206938
0.00023816
-0.000251771
0.000244083
-0.000296784
0.000243835
-0.0003407
0.000237132
-0.000382129
0.000223908
-0.0004199
0.000204449
-0.000452782
0.000179251
-0.000479792
0.000149105
-0.000500342
0.000115165
-0.000513779
7.81766e-05
-0.000520097
3.96413e-05
-0.000519042
-1.56055e-08
-0.000510993
-3.92928e-05
-0.000496278
-7.74565e-05
-0.000475354
-0.000113904
-0.000448755
-0.00014813
-0.000417061
-0.000179729
-0.000380839
-0.000208479
-0.000340651
-0.000234192
-0.000297054
-0.00025678
-0.00025056
-0.000276247
-0.000201661
-0.000292593
-0.00015073
-0.000306283
-9.79394e-05
-0.000318527
-4.38499e-05
-0.000325094
-0.000254737
4.67384e-05
-0.000299778
0.000102628
-0.000374832
0.000157121
-0.000366868
0.000209965
-0.000353731
0.000261035
-0.000339155
0.000309908
-0.000321526
0.000356098
-0.000300351
0.000399043
-0.00027553
0.000438141
-0.000247023
0.000472756
-0.000214855
0.000502233
-0.000179166
0.00052582
-0.000140101
0.000542881
-9.81295e-05
0.000552787
-5.3762e-05
0.000555053
-7.74631e-06
0.000549084
3.93376e-05
0.000535173
8.51867e-05
0.000513169
0.000129536
0.000483794
0.000170395
0.000447687
0.000206811
0.000406151
0.000237183
0.000360456
0.000260738
0.000312132
0.000276745
0.000262739
0.000284971
0.000213734
0.000285591
0.000166466
0.000279045
0.000121949
0.000266066
8.12294e-05
0.00024735
4.50427e-05
0.000223802
1.41283e-05
0.000196175
-1.08198e-05
0.000165413
-3.0094e-05
0.000133065
-4.33417e-05
0.000100072
-5.06548e-05
6.75905e-05
-5.19859e-05
3.67605e-05
-4.84012e-05
9.04965e-06
-4.0268e-05
-1.52283e-05
-2.86469e-05
-3.4334e-05
-1.44318e-05
-4.80004e-05
1.44217e-06
-5.5909e-05
1.78302e-05
-5.72936e-05
3.2973e-05
-5.1624e-05
4.61351e-05
-3.95537e-05
5.59176e-05
-2.15145e-05
6.15693e-05
2.0506e-06
6.19729e-05
2.99725e-05
5.63335e-05
6.14887e-05
4.44654e-05
9.48236e-05
2.60715e-05
0.000129311
1.6553e-06
0.00016313
-2.87507e-05
0.000195665
-6.51353e-05
0.00022564
-0.000106623
0.000251474
-0.000152354
0.000272264
-0.000201265
0.000287072
-0.000252154
0.000294973
-0.000303575
0.000295258
-0.000353979
0.000287537
-0.000401668
0.000271597
-0.000445096
0.000247874
-0.000482879
0.000217029
-0.000513914
0.000180136
-0.000537216
0.000138463
-0.000552655
9.36142e-05
-0.000559603
4.65886e-05
-0.000558414
-1.20455e-06
-0.00054937
-4.83359e-05
-0.000532971
-9.38542e-05
-0.000509826
-0.000137047
-0.000480622
-0.000177334
-0.000446043
-0.000214308
-0.000406771
-0.000247749
-0.000363476
-0.000277484
-0.000316729
-0.000303525
-0.000267073
-0.000325902
-0.000214982
-0.000344682
-0.000160857
-0.000360405
-0.000104821
-0.000374561
-4.73087e-05
-0.000382607
-0.000302047
5.06036e-05
-0.00035038
0.000110042
-0.000434268
0.000167954
-0.000424777
0.000224268
-0.000410044
0.000278881
-0.000393769
0.000331374
-0.000374018
0.00038123
-0.000350208
0.000427868
-0.000322169
0.000470641
-0.000289798
0.000508826
-0.000253043
0.000541588
-0.00021193
0.00056812
-0.000166635
0.000587531
-0.000117543
0.000598996
-6.52283e-05
0.00060177
-1.05218e-05
0.000595479
4.56275e-05
0.000579393
0.000101272
0.00055426
0.000154669
0.000520135
0.00020452
0.000478235
0.000248712
0.0004298
0.000285619
0.000376546
0.000313992
0.000320558
0.000332733
0.000263659
0.000341868
0.000207639
0.000341611
0.00015402
0.000332665
0.000104054
0.000316032
5.86888e-05
0.000292716
1.87545e-05
0.000263738
-1.45472e-05
0.000229474
-4.16666e-05
0.00019253
-6.1653e-05
0.000153054
-7.42934e-05
0.000112716
-7.97297e-05
7.30258e-05
-7.84001e-05
3.54275e-05
-7.09723e-05
1.61901e-06
-5.85672e-05
-2.7636e-05
-4.19412e-05
-5.09631e-05
-2.20401e-05
-6.79042e-05
3.449e-08
-7.79862e-05
2.25994e-05
-7.9861e-05
4.40072e-05
-7.30341e-05
6.29e-05
-5.84475e-05
7.77753e-05
-3.63895e-05
8.76734e-05
-7.84607e-06
9.11455e-05
2.65023e-05
8.77195e-05
6.49164e-05
7.68436e-05
0.0001057
5.86538e-05
0.0001475
3.25957e-05
0.000189187
-4.82669e-07
0.000228741
-4.0408e-05
0.000265563
-8.66154e-05
0.000297681
-0.000138163
0.000323812
-0.000193815
0.000342726
-0.00025217
0.00035333
-0.000311521
0.000354609
-0.000369912
0.000345927
-0.000425359
0.000327042
-0.00047596
0.000298473
-0.00051981
0.000260878
-0.000555616
0.000215944
-0.000582489
0.000165338
-0.000599692
0.000110821
-0.000607394
5.42942e-05
-0.00060571
-2.88646e-06
-0.000595167
-5.88774e-05
-0.000576475
-0.000112547
-0.00055044
-0.000163081
-0.00051792
-0.000209856
-0.000479795
-0.000252437
-0.000436863
-0.000290684
-0.000389842
-0.000324508
-0.000339389
-0.000353981
-0.000286042
-0.000379253
-0.000230281
-0.000400443
-0.000172502
-0.000418183
-0.000112775
-0.000434289
-5.13334e-05
-0.000444052
-0.000353382
5.49927e-05
-0.000405371
0.000118353
-0.000497627
0.000180066
-0.000486489
0.000240295
-0.000470272
0.000298945
-0.000452419
0.000355564
-0.000430638
0.000409675
-0.00040432
0.000460676
-0.000373173
0.000507826
-0.00033695
0.000550364
-0.000295583
0.000587319
-0.000248887
0.000617641
-0.000196959
0.000640237
-0.000140141
0.000654006
-7.89987e-05
0.000657926
-1.44433e-05
0.000651125
5.24273e-05
0.000633343
0.000119054
0.000604183
0.000183828
0.000564459
0.000244243
0.000515207
0.000297963
0.000458082
0.000342743
0.000395632
0.000376441
0.000330051
0.000398314
0.000263894
0.000408025
0.000199408
0.000406099
0.000138262
0.000393814
8.18661e-05
0.000372429
3.11544e-05
0.000343428
-1.25241e-05
0.00030742
-4.96409e-05
0.000266587
-7.86034e-05
0.000221487
-9.93254e-05
0.000173773
-0.000111244
0.000124634
-0.000114543
7.63231e-05
-0.000110016
3.08974e-05
-9.80869e-05
-1.03135e-05
-8.03163e-05
-4.54113e-05
-5.78744e-05
-7.34104e-05
-3.14667e-05
-9.43172e-05
-2.17646e-06
-0.00010728
2.8156e-05
-0.000110196
5.71034e-05
-0.000101982
8.29046e-05
-8.42476e-05
0.000104084
-5.75667e-05
0.000119232
-2.29911e-05
0.000126777
1.89581e-05
0.000126144
6.55491e-05
0.000116562
0.00011528
9.77677e-05
0.000166291
7.02709e-05
0.00021668
3.40962e-05
0.000264913
-9.95912e-06
0.000309618
-6.16806e-05
0.000349402
-0.000120076
0.000382208
-0.000183853
0.000406502
-0.000251365
0.000420839
-0.000320522
0.000423764
-0.000389013
0.000414415
-0.000454177
0.000392206
-0.000513438
0.000357735
-0.000564758
0.000312202
-0.000606372
0.000257561
-0.000637087
0.000196057
-0.000656516
0.000130253
-0.000664716
6.24947e-05
-0.000661972
-5.63324e-06
-0.000649218
-7.16331e-05
-0.000627409
-0.000134358
-0.000597619
-0.000192872
-0.000560955
-0.000246521
-0.000518446
-0.000294947
-0.000471103
-0.000338029
-0.000419698
-0.000375917
-0.000364951
-0.000408733
-0.000307451
-0.000436757
-0.000247602
-0.000460294
-0.000185735
-0.000480051
-0.00012184
-0.000498187
-5.59455e-05
-0.00050995
-0.000409329
5.99091e-05
-0.000465279
0.000127528
-0.000565244
0.000193379
-0.000552339
0.000257917
-0.00053481
0.000321035
-0.000515537
0.000382355
-0.000491959
0.000441341
-0.000463307
0.000497386
-0.000429218
0.000549808
-0.000389374
0.00059763
-0.000343406
0.000639809
-0.000291067
0.000675047
-0.000232198
0.000701932
-0.000167028
0.000719034
-9.61015e-05
0.00072501
-2.04206e-05
0.000718194
5.92415e-05
0.000698264
0.000138984
0.000664883
0.000217207
0.00061828
0.000290845
0.000559949
0.000356292
0.000492252
0.000410437
0.00041781
0.000450883
0.000340286
0.000475839
0.000262812
0.0004855
0.00018811
0.000480803
0.000118259
0.000463669
5.44785e-05
0.000436211
-2.03082e-06
0.000399937
-5.09088e-05
0.000356303
-9.17861e-05
0.000307461
-0.000123442
0.000253141
-0.000144995
0.000195326
-0.000156061
0.000135699
-0.000156819
7.7083e-05
-0.000147923
2.2004e-05
-0.000130799
-2.7434e-05
-0.000107251
-6.89575e-05
-7.79054e-05
-0.000102756
-4.38037e-05
-0.000128419
-5.58192e-06
-0.000145503
3.41236e-05
-0.000149902
7.24209e-05
-0.000140279
0.000106615
-0.00011844
0.000135647
-8.65959e-05
0.000156864
-4.42066e-05
0.000169395
6.4259e-06
0.000172034
6.29084e-05
0.000163952
0.000123359
0.000144917
0.000185323
0.000115424
0.000246172
7.57774e-05
0.000304559
2.68742e-05
0.000358521
-3.07077e-05
0.000406984
-9.7206e-05
0.000448704
-0.000170576
0.000479868
-0.00024912
0.000499379
-0.000330464
0.000505105
-0.000411433
0.000495384
-0.000488748
0.000469525
-0.000559124
0.000428115
-0.000619575
0.000372656
-0.00066801
0.000305996
-0.000703273
0.000231317
-0.000724792
0.00015177
-0.000732879
7.05793e-05
-0.000728377
-1.01377e-05
-0.000712455
-8.75568e-05
-0.000686455
-0.000160354
-0.000651813
-0.000227509
-0.000609925
-0.000288405
-0.000562092
-0.000342776
-0.000509445
-0.000390674
-0.000453005
-0.000432357
-0.000393435
-0.000468305
-0.000331287
-0.000498908
-0.000266911
-0.000524671
-0.000200567
-0.000546397
-0.000132057
-0.000566699
-6.11839e-05
-0.000580825
-0.000470514
6.53563e-05
-0.000530634
0.000137463
-0.00063735
0.000207785
-0.00062266
0.000277011
-0.000604036
0.00034509
-0.000583616
0.000411578
-0.000558447
0.000476036
-0.000527765
0.000537932
-0.000491114
0.000596503
-0.000447946
0.000650785
-0.000397688
0.000699454
-0.000339737
0.000740984
-0.000273729
0.000773614
-0.000199658
0.000795374
-0.000117862
0.000804281
-2.93281e-05
0.000798888
6.46331e-05
0.000777331
0.000160538
0.000738784
0.000255752
0.000684033
0.000345594
0.000614382
0.000425941
0.000532792
0.000492027
0.000443535
0.000540141
0.000350867
0.000568509
0.000259352
0.000577014
0.000172553
0.0005676
9.26473e-05
0.000543574
2.05515e-05
0.000508306
-4.24649e-05
0.000462948
-9.7177e-05
0.000411019
-0.000142421
0.000352703
-0.000176798
0.000287513
-0.00019915
0.000217676
-0.000209049
0.000145594
-0.000206263
7.42938e-05
-0.000192139
7.8777e-06
-0.000168982
-5.05898e-05
-0.000138622
-9.93169e-05
-0.00010226
-0.000139116
-5.92204e-05
-0.000171458
-1.02979e-05
-0.000194424
4.09045e-05
-0.000201103
8.99893e-05
-0.000189361
0.000134866
-0.000163313
0.000172349
-0.000124077
0.000201511
-7.33674e-05
0.000220048
-1.21132e-05
0.000226647
5.63058e-05
0.00022023
0.000129772
0.00020166
0.00020389
0.000170141
0.000277691
0.00012638
0.00034832
7.17468e-05
0.000413154
6.74621e-06
0.000471981
-6.80979e-05
0.000523543
-0.000152681
0.000564446
-0.000244642
0.000591337
-0.000341002
0.000601466
-0.000437823
0.000592208
-0.000530649
0.000562356
-0.000614687
0.000512154
-0.000686389
0.000444356
-0.000743071
0.000362675
-0.000783167
0.000271409
-0.000806643
0.000175247
-0.00081392
7.78586e-05
-0.000806457
-1.75948e-05
-0.000785982
-0.000108035
-0.00075435
-0.000191985
-0.000713434
-0.000268423
-0.000665003
-0.000336839
-0.000610686
-0.000397094
-0.000551848
-0.000449513
-0.000489529
-0.000494678
-0.000424561
-0.000533277
-0.000357376
-0.000566096
-0.000288205
-0.000593844
-0.000217047
-0.000617557
-0.000143594
-0.000640154
-6.71664e-05
-0.000657254
-0.000537681
7.12717e-05
-0.000601905
0.000148032
-0.000714111
0.000223102
-0.000697731
0.000297458
-0.000678392
0.000370856
-0.000657014
0.000442974
-0.000630565
0.000513446
-0.000598237
0.000581908
-0.000559577
0.000647666
-0.000513706
0.000709681
-0.000459704
0.000766434
-0.00039649
0.000816065
-0.000323361
0.000856285
-0.000239879
0.000884695
-0.000146272
0.000898725
-4.33584e-05
0.000895461
6.78956e-05
0.000872703
0.000183296
0.000829267
0.000299187
0.000764554
0.000410307
0.000680663
0.000509832
0.000581479
0.000591211
0.000472506
0.000649112
0.000360594
0.000680419
0.000251912
0.000685691
0.000151041
0.000668465
6.03094e-05
0.000634299
-1.92784e-05
0.000587892
-8.99215e-05
0.000533581
-0.000151326
0.000472417
-0.000201518
0.000402892
-0.000239724
0.000325711
-0.000263559
0.000241505
-0.00027162
0.00015365
-0.000264067
6.67355e-05
-0.000243335
-1.28587e-05
-0.000212886
-8.10421e-05
-0.000174434
-0.00013777
-0.000129723
-0.000183828
-7.71618e-05
-0.000224019
-1.67265e-05
-0.000254858
4.76531e-05
-0.00026548
0.000109886
-0.000251592
0.000166191
-0.000219616
0.000215321
-0.000173206
0.00025379
-0.000111838
0.000280381
-3.87078e-05
0.000291466
4.52176e-05
0.000287824
0.00013341
0.000268304
0.000223409
0.000234789
0.000311205
0.000187836
0.000395272
0.000127359
0.000473627
5.40531e-05
0.000545283
-3.01753e-05
0.000607768
-0.000128159
0.000662429
-0.00023628
0.00069946
-0.000351428
0.000716618
-0.00046853
0.000709312
-0.000580927
0.00067475
-0.000682579
0.000613802
-0.000768272
0.000530047
-0.000834707
0.000429112
-0.000880152
0.000316857
-0.000904584
0.000199686
-0.000909799
8.3073e-05
-0.000897675
-2.9718e-05
-0.000870788
-0.000134932
-0.000831663
-0.000231124
-0.000782747
-0.000317348
-0.000726246
-0.000393346
-0.000664058
-0.000459286
-0.000597846
-0.000515725
-0.000528918
-0.000563608
-0.000458066
-0.000604132
-0.000385564
-0.000638599
-0.000311458
-0.000667952
-0.000235365
-0.00069365
-0.000156616
-0.000718903
-7.40047e-05
-0.000739866
-0.000611687
7.75603e-05
-0.000679466
0.000159074
-0.000795626
0.000239188
-0.000777847
0.000318954
-0.000758159
0.000397982
-0.000736043
0.000475959
-0.000708544
0.000552835
-0.000675114
0.000628535
-0.000635278
0.000702534
-0.000587704
0.000773768
-0.000530938
0.000840435
-0.000463156
0.000900307
-0.000383232
0.00095072
-0.00029029
0.000988498
-0.00018405
0.00101008
-6.49411e-05
0.00101192
6.60562e-05
0.000989883
0.000205334
0.000941118
0.000347952
0.000864801
0.000486624
0.000762906
0.000611727
0.000640602
0.000713514
0.000506026
0.000783685
0.000369173
0.000817271
0.000239478
0.000815383
0.000123097
0.000784841
2.15986e-05
0.000735795
-6.56244e-05
0.000675114
-0.000142623
0.000610583
-0.000210214
0.000540002
-0.000267692
0.00046037
-0.0003112
0.000369222
-0.000337179
0.000267489
-0.000342158
0.000158634
-0.000327551
5.21342e-05
-0.000297716
-4.26889e-05
-0.000257949
-0.000120807
-0.00021162
-0.000184099
-0.000157007
-0.000238441
-9.32223e-05
-0.000287804
-2.14593e-05
-0.000326622
5.44854e-05
-0.000341426
0.00013051
-0.000327617
0.000200376
-0.000289483
0.000261776
-0.000234609
0.000312947
-0.000163012
0.000348315
-7.40789e-05
0.000366912
2.66179e-05
0.000365645
0.000134678
0.000346491
0.000242564
0.000309586
0.000348112
0.000257849
0.000447007
0.000191103
0.00054037
0.000110546
0.000625837
1.41201e-05
0.000704193
-9.63819e-05
0.000772933
-0.000222906
0.000825985
-0.000361455
0.000855167
-0.0005045
0.000852354
-0.000642787
0.000813037
-0.00076697
0.000737988
-0.000870033
0.000633115
-0.000947277
0.00050636
-0.000997967
0.000367545
-0.00102211
0.000223825
-0.00102319
8.41446e-05
-0.00100357
-4.93431e-05
-0.000967611
-0.000170894
-0.000918573
-0.000280161
-0.000859424
-0.000376498
-0.000792897
-0.000459874
-0.000721331
-0.000530851
-0.000646648
-0.000590407
-0.00057035
-0.000639906
-0.000493218
-0.000681265
-0.000415419
-0.0007164
-0.000336551
-0.000746821
-0.000255777
-0.000774424
-0.000171653
-0.000803028
-8.20812e-05
-0.000829441
-0.00069377
8.39114e-05
-0.000763378
0.000170047
-0.000881764
0.000255645
-0.000863447
0.000341062
-0.000843577
0.000425722
-0.000820705
0.000509512
-0.000792335
0.000593001
-0.000758604
0.000676675
-0.000718952
0.000760414
-0.000671443
0.000843009
-0.000613531
0.000922613
-0.000542758
0.000996376
-0.000456993
0.001061
-0.000354917
0.00111259
-0.000235636
0.00114654
-9.88872e-05
0.00115738
5.52134e-05
0.00113892
0.000223804
0.00108592
0.000400951
0.000996123
0.000576419
0.000871298
0.000736551
0.000718225
0.000866586
0.000549048
0.000952862
0.000379488
0.000986836
0.000224496
0.000970381
9.26498e-05
0.000916691
-1.50644e-05
0.00084352
-0.000107731
0.000767778
-0.000189344
0.000692209
-0.000264048
0.000614714
-0.000330121
0.000526441
-0.000382538
0.000421637
-0.00041232
0.000297268
-0.000413744
0.000160055
-0.000387945
2.6335e-05
-0.000342718
-8.79157e-05
-0.000291657
-0.000171868
-0.00023705
-0.000238706
-0.000175127
-0.000300365
-0.000101215
-0.000361718
-2.04695e-05
-0.00040737
6.28847e-05
-0.000424782
0.000147417
-0.000412152
0.000229676
-0.000371746
0.000306529
-0.000311465
0.000373325
-0.000229811
0.000423734
-0.000124491
0.000450183
1.67658e-07
0.000451638
0.000133222
0.000429944
0.000264255
0.00038898
0.000389071
0.000330192
0.000505791
0.000256889
0.00061367
0.000169158
0.000713568
6.50368e-05
0.000808317
-5.9156e-05
0.000897129
-0.000207212
0.000974042
-0.000375098
0.00102305
-0.000552712
0.00102997
-0.000725246
0.000985576
-0.000878527
0.000891274
-0.00100237
0.000756959
-0.00109224