/*--------------------------------*- C++ -*----------------------------------*\
| =========                 |                                                 |
| \\      /  F ield         | OpenFOAM: The Open Source CFD Toolbox           |
|  \\    /   O peration     | Version:  2412                                  |
|   \\  /    A nd           | Website:  www.openfoam.com                      |
|    \\/     M anipulation  |                                                 |
\*---------------------------------------------------------------------------*/
FoamFile
{
    version     2.0;
    format      ascii;
    arch        "LSB;label=32;scalar=64";
    class       volScalarField;
    location    "0.1";
    object      p;
}
// * * * * * * * * * * * * * * * * * * * * * * * * * * * * * * * * * * * * * //

dimensions      [1 -1 -2 0 0 0 0];

internalField   nonuniform List<scalar> 
6400
(
7537.53
7537.53
7537.53
7537.53
7537.53
7537.53
7537.53
7537.53
7537.53
7537.54
7537.54
7537.54
7537.54
7537.55
7537.55
7537.55
7537.56
7537.56
7537.56
7537.56
7537.57
7537.57
7537.57
7537.58
7537.58
7537.58
7537.59
7537.59
7537.59
7537.6
7537.6
7537.6
7537.6
7537.6
7537.61
7537.61
7537.61
7537.61
7537.61
7537.61
7537.61
7537.61
7537.61
7537.61
7537.61
7537.61
7537.61
7537.6
7537.6
7537.6
7537.6
7537.59
7537.59
7537.59
7537.59
7537.58
7537.58
7537.58
7537.57
7537.57
7537.57
7537.57
7537.56
7537.56
7537.56
7537.55
7537.55
7537.55
7537.55
7537.54
7537.54
7537.54
7537.54
7537.54
7537.54
7537.53
7537.53
7537.53
7537.53
7537.53
7150.52
7150.52
7150.52
7150.52
7150.52
7150.53
7150.53
7150.53
7150.53
7150.53
7150.53
7150.54
7150.54
7150.54
7150.54
7150.55
7150.55
7150.55
7150.56
7150.56
7150.56
7150.57
7150.57
7150.57
7150.58
7150.58
7150.58
7150.59
7150.59
7150.59
7150.59
7150.6
7150.6
7150.6
7150.6
7150.6
7150.6
7150.6
7150.61
7150.61
7150.61
7150.61
7150.6
7150.6
7150.6
7150.6
7150.6
7150.6
7150.6
7150.6
7150.59
7150.59
7150.59
7150.59
7150.58
7150.58
7150.58
7150.57
7150.57
7150.57
7150.56
7150.56
7150.56
7150.56
7150.55
7150.55
7150.55
7150.54
7150.54
7150.54
7150.54
7150.54
7150.53
7150.53
7150.53
7150.53
7150.53
7150.53
7150.53
7150.53
6763.51
6763.52
6763.52
6763.52
6763.52
6763.52
6763.52
6763.52
6763.53
6763.53
6763.53
6763.53
6763.53
6763.54
6763.54
6763.54
6763.55
6763.55
6763.55
6763.56
6763.56
6763.56
6763.57
6763.57
6763.57
6763.58
6763.58
6763.58
6763.58
6763.59
6763.59
6763.59
6763.59
6763.6
6763.6
6763.6
6763.6
6763.6
6763.6
6763.6
6763.6
6763.6
6763.6
6763.6
6763.6
6763.6
6763.6
6763.59
6763.59
6763.59
6763.59
6763.59
6763.58
6763.58
6763.58
6763.58
6763.57
6763.57
6763.57
6763.56
6763.56
6763.56
6763.55
6763.55
6763.55
6763.54
6763.54
6763.54
6763.54
6763.53
6763.53
6763.53
6763.53
6763.53
6763.53
6763.52
6763.52
6763.52
6763.52
6763.52
6376.51
6376.51
6376.51
6376.51
6376.51
6376.52
6376.52
6376.52
6376.52
6376.52
6376.52
6376.53
6376.53
6376.53
6376.54
6376.54
6376.54
6376.54
6376.55
6376.55
6376.55
6376.56
6376.56
6376.56
6376.57
6376.57
6376.57
6376.58
6376.58
6376.58
6376.59
6376.59
6376.59
6376.59
6376.59
6376.59
6376.6
6376.6
6376.6
6376.6
6376.6
6376.6
6376.6
6376.6
6376.6
6376.59
6376.59
6376.59
6376.59
6376.59
6376.58
6376.58
6376.58
6376.58
6376.57
6376.57
6376.57
6376.56
6376.56
6376.56
6376.56
6376.55
6376.55
6376.55
6376.54
6376.54
6376.54
6376.53
6376.53
6376.53
6376.53
6376.53
6376.52
6376.52
6376.52
6376.52
6376.52
6376.52
6376.52
6376.52
5989.51
5989.51
5989.51
5989.51
5989.51
5989.51
5989.51
5989.51
5989.52
5989.52
5989.52
5989.52
5989.52
5989.53
5989.53
5989.53
5989.54
5989.54
5989.54
5989.55
5989.55
5989.55
5989.56
5989.56
5989.56
5989.57
5989.57
5989.57
5989.58
5989.58
5989.58
5989.58
5989.59
5989.59
5989.59
5989.59
5989.59
5989.59
5989.59
5989.59
5989.59
5989.59
5989.59
5989.59
5989.59
5989.59
5989.59
5989.59
5989.59
5989.58
5989.58
5989.58
5989.58
5989.57
5989.57
5989.57
5989.56
5989.56
5989.56
5989.55
5989.55
5989.55
5989.54
5989.54
5989.54
5989.54
5989.53
5989.53
5989.53
5989.52
5989.52
5989.52
5989.52
5989.52
5989.52
5989.51
5989.51
5989.51
5989.51
5989.51
5602.5
5602.5
5602.5
5602.5
5602.5
5602.5
5602.51
5602.51
5602.51
5602.51
5602.51
5602.52
5602.52
5602.52
5602.53
5602.53
5602.53
5602.54
5602.54
5602.54
5602.55
5602.55
5602.55
5602.56
5602.56
5602.56
5602.57
5602.57
5602.57
5602.58
5602.58
5602.58
5602.58
5602.58
5602.59
5602.59
5602.59
5602.59
5602.59
5602.59
5602.59
5602.59
5602.59
5602.59
5602.59
5602.59
5602.59
5602.58
5602.58
5602.58
5602.58
5602.57
5602.57
5602.57
5602.57
5602.56
5602.56
5602.56
5602.55
5602.55
5602.55
5602.54
5602.54
5602.54
5602.53
5602.53
5602.53
5602.52
5602.52
5602.52
5602.52
5602.52
5602.51
5602.51
5602.51
5602.51
5602.51
5602.51
5602.51
5602.51
5215.5
5215.5
5215.5
5215.5
5215.5
5215.5
5215.5
5215.5
5215.5
5215.51
5215.51
5215.51
5215.51
5215.52
5215.52
5215.52
5215.53
5215.53
5215.53
5215.54
5215.54
5215.54
5215.55
5215.55
5215.56
5215.56
5215.56
5215.57
5215.57
5215.57
5215.57
5215.58
5215.58
5215.58
5215.58
5215.58
5215.59
5215.59
5215.59
5215.59
5215.59
5215.59
5215.59
5215.59
5215.59
5215.58
5215.58
5215.58
5215.58
5215.58
5215.57
5215.57
5215.57
5215.57
5215.56
5215.56
5215.56
5215.55
5215.55
5215.55
5215.54
5215.54
5215.53
5215.53
5215.53
5215.53
5215.52
5215.52
5215.52
5215.51
5215.51
5215.51
5215.51
5215.51
5215.5
5215.5
5215.5
5215.5
5215.5
5215.5
4828.49
4828.49
4828.49
4828.49
4828.49
4828.49
4828.5
4828.5
4828.5
4828.5
4828.5
4828.51
4828.51
4828.51
4828.52
4828.52
4828.52
4828.53
4828.53
4828.53
4828.54
4828.54
4828.54
4828.55
4828.55
4828.56
4828.56
4828.56
4828.57
4828.57
4828.57
4828.57
4828.58
4828.58
4828.58
4828.58
4828.58
4828.58
4828.58
4828.59
4828.59
4828.59
4828.58
4828.58
4828.58
4828.58
4828.58
4828.58
4828.58
4828.57
4828.57
4828.57
4828.56
4828.56
4828.56
4828.55
4828.55
4828.55
4828.54
4828.54
4828.54
4828.53
4828.53
4828.53
4828.52
4828.52
4828.52
4828.51
4828.51
4828.51
4828.51
4828.5
4828.5
4828.5
4828.5
4828.5
4828.5
4828.5
4828.5
4828.49
4441.48
4441.48
4441.48
4441.49
4441.49
4441.49
4441.49
4441.49
4441.49
4441.5
4441.5
4441.5
4441.5
4441.51
4441.51
4441.51
4441.52
4441.52
4441.52
4441.53
4441.53
4441.54
4441.54
4441.54
4441.55
4441.55
4441.56
4441.56
4441.56
4441.57
4441.57
4441.57
4441.57
4441.58
4441.58
4441.58
4441.58
4441.58
4441.58
4441.58
4441.58
4441.58
4441.58
4441.58
4441.58
4441.58
4441.58
4441.58
4441.57
4441.57
4441.57
4441.56
4441.56
4441.56
4441.55
4441.55
4441.55
4441.54
4441.54
4441.54
4441.53
4441.53
4441.53
4441.52
4441.52
4441.51
4441.51
4441.51
4441.51
4441.5
4441.5
4441.5
4441.5
4441.49
4441.49
4441.49
4441.49
4441.49
4441.49
4441.49
4054.48
4054.48
4054.48
4054.48
4054.48
4054.48
4054.48
4054.48
4054.49
4054.49
4054.49
4054.49
4054.5
4054.5
4054.5
4054.51
4054.51
4054.52
4054.52
4054.52
4054.53
4054.53
4054.54
4054.54
4054.54
4054.55
4054.55
4054.56
4054.56
4054.56
4054.57
4054.57
4054.57
4054.57
4054.58
4054.58
4054.58
4054.58
4054.58
4054.58
4054.58
4054.58
4054.58
4054.58
4054.58
4054.58
4054.57
4054.57
4054.57
4054.57
4054.56
4054.56
4054.56
4054.55
4054.55
4054.55
4054.54
4054.54
4054.54
4054.53
4054.53
4054.52
4054.52
4054.52
4054.51
4054.51
4054.51
4054.5
4054.5
4054.5
4054.49
4054.49
4054.49
4054.49
4054.49
4054.49
4054.48
4054.48
4054.48
4054.48
3667.47
3667.47
3667.47
3667.47
3667.47
3667.47
3667.48
3667.48
3667.48
3667.48
3667.49
3667.49
3667.49
3667.5
3667.5
3667.5
3667.51
3667.51
3667.52
3667.52
3667.52
3667.53
3667.53
3667.54
3667.54
3667.54
3667.55
3667.55
3667.56
3667.56
3667.56
3667.57
3667.57
3667.57
3667.57
3667.58
3667.58
3667.58
3667.58
3667.58
3667.58
3667.58
3667.58
3667.58
3667.58
3667.57
3667.57
3667.57
3667.57
3667.57
3667.56
3667.56
3667.56
3667.55
3667.55
3667.54
3667.54
3667.54
3667.53
3667.53
3667.52
3667.52
3667.52
3667.51
3667.51
3667.5
3667.5
3667.5
3667.49
3667.49
3667.49
3667.49
3667.48
3667.48
3667.48
3667.48
3667.48
3667.48
3667.48
3667.48
3280.46
3280.46
3280.46
3280.47
3280.47
3280.47
3280.47
3280.47
3280.47
3280.48
3280.48
3280.48
3280.49
3280.49
3280.49
3280.5
3280.5
3280.51
3280.51
3280.51
3280.52
3280.52
3280.53
3280.53
3280.54
3280.54
3280.55
3280.55
3280.55
3280.56
3280.56
3280.56
3280.57
3280.57
3280.57
3280.57
3280.58
3280.58
3280.58
3280.58
3280.58
3280.58
3280.58
3280.58
3280.57
3280.57
3280.57
3280.57
3280.57
3280.56
3280.56
3280.56
3280.55
3280.55
3280.54
3280.54
3280.54
3280.53
3280.53
3280.52
3280.52
3280.51
3280.51
3280.51
3280.5
3280.5
3280.49
3280.49
3280.49
3280.48
3280.48
3280.48
3280.48
3280.48
3280.47
3280.47
3280.47
3280.47
3280.47
3280.47
2893.46
2893.46
2893.46
2893.46
2893.46
2893.46
2893.46
2893.46
2893.47
2893.47
2893.47
2893.48
2893.48
2893.48
2893.49
2893.49
2893.5
2893.5
2893.51
2893.51
2893.51
2893.52
2893.52
2893.53
2893.53
2893.54
2893.54
2893.55
2893.55
2893.55
2893.56
2893.56
2893.57
2893.57
2893.57
2893.57
2893.57
2893.58
2893.58
2893.58
2893.58
2893.58
2893.58
2893.58
2893.57
2893.57
2893.57
2893.57
2893.56
2893.56
2893.56
2893.55
2893.55
2893.55
2893.54
2893.54
2893.53
2893.53
2893.52
2893.52
2893.51
2893.51
2893.51
2893.5
2893.5
2893.49
2893.49
2893.48
2893.48
2893.48
2893.48
2893.47
2893.47
2893.47
2893.47
2893.46
2893.46
2893.46
2893.46
2893.46
2506.45
2506.45
2506.45
2506.45
2506.45
2506.45
2506.46
2506.46
2506.46
2506.46
2506.47
2506.47
2506.47
2506.48
2506.48
2506.49
2506.49
2506.5
2506.5
2506.51
2506.51
2506.52
2506.52
2506.53
2506.53
2506.54
2506.54
2506.54
2506.55
2506.55
2506.56
2506.56
2506.56
2506.57
2506.57
2506.57
2506.57
2506.58
2506.58
2506.58
2506.58
2506.58
2506.58
2506.57
2506.57
2506.57
2506.57
2506.57
2506.56
2506.56
2506.56
2506.55
2506.55
2506.54
2506.54
2506.53
2506.53
2506.52
2506.52
2506.51
2506.51
2506.5
2506.5
2506.5
2506.49
2506.49
2506.48
2506.48
2506.47
2506.47
2506.47
2506.47
2506.46
2506.46
2506.46
2506.46
2506.46
2506.46
2506.45
2506.45
2119.44
2119.44
2119.44
2119.44
2119.44
2119.45
2119.45
2119.45
2119.45
2119.46
2119.46
2119.46
2119.47
2119.47
2119.48
2119.48
2119.49
2119.49
2119.5
2119.5
2119.51
2119.51
2119.52
2119.52
2119.53
2119.53
2119.54
2119.54
2119.55
2119.55
2119.56
2119.56
2119.56
2119.57
2119.57
2119.57
2119.57
2119.58
2119.58
2119.58
2119.58
2119.58
2119.58
2119.57
2119.57
2119.57
2119.57
2119.57
2119.56
2119.56
2119.55
2119.55
2119.55
2119.54
2119.54
2119.53
2119.53
2119.52
2119.51
2119.51
2119.5
2119.5
2119.49
2119.49
2119.48
2119.48
2119.48
2119.47
2119.47
2119.46
2119.46
2119.46
2119.46
2119.45
2119.45
2119.45
2119.45
2119.45
2119.45
2119.45
1732.43
1732.43
1732.43
1732.43
1732.44
1732.44
1732.44
1732.44
1732.45
1732.45
1732.45
1732.46
1732.46
1732.46
1732.47
1732.47
1732.48
1732.48
1732.49
1732.5
1732.5
1732.51
1732.51
1732.52
1732.52
1732.53
1732.53
1732.54
1732.55
1732.55
1732.55
1732.56
1732.56
1732.57
1732.57
1732.57
1732.57
1732.58
1732.58
1732.58
1732.58
1732.58
1732.58
1732.57
1732.57
1732.57
1732.57
1732.56
1732.56
1732.56
1732.55
1732.55
1732.54
1732.54
1732.53
1732.53
1732.52
1732.52
1732.51
1732.51
1732.5
1732.49
1732.49
1732.48
1732.48
1732.47
1732.47
1732.47
1732.46
1732.46
1732.45
1732.45
1732.45
1732.45
1732.44
1732.44
1732.44
1732.44
1732.44
1732.44
1345.42
1345.42
1345.43
1345.43
1345.43
1345.43
1345.43
1345.43
1345.44
1345.44
1345.44
1345.45
1345.45
1345.46
1345.46
1345.47
1345.47
1345.48
1345.48
1345.49
1345.5
1345.5
1345.51
1345.51
1345.52
1345.53
1345.53
1345.54
1345.54
1345.55
1345.55
1345.56
1345.56
1345.57
1345.57
1345.57
1345.57
1345.58
1345.58
1345.58
1345.58
1345.58
1345.58
1345.58
1345.57
1345.57
1345.57
1345.56
1345.56
1345.56
1345.55
1345.55
1345.54
1345.54
1345.53
1345.52
1345.52
1345.51
1345.51
1345.5
1345.49
1345.49
1345.48
1345.48
1345.47
1345.47
1345.46
1345.46
1345.45
1345.45
1345.45
1345.44
1345.44
1345.44
1345.44
1345.43
1345.43
1345.43
1345.43
1345.43
958.415
958.415
958.416
958.418
958.419
958.421
958.424
958.426
958.43
958.433
958.437
958.441
958.446
958.451
958.456
958.461
958.467
958.473
958.479
958.485
958.492
958.498
958.505
958.511
958.518
958.524
958.53
958.536
958.542
958.548
958.553
958.558
958.563
958.567
958.57
958.573
958.576
958.578
958.579
958.58
958.58
958.58
958.579
958.577
958.575
958.572
958.569
958.565
958.561
958.556
958.551
958.545
958.54
958.534
958.528
958.522
958.515
958.509
958.502
958.496
958.49
958.484
958.478
958.472
958.466
958.461
958.456
958.451
958.446
958.442
958.438
958.435
958.432
958.429
958.426
958.424
958.423
958.422
958.421
958.42
571.406
571.406
571.407
571.408
571.41
571.412
571.415
571.418
571.421
571.425
571.429
571.434
571.438
571.444
571.449
571.455
571.461
571.467
571.474
571.48
571.487
571.494
571.501
571.508
571.515
571.522
571.528
571.535
571.541
571.547
571.553
571.558
571.563
571.568
571.572
571.575
571.578
571.58
571.581
571.582
571.582
571.582
571.581
571.579
571.576
571.573
571.57
571.566
571.561
571.556
571.55
571.544
571.538
571.532
571.525
571.519
571.512
571.505
571.498
571.491
571.485
571.478
571.472
571.465
571.459
571.454
571.448
571.443
571.439
571.434
571.43
571.426
571.423
571.42
571.418
571.416
571.414
571.413
571.412
571.411
184.394
184.395
184.396
184.397
184.399
184.401
184.404
184.407
184.411
184.415
184.419
184.424
184.429
184.435
184.441
184.447
184.453
184.46
184.467
184.475
184.482
184.49
184.498
184.506
184.514
184.522
184.529
184.537
184.544
184.551
184.558
184.564
184.57
184.575
184.579
184.583
184.587
184.589
184.591
184.592
184.592
184.591
184.59
184.588
184.585
184.581
184.577
184.572
184.567
184.561
184.554
184.547
184.54
184.533
184.525
184.518
184.51
184.502
184.494
184.486
184.479
184.472
184.465
184.458
184.452
184.445
184.44
184.434
184.429
184.424
184.42
184.416
184.412
184.409
184.406
184.404
184.402
184.401
184.4
184.4
-9.35635
-9.35586
-9.35488
-9.35348
-9.35161
-9.34926
-9.34644
-9.34317
-9.33945
-9.33529
-9.33071
-9.32572
-9.32033
-9.31457
-9.30844
-9.30197
-9.29519
-9.28811
-9.28078
-9.27323
-9.26547
-9.25745
-9.24929
-9.24107
-9.23285
-9.2247
-9.21667
-9.20883
-9.20124
-9.19396
-9.18706
-9.18061
-9.17467
-9.1693
-9.16457
-9.16051
-9.15718
-9.15462
-9.15284
-9.15188
-9.15173
-9.1524
-9.15388
-9.15615
-9.15918
-9.16294
-9.16739
-9.17249
-9.17817
-9.18438
-9.19105
-9.19812
-9.20551
-9.21316
-9.22101
-9.22901
-9.23708
-9.24518
-9.25323
-9.26113
-9.26878
-9.27625
-9.28349
-9.29046
-9.29716
-9.30359
-9.30966
-9.31533
-9.32065
-9.32561
-9.33014
-9.33421
-9.33787
-9.34113
-9.34392
-9.34622
-9.34805
-9.34946
-9.35046
-9.35096
-9.84918
-9.84872
-9.84773
-9.84628
-9.84435
-9.84193
-9.83904
-9.83568
-9.83186
-9.8276
-9.82289
-9.81777
-9.81224
-9.80632
-9.80003
-9.79339
-9.78642
-9.77916
-9.77165
-9.76391
-9.75598
-9.74793
-9.73979
-9.73161
-9.72344
-9.71533
-9.70735
-9.69956
-9.69202
-9.68479
-9.67794
-9.67154
-9.66566
-9.66034
-9.65564
-9.65162
-9.64832
-9.64578
-9.64401
-9.64305
-9.6429
-9.64356
-9.64502
-9.64727
-9.65028
-9.65401
-9.65843
-9.66349
-9.66912
-9.67528
-9.6819
-9.68891
-9.69625
-9.70385
-9.71165
-9.71959
-9.72761
-9.73567
-9.74369
-9.75162
-9.75942
-9.76706
-9.77449
-9.78166
-9.78852
-9.7951
-9.80135
-9.80721
-9.81267
-9.81775
-9.82243
-9.82665
-9.83041
-9.83372
-9.8366
-9.83901
-9.84095
-9.84239
-9.84336
-9.84382
-10.3402
-10.3398
-10.3388
-10.3373
-10.3354
-10.333
-10.3301
-10.3267
-10.3229
-10.3186
-10.3139
-10.3087
-10.3032
-10.2972
-10.2909
-10.2842
-10.2772
-10.2699
-10.2624
-10.2546
-10.2466
-10.2385
-10.2303
-10.2221
-10.2138
-10.2057
-10.1976
-10.1898
-10.1821
-10.1748
-10.1679
-10.1615
-10.1555
-10.1501
-10.1454
-10.1413
-10.138
-10.1354
-10.1336
-10.1326
-10.1325
-10.1331
-10.1346
-10.1369
-10.14
-10.1437
-10.1482
-10.1533
-10.159
-10.1653
-10.1719
-10.179
-10.1864
-10.1941
-10.202
-10.21
-10.2181
-10.2262
-10.2343
-10.2423
-10.2501
-10.2578
-10.2653
-10.2725
-10.2794
-10.286
-10.2923
-10.2981
-10.3036
-10.3087
-10.3134
-10.3177
-10.3214
-10.3248
-10.3277
-10.33
-10.332
-10.3334
-10.3344
-10.3349
-10.8317
-10.8312
-10.8303
-10.8288
-10.8269
-10.8244
-10.8215
-10.8181
-10.8143
-10.81
-10.8052
-10.8001
-10.7945
-10.7885
-10.7821
-10.7754
-10.7683
-10.761
-10.7533
-10.7455
-10.7374
-10.7292
-10.7209
-10.7125
-10.7042
-10.6959
-10.6877
-10.6797
-10.672
-10.6646
-10.6575
-10.6509
-10.6448
-10.6393
-10.6345
-10.6303
-10.6269
-10.6243
-10.6224
-10.6214
-10.6213
-10.622
-10.6235
-10.6259
-10.629
-10.6328
-10.6374
-10.6426
-10.6485
-10.6548
-10.6616
-10.6688
-10.6764
-10.6842
-10.6922
-10.7003
-10.7085
-10.7168
-10.7249
-10.733
-10.741
-10.7487
-10.7563
-10.7636
-10.7705
-10.7772
-10.7835
-10.7894
-10.795
-10.8001
-10.8048
-10.809
-10.8128
-10.8162
-10.8191
-10.8215
-10.8235
-10.8249
-10.8259
-10.8264
-11.3237
-11.3232
-11.3222
-11.3208
-11.3188
-11.3163
-11.3134
-11.31
-11.3061
-11.3018
-11.297
-11.2918
-11.2861
-11.2801
-11.2737
-11.2668
-11.2597
-11.2522
-11.2445
-11.2365
-11.2283
-11.22
-11.2115
-11.203
-11.1945
-11.186
-11.1776
-11.1694
-11.1615
-11.1539
-11.1466
-11.1398
-11.1336
-11.1279
-11.1229
-11.1186
-11.1151
-11.1123
-11.1104
-11.1094
-11.1093
-11.11
-11.1116
-11.114
-11.1172
-11.1212
-11.126
-11.1314
-11.1374
-11.1439
-11.1509
-11.1583
-11.1661
-11.1741
-11.1823
-11.1906
-11.199
-11.2074
-11.2157
-11.2239
-11.232
-11.2399
-11.2475
-11.2549
-11.262
-11.2687
-11.2751
-11.2811
-11.2867
-11.2918
-11.2966
-11.3009
-11.3047
-11.3081
-11.311
-11.3135
-11.3154
-11.3169
-11.3179
-11.3184
-11.8162
-11.8157
-11.8147
-11.8132
-11.8112
-11.8088
-11.8058
-11.8024
-11.7984
-11.7941
-11.7892
-11.7839
-11.7782
-11.7721
-11.7656
-11.7587
-11.7514
-11.7438
-11.7359
-11.7278
-11.7194
-11.7109
-11.7022
-11.6935
-11.6847
-11.676
-11.6673
-11.6589
-11.6507
-11.6428
-11.6353
-11.6282
-11.6217
-11.6158
-11.6106
-11.6061
-11.6024
-11.5996
-11.5976
-11.5965
-11.5964
-11.5971
-11.5988
-11.6013
-11.6047
-11.6089
-11.6138
-11.6194
-11.6257
-11.6325
-11.6398
-11.6475
-11.6555
-11.6638
-11.6722
-11.6808
-11.6894
-11.698
-11.7066
-11.715
-11.7232
-11.7313
-11.7391
-11.7466
-11.7538
-11.7606
-11.7671
-11.7732
-11.7788
-11.7841
-11.7889
-11.7932
-11.7971
-11.8005
-11.8035
-11.8059
-11.8079
-11.8094
-11.8103
-11.8108
-12.3092
-12.3087
-12.3077
-12.3062
-12.3042
-12.3017
-12.2987
-12.2952
-12.2912
-12.2868
-12.2819
-12.2765
-12.2707
-12.2645
-12.2578
-12.2508
-12.2434
-12.2356
-12.2276
-12.2192
-12.2106
-12.2019
-12.1929
-12.1839
-12.1749
-12.1658
-12.1569
-12.1481
-12.1395
-12.1313
-12.1234
-12.116
-12.1092
-12.103
-12.0975
-12.0928
-12.0889
-12.0859
-12.0838
-12.0827
-12.0825
-12.0833
-12.0851
-12.0878
-12.0914
-12.0958
-12.101
-12.1069
-12.1135
-12.1206
-12.1282
-12.1363
-12.1446
-12.1532
-12.162
-12.1709
-12.1798
-12.1887
-12.1975
-12.2062
-12.2147
-12.2229
-12.2309
-12.2386
-12.2459
-12.2529
-12.2595
-12.2657
-12.2714
-12.2767
-12.2816
-12.286
-12.2899
-12.2934
-12.2964
-12.2988
-12.3008
-12.3023
-12.3033
-12.3038
-12.8027
-12.8022
-12.8011
-12.7996
-12.7976
-12.7951
-12.792
-12.7885
-12.7845
-12.78
-12.775
-12.7695
-12.7636
-12.7573
-12.7505
-12.7433
-12.7357
-12.7278
-12.7195
-12.7109
-12.7021
-12.693
-12.6838
-12.6744
-12.665
-12.6556
-12.6462
-12.637
-12.628
-12.6194
-12.6111
-12.6033
-12.5961
-12.5895
-12.5837
-12.5786
-12.5745
-12.5713
-12.5691
-12.5679
-12.5677
-12.5686
-12.5705
-12.5733
-12.5772
-12.5819
-12.5874
-12.5937
-12.6007
-12.6082
-12.6163
-12.6247
-12.6335
-12.6426
-12.6517
-12.661
-12.6703
-12.6795
-12.6886
-12.6976
-12.7064
-12.7148
-12.7231
-12.7309
-12.7384
-12.7455
-12.7523
-12.7586
-12.7644
-12.7698
-12.7748
-12.7792
-12.7832
-12.7867
-12.7898
-12.7923
-12.7943
-12.7958
-12.7968
-12.7973
-13.2967
-13.2962
-13.2951
-13.2936
-13.2915
-13.289
-13.2859
-13.2823
-13.2782
-13.2736
-13.2686
-13.263
-13.257
-13.2505
-13.2436
-13.2362
-13.2284
-13.2203
-13.2117
-13.2029
-13.1937
-13.1843
-13.1747
-13.165
-13.1551
-13.1453
-13.1354
-13.1257
-13.1162
-13.1071
-13.0983
-13.09
-13.0823
-13.0752
-13.069
-13.0636
-13.0591
-13.0557
-13.0533
-13.052
-13.0519
-13.0528
-13.0548
-13.0579
-13.0621
-13.0671
-13.0731
-13.0798
-13.0873
-13.0953
-13.1039
-13.1128
-13.1221
-13.1317
-13.1413
-13.1511
-13.1608
-13.1704
-13.1799
-13.1892
-13.1983
-13.207
-13.2155
-13.2236
-13.2313
-13.2386
-13.2455
-13.2519
-13.2579
-13.2634
-13.2684
-13.273
-13.277
-13.2806
-13.2836
-13.2862
-13.2883
-13.2898
-13.2908
-13.2913
-13.7912
-13.7906
-13.7896
-13.788
-13.786
-13.7834
-13.7802
-13.7766
-13.7725
-13.7678
-13.7626
-13.757
-13.7508
-13.7442
-13.7371
-13.7295
-13.7215
-13.7131
-13.7043
-13.6951
-13.6856
-13.6758
-13.6658
-13.6556
-13.6453
-13.6349
-13.6245
-13.6142
-13.6041
-13.5943
-13.5849
-13.576
-13.5677
-13.5602
-13.5534
-13.5476
-13.5428
-13.539
-13.5365
-13.5351
-13.5349
-13.5359
-13.5382
-13.5415
-13.546
-13.5515
-13.5579
-13.5652
-13.5732
-13.5819
-13.591
-13.6006
-13.6105
-13.6206
-13.6309
-13.6411
-13.6513
-13.6614
-13.6714
-13.6811
-13.6905
-13.6995
-13.7083
-13.7166
-13.7246
-13.7321
-13.7391
-13.7457
-13.7518
-13.7575
-13.7626
-13.7672
-13.7713
-13.7749
-13.778
-13.7806
-13.7827
-13.7843
-13.7853
-13.7858
-14.2862
-14.2857
-14.2846
-14.283
-14.2809
-14.2783
-14.2751
-14.2714
-14.2672
-14.2625
-14.2572
-14.2514
-14.2451
-14.2383
-14.231
-14.2233
-14.215
-14.2063
-14.1972
-14.1877
-14.1778
-14.1676
-14.1571
-14.1463
-14.1354
-14.1244
-14.1134
-14.1025
-14.0917
-14.0812
-14.0711
-14.0614
-14.0525
-14.0442
-14.0369
-14.0306
-14.0253
-14.0212
-14.0184
-14.0169
-14.0167
-14.0179
-14.0203
-14.024
-14.0289
-14.0349
-14.042
-14.0499
-14.0586
-14.0679
-14.0778
-14.0881
-14.0987
-14.1095
-14.1203
-14.1312
-14.142
-14.1526
-14.163
-14.1732
-14.183
-14.1924
-14.2015
-14.2101
-14.2183
-14.226
-14.2333
-14.24
-14.2463
-14.252
-14.2573
-14.262
-14.2662
-14.2698
-14.273
-14.2756
-14.2777
-14.2793
-14.2803
-14.2809
-14.7818
-14.7812
-14.7801
-14.7785
-14.7764
-14.7737
-14.7705
-14.7667
-14.7625
-14.7576
-14.7523
-14.7464
-14.7399
-14.733
-14.7255
-14.7175
-14.709
-14.7
-14.6905
-14.6806
-14.6703
-14.6596
-14.6485
-14.6372
-14.6257
-14.614
-14.6022
-14.5905
-14.5789
-14.5676
-14.5567
-14.5462
-14.5364
-14.5274
-14.5194
-14.5124
-14.5066
-14.5022
-14.4991
-14.4974
-14.4972
-14.4985
-14.5012
-14.5053
-14.5107
-14.5174
-14.5251
-14.5338
-14.5432
-14.5534
-14.5641
-14.5752
-14.5866
-14.5982
-14.6098
-14.6213
-14.6328
-14.644
-14.6549
-14.6656
-14.6759
-14.6857
-14.6951
-14.7041
-14.7125
-14.7204
-14.7279
-14.7348
-14.7412
-14.7471
-14.7524
-14.7572
-14.7615
-14.7652
-14.7684
-14.7711
-14.7732
-14.7748
-14.7759
-14.7764
-15.2778
-15.2773
-15.2762
-15.2746
-15.2724
-15.2697
-15.2664
-15.2626
-15.2583
-15.2533
-15.2479
-15.2418
-15.2353
-15.2281
-15.2204
-15.2122
-15.2034
-15.1941
-15.1842
-15.1739
-15.1631
-15.1519
-15.1403
-15.1283
-15.1161
-15.1036
-15.091
-15.0784
-15.0659
-15.0537
-15.0417
-15.0303
-15.0196
-15.0097
-15.0008
-14.9931
-14.9867
-14.9817
-14.9783
-14.9765
-14.9763
-14.9777
-14.9807
-14.9853
-14.9914
-14.9987
-15.0073
-15.0168
-15.0273
-15.0384
-15.05
-15.0621
-15.0744
-15.0868
-15.0993
-15.1116
-15.1237
-15.1356
-15.1472
-15.1584
-15.1691
-15.1794
-15.1891
-15.1984
-15.2072
-15.2154
-15.223
-15.2301
-15.2367
-15.2427
-15.2481
-15.253
-15.2574
-15.2612
-15.2644
-15.2671
-15.2693
-15.2709
-15.272
-15.2725
-15.7745
-15.7739
-15.7728
-15.7712
-15.769
-15.7662
-15.7629
-15.7591
-15.7546
-15.7496
-15.744
-15.7379
-15.7311
-15.7238
-15.7159
-15.7074
-15.6983
-15.6887
-15.6785
-15.6677
-15.6564
-15.6446
-15.6323
-15.6196
-15.6066
-15.5933
-15.5798
-15.5662
-15.5527
-15.5393
-15.5263
-15.5138
-15.5019
-15.491
-15.4811
-15.4725
-15.4654
-15.4598
-15.4559
-15.4539
-15.4537
-15.4553
-15.4588
-15.4639
-15.4707
-15.479
-15.4885
-15.4991
-15.5106
-15.5228
-15.5356
-15.5487
-15.5621
-15.5755
-15.5888
-15.602
-15.6149
-15.6275
-15.6397
-15.6515
-15.6628
-15.6735
-15.6837
-15.6933
-15.7024
-15.7108
-15.7187
-15.726
-15.7327
-15.7388
-15.7444
-15.7494
-15.7538
-15.7577
-15.761
-15.7637
-15.7659
-15.7675
-15.7686
-15.7692
-16.2717
-16.2711
-16.27
-16.2683
-16.2661
-16.2633
-16.26
-16.2561
-16.2515
-16.2465
-16.2408
-16.2345
-16.2276
-16.2201
-16.212
-16.2032
-16.1938
-16.1838
-16.1732
-16.162
-16.1501
-16.1377
-16.1248
-16.1113
-16.0975
-16.0832
-16.0687
-16.054
-16.0392
-16.0246
-16.0103
-15.9965
-15.9834
-15.9712
-15.9602
-15.9505
-15.9425
-15.9362
-15.9318
-15.9295
-15.9293
-15.9312
-15.9351
-15.941
-15.9487
-15.958
-15.9686
-15.9805
-15.9933
-16.0068
-16.0208
-16.0352
-16.0497
-16.0642
-16.0786
-16.0927
-16.1065
-16.1199
-16.1327
-16.1451
-16.1569
-16.1682
-16.1788
-16.1888
-16.1981
-16.2069
-16.215
-16.2225
-16.2293
-16.2356
-16.2412
-16.2463
-16.2508
-16.2547
-16.2581
-16.2608
-16.2631
-16.2647
-16.2658
-16.2664
-16.7694
-16.7689
-16.7677
-16.7661
-16.7638
-16.761
-16.7576
-16.7536
-16.7491
-16.7439
-16.7381
-16.7317
-16.7247
-16.717
-16.7087
-16.6996
-16.69
-16.6796
-16.6686
-16.6568
-16.6444
-16.6314
-16.6177
-16.6034
-16.5886
-16.5733
-16.5577
-16.5417
-16.5257
-16.5097
-16.4939
-16.4786
-16.464
-16.4503
-16.4379
-16.427
-16.4178
-16.4107
-16.4057
-16.4031
-16.4029
-16.4051
-16.4096
-16.4163
-16.4251
-16.4356
-16.4477
-16.461
-16.4753
-16.4903
-16.5058
-16.5216
-16.5374
-16.5531
-16.5686
-16.5837
-16.5984
-16.6126
-16.6263
-16.6393
-16.6517
-16.6634
-16.6745
-16.6849
-16.6945
-16.7035
-16.7118
-16.7195
-16.7265
-16.7329
-16.7387
-16.7438
-16.7484
-16.7523
-16.7557
-16.7585
-16.7608
-16.7625
-16.7636
-16.7641
-17.2677
-17.2672
-17.266
-17.2643
-17.2621
-17.2592
-17.2558
-17.2518
-17.2472
-17.2419
-17.2361
-17.2296
-17.2224
-17.2145
-17.206
-17.1967
-17.1868
-17.176
-17.1646
-17.1523
-17.1394
-17.1256
-17.1112
-17.096
-17.0802
-17.0638
-17.0469
-17.0296
-17.0121
-16.9945
-16.9771
-16.96
-16.9436
-16.9283
-16.9142
-16.9017
-16.8913
-16.8831
-16.8774
-16.8744
-16.8741
-16.8767
-16.8819
-16.8897
-16.8997
-16.9118
-16.9255
-16.9406
-16.9566
-16.9734
-16.9906
-17.0079
-17.0252
-17.0423
-17.0591
-17.0752
-17.0909
-17.106
-17.1204
-17.1341
-17.1471
-17.1593
-17.1708
-17.1816
-17.1916
-17.2008
-17.2094
-17.2172
-17.2243
-17.2308
-17.2367
-17.2419
-17.2466
-17.2506
-17.254
-17.2568
-17.2591
-17.2608
-17.2619
-17.2625
-17.7666
-17.766
-17.7649
-17.7632
-17.7609
-17.7581
-17.7546
-17.7506
-17.7459
-17.7406
-17.7347
-17.7281
-17.7208
-17.7128
-17.704
-17.6945
-17.6843
-17.6732
-17.6613
-17.6486
-17.635
-17.6206
-17.6054
-17.5893
-17.5724
-17.5548
-17.5366
-17.5178
-17.4986
-17.4792
-17.4599
-17.4408
-17.4224
-17.4049
-17.3889
-17.3746
-17.3625
-17.353
-17.3464
-17.3429
-17.3426
-17.3456
-17.3517
-17.3607
-17.3724
-17.3863
-17.402
-17.4191
-17.4373
-17.4561
-17.4752
-17.4944
-17.5133
-17.5319
-17.55
-17.5674
-17.5841
-17.6001
-17.6152
-17.6296
-17.6432
-17.656
-17.6679
-17.679
-17.6893
-17.6988
-17.7076
-17.7156
-17.7228
-17.7294
-17.7354
-17.7407
-17.7453
-17.7494
-17.7528
-17.7557
-17.758
-17.7597
-17.7608
-17.7613
-18.266
-18.2655
-18.2643
-18.2626
-18.2604
-18.2575
-18.254
-18.25
-18.2453
-18.2399
-18.2339
-18.2272
-18.2198
-18.2117
-18.2028
-18.1931
-18.1826
-18.1712
-18.1589
-18.1457
-18.1315
-18.1164
-18.1004
-18.0833
-18.0653
-18.0465
-18.0268
-18.0064
-17.9854
-17.964
-17.9425
-17.9211
-17.9002
-17.8803
-17.8619
-17.8453
-17.8312
-17.8201
-17.8123
-17.8082
-17.8078
-17.8114
-17.8186
-17.8292
-17.8428
-17.8589
-17.8771
-17.8967
-17.9173
-17.9384
-17.9598
-17.981
-18.0018
-18.0221
-18.0416
-18.0603
-18.0781
-18.095
-18.111
-18.126
-18.1402
-18.1534
-18.1658
-18.1772
-18.1878
-18.1975
-18.2065
-18.2146
-18.222
-18.2287
-18.2347
-18.24
-18.2447
-18.2488
-18.2523
-18.2551
-18.2574
-18.2591
-18.2602
-18.2608
-18.7661
-18.7655
-18.7644
-18.7627
-18.7604
-18.7575
-18.7541
-18.75
-18.7453
-18.7399
-18.7339
-18.7271
-18.7196
-18.7114
-18.7023
-18.6925
-18.6817
-18.67
-18.6573
-18.6437
-18.629
-18.6132
-18.5963
-18.5783
-18.5592
-18.539
-18.5178
-18.4956
-18.4726
-18.449
-18.425
-18.4009
-18.3772
-18.3543
-18.3329
-18.3136
-18.297
-18.2838
-18.2745
-18.2696
-18.2693
-18.2735
-18.2821
-18.2947
-18.3107
-18.3296
-18.3506
-18.3732
-18.3966
-18.4206
-18.4444
-18.468
-18.4909
-18.513
-18.5341
-18.5541
-18.5731
-18.5909
-18.6077
-18.6234
-18.6381
-18.6518
-18.6645
-18.6762
-18.6871
-18.697
-18.7061
-18.7144
-18.7219
-18.7286
-18.7347
-18.74
-18.7448
-18.7488
-18.7523
-18.7552
-18.7574
-18.7591
-18.7603
-18.7608
-19.2666
-19.2661
-19.2649
-19.2633
-19.261
-19.2581
-19.2547
-19.2506
-19.2459
-19.2406
-19.2345
-19.2277
-19.2202
-19.2119
-19.2027
-19.1927
-19.1817
-19.1698
-19.1568
-19.1427
-19.1275
-19.1111
-19.0934
-19.0744
-19.0542
-19.0326
-19.0098
-18.9858
-18.9606
-18.9344
-18.9076
-18.8804
-18.8533
-18.8269
-18.8019
-18.7792
-18.7595
-18.7437
-18.7325
-18.7266
-18.7262
-18.7313
-18.7417
-18.7568
-18.7759
-18.7981
-18.8227
-18.8488
-18.8757
-18.9027
-18.9295
-18.9556
-18.9807
-19.0047
-19.0275
-19.049
-19.0692
-19.088
-19.1055
-19.1218
-19.137
-19.1511
-19.1642
-19.1762
-19.1873
-19.1974
-19.2066
-19.2149
-19.2225
-19.2293
-19.2353
-19.2407
-19.2454
-19.2495
-19.2529
-19.2558
-19.2581
-19.2597
-19.2609
-19.2614
-19.7678
-19.7672
-19.7661
-19.7644
-19.7622
-19.7594
-19.7559
-19.7519
-19.7472
-19.7419
-19.7359
-19.7291
-19.7216
-19.7132
-19.704
-19.6938
-19.6827
-19.6706
-19.6573
-19.6429
-19.6272
-19.6102
-19.5918
-19.5719
-19.5505
-19.5276
-19.5031
-19.4771
-19.4495
-19.4206
-19.3906
-19.3598
-19.3288
-19.2981
-19.2688
-19.2417
-19.218
-19.1989
-19.1854
-19.1782
-19.1778
-19.1841
-19.1968
-19.2151
-19.2381
-19.2646
-19.2935
-19.3238
-19.3546
-19.3853
-19.4153
-19.4442
-19.4717
-19.4978
-19.5223
-19.5452
-19.5665
-19.5863
-19.6046
-19.6215
-19.6371
-19.6516
-19.6649
-19.6771
-19.6883
-19.6986
-19.7079
-19.7163
-19.7238
-19.7306
-19.7367
-19.742
-19.7467
-19.7508
-19.7542
-19.757
-19.7593
-19.7609
-19.762
-19.7626
-20.2695
-20.2689
-20.2678
-20.2662
-20.264
-20.2612
-20.2578
-20.2538
-20.2492
-20.2439
-20.2379
-20.2312
-20.2237
-20.2154
-20.2061
-20.1959
-20.1847
-20.1725
-20.159
-20.1443
-20.1282
-20.1107
-20.0916
-20.0709
-20.0485
-20.0242
-19.9981
-19.97
-19.9399
-19.908
-19.8744
-19.8395
-19.8038
-19.768
-19.7333
-19.7009
-19.6722
-19.6489
-19.6322
-19.6234
-19.6229
-19.6308
-19.6466
-19.6691
-19.6971
-19.7289
-19.7631
-19.7984
-19.8339
-19.8687
-19.9023
-19.9342
-19.9643
-19.9924
-20.0186
-20.043
-20.0654
-20.0861
-20.1051
-20.1225
-20.1385
-20.1532
-20.1667
-20.1791
-20.1904
-20.2006
-20.21
-20.2184
-20.2259
-20.2327
-20.2387
-20.244
-20.2486
-20.2526
-20.256
-20.2588
-20.261
-20.2627
-20.2638
-20.2643
-20.7717
-20.7712
-20.7701
-20.7685
-20.7663
-20.7636
-20.7603
-20.7564
-20.7518
-20.7466