/*--------------------------------*- C++ -*----------------------------------*\
| =========                 |                                                 |
| \\      /  F ield         | OpenFOAM: The Open Source CFD Toolbox           |
|  \\    /   O peration     | Version:  2412                                  |
|   \\  /    A nd           | Website:  www.openfoam.com                      |
|    \\/     M anipulation  |                                                 |
\*---------------------------------------------------------------------------*/
FoamFile
{
    version     2.0;
    format      ascii;
    arch        "LSB;label=32;scalar=64";
    class       volScalarField;
    location    "7.1";
    object      alpha.honey;
}
// * * * * * * * * * * * * * * * * * * * * * * * * * * * * * * * * * * * * * //

dimensions      [0 0 0 0 0 0 0];

internalField   nonuniform List<scalar> 
6400
(
1
0.999999
0.999999
0.999999
0.999999
0.999999
0.999999
0.999999
0.999999
0.999999
0.999999
0.999999
0.999999
0.999999
0.999999
0.999999
0.999999
1
1
1
1
1
1
1
1
1
1
1
1
1
1
1
1
1
1
1
1
1
1
1
1
1
1
1
1
1
1
1
1
1
1
1
1
0.999999
0.999999
0.999999
1
1
1
1
1
1
1
1
1
1
0.999999
0.999999
0.999999
0.999999
0.999999
0.999999
0.999999
0.999999
0.999999
0.999999
0.999999
0.999999
0.999999
1
0.999999
0.999998
0.999999
0.999999
0.999999
0.999999
0.999999
0.999999
0.999999
0.999998
0.999998
0.999999
0.999999
0.999999
0.999999
0.999999
0.999999
0.999999
0.999999
0.999999
0.999999
0.999999
0.999999
0.999999
1
1
1
1
1
1
1
0.999999
0.999999
0.999999
0.999999
1
1
1
1
1
1
1
1
1
1
1
1
1
1
1
1
0.999999
0.999999
0.999999
0.999999
0.999999
0.999999
0.999999
0.999999
1
1
1
1
1
0.999999
0.999999
0.999998
0.999998
0.999998
0.999998
0.999998
0.999999
0.999999
0.999999
0.999999
0.999999
0.999999
0.999999
0.999999
1
0.999999
0.999999
0.999999
0.999999
0.999999
0.999999
0.999999
0.999999
0.999999
0.999999
0.999999
0.999999
0.999999
0.999999
0.999999
0.999999
0.999999
0.999999
0.999999
0.999999
0.999999
0.999999
1
1
1
1
1
1
1
1
0.999999
0.999999
0.999999
1
1
1
1
1
1
1
1
1
1
1
1
1
1
1
1
1
1
1
1
1
0.999999
0.999999
0.999999
0.999999
1
1
1
1
1
0.999999
0.999999
0.999999
0.999998
0.999998
0.999998
0.999998
0.999999
0.999999
0.999999
0.999999
0.999999
0.999999
0.999999
0.999999
0.999999
1
0.999999
0.999999
0.999999
0.999999
0.999999
0.999999
0.999999
0.999999
0.999999
0.999999
0.999999
0.999999
0.999999
0.999999
0.999999
0.999999
0.999999
0.999999
0.999999
0.999999
0.999999
0.999999
1
1
1
1
1
0.999999
0.999999
0.999999
0.999999
1
1
1
1
1
1
1
1
1
1
1
1
1
1
1
1
1
1
1
1
1
1
1
1
0.999999
0.999999
0.999999
1
1
1
0.999999
0.999999
0.999999
0.999999
0.999999
0.999999
0.999999
0.999999
0.999999
0.999999
0.999999
0.999999
0.999999
0.999999
0.999999
0.999999
0.999999
0.999999
1
0.999999
0.999999
0.999999
0.999999
0.999999
0.999999
0.999999
0.999999
0.999999
0.999999
0.999999
0.999999
0.999999
0.999999
0.999999
0.999999
0.999999
0.999999
0.999999
0.999999
1
1
1
1
1
0.999999
0.999999
0.999999
0.999999
0.999999
1
1
1
1
1
1
1
1
1
1
0.999999
0.999999
0.999999
0.999999
0.999999
0.999999
0.999999
1
1
1
1
1
1
1
1
1
1
1
1
0.999999
0.999999
0.999999
0.999999
0.999999
0.999999
0.999999
0.999999
0.999999
0.999999
0.999999
0.999999
0.999999
0.999999
0.999999
0.999999
0.999999
0.999999
0.999999
0.999999
1
0.999999
0.999999
0.999999
0.999999
0.999999
0.999999
0.999999
0.999999
0.999999
0.999999
0.999999
0.999999
0.999999
0.999999
0.999999
0.999999
0.999999
0.999999
1
1
1
1
1
1
0.999999
0.999999
0.999999
0.999999
0.999999
1
1
1
1
1
1
1
1
1
0.999999
0.999999
0.999999
0.999999
0.999999
0.999999
0.999999
0.999999
0.999999
0.999999
0.999999
1
1
1
1
1
1
1
1
1
0.999999
0.999999
0.999999
0.999999
0.999999
0.999999
0.999999
0.999999
0.999999
0.999999
0.999999
0.999999
0.999999
0.999999
0.999999
0.999999
0.999999
0.999999
0.999999
0.999999
0.999999
1
0.999999
0.999999
0.999999
0.999999
0.999999
0.999999
0.999999
0.999999
0.999999
0.999999
0.999999
0.999999
0.999999
0.999999
0.999999
0.999999
1
1
1
1
1
1
1
1
1
0.999999
0.999999
1
1
1
1
1
1
1
1
1
0.999999
0.999999
0.999999
0.999999
0.999999
0.999999
0.999999
0.999999
0.999999
0.999999
0.999999
0.999999
0.999999
1
1
1
1
1
1
1
1
1
0.999999
0.999999
0.999999
0.999999
0.999999
1
1
1
1
0.999999
0.999999
0.999999
0.999999
0.999999
0.999999
0.999999
0.999999
0.999999
0.999999
0.999999
0.999999
1
0.999999
0.999999
0.999999
0.999999
0.999999
0.999999
0.999999
0.999999
0.999999
0.999999
0.999999
0.999999
0.999999
0.999999
1
1
1
1
1
1
1
1
1
1
1
1
1
1
1
1
1
1
1
1
0.999999
0.999999
0.999999
0.999999
0.999999
0.999999
0.999999
0.999999
0.999999
0.999999
0.999999
0.999999
1
1
1
1
1
1
1
1
1
1
1
1
1
1
1
1
1
1
1
1
1
0.999999
0.999999
0.999999
0.999999
0.999999
0.999999
0.999999
0.999999
0.999999
0.999999
0.999999
0.999999
0.999999
0.999999
0.999999
0.999999
0.999999
0.999999
0.999999
0.999999
0.999999
0.999999
0.999999
0.999999
0.999999
1
1
1
1
1
1
1
1
1
1
1
1
1
1
1
1
1
1
1
1
0.999999
0.999999
0.999999
0.999998
0.999998
0.999998
0.999998
0.999998
0.999999
0.999999
0.999999
0.999999
0.999999
1
1
1
1
1
1
1
1
1
1
1
1
1
1
1
1
1
1
1
1
1
1
0.999999
0.999999
0.999999
0.999999
0.999999
0.999999
0.999999
0.999999
0.999999
0.999999
0.999999
0.999999
0.999999
0.999999
0.999999
0.999999
0.999999
0.999999
0.999999
0.999999
0.999999
0.999999
0.999999
1
1
1
1
1
1
1
1
1
1
1
1
1
1
1
1
1
1
1
1
1
0.999999
0.999999
0.999998
0.999998
0.999998
0.999998
0.999998
0.999998
0.999998
0.999999
0.999999
0.999999
0.999999
0.999999
0.999999
1
1
1
0.999999
0.999999
0.999998
0.999999
1
1
1
1
1
1
1
1
1
1
1
1
1
1
1
0.999999
0.999999
0.999999
0.999999
0.999999
0.999999
0.999999
0.999999
0.999999
0.999999
0.999999
0.999999
0.999999
0.999999
0.999999
0.999999
0.999999
0.999999
0.999999
0.999999
0.999999
1
1
1
1
1
1
1
1
1
1
1
1
1
1
1
1
1
1
1
1
1
0.999999
0.999999
0.999998
0.999998
0.999998
0.999998
0.999998
0.999998
0.999999
0.999999
0.999999
0.999999
0.999999
0.999999
0.999999
0.999998
0.999998
0.999998
0.999999
0.999999
0.999999
0.999998
0.999998
0.999999
1
1
1
1
1
1
1
1
1
1
1
1
1
1
1
1
0.999999
0.999999
0.999999
0.999999
0.999999
0.999999
0.999999
0.999999
0.999999
0.999999
0.999999
0.999999
0.999999
0.999999
0.999999
0.999999
0.999999
0.999999
1
1
1
1
1
1
1
1
1
1
1
1
1
1
1
1
1
1
1
1
1
0.999999
0.999999
0.999998
0.999998
0.999998
0.999998
0.999998
0.999999
0.999999
0.999999
0.999999
0.999999
0.999999
0.999999
0.999999
0.999998
0.999998
0.999998
0.999998
0.999999
1
1
1
0.999999
0.999999
1
1
1
1
1
1
1
1
1
1
1
1
1
1
1
1
1
0.999999
0.999999
0.999999
0.999999
0.999999
0.999999
0.999999
0.999999
0.999999
0.999999
0.999999
0.999999
0.999999
0.999999
0.999999
0.999999
1
1
1
1
1
1
1
1
1
1
1
1
1
1
1
1
1
1
1
1
1
0.999999
0.999999
0.999999
0.999998
0.999998
0.999998
0.999998
0.999999
0.999999
0.999999
0.999999
0.999999
0.999999
0.999998
0.999998
0.999999
0.999999
0.999999
1
0.999999
0.999999
1
1
1
1
1
1
1
1
1
1
1
1
1
1
1
1
1
1
1
1
1
1
1
0.999999
0.999999
0.999999
0.999999
0.999999
0.999999
0.999999
0.999999
0.999999
0.999999
0.999999
0.999999
0.999999
0.999999
0.999999
1
1
1
1
1
1
1
1
1
1
1
1
1
1
1
1
1
1
1
1
1
0.999999
0.999999
0.999999
0.999998
0.999999
0.999999
0.999999
0.999999
0.999999
0.999999
0.999999
0.999998
0.999998
0.999998
0.999999
0.999999
1
0.999999
1
1
1
0.999999
0.999999
0.999999
0.999999
1
1
1
1
1
1
1
1
1
1
1
1
1
1
1
1
1
1
1
1
0.999999
0.999999
0.999999
0.999999
0.999999
0.999999
0.999999
0.999999
0.999999
0.999999
0.999999
0.999999
0.999999
0.999999
1
1
1
1
1
1
1
1
1
1
1
1
1
1
1
1
1
1
1
1
1
0.999999
0.999999
0.999999
0.999999
0.999999
0.999999
0.999999
0.999999
1
1
1
0.999999
0.999998
0.999998
0.999997
0.999998
0.999999
0.999998
0.999997
0.999998
0.999999
1
1
1
1
1
1
1
1
1
1
1
1
1
1
1
1
1
1
1
1
1
1
1
1
0.999999
0.999999
0.999999
0.999999
0.999999
0.999999
1
0.999999
0.999999
0.999999
0.999999
0.999999
0.999999
1
1
1
1
1
1
1
1
1
1
1
1
1
1
1
1
1
1
1
1
1
1
0.999999
0.999999
0.999999
0.999999
1
1
1
1
1
1
1
1
1
1
0.999999
0.999997
0.999998
0.999998
0.999998
0.999998
0.999999
1
1
1
1
1
1
1
1
1
1
1
1
1
1
1
1
1
1
1
1
1
1
1
1
0.999999
0.999999
0.999999
0.999999
0.999999
0.999999
1
1
0.999999
0.999999
0.999999
1
1
1
1
1
1
1
1
1
1
1
1
1
1
1
1
1
1
1
1
1
1
0.999999
0.999999
0.999999
0.999999
0.999999
0.999999
0.999999
1
1
1
0.999999
0.999999
1
1
1
1
1
1
1
1
1
0.999999
0.999999
0.999999
1
1
0.999999
0.999999
1
1
1
1
1
1
1
1
1
1
1
1
1
1
1
1
1
1
1
1
0.999999
0.999999
0.999999
0.999999
0.999999
1
1
0.999999
1
1
1
1
1
1
1
1
1
1
1
1
1
1
1
1
1
1
1
1
1
1
1
0.999999
0.999999
0.999999
0.999999
0.999999
0.999999
0.999999
0.999999
0.999999
0.999999
1
0.999999
0.999999
1
1
1
1
1
1
1
1
1
0.999999
0.999998
0.999999
0.999999
0.999999
0.999999
0.999999
0.999999
0.999999
1
1
1
1
1
1
1
1
1
1
1
1
1
1
1
1
1
1
1
1
1
1
1
1
1
1
1
1
1
1
1
1
1
1
1
1
1
1
1
1
1
1
1
1
1
1
1
1
1
0.999999
0.999999
0.999999
0.999999
0.999999
0.999999
0.999999
0.999999
0.999999
0.999999
0.999999
0.999997
0.999992
0.999987
0.999983
0.999983
0.999987
0.999993
0.999998
0.999999
1
1
0.999999
0.999999
0.999999
0.999999
0.999999
0.999999
0.999999
1
1
1
1
1
1
1
1
1
1
1
1
1
1
1
1
1
1
1
1
1
1
1
1
1
1
1
1
1
1
1
1
1
1
1
1
1
1
1
1
1
1
1
1
1
1
1
1
1
1
1
1
1
1
1
1
1
1
1
0.998207
0.989979
0.971075
0.906263
0.803769
0.729518
0.690049
0.689138
0.727736
0.800651
0.90348
0.970208
0.989619
0.998075
1
1
1
1
1
1
1
1
1
1
1
1
1
1
1
1
1
1
1
1
1
1
1
1
1
1
1
1
1
1
1
1
1
0.00310909
0.00510919
0.00653219
0.00763123
0.00848248
0.00918815
0.00982794
0.0104591
0.0111233
0.0118521
0.01267
0.0135978
0.0146544
0.0158586
0.01723
0.0187898
0.0205608
0.0225682
0.0248392
0.0274026
0.0302879
0.0335232
0.0371323
0.0411291
0.0455086
0.0502328
0.0552086
0.0602541
0.0650488
0.0690604
0.0713773
0.0706583
0.0649758
0.0530082
0.0342102
0.0129912
0.00802729
0.00795806
0.0150704
0.0225287
0.0228634
0.0156687
0.00793404
0.00800783
0.0122757
0.0336613
0.0525812
0.0647326
0.0705909
0.0714146
0.069159
0.065177
0.0603938
0.0553489
0.0503675
0.0456344
0.0412447
0.0372373
0.033618
0.0303732
0.0274792
0.024908
0.0226301
0.0206165
0.0188402
0.0172758
0.0159002
0.0146924
0.0136327
0.0127022
0.011882
0.0111511
0.010485
0.00985211
0.00921059
0.00850309
0.00764971
0.006548
0.00512156
0.00311639
8.81751e-10
2.70185e-10
7.66166e-10
1.3527e-09
2.01042e-09
2.74765e-09
3.57475e-09
4.52449e-09
5.65184e-09
7.03369e-09
8.77216e-09
1.10009e-08
1.38941e-08
1.76786e-08
2.26477e-08
2.91768e-08
3.77372e-08
4.89029e-08
6.33419e-08
8.17754e-08
1.04881e-07
1.33103e-07
1.66314e-07
2.03295e-07
2.41432e-07
2.76631e-07
3.01631e-07
3.08009e-07
2.86066e-07
2.30651e-07
1.51662e-07
1.48717e-07
4.03805e-07
7.213e-07
8.06786e-07
7.21199e-06
0.0447682
0.172687
0.25054
0.243218
0.243117
0.251447
0.174522
0.0468363
7.90905e-06
7.7961e-07
6.88165e-07
3.9749e-07
1.98827e-07
1.46996e-07
2.24147e-07
2.84272e-07
3.09382e-07
3.05064e-07
2.80561e-07
2.44701e-07
2.05476e-07
1.6786e-07
1.34364e-07
1.05926e-07
8.26119e-08
6.39948e-08
4.94055e-08
3.81215e-08
2.94697e-08
2.2871e-08
1.78495e-08
1.40259e-08
1.11032e-08
8.85223e-09
7.09672e-09
5.70163e-09
4.56377e-09
3.60542e-09
2.77112e-09
2.02763e-09
1.36425e-09
7.72643e-10
2.72485e-10
8.89177e-10
1.33918e-12
2.22953e-13
7.64981e-13
1.50904e-12
2.44675e-12
3.48974e-12
4.85267e-12
6.71945e-12
9.04774e-12
1.21526e-11
1.62891e-11
2.1976e-11
2.99077e-11
4.09574e-11
5.62616e-11
7.72077e-11
1.05149e-10
1.40728e-10
1.82456e-10
2.24181e-10
2.5124e-10
2.31939e-10
1.03365e-10
-5.83898e-11
-4.51842e-11
-9.3214e-13
1.85141e-11
6.55785e-10
4.83698e-09
1.43153e-08
3.17855e-08
1.16375e-07
6.29518e-07
8.20516e-07
8.96867e-07
2.88318e-06
0.0216174
0.308405
0.402057
0.402057
0.402057
0.402057
0.315599
0.023536
3.28619e-06
8.46947e-07
7.51976e-07
5.87537e-07
1.69224e-07
3.14185e-08
1.22571e-08
4.3526e-09
7.66477e-10
4.419e-11
-3.74254e-12
-3.1432e-11
-7.7455e-11
1.57226e-11
1.53302e-10
2.1382e-10
2.10023e-10
1.78597e-10
1.41378e-10
1.0763e-10
8.00613e-11
5.88092e-11
4.3065e-11
3.16278e-11
2.33172e-11
1.72115e-11
1.26753e-11
9.29269e-12
6.77786e-12
4.88286e-12
3.55997e-12
2.60712e-12
1.61538e-12
8.24549e-13
2.43547e-13
1.63631e-12
3.64366e-15
3.50463e-16
1.23825e-15
2.56432e-15
4.40904e-15
6.95576e-15
1.04398e-14
1.52849e-14
2.21433e-14
3.20541e-14
4.66668e-14
6.85715e-14
1.01773e-13
1.52337e-13
2.2907e-13
3.43695e-13
5.09405e-13
7.3541e-13
1.01355e-12
1.29315e-12
1.44386e-12
1.21573e-12
2.20128e-13
6.28821e-13
6.27578e-13
6.75178e-13
1.34647e-12
1.83973e-11
1.2398e-09
8.49709e-09
2.24422e-08
5.94214e-08
4.0758e-07
1.99097e-05
3.99446e-05
6.39956e-07
4.62158e-06
0.0951519
0.402054
0.402057
0.402057
0.402055
0.104781
6.0849e-06
9.24409e-07
4.22679e-05
1.97334e-05
7.99713e-07
1.46616e-07
1.61968e-08
5.76829e-09
1.33734e-09
6.33044e-10
6.24773e-12
1.99355e-12
1.89559e-12
1.89217e-12
1.03508e-12
1.89761e-12
2.36306e-12
1.86893e-12
1.33843e-12
9.55794e-13
6.65377e-13
4.56876e-13
3.12565e-13
2.15471e-13
1.50356e-13
1.06019e-13
7.52358e-14
5.34672e-14
3.78109e-14
2.63851e-14
1.79598e-14
1.17191e-14
7.18334e-15
4.01902e-15
1.78582e-15
4.48756e-16
4.47485e-15
8.43307e-18
7.49659e-19
2.69303e-18
5.76855e-18
1.039e-17
1.73391e-17
2.77992e-17
4.37199e-17
6.83826e-17
1.07369e-16
1.70256e-16
2.73523e-16
4.45386e-16
7.33576e-16
1.21656e-15
2.01576e-15
3.29925e-15
5.24981e-15
7.93907e-15
1.10232e-14
1.32528e-14
1.31354e-14
5.15759e-14
8.93402e-13
1.03203e-11
4.74513e-11
9.0343e-11
9.68851e-11
3.68676e-10
1.82577e-09
1.53783e-08
3.49689e-06
1.0746e-05
1.08909e-05
4.28888e-06
1.44861e-08
7.16244e-08
0.0207963
0.390685
0.401947
0.401947
0.39403
0.0252609
5.19125e-07
4.37862e-08
1.04008e-05
1.86267e-05
1.81852e-05
6.67953e-06
2.74706e-08
4.17586e-09
9.13417e-10
1.44757e-10
1.0571e-10
5.49533e-11
1.45838e-11
1.96414e-12
1.70256e-13
3.22197e-14
3.11356e-14
2.67526e-14
1.91606e-14
1.2396e-14
7.62981e-15
4.56552e-15
2.69388e-15
1.59129e-15
9.52457e-16
5.80705e-16
3.60727e-16
2.27806e-16
1.45677e-16
9.37375e-17
6.01067e-17
3.78708e-17
2.29298e-17
1.28545e-17
6.06409e-18
1.7602e-18
1.05937e-17
9.40741e-20
2.47479e-21
1.15369e-20
2.13514e-20
3.21532e-20
5.2692e-20
8.96971e-20
1.50914e-19
2.54261e-19
4.32442e-19
7.46699e-19
1.31264e-18
2.3492e-18
4.2701e-18
7.84416e-18
1.44438e-17
2.63423e-17
4.68005e-17
7.91215e-17
1.23065e-16
1.78243e-16
7.08262e-16
2.56274e-14
7.5502e-13
1.02098e-11
4.16622e-11
7.93254e-11
2.59761e-10
4.12719e-08
7.00041e-07
8.28344e-07
5.28167e-07
5.4495e-10
6.9081e-10
1.09014e-09
2.44963e-09
3.74326e-08
0.00223622
0.0786066
0.133845
0.135728
0.0874755
0.00298586
4.37862e-08
2.57383e-08
1.14363e-08
3.51611e-08
7.67957e-07
2.2556e-06
2.52512e-06
2.15687e-06
1.29963e-07
5.62402e-10
1.04913e-10
2.92294e-11
1.27111e-11
1.83834e-12
7.85686e-14
4.36947e-15
2.24119e-15
2.08494e-15
1.48399e-15
8.52581e-16
4.62787e-16
2.45801e-16
1.2867e-16
6.71776e-17
3.55501e-17
1.92672e-17
1.07188e-17
6.11185e-18
3.56161e-18
2.11097e-18
1.26192e-18
7.50273e-19
4.33458e-19
2.34121e-19
1.07941e-19
2.9125e-20
1.29784e-19
3.01071e-22
1.16693e-23
6.89232e-23
1.1181e-22
1.65232e-22
2.56047e-22
3.91906e-22
6.06107e-22
1.09767e-21
2.01925e-21
3.79358e-21
7.29828e-21
1.43673e-20
2.88673e-20
5.88936e-20
1.2099e-19
2.47313e-19
4.95057e-19
9.49235e-19
1.69645e-18
4.90572e-18
1.77696e-16
7.54658e-15
3.56482e-13
5.95518e-12
2.38569e-11
6.32365e-11
3.00394e-09
1.09512e-07
1.62665e-07
2.10879e-08
2.62977e-10
3.60526e-10
6.79328e-10
9.08068e-09
3.51523e-07
4.21462e-06
0.000338653
9.19826e-12
9.6166e-12
1.06135e-11
1.12928e-11
0.000130613
1.25125e-06
4.88648e-07
7.0494e-09
8.0496e-10
5.13866e-10
4.17512e-10
4.14989e-08
2.8913e-07
2.35886e-07
1.33817e-08
9.85252e-11
1.76686e-11
1.0093e-11
1.01384e-12
2.79764e-14
8.12716e-16
9.57494e-17
4.82244e-17
2.85732e-17
1.4125e-17
6.43716e-18
2.90185e-18
1.30904e-18
5.96846e-19
2.79019e-19
1.34942e-19
6.7612e-20
3.50244e-20
1.86968e-20
1.02334e-20
5.69472e-21
3.17822e-21
1.73924e-21
8.98961e-22
4.00508e-22
1.05583e-22
4.62854e-22
1.05057e-24
7.24936e-26
3.57229e-25
6.86266e-25
9.9477e-25
1.35672e-24
2.20522e-24
3.71668e-24
6.37093e-24
1.12534e-23
2.17099e-23
4.56661e-23
9.88338e-23
2.19516e-22
4.97964e-22
1.14418e-21
2.63498e-21
5.99915e-21
1.3687e-20
2.80623e-20
7.78559e-20
1.99409e-18
5.01702e-16
5.43995e-14
1.32078e-12
5.86418e-12
1.97181e-11
8.55781e-09
3.42493e-08
2.79367e-09
1.13381e-10
1.59233e-10
2.62977e-10
9.6183e-10
6.9617e-09
1.38873e-06
5.53214e-06
9.1983e-12
9.16304e-12
9.19826e-12
9.6166e-12
1.06073e-11
1.12928e-11
9.68624e-07
7.88977e-07
3.98656e-08
6.95437e-10
4.23772e-10
2.7811e-10
1.52502e-10
1.8644e-08
7.66854e-08
1.761e-08
4.42936e-11
2.07147e-11
4.30734e-12
2.24756e-13
6.36477e-15
1.40484e-16
4.84027e-18
9.62574e-19
4.16219e-19
1.86922e-19
7.54258e-20
2.99251e-20
1.20093e-20
4.92005e-21
2.08292e-21
9.18272e-22
4.22003e-22
2.01746e-22
1.00011e-22
5.11571e-23
2.67814e-23
1.41614e-23
7.40012e-24
3.6841e-24
1.5935e-24
4.15148e-25
1.79776e-24
4.10989e-27
3.91537e-28
1.80743e-27
3.79715e-27
6.41618e-27
9.69395e-27
1.36512e-26
2.34712e-26
4.32996e-26
8.3805e-26
1.68148e-25
3.55238e-25
7.86075e-25
1.83532e-24
4.626e-24
1.21132e-23
3.47059e-23
1.07867e-22
2.6969e-22
4.61346e-22
1.38921e-21
3.65864e-20
1.99416e-18
1.00649e-16
1.75957e-14
1.09599e-13
1.09494e-10
2.27558e-09
6.803e-10
7.19686e-11
1.04235e-10
1.56433e-10
2.35107e-10
4.85393e-09
1.11043e-08
1.70806e-10
1.76197e-10
9.6661e-12
1.6086e-11
2.57665e-11
3.37609e-11
4.20215e-11
2.3866e-11
2.35235e-11
2.30795e-11
3.67562e-10
7.00818e-10
5.56114e-10
3.20598e-10
1.43711e-10
1.08561e-10
5.12701e-09
4.41122e-09
1.22654e-10
8.06392e-12
5.68356e-13
2.36827e-14
7.58076e-16
1.80688e-17
3.66734e-19
2.53598e-20
7.32754e-21
2.83362e-21
1.02225e-21
3.57952e-22
1.27493e-22
4.67732e-23
1.78709e-23
7.16102e-24
3.01186e-24
1.32684e-24
6.10332e-25
2.91753e-25
1.43791e-25
7.2132e-26
3.60489e-26
1.73081e-26
7.27382e-27
1.86258e-27
7.86251e-27
1.74515e-29
2.09016e-30
9.3827e-30
2.09767e-29
3.89588e-29
6.72894e-29
1.10978e-28
1.75244e-28
3.11254e-28
6.43281e-28
1.40728e-27
3.27077e-27
8.00444e-27
2.07669e-26
5.75814e-26
1.71794e-25
5.59684e-25
2.04629e-24
5.53978e-24
8.38827e-24
2.48455e-23
5.28664e-22
3.65866e-20
2.4012e-18
1.26627e-16
4.73061e-15
1.69671e-11
1.32282e-10
2.90381e-11
3.78483e-11
1.01479e-10
1.49808e-10
1.79429e-10
1.57546e-10
1.5717e-10
1.69917e-10
1.35967e-10
1.37189e-11
3.15671e-11
4.9526e-11
9.40857e-11
1.59723e-10
1.42135e-10
4.87315e-11
3.17743e-11
3.83693e-11
2.10901e-10
3.83952e-10
2.63957e-10
1.39651e-10
4.40356e-11
4.58113e-11
2.47519e-10
2.50882e-11
8.8242e-13
3.70552e-14
1.49412e-15
4.98868e-17
1.31798e-18
2.61274e-20
8.38874e-22
1.44513e-22
4.54062e-23
1.46817e-23
4.56831e-24
1.44837e-24
4.76865e-25
1.64778e-25
6.01393e-26
2.31977e-26
9.43745e-27
4.03708e-27
1.80755e-27
8.40591e-28
4.00945e-28
1.92034e-28
8.90743e-29
3.64231e-29
9.17046e-30
3.74649e-29
7.92871e-32
1.14016e-32
5.05946e-32
1.18868e-31
2.37018e-31
4.49136e-31
8.36944e-31
1.55929e-30
2.91533e-30
5.51561e-30
1.2486e-29
3.14662e-29
8.41392e-29
2.40854e-28
7.45099e-28
2.5208e-27
9.58111e-27
5.26516e-26
1.41167e-25
1.59279e-25
4.82658e-25
7.66401e-24
5.28665e-22
4.47216e-20
3.06877e-18
1.3635e-16
6.25703e-13
7.28294e-12
1.54959e-11
2.77424e-11
6.3561e-11
1.09664e-10
1.64539e-10
1.60594e-10
4.1688e-10
1.65161e-09
1.81348e-09
1.41646e-11
2.97963e-11
5.34096e-11
1.35742e-10
2.24811e-10
1.88151e-10
8.35652e-11
3.85139e-11
1.5895e-10
3.42128e-10
3.23309e-10
1.74194e-10
8.44122e-11
3.01102e-11
1.3014e-11
2.02847e-11
1.40563e-12
4.6017e-14
1.85466e-15
7.16809e-17
2.32453e-18
6.24221e-20
1.34743e-21
3.06864e-23
3.01526e-24
7.5516e-25
2.16918e-25
6.04318e-26
1.71607e-26
5.09381e-27
1.59811e-27
5.33128e-28
1.89214e-28
7.13026e-29
2.84464e-29
1.19621e-29
5.2626e-30
2.39245e-30
1.10052e-30
4.94051e-31
1.96867e-31
4.87721e-32
1.91723e-31
3.80918e-34
6.40545e-35
2.83504e-34
6.95034e-34
1.47009e-33
3.00104e-33
6.13438e-33
1.28191e-32
2.76808e-32
6.21794e-32
1.46124e-31
3.64039e-31
1.00159e-30
3.16682e-30
1.10616e-29
4.51923e-29
2.38115e-28
1.39972e-27
4.82715e-27
4.94986e-27
9.86391e-27
1.26577e-25
7.66401e-24
8.35293e-22
7.73214e-20
3.30175e-16
2.17247e-14
3.92794e-13
2.23953e-12
9.08213e-12
2.55667e-11
6.05686e-11
1.26215e-10
1.39534e-10
2.06938e-10
2.00905e-09
3.02711e-09
1.50927e-11
2.30923e-11
4.73891e-11
1.54853e-10
2.35235e-10
1.6722e-10
5.28066e-11
7.25732e-11
2.26784e-10
2.88556e-10
2.05615e-10
8.06904e-11
3.04125e-11
1.06127e-11
3.2649e-12
1.08293e-12
4.95789e-14
1.83107e-15
7.55461e-17
2.78985e-18
8.71011e-20
2.28573e-21
5.06651e-23
1.0555e-24
6.45867e-26
1.28308e-26
3.24099e-27
8.13354e-28
2.08348e-28
5.60691e-29
1.60482e-29
4.91423e-30
1.61091e-30
5.64263e-31
2.10627e-31
8.34347e-32
3.48204e-32
1.51251e-32
6.69683e-33
2.91506e-33
1.13366e-33
2.7655e-34
1.04129e-33
1.91523e-36
3.7049e-37
1.64406e-36
4.18644e-36
9.32346e-36
2.0294e-35
4.48424e-35
1.02825e-34
2.47803e-34
6.33446e-34
1.73002e-33
5.10199e-33
1.64323e-32
5.86714e-32
2.35426e-31
1.06682e-30
5.52286e-30
3.26076e-29
1.42776e-28
1.76454e-28
2.98813e-28
9.86391e-27
1.26577e-25
6.79249e-23
2.69131e-19
3.78111e-17
9.59002e-16
1.92148e-14
1.68074e-13
1.48426e-12
7.79132e-12
2.70615e-11
8.05129e-11
1.09134e-10
7.76271e-11
5.09427e-10
3.08062e-09
7.37294e-11
1.52191e-11
3.47958e-11
1.58562e-10
2.34714e-10
1.01554e-10
4.07731e-11
9.50256e-11
1.82841e-10
1.96195e-10
9.72516e-11
2.58706e-11
6.6282e-12
1.40705e-12
2.75541e-13
3.90156e-14
1.70297e-15
6.90274e-17
2.72334e-18
9.35078e-20
2.79007e-21
7.08517e-23
1.54874e-24
3.16096e-26
1.38282e-27
2.17734e-28
4.82635e-29
1.0965e-29
2.55252e-30
6.26785e-31
1.64567e-31
4.64813e-32
1.41341e-32
4.61991e-33
1.61927e-33
6.06197e-34
2.40696e-34
1.0016e-34
4.27827e-35
1.80915e-35
6.87692e-36
1.65309e-36
5.94019e-36
9.98581e-39
2.19829e-39
9.81117e-39
2.58605e-38
6.03218e-38
1.39041e-37
3.29134e-37
8.18238e-37
2.16453e-36
6.14943e-36
1.88896e-35
6.32349e-35
2.3206e-34
9.39307e-34
4.20764e-33
2.08056e-32
1.13765e-31
6.93745e-31
3.70129e-30
9.46665e-30
1.02881e-28
2.15393e-26
5.68042e-24
5.18367e-22
5.97865e-20
1.74743e-18
5.71504e-17
1.26079e-15
1.90925e-14
2.62226e-13
2.24953e-12
1.07056e-11
4.20034e-11
7.68001e-11
6.44907e-11
3.47763e-11
2.11115e-09
1.18693e-10
1.11234e-11
2.44797e-11
1.56351e-10
2.05773e-10
6.54233e-11
4.07686e-11
8.91031e-11
1.25063e-10
1.10272e-10
3.64609e-11
7.60077e-12
1.35762e-12
1.59749e-13
1.61652e-14
1.5943e-15
7.32928e-17
2.96415e-18
1.07907e-19
3.36426e-21
9.05525e-23
2.14521e-24
4.46267e-26
8.7433e-28
2.9497e-29
3.62797e-30
7.07074e-31
1.46116e-31
3.11447e-32
7.02703e-33
1.70269e-33
4.45954e-34
1.2639e-34
3.87154e-35
1.27906e-35
4.54096e-36
1.72075e-36
6.87844e-37
2.84115e-37
1.16943e-37
4.35145e-38
1.03151e-38
3.5266e-38
5.35496e-41
1.33157e-41
5.98842e-41
1.62923e-40
3.96372e-40
9.62429e-40
2.42484e-39
6.48283e-39
1.86322e-38
5.80679e-38
1.97362e-37
7.3554e-37
3.01415e-36
1.36066e-35
6.75991e-35
3.67499e-34
2.17114e-33
1.39092e-32
9.31916e-32
2.15598e-30
2.17343e-28
2.45305e-26
2.52147e-24
1.71425e-22
5.74613e-21
2.02029e-19
6.50668e-18
1.66831e-16
3.64898e-15
6.48463e-14
7.08479e-13
4.16098e-12
1.87156e-11
4.93989e-11
5.0401e-11
3.48443e-11
1.75684e-11
3.32469e-11
8.4165e-12
1.6397e-11
1.40565e-10
1.81634e-10
5.20154e-11
4.07905e-11
7.25193e-11
8.2936e-11
5.43272e-11
1.3724e-11
2.8523e-12
4.32553e-13
3.9308e-14
2.50336e-15
1.4376e-16
6.34521e-18
2.35145e-19
7.40549e-21
1.98603e-22
4.61417e-24
9.43663e-26
1.72455e-27
2.96429e-29
7.05109e-31
5.96649e-32
1.00809e-32
1.90288e-33
3.74275e-34
7.81609e-35
1.75908e-35
4.2966e-36
1.14072e-36
3.28948e-37
1.02854e-37
3.47555e-38
1.261e-38
4.85586e-39
1.94426e-39
7.80502e-40
2.84731e-40
6.66125e-41
2.16101e-40
2.93177e-43
8.19089e-44
3.71571e-43
1.04078e-42
2.63131e-42
6.70045e-42
1.7873e-41
5.10629e-41
1.58241e-40
5.36105e-40
1.99473e-39
8.17955e-39
3.69854e-38
1.84309e-37
1.00881e-36
6.02362e-36
3.89158e-35
2.67156e-34
5.152e-33
6.10616e-31
7.89852e-29
7.5327e-27
4.35186e-25
2.33919e-23
9.59885e-22
3.92633e-20
1.3283e-18
3.75376e-17
9.38851e-16
1.94347e-14
2.50293e-13
1.7165e-12
8.03239e-12
2.77403e-11
3.89053e-11
3.43813e-11
1.75976e-11
9.30954e-12
4.93554e-12
1.11533e-11
1.24294e-10
1.75962e-10
4.60569e-11
3.79941e-11
5.27736e-11
5.37422e-11
2.61926e-11
6.04237e-12
1.26149e-12
1.72623e-13
1.36799e-14
7.12913e-16
3.18336e-17
1.25231e-18
4.10645e-20
1.11587e-21
2.56448e-23
5.07479e-25
8.81427e-27
1.36282e-28
1.91612e-30
2.83335e-32
1.07363e-33
1.39869e-34
2.39992e-35
4.38792e-36
8.5455e-37
1.79832e-37
4.12079e-38
1.03032e-38
2.8103e-39
8.3518e-40
2.6963e-40
9.39789e-41
3.49648e-41
1.36045e-41
5.33734e-42
1.91184e-42
4.41783e-43
1.35667e-42
1.62781e-45
5.08985e-46
2.32998e-45
6.70284e-45
1.75504e-44
4.66793e-44
1.312e-43
3.98375e-43
1.32267e-42
4.83559e-42
1.95298e-41
8.73107e-41
4.31845e-40
2.357e-39
1.36174e-38
8.20098e-38
5.25574e-37
5.97683e-36
5.33074e-34
8.72781e-32
1.03526e-29
8.88491e-28
6.18954e-26
3.92693e-24
2.1519e-22
9.67382e-21
3.53586e-19
1.0702e-17
2.83952e-16
6.49485e-15
9.61562e-14
7.53068e-13
3.62778e-12
1.43905e-11
2.85788e-11
2.88335e-11
2.36707e-11
1.31206e-11
4.55294e-12
8.79522e-12
1.08303e-10
1.76054e-10
4.28815e-11
3.20753e-11
3.7679e-11
3.23987e-11
1.19622e-11
2.93062e-12
5.8303e-13
7.2437e-14
5.07133e-15
2.36599e-16
9.52246e-18
3.41494e-19
1.01566e-20
2.48604e-22
5.10386e-24
8.94937e-26
1.36235e-27
1.82538e-29
2.18356e-31
2.39223e-33
3.34994e-35
1.97361e-36
2.92105e-37
4.97986e-38
9.11021e-39
1.805e-39
3.90434e-40
9.24365e-41
2.39653e-41
6.79894e-42
2.10524e-42
7.07328e-43
2.55011e-43
9.6666e-44
3.71391e-44
1.30825e-44
2.98851e-45
8.66747e-45
9.10947e-48
3.18042e-48
1.4683e-47
4.32783e-47
1.16968e-46
3.23668e-46
9.54251e-46
3.06368e-45
1.08352e-44
4.24713e-44
1.83318e-43
8.50994e-43
4.30808e-42
2.37502e-41
1.41398e-40
9.006e-40
6.08171e-39
1.50513e-37
2.86534e-35
5.72203e-33
8.10005e-31
9.37467e-29
9.07952e-27
7.17467e-25
4.60629e-23
2.35648e-21
9.66381e-20
3.22246e-18
9.14848e-17
2.24227e-15
3.73406e-14
3.30789e-13
1.69834e-12
7.24781e-12
1.8838e-11
2.29593e-11
2.09329e-11
1.34191e-11
3.99499e-12
7.77425e-12
9.26369e-11
1.87363e-10
4.19642e-11
2.78992e-11
2.80736e-11
1.96202e-11
6.03406e-12
1.50511e-12
2.83598e-13
3.13004e-14
1.90044e-15
8.05867e-17
3.03921e-18
9.9831e-20
2.69905e-21
5.99374e-23
1.10993e-24
1.74167e-26
2.34766e-28
2.76248e-30
2.87477e-32
2.65184e-34
2.29726e-36
3.79246e-38
3.47168e-39
5.44328e-40
9.40657e-41
1.76643e-41
3.62949e-42
8.18332e-43
2.02678e-43
5.5137e-44
1.64394e-44
5.34277e-45
1.87217e-45
6.93152e-46
2.61338e-46
9.06702e-47
2.04936e-47
5.6009e-47
5.10205e-50
2.0021e-50
9.23653e-50
2.78367e-49
7.73316e-49
2.20843e-48
6.72475e-48
2.22923e-47
8.1206e-47
3.26267e-46
1.44437e-45
7.01908e-45
3.73325e-44
2.1629e-43
1.35681e-42
9.1369e-42
6.5015e-41
1.92984e-39
5.71804e-37
1.63556e-34
3.53654e-32
6.01601e-30
8.02833e-28
8.43131e-26
6.84707e-24
4.31039e-22
2.11998e-20
8.39093e-19
2.80114e-17
7.30101e-16
1.27355e-14
1.26454e-13
7.2331e-13
3.39973e-12
1.08605e-11
1.64028e-11
1.52973e-11
9.41052e-12
2.67852e-12
7.12097e-12
7.72435e-11
2.03243e-10
4.49233e-11
2.64298e-11
2.43722e-11
1.4757e-11
4.33906e-12
9.05267e-13
1.49421e-13
1.33184e-14
6.65376e-16
2.57573e-17
9.01677e-19
2.65181e-20
6.35223e-22
1.2501e-23
2.04934e-25
2.84004e-27
3.37341e-29
3.49001e-31
3.19018e-33
2.59304e-35
1.8577e-37
1.42841e-39
4.39e-41
5.70292e-42
9.34869e-43
1.67661e-43
3.29144e-44
7.10491e-45
1.68965e-45
4.42828e-46
1.27653e-46
4.0274e-47
1.37579e-47
4.98792e-48
1.84932e-48
6.3292e-49
1.41679e-49
3.64037e-49
2.84642e-52
1.23184e-52
5.66158e-52
1.73018e-51
4.87302e-51
1.41647e-50
4.41721e-50
1.50702e-49
5.67339e-49
2.36297e-48
1.08772e-47
5.51863e-47
3.07255e-46
1.86641e-45
1.22829e-44
8.67418e-44
6.48959e-43
1.95567e-41
6.29096e-39
2.22411e-36
6.40226e-34
1.48753e-31
2.77826e-29
4.29032e-27
5.14333e-25
4.55668e-23
3.0035e-21
1.59111e-19
7.94926e-18
2.51874e-16
3.74739e-15
3.54253e-14
2.21525e-13
1.22528e-12
4.93953e-12
8.9262e-12
8.19557e-12
4.37301e-12
1.5165e-12
6.86797e-12
6.21448e-11
2.18892e-10
5.1023e-11
2.4296e-11
2.26976e-11
1.24933e-11
3.41668e-12
6.01153e-13
7.98814e-14
5.04582e-15
1.93357e-16
6.78922e-18
2.15794e-19
5.60362e-21
1.18222e-22
2.06573e-24
3.04224e-26
3.85113e-28
4.2429e-30
4.10623e-32
3.53018e-34
2.71549e-36
1.85909e-38
1.14855e-40
1.0029e-42
5.94047e-44
8.90972e-45
1.52973e-45
2.88698e-46
6.00734e-47
1.38038e-47
3.50436e-48
9.80568e-49
3.01369e-49
1.00677e-49
3.58356e-50
1.3093e-50
4.42611e-51
9.85177e-52
2.36615e-51
1.57649e-54
7.50929e-55
3.43311e-54
1.06159e-53
3.02736e-53
8.94036e-53
2.84574e-52
9.95167e-52
3.8562e-51
1.65872e-50
7.91054e-50
4.16654e-49
2.41111e-48
1.52385e-47
1.04292e-46
7.65301e-46
6.21789e-45
2.79997e-43
8.32626e-41
2.53894e-38
6.70739e-36
1.59761e-33
3.48694e-31
7.6213e-29
1.56506e-26
2.44133e-24
2.68698e-22
2.28683e-20
2.33282e-18
1.14442e-16
1.59144e-15
9.98578e-15
4.69017e-14
2.6886e-13
1.37778e-12
2.75432e-12
2.482e-12
1.18475e-12
9.83136e-13
7.32819e-12
4.86439e-11
2.3052e-10
6.35514e-11
1.82253e-11
1.73372e-11
9.29443e-12
2.1303e-12
3.37916e-13
3.6968e-14
1.79425e-15
6.31982e-17
2.05596e-18
6.04921e-20
1.51296e-21
3.14366e-23
5.46697e-25
8.08231e-27
1.03078e-28
1.14339e-30
1.10953e-32
9.45636e-35
7.10591e-37
4.72739e-39
2.77938e-41
1.48873e-43
1.21121e-45
8.3847e-47
1.34619e-47
2.45095e-48
4.92974e-49
1.09738e-49
2.7061e-50
7.38599e-51
2.22153e-51
7.28642e-52
2.55503e-52
9.22351e-53
3.08392e-53
6.85564e-54
1.53013e-53
8.63111e-57
4.54038e-57
2.06213e-56
6.43883e-56
1.85481e-55
5.54996e-55
1.79685e-54
6.41592e-54
2.54755e-53
1.12603e-52
5.53083e-52
3.00495e-51
1.79479e-50
1.17053e-49
8.25492e-49
6.24965e-48
6.13995e-47
4.9567e-45
1.3816e-42
3.6334e-40
8.07623e-38
2.55299e-36
5.98507e-34
2.71452e-31
1.37642e-28
5.82328e-26
1.58311e-23
2.67945e-21
6.44422e-19
5.64049e-17
9.05637e-16
6.03071e-15
1.96771e-14
5.99475e-14
2.20625e-13
4.41789e-13
4.25478e-13
3.85092e-13
7.74507e-13
9.49709e-12
3.8494e-11
2.33974e-10
8.80196e-11
1.2056e-11
8.46436e-12
4.33241e-12
8.49139e-13
1.3502e-13
1.47068e-14
8.94444e-16
3.85829e-17
1.24337e-18
3.54787e-20
8.81113e-22
1.82192e-23
3.13282e-25
4.53692e-27
5.58257e-29
5.90483e-31
5.42662e-33
4.3493e-35
3.05175e-37
1.88369e-39
1.0238e-41
4.86125e-44
2.08991e-46
1.47534e-48
1.15921e-49
2.00995e-50
3.9269e-51
8.50661e-52
2.0453e-52
5.45912e-53
1.61023e-53
5.19718e-54
1.79948e-54
6.43435e-55
2.13317e-55
4.73224e-56
9.81026e-56
4.65239e-59
2.71528e-59