/*--------------------------------*- C++ -*----------------------------------*\
| =========                 |                                                 |
| \\      /  F ield         | OpenFOAM: The Open Source CFD Toolbox           |
|  \\    /   O peration     | Version:  2412                                  |
|   \\  /    A nd           | Website:  www.openfoam.com                      |
|    \\/     M anipulation  |                                                 |
\*---------------------------------------------------------------------------*/
FoamFile
{
    version     2.0;
    format      ascii;
    arch        "LSB;label=32;scalar=64";
    class       surfaceScalarField;
    location    "2.64";
    object      alphaPhi0.water;
}
// * * * * * * * * * * * * * * * * * * * * * * * * * * * * * * * * * * * * * //

dimensions      [0 3 -1 0 0 0 0];

oriented        oriented;

internalField   nonuniform List<scalar> 
158920
(
-1.27078e-07
1.27074e-07
-2.33735e-07
7.63761e-08
-2.8307e-07
2.30414e-08
-3.25933e-07
2.2964e-08
-3.67283e-07
2.68378e-08
-4.03644e-07
2.60248e-08
-4.38406e-07
2.75214e-08
-4.70889e-07
2.74627e-08
-5.01763e-07
2.74155e-08
-5.32791e-07
2.86515e-08
-5.65597e-07
3.11762e-08
-6.01345e-07
3.46305e-08
-6.4036e-07
3.82489e-08
-6.82588e-07
4.1702e-08
-7.27807e-07
4.48591e-08
-7.75766e-07
4.77114e-08
-8.26172e-07
5.02353e-08
-8.78701e-07
5.24112e-08
-9.33017e-07
5.4234e-08
-9.88773e-07
5.56987e-08
-1.04563e-06
5.68148e-08
-1.10333e-06
5.76664e-08
-1.16189e-06
5.85441e-08
-1.2206e-06
5.86853e-08
-1.27959e-06
5.89851e-08
-1.33882e-06
5.92135e-08
-1.39821e-06
5.93812e-08
-1.45776e-06
5.95327e-08
-1.51746e-06
5.96887e-08
-1.57735e-06
5.98851e-08
-1.63748e-06
6.01188e-08
-1.69791e-06
6.04207e-08
-1.75871e-06
6.07938e-08
-1.81997e-06
6.12522e-08
-1.88178e-06
6.17965e-08
-1.94422e-06
6.24296e-08
-2.00738e-06
6.31502e-08
-2.07134e-06
6.39527e-08
-2.13619e-06
6.48372e-08
-2.202e-06
6.57968e-08
-2.26883e-06
6.6823e-08
-2.33675e-06
6.79108e-08
-2.40581e-06
6.90531e-08
-2.47607e-06
7.02443e-08
-2.54755e-06
7.14772e-08
-2.62031e-06
7.27474e-08
-2.69437e-06
7.40517e-08
-2.76977e-06
7.53845e-08
-2.84653e-06
7.67482e-08
-2.92468e-06
7.81364e-08
-3.00424e-06
7.95517e-08
-3.08524e-06
8.09923e-08
-3.16771e-06
8.24598e-08
-3.25168e-06
8.39554e-08
-3.33718e-06
8.54826e-08
-3.42423e-06
8.70421e-08
-3.51288e-06
8.86363e-08
-3.60316e-06
9.02674e-08
-3.69511e-06
9.19375e-08
-3.78877e-06
9.36481e-08
-3.88418e-06
9.54009e-08
-3.98139e-06
9.71971e-08
-4.08044e-06
9.9038e-08
-4.18138e-06
1.00925e-07
-4.28425e-06
1.02858e-07
-4.38911e-06
1.04837e-07
-4.49598e-06
1.06865e-07
-4.60494e-06
1.08941e-07
-4.71602e-06
1.11066e-07
-4.82928e-06
1.13242e-07
-4.94476e-06
1.15471e-07
-5.06253e-06
1.17753e-07
-5.18264e-06
1.20089e-07
-5.30513e-06
1.22481e-07
-5.43008e-06
1.24931e-07
-5.55754e-06
1.27439e-07
-5.68756e-06
1.30009e-07
-5.82022e-06
1.32641e-07
-5.95557e-06
1.35338e-07
-6.09369e-06
1.381e-07
-6.23464e-06
1.4093e-07
-6.37848e-06
1.43826e-07
-6.52529e-06
1.46791e-07
-6.67513e-06
1.49824e-07
-6.82808e-06
1.52927e-07
-6.9842e-06
1.561e-07
-7.14356e-06
1.59346e-07
-7.30625e-06
1.62666e-07
-7.47233e-06
1.66064e-07
-7.6419e-06
1.69541e-07
-7.81502e-06
1.73099e-07
-7.99178e-06
1.7674e-07
-8.17226e-06
1.80464e-07
-8.35656e-06
1.84275e-07
-8.54475e-06
1.88172e-07
-8.73693e-06
1.92158e-07
-8.93319e-06
1.96234e-07
-9.13362e-06
2.00402e-07
-9.33831e-06
2.04665e-07
-9.54736e-06
2.09025e-07
-9.76086e-06
2.13484e-07
-9.97893e-06
2.18044e-07
-1.02017e-05
2.22708e-07
-1.04292e-05
2.27478e-07
-1.06616e-05
2.32356e-07
-1.08989e-05
2.37346e-07
-1.11414e-05
2.42449e-07
-1.13891e-05
2.47668e-07
-1.16421e-05
2.53003e-07
-1.19006e-05
2.58457e-07
-1.21647e-05
2.64033e-07
-1.24344e-05
2.69733e-07
-1.271e-05
2.7556e-07
-1.29916e-05
2.81517e-07
-1.32792e-05
2.87607e-07
-1.35731e-05
2.93835e-07
-1.38733e-05
3.00203e-07
-1.41801e-05
3.06714e-07
-1.44935e-05
3.13372e-07
-1.48137e-05
3.20179e-07
-1.51409e-05
3.27138e-07
-1.54751e-05
3.3425e-07
-1.58167e-05
3.4152e-07
-1.61657e-05
3.4895e-07
-1.65223e-05
3.56545e-07
-1.68866e-05
3.64307e-07
-1.72589e-05
3.72243e-07
-1.76393e-05
3.80355e-07
-1.8028e-05
3.88648e-07
-1.84252e-05
3.97127e-07
-1.8831e-05
4.05795e-07
-1.92457e-05
4.14655e-07
-1.96694e-05
4.23712e-07
-2.01025e-05
4.32968e-07
-2.05449e-05
4.42429e-07
-2.09971e-05
4.52097e-07
-2.14591e-05
4.61978e-07
-2.19312e-05
4.72077e-07
-2.24137e-05
4.82398e-07
-2.29067e-05
4.92946e-07
-2.34104e-05
5.03728e-07
-2.39252e-05
5.14746e-07
-2.44513e-05
5.26008e-07
-2.49889e-05
5.37518e-07
-2.55382e-05
5.49281e-07
-2.60996e-05
5.61302e-07
-2.66732e-05
5.73588e-07
-2.72594e-05
5.86145e-07
-2.78584e-05
5.98977e-07
-2.84706e-05
6.12091e-07
-2.90961e-05
6.25492e-07
-2.97354e-05
6.39187e-07
-3.03886e-05
6.53181e-07
-3.10562e-05
6.6748e-07
-3.17383e-05
6.82089e-07
-3.24354e-05
6.97017e-07
-3.31477e-05
7.1227e-07
-3.38757e-05
7.27856e-07
-3.46195e-05
7.43783e-07
-3.53796e-05
7.6006e-07
-3.61564e-05
7.76694e-07
-3.69502e-05
7.93694e-07
-3.77613e-05
8.11066e-07
-3.85902e-05
8.28818e-07
-3.94372e-05
8.46955e-07
-4.03028e-05
8.65484e-07
-4.11873e-05
8.84413e-07
-4.20911e-05
9.03749e-07
-4.30147e-05
9.23503e-07
-4.39584e-05
9.43683e-07
-4.49228e-05
9.643e-07
-4.59083e-05
9.85366e-07
-4.69152e-05
1.00689e-06
-4.79442e-05
1.02888e-06
-4.89957e-05
1.05135e-06
-5.00701e-05
1.07431e-06
-5.11679e-05
1.09777e-06
-5.22897e-05
1.12172e-06
-5.3436e-05
1.1462e-06
-5.46073e-05
1.17119e-06
-5.58041e-05
1.19673e-06
-5.7027e-05
1.22281e-06
-5.82766e-05
1.24945e-06
-5.95534e-05
1.27667e-06
-6.08579e-05
1.30446e-06
-6.21909e-05
1.33286e-06
-6.35529e-05
1.36186e-06
-6.49445e-05
1.39149e-06
-6.63663e-05
1.42175e-06
-6.78191e-05
1.45266e-06
-6.93034e-05
1.48422e-06
-7.082e-05
1.51646e-06
-7.23695e-05
1.54938e-06
-7.39526e-05
1.583e-06
-7.55701e-05
1.61734e-06
-7.72226e-05
1.65241e-06
-7.8911e-05
1.68822e-06
-8.06359e-05
1.72479e-06
-8.23982e-05
1.76214e-06
-8.41986e-05
1.80028e-06
-8.60379e-05
1.83922e-06
-8.79171e-05
1.87899e-06
-8.98368e-05
1.9196e-06
-9.1798e-05
1.96107e-06
-9.38016e-05
2.0034e-06
-9.58484e-05
2.04663e-06
-9.79393e-05
2.09076e-06
-0.000100075
2.13582e-06
-0.000102257
2.18182e-06
-0.000104486
2.22878e-06
-0.000106763
2.27672e-06
-0.000109089
2.32567e-06
-0.000111465
2.37563e-06
-0.000113891
2.42664e-06
-0.00011637
2.47871e-06
-0.000118902
2.53186e-06
-0.000121489
2.58611e-06
-0.00012413
2.64148e-06
-0.000126829
2.698e-06
-0.000129584
2.75568e-06
-0.000132399
2.81456e-06
-0.000135274
2.87465e-06
-0.00013821
2.93597e-06
-0.000141209
2.99855e-06
-0.000144271
3.06241e-06
-0.000147399
3.12758e-06
-0.000150594
3.19408e-06
-0.000153856
3.26193e-06
-0.000157187
3.33117e-06
-0.000160589
3.40181e-06
-0.000164063
3.47389e-06
-0.000167611
3.54742e-06
-0.000171234
3.62245e-06
-0.000174933
3.69899e-06
-0.00017871
3.77707e-06
-0.000182567
3.85672e-06
-0.000186505
3.93796e-06
-0.000190526
4.02084e-06
-0.000194632
4.10537e-06
-0.000198824
4.19158e-06
-0.000203103
4.27951e-06
-0.000207473
4.36918e-06
-0.000211934
4.46063e-06
-0.000216488
4.55389e-06
-0.000221137
4.64898e-06
-0.000225883
4.74595e-06
-0.000230729
4.84483e-06
-0.000235674
4.94564e-06
-0.000240723
5.04842e-06
-0.000245877
5.15321e-06
-0.000251137
5.26003e-06
-0.000256506
5.36891e-06
-0.000261986
5.4799e-06
-0.00026758
5.59303e-06
-0.000273288
5.70834e-06
-0.000279115
5.82586e-06
-0.00028506
5.94563e-06
-0.000291128
6.06768e-06
-0.000297321
6.19205e-06
-0.00030364
6.31877e-06
-0.000310088
6.44789e-06
-0.000316668
6.57943e-06
-0.000323382
6.71344e-06
-0.000330232
6.84995e-06
-0.000337221
6.98902e-06
-0.000344352
7.13067e-06
-0.000351628
7.27494e-06
-0.00035905
7.42186e-06
-0.000366622
7.57149e-06
-0.000374346
7.72384e-06
-0.000382225
7.87897e-06
-0.000390262
8.03691e-06
-0.000398461
8.19771e-06
-0.000406822
8.3614e-06
-0.000415351
8.52802e-06
-0.000424049
8.6976e-06
-0.000432919
8.8702e-06
-0.000441966
9.04583e-06
-0.00045119
9.22455e-06
-0.000460597
9.40639e-06
-0.000470189
9.59139e-06
-0.000479969
9.77959e-06
-0.000489941
9.97103e-06
-0.000500107
1.01657e-05
-0.000510471
1.03637e-05
-0.000521036
1.05651e-05
-0.000531807
1.07698e-05
-0.000542785
1.0978e-05
-0.000553975
1.11896e-05
-0.00056538
1.14046e-05
-0.000577004
1.16232e-05
-0.00058885
1.18453e-05
-0.000600921
1.2071e-05
-0.000613222
1.23003e-05
-0.000625756
1.25332e-05
-0.000638526
1.27698e-05
-0.000651537
1.301e-05
-0.000664791
1.3254e-05
-0.000678293
1.35016e-05
-0.000692047
1.37531e-05
-0.000706056
1.40082e-05
-0.000720323
1.42672e-05
-0.000734854
1.453e-05
-0.000749651
1.47965e-05
-0.000764719
1.50669e-05
-0.00078006
1.53411e-05
-0.00079568
1.56192e-05
-0.000811582
1.59011e-05
-0.000827769
1.61868e-05
-0.000844246
1.64764e-05
-0.000861017
1.67698e-05
-0.000878084
1.70669e-05
-0.000895453
1.73679e-05
-0.000913126
1.76727e-05
-0.000931108
1.79812e-05
-0.000949403
1.82934e-05
-0.000968013
1.86093e-05
-0.000986942
1.8929e-05
-0.0010062
1.92522e-05
-0.00102578
1.9579e-05
-0.00104569
1.99094e-05
-0.00106593
2.02433e-05
-0.00108651
2.05807e-05
-0.00110743
2.09214e-05
-0.0011287
2.12654e-05
-0.00115031
2.16126e-05
-0.00117228
2.1963e-05
-0.00119459
2.23164e-05
-0.00121727
2.26728e-05
-0.0012403
2.30319e-05
-0.00126369
2.33938e-05
-0.00128745
2.37583e-05
-0.00131158
2.41252e-05
-0.00133607
2.44944e-05
-0.00136094
2.48658e-05
-0.00138618
2.52392e-05
-0.00141179
2.56144e-05
-0.00143779
2.59912e-05
-0.00146416
2.63695e-05
-0.00149091
2.6749e-05
-0.00151804
2.71294e-05
-0.00154555
2.75106e-05
-0.00157344
2.78923e-05
-0.00160172
2.82742e-05
-0.00163037
2.8656e-05
-0.00165941
2.90375e-05
-0.00168883
2.94183e-05
-0.00171863
2.97982e-05
-0.00174881
3.01767e-05
-0.00177936
3.05537e-05
-0.00181029
3.09286e-05
-0.00184159
3.1301e-05
-0.00187326
3.16706e-05
-0.0019053
3.20367e-05
-0.0019377
3.2399e-05
-0.00197045
3.27568e-05
-0.00200356
3.31096e-05
-0.00203702
3.34567e-05
-0.00207082
3.37977e-05
-0.00210495
3.41318e-05
-0.00213941
3.44585e-05
-0.00217419
3.4777e-05
-0.00220927
3.50868e-05
-0.00224466
3.53871e-05
-0.00228034
3.56771e-05
-0.0023163
3.59561e-05
-0.00235252
3.62231e-05
-0.002389
3.64774e-05
-0.00242572
3.67179e-05
-0.00246266
3.69436e-05
-0.00249981
3.71535e-05
-0.00253716
3.73465e-05
-0.00257468
3.75215e-05
-0.00261235
3.76774e-05
-0.00265017
3.78131e-05
-0.00268809
3.79273e-05
-0.00272611
3.80188e-05
-0.0027642
3.80863e-05
-0.00280233
3.81285e-05
-0.00284048
3.8144e-05
-0.00287861
3.81313e-05
-0.0029167
3.80891e-05
-0.00295471
3.80157e-05
-0.00299262
3.79096e-05
-0.00303039
3.77694e-05
-0.00306798
3.75934e-05
-0.00310536
3.73804e-05
-0.00314249
3.71286e-05
-0.00317933
3.68367e-05
-0.00321583
3.65031e-05
-0.00325196
3.61265e-05
-0.00328766
3.57053e-05
-0.0033229
3.52382e-05
-0.00335763
3.47235e-05
-0.00339179
3.416e-05
-0.00342534
3.3546e-05
-0.00345822
3.28803e-05
-0.00349038
3.21616e-05
-0.00352177
3.13885e-05
-0.00355233
3.05599e-05
-0.003582
2.96749e-05
-0.00361073
2.87323e-05
-0.00363846
2.77313e-05
-0.00366513
2.66713e-05
-0.00369068
2.55515e-05
-0.00371505
2.43718e-05
-0.00373818
2.31317e-05
-0.00376002
2.18313e-05
-0.00378049
2.04708e-05
-0.00379954
1.90505e-05
-0.00381711
1.75708e-05
-0.00383314
1.60325e-05
-0.00384758
1.44364e-05
-0.00386036
1.27832e-05
-0.00387144
1.10739e-05
-0.00388074
9.30984e-06
-0.00388823
7.49217e-06
-0.00389385
5.62258e-06
-0.00389755
3.70339e-06
-0.00389929
1.73823e-06
-0.00389901
-2.79417e-07
-0.00389663
-2.38115e-06
-0.00389214
-4.48191e-06
-0.00388553
-6.60898e-06
-0.00387674
-8.79883e-06
-0.0038657
-1.1034e-05
-0.00385241
-1.3291e-05
-0.00383683
-1.55831e-05
-0.00381892
-1.7914e-05
-0.00379864
-2.02821e-05
-0.00377597
-2.26614e-05
-0.00375089
-2.50807e-05
-0.00372336
-2.75357e-05
-0.00369336
-2.99967e-05
-0.00366087
-3.24929e-05
-0.00362584
-3.50212e-05
-0.00358829
-3.75543e-05
-0.00354816
-4.01177e-05
-0.00350545
-4.27098e-05
-0.00346015
-4.53053e-05
-0.00341222
-4.79244e-05
-0.00336165
-5.0569e-05
-0.00330843
-5.32165e-05
-0.00325254
-5.58842e-05
-0.00319396
-5.85761e-05
-0.0031327
-6.12676e-05
-0.00306873
-6.39728e-05
-0.00300203
-6.66968e-05
-0.00293261
-6.94152e-05
-0.00286046
-7.21447e-05
-0.00278558
-7.48753e-05
-0.00270798
-7.76038e-05
-0.00262764
-8.03316e-05
-0.00254459
-8.305e-05
-0.00245883
-8.57572e-05
-0.00237037
-8.84549e-05
-0.00227924
-9.11305e-05
-0.00218544
-9.37913e-05
-0.00208902
-9.64213e-05
-0.00199
-9.90212e-05
-0.00188842
-0.000101583
-0.00178431
-0.000104106
-0.00167771
-0.00010659
-0.00156868
-0.000109026
-0.00145727
-0.000111406
-0.00134354
-0.00011373
-0.00122757
-0.000115979
-0.00110942
-0.000118158
-0.000989149
-0.000120266
-0.000866861
-0.000122281
-0.000742647
-0.000124206
-0.000616619
-0.000126023
-0.000488906
-0.000127712
-0.000359514
-0.000129395
-0.000228442
-0.000131076
-9.58478e-05
-0.000132595
3.80948e-05
-0.00013394
0.000173257
-0.000135157
0.000309519
-0.000136257
0.000446802
-0.000137282
0.000584997
-0.000138198
0.000723873
-0.00013888
0.000863232
-0.00013936
0.0010029
-0.000139661
0.00114271
-0.000139803
0.00128251
-0.000139794
0.00142214
-0.000139627
0.00156139
-0.000139262
0.00170023
-0.000138838
0.00183843
-0.000138209
0.00197572
-0.000137298
0.00211195
-0.000136229
0.00224692
-0.000134971
0.00238043
-0.000133516
0.00251229
-0.00013186
0.00264229
-0.000129993
0.00277021
-0.000127918
0.00289585
-0.000125636
0.00301899
-0.000123145
0.00313942
-0.000120427
0.00325705
-0.00011763
0.00337151
-0.000114468
0.00348262
-0.000111101
0.00359015
-0.000107528
0.00369388
-0.000103735
0.00379363
-9.97495e-05
0.00388914
-9.55091e-05
0.00398028
-9.11384e-05
0.00406682
-8.65357e-05
0.00414849
-8.16751e-05
0.0042252
-7.67139e-05
0.0042967
-7.15069e-05
0.00436284
-6.61411e-05
0.00442343
-6.05922e-05
0.00447831
-5.48759e-05
0.00452732
-4.90081e-05
0.00457034
-4.30185e-05
0.00460721
-3.6869e-05
0.00463783
-3.0627e-05
0.00466208
-2.42516e-05
0.00467989
-1.78039e-05
0.00469127
-1.13873e-05
0.0046961
-4.82797e-06
0.00469414
1.96794e-06
0.00468557
8.56595e-06
0.00467049
1.50854e-05
0.00464881
2.16813e-05
0.00462046
2.83444e-05
0.00458554
3.49115e-05
0.00454419
4.13528e-05
0.00449643
4.77521e-05
0.00444237
5.40679e-05
0.00438212
6.02437e-05
0.00431585
6.6272e-05
0.00424383
7.20222e-05
0.00416618
7.76523e-05
0.00408324
8.29386e-05
0.00399527
8.79618e-05
0.00390256
9.27099e-05
0.00380548
9.70835e-05
0.00370426
0.000101221
0.0035993
0.000104957
0.00349111
0.00010819
0.00338005
0.000111059
0.0032665
0.000113553
0.00315088
0.000115618
0.00303345
0.000117427
0.00291477
0.00011867
0.00279533
0.000119439
0.00267551
0.000119819
0.00255567
0.000119845
0.00243609
0.000119571
0.00231741
0.000118678
0.00219972
0.000117696
0.00208341
0.000116305
0.00196891
0.000114488
0.00185651
0.000112403
0.0017465
0.000110006
0.00163923
0.000107278
0.00153485
0.00010438
0.00143357
0.000101278
0.0013356
9.79784e-05
0.00124102
9.45729e-05
0.00115003
9.09887e-05
0.00106277
8.72595e-05
0.000979339
8.3433e-05
0.000899716
7.96211e-05
0.000823893
7.58215e-05
0.000751878
7.20148e-05
0.000683635
6.82418e-05
0.000619012
6.46211e-05
0.000557914
6.10961e-05
0.000500051
5.78623e-05
0.000445331
5.4723e-05
0.000393563
5.17714e-05
0.000344192
4.93697e-05
0.000296655
4.7535e-05
0.000249949
4.67064e-05
0.000204425
4.55265e-05
0.000157267
4.71581e-05
0.000108783
4.84794e-05
8.2826e-05
2.59513e-05
7.26736e-05
1.01482e-05
4.41766e-05
2.84943e-05
3.54351e-06
4.06302e-05
-3.73864e-05
4.0926e-05
-6.80151e-05
3.06257e-05
-8.00184e-05
1.20024e-05
-0.000103887
2.38692e-05
-0.000150884
4.69976e-05
-0.000198724
4.78422e-05
-0.000244617
4.58947e-05
-0.000291744
4.71286e-05
-0.00033975
4.80041e-05
-0.000389891
5.01386e-05
-0.000442626
5.2733e-05
-0.000498301
5.56713e-05
-0.000557357
5.9053e-05
-0.000619927
6.25667e-05
-0.000686285
6.63559e-05
-0.000756605
7.03197e-05
-0.000830984
7.43805e-05
-0.000909463
7.84806e-05
-0.000992118
8.26574e-05
-0.00107891
8.67923e-05
-0.00116981
9.09e-05
-0.00126482
9.49996e-05
-0.00136379
9.89716e-05
-0.00146651
0.000102722
-0.00157282
0.000106311
-0.00168254
0.000109715
-0.00179543
0.000112889
-0.00191125
0.000115812
-0.00202967
0.00011843
-0.00215032
0.000120654
-0.00227275
0.000122433
-0.00239681
0.000124056
-0.00252189
0.000125082
-0.0026477
0.000125799
-0.0027737
0.000126003
-0.00289943
0.000125736
-0.00302448
0.000125045
-0.00314825
0.000123767
-0.00327029
0.00012203
-0.00339009
0.000119802
-0.00350718
0.000117083
-0.00362106
0.000113883
-0.00373121
0.000110158
-0.00383709
0.000105872
-0.0039383
0.000101216
-0.00403447
9.61668e-05
-0.00412515
9.06689e-05
-0.00420995
8.47981e-05
-0.00428848
7.85348e-05
-0.00436043
7.19531e-05
-0.00442551
6.50752e-05
-0.00448346
5.79569e-05
-0.00453411
5.0641e-05
-0.00457728
4.31721e-05
-0.00461287
3.55936e-05
-0.0046408
2.79304e-05
-0.00466092
2.01178e-05
-0.00467327
1.23428e-05
-0.0046778
4.53559e-06
-0.00467441
-3.39665e-06
-0.00466326
-1.11484e-05
-0.00464432
-1.89478e-05
-0.0046176
-2.67185e-05
-0.00458324
-3.4359e-05
-0.00454131
-4.193e-05
-0.00449199
-4.93272e-05
-0.00443541
-5.65752e-05
-0.00437171
-6.37018e-05
-0.00430115
-7.05645e-05
-0.0042239
-7.72493e-05
-0.00414019
-8.37114e-05
-0.00405022
-8.99587e-05
-0.00395424
-9.59822e-05
-0.00385245
-0.000101788
-0.00374526
-0.000107184
-0.00363281
-0.000112451
-0.00351535
-0.000117464
-0.00339323
-0.000122116
-0.00326653
-0.000126697
-0.00313586
-0.00013067
-0.00300118
-0.000134688
-0.00286308
-0.000138101
-0.00272151
-0.000141564
-0.00257726
-0.000144258
-0.00243006
-0.0001472
-0.00228041
-0.000149646
-0.00212851
-0.000151899
-0.00197475
-0.000153754
-0.00181937
-0.000155386
-0.00166266
-0.000156709
-0.00150486
-0.000157792
-0.00134626
-0.000158604
-0.0011871
-0.000159152
-0.00102767
-0.000159437
-0.00086817
-0.000159502
-0.00070879
-0.000159381
-0.000549856
-0.000158933
-0.000391795
-0.000158061
-0.000234855
-0.000156941
-7.91385e-05
-0.000155716
7.51477e-05
-0.000154285
0.000227817
-0.000152668
0.000378611
-0.000150793
0.000527215
-0.000148603
0.000673543
-0.000146328
0.000817625
-0.00014408
0.000959263
-0.00014164
0.00109827
-0.000139007
0.00123447
-0.00013621
0.00136775
-0.000133276
0.00149794
-0.000130193
0.00162491
-0.000126972
0.00174855
-0.000123653
0.00186882
-0.000120256
0.00198561
-0.000116784
0.00209885
-0.000113239
0.00220847
-0.000109623
0.00231441
-0.000105936
0.00241661
-0.000102199
0.00251503
-9.8429e-05
0.00260968
-9.46455e-05
0.00270055
-9.0863e-05
0.00278761
-8.70641e-05
0.00287086
-8.325e-05
0.0029503
-7.9447e-05
0.00302597
-7.56649e-05
0.00309784
-7.18862e-05
0.003166
-6.81556e-05
0.00323049
-6.4484e-05
0.00329132
-6.08238e-05
0.0033485
-5.71794e-05
0.00340208
-5.35738e-05
0.0034521
-5.00241e-05
0.00349862
-4.65146e-05
0.00354166
-4.30425e-05
0.00358127
-3.96095e-05
0.00361749
-3.62226e-05
0.00365038
-3.28847e-05
0.00367998
-2.95997e-05
0.00370634
-2.63538e-05
0.00372949
-2.31582e-05
0.00374948
-1.99918e-05
0.00376637
-1.6889e-05
0.00378019
-1.38204e-05
0.00379101
-1.08137e-05
0.00379888
-7.86731e-06
0.00380384
-4.95432e-06
0.00380595
-2.10798e-06
0.00380525
6.96837e-07
0.00380184
3.4157e-06
0.00379577
6.06845e-06
0.0037871
8.6644e-06
0.0037759
1.11957e-05
0.00376228
1.36362e-05
0.00374627
1.60012e-05
0.00372797
1.83019e-05
0.00370745
2.05196e-05
0.0036848
2.26504e-05
0.00366009
2.46994e-05
0.00363344
2.66553e-05
0.00360492
2.85275e-05
0.00357461
3.03102e-05
0.0035426
3.20029e-05
0.00350899
3.36055e-05
0.00347387
3.51213e-05
0.00343731
3.65498e-05
0.00339943
3.78902e-05
0.0033603
3.913e-05
0.00332003
4.02785e-05
0.00327868
4.13436e-05
0.00323635
4.2329e-05
0.00319311
4.32359e-05
0.00314904
4.40615e-05
0.00310424
4.48071e-05
0.00305877
4.5475e-05
0.0030127
4.6063e-05
0.00296613
4.65767e-05
0.00291911
4.70181e-05
0.00287172
4.73914e-05
0.00282403
4.76983e-05
0.0027761
4.7941e-05
0.00272798
4.81218e-05
0.00267973
4.82414e-05
0.00263142
4.83035e-05
0.00258311
4.83094e-05
0.00253484
4.82638e-05
0.00248667
4.81689e-05
0.00243865
4.80235e-05
0.00239082
4.78314e-05
0.00234323
4.75953e-05
0.00229591
4.73191e-05
0.00224891
4.70049e-05
0.00220226
4.66541e-05
0.00215599
4.62691e-05
0.00211013
4.58528e-05
0.00206472
4.54088e-05
0.00201978
4.49389e-05
0.00197534
4.44454e-05
0.00193142
4.3929e-05
0.00188803
4.3391e-05
0.0018452
4.28336e-05
0.00180294
4.22596e-05
0.00176127
4.16716e-05
0.00172019
4.10714e-05
0.00167973
4.04601e-05
0.00163989
3.98395e-05
0.00160068
3.92113e-05
0.00156211
3.85764e-05
0.00152418
3.79347e-05
0.00148689
3.72872e-05
0.00145025
3.66362e-05
0.00141426
3.59847e-05
0.00137893
3.53337e-05
0.00134425
3.46827e-05
0.00131022
3.4031e-05
0.00127684
3.3379e-05
0.00124411
3.27288e-05
0.00121203
3.20822e-05
0.00118059
3.14397e-05
0.00114979
3.08009e-05
0.00111963
3.01658e-05
0.00109009
2.95351e-05
0.00106118
2.89102e-05
0.00103288
2.82923e-05
0.0010052
2.76816e-05
0.000978123
2.70775e-05
0.000951644
2.64799e-05
0.000925756
2.58887e-05
0.000900451
2.53046e-05
0.000875722
2.4728e-05
0.000851562
2.41595e-05
0.000827962
2.35991e-05
0.000804915
2.30472e-05
0.000782411
2.25036e-05
0.000760442
2.19685e-05
0.000739
2.1442e-05
0.000718076
2.09241e-05
0.000697661
2.04149e-05
0.000677746
1.99145e-05
0.000658322
1.94229e-05
0.000639382
1.894e-05
0.000620916
1.84658e-05
0.000602915
1.80003e-05
0.000585371
1.75436e-05
0.000568274
1.70959e-05
0.000551617
1.66571e-05
0.00053539
1.6227e-05
0.000519584
1.58055e-05
0.000504191
1.53926e-05
0.000489202
1.49881e-05
0.00047461
1.4592e-05
0.000460405
1.42043e-05
0.00044658
1.38249e-05
0.000433126
1.34538e-05
0.000420035
1.30907e-05
0.000407298
1.27358e-05
0.000394909
1.23888e-05
0.00038286
1.20496e-05
0.000371141
1.17181e-05
0.000359747
1.13943e-05
0.000348668
1.1078e-05
0.000337899
1.0769e-05
0.000327431
1.04674e-05
0.000317258
1.01728e-05
0.000307372
9.88541e-06
0.000297767
9.60493e-06
0.000288436
9.33129e-06
0.000279371
9.06437e-06
0.000270567
8.80404e-06
0.000262017
8.55021e-06
0.000253714
8.30273e-06
0.000245652
8.06148e-06
0.000237826
7.82633e-06
0.000230228
7.59717e-06
0.000222854
7.37389e-06
0.000215697
7.15638e-06
0.000208753
6.94453e-06
0.000202014
6.73822e-06
0.000195477
6.53733e-06
0.000189135
6.34174e-06
0.000182983
6.15136e-06
0.000177017
5.96606e-06
0.000171231
5.78575e-06
0.000165621
5.6103e-06
0.000160181
5.43962e-06
0.000154907
5.27361e-06
0.000149795
5.11214e-06
0.00014484
4.95512e-06
0.000140037
4.80245e-06
0.000135383
4.65402e-06
0.000130873
4.50974e-06
0.000126504
4.36952e-06
0.00012227
4.23325e-06
0.000118169
4.10083e-06
0.000114197
3.97218e-06
0.00011035
3.8472e-06
0.000106624
3.72582e-06
0.000103016
3.60794e-06
9.95221e-05
3.49346e-06
9.61397e-05
3.38229e-06
9.28652e-05
3.27437e-06
8.96955e-05
3.16961e-06
8.66275e-05
3.06794e-06
8.36582e-05
2.96927e-06
8.07846e-05
2.87351e-06
7.80039e-05
2.78059e-06
7.53134e-05
2.69045e-06
7.27103e-05
2.60301e-06
7.0192e-05
2.51821e-06
6.7756e-05
2.43597e-06
6.53997e-05
2.35622e-06
6.31208e-05
2.27887e-06
6.09168e-05
2.20388e-06
5.87856e-05
2.13118e-06
5.67248e-05
2.06073e-06
5.47323e-05
1.99244e-06
5.2806e-05
1.92626e-06
5.09438e-05
1.86213e-06
4.91438e-05
1.79998e-06
4.74039e-05
1.73978e-06
4.57224e-05
1.68148e-06
4.40974e-05
1.625e-06
4.2527e-05
1.5703e-06
4.10097e-05
1.51731e-06
3.95436e-05
1.46601e-06
3.81273e-05
1.41634e-06
3.6759e-05
1.36826e-06
3.54372e-05
1.32172e-06
3.41605e-05
1.27667e-06
3.29274e-05
1.23306e-06
3.17365e-05
1.19085e-06
3.05865e-05
1.15001e-06
2.9476e-05
1.1105e-06
2.84037e-05
1.07228e-06
2.73683e-05
1.03531e-06
2.63687e-05
9.99549e-07
2.54038e-05
9.64957e-07
2.44722e-05
9.31507e-07
2.35731e-05
8.99165e-07
2.27051e-05
8.67895e-07
2.18675e-05
8.3766e-07
2.1059e-05
8.08428e-07
2.02788e-05
7.80172e-07
1.95259e-05
7.52868e-07
1.87994e-05
7.26488e-07
1.80984e-05
7.01e-07
1.7422e-05
6.7637e-07
1.67694e-05
6.52567e-07
1.61398e-05
6.29569e-07
1.55325e-05
6.07359e-07
1.49465e-05
5.85918e-07
1.43813e-05
5.65222e-07
1.3836e-05
5.45243e-07
1.33101e-05
5.25951e-07
1.28027e-05
5.07323e-07
1.23134e-05
4.89342e-07
1.18414e-05
4.71992e-07
1.13861e-05
4.55255e-07
1.0947e-05
4.3911e-07
1.05234e-05
4.23533e-07
1.01149e-05
4.08504e-07
9.72091e-06
3.94008e-07
9.34087e-06
3.80032e-07
8.97429e-06
3.66566e-07
8.62069e-06
3.53591e-07
8.27959e-06
3.41089e-07
7.95054e-06
3.29041e-07
7.6331e-06
3.17431e-07
7.32684e-06
3.06248e-07
7.03135e-06
2.95485e-07
6.7462e-06
2.85133e-07
6.47102e-06
2.75178e-07
6.20541e-06
2.656e-07
5.94902e-06
2.56382e-07
5.7015e-06
2.4751e-07
5.46251e-06
2.38979e-07
5.23172e-06
2.30784e-07
5.0088e-06
2.22918e-07
4.79342e-06
2.15371e-07
4.58528e-06
2.08128e-07
4.3841e-06
2.01179e-07
4.18958e-06
1.94515e-07
4.00144e-06
1.88132e-07
3.8194e-06
1.82027e-07
3.64321e-06
1.76191e-07
3.47259e-06
1.70611e-07
3.30731e-06
1.65274e-07
3.14713e-06
1.6017e-07
2.99183e-06
1.55302e-07
2.84116e-06
1.50662e-07
2.6949e-06
1.46249e-07
2.55284e-06
1.42055e-07
2.41475e-06
1.38083e-07
2.28042e-06
1.34324e-07
2.14965e-06
1.30766e-07
2.02225e-06
1.27397e-07
1.89802e-06
1.24221e-07
1.77678e-06
1.21241e-07
1.65832e-06
1.18453e-07
1.54246e-06
1.15848e-07
1.42903e-06
1.13425e-07
1.31784e-06
1.11183e-07
1.20872e-06
1.09114e-07
1.10151e-06
1.07212e-07
9.96024e-07
1.05478e-07
8.92107e-07
1.03912e-07
7.89589e-07
1.02512e-07
6.88303e-07
1.0128e-07
5.88082e-07
1.00215e-07
4.88763e-07
9.93134e-08
3.90184e-07
9.85744e-08
2.92182e-07
9.79971e-08
1.94594e-07
9.75819e-08
9.72613e-08
9.73257e-08
9.72549e-08
1.09553e-07
4.59226e-08
3.15872e-08
1.9589e-07
-8.35909e-08
1.70663e-07
-1.73765e-07
1.38082e-07
-2.49319e-07
1.21111e-07
-3.12237e-07
1.02676e-07
-3.67002e-07
9.21858e-08
-4.17512e-07
8.50139e-08
-4.66263e-07
8.11226e-08
-5.13964e-07
7.98146e-08
-5.60825e-07
8.04397e-08
-6.07072e-07
8.25349e-08
-6.53154e-07
8.5466e-08
-6.99417e-07
8.874e-08
-7.46247e-07
9.22147e-08
-7.939e-07
9.57179e-08
-8.42552e-07
9.91227e-08
-8.92275e-07
1.02288e-07
-9.43126e-07
1.05184e-07
-9.95126e-07
1.0776e-07
-1.04826e-06
1.09985e-07
-1.10242e-06
1.11845e-07
-1.15679e-06
1.12929e-07
-1.21271e-06
1.14603e-07
-1.2693e-06
1.15574e-07
-1.32654e-06
1.16437e-07
-1.38439e-06
1.1722e-07
-1.44283e-06
1.17968e-07
-1.50186e-06
1.18704e-07
-1.56148e-06
1.19482e-07
-1.62167e-06
1.20301e-07
-1.68248e-06
1.21207e-07
-1.74391e-06
1.22205e-07
-1.80599e-06
1.23315e-07
-1.86875e-06
1.24541e-07
-1.93223e-06
1.25894e-07
-1.99647e-06
1.27374e-07
-2.06152e-06
1.28982e-07
-2.12742e-06
1.30717e-07
-2.19422e-06
1.32574e-07
-2.26196e-06
1.34548e-07
-2.3307e-06
1.36632e-07
-2.40049e-06
1.38819e-07
-2.47136e-06
1.41101e-07
-2.54337e-06
1.43467e-07
-2.61656e-06
1.45915e-07
-2.69096e-06
1.48436e-07
-2.76663e-06
1.51027e-07
-2.84358e-06
1.53685e-07
-2.92187e-06
1.56407e-07
-3.00153e-06
1.5919e-07
-3.08259e-06
1.62034e-07
-3.1651e-06
1.64941e-07
-3.24907e-06
1.6791e-07
-3.33456e-06
1.70947e-07
-3.42159e-06
1.74053e-07
-3.51021e-06
1.77231e-07
-3.60045e-06
1.80486e-07
-3.69235e-06
1.8382e-07
-3.78597e-06
1.87236e-07
-3.88132e-06
1.90736e-07
-3.97847e-06
1.94324e-07
-4.07746e-06
1.98001e-07
-4.17833e-06
2.01769e-07
-4.28113e-06
2.05631e-07
-4.38591e-06
2.09587e-07
-4.49271e-06
2.1364e-07
-4.60158e-06
2.17789e-07
-4.71258e-06
2.22039e-07
-4.82575e-06
2.2639e-07
-4.94116e-06
2.30846e-07
-5.05884e-06
2.35408e-07
-5.17886e-06
2.4008e-07
-5.30127e-06
2.44864e-07
-5.42613e-06
2.49763e-07
-5.5535e-06
2.54781e-07
-5.68345e-06
2.5992e-07
-5.81602e-06
2.65185e-07
-5.95129e-06
2.70577e-07
-6.08932e-06
2.761e-07
-6.23018e-06
2.81754e-07
-6.37393e-06
2.87543e-07
-6.52064e-06
2.93468e-07
-6.67038e-06
2.9953e-07
-6.82322e-06
3.05732e-07
-6.97923e-06
3.12076e-07
-7.13848e-06
3.18566e-07
-7.30106e-06
3.25206e-07
-7.46703e-06
3.32e-07
-7.63648e-06
3.38952e-07
-7.80949e-06
3.46065e-07
-7.98613e-06
3.53343e-07
-8.16649e-06
3.60789e-07
-8.35066e-06
3.68406e-07
-8.53873e-06
3.76197e-07
-8.73078e-06
3.84165e-07
-8.9269e-06
3.92315e-07
-9.12719e-06
4.0065e-07
-9.33174e-06
4.09173e-07
-9.54065e-06
4.1789e-07
-9.75402e-06
4.26805e-07
-9.97195e-06
4.35923e-07
-1.01945e-05
4.45247e-07
-1.04219e-05
4.54785e-07
-1.06541e-05
4.64539e-07
-1.08913e-05
4.74515e-07
-1.11337e-05
4.84717e-07
-1.13812e-05
4.9515e-07
-1.16341e-05
5.05816e-07
-1.18924e-05
5.1672e-07
-1.21563e-05
5.27868e-07
-1.24258e-05
5.39264e-07
-1.27013e-05
5.50914e-07
-1.29826e-05
5.62825e-07
-1.32701e-05
5.75003e-07
-1.35637e-05
5.87455e-07
-1.38638e-05
6.00187e-07
-1.41703e-05
6.13206e-07
-1.44836e-05
6.26517e-07
-1.48036e-05
6.40126e-07
-1.51305e-05
6.54037e-07
-1.54646e-05
6.68256e-07
-1.58059e-05
6.82791e-07
-1.61547e-05
6.97646e-07
-1.65111e-05
7.12831e-07
-1.68752e-05
7.28352e-07
-1.72472e-05
7.44219e-07
-1.76274e-05
7.6044e-07
-1.80158e-05
7.77022e-07
-1.84127e-05
7.93974e-07
-1.88183e-05
8.11304e-07
-1.92328e-05
8.29018e-07
-1.96563e-05
8.47124e-07
-2.0089e-05
8.6563e-07
-2.05312e-05
8.84544e-07
-2.09831e-05
9.03874e-07
-2.14448e-05
9.23629e-07
-2.19166e-05
9.4382e-07
-2.23988e-05
9.64456e-07
-2.28915e-05
9.85546e-07
-2.33949e-05
1.0071e-06
-2.39094e-05
1.02913e-06
-2.44352e-05
1.05165e-06
-2.49724e-05
1.07466e-06
-2.55214e-05
1.09818e-06
-2.60824e-05
1.12222e-06
-2.66557e-05
1.14678e-06
-2.72416e-05
1.17189e-06
-2.78402e-05
1.19754e-06
-2.8452e-05
1.22376e-06
-2.90772e-05
1.25056e-06
-2.9716e-05
1.27794e-06
-3.03689e-05
1.30592e-06
-3.1036e-05
1.33451e-06
-3.17178e-05
1.36372e-06
-3.24145e-05
1.39357e-06
-3.31264e-05
1.42407e-06
-3.38539e-05
1.45523e-06
-3.45973e-05
1.48708e-06
-3.5357e-05
1.51962e-06
-3.61333e-05
1.55288e-06
-3.69266e-05
1.58687e-06
-3.77373e-05
1.6216e-06
-3.85657e-05
1.65709e-06
-3.94122e-05
1.69335e-06
-4.02773e-05
1.73039e-06
-4.11612e-05
1.76824e-06
-4.20645e-05
1.8069e-06
-4.29876e-05
1.8464e-06
-4.39308e-05
1.88675e-06
-4.48946e-05
1.92798e-06
-4.58795e-05
1.9701e-06
-4.68859e-05
2.01314e-06
-4.79143e-05
2.05711e-06
-4.89652e-05
2.10204e-06
-5.0039e-05
2.14794e-06
-5.11362e-05
2.19483e-06
-5.22574e-05
2.24273e-06
-5.3403e-05
2.29166e-06
-5.45737e-05
2.34164e-06
-5.57698e-05
2.39269e-06
-5.6992e-05
2.44484e-06
-5.82409e-05
2.49811e-06
-5.95169e-05
2.55252e-06
-6.08208e-05
2.60811e-06
-6.2153e-05
2.66489e-06
-6.35142e-05
2.72288e-06
-6.4905e-05
2.78212e-06
-6.63261e-05
2.84262e-06
-6.77781e-05
2.90441e-06
-6.92616e-05
2.96752e-06
-7.07774e-05
3.03198e-06
-7.2326e-05
3.09781e-06
-7.39083e-05
3.16504e-06
-7.55249e-05
3.2337e-06
-7.71765e-05
3.30381e-06
-7.8864e-05
3.37542e-06
-8.0588e-05
3.44854e-06
-8.23493e-05
3.52322e-06
-8.41488e-05
3.59948e-06
-8.59872e-05