/*--------------------------------*- C++ -*----------------------------------*\
| =========                 |                                                 |
| \\      /  F ield         | OpenFOAM: The Open Source CFD Toolbox           |
|  \\    /   O peration     | Version:  2412                                  |
|   \\  /    A nd           | Website:  www.openfoam.com                      |
|    \\/     M anipulation  |                                                 |
\*---------------------------------------------------------------------------*/
FoamFile
{
    version     2.0;
    format      ascii;
    arch        "LSB;label=32;scalar=64";
    class       volScalarField;
    location    "2.64";
    object      p;
}
// * * * * * * * * * * * * * * * * * * * * * * * * * * * * * * * * * * * * * //

dimensions      [1 -1 -2 0 0 0 0];

internalField   nonuniform List<scalar> 
80000
(
29035.1
29035.2
29035.3
29035.3
29035.2
29035.2
29035.2
29035.2
29035.1
29035.1
29035.1
29035.1
29035.1
29035.1
29035.2
29035.2
29035.2
29035.2
29035.2
29035.2
29035.3
29035.3
29035.3
29035.3
29035.3
29035.4
29035.4
29035.4
29035.5
29035.5
29035.5
29035.6
29035.6
29035.6
29035.7
29035.7
29035.7
29035.8
29035.8
29035.9
29035.9
29036
29036
29036
29036.1
29036.2
29036.2
29036.3
29036.3
29036.4
29036.4
29036.5
29036.6
29036.6
29036.7
29036.8
29036.8
29036.9
29037
29037
29037.1
29037.2
29037.3
29037.4
29037.5
29037.5
29037.6
29037.7
29037.8
29037.9
29038
29038.1
29038.2
29038.3
29038.4
29038.5
29038.7
29038.8
29038.9
29039
29039.1
29039.3
29039.4
29039.5
29039.7
29039.8
29039.9
29040.1
29040.2
29040.4
29040.5
29040.7
29040.9
29041
29041.2
29041.4
29041.5
29041.7
29041.9
29042.1
29042.3
29042.5
29042.7
29042.9
29043.1
29043.3
29043.5
29043.8
29044
29044.2
29044.5
29044.7
29045
29045.2
29045.5
29045.8
29046
29046.3
29046.6
29046.9
29047.2
29047.5
29047.8
29048.1
29048.4
29048.8
29049.1
29049.5
29049.8
29050.2
29050.5
29050.9
29051.3
29051.7
29052.1
29052.5
29052.9
29053.4
29053.8
29054.2
29054.7
29055.2
29055.6
29056.1
29056.6
29057.1
29057.6
29058.2
29058.7
29059.3
29059.8
29060.4
29061
29061.6
29062.2
29062.8
29063.5
29064.1
29064.8
29065.5
29066.2
29066.9
29067.6
29068.4
29069.1
29069.9
29070.7
29071.5
29072.3
29073.1
29074
29074.9
29075.8
29076.7
29077.6
29078.6
29079.5
29080.5
29081.6
29082.6
29083.6
29084.7
29085.8
29087
29088.1
29089.3
29090.5
29091.7
29092.9
29094.2
29095.5
29096.9
29098.2
29099.6
29101
29102.5
29103.9
29105.4
29107
29108.5
29110.1
29111.8
29113.4
29115.1
29116.9
29118.7
29120.5
29122.3
29124.2
29126.1
29128.1
29130.1
29132.1
29134.2
29136.4
29138.5
29140.8
29143
29145.3
29147.7
29150.1
29152.6
29155.1
29157.6
29160.2
29162.9
29165.6
29168.4
29171.2
29174.1
29177.1
29180.1
29183.1
29186.3
29189.4
29192.7
29196
29199.4
29202.9
29206.4
29210
29213.6
29217.4
29221.2
29225.1
29229
29233.1
29237.2
29241.4
29245.7
29250.1
29254.5
29259.1
29263.7
29268.4
29273.2
29278.1
29283.2
29288.3
29293.5
29298.8
29304.2
29309.7
29315.3
29321
29326.8
29332.8
29338.8
29345
29351.3
29357.7
29364.2
29370.8
29377.6
29384.5
29391.5
29398.7
29406
29413.4
29420.9
29428.6
29436.5
29444.5
29452.6
29460.9
29469.3
29477.9
29486.6
29495.5
29504.5
29513.7
29523.1
29532.6
29542.3
29552.2
29562.2
29572.4
29582.8
29593.4
29604.1
29615.1
29626.2
29637.5
29649
29660.7
29672.6
29684.6
29696.9
29709.4
29722.1
29734.9
29748
29761.3
29774.8
29788.5
29802.5
29816.6
29831
29845.6
29860.4
29875.4
29890.6
29906.1
29921.8
29937.8
29953.9
29970.3
29986.9
30003.8
30020.9
30038.2
30055.7
30073.5
30091.6
30109.8
30128.3
30147
30166
30185.2
30204.6
30224.3
30244.2
30264.3
30284.7
30305.3
30326.1
30347.1
30368.4
30389.9
30411.6
30433.5
30455.6
30477.9
30500.4
30523.1
30546.1
30569.2
30592.5
30615.9
30639.6
30663.4
30687.3
30711.4
30735.7
30760
30784.5
30809.2
30833.9
30858.7
30883.6
30908.6
30933.7
30958.8
30983.9
31009.1
31034.2
31059.4
31084.5
31109.6
31134.6
31159.6
31184.5
31209.2
31233.9
31258.4
31282.7
31306.8
31330.7
31354.4
31377.8
31400.9
31423.7
31446.2
31468.3
31490
31511.3
31532.1
31552.5
31572.3
31591.6
31610.4
31628.5
31646
31662.9
31679
31694.4
31709.1
31723
31736
31748.2
31759.4
31769.8
31779.2
31787.6
31795
31801.4
31806.6
31810.8
31813.8
31815.7
31816.3
31815.8
31814
31810.9
31806.5
31800.8
31793.7
31785.3
31775.5
31764.3
31751.6
31737.5
31722
31704.9
31686.4
31666.3
31644.7
31621.6
31596.9
31570.7
31542.8
31513.4
31482.3
31449.7
31415.4
31379.5
31341.9
31302.7
31261.8
31219.2
31175
31129.1
31081.5
31032.3
30981.4
30928.8
30874.5
30818.5
30760.9
30701.7
30640.7
30578.2
30514
30448.2
30380.8
30311.9
30241.5
30169.5
30096
30021.1
29944.8
29867.2
29788.2
29707.9
29626.5
29544
29460.5
29375.9
29290.4
29204
29117.1
29029.6
28941.3
28852.6
28763.4
28674.1
28584.6
28495.1
28405.7
28316.5
28227.7
28139.3
28051.4
27964.4
27878.1
27792.9
27708.8
27626
27544.6
27464.8
27386.6
27310.2
27235.8
27163.5
27093.4
27025.7
26960.5
26897.9
26838.1
26781.2
26727.2
26676.4
26628.8
26584.6
26543.8
26506.6
26473.1
26443.2
26417.2
26395.1
26376.9
26362.7
26352.6
26346.5
26344.5
26346.6
26352.8
26363.1
26377.4
26395.7
26418
26444.1
26474.1
26507.8
26545.1
26585.9
26630
26677.5
26728
26781.4
26837.7
26896.5
26957.8
27021.4
27087
27154.5
27223.6
27294.3
27366.2
27439.2
27513.1
27587.7
27662.8
27738.1
27813.5
27888.9
27963.9
28038.4
28112.3
28185.2
28257.2
28327.9
28397.2
28465
28531
28595.2
28657.2
28717.1
28774.6
28829.6
28882
28931.5
28978.2
29021.7
29062.2
29099.3
29133.1
29163.4
29190.2
29213.3
29232.7
29248.3
29260.1
29268.1
29272.3
29272.4
29268.6
29261
29249.4
29234
29214.8
29191.8
29165
29134.5
29100.5
29062.9
29021.9
28977.6
28930.1
28879.4
28825.9
28769.5
28710.4
28648.7
28584.7
28518.4
28450.1
28379.8
28307.8
28234.3
28159.4
28083.4
28006.4
27928.6
27850.2
27771.5
27692.7
27614
27535.6
27457.8
27380.8
27304.8
27230
27156.8
27085.3
27015.8
26948.5
26883.7
26821.5
26762.3
26706.2
26653.3
26604
26558.4
26516.7
26479
26445.5
26416.3
26391.5
26371.3
26355.7
26344.8
26338.6
26337.2
26340.6
26348.8
26361.8
26379.6
26402.1
26429.3
26461.1
26497.5
26538.3
26583.5
26632.9
26686.4
26743.9
26805.3
26870.4
26939.1
27011.1
27086.4
27164.8
27246.1
27330
27416.5
27505.4
27596.4
27689.3
27784.1
27880.4
27978.1
28077
28176.9
28277.6
28378.9
28480.6
28582.5
28684.5
28786.4
28888.1
28989
29089.4
29189.2
29288
29385.8
29482.4
29577.7
29671.5
29764.1
29854.9
29943.8
30031
30116.3
30199.7
30281
30360.3
30437.4
30512.5
30585.3
30656
30724.5
30790.7
30854.7
30916.4
30975.8
31033
31087.9
31140.6
31191
31239.2
31285.2
31329
31370.5
31409.9
31447.2
31482.2
31515.2
31546
31574.8
31601.4
31626
31648.6
31669.1
31687.7
31704.2
31718.8
31731.4
31742.2
31751
31758
31763.1
31766.4
31768
31767.8
31765.9
31762.3
31757.1
31750.3
31741.9
31732.1
31720.7
31708
31693.8
31678.4
31661.6
31643.7
31624.6
31604.3
31583
31560.6
31537.3
31513.1
31488
31462.1
31435.4
31408
31379.9
31351.2
31322
31292.2
31261.9
31231.2
31200.2
31168.7
31137
31105
31072.8
31040.4
31007.8
30975.2
30942.4
30909.6
30876.8
30844.1
30811.3
30778.7
30746.2
30713.9
30681.7
30649.6
30617.8
30586.2
30554.9
30523.9
30493.1
30462.6
30432.5
30402.7
30373.2
30344.1
30315.3
30286.9
30258.9
30231.3
30204.1
30177.2
30150.8
30124.8
30099.2
30074
30049.2
30024.9
30000.9
29977.4
29954.3
29931.6
29909.4
29887.5
29866.1
29845.1
29824.5
29804.3
29784.5
29765.1
29746.1
29727.5
29709.3
29691.5
29674.1
29657
29640.3
29624
29608
29592.4
29577.2
29562.3
29547.8
29533.6
29519.7
29506.1
29492.9
29480
29467.4
29455.1
29443.1
29431.4
29420
29408.9
29398.1
29387.5
29377.2
29367.2
29357.4
29347.9
29338.6
29329.6
29320.8
29312.2
29303.9
29295.8
29287.9
29280.2
29272.7
29265.5
29258.4
29251.5
29244.8
29238.3
29232
29225.8
29219.9
29214.1
29208.4
29202.9
29197.6
29192.4
29187.4
29182.5
29177.8
29173.2
29168.7
29164.4
29160.2
29156.1
29152.2
29148.3
29144.6
29141
29137.5
29134
29130.7
29127.5
29124.4
29121.4
29118.5
29115.7
29112.9
29110.3
29107.7
29105.2
29102.8
29100.5
29098.2
29096
29093.9
29091.8
29089.8
29087.9
29086
29084.2
29082.4
29080.7
29079.1
29077.5
29076
29074.5
29073
29071.6
29070.3
29069
29067.7
29066.5
29065.3
29064.2
29063.1
29062
29061
29060
29059
29058.1
29057.2
29056.4
29055.5
29054.7
29053.9
29053.2
29052.4
29051.7
29051.1
29050.4
29049.8
29049.2
29048.6
29048
29047.4
29046.9
29046.4
29045.9
29045.4
29045
29044.5
29044.1
29043.7
29043.3
29042.9
29042.5
29042.2
29041.9
29041.5
29041.2
29040.9
29040.6
29040.3
29040.1
29039.8
29039.5
29039.3
29039.1
29038.8
29038.6
29038.4
29038.2
29038
29037.8
29037.7
29037.5
29037.3
29037.2
29037
29036.9
29036.8
29036.6
29036.5
29036.4
29036.3
29036.2
29036.1
29036
29035.9
29035.8
29035.7
29035.7
29035.6
29035.5
29035.5
29035.4
29035.4
29035.3
29035.3
29035.2
29035.2
29035.2
29035.1
29035.1
29035.1
29035.1
29035.1
29035.1
29035.1
28299.1
28299.1
28299.1
28299.2
28299.2
28299.3
28299.3
28299.3
28299.3
28299.3
28299.3
28299.4
28299.4
28299.4
28299.4
28299.4
28299.4
28299.4
28299.5
28299.5
28299.5
28299.5
28299.5
28299.6
28299.6
28299.6
28299.6
28299.7
28299.7
28299.7
28299.8
28299.8
28299.8
28299.9
28299.9
28299.9
28300
28300
28300.1
28300.1
28300.2
28300.2
28300.2
28300.3
28300.3
28300.4
28300.5
28300.5
28300.6
28300.6
28300.7
28300.7
28300.8
28300.9
28300.9
28301
28301.1
28301.1
28301.2
28301.3
28301.4
28301.4
28301.5
28301.6
28301.7
28301.8
28301.9
28302
28302.1
28302.2
28302.3
28302.4
28302.5
28302.6
28302.7
28302.8
28302.9
28303
28303.1
28303.3
28303.4
28303.5
28303.6
28303.8
28303.9
28304
28304.2
28304.3
28304.5
28304.6
28304.8
28304.9
28305.1
28305.3
28305.4
28305.6
28305.8
28306
28306.2
28306.3
28306.5
28306.7
28306.9
28307.1
28307.4
28307.6
28307.8
28308
28308.2
28308.5
28308.7
28309
28309.2
28309.5
28309.7
28310
28310.3
28310.6
28310.8
28311.1
28311.4
28311.7
28312
28312.4
28312.7
28313
28313.4
28313.7
28314.1
28314.4
28314.8
28315.2
28315.5
28315.9
28316.3
28316.7
28317.2
28317.6
28318
28318.5
28318.9
28319.4
28319.9
28320.4
28320.9
28321.4
28321.9
28322.4
28322.9
28323.5
28324.1
28324.6
28325.2
28325.8
28326.4
28327.1
28327.7
28328.4
28329
28329.7
28330.4
28331.1
28331.8
28332.6
28333.3
28334.1
28334.9
28335.7
28336.5
28337.4
28338.2
28339.1
28340
28340.9
28341.8
28342.8
28343.8
28344.8
28345.8
28346.8
28347.9
28348.9
28350
28351.2
28352.3
28353.5
28354.7
28355.9
28357.2
28358.4
28359.7
28361.1
28362.4
28363.8
28365.2
28366.7
28368.1
28369.6
28371.2
28372.7
28374.3
28376
28377.6
28379.3
28381.1
28382.8
28384.7
28386.5
28388.4
28390.3
28392.3
28394.3
28396.3
28398.4
28400.5
28402.7
28404.9
28407.2
28409.5
28411.9
28414.3
28416.7
28419.2
28421.8
28424.4
28427.1
28429.8
28432.6
28435.4
28438.3
28441.2
28444.2
28447.3
28450.4
28453.6
28456.9
28460.2
28463.6
28467
28470.5
28474.1
28477.8
28481.5
28485.3
28489.2
28493.2
28497.2
28501.3
28505.5
28509.8
28514.2
28518.6
28523.2
28527.8
28532.5
28537.4
28542.3
28547.3
28552.4
28557.6
28562.9
28568.3
28573.8
28579.4
28585.1
28590.9
28596.9
28602.9
28609.1
28615.3
28621.7
28628.3
28634.9
28641.7
28648.6
28655.6
28662.7
28670
28677.4
28685
28692.7
28700.5
28708.5
28716.6
28724.9
28733.3
28741.9
28750.6
28759.5
28768.5
28777.7
28787.1
28796.6
28806.3
28816.2
28826.2
28836.4
28846.8
28857.4
28868.1
28879.1
28890.2
28901.5
28913
28924.7
28936.5
28948.6
28960.9
28973.3
28986
28998.9
29012
29025.3
29038.8
29052.5
29066.4
29080.6
29094.9
29109.5
29124.3
29139.3
29154.6
29170.1
29185.8
29201.7
29217.8
29234.2
29250.9
29267.7
29284.8
29302.1
29319.7
29337.5
29355.5
29373.7
29392.2
29411
29429.9
29449.1
29468.6
29488.2
29508.1
29528.3
29548.6
29569.2
29590
29611.1
29632.3
29653.8
29675.5
29697.4
29719.5
29741.9
29764.4
29787.1
29810
29833.2
29856.5
29879.9
29903.6
29927.4
29951.3
29975.4
29999.7
30024.1
30048.6
30073.2
30098
30122.8
30147.7
30172.7
30197.8
30222.9
30248.1
30273.3
30298.4
30323.6
30348.8
30373.9
30398.9
30423.9
30448.8
30473.6
30498.3
30522.8
30547.1
30571.3
30595.2
30618.9
30642.4
30665.5
30688.4
30710.9
30733
30754.7
30776.1
30796.9
30817.3
30837.2
30856.6
30875.3
30893.5
30911.1
30927.9
30944.1
30959.6
30974.3
30988.2
31001.3
31013.5
31024.8
31035.2
31044.6
31053.1
31060.5
31066.9
31072.2
31076.4
31079.4
31081.3
31082
31081.5
31079.7
31076.6
31072.3
31066.6
31059.5
31051.1
31041.3
31030.1
31017.5
31003.4
30987.9
30970.8
30952.3
30932.3
30910.7
30887.5
30862.9
30836.6
30808.8
30779.3
30748.3
30715.6
30681.3
30645.4
30607.8
30568.6
30527.7
30485.1
30440.9
30395
30347.4
30298.1
30247.2
30194.5
30140.2
30084.2
30026.6
29967.3
29906.3
29843.7
29779.5
29713.7
29646.3
29577.3
29506.8
29434.7
29361.2
29286.2
29209.9
29132.2
29053.1
28972.8
28891.3
28808.7
28725.1
28640.4
28554.8
28468.4
28381.3
28293.6
28205.2
28116.4
28027.2
27937.7
27848.1
27758.5
27668.9
27579.6
27490.6
27402.1
27314.2
27226.9
27140.6
27055.3
26971.1
26888.1
26806.6
26726.7
26648.4
26571.9
26497.3
26424.9
26354.7
26286.9
26221.6
26158.9
26099
26042
25988
25937.1
25889.4
25845.1
25804.3
25767
25733.4
25703.5
25677.5
25655.3
25637.1
25622.9
25612.7
25606.6
25604.6
25606.7
25612.9
25623.2
25637.6
25655.9
25678.3
25704.5
25734.5
25768.3
25805.7
25846.6
25890.9
25938.4
25989.1
26042.7
26099
26158.1
26219.5
26283.2
26349
26416.7
26486
26556.9
26629
26702.2
26776.3
26851.1
26926.3
27001.9
27077.5
27153
27228.2
27302.9
27377
27450.2
27522.3
27593.2
27662.7
27730.7
27796.9
27861.2
27923.4
27983.4
28041.1
28096.2
28148.7
28198.4
28245.2
28288.9
28329.4
28366.7
28400.6
28431
28457.8
28480.9
28500.4
28516.1
28528
28535.9
28540
28540.2
28536.5
28528.8
28517.3
28501.7
28482.4
28459.3
28432.5
28402
28367.8
28330.1
28289
28244.6
28197
28146.2
28092.5
28035.9
27976.7
27914.9
27850.7
27784.2
27715.7
27645.3
27573.1
27499.4
27424.3
27348
27270.8
27192.8
27114.3
27035.4
26956.4
26877.4
26798.9
26720.8
26643.6
26567.4
26492.4
26419
26347.3
26277.6
26210.2
26145.2
26082.9
26023.5
25967.2
25914.3
25864.8
25819.1
25777.3
25739.5
25705.9
25676.6
25651.8
25631.5
25615.9
25604.9
25598.7
25597.3
25600.7
25608.9
25622
25639.8
25662.3
25689.6
25721.5
25757.9
25798.8
25844
25893.5
25947.1
26004.7
26066.2
26131.4
26200.1
26272.3
26347.7
26426.2
26507.6
26591.7
26678.3
26767.3
26858.4
26951.5
27046.4
27142.9
27240.7
27339.8
27439.8
27540.7
27642.1
27744
27846.1
27948.2
28050.2
28151.9
28253.1
28353.7
28453.6
28552.5
28650.4
28747.2
28842.5
28936.5
29029
29119.9
29209
29296.2
29381.6
29465
29546.4
29625.8
29703
29778.1
29851
29921.7
29990.2
30056.4
30120.4
30182.1
30241.6
30298.8
30353.7
30406.4
30456.9
30505.1
30551
30594.8
30636.4
30675.8
30713
30748.1
30781
30811.9
30840.6
30867.2
30891.8
30914.4
30934.9
30953.4
30969.9
30984.5
30997.1
31007.9
31016.7
31023.6
31028.7
31032
31033.6
31033.4
31031.4
31027.8
31022.6
31015.7
31007.3
30997.4
30986
30973.2
30959.1
30943.6
30926.8
30908.8
30889.6
30869.3
30847.9
30825.6
30802.2
30777.9
30752.8
30726.8
30700.1
30672.7
30644.6
30615.8
30586.6
30556.7
30526.4
30495.7
30464.6
30433.1
30401.4
30369.3
30337.1
30304.7
30272.1
30239.4
30206.6
30173.8
30141
30108.2
30075.5
30042.8
30010.3
29977.9
29945.7
29913.7
29881.8
29850.3
29818.9
29787.8
29757.1
29726.6
29696.4
29666.6
29637.1
29608
29579.2
29550.8
29522.8
29495.2
29468
29441.2
29414.7
29388.7
29363.1
29337.9
29313.1
29288.8
29264.8
29241.3
29218.2
29195.6
29173.3
29151.5
29130
29109
29088.4
29068.2
29048.4
29029.1
29010.1
28991.5
28973.3
28955.5
28938
28921
28904.3
28888
28872
28856.4
28841.2
28826.3
28811.8
28797.6
28783.7
28770.2
28756.9
28744
28731.5
28719.2
28707.2
28695.5
28684.1
28673
28662.1
28651.6
28641.3
28631.3
28621.5
28612
28602.7
28593.7
28584.9
28576.3
28568
28559.9
28552
28544.3
28536.8
28529.6
28522.5
28515.6
28508.9
28502.4
28496.1
28490
28484
28478.2
28472.6
28467.1
28461.8
28456.6
28451.6
28446.7
28442
28437.4
28432.9
28428.6
28424.4
28420.3
28416.3
28412.5
28408.8
28405.1
28401.6
28398.2
28394.9
28391.7
28388.6
28385.6
28382.7
28379.9
28377.1
28374.5
28371.9
28369.4
28367
28364.7
28362.4
28360.2
28358.1
28356
28354
28352.1
28350.2
28348.4
28346.6
28345
28343.3
28341.7
28340.2
28338.7
28337.3
28335.9
28334.5
28333.2
28332
28330.7
28329.6
28328.4
28327.3
28326.3
28325.2
28324.2
28323.3
28322.4
28321.5
28320.6
28319.7
28318.9
28318.2
28317.4
28316.7
28316
28315.3
28314.6
28314
28313.4
28312.8
28312.2
28311.7
28311.2
28310.6
28310.2
28309.7
28309.2
28308.8
28308.3
28307.9
28307.5
28307.2
28306.8
28306.4
28306.1
28305.8
28305.4
28305.1
28304.8
28304.6
28304.3
28304
28303.8
28303.5
28303.3
28303.1
28302.9
28302.7
28302.5
28302.3
28302.1
28301.9
28301.8
28301.6
28301.4
28301.3
28301.2
28301
28300.9
28300.8
28300.7
28300.5
28300.4
28300.3
28300.2
28300.2
28300.1
28300
28299.9
28299.9
28299.8
28299.7
28299.7
28299.6
28299.6
28299.5
28299.5
28299.4
28299.4
28299.4
28299.4
28299.3
28299.3
28299.3
28299.3
28299.3
27563.6
27563.6
27563.6
27563.6
27563.6
27563.6
27563.6
27563.6
27563.6
27563.6
27563.6
27563.6
27563.6
27563.6
27563.6
27563.7
27563.7
27563.7
27563.7
27563.7
27563.8
27563.8
27563.8
27563.8
27563.8
27563.9
27563.9
27563.9
27564
27564
27564
27564
27564.1
27564.1
27564.2
27564.2
27564.2
27564.3
27564.3
27564.4
27564.4
27564.4
27564.5
27564.5
27564.6
27564.6
27564.7
27564.8
27564.8
27564.9
27564.9
27565
27565
27565.1
27565.2
27565.2
27565.3
27565.4
27565.5
27565.5
27565.6
27565.7
27565.8
27565.9
27565.9
27566
27566.1
27566.2
27566.3
27566.4
27566.5
27566.6
27566.7
27566.8
27566.9
27567
27567.1
27567.3
27567.4
27567.5
27567.6
27567.7
27567.9
27568
27568.1
27568.3
27568.4
27568.6
27568.7
27568.9
27569
27569.2
27569.3
27569.5
27569.7
27569.8
27570
27570.2
27570.4
27570.6
27570.8
27571
27571.2
27571.4
27571.6
27571.8
27572
27572.2
27572.5
27572.7
27573
27573.2
27573.4
27573.7
27574
27574.2
27574.5
27574.8
27575.1
27575.4
27575.7
27576
27576.3
27576.6
27576.9
27577.2
27577.6
27577.9
27578.3
27578.6
27579
27579.4
27579.8
27580.2
27580.6
27581
27581.4
27581.8
27582.2
27582.7
27583.2
27583.6
27584.1
27584.6
27585.1
27585.6
27586.1
27586.6
27587.2
27587.7
27588.3
27588.8
27589.4
27590
27590.6
27591.3
27591.9
27592.6
27593.2
27593.9
27594.6
27595.3
27596
27596.8
27597.5
27598.3
27599.1
27599.9
27600.7
27601.6
27602.4
27603.3
27604.2
27605.1
27606
27607
27607.9
27608.9
27609.9
27611
27612
27613.1
27614.2
27615.3
27616.5
27617.7
27618.9
27620.1
27621.3
27622.6
27623.9
27625.2
27626.6
27628
27629.4
27630.8
27632.3
27633.8
27635.3
27636.9
27638.5
27640.1
27641.8
27643.5
27645.2
27647
27648.8
27650.6
27652.5
27654.4
27656.4
27658.4
27660.5
27662.5
27664.7
27666.8
27669.1
27671.3
27673.6
27676
27678.4
27680.8
27683.3
27685.9
27688.5
27691.2
27693.9
27696.6
27699.5
27702.4
27705.3
27708.3
27711.4
27714.5
27717.7
27720.9
27724.2
27727.6
27731.1
27734.6
27738.2
27741.8
27745.6
27749.4
27753.2
27757.2
27761.2
27765.4
27769.6
27773.8
27778.2
27782.6
27787.2
27791.8
27796.5
27801.3
27806.2
27811.2
27816.3
27821.5
27826.8
27832.2
27837.7
27843.3
27849
27854.9
27860.8
27866.8
27873
27879.3
27885.7
27892.2
27898.8
27905.6
27912.5
27919.5
27926.6
27933.9
27941.3
27948.9
27956.6
27964.4
27972.4
27980.5
27988.7
27997.2
28005.7
28014.4
28023.3
28032.4
28041.5
28050.9
28060.4
28070.1
28080
28090
28100.2
28110.6
28121.1
28131.9
28142.8
28153.9
28165.2
28176.7
28188.4
28200.2
28212.3
28224.6
28237
28249.7
28262.6
28275.7
28289
28302.4
28316.2
28330.1
28344.2
28358.6
28373.2
28388
28403
28418.2
28433.7
28449.4
28465.3
28481.5
28497.9
28514.5
28531.3
28548.4
28565.7
28583.3
28601.1
28619.1
28637.4
28655.9
28674.6
28693.5
28712.7
28732.2
28751.9
28771.8
28791.9
28812.3
28832.8
28853.7
28874.7
28896
28917.5
28939.2
28961.1
28983.2
29005.5
29028.1
29050.8
29073.8
29096.9
29120.2
29143.7
29167.3
29191.2
29215.1
29239.3
29263.5
29288
29312.5
29337.1
29361.9
29386.8
29411.7
29436.8
29461.9
29487
29512.2
29537.4
29562.6
29587.8
29613
29638.2
29663.3
29688.3
29713.3
29738.1
29762.8
29787.4
29811.8
29836
29860
29883.8
29907.3
29930.5
29953.4
29975.9
29998.1
30019.9
30041.3
30062.3
30082.7
30102.7
30122.1
30141
30159.2
30176.9
30193.8
30210.1
30225.6
30240.4
30254.4
30267.5
30279.8
30291.2
30301.7
30311.2
30319.7
30327.2
30333.7
30339
30343.3
30346.4
30348.3
30349.1
30348.6
30346.9
30343.9
30339.6
30333.9
30326.9
30318.5
30308.8
30297.6
30285
30270.9
30255.4
30238.4
30219.9
30199.8
30178.3
30155.2
30130.5
30104.2
30076.4
30046.9
30015.9
29983.2
29948.9
29912.9
29875.4
29836.1
29795.2
29752.6
29708.3
29662.4
29614.8
29565.5
29514.5
29461.8
29407.4
29351.4
29293.7
29234.3
29173.3
29110.6
29046.3
28980.4
28912.8
28843.7
28773.1
28701
28627.4
28552.3
28475.8
28397.9
28318.7
28238.2
28156.6
28073.8
27990
27905.2
27819.4
27732.8
27645.4
27557.4
27468.9
27379.8
27290.3
27200.6
27110.8
27020.9
26931.1
26841.6
26752.3
26663.5
26575.4
26487.9
26401.3
26315.8
26231.3
26148.2
26066.4
25986.2
25907.7
25831
25756.2
25683.6
25613.2
25545.2
25479.6
25416.8
25356.7
25299.5
25245.3
25194.2
25146.4
25102
25061
25023.6
24989.9
24959.9
24933.7
24911.5
24893.2
24878.9
24868.7
24862.6
24860.6
24862.7
24869
24879.3
24893.7
24912.2
24934.6
24961
24991.2
25025.1
25062.7
25103.8
25148.3
25196.1
25247
25300.8
25357.5
25416.8
25478.6
25542.7
25608.8
25676.8
25746.5
25817.7
25890.2
25963.8
26038.3
26113.5
26189.1
26265.1
26341.1
26417
26492.7
26567.8
26642.2
26715.8
26788.3
26859.6
26929.5
26997.8
27064.3
27129
27191.5
27251.9
27309.8
27365.3
27418
27468
27515
27559
27599.7
27637.2
27671.3
27701.8
27728.8
27752
27771.6
27787.4
27799.3
27807.3
27811.4
27811.6
27807.8
27800.1
27788.5
27773
27753.6
27730.3
27703.3
27672.6
27638.3
27600.4
27559.1
27514.4
27466.5
27415.5
27361.5
27304.6
27245.1
27182.9
27118.4
27051.6
26982.7
26911.9
26839.4
26765.2
26689.8
26613.1
26535.5
26457.1
26378.1
26298.8
26219.4
26140
26061
25982.6
25904.9
25828.3
25753
25679.2
25607.1
25537.1
25469.3
25403.9
25341.3
25281.6
25225.1
25171.8
25122.2
25076.2
25034.2
24996.2
24962.5
24933.1
24908.1
24887.7
24872
24861
24854.8
24853.4
24856.8
24865
24878.1
24896
24918.6
24945.9
24977.9
25014.5
25055.5
25100.8
25150.5
25204.3
25262.1
25323.7
25389.1
25458.1
25530.5
25606.1
25684.8
25766.5
25850.8
25937.7
26027
26118.4
26211.7
26306.9
26403.7
26501.8
26601.1
26701.5
26802.6
26904.3
27006.5
27108.9
27211.3
27313.6
27415.6
27517.1
27617.9
27718
27817.2
27915.4
28012.3
28107.9
28202.1
28294.8
28385.8
28475
28562.5
28648
28731.5
28813.1
28892.5
28969.8
29045
29118
29188.8
29257.3
29323.6
29387.7
29449.4
29508.9
29566.2
29621.1
29673.8
29724.3
29772.5
29818.5
29862.2
29903.8
29943.2
29980.4
30015.5
30048.4
30079.2
30107.9
30134.6
30159.1
30181.7
30202.2
30220.7
30237.2
30251.7
30264.3
30275
30283.8
30290.7
30295.7
30299
30300.4
30300.2
30298.2
30294.5
30289.2
30282.3
30273.8
30263.8
30252.4
30239.5
30225.2
30209.6
30192.8
30174.7
30155.4
30135.1
30113.6
30091.1
30067.7
30043.3
30018.1
29992.1
29965.3
29937.8
29909.6
29880.8
29851.4
29821.6
29791.2
29760.4
29729.2
29697.7
29665.8
29633.7
29601.4
29569
29536.3
29503.6
29470.8
29437.9
29405
29372.2
29339.5
29306.8
29274.2
29241.8
29209.5
29177.5
29145.6
29114
29082.7
29051.6
29020.8
28990.3
28960.1
28930.3
28900.8
28871.6
28842.9
28814.5
28786.4
28758.8
28731.6
28704.8
28678.3
28652.3
28626.7
28601.5
28576.7
28552.4
28528.5
28504.9
28481.8
28459.2
28436.9
28415.1
28393.7
28372.7
28352.1
28331.9
28312.1
28292.7
28273.7
28255.2
28237
28219.2
28201.7
28184.7
28168
28151.7
28135.8
28120.2
28105
28090.1
28075.6
28061.4
28047.5
28034
28020.8
28007.9
27995.3
27983
27971
27959.3
27948
27936.9
27926
27915.5
27905.2
27895.2
27885.4
27875.9
27866.6
27857.6
27848.8
27840.3
27831.9
27823.8
27816
27808.3
27800.8
27793.6
27786.5
27779.6
27772.9
27766.5
27760.1
27754
27748
27742.2
27736.6
27731.1
27725.8
27720.7
27715.6
27710.8
27706
27701.5
27697
27692.7
27688.5
27684.4
27680.4
27676.6
27672.9
27669.3
27665.8
27662.4
27659.1
27655.9
27652.8
27649.8
27646.8
27644
27641.3
27638.6
27636.1
27633.6
27631.2
27628.8
27626.6
27624.4
27622.2
27620.2
27618.2
27616.3
27614.4
27612.6
27610.8
27609.1
27607.5
27605.9
27604.4
27602.9
27601.5
27600.1
27598.7
27597.4
27596.2
27594.9
27593.8
27592.6
27591.5
27590.5
27589.4
27588.5
27587.5
27586.6
27585.7
27584.8
27584
27583.2
27582.4
27581.6
27580.9
27580.2
27579.5
27578.9
27578.2
27577.6
27577
27576.5
27575.9
27575.4
27574.9
27574.4
27573.9
27573.4
27573
27572.6
27572.2
27571.8
27571.4
27571
27570.7
27570.3
27570
27569.7
27569.4
27569.1
27568.8
27568.5
27568.3
27568
27567.8
27567.5
27567.3
27567.1
27566.9
27566.7
27566.5
27566.3
27566.2
27566
27565.8
27565.7
27565.5
27565.4
27565.3
27565.1
27565
27564.9
27564.8
27564.7
27564.6
27564.5
27564.4
27564.3
27564.2
27564.2
27564.1
27564
27564
27563.9
27563.9
27563.8
27563.8
27563.7
27563.7
27563.7
27563.6
27563.6
27563.6
27563.6
27563.6
27563.6
27563.6
26827.8
26827.8
26827.8
26827.8
26827.8
26827.8
26827.8
26827.8
26827.8
26827.8
26827.8
26827.9
26827.9
26827.9
26827.9
26827.9
26827.9
26827.9
26828
26828
26828
26828
26828
26828.1
26828.1
26828.1
26828.1
26828.2
26828.2
26828.2
26828.3
26828.3
26828.3
26828.4
26828.4
26828.4
26828.5
26828.5
26828.6
26828.6
26828.6
26828.7
26828.7
26828.8
26828.8
26828.9
26828.9
26829
26829
26829.1
26829.2
26829.2
26829.3
26829.4
26829.4
26829.5
26829.6
26829.6
26829.7
26829.8
26829.9
26829.9
26830
26830.1
26830.2
26830.3
26830.4
26830.4
26830.5
26830.6
26830.7
26830.8
26830.9
26831
26831.1
26831.3
26831.4
26831.5
26831.6
26831.7
26831.9
26832
26832.1
26832.2
26832.4
26832.5
26832.7
26832.8
26832.9
26833.1
26833.3
26833.4
26833.6
26833.7
26833.9
26834.1
26834.3
26834.4
26834.6
26834.8
26835
26835.2
26835.4
26835.6
26835.8
26836
26836.2
26836.5
26836.7
26836.9
26837.2
26837.4
26837.7
26837.9
26838.2
26838.5
26838.7
26839
26839.3
26839.6
26839.9
26840.2
26840.5
26840.8
26841.1
26841.5
26841.8
26842.1
26842.5
26842.8
26843.2
26843.6
26844
26844.4
26844.8
26845.2
26845.6
26846
26846.5
26846.9
26847.4
26847.8
26848.3
26848.8
26849.3
26849.8
26850.3
26850.8
26851.4
26851.9
26852.5
26853
26853.6
26854.2
26854.8
26855.5
26856.1
26856.7
26857.4
26858.1
26858.8
26859.5
26860.2
26860.9
26861.7
26862.5
26863.3
26864.1
26864.9
26865.7
26866.6
26867.4
26868.3
26869.2
26870.2
26871.1
26872.1
26873.1
26874.1
26875.1
26876.2
26877.3
26878.4
26879.5
26880.6
26881.8
26883
26884.2
26885.5
26886.7
26888
26889.3
26890.7
26892.1
26893.5
26894.9
26896.4
26897.9
26899.4
26901
26902.6
26904.2
26905.9
26907.6
26909.3
26911.1
26912.9
26914.7
26916.6
26918.5
26920.5
26922.5
26924.5
26926.6
26928.7
26930.9
26933.1
26935.4
26937.7
26940
26942.4
26944.9
26947.4
26949.9
26952.5
26955.2
26957.9
26960.6
26963.5
26966.3
26969.3
26972.3
26975.3
26978.4
26981.6
26984.9
26988.2
26991.6
26995
26998.5
27002.1
27005.8
27009.5
27013.3
27017.2
27021.1
27025.1
27029.3
27033.4
27037.7
27042.1
27046.5
27051.1
27055.7
27060.4
27065.2
27070.1
27075.1
27080.2
27085.3
27090.6
27096
27101.5
27107.1
27112.8
27118.6
27124.6
27130.6
27136.7
27143
27149.4
27155.9
27162.5
27169.3
27176.2
27183.2
27190.3
27197.6
27205
27212.5
27220.2
27228
27236
27244.1
27252.4
27260.8
27269.3
27278
27286.9
27295.9
27305.1
27314.5
27324
27333.7
27343.5
27353.5
27363.7
27374.1
27384.7
27395.4
27406.3
27417.4
27428.7
27440.2
27451.8
27463.7
27475.8
27488
27500.5
27513.1
27526
27539.1
27552.3
27565.8
27579.5
27593.5
27607.6
27621.9
27636.5
27651.3
27666.3
27681.6
27697
27712.7
27728.6
27744.8
27761.2
27777.8
27794.6
27811.7
27829
27846.6
27864.4
27882.4
27900.6
27919.1
27937.9
27956.8
27976
27995.5
28015.1
28035.1
28055.2
28075.6
28096.2
28117
28138
28159.3
28180.8
28202.5
28224.4
28246.6
28268.9
28291.5
28314.2
28337.2
28360.3
28383.7
28407.2
28430.9
28454.7
28478.7
28502.9
28527.2
28551.6
28576.2
28600.9
28625.7
28650.6
28675.6
28700.7
28725.8
28751
28776.2
28801.5
28826.8
28852
28877.3
28902.5
28927.7
28952.8
28977.8
29002.7
29027.5
29052.1
29076.6
29100.9
29125
29148.8
29172.4
29195.7
29218.7
29241.4
29263.7
29285.6
29307.1
29328.2
29348.7
29368.8
29388.4
29407.3
29425.7
29443.4
29460.5
29476.9
29492.5
29507.4
29521.5
29534.8
29547.2
29558.7
29569.3
29578.9
29587.6
29595.2
29601.7
29607.2
29611.5
29614.7
29616.8
29617.6
29617.2
29615.5
29612.6
29608.4
29602.8
29595.8
29587.5
29577.8
29566.7
29554.1
29540.1
29524.6
29507.6
29489.1
29469.1
29447.6
29424.5
29399.8
29373.5
29345.7
29316.2
29285.2
29252.5
29218.2
29182.2
29144.6
29105.3
29064.3
29021.7
28977.4
28931.4
28883.7
28834.4
28783.3
28730.5
28676.1
28620
28562.2
28502.7
28441.5
28378.8
28314.3
28248.3
28180.6
28111.4
28040.6
27968.3
27894.4
27819.2
27742.4
27664.4
27584.9
27504.3
27422.4
27339.3
27255.2
27170.1
27084
26997.1
26909.4
26821.1
26732.2
26642.8
26553
26462.9
26372.7
26282.5
26192.3
26102.4
26012.8
25923.6
25835.1
25747.2
25660.3
25574.4
25489.6
25406
25323.9
25243.4
25164.5
25087.5
25012.4
24939.4
24868.7
24800.4
24734.6
24671.4
24611
24553.5
24499.1
24447.8
24399.7
24355.1
24313.9
24276.3
24242.4
24212.2
24186
24163.6
24145.2
24130.8
24120.6
24114.4
24112.4
24114.6
24120.9
24131.3
24145.8
24164.4
24187
24213.5
24243.9
24278.1
24316
24357.4
24402.2
24450.4
24501.7
24555.9
24613.1
24672.8
24735.1
24799.6
24866.3
24934.8
25005.1
25076.9
25150
25224.1
25299.2
25375
25451.2
25527.8
25604.4
25681
25757.2
25832.9
25907.9
25982.1
26055.2
26127
26197.5
26266.3
26333.4
26398.5
26461.6
26522.4
26580.9
26636.7
26689.9
26740.3
26787.7
26832
26873.1
26910.8
26945.2
26976
27003.1
27026.6
27046.3
27062.2
27074.2
27082.3
27086.4
27086.6
27082.8
27075.1
27063.3
27047.6
27028.1
27004.7
26977.5
26946.5
26911.9
26873.7
26832.1
26787.1
26738.8
26687.3
26632.9
26575.6
26515.5
26452.9
26387.9
26320.5
26251.1
26179.8
26106.6
26032
25955.9
25878.6
25800.4
25721.4
25641.8
25561.8
25481.7
25401.8
25322.1
25243.1
25164.8
25087.6
25011.7
24937.3
24864.7
24794.1
24725.8
24659.9
24596.8
24536.6
24479.7
24426
24376
24329.7
24287.4
24249.2
24215.2
24185.5
24160.4
24139.9
24124.1
24113
24106.7
24105.3
24108.7
24117
24130.1
24148.1
24170.8
24198.3
24230.5
24267.2
24308.4
24354
24403.9
24457.9
24515.9
24577.9
24643.6
24712.9
24785.6
24861.6
24940.6
25022.6
25107.4
25194.6
25284.3
25376.1
25469.9
25565.5
25662.7
25761.3
25861
25961.8
26063.3
26165.5
26268.1
26370.9
26473.8
26576.5
26678.9
26780.8
26882.1
26982.6
27082.2
27180.7
27277.9
27373.9
27468.3
27561.3
27652.5
27742
27829.7
27915.4
27999.2
28080.9
28160.5
28238
28313.3
28386.4
28457.3
28526
28592.3
28656.4
28718.3
28777.8
28835.1
28890.1
28942.8
28993.3
29041.5
29087.5
29131.3
29172.9
29212.2
29249.4
29284.5
29317.4
29348.2
29376.9
29403.5
29428
29450.5
29471
29489.4
29505.9