/*--------------------------------*- C++ -*----------------------------------*\
| =========                 |                                                 |
| \\      /  F ield         | OpenFOAM: The Open Source CFD Toolbox           |
|  \\    /   O peration     | Version:  2412                                  |
|   \\  /    A nd           | Website:  www.openfoam.com                      |
|    \\/     M anipulation  |                                                 |
\*---------------------------------------------------------------------------*/
FoamFile
{
    version     2.0;
    format      ascii;
    arch        "LSB;label=32;scalar=64";
    class       volVectorField;
    location    "34";
    object      U;
}
// * * * * * * * * * * * * * * * * * * * * * * * * * * * * * * * * * * * * * //

dimensions      [0 1 -1 0 0 0 0];

internalField   nonuniform List<vector> 
6400
(
(-1.94689e-05 2.32265e-05 0)
(-6.17759e-05 4.05001e-05 0)
(-9.23307e-05 4.54079e-05 0)
(-0.000121656 4.54168e-05 0)
(-0.000150096 4.49458e-05 0)
(-0.000176576 4.47381e-05 0)
(-0.000200572 4.48183e-05 0)
(-0.000221834 4.49966e-05 0)
(-0.000240506 4.54863e-05 0)
(-0.00025597 4.63292e-05 0)
(-0.000267933 4.72536e-05 0)
(-0.000276672 4.82136e-05 0)
(-0.000282041 4.91702e-05 0)
(-0.000283912 4.99722e-05 0)
(-0.00028234 5.06218e-05 0)
(-0.000277218 5.11894e-05 0)
(-0.000268453 5.16325e-05 0)
(-0.000256204 5.18622e-05 0)
(-0.00024073 5.19199e-05 0)
(-0.00022213 5.19698e-05 0)
(-0.000200316 5.21331e-05 0)
(-0.000175219 5.23872e-05 0)
(-0.000146935 5.26223e-05 0)
(-0.000115681 5.27618e-05 0)
(-8.16409e-05 5.28174e-05 0)
(-4.4904e-05 5.28479e-05 0)
(-5.54068e-06 5.28851e-05 0)
(3.62361e-05 5.28951e-05 0)
(7.99571e-05 5.27945e-05 0)
(0.000124901 5.24937e-05 0)
(0.000170217 5.19398e-05 0)
(0.000215104 5.11365e-05 0)
(0.00025897 5.01397e-05 0)
(0.000301477 4.90312e-05 0)
(0.000342467 4.78847e-05 0)
(0.000381797 4.67383e-05 0)
(0.000419165 4.55824e-05 0)
(0.000454016 4.4366e-05 0)
(0.000485578 4.30198e-05 0)
(0.000512991 4.14872e-05 0)
(0.000535488 3.97513e-05 0)
(0.000552535 3.78419e-05 0)
(0.000563879 3.58203e-05 0)
(0.0005695 3.37493e-05 0)
(0.000569504 3.16677e-05 0)
(0.000564047 2.95838e-05 0)
(0.000553305 2.74885e-05 0)
(0.000537509 2.53766e-05 0)
(0.000516992 2.32606e-05 0)
(0.000492201 2.11676e-05 0)
(0.000463656 1.91255e-05 0)
(0.000431883 1.71473e-05 0)
(0.000397338 1.52271e-05 0)
(0.000360394 1.33476e-05 0)
(0.000321376 1.14964e-05 0)
(0.000280645 9.67758e-06 0)
(0.000238677 7.91483e-06 0)
(0.000196101 6.24342e-06 0)
(0.00015369 4.69821e-06 0)
(0.000112277 3.30201e-06 0)
(7.26595e-05 2.06047e-06 0)
(3.551e-05 9.63238e-07 0)
(1.32858e-06 -7.28648e-09 0)
(-2.95397e-05 -8.65134e-07 0)
(-5.68478e-05 -1.61256e-06 0)
(-8.0385e-05 -2.24168e-06 0)
(-9.99426e-05 -2.74366e-06 0)
(-0.000115314 -3.118e-06 0)
(-0.000126317 -3.37321e-06 0)
(-0.00013282 -3.52204e-06 0)
(-0.000134782 -3.58052e-06 0)
(-0.000132303 -3.574e-06 0)
(-0.000125644 -3.53903e-06 0)
(-0.000115213 -3.50824e-06 0)
(-0.00010152 -3.47963e-06 0)
(-8.51808e-05 -3.38758e-06 0)
(-6.69877e-05 -3.09212e-06 0)
(-4.79077e-05 -2.47948e-06 0)
(-2.8988e-05 -1.48436e-06 0)
(-9.38586e-06 -1.28246e-06 0)
(-3.1163e-05 7.28266e-05 0)
(-0.000110033 0.000133827 0)
(-0.000170846 0.000150942 0)
(-0.000224953 0.000153203 0)
(-0.000276509 0.000152439 0)
(-0.000324547 0.000151746 0)
(-0.00036816 0.000151499 0)
(-0.000406808 0.000151556 0)
(-0.000440463 0.000152175 0)
(-0.000468453 0.000153499 0)
(-0.000490236 0.000155132 0)
(-0.000506085 0.000156833 0)
(-0.000516011 0.000158458 0)
(-0.000519736 0.000159757 0)
(-0.000517039 0.000160637 0)
(-0.000507742 0.000161098 0)
(-0.000491877 0.000161127 0)
(-0.000469717 0.000160738 0)
(-0.000441515 0.000160078 0)
(-0.000407341 0.000159375 0)
(-0.00036717 0.000158778 0)
(-0.000321079 0.000158259 0)
(-0.000269321 0.000157687 0)
(-0.000212204 0.000156959 0)
(-0.000149939 0.000156075 0)
(-8.26331e-05 0.000155092 0)
(-1.0461e-05 0.000154051 0)
(6.60971e-05 0.000152926 0)
(0.000146109 0.000151631 0)
(0.00022823 0.000150056 0)
(0.000310933 0.000148111 0)
(0.000392818 0.00014576 0)
(0.000472877 0.000143037 0)
(0.000550557 0.000140042 0)
(0.000625595 0.000136911 0)
(0.000697709 0.000133774 0)
(0.000766284 0.000130703 0)
(0.000830229 0.000127681 0)
(0.000888059 0.000124609 0)
(0.000938176 0.000121355 0)
(0.000979206 0.00011782 0)
(0.00101023 0.00011398 0)
(0.00103082 0.000109887 0)
(0.00104096 0.000105623 0)
(0.00104082 0.00010125 0)
(0.00103064 9.67824e-05 0)
(0.00101074 9.21962e-05 0)
(0.000981554 8.74639e-05 0)
(0.000943745 8.25852e-05 0)
(0.000898164 7.75966e-05 0)
(0.000845781 7.2553e-05 0)
(0.000787537 6.75015e-05 0)
(0.000724237 6.24633e-05 0)
(0.000656534 5.74351e-05 0)
(0.000585019 5.24024e-05 0)
(0.000510362 4.73571e-05 0)
(0.000433457 4.23052e-05 0)
(0.000355484 3.72684e-05 0)
(0.000277869 3.22794e-05 0)
(0.00020214 2.73796e-05 0)
(0.000129748 2.26131e-05 0)
(6.19028e-05 1.80224e-05 0)
(-4.98373e-07 1.36429e-05 0)
(-5.68346e-05 9.50402e-06 0)
(-0.000106657 5.63189e-06 0)
(-0.00014958 2.04983e-06 0)
(-0.000185227 -1.2285e-06 0)
(-0.000213219 -4.20346e-06 0)
(-0.000233215 -6.88575e-06 0)
(-0.000244963 -9.2858e-06 0)
(-0.000248392 -1.14098e-05 0)
(-0.000243697 -1.32659e-05 0)
(-0.000231369 -1.48718e-05 0)
(-0.000212123 -1.62513e-05 0)
(-0.000186796 -1.73923e-05 0)
(-0.00015637 -1.8147e-05 0)
(-0.00012225 -1.81284e-05 0)
(-8.65322e-05 -1.67164e-05 0)
(-5.17031e-05 -1.33265e-05 0)
(-1.64867e-05 -7.07966e-06 0)
(-3.40866e-05 0.000113359 0)
(-0.000121995 0.000210779 0)
(-0.000192757 0.000240027 0)
(-0.000254661 0.000245851 0)
(-0.000312784 0.00024713 0)
(-0.000366721 0.000248354 0)
(-0.000415688 0.000249906 0)
(-0.000459004 0.000252024 0)
(-0.000496457 0.000254881 0)
(-0.000527559 0.000258494 0)
(-0.000552021 0.000262508 0)
(-0.000569981 0.000266608 0)
(-0.000581317 0.00027068 0)
(-0.000585778 0.000274462 0)
(-0.00058315 0.000277689 0)
(-0.000573172 0.000280231 0)
(-0.000555733 0.000282125 0)
(-0.000531004 0.000283517 0)
(-0.000499241 0.000284567 0)
(-0.000460599 0.000285383 0)
(-0.000415176 0.000285993 0)
(-0.000363146 0.000286363 0)
(-0.000304799 0.00028645 0)
(-0.000240431 0.000286236 0)
(-0.00017023 0.000285725 0)
(-9.43063e-05 0.000284908 0)
(-1.28887e-05 0.000283726 0)
(7.34315e-05 0.000282067 0)
(0.000163562 0.000279801 0)
(0.000255975 0.00027681 0)
(0.000348967 0.000273025 0)
(0.000441017 0.000268442 0)
(0.000531055 0.000263132 0)
(0.000618524 0.000257237 0)
(0.000703163 0.000250935 0)
(0.000784629 0.000244386 0)
(0.000862159 0.000237669 0)
(0.000934425 0.000230755 0)
(0.000999681 0.00022353 0)
(0.00105611 0.000215859 0)
(0.0011022 0.000207666 0)
(0.00113698 0.00019897 0)
(0.00116001 0.00018987 0)
(0.00117127 0.000180489 0)
(0.00117092 0.000170921 0)
(0.00115921 0.000161214 0)
(0.00113648 0.000151385 0)
(0.00110327 0.000141454 0)
(0.00106035 0.000131473 0)
(0.00100871 0.000121518 0)
(0.000949448 0.000111669 0)
(0.000883617 0.000101983 0)
(0.000812098 9.24902e-05 0)
(0.000735608 8.31986e-05 0)
(0.000654808 7.41165e-05 0)
(0.000570462 6.52603e-05 0)
(0.000483593 5.66574e-05 0)
(0.000395548 4.83389e-05 0)
(0.000307952 4.03399e-05 0)
(0.000222543 3.26981e-05 0)
(0.000140965 2.54571e-05 0)
(6.45781e-05 1.86591e-05 0)
(-5.61736e-06 1.23418e-05 0)
(-6.89352e-05 6.53357e-06 0)
(-0.000124881 1.25645e-06 0)
(-0.000173032 -3.4766e-06 0)
(-0.000212969 -7.66465e-06 0)
(-0.000244272 -1.13237e-05 0)
(-0.000266552 -1.44838e-05 0)
(-0.000279521 -1.71841e-05 0)
(-0.000283095 -1.94633e-05 0)
(-0.000277497 -2.13484e-05 0)
(-0.000263289 -2.28527e-05 0)
(-0.000241285 -2.39943e-05 0)
(-0.000212365 -2.47919e-05 0)
(-0.000177456 -2.51763e-05 0)
(-0.000138002 -2.48674e-05 0)
(-9.6573e-05 -2.32254e-05 0)
(-5.68216e-05 -1.88276e-05 0)
(-1.80843e-05 -9.38342e-06 0)
(-3.422e-05 0.000152433 0)
(-0.00012295 0.000281763 0)
(-0.000195091 0.000321174 0)
(-0.000257917 0.000330547 0)
(-0.000316784 0.000334911 0)
(-0.000371661 0.000339529 0)
(-0.00042121 0.000344611 0)
(-0.000464641 0.000350365 0)
(-0.000502195 0.000356884 0)
(-0.000533548 0.000363976 0)
(-0.00055833 0.000371472 0)
(-0.000576562 0.000379264 0)
(-0.000588203 0.000387261 0)
(-0.000593142 0.000395103 0)
(-0.000591071 0.000402398 0)
(-0.000581536 0.000408977 0)
(-0.000564299 0.000414866 0)
(-0.00053952 0.000420147 0)
(-0.000507514 0.000424842 0)
(-0.000468481 0.000428902 0)
(-0.000422532 0.00043227 0)
(-0.000369833 0.000434934 0)
(-0.000310666 0.000436932 0)
(-0.000245336 0.000438316 0)
(-0.000174062 0.000439095 0)
(-9.70125e-05 0.000439187 0)
(-1.44772e-05 0.000438421 0)
(7.29071e-05 0.000436573 0)
(0.000164034 0.000433437 0)
(0.000257389 0.00042887 0)
(0.000351306 0.000422829 0)
(0.000444311 0.000415371 0)
(0.000535393 0.000406647 0)
(0.000624031 0.00039687 0)
(0.000709959 0.00038626 0)
(0.00079277 0.000374977 0)
(0.000871584 0.000363075 0)
(0.000944957 0.000350496 0)
(0.00101107 0.000337122 0)
(0.00106809 0.000322863 0)
(0.00111455 0.000307714 0)
(0.00114954 0.00029178 0)
(0.00117266 0.000275233 0)
(0.00118386 0.000258261 0)
(0.00118329 0.000241026 0)
(0.00117118 0.000223654 0)
(0.00114787 0.000206263 0)
(0.00111393 0.000188977 0)
(0.00107018 0.000171935 0)
(0.00101762 0.000155274 0)
(0.000957369 0.000139097 0)
(0.000890449 0.00012347 0)
(0.000817741 0.000108423 0)
(0.000739971 9.39821e-05 0)
(0.000657823 8.01833e-05 0)
(0.000572088 6.70807e-05 0)
(0.00048382 5.47351e-05 0)
(0.000394397 4.32049e-05 0)
(0.000305482 3.25356e-05 0)
(0.00021885 2.27627e-05 0)
(0.000136172 1.39064e-05 0)
(5.88246e-05 5.97223e-06 0)
(-1.21867e-05 -1.05274e-06 0)
(-7.61748e-05 -7.19112e-06 0)
(-0.000132643 -1.24697e-05 0)
(-0.000181166 -1.69133e-05 0)
(-0.000221324 -2.05514e-05 0)
(-0.000252698 -2.34245e-05 0)
(-0.000274902 -2.55937e-05 0)
(-0.00028765 -2.71399e-05 0)
(-0.000290846 -2.81508e-05 0)
(-0.000284699 -2.86964e-05 0)
(-0.000269771 -2.88195e-05 0)
(-0.000246894 -2.85427e-05 0)
(-0.000216952 -2.78639e-05 0)
(-0.000180862 -2.67677e-05 0)
(-0.0001401 -2.52516e-05 0)
(-9.72857e-05 -2.3086e-05 0)
(-5.65263e-05 -1.88058e-05 0)
(-1.79448e-05 -9.28711e-06 0)
(-3.37819e-05 0.000188539 0)
(-0.000120727 0.000348269 0)
(-0.000192167 0.000397801 0)
(-0.000254107 0.000411234 0)
(-0.000311781 0.000418782 0)
(-0.00036591 0.000427103 0)
(-0.000414896 0.000436294 0)
(-0.00045776 0.000445987 0)
(-0.00049483 0.000456287 0)
(-0.000525821 0.000467165 0)
(-0.000550267 0.000478579 0)
(-0.000568195 0.000490475 0)
(-0.000579725 0.000502761 0)
(-0.000584929 0.000515149 0)
(-0.000583439 0.000527245 0)
(-0.000574603 0.000538782 0)
(-0.000558058 0.000549611 0)
(-0.000533962 0.000559628 0)
(-0.000502677 0.000568703 0)
(-0.000464433 0.000576691 0)
(-0.000419296 0.000583492 0)
(-0.000367366 0.000589095 0)
(-0.000308883 0.000593568 0)
(-0.000244177 0.00059698 0)
(-0.000173558 0.000599321 0)
(-9.73041e-05 0.000600453 0)
(-1.57903e-05 0.000600121 0)
(7.03311e-05 0.000598027 0)
(0.000160006 0.000593907 0)
(0.000251816 0.000587597 0)
(0.000344212 0.00057907 0)
(0.000435831 0.00056844 0)
(0.000525739 0.000555937 0)
(0.00061344 0.00054185 0)
(0.000698621 0.000526435 0)
(0.00078077 0.000509844 0)
(0.00085889 0.000492095 0)
(0.000931461 0.000473101 0)
(0.000996661 0.000452759 0)
(0.00105273 0.00043103 0)
(0.00109832 0.000407998 0)
(0.00113257 0.000383853 0)
(0.00115513 0.000358855 0)
(0.00116597 0.000333276 0)
(0.00116518 0.000307375 0)
(0.00115299 0.000281397 0)
(0.00112977 0.000255586 0)
(0.00109608 0.000230188 0)
(0.00105271 0.000205432 0)
(0.00100066 0.000181505 0)
(0.000940983 0.000158533 0)
(0.000874663 0.000136587 0)
(0.000802568 0.000115709 0)
(0.000725435 9.59476e-05 0)
(0.000643967 7.7375e-05 0)
(0.000558976 6.00814e-05 0)
(0.00047152 4.41624e-05 0)
(0.000382972 2.96971e-05 0)
(0.00029498 1.67413e-05 0)
(0.000209302 5.31721e-06 0)
(0.000127586 -4.5878e-06 0)
(5.11826e-05 -1.30284e-05 0)
(-1.89202e-05 -2.009e-05 0)
(-8.20403e-05 -2.58752e-05 0)
(-0.000137675 -3.04777e-05 0)
(-0.00018539 -3.39738e-05 0)
(-0.000224763 -3.6423e-05 0)
(-0.000255389 -3.78892e-05 0)
(-0.000276904 -3.84588e-05 0)
(-0.000289037 -3.82469e-05 0)
(-0.000291698 -3.73782e-05 0)
(-0.000285077 -3.59739e-05 0)
(-0.000269707 -3.41553e-05 0)
(-0.000246364 -3.20207e-05 0)
(-0.000215894 -2.95817e-05 0)
(-0.000179313 -2.68356e-05 0)
(-0.000138333 -2.38981e-05 0)
(-9.56012e-05 -2.08482e-05 0)
(-5.51217e-05 -1.66199e-05 0)
(-1.74531e-05 -8.10547e-06 0)
(-3.28489e-05 0.000222621 0)
(-0.000116936 0.000411293 0)
(-0.000186339 0.000470734 0)
(-0.000246833 0.000488821 0)
(-0.000303125 0.000499756 0)
(-0.000356084 0.000511546 0)
(-0.0004043 0.000524413 0)
(-0.000446579 0.000537729 0)
(-0.000483026 0.000551643 0)
(-0.000513419 0.000566318 0)
(-0.000537335 0.000581697 0)
(-0.000554807 0.000597692 0)
(-0.000566019 0.000614221 0)
(-0.00057117 0.000631134 0)
(-0.000569948 0.00064815 0)
(-0.000561665 0.000664917 0)
(-0.000545915 0.000681056 0)
(-0.000522829 0.000696182 0)
(-0.000492745 0.000709965 0)
(-0.000455832 0.000722165 0)
(-0.000412066 0.000732665 0)
(-0.00036146 0.000741465 0)
(-0.000304222 0.000748628 0)
(-0.000240733 0.000754201 0)
(-0.000171416 0.000758133 0)
(-9.6676e-05 0.000760245 0)
(-1.69681e-05 0.000760248 0)
(6.70515e-05 0.000757807 0)
(0.000154398 0.000752623 0)
(0.000243782 0.000744512 0)
(0.000333806 0.000733452 0)
(0.000423252 0.000719604 0)
(0.000511279 0.000703269 0)
(0.00059739 0.000684791 0)
(0.000681182 0.000664449 0)
(0.000762004 0.000642377 0)
(0.000838736 0.000618557 0)
(0.000909809 0.00059289 0)
(0.000973445 0.000565298 0)
(0.001028 0.000535807 0)
(0.00107223 0.000504586 0)
(0.00110539 0.00047192 0)
(0.00112716 0.000438161 0)
(0.00113749 0.000403685 0)
(0.00113651 0.000368867 0)
(0.00112443 0.000334086 0)
(0.00110161 0.000299715 0)
(0.00106859 0.000266109 0)
(0.00102613 0.000233571 0)
(0.000975143 0.000202326 0)
(0.000916615 0.000172519 0)
(0.000851499 0.000144238 0)
(0.000780653 0.000117552 0)
(0.000704834 9.25504e-05 0)
(0.000624771 6.93439e-05 0)
(0.000541288 4.80614e-05 0)
(0.000455437 2.88203e-05 0)
(0.000368568 1.17139e-05 0)
(0.000282294 -3.20685e-06 0)
(0.000198333 -1.5937e-05 0)
(0.000118281 -2.65341e-05 0)
(4.34431e-05 -3.51163e-05 0)
(-2.52219e-05 -4.18543e-05 0)
(-8.70335e-05 -4.69351e-05 0)
(-0.000141466 -5.05291e-05 0)
(-0.000188053 -5.27615e-05 0)
(-0.000226358 -5.37224e-05 0)
(-0.000255985 -5.34958e-05 0)
(-0.000276596 -5.2195e-05 0)
(-0.000287945 -4.99618e-05 0)
(-0.00028995 -4.6944e-05 0)
(-0.000282824 -4.32963e-05 0)
(-0.000267105 -3.92134e-05 0)
(-0.000243502 -3.49064e-05 0)
(-0.000212773 -3.05212e-05 0)
(-0.000175993 -2.61902e-05 0)
(-0.000135136 -2.20217e-05 0)
(-9.29957e-05 -1.80994e-05 0)
(-5.3341e-05 -1.37504e-05 0)
(-1.68543e-05 -6.49946e-06 0)
(-3.14583e-05 0.000255449 0)
(-0.000111935 0.000472528 0)
(-0.000178089 0.000541491 0)
(-0.000236353 0.000563429 0)
(-0.000291221 0.000577326 0)
(-0.00034291 0.000592206 0)
(-0.000390207 0.000608344 0)
(-0.000431781 0.000625063 0)
(-0.000467417 0.000642475 0)
(-0.000496985 0.000660945 0)
(-0.000520183 0.000680367 0)
(-0.00053702 0.000700582 0)
(-0.000547667 0.00072148 0)
(-0.0005524 0.000742986 0)
(-0.000551056 0.000764928 0)
(-0.000543086 0.000786926 0)
(-0.000528154 0.000808401 0)
(-0.000506365 0.000828713 0)
(-0.000477934 0.000847318 0)
(-0.000442869 0.000863875 0)
(-0.000401002 0.000878239 0)
(-0.000352257 0.000890404 0)
(-0.000296833 0.000900404 0)
(-0.000235174 0.000908248 0)
(-0.000167813 0.000913845 0)
(-9.52688e-05 0.00091699 0)
(-1.80729e-05 0.000917367 0)
(6.31086e-05 0.000914613 0)
(0.000147363 0.0009084 0)
(0.000233548 0.000898529 0)
(0.000320454 0.000885001 0)
(0.000407036 0.000868025 0)
(0.000492544 0.000847954 0)
(0.000576455 0.000825159 0)
(0.000658242 0.000799905 0)
(0.000737096 0.000772295 0)
(0.000811783 0.000742287 0)
(0.000880718 0.000709792 0)
(0.000942209 0.000674782 0)
(0.000994746 0.00063737 0)
(0.00103722 0.000597818 0)
(0.00106898 0.000556513 0)
(0.00108976 0.000513908 0)
(0.00109953 0.00047049 0)
(0.00109842 0.000426759 0)
(0.00108665 0.000383217 0)
(0.00106454 0.000340351 0)
(0.0010326 0.000298595 0)
(0.000991505 0.000258307 0)
(0.000942068 0.000219743 0)
(0.000885211 0.000183076 0)
(0.000821852 0.00014843 0)
(0.000752856 0.000115928 0)
(0.000679004 8.57127e-05 0)
(0.000601044 5.79469e-05 0)
(0.000519798 3.27893e-05 0)
(0.000436294 1.03749e-05 0)
(0.000351843 -9.20679e-06 0)
(0.000268011 -2.59145e-05 0)
(0.000186449 -3.97742e-05 0)
(0.000108685 -5.0886e-05 0)
(3.59571e-05 -5.94365e-05 0)
(-3.08145e-05 -6.56727e-05 0)
(-9.09453e-05 -6.98635e-05 0)
(-0.000143868 -7.22405e-05 0)
(-0.000189064 -7.29713e-05 0)
(-0.00022607 -7.21692e-05 0)
(-0.000254501 -6.99483e-05 0)
(-0.000274051 -6.64615e-05 0)
(-0.000284491 -6.18992e-05 0)
(-0.000285746 -5.64599e-05 0)
(-0.00027806 -5.03597e-05 0)
(-0.000262016 -4.38551e-05 0)
(-0.000238321 -3.72265e-05 0)
(-0.000207714 -3.07727e-05 0)
(-0.00017122 -2.4806e-05 0)
(-0.000130864 -1.9537e-05 0)
(-8.96229e-05 -1.48837e-05 0)
(-5.12144e-05 -1.04522e-05 0)
(-1.62086e-05 -4.65939e-06 0)
(-2.92033e-05 0.000287244 0)
(-0.000105265 0.000532011 0)
(-0.000168062 0.000610207 0)
(-0.000223807 0.000635041 0)
(-0.00027666 0.000651145 0)
(-0.000326673 0.000668576 0)
(-0.000372735 0.000687662 0)
(-0.000413357 0.000707754 0)
(-0.000447884 0.00072872 0)
(-0.000476247 0.000751071 0)
(-0.000498443 0.000774741 0)
(-0.000514462 0.000799477 0)
(-0.000524389 0.000825067 0)
(-0.000528489 0.000851383 0)
(-0.000526761 0.000878256 0)
(-0.000518917 0.000905269 0)
(-0.000504814 0.00093174 0)
(-0.000484546 0.000956888 0)
(-0.000458152 0.000980065 0)
(-0.000425398 0.00100086 0)
(-0.00038593 0.0010191 0)
(-0.000339582 0.00103471 0)
(-0.000286552 0.00104768 0)
(-0.000227346 0.00105795 0)
(-0.000162601 0.00106539 0)
(-9.29492e-05 0.00106973 0)
(-1.90001e-05 0.00107061 0)
(5.85727e-05 0.00106764 0)
(0.000138947 0.00106047 0)
(0.000221157 0.00104892 0)
(0.000304214 0.00103305 0)
(0.000387247 0.00101311 0)
(0.000469574 0.000989463 0)
(0.000550614 0.000962474 0)
(0.000629691 0.000932361 0)
(0.000705843 0.000899182 0)
(0.000777761 0.000862894 0)
(0.000843888 0.000823453 0)
(0.000902648 0.000780919 0)
(0.000952689 0.000735512 0)
(0.00099304 0.000687604 0)
(0.00102314 0.000637684 0)
(0.00104279 0.00058631 0)
(0.00105198 0.000534075 0)
(0.00105084 0.000481589 0)
(0.00103958 0.000429455 0)
(0.0010185 0.000378241 0)
(0.000988002 0.00032844 0)
(0.000948668 0.000280446 0)
(0.000901228 0.000234553 0)
(0.000846536 0.00019098 0)
(0.000785494 0.000149918 0)
(0.000718979 0.000111563 0)
(0.00064779 7.61303e-05 0)
(0.000572674 4.38325e-05 0)
(0.000494429 1.48573e-05 0)
(0.00041404 -1.06606e-05 0)
(0.000332765 -3.26394e-05 0)
(0.000252105 -5.10626e-05 0)
(0.000173636 -6.59822e-05 0)
(9.87954e-05 -7.75454e-05 0)
(2.87425e-05 -8.59914e-05 0)
(-3.56467e-05 -9.16356e-05 0)
(-9.36747e-05 -9.48049e-05 0)
(-0.000144713 -9.57783e-05 0)
(-0.000188177 -9.47479e-05 0)
(-0.000223574 -9.18525e-05 0)
(-0.000250549 -8.72427e-05 0)
(-0.000268843 -8.11348e-05 0)
(-0.00027826 -7.37989e-05 0)
(-0.000278748 -6.55379e-05 0)
(-0.000270579 -5.66904e-05 0)
(-0.000254346 -4.76081e-05 0)
(-0.000230776 -3.86208e-05 0)
(-0.000200632 -3.01375e-05 0)
(-0.000164949 -2.25079e-05 0)
(-0.000125603 -1.61403e-05 0)
(-8.55981e-05 -1.08571e-05 0)
(-4.87796e-05 -6.50131e-06 0)
(-1.55341e-05 -2.41378e-06 0)
(-2.67789e-05 0.00031905 0)
(-9.76982e-05 0.000590558 0)
(-0.000156747 0.000677103 0)
(-0.000209742 0.000704525 0)
(-0.000260099 0.00072243 0)
(-0.000307899 0.000741925 0)
(-0.000352083 0.000763571 0)
(-0.000391272 0.00078701 0)
(-0.000424402 0.000811759 0)
(-0.000451202 0.000838166 0)
(-0.000472011 0.000866223 0)
(-0.000486924 0.000895692 0)
(-0.000495976 0.000926234 0)
(-0.000499403 0.000957544 0)
(-0.000497332 0.000989301 0)
(-0.000489732 0.001021 0)
(-0.000476629 0.00105192 0)
(-0.000458091 0.0010813 0)
(-0.000433963 0.00110854 0)
(-0.000403789 0.00113324 0)
(-0.000367053 0.00115517 0)
(-0.000323515 0.00117419 0)
(-0.000273373 0.00119019 0)
(-0.000217194 0.001203 0)
(-0.000155712 0.00121239 0)
(-8.96659e-05 0.001218 0)
(-1.97285e-05 0.00121942 0)
(5.34507e-05 0.00121623 0)
(0.00012918 0.0012081 0)
(0.000206704 0.00119492 0)
(0.00028525 0.0011768 0)
(0.000364097 0.00115402 0)
(0.000442586 0.00112692 0)
(0.000520045 0.00109581 0)
(0.000595654 0.00106083 0)
(0.000668336 0.00102202 0)
(0.000736756 0.000979352 0)
(0.000799435 0.000932881 0)
(0.000854941 0.00088278 0)
(0.00090208 0.000829391 0)
(0.000940014 0.000773201 0)
(0.000968276 0.000714801 0)
(0.000986704 0.000654844 0)
(0.00099533 0.000594016 0)
(0.000994283 0.00053301 0)
(0.000983741 0.000472503 0)
(0.000963932 0.000413114 0)
(0.000935178 0.000355378 0)
(0.000897952 0.000299731 0)
(0.000852904 0.000246518 0)
(0.000800846 0.000196036 0)
(0.000742675 0.000148566 0)
(0.000679279 0.000104399 0)
(0.000611457 6.38196e-05 0)
(0.000539927 2.70875e-05 0)
(0.000465436 -5.6027e-06 0)
(0.000388904 -3.41212e-05 0)
(0.000311528 -5.8409e-05 0)
(0.000234737 -7.84659e-05 0)
(0.000160019 -9.43734e-05 0)
(8.87152e-05 -0.000106307 0)
(2.18949e-05 -0.000114552 0)
(-3.96102e-05 -0.000119468 0)
(-9.50789e-05 -0.000121431 0)
(-0.000143809 -0.000120749 0)
(-0.000185142 -0.000117649 0)
(-0.000218572 -0.000112304 0)
(-0.000243794 -0.000104923 0)
(-0.000260625 -9.5796e-05 0)
(-0.000268926 -8.52929e-05 0)
(-0.000268695 -7.38543e-05 0)
(-0.000260222 -6.1984e-05 0)
(-0.00024407 -5.01649e-05 0)
(-0.000220974 -3.88009e-05 0)
(-0.000191672 -2.83792e-05 0)
(-0.000157241 -1.91711e-05 0)
(-0.000119396 -1.16764e-05 0)
(-8.10042e-05 -5.79779e-06 0)
(-4.60274e-05 -1.69473e-06 0)
(-1.47576e-05 3.58318e-07 0)
(-2.45876e-05 0.00034922 0)
(-9.00323e-05 0.000646223 0)
(-0.000144903 0.000740271 0)
(-0.000194449 0.000769931 0)
(-0.000241907 0.000789323 0)
(-0.000287088 0.000810588 0)
(-0.000328649 0.00083446 0)
(-0.000365574 0.000860935 0)
(-0.000396838 0.000889557 0)
(-0.000421807 0.000920155 0)
(-0.000440923 0.000952567 0)
(-0.000454444 0.000986592 0)
(-0.000462506 0.00102186 0)
(-0.000465361 0.0010579 0)
(-0.000463212 0.00109418 0)
(-0.000456171 0.0011301 0)
(-0.000444346 0.00116495 0)
(-0.000427724 0.00119808 0)
(-0.000405982 0.00122897 0)
(-0.000378504 0.00125727 0)
(-0.000344679 0.00128271 0)
(-0.000304234 0.00130505 0)
(-0.000257389 0.00132406 0)
(-0.000204769 0.00133942 0)
(-0.000147201 0.00135077 0)
(-8.54965e-05 0.00135765 0)
(-2.03433e-05 0.0013596 0)
(4.76916e-05 0.0013562 0)
(0.000118088 0.00134722 0)
(0.000190304 0.0013326 0)
(0.000263754 0.00131249 0)
(0.000337808 0.00128716 0)
(0.000411788 0.00125688 0)
(0.000484922 0.00122186 0)
(0.000556276 0.00118218 0)
(0.000624718 0.00113789 0)
(0.000688949 0.00108902 0)
(0.000747604 0.00103574 0)
(0.000799408 0.00097834 0)
(0.00084332 0.000917296 0)
(0.000878619 0.000853199 0)
(0.000904916 0.000786729 0)
(0.000922091 0.00071862 0)
(0.000930193 0.000649626 0)
(0.00092934 0.000580499 0)
(0.000919666 0.000511961 0)
(0.000901325 0.000444669 0)
(0.000874546 0.000379199 0)
(0.000839715 0.000316041 0)
(0.000797426 0.000255627 0)
(0.000748466 0.000198353 0)
(0.000693733 0.000144616 0)
(0.000634107 9.47951e-05 0)
(0.000570355 4.92424e-05 0)
(0.000503133 8.23504e-06 0)
(0.00043311 -2.80297e-05 0)
(0.000361134 -5.94404e-05 0)
(0.000288335 -8.5943e-05 0)
(0.000216071 -0.00010755 0)
(0.000145743 -0.000124346 0)
(7.85828e-05 -0.000136532 0)
(1.55647e-05 -0.000144421 0)
(-4.25244e-05 -0.000148413 0)
(-9.4938e-05 -0.000148912 0)
(-0.000140898 -0.000146264 0)
(-0.000179685 -0.000140736 0)
(-0.000210791 -0.000132581 0)
(-0.000233977 -0.0001221 0)
(-0.000249148 -0.000109682 0)
(-0.000256265 -9.57997e-05 0)
(-0.000255411 -8.10318e-05 0)
(-0.000246898 -6.60382e-05 0)
(-0.000231204 -5.14367e-05 0)
(-0.00020903 -3.77332e-05 0)
(-0.000180991 -2.54302e-05 0)
(-0.00014819 -1.47401e-05 0)
(-0.00011226 -6.12603e-06 0)
(-7.58836e-05 3.08608e-07 0)
(-4.29734e-05 4.0036e-06 0)
(-1.38534e-05 3.58143e-06 0)
(-2.22923e-05 0.000376171 0)
(-8.19447e-05 0.000696077 0)
(-0.000132588 0.000797245 0)
(-0.000178305 0.000828795 0)
(-0.000222403 0.000849329 0)
(-0.000264474 0.000872251 0)
(-0.00030281 0.000898383 0)
(-0.000336589 0.000927578 0)
(-0.000365267 0.000959804 0)
(-0.000388178 0.00099449 0)
(-0.00040554 0.00103107 0)
(-0.00041758 0.00106919 0)
(-0.000424599 0.0011085 0)
(-0.000426978 0.00114849 0)
(-0.000424988 0.00118858 0)
(-0.000418786 0.00122812 0)
(-0.000408446 0.00126645 0)
(-0.000393843 0.00130299 0)
(-0.000374515 0.00133731 0)
(-0.000349765 0.00136905 0)
(-0.000318955 0.00139787 0)
(-0.000281831 0.00142342 0)
(-0.000238655 0.00144532 0)
(-0.000190119 0.00146311 0)
(-0.000137107 0.0014763 0)
(-8.0451e-05 0.00148437 0)
(-2.07831e-05 0.00148684 0)
(4.14649e-05 0.00148337 0)
(0.000105961 0.00147378 0)
(0.00017235 0.00145809 0)
(0.000240171 0.00143642 0)
(0.000308833 0.00140897 0)
(0.000377612 0.00137592 0)
(0.000445655 0.00133738 0)
(0.000511969 0.0012934 0)
(0.000575433 0.00124403 0)
(0.000634834 0.00118943 0)
(0.00068895 0.00112985 0)
(0.000736662 0.00106573 0)
(0.000777065 0.000997643 0)
(0.000809538 0.000926264 0)
(0.000833753 0.000852348 0)
(0.000849623 0.000776689 0)
(0.000857198 0.000700091 0)
(0.000856577 0.000623346 0)
(0.000847842 0.000547209 0)
(0.000831077 0.000472374 0)
(0.000806438 0.000399472 0)
(0.000774252 0.000329077 0)
(0.000735077 0.000261728 0)
(0.000689688 0.000197947 0)
(0.000638967 0.000138234 0)
(0.000583756 8.30545e-05 0)
(0.00052475 3.27898e-05 0)
(0.000462515 -1.22703e-05 0)
(0.000397629 -5.19401e-05 0)
(0.000330872 -8.61007e-05 0)
(0.000263314 -0.000114693 0)
(0.000196246 -0.000137708 0)
(0.000130966 -0.000155233 0)
(6.8587e-05 -0.000167477 0)
(9.97816e-06 -0.000174793 0)
(-4.41201e-05 -0.000177613 0)
(-9.29331e-05 -0.000176383 0)
(-0.000135622 -0.000171479 0)
(-0.000171434 -0.000163229 0)
(-0.0001999 -0.000151977 0)
(-0.000220853 -0.000138164 0)
(-0.000234282 -0.000122311 0)
(-0.000240243 -0.000105016 0)
(-0.000238925 -8.69717e-05 0)
(-0.000230651 -6.8937e-05 0)
(-0.000215813 -5.16115e-05 0)
(-0.000195003 -3.56236e-05 0)
(-0.000168654 -2.14544e-05 0)
(-0.000137857 -9.32161e-06 0)
(-0.00010423 3.78006e-07 0)
(-7.02508e-05 7.3302e-06 0)
(-3.96716e-05 1.05239e-05 0)
(-1.28685e-05 7.21461e-06 0)
(-2.00674e-05 0.000399692 0)
(-7.33977e-05 0.000739125 0)
(-0.000119552 0.000846748 0)
(-0.000161446 0.000880023 0)
(-0.00020171 0.000901589 0)
(-0.000239921 0.000926125 0)
(-0.000274507 0.000954736 0)
(-0.000304618 0.000986711 0)
(-0.000330034 0.00102216 0)
(-0.000350546 0.00106044 0)
(-0.0003662 0.00110078 0)
(-0.000376975 0.00114254 0)
(-0.000383147 0.00118523 0)
(-0.000385186 0.00122838 0)
(-0.000383454 0.00127151 0)
(-0.000378144 0.00131406 0)
(-0.000369286 0.00135545 0)
(-0.000356652 0.00139516 0)
(-0.000339698 0.00143275 0)
(-0.000317696 0.00146778 0)
(-0.00029003 0.00149982 0)
(-0.00025649 0.00152837 0)
(-0.000217392 0.00155291 0)
(-0.000173469 0.00157287 0)
(-0.000125617 0.00158769 0)
(-7.46195e-05 0.00159683 0)
(-2.09961e-05 0.00159987 0)
(3.49796e-05 0.00159654 0)
(9.31405e-05 0.00158672 0)
(0.000153262 0.0015704 0)
(0.000214949 0.00154765 0)
(0.000277609 0.00151857 0)
(0.00034048 0.00148322 0)
(0.000402668 0.00144163 0)
(0.000463189 0.00139384 0)
(0.000520992 0.00133998 0)
(0.000574986 0.00128027 0)
(0.000624102 0.00121508 0)
(0.000667367 0.00114495 0)
(0.000703992 0.00107054 0)
(0.000733439 0.000992583 0)
(0.00075543 0.000911898 0)
(0.000769896 0.000829322 0)
(0.000776887 0.000745701 0)
(0.00077647 0.000661858 0)
(0.000768685 0.000578585 0)
(0.000753559 0.000496626 0)
(0.000731203 0.000416688 0)
(0.000701912 0.00033945 0)
(0.000666225 0.000265578 0)
(0.000624894 0.000195708 0)
(0.000578756 0.000130435 0)
(0.000528574 7.02655e-05 0)
(0.00047494 1.56019e-05 0)
(0.000418313 -3.32717e-05 0)
(0.000359193 -7.61532e-05 0)
(0.000298299 -0.000112906 0)
(0.000236653 -0.000143429 0)
(0.000175465 -0.000167692 0)
(0.000115916 -0.000185769 0)
(5.89745e-05 -0.000197894 0)
(5.38985e-06 -0.00020445 0)
(-4.41448e-05 -0.000205926 0)
(-8.88254e-05 -0.000202811 0)
(-0.000127757 -0.000195542 0)
(-0.000160188 -0.000184503 0)
(-0.000185724 -0.000170135 0)
(-0.000204305 -0.000152996 0)
(-0.000215996 -0.000133761 0)
(-0.000220931 -0.00011317 0)
(-0.000219358 -9.20315e-05 0)
(-0.000211591 -7.11537e-05 0)
(-0.000197959 -5.1248e-05 0)
(-0.000178914 -3.30424e-05 0)
(-0.000154658 -1.70131e-05 0)
(-0.000126255 -3.42392e-06 0)
(-9.53057e-05 7.36253e-06 0)
(-6.40582e-05 1.48501e-05 0)
(-3.60721e-05 1.75122e-05 0)
(-1.17736e-05 1.11339e-05 0)
(-1.79073e-05 0.000418545 0)
(-6.43469e-05 0.000773828 0)
(-0.000105675 0.000886784 0)
(-0.00014374 0.000921846 0)
(-0.000179795 0.00094468 0)
(-0.00021336 0.000970801 0)
(-0.000243504 0.00100164 0)
(-0.000269676 0.00103632 0)
(-0.000291656 0.0010746 0)
(-0.000309561 0.00111577 0)
(-0.00032342 0.00115906 0)
(-0.000333087 0.00120376 0)
(-0.000338689 0.00124926 0)
(-0.000340602 0.00129506 0)
(-0.000339193 0.00134074 0)
(-0.000334699 0.00138588 0)
(-0.000327164 0.00143 0)
(-0.000316345 0.0014726 0)
(-0.000301684 0.00151319 0)
(-0.000282468 0.00155122 0)
(-0.00025812 0.00158614 0)
(-0.000228474 0.00161734 0)
(-0.000193874 0.00164417 0)
(-0.000155054 0.00166601 0)
(-0.000112856 0.00168227 0)
(-6.79658e-05 0.00169245 0)
(-2.07659e-05 0.00169622 0)
(2.86084e-05 0.00169335 0)
(8.01037e-05 0.00168371 0)
(0.000133562 0.00166725 0)
(0.000188612 0.00164393 0)
(0.000244652 0.00161372 0)
(0.00030091 0.00157658 0)
(0.000356515 0.0015325 0)
(0.000410548 0.00148156 0)
(0.000462071 0.00142391 0)
(0.000510135 0.00135988 0)
(0.000553819 0.00128993 0)
(0.000592281 0.00121465 0)
(0.000624837 0.00113476 0)
(0.00065102 0.00105107 0)
(0.000670593 0.000964415 0)
(0.000683506 0.000875689 0)
(0.000689796 0.000785772 0)
(0.000689505 0.000695524 0)
(0.000682636 0.000605778 0)
(0.000669191 0.000517344 0)
(0.000649262 0.000431021 0)
(0.00062313 0.000347606 0)
(0.000591314 0.000267874 0)
(0.000554516 0.000192562 0)
(0.000513489 0.000122314 0)
(0.000468883 5.76634e-05 0)
(0.000421169 -9.89241e-07 0)
(0.000370713 -5.33389e-05 0)
(0.000317948 -9.91584e-05 0)
(0.00026355 -0.000138255 0)
(0.000208483 -0.000170495 0)
(0.000153863 -0.000195815 0)
(0.000100724 -0.000214298 0)
(4.9869e-05 -0.000226189 0)
(1.9121e-06 -0.000231912 0)
(-4.25126e-05 -0.000231992 0)
(-8.25765e-05 -0.000226989 0)
(-0.000117337 -0.000217407 0)