/*--------------------------------*- C++ -*----------------------------------*\
| =========                 |                                                 |
| \\      /  F ield         | OpenFOAM: The Open Source CFD Toolbox           |
|  \\    /   O peration     | Version:  2412                                  |
|   \\  /    A nd           | Website:  www.openfoam.com                      |
|    \\/     M anipulation  |                                                 |
\*---------------------------------------------------------------------------*/
FoamFile
{
    version     2.0;
    format      ascii;
    arch        "LSB;label=32;scalar=64";
    class       surfaceScalarField;
    location    "3.15";
    object      alphaPhi0.water;
}
// * * * * * * * * * * * * * * * * * * * * * * * * * * * * * * * * * * * * * //

dimensions      [0 3 -1 0 0 0 0];

oriented        oriented;

internalField   nonuniform List<scalar> 
12640
(
9.41792e-06
-9.41789e-06
2.35647e-05
-1.41469e-05
3.58085e-05
-1.22438e-05
4.69017e-05
-1.10932e-05
5.72262e-05
-1.03245e-05
6.67558e-05
-9.52941e-06
7.54342e-05
-8.6782e-06
8.328e-05
-7.84568e-06
9.03037e-05
-7.02382e-06
9.65412e-05
-6.23772e-06
0.000102121
-5.58015e-06
0.000107156
-5.03439e-06
0.000111739
-4.58271e-06
0.000115825
-4.08708e-06
0.000119496
-3.67088e-06
0.00012268
-3.1836e-06
0.000125519
-2.83951e-06
0.000128011
-2.49217e-06
0.000130169
-2.15733e-06
0.000131995
-1.8269e-06
0.000133402
-1.40687e-06
0.000134373
-9.71074e-07
0.000134817
-4.44262e-07
0.000134545
2.72946e-07
0.000133465
1.0793e-06
0.000131481
1.98388e-06
0.00012839
3.09159e-06
0.000124176
4.21364e-06
0.000118781
5.39515e-06
0.00011222
6.56039e-06
0.000104453
7.76679e-06
9.53366e-05
9.11612e-06
8.47273e-05
1.06097e-05
7.28857e-05
1.1842e-05
6.01874e-05
1.26974e-05
4.70274e-05
1.31595e-05
3.3745e-05
1.32825e-05
2.04289e-05
1.33161e-05
7.22447e-06
1.3204e-05
-5.89845e-06
1.31226e-05
-1.90889e-05
1.31906e-05
-3.25544e-05
1.34654e-05
-4.6293e-05
1.37388e-05
-6.03453e-05
1.4053e-05
-7.45507e-05
1.42059e-05
-8.85726e-05
1.40218e-05
-0.000102096
1.35228e-05
-0.000114614
1.25185e-05
-0.000125664
1.10502e-05
-0.000135009
9.34476e-06
-0.000142796
7.78739e-06
-0.000149095
6.29922e-06
-0.000153828
4.7322e-06
-0.000157045
3.21747e-06
-0.000158742
1.69709e-06
-0.000159014
2.72001e-07
-0.000157931
-1.08238e-06
-0.000155726
-2.20564e-06
-0.000152577
-3.14879e-06
-0.000148598
-3.97887e-06
-0.000143911
-4.68681e-06
-0.000138645
-5.26726e-06
-0.000132849
-5.79555e-06
-0.000126635
-6.21425e-06
-0.000120016
-6.61942e-06
-0.000113121
-6.89439e-06
-0.000105895
-7.2264e-06
-9.85027e-05
-7.39314e-06
-9.10282e-05
-7.47463e-06
-8.3496e-05
-7.53222e-06
-7.58622e-05
-7.63393e-06
-6.80516e-05
-7.8109e-06
-6.00628e-05
-7.98913e-06
-5.19223e-05
-8.14068e-06
-4.36067e-05
-8.31584e-06
-3.51129e-05
-8.49417e-06
-2.64544e-05
-8.65866e-06
-1.71968e-05
-9.25747e-06
-6.46259e-06
-1.0734e-05
-6.46245e-06
9.30652e-06
-1.87246e-05
2.34617e-05
-2.8302e-05
3.57006e-05
-2.44824e-05
4.67528e-05
-2.21453e-05
5.70111e-05
-2.05826e-05
6.64404e-05
-1.89586e-05
7.5036e-05
-1.72738e-05
8.28561e-05
-1.5666e-05
8.99693e-05
-1.41373e-05
9.64889e-05
-1.27575e-05
0.000102446
-1.15369e-05
0.000107926
-1.05152e-05
0.00011292
-9.57572e-06
0.000117527
-8.69524e-06
0.000121783
-7.92687e-06
0.000125708
-7.10898e-06
0.000129325
-6.45672e-06
0.000132574
-5.74149e-06
0.000135491
-5.07419e-06
0.00013806
-4.39547e-06
0.000140284
-3.63197e-06
0.000142085
-2.77183e-06
0.000143406
-1.76601e-06
0.000144257
-5.78737e-07
0.000144502
8.3416e-07
0.000143988
2.49684e-06
0.000142682
4.3982e-06
0.000140346
6.54865e-06
0.000136797
8.9442e-06
0.000131816
1.15405e-05
0.000125264
1.43195e-05
0.00011717
1.72099e-05
0.000107681
2.00978e-05
9.66287e-05
2.28933e-05
8.37969e-05
2.55291e-05
6.91359e-05
2.78205e-05
5.26696e-05
2.97482e-05
3.46982e-05
3.12871e-05
1.54859e-05
3.24166e-05
-4.55669e-06
3.31654e-05
-2.48942e-05
3.35284e-05
-4.49444e-05
3.35163e-05
-6.43e-05
3.30949e-05
-8.24428e-05
3.21954e-05
-9.90332e-05
3.07959e-05
-0.000113891
2.88796e-05
-0.000126866
2.64974e-05
-0.000138091
2.37432e-05
-0.0001477
2.06596e-05
-0.000155715
1.73591e-05
-0.000161959
1.40315e-05
-0.000166364
1.07044e-05
-0.000169112
7.48063e-06
-0.000170273
4.37836e-06
-0.000170169
1.59335e-06
-0.00016883
-1.06784e-06
-0.000166445
-3.4667e-06
-0.000163122
-5.52884e-06
-0.000158904
-7.36682e-06
-0.000153964
-8.91912e-06
-0.000148359
-1.02915e-05
-0.000142185
-1.14414e-05
-0.000135503
-1.24774e-05
-0.000128476
-1.32412e-05
-0.000121144
-1.39508e-05
-0.00011368
-1.43585e-05
-0.000106082
-1.48247e-05
-9.83962e-05
-1.50786e-05
-9.06163e-05
-1.52539e-05
-8.28057e-05
-1.53425e-05
-7.49565e-05
-1.54832e-05
-6.70669e-05
-1.57003e-05
-5.91259e-05
-1.59298e-05
-5.10782e-05
-1.61881e-05
-4.28819e-05
-1.65122e-05
-3.45299e-05
-1.68459e-05
-2.60014e-05
-1.71869e-05
-1.67974e-05
-1.84615e-05
-6.12875e-06
-2.14022e-05
-1.25912e-05
9.47176e-06
-2.81964e-05
2.44419e-05
-4.3272e-05
3.72933e-05
-3.73339e-05
4.87267e-05
-3.35789e-05
5.92115e-05
-3.10676e-05
6.87493e-05
-2.84966e-05
7.73474e-05
-2.58719e-05
8.5074e-05
-2.33927e-05
9.20064e-05
-2.10696e-05
9.82063e-05
-1.89574e-05
0.000103863
-1.71935e-05
0.000108971
-1.56238e-05
0.000113636
-1.42409e-05
0.000117903
-1.29629e-05
0.000121811
-1.18358e-05
0.000125418
-1.07154e-05
0.000128663
-9.70293e-06
0.000131648
-8.72605e-06
0.000134351
-7.77812e-06
0.0001367
-6.74557e-06
0.000138745
-5.67771e-06
0.000140427
-4.45653e-06
0.000141689
-3.02889e-06
0.000142411
-1.29899e-06
0.000142472
7.71456e-07
0.000141752
3.2166e-06
0.000140085
6.06546e-06
0.000137333
9.30034e-06
0.000133331
1.29455e-05
0.000127922
1.69488e-05
0.000121139
2.11018e-05
0.000112819
2.55296e-05
0.000103064
2.98534e-05
9.18167e-05
3.41409e-05
7.90055e-05
3.83396e-05
6.47493e-05
4.20767e-05
4.90384e-05
4.54597e-05
3.21442e-05
4.81819e-05
1.42499e-05
5.03108e-05
-4.33371e-06
5.17497e-05
-2.32502e-05
5.24453e-05
-4.19678e-05
5.2233e-05
-6.01394e-05
5.12655e-05
-7.74627e-05
4.95185e-05
-9.36231e-05
4.69561e-05
-0.000108391
4.36471e-05
-0.000121677
3.97829e-05
-0.000133395
3.54617e-05
-0.000143524
3.07885e-05
-0.000152006
2.58401e-05
-0.000158705
2.07307e-05
-0.000163725
1.57245e-05
-0.000167009
1.0765e-05
-0.000168828
6.19683e-06
-0.000169011
1.77603e-06
-0.000167906
-2.17271e-06
-0.000165701
-5.67116e-06
-0.000162432
-8.79642e-06
-0.000158395
-1.14036e-05
-0.000153541
-1.37719e-05
-0.000148047
-1.57847e-05
-0.000141996
-1.74918e-05
-0.000135482
-1.89901e-05
-0.000128604
-2.0119e-05
-0.000121454
-2.10997e-05
-0.000114027
-2.17847e-05
-0.00010652
-2.23318e-05
-9.89049e-05
-2.26927e-05
-9.12381e-05
-2.29201e-05
-8.34927e-05
-2.30877e-05
-7.57779e-05
-2.31975e-05
-6.79819e-05
-2.34956e-05
-6.00625e-05
-2.38486e-05
-5.19902e-05
-2.42602e-05
-4.37497e-05
-2.47524e-05
-3.5308e-05
-2.52876e-05
-2.65759e-05
-2.5919e-05
-1.70301e-05
-2.80068e-05
-5.94011e-06
-3.24922e-05
-1.85315e-05
9.34102e-06
-3.75374e-05
2.5435e-05
-5.93662e-05
3.91814e-05
-5.10808e-05
5.11004e-05
-4.54985e-05
6.17926e-05
-4.17601e-05
7.13876e-05
-3.80915e-05
7.98932e-05
-3.43774e-05
8.74228e-05
-3.09225e-05
9.41306e-05
-2.77779e-05
0.000100149
-2.49762e-05
0.000105582
-2.26269e-05
0.000110576
-2.06176e-05
0.00011514
-1.88059e-05
0.000119293
-1.71156e-05
0.000123069
-1.56127e-05
0.000126551
-1.41963e-05
0.000129721
-1.28754e-05
0.000132619
-1.16245e-05
0.000135259
-1.04181e-05
0.000137675
-9.16243e-06
0.000139745
-7.74722e-06
0.000141541
-6.25072e-06
0.000142896
-4.38325e-06
0.000143884
-2.286e-06
0.000144206
4.48449e-07
0.000143742
3.68111e-06
0.000142343
7.46414e-06
0.000139799
1.18443e-05
0.000135972
1.67735e-05
0.00013073
2.21919e-05
0.000123896
2.79361e-05
0.000115508
3.39166e-05
0.000105332
4.00291e-05
9.34264e-05
4.60468e-05
8.00105e-05
5.17562e-05
6.51646e-05
5.69233e-05
4.91077e-05
6.15163e-05
3.20692e-05
6.52207e-05
1.43341e-05
6.80461e-05
-3.92207e-06
7.0006e-05
-2.24469e-05
7.09702e-05
-4.10064e-05
7.07928e-05
-5.92745e-05
6.95342e-05
-7.69962e-05
6.72406e-05
-9.38253e-05
6.37854e-05
-0.000109484
5.93062e-05
-0.00012364
5.39395e-05
-0.000136103
4.7925e-05
-0.000146748
4.1433e-05
-0.000155543
3.46356e-05
-0.000162484
2.76723e-05
-0.000167467
2.07074e-05
-0.000170759
1.40572e-05
-0.000172233
7.67037e-06
-0.000172284
1.82766e-06
-0.000170973
-3.48391e-06
-0.000168468
-8.1756e-06
-0.000165124
-1.21401e-05
-0.000160696
-1.58316e-05
-0.000155614
-1.8854e-05
-0.000149827
-2.15729e-05
-0.000143518
-2.38014e-05
-0.000136804
-2.57049e-05
-0.000129723
-2.72007e-05
-0.000122385
-2.84389e-05
-0.000114811
-2.93602e-05
-0.000107113
-3.003e-05
-9.93602e-05
-3.04465e-05
-9.16036e-05
-3.06774e-05
-8.3834e-05
-3.08579e-05
-7.61035e-05
-3.09282e-05
-6.83497e-05
-3.12493e-05
-6.05084e-05
-3.169e-05
-5.25203e-05
-3.22485e-05
-4.43201e-05
-3.29525e-05
-3.58453e-05
-3.37624e-05
-2.69575e-05
-3.48063e-05
-1.70525e-05
-3.7912e-05
-5.38607e-06
-4.41584e-05
-2.39172e-05
9.05022e-06
-4.65877e-05
2.67811e-05
-7.70976e-05
4.18855e-05
-6.61858e-05
5.45133e-05
-5.81267e-05
6.5504e-05
-5.27507e-05
7.50655e-05
-4.76529e-05
8.33658e-05
-4.26778e-05
9.06455e-05
-3.82025e-05
9.70081e-05
-3.4141e-05
0.000102701
-3.0669e-05
0.000107914
-2.78401e-05
0.000112707
-2.54105e-05
0.000117067
-2.3166e-05
0.00012111
-2.11597e-05
0.000124767
-1.92702e-05
0.000128116
-1.75449e-05
0.000131244
-1.60028e-05
0.000134125
-1.45053e-05
0.000136807
-1.30988e-05
0.000139276
-1.16296e-05
0.000141666
-1.01376e-05
0.00014376
-8.34627e-06
0.000145668
-6.28966e-06
0.000146951
-3.56882e-06
0.000147847
-4.48878e-07
0.000147946
3.5838e-06
0.000147132
8.27822e-06
0.000145149
1.38276e-05
0.000141829
2.00926e-05
0.000136984
2.7036e-05
0.000130476
3.44435e-05
0.000122068
4.2325e-05
0.000111701
5.03961e-05
9.95117e-05
5.82362e-05
8.55568e-05
6.57105e-05
6.99901e-05
7.24896e-05
5.31222e-05
7.83839e-05
3.50985e-05
8.32436e-05
1.63016e-05
8.68429e-05
-3.02371e-06
8.93318e-05
-2.2675e-05
9.06218e-05
-4.2386e-05
9.0504e-05
-6.17938e-05
8.89423e-05
-8.06249e-05
8.60722e-05
-9.85062e-05
8.16672e-05
-0.00011506
7.58603e-05
-0.000130036
6.89158e-05
-0.000143083
6.09722e-05
-0.000154081
5.24311e-05
-0.000162945
4.34995e-05
-0.000169733
3.44598e-05
-0.00017444
2.54142e-05
-0.000177238
1.68554e-05
-0.000178366
8.79818e-06
-0.000177925
1.38587e-06
-0.000176045
-5.36448e-06
-0.000173046
-1.11759e-05
-0.000168889
-1.62972e-05
-0.000164021
-2.06996e-05
-0.000158438
-2.44378e-05
-0.000152275
-2.77355e-05
-0.000145644
-3.0432e-05
-0.000138606
-3.27423e-05
-0.000131207
-3.4599e-05
-0.000123548
-3.60976e-05
-0.000115741
-3.71659e-05
-0.000107804
-3.79667e-05
-9.98616e-05
-3.8388e-05
-9.19268e-05
-3.8612e-05
-8.4104e-05
-3.86802e-05
-7.64065e-05
-3.86253e-05
-6.87712e-05
-3.88846e-05
-6.10861e-05
-3.93752e-05
-5.32581e-05
-4.00763e-05
-4.51556e-05
-4.10548e-05
-3.66551e-05
-4.22628e-05
-2.75313e-05
-4.39301e-05
-1.69967e-05
-4.84463e-05
-4.48287e-06
-5.66723e-05
-2.83999e-05
8.38475e-06
-5.49728e-05
2.85421e-05
-9.72553e-05
4.56921e-05
-8.33358e-05
5.93329e-05
-7.17674e-05
7.06042e-05
-6.40217e-05
8.00123e-05
-5.70613e-05
8.79014e-05
-5.05675e-05
9.46468e-05
-4.4948e-05
0.000100494
-3.99888e-05
0.000105748
-3.59217e-05
0.000110711
-3.28043e-05
0.000115198
-2.98974e-05
0.000119374
-2.73425e-05
0.0001232
-2.49849e-05
0.000126779
-2.28491e-05
0.000130069
-2.0835e-05
0.000133067
-1.9e-05
0.000135934
-1.73722e-05
0.000138677
-1.58435e-05
0.000141387
-1.43395e-05
0.000143895
-1.26447e-05
0.000146372
-1.08256e-05
0.000148658
-8.57456e-06
0.000150758
-5.6701e-06
0.000152222
-1.91476e-06
0.000153117
2.68755e-06
0.00015312
8.27393e-06
0.000152005
1.49426e-05
0.000149453
2.26444e-05
0.000145167
3.13205e-05
0.000139027
4.05837e-05
0.000130753
5.06001e-05
0.000120288
6.08611e-05
0.000107625
7.08976e-05
9.29419e-05
8.03937e-05
7.64579e-05
8.89728e-05
5.85114e-05
9.63308e-05
3.9283e-05
0.000102472
1.91368e-05
0.000106989
-1.77579e-06
0.000110244
-2.29273e-05
0.000111773
-4.42983e-05
0.000111875
-6.5335e-05
0.000109979
-8.56787e-05
0.000106416
-0.000104944
0.000100932
-0.000122674
9.35905e-05
-0.000138531
8.47734e-05
-0.000152265
7.47058e-05
-0.000163653
6.38195e-05
-0.000172585
5.2432e-05
-0.00017916
4.10344e-05
-0.000183493
2.9747e-05
-0.000185724
1.90865e-05
-0.000186075
9.14823e-06
-0.000184762
7.34667e-08
-0.000182176
-7.9504e-06
-0.000178432
-1.49197e-05
-0.00017373
-2.0999e-05
-0.000168239
-2.61907e-05
-0.000162061
-3.06156e-05
-0.000155386
-3.441e-05
-0.000148302
-3.75156e-05
-0.00014082
-4.02236e-05
-0.000132995
-4.24241e-05
-0.000125001
-4.40922e-05
-0.000116782
-4.53849e-05
-0.000108556
-4.6193e-05
-0.000100305
-4.66387e-05
-9.22741e-05
-4.6643e-05
-8.43516e-05
-4.66025e-05
-7.66497e-05
-4.6327e-05
-6.92308e-05
-4.63037e-05
-6.17984e-05
-4.68074e-05
-5.42364e-05
-4.76379e-05
-4.63478e-05
-4.89435e-05
-3.79014e-05
-5.07088e-05
-2.84337e-05
-5.33982e-05
-1.68143e-05
-6.00659e-05
-3.01886e-06
-7.04677e-05
-3.1419e-05
6.99758e-06
-6.19706e-05
3.07087e-05
-0.000120966
5.09603e-05
-0.000103587
6.60248e-05
-8.68318e-05
7.7468e-05
-7.54652e-05
8.63724e-05
-6.59661e-05
9.35642e-05
-5.77598e-05
9.9499e-05
-5.08826e-05
0.000104642
-4.51322e-05
0.000109507
-4.07864e-05
0.000113992
-3.72893e-05
0.000118238
-3.41437e-05
0.000122157
-3.12615e-05
0.000125807
-2.86364e-05
0.000129171
-2.62118e-05
0.000132295
-2.39601e-05
0.000135187
-2.1891e-05
0.000138
-2.01853e-05
0.000140683
-1.85267e-05
0.000143455
-1.71124e-05
0.000146297
-1.54874e-05
0.000149313
-1.38444e-05
0.000152127
-1.13902e-05
0.000154832
-8.37569e-06
0.000157417
-4.49854e-06
0.000159391
7.13977e-07
0.000160502
7.16309e-06
0.000160428
1.50158e-05
0.00015883
2.42428e-05
0.00015546
3.4691e-05
0.000149838
4.62053e-05
0.000141762
5.86763e-05
0.000131167
7.14548e-05
0.00011792
8.41444e-05
0.00010249
9.58249e-05
8.48945e-05
0.000106569
6.54811e-05
0.000115744
4.46136e-05
0.000123339
2.26919e-05
0.00012891
-2.20323e-08
0.000132958
-2.31153e-05
0.000134867
-4.64824e-05
0.000135243
-6.95285e-05
0.000133026
-9.18174e-05
0.000128705
-0.000112891
0.000122006
-0.000132127
0.000112828
-0.000149269
0.000101916
-0.000163853
8.92899e-05
-0.000175647
7.56131e-05
-0.000184745
6.15299e-05
-0.000191017
4.73066e-05
-0.000194749
3.34801e-05
-0.000196201
2.05383e-05
-0.000195635
8.58211e-06
-0.00019331
-2.25093e-06
-0.000189679
-1.15816e-05
-0.000185022
-1.95775e-05
-0.000179514
-2.65078e-05
-0.000173259
-3.24465e-05
-0.00016635
-3.7525e-05
-0.00015917
-4.15909e-05
-0.000151444
-4.52421e-05
-0.00014346
-4.82086e-05
-0.000135185
-5.06999e-05
-0.000126634
-5.26427e-05
-0.000118041
-5.39784e-05
-0.000109413
-5.48199e-05
-0.000100869
-5.51831e-05
-9.24849e-05
-5.50268e-05
-8.44725e-05
-5.46146e-05
-7.68819e-05
-5.39177e-05
-6.9652e-05
-5.35334e-05
-6.26094e-05
-5.38497e-05
-5.55351e-05
-5.47123e-05
-4.80631e-05
-5.64156e-05
-3.98066e-05
-5.89653e-05
-2.97838e-05
-6.34212e-05
-1.64901e-05
-7.33597e-05
-7.16822e-07
-8.62405e-05
-3.2136e-05
4.40399e-06
-6.63744e-05
3.33471e-05
-0.000149909
5.8385e-05
-0.000128625
7.54402e-05
-0.000103887
8.67093e-05
-8.67346e-05
9.46041e-05
-7.38611e-05
0.000100479
-6.36352e-05
0.000105268
-5.56709e-05
0.000109451
-4.93156e-05
0.000113603
-4.49393e-05
0.000117657
-4.13438e-05
0.000121585
-3.80728e-05
0.000125344
-3.50191e-05
0.000128844
-3.21358e-05
0.000132032
-2.94e-05
0.000134974
-2.69024e-05
0.000137709
-2.46263e-05
0.000140315
-2.27922e-05
0.000142995
-2.12069e-05
0.000145872
-1.99895e-05
0.000149125
-1.87426e-05
0.000152388
-1.71053e-05
0.000155988
-1.49867e-05
0.000159745
-1.21324e-05
0.00016332
-8.07538e-06
0.000166692
-2.65908e-06
0.000169263
4.59334e-06
0.000170669
1.36102e-05
0.000170483
2.44292e-05
0.000168194
3.69793e-05
0.000163291
5.1107e-05
0.000155548
6.64201e-05
0.000144673
8.23303e-05
0.000130988
9.78291e-05
0.000114331
0.000112482
9.52381e-05
0.000125662
7.40257e-05
0.000136956
5.12462e-05
0.000146119
2.71228e-05
0.000153035
2.19873e-06
0.000157883
-2.3207e-05
0.000160273
-4.90541e-05
0.00016109
-7.4628e-05
0.0001586
-9.9345e-05
0.000153422
-0.000122717
0.000145378
-0.000143923
0.000134034
-0.000162698
0.000120691
-0.000178402
0.000104994
-0.000190877
8.80881e-05
-0.000199906
7.05599e-05
-0.000205722
5.31227e-05
-0.000208628
3.63861e-05
-0.000208863
2.07735e-05
-0.000206988
6.70778e-06
-0.000203381
-5.85809e-06
-0.000198551
-1.64104e-05
-0.0001926
-2.55286e-05
-0.000186084
-3.30228e-05
-0.000178956
-3.95739e-05
-0.000171388
-4.50924e-05
-0.000163348
-4.96307e-05
-0.000155098
-5.34917e-05
-0.000146545
-5.67606e-05
-0.00013773
-5.95151e-05
-0.000128657
-6.17149e-05
-0.000119442
-6.31935e-05
-0.000110277
-6.39849e-05
-0.000101332
-6.41275e-05
-9.2627e-05
-6.37313e-05
-8.4459e-05
-6.27823e-05
-7.68076e-05
-6.15691e-05
-6.98982e-05
-6.04426e-05
-6.34702e-05
-6.02777e-05
-5.71937e-05
-6.09891e-05
-5.05812e-05
-6.30282e-05
-4.26589e-05
-6.68876e-05
-3.17891e-05
-7.42906e-05
-1.5875e-05
-8.92732e-05
2.28424e-06
-0.000104399
-2.98522e-05
2.824e-07
-6.66567e-05
3.65121e-05
-0.000186139
6.91197e-05
-0.000161233
8.88e-05
-0.000123568
9.91828e-05
-9.71175e-05
0.000104897
-7.95752e-05
0.000108575
-6.73131e-05
0.000111605
-5.87021e-05
0.000114679
-5.239e-05
0.000118062
-4.83217e-05
0.000121697
-4.49788e-05
0.000125405
-4.17804e-05
0.000129017
-3.86321e-05
0.000132344
-3.54623e-05
0.000135388
-3.24454e-05
0.00013808
-2.95928e-05
0.000140524
-2.70708e-05
0.000142842
-2.51104e-05
0.000145336
-2.37004e-05
0.000148263
-2.29135e-05
0.000151535
-2.20154e-05
0.000155542
-2.11137e-05
0.000160061
-1.95088e-05
0.000164999
-1.70718e-05
0.000170135
-1.32108e-05
0.000175223
-7.74663e-06
0.000179657
1.59281e-07
0.000182958
1.03089e-05
0.000184568
2.28191e-05
0.000183737
3.78101e-05
0.000179974
5.48693e-05
0.00017285
7.35441e-05
0.000161736
9.34434e-05
0.000147227
0.000112338
0.000129072
0.000130637
0.000108029
0.000146705
8.45774e-05
0.000160408
5.92407e-05
0.000171456
3.27431e-05
0.000179532
5.12926e-06
0.000185497
-2.30469e-05
0.000188449
-5.19398e-05
0.000189983
-8.06954e-05
0.000187356
-0.000108639
0.000181366
-0.000134895
0.000171635
-0.000158681
0.00015782
-0.00017947
0.000141481
-0.000196533
0.000122056
-0.000209651
0.000101207
-0.000218709
7.96178e-05
-0.000223806
5.82197e-05
-0.000225402
3.7982e-05
-0.000224094
1.94658e-05
-0.000220394
3.00686e-06
-0.000215058
-1.11937e-05
-0.000208683
-2.27857e-05
-0.000201384
-3.28283e-05
-0.000193526
-4.08806e-05
-0.000185356
-4.77451e-05
-0.00017685
-5.35983e-05
-0.000168139
-5.83418e-05
-0.000159249
-6.23828e-05
-0.000150084
-6.59257e-05
-0.00014064
-6.896e-05
-0.000130947
-7.14073e-05
-0.00012106
-7.30805e-05
-0.000111159
-7.38859e-05
-0.000101511
-7.37756e-05
-9.23938e-05
-7.28483e-05
-8.39044e-05
-7.12719e-05
-7.63156e-05
-6.91577e-05
-6.9816e-05
-6.69417e-05
-6.42856e-05
-6.58083e-05
-5.92797e-05
-6.59949e-05
-5.41394e-05
-6.81682e-05
-4.71157e-05
-7.3911e-05
-3.49344e-05
-8.64719e-05
-1.43609e-05
-0.000109847
8.31446e-06
-0.000127075
-2.1537e-05
-9.78603e-06
-5.68708e-05
3.66401e-05
-0.000232566
8.33149e-05
-0.000207907
0.00010792
-0.000148173
0.0001159
-0.000105097
0.000117461
-8.11363e-05
0.000117638
-6.74906e-05
0.000118179
-5.9242e-05
0.000119914
-5.41263e-05
0.000122603
-5.10097e-05
0.000125883
-4.8261e-05
0.000129541
-4.5437e-05
0.000133139
-4.22311e-05
0.00013651
-3.88313e-05
0.000139282
-3.52195e-05
0.000141612
-3.19232e-05
0.000143598
-2.90565e-05
0.000145514
-2.70267e-05
0.000147738
-2.59245e-05
0.000150545
-2.57236e-05
0.000154417
-2.58897e-05
0.000158817
-2.55138e-05
0.000164199
-2.48903e-05
0.000170427
-2.32993e-05
0.000177487
-2.02706e-05
0.000184508
-1.47678e-05
0.000191527
-6.86042e-06
0.000197519
4.31764e-06
0.000201544
1.87947e-05
0.000203046
3.63081e-05
0.000200813
5.71022e-05
0.00019425
8.0107e-05
0.000183146
0.000104547
0.000167459
0.000128025
0.000147577
0.00015052
0.000123878
0.000170405
9.75036e-05
0.000186783
6.9397e-05
0.000199562
3.97319e-05
0.000209197
8.95896e-06
0.00021627
-2.25692e-05
0.000219977
-5.53049e-05
0.000222719
-8.80319e-05
0.000220083
-0.000120007
0.000213341
-0.000149854
0.000201482
-0.000176956
0.000184922
-0.000200304
0.000164829
-0.000219124
0.000140876
-0.000232992
0.000115074
-0.000241777
8.84029e-05
-0.000245762
6.22045e-05
-0.000245488
3.77071e-05
-0.000241875
1.58523e-05
-0.000235632
-3.23628e-06
-0.00022829
-1.85362e-05
-0.000219763
-3.13131e-05
-0.000210891
-4.17005e-05
-0.000201925
-4.98465e-05
-0.000192591
-5.70789e-05
-0.000183037
-6.31526e-05
-0.000173403
-6.79752e-05
-0.0001639
-7.18865e-05
-0.000154193
-7.56328e-05
-0.000144047
-7.91054e-05
-0.00013359
-8.18643e-05
-0.000122717
-8.39535e-05
-0.000111932
-8.46712e-05
-0.000101431
-8.42763e-05
-9.16258e-05
-8.26532e-05
-8.27282e-05
-8.01697e-05
-7.50521e-05
-7.68336e-05
-6.89595e-05
-7.30344e-05
-6.46605e-05
-7.01075e-05
-6.17133e-05
-6.89418e-05
-5.92232e-05
-7.06588e-05
-5.41805e-05
-7.89542e-05
-3.93043e-05
-0.000101348
-9.18087e-06
-0.00013997
2.01285e-05
-0.000156384
-1.4091e-06
-2.90917e-05
-2.77792e-05
3.08453e-05
-0.000292503
9.8632e-05
-0.000275694
0.000133057
-0.000182598
0.000138194
-0.000110235
0.000132643
-7.5585e-05
0.000126967
-6.1815e-05
0.000124233
-5.65081e-05
0.000124684
-5.45779e-05
0.000126794
-5.31194e-05
0.000130082
-5.15495e-05
0.000133925
-4.92796e-05
0.000137891
-4.61974e-05
0.000141307
-4.22483e-05
0.000144052
-3.79642e-05
0.00014598
-3.38517e-05
0.000147371
-3.04466e-05
0.000148484
-2.81421e-05
0.000150005
-2.74456e-05
0.000152533
-2.82504e-05
0.000156238
-2.95914e-05
0.000161512
-3.0788e-05
0.000168185
-3.15631e-05
0.000176195
-3.13081e-05
0.000185062
-2.91381e-05
0.000195061
-2.47664e-05
0.000205253
-1.70525e-05
0.00021461
-5.03869e-06
0.000222062
1.13428e-05
0.000226262
3.21078e-05
0.000226417
5.69468e-05
0.000221246
8.52783e-05
0.000210307
0.000115486
0.000193022
0.00014531
0.000170303
0.000173239
0.000143558
0.00019715
0.000113751
0.000216589
8.15926e-05
0.000231721
4.80629e-05
0.000242727
1.44298e-05
0.000249902
-2.0242e-05
0.000254649
-5.81982e-05
0.000260675
-9.68544e-05
0.000258739
-0.000134191
0.000250677
-0.000168815
0.000236105
-0.000199935
0.000216043
-0.000226597
0.00019149
-0.000247767
0.000162046
-0.00026225
0.000129558
-0.000270032
9.61851e-05
-0.000272332
6.45049e-05
-0.000269599
3.49743e-05
-0.000262808
9.06207e-06
-0.000253468
-1.25758e-05
-0.000242827
-2.91775e-05
-0.000232051
-4.20881e-05
-0.000221434
-5.23183e-05
-0.000210621
-6.06593e-05
-0.000199843
-6.78569e-05
-0.000189331
-7.36639e-05
-0.000179143
-7.81638e-05
-0.0001692
-8.183e-05
-0.000159021
-8.58114e-05
-0.000148258
-8.98681e-05
-0.000136712
-9.34101e-05
-0.000124746
-9.59195e-05
-0.000112599
-9.68181e-05
-0.000100887
-9.59884e-05
-9.00217e-05
-9.35183e-05
-8.04633e-05
-8.9728e-05
-7.25208e-05
-8.47757e-05
-6.66758e-05
-7.88795e-05
-6.40718e-05
-7.27116e-05
-6.45642e-05
-6.84492e-05
-6.64971e-05
-6.87258e-05
-6.31112e-05
-8.23398e-05
-3.99971e-05
-0.000124463
6.87794e-06
-0.000186845
4.25232e-05
-0.000192029
4.11134e-05
-1.33554e-05
-1.44241e-05
8.45325e-05
-0.00039041
0.00015226
-0.000343422
0.000172636
-0.000202974
0.00016566
-0.00010326
0.000149929
-5.98539e-05
0.000136478
-4.83637e-05
0.000129051
-4.90822e-05
0.000127854
-5.33806e-05
0.000130081
-5.53466e-05
0.000134019
-5.54884e-05
0.000138686
-5.39473e-05
0.000143538
-5.10477e-05
0.00014742
-4.613e-05
0.000150073
-4.06154e-05
0.000151397
-3.51758e-05
0.00015177
-3.0822e-05
0.000151716
-2.80851e-05
0.000152335
-2.80616e-05
0.000154262
-3.01769e-05
0.000157884
-3.32126e-05
0.000163641
-3.65451e-05
0.000171635
-3.95571e-05
0.000181487
-4.116e-05
0.000193429
-4.10804e-05
0.00020709
-3.84282e-05
0.00022137
-3.13326e-05
0.000235258
-1.8927e-05
0.000247087
-4.86857e-07
0.000255629
2.35658e-05
0.000259038
5.35385e-05
0.000255607
8.87107e-05
0.000244588
0.000126505
0.000225157
0.000164742
0.000199449
0.000198947
0.000168049
0.000228551
0.000132984
0.000251654
9.56493e-05
0.000269056
5.80699e-05
0.000280306
2.2401e-05
0.000285571
-1.49323e-05
0.000291982
-5.9471e-05
0.000305214
-0.000106576
0.000305844
-0.000151385
0.000295487
-0.000192535
0.000277255
-0.000229032
0.00025254
-0.000259741
0.0002222
-0.00028341
0.000185715
-0.000299337
0.000145485
-0.000306805
0.000103654
-0.000305859
6.35588e-05
-0.000298606
2.77218e-05
-0.000286923
-2.62098e-06
-0.000273408
-2.60911e-05
-0.000259293
-4.32932e-05
-0.000245651
-5.57311e-05
-0.000232842
-6.51271e-05
-0.000220359
-7.31433e-05
-0.000208281
-7.9935e-05
-0.000196546
-8.53985e-05
-0.000185738
-8.89726e-05
-0.000175584
-9.19839e-05
-0.00016493
-9.6465e-05
-0.000153547
-0.000101251
-0.000140834
-0.000106123
-0.000127233
-0.000109521
-0.000113351
-0.0001107
-9.99564e-05
-0.000109382
-8.757e-05
-0.000105905
-7.67438e-05
-0.000100554
-6.79978e-05
-9.3522e-05
-6.26031e-05
-8.42747e-05
-6.25358e-05
-7.27781e-05
-6.76412e-05
-6.33437e-05
-7.47115e-05
-6.16557e-05
-7.49951e-05
-8.2056e-05
-5.51212e-05
-0.000144336
-8.06761e-06
-0.000233899
4.35405e-05
-0.000243638
8.46532e-05
0.000106829
-0.000119662
0.000337551
-0.000586062
0.000367937
-0.000363636
0.000278873
-0.000113891
0.000203279
-2.76653e-05
0.000161086
-1.76612e-05
0.000139576
-2.68531e-05
0.000131427
-4.09346e-05
0.000130561
-5.25136e-05
0.000133281
-5.80677e-05
0.000138177
-6.03836e-05
0.000144324
-6.0093e-05
0.000150332
-5.7056e-05
0.000155295
-5.10927e-05
0.000158091
-4.34135e-05
0.000158503
-3.55852e-05
0.000157294
-2.96129e-05
0.000155613
-2.64057e-05
0.000154659
-2.71098e-05
0.000155268
-3.07863e-05
0.000158494
-3.64384e-05
0.000164852
-4.29042e-05
0.00017341
-4.81164e-05
0.000185399
-5.31491e-05
0.000199937
-5.56188e-05
0.000217564
-5.6055e-05
0.000236977
-5.0746e-05
0.000256593
-3.85422e-05
0.00027472
-1.86135e-05
0.000289621
8.66498e-06
0.000298595
4.4563e-05
0.000299707
8.75995e-05
0.000289595
0.000136617
0.000268068
0.00018627
0.000235782
0.000231232
0.00019633
0.000268002
0.000153564
0.000294421
0.000110204
0.000312416
6.93882e-05
0.000321121
3.24992e-05
0.00032246
-6.89985e-06
0.000331381
-5.78115e-05
0.000356126
-0.000114792
0.000362825
-0.000170285
0.00035098
-0.000221445
0.000328416
-0.000266427
0.000297522
-0.00030316
0.000258932
-0.000328834
0.00021139
-0.000342771
0.000159422
-0.000346354
0.000107236
-0.000341509
5.87144e-05
-0.00032913
1.53421e-05
-0.000312247
-1.95047e-05
-0.000293243
-4.50949e-05
-0.000274796
-6.17407e-05
-0.000258235
-7.22922e-05
-0.000243489
-7.9873e-05
-0.000229413
-8.72186e-05
-0.000216323
-9.30257e-05
-0.000204063
-9.76587e-05
-0.000193228
-9.98072e-05
-0.000182943
-0.000102269
-0.000172699
-0.000106709
-0.000160822
-0.000113128
-0.000146589
-0.000120357
-0.000130593
-0.000125517
-0.000114082
-0.000127211
-9.83216e-05
-0.000125142
-8.43465e-05
-0.00011988
-7.22309e-05
-0.00011267
-6.23244e-05
-0.000103429
-5.60253e-05
-9.05734e-05
-5.53447e-05
-7.34587e-05
-6.45631e-05
-5.41256e-05
-8.63969e-05
-3.98219e-05
-0.000132087
-3.63664e-05
-0.000202935
-7.34889e-05
-0.000206034
-0.000227575
-4.56001e-05
-0.000393542
3.81182e-05
0.000271479
-0.000381121
0.000634369
-0.000952388
0.000705796
-0.000384804
0.000471953
0.00013138
0.000270991
0.000173292
0.0001662
8.71303e-05
0.000118845
2.05016e-05
0.000108914
-3.10026e-05
0.000116469
-6.00677e-05
0.000128183
-6.97826e-05
0.000138759
-7.09614e-05
0.000148871
-7.02056e-05
0.000157437
-6.56224e-05
0.000163382
-5.70376e-05
0.000165766
-4.57961e-05
0.000165041
-3.48638e-05
0.000161749
-2.63226e-05
0.000156803
-2.14598e-05
0.000152538
-2.28458e-05
0.000149932
-2.81802e-05
0.00015231
-3.88169e-05
0.000158187
-4.87809e-05
0.000168927
-5.88569e-05
0.000183198
-6.74199e-05
0.000201755
-7.41755e-05
0.000224188
-7.84881e-05
0.000250676
-7.72337e-05
0.000278854
-6.67205e-05
0.000306454
-4.6214e-05
0.000331091
-1.59729e-05
0.000349869
2.57852e-05
0.000356318
8.11508e-05
0.000347098
0.000145836
0.000319313
0.000214056
0.000276825
0.00027372
0.000228997
0.000315831
0.000180354
0.000343064
0.000131927
0.000360843
8.59471e-05
0.000367102
4.2797e-05
0.000365611
-3.66452e-06
0.000377843
-6.0944e-05
0.000413406
-0.000125924
0.000427805
-0.000191556
0.000416611
-0.000253312
0.000390171
-0.000308519
0.000352729
-0.000354131
0.000304544
-0.000387163
0.000244422
-0.000404318
0.000176577
-0.000404762
0.00010768
-0.000391251
4.52036e-05
-0.000368868
-7.04065e-06
-0.00034056
-4.78122e-05
-0.000311165
-7.44903e-05
-0.000285711
-8.7194e-05
-0.000264832
-9.31713e-05
-0.000247969
-9.67363e-05
-0.000233498
-0.00010169
-0.000219009
-0.000107515
-0.000205528
-0.00011114
-0.000196532
-0.000108803
-0.000188538
-0.000110263
-0.000180187
-0.000115059
-0.00016827
-0.000125046
-0.000151973
-0.000136653
-0.00013298
-0.00014451
-0.000113208
-0.000146983
-9.41204e-05
-0.000144231
-7.63518e-05
-0.000137649
-6.01739e-05
-0.000128847
-4.34439e-05
-0.000120159
-2.94995e-05
-0.000104517
-2.87456e-05
-7.42135e-05
-5.48369e-05
-2.80343e-05
-0.000128649
3.39901e-05
-0.000297342
0.000132325
-0.000558104
0.000191488
-0.000552202
-0.000199866
-0.000220358
-0.00069958
-0.000180181
0.000311103
-0.000696124
0.000535259
-0.00118043
0.000631458
-0.000484868
0.000478577
0.000306668
0.000269968
0.000385542
0.000148336
0.000208761
0.000112076
5.67621e-05
0.000111469
-3.0398e-05
0.000118711
-6.7309e-05
0.000128164
-7.92356e-05
0.000136936
-7.97326e-05
0.000146858
-8.01289e-05
0.000155757
-7.452e-05
0.00016267
-6.3951e-05
0.000164951
-4.80764e-05
0.000163406
-3.3319e-05
0.000158044
-2.09588e-05
0.000149601
-1.30171e-05
0.000140661
-1.39062e-05
0.000137115
-2.46333e-05
0.000139999
-4.17005e-05
0.000149014
-5.77955e-05
0.000160907
-7.07494e-05
0.000178018
-8.45311e-05
0.000203159
-9.93158e-05
0.000236204
-0.000111533
0.000274206
-0.000115235
0.000312783
-0.000105298
0.000350067
-8.34969e-05
0.000384091
-4.99966e-05
0.000410239
-3.62879e-07
0.000422255
6.9134e-05
0.000414217
0.000153874
0.000386145
0.000242128
0.000344421
0.000315445
0.000299333
0.000360919
0.000250537
0.00039186
0.000192211
0.000419169
0.000124096
0.000435217
5.10191e-05
0.000438688
-2.3477e-05
0.000452339
-0.000100771
0.0004907
-0.00017975
0.000506784
-0.000253789
0.00049065
-0.000317821
0.000454203
-0.000373033
0.000407941
-0.00042101
0.000352522
-0.000458329
0.000281741
-0.000478712
0.00019696
-0.000479782
0.000108749
-0.000463866
2.92881e-05
-0.000432674
-3.82327e-05
-0.000388708
-9.17774e-05
-0.00034112
-0.000122079
-0.000301195