/*--------------------------------*- C++ -*----------------------------------*\
| =========                 |                                                 |
| \\      /  F ield         | OpenFOAM: The Open Source CFD Toolbox           |
|  \\    /   O peration     | Version:  2412                                  |
|   \\  /    A nd           | Website:  www.openfoam.com                      |
|    \\/     M anipulation  |                                                 |
\*---------------------------------------------------------------------------*/
FoamFile
{
    version     2.0;
    format      ascii;
    arch        "LSB;label=32;scalar=64";
    class       volScalarField;
    location    "2.8";
    object      alpha.mercury;
}
// * * * * * * * * * * * * * * * * * * * * * * * * * * * * * * * * * * * * * //

dimensions      [0 0 0 0 0 0 0];

internalField   nonuniform List<scalar> 
6400
(
1
0.999999
0.999999
1
1
1
1
1
1
0.999999
0.999999
0.999999
0.999999
0.999999
1
1
0.999999
0.999998
0.999999
1
1
1
0.999998
0.999998
1
1
1
1
1
1
1
1
1
1
1
0.999998
0.999998
1
1
1
1
1
1
1
1
1
1
1
0.999999
0.999999
0.999999
0.999999
0.999999
0.999999
0.999999
1
1
1
1
1
1
1
1
1
1
1
1
1
1
1
1
1
0.999999
0.999999
0.999999
0.999998
0.999998
0.999999
1
1
1
0.999999
0.999999
0.999999
0.999999
0.999999
0.999999
0.999999
0.999999
0.999999
0.999999
0.999999
0.999999
0.999999
0.999998
0.999998
0.999999
0.999999
0.999999
0.999998
0.999998
0.999999
1
1
1
1
1
1
1
1
1
1
0.999999
0.999998
1
1
1
1
1
1
1
1
1
1
1
1
0.999999
0.999998
0.999998
0.999997
0.999997
0.999998
0.999999
1
1
1
1
1
1
1
1
1
1
1
1
1
1
1
1
0.999999
0.999998
0.999998
0.999998
0.999998
0.999998
0.999998
0.999999
1
1
1
0.999999
0.999999
0.999999
0.999999
0.999999
0.999999
0.999999
0.999999
0.999999
1
1
1
1
1
1
1
0.999999
0.999998
0.999998
1
1
1.00001
1
1
0.999999
0.999999
1
1
1
1
1
0.999999
0.999999
1
1
0.999999
0.999998
0.999999
1
1
1
1
1
1
1
0.999999
0.999998
0.999998
0.999998
0.999999
0.999999
1
1
1
1
1
1
1
1
1
1
1
1
0.999999
0.999999
0.999999
0.999999
0.999999
0.999999
0.999999
0.999999
0.999999
0.999999
0.999998
0.999998
0.999999
0.999999
0.999999
1
0.999998
0.999999
0.999999
0.999999
0.999999
0.999999
0.999999
1
1
1
1
1
1
1
0.999999
0.999999
1
1
1
1
1
1
0.999999
0.999998
0.999999
1
1
1
1
1
1
1
0.999999
0.999998
0.999998
0.999999
1
1
1
1
1
1
1
1
1
1
1
0.999999
0.999999
0.999999
0.999999
1
1
1
1
1
1
1
1
1
1
0.999999
0.999999
0.999999
0.999999
1
1
1
1
1
0.999999
1
1
1
0.999999
0.999998
0.999999
0.999999
0.999999
0.999999
0.999998
1
1
0.999999
0.999999
1
1
1
1
1
1
0.999999
1
1
1
1
1
1
1
0.999998
0.999998
0.999998
0.999998
0.999998
1
1
1
1
1
1
1
1
1
0.999999
0.999998
0.999999
1
1
1
1
1
1
1
1
1
1
1
0.999999
0.999999
0.999999
0.999998
0.999998
0.999998
0.999999
1
1
1
1
1
1
1
1
1
1
1
1
1
1
1
1
1
1
1
1
1
1
1
1
1
0.999998
1
1
1
1
1
1
1
1
1
1
1
1
1
1
1
0.999999
0.999999
0.999999
0.999999
0.999998
0.999999
1
1
1
1
1
1
1
1
0.999999
0.999999
1
1
1
0.999999
0.999999
0.999999
1
1
1
1
1
1
1
1
1
0.999999
0.999998
0.999998
0.999998
0.999999
0.999999
0.999999
0.999999
1
1
1
1
1
1
1
1
1
0.999999
0.999999
0.999999
0.999999
0.999999
0.999999
1
1
1
1
1
1
1
1
1
1
0.999999
1
1
1
1
1
1
1
1
1
1
1
1
1
1
1
0.999999
0.999999
0.999999
0.999999
0.999999
1
1
1
1
0.999999
1
0.999999
1
0.999999
0.999998
0.999997
0.999999
1
1
1
1
0.999999
1
1
1
1
0.999999
0.999999
0.999999
0.999999
0.999999
0.999999
0.999999
0.999999
0.999999
1
1
1
1
1
1
1
1
1
1
1
1
1
1
0.999999
0.999998
0.999998
0.999998
0.999999
1
1
1
1
1
1
1
1
1
1
1
1
1
1
1
1
1
1
1
1
1
1
1
1
1
1
1
0.999999
1
1
0.999999
0.999999
1
1
0.999998
0.999998
0.999999
0.999999
0.999999
0.999999
0.999998
0.999997
0.999998
0.999999
1
1
1
1
1
1
0.999999
0.999998
0.999998
0.999998
0.999999
1
1
1
1
1
1
1
1
1
1
0.999999
0.999999
0.999999
1
1
1
1
1
1
1
1
0.999999
0.999998
0.999999
1
1
1
1
1
1
0.999999
1
1
1
1
1
1
1
0.999999
0.999999
1
1
1
1
1
1
1
1
1
1
1
1
1
1
1
0.999999
0.999999
1
1
0.999999
0.999998
0.999999
1
1
1
1
0.999999
0.999998
0.999998
0.999999
1
1
1
1
1
1
1
0.999999
0.999999
1
1
1
1
1
1
1
1
1
1
0.999999
0.999998
0.999998
0.999999
1
1
1
1
1
1
1
1
1
1
1
1
1
1
0.999999
0.999998
0.999998
0.999999
1
1
1
1
1
1
0.999999
0.999999
1
1
1
1
1
1
1
1
1
1
1
1
1
1
1
1
1
1
1
1
1
1
0.999999
0.999999
0.999999
1
1
1
0.999999
0.999999
0.999999
1
0.999999
0.999999
0.999999
1
1
1
1
1
1
1
1
1
1
1
1
1
0.999999
0.999999
0.999999
0.999999
0.999999
1
1
1
1
1
1
1
1
1
1
1
1
1
1
0.999999
0.999998
0.999998
0.999998
1
1
1
1
1
1
1
0.999999
1
1
1
1
1
1
1
1
1
1
1
1
1
1
1
1
1
1
1
1
1
1
0.999999
0.999999
0.999999
0.999999
0.999999
0.999999
1
1
1
1
1
1
0.999999
0.999999
0.999999
0.999999
0.999999
0.999999
0.999999
0.999999
0.999999
1
1
1
1
1
1
1
1
0.999999
0.999999
1
1
1
1
1
1
1
1
1
1
1
1
1
1
0.999999
0.999999
0.999999
1
1
1
1
1
1
1
0.999999
0.999999
1
1
1
1
1
1
1
1
1
1
1
1
1
1
1
1
1
1
1
1
1
1
1
1
1
1
1
1
1
1
1
1
1
1
1
1
0.999999
0.999999
0.999999
0.999998
0.999998
0.999998
0.999998
0.999999
1
1
1
1
1
1
1
1
1
1
1
1
1
1
1
1
1
1
1
1
1
1
1
1
1
1
1
1
1
1
1
1
1
0.999997
0.999998
0.999998
1
1
1
1
1
1
1
1
1
1
1
1
1
1
1
1
1
1
1
1
1
1
1
1
1
1
1
1
1
1
1
1
1
1
1
1
1
0.999999
0.999998
0.999997
0.999997
0.999997
0.999997
0.999998
1
1
1
1
1
1
1
1
1
1
1
1
1
1
1
1
1
1
1
1
1
1
1
1
1
1
1
1
0.999999
0.999999
0.999999
0.999999
0.999997
0.999997
0.999998
1
1
1
1
1
1
1
1
1
0.999999
0.999999
1
1
0.999999
0.999999
1
1
0.999999
1
1
0.999999
0.999999
1
0.999999
1
1
1
1
1
1
1
1
1
1
1
1
0.999999
0.999999
0.999997
0.999997
0.999997
0.999997
0.999997
0.999998
0.999999
1
1
1
1
1
1
1
1
1
1
1
1
1
1
1
1
1
1
1
1
1
1
1
1
1
1
1
1
0.999999
0.999999
0.999998
0.999997
0.999997
0.999998
0.999999
1
1
1
1
1
1
0.999999
0.999999
1
1
0.999999
0.999999
0.999997
0.999997
0.999997
0.999999
1
0.999997
0.999997
0.999997
0.999998
1
1
1
1
1
1
1
1
1
1
1
1
1
1
0.999999
0.999998
0.999998
0.999998
0.999998
0.999998
0.999998
0.999999
0.999999
1
1
1
1
1
1
1
1
1
1
1
1
1
1
1
1
1
1
1
1
1
1
1
0.999999
0.999999
1
1
1
1
1
0.999999
0.999999
0.999999
0.999999
0.999999
0.999999
0.999999
1
1
1
1
1
1
0.999997
0.999998
0.999999
0.999998
0.999997
0.999997
0.999997
0.999998
0.999998
0.999997
0.999997
0.999997
0.999997
0.999998
0.999998
0.999999
0.999999
1
1
1
1
1
1
1
1
1
1
1
0.999999
0.999998
0.999999
0.999999
0.999999
0.999999
1
1
1
1
1
1
1
1
1
1
1
1
1
1
1
1
1
1
0.999999
0.999999
0.999998
0.999998
0.999999
1
0.999999
0.999998
0.999998
0.999998
1
1
1
1
0.999999
0.999999
0.999999
0.999999
0.999999
0.999999
0.999999
0.999999
0.999998
0.999998
1
1
1
1
0.999999
0.999997
0.999997
0.999997
0.999997
0.999997
0.999998
0.999998
0.999998
0.999998
0.999998
0.999997
0.999998
0.999999
0.999999
0.999999
1
1
1
1
1
1
1
1
1
1
1
1
1
1
0.999999
0.999999
0.999999
0.999999
0.999999
1
1
1
1
1
1
1
1
1
1
1
1
1
1
1
1
1
1
0.999999
0.999999
0.999998
0.999999
0.999999
0.999999
0.999999
0.999999
0.999999
0.999999
1
0.999999
0.999999
0.999999
1
1
0.999999
0.999998
0.999983
0.999985
0.999994
0.999958
0.999862
0.999906
0.999316
0.999521
0.999956
0.999999
0.999999
0.999999
0.999999
0.999999
0.999999
0.999999
0.999999
0.999999
0.999999
0.999999
0.999999
0.999999
1
1
1
1
1
1
1
1
1
1
1
1
1
1
1
1
0.999999
0.999999
0.999999
0.999998
0.999997
0.999997
0.999998
0.999998
0.999999
0.999999
1
1
1
1
1
1
1
1
1
1
1
1
1
1
1
1
0.999999
0.999999
0.999999
0.999999
1
1
1
1
1
1
1
1
1
0.999998
0.999999
0.999996
0.998123
0.993475
0.999878
0.991625
0.991737
0.998329
0.997037
0.997401
0.99989
1
1
1
1
1
1
1
1
1
1
1
1
1
1
1
1
1
1
1
1
1
1
1
1
1
1
0.999999
0.999997
0.999991
0.99998
0.998837
0.99594
0.993149
0.99201
0.993363
0.996284
0.999075
0.999928
0.999948
0.999966
0.999979
0.999988
0.999994
0.999998
1
1
1
1
1
1
1
1
1
1
1
1
1
1
1
1
1
1
1
1
1
1
1
1
0.99992
0.999996
0.999969
0.995673
0.965513
0.955474
0.937888
0.988194
0.9981
0.999459
0.999873
0.999883
0.992258
0.925323
0.855159
0.792891
0.74957
0.72234
0.704599
0.695843
0.695895
0.710898
0.735181
0.76725
0.800153
0.831735
0.865125
0.900322
0.931189
0.953023
0.966455
0.973838
0.977972
0.980363
0.981265
0.977873
0.95294
0.900221
0.831161
0.755728
0.6813
0.602145
0.532785
0.482408
0.452782
0.443171
0.457472
0.491379
0.547222
0.623192
0.699722
0.768815
0.831986
0.887486
0.934357
0.968911
0.989129
0.995941
0.99569
0.992399
0.985324
0.973007
0.952803
0.924047
0.889676
0.852303
0.810979
0.764759
0.717633
0.677445
0.648792
0.636448
0.641174
0.658463
0.688913
0.731055
0.783185
0.846157
0.919182
0.998171
0.999919
0.999696
0.999658
0.996426
0.971152
0.895966
0.86092
0.813624
0.739606
0.665566
0.620669
0.482496
0.318345
0.209395
0.13945
0.0991581
0.0754703
0.0594467
0.0496416
0.0449982
0.0446877
0.050817
0.0651742
0.0890012
0.118935
0.150622
0.182225
0.215584
0.253442
0.295868
0.336453
0.36269
0.370809
0.35479
0.305528
0.243749
0.178613
0.120205
0.0719567
0.033855
0.00703141
2.62339e-12
9.33413e-13
-1.07706e-28
-5.81606e-11
-5.82251e-11
-3.2329e-11
-8.46109e-12
-1.22019e-12
0
0.014237
0.0432201
0.0824139
0.132277
0.19251
0.264298
0.345204
0.417187
0.453529
0.452906
0.428827
0.376372
0.31294
0.254301
0.205861
0.164443
0.125334
0.0885316
0.0585946
0.0395604
0.0296828
0.0259672
0.0273911
0.0331217
0.0448965
0.0648826
0.0950949
0.140596
0.212364
0.31777
0.472866
0.595147
0.676434
0.772348
0.830038
0.846293
0.488442
0.211914
0.173939
0.205995
0.152376
0.0574267
0.0056837
0.000750524
0.000355813
0.000267594
0.000237615
0.000208081
0.000173931
0.000135584
0.000103725
9.06977e-05
0.000110176
0.000130607
0.000120827
9.33612e-05
6.30436e-05
3.23436e-05
7.5234e-06
-1.54625e-07
-2.61823e-08
-1.789e-08
-7.41015e-08
-3.41178e-07
-8.03545e-07
-2.04487e-06
-2.41105e-07
-3.73648e-08
-2.20581e-25
5.72972e-10
2.13718e-10
7.89448e-11
1.14131e-10
9.65706e-11
-4.31238e-10
-5.57472e-10
-3.05525e-10
-1.25409e-10
-4.40996e-11
-1.44361e-11
-2.49239e-12
2.69265e-29
6.26448e-14
5.51454e-26
-6.24707e-09
-1.43203e-06
-7.48102e-07
-1.77346e-07
-1.54196e-07
-2.93448e-06
-1.07261e-07
1.64125e-05
4.37047e-05
7.15811e-05
9.38639e-05
0.000114294
0.000138919
0.000145918
0.000118442
8.03057e-05
5.83699e-05
5.17419e-05
6.64621e-05
0.00010604
0.000157835
0.000195337
0.000216178
0.00024338
0.000337893
0.00874046
0.0558767
0.118628
0.149265
0.142898
0.25606
0.572721
0.0224892
0.000390575
0.000211301
0.000389236
0.0022035
0.00253647
0.00202848
0.000583264
0.000104623
5.35499e-05
4.13226e-05
3.19258e-05
2.47538e-05
1.88265e-05
1.50529e-05
1.59396e-05
1.73894e-05
1.8824e-05
1.3833e-05
6.72832e-06
2.71791e-06
9.12443e-07
1.18061e-07
5.71795e-09
9.96349e-10
1.31075e-10
9.19611e-10
8.39546e-09
7.85647e-10
1.70293e-11
1.5204e-12
3.02128e-09
3.73931e-08
1.09513e-07
8.9221e-08
2.28584e-08
5.99775e-10
7.42961e-10
7.98672e-11
-2.99245e-10
-2.89905e-10
-1.48849e-10
-5.02536e-11
-1.15135e-11
0
6.26448e-14
2.5975e-10
1.87019e-08
2.38229e-08
1.07061e-08
1.65492e-09
1.44908e-09
4.16655e-08
4.4365e-08
2.59353e-08
2.84757e-07
9.688e-07
3.01058e-06
7.07078e-06
9.94244e-06
1.43114e-05
1.43376e-05
9.89177e-06
6.43821e-06
4.69738e-06
4.69091e-06
7.26843e-06
1.37769e-05
2.31068e-05
3.27346e-05
4.05339e-05
4.32212e-05
9.56955e-05
0.000569922
0.00140201
0.00180717
0.00151032
0.00102979
0.00077225
0.100097
0.000583612
0.000211301
0.000128711
0.000555037
0.00218762
0.00243042
0.00119369
0.000127643
4.57842e-05
1.68958e-05
7.59661e-06
5.47803e-06
4.16126e-06
3.65702e-06
3.53861e-06
3.31082e-06
3.17317e-06
3.04135e-06
2.11997e-06
8.91474e-07
2.51246e-07
4.69096e-08
5.37825e-09
2.72287e-09
5.23548e-11
3.66508e-10
1.4549e-09
1.5983e-09
1.69534e-10
4.44777e-12
1.29166e-12
6.42451e-13
2.96817e-08
1.12764e-07
1.18029e-07
5.9799e-08
2.01275e-10
3.8541e-10
2.55106e-10
1.46898e-11
-6.98152e-11
-5.02081e-11
-8.9797e-12
0
1.26147e-11
1.87584e-12
5.67832e-11
4.52767e-10
1.07716e-09
1.29073e-09
9.4129e-10
1.08889e-09
2.67487e-09
4.3968e-09
4.53245e-09
1.53721e-08
7.2764e-08
1.41604e-06
4.02676e-06
2.05497e-06
1.22568e-06
1.32779e-06
9.55539e-07
6.25163e-07
4.73237e-07
5.33958e-07
9.6042e-07
2.07249e-06
3.88326e-06
5.5006e-06
6.55106e-06
9.86332e-06
2.76418e-05
7.64556e-05
0.000900817
0.00232313
0.00231262
0.00109105
0.00077225
0.000750733
0.0116491
0.001284
3.53322e-05
4.90903e-05
0.000828411
0.00214306
0.00162005
0.000178675
4.50197e-06
2.81357e-06
2.19231e-06
1.91972e-06
1.67943e-06
1.70476e-06
1.75544e-06
1.39439e-06
7.38619e-07
5.40583e-07
3.34835e-07
1.16871e-07
3.27825e-08
4.29381e-09
3.46513e-10
3.79404e-11
5.79587e-12
4.21369e-11
1.18888e-10
2.13047e-11
4.89616e-12
3.96597e-12
3.59675e-12
6.39367e-13
2.45436e-14
2.47529e-14
8.17464e-14
8.02816e-14
8.26345e-14
9.31641e-14
7.37339e-13
2.18175e-12
9.62303e-13
5.83758e-13
-8.66506e-17
2.00887e-12
1.85982e-11
3.48594e-11
1.57268e-10
6.48557e-10
1.17031e-09
1.01341e-09
9.31285e-10
9.58801e-10
9.61999e-10
1.01217e-09
1.14229e-09
1.70539e-09
4.07168e-09
1.21228e-06
3.98866e-06
1.53656e-06
2.58721e-07
1.30381e-07
1.05616e-07
7.23382e-08
5.77248e-08
6.94736e-08
1.39968e-07
3.32392e-07
6.79783e-07
1.04693e-06
1.3954e-06
3.13335e-06
1.13834e-05
2.64583e-05
0.000362285
0.0013581
0.00201663
0.00113892
0.000501305
0.00142681
0.0191868
0.00963295
9.41525e-06
5.84699e-06
1.20885e-06
0.000224712
0.00023899
3.6297e-05
1.76291e-06
1.37435e-06
1.48454e-06
1.57621e-06
1.40191e-06
1.3875e-06
1.37732e-06
8.98815e-07
1.52362e-07
9.1813e-08
4.98282e-08
1.38171e-08
3.09734e-09
5.20425e-10
3.66417e-11
5.01572e-12
4.35236e-12
4.14755e-12
4.08373e-12
5.90513e-12
7.17622e-12
2.38945e-11
1.56056e-11
2.08822e-12
3.57903e-14
2.45548e-14
3.4831e-14
2.71716e-13
4.04525e-13
1.87669e-13
2.19634e-12
5.54633e-12
2.53063e-12
7.17593e-12
6.3263e-12
5.30185e-11
2.46129e-10
1.34268e-08
7.39692e-08
2.33109e-07
2.10605e-07
7.4316e-08
5.63959e-09
1.74022e-09
1.58519e-09
1.12917e-09
1.02299e-09
1.03769e-09
1.21082e-09
1.66186e-07
2.82547e-06
1.70494e-06
1.51377e-07
2.7956e-08
1.32414e-08
9.7524e-09
8.02766e-09
1.01274e-08
2.14901e-08
5.42971e-08
1.17736e-07
1.95708e-07
3.08908e-07
9.25896e-07
4.67134e-06
8.85183e-05
0.000161672
3.32812e-05
2.82523e-05
3.32812e-05
0.000148921
0.0176217
0.0191966
0.0148768
9.30228e-05
1.20885e-06
8.81188e-08
3.72547e-08
8.81188e-08
3.34485e-06
1.61499e-06
1.14316e-06
1.38228e-06
1.48229e-06
1.35399e-06
6.13283e-07
3.86323e-07
1.52276e-07
2.66976e-08
1.56361e-08
6.50993e-09
1.57949e-09
3.37503e-10
4.87093e-11
5.00466e-12
3.224e-12
3.79089e-12
3.63981e-12
3.76387e-12
5.90822e-12
6.61911e-12
4.59471e-12
4.77133e-13
1.82623e-14
3.05423e-14
1.10677e-13
1.12332e-12
1.86284e-12
8.35158e-13
2.87428e-12
1.83453e-11
7.152e-11
2.11855e-11
1.39271e-11
1.61844e-10
4.05892e-08
2.19108e-07
4.06592e-07
5.8308e-07
5.95798e-07
5.95796e-07
5.79843e-07
1.81889e-07
1.26423e-09
1.03575e-09
1.02301e-09
1.01978e-09
1.01655e-09
1.0279e-09
1.21082e-09
7.87768e-07
2.88987e-06
2.14041e-07
1.39655e-08
1.95368e-09
1.55104e-09
1.33351e-09
1.58712e-09
3.42138e-09
8.83284e-09
1.99079e-08
3.64712e-08
7.61289e-08
2.78336e-07
7.14667e-06
6.00939e-05
4.16062e-05
2.82888e-05
2.82888e-05
2.82888e-05
0.00439419
0.0195083
0.0191855
0.00590539
0.000834611
2.16898e-06
3.72535e-08
3.72547e-08
5.73629e-08
1.28453e-06
1.91998e-06
1.05137e-06
4.57335e-07
3.86614e-07
2.69251e-07
7.48989e-09
6.95895e-09
5.95362e-09
3.40182e-09
2.28896e-09
8.31165e-10
2.03346e-10
3.79126e-11
5.07269e-12
2.56992e-12
1.66818e-12
1.14366e-12
5.30857e-13
1.7232e-13
1.65098e-14
5.34541e-15
5.34541e-15
5.39289e-15
1.5122e-14
9.50201e-14
7.78062e-13
7.24556e-12
3.31453e-12
2.22101e-12
8.13203e-11
3.90243e-09
6.10955e-08
2.25373e-09
1.77108e-10
1.73656e-07
4.69052e-07
5.92119e-07
5.9214e-07
5.90388e-07
5.95589e-07
5.95797e-07
5.86166e-07
3.87875e-07
1.65681e-08
1.23799e-09
1.36997e-09
1.01655e-09
1.01655e-09
1.01655e-09
1.0279e-09
5.65315e-09
3.11034e-06
2.488e-06
7.54843e-09
4.01012e-10
3.49422e-10
3.28223e-10
3.08325e-10
5.87641e-10
1.47032e-09
3.47661e-09
8.48457e-09
2.51947e-08
8.27971e-08
1.83633e-06
1.75449e-05
2.6762e-05
2.93296e-05
2.82263e-05
2.93296e-05
0.0156399
0.0195195
0.0191075
0.00102015
0.00105289
0.000183168
7.18181e-08
3.72547e-08
2.22555e-07
1.16562e-06
8.58118e-07
6.68177e-08
1.62098e-09
1.77464e-09
1.59693e-09
7.87924e-10
9.52842e-10
8.22854e-10
4.75247e-10
3.43352e-10
1.21023e-10
2.25096e-11
5.10662e-12
2.38123e-12
1.56382e-12
9.46914e-13
4.79766e-13
1.95964e-13
6.41958e-14
2.03185e-14
9.75811e-15
9.51959e-15
3.75232e-14
1.64969e-13
7.60214e-13
4.07288e-12
1.63735e-11
3.50228e-12
9.47497e-12
1.0143e-07
5.36702e-07
8.81138e-07
4.56793e-07
1.85349e-07
5.47707e-07
5.50447e-07
5.54043e-07
4.01385e-07
2.92944e-07
2.26013e-07
2.01188e-07
1.3242e-07
5.31544e-08
2.09097e-08
2.13629e-08
6.27665e-08
1.37503e-08
1.01655e-09
1.0279e-09
1.05908e-09
7.41341e-07
3.14305e-06
3.12618e-06
5.1035e-07
1.57549e-10
1.50877e-10
1.68353e-10
1.04988e-10
1.3756e-10
2.90646e-10
7.4131e-10
3.19041e-09
8.48614e-09
2.51966e-08
2.16508e-07
2.91564e-05
0.000534132
0.000335401
2.97805e-05
0.000349708
0.0188913
0.0194545
0.0188469
0.000868632
0.000597519
0.000393609
1.54091e-06
3.46639e-08
6.22554e-08
1.30429e-07
2.27366e-08
3.73989e-10
1.93116e-10
1.90729e-10
1.68716e-10
1.29653e-10
1.81106e-10
1.448e-10
8.40435e-11
4.59263e-11
1.22683e-11
2.29844e-12
1.24351e-12
9.10371e-13
5.97794e-13
3.2266e-13
1.49835e-13
6.46826e-14
2.77437e-14
1.66066e-14
1.83388e-14
6.61259e-14
3.00725e-13
1.30438e-12
4.39468e-12
1.24039e-11
1.62502e-11
9.47572e-12
3.01563e-07
9.15617e-07
1.00755e-06
1.00716e-06
1.00664e-06
3.93969e-07
2.44895e-07
2.22422e-07
4.19336e-09
6.126e-09
7.25292e-09
1.43576e-08
4.02507e-08
7.64312e-08
5.50401e-08
6.26035e-08
2.85422e-08
3.07647e-08
1.26518e-07
5.79639e-07
8.73051e-07
1.91954e-06
3.14305e-06
3.14903e-06
3.14305e-06
1.20388e-06
1.11219e-10
1.11517e-10
1.38142e-10
6.89328e-11
6.34272e-11
9.06485e-11
2.51745e-10
9.20628e-10
3.52098e-09
2.92572e-08
6.37323e-07
0.000538832
0.00192558
0.00184973
8.12997e-05
0.00211216
0.0183243
0.0145828
0.0132501
0.00134761
0.00171987
0.000492439
1.79739e-05
1.31796e-09
8.42854e-10
6.12904e-10
2.56788e-10
9.32226e-11
5.39459e-11
3.68309e-11
2.97814e-11
2.77663e-11
2.12983e-11
1.58777e-11
8.70876e-12
4.21177e-12
1.10504e-12
3.97875e-13
3.3015e-13
2.36434e-13
1.39952e-13
6.93946e-14
3.13421e-14
1.54556e-14
1.03299e-14
9.74808e-15
3.53452e-14
2.44921e-13
1.43473e-12
6.05614e-12
1.5506e-11
2.30034e-11
1.98653e-11
1.76965e-09
1.00899e-06
1.00899e-06
1.00899e-06
9.96852e-07
3.15355e-07
1.04938e-10
1.44937e-10
1.69674e-10
3.93882e-10
2.80858e-09
1.32306e-08
7.74221e-08
1.48218e-07
1.54766e-07
1.04204e-07
6.98904e-08
1.4788e-07
4.2118e-08
6.01924e-08
2.68563e-07
9.8282e-07
2.34757e-06
3.14876e-06
3.14454e-06
3.14613e-06
1.00561e-06
9.75531e-11
9.67857e-11
1.14666e-10
5.21142e-11
5.21142e-11
5.60157e-11
7.2266e-11
1.38552e-10
7.26071e-09
1.45059e-07
1.29371e-07
0.00114801
0.00197621
0.00196958
0.000127415
0.00300596
0.00852665
5.99606e-05
0.000399438
0.00313707
0.00335518
0.0016515
5.85182e-05
-5.7637e-10
7.70052e-10
4.07553e-10
1.19065e-10
6.74818e-11
3.87674e-11
6.85212e-12
4.58358e-12
3.69688e-12
3.24648e-12
1.51016e-12
8.84413e-13
5.30658e-13
2.91695e-13
1.97819e-13
1.78309e-13
1.4892e-13
1.00324e-13
4.32245e-14
1.21984e-14
6.38793e-15
6.16276e-15
6.96477e-15
5.72882e-14
5.64164e-13
3.47199e-12
1.23354e-11
2.63445e-11
2.60856e-11
1.83219e-09
3.18651e-07
1.0067e-06
1.00899e-06
7.33427e-07
2.08323e-08
9.0113e-11
8.97731e-11
1.05348e-10
3.30175e-10
2.91768e-09
6.56215e-08
2.21868e-06
5.69784e-06
6.32744e-06
6.07675e-06
5.28891e-06
3.07062e-06
4.37047e-07
4.56758e-08
5.87241e-08
6.2361e-08
2.10388e-07
3.7222e-07
9.59057e-07
2.45249e-06
2.2227e-06
3.15843e-07
8.3871e-11
7.45519e-11
5.71839e-11
5.21142e-11
5.15593e-11
5.21142e-11
5.60157e-11
7.09635e-11
1.43216e-10
8.37483e-10
2.06736e-08
0.000371191
0.00196958
0.00197601
0.000237482
0.00158441
5.99606e-05
4.57384e-05
0.000299901
0.00335506
0.00335518
0.00335518
0.000271727
1.8117e-07
-6.11204e-09
3.06246e-10
2.96198e-10
1.38664e-10
6.0801e-11
4.58358e-12
3.17667e-12
1.78604e-12
6.74158e-13
5.86935e-13
4.41553e-13
2.96923e-13
2.6233e-13
2.55028e-13
2.79271e-13
3.58317e-13
3.80966e-13
2.47917e-13
4.89374e-14
6.59964e-15
6.16276e-15
6.94349e-15
7.82477e-14
8.81347e-13
4.68112e-12
1.30579e-11
1.3682e-11
2.60477e-09
2.03821e-07
8.95623e-07
1.00263e-06
3.52571e-07
2.30714e-10
1.5817e-10
1.4502e-10
1.15082e-10
2.97882e-10
2.63924e-09
6.76431e-08
4.32465e-06
9.64815e-06
9.56171e-06
9.56814e-06
9.49069e-06
9.30989e-06
9.05947e-06
6.26511e-06
3.05234e-07
6.23609e-08
5.91295e-08
4.3416e-08
3.00911e-08
2.358e-08
1.72507e-07
1.33652e-07
2.83906e-09
9.71911e-11
5.5192e-11
-1.48562e-10
-9.07487e-10
-2.84776e-09
3.63423e-07
2.44621e-06
1.38599e-10
8.37483e-10
5.17084e-06
1.01564e-06
1.18296e-06
0.000989161
0.00196958
0.00029325
0.000231079
4.0266e-05
3.02545e-05
0.000297665
0.00333485
0.00335518
0.00332512
0.000605942
4.46418e-07
9.37729e-11
4.06921e-10
3.2247e-10
1.38884e-10
3.8896e-10
5.52709e-08
1.37031e-07
1.56426e-08
5.86935e-13
5.49173e-13
5.4845e-13
5.32588e-13
5.36808e-13
3.03774e-13
4.21429e-13
6.82174e-13
8.01177e-13
7.74112e-13
3.83584e-13
9.66822e-14
6.49952e-15
8.97491e-15
9.20334e-14
1.08009e-12
4.07275e-12
4.23764e-12
1.31604e-11
1.10499e-07
5.47833e-07
8.18832e-07
2.26564e-07
2.90631e-10
2.90631e-10
4.01589e-10
3.60611e-10
3.06922e-10
1.85203e-09
3.21379e-08
4.10695e-06
9.65166e-06
9.65139e-06
9.6445e-06
9.5537e-06
8.94087e-06
6.23256e-06
6.35117e-06
7.15019e-06
7.15019e-06
1.42267e-06
4.33766e-08
3.0092e-08
2.15418e-08
1.0905e-08
1.43806e-08
8.45058e-09
7.83566e-10
9.88141e-11
-7.6246e-11
1.73608e-10
9.06491e-09
1.03262e-07
8.06496e-07
3.55698e-05
0.000313947
0.000499922
9.84816e-05
1.35477e-06
2.02106e-06
0.000131363
0.00194153
0.000441904
0.0025806
0.000355785
1.40326e-05
0.000309797
0.0028232
0.00332075
0.00329568
0.00142274
7.51172e-07
5.43274e-10
4.57147e-10
4.1387e-10
7.13292e-10
3.15253e-08
2.87594e-07
3.09664e-07
3.12409e-07
1.31856e-07
5.86935e-13
5.49173e-13
1.22961e-12
2.72721e-12
3.08373e-13
4.12361e-13
5.93486e-13
9.45265e-13
1.40613e-12
1.51581e-12
8.97681e-13
2.35222e-14
1.11784e-14
8.75817e-14
7.55433e-13
1.48264e-12
2.91533e-12
9.65003e-09
2.77662e-07
5.24533e-07
1.97664e-07
3.1199e-10
3.19153e-10
5.30257e-10
6.5111e-10
5.35053e-10
9.19656e-10
7.87399e-09
1.77645e-06
9.65281e-06
9.65235e-06
9.65162e-06
9.64285e-06
6.37143e-06
8.34876e-07
1.02099e-07
8.33956e-08
1.91808e-06
7.01667e-06
6.34594e-06
1.05095e-06
2.23106e-08
1.0905e-08
7.86199e-09
4.79438e-09
3.57726e-09
2.31934e-09
7.38009e-10
4.23394e-09
5.19406e-08
4.86586e-07
3.27174e-06
1.60981e-05
0.000705176
0.00200803
0.00204097
0.000963184
1.64595e-05
7.0809e-06
7.67138e-05
0.00148682
0.0022299
0.0027808
0.00185667
1.53761e-06
0.000245145
0.000251143
0.0013895
0.00190269
0.0019293
2.60204e-05
1.13873e-09
5.44078e-10
8.808e-10
4.41401e-08
4.12384e-08
1.77078e-07
3.12409e-07
3.12409e-07
3.12409e-07
2.94599e-07
7.78445e-08
1.36572e-12
2.6615e-12
1.09483e-09
9.91002e-13
2.46063e-12
2.7358e-12
1.89011e-12
2.42457e-12
2.02204e-12
1.00772e-13
1.58138e-14
9.08684e-14
6.3103e-13
7.53917e-13
5.78003e-12
3.25038e-08
2.07702e-07
1.24854e-07
3.01852e-10
3.02307e-10
5.66552e-10
7.75912e-10
6.85323e-10
7.48763e-10
1.74918e-09
1.39105e-07
6.26705e-06
9.65281e-06
9.65281e-06
9.65235e-06
6.48617e-06
2.30506e-07
1.2049e-07
8.33956e-08
7.76496e-08
7.77087e-08
1.06474e-07
4.95176e-06
4.63348e-06
2.50616e-07
7.86202e-09
5.01593e-09
2.45993e-09
1.74984e-09
1.86615e-09
2.29666e-09
1.27542e-08
1.49509e-07
1.41048e-06
9.76404e-06
0.000401484
0.00201141
0.0020441
0.00204424
0.00200129
2.61277e-05
1.22667e-05
0.000147814
0.000522192
0.00280195
0.00280567
0.00223715
1.25344e-06
8.25085e-05
3.91571e-05
3.80141e-05
3.80141e-05
0.000656462
8.56167e-05
8.57515e-08
2.30045e-09
2.22718e-07
2.72829e-07
4.69883e-08
4.76166e-08
6.58122e-08
1.39105e-07
2.90969e-07
2.9109e-07
1.84789e-07
1.17096e-11
3.00028e-08
3.37112e-08
2.02775e-10
6.57557e-11
4.52825e-11
1.19916e-11
2.50377e-12
2.10069e-12
2.69069e-13
3.38535e-14
6.76651e-14
1.35226e-12
3.86392e-11
1.93393e-09
1.45509e-08
2.80402e-10
2.79423e-10
2.99726e-10
4.4282e-10
7.21283e-10
7.50765e-10
5.27557e-10
5.87239e-10
1.83284e-09
8.425e-07
9.13471e-06
9.65281e-06
9.65282e-06
9.65262e-06
7.73424e-07
4.69929e-07
2.1109e-07
9.54462e-08
7.78066e-08
7.51734e-08
7.24942e-08
6.3228e-07
2.77703e-06
7.02125e-07
5.69978e-09
2.46005e-09
1.68982e-09
8.95883e-10
5.91436e-10
1.33123e-09
1.20188e-08
1.69274e-07
1.78608e-06
2.42063e-05
0.00112482
0.00201472
0.0020442
0.00204097
0.00196185
1.51008e-05
1.22667e-05
0.000132266
0.000486045
0.00280567
0.00280195
0.000408929
1.01641e-06
9.68296e-05
0.000144346
3.81901e-05
3.78169e-05
3.81901e-05
8.85732e-05
8.33939e-08
4.01957e-08
3.32947e-07
8.08181e-08
4.73832e-08
4.69101e-08
4.76166e-08
4.98326e-08
5.53139e-08
8.96192e-08
7.43821e-08
6.98385e-08
5.31592e-08
5.15583e-08
9.46838e-09
1.80433e-09
8.14957e-10
1.02562e-10
3.37994e-12
1.20214e-12
5.71061e-13
5.7816e-14
6.6412e-14
2.49071e-12
1.76203e-10
1.04464e-09
2.90996e-10
2.79423e-10
2.77182e-10
3.2887e-10
4.8058e-10
5.93422e-10
5.24614e-10
2.344e-10
1.15614e-10
8.46326e-10
1.90367e-06
9.65271e-06
9.65282e-06
9.6527e-06
9.64699e-06
1.08275e-06
6.24906e-07
4.50803e-07
1.69888e-07
7.67046e-08
7.24942e-08
7.17956e-08
7.24928e-08
1.50348e-07
7.44446e-07
3.81772e-07
1.70055e-08
8.32603e-10
5.88287e-10
2.96704e-10
8.63476e-10
1.29684e-08
2.08112e-07
1.67172e-06
1.94211e-05
0.000740719
0.00166231
0.00201472
0.00201947
0.00183934
2.9283e-05
1.51008e-05
9.24855e-05
0.00187418
0.00280195
0.00254955
6.69859e-06
8.80726e-07
0.000169997
0.000581519
4.0643e-05
3.9897e-05
4.99097e-05
6.24834e-05
1.36957e-07
1.04597e-07
3.6037e-07
9.29259e-08
4.73832e-08
9.74453e-06
5.55298e-05
1.49599e-05
6.70189e-08
1.09436e-07
6.43067e-07
7.39352e-08
2.93002e-07
7.95644e-08
4.54048e-08
3.40249e-08
1.35069e-08
1.34933e-09
2.38007e-11
1.28034e-12
1.08102e-12
1.30952e-13
9.14424e-14
1.98623e-12
7.6618e-11
3.04251e-10
4.14461e-10
1.1499e-09
2.46222e-10
2.46222e-10
2.64119e-10
2.72107e-10
2.07793e-10
7.07015e-11
6.79913e-11
1.5011e-09
1.98425e-06
9.65049e-06
9.6527e-06
9.6521e-06
9.64882e-06
1.4626e-06
8.56646e-07
1.16514e-06
2.36975e-07
1.11508e-07
7.17956e-08
7.10367e-08
7.17317e-08
8.17004e-08
7.14903e-07
7.46187e-07
3.10209e-07
4.88595e-10
2.96794e-10
2.31985e-10
2.86362e-10
1.16061e-09
1.36366e-07
3.93418e-06
4.39442e-05
5.55996e-05
1.66566e-05
0.000578791
0.00177843
0.00176564
0.00112157
6.41727e-05
0.000360035
0.00259244
0.00276141
0.000398699
3.19406e-07
2.42445e-08
0.000392038
0.000581519
6.07516e-05
6.1023e-05
0.00010524
2.7881e-05
2.07726e-07
1.64843e-07
2.86274e-07
2.36731e-07
2.04712e-05
9.88491e-05
9.81993e-05
9.52093e-05
2.64271e-05
1.7814e-07
1.53302e-06
2.15468e-05
2.61743e-05
1.26103e-05
1.36012e-05
7.14436e-06
5.97739e-07
1.50082e-08
3.73123e-10
5.29593e-12
1.25182e-12
1.06034e-12
9.0683e-14
8.27016e-14
1.0633e-11
1.52689e-10
4.64817e-10
3.04379e-09
1.37142e-08
1.34032e-09
1.02636e-10
1.01227e-10
9.57544e-11
5.14589e-11
4.99988e-11
4.60466e-11
7.73824e-07
9.36827e-06
9.65049e-06
9.64875e-06
9.6296e-06
1.38497e-06
1.28341e-06
5.98821e-06
5.10937e-07
1.58924e-07
7.10367e-08
7.07533e-08
7.09728e-08
7.33717e-08
7.45756e-07
7.56263e-07
2.99293e-07
3.85377e-10
2.32014e-10
2.10674e-10
2.29086e-10
4.37286e-10
3.20784e-08
2.20796e-06
3.62015e-05
8.16939e-05
1.28815e-05
9.75484e-06
4.51235e-05
0.00123063
0.00142733
0.00114588
0.000928102
0.00117899
0.000621825
6.31832e-08
1.75921e-09
1.92912e-11
0.000149115
0.000582253
0.000218776
2.27893e-05
0.00010219
3.72323e-07
2.75987e-07
2.70919e-07
3.90969e-07
1.24439e-06
5.82152e-05
9.88491e-05
9.90903e-05
9.81993e-05
4.57372e-05
9.05278e-06
2.34644e-05
3.24807e-05
3.28477e-05
3.31702e-05
3.31702e-05
3.42419e-05
2.08555e-05
1.60537e-06
4.25625e-09
1.4346e-10
9.84672e-12
3.74515e-12
9.74894e-14
8.22594e-14
1.00033e-12
8.50958e-11
5.12351e-10
5.96877e-10
4.35455e-08
9.14628e-08
2.48188e-08
5.18595e-11
5.12923e-11
5.1274e-11
4.98952e-11
3.95435e-11
4.34185e-11
6.48068e-06
9.63159e-06
9.6333e-06
5.15954e-06
9.98407e-07
8.70296e-06
7.02951e-05
2.2087e-05
9.87401e-08
7.07533e-08
7.07533e-08
7.07533e-08
7.09636e-08
5.90016e-07
7.56263e-07
1.48851e-08
2.72648e-09
2.10745e-10
2.05792e-10
2.08955e-10
2.54973e-10
-7.25847e-10
4.05872e-08
7.26523e-06
7.27353e-05
1.19153e-05
7.66532e-06
4.95234e-06
3.5077e-06
0.00101341
0.00114112
0.00111599
3.36756e-05
6.31832e-08
1.75921e-09
1.92912e-11
1.36341e-13
6.09402e-05
0.000580261
0.000435296
1.00931e-05
3.09097e-05
4.64936e-07
3.7519e-07
4.47683e-07
5.88015e-07
1.41535e-05
9.89462e-05
9.90893e-05
9.88491e-05
1.48468e-05
8.38257e-06
1.95741e-05
2.28322e-05
2.03378e-05
1.36296e-05
2.46188e-05
3.37245e-05
3.53136e-05
3.61276e-05
2.98555e-05
4.59655e-08
3.08211e-08
3.7767e-10
2.07176e-12
1.68012e-13
8.22594e-14
1.02819e-13
2.1261e-11
6.58873e-10
9.75827e-10
3.69468e-08
1.17539e-07
1.17539e-07
2.45248e-08
5.12004e-11
4.99278e-11
4.98699e-11
3.8286e-11
2.12083e-11
1.39648e-06
8.53291e-06
9.50484e-06
1.90336e-07
6.10042e-07
3.26844e-05
0.000105656
8.84561e-05
8.50172e-08
7.07686e-08
7.07533e-08
7.07711e-08
7.10235e-08
1.13277e-07
5.81704e-07
9.19167e-07
2.47179e-10
2.05598e-10
2.08588e-10
2.0836e-10
1.83828e-10
4.73868e-10
-6.68032e-10
2.27157e-07
1.01552e-05
2.39901e-05
8.6554e-06
3.5077e-06
1.5556e-06
4.93194e-07
0.000445343
0.000326782
9.10945e-06
7.99773e-09
5.02294e-11
1.36341e-13
1.36341e-13
4.47723e-05
0.000574323
0.000495329
2.42319e-06
8.21722e-07
5.47243e-07
4.66055e-07
5.91864e-07
6.90372e-07
3.53207e-05
9.92846e-05
9.89462e-05
6.81611e-05
1.426e-06
9.94429e-07
2.29103e-06
3.15834e-06
7.76363e-07
8.66722e-07
1.00915e-06
1.40535e-06
2.0449e-05
3.70294e-05
3.70294e-05
1.38805e-05
2.37426e-07
6.16276e-10
2.4223e-11
9.2334e-13
1.36581e-13
1.02963e-13
1.02963e-13
6.38709e-10
5.0736e-09
7.26532e-09
8.48018e-08
1.17524e-07
1.14975e-07
5.77415e-09
5.17553e-11
4.9845e-11
3.93104e-11
7.42278e-12
2.72855e-12
4.65984e-07
1.61361e-06
1.11145e-07
1.5633e-06
6.79158e-05
0.000105786
0.000105656
7.23953e-06
7.08234e-08
7.07711e-08
7.08691e-08
7.13939e-08
7.53772e-08
6.80801e-07
1.45585e-06
1.86744e-09
1.8391e-08
8.38055e-09
2.43304e-10
4.42626e-10
2.52324e-12
2.83501e-09
6.69637e-08
3.5925e-07
1.46773e-05
1.7708e-05
1.40248e-05
1.40773e-06
4.51146e-07
4.5152e-07
4.50156e-07
1.81138e-06
1.33237e-06
1.56525e-08
2.3582e-11
1.36341e-13
5.49422e-06
0.000273308
0.000498162
7.99355e-05
6.91824e-07
6.80914e-07
5.50801e-07
6.07035e-07