/*--------------------------------*- C++ -*----------------------------------*\
| =========                 |                                                 |
| \\      /  F ield         | OpenFOAM: The Open Source CFD Toolbox           |
|  \\    /   O peration     | Version:  2412                                  |
|   \\  /    A nd           | Website:  www.openfoam.com                      |
|    \\/     M anipulation  |                                                 |
\*---------------------------------------------------------------------------*/
FoamFile
{
    version     2.0;
    format      ascii;
    arch        "LSB;label=32;scalar=64";
    class       volScalarField;
    location    "1.6";
    object      p;
}
// * * * * * * * * * * * * * * * * * * * * * * * * * * * * * * * * * * * * * //

dimensions      [1 -1 -2 0 0 0 0];

internalField   nonuniform List<scalar> 
6400
(
24060
24054.9
24054.1
24055.8
24059.8
24065.7
24071.5
24075.1
24075.5
24074.1
24073.4
24075.7
24081.2
24087.4
24090.6
24088.7
24082.2
24074.6
24069.1
24067.1
24067.2
24066.4
24062.6
24055.5
24046.3
24037
24028.8
24021.9
24015.8
24010
24004.1
23998.5
23993.3
23988.7
23985
23982.1
23980
23978.6
23978
23978.4
23979.6
23981.7
23984.5
23988
23991.9
23996.2
24000.7
24005.4
24010.2
24014.9
24019.6
24023.9
24027.8
24031.2
24034
24036.2
24037.6
24038.3
24038
24036.7
24034.4
24031.1
24027.1
24022.7
24017.9
24012.7
24006.7
23999.8
23992.1
23984.3
23977.7
23972.8
23969.3
23965.7
23960.3
23952.4
23943.5
23936.2
23932.6
23932
22832.8
22830.1
22829.8
22829.8
22830.9
22834.4
22840.2
22846.6
22851.3
22853
22852
22850.7
22851.6
22855.4
22860.5
22863.7
22862.5
22857
22849.5
22843
22838.7
22836.1
22833.2
22828.3
22821.3
22813
22804.6
22796.9
22790
22783.8
22777.8
22772.1
22766.9
22762.3
22758.4
22755.4
22753.3
22751.9
22751.3
22751.5
22752.5
22754.3
22756.8
22760
22763.7
22767.9
22772.3
22776.9
22781.5
22786.1
22790.5
22794.7
22798.5
22801.8
22804.4
22806.4
22807.7
22808.3
22808.2
22807.3
22805.5
22802.6
22798.8
22794.4
22789.5
22784.5
22779.4
22773.8
22767.3
22759.8
22752.1
22745.3
22740.7
22738.7
22738
22736.6
22732.8
22726.2
22717.9
22706
21606.9
21606.4
21607.4
21607
21605.8
21606.1
21609.6
21616.1
21623.4
21628.5
21629.4
21626.6
21623.2
21622.7
21626.2
21631.4
21634.5
21632.7
21626.1
21617.5
21609.9
21604.6
21601
21597.4
21592.3
21585.5
21577.7
21570
21562.9
21556.5
21550.7
21545.3
21540.3
21535.9
21532.1
21529.2
21527.2
21525.9
21525.4
21525.6
21526.5
21528.1
21530.5
21533.5
21537
21541
21545.4
21549.9
21554.5
21559
21563.4
21567.6
21571.4
21574.7
21577.4
21579.4
21580.6
21581.1
21580.9
21580.1
21578.6
21576
21572.4
21567.7
21562.3
21556.9
21551.8
21546.8
21541.2
21534.4
21526
21517.1
21510
21506.5
21507.2
21509.8
21510.7
21506.8
21497.6
21482
20379.1
20380.1
20382.8
20383.8
20382.2
20380.1
20379.9
20383.7
20391.1
20399.1
20403.8
20403
20398
20392.9
20391.7
20395.2
20400.3
20402.8
20399.9
20392.3
20383.1
20375.2
20369.8
20365.9
20362
20356.7
20350.1
20342.9
20335.8
20329.4
20323.7
20318.6
20313.9
20309.6
20306
20303.1
20301
20299.8
20299.4
20299.6
20300.4
20302
20304.1
20306.9
20310.2
20314
20318.1
20322.5
20327
20331.5
20335.8
20339.8
20343.6
20347
20349.7
20351.7
20352.9
20353.3
20352.9
20352
20350.5
20348.3
20345
20340.5
20334.8
20328.7
20322.9
20318
20313.4
20308
20300.5
20290.9
20281.1
20274.1
20272.6
20276
20280.5
20280.9
20274.5
20260.3
19149.9
19150.5
19154.3
19157.6
19158.2
19156.1
19153.1
19152.5
19156.3
19164.2
19172.5
19176.5
19174.2
19167.6
19161.5
19159.9
19162.9
19167.2
19168.5
19164.8
19157
19148.2
19140.8
19135.5
19131.3
19126.9
19121.4
19115.1
19108.5
19102.3
19096.7
19091.7
19087.2
19083.2
19079.7
19076.8
19074.6
19073.3
19072.8
19073
19073.8
19075.2
19077.2
19079.7
19082.8
19086.3
19090.2
19094.3
19098.6
19102.9
19107
19110.9
19114.5
19117.8
19120.6
19122.8
19124.1
19124.4
19123.9
19122.7
19121.1
19119
19116.2
19112.2
19106.8
19100.3
19093.6
19087.9
19083.5
19079.7
19074.6
19066.5
19056
19045.7
19039.7
19040
19044.9
19049
19047.7
19038.8
17921.3
17919.4
17922.4
17927.1
17930.8
17931.7
17929.1
17925.1
17923.6
17927.4
17935.7
17944
17947.4
17943.9
17936.2
17929.5
17927.3
17929.5
17932.6
17932.8
17928.6
17921.2
17913.2
17906.3
17901
17896.5
17891.7
17886.3
17880.4
17874.6
17869.2
17864.3
17860.1
17856.2
17852.9
17850
17847.8
17846.3
17845.6
17845.7
17846.4
17847.7
17849.5
17851.9
17854.7
17857.9
17861.5
17865.4
17869.5
17873.5
17877.5
17881.2
17884.6
17887.7
17890.4
17892.7
17894.2
17894.7
17894.2
17892.8
17890.8
17888.5
17886
17882.8
17878.2
17872
17864.7
17857.7
17852.4
17849
17846.3
17841.5
17833.1
17822.1
17812.2
17807.5
17809.2
17814.3
17817.3
17814.8
16694
16688.7
16689
16692.6
16698.2
16703.1
16704.3
16700.9
16695.6
16693.4
16697.2
16705.8
16713.9
16716.4
16712.1
16703.9
16696.9
16694.3
16695.5
16697.2
16696.3
16691.9
16685.1
16677.8
16671.5
16666.2
16661.5
16656.6
16651.4
16646
16640.9
16636.2
16632.1
16628.4
16625.3
16622.5
16620.3
16618.7
16617.9
16617.7
16618.2
16619.4
16621.1
16623.3
16625.9
16628.9
16632.2
16635.8
16639.6
16643.5
16647.3
16650.8
16654
16656.8
16659.3
16661.5
16663.2
16664
16663.8
16662.4
16660.2
16657.5
16654.8
16652.1
16648.5
16643.4
16636.4
16628.4
16621.4
16616.8
16614.8
16613.1
16608.7
16600.2
16589.5
16580.8
16577.9
16580.7
16585.2
16587.1
15466.5
15459.4
15456.8
15457.2
15461.4
15468.5
15474.5
15475.6
15471.1
15464.8
15462.1
15465.9
15474.3
15481.7
15483.4
15478.6
15470.5
15463.7
15460.8
15460.9
15461.2
15459.4
15454.8
15448.5
15442
15436.2
15431.1
15426.4
15421.6
15416.7
15411.9
15407.4
15403.3
15399.8
15396.8
15394.3
15392.1
15390.5
15389.5
15389.2
15389.5
15390.4
15391.9
15393.9
15396.4
15399.1
15402.2
15405.5
15409.1
15412.7
15416.4
15419.8
15422.8
15425.4
15427.5
15429.4
15431
15432.2
15432.4
15431.5
15429.2
15426.2
15423
15420.2
15417.3
15413.6
15407.9
15400.2
15391.8
15385.1
15381.5
15380.7
15379.8
15375.7
15367.6
15358.1
15351.6
15350.5
15353.5
15356.5
14236.3
14230.6
14227
14224
14224.1
14229.5
14237.9
14244.5
14245.1
14239.7
14232.8
14229.9
14233.5
14241.2
14247.5
14248.3
14243.4
14235.9
14229.6
14226.5
14225.5
14224.6
14222
14217.4
14211.7
14205.9
14200.6
14195.8
14191.2
14186.7
14182.2
14177.9
14173.9
14170.5
14167.6
14165.2
14163.2
14161.6
14160.6
14160.1
14160.1
14160.9
14162.1
14164
14166.2
14168.8
14171.6
14174.6
14177.8
14181.3
14184.7
14188.1
14191.1
14193.6
14195.5
14196.9
14198.2
14199.2
14199.9
14199.5
14197.8
14194.8
14191.2
14187.7
14184.8
14182.1
14178.3
14172.1
14163.9
14155.4
14149.2
14146.7
14146.7
14146.2
14142.4
14135.4
14127.9
14123.8
14123.6
14124.8
13001.6
13000
12998.3
12994.2
12990.1
12990.5
12996.8
13006.1
13012.7
13012.7
13006.8
12999.7
12996.8
13000
13006.5
13011.4
13011.4
13006.7
13000
12994.4
12991.1
12989.3
12987.3
12984.2
12979.7
12974.5
12969.4
12964.6
12960.2
12955.9
12951.7
12947.7
12943.9
12940.5
12937.6
12935.3
12933.4
12931.9
12930.9
12930.3
12930.3
12930.8
12931.8
12933.4
12935.4
12937.8
12940.4
12943.2
12946.1
12949.1
12952.3
12955.5
12958.6
12961.1
12963
12964.2
12965
12965.7
12966.2
12966.4
12965.5
12963.1
12959.4
12955.3
12951.8
12949.2
12946.7
12942.8
12936.3
12927.9
12919.6
12914.2
12912.6
12913.1
12912.8
12909.5
12903.8
12898.5
12895.6
12893.8
11762.8
11765.3
11767.5
11765.7
11760.2
11755.7
11756.5
11763.4
11772.8
11779
11778.4
11772.4
11765.6
11763
11765.4
11770.4
11773.8
11773.1
11768.7
11763
11758.1
11754.7
11752.2
11749.6
11746.1
11741.8
11737.2
11732.6
11728.4
11724.3
11720.5
11716.7
11713.1
11709.9
11707
11704.7
11702.8
11701.4
11700.5
11699.9
11699.8
11700.1
11701
11702.3
11704.1
11706.2
11708.7
11711.2
11713.9
11716.5
11719.3
11722.2
11725.2
11727.8
11729.9
11731.1
11731.7
11731.8
11732
11732.2
11731.9
11730.5
11727.5
11723.3
11719
11715.6
11713.4
11711.2
11707.3
11700.7
11692.4
11684.9
11680.4
11679.5
11680.2
11680
11677.2
11672.8
11668.5
11664.3
10522.5
10526.3
10531.9
10534.4
10531.5
10525.3
10520.8
10522
10529.1
10538
10543.4
10542.3
10536.6
10530.6
10528.1
10529.8
10533.1
10535
10533.7
10529.8
10524.9
10520.6
10517.3
10514.4
10511.4
10507.8
10503.8
10499.7
10495.6
10491.8
10488.3
10484.8
10481.6
10478.5
10475.8
10473.5
10471.6
10470.3
10469.3
10468.8
10468.7
10468.9
10469.6
10470.7
10472.2
10474.1
10476.4
10478.8
10481.2
10483.6
10486
10488.4
10491
10493.6
10495.8
10497.4
10498
10498
10497.6
10497.3
10497.2
10496.6
10494.8
10491.2
10486.7
10482.4
10479.4
10477.6
10475.7
10471.9
10465.5
10457.8
10451.2
10447.7
10447.5
10448.4
10448.1
10445.5
10441.4
10436.1
9283.86
9285.29
9291.23
9297.2
9299.14
9295.82
9289.69
9285.55
9287
9293.7
9301.56
9305.82
9304.48
9299.36
9294.28
9292.08
9292.9
9294.75
9295.33
9293.61
9290.1
9285.99
9282.22
9278.99
9276
9272.86
9269.39
9265.71
9262.02
9258.5
9255.19
9252.08
9249.14
9246.38
9243.87
9241.67
9239.87
9238.51
9237.6
9237.1
9236.97
9237.2
9237.75
9238.64
9239.89
9241.54
9243.54
9245.78
9248.1
9250.33
9252.4
9254.39
9256.45
9258.66
9260.88
9262.73
9263.78
9263.86
9263.23
9262.45
9261.95
9261.63
9260.74
9258.46
9254.6
9249.95
9245.88
9243.36
9242.01
9240.31
9236.62
9230.61
9223.73
9218.36
9216.07
9216.41
9217.3
9216.62
9213.8
9208.82
8048.3
8045.03
8048.24
8054.65
8060.57
8062.35
8059
8053.24
8049.67
8051.21
8057.07
8063.45
8066.54
8065.05
8060.76
8056.65
8054.68
8054.74
8055.35
8054.94
8052.97
8049.84
8046.35
8043.05
8040.04
8037.11
8034.07
8030.85
8027.57
8024.36
8021.34
8018.54
8015.93
8013.5
8011.27
8009.29
8007.61
8006.29
8005.38
8004.87
8004.74
8004.95
8005.45
8006.21
8007.24
8008.59
8010.28
8012.27
8014.44
8016.59
8018.54
8020.25
8021.83
8023.48
8025.31
8027.15
8028.57
8029.14
8028.71
8027.66
8026.62
8025.99
8025.54
8024.42
8021.85
8017.81
8013.29
8009.66
8007.66
8006.69
8005.14
8001.61
7996.1
7990.26
7986.25
7985.09
7985.86
7986.42
7985.24
7981.7
6814.37
6807.19
6806.43
6810.25
6816.92
6822.68
6824.13
6820.89
6815.84
6812.98
6814.43
6819.13
6823.87
6825.81
6824.3
6820.86
6817.63
6815.88
6815.36
6815.05
6813.99
6811.93
6809.17
6806.22
6803.36
6800.65
6797.95
6795.18
6792.34
6789.52
6786.82
6784.32
6782.02
6779.93
6778.02
6776.31
6774.84
6773.64
6772.77
6772.26
6772.11
6772.29
6772.75
6773.43
6774.31
6775.4
6776.75
6778.39
6780.29
6782.3
6784.21
6785.84
6787.14
6788.31
6789.56
6791.02
6792.48
6793.48
6793.58
6792.75
6791.43
6790.3
6789.65
6789.13
6787.85
6785.13
6781.14
6776.99
6773.93
6772.47
6771.79
6770.3
6766.92
6762.01
6757.31
6754.63
6754.4
6755.33
6755.6
6754.02
5578.86
5570.97
5567.57
5567.82
5572.15
5578.54
5583.48
5584.39
5581.47
5577.38
5575.27
5576.47
5579.88
5583.02
5583.98
5582.53
5579.86
5577.39
5575.84
5574.95
5574.07
5572.68
5570.69
5568.32
5565.85
5563.45
5561.11
5558.77
5556.4
5554.02
5551.71
5549.54
5547.57
5545.79
5544.21
5542.81
5541.59
5540.59
5539.82
5539.34
5539.16
5539.3
5539.71
5540.34
5541.12
5542.03
5543.07
5544.33
5545.83
5547.55
5549.33
5550.94
5552.2
5553.1
5553.87
5554.76
5555.87
5556.95
5557.54
5557.25
5556.14
5554.74
5553.66
5553.1
5552.57
5551.21
5548.5
5544.79
5541.22
5538.86
5537.92
5537.42
5535.93
5532.7
5528.45
5524.89
5523.39
5523.88
5524.93
5525.15
4339.21
4333.88
4330.64
4328.8
4329.87
4333.99
4339.27
4342.97
4343.35
4340.94
4337.89
4336.45
4337.31
4339.49
4341.25
4341.47
4340.15
4338.15
4336.29
4334.94
4333.89
4332.77
4331.32
4329.54
4327.58
4325.59
4323.65
4321.75
4319.85
4317.96
4316.1
4314.33
4312.7
4311.24
4309.97
4308.87
4307.94
4307.17
4306.57
4306.17
4306
4306.08
4306.42
4306.97
4307.67
4308.46
4309.3
4310.22
4311.3
4312.59
4314.05
4315.52
4316.77
4317.65
4318.18
4318.6
4319.18
4319.96
4320.69
4320.9
4320.32
4319.11
4317.8
4316.93
4316.53
4316.04
4314.7
4312.19
4308.99
4306.18
4304.58
4304.11
4303.71
4302.14
4299.1
4295.55
4293.1
4292.64
4293.65
4294.9
3094.89
3093.58
3092.78
3091.45
3090.77
3092.06
3095.31
3099.04
3101.36
3101.29
3099.45
3097.39
3096.5
3096.99
3098.13
3098.84
3098.58
3097.46
3096.01
3094.65
3093.52
3092.5
3091.39
3090.09
3088.63
3087.11
3085.61
3084.16
3082.73
3081.33
3079.96
3078.63
3077.4
3076.3
3075.34
3074.54
3073.88
3073.36
3072.97
3072.71
3072.59
3072.65
3072.91
3073.35
3073.94
3074.61
3075.31
3076
3076.73
3077.57
3078.59
3079.72
3080.82
3081.67
3082.16
3082.37
3082.54
3082.88
3083.38
3083.77
3083.68
3082.96
3081.84
3080.83
3080.28
3080.09
3079.7
3078.51
3076.42
3073.99
3072.11
3071.27
3071.1
3070.58
3068.85
3066.03
3063.24
3061.85
3062.2
3063.68
1847.31
1849.28
1851.26
1852.02
1851.85
1851.81
1852.78
1854.68
1856.61
1857.56
1857.2
1856.01
1854.86
1854.37
1854.51
1854.84
1854.87
1854.41
1853.58
1852.63
1851.73
1850.91
1850.1
1849.24
1848.31
1847.33
1846.34
1845.4
1844.49
1843.62
1842.78
1841.98
1841.23
1840.56
1839.98
1839.51
1839.15
1838.88
1838.71
1838.61
1838.6
1838.68
1838.87
1839.17
1839.59
1840.08
1840.6
1841.09
1841.56
1842.03
1842.58
1843.23
1843.93
1844.56
1844.99
1845.16
1845.17
1845.19
1845.34
1845.57
1845.68
1845.43
1844.83
1844.09
1843.56
1843.39
1843.4
1843.18
1842.39
1841.09
1839.73
1838.81
1838.47
1838.2
1837.3
1835.38
1832.93
1831.1
1830.95
1832.62
603.069
605.312
607.211
608.536
609.149
609.3
609.37
609.611
609.976
610.251
610.254
609.99
609.628
609.346
609.222
609.187
609.137
608.987
608.742
608.443
608.144
607.862
607.594
607.322
607.043
606.756
606.476
606.209
605.961
605.732
605.52
605.326
605.15
604.998
604.873
604.778
604.716
604.685
604.682
604.704
604.746
604.807
604.891
605
605.136
605.297
605.469
605.637
605.787
605.919
606.047
606.189
606.352
606.518
606.65
606.713
606.707
606.667
606.646
606.668
606.706
606.695
606.592
606.419
606.267
606.222
606.302
606.422
606.456
606.323
606.061
605.791
605.59
605.387
604.957
604.113
602.93
601.902
601.919
603.8
-10.0499
-10.0434
-10.0458
-10.0476
-10.0485
-10.0497
-10.051
-10.0518
-10.0524
-10.0529
-10.0532
-10.0534
-10.0536
-10.0537
-10.0537
-10.0537
-10.0535
-10.0533
-10.0532
-10.0524
-10.0515
-10.0507
-10.0498
-10.0487
-10.0476
-10.0464
-10.0451
-10.0438
-10.0425
-10.0408
-10.0387
-10.0368
-10.0353
-10.0338
-10.0327
-10.0319
-10.0315
-10.0313
-10.0314
-10.0318
-10.0326
-10.0335
-10.0345
-10.0342
-10.0342
-10.0345
-10.0348
-10.0353
-10.0359
-10.0365
-10.0372
-10.0379
-10.0388
-10.0397
-10.0405
-10.0412
-10.0417
-10.0421
-10.0413
-10.0398
-10.0383
-10.0369
-10.0356
-10.0342
-10.0329
-10.0318
-10.031
-10.0304
-10.0299
-10.0297
-10.0297
-10.0299
-10.0309
-10.032
-10.0339
-10.0358
-10.0368
-10.037
-10.0343
-10.0334
-10.5458
-10.5459
-10.5457
-10.5456
-10.5456
-10.5457
-10.5457
-10.5457
-10.5456
-10.5456
-10.5457
-10.5457
-10.5457
-10.5457
-10.5457
-10.5456
-10.5457
-10.5456
-10.5456
-10.5456
-10.5456
-10.5456
-10.5456
-10.5456
-10.5456
-10.5456
-10.5456
-10.5456
-10.5456
-10.5456
-10.5456
-10.5456
-10.5456
-10.5456
-10.5456
-10.5456
-10.5456
-10.5456
-10.5456
-10.5456
-10.5456
-10.5456
-10.5456
-10.5456
-10.5456
-10.5456
-10.5456
-10.5456
-10.5456
-10.5456
-10.5456
-10.5456
-10.5456
-10.5456
-10.5456
-10.5456
-10.5457
-10.5456
-10.5456
-10.5457
-10.5457
-10.5457
-10.5457
-10.5457
-10.5457
-10.5457
-10.5457
-10.5457
-10.5457
-10.5457
-10.5457
-10.5457
-10.5457
-10.5457
-10.5457
-10.5457
-10.5457
-10.5457
-10.5457
-10.5457
-11.0362
-11.0363
-11.0362
-11.0361
-11.0361
-11.0361
-11.0362
-11.0362
-11.0362
-11.0361
-11.0361
-11.0362
-11.0362
-11.0361
-11.0361
-11.0361
-11.0361
-11.0361
-11.0361
-11.0361
-11.0361
-11.0361
-11.0361
-11.0361
-11.0361
-11.0361
-11.0361
-11.0361
-11.0361
-11.0361
-11.0361
-11.0361
-11.0361
-11.0361
-11.0361
-11.0361
-11.0361
-11.0361
-11.0361
-11.0361
-11.0361
-11.0361
-11.0361
-11.0361
-11.0361
-11.0361
-11.0361
-11.0361
-11.0361
-11.0361
-11.0361
-11.0361
-11.0361
-11.0361
-11.0361
-11.0361
-11.0361
-11.0361
-11.0361
-11.0362
-11.0362
-11.0362
-11.0362
-11.0362
-11.0362
-11.0362
-11.0362
-11.0362
-11.0362
-11.0362
-11.0362
-11.0362
-11.0362
-11.0362
-11.0362
-11.0362
-11.0362
-11.0362
-11.0362
-11.0362
-11.5265
-11.5267
-11.5268
-11.5267
-11.5266
-11.5266
-11.5266
-11.5267
-11.5267
-11.5266
-11.5266
-11.5266
-11.5266
-11.5266
-11.5266
-11.5266
-11.5266
-11.5266
-11.5266
-11.5266
-11.5266
-11.5266
-11.5266
-11.5266
-11.5266
-11.5266
-11.5266
-11.5266
-11.5266
-11.5266
-11.5266
-11.5266
-11.5266
-11.5266
-11.5266
-11.5266
-11.5266
-11.5266
-11.5266
-11.5266
-11.5266
-11.5266
-11.5266
-11.5266
-11.5266
-11.5266
-11.5266
-11.5266
-11.5266
-11.5266
-11.5266
-11.5266
-11.5266
-11.5266
-11.5266
-11.5266
-11.5266
-11.5267
-11.5266
-11.5266
-11.5267
-11.5267
-11.5267
-11.5267
-11.5267
-11.5267
-11.5267
-11.5267
-11.5267
-11.5267
-11.5267
-11.5267
-11.5267
-11.5267
-11.5267
-11.5267
-11.5267
-11.5267
-11.5267
-11.5267
-12.017
-12.017
-12.0172
-12.0172
-12.0172
-12.0171
-12.0171
-12.0172
-12.0172
-12.0172
-12.0171
-12.0171
-12.0171
-12.0171
-12.0171
-12.0171
-12.0171
-12.0171
-12.0171
-12.0171
-12.0171
-12.0171
-12.0171
-12.0171
-12.0171
-12.0171
-12.0171
-12.0171
-12.0171
-12.0171
-12.0171
-12.0171
-12.0171
-12.0171
-12.0171
-12.0171
-12.0171
-12.0171
-12.0171
-12.0171
-12.0171
-12.0171
-12.0171
-12.0171
-12.0171
-12.0171
-12.0171
-12.0171
-12.0171
-12.0171
-12.0171
-12.0171
-12.0171
-12.0171
-12.0171
-12.0171
-12.0171
-12.0172
-12.0172
-12.0172
-12.0172
-12.0172
-12.0172
-12.0172
-12.0172
-12.0172
-12.0172
-12.0172
-12.0172
-12.0172
-12.0172
-12.0172
-12.0172
-12.0172
-12.0172
-12.0172
-12.0172
-12.0172
-12.0172
-12.0172
-12.5077
-12.5076
-12.5076
-12.5077
-12.5077
-12.5077
-12.5076
-12.5076
-12.5077
-12.5077
-12.5077
-12.5077
-12.5076
-12.5076
-12.5076
-12.5076
-12.5076
-12.5076
-12.5076
-12.5076
-12.5076
-12.5076
-12.5076
-12.5076
-12.5076
-12.5076
-12.5076
-12.5076
-12.5076
-12.5076
-12.5076
-12.5076
-12.5076
-12.5076
-12.5076
-12.5076
-12.5076
-12.5076
-12.5076
-12.5076
-12.5076
-12.5076
-12.5076
-12.5076
-12.5076
-12.5076
-12.5076
-12.5076
-12.5076
-12.5076
-12.5076
-12.5076
-12.5076
-12.5076
-12.5076
-12.5076
-12.5076
-12.5077
-12.5077
-12.5077
-12.5077
-12.5077
-12.5077
-12.5077
-12.5077
-12.5077
-12.5077
-12.5077
-12.5077
-12.5077
-12.5077
-12.5077
-12.5077
-12.5077
-12.5077
-12.5077
-12.5077
-12.5077
-12.5077
-12.5077
-12.9982
-12.9982
-12.9981
-12.9981
-12.9982
-12.9982
-12.9982
-12.9981
-12.9982
-12.9982
-12.9982
-12.9982
-12.9982
-12.9981
-12.9981
-12.9981
-12.9981
-12.9981
-12.9981
-12.9981
-12.9981
-12.9981
-12.9981
-12.9981
-12.9981
-12.9981
-12.9981
-12.9981
-12.9981
-12.9981
-12.9981
-12.9981
-12.9981
-12.9981
-12.9981
-12.9981
-12.9981
-12.9981
-12.9981
-12.9981
-12.9981
-12.9981
-12.9981
-12.9981
-12.9981
-12.9981
-12.9981
-12.9981
-12.9981
-12.9981
-12.9981
-12.9981
-12.9981
-12.9981
-12.9981
-12.9981
-12.9981
-12.9982
-12.9982
-12.9982
-12.9982
-12.9982
-12.9982
-12.9982
-12.9982
-12.9982
-12.9982
-12.9982
-12.9982
-12.9982
-12.9982
-12.9982
-12.9982
-12.9982
-12.9982
-12.9982
-12.9982
-12.9982
-12.9982
-12.9982
-13.4887
-13.4887
-13.4887
-13.4886
-13.4886
-13.4887
-13.4887
-13.4887
-13.4887
-13.4887
-13.4887
-13.4887
-13.4887
-13.4887
-13.4886
-13.4886
-13.4886
-13.4886
-13.4886
-13.4886
-13.4886
-13.4886
-13.4886
-13.4886
-13.4886
-13.4886
-13.4886
-13.4886
-13.4886
-13.4886
-13.4886
-13.4886
-13.4886
-13.4886
-13.4886
-13.4886
-13.4886
-13.4886
-13.4886
-13.4886
-13.4886
-13.4886
-13.4886
-13.4886
-13.4886
-13.4886
-13.4886
-13.4886
-13.4886
-13.4886
-13.4886
-13.4886
-13.4886
-13.4886
-13.4886
-13.4886
-13.4886
-13.4886
-13.4887
-13.4887
-13.4887
-13.4887
-13.4887
-13.4887
-13.4887
-13.4887
-13.4887
-13.4887
-13.4887
-13.4887
-13.4887
-13.4887
-13.4887
-13.4887
-13.4887
-13.4887
-13.4887
-13.4887
-13.4887
-13.4887
-13.9792
-13.9792
-13.9792
-13.9792
-13.9791
-13.9792
-13.9792
-13.9792
-13.9792
-13.9792
-13.9792
-13.9792
-13.9792
-13.9792
-13.9791
-13.9791
-13.9791
-13.9791
-13.9791
-13.9791
-13.9791
-13.9791
-13.9791
-13.9791
-13.9791
-13.9791
-13.9791
-13.9791
-13.9791
-13.9791
-13.9791
-13.9791
-13.9791
-13.9791
-13.9791
-13.9791
-13.9791
-13.9791
-13.9791
-13.9791
-13.9791
-13.9791
-13.9791
-13.9791
-13.9791
-13.9791
-13.9791
-13.9791
-13.9791
-13.9791
-13.9791
-13.9791
-13.9791
-13.9791
-13.9791
-13.9792
-13.9791
-13.9791
-13.9792
-13.9792
-13.9792
-13.9792
-13.9792
-13.9792
-13.9792
-13.9792
-13.9792
-13.9792
-13.9792
-13.9792
-13.9792
-13.9792
-13.9792
-13.9792
-13.9792
-13.9792
-13.9792
-13.9792
-13.9792
-13.9792
-14.4696
-14.4697
-14.4697
-14.4697
-14.4697
-14.4697
-14.4697
-14.4697
-14.4697
-14.4697
-14.4697
-14.4697
-14.4697
-14.4697
-14.4697
-14.4696
-14.4696
-14.4696
-14.4696
-14.4696
-14.4696
-14.4696
-14.4696
-14.4696
-14.4696
-14.4696
-14.4696
-14.4696
-14.4696
-14.4696
-14.4696
-14.4696
-14.4696
-14.4696
-14.4696
-14.4696
-14.4696
-14.4696
-14.4696
-14.4696
-14.4696
-14.4696
-14.4696
-14.4696
-14.4696
-14.4696
-14.4696
-14.4696
-14.4696
-14.4696
-14.4696
-14.4696
-14.4696
-14.4696
-14.4696
-14.4697
-14.4697
-14.4697
-14.4696
-14.4697
-14.4697
-14.4697
-14.4697
-14.4697
-14.4697
-14.4697
-14.4697
-14.4697
-14.4697
-14.4697
-14.4697
-14.4697
-14.4697
-14.4697
-14.4697
-14.4697
-14.4697
-14.4697
-14.4697
-14.4697
-14.9601
-14.9601
-14.9602
-14.9602
-14.9602
-14.9602
-14.9602
-14.9602
-14.9602
-14.9602
-14.9602
-14.9602
-14.9602
-14.9602
-14.9602
-14.9601
-14.9601
-14.9601
-14.9601
-14.9601
-14.9601
-14.9601
-14.9601
-14.9601
-14.9601
-14.9601
-14.9601
-14.9601
-14.9601
-14.9601
-14.9601
-14.9601
-14.9601
-14.9601
-14.9601
-14.9601
-14.9601
-14.9601
-14.9601
-14.9601
-14.9601
-14.9601
-14.9601
-14.9601
-14.9601
-14.9601
-14.9601
-14.9601
-14.9601
-14.9601
-14.9601
-14.9601
-14.9601
-14.9601
-14.9601
-14.9601
-14.9602
-14.9602
-14.9602
-14.9601
-14.9602
-14.9602
-14.9602
-14.9602
-14.9602
-14.9602
-14.9602
-14.9602
-14.9602
-14.9602
-14.9602
-14.9602
-14.9602
-14.9602
-14.9602
-14.9602
-14.9602
-14.9602
-14.9602
-14.9602
-15.4507
-15.4507
-15.4507
-15.4507
-15.4507
-15.4507
-15.4507
-15.4507
-15.4507
-15.4507
-15.4507
-15.4507
-15.4507
-15.4507
-15.4507
-15.4506
-15.4506
-15.4506
-15.4506
-15.4506
-15.4506
-15.4506
-15.4506
-15.4506
-15.4506
-15.4506
-15.4506
-15.4506
-15.4506
-15.4506
-15.4506
-15.4506
-15.4506
-15.4506
-15.4506
-15.4506
-15.4506
-15.4506
-15.4506
-15.4506
-15.4506
-15.4506
-15.4506
-15.4506
-15.4506
-15.4506
-15.4506
-15.4506
-15.4506
-15.4506
-15.4506
-15.4506
-15.4506
-15.4507
-15.4506
-15.4506
-15.4506
-15.4507
-15.4507
-15.4507
-15.4506
-15.4507
-15.4507
-15.4507
-15.4507
-15.4507
-15.4507
-15.4507
-15.4507
-15.4507
-15.4507
-15.4507
-15.4507
-15.4507
-15.4507
-15.4507
-15.4507
-15.4507
-15.4507
-15.4507
-15.9412
-15.9412
-15.9412
-15.9412
-15.9412
-15.9412
-15.9412
-15.9412
-15.9412
-15.9412
-15.9412
-15.9412
-15.9412
-15.9412
-15.9412
-15.9412
-15.9411
-15.9411
-15.9411
-15.9411
-15.9411
-15.9411
-15.9411
-15.9411
-15.9411
-15.9411
-15.9411
-15.9411
-15.9411
-15.9411
-15.9411
-15.9411
-15.9411
-15.9411
-15.9411
-15.9411
-15.9411
-15.9411
-15.9411
-15.9411
-15.9411
-15.9411
-15.9411
-15.9411
-15.9411
-15.9411
-15.9411
-15.9411
-15.9411
-15.9411
-15.9411
-15.9411
-15.9411
-15.9412
-15.9412
-15.9411
-15.9411
-15.9412
-15.9412
-15.9412
-15.9412
-15.9411
-15.9412
-15.9412
-15.9412
-15.9412
-15.9412
-15.9412
-15.9412
-15.9412
-15.9412
-15.9412
-15.9412
-15.9412
-15.9412
-15.9412
-15.9412
-15.9412
-15.9412
-15.9412
-16.4317
-16.4317
-16.4317
-16.4317
-16.4317
-16.4317
-16.4317
-16.4317
-16.4317
-16.4317
-16.4317
-16.4317
-16.4317
-16.4317
-16.4317
-16.4317
-16.4316
-16.4316
-16.4316
-16.4316
-16.4316
-16.4316
-16.4316
-16.4316
-16.4316
-16.4316
-16.4316
-16.4316
-16.4316
-16.4316
-16.4316
-16.4316
-16.4316
-16.4316
-16.4316
-16.4316
-16.4316
-16.4316
-16.4316
-16.4316
-16.4316
-16.4316
-16.4316
-16.4316
-16.4316
-16.4316
-16.4316
-16.4316
-16.4316
-16.4316
-16.4316
-16.4316
-16.4316
-16.4316
-16.4317
-16.4317
-16.4316
-16.4316
-16.4317
-16.4317
-16.4317
-16.4317
-16.4316
-16.4317
-16.4317
-16.4317
-16.4317
-16.4317
-16.4317
-16.4317
-16.4317
-16.4317
-16.4317
-16.4317
-16.4317
-16.4317
-16.4317
-16.4317
-16.4317
-16.4317
-16.9222
-16.9222
-16.9222
-16.9222
-16.9222
-16.9222
-16.9222
-16.9222
-16.9222
-16.9222
-16.9222
-16.9222
-16.9222
-16.9222
-16.9222
-16.9222
-16.9222
-16.9221
-16.9221
-16.9221
-16.9221
-16.9221
-16.9221
-16.9221
-16.9221
-16.9221
-16.9221
-16.9221
-16.9221
-16.9221
-16.9221
-16.9221
-16.9221
-16.9221
-16.9221
-16.9221
-16.9221
-16.9221
-16.9221
-16.9221
-16.9221
-16.9221
-16.9221
-16.9221
-16.9221
-16.9221
-16.9221
-16.9221
-16.9221
-16.9221
-16.9221
-16.9221
-16.9221
-16.9221
-16.9221
-16.9222
-16.9222
-16.9221
-16.9221
-16.9222
-16.9222
-16.9222
-16.9222
-16.9222
-16.9222
-16.9222
-16.9222
-16.9222
-16.9222
-16.9222
-16.9222
-16.9222
-16.9222
-16.9222
-16.9222
-16.9222
-16.9222
-16.9222
-16.9222
-16.9222
-17.4127
-17.4127
-17.4127
-17.4127
-17.4127
-17.4127
-17.4127
-17.4127
-17.4127
-17.4127
-17.4127
-17.4127
-17.4127
-17.4127
-17.4127
-17.4127
-17.4127
-17.4126
-17.4126
-17.4126
-17.4126
-17.4126
-17.4126
-17.4126
-17.4126
-17.4126
-17.4126
-17.4126
-17.4126
-17.4126
-17.4126
-17.4126
-17.4126
-17.4126
-17.4126
-17.4126
-17.4126
-17.4126
-17.4126
-17.4126
-17.4126
-17.4126
-17.4126
-17.4126
-17.4126
-17.4126
-17.4126
-17.4126
-17.4126
-17.4126
-17.4126
-17.4127
-17.4126
-17.4126
-17.4126
-17.4127
-17.4127
-17.4127
-17.4126
-17.4126
-17.4127
-17.4127
-17.4127
-17.4127
-17.4127
-17.4127
-17.4127
-17.4127
-17.4127
-17.4127
-17.4127
-17.4127
-17.4127
-17.4127
-17.4127
-17.4127
-17.4127
-17.4127
-17.4127
-17.4127
-17.9032
-17.9032
-17.9032
-17.9032
-17.9032
-17.9032
-17.9032
-17.9032
-17.9032
-17.9032
-17.9032
-17.9032
-17.9032
-17.9032
-17.9032
-17.9032
-17.9032
-17.9032
-17.9031
-17.9031
-17.9031
-17.9031
-17.9031
-17.9031
-17.9031
-17.9031
-17.9031
-17.9031
-17.9031
-17.9031
-17.9031
-17.9031
-17.9031
-17.9031
-17.9031
-17.9031
-17.9031
-17.9031
-17.9031
-17.9031
-17.9031
-17.9031
-17.9031
-17.9031
-17.9031
-17.9031
-17.9031
-17.9031
-17.9031
-17.9031
-17.9031
-17.9031
-17.9032
-17.9031
-17.9031
-17.9031
-17.9032
-17.9032
-17.9031
-17.9031
-17.9032
-17.9032
-17.9032
-17.9032
-17.9032
-17.9032
-17.9032
-17.9032
-17.9032
-17.9032
-17.9032
-17.9032
-17.9032
-17.9032
-17.9032
-17.9032
-17.9032
-17.9032
-17.9032
-17.9032
-18.3937
-18.3937
-18.3937
-18.3937
-18.3937
-18.3937
-18.3937
-18.3937
-18.3937
-18.3937
-18.3937
-18.3937
-18.3937
-18.3937
-18.3937
-18.3937
-18.3937
-18.3937
-18.3936
-18.3936
-18.3936
-18.3936
-18.3936
-18.3936
-18.3936
-18.3936
-18.3936
-18.3936
-18.3936
-18.3936
-18.3936
-18.3936
-18.3936
-18.3936
-18.3936
-18.3936
-18.3936
-18.3936
-18.3936
-18.3936
-18.3936
-18.3936
-18.3936
-18.3936
-18.3936
-18.3936
-18.3936
-18.3936
-18.3936
-18.3936
-18.3936
-18.3936
-18.3937
-18.3937
-18.3936
-18.3936
-18.3937
-18.3937
-18.3937
-18.3937
-18.3937
-18.3937
-18.3937
-18.3937
-18.3937
-18.3937
-18.3937
-18.3937
-18.3937
-18.3937
-18.3937
-18.3937
-18.3937
-18.3937
-18.3937
-18.3937
-18.3937
-18.3937
-18.3937
-18.3937
-18.8842
-18.8842
-18.8842
-18.8842
-18.8842
-18.8842
-18.8842
-18.8842
-18.8842
-18.8842
-18.8842
-18.8842
-18.8842
-18.8842
-18.8842
-18.8842
-18.8842
-18.8842
-18.8842
-18.8841
-18.8841
-18.8841
-18.8841
-18.8841
-18.8841
-18.8841
-18.8841
-18.8841
-18.8841
-18.8841
-18.8841
-18.8841
-18.8841
-18.8841
-18.8841
-18.8841
-18.8841
-18.8841
-18.8841
-18.8841
-18.8841
-18.8841
-18.8841
-18.8841
-18.8841
-18.8841
-18.8841
-18.8841
-18.8841
-18.8841
-18.8841
-18.8841
-18.8841
-18.8842
-18.8842
-18.8841
-18.8841
-18.8842
-18.8842
-18.8842
-18.8842
-18.8842
-18.8842
-18.8842
-18.8842
-18.8842
-18.8842
-18.8842
-18.8842
-18.8842
-18.8842
-18.8842
-18.8842
-18.8842
-18.8842
-18.8842
-18.8842
-18.8842
-18.8842
-18.8842
-19.3747
-19.3747
-19.3747
-19.3747
-19.3747
-19.3747
-19.3747
-19.3747
-19.3747
-19.3747
-19.3747
-19.3747
-19.3747
-19.3747
-19.3747
-19.3747
-19.3747
-19.3747
-19.3747
-19.3747
-19.3746
-19.3746
-19.3746
-19.3746
-19.3746
-19.3746
-19.3746
-19.3746
-19.3746
-19.3746
-19.3746
-19.3746
-19.3746
-19.3746
-19.3746
-19.3746
-19.3746
-19.3746
-19.3746
-19.3746
-19.3746
-19.3746
-19.3746
-19.3746
-19.3746
-19.3746
-19.3746
-19.3746
-19.3746
-19.3747
-19.3746
-19.3746
-19.3746
-19.3747
-19.3747
-19.3747
-19.3746
-19.3746
-19.3747
-19.3747
-19.3747
-19.3747
-19.3747
-19.3747
-19.3747
-19.3747
-19.3747
-19.3747
-19.3747
-19.3747
-19.3747
-19.3747
-19.3747
-19.3747
-19.3747
-19.3747
-19.3747
-19.3747
-19.3747
-19.3747
-19.8652
-19.8652
-19.8652
-19.8652
-19.8652
-19.8652
-19.8652
-19.8652
-19.8652
-19.8652
-19.8652
-19.8652
-19.8652
-19.8652
-19.8652
-19.8652
-19.8652
-19.8652
-19.8652
-19.8652
-19.8652
-19.8652
-19.8651
-19.8651
-19.8651
-19.8651
-19.8651
-19.8651
-19.8651
-19.8651
-19.8651
-19.8651
-19.8651
-19.8651
-19.8651
-19.8651
-19.8651
-19.8651
-19.8651
-19.8651
-19.8651
-19.8651
-19.8651
-19.8651
-19.8651
-19.8651
-19.8651
-19.8651
-19.8651
-19.8651
-19.8652
-19.8652
-19.8651
-19.8651
-19.8652
-19.8652
-19.8652
-19.8651
-19.8651
-19.8652
-19.8652
-19.8652
-19.8652
-19.8652
-19.8652
-19.8652
-19.8652
-19.8652
-19.8652
-19.8652
-19.8652
-19.8652
-19.8652
-19.8652
-19.8652
-19.8652
-19.8652
-19.8652
-19.8652
-19.8652
-20.3557
-20.3557
-20.3557
-20.3557
-20.3557
-20.3557
-20.3557
-20.3557
-20.3557
-20.3557
-20.3557
-20.3557
-20.3557
-20.3557
-20.3557
-20.3557
-20.3557
-20.3557
-20.3557
-20.3557
-20.3557
-20.3557
-20.3557
-20.3556
-20.3556
-20.3556
-20.3556
-20.3556
-20.3556
-20.3556
-20.3556
-20.3556
-20.3556
-20.3556
-20.3556
-20.3556
-20.3556
-20.3556
-20.3556
-20.3556
-20.3556
-20.3556
-20.3556
-20.3556
-20.3556
-20.3556
-20.3557
-20.3556
-20.3556
-20.3556
-20.3556
-20.3557
-20.3557
-20.3556
-20.3556
-20.3557
-20.3557
-20.3557
-20.3556
-20.3557
-20.3557
-20.3557
-20.3557
-20.3557
-20.3557
-20.3557
-20.3557
-20.3557
-20.3557
-20.3557
-20.3557
-20.3557
-20.3557
-20.3557
-20.3557
-20.3557
-20.3557
-20.3557
-20.3557
-20.3557
-20.8462
-20.8462
-20.8462
-20.8462
-20.8462
-20.8462
-20.8462
-20.8462
-20.8462
-20.8462
-20.8462
-20.8462
-20.8462
-20.8462
-20.8462
-20.8462
-20.8462
-20.8462
-20.8462
-20.8462
-20.8462
-20.8462
-20.8462
-20.8462
-20.8461
-20.8461
-20.8461
-20.8461
-20.8461
-20.8461
-20.8461
-20.8461
-20.8461
-20.8461
-20.8461
-20.8461
-20.8461
-20.8461
-20.8461
-20.8461
-20.8461
-20.8461
-20.8461
-20.8461
-20.8461
-20.8461
-20.8461
-20.8462
-20.8461
-20.8461
-20.8461
-20.8462
-20.8462
-20.8461
-20.8461
-20.8461
-20.8462
-20.8462
-20.8462
-20.8462
-20.8462
-20.8462
-20.8462
-20.8462
-20.8462
-20.8462
-20.8462
-20.8462
-20.8462
-20.8462
-20.8462
-20.8462
-20.8462
-20.8462
-20.8462
-20.8462
-20.8462
-20.8462
-20.8462
-20.8462
-21.3367