/*--------------------------------*- C++ -*----------------------------------*\
| =========                 |                                                 |
| \\      /  F ield         | OpenFOAM: The Open Source CFD Toolbox           |
|  \\    /   O peration     | Version:  2412                                  |
|   \\  /    A nd           | Website:  www.openfoam.com                      |
|    \\/     M anipulation  |                                                 |
\*---------------------------------------------------------------------------*/
FoamFile
{
    version     2.0;
    format      ascii;
    arch        "LSB;label=32;scalar=64";
    class       volScalarField;
    location    "2.9";
    object      p;
}
// * * * * * * * * * * * * * * * * * * * * * * * * * * * * * * * * * * * * * //

dimensions      [1 -1 -2 0 0 0 0];

internalField   nonuniform List<scalar> 
6400
(
23906.9
23848.3
23778
23756.4
23829.9
23985.5
24136.9
24174.4
24040.9
23783.6
23540
23460.1
23610.5
23923.6
24228.4
24349
24210.7
23887.1
23558.6
23406.2
23506.8
23792.5
24096.5
24253.2
24191.6
23966.4
23715
23572.8
23599
23755
23939.2
24052.1
24049.3
23955.3
23836.8
23759.4
23752.8
23803.6
23872.9
23922.8
23935.4
23916.6
23885.3
23860.2
23850.4
23855.6
23870.5
23888.8
23905.1
23914.2
23911.7
23896.6
23874.9
23859.5
23864.3
23893.8
23936.4
23966.8
23960.1
23910.4
23840.1
23792.6
23807
23889.7
24002.8
24079.8
24064.1
23948.4
23787
23671.4
23677.2
23816.1
24023.1
24189.4
24223.4
24101.7
23877.3
23642.6
23478.9
23400.1
22725.3
22731.5
22670.9
22571.2
22497.9
22520.8
22652
22825.1
22930.6
22885.8
22695.2
22458.2
22313.9
22355.4
22568
22833.1
22997.7
22966.3
22758.4
22495.3
22325.7
22338
22512.3
22739.5
22890.5
22891.3
22759.2
22581.9
22460.4
22450.4
22538.9
22662.4
22750
22763.8
22712.6
22637.8
22583.6
22572.9
22600.5
22642.8
22675.5
22686.8
22679.1
22663.3
22649.3
22642.2
22642
22647.7
22658.5
22672.9
22686.5
22692.1
22683.7
22662.6
22639.8
22632.4
22651.8
22693.8
22736.4
22750.4
22718.5
22651.1
22585.4
22566.3
22617
22718.9
22816.7
22848.2
22784
22650.2
22518.6
22466.9
22531.9
22686.4
22852.7
22945.4
22913.6
22759.3
22540.2
22271.6
21449.7
21554.9
21562.1
21462.8
21298.6
21177.6
21198.4
21377.7
21626.2
21794.6
21766
21536.4
21226.8
21015.5
21029.9
21266
21588.7
21812.6
21812.9
21597.6
21297.6
21084.1
21067
21237
21481.7
21659.8
21683.9
21562.7
21382.8
21249.1
21224
21300.5
21418.9
21509.1
21531.2
21490.3
21423.5
21371.9
21357.9
21378.2
21413
21442
21454.8
21452.8
21443.1
21432
21422.5
21416.4
21416.5
21426.6
21446.5
21468.9
21480.5
21469.7
21437.2
21399.7
21383.7
21408.5
21469.7
21535.4
21562.2
21522.2
21426.8
21327.2
21287.9
21346.1
21482.3
21623.9
21685
21618.6
21450.5
21269.6
21179.1
21236.5
21418.4
21630.9
21757.9
21720
21531.1
21223.6
20116.2
20302.3
20410
20395.1
20232.8
20004
19853.7
19899.5
20145.9
20465
20665.8
20613
20318.2
19942
19701.2
19737.2
20029.1
20406.2
20652.4
20634.9
20377.9
20040.1
19813.3
19810.3
20007.9
20274.9
20458.6
20472.7
20336.1
20146.3
20012.8
19995
20079
20199.7
20287
20304.5
20261.6
20196.5
20148.6
20137
20156.5
20188.3
20214.6
20227.7
20228.8
20222.6
20211.9
20198.5
20186.4
20183.1
20196
20224.9
20257.1
20272
20253.3
20204.2
20151
20131.3
20169.9
20256.7
20345.3
20376.3
20316.1
20185.1
20054.8
20009.3
20091.9
20270.6
20448.6
20518.4
20427.5
20215.9
19998.4
19899.8
19980.4
20197.9
20426.5
20528.6
20452.3
20226.4
18791.7
18968.6
19146.5
19264
19220.9
19004.5
18723.4
18552.4
18620.8
18917.4
19282.1
19497
19421.7
19086.5
18680
18437.1
18496
18816.2
19206.7
19443.7
19404.1
19130.2
18793.3
18583.9
18601.3
18807.5
19065.4
19228.8
19225.7
19086.2
18909
18794.8
18790.5
18874.8
18984
19056.4
19064.9
19023.1
18967
18929.3
18922.6
18939.9
18965.3
18986.5
18999.1
19004.2
19002.2
18992
18974.1
18955.3
18948.8
18965.7
19005
19047.6
19064.9
19036.7
18969.7
18900.9
18878.8
18932.1
19043.9
19153.1
19186.7
19107.4
18945.7
18791.2
18742.7
18845.4
19055
19255.9
19327.4
19218.5
18983.5
18754.4
18662.5
18757.8
18976.3
19179.9
19257
19202.2
17560.3
17610.3
17763.4
17974.9
18111.7
18049.7
17783.9
17452.6
17259.6
17343.8
17679.8
18081.2
18309.9
18223.2
17865.2
17442.7
17198.8
17266.9
17594.4
17981.7
18207.7
18159.9
17890.3
17570.3
17380.1
17405.7
17602.2
17837.5
17979.4
17968.8
17840.3
17685.4
17591.1
17593.4
17668.7
17760.2
17817.3
17821.3
17786.5
17742.9
17715
17710.1
17721.8
17739.2
17755.9
17770.5
17781.5
17784.5
17773.6
17748.7
17721.5
17711.5
17734.2
17786.4
17841.3
17861.1
17821.6
17734.3
17647.8
17622.7
17691.5
17829.9
17961.2
17998.7
17901.8
17710.9
17532.5
17479.1
17597.1
17831.3
18050.6
18124.9
18005.9
17759.6
17528.6
17443.7
17543.5
17754.4
17947.9
18075
16460
16315.6
16338.5
16530.2
16798.8
16960.2
16877.1
16561.8
16184.5
15974.7
16075.9
16446.3
16876.3
17112.8
17015.1
16641.1
16210.8
15970.6
16045.8
16373.6
16751.2
16964.2
16911.8
16652.4
16353.4
16181.9
16211.3
16393.5
16604.7
16727.3
16713.7
16599.4
16466.5
16389.1
16394.1
16458.1
16532.8
16577.8
16580.5
16554.1
16522.1
16501.2
16495.5
16500.1
16510.4
16525
16543.9
16562.3
16569.5
16555.4
16521
16483.8
16471.1
16502.2
16570.2
16638.8
16660.2
16606.7
16496.3
16391.2
16364.1
16450.7
16617.1
16770.2
16810.1
16694.8
16475.8
16276.6
16220.8
16353.7
16607.8
16838.4
16909.9
16780.7
16530
16308
16242.3
16360.5
16574.7
16810.7
15443.9
15146.1
14995.4
15044.8
15303.7
15625.4
15800.8
15692.7
15334.5
14924.1
14708.1
14827
15221.7
15664.6
15897.1
15787.3
15407.2
14983.8
14757.8
14841.5
15162
15518.9
15711.3
15653.2
15409
15137.2
14988.5
15022.2
15187.9
15372.6
15474.8
15458.3
15358.5
15247.6
15186.1
15193
15246.1
15305.2
15339.9
15342.5
15324.4
15302.3
15286.4
15278.1
15275.6
15280
15294.8
15320
15346.1
15356.2
15336.6
15290.4
15242.7
15228.7
15270.6
15356.5
15439
15460.4
15390.8
15256.4
15133.6
15106.6
15211.9
15404.7
15576.2
15615.5
15482.3
15240.7
15028.4
14975.5
15121.5
15385.8
15614.2
15673.5
15535.6
15294.2
15103.6
15078.6
15212.4
15439.8
14395.9
14088.5
13823
13679.8
13775.8
14087
14443.6
14623.2
14492.7
14104.7
13677.4
13464.5
13597.7
14002
14440.5
14659.3
14540.6
14168
13766.9
13563.6
13653
13955.6
14280.4
14446.6
14385
14162.6
13924.8
13801.8
13838.2
13983.9
14139.2
14220.4
14202.1
14118.3
14029.5
13983.1
13990.9
14032.8
14077.3
14103.2
14106.7
14096.8
14083.3
14070.5
14058.3
14048.6
14048.5
14065.4
14098.4
14132.6
14144.2
14116.9
14057.3
13998.9
13985
14039.6
14144.3
14240.2
14260.1
14173.5
14016
13877.8
13852.7
13975.7
14190.7
14375
14411.2
14263.5
14007.9
13792.4
13746.8
13900.7
14162.1
14374.3
14416
14278
14065.9
13923.5
13924.3
14042.3
13199
13051.6
12808.5
12536.2
12401.6
12524.1
12868.5
13246
13424.2
13277
12874
12445.4
12243
12385.2
12784.6
13203.9
13402.6
13280.3
12927.6
12560.4
12383.6
12474.1
12749.9
13035.6
13174
13112.7
12917.6
12716.8
12618.8
12655.1
12778.2
12903.9
12965.9
12947.9
12880.7
12812.9
12779.4
12786.4
12816.9
12848.5
12867.6
12873.6
12871.7
12865.3
12853.5
12836
12819.1
12815.8
12836.8
12879
12921.1
12932.9
12896.1
12822.1
12753.5
12741.1
12809.5
12932.8
13040.6
13057.5
12954.3
12776.4
12626.4
12604.8
12742.9
12973.8
13164.3
13195
13037.6
12778.4
12569.5
12534.3
12689.7
12935.9
13122.3
13147
13019
12842.4
12729.1
12701.5
11814.7
11920.5
11835.9
11580.2
11281.3
11141.1
11280.4
11646.3
12032.4
12203.5
12045.6
11642.3
11227.3
11042
11187.9
11569.3
11957.1
12131.3
12010
11686.9
11361.3
11212.8
11300.3
11543.6
11786.9
11898.5
11840.6
11675
11511.1
11435.7
11469.4
11569.6
11667.8
11713.5
11697.7
11646.5
11597.1
11573.6
11578.3
11598.2
11619
11634
11643.6
11649.2
11648
11635.1
11611.1
11587.3
11582.4
11609.3
11661.6
11711.1
11721.6
11673.9
11585.5
11507.8
11498.2
11580.6
11720.8
11838
11850.7
11732.5
11538.8
11381.9
11365.3
11514.7
11753.2
11942.1
11965.3
11803.8
11551.9
11359.1
11336.9
11488
11709.7
11864.6
11871.6
11750.4
11595.1
11460.1
10317
10630.9
10755.6
10657.3
10357.4
10033.4
9895
10049.1
10423.6
10803.6
10961.3
10798.8
10409.7
10022.5
9859.39
10003.6
10355.5
10701.8
10848.7
10732.8
10446.4
10167.3
10047.2
10128.7
10336.3
10536.7
10623.2
10570.8
10435.1
10305.9
10250.1
10279.8
10358.4
10432.2
10464.8
10452.1
10415.4
10381.2
10364.9
10366.3
10376.8
10389.4
10402.4
10416.6
10428.8
10430.8
10414.9
10383.7
10353.8
10348.9
10382.9
10445.4
10501.3
10509.2
10450.3
10348.4
10263.5
10257.9
10353.2
10507.1
10630
10637.5
10507.7
10304.6
10146.8
10136.5
10291.6
10528.1
10707.3
10721.2
10562.2
10328.2
10160.4
10152.6
10294.3
10483.6
10599.7
10581.6
10463.9
10303.1
8854.65
9215.16
9481.65
9589.48
9448.98
9123.46
8797.74
8671.69
8834.43
9201.31
9559.94
9699.14
9538.75
9177.46
8829.35
8691.65
8828.58
9141.76
9440.06
9558.83
9452.49
9207.47
8976.65
8883.46
8956.26
9127.17
9286.26
9350.55
9305.2
9198.13
9100.14
9060.67
9085.47
9144.37
9197.48
9219.93
9211.11
9186.9
9164.75
9153.07
9150.65
9153.3
9160.03
9173.01
9192.09
9209.79
9213.11
9192.87
9154.31
9119.39
9115.88
9157.74
9229.86
9290.56
9294.61
9224.99
9111.96
9022.55
9021.79
9127.64
9290.28
9414.45
9416.09
9279.32
9074.81
8922.66
8919.2
9073.78
9298.34
9459.95
9464.09
9314.24
9107.86
8971.27
8977.56
9103.2
9251.33
9322.48
9287.07
9176.54
7560.92
7785.55
8048.48
8291.2
8369.66
8213.46
7891.03
7582.42
7473
7635.29
7978.87
8303.23
8420.34
8268.51
7945.86
7645.06
7533.99
7658.91
7927.29
8174.49
8266.34
8172.57
7970.72
7787.1
7717.98
7780.25
7915.61
8036.97
8082.6
8045.23
7964.24
7893.12
7866.51
7885.84
7927.7
7964.05
7979.26
7974.53
7960.66
7947.46
7938.21
7931.74
7928.08
7931.21
7945.65
7969.6
7991.37
7994.32
7968.9
7923.61
7885.25
7884.49
7934.01
8013.85
8076.98
8076.24
7997.6
7877.3
7787.06
7791.75
7904.41
8069.39
8189.58
8185.07
8047.01
7849.89
7709.98
7713.58
7860.97
8064.2
8202.03
8196.83
8062.32
7890.49
7787.55
7803.9
7906.5
8011.13
8051.61
8024.86
6469.74
6461.96
6588.29
6823.69
7050.52
7119.92
6967.36
6665.4
6386.09
6295.51
6449.08
6756.09
7035.83
7128.68
6990.93
6715.05
6466.69
6382.09
6491.43
6711.87
6907.81
6974.97
6895.68
6736.27
6596.56
6548.07
6599.01
6701.64
6790.08
6820.73
6791.51
6733.18
6684.1
6667.04
6680.93
6708.72
6732.21
6742.65
6741.89
6736.06
6728.96
6720.46
6710.19
6701.94
6703.39
6720.09
6748.15
6772.31
6773.6
6743.15
6692.86
6653.16
6655.95
6711.6
6795.76
6858.24
6852.35
6768.08
6646.18
6559.61
6569.77
6683.92
6843.25
6953.62
6943.17
6810.44
6629.97
6508.59
6518.82
6652.57
6826.53
6936.33
6923.28
6808.83
6674.52
6603.27
6624.99
6704.84
6779.66
6821.65
5494.69
5293.37
5240.72
5348.55
5579.27
5794.16
5854.76
5712.79
5444.26
5204.96
5134.84
5272.17
5531.76
5759.77
5828.34
5709.83
5486.18
5292.13
5232.06
5322.94
5494.78
5641.78
5687.53
5623.84
5504.36
5403.77
5372.1
5411.62
5485.37
5546.24
5565.44
5544
5504.51
5472.74
5462.36
5471.2
5487.93
5502.05
5509.68
5512.41
5512.41
5509.06
5500.24
5486.84
5475.67
5476.77
5495.75
5526.59
5551.47
5550.51
5516.33
5463.61
5424.71
5430.88
5489.59
5573.59
5632.34
5622.17
5537.4
5420.72
5342.14
5356.45
5465.27
5610.33
5705.68
5690.8
5570.74
5415.53
5317.37
5332.62
5446.78
5585.87
5666.04
5647.43
5555.67
5458.25
5415.49
5442.6
5506.98
5575.91
4485.58
4226.16
4057.92
4012.43
4129.48
4343.55
4529.14
4574.37
4449.26
4225.7
4034.25
3984.47
4099.43
4305.08
4479.01
4525.6
4430.13
4260.16
4118.28
4079.06
4149.78
4275.28
4378.36
4406.9
4359.02
4275.22
4207.68
4188.8
4217.39
4266.79
4305.73
4316.79
4302.4
4277.86
4258.92
4252.79
4257.22
4265.73
4273.55
4279.83
4285.36
4289.12
4287.57
4277.84
4262.26
4249.82
4251.59
4272.4
4304.31
4328.22
4324.75
4288.62
4236.43
4200.46
4209.48
4267.74
4346.89
4399.08
4385.97
4306.06
4201.06
4134.03
4150.58
4247.56
4371.1
4447.87
4430.78
4329.65
4205.71
4132.79
4150.56
4240.95
4342.99
4394.85
4373.49
4305.33
4242.81
4226.52
4257.92
4315.73
3325.92
3142.76
2973.49
2846.8
2832.58
2940.6
3113.09
3252.6
3278.34
3175.83
3006.23
2868.68
2839.97
2929.86
3079.03
3198.71
3224.9
3153.17
3034.91
2941.23
2919.77
2970.9
3054.66
3119.86
3134.82
3101.53
3047.97
3007.15
2997.63
3016.57
3046.53
3068.88
3074.49
3065.98
3052.52
3042.4
3038.67
3039.72
3042.86
3047.07
3052.9
3059.96
3065.11
3063.56
3052.96
3037.11
3025.82
3029.45
3050.88
3080.76
3100.63
3093.91
3058.41
3011.48
2982.44
2994.68
3048.45
3116.35
3157.14
3141.1
3071.25
2985.34
2934.93
2953.37
3033.15
3128.48
3182.86
3164.54
3086.48
2997.56
2950.59
2968.87
3033.57
3099.3
3126.21
3105.46
3061.44
3031.02
3034.06
3065.34
2006.17
1946.83
1860.1
1759.61
1691.23
1692.7
1767.08
1874.91
1955.16
1962.13
1893.47
1791.07
1714.68
1705.68
1763.83
1850.53
1914.61
1923.18
1878.49
1812.31
1763.91
1756.63
1787.26
1832.25
1864.59
1869.55
1850.42
1822.87
1803.46
1800.27
1810.54
1825.1
1835.24
1837.41
1833.5
1827.73
1823.33
1821.1
1820.41
1820.91
1823.27
1828.07
1834.09
1837.94
1835.79
1826.68
1814.67
1807.64
1812.57
1829.91
1851.26
1862.98
1854.64
1827.14
1794.73
1777.97
1790.89
1830.4
1875.49
1898.58
1882.71
1833.82
1779.13
1751.4
1768.48
1821.27
1878.72
1907.06
1890.94
1842.56
1792.83
1770.8
1785.44
1821.88
1853.69
1861.98
1847.47
1827.72
1821.04
1832.3
629.133
633.085
624.528
606.117
583.513
569.173
572.697
593.13
618.914
635
632.295
613.141
589.456
575.076
577.395
593.516
612.905
624.333
622.472
610.224
595.906
587.686
588.95
597.204
606.554
611.696
610.781
605.712
600.219
597.327
597.83
600.451
603.155
604.547
604.46
603.599
602.737
602.168
601.741
601.316
601.125
601.661
603.152
605.062
606.161
605.282
602.341
598.812
597.12
599.094
604.43
610.334
612.903
609.632
601.487
592.935
589.54
594.377
605.572
616.861
621.18
615.211
601.884
588.95
584.281
590.84
604.674
617.372
621.446
615.054
602.909
592.856
590.568
596.035
604.169
608.909
607.78
603.621
602.05
606.658
-10.0426
-10.0307
-10.0343
-10.0377
-10.0395
-10.0416
-10.044
-10.045
-10.0443
-10.0437
-10.0449
-10.0462
-10.0467
-10.047
-10.0478
-10.0477
-10.0467
-10.0458
-10.0455
-10.0447
-10.0439
-10.0431
-10.0421
-10.0407
-10.039
-10.0375
-10.0362
-10.0353
-10.0345
-10.0333
-10.0317
-10.0302
-10.0288
-10.0274
-10.0266
-10.0262
-10.0261
-10.0262
-10.0267
-10.0275
-10.0287
-10.0299
-10.0311
-10.031
-10.0311
-10.0316
-10.0323
-10.0332
-10.0341
-10.0349
-10.0354
-10.0358
-10.0363
-10.0372
-10.0382
-10.0392
-10.04
-10.0403
-10.039
-10.0364
-10.0342
-10.033
-10.0321
-10.0313
-10.0307
-10.0299
-10.0281
-10.0258
-10.0246
-10.025
-10.0258
-10.0266
-10.0277
-10.0282
-10.0283
-10.0288
-10.0293
-10.03
-10.0286
-10.0296
-10.5457
-10.5456
-10.5456
-10.5456
-10.5457
-10.5457
-10.5457
-10.5457
-10.5456
-10.5456
-10.5456
-10.5456
-10.5457
-10.5457
-10.5457
-10.5457
-10.5456
-10.5456
-10.5456
-10.5456
-10.5457
-10.5457
-10.5457
-10.5457
-10.5456
-10.5456
-10.5456
-10.5456
-10.5456
-10.5456
-10.5456
-10.5456
-10.5456
-10.5456
-10.5456
-10.5456
-10.5456
-10.5456
-10.5456
-10.5456
-10.5456
-10.5456
-10.5456
-10.5456
-10.5456
-10.5456
-10.5456
-10.5456
-10.5456
-10.5456
-10.5456
-10.5456
-10.5456
-10.5456
-10.5456
-10.5457
-10.5457
-10.5457
-10.5456
-10.5456
-10.5456
-10.5456
-10.5456
-10.5457
-10.5457
-10.5457
-10.5456
-10.5456
-10.5456
-10.5456
-10.5457
-10.5457
-10.5457
-10.5457
-10.5457
-10.5456
-10.5456
-10.5457
-10.5457
-10.5457
-11.0362
-11.0362
-11.0362
-11.0362
-11.0362
-11.0362
-11.0362
-11.0362
-11.0362
-11.0361
-11.0362
-11.0362
-11.0362
-11.0362
-11.0362
-11.0362
-11.0362
-11.0362
-11.0361
-11.0362
-11.0362
-11.0362
-11.0362
-11.0362
-11.0361
-11.0361
-11.0361
-11.0361
-11.0361
-11.0361
-11.0361
-11.0361
-11.0361
-11.0361
-11.0361
-11.0361
-11.0361
-11.0361
-11.0361
-11.0361
-11.0361
-11.0361
-11.0361
-11.0361
-11.0361
-11.0361
-11.0361
-11.0361
-11.0361
-11.0361
-11.0361
-11.0361
-11.0361
-11.0361
-11.0361
-11.0361
-11.0361
-11.0361
-11.0361
-11.0361
-11.0361
-11.0361
-11.0361
-11.0362
-11.0362
-11.0362
-11.0362
-11.0361
-11.0361
-11.0362
-11.0362
-11.0362
-11.0362
-11.0362
-11.0362
-11.0362
-11.0362
-11.0362
-11.0362
-11.0362
-11.5267
-11.5267
-11.5267
-11.5267
-11.5267
-11.5267
-11.5267
-11.5267
-11.5267
-11.5267
-11.5267
-11.5267
-11.5267
-11.5267
-11.5267
-11.5267
-11.5267
-11.5267
-11.5267
-11.5267
-11.5267
-11.5267
-11.5267
-11.5267
-11.5267
-11.5267
-11.5266
-11.5266
-11.5266
-11.5266
-11.5266
-11.5266
-11.5266
-11.5266
-11.5266
-11.5266
-11.5266
-11.5266
-11.5266
-11.5266
-11.5266
-11.5266
-11.5266
-11.5266
-11.5266
-11.5266
-11.5266
-11.5266
-11.5266
-11.5266
-11.5266
-11.5266
-11.5266
-11.5266
-11.5266
-11.5266
-11.5266
-11.5266
-11.5266
-11.5267
-11.5267
-11.5266
-11.5266
-11.5266
-11.5266
-11.5267
-11.5267
-11.5267
-11.5267
-11.5267
-11.5267
-11.5267
-11.5267
-11.5267
-11.5267
-11.5267
-11.5267
-11.5267
-11.5267
-11.5267
-12.0172
-12.0172
-12.0172
-12.0172
-12.0172
-12.0172
-12.0172
-12.0172
-12.0172
-12.0172
-12.0172
-12.0172
-12.0172
-12.0172
-12.0172
-12.0172
-12.0172
-12.0172
-12.0172
-12.0172
-12.0172
-12.0172
-12.0172
-12.0172
-12.0172
-12.0171
-12.0171
-12.0171
-12.0171
-12.0171
-12.0171
-12.0171
-12.0171
-12.0171
-12.0171
-12.0171
-12.0171
-12.0171
-12.0171
-12.0171
-12.0171
-12.0171
-12.0171
-12.0171
-12.0171
-12.0171
-12.0171
-12.0171
-12.0171
-12.0171
-12.0171
-12.0171
-12.0171
-12.0171
-12.0171
-12.0171
-12.0171
-12.0171
-12.0171
-12.0171
-12.0172
-12.0172
-12.0172
-12.0171
-12.0171
-12.0172
-12.0172
-12.0172
-12.0172
-12.0172
-12.0172
-12.0172
-12.0172
-12.0172
-12.0172
-12.0172
-12.0172
-12.0172
-12.0172
-12.0172
-12.5077
-12.5077
-12.5077
-12.5077
-12.5077
-12.5077
-12.5077
-12.5077
-12.5077
-12.5077
-12.5077
-12.5077
-12.5077
-12.5077
-12.5077
-12.5077
-12.5077
-12.5077
-12.5077
-12.5077
-12.5077
-12.5077
-12.5077
-12.5077
-12.5076
-12.5076
-12.5076
-12.5076
-12.5076
-12.5076
-12.5076
-12.5076
-12.5076
-12.5076
-12.5076
-12.5076
-12.5076
-12.5076
-12.5076
-12.5076
-12.5076
-12.5076
-12.5076
-12.5076
-12.5076
-12.5076
-12.5076
-12.5076
-12.5076
-12.5076
-12.5076
-12.5076
-12.5076
-12.5076
-12.5076
-12.5076
-12.5076
-12.5076
-12.5076
-12.5076
-12.5076
-12.5077
-12.5077
-12.5077
-12.5076
-12.5077
-12.5077
-12.5077
-12.5077
-12.5077
-12.5077
-12.5077
-12.5077
-12.5077
-12.5077
-12.5077
-12.5077
-12.5077
-12.5077
-12.5077
-12.9982
-12.9982
-12.9982
-12.9982
-12.9982
-12.9982
-12.9982
-12.9982
-12.9982
-12.9982
-12.9982
-12.9982
-12.9982
-12.9982
-12.9982
-12.9982
-12.9982
-12.9982
-12.9982
-12.9982
-12.9982
-12.9982
-12.9982
-12.9982
-12.9981
-12.9981
-12.9981
-12.9981
-12.9981
-12.9981
-12.9981
-12.9981
-12.9981
-12.9981
-12.9981
-12.9981
-12.9981
-12.9981
-12.9981
-12.9981
-12.9981
-12.9981
-12.9981
-12.9981
-12.9981
-12.9981
-12.9981
-12.9981
-12.9981
-12.9981
-12.9981
-12.9981
-12.9981
-12.9981
-12.9981
-12.9981
-12.9981
-12.9981
-12.9981
-12.9981
-12.9981
-12.9981
-12.9982
-12.9982
-12.9982
-12.9982
-12.9982
-12.9982
-12.9982
-12.9982
-12.9982
-12.9982
-12.9982
-12.9982
-12.9982
-12.9982
-12.9982
-12.9982
-12.9982
-12.9982
-13.4887
-13.4887
-13.4887
-13.4887
-13.4887
-13.4887
-13.4887
-13.4887
-13.4887
-13.4887
-13.4887
-13.4887
-13.4887
-13.4887
-13.4887
-13.4887
-13.4887
-13.4887
-13.4887
-13.4887
-13.4887
-13.4887
-13.4887
-13.4887
-13.4886
-13.4886
-13.4886
-13.4886
-13.4886
-13.4886
-13.4886
-13.4886
-13.4886
-13.4886
-13.4886
-13.4886
-13.4886
-13.4886
-13.4886
-13.4886
-13.4886
-13.4886
-13.4886
-13.4886
-13.4886
-13.4886
-13.4886
-13.4886
-13.4886
-13.4886
-13.4886
-13.4886
-13.4886
-13.4886
-13.4886
-13.4886
-13.4886
-13.4886
-13.4886
-13.4886
-13.4886
-13.4886
-13.4886
-13.4887
-13.4887
-13.4887
-13.4887
-13.4887
-13.4887
-13.4887
-13.4887
-13.4887
-13.4887
-13.4887
-13.4887
-13.4887
-13.4887
-13.4887
-13.4887
-13.4887
-13.9792
-13.9792
-13.9792
-13.9792
-13.9792
-13.9792
-13.9792
-13.9792
-13.9792
-13.9792
-13.9792
-13.9792
-13.9792
-13.9792
-13.9792
-13.9792
-13.9792
-13.9792
-13.9792
-13.9792
-13.9792
-13.9792
-13.9792
-13.9792
-13.9791
-13.9791
-13.9791
-13.9791
-13.9791
-13.9791
-13.9791
-13.9791
-13.9791
-13.9791
-13.9791
-13.9791
-13.9791
-13.9791
-13.9791
-13.9791
-13.9791
-13.9791
-13.9791
-13.9791
-13.9791
-13.9791
-13.9791
-13.9791
-13.9791
-13.9791
-13.9791
-13.9791
-13.9791
-13.9791
-13.9791
-13.9791
-13.9791
-13.9791
-13.9791
-13.9792
-13.9791
-13.9791
-13.9791
-13.9792
-13.9792
-13.9792
-13.9792
-13.9792
-13.9792
-13.9792
-13.9792
-13.9792
-13.9792
-13.9792
-13.9792
-13.9792
-13.9792
-13.9792
-13.9792
-13.9792
-14.4697
-14.4697
-14.4697
-14.4697
-14.4697
-14.4697
-14.4697
-14.4697
-14.4697
-14.4697
-14.4697
-14.4697
-14.4697
-14.4697
-14.4697
-14.4697
-14.4697
-14.4697
-14.4697
-14.4697
-14.4697
-14.4697
-14.4697
-14.4697
-14.4696
-14.4696
-14.4696
-14.4696
-14.4696
-14.4696
-14.4696
-14.4696
-14.4696
-14.4696
-14.4696
-14.4696
-14.4696
-14.4696
-14.4696
-14.4696
-14.4696
-14.4696
-14.4696
-14.4696
-14.4696
-14.4696
-14.4696
-14.4696
-14.4696
-14.4696
-14.4696
-14.4696
-14.4696
-14.4696
-14.4696
-14.4696
-14.4696
-14.4696
-14.4696
-14.4696
-14.4697
-14.4697
-14.4696
-14.4696
-14.4697
-14.4697
-14.4697
-14.4697
-14.4697
-14.4697
-14.4697
-14.4697
-14.4697
-14.4697
-14.4697
-14.4697
-14.4697
-14.4697
-14.4697
-14.4697
-14.9602
-14.9602
-14.9602
-14.9602
-14.9602
-14.9602
-14.9602
-14.9602
-14.9602
-14.9602
-14.9602
-14.9602
-14.9602
-14.9602
-14.9602
-14.9602
-14.9602
-14.9602
-14.9602
-14.9602
-14.9602
-14.9602
-14.9602
-14.9602
-14.9601
-14.9601
-14.9601
-14.9601
-14.9601
-14.9601
-14.9601
-14.9601
-14.9601
-14.9601
-14.9601
-14.9601
-14.9601
-14.9601
-14.9601
-14.9601
-14.9601
-14.9601
-14.9601
-14.9601
-14.9601
-14.9601
-14.9601
-14.9601
-14.9601
-14.9601
-14.9601
-14.9601
-14.9601
-14.9601
-14.9601
-14.9601
-14.9601
-14.9601
-14.9601
-14.9601
-14.9602
-14.9602
-14.9602
-14.9601
-14.9602
-14.9602
-14.9602
-14.9602
-14.9602
-14.9602
-14.9602
-14.9602
-14.9602
-14.9602
-14.9602
-14.9602
-14.9602
-14.9602
-14.9602
-14.9602
-15.4507
-15.4507
-15.4507
-15.4507
-15.4507
-15.4507
-15.4507
-15.4507
-15.4507
-15.4507
-15.4507
-15.4507
-15.4507
-15.4507
-15.4507
-15.4507
-15.4507
-15.4507
-15.4507
-15.4507
-15.4507
-15.4507
-15.4507
-15.4507
-15.4506
-15.4506
-15.4506
-15.4506
-15.4506
-15.4506
-15.4506
-15.4506
-15.4506
-15.4506
-15.4506
-15.4506
-15.4506
-15.4506
-15.4506
-15.4506
-15.4506
-15.4506
-15.4506
-15.4506
-15.4506
-15.4506
-15.4506
-15.4506
-15.4506
-15.4506
-15.4506
-15.4506
-15.4506
-15.4506
-15.4506
-15.4506
-15.4506
-15.4506
-15.4506
-15.4506
-15.4506
-15.4507
-15.4507
-15.4507
-15.4507
-15.4507
-15.4507
-15.4507
-15.4507
-15.4507
-15.4507
-15.4507
-15.4507
-15.4507
-15.4507
-15.4507
-15.4507
-15.4507
-15.4507
-15.4507
-15.9412
-15.9412
-15.9412
-15.9412
-15.9412
-15.9412
-15.9412
-15.9412
-15.9412
-15.9412
-15.9412
-15.9412
-15.9412
-15.9412
-15.9412
-15.9412
-15.9412
-15.9412
-15.9412
-15.9412
-15.9412
-15.9412
-15.9412
-15.9412
-15.9411
-15.9411
-15.9411
-15.9411
-15.9411
-15.9411
-15.9411
-15.9411
-15.9411
-15.9411
-15.9411
-15.9411
-15.9411
-15.9411
-15.9411
-15.9411
-15.9411
-15.9411
-15.9411
-15.9411
-15.9411
-15.9411
-15.9411
-15.9411
-15.9411
-15.9411
-15.9411
-15.9411
-15.9411
-15.9411
-15.9411
-15.9411
-15.9411
-15.9411
-15.9412
-15.9411
-15.9411
-15.9411
-15.9412
-15.9412
-15.9412
-15.9412
-15.9412
-15.9412
-15.9412
-15.9412
-15.9412
-15.9412
-15.9412
-15.9412
-15.9412
-15.9412
-15.9412
-15.9412
-15.9412
-15.9412
-16.4317
-16.4317
-16.4317
-16.4317
-16.4317
-16.4317
-16.4317
-16.4317
-16.4317
-16.4317
-16.4317
-16.4317
-16.4317
-16.4317
-16.4317
-16.4317
-16.4317
-16.4317
-16.4317
-16.4317
-16.4317
-16.4317
-16.4317
-16.4317
-16.4316
-16.4316
-16.4316
-16.4316
-16.4316
-16.4316
-16.4316
-16.4316
-16.4316
-16.4316
-16.4316
-16.4316
-16.4316
-16.4316
-16.4316
-16.4316
-16.4316
-16.4316
-16.4316
-16.4316
-16.4316
-16.4316
-16.4316
-16.4316
-16.4316
-16.4316
-16.4316
-16.4316
-16.4316
-16.4316
-16.4316
-16.4316
-16.4316
-16.4316
-16.4317
-16.4317
-16.4316
-16.4316
-16.4317
-16.4317
-16.4317
-16.4317
-16.4317
-16.4317
-16.4317
-16.4317
-16.4317
-16.4317
-16.4317
-16.4317
-16.4317
-16.4317
-16.4317
-16.4317
-16.4317
-16.4317
-16.9222
-16.9222
-16.9222
-16.9222
-16.9222
-16.9222
-16.9222
-16.9222
-16.9222
-16.9222
-16.9222
-16.9222
-16.9222
-16.9222
-16.9222
-16.9222
-16.9222
-16.9222
-16.9222
-16.9222
-16.9222
-16.9222
-16.9222
-16.9222
-16.9221
-16.9221
-16.9221
-16.9221
-16.9221
-16.9221
-16.9221
-16.9221
-16.9221
-16.9221
-16.9221
-16.9221
-16.9221
-16.9221
-16.9221
-16.9221
-16.9221
-16.9221
-16.9221
-16.9221
-16.9221
-16.9221
-16.9221
-16.9221
-16.9221
-16.9221
-16.9221
-16.9221
-16.9221
-16.9221
-16.9221
-16.9221
-16.9221
-16.9221
-16.9221
-16.9222
-16.9222
-16.9221
-16.9221
-16.9222
-16.9222
-16.9222
-16.9222
-16.9222
-16.9222
-16.9222
-16.9222
-16.9222
-16.9222
-16.9222
-16.9222
-16.9222
-16.9222
-16.9222
-16.9222
-16.9222
-17.4127
-17.4127
-17.4127
-17.4127
-17.4127
-17.4127
-17.4127
-17.4127
-17.4127
-17.4127
-17.4127
-17.4127
-17.4127
-17.4127
-17.4127
-17.4127
-17.4127
-17.4127
-17.4127
-17.4127
-17.4127
-17.4127
-17.4127
-17.4126
-17.4126
-17.4126
-17.4126
-17.4126
-17.4126
-17.4126
-17.4126
-17.4126
-17.4126
-17.4126
-17.4126
-17.4126
-17.4126
-17.4126
-17.4126
-17.4126
-17.4126
-17.4126
-17.4126
-17.4126
-17.4126
-17.4126
-17.4126
-17.4126
-17.4126
-17.4126
-17.4126
-17.4126
-17.4126
-17.4126
-17.4126
-17.4127
-17.4127
-17.4126
-17.4126
-17.4127
-17.4127
-17.4127
-17.4126
-17.4127
-17.4127
-17.4127
-17.4127
-17.4127
-17.4127
-17.4127
-17.4127
-17.4127
-17.4127
-17.4127
-17.4127
-17.4127
-17.4127
-17.4127
-17.4127
-17.4127
-17.9032
-17.9032
-17.9032
-17.9032
-17.9032
-17.9032
-17.9032
-17.9032
-17.9032
-17.9032
-17.9032
-17.9032
-17.9032
-17.9032
-17.9032
-17.9032
-17.9032
-17.9032
-17.9032
-17.9032
-17.9032
-17.9032
-17.9032
-17.9032
-17.9031
-17.9031
-17.9031
-17.9031
-17.9031
-17.9031
-17.9031
-17.9031
-17.9031
-17.9031
-17.9031
-17.9031
-17.9031
-17.9031
-17.9031
-17.9031
-17.9031
-17.9031
-17.9031
-17.9031
-17.9031
-17.9031
-17.9031
-17.9031
-17.9031
-17.9031
-17.9031
-17.9032
-17.9031
-17.9031
-17.9031
-17.9031
-17.9032
-17.9032
-17.9031
-17.9031
-17.9032
-17.9032
-17.9032
-17.9032
-17.9032
-17.9032
-17.9032
-17.9032
-17.9032
-17.9032
-17.9032
-17.9032
-17.9032
-17.9032
-17.9032
-17.9032
-17.9032
-17.9032
-17.9032
-17.9032
-18.3937
-18.3937
-18.3937
-18.3937
-18.3937
-18.3937
-18.3937
-18.3937
-18.3937
-18.3937
-18.3937
-18.3937
-18.3937
-18.3937
-18.3937
-18.3937
-18.3937
-18.3937
-18.3937
-18.3937
-18.3937
-18.3937
-18.3937
-18.3937
-18.3936
-18.3936
-18.3936
-18.3936
-18.3936
-18.3936
-18.3936
-18.3936
-18.3936
-18.3936
-18.3936
-18.3936
-18.3936
-18.3936
-18.3936
-18.3936
-18.3936
-18.3936
-18.3936
-18.3936
-18.3936
-18.3936
-18.3936
-18.3936
-18.3936
-18.3936
-18.3936
-18.3936
-18.3937
-18.3936
-18.3936
-18.3936
-18.3936
-18.3937
-18.3937
-18.3936
-18.3936
-18.3937
-18.3937
-18.3937
-18.3937
-18.3937
-18.3937
-18.3937
-18.3937
-18.3937
-18.3937
-18.3937
-18.3937
-18.3937
-18.3937
-18.3937
-18.3937
-18.3937
-18.3937
-18.3937
-18.8842
-18.8842
-18.8842
-18.8842
-18.8842
-18.8842
-18.8842
-18.8842
-18.8842
-18.8842
-18.8842
-18.8842
-18.8842
-18.8842
-18.8842
-18.8842
-18.8842
-18.8842
-18.8842
-18.8842
-18.8842
-18.8842
-18.8842
-18.8842
-18.8841
-18.8841
-18.8841
-18.8841
-18.8841
-18.8841
-18.8841
-18.8841
-18.8841
-18.8841
-18.8841
-18.8841
-18.8841
-18.8841
-18.8841
-18.8841
-18.8841
-18.8841
-18.8841
-18.8841
-18.8841
-18.8841
-18.8841
-18.8841
-18.8842
-18.8841
-18.8841
-18.8841
-18.8841
-18.8842
-18.8841
-18.8841
-18.8841
-18.8842
-18.8842
-18.8842
-18.8841
-18.8841
-18.8842
-18.8842
-18.8842
-18.8842
-18.8842
-18.8842
-18.8842
-18.8842
-18.8842
-18.8842
-18.8842
-18.8842
-18.8842
-18.8842
-18.8842
-18.8842
-18.8842
-18.8842
-19.3747
-19.3747
-19.3747
-19.3747
-19.3747
-19.3747
-19.3747
-19.3747
-19.3747
-19.3747
-19.3747
-19.3747
-19.3747
-19.3747
-19.3747
-19.3747
-19.3747
-19.3747
-19.3747
-19.3747
-19.3747
-19.3747
-19.3747
-19.3747
-19.3746
-19.3746
-19.3746
-19.3746
-19.3746
-19.3746
-19.3746
-19.3746
-19.3746
-19.3746
-19.3746
-19.3746
-19.3746
-19.3746
-19.3746
-19.3746
-19.3746
-19.3746
-19.3746
-19.3746
-19.3746
-19.3746
-19.3746
-19.3746
-19.3746
-19.3747
-19.3746
-19.3746
-19.3746
-19.3746
-19.3747
-19.3746
-19.3746
-19.3746
-19.3747
-19.3747
-19.3747
-19.3746
-19.3747
-19.3747
-19.3747
-19.3747
-19.3747
-19.3747
-19.3747
-19.3747
-19.3747
-19.3747
-19.3747
-19.3747
-19.3747
-19.3747
-19.3747
-19.3747
-19.3747
-19.3747
-19.8652
-19.8652
-19.8652
-19.8652
-19.8652
-19.8652
-19.8652
-19.8652
-19.8652
-19.8652
-19.8652
-19.8652
-19.8652
-19.8652
-19.8652
-19.8652
-19.8652
-19.8652
-19.8652
-19.8652
-19.8652
-19.8652
-19.8652
-19.8652
-19.8651
-19.8651
-19.8651
-19.8651
-19.8651
-19.8651
-19.8651
-19.8651
-19.8651
-19.8651
-19.8651
-19.8651
-19.8651
-19.8651
-19.8651
-19.8651
-19.8651
-19.8651
-19.8651
-19.8651
-19.8651
-19.8651
-19.8651
-19.8651
-19.8651
-19.8651
-19.8652
-19.8651
-19.8651
-19.8651
-19.8651
-19.8652
-19.8651
-19.8651
-19.8651
-19.8652
-19.8652
-19.8652
-19.8652
-19.8652
-19.8652
-19.8652
-19.8652
-19.8652
-19.8652
-19.8652
-19.8652
-19.8652
-19.8652
-19.8652
-19.8652
-19.8652
-19.8652
-19.8652
-19.8652
-19.8652
-20.3557
-20.3557
-20.3557
-20.3557
-20.3557
-20.3557
-20.3557
-20.3557
-20.3557
-20.3557
-20.3557
-20.3557
-20.3557
-20.3557
-20.3557
-20.3557
-20.3557
-20.3557
-20.3557
-20.3557
-20.3557
-20.3557
-20.3557
-20.3557
-20.3556
-20.3556
-20.3556
-20.3556
-20.3556
-20.3556
-20.3556
-20.3556
-20.3556
-20.3556
-20.3556
-20.3556
-20.3556
-20.3556
-20.3556
-20.3556
-20.3556
-20.3556
-20.3556
-20.3556
-20.3556
-20.3556
-20.3557
-20.3556
-20.3556
-20.3556
-20.3556
-20.3557
-20.3556
-20.3556
-20.3556
-20.3557
-20.3557
-20.3556
-20.3556
-20.3556
-20.3557
-20.3557
-20.3557
-20.3557
-20.3557
-20.3557
-20.3557
-20.3557
-20.3557
-20.3557
-20.3557
-20.3557
-20.3557
-20.3557
-20.3557
-20.3557
-20.3557
-20.3557
-20.3557
-20.3557
-20.8462
-20.8462
-20.8462
-20.8462
-20.8462
-20.8462
-20.8462
-20.8462
-20.8462
-20.8462
-20.8462
-20.8462
-20.8462
-20.8462
-20.8462
-20.8462
-20.8462
-20.8462
-20.8462
-20.8462
-20.8462
-20.8462
-20.8462
-20.8462
-20.8462
-20.8461
-20.8461
-20.8461
-20.8461
-20.8461
-20.8461
-20.8461
-20.8461
-20.8461
-20.8461
-20.8461
-20.8461
-20.8461
-20.8461
-20.8461
-20.8461
-20.8461
-20.8461
-20.8461
-20.8461
-20.8461
-20.8461
-20.8462
-20.8461
-20.8461
-20.8461
-20.8461
-20.8462
-20.8461
-20.8461
-20.8461
-20.8462
-20.8462
-20.8462
-20.8461
-20.8461
-20.8462
-20.8462
-20.8462
-20.8462
-20.8462
-20.8462
-20.8462
-20.8462
-20.8462
-20.8462
-20.8462
-20.8462
-20.8462
-20.8462
-20.8462
-20.8462
-20.8462
-20.8462
-20.8462
-21.3367