/*--------------------------------*- C++ -*----------------------------------*\
| =========                 |                                                 |
| \\      /  F ield         | OpenFOAM: The Open Source CFD Toolbox           |
|  \\    /   O peration     | Version:  2412                                  |
|   \\  /    A nd           | Website:  www.openfoam.com                      |
|    \\/     M anipulation  |                                                 |
\*---------------------------------------------------------------------------*/
FoamFile
{
    version     2.0;
    format      ascii;
    arch        "LSB;label=32;scalar=64";
    class       volScalarField;
    location    "2.9";
    object      p_rgh;
}
// * * * * * * * * * * * * * * * * * * * * * * * * * * * * * * * * * * * * * //

dimensions      [1 -1 -2 0 0 0 0];

internalField   nonuniform List<scalar> 
6400
(
24520.1
24461.4
24391.2
24369.5
24443
24598.6
24750.1
24787.6
24654
24396.7
24153.1
24073.3
24223.7
24536.7
24841.5
24962.2
24823.8
24500.2
24171.7
24019.3
24119.9
24405.7
24709.6
24866.3
24804.7
24579.5
24328.1
24185.9
24212.2
24368.1
24552.3
24665.2
24662.5
24568.4
24449.9
24372.5
24365.9
24416.8
24486.1
24535.9
24548.5
24529.7
24498.5
24473.3
24463.5
24468.8
24483.6
24501.9
24518.2
24527.4
24524.9
24509.7
24488
24472.6
24477.4
24506.9
24549.5
24579.9
24573.2
24523.5
24453.2
24405.8
24420.1
24502.8
24615.9
24692.9
24677.3
24561.5
24400.1
24284.5
24290.3
24429.3
24636.2
24802.5
24836.5
24714.8
24490.4
24255.7
24092
24013.2
24564.7
24570.9
24510.3
24410.6
24337.2
24360.2
24491.4
24664.5
24770
24725.2
24534.6
24297.6
24153.3
24194.8
24407.4
24672.5
24837.1
24805.7
24597.8
24334.7
24165.1
24177.4
24351.7
24578.9
24729.9
24730.7
24598.5
24421.3
24299.8
24289.8
24378.3
24501.7
24589.3
24603.2
24552
24477.2
24422.9
24412.3
24439.9
24482.1
24514.9
24526.1
24518.5
24502.7
24488.7
24481.6
24481.4
24487.1
24497.9
24512.2
24525.9
24531.5
24523.1
24501.9
24479.2
24471.7
24491.1
24533.2
24575.8
24589.7
24557.9
24490.4
24424.8
24405.7
24456.3
24558.2
24656
24687.6
24623.4
24489.6
24358
24306.3
24371.3
24525.7
24692.1
24784.8
24752.9
24598.7
24379.6
24111
24515.3
24620.5
24627.7
24528.4
24364.3
24243.3
24264
24443.3
24691.8
24860.2
24831.7
24602.1
24292.5
24081.2
24095.6
24331.7
24654.4
24878.3
24878.5
24663.3
24363.3
24149.8
24132.6
24302.6
24547.3
24725.4
24749.5
24628.3
24448.4
24314.7
24289.6
24366.1
24484.5
24574.7
24596.8
24555.9
24489.1
24437.5
24423.5
24443.8
24478.7
24507.6
24520.5
24518.5
24508.7
24497.6
24488.1
24482
24482.2
24492.2
24512.1
24534.5
24546.1
24535.4
24502.8
24465.3
24449.3
24474.1
24535.3
24601.1
24627.8
24587.8
24492.4
24392.8
24353.5
24411.7
24547.9
24689.5
24750.5
24684.2
24516.1
24335.2
24244.7
24302.1
24484
24696.5
24823.5
24785.6
24596.7
24289.3
24408.1
24594.1
24701.9
24687
24524.6
24295.9
24145.6
24191.4
24437.8
24756.9
24957.7
24904.9
24610.1
24233.9
23993.2
24029.2
24321
24698.1
24944.3
24926.8
24669.9
24332
24105.2
24102.2
24299.8
24566.8
24750.4
24764.5
24627.9
24438.1
24304.7
24286.8
24370.8
24491.5
24578.8
24596.4
24553.4
24488.3
24440.4
24428.9
24448.4
24480.2
24506.5
24519.6
24520.7
24514.5
24503.8
24490.4
24478.3
24475
24487.9
24516.8
24549
24563.9
24545.2
24496.1
24442.8
24423.2
24461.7
24548.6
24637.1
24668.2
24607.9
24476.9
24346.6
24301.1
24383.7
24562.4
24740.5
24810.2
24719.3
24507.7
24290.3
24191.6
24272.3
24489.8
24718.4
24820.5
24744.2
24518.3
24309.8
24486.7
24664.7
24782.1
24739
24522.6
24241.5
24070.6
24139
24435.6
24800.3
25015.2
24939.9
24604.7
24198.3
23955.3
24014.2
24334.4
24724.8
24961.9
24922.2
24648.3
24311.4
24102.1
24119.5
24325.6
24583.5
24746.9
24743.8
24604.3
24427.1
24312.8
24308.6
24392.9
24502.1
24574.4
24582.9
24541.2
24485.1
24447.4
24440.7
24458
24483.5
24504.6
24517.3
24522.3
24520.4
24510.2
24492.3
24473.5
24466.9
24483.9
24523.1
24565.7
24583
24554.8
24487.9
24419
24396.9
24450.2
24562
24671.2
24704.7
24625.4
24463.7
24309.2
24260.8
24363.5
24573
24773.9
24845.4
24736.5
24501.6
24272.5
24180.6
24275.9
24494.4
24698
24775.1
24720.3
24304.7
24354.7
24507.8
24719.3
24856.1
24794.1
24528.4
24197
24004.1
24088.3
24424.2
24825.7
25054.3
24967.6
24609.7
24187.2
23943.3
24011.4
24338.8
24726.1
24952.1
24904.3
24634.7
24314.7
24124.5
24150.1
24346.5
24581.8
24723.6
24713.1
24584.6
24429.6
24335.4
24337.7
24413
24504.5
24561.6
24565.6
24530.8
24487.3
24459.3
24454.5
24466.2
24483.6
24500.4
24514.9
24526
24528.9
24518
24493.2
24465.9
24455.9
24478.6
24530.8
24585.7
24605.5
24566
24478.7
24392.1
24367
24435.8
24574.2
24705.5
24742.9
24646.1
24455.2
24276.8
24223.4
24341.4
24575.6
24794.8
24869.2
24750.1
24503.9
24273
24188.1
24287.8
24498.8
24692.3
24819.4
24430.6
24286.2
24309.2
24500.9
24769.5
24930.8
24847.7
24532.5
24155.2
23945.5
24046.6
24417.1
24847
25083.5
24985.8
24611.8
24181.6
23941.3
24016.6
24344.3
24721.8
24934.8
24882.4
24623.1
24324
24152.5
24181.9
24364
24575.2
24697.8
24684.2
24569.8
24437
24359.6
24364.6
24428.6
24503.3
24548.3
24551
24524.7
24492.7
24471.8
24466.1
24470.8
24481
24495.7
24514.6
24533
24540.1
24526
24491.6
24454.4
24441.8
24472.9
24540.9
24609.5
24630.8
24577.3
24466.9
24361.8
24334.7
24421.2
24587.6
24740.8
24780.7
24665.3
24446.3
24247.2
24191.3
24324.2
24578.3
24808.9
24880.4
24751.3
24500.6
24278.6
24213
24331.1
24545.3
24781.4
24640.8
24343.1
24192.4
24241.7
24500.7
24822.3
24997.7
24889.6
24531.5
24121.1
23905.2
24024.1
24418.7
24861.6
25094.1
24984.3
24604.2
24180.8
23954.8
24038.5
24358.9
24715.7
24908.1
24850.1
24605.8
24334
24185.3
24219
24384.7
24569.3
24671.5
24655
24555.2
24444.3
24382.8
24389.8
24442.8
24502
24536.7
24539.3
24521.2
24499.1
24483.2
24474.9
24472.5
24476.9
24491.7
24516.9
24543.1
24553.1
24533.5
24487.3
24439.6
24425.6
24467.5
24553.3
24635.9
24657.2
24587.6
24453.2
24330.4
24303.4
24408.7
24601.5
24772.9
24812.3
24679.1
24437.5
24225.2
24172.3
24318.3
24582.6
24811
24870.3
24732.4
24491
24300.5
24275.5
24409.3
24636.8
24818.9
24511.6
24246.2
24103.1
24199
24510.3
24866.8
25046.3
24915.9
24528
24100.7
23887.8
24021
24425.3
24863.7
25082.5
24963.8
24591.2
24190.2
23986.8
24076.2
24378.8
24703.5
24869.6
24808
24585.7
24347.9
24224.8
24261.3
24406.9
24562.2
24643.4
24625.1
24541.2
24452.4
24406.1
24413.9
24455.7
24500.3
24526.2
24529.8
24519.9
24506.4
24493.6
24481.4
24471.8
24471.6
24488.5
24521.6
24555.7
24567.4
24540
24480.5
24422.1
24408.2
24462.7
24567.4
24663.3
24683.2
24596.6
24439.1
24300.9
24275.8
24398.8
24613.7
24798
24834.2
24686.5
24431
24215.4
24169.8
24323.7
24585.1
24797.3
24839
24701.1
24489
24346.6
24347.4
24465.4
24848.3
24701
24457.9
24185.7
24051.1
24173.6
24518
24895.5
25073.6
24926.5
24523.5
24094.9
23892.6
24034.8
24434.1
24853.3
25052
24929.7
24577.1
24209.9
24033.1
24123.5
24399.3
24684.9
24823.3
24762
24566.9
24366.1
24268.1
24304.3
24427.4
24553.1
24615.1
24597.1
24529.9
24462.1
24428.6
24435.6
24466.2
24497.7
24516.9
24522.9
24521
24514.6
24502.8
24485.4
24468.5
24465.2
24486.2
24528.4
24570.5
24582.3
24545.5
24471.5
24402.9
24390.5
24458.9
24582.1
24689.9
24706.9
24603.6
24425.7
24275.7
24254.1
24392.2
24623
24813.5
24844.3
24686.8
24427.7
24218.8
24183.6
24339.1
24585.2
24771.6
24796.2
24668.4
24491.8
24378.5
24350.9
24690.3
24796.2
24711.5
24455.9
24157.1
24016.9
24156.2
24522.1
24908.1
25079.2
24921.3
24518
24103.1
23917.8
24063.7
24445.1
24832.7
25006.9
24885.6
24562.6
24237
24088.4
24176
24419.2
24662.5
24774
24716.1
24550.6
24386.7
24311.2
24344.9
24445.1
24543.2
24589
24573.2
24522
24472.6
24449.1
24453.7
24473.7
24494.5
24509.5
24519.1
24524.8
24523.5
24510.6
24486.7
24463
24458.1
24484.9
24537.2
24586.7
24597.3
24549.6
24461.1
24383.4
24373.8
24456.2
24596.5
24713.6
24726.3
24608.1
24414.3
24257.5
24240.9
24390.2
24628.7
24817.6
24840.8
24679.3
24427.4
24234.7
24212.5
24363.6
24585.2
24740.1
24747.1
24626
24470.7
24335.8
24418.9
24732.8
24857.6
24759.2
24459.5
24135.5
23997.1
24151.2
24525.6
24905.5
25063.3
24900.7
24511.7
24124.5
23961.5
24105.6
24457.5
24803.7
24950.5
24834.7
24548.3
24269.2
24149.1
24230.6
24438.1
24638.5
24725
24672.6
24536.9
24407.7
24351.8
24381.5
24460.1
24533.9
24566.4
24553.8
24517.1
24482.9
24466.6
24468
24478.6
24491.2
24504.2
24518.3
24530.6
24532.6
24516.7
24485.5
24455.7
24450.8
24484.8
24547.3
24603.2
24611.1
24552.2
24450.3
24365.4
24359.8
24455.1
24609
24731.8
24739.3
24609.5
24406.4
24248.6
24238.3
24393.4
24629.9
24809
24823
24664
24430
24262.2
24254.5
24396.2
24585.4
24701.5
24683.4
24565.8
24405.1
24182.8
24543.3
24809.8
24917.7
24777.2
24451.8
24126.1
24000.1
24162.8
24529.6
24888.1
25027.3
24866.9
24505.7
24157.6
24019.9
24156.8
24469.9
24768.2
24886.9
24780.6
24535.6
24304.8
24211.6
24284.4
24455.2
24614.3
24678.6
24633.2
24526.1
24428.2
24388.7
24413.4
24472.3
24525.4
24547.9
24539.1
24514.8
24492.7
24481
24478.6
24481.3
24488
24501
24520.1
24537.8
24541.2
24521
24482.4
24447.5
24444
24485.9
24558
24618.7
24622.7
24553.1
24440.1
24350.7
24350
24455.8
24618.4
24742.5
24744.1
24607.4
24402.9
24250.7
24247.3
24401.8
24626.3
24787.9
24792.1
24642.3
24435.9
24299.4
24305.7
24431.3
24579.4
24650.6
24615.2
24504.7
24115.3
24340
24602.9
24845.6
24924.1
24768
24445.6
24137
24027.7
24189.9
24533.4
24857.7
24974.7
24822.9
24500.3
24199.5
24088.5
24213.4
24481.7
24728.8
24820.7
24726.9
24525.1
24341.5
24272.3
24334.6
24469.9
24591.3
24636.9
24599.5
24518.5
24447.4
24420.7
24440.1
24481.9
24518.2
24533.4
24528.7
24514.8
24501.6
24492.4
24486
24482.3
24485.5
24499.9
24523.9
24545.7
24548.7
24523.3
24478
24439.7
24438.9
24488.5
24568.3
24631.4
24630.7
24552
24431.7
24341.5
24346.2
24458.8
24623.7
24743.9
24739.4
24601.3
24404.2
24264.3
24267.9
24415.3
24618.5
24756.3
24751.1
24616.6
24444.8
24341.9
24358.2
24460.8
24565.5
24606
24579.3
24250.3
24242.7
24369
24604.4
24831.2
24900.6
24748.1
24446.2
24166.9
24076.4
24229.9
24536.8
24816.5
24909.3
24771.6
24495.7
24247.4
24162.8
24272.1
24492.5
24688.4
24755.5
24676.3
24516.9
24377.2
24328.7
24379.6
24482.2
24570.6
24601.3
24572
24513.7
24464.6
24447.5
24461.4
24489.2
24512.7
24523.1
24522.3
24516.5
24509.4
24500.9
24490.7
24482.5
24484
24500.7
24528.8
24553
24554.3
24523.8
24473.6
24433.9
24436.7
24492.3
24576.4
24638.9
24633
24548.8
24426.9
24340.3
24350.5
24464.6
24623.8
24734.2
24723.7
24591
24410.5
24289.2
24299.4
24433.1
24607.1
24716.9
24703.8
24589.4
24455.1
24383.9
24405.6
24485.5
24560.3
24602.3
24501.5
24300.3
24247.7
24355.5
24586.2
24801.1
24861.6
24719.7
24451.2
24212
24141.8
24279.1
24538.7
24766.6
24835.2
24716.7
24493.1
24299
24239
24329.8
24501.6
24648.6
24694.4
24630.7
24511.2
24410.6
24379
24418.5
24492.2
24553.1
24572.2
24550.8
24511.3
24479.5
24469.1
24478
24494.7
24508.8
24516.4
24519.2
24519.2
24515.8
24507
24493.7
24482.5
24483.7
24502.7
24533.5
24558.4
24557.5
24523.3
24470.6
24431.7
24437.9
24496.6
24580.6
24639.3
24629.1
24544.4
24427.7
24349.1
24363.4
24472.2
24617.2
24712.5
24697.6
24577.6
24422.4
24324.3
24339.5
24453.7
24592.7
24672.9
24654.3
24562.5
24465.2
24422.4
24449.5
24513.9
24582.8
24718.6
24459.2
24291
24245.5
24362.6
24576.6
24762.2
24807.4
24682.3
24458.8
24267.4
24217.6
24332.5
24538.1
24712
24758.6
24663.2
24493.2
24351.4
24312.2
24382.9
24508.4
24611.5
24640
24592.2
24508.4
24440.8
24422
24450.6
24500
24538.9
24549.9
24535.5
24511
24492.1
24485.9
24490.4
24498.8
24506.7
24512.9
24518.5
24522.2
24520.7
24511
24495.4
24483
24484.8
24505.6
24537.6
24561.5
24558
24521.9
24469.7
24433.7
24442.7
24501
24580.1
24632.3
24619.2
24539.3
24434.3
24367.3
24383.8
24480.8
24604.3
24681.1
24664
24562.9
24439
24366.1
24383.8
24474.2
24576.2
24628.1
24606.7
24538.6
24476.1
24459.8
24491.2
24548.9
24785.1
24601.9
24432.7
24306
24291.8
24399.8
24572.2
24711.7
24737.4
24634.9
24465.4
24327.8
24299.2
24389.1
24538.2
24657.9
24684.1
24612.4
24494.2
24400.5
24379.1
24430.3
24514.1
24579.3
24594.2
24561
24507.5
24466.7
24457.2
24476.1
24506.1
24528.4
24534.1
24525.6
24512.1
24502
24498.3
24499.3
24502.4
24506.6
24512.5
24519.5
24524.7
24523.1
24512.5
24496.7
24485.4
24489
24510.4
24540.3
24560.1
24553.4
24517.9
24471
24442
24454.2
24508
24575.9
24616.7
24600.7
24530.8
24444.9
24394.6
24413
24492.8
24588.1
24642.5
24624.2
24546.2
24457.3
24410.3
24428.6
24493.3
24559
24585.9
24565.1
24521.2
24490.7
24493.7
24524.8
24691.7
24632.1
24545.3
24444.8
24376.5
24378
24452.3
24560.1
24640.3
24647.3
24578.7
24476.3
24400
24391
24449.2
24535.9
24600
24608.6
24564
24497.8
24449.5
24442.3
24472.9
24517.9
24550.3
24555.3
24536.2
24508.7
24489.3
24486.2
24496.5
24511
24521.2
24523.4
24519.5
24513.8
24509.3
24507.1
24506.4
24506.9
24509.3
24514
24520
24523.9
24521.7
24512.6
24500.5
24493.5
24498.4
24515.7
24537.1
24548.8
24540.4
24512.9
24480.5
24463.8
24476.7
24516.2
24561.4
24584.5
24568.6
24519.8
24465.1
24437.4
24454.5
24507.3
24564.8
24593.1
24577
24528.6
24478.9
24456.9
24471.6
24508
24539.8
24548.1
24533.6
24513.8
24507.1
24518.1
24540
24543.4
24534.9
24516.5
24493.8
24479.4
24482.9
24503.3
24529.1
24545.1
24542.4
24523.3
24499.7
24485.3
24487.8
24503.9
24523.4
24534.9
24533.1
24520.9
24506.7
24498.5
24499.9
24508.2
24517.6
24522.8
24522
24517
24511.6
24508.7
24509.2
24511.9
24514.6
24516
24515.9
24515.1
24514.2
24513.6
24513.2
24512.8
24512.6
24513.1
24514.6
24516.4
24517.4
24516.5
24513.5
24510
24508.3
24510.3
24515.6
24521.6
24524.2
24521
24512.9
24504.4
24501.1
24506
24517.2
24528.5
24532.8
24526.8
24513.5
24500.6
24495.9
24502.4
24516.2
24528.9
24532.9
24526.5
24514.4
24504.3
24501.9
24507.4
24515.5
24520.2
24519.1
24514.9
24513.4
24518
0.498217
0.935791
0.80908
0.690852
0.651843
0.59533
0.499235
0.444075
0.439236
0.433641
0.382968
0.341017
0.336731
0.34103
0.317665
0.318313
0.343554
0.366781
0.37458
0.412486
0.460289
0.506685
0.555763
0.610987
0.665829
0.716217
0.766653
0.812882
0.857971
0.915635
0.986035
1.04484
1.09786
1.1487
1.18559
1.20394
1.20798
1.20481
1.18707
1.15376
1.10494
1.05284
0.999709
0.99907
0.988601
0.969453
0.944049
0.916452
0.88713
0.856261
0.825324
0.794202
0.76012
0.723855
0.69222
0.668882
0.648745
0.637398
0.677665
0.758403
0.828252
0.879738
0.94006
1.01304
1.06661
1.10239
1.14376
1.19226
1.21473
1.20648
1.20915
1.21009
1.18064
1.14976
1.12389
1.09004
1.07132
1.0526
1.1221
1.03715
8.63658e-05
0.000131929
0.000122508
0.000101568
7.08908e-05
4.49126e-05
4.25512e-05
7.0929e-05
0.000114245
0.000140734
0.000135861
0.000108008
7.8067e-05
5.94822e-05
6.01482e-05
8.1293e-05
0.00011062
0.000130066
0.000128709
0.000110635
9.11975e-05
8.07913e-05
8.43243e-05
9.64467e-05
0.000109389
0.000116766
0.000116034
0.000111559
0.000105974
0.000104061
0.000106228
0.000110638
0.000114748
0.000116979
0.000117533
0.000117531
0.000117781
0.000118345
0.000118748
0.000118486
0.000118029
0.000118406
0.000120204
0.000122495
0.000124292
0.000124502
0.00012117
0.00011436
0.000108669
0.000109401
0.000116464
0.000125124
0.000129711
0.000125038
0.000113507
9.93243e-05
9.27371e-05
9.67991e-05
0.000108295
0.000122782
0.00013085
0.000125253
0.000106522
8.44004e-05
7.371e-05
8.14545e-05
0.000101158
0.000116062
0.000118433
0.000109264
9.64461e-05
8.36927e-05
7.90135e-05
8.39238e-05
9.38457e-05
0.000102216
0.000101743
9.43304e-05
8.78559e-05
8.92671e-05
8.10233e-05
9.83571e-05
9.80205e-05
9.31243e-05
8.34477e-05
7.22089e-05
6.73948e-05
7.45779e-05
9.02645e-05
0.000100538
9.91733e-05
9.13346e-05
8.40525e-05
7.92665e-05
7.83606e-05
8.28876e-05
9.20244e-05
9.97498e-05
0.000102021
9.83998e-05
9.26487e-05
8.99097e-05
9.17221e-05
9.63115e-05
0.000101539
0.000105009
0.000106175
0.000105899
0.000104992
0.000105284
0.000106841
0.000109103
0.000111325
0.000112919
0.000113887
0.000114632
0.000115384
0.000116143
0.000116779
0.000117027
0.000116993
0.00011715
0.000117734
0.000118333
0.00011871
0.000119032
0.000118376
0.000115595
0.000112209
0.00011127
0.000113168
0.000115799
0.000117261
0.000115873
0.000111219
0.000105508
0.000102553
0.000103005
0.000105187
0.00010838
0.000111378
0.000111105
0.000104955
9.52608e-05
8.90998e-05
9.11166e-05
9.79306e-05
0.000102751
0.000102221
9.91694e-05
9.54279e-05
9.13979e-05
8.85064e-05
8.83418e-05
9.07523e-05
9.37991e-05
9.49524e-05
9.29271e-05
8.97131e-05
8.83178e-05
6.78194e-05
7.17594e-05
7.71435e-05
8.35621e-05
9.22755e-05
9.32946e-05
8.53745e-05
7.55241e-05
7.19842e-05
7.68735e-05
8.31554e-05
8.75066e-05
9.06977e-05
9.19742e-05
9.00154e-05
8.57937e-05
8.23711e-05
8.32805e-05
8.88606e-05
9.51215e-05
9.78678e-05
9.76143e-05
9.69153e-05
9.66544e-05
9.71668e-05
9.90631e-05
0.00010202
0.00010461
0.000106611
0.000107752
0.000108625
0.000109597
0.0001109
0.000112347
0.000113618
0.000114686
0.0001156
0.000116399
0.000117244
0.000117959
0.000118197
0.000118029
0.000117893
0.000117644
0.000116874
0.000116744
0.000118267
0.0001194
0.000117783
0.000114383
0.000111487
0.000109968
0.000110402
0.000112231
0.000112949
0.000111115
0.000108262
0.000106228
0.000103002
9.91086e-05
9.79457e-05
0.000102046
0.00010726
0.000107234
0.000101032
9.45987e-05
9.25273e-05
9.3035e-05
9.37697e-05
9.41159e-05
9.53311e-05
9.63984e-05
9.55265e-05
9.26741e-05
8.95262e-05
8.8254e-05
8.98118e-05
9.20082e-05
9.20419e-05
9.01069e-05
8.07573e-05
7.96701e-05
7.83341e-05
7.90337e-05
8.2278e-05
8.89358e-05
9.03719e-05
8.497e-05
7.90164e-05
7.8753e-05
8.17498e-05
8.3667e-05
8.52299e-05
8.78123e-05
9.01395e-05
9.07054e-05
8.8916e-05
8.69325e-05
8.75391e-05
9.12728e-05
9.50411e-05
9.70349e-05
9.80058e-05
9.86667e-05
9.90361e-05
0.000100001
0.000101776
0.000103936
0.000105999
0.00010774
0.000109176
0.000110327
0.000111448
0.000112685
0.000113889
0.000114983
0.000115942
0.00011664
0.000117218
0.000117872
0.000118345
0.000118451
0.000118566
0.000118905
0.000118345
0.000116614
0.000115741
0.000116669
0.000117533
0.000116882
0.000115002
0.000112452
0.00011037
0.0001102
0.000110819
0.000110317
0.000108226
0.000107262
0.000106916
0.00010405
9.96677e-05
9.74763e-05
9.99849e-05
0.000103449
0.000102603
9.82842e-05
9.53413e-05
9.50741e-05
9.49618e-05
9.33588e-05
9.20346e-05
9.23721e-05
9.35549e-05
9.41485e-05
9.30558e-05
9.05331e-05
8.88512e-05
8.95028e-05
9.1004e-05
9.079e-05
8.12054e-05
8.30128e-05
8.25286e-05
7.925e-05
7.69167e-05
7.98778e-05
8.53469e-05
8.66895e-05
8.33217e-05
8.15463e-05
8.36946e-05
8.56298e-05
8.56051e-05
8.54512e-05
8.65303e-05
8.89452e-05
9.09774e-05
9.11268e-05
9.04578e-05
9.14719e-05
9.38599e-05
9.58611e-05
9.73475e-05
9.88903e-05
0.000100213
0.000101356
0.000102704
0.000104399
0.000106134
0.000107782
0.000109373
0.000110775
0.000112003
0.00011322
0.000114387
0.000115448
0.000116455
0.000117258
0.000117766
0.000118257
0.000118692
0.00011873
0.000118477
0.000118847
0.000119512
0.000118811
0.000116885
0.000115602
0.000115467
0.000115726
0.000115656
0.000114341
0.000111919
0.000110478
0.000110345
0.000109472
0.000107085
0.000105298
0.000106145
0.000106933
0.000104468
9.97157e-05
9.75146e-05
9.93499e-05
0.000100743
9.84543e-05
9.51291e-05
9.44228e-05
9.55997e-05
9.5493e-05
9.35141e-05
9.14582e-05
9.05909e-05
9.11644e-05
9.23114e-05
9.21809e-05
9.04263e-05
8.90085e-05
8.93664e-05
9.00214e-05
7.93716e-05
8.24353e-05
8.52428e-05
8.46776e-05
8.01366e-05
7.72092e-05
7.98582e-05
8.43621e-05
8.46265e-05
8.23777e-05
8.27892e-05
8.53301e-05
8.69254e-05
8.68214e-05
8.60485e-05
8.65894e-05
8.91486e-05
9.1616e-05
9.22864e-05
9.26814e-05
9.41366e-05
9.57848e-05
9.70845e-05
9.86623e-05
0.000100377
0.000101939
0.000103369
0.000104965
0.000106606
0.000108146
0.000109683
0.000111171
0.000112501
0.000113758
0.000114949
0.000115976
0.00011692
0.000117776
0.000118343
0.000118784
0.000119283
0.000119561
0.0001191
0.000118523
0.000118869
0.000119374
0.000118719
0.000117128
0.000115496
0.000114629
0.00011486
0.000114705
0.000112591
0.00011037
0.000110296
0.000110462
0.000108059
0.000104282
0.00010304
0.000104978
0.00010605
0.000102902
9.82168e-05
9.7127e-05
9.90983e-05
9.91463e-05
9.59269e-05
9.3063e-05
9.31683e-05
9.45163e-05
9.45949e-05
9.31233e-05
9.10199e-05
8.94901e-05
8.96617e-05
9.08681e-05
9.11139e-05
8.99004e-05
8.89039e-05
8.88972e-05
7.74289e-05
7.64922e-05
8.03718e-05
8.45326e-05
8.3976e-05
7.94068e-05
7.72816e-05
8.073e-05
8.42679e-05
8.38011e-05
8.24888e-05
8.33069e-05
8.55113e-05
8.7394e-05
8.76237e-05
8.69253e-05
8.77742e-05
9.03792e-05
9.23557e-05
9.32237e-05
9.4415e-05
9.60418e-05
9.73697e-05
9.86882e-05
0.000100417
0.000102222
0.000103824
0.00010543
0.000107099
0.000108667
0.000110176
0.00011168
0.000113071
0.000114354
0.00011559
0.000116668
0.000117576
0.000118407
0.000119004
0.000119343
0.000119709
0.000120236
0.00012034
0.000119571
0.000118799
0.000118716
0.000118848
0.000118463
0.000116926
0.000114806
0.000114155
0.000114823
0.000113522
0.000110018
0.000108573
0.000110048
0.000109967
0.000106246
0.00010205
0.000101545
0.000104204
0.000104544
0.000100191
9.59593e-05
9.62352e-05
9.84343e-05
9.77672e-05
9.43287e-05
9.18324e-05
9.1812e-05
9.27074e-05
9.30084e-05
9.21993e-05
9.03123e-05
8.86173e-05
8.85458e-05
8.95843e-05
8.99219e-05
8.91908e-05
8.84066e-05
8.03558e-05
7.61203e-05
7.50554e-05
7.92312e-05
8.36447e-05
8.26781e-05
7.83719e-05
7.77675e-05
8.14055e-05
8.38721e-05
8.35678e-05
8.28636e-05
8.34721e-05
8.56668e-05
8.78568e-05
8.82449e-05
8.80889e-05
8.95507e-05
9.17894e-05
9.32388e-05
9.44352e-05
9.61084e-05
9.77376e-05
9.90937e-05
0.000100651
0.000102476
0.000104222
0.000105873
0.000107575
0.000109225
0.000110769
0.00011229
0.000113735
0.000115035
0.000116265
0.000117401
0.000118359
0.000119196
0.000119849
0.00012019
0.00012031
0.000120527
0.000120933
0.00012088
0.00012011
0.000119051
0.000118365
0.000118503
0.000118176
0.000115824
0.000113574
0.000114287
0.000115051
0.000111601
0.000107133
0.000107167
0.00010957
0.000108938
0.000104215
9.97949e-05
0.000100459
0.000103629
0.00010273
9.74241e-05
9.39399e-05
9.51274e-05
9.7151e-05
9.61184e-05
9.3057e-05
9.09101e-05
9.04291e-05
9.07815e-05
9.12835e-05
9.09784e-05
8.94362e-05
8.78156e-05
8.758e-05
8.83467e-05
8.8708e-05
8.82254e-05
8.12413e-05
8.01844e-05
7.54093e-05
7.43874e-05
7.88356e-05
8.28514e-05
8.12849e-05
7.80934e-05
7.86834e-05
8.17178e-05
8.37063e-05
8.39267e-05
8.33873e-05
8.39744e-05
8.63576e-05
8.84e-05
8.88772e-05
8.9556e-05
9.13809e-05
9.31458e-05
9.44263e-05
9.59922e-05
9.78553e-05
9.94814e-05
0.000101028
0.000102794
0.000104623
0.000106346
0.00010807
0.000109797
0.000111421
0.000112981
0.000114494
0.000115861
0.000117074
0.000118188
0.000119188
0.000120072
0.000120777
0.000121229
0.000121424
0.000121314
0.000121239
0.000121327
0.000121299
0.000120509
0.000118879
0.000118154
0.000118745
0.0001174
0.000113541
0.000112342
0.000115076
0.000114841
0.000108952
0.000104574
0.000106093
0.000109051
0.0001077
0.00010161
9.74696e-05
9.95833e-05
0.000102798
0.000100588
9.50165e-05
9.23544e-05
9.38413e-05
9.5311e-05
9.42097e-05
9.17977e-05
8.99546e-05
8.90017e-05
8.89522e-05
8.9513e-05
8.95584e-05
8.83647e-05
8.69787e-05
8.66723e-05
8.7192e-05
8.74719e-05
7.63477e-05
8.12633e-05
7.90933e-05
7.43435e-05
7.39967e-05
7.86289e-05
8.15465e-05
8.00222e-05
7.82698e-05
7.91806e-05
8.16133e-05
8.37483e-05
8.42965e-05
8.39382e-05
8.4972e-05
8.73482e-05
8.89451e-05
8.97425e-05
9.11768e-05
9.30749e-05
9.45798e-05
9.60025e-05
9.78202e-05
9.96973e-05
0.000101392
0.000103149
0.000105034
0.000106858
0.00010862
0.000110395
0.000112105
0.000113715
0.000115282
0.000116771
0.000118073
0.000119149
0.000120091
0.000121016
0.000121769
0.000122186
0.000122539
0.000122673
0.000122346
0.000121775
0.000121645
0.000121653
0.000120166
0.000118197
0.000118732
0.000119454
0.000115497
0.000110393
0.000111701
0.00011604
0.000113748
0.000106145
0.000102566
0.000105025
0.00010855
0.00010592
9.85455e-05
9.53504e-05
9.87257e-05
0.000101364
9.82193e-05
9.29743e-05
9.10845e-05
9.22932e-05
9.31167e-05
9.21058e-05
9.04234e-05
8.88609e-05
8.7624e-05
8.72638e-05
8.77941e-05
8.79727e-05
8.7115e-05
8.60541e-05
8.57592e-05
8.61144e-05
7.14966e-05
7.66334e-05
8.01953e-05
7.77688e-05
7.36821e-05
7.43877e-05
7.84183e-05
8.03448e-05
7.95619e-05
7.87868e-05
7.95169e-05
8.17897e-05
8.40151e-05
8.45819e-05
8.47652e-05
8.63555e-05
8.8401e-05
8.96707e-05
9.09191e-05
9.27879e-05
9.46369e-05
9.6171e-05
9.78675e-05
9.98095e-05
0.00010168
0.000103492
0.000105416
0.000107362
0.000109224
0.000111055
0.000112852
0.000114528
0.000116098
0.000117655
0.000119155
0.000120356
0.000121195
0.000122055
0.00012297
0.000123343
0.00012343
0.000123719
0.000123866
0.000123188
0.000122313
0.00012237
0.000121517
0.00011845
0.000117478
0.000120452
0.000119917
0.000112209
0.000107202
0.000111734
0.000116369
0.000111855
0.000103586
0.000100029
0.000104104
0.000107923
0.000103424
9.54589e-05
9.36597e-05
9.7594e-05
9.9302e-05
9.56904e-05
9.12194e-05
8.98674e-05
9.06248e-05
9.07974e-05
8.9963e-05
8.88821e-05
8.75666e-05
8.62145e-05
8.57279e-05
8.61164e-05
8.63225e-05
8.57616e-05
8.50248e-05
8.48303e-05
7.12541e-05
7.05653e-05
7.56552e-05
7.85361e-05
7.60615e-05
7.33604e-05
7.46883e-05
7.77317e-05
7.94054e-05
7.95231e-05
7.9163e-05
7.99546e-05
8.2306e-05
8.42435e-05
8.48918e-05
8.5875e-05
8.77984e-05
8.95008e-05
9.07666e-05
9.24081e-05
9.44087e-05
9.62272e-05
9.79607e-05
9.99059e-05
0.00010192
0.000103841
0.000105789
0.000107817
0.000109811
0.000111739
0.000113648
0.000115469
0.000117068
0.000118542
0.000120139
0.000121666
0.000122584
0.00012318
0.000124196
0.000124961
0.000124845
0.000124575
0.000124749
0.000124587
0.00012357
0.000123502
0.000123682
0.000120086
0.000115371
0.000117502
0.000122965
0.000119228
0.000107975
0.000104698
0.000111825
0.000115626
0.000109964
0.000100407
9.77413e-05
0.000103682
0.000106699
0.000100353
9.2741e-05
9.22686e-05
9.61036e-05
9.6776e-05
9.31225e-05
8.94844e-05
8.85273e-05
8.87824e-05
8.8488e-05
8.78706e-05
8.7206e-05
8.60743e-05
8.48015e-05
8.42614e-05
8.44942e-05
8.46931e-05
8.43869e-05
8.39313e-05
7.41328e-05
6.94227e-05
7.02439e-05
7.49482e-05
7.68196e-05
7.48765e-05
7.36119e-05
7.4843e-05
7.71361e-05
7.9027e-05
7.95936e-05
7.95518e-05
8.07886e-05
8.3024e-05
8.45044e-05
8.54572e-05
8.70968e-05
8.90976e-05
9.0683e-05
9.22013e-05
9.41109e-05
9.6117e-05
9.79906e-05
9.99523e-05
0.000102077
0.000104174
0.000106207
0.000108281
0.000110376
0.000112401
0.000114399
0.00011643
0.000118266
0.000119683
0.000121081
0.000122859
0.000124247
0.000124627
0.000125183
0.000126372
0.0001269
0.000126447
0.000125891
0.000125422
0.000124063
0.00012373
0.000126026
0.000124972
0.000116675
0.000111739
0.0001188
0.000125386
0.000117102
0.000103778
0.000103007
0.000110921
0.000114541
0.000107294
9.65841e-05
9.59654e-05
0.000103201
0.000104594
9.70565e-05
9.03819e-05
9.09174e-05
9.4218e-05
9.41165e-05
9.06431e-05
8.77669e-05
8.69933e-05
8.67635e-05
8.62373e-05
8.584e-05
8.54092e-05
8.44851e-05
8.339e-05
8.28379e-05
8.29386e-05
8.31391e-05
8.302e-05
7.50213e-05
7.20019e-05
6.84976e-05
7.01662e-05
7.39391e-05
7.50747e-05
7.42498e-05
7.38684e-05
7.47985e-05
7.69161e-05
7.88956e-05
7.95649e-05
8.01293e-05
8.18726e-05
8.38097e-05
8.50562e-05
8.64076e-05
8.83694e-05
9.0322e-05
9.20081e-05
9.38513e-05
9.59323e-05
9.79706e-05
9.99749e-05
0.000102131
0.00010439
0.000106599
0.000108778
0.000110985
0.000113119
0.000115122
0.00011723
0.000119455
0.000121182
0.000122297
0.000123847
0.000125893
0.000126786
0.000126622
0.000127161
0.000128192
0.000128697
0.000128497
0.000127742
0.000124979
0.0001219
0.000124561
0.000129959
0.000124987
0.000111264
0.000108507
0.000121
0.000126753
0.000114117
0.00010077
0.000101195
0.000110382
0.000113678
0.000103524
9.28021e-05
9.46867e-05
0.000102228
0.000101852
9.38221e-05
8.82656e-05
8.92685e-05
9.19692e-05
9.13607e-05
8.83102e-05
8.61036e-05
8.528e-05
8.46621e-05
8.4068e-05
8.37847e-05
8.35231e-05
8.28563e-05
8.19792e-05
8.14634e-05
8.14974e-05
8.16976e-05
7.12436e-05
7.35845e-05
7.03221e-05
6.83228e-05
7.02198e-05
7.27559e-05
7.39224e-05
7.40633e-05
7.40254e-05
7.50009e-05
7.71409e-05
7.88272e-05
7.96144e-05
8.08816e-05
8.28914e-05
8.46073e-05
8.59553e-05
8.7668e-05
8.97175e-05
9.16435e-05
9.35328e-05
9.56474e-05
9.7865e-05
0.00010001
0.000102185
0.000104504
0.000106875
0.000109208
0.000111579
0.000113946
0.000116037
0.000117987
0.000120359
0.000122762
0.000124071
0.000124914
0.000126933
0.000129073
0.000129413
0.000128921
0.000128756
0.000129208
0.000130286
0.000131691
0.00012981
0.000122378
0.000118602
0.000127175
0.000134582
0.000122953
0.000104553
0.000106117
0.000122809
0.000126119
0.00011159
9.83461e-05
9.93837e-05
0.000110507
0.000111863
9.90546e-05
8.9524e-05
9.35215e-05
0.000100569
9.88128e-05
9.09814e-05
8.63021e-05
8.73437e-05
8.93456e-05
8.85012e-05
8.61149e-05
8.44288e-05
8.34856e-05
8.26486e-05
8.19923e-05
8.17384e-05
8.16168e-05
8.11999e-05
8.05425e-05
8.01253e-05
8.01557e-05
6.62165e-05
7.08273e-05
7.13003e-05
6.90044e-05
6.84626e-05
6.98517e-05
7.17444e-05
7.32745e-05
7.38638e-05
7.41718e-05
7.55786e-05
7.76073e-05
7.89449e-05
8.00099e-05
8.17531e-05
8.37843e-05
8.54605e-05
8.71004e-05
8.90843e-05
9.11673e-05
9.31595e-05
9.52636e-05
9.75838e-05
9.99432e-05
0.000102249
0.000104617
0.00010709
0.00010954
0.000112013
0.000114676
0.000117172
0.000119069
0.000121097
0.000123983
0.000126325
0.000126905
0.000127679
0.000130069
0.000132148
0.000132681
0.000131543
0.000129556
0.000128887
0.000132323
0.000136519
0.000130829
0.000116801
0.000115228
0.000131797
0.000139039
0.000119143
9.82757e-05
0.000104679
0.000122239
0.000123833
0.00010831
9.39925e-05
9.80691e-05
0.000110558
0.00010899
9.45346e-05
8.67995e-05
9.19663e-05
9.80783e-05
9.56999e-05
8.85348e-05
8.45471e-05
8.52538e-05
8.64095e-05
8.55799e-05
8.38906e-05
8.26208e-05
8.16891e-05
8.0768e-05
8.00394e-05
7.97715e-05
7.97583e-05
7.9561e-05
7.91244e-05
7.88237e-05
6.42984e-05
6.61876e-05
6.92499e-05
6.92598e-05
6.85143e-05
6.8522e-05
6.94838e-05
7.12836e-05
7.28959e-05
7.35842e-05
7.44432e-05
7.62659e-05
7.80957e-05
7.93525e-05
8.07722e-05
8.27252e-05
8.46867e-05
8.64617e-05
8.84027e-05
9.05792e-05
9.27436e-05
9.48788e-05
9.71857e-05
9.96808e-05
0.000102194
0.000104702
0.000107313
0.000109912
0.000112383
0.000115111
0.000118178
0.000120588
0.00012216
0.000124622
0.000128164
0.000130121
0.000130043
0.000130595
0.000132586
0.000135426
0.000136857
0.000134354
0.000128618
0.000127273
0.000136213
0.000142934
0.000129301
0.000108174
0.000112196
0.000137395
0.000141922
0.000114824
9.4631e-05
0.00010377
0.00012066
0.000121238
0.000103142
8.94465e-05