/*--------------------------------*- C++ -*----------------------------------*\
| =========                 |                                                 |
| \\      /  F ield         | OpenFOAM: The Open Source CFD Toolbox           |
|  \\    /   O peration     | Version:  2412                                  |
|   \\  /    A nd           | Website:  www.openfoam.com                      |
|    \\/     M anipulation  |                                                 |
\*---------------------------------------------------------------------------*/
FoamFile
{
    version     2.0;
    format      ascii;
    arch        "LSB;label=32;scalar=64";
    class       volScalarField;
    location    "0.8";
    object      alpha.glycerin;
}
// * * * * * * * * * * * * * * * * * * * * * * * * * * * * * * * * * * * * * //

dimensions      [0 0 0 0 0 0 0];

internalField   nonuniform List<scalar> 
6400
(
1
1
1
1
1
1
1
1
1
1
1
1
1
1
1
1
1
1
1
1
1
1
1
1
1
1
1
1
1
1
1
1
1
1
1
1
1
1
1
1
1
1
1
1
1
1
1
1
1
1
1
1
1
1
1
1
1
1
1
1
1
1
1
1
1
1
1
1
1
1
1
1
1
1
1
1
1
1
1
1
1
1
1
1
1
1
1
1
1
1
1
1
1
1
1
1
1
1
1
1
1
1
1
1
1
1
1
1
1
1
1
1
1
1
1
1
1
1
1
1
1
1
1
1
1
1
1
1
1
1
1
1
1
1
1
1
1
1
1
1
1
1
1
1
1
1
1
1
1
1
1
1
1
1
1
1
1
1
1
1
1
1
1
1
1
1
1
1
1
1
1
1
1
1
1
1
1
1
1
1
1
1
1
1
1
1
1
1
1
1
1
1
1
1
1
1
1
1
1
1
1
1
1
1
1
1
1
1
1
1
1
1
1
1
1
1
1
1
1
1
1
1
1
1
1
1
1
1
1
1
1
1
1
1
1
1
1
1
1
1
1
1
1
1
1
1
1
1
1
1
1
1
1
1
1
1
1
1
1
1
1
1
1
1
1
1
1
1
1
1
1
1
1
1
1
1
1
1
1
1
1
1
1
1
1
1
1
1
1
1
1
1
1
1
1
1
1
1
1
1
1
1
1
1
1
1
1
1
1
1
1
1
1
1
1
1
1
1
1
1
1
1
1
1
1
1
1
1
1
1
1
1
1
1
1
1
1
1
1
1
1
1
1
1
1
1
1
1
1
1
1
1
1
1
1
1
1
1
1
1
1
1
1
1
1
1
1
1
1
1
1
1
1
1
1
1
1
1
1
1
1
1
1
1
1
1
1
1
1
1
1
1
1
1
1
1
1
1
1
1
1
1
1
1
1
1
1
1
1
1
1
1
1
1
1
1
1
1
1
1
1
1
1
1
1
1
1
1
1
1
1
1
1
1
1
1
1
1
1
1
1
1
1
1
1
1
1
1
1
1
1
1
1
1
1
1
1
1
1
1
1
1
1
1
1
1
1
1
1
1
1
1
1
1
1
1
1
1
1
1
1
1
1
1
1
1
1
1
1
1
1
1
1
1
1
1
1
1
1
1
1
1
1
1
1
1
1
1
1
1
1
1
1
1
1
1
1
1
1
1
1
1
1
1
1
1
1
1
1
1
1
1
1
1
1
1
1
1
1
1
1
1
1
1
1
1
1
1
1
1
1
1
1
1
1
1
1
1
1
1
1
1
1
1
1
1
1
1
1
1
1
1
1
1
1
1
1
1
1
1
1
1
1
1
1
1
1
1
1
1
1
1
1
1
1
1
1
1
1
1
1
1
1
1
1
1
1
1
1
1
1
1
1
1
1
1
1
1
1
1
1
1
1
1
1
1
1
1
1
1
1
1
1
1
1
1
1
1
1
1
1
1
1
1
1
1
1
1
1
1
1
1
1
1
1
1
1
1
1
1
1
1
1
1
1
1
1
1
1
1
1
1
1
1
1
1
1
1
1
1
1
1
1
1
1
1
1
1
1
1
1
1
1
1
1
1
1
1
1
1
1
1
1
1
1
1
1
1
1
1
1
1
1
1
1
1
1
1
1
1
1
1
1
1
1
1
1
1
1
1
1
1
1
1
1
1
1
1
1
1
1
1
1
1
1
1
1
1
1
1
1
1
1
1
1
1
1
1
1
1
1
1
1
1
1
1
1
1
1
1
1
1
1
1
1
1
1
1
1
1
1
1
1
1
1
1
1
1
1
1
1
1
1
1
1
1
1
1
1
1
1
1
1
1
1
1
1
1
1
1
1
1
1
1
1
1
1
1
1
1
1
1
1
1
1
1
1
1
1
1
1
1
1
1
1
1
1
1
1
1
1
1
1
1
1
1
1
1
1
1
1
1
1
1
1
1
1
1
1
1
1
1
1
1
1
1
1
1
1
1
1
1
1
1
1
1
1
1
1
1
1
1
1
1
1
1
1
1
1
1
1
1
1
1
1
1
1
1
1
1
1
1
1
1
1
1
1
1
1
1
1
1
1
1
1
1
1
1
1
1
1
1
1
1
1
1
1
1
1
1
1
1
1
1
1
1
1
1
1
1
1
1
1
1
1
1
1
1
1
1
1
1
1
1
1
1
1
1
1
1
1
1
1
1
1
1
1
1
1
1
1
1
1
1
1
1
1
1
1
1
1
1
1
1
1
1
1
1
1
1
1
1
1
1
1
1
1
1
1
1
1
1
1
1
1
1
1
1
1
1
1
1
1
1
1
1
1
1
1
1
1
1
1
1
1
1
1
1
1
1
1
1
1
1
1
1
1
1
1
1
1
1
1
1
1
1
1
1
1
1
1
1
1
1
1
1
1
1
1
1
1
1
1
1
1
1
1
1
1
1
1
1
1
1
1
1
1
1
1
1
1
1
1
1
1
1
1
1
1
1
1
1
1
1
1
1
1
1
1
1
1
1
1
1
1
1
1
1
1
1
1
1
1
1
1
1
1
1
1
1
1
1
1
1
1
1
1
1
1
1
1
1
1
1
1
1
1
1
1
1
1
1
1
1
1
1
1
1
1
1
1
1
1
1
1
1
1
1
1
1
1
1
1
1
1
1
1
1
1
1
1
1
1
1
1
1
1
1
1
1
1
1
1
1
1
1
1
1
1
1
1
1
1
1
1
1
1
1
1
1
1
1
1
1
1
1
1
1
1
1
1
1
1
1
1
1
1
1
1
1
1
1
1
1
1
1
1
1
1
1
1
1
1
1
1
1
1
1
1
1
1
1
1
1
1
1
1
1
1
1
1
1
1
1
1
1
1
1
1
1
1
1
1
1
1
1
1
1
1
1
1
1
1
1
1
1
1
1
1
1
1
1
1
1
1
1
1
1
1
1
1
1
1
1
1
1
1
1
1
1
1
1
1
1
1
1
1
1
1
1
1
1
1
1
1
1
1
1
1
1
1
1
1
1
1
1
1
1
1
1
1
1
1
1
1
1
1
1
1
1
1
1
1
1
1
1
1
1
1
1
1
1
1
1
1
1
1
1
1
1
1
1
1
1
1
1
1
1
1
1
1
1
1
1
1
1
1
1
1
1
1
1
1
1
1
1
1
1
1
1
1
1
1
1
1
1
1
1
1
1
1
1
1
1
1
1
1
1
1
1
1
1
1
1
1
1
1
1
1
1
1
1
1
1
1
1
1
1
1
1
1
1
1
1
1
1
1
1
1
1
1
1
1
1
1
1
1
1
1
1
1
1
1
1
1
1
1
1
1
1
1
1
1
1
1
1
1
1
1
1
1
1
1
1
1
1
1
1
1
1
1
1
1
1
1
1
1
1
1
1
1
1
1
1
1
1
1
1
1
1
1
1
1
1
1
1
1
1
1
1
1
1
1
1
1
1
1
1
1
1
1
1
1
1
1
1
1
1
1
1
1
1
1
1
1
1
1
1
1
1
1
1
0.999999
0.999999
0.999999
0.999998
0.999998
0.999997
0.999997
0.999997
0.999996
0.999996
0.999996
0.999995
0.999995
0.999995
0.999995
0.999995
0.999995
0.999995
0.999995
0.999995
0.999995
0.999995
0.999995
0.999995
0.999995
0.999996
0.999996
0.999996
0.999996
0.999997
0.999997
0.999997
0.999998
0.999998
0.999999
0.999999
1
1
1
1
1
1
1
1
1
1
1
1
1
1
1
1
1
1
1
1
1
1
1.96621e-06
2.87582e-06
3.47786e-06
3.90998e-06
4.18312e-06
4.32422e-06
4.35945e-06
4.31209e-06
4.20022e-06
4.03699e-06
3.83185e-06
3.59154e-06
3.32075e-06
3.02332e-06
2.70207e-06
2.35826e-06
1.9937e-06
1.61011e-06
1.20956e-06
7.94391e-07
3.67744e-07
1.60528e-08
2.29716e-88
2.29716e-88
3.92246e-86
8.86981e-84
1.6732e-81
2.63543e-79
3.55695e-77
4.14754e-75
4.17561e-73
3.60661e-71
2.64306e-69
1.6175e-67
8.08987e-66
3.21166e-64
9.71984e-63
2.11451e-61
3.0119e-60
2.34445e-59
2.11871e-59
2.2185e-60
5.41391e-62
4.98994e-64
2.83408e-66
1.244e-68
4.64047e-71
1.63044e-73
5.93537e-76
2.34823e-78
0
-4.33128e-42
-1.92518e-47
-4.5411e-53
-7.5022e-59
0
1.76698e-34
3.54427e-34
1.11288e-08
1.85827e-07
5.87025e-07
1.05496e-06
1.51853e-06
1.97327e-06
2.41615e-06
2.84563e-06
3.25535e-06
3.63923e-06
3.98855e-06
4.29841e-06
4.55841e-06
4.76487e-06
4.90407e-06
4.96442e-06
4.94724e-06
4.84452e-06
4.55002e-06
4.08284e-06
3.54986e-06
2.40409e-06
6.10981e-17
5.0045e-17
7.87411e-17
9.95336e-17
1.13235e-16
1.22415e-16
1.28022e-16
1.29873e-16
1.28034e-16
1.22903e-16
1.14964e-16
1.04688e-16
9.25489e-17
7.90658e-17
6.48065e-17
5.03784e-17
3.64608e-17
2.38107e-17
1.32345e-17
5.50809e-18
1.20697e-18
-3.76781e-26
-5.91751e-88
7.77027e-81
2.35148e-78
3.25844e-76
4.03331e-74
4.45687e-72
4.36331e-70
3.7461e-68
2.78437e-66
1.76313e-64
9.32191e-63
4.01057e-61
1.35754e-59
3.45641e-58
6.32426e-57
8.2371e-56
2.44038e-55
2.53868e-55
2.47003e-55
2.21948e-55
4.48241e-56
5.41391e-62
4.98993e-64
2.83408e-66
1.244e-68
4.63807e-71
1.63044e-73
5.93537e-76
2.34823e-78
0
5.98596e-76
3.96069e-78
3.18497e-80
6.41745e-24
6.40999e-25
1.17472e-34
-3.82843e-26
6.29614e-19
4.02908e-18
1.2182e-17
2.46179e-17
3.97132e-17
5.71532e-17
7.70907e-17
9.76575e-17
1.15874e-16
1.30264e-16
1.41129e-16
1.48834e-16
1.53041e-16
1.53203e-16
1.49565e-16
1.42478e-16
1.3087e-16
1.13832e-16
9.11523e-17
6.02632e-17
7.22157e-17
5.97074e-20
3.55936e-20
5.54692e-20
6.96878e-20
8.7244e-20
1.029e-19
1.18273e-19
1.26645e-19
1.2388e-19
1.17661e-19
1.08475e-19
9.68859e-20
8.35298e-20
6.91187e-20
5.44575e-20
4.02657e-20
2.73348e-20
1.64303e-20
8.18732e-21
2.94668e-21
5.37334e-22
-5.21956e-39
1.63469e-80
1.48011e-77
4.2723e-75
5.84767e-73
7.187e-71
7.88482e-69
7.65923e-67
6.52039e-65
4.80343e-63
3.01445e-61
1.58027e-59
6.74973e-58
2.27365e-56
5.7835e-55
1.05971e-53
1.36838e-52
4.94833e-52
6.84481e-52
6.7179e-52
4.47633e-52
7.95931e-53
2.01316e-55
1.93286e-57
1.15217e-59
5.36063e-62
2.14351e-64
8.17785e-67
3.27986e-69
1.45971e-71
7.24724e-74
4.10772e-76
2.49163e-78
3.18497e-80
1.91613e-79
8.81875e-29
2.7449e-30
2.21148e-30
2.60106e-22
2.083e-21
7.35215e-21
1.65895e-20
2.95176e-20
4.63477e-20
6.63042e-20
8.64358e-20
1.04429e-19
1.20483e-19
1.35279e-19
1.4725e-19
1.53304e-19
1.36774e-19
1.28862e-19
1.16023e-19
9.30742e-20
7.81796e-20
6.29105e-20
4.1875e-20
7.13925e-20
3.77983e-22
3.92093e-22
5.97756e-22
7.27136e-22
8.01233e-22
8.29321e-22
8.1283e-22
7.71072e-22
6.96187e-22
5.92655e-22
4.72921e-22
3.44585e-22
2.15894e-22
9.86239e-23
6.94008e-23
4.98473e-23
3.25133e-23
1.84988e-23
8.53232e-24
2.72976e-24
4.0536e-25
1.68156e-42
1.43983e-77
1.35207e-74
3.89277e-72
5.29315e-70
6.45945e-68
7.02972e-66
6.76632e-64
5.7019e-62
4.15457e-60
2.57754e-58
1.33584e-56
5.64443e-55
1.88384e-53
4.76061e-52
8.68223e-51
1.10751e-49
4.48283e-49
6.92736e-49
6.79493e-49
4.12101e-49
6.74612e-50
2.85251e-52
2.86389e-54
1.80249e-56
8.90401e-59
3.77552e-61
1.5107e-63
6.24059e-66
2.81386e-68
1.40263e-70
7.63042e-73
4.4408e-75
2.71385e-77
1.75591e-79
2.36919e-36
6.38114e-34
6.39614e-34
1.80981e-25
1.88468e-24
7.75638e-24
1.92172e-23
3.63744e-23
5.97656e-23
8.84777e-23
1.25763e-22
2.95195e-22
4.51694e-22
5.99552e-22
7.62488e-22
9.02577e-22
1.01497e-21
1.03275e-21
1.00221e-21
9.48643e-22
8.57031e-22
7.16231e-22
4.76523e-22
4.7061e-22
4.74573e-25
4.75435e-25
7.19459e-25
8.72362e-25
9.60617e-25
9.96134e-25
9.80214e-25
9.3532e-25
8.44989e-25
7.21734e-25
5.77682e-25
4.23326e-25
2.70586e-25
1.38654e-25
8.69822e-26
5.96121e-26
3.66098e-26
1.92697e-26
8.02297e-27
2.23448e-27
2.74148e-28
4.96525e-43
1.31396e-74
8.46624e-72
2.42538e-69
3.26586e-67
3.94354e-65
4.24227e-63
4.03198e-61
3.35166e-59
2.40706e-57
1.47114e-55
7.50988e-54
3.12686e-52
1.02953e-50
2.57181e-49
4.64418e-48
5.83487e-47
2.52508e-46
4.11703e-46
4.03787e-46
2.34116e-46
3.66341e-47
2.01052e-49
2.11222e-51
1.40552e-53
7.39082e-56
3.33995e-58
1.41372e-60
6.08688e-63
2.81569e-65
1.42393e-67
7.81303e-70
4.57574e-72
2.81199e-74
1.78446e-76
1.54054e-49
3.29307e-39
1.62587e-37
1.20625e-28
1.52144e-27
7.24678e-27
2.00796e-26
4.13426e-26
7.23311e-26
1.12307e-25
1.88162e-25
3.88922e-25
5.76976e-25
7.484e-25
9.31579e-25
1.0927e-24
1.20649e-24
1.23039e-24
1.19067e-24
1.12221e-24
1.00718e-24
8.37401e-25
5.6101e-25
5.73343e-25
8.51346e-28
8.24838e-28
1.2434e-27
1.50794e-27
1.66184e-27
1.72662e-27
1.70322e-27
1.63075e-27
1.473e-27
1.26172e-27
1.01424e-27
7.50627e-28
4.92805e-28
2.67822e-28
1.37899e-28
9.00381e-29
5.19687e-29
2.5255e-29
9.47481e-30
2.29844e-30
2.3437e-31
-9.70965e-49
8.29227e-72
4.05073e-69
1.15325e-66
1.53357e-64
1.82669e-62
1.93629e-60
1.81141e-58
1.48063e-56
1.04472e-54
6.26972e-53
3.14207e-51
1.28469e-49
4.15739e-48
1.02241e-46
1.82042e-45
2.2473e-44
1.01164e-43
1.69509e-43
1.66182e-43
9.41475e-44
1.43724e-44
9.31434e-47
1.02451e-48
7.21527e-51
4.04671e-53
1.95651e-55
8.82233e-58
4.00162e-60
1.92402e-62
1.00043e-64
5.60558e-67
3.3399e-69
2.08375e-71
1.34008e-73
5.48014e-57
1.98159e-43
5.53053e-41
1.01813e-31
1.54261e-30
8.4505e-30
2.61233e-29
5.85722e-29
1.09471e-28
1.78952e-28
3.57564e-28
6.93376e-28
1.01247e-27
1.31375e-27
1.63025e-27
1.90533e-27
2.07231e-27
2.10841e-27
2.03441e-27
1.91249e-27
1.71188e-27
1.42108e-27
9.60068e-28
1.01367e-27
1.86629e-30
1.77543e-30
2.67273e-30
3.23877e-30
3.56581e-30
3.69913e-30
3.65317e-30
3.48626e-30
3.1387e-30
2.6791e-30
2.14502e-30
1.58318e-30
1.04341e-30
5.78827e-31
2.69532e-31
1.65548e-31
8.98367e-32
4.03373e-32
1.36594e-32
2.89813e-33
2.47615e-34
-6.82442e-50
1.56856e-66
1.5664e-66
4.43144e-64
5.80473e-62
6.80155e-60
7.08384e-58
6.50399e-56
5.21237e-54
3.60288e-52
2.11692e-50
1.03842e-48
4.15661e-47
1.31787e-45
3.17972e-44
5.56332e-43
6.735e-42
3.09768e-41
5.2578e-41
5.15147e-41
2.88622e-41
4.3534e-42
3.1758e-44
3.65986e-46
2.73106e-48
1.63668e-50
8.49277e-53
4.102e-55
1.97632e-57
9.97991e-60
5.39501e-62
3.11987e-64
1.90983e-66
1.22102e-68
8.02847e-71
2.51775e-60
1.36777e-47
2.42628e-44
1.06233e-34
1.91702e-33
1.20134e-32
4.1292e-32
1.00676e-31
2.00981e-31
3.45913e-31
7.68141e-31
1.44797e-30
2.12785e-30
2.79267e-30
3.4772e-30
4.06185e-30
4.38631e-30
4.46134e-30
4.30432e-30
4.05245e-30
3.63246e-30
3.0206e-30
2.05192e-30
2.20215e-30
4.81536e-33
4.52978e-33
6.81827e-33
8.25246e-33
9.0701e-33
9.39042e-33
9.27206e-33
8.80511e-33
7.89317e-33
6.69901e-33
5.32558e-33
3.9005e-33
2.55623e-33
1.42244e-33
6.37524e-34
3.61467e-34
1.84754e-34
7.68386e-35
2.35756e-35
4.40225e-36
3.17744e-37
-3.33818e-52
9.8188e-66
1.03551e-63
1.43018e-61
1.83189e-59
2.10624e-57
2.14983e-55
1.9322e-53
1.51426e-51
1.02269e-49
5.86786e-48
2.81011e-46
1.09835e-44
3.40269e-43
8.03243e-42
1.37728e-40
1.6326e-39
7.57944e-39
1.29226e-38
1.2656e-38
7.0679e-39
1.06243e-39
8.4758e-42
1.02452e-43
8.11283e-46
5.20591e-48
2.90845e-50
1.51211e-52
7.79337e-55
4.17022e-57
2.36687e-59
1.42638e-61
9.05115e-64
5.97898e-66
4.05837e-68
1.23671e-63
9.8437e-51
1.36438e-47
1.35675e-37
2.88576e-36
2.05197e-35
7.78787e-35
2.05388e-34
4.36389e-34
7.89134e-34
1.89735e-33
3.52954e-33
5.22428e-33
6.92061e-33
8.65665e-33
1.01564e-32
1.09623e-32
1.11982e-32
1.08258e-32
1.02165e-32
9.17121e-33
7.63531e-33
5.20407e-33
5.63598e-33
1.43469e-35
1.33979e-35
2.01789e-35
2.43937e-35
2.67613e-35
2.76376e-35
2.72965e-35
2.57699e-35
2.30035e-35
1.94017e-35
1.53013e-35
1.11018e-35
7.20827e-36
3.99205e-36
1.74892e-36
9.20967e-37
4.44609e-37
1.71915e-37
4.80413e-38
7.95422e-39
4.85459e-40
-9.79753e-54
1.72744e-63
1.47834e-61
3.95446e-59
4.92235e-57
5.5417e-55
5.53091e-53
4.85499e-51
3.71226e-49
2.44419e-47
1.36643e-45
6.37469e-44
2.42772e-42
7.33336e-41
1.69008e-39
2.83435e-38
3.28633e-37
1.52726e-36
2.60246e-36
2.54906e-36
1.42697e-36
2.15049e-37
1.84062e-39
2.33717e-41
1.96776e-43
1.35541e-45
8.18087e-48
4.60057e-50
2.55337e-52
1.4596e-54
8.77604e-57
5.56202e-59
3.68926e-61
2.53698e-63
1.8132e-65
7.43805e-63
9.06415e-54
9.84759e-51
2.01459e-40
5.19807e-39
4.15438e-38
1.72731e-37
4.89558e-37
1.10164e-36
2.13185e-36
5.31801e-36
9.87222e-36
1.47629e-35
1.97604e-35
2.48812e-35
2.93879e-35
3.17757e-35
3.26398e-35
3.16354e-35
2.99212e-35
2.68932e-35
2.24051e-35
1.53077e-35
1.66639e-35
4.85766e-38
4.5145e-38
6.80636e-38
8.21933e-38
9.00376e-38
9.27517e-38
9.16067e-38
8.60753e-38
7.65218e-38
6.41615e-38
5.0212e-38
3.60867e-38
2.31907e-38
1.27425e-38
5.52041e-39
2.70266e-39
1.2368e-39
4.46672e-40
1.14387e-40
1.69322e-41
8.24318e-43
3.4184e-62
1.59499e-61
7.13882e-59
9.46415e-57
1.14148e-54
1.25609e-52
1.22344e-50
1.04682e-48
7.79448e-47
4.99367e-45
2.71522e-43
1.23186e-41
4.56364e-40
1.34202e-38
3.01494e-37
4.93853e-36
5.59702e-35
2.58846e-34
4.39389e-34
4.30632e-34
2.42604e-34
3.68084e-35
3.33719e-37
4.45936e-39
4.00098e-41
2.96651e-43
1.9413e-45
1.18655e-47
7.13663e-50
4.39126e-52
2.82049e-54
1.8963e-56
1.32556e-58
9.55004e-61
7.36528e-63
2.74858e-60
1.04004e-56
9.07039e-54
3.52229e-43
1.10629e-41
9.8528e-41
4.45727e-40
1.34965e-39
3.20055e-39
6.61771e-39
1.68149e-38
3.14266e-38
4.76619e-38
6.45825e-38
8.19077e-38
9.72144e-38
1.05305e-37
1.08477e-37
1.05418e-37
9.98746e-38
8.98983e-38
7.49615e-38
5.13253e-38
5.60356e-38
1.84447e-40
1.70888e-40
2.57964e-40
3.11282e-40
3.40577e-40
3.5035e-40
3.45789e-40
3.23855e-40
2.86937e-40
2.3939e-40
1.86076e-40
1.32582e-40
8.43728e-41
4.59718e-41
1.98205e-41
9.04419e-42
3.93991e-42
1.33607e-42
3.15692e-43
4.21455e-44
1.27132e-45
8.41265e-57
6.2886e-59
1.70468e-56
1.97695e-54
2.30435e-52
2.47477e-50
2.3485e-48
1.95556e-46
1.41573e-44
8.81291e-43
4.65428e-41
2.05095e-39
7.38282e-38
2.11128e-36
4.61862e-35
7.38192e-34
8.17319e-33
3.74384e-32
6.31414e-32
6.19279e-32
3.52025e-32
5.39325e-33
5.13812e-35
7.23943e-37
6.93834e-39
5.55349e-41
3.95422e-43
2.63875e-45
1.72992e-47
1.15366e-49
7.97505e-52
5.73389e-54
4.2593e-56
3.23991e-58
2.72096e-60
6.6576e-58
9.34933e-59
1.04164e-56
7.2037e-46
2.75177e-44
2.71106e-43
1.32662e-42
4.26964e-42
1.062e-41
2.33667e-41
5.99739e-41
1.13068e-40
1.73998e-40
2.38742e-40
3.04939e-40
3.62728e-40
3.94344e-40
4.05423e-40
3.95215e-40
3.74793e-40
3.37872e-40
2.82029e-40
1.93458e-40
2.11492e-40
7.76782e-43
7.18385e-43
1.08597e-42
1.30997e-42
1.43219e-42
1.47262e-42
1.45267e-42
1.35791e-42
1.2003e-42
9.97651e-43
7.71294e-43
5.45654e-43
3.44375e-43
1.86262e-43
8.01426e-44
3.42399e-44
1.42663e-44
4.56915e-45
1.00345e-45
1.21973e-46
2.31462e-48
1.66833e-54
1.21419e-56
3.31793e-54
3.63321e-52
4.07725e-50
4.26182e-48
3.93528e-46
3.18505e-44
2.2394e-42
1.35311e-40
6.93471e-39
2.96577e-37
1.03659e-35
2.88058e-34
6.13074e-33
9.55228e-32
1.0325e-30
4.66429e-30
7.79568e-30
7.64957e-30
4.3958e-30
6.81712e-31
6.79145e-33
1.011e-34
1.03766e-36
8.99244e-39
6.99029e-41
5.11382e-43
3.67281e-45
2.67058e-47
1.9995e-49
1.54757e-51
1.23064e-53
9.95783e-56
4.94309e-57
9.34933e-59
9.34933e-59
9.34934e-59
1.32779e-48
7.93512e-47
8.58605e-46
4.51805e-45
1.53784e-44
3.99405e-44
9.42144e-44
2.40961e-43
4.56651e-43
7.10682e-43
9.8526e-43
1.26618e-42
1.50924e-42
1.64502e-42
1.68801e-42
1.64983e-42
1.56492e-42
1.41241e-42
1.17992e-42
8.10395e-43
8.85866e-43
3.59481e-45
3.32195e-45
5.02952e-45
6.06778e-45
6.63378e-45
6.82236e-45
6.73187e-45
6.28857e-45
5.55264e-45
4.60477e-45
3.54696e-45
2.49639e-45
1.56585e-45
8.4246e-46
3.63102e-46
1.45694e-46
5.83593e-47
1.77634e-47
3.65403e-48
4.08118e-49
4.52329e-51
2.99324e-52
2.04852e-54
5.84685e-52
6.11544e-50
6.41236e-48
6.4335e-46
5.77612e-44
4.54037e-42
3.0982e-40
1.81606e-38
9.02787e-37
3.74554e-35
1.27051e-33
3.42865e-32
7.09306e-31
1.07622e-29
1.13455e-28
5.03356e-28
8.31653e-28
8.16256e-28
4.7505e-28
7.47441e-29
7.76041e-31
1.22332e-32
1.34835e-34
1.2692e-36
1.08092e-38
8.70215e-41
6.87786e-43
5.48111e-45
4.46822e-47
3.74142e-49
3.202e-51
2.77571e-53
1.61628e-54
1.74132e-56
1.09652e-58
8.73127e-57
2.89884e-51
2.63997e-49
3.10967e-48
1.74791e-47
6.25796e-47
1.68913e-46
4.29297e-46
1.08511e-45
2.05904e-45
3.22595e-45
4.50181e-45
5.80803e-45
6.93276e-45
7.5697e-45
7.76176e-45
7.59665e-45
7.2041e-45
6.50575e-45
5.43614e-45
3.73581e-45
4.07851e-45
1.81366e-47
1.67607e-47
2.54195e-47
3.0688e-47
3.35752e-47
3.45666e-47
3.41464e-47
3.19206e-47
2.81946e-47
2.33685e-47
1.79701e-47
1.26116e-47
7.88254e-48
4.23008e-48
1.83072e-48
6.92918e-49
2.68294e-49
7.81218e-50
1.51281e-50
1.89636e-51
1.06878e-51
8.32053e-52
3.14393e-52
9.07071e-50
9.07193e-48
8.85709e-46
8.51774e-44
7.43804e-42
5.67669e-40
3.75844e-38
2.13684e-36
1.0302e-34
4.14553e-33
1.36417e-31
3.57269e-30
7.17701e-29
1.05919e-27
1.08776e-26
4.72133e-26
7.69551e-26
7.55488e-26
4.46256e-26
7.13922e-27
7.70291e-29
1.28927e-30
1.53097e-32
1.5711e-34
1.4718e-36
1.30929e-38
1.14368e-40
1.00372e-42
8.95226e-45
8.14203e-47
7.52416e-49
7.39461e-51
4.51473e-52
4.96647e-54
1.63869e-56
2.53379e-54
9.76683e-54
1.00705e-51
1.2822e-50
7.63773e-50
2.85865e-49
7.97823e-49
2.17487e-48
5.42918e-48
1.02965e-47
1.61885e-47
2.26653e-47
2.92798e-47
3.49428e-47
3.81687e-47
3.90935e-47
3.82686e-47
3.62637e-47
3.27389e-47
2.73437e-47
1.87895e-47
2.04693e-47
9.90696e-50
9.16229e-50
1.3922e-49
1.68291e-49
1.84403e-49
1.90245e-49
1.88311e-49
1.76419e-49
1.56121e-49
1.29565e-49
9.96859e-50
6.9942e-50
4.36884e-50
2.34576e-50
1.022e-50
3.66537e-51
1.37521e-51
3.81391e-52
1.67633e-52
9.30378e-52
1.38095e-51
1.06878e-51
1.23015e-49
1.24815e-47
1.18796e-45
1.08043e-43
9.92492e-42
8.4059e-40
6.22887e-38
4.00186e-36
2.20714e-34
1.03206e-32
4.02757e-31
1.28526e-29
3.26441e-28
6.36134e-27
9.12116e-26
9.11559e-25
3.85771e-24
6.1933e-24
6.08332e-24
3.65539e-24
5.95262e-25
6.66462e-27
1.18826e-28
1.52586e-30
1.71435e-32
1.77472e-34
1.75256e-36
1.69949e-38
1.65026e-40
1.61826e-42
1.60518e-44
1.60694e-46
9.04579e-48
1.21008e-49
1.22418e-51
4.39726e-54
9.76683e-54
1.22429e-53
9.3849e-54
5.90685e-53
3.75126e-52
1.45937e-51
4.18817e-51
1.21317e-50
2.99243e-50
5.66566e-50
8.92158e-50
1.25049e-49
1.61424e-49
1.92258e-49
2.09684e-49
2.14238e-49
2.09465e-49
1.98142e-49
1.78657e-49
1.49038e-49
1.02347e-49
1.11197e-49
5.8235e-52
5.39319e-52
8.21223e-52
9.9461e-52
1.09237e-51
1.13057e-51
1.12239e-51
1.05541e-51
9.37296e-52
7.80418e-52
6.02173e-52
4.23554e-52
2.65237e-52
1.4297e-52
6.28845e-53
2.13316e-53
1.42648e-53
2.14419e-53
9.88753e-53
1.67633e-52
1.35698e-51
1.55031e-49
1.60306e-47
1.55103e-45
1.41165e-43
1.21679e-41
1.0295e-39
8.31788e-38
5.99413e-36
3.7387e-34
2.00103e-32
9.07709e-31
3.43521e-29
1.06277e-27
2.61637e-26
4.94174e-25
6.87829e-24
6.68348e-23
2.74923e-22
4.3411e-22
4.26724e-22
2.61322e-22
4.35366e-23
5.03682e-25
9.60229e-27
1.33891e-28
1.65439e-30
1.90185e-32
2.09528e-34
2.26608e-36
2.44541e-38
2.64887e-40
2.87851e-42
3.16569e-44
2.11892e-45
2.77227e-47
2.8826e-49
2.95999e-51
2.79113e-53
9.3849e-54
5.52825e-54
1.6716e-54
2.58335e-54
8.26385e-54
2.43422e-53
7.43565e-53
1.80958e-52
3.4118e-52
5.36703e-52
7.514e-52
9.6743e-52
1.14792e-51
1.24761e-51
1.26963e-51
1.23804e-51
1.1677e-51
1.0505e-51
8.7468e-52
5.99982e-52
6.49881e-52
3.66364e-54
3.3995e-54
5.18871e-54
6.30034e-54
6.94155e-54
7.21538e-54
7.19157e-54
6.79829e-54
6.06938e-54
5.08069e-54
3.9413e-54
2.78716e-54
1.75559e-54
9.45037e-55
3.56843e-55
4.70355e-55
7.66689e-54
1.42648e-53
2.14419e-53
1.36132e-51
1.64218e-49
1.78675e-47
1.79656e-45
1.67854e-43
1.46426e-41
1.19839e-39
9.33014e-38
7.20935e-36
5.04916e-34
3.05971e-32
1.59011e-30
6.99998e-29
2.56947e-27
7.70648e-26
1.83846e-24
3.36383e-23
4.54222e-22
4.28755e-21
1.70855e-20
2.64889e-20
2.60585e-20
1.62781e-20
2.8266e-21
3.32642e-23
6.80918e-25
1.03544e-26
1.41331e-28
1.81276e-30
2.23902e-32
2.71302e-34
3.2664e-36
3.92331e-38
4.68937e-40
1.15759e-41
4.30682e-43
5.48561e-45
6.09935e-47
6.50813e-49
6.45859e-51
5.72801e-53
1.6716e-54
1.6716e-54
8.97504e-55
1.23404e-55
1.55184e-55
4.95745e-55
1.19807e-54
2.24151e-54
3.51007e-54
4.8935e-54
6.2682e-54
7.39484e-54
7.99354e-54
8.08988e-54
7.85712e-54
7.38084e-54
6.61897e-54
5.49734e-54
3.76506e-54
4.06459e-54
2.45451e-56
2.28311e-56
3.494e-56
4.25624e-56
4.70829e-56
4.92083e-56
4.92925e-56
4.69205e-56
4.21869e-56
3.5581e-56
2.78204e-56
1.9804e-56
1.23288e-56
9.09402e-57
7.0497e-56
3.00602e-55
4.70355e-55
1.16494e-53
1.3105e-51
1.43312e-49
1.69686e-47
1.8225e-45
1.79251e-43
1.62412e-41
1.36255e-39
1.06299e-37
7.77286e-36
5.53422e-34
3.70525e-32
2.18698e-30
1.10456e-28
4.72189e-27
1.68198e-25
4.89232e-24
1.1311e-22
2.00416e-21
2.624e-20
2.40364e-19
9.24245e-19
1.40397e-18
1.38219e-18
8.82383e-19
1.60541e-19
1.9175e-21
4.22869e-23
7.05437e-25
1.0683e-26
1.53545e-28
2.13583e-30
2.91197e-32
3.92502e-34
5.2418e-36
6.91229e-38
5.15615e-39
8.04424e-41
9.69452e-43
1.14977e-44
1.2655e-46
1.28424e-48
1.19376e-50
1.00478e-52
8.97504e-55
1.23404e-55
7.58176e-56
1.6767e-56
5.30273e-57
8.47133e-57
1.59633e-56
2.48532e-56
3.43898e-56
4.37023e-56
5.11417e-56
5.48645e-56
5.51557e-56
5.32694e-56
4.97922e-56
4.44737e-56
3.68233e-56
2.51715e-56
2.70754e-56
1.74317e-58
1.62617e-58
2.496e-58
3.05234e-58
3.39305e-58
3.56962e-58
3.59774e-58
3.45414e-58
3.13343e-58
2.66898e-58
2.09698e-58
1.26764e-58
3.28348e-58
5.37705e-57
9.09402e-57
6.99717e-56
9.14728e-54
1.1755e-51
1.38652e-49
1.49905e-47
1.47309e-45
1.57919e-43
1.53054e-41
1.35322e-39
1.09765e-37
8.20896e-36
5.68547e-34
3.69511e-32
2.36552e-30
1.35854e-28
6.68121e-27
2.77646e-25
9.60656e-24
2.71202e-22
6.07916e-21
1.04279e-19
1.32302e-18
1.17459e-17
4.34914e-17
6.46933e-17
6.37437e-17
4.16179e-17
7.95691e-18
9.62822e-20
2.23313e-21
4.2212e-23
7.14154e-25
1.15475e-26
1.81622e-28
2.79746e-30
4.23526e-32
6.30293e-34
3.32371e-35
8.19291e-37
1.17813e-38
1.54477e-40
1.89352e-42
2.1334e-44
2.19572e-46
2.0485e-48
1.71275e-50
1.25625e-52
1.01012e-54
1.6767e-56
5.30273e-57
3.13064e-57
1.9476e-58
1.09209e-58
1.88282e-58
2.59564e-58
3.26315e-58
3.77943e-58
4.0145e-58
4.00715e-58
3.84028e-58
3.5692e-58
3.17268e-58
2.61732e-58
1.78503e-58
1.91246e-58
1.30668e-60
1.22306e-60
1.88341e-60
2.31367e-60
2.58673e-60
2.74231e-60
2.7841e-60
2.70066e-60
2.47318e-60
2.05142e-60
1.89424e-60
6.73108e-59
1.26764e-58
3.28348e-58
3.7093e-56
5.72283e-54
8.05323e-52
1.03338e-49
1.21189e-47
1.30084e-45
1.27857e-43
1.1799e-41
1.14041e-39
9.92296e-38
7.83884e-36
5.65311e-34
3.73841e-32
2.28358e-30
1.3322e-28
7.29711e-27
3.50055e-25
1.41633e-23
4.76696e-22
1.30777e-20
2.84411e-19
4.72169e-18
5.80437e-17
5.02417e-16
1.85425e-15
2.66714e-15
2.63174e-15
1.78237e-15
3.46394e-16
4.20153e-18
1.03674e-19
2.20708e-21
4.22204e-23
7.70658e-25
1.37442e-26
2.39914e-28
4.09214e-30
6.79551e-32
5.85678e-33
1.0935e-34
1.54007e-36
2.11991e-38
2.6666e-40
3.04758e-42
3.14437e-44
2.89967e-46
2.34624e-48
2.1152e-50
1.94845e-52
1.65044e-54
1.47092e-56
1.9476e-58
1.09209e-58
5.79742e-59
1.89031e-60
1.89577e-60
2.59114e-60
2.97124e-60
3.1188e-60
3.08739e-60
2.9323e-60
2.70722e-60
2.39308e-60
1.96586e-60
1.33712e-60
1.42641e-60
1.02964e-62
9.67364e-63
1.49501e-62
1.84605e-62
2.07756e-62
2.22184e-62
2.27475e-62
2.22713e-62
1.67272e-62
9.11864e-62
9.29228e-61
2.0103e-60
8.05453e-59
1.50783e-56
2.60866e-54
4.0802e-52
5.78705e-50
7.4608e-48
8.75846e-46
9.37382e-44
9.14735e-42
8.15016e-40
7.02817e-38
6.09907e-36
4.74046e-34
3.32633e-32
2.11768e-30
1.22807e-28
6.55739e-27
3.38725e-25
1.57378e-23
6.22658e-22
2.04305e-20
5.45621e-19
1.15253e-17
1.8526e-16
2.24173e-15
1.96961e-14
5.54398e-14
7.51054e-14
7.4279e-14
5.36339e-14
1.3857e-14
1.58924e-16
4.24076e-18
1.02266e-19
2.20708e-21
4.55807e-23
9.21578e-25
1.82215e-26
3.50799e-28
3.01663e-29
6.73562e-31
1.09344e-32
1.70192e-34
2.41111e-36
3.08226e-38
3.53407e-40
3.60013e-42
3.19636e-44
3.46356e-46
3.52371e-48
3.27745e-50
2.78859e-52
2.07246e-54
1.32508e-56
7.83985e-59
1.90024e-60
9.35267e-61
2.05636e-61
1.90748e-62
2.45386e-62
2.56206e-62
2.51207e-62
2.36221e-62
2.16389e-62
1.90084e-62
1.55401e-62
1.05373e-62
1.11886e-62
8.49583e-65
8.01481e-65
1.24349e-64
1.54436e-64
1.75082e-64
1.89033e-64
1.93865e-64
1.84468e-64
7.8306e-63
1.49815e-62
9.1011e-62
1.93386e-59
4.2442e-57
8.34415e-55
1.47385e-52
2.3477e-50
3.38184e-48
4.4142e-46
5.22762e-44
5.62106e-42
5.48923e-40
4.86233e-38
3.91711e-36
3.13175e-34
2.43244e-32
1.6813e-30
1.0416e-28
5.80953e-27
2.93032e-25
1.3622e-23
6.04533e-22
2.33442e-20
7.50135e-19
1.95532e-17
4.02331e-16
6.38554e-15
7.69384e-14
4.47783e-13
6.57213e-13
8.99928e-13
8.90026e-13
6.34395e-13
3.12804e-13
5.18737e-15
1.53697e-16
4.24076e-18
1.02266e-19
2.39544e-21
5.47559e-23
1.218e-24
5.5812e-26
2.82584e-27
5.90809e-29
1.01614e-30
1.62666e-32
2.33682e-34
2.98985e-36
3.37672e-38
3.42518e-40
4.16675e-42
4.67831e-44
4.78456e-46
4.30871e-48
3.29855e-50
2.28427e-52
1.43256e-54
8.11539e-57
4.1411e-59
2.05024e-61
1.76253e-62
9.71693e-63
3.56786e-64
1.89992e-64
2.1463e-64
1.99967e-64
1.81555e-64
1.58369e-64
1.28779e-64
8.70158e-65
9.19339e-65
7.31321e-67
6.92987e-67
1.0797e-66
1.34951e-66
1.54204e-66
1.62207e-66
3.08093e-66
7.97457e-65
1.90105e-64
1.06356e-62
3.01414e-60
7.71392e-58
1.75223e-55
3.55333e-53
6.46165e-51
1.05727e-48
1.56037e-46
2.08048e-44
2.50812e-42
2.7344e-40
2.69518e-38
2.40039e-36
1.92701e-34
1.39996e-32
1.02678e-30
7.11695e-29
4.35216e-27
2.36287e-25
1.14259e-23
4.96197e-22
2.00064e-20
7.40796e-19
2.33102e-17
5.96903e-16
1.2345e-14
1.88556e-13
1.27498e-12
3.52349e-12
1.32571e-11
1.81886e-11
1.80131e-11
1.18991e-11
2.31136e-12
1.4563e-13
4.92923e-15
1.53697e-16
4.24454e-18
1.13818e-19
2.95767e-21
7.40275e-23
8.96465e-24
2.44307e-25
4.57943e-27
8.34275e-29
1.35215e-30
1.93257e-32
2.41411e-34
2.81791e-36
3.82732e-38
4.75527e-40
5.30997e-42
4.88327e-44
4.04519e-46
3.03115e-48
2.05146e-50
1.25326e-52
6.90008e-55
3.41265e-57
1.50831e-59
5.9525e-62
3.73995e-64
1.0219e-64
3.2966e-65
1.63211e-66
1.76645e-66
1.593e-66
1.37864e-66
1.11442e-66
7.50086e-67
7.88299e-67
6.54374e-69
6.23027e-69
9.75105e-69
1.22658e-68
1.33944e-68
6.73116e-68
6.90837e-67
3.21861e-66
7.77494e-64
2.69965e-61
8.20298e-59
2.19278e-56
5.19561e-54
1.09728e-51
2.07437e-49
3.52136e-47
5.3791e-45
7.40281e-43
9.18159e-41
1.02595e-38
1.03198e-36
9.33406e-35
7.58211e-33
5.51113e-31
3.60343e-29
2.40276e-27
1.48153e-25
7.96823e-24
3.76087e-22
1.5608e-20
5.76587e-19
1.98263e-17
6.0542e-16
1.58393e-14
3.08997e-13
2.6934e-12
1.02519e-11
5.59183e-11
2.34165e-10
3.17767e-10
3.14708e-10
2.26325e-10
4.84222e-11
3.50309e-12
1.39039e-13
4.92923e-15
1.58164e-16
4.91847e-18
1.47325e-19
2.03082e-20
6.79517e-22
1.4747e-23
3.07748e-25
5.67014e-27
9.10456e-29
1.25744e-30
1.78935e-32
2.72255e-34
3.67312e-36
4.07173e-38
4.0435e-40
3.62133e-42
2.92153e-44
2.12279e-46
1.38919e-48
8.1863e-51
4.33855e-53
2.06176e-55
8.74252e-58
3.28593e-60
1.08617e-62
3.285e-65
1.35711e-66
6.83544e-67
1.55774e-68
1.44149e-68
1.24936e-68
1.00329e-68
6.72426e-69
7.02779e-69
6.06513e-71
5.8038e-71
9.12019e-71
1.12328e-70
8.19312e-70
5.91737e-69
6.76544e-68
2.92122e-65
1.25225e-62
4.6171e-60
1.48221e-57
4.18256e-55
1.04488e-52
2.32356e-50
4.6183e-48
8.22834e-46
1.3165e-43
1.89293e-41
2.44562e-39
2.83675e-37
2.95021e-35
2.74653e-33
2.28467e-31
1.69471e-29
1.11527e-27
6.55163e-26
3.93323e-24
2.15141e-22
1.0123e-20
4.11995e-19
1.45214e-17
4.50763e-16
1.33247e-14
3.19955e-13
3.67157e-12
2.03366e-11
1.5248e-10
9.78519e-10
4.006e-09
5.1635e-09
5.12407e-09
3.89464e-09
8.84126e-10
7.18548e-11
3.4199e-12
1.39039e-13
5.24647e-15
1.91129e-16
3.00864e-17
1.27609e-18
3.28044e-20
7.8732e-22
1.64762e-23
2.97163e-25
4.53859e-27
8.30159e-29
1.35738e-30
1.83037e-32
2.1941e-34
2.35575e-36
2.26735e-38
1.95827e-40
1.5183e-42
1.05705e-44
6.61146e-47
3.71578e-49
1.87481e-51
8.4689e-54
3.40888e-56
1.21483e-58
3.8029e-61
1.03555e-63
2.45144e-66
1.61021e-68
5.79231e-69
2.13054e-70
1.16051e-70
9.36196e-71
6.24648e-71
6.49101e-71
5.80318e-73
5.57912e-73
8.76282e-73
3.92349e-72
4.84331e-71
7.58598e-70
4.82717e-67
2.62872e-64
1.2076e-61
4.76557e-59
1.63623e-56
4.93382e-54
1.31587e-51
3.1208e-49
6.60791e-47
1.25247e-44
2.1282e-42
3.24295e-40
4.42881e-38
5.41351e-36
5.91204e-34
5.75634e-32
4.98503e-30
3.82928e-28
2.601e-26
1.55151e-24
8.18032e-23
4.37998e-21
2.12256e-19
8.69862e-18
3.03726e-16
9.32143e-15
2.0982e-13
2.49318e-12
2.76508e-11
2.83328e-10
2.27637e-09
1.44899e-08
5.65707e-08
6.88128e-08
6.84384e-08
5.53553e-08
1.33488e-08
1.2334e-09
7.19312e-11
3.41975e-12
1.5395e-13
2.78973e-14
1.5742e-15
4.92483e-17
1.36491e-18
3.26252e-20
6.57809e-22
1.25748e-23
2.54654e-25
4.26805e-27
6.25954e-29
8.13494e-31
9.3854e-33
9.64371e-35
8.84842e-37
7.26083e-39
5.33271e-41
3.50802e-43
2.06882e-45
1.09443e-47
5.19022e-50
2.20098e-52
8.308e-55
2.77396e-57
8.12974e-60
2.07195e-62
4.53711e-65
8.421e-68
2.19675e-70
4.71607e-71
1.81285e-72
8.97507e-73
5.99107e-73
6.18978e-73
5.71285e-75
5.47769e-75
8.25315e-75
3.60175e-73
3.71726e-72
2.69737e-69
2.08736e-66
1.24033e-63
6.19529e-61
2.6555e-58
9.89421e-56
3.23511e-53
9.3493e-51
2.401e-48
5.50067e-46
1.12702e-43
2.06746e-41
3.39553e-39
4.98759e-37
6.5408e-35
7.64134e-33
7.93221e-31
7.29492e-29
5.92315e-27
4.22916e-25
2.64347e-23
1.43395e-21
6.79082e-20
3.22097e-18
1.39173e-16
5.09001e-15
1.24778e-13
1.61121e-12
2.24921e-11
3.1628e-10
4.01385e-09
3.10762e-08
1.74439e-07
6.51186e-07
7.42975e-07
7.40627e-07
6.41599e-07
1.63895e-07
1.736e-08
1.24987e-09
7.31112e-11
4.13401e-12
5.53845e-13
4.39576e-14
1.56426e-15
4.1116e-17
9.25053e-19
2.1831e-20
4.6272e-22
8.4697e-24
1.35183e-25
1.89118e-27
2.32814e-29
2.53237e-31
2.44361e-33
2.09859e-35
1.60729e-37
1.09918e-39
6.71987e-42
3.67743e-44
1.8031e-46
7.91793e-49
3.1066e-51
1.08421e-53
3.34525e-56
9.05633e-59
2.13169e-61
4.31189e-64
7.37413e-67
1.04186e-69
1.8324e-72
3.62924e-73
8.41682e-75
5.87547e-75