/*--------------------------------*- C++ -*----------------------------------*\
| =========                 |                                                 |
| \\      /  F ield         | OpenFOAM: The Open Source CFD Toolbox           |
|  \\    /   O peration     | Version:  2412                                  |
|   \\  /    A nd           | Website:  www.openfoam.com                      |
|    \\/     M anipulation  |                                                 |
\*---------------------------------------------------------------------------*/
FoamFile
{
    version     2.0;
    format      ascii;
    arch        "LSB;label=32;scalar=64";
    class       volVectorField;
    location    "6.65";
    object      U;
}
// * * * * * * * * * * * * * * * * * * * * * * * * * * * * * * * * * * * * * //

dimensions      [0 1 -1 0 0 0 0];

internalField   nonuniform List<vector> 
6400
(
(0.000371865 -0.00038613 0)
(0.00201232 -0.000640405 0)
(0.00415722 -0.000729091 0)
(0.00655941 -0.000770499 0)
(0.00902865 -0.000766355 0)
(0.0113978 -0.000723632 0)
(0.0135463 -0.000660226 0)
(0.0154175 -0.000593861 0)
(0.017008 -0.000538616 0)
(0.0183511 -0.000498513 0)
(0.0194987 -0.000476329 0)
(0.0205027 -0.000471095 0)
(0.0214112 -0.000479595 0)
(0.0222702 -0.000501821 0)
(0.0231116 -0.000539515 0)
(0.0239661 -0.000582597 0)
(0.0248586 -0.000626232 0)
(0.0257955 -0.000669017 0)
(0.0267684 -0.000708969 0)
(0.0277645 -0.000731337 0)
(0.0287725 -0.000734784 0)
(0.0297566 -0.000721156 0)
(0.0306793 -0.000679845 0)
(0.0314977 -0.000614799 0)
(0.0321622 -0.000517057 0)
(0.0326226 -0.000390839 0)
(0.0328251 -0.000233056 0)
(0.0327288 -4.63799e-05 0)
(0.032289 0.000158535 0)
(0.031462 0.000380401 0)
(0.0302179 0.000613913 0)
(0.0285472 0.000856643 0)
(0.0264459 0.00109515 0)
(0.0239163 0.00132574 0)
(0.0209852 0.0015407 0)
(0.0176862 0.00173358 0)
(0.0140681 0.00189683 0)
(0.0101877 0.00202267 0)
(0.00611075 0.00211118 0)
(0.00191714 0.00216023 0)
(-0.00231324 0.0021619 0)
(-0.00650755 0.00211622 0)
(-0.0105901 0.00202995 0)
(-0.0144776 0.00190512 0)
(-0.0181036 0.00174064 0)
(-0.0214104 0.001548 0)
(-0.0243467 0.00133415 0)
(-0.0268704 0.00110493 0)
(-0.0289707 0.000861327 0)
(-0.0306391 0.000620477 0)
(-0.0318666 0.00038499 0)
(-0.0326738 0.000159924 0)
(-0.0330942 -5.25171e-05 0)
(-0.0331671 -0.000242431 0)
(-0.0329272 -0.000400182 0)
(-0.0324206 -0.000529656 0)
(-0.0317051 -0.000628279 0)
(-0.0308365 -0.000700044 0)
(-0.0298634 -0.000740519 0)
(-0.0288257 -0.000756343 0)
(-0.0277626 -0.000753447 0)
(-0.0267079 -0.000730546 0)
(-0.0256841 -0.000693171 0)
(-0.0247054 -0.000648222 0)
(-0.0237815 -0.000599035 0)
(-0.0228971 -0.00054974 0)
(-0.0220307 -0.000512021 0)
(-0.0211569 -0.000485673 0)
(-0.0202348 -0.000471239 0)
(-0.0192246 -0.000471944 0)
(-0.0180775 -0.000489274 0)
(-0.016736 -0.000524597 0)
(-0.0151492 -0.00057778 0)
(-0.0132862 -0.000640329 0)
(-0.0111495 -0.000699597 0)
(-0.00879673 -0.000738962 0)
(-0.00634905 -0.000739441 0)
(-0.00397689 -0.00069221 0)
(-0.00187522 -0.000599394 0)
(-0.000313147 -0.00032952 0)
(0.000542141 -0.00193996 0)
(0.00327521 -0.00349152 0)
(0.00674043 -0.0040452 0)
(0.0106726 -0.00430866 0)
(0.0147186 -0.00426637 0)
(0.0185685 -0.00395734 0)
(0.0219983 -0.00348686 0)
(0.0248961 -0.00296299 0)
(0.027246 -0.0024677 0)
(0.0290934 -0.00204264 0)
(0.0305157 -0.00170607 0)
(0.0316001 -0.00145831 0)
(0.0324301 -0.00129236 0)
(0.0330821 -0.00119786 0)
(0.0336134 -0.00116533 0)
(0.0340721 -0.00117198 0)
(0.0344891 -0.00120308 0)
(0.0348794 -0.00123984 0)
(0.0352574 -0.00127738 0)
(0.035623 -0.00128958 0)
(0.0359644 -0.00126618 0)
(0.0362667 -0.00119811 0)
(0.0365033 -0.00107151 0)
(0.0366428 -0.000880796 0)
(0.0366481 -0.00061602 0)
(0.0364749 -0.000277501 0)
(0.0360843 0.000135347 0)
(0.0354328 0.000618516 0)
(0.0344816 0.00115844 0)
(0.0331984 0.00174592 0)
(0.0315548 0.00236673 0)
(0.0295358 0.00300882 0)
(0.027131 0.00364556 0)
(0.024344 0.00426095 0)
(0.0211964 0.00483433 0)
(0.0177134 0.00534597 0)
(0.0139381 0.00577908 0)
(0.00992995 0.00611561 0)
(0.0057495 0.00634798 0)
(0.00146073 0.00647029 0)
(-0.00286386 0.00647158 0)
(-0.00715194 0.00635271 0)
(-0.0113331 0.00612152 0)
(-0.0153395 0.00578376 0)
(-0.019108 0.00534571 0)
(-0.0225807 0.00482825 0)
(-0.0257169 0.00425039 0)
(-0.0284796 0.00363213 0)
(-0.0308553 0.00298502 0)
(-0.0328437 0.00234103 0)
(-0.0344441 0.00171253 0)
(-0.0356802 0.00111476 0)
(-0.0365813 0.000559817 0)
(-0.0371731 6.95164e-05 0)
(-0.0374979 -0.000350374 0)
(-0.0376005 -0.000697665 0)
(-0.0375235 -0.000963428 0)
(-0.037308 -0.00115794 0)
(-0.0369949 -0.00128637 0)
(-0.0366213 -0.00135584 0)
(-0.0362051 -0.00137852 0)
(-0.0357694 -0.00136055 0)
(-0.0353316 -0.00131774 0)
(-0.0348861 -0.00126621 0)
(-0.0344239 -0.00122303 0)
(-0.0339228 -0.00120432 0)
(-0.0333516 -0.00123354 0)
(-0.0326691 -0.00132029 0)
(-0.0318104 -0.00147681 0)
(-0.0306985 -0.00171687 0)
(-0.0292482 -0.00204857 0)
(-0.0273689 -0.0024725 0)
(-0.0249811 -0.00296933 0)
(-0.0220421 -0.00348911 0)
(-0.018572 -0.0039535 0)
(-0.0146841 -0.00425651 0)
(-0.010604 -0.00428975 0)
(-0.00664908 -0.00400706 0)
(-0.00318283 -0.00341866 0)
(-0.000490882 -0.00179638 0)
(0.000581857 -0.00381213 0)
(0.00369556 -0.00687041 0)
(0.00776617 -0.00806287 0)
(0.0124445 -0.00864086 0)
(0.0172605 -0.00855394 0)
(0.0218166 -0.00789031 0)
(0.0258331 -0.00687325 0)
(0.0291735 -0.00573268 0)
(0.0318223 -0.00463883 0)
(0.0338406 -0.00368684 0)
(0.0353277 -0.00291633 0)
(0.0363908 -0.00233173 0)
(0.0371342 -0.00192069 0)
(0.0376509 -0.00165726 0)
(0.0380098 -0.00151219 0)
(0.0382672 -0.00145033 0)
(0.0384698 -0.00144329 0)
(0.0386385 -0.00146068 0)
(0.0387918 -0.00148169 0)
(0.0389404 -0.00148429 0)
(0.039074 -0.00144258 0)
(0.0391779 -0.00133001 0)
(0.0392292 -0.00113699 0)
(0.0391977 -0.000845385 0)
(0.0390431 -0.000441157 0)
(0.0387199 7.91561e-05 0)
(0.0381841 0.00071429 0)
(0.0373922 0.00145742 0)
(0.0363012 0.0023025 0)
(0.0348751 0.00322914 0)
(0.0330858 0.00421631 0)
(0.0309154 0.00523672 0)
(0.0283511 0.00625708 0)
(0.0253953 0.00724625 0)
(0.0220695 0.00816881 0)
(0.0184027 0.00899059 0)
(0.0144395 0.00968512 0)
(0.0102376 0.0102281 0)
(0.00586109 0.0106013 0)
(0.00137444 0.0107925 0)
(-0.00314953 0.0107944 0)
(-0.00763673 0.0106074 0)
(-0.0120169 0.0102354 0)
(-0.0162205 0.00968911 0)
(-0.020182 0.00898681 0)
(-0.0238417 0.00815403 0)
(-0.0271573 0.00722086 0)
(-0.0300941 0.00622251 0)
(-0.0326344 0.00518898 0)
(-0.0347761 0.00415708 0)
(-0.0365247 0.00315653 0)
(-0.0379021 0.00221104 0)
(-0.0389334 0.00134595 0)
(-0.0396583 0.000584986 0)
(-0.0401249 -6.57285e-05 0)
(-0.0403663 -0.000594532 0)
(-0.0404344 -0.00100749 0)
(-0.0403821 -0.00130274 0)
(-0.0402427 -0.0015013 0)
(-0.0400514 -0.00161121 0)
(-0.0398314 -0.00164941 0)
(-0.0396016 -0.00164094 0)
(-0.0393711 -0.00160424 0)
(-0.03913 -0.0015656 0)
(-0.0388634 -0.00155478 0)
(-0.0385457 -0.00160258 0)
(-0.0381376 -0.00173884 0)
(-0.0375797 -0.00199069 0)
(-0.0367939 -0.00239049 0)
(-0.035688 -0.00296664 0)
(-0.0341582 -0.00373569 0)
(-0.0320924 -0.0046934 0)
(-0.0293885 -0.00579341 0)
(-0.0259862 -0.00693157 0)
(-0.0219047 -0.00794203 0)
(-0.0172858 -0.00859525 0)
(-0.012415 -0.00866328 0)
(-0.00769758 -0.00804961 0)
(-0.00361514 -0.00678441 0)
(-0.000531901 -0.0035996 0)
(0.000587131 -0.00589674 0)
(0.00400012 -0.0107726 0)
(0.00861174 -0.0127901 0)
(0.013957 -0.0137482 0)
(0.0194468 -0.013584 0)
(0.024586 -0.0124642 0)
(0.0290383 -0.0107656 0)
(0.0326573 -0.00887015 0)
(0.0354509 -0.00705643 0)
(0.0375184 -0.00547922 0)
(0.0389966 -0.00420079 0)
(0.0400192 -0.00322359 0)
(0.0407084 -0.00252139 0)
(0.0411642 -0.0020542 0)
(0.0414619 -0.0017766 0)
(0.0416646 -0.00163664 0)
(0.0418193 -0.00158886 0)
(0.0419517 -0.00159251 0)
(0.0420785 -0.00160947 0)
(0.0422107 -0.00160521 0)
(0.0423456 -0.00154268 0)
(0.0424571 -0.00140015 0)
(0.0425147 -0.00114397 0)
(0.0424963 -0.000750071 0)
(0.0423541 -0.000203256 0)
(0.042033 0.000508507 0)
(0.0414856 0.00138488 0)
(0.0406639 0.00241955 0)
(0.0395191 0.00359881 0)
(0.0380063 0.00489324 0)
(0.0360918 0.00627512 0)
(0.0337528 0.00770706 0)
(0.0309771 0.00914313 0)
(0.0277675 0.0105374 0)
(0.0241455 0.0118383 0)
(0.0201444 0.0129985 0)
(0.0158141 0.0139778 0)
(0.0112181 0.0147429 0)
(0.00642649 0.0152693 0)
(0.00151127 0.0155385 0)
(-0.00344616 0.0155419 0)
(-0.00836363 0.0152793 0)
(-0.0131629 0.0147551 0)
(-0.0177661 0.0139844 0)
(-0.0220999 0.0129929 0)
(-0.0260995 0.0118183 0)
(-0.0297162 0.0105004 0)
(-0.032912 0.00908975 0)
(-0.0356678 0.00763402 0)
(-0.0379786 0.00618244 0)
(-0.039854 0.00477763 0)
(-0.0413194 0.00345459 0)
(-0.0424027 0.00224752 0)
(-0.0431488 0.00118235 0)
(-0.0436125 0.000282472 0)
(-0.0438478 -0.00044351 0)
(-0.0438999 -0.00100563 0)
(-0.0438198 -0.00140441 0)
(-0.0436566 -0.00166521 0)
(-0.0434465 -0.00181147 0)
(-0.0432219 -0.00186191 0)
(-0.0429951 -0.00185391 0)
(-0.0427728 -0.00181782 0)
(-0.0425543 -0.00179149 0)
(-0.042325 -0.00181278 0)
(-0.0420563 -0.00192938 0)
(-0.0417033 -0.00218994 0)
(-0.0412019 -0.00263908 0)
(-0.0404685 -0.00332735 0)
(-0.0394003 -0.00429753 0)
(-0.037877 -0.00557794 0)
(-0.0357601 -0.00716623 0)
(-0.0329091 -0.00899351 0)
(-0.0292216 -0.0108932 0)
(-0.0246909 -0.0125878 0)
(-0.0194732 -0.0136914 0)
(-0.0139172 -0.0138209 0)
(-0.00852951 -0.0128032 0)
(-0.00390613 -0.0106769 0)
(-0.000529211 -0.00561256 0)
(0.000568798 -0.00809794 0)
(0.00424223 -0.0150768 0)
(0.00942917 -0.0181134 0)
(0.0155154 -0.0195196 0)
(0.0217405 -0.0192182 0)
(0.0274519 -0.0174898 0)
(0.0322321 -0.014926 0)
(0.0359431 -0.0121121 0)
(0.0386576 -0.0094629 0)
(0.040552 -0.00719565 0)
(0.041826 -0.00538572 0)
(0.0426556 -0.00401884 0)
(0.0431819 -0.00304202 0)
(0.0435092 -0.00239118 0)
(0.0437148 -0.00200065 0)
(0.0438618 -0.00180185 0)
(0.0439956 -0.00173388 0)
(0.0441376 -0.00174234 0)
(0.0443038 -0.00177415 0)
(0.0445048 -0.00177785 0)
(0.0447191 -0.00171524 0)
(0.0449274 -0.00154894 0)
(0.045108 -0.00123302 0)
(0.0452127 -0.000738501 0)
(0.0451926 -4.03058e-05 0)
(0.0449911 0.000877823 0)
(0.0445493 0.00201678 0)
(0.0438104 0.00337192 0)
(0.0427106 0.00492096 0)
(0.0411989 0.00662476 0)
(0.0392374 0.00845004 0)
(0.036792 0.0103478 0)
(0.0338466 0.0122564 0)
(0.0304071 0.0141109 0)
(0.0264948 0.0158435 0)
(0.0221464 0.0173883 0)
(0.0174189 0.0186934 0)
(0.0123846 0.0197139 0)
(0.00712363 0.0204145 0)
(0.00172102 0.0207738 0)
(-0.00372984 0.0207794 0)
(-0.00913538 0.0204309 0)
(-0.0144067 0.0197339 0)
(-0.0194532 0.0187081 0)
(-0.024189 0.0173881 0)
(-0.0285423 0.0158223 0)
(-0.0324561 0.0140667 0)
(-0.0358879 0.0121889 0)
(-0.0388158 0.0102538 0)
(-0.0412342 0.00832856 0)
(-0.0431595 0.006466 0)
(-0.0446219 0.0047176 0)
(-0.0456573 0.0031286 0)
(-0.0463185 0.00173414 0)
(-0.0466719 0.000561358 0)
(-0.0467789 -0.000381985 0)
(-0.046692 -0.00109309 0)
(-0.0464766 -0.00159707 0)
(-0.0461891 -0.0019165 0)
(-0.0458632 -0.00208827 0)
(-0.0455378 -0.00213988 0)
(-0.0452377 -0.00211543 0)
(-0.0449702 -0.00206082 0)
(-0.0447361 -0.00202439 0)
(-0.0445234 -0.00205529 0)
(-0.0443059 -0.00221715 0)
(-0.0440405 -0.0025788 0)
(-0.0436668 -0.00320408 0)
(-0.0431028 -0.00416609 0)
(-0.0422355 -0.00552835 0)
(-0.0409215 -0.00734219 0)
(-0.0389828 -0.00962543 0)
(-0.0362129 -0.0122991 0)
(-0.0324291 -0.0151307 0)
(-0.0275606 -0.0176971 0)
(-0.0217573 -0.0194026 0)
(-0.0154538 -0.0196488 0)
(-0.00932135 -0.0181505 0)
(-0.00412614 -0.0149662 0)
(-0.000501107 -0.00772695 0)
(0.00052385 -0.0103766 0)
(0.00448188 -0.0198213 0)
(0.0104407 -0.0241578 0)
(0.0175497 -0.0261073 0)
(0.0247399 -0.0255494 0)
(0.0310956 -0.0229451 0)
(0.0361015 -0.0192161 0)
(0.0396798 -0.0152419 0)
(0.0420375 -0.0116112 0)
(0.0434819 -0.00859817 0)
(0.0443063 -0.00626107 0)
(0.0447399 -0.00454389 0)
(0.0449424 -0.00334837 0)
(0.0450187 -0.0025712 0)
(0.0450418 -0.00211899 0)
(0.0450708 -0.00190888 0)
(0.0451428 -0.00186314 0)
(0.0452768 -0.00191553 0)
(0.0454857 -0.00200026 0)
(0.045766 -0.00205114 0)
(0.0461015 -0.00202245 0)
(0.0464726 -0.0018511 0)
(0.0468377 -0.00148827 0)
(0.0471511 -0.000909275 0)
(0.0473546 -5.74458e-05 0)
(0.0473726 0.00107508 0)
(0.0471412 0.00249528 0)
(0.0465911 0.00419709 0)
(0.0456393 0.00615356 0)
(0.044226 0.00832505 0)
(0.0423068 0.0106599 0)
(0.0398322 0.0130906 0)
(0.0367799 0.0155407 0)
(0.033154 0.0179243 0)
(0.0289751 0.0201559 0)
(0.0242854 0.0221499 0)
(0.0191531 0.0238348 0)
(0.013659 0.0251516 0)
(0.00789774 0.0260551 0)
(0.00197266 0.0265186 0)
(-0.00400768 0.0265268 0)
(-0.00993574 0.0260788 0)
(-0.0157083 0.0251823 0)
(-0.0212185 0.0238612 0)
(-0.0263677 0.0221615 0)
(-0.0310709 0.0201421 0)
(-0.0352584 0.0178812 0)
(-0.0388844 0.0154636 0)
(-0.0419247 0.0129768 0)
(-0.0443782 0.010503 0)
(-0.046267 0.00812081 0)
(-0.0476277 0.00589401 0)
(-0.04851 0.00388032 0)
(-0.0489781 0.00212513 0)
(-0.0491125 0.000660824 0)
(-0.048986 -0.000504571 0)
(-0.0486709 -0.00137053 0)
(-0.0482393 -0.00197172 0)
(-0.0477514 -0.00233224 0)
(-0.0472545 -0.00249402 0)
(-0.046795 -0.00251926 0)
(-0.0464036 -0.00244836 0)
(-0.0460903 -0.00233606 0)
(-0.0458597 -0.00224564 0)
(-0.0457052 -0.00224252 0)
(-0.045605 -0.00240167 0)
(-0.0455206 -0.00280767 0)
(-0.0454011 -0.00354963 0)
(-0.0451709 -0.00472731 0)
(-0.0447132 -0.00643937 0)
(-0.0438634 -0.00878215 0)
(-0.0423883 -0.0118192 0)
(-0.0399827 -0.01549 0)
(-0.0363304 -0.0195031 0)
(-0.0312262 -0.0232491 0)
(-0.0247602 -0.025826 0)
(-0.0174704 -0.0263035 0)
(-0.0102997 -0.0242195 0)
(-0.00433472 -0.0196852 0)
(-0.000444285 -0.00989799 0)
(0.000442573 -0.0127235 0)
(0.00484517 -0.025196 0)
(0.0121134 -0.031277 0)
(0.0208889 -0.0338757 0)
(0.0294564 -0.0327858 0)
(0.0364916 -0.0288151 0)
(0.0414584 -0.0234397 0)
(0.0445009 -0.0179714 0)
(0.0460899 -0.013197 0)
(0.0467314 -0.0094088 0)
(0.0468287 -0.00659628 0)
(0.0466529 -0.00461366 0)
(0.0463697 -0.00329027 0)
(0.0460772 -0.00247212 0)
(0.0458314 -0.00203884 0)
(0.0456768 -0.00189147 0)
(0.0456413 -0.00193635 0)
(0.0457337 -0.00209373 0)
(0.0459686 -0.00228749 0)
(0.0463365 -0.00243756 0)
(0.0468141 -0.00248155 0)
(0.0473865 -0.00235044 0)
(0.0479912 -0.00197515 0)
(0.0485836 -0.00131161 0)
(0.0490977 -0.000340454 0)
(0.0494283 0.000999692 0)
(0.0495062 0.00271473 0)
(0.0492442 0.00479372 0)
(0.048544 0.00720407 0)
(0.0473265 0.0099041 0)
(0.0455264 0.0128205 0)
(0.0430868 0.0158661 0)
(0.0399746 0.0189478 0)
(0.0361868 0.0219525 0)
(0.0317452 0.024771 0)
(0.026698 0.0272976 0)
(0.0211234 0.0294323 0)
(0.0151181 0.0310975 0)
(0.00879538 0.0322423 0)
(0.00227793 0.0328284 0)
(-0.00430553 0.0328394 0)
(-0.0108278 0.0322747 0)
(-0.0171672 0.0311439 0)
(-0.023196 0.0294759 0)
(-0.0287986 0.027328 0)
(-0.0338713 0.0247755 0)
(-0.0383316 0.02192 0)
(-0.0421295 0.0188684 0)
(-0.0452415 0.015737 0)
(-0.0476651 0.0126327 0)
(-0.0494315 0.00965599 0)
(-0.0505975 0.00688781 0)
(-0.0512277 0.00440019 0)
(-0.0514007 0.00225159 0)
(-0.0512159 0.00048136 0)
(-0.0507614 -0.000904175 0)
(-0.0501309 -0.00191966 0)
(-0.0494108 -0.00258927 0)
(-0.0486603 -0.00294449 0)
(-0.0479582 -0.00307082 0)
(-0.0473514 -0.00302087 0)
(-0.0468591 -0.00284841 0)
(-0.0465107 -0.00261914 0)
(-0.0463156 -0.00241183 0)
(-0.0462667 -0.00230566 0)
(-0.0463492 -0.0023893 0)
(-0.0465397 -0.00275976 0)
(-0.0467992 -0.003525 0)
(-0.0470649 -0.00481735 0)
(-0.0472345 -0.0067879 0)
(-0.0471374 -0.00961056 0)
(-0.0464909 -0.0134354 0)
(-0.0448757 -0.0182734 0)
(-0.0417758 -0.0238124 0)
(-0.0367132 -0.0292309 0)
(-0.0295474 -0.0331799 0)
(-0.0208401 -0.0341651 0)
(-0.0119593 -0.0313781 0)
(-0.00466332 -0.0250232 0)
(-0.000344629 -0.0121119 0)
(0.000322817 -0.0152242 0)
(0.00573613 -0.0317525 0)
(0.0156103 -0.0403028 0)
(0.0272888 -0.0434945 0)
(0.0377828 -0.0411239 0)
(0.0452426 -0.0348362 0)
(0.0494097 -0.0270868 0)
(0.051052 -0.0197567 0)
(0.0511567 -0.0137567 0)
(0.0504896 -0.00927284 0)
(0.0495304 -0.00613255 0)
(0.0485385 -0.00404609 0)
(0.0476377 -0.00273929 0)
(0.0468836 -0.00200467 0)
(0.0462986 -0.00170097 0)
(0.045911 -0.00170039 0)
(0.045733 -0.00191643 0)
(0.0457643 -0.0022552 0)
(0.0460198 -0.00262675 0)
(0.0464832 -0.00294449 0)
(0.0471287 -0.00312953 0)
(0.0479458 -0.00309871 0)
(0.0488665 -0.00276656 0)
(0.0497914 -0.00207134 0)
(0.0506794 -0.000984182 0)
(0.05144 0.000553023 0)
(0.0519389 0.00257375 0)
(0.0520722 0.00506008 0)
(0.0517252 0.007977 0)
(0.0507956 0.011271 0)
(0.0491939 0.0148581 0)
(0.04685 0.0186246 0)
(0.0437123 0.022451 0)
(0.0397669 0.0261953 0)
(0.03504 0.0297165 0)
(0.0295841 0.0328767 0)
(0.0234891 0.035547 0)
(0.0168791 0.0376311 0)
(0.00988733 0.0390667 0)
(0.00265809 0.0397998 0)
(-0.00465071 0.0398162 0)
(-0.0118885 0.0391136 0)
(-0.0189088 0.0377053 0)
(-0.0255568 0.0356244 0)
(-0.0316936 0.0329421 0)
(-0.037191 0.0297492 0)
(-0.0419511 0.0261843 0)
(-0.0459187 0.0223816 0)
(-0.0490668 0.018492 0)
(-0.0514031 0.0146546 0)
(-0.0529733 0.010989 0)
(-0.0538512 0.0076036 0)
(-0.0541232 0.00458842 0)
(-0.05389 0.0020133 0)
(-0.0532763 -8.12804e-05 0)
(-0.0524006 -0.00167047 0)
(-0.0513683 -0.00281091 0)
(-0.0502661 -0.00349257 0)
(-0.0492081 -0.00382254 0)
(-0.0482695 -0.00385928 0)
(-0.047475 -0.00366184 0)
(-0.046871 -0.00331345 0)
(-0.0464912 -0.00288972 0)
(-0.0463487 -0.0024857 0)
(-0.0464404 -0.00219103 0)
(-0.046758 -0.00210665 0)
(-0.0472866 -0.00233644 0)
(-0.0480159 -0.0029982 0)
(-0.0489181 -0.00425342 0)
(-0.0499333 -0.00631438 0)
(-0.0509325 -0.0094628 0)
(-0.0516433 -0.0139931 0)
(-0.051574 -0.0200807 0)
(-0.0499391 -0.0275182 0)
(-0.0457197 -0.035356 0)
(-0.038122 -0.0416628 0)
(-0.0274196 -0.0439304 0)
(-0.0155317 -0.0404942 0)
(-0.005542 -0.031556 0)
(-0.000200528 -0.0144531 0)
(0.000209045 -0.0182595 0)
(0.0080793 -0.0408187 0)
(0.0228136 -0.0528459 0)
(0.0389624 -0.0559439 0)
(0.0517684 -0.0505186 0)
(0.0589667 -0.0401429 0)
(0.0609955 -0.0289845 0)
(0.0598168 -0.0195463 0)
(0.0573446 -0.0125362 0)
(0.0546942 -0.00771808 0)
(0.0523138 -0.00459119 0)
(0.0503232 -0.00267843 0)
(0.0487147 -0.00160954 0)
(0.0474443 -0.00112083 0)
(0.0464945 -0.00105296 0)
(0.0458536 -0.00130295 0)
(0.0455085 -0.00178021 0)
(0.0454696 -0.00238614 0)
(0.0457468 -0.00302322 0)
(0.0463233 -0.00359187 0)
(0.0471716 -0.00398951 0)
(0.048283 -0.00412351 0)
(0.0495738 -0.00391525 0)
(0.0509415 -0.00327332 0)
(0.0523183 -0.00208809 0)
(0.0536013 -0.000372733 0)
(0.0546443 0.00195852 0)
(0.0552955 0.00488612 0)
(0.0554201 0.00836827 0)
(0.0548876 0.0123428 0)
(0.0535739 0.0167082 0)
(0.0513846 0.021323 0)
(0.0482513 0.0260333 0)
(0.0441455 0.0306673 0)
(0.0390902 0.0350428 0)
(0.033143 0.0389659 0)
(0.0264167 0.0422871 0)
(0.0190675 0.0448867 0)
(0.0112498 0.0466652 0)
(0.0031408 0.0475686 0)
(-0.00506525 0.0475896 0)
(-0.0131883 0.0467333 0)
(-0.0210502 0.0449968 0)
(-0.0284622 0.0424185 0)
(-0.0352564 0.0390879 0)
(-0.0412647 0.0351265 0)
(-0.0463688 0.0306995 0)
(-0.0505142 0.0259918 0)
(-0.0536716 0.0211966 0)
(-0.055863 0.0164874 0)
(-0.0571503 0.012023 0)
(-0.0576321 0.00793342 0)
(-0.0574268 0.00433173 0)
(-0.0566711 0.00129991 0)
(-0.0554966 -0.00110483 0)
(-0.0540769 -0.00291011 0)
(-0.0525273 -0.00411223 0)
(-0.050982 -0.00479981 0)
(-0.04956 -0.00504075 0)
(-0.0482985 -0.00489408 0)
(-0.0472804 -0.00446526 0)
(-0.0465448 -0.00384851 0)
(-0.0461279 -0.00314372 0)
(-0.0460451 -0.00245082 0)
(-0.0462905 -0.00187465 0)
(-0.0468626 -0.00151577 0)
(-0.0477611 -0.0014749 0)
(-0.0490112 -0.00187372 0)
(-0.0506433 -0.00286919 0)
(-0.0526945 -0.00472612 0)
(-0.0551728 -0.00783907 0)
(-0.0579542 -0.0126919 0)
(-0.0605767 -0.0197941 0)
(-0.0618792 -0.0293808 0)
(-0.0598696 -0.040724 0)
(-0.0525223 -0.0512379 0)
(-0.0394198 -0.0566304 0)
(-0.0229256 -0.0532527 0)
(-0.00792596 -0.0406766 0)
(-5.84953e-05 -0.017315 0)
(0.00028547 -0.0228112 0)
(0.0130782 -0.0547673 0)
(0.0345882 -0.0710226 0)
(0.0555472 -0.0721953 0)
(0.0701358 -0.0607913 0)
(0.0762702 -0.0436688 0)
(0.0751426 -0.0276464 0)
(0.0700183 -0.0159687 0)
(0.0640455 -0.00857841 0)
(0.0588635 -0.00421028 0)
(0.0548233 -0.00173323 0)
(0.051757 -0.000423657 0)
(0.0494427 0.000160568 0)
(0.0476981 0.00023912 0)
(0.0463869 -6.02653e-05 0)
(0.0454712 -0.000674289 0)
(0.0449558 -0.00151582 0)
(0.0448446 -0.00249006 0)
(0.0451546 -0.00349613 0)
(0.0458798 -0.00441686 0)
(0.0469843 -0.00512879 0)
(0.0484298 -0.00552968 0)
(0.0501489 -0.00550708 0)
(0.0520753 -0.00493617 0)
(0.0540674 -0.00375515 0)
(0.056007 -0.00186673 0)
(0.05775 0.000737802 0)
(0.0590697 0.00414158 0)
(0.0598086 0.00825695 0)
(0.0598025 0.013013 0)
(0.0588854 0.0182856 0)
(0.0569316 0.0239084 0)
(0.0538498 0.029686 0)
(0.0495887 0.0354101 0)
(0.0441453 0.0408158 0)
(0.0375994 0.0456814 0)
(0.0301058 0.0498022 0)
(0.021828 0.0530375 0)
(0.0129617 0.0552098 0)
(0.00375102 0.0563492 0)
(-0.00556728 0.0563863 0)
(-0.0147973 0.055338 0)
(-0.0237247 0.0532052 0)
(-0.0320966 0.0500182 0)
(-0.0396967 0.0458896 0)
(-0.0463294 0.040982 0)
(-0.051848 0.0354989 0)
(-0.0561789 0.0296933 0)
(-0.0593077 0.0238067 0)
(-0.0612745 0.0180605 0)
(-0.0621708 0.0126563 0)
(-0.0621279 0.00775339 0)
(-0.0612963 0.00348548 0)
(-0.0598416 -3.90924e-05 0)
(-0.0579819 -0.00277047 0)
(-0.0558785 -0.00474464 0)
(-0.053707 -0.00599501 0)
(-0.0516226 -0.0066123 0)
(-0.0497012 -0.00664723 0)
(-0.0480606 -0.00622391 0)
(-0.0467711 -0.00546481 0)
(-0.0458764 -0.0044776 0)
(-0.0454089 -0.00338981 0)
(-0.045378 -0.00230681 0)
(-0.0457808 -0.00134327 0)
(-0.0466093 -0.000593274 0)
(-0.0478744 -0.000144053 0)
(-0.0496237 -8.89588e-05 0)
(-0.0519728 -0.000551129 0)
(-0.055133 -0.00177124 0)
(-0.0593416 -0.00417755 0)
(-0.0647537 -0.00853543 0)
(-0.0709874 -0.0160122 0)
(-0.0763034 -0.0279281 0)
(-0.07743 -0.0443245 0)
(-0.0710752 -0.0617851 0)
(-0.0561393 -0.0732738 0)
(-0.0348104 -0.0718093 0)
(-0.0129797 -0.0548187 0)
(-0.000106667 -0.0217084 0)
(0.00103408 -0.0305685 0)
(0.0207844 -0.0760231 0)
(0.0478219 -0.0955294 0)
(0.0709087 -0.0917801 0)
(0.0852256 -0.0715203 0)
(0.0898426 -0.0453079 0)
(0.0862381 -0.0229036 0)
(0.0780215 -0.00865297 0)
(0.0691379 -0.00149834 0)
(0.0618009 0.00146507 0)
(0.0563885 0.00249634 0)
(0.0525093 0.00271224 0)
(0.0496744 0.00252937 0)
(0.0475253 0.00203779 0)
(0.0458915 0.00125142 0)
(0.0447207 0.000185347 0)
(0.0440304 -0.0011186 0)
(0.0438443 -0.00256994 0)
(0.0441947 -0.00406087 0)
(0.0450923 -0.00544749 0)
(0.0464908 -0.00662059 0)
(0.0483643 -0.00741829 0)
(0.0506543 -0.00768982 0)
(0.0532116 -0.00730151 0)
(0.0559457 -0.00615901 0)
(0.0586979 -0.00414042 0)
(0.061303 -0.00120713 0)
(0.0635184 0.00266048 0)
(0.065056 0.00747655 0)
(0.0657471 0.0131304 0)
(0.0653747 0.0194718 0)
(0.0637698 0.0263073 0)
(0.0608135 0.0333974 0)
(0.0563921 0.0404355 0)
(0.0505016 0.0471209 0)
(0.0432495 0.0531675 0)
(0.0348101 0.0582911 0)
(0.0253464 0.0622875 0)
(0.0151696 0.0649924 0)
(0.00458076 0.0664125 0)
(-0.00620246 0.0664769 0)
(-0.0168528 0.0651907 0)
(-0.0271242 0.0625474 0)
(-0.0367051 0.0586167 0)
(-0.0453078 0.0534942 0)
(-0.052696 0.0474003 0)
(-0.0586875 0.0406155 0)
(-0.0632035 0.0334618 0)
(-0.066248 0.0262547 0)
(-0.0678873 0.019271 0)
(-0.0682544 0.0127556 0)
(-0.0675231 0.00690804 0)
(-0.0658756 0.00187785 0)
(-0.0635401 -0.00216778 0)
(-0.0607779 -0.0052443 0)
(-0.0578359 -0.00734725 0)
(-0.0548947 -0.00856785 0)
(-0.0521032 -0.00897671 0)
(-0.049606 -0.0087203 0)
(-0.0475158 -0.00790781 0)
(-0.0459042 -0.00670095 0)
(-0.0448165 -0.00523256 0)
(-0.0442821 -0.00363988 0)
(-0.0442998 -0.00205693 0)
(-0.0448549 -0.000600176 0)
(-0.0459233 0.000642935 0)
(-0.0475039 0.00161312 0)
(-0.049655 0.00229418 0)
(-0.0525558 0.00266419 0)
(-0.0565539 0.00261278 0)
(-0.062158 0.00172343 0)
(-0.0697615 -0.00118655 0)
(-0.078881 -0.008482 0)
(-0.08716 -0.0231614 0)
(-0.0905695 -0.0461799 0)
(-0.0856105 -0.0728817 0)
(-0.0709879 -0.0932551 0)
(-0.047713 -0.0966735 0)
(-0.0205806 -0.076292 0)
(-0.000840233 -0.029305 0)
(0.00304015 -0.0430743 0)
(0.0282467 -0.103736 0)
(0.0551754 -0.122637 0)
(0.0752467 -0.110819 0)
(0.0865295 -0.0807543 0)
(0.0897195 -0.0455422 0)
(0.0860149 -0.016666 0)
(0.0780215 0.000472854 0)
(0.069151 0.00733631 0)
(0.0616824 0.00848208 0)
(0.0561582 0.0076025 0)
(0.0521702 0.00639798 0)
(0.0491884 0.00527009 0)
(0.0468474 0.00414237 0)
(0.0449805 0.00284058 0)
(0.043572 0.00126613 0)
(0.0426951 -0.000583114 0)
(0.0424214 -0.00262606 0)
(0.0428219 -0.00473411 0)
(0.0438969 -0.00674408 0)
(0.0456252 -0.00850759 0)
(0.048004 -0.00983127 0)
(0.0509409 -0.0105429 0)
(0.054318 -0.0104881 0)
(0.0579894 -0.00948094 0)
(0.0617813 -0.00744193 0)
(0.0654413 -0.00418241 0)
(0.0687229 0.000217024 0)
(0.0713371 0.00581586 0)
(0.072955 0.0125151 0)
(0.0733314 0.0201244 0)
(0.0722501 0.0284162 0)
(0.0695004 0.0370824 0)
(0.0649513 0.0457511 0)
(0.0585979 0.0540584 0)
(0.0505094 0.0615873 0)
(0.0408796 0.0679894 0)
(0.0299432 0.0729596 0)
(0.0180781 0.0763631 0)
(0.00564981 0.0781089 0)
(-0.00702596 0.0782062 0)
(-0.019544 0.0766307 0)
(-0.0315359 0.0733518 0)
(-0.04263 0.068456 0)
(-0.0524877 0.0620746 0)
(-0.0607782 0.0544949 0)
(-0.0673008 0.0460888 0)
(-0.0719747 0.0372477 0)
(-0.074835 0.0284261 0)
(-0.0759989 0.0199591 0)
(-0.0756498 0.0121367 0)
(-0.0740174 0.00520307 0)
(-0.0712935 -0.000645311 0)
(-0.0678157 -0.00529201 0)
(-0.0639526 -0.00867212 0)
(-0.0599316 -0.0108563 0)
(-0.0560149 -0.0119313 0)
(-0.0524119 -0.0120228 0)
(-0.0492303 -0.0113142 0)
(-0.0466031 -0.0100045 0)
(-0.0446234 -0.00821383 0)
(-0.0433103 -0.00612619 0)
(-0.0426952 -0.00389687 0)
(-0.0427675 -0.00169516 0)
(-0.0434791 0.000346376 0)
(-0.0447655 0.00214148 0)
(-0.0465701 0.00367523 0)
(-0.0489062 0.00504537 0)
(-0.0519414 0.0064203 0)
(-0.0560429 0.00787925 0)
(-0.061732 0.00895346 0)
(-0.0693597 0.00784015 0)
(-0.0782635 0.000678127 0)
(-0.086051 -0.0171285 0)
(-0.0893388 -0.0467569 0)
(-0.0857458 -0.0824144 0)
(-0.0742715 -0.11243 0)
(-0.0542776 -0.123761 0)
(-0.0276391 -0.103884 0)
(-0.00280956 -0.0415036 0)
(0.00593443 -0.0598475 0)
(0.0304162 -0.131549 0)
(0.0500158 -0.144741 0)
(0.062612 -0.123878 0)
(0.0693678 -0.0860675 0)
(0.0718934 -0.0449331 0)
(0.0706787 -0.0118586 0)
(0.066632 0.00752001 0)
(0.0616213 0.0145137 0)
(0.0571036 0.0144978 0)
(0.0534116 0.0121833 0)
(0.0503891 0.00985821 0)
(0.0478154 0.00801493 0)
(0.0455278 0.00640197 0)
(0.0435082 0.00465943 0)
(0.0418701 0.00257675 0)
(0.0407843 0.000113277 0)
(0.0403998 -0.00264247 0)
(0.040832 -0.00552209 0)
(0.0421178 -0.00833124 0)
(0.0442428 -0.0108412 0)
(0.0472036 -0.0128428 0)
(0.0509103 -0.0141605 0)
(0.0552358 -0.014583 0)
(0.0600246 -0.0138725 0)
(0.0651217 -0.0118606 0)
(0.0701942 -0.00844181 0)
(0.0748706 -0.00345806 0)
(0.0788393 0.00301323 0)
(0.0816838 0.0109299 0)
(0.0830702 0.0200426 0)
(0.082717 0.0300709 0)
(0.0803539 0.0406496 0)
(0.0757914 0.0513671 0)
(0.0689476 0.0617136 0)
(0.0598832 0.0711435 0)
(0.0487964 0.0791684 0)
(0.0359716 0.0854669 0)
(0.02189 0.0897623 0)
(0.00705012 0.0919738 0)
(-0.00810845 0.0921157 0)
(-0.0230613 0.0901466 0)
(-0.0373069 0.0860437 0)
(-0.0503448 0.0798596 0)
(-0.0617365 0.0718509 0)
(-0.0710888 0.0623598 0)
(-0.0782017 0.0518927 0)
(-0.0829669 0.0409899 0)
(-0.0854635 0.0301822 0)
(-0.085929 0.019927 0)
(-0.0846003 0.0105544 0)
(-0.0817428 0.00236524 0)
(-0.0776714 -0.0043864 0)
(-0.072751 -0.00965919 0)
(-0.0674231 -0.0133917 0)
(-0.0620759 -0.015542 0)
(-0.0569605 -0.0163421 0)
(-0.0523262 -0.0159344 0)
(-0.0483804 -0.0145994 0)
(-0.0451691 -0.0125786 0)
(-0.0427402 -0.0100402 0)
(-0.0411696 -0.00716509 0)
(-0.040468 -0.00415243 0)
(-0.0406096 -0.00120849 0)
(-0.0414958 0.00149152 0)
(-0.0429914 0.00384837 0)
(-0.0449355 0.00587813 0)
(-0.0472087 0.00778941 0)
(-0.0498183 0.00993828 0)
(-0.0529061 0.0125604 0)
(-0.0566639 0.0150663 0)
(-0.0611826 0.0150022 0)
(-0.0660455 0.00752994 0)
(-0.0697399 -0.0126617 0)
(-0.0705036 -0.0464821 0)
(-0.0676775 -0.0878888 0)
(-0.060886 -0.125377 0)
(-0.0485275 -0.145463 0)
(-0.0293916 -0.131111 0)
(-0.00558325 -0.0576992 0)
(0.00785686 -0.0773955 0)
(0.024293 -0.151222 0)
(0.0323052 -0.156076 0)
(0.0363589 -0.128974 0)
(0.0392744 -0.0878067 0)
(0.0423201 -0.0451073 0)
(0.0451102 -0.0111715 0)
(0.0470741 0.00896238 0)
(0.048193 0.0166407 0)
(0.0485673 0.0169335 0)
(0.0480823 0.0146252 0)
(0.0468028 0.012245 0)
(0.044964 0.0103753 0)
(0.0428312 0.00866487 0)
(0.0406783 0.00667048 0)
(0.0388008 0.00412793 0)
(0.0374923 0.000991155 0)
(0.0369939 -0.00261028 0)
(0.0374763 -0.00643376 0)
(0.0390143 -0.010225 0)
(0.0416239 -0.0137018 0)
(0.0452681 -0.0166019 0)
(0.0498754 -0.0187576 0)
(0.0554009 -0.0198876 0)
(0.0616625 -0.0196555 0)
(0.0683526 -0.0178483 0)
(0.0751924 -0.0142854 0)
(0.0817419 -0.00871062 0)
(0.0875078 -0.00120658 0)
(0.092002 0.00806085 0)
(0.0947585 0.0189321 0)
(0.0954582 0.0310365 0)
(0.093754 0.043973 0)
(0.089342 0.0572292 0)
(0.0820272 0.0701696 0)
(0.0717884 0.0820777 0)
(0.0589024 0.0922587 0)
(0.0436961 0.100308 0)
(0.0267513 0.105812 0)
(0.00882781 0.108615 0)
(-0.0095048 0.108819 0)
(-0.027552 0.10636 0)
(-0.0446701 0.101144 0)
(-0.0601645 0.093263 0)
(-0.0734657 0.0831013 0)
(-0.0841015 0.0711122 0)
(-0.0917875 0.0580003 0)
(-0.0965015 0.0445223 0)
(-0.0984114 0.0313046 0)
(-0.0978515 0.0188986 0)
(-0.0951709 0.00768763 0)
(-0.0906666 -0.00195563 0)
(-0.0847934 -0.00980304 0)
(-0.0780697 -0.015705 0)
(-0.0708661 -0.0196152 0)
(-0.063701 -0.0215991 0)
(-0.0570414 -0.0218841 0)
(-0.051156 -0.020821 0)
(-0.0462496 -0.0186832 0)
(-0.0423384 -0.0157246 0)
(-0.0394363 -0.0122307 0)
(-0.0375726 -0.00837704 0)
(-0.0367806 -0.00440344 0)
(-0.037006 -0.000574624 0)
(-0.0380936 0.00286096 0)
(-0.0398257 0.0057424 0)
(-0.041911 0.00808263 0)
(-0.044024 0.010146 0)
(-0.0458694 0.0123716 0)
(-0.0471722 0.0150379 0)
(-0.047669 0.0174632 0)
(-0.0472147 0.0169637 0)
(-0.0459206 0.00867238 0)
(-0.0437207 -0.0122719 0)
(-0.0407155 -0.0468856 0)
(-0.0376548 -0.0896866 0)
(-0.0349492 -0.13033 0)
(-0.0311781 -0.156441 0)
(-0.0234377 -0.150181 0)
(-0.00740648 -0.0744753 0)
(0.00721919 -0.0905761 0)
(0.0118105 -0.15804 0)
(0.00880119 -0.156556 0)
(0.00616942 -0.128551 0)
(0.0068782 -0.0888134 0)
(0.0112345 -0.0483026 0)
(0.0180118 -0.0160049 0)
(0.025598 0.00390614 0)
(0.0323524 0.0127928 0)
(0.0371382 0.0149212 0)
(0.0394905 0.0143627 0)
(0.0396866 0.0133196 0)
(0.0383671 0.0123015 0)