/*--------------------------------*- C++ -*----------------------------------*\
| =========                 |                                                 |
| \\      /  F ield         | OpenFOAM: The Open Source CFD Toolbox           |
|  \\    /   O peration     | Version:  2412                                  |
|   \\  /    A nd           | Website:  www.openfoam.com                      |
|    \\/     M anipulation  |                                                 |
\*---------------------------------------------------------------------------*/
FoamFile
{
    version     2.0;
    format      ascii;
    arch        "LSB;label=32;scalar=64";
    class       surfaceScalarField;
    location    "5.85";
    object      alphaPhi0.oil;
}
// * * * * * * * * * * * * * * * * * * * * * * * * * * * * * * * * * * * * * //

dimensions      [0 3 -1 0 0 0 0];

oriented        oriented;

internalField   nonuniform List<scalar> 
12640
(
5.44384e-08
-5.44793e-08
2.12883e-07
-1.57833e-07
4.27004e-07
-2.13736e-07
6.53928e-07
-2.26482e-07
8.68593e-07
-2.14281e-07
1.05961e-06
-1.90691e-07
1.22378e-06
-1.64204e-07
1.36335e-06
-1.3936e-07
1.48227e-06
-1.18636e-07
1.58477e-06
-1.02477e-07
1.67473e-06
-8.99939e-08
1.75509e-06
-8.03027e-08
1.82741e-06
-7.22863e-08
1.89222e-06
-6.48382e-08
1.94943e-06
-5.72949e-08
1.99857e-06
-4.92508e-08
2.03889e-06
-4.029e-08
2.0693e-06
-3.00993e-08
2.08855e-06
-1.87197e-08
2.09538e-06
-6.40079e-09
2.08878e-06
6.62581e-09
2.06813e-06
2.02466e-08
2.03316e-06
3.43618e-08
1.98386e-06
4.87722e-08
1.92037e-06
6.31735e-08
1.84306e-06
7.72231e-08
1.75256e-06
9.05921e-08
1.64977e-06
1.02987e-07
1.53587e-06
1.14182e-07
1.41216e-06
1.24007e-07
1.28008e-06
1.32362e-07
1.14112e-06
1.39191e-07
9.96784e-07
1.44497e-07
8.4851e-07
1.48371e-07
6.97602e-07
1.50954e-07
5.45135e-07
1.52475e-07
3.91966e-07
1.53148e-07
2.38748e-07
1.53176e-07
8.59016e-08
1.5279e-07
-6.63827e-08
1.52223e-07
-2.17974e-07
1.51532e-07
-3.68736e-07
1.50708e-07
-5.18575e-07
1.49792e-07
-6.67173e-07
1.48562e-07
-8.14101e-07
1.46907e-07
-9.58866e-07
1.44758e-07
-1.10067e-06
1.41817e-07
-1.2385e-06
1.37856e-07
-1.3711e-06
1.32636e-07
-1.49704e-06
1.25993e-07
-1.61496e-06
1.17984e-07
-1.72349e-06
1.08606e-07
-1.82128e-06
9.79001e-08
-1.90723e-06
8.60803e-08
-1.98045e-06
7.33469e-08
-2.04021e-06
5.98891e-08
-2.0861e-06
4.60029e-08
-2.11796e-06
3.19423e-08
-2.1359e-06
1.79873e-08
-2.14027e-06
4.35435e-09
-2.13163e-06
-8.72654e-09
-2.11077e-06
-2.10269e-08
-2.07862e-06
-3.23965e-08
-2.0362e-06
-4.27577e-08
-1.98448e-06
-5.21341e-08
-1.92431e-06
-6.06355e-08
-1.85627e-06
-6.85202e-08
-1.7804e-06
-7.63423e-08
-1.696e-06
-8.48286e-08
-1.60143e-06
-9.4896e-08
-1.49404e-06
-1.07582e-07
-1.37026e-06
-1.23815e-07
-1.22601e-06
-1.44134e-07
-1.05768e-06
-1.68117e-07
-8.63755e-07
-1.93654e-07
-6.47517e-07
-2.15966e-07
-4.20729e-07
-2.2658e-07
-2.08273e-07
-2.12342e-07
-5.24434e-08
-1.55785e-07
-5.2433e-08
1.59501e-07
-2.13361e-07
5.13665e-07
-5.11335e-07
9.60201e-07
-6.59788e-07
1.42325e-06
-6.89235e-07
1.85501e-06
-6.45983e-07
2.23254e-06
-5.67865e-07
2.54928e-06
-4.80742e-07
2.80964e-06
-3.9953e-07
3.02266e-06
-3.31523e-07
3.19851e-06
-2.78406e-07
3.34674e-06
-2.38302e-07
3.47477e-06
-2.08301e-07
3.58718e-06
-1.84694e-07
3.68609e-06
-1.63858e-07
3.77198e-06
-1.43244e-07
3.84421e-06
-1.21394e-07
3.90127e-06
-9.72238e-08
3.94101e-06
-6.98408e-08
3.96096e-06
-3.89028e-08
3.95862e-06
-4.54862e-09
3.93193e-06
3.27074e-08
3.87939e-06
7.22048e-08
3.80018e-06
1.13168e-07
3.69403e-06
1.54725e-07
3.56127e-06
1.95956e-07
3.40276e-06
2.35936e-07
3.21996e-06
2.73748e-07
3.01489e-06
3.08512e-07
2.79011e-06
3.39471e-07
2.54855e-06
3.66055e-07
2.29338e-06
3.87939e-07
2.02788e-06
4.04995e-07
1.75521e-06
4.17359e-07
1.47828e-06
4.25393e-07
1.19959e-06
4.29664e-07
9.21091e-07
4.30943e-07
6.44141e-07
4.30041e-07
3.69494e-07
4.27752e-07
9.73457e-08
4.24863e-07
-1.72578e-07
4.22076e-07
-4.4085e-07
4.19742e-07
-7.08065e-07
4.17877e-07
-9.74709e-07
4.16411e-07
-1.24094e-06
4.14787e-07
-1.5065e-06
4.12499e-07
-1.77074e-06
4.09061e-07
-2.03246e-06
4.03624e-07
-2.28984e-06
3.95358e-07
-2.54044e-06
3.83402e-07
-2.78142e-06
3.6717e-07
-3.00973e-06
3.46524e-07
-3.22234e-06
3.2148e-07
-3.4164e-06
2.92252e-07
-3.58932e-06
2.59314e-07
-3.73905e-06
2.23383e-07
-3.86404e-06
1.85169e-07
-3.96328e-06
1.45479e-07
-4.03636e-06
1.05178e-07
-4.08347e-06
6.5148e-08
-4.1053e-06
2.61094e-08
-4.1031e-06
-1.11433e-08
-4.07856e-06
-4.59383e-08
-4.03368e-06
-7.77974e-08
-3.97054e-06
-1.06526e-07
-3.89111e-06
-1.32262e-07
-3.79692e-06
-1.55561e-07
-3.68869e-06
-1.77451e-07
-3.56581e-06
-1.99819e-07
-3.42585e-06
-2.25218e-07
-3.2642e-06
-2.56761e-07
-3.07401e-06
-2.97751e-07
-2.84658e-06
-3.51029e-07
-2.57235e-06
-4.17986e-07
-2.24322e-06
-4.96792e-07
-1.85607e-06
-5.80366e-07
-1.41792e-06
-6.53771e-07
-9.52498e-07
-6.91824e-07
-5.07132e-07
-6.57676e-07
-1.56557e-07
-5.06387e-07
-2.08994e-07
2.18956e-07
-4.3176e-07
6.71699e-07
-9.63963e-07
1.22023e-06
-1.20834e-06
1.77374e-06
-1.24289e-06
2.27723e-06
-1.14956e-06
2.70434e-06
-9.95028e-07
3.04869e-06
-8.25429e-07
3.31735e-06
-6.68339e-07
3.52325e-06
-5.37476e-07
3.6808e-06
-4.36218e-07
3.8037e-06
-3.61512e-07
3.90301e-06
-3.07782e-07
3.98591e-06
-2.67772e-07
4.05619e-06
-2.34465e-07
4.11501e-06
-2.02693e-07
4.16184e-06
-1.69206e-07
4.19502e-06
-1.31592e-07
4.21213e-06
-8.79966e-08
4.21027e-06
-3.76461e-08
4.1864e-06
1.9182e-08
4.1378e-06
8.14344e-08
4.06243e-06
1.47763e-07
3.95908e-06
2.16682e-07
3.82737e-06
2.866e-07
3.66769e-06
3.55871e-07
3.48116e-06
4.22806e-07
3.26966e-06
4.85703e-07
3.03577e-06
5.42928e-07
2.78281e-06
5.92993e-07
2.51461e-06
6.34816e-07
2.23528e-06
6.67757e-07
1.94902e-06
6.91672e-07
1.65976e-06
7.06938e-07
1.37101e-06
7.14395e-07
1.08556e-06
7.15321e-07
8.05385e-07
7.11305e-07
5.31532e-07
7.04069e-07
2.64074e-07
6.95378e-07
2.26365e-09
6.86839e-07
-2.55336e-07
6.79843e-07
-5.10573e-07
6.75152e-07
-7.65441e-07
6.72928e-07
-1.02171e-06
6.72881e-07
-1.28067e-06
6.73962e-07
-1.543e-06
6.75067e-07
-1.80858e-06
6.74911e-07
-2.07646e-06
6.71815e-07
-2.3448e-06
6.64034e-07
-2.61083e-06
6.49815e-07
-2.87111e-06
6.27853e-07
-3.12175e-06
5.97603e-07
-3.35883e-06
5.59032e-07
-3.57866e-06
5.12568e-07
-3.77787e-06
4.59037e-07
-3.95368e-06
3.99709e-07
-4.10403e-06
3.36012e-07
-4.22759e-06
2.69482e-07
-4.32377e-06
2.01728e-07
-4.39274e-06
1.34382e-07
-4.43539e-06
6.89105e-08
-4.45331e-06
6.80165e-09
-4.44863e-06
-5.07245e-08
-4.42382e-06
-1.02818e-07
-4.38145e-06
-1.49207e-07
-4.32381e-06
-1.9028e-07
-4.25247e-06
-2.27292e-07
-4.16778e-06
-2.62503e-07
-4.06817e-06
-2.99704e-07
-3.94956e-06
-3.44002e-07
-3.80488e-06
-4.01477e-07
-3.6241e-06
-4.78439e-07
-3.39469e-06
-5.80214e-07
-3.10321e-06
-7.09176e-07
-2.73808e-06
-8.61631e-07
-2.29409e-06
-1.02414e-06
-1.77846e-06
-1.16932e-06
-1.21812e-06
-1.25217e-06
-6.67758e-07
-1.20807e-06
-2.16819e-07
-9.57329e-07
-4.25742e-07
2.37516e-07
-6.69282e-07
7.1667e-07
-1.4435e-06
1.28087e-06
-1.77294e-06
1.83196e-06
-1.79443e-06
2.31412e-06
-1.63204e-06
2.70257e-06
-1.38364e-06
2.99376e-06
-1.11704e-06
3.19843e-06
-8.73148e-07
3.33316e-06
-6.7222e-07
3.41575e-06
-5.19095e-07
3.46306e-06
-4.092e-07
3.48885e-06
-3.33876e-07
3.50245e-06
-2.81743e-07
3.50903e-06
-2.41567e-07
3.51048e-06
-2.04813e-07
3.50635e-06
-1.65922e-07
3.49488e-06
-1.21107e-07
3.47359e-06
-6.76287e-08
3.43957e-06
-4.23759e-09
3.38966e-06
6.88463e-08
3.32096e-06
1.50172e-07
3.23116e-06
2.37734e-07
3.11882e-06
3.29253e-07
2.98342e-06
4.22288e-07
2.82528e-06
5.14347e-07
2.6456e-06
6.02886e-07
2.4464e-06
6.85342e-07
2.23048e-06
7.59306e-07
2.00152e-06
8.22413e-07
1.76375e-06
8.73032e-07
1.52178e-06
9.10139e-07
1.28022e-06
9.33591e-07
1.04333e-06
9.44113e-07
8.14702e-07
9.43252e-07
5.96998e-07
9.33213e-07
3.91713e-07
9.16752e-07
1.99035e-07
8.96894e-07
1.79226e-08
8.76628e-07
-1.53758e-07
8.58651e-07
-3.18999e-07
8.45215e-07
-4.81327e-07
8.37617e-07
-6.44487e-07
8.36238e-07
-8.12019e-07
8.40575e-07
-9.86827e-07
8.4895e-07
-1.17092e-06
8.5936e-07
-1.36513e-06
8.69358e-07
-1.56917e-06
8.76116e-07
-1.78153e-06
8.76706e-07
-1.99958e-06
8.68231e-07
-2.21975e-06
8.48431e-07
-2.43784e-06
8.16138e-07
-2.64943e-06
7.71119e-07
-2.85031e-06
7.13978e-07
-3.03677e-06
6.46041e-07
-3.20565e-06
5.69149e-07
-3.3546e-06
4.85504e-07
-3.48213e-06
3.97516e-07
-3.58758e-06
3.07628e-07
-3.67114e-06
2.18302e-07
-3.73379e-06
1.31848e-07
-3.77726e-06
5.0467e-08
-3.80383e-06
-2.40514e-08
-3.81609e-06
-9.0521e-08
-3.81668e-06
-1.48615e-07
-3.80787e-06
-1.99106e-07
-3.79101e-06
-2.44148e-07
-3.76588e-06
-2.87569e-07
-3.73007e-06
-3.35384e-07
-3.6782e-06
-3.95671e-07
-3.60149e-06
-4.7797e-07
-3.48755e-06
-5.92149e-07
-3.32105e-06
-7.46517e-07
-3.08529e-06
-9.44788e-07
-2.76529e-06
-1.18157e-06
-2.35261e-06
-1.43686e-06
-1.85179e-06
-1.67028e-06
-1.28824e-06
-1.81581e-06
-7.17742e-07
-1.77855e-06
-2.37191e-07
-1.43775e-06
-6.62778e-07
2.32102e-07
-9.01799e-07
6.91127e-07
-1.90308e-06
1.21539e-06
-2.29782e-06
1.70596e-06
-2.28556e-06
2.10986e-06
-2.03631e-06
2.4067e-06
-1.68062e-06
2.59744e-06
-1.30822e-06
2.69719e-06
-9.73002e-07
2.72612e-06
-7.01107e-07
2.70475e-06
-4.9801e-07
2.65219e-06
-3.57056e-07
2.58407e-06
-2.66e-07
2.51117e-06
-2.08983e-07
2.43968e-06
-1.70137e-07
2.37196e-06
-1.37091e-07
2.30759e-06
-1.01681e-07
2.24468e-06
-5.85653e-08
2.18069e-06
-4.18942e-09
2.1128e-06
6.31852e-08
2.03797e-06
1.43441e-07
1.95333e-06
2.34853e-07
1.85651e-06
3.34781e-07
1.74593e-06
4.40167e-07
1.6209e-06
5.47703e-07
1.48164e-06
6.54007e-07
1.32925e-06
7.55675e-07
1.16571e-06
8.49274e-07
9.94007e-07
9.31381e-07
8.17707e-07
9.99087e-07
6.41229e-07
1.04989e-06
4.69444e-07
1.0823e-06
3.07223e-07
1.09616e-06
1.58975e-07
1.09265e-06
2.82233e-08
1.07424e-06
-8.27306e-08
1.04435e-06
-1.73105e-07
1.00727e-06
-2.43787e-07
9.67695e-07
-2.97189e-07
9.30132e-07
-3.37038e-07
8.9859e-07
-3.68076e-07
8.76338e-07
-3.95735e-07
8.65362e-07
-4.2569e-07
8.66285e-07
-4.63445e-07
8.78425e-07
-5.13765e-07
8.99371e-07
-5.80232e-07
9.25942e-07
-6.64927e-07
9.54186e-07
-7.68412e-07
9.79762e-07
-8.89724e-07
9.98218e-07
-1.02645e-06
1.00521e-06
-1.17504e-06
9.97314e-07
-1.33111e-06
9.72548e-07
-1.48997e-06
9.30364e-07
-1.64711e-06
8.71518e-07
-1.79853e-06
7.97866e-07
-1.94095e-06
7.11978e-07
-2.07198e-06
6.16919e-07
-2.19014e-06
5.16005e-07
-2.29481e-06
4.12589e-07
-2.38627e-06
3.09969e-07
-2.46552e-06
2.11252e-07
-2.5343e-06
1.19327e-07
-2.59483e-06
3.6526e-08
-2.64968e-06
-3.56591e-08
-2.70132e-06
-9.69511e-08
-2.75177e-06
-1.48603e-07
-2.80207e-06
-1.93747e-07
-2.8516e-06
-2.37849e-07
-2.89746e-06
-2.89294e-07
-2.93353e-06
-3.59358e-07
-2.94998e-06
-4.61361e-07
-2.933e-06
-6.09103e-07
-2.8652e-06
-8.14442e-07
-2.72712e-06
-1.08312e-06
-2.50031e-06
-1.40868e-06
-2.17224e-06
-1.76525e-06
-1.74295e-06
-2.0998e-06
-1.23374e-06
-2.32507e-06
-6.98005e-07
-2.31413e-06
-2.33625e-07
-1.90192e-06
-8.96297e-07
2.14958e-07
-1.11732e-06
6.27846e-07
-2.31669e-06
1.08007e-06
-2.75045e-06
1.47658e-06
-2.68244e-06
1.77034e-06
-2.33029e-06
1.94747e-06
-1.85768e-06
2.01444e-06
-1.37559e-06
1.9912e-06
-9.49817e-07
1.90134e-06
-6.11092e-07
1.76747e-06
-3.64307e-07
1.61006e-06
-1.99922e-07
1.44551e-06
-1.01586e-07
1.28522e-06
-4.8762e-08
1.13588e-06
-2.07002e-08
1.00007e-06
-9.06099e-10
8.77364e-07
2.15345e-08
7.65648e-07
5.3521e-08
6.62263e-07
9.93506e-08
5.64382e-07
1.61143e-07
4.69153e-07
2.38827e-07
3.73836e-07
3.30467e-07
2.76119e-07
4.32903e-07
1.7437e-07
5.42364e-07
6.77842e-08
6.54729e-07
-4.3563e-08
7.65756e-07
-1.58715e-07
8.71182e-07
-2.75824e-07
9.66688e-07
-3.92213e-07
1.04804e-06
-5.04227e-07
1.11137e-06
-6.07438e-07
1.15339e-06
-6.96785e-07
1.17196e-06
-7.67145e-07
1.16682e-06
-8.13915e-07
1.13969e-06
-8.33581e-07
1.09411e-06
-8.24218e-07
1.03513e-06
-7.858e-07
9.68952e-07
-7.20288e-07
9.02251e-07
-6.31528e-07
8.41415e-07
-5.2492e-07
7.92005e-07
-4.07089e-07
7.5852e-07
-2.85422e-07
7.43704e-07
-1.67609e-07
7.48485e-07
-6.11426e-08
7.7197e-07
2.72932e-08
8.10948e-07
9.2434e-08
8.60823e-07
1.30734e-07
9.15919e-07
1.40725e-07
9.69821e-07
1.22809e-07
1.01621e-06
7.92035e-08
1.04894e-06
1.36125e-08
1.06307e-06
-6.92934e-08
1.05565e-06
-1.64522e-07
1.02581e-06
-2.67312e-07
9.74531e-07
-3.73534e-07
9.04304e-07
-4.79923e-07
8.18557e-07
-5.84182e-07
7.21327e-07
-6.8498e-07
6.169e-07
-7.81892e-07
5.09536e-07
-8.75259e-07
4.0331e-07
-9.66156e-07
3.0207e-07
-1.05625e-06
2.09306e-07
-1.14764e-06
1.27778e-07
-1.24264e-06
5.92104e-08
-1.3435e-06
3.80622e-09
-1.45195e-06
-4.01994e-08
-1.56879e-06
-7.68939e-08
-1.69327e-06
-1.13289e-07
-1.82234e-06
-1.60095e-07
-1.94989e-06
-2.31718e-07
-2.06584e-06
-3.45453e-07
-2.15576e-06
-5.19402e-07
-2.20095e-06
-7.69643e-07
-2.17973e-06
-1.10483e-06
-2.07033e-06
-1.51859e-06
-1.85565e-06
-1.98035e-06
-1.53005e-06
-2.42562e-06
-1.10883e-06
-2.74626e-06
-6.39923e-07
-2.7828e-06
-2.17444e-07
-2.32428e-06
-1.11383e-06
1.93283e-07
-1.31079e-06
5.47641e-07
-2.67135e-06
9.112e-07
-3.11386e-06
1.19632e-06
-2.96756e-06
1.36461e-06
-2.49859e-06
1.41049e-06
-1.90324e-06
1.34676e-06
-1.31221e-06
1.19837e-06
-8.01492e-07
9.92005e-07
-4.046e-07
7.51609e-07
-1.24156e-07
4.9806e-07
5.32941e-08
2.47372e-07
1.48826e-07
1.05344e-08
1.87667e-07
-2.06076e-07
1.95525e-07
-3.99971e-07
1.92966e-07
-5.71752e-07
1.93678e-07
-7.23703e-07
2.05967e-07
-8.58646e-07
2.3471e-07
-9.79421e-07
2.82234e-07
-1.08877e-06
3.48455e-07
-1.18924e-06
4.31222e-07
-1.28299e-06
5.2695e-07
-1.37162e-06
6.31245e-07
-1.45597e-06
7.3928e-07
-1.53614e-06
8.4605e-07
-1.61139e-06
9.46494e-07
-1.68018e-06
1.03548e-06
-1.74006e-06
1.10787e-06
-1.78757e-06
1.15882e-06
-1.81828e-06
1.18405e-06
-1.82689e-06
1.18056e-06
-1.80788e-06
1.14782e-06
-1.75623e-06
1.08806e-06
-1.66824e-06
1.00609e-06
-1.54214e-06
9.08973e-07
-1.37852e-06
8.05233e-07
-1.18036e-06
7.03992e-07
-9.52939e-07
6.13874e-07
-7.03357e-07
5.42303e-07
-4.40137e-07
4.95183e-07
-1.72627e-07
4.76095e-07
8.9484e-08
4.863e-07
3.36812e-07
5.24593e-07
5.60793e-07
5.86946e-07
7.54389e-07
6.67239e-07
9.12616e-07
7.57741e-07
1.03295e-06
8.49561e-07
1.11542e-06
9.33857e-07
1.1623e-06
1.00223e-06
1.17764e-06
1.04792e-06
1.16668e-06
1.06685e-06
1.13492e-06
1.05783e-06
1.08745e-06
1.02228e-06
1.02842e-06
9.63597e-07
9.60961e-07
8.86256e-07
8.87141e-07
7.9535e-07
8.07991e-07
6.9621e-07
7.23696e-07
5.9395e-07
6.33754e-07
4.93333e-07
5.3706e-07
3.98826e-07
4.32025e-07
3.14406e-07
3.16745e-07
2.4314e-07
1.89185e-07
1.86892e-07
4.74287e-08
1.45736e-07
-1.10009e-07
1.17446e-07
-2.8378e-07
9.71097e-08
-4.73223e-07
7.63971e-08
-6.75754e-07
4.26336e-08
-8.85888e-07
-2.15116e-08
-1.09424e-06
-1.37238e-07
-1.28661e-06
-3.27392e-07
-1.44386e-06
-6.12919e-07
-1.5428e-06
-1.00645e-06
-1.55868e-06
-1.50317e-06
-1.46967e-06
-2.06965e-06
-1.26366e-06
-2.63164e-06
-9.48286e-07
-3.06151e-06
-5.63243e-07
-3.16769e-06
-1.96002e-07
-2.69166e-06
-1.31005e-06
1.70374e-07
-1.48128e-06
4.60706e-07
-2.96168e-06
7.27011e-07
-3.37994e-06
8.92335e-07
-3.13297e-06
9.29486e-07
-2.53596e-06
8.42895e-07
-1.81646e-06
6.52263e-07
-1.12218e-06
3.87462e-07
-5.36955e-07
7.74923e-08
-9.4713e-08
-2.53205e-07
2.06128e-07
-5.84487e-07
3.84253e-07
-9.01787e-07
4.65933e-07
-1.19591e-06
4.81326e-07
-1.46172e-06
4.60627e-07
-1.69747e-06
4.2817e-07
-1.90408e-06
4.00164e-07
-2.08397e-06
3.86021e-07
-2.23998e-06
3.9099e-07
-2.37486e-06
4.1737e-07
-2.4912e-06
4.65021e-07
-2.59134e-06
5.31557e-07
-2.67723e-06
6.13003e-07
-2.7503e-06
7.04437e-07
-2.81138e-06
8.00446e-07
-2.86072e-06
8.95419e-07
-2.89788e-06
9.83666e-07
-2.92176e-06
1.05934e-06
-2.9303e-06
1.11636e-06
-2.92033e-06
1.14879e-06
-2.88742e-06
1.15109e-06
-2.82594e-06
1.11909e-06
-2.72971e-06
1.05164e-06
-2.59295e-06
9.51358e-07
-2.41134e-06
8.24549e-07
-2.18296e-06
6.80646e-07
-1.90879e-06
5.31104e-07
-1.59279e-06
3.88043e-07
-1.24164e-06
2.6276e-07
-8.64119e-07
1.64827e-07
-4.70579e-07
1.01687e-07
-7.22806e-08
7.78566e-08
3.19219e-07
9.48923e-08
6.92667e-07
1.51266e-07
1.03776e-06
2.42012e-07
1.3457e-06
3.59505e-07
1.61012e-06
4.93553e-07
1.82744e-06
6.32513e-07
1.99745e-06
7.64135e-07
2.12282e-06
8.77192e-07
2.20842e-06
9.62683e-07
2.2604e-06
1.01524e-06
2.28505e-06
1.03355e-06
2.28789e-06
1.01981e-06
2.27311e-06
9.78718e-07
2.24355e-06
9.16146e-07
2.20076e-06
8.38403e-07
2.14537e-06
7.51812e-07
2.07725e-06
6.6224e-07
1.99571e-06
5.75022e-07
1.89959e-06
4.9508e-07
1.78744e-06
4.26714e-07
1.65758e-06
3.73202e-07
1.50831e-06
3.36429e-07
1.3381e-06
3.16261e-07
1.14576e-06
3.10117e-07
9.30664e-07
3.12491e-07
6.93089e-07
3.14193e-07
4.34693e-07
3.01141e-07
1.59595e-07
2.53541e-07
-1.24402e-07
1.46528e-07
-4.04435e-07
-4.77381e-08
-6.62028e-07
-3.55749e-07
-8.73481e-07
-7.95341e-07
-1.01177e-06
-1.36504e-06
-1.05052e-06
-2.03086e-06
-9.70558e-07
-2.71135e-06
-7.70216e-07
-3.26174e-06
-4.78482e-07
-3.45942e-06
-1.73749e-07
-2.99681e-06
-1.48391e-06
1.46852e-07
-1.62817e-06
3.68587e-07
-3.18338e-06
5.30862e-07
-3.54215e-06
5.70966e-07
-3.17337e-06
4.75884e-07
-2.44135e-06
2.61617e-07
-1.60211e-06
-4.48413e-08
-8.1634e-07
-4.09449e-07
-1.72441e-07
-8.02193e-07
2.98127e-07
-1.19941e-06
6.03176e-07
-1.58283e-06
7.6794e-07
-1.94061e-06
8.24429e-07
-2.26663e-06
8.07833e-07
-2.55817e-06
7.52201e-07
-2.81501e-06
6.84862e-07
-3.03867e-06
6.23797e-07
-3.2316e-06
5.79087e-07
-3.39641e-06
5.56003e-07
-3.53552e-06
5.56678e-07
-3.65118e-06
5.80843e-07
-3.74545e-06
6.25931e-07
-3.82001e-06
6.87609e-07
-3.87603e-06
7.60468e-07
-3.91424e-06
8.38624e-07
-3.93497e-06
9.16093e-07
-3.93821e-06
9.86842e-07
-3.92345e-06
1.04452e-06
-3.8893e-06
1.08215e-06
-3.83302e-06
1.09243e-06
-3.75022e-06
1.0682e-06
-3.63478e-06
1.00358e-06
-3.47949e-06
8.96303e-07
-3.27725e-06
7.49096e-07
-3.02263e-06
5.69902e-07
-2.71315e-06
3.71123e-07
-2.35004e-06
1.67937e-07
-1.93815e-06
-2.39114e-08
-1.48549e-06
-1.89974e-07
-1.00248e-06
-3.18282e-07
-5.01171e-07
-3.99747e-07
5.45096e-09
-4.28897e-07
5.04059e-07
-4.03836e-07
9.81711e-07
-3.26494e-07
1.42639e-06
-2.02745e-07
1.82772e-06
-4.18741e-08
2.17787e-06
1.43384e-07
2.47245e-06
3.3792e-07
2.71104e-06
5.25565e-07
2.89711e-06
6.91154e-07
3.03698e-06
8.22878e-07
3.13824e-06
9.14048e-07
3.20834e-06
9.63533e-07
3.25331e-06
9.74908e-07
3.27733e-06
9.54759e-07
3.28266e-06
9.10834e-07
3.27013e-06
8.50923e-07
3.2397e-06
7.82203e-07
3.19083e-06
7.11039e-07
3.12265e-06
6.43129e-07
3.03403e-06
5.83669e-07
2.92365e-06
5.37137e-07
2.7901e-06
5.06882e-07
2.63206e-06
4.94708e-07
2.44849e-06
5.00164e-07
2.23858e-06
5.20369e-07
2.00181e-06
5.49538e-07
1.73787e-06
5.78295e-07
1.44707e-06
5.91956e-07
1.13134e-06
5.69146e-07
7.95857e-07
4.8178e-07
4.50816e-07
2.97065e-07
1.12603e-07
-1.76658e-08
-1.95984e-07
-4.86705e-07
-4.46855e-07
-1.11396e-06
-6.09693e-07
-1.8677e-06
-6.57982e-07
-2.66276e-06
-5.79121e-07
-3.34072e-06
-3.88707e-07
-3.65012e-06
-1.51896e-07
-3.2341e-06
-1.63568e-06
1.20923e-07
-1.74898e-06
2.65798e-07
-3.32839e-06
3.14016e-07
-3.59042e-06
2.22113e-07
-3.08172e-06
-4.94739e-09
-2.21455e-06
-3.38322e-07
-1.26844e-06
-7.43795e-07
-4.11066e-07
-1.18475e-06
2.69157e-07
-1.63243e-06
7.46539e-07
-2.06579e-06
1.03683e-06
-2.46995e-06
1.17296e-06
-2.8371e-06
1.1932e-06
-3.16512e-06
1.13758e-06
-3.45499e-06
1.04335e-06
-3.70882e-06
9.39573e-07
-3.9291e-06
8.44758e-07
-4.11821e-06
7.68766e-07
-4.27809e-06
7.1634e-07
-4.41048e-06
6.89405e-07
-4.51707e-06
6.87656e-07
-4.59951e-06
7.08507e-07
-4.65915e-06
7.47312e-07
-4.69681e-06
7.9813e-07
-4.71291e-06
8.54671e-07
-4.70782e-06
9.10885e-07
-4.68199e-06
9.60872e-07
-4.63582e-06
9.98221e-07
-4.569e-06
1.01519e-06
-4.47961e-06
1.00287e-06
-4.36335e-06
9.51739e-07
-4.21339e-06
8.53377e-07
-4.02097e-06
7.03625e-07
-3.77699e-06
5.04818e-07
-3.47423e-06
2.6681e-07
-3.10933e-06
5.84377e-09
-2.68361e-06
-2.58221e-07
-2.20273e-06
-5.05257e-07
-1.67602e-06
-7.17205e-07
-1.11542e-06
-8.79449e-07
-5.3448e-07
-9.81301e-07
5.23498e-08
-1.01638e-06
6.30311e-07
-9.82476e-07
1.18504e-06
-8.81911e-07
1.70297e-06
-7.21362e-07
2.17219e-06
-5.1176e-07
2.58344e-06
-2.68516e-07
2.9314e-06
-1.06772e-08
3.2157e-06
2.40641e-07
3.44106e-06
4.65202e-07
3.61592e-06
6.47458e-07
3.75015e-06
7.7929e-07
3.85275e-06
8.60411e-07
3.93046e-06
8.96696e-07
3.98714e-06
8.97572e-07
4.02415e-06
8.73312e-07
4.04115e-06
8.33414e-07
4.03707e-06
7.85784e-07
4.01087e-06
7.36765e-07
3.96154e-06
6.92036e-07
3.8881e-06
6.56784e-07
3.78942e-06
6.35613e-07
3.66439e-06
6.31859e-07
3.51213e-06
6.47075e-07
3.33219e-06
6.80376e-07
3.12443e-06
7.28458e-07
2.88865e-06
7.85596e-07
2.62409e-06
8.43034e-07
2.32925e-06
8.86839e-07
2.00301e-06
8.95344e-07
1.64659e-06
8.38147e-07
1.26597e-06
6.77762e-07
8.73645e-07
3.74956e-07
4.89572e-07
-1.02168e-07
1.41092e-07
-7.64987e-07
-1.38936e-07
-1.58728e-06
-3.16865e-07
-2.48473e-06
-3.67589e-07
-3.29045e-06
-2.89508e-07
-3.72856e-06
-1.27726e-07
-3.396e-06
-1.76315e-06
8.84313e-08
-1.83734e-06
1.40492e-07
-3.38069e-06
5.72376e-08
-3.50707e-06
-1.77762e-07
-2.84665e-06
-5.3651e-07
-1.85539e-06
-9.76902e-07
-8.27419e-07
-1.4586e-06
7.07262e-08
-1.9454e-06
7.57048e-07
-2.41288e-06
1.21501e-06
-2.8453e-06
1.46931e-06
-3.23317e-06
1.561e-06
-3.57393e-06
1.53485e-06
-3.87051e-06
1.43539e-06
-4.12827e-06
1.30222e-06
-4.35248e-06
1.16469e-06
-4.54702e-06
1.04005e-06
-4.71387e-06
9.36221e-07
-4.85371e-06
8.56663e-07
-4.96709e-06
8.0313e-07
-5.05498e-06
7.75781e-07
-5.11865e-06
7.72344e-07
-5.1591e-06
7.87872e-07
-5.17657e-06
8.15685e-07
-5.1709e-06
8.49024e-07
-5.14223e-06
8.82174e-07
-5.09162e-06
9.10178e-07
-5.02082e-06
9.27338e-07
-4.93121e-06
9.25481e-07
-4.82232e-06
8.93875e-07
-4.69033e-06
8.19588e-07
-4.52746e-06
6.9031e-07
-4.32267e-06
4.9859e-07
-4.06386e-06
2.45722e-07
-3.74124e-06
-5.6147e-08
-3.35016e-06
-3.85644e-07
-2.89196e-06
-7.16897e-07
-2.37329e-06
-1.02446e-06
-1.80478e-06
-1.28628e-06
-1.19981e-06
-1.48503e-06
-5.7305e-07
-1.60871e-06
6.01709e-08
-1.65028e-06
6.84262e-07
-1.60726e-06
1.28394e-06
-1.4823e-06
1.84447e-06
-1.28262e-06
2.35245e-06
-1.02044e-06
2.79698e-06
-7.13727e-07
3.1715e-06
-3.85873e-07
3.47572e-06
-6.42425e-08
3.71624e-06
2.24044e-07
3.90465e-06
4.58434e-07
4.05406e-06
6.29292e-07
4.17576e-06
7.38123e-07
4.27711e-06
7.94767e-07
4.36123e-06
8.12868e-07
4.42786e-06
8.06077e-07
4.47488e-06
7.85801e-07
4.49981e-06
7.6031e-07
4.50079e-06
7.35284e-07
4.4769e-06
7.15497e-07
4.42758e-06
7.05796e-07
4.35203e-06
7.10984e-07
4.24931e-06
7.34526e-07
4.11897e-06
7.77529e-07
3.96127e-06
8.38327e-07
3.77725e-06
9.12812e-07
3.56769e-06
9.95485e-07
3.33167e-06
1.07931e-06
3.06566e-06
1.15306e-06
2.76442e-06
1.19677e-06
2.42376e-06
1.17908e-06
2.04358e-06
1.0584e-06
1.63038e-06
7.88817e-07
1.19886e-06
3.30044e-07
7.72888e-07
-3.38524e-07
3.85389e-07
-1.19958e-06
7.58285e-08
-2.17536e-06
-1.16894e-07
-3.09832e-06
-1.685e-07
-3.67704e-06
-9.56605e-08
-3.46854e-06
-1.85881e-06
4.26658e-08
-1.88004e-06
-2.60958e-08
-3.31186e-06
-2.69198e-07
-3.26348e-06
-6.64172e-07
-2.45141e-06
-1.15389e-06
-1.36475e-06
-1.68399e-06
-2.96677e-07
-2.2114e-06
5.97964e-07
-2.70525e-06
1.25153e-06
-3.14951e-06
1.65966e-06
-3.53682e-06
1.85596e-06
-3.86534e-06
1.88846e-06
-4.13914e-06
1.80786e-06
-4.36697e-06
1.66273e-06
-4.55931e-06
1.49422e-06
-4.72534e-06
1.33054e-06
-4.87037e-06
1.18503e-06
-4.99529e-06
1.06115e-06
-5.09857e-06
9.59948e-07
-5.17898e-06
8.83507e-07
-5.23677e-06
8.33473e-07
-5.27311e-06
8.08542e-07
-5.28877e-06
8.03385e-07
-5.28316e-06
8.09979e-07
-5.255e-06
8.20719e-07
-5.20376e-06
8.3076e-07
-5.13114e-06
8.37346e-07
-5.04087e-06
8.36866e-07
-4.93702e-06
8.21468e-07
-4.82158e-06
7.78297e-07
-4.6919e-06
6.89781e-07
-4.53921e-06
5.37526e-07
-4.34924e-06
3.08551e-07
-4.10549e-06
1.91511e-09
-3.79442e-06
-3.67257e-07
-3.4097e-06
-7.70404e-07
-2.95303e-06
-1.17362e-06
-2.43245e-06
-1.54508e-06
-1.86013e-06
-1.85862e-06
-1.25046e-06
-2.09469e-06
-6.18628e-07
-2.24052e-06
2.0063e-08
-2.2889e-06
6.50196e-07
-2.23729e-06
1.25658e-06
-2.08857e-06
1.824e-06
-1.84991e-06
2.33762e-06
-1.5339e-06
2.78444e-06
-1.16037e-06
3.15598e-06
-7.57202e-07
3.45169e-06
-3.59717e-07
3.68079e-06
-4.80523e-09
3.85966e-06
2.79862e-07
4.00606e-06
4.83156e-07
4.13413e-06
6.10317e-07
4.25161e-06
6.77548e-07
4.35998e-06
7.04681e-07
4.45638e-06
7.09791e-07
4.53598e-06
7.06276e-07
4.59432e-06
7.02042e-07
4.62873e-06
7.00949e-07
4.63872e-06
7.05608e-07
4.62455e-06
7.2016e-07
4.58577e-06
7.4999e-07
4.52142e-06
7.9913e-07
4.43104e-06
8.68171e-07
4.31583e-06
9.5381e-07
4.17869e-06
1.05021e-06
4.02261e-06
1.1518e-06
3.84736e-06
1.25475e-06
3.6472e-06
1.3534e-06
3.41165e-06
1.43254e-06
3.12934e-06
1.46171e-06
2.79228e-06
1.39594e-06
2.39879e-06
1.18283e-06
1.95546e-06
7.73717e-07
1.47898e-06
1.37881e-07
9.9825e-07
-7.19249e-07
5.55298e-07
-1.73306e-06
2.02944e-07
-2.74661e-06
-5.65861e-09
-3.46823e-06
-4.95517e-08
-3.42464e-06
-1.90899e-06
-2.68901e-08
-1.85307e-06
-2.62074e-07
-3.07613e-06
-7.07294e-07
-2.81747e-06
-1.28416e-06
-1.87453e-06
-1.9009e-06
-7.47253e-07
-2.49442e-06
2.97072e-07
-3.02596e-06
1.12931e-06
-3.47767e-06
1.70392e-06
-3.84732e-06
2.02978e-06
-4.13874e-06
2.1473e-06
-4.35955e-06
2.10896e-06
-4.5214e-06
1.96939e-06
-4.63952e-06
1.78045e-06
-4.73038e-06
1.5846e-06
-4.80792e-06
1.40764e-06
-4.87881e-06
1.25558e-06
-4.9414e-06
1.12347e-06
-4.99028e-06
1.00855e-06
-5.0217e-06
9.14629e-07
-5.03549e-06
8.46901e-07
-5.03353e-06
8.06154e-07
-5.01693e-06
7.86321e-07
-4.98395e-06
7.76629e-07
-4.93116e-06
7.67555e-07
-4.85652e-06
7.55705e-07
-4.76234e-06
7.42691e-07
-4.65517e-06
7.29234e-07
-4.54323e-06
7.0912e-07
-4.43242e-06
6.67133e-07
-4.32239e-06
5.79455e-07
-4.20367e-06
4.18579e-07
-4.05769e-06
1.6243e-07
-3.86148e-06
-1.94383e-07
-3.59609e-06
-6.32654e-07
-3.25349e-06
-1.11296e-06
-2.83666e-06
-1.59037e-06
-2.35579e-06
-2.02585e-06
-1.82474e-06
-2.38954e-06
-1.25844e-06
-2.66082e-06
-6.7138e-07
-2.8274e-06
-7.75084e-08
-2.88256e-06
5.09529e-07
-2.82408e-06
1.07623e-06
-2.65499e-06
1.60818e-06
-2.38156e-06
2.08945e-06
-2.01484e-06
2.50429e-06
-1.57484e-06
2.8408e-06
-1.09331e-06
3.09719e-06
-6.15682e-07
3.28622e-06
-1.93381e-07
3.43124e-06
1.35308e-07
3.55676e-06
3.58088e-07
3.68014e-06
4.87361e-07
3.80875e-06
5.49325e-07
3.94115e-06
5.72604e-07
4.07043e-06
5.80737e-07
4.18788e-06
5.88982e-07
4.28633e-06
6.0371e-07
4.36253e-06
6.24864e-07
4.41711e-06
6.51137e-07
4.45182e-06
6.85623e-07
4.46657e-06
7.35433e-07
4.45965e-06
8.06224e-07
4.42988e-06
8.98028e-07
4.37914e-06
1.00453e-06
4.31321e-06
1.11603e-06
4.23918e-06
1.22569e-06
4.1592e-06
1.33457e-06
4.06538e-06
1.44713e-06
3.94059e-06
1.55732e-06
3.76445e-06
1.63793e-06
3.51947e-06
1.6411e-06
3.19404e-06
1.50838e-06
2.78384e-06
1.1837e-06
2.29383e-06
6.27203e-07
1.74252e-06
-1.68729e-07
1.16796e-06
-1.15913e-06
6.3404e-07
-2.21297e-06
2.26924e-07
-3.06068e-06
1.84724e-08
-3.2168e-06
-1.891e-06
-1.37175e-07
-1.71564e-06
-6.09383e-07
-2.60336e-06
-1.31439e-06
-2.11173e-06
-2.09548e-06
-1.09364e-06
-2.82525e-06
-1.68133e-08
-3.44019e-06
9.12054e-07
-3.91909e-06
1.60856e-06
-4.26768e-06
2.05429e-06
-4.50345e-06
2.26743e-06
-4.64378e-06
2.28926e-06
-4.70609e-06
2.17289e-06
-4.70944e-06
1.97426e-06
-4.67515e-06
1.74742e-06
-4.62676e-06
1.5371e-06
-4.58463e-06
1.36619e-06
-4.55686e-06
1.22838e-06
-4.53676e-06
1.10386e-06
-4.51221e-06
9.84386e-07
-4.4761e-06
8.78811e-07
-4.42878e-06
7.99768e-07
-4.37446e-06
7.51933e-07
-4.3158e-06
7.27627e-07
-4.24961e-06
7.10428e-07
-4.1686e-06
6.86513e-07
-4.06767e-06
6.54678e-07
-3.94955e-06
6.24345e-07
-3.82466e-06
6.04046e-07
-3.70706e-06
5.9119e-07
-3.60864e-06
5.68347e-07
-3.53321e-06
5.03632e-07
-3.47144e-06
3.56408e-07
-3.39947e-06
9.00414e-08
-3.28485e-06
-3.09447e-07
-3.10102e-06
-8.16964e-07
-2.83879e-06
-1.37573e-06
-2.5045e-06
-1.92529e-06
-2.11158e-06
-2.41947e-06
-1.6756e-06
-2.82629e-06
-1.21118e-06
-3.12611e-06
-7.30177e-07
-3.30935e-06
-2.43056e-07
-3.37066e-06
2.40337e-07
-3.30848e-06
7.10725e-07
-3.12643e-06
1.15667e-06
-2.82857e-06
1.56207e-06
-2.42131e-06
1.90768e-06
-1.92153e-06
2.17559e-06
-1.36228e-06
2.36042e-06
-8.01551e-07
2.47949e-06
-3.13475e-07
2.56643e-06
4.73759e-08
2.65494e-06
2.68598e-07
2.76597e-06
3.75343e-07
2.90486e-06
4.09465e-07
3.06512e-06
4.11399e-07
3.23404e-06
4.10841e-07
3.39775e-06
4.24315e-07
3.54553e-06
4.55015e-07
3.67372e-06
4.95835e-07
3.78568e-06
5.38501e-07
3.88597e-06
5.84817e-07
3.9747e-06
6.46313e-07
4.04804e-06
7.32587e-07
4.10247e-06
8.43313e-07
4.13973e-06
9.66959e-07
4.16945e-06
1.08599e-06
4.20589e-06
1.18901e-06
4.25651e-06
1.28384e-06
4.31146e-06
1.39225e-06
4.34503e-06
1.524e-06
4.32594e-06
1.65734e-06
4.22634e-06
1.74109e-06
4.02421e-06
1.71083e-06
3.70258e-06
1.50539e-06
3.24988e-06
1.07968e-06
2.66525e-06
4.1597e-07
1.9711e-06
-4.64338e-07
1.23279e-06
-1.47371e-06
5.6888e-07
-2.39583e-06
1.24689e-07
-2.77291e-06
-1.76504e-06
-3.16877e-07
-1.39853e-06
-1.12998e-06
-1.79023e-06
-2.16541e-06
-1.07582e-06
-3.16323e-06
-9.5846e-08
-3.97035e-06
7.91392e-07
-4.54067e-06
1.48254e-06
-4.89125e-06
1.95903e-06
-5.06509e-06
2.22847e-06
-5.10352e-06
2.30622e-06
-5.03778e-06
2.22387e-06
-4.89378e-06
2.02949e-06
-4.69548e-06
1.7768e-06
-4.46841e-06
1.52119e-06
-4.24386e-06
1.31328e-06
-4.05208e-06
1.17506e-06
-3.90336e-06
1.08028e-06
-3.78181e-06
9.82862e-07
-3.66411e-06
8.67145e-07
-3.53911e-06
7.54215e-07
-3.40974e-06
6.70758e-07
-3.28553e-06
6.28032e-07
-3.17262e-06
6.14951e-07
-3.06616e-06
6.04156e-07
-2.95221e-06
5.72763e-07
-2.82017e-06
5.22775e-07
-2.67269e-06
4.76906e-07
-2.52533e-06
4.56662e-07
-2.39963e-06
4.6545e-07
-2.31567e-06
4.84285e-07
-2.28444e-06
4.72254e-07
-2.29876e-06
3.70498e-07
-2.32872e-06
1.19688e-07
-2.32873e-06
-3.09844e-07
-2.26125e-06
-8.84921e-07
-2.11797e-06
-1.51955e-06
-1.91243e-06
-2.13147e-06
-1.66269e-06
-2.66984e-06
-1.38539e-06
-3.10423e-06
-1.09323e-06
-3.41898e-06
-7.92434e-07
-3.61093e-06
-4.87148e-07
-3.67677e-06
-1.81115e-07
-3.61537e-06
1.24323e-07
-3.43273e-06
4.24458e-07
-3.12957e-06
7.04777e-07
-2.70247e-06
9.42506e-07
-2.16007e-06
1.10943e-06
-1.52999e-06
1.1916e-06
-8.84492e-07
1.21219e-06
-3.3481e-07
1.21984e-06
3.89893e-08
1.26058e-06
2.27126e-07
1.35804e-06
2.77131e-07
1.51252e-06
2.54281e-07
1.70943e-06
2.13852e-07
1.92864e-06
1.91038e-07
2.14995e-06
2.02559e-07
2.35811e-06
2.46456e-07
2.54944e-06
3.04106e-07
2.73266e-06
3.55015e-07
2.91763e-06
3.99711e-07
3.10452e-06
4.59385e-07
3.285e-06
5.52183e-07