/*--------------------------------*- C++ -*----------------------------------*\
| =========                 |                                                 |
| \\      /  F ield         | OpenFOAM: The Open Source CFD Toolbox           |
|  \\    /   O peration     | Version:  2412                                  |
|   \\  /    A nd           | Website:  www.openfoam.com                      |
|    \\/     M anipulation  |                                                 |
\*---------------------------------------------------------------------------*/
FoamFile
{
    version     2.0;
    format      ascii;
    arch        "LSB;label=32;scalar=64";
    class       volScalarField;
    location    "5.5";
    object      alpha.lava;
}
// * * * * * * * * * * * * * * * * * * * * * * * * * * * * * * * * * * * * * //

dimensions      [0 0 0 0 0 0 0];

internalField   nonuniform List<scalar> 
6400
(
1
0.999996
0.999994
0.999998
1.00001
1.00002
1.00003
1.00002
1
0.999977
0.999966
0.999974
1
1.00003
1.00005
1.00005
1.00002
0.999987
0.999963
0.999959
0.999978
1.00001
1.00004
1.00004
1.00003
1.00001
0.999984
0.99997
0.999972
0.999988
1.00001
1.00002
1.00003
1.00002
1.00001
0.999995
0.999986
0.999985
0.999993
1
1.00001
1.00002
1.00002
1.00001
0.999998
0.999989
0.999986
0.99999
0.999998
1.00001
1.00001
1.00001
0.999999
0.99999
0.999986
0.999988
0.999995
1
1
0.999998
0.99999
0.999984
0.999985
0.999994
1.00001
1.00001
1.00001
0.999994
0.999978
0.999968
0.999973
0.999991
1.00001
1.00002
1.00002
1
0.999979
0.999964
0.999963
0.999984
1.00001
1.00001
1.00001
0.999995
0.999987
0.999992
1.00001
1.00002
1.00004
1.00003
1.00002
0.999996
0.999981
0.999983
1
1.00002
1.00004
1.00004
1.00003
1
0.999984
0.999977
0.999985
1
1.00002
1.00003
1.00002
1.00001
0.99999
0.999979
0.999976
0.999982
0.999992
1
1.00001
1.00001
1
0.999998
0.999992
0.99999
0.999993
0.999999
1.00001
1.00001
1.00002
1.00001
1.00001
0.999999
0.999995
0.999995
1
1
1.00001
1.00001
1
0.999993
0.999989
0.999991
0.999996
1
1
0.999997
0.999988
0.999981
0.999981
0.999989
1
1.00001
1.00001
0.999994
0.999979
0.999969
0.999971
0.999985
1
1.00002
1.00002
1.00001
1
0.999976
0.999998
1.00001
1.00001
1
0.999986
0.99998
0.99999
1.00001
1.00004
1.00005
1.00004
1.00002
0.999989
0.999974
0.999982
1.00001
1.00004
1.00005
1.00005
1.00003
0.999998
0.999978
0.999974
0.999985
1
1.00002
1.00002
1.00001
0.999997
0.999983
0.999974
0.999973
0.999979
0.999987
0.999996
1
1
1
1
0.999996
0.999993
0.999993
0.999999
1.00001
1.00001
1.00002
1.00002
1.00001
1
0.999998
0.999998
1
1.00001
1.00001
1.00001
0.999998
0.999992
0.99999
0.999993
0.999999
1
1
0.99999
0.999978
0.999971
0.999975
0.999989
1
1.00001
1.00001
0.999989
0.999971
0.999963
0.999969
0.999988
1.00001
1.00003
1.00003
1.00001
0.99998
0.999984
1.00002
1.00002
1.00002
1
0.999979
0.999971
0.999986
1.00002
1.00005
1.00006
1.00005
1.00002
0.999982
0.999965
0.999975
1.00001
1.00004
1.00006
1.00005
1.00003
0.999994
0.99997
0.999966
0.99998
1
1.00002
1.00002
1.00001
0.999993
0.999977
0.999968
0.999968
0.999975
0.999985
0.999995
1
1
1
0.999998
0.999994
0.999992
0.999993
1
1.00001
1.00002
1.00002
1.00002
1.00001
1
0.999998
0.999999
1
1.00001
1.00001
1
0.999995
0.999988
0.999988
0.999994
1
1.00001
1
0.999986
0.99997
0.999963
0.99997
0.99999
1.00001
1.00002
1.00001
0.999989
0.999967
0.999957
0.999966
0.999992
1.00002
1.00003
1.00002
0.999994
0.999976
1.00001
1.00002
1.00003
1.00003
1
0.999975
0.999967
0.999983
1.00002
1.00005
1.00007
1.00005
1.00002
0.999981
0.999963
0.999974
1.00001
1.00004
1.00006
1.00005
1.00002
0.99999
0.999968
0.999965
0.999979
0.999997
1.00001
1.00001
1
0.999989
0.999977
0.999971
0.999972
0.999977
0.999984
0.999991
0.999998
1
1
1
0.999999
0.999996
0.999996
1
1.00001
1.00001
1.00002
1.00002
1.00001
1
0.999998
1
1
1.00001
1.00001
1
0.999989
0.999982
0.999984
0.999993
1
1.00001
0.999999
0.999982
0.999964
0.999957
0.999967
0.999989
1.00001
1.00002
1.00001
0.999991
0.999968
0.999959
0.99997
0.999994
1.00002
1.00002
1.00001
0.999978
0.999991
1.00001
1.00003
1.00004
1.00003
1
0.999972
0.999961
0.999979
1.00002
1.00006
1.00007
1.00006
1.00002
0.999982
0.999963
0.999971
1
1.00003
1.00005
1.00004
1.00002
0.999989
0.999969
0.999965
0.999976
0.999991
1
1
0.999998
0.999989
0.99998
0.999975
0.999975
0.999977
0.999981
0.999988
0.999996
1
1.00001
1.00001
1
0.999998
0.999996
0.999999
1.00001
1.00001
1.00002
1.00002
1.00001
1
0.999998
1
1.00001
1.00001
1.00001
0.999997
0.999985
0.999979
0.999982
0.999994
1.00001
1.00001
1
0.999982
0.999962
0.999955
0.999966
0.99999
1.00001
1.00003
1.00002
0.999993
0.99997
0.999962
0.999973
0.999996
1.00001
1.00003
0.999994
0.999978
0.999984
1.00001
1.00004
1.00005
1.00004
1
0.999969
0.999957
0.999976
1.00002
1.00006
1.00007
1.00006
1.00002
0.999982
0.999961
0.999969
0.999998
1.00003
1.00004
1.00004
1.00001
0.999988
0.999971
0.999967
0.999976
0.999988
0.999997
0.999998
0.999994
0.999988
0.999983
0.99998
0.999978
0.999978
0.99998
0.999986
0.999994
1
1.00001
1.00001
1
0.999998
0.999995
0.999997
1
1.00001
1.00001
1.00001
1
0.999998
0.999996
1
1.00001
1.00001
1.00001
0.999993
0.99998
0.999974
0.999979
0.999994
1.00001
1.00001
1
0.999982
0.99996
0.999953
0.999965
0.999991
1.00002
1.00003
1.00002
0.999994
0.999972
0.999966
0.999979
0.999998
1.00003
1.00002
0.999977
0.999971
0.99998
1.00001
1.00005
1.00006
1.00004
1.00001
0.999968
0.999955
0.999974
1.00002
1.00006
1.00007
1.00006
1.00002
0.999979
0.99996
0.999967
0.999994
1.00002
1.00004
1.00003
1.00001
0.999986
0.999972
0.99997
0.999977
0.999986
0.999992
0.999993
0.999991
0.999988
0.999986
0.999985
0.999983
0.999982
0.999982
0.999986
0.999993
1
1.00001
1.00001
1
0.999999
0.999995
0.999997
1
1.00001
1.00001
1.00001
1
0.999995
0.999995
1
1.00001
1.00001
1
0.999991
0.999976
0.99997
0.999978
0.999996
1.00001
1.00002
1.00001
0.999983
0.99996
0.999953
0.999966
0.999993
1.00002
1.00003
1.00002
0.999993
0.999975
0.999974
0.999988
1.00002
1.00003
0.999991
0.999975
0.999963
0.999979
1.00002
1.00005
1.00007
1.00005
1.00001
0.999967
0.999953
0.999972
1.00001
1.00005
1.00007
1.00005
1.00001
0.999977
0.99996
0.999968
0.999993
1.00002
1.00003
1.00002
1
0.999986
0.999975
0.999975
0.99998
0.999986
0.999988
0.999988
0.999987
0.999987
0.999988
0.999989
0.999987
0.999984
0.999983
0.999985
0.999991
0.999999
1
1.00001
1
0.999998
0.999996
0.999997
1
1.00001
1.00001
1
0.999997
0.999993
0.999995
1
1.00001
1.00001
1.00001
0.999989
0.999973
0.999967
0.999977
0.999998
1.00002
1.00002
1.00001
0.999984
0.999961
0.999954
0.999968
0.999995
1.00002
1.00003
1.00001
0.999994
0.999981
0.999986
1.00001
1.00003
1.00001
0.999997
0.99997
0.99996
0.99998
1.00002
1.00006
1.00007
1.00005
1
0.999965
0.999952
0.999971
1.00001
1.00005
1.00006
1.00004
1.00001
0.999977
0.999963
0.999971
0.999992
1.00001
1.00002
1.00001
1
0.999986
0.999979
0.999979
0.999983
0.999985
0.999985
0.999984
0.999984
0.999987
0.99999
0.999992
0.999991
0.999987
0.999984
0.999985
0.99999
0.999997
1
1
1
0.999998
0.999997
0.999999
1
1.00001
1.00001
1
0.999994
0.99999
0.999995
1.00001
1.00002
1.00002
1.00001
0.999987
0.999969
0.999965
0.999977
1
1.00002
1.00003
1.00001
0.999986
0.999963
0.999958
0.999972
0.999998
1.00002
1.00002
1.00001
0.999997
0.999992
0.999994
1.00001
1.00003
1.00003
1
0.999969
0.999959
0.99998
1.00002
1.00006
1.00007
1.00005
1
0.999965
0.999952
0.99997
1.00001
1.00004
1.00005
1.00004
1.00001
0.999977
0.999966
0.999974
0.999993
1.00001
1.00002
1.00001
0.999997
0.999987
0.999983
0.999985
0.999987
0.999987
0.999985
0.999983
0.999984
0.999988
0.999993
0.999996
0.999995
0.99999
0.999986
0.999986
0.99999
0.999997
1
1
1
0.999999
0.999998
1
1.00001
1.00001
1.00001
0.999998
0.99999
0.999988
0.999995
1.00001
1.00002
1.00002
1.00001
0.999985
0.999967
0.999963
0.999977
1
1.00002
1.00003
1.00001
0.999987
0.999966
0.999962
0.999977
1
1.00002
1.00002
1.00001
1
0.999989
0.999978
1.00004
1.00004
1.00004
1
0.999966
0.999957
0.999979
1.00002
1.00006
1.00007
1.00005
1
0.999966
0.999955
0.999972
1.00001
1.00004
1.00004
1.00003
1
0.999978
0.99997
0.999978
0.999995
1.00001
1.00001
1
0.999994
0.999988
0.999986
0.999989
0.99999
0.999989
0.999986
0.999983
0.999984
0.999989
0.999994
0.999997
0.999996
0.999991
0.999988
0.999987
0.999991
0.999996
1
1
0.999999
0.999998
0.999999
1
1.00001
1.00001
1
0.999994
0.999986
0.999985
0.999994
1.00001
1.00002
1.00002
1.00001
0.999984
0.999966
0.999963
0.999978
1
1.00002
1.00003
1.00001
0.999988
0.999969
0.999967
0.999981
1
1.00002
1.00002
1.00001
0.999991
0.999956
1.00002
1.00004
1.00006
1.00004
0.999999
0.999966
0.999958
0.99998
1.00002
1.00005
1.00006
1.00004
1
0.999968
0.999958
0.999974
1
1.00003
1.00004
1.00002
0.999999
0.99998
0.999975
0.999983
0.999997
1.00001
1.00001
1
0.999992
0.999987
0.999988
0.999991
0.999993
0.99999
0.999986
0.999983
0.999984
0.999988
0.999993
0.999996
0.999995
0.999992
0.99999
0.99999
0.999994
0.999998
1
1
0.999999
0.999998
1
1.00001
1.00001
1.00001
1
0.999993
0.999984
0.999984
0.999994
1.00001
1.00002
1.00002
1.00001
0.999985
0.999967
0.999965
0.999979
1
1.00002
1.00002
1.00001
0.999989
0.999974
0.999973
0.999986
1
1.00001
1.00001
0.999999
0.999956
0.999994
1.00002
1.00005
1.00006
1.00004
0.999999
0.999968
0.99996
0.99998
1.00002
1.00005
1.00006
1.00004
1
0.999971
0.999962
0.999977
1
1.00002
1.00003
1.00002
0.999997
0.999983
0.999981
0.999989
0.999999
1.00001
1
0.999996
0.999989
0.999987
0.99999
0.999993
0.999994
0.999992
0.999987
0.999983
0.999983
0.999987
0.999992
0.999995
0.999995
0.999994
0.999994
0.999995
0.999999
1
1
1
0.999998
0.999998
1
1.00001
1.00002
1.00002
1.00001
0.999994
0.999984
0.999984
0.999994
1.00001
1.00002
1.00002
1.00001
0.999986
0.99997
0.999967
0.99998
1
1.00002
1.00002
1.00001
0.999991
0.999979
0.99998
0.999991
1
1.00001
1.00001
0.999978
0.999975
0.999989
1.00002
1.00004
1.00005
1.00004
1
0.99997
0.999961
0.999979
1.00001
1.00004
1.00005
1.00003
0.999999
0.999974
0.999968
0.999981
1
1.00002
1.00002
1.00001
0.999996
0.999986
0.999986
0.999993
1
1
1
0.999993
0.999988
0.999988
0.999991
0.999995
0.999996
0.999993
0.999988
0.999985
0.999985
0.999988
0.999992
0.999996
0.999997
0.999997
0.999998
1
1
1
1
0.999999
0.999996
0.999997
1
1.00001
1.00002
1.00002
1.00001
0.999994
0.999984
0.999983
0.999994
1.00001
1.00002
1.00002
1.00001
0.999989
0.999974
0.999972
0.999984
1
1.00002
1.00002
1.00001
0.999993
0.999985
0.999987
0.999996
1
1.00001
1.00001
0.999974
0.999971
0.999983
1.00001
1.00004
1.00005
1.00003
0.999998
0.99997
0.999962
0.999978
1.00001
1.00003
1.00004
1.00002
0.999997
0.999978
0.999974
0.999985
1
1.00001
1.00002
1.00001
0.999996
0.99999
0.999991
0.999997
1
1
1
0.999994
0.99999
0.999991
0.999994
0.999998
0.999999
0.999997
0.999993
0.99999
0.99999
0.999993
0.999996
0.999999
1
1
1
1.00001
1.00001
1.00001
1
0.999999
0.999996
0.999997
1
1.00001
1.00002
1.00002
1.00001
0.999996
0.999986
0.999985
0.999994
1.00001
1.00002
1.00002
1.00001
0.999994
0.999982
0.99998
0.99999
1
1.00001
1.00002
1.00001
0.999998
0.999993
0.999995
1
1.00001
1.00003
0.999987
0.999972
0.999961
0.999978
1.00001
1.00003
1.00003
1.00002
0.999993
0.99997
0.999964
0.999977
1
1.00002
1.00002
1.00001
0.999995
0.999981
0.999979
0.999988
1
1.00001
1.00001
1.00001
0.999998
0.999994
0.999996
1
1.00001
1.00001
1
0.999998
0.999996
0.999997
1
1
1
1
1
0.999998
0.999998
0.999999
1
1
1
1
1.00001
1.00001
1.00001
1.00001
1.00001
1
0.999996
0.999997
1
1.00001
1.00002
1.00002
1.00001
0.999999
0.999989
0.999988
0.999997
1.00001
1.00002
1.00002
1.00002
1
0.999992
0.999991
0.999998
1.00001
1.00002
1.00002
1.00001
1
1
1
1.00001
1.00003
1
0.999984
0.999963
0.999958
0.99997
0.999992
1.00001
1.00002
1.00001
0.999987
0.999969
0.999963
0.999973
0.999992
1.00001
1.00001
1.00001
0.999994
0.999985
0.999984
0.999991
1
1.00001
1.00001
1.00001
1
1
1
1.00001
1.00001
1.00001
1.00001
1.00001
1.00001
1.00001
1.00001
1.00001
1.00001
1.00001
1.00001
1.00001
1.00001
1.00001
1.00001
1.00001
1.00001
1.00001
1.00001
1.00001
1.00001
1.00001
1.00001
1
0.999997
0.999998
1
1.00001
1.00002
1.00002
1.00002
1.00001
0.999997
0.999997
1
1.00002
1.00003
1.00003
1.00002
1.00001
1.00001
1
1.00001
1.00002
1.00002
1.00002
1.00002
1.00001
1.00001
1.00001
1.00001
1
0.999991
0.999976
0.999964
0.99996
0.999968
0.999983
0.999998
1
0.999997
0.999983
0.999972
0.999969
0.999976
0.99999
1
1.00001
1
0.999995
0.99999
0.999991
0.999997
1
1.00001
1.00001
1.00001
1.00001
1.00001
1.00001
1.00001
1.00002
1.00002
1.00002
1.00002
1.00001
1.00001
1.00002
1.00002
1.00002
1.00002
1.00002
1.00001
1.00001
1.00001
1.00001
1.00001
1.00001
1.00001
1.00001
1.00001
1.00001
1.00001
1.00001
1
0.999999
1
1.00001
1.00002
1.00002
1.00002
1.00002
1.00001
1.00001
1.00001
1.00001
1.00002
1.00003
1.00003
1.00003
1.00002
1.00002
1.00001
1.00002
1.00002
1.00002
1.00002
1.00002
1.00002
1.00001
0.999828
0.999749
0.999763
0.999818
0.99982
0.999725
0.999675
0.999753
0.999815
0.999721
0.999676
0.99976
0.999831
0.999727
0.999677
0.99976
0.999854
0.999772
0.999731
0.999797
0.999882
0.999809
0.99977
0.999823
0.99991
0.999863
0.999831
0.999863
0.99993
0.999901
0.999874
0.99989
0.999941
0.999938
0.999916
0.99991
0.999933
0.999955
0.999934
0.999919
0.999922
0.999947
0.999947
0.999919
0.9999
0.999915
0.999937
0.999902
0.999872
0.999886
0.999928
0.999898
0.999865
0.999878
0.999929
0.999896
0.999853
0.999865
0.999926
0.999899
0.999857
0.99987
0.999932
0.999902
0.999855
0.999867
0.999931
0.999911
0.999878
0.999895
0.999948
0.999926
0.999903
0.999922
0.999961
0.999944
0.999942
0.999962
0.999967
0.999969
0.000146138
0.000222221
0.000211235
0.000157862
0.000149828
0.000233412
0.000270535
0.000183817
0.000119347
0.000217251
0.000268826
0.000190286
0.00011997
0.000220831
0.000267069
0.00018383
9.38928e-05
0.000182745
0.000232363
0.000173012
9.13581e-05
0.000166176
0.000207342
0.000158053
7.74349e-05
0.000132066
0.000170518
0.000143856
7.90998e-05
0.000110653
0.00014038
0.000128763
8.22243e-05
8.84058e-05
0.000113444
0.000119714
9.50258e-05
7.15937e-05
9.12603e-05
0.000105179
0.000100812
7.34313e-05
7.14684e-05
9.66459e-05
0.000112958
9.5013e-05
7.01198e-05
0.000101806
0.000128385
0.000113288
7.11272e-05
0.00010316
0.00013943
0.000129463
8.06404e-05
0.000113603
0.000155836
0.000143192
8.3083e-05
0.000114135
0.00016231
0.000155767
9.76223e-05
0.00012948
0.000175065
0.000160952
9.49803e-05
0.000116016
0.000150896
0.000135893
8.27553e-05
0.000103429
0.000122888
9.96463e-05
5.80091e-05
7.17996e-05
7.25722e-05
5.27852e-05
5.14467e-05
4.64987e-05
9.55064e-20
7.95755e-20
1.74984e-14
2.53038e-14
9.42964e-19
4.94434e-19
1.10776e-18
9.52286e-19
2.93544e-19
9.1366e-19
6.30853e-14
5.18148e-14
1.42274e-18
8.07731e-19
1.78168e-18
7.57061e-19
3.5987e-19
8.41073e-19
4.64751e-14
3.68193e-14
6.67466e-19
2.90975e-19
7.68213e-19
1.75115e-19
9.75073e-20
3.00553e-19
1.62287e-14
1.56662e-14
-2.60579e-20
1.72194e-20
7.64027e-20
2.14215e-20
2.9631e-24
2.14215e-20
1.989e-15
4.44999e-15
2.47415e-15
6.88769e-17
1.71533e-26
3.29916e-21
2.59383e-21
5.054e-52
1.79418e-21
-1.39019e-20
3.50052e-15
3.19389e-15
-1.49162e-30
-1.58215e-20
2.52459e-41
2.5929e-20
9.09727e-22
3.02575e-20
5.57112e-15
9.14738e-15
5.72186e-20
9.76772e-20
9.76772e-20
7.24636e-20
1.2025e-20
2.18862e-20
6.55259e-15
1.14737e-14
9.70051e-20
1.38902e-19
1.21593e-19
4.58562e-20
8.59189e-21
4.16983e-20
3.51321e-15
4.10297e-15
1.70342e-20
1.86086e-20
1.83538e-20
4.45254e-21
4.17859e-25
1.79303e-20
1.99712e-16
1.90257e-22
1.37372e-22
1.67692e-23
4.18113e-20
1.12443e-20
2.93672e-19
4.64461e-19
2.2156e-19
4.94433e-19
2.01948e-18
5.80376e-19
4.60059e-20
4.10638e-20
1.24048e-18
9.31094e-19
2.53151e-19
8.07713e-19
1.97427e-18
3.5619e-19
6.19065e-20
2.72471e-20
7.61302e-19
5.05702e-19
1.33441e-19
2.90958e-19
6.09814e-19
7.75817e-22
1.23119e-20
1.93595e-21
1.31344e-19
1.18005e-19
3.89678e-21
1.7217e-20
4.45565e-20
1.46923e-24
-5.87755e-40
2.40344e-30
6.75309e-26
2.05012e-21
-5.36241e-25
-2.87251e-21
-8.86403e-32
3.37223e-31
-1.80281e-50
-3.29768e-22
6.93626e-21
-1.96849e-25
-2.83804e-21
3.48721e-21
-2.26999e-22
1.04519e-20
1.62896e-20
1.31585e-21
9.08336e-22
1.12487e-21
3.01797e-21
6.49068e-20
4.93165e-21
9.97816e-20
1.05827e-19
6.71107e-20
1.20225e-20
1.56222e-25
-4.2818e-22
1.10673e-19
1.38543e-20
1.08213e-19
1.41591e-19
8.5301e-20
8.58983e-21
1.18423e-21
2.6756e-20
3.37768e-20
3.07949e-21
8.67531e-21
2.31921e-20
5.65754e-21
3.36286e-25
-1.72979e-24
9.92892e-22
4.39117e-23
8.39216e-23
1.63495e-23
5.27346e-25
2.07607e-26
1.58838e-24
3.29821e-24
3.81478e-25
1.0459e-24
2.07701e-23
1.2482e-23
3.9195e-26
5.0566e-27
2.19296e-26
7.32085e-24
8.64828e-25
1.15248e-24
1.19646e-23
8.55307e-24
5.36563e-26
1.7441e-27
-2.49689e-25
1.87263e-24
-1.37125e-25
6.7961e-29
1.47185e-28
5.09384e-25
4.90353e-27
2.27112e-31
-7.65443e-26
-1.44635e-28
-2.37228e-25
-3.65805e-30
-5.01444e-26
-1.30101e-29
-5.68473e-26
2.28143e-45
-1.43756e-36
-5.58367e-31
-4.79505e-26
2.65543e-38
1.1609e-33
-2.27996e-31
-2.90774e-27
-1.06933e-31
2.62088e-34
-2.47274e-26
-4.42462e-31
-4.60424e-27
-6.17021e-32
-4.2122e-25
-1.31026e-28
-3.78782e-26
-2.42983e-30
1.23271e-27
-2.39812e-29
-2.26437e-25
-3.48124e-30
-9.46846e-26
-5.01188e-28
-1.60924e-25
4.46469e-26
9.87452e-26
3.87391e-28
-1.21032e-25
1.06361e-25
5.44129e-26
6.87055e-25
9.34326e-25
5.92824e-26
1.90292e-26
1.1132e-25
2.05789e-25
2.60325e-26
2.53777e-26
2.37987e-25
7.53747e-26
1.33687e-25
6.11194e-27
1.18318e-26
9.38239e-27
3.86666e-27
1.33528e-25
5.52796e-24
2.07488e-26
5.34064e-26
2.32744e-26
1.46239e-26
2.87532e-27
3.6024e-26
5.29725e-26
6.9223e-27
5.0573e-27
4.13602e-26
4.35104e-26
6.24297e-27
1.96539e-27
1.37606e-26
2.87372e-26
2.47947e-27
1.75133e-27
7.90029e-27
1.00313e-26
1.23443e-27
6.74894e-29
1.41181e-28
1.48659e-27
1.31294e-28
4.05315e-30
-1.13948e-30
8.07009e-37
1.27531e-30
3.58291e-38
1.00968e-38
5.54838e-38
4.33244e-33
1.43109e-32
2.10757e-39
1.05368e-39
8.75343e-34
5.09162e-33
2.3249e-33
7.2218e-38
1.27353e-44
2.27191e-44
5.65478e-33
1.32508e-32
1.22392e-37
2.1747e-31
6.02334e-31
8.39581e-31
5.19747e-35
3.04209e-32
1.57356e-30
-3.88422e-30
-9.34187e-33
6.09706e-30
8.42448e-29
1.24322e-29
-4.55541e-30
2.8895e-28
5.87366e-28
8.10014e-29
4.36073e-28
3.04568e-27
1.56518e-27
2.77575e-28
1.37359e-27
5.06441e-27
1.63678e-27
3.80189e-28
2.72278e-27
3.41052e-27
5.74857e-28
1.91153e-28
1.15793e-27
7.24013e-28
5.39301e-29
1.7896e-28
1.5945e-28
1.17246e-29
1.83277e-29
9.79001e-29
2.56385e-27
1.00145e-29
1.70968e-29
6.76052e-31
1.03083e-30
2.10118e-31
3.13301e-30
1.04117e-30
2.77178e-31
3.99101e-31
4.63396e-30
5.89474e-31
2.74233e-31
1.5173e-31
1.0488e-30
1.84764e-31
6.40776e-32
4.52948e-32
4.6102e-31
1.14082e-31
2.20279e-32
4.12408e-33
1.15083e-32
5.08381e-33
9.89919e-35
7.54284e-36
-3.76323e-37
8.61252e-39
1.01461e-38
1.18726e-38
1.34845e-38
1.4289e-38
1.41689e-38
1.31703e-38
1.11085e-38
8.38152e-39
5.53333e-39
3.19778e-39
1.44888e-39
4.59105e-40
7.89686e-41
2.44166e-44
9.06183e-42
1.14344e-38
1.05783e-37
3.69956e-37
8.49461e-37
1.475e-36
2.12033e-36
2.49881e-36
2.45165e-36
3.15818e-36
3.45071e-36
4.39633e-36
2.5533e-35
8.37583e-35
-1.51537e-34
9.90092e-33
5.56462e-33
6.41321e-34
2.04622e-32
1.29244e-31
2.61058e-32
7.9798e-33
3.37122e-32
9.57084e-32
2.72283e-32
2.25655e-32
6.55547e-32
3.76155e-32
6.51205e-33
6.7979e-33
1.853e-32
9.05183e-33
5.81375e-34
3.3849e-33
2.00176e-33
1.11507e-34
6.28082e-34
2.79866e-33
1.36504e-33
6.1311e-36
1.45897e-35
1.89484e-36
2.52379e-36
2.71903e-37
3.98007e-36
3.58873e-36
7.60896e-37
2.69558e-37
2.99536e-36
2.54766e-36
5.31098e-37
1.1352e-37
5.40793e-37
8.64718e-37
1.01017e-37
2.15949e-38
1.43069e-37
7.61257e-38
9.30307e-39
9.52441e-41
1.19024e-40
2.76214e-41
7.50905e-44
5.11958e-45
4.00782e-45
5.73785e-45
7.48564e-45
9.04807e-45
1.0111e-44
1.04626e-44
1.0177e-44
9.31182e-45
7.70527e-45
5.6438e-45
3.54086e-45
1.92385e-45
8.36804e-46
2.5975e-46
4.3221e-47
1.09707e-50
4.13301e-49
2.72117e-47
3.72004e-44
2.67625e-43
8.95327e-43
1.97752e-42
3.32609e-42
4.31757e-42
4.41843e-42
3.61323e-42
2.32275e-42
1.16155e-42
4.06934e-43
1.19469e-43
-9.10854e-40
1.24736e-40
1.67501e-39
6.77933e-40
1.08182e-38
5.4062e-38
4.09246e-38
1.27727e-38
7.45532e-38
2.48943e-37
9.63595e-38
2.99707e-38
2.0013e-37
2.7701e-37
5.44071e-38
2.25977e-38
1.21791e-37
8.05589e-38
6.00193e-39
1.80336e-38
1.77849e-38
1.31957e-39
1.71158e-39
2.86527e-39
1.03102e-38
7.5964e-41
1.69958e-40
3.01144e-41
4.60847e-41
2.85579e-42
6.99248e-41
5.95173e-41
1.15715e-41
3.25893e-42
4.33608e-41
3.94603e-41
7.14139e-42
1.71554e-42
6.84739e-42
1.03267e-41
1.01049e-42
2.54313e-43
1.31648e-42
5.70061e-43
4.51775e-44
1.20041e-46
1.3285e-46
2.82669e-47
2.28508e-50
3.6139e-51
4.01673e-51
5.56017e-51
6.99386e-51
8.12035e-51
8.68064e-51
8.53129e-51
7.87602e-51
6.84786e-51
5.38437e-51
3.75357e-51
2.24169e-51
1.14566e-51
4.67541e-52
1.39225e-52
2.25794e-53
5.61716e-57
1.98284e-55
1.93638e-54
4.89762e-51
1.30153e-49
7.26065e-49
2.15752e-48
4.37549e-48
6.40206e-48
6.95781e-48
5.7537e-48
3.64319e-48
1.75605e-48
5.9303e-49
1.07714e-49
-6.92722e-45
1.82292e-46
7.18155e-45
2.56297e-45
8.60244e-44
4.30041e-43
3.83364e-43
1.29753e-43
8.85839e-43
3.11539e-42
1.20357e-42
3.5142e-43
2.82817e-42
4.16502e-42
8.43375e-43
3.56728e-43
2.01567e-42
1.32573e-42
9.58952e-44
2.77725e-43
2.88274e-43
2.25318e-44
2.47635e-44
2.39125e-44
2.59028e-43
8.4017e-46
3.39102e-45
6.80127e-46
1.02705e-45
9.82876e-47
1.60128e-45
1.26283e-45
2.35006e-46
7.88828e-47
8.63283e-46
7.72106e-46
1.29077e-46
3.27414e-47
1.11099e-46
1.57135e-46
1.38607e-47
3.59624e-48
1.58187e-47
5.77066e-48
3.35904e-49
7.13276e-52
5.69166e-52
5.76081e-53
2.38348e-56
3.40313e-57
4.75216e-57
6.33413e-57
7.63512e-57
8.43966e-57
8.54675e-57
7.91822e-57
6.85102e-57
5.56519e-57
4.0853e-57
2.64864e-57
1.47338e-57
7.00564e-58
2.64167e-58
7.31141e-59
1.12397e-59
2.94893e-63
1.07012e-61
6.54496e-61
7.248e-60
2.53599e-56
3.60746e-55
1.66502e-54
4.40682e-54
7.73835e-54
9.45839e-54
8.31802e-54
5.45107e-54
2.62981e-54
8.66597e-55
1.47209e-55
-5.24852e-50
7.0116e-52
4.32868e-50
1.69005e-50
8.57074e-49
4.61765e-48
4.65245e-48
1.68209e-48
1.32697e-47
4.85728e-47
1.95454e-47
5.51533e-48
4.99817e-47
7.71363e-47
1.62189e-47
7.06189e-48
4.15065e-47
2.70793e-47
1.88929e-48
5.35867e-48
5.8283e-48
4.74417e-49
5.05066e-49
4.24386e-49
4.09957e-48
1.60766e-50
7.88818e-50
1.74445e-50
2.72558e-50
1.67974e-51
4.0192e-50
3.12902e-50
5.51044e-51
1.79244e-51
1.95964e-50
1.75055e-50
2.76649e-51
7.18208e-52
2.11324e-51
2.83763e-51
2.31296e-52
5.99571e-53
2.24781e-52
6.99855e-53
3.16206e-54
5.51589e-57
3.11461e-57
1.65147e-58
2.90005e-62
4.23883e-63
6.16539e-63
7.83335e-63
8.94568e-63
9.31807e-63
8.82865e-63
7.61282e-63
6.10761e-63
4.59914e-63
3.13633e-63
1.88559e-63
9.7401e-64
4.32269e-64
1.52399e-64
3.95265e-65
5.7533e-66
1.65212e-69
6.36903e-68
3.97948e-67
1.79612e-66
7.82422e-64
1.1009e-61
9.2553e-61
3.4651e-60
7.72893e-60
1.11285e-59
1.06555e-59
7.54023e-60
3.82945e-60
1.27533e-60
2.15346e-61
-4.30155e-55
3.38953e-57
3.15395e-55
1.40831e-55
1.00497e-53
6.11735e-53
6.83135e-53
2.66145e-53
2.41396e-52
8.95074e-52
3.81532e-52
1.05266e-52
1.06991e-51
1.72328e-51
3.7687e-52
1.6803e-52
1.01637e-51
6.62061e-52
4.50937e-53
1.24518e-52
1.42004e-52
1.19972e-53
1.24962e-53
9.5531e-54
1.01727e-52
4.74452e-55
2.25809e-54
5.5093e-55
8.27666e-55
6.78079e-56
1.23203e-54
9.12317e-55
1.52914e-55
5.46287e-56
5.36107e-55
4.66585e-55
6.95696e-56
1.83279e-56
4.77504e-56
6.04674e-56
4.58274e-57
1.1783e-57
3.79646e-57
1.00931e-57
3.63157e-59
5.22281e-62
2.07097e-62
6.14092e-64
3.74471e-68
5.9989e-69
8.39474e-69
1.00406e-68
1.07272e-68
1.03911e-68
9.09252e-69
7.19091e-69
5.26193e-69
3.61647e-69
2.27886e-69
1.26526e-69
6.06599e-70
2.52497e-70
8.45513e-71
2.10907e-71
2.99872e-72
1.02524e-75
4.45926e-74
2.84027e-73
1.21304e-72
9.69548e-72
2.82494e-68
4.49163e-67
2.38846e-66
6.89314e-66
1.20528e-65
1.26829e-65
9.76591e-66
5.4288e-66
1.92792e-66
3.33487e-67
-3.95715e-60
1.95763e-62
2.79882e-60
1.28174e-60
1.38328e-58
9.78825e-58
1.18592e-57
4.98926e-58
5.19622e-57
1.98107e-56
8.80886e-57
2.43669e-57
2.69018e-56
4.50562e-56
1.02092e-56
4.69761e-57
2.905e-56
1.90201e-56
1.26572e-57
3.41909e-57
4.0784e-57
3.53103e-58
3.66532e-58
2.57581e-58
3.47191e-57
1.51506e-59
7.56438e-59
1.90378e-59
2.89594e-59
2.04352e-60
4.19211e-59
3.03895e-59
4.84652e-60
1.79122e-60
1.67776e-59
1.42381e-59
2.02555e-60
5.39365e-61
1.2545e-60
1.50458e-60
1.06307e-61
2.67295e-62
7.50994e-62
1.71324e-62
4.99494e-64
5.88028e-67
1.64824e-67
2.83428e-69
5.2881e-74
9.07901e-75
1.19712e-74
1.33865e-74
1.33132e-74
1.19206e-74
9.61107e-75
6.94211e-75
4.61474e-75
2.91971e-75
1.69575e-75
8.74998e-76
3.94134e-76
1.56269e-76
5.07547e-77
1.2526e-77
1.79817e-78
7.69044e-82
3.43194e-80
2.25571e-79
9.25387e-79
6.5402e-78
2.7458e-75
1.52777e-73
1.30329e-72
5.19337e-72
1.1734e-71
1.4537e-71
1.24014e-71
7.66349e-72
3.04606e-72
5.71993e-73
-5.08239e-65
1.16819e-67
2.59419e-65
1.1502e-66
2.19711e-63
1.8323e-62
2.45804e-62
1.10246e-62
1.29538e-61
5.13022e-61
2.36081e-61
6.62914e-62
7.85529e-61
1.3628e-60
3.18965e-61
1.51244e-61
9.50832e-61
6.29219e-61
4.12558e-62
1.0844e-61
1.35601e-61
1.19895e-62
1.24099e-62
8.08976e-63
1.33497e-61
5.94305e-64
2.87981e-63
7.62436e-64
1.14167e-63
8.8476e-65
1.6417e-63
1.15067e-63
1.75673e-64
6.68781e-65
5.96853e-64
4.9284e-64
6.71107e-65
1.7933e-65
3.77649e-65
4.30456e-65
2.84346e-66
6.90449e-67
1.71855e-66
3.37564e-67
8.10304e-69
7.81028e-72
1.57315e-72
1.62182e-74
8.18339e-80
1.49759e-80
1.84946e-80
1.92847e-80
1.77137e-80
1.45497e-80
1.07396e-80
6.988e-81
4.19135e-81
2.40077e-81
1.26908e-81
6.03127e-82
2.54829e-82
2.54863e-82
2.55386e-82
1.64599e-81
1.51284e-81
2.86232e-84
1.85683e-85
1.85641e-85
7.67984e-85
5.19408e-84
5.2724e-83
1.57511e-80
4.76038e-79
3.18551e-78
1.03536e-77
1.66313e-77
1.64879e-77
1.13438e-77
5.08129e-78
1.09081e-78
-9.74412e-70
4.98524e-73
3.30185e-70
-9.59278e-66
2.05601e-68
3.9884e-67
5.90744e-67
2.82366e-67
3.69452e-66
1.53316e-65
7.27995e-66
2.07546e-66
2.57795e-65
4.68208e-65
1.1308e-65
5.53433e-66
3.51374e-65
2.35073e-65
1.52417e-66
3.92408e-66
5.10349e-66
4.5761e-67
4.77029e-67
2.91605e-67
5.74083e-66
2.50259e-68
1.22897e-67
3.33766e-68
5.01405e-68
3.75595e-69
7.10297e-68
4.85614e-68
7.14729e-69
2.77195e-69
2.37996e-68
1.91894e-68
2.50595e-69
6.68151e-70
1.29036e-69
1.40143e-69
8.67518e-71
2.0134e-71
4.49478e-71
7.66152e-72
1.5325e-73
1.21298e-76
1.79032e-77
1.1467e-79
1.44977e-85
2.72718e-86
3.13998e-86
3.03107e-86
2.55221e-86
1.90329e-86
1.26481e-86
7.29397e-87
3.85799e-87
1.94335e-87
1.94444e-87
2.53992e-87
1.72349e-84
1.13557e-81
3.68977e-80
7.42084e-80
6.66538e-80
3.48644e-80
1.70116e-85
5.03139e-90
2.99622e-90
4.2391e-90
4.58087e-89
5.34052e-88
1.06818e-85
1.68516e-84
8.55618e-84
1.91786e-83
2.38076e-83
1.8222e-83
8.92605e-84
2.22581e-84
-2.82612e-74
1.57501e-93
4.96982e-75
-4.67178e-69
0
1.02851e-71
1.61791e-71
8.35669e-72
1.18477e-70
5.2225e-70
2.5569e-70
7.26279e-71
6.82254e-70
1.70592e-69
4.51188e-70
2.26797e-70
1.45855e-69
9.80925e-70
6.31353e-71
1.59816e-70
2.14862e-70
1.95229e-71
2.04862e-71
1.18348e-71
2.7177e-70
1.20021e-72
5.82391e-72
1.62804e-72
2.42613e-72
1.84702e-73
3.41458e-72
2.26776e-72
3.2318e-73
1.2736e-73
1.05387e-72
8.32407e-73
1.04661e-73
2.77329e-74
4.97168e-74
5.14789e-74
2.994e-75
6.60997e-76
1.33466e-75
1.99168e-76
3.36006e-78
2.19807e-81
2.42485e-82
1.00028e-84
2.98256e-91
5.40936e-92
5.80192e-92
5.16505e-92
3.97471e-92
2.67783e-92
1.58557e-92
8.63624e-93
9.10888e-93
3.50764e-90
8.22019e-87
1.57533e-83
2.13945e-80
1.45242e-77
3.88397e-76
7.80159e-76
7.01284e-76
3.6141e-76
1.86157e-81
1.7411e-86
8.76539e-91
1.25072e-94
7.64681e-95
5.44175e-94
1.61753e-92
8.10951e-91
6.75675e-90
2.16765e-89
3.61754e-89
3.22249e-89
1.67715e-89
4.69234e-90
-1.06291e-78
-5.81066e-99
8.88417e-80
-1.44701e-72
-1.17138e-76
3.07406e-76
5.02152e-76
2.81498e-76
4.28264e-75
1.9997e-74
1.00967e-74
2.8154e-75
-4.49619e-70
5.32892e-92
2.00476e-74
1.03142e-74
6.72422e-74
4.53345e-74
2.87052e-75
7.25813e-75
1.00052e-74
9.2152e-76
9.74099e-76
5.339e-76
1.40768e-74
6.25309e-77
3.02996e-76
8.67198e-77
1.28513e-76
9.77393e-78
1.79949e-76
1.16427e-76
1.611e-77
6.39324e-78
5.14195e-77
3.99497e-77
4.85907e-78
1.27325e-78
2.14663e-78
2.11909e-78
1.1612e-79
2.4325e-80
4.48664e-80
5.90298e-81
8.51531e-83
4.64563e-86
3.90797e-87
1.07671e-89
7.40847e-97
1.16407e-97
1.16216e-97
9.52728e-98
6.70039e-98
6.71835e-98
9.57908e-97
3.85296e-93
1.4742e-89
4.27865e-86
9.69745e-83
1.62401e-79
2.18079e-76
1.44774e-73
3.58538e-72
7.06465e-72
6.35008e-72
3.29709e-72
1.78859e-77
1.7904e-82
9.8251e-87
3.89855e-91
1.39342e-95
4.17371e-99
2.47569e-99
3.67893e-97
5.35035e-96
2.36171e-95
5.47813e-95
6.17539e-95
3.39439e-95
1.02132e-95
-4.9343e-83
-1.45463e-86
1.88136e-84
-3.73618e-76
-2.14935e-79
1.01135e-80
1.7719e-80
1.06733e-80
1.7501e-79
8.54705e-79
4.45392e-79
1.26797e-79
-1.35768e-72
0
8.907e-79
5.2171e-79
3.41376e-78
2.30078e-78
1.21694e-79
3.50283e-79
5.13381e-79
4.79368e-80
5.07879e-80
2.64599e-80
7.9251e-79
3.56955e-81
1.71588e-80
5.0403e-81
7.40832e-81
5.66144e-82
1.03476e-80
6.53466e-81
8.77616e-82
3.52292e-82
2.75252e-81
2.11002e-81
2.49511e-82
6.44319e-83
1.03419e-82
9.72998e-83
5.03952e-84
1.00107e-84
1.70226e-84
1.99166e-85
2.4877e-87
1.14451e-90
7.50317e-92
1.43588e-94
2.34298e-102
2.75892e-103
2.68795e-103
3.03966e-103
3.80351e-100
2.23166e-96
1.07812e-92
4.37447e-89
1.47012e-85
4.15489e-82
9.12872e-79
1.48818e-75
1.97768e-72
1.28153e-69
2.92046e-68
5.63506e-68
5.06606e-68
2.64675e-68
1.51394e-73
1.62809e-78
9.78685e-83
4.32368e-87
1.76079e-91
7.84639e-96
3.91057e-100
4.43743e-102
4.37141e-102
2.56197e-101
7.84662e-101
1.2149e-100
7.01355e-101
2.4564e-101
-2.71327e-87
-1.72267e-90
4.69199e-89
-9.11889e-80
-7.81376e-83
3.38581e-85
7.13562e-85
4.53942e-85
8.00097e-84
4.06013e-83
2.17429e-83
6.33573e-84
-2.04097e-75
-1.60418e-78
-6.64173e-102
3.11062e-83
1.88912e-82
1.20428e-82
-3.95931e-80
1.33958e-84
2.87987e-83
2.69266e-84
2.8892e-84
1.43337e-84
4.81806e-83
2.19578e-85
1.05274e-84
3.15158e-85
4.62049e-85
3.5756e-86
6.45943e-85
3.98972e-85
5.20243e-86
2.10193e-86
1.606e-85
1.21989e-85
1.41025e-86
3.58007e-87
5.53296e-87
4.96464e-87
2.43896e-88
4.60161e-89
7.2777e-89
7.64973e-90
8.37727e-92
3.29218e-95
1.72014e-96
2.37435e-99
3.30547e-105
3.30547e-105
8.70087e-104
6.55555e-100
4.09077e-96
2.21328e-92
1.02632e-88
4.01932e-85
1.30461e-81