/*--------------------------------*- C++ -*----------------------------------*\
| =========                 |                                                 |
| \\      /  F ield         | OpenFOAM: The Open Source CFD Toolbox           |
|  \\    /   O peration     | Version:  2412                                  |
|   \\  /    A nd           | Website:  www.openfoam.com                      |
|    \\/     M anipulation  |                                                 |
\*---------------------------------------------------------------------------*/
FoamFile
{
    version     2.0;
    format      ascii;
    arch        "LSB;label=32;scalar=64";
    class       volScalarField;
    location    "7.4";
    object      p;
}
// * * * * * * * * * * * * * * * * * * * * * * * * * * * * * * * * * * * * * //

dimensions      [1 -1 -2 0 0 0 0];

internalField   nonuniform List<scalar> 
6400
(
15437.5
15436
15432.6
15427.4
15421.1
15414.2
15407
15400
15393.2
15386.7
15380.7
15375.2
15370.2
15365.7
15361.8
15358.6
15356
15354.3
15353.5
15353.8
15355.3
15358.2
15362.7
15368.9
15377
15387.1
15399.3
15413.5
15429.7
15447.5
15466.7
15486.8
15507.2
15527.3
15546.3
15563.6
15578.4
15590.2
15598.5
15602.8
15603
15599.1
15591.3
15579.8
15565.3
15548.3
15529.5
15509.5
15489.2
15469.2
15450
15432.1
15415.9
15401.6
15389.3
15379
15370.8
15364.5
15359.9
15356.8
15355.2
15354.8
15355.4
15357
15359.3
15362.4
15366.1
15370.4
15375.3
15380.7
15386.6
15392.9
15399.6
15406.5
15413.5
15420.4
15426.6
15431.8
15435.2
15436.6
14653.9
14652.4
14649.3
14644.7
14639.1
14633
14626.6
14620.2
14613.9
14608
14602.4
14597.2
14592.5
14588.3
14584.7
14581.7
14579.4
14577.9
14577.2
14577.6
14579.1
14581.8
14586
14591.7
14599
14608.1
14619
14631.5
14645.7
14661.3
14677.9
14695.2
14712.7
14729.9
14746.1
14760.9
14773.5
14783.5
14790.5
14794.1
14794.3
14791
14784.4
14774.7
14762.4
14748
14731.9
14714.9
14697.5
14680.2
14663.6
14648
14633.8
14621.2
14610.2
14601
14593.6
14587.7
14583.5
14580.6
14579
14578.5
14579
14580.4
14582.5
14585.3
14588.8
14592.8
14597.4
14602.4
14607.9
14613.7
14619.8
14626.1
14632.4
14638.5
14644
14648.5
14651.6
14653.1
13872.1
13870.1
13867
13862.8
13857.8
13852.2
13846.4
13840.6
13834.9
13829.4
13824.2
13819.4
13815
13811.2
13807.8
13805
13802.9
13801.5
13801
13801.3
13802.7
13805.2
13808.9
13814
13820.5
13828.4
13837.8
13848.7
13860.8
13874.1
13888.2
13902.8
13917.5
13931.9
13945.5
13957.7
13968.2
13976.5
13982.3
13985.4
13985.6
13982.9
13977.4
13969.4
13959.2
13947.2
13933.8
13919.5
13904.9
13890.3
13876.2
13863
13850.8
13839.9
13830.4
13822.4
13815.8
13810.6
13806.8
13804.2
13802.7
13802.3
13802.7
13804
13805.9
13808.5
13811.7
13815.5
13819.7
13824.4
13829.4
13834.8
13840.4
13846.1
13851.8
13857.2
13862.1
13866.3
13869.3
13871.2
13091.5
13088.9
13085.4
13081.2
13076.3
13071.1
13065.8
13060.3
13055
13049.9
13045.1
13040.6
13036.6
13032.9
13029.8
13027.2
13025.2
13023.9
13023.3
13023.6
13024.7
13026.8
13030.1
13034.5
13040.1
13047
13055.1
13064.4
13074.9
13086.3
13098.3
13110.8
13123.4
13135.7
13147.2
13157.7
13166.6
13173.7
13178.6
13181.3
13181.5
13179.2
13174.6
13167.8
13159.2
13148.9
13137.5
13125.4
13112.9
13100.4
13088.4
13077
13066.5
13057.1
13048.9
13041.9
13036.2
13031.7
13028.4
13026.2
13025
13024.6
13025.1
13026.3
13028.2
13030.6
13033.6
13037.1
13041.1
13045.4
13050.1
13055.1
13060.2
13065.5
13070.8
13075.9
13080.6
13084.7
13088.1
13090.7
12311.6
12308.2
12304.2
12299.7
12294.9
12289.9
12284.8
12279.7
12274.7
12269.9
12265.4
12261.2
12257.4
12254
12251.1
12248.7
12246.7
12245.4
12244.8
12244.8
12245.6
12247.4
12250
12253.7
12258.4
12264.3
12271.2
12279.2
12288.2
12298
12308.4
12319.2
12330
12340.6
12350.6
12359.6
12367.4
12373.5
12377.8
12380.2
12380.4
12378.5
12374.6
12368.8
12361.3
12352.5
12342.6
12332.1
12321.3
12310.5
12300.1
12290.3
12281.3
12273.2
12266.2
12260.3
12255.4
12251.7
12248.9
12247.1
12246.2
12246.1
12246.7
12247.9
12249.7
12252
12254.8
12258.1
12261.8
12265.8
12270.2
12274.8
12279.7
12284.6
12289.6
12294.6
12299.2
12303.6
12307.5
12310.8
11531.8
11527.7
11523
11518.3
11513.5
11508.5
11503.5
11498.6
11493.9
11489.4
11485.2
11481.3
11477.8
11474.6
11471.8
11469.5
11467.6
11466.3
11465.5
11465.3
11465.7
11467
11469
11471.9
11475.8
11480.6
11486.4
11493.2
11500.8
11509.2
11518.2
11527.6
11537
11546.3
11555.1
11563
11569.9
11575.3
11579.2
11581.3
11581.5
11579.9
11576.6
11571.5
11565
11557.2
11548.6
11539.4
11529.9
11520.5
11511.5
11503
11495.4
11488.5
11482.6
11477.7
11473.7
11470.6
11468.5
11467.2
11466.6
11466.8
11467.5
11468.8
11470.6
11472.8
11475.5
11478.5
11482
11485.7
11489.8
11494.2
11498.7
11503.5
11508.3
11513.2
11517.9
11522.5
11527.1
11531.2
10751.8
10747.1
10741.8
10736.8
10731.8
10726.8
10721.9
10717.2
10712.8
10708.5
10704.6
10701
10697.7
10694.7
10692.1
10689.8
10687.9
10686.5
10685.5
10685
10685
10685.7
10687.1
10689.2
10692.2
10696
10700.8
10706.4
10712.8
10720
10727.8
10736
10744.4
10752.7
10760.5
10767.6
10773.8
10778.7
10782.2
10784.1
10784.4
10783.1
10780.1
10775.7
10769.9
10763
10755.3
10747.1
10738.6
10730.4
10722.5
10715.2
10708.7
10703
10698.1
10694.2
10691.1
10688.8
10687.3
10686.5
10686.4
10686.8
10687.7
10689.1
10690.9
10693.1
10695.6
10698.5
10701.7
10705.2
10709
10713.1
10717.4
10722
10726.7
10731.6
10736.5
10741.4
10746.6
10751.3
9971.5
9966.11
9960.34
9954.97
9949.8
9944.8
9940.01
9935.46
9931.19
9927.21
9923.53
9920.16
9917.09
9914.32
9911.84
9909.66
9907.77
9906.19
9904.95
9904.1
9903.68
9903.76
9904.41
9905.73
9907.76
9910.61
9914.28
9918.83
9924.2
9930.36
9937.16
9944.44
9951.96
9959.47
9966.65
9973.22
9978.88
9983.42
9986.66
9988.46
9988.79
9987.59
9984.97
9980.93
9975.71
9969.41
9962.41
9954.91
9947.36
9939.96
9933.06
9926.77
9921.3
9916.62
9912.82
9909.83
9907.63
9906.15
9905.35
9905.14
9905.46
9906.23
9907.41
9908.93
9910.77
9912.89
9915.29
9917.97
9920.94
9924.19
9927.74
9931.59
9935.74
9940.16
9944.84
9949.73
9954.79
9960.07
9965.78
9971.14
9190.62
9184.72
9178.45
9172.76
9167.41
9162.36
9157.62
9153.23
9149.17
9145.45
9142.05
9138.96
9136.14
9133.58
9131.24
9129.12
9127.19
9125.47
9123.97
9122.71
9121.77
9121.19
9121.07
9121.5
9122.58
9124.39
9127.03
9130.52
9134.9
9140.11
9146.09
9152.64
9159.58
9166.58
9173.37
9179.59
9184.97
9189.26
9192.29
9193.99
9194.27
9193.19
9190.72
9187.02
9182.11
9176.3
9169.71
9162.81
9155.8
9149.13
9142.98
9137.62
9133.09
9129.47
9126.68
9124.72
9123.46
9122.86
9122.8
9123.22
9124.05
9125.21
9126.65
9128.32
9130.19
9132.27
9134.54
9137.03
9139.75
9142.74
9146.03
9149.63
9153.58
9157.87
9162.51
9167.47
9172.72
9178.34
9184.55
9190.43
8409.15
8402.79
8396.06
8390.04
8384.5
8379.39
8374.71
8370.48
8366.66
8363.23
8360.14
8357.36
8354.83
8352.5
8350.33
8348.28
8346.32
8344.44
8342.65
8340.96
8339.43
8338.14
8337.17
8336.65
8336.69
8337.43
8338.96
8341.42
8344.82
8349.2
8354.46
8360.51
8367.05
8373.85
8380.47
8386.6
8391.87
8396.04
8398.97
8400.54
8400.8
8399.68
8397.33
8393.71
8389.05
8383.37
8377.11
8370.43
8363.89
8357.68
8352.23
8347.63
8344.06
8341.43
8339.75
8338.85
8338.64
8338.97
8339.76
8340.88
8342.27
8343.85
8345.57
8347.4
8349.31
8351.32
8353.43
8355.7
8358.15
8360.85
8363.84
8367.18
8370.91
8375.06
8379.65
8384.69
8390.16
8396.11
8402.79
8409.13
7627.11
7620.29
7613.08
7606.7
7600.95
7595.77
7591.17
7587.13
7583.59
7580.5
7577.78
7575.37
7573.18
7571.14
7569.18
7567.23
7565.26
7563.22
7561.12
7558.96
7556.81
7554.72
7552.83
7551.25
7550.16
7549.71
7550.09
7551.41
7553.85
7557.4
7562.11
7567.77
7574.24
7581.06
7587.88
7594.15
7599.55
7603.75
7606.65
7608.2
7608.35
7607.24
7604.79
7601.21
7596.42
7590.77
7584.37
7577.81
7571.35
7565.55
7560.58
7556.77
7554.08
7552.56
7552
7552.3
7553.22
7554.63
7556.34
7558.25
7560.26
7562.3
7564.31
7566.29
7568.21
7570.12
7572.03
7574.02
7576.15
7578.49
7581.14
7584.15
7587.62
7591.61
7596.15
7601.27
7606.96
7613.27
7620.43
7627.24
6844.57
6837.23
6829.44
6822.64
6816.64
6811.39
6806.88
6803.08
6799.89
6797.21
6794.95
6792.98
6791.22
6789.54
6787.85
6786.07
6784.11
6781.94
6779.53
6776.88
6774.03
6771.08
6768.14
6765.38
6762.99
6761.22
6760.26
6760.39
6761.74
6764.53
6768.7
6774.26
6780.84
6788.13
6795.45
6802.28
6808.02
6812.45
6815.45
6817.02
6817.22
6816
6813.52
6809.64
6804.63
6798.43
6791.68
6784.66
6778.16
6772.41
6767.95
6764.8
6763.13
6762.73
6763.49
6765.08
6767.32
6769.91
6772.69
6775.48
6778.18
6780.7
6783.03
6785.13
6787.03
6788.76
6790.41
6792.04
6793.76
6795.66
6797.87
6800.49
6803.63
6807.39
6811.85
6817.05
6822.99
6829.73
6837.46
6844.79
6061.66
6053.61
6045.08
6037.74
6031.44
6026.11
6021.75
6018.26
6015.5
6013.35
6011.65
6010.25
6009.02
6007.8
6006.48
6004.93
6003.05
6000.78
5998.06
5994.88
5991.28
5987.35
5983.23
5979.09
5975.22
5971.86
5969.39
5968.06
5968.27
5970.16
5973.96
5979.52
5986.69
5994.82
6003.26
6010.99
6017.42
6022.21
6025.43
6027.17
6027.43
6026.32
6023.65
6019.55
6013.76
6006.73
5998.78
5990.99
5983.82
5978.09
5973.89
5971.58
5970.93
5971.92
5974.12
5977.29
5981
5984.99
5988.96
5992.74
5996.2
5999.25
6001.87
6004.07
6005.88
6007.38
6008.66
6009.83
6011.02
6012.36
6014.02
6016.12
6018.83
6022.29
6026.61
6031.88
6038.12
6045.41
6053.87
6061.93
5278.56
5269.47
5259.88
5251.83
5245.17
5239.8
5235.66
5232.59
5230.42
5228.94
5227.95
5227.26
5226.7
5226.07
5225.23
5224.02
5222.3
5219.97
5216.96
5213.23
5208.8
5203.77
5198.26
5192.53
5186.85
5181.63
5177.26
5174.25
5172.99
5173.96
5177.31
5183.23
5191.31
5201.09
5211.26
5220.6
5227.91
5233.17
5236.64
5238.58
5239.14
5238.14
5235.58
5230.96
5224.3
5215.43
5205.71
5196.1
5188.02
5181.81
5178.05
5176.54
5177.32
5179.87
5183.93
5188.89
5194.4
5199.97
5205.35
5210.25
5214.55
5218.16
5221.07
5223.32
5224.97
5226.12
5226.92
5227.49
5228.01
5228.65
5229.59
5231.03
5233.17
5236.19
5240.29
5245.6
5252.21
5260.22
5269.75
5278.89
4495.43
4484.72
4473.59
4464.62
4457.56
4452.22
4448.45
4445.99
4444.58
4443.96
4443.88
4444.09
4444.37
4444.51
4444.3
4443.55
4442.1
4439.79
4436.53
4432.23
4426.9
4420.6
4413.5
4405.85
4398.03
4390.48
4383.83
4378.63
4375.63
4375.32
4378.31
4384.67
4394.44
4406.63
4419.77
4431.42
4440.09
4445.75
4449.41
4451.59
4452.43
4451.89
4449.3
4444.4
4436.09
4424.75
4411.7
4399.57
4389.65
4383.03
4379.56
4379.35
4381.79
4386.52
4392.77
4400.03
4407.63
4415.13
4422.08
4428.26
4433.47
4437.67
4440.84
4443.07
4444.46
4445.15
4445.31
4445.13
4444.81
4444.56
4444.6
4445.18
4446.55
4448.96
4452.7
4457.98
4465
4473.97
4485.09
4495.91
3712.35
3699.15
3685.73
3675.57
3668.15
3663.01
3659.82
3658.23
3657.85
3658.34
3659.39
3660.72
3662.05
3663.14
3663.75
3663.64
3662.6
3660.44
3656.99
3652.15
3645.86
3638.18
3629.25
3619.38
3608.97
3598.65
3589.08
3581.2
3575.8
3573.93
3576.21
3583.37
3595.29
3611.4
3628.94
3644.36
3654.39
3660.03
3663.19
3665.12
3666.39
3666.49
3664.74
3659.63
3649.83
3634.32
3616.64
3600.23
3588.1
3580.6
3577.94
3579.3
3584.22
3591.61
3600.8
3610.81
3621
3630.7
3639.5
3647.07
3653.27
3658.02
3661.41
3663.51
3664.5
3664.56
3663.92
3662.79
3661.42
3660.06
3658.97
3658.45
3658.79
3660.36
3663.5
3668.61
3676.04
3686.24
3699.69
3713.05
2930.14
2913.09
2896.13
2884.43
2876.76
2872.14
2869.93
2869.57
2870.58
2872.53
2875.04
2877.78
2880.46
2882.77
2884.45
2885.21
2884.78
2882.92
2879.4
2874.03
2866.72
2857.45
2846.37
2833.76
2820.15
2806.2
2792.91
2781.27
2772.67
2768.26
2769.51
2777.28
2792.6
2814.96
2840.7
2861.36
2870
2870.06
2868.34
2867.69
2869.26
2872.69
2875.86
2876.4
2867.79
2846.94
2820.5
2797.38
2781.39
2773.2
2771.51
2775.53
2783.72
2795.01
2807.98
2821.7
2835.12
2847.6
2858.58
2867.78
2875.03
2880.35
2883.83
2885.66
2886.05
2885.26
2883.56
2881.21
2878.51
2875.74
2873.2
2871.23
2870.19
2870.52
2872.71
2877.34
2885.04
2896.82
2913.84
2931.12
2153.13
2127.54
2104.78
2091.37
2083.97
2080.54
2080.03
2081.63
2084.7
2088.73
2093.3
2098.02
2102.57
2106.61
2109.81
2111.84
2112.35
2111.02
2107.5
2101.52
2092.85
2081.41
2067.25
2050.69
2032.25
2012.86
1993.62
1976.11
1961.93
1953.19
1951.76
1960.09
1980.74
2016.49
2060.26
2091.91
2089.75
2070.43
2055.22
2048.79
2051.04
2061.02
2078.32
2098.58
2101.93
2070.57
2025.43
1987.3
1964.97
1955.5
1956.18
1964.29
1978.04
1995.21
2014.22
2033.42
2051.75
2068.22
2082.34
2093.75
2102.41
2108.37
2111.88
2113.2
2112.67
2110.62
2107.4
2103.35
2098.78
2094.03
2089.44
2085.38
2082.29
2080.67
2081.18
2084.63
2092.09
2105.59
2128.41
2154.31
1376.24
1330.04
1301.8
1289
1283.67
1282.81
1285.04
1289.39
1295.15
1301.79
1308.87
1316.02
1322.89
1329.12
1334.35
1338.19
1340.22
1339.99
1337.04
1330.9
1321.21
1307.67
1290.23
1269.07
1244.8
1218.37
1191.31
1165.43
1143.22
1127.22
1120.78
1127.45
1154.46
1210.68
1286.85
1348.44
1360.27
1353.47
1362.92
1374.53
1378.22
1372.93
1366.29
1372.95
1361.79
1301.27
1223.2
1162.8
1133
1124.84
1130.27
1145.57
1167.21
1192.71
1219.48
1245.74
1269.89
1290.99
1308.4
1321.94
1331.64
1337.78
1340.74
1340.97
1338.94
1335.09
1329.84
1323.59
1316.7
1309.51
1302.4
1295.72
1289.93
1285.55
1283.31
1284.18
1289.54
1302.39
1330.74
1377.23
507.605
462.653
447.742
444.065
444.084
446.31
450.039
454.797
460.262
466.196
472.399
478.687
484.879
490.784
496.184
500.822
504.398
506.562
506.913
505.03
500.477
492.89
481.98
467.711
450.251
430.259
408.659
387.046
367.144
351.403
342.003
342.545
359.403
403.711
461.702
560.992
775.921
1033.44
1224.36
1305.24
1314.21
1250.55
1071.39
809.756
580.426
472.871
413.486
364.893
345.673
343.937
352.635
367.908
387.558
409.024
430.584
450.578
468.085
482.408
493.38
501.017
505.612
507.52
507.183
505.019
501.433
496.776
491.352
485.418
479.194
472.873
466.637
460.668
455.17
450.382
446.626
444.38
444.356
448.06
463.092
508.238
-4.79117
-5.27338
-3.93154
-2.79233
-1.83974
-0.959893
-0.0938085
0.795914
1.73722
2.75092
3.85214
5.05115
6.35312
7.75729
9.25551
10.83
12.451
14.0734
15.6344
17.0512
18.2226
19.0301
19.353
19.0751
18.1231
16.473
14.2108
11.5038
8.64819
5.93788
3.67803
2.17002
1.99563
3.78566
4.55251
82.3983
417.354
804.238
1055.88
1171.57
1182.19
1085.98
848.531
459.775
101.229
5.40663
4.57234
2.39096
2.38433
3.8093
6.0179
8.70189
11.5477
14.2616
16.5389
18.2097
19.1811
19.475
19.1629
18.361
17.1904
15.7708
14.2042
12.5745
10.9451
9.36182
7.85484
6.44224
5.13232
3.92591
2.81786
1.79791
0.850751
-0.0445072
-0.915955
-1.80118
-2.75934
-3.90394
-5.24931
-4.75756
-10.5485
-10.5489
-10.5488
-10.5489
-10.549
-10.5491
-10.5493
-10.5494
-10.5496
-10.5499
-10.5501
-10.5503
-10.5506
-10.5508
-10.5511
-10.5514
-10.5516
-10.5519
-10.5522
-10.5525
-10.5528
-10.5533
-10.5541
-10.5551
-10.557
-10.5605
-10.5648
-10.5654
-10.5604
-10.5541
-10.5512
-10.5287
-10.4866
-10.4828
-10.4299
23.7739
108.061
454.856
790.328
913.961
922.03
814.301
491.055
126.85
30.237
-10.406
-10.4789
-10.4848
-10.5118
-10.5423
-10.5461
-10.5516
-10.5588
-10.5617
-10.5594
-10.5563
-10.5545
-10.5536
-10.5529
-10.5525
-10.5522
-10.552
-10.5518
-10.5515
-10.5513
-10.5511
-10.5508
-10.5506
-10.5503
-10.5501
-10.5498
-10.5496
-10.5494
-10.5492
-10.549
-10.5489
-10.5488
-10.5487
-10.5487
-10.5483
-11.0395
-11.0395
-11.0395
-11.0396
-11.0397
-11.0398
-11.0399
-11.0401
-11.0403
-11.0405
-11.0407
-11.0409
-11.0412
-11.0414
-11.0416
-11.0419
-11.0421
-11.0424
-11.0426
-11.0429
-11.0432
-11.0436
-11.0441
-11.0452
-11.0471
-11.0497
-11.0518
-11.052
-11.0484
-11.0419
-11.0348
-11.0322
-11.031
-11.0423
-11.0923
-11.158
14.099
216.638
451.956
493.382
496.494
465.583
237.972
20.3756
-11.1703
-11.0922
-11.042
-11.0261
-11.0224
-11.0231
-11.0322
-11.0407
-11.0462
-11.0479
-11.0475
-11.0459
-11.0444
-11.0435
-11.0431
-11.0428
-11.0426
-11.0424
-11.0423
-11.0421
-11.0418
-11.0416
-11.0414
-11.0411
-11.0409
-11.0407
-11.0404
-11.0402
-11.04
-11.0398
-11.0397
-11.0395
-11.0394
-11.0394
-11.0393
-11.0393
-11.5298
-11.5299
-11.53
-11.5301
-11.5301
-11.5303
-11.5304
-11.5306
-11.5307
-11.5309
-11.5311
-11.5313
-11.5315
-11.5317
-11.5319
-11.5321
-11.5323
-11.5325
-11.5326
-11.5328
-11.5331
-11.5335
-11.5342
-11.5353
-11.5377
-11.5416
-11.5455
-11.5453
-11.5415
-11.5368
-11.5357
-11.5399
-11.5554
-11.5808
-11.5749
-11.5686
-11.7263
82.6406
318.299
360.24
362.43
331.445
97.7562
-11.7567
-11.592
-11.5869
-11.5904
-11.5575
-11.5344
-11.5287
-11.5291
-11.5333
-11.5382
-11.5413
-11.5403
-11.537
-11.5348
-11.5337
-11.5331
-11.5328
-11.5326
-11.5325
-11.5324
-11.5322
-11.5321
-11.5319
-11.5317
-11.5315
-11.5313
-11.5311
-11.5309
-11.5307
-11.5305
-11.5303
-11.5302
-11.53
-11.5299
-11.5298
-11.5298
-11.5297
-12.0204
-12.0204
-12.0205
-12.0206
-12.0207
-12.0208
-12.0209
-12.0211
-12.0212
-12.0214
-12.0216
-12.0218
-12.022
-12.0221
-12.0223
-12.0225
-12.0227
-12.0228
-12.023
-12.0232
-12.0235
-12.0238
-12.0243
-12.0251
-12.0271
-12.0308
-12.0348
-12.037
-12.0375
-12.0395
-12.0504
-12.0599
-12.061
-12.0582
-12.0345
-12.0253
-12.0585
-0.172883
128.327
203.973
206.318
137.656
4.34748
-12.0816
-12.0295
-12.0326
-12.068
-12.0739
-12.0792
-12.0613
-12.0378
-12.0331
-12.0321
-12.0318
-12.0292
-12.0262
-12.0245
-12.0238
-12.0234
-12.0232
-12.023
-12.0228
-12.0227
-12.0226
-12.0224
-12.0223
-12.0221
-12.0219
-12.0217
-12.0215
-12.0213
-12.0211
-12.021
-12.0208
-12.0207
-12.0205
-12.0204
-12.0203
-12.0203
-12.0203
-12.5109
-12.511
-12.511
-12.5111
-12.5112
-12.5113
-12.5114
-12.5116
-12.5117
-12.5119
-12.5121
-12.5122
-12.5124
-12.5126
-12.5128
-12.5129
-12.5131
-12.5132
-12.5133
-12.5134
-12.5135
-12.5135
-12.5136
-12.5137
-12.5149
-12.5186
-12.5242
-12.5286
-12.5327
-12.5443
-12.5499
-12.5308
-12.4974
-12.4948
-12.4997
-12.5116
-12.4839
-11.9656
-1.65555
27.6942
29.2564
1.6517
-11.9298
-12.4969
-12.5079
-12.486
-12.4773
-12.4928
-12.5368
-12.5604
-12.5527
-12.5386
-12.53
-12.5247
-12.5191
-12.5151
-12.5136
-12.5133
-12.5132
-12.5132
-12.5132
-12.5131
-12.5131
-12.513
-12.5128
-12.5127
-12.5125
-12.5124
-12.5122
-12.512
-12.5118
-12.5116
-12.5115
-12.5113
-12.5112
-12.511
-12.5109
-12.5109
-12.5108
-12.5108
-13.0015
-13.0015
-13.0015
-13.0016
-13.0017
-13.0018
-13.0019
-13.002
-13.0022
-13.0024
-13.0025
-13.0027
-13.0029
-13.003
-13.0032
-13.0033
-13.0035
-13.0036
-13.0037
-13.0038
-13.0038
-13.0038
-13.0038
-13.0038
-13.0044
-13.0082
-13.0169
-13.0257
-13.0297
-13.032
-13.0371
-13.0314
-13.0168
-13.0124
-13.0156
-13.039
-13.0883
-13.079
-12.9057
-12.8681
-12.8668
-12.9263
-13.0411
-13.0403
-13.0255
-13.0027
-12.9963
-13.0041
-13.0097
-13.012
-13.0269
-13.0329
-13.0288
-13.0192
-13.0101
-13.0052
-13.0038
-13.0036
-13.0035
-13.0035
-13.0035
-13.0035
-13.0034
-13.0034
-13.0033
-13.0031
-13.003
-13.0028
-13.0026
-13.0025
-13.0023
-13.0021
-13.0019
-13.0018
-13.0016
-13.0015
-13.0014
-13.0014
-13.0013
-13.0013
-13.492
-13.492
-13.492
-13.4921
-13.4922
-13.4923
-13.4924
-13.4925
-13.4927
-13.4928
-13.493
-13.4932
-13.4933
-13.4935
-13.4937
-13.4938
-13.4939
-13.4941
-13.4942
-13.4943
-13.4944
-13.4945
-13.4946
-13.4949
-13.4958
-13.4998
-13.5098
-13.5242
-13.5402
-13.5561
-13.56
-13.5473
-13.5323
-13.5332
-13.5482
-13.5725
-13.5867
-13.401
-13.3693
-13.3748
-13.3844
-13.4047
-13.4438
-13.5159
-13.5278
-13.5145
-13.5129
-13.523
-13.5372
-13.5437
-13.5343
-13.5213
-13.5155
-13.509
-13.5004
-13.4959
-13.4947
-13.4942
-13.4941
-13.494
-13.494
-13.4939
-13.4939
-13.4938
-13.4937
-13.4935
-13.4934
-13.4932
-13.4931
-13.4929
-13.4927
-13.4926
-13.4924
-13.4922
-13.4921
-13.492
-13.4919
-13.4918
-13.4918
-13.4918
-13.9824
-13.9825
-13.9825
-13.9826
-13.9827
-13.9828
-13.9829
-13.983
-13.9831
-13.9833
-13.9835
-13.9836
-13.9838
-13.984
-13.9841
-13.9843
-13.9844
-13.9846
-13.9847
-13.9849
-13.9851
-13.9854
-13.9858
-13.9866
-13.9884
-13.9928
-14.0031
-14.0194
-14.0381
-14.0547
-14.0588
-14.0447
-14.0278
-14.024
-14.0309
-14.0238
-13.9889
-13.9385
-13.8979
-13.8811
-13.8876
-13.9136
-13.9519
-13.9852
-13.9995
-14.0037
-14.0131
-14.0283
-14.0433
-14.0482
-14.038
-14.0238
-14.0124
-14.0011
-13.9918
-13.9876
-13.9859
-13.9852
-13.9848
-13.9846
-13.9845
-13.9844
-13.9843
-13.9842
-13.9841
-13.984
-13.9838
-13.9837
-13.9835
-13.9833
-13.9832
-13.983
-13.9829
-13.9827
-13.9826
-13.9825
-13.9824
-13.9823
-13.9823
-13.9823
-14.4729
-14.473
-14.473
-14.4731
-14.4731
-14.4732
-14.4733
-14.4735
-14.4736
-14.4738
-14.4739
-14.4741
-14.4743
-14.4744
-14.4746
-14.4748
-14.4749
-14.4751
-14.4753
-14.4756
-14.4759
-14.4764
-14.4772
-14.4784
-14.4807
-14.4853
-14.4937
-14.5075
-14.5232
-14.5363
-14.5379
-14.528
-14.5142
-14.5075
-14.5073
-14.5025
-14.4811
-14.4509
-14.4228
-14.4065
-14.4125
-14.4366
-14.4623
-14.4825
-14.4952
-14.5013
-14.5086
-14.5203
-14.5329
-14.5364
-14.5286
-14.5159
-14.5035
-14.4915
-14.4832
-14.4792
-14.4773
-14.4762
-14.4757
-14.4753
-14.4751
-14.4749
-14.4748
-14.4747
-14.4745
-14.4744
-14.4743
-14.4741
-14.4739
-14.4738
-14.4736
-14.4735
-14.4733
-14.4732
-14.4731
-14.4729
-14.4729
-14.4728
-14.4728
-14.4727
-14.9634
-14.9634
-14.9635
-14.9635
-14.9636
-14.9637
-14.9638
-14.9639
-14.9641
-14.9642
-14.9644
-14.9645
-14.9647
-14.9649
-14.9651
-14.9653
-14.9655
-14.9657
-14.966
-14.9663
-14.9667
-14.9674
-14.9684
-14.9698
-14.9722
-14.9761
-14.9823
-14.9915
-15.0019
-15.0105
-15.0126
-15.0082
-15.0009
-14.9975
-14.9985
-14.9982
-14.9901
-14.9726
-14.9501
-14.9338
-14.9375
-14.9581
-14.9766
-14.9875
-14.9918
-14.993
-14.9965
-15.0026
-15.0082
-15.0099
-15.0052
-14.9967
-14.9876
-14.9794
-14.9736
-14.9703
-14.9683
-14.9672
-14.9664
-14.966
-14.9657
-14.9655
-14.9653
-14.9651
-14.965
-14.9648
-14.9647
-14.9645
-14.9644
-14.9642
-14.9641
-14.9639
-14.9638
-14.9636
-14.9635
-14.9634
-14.9633
-14.9633
-14.9632
-14.9632
-15.4539
-15.4539
-15.4539
-15.454
-15.4541
-15.4542
-15.4543
-15.4544
-15.4545
-15.4547
-15.4548
-15.455
-15.4552
-15.4553
-15.4555
-15.4557
-15.456
-15.4562
-15.4565
-15.4569
-15.4575
-15.4582
-15.4593
-15.4607
-15.463
-15.4662
-15.4707
-15.4765
-15.483
-15.4887
-15.4915
-15.4908
-15.4883
-15.4879
-15.4925
-15.497
-15.4955
-15.4854
-15.4683
-15.4528
-15.4523
-15.4654
-15.4767
-15.4815
-15.4819
-15.4812
-15.4825
-15.4853
-15.4873
-15.4866
-15.4829
-15.4776
-15.472
-15.4671
-15.4634
-15.4607
-15.459
-15.4579
-15.4571
-15.4566
-15.4562
-15.456
-15.4558
-15.4556
-15.4554
-15.4553
-15.4551
-15.4549
-15.4548
-15.4546
-15.4545
-15.4543
-15.4542
-15.4541
-15.454
-15.4539
-15.4538
-15.4537
-15.4537
-15.4537
-15.9444
-15.9444
-15.9444
-15.9445
-15.9445
-15.9446
-15.9447
-15.9448
-15.945
-15.9451
-15.9453
-15.9454
-15.9456
-15.9458
-15.946
-15.9462
-15.9464
-15.9467
-15.9471
-15.9475
-15.9481
-15.9488
-15.9499
-15.9513
-15.9533
-15.956
-15.9594
-15.9635
-15.968
-15.9721
-15.975
-15.9762
-15.9766
-15.9785
-15.984
-15.9904
-15.9922
-15.9862
-15.9729
-15.9583
-15.9529
-15.9586
-15.9645
-15.9668
-15.9668
-15.9667
-15.9676
-15.969
-15.9695
-15.9684
-15.9658
-15.9624
-15.9588
-15.9555
-15.9529
-15.9509
-15.9494
-15.9483
-15.9476
-15.9471
-15.9467
-15.9464
-15.9462
-15.946
-15.9458
-15.9457
-15.9455
-15.9454
-15.9452
-15.945
-15.9449
-15.9448
-15.9446
-15.9445
-15.9444
-15.9443
-15.9442
-15.9442
-15.9441
-15.9441
-16.4348
-16.4348
-16.4349
-16.4349
-16.435
-16.4351
-16.4352
-16.4353
-16.4354
-16.4356
-16.4357
-16.4359
-16.436
-16.4362
-16.4364
-16.4366
-16.4369
-16.4372
-16.4375
-16.438
-16.4386
-16.4393
-16.4403
-16.4416
-16.4433
-16.4455
-16.4482
-16.4513
-16.4546
-16.4577
-16.4601
-16.4619
-16.4634
-16.4658
-16.4705
-16.4765
-16.4792
-16.4751
-16.4646
-16.4512
-16.4426
-16.4426
-16.4456
-16.4476
-16.4491
-16.4506
-16.4521
-16.4532
-16.4534
-16.4527
-16.4511
-16.4489
-16.4465
-16.4443
-16.4423
-16.4408
-16.4396
-16.4387
-16.438
-16.4375
-16.4371
-16.4368
-16.4366
-16.4364
-16.4362
-16.4361
-16.4359
-16.4358
-16.4356
-16.4355
-16.4353
-16.4352
-16.4351
-16.4349
-16.4348
-16.4347
-16.4347
-16.4346
-16.4346
-16.4346
-16.9253
-16.9253
-16.9253
-16.9254
-16.9254
-16.9255
-16.9256
-16.9257
-16.9258
-16.926
-16.9261
-16.9263
-16.9264
-16.9266
-16.9268
-16.927
-16.9273
-16.9276
-16.928
-16.9284
-16.9289
-16.9296
-16.9305
-16.9317
-16.9331
-16.9348
-16.9369
-16.9392
-16.9416
-16.9439
-16.9459
-16.9474
-16.9489
-16.9507
-16.9536
-16.9573
-16.9592
-16.9562
-16.9475
-16.9364
-16.9268
-16.9238
-16.9259
-16.9289
-16.932
-16.9346
-16.9367
-16.9381
-16.9386
-16.9383
-16.9375
-16.9361
-16.9346
-16.9331
-16.9317
-16.9305
-16.9296
-16.9288
-16.9283
-16.9278
-16.9275
-16.9272
-16.927
-16.9268
-16.9266
-16.9264
-16.9263
-16.9261
-16.926
-16.9259
-16.9257
-16.9256
-16.9255
-16.9254
-16.9253
-16.9252
-16.9251
-16.9251
-16.925
-16.925
-17.4157
-17.4157
-17.4158
-17.4158
-17.4159
-17.416
-17.416
-17.4161
-17.4163
-17.4164
-17.4165
-17.4167
-17.4168
-17.417
-17.4172
-17.4174
-17.4177
-17.418
-17.4183
-17.4187
-17.4192
-17.4198
-17.4206
-17.4215
-17.4227
-17.4241
-17.4256
-17.4274
-17.4291
-17.4307
-17.4321
-17.4332
-17.434
-17.4349
-17.436
-17.4373
-17.4374
-17.4343
-17.4273
-17.4184
-17.4098
-17.406
-17.4082
-17.4122
-17.4163
-17.4197
-17.4222
-17.4238
-17.4247
-17.4249
-17.4246
-17.4239
-17.4229
-17.422
-17.421
-17.4202
-17.4195
-17.4189
-17.4184
-17.4181
-17.4178
-17.4175
-17.4173
-17.4171
-17.417
-17.4168
-17.4167
-17.4165
-17.4164
-17.4162
-17.4161
-17.416
-17.4159
-17.4158
-17.4157
-17.4156
-17.4155
-17.4155
-17.4155
-17.4155
-17.9062
-17.9062
-17.9062
-17.9062
-17.9063
-17.9064
-17.9065
-17.9066
-17.9067
-17.9068
-17.9069
-17.9071
-17.9072
-17.9074
-17.9076
-17.9078
-17.908
-17.9083
-17.9086
-17.909
-17.9094
-17.9099
-17.9106
-17.9113
-17.9123
-17.9133
-17.9145
-17.9157
-17.9169
-17.9179
-17.9188
-17.9193
-17.9196
-17.9196
-17.9193
-17.9187
-17.9171
-17.9136
-17.9077
-17.9008
-17.8942
-17.8909
-17.8934
-17.8979
-17.9024
-17.9061
-17.9087
-17.9105
-17.9116
-17.9122
-17.9123
-17.912
-17.9116
-17.911
-17.9104
-17.9098
-17.9093
-17.9089
-17.9086
-17.9083
-17.908
-17.9078
-17.9076
-17.9074
-17.9073
-17.9072
-17.907
-17.9069
-17.9068
-17.9066
-17.9065
-17.9064
-17.9063
-17.9062
-17.9061
-17.906
-17.906
-17.9059
-17.9059
-17.9059
-18.3966
-18.3966
-18.3966
-18.3967
-18.3967
-18.3968
-18.3969
-18.397
-18.3971
-18.3972
-18.3973
-18.3975
-18.3976
-18.3978
-18.3979
-18.3981
-18.3983
-18.3986
-18.3988
-18.3992
-18.3995
-18.4
-18.4005
-18.4011
-18.4018
-18.4025
-18.4033
-18.4042
-18.4049
-18.4055
-18.4059
-18.406
-18.4058
-18.4051
-18.404
-18.4023
-18.3997
-18.3958
-18.3906
-18.3853
-18.3807
-18.3783
-18.381
-18.3856
-18.39
-18.3935
-18.3962
-18.398
-18.3993
-18.4001
-18.4005
-18.4006
-18.4004
-18.4002
-18.3998
-18.3995
-18.3992
-18.3989
-18.3986
-18.3984
-18.3982
-18.398
-18.3979
-18.3977
-18.3976
-18.3975
-18.3974
-18.3972
-18.3971
-18.397
-18.3969
-18.3968
-18.3967
-18.3966
-18.3965
-18.3965
-18.3964
-18.3964
-18.3963
-18.3963
-18.887
-18.887
-18.8871
-18.8871
-18.8872
-18.8872
-18.8873
-18.8874
-18.8875
-18.8876
-18.8877
-18.8878
-18.888
-18.8881
-18.8882
-18.8884
-18.8886
-18.8888
-18.889
-18.8893
-18.8896
-18.89
-18.8904
-18.8908
-18.8913
-18.8918
-18.8924
-18.8929
-18.8933
-18.8935
-18.8935
-18.8933
-18.8927
-18.8916
-18.8901
-18.8879
-18.8848
-18.8809
-18.8763
-18.8722
-18.8691
-18.868
-18.8706
-18.8748
-18.8788
-18.882
-18.8844
-18.8862
-18.8876
-18.8885
-18.8891
-18.8894
-18.8895
-18.8895
-18.8894
-18.8892
-18.889
-18.8889
-18.8887
-18.8885
-18.8884
-18.8883
-18.8881
-18.888
-18.8879
-18.8878
-18.8877
-18.8876
-18.8875
-18.8874
-18.8873
-18.8872
-18.8871
-18.887
-18.8869
-18.8869
-18.8868
-18.8868
-18.8868
-18.8867
-19.3774
-19.3775
-19.3775
-19.3775
-19.3776
-19.3776
-19.3777
-19.3778
-19.3779
-19.378
-19.3781
-19.3782
-19.3783
-19.3784
-19.3786
-19.3787
-19.3789
-19.379
-19.3792
-19.3795
-19.3797
-19.38
-19.3802
-19.3806
-19.3809
-19.3812
-19.3815
-19.3817
-19.3819
-19.3818
-19.3816
-19.3811
-19.3803
-19.379
-19.3773
-19.375
-19.372
-19.3683
-19.3643
-19.361
-19.359
-19.3589
-19.3614
-19.3649
-19.3683
-19.3711
-19.3733
-19.375
-19.3764
-19.3774
-19.3781
-19.3785
-19.3788
-19.3789
-19.379
-19.379
-19.3789
-19.3788
-19.3787
-19.3787
-19.3786
-19.3785
-19.3784
-19.3783
-19.3782
-19.3781
-19.378
-19.3779
-19.3778
-19.3777
-19.3777
-19.3776
-19.3775
-19.3774
-19.3773
-19.3773
-19.3772
-19.3772
-19.3772
-19.3772
-19.8679
-19.8679
-19.8679
-19.8679
-19.868
-19.868
-19.8681
-19.8682
-19.8683
-19.8683
-19.8684
-19.8685
-19.8686
-19.8687
-19.8689
-19.869
-19.8691
-19.8693
-19.8694
-19.8696
-19.8697
-19.8699
-19.8701
-19.8703
-19.8705
-19.8707
-19.8708
-19.8708
-19.8708
-19.8705
-19.8701
-19.8694
-19.8685
-19.8672
-19.8655
-19.8633
-19.8605
-19.8572
-19.8538
-19.8511
-19.8499
-19.8504
-19.8527
-19.8556
-19.8584
-19.8607
-19.8627
-19.8643
-19.8656
-19.8666
-19.8673
-19.8679
-19.8683
-19.8685
-19.8687
-19.8688
-19.8688
-19.8688
-19.8688
-19.8688
-19.8687
-19.8687
-19.8686
-19.8686
-19.8685
-19.8684
-19.8683
-19.8683
-19.8682
-19.8681
-19.868
-19.8679
-19.8679
-19.8678
-19.8677
-19.8677
-19.8676
-19.8676
-19.8676
-19.8676
-20.3583
-20.3583
-20.3583
-20.3583
-20.3584
-20.3584
-20.3585
-20.3586
-20.3586
-20.3587
-20.3588
-20.3589
-20.359
-20.3591
-20.3592
-20.3593
-20.3594
-20.3595
-20.3596
-20.3597
-20.3598
-20.3599
-20.36
-20.3601
-20.3602
-20.3602
-20.3602
-20.3601
-20.3599
-20.3595
-20.359
-20.3582
-20.3572
-20.3559
-20.3544
-20.3524
-20.35
-20.3471
-20.3443
-20.3421
-20.3413
-20.3422
-20.3442
-20.3466
-20.3488
-20.3508
-20.3525
-20.3539
-20.3551
-20.3561
-20.3569
-20.3575
-20.3579
-20.3583
-20.3585
-20.3587
-20.3588
-20.3589
-20.3589
-20.3589
-20.3589
-20.3589
-20.3589
-20.3588
-20.3588
-20.3587
-20.3587
-20.3586
-20.3585
-20.3585
-20.3584
-20.3583
-20.3583
-20.3582
-20.3581
-20.3581
-20.3581
-20.358
-20.358
-20.358
-20.8487
-20.8487
-20.8487
-20.8488
-20.8488
-20.8488
-20.8489
-20.8489
-20.849
-20.8491
-20.8491
-20.8492
-20.8493
-20.8494
-20.8494
-20.8495
-20.8496
-20.8497
-20.8498
-20.8498
-20.8499
-20.8499
-20.85
-20.85
-20.85
-20.8499
-20.8498
-20.8496
-20.8493
-20.8488
-20.8482
-20.8474
-20.8464
-20.8452
-20.8438
-20.8421
-20.84
-20.8376
-20.8352
-20.8335
-20.8331
-20.8341
-20.8357
-20.8376
-20.8394
-20.8411
-20.8426
-20.8438
-20.8449
-20.8459
-20.8466
-20.8473
-20.8477
-20.8481
-20.8484
-20.8486
-20.8488
-20.8489
-20.849
-20.8491
-20.8491
-20.8491
-20.8491
-20.8491
-20.8491
-20.849
-20.849
-20.8489
-20.8489
-20.8488
-20.8488
-20.8487
-20.8487
-20.8486
-20.8486
-20.8485
-20.8485
-20.8485
-20.8484
-20.8484
-21.3391
-21.3391
-21.3391
-21.3392
-21.3392
-21.3392
-21.3393
-21.3393
-21.3394
-21.3394
-21.3395
-21.3396
-21.3396
-21.3397
-21.3397
-21.3398
-21.3398
-21.3399
-21.3399
-21.34
-21.34
-21.34
-21.34
-21.3399
-21.3399
-21.3397
-21.3395
-21.3392