/*--------------------------------*- C++ -*----------------------------------*\
| =========                 |                                                 |
| \\      /  F ield         | OpenFOAM: The Open Source CFD Toolbox           |
|  \\    /   O peration     | Version:  2412                                  |
|   \\  /    A nd           | Website:  www.openfoam.com                      |
|    \\/     M anipulation  |                                                 |
\*---------------------------------------------------------------------------*/
FoamFile
{
    version     2.0;
    format      ascii;
    arch        "LSB;label=32;scalar=64";
    class       surfaceScalarField;
    location    "0.25";
    object      phi;
}
// * * * * * * * * * * * * * * * * * * * * * * * * * * * * * * * * * * * * * //

dimensions      [0 3 -1 0 0 0 0];

oriented        oriented;

internalField   nonuniform List<scalar> 
12640
(
-5.79585e-10
2.97247e-10
-7.46052e-10
2.46733e-10
-1.39566e-09
1.84007e-10
-1.26815e-09
3.2664e-10
-1.42142e-09
4.09824e-11
-1.45272e-09
4.34611e-11
-1.13341e-09
1.16105e-10
-9.87911e-10
8.52686e-11
-1.02265e-09
2.00855e-11
-1.03255e-09
2.84545e-11
-1.06349e-09
1.59376e-10
-5.54044e-10
3.08208e-10
3.81893e-10
2.55176e-10
1.32611e-09
1.06185e-10
2.33347e-09
1.51234e-10
3.42935e-09
3.23164e-10
4.33025e-09
3.61317e-10
4.90191e-09
2.7469e-10
5.30535e-09
2.69554e-10
5.69517e-09
4.2102e-10
6.0527e-09
6.07323e-10
6.28802e-09
6.78719e-10
6.35523e-09
5.89704e-10
6.26466e-09
3.97491e-10
6.0532e-09
1.98559e-10
5.76074e-09
7.51977e-11
5.40831e-09
6.52803e-11
4.97918e-09
1.51854e-10
4.41944e-09
2.77002e-10
3.66117e-09
3.74457e-10
2.65557e-09
4.00112e-10
1.40399e-09
3.44463e-10
-2.30997e-11
2.27806e-10
-1.49305e-09
8.64357e-11
-2.85114e-09
-4.42894e-11
-3.97652e-09
-1.44811e-10
-4.81892e-09
-2.17025e-10
-5.39241e-09
-2.76873e-10
-5.73517e-09
-3.39246e-10
-5.86818e-09
-4.06697e-10
-5.78047e-09
-4.69733e-10
-5.44392e-09
-5.16041e-10
-4.83922e-09
-5.39216e-10
-3.97324e-09
-5.39516e-10
-2.88141e-09
-5.17493e-10
-1.62193e-09
-4.67785e-10
-2.69982e-10
-3.79666e-10
1.08732e-09
-2.4459e-10
2.3606e-09
-6.48835e-11
3.47589e-09
1.42958e-10
4.39534e-09
3.52642e-10
5.12985e-09
5.37206e-10
5.7343e-09
6.7793e-10
6.28451e-09
7.69295e-10
6.84401e-09
8.18438e-10
7.43362e-09
8.39176e-10
8.0162e-09
8.42462e-10
8.50447e-09
8.27813e-10
8.79138e-09
7.81687e-10
8.79185e-09
6.85623e-10
8.47718e-09
5.29477e-10
7.88662e-09
3.19779e-10
7.11383e-09
7.68282e-11
6.28027e-09
-1.7483e-10
5.50861e-09
-4.10998e-10
4.89643e-09
-6.02809e-10
4.4817e-09
-7.13541e-10
4.20461e-09
-7.14365e-10
3.89996e-09
-6.1735e-10
3.35897e-09
-4.94612e-10
2.45207e-09
-4.46447e-10
1.23196e-09
-5.23017e-10
-6.29094e-11
-6.5726e-10
-1.10757e-09
-6.98814e-10
-1.60879e-09
-5.70018e-10
-1.43858e-09
-4.48945e-10
-7.86451e-10
-6.48882e-10
1.98449e-11
-1.33126e-09
4.13238e-10
-2.17564e-09
-1.68513e-09
-6.4678e-10
-2.94611e-11
-8.17635e-10
3.43154e-10
-1.43024e-09
2.86627e-10
-1.6885e-09
7.47707e-10
-1.62727e-09
8.44863e-10
-1.69752e-09
6.35442e-10
-1.41122e-09
4.63051e-10
-1.23086e-09
3.7858e-10
-1.13963e-09
3.68542e-10
-8.99867e-10
4.88415e-10
-7.54517e-10
5.3278e-10
-9.65376e-11
4.9619e-10
1.27534e-09
5.12948e-10
2.96109e-09
5.29576e-10
4.62021e-09
4.53235e-10
6.06859e-09
3.28686e-10
7.21885e-09
2.60834e-10
8.12864e-09
3.47121e-10
8.91391e-09
6.15646e-10
9.57033e-09
9.7069e-10
9.97197e-09
1.23975e-09
1.00233e-08
1.29708e-09
9.74235e-09
1.14971e-09
9.21905e-09
9.25512e-10
8.54364e-09
7.84901e-10
7.76541e-09
8.19806e-10
6.88286e-09
1.0041e-09
5.85439e-09
1.22098e-09
4.62122e-09
1.33893e-09
3.13211e-09
1.28062e-09
1.36786e-09
1.04699e-09
-6.31669e-10
6.97186e-10
-2.74946e-09
3.08809e-10
-4.80666e-09
-5.71747e-11
-6.61837e-09
-3.73959e-10
-8.05964e-09
-6.46521e-10
-9.09642e-09
-8.94745e-10
-9.76201e-09
-1.13328e-09
-1.01023e-08
-1.36023e-09
-1.01328e-08
-1.56043e-09
-9.83409e-09
-1.71825e-09
-9.17639e-09
-1.82885e-09
-8.14921e-09
-1.89889e-09
-6.77463e-09
-1.93741e-09
-5.1046e-09
-1.94543e-09
-3.21362e-09
-1.91336e-09
-1.19413e-09
-1.82829e-09
8.48636e-10
-1.68523e-09
2.8101e-09
-1.4934e-09
4.60884e-09
-1.27329e-09
6.20836e-09
-1.04725e-09
7.62453e-09
-8.30184e-10
8.91237e-09
-6.25695e-10
1.01359e-08
-4.28689e-10
1.13329e-08
-2.32515e-10
1.24876e-08
-3.76146e-11
1.3523e-08
1.42048e-10
1.43186e-08
2.79376e-10
1.47514e-08
3.44334e-10
1.47425e-08
3.20872e-10
1.42858e-08
2.20188e-10
1.34461e-08
7.94697e-11
1.23351e-08
-5.44583e-11
1.1087e-08
-1.4421e-10
9.84447e-09
-1.69782e-10
8.7371e-09
-1.25192e-10
7.82701e-09
-1.80718e-11
7.04028e-09
1.19405e-10
6.1559e-09
2.2387e-10
4.91939e-09
2.23744e-10
3.23997e-09
8.50942e-11
1.31661e-09
-1.59966e-10
-4.61162e-10
-4.21779e-10
-1.7707e-09
-5.5242e-10
-2.50999e-09
-3.73527e-10
-2.70323e-09
1.05735e-10
-2.39324e-09
4.20911e-10
-1.34132e-09
-1.3642e-10
6.18639e-10
-1.80848e-09
-2.33946e-09
-4.81295e-10
-2.19289e-10
-8.2933e-10
1.93289e-10
-7.34885e-10
5.99461e-10
-1.10755e-09
7.6538e-10
-1.24596e-09
8.15253e-10
-1.29414e-09
6.00648e-10
-8.69847e-10
4.27474e-10
-5.19293e-10
2.8239e-10
-2.20292e-10
1.78969e-10
1.88791e-11
3.87386e-10
1.44533e-10
7.49244e-10
8.85421e-10
9.8854e-10
2.27332e-09
1.01134e-09
3.84361e-09
9.51133e-10
5.38038e-09
9.39339e-10
6.78094e-09
9.64454e-10
7.96613e-09
9.88615e-10
8.94545e-09
1.06018e-09
9.74793e-09
1.23709e-09
1.03081e-08
1.46137e-09
1.05187e-08
1.58786e-09
1.03717e-08
1.53021e-09
9.98049e-09
1.34776e-09
9.47113e-09
1.19391e-09
8.8821e-09
1.19158e-09
8.16082e-09
1.34538e-09
7.22971e-09
1.54639e-09
6.04874e-09
1.64831e-09
4.62909e-09
1.55181e-09
3.00737e-09
1.24561e-09
1.22305e-09
7.92848e-10
-6.72432e-10
2.85848e-10
-2.59036e-09
-1.98735e-10
-4.4015e-09
-6.23335e-10
-5.97152e-09
-9.87794e-10
-7.21066e-09
-1.31112e-09
-8.09748e-09
-1.61e-09
-8.66044e-09
-1.88593e-09
-8.93622e-09
-2.12609e-09
-8.93842e-09
-2.31482e-09
-8.65439e-09
-2.44615e-09
-8.06326e-09
-2.52838e-09
-7.15624e-09
-2.57804e-09
-5.94724e-09
-2.60877e-09
-4.47507e-09
-2.62405e-09
-2.8035e-09
-2.61879e-09
-1.01973e-09
-2.58732e-09
7.74316e-10
-2.53047e-09
2.48137e-09
-2.45555e-09
4.03351e-09
-2.36972e-09
5.4094e-09
-2.27253e-09
6.63383e-09
-2.15366e-09
7.75855e-09
-1.99774e-09
8.83208e-09
-1.79338e-09
9.87016e-09
-1.54179e-09
1.08378e-08
-1.26159e-09
1.1652e-08
-9.86689e-10
1.22073e-08
-7.55673e-10
1.24169e-08
-5.94396e-10
1.22464e-08
-4.99856e-10
1.17222e-08
-4.36975e-10
1.0912e-08
-3.54034e-10
9.89995e-09
-2.08757e-10
8.77988e-09
1.23293e-11
7.66035e-09
2.91779e-10
6.64771e-09
5.88527e-10
5.78556e-09
8.39279e-10
4.98865e-09
9.57713e-10
4.05381e-09
8.61356e-10
2.78552e-09
5.39956e-10
1.17198e-09
1.11377e-10
-5.32474e-10
-2.33061e-10
-1.90634e-09
-3.96256e-10
-2.64662e-09
-4.88029e-10
-2.83376e-09
-6.84409e-10
-2.89433e-09
-1.01737e-09
-3.16107e-09
-1.48098e-09
-2.93436e-09
-1.93555e-09
-1.74677e-10
-2.72098e-09
-2.64537e-09
-3.76159e-10
-4.64837e-10
-5.47781e-10
-3.24966e-10
-4.13588e-10
4.43785e-10
-5.67514e-10
7.75517e-10
-7.54729e-10
6.57822e-10
-6.88984e-10
3.02625e-10
-1.82679e-10
1.10065e-10
2.57918e-10
2.14375e-10
8.78538e-10
4.2898e-10
1.2547e-09
7.97572e-10
1.2364e-09
1.2145e-09
1.69969e-09
1.63589e-09
2.87803e-09
1.94713e-09
4.31085e-09
2.08834e-09
5.67724e-09
2.14418e-09
6.87781e-09
2.19559e-09
7.91793e-09
2.27141e-09
8.82261e-09
2.38003e-09
9.53555e-09
2.49615e-09
9.93113e-09
2.54233e-09
9.96354e-09
2.44723e-09
9.75732e-09
2.23054e-09
9.5085e-09
2.00832e-09
9.30808e-09
1.9083e-09
9.07409e-09
1.97582e-09
8.63742e-09
2.14476e-09
7.87979e-09
2.2834e-09
6.80549e-09
2.27378e-09
5.51031e-09
2.07043e-09
4.0987e-09
1.70886e-09
2.62825e-09
1.26994e-09
1.11974e-09
8.31238e-10
-3.9459e-10
4.35073e-10
-1.8407e-09
8.4863e-11
-3.11953e-09
-2.3761e-10
-4.15163e-09
-5.49979e-10
-4.90838e-09
-8.55466e-10
-5.40716e-09
-1.14264e-09
-5.68095e-09
-1.39553e-09
-5.74931e-09
-1.60585e-09
-5.6086e-09
-1.77916e-09
-5.24052e-09
-1.93117e-09
-4.62775e-09
-2.07761e-09
-3.7682e-09
-2.22496e-09
-2.68575e-09
-2.36864e-09
-1.43649e-09
-2.4993e-09
-1.06499e-10
-2.61171e-09
1.20302e-09
-2.70924e-09
2.40102e-09
-2.80037e-09
3.43169e-09
-2.89036e-09
4.28681e-09
-2.97406e-09
4.99945e-09
-3.03488e-09
5.62229e-09
-3.0502e-09
6.19957e-09
-3.00074e-09
6.74285e-09
-2.87989e-09
7.21972e-09
-2.69942e-09
7.56327e-09
-2.48753e-09
7.70152e-09
-2.27738e-09
7.59275e-09
-2.08938e-09
7.24375e-09
-1.91761e-09
6.69789e-09
-1.73132e-09
6.00611e-09
-1.4934e-09
5.21148e-09
-1.18435e-09
4.36261e-09
-8.15845e-10
3.53103e-09
-4.28524e-10
2.78987e-09
-8.37442e-11
2.15115e-09
1.40478e-10
1.52616e-09
1.59616e-10
7.75288e-10
-7.82704e-11
-1.78134e-10
-5.27013e-10
-1.2813e-09
-1.00706e-09
-2.37456e-09
-1.27308e-09
-3.25899e-09
-1.19381e-09
-3.71944e-09
-9.293e-10
-3.6563e-09
-9.02535e-10
-3.40211e-09
-1.4564e-09
-3.28228e-09
-2.55044e-09
-3.28968e-09
-3.51875e-09
-6.84805e-10
-3.88832e-09
-2.86026e-09
-5.04332e-10
-4.86121e-10
-1.54223e-10
-2.81768e-10
-1.70687e-10
3.71481e-10
-4.37874e-10
8.80433e-10
-6.55093e-10
7.82218e-10
-4.36035e-10
4.78451e-10
3.08151e-10
3.50882e-10
7.97897e-10
4.92353e-10
1.50059e-09
7.75145e-10
1.8438e-09
1.22105e-09
1.73967e-09
1.71852e-09
1.97908e-09
2.22397e-09
2.85739e-09
2.66796e-09
4.05738e-09
3.00756e-09
5.26375e-09
3.27096e-09
6.34191e-09
3.46009e-09
7.28024e-09
3.55923e-09
8.07658e-09
3.57351e-09
8.64062e-09
3.50832e-09
8.86875e-09
3.35489e-09
8.81086e-09
3.12213e-09
8.68568e-09
2.86596e-09
8.6982e-09
2.66756e-09
8.85559e-09
2.5774e-09
8.96184e-09
2.57673e-09
8.77628e-09
2.58691e-09
8.18495e-09
2.51677e-09
7.25406e-09
2.31369e-09
6.14973e-09
1.98545e-09
5.01118e-09
1.58359e-09
3.8815e-09
1.16625e-09
2.73425e-09
7.68258e-10
1.55083e-09
3.94828e-10
3.72736e-10
3.51052e-11
-7.0931e-10
-3.19464e-10
-1.60768e-09
-6.64918e-10
-2.28228e-09
-9.86369e-10
-2.74607e-09
-1.2675e-09
-3.03711e-09
-1.5009e-09
-3.18427e-09
-1.69341e-09
-3.18879e-09
-1.86364e-09
-3.02704e-09
-2.0329e-09
-2.66759e-09
-2.2145e-09
-2.09273e-09
-2.40757e-09
-1.3171e-09
-2.5991e-09
-3.96461e-10
-2.77277e-09
5.78765e-10
-2.91902e-09
1.5059e-09
-3.03997e-09
2.30005e-09
-3.14673e-09
2.91819e-09
-3.25113e-09
3.36622e-09
-3.3568e-09
3.68717e-09
-3.4539e-09
3.93687e-09
-3.52005e-09
4.15662e-09
-3.52746e-09
4.35264e-09
-3.45474e-09
4.49145e-09
-3.29767e-09
4.51698e-09
-3.07251e-09
4.38396e-09
-2.80799e-09
4.08743e-09
-2.52993e-09
3.66487e-09
-2.24945e-09
3.16714e-09
-1.96365e-09
2.62394e-09
-1.66721e-09
2.03945e-09
-1.36417e-09
1.42273e-09
-1.07128e-09
8.12894e-10
-8.16212e-10
2.55523e-10
-6.3877e-10
-2.53602e-10
-5.91096e-10
-7.81321e-10
-7.19683e-10
-1.38207e-09
-1.02763e-09
-2.01373e-09
-1.45218e-09
-2.56701e-09
-1.8867e-09
-3.00404e-09
-2.22432e-09
-3.42127e-09
-2.38144e-09
-3.87145e-09
-2.33763e-09
-4.08997e-09
-2.27151e-09
-3.93596e-09
-2.58608e-09
-3.27552e-09
-3.46714e-09
-2.79387e-09
-4.46801e-09
-6.31643e-10
-4.91053e-09
-3.33662e-09
-5.61324e-10
-2.27941e-10
-8.03848e-11
3.90276e-10
-6.12952e-11
1.08853e-09
-5.75434e-10
1.64562e-09
-7.82097e-10
1.66681e-09
-4.5993e-10
1.34367e-09
3.92037e-10
1.26148e-09
8.81186e-10
1.4325e-09
1.5989e-09
1.67379e-09
1.8599e-09
1.93459e-09
1.64807e-09
2.26168e-09
1.71781e-09
2.75215e-09
2.39043e-09
3.32181e-09
3.41458e-09
3.81289e-09
4.45531e-09
4.13321e-09
5.37202e-09
4.23995e-09
6.17307e-09
4.14759e-09
6.85579e-09
3.93474e-09
7.32394e-09
3.68319e-09
7.50018e-09
3.43155e-09
7.48376e-09
3.19003e-09
7.51765e-09
2.969e-09
7.77549e-09
2.77896e-09
8.1947e-09
2.61238e-09
8.51653e-09
2.4363e-09
8.4818e-09
2.20726e-09
8.00703e-09
1.89722e-09
7.21055e-09
1.51006e-09
6.29478e-09
1.07585e-09
5.39854e-09
6.29018e-10
4.53445e-09
1.88834e-10
3.63895e-09
-2.43422e-10
2.66993e-09
-6.72188e-10
1.66454e-09
-1.0934e-09
7.20857e-10
-1.48979e-09
-6.59984e-11
-1.83728e-09
-6.56175e-10
-2.11602e-09
-1.07155e-09
-2.31898e-09
-1.36287e-09
-2.45467e-09
-1.56781e-09
-2.54412e-09
-1.68645e-09
-2.61371e-09
-1.68289e-09
-2.68616e-09
-1.50718e-09
-2.77258e-09
-1.1253e-09
-2.8696e-09
-5.44687e-10
-2.96325e-09
1.7576e-10
-3.03823e-09
9.37135e-10
-3.08735e-09
1.63052e-09
-3.11592e-09
2.17265e-09
-3.13869e-09
2.53091e-09
-3.17104e-09
2.72709e-09
-3.21877e-09
2.82001e-09
-3.27139e-09
2.87512e-09
-3.30235e-09
2.9333e-09
-3.27784e-09
2.99086e-09
-3.1713e-09
3.00203e-09
-2.97662e-09
2.90647e-09
-2.71196e-09
2.66885e-09
-2.41069e-09
2.30422e-09
-2.10578e-09
1.86744e-09
-1.81885e-09
1.41295e-09
-1.56054e-09
9.59706e-10
-1.33792e-09
4.94444e-10
-1.15879e-09
7.38637e-12
-1.0303e-09
-4.84419e-10
-9.60403e-10
-9.57602e-10
-9.67472e-10
-1.4193e-09
-1.08214e-09
-1.89987e-09
-1.31821e-09
-2.39391e-09
-1.63267e-09
-2.81771e-09
-1.94234e-09
-3.06303e-09
-2.21746e-09
-3.122e-09
-2.53527e-09
-3.17533e-09
-2.9705e-09
-3.45248e-09
-3.39508e-09
-3.81634e-09
-3.5516e-09
-3.7672e-09
-3.57247e-09
-2.73597e-09
-3.92704e-09
-1.89561e-09
-4.90117e-09
-2.26971e-10
-5.78061e-09
-4.18309e-09
-3.71331e-10
4.13799e-10
-9.31218e-11
1.23309e-09
-1.01653e-10
2.18806e-09
-7.06105e-10
2.82992e-09
-9.42463e-10
2.98207e-09
-4.46839e-10
2.68442e-09
4.54949e-10
2.52293e-09
8.41217e-10
2.47295e-09
1.41207e-09
2.4622e-09
1.59224e-09
2.4426e-09
1.41656e-09
2.54438e-09
1.46441e-09
2.93446e-09
1.98072e-09
3.52295e-09
2.76116e-09
4.06529e-09
3.5214e-09
4.37017e-09
4.18978e-09
4.38437e-09
4.84264e-09
4.18366e-09
5.48129e-09
3.90458e-09
5.96949e-09
3.64866e-09
6.20345e-09
3.43955e-09
6.28107e-09
3.25144e-09
6.44329e-09
3.05162e-09
6.84506e-09
2.81624e-09
7.3983e-09
2.5272e-09
7.8323e-09
2.1709e-09
7.89964e-09
1.74515e-09
7.54339e-09
1.2653e-09
6.90219e-09
7.59793e-10
6.17707e-09
2.55227e-10
5.4862e-09
-2.37233e-10
4.81872e-09
-7.21975e-10
4.09993e-09
-1.2052e-09
3.29115e-09
-1.67952e-09
2.43848e-09
-2.12013e-09
1.64358e-09
-2.49494e-09
9.95098e-10
-2.78066e-09
5.18739e-10
-2.97353e-09
1.76721e-10
-3.09018e-09
-9.35882e-11
-3.16044e-09
-3.33607e-10
-3.21725e-09
-5.37248e-10
-3.28725e-09
-6.54115e-10
-3.38363e-09
-6.16437e-10
-3.50257e-09
-3.76045e-10
-3.62531e-09
6.48137e-11
-3.72635e-09
6.42988e-10
-3.78519e-09
1.2507e-09
-3.79618e-09
1.77271e-09
-3.77106e-09
2.12749e-09
-3.73239e-09
2.29375e-09
-3.70098e-09
2.311e-09
-3.68301e-09
2.25551e-09
-3.66348e-09
2.20214e-09
-3.61004e-09
2.18772e-09
-3.48717e-09
2.19262e-09
-3.27433e-09
2.15237e-09
-2.97856e-09
1.99706e-09
-2.63335e-09
1.69669e-09
-2.28432e-09
1.28122e-09
-1.97143e-09
8.18476e-10
-1.71932e-09
3.66785e-10
-1.53879e-09
-5.74392e-11
-1.43194e-09
-4.70818e-10
-1.39129e-09
-8.89859e-10
-1.39496e-09
-1.31445e-09
-1.41216e-09
-1.74003e-09
-1.42522e-09
-2.16365e-09
-1.44792e-09
-2.56609e-09
-1.51006e-09
-2.90612e-09
-1.61564e-09
-3.15054e-09
-1.73605e-09
-3.28725e-09
-1.8758e-09
-3.31219e-09
-2.13169e-09
-3.23147e-09
-2.59946e-09
-3.12172e-09
-3.1583e-09
-3.1007e-09
-3.44605e-09
-2.83643e-09
-3.38552e-09
-1.75546e-09
-3.58337e-09
-1.01564e-09
-4.93432e-09
9.5315e-11
-6.43923e-09
-4.88291e-09
-2.7091e-10
1.29756e-09
-1.10338e-11
2.32973e-09
-2.14568e-10
3.33485e-09
-7.38937e-10
4.1555e-09
-9.90645e-10
4.35352e-09
-3.73766e-10
4.04355e-09
4.4155e-10
3.70069e-09
6.84633e-10
3.33897e-09
1.09128e-09
3.03292e-09
1.27255e-09
2.7676e-09
1.2769e-09
2.69632e-09
1.4377e-09
2.96871e-09
1.84739e-09
3.48432e-09
2.33683e-09
3.99211e-09
2.75749e-09
4.29539e-09
3.1737e-09
4.36002e-09
3.72666e-09
4.28572e-09
4.38509e-09
4.19573e-09
4.93659e-09
4.14456e-09
5.22754e-09
4.10914e-09
5.34697e-09
4.03879e-09
5.54337e-09
3.89861e-09
5.97764e-09
3.67775e-09
6.56696e-09
3.37857e-09
7.05137e-09
3.00896e-09
7.19828e-09
2.58306e-09
6.95974e-09
2.12229e-09
6.46816e-09
1.64918e-09
5.90505e-09
1.17709e-09
5.36909e-09
7.06446e-10
4.84359e-09
2.33389e-10
4.26324e-09
-2.355e-10
3.60298e-09
-6.75855e-10
2.91299e-09
-1.05341e-09
2.28387e-09
-1.34214e-09
1.78302e-09
-1.54009e-09
1.41469e-09
-1.67292e-09
1.12744e-09
-1.78458e-09
8.55815e-10
-1.92167e-09
5.65773e-10
-2.11904e-09
2.78582e-10
-2.39074e-09
6.37029e-11
-2.72731e-09
6.20206e-12
-3.09963e-09
1.63573e-10
-3.46893e-09
5.3136e-10
-3.80092e-09
1.03453e-09
-4.07885e-09
1.55081e-09
-4.30938e-09
1.95663e-09
-4.51753e-09
2.17432e-09
-4.73213e-09
2.19866e-09
-4.96853e-09
2.09133e-09
-5.21652e-09
1.94675e-09
-5.43994e-09
1.84413e-09
-5.58914e-09
1.80725e-09
-5.62172e-09
1.79198e-09
-5.52185e-09
1.71131e-09
-5.30799e-09
1.48732e-09
-5.02438e-09
1.09942e-09
-4.7217e-09
5.95989e-10
-4.43838e-09
6.06392e-11
-4.19254e-09
-4.39061e-10
-3.98485e-09
-8.78527e-10
-3.80421e-09
-1.26365e-09
-3.62911e-09
-1.6068e-09
-3.42708e-09
-1.92542e-09
-3.16231e-09
-2.2496e-09
-2.81379e-09
-2.59651e-09
-2.39353e-09
-2.92663e-09
-1.95257e-09
-3.17073e-09
-1.57061e-09
-3.32573e-09
-1.32471e-09
-3.46032e-09
-1.25706e-09
-3.56881e-09
-1.37143e-09
-3.47119e-09
-1.6272e-09
-2.97402e-09
-1.87961e-09
-2.32956e-09
-1.9597e-09
-1.66159e-09
-1.9786e-09
-8.87687e-10
-2.5958e-09
-5.22993e-10
-4.63812e-09
1.65332e-10
-6.57926e-09
-4.77663e-09
-3.01541e-10
1.62445e-09
-7.04812e-11
2.87155e-09
-3.19668e-10
3.88201e-09
-7.71698e-10
4.90571e-09
-9.91248e-10
5.23317e-09
-3.6502e-10
4.98541e-09
2.56085e-10
4.50888e-09
3.75751e-10
3.9202e-09
6.90652e-10
3.42131e-09
9.77915e-10
2.99749e-09
1.24436e-09
2.77326e-09
1.58747e-09
2.84057e-09
1.95329e-09
3.11373e-09
2.20952e-09
3.40423e-09
2.36505e-09
3.57644e-09
2.62084e-09
3.62646e-09
3.14401e-09
3.63525e-09
3.83685e-09
3.66269e-09
4.41089e-09
3.69436e-09
4.68452e-09
3.67388e-09
4.76173e-09
3.56274e-09
4.91543e-09
3.36511e-09
5.32112e-09
3.11027e-09
5.90226e-09
2.82436e-09
6.40411e-09
2.51864e-09
6.59866e-09
2.19638e-09
6.43596e-09
1.8635e-09
6.0368e-09
1.53043e-09
5.56789e-09
1.2067e-09
5.12172e-09
8.97969e-10
4.68945e-09
6.11048e-10
4.22058e-09
3.61011e-10
3.69712e-09
1.70414e-10
3.15876e-09
5.73171e-11
2.67047e-09
1.95581e-11
2.27082e-09
2.67389e-11
1.94482e-09
2.59584e-11
1.63777e-09
-4.1776e-11
1.29602e-09
-2.22947e-10
9.07189e-10
-5.38396e-10
5.17511e-10
-9.79088e-10
2.17949e-10
-1.51076e-09
1.05063e-10
-2.08568e-09
2.33583e-10
-2.65841e-09
5.82967e-10
-3.20085e-09
1.05606e-09
-3.71027e-09
1.51347e-09
-4.2063e-09
1.82903e-09
-4.7173e-09
1.93987e-09
-5.26198e-09
1.86769e-09
-5.83475e-09
1.70154e-09
-6.40172e-09
1.55061e-09
-6.90965e-09
1.48821e-09
-7.30442e-09
1.513e-09
-7.55113e-09
1.54827e-09
-7.64604e-09
1.48297e-09
-7.61422e-09
1.23453e-09
-7.4946e-09
7.96316e-10
-7.3216e-09
2.38687e-10
-7.11427e-09
-3.35733e-10
-6.87702e-09
-8.46699e-10
-6.60606e-09
-1.25952e-09
-6.29233e-09
-1.57095e-09
-5.91811e-09
-1.79314e-09
-5.45574e-09
-1.96151e-09
-4.87737e-09
-2.14224e-09
-4.17039e-09
-2.39449e-09
-3.34784e-09
-2.7105e-09
-2.46212e-09
-3.01904e-09
-1.62592e-09
-3.2767e-09
-9.96186e-10
-3.50263e-09
-6.70423e-10
-3.64877e-09
-5.88577e-10
-3.45606e-09
-5.65979e-10
-2.6839e-09
-4.36019e-10
-1.68891e-09
-2.67644e-10
-8.62819e-10
-4.82255e-10
-5.35808e-10
-1.76069e-09
-4.32496e-10
-4.33322e-09
1.94979e-10
-6.38543e-09
-4.19163e-09
-3.02252e-10
1.69245e-09
-2.85644e-10
2.86891e-09
-3.83202e-10
3.96474e-09
-7.26962e-10
5.1063e-09
-8.89406e-10
5.53442e-09
-3.90844e-10
5.31722e-09
-4.24887e-11
4.78287e-09
-2.11575e-11
4.14856e-09
2.42701e-10
3.64122e-09
6.57645e-10
3.19134e-09
1.1494e-09
2.89857e-09
1.65207e-09
2.83026e-09
2.01309e-09
2.92918e-09
2.13742e-09
3.0844e-09
2.15843e-09
3.22386e-09
2.36271e-09
3.34781e-09
2.89775e-09
3.47863e-09
3.59308e-09
3.59366e-09
4.119e-09
3.62496e-09
4.31152e-09
3.51935e-09
4.31724e-09
3.28492e-09
4.43542e-09
2.98015e-09
4.83985e-09
2.66617e-09
5.4393e-09
2.36929e-09
5.96931e-09
2.07993e-09
6.20185e-09
1.77795e-09
6.08946e-09
1.45722e-09
5.75115e-09
1.1314e-09
5.34961e-09
8.23939e-10
4.9778e-09
5.56706e-10
4.63366e-09
3.46445e-10
4.27203e-09
2.05754e-10
3.86852e-09
1.40617e-10
3.44129e-09
1.42186e-10
3.02619e-09
1.79109e-10
2.63851e-09
1.98826e-10
2.25632e-09
1.40503e-10
1.83673e-09
-4.56155e-11
1.35161e-09
-3.8146e-10
8.19141e-10
-8.54125e-10
3.12135e-10
-1.42086e-09
-6.32812e-11
-2.02386e-09
-2.11319e-10
-2.60987e-09
-9.33899e-11
-3.1478e-09
2.45242e-10
-3.6377e-09
6.85392e-10
-4.10692e-09
1.07924e-09
-4.59419e-09
1.31071e-09
-5.12864e-09
1.34212e-09
-5.71298e-09
1.22458e-09
-6.31821e-09
1.06785e-09
-6.89174e-09
9.83294e-10
-7.3752e-09
1.02625e-09
-7.72424e-09
1.16532e-09
-7.92241e-09
1.29577e-09
-7.98294e-09
1.29311e-09
-7.93779e-09
1.0794e-09
-7.82009e-09
6.63592e-10
-7.65005e-09
1.31468e-10
-7.43226e-09
-4.04971e-10
-7.1638e-09
-8.59271e-10
-6.8434e-09
-1.18821e-09
-6.47072e-09
-1.38025e-09
-6.03628e-09
-1.44959e-09
-5.51622e-09
-1.44969e-09
-4.88459e-09
-1.47474e-09
-4.1337e-09
-1.62487e-09
-3.28361e-09
-1.95204e-09
-2.38136e-09
-2.42671e-09
-1.50977e-09
-2.93926e-09
-7.86117e-10
-3.34128e-09
-3.06017e-10
-3.46402e-09
-4.58209e-11
-3.08515e-09
1.48665e-10
-2.18126e-09
3.94524e-10
-1.26665e-09
4.9374e-10
-6.74442e-10
-3.19891e-11
-5.86228e-10
-1.75881e-09
-4.938e-10
-4.5059e-09
3.50147e-10
-6.61834e-09
-4.39369e-09
-3.66798e-10
1.76569e-09
-5.17115e-10
2.78686e-09
-4.82928e-10
3.98542e-09
-6.39653e-10
5.19304e-09
-7.36641e-10
5.63672e-09
-4.05347e-10
5.38061e-09
-3.10397e-10
4.82777e-09
-3.57343e-10
4.27206e-09
-1.60939e-10
3.91717e-09
3.44486e-10
3.62223e-09
1.00357e-09
3.41893e-09
1.63597e-09
3.39593e-09
2.03793e-09
3.5345e-09
2.13951e-09
3.76286e-09
2.13878e-09
4.03316e-09
2.34454e-09
4.32591e-09
2.86066e-09
4.6024e-09
3.47181e-09
4.78081e-09
3.86275e-09
4.77823e-09
3.93039e-09
4.57519e-09
3.87236e-09
4.23209e-09
3.9922e-09
3.84216e-09
4.43034e-09
3.46684e-09
5.05939e-09
3.10682e-09
5.60241e-09
2.72336e-09
5.84314e-09
2.28281e-09
5.75274e-09
1.78673e-09
5.4602e-09
1.27044e-09
5.12718e-09
7.80871e-10
4.84135e-09
3.55213e-10
4.59535e-09
1.25501e-11
4.33588e-09
-2.449e-10
4.02263e-09
-4.30079e-10
3.65082e-09
-5.72414e-10
3.23503e-09
-7.17676e-10
2.78199e-09
-9.20076e-10
2.28016e-09
-1.22598e-09
1.71369e-09
-1.65571e-09
1.08882e-09
-2.19262e-09
4.53776e-10
-2.78568e-09
-1.02762e-10
-3.36567e-09
-4.78035e-10
-3.8691e-09
-5.97306e-10
-4.26102e-09
-4.5236e-10
-4.54732e-09
-1.15359e-10
-4.77104e-09
2.8308e-10
-4.99337e-09
6.04603e-10
-5.26747e-09
7.59566e-10
-5.61641e-09
7.4221e-10
-6.02444e-09
6.27751e-10
-6.44405e-09
5.32442e-10
-6.81393e-09
5.54452e-10
-7.07976e-09
7.22301e-10
-7.2103e-09
9.76071e-10
-7.20396e-09
1.19321e-09
-7.08451e-09
1.24848e-09
-6.88806e-09
1.07672e-09
-6.64711e-09
7.02154e-10
-6.37996e-09
2.18138e-10
-6.09123e-09
-2.64261e-10
-5.78256e-09
-6.58708e-10
-5.46274e-09
-9.12972e-10
-5.14465e-09
-1.00232e-09
-4.82857e-09
-9.40482e-10
-4.48915e-09
-8.00856e-10
-4.08413e-09
-7.07358e-10
-3.58338e-09
-7.87421e-10
-2.99461e-09
-1.12692e-09
-2.36461e-09
-1.72717e-09
-1.75119e-09
-2.45034e-09
-1.1934e-09
-3.02032e-09
-7.10073e-10
-3.14066e-09
-3.27125e-10
-2.63758e-09
-5.54158e-11
-1.784e-09
8.60303e-11
-1.16094e-09
-8.12419e-11
-8.81293e-10
-8.344e-10
-6.98323e-10
-2.58783e-09
-5.32223e-10
-5.36649e-09
3.17914e-10
-7.71609e-09
-5.72466e-09
-5.26622e-10
2.05832e-09
-6.88866e-10
3.21828e-09
-6.39939e-10
4.48494e-09
-5.93242e-10
5.71111e-09
-6.23048e-10
6.09217e-09
-4.01808e-10
5.75865e-09
-4.56501e-10
5.21873e-09
-4.97057e-10
4.73487e-09
-3.58769e-10
4.44442e-09
1.75877e-10
4.26197e-09
9.67335e-10
4.14044e-09
1.73109e-09
4.14016e-09
2.2108e-09
4.28115e-09
2.34926e-09
4.522e-09
2.36526e-09
4.81684e-09
2.54816e-09
5.12175e-09
2.96063e-09
5.36314e-09
3.38673e-09
5.44416e-09
3.57368e-09
5.30327e-09
3.49777e-09
4.96408e-09
3.39041e-09
4.52024e-09
3.52536e-09
4.06715e-09
3.98377e-09
3.6403e-09
4.59846e-09
3.20747e-09
5.09582e-09
2.712e-09
5.29311e-09
2.12572e-09
5.19484e-09
1.47182e-09
4.94233e-09
8.09091e-10
4.68828e-09
1.98445e-10
4.50207e-09
-3.21849e-10
4.35838e-09
-7.41734e-10
4.18758e-09
-1.07265e-09
3.93233e-09
-1.3405e-09
3.57166e-09
-1.58248e-09
3.11209e-09
-1.84348e-09
2.56822e-09
-2.16629e-09
1.954e-09
-2.57595e-09
1.28969e-09
-3.06528e-09
6.15217e-10
-3.59098e-09
-3.29676e-12
-4.08461e-09
-4.82826e-10
-4.47593e-09
-7.48809e-10
-4.71944e-09
-7.67048e-10
-4.8129e-09
-5.66295e-10
-4.79951e-09
-2.36922e-10
-4.75201e-09
9.84402e-11
-4.74573e-09
3.31593e-10
-4.83218e-09
4.11934e-10
-5.0244e-09
3.65885e-10
-5.29812e-09
2.82894e-10
-5.60479e-09
2.72664e-10
-5.88841e-09
4.10873e-10
-6.09992e-09
6.97248e-10
-6.20701e-09
1.04763e-09
-6.19942e-09
1.32812e-09
-6.08957e-09
1.41741e-09
-5.90671e-09
1.2641e-09
-5.68536e-09
9.05295e-10
-5.45289e-09
4.36991e-10
-5.22423e-09
-3.63013e-11
-5.00776e-09
-4.31444e-10
-4.81499e-09
-6.83505e-10
-4.66036e-09
-7.43335e-10
-4.54678e-09
-6.09042e-10
-4.44988e-09
-3.67136e-10
-4.31981e-09
-1.79348e-10
-4.10624e-09
-2.10895e-10
-3.79544e-09
-5.56006e-10
-3.42386e-09
-1.1958e-09
-3.03893e-09
-1.96843e-09
-2.63535e-09
-2.59688e-09
-2.17648e-09
-2.77068e-09
-1.70306e-09
-2.32615e-09
-1.37488e-09
-1.67758e-09
-1.33019e-09
-1.27976e-09
-1.60646e-09
-1.06527e-09
-2.26081e-09
-7.10207e-10
-3.755e-09
-5.26172e-10
-6.65963e-09
-1.0788e-10
-9.34532e-09
-7.03402e-09
-6.24729e-10
2.73141e-09
-7.84299e-10
4.36622e-09
-8.07913e-10
5.54613e-09
-6.3845e-10
6.72811e-09
-5.84167e-10
7.03092e-09
-3.75827e-10
6.68463e-09
-5.12183e-10
6.17738e-09
-5.5639e-10
5.80823e-09
-4.2776e-10
5.50787e-09
9.90485e-11
5.28892e-09
9.65374e-10
5.15643e-09
1.84249e-09
5.12131e-09
2.40715e-09
5.17499e-09
2.5897e-09
5.28931e-09
2.60604e-09
5.43474e-09
2.71566e-09
5.56777e-09
2.95953e-09
5.6108e-09
3.15717e-09
5.47895e-09
3.13987e-09
5.14126e-09
2.95339e-09
4.65068e-09
2.83214e-09
4.10701e-09
2.9921e-09
3.58419e-09
3.44806e-09
3.08466e-09
4.00783e-09
2.5542e-09
4.42455e-09
1.93747e-09
4.56541e-09
1.22611e-09
4.47038e-09
4.66301e-10
4.28366e-09
-2.70745e-10
4.1358e-09
-9.26333e-10
4.06753e-09
-1.47423e-09
4.03084e-09
-1.91807e-09
3.94062e-09
-2.27839e-09
3.7279e-09
-2.58278e-09
3.36433e-09
-2.86238e-09
2.85888e-09
-3.14932e-09
2.24383e-09
-3.46895e-09
1.56465e-09
-3.82787e-09
8.76819e-10
-4.20505e-09
2.44516e-10
-4.55368e-09
-2.64843e-10
-4.81593e-09
-5.93206e-10
-4.94547e-09
-7.09393e-10
-4.92738e-09
-6.24733e-10
-4.78643e-09
-3.97739e-10
-4.57947e-09
-1.21426e-10
-4.37578e-09
1.05536e-10
-4.235e-09
2.13998e-10
-4.19238e-09
1.91632e-10
-4.25596e-09
9.02801e-11
-4.41248e-09
7.823e-12
-4.63468e-09
4.78646e-11
-4.88538e-09
2.70256e-10
-5.12019e-09
6.5381e-10
-5.29426e-09
1.09314e-09
-5.37521e-09
1.43859e-09
-5.35671e-09
1.56364e-09
-5.26281e-09
1.42282e-09
-5.1369e-09
1.06356e-09
-5.02067e-09
5.86839e-10
-4.93735e-09
9.36738e-11
-4.89046e-09
-3.34982e-10
-4.87494e-09
-6.22176e-10
-4.88643e-09
-6.92065e-10
-4.91956e-09
-5.18952e-10
-4.95997e-09
-1.89935e-10
-4.9787e-09
9.68604e-11
-4.93678e-09
1.29513e-10
-4.80741e-09
-1.93984e-10
-4.60355e-09
-8.00898e-10
-4.35908e-09
-1.49641e-09
-4.06892e-09
-2.07496e-09
-3.69519e-09
-2.33987e-09
-3.27445e-09
-2.10591e-09
-2.98223e-09
-1.67002e-09
-2.9705e-09
-1.28917e-09
-3.13167e-09
-9.40959e-10
-3.49551e-09
-6.87143e-10
-4.85123e-09
-5.65631e-10
-7.89086e-09
-3.52098e-10
-1.07304e-08
-7.57119e-09
-5.65322e-10
3.73055e-09
-8.84917e-10
5.86472e-09
-9.47975e-10
6.77473e-09
-7.29102e-10
7.72445e-09
-5.41921e-10
7.98442e-09
-3.14468e-10
7.68274e-09
-4.57324e-10
7.17085e-09
-6.3397e-10
6.82218e-09
-5.49591e-10
6.57472e-09
-1.97335e-11
6.37178e-09
8.87375e-10
6.24749e-09
1.82006e-09
6.19798e-09
2.42375e-09
6.18351e-09
2.61833e-09
6.17323e-09
2.60374e-09
6.1581e-09
2.60702e-09
6.11381e-09
2.66317e-09
5.97951e-09
2.64524e-09
5.69264e-09
2.46714e-09
5.24529e-09
2.22134e-09
4.69819e-09
2.11808e-09
4.1343e-09
2.30421e-09
3.59495e-09
2.73893e-09
3.05495e-09
3.22796e-09
2.45362e-09
3.56941e-09
1.75058e-09
3.68344e-09
9.60074e-10
3.63477e-09
1.425e-10
3.55547e-09
-6.3226e-10
3.54371e-09
-1.31854e-09
3.6096e-09
-1.90532e-09
3.68705e-09
-2.40566e-09
3.68306e-09
-2.84048e-09
3.52481e-09
-3.22924e-09
3.18315e-09
-3.5886e-09
2.67371e-09
-3.93237e-09
2.0468e-09
-4.2676e-09
1.37425e-09
-4.58812e-09
7.35878e-10
-4.87183e-09
2.05682e-10
-5.08638e-09
-1.61099e-10
-5.20235e-09
-3.38222e-10
-5.2075e-09
-3.34327e-10
-5.11417e-09
-1.92977e-10
-4.95605e-09
1.46626e-11
-4.77609e-09
2.05158e-10
-4.61295e-09
3.04487e-10
-4.49339e-09
2.71517e-10
-4.43362e-09
1.16666e-10
-4.44498e-09
-9.23334e-11
-4.53616e-09
-2.45639e-10
-4.70688e-09
-2.30328e-10
-4.93714e-09
1.61467e-11
-5.18296e-09
4.62494e-10
-5.38739e-09
9.7947e-10
-5.50482e-09
1.38853e-09
-5.52458e-09
1.54385e-09
-5.47693e-09
1.39999e-09
-5.4153e-09
1.02002e-09
-5.38572e-09
5.2179e-10
-5.40434e-09
1.29674e-11
-5.45647e-09
-4.27227e-10
-5.51246e-09
-7.21156e-10
-5.54543e-09
-7.84612e-10
-5.54208e-09
-5.78464e-10
-5.50578e-09
-1.81977e-10
-5.44999e-09
1.95225e-10
-5.38034e-09
3.05371e-10
-5.28384e-09
3.0574e-11
-5.14505e-09
-5.154e-10
-4.96832e-09
-1.1048e-09
-4.75673e-09
-1.60279e-09
-4.50507e-09
-1.94204e-09
-4.24144e-09
-1.91117e-09
-4.05509e-09
-1.54084e-09
-4.00265e-09
-1.01006e-09
-3.92705e-09
-6.31192e-10
-4.09541e-09
-6.81897e-10
-5.57377e-09
-7.43858e-10
-8.59574e-09
-1.57435e-11
-1.10083e-08
-7.50149e-09
-4.20333e-10
4.82056e-09
-1.10448e-09
7.20611e-09
-1.13202e-09
7.62866e-09
-8.01982e-10
8.208e-09
-4.14905e-10
8.29898e-09
-2.50487e-10
7.99593e-09
-3.8252e-10
7.49938e-09
-6.65343e-10
7.09023e-09
-6.75998e-10
6.84095e-09
-1.63281e-10
6.72582e-09
7.49432e-10
6.69462e-09
1.67151e-09
6.68393e-09
2.2454e-09
6.63531e-09
2.4037e-09
6.5417e-09
2.32947e-09
6.42905e-09
2.21552e-09
6.29979e-09
2.09674e-09
6.11277e-09
1.90046e-09
5.82381e-09
1.60845e-09
5.43582e-09
1.33596e-09
5.00088e-09
1.25392e-09
4.57286e-09
1.44507e-09
4.15854e-09
1.83391e-09
3.7123e-09
2.24516e-09
3.17587e-09
2.52934e-09
2.5261e-09
2.65106e-09
1.79273e-09
2.68386e-09
1.03809e-09
2.7354e-09
3.20244e-10
2.86866e-09
-3.31958e-10
3.06858e-09
-9.19966e-10
3.26006e-09
-1.46049e-09
3.35086e-09
-1.96991e-09
3.27088e-09
-2.45747e-09
2.99379e-09
-2.92586e-09
2.5414e-09
-3.3731e-09
1.97574e-09
-3.79205e-09
1.38246e-09
-4.16959e-09
8.49279e-10
-4.48902e-09
4.45314e-10
-4.73677e-09
2.07397e-10
-4.91019e-09
1.36526e-10
-5.02102e-09
2.02586e-10
-5.09162e-09
3.52738e-10
-5.14573e-09
5.20181e-10
-5.1995e-09
6.33501e-10
-5.25892e-09
6.29709e-10
-5.32563e-09
4.73444e-10
-5.40656e-09
1.79377e-10
-5.51851e-09
-1.73595e-10
-5.68126e-09
-4.53091e-10
-5.90142e-09
-5.18751e-10
-6.15855e-09
-2.91153e-10
-6.40624e-09
1.91107e-10
-6.59175e-09
7.6739e-10
-6.68381e-09
1.22046e-09
-6.69032e-09
1.38171e-09
-6.65245e-09
1.21154e-09
-6.61781e-09
7.99865e-10
-6.6107e-09
2.91797e-10
-6.61999e-09
-1.93722e-10
-6.60991e-09
-5.83731e-10
-6.54137e-09
-8.16969e-10