/*--------------------------------*- C++ -*----------------------------------*\
| =========                 |                                                 |
| \\      /  F ield         | OpenFOAM: The Open Source CFD Toolbox           |
|  \\    /   O peration     | Version:  2412                                  |
|   \\  /    A nd           | Website:  www.openfoam.com                      |
|    \\/     M anipulation  |                                                 |
\*---------------------------------------------------------------------------*/
FoamFile
{
    version     2.0;
    format      ascii;
    arch        "LSB;label=32;scalar=64";
    class       surfaceScalarField;
    location    "32";
    object      alphaPhi0.lava;
}
// * * * * * * * * * * * * * * * * * * * * * * * * * * * * * * * * * * * * * //

dimensions      [0 3 -1 0 0 0 0];

oriented        oriented;

internalField   nonuniform List<scalar> 
12640
(
-7.38046e-09
7.51927e-09
-1.46666e-08
1.21998e-08
-2.1901e-08
1.16545e-08
-3.03341e-08
1.05811e-08
-3.80115e-08
1.03581e-08
-4.44764e-08
1.05665e-08
-5.04542e-08
1.10618e-08
-5.5805e-08
1.16537e-08
-6.10489e-08
1.17833e-08
-6.60302e-08
1.15921e-08
-7.01456e-08
1.15403e-08
-7.30131e-08
1.18324e-08
-7.48526e-08
1.23322e-08
-7.61732e-08
1.27788e-08
-7.72552e-08
1.30136e-08
-7.79394e-08
1.3092e-08
-7.77537e-08
1.32191e-08
-7.61921e-08
1.3549e-08
-7.2964e-08
1.40462e-08
-6.81201e-08
1.45061e-08
-6.19633e-08
1.47338e-08
-5.48428e-08
1.46752e-08
-4.69869e-08
1.44091e-08
-3.84625e-08
1.40528e-08
-2.92324e-08
1.36863e-08
-1.92351e-08
1.33377e-08
-8.44143e-09
1.30044e-08
3.11504e-09
1.26751e-08
1.53253e-08
1.23375e-08
2.801e-08
1.19821e-08
4.09405e-08
1.16073e-08
5.38708e-08
1.12218e-08
6.65656e-08
1.08421e-08
7.88173e-08
1.04845e-08
9.04506e-08
1.01591e-08
1.01319e-07
9.86736e-09
1.113e-07
9.60622e-09
1.20291e-07
9.37165e-09
1.28208e-07
9.16177e-09
1.34986e-07
8.97754e-09
1.40573e-07
8.82152e-09
1.44927e-07
8.69542e-09
1.48012e-07
8.5975e-09
1.49789e-07
8.52093e-09
1.50217e-07
8.45502e-09
1.49257e-07
8.38854e-09
1.46876e-07
8.31412e-09
1.43049e-07
8.23032e-09
1.37768e-07
8.14073e-09
1.3104e-07
8.04914e-09
1.22903e-07
7.95504e-09
1.13434e-07
7.85038e-09
1.02766e-07
7.72195e-09
9.10978e-08
7.55584e-09
7.86893e-08
7.34459e-09
6.58461e-08
7.08973e-09
5.2885e-08
6.80159e-09
4.00965e-08
6.49195e-09
2.77118e-08
6.16667e-09
1.58891e-08
5.81716e-09
4.72328e-09
5.41973e-09
-5.71935e-09
4.93988e-09
-1.53573e-08
4.34635e-09
-2.40575e-08
3.62614e-09
-3.16289e-08
2.79803e-09
-3.78541e-08
1.91219e-09
-4.25497e-08
1.03446e-09
-4.56231e-08
2.17874e-10
-4.7092e-08
-5.1848e-10
-4.70504e-08
-1.18511e-09
-4.56046e-08
-1.79146e-09
-4.28368e-08
-2.32133e-09
-3.88376e-08
-2.74883e-09
-3.3792e-08
-3.07768e-09
-2.80253e-08
-3.33842e-09
-2.19173e-08
-3.52677e-09
-1.57368e-08
-3.5801e-09
-9.68639e-09
-3.42707e-09
-4.25339e-09
-2.97204e-09
-1.76272e-09
-1.12065e-08
1.51397e-08
-2.37025e-08
2.46831e-08
-3.41998e-08
2.48695e-08
-4.5661e-08
2.30391e-08
-5.66144e-08
2.20379e-08
-6.58682e-08
2.21753e-08
-7.44728e-08
2.2503e-08
-8.2792e-08
2.27281e-08
-9.08399e-08
2.26461e-08
-9.80871e-08
2.25577e-08
-1.03862e-07
2.28246e-08
-1.07926e-07
2.34641e-08
-1.10753e-07
2.41845e-08
-1.13023e-07
2.47482e-08
-1.1494e-07
2.51837e-08
-1.16092e-07
2.57001e-08
-1.1579e-07
2.65179e-08
-1.1346e-07
2.76552e-08
-1.08837e-07
2.89277e-08
-1.01995e-07
3.00533e-08
-9.32503e-08
3.08062e-08
-8.29955e-08
3.11153e-08
-7.15381e-08
3.10615e-08
-5.90158e-08
3.08017e-08
-4.54204e-08
3.04804e-08
-3.06821e-08
3.01775e-08
-1.47595e-08
2.99026e-08
2.3013e-09
2.96196e-08
2.03438e-08
2.92811e-08
3.91117e-08
2.88566e-08
5.82807e-08
2.83457e-08
7.74975e-08
2.77727e-08
9.64166e-08
2.7172e-08
1.14725e-07
2.65725e-08
1.32155e-07
2.59895e-08
1.48483e-07
2.54258e-08
1.63526e-07
2.48778e-08
1.77133e-07
2.43429e-08
1.89183e-07
2.38219e-08
1.99577e-07
2.33179e-08
2.08232e-07
2.28315e-08
2.15077e-07
2.23564e-08
2.2004e-07
2.18774e-08
2.23046e-07
2.13724e-08
2.2402e-07
2.08192e-08
2.22891e-07
2.02027e-08
2.19605e-07
1.95209e-08
2.14122e-07
1.87849e-08
2.06425e-07
1.80139e-08
1.96525e-07
1.7228e-08
1.84473e-07
1.64412e-08
1.70387e-07
1.56592e-08
1.54477e-07
1.48809e-08
1.37055e-07
1.41033e-08
1.18536e-07
1.33256e-08
9.93941e-08
1.2552e-08
8.01115e-08
1.17876e-08
6.11134e-08
1.10336e-08
4.27215e-08
1.02787e-08
2.51372e-08
9.49596e-09
8.47097e-09
8.64289e-09
-7.19515e-09
7.67356e-09
-2.17302e-08
6.55475e-09
-3.49021e-08
5.28563e-09
-4.63795e-08
3.90675e-09
-5.58023e-08
2.4934e-09
-6.28879e-08
1.12784e-09
-6.75157e-08
-1.34959e-10
-6.97298e-08
-1.28769e-09
-6.96597e-08
-2.35515e-09
-6.7432e-08
-3.3515e-09
-6.31606e-08
-4.25189e-09
-5.70328e-08
-5.01926e-09
-4.94003e-08
-5.65755e-09
-4.07773e-08
-6.18778e-09
-3.17219e-08
-6.51577e-09
-2.26651e-08
-6.39421e-09
-1.39799e-08
-5.65821e-09
-6.34046e-09
-4.34665e-09
-2.16326e-09
-1.06034e-08
2.39446e-08
-2.37546e-08
3.69178e-08
-3.4561e-08
3.71199e-08
-4.51347e-08
3.51262e-08
-5.49271e-08
3.38484e-08
-6.36726e-08
3.387e-08
-7.19127e-08
3.42753e-08
-8.00794e-08
3.45224e-08
-8.77661e-08
3.45737e-08
-9.43953e-08
3.4894e-08
-9.95703e-08
3.5783e-08
-1.0335e-07
3.70512e-08
-1.06129e-07
3.83507e-08
-1.084e-07
3.94608e-08
-1.10236e-07
4.04423e-08
-1.11213e-07
4.15342e-08
-1.10795e-07
4.29462e-08
-1.08566e-07
4.46999e-08
-1.04338e-07
4.66053e-08
-9.81355e-08
4.83752e-08
-9.0142e-08
4.97779e-08
-8.06191e-08
5.07251e-08
-6.9806e-08
5.12602e-08
-5.78485e-08
5.14887e-08
-4.47927e-08
5.15103e-08
-3.06282e-08
5.13867e-08
-1.53495e-08
5.11412e-08
9.93941e-10
5.07732e-08
1.82699e-08
5.02749e-08
3.62584e-08
4.96436e-08
5.46677e-08
4.88858e-08
7.31631e-08
4.80211e-08
9.14021e-08
4.70727e-08
1.09068e-07
4.60615e-08
1.2589e-07
4.5002e-08
1.4165e-07
4.39023e-08
1.56179e-07
4.27688e-08
1.69343e-07
4.1609e-08
1.81034e-07
4.04331e-08
1.91163e-07
3.92492e-08
1.99648e-07
3.80577e-08
2.06411e-07
3.68462e-08
2.11371e-07
3.559e-08
2.1445e-07
3.42583e-08
2.1557e-07
3.28246e-08
2.14667e-07
3.12761e-08
2.11688e-07
2.96189e-08
2.06598e-07
2.7876e-08
1.99373e-07
2.60813e-08
1.90013e-07
2.42709e-08
1.78556e-07
2.24774e-08
1.65108e-07
2.07269e-08
1.49871e-07
1.90397e-08
1.33159e-07
1.74314e-08
1.15385e-07
1.59149e-08
9.70218e-08
1.44971e-08
7.85405e-08
1.31775e-08
6.0343e-08
1.19419e-08
4.27155e-08
1.07621e-08
2.58211e-08
9.59563e-09
9.73864e-09
8.39423e-09
-5.4611e-09
7.11489e-09
-1.9634e-08
5.73705e-09
-3.2513e-08
4.27459e-09
-4.37284e-08
2.77891e-09
-5.28983e-08
1.32242e-09
-5.97505e-08
-3.03192e-11
-6.41971e-08
-1.25097e-09
-6.63079e-08
-2.35194e-09
-6.62031e-08
-3.3645e-09
-6.39744e-08
-4.3097e-09
-5.97282e-08
-5.19103e-09
-5.37068e-08
-6.00672e-09
-4.63261e-08
-6.74593e-09
-3.80733e-08
-7.34111e-09
-2.94285e-08
-7.58812e-09
-2.08749e-08
-7.1396e-09
-1.29224e-08
-5.7642e-09
-6.05436e-09
-3.66647e-09
-1.35187e-09
-1.00969e-08
3.33808e-08
-2.22683e-08
5.00301e-08
-3.28908e-08
4.92889e-08
-4.27472e-08
4.66053e-08
-5.11852e-08
4.5059e-08
-5.91731e-08
4.47518e-08
-6.69447e-08
4.49663e-08
-7.4592e-08
4.54033e-08
-8.13585e-08
4.60225e-08
-8.68672e-08
4.70559e-08
-9.11792e-08
4.85719e-08
-9.44754e-08
5.03641e-08
-9.70594e-08
5.2195e-08
-9.91931e-08
5.39123e-08
-1.00742e-07
5.55748e-08
-1.01349e-07
5.7323e-08
-1.0066e-07
5.92994e-08
-9.84614e-08
6.15705e-08
-9.46543e-08
6.40227e-08
-8.92061e-08
6.64901e-08
-8.21647e-08
6.87246e-08
-7.3661e-08
7.055e-08
-6.38682e-08
7.19018e-08
-5.2932e-08
7.28098e-08
-4.09313e-08
7.33468e-08
-2.78903e-08
7.35823e-08
-1.38234e-08
7.35635e-08
1.21957e-09
7.33187e-08
1.71221e-08
7.28658e-08
3.36872e-08
7.22187e-08
5.06498e-08
7.13887e-08
6.76947e-08
7.03823e-08
8.44936e-08
6.9204e-08
1.0074e-07
6.78556e-08
1.16175e-07
6.63405e-08
1.30599e-07
6.46678e-08
1.43864e-07
6.28547e-08
1.55863e-07
6.09242e-08
1.66507e-07
5.89e-08
1.75719e-07
5.67979e-08
1.83424e-07
5.46188e-08
1.89546e-07
5.23476e-08
1.94011e-07
4.99576e-08
1.96753e-07
4.74218e-08
1.97713e-07
4.47237e-08
1.96846e-07
4.1866e-08
1.94117e-07
3.88726e-08
1.89497e-07
3.5785e-08
1.8296e-07
3.26544e-08
1.7449e-07
2.95356e-08
1.64109e-07
2.64812e-08
1.51898e-07
2.35398e-08
1.38035e-07
2.07533e-08
1.22808e-07
1.81566e-08
1.06598e-07
1.57728e-08
8.98445e-08
1.3612e-08
7.29776e-08
1.1667e-08
5.63565e-08
9.91446e-09
4.02277e-08
8.3153e-09
2.47221e-08
6.82169e-09
9.9019e-09
5.38421e-09
-4.16215e-09
3.96566e-09
-1.73095e-08
2.55319e-09
-2.92538e-08
1.16963e-09
-3.96171e-08
-1.30577e-10
-4.80349e-08
-1.28197e-09
-5.42727e-08
-2.24499e-09
-5.82814e-08
-3.03217e-09
-6.01473e-08
-3.70039e-09
-5.99822e-08
-4.30723e-09
-5.78663e-08
-4.87677e-09
-5.39125e-08
-5.41418e-09
-4.83786e-08
-5.93733e-09
-4.16722e-08
-6.44047e-09
-3.42122e-08
-6.7961e-09
-2.63606e-08
-6.71293e-09
-1.85651e-08
-5.80278e-09
-1.14142e-08
-3.86637e-09
-5.4144e-09
-1.36157e-09
3.2423e-10
-1.04547e-08
4.18579e-08
-2.17672e-08
6.27013e-08
-3.18777e-08
6.11992e-08
-4.12906e-08
5.77121e-08
-4.90409e-08
5.60982e-08
-5.65729e-08
5.59543e-08
-6.38592e-08
5.65775e-08
-7.09251e-08
5.77113e-08
-7.68372e-08
5.92397e-08
-8.14839e-08
6.11786e-08
-8.5143e-08
6.34992e-08
-8.80582e-08
6.60115e-08
-9.04384e-08
6.85394e-08
-9.2369e-08
7.09695e-08
-9.36544e-08
7.33198e-08
-9.39282e-08
7.57067e-08
-9.2905e-08
7.82591e-08
-9.05211e-08
8.1032e-08
-8.67722e-08
8.39916e-08
-8.16838e-08
8.69879e-08
-7.52403e-08
8.98179e-08
-6.74703e-08
9.22854e-08
-5.84566e-08
9.42544e-08
-4.83003e-08
9.56682e-08
-3.70784e-08
9.65388e-08
-2.48326e-08
9.6923e-08
-1.1593e-08
9.68983e-08
2.58317e-09
9.65415e-08
1.7579e-08
9.59113e-08
3.3199e-08
9.50381e-08
4.91806e-08
9.39232e-08
6.52111e-08
9.25469e-08
8.09673e-08
9.0887e-08
9.61524e-08
8.89297e-08
1.10523e-07
8.66799e-08
1.23899e-07
8.41609e-08
1.36154e-07
8.14087e-08
1.47196e-07
7.8463e-08
1.56947e-07
7.53564e-08
1.65335e-07
7.21072e-08
1.72285e-07
6.87164e-08
1.77729e-07
6.51706e-08
1.81607e-07
6.14505e-08
1.83873e-07
5.75416e-08
1.84499e-07
5.34444e-08
1.83466e-07
4.91799e-08
1.80756e-07
4.47902e-08
1.76348e-07
4.03329e-08
1.70215e-07
3.58751e-08
1.6233e-07
3.14863e-08
1.52696e-07
2.72349e-08
1.41376e-07
2.31844e-08
1.28524e-07
1.93927e-08
1.14399e-07
1.59063e-08
9.93506e-08
1.27565e-08
8.3784e-08
9.95327e-09
6.80947e-08
7.48414e-09
5.26112e-08
5.31549e-09
3.75536e-08
3.40189e-09
2.30381e-08
1.69464e-09
9.12322e-09
1.54553e-10
-4.10757e-09
-1.24121e-09
-1.64728e-08
-2.49154e-09
-2.76657e-08
-3.57201e-09
-3.73098e-08
-4.43927e-09
-4.5073e-08
-5.04955e-09
-5.07768e-08
-5.38443e-09
-5.44169e-08
-5.47706e-09
-5.60825e-08
-5.4142e-09
-5.58568e-08
-5.30613e-09
-5.38104e-08
-5.23985e-09
-5.00885e-08
-5.25252e-09
-4.49713e-08
-5.32982e-09
-3.88208e-08
-5.38925e-09
-3.19711e-08
-5.23722e-09
-2.46764e-08
-4.56712e-09
-1.73097e-08
-3.01442e-09
-1.0475e-08
-4.78433e-10
-4.82693e-09
2.18793e-09
2.63203e-09
-1.08528e-08
4.91952e-08
-2.20308e-08
7.39585e-08
-3.15282e-08
7.24506e-08
-4.03612e-08
6.86983e-08
-4.76527e-08
6.72397e-08
-5.48361e-08
6.73534e-08
-6.16385e-08
6.85093e-08
-6.81382e-08
7.05169e-08
-7.34006e-08
7.31372e-08
-7.74215e-08
7.60895e-08
-8.06294e-08
7.91567e-08
-8.32937e-08
8.22521e-08
-8.55478e-08
8.53511e-08
-8.73616e-08
8.84433e-08
-8.84533e-08
9.15568e-08
-8.8439e-08
9.47609e-08
-8.70978e-08
9.81182e-08
-8.44467e-08
1.01631e-07
-8.06018e-08
1.05221e-07
-7.56385e-08
1.08735e-07
-6.95535e-08
1.1199e-07
-6.23197e-08
1.14821e-07
-5.39438e-08
1.17107e-07
-4.44577e-08
1.18792e-07
-3.3891e-08
1.19876e-07
-2.22623e-08
1.20404e-07
-9.60062e-09
1.20438e-07
4.02032e-09
1.20045e-07
1.84554e-08
1.19271e-07
3.34811e-08
1.18139e-07
4.88135e-08
1.1664e-07
6.41388e-08
1.1475e-07
7.9144e-08
1.12442e-07
9.35531e-08
1.09705e-07
1.07146e-07
1.06556e-07
1.1976e-07
1.03034e-07
1.3128e-07
9.91926e-08
1.41616e-07
9.50803e-08
1.5069e-07
9.07329e-08
1.58424e-07
8.61679e-08
1.64744e-07
8.13874e-08
1.69589e-07
7.63857e-08
1.72916e-07
7.1159e-08
1.74707e-07
6.57143e-08
1.7496e-07
6.00755e-08
1.73681e-07
5.4286e-08
1.70872e-07
4.84072e-08
1.6652e-07
4.25148e-08
1.60594e-07
3.66923e-08
1.53063e-07
3.10254e-08
1.43917e-07
2.55957e-08
1.33203e-07
2.04786e-08
1.21055e-07
1.57384e-08
1.07706e-07
1.14264e-08
9.34779e-08
7.57534e-09
7.87418e-08
4.19675e-09
6.3866e-08
1.27706e-09
4.91568e-08
-1.21806e-09
3.48248e-08
-3.33761e-09
2.09854e-08
-5.12986e-09
7.70688e-09
-6.63023e-09
-4.91425e-09
-7.84855e-09
-1.66802e-08
-8.76985e-09
-2.72752e-08
-9.36229e-09
-3.63269e-08
-9.59899e-09
-4.35335e-08
-9.47724e-09
-4.87692e-08
-9.03081e-09
-5.20858e-08
-8.32287e-09
-5.35997e-08
-7.43415e-09
-5.33769e-08
-6.45985e-09
-5.14469e-08
-5.51785e-09
-4.79281e-08
-4.7305e-09
-4.30917e-08
-4.15208e-09
-3.72864e-08
-3.67523e-09
-3.08252e-08
-2.99794e-09
-2.38716e-08
-1.72562e-09
-1.67038e-08
4.60502e-10
-9.96958e-09
3.56869e-09
-4.36324e-09
6.28549e-09
5.16459e-09
-1.09449e-08
5.61976e-08
-2.20335e-08
8.45329e-08
-3.10203e-08
8.34816e-08
-3.92981e-08
7.98761e-08
-4.63706e-08
7.87278e-08
-5.31747e-08
7.92045e-08
-5.93538e-08
8.08652e-08
-6.52214e-08
8.35096e-08
-7.00184e-08
8.68741e-08
-7.37562e-08
9.05341e-08
-7.67679e-08
9.42106e-08
-7.92747e-08
9.78825e-08
-8.13879e-08
1.01622e-07
-8.30396e-08
1.05463e-07
-8.39098e-08
1.09408e-07
-8.36217e-08
1.13464e-07
-8.20117e-08
1.1763e-07
-7.91781e-08
1.21861e-07
-7.53084e-08
1.26049e-07
-7.05085e-08
1.30037e-07
-6.47678e-08
1.33656e-07
-5.80198e-08
1.36771e-07
-5.0211e-08
1.3929e-07
-4.13163e-08
1.41183e-07
-3.13234e-08
1.42461e-07
-2.02287e-08
1.43163e-07
-8.05904e-09
1.43324e-07
5.09595e-09
1.42969e-07
1.90625e-08
1.42103e-07
3.35877e-08
1.40715e-07
4.83683e-08
1.38788e-07
6.3089e-08
1.36306e-07
7.7454e-08
1.33264e-07
9.12138e-08
1.29681e-07
1.04173e-07
1.25594e-07
1.16184e-07
1.21053e-07
1.27132e-07
1.16111e-07
1.36919e-07
1.10815e-07
1.45455e-07
1.05194e-07
1.52654e-07
9.92646e-08
1.58445e-07
9.30368e-08
1.62777e-07
8.65201e-08
1.65627e-07
7.97328e-08
1.66999e-07
7.2708e-08
1.66919e-07
6.54959e-08
1.65413e-07
5.81641e-08
1.62499e-07
5.07946e-08
1.58173e-07
4.34801e-08
1.52404e-07
3.63192e-08
1.45154e-07
2.94108e-08
1.36402e-07
2.28489e-08
1.26182e-07
1.67177e-08
1.14608e-07
1.1088e-08
1.01893e-07
6.01238e-09
8.83314e-08
1.52356e-09
7.42682e-08
-2.36932e-09
6.00449e-08
-5.67868e-09
4.59514e-08
-8.4376e-09
3.21929e-08
-1.06898e-08
1.88952e-08
-1.24811e-08
6.14469e-09
-1.38429e-08
-5.94125e-09
-1.47849e-08
-1.71567e-08
-1.5289e-08
-2.71943e-08
-1.53234e-08
-3.57103e-08
-1.48668e-08
-4.24372e-08
-1.39431e-08
-4.72786e-08
-1.26368e-08
-5.03054e-08
-1.10744e-08
-5.16553e-08
-9.37516e-09
-5.14237e-08
-7.62361e-09
-4.96538e-08
-5.89446e-09
-4.64208e-08
-4.29314e-09
-4.19013e-08
-2.92129e-09
-3.63608e-08
-1.75504e-09
-3.01168e-08
-5.21944e-10
-2.33666e-08
1.25489e-09
-1.62671e-08
3.8964e-09
-9.62564e-09
7.34755e-09
-4.0645e-09
1.00069e-08
7.40657e-09
-1.08246e-08
6.38885e-08
-2.11724e-08
9.63491e-08
-2.97725e-08
9.57904e-08
-3.76986e-08
9.22056e-08
-4.47794e-08
9.11728e-08
-5.12418e-08
9.19136e-08
-5.67835e-08
9.39712e-08
-6.19891e-08
9.70212e-08
-6.64109e-08
1.00804e-07
-7.0009e-08
1.04879e-07
-7.29121e-08
1.08966e-07
-7.52458e-08
1.13078e-07
-7.71515e-08
1.17334e-07
-7.85907e-08
1.21802e-07
-7.9246e-08
1.26473e-07
-7.87486e-08
1.31292e-07
-7.69778e-08
1.36174e-07
-7.40907e-08
1.41003e-07
-7.03215e-08
1.4564e-07
-6.57907e-08
1.49936e-07
-6.04666e-08
1.5376e-07
-5.42329e-08
1.5702e-07
-4.69806e-08
1.59669e-07
-3.86416e-08
1.61698e-07
-2.91827e-08
1.6312e-07
-1.86007e-08
1.63949e-07
-6.93627e-09
1.64182e-07
5.70218e-09
1.63799e-07
1.91248e-08
1.62769e-07
3.307e-08
1.6106e-07
4.7239e-08
1.58659e-07
6.13275e-08
1.55572e-07
7.50601e-08
1.51826e-07
8.82075e-08
1.47468e-07
1.00588e-07
1.4255e-07
1.12056e-07
1.37123e-07
1.22491e-07
1.3123e-07
1.31783e-07
1.24901e-07
1.39831e-07
1.18154e-07
1.46546e-07
1.11007e-07
1.51863e-07
1.03476e-07
1.55745e-07
9.55889e-08
1.58188e-07
8.73875e-08
1.59218e-07
7.89302e-08
1.5888e-07
7.02929e-08
1.57219e-07
6.15664e-08
1.54265e-07
5.28534e-08
1.50018e-07
4.42629e-08
1.44451e-07
3.59057e-08
1.37517e-07
2.78895e-08
1.29187e-07
2.03144e-08
1.19477e-07
1.32698e-08
1.08484e-07
6.8294e-09
9.63965e-08
1.04942e-09
8.34882e-08
-4.03628e-09
7.00787e-08
-8.41521e-09
5.64899e-08
-1.20972e-08
4.29963e-08
-1.51074e-08
2.98016e-08
-1.74816e-08
1.70399e-08
-1.92537e-08
4.81962e-09
-2.04502e-08
-6.72054e-09
-2.10811e-08
-1.73624e-08
-2.11422e-08
-2.68151e-08
-2.06213e-08
-3.478e-08
-1.95205e-08
-4.10496e-08
-1.78824e-08
-4.55645e-08
-1.58131e-08
-4.83883e-08
-1.34706e-08
-4.96278e-08
-1.10208e-08
-4.93782e-08
-8.58562e-09
-4.77268e-08
-6.23632e-09
-4.47746e-08
-4.02838e-09
-4.06392e-08
-2.01997e-09
-3.54551e-08
-2.15503e-10
-2.94335e-08
1.56343e-09
-2.28845e-08
3.75185e-09
-1.58617e-08
6.67707e-09
-9.33773e-09
1.02172e-08
-3.92085e-09
1.2717e-08
9.02429e-09
-1.01864e-08
7.18454e-08
-1.94603e-08
1.08692e-07
-2.7876e-08
1.08188e-07
-3.56983e-08
1.04173e-07
-4.28695e-08
1.02953e-07
-4.89848e-08
1.03808e-07
-5.39458e-08
1.06116e-07
-5.85088e-08
1.09348e-07
-6.25775e-08
1.13275e-07
-6.60575e-08
1.17577e-07
-6.88431e-08
1.22039e-07
-7.09548e-08
1.26644e-07
-7.25701e-08
1.31445e-07
-7.37262e-08
1.36486e-07
-7.41546e-08
1.41759e-07
-7.35201e-08
1.47193e-07
-7.17288e-08
1.52654e-07
-6.89592e-08
1.57979e-07
-6.54522e-08
1.6301e-07
-6.13128e-08
1.67618e-07
-5.64734e-08
1.71709e-07
-5.07763e-08
1.7522e-07
-4.40747e-08
1.78119e-07
-3.628e-08
1.80389e-07
-2.73607e-08
1.82021e-07
-1.73307e-08
1.82999e-07
-6.25123e-09
1.8329e-07
5.75792e-09
1.82852e-07
1.85093e-08
1.81643e-07
3.17577e-08
1.79637e-07
4.52254e-08
1.76831e-07
5.86323e-08
1.73253e-07
7.17192e-08
1.68949e-07
8.42637e-08
1.63973e-07
9.60811e-08
1.5838e-07
1.07017e-07
1.52213e-07
1.16939e-07
1.45499e-07
1.25728e-07
1.38258e-07
1.3328e-07
1.30502e-07
1.39512e-07
1.2225e-07
1.4437e-07
1.13533e-07
1.47834e-07
1.04397e-07
1.49919e-07
9.49085e-08
1.50671e-07
8.51508e-08
1.5015e-07
7.52247e-08
1.48416e-07
6.52437e-08
1.45506e-07
5.53289e-08
1.41425e-07
4.56028e-08
1.3614e-07
3.61846e-08
1.296e-07
2.71852e-08
1.21761e-07
1.87063e-08
1.12627e-07
1.08371e-08
1.02274e-07
3.65419e-09
9.08708e-08
-2.7837e-09
7.86672e-08
-8.4364e-09
6.59635e-08
-1.3287e-08
5.30632e-08
-1.7338e-08
4.02322e-08
-2.06091e-08
2.76708e-08
-2.31251e-08
1.55216e-08
-2.49101e-08
3.90401e-09
-2.59777e-08
-7.02805e-09
-2.63364e-08
-1.70522e-08
-2.59931e-08
-2.58899e-08
-2.49691e-08
-3.32854e-08
-2.33086e-08
-3.90915e-08
-2.10927e-08
-4.33008e-08
-1.84428e-08
-4.59821e-08
-1.55191e-08
-4.71999e-08
-1.24961e-08
-4.70031e-08
-9.52891e-09
-4.54788e-08
-6.71737e-09
-4.27648e-08
-4.09929e-09
-3.89939e-08
-1.67171e-09
-3.42365e-08
5.9735e-10
-2.85477e-08
2.82911e-09
-2.22999e-08
5.33709e-09
-1.55068e-08
8.44576e-09
-9.13245e-09
1.19827e-08
-3.87752e-09
1.43309e-08
1.00135e-08
-8.95936e-09
7.9737e-08
-1.74238e-08
1.20308e-07
-2.58636e-08
1.19277e-07
-3.36661e-08
1.14552e-07
-4.08246e-08
1.13146e-07
-4.65336e-08
1.14234e-07
-5.09888e-08
1.1687e-07
-5.49363e-08
1.20291e-07
-5.85722e-08
1.24277e-07
-6.17944e-08
1.28706e-07
-6.43605e-08
1.33522e-07
-6.6211e-08
1.38675e-07
-6.75239e-08
1.44088e-07
-6.8383e-08
1.49703e-07
-6.85907e-08
1.55494e-07
-6.78721e-08
1.61403e-07
-6.61609e-08
1.67303e-07
-6.36272e-08
1.73026e-07
-6.04829e-08
1.78418e-07
-5.67987e-08
1.83368e-07
-5.24746e-08
1.878e-07
-4.73278e-08
1.91658e-07
-4.11958e-08
1.94892e-07
-3.39863e-08
1.97461e-07
-2.5677e-08
1.99326e-07
-1.6297e-08
2.00447e-07
-5.91856e-09
2.00782e-07
5.33968e-09
2.00291e-07
1.73068e-08
1.98941e-07
2.9764e-08
1.9672e-07
4.24613e-08
1.93638e-07
5.51397e-08
1.89725e-07
6.75491e-08
1.85023e-07
7.94638e-08
1.79581e-07
9.06875e-08
1.73439e-07
1.01051e-07
1.6663e-07
1.10411e-07
1.59174e-07
1.18645e-07
1.51087e-07
1.25655e-07
1.42387e-07
1.31371e-07
1.33103e-07
1.35756e-07
1.23282e-07
1.3881e-07
1.12993e-07
1.40568e-07
1.02326e-07
1.41091e-07
9.13887e-08
1.40456e-07
8.03062e-08
1.3873e-07
6.92105e-08
1.35953e-07
5.82361e-08
1.32127e-07
4.75127e-08
1.27213e-07
3.71614e-08
1.21148e-07
2.72922e-08
1.13879e-07
1.80038e-08
1.05394e-07
9.38517e-09
9.57538e-08
1.51343e-09
8.51075e-08
-5.54623e-09
7.36842e-08
-1.17469e-08
6.17624e-08
-1.70612e-08
4.96321e-08
-2.14848e-08
3.75505e-08
-2.50294e-08
2.57208e-08
-2.7716e-08
1.42901e-08
-2.95598e-08
3.38419e-09
-3.05669e-08
-6.84714e-09
-3.07357e-08
-1.61918e-08
-3.00784e-08
-2.43953e-08
-2.86406e-08
-3.12323e-08
-2.65184e-08
-3.65969e-08
-2.38484e-08
-4.05181e-08
-2.0787e-08
-4.3083e-08
-1.74865e-08
-4.43352e-08
-1.40932e-08
-4.42716e-08
-1.07503e-08
-4.29292e-08
-7.58056e-09
-4.04399e-08
-4.64154e-09
-3.69751e-08
-1.91175e-09
-3.26299e-08
6.83805e-10
-2.73762e-08
3.26623e-09
-2.15318e-08
6.03397e-09
-1.51381e-08
9.28913e-09
-8.9815e-09
1.28737e-08
-3.84542e-09
1.51875e-08
1.06011e-08
-7.75013e-09
8.6719e-08
-1.57106e-08
1.29922e-07
-2.41229e-08
1.2804e-07
-3.1689e-08
1.22754e-07
-3.85782e-08
1.21522e-07
-4.38284e-08
1.23199e-07
-4.78945e-08
1.26446e-07
-5.13293e-08
1.30302e-07
-5.44501e-08
1.34495e-07
-5.71938e-08
1.39095e-07
-5.93498e-08
1.44231e-07
-6.08826e-08
1.49889e-07
-6.19394e-08
1.55898e-07
-6.25733e-08
1.62085e-07
-6.26155e-08
1.68368e-07
-6.1858e-08
1.74693e-07
-6.02722e-08
1.80958e-07
-5.80147e-08
1.87019e-07
-5.52575e-08
1.92737e-07
-5.20367e-08
1.98013e-07
-4.82338e-08
2.02775e-07
-4.36591e-08
2.0696e-07
-3.81465e-08
2.105e-07
-3.16021e-08
2.13329e-07
-2.40044e-08
2.15388e-07
-1.53838e-08
2.16628e-07
-5.81019e-09
2.17008e-07
4.6081e-09
2.16496e-07
1.57188e-08
2.1507e-07
2.73264e-08
2.12724e-07
3.92021e-08
2.09468e-07
5.10991e-08
2.05319e-07
6.2771e-08
2.00304e-07
7.39863e-08
1.94455e-07
8.45375e-08
1.87798e-07
9.42452e-08
1.80358e-07
1.0296e-07
1.72158e-07
1.10562e-07
1.63224e-07
1.16966e-07
1.53588e-07
1.2212e-07
1.433e-07
1.26008e-07
1.32426e-07
1.28651e-07
1.2106e-07
1.30105e-07
1.09313e-07
1.30447e-07
9.73181e-08
1.2976e-07
8.52167e-08
1.28116e-07
7.31532e-08
1.25551e-07
6.12663e-08
1.22059e-07
4.96841e-08
1.17589e-07
3.85228e-08
1.12069e-07
2.78868e-08
1.05433e-07
1.78724e-08
9.76607e-08
8.56785e-09
8.87985e-08
5.50898e-11
7.898e-08
-7.59484e-09
6.84126e-08
-1.43242e-08
5.73555e-08
-2.00959e-08
4.60799e-08
-2.48933e-08
3.48377e-08
-2.87218e-08
2.38335e-08
-3.15971e-08
1.32254e-08
-3.35366e-08
3.14051e-09
-3.45444e-08
-6.28383e-09
-3.46176e-08
-1.48724e-08
-3.37622e-08
-2.24139e-08
-3.20322e-08
-2.87211e-08
-2.95528e-08
-3.37011e-08
-2.65168e-08
-3.73814e-08
-2.31335e-08
-3.98442e-08
-1.95722e-08
-4.11335e-08
-1.59432e-08
-4.1225e-08
-1.23372e-08
-4.01019e-08
-8.85589e-09
-3.78495e-08
-5.58331e-09
-3.46522e-08
-2.53495e-09
-3.06612e-08
3.56147e-10
-2.58836e-08
3.22744e-09
-2.05054e-08
6.22782e-09
-1.45937e-08
9.6157e-09
-8.74733e-09
1.33054e-08
-3.73065e-09
1.56919e-08
1.1009e-08
-7.11626e-09
9.19637e-08
-1.46213e-08
1.36933e-07
-2.2565e-08
1.34334e-07
-2.9451e-08
1.28896e-07
-3.57767e-08
1.28199e-07
-4.05677e-08
1.30734e-07
-4.44065e-08
1.34815e-07
-4.75288e-08
1.39368e-07
-5.01644e-08
1.4404e-07
-5.22856e-08
1.48998e-07
-5.38486e-08
1.54501e-07
-5.49702e-08
1.60596e-07
-5.57946e-08
1.67104e-07
-5.62873e-08
1.73803e-07
-5.62476e-08
1.80558e-07
-5.55063e-08
1.87289e-07
-5.40744e-08
1.93899e-07
-5.21038e-08
2.00268e-07
-4.97343e-08
2.06278e-07
-4.69765e-08
2.1184e-07
-4.37049e-08
2.16884e-07
-3.97325e-08
2.21343e-07
-3.48934e-08
2.25141e-07
-2.90875e-08
2.282e-07
-2.22829e-08
2.30452e-07
-1.45002e-08
2.31842e-07
-5.79884e-09
2.32325e-07
3.72455e-09
2.3187e-07
1.39317e-08
2.30453e-07
2.46417e-08
2.28062e-07
3.56371e-08
2.24688e-07
4.66784e-08
2.20335e-07
5.75212e-08
2.15012e-07
6.7932e-08
2.08735e-07
7.76998e-08
2.01525e-07
8.66436e-08
1.93408e-07
9.46162e-08
1.8442e-07
1.01508e-07
1.74606e-07
1.07246e-07
1.64023e-07
1.118e-07
1.52746e-07
1.15178e-07
1.40867e-07
1.17422e-07
1.285e-07
1.18606e-07
1.1578e-07
1.18816e-07
1.02852e-07
1.18141e-07
8.98684e-08
1.16644e-07
7.69766e-08
1.14355e-07
6.4311e-08
1.11253e-07
5.19911e-08
1.07278e-07
4.01227e-08
1.02348e-07
2.88036e-08
9.63915e-08
1.81271e-08
8.93772e-08
8.18591e-09
8.1345e-08
-9.31626e-10
7.24128e-08
-9.1438e-09
6.27711e-08
-1.63843e-08
5.26557e-08
-2.26041e-08
4.232e-08
-2.77778e-08
3.20019e-08
-3.18994e-08
2.19085e-08
-3.49811e-08
1.22057e-08
-3.70394e-08
3.03007e-09
-3.80896e-08
-5.49686e-09
-3.81366e-08
-1.32442e-08
-3.71926e-08
-2.00723e-08
-3.53048e-08
-2.58516e-08
-3.25982e-08
-3.05024e-08
-2.9283e-08
-3.40088e-08
-2.56125e-08
-3.63999e-08
-2.17958e-08
-3.77005e-08
-1.79443e-08
-3.78988e-08
-1.40996e-08
-3.69674e-08
-1.031e-08
-3.49534e-08
-6.6584e-09
-3.20228e-08
-3.21938e-09
-2.83501e-08
5.14824e-12
-2.40392e-08
3.13303e-09
-1.91621e-08
6.32525e-09
-1.37413e-08
9.80866e-09
-8.29192e-09
1.3571e-08
-3.48754e-09
1.60357e-08
1.13004e-08
-7.00196e-09
9.56736e-08
-1.38933e-08
1.42014e-07
-2.08047e-08
1.3912e-07
-2.65834e-08
1.33787e-07
-3.21355e-08
1.33646e-07
-3.65022e-08
1.36928e-07
-4.02347e-08
1.41764e-07
-4.32556e-08
1.47084e-07
-4.55177e-08
1.5245e-07
-4.70108e-08
1.57993e-07
-4.79143e-08
1.63978e-07
-4.85598e-08
1.70477e-07
-4.91318e-08
1.77354e-07
-4.95206e-08
1.84427e-07
-4.94653e-08
1.91552e-07
-4.88008e-08
1.9862e-07
-4.75603e-08
2.0552e-07
-4.58941e-08
2.1214e-07
-4.39201e-08
2.18382e-07
-4.16321e-08
2.24172e-07
-3.89039e-08
2.29453e-07
-3.55548e-08
2.34159e-07
-3.14204e-08
2.38216e-07
-2.63923e-08
2.41543e-07
-2.04251e-08
2.44061e-07
-1.35254e-08
2.45702e-07
-5.74199e-09
2.46405e-07
2.83775e-09
2.46132e-07
1.20843e-08
2.44835e-07
2.18252e-08
2.42483e-07
3.18514e-08
2.39051e-07
4.19301e-08
2.34525e-07
5.18225e-08
2.28903e-07
6.13009e-08
2.22196e-07
7.01606e-08
2.14427e-07
7.82286e-08
2.05635e-07
8.53682e-08
1.95873e-07
9.14825e-08
1.85213e-07
9.65165e-08
1.73738e-07
1.00458e-07
1.61552e-07
1.03335e-07
1.48773e-07
1.05211e-07
1.35533e-07
1.0617e-07
1.21979e-07
1.06306e-07
1.08263e-07
1.057e-07
9.45384e-08
1.04405e-07
8.09463e-08
1.02436e-07
6.76131e-08
9.97589e-08
5.46475e-08
9.63058e-08
4.21454e-08
9.19909e-08
3.01977e-08
8.67391e-08
1.88975e-08
8.05173e-08
8.34309e-09
7.33561e-08
-1.36445e-09
6.53615e-08
-1.01304e-08
5.67045e-08
-1.78741e-08
4.76016e-08
-2.45389e-08
3.82833e-08
-3.00904e-08
2.89739e-08
-3.45184e-08
1.98709e-08
-3.78268e-08
1.11456e-08
-4.0032e-08
2.93888e-09
-4.11539e-08
-4.63146e-09
-4.12179e-08
-1.14746e-08
-4.02537e-08
-1.75223e-08
-3.83179e-08
-2.27278e-08
-3.55186e-08
-2.70448e-08
-3.20443e-08
-3.04136e-08
-2.81418e-08
-3.27663e-08
-2.40478e-08
-3.40619e-08
-1.99067e-08
-3.42946e-08
-1.5763e-08
-3.34768e-08
-1.16325e-08
-3.16709e-08
-7.58162e-09
-2.90311e-08
-3.72658e-09
-2.57033e-08
-1.53038e-10
-2.1848e-08
3.19493e-09
-1.7496e-08
6.5061e-09
-1.25672e-08
1.00091e-08
-7.58662e-09
1.37368e-08
-3.13954e-09
1.61959e-08
1.14301e-08
-6.95125e-09
9.86317e-08
-1.30211e-08
1.46262e-07
-1.85762e-08
1.43314e-07
-2.30796e-08
1.38015e-07
-2.77536e-08
1.38072e-07
-3.17056e-08
1.41744e-07
-3.52934e-08
1.47022e-07
-3.82662e-08
1.52947e-07
-4.02573e-08
1.59071e-07
-4.12171e-08
1.65349e-07
-4.15368e-08
1.71903e-07
-4.17356e-08
1.78772e-07
-4.20508e-08
1.85893e-07
-4.23358e-08
1.93172e-07
-4.22946e-08
2.00512e-07
-4.17535e-08
2.07798e-07
-4.07443e-08
2.14902e-07
-3.94035e-08
2.21707e-07
-3.78301e-08
2.2813e-07
-3.60077e-08
2.34118e-07
-3.38139e-08
2.39628e-07
-3.10785e-08
2.44603e-07
-2.76428e-08
2.48986e-07
-2.33954e-08
2.52682e-07
-1.82809e-08
2.55597e-07
-1.22952e-08
2.57639e-07
-5.47706e-09
2.58724e-07
2.09315e-09
2.58777e-07
1.02935e-08
2.57732e-07
1.89604e-08
2.55535e-07
2.7895e-08
2.52143e-07
3.68765e-08
2.47532e-07
4.56792e-08
2.41694e-07
5.40892e-08
2.34641e-07
6.19166e-08
2.26407e-07
6.90044e-08
2.17046e-07
7.52321e-08
2.06635e-07
8.05192e-08
1.95267e-07
8.48273e-08
1.83055e-07
8.81605e-08
1.70126e-07
9.05623e-08
1.56619e-07
9.21074e-08
1.42681e-07
9.28877e-08
1.28464e-07
9.29945e-08
1.14118e-07
9.24998e-08
9.9787e-08
9.14418e-08
8.56036e-08
8.98163e-08
7.16841e-08
8.75791e-08
5.81292e-08
8.46563e-08
4.50288e-08
8.09641e-08
3.2471e-08
7.64323e-08
2.05505e-08
7.10286e-08
9.37453e-09
6.47789e-08
-9.41126e-10
5.77733e-08
-1.0281e-08
5.01628e-08
-1.85476e-08
4.2139e-08
-2.567e-08
3.39136e-08
-3.16123e-08
2.56918e-08
-3.63631e-08
1.76621e-08
-3.99292e-08
9.98614e-09
-4.23226e-08
2.80358e-09
-4.35661e-08
-3.77726e-09
-4.36933e-08
-9.68619e-09
-4.27603e-08
-1.4909e-08
-4.08445e-08
-1.94705e-08
-3.80564e-08
-2.3381e-08
-3.45479e-08
-2.65649e-08
-3.05193e-08
-2.8866e-08
-2.61849e-08
-3.01439e-08
-2.17158e-08
-3.03659e-08
-1.72026e-08
-2.9596e-08
-1.2691e-08
-2.79646e-08
-8.25714e-09
-2.5647e-08
-4.0399e-09
-2.27378e-08
-1.7279e-10
-1.93637e-08
3.34406e-09
-1.55556e-08
6.70197e-09
-1.11549e-08
1.01571e-08
-6.70119e-09
1.37501e-08
-2.7437e-09
1.6125e-08
1.13853e-08
-6.63457e-09
1.01251e-07
-1.1717e-08
1.49971e-07
-1.60253e-08
1.46917e-07
-1.92858e-08
1.41418e-07
-2.29915e-08
1.41342e-07
-2.64589e-08
1.45097e-07
-2.97088e-08
1.50629e-07
-3.24505e-08
1.56923e-07
-3.41597e-08
1.63621e-07
-3.47333e-08
1.70568e-07
-3.46495e-08
1.7767e-07
-3.4524e-08
1.84868e-07
-3.46201e-08
1.9216e-07
-3.47949e-08
1.99537e-07
-3.47631e-08
2.06963e-07
-3.43591e-08
2.14345e-07
-3.3601e-08
2.21563e-07
-3.25949e-08
2.28508e-07
-3.14128e-08
2.35107e-07
-3.00291e-08
2.4132e-07
-2.83315e-08
2.47117e-07
-2.61679e-08
2.52453e-07
-2.33959e-08
2.57256e-07
-1.99108e-08
2.61431e-07
-1.5656e-08
2.64864e-07
-1.06197e-08
2.67435e-07
-4.83222e-09
2.69029e-07
1.63653e-09
2.69538e-07
8.67562e-09
2.68872e-07
1.61352e-08
2.66952e-07
2.38328e-08
2.63722e-07
3.15668e-08
2.59149e-07
3.9132e-08
2.53223e-07
4.63356e-08
2.45964e-07
5.30093e-08
2.37418e-07
5.90167e-08
2.27656e-07
6.42576e-08
2.16774e-07
6.86697e-08
2.04889e-07
7.22306e-08
1.92135e-07
7.49564e-08
1.78658e-07
7.68995e-08
1.64613e-07
7.81385e-08
1.50156e-07
7.87648e-08
1.35437e-07
7.88628e-08
1.206e-07
7.84931e-08
1.05778e-07
7.76781e-08
9.1091e-08
7.63987e-08
7.66454e-08
7.45999e-08
6.25363e-08
7.22056e-08
4.88523e-08
6.91384e-08
3.56847e-08
6.53386e-08
2.31357e-08
6.07828e-08
1.13241e-08
5.54934e-08
3.83267e-10
4.95456e-08
-9.55197e-09
4.30605e-08
-1.83623e-08
3.62001e-08
-2.59639e-08
2.91478e-08
-3.23134e-08
2.20954e-08
-3.7406e-08
1.52194e-08
-4.12541e-08
8.67362e-09
-4.38766e-08
2.57997e-09
-4.52926e-08
-2.9697e-09
-4.55395e-08
-7.92858e-09
-4.46839e-08
-1.23073e-08
-4.28297e-08
-1.61724e-08
-4.01025e-08
-1.95758e-08
-3.66389e-08
-2.24563e-08
-3.25833e-08
-2.4613e-08
-2.80952e-08
-2.58275e-08
-2.33377e-08
-2.60216e-08