/*--------------------------------*- C++ -*----------------------------------*\
| =========                 |                                                 |
| \\      /  F ield         | OpenFOAM: The Open Source CFD Toolbox           |
|  \\    /   O peration     | Version:  2412                                  |
|   \\  /    A nd           | Website:  www.openfoam.com                      |
|    \\/     M anipulation  |                                                 |
\*---------------------------------------------------------------------------*/
FoamFile
{
    version     2.0;
    format      ascii;
    arch        "LSB;label=32;scalar=64";
    class       surfaceScalarField;
    location    "9.85";
    object      phi;
}
// * * * * * * * * * * * * * * * * * * * * * * * * * * * * * * * * * * * * * //

dimensions      [0 3 -1 0 0 0 0];

oriented        oriented;

internalField   nonuniform List<scalar> 
12640
(
-3.95844e-10
3.95152e-10
-2.64039e-09
1.93322e-09
-5.9581e-09
3.02333e-09
-9.858e-09
3.63347e-09
-1.39921e-08
3.88798e-09
-1.81309e-08
3.91431e-09
-2.21274e-08
3.79431e-09
-2.58682e-08
3.56077e-09
-2.92352e-08
3.20855e-09
-3.20782e-08
2.70511e-09
-3.41965e-08
1.99951e-09
-3.53281e-08
1.03079e-09
-3.51473e-08
-2.6538e-10
-3.32671e-08
-1.94995e-09
-2.92477e-08
-4.07604e-09
-2.26094e-08
-6.68319e-09
-1.28517e-08
-9.792e-09
5.21005e-10
-1.33975e-08
1.79664e-08
-1.74617e-08
3.98635e-08
-2.19057e-08
6.64628e-08
-2.66015e-08
9.78304e-08
-3.13647e-08
1.33786e-07
-3.59484e-08
1.73837e-07
-4.00423e-08
2.17123e-07
-4.32764e-08
2.62368e-07
-4.52345e-08
3.07853e-07
-4.54764e-08
3.51434e-07
-4.35741e-08
3.90597e-07
-3.91583e-08
4.22573e-07
-3.19752e-08
4.44514e-07
-2.19448e-08
4.5372e-07
-9.21539e-09
4.47903e-07
5.80038e-09
4.25462e-07
2.24156e-08
3.85729e-07
3.96985e-08
3.29148e-07
5.65362e-08
2.57352e-07
7.17389e-08
1.73128e-07
8.41571e-08
8.02419e-08
9.28107e-08
-1.68362e-08
9.69956e-08
-1.13292e-07
9.63687e-08
-2.04363e-07
9.09828e-08
-2.85734e-07
8.12841e-08
-3.53875e-07
6.80564e-08
-4.06291e-07
5.23371e-08
-4.41657e-07
3.52959e-08
-4.59828e-07
1.81121e-08
-4.61728e-07
1.85633e-09
-4.49153e-07
-1.26001e-08
-4.24515e-07
-2.46454e-08
-3.90564e-07
-3.39447e-08
-3.5013e-07
-4.0418e-08
-3.05921e-07
-4.41906e-08
-2.60356e-07
-4.55517e-08
-2.15459e-07
-4.48948e-08
-1.72822e-07
-4.2648e-08
-1.33608e-07
-3.92388e-08
-9.85752e-08
-3.50672e-08
-6.8128e-08
-3.04868e-08
-4.23738e-08
-2.57937e-08
-2.11928e-08
-2.12157e-08
-4.30343e-09
-1.69165e-08
8.68615e-09
-1.30084e-08
1.82363e-08
-9.56199e-09
2.4837e-08
-6.60868e-09
2.89752e-08
-4.14652e-09
3.11103e-08
-2.148e-09
3.16562e-08
-5.67896e-10
3.09712e-08
6.50002e-10
2.93527e-08
1.5674e-09
2.70344e-08
2.24853e-09
2.41896e-08
2.75419e-09
2.09417e-08
3.13522e-09
1.73828e-08
3.42307e-09
1.36037e-08
3.61951e-09
9.73485e-09
3.68566e-09
5.99752e-09
3.53208e-09
2.76148e-09
3.01123e-09
5.89879e-10
1.93298e-09
3.65596e-10
-2.12296e-09
2.23123e-09
-7.61829e-09
6.86074e-09
-1.51985e-08
1.00791e-08
-2.39345e-08
1.18833e-08
-3.31311e-08
1.26272e-08
-4.22913e-08
1.26488e-08
-5.10549e-08
1.21658e-08
-5.91128e-08
1.12611e-08
-6.6131e-08
9.90372e-09
-7.16916e-08
7.97672e-09
-7.52525e-08
5.30441e-09
-7.61242e-08
1.67837e-09
-7.34643e-08
-3.11941e-09
-6.6285e-08
-9.29535e-09
-5.34758e-08
-1.70253e-08
-3.38396e-08
-2.64359e-08
-6.14252e-09
-3.75842e-08
3.08185e-08
-5.04342e-08
7.81307e-08
-6.48322e-08
1.36661e-07
-8.04785e-08
2.06931e-07
-9.69012e-08
2.88979e-07
-1.13431e-07
3.82209e-07
-1.29187e-07
4.85233e-07
-1.43069e-07
5.95739e-07
-1.53779e-07
7.10383e-07
-1.5987e-07
8.24742e-07
-1.59825e-07
9.3336e-07
-1.52181e-07
1.02991e-06
-1.35693e-07
1.10747e-06
-1.09527e-07
1.159e-06
-7.34602e-08
1.17785e-06
-2.80597e-08
1.15846e-06
2.51921e-08
1.09699e-06
8.38741e-08
9.91949e-07
1.44724e-07
8.44588e-07
2.0387e-07
6.59109e-07
2.5718e-07
4.42545e-07
3.00673e-07
2.04341e-07
3.30956e-07
-4.43286e-08
3.45599e-07
-2.91442e-07
3.43413e-07
-5.25113e-07
3.24584e-07
-7.34546e-07
2.90651e-07
-9.10876e-07
2.44326e-07
-1.04778e-06
1.89193e-07
-1.14184e-06
1.29307e-07
-1.19251e-06
6.8759e-08
-1.20195e-06
1.12817e-08
-1.17448e-06
-4.00729e-08
-1.11599e-06
-8.31345e-08
-1.03324e-06
-1.1668e-07
-9.33262e-07
-1.40374e-07
-8.22831e-07
-1.54609e-07
-7.08041e-07
-1.6034e-07
-5.94057e-07
-1.5889e-07
-4.84996e-07
-1.51738e-07
-3.83907e-07
-1.40372e-07
-2.92847e-07
-1.26184e-07
-2.12981e-07
-1.10418e-07
-1.44727e-07
-9.4116e-08
-8.79131e-08
-7.80987e-08
-4.19324e-08
-6.29669e-08
-5.87643e-09
-4.91356e-08
2.13504e-08
-3.68651e-08
4.09373e-08
-2.62815e-08
5.40866e-08
-1.73966e-08
6.19495e-08
-1.01319e-08
6.5577e-08
-4.34116e-09
6.58881e-08
1.64299e-10
6.36527e-08
3.59651e-09
5.94872e-08
6.17412e-09
5.38631e-08
8.10373e-09
4.71313e-08
9.55772e-09
3.95637e-08
1.06469e-08
3.14159e-08
1.13907e-08
2.30065e-08
1.16879e-08
1.48103e-08
1.12949e-08
7.53993e-09
9.82784e-09
2.17072e-09
6.85075e-09
2.33318e-09
-3.33416e-09
5.29115e-09
-1.0912e-08
1.38838e-08
-2.08951e-08
1.95494e-08
-3.21846e-08
2.26913e-08
-4.39785e-08
2.3963e-08
-5.56877e-08
2.39273e-08
-6.68528e-08
2.29295e-08
-7.70419e-08
2.10791e-08
-8.57593e-08
1.82802e-08
-9.23724e-08
1.42789e-08
-9.60624e-08
8.71273e-09
-9.57971e-08
1.15962e-09
-9.0325e-08
-8.81804e-09
-7.81897e-08
-2.16317e-08
-5.77646e-08
-3.76281e-08
-2.73056e-08
-5.70507e-08
1.49741e-08
-7.99992e-08
7.08062e-08
-1.06383e-07
1.41744e-07
-1.35868e-07
2.29012e-07
-1.67827e-07
3.33327e-07
-2.0128e-07
4.54698e-07
-2.3485e-07
5.92209e-07
-2.66731e-07
7.43799e-07
-2.94676e-07
9.06059e-07
-3.16045e-07
1.07408e-06
-3.27889e-07
1.2414e-06
-3.27123e-07
1.40003e-06
-3.10776e-07
1.54069e-06
-2.76319e-07
1.65326e-06
-2.22054e-07
1.72738e-06
-1.4753e-07
1.75329e-06
-5.39087e-08
1.72275e-06
5.57756e-08
1.63011e-06
1.76562e-07
1.47312e-06
3.01758e-07
1.25359e-06
4.2342e-07
9.77732e-07
5.33055e-07
6.55913e-07
6.22493e-07
3.02097e-07
6.8476e-07
-6.71901e-08
7.14865e-07
-4.34172e-07
7.10367e-07
-7.81269e-07
6.71651e-07
-1.09252e-06
6.01875e-07
-1.35484e-06
5.06616e-07
-1.5589e-06
3.93231e-07
-1.69966e-06
2.70044e-07
-1.77637e-06
1.45458e-07
-1.79222e-06
2.71322e-08
-1.75361e-06
-7.86763e-08
-1.66921e-06
-1.67518e-07
-1.54898e-06
-2.36884e-07
-1.40323e-06
-2.8608e-07
-1.24188e-06
-3.15916e-07
-1.07385e-06
-3.28335e-07
-9.06698e-07
-3.26017e-07
-7.46452e-07
-3.11977e-07
-5.97588e-07
-2.89249e-07
-4.63136e-07
-2.60673e-07
-3.44837e-07
-2.28773e-07
-2.43355e-07
-1.95673e-07
-1.58488e-07
-1.63055e-07
-8.93957e-08
-1.32161e-07
-3.47887e-08
-1.03856e-07
6.90167e-09
-7.86798e-08
3.73887e-08
-5.69059e-08
5.8413e-08
-3.8574e-08
7.16514e-08
-2.35424e-08
7.86444e-08
-1.15282e-08
8.07486e-08
-2.15868e-09
7.91099e-08
4.98975e-09
7.46546e-08
1.0356e-08
6.80991e-08
1.43574e-08
5.99796e-08
1.7347e-08
5.07047e-08
1.9564e-08
4.06306e-08
2.10807e-08
3.0158e-08
2.17521e-08
1.98413e-08
2.11822e-08
1.04896e-08
1.87339e-08
3.262e-09
1.36399e-08
5.39036e-09
-3.82499e-09
8.84437e-09
-1.22188e-08
2.17148e-08
-2.30212e-08
2.98319e-08
-3.50932e-08
3.42737e-08
-4.7679e-08
3.60813e-08
-6.02353e-08
3.60425e-08
-7.2314e-08
3.45955e-08
-8.34458e-08
3.18265e-08
-9.30403e-08
2.75181e-08
-1.00311e-07
2.12191e-08
-1.04223e-07
1.23208e-08
-1.03472e-07
1.29317e-10
-9.64805e-08
-1.60663e-08
-8.14169e-08
-3.69299e-08
-5.62426e-08
-6.30168e-08
-1.87756e-08
-9.47133e-08
3.32189e-08
-1.32172e-07
1.01912e-07
-1.75236e-07
1.89261e-07
-2.23361e-07
2.96834e-07
-2.75524e-07
4.25587e-07
-3.30138e-07
5.75625e-07
-3.84974e-07
7.4593e-07
-4.37101e-07
9.34084e-07
-4.82874e-07
1.136e-06
-5.17988e-07
1.34574e-06
-5.37623e-07
1.55534e-06
-5.36707e-07
1.75492e-06
-5.10318e-07
1.93287e-06
-4.54219e-07
2.07639e-06
-3.65506e-07
2.17223e-06
-2.43294e-07
2.20776e-06
-8.93595e-08
2.17221e-06
9.14079e-08
2.05797e-06
2.9088e-07
1.86179e-06
4.97996e-07
1.58572e-06
6.9955e-07
1.23743e-06
8.81382e-07
8.30113e-07
1.02983e-06
3.81653e-07
1.13323e-06
-8.67134e-08
1.18324e-06
-5.52097e-07
1.17575e-06
-9.91873e-07
1.11143e-06
-1.38555e-06
9.95558e-07
-1.7164e-06
8.37474e-07
-1.97265e-06
6.49484e-07
-2.14808e-06
4.45485e-07
-2.24209e-06
2.39479e-07
-2.25912e-06
4.41738e-08
-2.20767e-06
-1.30107e-07
-2.09907e-06
-2.76094e-07
-1.94615e-06
-3.89765e-07
-1.76207e-06
-4.70116e-07
-1.5593e-06
-5.18617e-07
-1.34899e-06
-5.38574e-07
-1.14048e-06
-5.34451e-07
-9.41168e-07
-5.11238e-07
-7.56455e-07
-4.73933e-07
-5.89947e-07
-4.2718e-07
-4.43675e-07
-3.75078e-07
-3.1835e-07
-3.21064e-07
-2.13643e-07
-2.67858e-07
-1.28447e-07
-2.1748e-07
-6.11192e-08
-1.71328e-07
-9.68377e-09
-1.3028e-07
2.80026e-08
-9.4776e-08
5.41125e-08
-6.48857e-08
7.07387e-08
-4.03896e-08
7.98105e-08
-2.08416e-08
8.3035e-08
-5.64691e-09
8.18612e-08
5.87608e-09
7.74644e-08
1.44404e-08
7.07525e-08
2.07315e-08
6.23944e-08
2.53419e-08
5.28736e-08
2.86969e-08
4.25672e-08
3.09759e-08
3.18496e-08
3.20373e-08
2.12161e-08
3.13653e-08
1.14192e-08
2.8067e-08
3.64619e-09
2.09582e-08
8.80818e-09
-3.74935e-09
1.23033e-08
-1.18384e-08
2.92104e-08
-2.21217e-08
3.95689e-08
-3.36017e-08
4.52375e-08
-4.57084e-08
4.76936e-08
-5.8064e-08
4.793e-08
-7.03308e-08
4.64224e-08
-8.20803e-08
4.31636e-08
-9.26906e-08
3.77418e-08
-1.01274e-07
2.944e-08
-1.06633e-07
1.73408e-08
-1.07244e-07
4.24019e-10
-1.01263e-07
-2.23427e-08
-8.65512e-08
-5.19169e-08
-6.07267e-08
-8.90978e-08
-2.12356e-08
-1.34444e-07
3.45508e-08
-1.88181e-07
1.09211e-07
-2.50102e-07
2.05114e-07
-3.19452e-07
3.24224e-07
-3.94802e-07
4.67862e-07
-4.73923e-07
6.36431e-07
-5.53666e-07
8.29103e-07
-6.29868e-07
1.04348e-06
-6.97321e-07
1.27528e-06
-7.49823e-07
1.51801e-06
-7.80366e-07
1.76282e-06
-7.81497e-07
1.99842e-06
-7.45874e-07
2.21132e-06
-6.67047e-07
2.3863e-06
-5.4041e-07
2.50736e-06
-3.64257e-07
2.55888e-06
-1.40785e-07
2.52723e-06
1.23153e-07
2.40242e-06
4.15777e-07
2.17971e-06
7.20783e-07
1.86082e-06
1.0185e-06
1.45456e-06
1.2877e-06
9.76597e-07
1.50785e-06
4.48531e-07
1.66135e-06
-1.03796e-07
1.73561e-06
-6.52461e-07
1.72447e-06
-1.16988e-06
1.62891e-06
-1.63116e-06
1.45691e-06
-2.01618e-06
1.22257e-06
-2.31103e-06
9.44414e-07
-2.50881e-06
6.43335e-07
-2.60954e-06
3.40277e-07
-2.61942e-06
5.41117e-08
-2.54948e-06
-2.00004e-07
-2.41394e-06
-4.11595e-07
-2.22856e-06
-5.75099e-07
-2.00916e-06
-6.89449e-07
-1.7705e-06
-7.57206e-07
-1.52544e-06
-7.83534e-07
-1.28462e-06
-7.7518e-07
-1.0562e-06
-7.39563e-07
-8.46049e-07
-6.8402e-07
-6.57898e-07
-6.15299e-07
-4.937e-07
-5.39285e-07
-3.53947e-07
-4.6087e-07
-2.37998e-07
-3.83905e-07
-1.44379e-07
-3.11237e-07
-7.10542e-08
-2.44827e-07
-1.56457e-08
-1.85893e-07
2.43806e-08
-1.35032e-07
5.1573e-08
-9.23316e-08
6.83736e-08
-5.74653e-08
7.7035e-08
-2.97995e-08
7.95535e-08
-8.48375e-09
7.7626e-08
7.46275e-09
7.26281e-08
1.90743e-08
6.56128e-08
2.7359e-08
5.73328e-08
3.32101e-08
4.82878e-08
3.73069e-08
3.87993e-08
4.00074e-08
2.91165e-08
4.12434e-08
1.95536e-08
4.04353e-08
1.06615e-08
3.64547e-08
3.46534e-09
2.766e-08
1.20117e-08
-3.25018e-09
1.52383e-08
-1.01433e-08
3.54726e-08
-1.88526e-08
4.76993e-08
-2.87361e-08
5.45723e-08
-3.95642e-08
5.79948e-08
-5.12426e-08
5.91084e-08
-6.36328e-08
5.83417e-08
-7.64137e-08
5.55013e-08
-8.89821e-08
4.98922e-08
-1.0039e-07
4.04538e-08
-1.09315e-07
2.5894e-08
-1.14054e-07
4.81366e-09
-1.1254e-07
-2.41849e-08
-1.02372e-07
-6.2391e-08
-8.08728e-08
-1.10883e-07
-4.51575e-08
-1.70427e-07
7.77098e-09
-2.41359e-07
8.08992e-08
-3.23463e-07
1.77048e-07
-4.15814e-07
2.98674e-07
-5.1662e-07
4.47628e-07
-6.23045e-07
6.24859e-07
-7.31036e-07
8.30064e-07
-8.35182e-07
1.0613e-06
-9.28635e-07
1.31458e-06
-1.00314e-06
1.58345e-06
-1.04924e-06
1.85868e-06
-1.05671e-06
2.1281e-06
-1.01525e-06
2.37667e-06
-9.15552e-07
2.58696e-06
-7.50619e-07
2.74005e-06
-5.17257e-07
2.81696e-06
-2.17613e-07
2.80057e-06
1.39624e-07
2.67774e-06
5.38674e-07
2.44148e-06
9.5711e-07
2.09259e-06
1.36746e-06
1.64056e-06
1.73981e-06
1.10343e-06
2.04505e-06
5.06641e-07
2.25823e-06
-1.1908e-07
2.36144e-06
-7.40403e-07
2.34593e-06
-1.32442e-06
2.21307e-06
-1.84159e-06
1.97426e-06
-2.26833e-06
1.6495e-06
-2.58883e-06
1.2651e-06
-2.79594e-06
8.50626e-07
-2.89102e-06
4.35516e-07
-2.88281e-06
4.60194e-08
-2.78557e-06
-2.97145e-07
-2.61701e-06
-5.80087e-07
-2.39613e-06
-7.95925e-07
-2.14147e-06
-9.44056e-07
-1.8698e-06
-1.0288e-06
-1.59537e-06
-1.05788e-06
-1.32953e-06
-1.04093e-06
-1.0807e-06
-9.8829e-07
-8.5464e-07
-9.10001e-07
-6.54732e-07
-8.15153e-07
-4.82448e-07
-7.11556e-07
-3.37743e-07
-6.05611e-07
-2.19436e-07
-5.02298e-07
-1.25545e-07
-4.05265e-07
-5.356e-08
-3.16994e-07
-6.77352e-10
-2.38998e-07
3.60226e-08
-1.71989e-07
5.94309e-08
-1.16027e-07
7.23017e-08
-7.0649e-08
7.71647e-08
-3.49995e-08
7.62607e-08
-7.93999e-09
7.1495e-08
1.18453e-08
6.44076e-08
2.57552e-08
5.61632e-08
3.51731e-08
4.75605e-08
4.13585e-08
3.90665e-08
4.53226e-08
3.08808e-08
4.76916e-08
2.3037e-08
4.85649e-08
1.55488e-08
4.73841e-08
8.60842e-09
4.28434e-08
2.86659e-09
3.28591e-08
1.45782e-08
-2.42916e-09
1.7326e-08
-7.43629e-09
3.98092e-08
-1.37816e-08
5.34316e-08
-2.14011e-08
6.16098e-08
-3.05694e-08
6.66044e-08
-4.15914e-08
6.96012e-08
-5.4606e-08
7.08589e-08
-6.94502e-08
6.98783e-08
-8.55726e-08
6.5575e-08
-1.0199e-07
5.64571e-08
-1.17276e-07
4.07911e-08
-1.29575e-07
1.67481e-08
-1.36625e-07
-1.74725e-08
-1.35803e-07
-6.35253e-08
-1.24171e-07
-1.22803e-07
-9.85446e-08
-1.96317e-07
-5.55766e-08
-2.8457e-07
8.1365e-09
-3.87397e-07
9.59144e-08
-5.03791e-07
2.10812e-07
-6.31694e-07
3.55383e-07
-7.67767e-07
5.31385e-07
-9.07158e-07
7.39405e-07
-1.04329e-06
9.78417e-07
-1.1677e-06
1.24528e-06
-1.27003e-06
1.53419e-06
-1.33814e-06
1.83617e-06
-1.35866e-06
2.13872e-06
-1.31775e-06
2.42564e-06
-1.20242e-06
2.67738e-06
-1.0023e-06
2.87188e-06
-7.11706e-07
2.98619e-06
-3.31885e-07
2.99877e-06
1.27083e-07
2.89224e-06
6.45231e-07
2.6563e-06
1.19309e-06
2.29002e-06
1.7338e-06
1.80319e-06
2.22674e-06
1.21621e-06
2.63216e-06
5.58723e-07
2.91589e-06
-1.33024e-07
3.0534e-06
-8.19536e-07
3.03268e-06
-1.46183e-06
2.85564e-06
-2.02515e-06
2.53788e-06
-2.48216e-06
2.10682e-06
-2.81524e-06
1.5985e-06
-3.01754e-06
1.05323e-06
-3.09264e-06
5.1089e-07
-3.0529e-06
6.50159e-09
-2.91695e-06
-4.32948e-07
-2.70677e-06
-7.90158e-07
-2.44514e-06
-1.0575e-06
-2.15343e-06
-1.23573e-06
-1.85026e-06
-1.33193e-06
-1.5508e-06
-1.3573e-06
-1.26654e-06
-1.32513e-06
-1.00556e-06
-1.2492e-06
-7.72872e-07
-1.14261e-06
-5.71007e-07
-1.01696e-06
-4.00511e-07
-8.82024e-07
-2.60468e-07
-7.45667e-07
-1.48919e-07
-6.13908e-07
-6.3215e-08
-4.9108e-07
-2.90137e-10
-3.8008e-07
4.31218e-08
-2.82616e-07
7.03237e-08
-1.99438e-07
8.453e-08
-1.30515e-07
8.87713e-08
-7.52031e-08
8.58192e-08
-3.23881e-08
7.8126e-08
-6.13821e-10
6.77773e-08
2.18015e-08
5.64558e-08
3.66584e-08
4.54175e-08
4.57666e-08
3.54842e-08
5.08196e-08
2.70572e-08
5.32489e-08
2.01626e-08
5.40572e-08
1.45393e-08
5.36329e-08
9.78594e-09
5.15599e-08
5.57079e-09
4.64638e-08
1.95347e-09
3.58868e-08
1.61965e-08
-1.34249e-09
1.83007e-08
-3.91041e-09
4.16669e-08
-7.31135e-09
5.61857e-08
-1.22841e-08
6.59692e-08
-1.97715e-08
7.35054e-08
-3.05832e-08
7.98614e-08
-4.51958e-08
8.49582e-08
-6.3634e-08
8.78392e-08
-8.54105e-08
8.6907e-08
-1.09512e-07
8.01443e-08
-1.34415e-07
6.53109e-08
-1.58124e-07
4.01047e-08
-1.78208e-07
2.29316e-09
-1.9185e-07
-5.01665e-08
-1.95894e-07
-1.19009e-07
-1.86892e-07
-2.05537e-07
-1.61176e-07
-3.10474e-07
-1.14933e-07
-4.33802e-07
-4.43137e-08
-5.74547e-07
5.44145e-08
-7.30533e-07
1.84665e-07
-8.98101e-07
3.49251e-07
-1.0718e-06
5.50007e-07
-1.24407e-06
7.87309e-07
-1.40501e-06
1.05947e-06
-1.54216e-06
1.36203e-06
-1.64067e-06
1.68703e-06
-1.68361e-06
2.0223e-06
-1.65297e-06
2.35102e-06
-1.5311e-06
2.65169e-06
-1.30295e-06
2.89888e-06
-9.58899e-07
3.0649e-06
-4.97916e-07
3.12254e-06
6.94237e-08
3.04874e-06
7.19025e-07
2.82847e-06
1.41339e-06
2.45805e-06
2.1043e-06
1.94705e-06
2.73787e-06
1.31839e-06
3.26102e-06
6.06492e-07
3.62805e-06
-1.45949e-07
3.80616e-06
-8.9218e-07
3.77927e-06
-1.58608e-06
3.54992e-06
-2.18677e-06
3.13897e-06
-2.66267e-06
2.58315e-06
-2.99441e-06
1.93066e-06
-3.17607e-06
1.23531e-06
-3.21463e-06
5.49826e-07
-3.12755e-06
-8.02767e-08
-2.9392e-06
-6.21072e-07
-2.67704e-06
-1.05218e-06
-2.3682e-06
-1.36629e-06
-2.03702e-06
-1.56691e-06
-1.70367e-06
-1.66531e-06
-1.38365e-06
-1.67735e-06
-1.08791e-06
-1.62087e-06
-8.2341e-07
-1.51369e-06
-5.93786e-07
-1.37221e-06
-4.00104e-07
-1.21061e-06
-2.41545e-07
-1.04056e-06
-1.15992e-07
-8.71213e-07
-2.04899e-08
-7.09436e-07
4.84117e-08
-5.60047e-07
9.43999e-08
-4.26177e-07
1.21219e-07
-3.09587e-07
1.32539e-07
-2.10951e-07
1.31865e-07
-1.30071e-07
1.22465e-07
-6.60674e-08
1.07316e-07
-1.75348e-08
8.9052e-08
1.73241e-08
6.99202e-08
4.0578e-08
5.17342e-08
5.44587e-08
3.58362e-08
6.12468e-08
2.30662e-08
6.31372e-08
1.37473e-08
6.20783e-08
7.70249e-09
5.95743e-08
4.31697e-09
5.64541e-08
2.66736e-09
5.26126e-08
1.74149e-09
4.67669e-08
7.83468e-10
3.62201e-08
1.66216e-08
3.88534e-13
1.7907e-08
3.58671e-10
4.05585e-08
3.36027e-10
5.55281e-08
-1.83898e-09
6.7501e-08
-7.93072e-09
7.89864e-08
-1.93375e-08
9.07005e-08
-3.69068e-08
1.02007e-07
-6.08516e-08
1.11308e-07
-9.07349e-08
1.16355e-07
-1.25497e-07
1.14509e-07
-1.63512e-07
1.02964e-07
-2.02646e-07
7.89179e-08
-2.40324e-07
3.96917e-08
-2.73572e-07
-1.71528e-08
-2.99062e-07
-9.37086e-08
-3.13144e-07
-1.91601e-07
-3.11881e-07
-3.11844e-07
-2.91093e-07
-4.54661e-07
-2.46422e-07
-6.19258e-07
-1.73423e-07
-8.03542e-07
-6.77252e-08
-1.00378e-06
7.47354e-08
-1.21422e-06
2.57367e-07
-1.42664e-06
4.82422e-07
-1.62998e-06
7.50313e-07
-1.80996e-06
1.05874e-06
-1.949e-06
1.40165e-06
-2.02644e-06
1.76815e-06
-2.01942e-06
2.14157e-06
-1.90449e-06
2.49892e-06
-1.6603e-06
2.81124e-06
-1.27124e-06
3.04523e-06
-7.31941e-07
3.16652e-06
-5.1884e-08
3.14441e-06
7.41154e-07
2.95729e-06
1.60058e-06
2.59738e-06
2.46437e-06
2.07348e-06
3.26201e-06
1.41121e-06
3.92363e-06
6.50583e-07
4.38907e-06
-1.58055e-07
4.61522e-06
-9.59343e-07
4.58099e-06
-1.69866e-06
4.28967e-06
-2.32789e-06
3.76863e-06
-2.81051e-06
3.0662e-06
-3.12534e-06
2.24595e-06
-3.26824e-06
1.37866e-06
-3.25111e-06
5.33123e-07
-3.09844e-06
-2.3257e-07
-2.84225e-06
-8.76973e-07
-2.5168e-06
-1.37744e-06
-2.15425e-06
-1.72877e-06
-1.78186e-06
-1.93932e-06
-1.4208e-06
-2.02645e-06
-1.08607e-06
-2.01218e-06
-7.87158e-07
-1.91989e-06
-5.29006e-07
-1.77192e-06
-3.13105e-07
-1.58815e-06
-1.38463e-07
-1.38527e-06
-2.45266e-09
-1.17656e-06
9.85371e-08
-9.72192e-07
1.6863e-07
-7.79526e-07
2.12149e-07
-6.03583e-07
2.33415e-07
-4.47489e-07
2.36623e-07
-3.12874e-07
2.2576e-07
-2.00202e-07
2.04563e-07
-1.09023e-07
1.76484e-07
-3.81716e-08
1.44659e-07
1.40746e-08
1.1187e-07
4.98635e-08
8.05083e-08
7.16574e-08
5.25156e-08
8.21336e-08
2.93298e-08
8.40757e-08
1.18249e-08
8.02419e-08
2.60474e-10
7.31946e-08
-5.74406e-09
6.50799e-08
-7.18772e-09
5.73489e-08
-5.59523e-09
5.0426e-08
-2.81008e-09
4.33511e-08
-6.32382e-10
3.34007e-08
1.56249e-08
1.63183e-09
1.58565e-08
5.39619e-09
3.60031e-08
9.08497e-09
5.11233e-08
9.65902e-09
6.62511e-08
4.40389e-09
8.36046e-08
-8.714e-09
1.03234e-07
-3.09049e-08
1.23671e-07
-6.25355e-08
1.42465e-07
-1.03175e-07
1.56567e-07
-1.51682e-07
1.62629e-07
-2.06305e-07
1.57242e-07
-2.64779e-07
1.3709e-07
-3.24404e-07
9.90628e-08
-3.82102e-07
4.03429e-08
-4.34441e-07
-4.15164e-08
-4.77654e-07
-1.48482e-07
-5.07633e-07
-2.81909e-07
-5.19926e-07
-4.42366e-07
-5.09746e-07
-6.29398e-07
-4.7199e-07
-8.41222e-07
-4.01325e-07
-1.07434e-06
-2.92332e-07
-1.32308e-06
-1.39793e-07
-1.57903e-06
6.08462e-08
-1.83046e-06
3.12754e-07
-2.06171e-06
6.16677e-07
-2.25278e-06
9.69602e-07
-2.37925e-06
1.36317e-06
-2.4129e-06
1.78205e-06
-2.32332e-06
2.20263e-06
-2.08086e-06
2.59262e-06
-1.66121e-06
2.91232e-06
-1.05159e-06
3.11833e-06
-2.57793e-07
3.16984e-06
6.8982e-07
3.0362e-06
1.73449e-06
2.70375e-06
2.79718e-06
2.17986e-06
3.78635e-06
1.49313e-06
4.61088e-06
6.90275e-07
5.19246e-06
-1.69391e-07
5.47539e-06
-1.0204e-06
5.43243e-06
-1.79808e-06
5.06771e-06
-2.44573e-06
4.41658e-06
-2.92102e-06
3.54177e-06
-3.20091e-06
2.52615e-06
-3.28396e-06
1.46208e-06
-3.18908e-06
4.38642e-07
-2.95031e-06
-4.70928e-07
-2.60973e-06
-1.2172e-06
-2.20994e-06
-1.77697e-06
-1.78863e-06
-2.14993e-06
-1.3756e-06
-2.35233e-06
-9.92007e-07
-2.41011e-06
-6.51146e-07
-2.35317e-06
-3.59799e-07
-2.21138e-06
-1.19863e-07
-2.01199e-06
7.01627e-08
-1.77829e-06
2.13925e-07
-1.52911e-06
3.16246e-07
-1.27893e-06
3.82436e-07
-1.0384e-06
4.17863e-07
-8.14956e-07
4.27707e-07
-6.1343e-07
4.16855e-07
-4.3665e-07
3.89855e-07
-2.85907e-07
3.50915e-07
-1.6132e-07
3.0391e-07
-6.21052e-08
2.52393e-07
1.32269e-08
1.99595e-07
6.67219e-08
1.48408e-07
1.00868e-07
1.01341e-07
1.18505e-07
6.04704e-08
1.22748e-07
2.73508e-08
1.16896e-07
2.92943e-09
1.04315e-07
-1.25534e-08
8.82725e-08
-1.96448e-08
7.17055e-08
-1.97188e-08
5.68971e-08
-1.49424e-08
4.50693e-08
-8.11922e-09
3.5904e-08
-2.32845e-09
2.69676e-08
1.29412e-08
3.61444e-09
1.17966e-08
1.12851e-08
2.74967e-08
1.89198e-08
4.27308e-08
2.1982e-08
6.24726e-08
1.6727e-08
8.81859e-08
4.9938e-10
1.18846e-07
-2.82163e-08
1.51835e-07
-6.98607e-08
1.83616e-07
-1.23937e-07
2.10197e-07
-1.89166e-07
2.2745e-07
-2.63644e-07
2.31346e-07
-3.44975e-07
2.18084e-07
-4.30374e-07
1.84168e-07
-5.16719e-07
1.26445e-07
-6.00576e-07
4.21527e-08
-6.78176e-07
-7.10102e-08
-7.45387e-07
-2.1477e-07
-7.97647e-07
-3.90126e-07
-8.29904e-07
-5.97112e-07
-8.3656e-07
-8.34493e-07
-8.11442e-07
-1.09935e-06
-7.47827e-07
-1.38656e-06
-6.38599e-07
-1.6881e-06
-4.76603e-07
-1.99229e-06
-2.55332e-07
-2.28281e-06
2.99541e-08
-2.53791e-06
3.80594e-07
-2.72974e-06
7.92409e-07
-2.82458e-06
1.25322e-06
-2.78399e-06
1.74038e-06
-2.56786e-06
2.21909e-06
-2.13971e-06
2.64273e-06
-1.47493e-06
2.9568e-06
-5.71456e-07
3.10716e-06
5.3997e-07
3.05086e-06
1.7914e-06
2.76608e-06
3.08264e-06
2.25799e-06
4.29515e-06
1.55875e-06
5.3108e-06
7.22906e-07
6.02891e-06
-1.79807e-07
6.37859e-06
-1.07232e-06
6.32525e-06
-1.87847e-06
5.874e-06
-2.53157e-06
5.06968e-06
-2.98239e-06
3.99257e-06
-3.20584e-06
2.74963e-06
-3.20441e-06
1.46081e-06
-3.0066e-06
2.41129e-07
-2.65946e-06
-8.17672e-07
-2.21798e-06
-1.65825e-06
-1.73483e-06
-2.25973e-06
-1.25329e-06
-2.63116e-06
-8.04592e-07
-2.80084e-06
-4.08249e-07
-2.80639e-06
-7.40498e-08
-2.68742e-06
1.95457e-07
-2.481e-06
4.02631e-07
-2.21932e-06
5.52801e-07
-1.92862e-06
6.52785e-07
-1.62923e-06
7.09855e-07
-1.33611e-06
7.31084e-07
-1.05972e-06
7.2301e-07
-8.06954e-07
6.9153e-07
-5.82011e-07
6.41921e-07
-3.87104e-07
5.78917e-07
-2.22975e-07
5.06782e-07
-8.92768e-08
4.29392e-07
1.51686e-08
3.5029e-07
9.21866e-08
2.72716e-07
1.44125e-07
1.99609e-07
1.73774e-07
1.33577e-07
1.84306e-07
7.68279e-08
1.79231e-07
3.10709e-08
1.62347e-07
-2.61603e-09
1.37648e-07
-2.39358e-08
1.09183e-07
-3.35232e-08
8.08235e-08
-3.30683e-08
5.59126e-08
-2.53719e-08
3.67908e-08
-1.4278e-08
2.41879e-08
-4.37575e-09
1.64245e-08
8.22216e-09
6.01707e-09
5.30346e-09
1.80862e-08
1.45426e-08
2.97291e-08
3.02799e-08
3.47277e-08
5.67038e-08
2.83124e-08
9.38725e-08
7.2966e-09
1.39191e-07
-3.00146e-08
1.88539e-07
-8.40195e-08
2.37067e-07
-1.54055e-07
2.79715e-07
-2.38637e-07
3.11538e-07
-3.35682e-07
3.2791e-07
-4.42674e-07
3.24612e-07
-5.5679e-07
2.97843e-07
-6.74956e-07
2.44205e-07
-7.93855e-07
1.6069e-07
-9.09882e-07
4.4707e-08
-1.01906e-06
-1.05841e-07
-1.11696e-06
-2.92425e-07
-1.19852e-06
-5.1569e-07
-1.25794e-06
-7.75162e-07
-1.28849e-06
-1.06884e-06
-1.2824e-06
-1.39264e-06
-1.23081e-06
-1.73964e-06
-1.1239e-06
-2.09911e-06
-9.51428e-07
-2.45518e-06
-7.03811e-07
-2.78539e-06
-3.73927e-07
-3.05946e-06
4.02667e-08
-3.23856e-06
5.32301e-07
-3.27574e-06
1.08317e-06
-3.11833e-06
1.65753e-06
-2.71353e-06
2.20208e-06
-2.01876e-06
2.64897e-06
-1.01747e-06
2.92672e-06
2.63222e-07
2.97577e-06
1.7434e-06
2.7632e-06
3.29622e-06
2.29123e-06
4.76801e-06
1.5965e-06
6.00625e-06
7.42743e-07
6.88317e-06
-1.88745e-07
7.31037e-06
-1.1083e-06
7.24487e-06
-1.92725e-06
6.69277e-06
-2.56762e-06
5.70972e-06
-2.97211e-06
4.39669e-06
-3.11316e-06
2.89042e-06
-2.99855e-06
1.34613e-06
-2.66983e-06
-8.74086e-08
-2.19139e-06
-1.29573e-06
-1.63473e-06
-2.21439e-06
-1.06405e-06
-2.82982e-06
-5.27456e-07
-3.16717e-06
-5.53338e-08
-3.27248e-06
3.37152e-07
-3.19853e-06
6.46093e-07
-2.99617e-06
8.7501e-07
-2.70988e-06
1.03175e-06
-2.37612e-06
1.12619e-06
-2.02319e-06
1.16863e-06
-1.67185e-06
1.16884e-06
-1.33651e-06
1.13547e-06
-1.02656e-06
1.07596e-06
-7.47668e-07
9.96636e-07
-5.02905e-07
9.02862e-07
-2.9356e-07
7.99294e-07
-1.19653e-07
6.90036e-07
1.97139e-08
5.78783e-07
1.26131e-07
4.68919e-07
2.01734e-07
3.63586e-07
2.49119e-07
2.65699e-07
2.71299e-07
1.77924e-07
2.71697e-07
1.02603e-07
2.54145e-07
4.16351e-08
2.22882e-07
-3.69802e-09
1.82515e-07
-3.29396e-08
1.37919e-07
-4.66945e-08
9.40266e-08
-4.68533e-08
5.54762e-08
-3.67712e-08
2.60795e-08
-2.13421e-08
8.10908e-09
-6.85064e-09
1.27618e-09
1.02501e-09
8.8649e-09
-4.0736e-09
2.56816e-08
-3.2089e-09
4.10382e-08
1.40596e-08
4.6967e-08
4.99393e-08
3.78189e-08
1.02217e-07
1.0068e-08
1.66185e-07
-3.79842e-08
2.35883e-07
-1.06545e-07
3.04958e-07
-1.94674e-07
3.67192e-07
-3.00617e-07
4.16827e-07
-4.22087e-07
4.48709e-07
-5.56476e-07
4.58311e-07
-7.00993e-07
4.4166e-07
-8.52724e-07
3.95241e-07
-1.00862e-06
3.1591e-07
-1.16541e-06
2.00869e-07
-1.31955e-06
4.77023e-08
-1.46698e-06
-1.45526e-07
-1.60301e-06
-3.80125e-07
-1.72204e-06
-6.56533e-07
-1.81727e-06
-9.73939e-07
-1.88041e-06
-1.32977e-06
-1.90132e-06
-1.71892e-06
-1.86786e-06
-2.1327e-06
-1.76602e-06
-2.55705e-06
-1.58084e-06
-2.97052e-06
-1.29811e-06
-3.34201e-06
-9.07301e-07
-3.62905e-06
-4.05797e-07
-3.77672e-06
1.95194e-07
-3.71857e-06
8.63711e-07
-3.38105e-06
1.54148e-06
-2.6953e-06
2.14537e-06
-1.61994e-06
2.58158e-06
-1.71481e-07
2.76837e-06
1.55804e-06
2.65803e-06
3.40776e-06
2.24937e-06
5.17752e-06
1.5849e-06
6.67117e-06
7.391e-07
7.72905e-06
-1.94989e-07
8.2443e-06
-1.11542e-06
8.16498e-06
-1.92091e-06
7.49784e-06
-2.52169e-06
6.31e-06
-2.85114e-06
4.72568e-06
-2.87839e-06
2.91739e-06
-2.61781e-06
1.08553e-06
-2.12851e-06
-5.76441e-07
-1.49769e-06
-1.92603e-06
-8.17548e-07
-2.89385e-06
-1.64578e-07
-3.482e-06
4.10819e-07
-3.74173e-06
8.83249e-07
-3.7441e-06
1.24588e-06
-3.56046e-06
1.50367e-06
-3.25346e-06
1.66814e-06
-2.87405e-06
1.75364e-06
-2.46152e-06
1.77496e-06
-2.04456e-06
1.74583e-06
-1.64291e-06
1.67818e-06
-1.26915e-06
1.5818e-06
-9.30553e-07
1.46452e-06
-6.30811e-07
1.33256e-06
-3.71415e-07
1.19098e-06
-1.52489e-07
1.04402e-06
2.67644e-08
8.9534e-07
1.67809e-07
7.48248e-07
2.7261e-07
6.05802e-07
3.4354e-07
4.70914e-07
3.83346e-07
3.46386e-07
3.95155e-07
2.34888e-07
3.82515e-07
1.38884e-07
3.49467e-07
6.04927e-08
3.00589e-07
1.27606e-09
2.41041e-07
-3.80358e-08
1.76528e-07
-5.78718e-08
1.13144e-07
-6.01601e-08
5.70334e-08
-4.8647e-08
1.38359e-08
-2.91663e-08
-1.20896e-08
-9.76769e-09
-1.88244e-08
-9.12034e-09
1.20127e-08
-1.6639e-08
3.34465e-08
-2.56135e-08
5.15134e-08
-4.91511e-09
5.66721e-08
4.38789e-08
4.27269e-08
1.15277e-07
6.08683e-09
2.01962e-07
-5.4752e-08
2.9588e-07
-1.39659e-07
3.89034e-07
-2.47322e-07
4.74015e-07
-3.75668e-07
5.443e-07
-5.22208e-07
5.94326e-07
-6.84287e-07
6.19413e-07
-8.59238e-07
6.15589e-07
-1.04444e-06
5.79391e-07
-1.23727e-06
5.07683e-07
-1.43502e-06
3.97581e-07
-1.63477e-06
2.46458e-07
-1.83323e-06
5.19885e-08
-2.02646e-06
-1.87768e-07
-2.20959e-06
-4.74201e-07
-2.3764e-06
-8.07825e-07
-2.51889e-06
-1.18788e-06
-2.62657e-06
-1.61173e-06
-2.68581e-06
-2.07381e-06
-2.67949e-06
-2.56358e-06
-2.58737e-06
-3.06266e-06
-2.38748e-06
-3.5417e-06
-2.05874e-06
-3.95732e-06
-1.58553e-06
-4.24915e-06
-9.65281e-07
-4.3377e-06
-2.19687e-07
-4.1252e-06
5.92762e-07
-3.50605e-06
1.37275e-06
-2.3981e-06
1.99853e-06
-7.95471e-07
2.35929e-06
1.19883e-06
2.38789e-06
3.38025e-06
2.07997e-06
5.486e-06
1.48627e-06
7.26482e-06
6.93231e-07
8.52149e-06
-1.96244e-07
9.13292e-06
-1.07063e-06
9.03861e-06
-1.81823e-06
8.24492e-06
-2.33837e-06
6.82988e-06
-2.55422e-06
4.9415e-06
-2.43011e-06
2.79353e-06
-1.98765e-06
6.43633e-07
-1.3094e-06
-1.25384e-06
-5.12114e-07
-2.72227e-06
2.87269e-07
-3.6921e-06
1.00079e-06
-4.19443e-06
1.58149e-06
-4.32136e-06
2.01579e-06
-4.17735e-06
2.3106e-06
-3.8543e-06
2.48307e-06
-3.42513e-06
2.55423e-06
-2.94465e-06
2.54527e-06
-2.45227e-06
2.47558e-06
-1.97485e-06
2.36171e-06
-1.52924e-06
2.21695e-06
-1.12477e-06
2.05138e-06
-7.65516e-07
1.87239e-06
-4.52483e-07
1.68545e-06
-1.85233e-07
1.49477e-06
3.73425e-08
1.30381e-06
2.16822e-07
1.11549e-06
3.55161e-07
9.32501e-07
4.54589e-07
7.57399e-07
5.17603e-07
5.9273e-07
5.46962e-07
4.41071e-07
5.45758e-07
3.05025e-07
5.17519e-07
1.87149e-07
4.66323e-07
8.97874e-08
3.96957e-07
1.48411e-08
3.1502e-07
-3.65831e-08
2.27008e-07
-6.45963e-08
1.40234e-07
-7.09824e-08
6.25241e-08
-5.96471e-08
1.6463e-09
-3.70885e-08
-3.54507e-08
-1.29506e-08
-4.37213e-08
-2.2498e-08
1.48176e-08
-3.20523e-08
3.95263e-08
-5.12896e-08
5.80187e-08
-2.43186e-08
5.975e-08
4.12047e-08
3.84853e-08
1.35598e-07
-9.17275e-09
2.48674e-07
-8.43997e-08
3.70144e-07
-1.86642e-07
4.90284e-07
-3.14165e-07
6.00501e-07
-4.64566e-07
6.93601e-07
-6.35187e-07
7.63767e-07
-8.23398e-07
8.06362e-07
-1.02677e-06
8.17624e-07
-1.24311e-06
7.94339e-07
-1.4704e-06
7.33554e-07
-1.70668e-06
6.32447e-07
-1.94993e-06
4.88321e-07
-2.19789e-06
2.98614e-07
-2.44781e-06
6.08977e-08
-2.69612e-06
-2.2705e-07
-2.93798e-06
-5.67001e-07
-3.16673e-06
-9.60026e-07
-3.37293e-06
-1.40627e-06
-3.54302e-06
-1.90427e-06
-3.65825e-06
-2.44868e-06
-3.69441e-06
-3.02655e-06
-3.62241e-06
-3.61342e-06
-3.4098e-06
-4.16929e-06
-3.0244e-06
-4.6335e-06
-2.44227e-06
-4.91838e-06
-1.66373e-06
-4.90199e-06
-7.37447e-07
-4.4304e-06
2.23175e-07
-3.35679e-06
1.06372e-06
-1.63432e-06
1.63643e-06
6.27357e-07
1.84889e-06
3.1684e-06
1.6949e-06
5.64006e-06
1.23689e-06
7.72248e-06
5.73652e-07
9.18376e-06
-1.88321e-07
9.89362e-06
-9.34896e-07
9.78415e-06
-1.54964e-06
8.85926e-06
-1.92506e-06
7.20554e-06
-1.97426e-06
4.99143e-06
-1.65451e-06
2.47489e-06
-9.94162e-07
-1.52345e-08
-1.0702e-07
-2.13917e-06
8.5366e-07
-3.6809e-06
1.7439e-06
-4.58024e-06
2.46892e-06
-4.91765e-06
2.99596e-06
-4.84693e-06
3.33365e-06
-4.51378e-06
3.50902e-06
-4.02855e-06
3.55404e-06
-3.46918e-06
3.49943e-06
-2.88933e-06
3.3723e-06
-2.32474e-06
3.19523e-06
-1.79769e-06
2.9861e-06
-1.32032e-06
2.75822e-06
-8.97365e-07
2.52071e-06