/*--------------------------------*- C++ -*----------------------------------*\
| =========                 |                                                 |
| \\      /  F ield         | OpenFOAM: The Open Source CFD Toolbox           |
|  \\    /   O peration     | Version:  2412                                  |
|   \\  /    A nd           | Website:  www.openfoam.com                      |
|    \\/     M anipulation  |                                                 |
\*---------------------------------------------------------------------------*/
FoamFile
{
    version     2.0;
    format      ascii;
    arch        "LSB;label=32;scalar=64";
    class       surfaceScalarField;
    location    "4.05";
    object      alphaPhi0.mercury;
}
// * * * * * * * * * * * * * * * * * * * * * * * * * * * * * * * * * * * * * //

dimensions      [0 3 -1 0 0 0 0];

oriented        oriented;

internalField   nonuniform List<scalar> 
12640
(
-2.68907e-06
2.68907e-06
-3.1933e-06
5.07663e-07
-2.69763e-06
-4.9287e-07
-2.08287e-06
-6.12328e-07
-2.13605e-06
5.51952e-08
-3.31025e-06
1.17579e-06
-5.85173e-06
2.54265e-06
-9.86096e-06
4.01008e-06
-1.5346e-05
5.48572e-06
-2.22919e-05
6.94643e-06
-3.05725e-05
8.28105e-06
-4.01025e-05
9.53075e-06
-5.06687e-05
1.05673e-05
-6.21812e-05
1.15138e-05
-7.44128e-05
1.22333e-05
-8.70801e-05
1.26693e-05
-9.98927e-05
1.28146e-05
-0.000112559
1.26687e-05
-0.000124765
1.22074e-05
-0.000136192
1.14292e-05
-0.000146539
1.03491e-05
-0.000155552
9.01431e-06
-0.000162978
7.426e-06
-0.000168597
5.61878e-06
-0.000172244
3.64692e-06
-0.000173778
1.53237e-06
-0.000173095
-6.84403e-07
-0.000170186
-2.91053e-06
-0.000165066
-5.12129e-06
-0.000157789
-7.2785e-06
-0.00014845
-9.34153e-06
-0.000137168
-1.12829e-05
-0.00012409
-1.30775e-05
-0.000109371
-1.47179e-05
-9.32013e-05
-1.61663e-05
-7.58008e-05
-1.73969e-05
-5.73991e-05
-1.83988e-05
-3.82256e-05
-1.91715e-05
-1.85237e-05
-1.97007e-05
1.44047e-06
-1.99635e-05
2.14067e-05
-1.99656e-05
4.11145e-05
-1.9707e-05
6.02997e-05
-1.91839e-05
7.87072e-05
-1.8406e-05
9.60928e-05
-1.73844e-05
0.00011223
-1.61365e-05
0.000126914
-1.46838e-05
0.000139953
-1.30389e-05
0.000151169
-1.1218e-05
0.00016042
-9.25222e-06
0.000167582
-7.16349e-06
0.000172546
-4.96556e-06
0.000175242
-2.69787e-06
0.000175635
-3.94332e-07
0.000173706
1.9266e-06
0.000169559
4.14597e-06
0.000163319
6.23953e-06
0.000155153
8.16514e-06
0.000145265
9.88839e-06
0.000133917
1.13478e-05
0.000121391
1.25269e-05
0.000107993
1.33997e-05
9.40671e-05
1.39275e-05
7.99557e-05
1.41131e-05
6.60075e-05
1.395e-05
5.25669e-05
1.34422e-05
3.99533e-05
1.26151e-05
2.83363e-05
1.16183e-05
1.80237e-05
1.03138e-05
9.23001e-06
8.79477e-06
2.13204e-06
7.09893e-06
-3.15021e-06
5.28333e-06
-6.57138e-06
3.42246e-06
-8.1304e-06
1.56047e-06
-7.96071e-06
-1.68638e-07
-6.32793e-06
-1.63305e-06
-3.72716e-06
-2.60303e-06
-1.014e-06
-2.7155e-06
7.14612e-07
-1.72539e-06
7.27138e-07
-6.47518e-07
3.34025e-06
2.5693e-06
-2.70396e-06
7.95072e-06
-5.8702e-06
1.36678e-05
-6.32607e-06
1.83667e-05
-4.64098e-06
2.1278e-05
-1.73344e-06
2.20179e-05
1.80422e-06
2.04311e-05
5.5981e-06
1.64675e-05
9.45044e-06
1.02156e-05
1.31997e-05
1.76396e-06
1.67342e-05
-8.65072e-06
1.99474e-05
-2.08022e-05
2.27212e-05
-3.4321e-05
2.50354e-05
-4.88714e-05
2.67869e-05
-6.40794e-05
2.78807e-05
-7.95569e-05
2.82957e-05
-9.48896e-05
2.80046e-05
-0.000109664
2.69844e-05
-0.000123459
2.5226e-05
-0.000135976
2.28665e-05
-0.000146873
1.99115e-05
-0.000155881
1.64331e-05
-0.00016287
1.26059e-05
-0.000167682
8.45717e-06
-0.000170185
4.03294e-06
-0.000170354
-5.17606e-07
-0.000168142
-5.12523e-06
-0.000163571
-9.69449e-06
-0.000156716
-1.41353e-05
-0.000147655
-1.84019e-05
-0.000136512
-2.24245e-05
-0.000123438
-2.61485e-05
-0.000108599
-2.95531e-05
-9.21929e-05
-3.25694e-05
-7.44408e-05
-3.51467e-05
-5.55819e-05
-3.72562e-05
-3.58754e-05
-3.88773e-05
-1.55593e-05
-4.00163e-05
5.07696e-06
-4.05989e-05
2.57528e-05
-4.06401e-05
4.61762e-05
-4.01286e-05
6.60636e-05
-3.90695e-05
8.51314e-05
-3.74723e-05
0.000103118
-3.53702e-05
0.00011977
-3.2788e-05
0.000134851
-2.97663e-05
0.000148151
-2.63405e-05
0.000159468
-2.25366e-05
0.000168634
-1.84204e-05
0.000175493
-1.40247e-05
0.000179946
-9.42086e-06
0.000181872
-4.62538e-06
0.000181226
2.49616e-07
0.000178052
5.0989e-06
0.000172345
9.85078e-06
0.000164158
1.44261e-05
0.000153671
1.86522e-05
0.00014107
2.24899e-05
0.000126639
2.57805e-05
0.000110703
2.84651e-05
9.37001e-05
3.04049e-05
7.6018e-05
3.16123e-05
5.81516e-05
3.19819e-05
4.06052e-05
3.14986e-05
2.38457e-05
3.02037e-05
8.30534e-06
2.81572e-05
-5.51699e-06
2.54423e-05
-1.72476e-05
2.20459e-05
-2.65649e-05
1.81136e-05
-3.32172e-05
1.3753e-05
-3.70337e-05
9.10209e-06
-3.79372e-05
4.32864e-06
-3.59952e-05
-3.79838e-07
-3.13931e-05
-4.77111e-06
-2.45474e-05
-8.48098e-06
-1.63072e-05
-1.08438e-05
-8.06249e-06
-1.09533e-05
-1.58019e-06
-8.1908e-06
-8.61175e-07
6.33462e-07
2.70959e-06
6.73276e-06
-8.79921e-06
1.53867e-05
-1.4521e-05
2.44601e-05
-1.53969e-05
3.23947e-05
-1.25735e-05
3.82823e-05
-7.61929e-06
4.17177e-05
-1.62956e-06
4.25555e-05
4.76172e-06
4.07131e-05
1.12943e-05
3.62959e-05
1.76186e-05
2.94419e-05
2.359e-05
2.03789e-05
2.90123e-05
9.3432e-06
3.37589e-05
-3.3462e-06
3.77269e-05
-1.72258e-05
4.06686e-05
-3.19638e-05
4.26202e-05
-4.71377e-05
4.34704e-05
-6.2329e-05
4.31957e-05
-7.70783e-05
4.1733e-05
-9.10988e-05
3.92455e-05
-0.000103891
3.56572e-05
-0.0001152
3.12201e-05
-0.00012478
2.60115e-05
-0.000132404
2.02285e-05
-0.000137896
1.39479e-05
-0.0001412
7.33622e-06
-0.000142301
5.82153e-07
-0.000141144
-6.28124e-06
-0.000137817
-1.30202e-05
-0.000132361
-1.95905e-05
-0.000124872
-2.58891e-05
-0.000115483
-3.18144e-05
-0.000104347
-3.7287e-05
-9.16068e-05
-4.22957e-05
-7.74732e-05
-4.67055e-05
-6.2133e-05
-5.04889e-05
-4.57933e-05
-5.35972e-05
-2.86587e-05
-5.60127e-05
-1.099e-05
-5.76853e-05
6.98748e-06
-5.85764e-05
2.50157e-05
-5.86681e-05
4.28408e-05
-5.79531e-05
6.02086e-05
-5.64366e-05
7.687e-05
-5.41328e-05
9.25774e-05
-5.10768e-05
0.000107097
-4.73061e-05
0.000120195
-4.28636e-05
0.000131657
-3.78018e-05
0.000141293
-3.21721e-05
0.000148923
-2.6051e-05
0.000154389
-1.94917e-05
0.000157543
-1.25759e-05
0.000158321
-5.40408e-06
0.000156623
1.94562e-06
0.000152405
9.31545e-06
0.000145698
1.65569e-05
0.000136643
2.348e-05
0.000125324
2.99703e-05
0.000112025
3.5788e-05
9.70098e-05
4.0796e-05
8.06026e-05
4.48724e-05
6.31978e-05
4.78098e-05
4.52945e-05
4.95156e-05
2.73991e-05
4.98772e-05
9.98098e-06
4.89165e-05
-6.46962e-06
4.66541e-05
-2.14279e-05
4.31155e-05
-3.44108e-05
3.84254e-05
-4.50289e-05
3.26646e-05
-5.29607e-05
2.60465e-05
-5.79114e-05
1.87054e-05
-5.97176e-05
1.09108e-05
-5.82611e-05
2.87485e-06
-5.36245e-05
-5.01503e-06
-4.59834e-05
-1.24141e-05
-3.58213e-05
-1.86476e-05
-2.41066e-05
-2.25619e-05
-1.24765e-05
-2.25821e-05
-3.15791e-06
-1.75128e-05
-4.03571e-06
1.71594e-06
9.96013e-07
1.00138e-05
-1.70939e-05
2.11392e-05
-2.5644e-05
3.26158e-05
-2.68714e-05
4.27181e-05
-2.26738e-05
5.04739e-05
-1.53732e-05
5.54586e-05
-6.61215e-06
5.75215e-05
2.70098e-06
5.66694e-05
1.21486e-05
5.29958e-05
2.12949e-05
4.6689e-05
2.98995e-05
3.79412e-05
3.77625e-05
2.70507e-05
4.46512e-05
1.43766e-05
5.04021e-05
2.52073e-07
5.47936e-05
-1.4836e-05
5.77082e-05
-3.04835e-05
5.91173e-05
-4.61849e-05
5.88961e-05
-6.1488e-05
5.70349e-05
-7.59451e-05
5.37011e-05
-8.93241e-05
4.90344e-05
-0.000101102
4.29961e-05
-0.000111199
3.61079e-05
-0.000119249
2.82774e-05
-0.000125143
1.98418e-05
-0.000128814
1.10088e-05
-0.000130242
2.01174e-06
-0.00012948
-7.04155e-06
-0.000126536
-1.59623e-05
-0.000121529
-2.45969e-05
-0.000114588
-3.28297e-05
-0.000105847
-4.05565e-05
-9.5468e-05
-4.76682e-05
-8.36574e-05
-5.41091e-05
-7.05583e-05
-5.98068e-05
-5.63411e-05
-6.47074e-05
-4.12001e-05
-6.87388e-05
-2.5337e-05
-7.18761e-05
-8.96662e-06
-7.40556e-05
7.70165e-06
-7.52447e-05
2.44257e-05
-7.5392e-05
4.099e-05
-7.45171e-05
5.71648e-05
-7.26107e-05
7.27164e-05
-6.96834e-05
8.74086e-05
-6.57676e-05
0.00010102
-6.09159e-05
0.000113323
-5.51654e-05
0.000124098
-4.85758e-05
0.000133134
-4.12083e-05
0.000140235
-3.31522e-05
0.000145217
-2.4474e-05
0.000147929
-1.52897e-05
0.000148279
-5.75581e-06
0.000146162
4.06113e-06
0.000141497
1.39785e-05
0.000134296
2.37557e-05
0.000124656
3.31191e-05
0.000112757
4.18676e-05
9.8735e-05
4.9808e-05
8.29396e-05
5.65899e-05
6.57529e-05
6.20575e-05
4.76489e-05
6.59122e-05
2.90009e-05
6.81618e-05
1.03946e-05
6.84818e-05
-7.64239e-06
6.69517e-05
-2.45358e-05
6.35458e-05
-3.97672e-05
5.83456e-05
-5.28489e-05
5.15064e-05
-6.33528e-05
4.31684e-05
-7.09028e-05
3.35972e-05
-7.52338e-05
2.30381e-05
-7.61212e-05
1.18007e-05
-7.34307e-05
1.86651e-07
-6.71615e-05
-1.12843e-05
-5.75127e-05
-2.20672e-05
-4.49917e-05
-3.11751e-05
-3.06447e-05
-3.69117e-05
-1.62748e-05
-3.69501e-05
-4.47035e-06
-2.93271e-05
-8.51682e-06
2.6879e-06
-1.69e-06
1.31352e-05
-2.75388e-05
2.66357e-05
-3.91428e-05
4.03175e-05
-4.05514e-05
5.22445e-05
-3.45987e-05
6.138e-05
-2.45063e-05
6.72929e-05
-1.25221e-05
6.99004e-05
9.68966e-08
6.92697e-05
1.27829e-05
6.557e-05
2.49981e-05
5.89524e-05
3.65205e-05
4.96938e-05
4.70239e-05
3.8063e-05
5.62838e-05
2.44779e-05
6.39882e-05
9.28939e-06
6.99824e-05
-7.01483e-06
7.40122e-05
-2.38775e-05
7.59793e-05
-4.07967e-05
7.58142e-05
-5.73218e-05
7.35588e-05
-7.29514e-05
6.93297e-05
-8.72111e-05
6.32935e-05
-9.98928e-05
5.56773e-05
-0.000110566
4.67808e-05
-0.000119126
3.68379e-05
-0.000125365
2.60819e-05
-0.000129222
1.48669e-05
-0.000130685
3.4765e-06
-0.000129823
-7.90307e-06
-0.000126766
-1.90185e-05
-0.000121635
-2.97277e-05
-0.000114546
-3.99171e-05
-0.000105674
-4.94275e-05
-9.51766e-05
-5.81654e-05
-8.33072e-05
-6.59785e-05
-7.01935e-05
-7.29204e-05
-5.60083e-05
-7.88922e-05
-4.09225e-05
-8.38235e-05
-2.51292e-05
-8.76679e-05
-8.8205e-06
-9.03629e-05
7.77355e-06
-9.18375e-05
2.44572e-05
-9.20746e-05
4.10041e-05
-9.10629e-05
5.71902e-05
-8.87959e-05
7.27917e-05
-8.52839e-05
8.7576e-05
-8.0551e-05
0.000101321
-7.46604e-05
0.000113804
-6.7648e-05
0.0001248
-5.9572e-05
0.000134083
-5.04916e-05
0.000141439
-4.0509e-05
0.000146664
-2.97008e-05
0.000149558
-1.81851e-05
0.000149946
-6.14545e-06
0.00014775
6.25587e-06
0.000142841
1.88858e-05
0.000135296
3.13004e-05
0.000125145
4.32685e-05
0.000112407
5.46048e-05
9.75001e-05
6.4714e-05
8.05691e-05
7.352e-05
6.21245e-05
8.0501e-05
4.25046e-05
8.55308e-05
2.23843e-05
8.82805e-05
2.25351e-06
8.86108e-05
-1.72524e-05
8.64559e-05
-3.55193e-05
8.18113e-05
-5.19732e-05
7.47985e-05
-6.60631e-05
6.55957e-05
-7.73559e-05
5.44614e-05
-8.54247e-05
4.16669e-05
-8.99488e-05
2.7564e-05
-9.06821e-05
1.25363e-05
-8.7414e-05
-3.07901e-06
-8.00967e-05
-1.86005e-05
-6.88569e-05
-3.33082e-05
-5.42073e-05
-4.58255e-05
-3.73054e-05
-5.3808e-05
-2.01734e-05
-5.40756e-05
-5.76045e-06
-4.37465e-05
-1.42732e-05
3.7924e-06
-5.48105e-06
1.68572e-05
-4.06019e-05
3.32182e-05
-5.55022e-05
4.9465e-05
-5.67962e-05
6.33791e-05
-4.85102e-05
7.3832e-05
-3.49559e-05
8.04652e-05
-1.91512e-05
8.32796e-05
-2.71296e-06
8.24668e-05
1.36003e-05
7.82307e-05
2.92385e-05
7.08265e-05
4.39284e-05
6.04691e-05
5.73847e-05
4.75221e-05
6.9233e-05
3.23577e-05
7.91535e-05
1.53938e-05
8.69466e-05
-2.77684e-06
9.21829e-05
-2.15863e-05
9.47886e-05
-4.04958e-05
9.47236e-05
-5.88272e-05
9.18905e-05
-7.61328e-05
8.66359e-05
-9.19174e-05
7.90788e-05
-0.000105777
6.9537e-05
-0.000117421
5.8425e-05
-0.000126634
4.60501e-05
-0.000133295
3.27423e-05
-0.000137338
1.89084e-05
-0.000138767
4.90429e-06
-0.000137677
-8.99604e-06
-0.000134259
-2.2438e-05
-0.000128609
-3.53794e-05
-0.000120952
-4.75736e-05
-0.000111454
-5.8924e-05
-0.000100358
-6.92605e-05
-8.77944e-05
-7.8541e-05
-7.39943e-05
-8.67198e-05
-5.91338e-05
-9.37514e-05
-4.33629e-05
-9.95925e-05
-2.6859e-05
-0.000104169
-9.8254e-06
-0.000107394
7.54176e-06
-0.000109202
2.50155e-05
-0.000109546
4.23683e-05
-0.000108414
5.93642e-05
-0.000105791
7.57823e-05
-0.000101701
9.13732e-05
-9.61418e-05
0.000105919
-8.92071e-05
0.000119213
-8.09424e-05
0.000131028
-7.13884e-05
0.000141095
-6.05595e-05
0.000149174
-4.85894e-05
0.000155021
-3.55487e-05
0.000158418
-2.15833e-05
0.000159151
-6.87916e-06
0.000157062
8.34558e-06
0.000152065
2.38836e-05
0.000144083
3.92826e-05
0.000133149
5.42033e-05
0.000119534
6.82215e-05
0.000103226
8.1023e-05
8.4714e-05
9.20328e-05
6.43014e-05
0.000100914
4.26162e-05
0.000107217
2.02136e-05
0.000110683
-2.26344e-06
0.000111088
-2.40636e-05
0.000108256
-4.44965e-05
0.000102244
-6.29228e-05
9.32248e-05
-7.87518e-05
8.1425e-05
-9.14798e-05
6.71902e-05
-0.000100672
5.08606e-05
-0.000105952
3.28458e-05
-0.000106989
1.35758e-05
-0.000103491
-6.57546e-06
-9.52921e-05
-2.67967e-05
-8.24283e-05
-4.61697e-05
-6.53864e-05
-6.28626e-05
-4.54443e-05
-7.37417e-05
-2.49087e-05
-7.46059e-05
-7.27097e-06
-6.13837e-05
-2.15287e-05
5.1374e-06
-1.06176e-05
2.1681e-05
-5.7144e-05
4.18334e-05
-7.56527e-05
6.13802e-05
-7.63405e-05
7.76776e-05
-6.48042e-05
8.95473e-05
-4.68217e-05
9.6779e-05
-2.63782e-05
9.95963e-05
-5.52524e-06
9.82954e-05
1.49059e-05
9.32305e-05
3.43073e-05
8.46266e-05
5.25352e-05
7.28223e-05
6.91917e-05
5.80447e-05
8.40128e-05
4.07547e-05
9.64449e-05
2.14422e-05
0.00010626
7.30417e-07
0.000112896
-2.07282e-05
0.000116249
-4.21606e-05
0.000116158
-6.29901e-05
0.000112722
-8.25237e-05
0.00010617
-0.000100197
9.67523e-05
-0.000115677
8.50161e-05
-0.000128562
7.1307e-05
-0.000138657
5.61411e-05
-0.000145793
3.98739e-05
-0.000150011
2.31215e-05
-0.000151392
6.28073e-06
-0.00014995
-1.0443e-05
-0.000145892
-2.65001e-05
-0.000139542
-4.17334e-05
-0.00013104
-5.60778e-05
-0.000120636
-6.93287e-05
-0.000108542
-8.13537e-05
-9.49746e-05
-9.21073e-05
-8.01314e-05
-0.000101562
-6.41925e-05
-0.000109689
-4.7328e-05
-0.000116456
-2.96977e-05
-0.000121798
-1.14792e-05
-0.000125611
7.10624e-06
-0.000127786
2.58396e-05
-0.000128279
4.44644e-05
-0.000127038
6.27462e-05
-0.000124073
8.04135e-05
-0.00011937
9.72745e-05
-0.000113004
0.000113083
-0.000105017
0.000127627
-9.54885e-05
0.00014061
-8.43731e-05
0.000151811
-7.17631e-05
0.000160927
-5.7706e-05
0.000167685
-4.23083e-05
0.00017182
-2.57181e-05
0.000173046
-8.10594e-06
0.000171194
1.01981e-05
0.000166102
2.89766e-05
0.000157711
4.76747e-05
0.000146005
6.59112e-05
0.000131025
8.32026e-05
0.000113019
9.90306e-05
9.23291e-05
0.000112724
6.94225e-05
0.000123823
4.49111e-05
0.000131729
1.95023e-05
0.000136093
-6.01636e-06
0.000136608
-3.08786e-05
0.000133119
-5.41998e-05
0.000125566
-7.52689e-05
0.000114295
-9.34411e-05
9.95975e-05
-0.000108147
8.18969e-05
-0.000118963
6.16768e-05
-0.000125403
3.92866e-05
-0.00012708
1.52537e-05
-0.00012358
-1.00757e-05
-0.000114545
-3.58313e-05
-9.98449e-05
-6.08677e-05
-7.98749e-05
-8.28278e-05
-5.60164e-05
-9.75971e-05
-3.10028e-05
-9.96226e-05
-9.12424e-06
-8.32577e-05
-3.06387e-05
6.74535e-06
-1.73622e-05
2.80293e-05
-7.8426e-05
5.33685e-05
-0.00010099
7.72115e-05
-0.000100181
9.63605e-05
-8.39495e-05
0.000109668
-6.01255e-05
0.000117288
-3.3994e-05
0.00011979
-8.02323e-06
0.000117761
1.69396e-05
0.000111554
4.05174e-05
0.000101519
6.25725e-05
8.78302e-05
8.28822e-05
7.0875e-05
0.000100971
5.09204e-05
0.000116403
2.86428e-05
0.000128541
4.70957e-06
0.000136833
-2.00718e-05
0.000141033
-4.48147e-05
0.000140903
-6.87411e-05
0.000136649
-9.10643e-05
0.000128493
-0.000111154
0.00011684
-0.000128541
0.000102399
-0.000142851
8.56129e-05
-0.000153918
6.7203e-05
-0.000161718
4.7669e-05
-0.000166108
2.7507e-05
-0.000167195
7.366e-06
-0.000165267
-1.23729e-05
-0.000160474
-3.12961e-05
-0.000153077
-4.9133e-05
-0.000143448
-6.57078e-05
-0.00013186
-8.09171e-05
-0.000118536
-9.46773e-05
-0.000103722
-0.000106921
-8.76167e-05
-0.000117667
-7.03951e-05
-0.000126911
-5.22184e-05
-0.000134633
-3.32376e-05
-0.00014078
-1.36108e-05
-0.000145239
6.46211e-06
-0.000147861
2.67264e-05
-0.000148545
4.69095e-05
-0.000147224
6.67335e-05
-0.0001439
8.59686e-05
-0.000138608
0.00010439
-0.000131429
0.00012175
-0.00012238
0.000137782
-0.000111523
0.000152292
-9.88859e-05
0.000164947
-8.44201e-05
0.000175408
-6.81687e-05
0.000183361
-5.02626e-05
0.000188463
-3.0821e-05
0.000190433
-1.00762e-05
0.000188997
1.16334e-05
0.000183948
3.40247e-05
0.00017511
5.65122e-05
0.000162403
7.86174e-05
0.000145888
9.97181e-05
0.000125785
0.000119133
0.000102429
0.00013608
7.64452e-05
0.000149807
4.83684e-05
0.000159806
1.9161e-05
0.000165301
-1.02567e-05
0.000166026
-3.89201e-05
0.000161783
-6.58716e-05
0.000152518
-9.02503e-05
0.000138674
-0.000111367
0.000120714
-0.000128604
9.91338e-05
-0.000141414
7.44868e-05
-0.000149407
4.72808e-05
-0.000152103
1.79492e-05
-0.000148896
-1.32846e-05
-0.000139174
-4.55541e-05
-0.00012246
-7.75784e-05
-9.88996e-05
-0.000106383
-6.99774e-05
-0.00012652
-3.89376e-05
-0.000130669
-1.1406e-05
-0.000110784
-4.20414e-05
8.60363e-06
-2.5965e-05
3.64561e-05
-0.000106276
6.90396e-05
-0.000133571
9.84722e-05
-0.00012961
0.000120838
-0.000106312
0.000135315
-7.45985e-05
0.000142796
-4.14718e-05
0.00014449
-9.7143e-06
0.000141316
2.01167e-05
0.000133776
4.80593e-05
0.000122018
7.43335e-05
0.000106269
9.86339e-05
8.66007e-05
0.000120643
6.35049e-05
0.000139502
3.7592e-05
0.000154458
9.65325e-06
0.000164775
-1.92827e-05
0.000169971
-4.81699e-05
0.000169789
-7.59492e-05
0.000164426
-0.000101646
0.000154187
-0.000124609
0.000139799
-0.000144271
0.000122058
-0.000160302
0.000101643
-0.000172545
7.94458e-05
-0.000180808
5.59314e-05
-0.000185291
3.19913e-05
-0.000186037
8.11559e-06
-0.000183309
-1.50973e-05
-0.000177431
-3.71715e-05
-0.000168759
-5.78033e-05
-0.000157697
-7.67707e-05
-0.000144634
-9.39805e-05
-0.000129854
-0.000109457
-0.000113589
-0.000123188
-9.60558e-05
-0.000135202
-7.74054e-05
-0.000145564
-5.78102e-05
-0.000154231
-3.73601e-05
-0.000161233
-1.61813e-05
-0.000166421
5.54827e-06
-0.000169594
2.75422e-05
-0.000170543
4.94752e-05
-0.000169162
7.10804e-05
-0.000165509
9.20715e-05
-0.000159603
0.000112254
-0.000151615
0.000131424
-0.000141554
0.000149303
-0.000129405
0.000165604
-0.000115189
0.000180032
-9.88499e-05
0.000192183
-8.03217e-05
0.000201683
-5.97639e-05
0.000208118
-3.72572e-05
0.000211112
-1.3072e-05
0.000210288
1.24555e-05
0.00020537
3.89419e-05
0.00019605
6.58308e-05
0.000182303
9.23626e-05
0.000164111
0.000117909
0.000141645
0.000141599
0.000115169
0.000162556
8.52562e-05
0.000179719
5.28628e-05
0.0001922
1.89163e-05
0.000199247
-1.53482e-05
0.00020029
-4.87497e-05
0.000195184
-8.01738e-05
0.000183943
-0.000108618
0.000167118
-0.000133204
0.000145302
-0.000153386
0.000119318
-0.000168688
8.97905e-05
-0.000178715
5.73125e-05
-0.0001829
2.21358e-05
-0.000180514
-1.56699e-05
-0.000170525
-5.55397e-05
-0.000151832
-9.62616e-05
-0.000124039
-0.000134167
-8.84699e-05
-0.000162088
-4.92426e-05
-0.000169898
-1.40944e-05
-0.000145926
-5.61415e-05
1.07847e-05
-3.67486e-05
4.82326e-05
-0.000143721
9.13017e-05
-0.000176637
0.000127879
-0.000166185
0.000153255
-0.000131686
0.000167843
-8.91831e-05
0.000174074
-4.77009e-05
0.000174122
-9.75873e-06
0.000169353
2.48888e-05
0.000160195
5.72201e-05
0.000146646
8.78857e-05
0.000128537
0.000116747
0.000105943
0.000143241
7.91077e-05
0.00016634
4.87146e-05
0.000184853
1.57941e-05
0.000197695
-1.83501e-05
0.000204113
-5.23662e-05
0.000203803
-8.48208e-05
0.000196878
-0.000114664
0.000184029
-0.000140966
0.000166101
-0.00016322
0.000144314
-0.000181235
0.000119662
-0.000194571
9.2787e-05
-0.000203423
6.47868e-05
-0.000207778
3.63486e-05
-0.000207884
8.22454e-06
-0.000204025
-1.89536e-05
-0.000196708
-4.44867e-05
-0.000186399
-6.81132e-05
-0.000173597
-8.95729e-05
-0.000158738
-0.000108842
-0.000142223
-0.000125973
-0.000124297
-0.000141116
-0.000105189
-0.000154314
-8.50628e-05
-0.000165693
-6.39858e-05
-0.000175311
-4.20242e-05
-0.000183198
-1.9229e-05
-0.00018922
4.26457e-06
-0.000193092
2.81257e-05
-0.000194409
5.19865e-05
-0.000193027
7.54952e-05
-0.000189022
9.84667e-05
-0.000182579
0.000120611
-0.000173763
0.000141806
-0.000162753
0.000161801
-0.000149404
0.000180275
-0.000133665
0.000196847
-0.000115424
0.00021113
-9.46072e-05
0.000222619
-7.12567e-05
0.000230803
-4.5444e-05
0.000235174
-1.7446e-05
0.000235249
1.23778e-05
0.000230781
4.34068e-05
0.000221309
7.53014e-05
0.000206557
0.000107112
0.000186454
0.000138012
0.000161116
0.000166937
0.000130894
0.000192778
9.64121e-05
0.000214202
5.85714e-05
0.000230041
1.87896e-05
0.00023903
-2.14823e-05
0.000240563
-6.07695e-05
0.000234472
-9.76255e-05
0.0002208
-0.000130864
0.000200359
-0.000159538
0.00017398
-0.000183143
0.000142927
-0.000201322
0.000107975
-0.000213831
6.98273e-05
-0.000220233
2.85441e-05
-0.000219622
-1.62779e-05
-0.000210344
-6.48113e-05
-0.000190346
-0.000116247
-0.000157889
-0.000166611
-0.000113722
-0.000206249
-6.29013e-05
-0.000220714
-1.71638e-05
-0.000191655
-7.33078e-05
1.43527e-05
-5.11e-05
6.81094e-05
-0.000197475
0.00012732
-0.000235845
0.000171902
-0.000210764
0.0001978
-0.00015758
0.000209317
-0.000100697
0.000211831
-5.0213e-05
0.00020895
-6.87588e-06
0.000202025
3.18189e-05
0.00019119
6.80591e-05
0.00017593
0.000103149
0.000155551
0.000137131
0.000129684
0.00016911
9.8443e-05
0.000197582
6.26519e-05
0.000220644
2.35931e-05
0.000236753
-1.70598e-05
0.000244765
-5.73854e-05
0.000244129
-9.56857e-05
0.000235181
-0.000130373
0.00021872
-0.00016071
0.000196441
-0.000185985
0.000169592
-0.000205913
0.000139593
-0.000220597
0.000107472
-0.000229813
7.40006e-05
-0.000233762
4.02925e-05
-0.00023287
7.32884e-06
-0.00022746
-2.43674e-05
-0.000218142
-5.38085e-05
-0.00020574
-8.0518e-05
-0.000190783
-0.000104533
-0.000173831
-0.000125797
-0.000155276
-0.000144531
-0.000135501
-0.000160894
-0.000114705
-0.000175112
-9.30279e-05
-0.000187373
-7.05113e-05
-0.00019783
-4.71158e-05
-0.000206596
-2.27701e-05
-0.000213568
2.46394e-06
-0.000218328
2.82616e-05
-0.000220209
5.41293e-05
-0.000218897
7.96994e-05
-0.000214595
0.000104708
-0.00020759
0.000129043
-0.000198101
0.00015254
-0.000186253
0.000174958
-0.000171825
0.000196008
-0.000154719
0.000215236
-0.000134656
0.000232134
-0.000111509
0.000246088
-8.52159e-05
0.000256508
-5.5869e-05
0.000262788
-2.37312e-05
0.00026421
1.09514e-05
0.000260449
4.71645e-05
0.000250944
8.48036e-05
0.000235251
0.000122804
0.000213266
0.000159995
0.000184817
0.000195386
0.000150241
0.000227355
0.000110164
0.00025428
6.58627e-05
0.000274343
1.8797e-05
0.000286096
-2.89921e-05
0.000288353
-7.55294e-05
0.000281012
-0.000118955
0.000264228
-0.000157742
0.00023915
-0.000191079
0.000207322
-0.000218398
0.00017025
-0.000239728
0.000129309
-0.000255261
8.53648e-05
-0.000264826
3.81127e-05
-0.000267591
-1.35122e-05
-0.000261318
-7.10813e-05
-0.000242371
-0.000135189
-0.000206411
-0.000202569
-0.000151546
-0.000261111
-8.34872e-05
-0.000288768
-2.12926e-05
-0.000253843
-9.45944e-05
2.36452e-05
-7.47438e-05
0.000107985
-0.00028181
0.00019184
-0.000319696
0.000242547
-0.000261467
0.000261384
-0.000176414
0.000262311
-0.00010162
0.000256474
-4.43743e-05
0.000248693
9.072e-07
0.000239279
4.12361e-05
0.000227195
8.01477e-05
0.000210768
0.00011958
0.000188494
0.000159407
0.000159319
0.000198287
0.000123161
0.00023374
8.07615e-05
0.000263042
3.39637e-05
0.000283552
-1.50137e-05
0.000293745
-6.3442e-05
0.000292561
-0.000108788
0.000280531
-0.000149451
0.000259386
-0.000184228
0.000231217
-0.000212765
0.000198126
-0.000234931
0.000161755
-0.000250713
0.00012325
-0.00026013
8.34106e-05
-0.000263415
4.35715e-05
-0.000260909
4.81691e-06
-0.000253288
-3.19932e-05
-0.00024148
-6.56209e-05
-0.0002263
-9.5702e-05
-0.000208638
-0.000122199
-0.00018913
-0.000145308
-0.000168282
-0.000165382
-0.000146431
-0.000182748
-0.000123879
-0.000197667
-0.000100697
-0.000210556
-7.68934e-05
-0.000221636
-5.22521e-05
-0.000231239
-2.65798e-05
-0.000239241
1.78472e-07
-0.000245087
2.77112e-05
-0.000247742
5.54564e-05
-0.000246643
8.30076e-05
-0.000242147
0.000110173
-0.000234757
0.000136846
-0.000224775
0.000162845
-0.000212252
0.000188064
-0.000197045
0.000212159
-0.000178814
0.000234548
-0.000157047
0.000254684
-0.000131647
0.000271738
-0.000102271
0.00028507
-6.92031e-05
0.000293796
-3.24593e-05
0.000297191
7.55465e-06
0.000294592
4.97618e-05
0.000285447
9.39473e-05
0.000269166
0.000139084
0.00024516
0.000184
0.000213401
0.000227144
0.000173876
0.000266878
0.000127176
0.000300979
7.46367e-05
0.000326882
1.84811e-05
0.000342251
-3.874e-05
0.000345574
-9.4205e-05
0.000336478
-0.00014555
0.000315575
-0.00019083
0.000284433
-0.00022901
0.000245506
-0.000260004
0.000201245
-0.000284478
0.000153781
-0.000303337
0.000104222
-0.000317228
5.20016e-05
-0.00032592
-4.82115e-06
-0.000327156
-6.9844e-05
-0.000315087
-0.00014726
-0.000280184
-0.000237478
-0.000213796
-0.000327504
-0.000119931
-0.000382635
-2.95904e-05
-0.000344183
-0.00012418
4.61407e-05
-0.000120882
0.000176332
-0.000411996
0.000288595
-0.000431954
0.000340604
-0.000313472
0.000343285
-0.000179093
0.000325052
-8.33832e-05
0.000305895
-2.52137e-05
0.000291661
1.51451e-05
0.000280472
5.24267e-05
0.000268783
9.18383e-05
0.00025295
0.000135413
0.00022994
0.000182416
0.000197847
0.000230379
0.000156092
0.000275494
0.000105599
0.000313536
4.87219e-05
0.000340431
-1.10436e-05
0.000353513
-6.98404e-05
0.000351358
-0.000124232
0.000334922
-0.000171879
0.000307032
-0.000211725
0.000271059
-0.000243917
0.00023031
-0.000268392
0.000186224
-0.000285348
0.000140206
-0.000294798
9.28605e-05
-0.000296894
4.56672e-05
-0.000292025
-5.15076e-08
-0.000281318
-4.26998e-05
-0.000265943
-8.09962e-05
-0.000247203
-0.000114443
-0.000226178
-0.000143225
-0.000203622
-0.000167866
-0.000180108
-0.000188898
-0.000156001
-0.000206858
-0.000131524
-0.000222147
-0.000106907
-0.000235176
-8.19857e-05
-0.000246559
-5.65132e-05
-0.000256713
-3.01057e-05
-0.00026565
-2.42816e-06
-0.000272766
2.62232e-05
-0.000276394
5.53568e-05
-0.000275776
8.45635e-05
-0.000271353
0.000113659
-0.000263851
0.000142642
-0.000253756
0.000171441
-0.00024105
0.000199883
-0.000225487
0.000227588
-0.000206518
0.000253841
-0.0001833
0.000277851
-0.000155657
0.000298844
-0.000123266
0.00031578
-8.61403e-05
0.00032781
-4.44908e-05
0.000333992
1.37158e-06
0.000333247
5.05045e-05
0.000325068
0.000102124
0.000308485
0.000155664
0.00028283
0.000209652
0.000247423
0.000262549
0.000201997
0.000312301
0.000147258
0.000355715
8.45935e-05
0.000389544
1.681e-05
0.000410033
-5.24905e-05
0.000414875
-0.000119258
0.000403247
-0.000180216
0.000376536
-0.000232748
0.000336967
-0.000275776
0.000288537
-0.000309747
0.000235217
-0.000336299
0.000180331
-0.000357844
0.000125764
-0.000376701
7.08566e-05
-0.000393979
1.2458e-05
-0.000407661
-5.61542e-05
-0.000408838
-0.000146076
-0.000380174
-0.00026614
-0.000303777
-0.0004039
-0.000179461
-0.000506947
-4.81734e-05
-0.000475469
-0.000172354
7.92245e-05
-0.000200104
0.000240507
-0.000573273
0.000362687
-0.000554128
0.000412983
-0.000363764
0.000406488
-0.000172595
0.000376097
-5.29899e-05
0.000348208
2.67884e-06
0.000331423
3.19332e-05
0.000322515
6.13375e-05
0.000315313
9.90419e-05
0.000303625
0.000147101
0.000282514
0.000203527
0.000248622
0.00026427
0.000200673
0.000323444
0.000139935
0.000374275
6.98042e-05
0.000410563
-4.63898e-06
0.000427955
-7.73554e-05
0.000424069
-0.000143465
0.000401025
-0.000199934
0.000363497
-0.000246065
0.000317191
-0.000282309
0.000266556
-0.000309594
0.000213513
-0.000327827
0.000158444
-0.000336993
0.00010203
-0.000337147
4.58233e-05
-0.000328758
-8.44157e-06
-0.00031337
-5.80913e-05
-0.000292811
-0.000101558
-0.000268995
-0.000138264
-0.000243386
-0.000168837
-0.000216881
-0.000194375
-0.00018992
-0.000215862
-0.000162934
-0.000233847
-0.000136287
-0.000248795
-0.000110144
-0.00026132
-8.44095e-05
-0.000272296
-5.86571e-05
-0.000282466
-3.22627e-05
-0.000292045
-4.77896e-06
-0.00030025
2.37843e-05
-0.000304958
5.31877e-05
-0.000305181
8.31624e-05
-0.00030133
0.000113778
-0.000294469
0.000145008
-0.000284988
0.000176847
-0.000272891
0.000208954
-0.000257597
0.000240914
-0.000238481
0.000271999
-0.000214389
0.000301064
-0.000184726
0.00032715
-0.000149356
0.000349065
-0.000108061
0.000365571
-6.10014e-05
0.000375505
-8.56767e-06
0.000377633
4.83719e-05
0.000371151
0.000108602
0.000354956
0.000171855
0.000327769
0.000236835
0.000288373
0.000301941
0.000236221
0.00036445
0.000171131
0.000420802
9.52406e-05
0.000465432
1.2205e-05
0.000493069
-7.28981e-05
0.000499979
-0.000154179
0.000484529
-0.000226752
0.000449109
-0.000286993
0.000397207
-0.000333753
0.000335296
-0.000368268
0.000269735
-0.000394083
0.00020615
-0.000415594
0.000147283
-0.000437111
9.23812e-05
-0.000459716
3.50721e-05
-0.000481337
-3.45256e-05
-0.00048769
-0.000139716
-0.000457789
-0.000296036
-0.000374051
-0.000487631
-0.000235927
-0.000645066
-7.60648e-05
-0.000635329
-0.000248419
9.10567e-05
-0.000291157
0.000216464
-0.000698677
0.000306163
-0.000643824
0.000356917
-0.000414513
0.00037251
-0.000188184
0.000365957
-4.64325e-05
0.000354438
1.4202e-05
0.000349568
3.68069e-05
0.00035224
5.86676e-05
0.000356516
9.47674e-05
0.00035459
0.000149027
0.000339469
0.000218648
0.000306121
0.000297619
0.000252058
0.000377507
0.00017855
0.000447782
9.07908e-05
0.00049832
-3.7061e-06
0.000522449
-9.56411e-05
0.000516003
-0.00017789
0.000483272
-0.000246129
0.000431736
-0.00030027
0.000371335
-0.000342124
0.000308411
-0.000372887
0.000244275
-0.000392575
0.000178127
-0.000400677
0.000110127
-0.000397561
4.27014e-05
-0.000383128
-2.28803e-05
-0.000360021
-8.1202e-05
-0.000330977
-0.000130606
-0.000298718
-0.000170526
-0.000265562
-0.000201995
-0.000232705
-0.000227234
-0.000200484
-0.000248084
-0.000169276
-0.000265057
-0.000139365
-0.000278708
-0.000111004
-0.000289682
-8.4142e-05
-0.000299159
-5.82437e-05
-0.000308365
-3.23399e-05
-0.000317949
-5.98637e-06
-0.000326603
2.12787e-05
-0.000332223
4.9694e-05
-0.000333596
7.96219e-05
-0.000331257
0.000111131
-0.000325977
0.000144315
-0.000318171
0.000179285
-0.00030786
0.00021594
-0.000294251
0.000253588
-0.000276128
0.000291398
-0.000252199
0.000327803
-0.000221131
0.000361317
-0.000182872
0.000390524
-0.00013727
0.000413833
-8.43135e-05
0.000429791
-2.45281e-05
0.000436291
4.18694e-05
0.000432826
0.000112065
0.000417892
0.000186786
0.000389532
0.000265193
0.000345749
0.00034572
0.00028492