/*--------------------------------*- C++ -*----------------------------------*\
| =========                 |                                                 |
| \\      /  F ield         | OpenFOAM: The Open Source CFD Toolbox           |
|  \\    /   O peration     | Version:  2412                                  |
|   \\  /    A nd           | Website:  www.openfoam.com                      |
|    \\/     M anipulation  |                                                 |
\*---------------------------------------------------------------------------*/
FoamFile
{
    version     2.0;
    format      ascii;
    arch        "LSB;label=32;scalar=64";
    class       volScalarField;
    location    "9.07";
    object      p;
}
// * * * * * * * * * * * * * * * * * * * * * * * * * * * * * * * * * * * * * //

dimensions      [1 -1 -2 0 0 0 0];

internalField   nonuniform List<scalar> 
80000
(
28707.5
28707.5
28707.5
28707.6
28707.8
28708
28708.2
28708.5
28708.7
28709
28709.4
28709.8
28710.2
28710.7
28711.2
28711.8
28712.4
28713
28713.7
28714.5
28715.3
28716.1
28717
28718
28719
28720.1
28721.2
28722.4
28723.7
28725.1
28726.5
28727.9
28729.5
28731.1
28732.9
28734.7
28736.5
28738.5
28740.6
28742.8
28745
28747.4
28749.9
28752.5
28755.2
28758
28760.9
28764
28767.2
28770.5
28774
28777.5
28781.3
28785.2
28789.2
28793.4
28797.8
28802.3
28807
28811.9
28816.9
28822.1
28827.6
28833.2
28839
28845
28851.2
28857.7
28864.3
28871.2
28878.3
28885.6
28893.2
28901
28909.1
28917.4
28925.9
28934.8
28943.9
28953.2
28962.9
28972.8
28983
28993.5
29004.3
29015.4
29026.9
29038.6
29050.6
29063
29075.6
29088.6
29102
29115.7
29129.7
29144
29158.7
29173.8
29189.2
29205
29221.1
29237.6
29254.5
29271.7
29289.4
29307.3
29325.7
29344.5
29363.6
29383.1
29403
29423.2
29443.9
29464.9
29486.3
29508.1
29530.3
29552.8
29575.8
29599
29622.7
29646.7
29671.1
29695.8
29720.9
29746.3
29772.1
29798.2
29824.6
29851.3
29878.3
29905.7
29933.3
29961.2
29989.4
30017.8
30046.4
30075.3
30104.4
30133.7
30163.2
30192.8
30222.6
30252.6
30282.6
30312.7
30343
30373.2
30403.5
30433.9
30464.2
30494.5
30524.7
30554.8
30584.8
30614.7
30644.5
30674
30703.3
30732.4
30761.2
30789.7
30817.9
30845.7
30873.1
30900
30926.6
30952.6
30978.1
31003.1
31027.4
31051.2
31074.3
31096.7
31118.4
31139.4
31159.6
31179
31197.5
31215.2
31232
31247.9
31262.9
31276.8
31289.8
31301.8
31312.7
31322.6
31331.4
31339.1
31345.7
31351.2
31355.6
31358.8
31360.8
31361.7
31361.4
31359.9
31357.3
31353.5
31348.5
31342.3
31335
31326.5
31316.9
31306.1
31294.2
31281.1
31267
31251.8
31235.5
31218.2
31199.8
31180.4
31160.1
31138.8
31116.5
31093.4
31069.3
31044.4
31018.7
30992.2
30964.9
30936.9
30908.2
30878.8
30848.7
30818
30786.8
30755
30722.7
30689.9
30656.6
30622.9
30588.7
30554.3
30519.4
30484.3
30449
30413.3
30377.5
30341.4
30305.2
30268.8
30232.4
30195.9
30159.4
30122.9
30086.3
30049.8
30013.4
29977.1
29940.9
29904.8
29869
29833.4
29798.1
29763
29728.3
29693.8
29659.7
29626
29592.7
29559.9
29527.5
29495.7
29464.4
29433.7
29403.6
29374.1
29345.2
29317
29289.5
29262.6
29236.5
29211.2
29186.7
29162.9
29140
29118
29096.8
29076.5
29057
29038.5
29020.9
29004.2
28988.5
28973.7
28959.9
28947.1
28935.2
28924.4
28914.5
28905.7
28897.8
28891
28885.2
28880.4
28876.6
28873.8
28872
28871.3
28871.5
28872.7
28875
28878.2
28882.3
28887.5
28893.6
28900.6
28908.5
28917.3
28927
28937.6
28949
28961.2
28974.2
28988
29002.6
29017.9
29033.8
29050.5
29067.7
29085.6
29104.1
29123.1
29142.6
29162.5
29182.9
29203.7
29224.9
29246.3
29268
29290
29312.1
29334.3
29356.6
29379
29401.3
29423.6
29445.7
29467.7
29489.5
29511
29532.2
29553
29573.4
29593.3
29612.8
29631.6
29649.9
29667.5
29684.4
29700.6
29715.9
29730.5
29744.3
29757.1
29769.1
29780.1
29790.1
29799.1
29807.1
29814
29819.9
29824.7
29828.5
29831.1
29832.6
29833
29832.3
29830.5
29827.6
29823.6
29818.4
29812.2
29804.9
29796.6
29787.3
29776.9
29765.5
29753.2
29739.9
29725.8
29710.7
29694.9
29678.2
29660.7
29642.5
29623.7
29604.2
29584.1
29563.5
29542.3
29520.7
29498.7
29476.3
29453.6
29430.7
29407.5
29384.2
29360.8
29337.3
29313.8
29290.4
29267
29243.8
29220.7
29198
29175.4
29153.3
29131.5
29110.1
29089.2
29068.7
29048.9
29029.6
29010.9
28992.9
28975.6
28959
28943.2
28928.2
28914
28900.6
28888.1
28876.4
28865.7
28855.8
28846.9
28839
28832
28825.9
28820.7
28816.5
28813.3
28811
28809.6
28809.1
28809.5
28810.7
28812.8
28815.7
28819.4
28823.9
28829
28834.9
28841.4
28848.4
28856.1
28864.2
28872.9
28881.9
28891.4
28901.1
28911.1
28921.4
28931.8
28942.4
28953
28963.7
28974.4
28985
28995.5
29005.9
29016.1
29026.1
29035.8
29045.3
29054.5
29063.3
29071.8
29079.9
29087.7
29095
29101.9
29108.3
29114.4
29120
29125.1
29129.8
29134.1
29137.9
29141.3
29144.3
29146.8
29149
29150.8
29152.2
29153.2
29153.9
29154.2
29154.2
29153.9
29153.4
29152.5
29151.4
29150.1
29148.5
29146.7
29144.7
29142.5
29140.1
29137.6
29134.9
29132.2
29129.2
29126.2
29123.1
29120
29116.7
29113.4
29110.1
29106.7
29103.3
29099.9
29096.6
29093.2
29089.9
29086.6
29083.3
29080.2
29077.1
29074
29071.1
29068.2
29065.5
29062.8
29060.3
29057.9
29055.6
29053.4
29051.3
29049.4
29047.5
29045.8
29044.2
29042.7
29041.2
29039.9
29038.7
29037.5
29036.5
29035.5
29034.5
29033.6
29032.8
29032
29031.2
29030.5
29029.8
29029.1
29028.4
29027.8
29027.1
29026.4
29025.8
29025.1
29024.5
29023.8
29023.1
29022.5
29021.8
29021.2
29020.5
29019.9
29019.3
29018.7
29018.1
29017.6
29017
29016.5
29016
29015.6
29015.2
29014.8
29014.5
29014.2
29014
29013.8
29013.6
29013.5
29013.5
29013.5
29013.5
29013.6
29013.8
29014
29014.2
29014.5
29014.9
29015.2
29015.7
29016.1
29016.6
29017.2
29017.8
29018.4
29019
29019.7
29020.4
29021.1
29021.9
29022.7
29023.5
29024.3
29025.1
29026
29026.8
29027.7
29028.6
29029.5
29030.4
29031.3
29032.3
29033.3
29034.3
29035.3
29036.3
29037.4
29038.5
29039.7
29040.8
29042.1
29043.4
29044.7
29046.2
29047.7
29049.2
29050.9
29052.6
29054.4
29056.4
29058.4
29060.5
29062.7
29065.1
29067.5
29070.1
29072.8
29075.6
29078.5
29081.5
29084.6
29087.8
29091.1
29094.4
29097.8
29101.3
29104.9
29108.5
29112.1
29115.7
29119.3
29122.9
29126.4
29129.9
29133.3
29136.7
29139.9
29143
29145.9
29148.7
29151.3
29153.8
29155.9
29157.9
29159.6
29161
29162.2
29163.1
29163.6
29163.8
29163.7
29163.2
29162.4
29161.1
29159.5
29157.5
29155.1
29152.3
29149
29145.4
29141.2
29136.7
29131.7
29126.4
29120.3
29114
29107.3
29100.2
29092.7
29084.8
29076.5
29067.8
29058.9
29049.6
29040.1
29030.4
29020.4
29010.4
29000.2
28990
28979.8
28969.7
28959.7
28950
28940.5
28931.3
28922.5
28914.3
28906.6
28899.5
28893.1
28887.5
28882.7
28878.9
28876
28874.2
28873.4
28873.9
28875.5
28878.4
28882.5
28888
28894.9
28903.1
28912.6
28923.6
28935.9
28949.7
28964.7
28981.2
28998.9
29017.8
29038
29059.4
29081.9
29105.4
29129.9
29155.3
29181.6
29208.5
29236.1
29264.2
29292.7
29321.6
29350.7
29379.9
29409.2
29438.2
29467.1
29495.6
29523.7
29551.2
29578
29604
29629
29653.1
29676.1
29697.8
29718.3
29737.3
29754.9
29770.9
29785.4
29798.1
29809.1
29818.4
29825.8
29831.4
29835.1
29836.9
29836.8
29834.8
29830.9
29825.1
29817.4
29807.9
29796.6
29783.5
29768.7
29752.2
29734.1
29714.4
29693.3
29670.7
29646.9
29621.8
29595.7
29568.5
29540.3
29511.4
29481.8
29451.7
29421.1
29390.2
29359.1
29328
29297
29266.2
29235.7
29205.8
29176.4
29147.7
29119.8
29092.9
29067
29042.3
29018.7
28996.6
28975.8
28956.5
28938.8
28922.7
28908.3
28895.7
28884.9
28875.9
28868.9
28863.8
28860.7
28859.7
28860.7
28863.9
28869.1
28876.5
28886.1
28897.8
28911.7
28927.8
28946.2
28966.7
28989.3
29014.2
29041.1
29070.2
29101.4
29134.6
29169.7
29206.9
29245.9
29286.7
29329.3
29373.5
29419.4
29466.8
29515.6
29565.7
29617
29669.6
29723.1
29777.6
29833
29889.1
29945.8
30003
30060.7
30118.6
30176.8
30235
30293.2
30351.2
30409
30466.3
30523.2
30579.4
30634.9
30689.6
30743.2
30795.7
30847
30897
30945.4
30992.3
31037.4
31080.7
31122
31161.2
31198.2
31233
31265.4
31295.2
31322.5
31347.1
31369
31388
31404.2
31417.4
31427.6
31434.9
31439
31440.1
31438.2
31433.2
31425.2
31414.2
31400.2
31383.3
31363.6
31341.1
31315.9
31288.1
31257.8
31225.1
31190.2
31153
31113.9
31072.8
31029.9
30985.4
30939.4
30892
30843.4
30793.7
30743.1
30691.6
30639.4
30586.6
30533.4
30479.9
30426.2
30372.3
30318.5
30264.8
30211.3
30158.1
30105.3
30053
30001.2
29950.1
29899.7
29850
29801.1
29753.1
29706
29659.8
29614.7
29570.6
29527.5
29485.5
29444.7
29404.9
29366.3
29328.8
29292.5
29257.3
29223.3
29190.4
29158.7
29128.1
29098.7
29070.4
29043.2
29017
28992
28968
28945
28923
28902
28882
28863
28844.8
28827.6
28811.2
28795.7
28780.9
28767
28753.8
28741.4
28729.6
28718.6
28708.2
28698.4
28689.2
28680.6
28672.6
28665.1
28658.1
28651.6
28645.6
28640
28634.8
28630
28625.6
28621.5
28617.8
28614.5
28611.4
28608.7
28606.2
28604.1
28602.2
28600.5
28599.2
28598
28596.9
28596.3
28595.9
28595.8
27971.4
27971.4
27971.4
27971.5
27971.6
27971.8
27972
27972.3
27972.5
27972.9
27973.2
27973.6
27974
27974.5
27975
27975.6
27976.2
27976.8
27977.5
27978.3
27979.1
27979.9
27980.8
27981.8
27982.8
27983.9
27985
27986.2
27987.5
27988.8
27990.2
27991.7
27993.3
27994.9
27996.6
27998.4
28000.3
28002.3
28004.4
28006.5
28008.8
28011.2
28013.6
28016.2
28018.9
28021.7
28024.7
28027.7
28030.9
28034.2
28037.7
28041.3
28045
28048.9
28053
28057.1
28061.5
28066
28070.7
28075.6
28080.6
28085.9
28091.3
28096.9
28102.7
28108.7
28114.9
28121.4
28128
28134.9
28142
28149.3
28156.9
28164.7
28172.7
28181
28189.6
28198.4
28207.5
28216.9
28226.5
28236.5
28246.7
28257.2
28268
28279.1
28290.5
28302.2
28314.2
28326.6
28339.3
28352.3
28365.6
28379.3
28393.3
28407.6
28422.3
28437.4
28452.8
28468.6
28484.7
28501.2
28518.1
28535.3
28553
28570.9
28589.3
28608
28627.2
28646.7
28666.6
28686.8
28707.5
28728.5
28749.9
28771.7
28793.9
28816.4
28839.4
28862.7
28886.3
28910.3
28934.7
28959.5
28984.5
29010
29035.7
29061.8
29088.3
29115
29142.1
29169.4
29197
29225
29253.1
29281.6
29310.3
29339.2
29368.3
29397.6
29427.1
29456.8
29486.6
29516.5
29546.6
29576.8
29607
29637.3
29667.7
29698
29728.4
29758.7
29789
29819.1
29849.2
29879.1
29908.9
29938.5
29967.9
29997
30025.8
30054.4
30082.6
30110.4
30137.9
30164.9
30191.5
30217.6
30243.1
30268.1
30292.6
30316.4
30339.5
30362
30383.8
30404.8
30425
30444.5
30463.1
30480.8
30497.7
30513.6
30528.6
30542.6
30555.6
30567.6
30578.6
30588.5
30597.4
30605.1
30611.7
30617.2
30621.6
30624.8
30626.9
30627.8
30627.5
30626
30623.4
30619.6
30614.6
30608.4
30601
30592.5
30582.9
30572.1
30560.1
30547.1
30532.9
30517.7
30501.3
30484
30465.6
30446.2
30425.8
30404.4
30382.1
30358.9
30334.9
30309.9
30284.2
30257.6
30230.3
30202.2
30173.4
30144
30113.8
30083.1
30051.8
30020
29987.6
29954.7
29921.4
29887.6
29853.5
29818.9
29784.1
29748.9
29713.5
29677.8
29641.9
29605.8
29569.5
29533.1
29496.7
29460.1
29423.6
29387
29350.4
29313.9
29277.4
29241
29204.8
29168.7
29132.9
29097.2
29061.9
29026.7
28991.9
28957.4
28923.3
28889.5
28856.2
28823.4
28791
28759.1
28727.8
28697.1
28666.9
28637.4
28608.4
28580.2
28552.6
28525.8
28499.7
28474.3
28449.7
28426
28403.1
28381
28359.8
28339.4
28320
28301.4
28283.8
28267.1
28251.4
28236.6
28222.8
28209.9
28198.1
28187.2
28177.3
28168.5
28160.6
28153.8
28148
28143.2
28139.4
28136.6
28134.8
28134.1
28134.3
28135.6
28137.8
28141
28145.2
28150.4
28156.5
28163.5
28171.4
28180.3
28190
28200.6
28212
28224.3
28237.3
28251.2
28265.7
28281
28297
28313.7
28331
28349
28367.5
28386.5
28406
28426.1
28446.5
28467.4
28488.5
28510
28531.8
28553.8
28576
28598.3
28620.7
28643.1
28665.5
28687.8
28710
28732.1
28753.9
28775.5
28796.7
28817.6
28838.1
28858.1
28877.6
28896.5
28914.8
28932.5
28949.5
28965.7
28981.2
28995.8
29009.6
29022.5
29034.5
29045.5
29055.5
29064.6
29072.6
29079.6
29085.5
29090.3
29094.1
29096.7
29098.2
29098.6
29097.9
29096.1
29093.2
29089.2
29084
29077.8
29070.5
29062.1
29052.8
29042.4
29031
29018.6
29005.3
28991.1
28976
28960.1
28943.3
28925.8
28907.6
28888.7
28869.1
28849
28828.3
28807
28785.4
28763.3
28740.9
28718.1
28695.1
28671.9
28648.5
28625
28601.5
28577.9
28554.4
28531
28507.7
28484.6
28461.8
28439.2
28417
28395.2
28373.7
28352.7
28332.3
28312.4
28293.1
28274.4
28256.3
28239
28222.4
28206.5
28191.4
28177.2
28163.8
28151.3
28139.6
28128.9
28119
28110.1
28102.1
28095.1
28089
28083.9
28079.7
28076.5
28074.2
28072.8
28072.3
28072.7
28074
28076.1
28079.1
28082.8
28087.3
28092.5
28098.4
28104.9
28112
28119.7
28128
28136.6
28145.7
28155.2
28165
28175.1
28185.4
28195.9
28206.5
28217.2
28227.9
28238.6
28249.3
28259.9
28270.3
28280.5
28290.6
28300.4
28309.9
28319.1
28327.9
28336.5
28344.6
28352.3
28359.7
28366.6
28373
28379.1
28384.7
28389.8
28394.5
28398.8
28402.6
28406
28409
28411.5
28413.7
28415.4
28416.8
28417.8
28418.5
28418.8
28418.8
28418.5
28417.9
28417
28415.9
28414.5
28412.9
28411.1
28409.1
28406.9
28404.5
28402
28399.3
28396.5
28393.6
28390.6
28387.5
28384.3
28381
28377.7
28374.3
28371
28367.6
28364.2
28360.8
28357.4
28354.1
28350.8
28347.5
28344.3
28341.2
28338.2
28335.2
28332.4
28329.6
28327
28324.4
28322
28319.7
28317.5
28315.4
28313.5
28311.7
28309.9
28308.3
28306.8
28305.4
28304.1
28302.9
28301.7
28300.7
28299.7
28298.7
28297.8
28297
28296.2
28295.5
28294.7
28294
28293.3
28292.7
28292
28291.3
28290.7
28290
28289.4
28288.7
28288.1
28287.4
28286.7
28286.1
28285.4
28284.8
28284.2
28283.5
28282.9
28282.3
28281.8
28281.2
28280.7
28280.3
28279.8
28279.4
28279
28278.7
28278.4
28278.2
28278
28277.8
28277.7
28277.7
28277.7
28277.7
28277.8
28278
28278.2
28278.4
28278.7
28279.1
28279.4
28279.9
28280.3
28280.8
28281.4
28282
28282.6
28283.2
28283.9
28284.6
28285.3
28286.1
28286.9
28287.7
28288.5
28289.3
28290.2
28291.1
28291.9
28292.8
28293.7
28294.6
28295.6
28296.5
28297.5
28298.5
28299.5
28300.5
28301.6
28302.7
28303.9
28305
28306.3
28307.6
28308.9
28310.3
28311.8
28313.4
28315
28316.8
28318.6
28320.5
28322.5
28324.7
28326.9
28329.2
28331.7
28334.3
28336.9
28339.7
28342.6
28345.6
28348.7
28351.9
28355.2
28358.6
28362.1
28365.6
28369.1
28372.7
28376.3
28379.9
28383.6
28387.2
28390.7
28394.2
28397.7
28401
28404.3
28407.4
28410.3
28413.1
28415.8
28418.2
28420.4
28422.4
28424.1
28425.5
28426.7
28427.6
28428.1
28428.4
28428.2
28427.8
28426.9
28425.7
28424.1
28422.1
28419.7
28416.9
28413.6
28409.9
28405.8
28401.3
28396.3
28390.9
28384.9
28378.6
28371.9
28364.8
28357.2
28349.3
28341
28332.3
28323.3
28314
28304.5
28294.7
28284.8
28274.7
28264.5
28254.2
28244
28233.8
28223.8
28214
28204.4
28195.2
28186.4
28178.1
28170.3
28163.2
28156.7
28151.1
28146.2
28142.3
28139.4
28137.6
28136.8
28137.2
28138.8
28141.6
28145.8
28151.2
28158.1
28166.3
28175.8
28186.8
28199.2
28212.9
28228
28244.4
28262.2
28281.2
28301.4
28322.8
28345.3
28368.9
28393.5
28418.9
28445.2
28472.2
28499.9
28528.1
28556.7
28585.7
28614.9
28644.2
28673.5
28702.6
28731.6
28760.2
28788.3
28815.9
28842.8
28868.9
28894
28918.2
28941.2
28963
28983.5
29002.6
29020.3
29036.4
29050.8
29063.6
29074.7
29083.9
29091.4
29097
29100.7
29102.5
29102.4
29100.4
29096.5
29090.7
29082.9
29073.4
29062
29048.9
29034
29017.4
28999.3
28979.6
28958.4
28935.8
28911.9
28886.7
28860.4
28833.2
28805
28776
28746.3
28716
28685.4
28654.4
28623.2
28592
28560.9
28530
28499.5
28469.4
28439.9
28411.2
28383.2
28356.3
28330.3
28305.5
28281.9
28259.7
28238.9
28219.6
28201.8
28185.7
28171.3
28158.6
28147.8
28138.8
28131.8
28126.7
28123.6
28122.5
28123.6
28126.7
28131.9
28139.3
28148.9
28160.6
28174.5
28190.7
28209
28229.5
28252.2
28277
28304
28333.1
28364.3
28397.5
28432.7
28469.9
28508.9
28549.8
28592.4
28636.7
28682.6
28730.1
28778.9
28829.1
28880.5
28933.1
28986.7
29041.3
29096.7
29152.9
29209.7
29267
29324.7
29382.7
29440.9
29499.2
29557.5
29615.6
29673.4
29730.9
29787.8
29844.1
29899.7
29954.4
30008.1
30060.7
30112.1
30162.1
30210.7
30257.6
30302.8
30346.1
30387.5
30426.8
30463.9
30498.7
30531.2
30561.1
30588.4
30613.1
30635
30654.1
30670.2
30683.5
30693.7
30700.9
30705.1
30706.2
30704.3
30699.2
30691.2
30680.1
30666.1
30649.2
30629.4
30606.8
30581.6
30553.7
30523.4
30490.6
30455.5
30418.3
30379.1
30337.9
30295
30250.4
30204.3
30156.8
30108.2
30058.4
30007.6
29956.1
29903.8
29851
29797.7
29744.1
29690.3
29636.5
29582.6
29528.8
29475.3
29422.1
29369.2
29316.9
29265.1
29213.9
29163.4
29113.7
29064.8
29016.8
28969.6
28923.5
28878.3
28834.2
28791.1
28749.1
28708.3
28668.5
28629.9
28592.4
28556.1
28520.9
28486.9
28454
28422.3
28391.7
28362.3
28334
28306.8
28280.6
28255.6
28231.6
28208.6
28186.6
28165.7
28145.7
28126.6
28108.5
28091.2
28074.8
28059.3
28044.6
28030.6
28017.5
28005
27993.3
27982.3
27971.9
27962.1
27952.9
27944.3
27936.3
27928.8
27921.8
27915.3
27909.3
27903.7
27898.5
27893.7
27889.3
27885.3
27881.6
27878.2
27875.2
27872.4
27870
27867.8
27865.9
27864.3
27862.9
27861.7
27860.8
27860.1
27859.7
27859.6
27234.7
27234.7
27234.8
27234.9
27235
27235.2
27235.4
27235.6
27235.9
27236.2
27236.6
27237
27237.4
27237.9
27238.4
27239
27239.6
27240.2
27240.9
27241.7
27242.5
27243.3
27244.2
27245.2
27246.2
27247.2
27248.4
27249.6
27250.8
27252.2
27253.6
27255.1
27256.6
27258.2
27260
27261.8
27263.6
27265.6
27267.7
27269.8
27272.1
27274.5
27276.9
27279.5
27282.2
27285
27287.9
27291
27294.2
27297.5
27300.9
27304.5
27308.3
27312.2
27316.2
27320.4
27324.7
27329.2
27333.9
27338.8
27343.8
27349.1
27354.5
27360.1
27365.9
27371.9
27378.1
27384.5
27391.2
27398
27405.1
27412.4
27420
27427.8
27435.9
27444.2
27452.7
27461.5
27470.6
27480
27489.6
27499.5
27509.7
27520.2
27531
27542.1
27553.5
27565.2
27577.3
27589.6
27602.3
27615.3
27628.6
27642.3
27656.3
27670.6
27685.3
27700.4
27715.8
27731.5
27747.7
27764.2
27781
27798.3
27815.9
27833.9
27852.2
27871
27890.1
27909.6
27929.5
27949.8
27970.4
27991.5
28012.9
28034.7
28056.9
28079.4
28102.3
28125.6
28149.3
28173.3
28197.7
28222.5
28247.6
28273
28298.8
28324.9
28351.4
28378.2
28405.2
28432.6
28460.3
28488.2
28516.4
28544.9
28573.6
28602.6
28631.7
28661.1
28690.6
28720.4
28750.2
28780.2
28810.4
28840.6
28870.9
28901.3
28931.7
28962.1
28992.5
29022.9
29053.2
29083.5
29113.6
29143.7
29173.5
29203.2
29232.6
29261.8
29290.8
29319.4
29347.7
29375.7
29403.2
29430.4
29457.1
29483.2
29508.9
29534
29558.5
29582.5
29605.7
29628.3
29650.2
29671.3
29691.6
29711.2
29729.9
29747.7
29764.6
29780.7
29795.8
29809.9
29823
29835
29846.1
29856.1
29865
29872.8
29879.4
29885
29889.4
29892.6
29894.7
29895.6
29895.3
29893.9
29891.3
29887.4
29882.4
29876.2
29868.9
29860.3
29850.6
29839.8
29827.8
29814.7
29800.5
29785.2
29768.8
29751.4
29732.9
29713.4
29692.9
29671.5
29649.1
29625.8
29601.6
29576.6
29550.8
29524.1
29496.7
29468.5
29439.6
29410.1
29379.8
29349
29317.6
29285.6
29253.1
29220.2
29186.8
29152.9
29118.7
29084
29049.1
29013.8
28978.3
28942.5
28906.5
28870.3
28834
28797.5
28761
28724.3
28687.6
28651
28614.3
28577.7
28541.2
28504.7
28468.4
28432.3
28396.3
28360.6
28325.1
28289.9
28255
28220.4
28186.2
28152.4
28119
28086.1
28053.7
28021.7
27990.3
27959.5
27929.3
27899.6
27870.7
27842.3
27814.7
27787.8
27761.7
27736.3
27711.6
27687.8
27664.9
27642.7
27621.5
27601.1
27581.6
27563.1
27545.4
27528.7
27512.9
27498.1
27484.3
27471.4
27459.5
27448.6
27438.8
27429.9
27422
27415.2
27409.4
27404.6
27400.8
27398
27396.3
27395.5
27395.8
27397.1
27399.3
27402.6
27406.8
27411.9
27418.1
27425.1
27433.1
27442
27451.7
27462.4
27473.9
27486.2
27499.3
27513.2
27527.8
27543.2
27559.2
27576
27593.4
27611.4
27630
27649.1
27668.7
27688.8
27709.4
27730.3
27751.6
27773.3
27795.1
27817.3
27839.5
27862
27884.5
27907
27929.6
27952
27974.4
27996.6
28018.6
28040.3
28061.7
28082.7
28103.3
28123.4
28143
28162.1
28180.5
28198.3
28215.4
28231.8
28247.3
28262
28275.9
28288.9
28301
28312.1
28322.2
28331.3
28339.4
28346.4
28352.4
28357.3
28361
28363.7
28365.2
28365.6
28364.9
28363.1
28360.2
28356.1
28350.9
28344.7
28337.3
28328.9
28319.5
28309
28297.5
28285.1
28271.7
28257.4
28242.2
28226.2
28209.4
28191.8
28173.4
28154.4
28134.7
28114.4
28093.6
28072.3
28050.5
28028.3
28005.7
27982.9
27959.7
27936.4
27912.9
27889.3
27865.6
27842
27818.3
27794.8
27771.4
27748.2
27725.2
27702.6
27680.2
27658.3
27636.7
27615.7
27595.1
27575.1
27555.7
27537
27518.9
27501.4
27484.8
27468.9
27453.7
27439.5
27426
27413.4
27401.8
27391
27381.1
27372.2
27364.2
27357.2
27351.1
27346
27341.8
27338.6
27336.3
27335
27334.6
27335
27336.4
27338.5
27341.5
27345.3
27349.9
27355.2
27361.2
27367.8
27375
27382.8
27391.1
27399.9
27409.1
27418.7
27428.6
27438.8
27449.2
27459.8
27470.5
27481.3
27492.1
27502.9
27513.7
27524.4
27534.9
27545.2
27555.3
27565.2
27574.8
27584
27592.9
27601.5
27609.7
27617.4
27624.8
27631.7
27638.2
27644.3
27649.9
27655
27659.7
27664
27667.8
27671.1
27674.1
27676.6
27678.7
27680.5
27681.8
27682.8
27683.4
27683.7
27683.7
27683.4
27682.7
27681.8
27680.7
27679.3
27677.6
27675.8
27673.7
27671.5
27669.1
27666.5
27663.8
27661
27658.1
27655
27651.9
27648.6
27645.4
27642
27638.6
27635.2
27631.8
27628.4
27625
27621.6
27618.2
27614.9
27611.6
27608.4
27605.3
27602.3
27599.3
27596.4
27593.7
27591
27588.5
27586
27583.7
27581.5
27579.5
27577.5
27575.7
27573.9
27572.3
27570.8
27569.4
27568.1
27566.9
27565.8
27564.8
27563.8
27562.9
27562
27561.2
27560.4
27559.7
27558.9
27558.2
27557.6
27556.9
27556.2
27555.6
27554.9
27554.3
27553.6
27553
27552.3
27551.6
27551
27550.3
27549.7
27549
27548.4
27547.7
27547.1
27546.5
27546
27545.4
27544.9
27544.4
27544
27543.6
27543.2
27542.9
27542.6
27542.3
27542.1
27542
27541.9
27541.8
27541.8
27541.9
27542
27542.1
27542.3
27542.6
27542.9
27543.2
27543.6
27544
27544.5
27545
27545.5
27546.1
27546.8
27547.4
27548.1
27548.8
27549.5
27550.3
27551.1
27551.9
27552.7
27553.6
27554.4
27555.3
27556.2
27557
27558
27558.9
27559.8
27560.8
27561.7
27562.7
27563.7
27564.7
27565.8
27566.9
27568
27569.2
27570.4
27571.7
27573.1
27574.5
27575.9
27577.5
27579.1
27580.9
27582.7
27584.6
27586.6
27588.7
27591
27593.3
27595.8
27598.3
27601
27603.8
27606.7
27609.7
27612.8
27616.1
27619.4
27622.7
27626.2
27629.7
27633.3
27636.9
27640.6
27644.2
27647.9
27651.5
27655.1
27658.6
27662.1
27665.5
27668.7
27671.9
27674.9
27677.7
27680.3
27682.8
27685
27687
27688.8
27690.2
27691.4
27692.3
27692.9
27693.2
27693.1
27692.6
27691.8
27690.6
27689
27687
27684.6
27681.8
27678.6
27674.9
27670.8
27666.2
27661.2
27655.8
27649.9
27643.6
27636.8
27629.6
27622.1
27614.1
27605.7
27597
27588
27578.7
27569
27559.2
27549.2
27539
27528.7
27518.4
27508
27497.8
27487.6
27477.7
27468.1
27458.7
27449.8
27441.4
27433.5
27426.3
27419.7
27413.9
27409
27405
27402
27400.1
27399.2
27399.6
27401.1
27403.9
27408
27413.4
27420.2
27428.4
27438
27448.9
27461.3
27475.1
27490.2
27506.7
27524.5
27543.5
27563.9
27585.4
27608
27631.7
27656.3
27681.9
27708.3
27735.5
27763.3
27791.6
27820.4
27849.5
27878.9
27908.3
27937.8
27967.2
27996.3
28025.1
28053.4
28081.1
28108.2
28134.4
28159.7
28184
28207.2
28229.2
28249.8
28269
28286.8
28303
28317.5
28330.4
28341.5
28350.8
28358.3
28363.9
28367.7
28369.5
28369.4
28367.3
28363.4
28357.5
28349.7
28340.1
28328.6
28315.4
28300.4
28283.8
28265.5
28245.6
28224.3
28201.6
28177.5
28152.2
28125.8
28098.3
28069.9
28040.8
28010.9
27980.5
27949.6
27918.5
27887.1
27855.8
27824.5
27793.4
27762.7
27732.5
27702.8
27673.9
27645.9
27618.7
27592.7
27567.8
27544.1
27521.8
27500.9
27481.5
27463.6
27447.4
27433
27420.3
27409.4
27400.4
27393.3
27388.2
27385.1
27384
27385
27388.1
27393.3
27400.7
27410.3
27422
27435.9
27452.1
27470.4
27490.9
27513.6
27538.5
27565.5
27594.7
27625.9
27659.2
27694.5
27731.7
27770.8
27811.8
27854.5
27898.9
27944.9
27992.5
28041.4
28091.7
28143.3
28196
28249.7
28304.4
28360
28416.3
28473.2
28530.6
28588.5
28646.7
28705
28763.5
28821.9
28880.1
28938.1
28995.7
29052.8
29109.3
29165
29219.9
29273.7
29326.5
29378
29428.2
29476.9
29524
29569.3
29612.8
29654.3
29693.8
29731
29766
29798.5
29828.5
29856
29880.7
29902.7
29921.8
29938.1
29951.3
29961.6
29968.8
29973
29974.1
29972.1
29967
29958.9
29947.8
29933.7
29916.6
29896.7
29874
29848.6
29820.6
29790.1
29757.2
29722
29684.6
29645.2
29603.9
29560.8
29516
29469.8
29422.2
29373.3
29323.4
29272.5
29220.8
29168.4
29115.4
29062
29008.3
28954.4
28900.4
28846.4
28792.6
28738.9
28685.6
28632.7
28580.3
28528.4
28477.2
28426.6
28376.9
28327.9
28279.9
28232.7
28186.5
28141.3
28097.2
28054.1
28012.1
27971.2
27931.4
27892.8
27855.3
27819
27783.8
27749.8
27716.9
27685.2
27654.7
27625.2
27596.9
27569.7
27543.6
27518.5
27494.5
27471.6
27449.6
27428.7
27408.7
27389.6
27371.5
27354.3
27337.9
27322.4
27307.7
27293.7
27280.6
27268.2
27256.4
27245.4
27235
27225.2
27216.1
27207.5
27199.5
27192
27185
27178.5
27172.5
27166.9
27161.7
27156.9
27152.5
27148.5
27144.8
27141.4
27138.4
27135.7
27133.2
27131.1
27129.2
27127.5
27126.1
27125
27124
27123.4
27123
27122.8
26497.6
26497.6
26497.7
26497.8
26498
26498.1
26498.3
26498.6
26498.9
26499.2
26499.5
26499.9
26500.4
26500.8
26501.3
26501.9
26502.5
26503.1
26503.8
26504.6
26505.4
26506.2
26507.1
26508.1
26509.1
26510.1
26511.3
26512.5
26513.7
26515.1
26516.5
26517.9
26519.5
26521.1
26522.8
26524.6
26526.5
26528.5
26530.5
26532.7
26534.9
26537.3
26539.8
26542.3
26545
26547.8
26550.8
26553.8
26557
26560.3
26563.7
26567.3
26571
26574.9
26578.9
26583.1
26587.5
26592
26596.7
26601.5
26606.5
26611.8
26617.2
26622.8
26628.5
26634.5
26640.7
26647.2
26653.8
26660.6
26667.7
26675
26682.6
26690.4
26698.4
26706.7
26715.3
26724.1
26733.1
26742.5
26752.1
26762
26772.2
26782.7
26793.5
26804.6
26815.9
26827.6
26839.7
26852
26864.6
26877.6
26891
26904.6
26918.6
26932.9
26947.6
26962.7
26978.1
26993.8
27010
27026.5
27043.3
27060.6
27078.2
27096.1
27114.5
27133.3
27152.4
27171.9
27191.8
27212
27232.7
27253.7
27275.2
27297
27319.2
27341.7
27364.7
27388
27411.7
27435.7
27460.1
27484.9
27510
27535.5
27561.3
27587.5
27614
27640.8
27667.9
27695.3
27723
27751
27779.3
27807.8
27836.6
27865.6
27894.8
27924.2
27953.8
27983.6
28013.6
28043.7
28073.9
28104.2
28134.6
28165
28195.6
28226.1
28256.6
28287.1
28317.5
28347.9
28378.2
28408.3
28438.3
28468.1
28497.7
28527
28556.1
28584.9
28613.4
28641.5
28669.2
28696.4
28723.3
28749.6
28775.4
28800.7
28825.4
28849.4
28872.9
28895.6
28917.6
28938.9
28959.4
28979.1
28997.9
29015.9
29033
29049.2
29064.4
29078.6
29091.9
29104.1
29115.2
29125.3
29134.3
29142.2
29148.9
29154.5
29159
29162.3
29164.4
29165.3
29165.1
29163.7
29161
29157.2
29152.2
29145.9
29138.5
29130
29120.2
29109.3
29097.3
29084.1
29069.8
29054.4
29037.9
29020.3
29001.8
28982.2
28961.6
28940
28917.5
28894
28869.7
28844.6
28818.5
28791.7
28764.1
28735.8
28706.8
28677.1
28646.7
28615.7
28584.2
28552.1
28519.4
28486.3
28452.7
28418.7
28384.3
28349.5
28314.4
28279
28243.3
28207.4
28171.3
28135
28098.5
28061.9
28025.2
27988.5
27951.6
27914.8
27878.1
27841.3
27804.7
27768.1
27731.7
27695.4
27659.3
27623.5
27587.9
27552.5
27517.5
27482.9
27448.5
27414.6
27381.1
27348.1
27315.5
27283.5
27252
27221
27190.7
27161
27131.9
27103.5
27075.8
27048.8
27022.5
26997.1
26972.4
26948.5
26925.5
26903.3
26882
26861.5
26842
26823.4
26805.7
26788.9
26773.1
26758.2
26744.4
26731.5
26719.6
26708.7
26698.8
26689.9
26682
26675.2
26669.4
26664.5
26660.8
26658
26656.3
26655.5
26655.8
26657.1
26659.4
26662.7
26666.9
26672.1
26678.3
26685.4
26693.4
26702.4
26712.2
26722.9
26734.5
26746.8
26760
26774
26788.7
26804.2
26820.4
26837.3
26854.8
26872.9
26891.6
26910.9
26930.6
26950.9
26971.6
26992.7
27014.2
27035.9
27058
27080.3
27102.8
27125.4
27148.1
27170.8
27193.6
27216.2
27238.8
27261.2
27283.4
27305.3
27326.9
27348.1
27368.9
27389.3
27409.1
27428.3
27447
27464.9
27482.2
27498.7
27514.4
27529.3
27543.4
27556.5
27568.7
27579.9
27590.2
27599.4
27607.5
27614.6
27620.6
27625.6
27629.4
27632.1
27633.6
27634
27633.3
27631.5
27628.5
27624.4
27619.2
27612.9
27605.5
27597
27587.5
27576.9
27565.3
27552.7
27539.2
27524.8
27509.5
27493.3
27476.3
27458.5
27440
27420.8
27401
27380.5
27359.5
27338
27316.1
27293.7
27270.9
27247.9
27224.6
27201
27177.3
27153.5
27129.7
27105.8
27082
27058.3
27034.8
27011.4
26988.3
26965.4
26942.9
26920.8
26899.2
26878
26857.3
26837.2
26817.6
26798.8
26780.5
26763
26746.3
26730.3
26715.1
26700.7
26687.2
26674.6
26662.8
26652
26642.1
26633.2
26625.2
26618.2
26612.1
26607
26602.9
26599.7
26597.4
26596.1
26595.8
26596.3
26597.7
26600
26603.1
26607
26611.7
26617.1
26623.2
26629.9
26637.3
26645.2
26653.7
26662.6
26672
26681.8
26691.8
26702.2
26712.8
26723.5
26734.4
26745.3
26756.3
26767.3
26778.2
26789
26799.6
26810.1
26820.3
26830.3
26840
26849.3
26858.3
26866.9
26875.2
26883
26890.4
26897.4
26903.9
26909.9
26915.6
26920.7
26925.4
26929.6
26933.4
26936.7
26939.7
26942.2
26944.2
26945.9
26947.2
26948.2
26948.7
26949
26948.9
26948.5
26947.9
26946.9
26945.7
26944.2
26942.5
26940.6
26938.6
26936.3
26933.8
26931.2
26928.5
26925.6
26922.6
26919.5
26916.3
26913.1
26909.8
26906.4
26903
26899.5
26896.1
26892.6
26889.2
26885.7
26882.3
26879
26875.7
26872.5
26869.3
26866.2
26863.2
26860.4
26857.6
26854.9
26852.4
26849.9
26847.6
26845.4
26843.3
26841.4
26839.6
26837.9
26836.3
26834.8
26833.4
26832.1
26830.9
26829.8
26828.8
26827.8
26826.9
26826.1
26825.3
26824.5
26823.8
26823.1
26822.4
26821.8
26821.1
26820.5
26819.8
26819.2
26818.5
26817.9
26817.2
26816.5
26815.9
26815.2
26814.5
26813.9
26813.2
26812.6
26811.9
26811.3
26810.7
26810.1
26809.6
26809.1
26808.6
26808.1
26807.7
26807.3
26807
26806.7
26806.4
26806.2
26806.1
26806
26805.9
26805.9
26806
26806.1
26806.2
26806.4
26806.7
26807
26807.3
26807.7
26808.1
26808.6
26809.1
26809.7
26810.3
26810.9
26811.6
26812.3
26813
26813.7
26814.5
26815.3
26816.1
26816.9
26817.8
26818.6
26819.5
26820.4
26821.3
26822.2
26823.1
26824
26825
26825.9
26826.9
26827.9
26828.9
26830
26831
26832.2
26833.3
26834.5
26835.8
26837.1
26838.5
26840
26841.5
26843.2
26844.9
26846.7
26848.6
26850.6
26852.7
26854.9
26857.3
26859.7
26862.3
26865
26867.8
26870.7
26873.7
26876.8
26880.1
26883.4
26886.8
26890.3
26893.9
26897.5
26901.1
26904.8
26908.5
26912.2
26915.8
26919.5
26923.1
26926.6
26930
26933.3
26936.5
26939.5
26942.4
26945.1
26947.6
26949.9
26951.9
26953.7
26955.2
26956.4
26957.4
26958
26958.2
26958.2
26957.8
26957
26955.8
26954.2
26952.3
26949.9
26947.1
26943.8
26940.2
26936.1
26931.5
26926.5
26921.1
26915.2
26908.8
26902
26894.8
26887.2
26879.2
26870.7
26862
26852.9
26843.4
26833.7
26823.8
26813.6
26803.3
26792.9
26782.4
26772
26761.6
26751.3
26741.2
26731.4
26721.9
26712.8
26704.2
26696.2
26688.8
26682.1
26676.2
26671.1
26667
26663.8
26661.8
26660.8
26661
26662.5
26665.2
26669.2
26674.6
26681.4
26689.5
26699.1
26710
26722.4
26736.2
26751.4
26767.9
26785.8
26805
26825.4
26847
26869.8
26893.6
26918.5
26944.2
26970.9