/*--------------------------------*- C++ -*----------------------------------*\
| =========                 |                                                 |
| \\      /  F ield         | OpenFOAM: The Open Source CFD Toolbox           |
|  \\    /   O peration     | Version:  2412                                  |
|   \\  /    A nd           | Website:  www.openfoam.com                      |
|    \\/     M anipulation  |                                                 |
\*---------------------------------------------------------------------------*/
FoamFile
{
    version     2.0;
    format      ascii;
    arch        "LSB;label=32;scalar=64";
    class       surfaceScalarField;
    location    "3.6";
    object      alphaPhi0.oil;
}
// * * * * * * * * * * * * * * * * * * * * * * * * * * * * * * * * * * * * * //

dimensions      [0 3 -1 0 0 0 0];

oriented        oriented;

internalField   nonuniform List<scalar> 
12640
(
1.38778e-07
-1.38755e-07
6.04557e-07
-4.66102e-07
1.27222e-06
-6.67834e-07
2.00785e-06
-7.35755e-07
2.72569e-06
-7.17722e-07
3.37958e-06
-6.53909e-07
3.9517e-06
-5.72276e-07
4.44159e-06
-4.89781e-07
4.85724e-06
-4.1548e-07
5.20996e-06
-3.52628e-07
5.5108e-06
-3.00719e-07
5.76884e-06
-2.57821e-07
5.99024e-06
-2.21163e-07
6.17837e-06
-1.87852e-07
6.33445e-06
-1.55667e-07
6.45813e-06
-1.23161e-07
6.54808e-06
-8.93423e-08
6.60239e-06
-5.35853e-08
6.61909e-06
-1.57998e-08
6.59656e-06
2.36074e-08
6.53365e-06
6.39674e-08
6.42986e-06
1.04605e-07
6.28539e-06
1.44875e-07
6.10124e-06
1.84162e-07
5.87909e-06
2.21841e-07
5.62128e-06
2.57288e-07
5.33074e-06
2.89899e-07
5.0109e-06
3.1915e-07
4.66555e-06
3.44647e-07
4.29869e-06
3.66166e-07
3.91435e-06
3.83663e-07
3.51646e-06
3.9725e-07
3.10869e-06
4.0719e-07
2.69427e-06
4.13915e-07
2.27591e-06
4.17952e-07
1.85566e-06
4.19954e-07
1.43493e-06
4.20553e-07
1.01454e-06
4.20336e-07
5.94754e-07
4.19858e-07
1.7534e-07
4.19597e-07
-2.4412e-07
4.1975e-07
-6.64071e-07
4.20329e-07
-1.08491e-06
4.21282e-07
-1.50661e-06
4.22184e-07
-1.92871e-06
4.22618e-07
-2.35034e-06
4.2214e-07
-2.76987e-06
4.20017e-07
-3.18499e-06
4.15575e-07
-3.59273e-06
4.08141e-07
-3.98954e-06
3.97145e-07
-4.37162e-06
3.82312e-07
-4.73488e-06
3.63387e-07
-5.07514e-06
3.40257e-07
-5.38836e-06
3.13111e-07
-5.6708e-06
2.8221e-07
-5.91905e-06
2.47916e-07
-6.13029e-06
2.10808e-07
-6.30229e-06
1.71484e-07
-6.4335e-06
1.30636e-07
-6.52307e-06
8.89597e-08
-6.57085e-06
4.71619e-08
-6.57739e-06
5.94329e-09
-6.54379e-06
-3.41405e-08
-6.47155e-06
-7.27209e-08
-6.36218e-06
-1.09766e-07
-6.21685e-06
-1.45624e-07
-6.03587e-06
-1.81175e-07
-5.81795e-06
-2.18009e-07
-5.55968e-06
-2.58264e-07
-5.25512e-06
-3.04495e-07
-4.8957e-06
-3.59295e-07
-4.471e-06
-4.24526e-07
-3.97054e-06
-5.0021e-07
-3.38733e-06
-5.82865e-07
-2.72352e-06
-6.63353e-07
-1.99857e-06
-7.24365e-07
-1.25977e-06
-7.38105e-07
-5.94006e-07
-6.64976e-07
-1.33832e-07
-4.59296e-07
-1.32861e-07
4.69706e-07
-6.08551e-07
1.57663e-06
-1.57318e-06
3.03691e-06
-2.12809e-06
4.61115e-06
-2.31022e-06
6.13472e-06
-2.24123e-06
7.5145e-06
-2.03343e-06
8.71255e-06
-1.7701e-06
9.72753e-06
-1.50436e-06
1.05777e-05
-1.2653e-06
1.12897e-05
-1.06425e-06
1.18903e-05
-9.00811e-07
1.2402e-05
-7.68868e-07
1.28409e-05
-6.59351e-07
1.32165e-05
-5.62663e-07
1.35326e-05
-4.70867e-07
1.37889e-05
-3.78327e-07
1.39821e-05
-2.81251e-07
1.41074e-05
-1.77402e-07
1.41591e-05
-6.6132e-08
1.4132e-05
5.18034e-08
1.40221e-05
1.74722e-07
1.38265e-05
3.00562e-07
1.35443e-05
4.27065e-07
1.31761e-05
5.51911e-07
1.27244e-05
6.72771e-07
1.21934e-05
7.87376e-07
1.15887e-05
8.93599e-07
1.09172e-05
9.89577e-07
1.01869e-05
1.07385e-06
9.4065e-06
1.14548e-06
8.58503e-06
1.20413e-06
7.7314e-06
1.25e-06
6.85393e-06
1.28391e-06
5.96009e-06
1.30718e-06
5.05609e-06
1.32155e-06
4.14676e-06
1.32907e-06
3.23542e-06
1.33186e-06
2.324e-06
1.33191e-06
1.41311e-06
1.33106e-06
5.02392e-07
1.33077e-06
-4.09154e-07
1.33187e-06
-1.3226e-06
1.33443e-06
-2.2387e-06
1.33809e-06
-3.15745e-06
1.34164e-06
-4.07776e-06
1.34363e-06
-4.99732e-06
1.34235e-06
-5.91235e-06
1.33561e-06
-6.8175e-06
1.32118e-06
-7.70592e-06
1.29688e-06
-8.56954e-06
1.26092e-06
-9.39946e-06
1.21223e-06
-1.01864e-05
1.15018e-06
-1.09212e-05
1.07466e-06
-1.15948e-05
9.86255e-07
-1.21993e-05
8.8609e-07
-1.27279e-05
7.75661e-07
-1.31748e-05
6.56897e-07
-1.35362e-05
5.31986e-07
-1.38097e-05
4.03313e-07
-1.39949e-05
2.73263e-07
-1.40927e-05
1.44222e-07
-1.41058e-05
1.83688e-08
-1.40378e-05
-1.02575e-07
-1.38932e-05
-2.17709e-07
-1.36759e-05
-3.27246e-07
-1.33886e-05
-4.32892e-07
-1.30316e-05
-5.38127e-07
-1.26008e-05
-6.48629e-07
-1.20868e-05
-7.71909e-07
-1.14743e-05
-9.16655e-07
-1.07418e-05
-1.09126e-06
-9.86447e-06
-1.30137e-06
-8.81781e-06
-1.54624e-06
-7.58631e-06
-1.8136e-06
-6.17505e-06
-2.07368e-06
-4.62562e-06
-2.27268e-06
-3.03424e-06
-2.32814e-06
-1.56775e-06
-2.1299e-06
-4.63679e-07
-1.5616e-06
-5.96239e-07
6.86258e-07
-1.29494e-06
2.17462e-06
-3.06156e-06
4.05564e-06
-4.00894e-06
6.03742e-06
-4.29195e-06
7.92622e-06
-4.12973e-06
9.61338e-06
-3.72031e-06
1.10567e-05
-3.21321e-06
1.22589e-05
-2.70615e-06
1.32479e-05
-2.25374e-06
1.40618e-05
-1.87769e-06
1.47391e-05
-1.5776e-06
1.53124e-05
-1.34161e-06
1.58055e-05
-1.1518e-06
1.62325e-05
-9.8913e-07
1.65995e-05
-8.37365e-07
1.69062e-05
-6.84528e-07
1.71475e-05
-5.22346e-07
1.7316e-05
-3.45761e-07
1.74028e-05
-1.52883e-07
1.73993e-05
5.54032e-08
1.7298e-05
2.76189e-07
1.70933e-05
5.055e-07
1.67818e-05
7.38792e-07
1.63625e-05
9.71302e-07
1.58369e-05
1.19827e-06
1.52091e-05
1.41504e-06
1.44852e-05
1.61727e-06
1.36734e-05
1.80106e-06
1.27837e-05
1.96325e-06
1.18272e-05
2.10169e-06
1.08158e-05
2.21536e-06
9.76121e-06
2.30449e-06
8.67466e-06
2.37047e-06
7.56615e-06
2.41578e-06
6.44408e-06
2.44379e-06
5.31495e-06
2.45844e-06
4.1832e-06
2.4639e-06
3.05126e-06
2.46419e-06
1.91978e-06
2.46289e-06
7.88029e-07
2.4629e-06
-3.45561e-07
2.46582e-06
-1.48276e-06
2.47198e-06
-2.62487e-06
2.48051e-06
-3.7721e-06
2.48913e-06
-4.92318e-06
2.49489e-06
-6.07501e-06
2.49427e-06
-7.22246e-06
2.48306e-06
-8.35829e-06
2.45692e-06
-9.47329e-06
2.41169e-06
-1.05566e-05
2.34396e-06
-1.15962e-05
2.25154e-06
-1.25798e-05
2.13344e-06
-1.34953e-05
1.98976e-06
-1.43313e-05
1.82185e-06
-1.50778e-05
1.63212e-06
-1.57263e-05
1.42389e-06
-1.62709e-05
1.20115e-06
-1.67075e-05
9.68385e-07
-1.70346e-05
7.30394e-07
-1.72533e-05
4.91968e-07
-1.73667e-05
2.57764e-07
-1.738e-05
3.18953e-08
-1.72997e-05
-1.82562e-07
-1.71328e-05
-3.84234e-07
-1.68856e-05
-5.74046e-07
-1.65621e-05
-7.55961e-07
-1.61623e-05
-9.37551e-07
-1.56801e-05
-1.13056e-06
-1.51014e-05
-1.3503e-06
-1.44037e-05
-1.61414e-06
-1.35563e-05
-1.93854e-06
-1.25231e-05
-2.33436e-06
-1.12693e-05
-2.79988e-06
-9.77111e-06
-3.3116e-06
-8.03088e-06
-3.81362e-06
-6.09597e-06
-4.20724e-06
-4.0794e-06
-4.3443e-06
-2.17816e-06
-4.03059e-06
-6.8358e-07
-3.05557e-06
-1.28027e-06
7.82486e-07
-2.0774e-06
2.43778e-06
-4.71637e-06
4.47839e-06
-6.04894e-06
6.57951e-06
-6.39266e-06
8.53874e-06
-6.08828e-06
1.02491e-05
-5.43004e-06
1.16754e-05
-4.63907e-06
1.28304e-05
-3.86044e-06
1.37527e-05
-3.17534e-06
1.4491e-05
-2.61549e-06
1.50932e-05
-2.17927e-06
1.55993e-05
-1.84715e-06
1.60384e-05
-1.5904e-06
1.64278e-05
-1.37831e-06
1.67746e-05
-1.18428e-06
1.7078e-05
-9.88184e-07
1.73312e-05
-7.76013e-07
1.7524e-05
-5.39156e-07
1.76446e-05
-2.74065e-07
1.76811e-05
1.84399e-08
1.76227e-05
3.34275e-07
1.74608e-05
6.67392e-07
1.7189e-05
1.01063e-06
1.68042e-05
1.35632e-06
1.63059e-05
1.69671e-06
1.5697e-05
2.02417e-06
1.49829e-05
2.33145e-06
1.41722e-05
2.61203e-06
1.32751e-05
2.86047e-06
1.23042e-05
3.07291e-06
1.12726e-05
3.2473e-06
1.01937e-05
3.38367e-06
9.08063e-06
3.48399e-06
7.94476e-06
3.55207e-06
6.79579e-06
3.59318e-06
5.64107e-06
3.61358e-06
4.48528e-06
3.62002e-06
3.33074e-06
3.61901e-06
2.17755e-06
3.61629e-06
1.02415e-06
3.61642e-06
-1.32039e-07
3.62203e-06
-1.29389e-06
3.63377e-06
-2.46375e-06
3.65022e-06
-3.64262e-06
3.66776e-06
-4.82965e-06
3.68158e-06
-6.02157e-06
3.68577e-06
-7.21265e-06
3.67365e-06
-8.39465e-06
3.63839e-06
-9.55698e-06
3.57346e-06
-1.06871e-05
3.47355e-06
-1.17714e-05
3.33526e-06
-1.27955e-05
3.15714e-06
-1.37459e-05
2.93975e-06
-1.46099e-05
2.68565e-06
-1.53769e-05
2.399e-06
-1.60384e-05
2.08544e-06
-1.65887e-05
1.75169e-06
-1.7025e-05
1.4051e-06
-1.73474e-05
1.05344e-06
-1.7559e-05
7.04366e-07
-1.76655e-05
3.65172e-07
-1.76747e-05
4.21138e-08
-1.75958e-05
-2.60334e-07
-1.74385e-05
-5.40412e-07
-1.72114e-05
-8.00174e-07
-1.69198e-05
-1.04657e-06
-1.65641e-05
-1.29241e-06
-1.61371e-05
-1.55694e-06
-1.56218e-05
-1.86504e-06
-1.49909e-05
-2.24474e-06
-1.42067e-05
-2.72264e-06
-1.32245e-05
-3.31653e-06
-1.19996e-05
-4.02485e-06
-1.04982e-05
-4.81304e-06
-8.71405e-06
-5.59794e-06
-6.68835e-06
-6.23307e-06
-4.53362e-06
-6.49916e-06
-2.45714e-06
-6.10729e-06
-7.84855e-07
-4.72832e-06
-2.06604e-06
8.01722e-07
-2.87904e-06
2.47212e-06
-6.38621e-06
4.48936e-06
-8.0655e-06
6.51434e-06
-8.41724e-06
8.3478e-06
-7.92106e-06
9.89412e-06
-6.9758e-06
1.11322e-05
-5.87684e-06
1.20886e-05
-4.81622e-06
1.2814e-05
-3.90011e-06
1.33668e-05
-3.16793e-06
1.38021e-05
-2.61439e-06
1.41653e-05
-2.21e-06
1.44884e-05
-1.91315e-06
1.479e-05
-1.67978e-06
1.50771e-05
-1.4714e-06
1.53472e-05
-1.25858e-06
1.55915e-05
-1.02077e-06
1.57971e-05
-7.45344e-07
1.59492e-05
-4.26872e-07
1.60331e-05
-6.60069e-08
1.60349e-05
3.32051e-07
1.5943e-05
7.59107e-07
1.57485e-05
1.20521e-06
1.54455e-05
1.6595e-06
1.50317e-05
2.11079e-06
1.45082e-05
2.54795e-06
1.38798e-05
2.96027e-06
1.31543e-05
3.33802e-06
1.23422e-05
3.67305e-06
1.14564e-05
3.95926e-06
1.05111e-05
4.1932e-06
9.52088e-06
4.37448e-06
8.4998e-06
4.50567e-06
7.46036e-06
4.59211e-06
6.41281e-06
4.64128e-06
5.3646e-06
4.66228e-06
4.32007e-06
4.66497e-06
3.28061e-06
4.65878e-06
2.24509e-06
4.65201e-06
1.21041e-06
4.65119e-06
1.7224e-07
4.66019e-06
-8.74082e-07
4.67997e-06
-1.93266e-06
4.70858e-06
-3.00606e-06
4.74086e-06
-4.09453e-06
4.7697e-06
-5.19545e-06
4.78628e-06
-6.30317e-06
4.78092e-06
-7.40907e-06
4.74383e-06
-8.50179e-06
4.66573e-06
-9.56777e-06
4.53911e-06
-1.05921e-05
4.3592e-06
-1.15594e-05
4.12414e-06
-1.24549e-05
3.83512e-06
-1.32655e-05
3.49622e-06
-1.39803e-05
3.11393e-06
-1.45914e-05
2.69676e-06
-1.50938e-05
2.25463e-06
-1.54864e-05
1.79831e-06
-1.5771e-05
1.3389e-06
-1.59529e-05
8.87242e-07
-1.60401e-05
4.53463e-07
-1.60429e-05
4.60979e-08
-1.59731e-05
-3.28915e-07
-1.58428e-05
-6.69533e-07
-1.56628e-05
-9.79145e-07
-1.54404e-05
-1.26807e-06
-1.51771e-05
-1.55493e-06
-1.48661e-05
-1.86742e-06
-1.44895e-05
-2.2413e-06
-1.40171e-05
-2.71694e-06
-1.34067e-05
-3.33297e-06
-1.26069e-05
-4.11639e-06
-1.15636e-05
-5.06818e-06
-1.02319e-05
-6.14492e-06
-8.59212e-06
-7.23783e-06
-6.67268e-06
-8.15277e-06
-4.5758e-06
-8.59639e-06
-2.50737e-06
-8.17639e-06
-8.08999e-07
-6.42779e-06
-2.87569e-06
7.78014e-07
-3.65667e-06
2.36869e-06
-7.97641e-06
4.24311e-06
-9.93922e-06
6.06425e-06
-1.02381e-05
7.64615e-06
-9.5024e-06
8.91168e-06
-8.24092e-06
9.85843e-06
-6.82356e-06
1.05292e-05
-5.48659e-06
1.09869e-05
-4.35746e-06
1.12986e-05
-3.47948e-06
1.15246e-05
-2.84038e-06
1.17127e-05
-2.39799e-06
1.18957e-05
-2.0958e-06
1.20913e-05
-1.87506e-06
1.23046e-05
-1.68449e-06
1.25309e-05
-1.4847e-06
1.27586e-05
-1.24829e-06
1.29718e-05
-9.58595e-07
1.31531e-05
-6.08342e-07
1.32849e-05
-1.98102e-07
1.33512e-05
2.65705e-07
1.33377e-05
7.72664e-07
1.32331e-05
1.30991e-06
1.30297e-05
1.86318e-06
1.27233e-05
2.41751e-06
1.23138e-05
2.95782e-06
1.18049e-05
3.46948e-06
1.12042e-05
3.93907e-06
1.05224e-05
4.35517e-06
9.77292e-06
4.70903e-06
8.97092e-06
4.99546e-06
8.13213e-06
5.21351e-06
7.2716e-06
5.36641e-06
6.40256e-06
5.46133e-06
5.53547e-06
5.50851e-06
4.67737e-06
5.52049e-06
3.83158e-06
5.51081e-06
2.99787e-06
5.49248e-06
2.17297e-06
5.47685e-06
1.35128e-06
5.47277e-06
5.25768e-07
5.48554e-06
-3.10985e-07
5.51653e-06
-1.16573e-06
5.56312e-06
-2.04346e-06
5.61839e-06
-2.94642e-06
5.67247e-06
-3.87345e-06
5.71315e-06
-4.81964e-06
5.72699e-06
-5.77649e-06
5.70059e-06
-6.73215e-06
5.62134e-06
-7.67215e-06
5.47911e-06
-8.58035e-06
5.26745e-06
-9.44019e-06
4.98411e-06
-1.0236e-05
4.63108e-06
-1.09538e-05
4.21433e-06
-1.15827e-05
3.74315e-06
-1.21149e-05
3.22943e-06
-1.25466e-05
2.68684e-06
-1.28777e-05
2.12997e-06
-1.31116e-05
1.57355e-06
-1.32555e-05
1.03185e-06
-1.33192e-05
5.17953e-07
-1.3315e-05
4.27549e-08
-1.32569e-05
-3.86236e-07
-1.31592e-05
-7.66537e-07
-1.3035e-05
-1.10277e-06
-1.2894e-05
-1.40856e-06
-1.27402e-05
-1.70845e-06
-1.25685e-05
-2.03896e-06
-1.23622e-05
-2.4475e-06
-1.2091e-05
-2.98812e-06
-1.17105e-05
-3.71347e-06
-1.11645e-05
-4.66239e-06
-1.03909e-05
-5.84173e-06
-9.33281e-06
-7.20294e-06
-7.95539e-06
-8.61525e-06
-6.26902e-06
-9.83926e-06
-4.35872e-06
-1.05069e-05
-2.41856e-06
-1.01172e-05
-7.89157e-07
-8.05804e-06
-3.66463e-06
7.32808e-07
-4.38896e-06
2.18914e-06
-9.43252e-06
3.84728e-06
-1.15969e-05
5.38526e-06
-1.17761e-05
6.63996e-06
-1.07568e-05
7.55901e-06
-9.15989e-06
8.16228e-06
-7.42721e-06
8.50997e-06
-5.83415e-06
8.67656e-06
-4.52386e-06
8.73539e-06
-3.53839e-06
8.7495e-06
-2.8546e-06
8.76632e-06
-2.41469e-06
8.81622e-06
-2.14537e-06
8.91382e-06
-1.97223e-06
9.0607e-06
-1.83081e-06
9.24847e-06
-1.67179e-06
9.46206e-06
-1.46116e-06
9.68277e-06
-1.17865e-06
9.89053e-06
-8.15591e-07
1.00657e-05
-3.72922e-07
1.01904e-05
1.41458e-07
1.02487e-05
7.14761e-07
1.02279e-05
1.33108e-06
1.01189e-05
1.97258e-06
9.91651e-06
2.62028e-06
9.61981e-06
3.2548e-06
9.23236e-06
3.85713e-06
8.76193e-06
4.4096e-06
8.22e-06
4.89709e-06
7.62113e-06
5.30779e-06
6.98189e-06
5.63448e-06
6.31952e-06
5.87559e-06
5.65034e-06
6.03525e-06
4.98836e-06
6.12294e-06
4.3441e-06
6.1524e-06
3.72381e-06
6.14042e-06
3.12914e-06
6.10511e-06
2.55737e-06
6.0639e-06
2.00203e-06
6.03186e-06
1.45384e-06
6.02066e-06
9.01906e-07
6.03722e-06
3.34855e-07
6.08339e-06
-2.57787e-07
6.15564e-06
-8.84477e-07
6.24504e-06
-1.55046e-06
6.33849e-06
-2.25691e-06
6.41973e-06
-3.00036e-06
6.47065e-06
-3.77269e-06
6.47321e-06
-4.56164e-06
6.41063e-06
-5.3516e-06
6.26946e-06
-6.12488e-06
6.04116e-06
-6.86319e-06
5.72288e-06
-7.54924e-06
5.3176e-06
-8.16799e-06
4.83356e-06
-8.70768e-06
4.28329e-06
-9.16043e-06
3.68262e-06
-9.52261e-06
3.04945e-06
-9.79482e-06
2.40257e-06
-9.98154e-06
1.76062e-06
-1.00908e-05
1.1414e-06
-1.01337e-05
5.61059e-07
-1.01237e-05
3.29831e-08
-1.00763e-05
-4.33526e-07
-1.00076e-05
-8.35143e-07
-9.93326e-06
-1.17718e-06
-9.86592e-06
-1.47603e-06
-9.81294e-06
-1.76163e-06
-9.77311e-06
-2.07905e-06
-9.73329e-06
-2.48756e-06
-9.66576e-06
-3.05584e-06
-9.52689e-06
-3.85243e-06
-9.25838e-06
-4.93085e-06
-8.79212e-06
-6.3078e-06
-8.06015e-06
-7.93464e-06
-7.01108e-06
-9.66411e-06
-5.63393e-06
-1.12163e-05
-3.99009e-06
-1.21509e-05
-2.25207e-06
-1.18555e-05
-7.46785e-07
-9.56321e-06
-4.41059e-06
6.77463e-07
-5.06619e-06
1.96793e-06
-1.07232e-05
3.36435e-06
-1.29931e-05
4.57108e-06
-1.29833e-05
5.45732e-06
-1.16431e-05
6.00144e-06
-9.70412e-06
6.24824e-06
-7.67458e-06
6.27524e-06
-5.86099e-06
6.16619e-06
-4.41456e-06
5.99751e-06
-3.36974e-06
5.83115e-06
-2.68822e-06
5.71064e-06
-2.29389e-06
5.66078e-06
-2.09512e-06
5.69027e-06
-2.00136e-06
5.79511e-06
-1.93522e-06
5.96204e-06
-1.8381e-06
6.17198e-06
-1.67031e-06
6.40317e-06
-1.40901e-06
6.63354e-06
-1.04521e-06
6.84212e-06
-5.80872e-07
7.01007e-06
-2.59436e-08
7.1212e-06
6.04145e-07
7.16242e-06
1.29033e-06
7.12429e-06
2.01113e-06
7.00154e-06
2.74336e-06
6.79359e-06
3.46298e-06
6.50468e-06
4.14615e-06
6.14382e-06
4.77048e-06
5.72422e-06
5.31659e-06
5.26251e-06
5.76928e-06
4.77755e-06
6.11914e-06
4.28881e-06
6.36395e-06
3.81445e-06
6.50919e-06
3.36958e-06
6.56737e-06
2.96479e-06
6.55676e-06
2.60517e-06
6.49966e-06
2.28993e-06
6.42001e-06
2.0128e-06
6.34073e-06
1.76289e-06
6.28152e-06
1.52592e-06
6.25742e-06
1.28567e-06
6.27731e-06
1.02549e-06
6.34346e-06
7.29761e-07
6.4513e-06
3.85371e-07
6.58941e-06
-1.7075e-08
6.74099e-06
-4.81968e-07
6.88475e-06
-1.00802e-06
6.9969e-06
-1.58783e-06
7.05327e-06
-2.20851e-06
7.0316e-06
-2.85284e-06
6.91411e-06
-3.50082e-06
6.68948e-06
-4.13154e-06
6.35396e-06
-4.72514e-06
5.91155e-06
-5.26438e-06
5.37315e-06
-5.73586e-06
4.75508e-06
-6.13059e-06
4.07762e-06
-6.44433e-06
3.36342e-06
-6.67739e-06
2.63581e-06
-6.83421e-06
1.91753e-06
-6.92281e-06
1.22997e-06
-6.95427e-06
5.92391e-07
-6.94233e-06
2.08254e-08
-6.90293e-06
-4.73215e-07
-6.85349e-06
-8.84923e-07
-6.8118e-06
-1.21926e-06
-6.7941e-06
-1.49411e-06
-6.81251e-06
-1.74357e-06
-6.87153e-06
-2.0203e-06
-6.96423e-06
-2.39501e-06
-7.06875e-06
-2.9513e-06
-7.14589e-06
-3.77511e-06
-7.13895e-06
-4.93744e-06
-6.97712e-06
-6.46917e-06
-6.5836e-06
-8.32773e-06
-5.89071e-06
-1.03567e-05
-4.86354e-06
-1.22434e-05
-3.53375e-06
-1.34807e-05
-2.04303e-06
-1.33462e-05
-6.94143e-07
-1.09112e-05
-5.10436e-06
6.15729e-07
-5.682e-06
1.71718e-06
-1.1825e-05
2.81891e-06
-1.40948e-05
3.66365e-06
-1.38286e-05
4.16329e-06
-1.21426e-05
4.3327e-06
-9.87345e-06
4.24285e-06
-7.58508e-06
3.98654e-06
-5.6041e-06
3.65251e-06
-4.07986e-06
3.31511e-06
-3.03211e-06
3.03025e-06
-2.40309e-06
2.83317e-06
-2.09623e-06
2.73946e-06
-2.00082e-06
2.7489e-06
-2.01054e-06
2.84978e-06
-2.03608e-06
3.02262e-06
-2.01094e-06
3.24386e-06
-1.89144e-06
3.48897e-06
-1.65393e-06
3.73467e-06
-1.29071e-06
3.95993e-06
-8.05952e-07
4.14652e-06
-2.12402e-07
4.27928e-06
4.71505e-07
4.34626e-06
1.22346e-06
4.33917e-06
2.01832e-06
4.25398e-06
2.82861e-06
4.09166e-06
3.62533e-06
3.85845e-06
4.37935e-06
3.56587e-06
5.06304e-06
3.23013e-06
5.65229e-06
2.87121e-06
6.12813e-06
2.51144e-06
6.47879e-06
2.17359e-06
6.70167e-06
1.87849e-06
6.80412e-06
1.64286e-06
6.80284e-06
1.47735e-06
6.72213e-06
1.38538e-06
6.59153e-06
1.36286e-06
6.44246e-06
1.39873e-06
6.30479e-06
1.47623e-06
6.20395e-06
1.57451e-06
6.15906e-06
1.67041e-06
6.1813e-06
1.74031e-06
6.27343e-06
1.76196e-06
6.42948e-06
1.71605e-06
6.63512e-06
1.5878e-06
6.86902e-06
1.36843e-06
7.10388e-06
1.05635e-06
7.30872e-06
6.57856e-07
7.4515e-06
1.86695e-07
7.50251e-06
-3.37507e-07
7.43808e-06
-8.91398e-07
7.24316e-06
-1.45023e-06
6.91261e-06
-1.99021e-06
6.4514e-06
-2.49058e-06
5.87345e-06
-2.93495e-06
5.19943e-06
-3.31204e-06
4.45474e-06
-3.61578e-06
3.66723e-06
-3.84499e-06
2.86512e-06
-4.00275e-06
2.07537e-06
-4.09564e-06
1.32291e-06
-4.13328e-06
6.29995e-07
-4.12801e-06
1.54655e-08
-4.09497e-06
-5.06393e-07
-4.05175e-06
-9.28282e-07
-4.01787e-06
-1.25324e-06
-4.01335e-06
-1.49865e-06
-4.05624e-06
-1.70059e-06
-4.15889e-06
-1.91742e-06
-4.32355e-06
-2.22995e-06
-4.53794e-06
-2.73634e-06
-4.77175e-06
-3.5406e-06
-4.97492e-06
-4.73351e-06
-5.079e-06
-6.36444e-06
-5.0027e-06
-8.4036e-06
-4.6642e-06
-1.06951e-05
-4.00338e-06
-1.29043e-05
-3.01669e-06
-1.44677e-05
-1.80531e-06
-1.45574e-05
-6.36106e-07
-1.20797e-05
-5.74108e-06
5.45247e-07
-6.22738e-06
1.43086e-06
-1.27109e-05
2.20484e-06
-1.48683e-05
2.66435e-06
-1.42883e-05
2.77614e-06
-1.22535e-05
2.59668e-06
-9.69337e-06
2.22184e-06
-7.21026e-06
1.75462e-06
-5.13579e-06
1.2814e-06
-3.60552e-06
8.67043e-07
-2.6174e-06
5.54902e-07
-2.09066e-06
3.66595e-07
-1.90718e-06
3.04542e-07
-1.93791e-06
3.56714e-07
-2.06222e-06
5.01558e-07
-2.1809e-06
7.12204e-07
-2.22184e-06
9.60356e-07
-2.13996e-06
1.21945e-06
-1.91339e-06
1.46636e-06
-1.53795e-06
1.68189e-06
-1.02175e-06
1.85046e-06
-3.81199e-07
1.95994e-06
3.61849e-07
2.00143e-06
1.18184e-06
1.96953e-06
2.05011e-06
1.86314e-06
2.9349e-06
1.68633e-06
3.80205e-06
1.44892e-06
4.61667e-06
1.16643e-06
5.34547e-06
8.59501e-07
5.95919e-06
5.53e-07
6.43464e-06
2.74273e-07
6.75754e-06
5.06469e-08
6.92528e-06
-9.3369e-08
6.94812e-06
-1.38939e-07
6.84836e-06
-7.5393e-08
6.65849e-06
9.84004e-08
6.41763e-06
3.73938e-07
6.1668e-06
7.33928e-07
5.94467e-06
1.15394e-06
5.78377e-06
1.60473e-06
5.70806e-06
2.05441e-06
5.73136e-06
2.47057e-06
5.85696e-06
2.82261e-06
6.07708e-06
3.08338e-06
6.37391e-06
3.23114e-06
6.72075e-06
3.25138e-06
7.08307e-06
3.13859e-06
7.4209e-06
2.89752e-06
7.69194e-06
2.543e-06
7.85638e-06
2.09797e-06
7.88247e-06
1.59046e-06
7.75005e-06
1.05064e-06
7.45185e-06
5.07828e-07
6.99372e-06
-1.20657e-08
6.39295e-06
-4.88125e-07
5.6752e-06
-9.05202e-07
4.87164e-06
-1.254e-06
4.01597e-06
-1.53043e-06
3.14158e-06
-1.73456e-06
2.27961e-06
-1.86968e-06
1.45818e-06
-1.94189e-06
7.02311e-07
-1.9601e-06
3.37251e-08
-1.93654e-06
-5.29923e-07
-1.88735e-06
-9.77445e-07
-1.83266e-06
-1.30783e-06
-1.79607e-06
-1.53501e-06
-1.80251e-06
-1.69377e-06
-1.87426e-06
-1.84512e-06
-2.02589e-06
-2.07763e-06
-2.2589e-06
-2.50252e-06
-2.55719e-06
-3.24144e-06
-2.88396e-06
-4.40596e-06
-3.18033e-06
-6.06754e-06
-3.36759e-06
-8.21621e-06
-3.35516e-06
-1.07077e-05
-3.05904e-06
-1.32008e-05
-2.43579e-06
-1.50912e-05
-1.53486e-06
-1.54579e-05
-5.70635e-07
-1.30439e-05
-6.31225e-06
4.57886e-07
-6.6852e-06
1.08642e-06
-1.33392e-05
1.48978e-06
-1.52704e-05
1.54288e-06
-1.43413e-05
1.28172e-06
-1.1991e-05
8.07501e-07
-9.21827e-06
2.35486e-07
-6.63834e-06
-3.31283e-07
-4.56805e-06
-8.19922e-07
-3.11577e-06
-1.1853e-06
-2.2519e-06
-1.40479e-06
-1.87131e-06
-1.47633e-06
-1.83515e-06
-1.41463e-06
-1.99859e-06
-1.2462e-06
-2.22961e-06
-1.00413e-06
-2.42222e-06
-7.23477e-07
-2.50201e-06
-4.37076e-07
-2.42614e-06
-1.72218e-07
-2.1782e-06
5.04046e-08
-1.76058e-06
2.15985e-07
-1.18734e-06
3.14408e-07
-4.79608e-07
3.39256e-07
3.37054e-07
2.87164e-07
1.23401e-06
1.57806e-07
2.17953e-06
-4.51281e-08
3.13786e-06
-3.12544e-07
4.06944e-06
-6.29202e-07
4.93325e-06
-9.7393e-07
5.69008e-06
-1.32011e-06
6.30523e-06
-1.63647e-06
6.75085e-06
-1.88901e-06
7.00991e-06
-2.04433e-06
7.0804e-06
-2.07324e-06
6.97678e-06
-1.95427e-06
6.72907e-06
-1.67679e-06
6.38067e-06
-1.24283e-06
5.98329e-06
-6.66804e-07
5.5904e-06
2.58937e-08
5.25161e-06
8.01175e-07
5.00815e-06
1.61936e-06
4.88954e-06
2.43788e-06
4.91256e-06
3.21377e-06
5.08083e-06
3.9063e-06
5.38432e-06
4.47885e-06
5.80114e-06
4.90086e-06
6.29851e-06
5.15031e-06
6.83338e-06
5.2162e-06
7.35475e-06
5.10094e-06
7.80691e-06
4.82087e-06
8.13614e-06
4.40319e-06
8.29981e-06
3.8821e-06
8.27077e-06
3.29503e-06
8.03855e-06
2.67863e-06
7.60976e-06
2.06565e-06
7.0056e-06
1.48323e-06
6.25736e-06
9.52089e-07
5.40259e-06
4.8645e-07
4.4815e-06
9.49539e-08
3.53301e-06
-2.17542e-07
2.59209e-06
-4.48665e-07
1.6893e-06
-5.98286e-07
8.5189e-07
-6.69081e-07
1.04387e-07
-6.67629e-07
-5.31579e-07
-6.05946e-07
-1.03935e-06
-5.02837e-07
-1.4111e-06
-3.84594e-07
-1.65329e-06
-2.83527e-07
-1.7947e-06
-2.33752e-07
-1.89458e-06
-2.65201e-07
-2.04574e-06
-3.97514e-07
-2.3697e-06
-6.34759e-07
-3.0037e-06
-9.61102e-07
-4.07922e-06
-1.33733e-06
-5.69118e-06
-1.69836e-06
-7.85534e-06
-1.95482e-06
-1.04514e-05
-2.00456e-06
-1.31509e-05
-1.76185e-06
-1.53334e-05
-1.21061e-06
-1.60083e-05
-4.88893e-07
-1.37658e-05
-6.80036e-06
3.38427e-07
-7.0232e-06
6.42913e-07
-1.36431e-05
6.15273e-07
-1.52412e-05
2.42407e-07
-1.39686e-05
-3.55018e-07
-1.13922e-05
-1.03325e-06
-8.53952e-06
-1.66977e-06
-6.00234e-06
-2.17893e-06
-4.05851e-06
-2.51747e-06
-2.77658e-06
-2.67296e-06
-2.09671e-06
-2.65282e-06
-1.89224e-06
-2.48024e-06
-2.00806e-06
-2.1907e-06
-2.28777e-06
-1.82708e-06
-2.59251e-06
-1.43492e-06
-2.81353e-06
-1.05771e-06
-2.87836e-06
-7.31956e-07
-2.75118e-06
-4.83476e-07
-2.42618e-06
-3.27266e-07
-1.91644e-06
-2.7006e-07
-1.24427e-06
-3.1293e-07
-4.36495e-07
-4.53107e-07
4.77484e-07
-6.85293e-07
1.46649e-06
-1.00219e-06
2.49672e-06
-1.39319e-06
3.5291e-06
-1.84198e-06
4.51843e-06
-2.32583e-06
5.41725e-06
-2.81614e-06
6.18045e-06
-3.27896e-06
6.76805e-06
-3.67527e-06
7.14712e-06
-3.96282e-06
7.29739e-06
-4.10067e-06
7.21815e-06
-4.05405e-06
6.93002e-06
-3.79833e-06
6.4732e-06
-3.32323e-06
5.90539e-06
-2.63521e-06
5.29505e-06
-1.75652e-06
4.71151e-06
-7.22923e-07
4.21785e-06
4.19659e-07
3.86545e-06
1.6191e-06
3.69003e-06
2.82027e-06
3.71138e-06
3.96796e-06
3.93322e-06
5.00996e-06
4.34249e-06
5.89858e-06
4.91275e-06
6.59249e-06
5.60487e-06
7.05985e-06
6.36632e-06
7.28185e-06
7.13306e-06
7.25735e-06
7.83172e-06
7.00455e-06
8.38923e-06
6.55611e-06
8.74854e-06
5.9539e-06
8.87328e-06
5.24425e-06
8.74844e-06
4.47293e-06
8.38134e-06
3.68115e-06
7.79764e-06
2.90393e-06
7.03478e-06
2.16945e-06
6.13728e-06
1.49873e-06
5.15244e-06
9.06858e-07
4.12508e-06
4.05825e-07
3.09331e-06
6.51604e-09
2.08878e-06
-2.81355e-07
1.13988e-06
-4.50554e-07
2.73602e-07
-4.98401e-07
-4.83813e-07
-4.29103e-07
-1.10879e-06
-2.5685e-07
-1.58347e-06
-8.69898e-09
-1.90145e-06
2.75696e-07
-2.07899e-06
5.48887e-07
-2.16755e-06
7.62965e-07
-2.25956e-06
8.76404e-07
-2.48294e-06
8.59314e-07
-2.98652e-06
6.97735e-07
-3.9177e-06
3.98823e-07
-5.39251e-06
-1.89189e-09
-7.45496e-06
-4.33118e-07
-1.00202e-05
-7.87595e-07
-1.27957e-05
-9.39718e-07
-1.51803e-05
-7.92685e-07
-1.61546e-05
-3.75427e-07
-1.41826e-05
-7.17492e-06
1.60531e-07
-7.18302e-06
3.44385e-08
-1.35167e-05
-5.07214e-07
-1.4698e-05
-1.3186e-06
-1.3158e-05
-2.18136e-06
-1.05286e-05
-2.922e-06
-7.79924e-06
-3.43399e-06
-5.491e-06
-3.67551e-06
-3.81659e-06
-3.65503e-06
-2.79659e-06
-3.40722e-06
-2.34498e-06
-2.97847e-06
-2.32209e-06
-2.42212e-06
-2.56554e-06
-1.79624e-06
-2.91453e-06
-1.16063e-06
-3.2288e-06
-5.73197e-07
-3.40141e-06
-8.54347e-08
-3.36628e-06
2.64057e-07
-3.10067e-06
4.54356e-07
-2.61651e-06
4.80846e-07
-1.94298e-06
3.49657e-07
-1.11309e-06
7.31845e-08
-1.59958e-07
-3.32433e-07
8.83256e-07
-8.49434e-07
1.98376e-06
-1.46006e-06
3.10773e-06
-2.14454e-06
4.21404e-06
-2.87704e-06
5.25142e-06
-3.62472e-06
6.16542e-06
-4.34997e-06
6.90617e-06
-5.01075e-06
7.42926e-06
-5.55942e-06
7.69618e-06
-5.94405e-06
7.68242e-06
-6.11504e-06
7.3895e-06
-6.03162e-06
6.84694e-06
-5.66577e-06
6.10765e-06
-5.00816e-06
5.24805e-06
-4.07156e-06
4.35868e-06
-2.88839e-06
3.52852e-06
-1.50718e-06
2.83677e-06
1.20289e-08
2.34636e-06
1.60306e-06
2.09905e-06
3.19683e-06
2.11762e-06
4.72461e-06
2.40542e-06
6.12199e-06
2.94509e-06
7.32943e-06
3.7053e-06
8.29291e-06
4.64137e-06
8.96814e-06
5.69108e-06
9.32509e-06
6.77615e-06
9.3568e-06
7.80011e-06
9.0841e-06
8.66208e-06
8.54618e-06
9.2867e-06
7.79353e-06
9.62626e-06
6.88282e-06
9.65956e-06
5.87031e-06
9.39435e-06
4.80683e-06
8.86169e-06
3.73681e-06
8.1054e-06
2.69789e-06
7.17682e-06
1.71993e-06
6.13106e-06
8.2632e-07
5.01934e-06
3.85285e-08
3.88173e-06
-6.20552e-07
2.74848e-06
-1.12761e-06
1.64754e-06
-1.46108e-06
6.07623e-07
-1.60463e-06
-3.39752e-07
-1.54976e-06
-1.16317e-06
-1.30114e-06
-1.83158e-06
-8.83312e-07
-2.31872e-06
-3.42524e-07
-2.61918e-06
2.59421e-07
-2.76892e-06
8.55083e-07
-2.85479e-06
1.3789e-06
-3.00657e-06
1.77108e-06
-3.37879e-06
1.97984e-06
-4.12677e-06
1.96601e-06
-5.37912e-06
1.71445e-06
-7.20381e-06
1.25263e-06
-9.55836e-06
6.68717e-07
-1.22111e-05
1.15717e-07
-1.46268e-05
-2.17086e-07
-1.58221e-05
-2.05689e-07
-1.41934e-05
-7.38167e-06
-1.21149e-07
-7.06122e-06
-8.42258e-07
-1.2796e-05
-2.00459e-06
-1.35346e-05
-3.24536e-06
-1.19183e-05
-4.24746e-06
-9.52493e-06
-4.83967e-06
-7.20773e-06
-4.97105e-06
-5.36018e-06
-4.6796e-06
-4.10679e-06
-4.05161e-06
-3.42324e-06
-3.18409e-06
-3.21208e-06
-2.1683e-06
-3.33811e-06
-1.08888e-06
-3.6453e-06
-2.57915e-08
-3.97797e-06
9.45922e-07
-4.20098e-06
1.75744e-06
-4.21335e-06
2.35014e-06
-3.9592e-06
2.68531e-06
-3.43585e-06
2.75184e-06
-2.68299e-06
2.56198e-06
-1.75312e-06
2.14051e-06
-6.91606e-07
1.5182e-06
4.62406e-07
7.29322e-07
1.67227e-06
-1.91397e-07
2.90469e-06
-1.21277e-06
4.12935e-06
-2.30426e-06
5.30578e-06
-3.42771e-06
6.37511e-06
-4.5369e-06
7.27484e-06
-5.58377e-06
7.95318e-06
-6.51875e-06
8.36432e-06
-7.28598e-06
8.46343e-06
-7.82273e-06
8.21915e-06
-8.07028e-06
7.63696e-06
-7.98295e-06
6.75947e-06
-7.52934e-06
5.65387e-06
-6.70197e-06
4.42045e-06
-5.52287e-06
3.17926e-06
-4.03708e-06
2.04236e-06
-2.30817e-06
1.10738e-06
-4.12345e-07
4.49961e-07
1.56977e-06
1.16251e-07
3.55472e-06
1.31857e-07
5.45977e-06
4.99431e-07
7.20917e-06
1.19468e-06
8.73215e-06
2.18127e-06
9.96072e-06
3.41173e-06
1.08356e-05
4.81513e-06
1.13103e-05
6.30047e-06
1.13681e-05
7.74138e-06
1.10344e-05
8.995e-06
1.03556e-05
9.9649e-06
9.39019e-06
1.05912e-05
8.20605e-06
1.08434e-05
6.87068e-06
1.07295e-05
5.44441e-06
1.02879e-05
3.98202e-06
9.56777e-06
2.533e-06
8.62589e-06
1.13826e-06
7.5259e-06
-1.6916e-07
6.32686e-06
-1.35604e-06
5.0687e-06
-2.3834e-06
3.77595e-06
-3.20893e-06
2.4732e-06
-3.79297e-06
1.1918e-06
-4.10041e-06
-3.21158e-08
-4.10413e-06
-1.15917e-06
-3.79232e-06
-2.143e-06
-3.18188e-06
-2.9287e-06
-2.32438e-06
-3.47617e-06
-1.29672e-06
-3.79616e-06
-1.8578e-07
-3.9655e-06
9.19734e-07
-4.11216e-06
1.92972e-06
-4.38909e-06
2.74962e-06
-4.94704e-06
3.28028e-06
-5.91004e-06
3.43078e-06
-7.35433e-06
3.14935e-06
-9.2765e-06
2.46509e-06
-1.15262e-05
1.52716e-06
-1.3689e-05
6.1595e-07
-1.49112e-05
6.32533e-08
-1.36402e-05
-7.3192e-06
-5.85484e-07
-6.47541e-06
-2.14614e-06
-1.12363e-05
-4.0493e-06
-1.16302e-05
-5.65982e-06
-1.03091e-05
-6.59179e-06
-8.59017e-06
-6.73713e-06
-7.06232e-06
-6.1608e-06
-5.93727e-06
-5.02454e-06
-5.24222e-06
-3.51852e-06
-4.92764e-06
-1.81281e-06
-4.91637e-06
-4.32424e-08
-5.10642e-06
1.67804e-06
-5.36524e-06
3.25403e-06
-5.55261e-06
4.59921e-06
-5.54518e-06
5.63734e-06
-5.25069e-06
6.30349e-06
-4.62464e-06
6.56048e-06
-3.69222e-06
6.41352e-06
-2.53544e-06
5.90039e-06
-1.23949e-06
5.07073e-06
1.38449e-07
3.97798e-06
1.5554e-06
2.67937e-06
2.97102e-06
1.23193e-06
4.35222e-06
-3.16876e-07
5.67813e-06
-1.92546e-06
6.91417e-06
-3.54018e-06
7.98952e-06
-5.09665e-06
8.83092e-06
-6.53507e-06
9.39114e-06
-7.80132e-06
9.63001e-06
-8.83423e-06
9.49569e-06
-9.55934e-06
8.9436e-06
-9.90956e-06
7.98646e-06
-9.83887e-06
6.68797e-06
-9.31255e-06
5.12675e-06
-8.32601e-06
3.43306e-06
-6.91512e-06
1.76746e-06
-5.13992e-06
2.66259e-07
-3.08008e-06
-9.53342e-07
-8.29304e-07
-1.80171e-06
1.51932e-06
-2.23328e-06
3.86954e-06
-2.21928e-06
6.12466e-06
-1.7566e-06
8.20131e-06
-8.82884e-07
1.00212e-05
3.60537e-07
1.15019e-05
1.93019e-06
1.25684e-05
3.74783e-06
1.31496e-05
5.71853e-06
1.32119e-05
7.67855e-06
1.27904e-05
9.41586e-06
1.19383e-05
1.08165e-05
1.07183e-05
1.18107e-05
9.20908e-06
1.23521e-05
7.48881e-06
1.24493e-05
5.62484e-06
1.21514e-05
3.68222e-06
1.15098e-05
1.72535e-06
1.05822e-05
-1.9109e-07
9.44189e-06
-2.02386e-06
8.15912e-06
-3.72631e-06
6.77052e-06
-5.23809e-06
5.28707e-06
-6.49283e-06