/*--------------------------------*- C++ -*----------------------------------*\
| =========                 |                                                 |
| \\      /  F ield         | OpenFOAM: The Open Source CFD Toolbox           |
|  \\    /   O peration     | Version:  2412                                  |
|   \\  /    A nd           | Website:  www.openfoam.com                      |
|    \\/     M anipulation  |                                                 |
\*---------------------------------------------------------------------------*/
FoamFile
{
    version     2.0;
    format      ascii;
    arch        "LSB;label=32;scalar=64";
    class       volScalarField;
    location    "2.6";
    object      p_rgh;
}
// * * * * * * * * * * * * * * * * * * * * * * * * * * * * * * * * * * * * * //

dimensions      [1 -1 -2 0 0 0 0];

internalField   nonuniform List<scalar> 
6400
(
12495
12494
12493.5
12494
12495.7
12498.7
12502.9
12508.4
12515.2
12523.2
12532.6
12543.3
12555.3
12568.7
12583.5
12599.8
12617.5
12636.7
12657.4
12679.6
12703.3
12728.5
12755.1
12783
12812.1
12842.3
12873.1
12904.5
12935.9
12967
12997.4
13026.5
13053.9
13079.1
13101.6
13121
13136.8
13148.8
13156.7
13160.4
13159.8
13154.9
13145.8
13132.8
13115.9
13095.7
13072.5
13046.7
13018.8
12989.3
12958.8
12927.6
12896.2
12865
12834.3
12804.4
12775.5
12747.8
12721.3
12696.3
12672.7
12650.7
12630.3
12611.5
12594.2
12578.5
12564.1
12551
12539.3
12528.9
12519.7
12511.7
12505
12499.5
12495.2
12492.1
12490.3
12489.7
12490.1
12491
12496
12495
12494.6
12495.3
12497.2
12500.2
12504.5
12510.1
12516.9
12525
12534.5
12545.2
12557.3
12570.8
12585.7
12602
12619.7
12639
12659.7
12681.9
12705.5
12730.6
12757.1
12784.8
12813.7
12843.5
12873.9
12904.8
12935.6
12966.1
12995.7
13024
13050.7
13075
13096.8
13115.4
13130.7
13142.3
13149.9
13153.5
13152.9
13148.3
13139.6
13127
13110.8
13091.3
13068.8
13043.8
13016.7
12988
12958.2
12927.6
12896.7
12866
12835.7
12806.1
12777.4
12749.8
12723.5
12698.5
12675
12653
12632.6
12613.8
12596.4
12580.6
12566.1
12553
12541.2
12530.7
12521.4
12513.4
12506.6
12501
12496.7
12493.5
12491.6
12490.8
12491.1
12492
12496.7
12495.6
12495.2
12496
12497.9
12501.1
12505.4
12511
12517.9
12526
12535.5
12546.3
12558.4
12571.9
12586.9
12603.2
12621
12640.3
12661
12683.2
12706.9
12732
12758.4
12786
12814.8
12844.4
12874.6
12905.1
12935.6
12965.6
12994.8
13022.6
13048.7
13072.5
13093.7
13111.9
13126.8
13138
13145.5
13149
13148.5
13144
13135.6
13123.5
13107.8
13088.8
13066.8
13042.4
13015.8
12987.5
12958.1
12927.9
12897.3
12866.8
12836.6
12807.1
12778.5
12751
12724.8
12699.9
12676.4
12654.4
12634
12615.1
12597.7
12581.7
12567.2
12554
12542.2
12531.6
12522.3
12514.3
12507.4
12501.8
12497.4
12494.2
12492.2
12491.3
12491.6
12492.6
12496.4
12495.2
12494.7
12495.5
12497.5
12500.6
12505
12510.6
12517.4
12525.6
12535
12545.8
12557.9
12571.4
12586.3
12602.7
12620.5
12639.8
12660.6
12682.8
12706.6
12731.8
12758.3
12786.1
12814.9
12844.6
12874.9
12905.5
12936.1
12966.2
12995.3
13023.2
13049.2
13073
13094.1
13112.2
13127
13138.1
13145.5
13149.1
13148.6
13144.3
13136
13124
13108.4
13089.5
13067.7
13043.2
13016.6
12988.3
12958.8
12928.4
12897.7
12867
12836.7
12807.1
12778.4
12750.8
12724.6
12699.7
12676.2
12654.1
12633.6
12614.6
12597.2
12581.2
12566.6
12553.4
12541.6
12531.1
12521.8
12513.8
12507
12501.4
12497
12493.8
12491.7
12490.9
12491.2
12492.4
12495.1
12493.8
12493.2
12494
12495.9
12499.1
12503.4
12509
12515.8
12523.8
12533.2
12543.9
12556
12569.4
12584.3
12600.6
12618.4
12637.7
12658.6
12680.9
12704.8
12730.2
12757
12785
12814.2
12844.3
12875
12906
12937
12967.6
12997.2
13025.5
13052
13076.1
13097.6
13115.9
13130.9
13142.2
13149.7
13153.3
13152.9
13148.5
13140.3
13128.2
13112.4
13093.3
13071.1
13046.3
13019.2
12990.3
12960.2
12929.3
12898.1
12866.9
12836.1
12806.1
12777.1
12749.4
12722.9
12697.9
12674.3
12652.2
12631.6
12612.6
12595.1
12579.1
12564.6
12551.5
12539.7
12529.2
12520
12512
12505.3
12499.7
12495.4
12492.2
12490.2
12489.4
12489.8
12491.1
12492.6
12491.2
12490.7
12491.4
12493.3
12496.4
12500.7
12506.2
12512.9
12520.8
12530.1
12540.7
12552.6
12566
12580.7
12597
12614.8
12634.1
12655
12677.5
12701.6
12727.3
12754.4
12782.9
12812.6
12843.3
12874.7
12906.5
12938.4
12969.9
13000.5
13029.7
13057.1
13082.1
13104.2
13123.1
13138.5
13150
13157.7
13161.4
13161
13156.6
13148.2
13135.9
13119.7
13100.1
13077.2
13051.4
13023.4
12993.6
12962.4
12930.6
12898.4
12866.4
12835
12804.4
12774.9
12746.7
12719.9
12694.7
12670.9
12648.7
12628.1
12609
12591.6
12575.6
12561.1
12548.1
12536.4
12526
12516.9
12509.1
12502.5
12497
12492.7
12489.6
12487.7
12486.9
12487.4
12488.7
12489
12487.6
12487.1
12487.8
12489.6
12492.7
12496.8
12502.2
12508.8
12516.6
12525.7
12536.1
12547.9
12561.1
12575.7
12591.8
12609.5
12628.9
12649.8
12672.5
12696.8
12722.8
12750.4
12779.5
12809.9
12841.5
12874
12907
12940.2
12973.1
13005.2
13035.9
13064.7
13091
13114.2
13133.9
13149.9
13161.8
13169.7
13173.4
13173.1
13168.6
13160
13147.2
13130.5
13110
13086
13059
13029.5
12998.2
12965.5
12932.2
12898.7
12865.6
12833.1
12801.6
12771.4
12742.6
12715.4
12689.8
12665.9
12643.6
12622.9
12603.9
12586.5
12570.6
12556.3
12543.4
12531.8
12521.6
12512.7
12505
12498.5
12493.2
12489
12486
12484.1
12483.4
12483.9
12485.2
12484.3
12483
12482.4
12483.1
12484.9
12487.8
12491.9
12497.1
12503.5
12511.1
12520
12530.2
12541.7
12554.7
12569.1
12585.1
12602.7
12622
12643
12665.8
12690.4
12716.8
12744.9
12774.8
12806.1
12838.9
12872.7
12907.3
12942.3
12977.2
13011.4
13044.2
13075
13103
13127.7
13148.5
13165.2
13177.6
13185.7
13189.6
13189.2
13184.6
13175.8
13162.6
13145
13123.4
13097.9
13069
13037.5
13004.1
12969.4
12934.1
12898.8
12864
12830.2
12797.6
12766.4
12736.9
12709.2
12683.3
12659.2
12636.8
12616.1
12597.2
12579.8
12564.1
12550
12537.3
12525.9
12516
12507.2
12499.8
12493.5
12488.3
12484.3
12481.4
12479.5
12478.8
12479.4
12480.6
12478.5
12477.3
12476.7
12477.4
12479.1
12481.9
12485.9
12490.9
12497.1
12504.5
12513.1
12523
12534.2
12546.9
12561.1
12576.8
12594.2
12613.4
12634.4
12657.3
12682.2
12709
12737.7
12768.4
12800.9
12835.1
12870.6
12907.3
12944.7
12982.2
13019.1
13054.7
13088.1
13118.4
13145
13167.2
13184.7
13197.6
13206
13209.9
13209.6
13205
13195.9
13182.2
13163.7
13140.5
13113
13081.8
13047.6
13011.3
12973.9
12936
12898.4
12861.6
12826.1
12792.1
12759.9
12729.6
12701.3
12675
12650.7
12628.2
12607.6
12588.8
12571.6
12556.1
12542.2
12529.8
12518.8
12509.1
12500.6
12493.4
12487.3
12482.4
12478.5
12475.7
12474
12473.3
12473.8
12475
12471.7
12470.5
12470
12470.6
12472.3
12475
12478.8
12483.6
12489.5
12496.6
12504.9
12514.5
12525.4
12537.7
12551.5
12566.9
12584.1
12603
12624
12646.9
12671.9
12699.2
12728.6
12760.2
12794
12829.8
12867.5
12906.7
12947
12987.8
13028.2
13067.4
13104.1
13137.5
13166.4
13190.3
13208.8
13222.2
13230.7
13234.7
13234.5
13230
13220.8
13206.6
13186.9
13161.9
13131.8
13097.4
13059.8
13019.9
12979
12937.9
12897.3
12858.1
12820.5
12784.9
12751.5
12720.2
12691.3
12664.7
12640.2
12617.7
12597.2
12578.6
12561.8
12546.6
12533.1
12521
12510.3
12501
12492.9
12485.9
12480.1
12475.4
12471.7
12469.1
12467.4
12466.8
12467.3
12468.5
12464
12462.9
12462.4
12463
12464.5
12467.1
12470.7
12475.2
12480.9
12487.6
12495.5
12504.7
12515.1
12527
12540.3
12555.4
12572.1
12590.8
12611.5
12634.4
12659.5
12687.1
12717.1
12749.8
12785
12822.7
12862.9
12905.1
12949
12993.9
13038.7
13082.4
13123.5
13160.7
13192.6
13218.5
13238
13251.6
13260
13264
13263.9
13259.7
13250.8
13236.3
13215.5
13188.2
13154.8
13116.3
13074.1
13029.7
12984.3
12939.2
12895.1
12852.9
12813
12775.6
12740.7
12708.6
12679.1
12652.1
12627.6
12605.2
12585
12566.7
12550.3
12535.6
12522.5
12510.9
12500.7
12491.7
12484
12477.4
12471.9
12467.5
12464
12461.5
12459.9
12459.4
12459.8
12460.9
12455.3
12454.2
12453.8
12454.3
12455.8
12458.2
12461.6
12465.9
12471.2
12477.5
12485
12493.6
12503.5
12514.9
12527.7
12542.1
12558.4
12576.6
12597
12619.6
12644.7
12672.5
12703.1
12736.7
12773.4
12813.3
12856.2
12902
12950.2
13000
13050.3
13099.8
13146.6
13188.8
13224.6
13252.8
13273.1
13286.3
13294
13297.5
13297.7
13294.3
13286.3
13272.1
13250.4
13220.4
13182.8
13138.9
13090.7
13040.3
12989.4
12939.3
12891.1
12845.5
12803
12763.6
12727.4
12694.3
12664.3
12637.2
12612.7
12590.7
12570.8
12553
12537.2
12523
12510.5
12499.5
12489.8
12481.4
12474.1
12467.9
12462.8
12458.6
12455.3
12453
12451.6
12451
12451.4
12452.5
12445.8
12444.8
12444.4
12444.9
12446.2
12448.5
12451.6
12455.5
12460.5
12466.4
12473.3
12481.4
12490.7
12501.3
12513.5
12527.2
12542.8
12560.4
12580.2
12602.4
12627.3
12655.1
12686.1
12720.6
12758.8
12800.9
12846.9
12896.6
12949.8
13005.6
13062.8
13119.8
13174.1
13223.1
13263.8
13294.5
13314.8
13326.6
13332.3
13334.7
13335.2
13333.7
13327.9
13315.3
13293
13260
13216.7
13165.5
13109.5
13051.5
12993.7
12937.7
12884.6
12835.2
12789.8
12748.4
12710.8
12677
12646.7
12619.6
12595.4
12573.8
12554.6
12537.5
12522.4
12509
12497.2
12486.8
12477.8
12469.9
12463.2
12457.4
12452.7
12448.8
12445.8
12443.7
12442.3
12441.8
12442.2
12443.2
12435.4
12434.5
12434.1
12434.6
12435.8
12437.9
12440.7
12444.3
12448.8
12454.2
12460.6
12468
12476.6
12486.4
12497.7
12510.6
12525.3
12542
12561
12582.5
12606.9
12634.5
12665.7
12700.9
12740.4
12784.7
12833.9
12888
12946.9
13009.9
13075.8
13142.5
13207.1
13265.2
13312.5
13345.7
13364.8
13372.7
13374.3
13374.3
13375.6
13377.3
13376.5
13367.3
13345.7
13309
13258.1
13197.1
13130.6
13062.7
12996.3
12933.3
12874.6
12821.1
12772.6
12729.3
12690.6
12656.3
12625.9
12599.2
12575.6
12554.7
12536.4
12520.2
12505.9
12493.4
12482.5
12472.9
12464.6
12457.4
12451.3
12446.1
12441.7
12438.2
12435.5
12433.5
12432.3
12431.9
12432.2
12433.1
12424.4
12423.5
12423.1
12423.5
12424.6
12426.5
12429
12432.3
12436.3
12441.1
12446.8
12453.5
12461.2
12470.2
12480.5
12492.3
12505.9
12521.5
12539.4
12559.9
12583.4
12610.4
12641.3
12676.8
12717.4
12763.6
12816
12874.8
12940.1
13011.5
13088
13167.5
13245.9
13317
13373.2
13409.3
13425.4
13426.6
13420.9
13416.9
13418.9
13426.7
13433.6
13431.1
13411.3
13370.3
13308.7
13233.7
13153.1
13072.5
12995.7
12924.5
12859.8
12801.8
12750.5
12705.4
12666
12631.6
12601.7
12575.6
12553
12533.2
12516
12501
12487.9
12476.5
12466.6
12457.9
12450.5
12444
12438.5
12433.9
12430
12426.8
12424.4
12422.6
12421.5
12421.2
12421.5
12422.3
12412.8
12411.9
12411.5
12411.8
12412.8
12414.4
12416.6
12419.5
12423
12427.2
12432.2
12438
12444.8
12452.7
12461.8
12472.4
12484.6
12498.8
12515.2
12534.3
12556.5
12582.3
12612.5
12647.7
12688.8
12736.4
12791.6
12854.9
12927.1
13008
13097.4
13193.1
13290.5
13380.4
13449.5
13489.6
13500
13488.9
13470.2
13458.3
13462.3
13479.6
13501.5
13509.7
13494.2
13447.1
13369.9
13274.9
13175.2
13078.8
12989.5
12909.2
12838.1
12776
12722.2
12676
12636.4
12602.5
12573.5
12548.8
12527.5
12509.3
12493.6
12480
12468.3
12458.2
12449.4
12441.9
12435.4
12429.8
12425
12420.9
12417.5
12414.8
12412.6
12411
12410.1
12409.8
12410.2
12411
12400.9
12399.9
12399.3
12399.5
12400.3
12401.8
12403.7
12406.2
12409.2
12412.7
12416.9
12421.8
12427.5
12434.2
12441.9
12451
12461.6
12474.1
12488.7
12505.9
12526.2
12550.4
12579.1
12613.4
12654.2
12702.7
12760.1
12827.8
12907.1
12999
13104.1
13221.8
13347.6
13468.2
13558.4
13599.5
13587.2
13538.9
13483
13451.4
13457.6
13502
13563.2
13607.4
13609.6
13556.8
13453.1
13326.1
13198.7
13081.2
12977
12886.4
12808.8
12742.8
12687.3
12640.6
12601.6
12569
12541.7
12518.8
12499.5
12483.2
12469.3
12457.5
12447.4
12438.8
12431.4
12425
12419.5
12414.8
12410.8
12407.4
12404.6
12402.2
12400.3
12398.9
12398.1
12397.9
12398.5
12399.4
12389.3
12387.3
12386.3
12386.4
12387.3
12388.6
12390.3
12392.4
12394.8
12397.7
12401
12404.9
12409.4
12414.7
12421
12428.4
12437.2
12447.6
12460
12474.9
12493
12514.9
12541.6
12574.3
12614.4
12663.4
12723.1
12795.6
12883.3
12988.8
13115.3
13266.9
13444.3
13626.3
13754.1
13779.8
13692.6
13537.8
13388.6
13307.1
13320.6
13423.7
13593.6
13738.2
13806.9
13757.5
13601.1
13410.3
13235
13086.3
12962
12858.8
12773.4
12703.4
12646.2
12599.7
12562
12531.3
12506.2
12485.8
12468.9
12454.9
12443.3
12433.5
12425.3
12418.3
12412.4
12407.3
12403
12399.3
12396.2
12393.4
12391.1
12389.1
12387.5
12386.2
12385.4
12385.3
12386.3
12388.1
12378.3
12373.1
12371.2
12371.5
12372.5
12373.8
12375.3
12377
12378.7
12380.7
12383
12385.7
12388.9
12392.6
12397
12402.3
12408.6
12416.4
12425.8
12437.5
12452
12470.2
12493.1
12522.2
12559.1
12605.8
12664.7
12738.5
12830.6
12945.4
13090.7
13282.1
13537.6
13828
14020.4
14057.6
13938.5
13741.2
13555.5
13463.2
13473.7
13593.9
13812.1
13992.2
14091.8
14036.1
13781.3
13480.9
13237.7
13054.9
12913.8
12802
12713.1
12642.7
12587.2
12543.7
12509.6
12483
12462
12445.4
12432.2
12421.5
12412.9
12405.7
12399.9
12395
12390.8
12387.4
12384.4
12381.9
12379.7
12377.8
12376.1
12374.6
12373.2
12371.9
12370.9
12370.7
12372.5
12377.4
12362.8
12356.3
12354.9
12355.5
12356.3
12357.2
12358
12358.7
12359.4
12360.2
12361
12362
12363.1
12364.4
12366
12368
12370.5
12373.5
12377.4
12382.3
12388.7
12397.1
12408
12422.6
12441.8
12467.3
12500.7
12544.1
12600
12671.6
12766.4
12905.7
13127.7
13413.7
13616.9
13912.6
14089.7
13502.2
13177.4
12955
13120.1
13515.9
13967.1
14203.3
13826.1
13634.8
13359.1
13068
12867.6
12739.6
12648.9
12579.9
12526.7
12486.1
12455.5
12432.4
12415.2
12402.3
12392.7
12385.3
12379.7
12375.3
12371.9
12369.1
12367
12365.2
12363.7
12362.5
12361.4
12360.6
12359.8
12359.1
12358.4
12357.7
12357
12356.2
12355.3
12354.8
12356.1
12362.3
16.1351
25.9731
31.2456
34.4137
36.5351
38.2853
40.0174
41.9068
44.0509
46.5148
49.353
52.6199
56.3766
60.6959
65.6671
71.403
78.0474
85.7865
94.8637
105.602
118.434
133.944
152.927
176.464
206.031
243.618
291.837
353.954
433.67
534.405
657.747
801.604
964.078
1121.38
1295.29
1667.66
2378.96
3352.48
4138.3
4568.41
4502.05
3994.83
3295.12
2268.33
1642.95
1271.03
1080.28
895.873
731.572
592.386
477.862
387.016
316.449
262.031
219.974
187.184
161.306
140.599
123.793
109.966
98.4477
88.7442
80.4909
73.4148
67.309
62.0148
57.4088
53.3937
49.8916
46.8385
44.1804
41.8685
39.8532
38.0745
36.4417
34.7896
32.7832
29.7816
24.7771
15.4081
-0.114751
-0.120005
-0.120045
-0.120405
-0.121145
-0.122278
-0.123827
-0.125783
-0.128129
-0.130859
-0.133995
-0.137592
-0.141737
-0.146535
-0.15209
-0.158505
-0.165916
-0.174515
-0.184604
-0.19662
-0.211133
-0.228777
-0.250296
-0.276709
-0.309366
-0.348193
-0.389468
-0.423874
-0.443007
-0.381397
-0.132686
0.798633
5.94821
42.3791
192.965
640.445
2543.34
4403.62
5373.99
5568.07
5623.14
5337.72
4012.36
1716.75
460.61
133.397
28.8818
4.44625
0.621735
-0.0734475
-0.259916
-0.33008
-0.323774
-0.294041
-0.261861
-0.231751
-0.206206
-0.185367
-0.168404
-0.154563
-0.143219
-0.133899
-0.126206
-0.119792
-0.114349
-0.109648
-0.105548
-0.101966
-0.0988531
-0.0961619
-0.0938422
-0.0918471
-0.0901438
-0.0887219
-0.08759
-0.0867606
-0.086228
-0.0860114
-0.0860712
-0.0810692
-0.118624
-0.119254
-0.119861
-0.120649
-0.121694
-0.123055
-0.12477
-0.126853
-0.12931
-0.132151
-0.135414
-0.13917
-0.143521
-0.148584
-0.154476
-0.161312
-0.169233
-0.178457
-0.189347
-0.202449
-0.218492
-0.238358
-0.263138
-0.294376
-0.334122
-0.382828
-0.433685
-0.478305
-0.512185
-0.532711
-0.572151
-0.552882
0.229035
4.84996
25.2539
224.078
2996.4
5255.45
5741.35
5757.57
5762.45
5708
5041.64
1942.63
67.523
14.9842
2.60206
-0.235225
-0.659569
-0.495716
-0.403257
-0.392722
-0.371383
-0.335058
-0.293962
-0.254022
-0.221479
-0.196174
-0.17634
-0.160594
-0.147978
-0.137787
-0.129454
-0.122523
-0.116647
-0.111591
-0.107209
-0.103412
-0.100137
-0.0973188
-0.0948942
-0.0928038
-0.0910045
-0.089471
-0.0881911
-0.0871537
-0.0863373
-0.0857049
-0.0852028
-0.0846617
-0.119062
-0.119512
-0.120084
-0.12088
-0.121964
-0.123377
-0.125143
-0.127267
-0.12975
-0.132604
-0.135873
-0.139634
-0.143995
-0.149066
-0.15495
-0.16174
-0.169565
-0.178646
-0.18935
-0.2022
-0.217828
-0.236955
-0.260492
-0.289795
-0.327064
-0.375973
-0.438369
-0.506088
-0.563834
-0.575941
-0.37887
-0.671891
1.46334
33.7198
44.3755
44.0895
525.177
4151.14
6006.36
5825.89
5857.19
5984.31
3229.81
255.096
31.9273
47.239
29.0045
-0.818698
-0.753601
-0.178831
-0.411056
-0.423537
-0.392109
-0.340239
-0.289594
-0.249498
-0.218827
-0.19491
-0.175958
-0.160753
-0.148458
-0.13845
-0.130209
-0.12331
-0.117433
-0.112362
-0.107965
-0.104153
-0.10086
-0.0980162
-0.0955544
-0.0934179
-0.0915674
-0.0899812
-0.0886493
-0.087564
-0.0867126
-0.0860728
-0.0856008
-0.085216
-0.119051
-0.119376
-0.119929
-0.12074
-0.121848
-0.123286
-0.125068
-0.127196
-0.129669
-0.132501
-0.135739
-0.139468
-0.143792
-0.148813
-0.154608
-0.16124
-0.168809
-0.177515
-0.187699
-0.199818
-0.214379
-0.231932
-0.253295
-0.279808
-0.313605
-0.360153
-0.426165
-0.504899
-0.546837
-0.613958
0.167805
9.47422
13.2408
9.72514
2.28351
4.91019
80.4122
1569.73
5948.95
5915.36
5916.52
5845.43
1108.2
45.3251
-0.00564564
2.0734
13.3291
15.0011
13.976
1.4691
-0.441715
-0.418267
-0.401414
-0.33639
-0.279649
-0.240551
-0.21229
-0.190271
-0.172835
-0.158803
-0.147357
-0.137922
-0.130034
-0.12333
-0.117553
-0.112533
-0.108165
-0.104374
-0.10109
-0.098243
-0.0957666
-0.0936078
-0.0917317
-0.0901192
-0.0887611
-0.0876502
-0.0867759
-0.0861217
-0.0856673
-0.0854026
-0.118771
-0.119054
-0.119589
-0.120398
-0.121511
-0.122951
-0.124729
-0.12684
-0.129281
-0.132067
-0.135251
-0.13892
-0.143176
-0.148109
-0.153775
-0.160213
-0.167503
-0.175829
-0.185498
-0.196891
-0.210375
-0.226321
-0.24538
-0.268701
-0.297934
-0.340836
-0.412929
-0.502793
-0.384485
0.606773
1.11099
0.931383
0.298017
-0.607934
-0.660392
0.607946
8.86432
620.817
5035.37
5205.86
5108.84
4619.32
260.108
2.51343
0.1398
-0.194105
-0.192141
0.272001
1.81524
2.46559
1.26606
-0.46018
-0.42791
-0.338859
-0.271264
-0.23234
-0.206481
-0.186303
-0.17027
-0.15725
-0.146483
-0.137469
-0.129816
-0.123231
-0.117514
-0.112531
-0.108193
-0.104425
-0.101152
-0.0983029
-0.0958153
-0.0936404
-0.0917473
-0.090119
-0.0887469
-0.087624
-0.0867409
-0.0860849
-0.0856443
-0.0854183
-0.118227
-0.118493
-0.119012
-0.119808
-0.120909
-0.122333
-0.124085
-0.126158
-0.128545
-0.131264
-0.134369
-0.13795
-0.142108
-0.146921
-0.152427
-0.158647
-0.165651
-0.173617
-0.182833
-0.193621
-0.206263
-0.221022
-0.238447
-0.25955
-0.285391
-0.323976
-0.397456
-0.355463
-0.357012
-0.637651
-0.825169
-0.817208
-0.571524
-0.382796
-0.201551
0.108263
0.427199
138.391
1201.79
1267.13
1146.82
658.981
17.6236
0.634173
0.289731
0.0640682
-0.232799
-0.560011
-0.803826
-0.795414
-0.380406
-0.146673
-0.302019
-0.338513
-0.262634
-0.22689
-0.203162
-0.184109
-0.168841
-0.156335
-0.145893
-0.137061
-0.129497
-0.122953
-0.117262
-0.112306
-0.107995
-0.104248
-0.100987
-0.0981413
-0.0956498
-0.0934687
-0.0915701
-0.0899386
-0.0885654
-0.087443
-0.086562
-0.0859111
-0.0854803
-0.0852664
-0.117424
-0.117679
-0.11818
-0.118955
-0.120029
-0.12142
-0.123128
-0.125142
-0.127454
-0.130081
-0.133081
-0.136545
-0.140571
-0.145227
-0.150537
-0.156511
-0.163217
-0.170833
-0.17964
-0.18994
-0.201991
-0.216079
-0.232793
-0.25337
-0.279493
-0.317055
-0.37058
-0.448406
-0.612359
-0.755319
-0.848225
-0.856617
-0.751148
-0.570499
-0.286652
-0.0402276
0.33058
22.2455
2.55279
2.27104
2.33674
2.06296
2.03808
0.469593
0.114504
-0.199251
-0.528271
-0.765789
-0.887746
-0.869881
-0.771031
-0.551174
-0.366701
-0.315242
-0.263993
-0.228174
-0.203194
-0.183716
-0.168326
-0.155781
-0.145333
-0.136495
-0.128923
-0.122381
-0.116707
-0.111781
-0.107504
-0.103788
-0.10055
-0.0977179
-0.0952362
-0.0930637
-0.0911749
-0.0895548
-0.0881939
-0.0870835
-0.0862133
-0.0855723
-0.0851502
-0.0849423
-0.11637
-0.116615
-0.117095
-0.11784
-0.118877
-0.12022
-0.121868
-0.123805
-0.126022
-0.128536
-0.131406
-0.134725
-0.138588
-0.143053
-0.148133
-0.153835
-0.160226
-0.167492
-0.175912
-0.185788
-0.19741
-0.211157
-0.227748
-0.248629
-0.27628
-0.31555
-0.379376
-0.497097
-0.614287
-0.712943
-0.809822
-0.866845
-0.826555
-0.667705
-0.409374
-0.138007
0.206107
1.33559
1.37952
1.40942
1.39792
1.38694
1.4669
0.528006
-0.075733
-0.41628
-0.690275
-0.858951
-0.903917
-0.836643
-0.744763
-0.633775
-0.478633
-0.338943
-0.273171
-0.233512
-0.205349
-0.184422
-0.168255
-0.155288
-0.144612
-0.13565
-0.128021
-0.121471
-0.115823
-0.110941
-0.106711
-0.103037
-0.099834
-0.0970311
-0.0945747
-0.092427
-0.0905636
-0.088969
-0.0876324
-0.0865435
-0.0856909
-0.0850633
-0.0846505
-0.084447
-0.115075
-0.115306
-0.115762
-0.116471
-0.11746
-0.118744
-0.120317
-0.122161
-0.124265
-0.126646
-0.129364
-0.132512
-0.13618
-0.14042
-0.145238
-0.150638
-0.156692
-0.163588
-0.1716
-0.181027
-0.192194
-0.205565
-0.221945
-0.242755
-0.270468
-0.309502
-0.369273
-0.456112
-0.549695
-0.638753
-0.736811
-0.807054
-0.791377
-0.680311
-0.473724
-0.19965
0.122319
0.597745
0.955406
1.02711
1.01225
1.02093
1.61541
1.01611
-0.153383
-0.537909
-0.742088
-0.850201
-0.855593
-0.76897
-0.670171
-0.573048
-0.453976
-0.348244
-0.279853
-0.236815
-0.206745
-0.184662
-0.167758
-0.154357
-0.143441
-0.134362
-0.126699
-0.120172
-0.114577
-0.109762
-0.105599
-0.101985
-0.0988335
-0.0960768
-0.0936637
-0.0915582
-0.0897362
-0.0881809
-0.0868797
-0.0858206
-0.0849915
-0.0843807
-0.0839786
-0.0837798
-0.113544
-0.113762
-0.114188
-0.114854
-0.115787
-0.117
-0.118485
-0.120224
-0.1222
-0.12443
-0.126975
-0.129925
-0.133368
-0.13735
-0.141872
-0.146935
-0.152615
-0.159097
-0.166642
-0.175533
-0.186088
-0.198785
-0.214408
-0.234173
-0.259935
-0.294639
-0.34169
-0.404719
-0.47707
-0.554001
-0.636521
-0.700441
-0.701286
-0.627106
-0.479691
-0.258191
0.0184268
0.331405
0.58044
0.704273
0.694633
0.630057
1.42201
0.999544
-0.214237
-0.557811
-0.699768
-0.765659
-0.75384
-0.674725
-0.583986
-0.497767
-0.408945
-0.331793
-0.275033
-0.234575
-0.205125
-0.183041
-0.166001
-0.152491
-0.141526
-0.132458
-0.124856
-0.118418
-0.112927
-0.108214
-0.104146
-0.100616
-0.0975385
-0.0948496
-0.0925004
-0.090456
-0.0886917
-0.0871893
-0.085934
-0.0849125
-0.0841123
-0.0835221
-0.0831329
-0.0829399
-0.111788
-0.11199
-0.112384
-0.113001
-0.113869
-0.115001
-0.116388
-0.118007
-0.119842
-0.121907
-0.124259
-0.126988
-0.130177
-0.133868
-0.138058
-0.142747
-0.148005
-0.154005
-0.16099
-0.169218
-0.178969
-0.190658
-0.204951
-0.222818
-0.245315
-0.27426
-0.311175
-0.357415
-0.410945
-0.468668
-0.528064
-0.576124
-0.587545
-0.545243
-0.451872
-0.291124
-0.0897883
0.12898
0.313656
0.4247
0.42391
0.323406
1.19936
0.685885
-0.329442
-0.534848
-0.620912
-0.65826
-0.635197
-0.573354
-0.502403
-0.4329
-0.365966
-0.308068
-0.262163
-0.226895
-0.199931
-0.179
-0.16255
-0.149387
-0.138671
-0.129815
-0.12241
-0.116158
-0.110836
-0.106273
-0.102335
-0.0989191
-0.0959436
-0.0933476
-0.091085
-0.0891214
-0.0874312
-0.0859945
-0.0847951
-0.0838187
-0.0830529
-0.0824872
-0.0821136
-0.081928
-0.109818
-0.110003
-0.11036
-0.110923
-0.11172
-0.112762
-0.114041
-0.115531
-0.117213
-0.119098
-0.121241
-0.123727
-0.126636
-0.130005
-0.133829
-0.138105
-0.142895
-0.148347
-0.154665
-0.162095
-0.170856
-0.181283
-0.193813
-0.209206
-0.228155
-0.251475
-0.279918
-0.313799
-0.35173
-0.391441
-0.430811
-0.463696
-0.477249
-0.45923
-0.40603
-0.31027
-0.178
-0.0285009
0.103904
0.203864
0.208687
0.126647
1.001
-0.086638
-0.394135
-0.499193
-0.544521
-0.553587
-0.527146
-0.480862
-0.428846
-0.376612
-0.326427
-0.282011
-0.24504
-0.215115
-0.191705
-0.172608
-0.15734
-0.144957
-0.134799
-0.126374
-0.119319
-0.113359
-0.108281
-0.103923
-0.100159
-0.0968925
-0.0940497
-0.091574
-0.0894215
-0.0875584
-0.085958
-0.0845992
-0.083465
-0.0825409
-0.0818152
-0.0812782
-0.0809232
-0.0807465
-0.107648
-0.107814
-0.108132
-0.108637
-0.109356
-0.110301
-0.111463
-0.112815
-0.114335
-0.11603
-0.117949
-0.120174
-0.122778
-0.125796
-0.129221
-0.133048
-0.137327
-0.142178
-0.147724
-0.154243
-0.161826
-0.170783
-0.181405
-0.194128
-0.20936
-0.227429
-0.248586
-0.272711
-0.298726
-0.325135
-0.350533
-0.372071
-0.383735
-0.37927
-0.353635
-0.303935
-0.227898
-0.13062
-0.0427635
0.0396533
0.05198
-0.00491736
0.123251
-0.226154
-0.408311
-0.461146
-0.475225
-0.465368
-0.438528
-0.402725
-0.364295
-0.325722
-0.288463
-0.254626
-0.225396
-0.200893
-0.180742
-0.164099
-0.150526
-0.139265
-0.129937
-0.122142
-0.115584
-0.110019
-0.105261
-0.101165
-0.09762
-0.094542
-0.091865
-0.0895375
-0.0875182
-0.0857738
-0.0842775
-0.0830079
-0.0819476
-0.081083
-0.080403
-0.0798994
-0.0795662
-0.0794001
-0.105292
-0.105439
-0.105716
-0.106158
-0.106794
-0.107636
-0.108674
-0.10988
-0.11123
-0.112727
-0.114414
-0.116363
-0.118644
-0.121289
-0.124286
-0.127627
-0.13136
-0.135605
-0.140217
-0.145787
-0.152146
-0.159497
-0.168064
-0.178087
-0.189737
-0.203075
-0.218113
-0.234614
-0.251726
-0.268428
-0.283712
-0.296339
-0.303866
-0.303755
-0.293113
-0.269186
-0.227494
-0.170051
-0.111356
-0.05279
-0.0451687
-0.0982716
-0.189835
-0.310369
-0.394959
-0.415917
-0.408378
-0.388562
-0.363607
-0.336021
-0.307786
-0.279586
-0.252206
-0.226837
-0.204262
-0.184728
-0.168119
-0.154097
-0.142345
-0.132463
-0.124195
-0.117185
-0.111246
-0.106165
-0.101794
-0.0980153
-0.0947356
-0.0918844
-0.0894051
-0.087252
-0.0853869
-0.0837776
-0.0823981
-0.0812274
-0.0802493
-0.079451
-0.0788228
-0.0783573
-0.078049
-0.0778952
-0.102767
-0.102893
-0.103127
-0.103505
-0.104055
-0.104788
-0.105695
-0.106749
-0.107925
-0.109218
-0.110666
-0.112333
-0.114279
-0.116535
-0.119088
-0.121907
-0.12504
-0.128545
-0.13247
-0.136972
-0.142047
-0.147778
-0.154306
-0.161758
-0.170153
-0.179383
-0.18934
-0.199764
-0.209937
-0.219083
-0.226442
-0.231442
-0.233344
-0.231422
-0.224624
-0.210309
-0.184932
-0.148228
-0.108531
-0.0711765
-0.0795884
-0.141888
-0.222338
-0.311066
-0.350907
-0.351225
-0.335707
-0.315733
-0.296203
-0.276715
-0.257163
-0.237415
-0.217935
-0.199477
-0.182587
-0.167534
-0.154364
-0.142974
-0.133198
-0.124835
-0.117702
-0.111584
-0.106383
-0.101848
-0.0979223
-0.0945086
-0.0915351
-0.0889457
-0.0866926
-0.0847365
-0.0830434
-0.0815827
-0.0803304
-0.0792675
-0.078379
-0.0776538
-0.077083
-0.0766601
-0.0763801
-0.0762399
-0.100088
-0.100193
-0.100385
-0.100698
-0.101158
-0.101778
-0.10255
-0.103448
-0.104445
-0.105533
-0.10674
-0.10812
-0.109721
-0.111581
-0.113675
-0.115976
-0.118494
-0.121279
-0.124392
-0.127877
-0.131716
-0.135916
-0.140532
-0.145618
-0.151104
-0.156799
-0.162522
-0.167993
-0.172596
-0.17568
-0.176654
-0.175108
-0.170792
-0.163552
-0.15322
-0.1377
-0.114521
-0.083717
-0.0521507
-0.0284847
-0.0515837
-0.118717
-0.194261
-0.256112
-0.275156
-0.27017
-0.258175
-0.245405
-0.234133
-0.222901
-0.21113
-0.19861
-0.185741
-0.173082
-0.161079
-0.150017
-0.140039
-0.131179
-0.123386
-0.116583
-0.110669
-0.105521
-0.101045
-0.0971214
-0.0936996
-0.0906921
-0.088058
-0.0857599
-0.0837552
-0.0820136
-0.0805071
-0.0792054
-0.0780886
-0.0771406
-0.0763485
-0.0757025
-0.0751945
-0.0748184
-0.0745692
-0.0744437
-0.0972725
-0.0973582
-0.0975076
-0.0977547
-0.0981246
-0.0986295
-0.0992633
-0.100003
-0.100818
-0.101701
-0.102668
-0.103762
-0.10503
-0.106491
-0.108125
-0.1099
-0.111805
-0.113872
-0.116142
-0.118625
-0.121274
-0.124045
-0.126925
-0.129895
-0.132827
-0.135504
-0.137718
-0.139169
-0.13934
-0.137639
-0.133522
-0.126543
-0.116381
-0.102756
-0.085568
-0.0635069
-0.0349081
-0.000937637
0.0310711
0.049609
0.021692
-0.0418016
-0.112176
-0.161291
-0.178923
-0.182437
-0.181672
-0.179754
-0.177671
-0.174287
-0.169408
-0.163097
-0.155818
-0.148069
-0.140266
-0.132717
-0.125628
-0.119116
-0.113221
-0.107945
-0.103249
-0.099079
-0.0953816
-0.0920976
-0.0891911
-0.0866188
-0.0843466
-0.0823677
-0.0806246
-0.0791076
-0.0778014
-0.076665
-0.0756894
-0.0748619
-0.0741718
-0.0736103
-0.0731696
-0.0728437
-0.0726275
-0.0725175
-0.0943388
-0.0944059
-0.0945142
-0.0946975
-0.0949772
-0.0953652
-0.0958583
-0.0964374
-0.0970753
-0.0977564
-0.0984891
-0.0993062
-0.100246
-0.101322
-0.102512
-0.103774
-0.105086
-0.106459
-0.107911
-0.10943
-0.110948
-0.112394
-0.113721
-0.114861
-0.115638
-0.115814
-0.115182
-0.11343
-0.110103
-0.104677
-0.0966011
-0.085364
-0.0704636
-0.0512854
-0.0274216
0.00203717
0.0377372
0.0775986
0.113499
0.132568
0.109861
0.0564826
-0.00669311
-0.0543567
-0.0818343
-0.100172
-0.112651
-0.121511
-0.127754
-0.131171
-0.132143
-0.131044
-0.128429
-0.124793
-0.120554
-0.116043
-0.11151
-0.107122
-0.102981
-0.0991421
-0.095617
-0.0924044
-0.0894881
-0.0868498
-0.0844788
-0.082357
-0.0804677
-0.0788011
-0.0773316
-0.0760374
-0.0749581
-0.0739833
-0.0731518
-0.072449
-0.0718651
-0.0713924
-0.0710224
-0.0707492
-0.0705675
-0.0704729
-0.0913053
-0.0913544
-0.0914243
-0.0915465
-0.091738
-0.09201
-0.0923624
-0.0927809
-0.0932415
-0.093725
-0.0942316
-0.0947836
-0.0954105
-0.0961211
-0.0968906
-0.097672
-0.0984293
-0.0991569
-0.0998575
-0.100501
-0.101
-0.10126
-0.101219
-0.100794
-0.099787
-0.0979368
-0.0950352
-0.0907897
-0.0847779
-0.0765394
-0.0655477
-0.0512566
-0.0330645
-0.0100985
0.0185181
0.0529929
0.0937024
0.137709
0.176649
0.197708
0.184242
0.142469
0.0864308
0.0360516
-0.00248083
-0.0329168
-0.0556066
-0.0726262
-0.0852051
-0.0939292
-0.09955
-0.102638
-0.103796
-0.103521
-0.102242
-0.100302
-0.0979732
-0.0954572
-0.0928935
-0.0903689
-0.0879376
-0.085635
-0.0834761
-0.0814728
-0.0796349
-0.0779638
-0.0764578
-0.0751136
-0.0739221
-0.0728735
-0.0719676
-0.0711754
-0.0704953
-0.0699208
-0.0694457
-0.0690659
-0.068768
-0.0685488
-0.0684028
-0.0683221
-0.0881906
-0.0882219
-0.0882567
-0.0883214
-0.0884283
-0.0885873
-0.0888016
-0.0890619
-0.0893479
-0.0896391
-0.0899284
-0.0902277
-0.0905581
-0.0909257
-0.0913041
-0.0916408
-0.0918878
-0.0920255
-0.0920484
-0.091919
-0.09154
-0.0907903
-0.089586
-0.0878485
-0.0853885
-0.081934
-0.0772713
-0.0711458
-0.0631694
-0.0529303
-0.0399706
-0.0237764
-0.00373994
0.0210312
0.0514492
0.0879964
0.130337
0.17511
0.214263
0.236171
0.230527
0.198001
0.148236
0.0970372
0.0525751
0.0162226
-0.0119326
-0.0336988
-0.050312
-0.0627119
-0.0717239
-0.0779699
-0.0820397
-0.084417
-0.085523
-0.0857021
-0.0852301
-0.0843232
-0.0831403
-0.0817911
-0.0803566
-0.0788964
-0.0774518
-0.0760554
-0.0747325
-0.0734999
-0.0723683
-0.071342
-0.0704224
-0.0696074
-0.0688944
-0.0682752
-0.0677455
-0.0673006
-0.0669359
-0.0666455
-0.0664209
-0.0662562
-0.066146
-0.0660788
-0.0850127
-0.0850273
-0.0850302
-0.0850414
-0.0850682
-0.0851195
-0.0852009
-0.0853084