/*--------------------------------*- C++ -*----------------------------------*\
| =========                 |                                                 |
| \\      /  F ield         | OpenFOAM: The Open Source CFD Toolbox           |
|  \\    /   O peration     | Version:  2412                                  |
|   \\  /    A nd           | Website:  www.openfoam.com                      |
|    \\/     M anipulation  |                                                 |
\*---------------------------------------------------------------------------*/
FoamFile
{
    version     2.0;
    format      ascii;
    arch        "LSB;label=32;scalar=64";
    class       volVectorField;
    location    "4.95";
    object      U;
}
// * * * * * * * * * * * * * * * * * * * * * * * * * * * * * * * * * * * * * //

dimensions      [0 1 -1 0 0 0 0];

internalField   nonuniform List<vector> 
6400
(
(-2.11252e-11 4.55577e-12 0)
(3.04828e-10 1.29302e-10 0)
(9.68926e-10 1.98519e-10 0)
(1.42086e-09 2.60439e-10 0)
(1.69858e-09 2.72152e-10 0)
(1.86268e-09 2.81972e-10 0)
(1.90451e-09 2.87953e-10 0)
(1.83029e-09 2.84048e-10 0)
(1.65297e-09 2.74528e-10 0)
(1.3801e-09 2.60944e-10 0)
(1.01919e-09 2.43402e-10 0)
(5.82235e-10 2.20685e-10 0)
(8.26133e-11 1.94182e-10 0)
(-4.66782e-10 1.65187e-10 0)
(-1.05657e-09 1.35805e-10 0)
(-1.67771e-09 1.06538e-10 0)
(-2.32148e-09 7.79555e-11 0)
(-2.97564e-09 4.9442e-11 0)
(-3.6267e-09 2.14675e-11 0)
(-4.2584e-09 -6.17974e-12 0)
(-4.85547e-09 -3.24661e-11 0)
(-5.40245e-09 -5.69321e-11 0)
(-5.88703e-09 -7.84317e-11 0)
(-6.29766e-09 -9.67565e-11 0)
(-6.6261e-09 -1.11089e-10 0)
(-6.86481e-09 -1.21525e-10 0)
(-7.00928e-09 -1.27724e-10 0)
(-7.0554e-09 -1.3011e-10 0)
(-7.00168e-09 -1.2867e-10 0)
(-6.84684e-09 -1.2408e-10 0)
(-6.59178e-09 -1.16687e-10 0)
(-6.23732e-09 -1.07392e-10 0)
(-5.78621e-09 -9.6713e-11 0)
(-5.24126e-09 -8.5538e-11 0)
(-4.60753e-09 -7.43096e-11 0)
(-3.89071e-09 -6.36932e-11 0)
(-3.09933e-09 -5.38787e-11 0)
(-2.24321e-09 -4.52245e-11 0)
(-1.33533e-09 -3.76649e-11 0)
(-3.90037e-10 -3.13405e-11 0)
(5.75467e-10 -2.60367e-11 0)
(1.54323e-09 -2.17802e-11 0)
(2.49336e-09 -1.82801e-11 0)
(3.40631e-09 -1.55277e-11 0)
(4.26188e-09 -1.32295e-11 0)
(5.04168e-09 -1.14237e-11 0)
(5.7281e-09 -9.89176e-12 0)
(6.30689e-09 -8.78654e-12 0)
(6.76599e-09 -7.99994e-12 0)
(7.09789e-09 -7.77556e-12 0)
(7.298e-09 -8.02754e-12 0)
(7.3667e-09 -8.95561e-12 0)
(7.30717e-09 -1.03781e-11 0)
(7.12721e-09 -1.23788e-11 0)
(6.83662e-09 -1.4653e-11 0)
(6.44888e-09 -1.71132e-11 0)
(5.978e-09 -1.9269e-11 0)
(5.44021e-09 -2.08016e-11 0)
(4.85082e-09 -2.10754e-11 0)
(4.22609e-09 -1.97221e-11 0)
(3.58032e-09 -1.61412e-11 0)
(2.92781e-09 -9.9852e-12 0)
(2.28004e-09 -7.17941e-13 0)
(1.6481e-09 1.18001e-11 0)
(1.04071e-09 2.75909e-11 0)
(4.66994e-10 4.62248e-11 0)
(-6.52081e-11 6.72226e-11 0)
(-5.47572e-10 9.01167e-11 0)
(-9.72712e-10 1.14169e-10 0)
(-1.33324e-09 1.39006e-10 0)
(-1.62154e-09 1.63029e-10 0)
(-1.82987e-09 1.86056e-10 0)
(-1.94833e-09 2.05216e-10 0)
(-1.96739e-09 2.21592e-10 0)
(-1.87517e-09 2.32122e-10 0)
(-1.66564e-09 2.4179e-10 0)
(-1.34844e-09 2.49232e-10 0)
(-9.56494e-10 2.67367e-10 0)
(-5.79644e-10 3.33568e-10 0)
(-2.2535e-10 3.30373e-10 0)
(6.17454e-11 5.22229e-10 0)
(4.56325e-10 1.0396e-09 0)
(1.15183e-09 1.22748e-09 0)
(1.59099e-09 1.3741e-09 0)
(1.75545e-09 1.46875e-09 0)
(1.68428e-09 1.57228e-09 0)
(1.36116e-09 1.64426e-09 0)
(8.02473e-10 1.67242e-09 0)
(3.55083e-11 1.66382e-09 0)
(-9.14121e-10 1.62732e-09 0)
(-2.01837e-09 1.56047e-09 0)
(-3.24879e-09 1.46374e-09 0)
(-4.57473e-09 1.3407e-09 0)
(-5.97083e-09 1.20092e-09 0)
(-7.4117e-09 1.05101e-09 0)
(-8.87623e-09 8.97003e-10 0)
(-1.03393e-08 7.39368e-10 0)
(-1.17768e-08 5.78899e-10 0)
(-1.31588e-08 4.14942e-10 0)
(-1.44574e-08 2.49796e-10 0)
(-1.56415e-08 8.55057e-11 0)
(-1.66857e-08 -7.28445e-11 0)
(-1.75645e-08 -2.22046e-10 0)
(-1.82597e-08 -3.58065e-10 0)
(-1.87537e-08 -4.79211e-10 0)
(-1.90363e-08 -5.83346e-10 0)
(-1.90972e-08 -6.70776e-10 0)
(-1.89333e-08 -7.41479e-10 0)
(-1.85404e-08 -7.97397e-10 0)
(-1.79205e-08 -8.40128e-10 0)
(-1.70742e-08 -8.72861e-10 0)
(-1.60076e-08 -8.9815e-10 0)
(-1.47254e-08 -9.19299e-10 0)
(-1.32379e-08 -9.38354e-10 0)
(-1.15552e-08 -9.57347e-10 0)
(-9.69396e-09 -9.7666e-10 0)
(-7.67187e-09 -9.9634e-10 0)
(-5.51402e-09 -1.01492e-09 0)
(-3.24745e-09 -1.03091e-09 0)
(-9.06326e-10 -1.04184e-09 0)
(1.47379e-09 -1.04573e-09 0)
(3.85162e-09 -1.04013e-09 0)
(6.18639e-09 -1.02353e-09 0)
(8.434e-09 -9.9427e-10 0)
(1.05536e-08 -9.51987e-10 0)
(1.2504e-08 -8.96428e-10 0)
(1.42503e-08 -8.28825e-10 0)
(1.57605e-08 -7.5053e-10 0)
(1.70115e-08 -6.64233e-10 0)
(1.79852e-08 -5.72313e-10 0)
(1.8674e-08 -4.77931e-10 0)
(1.90756e-08 -3.83329e-10 0)
(1.91984e-08 -2.91062e-10 0)
(1.90544e-08 -2.02411e-10 0)
(1.86652e-08 -1.1862e-10 0)
(1.80537e-08 -3.93444e-11 0)
(1.72496e-08 3.60215e-11 0)
(1.62807e-08 1.09539e-10 0)
(1.5179e-08 1.83095e-10 0)
(1.3972e-08 2.59363e-10 0)
(1.26897e-08 3.40514e-10 0)
(1.13557e-08 4.2915e-10 0)
(9.99455e-09 5.26887e-10 0)
(8.62452e-09 6.34518e-10 0)
(7.2657e-09 7.50777e-10 0)
(5.93403e-09 8.73072e-10 0)
(4.64804e-09 9.97938e-10 0)
(3.42394e-09 1.12126e-09 0)
(2.28015e-09 1.2393e-09 0)
(1.23497e-09 1.34616e-09 0)
(3.08221e-10 1.4378e-09 0)
(-4.77065e-10 1.50532e-09 0)
(-1.09765e-09 1.54523e-09 0)
(-1.52415e-09 1.54706e-09 0)
(-1.73168e-09 1.51599e-09 0)
(-1.69962e-09 1.45651e-09 0)
(-1.44364e-09 1.41124e-09 0)
(-9.96383e-10 1.43125e-09 0)
(-4.38508e-10 1.47893e-09 0)
(-1.42694e-10 1.07213e-09 0)
(6.98139e-11 1.57056e-09 0)
(2.95433e-10 2.62101e-09 0)
(6.68774e-10 2.90091e-09 0)
(7.47719e-10 3.13662e-09 0)
(5.1904e-10 3.37133e-09 0)
(-1.88709e-11 3.60845e-09 0)
(-8.81636e-10 3.78675e-09 0)
(-2.04447e-09 3.86858e-09 0)
(-3.46454e-09 3.86702e-09 0)
(-5.09853e-09 3.7892e-09 0)
(-6.90584e-09 3.64061e-09 0)
(-8.84294e-09 3.42288e-09 0)
(-1.08716e-08 3.14914e-09 0)
(-1.29518e-08 2.8341e-09 0)
(-1.50512e-08 2.49362e-09 0)
(-1.71337e-08 2.13613e-09 0)
(-1.91686e-08 1.7679e-09 0)
(-2.11188e-08 1.38925e-09 0)
(-2.29519e-08 1.00405e-09 0)
(-2.46295e-08 6.14647e-10 0)
(-2.61206e-08 2.28415e-10 0)
(-2.73901e-08 -1.48135e-10 0)
(-2.8413e-08 -5.05784e-10 0)
(-2.91626e-08 -8.39199e-10 0)
(-2.96235e-08 -1.14233e-09 0)
(-2.97786e-08 -1.41323e-09 0)
(-2.96218e-08 -1.65e-09 0)
(-2.91447e-08 -1.85467e-09 0)
(-2.83487e-08 -2.02919e-09 0)
(-2.72326e-08 -2.17858e-09 0)
(-2.58037e-08 -2.30732e-09 0)
(-2.40668e-08 -2.42168e-09 0)
(-2.20349e-08 -2.52617e-09 0)
(-1.97197e-08 -2.6254e-09 0)
(-1.71416e-08 -2.72114e-09 0)
(-1.43214e-08 -2.81418e-09 0)
(-1.12897e-08 -2.90226e-09 0)
(-8.07816e-09 -2.98231e-09 0)
(-4.72897e-09 -3.04903e-09 0)
(-1.28535e-09 -3.09737e-09 0)
(2.20048e-09 -3.12128e-09 0)
(5.67685e-09 -3.11608e-09 0)
(9.0857e-09 -3.0771e-09 0)
(1.23727e-08 -3.00193e-09 0)
(1.54805e-08 -2.88881e-09 0)
(1.83594e-08 -2.7389e-09 0)
(2.09607e-08 -2.55426e-09 0)
(2.32468e-08 -2.33985e-09 0)
(2.51844e-08 -2.10097e-09 0)
(2.67538e-08 -1.8449e-09 0)
(2.79409e-08 -1.57793e-09 0)
(2.8746e-08 -1.30715e-09 0)
(2.91739e-08 -1.03758e-09 0)
(2.92436e-08 -7.74148e-10 0)
(2.89753e-08 -5.18924e-10 0)
(2.8401e-08 -2.73077e-10 0)
(2.75504e-08 -3.46723e-11 0)
(2.64615e-08 1.98791e-10 0)
(2.51668e-08 4.31792e-10 0)
(2.37042e-08 6.68359e-10 0)
(2.21034e-08 9.13555e-10 0)
(2.03978e-08 1.17129e-09 0)
(1.86114e-08 1.44478e-09 0)
(1.67721e-08 1.7339e-09 0)
(1.48999e-08 2.03561e-09 0)
(1.302e-08 2.34367e-09 0)
(1.11524e-08 2.64976e-09 0)
(9.32238e-09 2.94494e-09 0)
(7.55371e-09 3.21762e-09 0)
(5.87431e-09 3.45764e-09 0)
(4.31459e-09 3.64921e-09 0)
(2.90713e-09 3.78194e-09 0)
(1.69167e-09 3.83551e-09 0)
(7.05276e-10 3.8056e-09 0)
(-6.00628e-12 3.68171e-09 0)
(-4.198e-10 3.50309e-09 0)
(-5.4508e-10 3.33529e-09 0)
(-4.13625e-10 3.2798e-09 0)
(-1.13859e-10 3.16884e-09 0)
(-5.52437e-11 1.94723e-09 0)
(7.43006e-11 2.60977e-09 0)
(1.59199e-10 4.32097e-09 0)
(2.92815e-10 4.75772e-09 0)
(8.46702e-11 5.14187e-09 0)
(-4.86002e-10 5.57756e-09 0)
(-1.42463e-09 6.03655e-09 0)
(-2.74932e-09 6.39228e-09 0)
(-4.42387e-09 6.59872e-09 0)
(-6.39358e-09 6.65384e-09 0)
(-8.60679e-09 6.57821e-09 0)
(-1.10091e-08 6.37474e-09 0)
(-1.35529e-08 6.05712e-09 0)
(-1.61859e-08 5.63907e-09 0)
(-1.88645e-08 5.14722e-09 0)
(-2.15405e-08 4.59994e-09 0)
(-2.41755e-08 4.01481e-09 0)
(-2.67238e-08 3.39809e-09 0)
(-2.91475e-08 2.757e-09 0)
(-3.1401e-08 2.09484e-09 0)
(-3.34477e-08 1.42075e-09 0)
(-3.52441e-08 7.42121e-10 0)
(-3.67581e-08 7.23397e-11 0)
(-3.79523e-08 -5.78301e-10 0)
(-3.88026e-08 -1.19755e-09 0)
(-3.92819e-08 -1.77866e-09 0)
(-3.93765e-08 -2.31465e-09 0)
(-3.907e-08 -2.80437e-09 0)
(-3.83586e-08 -3.24699e-09 0)
(-3.72354e-08 -3.64662e-09 0)
(-3.57056e-08 -4.00717e-09 0)
(-3.37711e-08 -4.33582e-09 0)
(-3.14453e-08 -4.6382e-09 0)
(-2.87395e-08 -4.92075e-09 0)
(-2.56769e-08 -5.18651e-09 0)
(-2.22796e-08 -5.43735e-09 0)
(-1.8583e-08 -5.67077e-09 0)
(-1.46223e-08 -5.88262e-09 0)
(-1.04463e-08 -6.065e-09 0)
(-6.10391e-09 -6.20958e-09 0)
(-1.6565e-09 -6.30614e-09 0)
(2.83563e-09 -6.34595e-09 0)
(7.3027e-09 -6.32024e-09 0)
(1.16789e-08 -6.22342e-09 0)
(1.58929e-08 -6.05118e-09 0)
(1.98815e-08 -5.80358e-09 0)
(2.358e-08 -5.48268e-09 0)
(2.69367e-08 -5.09535e-09 0)
(2.99022e-08 -4.65003e-09 0)
(3.24434e-08 -4.15899e-09 0)
(3.45317e-08 -3.63422e-09 0)
(3.61565e-08 -3.08959e-09 0)
(3.73116e-08 -2.53663e-09 0)
(3.80088e-08 -1.98701e-09 0)
(3.82619e-08 -1.44853e-09 0)
(3.81005e-08 -9.27607e-10 0)
(3.75529e-08 -4.2568e-10 0)
(3.66595e-08 5.76227e-11 0)
(3.54553e-08 5.26755e-10 0)
(3.39845e-08 9.86567e-10 0)
(3.22824e-08 1.44423e-09 0)
(3.03909e-08 1.90616e-09 0)
(2.83408e-08 2.37915e-09 0)
(2.61686e-08 2.8667e-09 0)
(2.39e-08 3.3689e-09 0)
(2.15672e-08 3.88037e-09 0)
(1.91941e-08 4.39153e-09 0)
(1.68117e-08 4.88968e-09 0)
(1.44464e-08 5.35849e-09 0)
(1.21319e-08 5.78193e-09 0)
(9.90107e-09 6.13818e-09 0)
(7.79195e-09 6.4098e-09 0)
(5.84781e-09 6.56798e-09 0)
(4.1131e-09 6.59804e-09 0)
(2.64117e-09 6.47215e-09 0)
(1.4768e-09 6.20398e-09 0)
(6.62058e-10 5.82483e-09 0)
(1.81838e-10 5.47735e-09 0)
(1.44506e-11 5.28092e-09 0)
(7.35731e-11 4.96327e-09 0)
(-3.3802e-11 2.92971e-09 0)
(8.75182e-11 3.60497e-09 0)
(9.30137e-11 6.03986e-09 0)
(6.88598e-11 6.71501e-09 0)
(-3.51348e-10 7.28867e-09 0)
(-1.17963e-09 8.00243e-09 0)
(-2.4323e-09 8.73953e-09 0)
(-4.11869e-09 9.34386e-09 0)
(-6.1946e-09 9.72317e-09 0)
(-8.60107e-09 9.88881e-09 0)
(-1.12738e-08 9.85077e-09 0)
(-1.41584e-08 9.63011e-09 0)
(-1.7194e-08 9.23543e-09 0)
(-2.03304e-08 8.6944e-09 0)
(-2.35087e-08 8.03193e-09 0)
(-2.66818e-08 7.27946e-09 0)
(-2.97946e-08 6.4542e-09 0)
(-3.28037e-08 5.57195e-09 0)
(-3.56558e-08 4.63859e-09 0)
(-3.8309e-08 3.66564e-09 0)
(-4.07116e-08 2.66123e-09 0)
(-4.28247e-08 1.64076e-09 0)
(-4.46009e-08 6.17034e-10 0)
(-4.60075e-08 -3.91836e-10 0)
(-4.70047e-08 -1.37318e-09 0)
(-4.75692e-08 -2.31296e-09 0)
(-4.76722e-08 -3.20422e-09 0)
(-4.73013e-08 -4.04027e-09 0)
(-4.64393e-08 -4.82111e-09 0)
(-4.5085e-08 -5.54695e-09 0)
(-4.32327e-08 -6.22298e-09 0)
(-4.08924e-08 -6.85324e-09 0)
(-3.80708e-08 -7.44402e-09 0)
(-3.47906e-08 -7.99818e-09 0)
(-3.10727e-08 -8.51793e-09 0)
(-2.69542e-08 -9.00035e-09 0)
(-2.24721e-08 -9.4404e-09 0)
(-1.76798e-08 -9.82791e-09 0)
(-1.26306e-08 -1.01514e-08 0)
(-7.39342e-09 -1.03962e-08 0)
(-2.03598e-09 -1.0549e-08 0)
(3.36131e-09 -1.0596e-08 0)
(8.7222e-09 -1.0527e-08 0)
(1.39618e-08 -1.03339e-08 0)
(1.90039e-08 -1.00142e-08 0)
(2.37684e-08 -9.5687e-09 0)
(2.81888e-08 -9.00482e-09 0)
(3.21994e-08 -8.33324e-09 0)
(3.57523e-08 -7.57081e-09 0)
(3.88035e-08 -6.73553e-09 0)
(4.13295e-08 -5.84908e-09 0)
(4.33107e-08 -4.93136e-09 0)
(4.47493e-08 -4.00316e-09 0)
(4.56496e-08 -3.08097e-09 0)
(4.6036e-08 -2.17986e-09 0)
(4.59321e-08 -1.30844e-09 0)
(4.53782e-08 -4.72383e-10 0)
(4.44094e-08 3.29309e-10 0)
(4.30741e-08 1.09956e-09 0)
(4.14117e-08 1.84577e-09 0)
(3.94721e-08 2.57547e-09 0)
(3.72925e-08 3.29848e-09 0)
(3.49188e-08 4.02231e-09 0)
(3.23834e-08 4.75238e-09 0)
(2.97269e-08 5.48783e-09 0)
(2.69779e-08 6.22213e-09 0)
(2.41738e-08 6.9427e-09 0)
(2.13431e-08 7.63128e-09 0)
(1.8524e-08 8.26754e-09 0)
(1.57498e-08 8.82513e-09 0)
(1.30622e-08 9.28096e-09 0)
(1.0503e-08 9.59996e-09 0)
(8.12047e-09 9.75797e-09 0)
(5.96931e-09 9.71374e-09 0)
(4.10222e-09 9.4595e-09 0)
(2.57859e-09 8.98204e-09 0)
(1.43407e-09 8.3663e-09 0)
(6.76651e-10 7.76345e-09 0)
(2.77452e-10 7.38375e-09 0)
(1.70637e-10 6.79926e-09 0)
(-2.62803e-11 3.93451e-09 0)
(9.73334e-11 4.57788e-09 0)
(2.37805e-11 7.82199e-09 0)
(-1.68339e-10 8.77771e-09 0)
(-7.98092e-10 9.60956e-09 0)
(-1.87984e-09 1.06338e-08 0)
(-3.42333e-09 1.171e-08 0)
(-5.43109e-09 1.25901e-08 0)
(-7.85635e-09 1.3189e-08 0)
(-1.06275e-08 1.34851e-08 0)
(-1.36831e-08 1.35169e-08 0)
(-1.69539e-08 1.32929e-08 0)
(-2.03867e-08 1.28422e-08 0)
(-2.39165e-08 1.2185e-08 0)
(-2.74926e-08 1.1361e-08 0)
(-3.10514e-08 1.03985e-08 0)
(-3.45445e-08 9.32795e-09 0)
(-3.79117e-08 8.16303e-09 0)
(-4.11076e-08 6.92015e-09 0)
(-4.40745e-08 5.60833e-09 0)
(-4.67694e-08 4.24477e-09 0)
(-4.9137e-08 2.84301e-09 0)
(-5.1138e-08 1.42436e-09 0)
(-5.27227e-08 5.59037e-12 0)
(-5.38586e-08 -1.39243e-09 0)
(-5.45044e-08 -2.75614e-09 0)
(-5.46377e-08 -4.07121e-09 0)
(-5.42287e-08 -5.33139e-09 0)
(-5.32665e-08 -6.53056e-09 0)
(-5.17345e-08 -7.66928e-09 0)
(-4.96347e-08 -8.74731e-09 0)
(-4.69651e-08 -9.76828e-09 0)
(-4.3743e-08 -1.07327e-08 0)
(-3.99834e-08 -1.16416e-08 0)
(-3.57211e-08 -1.24906e-08 0)
(-3.09901e-08 -1.32732e-08 0)
(-2.58445e-08 -1.39769e-08 0)
(-2.03386e-08 -1.4587e-08 0)
(-1.45452e-08 -1.50843e-08 0)
(-8.53659e-09 -1.545e-08 0)
(-2.40116e-09 -1.56644e-08 0)
(3.77655e-09 -1.57115e-08 0)
(9.89999e-09 -1.55777e-08 0)
(1.58811e-08 -1.5256e-08 0)
(2.16252e-08 -1.47439e-08 0)
(2.70516e-08 -1.40476e-08 0)
(3.20783e-08 -1.31784e-08 0)
(3.66424e-08 -1.2156e-08 0)
(4.06835e-08 -1.10035e-08 0)
(4.4164e-08 -9.75028e-09 0)
(4.70499e-08 -8.425e-09 0)
(4.93313e-08 -7.05893e-09 0)
(5.10011e-08 -5.67913e-09 0)
(5.20754e-08 -4.31193e-09 0)
(5.25702e-08 -2.97632e-09 0)
(5.25222e-08 -1.68783e-09 0)
(5.19636e-08 -4.52968e-10 0)
(5.09438e-08 7.25488e-10 0)
(4.95033e-08 1.85205e-09 0)
(4.76969e-08 2.93283e-09 0)
(4.55663e-08 3.97862e-09 0)
(4.31652e-08 4.99949e-09 0)
(4.05314e-08 6.00597e-09 0)
(3.77137e-08 7.00329e-09 0)
(3.47452e-08 7.99136e-09 0)
(3.16698e-08 8.96205e-09 0)
(2.85179e-08 9.89957e-09 0)
(2.53318e-08 1.07826e-08 0)
(2.21439e-08 1.15824e-08 0)
(1.89982e-08 1.22714e-08 0)
(1.59333e-08 1.28109e-08 0)
(1.29987e-08 1.31701e-08 0)
(1.02447e-08 1.32974e-08 0)
(7.72927e-09 1.31684e-08 0)
(5.51429e-09 1.27395e-08 0)
(3.65599e-09 1.20412e-08 0)
(2.20687e-09 1.11278e-08 0)
(1.17052e-09 1.02445e-08 0)
(5.44725e-10 9.60483e-09 0)
(2.6887e-10 8.69583e-09 0)
(-1.79418e-11 4.94277e-09 0)
(9.78635e-11 5.54626e-09 0)
(-7.68883e-11 9.66212e-09 0)
(-4.48091e-10 1.09727e-08 0)
(-1.30919e-09 1.20886e-08 0)
(-2.65544e-09 1.3485e-08 0)
(-4.48747e-09 1.49076e-08 0)
(-6.80249e-09 1.61102e-08 0)
(-9.5421e-09 1.69321e-08 0)
(-1.26404e-08 1.739e-08 0)
(-1.60171e-08 1.74914e-08 0)
(-1.96136e-08 1.72829e-08 0)
(-2.33598e-08 1.67761e-08 0)
(-2.72053e-08 1.60144e-08 0)
(-3.10832e-08 1.50266e-08 0)
(-3.49437e-08 1.38575e-08 0)
(-3.8721e-08 1.25325e-08 0)
(-4.23671e-08 1.10791e-08 0)
(-4.58196e-08 9.51039e-09 0)
(-4.90338e-08 7.84611e-09 0)
(-5.19495e-08 6.09973e-09 0)
(-5.45239e-08 4.29411e-09 0)
(-5.66998e-08 2.4475e-09 0)
(-5.84382e-08 5.85201e-10 0)
(-5.96875e-08 -1.27407e-09 0)
(-6.04158e-08 -3.10856e-09 0)
(-6.05806e-08 -4.90511e-09 0)
(-6.01602e-08 -6.64989e-09 0)
(-5.91244e-08 -8.3371e-09 0)
(-5.74647e-08 -9.96007e-09 0)
(-5.51663e-08 -1.15176e-08 0)
(-5.22371e-08 -1.30056e-08 0)
(-4.86811e-08 -1.44218e-08 0)
(-4.45262e-08 -1.57588e-08 0)
(-3.97985e-08 -1.70075e-08 0)
(-3.45482e-08 -1.81519e-08 0)
(-2.88254e-08 -1.91739e-08 0)
(-2.27033e-08 -2.0049e-08 0)
(-1.62545e-08 -2.07525e-08 0)
(-9.57233e-09 -2.12574e-08 0)
(-2.74693e-09 -2.15404e-08 0)
(4.11547e-09 -2.15802e-08 0)
(1.09164e-08 -2.13633e-08 0)
(1.75472e-08 -2.08816e-08 0)
(2.39131e-08 -2.01378e-08 0)
(2.99156e-08 -1.9141e-08 0)
(3.5476e-08 -1.79122e-08 0)
(4.05167e-08 -1.64776e-08 0)
(4.49847e-08 -1.48731e-08 0)
(4.88302e-08 -1.31357e-08 0)
(5.20299e-08 -1.13075e-08 0)
(5.45634e-08 -9.4271e-09 0)
(5.64367e-08 -7.53388e-09 0)
(5.76559e-08 -5.65953e-09 0)
(5.8252e-08 -3.83256e-09 0)
(5.82513e-08 -2.07079e-09 0)
(5.7702e-08 -3.86859e-10 0)
(5.66429e-08 1.21698e-09 0)
(5.51314e-08 2.74204e-09 0)
(5.32113e-08 4.19713e-09 0)
(5.09417e-08 5.59222e-09 0)
(4.8365e-08 6.94099e-09 0)
(4.55368e-08 8.25392e-09 0)
(4.24945e-08 9.53859e-09 0)
(3.92884e-08 1.07943e-08 0)
(3.5951e-08 1.20122e-08 0)
(3.25287e-08 1.31745e-08 0)
(2.90529e-08 1.42541e-08 0)
(2.55695e-08 1.52214e-08 0)
(2.21129e-08 1.60357e-08 0)
(1.87328e-08 1.66622e-08 0)
(1.54722e-08 1.70445e-08 0)
(1.23891e-08 1.71465e-08 0)
(9.54092e-09 1.69011e-08 0)
(6.99364e-09 1.63043e-08 0)
(4.8131e-09 1.53369e-08 0)
(3.05067e-09 1.41283e-08 0)
(1.72947e-09 1.28979e-08 0)
(8.49291e-10 1.19714e-08 0)
(3.87824e-10 1.06507e-08 0)
(-9.09159e-12 5.96391e-09 0)
(9.02627e-11 6.51663e-09 0)
(-1.83173e-10 1.15715e-08 0)
(-7.33755e-10 1.32772e-08 0)
(-1.82376e-09 1.47549e-08 0)
(-3.43157e-09 1.65211e-08 0)
(-5.5438e-09 1.83433e-08 0)
(-8.13966e-09 1.98514e-08 0)
(-1.11693e-08 2.09366e-08 0)
(-1.45486e-08 2.15412e-08 0)
(-1.82115e-08 2.17342e-08 0)
(-2.20746e-08 2.15279e-08 0)
(-2.60872e-08 2.09776e-08 0)
(-3.01798e-08 2.01042e-08 0)
(-3.43066e-08 1.89611e-08 0)
(-3.83999e-08 1.75804e-08 0)
(-4.24121e-08 1.60045e-08 0)
(-4.62772e-08 1.42548e-08 0)
(-4.99495e-08 1.23581e-08 0)
(-5.33657e-08 1.03291e-08 0)
(-5.64817e-08 8.19164e-09 0)
(-5.92353e-08 5.96346e-09 0)
(-6.15838e-08 3.67178e-09 0)
(-6.34673e-08 1.33764e-09 0)
(-6.48467e-08 -1.01196e-09 0)
(-6.56676e-08 -3.35821e-09 0)
(-6.58976e-08 -5.67984e-09 0)
(-6.54923e-08 -7.96428e-09 0)
(-6.44306e-08 -1.01975e-08 0)
(-6.26822e-08 -1.23719e-08 0)
(-6.02421e-08 -1.44773e-08 0)
(-5.70996e-08 -1.65065e-08 0)
(-5.32705e-08 -1.84469e-08 0)
(-4.87683e-08 -2.02852e-08 0)
(-4.36344e-08 -2.2001e-08 0)
(-3.79097e-08 -2.35711e-08 0)
(-3.16628e-08 -2.4965e-08 0)
(-2.49626e-08 -2.6151e-08 0)
(-1.79035e-08 -2.70934e-08 0)
(-1.05781e-08 -2.77598e-08 0)
(-3.10019e-09 -2.81187e-08 0)
(4.42253e-09 -2.81473e-08 0)
(1.18679e-08 -2.78288e-08 0)
(1.91265e-08 -2.71592e-08 0)
(2.6082e-08 -2.61429e-08 0)
(3.26381e-08 -2.47992e-08 0)
(3.8698e-08 -2.31553e-08 0)
(4.41909e-08 -2.12515e-08 0)
(4.90491e-08 -1.91323e-08 0)
(5.32338e-08 -1.68501e-08 0)
(5.67095e-08 -1.44557e-08 0)
(5.94704e-08 -1.20023e-08 0)
(6.15112e-08 -9.53614e-09 0)
(6.2855e-08 -7.10113e-09 0)
(6.35214e-08 -4.72959e-09 0)
(6.35552e-08 -2.44798e-09 0)
(6.29927e-08 -2.69514e-10 0)
(6.1892e-08 1.79825e-09 0)
(6.02979e-08 3.75862e-09 0)
(5.82741e-08 5.61808e-09 0)
(5.58662e-08 7.39035e-09 0)
(5.31365e-08 9.08862e-09 0)
(5.01267e-08 1.07269e-08 0)
(4.68938e-08 1.23128e-08 0)
(4.34736e-08 1.38469e-08 0)
(3.99173e-08 1.53199e-08 0)
(3.62561e-08 1.67109e-08 0)
(3.25383e-08 1.79925e-08 0)
(2.87945e-08 1.91251e-08 0)
(2.50743e-08 2.00719e-08 0)
(2.14132e-08 2.07752e-08 0)
(1.78674e-08 2.1194e-08 0)
(1.44837e-08 2.1249e-08 0)
(1.13293e-08 2.0909e-08 0)
(8.46709e-09 2.01051e-08 0)
(5.97204e-09 1.889e-08 0)
(3.90531e-09 1.73276e-08 0)
(2.29313e-09 1.57575e-08 0)
(1.16206e-09 1.44599e-08 0)
(5.02758e-10 1.26879e-08 0)
(2.10805e-12 6.99507e-09 0)
(8.36203e-11 7.49485e-09 0)
(-2.81775e-10 1.35125e-08 0)
(-9.97883e-10 1.57131e-08 0)
(-2.30792e-09 1.75539e-08 0)
(-4.16423e-09 1.97702e-08 0)
(-6.53634e-09 2.19537e-08 0)
(-9.39687e-09 2.38206e-08 0)
(-1.26743e-08 2.51334e-08 0)
(-1.63087e-08 2.59242e-08 0)
(-2.02066e-08 2.61821e-08 0)
(-2.43088e-08 2.59973e-08 0)
(-2.85351e-08 2.53857e-08 0)
(-3.28439e-08 2.44132e-08 0)
(-3.71677e-08 2.31083e-08 0)
(-4.14648e-08 2.15271e-08 0)
(-4.56684e-08 1.96984e-08 0)
(-4.97344e-08 1.7661e-08 0)
(-5.35974e-08 1.54338e-08 0)
(-5.72134e-08 1.30441e-08 0)
(-6.05175e-08 1.05088e-08 0)
(-6.34652e-08 7.85515e-09 0)
(-6.59913e-08 5.10372e-09 0)
(-6.80513e-08 2.28382e-09 0)
(-6.95813e-08 -5.8292e-10 0)
(-7.05396e-08 -3.46981e-09 0)
(-7.08679e-08 -6.35878e-09 0)
(-7.05317e-08 -9.2288e-09 0)
(-6.94843e-08 -1.20661e-08 0)
(-6.7705e-08 -1.48536e-08 0)
(-6.51647e-08 -1.7578e-08 0)
(-6.18635e-08 -2.02206e-08 0)
(-5.77974e-08 -2.27624e-08 0)
(-5.29932e-08 -2.51767e-08 0)
(-4.74776e-08 -2.74341e-08 0)
(-4.13091e-08 -2.94969e-08 0)
(-3.45474e-08 -3.13248e-08 0)
(-2.72829e-08 -3.28719e-08 0)
(-1.96066e-08 -3.40941e-08 0)
(-1.16363e-08 -3.49472e-08 0)
(-3.48668e-09 -3.53954e-08 0)
(4.70759e-09 -3.54092e-08 0)
(1.28221e-08 -3.49738e-08 0)
(2.07209e-08 -3.4085e-08 0)
(2.82878e-08 -3.27565e-08 0)
(3.54032e-08 -3.10136e-08 0)
(4.19751e-08 -2.88984e-08 0)
(4.79142e-08 -2.64611e-08 0)
(5.31627e-08 -2.37637e-08 0)
(5.76672e-08 -2.08691e-08 0)
(6.14071e-08 -1.78454e-08 0)
(6.4364e-08 -1.47546e-08 0)
(6.65515e-08 -1.16581e-08 0)
(6.79808e-08 -8.6053e-09 0)
(6.86925e-08 -5.6401e-09 0)
(6.87192e-08 -2.79089e-09 0)
(6.81195e-08 -7.85328e-11 0)
(6.69385e-08 2.49059e-09 0)
(6.52439e-08 4.9156e-09 0)
(6.30849e-08 7.2066e-09 0)
(6.05302e-08 9.37594e-09 0)
(5.76265e-08 1.14412e-08 0)
(5.44381e-08 1.34162e-08 0)
(5.10056e-08 1.5312e-08 0)
(4.73865e-08 1.71295e-08 0)
(4.36141e-08 1.88595e-08 0)
(3.974e-08 2.04818e-08 0)
(3.57925e-08 2.19623e-08 0)
(3.18214e-08 2.32655e-08 0)
(2.78556e-08 2.43356e-08 0)
(2.39493e-08 2.51297e-08 0)
(2.0138e-08 2.55664e-08 0)
(1.64857e-08 2.56027e-08 0)
(1.30418e-08 2.51348e-08 0)
(9.88576e-09 2.41632e-08 0)
(7.08803e-09 2.26424e-08 0)
(4.72363e-09 2.07605e-08 0)
(2.83321e-09 1.87696e-08 0)
(1.45207e-09 1.70975e-08 0)
(6.09293e-10 1.47743e-08 0)
(1.04105e-11 8.03789e-09 0)
(7.3872e-11 8.46035e-09 0)
(-3.69862e-10 1.55082e-08 0)
(-1.25387e-09 1.82152e-08 0)
(-2.77168e-09 2.05296e-08 0)
(-4.86446e-09 2.31501e-08 0)
(-7.48954e-09 2.57819e-08 0)
(-1.05886e-08 2.79345e-08 0)
(-1.41018e-08 2.95347e-08 0)
(-1.79419e-08 3.04625e-08 0)
(-2.20543e-08 3.08265e-08 0)
(-2.6344e-08 3.0632e-08 0)
(-3.07655e-08 2.99804e-08 0)
(-3.52443e-08 2.88937e-08 0)
(-3.97471e-08 2.74439e-08 0)
(-4.42086e-08 2.56608e-08 0)
(-4.85919e-08 2.35967e-08 0)
(-5.28315e-08 2.12762e-08 0)
(-5.68864e-08 1.87339e-08 0)
(-6.06908e-08 1.59873e-08 0)
(-6.42006e-08 1.30641e-08 0)
(-6.73479e-08 9.98277e-09 0)
(-7.00855e-08 6.77207e-09 0)
(-7.23431e-08 3.45316e-09 0)
(-7.40717e-08 5.49459e-11 0)
(-7.52011e-08 -3.40182e-09 0)
(-7.56849e-08 -6.89127e-09 0)
(-7.54594e-08 -1.03949e-08 0)
(-7.44874e-08 -1.38895e-08 0)
(-7.27197e-08 -1.73563e-08 0)
(-7.01367e-08 -2.07701e-08 0)
(-6.67128e-08 -2.41059e-08 0)
(-6.24553e-08 -2.73298e-08 0)
(-5.73707e-08 -3.04051e-08 0)
(-5.15007e-08 -3.32852e-08 0)
(-4.48898e-08 -3.59199e-08 0)
(-3.76177e-08 -3.82516e-08 0)
(-2.97677e-08 -4.02221e-08 0)
(-2.14561e-08 -4.17713e-08 0)
(-1.27998e-08 -4.28463e-08 0)
(-3.94318e-09 -4.34001e-08 0)
(4.97549e-09 -4.34011e-08 0)
(1.38004e-08 -4.2831e-08 0)
(2.23925e-08 -4.16925e-08 0)
(3.06061e-08 -4.00044e-08 0)
(3.83229e-08 -3.78069e-08 0)
(4.5427e-08 -3.51534e-08 0)
(5.18365e-08 -3.21136e-08 0)
(5.74754e-08 -2.87624e-08 0)
(6.23044e-08 -2.51834e-08 0)
(6.62887e-08 -2.1456e-08 0)
(6.94293e-08 -1.76608e-08 0)
(7.17275e-08 -1.38671e-08 0)
(7.32178e-08 -1.01395e-08 0)
(7.39288e-08 -6.52553e-09 0)
(7.39185e-08 -3.06401e-09 0)
(7.32327e-08 2.24267e-10 0)
(7.19427e-08 3.32659e-09 0)
(7.01018e-08 6.2453e-09 0)
(6.77854e-08 8.98779e-09 0)
(6.50461e-08 1.15714e-08 0)
(6.19564e-08 1.40131e-08 0)
(5.85629e-08 1.63316e-08 0)
(5.49312e-08 1.85386e-08 0)
(5.10993e-08 2.06381e-08 0)
(4.71241e-08 2.26224e-08 0)
(4.30348e-08 2.44691e-08 0)
(3.88822e-08 2.61487e-08 0)
(3.46904e-08 2.76113e-08 0)
(3.05112e-08 2.88144e-08 0)
(2.63703e-08 2.96801e-08 0)
(2.23273e-08 3.01627e-08 0)
(1.8416e-08 3.01472e-08 0)
(1.47108e-08 2.96028e-08 0)
(1.12675e-08 2.8407e-08 0)
(8.18004e-09 2.66425e-08 0)
(5.52267e-09 2.43525e-08 0)
(3.35338e-09 2.19824e-08 0)
(1.7331e-09 1.98217e-08 0)
(7.04618e-10 1.69295e-08 0)
(2.23683e-11 9.07329e-09 0)
(6.59769e-11 9.42659e-09 0)
(-4.66716e-10 1.75086e-08 0)
(-1.5166e-09 2.08538e-08 0)
(-3.25265e-09 2.35861e-08 0)
(-5.58063e-09 2.67443e-08 0)
(-8.44716e-09 2.97269e-08 0)
(-1.1792e-08 3.22598e-08 0)
(-1.55103e-08 3.40463e-08 0)
(-1.95513e-08 3.51774e-08 0)
(-2.38242e-08 3.55901e-08 0)
(-2.82871e-08 3.54294e-08 0)
(-3.28522e-08 3.47085e-08 0)
(-3.74886e-08 3.35331e-08 0)
(-4.21285e-08 3.19299e-08 0)
(-4.67453e-08 2.99685e-08 0)
(-5.12767e-08 2.76754e-08 0)
(-5.56891e-08 2.50962e-08 0)
(-5.99181e-08 2.22505e-08 0)
(-6.39237e-08 1.91687e-08 0)
(-6.76373e-08 1.58669e-08 0)
(-7.10127e-08 1.23723e-08 0)
(-7.39759e-08 8.7026e-09 0)
(-7.64746e-08 4.88567e-09 0)
(-7.84299e-08 9.41132e-10 0)
(-7.97859e-08 -3.10373e-09 0)
(-8.0464e-08 -7.22874e-09 0)
(-8.04113e-08 -1.14072e-08 0)
(-7.95577e-08 -1.56166e-08 0)
(-7.7863e-08 -1.98271e-08 0)
(-7.52764e-08 -2.40083e-08 0)
(-7.17816e-08 -2.81201e-08 0)
(-6.73588e-08 -3.21181e-08 0)
(-6.20269e-08 -3.59465e-08 0)
(-5.5807e-08 -3.95443e-08 0)
(-4.87612e-08 -4.28403e-08 0)
(-4.09565e-08 -4.57606e-08 0)
(-3.25002e-08 -4.82266e-08 0)
(-2.35042e-08 -5.01639e-08 0)
(-1.41163e-08 -5.15025e-08 0)
(-4.48411e-09 -5.21872e-08 0)
(5.21841e-09 -5.21776e-08 0)
(1.48287e-08 -5.14577e-08 0)
(2.41719e-08 -5.00322e-08 0)
(3.30983e-08 -4.79339e-08 0)
(4.14589e-08 -4.52144e-08 0)
(4.91411e-08 -4.19487e-08 0)
(5.60395e-08 -3.82224e-08 0)
(6.209e-08 -3.41347e-08 0)
(6.72363e-08 -2.97842e-08 0)
(7.1463e-08 -2.52731e-08 0)
(7.47581e-08 -2.06935e-08 0)
(7.71475e-08 -1.61338e-08 0)
(7.86544e-08 -1.16649e-08 0)
(7.93354e-08 -7.34822e-09 0)
(7.92365e-08 -3.22421e-09 0)
(7.84331e-08 6.77521e-10 0)
(7.69828e-08 4.34678e-09 0)
(7.49686e-08 7.78145e-09 0)
(7.24498e-08 1.09943e-08 0)
(6.9508e-08 1.40012e-08 0)
(6.61975e-08 1.68252e-08 0)
(6.25932e-08 1.94858e-08 0)
(5.874e-08 2.19997e-08 0)
(5.47026e-08 2.43736e-08 0)
(5.05141e-08 2.66012e-08 0)
(4.62297e-08 2.86654e-08 0)
(4.18714e-08 3.05288e-08 0)
(3.74898e-08 3.21537e-08 0)
(3.31021e-08 3.34688e-08 0)
(2.87633e-08 3.44298e-08 0)
(2.44926e-08 3.49244e-08 0)
(2.03572e-08 3.49127e-08 0)
(1.63907e-08 3.42342e-08 0)
(1.26816e-08 3.29015e-08 0)
(9.29913e-09 3.08004e-08 0)
(6.34694e-09 2.81895e-08 0)
(3.8936e-09 2.53119e-08 0)
(2.0183e-09 2.2697e-08 0)
(8.08748e-10 1.91021e-08 0)
(3.3149e-11 1.01153e-08 0)
(4.87878e-11 1.03735e-08 0)
(-5.70483e-10 1.9591e-08 0)
(-1.8169e-09 2.35351e-08 0)
(-3.78523e-09 2.68589e-08 0)
(-6.36519e-09 3.04187e-08 0)
(-9.48499e-09 3.39151e-08 0)
(-1.30593e-08 3.66774e-08 0)
(-1.70017e-08 3.87521e-08 0)
(-2.12047e-08 3.99674e-08 0)
(-2.56394e-08 4.0499e-08 0)
(-3.02176e-08 4.03138e-08 0)
(-3.49162e-08 3.95689e-08 0)
(-3.96587e-08 3.82831e-08 0)
(-4.44275e-08 3.65581e-08 0)
(-4.9161e-08 3.44199e-08 0)
(-5.38375e-08 3.19289e-08 0)
(-5.83968e-08 2.91062e-08 0)
(-6.28067e-08 2.59883e-08 0)
(-6.70016e-08 2.25896e-08 0)
(-7.09394e-08 1.89362e-08 0)
(-7.45464e-08 1.50413e-08 0)
(-7.77708e-08 1.0929e-08 0)
(-8.05295e-08 6.61439e-09 0)
(-8.27611e-08 2.12202e-09 0)
(-8.43759e-08 -2.53047e-09 0)
(-8.53081e-08 -7.31664e-09 0)
(-8.54689e-08 -1.22142e-08 0)
(-8.47976e-08 -1.71915e-08 0)
(-8.32177e-08 -2.22163e-08 0)
(-8.06863e-08 -2.72442e-08 0)
(-7.71532e-08 -3.22255e-08 0)
(-7.26079e-08 -3.70962e-08 0)
(-6.70413e-08 -4.17847e-08 0)
(-6.04885e-08 -4.62061e-08 0)
(-5.29917e-08 -5.02696e-08 0)
(-4.46393e-08 -5.38761e-08 0)
(-3.55284e-08 -5.69269e-08 0)
(-2.58005e-08 -5.93239e-08 0)
(-1.56044e-08 -6.09812e-08 0)
(-5.12562e-09 -6.18266e-08 0)
(5.45268e-09 -6.18146e-08 0)
(1.59254e-08 -6.09253e-08 0)
(2.61077e-08 -5.91736e-08 0)
(3.58107e-08 -5.66019e-08 0)
(4.48823e-08 -5.32849e-08 0)
(5.31794e-08 -4.93159e-08 0)
(6.06045e-08 -4.48094e-08 0)
(6.70723e-08 -3.98842e-08 0)
(7.25445e-08 -3.4667e-08 0)
(7.69913e-08 -2.92761e-08 0)
(8.04263e-08 -2.38278e-08 0)
(8.28645e-08 -1.84206e-08 0)
(8.43595e-08 -1.31438e-08 0)
(8.49572e-08 -8.06274e-09 0)
(8.47367e-08 -3.22994e-09 0)
(8.37609e-08 1.32636e-09 0)
(8.21207e-08 5.5894e-09 0)
(7.98839e-08 9.56242e-09 0)
(7.71419e-08 1.32558e-08 0)
(7.39584e-08 1.66924e-08 0)
(7.04187e-08 1.98958e-08 0)
(6.65765e-08 2.28922e-08 0)
(6.25064e-08 2.57015e-08 0)
(5.82485e-08 2.8335e-08 0)
(5.38646e-08 3.07922e-08 0)
(4.93801e-08 3.30541e-08 0)
(4.48466e-08 3.50952e-08 0)
(4.02769e-08 3.68578e-08 0)
(3.5721e-08 3.83003e-08 0)
(3.11862e-08 3.93214e-08 0)
(2.67314e-08 3.98809e-08 0)
(2.23685e-08 3.98142e-08 0)
(1.8175e-08 3.91029e-08 0)
(1.41894e-08 3.75378e-08 0)
(1.05201e-08 3.52353e-08 0)
(7.25433e-09 3.21609e-08 0)
(4.49152e-09 2.88846e-08 0)
(2.34631e-09 2.56392e-08 0)
(9.21643e-10 2.13612e-08 0)
(5.29851e-11 1.11454e-08 0)
(3.46031e-11 1.13442e-08 0)
(-7.05803e-10 2.16736e-08 0)
(-2.16207e-09 2.64267e-08 0)
(-4.41534e-09 3.02028e-08 0)
(-7.28224e-09 3.43738e-08 0)
(-1.06635e-08 3.81695e-08 0)
(-1.4486e-08 4.13436e-08 0)
(-1.86198e-08 4.35143e-08 0)
(-2.30079e-08 4.49218e-08 0)
(-2.75537e-08 4.54491e-08 0)
(-3.22517e-08 4.53102e-08 0)
(-3.70235e-08 4.44905e-08 0)
(-4.18656e-08 4.31423e-08 0)
(-4.67134e-08 4.1286e-08 0)
(-5.1559e-08 3.90098e-08 0)
(-5.63456e-08 3.63341e-08 0)
(-6.1054e-08 3.33066e-08 0)
(-6.56234e-08 2.99401e-08 0)
(-7.00204e-08 2.6262e-08 0)
(-7.41752e-08 2.22806e-08 0)
(-7.80406e-08 1.80159e-08 0)
(-8.15342e-08 1.3476e-08 0)
(-8.45946e-08 8.67945e-09 0)
(-8.7126e-08 3.63681e-09 0)
(-8.90548e-08 -1.63061e-09 0)
(-9.02771e-08 -7.10545e-09 0)
(-9.07155e-08 -1.27589e-08 0)
(-9.02693e-08 -1.85615e-08 0)
(-8.88694e-08 -2.44696e-08 0)
(-8.6433e-08 -3.04323e-08 0)
(-8.2916e-08 -3.63815e-08 0)
(-7.82719e-08 -4.22378e-08 0)
(-7.25011e-08 -4.79043e-08 0)
(-6.56106e-08 -5.32737e-08 0)
(-5.76593e-08 -5.82258e-08 0)
(-4.8718e-08 -6.26363e-08 0)
(-3.89099e-08 -6.63761e-08 0)
(-2.8372e-08 -6.93228e-08 0)
(-1.72904e-08 -7.13636e-08 0)
(-5.85975e-09 -7.24107e-08 0)
(5.68899e-09 -7.24042e-08 0)
(1.71346e-08 -7.13264e-08 0)
(2.82431e-08 -6.91972e-08 0)
(3.8814e-08 -6.60806e-08 0)
(4.86552e-08 -6.20711e-08 0)
(5.76245e-08 -5.72953e-08 0)
(6.55969e-08 -5.18927e-08 0)
(7.25021e-08 -4.60174e-08 0)
(7.82852e-08 -3.98184e-08 0)
(8.2942e-08 -3.34445e-08 0)
(8.64756e-08 -2.70273e-08 0)
(8.89335e-08 -2.06895e-08 0)
(9.03604e-08 -1.45277e-08 0)