/*--------------------------------*- C++ -*----------------------------------*\
| =========                 |                                                 |
| \\      /  F ield         | OpenFOAM: The Open Source CFD Toolbox           |
|  \\    /   O peration     | Version:  2412                                  |
|   \\  /    A nd           | Website:  www.openfoam.com                      |
|    \\/     M anipulation  |                                                 |
\*---------------------------------------------------------------------------*/
FoamFile
{
    version     2.0;
    format      ascii;
    arch        "LSB;label=32;scalar=64";
    class       volScalarField;
    location    "5.34";
    object      p;
}
// * * * * * * * * * * * * * * * * * * * * * * * * * * * * * * * * * * * * * //

dimensions      [1 -1 -2 0 0 0 0];

internalField   nonuniform List<scalar> 
80000
(
29779
29779.1
29779.4
29779.7
29780.2
29780.7
29781.4
29782.2
29783.1
29784.1
29785.2
29786.5
29787.8
29789.3
29790.9
29792.6
29794.4
29796.3
29798.3
29800.5
29802.8
29805.2
29807.7
29810.3
29813
29815.9
29818.9
29821.9
29825.2
29828.5
29831.9
29835.5
29839.2
29842.9
29846.9
29850.9
29855
29859.3
29863.7
29868.2
29872.8
29877.5
29882.4
29887.4
29892.5
29897.7
29903
29908.5
29914.1
29919.7
29925.6
29931.5
29937.5
29943.7
29950
29956.4
29962.9
29969.5
29976.3
29983.2
29990.1
29997.3
30004.5
30011.8
30019.3
30026.9
30034.6
30042.4
30050.3
30058.3
30066.5
30074.7
30083.1
30091.6
30100.2
30108.9
30117.8
30126.7
30135.8
30144.9
30154.2
30163.6
30173.1
30182.7
30192.4
30202.2
30212.1
30222.1
30232.2
30242.4
30252.8
30263.2
30273.7
30284.3
30295
30305.8
30316.7
30327.7
30338.8
30350
30361.2
30372.6
30384
30395.5
30407.1
30418.8
30430.5
30442.3
30454.2
30466.2
30478.3
30490.4
30502.5
30514.8
30527.1
30539.4
30551.9
30564.3
30576.9
30589.4
30602
30614.7
30627.4
30640.2
30652.9
30665.7
30678.6
30691.4
30704.3
30717.2
30730.2
30743.1
30756.1
30769
30782
30794.9
30807.9
30820.8
30833.8
30846.7
30859.6
30872.4
30885.3
30898.1
30910.9
30923.6
30936.3
30948.9
30961.5
30974
30986.5
30998.9
31011.2
31023.5
31035.6
31047.7
31059.7
31071.5
31083.3
31095
31106.5
31118
31129.3
31140.4
31151.5
31162.4
31173.1
31183.7
31194.1
31204.4
31214.5
31224.4
31234.2
31243.7
31253.1
31262.2
31271.2
31279.9
31288.4
31296.7
31304.7
31312.5
31320.1
31327.4
31334.4
31341.2
31347.7
31354
31359.9
31365.6
31370.9
31376
31380.7
31385.1
31389.2
31393
31396.4
31399.5
31402.2
31404.5
31406.5
31408.2
31409.4
31410.3
31410.7
31410.8
31410.4
31409.7
31408.5
31406.9
31404.9
31402.4
31399.5
31396.1
31392.2
31387.9
31383.2
31377.9
31372.2
31365.9
31359.2
31352
31344.3
31336
31327.2
31318
31308.1
31297.8
31286.9
31275.4
31263.4
31250.9
31237.7
31224
31209.8
31194.9
31179.5
31163.5
31146.9
31129.7
31112
31093.6
31074.6
31055
31034.8
31014
30992.6
30970.5
30947.8
30924.5
30900.6
30876.1
30850.9
30825.1
30798.7
30771.7
30744
30715.7
30686.7
30657.1
30626.9
30596.1
30564.6
30532.6
30499.9
30466.5
30432.6
30398.1
30362.9
30327.1
30290.8
30253.8
30216.2
30178.1
30139.3
30100
30060.2
30019.8
29978.8
29937.3
29895.2
29852.6
29809.5
29765.9
29721.8
29677.3
29632.2
29586.7
29540.8
29494.5
29447.7
29400.5
29353
29305
29256.8
29208.2
29159.4
29110.2
29060.8
29011.2
28961.4
28911.4
28861.2
28810.9
28760.4
28709.9
28659.3
28608.7
28558.1
28507.6
28457.1
28406.7
28356.5
28306.5
28256.7
28207.1
28157.8
28108.9
28060.3
28012.1
27964.4
27917.2
27870.5
27824.4
27778.9
27734.1
27690
27646.6
27604
27562.3
27521.4
27481.4
27442.3
27404.2
27367.1
27331.1
27296.1
27262.2
27229.5
27197.9
27167.5
27138.3
27110.3
27083.6
27058.1
27034
27011.1
26989.5
26969.3
26950.4
26932.9
26916.8
26902
26888.6
26876.7
26866.1
26857
26849.3
26843
26838.2
26834.8
26832.9
26832.5
26833.6
26836.2
26840.3
26846
26853.2
26861.9
26872.2
26884.1
26897.6
26912.6
26929.3
26947.6
26967.5
26989
27012.2
27037
27063.4
27091.5
27121.2
27152.6
27185.6
27220.2
27256.5
27294.3
27333.7
27374.7
27417.1
27461.1
27506.6
27553.4
27601.7
27651.2
27702.1
27754.1
27807.3
27861.6
27916.9
27973.1
28030.2
28088
28146.5
28205.5
28265
28324.9
28385.1
28445.4
28505.7
28566
28626
28685.7
28745
28803.7
28861.8
28919.1
28975.4
29030.8
29085
29138
29189.7
29240
29288.7
29335.8
29381.2
29424.8
29466.5
29506.3
29544
29579.8
29613.4
29644.9
29674.2
29701.3
29726.2
29748.8
29769.1
29787.1
29802.9
29816.3
29827.5
29836.5
29843.2
29847.6
29849.9
29850
29848
29843.9
29837.8
29829.7
29819.7
29807.7
29794
29778.5
29761.2
29742.3
29721.9
29699.9
29676.5
29651.8
29625.7
29598.5
29570.1
29540.6
29510.2
29478.9
29446.7
29413.7
29380.2
29346.1
29311.4
29276.4
29241
29205.4
29169.6
29133.8
29098
29062.2
29026.6
28991.2
28956.1
28921.4
28887.3
28853.7
28820.7
28788.4
28757
28726.3
28696.5
28667.7
28640
28613.3
28587.9
28563.6
28540.7
28519
28498.7
28479.8
28462.3
28446.3
28431.8
28418.8
28407.3
28397.4
28389.1
28382.4
28377.3
28373.8
28371.8
28371.5
28372.6
28375.3
28379.5
28385.1
28392.2
28400.7
28410.5
28421.6
28433.9
28447.5
28462.1
28477.9
28494.6
28512.3
28530.8
28550.1
28570.1
28590.8
28612
28633.6
28655.6
28678
28700.5
28723.2
28746
28768.7
28791.3
28813.8
28836
28858
28879.5
28900.6
28921.3
28941.4
28960.9
28979.8
28998.1
29015.6
29032.5
29048.5
29063.8
29078.4
29092.2
29105.2
29117.4
29128.8
29139.5
29149.5
29158.7
29167.2
29175
29182.1
29188.7
29194.6
29199.9
29204.7
29209
29212.8
29216.1
29219.1
29221.6
29223.8
29225.6
29227.2
29228.5
29229.5
29230.3
29230.9
29231.4
29231.6
29231.7
29231.7
29231.5
29231.2
29230.8
29230.2
29229.5
29228.7
29227.7
29226.6
29225.3
29223.8
29222.2
29220.3
29218.1
29215.7
29213
29209.9
29206.5
29202.7
29198.5
29193.9
29188.7
29183.1
29176.8
29170.1
29162.7
29154.6
29145.9
29136.4
29126.3
29115.4
29103.7
29091.2
29077.9
29063.8
29048.9
29033.1
29016.6
28999.2
28981
28962
28942.4
28922
28901
28879.4
28857.2
28834.5
28811.4
28788
28764.2
28740.4
28716.4
28692.4
28668.5
28644.9
28621.5
28598.5
28576.1
28554.2
28533.1
28512.9
28493.5
28475.2
28458.1
28442.2
28427.6
28414.4
28402.7
28392.6
28384.2
28377.5
28372.6
28369.5
28368.3
28369
28371.7
28376.4
28383.1
28391.8
28402.5
28415.2
28430
28446.7
28465.3
28485.9
28508.4
28532.7
28558.7
28586.5
28615.9
28646.9
28679.4
28713.2
28748.4
28784.8
28822.3
28860.8
28900.2
28940.4
28981.3
29022.7
29064.5
29106.6
29148.9
29191.2
29233.4
29275.5
29317.1
29359
29399.5
29439.4
29478.4
29516.4
29553.3
29588.8
29623
29655.6
29686.6
29715.8
29743
29768.3
29791.3
29812.1
29830.4
29846.2
29859.4
29869.9
29877.6
29882.4
29884.1
29882.9
29878.4
29870.8
29859.9
29845.6
29828
29807
29782.7
29754.9
29723.7
29689.1
29651.2
29610.1
29565.7
29518.2
29467.6
29414
29357.5
29298.4
29236.7
29172.6
29106.3
29038.1
28968
28896.3
28823.3
28749
28673.9
28598
28521.7
28445.2
28368.6
28292.3
28216.5
28141.3
28067.1
27994
27922.2
27851.8
27783.2
27716.4
27651.6
27588.9
27528.4
27470.4
27414.8
27361.8
27311.5
27263.9
27219
27177
27137.8
27101.5
27068.2
27037.7
27010.2
26985.5
26963.8
26945
26929
26915.9
26905.6
26898.1
26893.3
26891.3
26891.9
26895.1
26900.9
26909.2
26920
26933.3
26948.9
26966.9
26987.2
27009.7
27034.4
27061.3
27090.2
27121.2
27154.2
27189.2
27226
27264.7
27305.2
27347.4
27391.3
27436.9
27484.1
27532.8
27583
27634.6
27687.6
27741.9
27797.6
27854.4
27912.4
27971.5
28031.6
28092.7
28154.8
28217.7
28281.4
28345.9
28411
28476.7
28543
28609.7
28676.9
28744.3
28812
28879.8
28947.7
29015.6
29083.6
29151.3
29219.1
29286.4
29353.4
29420.1
29486.3
29552
29617
29681.5
29745.2
29808.2
29870.4
29931.8
29992.2
30051.8
30110.4
30168
30224.5
30280
30334.4
30387.6
30439.6
30490.5
30540.2
30588.6
30635.7
30681.5
30726.1
30769.3
30811.1
30851.6
30890.7
30928.5
30964.8
30999.7
31033.2
31065.4
31096
31125.3
31153.1
31179.6
31204.6
31228.2
31250.4
31271.2
31290.7
31308.8
31325.5
31340.9
31354.9
31367.7
31379.1
31389.3
31398.2
31405.9
31412.3
31417.6
31421.7
31424.6
31426.4
31427.1
31426.7
31425.3
31422.8
31419.3
31414.9
31409.4
31403.1
31395.8
31387.6
31378.6
31368.8
31358.2
31346.7
31334.6
31321.7
31308.1
31293.9
31279
31263.5
31247.4
31230.7
31213.5
31195.8
31177.6
31159
31139.9
31120.4
31100.5
31080.3
31059.7
31038.9
31017.7
30996.3
30974.7
30952.8
30930.8
30908.6
30886.2
30863.7
30841.2
30818.5
30795.8
30773
30750.2
30727.4
30704.6
30681.8
30659.1
30636.5
30613.9
30591.5
30569.1
30546.9
30524.8
30502.9
30481.2
30459.6
30438.3
30417.1
30396.2
30375.5
30355.1
30334.9
30315
30295.3
30276
30256.9
30238.1
30219.7
30201.5
30183.7
30166.3
30149.1
30132.3
30115.9
30099.8
30084.1
30068.8
30053.8
30039.3
30025.1
30011.2
29997.8
29984.8
29972.2
29960
29948.2
29936.8
29925.8
29915.3
29905.1
29895.4
29886.1
29877.2
29868.8
29860.8
29853.2
29846.1
29839.4
29833.1
29827.3
29821.9
29816.9
29812.4
29808.4
29804.8
29801.6
29798.9
29796.6
29794.8
29793.5
29792.5
29792.1
29043
29043.2
29043.4
29043.7
29044.2
29044.7
29045.4
29046.2
29047.1
29048.1
29049.2
29050.5
29051.8
29053.3
29054.9
29056.6
29058.4
29060.3
29062.3
29064.5
29066.8
29069.2
29071.7
29074.3
29077
29079.9
29082.9
29086
29089.2
29092.5
29095.9
29099.5
29103.2
29107
29110.9
29114.9
29119
29123.3
29127.7
29132.2
29136.8
29141.6
29146.4
29151.4
29156.5
29161.7
29167
29172.5
29178.1
29183.8
29189.6
29195.5
29201.5
29207.7
29214
29220.4
29226.9
29233.5
29240.3
29247.2
29254.2
29261.3
29268.5
29275.8
29283.3
29290.9
29298.6
29306.4
29314.3
29322.3
29330.5
29338.8
29347.2
29355.6
29364.3
29373
29381.8
29390.8
29399.8
29409
29418.2
29427.6
29437.1
29446.7
29456.4
29466.2
29476.1
29486.2
29496.3
29506.5
29516.8
29527.2
29537.8
29548.4
29559.1
29569.9
29580.8
29591.8
29602.9
29614
29625.3
29636.6
29648.1
29659.6
29671.2
29682.9
29694.6
29706.5
29718.4
29730.3
29742.4
29754.5
29766.7
29778.9
29791.2
29803.6
29816
29828.5
29841
29853.6
29866.2
29878.9
29891.6
29904.3
29917.1
29929.9
29942.8
29955.6
29968.5
29981.5
29994.4
30007.3
30020.3
30033.2
30046.2
30059.2
30072.1
30085.1
30098
30110.9
30123.8
30136.7
30149.6
30162.4
30175.2
30187.9
30200.6
30213.3
30225.9
30238.4
30250.9
30263.3
30275.6
30287.8
30300
30312.1
30324.1
30335.9
30347.7
30359.4
30371
30382.4
30393.7
30404.9
30415.9
30426.9
30437.6
30448.2
30458.7
30468.9
30479
30489
30498.7
30508.3
30517.6
30526.8
30535.8
30544.5
30553
30561.3
30569.4
30577.2
30584.7
30592.1
30599.1
30605.9
30612.4
30618.7
30624.6
30630.3
30635.7
30640.7
30645.5
30649.9
30654
30657.8
30661.2
30664.3
30667
30669.4
30671.4
30673
30674.3
30675.1
30675.6
30675.7
30675.3
30674.6
30673.4
30671.8
30669.8
30667.3
30664.4
30661
30657.2
30652.9
30648.1
30642.9
30637.2
30630.9
30624.2
30617
30609.3
30601
30592.3
30583
30573.2
30562.8
30551.9
30540.5
30528.5
30515.9
30502.8
30489.1
30474.9
30460
30444.6
30428.6
30412
30394.8
30377.1
30358.7
30339.7
30320.1
30299.9
30279.1
30257.6
30235.6
30212.9
30189.6
30165.7
30141.2
30116
30090.2
30063.8
30036.7
30009
29980.7
29951.7
29922.2
29891.9
29861.1
29829.6
29797.6
29764.8
29731.5
29697.6
29663
29627.8
29592
29555.6
29518.7
29481.1
29442.9
29404.2
29364.9
29325
29284.5
29243.5
29202
29159.9
29117.3
29074.2
29030.6
28986.5
28941.9
28896.8
28851.3
28805.3
28758.9
28712.2
28665
28617.4
28569.4
28521.2
28472.6
28423.7
28374.5
28325.1
28275.4
28225.5
28175.5
28125.3
28074.9
28024.4
27973.8
27923.2
27872.6
27821.9
27771.3
27720.8
27670.4
27620.1
27570.1
27520.2
27470.6
27421.2
27372.3
27323.6
27275.4
27227.7
27180.4
27133.7
27087.5
27042
26997.2
26953
26909.6
26866.9
26825.1
26784.2
26744.1
26705
26666.9
26629.8
26593.7
26558.7
26524.8
26492
26460.4
26430
26400.8
26372.8
26346.1
26320.6
26296.4
26273.5
26252
26231.8
26212.9
26195.4
26179.2
26164.4
26151.1
26139.1
26128.5
26119.4
26111.7
26105.4
26100.6
26097.2
26095.3
26094.9
26096
26098.6
26102.7
26108.3
26115.5
26124.2
26134.5
26146.4
26159.8
26174.9
26191.5
26209.8
26229.7
26251.2
26274.4
26299.2
26325.6
26353.7
26383.4
26414.8
26447.8
26482.5
26518.7
26556.6
26596
26637
26679.5
26723.5
26769
26815.9
26864.1
26913.8
26964.7
27016.8
27070
27124.4
27179.8
27236.1
27293.2
27351.2
27409.8
27468.9
27528.6
27588.6
27648.8
27709.3
27769.7
27830.1
27890.3
27950.1
28009.6
28068.4
28126.6
28184
28240.6
28296
28350.4
28403.6
28455.4
28505.7
28554.6
28601.8
28647.2
28691
28732.8
28772.6
28810.5
28846.3
28880
28911.5
28940.9
28968
28992.9
29015.5
29035.9
29053.9
29069.7
29083.1
29094.3
29103.2
29109.9
29114.3
29116.6
29116.7
29114.6
29110.5
29104.3
29096.1
29086
29074
29060.2
29044.5
29027.2
29008.3
28987.7
28965.7
28942.2
28917.3
28891.2
28863.8
28835.4
28805.8
28775.3
28743.8
28711.5
28678.5
28644.9
28610.7
28575.9
28540.8
28505.3
28469.6
28433.8
28397.9
28361.9
28326.1
28290.3
28254.9
28219.7
28185
28150.7
28117.1
28084.1
28051.7
28020.2
27989.4
27959.6
27930.8
27903
27876.3
27850.8
27826.5
27803.5
27781.8
27761.5
27742.5
27725
27709
27694.4
27681.4
27669.9
27660
27651.7
27645
27639.9
27636.4
27634.5
27634.1
27635.3
27638
27642.2
27647.9
27655
27663.5
27673.4
27684.5
27696.9
27710.5
27725.2
27741
27757.9
27775.6
27794.2
27813.6
27833.7
27854.4
27875.7
27897.4
27919.5
27941.9
27964.6
27987.3
28010.2
28033
28055.7
28078.2
28100.5
28122.5
28144.1
28165.3
28186
28206.2
28225.7
28244.7
28263
28280.6
28297.4
28313.5
28328.8
28343.4
28357.2
28370.2
28382.4
28393.8
28404.5
28414.4
28423.6
28432.1
28439.9
28447
28453.5
28459.4
28464.7
28469.4
28473.7
28477.5
28480.8
28483.7
28486.2
28488.3
28490.2
28491.7
28493
28494
28494.8
28495.3
28495.8
28496
28496.1
28496.1
28495.9
28495.6
28495.1
28494.6
28493.9
28493.1
28492.1
28491
28489.7
28488.3
28486.6
28484.7
28482.6
28480.2
28477.5
28474.5
28471.1
28467.3
28463.2
28458.5
28453.4
28447.8
28441.6
28434.9
28427.5
28419.5
28410.8
28401.3
28391.2
28380.3
28368.6
28356.1
28342.9
28328.8
28313.8
28298.1
28281.5
28264.1
28245.9
28226.9
28207.2
28186.8
28165.7
28144
28121.8
28099
28075.9
28052.4
28028.6
28004.6
27980.5
27956.5
27932.5
27908.7
27885.3
27862.2
27839.7
27817.8
27796.6
27776.2
27756.8
27738.4
27721.2
27705.2
27690.6
27677.3
27665.6
27655.5
27647
27640.2
27635.2
27632.1
27630.9
27631.6
27634.3
27639
27645.6
27654.3
27665.1
27677.8
27692.6
27709.3
27728
27748.6
27771.1
27795.4
27821.5
27849.3
27878.8
27909.9
27942.4
27976.3
28011.6
28048.1
28085.7
28124.2
28163.7
28204
28244.9
28286.4
28328.3
28370.5
28412.9
28455.3
28497.7
28539.9
28581.7
28623.5
28664.2
28704.2
28743.3
28781.4
28818.4
28854.1
28888.4
28921.1
28952.2
28981.5
29008.8
29034.2
29057.3
29078.2
29096.6
29112.5
29125.8
29136.4
29144.1
29149
29150.8
29149.6
29145.2
29137.6
29126.7
29112.4
29094.8
29073.8
29049.4
29021.6
28990.4
28955.8
28917.8
28876.6
28832.1
28784.5
28733.8
28680.1
28623.4
28564.2
28502.4
28438.1
28371.7
28303.3
28233
28161.2
28087.9
28013.5
27938.2
27862.2
27785.7
27709
27632.3
27555.8
27479.8
27404.5
27330.2
27256.9
27185
27114.5
27045.8
26978.9
26914
26851.2
26790.8
26732.7
26677
26624
26573.6
26526
26481.1
26439.1
26399.9
26363.6
26330.3
26299.8
26272.3
26247.7
26226
26207.2
26191.2
26178.2
26167.9
26160.4
26155.7
26153.6
26154.3
26157.5
26163.3
26171.7
26182.5
26195.8
26211.5
26229.5
26249.8
26272.4
26297.1
26324
26353
26384
26417
26452
26488.9
26527.6
26568.1
26610.4
26654.3
26699.9
26747.1
26795.9
26846.1
26897.7
26950.8
27005.2
27060.8
27117.7
27175.7
27234.8
27295
27356.1
27418.2
27481.2
27545
27609.5
27674.6
27740.4
27806.7
27873.5
27940.6
28008.1
28075.9
28143.7
28211.7
28279.7
28347.7
28415.5
28483.3
28550.7
28617.7
28684.4
28750.7
28816.4
28881.5
28946
29009.7
29072.8
29135
29196.4
29256.9
29316.5
29375.1
29432.7
29489.3
29544.8
29599.2
29652.4
29704.5
29755.4
29805.1
29853.5
29900.7
29946.5
29991.1
30034.3
30076.2
30116.7
30155.8
30193.5
30229.9
30264.8
30298.4
30330.5
30361.1
30390.4
30418.3
30444.7
30469.7
30493.3
30515.5
30536.3
30555.8
30573.9
30590.6
30605.9
30620
30632.7
30644.1
30654.3
30663.2
30670.9
30677.3
30682.6
30686.6
30689.6
30691.3
30692
30691.6
30690.2
30687.7
30684.2
30679.7
30674.2
30667.9
30660.6
30652.4
30643.4
30633.5
30622.9
30611.4
30599.2
30586.3
30572.7
30558.5
30543.6
30528
30511.9
30495.2
30478
30460.3
30442.1
30423.4
30404.3
30384.8
30365
30344.7
30324.1
30303.3
30282.1
30260.7
30239
30217.2
30195.1
30172.9
30150.5
30128
30105.4
30082.7
30060
30037.2
30014.4
29991.6
29968.8
29946
29923.3
29900.7
29878.1
29855.6
29833.3
29811
29789
29767
29745.3
29723.7
29702.4
29681.2
29660.3
29639.6
29619.2
29599
29579
29559.4
29540
29520.9
29502.2
29483.7
29465.6
29447.8
29430.3
29413.2
29396.4
29379.9
29363.9
29348.2
29332.8
29317.9
29303.3
29289.1
29275.3
29261.8
29248.8
29236.2
29224
29212.2
29200.8
29189.8
29179.3
29169.1
29159.4
29150.1
29141.2
29132.8
29124.8
29117.2
29110.1
29103.4
29097.1
29091.3
29085.9
29080.9
29076.4
29072.4
29068.8
29065.6
29062.9
29060.6
29058.8
29057.5
29056.5
29056.1
28306.8
28306.9
28307.1
28307.5
28307.9
28308.5
28309.2
28309.9
28310.8
28311.9
28313
28314.2
28315.6
28317
28318.6
28320.3
28322.1
28324.1
28326.1
28328.3
28330.5
28332.9
28335.4
28338.1
28340.8
28343.7
28346.6
28349.7
28352.9
28356.2
28359.7
28363.2
28366.9
28370.7
28374.6
28378.7
28382.8
28387.1
28391.5
28396
28400.6
28405.3
28410.2
28415.2
28420.3
28425.5
28430.8
28436.3
28441.8
28447.5
28453.3
28459.3
28465.3
28471.5
28477.8
28484.2
28490.7
28497.3
28504.1
28511
28517.9
28525.1
28532.3
28539.6
28547.1
28554.7
28562.4
28570.2
28578.1
28586.1
28594.3
28602.6
28611
28619.5
28628.1
28636.8
28645.6
28654.6
28663.6
28672.8
28682.1
28691.5
28700.9
28710.5
28720.3
28730.1
28740
28750
28760.1
28770.4
28780.7
28791.1
28801.6
28812.2
28823
28833.8
28844.7
28855.7
28866.8
28878
28889.2
28900.6
28912
28923.5
28935.1
28946.8
28958.6
28970.4
28982.3
28994.3
29006.4
29018.5
29030.7
29042.9
29055.2
29067.6
29080
29092.5
29105.1
29117.6
29130.3
29143
29155.7
29168.4
29181.2
29194
29206.9
29219.8
29232.7
29245.6
29258.6
29271.5
29284.5
29297.5
29310.4
29323.4
29336.4
29349.3
29362.3
29375.2
29388.2
29401
29413.9
29426.7
29439.5
29452.3
29465
29477.7
29490.3
29502.8
29515.3
29527.7
29540.1
29552.3
29564.5
29576.6
29588.6
29600.5
29612.3
29624
29635.6
29647
29658.4
29669.6
29680.6
29691.6
29702.3
29713
29723.4
29733.7
29743.9
29753.8
29763.6
29773.2
29782.5
29791.7
29800.7
29809.4
29818
29826.3
29834.4
29842.2
29849.8
29857.1
29864.2
29871
29877.6
29883.8
29889.8
29895.5
29900.9
29906
29910.7
29915.2
29919.3
29923.1
29926.5
29929.6
29932.4
29934.8
29936.8
29938.5
29939.7
29940.6
29941.1
29941.2
29940.9
29940.1
29939
29937.4
29935.4
29932.9
29930
29926.7
29922.9
29918.6
29913.8
29908.6
29902.9
29896.7
29890
29882.8
29875.1
29866.8
29858.1
29848.8
29839
29828.7
29817.8
29806.3
29794.4
29781.8
29768.7
29755
29740.8
29725.9
29710.5
29694.5
29677.9
29660.8
29643
29624.6
29605.6
29586
29565.8
29545
29523.6
29501.5
29478.8
29455.5
29431.6
29407.1
29381.9
29356.1
29329.6
29302.6
29274.9
29246.5
29217.6
29188
29157.7
29126.9
29095.4
29063.3
29030.5
28997.2
28963.2
28928.6
28893.4
28857.6
28821.2
28784.2
28746.6
28708.4
28669.6
28630.3
28590.3
28549.8
28508.8
28467.2
28425.1
28382.5
28339.3
28295.6
28251.5
28206.8
28161.7
28116.1
28070.1
28023.7
27976.8
27929.6
27881.9
27833.9
27785.6
27737
27688
27638.8
27589.2
27539.5
27489.6
27439.4
27389.1
27338.7
27288.1
27237.5
27186.8
27136
27085.3
27034.6
26984
26933.5
26883.2
26833
26783
26733.3
26683.9
26634.8
26586.1
26537.8
26489.9
26442.6
26395.8
26349.5
26303.9
26259
26214.7
26171.2
26128.5
26086.6
26045.6
26005.5
25966.3
25928.1
25890.9
25854.8
25819.7
25785.8
25753
25721.3
25690.9
25661.6
25633.6
25606.8
25581.3
25557.1
25534.2
25512.7
25492.4
25473.5
25456
25439.8
25425.1
25411.7
25399.7
25389.1
25380
25372.2
25365.9
25361.1
25357.7
25355.8
25355.4
25356.4
25359
25363.1
25368.7
25375.9
25384.6
25394.8
25406.7
25420.1
25435.1
25451.8
25470
25489.9
25511.4
25534.5
25559.3
25585.8
25613.9
25643.6
25675
25708
25742.7
25778.9
25816.8
25856.3
25897.3
25939.9
25983.9
26029.5
26076.5
26124.9
26174.6
26225.6
26277.8
26331.3
26385.8
26441.3
26497.8
26555.1
26613.3
26672.1
26731.5
26791.3
26851.6
26912.1
26972.8
27033.5
27094.1
27154.6
27214.7
27274.4
27333.5
27392
27449.7
27506.5
27562.3
27616.9
27670.3
27722.4
27773
27822
27869.4
27915.2
27959
28001
28041.1
28079.1
28115.1
28148.9
28180.6
28210
28237.2
28262.2
28284.9
28305.2
28323.3
28339.1
28352.5
28363.7
28372.5
28379.2
28383.5
28385.7
28385.7
28383.5
28379.3
28373
28364.7
28354.4
28342.2
28328.3
28312.5
28295
28275.9
28255.2
28232.9
28209.3
28184.2
28157.9
28130.3
28101.6
28071.9
28041.2
28009.5
27977.1
27943.9
27910
27875.6
27840.7
27805.4
27769.7
27733.8
27697.8
27661.7
27625.6
27589.5
27553.7
27518
27482.7
27447.9
27413.5
27379.7
27346.5
27314
27282.3
27251.5
27221.6
27192.6
27164.7
27137.9
27112.3
27088
27064.9
27043.1
27022.7
27003.7
26986.1
26970
26955.5
26942.4
26930.9
26921
26912.7
26906
26900.9
26897.4
26895.5
26895.2
26896.4
26899.2
26903.4
26909.2
26916.4
26924.9
26934.9
26946.1
26958.6
26972.4
26987.2
27003.2
27020.1
27038
27056.7
27076.3
27096.5
27117.4
27138.8
27160.7
27183
27205.6
27228.4
27251.3
27274.3
27297.3
27320.1
27342.8
27365.3
27387.4
27409.1
27430.4
27451.2
27471.5
27491.1
27510.2
27528.6
27546.2
27563.1
27579.2
27594.6
27609.1
27622.9
27635.9
27648.1
27659.5
27670.2
27680.1
27689.2
27697.6
27705.4
27712.5
27718.9
27724.7
27730
27734.7
27738.8
27742.6
27745.8
27748.6
27751.1
27753.2
27755
27756.4
27757.7
27758.6
27759.4
27759.9
27760.3
27760.5
27760.6
27760.5
27760.3
27760
27759.6
27759.1
27758.4
27757.6
27756.7
27755.6
27754.3
27752.9
27751.3
27749.4
27747.4
27745
27742.4
27739.4
27736.1
27732.3
27728.2
27723.7
27718.6
27713
27706.9
27700.2
27692.9
27684.9
27676.2
27666.9
27656.8
27645.9
27634.3
27621.8
27608.5
27594.4
27579.5
27563.7
27547.1
27529.7
27511.4
27492.4
27472.6
27452.1
27430.9
27409.1
27386.7
27363.9
27340.6
27316.9
27293
27268.8
27244.6
27220.3
27196.2
27172.3
27148.6
27125.4
27102.7
27080.6
27059.2
27038.7
27019.1
27000.6
26983.2
26967.1
26952.3
26938.9
26927.1
26916.8
26908.2
26901.4
26896.4
26893.2
26891.9
26892.6
26895.2
26899.9
26906.5
26915.2
26926
26938.7
26953.5
26970.3
26989.1
27009.7
27032.3
27056.7
27082.9
27110.8
27140.4
27171.6
27204.2
27238.3
27273.7
27310.3
27348.1
27386.8
27426.5
27466.9
27508
27549.7
27591.8
27634.2
27676.8
27719.4
27762
27804.4
27846.4
27888.4
27929.4
27969.6
28008.9
28047.2
28084.4
28120.4
28154.9
28187.8
28219.1
28248.6
28276.2
28301.7
28325.1
28346.1
28364.7
28380.8
28394.3
28405
28412.9
28417.9
28419.8
28418.7
28414.4
28406.8
28396
28381.8
28364.2
28343.2
28318.7
28290.9
28259.6
28224.9
28186.8
28145.4
28100.7
28052.9
28002
27948
27891.1
27831.5
27769.4
27704.9
27638.2
27569.4
27498.8
27426.6
27353
27278.3
27202.6
27126.2
27049.4
26972.3
26895.3
26818.5
26742.2
26666.7
26592
26518.5
26446.4
26375.7
26306.8
26239.7
26174.6
26111.7
26051.1
25992.9
25937.2
25884.1
25833.7
25786
25741.1
25699
25659.8
25623.6
25590.2
25559.8
25532.3
25507.7
25486.1
25467.3
25451.4
25438.4
25428.2
25420.8
25416.1
25414.1
25414.8
25418.1
25424
25432.4
25443.3
25456.7
25472.4
25490.5
25510.8
25533.5
25558.3
25585.2
25614.3
25645.3
25678.4
25713.5
25750.4
25789.2
25829.8
25872.1
25916.1
25961.8
26009
26057.8
26108.1
26159.8
26212.9
26267.3
26323
26380
26438.1
26497.2
26557.5
26618.7
26680.9
26743.9
26807.8
26872.3
26937.6
27003.5
27069.9
27136.7
27204
27271.6
27339.4
27407.4
27475.4
27543.6
27611.6
27679.6
27747.4
27814.9
27882
27948.8
28015.1
28080.9
28146.1
28210.7
28274.5
28337.6
28400
28461.4
28522
28581.7
28640.3
28698
28754.6
28810.2
28864.6
28917.9
28970.1
29021
29070.7
29119.2
29166.4
29212.2
29256.8
29300.1
29342
29382.5
29421.7
29459.4
29495.8
29530.8
29564.3
29596.4
29627.1
29656.4
29684.2
29710.7
29735.7
29759.3
29781.5
29802.3
29821.7
29839.8
29856.5
29871.8
29885.8
29898.6
29910
29920.1
29929
29936.6
29943
29948.3
29952.3
29955.2
29956.9
29957.6
29957.2
29955.7
29953.2
29949.6
29945.1
29939.6
29933.2
29925.9
29917.7
29908.6
29898.7
29888
29876.5
29864.3
29851.4
29837.7
29823.4
29808.5
29792.9
29776.8
29760.1
29742.8
29725.1
29706.8
29688.1
29669
29649.5
29629.6
29609.3
29588.7
29567.8
29546.6
29525.1
29503.5
29481.6
29459.5
29437.2
29414.8
29392.3
29369.7
29347
29324.2
29301.4
29278.6
29255.7
29232.9
29210.1
29187.4
29164.7
29142.2
29119.7
29097.3
29075.1
29053
29031
29009.3
28987.7
28966.3
28945.2
28924.2
28903.5
28883
28862.8
28842.9
28823.2
28803.9
28784.8
28766
28747.6
28729.4
28711.6
28694.1
28677
28660.2
28643.7
28627.7
28611.9
28596.6
28581.6
28567.1
28552.9
28539
28525.6
28512.6
28500
28487.8
28476
28464.6
28453.6
28443
28432.9
28423.2
28413.9
28405
28396.6
28388.6
28381
28373.8
28367.1
28360.9
28355
28349.6
28344.7
28340.2
28336.1
28332.5
28329.4
28326.6
28324.4
28322.6
28321.2
28320.3
28319.8
27570.3
27570.4
27570.7
27571
27571.4
27572
27572.7
27573.5
27574.4
27575.4
27576.5
27577.7
27579.1
27580.6
27582.1
27583.8
27585.7
27587.6
27589.6
27591.8
27594.1
27596.4
27599
27601.6
27604.3
27607.2
27610.1
27613.2
27616.4
27619.8
27623.2
27626.8
27630.4
27634.2
27638.1
27642.2
27646.3
27650.6
27655
27659.5
27664.1
27668.8
27673.7
27678.7
27683.8
27689
27694.3
27699.8
27705.4
27711.1
27716.9
27722.8
27728.8
27735
27741.3
27747.7
27754.2
27760.9
27767.6
27774.5
27781.5
27788.6
27795.8
27803.2
27810.7
27818.2
27825.9
27833.7
27841.7
27849.7
27857.9
27866.2
27874.5
27883
27891.7
27900.4
27909.2
27918.2
27927.2
27936.4
27945.7
27955.1
27964.6
27974.2
27983.9
27993.7
28003.6
28013.7
28023.8
28034
28044.3
28054.8
28065.3
28075.9
28086.7
28097.5
28108.4
28119.4
28130.5
28141.7
28153
28164.3
28175.8
28187.3
28198.9
28210.6
28222.4
28234.2
28246.1
28258.1
28270.2
28282.3
28294.5
28306.8
28319.1
28331.5
28344
28356.5
28369
28381.6
28394.3
28406.9
28419.7
28432.4
28445.3
28458.1
28471
28483.9
28496.8
28509.7
28522.7
28535.7
28548.7
28561.6
28574.6
28587.6
28600.6
28613.6
28626.6
28639.5
28652.5
28665.4
28678.3
28691.1
28704
28716.7
28729.5
28742.2
28754.8
28767.4
28779.9
28792.3
28804.7
28817
28829.2
28841.3
28853.3
28865.3
28877.1
28888.8
28900.4
28911.9
28923.2
28934.5
28945.6
28956.5
28967.3
28978
28988.5
28998.8
29009
29018.9
29028.7
29038.3
29047.8
29057
29066
29074.8
29083.3
29091.7
29099.8
29107.6
29115.3
29122.6
29129.7
29136.6
29143.2
29149.5
29155.5
29161.2
29166.6
29171.7
29176.5
29181
29185.1
29189
29192.4
29195.6
29198.3
29200.8
29202.8
29204.5
29205.8
29206.7
29207.2
29207.3
29207.1
29206.3
29205.2
29203.7
29201.7
29199.3
29196.4
29193.1
29189.3
29185
29180.3
29175.1
29169.4
29163.2
29156.5
29149.3
29141.6
29133.4
29124.7
29115.4
29105.7
29095.3
29084.5
29073
29061.1
29048.5
29035.4
29021.7
29007.5
28992.7
28977.3
28961.3
28944.7
28927.5
28909.8
28891.4
28872.4
28852.8
28832.6
28811.8
28790.3
28768.3
28745.6
28722.3
28698.3
28673.8
28648.6
28622.8
28596.3
28569.2
28541.5
28513.1
28484.1
28454.5
28424.3
28393.4
28361.9
28329.7
28297
28263.6
28229.6
28194.9
28159.7
28123.9
28087.4
28050.3
28012.7
27974.4
27935.6
27896.2
27856.2
27815.7
27774.6
27732.9
27690.8
27648.1
27604.8
27561.1
27516.9
27472.1
27426.9
27381.3
27335.2
27288.7
27241.7
27194.4
27146.7
27098.6
27050.2
27001.4
26952.3
26903
26853.4
26803.5
26753.5
26703.2
26652.8
26602.2
26551.6
26500.8
26450
26399.1
26348.3
26297.4
26246.7
26196.1
26145.6
26095.3
26045.2
25995.3
25945.7
25896.5
25847.7
25799.2
25751.2
25703.7
25656.8
25610.4
25564.6
25519.6
25475.2
25431.6
25388.7
25346.7
25305.6
25265.3
25226.1
25187.8
25150.5
25114.3
25079.1
25045.1
25012.2
24980.5
24950
24920.7
24892.6
24865.8
24840.3
24816.1
24793.2
24771.6
24751.3
24732.4
24714.8
24698.7
24683.9
24670.5
24658.5
24647.9
24638.7
24630.9
24624.6
24619.8
24616.4
24614.4
24614
24615
24617.6
24621.6
24627.2
24634.3
24643
24653.2
24665
24678.4
24693.4
24710
24728.2
24748.1
24769.5
24792.7
24817.5
24843.9
24872
24901.7
24933.1
24966.1
25000.8
25037.1
25075
25114.6
25155.7
25198.3
25242.5
25288.2
25335.3
25383.8
25433.7
25484.9
25537.3
25590.9
25645.7
25701.5
25758.2
25815.8
25874.3
25933.4
25993.1
26053.3
26113.9
26174.8
26235.8
26296.9
26358
26418.8
26479.4
26539.5
26599.1
26658
26716.1
26773.3
26829.5
26884.5
26938.3
26990.7
27041.7
27091.1
27138.9
27184.9
27229.1
27271.4
27311.7
27349.9
27386.1
27420.1
27452
27481.6
27508.9
27534
27556.7
27577.2
27595.2
27611
27624.4
27635.6
27644.4
27650.9
27655.2
27657.2
27657.1
27654.8
27650.3
27643.9
27635.4
27624.9
27612.5
27598.3
27582.3
27564.6
27545.2
27524.2
27501.7
27477.7
27452.4
27425.8
27397.9
27369
27338.9
27307.9
27276
27243.2
27209.7
27175.6
27140.9
27105.7
27070.1
27034.2
26998
26961.7
26925.3
26888.9
26852.6
26816.5
26780.7
26745.2
26710
26675.4
26641.4
26608
26575.4
26543.5
26512.4
26482.3
26453.2
26425.2
26398.3
26372.5
26348
26324.8
26302.9
26282.4
26263.3
26245.7
26229.5
26214.9
26201.8
26190.3
26180.3
26172
26165.3
26160.2
26156.8
26154.9
26154.6
26155.9
26158.7
26163.1
26168.9
26176.2
26185
26195
26206.4
26219.1
26233
26248
26264.2
26281.3
26299.4
26318.4
26338.2
26358.6
26379.8
26401.4
26423.6
26446.1
26468.9
26492
26515.2
26538.4
26561.6
26584.7
26607.6
26630.2
26652.6
26674.5
26696
26717
26737.4
26757.2
26776.3
26794.8
26812.5
26829.5
26845.7
26861.1
26875.7
26889.5
26902.4
26914.6
26926
26936.6
26946.4
26955.5
26963.9
26971.6
26978.5
26984.9
26990.6
26995.8
27000.4
27004.5
27008.1
27011.2
27014
27016.3
27018.4
27020
27021.4
27022.6
27023.5
27024.2
27024.7
27025
27025.2
27025.2
27025.1
27024.9
27024.6
27024.2
27023.6
27023
27022.2
27021.3
27020.3
27019.1
27017.7
27016.1
27014.3
27012.3
27010
27007.5
27004.6
27001.3
26997.7
26993.7
26989.2
26984.2
26978.8
26972.7
26966.1
26958.9
26951
26942.4
26933.1
26923
26912.2
26900.6
26888.2
26874.9
26860.8
26845.9
26830.1
26813.4
26795.9
26777.6
26758.4
26738.5
26717.9
26696.6
26674.6
26652.1
26629
26605.5
26581.6
26557.4
26533
26508.5
26484
26459.6
26435.4
26411.5
26388
26365
26342.6
26321
26300.2
26280.4
26261.6
26244
26227.7
26212.7
26199.2
26187.1
26176.7
26168
26161
26155.9
26152.6
26151.3
26151.9
26154.5
26159.1
26165.7
26174.4
26185.2
26198
26212.8
26229.7
26248.5
26269.3
26292
26316.5
26342.8
26370.9
26400.6
26432
26464.8
26499.1
26534.7
26571.5
26609.5
26648.5
26688.4
26729.1
26770.5
26812.5
26854.9
26897.6
26940.5
26983.4
27026.3
27069.1
27111.5
27153.6
27194.9
27235.5
27275.2
27313.9
27351.4
27387.6
27422.5
27455.8
27487.4
27517.2
27545.1
27571
27594.6
27615.9
27634.8
27651.2
27664.9
27675.9
27684
27689.2
27691.3
27690.3
27686.1
27678.6
27667.8
27653.7
27636.1
27615.1
27590.6
27562.6
27531.2
27496.3
27458.1
27416.4
27371.5
27323.4
27272.1
27217.8
27160.4
27100.5
27037.9
26973
26905.8
26836.5