/*--------------------------------*- C++ -*----------------------------------*\
| =========                 |                                                 |
| \\      /  F ield         | OpenFOAM: The Open Source CFD Toolbox           |
|  \\    /   O peration     | Version:  2412                                  |
|   \\  /    A nd           | Website:  www.openfoam.com                      |
|    \\/     M anipulation  |                                                 |
\*---------------------------------------------------------------------------*/
FoamFile
{
    version     2.0;
    format      ascii;
    arch        "LSB;label=32;scalar=64";
    class       volScalarField;
    location    "1.05";
    object      p_rgh;
}
// * * * * * * * * * * * * * * * * * * * * * * * * * * * * * * * * * * * * * //

dimensions      [1 -1 -2 0 0 0 0];

internalField   nonuniform List<scalar> 
6400
(
136576
136585
136603
136630
136666
136711
136764
136826
136897
136974
137059
137150
137247
137352
137458
137568
137681
137795
137910
138023
138134
138242
138346
138445
138539
138626
138707
138781
138849
138909
138962
139008
139046
139075
139095
139103
139099
139081
139049
139003
138943
138871
138790
138701
138609
138516
138425
138336
138253
138173
138099
138027
137959
137892
137825
137758
137689
137617
137544
137467
137389
137308
137226
137143
137060
136978
136897
136819
136745
136674
136607
136546
136491
136442
136399
136363
136334
136312
136298
136291
136567
136576
136594
136621
136657
136702
136756
136819
136889
136967
137052
137144
137242
137346
137453
137564
137677
137793
137908
138021
138133
138242
138347
138446
138540
138628
138710
138785
138853
138914
138968
139016
139055
139087
139108
139119
139117
139100
139069
139022
138961
138886
138801
138709
138613
138517
138423
138332
138247
138167
138093
138022
137954
137887
137821
137755
137686
137616
137542
137466
137388
137307
137225
137140
137057
136975
136894
136816
136740
136669
136602
136541
136485
136435
136392
136356
136327
136305
136291
136284
136549
136558
136576
136603
136640
136685
136740
136803
136874
136952
137039
137132
137231
137335
137444
137556
137670
137790
137906
138021
138134
138244
138350
138451
138546
138635
138718
138793
138863
138926
138982
139032
139074
139109
139134
139147
139147
139133
139101
139053
138988
138909
138818
138720
138618
138516
138418
138324
138237
138156
138082
138012
137945
137881
137816
137751
137684
137614
137542
137466
137387
137306
137223
137138
137054
136970
136888
136808
136732
136659
136592
136530
136473
136423
136379
136342
136313
136291
136276
136269
136522
136531
136549
136577
136614
136660
136715
136778
136851
136931
137018
137113
137214
137321
137432
137547
137664
137784
137904
138022
138137
138250
138358
138460
138557
138647
138731
138808
138878
138943
139002
139054
139100
139139
139169
139186
139190
139177
139146
139094
139025
138938
138839
138732
138621
138511
138407
138309
138220
138139
138065
137998
137934
137872
137811
137749
137684
137616
137544
137468
137389
137306
137222
137136
137049
136964
136879
136798
136719
136645
136576
136512
136455
136403
136359
136322
136292
136269
136255
136247
136485
136494
136513
136541
136578
136625
136681
136746
136820
136901
136991
137088
137192
137302
137416
137535
137656
137779
137902
138024
138143
138259
138369
138474
138572
138664
138749
138827
138899
138965
139026
139082
139133
139177
139212
139236
139245
139235
139204
139149
139072
138975
138864
138743
138620
138500
138387
138285
138193
138113
138042
137978
137919
137862
137806
137747
137685
137619
137548
137472
137392
137308
137222
137133
137044
136955
136868
136784
136703
136626
136555
136489
136430
136377
136332
136293
136263
136240
136225
136218
136439
136448
136467
136495
136533
136581
136638
136705
136780
136864
136957
137057
137164
137277
137396
137519
137645
137773
137901
138029
138152
138271
138385
138493
138593
138686
138771
138850
138922
138990
139053
139113
139169
139220
139264
139296
139313
139308
139278
139219
139132
139020
138891
138752
138612
138477
138355
138247
138154
138075
138009
137951
137900
137850
137800
137747
137689
137626
137556
137480
137399
137313
137223
137131
137038
136946
136855
136766
136682
136603
136528
136460
136398
136344
136297
136258
136226
136203
136187
136180
136383
136392
136411
136440
136479
136528
136586
136655
136732
136819
136914
137018
137129
137248
137372
137501
137633
137767
137901
138034
138164
138288
138406
138517
138619
138712
138798
138876
138948
139015
139080
139143
139205
139265
139320
139365
139393
139396
139369
139305
139205
139073
138918
138754
138591
138438
138303
138190
138096
138022
137964
137916
137875
137836
137795
137750
137697
137638
137569
137493
137409
137320
137226
137130
137032
136934
136838
136745
136656
136573
136495
136424
136360
136303
136255
136214
136181
136157
136141
136134
136316
136326
136345
136375
136415
136465
136525
136595
136675
136765
136864
136971
137088
137212
137342
137478
137618
137760
137902
138042
138179
138310
138432
138546
138650
138744
138828
138904
138973
139039
139103
139168
139236
139307
139376
139438
139483
139501
139479
139410
139292
139131
138942
138743
138548
138373
138224
138105
138014
137949
137903
137871
137845
137820
137792
137756
137711
137655
137589
137511
137425
137331
137232
137129
137024
136920
136818
136719
136624
136537
136455
136381
136314
136255
136204
136162
136128
136103
136087
136079
136240
136249
136269
136299
136340
136391
136453
136525
136608
136701
136804
136916
137038
137169
137307
137451
137600
137752
137904
138053
138198
138336
138465
138582
138688
138780
138861
138932
138995
139055
139116
139181
139253
139336
139423
139509
139580
139620
139611
139537
139395
139193
138955
138707
138471
138267
138102
137981
137898
137848
137823
137812
137808
137803
137792
137769
137733
137682
137616
137537
137447
137347
137240
137129
137016
136904
136794
136688
136589
136495
136408
136330
136260
136198
136145
136101
136067
136041
136024
136016
136152
136162
136182
136213
136255
136307
136371
136445
136531
136627
136735
136854
136981
137119
137265
137420
137579
137742
137906
138067
138223
138370
138505
138627
138733
138822
138897
138958
139010
139058
139109
139170
139246
139338
139447
139564
139674
139750
139763
139688
139513
139252
138943
138627
138338
138098
137919
137801
137735
137711
137716
137738
137765
137787
137797
137791
137766
137720
137655
137573
137476
137368
137252
137131
137007
136885
136766
136652
136545
136445
136353
136270
136197
136132
136077
136032
135996
135969
135952
135943
136054
136064
136085
136116
136159
136212
136277
136354
136442
136543
136655
136778
136912
137059
137216
137381
137554
137731
137909
138085
138254
138412
138555
138681
138787
138871
138935
138980
139013
139040
139071
139116
139186
139286
139420
139579
139743
139878
139934
139864
139643
139295
138882
138472
138112
137833
137646
137542
137508
137526
137578
137646
137715
137773
137812
137826
137813
137774
137708
137621
137516
137397
137268
137133
136997
136862
136732
136609
136493
136386
136289
136202
136124
136057
136000
135953
135915
135888
135870
135861
135945
135955
135976
136008
136051
136106
136172
136251
136342
136446
136562
136692
136836
136990
137157
137336
137523
137717
137913
138106
138292
138464
138617
138747
138853
138928
138975
138996
138998
138989
138983
138996
139043
139139
139295
139503
139746
139972
140106
140060
139775
139290
138724
138184
137738
137414
137237
137172
137195
137280
137400
137534
137660
137766
137841
137880
137882
137847
137780
137685
137567
137433
137287
137136
136984
136835
136691
136557
136432
136318
136215
136123
136042
135972
135912
135863
135825
135796
135778
135770
135825
135835
135856
135888
135931
135987
136055
136135
136229
136336
136456
136592
136742
136907
137086
137280
137485
137699
137917
138132
138339
138528
138694
138830
138932
138995
139018
139003
138958
138892
138823
138773
138769
138835
138990
139247
139592
139961
140230
140233
139858
139165
138371
137657
137115
136746
136635
136649
136768
136956
137176
137399
137603
137770
137891
137959
137976
137946
137874
137767
137632
137478
137312
137139
136968
136801
136644
136496
136361
136239
136129
136032
135948
135875
135814
135764
135724
135695
135676
135668
135693
135703
135724
135756
135800
135856
135925
136006
136102
136211
136336
136476
136633
136808
137000
137211
137437
137675
137920
138164
138396
138608
138790
138933
139030
139075
139065
138999
138884
138731
138559
138400
138292
138271
138365
138639
139106
139690
140198
140318
139791
138775
137648
136712
136111
135851
135774
135918
136193
136536
136899
137245
137550
137794
137970
138072
138105
138076
137995
137871
137714
137533
137339
137141
136945
136757
136582
136421
136276
136146
136030
135929
135842
135767
135704
135653
135613
135583
135564
135556
135550
135560
135580
135612
135656
135712
135781
135864
135960
136071
136198
136343
136506
136691
136897
137124
137375
137642
137921
138200
138467
138707
138908
139060
139152
139174
139120
138986
138774
138490
138155
137803
137486
137251
137170
137340
137910
138827
139760
140089
139288
137720
136076
134880
134308
134212
134441
134884
135428
136005
136568
137078
137512
137851
138090
138230
138278
138246
138149
138000
137812
137598
137369
137137
136912
136700
136505
136330
136174
136037
135917
135813
135723
135646
135583
135531
135490
135461
135442
135433
135395
135405
135425
135457
135500
135556
135624
135706
135803
135914
136043
136190
136358
136550
136768
137016
137291
137594
137916
138242
138553
138829
139056
139219
139303
139296
139186
138961
138614
138144
137558
136879
136131
135348
134707
134492
135174
136761
138468
139120
137922
135541
133098
131512
131254
131683
132475
133456
134433
135352
136185
136907
137503
137954
138271
138450
138507
138464
138342
138159
137931
137672
137398
137124
136863
136623
136408
136219
136054
135911
135787
135681
135590
135513
135449
135397
135356
135327
135308
135300
135229
135238
135258
135289
135331
135386
135453
135534
135630
135740
135868
136015
136185
136381
136608
136873
137179
137526
137903
138290
138658
138980
139237
139411
139483
139429
139234
138893
138388
137689
136769
135589
134103
132329
130607
129581
130225
132709
135788
137023
135186
131323
127624
125390
126506
127856
129767
131626
133236
134603
135763
136730
137511
138109
138520
138742
138802
138737
138578
138350
138071
137757
137424
137095
136790
136519
136284
136082
135911
135765
135640
135533
135442
135366
135303
135251
135211
135182
135164
135156
135052
135060
135079
135108
135149
135202
135268
135347
135440
135548
135673
135816
135983
136177
136408
136685
137019
137415
137867
138339
138784
139162
139453
139639
139682
139553
139269
138828
138172
137224
135917
134157
131818
128809
121790
104004
95640.1
115671
131337
133429
130173
104403
68710.5
56663.5
89312.5
113382
126415
129669
132024
133879
135386
136610
137574
138317
138831
139109
139167
139064
138854
138572
138232
137847
137436
137036
136679
136376
136123
135914
135740
135595
135473
135368
135280
135205
135143
135094
135055
135027
135009
135001
134864
134871
134888
134916
134955
135006
135070
135145
135234
135338
135458
135594
135750
135935
136159
136438
136791
137243
137799
138396
138946
139391
139723
139923
139944
139772
139410
138829
137950
136710
135045
132843
129323
107357
49258.2
9119.18
11300.5
41969.7
106846
130260
100878
27748.9
2774.06
299.795
84.8895
25183
88441.9
123564
130937
133228
135066
136583
137794
138726
139336
139608
139624
139456
139175
138827
138419
137952
137433
136929
136512
136180
135917
135707
135540
135403
135288
135188
135103
135031
134972
134925
134888
134861
134844
134836
134653
134659
134675
134700
134737
134787
134847
134919
135004
135102
135215
135339
135476
135638
135836
136094
136443
136945
137663
138477
139188
139710
140069
140291
140273
139818
138782
137470
136295
134823
130189
111580
69022.7
10694.3
3.12404
50.5142
321.954
1946.55
33396
80563.1
26634.7
743.679
217.904
93.9023
35.1223
13.694
1188.4
43217.1
91530.2
118667
130951
135867
137740
139051
140012
140175
140223
139926
139552
139135
138672
138096
137399
136722
136243
135900
135643
135445
135297
135178
135076
134983
134901
134834
134779
134735
134699
134673
134655
134648
37116.6
37439.2
37725.2
38194.9
38928
39919.1
41115.7
42478.3
43990.7
45574.5
47191.9
48997.7
51103.5
53617.1
56698
60659.4
65484.4
71654.2
79795.6
88046.1
95145.6
102616
108856
109413
100906
91163.2
80324
72195.5
69535.5
66708.2
48080.9
16832.7
-3.76027
-5.30026
-2.33406
5.38173
64.8132
354.302
1140.71
6658.02
587.641
115.902
112.913
58.472
19.7409
8.04169
7.27251
4.63094
3436.62
22844.2
48876.3
73154.6
90683.6
101185
101472
98693.6
102775
105243
101155
94456.2
88556.2
82575.3
75501.4
68367.2
62887.8
58669.1
55044.7
51897.6
49242.5
46968
45187.4
43634.4
42243.5
41002.2
39994
39142.6
38440.9
37926
37592
37229.7
11.7925
10.8688
12.8453
17.1182
21.8316
25.5101
37.5573
64.196
89.3877
197.47
427.805
651.735
858.358
1063.21
1255.31
1341.85
1741.99
3502.67
10535.8
24054.9
34310.1
38244.8
40072
41890.2
33599.1
11392.9
1425.24
1.49137
1.17442
-0.583401
-5.68525
-6.09703
-4.65379
-5.17683
-4.56517
0.425791
23.5492
96.1337
227.643
489.459
65.3765
51.7262
94.0946
104.516
25.7509
7.34253
3.85979
0.881621
-4.04757
-8.26562
-10.0274
-2.16005
2327.77
10822.6
30326.4
47102.7
42675.7
30401.4
26896.8
26565.9
23271.5
15901.4
8435.27
3301.46
1239.31
554.666
370.531
376.074
439.988
525.155
361.139
180.332
61.6689
66.5921
40.101
19.4032
11.9813
9.45775
8.44618
10.0259
10.0903
10.7318
12.9389
23.0639
24.0388
17.0029
32.9107
54.6305
29.7987
63.444
791.246
1335.89
1391.67
1458.86
1465.69
1200.67
454.476
146.383
75.0052
5894.13
23516.7
28533.3
9773.96
714.413
1.10533
1.16136
1.33788
1.09277
0.558396
-0.458497
-1.52125
-2.5102
-4.00488
-4.36347
-3.49675
-2.77771
4.25038
12.6587
31.9514
67.6113
10.2754
6.86848
5.63032
38.0477
55.0612
54.6536
34.0962
1.81795
-4.18022
-4.23609
-2.54569
-1.29141
-3.0476
-4.82223
-4.1652
1.53215
4842.38
19139.2
27094.8
26750.2
25875.5
23785.6
7328.28
391.714
436.149
275.248
111.577
42.6333
269.363
779.669
729.067
183.443
6.51678
48.1206
60.818
17.7878
10.2328
8.76355
8.0985
8.01011
8.8622
9.1513
12.0172
10.7955
4.2304
0.693424
23.3794
48.6408
32.1226
0.156699
-4.73142
2.61785
41.8227
91.6009
191.092
283.027
284.511
77.8527
1.62228
-2.56829
-2.67908
-2.11612
-0.858438
0.941022
0.778019
0.726523
0.882601
1.25745
1.60471
1.73543
3.05434
2.41934
1.88763
-4.145
-4.65989
-4.7737
-0.185291
3.73974
3.51094
8.38472
7.45837
5.96811
5.12739
4.55331
22.4331
49.2104
45.4876
31.0601
1.49812
-3.90824
-4.51287
-3.90031
-3.30637
-2.70306
-1.83474
-1.31458
-4.71425
-6.45592
-3.27157
-1.05028
-0.459221
-1.42061
62.3306
256.883
684.981
567.545
87.5293
-5.90221
-7.4379
-6.61961
-5.66034
-1.56271
-0.389085
6.37368
18.5475
15.2386
7.7926
7.55611
7.40143
7.35026
7.19495
7.50038
9.58398
3.68839
0.145035
-3.1884
-5.50198
-6.92084
-6.93482
-5.99921
-4.75582
-3.36721
-2.26186
-1.51402
-0.962965
-0.158859
0.877487
0.513931
-1.81414
-2.16028
-1.33881
-0.506344
0.147004
0.575311
0.695617
0.640005
0.782235
1.31834
5.50496
6.51972
5.01917
3.85429
0.531301
-4.52318
-4.98338
-4.93248
-4.08601
-2.12697
1.29937
3.719
4.95436
4.57767
4.11518
3.69163
3.35732
2.7692
1.56009
-0.288515
-2.42277
-4.22942
-5.07861
-4.62228
-4.1477
-4.08174
-3.61268
-2.93865
-2.85345
-2.1467
-0.958379
0.408503
0.597369
0.174918
0.0482662
0.339704
-1.06495
-2.70601
-4.25004
-5.90189
-7.06863
-7.14533
-6.1033
-4.29588
-2.02737
0.408062
3.5842
7.875
6.57418
6.34966
6.48958
6.54843
5.2848
5.69089
5.8062
1.11358
-2.13333
-5.13471
-7.47243
-8.59541
-8.33238
-7.00782
-5.24444
-3.60283
-2.38961
-1.56658
-0.941459
-0.0954658
1.05919
0.499666
-0.785713
-1.83812
-1.40841
-0.570633
0.0446864
0.471796
0.55597
0.58365
0.826497
1.15556
2.2085
4.44098
6.34641
1.07973
-3.09005
-4.74252
-5.57136
-5.37588
-4.17576
-2.10855
0.373618
2.25091
3.12679
3.20425
3.0324
2.71333
2.35698
1.727
0.503576
-1.16499
-3.05406
-4.71681
-6.00353
-6.70715
-6.78164
-6.24694
-4.89886
-3.04723
-1.74141
-1.011
-0.14333
0.739893
1.02632
0.773726
-0.12703
-0.26584
-1.02072
-2.5727
-4.43692
-6.35291
-7.82303
-8.19981
-7.38996
-5.58014
-3.27911
-0.836118
1.6628
4.63916
5.13839
5.20454
5.4832
5.60356
3.29986
3.61945
1.68716
-1.58504
-4.92007
-8.01919
-10.5193
-11.6822
-11.1498
-9.21314
-6.68944
-4.45239
-2.88488
-1.90058
-1.26644
-0.860064
-0.735248
-0.871846
-1.12129
-1.20769
-0.945754
-0.479859
-0.0676996
0.215102
0.362135
0.456432
0.660386
0.825881
0.840553
2.46776
2.8166
-1.15084
-3.03863
-4.81255
-5.67141
-5.36008
-4.04244
-1.11617
1.36962
2.09525
1.8684
2.0917
2.19837
1.94551
1.50866
0.834146
-0.354053
-1.86878
-2.67027
-4.36756
-5.94177
-7.3072
-7.32114
-6.73769
-5.41648
-3.54796
-1.33393
-0.0462076
0.651574
0.478551
0.352794
0.215127
-0.0406272
-0.447436
-1.43172
-3.21279
-5.51312
-7.84359
-9.55417
-10.1002
-9.28157
-7.34607
-4.85601
-2.27014
0.232814
2.50061
3.73357
4.10532
4.44713
4.60526
1.37183
0.926567
-1.03832
-4.25561
-7.90979
-11.3177
-14.0262
-15.1467
-14.3338
-11.7984
-8.48534
-5.56114
-3.54744
-2.32351
-1.59096
-1.15845
-0.95855
-0.928128
-0.971692
-0.961023
-0.813546
-0.571912
-0.304293
-0.0593731
0.135034
0.294477
0.436787
0.54327
0.529665
2.7282
4.07877
-0.0139593
-2.80175
-4.38379
-5.2474
-4.80787
-0.834703
6.33028
7.46986
1.69815
0.959069
1.30845
1.561
1.21545
0.866492
0.227856
-0.806802
-1.52847
-2.59987
-4.18702
-5.37816
-6.65944
-7.10519
-6.29917
-4.88592
-3.1604
-1.49314
-0.64869
-0.433076
-0.168111
-0.0180835
-0.0448932
-0.26456
-0.803383
-1.95033
-3.91096
-6.49461
-9.09911
-10.9673
-11.6031
-10.8335
-8.86415
-6.25564
-3.50881
-0.905282
1.17506
2.52001
3.09379
3.46823
3.64608
-0.233377
-0.865452
-2.85296
-6.32322
-10.2772
-13.9524
-16.7855
-17.8718
-16.8675
-13.9201
-9.97221
-6.4817
-4.09937
-2.68369
-1.86476
-1.38895
-1.12831
-1.00109
-0.93609
-0.863529
-0.727186
-0.540652
-0.336393
-0.135165
0.0296669
0.166675
0.273869
0.322721
0.257694
0.584169
4.00513
4.27576
-0.225508
-0.335905
-1.85114
-0.588633
6.16284
7.17066
6.68672
0.434876
0.428149
0.915312
1.11803
0.833093
0.50129
-0.0478192
-0.886864
-1.4165
-2.13393
-3.36054
-4.43907
-4.96989
-5.02348
-4.75909
-4.31821
-3.13097
-2.13306
-1.3567
-0.788634
-0.444158
-0.283321
-0.301692
-0.534824
-1.11085
-2.29481
-4.27012
-6.89168
-9.55101
-11.4461
-12.1236
-11.4234
-9.51078
-6.90593
-4.10573
-1.51759
0.427536
1.5987
2.24447
2.62128
2.80439
-1.30672
-1.4836
-3.86935
-7.36798
-11.4431
-15.1819
-17.9816
-18.9568
-17.8247
-14.7146
-10.5135
-6.82348
-4.32944
-2.86944
-2.02906
-1.52882
-1.22798
-1.04318
-0.927681
-0.81298
-0.679368
-0.524343
-0.360174
-0.200834
-0.0621727
0.0509194
0.130993
0.152624
0.0820071
-0.152254
-0.122295
0.622909
9.37082
8.57553
8.10001
7.99245
7.04628
4.73045
-1.00122
-0.289948
0.204486
0.806701
0.843974
0.568768
0.317058
-0.13551
-0.788189
-1.62463
-2.56293
-3.46306
-4.2175
-4.39068
-4.48275
-4.28342
-3.6666
-2.83013
-2.01087
-1.36485
-0.91868
-0.647541
-0.526198
-0.551553
-0.780182
-1.28739
-2.36326
-4.12773
-6.49581
-8.93758
-10.6921
-11.3602
-10.7545
-9.0039
-6.56784
-3.94035
-1.61977
0.041767
0.992807
1.59343
1.94433
2.12928
-1.76331
-1.92581
-3.82722
-7.22745
-11.1221
-14.7395
-17.3564
-18.1843
-17.0058
-13.9549
-9.94616
-6.48581
-4.18442
-2.84432
-2.06616
-1.58322
-1.27174
-1.06395
-0.914177
-0.783512
-0.652968
-0.517359
-0.381029
-0.251779
-0.138327
-0.0476226
0.0113355
0.0206664
-0.0413381
-0.209038
-0.535396
-0.997944
-0.178648
-0.172094
-0.935739
-1.78811
-1.79293
-1.26097
-0.686226
-0.204545
0.147347
0.674187
0.595595
0.385178
0.178129
-0.183832
-0.669306
-1.25614
-1.89633
-2.51595
-3.0193
-3.31753
-3.35569
-3.12913
-2.73767
-2.23868
-1.74012
-1.31935
-1.00735
-0.808455
-0.718385
-0.74802
-0.937651
-1.37302
-2.21682
-3.58727
-5.43383
-7.3673
-8.79443
-9.34102
-8.84171
-7.37288
-5.32755
-3.18125
-1.37579
-0.123521
0.650399
1.14407
1.44199
1.62905
-1.79223
-1.83473
-2.98434
-5.94723
-9.30216
-12.4812
-14.7438
-15.4163
-14.3217
-11.6824
-8.38475
-5.59414
-3.748
-2.65145
-1.98744
-1.55478
-1.25918
-1.04961
-0.891057
-0.757436
-0.63358
-0.513671
-0.398476
-0.291954
-0.199417
-0.128248
-0.0847374
-0.0796121
-0.127
-0.237766
-0.425665
-0.680278
-0.967612
-1.2295
-1.35505
-1.29064
-1.07518
-0.766537
-0.428105
-0.128767
0.100491
0.562127
0.614758
0.260875
0.0823948
-0.203692
-0.56442
-0.9878
-1.44286
-1.8787
-2.2337
-2.45452
-2.50951
-2.40091
-2.1704
-1.86787
-1.5574
-1.28002
-1.06103
-0.914552
-0.849516
-0.879347
-1.03223
-1.36343
-1.9595
-2.89039
-4.1201
-5.40292
-6.35293
-6.69413
-6.29111
-5.20696
-3.7353
-2.23722
-0.999997
-0.125162
0.46075
0.853931
1.09696
1.27173
-1.60389
-1.3664
-2.10648
-3.61065
-6.2774
-8.98431
-10.7259
-11.2541
-10.4602
-8.60019
-6.34919
-4.45021
-3.16078
-2.35198
-1.8283
-1.46595
-1.20428
-1.00909
-0.856428
-0.728698
-0.614495
-0.508572
-0.410678
-0.322876
-0.247624
-0.190358
-0.156683
-0.152191
-0.184222
-0.256777
-0.371085
-0.518372
-0.684915
-0.837327
-0.913062
-0.870299
-0.726249
-0.52444
-0.306657
-0.107634
0.0506487
0.61375
0.587741
0.160509
0.0276955
-0.204733
-0.467547
-0.782097
-1.12169
-1.44651
-1.71351
-1.88942
-1.95596
-1.91512
-1.78843
-1.60919
-1.40872
-1.22237
-1.07044
-0.96662
-0.921869
-0.948857
-1.06632
-1.30384
-1.70052
-2.28198
-3.01103
-3.74093
-4.25511
-4.39823
-4.07656
-3.35244
-2.40888
-1.45986
-0.661911
-0.0627359
0.372254
0.678812
0.873027
1.01609
-1.28088
-1.10112
-1.20876
-1.99711
-3.3003
-4.95809
-6.57349
-7.14322
-6.77103
-5.76062
-4.49423
-3.38083
-2.5719
-2.01797
-1.62803
-1.34011
-1.12086
-0.949602
-0.811351
-0.695079
-0.592977
-0.500615
-0.416964
-0.343166
-0.281691
-0.235072
-0.207023
-0.201497
-0.22104
-0.267224
-0.338109
-0.427818
-0.525077
-0.604599
-0.636495
-0.602895
-0.509005
-0.377136
-0.233356
-0.0991557
0.0100501
0.704119
0.472259
0.0728587
-0.0214895
-0.183374
-0.38503
-0.623836
-0.882714
-1.13127
-1.33937
-1.48549
-1.55752
-1.55591
-1.49381
-1.39041
-1.26729
-1.14618
-1.04378
-0.972733
-0.943418
-0.966116
-1.0526
-1.21701
-1.47318
-1.82209
-2.22797
-2.60441
-2.84612
-2.85518
-2.60519
-2.13396
-1.54128
-0.940673
-0.414012
0.00918778
0.335955
0.57389
0.728404
0.831703
-0.98042
-1.05256
-0.712305
-0.855095
-1.52631
-2.38688
-3.52868
-4.14255
-4.09636
-3.71258
-3.11795
-2.53186
-2.05632
-1.69383
-1.41554
-1.1965
-1.02093
-0.877782
-0.75844
-0.656377
-0.566817
-0.487092
-0.416313
-0.353833
-0.302235
-0.263487
-0.23878
-0.231231
-0.241108
-0.268717
-0.311084
-0.362253
-0.414357
-0.453886
-0.465187
-0.438526
-0.375212
-0.288273
-0.193787
-0.104606
-0.0299424
0.709341
0.41062
0.00694923
-0.0575953
-0.17329
-0.326225
-0.509078
-0.708199
-0.901033
-1.06636
-1.18962
-1.2623
-1.28356
-1.26115
-1.20626
-1.13369
-1.05778
-0.991219
-0.944495
-0.92603
-0.943515
-1.00396
-1.11349
-1.27434
-1.47761
-1.69463
-1.87692
-1.97138
-1.92458
-1.72804
-1.4063
-1.01291
-0.608661
-0.239708
0.0718982
0.321247
0.507174
0.63029
0.69842
-0.734657
-0.709755
-0.709482
-0.742467
-1.0009
-1.46969
-1.97227
-2.37277
-2.53412
-2.42097
-2.18047
-1.89446
-1.62631
-1.39823
-1.20797
-1.04819
-0.913039
-0.797989
-0.699056
-0.612861
-0.536444
-0.468257
-0.408444
-0.355926
-0.312019
-0.278824
-0.256522
-0.246929
-0.249462
-0.263512
-0.287026
-0.315239
-0.34204
-0.360311
-0.361205
-0.339631
-0.29638
-0.239867
-0.179029
-0.120897
-0.0697756
0.718966
0.402934
-0.0490351
-0.0918144
-0.17498
-0.291424
-0.431847
-0.585449
-0.735703
-0.867838
-0.971485
-1.04032
-1.07294
-1.07373
-1.04946
-1.00991
-0.964711
-0.923104
-0.893346
-0.881759
-0.893729
-0.93317
-1.002
-1.09786
-1.21067
-1.31998
-1.403
-1.41864
-1.34881
-1.18884
-0.953878
-0.674331
-0.384962
-0.113965
0.121825
0.314634
0.461291
0.558983
0.601105
-0.512485
-0.431617
-0.388395
-0.434617
-0.59134
-0.854106
-1.16357
-1.42419
-1.58012
-1.60514
-1.53681
-1.41293
-1.27288
-1.13791
-1.01462
-0.903409
-0.803613
-0.714626
-0.635478
-0.564964
-0.501665
-0.444695
-0.394272
-0.350071
-0.312582
-0.283306
-0.262636
-0.251354
-0.248953
-0.254022
-0.26485
-0.278673
-0.290932
-0.297671
-0.293993
-0.277519
-0.248435
-0.212734
-0.168139
-0.124289
-0.10492
0.746053
0.399299
-0.102164
-0.12658
-0.186064
-0.275186
-0.383065
-0.501429
-0.618386
-0.723745
-0.810008
-0.872253
-0.909087
-0.922343
-0.916261
-0.89744
-0.872398
-0.847621
-0.829112
-0.821285
-0.827784
-0.850719
-0.88995
-0.942128
-0.999061
-1.05049
-1.07117
-1.04801
-0.96977
-0.835087
-0.653896
-0.444589
-0.228225
-0.0228737
0.159005
0.310145
0.42688
0.503912
0.528318
-0.293876
-0.191782
-0.114233
-0.130536
-0.239697
-0.425975
-0.649356
-0.854969
-1.00209
-1.07502
-1.08353
-1.04735
-0.985887
-0.914089
-0.840174
-0.767274
-0.697083
-0.631138
-0.570299
-0.514443
-0.463105
-0.41649
-0.374588
-0.337453
-0.305689
-0.28002
-0.261054
-0.248823
-0.243063
-0.242645
-0.245764
-0.250738
-0.254681
-0.25525
-0.249584
-0.2377
-0.220001
-0.19992
-0.154019
-0.132013
-0.134984
0.757515
0.393825
-0.153008
-0.160626
-0.203769
-0.271483
-0.354108
-0.44499
-0.535765
-0.619333
-0.690071
-0.743994
-0.78023
-0.79924
-0.803472
-0.797239
-0.784802
-0.770625
-0.758879
-0.752598
-0.754103
-0.764465
-0.782844
-0.80633
-0.829428
-0.840623
-0.829749
-0.787633
-0.708664
-0.593227
-0.448244
-0.285459
-0.118266
0.0413406
0.184288
0.304533
0.398317
0.459017
0.472206
-0.0903351
0.00908589
0.0841823
0.0774185
-0.00949778
-0.155105
-0.328107
-0.493879
-0.626294
-0.71406
-0.758611
-0.769115
-0.754849
-0.725072
-0.686284
-0.642368
-0.595985
-0.549524
-0.504914
-0.46262
-0.422282
-0.384851
-0.3506
-0.319527
-0.292525
-0.270042
-0.252763
-0.240468
-0.232646
-0.228691
-0.227244
-0.227149
-0.227108
-0.225698
-0.220409
-0.212264
-0.20297
-0.194694
-0.171373
-0.156159
-0.0735712
0.751505
0.380384
-0.201632
-0.191546
-0.225808
-0.275232
-0.337577
-0.406756
-0.4767
-0.542473
-0.599784
-0.645274
-0.678309
-0.698805
-0.708087
-0.708874
-0.703776
-0.695741
-0.687552
-0.681372
-0.678669
-0.679877
-0.683998
-0.688503
-0.688579
-0.677711
-0.649518
-0.598847
-0.523071
-0.423266
-0.304375
-0.1742
-0.0416165
0.0851515
0.199473
0.296471
0.372499
0.420647
0.427357
0.075753
0.157266
0.213598
0.207024
0.134653
0.0163741
-0.122206
-0.258254
-0.374746
-0.463638
-0.523005
-0.55698
-0.570294
-0.56741
-0.552744
-0.530036
-0.502128
-0.471549
-0.440595
-0.410135
-0.379789
-0.350568
-0.32322
-0.297768
-0.275099
-0.255651
-0.239964
-0.228113
-0.219521
-0.213744
-0.209928
-0.207033
-0.204905
-0.2031
-0.199622
-0.195395
-0.192432
-0.191929
-0.194935
-0.192513
0.478507
0.729968
0.292018
-0.244565
-0.222444
-0.244746
-0.281005
-0.327604
-0.379935
-0.433447
-0.484693
-0.530391
-0.567946
-0.596743
-0.616323
-0.627271
-0.631239
-0.629801
-0.624914
-0.618344
-0.611541
-0.605491
-0.60019
-0.594601
-0.586571
-0.572797
-0.549295
-0.512245
-0.458866
-0.388142
-0.30136
-0.202135
-0.0958201
0.0114937
0.114001
0.206783
0.285923
0.348038
0.386644
0.389949
0.193827
0.253067
0.28977
0.279509
0.21849
0.121926
0.00985713
-0.1023
-0.203188
-0.286779
-0.350525
-0.395248
-0.423511
-0.437128
-0.43882
-0.431401
-0.417461
-0.399448
-0.379587
-0.358841
-0.337019
-0.314993
-0.29377
-0.273572
-0.255128
-0.238896
-0.225045
-0.213876
-0.205182
-0.198652
-0.193862
-0.189841
-0.186983
-0.185221
-0.183426
-0.183059
-0.185406
-0.190388
-0.200623
-0.201791
0.535132
0.710118
0.0619761
-0.268938
-0.249669
-0.260218
-0.285961
-0.320311
-0.359547
-0.400181
-0.439817
-0.475794
-0.506134
-0.530282
-0.547583
-0.55817
-0.562959
-0.562857
-0.559218
-0.553161
-0.545503
-0.536821
-0.52688
-0.514733
-0.498804
-0.476942
-0.44673
-0.405996
-0.353321
-0.288492
-0.212763
-0.12884
-0.0405392
0.0478032
0.131951
0.208177
0.273329
0.324406
0.355738
0.357425
0.268212
0.308789
0.330109
0.315967
0.263921
0.185275
0.0943068
0.00168081
-0.0848605
-0.160736
-0.223255
-0.271601
-0.307153
-0.330282
-0.342578
-0.345954
-0.342426
-0.334139
-0.323126
-0.310173
-0.295232
-0.27915
-0.263026
-0.247326
-0.232697
-0.21966
-0.208082
-0.198141
-0.189997
-0.183576
-0.178679
-0.174537
-0.172022
-0.170998
-0.170517
-0.173078
-0.17932
-0.190404
-0.201055
-0.0969329
-0.076307
0.700232
-0.169173
-0.2817
-0.266567
-0.270829
-0.288401
-0.313326
-0.342472
-0.37306
-0.403457
-0.4315
-0.455549
-0.47505
-0.489342
-0.498388
-0.502673
-0.502672
-0.499249
-0.493067
-0.484475
-0.473724
-0.460507
-0.444122
-0.423507
-0.397329
-0.364182
-0.322884
-0.27278
-0.214024
-0.147744
-0.0760234
-0.00169252
0.0720326
0.141957
0.205193
0.259207
0.301457
0.327197
0.32823
0.31028
0.337551
0.347713
0.330998
0.286155
0.22195
0.14765
0.070801
-0.00316378
-0.0706918
-0.12926
-0.177708
-0.215402
-0.243037
-0.261471
-0.272079
-0.276133
-0.275237
-0.271229
-0.2647
-0.255524
-0.244497
-0.232722
-0.220805
-0.209402
-0.199124
-0.189797
-0.181381
-0.174192
-0.168503
-0.164175
-0.160478
-0.158623
-0.15867
-0.159453
-0.16407
-0.172082
-0.18633
-0.192199
0.465411
-0.059906
0.454813
-0.323462
-0.286373
-0.27388
-0.275489
-0.287276
-0.305222
-0.326797
-0.349729
-0.372807
-0.394327
-0.412937
-0.428098
-0.439241
-0.446281
-0.44944
-0.44891
-0.445154
-0.438479
-0.428937
-0.416593
-0.401216
-0.382336
-0.359295
-0.331302
-0.297561
-0.257462
-0.210774
-0.157824
-0.0996173
-0.0378176
0.025393
0.0875517
0.146191
0.199045
0.244089
0.279242
0.300641
0.301501
0.330511
0.348742
0.351272
0.333326
0.294701
0.241951
0.180853
0.116712
0.0534911
-0.00595248
-0.0593752
-0.10539
-0.143078
-0.172375
-0.193977
-0.209039
-0.218274
-0.222713
-0.223963
-0.222561
-0.218241
-0.21162
-0.203715
-0.195134
-0.186543
-0.178625
-0.171364
-0.164589
-0.158496
-0.153647
-0.150085
-0.147147
-0.146014
-0.147034
-0.149193
-0.155713
-0.164436
-0.180707
0.0960552
0.480543
-0.167914
-0.317814
-0.308967
-0.282866
-0.272997
-0.274262
-0.282422
-0.29543
-0.311405
-0.328556
-0.345888
-0.362067
-0.376051
-0.387386
-0.395631
-0.400675
-0.402516
-0.401127
-0.396706
-0.389349
-0.378953
-0.365527
-0.348926
-0.328858
-0.304932
-0.276691
-0.2437
-0.205681
-0.162657
-0.115053
-0.063779
-0.0102048
0.043941
0.0967371
0.146255
0.190708
0.228484
0.257916
0.275898
0.276792
0.336389
0.348442
0.346282
0.328141
0.295125
0.251429
0.200875
0.147036
0.092919
0.0408956
-0.00715855
-0.0498919
-0.0862049
-0.115679
-0.138767
-0.156422
-0.168998
-0.177041
-0.181882
-0.18412
-0.183495
-0.18044
-0.175859
-0.170268
-0.16424
-0.158426
-0.153029
-0.147952
-0.143179
-0.139277