/*--------------------------------*- C++ -*----------------------------------*\
| =========                 |                                                 |
| \\      /  F ield         | OpenFOAM: The Open Source CFD Toolbox           |
|  \\    /   O peration     | Version:  2412                                  |
|   \\  /    A nd           | Website:  www.openfoam.com                      |
|    \\/     M anipulation  |                                                 |
\*---------------------------------------------------------------------------*/
FoamFile
{
    version     2.0;
    format      ascii;
    arch        "LSB;label=32;scalar=64";
    class       surfaceScalarField;
    location    "6.6";
    object      phi;
}
// * * * * * * * * * * * * * * * * * * * * * * * * * * * * * * * * * * * * * //

dimensions      [0 3 -1 0 0 0 0];

oriented        oriented;

internalField   nonuniform List<scalar> 
12640
(
1.1428e-05
-1.1428e-05
2.73933e-05
-1.59654e-05
4.5055e-05
-1.76615e-05
6.289e-05
-1.78347e-05
7.96889e-05
-1.67988e-05
9.47316e-05
-1.50426e-05
0.000107717
-1.29849e-05
0.000118572
-1.08552e-05
0.000127429
-8.85702e-06
0.000134496
-7.06662e-06
0.000140062
-5.56615e-06
0.000144426
-4.36416e-06
0.000147875
-3.44816e-06
0.000150657
-2.78233e-06
0.000153021
-2.36416e-06
0.000155114
-2.09345e-06
0.000157058
-1.9441e-06
0.000159022
-1.96429e-06
0.000160885
-1.86307e-06
0.000162634
-1.74991e-06
0.000164251
-1.61777e-06
0.000165541
-1.28987e-06
0.00016637
-8.29122e-07
0.000166636
-2.65755e-07
0.000166118
5.18177e-07
0.000164624
1.49326e-06
0.000161991
2.63391e-06
0.000158034
3.95668e-06
0.000152588
5.44553e-06
0.000145554
7.03402e-06
0.000136839
8.71503e-06
0.00012644
1.03996e-05
0.000114389
1.20509e-05
0.000100736
1.36523e-05
8.56013e-05
1.51349e-05
6.9145e-05
1.64564e-05
5.16272e-05
1.75175e-05
3.3237e-05
1.83904e-05
1.4291e-05
1.89463e-05
-4.92298e-06
1.92142e-05
-2.40994e-05
1.91769e-05
-4.29243e-05
1.88254e-05
-6.11075e-05
1.81837e-05
-7.83314e-05
1.72245e-05
-9.44056e-05
1.60744e-05
-0.000109062
1.46569e-05
-0.000122173
1.31123e-05
-0.00013358
1.14071e-05
-0.000143239
9.65875e-06
-0.000151147
7.90834e-06
-0.000157332
6.18577e-06
-0.000161872
4.54064e-06
-0.000164895
3.02308e-06
-0.000166576
1.68224e-06
-0.000167108
5.32833e-07
-0.000166699
-4.07786e-07
-0.000165611
-1.08695e-06
-0.000163942
-1.66857e-06
-0.000161961
-1.9809e-06
-0.000159816
-2.14418e-06
-0.000157603
-2.21376e-06
-0.000155422
-2.18159e-06
-0.000153361
-2.06085e-06
-0.000151382
-1.98032e-06
-0.000149416
-1.96782e-06
-0.000147322
-2.09387e-06
-0.000144915
-2.40724e-06
-0.000141922
-2.99322e-06
-0.000138022
-3.90105e-06
-0.000132926
-5.09626e-06
-0.000126289
-6.63614e-06
-0.000117826
-8.46378e-06
-0.000107261
-1.05642e-05
-9.44525e-05
-1.2809e-05
-7.94316e-05
-1.50209e-05
-6.25809e-05
-1.6851e-05
-4.4673e-05
-1.7908e-05
-2.70007e-05
-1.7672e-05
-1.11818e-05
-1.58183e-05
-1.11821e-05
1.36397e-05
-2.50675e-05
3.43071e-05
-3.66326e-05
5.81735e-05
-4.15275e-05
8.24845e-05
-4.21454e-05
0.000105258
-3.95724e-05
0.000125351
-3.51354e-05
0.000142213
-2.98464e-05
0.000155758
-2.44005e-05
0.000166153
-1.92517e-05
0.000173802
-1.47156e-05
0.00017917
-1.09343e-05
0.00018276
-7.95412e-06
0.00018499
-5.67781e-06
0.000186187
-3.98015e-06
0.000186625
-2.80195e-06
0.000186523
-1.99192e-06
0.000186038
-1.46077e-06
0.000185204
-1.13066e-06
0.000184191
-8.50559e-07
0.000182978
-5.37456e-07
0.000181517
-1.57609e-07
0.000179839
3.88734e-07
0.000177866
1.14433e-06
0.00017544
2.15962e-06
0.000172455
3.50428e-06
0.000168757
5.19096e-06
0.000164178
7.21309e-06
0.000158566
9.56942e-06
0.000151782
1.22287e-05
0.000143688
1.51279e-05
0.000134194
1.82084e-05
0.000123237
2.13563e-05
0.00011078
2.45078e-05
9.69283e-05
2.75039e-05
8.17424e-05
3.03207e-05
6.53648e-05
3.28341e-05
4.79797e-05
3.4903e-05
2.9842e-05
3.65284e-05
1.12417e-05
3.75472e-05
-7.64216e-06
3.80987e-05
-2.64814e-05
3.80168e-05
-4.49843e-05
3.73288e-05
-6.28849e-05
3.60846e-05
-7.9949e-05
3.42891e-05
-9.58697e-05
3.19954e-05
-0.000110545
2.93322e-05
-0.000123755
2.6322e-05
-0.000135466
2.31186e-05
-0.000145605
1.97985e-05
-0.000154213
1.65171e-05
-0.000161279
1.3252e-05
-0.00016699
1.02532e-05
-0.000171493
7.52708e-06
-0.000174945
5.13473e-06
-0.000177523
3.11158e-06
-0.000179394
1.46324e-06
-0.000180715
2.33935e-07
-0.000181746
-6.38694e-07
-0.000182558
-1.16916e-06
-0.00018325
-1.45226e-06
-0.000183919
-1.54595e-06
-0.000184579
-1.52263e-06
-0.000185148
-1.49239e-06
-0.000185602
-1.52638e-06
-0.000185758
-1.81146e-06
-0.000185543
-2.30849e-06
-0.00018469
-3.26099e-06
-0.000182875
-4.80822e-06
-0.000179719
-7.05666e-06
-0.000174728
-1.00869e-05
-0.000167423
-1.39411e-05
-0.000157274
-1.86122e-05
-0.000143837
-2.39999e-05
-0.00012688
-2.97664e-05
-0.000106528
-3.53731e-05
-8.33601e-05
-4.00188e-05
-5.86134e-05
-4.26543e-05
-3.43913e-05
-4.18935e-05
-1.3475e-05
-3.67353e-05
-2.46562e-05
1.46622e-05
-3.97295e-05
3.75776e-05
-5.9548e-05
6.44214e-05
-6.83714e-05
9.21434e-05
-6.98678e-05
0.000118264
-6.56935e-05
0.000141219
-5.80904e-05
0.000160291
-4.89189e-05
0.000175382
-3.94909e-05
0.000186767
-3.06371e-05
0.000194941
-2.28896e-05
0.000200498
-1.64906e-05
0.000203985
-1.14423e-05
0.000205863
-7.556e-06
0.00020656
-4.67681e-06
0.000206394
-2.63711e-06
0.000205629
-1.22704e-06
0.000204462
-2.95121e-07
0.000203071
2.60615e-07
0.000201485
7.35972e-07
0.000199745
1.20266e-06
0.000197854
1.73259e-06
0.000195759
2.48352e-06
0.000193375
3.52914e-06
0.000190573
4.96156e-06
0.000187206
6.87202e-06
0.000183096
9.3009e-06
0.000178048
1.22607e-05
0.000171882
1.57358e-05
0.00016442
1.96899e-05
0.000155558
2.39895e-05
0.00014517
2.85957e-05
0.000133184
3.33421e-05
0.000119666
3.80254e-05
0.000104613
4.25565e-05
8.81662e-05
4.67683e-05
7.04596e-05
5.05411e-05
5.16448e-05
5.37179e-05
3.20385e-05
5.61349e-05
1.18782e-05
5.77076e-05
-8.50418e-06
5.84806e-05
-2.88488e-05
5.83605e-05
-4.88812e-05
5.73603e-05
-6.82642e-05
5.54668e-05
-8.67338e-05
5.27575e-05
-0.000104053
4.93132e-05
-0.000119981
4.52613e-05
-0.000134364
4.07049e-05
-0.000147119
3.58734e-05
-0.00015822
3.08992e-05
-0.00016762
2.59168e-05
-0.000175475
2.11051e-05
-0.000181834
1.66118e-05
-0.000186815
1.25067e-05
-0.000190649
8.96624e-06
-0.000193531
5.99177e-06
-0.000195686
3.6179e-06
-0.000197311
1.85751e-06
-0.000198623
6.73032e-07
-0.000199756
-3.68099e-08
-0.000200841
-3.67303e-07
-0.000201941
-4.45361e-07
-0.000203082
-3.80311e-07
-0.000204231
-3.42353e-07
-0.000205269
-4.88934e-07
-0.000206115
-9.6446e-07
-0.000206468
-1.95507e-06
-0.000206091
-3.63768e-06
-0.000204631
-6.269e-06
-0.000201599
-1.00896e-05
-0.000196477
-1.52078e-05
-0.000188662
-2.17556e-05
-0.000177496
-2.97782e-05
-0.000162459
-3.9037e-05
-0.000143231
-4.89954e-05
-0.000119912
-5.86928e-05
-9.32576e-05
-6.6673e-05
-6.49345e-05
-7.09772e-05
-3.75855e-05
-6.92425e-05
-1.44216e-05
-5.98986e-05
-3.90772e-05
1.48115e-05
-5.4541e-05
3.89954e-05
-8.37323e-05
6.82832e-05
-9.76598e-05
9.90772e-05
-0.000100663
0.000128139
-9.47554e-05
0.000153277
-8.32287e-05
0.000173549
-6.91913e-05
0.000188997
-5.49386e-05
0.000200195
-4.18355e-05
0.000207902
-3.05968e-05
0.000212884
-2.14728e-05
0.000215792
-1.43493e-05
0.000217159
-8.92387e-06
0.000217391
-4.90947e-06
0.000216916
-2.16289e-06
0.000215973
-2.83484e-07
0.000214745
9.32384e-07
0.000213304
1.70113e-06
0.000211761
2.27856e-06
0.000210156
2.80689e-06
0.000208422
3.4663e-06
0.000206523
4.3826e-06
0.00020433
5.72227e-06
0.000201707
7.58416e-06
0.000198482
1.00966e-05
0.000194469
1.33135e-05
0.000189443
1.72865e-05
0.000183198
2.19799e-05
0.000175566
2.73228e-05
0.000166345
3.32103e-05
0.000155445
3.94953e-05
0.000142822
4.59657e-05
0.000128458
5.23892e-05
0.000112408
5.86068e-05
9.47786e-05
6.43984e-05
7.57567e-05
6.95632e-05
5.56046e-05
7.38699e-05
3.45907e-05
7.71481e-05
1.29923e-05
7.93049e-05
-8.85606e-06
8.03279e-05
-3.06668e-05
8.01704e-05
-5.20957e-05
7.87883e-05
-7.2866e-05
7.62374e-05
-9.26997e-05
7.25918e-05
-0.000111283
6.78959e-05
-0.000128347
6.23255e-05
-0.000143733
5.60902e-05
-0.000157338
4.9478e-05
-0.000169086
4.26465e-05
-0.000178993
3.58226e-05
-0.000187095
2.92065e-05
-0.00019359
2.31057e-05
-0.00019858
1.74965e-05
-0.000202292
1.26779e-05
-0.000204961
8.66005e-06
-0.000206861
5.51727e-06
-0.000208219
3.21533e-06
-0.000209251
1.70519e-06
-0.000210126
8.38186e-07
-0.000210982
4.88133e-07
-0.000211921
4.91763e-07
-0.000212982
6.7869e-07
-0.000214165
8.39251e-07
-0.000215344
6.8867e-07
-0.000216405
9.47482e-08
-0.000217137
-1.2246e-06
-0.000217239
-3.53809e-06
-0.00021638
-7.12968e-06
-0.000214071
-1.23996e-05
-0.000209686
-1.95945e-05
-0.000202428
-2.90157e-05
-0.000191514
-4.06938e-05
-0.000176152
-5.43994e-05
-0.000155699
-6.9448e-05
-0.000130095
-8.42964e-05
-0.000100334
-9.64335e-05
-6.88182e-05
-0.000102493
-3.89489e-05
-9.9112e-05
-1.45392e-05
-8.43071e-05
-5.36165e-05
1.44299e-05
-6.89712e-05
3.94063e-05
-0.000108709
7.13581e-05
-0.000129612
0.000106199
-0.000135504
0.000139277
-0.000127835
0.000167038
-0.00011099
0.000188136
-9.02889e-05
0.000202997
-6.98007e-05
0.000212818
-5.16562e-05
0.000218853
-3.6632e-05
0.000222169
-2.47893e-05
0.00022358
-1.57598e-05
0.000223696
-9.03999e-06
0.000222976
-4.18975e-06
0.000221808
-9.94552e-07
0.000220383
1.14008e-06
0.000218857
2.45809e-06
0.000217293
3.26418e-06
0.000215792
3.78004e-06
0.000214348
4.2505e-06
0.000212939
4.87457e-06
0.000211456
5.86429e-06
0.000209751
7.42703e-06
0.000207671
9.66327e-06
0.000205029
1.27386e-05
0.00020157
1.67723e-05
0.000197056
2.18001e-05
0.000191264
2.77722e-05
0.000183944
3.46421e-05
0.00017487
4.22844e-05
0.000163979
5.03863e-05
0.000151088
5.88577e-05
0.000136239
6.72383e-05
0.000119461
7.53852e-05
0.000100904
8.29554e-05
8.07906e-05
8.96759e-05
5.94264e-05
9.52335e-05
3.70932e-05
9.94813e-05
1.4153e-05
0.000102245
-9.05719e-06
0.000103539
-3.22232e-05
0.000103338
-5.5033e-05
0.000101599
-7.7133e-05
9.83379e-05
-9.81726e-05
9.36306e-05
-0.000117844
8.75663e-05
-0.000135847
8.03279e-05
-0.000151986
7.22284e-05
-0.000166056
6.35478e-05
-0.00017805
5.46401e-05
-0.000187976
4.57483e-05
-0.000195967
3.71977e-05
-0.00020199
2.91299e-05
-0.000206401
2.19081e-05
-0.000209433
1.57105e-05
-0.000211446
1.06736e-05
-0.000212635
6.70715e-06
-0.000213326
3.90662e-06
-0.000213749
2.12934e-06
-0.000214119
1.2077e-06
-0.000214599
9.6831e-07
-0.000215313
1.20617e-06
-0.000216316
1.68282e-06
-0.000217606
2.13032e-06
-0.000219109
2.19186e-06
-0.000220728
1.71369e-06
-0.000222277
3.25874e-07
-0.0002235
-2.3149e-06
-0.000224058
-6.57087e-06
-0.000223414
-1.30442e-05
-0.000220848
-2.21605e-05
-0.000215483
-3.43808e-05
-0.00020614
-5.00353e-05
-0.000191485
-6.90533e-05
-0.000170168
-9.07646e-05
-0.000141739
-0.000112725
-0.000107679
-0.000130493
-7.18612e-05
-0.000138311
-3.93001e-05
-0.000131674
-1.41147e-05
-0.000109492
-6.77314e-05
1.31217e-05
-8.20934e-05
3.76857e-05
-0.000133274
7.24962e-05
-0.000164423
0.000113483
-0.000176491
0.000153266
-0.000167618
0.000185379
-0.000143103
0.000207509
-0.000112419
0.000220956
-8.32474e-05
0.000228175
-5.88754e-05
0.000231323
-3.97804e-05
0.000231939
-2.54047e-05
0.000231033
-1.48535e-05
0.000229267
-7.27517e-06
0.000227137
-2.05982e-06
0.000224853
1.29018e-06
0.000222633
3.36036e-06
0.000220607
4.48371e-06
0.00021879
5.08103e-06
0.000217249
5.32164e-06
0.000215984
5.5147e-06
0.00021494
5.9189e-06
0.000214003
6.80147e-06
0.000213006
8.4233e-06
0.000211762
1.09076e-05
0.000210014
1.44869e-05
0.000207529
1.92565e-05
0.000203971
2.53584e-05
0.000199017
3.27264e-05
0.000192386
4.1273e-05
0.000183887
5.07843e-05
0.000173197
6.1076e-05
0.000160331
7.17242e-05
0.000145113
8.24557e-05
0.000127679
9.28184e-05
0.000108153
0.000102481
8.68364e-05
0.000110993
6.40612e-05
0.000118009
4.02027e-05
0.000123341
1.56325e-05
0.000126817
-9.27761e-06
0.000128449
-3.41356e-05
0.000128195
-5.86005e-05
0.000126063
-8.22447e-05
0.000121982
-0.000104726
0.000116112
-0.000125618
0.000108458
-0.000144576
9.92868e-05
-0.000161365
8.90169e-05
-0.000175799
7.79826e-05
-0.000187788
6.66292e-05
-0.000197411
5.53714e-05
-0.000204707
4.44931e-05
-0.000209992
3.44151e-05
-0.000213475
2.53915e-05
-0.000215474
1.77099e-05
-0.000216329
1.153e-05
-0.000216461
6.84111e-06
-0.000216149
3.595e-06
-0.000215716
1.69762e-06
-0.000215389
8.82065e-07
-0.000215396
9.7712e-07
-0.000215862
1.67453e-06
-0.000216868
2.689e-06
-0.000218406
3.66853e-06
-0.000220505
4.28948e-06
-0.000223024
4.23154e-06
-0.000225817
3.11834e-06
-0.000228677
5.44424e-07
-0.000231372
-3.87666e-06
-0.000233275
-1.11412e-05
-0.000233694
-2.17415e-05
-0.000231527
-3.65488e-05
-0.000225079
-5.6483e-05
-0.000211973
-8.21603e-05
-0.000189548
-0.00011319
-0.000156405
-0.00014587
-0.000115121
-0.000171777
-7.27617e-05
-0.00018067
-3.72417e-05
-0.000167193
-1.2657e-05
-0.000134077
-8.03881e-05
9.84675e-06
-9.19404e-05
3.32345e-05
-0.000156662
7.38252e-05
-0.000205014
0.000124968
-0.000227634
0.000173918
-0.000216568
0.000211209
-0.000180394
0.000233951
-0.000135161
0.000244633
-9.39293e-05
0.000247571
-6.18141e-05
0.000246297
-3.85065e-05
0.000243059
-2.21674e-05
0.000239101
-1.08947e-05
0.000234923
-3.09718e-06
0.00023101
1.85381e-06
0.000227389
4.91091e-06
0.000224211
6.53904e-06
0.000221529
7.16583e-06
0.000219418
7.19274e-06
0.000217843
6.89709e-06
0.000216791
6.56731e-06
0.000216221
6.48943e-06
0.000215946
7.07685e-06
0.000215926
8.44287e-06
0.000215823
1.10101e-05
0.000215362
1.49476e-05
0.000214158
2.04607e-05
0.000211888
2.76282e-05
0.000208122
3.6492e-05
0.000202535
4.68606e-05
0.000194808
5.85114e-05
0.000184654
7.12289e-05
0.000171768
8.46103e-05
0.000156274
9.79497e-05
0.000138089
0.000111003
0.000117415
0.000123156
9.45911e-05
0.000133817
7.00251e-05
0.000142575
4.42062e-05
0.000149159
1.75518e-05
0.00015347
-9.50924e-06
0.00015551
-3.65486e-05
0.000155234
-6.30953e-05
0.00015261
-8.87749e-05
0.000147663
-0.000113065
0.000140403
-0.000135495
0.00013089
-0.000155664
0.000119456
-0.000173202
0.000106555
-0.000187949
9.27295e-05
-0.000199883
7.8563e-05
-0.000208963
6.44501e-05
-0.000215428
5.09577e-05
-0.000219537
3.85249e-05
-0.000221658
2.7512e-05
-0.000222155
1.82063e-05
-0.000221509
1.0883e-05
-0.000220186
5.51723e-06
-0.000218554
1.963e-06
-0.00021697
1.1299e-07
-0.000215747
-3.41305e-07
-0.000215138
3.64931e-07
-0.000215287
1.82103e-06
-0.000216301
3.7012e-06
-0.000218211
5.57797e-06
-0.000221011
7.08919e-06
-0.000224635
7.85543e-06
-0.000228994
7.4783e-06
-0.000233927
5.47761e-06
-0.000239151
1.34736e-06
-0.000244496
-5.79789e-06
-0.000249103
-1.71355e-05
-0.000251762
-3.38909e-05
-0.000250066
-5.81796e-05
-0.000240132
-9.20946e-05
-0.000217364
-0.000135958
-0.000179068
-0.000184165
-0.000128238
-0.000222606
-7.48245e-05
-0.000234083
-3.26272e-05
-0.00020939
-9.10962e-06
-0.000157595
-8.94985e-05
6.59001e-06
-9.85305e-05
3.98296e-05
-0.000189901
0.000103538
-0.000268722
0.000174344
-0.000298441
0.000228247
-0.00027047
0.000259406
-0.000211553
0.000273297
-0.000149053
0.000275833
-9.64651e-05
0.000271353
-5.73341e-05
0.000263632
-3.07862e-05
0.000255281
-1.38166e-05
0.000247434
-3.04828e-06
0.000240591
3.74464e-06
0.000234609
7.83694e-06
0.000229507
1.00133e-05
0.000225286
1.076e-05
0.00022192
1.05317e-05
0.000219461
9.65227e-06
0.000217854
8.5041e-06
0.000217095
7.32656e-06
0.000217081
6.50344e-06
0.000217814
6.3437e-06
0.000218955
7.30272e-06
0.000220261
9.70449e-06
0.000221366
1.38424e-05
0.000221894
1.99333e-05
0.000221347
2.81745e-05
0.000219253
3.85865e-05
0.000215149
5.09642e-05
0.000208485
6.51755e-05
0.000198948
8.07665e-05
0.000186319
9.72394e-05
0.000170397
0.000113871
0.000151274
0.000130127
0.00012916
0.00014527
0.000104407
0.000158569
7.76116e-05
0.00016937
4.92862e-05
0.000177485
1.99984e-05
0.000182759
-9.73471e-06
0.000185244
-3.94358e-05
0.000184936
-6.86648e-05
0.000181841
-9.69293e-05
0.000175928
-0.00012356
0.000167034
-0.000147957
0.000155286
-0.000169614
0.000141113
-0.000188123
0.000125064
-0.00020325
0.000107857
-0.000214947
9.02597e-05
-0.000223354
7.28577e-05
-0.000228658
5.62609e-05
-0.000231202
4.10683e-05
-0.000231537
2.78467e-05
-0.000230078
1.67485e-05
-0.000227528
8.33249e-06
-0.000224255
2.24421e-06
-0.00022089
-1.40276e-06
-0.000217839
-2.93846e-06
-0.000215476
-2.70357e-06
-0.000214069
-1.04e-06
-0.000213797
1.55112e-06
-0.000214782
4.68802e-06
-0.000217062
7.85855e-06
-0.000220644
1.06716e-05
-0.000225487
1.26987e-05
-0.000231546
1.35376e-05
-0.000238797
1.27286e-05
-0.000247161
9.71102e-06
-0.00025664
3.68167e-06
-0.000266889
-6.88566e-06
-0.000276595
-2.41829e-05
-0.000283097
-5.16768e-05
-0.000282712
-9.24796e-05
-0.000270792
-0.000147878
-0.000240348
-0.00021461
-0.000184529
-0.000278425
-0.000109482
-0.000309132
-4.13506e-05
-0.000277523
-5.9617e-06
-0.000192984
-9.54613e-05
1.49333e-05
-0.000113464
9.61016e-05
-0.000271069
0.00021639
-0.000389011
0.000319105
-0.000401155
0.000367402
-0.000318768
0.000365022
-0.000209173
0.000341547
-0.000125578
0.000318372
-7.32903e-05
0.000299067
-3.80298e-05
0.00028209
-1.38101e-05
0.000267333
9.40145e-07
0.00025521
9.07479e-06
0.000245355
1.35997e-05
0.000237294
1.58982e-05
0.00023073
1.65762e-05
0.00022546
1.603e-05
0.000221426
1.45665e-05
0.00021862
1.24584e-05
0.000217073
1.00518e-05
0.00021674
7.66025e-06
0.000217543
5.70159e-06
0.000219334
4.55291e-06
0.000221929
4.7087e-06
0.000225015
6.61955e-06
0.000228175
1.06832e-05
0.000230901
1.72071e-05
0.000232663
2.64122e-05
0.00023277
3.84796e-05
0.000230548
5.31859e-05
0.000225407
7.03171e-05
0.00021686
8.9313e-05
0.000204469
0.00010963
0.000188171
0.000130169
0.000167891
0.000150407
0.000143891
0.00016927
0.000116773
0.000185688
8.71023e-05
0.000199042
5.56166e-05
0.000208971
2.31332e-05
0.000215243
-9.8797e-06
0.000218258
-4.29291e-05
0.000217985
-7.54734e-05
0.000214384
-0.000106929
0.000207383
-0.000136507
0.000196612
-0.00016343
0.000182209
-0.00018706
0.000164744
-0.000206779
0.000144785
-0.000222361
0.00012344
-0.000233779
0.000101678
-0.00024114
8.02193e-05
-0.000244859
5.99826e-05
-0.000245393
4.16045e-05
-0.000243386
2.58414e-05
-0.000239485
1.2849e-05
-0.000234218
3.06663e-06
-0.000228527
-3.44531e-06
-0.000222974
-6.95433e-06
-0.000218096
-7.81467e-06
-0.000214282
-6.51749e-06
-0.000211889
-3.43368e-06
-0.000211074
7.34418e-07
-0.000211954
5.56763e-06
-0.000214621
1.0525e-05
-0.000219025
1.50751e-05
-0.000225133
1.88072e-05
-0.000232947
2.13523e-05
-0.000242598
2.23804e-05
-0.000254285
2.13984e-05
-0.000268462
1.78605e-05
-0.00028566
1.03125e-05
-0.000305483
-4.36015e-06
-0.000328474
-2.86872e-05
-0.000356898
-6.40566e-05
-0.000385853
-0.000118924
-0.000390854
-0.000209609
-0.000340528
-0.000328751
-0.000232061
-0.000417599
-0.000103742
-0.000405842
-1.56756e-05
-0.000281051
-0.000111137
5.42418e-05
-0.000167706
0.000226182
-0.00044301
0.000411429
-0.000574256
0.000538325
-0.000528052
0.000576134
-0.000356576
0.000530968
-0.000164008
0.00044798
-4.2591e-05
0.000375711
-1.02046e-06
0.000328939
8.74205e-06
0.000298645
1.64838e-05
0.00027712
2.24647e-05
0.00026089
2.53038e-05
0.000248353
2.61371e-05
0.000238466
2.57857e-05
0.000230547
2.44953e-05
0.000224297
2.2281e-05
0.000219609
1.92541e-05
0.000216521
1.5547e-05
0.000215073
1.14997e-05
0.000215235
7.49811e-06
0.000216957
3.98044e-06
0.000220119
1.39144e-06
0.000224536
2.91679e-07
0.000229874
1.2814e-06
0.000235642
4.91579e-06
0.000241333
1.1515e-05
0.000245959
2.17859e-05
0.000248888
3.55508e-05
0.000249212
5.28613e-05
0.000246143
7.33859e-05
0.000238926
9.65295e-05
0.000227171
0.000121386
0.000210464
0.000146876
0.000188712
0.000172159
0.000162455
0.000195527
0.000132156
0.000215987
9.88214e-05
0.000232376
6.32869e-05
0.000244505
2.68252e-05
0.000251704
-9.8336e-06
0.000254915
-4.65987e-05
0.000254749
-8.33685e-05
0.000251154
-0.000119145
0.00024316
-0.00015264
0.000230108
-0.000182886
0.000212455
-0.000208884
0.000190743
-0.000230014
0.000165914
-0.000246071
0.000139498
-0.000256948
0.000112556
-0.000262987
8.62592e-05
-0.000264614
6.16106e-05
-0.0002625
3.94898e-05
-0.00025736
2.07017e-05
-0.000250093
5.58292e-06
-0.000241567
-5.45941e-06
-0.000232809
-1.22038e-05
-0.000224466
-1.5299e-05
-0.000217218
-1.50644e-05
-0.000211677
-1.20578e-05
-0.000208016
-7.09418e-06
-0.000206582
-6.98643e-07
-0.000207306
6.29268e-06
-0.000210321
1.35412e-05
-0.000215528
2.02833e-05
-0.000222879
2.61589e-05
-0.000232372
3.08458e-05
-0.000244188
3.41977e-05
-0.00025892
3.61299e-05
-0.000277659
3.65992e-05
-0.000302098
3.47517e-05
-0.000336171
2.97131e-05
-0.000388847
2.39893e-05
-0.000468885
1.59815e-05
-0.000557803
-3.00047e-05
-0.000604482
-0.000162931
-0.000565468
-0.000367765
-0.000435071
-0.000547996
-0.000241623
-0.00059929
-5.8276e-05
-0.000464399
-0.000169412
0.000126946
-0.000294651
0.000371938
-0.000688002
0.000570924
-0.000773242
0.000683175
-0.000640303
0.000707762
-0.000381163
0.000651029
-0.000107276
0.000541576
6.68628e-05
0.000430802
0.000109753
0.000353878
8.56655e-05
0.000308764
6.15972e-05
0.000281317
4.99126e-05
0.000262478
4.41426e-05
0.000248408
4.02087e-05
0.00023729
3.69042e-05
0.00022831
3.34761e-05
0.000221183
2.94082e-05
0.000215888
2.45489e-05
0.000212525
1.89107e-05
0.000211227
1.2798e-05
0.000211977
6.74765e-06
0.000214786
1.17211e-06
0.000219567
-3.3902e-06
0.000226234
-6.37493e-06
0.000234331
-6.81642e-06
0.000243442
-4.1954e-06
0.000252731
2.22545e-06
0.000261313
1.32027e-05
0.000268038
2.88258e-05
0.000271757
4.91416e-05
0.00027148
7.36631e-05
0.000266215
0.000101793
0.000255383
0.000132218
0.000238254
0.000164005
0.000215101
0.000195312
0.000185779
0.000224848
0.000151274
0.000250491
0.000112991
0.000270658
7.25619e-05
0.000284932
3.16511e-05
0.000292615
-9.54466e-06
0.000296111
-5.10086e-05
0.000296212
-9.26756e-05
0.00029282
-0.000133887
0.00028437
-0.000172473
0.000268691
-0.00020702
0.000247001
-0.000236188
0.00021991
-0.000259154
0.000188878
-0.00027558
0.000155922
-0.000285578
0.000122551
-0.000289651
9.03307e-05
-0.000288457
6.0415e-05
-0.000282822
3.38527e-05
-0.00027369
1.15675e-05
-0.000262257
-5.85181e-06
-0.000249171
-1.85478e-05
-0.000236547
-2.48297e-05
-0.0002249
-2.69465e-05
-0.000214996
-2.49678e-05
-0.00020693
-2.01238e-05
-0.000201918
-1.21062e-05
-0.000199625
-2.99236e-06
-0.00020014
6.80798e-06
-0.000203495
1.6897e-05
-0.000209508
2.62969e-05
-0.000218055
3.4706e-05
-0.000228981
4.17719e-05
-0.000242462
4.7678e-05
-0.000259159
5.2827e-05
-0.000280732
5.81723e-05
-0.000311395
6.54138e-05
-0.000360987
7.93044e-05
-0.000443745
0.000106748
-0.000559397
0.000131634
-0.000670659
8.12561e-05
-0.000727168
-0.000106422
-0.000704345
-0.000390589
-0.000593423
-0.000658917
-0.000390428
-0.000802286
-0.000134729
-0.000720097
-0.000304142
0.000191995
-0.000486646
0.000412605
-0.000908611
0.000548102
-0.00090874
0.000612909
-0.00070511
0.000625335
-0.000393589
0.000589393
-7.13329e-05
0.000510673
0.000145583
0.000420146
0.00020028
0.000347658
0.000158154
0.000302561
0.000106695
0.000275959
7.65151e-05
0.000258257
6.18449e-05
0.000244526
5.39395e-05
0.00023305
4.83809e-05
0.000223388
4.31376e-05
0.000215471
3.73254e-05
0.00020956
3.04599e-05
0.00020588
2.25901e-05
0.0002047
1.39773e-05
0.00020604
5.40737e-06
0.000210141
-2.92896e-06
0.000216838
-1.00874e-05
0.000226098
-1.56341e-05
0.000237765
-1.84847e-05
0.000251045
-1.7475e-05
0.000265054
-1.17843e-05
0.000278623
-3.66173e-07
0.000290305
1.71439e-05
0.000298611
4.08349e-05
0.000302143
7.01315e-05
0.000299939
0.000103997
0.000290395
0.000141761
0.000273628
0.000180772
0.000248532
0.000220406
0.000215506
0.000257873
0.000175884
0.000290112
0.000131703
0.000314839
8.55063e-05
0.000331129
3.81599e-05
0.00033996
-9.21321e-06
0.000343482
-5.70219e-05
0.000344019
-0.000105236
0.000341033
-0.000152577
0.00033171
-0.000197683
0.000313796
-0.000237641
0.000286958
-0.000270746
0.000253014
-0.000295864
0.000213994
-0.000312367
0.000172424
-0.000320941
0.000131124
-0.000322176
9.15637e-05
-0.000317208
5.54463e-05
-0.000306864
2.35077e-05
-0.000292428
-2.86906e-06
-0.000275121
-2.31592e-05
-0.000257447
-3.62217e-05
-0.000239607
-4.26694e-05
-0.000223446
-4.31083e-05
-0.000209874
-3.85394e-05
-0.000199681
-3.03168e-05
-0.000192627
-1.91607e-05
-0.000189201
-6.41806e-06
-0.000189539
7.14632e-06
-0.000193266
2.06224e-05
-0.000200214
3.32443e-05
-0.000209937
4.44279e-05
-0.000222081
5.39157e-05
-0.000236335
6.19326e-05
-0.000253043
6.95347e-05
-0.00027373
7.88589e-05
-0.000303142
9.48254e-05
-0.000351038
0.0001272
-0.000425438
0.000181148
-0.000515821
0.000222018
-0.000592922
0.000158356
-0.000628917
-7.04266e-05
-0.00062013
-0.000399376
-0.000560038
-0.000719009
-0.000426585
-0.000935739
-0.000200856
-0.000945826
-0.000504997
0.000183808
-0.000670454
0.000294855
-0.00101966
0.000335047
-0.000948931
0.000349936
-0.000719999
0.000358465
-0.000402118
0.000357206
-7.00736e-05
0.000345408
0.000157381
0.000322439
0.000223249
0.00029638
0.000184213
0.000275399
0.000127675
0.000260405
9.15089e-05
0.000248418
7.38316e-05
0.000237295
6.5062e-05
0.000226503
5.91726e-05
0.000216402
5.32384e-05
0.000207653
4.60748e-05
0.000200871
3.72421e-05
0.000196692
2.67692e-05
0.000195438
1.52317e-05
0.000197604
3.24154e-06
0.000203003
-8.3279e-06
0.000211838
-1.89226e-05
0.000224279
-2.80755e-05
0.000239946
-3.41516e-05
0.000258179
-3.57082e-05
0.000278306
-3.19117e-05
0.000298547
-2.06061e-05
0.000316943
-1.25274e-06
0.000331352
2.64262e-05
0.000340128
6.13549e-05
0.0003417
0.000102425
0.000335223
0.000148237
0.000318977
0.000197016
0.000292418
0.000246964
0.000255757
0.000294534
0.000210818
0.000335051
0.000159754
0.000365901
0.000105206
0.000385675
4.86476e-05
0.000396518
-9.15828e-06
0.000401288
-6.73768e-05
0.000402238
-0.000125213
0.000398869
-0.000181047
0.000387546
-0.000233417
0.000366166
-0.000279199
0.000332741
-0.000316323
0.00029014
-0.000343092
0.000240765
-0.000359246
0.000188579
-0.000365462
0.000137342
-0.000362933
8.90363e-05
-0.000352736
4.52506e-05
-0.000336222
6.99452e-06
-0.000314877
-2.42116e-05
-0.000290374
-4.7662e-05
-0.000265446
-6.11505e-05
-0.000241469
-6.66461e-05
-0.000219797
-6.47791e-05
-0.00020202
-5.63171e-05
-0.000188801
-4.3535e-05
-0.000179803
-2.81588e-05
-0.000175405
-1.08173e-05
-0.00017549
7.23223e-06
-0.000179766
2.48987e-05
-0.000187941
4.14193e-05
-0.000199125
5.56121e-05
-0.000212365
6.71552e-05
-0.000226683
7.62508e-05
-0.000241344
8.41958e-05
-0.000256499
9.40133e-05
-0.000273902
0.000112228
-0.000295802
0.0001491
-0.000320821
0.000206167
-0.000341061
0.000242257
-0.000350067
0.000167363
-0.000350865
-6.96289e-05
-0.000345769
-0.000404471
-0.000336689
-0.000728089
-0.000301639
-0.000970789
-0.000189901
-0.00105756
-0.000694898
0.000100269
-0.000770722
9.9252e-05
-0.00101864
7.31305e-05
-0.00092281
5.61232e-05
-0.000702991
6.64662e-05
-0.00041246
0.000103476
-0.000107082
0.000154157
0.0001067
0.000200788
0.000176618
0.000228389
0.000156611
0.000239811
0.000116254
0.000242174
8.91456e-05
0.000239236
7.677e-05
0.000232472
7.18256e-05
0.000223083
6.85617e-05
0.000212679
6.36427e-05
0.000202737
5.60173e-05
0.000194594
4.5385e-05
0.000189283
3.2081e-05
0.000187766
1.67489e-05
0.000190078
9.29667e-07
0.000196468
-1.47186e-05
0.000207302
-2.97563e-05
0.000222636
-4.34091e-05
0.000242903
-5.44192e-05
0.000267703
-6.05073e-05
0.000295432
-5.96406e-05
0.000324099
-4.92732e-05
0.000352211
-2.93647e-05
0.000374525
4.11271e-06
0.000390138
4.57428e-05
0.000397217
9.53452e-05
0.000394466
0.000150988
0.000380437
0.000211045
0.000353872
0.000273529
0.00031453
0.000333876
0.000263887
0.000385694
0.000204112
0.000425676
0.000137104
0.000452683
6.47871e-05
0.000468836
-9.66423e-06
0.00047574
-8.45455e-05
0.00047712
-0.000157807
0.000472132
-0.000226496
0.000456234
-0.000287749
0.00042742
-0.000339549
0.000384543
-0.000379767
0.000330359
-0.000407062
0.000268061
-0.000421437
0.000202955
-0.000424035
0.00013994
-0.00041645
8.14516e-05
-0.000400285
2.90871e-05
-0.000375464
-1.78276e-05
-0.000345394
-5.4282e-05
-0.000312227
-8.08281e-05
-0.00027753
-9.58472e-05
-0.000245197
-9.89787e-05
-0.000217202
-9.2775e-05
-0.000194622
-7.88962e-05
-0.000177846
-6.03112e-05
-0.000166945
-3.90596e-05
-0.000161638
-1.61235e-05
-0.000161711
7.3059e-06
-0.000167154
3.03408e-05
-0.000177096
5.13618e-05
-0.000190254
6.877e-05
-0.000204946
8.18477e-05
-0.000219085
9.03889e-05
-0.000230486
9.55971e-05
-0.000237329
0.000100856
-0.00023752
0.000112419
-0.000226858
0.000138439
-0.00019766
0.000176969
-0.000148117
0.000192714
-9.55903e-05
0.000114838
-5.92121e-05
-0.000106007
-5.23489e-05
-0.000411335
-7.43931e-05
-0.000706044
-0.000103197
-0.000941984
-0.000104279
-0.00105648
-0.000799176
4.75598e-06
-0.000775478
-5.44858e-05
-0.000959397
-0.000106638
-0.000870657
-0.00013688
-0.000672748
-0.000127391
-0.000421949
-6.53706e-05
-0.000169102
2.30366e-05
1.82935e-05
0.000113127
8.65275e-05
0.000178691
9.10475e-05
0.00021724
7.77064e-05
0.000235928
7.04576e-05
0.00024188
7.08177e-05
0.000239304
7.44015e-05
0.000231129
7.67373e-05
0.000220136
7.46357e-05
0.000208412
6.77408e-05
0.000197978
5.58195e-05
0.000190782
3.92772e-05
0.000187799
1.97319e-05
0.000189707
-9.78161e-07
0.000196254
-2.12646e-05
0.000208177
-4.16803e-05
0.00022592
-6.11511e-05
0.000251289
-7.97886e-05
0.000284053
-9.32714e-05
0.000322155
-9.77419e-05
0.000363089
-9.02074e-05
0.000401606
-6.78808e-05
0.000434954
-2.92354e-05
0.000458986
2.17111e-05
0.000472886
8.14454e-05
0.000475815
0.00014806
0.000465593
0.000221267
0.000440552
0.00029857
0.000398512
0.000375917
0.000339006
0.0004452
0.000264759
0.000499923
0.000179101
0.00053834
8.65612e-05
0.000561375
-9.67202e-06
0.000571972
-0.000106075
0.000573522
-0.000199514
0.000565569
-0.000286723
0.000543443
-0.000362681
0.000503376
-0.000424149
0.00044601
-0.000468547
0.000374756
-0.00049561
0.000295123
-0.000506276
0.000213621
-0.000503259
0.000136924
-0.000489464
6.76559e-05
-0.000465505
5.12692e-06
-0.000432875
-5.04566e-05
-0.000391437
-9.57189e-05
-0.000345221
-0.000127044
-0.000298282
-0.000142786
-0.000255206
-0.000142054
-0.000219137
-0.000128844
-0.000191701
-0.000106332
-0.000171856
-8.01558e-05
-0.000159591
-5.13238e-05
-0.000153856
-2.18576e-05
-0.00015482
8.27001e-06
-0.000162235
3.77563e-05
-0.000175026
6.41527e-05
-0.000191582
8.53265e-05