/*--------------------------------*- C++ -*----------------------------------*\
| =========                 |                                                 |
| \\      /  F ield         | OpenFOAM: The Open Source CFD Toolbox           |
|  \\    /   O peration     | Version:  2412                                  |
|   \\  /    A nd           | Website:  www.openfoam.com                      |
|    \\/     M anipulation  |                                                 |
\*---------------------------------------------------------------------------*/
FoamFile
{
    version     2.0;
    format      ascii;
    arch        "LSB;label=32;scalar=64";
    class       volScalarField;
    location    "0.4";
    object      p;
}
// * * * * * * * * * * * * * * * * * * * * * * * * * * * * * * * * * * * * * //

dimensions      [1 -1 -2 0 0 0 0];

internalField   nonuniform List<scalar> 
6400
(
7069.55
7069.55
7069.55
7069.56
7069.57
7069.58
7069.59
7069.6
7069.61
7069.63
7069.64
7069.66
7069.68
7069.71
7069.73
7069.75
7069.78
7069.81
7069.83
7069.86
7069.89
7069.92
7069.95
7069.98
7070.01
7070.04
7070.07
7070.1
7070.12
7070.15
7070.17
7070.19
7070.21
7070.23
7070.24
7070.26
7070.27
7070.27
7070.27
7070.27
7070.27
7070.26
7070.25
7070.24
7070.22
7070.2
7070.18
7070.16
7070.13
7070.1
7070.07
7070.04
7070.01
7069.98
7069.94
7069.91
7069.87
7069.84
7069.81
7069.77
7069.74
7069.71
7069.68
7069.65
7069.62
7069.59
7069.57
7069.55
7069.52
7069.5
7069.48
7069.47
7069.45
7069.44
7069.43
7069.42
7069.41
7069.4
7069.4
7069.4
6706.58
6706.58
6706.58
6706.59
6706.59
6706.6
6706.61
6706.63
6706.64
6706.66
6706.67
6706.69
6706.71
6706.73
6706.76
6706.78
6706.81
6706.83
6706.86
6706.89
6706.92
6706.95
6706.98
6707.01
6707.04
6707.07
6707.1
6707.13
6707.15
6707.18
6707.2
6707.22
6707.24
6707.26
6707.28
6707.29
6707.3
6707.3
6707.31
6707.31
6707.3
6707.3
6707.29
6707.27
6707.26
6707.24
6707.21
6707.19
6707.16
6707.14
6707.11
6707.07
6707.04
6707.01
6706.97
6706.94
6706.9
6706.87
6706.84
6706.8
6706.77
6706.74
6706.71
6706.68
6706.65
6706.62
6706.6
6706.57
6706.55
6706.53
6706.51
6706.5
6706.48
6706.47
6706.46
6706.45
6706.44
6706.43
6706.43
6706.43
6343.61
6343.61
6343.61
6343.61
6343.62
6343.63
6343.64
6343.65
6343.67
6343.68
6343.7
6343.72
6343.74
6343.76
6343.79
6343.81
6343.84
6343.86
6343.89
6343.92
6343.95
6343.98
6344.01
6344.04
6344.07
6344.1
6344.13
6344.16
6344.19
6344.21
6344.24
6344.26
6344.28
6344.3
6344.31
6344.32
6344.33
6344.34
6344.34
6344.34
6344.34
6344.33
6344.32
6344.31
6344.29
6344.27
6344.25
6344.22
6344.2
6344.17
6344.14
6344.11
6344.07
6344.04
6344
6343.97
6343.93
6343.9
6343.87
6343.83
6343.8
6343.77
6343.74
6343.71
6343.68
6343.65
6343.62
6343.6
6343.58
6343.56
6343.54
6343.52
6343.51
6343.49
6343.48
6343.47
6343.47
6343.46
6343.46
6343.45
5980.63
5980.63
5980.63
5980.64
5980.65
5980.66
5980.67
5980.68
5980.69
5980.71
5980.73
5980.75
5980.77
5980.79
5980.81
5980.84
5980.86
5980.89
5980.92
5980.95
5980.98
5981.01
5981.04
5981.07
5981.1
5981.13
5981.16
5981.19
5981.22
5981.25
5981.27
5981.3
5981.32
5981.33
5981.35
5981.36
5981.37
5981.38
5981.38
5981.38
5981.38
5981.37
5981.36
5981.35
5981.33
5981.31
5981.29
5981.26
5981.23
5981.2
5981.17
5981.14
5981.11
5981.07
5981.03
5981
5980.96
5980.93
5980.89
5980.86
5980.83
5980.79
5980.76
5980.73
5980.7
5980.68
5980.65
5980.63
5980.6
5980.58
5980.56
5980.55
5980.53
5980.52
5980.51
5980.5
5980.49
5980.48
5980.48
5980.48
5617.65
5617.65
5617.66
5617.66
5617.67
5617.68
5617.69
5617.7
5617.72
5617.73
5617.75
5617.77
5617.79
5617.81
5617.84
5617.86
5617.89
5617.92
5617.94
5617.97
5618.01
5618.04
5618.07
5618.1
5618.13
5618.16
5618.2
5618.23
5618.25
5618.28
5618.31
5618.33
5618.36
5618.37
5618.39
5618.41
5618.42
5618.42
5618.43
5618.43
5618.42
5618.41
5618.4
5618.39
5618.37
5618.35
5618.33
5618.3
5618.27
5618.24
5618.21
5618.17
5618.14
5618.1
5618.07
5618.03
5617.99
5617.96
5617.92
5617.89
5617.85
5617.82
5617.79
5617.76
5617.73
5617.7
5617.67
5617.65
5617.63
5617.61
5617.59
5617.57
5617.55
5617.54
5617.53
5617.52
5617.51
5617.51
5617.5
5617.5
5254.67
5254.67
5254.68
5254.68
5254.69
5254.7
5254.71
5254.72
5254.74
5254.75
5254.77
5254.79
5254.81
5254.84
5254.86
5254.89
5254.91
5254.94
5254.97
5255
5255.03
5255.06
5255.1
5255.13
5255.16
5255.2
5255.23
5255.26
5255.29
5255.32
5255.35
5255.37
5255.4
5255.42
5255.44
5255.45
5255.46
5255.47
5255.47
5255.47
5255.47
5255.46
5255.45
5255.43
5255.42
5255.39
5255.37
5255.34
5255.31
5255.28
5255.24
5255.21
5255.17
5255.14
5255.1
5255.06
5255.02
5254.98
5254.95
5254.91
5254.88
5254.84
5254.81
5254.78
5254.75
5254.72
5254.7
5254.67
5254.65
5254.63
5254.61
5254.59
5254.58
5254.56
5254.55
5254.54
5254.53
5254.53
5254.52
5254.52
4891.69
4891.69
4891.7
4891.7
4891.71
4891.72
4891.73
4891.74
4891.76
4891.77
4891.79
4891.81
4891.83
4891.86
4891.88
4891.91
4891.94
4891.96
4892
4892.03
4892.06
4892.09
4892.13
4892.16
4892.2
4892.23
4892.26
4892.3
4892.33
4892.36
4892.39
4892.42
4892.44
4892.46
4892.48
4892.5
4892.51
4892.52
4892.52
4892.52
4892.52
4892.51
4892.5
4892.48
4892.46
4892.44
4892.41
4892.38
4892.35
4892.32
4892.28
4892.25
4892.21
4892.17
4892.13
4892.09
4892.05
4892.01
4891.97
4891.94
4891.9
4891.87
4891.83
4891.8
4891.77
4891.74
4891.72
4891.69
4891.67
4891.65
4891.63
4891.61
4891.59
4891.58
4891.57
4891.56
4891.55
4891.55
4891.54
4891.54
4528.71
4528.71
4528.71
4528.72
4528.73
4528.74
4528.75
4528.76
4528.78
4528.79
4528.81
4528.83
4528.85
4528.88
4528.9
4528.93
4528.96
4528.99
4529.02
4529.05
4529.09
4529.12
4529.15
4529.19
4529.23
4529.26
4529.3
4529.33
4529.37
4529.4
4529.43
4529.46
4529.49
4529.51
4529.53
4529.55
4529.56
4529.57
4529.58
4529.58
4529.57
4529.57
4529.55
4529.54
4529.51
4529.49
4529.46
4529.43
4529.4
4529.36
4529.32
4529.28
4529.24
4529.2
4529.16
4529.12
4529.08
4529.04
4529
4528.96
4528.92
4528.89
4528.85
4528.82
4528.79
4528.76
4528.73
4528.71
4528.69
4528.66
4528.64
4528.63
4528.61
4528.6
4528.59
4528.58
4528.57
4528.56
4528.56
4528.56
4165.73
4165.73
4165.73
4165.74
4165.74
4165.75
4165.76
4165.78
4165.79
4165.81
4165.83
4165.85
4165.87
4165.9
4165.92
4165.95
4165.98
4166.01
4166.04
4166.08
4166.11
4166.15
4166.18
4166.22
4166.26
4166.3
4166.33
4166.37
4166.41
4166.44
4166.48
4166.51
4166.54
4166.57
4166.59
4166.61
4166.62
4166.63
4166.64
4166.64
4166.63
4166.62
4166.61
4166.59
4166.57
4166.54
4166.51
4166.48
4166.44
4166.4
4166.36
4166.32
4166.28
4166.24
4166.19
4166.15
4166.11
4166.07
4166.02
4165.98
4165.95
4165.91
4165.87
4165.84
4165.81
4165.78
4165.75
4165.73
4165.7
4165.68
4165.66
4165.64
4165.63
4165.61
4165.6
4165.59
4165.58
4165.58
4165.57
4165.57
3802.74
3802.74
3802.74
3802.75
3802.76
3802.77
3802.78
3802.79
3802.81
3802.82
3802.84
3802.86
3802.89
3802.91
3802.94
3802.97
3803
3803.03
3803.06
3803.1
3803.13
3803.17
3803.21
3803.25
3803.29
3803.33
3803.37
3803.41
3803.45
3803.49
3803.53
3803.56
3803.59
3803.62
3803.65
3803.67
3803.68
3803.69
3803.7
3803.7
3803.7
3803.69
3803.67
3803.65
3803.63
3803.6
3803.57
3803.53
3803.49
3803.45
3803.41
3803.36
3803.32
3803.27
3803.22
3803.18
3803.13
3803.09
3803.05
3803.01
3802.97
3802.93
3802.89
3802.86
3802.82
3802.79
3802.77
3802.74
3802.72
3802.69
3802.67
3802.65
3802.64
3802.62
3802.61
3802.6
3802.59
3802.59
3802.58
3802.58
3439.75
3439.75
3439.76
3439.76
3439.77
3439.78
3439.79
3439.8
3439.82
3439.84
3439.86
3439.88
3439.9
3439.93
3439.95
3439.98
3440.01
3440.05
3440.08
3440.12
3440.16
3440.2
3440.24
3440.28
3440.32
3440.36
3440.41
3440.45
3440.49
3440.54
3440.58
3440.61
3440.65
3440.68
3440.71
3440.73
3440.75
3440.76
3440.77
3440.77
3440.77
3440.76
3440.74
3440.72
3440.69
3440.66
3440.62
3440.59
3440.54
3440.5
3440.45
3440.4
3440.35
3440.3
3440.26
3440.21
3440.16
3440.11
3440.07
3440.03
3439.98
3439.94
3439.91
3439.87
3439.84
3439.81
3439.78
3439.75
3439.73
3439.7
3439.68
3439.67
3439.65
3439.64
3439.62
3439.61
3439.61
3439.6
3439.6
3439.59
3076.76
3076.76
3076.77
3076.77
3076.78
3076.79
3076.8
3076.81
3076.83
3076.85
3076.87
3076.89
3076.91
3076.94
3076.97
3077
3077.03
3077.06
3077.1
3077.14
3077.18
3077.22
3077.26
3077.31
3077.35
3077.4
3077.45
3077.49
3077.54
3077.58
3077.63
3077.67
3077.71
3077.74
3077.77
3077.8
3077.82
3077.84
3077.85
3077.85
3077.84
3077.83
3077.81
3077.79
3077.76
3077.73
3077.69
3077.64
3077.6
3077.55
3077.5
3077.44
3077.39
3077.34
3077.29
3077.24
3077.19
3077.14
3077.09
3077.04
3077
3076.96
3076.92
3076.88
3076.85
3076.82
3076.79
3076.76
3076.74
3076.71
3076.69
3076.67
3076.66
3076.64
3076.63
3076.62
3076.61
3076.61
3076.6
3076.6
2713.77
2713.77
2713.77
2713.78
2713.79
2713.8
2713.81
2713.82
2713.84
2713.86
2713.88
2713.9
2713.92
2713.95
2713.98
2714.01
2714.04
2714.08
2714.12
2714.16
2714.2
2714.24
2714.29
2714.33
2714.38
2714.43
2714.48
2714.53
2714.58
2714.63
2714.68
2714.73
2714.77
2714.81
2714.85
2714.88
2714.9
2714.92
2714.93
2714.93
2714.93
2714.91
2714.89
2714.87
2714.83
2714.8
2714.75
2714.7
2714.65
2714.6
2714.54
2714.49
2714.43
2714.37
2714.32
2714.26
2714.21
2714.16
2714.11
2714.06
2714.02
2713.97
2713.93
2713.9
2713.86
2713.83
2713.8
2713.77
2713.74
2713.72
2713.7
2713.68
2713.66
2713.65
2713.64
2713.63
2713.62
2713.61
2713.61
2713.61
2350.77
2350.78
2350.78
2350.79
2350.79
2350.8
2350.81
2350.83
2350.84
2350.86
2350.88
2350.91
2350.93
2350.96
2350.99
2351.02
2351.05
2351.09
2351.13
2351.17
2351.21
2351.26
2351.31
2351.36
2351.41
2351.46
2351.52
2351.57
2351.63
2351.68
2351.74
2351.79
2351.84
2351.88
2351.92
2351.96
2351.98
2352
2352.02
2352.02
2352.02
2352
2351.98
2351.95
2351.91
2351.87
2351.82
2351.77
2351.71
2351.65
2351.59
2351.53
2351.47
2351.41
2351.35
2351.29
2351.23
2351.18
2351.12
2351.07
2351.03
2350.98
2350.94
2350.9
2350.87
2350.83
2350.8
2350.77
2350.75
2350.73
2350.7
2350.69
2350.67
2350.66
2350.64
2350.63
2350.63
2350.62
2350.62
2350.61
1987.78
1987.78
1987.78
1987.79
1987.8
1987.81
1987.82
1987.83
1987.85
1987.87
1987.89
1987.91
1987.94
1987.96
1987.99
1988.03
1988.06
1988.1
1988.14
1988.18
1988.23
1988.28
1988.33
1988.38
1988.44
1988.5
1988.56
1988.62
1988.68
1988.74
1988.8
1988.85
1988.91
1988.96
1989
1989.04
1989.08
1989.1
1989.11
1989.12
1989.11
1989.1
1989.07
1989.04
1989
1988.95
1988.9
1988.84
1988.77
1988.71
1988.64
1988.57
1988.5
1988.44
1988.37
1988.31
1988.25
1988.19
1988.14
1988.09
1988.04
1987.99
1987.95
1987.91
1987.87
1987.84
1987.81
1987.78
1987.75
1987.73
1987.71
1987.69
1987.67
1987.66
1987.65
1987.64
1987.63
1987.62
1987.62
1987.62
1624.78
1624.78
1624.79
1624.79
1624.8
1624.81
1624.82
1624.84
1624.85
1624.87
1624.89
1624.91
1624.94
1624.97
1625
1625.03
1625.07
1625.11
1625.15
1625.19
1625.24
1625.29
1625.35
1625.4
1625.46
1625.53
1625.59
1625.66
1625.72
1625.79
1625.86
1625.92
1625.98
1626.04
1626.09
1626.14
1626.18
1626.2
1626.22
1626.23
1626.22
1626.21
1626.18
1626.14
1626.09
1626.04
1625.97
1625.91
1625.84
1625.76
1625.69
1625.61
1625.54
1625.47
1625.4
1625.33
1625.27
1625.21
1625.15
1625.09
1625.04
1625
1624.95
1624.91
1624.87
1624.84
1624.81
1624.78
1624.75
1624.73
1624.71
1624.69
1624.67
1624.66
1624.65
1624.64
1624.63
1624.62
1624.62
1624.62
1261.78
1261.78
1261.79
1261.79
1261.8
1261.81
1261.82
1261.84
1261.85
1261.87
1261.89
1261.91
1261.94
1261.97
1262
1262.03
1262.07
1262.11
1262.15
1262.2
1262.25
1262.31
1262.36
1262.42
1262.49
1262.55
1262.62
1262.7
1262.77
1262.84
1262.92
1262.99
1263.06
1263.13
1263.19
1263.24
1263.29
1263.32
1263.34
1263.35
1263.34
1263.32
1263.29
1263.25
1263.19
1263.13
1263.06
1262.98
1262.9
1262.82
1262.74
1262.65
1262.57
1262.5
1262.42
1262.35
1262.28
1262.22
1262.16
1262.1
1262.05
1262
1261.95
1261.91
1261.87
1261.84
1261.8
1261.78
1261.75
1261.73
1261.7
1261.69
1261.67
1261.66
1261.64
1261.63
1261.63
1261.62
1261.62
1261.61
898.778
898.78
898.784
898.79
898.798
898.807
898.819
898.833
898.849
898.868
898.888
898.912
898.938
898.966
898.998
899.032
899.07
899.112
899.157
899.206
899.258
899.315
899.376
899.44
899.509
899.58
899.655
899.733
899.814
899.897
899.98
900.063
900.144
900.221
900.292
900.354
900.407
900.446
900.472
900.482
900.476
900.455
900.417
900.366
900.303
900.229
900.147
900.06
899.969
899.877
899.785
899.694
899.606
899.522
899.441
899.364
899.293
899.225
899.161
899.101
899.046
898.995
898.949
898.906
898.867
898.832
898.799
898.77
898.744
898.721
898.7
898.682
898.666
898.652
898.64
898.63
898.623
898.617
898.613
898.611
535.775
535.777
535.781
535.787
535.795
535.805
535.816
535.83
535.846
535.864
535.885
535.908
535.934
535.962
535.994
536.029
536.068
536.11
536.156
536.207
536.261
536.321
536.385
536.453
536.526
536.601
536.682
536.767
536.857
536.949
537.043
537.137
537.229
537.318
537.401
537.474
537.536
537.584
537.616
537.629
537.623
537.597
537.554
537.494
537.42
537.334
537.24
537.14
537.037
536.933
536.83
536.73
536.634
536.543
536.457
536.377
536.3
536.228
536.161
536.099
536.042
535.99
535.942
535.899
535.86
535.824
535.792
535.764
535.738
535.715
535.694
535.676
535.66
535.647
535.635
535.626
535.618
535.613
535.609
535.607
172.759
172.761
172.765
172.771
172.778
172.787
172.799
172.812
172.828
172.846
172.866
172.889
172.915
172.944
172.975
173.011
173.05
173.093
173.14
173.192
173.25
173.313
173.381
173.457
173.542
173.634
173.732
173.838
173.948
174.064
174.183
174.304
174.424
174.541
174.651
174.751
174.836
174.902
174.946
174.966
174.96
174.928
174.87
174.791
174.693
174.58
174.457
174.327
174.196
174.064
173.935
173.811
173.693
173.582
173.478
173.383
173.295
173.216
173.145
173.08
173.021
172.967
172.919
172.875
172.836
172.801
172.769
172.741
172.716
172.693
172.673
172.656
172.64
172.627
172.616
172.607
172.6
172.594
172.59
172.588
-9.04609
-9.04392
-9.03973
-9.03352
-9.02521
-9.01473
-9.00203
-8.987
-8.96955
-8.94955
-8.92684
-8.90125
-8.87256
-8.84057
-8.80504
-8.7657
-8.72228
-8.67444
-8.62186
-8.56417
-8.50104
-8.432
-8.35615
-8.27175
-8.17887
-8.078
-7.96985
-7.85513
-7.73462
-7.60893
-7.47948
-7.3485
-7.21836
-7.09209
-6.9733
-6.86604
-6.77456
-6.70304
-6.65513
-6.63358
-6.6399
-6.67418
-6.73505
-6.81978
-6.92462
-7.04522
-7.17709
-7.31592
-7.45786
-7.5998
-7.73901
-7.87312
-8.00087
-8.12163
-8.2347
-8.33934
-8.43534
-8.52248
-8.60075
-8.67186
-8.73661
-8.79555
-8.849
-8.89736
-8.94101
-8.98032
-9.01564
-9.04729
-9.07559
-9.10079
-9.12308
-9.14268
-9.15974
-9.1744
-9.18675
-9.19694
-9.20502
-9.21109
-9.2152
-9.21724
-9.60804
-9.60578
-9.60132
-9.59454
-9.5854
-9.57384
-9.5598
-9.54318
-9.52389
-9.50177
-9.47666
-9.44837
-9.41667
-9.38135
-9.34216
-9.29885
-9.2511
-9.19861
-9.14102
-9.07802
-9.00927
-8.93442
-8.85306
-8.76507
-8.67048
-8.56922
-8.46135
-8.34716
-8.22723
-8.10207
-7.97339
-7.8429
-7.71304
-7.58686
-7.46795
-7.36037
-7.26845
-7.19643
-7.1481
-7.12631
-7.13257
-7.16701
-7.22826
-7.31348
-7.41879
-7.53975
-7.6718
-7.8106
-7.95231
-8.09365
-8.23214
-8.36597
-8.49305
-8.61334
-8.7263
-8.83179
-8.9298
-9.02062
-9.10432
-9.18109
-9.25137
-9.31556
-9.37398
-9.42699
-9.47496
-9.51826
-9.55726
-9.59225
-9.62353
-9.6514
-9.67607
-9.69774
-9.7166
-9.7328
-9.74648
-9.75772
-9.76661
-9.77322
-9.77759
-9.77976
-10.1015
-10.0993
-10.0949
-10.0881
-10.0791
-10.0676
-10.0537
-10.0372
-10.018
-9.99611
-9.97119
-9.9431
-9.91165
-9.87659
-9.8377
-9.7947
-9.74728
-9.69513
-9.63789
-9.57523
-9.5068
-9.43223
-9.35125
-9.26363
-9.1692
-9.06786
-8.95964
-8.84469
-8.72334
-8.5968
-8.46605
-8.33284
-8.19955
-8.06926
-7.9457
-7.83319
-7.73643
-7.66014
-7.60859
-7.58503
-7.59118
-7.62721
-7.69162
-7.78116
-7.89145
-8.01757
-8.15453
-8.29769
-8.44303
-8.58727
-8.7279
-8.86307
-8.99193
-9.11312
-9.22647
-9.33199
-9.42974
-9.52002
-9.60317
-9.67948
-9.74928
-9.81297
-9.87091
-9.92348
-9.97107
-10.014
-10.0526
-10.0873
-10.1184
-10.146
-10.1704
-10.1919
-10.2106
-10.2266
-10.2402
-10.2513
-10.2601
-10.2666
-10.2709
-10.2731
-10.5969
-10.5947
-10.5903
-10.5837
-10.5748
-10.5635
-10.5497
-10.5335
-10.5146
-10.493
-10.4685
-10.4408
-10.4098
-10.3752
-10.3369
-10.2945
-10.2477
-10.1962
-10.1397
-10.0777
-10.01
-9.93617
-9.85583
-9.76872
-9.67458
-9.57321
-9.46453
-9.34862
-9.22576
-9.09656
-8.96208
-8.8239
-8.68433
-8.54647
-8.41426
-8.29248
-8.18652
-8.10199
-8.04412
-8.01705
-8.02301
-8.06226
-8.1329
-8.23085
-8.35072
-8.4866
-8.63273
-8.78395
-8.93599
-9.0855
-9.2301
-9.36828
-9.49854
-9.62073
-9.73452
-9.83995
-9.93723
-10.0267
-10.1089
-10.1842
-10.253
-10.3157
-10.3727
-10.4245
-10.4713
-10.5135
-10.5515
-10.5857
-10.6162
-10.6433
-10.6673
-10.6884
-10.7068
-10.7226
-10.7359
-10.7468
-10.7555
-10.7619
-10.7661
-10.7682
-11.0947
-11.0925
-11.0882
-11.0817
-11.073
-11.0619
-11.0485
-11.0326
-11.0142
-10.993
-10.969
-10.9419
-10.9116
-10.8777
-10.8402
-10.7987
-10.7528
-10.7023
-10.6468
-10.5859
-10.5192
-10.4464
-10.367
-10.2807
-10.187
-10.0857
-9.97651
-9.85933
-9.73425
-9.6014
-9.46166
-9.31634
-9.16757
-9.01846
-8.87323
-8.73728
-8.61701
-8.51946
-8.4515
-8.41875
-8.42438
-8.46882
-8.54948
-8.66082
-8.79572
-8.94666
-9.10668
-9.26991
-9.43176
-9.58883
-9.73883
-9.88035
-10.0132
-10.1367
-10.2509
-10.356
-10.4525
-10.5408
-10.6216
-10.6954
-10.7628
-10.8241
-10.8798
-10.9304
-10.9761
-11.0173
-11.0544
-11.0877
-11.1174
-11.1439
-11.1673
-11.1879
-11.2058
-11.2212
-11.2341
-11.2448
-11.2532
-11.2595
-11.2636
-11.2657
-11.5947
-11.5926
-11.5884
-11.5821
-11.5736
-11.5629
-11.5499
-11.5344
-11.5165
-11.496
-11.4726
-11.4463
-11.4169
-11.384
-11.3476
-11.3071
-11.2625
-11.2133
-11.1592
-11.0997
-11.0345
-10.963
-10.885
-10.7998
-10.7069
-10.606
-10.4964
-10.3779
-10.2503
-10.113
-9.9667
-9.81226
-9.65145
-9.48724
-9.32408
-9.16812
-9.02719
-8.91039
-8.82718
-8.78567
-8.79069
-8.84303
-8.93887
-9.07016
-9.22696
-9.39935
-9.57868
-9.75817
-9.93291
-10.0996
-10.2564
-10.4022
-10.5374
-10.6619
-10.7761
-10.8805
-10.9758
-11.0625
-11.1414
-11.2132
-11.2787
-11.3381
-11.3921
-11.4411
-11.4853
-11.5252
-11.5611
-11.5933
-11.622
-11.6476
-11.6703
-11.6902
-11.7075
-11.7223
-11.7348
-11.7451
-11.7533
-11.7593
-11.7633
-11.7653
-12.0969
-12.0949
-12.0909
-12.0848
-12.0766
-12.0663
-12.0538
-12.0389
-12.0217
-12.0019
-11.9794
-11.9541
-11.9257
-11.894
-11.8588
-11.8199
-11.7768
-11.7292
-11.6768
-11.6191
-11.5557
-11.4862
-11.4099
-11.3264
-11.2349
-11.1348
-11.0253
-10.9057
-10.7751
-10.6335
-10.4798
-10.3147
-10.1392
-9.95589
-9.76933
-9.58635
-9.41653
-9.27193
-9.16597
-9.111
-9.11481
-9.17895
-9.29736
-9.45766
-9.64543
-9.84719
-10.052
-10.2522
-10.4427
-10.6208
-10.7851
-10.9355
-11.0728
-11.1977
-11.3113
-11.4142
-11.5074
-11.5918
-11.6683
-11.7376
-11.8006
-11.8577
-11.9095
-11.9565
-11.9989
-12.0372
-12.0715
-12.1024
-12.1299
-12.1544
-12.1761
-12.1952
-12.2117
-12.226
-12.2379
-12.2478
-12.2556
-12.2614
-12.2652
-12.2672
-12.6013
-12.5994
-12.5955
-12.5897
-12.5819
-12.572
-12.5601
-12.5459
-12.5295
-12.5106
-12.4891
-12.4649
-12.4378
-12.4076
-12.3739
-12.3367
-12.2954
-12.2498
-12.1995
-12.1441
-12.0831
-12.0159
-11.9421
-11.8608
-11.7714
-11.673
-11.5643
-11.4444
-11.3119
-11.1658
-11.0047
-10.8278
-10.6355
-10.4293
-10.2133
-9.99482
-9.78527
-9.60069
-9.46059
-9.38455
-9.38585
-9.46782
-9.62006
-9.82251
-10.0535
-10.2944
-10.5317
-10.757
-10.9658
-11.1562
-11.3281
-11.4824
-11.621
-11.7454
-11.8572
-11.9576
-12.0479
-12.1292
-12.2024
-12.2686
-12.3285
-12.3828
-12.432
-12.4765
-12.5168
-12.553
-12.5856
-12.6148
-12.6409
-12.6642
-12.6847
-12.7028
-12.7185
-12.732
-12.7433
-12.7527
-12.7601
-12.7656
-12.7692
-12.7711
-13.1077
-13.1059
-13.1022
-13.0967
-13.0894
-13.08
-13.0687
-13.0554
-13.0398
-13.0219
-13.0017
-12.9788
-12.9531
-12.9245
-12.8927
-12.8574
-12.8183
-12.7751
-12.7273
-12.6746
-12.6164
-12.5523
-12.4816
-12.4035
-12.3172
-12.2214
-12.1148
-11.9958
-11.8627
-11.7134
-11.5457
-11.3574
-11.1471
-10.9149
-10.6633
-10.3991
-10.1354
-9.89317
-9.70107
-9.59118
-9.58719
-9.69711
-9.90125
-10.1654
-10.4561
-10.7482
-11.0255
-11.2798
-11.5081
-11.7105
-11.8884
-12.0455
-12.1839
-12.3063
-12.4149
-12.5115
-12.5976
-12.6747
-12.7438
-12.8061
-12.8623
-12.9131
-12.9592
-13.0009
-13.0386
-13.0726
-13.1031
-13.1305
-13.1549
-13.1767
-13.196
-13.2129
-13.2276
-13.2402
-13.2509
-13.2596
-13.2666
-13.2718
-13.2752
-13.2769
-13.616
-13.6143
-13.6109
-13.6058
-13.5989
-13.5902
-13.5796
-13.5671
-13.5525
-13.5358
-13.5169
-13.4955
-13.4715
-13.4447
-13.415
-13.3819
-13.3453
-13.3047
-13.2599
-13.2104
-13.1557
-13.0953
-13.0286
-12.9547
-12.8726
-12.7809
-12.6781
-12.562
-12.4303
-12.2801
-12.1083
-11.9105
-11.683
-11.4232
-11.1305
-10.8094
-10.4728
-10.1471
-9.87432
-9.70846
-9.69295
-9.84919
-10.1355
-10.4908
-10.8637
-11.2208
-11.545
-11.8304
-12.0774
-12.29
-12.4713
-12.6279
-12.7635
-12.8816
-12.985
-13.0761
-13.1567
-13.2284
-13.2924
-13.3498
-13.4017
-13.4486
-13.4911
-13.5295
-13.5643
-13.5956
-13.6238
-13.6491
-13.6717
-13.6918
-13.7096
-13.7253
-13.7389
-13.7506
-13.7604
-13.7686
-13.775
-13.7798
-13.783
-13.7846
-14.1262
-14.1246
-14.1215
-14.1167
-14.1103
-14.1023
-14.0925
-14.081
-14.0675
-14.0521
-14.0346
-14.0148
-13.9927
-13.9679
-13.9404
-13.9099
-13.876
-13.8385
-13.797
-13.7512
-13.7007
-13.6448
-13.583
-13.5144
-13.4379
-13.3521
-13.2551
-13.1446
-13.0176
-12.8704
-12.6983
-12.4957
-12.2549
-11.9691
-11.6325
-11.2435
-10.8113
-10.3651
-9.96481
-9.70194
-9.66312
-9.90014
-10.321
-10.8124
-11.2961
-11.7322
-12.1073
-12.422
-12.6832
-12.8991
-13.0805
-13.2326
-13.3616
-13.4722
-13.568
-13.6516
-13.7251
-13.7901
-13.8479
-13.8997
-13.9465
-13.9888
-14.0272
-14.062
-14.0935
-14.1219
-14.1475
-14.1705
-14.191
-14.2093
-14.2255
-14.2398
-14.2522
-14.2629
-14.2719
-14.2793
-14.2852
-14.2896
-14.2925
-14.294
-14.6381
-14.6367
-14.6338
-14.6294
-14.6236
-14.6162
-14.6073
-14.5968
-14.5846
-14.5705
-14.5545
-14.5365
-14.5164
-14.4939
-14.4689
-14.4411
-14.4103
-14.3762
-14.3385
-14.2969
-14.2511
-14.2005
-14.1445
-14.0824
-14.0131
-13.9352
-13.8466
-13.745
-13.6269
-13.4878
-13.3221
-13.1227
-12.8766
-12.5722
-12.195
-11.7321
-11.1802
-10.5632
-9.95934
-9.52426
-9.42953
-9.81953
-10.4685
-11.1621
-11.7891
-12.3133
-12.7357
-13.071
-13.3365
-13.5487
-13.7209
-13.8621
-13.9795
-14.0788
-14.1639
-14.2378
-14.3024
-14.3594
-14.4099
-14.4553
-14.4962
-14.5334
-14.5672
-14.598
-14.6259
-14.6512
-14.6739
-14.6944
-14.7127
-14.729
-14.7435
-14.7562
-14.7674
-14.7769
-14.785
-14.7917
-14.797
-14.8009
-14.8036
-14.8049
-15.1515
-15.1502
-15.1476
-15.1437
-15.1385
-15.1319
-15.1239
-15.1144
-15.1035
-15.0909
-15.0766
-15.0605
-15.0425
-15.0224
-15
-14.9752
-14.9477
-14.9173
-14.8838
-14.8469
-14.8064
-14.7618
-14.7127
-14.6584
-14.5979
-14.5299
-14.4526
-14.3636
-14.2594
-14.1354
-13.9846
-13.7973
-13.5629
-13.2565
-12.8544
-12.3255
-11.6391
-10.7905
-9.86066
-9.10974
-8.88547
-9.57964
-10.6269
-11.6099
-12.4043
-13.0089
-13.4597
-13.7955
-14.048
-14.2425
-14.3951
-14.5174
-14.6173
-14.7009
-14.7722
-14.8339
-14.8878
-14.9354
-14.9777
-15.0158
-15.0503
-15.0818
-15.1107
-15.1371
-15.1611
-15.1829
-15.2027
-15.2204
-15.2364
-15.2506
-15.2633
-15.2744
-15.2842
-15.2926
-15.2997
-15.3056
-15.3102
-15.3137
-15.316
-15.3171
-15.6664
-15.6652
-15.6629
-15.6595
-15.6548
-15.649
-15.642
-15.6337
-15.624
-15.613
-15.6005
-15.5864
-15.5706
-15.553
-15.5335
-15.5118
-15.4878
-15.4614
-15.4325
-15.4007
-15.3661
-15.3282
-15.2869
-15.2415
-15.1913
-15.1354
-15.0723
-14.9998
-14.9152
-14.814
-14.6895
-14.5314
-14.3243
-14.0483
-13.6577
-13.1018
-12.3005
-11.1731
-9.74731
-8.43849
-8.00319
-9.22727
-10.9442
-12.3029
-13.2425
-13.8791
-14.3123
-14.6115
-14.8258
-14.9835
-15.1035
-15.1976
-15.2737
-15.3371
-15.3913
-15.4386
-15.4802
-15.5172
-15.5504
-15.5805
-15.6081
-15.6335
-15.657
-15.6787
-15.6987
-15.7169
-15.7334
-15.7484
-15.7618
-15.7739
-15.7846
-15.7941
-15.8024
-15.8096
-15.8157
-15.8208
-15.8247
-15.8277
-15.8297
-15.8307
-16.1825
-16.1815
-16.1795
-16.1765
-16.1725
-16.1675
-16.1615
-16.1543
-16.1461
-16.1366
-16.1259
-16.1139
-16.1005
-16.0855
-16.0689
-16.0505
-16.0303
-16.0081
-15.9839
-15.9577
-15.9293
-15.8988
-15.8659
-15.8304
-15.792
-15.75
-15.7035
-15.6514
-15.5916
-15.5211
-15.4349
-15.3241
-15.1743
-14.9617
-14.6544
-14.1684
-13.3616
-12.0041
-9.97508
-7.81157
-7.21808
-9.30984
-11.8136
-13.5153
-14.454
-14.9894
-15.3194
-15.5318
-15.6721
-15.7702
-15.8428
-15.8993
-15.9455
-15.9846
-16.019
-16.0499
-16.0779
-16.1034
-16.1268
-16.1484
-16.1686
-16.1877
-16.2056
-16.2225
-16.2381
-16.2525
-16.2658
-16.2778
-16.2887
-16.2985
-16.3073
-16.3151
-16.3219
-16.3279
-16.3329
-16.3371
-16.3404
-16.3429
-16.3445
-16.3453
-16.6996
-16.6988
-16.6971
-16.6946
-16.6913
-16.6871
-16.6821
-16.6762
-16.6693
-16.6615
-16.6527
-16.6428
-16.6318
-16.6195
-16.6059
-16.591
-16.5746
-16.5568
-16.5376
-16.5171
-16.4954
-16.4725
-16.4486
-16.4238
-16.398
-16.3711
-16.3432
-16.3141
-16.2834
-16.2503
-16.2131
-16.1679
-16.1071
-16.0161
-15.8727
-15.638
-15.1308
-13.8845
-11.5
-8.26975
-7.99168
-11.3279
-14.1224
-15.6833
-16.2
-16.3861
-16.4942
-16.5501
-16.5771
-16.5927
-16.6047
-16.6158
-16.6272
-16.6393
-16.6521
-16.6653
-16.6789
-16.6923
-16.7055
-16.7184
-16.7311
-16.7436
-16.7558
-16.7677
-16.7789
-16.7895
-16.7994
-16.8084
-16.8167
-16.8243
-16.831
-16.8371
-16.8424
-16.8471
-16.8511
-16.8543
-16.857
-16.8589
-16.8602
-16.8609
-17.2177
-17.217
-17.2157
-17.2137
-17.211
-17.2077
-17.2037
-17.199
-17.1936
-17.1874
-17.1805
-17.1728
-17.1642
-17.1547
-17.1442
-17.1327
-17.1203
-17.1069
-17.0928
-17.0782
-17.0632
-17.0483
-17.0336
-17.0197
-17.0069
-16.9958
-16.9871
-16.9821
-16.9824
-16.9903
-17.0088
-17.0423
-17.0964
-17.1788
-17.3118
-17.5756
-17.9485
-17.7552
-15.888
-11.8308
-12.7482
-17.6248
-19.2813
-19.2836
-18.5916
-18.0685
-17.8021
-17.6324
-17.5137
-17.4312
-17.3748
-17.3368
-17.3117
-17.2958
-17.2865
-17.282
-17.2808
-17.2821
-17.2851
-17.2893
-17.2945
-17.3005
-17.307
-17.3138
-17.3206
-17.3274
-17.3338
-17.3399
-17.3455
-17.3508
-17.3555
-17.3598
-17.3637
-17.3671
-17.37
-17.3724
-17.3743
-17.3757
-17.3767
-17.3772
-17.7364
-17.7359
-17.7349
-17.7334
-17.7315
-17.729
-17.726
-17.7225
-17.7186
-17.7141
-17.7091
-17.7036
-17.6974
-17.6906
-17.6832
-17.6752
-17.6667
-17.6579
-17.6489
-17.6401
-17.632
-17.6249
-17.6194
-17.6163
-17.6163
-17.6204
-17.6304
-17.6487
-17.6787
-17.7261
-17.7993
-17.9122
-18.0879
-18.3666
-18.8415
-19.7704
-21.4948
-24.014
-24.7157
-18.7323
-20.838
-29.1424
-26.8111
-23.4386
-21.1622
-19.8153
-19.1141
-18.7019
-18.4349
-18.2564
-18.1345
-18.0498
-17.9903
-17.9481
-17.9179
-17.8965
-17.8815
-17.8711
-17.8642
-17.86
-17.8579
-17.8574
-17.8583
-17.8602
-17.8627
-17.8656
-17.8687
-17.8718
-17.8749
-17.8778
-17.8806
-17.8831
-17.8855
-17.8876
-17.8894
-17.8909
-17.8922
-17.8931
-17.8938
-17.8941
-18.2558
-18.2554
-18.2548
-18.2538
-18.2524
-18.2508
-18.2489
-18.2467
-18.2441
-18.2413
-18.2382
-18.2348
-18.2311
-18.227
-18.2227
-18.2182
-18.2136
-18.2091
-18.2052
-18.2022
-18.2007
-18.2012
-18.2046
-18.2117
-18.2235
-18.2416
-18.2682
-18.3066
-18.3619
-18.4419
-18.5589
-18.7339
-19.0011
-19.4202
-20.1278
-21.4139
-23.6431
-27.3773
-32.9152
-33.5464
-36.3823
-36.4831
-29.5266
-25.435
-22.8467
-21.1737
-20.2218
-19.6548
-19.2852
-19.0363
-18.8643
-18.7427
-18.6549
-18.5904
-18.5423
-18.506
-18.4784
-18.4574
-18.4413
-18.4292
-18.4202
-18.4138
-18.4093
-18.4064
-18.4047
-18.4039
-18.4036
-18.4038
-18.4044
-18.405
-18.4059
-18.4067
-18.4076
-18.4084
-18.4092
-18.4099
-18.4104
-18.4109
-18.4112
-18.4114
-18.7755
-18.7753
-18.775
-18.7745
-18.7738
-18.773
-18.7721
-18.7711
-18.77
-18.7688
-18.7675
-18.7662
-18.7649
-18.7635
-18.7622
-18.761
-18.7602
-18.7601
-18.7611
-18.7637
-18.7685
-18.7762
-18.7878
-18.8042
-18.8265
-18.8565
-18.8965
-18.9505
-19.0239
-19.1252
-19.268
-19.4742
-19.7778
-20.2345
-20.9698
-22.1753
-23.9052
-26.3178
-31.3104
-35.4778
-37.3412
-33.3538
-27.7807
-25.3185
-23.4295
-21.956
-21.0187
-20.4282
-20.0273
-19.7482
-19.55
-19.4059
-19.299
-19.2184
-19.1564
-19.108
-19.0698
-19.0395
-19.0154
-18.9961
-18.9808
-18.9687
-18.9592
-18.9518
-18.9461
-18.9417
-18.9383
-18.9357
-18.9337
-18.9322
-18.9311
-18.9304
-18.9298
-18.9294
-18.9291
-18.929
-18.9289
-18.9289
-18.9289
-18.9289
-19.2954
-19.2954
-19.2953
-19.2953
-19.2953
-19.2953
-19.2954
-19.2956
-19.2959
-19.2963
-19.2968
-19.2975
-19.2985
-19.2997
-19.3013
-19.3034
-19.3064
-19.3104
-19.316
-19.3238
-19.3346
-19.349
-19.368
-19.3924
-19.4235
-19.4629
-19.5128
-19.577
-19.6605
-19.7708
-19.9195
-20.1243
-20.4097
-20.8109
-21.4065
-22.2871
-23.3212
-24.6843
-27.1504
-29.1585
-29.0974
-28.1779
-25.6875
-24.4192
-23.3021
-22.259
-21.5264
-21.0219
-20.6549
-20.3855
-20.1859
-20.0352
-19.9196
-19.8294
-19.7581
-19.7008
-19.6543
-19.6164
-19.5853
-19.5598
-19.5388
-19.5216
-19.5074
-19.4959
-19.4864
-19.4786
-19.4722
-19.467
-19.4627
-19.4591
-19.4562
-19.4538
-19.4518
-19.4503
-19.449
-19.4481
-19.4474
-19.4469
-19.4466
-19.4464
-19.8153
-19.8155
-19.8158
-19.8162
-19.8168
-19.8176
-19.8187
-19.82
-19.8216
-19.8235
-19.8258
-19.8285
-19.8316
-19.8354
-19.8397
-19.845
-19.8514
-19.8594
-19.8694
-19.8822
-19.8984
-19.9188
-19.9442
-19.9755
-20.0137
-20.06
-20.1164
-20.1858
-20.2721
-20.3809
-20.5194
-20.6981
-20.9282
-21.2196
-21.5991
-22.0853
-22.5135
-22.7541
-22.7159
-21.9928
-21.636
-23.4911
-23.3836
-23.3305
-22.8838
-22.3052
-21.8459
-21.4817
-21.1885
-20.9573
-20.7758
-20.6318
-20.5164
-20.4231
-20.3468
-20.2837
-20.2311
-20.1873
-20.1505
-20.1197
-20.0937
-20.0719
-20.0536
-20.0382
-20.0252
-20.0144
-20.0052
-19.9975
-19.9909
-19.9854
-19.9807
-19.9768
-19.9736
-19.9709
-19.9687
-19.967
-19.9657
-19.9647
-19.9641
-19.9638
-20.3352
-20.3355
-20.336
-20.3369
-20.3381
-20.3397
-20.3416
-20.344
-20.3469
-20.3503
-20.3542
-20.3588
-20.3641
-20.3701
-20.3772
-20.3854
-20.3951
-20.4068
-20.4209
-20.4381
-20.4593
-20.4851
-20.5161
-20.5532
-20.5969
-20.6481
-20.7082
-20.779
-20.8632
-20.9633
-21.0823
-21.2226
-21.3837
-21.5556
-21.7262
-21.8723
-21.8497
-21.4569
-20.0677
-20.4536
-20.3722
-21.0803
-22.1012
-22.5309
-22.5367
-22.309
-22.0937
-21.8698
-21.6619
-21.4821
-21.3298
-21.2012
-21.0926
-21.0008
-20.923
-20.8568
-20.8002
-20.7519
-20.7106
-20.6753
-20.6451
-20.6193
-20.5972
-20.5784
-20.5623
-20.5486
-20.5368
-20.5268
-20.5182
-20.5108
-20.5046
-20.4992
-20.4947
-20.491
-20.488
-20.4855
-20.4836
-20.4823
-20.4814
-20.4809
-20.8548
-20.8552
-20.856
-20.8573
-20.8591
-20.8614
-20.8642
-20.8676
-20.8717
-20.8764
-20.8819
-20.8882
-20.8955
-20.9037
-20.9133