/*--------------------------------*- C++ -*----------------------------------*\
| =========                 |                                                 |
| \\      /  F ield         | OpenFOAM: The Open Source CFD Toolbox           |
|  \\    /   O peration     | Version:  2412                                  |
|   \\  /    A nd           | Website:  www.openfoam.com                      |
|    \\/     M anipulation  |                                                 |
\*---------------------------------------------------------------------------*/
FoamFile
{
    version     2.0;
    format      ascii;
    arch        "LSB;label=32;scalar=64";
    class       surfaceScalarField;
    location    "1.05";
    object      phi;
}
// * * * * * * * * * * * * * * * * * * * * * * * * * * * * * * * * * * * * * //

dimensions      [0 3 -1 0 0 0 0];

oriented        oriented;

internalField   nonuniform List<scalar> 
12640
(
9.12372e-08
-9.1232e-08
-1.01677e-07
1.93221e-07
-6.44055e-07
5.42638e-07
-1.45865e-06
8.14853e-07
-2.44879e-06
9.90417e-07
-3.53635e-06
1.08782e-06
-4.66811e-06
1.13199e-06
-5.81172e-06
1.14378e-06
-6.94878e-06
1.13717e-06
-8.06862e-06
1.11987e-06
-9.16394e-06
1.09523e-06
-1.0228e-05
1.06392e-06
-1.12533e-05
1.0251e-06
-1.22307e-05
9.77266e-07
-1.31493e-05
9.18525e-07
-1.39964e-05
8.4693e-07
-1.47572e-05
7.60692e-07
-1.54156e-05
6.58164e-07
-1.59541e-05
5.38166e-07
-1.63546e-05
4.00181e-07
-1.65995e-05
2.44484e-07
-1.66723e-05
7.23886e-08
-1.65592e-05
-1.13485e-07
-1.62502e-05
-3.09177e-07
-1.57412e-05
-5.09042e-07
-1.50354e-05
-7.059e-07
-1.41439e-05
-8.91386e-07
-1.30876e-05
-1.0562e-06
-1.18964e-05
-1.19105e-06
-1.06086e-05
-1.2876e-06
-9.26881e-06
-1.33958e-06
-7.92473e-06
-1.344e-06
-6.62286e-06
-1.30193e-06
-5.40406e-06
-1.21903e-06
-4.29913e-06
-1.10532e-06
-3.32534e-06
-9.74272e-07
-2.48432e-06
-8.41419e-07
-1.76191e-06
-7.22631e-07
-1.12996e-06
-6.32049e-07
-5.49433e-07
-5.80439e-07
2.51543e-08
-5.74228e-07
6.40256e-07
-6.14675e-07
1.33802e-06
-6.9747e-07
2.15156e-06
-8.1342e-07
3.1018e-06
-9.49863e-07
4.19305e-06
-1.09125e-06
5.41404e-06
-1.22129e-06
6.7392e-06
-1.32525e-06
8.13006e-06
-1.39115e-06
9.54102e-06
-1.41101e-06
1.09225e-05
-1.38153e-06
1.22263e-05
-1.30413e-06
1.34094e-05
-1.18367e-06
1.44365e-05
-1.02751e-06
1.52812e-05
-8.44912e-07
1.59271e-05
-6.45739e-07
1.63668e-05
-4.39294e-07
1.66004e-05
-2.33634e-07
1.66349e-05
-3.48551e-08
1.64831e-05
1.52123e-07
1.616e-05
3.23711e-07
1.56827e-05
4.77737e-07
1.50701e-05
6.13316e-07
1.43402e-05
7.30369e-07
1.35103e-05
8.29797e-07
1.25968e-05
9.13199e-07
1.16142e-05
9.82479e-07
1.05749e-05
1.03929e-06
9.48894e-06
1.08558e-06
8.36545e-06
1.1233e-06
7.21215e-06
1.15329e-06
6.03704e-06
1.17486e-06
4.85182e-06
1.18467e-06
3.67636e-06
1.17477e-06
2.54499e-06
1.13069e-06
1.51401e-06
1.03064e-06
6.65822e-07
8.48381e-07
1.01849e-07
5.6444e-07
-9.71879e-08
1.99019e-07
-9.76845e-08
-2.00321e-07
1.09436e-07
-1.10484e-06
1.0983e-06
-2.74445e-06
2.18274e-06
-4.97051e-06
3.04134e-06
-7.60009e-06
3.62037e-06
-1.04771e-05
3.96514e-06
-1.34897e-05
4.14479e-06
-1.65662e-05
4.22042e-06
-1.96639e-05
4.2348e-06
-2.27569e-05
4.21275e-06
-2.58275e-05
4.16561e-06
-2.886e-05
4.09607e-06
-3.18367e-05
4.00167e-06
-3.47369e-05
3.87712e-06
-3.75343e-05
3.71577e-06
-4.01978e-05
3.51021e-06
-4.26907e-05
3.2531e-06
-4.49707e-05
2.93762e-06
-4.69911e-05
2.55787e-06
-4.87013e-05
2.10971e-06
-5.00489e-05
1.59139e-06
-5.09814e-05
1.00443e-06
-5.14496e-05
3.54343e-07
-5.14104e-05
-3.48578e-07
-5.08308e-05
-1.08868e-06
-4.96926e-05
-1.84413e-06
-4.79945e-05
-2.58929e-06
-4.57565e-05
-3.29397e-06
-4.30204e-05
-3.92686e-06
-3.98496e-05
-4.45826e-06
-3.63254e-05
-4.86374e-06
-3.25417e-05
-5.12784e-06
-2.85968e-05
-5.2471e-06
-2.45844e-05
-5.23182e-06
-2.05843e-05
-5.10581e-06
-1.66547e-05
-4.904e-06
-1.2828e-05
-4.66813e-06
-9.10864e-06
-4.44152e-06
-5.47671e-06
-4.26337e-06
-1.89301e-06
-4.16363e-06
1.69297e-06
-4.15969e-06
5.33359e-06
-4.25467e-06
9.0731e-06
-4.43644e-06
1.29385e-05
-4.67904e-06
1.69352e-05
-4.94643e-06
2.10399e-05
-5.19594e-06
2.52019e-05
-5.38376e-06
2.93469e-05
-5.47039e-06
3.33822e-05
-5.4266e-06
3.72064e-05
-5.23564e-06
4.07178e-05
-4.89362e-06
4.38242e-05
-4.41084e-06
4.64498e-05
-3.80905e-06
4.85389e-05
-3.11658e-06
5.00586e-05
-2.36506e-06
5.09985e-05
-1.5863e-06
5.13687e-05
-8.09492e-07
5.1195e-05
-5.92325e-08
5.05162e-05
6.4483e-07
4.93803e-05
1.28901e-06
4.78392e-05
1.86538e-06
4.59467e-05
2.37019e-06
4.37563e-05
2.80362e-06
4.13178e-05
3.16904e-06
3.86765e-05
3.47151e-06
3.5873e-05
3.71709e-06
3.29416e-05
3.91331e-06
2.99119e-05
4.06811e-06
2.6808e-05
4.18846e-06
2.36504e-05
4.28004e-06
2.04576e-05
4.34554e-06
1.72499e-05
4.38225e-06
1.40561e-05
4.3786e-06
1.09225e-05
4.30896e-06
7.92545e-06
4.12862e-06
5.18318e-06
3.77345e-06
2.86046e-06
3.17121e-06
1.1498e-06
2.27476e-06
2.07232e-07
1.14102e-06
1.09592e-07
-5.63159e-07
6.7285e-07
-2.22341e-06
2.75884e-06
-4.85089e-06
4.81048e-06
-8.23549e-06
6.42613e-06
-1.21532e-05
7.53824e-06
-1.6415e-05
8.22697e-06
-2.08832e-05
8.61306e-06
-2.54679e-05
8.80517e-06
-3.01141e-05
8.8809e-06
-3.47878e-05
8.88645e-06
-3.94658e-05
8.84355e-06
-4.41273e-05
8.75751e-06
-4.87492e-05
8.62363e-06
-5.33033e-05
8.4312e-06
-5.7754e-05
8.16636e-06
-6.20573e-05
7.81341e-06
-6.61604e-05
7.356e-06
-7.00015e-05
6.77823e-06
-7.35096e-05
6.06564e-06
-7.66068e-05
5.20646e-06
-7.92089e-05
4.19319e-06
-8.12291e-05
3.02431e-06
-8.25811e-05
1.70614e-06
-8.31844e-05
2.54543e-07
-8.29695e-05
-1.30368e-06
-8.18839e-05
-2.92984e-06
-7.98988e-05
-4.57437e-06
-7.70141e-05
-6.17877e-06
-7.32617e-05
-7.67941e-06
-6.87065e-05
-9.01359e-06
-6.34438e-05
-1.01266e-05
-5.75924e-05
-1.09793e-05
-5.12847e-05
-1.15547e-05
-4.46547e-05
-1.18617e-05
-3.78246e-05
-1.19354e-05
-3.0895e-05
-1.18331e-05
-2.39371e-05
-1.16258e-05
-1.69902e-05
-1.13883e-05
-1.00644e-05
-1.1189e-05
-3.14767e-06
-1.10804e-05
3.78507e-06
-1.10928e-05
1.07613e-05
-1.1231e-05
1.77986e-05
-1.14734e-05
2.48932e-05
-1.17743e-05
3.20161e-05
-1.20695e-05
3.91047e-05
-1.22843e-05
4.60652e-05
-1.23443e-05
5.27772e-05
-1.21832e-05
5.91041e-05
-1.17541e-05
6.49057e-05
-1.10362e-05
7.00476e-05
-1.0035e-05
7.44162e-05
-8.77985e-06
7.7927e-05
-7.32e-06
8.05277e-05
-5.71707e-06
8.22e-05
-4.03702e-06
8.29576e-05
-2.34333e-06
8.28414e-05
-6.92538e-07
8.19128e-05
8.69432e-07
8.02487e-05
2.30864e-06
7.7935e-05
3.60264e-06
7.506e-05
4.73999e-06
7.17115e-05
5.71836e-06
6.79733e-05
6.54218e-06
6.39215e-05
7.22138e-06
5.96231e-05
7.76952e-06
5.51379e-05
8.20221e-06
5.05151e-05
8.53602e-06
4.57953e-05
8.78773e-06
4.10117e-05
8.97192e-06
3.61916e-05
9.09991e-06
3.13596e-05
9.17734e-06
2.65429e-05
9.19929e-06
2.17794e-05
9.14327e-06
1.71285e-05
8.96097e-06
1.26861e-05
8.57133e-06
8.5979e-06
7.86119e-06
5.06381e-06
6.70466e-06
2.31954e-06
5.01807e-06
5.86877e-07
2.87426e-06
6.96617e-07
-8.54794e-07
1.5278e-06
-3.13108e-06
5.03512e-06
-6.54429e-06
8.22366e-06
-1.08143e-05
1.0696e-05
-1.5686e-05
1.24098e-05
-2.09552e-05
1.34961e-05
-2.64761e-05
1.41339e-05
-3.2154e-05
1.44829e-05
-3.79307e-05
1.46577e-05
-4.37711e-05
1.47269e-05
-4.96506e-05
1.47232e-05
-5.55472e-05
1.46543e-05
-6.1436e-05
1.45126e-05
-6.72853e-05
1.42806e-05
-7.3054e-05
1.39351e-05
-7.86902e-05
1.34496e-05
-8.413e-05
1.27957e-05
-8.92968e-05
1.19449e-05
-9.41013e-05
1.08701e-05
-9.84425e-05
9.54748e-06
-0.000102209
7.95951e-06
-0.000105282
6.09749e-06
-0.000107541
3.9649e-06
-0.000108868
1.58056e-06
-0.000109153
-1.01854e-06
-0.000108308
-3.77525e-06
-0.000106271
-6.61249e-06
-0.000103014
-9.43606e-06
-9.85542e-05
-1.21402e-05
-9.29515e-05
-1.46169e-05
-8.63104e-05
-1.6768e-05
-7.87718e-05
-1.85179e-05
-7.05007e-05
-1.98255e-05
-6.16703e-05
-2.06917e-05
-5.24453e-05
-2.11602e-05
-4.29671e-05
-2.13113e-05
-3.3344e-05
-2.12493e-05
-2.36474e-05
-2.10857e-05
-1.39144e-05
-2.09226e-05
-4.15659e-06
-2.08387e-05
5.62894e-06
-2.0879e-05
1.54476e-05
-2.10503e-05
2.52939e-05
-2.13196e-05
3.5137e-05
-2.16181e-05
4.49163e-05
-2.18496e-05
5.45319e-05
-2.19013e-05
6.38495e-05
-2.16618e-05
7.27046e-05
-2.10375e-05
8.09161e-05
-1.99662e-05
8.8306e-05
-1.84261e-05
9.47118e-05
-1.64401e-05
0.000100003
-1.40703e-05
0.000104091
-1.14077e-05
0.000106933
-8.55964e-06
0.000108534
-5.6376e-06
0.000108935
-2.7455e-06
0.000108215
2.7598e-08
0.000106473
2.61118e-06
0.000103824
4.95612e-06
0.000100393
7.03348e-06
9.63009e-05
8.83168e-06
9.16657e-05
1.03534e-05
8.65969e-05
1.16115e-05
8.11919e-05
1.26267e-05
7.55346e-05
1.34257e-05
6.96978e-05
1.40378e-05
6.37412e-05
1.44919e-05
5.77118e-05
1.4816e-05
5.16475e-05
1.50351e-05
4.55788e-05
1.51683e-05
3.95324e-05
1.52245e-05
3.35369e-05
1.5196e-05
2.76321e-05
1.50492e-05
2.18809e-05
1.47127e-05
1.63848e-05
1.40679e-05
1.12985e-05
1.29482e-05
6.83741e-06
1.11663e-05
3.27082e-06
8.58568e-06
8.92568e-07
5.25243e-06
1.58881e-06
-1.0529e-06
2.58071e-06
-3.76302e-06
7.745e-06
-7.73289e-06
1.21933e-05
-1.26213e-05
1.55842e-05
-1.81471e-05
1.79353e-05
-2.40975e-05
1.94462e-05
-3.03261e-05
2.03623e-05
-3.67402e-05
2.08969e-05
-4.32846e-05
2.12022e-05
-4.99268e-05
2.13693e-05
-5.66448e-05
2.14414e-05
-6.34184e-05
2.14283e-05
-7.02238e-05
2.13182e-05
-7.70289e-05
2.10859e-05
-8.37909e-05
2.06972e-05
-9.04537e-05
2.01125e-05
-9.69465e-05
1.92886e-05
-0.000103182
1.8181e-05
-0.000109058
1.67457e-05
-0.000114453
1.49428e-05
-0.000119234
1.27395e-05
-0.000123251
1.01149e-05
-0.000126352
7.06497e-06
-0.000128379
3.60753e-06
-0.000129186
-2.12413e-07
-0.000128643
-4.3191e-06
-0.000126653
-8.60406e-06
-0.000123159
-1.29302e-05
-0.000118163
-1.71379e-05
-0.000111721
-2.10595e-05
-0.000103952
-2.45371e-05
-9.50266e-05
-2.74434e-05
-8.51507e-05
-2.97016e-05
-7.45449e-05
-3.12978e-05
-6.34213e-05
-3.22843e-05
-5.19627e-05
-3.27704e-05
-4.0309e-05
-3.29032e-05
-2.8553e-05
-3.28417e-05
-1.67445e-05
-3.27311e-05
-4.90074e-06
-3.26818e-05
6.97726e-06
-3.27567e-05
1.88918e-05
-3.2965e-05
3.08315e-05
-3.32592e-05
4.27552e-05
-3.3542e-05
5.45843e-05
-3.36772e-05
6.61893e-05
-3.35057e-05
7.73961e-05
-3.28687e-05
8.79939e-05
-3.1635e-05
9.77531e-05
-2.9725e-05
0.000106448
-2.71211e-05
0.000113879
-2.38723e-05
0.000119893
-2.00861e-05
0.000124396
-1.59115e-05
0.000127354
-1.15184e-05
0.000128793
-7.07731e-06
0.00012879
-2.74301e-06
0.00012746
1.35725e-06
0.000124943
5.12745e-06
0.000121394
8.50431e-06
0.000116974
1.14545e-05
0.000111835
1.39698e-05
0.000106122
1.60635e-05
9.99661e-05
1.7764e-05
9.34824e-05
1.91087e-05
8.67677e-05
2.01399e-05
7.99026e-05
2.0903e-05
7.29525e-05
2.14429e-05
6.59677e-05
2.18019e-05
5.89873e-05
2.20167e-05
5.20412e-05
2.21152e-05
4.51543e-05
2.21113e-05
3.83531e-05
2.19961e-05
3.16752e-05
2.17259e-05
2.51808e-05
2.12065e-05
1.89695e-05
2.02795e-05
1.31965e-05
1.8722e-05
8.08582e-06
1.6277e-05
3.93428e-06
1.27373e-05
1.10045e-06
8.0862e-06
2.68861e-06
-1.1734e-06
3.75397e-06
-4.15608e-06
1.07273e-05
-8.47992e-06
1.65167e-05
-1.37598e-05
2.08637e-05
-1.96951e-05
2.38701e-05
-2.60683e-05
2.58191e-05
-3.27356e-05
2.70293e-05
-3.96094e-05
2.77707e-05
-4.66404e-05
2.82333e-05
-5.38014e-05
2.85308e-05
-6.10757e-05
2.87161e-05
-6.84475e-05
2.88005e-05
-7.58966e-05
2.87675e-05
-8.33938e-05
2.8583e-05
-9.08971e-05
2.82006e-05
-9.83501e-05
2.75655e-05
-0.000105679
2.66172e-05
-0.000112789
2.52917e-05
-0.000119567
2.35243e-05
-0.000125878
2.12536e-05
-0.000131565
1.84261e-05
-0.000136453
1.50026e-05
-0.000140353
1.0965e-05
-0.000143071
6.32494e-06
-0.000144416
1.13138e-06
-0.000144214
-4.52197e-06
-0.000142326
-1.04921e-05
-0.000138667
-1.659e-05
-0.000133218
-2.25882e-05
-0.000126038
-2.82399e-05
-0.000117269
-3.33061e-05
-0.000107126
-3.75877e-05
-9.58706e-05
-4.09573e-05
-8.37879e-05
-4.33809e-05
-7.11485e-05
-4.49238e-05
-5.81809e-05
-4.57376e-05
-4.5052e-05
-4.60311e-05
-3.18627e-05
-4.60298e-05
-1.86558e-05
-4.5937e-05
-5.43257e-06
-4.59041e-05
7.82595e-06
-4.60149e-05
2.11429e-05
-4.62811e-05
3.45242e-05
-4.6639e-05
4.79378e-05
-4.69564e-05
6.13026e-05
-4.70422e-05
7.44703e-05
-4.6673e-05
8.72272e-05
-4.56256e-05
9.93062e-05
-4.37156e-05
0.000110415
-4.08352e-05
0.000120266
-3.69724e-05
0.000128607
-3.22133e-05
0.000135249
-2.67291e-05
0.000140086
-2.07483e-05
0.000143092
-1.45242e-05
0.000144318
-8.30369e-06
0.000143877
-2.30309e-06
0.000141929
3.30494e-06
0.000138659
8.39692e-06
0.000134264
1.28977e-05
0.000128942
1.67758e-05
0.000122878
2.00341e-05
0.000116241
2.27012e-05
0.000109183
2.48239e-05
0.00010183
2.64622e-05
9.42877e-05
2.76808e-05
8.66429e-05
2.85459e-05
7.89625e-05
2.91218e-05
7.12968e-05
2.94668e-05
6.36826e-05
2.96308e-05
5.61464e-05
2.96518e-05
4.87087e-05
2.95493e-05
4.13913e-05
2.93139e-05
3.42256e-05
2.88919e-05
2.72662e-05
2.81663e-05
2.06068e-05
2.6939e-05
1.43997e-05
2.49286e-05
8.87551e-06
2.18017e-05
4.34927e-06
1.72627e-05
1.22727e-06
1.12084e-05
3.91624e-06
-1.23982e-06
4.99356e-06
-4.37499e-06
1.38622e-05
-8.89767e-06
2.1039e-05
-1.4396e-05
2.63616e-05
-2.05575e-05
3.00311e-05
-2.71635e-05
3.24247e-05
-3.40746e-05
3.39401e-05
-4.12097e-05
3.49059e-05
-4.85272e-05
3.5551e-05
-5.60072e-05
3.60111e-05
-6.36401e-05
3.63492e-05
-7.14168e-05
3.65773e-05
-7.93232e-05
3.6674e-05
-8.73356e-05
3.65953e-05
-9.54165e-05
3.62813e-05
-0.000103512
3.56608e-05
-0.000111548
3.46532e-05
-0.000119428
3.31717e-05
-0.00012703
3.11266e-05
-0.000134206
2.84292e-05
-0.000140778
2.49984e-05
-0.000146545
2.07689e-05
-0.00015128
1.57002e-05
-0.000154745
9.78939e-06
-0.000156697
3.08319e-06
-0.00015691
-4.31002e-06
-0.000155193
-1.22093e-05
-0.00015142
-2.0364e-05
-0.000145549
-2.84596e-05
-0.000137645
-3.61441e-05
-0.000127885
-4.30669e-05
-0.000116545
-4.89289e-05
-0.00010397
-5.35324e-05
-9.05334e-05
-5.68181e-05
-7.65822e-05
-5.88747e-05
-6.23995e-05
-5.99198e-05
-4.81757e-05
-6.02544e-05
-3.4005e-05
-6.02004e-05
-1.99017e-05
-6.00407e-05
-5.82734e-06
-5.99786e-05
8.27888e-06
-6.01228e-05
2.24832e-05
-6.0487e-05
3.68309e-05
-6.09872e-05
5.13238e-05
-6.14496e-05
6.58935e-05
-6.16134e-05
8.03809e-05
-6.11619e-05
9.45316e-05
-5.9776e-05
0.000108008
-5.71932e-05
0.000120433
-5.32607e-05
0.000131431
-4.79691e-05
0.000140674
-4.14558e-05
0.000147924
-3.39797e-05
0.000153053
-2.58782e-05
0.000156045
-1.75164e-05
0.000156984
-9.24185e-06
0.000156029
-1.34832e-06
0.000153396
5.93918e-06
0.000149322
1.24707e-05
0.000144056
1.81645e-05
0.000137835
2.29964e-05
0.000130879
2.69889e-05
0.000123381
3.01963e-05
0.000115511
3.26934e-05
0.000107405
3.45674e-05
9.91763e-05
3.59104e-05
9.0911e-05
3.68123e-05
8.26744e-05
3.73591e-05
7.45131e-05
3.7628e-05
6.64591e-05
3.76847e-05
5.85328e-05
3.75782e-05
5.0748e-05
3.73344e-05
4.31189e-05
3.69434e-05
3.56691e-05
3.63419e-05
2.84452e-05
3.53903e-05
2.15338e-05
3.38503e-05
1.50826e-05
3.1379e-05
9.32351e-06
2.75612e-05
4.58426e-06
2.20015e-05
1.29838e-06
1.44934e-05
5.2148e-06
-1.27254e-06
6.26587e-06
-4.47952e-06
1.70689e-05
-9.09255e-06
2.56517e-05
-1.46865e-05
3.19552e-05
-2.09445e-05
3.62887e-05
-2.765e-05
3.913e-05
-3.46695e-05
4.09595e-05
-4.19301e-05
4.21665e-05
-4.93985e-05
4.30196e-05
-5.7064e-05
4.36769e-05
-6.49258e-05
4.42111e-05
-7.29839e-05
4.46353e-05
-8.12329e-05
4.49228e-05
-8.96575e-05
4.50194e-05
-9.82278e-05
4.48512e-05
-0.000106896
4.43287e-05
-0.000115592
4.33492e-05
-0.00012422
4.17998e-05
-0.000132654
3.95604e-05
-0.000140734
3.65089e-05
-0.000148264
3.25284e-05
-0.000155012
2.75167e-05
-0.000160711
2.13997e-05
-0.00016507
1.4148e-05
-0.000167782
5.79522e-06
-0.000168551
-3.54156e-06
-0.000167116
-1.36439e-05
-0.000163293
-2.41865e-05
-0.00015701
-3.47436e-05
-0.000148333
-4.48209e-05
-0.000137487
-5.39129e-05
-0.000124837
-6.15792e-05
-0.000110845
-6.75247e-05
-9.60042e-05
-7.16589e-05
-8.07668e-05
-7.41122e-05
-6.5482e-05
-7.52052e-05
-5.03588e-05
-7.53784e-05
-3.54664e-05
-7.50943e-05
-2.07665e-05
-7.47424e-05
-6.15872e-06
-7.45864e-05
8.47596e-06
-7.47583e-05
2.32625e-05
-7.52729e-05
3.83019e-05
-7.60276e-05
5.36534e-05
-7.68006e-05
6.92842e-05
-7.72442e-05
8.50335e-05
-7.69129e-05
0.000100601
-7.53433e-05
0.000115561
-7.21534e-05
0.000129419
-6.71193e-05
0.000141677
-6.02268e-05
0.000151901
-5.16801e-05
0.000159785
-4.18627e-05
0.000165172
-3.12653e-05
0.000168061
-2.04066e-05
0.000168583
-9.76528e-06
0.000166964
2.6904e-07
0.00016349
9.41221e-06
0.000158469
1.74899e-05
0.000152209
2.44233e-05
0.000144998
3.02078e-05
0.000137091
3.48965e-05
0.000128706
3.85798e-05
0.00012003
4.13712e-05
0.000111205
4.33926e-05
0.000102347
4.4769e-05
9.35405e-05
4.562e-05
8.48447e-05
4.60557e-05
7.62993e-05
4.61738e-05
6.79276e-05
4.60564e-05
5.97409e-05
4.57647e-05
5.17437e-05
4.53311e-05
4.39404e-05
4.47458e-05
3.63453e-05
4.3936e-05
2.89955e-05
4.2739e-05
2.19694e-05
4.08756e-05
1.54085e-05
3.79393e-05
9.54074e-06
3.34279e-05
4.70077e-06
2.68415e-05
1.33533e-06
1.78583e-05
6.5495e-06
-1.28554e-06
7.55125e-06
-4.51293e-06
2.02963e-05
-9.14388e-06
3.02826e-05
-1.47493e-05
3.75605e-05
-2.10137e-05
4.25529e-05
-2.77259e-05
4.5842e-05
-3.47599e-05
4.79935e-05
-4.2052e-05
4.94587e-05
-4.95792e-05
5.05468e-05
-5.73412e-05
5.14388e-05
-6.5348e-05
5.22176e-05
-7.3611e-05
5.28979e-05
-8.21364e-05
5.34477e-05
-9.09204e-05
5.38029e-05
-9.99447e-05
5.38751e-05
-0.000109172
5.35555e-05
-0.00011854
5.27175e-05
-0.000127959
5.12185e-05
-0.000137302
4.89032e-05
-0.000146401
4.56087e-05
-0.000155044
4.11715e-05
-0.000162967
3.54401e-05
-0.000169858
2.82909e-05
-0.00017536
1.96503e-05
-0.000179086
9.52207e-06
-0.000180646
-1.9812e-06
-0.000179682
-1.46068e-05
-0.000175926
-2.79423e-05
-0.000169249
-4.14189e-05
-0.00015972
-5.43491e-05
-0.000147623
-6.60091e-05
-0.000133444
-7.57572e-05
-0.000117807
-8.31613e-05
-0.000101371
-8.80944e-05
-8.47254e-05
-9.07586e-05
-6.82972e-05
-9.16343e-05
-5.23038e-05
-9.13719e-05
-3.67614e-05
-9.06359e-05
-2.15504e-05
-8.99528e-05
-6.49254e-06
-8.96417e-05
8.59e-06
-8.98409e-05
2.38786e-05
-9.05594e-05
3.95381e-05
-9.16881e-05
5.57048e-05
-9.29684e-05
7.24129e-05
-9.39519e-05
8.95196e-05
-9.40198e-05
0.000106674
-9.24981e-05
0.00012334
-8.88191e-05
0.000138868
-8.26466e-05
0.000152591
-7.39496e-05
0.000163931
-6.30206e-05
0.000172484
-5.04171e-05
0.000178064
-3.68464e-05
0.000180698
-2.30406e-05
0.000180587
-9.65319e-06
0.000178052
2.80536e-06
0.000173477
1.39882e-05
0.000167264
2.37046e-05
0.000159793
3.18942e-05
0.00015141
3.85912e-05
0.000142411
4.3897e-05
0.000133041
4.79519e-05
0.000123494
5.0919e-05
0.000113922
5.29659e-05
0.000104436
5.42562e-05
9.51124e-05
5.49435e-05
8.60022e-05
5.51658e-05
7.71334e-05
5.50428e-05
6.85171e-05
5.46731e-05
6.01525e-05
5.41299e-05
5.20316e-05
5.34522e-05
4.41472e-05
5.26299e-05
3.65022e-05
5.15804e-05
2.91229e-05
5.01176e-05
2.20773e-05
4.79204e-05
1.54992e-05
4.45174e-05
9.61022e-06
3.9316e-05
4.74353e-06
3.17076e-05
1.35158e-06
2.12505e-05
7.90102e-06
-1.28684e-06
8.83808e-06
-4.50183e-06
2.35115e-05
-9.10247e-06
3.48834e-05
-1.46613e-05
4.31194e-05
-2.0868e-05
4.87596e-05
-2.75191e-05
5.2493e-05
-3.44983e-05
5.49725e-05
-4.17525e-05
5.67128e-05
-4.92704e-05
5.80645e-05
-5.7064e-05
5.92322e-05
-6.51567e-05
6.03099e-05
-7.35736e-05
6.13142e-05
-8.23355e-05
6.22091e-05
-9.14542e-05
6.2921e-05
-0.000100927
6.33473e-05
-0.000110731
6.33599e-05
-0.000120821
6.28066e-05
-0.000131115
6.15128e-05
-0.000141494
5.92826e-05
-0.000151789
5.59039e-05
-0.000161773
5.11555e-05
-0.000171152
4.48199e-05
-0.000179564
3.67033e-05
-0.000186576
2.6663e-05
-0.0001917
1.46464e-05
-0.000194419
7.38541e-07
-0.000194239
-1.47853e-05
-0.000190765
-3.1415e-05
-0.000183783
-4.83994e-05
-0.000173344
-6.47865e-05
-0.000159808
-7.9544e-05
-0.000143824
-9.17409e-05
-0.000126233
-0.000100752
-0.000107916
-0.000106412
-8.9629e-05
-0.000109045
-7.18868e-05
-0.000109376
-5.48905e-05
-0.000108367
-3.85569e-05
-0.000106968
-2.26465e-05
-0.000105863
-6.90256e-06
-0.000105384
8.87817e-06
-0.000105624
2.4888e-05
-0.000106569
4.13398e-05
-0.00010814
5.84651e-05
-0.000110095
7.64076e-05
-0.000111895
9.50815e-05
-0.000112691
0.000114093
-0.000111507
0.000132774
-0.000107499
0.000150277
-0.000100149
0.000165712
-8.93831e-05
0.000178302
-7.56091e-05
0.000187518
-5.96325e-05
0.000193143
-4.24698e-05
0.000195254
-2.51506e-05
0.000194162
-8.56149e-06
0.000190326
6.64193e-06
0.000184265
2.00493e-05
0.0001765
3.14719e-05
0.000167504
4.08918e-05
0.000157688
4.84089e-05
0.000147389
5.41967e-05
0.000136875
5.84667e-05
0.00012635
6.1445e-05
0.000115961
6.33553e-05
0.000105812
6.44072e-05
9.59655e-05
6.47913e-05
8.64571e-05
6.46751e-05
7.72984e-05
6.42016e-05
6.84845e-05
6.34869e-05
5.99986e-05
6.26156e-05
5.1818e-05
6.16326e-05
4.39211e-05
6.05265e-05
3.62967e-05
5.92041e-05
2.8959e-05
5.74549e-05
2.19637e-05
5.49149e-05
1.54337e-05
5.10463e-05
9.58394e-06
4.51657e-05
4.74064e-06
3.65501e-05
1.35513e-06
2.46356e-05
9.25641e-06
-1.2803e-06
1.01185e-05
-4.46114e-06
2.66928e-05
-8.99862e-06
3.94212e-05
-1.44694e-05
4.85902e-05
-2.05699e-05
5.486e-05
-2.7106e-05
5.90291e-05
-3.39729e-05
6.18392e-05
-4.11302e-05
6.38699e-05
-4.85803e-05
6.55142e-05
-5.63502e-05
6.70014e-05
-6.44784e-05
6.84375e-05
-7.3007e-05
6.98421e-05
-8.19749e-05
7.11762e-05
-9.14129e-05
7.23584e-05
-0.000101339
7.32733e-05
-0.000111754
7.37741e-05
-0.000122631
7.36833e-05
-0.000133911
7.2792e-05
-0.000145488
7.08599e-05
-0.000157202
6.76178e-05
-0.00016882
6.27738e-05
-0.000180026
5.60255e-05
-0.000190405
4.70821e-05
-0.000199439
3.56979e-05
-0.000206517
2.17239e-05
-0.000210957
5.17855e-06
-0.000212075
-1.36664e-05
-0.000209288
-3.42015e-05
-0.000202243
-5.54439e-05
-0.000190948
-7.60815e-05
-0.000175847
-9.46447e-05
-0.000157801
-0.000109787
-0.000137938
-0.000120617
-0.000117412
-0.000126939
-9.71786e-05
-0.000129279
-7.7828e-05
-0.000128727
-5.94954e-05
-0.0001267
-4.19184e-05
-0.000124546
-2.46851e-05
-0.000123097
-7.4916e-06
-0.000122577
9.78603e-06
-0.000122901
2.72231e-05
-0.000124006
4.50077e-05
-0.000125922
6.3483e-05
-0.000128566
8.29716e-05
-0.000131383
0.00010351
-0.000133229
0.000124693
-0.00013269
0.000145713
-0.00012852
0.000165487
-0.000119923
0.000182836
-0.000106732
0.000196724
-8.94961e-05
0.000206464
-6.93712e-05
0.00021181
-4.7815e-05
0.000212932
-2.62722e-05
0.000210311
-5.93937e-06
0.000204601
1.23523e-05
0.000196505
2.81428e-05
0.000186696
4.12806e-05
0.000175754
5.18315e-05
0.000164163
5.99996e-05
0.000152298
6.60612e-05
0.000140443
7.03228e-05
0.0001288
7.30899e-05
0.000117505
7.46514e-05
0.000106642
7.52705e-05
9.62536e-05
7.51788e-05
8.63527e-05
7.4575e-05
7.69287e-05
7.36244e-05
6.79557e-05
7.2459e-05
5.93971e-05
7.11734e-05
5.1212e-05
6.98171e-05
4.33613e-05
6.83763e-05
3.5818e-05
6.67464e-05
2.85806e-05
6.46916e-05
2.16914e-05
6.18035e-05
1.52604e-05
5.74763e-05
9.49246e-06
5.09334e-05
4.70702e-06
4.13357e-05
1.35067e-06
2.79916e-05
1.06069e-05
-1.26786e-06
1.13867e-05
-4.40051e-06
2.98259e-05
-8.85346e-06
4.38745e-05
-1.42061e-05
5.3943e-05
-2.01613e-05
6.08152e-05
-2.65349e-05
6.54027e-05
-3.32356e-05
6.85397e-05
-4.02386e-05
7.08726e-05
-4.75629e-05
7.28381e-05
-5.52529e-05
7.46907e-05
-6.33652e-05
7.65491e-05
-7.19616e-05
7.84377e-05
-8.11024e-05
8.03164e-05
-9.08426e-05
8.20982e-05
-0.000101227
8.36574e-05
-0.000112285
8.48315e-05
-0.000124021
8.54193e-05
-0.000136408
8.51782e-05
-0.000149369
8.38211e-05
-0.000162768
8.10157e-05
-0.000176381
7.63868e-05
-0.000189882
6.95267e-05
-0.000202816
6.00153e-05
-0.000214577
4.74589e-05
-0.000224408
3.15546e-05
-0.00023142
1.21906e-05
-0.000234669
-1.04178e-05
-0.000233297
-3.55737e-05
-0.00022673
-6.20109e-05
-0.000214883
-8.79298e-05
-0.000198285
-0.000111244
-0.000178058
-0.000130015
-0.000155689
-0.000142986
-0.000132658
-0.000149969
-0.000110118
-0.000151819
-8.87038e-05
-0.000150142
-6.8398e-05
-0.000147006
-4.86234e-05
-0.00014432
-2.87164e-05
-0.000143004
-8.41643e-06
-0.000142878
1.20833e-05
-0.000143399
3.24725e-05
-0.000144395
5.2737e-05
-0.000146189
7.33339e-05
-0.000149164
9.48918e-05
-0.000152941
0.000117682
-0.00015602
0.000141342
-0.00015635
0.000164948
-0.000152125
0.000187162
-0.000142137
0.000206457
-0.000126026
0.000221466
-0.000104505
0.00023131
-7.92163e-05
0.000235739
-5.22449e-05
0.00023508
-2.56142e-05
0.000230067
-9.27829e-07
0.000221635
2.07847e-05
0.000210732
3.90448e-05
0.000198214
5.37989e-05
0.000184784
6.52613e-05
0.000170992
7.37925e-05
0.000157241
7.9812e-05
0.000143813
8.37483e-05
0.000130894
8.6006e-05
0.000118594
8.69498e-05
0.000106964
8.68992e-05
9.60167e-05
8.61268e-05
8.57314e-05
8.48606e-05
7.60695e-05
8.32867e-05
6.69783e-05
8.15503e-05
5.83976e-05
7.97542e-05
5.02642e-05
7.795e-05
4.25193e-05
7.61207e-05
3.51166e-05
7.41485e-05
2.80358e-05
7.17718e-05
2.13022e-05
6.85366e-05
1.50121e-05
6.37669e-05
9.35756e-06
5.65877e-05
4.65216e-06
4.60411e-05
1.34046e-06
3.13035e-05
1.19471e-05
-1.25221e-06
1.26392e-05
-4.33239e-06
3.29064e-05
-8.69264e-06
4.8235e-05
-1.39088e-05
5.91593e-05
-1.96861e-05
6.65927e-05
-2.58518e-05
7.15684e-05
-3.23311e-05
7.50188e-05
-3.91191e-05
7.76604e-05
-4.6255e-05
7.99737e-05
-5.38038e-05
8.2239e-05
-6.1843e-05
8.4588e-05
-7.04567e-05
8.70511e-05
-7.97303e-05
8.95898e-05
-8.97475e-05
9.21153e-05
-0.000100587
9.44965e-05
-0.000112315
9.65596e-05
-0.000124981
9.8085e-05
-0.000138603
9.88002e-05
-0.000153155
9.83731e-05
-0.000168545
9.64057e-05
-0.000184589
9.24307e-05
-0.000200978
8.59147e-05
-0.000217236
7.62733e-05
-0.000232685
6.2908e-05
-0.000246412
4.52815e-05
-0.000257274
2.30526e-05
-0.000263978
-3.7139e-06
-0.000265268
-3.42837e-05
-0.000260225
-6.70546e-05
-0.000248578
-9.95771e-05
-0.000230916
-0.000128906
-0.00020867
-0.00015226
-0.00018376
-0.000167894
-0.000158009
-0.000175721
-0.000132718
-0.00017711
-0.00010852
-0.000174341
-8.51316e-05
-0.000170395
-6.14327e-05
-0.000168022
-3.63738e-05
-0.000168062
-9.90909e-06
-0.000169345
1.69926e-05
-0.000170303
4.3132e-05
-0.000170535
6.79615e-05
-0.000171018
9.2043e-05
-0.000173247
0.000116525
-0.000177424
0.000142098
-0.000181593
0.000168508
-0.000182761
0.000194769
-0.000178387
0.000219329
-0.000166698
0.000240264
-0.000146962
0.000255802
-0.000120044
0.000264849
-8.82645e-05
0.000267201
-5.45972e-05
0.000263448
-2.18619e-05
0.000254711
7.80864e-06
0.000242311
3.31824e-05
0.00022752
5.3838e-05
0.000211402
6.99185e-05
0.000194784
8.188e-05
0.000178263
9.03127e-05
0.000162244
9.58302e-05
0.000146982
9.90104e-05
0.000132618
0.00010037
0.000119212
0.000100355
0.000106768
9.93428e-05
9.525e-05
9.76446e-05
8.45968e-05
9.55136e-05
7.47323e-05
9.31511e-05
6.55715e-05
9.0711e-05
5.7026e-05
8.82996e-05
4.90075e-05
8.59683e-05
4.14336e-05
8.36944e-05
3.42353e-05
8.13469e-05
2.73698e-05
7.86375e-05
2.08406e-05
7.50659e-05
1.47255e-05
6.98828e-05
9.20498e-06
6.21087e-05
4.58896e-06
5.0657e-05
1.32706e-06
3.45653e-05
1.32742e-05
-1.24151e-06
1.38811e-05
-4.2847e-06
3.59497e-05
-8.56591e-06
5.25164e-05
-1.36423e-05
6.42358e-05
-1.9216e-05
7.21666e-05
-2.51277e-05
7.74804e-05
-3.13264e-05
8.12176e-05
-3.78334e-05
8.41674e-05
-4.47136e-05
8.68539e-05
-5.20555e-05
8.95808e-05
-5.99602e-05
9.24927e-05
-6.85362e-05
9.56272e-05
-7.78971e-05
9.89509e-05
-8.81604e-05
0.000102379
-9.94448e-05
0.000105781
-0.000111867
0.000108982
-0.000125533
0.000111751
-0.000140529
0.000113796
-0.000156904
0.000114749
-0.000174647
0.000114149
-0.000193651
0.000111434
-0.00021367
0.000105933
-0.000234257
9.68601e-05
-0.000254696
8.33469e-05
-0.000273928
6.45136e-05
-0.000290515
3.96396e-05
-0.000302703
8.47398e-06
-0.000308666
-2.83213e-05
-0.000306944
-6.87765e-05
-0.000296928
-0.000109593
-0.000279186
-0.000146647
-0.000255488
-0.000175959
-0.00022826
-0.000195122
-0.000199623
-0.000204359
-0.000170909
-0.000205825
-0.000142735
-0.000202515
-0.000114466
-0.000198665
-8.4068e-05
-0.000198421
-4.98539e-05
-0.000202277
-1.22674e-05
-0.000206932
2.61953e-05
-0.000208766
6.26193e-05
-0.000206959
9.53629e-05
-0.000203762
0.000125106
-0.000202989
0.0001539
-0.000206218
0.000183098
-0.000210791
0.000212564
-0.000212227
0.000241339
-0.000207161
0.000267783
-0.000193143
0.000289559
-0.000168739
0.000304406
-0.000134892
0.000311025
-9.48832e-05
0.000309364
-5.29368e-05
0.000300451
-1.29481e-05
0.000285981
2.22807e-05
0.000267821
5.1344e-05
0.000247637
7.4021e-05
0.000226731
9.08223e-05
0.000206026
0.000102584
0.000186124
0.000110214
0.000167383
0.00011457
0.000149984
0.000116408
0.000133987
0.000116365
0.000119373
0.000114969
0.000106069
0.000112646
9.39765e-05
0.000109737
8.2979e-05
0.000106511
7.2954e-05
0.000103176
6.37783e-05
9.98863e-05
5.53312e-05
9.67465e-05
4.74963e-05
9.38032e-05
4.01648e-05
9.10262e-05
3.32409e-05
8.82713e-05
2.6654e-05
8.52252e-05
2.03792e-05
8.13419e-05
1.44676e-05
7.57948e-05
9.08554e-06
6.74912e-05
4.54597e-06
5.51968e-05
1.3181e-06
3.7793e-05
1.45925e-05
-1.26049e-06
1.51418e-05
-4.32519e-06
3.90143e-05
-8.57884e-06
5.677e-05
-1.35326e-05
6.91898e-05
-1.88811e-05
7.75153e-05
-2.44889e-05
8.30886e-05
-3.03419e-05
8.7071e-05
-3.64985e-05
9.03243e-05
-4.30554e-05
9.34109e-05
-5.01278e-05
9.66534e-05
-5.78414e-05
0.000100206
-6.63306e-05
0.000104117
-7.57396e-05
0.00010836
-8.6224e-05
0.000112863
-9.79513e-05
0.000117509
-0.000111099
0.00012213
-0.000125851
0.000126503
-0.000142385
0.000130331
-0.00016086
0.000133224
-0.00018139
0.000134678
-0.000204003
0.000134047
-0.000228583
0.000130512
-0.000254787
0.000123065
-0.000281935
0.000110494
-0.000308863
9.14415e-05
-0.00033381
6.45869e-05
-0.000354427
2.90899e-05
-0.000368069
-1.46789e-05
-0.000372449
-6.43964e-05
-0.000366355
-0.000115687
-0.000350156
-0.000162846
-0.000325959
-0.000200156
-0.0002968
-0.000224282
-0.000264964
-0.000236196
-0.000231558
-0.00023923
-0.000197363
-0.00023671
-0.00016152
-0.000234509
-0.000120504
-0.000239437
-7.14948e-05
-0.000251286
-1.57849e-05
-0.00026264
4.15222e-05
-0.000266072
9.46464e-05
-0.000260083
0.000140038
-0.000249153
0.000178577
-0.000241528
0.000213899
-0.000241539
0.00024827
-0.000245162
0.000281401
-0.000245358
0.000312447
-0.000238208
0.000339996
-0.000220692
0.000361289
-0.000190031
0.00037346
-0.000147062
0.00037507
-9.64932e-05
0.000366443
-4.4309e-05
0.000349309
4.18661e-06
0.000326225
4.53642e-05
0.000299807
7.77603e-05
0.000272212
0.000101615
0.000244968
0.000118067
0.000219034
0.000128517
0.000194942
0.000134306
0.000172926
0.000136586
0.00015303
0.000136304
0.000135179
0.000134216
0.000119232
0.000130916
0.000105013
0.000126865