/*--------------------------------*- C++ -*----------------------------------*\
| =========                 |                                                 |
| \\      /  F ield         | OpenFOAM: The Open Source CFD Toolbox           |
|  \\    /   O peration     | Version:  2412                                  |
|   \\  /    A nd           | Website:  www.openfoam.com                      |
|    \\/     M anipulation  |                                                 |
\*---------------------------------------------------------------------------*/
FoamFile
{
    version     2.0;
    format      ascii;
    arch        "LSB;label=32;scalar=64";
    class       volScalarField;
    location    "8.95";
    object      alpha.glycerin;
}
// * * * * * * * * * * * * * * * * * * * * * * * * * * * * * * * * * * * * * //

dimensions      [0 0 0 0 0 0 0];

internalField   nonuniform List<scalar> 
6400
(
1
0.999991
0.999992
0.999992
0.999993
0.999993
0.999993
0.999994
0.999994
0.999994
0.999995
0.999995
0.999996
0.999996
0.999996
0.999997
0.999997
0.999997
0.999997
0.999998
0.999998
0.999998
0.999999
0.999999
1
1
1
1
1
1
1
1
1
1
1
1
1.00001
1.00001
1.00001
1.00001
1.00001
1.00001
1.00001
1.00001
1.00001
1.00001
1.00001
1
1
1
1
1
1
1
1
1
1
1
1
1
0.999999
0.999999
0.999997
0.999997
0.999996
0.999997
0.999997
0.999996
0.999996
0.999995
0.999995
0.999994
0.999994
0.999994
0.999993
0.999993
0.999992
0.999992
0.999992
0.999993
0.999993
0.999984
0.999985
0.999986
0.999986
0.999986
0.999986
0.999986
0.999987
0.999987
0.999988
0.999989
0.99999
0.99999
0.999991
0.999992
0.999993
0.999994
0.999995
0.999996
0.999997
0.999998
0.999999
1
1
1
1
1
1.00001
1.00001
1.00001
1.00001
1.00001
1.00001
1.00001
1.00001
1.00001
1.00001
1.00001
1.00001
1.00001
1.00001
1.00001
1.00001
1.00001
1.00001
1.00001
1.00001
1.00001
1.00001
1.00001
1.00001
1.00001
1
1
1
1
1
0.999998
0.999996
0.999995
0.999994
0.999993
0.999992
0.999992
0.999991
0.999991
0.99999
0.999989
0.999988
0.999988
0.999987
0.999987
0.999987
0.999986
0.999986
0.999986
0.999985
0.999985
0.999994
0.999993
0.999985
0.999986
0.999986
0.999986
0.999987
0.999987
0.999987
0.999988
0.999988
0.999989
0.99999
0.999991
0.999991
0.999992
0.999993
0.999994
0.999995
0.999995
0.999996
0.999997
0.999998
0.999999
1
1
1
1
1
1.00001
1.00001
1.00001
1.00001
1.00001
1.00001
1.00001
1.00001
1.00001
1.00001
1.00001
1.00001
1.00001
1.00001
1.00001
1.00001
1.00001
1.00001
1.00001
1.00001
1.00001
1.00001
1.00001
1
1
1
1
1
1
0.999998
0.999998
0.999997
0.999997
0.999996
0.999996
0.999994
0.999993
0.999992
0.999991
0.999991
0.99999
0.999989
0.999989
0.999988
0.999988
0.999987
0.999987
0.999987
0.999987
0.999986
0.999986
0.999994
0.999993
0.999985
0.999986
0.999986
0.999987
0.999987
0.999987
0.999988
0.999988
0.999989
0.99999
0.999991
0.999991
0.999992
0.999993
0.999994
0.999995
0.999995
0.999996
0.999997
0.999998
0.999999
1
1
1
1
1
1
1.00001
1.00001
1.00001
1.00001
1.00001
1.00001
1.00001
1.00001
1.00001
1.00001
1.00001
1.00001
1.00001
1.00001
1.00001
1.00001
1.00001
1.00001
1.00001
1.00001
1.00001
1.00001
1
1
1
1
1
1
1
1
0.999999
0.999998
0.999997
0.999996
0.999995
0.999994
0.999993
0.999993
0.999992
0.999992
0.999991
0.999991
0.99999
0.999989
0.999989
0.999988
0.999988
0.999987
0.999987
0.999987
0.999987
0.999994
0.999993
0.999985
0.999986
0.999986
0.999986
0.999987
0.999987
0.999988
0.999988
0.999989
0.999989
0.99999
0.999991
0.999992
0.999993
0.999994
0.999994
0.999995
0.999996
0.999997
0.999998
0.999999
1
1
1
1
1
1
1.00001
1.00001
1.00001
1.00001
1.00001
1.00001
1.00001
1.00001
1.00001
1.00001
1.00001
1.00001
1.00001
1.00001
1.00001
1.00001
1.00001
1.00001
1.00001
1.00001
1.00001
1.00001
1
1
1
1
1
0.999999
0.999999
0.999998
0.999997
0.999997
0.999996
0.999995
0.999995
0.999994
0.999993
0.999992
0.999992
0.999991
0.999991
0.99999
0.99999
0.999989
0.999989
0.999988
0.999988
0.999987
0.999987
0.999987
0.999987
0.999994
0.999992
0.999985
0.999985
0.999986
0.999986
0.999986
0.999987
0.999987
0.999988
0.999988
0.999988
0.999989
0.99999
0.999991
0.999991
0.999992
0.999993
0.999994
0.999995
0.999996
0.999997
0.999998
0.999999
1
1
1
1
1
1.00001
1.00001
1.00001
1.00001
1.00001
1.00001
1.00001
1.00001
1.00001
1.00001
1.00001
1.00002
1.00001
1.00001
1.00001
1.00001
1.00001
1.00001
1.00001
1.00001
1.00001
1.00001
1.00001
1.00001
1
1
0.999999
0.999998
0.999998
0.999998
0.999997
0.999996
0.999995
0.999995
0.999994
0.999993
0.999992
0.999991
0.999991
0.99999
0.99999
0.999989
0.999988
0.999988
0.999987
0.999987
0.999987
0.999986
0.999986
0.999986
0.999987
0.999993
0.999992
0.999984
0.999985
0.999985
0.999986
0.999986
0.999986
0.999987
0.999987
0.999987
0.999988
0.999988
0.999988
0.999989
0.99999
0.999991
0.999992
0.999993
0.999994
0.999995
0.999995
0.999996
0.999997
0.999999
1
1
1
1
1
1.00001
1.00001
1.00001
1.00001
1.00001
1.00001
1.00001
1.00002
1.00002
1.00002
1.00002
1.00002
1.00002
1.00002
1.00002
1.00001
1.00001
1.00001
1.00001
1.00001
1.00001
1.00001
1.00001
1.00001
1
1
0.999998
0.999997
0.999996
0.999995
0.999995
0.999994
0.999994
0.999993
0.999992
0.999991
0.99999
0.999989
0.999989
0.999988
0.999988
0.999987
0.999986
0.999986
0.999986
0.999985
0.999985
0.999985
0.999985
0.999986
0.999992
0.999991
0.999984
0.999984
0.999985
0.999985
0.999986
0.999987
0.999987
0.999988
0.999988
0.999988
0.999988
0.999989
0.999989
0.999989
0.99999
0.999991
0.999992
0.999993
0.999994
0.999995
0.999996
0.999997
0.999998
0.999999
1
1
1
1
1
1.00001
1.00001
1.00001
1.00001
1.00001
1.00001
1.00002
1.00002
1.00002
1.00002
1.00002
1.00002
1.00002
1.00002
1.00002
1.00001
1.00001
1.00001
1.00001
1.00001
1.00001
1.00001
1.00001
1.00001
1
1
1
0.999998
0.999997
0.999996
0.999995
0.999994
0.999993
0.999991
0.99999
0.999989
0.999989
0.999988
0.999987
0.999987
0.999986
0.999985
0.999985
0.999984
0.999984
0.999984
0.999984
0.999984
0.999984
0.99999
0.99999
0.999984
0.999984
0.999985
0.999985
0.999986
0.999987
0.999988
0.999989
0.99999
0.999991
0.999991
0.999991
0.999992
0.999992
0.999993
0.999994
0.999994
0.999995
0.999996
0.999997
0.999998
0.999999
1
1
1
1
1
1
1.00001
1.00001
1.00001
1.00001
1.00001
1.00001
1.00001
1.00001
1.00001
1.00001
1.00001
1.00002
1.00002
1.00002
1.00002
1.00001
1.00001
1.00001
1.00001
1.00001
1.00001
1.00001
1.00001
1.00001
1.00001
1.00001
1.00001
1
1
1
0.999999
0.999997
0.999996
0.999995
0.999994
0.999993
0.999992
0.999991
0.99999
0.99999
0.999989
0.999988
0.999987
0.999987
0.999986
0.999985
0.999985
0.999984
0.999984
0.999984
0.999991
0.99999
0.999984
0.999983
0.999984
0.999985
0.999986
0.999988
0.99999
0.999991
0.999993
0.999994
0.999995
0.999996
0.999997
0.999997
0.999998
0.999999
1
1
1
1
1
1
1
1.00001
1.00001
1.00001
1.00001
1.00001
1.00001
1.00001
1.00001
1.00001
1.00001
1.00001
1
1
0.999999
0.999997
0.999998
1
1.00001
1.00001
1.00001
1
0.999999
0.999996
0.999994
0.999998
1
1
1.00001
1.00001
1.00001
1.00001
1.00001
1
1
1
1
1
1
0.999999
0.999999
0.999998
0.999997
0.999996
0.999995
0.999995
0.999994
0.999993
0.999992
0.999991
0.99999
0.999989
0.999988
0.999987
0.999986
0.999986
0.999993
0.999989
0.999983
0.999983
0.999984
0.999984
0.999985
0.999987
0.99999
0.999992
0.999994
0.999996
0.999998
0.999999
1
1
1
1
1
1
1.00001
1.00001
1.00001
1.00001
1.00001
1.00001
1.00001
1.00001
1.00001
1.00001
1.00001
1.00001
1.00001
1.00001
1.00001
1
0.999996
0.999989
0.99998
0.999979
0.999979
0.999979
0.999985
0.999992
0.999995
0.999993
0.999987
0.999979
0.999979
0.999979
0.999985
0.99999
0.999995
1
1
1
1
1
1
1
1
1
1
1
1
1
1
1
1
0.999999
0.999998
0.999998
0.999997
0.999996
0.999995
0.999994
0.999992
0.999991
0.99999
0.999991
0.999995
0.999988
0.999983
0.999982
0.999982
0.999982
0.999983
0.999984
0.999985
0.999987
0.999989
0.999991
0.999993
0.999995
0.999997
0.999998
0.999999
1
1
1
1
1
1.00001
1.00001
1.00001
1.00001
1.00001
1.00001
1.00001
1.00001
1.00001
1.00001
1.00001
1.00001
1.00001
1.00001
1
0.999997
0.99999
0.999983
0.99998
0.999983
0.999991
0.999998
1
1
0.999997
0.999987
0.999979
0.999977
0.999977
0.999983
0.999989
0.999993
0.999996
0.999998
0.999999
0.999999
0.999999
0.999999
0.999999
0.999999
0.999999
0.999999
0.999999
0.999999
0.999998
0.999998
0.999998
0.999997
0.999996
0.999996
0.999995
0.999994
0.999994
0.999993
0.999992
0.999991
0.999991
0.999993
0.999995
0.999987
0.999982
0.99998
0.99998
0.999979
0.999976
0.999975
0.999974
0.999974
0.999975
0.999976
0.999977
0.999979
0.99998
0.999981
0.999982
0.999983
0.999985
0.999986
0.999988
0.999989
0.999991
0.999993
0.999995
0.999997
1
1
1.00001
1.00001
1.00001
1.00002
1.00002
1.00002
1.00002
1.00003
1.00003
1.00003
1.00003
1.00003
1.00002
1.00002
1.00003
1.00004
1.00004
1.00005
1.00004
1.00003
1.00001
1
0.999995
0.999992
0.999991
0.99999
0.999991
0.99999
0.99999
0.999989
0.999988
0.999987
0.999986
0.999985
0.999985
0.999984
0.999983
0.999983
0.999982
0.999982
0.999981
0.999981
0.999981
0.999981
0.999981
0.99998
0.99998
0.99998
0.999981
0.999982
0.999984
0.999988
0.999989
0.999986
0.999981
0.999978
0.999977
0.999974
0.999969
0.999963
0.999959
0.999955
0.999953
0.999952
0.999952
0.999952
0.999952
0.999952
0.999952
0.999952
0.999953
0.999955
0.999956
0.999958
0.999961
0.999964
0.999967
0.999972
0.999977
0.999983
0.99999
0.999996
1
1.00001
1.00002
1.00003
1.00005
1.00007
1.00009
1.00011
1.00012
1.00012
1.00012
1.00011
1.00011
1.00011
1.00012
1.00013
1.00012
1.0001
1.00008
1.00006
1.00004
1.00002
1.00001
1
0.999994
0.999986
0.999979
0.999974
0.999969
0.999965
0.999961
0.999958
0.999956
0.999954
0.999953
0.999952
0.999951
0.99995
0.99995
0.999951
0.999952
0.999952
0.999953
0.999954
0.999956
0.999958
0.99996
0.999964
0.999969
0.999975
0.999979
0.999984
0.999981
0.999975
0.999975
0.999972
0.999966
0.999959
0.999951
0.999944
0.999938
0.999933
0.999929
0.999927
0.999925
0.999924
0.999924
0.999924
0.999924
0.999925
0.999926
0.999928
0.999931
0.999935
0.99994
0.999946
0.999954
0.999962
0.999972
0.999983
0.999994
1.00001
1.00002
1.00005
1.00008
1.00012
1.00017
1.00021
1.00024
1.00025
1.00023
1.0002
1.00018
1.00018
1.00018
1.00019
1.0002
1.00018
1.00015
1.00012
1.00009
1.00006
1.00004
1.00002
1
0.99999
0.999976
0.999964
0.999954
0.999946
0.999939
0.999934
0.999929
0.999926
0.999923
0.999922
0.999921
0.999921
0.999921
0.999921
0.999922
0.999924
0.999926
0.999928
0.999931
0.999936
0.999941
0.999947
0.999954
0.999961
0.999972
0.999981
0.999983
0.999975
0.999977
0.999979
0.999977
0.999974
0.999969
0.999964
0.999959
0.999956
0.999953
0.999951
0.99995
0.99995
0.999949
0.999949
0.999949
0.999951
0.999952
0.999954
0.999956
0.999959
0.999963
0.999967
0.999972
0.999977
0.999983
0.99999
0.999998
1.00001
1.00003
1.00005
1.00009
1.00015
1.00021
1.00027
1.00031
1.00032
1.00028
1.00022
1.00017
1.00014
1.00014
1.00015
1.00017
1.00017
1.00015
1.00012
1.00009
1.00006
1.00004
1.00003
1.00002
1
0.999995
0.999986
0.999978
0.999972
0.999966
0.999962
0.999958
0.999955
0.999952
0.99995
0.999949
0.999948
0.999947
0.999947
0.999948
0.999948
0.999949
0.99995
0.999951
0.999953
0.999955
0.999958
0.99996
0.999963
0.999974
0.999978
0.999994
0.99998
0.999983
0.999994
1
1.00001
1.00001
1.00001
1.00001
1.00002
1.00002
1.00002
1.00002
1.00002
1.00002
1.00002
1.00002
1.00002
1.00002
1.00002
1.00002
1.00002
1.00003
1.00002
1.00002
1.00002
1.00002
1.00002
1.00002
1.00002
1.00003
1.00005
1.00007
1.0001
1.00013
1.00018
1.0002
1.00023
1.0002
1.00013
1.00007
1.00004
1.00003
1.00003
1.00003
1.00003
1.00001
1
1
0.999998
0.999998
1
1.00001
1.00001
1.00002
1.00002
1.00002
1.00002
1.00002
1.00002
1.00002
1.00002
1.00002
1.00002
1.00002
1.00002
1.00002
1.00002
1.00002
1.00002
1.00002
1.00001
1.00001
1.00001
1.00001
1
1
0.999996
0.999994
0.99997
1.00001
0.999994
0.999992
1
1.00002
1.00003
1.00004
1.00005
1.00005
1.00005
1.00006
1.00006
1.00006
1.00007
1.00007
1.00007
1.00007
1.00007
1.00007
1.00007
1.00007
1.00006
1.00006
1.00006
1.00005
1.00004
1.00004
1.00003
1.00002
1.00002
1.00002
1.00002
1.00002
1.00001
0.999961
0.99999
1.00005
1.00008
1.00007
1.00002
0.999982
0.999969
0.999951
0.999949
0.999948
0.999932
0.999921
0.999925
0.999942
0.999951
0.999961
0.999976
0.999994
1.00001
1.00002
1.00003
1.00004
1.00005
1.00005
1.00006
1.00006
1.00006
1.00006
1.00006
1.00006
1.00006
1.00006
1.00006
1.00006
1.00006
1.00006
1.00006
1.00005
1.00005
1.00004
1.00003
1.00002
1.00001
0.999998
0.999955
1
0.999999
0.999997
1
1
1
1
1
1
1
1
1
1
1
1
1
1
1
1
1
1
1
1
1
1
1
1
1
1
1
1
1
1
1
1
1
1.00003
1.00006
1.00004
1.00002
1.00001
1.00001
1.00001
1
1
0.999985
0.999973
0.999983
0.99999
0.999994
0.999998
0.999999
1
1
1
1
1
1
1
1
1
1
1
1
1
1
1
1
1
1
1
1
1
1
1
1
1
1
0.999977
0.99443
0.98322
0.974791
0.967857
0.962395
0.958181
0.954969
0.952561
0.950801
0.949567
0.948752
0.948276
0.948066
0.948064
0.948216
0.948472
0.948781
0.949111
0.949442
0.949771
0.9501
0.950443
0.950829
0.951303
0.951927
0.952711
0.953636
0.954617
0.955433
0.955675
0.95419
0.948643
0.938311
0.908764
0.804281
0.676677
0.580152
0.506137
0.48017
0.460319
0.460459
0.483344
0.526995
0.603397
0.702183
0.84667
0.922612
0.939606
0.94947
0.954131
0.955154
0.954876
0.954178
0.953385
0.95266
0.952035
0.95152
0.95113
0.95086
0.950652
0.950439
0.950194
0.949921
0.949631
0.949352
0.949119
0.948982
0.948997
0.949214
0.949693
0.950505
0.951735
0.953479
0.955866
0.959048
0.963212
0.968603
0.975431
0.983713
0.994671
0.0979997
0.120022
0.130659
0.135766
0.137987
0.138753
0.138815
0.138567
0.138189
0.137776
0.137381
0.137032
0.136751
0.136555
0.136458
0.136485
0.136661
0.137009
0.137535
0.138232
0.139099
0.140127
0.141298
0.142582
0.14398
0.145591
0.147462
0.149602
0.151913
0.154443
0.156739
0.156199
0.155325
0.150843
0.116044
0.115431
0.115413
0.115323
0.115283
0.115248
0.115214
0.115195
0.115196
0.115281
0.11453
0.112518
0.142733
0.154696
0.157853
0.156812
0.154421
0.151984
0.149651
0.147492
0.145467
0.143753
0.142317
0.141094
0.140036
0.139057
0.138218
0.137548
0.137053
0.136734
0.136582
0.13658
0.136702
0.136924
0.13723
0.137603
0.13802
0.138449
0.13884
0.139094
0.139028
0.138252
0.136007
0.130859
0.120176
0.0980655
-5.82787e-21
-1.53823e-19
-3.27905e-18
-3.7262e-17
-2.63178e-16
-1.13749e-15
-5.56432e-16
-1.80078e-15
-8.58413e-16
-1.03188e-15
3.9443e-32
3.07445e-16
1.13596e-14
1.83497e-13
5.74686e-11
1.36776e-06
5.2875e-06
4.64745e-06
1.10741e-06
2.29481e-09
5.25058e-09
7.33616e-08
2.40379e-06
2.11758e-05
3.99177e-05
5.89553e-05
7.88546e-05
8.97607e-05
0.000101322
0.000121153
0.000143923
0.000175792
0.000225396
0.0229848
0.221177
0.261454
0.261523
0.261544
0.261532
0.261544
0.261532
0.261513
0.261513
0.261486
0.261407
0.178455
0.00622802
0.000195348
0.000146689
0.000116603
9.23594e-05
6.86488e-05
4.69612e-05
4.62887e-05
6.80319e-05
6.77701e-05
5.00102e-05
3.304e-05
1.61916e-05
8.93372e-07
3.18684e-08
2.70514e-08
3.23382e-08
5.12067e-07
4.85913e-07
1.77488e-11
2.3762e-12
2.98128e-13
1.70359e-14
9.0653e-15
8.79329e-15
8.78532e-15
8.78385e-15
8.78255e-15
8.78136e-15
8.78063e-15
8.78029e-15
8.78016e-15
8.78015e-15
8.78016e-15
-9.67779e-19
-2.06956e-17
-2.36807e-16
-1.54216e-15
-5.59984e-15
-1.03039e-14
-9.2033e-15
-1.19031e-14
2.45625e-17
5.34553e-15
3.07445e-16
1.13596e-14
1.80768e-13
3.09186e-07
5.09318e-06
9.55673e-06
1.00515e-05
7.06e-06
2.19775e-06
1.20922e-10
5.98768e-10
4.76963e-09
1.13774e-06
0.000196907
0.000337647
0.000337657
0.000177215
9.21048e-05
0.000108243
0.000348644
0.000437199
0.000224898
0.000225997
0.00357398
0.0669639
0.129671
0.173464
0.212367
0.240417
0.209295
0.209499
0.233626
0.209261
0.172046
0.122289
0.0464918
0.000379542
0.000317374
0.000338494
0.000599293
0.000559858
0.000146467
4.62789e-05
4.63302e-05
0.000310224
0.000446123
0.000446123
0.000446129
9.98715e-05
3.18684e-08
1.17697e-08
2.52061e-08
2.65898e-08
9.79985e-07
1.18546e-06
9.33645e-07
4.33724e-07
4.11162e-09
2.97249e-13
1.67395e-14
8.99522e-15
2.52784e-14
1.76829e-14
1.60485e-14
1.53523e-14
1.32183e-14
1.06323e-14
9.84674e-15
8.78018e-15
8.78015e-15
3.23322e-18
1.06566e-16
3.50712e-16
3.13665e-16
1.24052e-17
-2.03188e-16
-1.20944e-16
0
9.42075e-15
1.45873e-13
3.18808e-13
1.43893e-11
6.28209e-10
1.66587e-06
1.69211e-05
1.75492e-05
1.75492e-05
1.75486e-05
5.39019e-06
9.08422e-11
9.14147e-11
1.17817e-10
4.34161e-07
0.000178648
0.000337647
0.000337206
0.000307661
9.21048e-05
0.000145153
0.0020359
0.00268085
0.00268085
0.0026807
0.00114624
3.64731e-07
1.90251e-07
2.36706e-08
1.07789e-09
1.05076e-09
1.05076e-09
1.05076e-09
1.05076e-09
1.05076e-09
1.05077e-09
1.05079e-09
1.05079e-09
0.00108231
0.00282278
0.00282377
0.00282377
0.00177286
5.51877e-05
4.6548e-05
0.000317634
0.000445321
0.000445741
0.000446123
0.000362731
4.05995e-05
6.60956e-09
2.40289e-10
8.64424e-08
7.90822e-06
1.27245e-05
1.24226e-05
1.20095e-05
1.05779e-05
6.15566e-06
4.44472e-07
6.55406e-11
1.71442e-12
5.60198e-14
2.38588e-13
6.46489e-14
1.49087e-14
1.25227e-14
1.1717e-14
1.07786e-14
1.09672e-14
9.36155e-15
1.25674e-17
5.10829e-17
1.26287e-16
1.17864e-16
3.55636e-17
1.52984e-34
3.79242e-17
5.83704e-15
8.85666e-14
2.64987e-13
2.12941e-13
3.39808e-13
5.60032e-12
3.59725e-09
7.40194e-06
1.75492e-05
1.75486e-05
8.13397e-06
9.08455e-11
9.08455e-11
9.08409e-11
9.14147e-11
9.76346e-11
1.03631e-10
6.61709e-06
0.000195293
0.000326554
0.000326709
0.000240777
3.94146e-05
0.000101605
0.000299208
0.000345108
0.000100885
1.36178e-05
7.23942e-05
7.65222e-05
1.05681e-05
1.05075e-09
1.05076e-09
1.05075e-09
1.05076e-09
1.05077e-09
1.05079e-09
1.05079e-09
1.05081e-09
0.000222275
0.000450989
0.000309791
3.583e-05
5.28761e-05
9.24226e-05
0.000168518
0.000199507
0.000273778
0.000246103
8.31597e-05
7.01891e-12
7.66389e-12
1.32445e-08
1.01188e-11
2.17186e-06
1.33029e-05
1.33029e-05
1.33029e-05
1.33027e-05
1.32901e-05
1.32742e-05
9.15446e-06
6.91682e-07
2.95917e-10
1.02039e-11
6.87593e-13
5.4904e-13
1.07534e-13
1.07569e-14
7.71445e-15
7.89867e-15
9.93811e-15
7.76109e-15
2.27671e-16
2.78576e-17
3.2098e-17
1.48143e-17
6.14682e-18
3.45327e-18
5.07786e-16
2.07744e-14
1.26396e-13
2.0941e-13
2.09654e-13
2.12941e-13
3.39808e-13
5.60032e-12
1.56463e-10
2.64575e-07
1.78462e-06
6.87619e-08
8.8873e-11
9.08408e-11
1.02187e-10
1.03004e-10
1.03013e-10
1.03147e-10
1.03631e-10
1.04634e-10
1.07813e-10
1.09151e-10
1.09964e-10
1.11169e-10
1.12135e-10
1.13321e-10
1.16995e-10
2.84524e-10
8.73228e-06
5.76972e-05
6.65538e-05
1.92123e-05
1.05172e-09
1.05075e-09
1.28858e-09
1.25373e-09
1.77791e-09
2.43165e-09
3.89511e-09
2.91471e-09
5.62469e-10
4.37045e-10
1.85399e-10
5.77027e-11
5.77027e-11
3.06584e-05
4.00641e-05
1.502e-05
1.87292e-10
1.14587e-11
5.8189e-12
6.30684e-12
7.58402e-12
7.70405e-12
7.76616e-12
3.05925e-07
8.20653e-06
8.00066e-06
2.97177e-06
4.28155e-06
1.11265e-05
1.32777e-05
1.3258e-05
3.64456e-06
6.54463e-10
2.22671e-11
2.14707e-12
9.64019e-13
1.42055e-13
9.75708e-15
5.15749e-15
5.93891e-15
9.45962e-15
6.63991e-15
3.2514e-16
2.46392e-17
2.72191e-17
7.78789e-18
1.38231e-18
4.40137e-18
6.73727e-16
2.23846e-14
1.35251e-13
2.69018e-13
2.43021e-13
1.02085e-11
1.78107e-09
1.05582e-08
3.33081e-09
2.53801e-11
3.55743e-11
3.67658e-11
8.63615e-11
1.2027e-10
1.22495e-10
1.22044e-10
1.26638e-10
1.53397e-10
2.02363e-10
2.82565e-10
3.71113e-10
4.71299e-10
5.83984e-10
6.6466e-10
7.0543e-10
7.36191e-10
7.79753e-10
7.78301e-10
7.82262e-10
7.86497e-10
7.91645e-10
7.96122e-10
1.24403e-09
1.15792e-09
1.58572e-09
2.24528e-09
4.91595e-09
4.9174e-09
4.63333e-09
4.20527e-09
1.93838e-09
6.53909e-10
5.56485e-10
6.3617e-10
6.53908e-11
1.73472e-11
1.30053e-12
9.90317e-13
1.0435e-12
1.72592e-12
5.05107e-12
6.18138e-12
8.09473e-12
7.95528e-12
8.02812e-12
8.24554e-12
1.53995e-07
1.38733e-07
1.94238e-09
5.93146e-10
4.81676e-10
8.97928e-06
1.32483e-05
3.64565e-06
3.93996e-10
1.16798e-11
1.38522e-12
1.10331e-12
2.04549e-13
1.28057e-14
4.07084e-15
4.93329e-15
8.71649e-15
5.6987e-15
2.87614e-16
1.87024e-17
2.26706e-17
6.27697e-18
8.84343e-19
1.79666e-18
2.83568e-16
1.06718e-14
9.14537e-14
2.69312e-13
3.63925e-13
5.90127e-11
1.75916e-08
4.52238e-08
2.41202e-08
2.38991e-11
2.27236e-11
2.2553e-11
4.38569e-11
2.99174e-11
1.23965e-11
3.44011e-12
1.80647e-12
1.39687e-12
1.16181e-12
1.14044e-12
1.13789e-12
1.14044e-12
3.39173e-12
1.83933e-11
6.21068e-11
1.89984e-10
4.74195e-10
8.04219e-10
1.01638e-09
1.16594e-09
1.205e-09
1.18331e-09
1.1692e-09
1.17643e-09
1.65857e-09
2.2887e-09
2.18546e-09
4.06047e-10
2.54658e-10
4.17145e-10
3.32302e-10
1.96063e-10
1.37359e-10
1.42331e-10
1.39544e-10
5.13511e-13
4.8366e-13
9.27215e-13
9.90317e-13
1.95988e-12
4.82012e-12
8.22827e-12
1.10893e-11
1.44485e-11
8.24554e-12
8.92073e-12
1.89802e-10
7.89785e-10
7.61945e-10
4.81676e-10
4.65593e-10
4.62837e-10
2.61409e-06
2.0575e-06
2.04939e-08
9.2261e-12
1.15318e-12
9.67933e-13
2.20602e-13
1.48083e-14
3.22515e-15
3.88668e-15
6.85352e-15
4.22586e-15
1.43614e-16
8.66074e-18
1.25534e-17
3.78211e-18
5.56527e-19
5.32431e-19
3.33785e-17
2.14885e-15
3.16534e-14
6.25421e-14
1.295e-12
3.24495e-09
3.71333e-08
4.52238e-08
1.67264e-08
2.27381e-11
2.15884e-11
1.91149e-11
1.7197e-11
1.51317e-11
8.51477e-12
3.50632e-12
2.44519e-12
1.63914e-12
1.28674e-12
1.11248e-12
1.09633e-12
1.43761e-12
2.0036e-12
3.09469e-12
5.46798e-12
7.60354e-12
8.79648e-12
1.63083e-11
1.94664e-10
9.45316e-10
1.41802e-09
1.33477e-09
1.09348e-09
1.09539e-09
1.234e-09
5.28878e-10
2.53888e-10
7.69904e-11
5.09075e-11
2.75774e-11
2.39054e-11
1.79568e-11
1.13181e-11
6.18716e-12
3.65774e-12
4.24817e-13
4.75818e-13
1.13389e-12
4.67576e-12
1.50796e-11
2.32475e-11
2.43336e-11
2.21721e-11
1.07546e-10
2.77582e-10
2.42558e-10
2.58537e-10
6.3704e-10
7.10175e-10
5.96577e-10
4.62837e-10
4.62757e-10
2.06412e-07
1.68784e-06
5.51098e-07
1.10306e-10
2.43912e-12
2.41424e-13
1.46287e-13
1.44829e-14
2.28678e-15
2.54671e-15
3.8779e-15
2.30372e-15
2.71364e-17
1.71144e-18
3.13202e-18
1.16048e-18
2.64272e-19
2.42582e-19
1.84897e-18
2.96548e-16
9.0657e-15
8.88383e-14
3.80541e-12
1.05098e-08
4.5077e-08
4.49966e-08
6.98513e-09
2.38991e-11
2.27236e-11
2.03928e-11
4.5283e-09
2.93013e-08
3.61042e-08
1.47644e-08
1.98197e-09
1.12852e-11
6.40887e-12
8.12775e-13
1.06812e-13
9.59399e-14
1.09078e-13
5.79129e-13
2.26794e-12
5.93428e-12
1.10369e-11
1.6442e-11
2.50735e-11
8.76991e-11
4.54429e-10
8.82361e-10
1.08092e-09
9.7209e-10
1.25718e-09
8.32867e-10
2.05034e-10
1.3351e-10
6.61183e-11
3.57677e-11
1.98836e-11
9.29848e-12
3.67511e-12
1.33415e-12
3.03127e-13
2.07905e-13
4.61413e-13
3.41594e-12
1.67842e-11
3.3507e-11
3.52149e-11
2.36423e-10
1.13267e-09
1.69148e-09
2.17216e-09
3.23161e-09
3.1137e-09
1.77101e-09
8.47368e-10
5.35947e-10
4.63295e-10
4.62836e-10
5.05729e-07
2.53474e-06
1.90639e-06
3.49115e-08
2.02315e-11
5.19966e-13
6.10473e-14
7.7879e-15
1.39056e-15
1.14671e-15
1.30438e-15
7.77986e-16
1.4281e-18
1.07706e-19
2.50697e-19
1.32808e-19
7.29362e-20
4.1263e-20
2.76193e-19
3.6814e-17
2.45494e-15
6.26099e-14
3.06385e-12
8.18922e-09
4.5077e-08
4.32001e-08
1.16574e-09
2.87696e-11
6.93932e-11
1.17293e-08
7.80834e-08
8.69787e-08
8.68987e-08
8.61667e-08
4.81033e-08
6.40514e-09
4.98678e-10
1.53605e-11
2.23296e-13
2.20708e-14
2.21266e-14
2.82822e-14
1.88019e-13
9.05186e-13
2.62835e-12
5.71211e-12
1.14605e-11
2.87574e-11
1.11931e-10
4.54751e-10
1.18185e-09
8.12406e-10
1.25484e-09
1.23834e-09
4.78705e-10
1.63745e-10
4.46011e-11
1.50001e-11
5.81799e-12
1.94185e-12
4.59629e-13
5.83891e-14
1.01849e-14
6.55664e-14
9.45658e-13
8.11401e-12
2.72488e-11
3.42255e-11
2.05417e-10
5.14635e-09
9.10832e-09
6.72318e-09
4.51049e-09
6.881e-09
7.15627e-09
6.56938e-09
2.84185e-09
6.09412e-10
4.65486e-10
4.63295e-10
4.65486e-10
2.37814e-06
1.64712e-06
2.80743e-08
2.36349e-11
3.00618e-13
5.83372e-14
4.95114e-15
6.54242e-16
2.99686e-16
2.13034e-16
1.37817e-16
2.29463e-20
2.21528e-21
5.99365e-21
5.04289e-21
9.10275e-21
4.29873e-21
3.25273e-20
2.81117e-18
2.38862e-16
1.6628e-14
9.48249e-13
2.52219e-09
2.42864e-08
3.30265e-08
2.98085e-10
1.189e-10
2.53448e-10
3.24748e-08
8.69787e-08
8.69787e-08
8.69787e-08
8.68987e-08
8.6248e-08
8.81342e-08
5.39466e-08
2.30743e-10
3.32141e-12
2.15464e-14
1.67368e-14
1.64519e-14
1.80023e-14
2.36582e-13
1.0822e-12
2.91933e-12
5.98024e-12
1.38198e-11
7.59452e-11
5.17482e-10
1.19869e-09
6.74294e-10
9.61715e-10
1.34007e-09
6.76306e-10
1.81915e-10
3.38928e-11
8.84497e-12
2.78718e-12
6.53235e-13
8.2991e-14
3.50296e-15
2.83315e-15
7.78829e-14
1.74076e-12
1.54129e-11
2.58575e-11
2.61837e-11
5.3582e-09
1.29401e-08
1.26976e-08
6.89685e-09
1.89628e-09
2.31345e-09
6.80547e-09
9.2428e-09
6.15515e-09
1.41455e-09
4.72089e-10
4.65486e-10
4.72089e-10
3.777e-06
2.89151e-06
9.41116e-08
5.66901e-11
1.0076e-12
2.70568e-14
1.85829e-15
1.93362e-16
4.04512e-17
1.53301e-17
1.22089e-17
3.14412e-22
3.12928e-23
8.73357e-23
9.45507e-23
4.23085e-22
3.23461e-22
4.29873e-21
4.78089e-19
4.85317e-17
4.05667e-15
1.71426e-11
5.54731e-10
2.10407e-09
3.62205e-09
3.07425e-08
1.19434e-07
1.02487e-07
1.2438e-08
3.02177e-08
6.01112e-08
4.60701e-08
2.36636e-08
2.52381e-08
8.83864e-08
1.35551e-07
1.11129e-07
4.82158e-11
9.80664e-14
1.75937e-14
1.56892e-14
4.03467e-15
3.76603e-14
3.52932e-13
1.44609e-12
3.6602e-12
8.33675e-12
3.40946e-11
3.18107e-10
1.13611e-09
6.25915e-10
8.09448e-10
1.34007e-09
7.48708e-10
1.85168e-10
2.3141e-11
5.01838e-12
1.30071e-12
2.07431e-13
1.40159e-14
4.22291e-16
9.7178e-16
7.94521e-14
2.60835e-12
2.05909e-11
9.59542e-12
4.2988e-10
1.24267e-08
1.29401e-08
5.6678e-09
1.77097e-09
1.75528e-09
1.75754e-09
5.10394e-09
9.45737e-09
9.42441e-09
4.25147e-09
6.07345e-10
4.72089e-10
4.83999e-10
6.86422e-06
5.80692e-06
3.27507e-07
1.47804e-10
2.20465e-12
4.6939e-14
2.50885e-15
6.39191e-17
3.32895e-18
6.40565e-19
6.40512e-19
6.85849e-24
6.41364e-25
1.85749e-24
1.73472e-24
4.41491e-24
7.39937e-24
3.94416e-22
6.17405e-20
8.1383e-18
4.56715e-15
8.72992e-12
2.23853e-10
6.52635e-10
7.74059e-10
1.1541e-07
3.22921e-07
3.06476e-07
9.52608e-09
8.65478e-09
8.61189e-09
8.43052e-09
8.86801e-09
1.00019e-08
3.85598e-08
1.37838e-07
3.33355e-07
3.46612e-08
1.20592e-12
4.77884e-14
8.78867e-14
4.03467e-15
5.52756e-15
1.09124e-13
6.78798e-13
2.22867e-12
5.82273e-12
2.26745e-11
2.01007e-10
8.8849e-10
5.77352e-10
7.043e-10
1.30575e-09
7.56717e-10
1.36557e-10
1.34733e-11
2.98425e-12
6.63166e-13
7.51931e-14
3.23783e-15
1.35444e-16
4.25712e-16
5.42317e-14
2.73956e-12
2.05881e-11
8.9532e-12
1.85276e-09
1.29322e-08
1.29401e-08
3.02365e-09
1.78731e-09
2.57602e-09
5.38579e-09
8.812e-09
9.48445e-09
9.45737e-09
5.01143e-09
5.60625e-10
4.84202e-10
3.16688e-06
7.7374e-06
6.80598e-06
3.71713e-07
1.24881e-10
1.7955e-12
2.65903e-14
7.77385e-15
1.00894e-16
5.33322e-19
2.90258e-20
2.9287e-20
1.76937e-25
1.70578e-26
5.19872e-26
3.79787e-26
4.82212e-27
1.71167e-26
4.96779e-24
1.66802e-21
3.2544e-19
9.95004e-17
9.98427e-13
5.13082e-11
5.30367e-10
3.04956e-09
9.0598e-08
3.2423e-07
3.25556e-07
1.63335e-07
8.52396e-09
8.43049e-09
8.43052e-09
8.43052e-09
1.38611e-07
2.70904e-07
9.49208e-08
3.37078e-07
2.90085e-07
1.13679e-08
2.16228e-13
1.80994e-13
5.23089e-15
2.27032e-15
3.78833e-14
3.36201e-13
1.39697e-12
4.23845e-12
1.78583e-11
1.56805e-10
7.27964e-10
5.12412e-10
6.35224e-10
1.2548e-09
6.48636e-10
8.58938e-11
8.11968e-12
1.87878e-12
3.56464e-13
3.092e-14
1.07833e-15
5.86097e-17
1.46461e-16
3.64754e-14
1.80265e-12
1.31037e-11
8.15602e-12
1.92576e-09
1.17193e-08
1.27333e-08
4.65702e-09
1.78731e-09
5.58537e-09
9.48512e-09
9.4877e-09
9.47611e-09
9.44073e-09
2.86024e-09
5.13507e-10
1.16068e-06
7.72808e-06
7.71257e-06
4.46497e-06
7.95707e-08
2.96034e-11
6.63642e-13
2.95303e-13
9.21298e-15
5.1006e-17
1.90066e-19
1.96962e-21
1.50402e-21
4.62135e-27
4.79939e-28
1.55176e-27
1.23647e-27
2.33463e-28
1.52336e-28
1.24032e-26
2.74991e-24
1.02254e-21
6.25566e-19
9.03937e-15
5.55853e-12
1.48632e-10
1.91615e-09
1.39646e-08
3.25556e-07
3.25556e-07
3.25556e-07
1.24301e-07
8.52396e-09
8.4305e-09
8.64211e-09
2.73828e-07
2.82542e-07
9.61763e-08
3.40023e-07
3.37499e-07
4.17288e-08
1.10272e-12
7.60175e-14
1.54751e-14
2.26099e-15
1.63853e-14
1.83574e-13
9.14134e-13
3.18089e-12
1.50659e-11
1.35044e-10
6.13182e-10
4.52586e-10
5.82541e-10
1.22247e-09
5.16122e-10
5.07751e-11
5.38569e-12
1.22749e-12
2.01124e-13
1.49447e-14
5.12518e-16
2.72755e-17
3.90106e-17
1.73143e-14
9.57365e-13
5.85864e-12
7.28718e-12
5.00508e-10
5.98195e-09
1.263e-08
9.12942e-09
1.84686e-09
3.51522e-09
7.86468e-09
8.91948e-09
6.03097e-09
2.74137e-09
5.21639e-10
5.21639e-10
3.58996e-06
7.59826e-06
5.50912e-06
5.36105e-07
1.81808e-10
3.93815e-12
1.23811e-12
1.14797e-13
2.08388e-15
1.11296e-17
4.38417e-20
1.74236e-22
8.51804e-23
1.19132e-28
1.34388e-29
4.62924e-29
4.36996e-29
1.25555e-28
1.31732e-29
1.52336e-28
1.24032e-26
2.74991e-24
1.02254e-21
1.09003e-15
6.21559e-13
6.91264e-12
1.66132e-10
2.15799e-10
7.59126e-08
3.25556e-07
3.23244e-07
3.20932e-07
2.67258e-07
5.07142e-08
2.14211e-07
2.72398e-07
2.75524e-07
1.2634e-07
3.89674e-07
3.37577e-07
2.7214e-08
6.02436e-12
5.70846e-14
2.48642e-15
2.15092e-15
9.67506e-15
1.13304e-13
6.28247e-13
2.44983e-12
1.3394e-11
1.21275e-10
5.40018e-10
3.98399e-10
5.42326e-10
1.19312e-09
3.97293e-10
3.17997e-11
3.88189e-12
8.22851e-13
1.21069e-13
8.55197e-15
3.12244e-16
1.41724e-17
9.67356e-18
5.99197e-15
3.62914e-13
2.37931e-12
4.32292e-12
5.41595e-11
3.68633e-09
1.24533e-08
1.1864e-08
3.61794e-09
2.60521e-09
2.60521e-09
2.70268e-09
2.42188e-09
1.65528e-09
6.73592e-10
1.33655e-07
1.47309e-06
1.44171e-06
2.72372e-07
6.34822e-10
6.09303e-11
8.54643e-12
5.43421e-13
1.07966e-14
1.28034e-16
8.87161e-19
3.89581e-21
1.31944e-23
4.90482e-24
3.00045e-30
3.95551e-31
1.35305e-30
1.46526e-30
5.50659e-30
9.73734e-30
9.36495e-30
7.90576e-27
2.78075e-24
3.66465e-20
2.28025e-16
6.75696e-14
2.02933e-14
2.94512e-13
4.06531e-09
4.27789e-09
6.42491e-08
1.98294e-07
2.37004e-07
1.82656e-07
1.20201e-07
1.99175e-07
2.69562e-07
2.07554e-07
3.4061e-07
3.9827e-07
2.04005e-07
1.97105e-09
4.08176e-12
6.33776e-14
2.45634e-15
1.79378e-15
6.72884e-15
7.8134e-14
4.52142e-13
1.93319e-12
1.20774e-11
1.13343e-10
4.85013e-10
3.46203e-10
5.10885e-10
1.1471e-09
2.99899e-10
2.23058e-11
2.94809e-12
5.66695e-13
7.84834e-14
5.61304e-15
2.22455e-16
8.79925e-18
1.62209e-18
1.01207e-15
9.15518e-14
8.52551e-13
1.78615e-12
1.37917e-12
9.17857e-10
7.68899e-09
1.1793e-08
1.13423e-08
3.79378e-09
5.07389e-09
1.06035e-08
1.44161e-08
3.55842e-08
9.72751e-08
1.46236e-07
1.9455e-09
1.88387e-09
5.76173e-10
3.63883e-11
3.05572e-12
2.12981e-12
4.28355e-14
4.30178e-16
4.22706e-18
3.18188e-20
1.48309e-22
6.68481e-25