/*--------------------------------*- C++ -*----------------------------------*\
| =========                 |                                                 |
| \\      /  F ield         | OpenFOAM: The Open Source CFD Toolbox           |
|  \\    /   O peration     | Version:  2412                                  |
|   \\  /    A nd           | Website:  www.openfoam.com                      |
|    \\/     M anipulation  |                                                 |
\*---------------------------------------------------------------------------*/
FoamFile
{
    version     2.0;
    format      ascii;
    arch        "LSB;label=32;scalar=64";
    class       surfaceScalarField;
    location    "7.46";
    object      alphaPhi0.water;
}
// * * * * * * * * * * * * * * * * * * * * * * * * * * * * * * * * * * * * * //

dimensions      [0 3 -1 0 0 0 0];

oriented        oriented;

internalField   nonuniform List<scalar> 
158920
(
-8.11541e-06
8.11489e-06
-1.51213e-05
6.92767e-06
-2.18808e-05
6.6917e-06
-2.77333e-05
5.80154e-06
-3.35263e-05
5.75613e-06
-3.93746e-05
5.82216e-06
-4.52196e-05
5.82695e-06
-5.10356e-05
5.80368e-06
-5.67857e-05
5.74187e-06
-6.25041e-05
5.71289e-06
-6.81723e-05
5.66473e-06
-7.3765e-05
5.59057e-06
-7.9279e-05
5.51273e-06
-8.47131e-05
5.4335e-06
-9.00638e-05
5.3506e-06
-9.53098e-05
5.24605e-06
-0.00010044
5.13058e-06
-0.000105451
5.01134e-06
-0.00011033
4.87983e-06
-0.000115069
4.73972e-06
-0.00011966
4.59152e-06
-0.000124093
4.43366e-06
-0.000128362
4.26916e-06
-0.000132457
4.09569e-06
-0.00013637
3.9142e-06
-0.000140094
3.72499e-06
-0.00014362
3.52692e-06
-0.000146941
3.32166e-06
-0.000150051
3.11019e-06
-0.000152941
2.89142e-06
-0.000155606
2.66502e-06
-0.000158037
2.43245e-06
-0.000160229
2.19252e-06
-0.000162174
1.94597e-06
-0.000163866
1.69263e-06
-0.000165298
1.43257e-06
-0.000166464
1.1658e-06
-0.000167355
8.92387e-07
-0.000167967
6.12505e-07
-0.000168293
3.26448e-07
-0.000168327
3.46061e-08
-0.00016806
-2.67132e-07
-0.000167484
-5.75418e-07
-0.000166602
-8.81392e-07
-0.000165403
-1.19871e-06
-0.00016388
-1.5219e-06
-0.000162028
-1.85108e-06
-0.000159837
-2.19112e-06
-0.000157311
-2.52514e-06
-0.000154438
-2.87187e-06
-0.000151213
-3.22435e-06
-0.000147633
-3.57913e-06
-0.000143689
-3.94373e-06
-0.000139382
-4.30723e-06
-0.000134703
-4.67828e-06
-0.000129642
-5.06083e-06
-0.000124208
-5.4332e-06
-0.00011839
-5.81792e-06
-0.000112181
-6.20859e-06
-0.000105575
-6.60552e-06
-9.85728e-05
-7.00147e-06
-9.11739e-05
-7.39844e-06
-8.33706e-05
-7.80297e-06
-7.51567e-05
-8.21356e-06
-6.65318e-05
-8.62455e-06
-5.74973e-05
-9.03417e-06
-4.80467e-05
-9.45028e-06
-3.81757e-05
-9.87063e-06
-2.78761e-05
-1.02992e-05
-1.71587e-05
-1.0717e-05
-6.01058e-06
-1.11477e-05
5.56353e-06
-1.15736e-05
1.7573e-05
-1.2009e-05
3.00096e-05
-1.24362e-05
4.28865e-05
-1.28765e-05
5.61979e-05
-1.3311e-05
6.99442e-05
-1.37458e-05
8.41299e-05
-1.41852e-05
9.87576e-05
-1.46272e-05
0.000113825
-1.50668e-05
0.000129332
-1.55068e-05
0.000145279
-1.59465e-05
0.000161666
-1.6386e-05
0.000178493
-1.6826e-05
0.000195759
-1.72652e-05
0.000213461
-1.77018e-05
0.000231593
-1.81308e-05
0.000250184
-1.8591e-05
0.000269204
-1.90191e-05
0.000288657
-1.94518e-05
0.000308543
-1.98852e-05
0.000328865
-2.03216e-05
0.000349615
-2.07493e-05
0.000370793
-2.11766e-05
0.000392396
-2.16022e-05
0.000414423
-2.20267e-05
0.000436873
-2.24489e-05
0.000459741
-2.28667e-05
0.000483022
-2.32805e-05
0.000506715
-2.36929e-05
0.000530817
-2.4101e-05
0.000555322
-2.45038e-05
0.000580226
-2.49035e-05
0.000605526
-2.52998e-05
0.00063122
-2.56929e-05
0.000657301
-2.60811e-05
0.000683765
-2.64636e-05
0.000710608
-2.68424e-05
0.000737824
-2.72159e-05
0.000765408
-2.7584e-05
0.000793354
-2.79461e-05
0.000821662
-2.83077e-05
0.000850321
-2.86585e-05
0.000879324
-2.90028e-05
0.000908665
-2.93417e-05
0.00093834
-2.96744e-05
0.00096834
-3.00006e-05
0.000998659
-3.03197e-05
0.00102929
-3.06312e-05
0.00106022
-3.09348e-05
0.00109146
-3.12309e-05
0.00112298
-3.15272e-05
0.00115479
-3.18071e-05
0.00118687
-3.20792e-05
0.00121921
-3.23439e-05
0.00125181
-3.25989e-05
0.00128467
-3.28572e-05
0.00131776
-3.30934e-05
0.00135108
-3.33223e-05
0.00138462
-3.35414e-05
0.00141838
-3.37589e-05
0.00145234
-3.39598e-05
0.00148648
-3.41454e-05
0.00152083
-3.43455e-05
0.00155534
-3.45117e-05
0.00159001
-3.46701e-05
0.00162483
-3.48231e-05
0.0016598
-3.49631e-05
0.00169489
-3.50928e-05
0.0017301
-3.52101e-05
0.00176542
-3.53169e-05
0.00180083
-3.5413e-05
0.00183632
-3.54948e-05
0.00187189
-3.55677e-05
0.00190752
-3.56244e-05
0.00194319
-3.56722e-05
0.00197889
-3.57043e-05
0.00201462
-3.57258e-05
0.00205036
-3.57333e-05
0.00208608
-3.57256e-05
0.00212179
-3.57062e-05
0.00215746
-3.56706e-05
0.00219309
-3.56256e-05
0.00222865
-3.55621e-05
0.00226414
-3.54844e-05
0.00229953
-3.5393e-05
0.00233482
-3.52857e-05
0.00236998
-3.51628e-05
0.00240501
-3.50313e-05
0.00243989
-3.48754e-05
0.0024746
-3.47059e-05
0.00250912
-3.45204e-05
0.00254344
-3.43202e-05
0.00257754
-3.41016e-05
0.00261141
-3.3866e-05
0.00264502
-3.3614e-05
0.00267837
-3.33445e-05
0.00271143
-3.30592e-05
0.00274418
-3.2754e-05
0.00277661
-3.24296e-05
0.0028087
-3.20886e-05
0.00284043
-3.17282e-05
0.00287178
-3.13487e-05
0.00290273
-3.09504e-05
0.00293326
-3.05345e-05
0.00296336
-3.00949e-05
0.002993
-2.96404e-05
0.00302216
-2.91672e-05
0.00305083
-2.8669e-05
0.00307898
-2.81464e-05
0.00310659
-2.76093e-05
0.00313364
-2.7058e-05
0.00316012
-2.64744e-05
0.00318598
-2.58688e-05
0.00321123
-2.52443e-05
0.00323583
-2.45989e-05
0.00325976
-2.39316e-05
0.003283
-2.324e-05
0.00330552
-2.25263e-05
0.00332731
-2.17903e-05
0.00334834
-2.10302e-05
0.00336859
-2.02477e-05
0.00338803
-1.94428e-05
0.00340664
-1.86134e-05
0.0034244
-1.77601e-05
0.00344128
-1.68824e-05
0.00345726
-1.59819e-05
0.00347232
-1.50557e-05
0.00348643
-1.4106e-05
0.00349956
-1.31331e-05
0.00351169
-1.21334e-05
0.0035228
-1.11094e-05
0.00353287
-1.00643e-05
0.00354186
-8.99242e-06
0.00354975
-7.89493e-06
0.00355653
-6.77304e-06
0.00356215
-5.62898e-06
0.00356661
-4.46088e-06
0.00356988
-3.26836e-06
0.00357194
-2.05704e-06
0.00357277
-8.25113e-07
0.00357228
4.89034e-07
0.00357049
1.78679e-06
0.00356743
3.05821e-06
0.00356303
4.40512e-06
0.00355726
5.77011e-06
0.00355013
7.1232e-06
0.0035416
8.53749e-06
0.00353164
9.9547e-06
0.00352026
1.13837e-05
0.0035074
1.28593e-05
0.00349308
1.43201e-05
0.00347726
1.58187e-05
0.00345993
1.73355e-05
0.00344108
1.88485e-05
0.00342068
2.03951e-05
0.00339874
2.19474e-05
0.00337524
2.34976e-05
0.00335016
2.50838e-05
0.0033235
2.66592e-05
0.00329525
2.8248e-05
0.00326541
2.98389e-05
0.00323398
3.14327e-05
0.00320095
3.30323e-05
0.00316633
3.46233e-05
0.00313011
3.62162e-05
0.00309231
3.78021e-05
0.00305293
3.93768e-05
0.00301198
4.09503e-05
0.00296949
4.24955e-05
0.00292545
4.40364e-05
0.00287989
4.55564e-05
0.00283284
4.70502e-05
0.00278431
4.85257e-05
0.00273435
4.99628e-05
0.00268297
5.1376e-05
0.00263022
5.27529e-05
0.00257613
5.40912e-05
0.00252074
5.53885e-05
0.00246411
5.66323e-05
0.00240627
5.78402e-05
0.00234727
5.89938e-05
0.00228718
6.00891e-05
0.00222605
6.11315e-05
0.00216395
6.2101e-05
0.00210094
6.30111e-05
0.00203708
6.38577e-05
0.00197245
6.46295e-05
0.00190712
6.53288e-05
0.00184117
6.59517e-05
0.00177469
6.64804e-05
0.00170775
6.69351e-05
0.00164044
6.73159e-05
0.00157283
6.76015e-05
0.00150504
6.77941e-05
0.00143714
6.79008e-05
0.00136922
6.79164e-05
0.00130138
6.7839e-05
0.00123371
6.76734e-05
0.00116629
6.74194e-05
0.00109922
6.70704e-05
0.0010326
6.66184e-05
0.00096653
6.6074e-05
0.00090108
6.54505e-05
0.000836336
6.47434e-05
0.000772396
6.39401e-05
0.000709363
6.30323e-05
0.000647312
6.20516e-05
0.000586323
6.09888e-05
0.000526462
5.98612e-05
0.000467818
5.86444e-05
0.000410487
5.73317e-05
0.000354517
5.59697e-05
0.00029998
5.45386e-05
0.000246924
5.30582e-05
0.000195421
5.15044e-05
0.000145544
4.98789e-05
9.73347e-05
4.82089e-05
5.08086e-05
4.65249e-05
5.99888e-06
4.48083e-05
-3.70509e-05
4.30487e-05
-7.81438e-05
4.10922e-05
-0.000117427
3.92828e-05
-0.00015485
3.74231e-05
-0.000190365
3.55152e-05
-0.000223945
3.35787e-05
-0.00025551
3.15647e-05
-0.000285033
2.95217e-05
-0.000312682
2.76509e-05
-0.00033836
2.56818e-05
-0.000362082
2.37261e-05
-0.000383816
2.17391e-05
-0.000403519
1.97056e-05
-0.000421225
1.77087e-05
-0.000436971
1.57475e-05
-0.000450754
1.37843e-05
-0.000462705
1.19504e-05
-0.000472731
1.00251e-05
-0.000480839
8.11042e-06
-0.000487067
6.22957e-06
-0.000491362
4.29577e-06
-0.000493882
2.51574e-06
-0.000494585
6.97152e-07
-0.000493507
-1.08168e-06
-0.000490664
-2.84361e-06
-0.000486081
-4.58163e-06
-0.00047986
-6.22136e-06
-0.000471976
-7.88992e-06
-0.000462417
-9.56537e-06
-0.000451203
-1.12148e-05
-0.000438397
-1.27981e-05
-0.000424077
-1.43058e-05
-0.000408219
-1.58438e-05
-0.000390878
-1.7337e-05
-0.000372058
-1.88262e-05
-0.0003517
-2.03678e-05
-0.000329948
-2.17576e-05
-0.000306772
-2.3172e-05
-0.000282186
-2.45733e-05
-0.000256195
-2.59753e-05
-0.000228838
-2.73434e-05
-0.000200165
-2.86678e-05
-0.000170204
-2.99629e-05
-0.000138954
-3.12581e-05
-0.000106424
-3.25398e-05
-7.25979e-05
-3.38354e-05
-3.74911e-05
-3.51126e-05
-1.22849e-06
-3.62636e-05
3.61576e-05
-3.73838e-05
7.47312e-05
-3.85699e-05
0.000114528
-3.97945e-05
0.000155414
-4.08855e-05
0.000197355
-4.19418e-05
0.000240296
-4.29421e-05
0.000284209
-4.39123e-05
0.000329034
-4.48219e-05
0.000374746
-4.57091e-05
0.000421339
-4.65918e-05
0.000468791
-4.74531e-05
0.000516905
-4.81181e-05
0.000565593
-4.86933e-05
0.000614828
-4.92374e-05
0.000664704
-4.98759e-05
0.000715073
-5.03647e-05
0.000765787
-5.07087e-05
0.000816774
-5.09805e-05
0.000867972
-5.11935e-05
0.000919285
-5.13112e-05
0.000970593
-5.13103e-05
0.00102188
-5.12944e-05
0.00107305
-5.11705e-05
0.00112394
-5.08871e-05
0.00117443
-5.04879e-05
0.0012244
-4.99689e-05
0.00127384
-4.94374e-05
0.00132265
-4.88077e-05
0.00137067
-4.802e-05
0.00141774
-4.70773e-05
0.00146381
-4.60714e-05
0.00150882
-4.50156e-05
0.00155265
-4.38266e-05
0.00159515
-4.25009e-05
0.00163626
-4.11132e-05
0.00167578
-3.95292e-05
0.00171373
-3.79436e-05
0.00175006
-3.63226e-05
0.0017847
-3.46343e-05
0.00181752
-3.28248e-05
0.00184841
-3.08977e-05
0.00187723
-2.88192e-05
0.001904
-2.67782e-05
0.00192873
-2.47338e-05
0.00195133
-2.2601e-05
0.00197167
-2.03461e-05
0.00198976
-1.80801e-05
0.00200556
-1.58043e-05
0.00201906
-1.34996e-05
0.00203018
-1.11181e-05
0.00203889
-8.70872e-06
0.00204516
-6.27448e-06
0.00204902
-3.85645e-06
0.00205042
-1.39816e-06
0.00204931
1.10628e-06
0.00204563
3.68501e-06
0.00203954
6.08502e-06
0.00203098
8.56733e-06
0.00201994
1.10411e-05
0.00200649
1.34534e-05
0.00199058
1.59143e-05
0.00197221
1.83676e-05
0.00195146
2.07478e-05
0.00192844
2.30246e-05
0.00190309
2.53542e-05
0.00187542
2.76631e-05
0.00184552
2.99046e-05
0.0018134
3.21281e-05
0.0017792
3.41972e-05
0.00174293
3.62687e-05
0.00170466
3.82728e-05
0.00166441
4.02489e-05
0.00162235
4.2062e-05
0.00157852
4.38229e-05
0.00153298
4.55436e-05
0.00148582
4.71632e-05
0.00143715
4.86627e-05
0.00138709
5.00682e-05
0.00133565
5.14337e-05
0.00128305
5.26063e-05
0.00122937
5.36825e-05
0.00117464
5.47291e-05
0.00111902
5.56162e-05
0.00106257
5.6456e-05
0.00100545
5.71157e-05
0.0009478
5.76488e-05
0.000889642
5.81577e-05
0.000831141
5.84977e-05
0.000772341
5.87987e-05
0.000713468
5.88723e-05
0.000654669
5.87986e-05
0.000595967
5.87029e-05
0.000537558
5.84085e-05
0.000479427
5.81303e-05
0.000421807
5.76203e-05
0.000364776
5.70292e-05
0.000308455
5.63205e-05
0.000253009
5.54455e-05
0.000198433
5.45751e-05
0.000144937
5.34951e-05
9.24815e-05
5.24554e-05
4.13222e-05
5.11589e-05
-8.47937e-06
4.98012e-05
-5.68136e-05
4.8334e-05
-0.000103551
4.67376e-05
-0.000148697
4.51449e-05
-0.000192097
4.33995e-05
-0.000233603
4.15066e-05
-0.000273201
3.95977e-05
-0.000310934
3.77335e-05
-0.000346533
3.55994e-05
-0.000379909
3.33745e-05
-0.000410969
3.10593e-05
-0.000439736
2.87673e-05
-0.000466237
2.65011e-05
-0.00049033
2.4094e-05
-0.000511963
2.16342e-05
-0.000531124
1.91627e-05
-0.000547724
1.65993e-05
-0.000561645
1.39212e-05
-0.000573051
1.14067e-05
-0.000581871
8.82147e-06
-0.000587997
6.12708e-06
-0.000591576
3.57955e-06
-0.000592608
1.03351e-06
-0.000591119
-1.48838e-06
-0.000587033
-4.08304e-06
-0.000580466
-6.56461e-06
-0.00057143
-9.03373e-06
-0.000560056
-1.13734e-05
-0.000546376
-1.36802e-05
-0.000530471
-1.59057e-05
-0.000512438
-1.80331e-05
-0.000492342
-2.00948e-05
-0.00047025
-2.20903e-05
-0.000446381
-2.38682e-05
-0.000420844
-2.55386e-05
-0.000393736
-2.71093e-05
-0.000365228
-2.85097e-05
-0.000335471
-2.97577e-05
-0.000304568
-3.09026e-05
-0.000272703
-3.18638e-05
-0.000240069
-3.26332e-05
-0.000206817
-3.32521e-05
-0.000173073
-3.37454e-05
-0.000139036
-3.4038e-05
-0.000104848
-3.41871e-05
-7.06463e-05
-3.4201e-05
-3.67311e-05
-3.39138e-05
-3.18523e-06
-3.3545e-05
2.99303e-05
-3.31154e-05
6.23545e-05
-3.24246e-05
9.39882e-05
-3.16341e-05
0.000124718
-3.07303e-05
0.000154342
-2.9623e-05
0.000182766
-2.84237e-05
0.000209888
-2.71215e-05
0.000235565
-2.56783e-05
0.00025972
-2.41562e-05
0.000282318
-2.2599e-05
0.000303292
-2.09759e-05
0.000322523
-1.92334e-05
0.000339993
-1.74717e-05
0.000355659
-1.56677e-05
0.000369639
-1.39814e-05
0.000381767
-1.21298e-05
0.000392053
-1.02871e-05
0.00040051
-8.45852e-06
0.0004073
-6.79193e-06
0.000412339
-5.03969e-06
0.000415753
-3.41457e-06
0.000417548
-1.79569e-06
0.000417684
-1.36404e-07
0.000416372
1.31072e-06
0.00041362
2.75017e-06
0.000409578
4.04209e-06
0.000404259
5.31862e-06
0.000397785
6.4752e-06
0.000390278
7.50725e-06
0.000381831
8.44764e-06
0.000372659
9.17122e-06
0.000362781
9.8771e-06
0.000352349
1.04315e-05
0.000341484
1.08654e-05
0.000330299
1.11854e-05
0.000318903
1.1397e-05
0.000307458
1.14454e-05
0.000296064
1.13934e-05
0.000284711
1.13521e-05
0.00027368
1.10303e-05
0.000262884
1.07965e-05
0.000252534
1.03499e-05
0.000242621
9.91353e-06
0.000233215
9.40547e-06
0.000224415
8.80033e-06
0.000216166
8.24844e-06
0.000208609
7.55676e-06
0.000201637
6.97196e-06
0.000195269
6.36788e-06
0.000189524
5.74561e-06
0.000184343
5.18e-06
0.000179733
4.60988e-06
0.00017574
3.99257e-06
0.000172312
3.42804e-06
0.000169548
2.76348e-06
0.000167346
2.20271e-06
0.000165755
1.59049e-06
0.000164663
1.09263e-06
0.000164087
5.76524e-07
0.000163916
1.71298e-07
0.000164267
-3.51066e-07
0.000165113
-8.45444e-07
0.000166382
-1.26852e-06
0.000168014
-1.63117e-06
0.000169955
-1.94057e-06
0.00017214
-2.18371e-06
0.000174402
-2.26061e-06
0.000176637
-2.23367e-06
0.000178753
-2.11584e-06
0.00018084
-2.08699e-06
0.000182951
-2.11029e-06
0.000184965
-2.01367e-06
0.000186805
-1.83888e-06
0.000188363
-1.55734e-06
0.000189458
-1.09449e-06
0.000190141
-6.82303e-07
0.000190345
-2.04289e-07
0.000190013
3.31824e-07
0.000189052
9.60837e-07
0.000187544
1.50849e-06
0.000185382
2.16195e-06
0.000182451
2.9309e-06
0.000178727
3.72476e-06
0.000174164
4.56298e-06
0.000168609
5.55536e-06
0.000162093
6.51588e-06
0.000154621
7.47226e-06
0.000145915
8.70638e-06
0.000135815
1.00995e-05
0.000123502
1.23137e-05
0.000109877
1.36254e-05
9.31453e-05
1.67315e-05
7.3077e-05
2.00684e-05
6.38986e-05
9.1786e-06
7.30895e-05
-9.19083e-06
7.36209e-05
-5.31321e-07
5.91368e-05
1.44841e-05
3.82653e-05
2.08715e-05
2.72948e-05
1.09705e-05
3.61098e-05
-8.81511e-06
3.58551e-05
2.5465e-07
1.667e-05
1.91852e-05
-4.25374e-06
2.09239e-05
-2.19319e-05
1.76783e-05
-3.81344e-05
1.62027e-05
-5.26766e-05
1.45423e-05
-6.59685e-05
1.3292e-05
-7.8213e-05
1.22444e-05
-8.95547e-05
1.13417e-05
-0.000100164
1.06098e-05
-0.00011011
9.94593e-06
-0.000119461
9.35146e-06
-0.000128248
8.78677e-06
-0.000136385
8.13752e-06
-0.000143862
7.47692e-06
-0.000150712
6.85083e-06
-0.000156796
6.08355e-06
-0.000162372
5.5763e-06
-0.000167263
4.8916e-06
-0.000171449
4.18664e-06
-0.000175019
3.57028e-06
-0.000177918
2.89907e-06
-0.000180289
2.37038e-06
-0.000182178
1.88903e-06
-0.000183577
1.39921e-06
-0.000184564
9.87793e-07
-0.000185086
5.22144e-07
-0.000185293
2.06186e-07
-0.000185365
7.26376e-08
-0.000185348
-1.69449e-08
-0.000185266
-8.18247e-08
-0.000185083
-1.82407e-07
-0.000184843
-2.402e-07
-0.000184712
-1.31809e-07
-0.000184824
1.11784e-07
-0.000185353
5.29628e-07
-0.000186105
7.51319e-07
-0.00018706
9.55971e-07
-0.000188284
1.2234e-06
-0.000189925
1.64147e-06
-0.000192021
2.09584e-06
-0.000194552
2.53027e-06
-0.000197584
3.03144e-06
-0.000201072
3.48803e-06
-0.00020514
4.0681e-06
-0.000209785
4.64529e-06
-0.000215007
5.22119e-06
-0.000220825
5.81763e-06
-0.00022726
6.43446e-06
-0.000234206
6.94591e-06
-0.00024198
7.77395e-06
-0.000250366
8.38581e-06
-0.000258941
8.57412e-06
-0.000267846
8.90446e-06
-0.00027685
9.00459e-06
-0.000285889
9.03873e-06
-0.000294965
9.07587e-06
-0.000303899
8.93326e-06
-0.000312584
8.68492e-06
-0.000320885
8.30053e-06
-0.000328757
7.87253e-06
-0.000335869
7.1106e-06
-0.000342151
6.28152e-06
-0.000347571
5.4202e-06
-0.000352157
4.58553e-06
-0.000355657
3.50069e-06
-0.000358004
2.34626e-06
-0.000359015
1.00892e-06
-0.000358368
-6.47469e-07
-0.000356075
-2.29325e-06
-0.000352251
-3.82434e-06
-0.000346867
-5.38422e-06
-0.000340021
-6.84517e-06
-0.000331624
-8.39659e-06
-0.000321173
-1.04515e-05
-0.000308502
-1.26723e-05
-0.000293918
-1.45836e-05
-0.00027735
-1.65683e-05
-0.000259214
-1.81363e-05
-0.000239164
-2.00493e-05
-0.000217227
-2.19377e-05
-0.000193401
-2.38264e-05
-0.000167882
-2.55197e-05
-0.000140612
-2.72711e-05
-0.000111886
-2.8726e-05
-8.17237e-05
-3.01626e-05
-5.034e-05
-3.13836e-05
-1.77638e-05
-3.25764e-05
1.60187e-05
-3.37827e-05
5.06254e-05
-3.46069e-05
8.57162e-05
-3.5091e-05
0.000121073
-3.53574e-05
0.000156599
-3.55264e-05
0.00019196
-3.53609e-05
0.000226946
-3.49853e-05
0.000261461
-3.45142e-05
0.000295205
-3.37434e-05
0.000327842
-3.26361e-05
0.000359164
-3.13221e-05
0.000389118
-2.99537e-05
0.000416922
-2.78026e-05
0.000442737
-2.58144e-05
0.000466164
-2.34286e-05
0.000487008
-2.08421e-05
0.000505417
-1.84047e-05
0.000521117
-1.56983e-05
0.000533828
-1.27099e-05
0.000543306
-9.48148e-06
0.000549429
-6.12177e-06
0.000552022
-2.59123e-06
0.000551424
6.04044e-07
0.000547402
4.02286e-06
0.000539881
7.52289e-06
0.000528688
1.11939e-05
0.00051374
1.49489e-05
0.000495288
1.84489e-05
0.000473262
2.20274e-05
0.000447576
2.56872e-05
0.000419064
2.85173e-05
0.000387127
3.19366e-05
0.000351888
3.52389e-05
0.000313297
3.85913e-05
0.000271645
4.16509e-05
0.000227037
4.46072e-05
0.000179626
4.74099e-05
0.000129792
4.98333e-05
7.72103e-05
5.25799e-05
2.21693e-05
5.50389e-05
-3.51037e-05
5.72701e-05
-9.45141e-05
5.94076e-05
-0.000155719
6.12023e-05
-0.000218602
6.28822e-05
-0.000283095
6.44907e-05
-0.000349249
6.61533e-05
-0.000416815
6.75678e-05
-0.00048548
6.86673e-05
-0.000554963
6.94849e-05
-0.000625179
7.02122e-05
-0.000695867
7.06898e-05
-0.000766981
7.11168e-05
-0.000838262
7.1283e-05
-0.000909619
7.13596e-05
-0.000980766
7.11527e-05
-0.00105137
7.06119e-05
-0.00112117
6.98015e-05
-0.00118991
6.87387e-05
-0.00125758
6.76713e-05
-0.001324
6.6413e-05
-0.00138898
6.49798e-05
-0.00145212
6.31466e-05
-0.0015132
6.10891e-05
-0.00157221
5.90093e-05
-0.00162867
5.64562e-05
-0.00168246
5.37812e-05
-0.00173337
5.09088e-05
-0.00178145
4.8084e-05
-0.00182644
4.49881e-05
-0.00186808
4.16383e-05
-0.00190625
3.81665e-05
-0.00194091
3.4662e-05
-0.00197181
3.09073e-05
-0.00199904
2.72325e-05
-0.00202244
2.33923e-05
-0.00204176
1.93189e-05
-0.00205716
1.53964e-05
-0.00206855
1.13932e-05
-0.00207598
7.43099e-06
-0.00207946
3.4819e-06
-0.0020789
-5.60984e-07
-0.00207432
-4.57545e-06
-0.00206584
-8.48318e-06
-0.00205346
-1.23824e-05
-0.00203721
-1.62449e-05
-0.00201719
-2.00163e-05
-0.00199348
-2.37153e-05
-0.0019662
-2.7281e-05
-0.00193549
-3.07018e-05
-0.00190139
-3.41011e-05
-0.00186408
-3.73155e-05
-0.00182367
-4.04086e-05
-0.0017804
-4.32682e-05
-0.00173445
-4.59529e-05
-0.00168591
-4.85404e-05
-0.001635
-5.09107e-05
-0.00158193
-5.30577e-05
-0.00152687
-5.50597e-05
-0.00146984
-5.70327e-05
-0.0014111
-5.87468e-05
-0.001351
-6.01003e-05
-0.00128972
-6.12803e-05
-0.00122742
-6.22998e-05
-0.00116422
-6.31972e-05
-0.00110037
-6.38535e-05
-0.00103602
-6.43476e-05
-0.000971268
-6.47497e-05
-0.000906348
-6.49209e-05
-0.000841307
-6.50442e-05
-0.000776263
-6.50433e-05
-0.000711478
-6.47857e-05
-0.000647028
-6.445e-05
-0.00058303
-6.39984e-05
-0.000519585
-6.34466e-05
-0.000456842
-6.2744e-05
-0.00039493
-6.19132e-05
-0.000333933
-6.09994e-05
-0.000273883
-6.00521e-05
-0.000214992
-5.8892e-05
-0.000157408
-5.75842e-05
-0.000101294
-5.61142e-05
-4.67314e-05
-5.45625e-05
6.09315e-06
-5.28238e-05
5.7066e-05
-5.09717e-05
0.000106063
-4.89958e-05
0.000152931
-4.68684e-05
0.000197606
-4.46746e-05
0.000239869
-4.22633e-05
0.000279662
-3.97935e-05
0.000316786
-3.71239e-05
0.000351126
-3.43386e-05
0.000382535
-3.1408e-05
0.000410817
-2.82803e-05
0.000435835
-2.50156e-05
0.000457485
-2.16481e-05
0.000475617
-1.813e-05
0.000490072
-1.44542e-05
0.000500711
-1.06381e-05
0.000507424
-6.71401e-06
0.000510092
-2.66636e-06
0.000508618
1.47445e-06
0.000503182
5.43545e-06
0.000493261
9.91927e-06
0.000478979
1.42801e-05
0.000460199
1.87791e-05
0.000436904
2.32937e-05
0.000409359
2.7543e-05
0.000377037
3.23189e-05
0.0003401
3.69356e-05
0.000298968
4.11321e-05
0.000253132
4.58367e-05
0.000202847
5.02858e-05
0.000148546
5.43024e-05
8.9691e-05
5.88576e-05
2.69019e-05
6.27915e-05
-3.99278e-05
6.68313e-05
-0.000110543
7.06162e-05
-0.000184789
7.42452e-05
-0.000262434
7.76427e-05
-0.000343308
8.08704e-05
-0.00042725
8.3939e-05
-0.000514016
8.67625e-05
-0.000603328
8.93117e-05
-0.000694947
9.16189e-05
-0.000788602
9.36561e-05
-0.000884016
9.54159e-05
-0.000980898
9.68826e-05
-0.00107895
9.80598e-05
-0.00117792
9.89698e-05
-0.00127748
9.95686e-05
-0.00137733
9.98605e-05
-0.00147717
9.98413e-05
-0.00157672
9.95525e-05
-0.00167571
9.89941e-05
-0.00177387
9.81624e-05
-0.00187093
9.70624e-05
-0.00196662
9.56935e-05
-0.00206069
9.40661e-05
-0.00215288
9.21996e-05
-0.00224298
9.00995e-05
-0.00233078
8.78061e-05
-0.00241615
8.53601e-05
-0.00249889
8.27411e-05
-0.00257883
7.99376e-05
-0.00265587
7.70346e-05
-0.00272985
7.39867e-05
-0.00280071
7.08646e-05
-0.00286837
6.76596e-05
-0.00293275
6.4376e-05
-0.00299379
6.1036e-05
-0.00305145
5.7658e-05
-0.00310573
5.4281e-05
-0.00315663
5.09003e-05
-0.00320417
4.75373e-05
-0.00324835
4.41799e-05
-0.00328914
4.07975e-05
-0.00332655
3.74045e-05
-0.00336059
3.4046e-05
-0.00339132
3.07304e-05
-0.00341878
2.74694e-05
-0.00344306
2.42746e-05
-0.00346411
2.10536e-05
-0.00348197
1.78582e-05
-0.00349666
1.46964e-05
-0.00350825
1.15844e-05
-0.00351678
8.54083e-06
-0.00352229
5.51218e-06
-0.00352489
2.59631e-06
-0.00352449
-3.96743e-07
-0.00352118
-3.31657e-06
-0.003515
-6.17713e-06
-0.00350601
-8.98687e-06
-0.00349427
-1.17415e-05
-0.00347984
-1.44297e-05
-0.00346281
-1.70253e-05
-0.00344322
-1.95925e-05
-0.00342113
-2.20924e-05
-0.00339659
-2.45393e-05
-0.00336969
-2.69009e-05
-0.00334052
-2.91701e-05
-0.00330913
-3.13917e-05
-0.00327558
-3.35485e-05
-0.00323994
-3.56389e-05
-0.0032023
-3.76398e-05
-0.00316278
-3.95199e-05
-0.00312144
-4.13343e-05
-0.00307838
-4.30626e-05
-0.00303367
-4.4709e-05
-0.00298739
-4.62839e-05
-0.0029396
-4.77939e-05
-0.00289035
-4.92431e-05
-0.00283981
-5.05461e-05
-0.00278804
-5.17653e-05
-0.00273509
-5.29555e-05
-0.00268106
-5.40314e-05
-0.00262605
-5.50131e-05
-0.00257012
-5.59224e-05
-0.00251334
-5.67795e-05
-0.00245578
-5.75607e-05
-0.00239754
-5.82429e-05
-0.00233871
-5.88282e-05
-0.00227943
-5.929e-05
-0.00221967
-5.97616e-05
-0.00215949
-6.01803e-05
-0.00209899
-6.04956e-05
-0.0020383
-6.06927e-05
-0.00197744
-6.08606e-05
-0.00191657
-6.08755e-05
-0.00185566
-6.09103e-05
-0.00179479
-6.08643e-05
-0.00173405
-6.0743e-05
-0.00167352
-6.05329e-05
-0.00161323
-6.02927e-05
-0.00155329
-5.99366e-05
-0.00149371
-5.95861e-05
-0.00143456
-5.91497e-05
-0.00137589
-5.86721e-05
-0.00131785
-5.80411e-05
-0.00126045
-5.74041e-05
-0.00120367
-5.67744e-05
-0.00114762
-5.60519e-05
-0.00109236
-5.52649e-05
-0.00103791
-5.44436e-05
-0.000984337
-5.35752e-05
-0.000931682
-5.26554e-05
-0.000880005
-5.1676e-05
-0.000829357
-5.06481e-05
-0.000779737
-4.962e-05
-0.000731196
-4.85399e-05
-0.000683773
-4.74218e-05
-0.00063753
-4.62421e-05
-0.000592486
-4.5044e-05
-0.000548637
-4.38485e-05
-0.000506091
-4.25451e-05
-0.000464746
-4.13443e-05
-0.000424833
-3.99112e-05
-0.000386184
-3.86484e-05
-0.000348925
-3.72579e-05
-0.000313012
-3.59123e-05
-0.000278443
-3.45679e-05
-0.000245378
-3.30644e-05
-0.000213681
-3.16961e-05
-0.000183388
-3.02925e-05
-0.000154503
-2.88834e-05
-0.00012717
-2.73323e-05
-0.000101226
-2.59433e-05
-7.67211e-05
-2.45049e-05
-5.36622e-05
-2.30589e-05
-3.2052e-05
-2.161e-05
-1.18659e-05
-2.01859e-05
6.88677e-06
-1.87525e-05
2.42265e-05
-1.73397e-05
4.01644e-05
-1.59378e-05
5.47141e-05
-1.45499e-05
6.78949e-05
-1.31811e-05
7.97242e-05
-1.18298e-05
9.02178e-05
-1.04939e-05
9.94056e-05
-9.18776e-06
0.000107328
-7.92276e-06
0.000113993
-6.66525e-06
0.000119434
-5.44155e-06
0.000123684
-4.25072e-06
0.00012678
-3.09557e-06
0.000128757
-1.97699e-06
0.000129648
-8.90629e-07
0.000129499
1.48874e-07
0.000128351
1.1484e-06
0.000126265
2.08561e-06
0.000123263
3.00213e-06
0.000119388
3.87439e-06
0.000114701
4.68813e-06
0.00010925
5.45122e-06
0.000103085
6.16515e-06
9.62554e-05
6.83067e-06
8.88158e-05
7.44e-06
8.08378e-05
7.97841e-06
7.23916e-05
8.44659e-06
6.35327e-05
8.85973e-06
5.43745e-05
9.15909e-06
4.52703e-05
9.10478e-06
3.6053e-05
9.21743e-06
2.45859e-05
1.14672e-05
1.19644e-05
1.26219e-05
1.1965e-05
-4.83449e-06
1.30235e-05
-1.16809e-05
1.38826e-05
-1.85041e-05
1.36e-05
-2.51104e-05
1.24728e-05
-3.14382e-05
1.21331e-05
-3.75211e-05
1.19418e-05
-4.347e-05
1.18026e-05
-4.93728e-05
1.17259e-05
-5.52475e-05
1.16306e-05
-6.1037e-05
1.15127e-05
-6.67483e-05
1.13837e-05
-7.23934e-05
1.12416e-05
-7.79671e-05
1.1091e-05
-8.34527e-05
1.09228e-05
-8.88418e-05
1.07428e-05
-9.4129e-05
1.05359e-05
-9.9308e-05
1.03119e-05
-0.000104365
1.00699e-05
-0.000109291
9.80786e-06
-0.000114078
9.52897e-06
-0.00011872
9.23525e-06
-0.000123207
8.922e-06
-0.000127528
8.59247e-06
-0.000131677
8.2455e-06
-0.000135644
7.88249e-06
-0.000139422
7.50463e-06
-0.000143002
7.10906e-06
-0.000146379
6.69976e-06
-0.000149545
6.27744e-06
-0.000152493
5.84114e-06
-0.000155216
5.38929e-06
-0.000157708
4.92481e-06
-0.000159959
4.44535e-06
-0.000161964
3.95229e-06
-0.000163716
3.44554e-06
-0.000165208
2.92534e-06
-0.000166433
2.39176e-06
-0.000167384
1.84481e-06
-0.000168055
1.28466e-06
-0.000168439
7.11624e-07
-0.000168529
1.25978e-07
-0.000168323
-4.72477e-07
-0.000167814
-1.08287e-06
-0.000166991
-1.70381e-06
-0.00016585
-2.33846e-06
-0.000164385
-2.98534e-06
-0.000162591
-3.64413e-06
-0.000160466
-4.31556e-06
-0.000157995
-4.99512e-06
-0.000155179
-5.68687e-06
-0.000152013
-6.38944e-06
-0.000148489
-7.10235e-06
-0.000144604
-7.82807e-06
-0.000140351
-8.559e-06
-0.000135726
-9.30217e-06
-0.000130731
-1.00553e-05
-0.000125348
-1.08151e-05
-0.000119581
-1.15846e-05
-0.000113425
-1.23636e-05
-0.000106878
-1.31512e-05
-9.99333e-05
-1.39453e-05
-9.25846e-05
-1.47464e-05
-8.48317e-05
-1.55551e-05
-7.66735e-05
-1.63711e-05
-6.81028e-05
-1.71945e-05
-5.91146e-05
-1.80216e-05
-4.9709e-05
-1.88551e-05
-3.9883e-05
-1.96958e-05
-2.96375e-05
-2.05438e-05
-1.89616e-05
-2.1392e-05
-7.86106e-06
-2.22472e-05
3.67199e-06
-2.31057e-05
1.56328e-05
-2.39688e-05
2.80314e-05
-2.48339e-05
4.08675e-05
-2.57117e-05
5.41334e-05
-2.65759e-05
6.784e-05
-2.74515e-05
8.1989e-05
-2.83333e-05
9.65771e-05
-2.92143e-05
0.000111604
-3.00926e-05
0.000127072
-3.09741e-05
0.000142981
-3.18545e-05
0.000159332
-3.27353e-05
0.000176125
-3.36175e-05
0.000193359
-3.44979e-05
0.00021104
-3.53819e-05
0.000229177
-3.62669e-05
0.000247704
-3.71165e-05
0.000266685
-3.7999e-05
0.000286108
-3.88737e-05
0.000305969
-3.97444e-05
0.000326261
-4.06126e-05
0.000346985
-4.14722e-05
0.000368139
-4.23286e-05
0.000389718
-4.31808e-05
0.00041172
-4.4027e-05
0.000434153
-4.48807e-05
0.000456998
-4.57107e-05
0.000480259
-4.654e-05
0.000503931
-4.73639e-05
0.000528018
-4.81874e-05
0.000552505
-4.89896e-05
0.000577394
-4.97916e-05
0.000602681
-5.05857e-05
0.000628361
-5.13725e-05
0.000654434
-5.21537e-05
0.000680887
-5.29155e-05
0.000707724
-5.36786e-05
0.000734932
-5.44229e-05
0.000762504
-5.51556e-05
0.000790431
-5.58728e-05
0.000818736
-5.66126e-05
0.000847388
-5.73099e-05
0.000876386
-5.80003e-05
0.000905724
-5.86797e-05
0.000935394
-5.93448e-05
0.000965391
-5.99973e-05
0.000995708
-6.06366e-05
0.00102634
-6.12629e-05
0.00105728
-6.18717e-05
0.00108852
-6.24696e-05
0.00112003
-6.30451e-05
0.00115184
-6.36132e-05
0.00118392
-6.41631e-05
0.00121627
-6.46962e-05
0.00124889
-6.52153e-05
0.00128174
-6.57038e-05
0.00131483
-6.61881e-05
0.00134816
-6.66485e-05
0.0013817
-6.70839e-05
0.00141548
-6.75366e-05
0.00144946
-6.79429e-05
0.00148365
-6.83282e-05
0.00151797
-6.86654e-05
0.00155248
-6.90218e-05
0.00158715
-6.93473e-05
0.00162199
-6.96583e-05
0.00165696
-6.99387e-05
0.00169207
-7.01971e-05
0.00172729
-7.0433e-05
0.00176263
-7.065e-05
0.00179805
-7.08393e-05
0.00183357
-7.1006e-05
0.00186915
-7.11517e-05
0.00190479
-7.12645e-05
0.00194048
-7.13644e-05
0.0019762
-7.1423e-05
0.00201196
-7.14759e-05
0.00204771
-7.14848e-05
0.00208346
-7.14741e-05
0.00211919
-7.14325e-05
0.00215488
-7.13664e-05
0.00219053
-7.12712e-05
0.00222612
-7.11532e-05
0.00226163
-7.09928e-05
0.00229705
-7.08147e-05
0.00233237
-7.06003e-05
0.00236757
-7.03624e-05
0.00240262
-7.0079e-05
0.00243752
-6.97764e-05
0.00247226
-6.9442e-05
0.00250681
-6.90717e-05
0.00254116
-6.86742e-05
0.0025753
-6.82338e-05
0.0026092
-6.77665e-05
0.00264285
-6.7264e-05
0.00267623
-6.67262e-05
0.00270933
-6.6155e-05
0.00274212
-6.55442e-05
0.00277458
-6.48975e-05
0.00280672
-6.42225e-05
0.00283848
-6.34973e-05
0.00286988
-6.27418e-05
0.00290087
-6.19484e-05
0.00293145
-6.11128e-05
0.00296159
-6.0238e-05
0.0029913
-5.93478e-05
0.00302052
-5.83833e-05
0.00304923
-5.73861e-05
0.00307744
-5.6353e-05
0.00310511
-5.52834e-05
0.0031322
-5.41418e-05
0.00315871
-5.29919e-05
0.00318464
-5.17948e-05
0.00320994
-5.05466e-05
0.0032346
-4.9257e-05
0.00325859
-4.79221e-05
0.00328189
-4.65414e-05
0.00330448
-4.51226e-05