/*--------------------------------*- C++ -*----------------------------------*\
| =========                 |                                                 |
| \\      /  F ield         | OpenFOAM: The Open Source CFD Toolbox           |
|  \\    /   O peration     | Version:  2412                                  |
|   \\  /    A nd           | Website:  www.openfoam.com                      |
|    \\/     M anipulation  |                                                 |
\*---------------------------------------------------------------------------*/
FoamFile
{
    version     2.0;
    format      ascii;
    arch        "LSB;label=32;scalar=64";
    class       surfaceScalarField;
    location    "4.95";
    object      alphaPhi0.lava;
}
// * * * * * * * * * * * * * * * * * * * * * * * * * * * * * * * * * * * * * //

dimensions      [0 3 -1 0 0 0 0];

oriented        oriented;

internalField   nonuniform List<scalar> 
12640
(
-1.05164e-08
1.06556e-08
-1.41873e-08
1.90774e-08
-1.32537e-09
3.74368e-09
2.02762e-08
-2.11304e-08
3.52258e-08
-4.06189e-08
2.66308e-08
-3.70698e-08
-6.19119e-09
-5.27369e-09
-4.40457e-08
3.92999e-08
-5.96351e-08
6.78868e-08
-3.70804e-08
5.73809e-08
1.46082e-08
7.8895e-09
6.46599e-08
-5.39466e-08
7.94759e-08
-8.97903e-08
4.53539e-08
-7.39733e-08
-2.04762e-08
-1.15705e-08
-7.88192e-08
6.24605e-08
-9.26454e-08
1.03577e-07
-5.10087e-08
8.52517e-08
2.29041e-08
1.62234e-08
8.52386e-08
-6.38232e-08
9.82595e-08
-1.07845e-07
5.37244e-08
-8.98301e-08
-2.20256e-08
-2.04842e-08
-8.41687e-08
5.94804e-08
-9.66602e-08
1.03895e-07
-5.35541e-08
8.8457e-08
1.84071e-08
2.417e-08
7.67966e-08
-5.05099e-08
8.90323e-08
-9.31637e-08
5.08357e-08
-8.19154e-08
-1.3078e-08
-2.65966e-08
-6.51599e-08
3.91123e-08
-7.7458e-08
7.84587e-08
-4.66364e-08
7.23958e-08
6.44566e-09
2.84388e-08
5.08159e-08
-2.61918e-08
6.36171e-08
-6.15191e-08
4.16871e-08
-6.12434e-08
7.38393e-10
-2.96802e-08
-3.56323e-08
1.32974e-08
-4.95639e-08
4.47285e-08
-3.72797e-08
5.06403e-08
-8.5964e-09
3.15119e-08
2.04019e-08
-3.94961e-10
3.62795e-08
-2.87705e-08
3.38653e-08
-4.12482e-08
1.67293e-08
-3.39832e-08
-6.1633e-09
-1.18245e-08
-2.49202e-08
1.47659e-08
-3.22528e-08
3.41519e-08
-2.54631e-08
3.78566e-08
-7.14067e-09
2.38177e-08
1.53449e-08
-2.3264e-09
3.19919e-08
-2.88075e-08
3.40938e-08
-4.24061e-08
1.88361e-08
-3.4884e-08
-7.91134e-09
-8.15172e-09
-3.3065e-08
2.51966e-08
-4.24848e-08
4.73976e-08
-2.9087e-08
4.502e-08
1.84582e-09
1.73073e-08
3.41523e-08
-2.1954e-08
4.92107e-08
-5.11216e-08
3.69554e-08
-5.28182e-08
2.74699e-09
-2.45942e-08
-3.46599e-08
1.86829e-08
-5.36011e-08
5.27252e-08
-4.24434e-08
5.78385e-08
-6.96021e-09
3.06718e-08
3.26668e-08
-1.35773e-08
5.37529e-08
-5.00532e-08
4.45934e-08
-5.88006e-08
1.12964e-08
-3.61599e-08
-2.62802e-08
4.14526e-09
-4.66787e-08
4.02068e-08
-3.96116e-08
5.52523e-08
-1.13631e-08
4.56744e-08
1.9101e-08
2.01803e-08
2.63644e-08
-4.06902e-09
-2.19199e-08
1.22106e-08
-1.45489e-08
-3.28478e-09
1.47562e-09
-7.55361e-09
-8.87646e-10
-5.65743e-09
-8.59202e-09
1.8609e-09
-1.31071e-08
8.20187e-09
-8.6552e-09
7.8812e-09
5.05662e-09
8.17791e-10
2.03636e-08
-7.68782e-09
2.58222e-08
-1.08989e-08
1.45861e-08
-5.75939e-09
-9.27027e-09
4.57522e-09
-3.17421e-08
1.27561e-08
-3.73661e-08
1.24585e-08
-1.98487e-08
3.09274e-09
1.24851e-08
-9.43258e-09
4.06911e-08
-1.65666e-08
4.66701e-08
-1.29907e-08
2.49888e-08
-4.39382e-10
-1.28321e-08
1.32003e-08
-4.47035e-08
1.89774e-08
-5.12987e-08
1.28109e-08
-2.80453e-08
-1.70904e-09
1.18054e-08
-1.55386e-08
4.50253e-08
-1.99809e-08
5.23272e-08
-1.22477e-08
2.98493e-08
2.8303e-09
-8.84026e-09
1.59468e-08
-4.11835e-08
1.91966e-08
-4.90994e-08
1.09167e-08
-2.9266e-08
-3.51529e-09
5.71838e-09
-1.52596e-08
3.54669e-08
-1.75488e-08
4.38899e-08
-9.64201e-09
2.79795e-08
3.14255e-09
-1.57025e-09
1.30458e-08
-2.75471e-08
1.46538e-08
-3.63583e-08
7.86412e-09
-2.50885e-08
-2.58962e-09
-1.86458e-09
-1.04235e-08
1.98506e-08
-1.1628e-08
2.9083e-08
-6.47516e-09
2.27352e-08
1.25751e-09
6.0046e-09
6.99001e-09
-1.15439e-08
8.06244e-09
-2.14051e-08
4.85549e-09
-2.0001e-08
-6.73108e-11
-9.43193e-09
-3.88689e-09
4.49474e-09
-5.12679e-09
1.5363e-08
-4.02858e-09
1.87807e-08
-1.80213e-09
1.37344e-08
4.21045e-10
2.62698e-09
2.11178e-09
-9.70881e-09
3.14053e-09
-1.77492e-08
3.30745e-09
-1.74662e-08
2.22955e-09
-8.32701e-09
-2.13924e-10
5.87982e-09
-3.30382e-09
1.82514e-08
-5.45091e-09
2.19582e-08
-5.02141e-09
1.40742e-08
-1.58154e-09
-2.156e-09
3.37635e-09
-1.83433e-08
6.97439e-09
-2.52384e-08
6.65453e-09
-1.81281e-08
2.02074e-09
-9.59511e-11
-4.51413e-09
1.91027e-08
-8.95331e-09
2.83785e-08
-8.20727e-09
2.18699e-08
-2.30172e-09
2.77308e-09
5.28318e-09
-1.8165e-08
9.51996e-09
-2.87822e-08
7.10021e-09
-2.27666e-08
-9.77842e-10
-3.45898e-09
-8.99043e-09
1.79844e-08
-9.27594e-09
2.92455e-08
2.81804e-09
2.35579e-08
2.32183e-08
2.45929e-09
3.47902e-08
-2.51549e-08
6.08083e-09
-3.68104e-08
-1.24726e-08
2.63755e-08
-2.35469e-08
5.62219e-09
-4.74105e-09
-6.46637e-10
1.71086e-09
-4.39993e-09
7.74808e-10
-4.7748e-09
-1.50736e-09
-2.16839e-09
-3.63019e-09
1.10174e-09
-3.21628e-09
2.55675e-09
5.47445e-10
1.48734e-09
5.44245e-09
-5.99911e-10
7.55282e-09
-1.41887e-09
4.38679e-09
4.77738e-11
-2.80851e-09
2.60035e-09
-9.42587e-09
3.75943e-09
-1.0515e-08
1.84709e-09
-4.38204e-09
-2.42506e-09
5.80503e-09
-6.18338e-09
1.37083e-08
-6.38117e-09
1.38643e-08
-2.13986e-09
5.45089e-09
4.30895e-09
-6.8413e-09
8.85673e-09
-1.55511e-08
8.20474e-09
-1.5114e-08
2.21393e-09
-5.4554e-09
-5.7368e-09
7.82174e-09
-1.07509e-08
1.68132e-08
-9.53775e-09
1.61464e-08
-2.5981e-09
6.26708e-09
5.98813e-09
-6.89772e-09
1.10516e-08
-1.5611e-08
9.53103e-09
-1.49849e-08
2.35992e-09
-5.75946e-09
-6.13438e-09
6.39019e-09
-1.09157e-08
1.44237e-08
-9.3037e-09
1.40918e-08
-2.50105e-09
6.19877e-09
5.29412e-09
-4.25477e-09
9.5301e-09
-1.12814e-08
8.00666e-09
-1.13811e-08
2.01297e-09
-5.24042e-09
-4.68061e-09
3.12834e-09
-8.21857e-09
9.00943e-09
-6.90801e-09
9.64828e-09
-1.98961e-09
5.45444e-09
3.38456e-09
-7.1627e-10
6.17422e-09
-5.47736e-09
5.17087e-09
-6.74962e-09
1.44162e-09
-4.53823e-09
-2.59616e-09
-4.72199e-10
-4.73603e-09
3.33864e-09
-4.17152e-09
5.34829e-09
-1.68466e-09
5.04046e-09
1.09608e-09
2.8258e-09
2.75137e-09
-3.17141e-10
2.75879e-09
-3.18529e-09
1.50402e-09
-4.63769e-09
-1.98826e-10
-3.93094e-09
-1.63247e-09
-1.11228e-09
-2.40864e-09
2.74714e-09
-2.39653e-09
5.79839e-09
-1.58683e-09
6.24578e-09
-1.09172e-10
3.43677e-09
1.61502e-09
-1.47494e-09
2.81937e-09
-5.87781e-09
2.66768e-09
-7.07433e-09
8.15114e-10
-3.96767e-09
-2.10496e-09
2.0207e-09
-4.52874e-09
7.51081e-09
-4.7448e-09
9.0777e-09
-2.05538e-09
5.41917e-09
2.37303e-09
-1.57371e-09
5.75778e-09
-7.70919e-09
5.18194e-09
-8.89411e-09
-7.60337e-11
-3.77313e-09
-6.92294e-09
5.20849e-09
-9.08362e-09
1.27812e-08
-1.35916e-09
1.32907e-08
1.38854e-08
2.89071e-09
2.09892e-08
-1.65597e-08
-1.3774e-08
-2.42061e-08
1.32776e-08
1.90574e-08
-1.40362e-08
2.68869e-09
-8.0837e-09
2.64726e-09
1.7585e-09
2.32563e-09
5.40938e-09
-6.57347e-11
5.78891e-09
-1.52193e-09
1.03901e-09
-1.53591e-09
-6.3877e-09
-1.58375e-09
-1.10332e-08
-2.65706e-09
-8.63654e-09
-3.77485e-09
3.95872e-10
-2.78637e-09
1.07728e-08
1.34351e-09
1.56158e-08
6.9143e-09
1.11148e-08
1.01003e-08
-6.30463e-10
7.60513e-09
-1.26202e-08
-5.28666e-10
-1.72678e-08
-1.01554e-08
-1.13021e-08
-1.52187e-08
1.97297e-09
-1.16968e-08
1.45935e-08
-6.47013e-10
1.88661e-08
1.18941e-08
1.21663e-08
1.83427e-08
-1.4607e-09
1.43011e-08
-1.38448e-08
1.5564e-09
-1.77058e-08
-1.26902e-08
-1.10198e-08
-2.00412e-08
1.94398e-09
-1.6023e-08
1.34092e-08
-2.87622e-09
1.68706e-08
1.17549e-08
1.08439e-08
1.94004e-08
-6.04693e-10
1.57964e-08
-1.06227e-08
3.30993e-09
-1.37297e-08
-1.06349e-08
-8.82709e-09
-1.80646e-08
6.0446e-10
-1.51135e-08
8.94498e-09
-4.04205e-09
1.18253e-08
8.43022e-09
8.38753e-09
1.52604e-08
1.27231e-09
1.31054e-08
-5.32729e-09
3.9108e-09
-8.14198e-09
-6.6476e-09
-6.37382e-09
-1.26859e-08
-1.63491e-09
-1.14014e-08
3.34711e-09
-4.28015e-09
6.28743e-09
4.21898e-09
6.27775e-09
9.45086e-09
3.8108e-09
9.09623e-09
2.01631e-10
4.05807e-09
-3.07936e-09
-2.49577e-09
-4.84935e-09
-7.11141e-09
-4.44595e-09
-7.81972e-09
-1.90397e-09
-4.82418e-09
1.90958e-09
1.8709e-12
5.39553e-09
4.27424e-09
6.77021e-09
6.20064e-09
4.98099e-09
5.1719e-09
5.16107e-10
1.78781e-09
-4.51085e-09
-2.48941e-09
-7.29629e-09
-5.85613e-09
-5.9399e-09
-6.77384e-09
-7.72337e-10
-4.59614e-09
5.53082e-09
-1.91892e-11
9.32339e-09
4.95601e-09
8.16009e-09
7.75736e-09
2.43441e-09
6.52198e-09
-4.64346e-09
1.31753e-09
-8.86582e-09
-5.46991e-09
-7.60069e-09
-1.0074e-08
-1.53065e-09
-9.39751e-09
5.6682e-09
-3.09833e-09
9.57096e-09
5.59837e-09
7.86263e-09
1.13628e-08
1.88462e-09
1.00498e-08
-4.11516e-09
2.13789e-09
-5.79068e-09
-6.73047e-09
-1.74405e-09
-9.75449e-09
4.69495e-09
-6.39236e-09
6.54073e-09
-6.52333e-09
-5.56496e-10
-3.4504e-08
-3.66359e-09
3.22187e-08
-7.80803e-09
1.24927e-08
-7.14973e-09
-6.36643e-09
2.65022e-09
-1.55051e-09
8.73449e-09
3.26883e-09
6.51282e-09
6.37633e-09
1.3658e-09
4.84079e-09
-2.64865e-09
-1.2588e-09
-4.49781e-09
-8.16113e-09
-4.87746e-09
-1.06301e-08
-4.33836e-09
-5.78022e-09
-2.54183e-09
4.36193e-09
9.92115e-10
1.36276e-08
5.58049e-09
1.56023e-08
8.96328e-09
8.07788e-09
8.44148e-09
-5.0469e-09
2.93654e-09
-1.58772e-08
-5.5717e-09
-1.74184e-08
-1.25446e-08
-8.15845e-09
-1.34098e-08
6.70552e-09
-6.64914e-09
1.8302e-08
4.68915e-09
1.95507e-08
1.43376e-08
9.5798e-09
1.64107e-08
-5.72076e-09
9.10824e-09
-1.73081e-08
-3.86417e-09
-1.84625e-08
-1.52118e-08
-8.75946e-09
-1.82893e-08
5.85772e-09
-1.11361e-08
1.68098e-08
2.24339e-09
1.80432e-08
1.41938e-08
9.42391e-09
1.79111e-08
-3.5607e-09
1.14188e-08
-1.33499e-08
-1.35976e-09
-1.47762e-08
-1.30132e-08
-7.78692e-09
-1.7024e-08
3.00796e-09
-1.14888e-08
1.13833e-08
1.48494e-12
1.31291e-08
1.07001e-08
8.11391e-09
1.47175e-08
-1.85939e-10
1.02944e-08
-7.0628e-09
4.9007e-10
-9.24664e-09
-8.89222e-09
-6.35803e-09
-1.27636e-08
-5.80245e-10
-9.50405e-09
4.90958e-09
-1.5302e-09
7.65984e-09
6.42626e-09
6.89831e-09
1.01266e-08
3.4693e-09
8.0481e-09
-8.87211e-10
1.87879e-09
-4.36052e-09
-4.76095e-09
-5.65145e-09
-8.43774e-09
-4.28138e-09
-7.62735e-09
-7.26774e-10
-3.21187e-09
3.62299e-09
2.29133e-09
6.82841e-09
6.15815e-09
7.16779e-09
6.73599e-09
4.08475e-09
4.02035e-09
-1.22236e-09
-5.62064e-10
-6.10348e-09
-4.89949e-09
-7.73698e-09
-7.07703e-09
-4.79574e-09
-6.10012e-09
1.49811e-09
-2.28992e-09
7.7647e-09
2.76194e-09
1.02847e-08
6.73039e-09
7.27457e-09
7.50807e-09
1.86393e-10
4.27599e-09
-6.92142e-09
-1.81042e-09
-9.73041e-09
-7.81705e-09
-6.35481e-09
-1.03005e-08
1.30599e-09
-7.27009e-09
8.57996e-09
2.63351e-10
1.08775e-08
8.30265e-09
6.71946e-09
1.20714e-08
-1.13279e-09
9.24269e-09
-7.26605e-09
1.73918e-09
-7.29566e-09
-6.39407e-09
-1.32586e-09
-1.41019e-08
5.3165e-09
-2.38099e-08
6.92803e-09
-4.24685e-08
6.79636e-09
3.13405e-08
-3.92182e-08
3.86512e-08
-1.71252e-08
8.96115e-10
-1.20226e-09
-2.78242e-09
1.0124e-08
5.74322e-10
1.14537e-08
3.25018e-09
6.56412e-09
4.3053e-09
3.07776e-10
2.87619e-09
-4.07365e-09
-8.11402e-10
-5.60587e-09
-4.55511e-09
-4.93531e-09
-5.39589e-09
-3.08796e-09
-1.98631e-09
-6.34586e-10
4.01738e-09
2.2248e-09
8.74275e-09
4.99524e-09
8.67725e-09
6.51084e-09
3.22448e-09
5.40358e-09
-4.59993e-09
1.22413e-09
-9.91913e-09
-4.65411e-09
-9.10794e-09
-9.25505e-09
-2.25907e-09
-9.56251e-09
6.67461e-09
-4.58498e-09
1.22458e-08
3.55304e-09
1.09406e-08
1.0458e-08
3.42697e-09
1.19358e-08
-5.83184e-09
6.63206e-09
-1.13222e-08
-2.85803e-09
-9.83743e-09
-1.12583e-08
-2.37648e-09
-1.36429e-08
6.55383e-09
-8.44344e-09
1.17342e-08
1.49021e-09
1.03651e-08
1.04944e-08
3.59402e-09
1.34117e-08
-4.39646e-09
8.62735e-09
-9.02282e-09
-1.00623e-09
-7.96703e-09
-9.89251e-09
-2.31139e-09
-1.30023e-08
4.39108e-09
-8.78267e-09
8.37277e-09
6.42461e-11
7.79231e-09
8.3175e-09
3.52506e-09
1.1356e-08
-1.68395e-09
7.77466e-09
-4.98837e-09
-4.40455e-12
-4.98873e-09
-7.34716e-09
-2.22399e-09
-1.01857e-08
1.47128e-09
-7.2761e-09
4.16781e-09
-6.806e-10
4.81721e-09
5.65958e-09
3.53317e-09
8.28457e-09
1.22377e-09
6.08795e-09
-1.02178e-09
6.95591e-10
-2.38882e-09
-4.70386e-09
-2.49201e-09
-7.25157e-09
-1.34688e-09
-5.90502e-09
6.67784e-10
-1.76086e-09
2.82658e-09
2.78986e-09
4.18558e-09
5.45166e-09
3.94396e-09
5.14179e-09
1.94264e-09
2.31667e-09
-1.02467e-09
-1.49091e-09
-3.42242e-09
-4.52099e-09
-3.74982e-09
-5.53381e-09
-1.5014e-09
-4.18728e-09
2.30887e-09
-1.05497e-09
5.53594e-09
2.60028e-09
6.11922e-09
5.21078e-09
3.44036e-09
5.43705e-09
-1.08881e-09
2.796e-09
-4.71425e-09
-1.84627e-09
-5.01078e-09
-6.32031e-09
-1.52381e-09
-8.03066e-09
3.70308e-09
-5.48819e-09
7.2555e-09
4.77308e-10
6.53972e-09
6.84798e-09
1.70681e-09
1.02032e-08
-4.18738e-09
8.64584e-09
-7.12121e-09
1.90921e-09
-5.05199e-09
-1.02941e-08
5.03768e-10
-2.48174e-08
5.9814e-09
-3.1524e-08
6.18792e-09
1.18502e-08
-5.17734e-08
4.24957e-08
-1.77954e-08
8.39021e-09
-5.969e-09
-2.14163e-10
4.10469e-09
1.45182e-09
9.99752e-09
1.2465e-09
1.02517e-08
1.117e-09
6.12079e-09
1.75964e-09
5.13174e-10
2.07711e-09
-3.81843e-09
1.20469e-09
-5.5976e-09
-4.14329e-10
-5.10701e-09
-1.45655e-09
-3.2923e-09
-8.86626e-10
-8.73668e-10
1.11871e-09
1.81578e-09
3.18499e-09
4.3637e-09
3.71471e-09
5.86633e-09
2.08409e-09
5.16204e-09
-8.17334e-10
1.71729e-09
-3.10773e-09
-3.49381e-09
-3.15111e-09
-7.97621e-09
-7.10435e-10
-8.93335e-09
2.79184e-09
-5.11964e-09
5.13821e-09
1.97725e-09
4.77129e-09
8.61703e-09
1.83679e-09
1.08534e-08
-1.88923e-09
6.97674e-09
-4.11937e-09
-1.20351e-09
-3.48501e-09
-9.17326e-09
-3.83377e-10
-1.22848e-08
3.28699e-09
-8.57908e-09
5.3261e-09
-6.63147e-11
4.59595e-09
8.38747e-09
1.66779e-09
1.19154e-08
-1.61821e-09
8.52864e-09
-3.33432e-09
2.7737e-10
-2.61405e-09
-7.99744e-09
-8.06417e-11
-1.15504e-08
2.64886e-09
-8.50991e-09
4.00831e-09
-8.80427e-10
3.39698e-09
6.77093e-09
1.41742e-09
1.00762e-08
-6.33215e-10
7.38701e-09
-1.6148e-09
5.79844e-10
-1.17844e-09
-6.22486e-09
1.68308e-10
-9.17085e-09
1.51351e-09
-6.85775e-09
2.14886e-09
-9.68969e-10
1.92995e-09
4.92004e-09
1.21571e-09
7.52069e-09
5.14952e-10
5.66104e-09
1.39245e-10
7.48859e-10
9.34864e-11
-4.26474e-09
2.17825e-10
-6.67437e-09
4.0162e-10
-5.4664e-09
6.6567e-10
-1.65444e-09
1.05575e-09
2.52422e-09
1.47729e-09
4.94478e-09
1.66594e-09
4.64905e-09
1.36637e-09
2.10888e-09
5.94896e-10
-1.26815e-09
-2.48987e-10
-3.9504e-09
-5.70501e-10
-4.9133e-09
4.54019e-12
-3.88246e-09
1.27035e-09
-1.28206e-09
2.45141e-09
1.92427e-09
2.66953e-09
4.44547e-09
1.59958e-09
5.02858e-09
-1.66585e-10
3.03409e-09
-1.3847e-09
-9.85016e-10
-9.81503e-10
-5.18691e-09
1.08401e-09
-7.19718e-09
3.55162e-09
-5.5248e-09
4.55672e-09
-6.57122e-10
2.9321e-09
5.01345e-09
-7.74507e-10
8.36058e-09
-4.48163e-09
6.61056e-09
-5.80569e-09
-1.86651e-09
-3.331e-09
-1.23097e-08
2.10487e-09
-6.30717e-09
8.16585e-10
-1.31954e-08
-3.11853e-08
1.53902e-08
-4.73354e-09
9.39336e-09
-6.96445e-09
3.2122e-09
-6.36397e-09
4.73858e-09
6.87539e-10
2.83559e-09
7.62643e-09
4.73402e-12
9.94665e-09
-1.38553e-09
7.15611e-09
-8.38602e-10
1.64445e-09
8.03221e-10
-3.51543e-09
2.26383e-09
-6.31371e-09
2.62558e-09
-6.33391e-09
1.81797e-09
-4.2479e-09
5.30126e-10
-1.03642e-09
-3.58407e-10
2.39951e-09
-3.92378e-10
5.17393e-09
2.43141e-10
6.30247e-09
9.65226e-10
4.95124e-09
1.25931e-09
1.0673e-09
1.02813e-09
-4.0783e-09
6.05983e-10
-8.06817e-09
4.35657e-10
-8.48335e-09
6.81411e-10
-4.47958e-09
1.10327e-09
2.3134e-09
1.28694e-09
8.36563e-09
1.00211e-09
1.01428e-08
3.9933e-10
6.26316e-09
-8.62823e-11
-1.44301e-09
-4.74429e-11
-8.76156e-09
5.77687e-10
-1.14638e-08
1.42062e-09
-7.8515e-09
1.91905e-09
1.2702e-10
1.71686e-09
7.93899e-09
9.25295e-10
1.11016e-08
5.56566e-11
7.82688e-09
-3.22794e-10
6.65858e-11
3.70414e-11
-7.64359e-09
8.93768e-10
-1.08768e-08
1.67864e-09
-7.90324e-09
1.87806e-09
-6.36396e-10
1.38001e-09
6.59145e-09
5.42498e-10
9.63365e-09
-5.90425e-11
6.93161e-09
-2.6254e-11
3.05573e-10
5.96594e-10
-6.2555e-09
1.36329e-09
-9.00887e-09
1.73844e-09
-6.60012e-09
1.46487e-09
-7.03311e-10
7.35633e-10
5.12849e-09
5.59788e-11
7.6174e-09
-1.04864e-10
5.60246e-09
3.68051e-10
5.30344e-10
1.16225e-09
-4.57686e-09
1.75532e-09
-6.94769e-09
1.76877e-09
-5.56039e-09
1.21501e-09
-1.50347e-09
4.69751e-10
2.85856e-09
5.33472e-12
5.29656e-09
7.98799e-11
4.8398e-09
5.94911e-10
2.05208e-09
1.20242e-09
-1.51857e-09
1.56341e-09
-4.23843e-09
1.56392e-09
-5.07792e-09
1.33342e-09
-3.85128e-09
1.07168e-09
-1.10842e-09
8.56763e-10
2.09941e-09
6.2133e-10
4.48987e-09
3.20322e-10
4.93043e-09
1.12665e-10
2.9561e-09
3.41664e-10
-7.9178e-10
1.24468e-09
-4.62691e-09
2.59482e-09
-6.59015e-09
3.60474e-09
-5.59595e-09
3.32935e-09
-2.12072e-09
1.36149e-09
2.06171e-09
-1.67991e-09
4.75756e-09
-4.13805e-09
4.62702e-09
-3.83741e-09
4.59014e-09
-2.50816e-10
1.98459e-08
-2.83616e-09
-2.82484e-08
1.44206e-08
-2.83491e-08
1.60682e-08
2.0256e-09
-1.77237e-09
3.29642e-09
-1.39876e-08
5.66857e-09
-1.15301e-08
5.90607e-09
-1.81544e-09
3.44002e-09
7.20881e-09
-6.08734e-10
1.09111e-08
-3.87398e-09
8.61863e-09
-4.31498e-09
2.62648e-09
-1.6144e-09
-3.6351e-09
2.58625e-09
-7.41235e-09
5.74151e-09
-7.636e-09
6.00794e-09
-4.873e-09
3.33007e-09
-6.05912e-10
-6.26359e-10
3.51712e-09
-3.56512e-09
6.13725e-09
-3.91436e-09
6.38679e-09
-1.66887e-09
4.04888e-09
1.7237e-09
-2.37548e-10
4.30445e-09
-4.90445e-09
4.7628e-09
-7.83452e-09
3.09214e-09
-7.30647e-09
4.2852e-10
-3.10735e-09
-1.71638e-09
2.98698e-09
-2.29867e-09
7.87983e-09
-1.22281e-09
8.76757e-09
7.41804e-10
4.82728e-09
2.4905e-09
-2.07405e-09
3.20632e-09
-8.21995e-09
2.71294e-09
-1.00903e-08
1.43114e-09
-6.46451e-09
6.30881e-11
7.39826e-10
-7.67454e-10
7.47735e-09
-7.60468e-10
9.89058e-09
-3.69273e-12
6.57932e-09
1.12154e-09
-5.50568e-10
2.11629e-09
-7.37362e-09
2.5497e-09
-9.96125e-09
2.21671e-09
-6.88251e-09
1.23491e-09
-2.17552e-11
3.57318e-11
6.57219e-09
-7.90725e-10
9.09287e-09
-7.72488e-10
6.19446e-09
1.69339e-10
-2.85179e-10
1.61164e-09
-6.49005e-09
2.79438e-09
-8.85419e-09
3.01543e-09
-6.16329e-09
2.05293e-09
-1.64792e-10
3.55757e-10
5.57187e-09
-1.15027e-09
7.80024e-09
-1.56928e-09
5.44232e-09
-5.74579e-10
7.62596e-11
1.34998e-09
-5.13576e-09
3.14395e-09
-7.34592e-09
3.76982e-09
-5.58578e-09
2.83101e-09
-1.12259e-09
8.24891e-10
3.4587e-09
-1.13003e-09
5.79645e-09
-1.93636e-09
4.96664e-09
-1.14559e-09
1.74606e-09
7.97436e-10
-2.05961e-09
2.82989e-09
-4.67328e-09
3.88842e-09
-5.13208e-09
3.48545e-09
-3.49743e-09
1.91043e-09
-6.01497e-10
-4.84492e-12
2.37409e-09
-1.3532e-09
4.29017e-09
-1.56279e-09
4.38919e-09
-5.78064e-10
2.57189e-09
1.19326e-09
-5.08312e-10
3.05986e-09
-3.69467e-09
4.26714e-09
-5.85836e-09
4.23051e-09
-6.32716e-09
2.79087e-09
-4.80586e-09
4.18793e-10
-9.39463e-10
-1.7333e-09
5.87165e-09
-2.09026e-09
1.57436e-08
-3.96325e-10
3.28892e-08
-2.2928e-09
-2.56455e-08
5.71612e-08
-5.92453e-08
3.07699e-08
-8.37146e-09
7.00685e-09
-1.11617e-09
-1.23702e-08
6.78746e-10
-1.78862e-08
5.54647e-09
-1.2522e-08
8.47004e-09
-2.09229e-09
6.00271e-09
7.48108e-09
-5.45571e-10
1.19275e-08
-6.80764e-09
9.96476e-09
-8.61059e-09
3.46121e-09
-4.63405e-09
-3.86835e-09
2.80599e-09
-8.52433e-09
9.24152e-09
-8.83311e-09
1.08354e-08
-5.33709e-09
6.69634e-09
-6.28891e-11
-6.62202e-10
4.62608e-09
-6.92732e-09
6.9805e-09
-8.56753e-09
6.32405e-09
-4.85445e-09
3.07316e-09
1.84338e-09
-1.49274e-09
7.5958e-09
-5.59199e-09
9.27321e-09
-7.46686e-09
6.26159e-09
-6.08901e-09
5.97891e-10
-1.81084e-09
-4.40808e-09
3.52706e-09
-6.11336e-09
7.30082e-09
-3.9251e-09
7.40684e-09
5.89446e-10
3.50538e-09
4.79847e-09
-2.57408e-09
6.55307e-09
-7.62471e-09
5.25823e-09
-8.78209e-09
1.96142e-09
-5.21901e-09
-1.43475e-09
1.2337e-09
-3.25066e-09
7.0067e-09
-2.81498e-09
8.79509e-09
-6.17449e-10
5.50163e-09
2.11524e-09
-1.05469e-09
4.09005e-09
-7.12479e-09
4.5066e-09
-9.19303e-09
3.30255e-09
-6.04647e-09
1.08754e-09
4.85201e-10
-1.14105e-09
6.58955e-09
-2.38482e-09
8.71173e-09
-2.03946e-09
5.64584e-09
-1.8101e-10
-7.67693e-10
2.38792e-09
-6.75317e-09
4.42513e-09
-8.83966e-09
4.81852e-09
-5.89199e-09
3.19933e-09
2.75321e-10
2.5543e-10
6.02902e-09
-2.50977e-09
8.08772e-09
-3.53133e-09
5.41196e-09
-2.08119e-09
-2.8943e-10
1.21619e-09
-5.67849e-09
4.61978e-09
-7.78945e-09
6.20259e-09
-5.68048e-09
4.97304e-09
-8.02829e-10
1.51118e-09
4.01843e-09
-2.29577e-09
6.27274e-09
-4.30474e-09
5.08318e-09
-3.35142e-09
1.45338e-09
6.29063e-11
-2.54297e-09
4.05196e-09
-4.99726e-09
6.43381e-09
-5.05363e-09
5.96845e-09
-3.0694e-09
3.00776e-09
-1.70292e-10
-7.79866e-10
2.40087e-09
-3.38726e-09
3.78577e-09
-3.54928e-09
3.70306e-09
-1.33837e-09
2.33768e-09
1.98841e-09
5.74947e-11
4.73426e-09
-2.78936e-09
5.6559e-09
-5.71435e-09
4.5544e-09
-7.47286e-09
2.30426e-09
-5.59395e-09
3.29586e-10
2.76435e-09
-3.11987e-10
1.59941e-08
5.51501e-11
2.72129e-08
6.15827e-10
-9.60742e-09
6.78398e-08
-5.36914e-08
2.73406e-08
-1.31007e-08
1.29909e-08
-6.58859e-09
-1.36675e-09
-8.49613e-09
-1.23868e-08
-1.15936e-09
-1.64215e-08
8.83051e-09
-1.23689e-08
1.34358e-08
-2.70787e-09
9.48704e-09
7.42609e-09
-4.29744e-10
1.28956e-08
-1.00494e-08
1.13432e-08
-1.32907e-08
4.25521e-09
-7.96976e-09
-4.21327e-09
2.83473e-09
-9.74773e-09
1.26754e-08
-1.00886e-08
1.57064e-08
-5.79483e-09
1.02095e-08
5.38118e-10
-4.60096e-10
5.82547e-09
-1.00143e-08
7.92614e-09
-1.30183e-08
6.34909e-09
-8.03555e-09
2.13726e-09
1.71282e-09
-2.78424e-09
1.04613e-08
-6.39452e-09
1.33864e-08
-7.25486e-09
9.28922e-09
-4.99592e-09
9.90367e-10
-5.32835e-10
-6.60727e-09
4.18741e-09
-9.43354e-09
6.94119e-09
-6.42295e-09
6.26095e-09
2.1253e-10
2.27248e-09
6.56257e-09
-3.17318e-09
9.34166e-09
-7.28097e-09
7.5541e-09
-7.74994e-09
2.69634e-09
-4.12053e-09
-2.39715e-09
1.80105e-09
-5.18872e-09
6.80179e-09
-4.64096e-09
8.0188e-09
-1.45426e-09
4.62204e-09
2.57021e-09
-1.5934e-09
5.53159e-09
-7.12649e-09
6.24891e-09
-8.75388e-09
4.60619e-09
-5.43736e-09
1.44429e-09
9.89295e-10
-1.83902e-09
6.82435e-09
-3.81103e-09
8.64431e-09
-3.53999e-09
5.33614e-09
-1.01614e-09
-1.20783e-09
2.71944e-09
-7.17889e-09
5.90494e-09
-9.09096e-09
6.83377e-09
-5.84098e-09
4.77694e-09
6.51144e-10
5.45617e-10
6.59509e-09
-3.73671e-09
8.58205e-09
-5.67373e-09
5.56965e-09
-3.95848e-09
-5.76883e-10
7.33965e-10
-6.27395e-09
5.94434e-09
-8.36676e-09
8.72958e-09
-5.90931e-09
7.37202e-09
-5.52908e-10
2.47068e-09
4.5881e-09
-3.2947e-09
6.80785e-09
-6.65903e-09
5.2609e-09
-5.66981e-09
1.19806e-09
-8.52788e-10
-3.00371e-09
5.07687e-09
-5.2881e-09
8.80429e-09
-4.92929e-09
8.3393e-09
-2.62453e-09
4.11159e-09
1.94885e-10
-1.37619e-09
2.28336e-09
-5.07039e-09
3.15285e-09
-5.11793e-09
3.00158e-09
-1.82213e-09
2.14905e-09
2.70336e-09
5.27675e-10
5.91859e-09
-2.11101e-09
6.4031e-09
-5.14784e-09
4.61205e-09
-6.04575e-09
2.25341e-09
-1.2764e-09
6.64557e-10
7.63655e-09
-1.90793e-10
8.62279e-09
2.63635e-09
8.08072e-09
3.7207e-08
-1.25282e-08
5.26293e-09
-7.3217e-09
1.07113e-08
-7.6908e-09
1.20315e-08
-1.50523e-08
2.91303e-09
-1.13011e-08
-9.09934e-09
8.70265e-10
-1.5964e-08
1.34795e-08
-1.36757e-08
1.86824e-08
-3.92899e-09
1.3057e-08
7.43158e-09
-2.76936e-10
1.40705e-08
-1.33294e-08
1.2771e-08
-1.80909e-08
4.91574e-09
-1.15027e-08
-4.76043e-09
2.59864e-09
-1.11223e-08
1.5828e-08
-1.13805e-08
2.03927e-08
-6.17406e-09
1.37625e-08
1.28586e-09
5.5036e-11
7.17428e-09
-1.26213e-08
8.96738e-09
-1.70644e-08
6.38731e-09
-1.11415e-08
1.13601e-09
1.22725e-09
-4.19017e-09
1.26881e-08
-7.31801e-09
1.69153e-08
-7.12664e-09
1.21273e-08
-3.91534e-09
1.72182e-09
8.17427e-10
-8.11227e-09
4.98738e-09
-1.20985e-08
6.73824e-09
-8.6917e-09
5.21958e-09
-5.07242e-10
1.03464e-09
7.60157e-09
-3.89863e-09
1.14396e-08
-7.13418e-09
9.59178e-09
-6.88912e-09
3.7442e-09
-3.07343e-09
-2.67269e-09
2.47537e-09
-6.47929e-09
6.81687e-09
-6.23846e-09
7.46427e-09
-2.60412e-09
3.84721e-09
2.36932e-09
-2.20404e-09
6.36563e-09
-7.34071e-09
7.77786e-09
-8.55332e-09
6.19044e-09
-4.96323e-09
2.38351e-09
1.53394e-09
-2.00856e-09
7.24954e-09
-5.06569e-09
8.81024e-09
-5.30391e-09
5.1769e-09
-2.37371e-09
-1.65446e-09
2.57915e-09
-7.75146e-09
7.21946e-09
-9.53764e-09
9.05301e-09
-5.92385e-09
6.78088e-09
1.01971e-09
1.23193e-09
7.26854e-09
-4.80449e-09
9.22454e-09
-7.95031e-09
5.83e-09
-6.16175e-09
-8.54387e-10
-8.54506e-11
-6.93771e-09
7.07477e-09
-9.03171e-09
1.1265e-08
-6.18522e-09
9.94325e-09
-2.88847e-10
3.67367e-09
5.20399e-09
-4.07256e-09
7.3687e-09
-8.88076e-09
5.41282e-09
-7.98131e-09
8.85857e-10
-1.90129e-09
-3.49228e-09
5.84532e-09
-5.5291e-09
1.0859e-08
-4.69266e-09
1.04536e-08
-2.08495e-09
5.1599e-09
5.59125e-10
-1.73605e-09
2.07132e-09
-6.26785e-09
2.41201e-09
-6.15905e-09
2.24237e-09
-2.02844e-09
1.95601e-09
3.25892e-09
1.1581e-09
6.61808e-09
-6.68147e-10
6.72656e-09
-2.81369e-09
4.47965e-09
-3.22753e-09
1.57239e-09
-2.46416e-09
-7.66453e-10
-1.04012e-08
2.09401e-09
1.68942e-08
-1.62734e-08
3.77983e-08
-2.25576e-08
5.36395e-09
2.64917e-10
-1.72247e-09
1.83878e-08
-1.20096e-08
1.84609e-08
-1.70297e-08
6.12479e-09
-1.17901e-08
-8.85736e-09
2.29139e-09
-1.75516e-08
1.72149e-08
-1.56011e-08
2.34686e-08
-4.94608e-09
1.65174e-08
7.81586e-09
1.67384e-11
1.54458e-08
-1.62748e-08
1.41541e-08
-2.25128e-08
5.38226e-09
-1.4854e-08
-5.51277e-09
2.16659e-09
-1.26078e-08
1.84393e-08
-1.26512e-08
2.44605e-08
-6.43211e-09
1.69839e-08
2.1799e-09
7.52864e-10
8.62175e-09
-1.46015e-08
1.00271e-08
-2.03912e-08
6.3805e-09
-1.38679e-08
6.93489e-11
5.34106e-10
-5.64594e-09
1.42211e-08
-8.26719e-09
1.96592e-08
-7.0102e-09
1.45465e-08
-2.84124e-09
2.64194e-09
2.17502e-09
-8.94184e-09
5.82709e-09
-1.40088e-08
6.61333e-09
-1.05725e-08
4.2691e-09
-1.4236e-09
-1.49806e-10
7.99204e-09
-4.65346e-09
1.28274e-08
-7.1015e-09
1.12672e-08
-6.17537e-09
4.96201e-09
-2.12209e-09
-2.38151e-09
3.17027e-09
-7.16266e-09
6.97035e-09
-7.54292e-09
7.09611e-09
-3.92287e-09
3.20288e-09
1.66608e-09
-2.81641e-09
6.67155e-09
-7.69001e-09
9.0482e-09
-8.54391e-09
7.90061e-09
-4.62666e-09
3.72198e-09
2.0721e-09
-1.75535e-09
7.79892e-09
-6.10812e-09
9.1557e-09
-7.15741e-09
5.14991e-09
-4.04162e-09
-2.08384e-09
2.09202e-09
-8.41775e-09
8.32503e-09
-1.01221e-08
1.1278e-08
-6.10361e-09
8.96817e-09
1.38047e-09
2.16933e-09
8.01106e-09
-5.66934e-09
9.95589e-09
-1.01457e-08
6.14024e-09
-8.42402e-09
-1.14165e-09
-1.07796e-09
-7.64377e-09
7.97401e-09
-9.72209e-09
1.35873e-08
-6.43961e-09
1.24032e-08
2.75293e-11
4.93295e-09
5.85055e-09
-4.61761e-09
7.89265e-09
-1.07693e-08
5.46579e-09
-1.00102e-08
4.7809e-10
-2.88133e-09
-3.99146e-09
6.38364e-09
-5.66725e-09
1.24506e-08
-4.30023e-09
1.2085e-08
-1.44556e-09
5.97e-09
9.05537e-10
-1.92425e-09
1.77337e-09
-6.94125e-09
1.64442e-09
-6.60266e-09
1.63525e-09
-1.90155e-09
2.16862e-09
3.72017e-09
2.40785e-09
6.88897e-09
1.04811e-09
6.35647e-09
-2.52328e-09
3.14575e-09
-8.16291e-09
-4.66723e-10
-1.94332e-08
-3.77864e-11
1.40899e-08
-5.87134e-08
6.36436e-08
-3.79472e-08
1.51305e-08
-1.19489e-08
8.38371e-09
1.28009e-08
1.78912e-09
2.35597e-08
-1.11999e-08
1.97172e-08
-1.94997e-08
5.66847e-09
-1.45902e-08
-1.02994e-08
1.85403e-09
-1.94598e-08
1.97634e-08
-1.71746e-08
2.76275e-08
-5.43849e-09
2.00036e-08
8.5842e-09
1.00302e-09
1.69221e-08
-1.81649e-08
1.53716e-08
-2.60668e-08
5.55199e-09
-1.80273e-08
-6.51634e-09
1.07302e-09
-1.4168e-08
1.98692e-08
-1.38047e-08
2.74549e-08
-6.47026e-09
1.98248e-08
3.25973e-09
1.9777e-09
1.01255e-08
-1.54418e-08
1.10124e-08
-2.26049e-08
6.24768e-09
-1.61296e-08
-1.08047e-09
-5.92869e-10
-7.09889e-09
1.46789e-08
-9.15442e-09
2.1297e-08
-6.83946e-09
1.64385e-08
-1.76666e-09
3.87387e-09
3.48895e-09
-8.83473e-09
6.63255e-09
-1.49091e-08
6.5135e-09
-1.19333e-08
3.40435e-09
-2.57045e-09
-1.24208e-09
7.56972e-09
-5.38093e-09
1.3298e-08
-7.14063e-09
1.24216e-08
-5.59665e-09
6.3069e-09
-1.28417e-09
-1.43405e-09
3.85216e-09
-7.05588e-09
7.22852e-09
-8.36052e-09
6.89102e-09
-5.29958e-09
2.68101e-09
4.25578e-10
-3.42119e-09
6.27349e-09
-8.14803e-09
9.82203e-09
-8.6871e-09
9.56211e-09
-4.38941e-09
5.45204e-09
2.62262e-09
-8.99539e-10
8.45647e-09
-6.65498e-09
9.62969e-09
-8.86655e-09
5.19026e-09
-5.97441e-09
-2.54034e-09
1.07334e-09
-9.17233e-09
8.89555e-09
-1.07841e-08
1.322e-08
-6.29413e-09
1.12533e-08
1.79886e-09
3.53417e-09
8.82745e-09
-5.98277e-09
1.07131e-08
-1.19305e-08
6.40285e-09
-1.06192e-08
-1.51459e-09
-2.39269e-09
-8.40082e-09
8.29972e-09
-1.03733e-08
1.53483e-08
-6.57344e-09
1.45833e-08
4.69722e-10
6.33944e-09
6.53396e-09
-4.64281e-09
8.32304e-09
-1.20039e-08
5.34647e-09
-1.15674e-08
-6.42649e-11
-3.81499e-09
-4.49143e-09
6.49884e-09
-5.67583e-09
1.33389e-08
-3.75226e-09
1.30736e-08
-7.37478e-10
6.52199e-09
1.22885e-09
-1.85684e-09
1.49362e-09
-6.99635e-09
1.1027e-09
-6.42093e-09
1.46657e-09
-1.5024e-09
2.63946e-09
3.90866e-09
2.74104e-09
6.32533e-09
-7.62849e-10
4.78542e-09
-7.79973e-09
1.16727e-09
-1.61447e-08
-1.52015e-09
4.78939e-09
-6.46811e-08
4.87411e-08
-3.00579e-08
1.35138e-08
-1.73373e-08
1.56664e-08
-1.27007e-09
1.946e-08
1.40292e-08
6.17955e-09
2.2167e-08
-1.36528e-08
1.85294e-08
-2.48896e-08
4.68621e-09
-1.93324e-08
-1.15418e-08
6.68778e-11
-2.08151e-08
2.1569e-08
-1.80528e-08
3.18684e-08
-5.36763e-09
2.4342e-08
9.53281e-09
3.17798e-09
1.81395e-08
-1.91465e-08
1.60744e-08
-2.94595e-08
5.26596e-09
-2.18643e-08
-7.65491e-09
-1.16583e-09
-1.54862e-08
2.02527e-08
-1.45e-08
3.00225e-08
-6.11829e-09
2.30567e-08
4.44054e-09
4.18149e-09
1.14112e-08
-1.52358e-08
1.16263e-08
-2.42502e-08
5.83409e-09
-1.85862e-08
-2.25542e-09
-2.55865e-09
-8.33022e-09
1.41075e-08
-9.73497e-09
2.22555e-08
-6.47218e-09
1.83462e-08
-7.12707e-10
5.78349e-09
4.60598e-09
-7.77315e-09
7.21031e-09
-1.51001e-08
6.30201e-09
-1.32071e-08
2.60041e-09
-4.28648e-09
-2.15852e-09
6.24203e-09
-5.93805e-09
1.30209e-08
-7.1145e-09
1.33837e-08
-5.07839e-09
8.10331e-09
-5.74884e-10
3.45269e-10
4.42306e-09
-6.20284e-09
7.45004e-09
-8.92899e-09
6.72475e-09
-7.05848e-09
2.23378e-09
-1.61556e-09
-3.9587e-09
5.09518e-09
-8.56472e-09
1.02594e-08
-8.81048e-09
1.15063e-08
-4.14572e-09
7.92056e-09
3.16004e-09
7.41709e-10
9.06636e-09
-6.79808e-09
1.0021e-08
-1.07694e-08
5.14575e-09
-8.58939e-09
-3.0268e-09
-7.48291e-10
-9.85781e-09
8.96481e-09
-1.12876e-08
1.52131e-08
-6.31195e-09
1.40952e-08
2.29907e-09
5.65515e-09
9.56556e-09
-5.73399e-09
1.12533e-08
-1.36206e-08
6.42355e-09
-1.32114e-08
-2.00805e-09
-4.37901e-09
-9.06863e-09
8.00872e-09
-1.07582e-08