/*--------------------------------*- C++ -*----------------------------------*\
| =========                 |                                                 |
| \\      /  F ield         | OpenFOAM: The Open Source CFD Toolbox           |
|  \\    /   O peration     | Version:  2412                                  |
|   \\  /    A nd           | Website:  www.openfoam.com                      |
|    \\/     M anipulation  |                                                 |
\*---------------------------------------------------------------------------*/
FoamFile
{
    version     2.0;
    format      ascii;
    arch        "LSB;label=32;scalar=64";
    class       volScalarField;
    location    "9.1";
    object      p;
}
// * * * * * * * * * * * * * * * * * * * * * * * * * * * * * * * * * * * * * //

dimensions      [1 -1 -2 0 0 0 0];

internalField   nonuniform List<scalar> 
6400
(
7113.48
7113.33
7113.07
7112.76
7112.4
7112.02
7111.65
7111.31
7111.03
7110.81
7110.68
7110.66
7110.74
7110.94
7111.26
7111.67
7112.17
7112.75
7113.37
7114.03
7114.69
7115.33
7115.94
7116.49
7116.98
7117.39
7117.72
7117.97
7118.14
7118.23
7118.27
7118.25
7118.19
7118.11
7118.02
7117.93
7117.85
7117.79
7117.76
7117.77
7117.8
7117.87
7117.97
7118.09
7118.21
7118.33
7118.43
7118.51
7118.53
7118.49
7118.38
7118.18
7117.89
7117.5
7117.02
7116.45
7115.79
7115.07
7114.3
7113.5
7112.7
7111.92
7111.18
7110.52
7109.95
7109.5
7109.17
7108.97
7108.9
7108.97
7109.14
7109.42
7109.77
7110.17
7110.61
7111.04
7111.45
7111.8
7112.09
7112.26
6750.65
6750.47
6750.2
6749.85
6749.47
6749.07
6748.68
6748.31
6748
6747.77
6747.62
6747.59
6747.67
6747.86
6748.18
6748.61
6749.12
6749.71
6750.36
6751.03
6751.71
6752.37
6753
6753.56
6754.06
6754.48
6754.81
6755.06
6755.22
6755.31
6755.33
6755.3
6755.23
6755.14
6755.03
6754.93
6754.84
6754.77
6754.74
6754.74
6754.78
6754.86
6754.96
6755.09
6755.23
6755.36
6755.48
6755.57
6755.6
6755.58
6755.47
6755.28
6754.99
6754.61
6754.12
6753.53
6752.87
6752.13
6751.33
6750.51
6749.69
6748.88
6748.13
6747.45
6746.86
6746.4
6746.07
6745.87
6745.82
6745.9
6746.09
6746.39
6746.77
6747.2
6747.66
6748.12
6748.55
6748.94
6749.25
6749.44
6387.89
6387.7
6387.38
6387
6386.56
6386.11
6385.67
6385.26
6384.91
6384.64
6384.46
6384.41
6384.48
6384.68
6385
6385.45
6386
6386.63
6387.31
6388.03
6388.75
6389.45
6390.1
6390.7
6391.21
6391.64
6391.98
6392.22
6392.37
6392.44
6392.44
6392.39
6392.29
6392.17
6392.03
6391.91
6391.8
6391.72
6391.68
6391.68
6391.72
6391.81
6391.93
6392.08
6392.24
6392.4
6392.55
6392.67
6392.73
6392.73
6392.65
6392.47
6392.19
6391.8
6391.3
6390.69
6390
6389.22
6388.39
6387.52
6386.64
6385.79
6384.99
6384.27
6383.66
6383.18
6382.84
6382.65
6382.61
6382.72
6382.95
6383.29
6383.72
6384.2
6384.71
6385.23
6385.72
6386.15
6386.5
6386.71
6025.23
6025.01
6024.64
6024.18
6023.68
6023.15
6022.63
6022.15
6021.74
6021.41
6021.19
6021.1
6021.16
6021.36
6021.71
6022.19
6022.79
6023.48
6024.23
6025.01
6025.8
6026.56
6027.27
6027.9
6028.45
6028.89
6029.23
6029.47
6029.6
6029.64
6029.61
6029.51
6029.37
6029.2
6029.03
6028.86
6028.73
6028.62
6028.57
6028.57
6028.62
6028.72
6028.87
6029.05
6029.25
6029.46
6029.65
6029.82
6029.93
6029.96
6029.91
6029.76
6029.49
6029.09
6028.58
6027.94
6027.2
6026.37
6025.47
6024.53
6023.58
6022.65
6021.78
6020.99
6020.33
6019.82
6019.46
6019.27
6019.26
6019.4
6019.7
6020.1
6020.61
6021.17
6021.77
6022.36
6022.93
6023.44
6023.85
6024.09
5662.69
5662.41
5661.96
5661.41
5660.8
5660.18
5659.56
5658.98
5658.47
5658.06
5657.78
5657.65
5657.69
5657.9
5658.29
5658.82
5659.49
5660.27
5661.12
5662
5662.88
5663.72
5664.5
5665.2
5665.78
5666.25
5666.59
5666.81
5666.92
5666.92
5666.83
5666.67
5666.47
5666.24
5666.01
5665.8
5665.61
5665.48
5665.41
5665.4
5665.46
5665.59
5665.77
5666
5666.26
5666.53
5666.79
5667.02
5667.19
5667.29
5667.28
5667.16
5666.91
5666.51
5665.97
5665.3
5664.49
5663.58
5662.59
5661.54
5660.48
5659.44
5658.47
5657.6
5656.86
5656.29
5655.91
5655.72
5655.74
5655.94
5656.32
5656.82
5657.43
5658.11
5658.82
5659.53
5660.2
5660.82
5661.32
5661.61
5300.29
5299.94
5299.37
5298.69
5297.95
5297.2
5296.45
5295.74
5295.1
5294.58
5294.21
5294.02
5294.04
5294.27
5294.7
5295.32
5296.09
5296.99
5297.96
5298.98
5299.98
5300.94
5301.82
5302.59
5303.23
5303.73
5304.08
5304.28
5304.34
5304.28
5304.12
5303.89
5303.6
5303.29
5302.98
5302.69
5302.45
5302.28
5302.18
5302.16
5302.24
5302.39
5302.62
5302.91
5303.25
5303.6
5303.96
5304.28
5304.54
5304.71
5304.77
5304.69
5304.46
5304.07
5303.5
5302.77
5301.89
5300.88
5299.76
5298.57
5297.36
5296.17
5295.06
5294.05
5293.21
5292.57
5292.15
5291.97
5292.03
5292.31
5292.79
5293.43
5294.19
5295.01
5295.87
5296.72
5297.54
5298.29
5298.92
5299.3
4938.08
4937.63
4936.91
4936.05
4935.12
4934.2
4933.27
4932.39
4931.6
4930.94
4930.45
4930.18
4930.17
4930.42
4930.92
4931.64
4932.56
4933.62
4934.77
4935.95
4937.13
4938.24
4939.25
4940.11
4940.82
4941.35
4941.7
4941.87
4941.88
4941.74
4941.49
4941.15
4940.75
4940.33
4939.92
4939.54
4939.23
4939
4938.86
4938.84
4938.93
4939.12
4939.41
4939.79
4940.22
4940.68
4941.15
4941.59
4941.97
4942.24
4942.39
4942.38
4942.18
4941.79
4941.2
4940.4
4939.42
4938.27
4936.98
4935.62
4934.21
4932.83
4931.52
4930.35
4929.36
4928.62
4928.15
4927.96
4928.08
4928.47
4929.1
4929.91
4930.85
4931.85
4932.91
4933.94
4934.97
4935.93
4936.73
4937.22
4576.18
4575.63
4574.69
4573.61
4572.4
4571.1
4569.9
4568.85
4567.92
4567.07
4566.43
4566.07
4566.03
4566.31
4566.9
4567.77
4568.87
4570.14
4571.52
4572.94
4574.33
4575.63
4576.8
4577.79
4578.58
4579.15
4579.5
4579.63
4579.56
4579.32
4578.95
4578.47
4577.93
4577.37
4576.82
4576.33
4575.92
4575.62
4575.44
4575.4
4575.51
4575.75
4576.12
4576.6
4577.16
4577.76
4578.38
4578.97
4579.49
4579.91
4580.17
4580.24
4580.1
4579.72
4579.09
4578.21
4577.1
4575.78
4574.29
4572.69
4571.03
4569.39
4567.83
4566.44
4565.27
4564.38
4563.83
4563.65
4563.82
4564.35
4565.17
4566.19
4567.29
4568.48
4569.82
4571.3
4572.68
4573.85
4574.89
4575.46
4214.75
4214.09
4212.88
4211.19
4209.24
4207.36
4205.89
4204.81
4203.85
4202.88
4202.08
4201.61
4201.53
4201.86
4202.58
4203.65
4205
4206.56
4208.23
4209.94
4211.61
4213.16
4214.53
4215.67
4216.56
4217.17
4217.51
4217.58
4217.41
4217.04
4216.5
4215.85
4215.13
4214.39
4213.67
4213.03
4212.5
4212.1
4211.87
4211.82
4211.95
4212.25
4212.72
4213.33
4214.04
4214.83
4215.64
4216.42
4217.14
4217.72
4218.13
4218.32
4218.25
4217.89
4217.22
4216.25
4214.98
4213.45
4211.7
4209.81
4207.83
4205.86
4203.98
4202.28
4200.86
4199.79
4199.13
4198.93
4199.18
4199.87
4200.89
4202.08
4203.22
4204.39
4206.01
4208.13
4210.32
4212.19
4213.53
4214.23
3854.03
3853.2
3851.36
3848.62
3845.53
3842.82
3841.02
3840.05
3839.22
3838.19
3837.25
3836.66
3836.56
3836.98
3837.89
3839.23
3840.91
3842.83
3844.89
3846.98
3849
3850.85
3852.47
3853.8
3854.81
3855.47
3855.78
3855.77
3855.47
3854.92
3854.18
3853.3
3852.35
3851.38
3850.46
3849.63
3848.94
3848.43
3848.13
3848.05
3848.21
3848.59
3849.18
3849.95
3850.86
3851.87
3852.92
3853.95
3854.9
3855.71
3856.32
3856.66
3856.69
3856.36
3855.66
3854.57
3853.11
3851.32
3849.26
3846.99
3844.6
3842.21
3839.91
3837.83
3836.08
3834.75
3833.94
3833.69
3834.01
3834.87
3836.09
3837.4
3838.43
3839.46
3841.42
3844.36
3847.79
3850.83
3852.86
3853.75
3494.29
3493.16
3490.37
3486.35
3481.9
3478.14
3475.8
3474.73
3473.91
3472.84
3471.76
3471.08
3470.99
3471.55
3472.72
3474.42
3476.55
3478.95
3481.51
3484.07
3486.53
3488.77
3490.7
3492.26
3493.4
3494.1
3494.38
3494.25
3493.77
3492.99
3491.99
3490.82
3489.58
3488.33
3487.14
3486.08
3485.2
3484.55
3484.16
3484.05
3484.24
3484.72
3485.46
3486.43
3487.58
3488.87
3490.22
3491.56
3492.82
3493.91
3494.76
3495.32
3495.48
3495.21
3494.46
3493.25
3491.57
3489.46
3487
3484.26
3481.37
3478.43
3475.6
3473.02
3470.82
3469.15
3468.1
3467.76
3468.14
3469.17
3470.61
3472.06
3473.27
3474.26
3476.89
3480.9
3485.69
3490.06
3493.11
3494.33
3135.78
3134.19
3130.48
3125.27
3119.46
3114.42
3111.04
3109.29
3108.06
3106.7
3105.42
3104.64
3104.61
3105.39
3106.94
3109.15
3111.85
3114.89
3118.08
3121.26
3124.27
3126.99
3129.3
3131.12
3132.42
3133.16
3133.37
3133.09
3132.37
3131.3
3129.95
3128.43
3126.82
3125.22
3123.7
3122.35
3121.23
3120.39
3119.9
3119.76
3119.99
3120.57
3121.5
3122.72
3124.18
3125.81
3127.53
3129.26
3130.9
3132.35
3133.51
3134.39
3134.7
3134.5
3133.74
3132.37
3130.42
3127.94
3124.98
3121.67
3118.13
3114.51
3110.99
3107.75
3104.97
3102.81
3101.43
3100.94
3101.35
3102.56
3104.3
3106.13
3107.84
3109.9
3113.58
3118.9
3124.99
3130.54
3134.52
3136.22
2778.69
2776.55
2771.97
2765.66
2758.5
2751.89
2746.99
2743.88
2741.61
2739.59
2737.96
2737.08
2737.18
2738.3
2740.39
2743.27
2746.75
2750.61
2754.62
2758.57
2762.28
2765.58
2768.35
2770.5
2771.98
2772.76
2772.87
2772.36
2771.33
2769.88
2768.1
2766.13
2764.07
2762.02
2760.1
2758.38
2756.96
2755.91
2755.27
2755.09
2755.36
2756.09
2757.24
2758.77
2760.6
2762.65
2764.83
2767.05
2769.17
2771.09
2772.68
2773.84
2774.43
2774.36
2773.58
2772.06
2769.79
2766.84
2763.29
2759.26
2754.91
2750.43
2746.03
2741.93
2738.37
2735.57
2733.72
2732.96
2733.34
2734.78
2737.01
2739.64
2742.56
2746.25
2751.58
2758.48
2765.9
2772.54
2777.38
2779.62
2423.16
2420.45
2414.96
2407.29
2398.49
2390.03
2383.13
2378.04
2374.19
2371.16
2369.04
2368.07
2368.39
2370.03
2372.85
2376.65
2381.15
2386.07
2391.12
2396.05
2400.63
2404.66
2407.99
2410.53
2412.2
2413
2412.95
2412.16
2410.72
2408.77
2406.46
2403.92
2401.3
2398.71
2396.29
2394.13
2392.34
2391
2390.19
2389.94
2390.28
2391.18
2392.61
2394.51
2396.8
2399.37
2402.12
2404.92
2407.65
2410.15
2412.26
2413.86
2414.78
2414.91
2414.14
2412.44
2409.8
2406.29
2402
2397.09
2391.73
2386.16
2380.63
2375.43
2370.84
2367.15
2364.63
2363.47
2363.77
2365.47
2368.36
2372.2
2376.88
2382.74
2390.23
2399.1
2408.24
2416.14
2421.85
2424.67
2069.23
2065.86
2059.12
2049.67
2038.72
2027.86
2018.42
2010.9
2005.14
2000.91
1998.22
1997.18
1997.89
2000.26
2004.11
2009.13
2014.96
2021.24
2027.62
2033.77
2039.42
2044.35
2048.36
2051.35
2053.24
2054.03
2053.77
2052.57
2050.61
2048.04
2045.04
2041.79
2038.49
2035.25
2032.22
2029.51
2027.26
2025.57
2024.54
2024.21
2024.62
2025.74
2027.51
2029.88
2032.72
2035.92
2039.34
2042.89
2046.36
2049.58
2052.35
2054.53
2055.9
2056.29
2055.59
2053.69
2050.61
2046.4
2041.22
2035.24
2028.63
2021.69
2014.72
2008.09
2002.14
1997.26
1993.82
1992.08
1992.19
1994.16
1997.85
2003.13
2009.96
2018.44
2028.63
2039.99
2051.27
2060.98
2067.95
2071.41
1717.21
1713
1704.53
1692.61
1678.68
1664.63
1652.01
1641.65
1633.74
1628.19
1624.93
1623.93
1625.21
1628.6
1633.84
1640.5
1648.09
1656.12
1664.17
1671.85
1678.82
1684.83
1689.65
1693.18
1695.32
1696.05
1695.47
1693.73
1691.08
1687.71
1683.85
1679.76
1675.61
1671.57
1667.83
1664.46
1661.63
1659.5
1658.18
1657.75
1658.24
1659.62
1661.83
1664.76
1668.29
1672.25
1676.51
1680.93
1685.32
1689.45
1693.08
1695.96
1697.94
1698.72
1698.13
1696.05
1692.44
1687.39
1681.06
1673.86
1665.66
1657
1648.22
1639.74
1632.01
1625.54
1620.81
1618.24
1618.04
1620.29
1624.83
1631.74
1641.02
1652.6
1666.13
1680.77
1695.04
1707.19
1715.82
1720.1
1367.32
1362.01
1351.22
1335.95
1318.09
1299.9
1283.33
1269.58
1259.21
1252.23
1248.38
1247.56
1249.6
1254.41
1261.58
1270.45
1280.36
1290.66
1300.83
1310.39
1319.01
1326.34
1332.17
1336.35
1338.76
1339.37
1338.3
1335.8
1332.28
1327.94
1323.06
1317.89
1312.72
1307.69
1303.03
1298.86
1295.32
1292.63
1290.93
1290.37
1290.96
1292.67
1295.41
1299.05
1303.4
1308.3
1313.49
1319.01
1324.54
1329.82
1334.57
1338.48
1341.15
1342.47
1342.11
1339.84
1335.6
1329.52
1321.83
1312.97
1302.87
1292.1
1281.04
1270.17
1260.06
1251.39
1244.87
1241.16
1240.62
1243.12
1248.52
1257.29
1269.49
1284.79
1302.47
1321.33
1339.5
1354.84
1365.61
1370.9
1020.46
1013.79
999.906
980.004
956.695
932.934
911.292
893.334
880.015
871.57
867.439
866.469
869.495
876.311
886.185
898.138
911.212
924.575
937.526
949.526
960.185
969.177
976.158
981.163
983.921
984.328
982.556
978.874
974.272
968.619
962.369
955.926
949.593
943.541
937.811
932.584
928.122
924.701
922.532
921.788
922.505
924.628
928.048
932.596
937.982
943.861
950.289
957.063
963.946
970.65
976.816
981.999
985.673
987.875
987.89
985.39
980.347
973.013
963.677
952.648
940.191
926.707
912.643
898.575
885.234
873.516
864.477
859.187
858.273
861.303
867.19
878.179
894.103
914.135
937.189
961.703
985.138
1004.72
1018.14
1024.54
678.09
670.245
652.272
625.911
595.215
563.913
535.275
511.499
494.311
484.307
479.559
477.532
481.891
491.948
506.141
522.791
540.477
558.093
574.793
589.933
603.126
614.118
622.349
628.316
631.421
631.44
628.717
624.403
617.855
610.308
602.26
594.135
586.269
579.039
571.99
565.398
559.7
555.318
552.53
551.552
552.425
555.06
559.339
565.107
571.895
578.811
586.762
595.21
603.84
612.388
620.46
627.484
632.773
635.473
636.16
633.501
627.527
618.649
607.25
593.663
578.188
561.163
543.028
524.436
506.281
489.792
476.628
468.792
468.045
473.919
479.198
493.131
513.958
540.419
570.648
602.66
633.12
658.471
675.149
682.3
338.863
331.213
309.948
278.288
243.051
208.758
178.187
154.11
138.836
131.095
128.947
131.208
137.752
148.456
162.458
178.539
195.585
212.76
229.258
244.318
257.461
268.351
276.674
282.181
284.759
284.299
280.686
275.744
268.599
260.297
251.472
242.592
234.079
226.676
220.014
213.866
208.561
204.589
202.124
201.249
201.936
204.088
207.659
212.612
218.354
224.746
232.781
241.804
251.407
261.109
270.355
278.489
284.728
287.765
290.204
288.144
282.553
273.546
261.843
248.158
232.866
216.304
198.824
181.106
163.878
147.999
134.739
125.564
121.52
122.28
128.107
139.964
159.27
186.011
217.602
252.343
286.985
316.752
335.923
342.747
83.1748
80.5674
67.1017
48.3812
30.9555
16.7539
5.86202
-1.40609
-5.06919
-6.30849
-6.18458
-5.13521
-3.40126
-0.782
2.99074
8.00616
14.1051
20.982
28.1221
34.8929
40.9277
45.9724
49.6942
51.73
52.4783
52.1067
50.19
47.3933
43.7724
39.6434
35.319
31.0134
26.9434
23.612
20.9373
18.5412
16.5949
15.2326
14.4188
14.1363
14.353
15.0213
16.1657
17.8079
19.6919
22.0294
25.5033
29.6732
34.394
39.3269
44.1249
48.4209
51.9003
54.5425
55.9688
55.1767
52.9725
48.7135
43.1287
36.7046
29.8969
22.8495
15.7626
9.17415
3.45288
-1.15737
-4.45173
-6.36711
-7.15488
-7.25274
-6.57856
-4.54715
0.44688
8.89355
20.4591
35.4155
53.1364
70.7806
82.7816
85.6521
-8.19287
-8.85327
-9.3411
-9.562
-9.65391
-9.76966
-9.83581
-9.72437
-9.5256
-9.42392
-9.42007
-9.4883
-9.61029
-9.75442
-9.88986
-9.99142
-10.055
-10.0982
-10.1364
-10.1714
-10.2016
-10.2311
-10.2656
-10.2987
-10.3175
-10.3068
-10.2804
-10.2534
-10.2282
-10.2044
-10.1776
-10.1492
-10.1187
-10.0854
-10.0695
-10.0674
-10.0723
-10.1105
-10.1579
-10.2044
-10.2501
-10.2667
-10.2444
-10.1909
-10.12
-10.054
-10.0308
-10.0715
-10.1329
-10.1669
-10.1822
-10.2003
-10.2271
-10.2489
-10.2653
-10.2599
-10.2132
-10.1824
-10.1613
-10.128
-10.0769
-10.0113
-9.94449
-9.88839
-9.84826
-9.82634
-9.82009
-9.82447
-9.83614
-9.86972
-9.93731
-10.0307
-10.1126
-10.1013
-9.99684
-9.84545
-9.62831
-9.2292
-8.58677
-8.1371
-10.515
-10.7382
-10.6761
-10.5683
-10.5078
-10.4788
-10.43
-10.2859
-10.1055
-10.0048
-9.98847
-10.0691
-10.2145
-10.3487
-10.4454
-10.5062
-10.5441
-10.5725
-10.5993
-10.6278
-10.6579
-10.6879
-10.7164
-10.7424
-10.7598
-10.7628
-10.7489
-10.7286
-10.7079
-10.6868
-10.6649
-10.6467
-10.6315
-10.6079
-10.5822
-10.5619
-10.5368
-10.5517
-10.6091
-10.6847
-10.7499
-10.7862
-10.7768
-10.7292
-10.656
-10.5851
-10.5623
-10.6086
-10.6559
-10.6705
-10.6752
-10.6946
-10.7156
-10.7266
-10.7216
-10.6869
-10.6475
-10.6225
-10.5982
-10.5768
-10.5591
-10.5239
-10.4728
-10.4189
-10.3749
-10.3464
-10.3315
-10.3275
-10.3366
-10.3587
-10.3863
-10.444
-10.527
-10.5807
-10.6126
-10.6183
-10.5703
-10.554
-10.6068
-10.6107
-11.1471
-11.2412
-11.2273
-11.167
-11.1132
-11.0878
-11.0406
-10.9509
-10.8313
-10.6999
-10.6639
-10.7219
-10.8307
-10.9187
-10.9789
-11.0223
-11.0612
-11.0989
-11.1305
-11.1533
-11.1703
-11.1851
-11.2014
-11.2173
-11.232
-11.2386
-11.2329
-11.2203
-11.2058
-11.1889
-11.1684
-11.1475
-11.1299
-11.1113
-11.0904
-11.075
-11.0721
-11.1078
-11.1778
-11.2485
-11.3012
-11.3289
-11.3251
-11.2871
-11.2183
-11.1399
-11.1034
-11.134
-11.1732
-11.156
-11.1416
-11.1578
-11.1858
-11.2243
-11.2269
-11.1683
-11.1422
-11.1616
-11.1776
-11.1731
-11.1345
-11.0743
-11.0067
-10.9435
-10.895
-10.8652
-10.85
-10.8476
-10.8579
-10.8718
-10.8775
-10.9166
-11.01
-11.1054
-11.1588
-11.1899
-11.1857
-11.1526
-11.143
-11.1581
-11.7237
-11.7901
-11.76
-11.7325
-11.7311
-11.7872
-11.8055
-11.7513
-11.6079
-11.4561
-11.3942
-11.4194
-11.4594
-11.5043
-11.5399
-11.5642
-11.5866
-11.6113
-11.634
-11.6514
-11.6659
-11.682
-11.6975
-11.711
-11.7201
-11.7252
-11.7263
-11.7243
-11.7187
-11.7064
-11.6872
-11.6603
-11.6334
-11.6124
-11.5928
-11.5811
-11.6066
-11.6799
-11.7694
-11.8369
-11.8895
-11.9212
-11.923
-11.8882
-11.8237
-11.7418
-11.6762
-11.6689
-11.6819
-11.6402
-11.6185
-11.6265
-11.6664
-11.7281
-11.7503
-11.7234
-11.7249
-11.7559
-11.7715
-11.7527
-11.7004
-11.6259
-11.5479
-11.4817
-11.4361
-11.4134
-11.408
-11.4126
-11.4225
-11.4338
-11.45
-11.4732
-11.5393
-11.6289
-11.686
-11.7364
-11.782
-11.7712
-11.7045
-11.6733
-12.2226
-12.2618
-12.25
-12.2703
-12.3456
-12.5151
-12.5933
-12.5113
-12.3271
-12.1645
-12.0993
-12.0841
-12.0716
-12.0792
-12.0911
-12.0979
-12.1068
-12.123
-12.1413
-12.1566
-12.1689
-12.18
-12.1905
-12.1999
-12.2072
-12.2117
-12.2126
-12.211
-12.2092
-12.2057
-12.1958
-12.1763
-12.1501
-12.1267
-12.1115
-12.102
-12.1442
-12.2497
-12.3521
-12.4179
-12.4687
-12.5088
-12.5175
-12.484
-12.4178
-12.3358
-12.242
-12.178
-12.1465
-12.111
-12.0933
-12.1027
-12.1507
-12.2181
-12.2676
-12.3009
-12.3408
-12.3724
-12.3719
-12.3342
-12.2676
-12.1836
-12.1046
-12.0447
-12.0071
-11.9909
-11.9945
-12.0089
-12.0252
-12.0394
-12.0532
-12.0747
-12.118
-12.1739
-12.2125
-12.2411
-12.2785
-12.301
-12.2404
-12.1799
-12.6514
-12.6668
-12.6827
-12.7425
-12.8614
-13.0682
-13.1855
-13.1062
-12.9312
-12.8087
-12.7475
-12.7016
-12.6667
-12.65
-12.6415
-12.6318
-12.6267
-12.6328
-12.6435
-12.6542
-12.6644
-12.6747
-12.6848
-12.6942
-12.7022
-12.7079
-12.7104
-12.7103
-12.7076
-12.704
-12.6983
-12.6877
-12.671
-12.6528
-12.6436
-12.6434
-12.6888
-12.8066
-12.9197
-12.9865
-13.0329
-13.0751
-13.0898
-13.0535
-12.974
-12.8764
-12.7681
-12.6472
-12.5758
-12.5616
-12.5636
-12.5881
-12.6384
-12.7114
-12.7925
-12.8696
-12.9293
-12.9536
-12.9393
-12.8937
-12.8239
-12.7435
-12.6782
-12.6359
-12.6126
-12.6059
-12.6162
-12.64
-12.6688
-12.694
-12.7121
-12.7281
-12.7486
-12.7683
-12.7721
-12.7592
-12.7511
-12.7597
-12.7245
-12.6624
-13.0628
-13.0648
-13.0953
-13.1649
-13.2826
-13.4276
-13.5555
-13.5293
-13.4331
-13.3709
-13.3297
-13.2901
-13.2479
-13.2122
-13.1837
-13.1583
-13.1437
-13.1414
-13.1466
-13.1538
-13.1618
-13.1707
-13.1799
-13.1887
-13.1962
-13.2016
-13.2052
-13.2062
-13.2051
-13.2027
-13.1992
-13.1941
-13.1866
-13.1786
-13.1785
-13.191
-13.2331
-13.341
-13.4589
-13.5362
-13.581
-13.6134
-13.6286
-13.5905
-13.4935
-13.3685
-13.2491
-13.1008
-12.9925
-13.0071
-13.0341
-13.083
-13.1422
-13.2267
-13.3343
-13.4298
-13.4889
-13.5028
-13.4807
-13.4323
-13.3664
-13.302
-13.2595
-13.2385
-13.2325
-13.2411
-13.2618
-13.299
-13.3478
-13.3914
-13.4177
-13.4283
-13.4252
-13.4054
-13.3656
-13.3094
-13.2536
-13.2255
-13.1978
-13.1431
-13.511
-13.483
-13.5067
-13.5592
-13.6445
-13.7565
-13.8598
-13.8807
-13.8639
-13.86
-13.8595
-13.8374
-13.7985
-13.753
-13.7069
-13.6695
-13.6487
-13.6427
-13.6448
-13.6501
-13.6573
-13.666
-13.6755
-13.6848
-13.6932
-13.6999
-13.7045
-13.7068
-13.707
-13.7056
-13.7033
-13.7007
-13.6982
-13.697
-13.7035
-13.7241
-13.7643
-13.8502
-13.9639
-14.0513
-14.1021
-14.1296
-14.1377
-14.0965
-13.9864
-13.8392
-13.7029
-13.5683
-13.4441
-13.4609
-13.5122
-13.589
-13.6621
-13.7579
-13.8751
-13.9699
-14.0168
-14.0194
-13.9904
-13.9443
-13.8898
-13.8499
-13.8334
-13.8337
-13.8458
-13.8774
-13.9245
-13.9899
-14.0689
-14.1353
-14.1674
-14.1733
-14.1461
-14.0783
-13.9851
-13.8827
-13.7869
-13.7235
-13.6806
-13.6382
-14.0105
-13.9629
-13.958
-13.9924
-14.0561
-14.1384
-14.2021
-14.2416
-14.2732
-14.3118
-14.335
-14.3293
-14.2986
-14.2523
-14.2021
-14.1646
-14.1444
-14.1378
-14.1386
-14.1435
-14.1511
-14.1608
-14.1716
-14.1825
-14.1923
-14.2005
-14.2065
-14.2103
-14.2119
-14.2118
-14.2107
-14.2096
-14.2092
-14.2105
-14.2174
-14.2365
-14.2725
-14.3368
-14.4313
-14.5192
-14.5808
-14.6119
-14.6116
-14.5625
-14.4487
-14.2936
-14.1572
-14.0467
-13.9452
-13.9348
-14.0103
-14.1088
-14.1921
-14.2903
-14.3977
-14.4799
-14.5121
-14.503
-14.4708
-14.4314
-14.3954
-14.3797
-14.3881
-14.4053
-14.4443
-14.5139
-14.6029
-14.7184
-14.8618
-14.9799
-15.024
-14.9926
-14.9035
-14.7799
-14.6246
-14.4699
-14.3355
-14.2388
-14.1678
-14.1156
-14.5642
-14.5236
-14.4857
-14.4924
-14.5268
-14.5656
-14.6121
-14.6557
-14.7064
-14.7515
-14.7793
-14.7787
-14.7561
-14.718
-14.6779
-14.6494
-14.6336
-14.6278
-14.6287
-14.6342
-14.6433
-14.6552
-14.6686
-14.6821
-14.6943
-14.7045
-14.7121
-14.7172
-14.72
-14.7211
-14.7209
-14.7205
-14.7208
-14.7225
-14.727
-14.7389
-14.7635
-14.8073
-14.8742
-14.9475
-15.0081
-15.0389
-15.0332
-14.9812
-14.8754
-14.7388
-14.6236
-14.5389
-14.4753
-14.4601
-14.5371
-14.6395
-14.7256
-14.8139
-14.8995
-14.9614
-14.9786
-14.9604
-14.9305
-14.9001
-14.8845
-14.8902
-14.9129
-14.9483
-15.0271
-15.1419
-15.2821
-15.4988
-15.7752
-15.9676
-16.0177
-15.9205
-15.7109
-15.4839
-15.2595
-15.0524
-14.8815
-14.7544
-14.6552
-14.5974
-15.1015
-15.0781
-15.0453
-15.0316
-15.0351
-15.0555
-15.0845
-15.124
-15.1632
-15.198
-15.2186
-15.2196
-15.2033
-15.1784
-15.1527
-15.1324
-15.12
-15.1152
-15.1166
-15.1234
-15.1349
-15.1502
-15.1675
-15.1847
-15.2
-15.2125
-15.2217
-15.2279
-15.2315
-15.2331
-15.2333
-15.2329
-15.2329
-15.2339
-15.2363
-15.2417
-15.2537
-15.2773
-15.317
-15.3657
-15.4089
-15.4317
-15.4232
-15.3749
-15.2937
-15.1961
-15.1166
-15.0611
-15.0304
-15.0281
-15.0902
-15.1777
-15.2592
-15.326
-15.3876
-15.4265
-15.4301
-15.4055
-15.379
-15.3588
-15.3567
-15.3765
-15.4048
-15.4644
-15.5785
-15.7262
-15.9259
-16.246
-16.6392
-16.8726
-16.9119
-16.7798
-16.4945
-16.1426
-15.8509
-15.6021
-15.4049
-15.2527
-15.1567
-15.0986
-15.5903
-15.5812
-15.5664
-15.5532
-15.5515
-15.5627
-15.5827
-15.6085
-15.6351
-15.6599
-15.6732
-15.6745
-15.6653
-15.6494
-15.6316
-15.6162
-15.6057
-15.6015
-15.6036
-15.6119
-15.6266
-15.6468
-15.6697
-15.6918
-15.7109
-15.726
-15.7364
-15.7431
-15.7467
-15.748
-15.7476
-15.7464
-15.7452
-15.7448
-15.7452
-15.7467
-15.7512
-15.7621
-15.7827
-15.8103
-15.836
-15.8486
-15.8397
-15.8051
-15.7498
-15.6883
-15.6404
-15.6109
-15.61
-15.6188
-15.6598
-15.7172
-15.7801
-15.8283
-15.8691
-15.8871
-15.8787
-15.8551
-15.8302
-15.8168
-15.82
-15.8414
-15.8718
-15.9452
-16.0693
-16.2313
-16.4883
-16.8664
-17.2671
-17.5232
-17.5657
-17.4245
-17.1359
-16.7424
-16.3768
-16.0952
-15.8917
-15.7435
-15.6697
-15.602
-16.0782
-16.0728
-16.0643
-16.057
-16.0567
-16.0662
-16.0815
-16.099
-16.1178
-16.134
-16.1435
-16.1452
-16.1393
-16.1277
-16.1141
-16.1011
-16.0917
-16.0879
-16.0906
-16.1007
-16.1195
-16.1465
-16.1773
-16.206
-16.229
-16.2456
-16.2574
-16.2639
-16.2664
-16.2661
-16.264
-16.261
-16.2579
-16.2551
-16.2531
-16.2519
-16.2526
-16.258
-16.2703
-16.2878
-16.3049
-16.314
-16.3091
-16.2881
-16.2531
-16.2121
-16.1786
-16.1799
-16.1953
-16.2103
-16.2309
-16.2525
-16.2863
-16.3197
-16.3452
-16.3504
-16.3368
-16.3164
-16.2973
-16.2856
-16.2881
-16.3008
-16.3235
-16.3868
-16.4915
-16.648
-16.9128
-17.2858
-17.6727
-17.9453
-18.013
-17.8866
-17.6224
-17.2641
-16.8867
-16.5915
-16.3903
-16.2599
-16.1843
-16.0876
-16.571
-16.5683
-16.5626
-16.5597
-16.5613
-16.5681
-16.5791
-16.5917
-16.6049
-16.6161
-16.6229
-16.6242
-16.6201
-16.6112
-16.5997
-16.588
-16.5787
-16.5751
-16.579
-16.5916
-16.6158
-16.6528
-16.6948
-16.7314
-16.7582
-16.7763
-16.7873
-16.7919
-16.7918
-16.7883
-16.7829
-16.7768
-16.7707
-16.7652
-16.7602
-16.756
-16.7538
-16.7559
-16.7639
-16.7767
-16.7908
-16.8015
-16.8052
-16.7957
-16.7701
-16.7377
-16.7299
-16.7612
-16.7829
-16.7948
-16.7908
-16.7791
-16.7856
-16.8045
-16.8203
-16.8215
-16.8112
-16.8004
-16.7901
-16.7766
-16.7714
-16.769
-16.7752
-16.8108
-16.8894
-17.0379
-17.2852
-17.6184
-17.9518
-18.1928
-18.2811
-18.206
-17.9956
-17.6947
-17.3735
-17.1032
-16.9079
-16.7701
-16.6657
-16.5951
-17.0663
-17.0651
-17.0616
-17.0608
-17.0628
-17.0681
-17.076
-17.0854
-17.0948
-17.1029
-17.1079
-17.1091
-17.106
-17.0987
-17.0886
-17.077
-17.0673
-17.0659
-17.0739
-17.0932
-17.1279
-17.1789
-17.2349
-17.278
-17.3042
-17.3209
-17.3291
-17.3297
-17.3246
-17.3159
-17.3053
-17.2943
-17.2842
-17.2751
-17.2671
-17.26
-17.255
-17.2544
-17.2598
-17.2694
-17.2803
-17.2913
-17.3007
-17.2976
-17.275
-17.2669
-17.3067
-17.3529
-17.374
-17.3668
-17.33
-17.2928
-17.2805
-17.2894
-17.3023
-17.3068
-17.3067
-17.3122
-17.3104
-17.295
-17.2759
-17.2566
-17.2449
-17.2561
-17.3235
-17.4817
-17.733
-18.0221
-18.2715
-18.4109
-18.433
-18.3476
-18.1736
-17.9576
-17.7179
-17.5014
-17.3307
-17.2121
-17.1413
-17.1209
-17.5616
-17.5615
-17.56
-17.5603
-17.5626
-17.5667
-17.5727
-17.5797
-17.5868
-17.593
-17.5971
-17.5984
-17.5963
-17.5905
-17.5817
-17.5692
-17.5614
-17.5672
-17.5936
-17.6397
-17.7013
-17.7662
-17.8234
-17.8601
-17.8743
-17.8844
-17.8863
-17.8802
-17.8674
-17.8503
-17.8319
-17.8142
-17.7985
-17.7851
-17.7738
-17.7641
-17.7568
-17.7538
-17.7567
-17.7636
-17.7708
-17.7806
-17.7919
-17.7968
-17.7738
-17.8271
-17.9075
-17.9602
-17.9631
-17.9125
-17.8437
-17.7909
-17.7714
-17.7787
-17.7958
-17.8099
-17.8256
-17.8507
-17.8552
-17.8372
-17.8015
-17.7645
-17.7407
-17.742
-17.8156
-17.9919
-18.2467
-18.5055
-18.6892
-18.7558
-18.7079
-18.5659
-18.3689
-18.1563
-17.9611
-17.7937
-17.6693
-17.616
-17.618
-17.6188
-18.057
-18.0572
-18.0574
-18.0585
-18.0607
-18.0642
-18.069
-18.0746
-18.0804
-18.0857
-18.0896
-18.0916
-18.0909
-18.0871
-18.0806
-18.0663
-18.0692
-18.1009
-18.1647
-18.2472
-18.3388
-18.4128
-18.4557
-18.4692
-18.4716
-18.4675
-18.4607
-18.4464
-18.423
-18.3938
-18.3638
-18.3366
-18.3137
-18.295
-18.2797
-18.2671
-18.2572
-18.251
-18.2499
-18.2531
-18.2581
-18.2673
-18.279
-18.2896
-18.3033
-18.4202
-18.5172
-18.5512
-18.5033
-18.4134
-18.3283
-18.2742
-18.2579
-18.2713
-18.2973
-18.3251
-18.361
-18.4033
-18.4165
-18.3943
-18.3426
-18.2872
-18.2558
-18.2573
-18.3351
-18.5172
-18.7641
-18.9953
-19.1409
-19.1758
-19.103
-18.944
-18.7341
-18.5229
-18.3399
-18.191
-18.0909
-18.0603
-18.0775
-18.0961
-18.5528
-18.5531
-18.5542
-18.5557
-18.5579
-18.561
-18.5651
-18.57
-18.5752
-18.5803
-18.5848
-18.5881
-18.5897
-18.5894
-18.587
-18.5743
-18.6083
-18.6813
-18.7728
-18.8687
-18.9665
-19.0301
-19.0499
-19.0474
-19.0467
-19.0484
-19.0416
-19.0248
-18.9915
-18.9471
-18.9016
-18.8619
-18.8298
-18.8044
-18.7844
-18.7682
-18.7548
-18.7447
-18.7385
-18.7363
-18.7386
-18.7463
-18.7605
-18.7418
-18.829
-18.9627
-19.0319
-19.0385
-18.9662
-18.8659
-18.7881
-18.745
-18.7389
-18.7607
-18.7964
-18.8398
-18.8959
-18.9517
-18.9725
-18.9514
-18.8896
-18.8173
-18.7783
-18.7838
-18.8594
-19.0302
-19.2661
-19.4858
-19.619
-19.6371
-19.5517
-19.3861
-19.1723
-18.9616
-18.7936
-18.6709
-18.5964
-18.56
-18.5619
-18.5751
-19.0483
-19.0491
-19.0507
-19.0523
-19.0545
-19.0574
-19.0612
-19.0657
-19.0708
-19.0762
-19.0817
-19.0871
-19.0924
-19.0966
-19.0939
-19.1117
-19.1813
-19.2807
-19.3723
-19.4613
-19.5402
-19.5751
-19.5881
-19.5994
-19.6156
-19.6276
-19.631
-19.6114
-19.5696
-19.5081
-19.4438
-19.3891
-19.346
-19.3129
-19.2877
-19.2675
-19.2506
-19.2369
-19.226
-19.2183
-19.2154
-19.2169
-19.2358
-19.1821
-19.3091
-19.4205
-19.4596
-19.4411
-19.3714
-19.2937
-19.2368
-19.2094
-19.2131
-19.2414
-19.2848
-19.3423
-19.4157
-19.4827
-19.5123
-19.4965
-19.4303
-19.3484
-19.3005
-19.3095
-19.3789
-19.5277
-19.7405
-19.9519
-20.0843
-20.1098
-20.0364
-19.883
-19.6713
-19.449
-19.2805
-19.1704
-19.1051
-19.0721
-19.0633
-19.0691
-19.5449
-19.5456
-19.5471
-19.5487
-19.5507
-19.5535
-19.557
-19.5614
-19.5666
-19.5726
-19.5796
-19.5878
-19.5985
-19.6092
-19.6066
-19.6653
-19.7642
-19.8673
-19.9468
-20.0186
-20.0691
-20.0998
-20.1409
-20.1895
-20.2344
-20.2608
-20.2597
-20.2255
-20.1603
-20.0734
-19.987
-19.9158
-19.8607
-19.8196
-19.7892
-19.7653
-19.7456
-19.7293
-19.7156
-19.7037
-19.695
-19.691
-19.6855
-19.6712
-19.773
-19.8482
-19.8627
-19.8347
-19.78
-19.7245
-19.6837
-19.6688
-19.6798
-19.7132
-19.7625
-19.8297
-19.9144
-19.9896
-20.0273
-20.0171
-19.9613
-19.8759
-19.8188
-19.8271
-19.8914
-20.0115
-20.1811
-20.3746
-20.4997
-20.5358
-20.4879
-20.3693
-20.184
-19.9692
-19.7989
-19.6922
-19.6301
-19.5969
-19.5808
-19.5783
-20.0416
-20.0422
-20.0433
-20.0448
-20.0467
-20.0493
-20.0526
-20.0568
-20.0621
-20.0687
-20.077
-20.0881
-20.1046
-20.1246
-20.1333
-20.2153
-20.3358
-20.422
-20.482
-20.5406
-20.5804
-20.6496
-20.7381
-20.8278
-20.8954
-20.9263
-20.9163
-20.8595
-20.7555
-20.634
-20.5247
-20.4375
-20.3712
-20.323
-20.2881
-20.2614
-20.24
-20.2225
-20.2077
-20.1937
-20.181
-20.1711
-20.1651
-20.1742
-20.2356
-20.2849
-20.2885
-20.2599
-20.2151
-20.1684
-20.131
-20.1197
-20.1373
-20.1793
-20.2358
-20.3094
-20.3981
-20.4761
-20.5185
-20.5146
-20.4671
-20.3905
-20.3332
-20.3358
-20.3941
-20.4914
-20.6206
-20.7647
-20.874
-20.9175
-20.8917
-20.8082
-20.667
-20.479
-20.3191
-20.2158
-20.1558
-20.1234
-20.1056
-20.0974
-20.5381
-20.5386
-20.5395
-20.5408
-20.5424
-20.5447
-20.5477
-20.5516
-20.5567
-20.5633
-20.5722
-20.5848
-20.6044
-20.6323
-20.6571
-20.7509
-20.8744
-20.9311
-20.9819
-21.0369
-21.1008
-21.2091
-21.3354
-21.4526
-21.5268
-21.5486
-21.522
-21.443
-21.312
-21.1684
-21.0446
-20.9469
-20.8734
-20.8207
-20.7832
-20.7552
-20.7331
-20.7156
-20.7013
-20.6879
-20.6762
-20.6622
-20.6771
-20.6903
-20.7143
-20.747
-20.7538
-20.7327
-20.6965
-20.6538
-20.6091
-20.6
-20.6215
-20.666
-20.7236
-20.7963
-20.8781
-20.9488
-20.9878
-20.985
-20.9462
-20.8827
-20.8359
-20.8373
-20.8871
-20.966
-21.0593
-21.1588
-21.2408
-21.2811
-21.2702
-21.2131
-21.1135
-20.9635
-20.8236
-20.7311
-20.6765
-20.6465
-20.6298
-20.6195
-21.0345
-21.0349
-21.0355
-21.0365
-21.0379
-21.0398
-21.0423
-21.0456
-21.05
-21.0559
-21.0638
-21.0749
-21.0918
-21.1184
-21.1636
-21.2636
-21.365
-21.4107
-21.4648
-21.5285
-21.6194
-21.7455
-21.8908
-22.0106