/*--------------------------------*- C++ -*----------------------------------*\
| =========                 |                                                 |
| \\      /  F ield         | OpenFOAM: The Open Source CFD Toolbox           |
|  \\    /   O peration     | Version:  2412                                  |
|   \\  /    A nd           | Website:  www.openfoam.com                      |
|    \\/     M anipulation  |                                                 |
\*---------------------------------------------------------------------------*/
FoamFile
{
    version     2.0;
    format      ascii;
    arch        "LSB;label=32;scalar=64";
    class       surfaceScalarField;
    location    "8.1";
    object      alphaPhi0.honey;
}
// * * * * * * * * * * * * * * * * * * * * * * * * * * * * * * * * * * * * * //

dimensions      [0 3 -1 0 0 0 0];

oriented        oriented;

internalField   nonuniform List<scalar> 
12640
(
6.40775e-09
-1.03891e-08
1.49847e-08
-1.49877e-08
2.15235e-08
-1.3478e-08
2.31135e-08
-8.99967e-09
1.82405e-08
-2.67833e-09
6.42809e-09
4.45481e-09
-1.22144e-08
1.17251e-08
-3.73075e-08
1.87708e-08
-6.84626e-08
2.53728e-08
-1.05273e-07
3.14594e-08
-1.47217e-07
3.70845e-08
-1.93799e-07
4.23418e-08
-2.44746e-07
4.72977e-08
-2.99956e-07
5.19764e-08
-3.59332e-07
5.63664e-08
-4.22616e-07
6.04343e-08
-4.89402e-07
6.41335e-08
-5.59154e-07
6.7382e-08
-6.31284e-07
7.00476e-08
-7.05079e-07
7.19148e-08
-7.79675e-07
7.27234e-08
-8.53894e-07
7.215e-08
-9.26245e-07
6.98942e-08
-9.9481e-07
6.56181e-08
-1.05736e-06
5.90838e-08
-1.11134e-06
5.00274e-08
-1.15403e-06
3.83845e-08
-1.18263e-06
2.40618e-08
-1.19451e-06
7.27988e-09
-1.18725e-06
-1.18125e-08
-1.15892e-06
-3.2648e-08
-1.10815e-06
-5.4831e-08
-1.03433e-06
-7.74672e-08
-9.3766e-07
-9.99931e-08
-8.1921e-07
-1.213e-07
-6.80952e-07
-1.40815e-07
-5.25665e-07
-1.57406e-07
-3.5693e-07
-1.70687e-07
-1.78845e-07
-1.79713e-07
3.94628e-09
-1.84451e-07
1.86722e-07
-1.84304e-07
3.6458e-07
-1.79668e-07
5.33033e-07
-1.70366e-07
6.87789e-07
-1.57207e-07
8.25406e-07
-1.40402e-07
9.42927e-07
-1.21045e-07
1.03852e-06
-9.9607e-08
1.11096e-06
-7.72822e-08
1.16019e-06
-5.46158e-08
1.18668e-06
-3.26689e-08
1.19188e-06
-1.18576e-08
1.17762e-06
7.03858e-09
1.1464e-06
2.38037e-08
1.10076e-06
3.79865e-08
1.04353e-06
4.96317e-08
9.7733e-07
5.86385e-08
9.04815e-07
6.52697e-08
8.28264e-07
6.96584e-08
7.49799e-07
7.21719e-08
6.71131e-07
7.30491e-08
5.93745e-07
7.26377e-08
5.18739e-07
7.11504e-08
4.46982e-07
6.88415e-08
3.79049e-07
6.58613e-08
3.15371e-07
6.2375e-08
2.56218e-07
5.84702e-08
2.01812e-07
5.42294e-08
1.52319e-07
4.96709e-08
1.07923e-07
4.47913e-08
6.88342e-08
3.95337e-08
3.53381e-08
3.38314e-08
7.79998e-09
2.76188e-08
-1.33547e-08
2.08871e-08
-2.77324e-08
1.3705e-08
-3.50942e-08
6.25429e-09
-3.55305e-08
-1.11572e-09
-2.97277e-08
-7.74502e-09
-1.94127e-08
-1.25356e-08
-7.89629e-09
-1.39495e-08
-8.97864e-09
1.2122e-08
-2.6876e-08
2.54009e-08
-3.86846e-08
3.25464e-08
-3.15241e-08
2.7536e-08
-1.47834e-08
6.46759e-09
7.82731e-09
-3.22614e-08
3.32593e-08
-8.88853e-08
5.93319e-08
-1.62937e-07
8.47435e-08
-2.53545e-07
1.08836e-07
-3.59624e-07
1.3137e-07
-4.7999e-07
1.52343e-07
-6.13591e-07
1.71858e-07
-7.59613e-07
1.90041e-07
-9.17433e-07
2.06997e-07
-1.08633e-06
2.22777e-07
-1.26539e-06
2.37312e-07
-1.45333e-06
2.5038e-07
-1.64871e-06
2.61572e-07
-1.84969e-06
2.7028e-07
-2.0541e-06
2.75721e-07
-2.2591e-06
2.76957e-07
-2.46123e-06
2.7296e-07
-2.65603e-06
2.62646e-07
-2.83833e-06
2.44989e-07
-3.00199e-06
2.19033e-07
-3.14048e-06
1.84095e-07
-3.24664e-06
1.39703e-07
-3.31355e-06
8.59023e-08
-3.33434e-06
2.30509e-08
-3.30317e-06
-4.77644e-08
-3.21508e-06
-1.2516e-07
-3.06691e-06
-2.06918e-07
-2.85711e-06
-2.90717e-07
-2.58653e-06
-3.73448e-07
-2.25804e-06
-4.52283e-07
-1.87701e-06
-5.23797e-07
-1.45084e-06
-5.85348e-07
-9.88915e-07
-6.33943e-07
-5.02222e-07
-6.67837e-07
-2.73651e-09
-6.85125e-07
4.9679e-07
-6.85459e-07
9.83861e-07
-6.68396e-07
1.44617e-06
-6.35145e-07
1.87295e-06
-5.86753e-07
2.25444e-06
-5.25782e-07
2.58342e-06
-4.54437e-07
2.85422e-06
-3.76099e-07
3.0641e-06
-2.93505e-07
3.21197e-06
-2.10107e-07
3.29952e-06
-1.28428e-07
3.32963e-06
-5.12762e-08
3.3074e-06
1.95843e-08
3.23847e-06
8.23673e-08
3.12983e-06
1.36305e-07
2.98823e-06
1.80755e-07
2.82089e-06
2.1594e-07
2.6343e-06
2.42179e-07
2.43479e-06
2.60364e-07
2.22766e-06
2.7135e-07
2.01775e-06
2.76269e-07
1.80885e-06
2.76081e-07
1.60418e-06
2.718e-07
1.40611e-06
2.64217e-07
1.21654e-06
2.54071e-07
1.0368e-06
2.41884e-07
8.6798e-07
2.28082e-07
7.10906e-07
2.12889e-07
5.66346e-07
1.96416e-07
4.35008e-07
1.78612e-07
3.17695e-07
1.59351e-07
2.15291e-07
1.38459e-07
1.28814e-07
1.15831e-07
5.92762e-08
9.15082e-08
7.51198e-09
6.57973e-08
-2.61206e-08
3.93784e-08
-4.20867e-08
1.35109e-08
-4.22434e-08
-9.65399e-09
-3.04361e-08
-2.68317e-08
-1.31218e-08
-3.37702e-08
-2.25474e-08
1.15454e-08
-4.30382e-08
1.99973e-08
-5.80532e-08
1.64984e-08
-3.98386e-08
-5.97014e-09
-4.13732e-09
-5.20797e-08
4.26787e-08
-1.242e-07
9.48882e-08
-2.22883e-07
1.4846e-07
-3.4756e-07
2.00948e-07
-4.97067e-07
2.51002e-07
-6.69915e-07
2.98008e-07
-8.64518e-07
3.41816e-07
-1.07937e-06
3.82534e-07
-1.31319e-06
4.20366e-07
-1.56478e-06
4.55507e-07
-1.83286e-06
4.88014e-07
-2.1158e-06
5.17703e-07
-2.41166e-06
5.44046e-07
-2.71796e-06
5.66138e-07
-3.03181e-06
5.82686e-07
-3.34945e-06
5.92044e-07
-3.6664e-06
5.92284e-07
-3.97683e-06
5.8128e-07
-4.27396e-06
5.56847e-07
-4.5495e-06
5.16849e-07
-4.79441e-06
4.5943e-07
-4.99843e-06
3.83111e-07
-5.15128e-06
2.87123e-07
-5.24219e-06
1.71401e-07
-5.26149e-06
3.70065e-08
-5.20007e-06
-1.14098e-07
-5.05116e-06
-2.7857e-07
-4.80973e-06
-4.52259e-07
-4.47416e-06
-6.29679e-07
-4.04545e-06
-8.05017e-07
-3.52856e-06
-9.71526e-07
-2.93141e-06
-1.12295e-06
-2.26562e-06
-1.25274e-06
-1.54535e-06
-1.35574e-06
-7.87325e-07
-1.42709e-06
-9.86704e-09
-1.46408e-06
7.67917e-07
-1.46464e-06
1.52668e-06
-1.42919e-06
2.24824e-06
-1.35886e-06
2.91557e-06
-1.2572e-06
3.51455e-06
-1.12818e-06
4.03325e-06
-9.7774e-07
4.4638e-06
-8.11661e-07
4.80095e-06
-6.36914e-07
5.04377e-06
-4.59613e-07
5.19361e-06
-2.86153e-07
5.25555e-06
-1.21486e-07
5.23609e-06
2.9768e-08
5.14442e-06
1.64632e-07
4.99008e-06
2.8075e-07
4.78393e-06
3.7733e-07
4.53614e-06
4.54205e-07
4.25709e-06
5.12397e-07
3.95582e-06
5.53277e-07
3.6409e-06
5.78892e-07
3.31934e-06
5.91287e-07
2.99734e-06
5.92702e-07
2.67972e-06
5.85108e-07
2.37052e-06
5.70365e-07
2.0727e-06
5.49952e-07
1.78871e-06
5.25105e-07
1.52033e-06
4.96664e-07
1.26911e-06
4.65183e-07
1.03632e-06
4.30869e-07
8.23238e-07
3.93702e-07
6.3113e-07
3.53469e-07
4.61408e-07
3.09934e-07
3.15541e-07
2.62962e-07
1.94952e-07
2.12734e-07
1.00712e-07
1.59914e-07
3.32351e-08
1.0591e-07
-8.16465e-09
5.32005e-08
-2.58777e-08
5.77561e-09
-2.47056e-08
-3.06225e-08
-1.23072e-08
-4.87124e-08
-3.52865e-08
6.93256e-09
-5.50928e-08
4.08487e-09
-6.56662e-08
-1.77974e-08
-2.94872e-08
-6.55368e-08
3.20619e-08
-1.43811e-07
1.09948e-07
-2.54946e-07
1.95871e-07
-3.99419e-07
2.83833e-07
-5.76487e-07
3.70095e-07
-7.84707e-07
4.52497e-07
-1.02231e-06
5.29985e-07
-1.28735e-06
6.02248e-07
-1.57798e-06
6.69391e-07
-1.89247e-06
7.31697e-07
-2.22921e-06
7.89404e-07
-2.58636e-06
8.42535e-07
-2.96182e-06
8.90694e-07
-3.3529e-06
9.32949e-07
-3.7564e-06
9.67735e-07
-4.16823e-06
9.9288e-07
-4.58352e-06
1.00564e-06
-4.99595e-06
1.00283e-06
-5.39809e-06
9.80945e-07
-5.78066e-06
9.36366e-07
-6.13329e-06
8.65624e-07
-6.44382e-06
7.65623e-07
-6.69965e-06
6.34049e-07
-6.887e-06
4.69548e-07
-6.99285e-06
2.72243e-07
-7.00414e-06
4.372e-08
-6.91014e-06
-2.12409e-07
-6.70146e-06
-4.90896e-07
-6.37264e-06
-7.84317e-07
-5.92092e-06
-1.08401e-06
-5.34857e-06
-1.3796e-06
-4.6614e-06
-1.66051e-06
-3.87044e-06
-1.91542e-06
-2.99025e-06
-2.13429e-06
-2.03965e-06
-2.30747e-06
-1.04009e-06
-2.42796e-06
-1.53144e-08
-2.49004e-06
1.0098e-06
-2.49147e-06
2.01058e-06
-2.43166e-06
2.96295e-06
-2.31378e-06
3.84555e-06
-2.14243e-06
4.63919e-06
-1.92552e-06
5.32933e-06
-1.67171e-06
5.90455e-06
-1.39188e-06
6.35911e-06
-1.09659e-06
6.6904e-06
-7.9716e-07
6.90125e-06
-5.03387e-07
6.99678e-06
-2.24512e-07
6.98639e-06
3.25177e-08
6.88055e-06
2.61966e-07
6.69249e-06
4.60509e-07
6.43508e-06
6.2617e-07
6.12227e-06
7.59063e-07
5.76657e-06
8.60342e-07
5.38036e-06
9.32558e-07
4.97406e-06
9.78724e-07
4.55729e-06
1.00248e-06
4.13771e-06
1.00733e-06
3.72205e-06
9.96796e-07
3.31539e-06
9.73888e-07
2.92201e-06
9.41251e-07
2.54507e-06
9.00906e-07
2.18723e-06
8.54373e-07
1.85049e-06
8.02572e-07
1.5367e-06
7.45959e-07
1.24749e-06
6.84541e-07
9.84591e-07
6.18084e-07
7.49753e-07
5.46269e-07
5.4485e-07
4.68976e-07
3.71601e-07
3.86528e-07
2.31351e-07
3.00018e-07
1.24686e-07
2.11659e-07
5.10291e-08
1.25247e-07
8.00161e-09
4.67035e-08
-9.12697e-09
-1.57097e-08
-8.11453e-09
-5.1728e-08
-4.335e-08
5.58343e-10
-6.09188e-08
-1.76065e-08
-5.75579e-08
-6.27315e-08
4.6532e-09
-1.40828e-07
9.92218e-08
-2.55924e-07
2.14697e-07
-4.09806e-07
3.40337e-07
-6.02524e-07
4.68241e-07
-8.32941e-07
5.93399e-07
-1.09928e-06
7.12867e-07
-1.3994e-06
8.25191e-07
-1.73109e-06
9.29925e-07
-2.09212e-06
1.02721e-06
-2.48046e-06
1.11739e-06
-2.89407e-06
1.20074e-06
-3.33083e-06
1.27717e-06
-3.78808e-06
1.34601e-06
-4.26274e-06
1.40578e-06
-4.75076e-06
1.45417e-06
-5.24737e-06
1.48796e-06
-5.74633e-06
1.50312e-06
-6.2403e-06
1.49496e-06
-6.71985e-06
1.45836e-06
-7.17433e-06
1.38804e-06
-7.59077e-06
1.27888e-06
-7.95537e-06
1.12644e-06
-8.2524e-06
9.27256e-07
-8.46639e-06
6.79493e-07
-8.58096e-06
3.83181e-07
-8.58169e-06
4.09285e-08
-8.45472e-06
-3.42222e-07
-8.19012e-06
-7.58104e-07
-7.7802e-06
-1.19619e-06
-7.22294e-06
-1.64306e-06
-6.51993e-06
-2.08396e-06
-5.67934e-06
-2.50241e-06
-4.71349e-06
-2.88248e-06
-3.64076e-06
-3.20826e-06
-2.48317e-06
-3.46653e-06
-1.26689e-06
-3.64577e-06
-2.03034e-08
-3.73871e-06
1.22685e-06
-3.74077e-06
2.44456e-06
-3.65239e-06
3.60458e-06
-3.47684e-06
4.68034e-06
-3.22229e-06
5.64984e-06
-2.89908e-06
6.49427e-06
-2.52133e-06
7.20127e-06
-2.10395e-06
7.76229e-06
-1.66377e-06
8.17582e-06
-1.21659e-06
8.44353e-06
-7.77973e-07
8.57312e-06
-3.60795e-07
8.57412e-06
2.38248e-08
8.46046e-06
3.68105e-07
8.24637e-06
6.66487e-07
7.94844e-06
9.16572e-07
7.58204e-06
1.11796e-06
7.16312e-06
1.27268e-06
6.70545e-06
1.38402e-06
6.22227e-06
1.45664e-06
5.72433e-06
1.49559e-06
5.22139e-06
1.50626e-06
4.72101e-06
1.49367e-06
4.22977e-06
1.46247e-06
3.75253e-06
1.41651e-06
3.29346e-06
1.35894e-06
2.85562e-06
1.29201e-06
2.44165e-06
1.21718e-06
2.05366e-06
1.13517e-06
1.69372e-06
1.04612e-06
1.36379e-06
9.49736e-07
1.06603e-06
8.45661e-07
8.02598e-07
7.33739e-07
5.75605e-07
6.14431e-07
3.86736e-07
4.89213e-07
2.37008e-07
3.61085e-07
1.26294e-07
2.35114e-07
5.27237e-08
1.19056e-07
1.22594e-08
2.35904e-08
-2.07977e-09
-3.82336e-08
-4.45131e-08
-6.46196e-09
-5.94904e-08
-4.22228e-08
-3.13453e-08
-1.13588e-07
6.58906e-08
-2.25361e-07
2.0099e-07
-3.80399e-07
3.60355e-07
-5.79536e-07
5.31006e-07
-8.22032e-07
7.03328e-07
-1.10614e-06
8.71178e-07
-1.42953e-06
1.03097e-06
-1.78971e-06
1.18097e-06
-2.18405e-06
1.32073e-06
-2.61012e-06
1.45045e-06
-3.06552e-06
1.57059e-06
-3.54804e-06
1.68143e-06
-4.05515e-06
1.78273e-06
-4.58405e-06
1.87345e-06
-5.13108e-06
1.95155e-06
-5.69192e-06
2.01381e-06
-6.26082e-06
2.05583e-06
-6.83103e-06
2.07214e-06
-7.39365e-06
2.05637e-06
-7.93851e-06
2.00156e-06
-8.45282e-06
1.90051e-06
-8.92262e-06
1.74632e-06
-9.33138e-06
1.53286e-06
-9.66228e-06
1.25551e-06
-9.89665e-06
9.11616e-07
-1.00171e-05
5.01395e-07
-1.00059e-05
2.80999e-08
-9.8486e-06
-5.01058e-07
-9.53223e-06
-1.07536e-06
-9.0495e-06
-1.67985e-06
-8.39638e-06
-2.29673e-06
-7.57623e-06
-2.90494e-06
-6.59687e-06
-3.48257e-06
-5.47385e-06
-4.0067e-06
-4.22721e-06
-4.45645e-06
-2.88322e-06
-4.81249e-06
-1.47143e-06
-5.06019e-06
-2.47812e-08
-5.1883e-06
1.42244e-06
-5.19189e-06
2.83613e-06
-5.07012e-06
4.18298e-06
-4.82888e-06
5.43348e-06
-4.47788e-06
6.56089e-06
-4.03273e-06
7.54516e-06
-3.51148e-06
8.37018e-06
-2.93596e-06
9.02815e-06
-2.32821e-06
9.5153e-06
-1.7111e-06
9.83581e-06
-1.10516e-06
9.99653e-06
-5.29005e-07
1.00105e-05
2.85531e-09
9.89155e-06
4.79104e-07
9.65782e-06
8.92807e-07
9.32647e-06
1.24018e-06
8.91648e-06
1.52115e-06
8.44459e-06
1.73803e-06
7.92762e-06
1.89559e-06
7.37954e-06
1.99981e-06
6.81342e-06
2.05778e-06
6.23953e-06
2.0766e-06
5.66708e-06
2.06332e-06
5.10296e-06
2.0242e-06
4.55321e-06
1.96469e-06
4.02219e-06
1.88905e-06
3.51368e-06
1.80052e-06
3.03048e-06
1.70111e-06
2.57512e-06
1.59193e-06
2.1498e-06
1.47321e-06
1.75684e-06
1.34466e-06
1.39861e-06
1.20582e-06
1.07769e-06
1.05646e-06
7.96562e-07
8.97081e-07
5.57477e-07
7.29438e-07
3.62103e-07
5.57161e-07
2.11135e-07
3.8643e-07
1.03642e-07
2.2667e-07
3.6774e-08
9.07884e-08
4.89816e-09
-5.68504e-09
-3.78357e-08
-1.36481e-08
-5.03455e-08
-6.80542e-08
1.4454e-08
-1.67544e-07
1.56299e-07
-3.15196e-07
3.39697e-07
-5.12308e-07
5.49059e-07
-7.58361e-07
7.69408e-07
-1.0515e-06
9.89656e-07
-1.38906e-06
1.20279e-06
-1.76805e-06
1.4048e-06
-2.18541e-06
1.5939e-06
-2.63823e-06
1.76976e-06
-3.12373e-06
1.93282e-06
-3.63943e-06
2.08368e-06
-4.1828e-06
2.22264e-06
-4.75129e-06
2.34932e-06
-5.34174e-06
2.46228e-06
-5.95049e-06
2.5588e-06
-6.57259e-06
2.63467e-06
-7.20219e-06
2.68421e-06
-7.83145e-06
2.70036e-06
-8.45122e-06
2.67489e-06
-9.04965e-06
2.59883e-06
-9.61357e-06
2.4629e-06
-1.01267e-05
2.25812e-06
-1.05722e-05
1.97661e-06
-1.09301e-05
1.61221e-06
-1.11814e-05
1.16158e-06
-1.13052e-05
6.24626e-07
-1.12836e-05
5.76261e-09
-1.10984e-05
-6.86199e-07
-1.07371e-05
-1.43694e-06
-1.01892e-05
-2.22769e-06
-9.45178e-06
-3.03451e-06
-8.52641e-06
-3.83066e-06
-7.42361e-06
-4.58647e-06
-6.15892e-06
-5.27285e-06
-4.75631e-06
-5.86127e-06
-3.24401e-06
-6.32766e-06
-1.65606e-06
-6.65162e-06
-2.88817e-08
-6.81987e-06
1.5991e-06
-6.82452e-06
3.18923e-06
-6.66599e-06
4.70509e-06
-6.35038e-06
6.11221e-06
-5.89178e-06
7.38232e-06
-5.30911e-06
8.49089e-06
-4.62737e-06
9.42227e-06
-3.87388e-06
1.01653e-05
-3.07877e-06
1.07187e-05
-2.27101e-06
1.10849e-05
-1.47845e-06
1.12743e-05
-7.24597e-07
1.12993e-05
-2.90607e-08
1.11778e-05
5.94195e-07
1.09276e-05
1.13575e-06
1.05698e-05
1.59137e-06
1.01234e-05
1.96064e-06
9.60856e-06
2.24699e-06
9.04224e-06
2.45629e-06
8.44098e-06
2.59655e-06
7.81797e-06
2.67662e-06
7.18533e-06
2.7059e-06
6.55228e-06
2.69332e-06
5.92695e-06
2.64715e-06
5.31533e-06
2.57437e-06
4.72259e-06
2.48068e-06
4.15244e-06
2.37023e-06
3.60815e-06
2.24581e-06
3.09222e-06
2.10884e-06
2.60716e-06
1.95973e-06
2.15538e-06
1.79813e-06
1.73959e-06
1.62342e-06
1.36268e-06
1.43517e-06
1.02769e-06
1.23377e-06
7.37534e-07
1.02107e-06
4.94866e-07
8.01118e-07
3.01519e-07
5.80959e-07
1.5794e-07
3.71425e-07
6.28152e-08
1.87391e-07
1.22694e-08
4.65844e-08
-2.35562e-08
-2.0753e-08
-3.35733e-08
-9.43635e-08
8.03708e-08
-2.23265e-07
2.76922e-07
-4.0844e-07
5.16596e-07
-6.49219e-07
7.81891e-07
-9.43352e-07
1.05606e-06
-1.28749e-06
1.32684e-06
-1.67783e-06
1.5867e-06
-2.11048e-06
1.83154e-06
-2.58181e-06
2.05976e-06
-3.0885e-06
2.27141e-06
-3.62766e-06
2.46731e-06
-4.19656e-06
2.64832e-06
-4.79272e-06
2.81486e-06
-5.41334e-06
2.96638e-06
-6.05544e-06
3.10103e-06
-6.71497e-06
3.21535e-06
-7.3872e-06
3.30407e-06
-8.06558e-06
3.36013e-06
-8.74242e-06
3.37475e-06
-9.40738e-06
3.33772e-06
-1.00488e-05
3.23791e-06
-1.06515e-05
3.06374e-06
-1.11996e-05
2.80408e-06
-1.16735e-05
2.44892e-06
-1.20537e-05
1.99062e-06
-1.23177e-05
1.4246e-06
-1.2445e-05
7.50815e-07
-1.24137e-05
-2.59176e-08
-1.22062e-05
-8.94389e-07
-1.18057e-05
-1.83756e-06
-1.12029e-05
-2.83134e-06
-1.03915e-05
-3.84658e-06
-9.37507e-06
-4.84857e-06
-8.16244e-06
-5.8008e-06
-6.77275e-06
-6.66514e-06
-5.23032e-06
-7.40674e-06
-3.56789e-06
-7.99382e-06
-1.82171e-06
-8.40221e-06
-3.25301e-08
-8.61375e-06
1.75751e-06
-8.62009e-06
3.50639e-06
-8.42021e-06
5.17296e-06
-8.02325e-06
6.72084e-06
-7.44538e-06
8.11679e-06
-6.71172e-06
9.33638e-06
-5.85255e-06
1.03597e-05
-4.90376e-06
1.11779e-05
-3.9024e-06
1.17868e-05
-2.88621e-06
1.21929e-05
-1.88941e-06
1.24052e-05
-9.42354e-07
1.24406e-05
-6.88237e-08
1.23161e-05
7.13316e-07
1.20538e-05
1.39313e-06
1.16741e-05
1.96519e-06
1.11996e-05
2.42968e-06
1.06499e-05
2.79073e-06
1.0045e-05
3.05607e-06
9.40097e-06
3.23548e-06
8.733e-06
3.34019e-06
8.05287e-06
3.3817e-06
7.37117e-06
3.37125e-06
6.69568e-06
3.31899e-06
6.03324e-06
3.23376e-06
5.38869e-06
3.1226e-06
4.76626e-06
2.99081e-06
4.16897e-06
2.84185e-06
3.59963e-06
2.67762e-06
3.06062e-06
2.49861e-06
2.55461e-06
2.30439e-06
2.08449e-06
2.09404e-06
1.65357e-06
1.86678e-06
1.26544e-06
1.62268e-06
9.23927e-07
1.36339e-06
6.32858e-07
1.09306e-06
3.95588e-07
8.19268e-07
2.14304e-07
5.5393e-07
8.9611e-08
3.13626e-07
1.96588e-08
1.18125e-07
-2.49378e-09
-2.77528e-08
-9.25524e-09
-1.21199e-07
1.66748e-07
-2.80766e-07
4.28682e-07
-5.05057e-07
7.32873e-07
-7.91002e-07
1.0599e-06
-1.13417e-06
1.39146e-06
-1.52939e-06
1.71451e-06
-1.97145e-06
2.02143e-06
-2.45546e-06
2.30845e-06
-2.97708e-06
2.57453e-06
-3.53271e-06
2.82033e-06
-4.11923e-06
3.04727e-06
-4.73398e-06
3.25664e-06
-5.37434e-06
3.44904e-06
-6.03775e-06
3.62383e-06
-6.721e-06
3.77872e-06
-7.42045e-06
3.90948e-06
-8.13095e-06
4.00974e-06
-8.84643e-06
4.07096e-06
-9.5584e-06
4.08257e-06
-1.02571e-05
4.0323e-06
-1.09294e-05
3.90668e-06
-1.15612e-05
3.69181e-06
-1.21341e-05
3.37405e-06
-1.26297e-05
2.94136e-06
-1.30254e-05
2.38408e-06
-1.32999e-05
1.69663e-06
-1.34289e-05
8.78168e-07
-1.33913e-05
-6.54728e-08
-1.31651e-05
-1.12183e-06
-1.27347e-05
-2.26997e-06
-1.20858e-05
-3.48178e-06
-1.1214e-05
-4.72085e-06
-1.01192e-05
-5.94574e-06
-8.8132e-06
-7.11005e-06
-7.31368e-06
-8.16796e-06
-5.64949e-06
-9.0749e-06
-3.85408e-06
-9.79346e-06
-1.96832e-06
-1.02924e-05
-3.55926e-08
-1.05514e-05
1.89822e-06
-1.05586e-05
3.78701e-06
-1.03144e-05
5.58737e-06
-9.82834e-06
7.2578e-06
-9.12156e-06
8.76467e-06
-8.22328e-06
1.00785e-05
-7.17204e-06
1.11815e-05
-6.01098e-06
1.20608e-05
-4.78713e-06
1.27167e-05
-3.5461e-06
1.31531e-05
-2.33068e-06
1.33847e-05
-1.17709e-06
1.34266e-05
-1.14602e-07
1.3301e-05
8.36021e-07
1.30284e-05
1.66155e-06
1.26334e-05
2.35635e-06
1.21374e-05
2.92073e-06
1.15632e-05
3.36035e-06
1.09294e-05
3.68453e-06
1.02545e-05
3.90545e-06
9.55287e-06
4.03657e-06
8.83775e-06
4.09189e-06
8.11896e-06
4.08486e-06
7.40524e-06
4.02782e-06
6.7028e-06
3.93132e-06
6.01703e-06
3.80397e-06
5.35168e-06
3.65214e-06
4.71006e-06
3.48013e-06
4.09464e-06
3.29018e-06
3.50799e-06
3.08293e-06
2.95269e-06
2.85774e-06
2.43192e-06
2.61329e-06
1.94931e-06
2.34823e-06
1.50916e-06
2.062e-06
1.11626e-06
1.75571e-06
7.75905e-07
1.43317e-06
4.93243e-07
1.10204e-06
2.72635e-07
7.74937e-07
1.17021e-07
4.69892e-07
2.68718e-08
2.08795e-07
2.49971e-08
-3.49317e-08
2.26668e-08
-1.49252e-07
2.7433e-07
-3.41202e-07
6.13083e-07
-6.06629e-07
9.90397e-07
-9.39512e-07
1.3848e-06
-1.33275e-06
1.7767e-06
-1.77897e-06
2.15278e-06
-2.27141e-06
2.50593e-06
-2.80405e-06
2.83323e-06
-3.37189e-06
3.13463e-06
-3.97094e-06
3.41174e-06
-4.59813e-06
3.66675e-06
-5.25073e-06
3.90157e-06
-5.9264e-06
4.11708e-06
-6.62248e-06
4.31257e-06
-7.33622e-06
4.48537e-06
-8.06374e-06
4.63045e-06
-8.80057e-06
4.74031e-06
-9.54015e-06
4.80488e-06
-1.02748e-05
4.8118e-06
-1.09939e-05
4.74661e-06
-1.16856e-05
4.59357e-06
-1.23339e-05
4.33615e-06
-1.29223e-05
3.9584e-06
-1.34298e-05
3.44572e-06
-1.38358e-05
2.7867e-06
-1.41155e-05
1.97394e-06
-1.42465e-05
1.00631e-06
-1.42033e-05
-1.10669e-07
-1.39656e-05
-1.36237e-06
-1.3512e-05
-2.72565e-06
-1.28302e-05
-4.16679e-06
-1.19099e-05
-5.64383e-06
-1.07536e-05
-7.1058e-06
-9.36925e-06
-8.49789e-06
-7.77875e-06
-9.76273e-06
-6.00982e-06
-1.0848e-05
-4.10105e-06
-1.17068e-05
-2.09442e-06
-1.23038e-05
-3.7665e-08
-1.26129e-05
2.02022e-06
-1.26219e-05
4.03036e-06
-1.23294e-05
5.94467e-06
-1.17484e-05
7.72081e-06
-1.09026e-05
9.31949e-06
-9.82826e-06
1.07129e-05
-8.57029e-06
1.18781e-05
-7.18233e-06
1.28069e-05
-5.72063e-06
1.34961e-05
-4.24141e-06
1.39562e-05
-2.7952e-06
1.41993e-05
-1.42542e-06
1.42471e-05
-1.65772e-07
1.41195e-05
9.59477e-07
1.38419e-05
1.93583e-06
1.34367e-05
2.75708e-06
1.29289e-05
3.42447e-06
1.23392e-05
3.94495e-06
1.1689e-05
4.33006e-06
1.09949e-05
4.59414e-06
1.0273e-05
4.75332e-06
9.53515e-06
4.82399e-06
8.79237e-06
4.82206e-06
8.05231e-06
4.76192e-06
7.32181e-06
4.65606e-06
6.6055e-06
4.51455e-06
5.90743e-06
4.34496e-06
5.23035e-06
4.15232e-06
4.57689e-06
3.93932e-06
3.94927e-06
3.70664e-06
3.35022e-06
3.45339e-06
2.78291e-06
3.17768e-06
2.25141e-06
2.87738e-06
1.7606e-06
2.55095e-06
1.31644e-06
2.1985e-06
9.25772e-07
1.82296e-06
5.95933e-07
1.43147e-06
3.33889e-07
1.03684e-06
1.45513e-07
6.58302e-07
3.40349e-08
3.20148e-07
5.98418e-08
-4.27489e-08
6.2611e-08
-1.79729e-07
4.04837e-07
-4.06746e-07
8.32886e-07
-7.16192e-07
1.29227e-06
-1.0984e-06
1.75927e-06
-1.54297e-06
2.2135e-06
-2.04004e-06
2.6421e-06
-2.58114e-06
3.0392e-06
-3.15919e-06
3.40345e-06
-3.76853e-06
3.7363e-06
-4.40502e-06
4.04064e-06
-5.06548e-06
4.31969e-06
-5.74752e-06
4.57604e-06
-6.44878e-06
4.81093e-06
-7.16709e-06
5.02366e-06
-7.8996e-06
5.21114e-06
-8.64313e-06
5.36761e-06
-9.39292e-06
5.4844e-06
-1.01434e-05
5.54999e-06
-1.08863e-05
5.55013e-06
-1.16124e-05
5.46833e-06
-1.23088e-05
5.28635e-06
-1.29615e-05
4.98534e-06
-1.35524e-05
4.54661e-06
-1.40627e-05
3.95335e-06
-1.44695e-05
3.1917e-06
-1.47508e-05
2.25294e-06
-1.48802e-05
1.13437e-06
-1.4835e-05
-1.58026e-07
-1.45893e-05
-1.60943e-06
-1.41242e-05
-3.19334e-06
-1.34201e-05
-4.87281e-06
-1.24691e-05
-6.59819e-06
-1.12666e-05
-8.31101e-06
-9.8243e-06
-9.94423e-06
-8.16032e-06
-1.14305e-05
-6.30803e-06
-1.2705e-05
-4.30518e-06
-1.37145e-05
-2.19897e-06
-1.44154e-05
-3.874e-08
-1.47792e-05
2.12279e-06
-1.47895e-05
4.2328e-06
-1.44466e-05
6.24189e-06
-1.37639e-05
8.10214e-06
-1.27707e-05
9.77531e-06
-1.15081e-05
1.12273e-05
-1.00305e-05
1.24397e-05
-8.40102e-06
1.33998e-05
-6.68861e-06
1.4112e-05
-4.95971e-06
1.45836e-05
-3.27442e-06
1.48348e-05
-1.68222e-06
1.48843e-05
-2.21548e-07
1.47582e-05
1.08102e-06
1.44789e-05
2.20971e-06
1.40729e-05
3.15859e-06
1.35621e-05
3.92982e-06
1.29701e-05
4.53217e-06
1.23154e-05
4.9792e-06
1.16166e-05
5.28783e-06
1.08877e-05
5.47661e-06
1.01418e-05
5.56457e-06
9.3881e-06
5.56988e-06
8.63519e-06
5.50916e-06
7.88868e-06
5.39669e-06
7.15362e-06
5.24407e-06
6.43324e-06
5.06e-06
5.73049e-06
4.8503e-06
5.04741e-06
4.61806e-06
4.38629e-06
4.36399e-06
3.74955e-06
4.08686e-06
3.1405e-06
3.78411e-06
2.56336e-06
3.45258e-06
2.02364e-06
3.0894e-06
1.52834e-06
2.69315e-06
1.08608e-06
2.26519e-06
7.06602e-07
1.81136e-06
4.00126e-07
1.34395e-06
1.76225e-07
8.83008e-07
4.17206e-08
4.55508e-07
1.03842e-07
-5.17453e-08
1.11712e-07
-2.1442e-07
5.61543e-07
-4.80712e-07
1.09265e-06
-8.3838e-07
1.64312e-06
-1.27308e-06
2.18697e-06
-1.77054e-06
2.7039e-06
-2.31808e-06
3.18263e-06
-2.9056e-06
3.61954e-06
-3.52506e-06
4.01567e-06
-4.17047e-06
4.37455e-06
-4.83753e-06
4.70071e-06
-5.52334e-06
4.99855e-06
-6.22556e-06
5.27144e-06
-6.94233e-06
5.52098e-06
-7.67147e-06
5.74649e-06
-8.41078e-06
5.9445e-06
-9.1569e-06
6.10849e-06
-9.90603e-06
6.22874e-06
-1.06522e-05
6.29223e-06
-1.13887e-05
6.28301e-06
-1.21056e-05
6.18248e-06
-1.2792e-05
5.97024e-06
-1.3433e-05
5.62484e-06
-1.40133e-05
5.12531e-06
-1.45127e-05
4.45218e-06
-1.49116e-05
3.58968e-06
-1.51854e-05
2.52675e-06
-1.53116e-05
1.25987e-06
-1.52632e-05
-2.06406e-07
-1.50176e-05
-1.85615e-06
-1.45489e-05
-3.6624e-06
-1.38402e-05
-5.58361e-06
-1.28739e-05
-7.5657e-06
-1.16483e-05
-9.53969e-06
-1.0167e-05
-1.14281e-05
-8.45368e-06
-1.31481e-05
-6.53837e-06
-1.46247e-05
-4.46514e-06
-1.57934e-05
-2.28059e-06
-1.66063e-05
-3.90211e-08
-1.70278e-05
2.20398e-06
-1.70407e-05
4.39283e-06
-1.66433e-05
6.47297e-06
-1.5853e-05
8.39718e-06
-1.47023e-05
1.01206e-05
-1.32403e-05
1.16126e-05
-1.15291e-05
1.28487e-05
-9.645e-06
1.38246e-05
-7.67004e-06
1.45416e-05
-5.68371e-06
1.5017e-05
-3.75485e-06
1.52677e-05
-1.93922e-06
1.53202e-05
-2.78391e-07
1.51967e-05
1.19931e-06
1.49247e-05
2.47793e-06
1.45262e-05
3.55215e-06
1.40264e-05
4.42557e-06
1.34446e-05
5.10881e-06
1.28016e-05
5.61771e-06
1.21127e-05
5.97155e-06
1.13932e-05
6.19144e-06
1.06537e-05
6.29876e-06
9.90449e-06
6.31407e-06
9.15224e-06
6.25597e-06
8.40324e-06
6.14054e-06
7.66136e-06
5.9808e-06
6.93017e-06
5.78659e-06
6.21182e-06
5.56444e-06
5.50846e-06
5.31786e-06
4.82183e-06
5.04758e-06
4.15435e-06
4.752e-06
3.50905e-06
4.42778e-06
2.89029e-06
4.07055e-06
2.30388e-06
3.67577e-06
1.7578e-06
3.23992e-06
1.26231e-06
2.76198e-06
8.29913e-07
2.24549e-06
4.74719e-07
1.70112e-06
2.11114e-07
1.14891e-06
5.08334e-08
6.18482e-07
1.58109e-07
-6.26987e-08
1.72096e-07
-2.56069e-07
7.49811e-07
-5.68101e-07
1.39915e-06
-9.79897e-07
2.04916e-06
-1.47111e-06
2.67217e-06
-2.023e-06
3.24959e-06
-2.62009e-06
3.77347e-06
-3.25081e-06
4.24375e-06
-3.90666e-06
4.66471e-06
-4.58155e-06
5.04254e-06
-5.27149e-06
5.3837e-06
-5.97373e-06
5.69387e-06
-6.68642e-06
5.97717e-06
-7.40774e-06
6.23558e-06
-8.1361e-06
6.46834e-06
-8.86913e-06
6.67163e-06
-9.60431e-06
6.83822e-06
-1.03375e-05
6.95731e-06
-1.10641e-05
7.01462e-06
-1.17769e-05
6.99252e-06
-1.2468e-05
6.87061e-06
-1.3126e-05
6.62628e-06
-1.37391e-05
6.23605e-06
-1.4291e-05
5.67637e-06
-1.47657e-05
4.92582e-06
-1.51419e-05
3.96605e-06
-1.54004e-05
2.78457e-06
-1.55156e-05
1.37555e-06
-1.54659e-05
-2.56924e-07
-1.52231e-05
-2.09864e-06
-1.47655e-05
-4.1213e-06
-1.40664e-05
-6.28308e-06
-1.31103e-05
-8.52401e-06
-1.18831e-05
-1.07684e-05
-1.03914e-05
-1.29232e-05
-8.65141e-06
-1.48913e-05
-6.70042e-06
-1.65808e-05
-4.57912e-06
-1.79202e-05
-2.34014e-06
-1.88519e-05
-3.8639e-08
-1.93366e-05
2.26456e-06
-1.93512e-05
4.50859e-06
-1.88956e-05
6.63776e-06
-1.79887e-05
8.59859e-06
-1.66707e-05
1.03499e-05
-1.49965e-05
1.18531e-05
-1.30385e-05
1.30915e-05
-1.08867e-05
1.40572e-05
-8.64064e-06
1.47644e-05
-6.39334e-06
1.52282e-05
-4.22267e-06
1.54758e-05
-2.18868e-06
1.55288e-05
-3.34744e-07
1.54159e-05
1.31071e-06
1.51586e-05
2.73245e-06
1.47826e-05
3.92638e-06
1.43071e-05
4.89783e-06
1.37538e-05
5.65936e-06
1.31386e-05
6.22903e-06
1.24782e-05
6.62839e-06
1.17844e-05
6.88084e-06
1.10688e-05
7.01005e-06
1.03392e-05
7.03862e-06
9.60302e-06
6.98709e-06
8.86499e-06
6.87316e-06
8.12949e-06
6.71118e-06
7.39908e-06
6.51202e-06
6.67618e-06
6.28293e-06
5.96227e-06
6.02781e-06
5.25914e-06
5.74742e-06
4.56865e-06
5.43983e-06
3.89371e-06
5.10092e-06
3.23833e-06
4.72498e-06
2.60844e-06
4.30556e-06
2.01244e-06
3.8365e-06
1.46211e-06
3.31353e-06
9.72688e-07
2.73655e-06
5.62864e-07
2.11296e-06
2.5319e-07
1.46117e-06
6.23087e-08
8.12552e-07
2.22718e-07
-7.70781e-08
2.47351e-07
-3.09322e-07
9.78017e-07
-6.76655e-07
1.76199e-06
-1.15041e-06
2.51816e-06
-1.70262e-06
3.21925e-06
-2.3098e-06
3.8513e-06
-2.95416e-06
4.41213e-06
-3.62336e-06
4.90685e-06
-4.30898e-06
5.34384e-06
-5.0055e-06
5.73226e-06
-5.70936e-06
6.08057e-06
-6.41843e-06
6.3957e-06
-7.13099e-06
6.68245e-06
-7.84572e-06
6.94301e-06
-8.56086e-06
7.17652e-06
-9.27464e-06
7.37875e-06
-9.98417e-06
7.54177e-06
-1.06864e-05
7.6539e-06
-1.13761e-05
7.69964e-06
-1.2048e-05
7.66003e-06
-1.26938e-05
7.51296e-06
-1.33049e-05
7.2342e-06
-1.38691e-05
6.79813e-06
-1.43746e-05
6.17955e-06
-1.48045e-05
5.3547e-06
-1.51437e-05
4.30379e-06
-1.53714e-05
3.01195e-06
-1.54695e-05
1.47232e-06
-1.54127e-05
-3.13626e-07
-1.51805e-05
-2.33234e-06
-1.47433e-05
-4.55852e-06
-1.40783e-05
-6.94985e-06
-1.3156e-05
-9.44672e-06
-1.1962e-05
-1.1965e-05
-1.04878e-05
-1.4399e-05
-8.75495e-06
-1.66281e-05
-6.79406e-06
-1.85451e-05
-4.65251e-06
-2.00668e-05
-2.37929e-06
-2.11302e-05
-3.72851e-08
-2.16839e-05
2.30687e-06
-2.17011e-05
4.58615e-06
-2.11798e-05
6.73684e-06
-2.01455e-05
8.70865e-06
-1.86464e-05
1.04538e-05
-1.67471e-05
1.19406e-05
-1.45279e-05
1.31458e-05
-1.20968e-05
1.40774e-05
-9.57456e-06
1.47494e-05
-7.06979e-06
1.51921e-05
-4.66719e-06
1.5428e-05
-2.42823e-06
1.54874e-05
-3.9546e-07
1.53906e-05
1.40462e-06
1.51637e-05
2.95838e-06
1.48241e-05
4.26359e-06
1.43933e-05
5.32714e-06
1.38862e-05
6.16357e-06
1.332e-05
6.79274e-06
1.27064e-05
7.23829e-06
1.20582e-05
7.52553e-06
1.13836e-05
7.6801e-06
1.06911e-05
7.72638e-06
9.98613e-06
7.68655e-06
9.27397e-06
7.57971e-06
8.5578e-06
7.42144e-06
7.84072e-06
7.22349e-06
7.12443e-06
6.99383e-06
6.41067e-06
6.73673e-06
5.70065e-06
6.45307e-06
4.99615e-06
6.14069e-06
4.29941e-06
5.79478e-06
3.61403e-06
5.4084e-06
2.94535e-06
4.97306e-06
2.30173e-06
4.47962e-06
1.69561e-06
3.91971e-06
1.14471e-06
3.28803e-06
6.7246e-07
2.58631e-06
3.07171e-07
1.82824e-06
7.71164e-08
1.04468e-06
3.00113e-07
-9.79708e-08
3.43996e-07
-3.82423e-07
1.25948e-06
-8.18624e-07
2.19475e-06
-1.36368e-06
3.05945e-06
-1.98075e-06
3.83207e-06
-2.642e-06
4.50809e-06
-3.32878e-06
5.09414e-06
-4.02918e-06
5.60215e-06
-4.7359e-06
6.04514e-06
-5.44445e-06
6.43521e-06
-6.15227e-06
6.78258e-06
-6.85762e-06
7.09513e-06
-7.55928e-06
7.37804e-06
-8.25576e-06
7.63356e-06
-8.94562e-06
7.86059e-06
-9.62658e-06
8.05444e-06
-1.02964e-05
8.20662e-06
-1.09513e-05
8.3046e-06
-1.15875e-05
8.33201e-06
-1.21991e-05
8.26869e-06
-1.27803e-05
8.09145e-06
-1.33223e-05
7.77453e-06
-1.3817e-05
7.29112e-06
-1.42522e-05
6.61427e-06
-1.46175e-05
5.71918e-06
-1.48974e-05
4.58421e-06
-1.50795e-05
3.19371e-06
-1.51446e-05
1.5386e-06
-1.50778e-05
-3.80544e-07
-1.48546e-05
-2.55394e-06
-1.44546e-05
-4.95871e-06
-1.3844e-05
-7.55883e-06
-1.29946e-05
-1.02969e-05
-1.18697e-05
-1.30891e-05
-1.04584e-05
-1.58123e-05
-8.76697e-06
-1.83202e-05
-6.83411e-06
-2.04807e-05
-4.69591e-06
-2.2207e-05
-2.40724e-06
-2.34217e-05
-3.4718e-08
-2.4059e-05
2.34037e-06
-2.40786e-05
4.63661e-06
-2.34793e-05
6.78539e-06
-2.22961e-05
8.73019e-06
-2.05958e-05
1.04347e-05
-1.84534e-05
1.18593e-05
-1.59563e-05
1.29955e-05
-1.32341e-05
1.3853e-05
-1.04362e-05
1.44693e-05
-7.68737e-06
1.4873e-05
-5.07418e-06
1.50987e-05
-2.65441e-06
1.51666e-05
-4.65683e-07
1.51022e-05
1.46896e-06
1.49199e-05
3.13893e-06
1.46394e-05
4.54363e-06
1.42727e-05
5.69172e-06
1.38359e-05
6.5989e-06
1.33391e-05
7.28665e-06
1.2795e-05
7.77986e-06
1.22114e-05
8.10546e-06
1.15974e-05
8.29041e-06
1.09586e-05
8.36056e-06
1.03013e-05
8.33926e-06
9.62911e-06
8.24676e-06
8.94604e-06
8.09956e-06
8.25437e-06
7.91021e-06