/*--------------------------------*- C++ -*----------------------------------*\
| =========                 |                                                 |
| \\      /  F ield         | OpenFOAM: The Open Source CFD Toolbox           |
|  \\    /   O peration     | Version:  2412                                  |
|   \\  /    A nd           | Website:  www.openfoam.com                      |
|    \\/     M anipulation  |                                                 |
\*---------------------------------------------------------------------------*/
FoamFile
{
    version     2.0;
    format      ascii;
    arch        "LSB;label=32;scalar=64";
    class       surfaceScalarField;
    location    "5.75";
    object      alphaPhi0.lava;
}
// * * * * * * * * * * * * * * * * * * * * * * * * * * * * * * * * * * * * * //

dimensions      [0 3 -1 0 0 0 0];

oriented        oriented;

internalField   nonuniform List<scalar> 
12640
(
2.16794e-08
-1.72725e-08
3.81973e-08
-6.3574e-08
2.38637e-08
-8.1837e-08
-2.38668e-08
-3.68977e-08
-7.81784e-08
6.24644e-08
-9.3938e-08
1.58518e-07
-4.45105e-08
1.77812e-07
5.25316e-08
8.33e-08
1.39056e-07
-8.91769e-08
1.51707e-07
-2.41134e-07
6.70075e-08
-2.68862e-07
-7.53581e-08
-1.339e-07
-1.90722e-07
1.01377e-07
-2.01064e-07
3.02028e-07
-8.78821e-08
3.40225e-07
8.97108e-08
1.78052e-07
2.26651e-07
-1.01066e-07
2.35836e-07
-3.36296e-07
1.04411e-07
-3.84796e-07
-9.4521e-08
-2.10421e-07
-2.43879e-07
9.04678e-08
-2.53377e-07
3.43963e-07
-1.15191e-07
4.01831e-07
9.04015e-08
2.30082e-07
2.43093e-07
-7.09975e-08
2.54634e-07
-3.27171e-07
1.20761e-07
-3.93416e-07
-7.80878e-08
-2.37469e-07
-2.26372e-07
4.51361e-08
-2.41929e-07
2.90932e-07
-1.22004e-07
3.64892e-07
5.92132e-08
2.35339e-07
1.97364e-07
-1.44435e-08
2.18956e-07
-2.40398e-07
1.20415e-07
-3.21973e-07
-3.54872e-08
-2.26388e-07
-1.60076e-07
-1.88459e-08
-1.89715e-07
1.8175e-07
-1.17675e-07
2.71506e-07
8.47633e-09
2.14547e-07
1.18298e-07
5.39791e-08
1.57874e-07
-1.19422e-07
1.15149e-07
-2.18556e-07
2.0191e-08
-2.02321e-07
-7.55136e-08
-8.94696e-08
-1.26665e-07
5.78328e-08
-1.1408e-07
1.67818e-07
-4.94109e-08
1.92216e-07
3.40811e-08
1.24841e-07
9.7946e-08
6.96392e-10
1.14571e-07
-1.21324e-07
7.75435e-08
-1.8432e-07
3.77922e-09
-1.58103e-07
-7.30803e-08
-5.34634e-08
-1.16423e-07
8.0709e-08
-1.03288e-07
1.78312e-07
-3.69075e-08
1.8762e-07
5.19651e-08
9.91799e-08
1.18062e-07
-4.54196e-08
1.24451e-07
-1.71583e-07
6.38464e-08
-2.09988e-07
-3.44225e-08
-1.35578e-07
-1.1788e-07
1.53184e-08
-1.39236e-07
1.61902e-07
-8.40249e-08
2.22651e-07
1.91697e-08
1.61822e-07
1.13409e-07
1.13602e-08
1.45545e-07
-1.45897e-07
9.71905e-08
-2.22883e-07
-4.33581e-09
-1.77737e-07
-1.02023e-07
-3.6896e-08
-1.42633e-07
1.21392e-07
-1.07077e-07
2.12371e-07
-1.91371e-08
1.91171e-07
7.22177e-08
7.37999e-08
1.24396e-07
-7.68452e-08
1.25382e-07
-1.87934e-07
9.01702e-08
-2.15201e-07
4.07416e-08
-1.60827e-07
-5.07851e-08
-9.4946e-09
2.11746e-08
4.01866e-08
-3.06875e-08
7.60716e-08
-9.54252e-08
5.82439e-08
-1.06231e-07
-2.10886e-08
-3.39023e-08
-1.13715e-07
9.36296e-08
-1.49444e-07
1.98138e-07
-8.6236e-08
1.97154e-07
5.25587e-08
6.48028e-08
1.8414e-07
-1.37518e-07
2.16595e-07
-2.8861e-07
1.12574e-07
-2.81713e-07
-7.77309e-08
-9.89833e-08
-2.40708e-07
1.65508e-07
-2.6901e-07
3.55257e-07
-1.32941e-07
3.46557e-07
9.43833e-08
1.30012e-07
2.77581e-07
-1.75874e-07
3.01872e-07
-3.91598e-07
1.46252e-07
-3.84896e-07
-1.00391e-07
-1.534e-07
-2.91804e-07
1.7078e-07
-3.13352e-07
3.9877e-07
-1.51981e-07
3.97748e-07
9.62228e-08
1.69775e-07
2.84963e-07
-1.5078e-07
3.05912e-07
-3.78592e-07
1.51871e-07
-3.8678e-07
-8.24324e-08
-1.7851e-07
-2.59973e-07
1.20068e-07
-2.83102e-07
3.37855e-07
-1.47645e-07
3.58513e-07
6.06586e-08
1.82714e-07
2.21299e-07
-8.02788e-08
2.49699e-07
-2.81498e-07
1.41424e-07
-3.17589e-07
-3.28793e-08
-1.83109e-07
-1.73906e-07
3.59431e-08
-2.1074e-07
2.17458e-07
-1.35469e-07
2.71545e-07
6.73541e-10
1.83457e-07
1.21944e-07
1.1912e-08
1.70173e-07
-1.49766e-07
1.30975e-07
-2.24023e-07
3.3655e-08
-1.84096e-07
-6.9785e-08
-5.96074e-08
-1.3189e-07
8.43394e-08
-1.29384e-07
1.8026e-07
-6.88601e-08
1.87471e-07
1.98949e-08
1.06725e-07
9.74768e-08
-2.27198e-08
1.30055e-07
-1.40677e-07
1.02306e-07
-1.91642e-07
2.46616e-08
-1.49475e-07
-6.86598e-08
-3.12667e-08
-1.32635e-07
1.07365e-07
-1.32331e-07
1.96523e-07
-6.26169e-08
1.86798e-07
4.48825e-08
7.75807e-08
1.34597e-07
-7.80056e-08
1.55686e-07
-1.97731e-07
9.1814e-08
-2.14027e-07
-2.60755e-08
-1.13331e-07
-1.33998e-07
5.27598e-08
-1.70242e-07
1.93573e-07
-1.11854e-07
2.29806e-07
1.01124e-08
1.39536e-07
1.27209e-07
-2.78491e-08
1.73198e-07
-1.7916e-07
1.22934e-07
-2.3072e-07
6.55969e-09
-1.55924e-07
-1.09785e-07
1.04461e-09
-1.64041e-07
1.52611e-07
-1.33211e-07
2.18684e-07
-4.09174e-08
1.70337e-07
6.4804e-08
4.18429e-08
1.442e-07
-9.42206e-08
1.72087e-07
-1.72963e-07
1.47022e-07
-1.73671e-07
-9.71836e-08
-7.50936e-08
5.32721e-08
-2.12351e-08
3.64208e-08
7.09797e-08
-4.42648e-08
1.36125e-07
-1.2646e-07
1.09314e-07
-1.45047e-07
-1.06425e-08
-6.3798e-08
-1.55663e-07
8.74894e-08
-2.25308e-07
2.18623e-07
-1.54929e-07
2.33583e-07
3.1845e-08
9.92828e-08
2.26977e-07
-1.20596e-07
3.02135e-07
-2.95407e-07
1.93993e-07
-3.07277e-07
-4.66755e-08
-1.3084e-07
-2.78618e-07
1.41211e-07
-3.5553e-07
3.48149e-07
-2.20091e-07
3.58885e-07
5.48502e-08
1.56368e-07
3.06846e-07
-1.46392e-07
3.82573e-07
-3.71468e-07
2.33082e-07
-3.83368e-07
-5.46845e-08
-1.72241e-07
-3.10284e-07
1.39052e-07
-3.83332e-07
3.68621e-07
-2.33703e-07
3.8434e-07
4.6626e-08
1.81267e-07
2.91707e-07
-1.18501e-07
3.62004e-07
-3.4105e-07
2.25013e-07
-3.63558e-07
-3.10598e-08
-1.82759e-07
-2.55126e-07
8.94654e-08
-3.23933e-07
2.96625e-07
-2.10345e-07
3.28949e-07
8.96374e-09
1.814e-07
2.05476e-07
-5.20459e-08
2.75115e-07
-2.38924e-07
1.92984e-07
-2.841e-07
1.81146e-08
-1.77208e-07
-1.48275e-07
1.12073e-08
-2.21787e-07
1.76229e-07
-1.76451e-07
2.37062e-07
-4.93892e-08
1.74818e-07
8.75296e-08
3.33566e-08
1.68213e-07
-1.10923e-07
1.6232e-07
-1.8981e-07
8.26434e-08
-1.73227e-07
-2.7911e-08
-7.71183e-08
-1.18798e-07
4.93536e-08
-1.52474e-07
1.4787e-07
-1.16853e-07
1.75345e-07
-2.81894e-08
1.20519e-07
7.49947e-08
8.21989e-09
1.4592e-07
-1.10129e-07
1.48833e-07
-1.77725e-07
7.71746e-08
-1.58511e-07
-3.87693e-08
-5.7035e-08
-1.42125e-07
7.93774e-08
-1.76465e-07
1.80909e-07
-1.1741e-07
1.90759e-07
9.4954e-09
9.79599e-08
1.37969e-07
-5.22248e-08
1.95652e-07
-1.79374e-07
1.46078e-07
-2.11486e-07
1.27703e-08
-1.27056e-07
-1.31112e-07
2.98535e-08
-2.03729e-07
1.72493e-07
-1.62638e-07
2.2048e-07
-3.06389e-08
1.46568e-07
1.17138e-07
-7.21815e-09
1.97573e-07
-1.54076e-07
1.67971e-07
-2.13052e-07
4.89133e-08
-1.55142e-07
-9.13619e-08
-1.75428e-08
-1.78495e-07
1.21265e-07
-1.71681e-07
1.88868e-07
-7.79904e-08
1.59132e-07
6.00508e-08
6.05395e-08
1.70043e-07
-5.18964e-08
1.93123e-07
-1.29972e-07
-1.15952e-07
-1.18667e-07
5.03828e-08
-1.04755e-07
9.57673e-08
-8.15712e-09
5.89826e-08
1.24416e-07
-5.19486e-08
1.99466e-07
-1.73171e-07
1.47196e-07
-2.11629e-07
-2.43391e-08
-1.1368e-07
-2.17577e-07
8.51874e-08
-3.00822e-07
2.69584e-07
-1.98003e-07
3.1317e-07
4.95985e-08
1.65075e-07
2.97267e-07
-1.05236e-07
3.83913e-07
-3.40215e-07
2.38308e-07
-3.88837e-07
-6.65308e-08
-2.0515e-07
-3.50714e-07
1.14378e-07
-4.36822e-07
3.82979e-07
-2.62863e-07
4.3594e-07
7.43164e-08
2.33748e-07
3.74983e-07
-1.0976e-07
4.58074e-07
-3.93659e-07
2.72488e-07
-4.5056e-07
-7.15255e-08
-2.47367e-07
-3.7011e-07
9.55877e-08
-4.49503e-07
3.77957e-07
-2.69043e-07
4.39078e-07
5.87517e-08
2.50957e-07
3.40058e-07
-7.02525e-08
4.16712e-07
-3.37541e-07
2.56209e-07
-4.03985e-07
-3.69677e-08
-2.44198e-07
-2.90363e-07
3.91021e-08
-3.66641e-07
2.81997e-07
-2.3816e-07
3.55551e-07
7.40961e-09
2.34001e-07
2.26961e-07
-7.45936e-10
3.0623e-07
-2.1432e-07
2.18422e-07
-2.97392e-07
2.7736e-08
-2.20498e-07
-1.56483e-07
-3.95568e-08
-2.42708e-07
1.4373e-07
-2.00883e-07
2.39027e-07
-6.74183e-08
2.09947e-07
8.34607e-08
8.35351e-08
1.80604e-07
-7.15306e-08
1.86861e-07
-1.81631e-07
1.08752e-07
-2.00657e-07
-1.32369e-08
-1.25937e-07
-1.24597e-07
4.88028e-09
-1.77994e-07
1.3157e-07
-1.50195e-07
1.96339e-07
-5.14514e-08
1.67977e-07
7.59756e-08
5.68276e-08
1.72624e-07
-8.66416e-08
1.87761e-07
-1.92217e-07
1.06549e-07
-2.03201e-07
-3.65397e-08
-1.07597e-07
-1.6954e-07
5.04973e-08
-2.1859e-07
1.89314e-07
-1.50121e-07
2.31589e-07
5.30158e-09
1.48782e-07
1.64831e-07
-1.8834e-08
2.37902e-07
-1.80764e-07
1.79253e-07
-2.45835e-07
1.82455e-08
-1.75078e-07
-1.5534e-07
-6.18308e-09
-2.42571e-07
1.66573e-07
-1.93644e-07
2.46282e-07
-3.73711e-08
1.89528e-07
1.36286e-07
3.08403e-08
2.29846e-07
-1.38879e-07
1.94596e-07
-2.26355e-07
5.58476e-08
-1.8903e-07
-1.05651e-07
-5.57087e-08
-2.00932e-07
9.55919e-08
-1.79762e-07
1.85804e-07
-5.37694e-08
1.76835e-07
9.39634e-08
8.19565e-08
1.63187e-07
-4.47552e-08
-9.84348e-08
-9.25485e-08
-6.33022e-10
-1.46726e-07
9.40923e-08
-1.1865e-07
1.50053e-07
7.67984e-09
9.37314e-08
1.6955e-07
-6.29286e-08
2.53707e-07
-2.25543e-07
1.78234e-07
-2.7538e-07
-3.6829e-08
-1.51026e-07
-2.66571e-07
9.74377e-08
-3.56029e-07
3.25798e-07
-2.25599e-07
3.81638e-07
6.53214e-08
2.06623e-07
3.44632e-07
-1.1402e-07
4.32437e-07
-3.93358e-07
2.58729e-07
-4.5506e-07
-8.41963e-08
-2.46768e-07
-3.92455e-07
1.19506e-07
-4.75295e-07
4.29557e-07
-2.75484e-07
4.95834e-07
9.19494e-08
2.73369e-07
4.08385e-07
-1.1027e-07
4.85064e-07
-4.30577e-07
2.77889e-07
-5.00815e-07
-8.7419e-08
-2.83066e-07
-3.93976e-07
9.16052e-08
-4.65388e-07
4.04264e-07
-2.68924e-07
4.78789e-07
7.12008e-08
2.82598e-07
3.54013e-07
-6.1179e-08
4.22778e-07
-3.5243e-07
2.52557e-07
-4.32599e-07
-4.48261e-08
-2.71471e-07
-2.95087e-07
2.53935e-08
-3.65079e-07
2.86415e-07
-2.33303e-07
3.74382e-07
9.71938e-09
2.58051e-07
2.23448e-07
1.7975e-08
2.99288e-07
-2.08802e-07
2.14311e-07
-3.07431e-07
3.13207e-08
-2.41863e-07
-1.46235e-07
-6.26917e-08
-2.32733e-07
1.30015e-07
-1.99197e-07
2.42379e-07
-7.68812e-08
2.3007e-07
6.80412e-08
1.11216e-07
1.69546e-07
-5.05907e-08
1.88569e-07
-1.79436e-07
1.23443e-07
-2.19791e-07
5.58768e-09
-1.57061e-07
-1.14062e-07
-2.12731e-08
-1.83387e-07
1.25666e-07
-1.68872e-07
2.15155e-07
-7.17833e-08
2.01845e-07
6.71411e-08
8.68901e-08
1.81256e-07
-7.76962e-08
2.08573e-07
-2.0988e-07
1.26371e-07
-2.37611e-07
-3.01613e-08
-1.39107e-07
-1.80272e-07
3.98499e-08
-2.3915e-07
2.05322e-07
-1.67342e-07
2.64678e-07
1.76164e-09
1.79959e-07
1.76042e-07
-6.69836e-09
2.55651e-07
-1.93217e-07
1.92098e-07
-2.74406e-07
1.91656e-08
-2.03114e-07
-1.64954e-07
-1.89016e-08
-2.5492e-07
1.74111e-07
-2.0054e-07
2.67719e-07
-3.57566e-08
2.1234e-07
1.42947e-07
4.41132e-08
2.34701e-07
-1.3896e-07
1.92676e-07
-2.36076e-07
4.85435e-08
-2.01051e-07
-1.09149e-07
-6.42739e-08
-1.87883e-07
9.08074e-08
-1.45846e-07
1.78158e-07
-2.81026e-08
1.54869e-07
6.69733e-08
4.64443e-08
-4.49245e-08
1.00001e-08
-7.24076e-08
-9.67193e-08
1.71864e-08
-1.7952e-07
1.55167e-07
-1.50463e-07
2.12659e-07
1.09959e-08
1.27261e-07
2.11824e-07
-7.23764e-08
3.10002e-07
-2.71116e-07
2.14167e-07
-3.31017e-07
-4.21223e-08
-1.85523e-07
-3.08326e-07
1.02363e-07
-4.0834e-07
3.65241e-07
-2.58344e-07
4.3151e-07
6.84588e-08
2.38807e-07
3.78041e-07
-1.15267e-07
4.74244e-07
-4.23671e-07
2.85316e-07
-4.94649e-07
-8.45935e-08
-2.73398e-07
-4.15035e-07
1.17863e-07
-5.04309e-07
4.49719e-07
-2.95086e-07
5.23781e-07
8.90515e-08
2.93854e-07
4.1918e-07
-1.05408e-07
5.00817e-07
-4.39897e-07
2.90622e-07
-5.16625e-07
-8.11509e-08
-2.97124e-07
-3.9359e-07
8.40519e-08
-4.69151e-07
4.03912e-07
-2.75966e-07
4.84108e-07
6.1421e-08
2.91619e-07
3.43701e-07
-5.05882e-08
4.1656e-07
-3.43339e-07
2.55366e-07
-4.28996e-07
-3.17495e-08
-2.76477e-07
-2.76833e-07
1.22861e-08
-3.51577e-07
2.70703e-07
-2.33704e-07
3.64639e-07
-6.53884e-09
2.61093e-07
1.99198e-07
3.39528e-08
2.8104e-07
-1.87748e-07
2.13855e-07
-2.93394e-07
5.03852e-08
-2.43972e-07
-1.18007e-07
-8.09418e-08
-2.1211e-07
1.05647e-07
-1.99155e-07
2.26427e-07
-9.82329e-08
2.32749e-07
3.7667e-08
1.31769e-07
1.48414e-07
-2.39453e-08
1.89621e-07
-1.62603e-07
1.462e-07
-2.23068e-07
3.63428e-08
-1.78673e-07
-9.38124e-08
-4.83078e-08
-1.85573e-07
1.09408e-07
-1.91685e-07
2.19281e-07
-1.01113e-07
2.23633e-07
4.87679e-08
1.13192e-07
1.84025e-07
-6.22522e-08
2.29666e-07
-2.13644e-07
1.52452e-07
-2.57323e-07
-1.42703e-08
-1.62534e-07
-1.82521e-07
2.61062e-08
-2.56344e-07
2.07974e-07
-1.8829e-07
2.80599e-07
-1.12377e-08
1.99155e-07
1.76477e-07
5.4819e-09
2.66825e-07
-1.92901e-07
2.06316e-07
-2.83791e-07
2.91451e-08
-2.15798e-07
-1.62248e-07
-2.87922e-08
-2.58028e-07
1.69777e-07
-2.06084e-07
2.68399e-07
-4.13887e-08
2.16372e-07
1.37331e-07
5.0768e-08
2.28168e-07
-1.29319e-07
1.86059e-07
-2.23744e-07
4.66468e-08
-1.89249e-07
-9.96572e-08
-6.03084e-08
-1.67474e-07
7.71602e-08
-1.33725e-07
1.41146e-07
-5.05357e-08
1.07346e-07
2.42249e-08
1.38025e-07
-1.14077e-07
3.69227e-08
-9.3775e-08
-1.30118e-07
4.97658e-08
-2.42859e-07
2.06074e-07
-1.91249e-07
2.66143e-07
1.6183e-08
1.61217e-07
2.56958e-07
-7.55581e-08
3.66221e-07
-3.09459e-07
2.48311e-07
-3.82935e-07
-4.81349e-08
-2.22983e-07
-3.48198e-07
9.75802e-08
-4.57067e-07
3.92395e-07
-2.88364e-07
4.73364e-07
7.12437e-08
2.72835e-07
4.07889e-07
-1.04449e-07
5.11477e-07
-4.37676e-07
3.09378e-07
-5.23035e-07
-8.36713e-08
-3.01096e-07
-4.33219e-07
1.02602e-07
-5.28709e-07
4.51032e-07
-3.12888e-07
5.38534e-07
8.39792e-08
3.14772e-07
4.25304e-07
-8.63793e-08
5.12508e-07
-4.29356e-07
3.02542e-07
-5.18379e-07
-7.20202e-08
-3.1107e-07
-3.88674e-07
6.27172e-08
-4.69756e-07
3.84018e-07
-2.83243e-07
4.75434e-07
4.83129e-08
2.99995e-07
3.293e-07
-2.74242e-08
4.08237e-07
-3.16117e-07
2.59368e-07
-4.12166e-07
-1.50976e-08
-2.80288e-07
-2.55078e-07
-1.1602e-08
-3.36967e-07
2.38985e-07
-2.36022e-07
3.42836e-07
-2.63644e-08
2.62282e-07
1.72134e-07
5.84785e-08
2.62542e-07
-1.53244e-07
2.15768e-07
-2.68611e-07
7.27906e-08
-2.43449e-07
-8.76528e-08
-1.05252e-07
-1.91857e-07
7.05234e-08
-2.01578e-07
2.00966e-07
-1.22428e-07
2.31777e-07
5.89526e-09
1.55695e-07
1.28072e-07
1.07368e-08
1.9292e-07
-1.3734e-07
1.71066e-07
-2.21471e-07
6.77449e-08
-2.00888e-07
-7.4577e-08
-8.07654e-08
-1.89495e-07
8.55751e-08
-2.15651e-07
2.17114e-07
-1.30301e-07
2.43205e-07
3.14936e-08
1.42402e-07
1.87812e-07
-3.99593e-08
2.50814e-07
-2.09667e-07
1.77599e-07
-2.72107e-07
5.36415e-10
-1.86508e-07
-1.84969e-07
6.18256e-09
-2.7247e-07
2.01555e-07
-2.07539e-07
2.89092e-07
-2.31606e-08
2.16643e-07
1.76391e-07
2.30117e-08
2.75917e-07
-1.82572e-07
2.17988e-07
-2.83594e-07
3.76598e-08
-2.24494e-07
-1.58831e-07
-4.26904e-08
-2.58207e-07
1.55181e-07
-2.07593e-07
2.57604e-07
-4.37694e-08
2.13465e-07
1.32339e-07
5.85651e-08
2.18875e-07
-1.10937e-07
1.73952e-07
-1.99724e-07
3.66148e-08
-1.69935e-07
-1.04657e-07
-5.81001e-08
-1.66842e-07
5.71792e-08
-1.31891e-07
1.10817e-07
7.50502e-08
2.08017e-07
-8.60337e-08
1.79254e-07
-1.62436e-07
1.84872e-08
-1.10268e-07
-1.91033e-07
5.4715e-08
-3.03295e-07
2.41957e-07
-2.2358e-07
3.16609e-07
2.53004e-08
1.97103e-07
2.98524e-07
-7.38696e-08
4.14199e-07
-3.40763e-07
2.75438e-07
-4.28233e-07
-5.4505e-08
-2.57968e-07
-3.80301e-07
8.89619e-08
-4.93749e-07
4.10827e-07
-3.09188e-07
5.0628e-07
7.43774e-08
3.02962e-07
4.28358e-07
-8.99426e-08
5.34728e-07
-4.42315e-07
3.23053e-07
-5.4176e-07
-8.32609e-08
-3.24487e-07
-4.41574e-07
8.38033e-08
-5.38669e-07
4.43125e-07
-3.20069e-07
5.43878e-07
7.96282e-08
3.31521e-07
4.22099e-07
-6.41106e-08
5.10516e-07
-4.10412e-07
3.04401e-07
-5.1169e-07
-6.3832e-08
-3.21354e-07
-3.75613e-07
3.85415e-08
-4.58316e-07
3.56943e-07
-2.81567e-07
4.59688e-07
3.63999e-08
3.05366e-07
3.08414e-07
-1.94399e-09
3.90063e-07
-2.83163e-07
2.55832e-07
-3.89795e-07
8.47974e-11
-2.81779e-07
-2.2872e-07
-3.72211e-08
-3.14897e-07
2.03012e-07
-2.32267e-07
3.16923e-07
-4.43512e-08
2.6167e-07
1.42449e-07
8.40312e-08
2.38972e-07
-1.15929e-07
2.12948e-07
-2.40979e-07
9.28732e-08
-2.41408e-07
-5.66288e-08
-1.29779e-07
-1.68703e-07
3.39242e-08
-2.00313e-07
1.73621e-07
-1.43619e-07
2.29258e-07
-2.46358e-08
1.78853e-07
1.06723e-07
4.56081e-08
1.93223e-07
-1.1094e-07
1.92036e-07
-2.18054e-07
9.60618e-08
-2.21226e-07
-5.5927e-08
-1.12195e-07
-1.90774e-07
6.11482e-08
-2.34665e-07
2.12646e-07
-1.54667e-07
2.5969e-07
1.61106e-08
1.69385e-07
1.89049e-07
-1.75453e-08
2.65906e-07
-2.02879e-07
1.96362e-07
-2.82645e-07
1.23808e-08
-2.07133e-07
-1.84875e-07
-1.34051e-08
-2.81579e-07
1.91904e-07
-2.19077e-07
2.92309e-07
-3.11397e-08
2.29688e-07
1.73949e-07
3.95626e-08
2.77312e-07
-1.68931e-07
2.20663e-07
-2.77343e-07
4.08272e-08
-2.27545e-07
-1.53903e-07
-5.44181e-08
-2.50324e-07
1.3795e-07
-1.98321e-07
2.4049e-07
-3.82911e-08
2.03529e-07
1.27481e-07
6.17772e-08
2.00235e-07
-9.33033e-08
1.44803e-07
-1.73656e-07
6.49275e-09
-1.46633e-07
-1.14278e-07
-4.53289e-08
-1.40626e-07
5.9429e-08
8.29009e-08
1.60287e-07
6.7697e-09
2.33134e-07
-1.30648e-07
1.80073e-07
-2.18753e-07
-8.31348e-09
-1.54146e-07
-2.35302e-07
5.10246e-08
-3.49257e-07
2.74923e-07
-2.48548e-07
3.62846e-07
3.30409e-08
2.30518e-07
3.31223e-07
-6.83315e-08
4.50746e-07
-3.61693e-07
2.9559e-07
-4.61463e-07
-5.8307e-08
-2.86058e-07
-4.008e-07
7.75301e-08
-5.16194e-07
4.17626e-07
-3.21762e-07
5.2491e-07
7.43529e-08
3.2418e-07
4.35669e-07
-7.37881e-08
5.42449e-07
-4.35553e-07
3.2809e-07
-5.45737e-07
-7.93906e-08
-3.38088e-07
-4.36447e-07
6.44597e-08
-5.33156e-07
4.24932e-07
-3.18888e-07
5.35219e-07
7.18771e-08
3.38433e-07
4.06148e-07
-4.2345e-08
4.94203e-07
-3.82925e-07
2.9865e-07
-4.92648e-07
-5.26277e-08
-3.22417e-07
-3.51366e-07
1.57761e-08
-4.34455e-07
3.23393e-07
-2.73275e-07
4.33735e-07
2.21578e-08
3.02515e-07
2.78444e-07
2.13241e-08
3.61757e-07
-2.45937e-07
2.46738e-07
-3.59588e-07
1.66861e-08
-2.76224e-07
-1.95651e-07
-5.9961e-08
-2.85083e-07
1.64861e-07
-2.23867e-07
2.85435e-07
-6.26226e-08
2.55109e-07
1.08527e-07
1.06049e-07
2.09933e-07
-7.83862e-08
2.06151e-07
-2.09803e-07
1.11927e-07
-2.34323e-07
-2.37953e-08
-1.50086e-07
-1.42073e-07
-1.14878e-09
-1.95402e-07
1.44418e-07
-1.62295e-07
2.22285e-07
-5.46618e-08
1.96977e-07
8.35631e-08
7.73104e-08
1.89877e-07
-8.41019e-08
2.08879e-07
-2.10522e-07
1.21718e-07
-2.35644e-07
-3.68087e-08
-1.38948e-07
-1.88141e-07
3.7456e-08
-2.4793e-07
2.04207e-07
-1.7445e-07
2.6933e-07
1.31064e-09
1.9029e-07
1.85993e-07
3.0784e-09
2.7377e-07
-1.92267e-07
2.08904e-07
-2.85562e-07
2.2768e-08
-2.20468e-07
-1.8022e-07
-3.02084e-08
-2.82325e-07
1.78725e-07
-2.2305e-07
2.87395e-07
-3.67482e-08
2.34378e-07
1.67057e-07
5.21737e-08
2.69608e-07
-1.5251e-07
2.14451e-07
-2.62919e-07
4.02684e-08
-2.21277e-07
-1.45204e-07
-6.05353e-08
-2.32895e-07
1.19732e-07
-1.78994e-07
2.16303e-07
-2.86949e-08
1.83851e-07
1.16653e-07
5.68967e-08
1.67118e-07
-7.87613e-08
1.02029e-07
-1.43155e-07
-1.21871e-08
-1.08567e-07
-8.08778e-08
-1.3491e-08
4.88264e-08
7.11206e-09
1.10865e-07
1.4837e-07
-6.12219e-09
2.4717e-07
-1.93855e-07
1.98295e-07
-2.80841e-07
-1.34916e-08
-1.88513e-07
-2.66032e-07
5.01849e-08
-3.85733e-07
3.00247e-07
-2.68561e-07
3.97983e-07
3.81749e-08
2.58163e-07
3.53739e-07
-5.84905e-08
4.74639e-07
-3.69788e-07
3.08219e-07
-4.80187e-07
-5.94335e-08
-3.06266e-07
-4.095e-07
6.25264e-08
-5.24572e-07
4.11074e-07
-3.26468e-07
5.27835e-07
7.12063e-08
3.36258e-07
4.30753e-07
-5.50218e-08
5.36222e-07
-4.16021e-07
3.25748e-07
-5.34174e-07
-7.21896e-08
-3.42172e-07
-4.19658e-07
4.35095e-08
-5.14851e-07
3.95387e-07
-3.11263e-07
5.12238e-07
6.09249e-08
3.36097e-07
3.79908e-07
-2.00426e-08
4.66971e-07
-3.46136e-07
2.87613e-07
-4.61271e-07
-3.86592e-08
-3.14984e-07
-3.18727e-07
-6.49164e-09
-4.01905e-07
2.8288e-07
-2.60846e-07
3.97781e-07
5.87573e-09
2.92127e-07
2.42278e-07
4.30728e-08
3.27085e-07
-2.04189e-07
2.34492e-07
-3.2181e-07
3.43878e-08
-2.64135e-07
-1.58637e-07
-8.02122e-08
-2.51031e-07
1.24492e-07
-2.12997e-07
2.48605e-07
-8.08405e-08
2.42848e-07
7.28657e-08
1.24567e-07
1.78489e-07
-4.07778e-08
1.97212e-07
-1.75233e-07
1.29609e-07
-2.22126e-07
8.71314e-09
-1.65854e-07
-1.14513e-07
-3.4349e-08
-1.88325e-07
1.13418e-07
-1.78158e-07
2.10485e-07
-8.24807e-08
2.0943e-07
6.05878e-08
1.05349e-07
1.84043e-07
-5.68e-08
2.21423e-07
-1.98268e-07
1.43501e-07
-2.43279e-07
-1.86828e-08
-1.60452e-07
-1.82534e-07
1.43967e-08
-2.55509e-07
1.91048e-07
-1.88974e-07
2.71173e-07
-1.19249e-08
2.0455e-07
1.79487e-07
2.20689e-08
2.74822e-07
-1.77067e-07
2.15114e-07
-2.79977e-07
3.11129e-08
-2.26044e-07
-1.71878e-07
-4.44046e-08
-2.75555e-07
1.61383e-07
-2.19901e-07
2.73707e-07
-3.97456e-08
2.3044e-07
1.56648e-07
6.1008e-08
2.5412e-07
-1.3297e-07
2.00551e-07
-2.40167e-07
3.65313e-08
-2.0588e-07
-1.33364e-07
-6.13978e-08
-2.08256e-07
1.0044e-07
-1.53812e-07
1.85663e-07
-1.96333e-08
1.56087e-07
9.94861e-08
4.71241e-08
1.31621e-07
-6.19978e-08
7.92861e-08
-1.0313e-07
7.53311e-09
-6.51953e-08
-2.4444e-09
-1.66214e-07
1.57189e-07
-3.5643e-08
1.35109e-07
1.67041e-07
-4.19059e-08
2.96222e-07
-2.33073e-07
2.28053e-07
-3.15319e-07
-1.64144e-08
-2.11863e-07
-2.90861e-07
4.47786e-08
-4.11927e-07
3.12019e-07
-2.81101e-07
4.18861e-07
4.15242e-08
2.78543e-07
3.64998e-07
-4.48375e-08
4.84098e-07
-3.64869e-07
3.11904e-07
-4.8383e-07
-5.8524e-08
-3.17808e-07
-4.06332e-07
4.4873e-08
-5.18312e-07
3.92153e-07
-3.22389e-07
5.15823e-07
6.60476e-08
3.39306e-07
4.14616e-07
-3.45274e-08
5.16475e-07
-3.85443e-07
3.15472e-07
-5.08867e-07
-6.31859e-08
-3.37587e-07
-3.93089e-07
2.17393e-08
-4.84978e-07
3.56705e-07
-2.96923e-07
4.7746e-07
4.86102e-08
3.25896e-07
3.45902e-07
2.12923e-09
4.30617e-07
-3.0251e-07
2.71218e-07
-4.20477e-07
-2.39554e-08
-3.00752e-07
-2.80605e-07
-2.77202e-08
-3.62786e-07
2.37895e-07
-2.44317e-07
3.54839e-07
-1.03389e-08
2.7599e-07
2.02979e-07
6.28653e-08
2.88272e-07
-1.60269e-07
2.19182e-07
-2.79324e-07
5.10968e-08
-2.47227e-07
-1.2071e-07
-9.76111e-08
-2.14924e-07
8.40213e-08
-1.99739e-07
2.08991e-07
-9.70012e-08
2.26392e-07
3.83333e-08
1.3927e-07
1.46683e-07
-4.9353e-09
1.86202e-07
-1.39458e-07
1.44066e-07
-2.0609e-07
3.82777e-08
-1.76812e-07
-8.78728e-08
-6.41578e-08
-1.79156e-07
8.24184e-08
-1.8958e-07
1.94914e-07
-1.05791e-07
2.16031e-07
3.94406e-08
1.28545e-07
1.75856e-07
-3.047e-08
2.28353e-07
-1.82204e-07
1.5949e-07
-2.4413e-07
-2.99746e-09
-1.75906e-07
-1.74231e-07
-6.91648e-09
-2.56501e-07
1.74048e-07
-1.96754e-07
2.65507e-07
-2.23141e-08
2.11798e-07
1.70042e-07
3.85955e-08
2.68677e-07
-1.58232e-07
2.13992e-07
-2.66583e-07
3.62807e-08
-2.23984e-07
-1.60652e-07
-5.54172e-08
-2.6147e-07
1.41005e-07
-2.09193e-07
2.52481e-07
-3.9255e-08
2.18614e-07
1.43758e-07
6.58195e-08
2.318e-07
-1.11641e-07
1.79601e-07
-2.11084e-07
2.95548e-08
-1.83196e-07
-1.19773e-07
-5.77533e-08
-1.79404e-07
8.1175e-08
-1.25816e-07
1.51916e-07
-9.39131e-09
1.25691e-07
8.85882e-08
3.81414e-08
1.13946e-07
-4.34185e-08
7.50496e-08
-7.10821e-08
-4.02816e-08
-2.53626e-07
1.09713e-07
-2.09193e-07
1.98475e-07
-1.63899e-08
1.40581e-07
2.19602e-07
-3.70335e-08
3.36089e-07
-2.41534e-07
2.43014e-07
-3.3515e-07
-2.29965e-08
-2.31491e-07
-3.06147e-07
3.33988e-08
-4.234e-07
3.10142e-07
-2.84132e-07
4.24474e-07
4.2877e-08
2.89942e-07
3.63816e-07
-2.88851e-08
4.78065e-07
-3.47599e-07
3.06171e-07
-4.72008e-07
-5.55828e-08
-3.19447e-07
-3.91167e-07
2.62429e-08
-4.97365e-07
3.62352e-07
-3.09473e-07
4.89516e-07
5.9157e-08
3.32689e-07
3.87836e-07
-1.41021e-08
4.83822e-07
-3.46021e-07
2.97457e-07
-4.71317e-07
-5.29274e-08
-3.24204e-07
-3.57879e-07
9.95507e-10
-4.44633e-07
3.11574e-07
-2.76185e-07
4.32961e-07
3.5725e-08
3.08079e-07
3.05658e-07
2.23563e-08
3.86501e-07
-2.54974e-07
2.49787e-07
-3.72669e-07
-9.51135e-09
-2.80217e-07
-2.38756e-07
-4.61962e-08
-3.18551e-07
1.91395e-07
-2.23927e-07
3.07404e-07
-2.53337e-08
2.54727e-07
1.6239e-07
7.91238e-08
2.46721e-07
-1.16999e-07
2.00907e-07
-2.34546e-07
6.55495e-08
-2.26146e-07
-8.37026e-08
-1.10732e-07
-1.78035e-07
4.60435e-08
-1.84038e-07
1.68827e-07
-1.09783e-07
2.06364e-07
6.67152e-09
1.48896e-07
1.15606e-07
2.68221e-08
1.72922e-07
-1.04487e-07
1.53982e-07
-1.8681e-07
6.33055e-08
-1.81904e-07
-6.30551e-08
-8.85704e-08
-1.67614e-07
5.32038e-08
-1.95337e-07
1.76187e-07
-1.23212e-07
2.15993e-07
2.08484e-08
1.45246e-07
1.65038e-07
-6.69182e-09
2.2865e-07
-1.63045e-07
1.68587e-07
-2.37772e-07
9.68259e-09
-1.8407e-07
-1.63044e-07
-2.50931e-08
-2.50204e-07
1.54099e-07
-1.97037e-07
2.52376e-07
-2.94296e-08
2.11274e-07
1.57658e-07
5.1455e-08
2.55053e-07
-1.36905e-07
2.05197e-07
-2.46e-07
3.80034e-08
-2.14106e-07
-1.46755e-07
-6.22744e-08
-2.4029e-07
1.19022e-07
-1.91172e-07
2.25037e-07
-3.53574e-08
1.99511e-07
1.2876e-07
6.60942e-08
2.03618e-07
-9.01745e-08
1.52837e-07
-1.77976e-07
1.99711e-08
-1.55261e-07
-1.05071e-07
-5.01994e-08
-1.47326e-07
6.37888e-08
-9.31811e-08
1.19329e-07
9.04536e-09
9.64702e-08
8.48029e-08
2.64142e-08
9.16536e-08
-3.78027e-08
-4.77205e-08
-1.99467e-07
-6.066e-09
-2.6429e-07
1.38701e-07
-1.88801e-07
2.32906e-07
1.75289e-08
1.76872e-07
2.4496e-07
-1.92287e-08
3.49173e-07
-2.41405e-07
2.44029e-07
-3.44054e-07
-2.77217e-08
-2.43795e-07
-3.08043e-07
1.90611e-08
-4.18787e-07
2.95151e-07
-2.77686e-07
4.13754e-07
4.19382e-08
2.90928e-07
3.50261e-07
-1.17229e-08
4.56993e-07
-3.1851e-07
2.91462e-07
-4.44723e-07
-5.07221e-08
-3.10647e-07
-3.64891e-07
7.59412e-09
-4.63017e-07
3.22774e-07
-2.88605e-07
4.49684e-07
5.0765e-08
3.16358e-07
3.51827e-07
5.23369e-09
4.40139e-07
-2.99352e-07
2.72865e-07
-4.22861e-07
-4.17646e-08
-3.02297e-07
-3.15794e-07
-1.76456e-08
-3.95987e-07
2.61903e-07
-2.50303e-07
3.80417e-07
2.2732e-08
2.83087e-07
2.61112e-07
3.95302e-08
3.36865e-07
-2.05578e-07
2.24509e-07
-3.19643e-07
4.11619e-09
-2.53856e-07
-1.95115e-07
-6.07983e-08
-2.7131e-07
1.45423e-07
-2.00695e-07
2.57223e-07
-3.84761e-08
2.28756e-07
1.22334e-07
9.07227e-08
2.04292e-07
-7.63336e-08
1.80449e-07
-1.89071e-07
7.70619e-08
-2.01192e-07
-4.92506e-08
-1.1846e-07
-1.41903e-07
1.23645e-08
-1.6643e-07
1.29504e-07
-1.18493e-07
1.82942e-07
-2.07232e-08
1.52373e-07
8.64622e-08
5.28709e-08
1.57696e-07
-7.15154e-08
1.58715e-07
-1.64392e-07
8.26847e-08
-1.8017e-07
-4.0938e-08
-1.06188e-07
-1.53878e-07
2.6794e-08
-1.94926e-07
1.54423e-07
-1.33964e-07
2.0857e-07
5.393e-09
1.54338e-07
1.51718e-07
1.36671e-08
2.22062e-07
-1.41021e-07
1.70405e-07
-2.23799e-07
1.90448e-08
-1.84194e-07
-1.49149e-07
-3.94066e-08
-2.36711e-07
1.3164e-07
-1.89869e-07
2.31838e-07
-3.32073e-08
2.02682e-07
1.42618e-07
6.00766e-08
2.34469e-07
-1.13805e-07
1.8929e-07
-2.18881e-07
3.65279e-08
-1.9671e-07
-1.30564e-07
-6.46585e-08
-2.13049e-07
9.64304e-08
-1.67108e-07
1.92764e-07
-2.8846e-08
1.74289e-07
1.11999e-07
6.2044e-08
1.7117e-07
-6.97152e-08
1.22457e-07
-1.43069e-07
9.65871e-09
-1.24311e-07
-8.79692e-08
-3.95695e-08
-1.10884e-07
4.93185e-08
-5.62556e-08
8.86575e-08
2.17263e-08
6.4523e-08
6.07173e-08
6.0972e-09
-2.91289e-08
-3.7365e-08
-1.18052e-07
-1.68923e-07
-5.18043e-09
-2.43858e-07
1.77154e-07
-1.79554e-07
2.67343e-07
2.19171e-08
1.96816e-07
2.46089e-07
-6.63321e-09
3.44664e-07
-2.30649e-07
2.36795e-07
-3.36615e-07
-2.9057e-08
-2.46002e-07
-2.9703e-07
2.46575e-09
-3.98788e-07
2.67346e-07
-2.61871e-07
3.87335e-07
3.93627e-08
2.82142e-07
3.25522e-07
6.58588e-09
4.22072e-07
-2.78725e-07
2.68217e-07
-4.03723e-07
-4.46882e-08
-2.92775e-07
-3.29249e-07
-1.10845e-08
-4.17135e-07
2.74971e-07
-2.60639e-07
3.98637e-07
4.16962e-08
2.92009e-07
3.08786e-07
2.34723e-08
3.87774e-07
-2.47231e-07
2.42793e-07
-3.66055e-07
-3.05988e-08
-2.73659e-07
-2.69281e-07
-3.41439e-08
-3.41616e-07
2.09535e-07
-2.20445e-07
3.22354e-07
1.05753e-08
2.52624e-07
2.14754e-07
5.35721e-08
2.84262e-07
-1.56049e-07
1.96502e-07
-2.63676e-07
1.59791e-08
-2.23141e-07
-1.52066e-07
-7.14044e-08
-2.23431e-07
1.01485e-07
-1.75588e-07
2.06186e-07
-4.8843e-08
1.99225e-07
8.49765e-08
9.74959e-08
1.63054e-07
-3.94966e-08
1.58588e-07
-1.44344e-07
8.47686e-08
-1.73176e-07
-1.92348e-08
-1.20606e-07
-1.08255e-07
-1.60937e-08
-1.47517e-07
9.20327e-08
-1.22373e-07
1.5664e-07
-4.23059e-08
1.49533e-07
6.06285e-08
7.25998e-08
1.40993e-07
-4.11659e-08
1.5769e-07
-1.39148e-07
9.52547e-08
-1.71545e-07
-2.25621e-08
-1.16725e-07
-1.38355e-07
3.4973e-09
-1.8804e-07
1.29851e-07
-1.37318e-07
1.93908e-07
-6.19909e-09
1.5589e-07
1.3633e-07
3.0544e-08
2.08651e-07
-1.16407e-07
1.64706e-07
-2.02679e-07
2.46708e-08
-1.76734e-07
-1.33062e-07
-4.99829e-08
-2.16527e-07
1.07104e-07
-1.75566e-07
2.04787e-07
-3.35563e-08
1.86915e-07
1.25542e-07
6.47557e-08
2.07933e-07
-8.95846e-08
1.67238e-07
-1.86635e-07
3.22102e-08
-1.73226e-07
-1.12735e-07
-6.31254e-08
-1.81326e-07
7.40665e-08
-1.38837e-07
1.57637e-07
-2.07898e-08
1.4507e-07
9.40026e-08
5.47158e-08
1.36707e-07
-5.10081e-08
9.1723e-08
-1.08593e-07
1.56487e-09
-9.29141e-08
-6.78986e-08
-2.78807e-08
-7.54046e-08
3.58419e-08
-3.33573e-08
5.73779e-08
1.04649e-08
3.26319e-08
-2.67722e-09
1.32963e-07
-1.56939e-07
1.14431e-08
-1.36217e-07
-1.5669e-07
2.0553e-08
-2.52169e-07
1.85454e-07
-1.83701e-07
2.64689e-07
1.9423e-08
1.99141e-07
2.36127e-07
7.87271e-09
3.2615e-07
-2.06689e-07
2.20605e-07
-3.14237e-07
-2.83808e-08
-2.39322e-07
-2.73937e-07
-1.50451e-08
-3.63733e-07
2.30337e-07
-2.36684e-07
3.49065e-07
3.55513e-08
2.65355e-07
2.90449e-07
2.4538e-08
3.74306e-07
-2.32338e-07
2.37008e-07
-3.5345e-07
-3.78915e-08
-2.68076e-07
-2.8562e-07
-2.84879e-08
-3.61352e-07
2.23113e-07
-2.26431e-07
3.41056e-07
3.25387e-08
2.62168e-07
2.60524e-07
3.95677e-08
3.28718e-07
-1.93622e-07
2.08167e-07
-3.05475e-07
-2.0205e-08
-2.40901e-07
-2.20396e-07
-4.77632e-08
-2.83621e-07
1.57973e-07
-1.87464e-07
2.62954e-07
1.80261e-10
2.19211e-07
1.68712e-07
6.4078e-08
2.30708e-07
-1.09276e-07
1.66441e-07
-2.0838e-07
2.5045e-08
-1.90407e-07
-1.11665e-07
-7.79463e-08
-1.76705e-07
6.17802e-08
-1.49057e-07
1.57254e-07
-5.53407e-08
1.68241e-07
5.2208e-08
9.9707e-08
1.24501e-07
-7.99591e-09
1.35544e-07
-1.02683e-07
8.75708e-08
-1.43995e-07
4.6863e-09
-1.17769e-07
-7.82725e-08
-3.84936e-08
-1.27336e-07
5.81419e-08
-1.20405e-07
1.29196e-07
-5.67146e-08
1.41326e-07
3.89747e-08
8.57973e-08
1.22747e-07
-1.46647e-08
1.50077e-07
-1.12736e-07
1.00019e-07
-1.57361e-07
-8.50361e-09
-1.20557e-07
-1.20974e-07
-1.58853e-08
-1.74161e-07
1.0412e-07
-1.32715e-07
1.73735e-07
-1.36207e-08
1.50824e-07
1.18903e-07
4.35062e-08
1.88336e-07
-9.08756e-08
1.5145e-07
-1.76521e-07
2.65241e-08
-1.63115e-07