/*--------------------------------*- C++ -*----------------------------------*\
| =========                 |                                                 |
| \\      /  F ield         | OpenFOAM: The Open Source CFD Toolbox           |
|  \\    /   O peration     | Version:  2412                                  |
|   \\  /    A nd           | Website:  www.openfoam.com                      |
|    \\/     M anipulation  |                                                 |
\*---------------------------------------------------------------------------*/
FoamFile
{
    version     2.0;
    format      ascii;
    arch        "LSB;label=32;scalar=64";
    class       surfaceScalarField;
    location    "4.55";
    object      phi;
}
// * * * * * * * * * * * * * * * * * * * * * * * * * * * * * * * * * * * * * //

dimensions      [0 3 -1 0 0 0 0];

oriented        oriented;

internalField   nonuniform List<scalar> 
12640
(
-2.15932e-05
2.15932e-05
-3.81026e-05
1.6518e-05
-5.49037e-05
1.68012e-05
-7.05511e-05
1.56466e-05
-8.40674e-05
1.3516e-05
-9.50254e-05
1.09581e-05
-0.000103138
8.11238e-06
-0.000108318
5.17986e-06
-0.000110512
2.19434e-06
-0.000109626
-8.85005e-07
-0.00010582
-3.80613e-06
-9.92584e-05
-6.56155e-06
-9.0157e-05
-9.10148e-06
-7.89715e-05
-1.11856e-05
-6.60824e-05
-1.28891e-05
-5.18938e-05
-1.4189e-05
-3.68224e-05
-1.50715e-05
-2.13104e-05
-1.55121e-05
-5.77922e-06
-1.5531e-05
9.31669e-06
-1.50958e-05
2.35115e-05
-1.4195e-05
3.64962e-05
-1.29849e-05
4.78424e-05
-1.13463e-05
5.73014e-05
-9.4588e-06
6.46301e-05
-7.32853e-06
6.97121e-05
-5.08192e-06
7.25259e-05
-2.81371e-06
7.32816e-05
-7.55672e-07
7.20989e-05
1.18285e-06
6.91456e-05
2.9536e-06
6.45826e-05
4.56332e-06
5.8482e-05
6.10116e-06
5.10825e-05
7.40032e-06
4.27291e-05
8.35421e-06
3.40046e-05
8.72531e-06
2.53361e-05
8.66916e-06
1.7053e-05
8.28357e-06
9.34453e-06
7.70886e-06
2.21545e-06
7.12936e-06
-4.40898e-06
6.62482e-06
-1.07295e-05
6.32088e-06
-1.69576e-05
6.22875e-06
-2.32648e-05
6.30791e-06
-2.97077e-05
6.44355e-06
-3.63091e-05
6.60199e-06
-4.28455e-05
6.53657e-06
-4.90148e-05
6.1693e-06
-5.4458e-05
5.44296e-06
-5.87083e-05
4.25026e-06
-6.15146e-05
2.80656e-06
-6.28343e-05
1.31997e-06
-6.26539e-05
-1.80949e-07
-6.09639e-05
-1.69055e-06
-5.76973e-05
-3.26674e-06
-5.25658e-05
-5.13153e-06
-4.57117e-05
-6.85419e-06
-3.72046e-05
-8.50754e-06
-2.73381e-05
-9.8669e-06
-1.63117e-05
-1.10265e-05
-4.42923e-06
-1.18828e-05
8.01827e-06
-1.24475e-05
2.06991e-05
-1.26807e-05
3.32796e-05
-1.25804e-05
4.54631e-05
-1.21834e-05
5.69468e-05
-1.1483e-05
6.74017e-05
-1.04543e-05
7.65498e-05
-9.14753e-06
8.4033e-05
-7.48247e-06
8.94999e-05
-5.46655e-06
9.26416e-05
-3.14168e-06
9.333e-05
-6.88263e-07
9.14998e-05
1.8305e-06
8.71973e-05
4.30286e-06
8.03901e-05
6.80699e-06
7.11545e-05
9.23596e-06
5.97196e-05
1.14359e-05
4.64581e-05
1.32624e-05
3.21576e-05
1.43017e-05
1.81975e-05
1.3961e-05
1.81976e-05
-2.31927e-05
4.47773e-05
-4.10608e-05
3.43867e-05
-5.91076e-05
3.48501e-05
-7.56882e-05
3.22286e-05
-8.97988e-05
2.76269e-05
-0.000100993
2.21521e-05
-0.000109015
1.6135e-05
-0.000113739
9.90397e-06
-0.000115175
3.63144e-06
-0.000113524
-2.53641e-06
-0.000108881
-8.44902e-06
-0.000101546
-1.38967e-05
-9.1859e-05
-1.87886e-05
-8.01883e-05
-2.28567e-05
-6.66844e-05
-2.63934e-05
-5.18598e-05
-2.90138e-05
-3.6106e-05
-3.08251e-05
-1.98345e-05
-3.17836e-05
-3.47825e-06
-3.18873e-05
1.25243e-05
-3.10988e-05
2.79021e-05
-2.95731e-05
4.21396e-05
-2.72225e-05
5.5143e-05
-2.43497e-05
6.64664e-05
-2.07822e-05
7.5988e-05
-1.68499e-05
8.35487e-05
-1.26426e-05
8.90619e-05
-8.3271e-06
9.22223e-05
-3.91624e-06
9.29625e-05
4.42633e-07
9.14626e-05
4.45396e-06
8.78751e-05
8.15164e-06
8.24679e-05
1.15092e-05
7.55368e-05
1.43322e-05
6.72573e-05
1.66345e-05
5.76294e-05
1.83535e-05
4.67922e-05
1.95066e-05
3.49432e-05
2.01326e-05
2.22347e-05
2.04176e-05
9.03719e-06
2.03274e-05
-4.33531e-06
1.99983e-05
-1.75322e-05
1.95185e-05
-3.02053e-05
1.89026e-05
-4.19927e-05
1.80959e-05
-5.26438e-05
1.70951e-05
-6.18803e-05
1.5839e-05
-6.95474e-05
1.42046e-05
-7.56363e-05
1.22594e-05
-8.01285e-05
9.93597e-06
-8.31197e-05
7.2417e-06
-8.45313e-05
4.2176e-06
-8.41869e-05
9.75143e-07
-8.18194e-05
-2.54815e-06
-7.74927e-05
-6.0162e-06
-7.12482e-05
-9.5105e-06
-6.35896e-05
-1.279e-05
-5.44322e-05
-1.6012e-05
-4.40522e-05
-1.88882e-05
-3.25266e-05
-2.13932e-05
-2.01241e-05
-2.3429e-05
-7.08662e-06
-2.49201e-05
6.3371e-06
-2.58709e-05
1.98454e-05
-2.61886e-05
3.32062e-05
-2.59403e-05
4.60327e-05
-2.50094e-05
5.80793e-05
-2.35291e-05
6.90143e-05
-2.13885e-05
7.85998e-05
-1.87328e-05
8.64098e-05
-1.52922e-05
9.23486e-05
-1.14053e-05
9.61647e-05
-6.95743e-06
9.75789e-05
-2.10205e-06
9.64255e-05
2.98402e-06
9.25004e-05
8.22781e-06
8.58025e-05
1.35055e-05
7.63776e-05
1.86623e-05
6.44422e-05
2.33728e-05
5.03124e-05
2.7393e-05
3.49173e-05
2.96972e-05
1.9782e-05
2.90963e-05
3.79804e-05
-2.41867e-05
6.89643e-05
-4.26997e-05
5.28994e-05
-6.14493e-05
5.36004e-05
-7.8815e-05
4.95951e-05
-9.3569e-05
4.23816e-05
-0.000105231
3.38142e-05
-0.000113659
2.45642e-05
-0.000118656
1.49011e-05
-0.000120332
5.30714e-06
-0.000118644
-4.22481e-06
-0.000113876
-1.32171e-05
-0.00010628
-2.14928e-05
-9.61056e-05
-2.89627e-05
-8.3646e-05
-3.53163e-05
-6.94011e-05
-4.06387e-05
-5.37522e-05
-4.46632e-05
-3.71822e-05
-4.73955e-05
-2.00927e-05
-4.88735e-05
-2.98338e-06
-4.89967e-05
1.36827e-05
-4.77654e-05
2.95313e-05
-4.54222e-05
4.41071e-05
-4.17986e-05
5.70454e-05
-3.72885e-05
6.81521e-05
-3.18896e-05
7.71411e-05
-2.58398e-05
8.39201e-05
-1.94226e-05
8.8365e-05
-1.27727e-05
9.05745e-05
-6.12623e-06
9.05173e-05
4.99378e-07
8.82476e-05
6.72291e-06
8.39883e-05
1.24099e-05
7.79996e-05
1.74968e-05
7.06303e-05
2.17005e-05
6.20497e-05
2.52144e-05
5.24301e-05
2.79725e-05
4.19691e-05
2.99674e-05
3.07627e-05
3.13385e-05
1.91462e-05
3.20337e-05
7.25745e-06
3.22158e-05
-4.67708e-06
3.19329e-05
-1.63735e-05
3.12159e-05
-2.76289e-05
3.01593e-05
-3.81798e-05
2.86481e-05
-4.78537e-05
2.67706e-05
-5.64472e-05
2.44338e-05
-6.38778e-05
2.16357e-05
-7.00329e-05
1.84147e-05
-7.48756e-05
1.47787e-05
-7.8333e-05
1.06997e-05
-8.02735e-05
6.16025e-06
-8.04986e-05
1.20291e-06
-7.90139e-05
-4.03091e-06
-7.56375e-05
-9.3916e-06
-7.04085e-05
-1.47393e-05
-6.33686e-05
-1.98303e-05
-5.47414e-05
-2.464e-05
-4.45805e-05
-2.90495e-05
-3.33046e-05
-3.26688e-05
-2.08419e-05
-3.58913e-05
-7.55131e-06
-3.82104e-05
6.21821e-06
-3.96406e-05
2.01911e-05
-4.0162e-05
3.40313e-05
-3.97812e-05
4.74242e-05
-3.84031e-05
6.00164e-05
-3.61221e-05
7.15668e-05
-3.29395e-05
8.15555e-05
-2.87216e-05
8.98938e-05
-2.36304e-05
9.61716e-05
-1.76831e-05
0.000100155
-1.09406e-05
0.000101618
-3.56563e-06
0.000100315
4.28612e-06
9.61984e-05
1.23436e-05
8.92029e-05
2.05006e-05
7.94098e-05
2.84548e-05
6.69464e-05
3.58344e-05
5.22567e-05
4.20808e-05
3.63095e-05
4.56436e-05
2.06541e-05
4.47522e-05
5.86345e-05
-2.65638e-05
9.55299e-05
-4.66526e-05
7.29886e-05
-6.69337e-05
7.38823e-05
-8.5763e-05
6.84254e-05
-0.000101722
5.83417e-05
-0.000114202
4.62942e-05
-0.000123018
3.33805e-05
-0.000128103
1.99862e-05
-0.000129529
6.73293e-06
-0.00012743
-6.32452e-06
-0.000121969
-1.86777e-05
-0.000113493
-2.9969e-05
-0.000102291
-4.01648e-05
-8.87412e-05
-4.88661e-05
-7.33168e-05
-5.60636e-05
-5.64642e-05
-6.15161e-05
-3.8607e-05
-6.5253e-05
-2.03165e-05
-6.7164e-05
-2.04206e-06
-6.72711e-05
1.57638e-05
-6.55717e-05
3.25409e-05
-6.22001e-05
4.80532e-05
-5.73118e-05
6.18526e-05
-5.10884e-05
7.34301e-05
-4.34675e-05
8.27589e-05
-3.51688e-05
8.95692e-05
-2.62333e-05
9.39291e-05
-1.71333e-05
9.56917e-05
-7.89003e-06
9.49193e-05
1.27039e-06
9.18967e-05
9.74434e-06
8.67361e-05
1.75697e-05
7.98451e-05
2.43873e-05
7.13818e-05
3.01635e-05
6.17086e-05
3.48874e-05
5.10906e-05
3.85903e-05
3.99166e-05
4.1141e-05
2.84744e-05
4.27808e-05
1.69764e-05
4.35325e-05
5.61467e-06
4.35794e-05
-5.52564e-06
4.30749e-05
-1.63872e-05
4.20783e-05
-2.69314e-05
4.07037e-05
-3.70472e-05
3.87628e-05
-4.66538e-05
3.63756e-05
-5.55899e-05
3.33692e-05
-6.36643e-05
2.97108e-05
-7.06581e-05
2.54101e-05
-7.63406e-05
2.0463e-05
-8.06051e-05
1.49652e-05
-8.31823e-05
8.73794e-06
-8.39803e-05
2.00084e-06
-8.28668e-05
-5.14463e-06
-7.9789e-05
-1.24694e-05
-7.46253e-05
-1.99031e-05
-6.76128e-05
-2.68432e-05
-5.86901e-05
-3.35627e-05
-4.81334e-05
-3.96065e-05
-3.59632e-05
-4.48391e-05
-2.28285e-05
-4.90264e-05
-8.8744e-06
-5.2165e-05
5.73888e-06
-5.42545e-05
2.05855e-05
-5.50087e-05
3.53209e-05
-5.45169e-05
4.96236e-05
-5.27063e-05
6.31441e-05
-4.96429e-05
7.55542e-05
-4.53501e-05
8.64813e-05
-3.96489e-05
9.56123e-05
-3.27618e-05
0.000102672
-2.47427e-05
0.000107304
-1.55732e-05
0.000109197
-5.4591e-06
0.000108161
5.32031e-06
0.000104049
1.64548e-05
9.67934e-05
2.77554e-05
8.63971e-05
3.88507e-05
7.30091e-05
4.92226e-05
5.7002e-05
5.80888e-05
3.96826e-05
6.29638e-05
2.26088e-05
6.18269e-05
8.12436e-05
-2.99417e-05
0.000125473
-5.21822e-05
9.52304e-05
-7.47524e-05
9.64535e-05
-9.57442e-05
8.94178e-05
-0.000113359
7.59568e-05
-0.000126872
5.98079e-05
-0.000136117
4.26253e-05
-0.000141208
2.50775e-05
-0.000142255
7.77926e-06
-0.000139457
-9.1225e-06
-0.000133059
-2.50756e-05
-0.000123358
-3.96699e-05
-0.000110851
-5.26721e-05
-9.57493e-05
-6.39686e-05
-7.86073e-05
-7.32059e-05
-5.99353e-05
-8.01875e-05
-4.03244e-05
-8.4864e-05
-2.02098e-05
-8.72786e-05
-1.5422e-07
-8.73268e-05
1.93618e-05
-8.50876e-05
3.77796e-05
-8.06178e-05
5.46181e-05
-7.41503e-05
6.939e-05
-6.58607e-05
8.1965e-05
-5.60429e-05
9.19676e-05
-4.51719e-05
9.91418e-05
-3.3408e-05
0.000103466
-2.14572e-05
0.000104998
-9.42198e-06
0.00010382
2.44841e-06
0.000100094
1.34704e-05
9.41751e-05
2.34892e-05
8.62558e-05
3.23071e-05
7.65642e-05
3.98556e-05
6.5709e-05
4.57434e-05
5.39203e-05
5.03802e-05
4.17096e-05
5.33534e-05
2.93334e-05
5.51587e-05
1.70851e-05
5.57814e-05
5.0737e-06
5.55905e-05
-6.56362e-06
5.47121e-05
-1.78458e-05
5.33605e-05
-2.88565e-05
5.17145e-05
-3.94937e-05
4.94013e-05
-4.97021e-05
4.65858e-05
-5.93158e-05
4.29839e-05
-6.81339e-05
3.85289e-05
-7.59142e-05
3.31898e-05
-8.23879e-05
2.69355e-05
-8.72334e-05
1.98096e-05
-9.03383e-05
1.18424e-05
-9.15396e-05
3.20233e-06
-9.05274e-05
-6.15675e-06
-8.72703e-05
-1.57265e-05
-8.20287e-05
-2.51446e-05
-7.45193e-05
-3.43526e-05
-6.49356e-05
-4.31463e-05
-5.35595e-05
-5.09824e-05
-4.0666e-05
-5.77324e-05
-2.63878e-05
-6.33042e-05
-1.10402e-05
-6.75118e-05
4.77986e-06
-7.00741e-05
2.08958e-05
-7.11238e-05
3.68994e-05
-7.05203e-05
5.25091e-05
-6.83171e-05
6.7362e-05
-6.44966e-05
8.09641e-05
-5.89523e-05
9.31805e-05
-5.1865e-05
0.000103573
-4.31534e-05
0.000111589
-3.27586e-05
0.000117182
-2.1166e-05
0.000119748
-8.02477e-06
0.000119151
5.91767e-06
0.00011521
2.03971e-05
0.000107578
3.539e-05
9.63394e-05
5.00918e-05
8.15616e-05
6.4002e-05
6.37471e-05
7.59033e-05
4.44424e-05
8.22692e-05
2.54259e-05
8.08438e-05
0.00010667
-3.42585e-05
0.000159732
-5.95635e-05
0.000120537
-8.51864e-05
0.000122077
-0.000109094
0.000113325
-0.000128824
9.56867e-05
-0.000143573
7.45576e-05
-0.000153304
5.23559e-05
-0.000158268
3.00423e-05
-0.000158758
8.26901e-06
-0.000155013
-1.28676e-05
-0.000147391
-3.26985e-05
-0.000136085
-5.09751e-05
-0.000121716
-6.70422e-05
-0.000104637
-8.10474e-05
-8.53381e-05
-9.2505e-05
-6.44367e-05
-0.000101088
-4.24459e-05
-0.000106855
-1.99695e-05
-0.000109755
2.39571e-06
-0.000109692
2.41008e-05
-0.000106793
4.45005e-05
-0.000101017
6.3229e-05
-9.28788e-05
7.94715e-05
-8.2103e-05
9.3285e-05
-6.98562e-05
0.000104087
-5.59738e-05
0.000111668
-4.0988e-05
0.000116077
-2.58663e-05
0.000117276
-1.06206e-05
0.000115444
4.28022e-06
0.000110867
1.80481e-05
0.000103768
3.05872e-05
9.43864e-05
4.16887e-05
8.34409e-05
5.08007e-05
7.10307e-05
5.81529e-05
5.79265e-05
6.34836e-05
4.4395e-05
6.68836e-05
3.07779e-05
6.87744e-05
1.74652e-05
6.90932e-05
4.6335e-06
6.84212e-05
-7.83083e-06
6.71753e-05
-1.98315e-05
6.53614e-05
-3.15755e-05
6.3459e-05
-4.2997e-05
6.08224e-05
-5.40139e-05
5.76016e-05
-6.44837e-05
5.34524e-05
-7.42036e-05
4.8248e-05
-8.28756e-05
4.18616e-05
-9.01741e-05
3.42342e-05
-9.58641e-05
2.54999e-05
-9.96393e-05
1.56174e-05
-0.000101276
4.8382e-06
-0.000100564
-6.86875e-06
-9.73827e-05
-1.89084e-05
-9.16633e-05
-3.08644e-05
-8.34122e-05
-4.26039e-05
-7.3115e-05
-5.34436e-05
-6.07199e-05
-6.33777e-05
-4.65486e-05
-7.1904e-05
-3.0806e-05
-7.9047e-05
-1.4036e-05
-8.42813e-05
3.45212e-06
-8.75617e-05
2.12133e-05
-8.88849e-05
3.886e-05
-8.81666e-05
5.60768e-05
-8.55334e-05
7.25857e-05
-8.10046e-05
8.79435e-05
-7.4309e-05
0.000101716
-6.56365e-05
0.000113539
-5.49762e-05
0.000123058
-4.22776e-05
0.000129723
-2.78312e-05
0.000133377
-1.16772e-05
0.000133482
5.81438e-06
0.000129716
2.41635e-05
0.000121866
4.32388e-05
0.000109664
6.2293e-05
9.30707e-05
8.0595e-05
7.28319e-05
9.61423e-05
5.07706e-05
0.000104331
2.90792e-05
0.000102535
0.000135749
-3.96619e-05
0.000199395
-6.91337e-05
0.000150009
-9.88238e-05
0.000151767
-0.000126681
0.000141183
-0.000149069
0.000118075
-0.000165107
9.05969e-05
-0.000175176
6.24246e-05
-0.000179778
3.4644e-05
-0.000179391
7.88253e-06
-0.000174354
-1.79045e-05
-0.000165122
-4.19301e-05
-0.000151939
-6.41584e-05
-0.000135274
-8.37079e-05
-0.00011565
-0.000100672
-9.36379e-05
-0.000114518
-6.98733e-05
-0.000124853
-4.49697e-05
-0.000131758
-1.95475e-05
-0.000135177
5.72832e-06
-0.000134968
3.02496e-05
-0.000131313
5.31871e-05
-0.000123954
7.3933e-05
-0.000113624
9.2327e-05
-0.000100496
0.000107582
-8.51112e-05
0.00011931
-6.77012e-05
0.000127448
-4.91265e-05
0.000131807
-3.02256e-05
0.000132614
-1.14281e-05
0.000130075
6.81855e-06
0.000124276
2.38459e-05
0.000115556
3.93064e-05
0.000104638
5.26043e-05
9.15929e-05
6.38444e-05
7.73449e-05
7.23987e-05
6.23405e-05
7.8486e-05
4.71072e-05
8.21155e-05
3.20573e-05
8.38224e-05
1.75763e-05
8.35722e-05
3.81518e-06
8.21813e-05
-9.3998e-06
8.03896e-05
-2.21138e-05
7.80744e-05
-3.46161e-05
7.59606e-05
-4.68827e-05
7.30892e-05
-5.88602e-05
6.95796e-05
-7.04205e-05
6.50134e-05
-8.13508e-05
5.91791e-05
-9.11775e-05
5.16882e-05
-9.9687e-05
4.27426e-05
-0.00010649
3.23016e-05
-0.000111158
2.02835e-05
-0.00011346
7.13812e-06
-0.000113009
-7.32088e-06
-0.000109779
-2.21394e-05
-0.000103607
-3.70371e-05
-9.49567e-05
-5.12543e-05
-8.34983e-05
-6.49025e-05
-6.96973e-05
-7.71791e-05
-5.37348e-05
-8.78665e-05
-3.63854e-05
-9.63959e-05
-1.77168e-05
-0.00010295
1.71852e-06
-0.000106996
2.14264e-05
-0.000108592
4.11597e-05
-0.0001079
6.04403e-05
-0.000104813
7.89291e-05
-9.94927e-05
9.6326e-05
-9.17052e-05
0.000112172
-8.14828e-05
0.000125865
-6.86688e-05
0.000137227
-5.36396e-05
0.000145516
-3.6119e-05
0.00015047
-1.66321e-05
0.00015156
4.72288e-06
0.000148317
2.74046e-05
0.000140355
5.12005e-05
0.000127081
7.55679e-05
0.00010828
9.93974e-05
8.46015e-05
0.00011982
5.88698e-05
0.000130063
3.36296e-05
0.000127776
0.000169378
-4.59355e-05
0.00024533
-8.07949e-05
0.000184868
-0.000116155
0.000187127
-0.000149452
0.000174481
-0.000175076
0.000143699
-0.000192386
0.000107907
-0.000202414
7.24533e-05
-0.000206199
3.84285e-05
-0.000204573
6.257e-06
-0.000197997
-2.44799e-05
-0.000186632
-5.32948e-05
-0.000171194
-7.95976e-05
-0.000151701
-0.000103203
-0.000129031
-0.000123343
-0.00010364
-0.000139907
-7.63245e-05
-0.000152169
-4.78563e-05
-0.000160226
-1.88355e-05
-0.000164197
1.001e-05
-0.000163813
3.78686e-05
-0.000159171
6.40924e-05
-0.000150177
8.79759e-05
-0.000137507
0.000108561
-0.000121081
0.000125428
-0.000101978
0.000138298
-8.05712e-05
0.000146887
-5.77142e-05
0.000151509
-3.48478e-05
0.000151782
-1.17007e-05
0.000147968
1.06328e-05
0.000140742
3.10713e-05
0.000130095
4.99517e-05
0.000116724
6.59752e-05
0.000101371
7.91972e-05
8.45975e-05
8.91731e-05
6.72086e-05
9.58746e-05
4.9852e-05
9.94719e-05
3.31002e-05
0.000100575
1.73513e-05
9.93216e-05
2.56971e-06
9.69626e-05
-1.14056e-05
9.43647e-05
-2.47129e-05
9.1382e-05
-3.79291e-05
8.91768e-05
-5.11533e-05
8.63131e-05
-6.4343e-05
8.27688e-05
-7.72682e-05
7.79375e-05
-8.9585e-05
7.14946e-05
-0.00010111
6.32122e-05
-0.000111209
5.28419e-05
-0.0001194
4.0492e-05
-0.00012545
2.63339e-05
-0.000128563
1.02517e-05
-0.00012872
-7.16414e-06
-0.000125472
-2.53883e-05
-0.000118954
-4.35555e-05
-0.000109204
-6.10043e-05
-9.64176e-05
-7.76886e-05
-8.0829e-05
-9.27673e-05
-6.30855e-05
-0.000105611
-4.32821e-05
-0.000116199
-2.22563e-05
-0.000123975
-4.47862e-07
-0.000128805
2.17069e-05
-0.000130746
4.38049e-05
-0.000129996
6.54327e-05
-0.00012644
8.63477e-05
-0.000120407
0.000106174
-0.000111531
0.00012446
-9.9767e-05
0.000140645
-8.48531e-05
0.000154135
-6.71307e-05
0.000164533
-4.65174e-05
0.000171331
-2.34295e-05
0.000173883
2.17114e-06
0.000171666
2.9623e-05
0.000163859
5.90091e-05
0.000149477
8.99502e-05
0.000128071
0.000120803
9.98429e-05
0.000148049
6.90985e-05
0.000160807
3.90869e-05
0.000157787
0.000208465
-5.3024e-05
0.000298354
-9.5606e-05
0.00022745
-0.000138357
0.000229878
-0.000179322
0.000215446
-0.000208795
0.000173173
-0.000226731
0.000125843
-0.000235802
8.15242e-05
-0.000238074
4.07011e-05
-0.000234726
2.90816e-06
-0.000225921
-3.32853e-05
-0.000212438
-6.67781e-05
-0.000194123
-9.79126e-05
-0.00017141
-0.000125915
-0.000144909
-0.000149845
-0.000115578
-0.000169238
-8.40455e-05
-0.000183702
-5.11758e-05
-0.000193096
-1.77527e-05
-0.000197621
1.54995e-05
-0.000197065
4.75666e-05
-0.000191238
7.76401e-05
-0.00018025
0.000104676
-0.000164542
0.000128394
-0.000144799
0.000147413
-0.000120997
0.000161938
-9.50949e-05
0.000171422
-6.71972e-05
0.000175672
-3.9098e-05
0.000175144
-1.11715e-05
0.000170303
1.54746e-05
0.000160878
4.0497e-05
0.000147848
6.29823e-05
0.000131515
8.23082e-05
0.000112872
9.78399e-05
9.28492e-05
0.000109196
7.24081e-05
0.000116316
5.2425e-05
0.000119455
3.3651e-05
0.000119348
1.63898e-05
0.000116582
6.75564e-07
0.000112677
-1.38789e-05
0.000108919
-2.7622e-05
0.000105125
-4.1532e-05
0.000103087
-5.5751e-05
0.000100532
-7.02289e-05
9.72468e-05
-8.48306e-05
9.25395e-05
-9.90983e-05
8.57625e-05
-0.000112756
7.68697e-05
-0.000124981
6.50677e-05
-0.000135183
5.06943e-05
-0.000142644
3.37938e-05
-0.000147047
1.46545e-05
-0.000147657
-6.55385e-06
-0.000144663
-2.83823e-05
-0.000137583
-5.06346e-05
-0.000126608
-7.19775e-05
-0.000112094
-9.22035e-05
-9.4258e-05
-0.000110603
-7.38949e-05
-0.000125974
-5.1416e-05
-0.000138678
-2.77392e-05
-0.000147651
-3.09704e-06
-0.000153446
2.18843e-05
-0.000155727
4.67554e-05
-0.000154868
7.11538e-05
-0.000150838
9.49584e-05
-0.000144211
0.000117721
-0.000134294
0.000138845
-0.000120892
0.000157965
-0.000103974
0.000174225
-8.33901e-05
0.000187193
-5.94831e-05
0.000196369
-3.26035e-05
0.000201055
-2.51293e-06
0.000200532
3.01457e-05
0.000193604
6.59376e-05
0.00017853
0.000105025
0.000154057
0.000145276
0.000119085
0.000183021
8.10655e-05
0.000198828
4.48147e-05
0.000194039
0.000253281
-6.32123e-05
0.000361567
-0.000119242
0.00028348
-0.000170654
0.00028129
-0.000219595
0.000264387
-0.000252479
0.000206057
-0.000269561
0.000142925
-0.00027623
8.81939e-05
-0.000275812
4.02829e-05
-0.000270087
-2.81602e-06
-0.000259032
-4.43408e-05
-0.000242704
-8.31062e-05
-0.000221178
-0.000119439
-0.000194532
-0.000152562
-0.000163374
-0.000181003
-0.000129124
-0.000203487
-9.26046e-05
-0.000220222
-5.47409e-05
-0.00023096
-1.61591e-05
-0.000236203
2.22846e-05
-0.000235509
5.93076e-05
-0.000228261
9.43651e-05
-0.000215308
0.000126054
-0.000196231
0.000153018
-0.000171763
0.000174987
-0.000142966
0.000191061
-0.000111169
0.000201321
-7.74562e-05
0.000205546
-4.3323e-05
0.000204189
-9.81448e-06
0.000197193
2.2471e-05
0.000185273
5.24158e-05
0.000168928
7.9325e-05
0.000148975
0.000102261
0.000126383
0.000120431
0.000102311
0.000133267
7.81421e-05
0.000140484
5.49093e-05
0.000142688
3.35481e-05
0.000140711
1.45742e-05
0.000135558
-2.02137e-06
0.000129274
-1.66086e-05
0.000123507
-3.03281e-05
0.000118845
-4.51207e-05
0.00011788
-6.06417e-05
0.000116053
-7.6804e-05
0.000113409
-9.3408e-05
0.000109143
-0.000110088
0.000102442
-0.000126179
9.29611e-05
-0.000141119
8.00077e-05
-0.000153862
6.34383e-05
-0.000163803
4.37343e-05
-0.000169691
2.05429e-05
-0.000171295
-4.94989e-06
-0.000168044
-3.16323e-05
-0.000160236
-5.84435e-05
-0.000147717
-8.44969e-05
-0.000130726
-0.000109194
-0.000110554
-0.000130776
-8.71501e-05
-0.000149377
-6.16237e-05
-0.000164204
-3.43598e-05
-0.000174916
-6.34826e-06
-0.00018146
2.18427e-05
-0.00018392
4.9854e-05
-0.00018288
7.73789e-05
-0.000178364
0.000104185
-0.000171018
0.000130191
-0.000160301
0.000155182
-0.000145881
0.000177954
-0.000126745
0.000197738
-0.000103174
0.00021393
-7.56756e-05
0.000226113
-4.47875e-05
0.000233562
-9.96186e-06
0.00023595
2.77584e-05
0.000231195
7.06922e-05
0.000216393
0.000119827
0.000188333
0.000173337
0.000145044
0.000226309
9.79127e-05
0.000245959
5.194e-05
0.000240012
0.00030522
-6.71862e-05
0.000428753
-0.00015359
0.000369883
-0.000224102
0.000351802
-0.000280952
0.000321237
-0.000313549
0.000238653
-0.000322825
0.000152202
-0.000323736
8.91045e-05
-0.000319015
3.55624e-05
-0.000309801
-1.20304e-05
-0.000296467
-5.76751e-05
-0.000277759
-0.000101815
-0.00025252
-0.000144678
-0.00022099
-0.000184091
-0.000184478
-0.000217514
-0.000144304
-0.000243661
-0.000101963
-0.000262564
-5.81912e-05
-0.000274732
-1.34887e-05
-0.000280905
3.09436e-05
-0.000279941
7.44384e-05
-0.000271756
0.000115263
-0.000256132
0.000152274
-0.000233242
0.000183746
-0.000203234
0.000208635
-0.000167855
0.000226552
-0.000129085
0.000237503
-8.84079e-05
0.000241578
-4.73985e-05
0.00023896
-7.19762e-06
0.000230047
3.13834e-05
0.000215056
6.74059e-05
0.000194814
9.9568e-05
0.000170197
0.000126878
0.000142495
0.000148134
0.000113234
0.000162529
8.39774e-05
0.000169742
5.64775e-05
0.000170188
3.1745e-05
0.000165443
1.06276e-05
0.000156675
-6.25962e-06
0.00014616
-1.90003e-05
0.000136248
-3.11221e-05
0.000130967
-4.70185e-05
0.000133776
-6.4923e-05
0.000133958
-8.36192e-05
0.000132106
-0.000102834
0.000128358
-0.000122533
0.000122141
-0.000142132
0.00011256
-0.000160643
9.85194e-05
-0.000176779
7.95735e-05
-0.000189307
5.62618e-05
-0.000197465
2.87008e-05
-0.00020025
-2.16593e-06
-0.000197121
-3.47617e-05
-0.000188079
-6.74852e-05
-0.000173555
-9.90205e-05
-0.000154309
-0.00012844
-0.000130703
-0.000154381
-0.000103359
-0.000176722
-7.3538e-05
-0.000194026
-4.23273e-05
-0.000206127
-1.06187e-05
-0.000213169
2.1314e-05
-0.000215853
5.27423e-05
-0.000214309
8.36568e-05
-0.000209279
0.000113915
-0.000201276
0.000143876
-0.000190261
0.000172931
-0.000174938
0.000200243
-0.000154059
0.000224293
-0.000127226
0.000244104
-9.54869e-05
0.000259811
-6.04939e-05
0.000271722
-2.18714e-05
0.000278589
2.08929e-05
0.000278541
7.07404e-05
0.000267803
0.000130566
0.000238899
0.000202241
0.000184638
0.000280571
0.000125005
0.000305593
6.11149e-05
0.000303903
0.000366335
-1.79883e-05
0.000446741
-0.000143425
0.000495319
-0.000304414
0.00051279
-0.000387423
0.000404247
-0.00040244
0.00025367
-0.000389095
0.000138856
-0.000377741
7.77512e-05
-0.000368207
2.60276e-05
-0.000355968
-2.42686e-05
-0.000340026
-7.36183e-05
-0.000318516
-0.000123324
-0.000290157
-0.000173036
-0.000254189
-0.000220059
-0.00021162
-0.000260083
-0.000164838
-0.000290442
-0.000115374
-0.000312028
-6.38061e-05
-0.0003263
-1.12838e-05
-0.000333428
4.10622e-05
-0.000332287
9.22912e-05
-0.000322984
0.000140439
-0.000304279
0.000183873
-0.000276675
0.000220898
-0.000240259
0.000250155
-0.000197112
0.000270201
-0.000149132
0.000282049
-0.000100255
0.000285701
-5.10492e-05
0.000281563
-3.05725e-06
0.000270067
4.28823e-05
0.000251514
8.59621e-05
0.000226505
0.000124579
0.000196014
0.00015737
0.000161759
0.000182389
0.000125838
0.000198449
8.979e-05
0.000205789
5.54252e-05
0.000204552
2.53417e-05
0.000195526
1.75227e-06
0.000180264
-1.35146e-05
0.000161427
-2.0807e-05
0.00014354
-2.86101e-05
0.00013877
-4.46778e-05
0.000149844
-6.586e-05
0.00015514
-8.88895e-05
0.000155135
-0.000112574
0.000152042
-0.000136702
0.000146269
-0.000160703
0.00013656
-0.000183512
0.000121327
-0.000203893
9.99545e-05
-0.000220552
7.29203e-05
-0.000231604
3.97523e-05
-0.000235926
2.15645e-06
-0.000232738
-3.79496e-05
-0.000222296
-7.79264e-05
-0.000205215
-0.000116102
-0.000182682
-0.000150974
-0.000154377
-0.000182687
-0.000122446
-0.000208653
-8.73835e-05
-0.000229088
-5.07584e-05
-0.000242752
-1.40585e-05
-0.000249868
2.24193e-05
-0.00025233
5.8539e-05
-0.000250428
9.36903e-05
-0.00024443
0.000128111
-0.000235697
0.00016191
-0.000224062
0.000195124
-0.000208152
0.000226548
-0.000185481
0.000254658
-0.000155334
0.000278765
-0.000119594
0.000298871
-8.05978e-05
0.00031567
-3.86694e-05
0.000328644
7.91785e-06
0.000336766
6.26199e-05
0.000338341
0.000128992
0.000317687
0.000222896
0.000260727
0.000337531
0.000161933
0.000404388
4.39329e-05
0.000421903
0.000410268
4.51009e-05
0.00040164
4.88205e-05
0.000491599
-0.000195603
0.000757214
-0.000468759
0.000677402
-0.000533817
0.000318728
-0.000482387
8.74261e-05
-0.000439536
3.49012e-05
-0.000416055
2.54457e-06
-0.000401791
-3.85336e-05
-0.000388418
-8.69917e-05
-0.000370568
-0.000141174
-0.000342879
-0.000200726
-0.000302451
-0.000260487
-0.000251923
-0.000310611
-0.000196857
-0.000345508
-0.000139829
-0.000369055
-7.95663e-05
-0.000386563
-1.72631e-05
-0.00039573
4.56292e-05
-0.000395178
0.00010719
-0.000384545
0.000166472
-0.00036356
0.00022048
-0.000330683
0.00026561
-0.000285387
0.000299673
-0.000231173
0.000322037
-0.000171494
0.000333738
-0.000111953
0.000336345
-5.36545e-05
0.000330366
2.92256e-06
0.000316005
5.72433e-05
0.000293764
0.000108203
0.00026357
0.000154774
0.000226924
0.000194016
0.000184905
0.000224408
0.000139004
0.000244351
9.20835e-05
0.000252708
4.8088e-05
0.000248547
1.23937e-05
0.000231219
-1.19285e-05
0.000204586
-2.34202e-05
0.000172918
-2.50168e-05
0.000145135
-2.70644e-05
0.000140816
-4.00831e-05
0.000162861
-6.21734e-05
0.000177229
-8.91524e-05
0.000182112
-0.000119161
0.000182049
-0.000150828
0.000177936
-0.000182034
0.000167766
-0.000210472
0.000149764
-0.000234938
0.00012442
-0.000255124
9.31059e-05
-0.00026946
5.4088e-05
-0.000275968
8.66312e-06
-0.000273515
-4.04026e-05
-0.00026172
-8.9723e-05
-0.000241631
-0.000136191
-0.000214078
-0.000178526
-0.000180414
-0.000216351
-0.000139773
-0.000249293
-9.60106e-05
-0.00027285
-5.19508e-05
-0.000286812
-8.94245e-06
-0.000292876
3.34954e-05
-0.000294768
7.49714e-05
-0.000291904
0.000114074
-0.000283532
0.000150623
-0.000272245
0.000188432
-0.000261867
0.000228195
-0.000247913
0.000264809
-0.000222093
0.000294701
-0.000185226
0.000318673
-0.000143565
0.000339719
-0.000101643
0.000361631
-6.05819e-05
0.000387981
-1.84322e-05
0.000420375
3.02269e-05
0.00046
8.9367e-05
0.000461428
0.000221469
0.000334087
0.000464872
8.65102e-05
0.000651965
-3.41072e-05
0.000542521
0.000376161
0.000150195
0.000251444
0.000388833
0.000252962
0.000245206
0.000900841
-0.000266389
0.001189
-0.000532603
0.000584941
-0.000545091
9.99131e-05
-0.000502917
-7.27247e-06
-0.000475472
-2.49008e-05
-0.000462793
-5.12141e-05
-0.00045626
-9.35241e-05
-0.000442328
-0.000155106
-0.000406433
-0.000236621
-0.000345331
-0.000321588
-0.000273979
-0.000381963
-0.000208717
-0.00041077
-0.000150805
-0.000426967
-9.08764e-05
-0.000446491
-2.49215e-05
-0.000461685
4.56312e-05
-0.000465731
0.000118015
-0.000456928
0.000189661
-0.000435205
0.000256749
-0.00039777
0.000313501
-0.000342139
0.000355091
-0.000272763
0.00038101
-0.000197413
0.00039239
-0.000123335
0.000392898
-5.4163e-05
0.000384854
1.09668e-05
0.000368363
7.37345e-05
0.000342346
0.00013422
0.000306244
0.000190876
0.000260536
0.000239725
0.000206928
0.000278015
0.000148667
0.000302612
9.06736e-05
0.000310701
4.04845e-05
0.000298736
5.2167e-06
0.000266487
-1.61138e-05
0.000225915
-2.79246e-05
0.000184728
-3.4533e-05
0.000151743
-4.02863e-05
0.000146568
-5.16637e-05
0.000174238
-7.01749e-05
0.00019574
-9.45623e-05
0.000206499
-0.000125343
0.00021283
-0.00016229
0.000214882
-0.000202325
0.000207801
-0.000240128
0.000187566
-0.000272753
0.000157045
-0.000299044
0.000119396
-0.000318113
7.31558e-05
-0.000326204
1.67539e-05
-0.00032157
-4.50368e-05
-0.000305758
-0.000105535
-0.000280653
-0.000161296
-0.00024715
-0.000212029
-0.000206056
-0.000257445
-0.000157681
-0.000297669
-0.000104899
-0.000325633
-5.27363e-05
-0.000338975
-4.29598e-06
-0.000341316
4.03107e-05
-0.000339374
7.85256e-05
-0.000330118
0.000108613
-0.000313617
0.000136565
-0.000300197
0.000177965
-0.000303267
0.000238146
-0.000308095
0.000301159
-0.000285106
0.000347941
-0.000232008
0.000376303
-0.000171927
0.000397182
-0.000122523
0.000423836
-8.72355e-05
0.000467438
-6.20333e-05
0.000530821
-3.31564e-05
0.00057058
4.96075e-05
0.000463942
0.000328107
8.82747e-05
0.000840539
-0.000201778
0.000942018
-0.000113503
0.000454245
0.000262658
0.000394401
-0.000142957
0.00066976
-2.23976e-05
0.000559263
0.00101134
3.51013e-05
0.00171316
-0.000391947
0.00101199
-0.000512174
0.00022014
-0.000519037
-4.10254e-07
-0.000512402
-3.15362e-05
-0.00051706
-4.65576e-05
-0.00051681
-9.37734e-05
-0.00048611
-0.000185806
-0.000412856
-0.000309875
-0.000310084
-0.000424361
-0.00020882
-0.000483228
-0.000133458
-0.000486132
-8.17868e-05
-0.000478638
-3.23511e-05
-0.000495927
2.54581e-05
-0.000519495
9.44031e-05
-0.000534676
0.00017148
-0.000534005
0.000250541
-0.000514266
0.000322752
-0.000469981
0.000382345
-0.000401732
0.000425189
-0.000315608
0.000451529
-0.000223754
0.000464489
-0.000136295
0.000467691
-5.73653e-05
0.000461894
1.67643e-05
0.000444703
9.09251e-05
0.0004127
0.000166223
0.000365156
0.00023842
0.000304436
0.000300443
0.00023743
0.000345021
0.000170936
0.000369107
0.000113005
0.000368632
7.05048e-05
0.000341237
4.30729e-05
0.000293919
2.10094e-05
0.000247979
-7.39543e-06
0.000213133
-4.12901e-05
0.000185638
-7.44222e-05
0.0001797
-0.000103008
0.000202823
-0.000126888
0.000219619
-0.000145797
0.000225408
-0.000165034
0.000232067
-0.000190616
0.000240464
-0.000229408
0.000246592
-0.000275736
0.000233894
-0.000322794
0.000204102
-0.000366186
0.000162788
-0.000400186
0.000107157
-0.000414456
3.10245e-05
-0.000404371
-5.51217e-05
-0.000374922
-0.000134984
-0.000336854
-0.000199365
-0.000298055
-0.000250828
-0.000260808
-0.000294694
-0.000221447
-0.000337031
-0.000174828
-0.000372254
-0.000123265