/*--------------------------------*- C++ -*----------------------------------*\
| =========                 |                                                 |
| \\      /  F ield         | OpenFOAM: The Open Source CFD Toolbox           |
|  \\    /   O peration     | Version:  2412                                  |
|   \\  /    A nd           | Website:  www.openfoam.com                      |
|    \\/     M anipulation  |                                                 |
\*---------------------------------------------------------------------------*/
FoamFile
{
    version     2.0;
    format      ascii;
    arch        "LSB;label=32;scalar=64";
    class       volScalarField;
    location    "0.5";
    object      alpha.lava;
}
// * * * * * * * * * * * * * * * * * * * * * * * * * * * * * * * * * * * * * //

dimensions      [0 0 0 0 0 0 0];

internalField   nonuniform List<scalar> 
6400
(
1
1
1
1
1
1
1
1
1
1
1
1
1
1
1
1
1
1
1
1
1
1
1
1
1
1
1
1
1
1
1
1
1
1
1
1
1
1
1
1
1
1
1
1
1
1
1
1
0.999999
0.999999
0.999998
0.999998
0.999997
0.999997
0.999997
0.999996
0.999996
0.999996
0.999995
0.999995
0.999995
0.999995
0.999995
0.999995
0.999994
0.999994
0.999994
0.999993
0.999993
0.999993
0.999992
0.999992
0.999992
0.999992
0.999992
0.999992
0.999992
0.999993
0.999994
1
0.999998
1
1
1
1
1
1
1.00001
1.00001
1.00001
1.00001
1.00001
1.00001
1.00001
1.00001
1.00001
1.00001
1.00001
1.00001
1.00001
1.00001
1.00001
1.00001
1.00001
1
1
1
0.999998
0.999997
0.999996
0.999995
0.999994
0.999994
0.999995
0.999995
0.999996
0.999997
0.999998
0.999999
1
1
1
1
1
1.00001
1.00001
1.00001
1.00001
1.00001
1
1
1
1
1
0.999999
0.999998
0.999997
0.999996
0.999995
0.999994
0.999993
0.999992
0.999992
0.999991
0.99999
0.999989
0.999989
0.999988
0.999988
0.999989
0.999989
0.99999
0.99999
0.999991
0.999992
0.999992
0.999993
0.999995
0.999997
1
0.999995
1
1
1
1
1
1.00001
1.00001
1.00001
1.00001
1.00001
1.00001
1.00001
1.00001
1.00001
1.00001
1.00001
1.00001
1.00001
1.00001
1.00001
1.00001
1.00001
1
1
1
0.999997
0.999995
0.999993
0.999992
0.999991
0.99999
0.99999
0.99999
0.999991
0.999992
0.999993
0.999995
0.999997
0.999999
1
1
1
1.00001
1.00001
1.00001
1.00001
1.00001
1.00001
1.00001
1.00001
1
1
1
1
0.999999
0.999998
0.999996
0.999995
0.999993
0.999992
0.99999
0.999989
0.999988
0.999987
0.999986
0.999986
0.999986
0.999986
0.999987
0.999988
0.999989
0.99999
0.999991
0.999993
0.999994
0.999996
0.999997
0.999999
1.00001
0.999995
0.999999
1
1
1
1
1.00001
1.00001
1.00001
1.00001
1.00001
1.00001
1.00001
1.00001
1.00001
1.00001
1.00001
1.00001
1.00001
1.00001
1.00001
1.00001
1.00001
1
1
0.999998
0.999996
0.999994
0.999992
0.99999
0.999988
0.999987
0.999986
0.999986
0.999987
0.999988
0.99999
0.999992
0.999995
0.999997
0.999999
1
1
1.00001
1.00001
1.00001
1.00001
1.00001
1.00001
1.00001
1.00001
1.00001
1
1
1
1
0.999999
0.999997
0.999996
0.999994
0.999992
0.999991
0.999989
0.999988
0.999986
0.999986
0.999985
0.999985
0.999986
0.999987
0.999988
0.999989
0.99999
0.999992
0.999993
0.999994
0.999996
0.999998
1
1.00001
0.999995
0.999999
1
1
1
1
1.00001
1.00001
1.00001
1.00001
1.00001
1.00001
1.00002
1.00002
1.00002
1.00001
1.00001
1.00001
1.00001
1.00001
1.00001
1.00001
1.00001
1
1
0.999998
0.999996
0.999994
0.999991
0.999989
0.999987
0.999986
0.999986
0.999986
0.999986
0.999988
0.999989
0.999991
0.999993
0.999996
0.999998
1
1
1
1.00001
1.00001
1.00001
1.00001
1.00001
1.00001
1.00001
1.00001
1
1
1
1
0.999998
0.999997
0.999995
0.999993
0.999991
0.999989
0.999988
0.999986
0.999985
0.999985
0.999985
0.999985
0.999986
0.999987
0.999988
0.999989
0.999991
0.999992
0.999994
0.999995
0.999996
0.999998
1
1.00001
0.999995
0.999999
1
1
1
1
1.00001
1.00001
1.00001
1.00001
1.00001
1.00002
1.00002
1.00002
1.00002
1.00001
1.00001
1.00001
1.00001
1.00001
1.00001
1.00001
1
1
0.999999
0.999997
0.999994
0.999992
0.99999
0.999988
0.999986
0.999985
0.999985
0.999985
0.999985
0.999986
0.999988
0.99999
0.999992
0.999995
0.999997
0.999999
1
1
1
1.00001
1.00001
1.00001
1.00001
1.00001
1.00001
1.00001
1
1
1
1
0.999999
0.999997
0.999996
0.999994
0.999992
0.99999
0.999989
0.999988
0.999987
0.999986
0.999986
0.999986
0.999986
0.999987
0.999988
0.99999
0.999991
0.999992
0.999994
0.999995
0.999996
0.999998
1
1
0.999995
0.999999
1
1
1
1
1.00001
1.00001
1.00001
1.00001
1.00001
1.00001
1.00002
1.00002
1.00002
1.00001
1.00001
1.00001
1.00001
1.00001
1.00001
1.00001
1
1
0.999999
0.999996
0.999994
0.999992
0.99999
0.999988
0.999987
0.999985
0.999985
0.999985
0.999985
0.999986
0.999987
0.999989
0.999991
0.999993
0.999995
0.999998
0.999999
1
1
1
1
1.00001
1.00001
1.00001
1.00001
1
1
1
1
1
0.999999
0.999997
0.999996
0.999994
0.999993
0.999991
0.99999
0.999988
0.999988
0.999987
0.999987
0.999987
0.999987
0.999988
0.999989
0.99999
0.999991
0.999993
0.999994
0.999995
0.999997
0.999998
1
1
0.999995
1
1
1
1
1.00001
1.00001
1.00001
1.00001
1.00001
1.00001
1.00001
1.00001
1.00001
1.00001
1.00001
1.00001
1.00001
1.00001
1.00001
1.00001
1
1
1
0.999998
0.999996
0.999994
0.999992
0.99999
0.999989
0.999987
0.999986
0.999985
0.999985
0.999985
0.999986
0.999987
0.999989
0.999991
0.999992
0.999994
0.999996
0.999998
1
1
1
1
1
1
1
1
1
1
1
1
1
0.999999
0.999998
0.999997
0.999995
0.999994
0.999993
0.999991
0.99999
0.999989
0.999989
0.999989
0.999989
0.999989
0.99999
0.99999
0.999991
0.999992
0.999993
0.999994
0.999995
0.999997
0.999998
1
1
0.999995
1
1
1
1.00001
1.00001
1.00001
1.00001
1.00001
1.00001
1.00001
1.00001
1.00001
1.00001
1.00001
1.00001
1.00001
1.00001
1.00001
1.00001
1
1
1
0.999999
0.999997
0.999995
0.999994
0.999992
0.999991
0.999989
0.999988
0.999986
0.999986
0.999985
0.999985
0.999986
0.999987
0.999988
0.99999
0.999992
0.999993
0.999995
0.999996
0.999998
0.999999
1
1
1
1
1
1
1
1
1
1
1
1
0.999999
0.999998
0.999997
0.999995
0.999994
0.999993
0.999992
0.999991
0.99999
0.99999
0.99999
0.99999
0.999991
0.999991
0.999992
0.999993
0.999994
0.999995
0.999996
0.999997
0.999998
1
1
0.999996
1
1
1.00001
1.00001
1.00001
1.00001
1.00001
1.00001
1.00001
1.00001
1.00001
1.00001
1.00001
1.00001
1.00001
1.00001
1.00001
1.00001
1
1
1
1
0.999999
0.999997
0.999996
0.999994
0.999993
0.999991
0.99999
0.999988
0.999987
0.999986
0.999986
0.999986
0.999986
0.999987
0.999988
0.99999
0.999991
0.999993
0.999994
0.999995
0.999996
0.999998
0.999999
1
1
1
1
1
1
1
1
1
1
1
0.999999
0.999999
0.999997
0.999996
0.999995
0.999994
0.999993
0.999992
0.999992
0.999992
0.999992
0.999992
0.999993
0.999993
0.999993
0.999994
0.999995
0.999995
0.999996
0.999998
0.999999
1
1
0.999996
1
1
1.00001
1.00001
1.00001
1.00001
1.00001
1.00001
1.00001
1.00001
1.00001
1.00001
1.00001
1.00001
1.00001
1.00001
1.00001
1
1
1
1
1
0.999999
0.999997
0.999996
0.999995
0.999994
0.999993
0.999991
0.99999
0.999989
0.999988
0.999987
0.999987
0.999988
0.999988
0.999989
0.99999
0.999991
0.999992
0.999993
0.999995
0.999996
0.999997
0.999998
1
1
1
1
1
1
1
1
1
1
1
1
0.999999
0.999998
0.999997
0.999996
0.999995
0.999994
0.999993
0.999993
0.999993
0.999993
0.999994
0.999994
0.999994
0.999994
0.999994
0.999995
0.999995
0.999996
0.999997
0.999999
1
1
0.999996
1
1
1.00001
1.00001
1.00001
1.00001
1.00001
1.00001
1.00001
1.00001
1.00001
1.00001
1.00001
1.00001
1.00001
1.00001
1.00001
1
1
1
1
1
0.999999
0.999998
0.999997
0.999996
0.999995
0.999994
0.999993
0.999991
0.99999
0.999989
0.999989
0.999989
0.999989
0.999989
0.99999
0.999991
0.999991
0.999992
0.999993
0.999994
0.999995
0.999996
0.999998
0.999999
1
1
1
1
1
1
1
1
1
1
1
0.999999
0.999998
0.999997
0.999996
0.999995
0.999994
0.999994
0.999994
0.999994
0.999994
0.999994
0.999995
0.999995
0.999995
0.999995
0.999995
0.999995
0.999996
0.999997
0.999998
1
1
0.999996
1
1
1.00001
1.00001
1.00001
1.00001
1.00001
1.00001
1.00001
1.00001
1.00001
1.00001
1.00001
1.00001
1.00001
1.00001
1
1
1
1
1
0.999999
0.999998
0.999998
0.999997
0.999996
0.999996
0.999994
0.999993
0.999992
0.999991
0.99999
0.99999
0.99999
0.99999
0.99999
0.99999
0.999991
0.999991
0.999992
0.999993
0.999994
0.999995
0.999997
0.999999
1
1
1
1
1
1
1
1
1
1
1
1
1
1
0.999999
0.999998
0.999997
0.999996
0.999995
0.999995
0.999995
0.999995
0.999995
0.999995
0.999995
0.999995
0.999995
0.999995
0.999995
0.999996
0.999997
0.999998
1
1
0.999997
1
1
1.00001
1.00001
1.00001
1.00001
1.00001
1.00001
1.00001
1.00001
1.00001
1.00001
1.00001
1.00001
1.00001
1
1
1
1
1
1
0.999999
0.999998
0.999998
0.999997
0.999997
0.999996
0.999995
0.999994
0.999993
0.999992
0.999991
0.999991
0.999991
0.99999
0.99999
0.999991
0.999991
0.999991
0.999992
0.999993
0.999994
0.999996
0.999998
1
1
1
1
1
1
1
1
1
1
1
1
1
1
1
1
1
0.999999
0.999998
0.999997
0.999996
0.999996
0.999996
0.999996
0.999996
0.999996
0.999996
0.999995
0.999996
0.999996
0.999996
0.999997
0.999998
0.999999
1
0.999997
1
1
1
1
1.00001
1.00001
1.00001
1.00001
1.00001
1.00001
1.00001
1.00001
1
1
1
1
1
1
1
1
0.999999
0.999999
0.999998
0.999998
0.999998
0.999997
0.999997
0.999996
0.999995
0.999994
0.999993
0.999993
0.999992
0.999992
0.999992
0.999992
0.999992
0.999992
0.999993
0.999993
0.999994
0.999996
0.999997
0.999999
1
1
1
1
1
1
1
1
1
1
1
1
1
1
1
1
1
1
0.999999
0.999998
0.999998
0.999997
0.999997
0.999997
0.999997
0.999997
0.999997
0.999997
0.999997
0.999997
0.999997
0.999998
0.999999
1
1
0.999998
0.999999
1
1
1
1
1
1
1
1
1
1
1
1
1
1
1
1
1
0.999999
0.999999
0.999999
0.999998
0.999998
0.999998
0.999998
0.999998
0.999998
0.999997
0.999997
0.999996
0.999996
0.999995
0.999995
0.999995
0.999995
0.999995
0.999995
0.999995
0.999995
0.999996
0.999997
0.999998
1
1
1
1
1
1.00001
1.00001
1.00001
1.00001
1.00001
1
1
1
1
1
1
1
1
1
1
1
1
1
1
1
1
1
1
1
1
1
1
1
1
1
1
1
0.999998
0.999997
0.999996
0.999995
0.999996
0.999997
0.999998
0.999998
0.999998
0.999997
0.999997
0.999996
0.999996
0.999996
0.999997
0.999997
0.999997
0.999997
0.999997
0.999997
0.999998
0.999998
0.999998
0.999999
0.999999
1
1
1
1
1
1
1
0.999999
0.999999
0.999999
0.999999
0.999999
0.999999
0.999999
1
1
1
1
1
1
1
1.00001
1.00001
1.00001
1.00001
1.00001
1.00001
1.00001
1.00001
1.00001
1.00001
1.00001
1.00001
1.00001
1.00001
1.00001
1.00001
1.00001
1.00001
1.00001
1.00001
1.00001
1.00001
1.00001
1.00001
1.00001
1.00001
1
1
1
1.00001
1.00001
1
1
1
0.999996
0.99999
0.999988
0.999987
0.999987
0.999988
0.999988
0.999988
0.999988
0.999988
0.999988
0.999988
0.999988
0.999989
0.999989
0.99999
0.999991
0.999992
0.999993
0.999994
0.999995
0.999996
0.999997
0.999999
1
1
1
1
1
1
1.00001
1.00001
1.00001
1.00001
1.00001
1.00001
1.00001
1.00001
1.00001
1.00001
1.00001
1.00001
1.00001
1.00001
1.00001
1.00001
1.00001
1.00001
1.00001
1.00001
1.00001
1
1
1.00001
1.00001
1.00001
1.00001
1.00001
1.00001
1.00001
1.00001
1.00001
1.00001
1.00001
1.00001
1.00001
1.00001
1.00001
1.00001
1.00001
1.00001
1.00001
1.00001
1.00001
1.00001
1.00001
1.00001
1.00001
1.00001
1
0.999996
0.999985
0.999983
0.999982
0.999982
0.999982
0.999982
0.999982
0.999982
0.999982
0.999982
0.999982
0.999983
0.999984
0.999985
0.999986
0.999987
0.999989
0.99999
0.999992
0.999993
0.999995
0.999996
0.999998
1
1
1
1
1.00001
1.00001
1.00001
1.00001
1.00001
1.00001
1.00001
1.00001
1.00001
1.00001
1.00001
1.00001
1.00001
1.00001
1.00001
1.00001
1.00001
1.00001
1.00001
1.00001
1.00001
1
1
1
1
1.00001
1.00001
1.00001
1.00001
1.00001
1.00001
1.00001
1.00001
1.00001
1.00001
1.00001
1.00002
1.00002
1.00002
1.00002
1.00002
1.00002
1.00002
1.00002
1.00002
1.00002
1.00002
1.00002
1.00002
1.00002
1.00002
1
0.999973
0.999953
0.999955
0.999957
0.999956
0.999954
0.999953
0.999953
0.999953
0.999954
0.999955
0.999957
0.999958
0.999961
0.999963
0.999966
0.999969
0.999972
0.999974
0.999976
0.999979
0.999981
0.999983
0.999985
0.999987
0.99999
0.999992
0.999994
0.999996
0.999998
0.999999
0.999999
1
1
1
1
1
1
1
1
1
1
0.999999
0.999996
0.999993
0.99999
0.999988
0.999986
0.999985
0.999985
0.999985
0.999986
0.999988
0.99999
0.999992
0.999994
0.999996
0.999999
1
1
1
1
1
1
1
1
1
1
1
1
1
1
1
1
1
1
1
1
0.999998
0.999991
2.54885e-06
1.1415e-05
7.75723e-06
4.16458e-06
3.25365e-06
3.01634e-06
2.87708e-06
2.87114e-06
2.87505e-06
2.79801e-06
2.62295e-06
2.37259e-06
2.07939e-06
1.73406e-06
1.41891e-06
1.12819e-06
9.6415e-07
1.12325e-06
1.86014e-06
3.12196e-06
4.56327e-06
5.89274e-06
7.24819e-06
8.77224e-06
1.02095e-05
1.15259e-05
1.28787e-05
1.40303e-05
1.51155e-05
1.67059e-05
1.88431e-05
2.05992e-05
2.22197e-05
2.385e-05
2.50159e-05
2.55233e-05
2.54293e-05
2.4856e-05
2.41769e-05
2.2807e-05
2.20799e-05
2.07529e-05
1.94391e-05
2.02696e-05
2.08028e-05
2.10769e-05
2.11771e-05
2.1216e-05
2.11831e-05
2.10402e-05
2.0715e-05
2.01513e-05
1.93617e-05
1.84445e-05
1.75404e-05
1.67523e-05
1.61415e-05
1.57502e-05
1.6504e-05
1.86803e-05
2.09641e-05
2.25491e-05
2.34689e-05
2.44066e-05
2.57072e-05
2.72307e-05
2.85738e-05
2.93775e-05
3.02937e-05
3.14207e-05
3.20098e-05
3.21777e-05
3.24803e-05
3.24779e-05
3.2032e-05
3.13415e-05
3.13418e-05
3.02056e-05
3.22037e-05
2.98737e-05
4.08855e-20
1.57383e-15
2.36976e-15
1.7526e-16
2.35155e-21
1.24249e-25
6.09177e-23
1.07989e-17
2.23291e-17
1.93318e-17
8.62562e-18
-7.39168e-36
-2.56898e-27
0
1.29247e-27
3.97048e-24
1.66319e-18
1.57082e-18
6.2124e-19
2.56085e-25
5.42661e-20
6.70132e-19
1.10599e-18
1.44836e-18
1.71516e-18
1.86794e-18
2.32193e-18
2.69875e-18
2.89562e-18
2.97648e-18
2.90877e-18
2.49913e-18
1.88071e-18
1.17467e-18
5.00979e-19
1.29242e-27
-2.083e-37
-3.79275e-41
-2.58494e-27
0
-6.46235e-28
0
-9.62965e-36
0
-5.9717e-29
-3.25296e-29
-3.69151e-30
0
2.65196e-30
-1.12104e-45
-3.27196e-32
1.52678e-19
6.05192e-23
3.83219e-25
5.65899e-30
1.39851e-29
7.86505e-23
2.19714e-23
1.67515e-28
1.38852e-27
1.99444e-22
1.11197e-18
2.96352e-18
8.31589e-19
1.40735e-21
3.21828e-22
4.53076e-18
2.7582e-18
2.03197e-21
3.59764e-21
1.70041e-18
1.15402e-41
-7.00649e-44
4.63814e-22
1.91416e-21
6.16132e-22
1.41079e-26
7.06921e-27
1.48088e-26
4.57494e-16
3.65704e-23
3.25288e-23
1.45293e-19
2.34809e-21
1.29491e-25
3.4117e-28
1.14944e-27
2.82958e-28
-7.00652e-44
4.65707e-23
1.35331e-29
1.13556e-29
1.13555e-29
1.13555e-29
1.3533e-29
1.93497e-29
1.15938e-24
1.92163e-24
2.56701e-25
2.66216e-28
1.77962e-28
7.77108e-28
7.0459e-28
-1.81915e-25
-1.3194e-24
-2.31949e-26
-8.84995e-25
-9.7806e-25
-9.99115e-25
-8.28657e-25
-7.60372e-25
-5.57305e-25
-2.87363e-25
-8.63251e-26
-8.61763e-27
-6.94446e-23
-1.0384e-22
-1.43724e-22
-1.80261e-22
-2.14992e-22
-2.53825e-22
-2.9879e-22
-3.2845e-22
-3.34289e-22
-3.3388e-22
-3.39425e-22
-1.92789e-22
-7.98701e-28
0
-2.45804e-22
-4.34403e-41
-1.31381e-51
3.01862e-27
1.58069e-25
4.70336e-31
0
3.04511e-22
4.39426e-23
4.91041e-30
2.36405e-27
6.22688e-22
8.10192e-25
5.79207e-24
6.25753e-25
-1.06728e-29
1.9144e-28
8.4499e-24
7.0852e-24
-8.61406e-39
2.52397e-27
0
-2.63018e-24
-6.64196e-30
2.08768e-27
2.90041e-21
2.12831e-21
5.82802e-22
2.51447e-29
3.03989e-26
1.11092e-20
3.65697e-23
4.0019e-27
8.65406e-30
1.31408e-25
-4.99465e-30
3.39031e-28
1.95479e-27
1.90014e-33
-5.04284e-29
3.75221e-27
3.17201e-27
1.06458e-28
1.13555e-29
1.57524e-29
2.42952e-29
1.98169e-29
2.83512e-28
7.01177e-28
5.798e-28
3.52049e-28
1.75676e-28
1.23945e-27
5.90849e-28
3.53338e-28
6.36232e-29
6.17661e-31
9.44591e-33
1.66743e-32
4.90271e-32
6.28745e-32
2.00176e-32
2.00206e-32
2.0087e-32
2.59707e-32
1.74088e-32
1.20099e-30
5.25399e-33
5.10325e-33
2.71242e-33
1.49155e-31
3.59577e-32
-9.73957e-34
3.40241e-35
1.39492e-33
8.66047e-31
2.7752e-30
3.81494e-30
-3.13866e-28
-2.30513e-28
-1.98182e-28
-5.0737e-30
-2.13017e-30
0
-2.98623e-29
-6.94541e-29
-1.55526e-28
-1.04533e-33
4.29165e-28
-1.49446e-28
-7.28426e-28
-7.71451e-28
5.22446e-28
8.09331e-28
0
-4.57818e-27
3.82653e-28
5.24664e-28
6.33095e-28
-9.37163e-27
5.04365e-27
-5.80781e-28
-8.3314e-28
-2.70976e-33
3.08768e-31
2.03197e-33
5.45889e-27
1.19942e-27
3.12671e-31
3.56185e-25
2.82178e-25
5.05068e-27
7.9918e-27
4.90808e-30
1.49086e-28
1.23859e-32
8.21651e-32
6.65394e-31
5.83211e-31
4.63276e-31
3.89638e-31
2.36624e-31
1.72128e-31
1.70357e-31
1.66271e-31
1.33719e-31
8.15671e-32
3.68473e-32
1.99352e-32
4.59773e-33
3.41609e-33
1.5489e-33
8.72647e-34
8.05335e-34
1.51529e-33
2.82474e-33
4.96216e-33
8.04738e-33
1.1407e-32
1.47619e-32
1.78186e-32
2.00176e-32
2.10784e-32
2.08932e-32
1.93843e-32
1.65638e-32
1.28293e-32
8.71243e-33
5.10649e-33
2.33236e-33
7.71854e-34
2.70134e-34
5.73718e-36
5.68198e-33
5.09186e-32
1.63023e-31
3.53739e-31
6.06179e-31
8.66386e-31
1.11725e-30
1.19653e-30
1.14495e-30
9.49348e-31
6.65095e-31
4.23839e-31
1.81275e-31
4.17542e-32
1.53088e-31
3.51956e-31
1.1686e-31
1.82657e-32
9.33474e-34
5.61608e-31
1.05468e-32
1.6262e-32
-5.76254e-33
3.79326e-31
5.86964e-33
5.29321e-32
-1.25008e-32
3.76753e-30
4.50202e-32
3.0945e-32
1.90413e-32
3.19988e-35
2.0011e-35
2.82442e-30
5.89661e-31
3.05406e-31
2.74099e-30
8.31131e-29
6.96333e-34
1.87084e-31
2.52395e-35
4.45766e-37
5.27819e-38
3.17569e-37
6.0413e-37
1.70698e-36
2.47216e-36
5.053e-37
2.4123e-37
2.06332e-37
1.73914e-37
1.19303e-37
6.61585e-38
3.16597e-38
1.05928e-38
5.94892e-39
9.46647e-40
6.32189e-40
3.08207e-40
2.07898e-40
3.7751e-40
8.44431e-40
1.7015e-39
3.70196e-39
5.95687e-39
7.91787e-39
9.71106e-39
1.18894e-38
1.3507e-38
1.43258e-38
1.4217e-38
1.32245e-38
1.11577e-38
8.42503e-39
5.561e-39
3.21628e-39
1.45719e-39
4.61509e-40
7.92641e-41
1.47213e-44
9.13624e-42
1.15323e-38
1.06694e-37
3.72805e-37
8.55133e-37
1.48282e-36
2.12994e-36
2.50566e-36
2.45662e-36
2.0306e-36
1.33864e-36
7.0595e-37
2.66636e-37
6.56641e-38
2.17037e-38
7.51363e-41
9.5886e-38
1.58267e-38
1.45589e-39
1.30182e-39
1.86838e-39
1.04358e-38
3.07933e-39
6.4767e-40
3.63203e-39
2.86899e-38
5.18769e-39
6.34754e-37
8.30222e-38
3.36478e-37
1.21997e-37
6.99115e-41
5.99609e-41
3.88373e-36
7.15513e-37
3.71295e-37
1.11105e-35
1.43943e-34
5.26427e-38
1.24693e-38
1.69082e-40
1.06059e-44
8.98945e-46
1.28689e-43
9.55063e-43
1.2764e-42
8.21665e-43
5.82257e-43
2.06468e-43
1.90242e-43
1.51836e-43
8.1419e-44
3.12045e-44
1.3278e-44
5.59016e-45
3.03185e-45
2.87574e-46
1.3415e-46
7.57063e-47
1.30119e-46
3.18428e-46
6.95849e-46
1.37656e-45
2.44095e-45
4.00732e-45
5.7377e-45
7.49352e-45
9.06705e-45
1.01434e-44
1.05052e-44
1.02251e-44
9.36299e-45
7.75328e-45
5.68254e-45
3.56641e-45
1.93801e-45
8.42872e-46
2.61503e-46
4.3464e-47
5.58789e-51
4.1732e-49
2.75093e-47
3.7632e-44
2.70457e-43
9.03551e-43
1.99284e-42
3.34669e-42
4.33578e-42
4.43227e-42
3.61314e-42
2.31624e-42
1.15521e-42
4.02643e-43
7.04795e-44
8.98558e-47
9.71567e-48
9.12464e-47
3.19954e-46
3.50941e-47
1.01799e-46
1.4148e-47
2.25458e-47
3.42143e-45
9.3962e-47
1.55929e-47
6.48257e-46
1.79915e-44
1.0996e-45
2.33542e-46
9.98375e-46
1.5636e-44
7.29649e-47
4.48501e-47
4.08041e-42
7.81468e-43
3.84132e-43
1.34397e-42
1.55853e-40
1.52037e-44
2.14171e-43
8.30876e-48
3.553e-50
2.13855e-51
2.39262e-49
1.55315e-48
2.01509e-48
1.23691e-48
4.60173e-49
1.90315e-49
1.41827e-49
1.08363e-49
5.59572e-50
1.98278e-50
7.03901e-51
5.73618e-51
2.63856e-51
9.20904e-53
3.19027e-53
4.42851e-53
1.37532e-52
3.56225e-52
7.58678e-52
1.46152e-51
2.52062e-51
4.01619e-51
5.56343e-51
7.00658e-51
8.145e-51
8.71896e-51
8.57592e-51
7.92401e-51
6.89549e-51
5.42618e-51
3.78533e-51
2.26159e-51
1.15602e-51
4.71701e-52
1.40385e-52
2.27402e-53
2.71032e-57
2.00507e-55
1.95962e-54
4.96459e-51
1.31917e-49
7.34757e-49
2.17945e-48
4.41106e-48
6.43811e-48
6.98557e-48
5.75837e-48
3.6316e-48
1.74648e-48
5.86436e-49
9.92071e-50
1.17869e-52
4.44157e-55
6.94552e-54
6.66308e-54
8.0702e-54
1.45681e-53
1.25686e-53
1.93696e-53
8.42273e-54
2.17506e-53
1.21215e-53
1.83154e-52
5.02073e-53
9.8315e-52
1.14043e-52
3.76462e-52
4.70627e-52
1.04381e-52
6.24901e-53
2.6845e-48
6.31527e-49
7.30376e-49
1.19893e-50
1.44266e-46
9.15216e-51
6.23903e-49
4.21006e-53
1.78903e-56
4.33566e-57
5.87121e-55
3.12192e-54
3.49148e-54
2.11145e-54
7.45909e-55
2.58305e-55
1.57033e-55
1.03279e-55
4.92996e-56
1.77793e-56
6.10816e-57
1.02661e-56
3.29596e-57
5.6619e-59
2.41306e-59
4.99227e-59
1.82881e-58
4.69805e-58
9.77635e-58
1.83624e-57
3.07921e-57
4.75076e-57
6.34177e-57
7.65495e-57
8.4761e-57
8.59291e-57
7.97065e-57
6.9031e-57
5.6129e-57
4.12404e-57
2.67574e-57
1.48912e-57
7.08174e-58
2.66988e-58
7.38474e-59
1.13378e-59
1.49192e-63
1.08389e-61
6.63094e-61
7.35545e-60
2.57725e-56
3.66243e-55
1.68692e-54
4.45368e-54
7.79709e-54
9.50562e-54
8.33518e-54
5.43967e-54
2.61097e-54
8.56472e-55
1.43714e-55
1.69342e-58
4.265e-61
2.67769e-60
4.50557e-60
1.1869e-59
1.92835e-59
1.94309e-59
1.71131e-59
1.02301e-59
2.198e-59
1.8198e-59
7.41127e-59
6.00814e-59
1.8437e-57
1.9208e-58
2.66664e-58
1.95438e-58
1.37899e-58
1.06281e-58
2.9934e-55
1.94832e-55
1.23296e-54
1.66009e-56
1.59869e-52
1.20943e-62
5.46414e-59
2.02365e-58
2.84405e-62
9.91105e-63
1.66499e-60
8.04399e-60
7.60904e-60
4.13005e-60
1.3895e-60
4.44902e-61
2.41172e-61
1.35656e-61
5.82108e-62
2.1959e-62
8.0049e-63
2.09746e-62
4.48592e-63
4.6252e-65
2.43289e-65
7.07357e-65
2.78949e-64
7.01338e-64
1.41788e-63
2.57829e-63
4.16776e-63
6.16603e-63
7.84833e-63
8.97915e-63
9.36751e-63
8.88852e-63
7.67497e-63
6.16422e-63
4.64672e-63
3.17192e-63
1.90853e-63
9.86318e-64
4.37807e-64
1.54317e-64
3.99951e-65
5.81332e-66
8.92519e-70
6.46367e-68
4.03812e-67
1.82398e-66
7.97005e-64
1.12122e-61
9.40726e-61
3.51227e-60
7.80689e-60
1.1197e-59
1.06956e-59
7.53135e-60
3.80627e-60
1.25923e-60
2.1125e-61
2.5094e-64
7.13999e-67
1.08736e-66
7.4235e-66
2.04191e-65
3.25574e-65
3.67953e-65
2.77783e-65
2.02884e-65
2.76357e-65
2.9592e-65
1.40654e-64
1.06312e-64
3.963e-63
3.77418e-64
4.33296e-64
3.36479e-64
2.16472e-64
2.0672e-64
2.74365e-62
2.41955e-61
2.59804e-60
2.27913e-61
2.60654e-58
8.38808e-69
2.44258e-64
6.90061e-64
4.13378e-68
3.18504e-68
5.32391e-66
2.40058e-65
2.07604e-65
9.8985e-66
3.02536e-66
9.10947e-67
4.58672e-67
2.30263e-67
9.07084e-68
3.84996e-68
1.53242e-68
4.5229e-68
6.56255e-69
5.42031e-71
3.55359e-71
1.19067e-70
4.70914e-70
1.14602e-69
2.23079e-69
3.88771e-69
5.99095e-69
8.40028e-69
1.00691e-68
1.07799e-68
1.04587e-68
9.16851e-69
7.26227e-69
5.32071e-69
3.66098e-69
2.30939e-69
1.28332e-69
6.15548e-70
2.56263e-70
8.57884e-71
2.13823e-71
3.03555e-72
6.10726e-76
4.53534e-74
2.888e-73
1.23374e-72
9.88242e-72
2.88453e-68
4.5793e-67
2.42841e-66
6.98233e-66
1.21465e-65
1.27469e-65
9.76375e-66
5.40494e-66
1.90558e-66
3.28273e-67
4.02576e-70
1.32679e-72
2.1198e-72
1.51414e-71
4.0494e-71
6.38814e-71
7.89585e-71
4.36649e-71
3.97794e-71
4.71921e-71
5.54544e-71
1.19986e-70
2.30749e-70
7.03928e-69
7.87111e-70
8.26478e-70
6.99338e-70
3.97986e-70
4.35382e-70
4.0251e-68
7.487e-67
4.59079e-66
4.04366e-72
6.76954e-64
4.06959e-74
1.04561e-69
2.50501e-69
1.60779e-73
1.24129e-73
1.86482e-71
8.17501e-71
6.73534e-71
2.93324e-71
8.11247e-72
2.272e-72
1.08495e-72
5.05672e-73
1.96412e-73
9.76029e-74
3.87973e-74
1.04982e-73
1.13166e-74
8.74548e-77
5.37788e-77
2.1972e-76
8.60868e-76
2.01331e-75
3.74883e-75
6.22029e-75
9.07745e-75
1.1986e-74
1.34427e-74
1.33902e-74
1.20158e-74
9.70783e-75
7.02452e-75
4.67564e-75
2.96188e-75
1.72224e-75
8.89483e-76
4.00849e-76
1.58954e-76
5.16101e-77
1.27259e-77
1.82388e-78
4.59348e-82
3.49878e-80
2.29896e-79
9.43117e-79
6.68011e-78
2.81129e-75
1.56281e-73
1.32963e-72
5.27788e-72
1.18608e-71
1.46262e-71
1.24139e-71
7.63363e-72
3.0087e-72
5.6217e-73
7.5016e-76
2.75054e-78
4.26134e-78
3.51716e-77
9.13684e-77
1.4002e-76
1.79518e-76
1.11185e-76
6.6692e-77
1.02754e-76
1.2483e-76
2.66467e-76
5.09025e-76
1.25426e-74
1.79954e-75
1.93293e-75
1.58755e-75
8.5632e-76
1.01562e-75
7.57249e-74
6.06149e-73
5.33284e-72
8.80393e-78
1.84833e-69
1.57366e-79
4.42447e-75
1.14105e-74
6.59961e-79
4.51454e-79
7.08501e-77
2.98488e-76
2.39456e-76
1.00231e-76
2.57542e-77
6.68979e-78
3.01933e-78
1.34842e-78
5.38209e-79
3.07322e-79
1.12442e-79
2.54098e-79
2.16711e-80
1.8264e-82
1.04017e-82
4.57391e-82
1.73952e-81
3.894e-81
6.91035e-81
1.08759e-80
1.49753e-80
1.85397e-80
1.9377e-80
1.78417e-80
1.46894e-80
1.08687e-80
7.0862e-81
4.2564e-81
2.4413e-81
1.2921e-81
6.14669e-82
2.59544e-82
9.83865e-83
3.12632e-83
7.7361e-84
1.13901e-84
3.52244e-88
2.75287e-86
1.89531e-85
7.84776e-85
5.31553e-84
5.40344e-83
1.61667e-80
4.87838e-79
3.25082e-78
1.05053e-77
1.67558e-77
1.65569e-77
1.12964e-77
5.00253e-78
1.07172e-78
1.66413e-81
6.31619e-84
8.8426e-84
8.85222e-83
2.28866e-82
3.31187e-82
4.33079e-82
2.9381e-82
1.72309e-82
2.72874e-82
3.36175e-82
6.96856e-82
1.29639e-81
3.22183e-80
4.76424e-81
5.03547e-81
4.37789e-81
2.22615e-81
2.70674e-81
2.30171e-79
9.72927e-79
1.28454e-77
7.77995e-80
4.13008e-75
5.68913e-85
1.84659e-80
6.10757e-80
3.15559e-84
1.75943e-84
2.94769e-82
1.17973e-81
9.13746e-82
3.72078e-82
9.1486e-83
2.24124e-83
9.49307e-84
4.17559e-84
1.734e-84
1.05774e-84
3.47039e-85
6.31688e-85
4.56208e-86
4.35839e-88
2.13256e-88
1.06783e-87
3.92911e-87
8.40191e-87
1.41719e-86
2.10858e-86
2.72775e-86
3.15056e-86
3.04862e-86
2.5746e-86
1.92515e-86
1.28289e-86
7.41516e-87
3.92902e-87
1.98092e-87
9.23009e-88
3.90745e-88
1.49887e-88
5.31868e-89
1.64085e-89
4.10282e-90
6.32922e-91
2.70423e-94
2.23665e-92
1.63452e-91
6.97723e-91
4.34914e-90
4.70582e-89
5.4877e-88
1.09907e-85
1.72801e-84
8.7178e-84
1.94028e-83
2.39244e-83
1.81675e-83
8.7577e-84
2.18059e-84
4.15363e-87
1.63445e-89
2.08679e-89
2.32985e-88
6.22317e-88
8.57975e-88
1.09494e-87
7.90884e-88
5.20838e-88
8.25268e-88
1.05656e-87
2.03362e-87
3.71327e-87
1.1115e-85
1.43288e-86
1.46391e-86
1.33772e-86
6.66271e-87
8.26029e-87
1.04994e-84
4.62965e-84
5.72404e-83
1.91358e-84
1.27422e-80
6.39456e-89
8.23807e-86
3.74811e-85
1.95736e-89
9.7263e-90
1.2561e-87
4.85026e-87
3.60529e-87
1.42953e-87
3.43001e-88
8.16691e-89
3.34629e-89
1.51055e-89
6.59022e-90
4.01195e-90
1.20136e-90
1.82201e-90
1.20823e-91
1.26363e-93
4.95954e-94
2.74298e-93
9.72194e-93
1.98416e-92
3.17784e-92
4.46311e-92
5.41388e-92
5.82368e-92
5.2019e-92
4.01637e-92
2.71433e-92
1.61328e-92
8.20513e-93
3.77631e-93
1.6378e-93
6.5387e-94
2.38183e-94
8.0128e-95
2.58051e-95
7.56927e-96
1.90203e-96
3.11304e-97
2.22061e-99
1.90291e-98
1.4924e-97
6.7105e-97
3.73501e-96
3.80035e-95
5.61063e-94
1.66839e-92
8.35213e-91
6.91748e-90
2.20184e-89
3.64208e-89
3.22484e-89
1.64603e-89
4.53623e-90
1.036e-92
4.90407e-95
6.33622e-95
6.46813e-94
1.89802e-93
2.51628e-93
2.96997e-93
2.15258e-93
1.59686e-93
2.70337e-93
3.69164e-93
6.951e-93
1.20924e-92
4.1197e-91
4.93931e-92
4.74507e-92
4.24701e-92
2.16585e-92
2.73066e-92
4.0523e-90
1.95907e-89
2.06763e-88
1.25593e-89
6.25837e-86
9.33846e-96
3.74637e-91
2.68737e-90
1.31919e-94
6.66713e-95
5.1281e-93
1.97319e-92
1.42224e-92
5.53056e-93
1.30781e-93
3.13627e-94
1.31114e-94
6.4205e-95
2.96207e-95
1.71528e-95
4.77394e-96
6.13836e-96
3.94511e-97
4.45465e-99
1.34407e-99
7.66069e-99
2.60853e-98
5.08137e-98
7.73043e-98
1.025e-97
1.16551e-97
1.16699e-97
9.61156e-98
6.77425e-98
4.1294e-98
2.17655e-98
9.72314e-99
3.85645e-99
1.42305e-99
4.78694e-100
1.46841e-100
4.43733e-101
5.04777e-101
1.04599e-98
1.53288e-96
2.78711e-97
4.32788e-98
7.38479e-103
1.18982e-103
6.79084e-103
3.62359e-102
3.03967e-101
5.63166e-100
7.07838e-99
3.80212e-97
5.50213e-96
2.40984e-95
5.53517e-95
6.19759e-95
3.33204e-95
9.68407e-96
2.50135e-98
1.62952e-100
2.44185e-100
2.12454e-99
6.4354e-99
8.9479e-99
9.52876e-99
6.41767e-99
4.84867e-99
8.7906e-99
1.34947e-98
2.57482e-98
4.6281e-98
1.68737e-96
1.99993e-97
1.89435e-97
1.63034e-97
7.54861e-98
9.66463e-98
1.49429e-95
5.85645e-95
6.01741e-94
3.52124e-99
2.92613e-91
1.13889e-102
1.63707e-96
2.03913e-95
9.16269e-100
4.93587e-100
1.98147e-98
7.74819e-98
5.48621e-98
2.13561e-98
5.0955e-99
1.28256e-99
5.7356e-100
3.18138e-100
1.54674e-100
8.40304e-101
2.2043e-101
2.48273e-101
1.55835e-102
1.88517e-104
4.39653e-105
2.35711e-104
7.69941e-104
1.43266e-103
2.07105e-103
2.59166e-103
2.76256e-103
2.56781e-103
1.94378e-103
1.24461e-103
6.80107e-104
3.14942e-104
1.224e-104
4.12447e-105
1.26761e-105
1.26763e-105
4.69542e-105
5.04498e-101
8.50004e-97
8.77181e-94
8.19007e-93
3.51369e-93
3.45693e-93
4.89491e-98
1.42423e-107
3.79764e-108
3.7975e-108
2.63474e-107
5.7792e-106
9.99011e-105
1.9032e-103
4.58488e-102
2.62578e-101
7.96489e-101
1.22071e-100
6.88322e-101
2.18871e-101
6.52479e-104
4.91991e-106
1.01685e-105
7.69522e-105
2.41152e-104
3.66936e-104
3.80995e-104
2.3204e-104
1.61954e-104
2.92276e-104
4.80527e-104
9.6289e-104
1.86152e-103
7.7005e-102
9.33929e-103
9.47275e-103
8.28574e-103
2.93322e-103
3.78107e-103
7.73516e-101
2.53255e-100
2.75134e-99
1.17713e-101
1.33682e-96
1.07766e-106
6.74291e-102
1.60953e-100
6.59624e-105
4.02768e-105
7.48407e-104
2.99916e-103
2.09545e-103
8.55792e-104
2.17332e-104
6.08613e-105
3.00878e-105
1.87295e-105
9.32395e-106
4.68824e-106
1.18109e-106
1.19392e-106
7.39239e-108
9.27258e-110
1.69493e-110
8.07677e-110
2.53284e-109
4.50909e-109
6.20231e-109
7.32891e-109
7.31771e-109
6.3001e-109
4.36403e-109
2.52067e-109
1.22198e-109
4.91545e-110
1.62505e-110
1.62815e-110
9.58937e-109
2.06992e-104
3.5754e-100
4.13817e-96
7.75522e-92
6.44879e-89
5.80396e-88
2.90125e-88
2.43561e-88
3.37397e-93
8.48288e-103
5.08427e-108
2.6134e-112
1.8521e-112
5.97837e-112
1.4495e-110
1.83281e-109
3.97297e-108
3.02239e-107
1.06914e-106
2.39841e-106
1.36183e-106
5.28667e-107
2.15286e-109
1.13781e-111
3.31193e-111
2.74424e-110
9.84322e-110
1.5797e-109
1.69666e-109
1.01344e-109
6.50991e-110
1.09162e-109
1.79847e-109
3.7356e-109
7.41991e-109
3.05821e-107
4.06616e-108
4.42083e-108
4.18395e-108
1.24107e-108
1.60837e-108
4.86206e-106
1.32213e-105
1.46053e-104
5.89053e-107
7.7847e-102
3.87919e-111
2.99985e-107
1.38951e-105
5.0821e-110
3.55132e-110
3.10919e-109
1.32006e-108
9.13119e-109
4.13653e-109
1.16949e-109
3.67339e-110
1.95407e-110
1.2907e-110
6.36051e-111
2.9126e-111
7.13703e-112
6.36299e-112
3.94446e-113
5.32959e-115
7.97504e-116
3.07088e-115
9.2472e-115
1.57729e-114
2.0665e-114
2.30938e-114
2.15808e-114
1.71884e-114
1.0857e-114
5.62232e-115
2.39815e-115
2.41866e-115
8.79001e-113
2.87152e-108
7.59384e-104
1.60608e-99
2.59576e-95
2.93142e-91
6.64635e-87
4.21798e-84
3.5077e-83
2.14335e-83
1.56898e-83
2.14884e-88
5.55653e-98
3.87962e-103
2.83493e-108
3.58517e-113
2.02583e-116
1.95902e-116
3.32465e-115
4.01794e-114
3.54554e-113
1.37089e-112
4.92204e-112
2.70621e-112
1.24944e-112
6.23675e-115
2.32962e-117
6.18935e-117
9.66815e-116
3.80344e-115
6.8569e-115
7.89629e-115
4.77055e-115
3.05368e-115
4.85768e-115
7.73048e-115
1.67135e-114
3.21848e-114
1.6597e-112
2.01693e-113
2.13615e-113
2.09301e-113
5.51448e-114
7.1613e-114
2.71709e-111
6.69676e-111
7.41996e-110
3.56183e-112