/*--------------------------------*- C++ -*----------------------------------*\
| =========                 |                                                 |
| \\      /  F ield         | OpenFOAM: The Open Source CFD Toolbox           |
|  \\    /   O peration     | Version:  2412                                  |
|   \\  /    A nd           | Website:  www.openfoam.com                      |
|    \\/     M anipulation  |                                                 |
\*---------------------------------------------------------------------------*/
FoamFile
{
    version     2.0;
    format      ascii;
    arch        "LSB;label=32;scalar=64";
    class       volScalarField;
    location    "0.5";
    object      p;
}
// * * * * * * * * * * * * * * * * * * * * * * * * * * * * * * * * * * * * * //

dimensions      [1 -1 -2 0 0 0 0];

internalField   nonuniform List<scalar> 
6400
(
27277.7
27349.6
27296.9
27210.4
27066.6
26899.9
26654
26374.6
26053.5
25668.8
25256.3
24836.2
24397.2
23933.9
23462.9
23010.2
22592.5
22216.7
21877.9
21563.8
21264.6
20974.9
20691
20408.5
20122
19826.6
19519.2
19201.2
18879.7
18567.4
18280.9
18038.2
17855.6
17745.1
17712.9
17758.4
17875.4
18053
18277.7
18533.8
18803.6
19068.3
19309.6
19511.5
19662.7
19757.5
19797.1
19788.4
19743.5
19678.1
19610.1
19557.8
19539.1
19568.5
19655.6
19802.5
20003.4
20244.6
20506.8
20768.2
21008
21209.1
21359.2
21451.3
21483.2
21457
21378.7
21257.4
21104.2
20930.4
20745.8
20559.3
20381
20226.1
20114.6
20063.4
20073.9
20132.7
20220.5
20297.1
25945.5
26010.5
25999
25943.2
25813
25667.6
25445.2
25166.9
24849.9
24488.7
24097.5
23684.2
23242.7
22777.3
22309.2
21863.7
21453.9
21080.3
20737.6
20416.8
20110
19812
19519.1
19227
18929.4
18620.3
18295.6
17957
17612.8
17278.2
16972.4
16715.2
16523.8
16410.3
16380.2
16432.7
16561.8
16757
17004.4
17286.8
17584.4
17876.2
18141.9
18364.3
18531.3
18636.9
18682.4
18675.2
18627.8
18556.8
18480.8
18419.4
18390.9
18410.8
18489.2
18628.3
18822.2
19056.6
19311.9
19566.1
19798.6
19992.4
20135.4
20220.5
20245.4
20212.5
20128.9
20005.2
19853.8
19686.3
19510.9
19334.3
19166.3
19026
18936.2
18907.8
18932
18995.8
19091.5
19170.6
24662.3
24695.2
24680.7
24634.9
24537.3
24407.7
24198.6
23943.4
23647.9
23304.5
22924.3
22517.6
22083.1
21625.6
21165.2
20722.9
20313.3
19939
19594.9
19272.7
18964.3
18664.2
18368
18070.3
17763.7
17441
17098.1
16737.5
16370.1
16013.4
15688.8
15416.9
15215
15095
15062.7
15118.4
15257.1
15468.9
15739.3
16049.3
16376.8
16698.3
16991.4
17237.5
17423.5
17543.3
17598.2
17596.2
17550.3
17477.6
17397.2
17329.3
17293
17304.5
17374.4
17505.3
17690.8
17916.2
18161.3
18404.1
18624.2
18805
18934.7
19006.4
19018.4
18974
18881.7
18753.9
18604.6
18445.1
18282.1
18119.5
17967.9
17848.8
17785.6
17784.2
17830.9
17908
18013.6
18095.8
23335.3
23367.7
23370.9
23328
23243.9
23134.2
22942.2
22706.7
22430.5
22105.2
21740.2
21347.2
20925.1
20476.1
20021.2
19581.8
19172.2
18797.3
18452.6
18130
17821.9
17522.3
17225.9
16925.8
16614
16282.7
15928.1
15554.4
15173.7
14804.6
14468.5
14186
13974.3
13846
13808.2
13862.7
14005.6
14227.6
14513.4
14842.7
15191.4
15534.3
15847.5
16111.3
16312.5
16445.2
16511.3
16518.7
16480.8
16414.3
16337.9
16271.6
16234.5
16242.8
16307
16429.6
16603.7
16814.5
17042
17265.2
17464.8
17625.7
17737
17792.2
17789.7
17733.8
17634
17504.6
17360.6
17213.4
17068.4
16929.1
16805.3
16716.1
16677.5
16691.2
16752.8
16839.7
16959
17043.7
22010.3
22031.6
22045.4
22019.5
21943
21843.8
21668.1
21447.6
21186
20878.5
20532.3
20157.3
19752.8
19317.7
18871.1
18435.8
18027.9
17654.6
17313.5
16996.7
16695.5
16402.6
16111.3
15814.4
15503.3
15170.8
14814
14437.2
14052.8
13678.6
13335.2
13042.9
12819.3
12678.3
12629
12674.7
12813
13034.7
13324.1
13659.9
14016.9
14368.8
14691.2
14964.6
15176
15320.3
15399.3
15421.3
15398.6
15346.9
15284.1
15229.1
15200.1
15212.7
15276.4
15392.8
15554.6
15747.2
15951.5
16148.2
16320.5
16455.1
16542.4
16576.9
16557.3
16488.1
16380.2
16248.9
16110.4
15975.9
15849.7
15735.7
15645.4
15595
15591.8
15627.4
15702.5
15793.5
15921.3
16003
20702.5
20729.3
20747.7
20742
20679.5
20586.4
20424.2
20216.6
19967.2
19674.2
19343.2
18983.3
18593.1
18171.5
17732.5
17299.8
16891.9
16517.8
16177.3
15863.2
15566.1
15277.5
14990.2
14697.1
14390.4
14063.7
13714.1
13345.7
12969.1
12600.8
12259.8
11966.2
11737.9
11589.9
11532.6
11570.6
11702.3
11918.7
12203.8
12535.6
12888.5
13236.1
13554.5
13825.5
14037.4
14186.2
14274.2
14308.8
14301.6
14266.7
14220.4
14180.1
14162.8
14182.6
14247.7
14358.6
14507.2
14679.3
14857.2
15024.1
15165.9
15271.9
15334.4
15348.9
15314.7
15236.4
15125.2
14997.8
14870.9
14754.6
14651.3
14564.5
14505.3
14485.1
14508.5
14570.2
14666.7
14771.8
14906.8
14987.5
19371.6
19417.3
19442.6
19439.9
19382.7
19289.8
19135
18931.4
18686.8
18402
18078.7
17727.8
17350.2
16947.4
16527.8
16109.8
15712.7
15348.3
15018.3
14716.4
14432.8
14158.5
13886.2
13609
13319.8
13012
12682.1
12332.7
11972.3
11615.6
11280.6
10986.9
10753.2
10595.7
10526
10550
10666.6
10867.3
11135.9
11450.5
11785.7
12116.2
12420.1
12681
12889.3
13041.7
13140.7
13192.8
13207.4
13196.7
13174.6
13156.6
13157.8
13190.5
13261.6
13370
13507.4
13659.6
13810.8
13946.3
14055.1
14129.1
14162.9
14153.5
14101.3
14011.5
13896
13772
13656.1
13557.2
13475.8
13414.9
13386.7
13399.6
13452.5
13546.5
13666.1
13788.4
13930.4
14020
18048.9
18102.7
18138
18135.1
18079.5
17984.4
17836.1
17631.4
17384.2
17101.3
16778.5
16427.4
16053.5
15662.4
15260.9
14861.1
14479.1
14127.6
13810
13521.7
13253.7
12997.8
12746.9
12494.6
12233.4
11956.3
11658.4
11340.2
11008.1
10674.6
10356.3
10072.4
9841.7
9681.19
9603.43
9615.11
9715.6
9896.39
10141.6
10429.7
10736.9
11040.1
11320.2
11563.6
11762.7
11915.4
12023.8
12092.9
12129.9
12144.5
12148.3
12154.4
12176
12223.6
12302.3
12409.9
12537.3
12670.9
12796.5
12902
12979
13021.9
13028
12996.1
12928.2
12830.4
12714.9
12598.3
12496
12415.1
12355.5
12319.6
12317.7
12358.6
12438.2
12566.5
12711.9
12851.4
13003.1
13103.2
16714.6
16772.7
16809.3
16805.1
16755.8
16661.9
16522.9
16318.3
16067.5
15784.2
15460.9
15105.6
14731
14346.5
13958.7
13576.2
13211.2
12874.8
12571.3
12297.8
12047.5
11813.3
11588.9
11367.6
11141.5
10902.2
10643.4
10363.4
10066.6
9763.22
9468.67
9201.18
8979.63
8821.11
8738.59
8739.02
8821.91
8978.91
9194.7
9449.31
9721.27
9990.76
10242.1
10464.7
10653.1
10805.7
10923.8
11010.4
11070.4
11110.8
11140.7
11171.3
11213.9
11277
11364.2
11471.9
11590.6
11707.1
11808.8
11885.9
11932.2
11945.1
11924.2
11871
11789.1
11685.7
11573.3
11467.2
11379.8
11314.7
11271.8
11257.5
11281.5
11350.6
11456.9
11616.4
11786.8
11941.7
12102.9
12201.7
15331.3
15395.4
15433.5
15433.7
15400
15316.2
15192.3
14994
14746.2
14466.5
14149.6
13796.6
13424.6
13048.9
12677.4
12315.6
11972
11655.6
11370.5
11115.7
10886.3
10676.6
10480.7
10291.5
10100.2
9897.22
9674.85
9429.82
9164.75
8888.56
8615.4
8362.77
8149.15
7991.42
7902.45
7889.06
7950.73
8079.46
8261.08
8477.78
8711.24
8945.35
9167.97
9371.26
9551.07
9705.7
9834.92
9939.58
10022
10086.8
10141.2
10194.6
10256.6
10334.5
10430.1
10538.6
10649.8
10750.9
10830.1
10879.4
10894.9
10876.5
10826.8
10750.3
10652.6
10542.2
10431.9
10336.5
10265.4
10218.3
10192.7
10197.8
10245.9
10340.8
10472.9
10658.2
10848
11012.4
11172
11255.3
13937.9
14004.6
14052.4
14070.7
14062.1
13996.1
13891.4
13701.5
13461.6
13187.2
12878.3
12534.5
12172.1
11809.4
11455.8
11115.8
10795
10499.9
10234.3
9998.12
9788.5
9601.08
9430.35
9268.74
9106.59
8933.5
8740.94
8524.62
8286.18
8033.49
7779.71
7541.44
7336.33
7180.47
7085.99
7059.09
7098.99
7198.17
7344.05
7521.56
7715.99
7915.06
8109.91
8294.87
8466.38
8621.96
8759.53
8877.68
8976.49
9058.75
9130.38
9199.81
9275.83
9364.54
9466.48
9575.5
9680.23
9767.57
9826.39
9849.76
9835.71
9786.9
9709.46
9611.03
9499.58
9384.54
9278.57
9195.05
9140.62
9112
9105.22
9130.22
9201.68
9317.68
9468.93
9669.56
9867.98
10032.8
10177.5
10242.9
12560.7
12630.8
12695
12738
12754.4
12706.4
12621.7
12438.8
12205.4
11939.3
11638.7
11307.7
10962
10618.6
10286.7
9970.19
9672.82
9399.19
9152.5
8933.44
8740.52
8570.69
8418.91
8277.53
8136.58
7985.51
7815.63
7622.43
7407.08
7176.66
6943.27
6722.28
6529.98
6381.05
6286.24
6250.66
6273.02
6346.41
6460.06
6601.97
6761.1
6928.79
7098.96
7267.35
7430.42
7584.45
7725.46
7849.99
7956.48
8046.66
8125.97
8202.69
8285.31
8379.2
8483.58
8590.75
8688.07
8761.94
8801.41
8800.54
8759.16
8682.7
8580.72
8464.07
8342.8
8227
8128.83
8060.25
8025.17
8017.28
8031.3
8076.04
8168.15
8299.67
8460.82
8663.51
8857.74
9010.87
9139.34
9202.07
11199.5
11273.3
11352.4
11412.5
11440.3
11399.1
11330.7
11165.3
10940.4
10686.3
10401
10089.6
9768.94
9454.28
9152.47
8865.7
8596.17
8346.99
8120.89
7919.15
7741.51
7585.94
7447.91
7320.04
7192.74
7056.07
6902.05
6726.62
6530.91
6321.36
6108.94
5907.5
5731.51
5593.77
5503.24
5463.62
5473.13
5525.56
5612.22
5724.18
5853.86
5995.67
6145.54
6299.92
6454.71
6604.78
6744.39
6868.51
6974.61
7064.12
7142.72
7219.04
7301.63
7395.12
7497.38
7599.08
7686.45
7745.51
7765.81
7742.52
7677.36
7578.46
7458.32
7330.19
7205.37
7093.98
7007.23
6955.53
6940.86
6954.3
6989.13
7051.54
7158.67
7298.98
7460.73
7653.78
7833.36
7966.38
8085.54
8154.65
9842.79
9913.81
9996.18
10060.3
10086.2
10044.8
9972.33
9833.4
9634.04
9400.19
9138.73
8857.9
8573.39
8297.57
8034.84
7785.48
7550.06
7330.55
7129.29
6948.11
6787.6
6646.42
6520.54
6403.11
6285.48
6158.93
6016.73
5855.71
5677.24
5487.27
5295.55
5114.19
4955.63
4830.51
4745.84
4703.99
4702.89
4737.34
4800.91
4887.58
4992.76
5113.18
5246
5387.76
5533.5
5676.69
5810.18
5927.98
6027.19
6109.51
6181.27
6251.61
6329.04
6417.43
6513.25
6605.9
6680.96
6724.7
6727.58
6686.15
6603.98
6491.25
6362.23
6230.97
6108.54
6004.55
5929.84
5894.16
5898.33
5931.16
5983.6
6059.12
6174.25
6315.77
6469.43
6644.47
6802.58
6918.16
7033.53
7094.4
8468.09
8529
8602.33
8660.47
8670.93
8646.43
8560.88
8431.58
8267.01
8070.4
7845.75
7605.37
7365.18
7135.16
6917.44
6710.65
6514.06
6328.67
6156.54
5999.78
5859.48
5734.72
5621.94
5515.09
5406.77
5289.83
5159.01
5012.19
4851.02
4680.92
4510.42
4349.77
4209.27
4097.33
4019.11
3975.9
3965.69
3984.55
4028.24
4093.35
4177.61
4279.34
4396.37
4525
4659.4
4791.98
4914.69
5021.07
5108.4
5178.92
5239.59
5299.89
5368.02
5446.96
5532.11
5612.22
5673.08
5701.99
5690.87
5637.76
5547.53
5431.33
5303.79
5178.42
5064.89
4971.4
4908.4
4885.75
4904.29
4951.65
5015.65
5097.74
5213.3
5348.09
5485.64
5638.3
5772.82
5873.61
5976.71
6016.73
7049.56
7096.45
7156.67
7221.8
7193.38
7181.08
7115.66
7001.39
6861.64
6701.59
6521.63
6330.58
6140.72
5959.44
5787.68
5623.7
5466.31
5316.05
5174.7
5044.32
4926.15
4819.55
4721.54
4627.1
4530.31
4425.62
4309.18
4179.76
4039.13
3892.06
3745.66
3608.25
3487.9
3390.89
3320.73
3277.96
3260.95
3267.09
3294.09
3340.58
3405.96
3489.55
3589.52
3701.97
3820.58
3937.28
4043.83
4134.01
4205.58
4261.32
4308.38
4355.97
4411.62
4477.46
4548.38
4613.4
4659.58
4676.15
4656.9
4601.06
4513.65
4405.24
4289.41
4178.26
4079.72
4000.11
3948.93
3936.11
3962.78
4017.02
4084.16
4164.32
4270.77
4389.55
4504.01
4631.14
4745.54
4829.31
4895.69
4912.41
5565.77
5586.86
5616.03
5702.47
5677.22
5633.84
5574.27
5492.43
5391.22
5271.5
5137.07
4996.38
4857.98
4725.98
4600.18
4478.85
4361.01
4247.11
4138.71
4037.67
3945.09
3860.54
3781.75
3704.94
3625.73
3540.12
3445.41
3340.92
3228.26
3111.27
2995.45
2887.07
2791.97
2714.46
2656.67
2618.73
2599.48
2597.51
2611.99
2642.92
2690.68
2755.2
2834.91
2926
3022.39
3116.53
3201.06
3270.78
3324.17
3364.01
3396.78
3430.55
3471.81
3522.11
3576.54
3625.34
3657.73
3665.48
3644.41
3594.45
3519.97
3429.91
3335.77
3247.33
3170.07
3108.18
3069.84
3064.64
3093.28
3145.03
3204.78
3273.98
3362.05
3454.22
3539.45
3636.58
3729.96
3793.86
3824.73
3820.74
4005.76
3997.21
3977.3
4012.16
4023.97
3999.13
3951.68
3893.04
3825.29
3746.94
3659.96
3570.16
3482.48
3398.74
3318.24
3239.74
3162.63
3087.38
3015.22
2947.59
2885.35
2828.27
2774.85
2722.58
2668.57
2610.21
2545.79
2474.95
2398.87
2320.2
2242.64
2170.27
2106.76
2054.65
2015.06
1987.93
1972.59
1968.49
1975.67
1994.75
2026.49
2071.05
2127.11
2191.5
2259.28
2324.68
2382.44
2429.07
2463.69
2488.34
2507.72
2527.99
2554.24
2587.67
2624.34
2656.71
2676.96
2679.66
2662.35
2625.29
2571.82
2508.81
2444.78
2385.94
2334.72
2293.51
2269.17
2269.58
2294.4
2335.52
2378.28
2426.41
2489.3
2548.47
2599.86
2667.4
2731.9
2767.83
2770.45
2746.36
2359.09
2289.38
2310.53
2343.56
2347.05
2322.01
2291.14
2259.79
2225.32
2185.64
2142.2
2098.01
2055.28
2014.46
1974.96
1936.03
1897.45
1859.56
1823.17
1789.13
1757.98
1729.63
1703.32
1677.76
1651.42
1622.93
1591.35
1556.45
1518.81
1479.8
1441.32
1405.45
1373.99
1348.16
1328.39
1314.59
1306.42
1303.76
1306.89
1316.47
1333.18
1357.22
1387.75
1422.75
1459.28
1494.18
1524.7
1549.02
1566.48
1577.98
1586.21
1595.06
1607.88
1625.38
1644.91
1661.9
1672.12
1672.93
1663.13
1642.77
1613.89
1580.83
1548.65
1519.85
1494.09
1472.43
1460.45
1463.29
1478.52
1502.37
1523.78
1544.92
1579.19
1607.12
1622.43
1660.86
1708.32
1736.05
1718.73
1615.33
724.478
656.909
663.92
702.134
716.456
707.217
694.746
685.679
677.973
670.001
661.695
653.593
645.925
638.596
631.375
624.116
616.814
609.607
602.718
596.37
590.697
585.684
581.162
576.852
572.427
567.59
562.131
555.98
549.238
542.167
535.152
528.618
522.929
518.313
514.828
512.407
510.955
510.46
511.051
512.97
516.459
521.588
528.132
535.57
543.231
550.476
556.783
561.724
565.015
566.733
567.559
568.618
570.846
574.338
578.313
581.701
583.683
583.738
581.506
576.976
570.788
564.067
557.812
552.323
547.255
542.721
540.516
542.092
545.103
549.627
553.007
553.858
560.935
566.325
559.705
563.731
584.284
627.048
642.215
554.728
-10.0511
-10.0481
-10.0508
-10.0524
-10.0526
-10.0527
-10.0528
-10.0528
-10.0529
-10.0531
-10.0533
-10.0535
-10.0537
-10.054
-10.0543
-10.0545
-10.0547
-10.0546
-10.0541
-10.0534
-10.0526
-10.0519
-10.0512
-10.0504
-10.0497
-10.049
-10.0484
-10.0479
-10.0474
-10.0467
-10.0458
-10.045
-10.0443
-10.0436
-10.0431
-10.043
-10.0432
-10.0435
-10.0437
-10.0443
-10.0446
-10.0449
-10.0453
-10.0446
-10.044
-10.0435
-10.0432
-10.0431
-10.043
-10.0431
-10.0433
-10.0437
-10.0441
-10.0445
-10.0449
-10.0453
-10.0456
-10.0458
-10.0454
-10.0443
-10.0433
-10.0425
-10.0423
-10.042
-10.0415
-10.0409
-10.0402
-10.0395
-10.039
-10.0382
-10.0375
-10.0376
-10.0373
-10.0365
-10.0373
-10.0381
-10.0387
-10.0347
-10.0262
-10.0426
-10.5446
-10.5459
-10.5457
-10.5459
-10.5459
-10.5459
-10.5458
-10.5458
-10.5458
-10.5458
-10.5458
-10.5458
-10.5458
-10.5458
-10.5458
-10.5458
-10.5458
-10.5458
-10.5458
-10.5458
-10.5458
-10.5458
-10.5458
-10.5458
-10.5458
-10.5458
-10.5458
-10.5458
-10.5458
-10.5458
-10.5457
-10.5457
-10.5457
-10.5457
-10.5457
-10.5457
-10.5457
-10.5457
-10.5457
-10.5456
-10.5456
-10.5456
-10.5456
-10.5456
-10.5456
-10.5456
-10.5456
-10.5456
-10.5456
-10.5456
-10.5456
-10.5456
-10.5456
-10.5455
-10.5455
-10.5455
-10.5455
-10.5455
-10.5455
-10.5455
-10.5455
-10.5455
-10.5455
-10.5455
-10.5455
-10.5455
-10.5455
-10.5455
-10.5455
-10.5455
-10.5455
-10.5455
-10.5455
-10.5455
-10.5455
-10.5455
-10.5455
-10.5455
-10.5453
-10.5457
-11.0362
-11.0371
-11.0362
-11.0363
-11.0364
-11.0364
-11.0363
-11.0363
-11.0363
-11.0363
-11.0363
-11.0363
-11.0363
-11.0363
-11.0363
-11.0363
-11.0363
-11.0363
-11.0363
-11.0363
-11.0363
-11.0363
-11.0363
-11.0363
-11.0363
-11.0363
-11.0363
-11.0363
-11.0363
-11.0363
-11.0362
-11.0362
-11.0362
-11.0362
-11.0362
-11.0362
-11.0362
-11.0362
-11.0361
-11.0361
-11.0361
-11.0361
-11.0361
-11.0361
-11.0361
-11.0361
-11.0361
-11.0361
-11.0361
-11.0361
-11.0361
-11.0361
-11.036
-11.036
-11.036
-11.036
-11.036
-11.036
-11.036
-11.036
-11.036
-11.036
-11.036
-11.036
-11.036
-11.036
-11.036
-11.036
-11.036
-11.036
-11.036
-11.036
-11.036
-11.036
-11.036
-11.036
-11.036
-11.036
-11.036
-11.036
-11.5264
-11.5271
-11.5267
-11.5268
-11.5268
-11.5269
-11.5269
-11.5268
-11.5268
-11.5268
-11.5268
-11.5268
-11.5268
-11.5268
-11.5269
-11.5268
-11.5268
-11.5268
-11.5268
-11.5268
-11.5268
-11.5268
-11.5268
-11.5268
-11.5268
-11.5268
-11.5268
-11.5268
-11.5268
-11.5268
-11.5267
-11.5267
-11.5267
-11.5267
-11.5267
-11.5267
-11.5267
-11.5267
-11.5267
-11.5266
-11.5266
-11.5266
-11.5266
-11.5266
-11.5266
-11.5266
-11.5266
-11.5266
-11.5266
-11.5266
-11.5266
-11.5266
-11.5266
-11.5265
-11.5265
-11.5265
-11.5265
-11.5265
-11.5265
-11.5265
-11.5265
-11.5265
-11.5265
-11.5265
-11.5265
-11.5265
-11.5265
-11.5265
-11.5265
-11.5265
-11.5265
-11.5265
-11.5265
-11.5265
-11.5265
-11.5265
-11.5265
-11.5265
-11.5265
-11.5265
-12.0175
-12.0174
-12.0173
-12.0172
-12.0173
-12.0173
-12.0174
-12.0174
-12.0173
-12.0173
-12.0173
-12.0173
-12.0173
-12.0173
-12.0174
-12.0173
-12.0173
-12.0173
-12.0173
-12.0173
-12.0173
-12.0173
-12.0173
-12.0173
-12.0173
-12.0173
-12.0173
-12.0173
-12.0173
-12.0172
-12.0172
-12.0172
-12.0172
-12.0172
-12.0172
-12.0172
-12.0172
-12.0172
-12.0172
-12.0171
-12.0171
-12.0171
-12.0171
-12.0171
-12.0171
-12.0171
-12.0171
-12.0171
-12.0171
-12.0171
-12.0171
-12.0171
-12.0171
-12.017
-12.017
-12.017
-12.017
-12.017
-12.017
-12.017
-12.017
-12.017
-12.017
-12.017
-12.017
-12.017
-12.017
-12.017
-12.017
-12.017
-12.017
-12.017
-12.017
-12.017
-12.017
-12.017
-12.017
-12.017
-12.017
-12.017
-12.5081
-12.508
-12.5079
-12.5078
-12.5078
-12.5078
-12.5078
-12.5078
-12.5078
-12.5078
-12.5078
-12.5078
-12.5079
-12.5079
-12.5079
-12.5078
-12.5078
-12.5078
-12.5078
-12.5078
-12.5078
-12.5078
-12.5078
-12.5078
-12.5078
-12.5078
-12.5078
-12.5078
-12.5078
-12.5077
-12.5077
-12.5077
-12.5077
-12.5077
-12.5077
-12.5077
-12.5077
-12.5077
-12.5077
-12.5076
-12.5076
-12.5076
-12.5076
-12.5076
-12.5076
-12.5076
-12.5076
-12.5076
-12.5076
-12.5076
-12.5076
-12.5076
-12.5076
-12.5076
-12.5075
-12.5075
-12.5075
-12.5075
-12.5075
-12.5075
-12.5075
-12.5075
-12.5075
-12.5075
-12.5075
-12.5075
-12.5075
-12.5075
-12.5075
-12.5075
-12.5075
-12.5075
-12.5075
-12.5075
-12.5075
-12.5075
-12.5075
-12.5075
-12.5075
-12.5075
-12.9984
-12.9984
-12.9984
-12.9984
-12.9984
-12.9984
-12.9983
-12.9983
-12.9983
-12.9983
-12.9983
-12.9984
-12.9984
-12.9984
-12.9984
-12.9983
-12.9983
-12.9983
-12.9983
-12.9983
-12.9983
-12.9983
-12.9983
-12.9983
-12.9983
-12.9983
-12.9983
-12.9983
-12.9983
-12.9982
-12.9982
-12.9982
-12.9982
-12.9982
-12.9982
-12.9982
-12.9982
-12.9982
-12.9982
-12.9981
-12.9981
-12.9981
-12.9981
-12.9981
-12.9981
-12.9981
-12.9981
-12.9981
-12.9981
-12.9981
-12.9981
-12.9981
-12.9981
-12.9981
-12.9981
-12.998
-12.998
-12.998
-12.998
-12.998
-12.998
-12.998
-12.998
-12.998
-12.998
-12.998
-12.998
-12.998
-12.998
-12.998
-12.998
-12.998
-12.998
-12.998
-12.998
-12.998
-12.998
-12.998
-12.998
-12.998
-13.4889
-13.4889
-13.4889
-13.4889
-13.4889
-13.4889
-13.4888
-13.4888
-13.4888
-13.4888
-13.4888
-13.4889
-13.4889
-13.4889
-13.4889
-13.4888
-13.4888
-13.4888
-13.4888
-13.4888
-13.4888
-13.4888
-13.4888
-13.4888
-13.4888
-13.4888
-13.4888
-13.4888
-13.4888
-13.4887
-13.4887
-13.4887
-13.4887
-13.4887
-13.4887
-13.4887
-13.4887
-13.4887
-13.4887
-13.4887
-13.4886
-13.4886
-13.4886
-13.4886
-13.4886
-13.4886
-13.4886
-13.4886
-13.4886
-13.4886
-13.4886
-13.4886
-13.4886
-13.4886
-13.4886
-13.4885
-13.4885
-13.4886
-13.4885
-13.4885
-13.4885
-13.4885
-13.4885
-13.4885
-13.4885
-13.4885
-13.4885
-13.4885
-13.4885
-13.4885
-13.4885
-13.4885
-13.4885
-13.4885
-13.4885
-13.4885
-13.4885
-13.4885
-13.4885
-13.4885
-13.9794
-13.9794
-13.9794
-13.9794
-13.9794
-13.9794
-13.9793
-13.9793
-13.9793
-13.9794
-13.9794
-13.9794
-13.9794
-13.9794
-13.9793
-13.9793
-13.9793
-13.9793
-13.9793
-13.9793
-13.9793
-13.9793
-13.9793
-13.9793
-13.9793
-13.9793
-13.9793
-13.9793
-13.9793
-13.9792
-13.9792
-13.9792
-13.9792
-13.9792
-13.9792
-13.9792
-13.9792
-13.9792
-13.9792
-13.9792
-13.9791
-13.9791
-13.9791
-13.9791
-13.9791
-13.9791
-13.9791
-13.9791
-13.9791
-13.9791
-13.9791
-13.9791
-13.9791
-13.9791
-13.9791
-13.9791
-13.9791
-13.9791
-13.979
-13.979
-13.979
-13.979
-13.979
-13.979
-13.979
-13.979
-13.979
-13.979
-13.979
-13.979
-13.979
-13.979
-13.979
-13.979
-13.979
-13.979
-13.979
-13.979
-13.979
-13.979
-14.4699
-14.4699
-14.4699
-14.4699
-14.4699
-14.4699
-14.4699
-14.4699
-14.4699
-14.4699
-14.4699
-14.4699
-14.4699
-14.4699
-14.4698
-14.4698
-14.4698
-14.4698
-14.4698
-14.4698
-14.4698
-14.4698
-14.4698
-14.4698
-14.4698
-14.4698
-14.4698
-14.4698
-14.4698
-14.4697
-14.4697
-14.4697
-14.4697
-14.4697
-14.4697
-14.4697
-14.4697
-14.4697
-14.4697
-14.4696
-14.4696
-14.4696
-14.4696
-14.4696
-14.4696
-14.4696
-14.4696
-14.4696
-14.4696
-14.4696
-14.4696
-14.4696
-14.4696
-14.4696
-14.4696
-14.4696
-14.4696
-14.4696
-14.4696
-14.4696
-14.4695
-14.4695
-14.4695
-14.4695
-14.4695
-14.4695
-14.4695
-14.4695
-14.4695
-14.4695
-14.4695
-14.4696
-14.4695
-14.4696
-14.4695
-14.4695
-14.4695
-14.4695
-14.4695
-14.4695
-14.9604
-14.9604
-14.9604
-14.9604
-14.9604
-14.9604
-14.9604
-14.9604
-14.9604
-14.9604
-14.9604
-14.9604
-14.9604
-14.9603
-14.9603
-14.9603
-14.9603
-14.9603
-14.9603
-14.9603
-14.9603
-14.9603
-14.9603
-14.9603
-14.9603
-14.9603
-14.9603
-14.9603
-14.9603
-14.9602
-14.9602
-14.9602
-14.9602
-14.9602
-14.9602
-14.9602
-14.9602
-14.9602
-14.9602
-14.9601
-14.9601
-14.9601
-14.9601
-14.9601
-14.9601
-14.9601
-14.9601
-14.9601
-14.9601
-14.9601
-14.9601
-14.9601
-14.9601
-14.9601
-14.9601
-14.9601
-14.9601
-14.9601
-14.9601
-14.9601
-14.9601
-14.9601
-14.96
-14.96
-14.96
-14.9601
-14.96
-14.96
-14.96
-14.96
-14.9601
-14.9601
-14.9601
-14.9601
-14.9601
-14.9601
-14.96
-14.9601
-14.96
-14.96
-15.4509
-15.4509
-15.4509
-15.4509
-15.4509
-15.4509
-15.4509
-15.4509
-15.4509
-15.4509
-15.4509
-15.4509
-15.4509
-15.4508
-15.4508
-15.4508
-15.4508
-15.4508
-15.4508
-15.4508
-15.4508
-15.4508
-15.4508
-15.4508
-15.4508
-15.4508
-15.4508
-15.4508
-15.4508
-15.4507
-15.4507
-15.4507
-15.4507
-15.4507
-15.4507
-15.4507
-15.4507
-15.4507
-15.4507
-15.4506
-15.4506
-15.4506
-15.4506
-15.4506
-15.4506
-15.4506
-15.4506
-15.4506
-15.4506
-15.4506
-15.4506
-15.4506
-15.4506
-15.4506
-15.4506
-15.4506
-15.4506
-15.4506
-15.4506
-15.4506
-15.4506
-15.4506
-15.4506
-15.4505
-15.4505
-15.4506
-15.4506
-15.4506
-15.4506
-15.4506
-15.4506
-15.4506
-15.4506
-15.4506
-15.4506
-15.4506
-15.4506
-15.4506
-15.4506
-15.4506
-15.9414
-15.9414
-15.9414
-15.9414
-15.9414
-15.9414
-15.9414
-15.9414
-15.9414
-15.9414
-15.9414
-15.9414
-15.9413
-15.9413
-15.9413
-15.9413
-15.9413
-15.9413
-15.9413
-15.9413
-15.9413
-15.9413
-15.9413
-15.9413
-15.9413
-15.9413
-15.9413
-15.9413
-15.9413
-15.9412
-15.9412
-15.9412
-15.9412
-15.9412
-15.9412
-15.9412
-15.9412
-15.9412
-15.9412
-15.9411
-15.9411
-15.9411
-15.9411
-15.9411
-15.9411
-15.9411
-15.9411
-15.9411
-15.9411
-15.9411
-15.9411
-15.9411
-15.9411
-15.9411
-15.9411
-15.9411
-15.9411
-15.9411
-15.9411
-15.9411
-15.9411
-15.9411
-15.9411
-15.9411
-15.9411
-15.9411
-15.9411
-15.9411
-15.9411
-15.9411
-15.9411
-15.9411
-15.9411
-15.9411
-15.9411
-15.9411
-15.9411
-15.9411
-15.9411
-15.9411
-16.4319
-16.4319
-16.4319
-16.4319
-16.4319
-16.4319
-16.4319
-16.4319
-16.4319
-16.4319
-16.4319
-16.4319
-16.4318
-16.4318
-16.4318
-16.4318
-16.4318
-16.4318
-16.4318
-16.4318
-16.4318
-16.4318
-16.4318
-16.4318
-16.4318
-16.4318
-16.4318
-16.4318
-16.4318
-16.4317
-16.4317
-16.4317
-16.4317
-16.4317
-16.4317
-16.4317
-16.4317
-16.4317
-16.4317
-16.4316
-16.4316
-16.4316
-16.4316
-16.4316
-16.4316
-16.4316
-16.4316
-16.4316
-16.4316
-16.4316
-16.4316
-16.4316
-16.4316
-16.4316
-16.4316
-16.4316
-16.4316
-16.4316
-16.4316
-16.4316
-16.4316
-16.4316
-16.4316
-16.4316
-16.4316
-16.4316
-16.4316
-16.4316
-16.4316
-16.4316
-16.4316
-16.4316
-16.4316
-16.4316
-16.4316
-16.4316
-16.4316
-16.4316
-16.4316
-16.4316
-16.9224
-16.9224
-16.9224
-16.9224
-16.9224
-16.9224
-16.9224
-16.9224
-16.9224
-16.9224
-16.9224
-16.9224
-16.9223
-16.9223
-16.9223
-16.9223
-16.9223
-16.9223
-16.9223
-16.9223
-16.9223
-16.9223
-16.9223
-16.9223
-16.9223
-16.9223
-16.9223
-16.9223
-16.9222
-16.9222
-16.9222
-16.9222
-16.9222
-16.9222
-16.9222
-16.9222
-16.9222
-16.9222
-16.9222
-16.9221
-16.9221
-16.9221
-16.9221
-16.9221
-16.9221
-16.9221
-16.9221
-16.9221
-16.9221
-16.9221
-16.9221
-16.9221
-16.9221
-16.9221
-16.9221
-16.9221
-16.9221
-16.9221
-16.9221
-16.9221
-16.9221
-16.9221
-16.9221
-16.9221
-16.9221
-16.9221
-16.9221
-16.9221
-16.9221
-16.9221
-16.9221
-16.9221
-16.9221
-16.9221
-16.9221
-16.9221
-16.9221
-16.9221
-16.9221
-16.9221
-17.4129
-17.4129
-17.4129
-17.4129
-17.4129
-17.4129
-17.4129
-17.4129
-17.4129
-17.4129
-17.4129
-17.4129
-17.4128
-17.4128
-17.4128
-17.4128
-17.4128
-17.4128
-17.4128
-17.4128
-17.4128
-17.4128
-17.4128
-17.4128
-17.4128
-17.4128
-17.4128
-17.4128
-17.4127
-17.4127
-17.4127
-17.4127
-17.4127
-17.4127
-17.4127
-17.4127
-17.4127
-17.4127
-17.4127
-17.4127
-17.4126
-17.4126
-17.4126
-17.4126
-17.4126
-17.4126
-17.4126
-17.4126
-17.4126
-17.4126
-17.4126
-17.4126
-17.4126
-17.4126
-17.4126
-17.4126
-17.4126
-17.4126
-17.4126
-17.4126
-17.4126
-17.4126
-17.4126
-17.4126
-17.4126
-17.4126
-17.4126
-17.4126
-17.4126
-17.4126
-17.4126
-17.4126
-17.4126
-17.4126
-17.4126
-17.4126
-17.4126
-17.4126
-17.4126
-17.4126
-17.9034
-17.9034
-17.9034
-17.9034
-17.9034
-17.9034
-17.9034
-17.9034
-17.9034
-17.9034
-17.9034
-17.9034
-17.9033
-17.9033
-17.9033
-17.9033
-17.9033
-17.9033
-17.9033
-17.9033
-17.9033
-17.9033
-17.9033
-17.9033
-17.9033
-17.9033
-17.9033
-17.9033
-17.9032
-17.9032
-17.9032
-17.9032
-17.9032
-17.9032
-17.9032
-17.9032
-17.9032
-17.9032
-17.9032
-17.9032
-17.9032
-17.9032
-17.9031
-17.9031
-17.9031
-17.9031
-17.9031
-17.9031
-17.9031
-17.9031
-17.9031
-17.9031
-17.9031
-17.9031
-17.9031
-17.9031
-17.9031
-17.9031
-17.9031
-17.9031
-17.9031
-17.9031
-17.9031
-17.9031
-17.9031
-17.9031
-17.9031
-17.9031
-17.9031
-17.9031
-17.9031
-17.9031
-17.9031
-17.9031
-17.9031
-17.9031
-17.9031
-17.9031
-17.9031
-17.9031
-18.3939
-18.3939
-18.3939
-18.3939
-18.3939
-18.3939
-18.3939
-18.3939
-18.3939
-18.3939
-18.3939
-18.3939
-18.3938
-18.3938
-18.3938
-18.3938
-18.3938
-18.3938
-18.3938
-18.3938
-18.3938
-18.3938
-18.3938
-18.3938
-18.3938
-18.3938
-18.3938
-18.3938
-18.3937
-18.3937
-18.3937
-18.3937
-18.3937
-18.3937
-18.3937
-18.3937
-18.3937
-18.3937
-18.3937
-18.3937
-18.3937
-18.3937
-18.3937
-18.3936
-18.3936
-18.3936
-18.3936
-18.3936
-18.3936
-18.3936
-18.3936
-18.3936
-18.3936
-18.3936
-18.3936
-18.3936
-18.3936
-18.3936
-18.3936
-18.3936
-18.3936
-18.3936
-18.3936
-18.3936
-18.3936
-18.3936
-18.3936
-18.3936
-18.3936
-18.3936
-18.3936
-18.3936
-18.3936
-18.3936
-18.3936
-18.3936
-18.3936
-18.3936
-18.3936
-18.3936
-18.8844
-18.8844
-18.8844
-18.8844
-18.8844
-18.8844
-18.8844
-18.8844
-18.8844
-18.8844
-18.8844
-18.8844
-18.8844
-18.8843
-18.8843
-18.8843
-18.8843
-18.8843
-18.8843
-18.8843
-18.8843
-18.8843
-18.8843
-18.8843
-18.8843
-18.8843
-18.8843
-18.8843
-18.8842
-18.8842
-18.8842
-18.8842
-18.8842
-18.8842
-18.8842
-18.8842
-18.8842
-18.8842
-18.8842
-18.8842
-18.8842
-18.8842
-18.8842
-18.8842
-18.8841
-18.8841
-18.8841
-18.8841
-18.8841
-18.8841
-18.8841
-18.8841
-18.8841
-18.8841
-18.8841
-18.8841
-18.8841
-18.8841
-18.8841
-18.8841
-18.8841
-18.8841
-18.8841
-18.8841
-18.8841
-18.8841
-18.8841
-18.8841
-18.8841
-18.8841
-18.8841
-18.8841
-18.8841
-18.8841
-18.8841
-18.8841
-18.8841
-18.8841
-18.8841
-18.8841
-19.3749
-19.3749
-19.3749
-19.3749
-19.3749
-19.3749
-19.3749
-19.3749
-19.3749
-19.3749
-19.3749
-19.3749
-19.3749
-19.3749
-19.3748
-19.3748
-19.3748
-19.3748
-19.3748
-19.3748
-19.3748
-19.3748
-19.3748
-19.3748
-19.3748
-19.3748
-19.3748
-19.3748
-19.3748
-19.3747
-19.3747
-19.3747
-19.3747
-19.3747
-19.3747
-19.3747
-19.3747
-19.3747
-19.3747
-19.3747
-19.3747
-19.3746
-19.3746
-19.3746
-19.3746
-19.3746
-19.3746
-19.3746
-19.3746
-19.3746
-19.3746
-19.3746
-19.3746
-19.3746
-19.3746
-19.3746
-19.3746
-19.3746
-19.3746
-19.3746
-19.3746
-19.3746
-19.3746
-19.3746
-19.3746
-19.3746
-19.3746
-19.3746
-19.3746
-19.3746
-19.3746
-19.3746
-19.3746
-19.3746
-19.3746
-19.3746
-19.3746
-19.3746
-19.3746
-19.3746
-19.8654
-19.8654
-19.8654
-19.8654
-19.8654
-19.8654
-19.8654
-19.8654
-19.8654
-19.8654
-19.8654
-19.8654
-19.8654
-19.8654
-19.8654
-19.8654
-19.8653
-19.8653
-19.8653
-19.8653
-19.8653
-19.8653
-19.8653
-19.8653
-19.8653
-19.8653
-19.8653
-19.8653
-19.8653
-19.8652
-19.8652
-19.8652
-19.8652
-19.8652
-19.8652
-19.8652
-19.8652
-19.8652
-19.8652
-19.8652
-19.8652
-19.8652
-19.8651
-19.8651
-19.8651
-19.8652
-19.8651
-19.8651
-19.8651
-19.8651
-19.8651
-19.8651
-19.8651
-19.8651
-19.8651
-19.8652
-19.8651
-19.8651
-19.8651
-19.8651
-19.8651
-19.8651
-19.8651
-19.8651
-19.8651
-19.8651
-19.8651
-19.8651
-19.8651
-19.8651
-19.8651
-19.8651
-19.8651
-19.8651
-19.8651
-19.8651
-19.8651
-19.8651
-19.8651
-19.8651
-20.3559
-20.3559
-20.3559
-20.3559
-20.3559
-20.3559
-20.3559
-20.3559
-20.3559
-20.3559
-20.3559
-20.3559
-20.3559
-20.3559
-20.3559
-20.3559
-20.3559
-20.3558
-20.3558
-20.3558
-20.3558
-20.3558
-20.3558
-20.3558
-20.3558
-20.3558
-20.3558
-20.3558
-20.3558
-20.3558
-20.3557
-20.3557
-20.3557
-20.3557
-20.3557
-20.3557
-20.3557
-20.3557
-20.3557
-20.3557
-20.3557
-20.3557
-20.3557
-20.3556
-20.3556
-20.3556
-20.3557
-20.3556
-20.3556
-20.3556
-20.3556
-20.3556
-20.3556
-20.3556
-20.3556
-20.3556
-20.3556
-20.3556
-20.3556
-20.3556
-20.3556
-20.3556
-20.3556
-20.3556
-20.3556
-20.3556
-20.3556
-20.3556
-20.3556
-20.3556
-20.3556
-20.3556
-20.3556
-20.3556
-20.3556
-20.3556
-20.3556
-20.3556
-20.3556
-20.3556
-20.8464
-20.8464
-20.8464
-20.8464
-20.8464
-20.8464
-20.8464
-20.8464
-20.8464
-20.8464
-20.8464
-20.8464
-20.8464
-20.8464
-20.8464
-20.8464
-20.8464
-20.8463
-20.8463
-20.8463
-20.8463
-20.8463
-20.8463
-20.8463
-20.8463
-20.8463
-20.8463
-20.8463
-20.8463
-20.8463
-20.8462
-20.8462
-20.8462
-20.8462
-20.8462
-20.8462
-20.8462
-20.8462
-20.8462
-20.8461
-20.8461
-20.8462
-20.8462
-20.8462
-20.8461
-20.8461
-20.8462
-20.8462
-20.8461
-20.8461
-20.8461
-20.8461
-20.8461
-20.8461
-20.8461
-20.8461
-20.8461
-20.8461
-20.8461
-20.8461
-20.8461
-20.8461
-20.8461
-20.8461
-20.8461
-20.8461
-20.8461
-20.8461
-20.8461
-20.8461
-20.8461
-20.8461
-20.8461
-20.8461
-20.8461
-20.8461
-20.8461
-20.8461
-20.8461
-20.8461
-21.3369
-21.3369
-21.3369
-21.3369
-21.3369
-21.3369
-21.3369
-21.3369
-21.3369
-21.3369
-21.3369