/*--------------------------------*- C++ -*----------------------------------*\
| =========                 |                                                 |
| \\      /  F ield         | OpenFOAM: The Open Source CFD Toolbox           |
|  \\    /   O peration     | Version:  2412                                  |
|   \\  /    A nd           | Website:  www.openfoam.com                      |
|    \\/     M anipulation  |                                                 |
\*---------------------------------------------------------------------------*/
FoamFile
{
    version     2.0;
    format      ascii;
    arch        "LSB;label=32;scalar=64";
    class       surfaceScalarField;
    location    "7.41";
    object      phi;
}
// * * * * * * * * * * * * * * * * * * * * * * * * * * * * * * * * * * * * * //

dimensions      [0 3 -1 0 0 0 0];

oriented        oriented;

internalField   nonuniform List<scalar> 
158920
(
-1.09063e-05
1.09063e-05
-2.05782e-05
9.76389e-06
-3.0029e-05
9.53068e-06
-3.86001e-05
8.63164e-06
-4.71207e-05
8.56476e-06
-5.57008e-05
8.61163e-06
-6.42794e-05
8.60069e-06
-7.28287e-05
8.5647e-06
-8.13109e-05
8.49296e-06
-8.97594e-05
8.45592e-06
-9.81553e-05
8.40117e-06
-0.000106474
8.32229e-06
-0.000114711
8.24021e-06
-0.000122866
8.15683e-06
-0.000130935
8.0698e-06
-0.000138895
7.96178e-06
-0.000146737
7.84252e-06
-0.000154455
7.71921e-06
-0.000162038
7.5835e-06
-0.000169476
7.43896e-06
-0.000176762
7.28615e-06
-0.000183885
7.12327e-06
-0.000190837
6.9534e-06
-0.000197611
6.7743e-06
-0.000204197
6.58689e-06
-0.000210588
6.39144e-06
-0.000216774
6.18681e-06
-0.000222747
5.97462e-06
-0.000228502
5.75588e-06
-0.000234031
5.52952e-06
-0.000239325
5.29516e-06
-0.000244379
5.05427e-06
-0.000249183
4.80568e-06
-0.000253732
4.55009e-06
-0.000258018
4.28736e-06
-0.000262035
4.01752e-06
-0.000265774
3.74059e-06
-0.00026923
3.4566e-06
-0.000272394
3.16566e-06
-0.000275261
2.86793e-06
-0.000277823
2.56354e-06
-0.000280074
2.25254e-06
-0.000282008
1.93495e-06
-0.000283617
1.61086e-06
-0.000284896
1.28039e-06
-0.000285838
9.43723e-07
-0.000286438
6.01041e-07
-0.000286689
2.52493e-07
-0.000286586
-1.02488e-07
-0.00028612
-4.64851e-07
-0.000285287
-8.32207e-07
-0.000284084
-1.20222e-06
-0.0002825
-1.58318e-06
-0.000280536
-1.96291e-06
-0.000278184
-2.35095e-06
-0.000275431
-2.75137e-06
-0.000272289
-3.14115e-06
-0.000268744
-3.54425e-06
-0.000264789
-3.95383e-06
-0.000260418
-4.37014e-06
-0.000255631
-4.78567e-06
-0.000250428
-5.20254e-06
-0.000244799
-5.62755e-06
-0.00023874
-6.05916e-06
-0.000232247
-6.49147e-06
-0.000225324
-6.92267e-06
-0.000217962
-7.36095e-06
-0.000210157
-7.80403e-06
-0.000201901
-8.25607e-06
-0.000193203
-8.69705e-06
-0.00018405
-9.15174e-06
-0.000174448
-9.60203e-06
-0.000164385
-1.00625e-05
-0.00015387
-1.05146e-05
-0.000142888
-1.09812e-05
-0.000131448
-1.1439e-05
-0.000119547
-1.19007e-05
-0.000107181
-1.2366e-05
-9.43452e-05
-1.28352e-05
-8.10417e-05
-1.33031e-05
-6.72709e-05
-1.37703e-05
-5.30319e-05
-1.42385e-05
-3.83241e-05
-1.47073e-05
-2.31471e-05
-1.51766e-05
-7.50113e-06
-1.56455e-05
8.61186e-06
-1.61126e-05
2.51842e-05
-1.65719e-05
4.22489e-05
-1.70643e-05
5.97734e-05
-1.75241e-05
7.77632e-05
-1.79894e-05
9.62192e-05
-1.84556e-05
0.000115144
-1.89247e-05
0.00013453
-1.93853e-05
0.000154377
-1.98461e-05
0.000174683
-2.03056e-05
0.000195448
-2.07645e-05
0.00021667
-2.12214e-05
0.000238345
-2.16743e-05
0.000260469
-2.21237e-05
0.000283042
-2.25721e-05
0.000306059
-2.30165e-05
0.000329516
-2.34559e-05
0.00035341
-2.38928e-05
0.000377737
-2.43265e-05
0.000402495
-2.47575e-05
0.00042768
-2.5184e-05
0.000453286
-2.5605e-05
0.00047931
-2.60227e-05
0.000505747
-2.64356e-05
0.000532591
-2.68434e-05
0.000559838
-2.72458e-05
0.000587487
-2.76479e-05
0.000615528
-2.80395e-05
0.000643954
-2.84251e-05
0.000672761
-2.88056e-05
0.000701943
-2.91803e-05
0.000731493
-2.95488e-05
0.000761404
-2.99106e-05
0.000791671
-3.02651e-05
0.000822284
-3.06121e-05
0.000853237
-3.09518e-05
0.000884531
-3.12928e-05
0.000916149
-3.16169e-05
0.000948084
-3.19339e-05
0.000980328
-3.22437e-05
0.00101287
-3.25439e-05
0.00104572
-3.28489e-05
0.00107885
-3.31311e-05
0.00111226
-3.34063e-05
0.00114594
-3.36726e-05
0.00117987
-3.39377e-05
0.00121406
-3.41861e-05
0.00124848
-3.44185e-05
0.00128315
-3.46689e-05
0.00131803
-3.48831e-05
0.00135312
-3.50905e-05
0.00138841
-3.52928e-05
0.0014239
-3.54823e-05
0.00145956
-3.56621e-05
0.00149539
-3.58295e-05
0.00153137
-3.59871e-05
0.00156751
-3.61339e-05
0.00160377
-3.62668e-05
0.00164016
-3.63912e-05
0.00167666
-3.64996e-05
0.00171326
-3.65996e-05
0.00174995
-3.66842e-05
0.0017867
-3.67587e-05
0.00182352
-3.6819e-05
0.00186039
-3.68649e-05
0.00189729
-3.6899e-05
0.0019342
-3.69173e-05
0.00197113
-3.69268e-05
0.00200805
-3.69179e-05
0.00204494
-3.68951e-05
0.0020818
-3.68591e-05
0.0021186
-3.68073e-05
0.00215534
-3.67396e-05
0.00219201
-3.66646e-05
0.00222857
-3.65651e-05
0.00226502
-3.64524e-05
0.00230135
-3.63238e-05
0.00233753
-3.61811e-05
0.00237355
-3.60202e-05
0.00240939
-3.58426e-05
0.00244504
-3.56489e-05
0.00248048
-3.54379e-05
0.00251569
-3.52118e-05
0.00255066
-3.49658e-05
0.00258536
-3.47012e-05
0.00261978
-3.44203e-05
0.0026539
-3.41201e-05
0.0026877
-3.38013e-05
0.00272117
-3.34642e-05
0.00275428
-3.31091e-05
0.00278701
-3.27311e-05
0.00281935
-3.23387e-05
0.00285128
-3.19274e-05
0.00288277
-3.14914e-05
0.0029138
-3.10318e-05
0.00294436
-3.05575e-05
0.00297443
-3.00696e-05
0.00300398
-2.95491e-05
0.00303299
-2.90076e-05
0.00306144
-2.84473e-05
0.0030893
-2.78662e-05
0.00311657
-2.7263e-05
0.0031432
-2.66359e-05
0.00316919
-2.5987e-05
0.00319451
-2.53157e-05
0.00321913
-2.46204e-05
0.00324303
-2.39032e-05
0.0032662
-2.31634e-05
0.0032886
-2.23989e-05
0.00331021
-2.16105e-05
0.00333101
-2.07978e-05
0.00335097
-1.99619e-05
0.00337007
-1.91002e-05
0.00338828
-1.82152e-05
0.00340559
-1.73063e-05
0.00342196
-1.63702e-05
0.00343737
-1.54099e-05
0.0034518
-1.4428e-05
0.00346522
-1.34181e-05
0.0034776
-1.23821e-05
0.00348892
-1.13212e-05
0.00349916
-1.02371e-05
0.00350829
-9.12714e-06
0.00351628
-7.99103e-06
0.00352311
-6.83267e-06
0.00352876
-5.64761e-06
0.0035332
-4.43846e-06
0.0035364
-3.20506e-06
0.00353835
-1.953e-06
0.00353903
-6.78972e-07
0.00353834
6.93667e-07
0.00353635
1.98447e-06
0.003533
3.35187e-06
0.00352828
4.72116e-06
0.00352217
6.10497e-06
0.00351462
7.54833e-06
0.00350565
8.97138e-06
0.00349522
1.04378e-05
0.00348329
1.19302e-05
0.00346987
1.34165e-05
0.00345493
1.49424e-05
0.00343845
1.64802e-05
0.00342044
1.80155e-05
0.00340084
1.95966e-05
0.00337967
2.11663e-05
0.00335691
2.27576e-05
0.00333256
2.43569e-05
0.00330659
2.59634e-05
0.00327901
2.75831e-05
0.00324981
2.91989e-05
0.00321899
3.08237e-05
0.00318654
3.24496e-05
0.00315247
3.40695e-05
0.00311677
3.56974e-05
0.00307947
3.73023e-05
0.00304056
3.89119e-05
0.00300005
4.05091e-05
0.00295796
4.20869e-05
0.00291431
4.36564e-05
0.00286911
4.51952e-05
0.0028224
4.67193e-05
0.00277418
4.82168e-05
0.00272449
4.96835e-05
0.00267338
5.11192e-05
0.00262086
5.25104e-05
0.00256699
5.38756e-05
0.00251179
5.51954e-05
0.00245533
5.64658e-05
0.00239763
5.7693e-05
0.00233878
5.88552e-05
0.00227881
5.9968e-05
0.00221778
6.10261e-05
0.00215577
6.20155e-05
0.00209283
6.29417e-05
0.00202903
6.37985e-05
0.00196446
6.45681e-05
0.00189919
6.52716e-05
0.00183328
6.59064e-05
0.00176683
6.64498e-05
0.00169993
6.6906e-05
0.00163265
6.72806e-05
0.00156508
6.75674e-05
0.00149731
6.77635e-05
0.00142944
6.78734e-05
0.00136154
6.7896e-05
0.00129372
6.78237e-05
0.00122607
6.76481e-05
0.00115869
6.73802e-05
0.00109166
6.70318e-05
0.00102506
6.65954e-05
0.000959005
6.60596e-05
0.000893589
6.54169e-05
0.000828894
6.46959e-05
0.000765008
6.38867e-05
0.000702002
6.30062e-05
0.000639973
6.20294e-05
0.000579023
6.09505e-05
0.000519209
5.98144e-05
0.000460609
5.86002e-05
0.000403282
5.73274e-05
0.00034731
5.59735e-05
0.00029277
5.45413e-05
0.000239727
5.30431e-05
0.00018822
5.15058e-05
0.000138292
4.99258e-05
9.00031e-05
4.82876e-05
4.34133e-05
4.65893e-05
-1.41806e-06
4.48316e-05
-4.44692e-05
4.30514e-05
-8.57451e-05
4.12755e-05
-0.000125193
3.94464e-05
-0.000162712
3.75174e-05
-0.000198253
3.55391e-05
-0.000231983
3.37308e-05
-0.000263789
3.18079e-05
-0.000293672
2.98865e-05
-0.000321595
2.79266e-05
-0.000347505
2.59118e-05
-0.000371425
2.39212e-05
-0.000393384
2.19577e-05
-0.000413367
1.99817e-05
-0.000431503
1.81364e-05
-0.000447684
1.61841e-05
-0.000461915
1.42349e-05
-0.000474227
1.23147e-05
-0.00048455
1.03238e-05
-0.000493048
8.49634e-06
-0.00049967
6.62117e-06
-0.000504425
4.75776e-06
-0.000507347
2.92898e-06
-0.000508449
1.11001e-06
-0.00050785
-5.93894e-07
-0.000505489
-2.36065e-06
-0.000501368
-4.12351e-06
-0.000495498
-5.86902e-06
-0.000487937
-7.55404e-06
-0.000478757
-9.16861e-06
-0.000467931
-1.08164e-05
-0.000455511
-1.24193e-05
-0.000441505
-1.40122e-05
-0.000425848
-1.56656e-05
-0.000408677
-1.71758e-05
-0.000389963
-1.87133e-05
-0.000369722
-2.02383e-05
-0.000347953
-2.17671e-05
-0.000324692
-2.32645e-05
-0.000299982
-2.47169e-05
-0.000273847
-2.61415e-05
-0.000246284
-2.75674e-05
-0.000217298
-2.89843e-05
-0.000186883
-3.04101e-05
-0.000155056
-3.18208e-05
-0.000121932
-3.3119e-05
-8.7534e-05
-3.4397e-05
-5.17869e-05
-3.57493e-05
-1.46876e-05
-3.71038e-05
2.36585e-05
-3.83506e-05
6.32222e-05
-3.95662e-05
0.000103963
-4.07399e-05
0.000145861
-4.18951e-05
0.000188858
-4.29926e-05
0.000232918
-4.40579e-05
0.00027803
-4.51138e-05
0.000324181
-4.61545e-05
0.000371178
-4.70016e-05
0.00041894
-4.77642e-05
0.000467441
-4.84998e-05
0.000516778
-4.93325e-05
0.000566796
-5.00126e-05
0.000617354
-5.0553e-05
0.000668383
-5.10258e-05
0.000719824
-5.14403e-05
0.000771581
-5.17593e-05
0.000823539
-5.19626e-05
0.000875685
-5.21527e-05
0.000927909
-5.22306e-05
0.000980054
-5.21482e-05
0.00103201
-5.1951e-05
0.00108365
-5.16424e-05
0.00113498
-5.13202e-05
0.00118588
-5.08966e-05
0.00123619
-5.03116e-05
0.00128576
-4.95719e-05
0.00133453
-4.87749e-05
0.00138245
-4.79261e-05
0.00142939
-4.69366e-05
0.0014752
-4.58073e-05
0.00151982
-4.4618e-05
0.00156305
-4.32298e-05
0.0016049
-4.18459e-05
0.00164533
-4.04245e-05
0.00168426
-3.89248e-05
0.00172154
-3.72911e-05
0.00175708
-3.55334e-05
0.00179071
-3.36323e-05
0.00182249
-3.17764e-05
0.00185239
-2.99003e-05
0.00188031
-2.79179e-05
0.00190612
-2.58102e-05
0.00192981
-2.36923e-05
0.00195136
-2.15528e-05
0.00197073
-1.93726e-05
0.00198784
-1.7103e-05
0.00200264
-1.47993e-05
0.00201511
-1.24648e-05
0.00202524
-1.01325e-05
0.00203298
-7.73838e-06
0.00203828
-5.30524e-06
0.00204112
-2.83126e-06
0.00204155
-4.3549e-07
0.00203949
2.06149e-06
0.00203496
4.53118e-06
0.00202801
6.94248e-06
0.00201859
9.42708e-06
0.00200667
1.1921e-05
0.00199232
1.43422e-05
0.00197564
1.66812e-05
0.00195654
1.91024e-05
0.00193503
2.15069e-05
0.00191117
2.38609e-05
0.00188497
2.6208e-05
0.00185656
2.8412e-05
0.00182591
3.0641e-05
0.0017931
3.2818e-05
0.00175812
3.49721e-05
0.00172115
3.69727e-05
0.0016822
3.89459e-05
0.00164131
4.08901e-05
0.00159858
4.27378e-05
0.0015541
4.4475e-05
0.00150797
4.61336e-05
0.00146021
4.77586e-05
0.00141102
4.91965e-05
0.00136046
5.05554e-05
0.00130857
5.18879e-05
0.00125551
5.30656e-05
0.00120131
5.42023e-05
0.00114615
5.51593e-05
0.00109015
5.6e-05
0.00103333
5.68189e-05
0.000975857
5.74695e-05
0.000917777
5.80798e-05
0.000859314
5.84624e-05
0.000800609
5.87051e-05
0.000741685
5.89235e-05
0.000682743
5.89418e-05
0.00062377
5.89729e-05
0.000565003
5.87669e-05
0.000506523
5.84795e-05
0.000448455
5.80677e-05
0.000390967
5.74884e-05
0.000334055
5.69111e-05
0.000277937
5.61177e-05
0.000222601
5.53365e-05
0.000168318
5.42825e-05
0.000115126
5.3192e-05
6.31413e-05
5.1985e-05
1.24921e-05
5.06495e-05
-3.66392e-05
4.91315e-05
-8.43129e-05
4.76741e-05
-0.000130338
4.60254e-05
-0.000174657
4.43193e-05
-0.000217295
4.26389e-05
-0.000257959
4.06643e-05
-0.000296544
3.85861e-05
-0.000332945
3.64023e-05
-0.000367167
3.42232e-05
-0.000399228
3.20624e-05
-0.000428963
2.97358e-05
-0.000456304
2.73408e-05
-0.00048122
2.49169e-05
-0.000503608
2.23883e-05
-0.000523331
1.97235e-05
-0.000540539
1.72083e-05
-0.000555141
1.46023e-05
-0.000567009
1.18675e-05
-0.000576266
9.2574e-06
-0.000582902
6.63539e-06
-0.00058692
4.01845e-06
-0.000588228
1.3082e-06
-0.000586945
-1.28222e-06
-0.000583045
-3.89943e-06
-0.000576654
-6.39205e-06
-0.000567786
-8.87015e-06
-0.000556505
-1.12844e-05
-0.000542894
-1.36123e-05
-0.000527009
-1.58861e-05
-0.0005089
-1.81097e-05
-0.000488775
-2.01262e-05
-0.000466736
-2.20404e-05
-0.000442876
-2.38631e-05
-0.000417351
-2.5527e-05
-0.000390307
-2.70452e-05
-0.000361844
-2.8464e-05
-0.000332141
-2.97033e-05
-0.000301388
-3.07524e-05
-0.000269735
-3.1653e-05
-0.000237305
-3.24303e-05
-0.000204296
-3.30092e-05
-0.000170859
-3.34361e-05
-0.000137151
-3.37073e-05
-0.000103474
-3.36762e-05
-6.98942e-05
-3.35783e-05
-3.64693e-05
-3.34241e-05
-3.51816e-06
-3.29505e-05
2.8913e-05
-3.24303e-05
6.06544e-05
-3.174e-05
9.15042e-05
-3.08479e-05
0.000121372
-2.98657e-05
0.00015013
-2.87559e-05
0.000177612
-2.74802e-05
0.000203727
-2.61132e-05
0.000228424
-2.46961e-05
0.000251627
-2.32008e-05
0.000273192
-2.1564e-05
0.000293088
-1.9895e-05
0.000311256
-1.81661e-05
0.000327803
-1.65463e-05
0.000342535
-1.47321e-05
0.000355452
-1.29164e-05
0.000366555
-1.11032e-05
0.000375994
-9.43824e-06
0.000383664
-7.67076e-06
0.000389682
-6.01809e-06
0.000394042
-4.3611e-06
0.000396691
-2.65016e-06
0.000397863
-1.17315e-06
0.000397496
3.65313e-07
0.000395762
1.7333e-06
0.00039267
3.09155e-06
0.000388337
4.33255e-06
0.000382884
5.45252e-06
0.000376398
6.484e-06
0.000369097
7.29897e-06
0.000360995
8.10017e-06
0.000352245
8.74781e-06
0.00034297
9.27443e-06
0.000333284
9.68579e-06
0.000323298
9.98659e-06
0.000313177
1.01206e-05
0.000303024
1.01518e-05
0.000292831
1.01911e-05
0.000282884
9.94479e-06
0.000273098
9.7854e-06
0.00026369
9.40868e-06
0.00025465
9.04017e-06
0.000246055
8.5954e-06
0.000238003
8.05122e-06
0.000230443
7.55902e-06
0.00022352
6.92265e-06
0.000217127
6.39335e-06
0.000211286
5.84165e-06
0.000206018
5.26983e-06
0.000201264
4.75395e-06
0.000197033
4.23198e-06
0.000193371
3.66266e-06
0.000190227
3.14485e-06
0.000187702
2.5257e-06
0.000185693
2.01031e-06
0.000184251
1.44335e-06
0.000183261
9.90998e-07
0.000182744
5.17907e-07
0.000182589
1.56804e-07
0.000182917
-3.28086e-07
0.000183695
-7.76744e-07
0.000184854
-1.15887e-06
0.000186336
-1.48097e-06
0.000188088
-1.7517e-06
0.000190047
-1.95776e-06
0.000192045
-1.99822e-06
0.000193983
-1.93757e-06
0.000195772
-1.78943e-06
0.000197503
-1.73197e-06
0.00019923
-1.72669e-06
0.000200832
-1.60252e-06
0.000202235
-1.40266e-06
0.000203333
-1.09788e-06
0.000203947
-6.13937e-07
0.000204129
-1.81987e-07
0.000203828
3.00943e-07
0.000202962
8.65688e-07
0.000201456
1.50649e-06
0.000199391
2.06546e-06
0.00019666
2.73193e-06
0.000193147
3.51323e-06
0.000188829
4.31825e-06
0.000183661
5.16844e-06
0.000177489
6.17252e-06
0.000170345
7.14417e-06
0.000162232
8.11342e-06
0.00015287
9.36219e-06
0.000142097
1.07732e-05
0.000129097
1.29996e-05
0.000114763
1.4335e-05
9.73175e-05
1.74454e-05
7.6519e-05
2.07987e-05
6.6712e-05
9.80736e-06
7.52428e-05
-8.53053e-06
7.49689e-05
2.74114e-07
5.96384e-05
1.53306e-05
3.79744e-05
2.1664e-05
2.6256e-05
1.17183e-05
3.43128e-05
-8.05676e-06
3.32593e-05
1.05354e-06
1.32743e-05
1.99851e-05
-8.44343e-06
2.17178e-05
-2.69259e-05
1.84826e-05
-4.39223e-05
1.69965e-05
-5.92565e-05
1.53343e-05
-7.33344e-05
1.4078e-05
-8.6358e-05
1.30238e-05
-9.84715e-05
1.21137e-05
-0.000109844
1.1373e-05
-0.000120541
1.06973e-05
-0.000130631
1.00896e-05
-0.000140141
9.51072e-06
-0.000148987
8.84583e-06
-0.000157154
8.16715e-06
-0.000164676
7.52281e-06
-0.000171409
6.7329e-06
-0.000177611
6.20249e-06
-0.000183104
5.49316e-06
-0.000187865
4.7613e-06
-0.000191981
4.11644e-06
-0.000195395
3.41472e-06
-0.000198247
2.85206e-06
-0.000200583
2.33582e-06
-0.000202392
1.80925e-06
-0.000203754
1.36222e-06
-0.000204612
8.57766e-07
-0.000205111
4.99755e-07
-0.00020543
3.1912e-07
-0.000205599
1.69003e-07
-0.000205664
6.44565e-08
-0.000205586
-7.71713e-08
-0.000205395
-1.91312e-07
-0.000205256
-1.38976e-07
-0.000205307
5.08971e-08
-0.000205716
4.09032e-07
-0.000206288
5.7183e-07
-0.000207007
7.18544e-07
-0.00020793
9.23051e-07
-0.000209205
1.27517e-06
-0.000210869
1.66317e-06
-0.000212898
2.02913e-06
-0.000215359
2.46058e-06
-0.000218205
2.8456e-06
-0.000221559
3.35332e-06
-0.000225415
3.85616e-06
-0.000229774
4.35841e-06
-0.000234654
4.87893e-06
-0.000240075
5.42109e-06
-0.000245928
5.85267e-06
-0.000252528
6.59896e-06
-0.000259663
7.13498e-06
-0.000266915
7.25128e-06
-0.00027442
7.50414e-06
-0.000281946
7.5255e-06
-0.000289426
7.48037e-06
-0.000296864
7.43757e-06
-0.000304082
7.21693e-06
-0.000310972
6.89034e-06
-0.000317399
6.42677e-06
-0.000323325
5.92513e-06
-0.000328412
5.0872e-06
-0.000332595
4.18284e-06
-0.000335842
3.24683e-06
-0.000338182
2.33951e-06
-0.000339373
1.19126e-06
-0.000339314
-5.91953e-08
-0.00033788
-1.43356e-06
-0.000334751
-3.12939e-06
-0.000329921
-4.82948e-06
-0.000323534
-6.38673e-06
-0.000315558
-7.97672e-06
-0.000306101
-9.45633e-06
-0.000295093
-1.10073e-05
-0.00028205
-1.30426e-05
-0.000266821
-1.52292e-05
-0.000249725
-1.70952e-05
-0.0002307
-1.90242e-05
-0.000210192
-2.05075e-05
-0.000187866
-2.2325e-05
-0.000163777
-2.40882e-05
-0.000137946
-2.58297e-05
-0.000110591
-2.7355e-05
-8.16738e-05
-2.89159e-05
-5.15236e-05
-3.01493e-05
-2.01583e-05
-3.13644e-05
1.22281e-05
-3.23857e-05
4.54048e-05
-3.3176e-05
7.95392e-05
-3.41339e-05
0.000114172
-3.46323e-05
0.000148952
-3.47795e-05
0.000183671
-3.47173e-05
0.000218221
-3.45496e-05
0.000252229
-3.40075e-05
0.000285479
-3.3249e-05
0.000317866
-3.23863e-05
0.000349094
-3.1228e-05
0.000378826
-2.97311e-05
0.000406849
-2.80233e-05
0.000433113
-2.62633e-05
0.000456846
-2.37326e-05
0.000478226
-2.13794e-05
0.000496865
-1.86387e-05
0.000512586
-1.57203e-05
0.000525546
-1.29604e-05
0.000535491
-9.94393e-06
0.000542157
-6.66612e-06
0.000545346
-3.18896e-06
0.000544959
3.8702e-07
0.000540843
4.115e-06
0.000533372
7.47065e-06
0.000522338
1.10339e-05
0.000507695
1.46424e-05
0.00048931
1.83844e-05
0.000467135
2.21737e-05
0.000441466
2.5669e-05
0.000412251
2.92138e-05
0.000379449
3.2801e-05
0.000343926
3.55226e-05
0.000305113
3.88113e-05
0.000263179
4.19336e-05
0.000218101
4.50775e-05
0.000170199
4.79008e-05
0.000119618
5.05808e-05
6.65704e-05
5.30472e-05
1.15007e-05
5.50697e-05
-4.59233e-05
5.74243e-05
-0.00010548
5.95572e-05
-0.000166905
6.14251e-05
-0.000229988
6.30843e-05
-0.000294436
6.44481e-05
-0.000360109
6.56738e-05
-0.000426889
6.67808e-05
-0.000494809
6.7919e-05
-0.000563624
6.88144e-05
-0.000633015
6.93902e-05
-0.000702694
6.96779e-05
-0.000772578
6.98827e-05
-0.000842409
6.98293e-05
-0.000912142
6.97324e-05
-0.000981527
6.93835e-05
-0.00105048
6.89526e-05
-0.00111874
6.82654e-05
-0.001186
6.72553e-05
-0.001252
6.59962e-05
-0.00131649
6.44957e-05
-0.0013795
6.30107e-05
-0.00144086
6.13583e-05
-0.00150043
5.95705e-05
-0.00155784
5.74125e-05
-0.00161288
5.50395e-05
-0.00166556
5.26867e-05
-0.00171545
4.9887e-05
-0.00176244
4.69917e-05
-0.00180635
4.39138e-05
-0.00184726
4.09099e-05
-0.00188495
3.76856e-05
-0.00191917
3.42226e-05
-0.00194983
3.06559e-05
-0.00197692
2.70891e-05
-0.0020002
2.32827e-05
-0.00201978
1.95798e-05
-0.00203553
1.57554e-05
-0.00204724
1.17e-05
-0.00205505
7.81729e-06
-0.00205893
3.87241e-06
-0.00205884
-9.37798e-08
-0.00205488
-3.95806e-06
-0.00204705
-7.83106e-06
-0.00203532
-1.17307e-05
-0.00201981
-1.55128e-05
-0.00200053
-1.92749e-05
-0.00197755
-2.29885e-05
-0.00195095
-2.6597e-05
-0.00192082
-3.01282e-05
-0.0018873
-3.35167e-05
-0.00185056
-3.67483e-05
-0.0018106
-3.99558e-05
-0.00176763
-4.2968e-05
-0.00172179
-4.58464e-05
-0.0016733
-4.8484e-05
-0.00162236
-5.09406e-05
-0.00156907
-5.32912e-05
-0.00151366
-5.54168e-05
-0.00145635
-5.7305e-05
-0.00139733
-5.90286e-05
-0.00133661
-6.07187e-05
-0.00127445
-6.21564e-05
-0.00121123
-6.32211e-05
-0.00114713
-6.40945e-05
-0.00108234
-6.47968e-05
-0.00101697
-6.53686e-05
-0.000951276
-6.56952e-05
-0.000885429
-6.58476e-05
-0.000819526
-6.59032e-05
-0.000753806
-6.572e-05
-0.000688326
-6.54796e-05
-0.00062321
-6.51151e-05
-0.000558716
-6.44924e-05
-0.00049493
-6.37845e-05
-0.000431971
-6.29576e-05
-0.000369938
-6.20304e-05
-0.000308983
-6.09539e-05
-0.000249221
-5.97602e-05
-0.000190755
-5.84656e-05
-0.000133652
-5.71029e-05
-7.81123e-05
-5.55395e-05
-2.42314e-05
-5.38808e-05
2.7852e-05
-5.20831e-05
7.80181e-05
-5.01657e-05
0.000126106
-4.80879e-05
0.000171991
-4.5884e-05
0.000215576
-4.35843e-05
0.000256743
-4.11664e-05
0.000295424
-3.86803e-05
0.00033139
-3.59667e-05
0.000364591
-3.32013e-05
0.00039484
-3.02492e-05
0.00042203
-2.71915e-05
0.000446025
-2.39958e-05
0.000466638
-2.06141e-05
0.000483747
-1.71099e-05
0.00049726
-1.35134e-05
0.000507037
-9.77667e-06
0.000512932
-5.89464e-06
0.000514812
-1.88059e-06
0.00051263
2.18275e-06
0.00050624
6.38993e-06
0.000495568
1.06713e-05
0.000480852
1.47141e-05
0.000461555
1.9297e-05
0.000437848
2.37075e-05
0.000409616
2.82324e-05
0.000376876
3.27388e-05
0.000339946
3.69307e-05
0.000298302
4.16435e-05
0.000252153
4.61483e-05
0.000201969
5.01831e-05
0.00014724
5.47288e-05
8.83037e-05
5.89363e-05
2.56909e-05
6.2613e-05
-4.11731e-05
6.68646e-05
-0.000111742
7.05706e-05
-0.00018588
7.41403e-05
-0.000263396
7.75191e-05
-0.00034414
8.07453e-05
-0.000427883
8.37447e-05
-0.000514372
8.64905e-05
-0.000603393
8.90217e-05
-0.000694692
9.12975e-05
-0.000787981
9.32847e-05
-0.000883
9.50143e-05
-0.000979466
9.64621e-05
-0.00107709
9.76218e-05
-0.00117558
9.84856e-05
-0.00127463
9.9053e-05
-0.00137398
9.93531e-05
-0.00147333
9.93486e-05
-0.00157238
9.90466e-05
-0.00167082
9.8443e-05
-0.0017684
9.75811e-05
-0.00186486
9.64658e-05
-0.00195995
9.50984e-05
-0.00205344
9.34871e-05
-0.00214506
9.16314e-05
-0.0022346
8.95408e-05
-0.00232183
8.72363e-05
-0.00240656
8.4727e-05
-0.00248861
8.2055e-05
-0.00256787
7.92629e-05
-0.00264421
7.63324e-05
-0.00271745
7.32439e-05
-0.00278753
7.0085e-05
-0.00285435
6.68113e-05
-0.00291784
6.34927e-05
-0.00297796
6.01234e-05
-0.00303467
5.67028e-05
-0.00308792
5.32515e-05
-0.00313769
4.97813e-05
-0.00318402
4.63314e-05
-0.00322691
4.28954e-05
-0.00326641
3.94988e-05
-0.00330253
3.6128e-05
-0.00333528
3.27441e-05
-0.00336464
2.93599e-05
-0.00339066
2.60175e-05
-0.00341339
2.27268e-05
-0.00343289
1.95046e-05
-0.00344925
1.63629e-05
-0.00346245
1.31978e-05
-0.00347252
1.00702e-05
-0.00347948
6.97257e-06
-0.00348342
3.9363e-06
-0.00348438
9.59334e-07
-0.00348237
-2.01153e-06
-0.0034775
-4.87515e-06
-0.0034698
-7.70073e-06
-0.00345926
-1.05284e-05
-0.00344596
-1.32961e-05
-0.00342996
-1.60052e-05
-0.0034113
-1.86559e-05
-0.00339007
-2.12361e-05
-0.00336636
-2.37126e-05
-0.0033402
-2.61549e-05
-0.00331168
-2.85264e-05
-0.00328083
-3.08441e-05
-0.00324775
-3.30764e-05
-0.00321255
-3.52084e-05
-0.00317526
-3.72875e-05
-0.00313596
-3.93002e-05
-0.00309471
-4.12458e-05
-0.00305161
-4.31043e-05
-0.00300677
-4.48361e-05
-0.00296027
-4.64991e-05
-0.0029122
-4.80738e-05
-0.00286264
-4.9564e-05
-0.00281166
-5.09821e-05
-0.00275932
-5.23346e-05
-0.0027057
-5.36266e-05
-0.00265093
-5.47687e-05
-0.0025951
-5.5827e-05
-0.00253825
-5.68567e-05
-0.00248047
-5.77734e-05
-0.00242188
-5.8593e-05
-0.00236255
-5.93372e-05
-0.00230252
-6.003e-05
-0.00224187
-6.06509e-05
-0.0021807
-6.1173e-05
-0.0021191
-6.15961e-05
-0.00205721
-6.18903e-05
-0.00199501
-6.21964e-05
-0.00193256
-6.2453e-05
-0.00186995
-6.26092e-05
-0.00180731
-6.26443e-05
-0.00174466
-6.26529e-05
-0.00168215
-6.25023e-05
-0.00161978
-6.23766e-05
-0.00155761
-6.21712e-05
-0.00149572
-6.1892e-05
-0.00143419
-6.15228e-05
-0.00137307
-6.11257e-05
-0.00131246
-6.06093e-05
-0.00125235
-6.01044e-05
-0.00119284
-5.95147e-05
-0.00113395
-5.88855e-05
-0.00107585
-5.80976e-05
-0.00101854
-5.73093e-05
-0.000962014
-5.65292e-05
-0.000906356
-5.56581e-05
-0.000851631
-5.47239e-05
-0.000797876
-5.3755e-05
-0.000745134
-5.27415e-05
-0.000693454
-5.16791e-05
-0.000642894
-5.05589e-05
-0.000593505
-4.93891e-05
-0.000545284
-4.82207e-05
-0.00049828
-4.70045e-05
-0.000452529
-4.5751e-05
-0.000408092
-4.44367e-05
-0.000364985
-4.3107e-05
-0.000323203
-4.17814e-05
-0.000282855
-4.03482e-05
-0.000243833
-3.90229e-05
-0.00020637
-3.74629e-05
-0.00017029
-3.60806e-05
-0.000135722
-3.45689e-05
-0.00010262
-3.31022e-05
-7.09811e-05
-3.16388e-05
-4.09665e-05
-3.0015e-05
-1.24372e-05
-2.85298e-05
1.45696e-05
-2.70075e-05
4.00299e-05
-2.54609e-05
6.39446e-05
-2.39151e-05
8.63137e-05
-2.23693e-05
0.000107138
-2.08246e-05
0.000126422
-1.92833e-05
0.000144164
-1.77431e-05
0.000160392
-1.62279e-05
0.000175096
-1.47037e-05
0.000188295
-1.31996e-05
0.000200006
-1.17106e-05
0.000210245
-1.02386e-05
0.000219034
-8.78779e-06
0.000226392
-7.35741e-06
0.000232338
-5.94618e-06
0.000236906
-4.56678e-06
0.000240136
-3.22992e-06
0.000242042
-1.90472e-06
0.000242657
-6.14772e-07
0.000242021
6.37719e-07
0.000240168
1.85367e-06
0.000237139
3.02961e-06
0.000232969
4.17092e-06
0.000227706
5.264e-06
0.000221392
6.31442e-06
0.000214093
7.30056e-06
0.000205831
8.26274e-06
0.000196656
9.17672e-06
0.000186626
1.00304e-05
0.000175796
1.08308e-05
0.000164216
1.15795e-05
0.000151939
1.22775e-05
0.000139023
1.29167e-05
0.000125541
1.3483e-05
0.000111565
1.39771e-05
9.71533e-05
1.44122e-05
8.24238e-05
1.47302e-05
6.77379e-05
1.46866e-05
5.29181e-05
1.48203e-05
3.58378e-05
1.70807e-05
1.75913e-05
1.82464e-05
1.75914e-05
-7.54678e-06
1.83682e-05
-1.71563e-05
1.92494e-05
-2.67002e-05
1.89778e-05
-3.60292e-05
1.78863e-05
-4.50807e-05
1.75607e-05
-5.38876e-05
1.73778e-05
-6.25616e-05
1.72456e-05
-7.11903e-05
1.7173e-05
-7.97914e-05
1.70798e-05
-8.83071e-05
1.6962e-05
-9.67442e-05
1.68318e-05
-0.000105113
1.66874e-05
-0.000113409
1.65335e-05
-0.000121615
1.6361e-05
-0.000129722
1.61759e-05
-0.000137724
1.59633e-05
-0.000145614
1.57329e-05
-0.000153378
1.54838e-05
-0.000161008
1.5214e-05
-0.000168495
1.49266e-05
-0.000175832
1.46238e-05
-0.000183008
1.43008e-05
-0.000190014
1.39609e-05
-0.000196842
1.36029e-05
-0.000203482
1.32281e-05
-0.000209927
1.28379e-05
-0.000216168
1.24292e-05
-0.000222198
1.20061e-05
-0.00022801
1.15692e-05
-0.000233597
1.11177e-05
-0.00023895
1.065e-05
-0.000244063
1.01689e-05
-0.000248928
9.67209e-06
-0.000253538
9.16099e-06
-0.000257884
8.63546e-06
-0.000261961
8.09574e-06
-0.000265761
7.54191e-06
-0.000269276
6.97395e-06
-0.000272501
6.39202e-06
-0.000275428
5.79643e-06
-0.00027805
5.18753e-06
-0.000280361
4.56556e-06
-0.000282355
3.9306e-06
-0.000284026
3.28262e-06
-0.000285365
2.62165e-06
-0.000286368
1.94784e-06
-0.000287027
1.26151e-06
-0.000287336
5.62986e-07
-0.00028729
-1.4752e-07
-0.000286884
-8.69685e-07
-0.000286112
-1.60294e-06
-0.000284965
-2.34728e-06
-0.000283442
-3.10537e-06
-0.000281534
-3.86941e-06
-0.000279237
-4.64666e-06
-0.000276552
-5.43482e-06
-0.000273461
-6.23039e-06
-0.000269968
-7.03657e-06
-0.000266067
-7.85317e-06
-0.000261757
-8.67919e-06
-0.000257029
-9.51243e-06
-0.000251877
-1.03535e-05
-0.0002463
-1.1203e-05
-0.000240298
-1.20608e-05
-0.000233861
-1.29267e-05
-0.000226986
-1.37972e-05
-0.000219671
-1.46751e-05
-0.000211912
-1.55611e-05
-0.000203712
-1.64554e-05
-0.000195058
-1.73505e-05
-0.000185955
-1.82537e-05
-0.000176395
-1.91611e-05
-0.000166383
-2.00738e-05
-0.000155908
-2.09891e-05
-0.000144971
-2.1917e-05
-0.000133574
-2.28349e-05
-0.000121711
-2.37631e-05
-0.000109382
-2.46942e-05
-9.65857e-05
-2.56307e-05
-8.33224e-05
-2.65656e-05
-6.95898e-05
-2.75022e-05
-5.53867e-05
-2.84408e-05
-4.07131e-05
-2.93801e-05
-2.55687e-05
-3.03202e-05
-9.95241e-06
-3.12611e-05
6.14173e-06
-3.2206e-05
2.27226e-05
-3.3152e-05
3.97228e-05
-3.40639e-05
5.72092e-05
-3.50097e-05
7.51692e-05
-3.59487e-05
9.35988e-05
-3.68843e-05
0.000112493
-3.78182e-05
0.000131853
-3.87441e-05
0.000151675
-3.96675e-05
0.000171958
-4.05876e-05
0.000192697
-4.15025e-05
0.000213903
-4.24258e-05
0.000235555
-4.33261e-05
0.000257659
-4.42264e-05
0.000280211
-4.51222e-05
0.000303214
-4.60184e-05
0.000326653
-4.68939e-05
0.000350531
-4.777e-05
0.000374845
-4.86392e-05
0.000399591
-4.95016e-05
0.000424768
-5.03593e-05
0.000450362
-5.11983e-05
0.00047638
-5.20393e-05
0.000502809
-5.28625e-05
0.000529641
-5.36746e-05
0.000556869
-5.44719e-05
0.000584515
-5.52928e-05
0.000612549
-5.60719e-05
0.000640971
-5.68449e-05
0.000669774
-5.76074e-05
0.000698951
-5.83564e-05
0.000728498
-5.90935e-05
0.000758407
-5.98182e-05
0.000788673
-6.05306e-05
0.000819289
-6.12263e-05
0.00085025
-6.19118e-05
0.000881535
-6.25757e-05
0.000913152
-6.32327e-05
0.000945091
-6.38721e-05
0.000977344
-6.44958e-05
0.00100991
-6.51059e-05
0.00104275
-6.56863e-05
0.00107588
-6.62633e-05
0.00110929
-6.68167e-05
0.00114296
-6.73461e-05
0.00117692
-6.78934e-05
0.00121113
-6.83952e-05
0.00124559
-6.88765e-05
0.00128023
-6.93105e-05
0.00131511
-6.97641e-05
0.00135021
-7.0187e-05
0.00138551
-7.05967e-05
0.00142101
-7.09763e-05
0.00145668
-7.13347e-05
0.00149252
-7.16706e-05
0.00152852
-7.19888e-05
0.00156467
-7.22798e-05
0.00160095
-7.25486e-05
0.00163736
-7.27973e-05
0.00167387
-7.30137e-05
0.00171049
-7.32175e-05
0.00174718
-7.33812e-05
0.00178396
-7.35397e-05
0.0018208
-7.36542e-05
0.00185768
-7.37504e-05
0.0018946
-7.38159e-05
0.00193154
-7.38576e-05
0.00196849
-7.38709e-05
0.00200543
-7.38619e-05
0.00204235
-7.38113e-05
0.00207923
-7.37433e-05
0.00211606
-7.36398e-05
0.00215284
-7.35133e-05
0.00218951
-7.33421e-05
0.0022261
-7.31522e-05
0.00226258
-7.29312e-05
0.00229893
-7.26748e-05
0.00233514
-7.2392e-05
0.00237119
-7.2067e-05
0.00240706
-7.17155e-05
0.00244274
-7.13297e-05
0.00247821
-7.09092e-05
0.00251346
-7.0456e-05
0.00254846
-6.99637e-05
0.00258319
-6.94364e-05
0.00261765
-6.88814e-05
0.00265181
-6.82767e-05
0.00268565
-6.76425e-05
0.00271916
-6.6971e-05
0.00275231
-6.62577e-05
0.00278509
-6.55061e-05
0.00281749
-6.47392e-05
0.00284946
-6.38992e-05
0.00288099
-6.3027e-05
0.00291208
-6.21194e-05
0.0029427
-6.11758e-05
0.00297279
-6.01606e-05
0.00300238
-5.9138e-05
0.00303144
-5.80678e-05
0.00305995
-5.69476e-05
0.00308787
-5.57868e-05
0.00311519
-5.45805e-05
0.00314188
-5.33287e-05
0.00316793
-5.20395e-05
0.00319331