/*--------------------------------*- C++ -*----------------------------------*\
| =========                 |                                                 |
| \\      /  F ield         | OpenFOAM: The Open Source CFD Toolbox           |
|  \\    /   O peration     | Version:  2412                                  |
|   \\  /    A nd           | Website:  www.openfoam.com                      |
|    \\/     M anipulation  |                                                 |
\*---------------------------------------------------------------------------*/
FoamFile
{
    version     2.0;
    format      ascii;
    arch        "LSB;label=32;scalar=64";
    class       volVectorField;
    location    "4.15";
    object      U;
}
// * * * * * * * * * * * * * * * * * * * * * * * * * * * * * * * * * * * * * //

dimensions      [0 1 -1 0 0 0 0];

internalField   nonuniform List<vector> 
6400
(
(-0.00124588 0.00088065 0)
(-0.00225472 0.000373647 0)
(-0.00292691 0.000521214 0)
(-0.00425224 0.000586049 0)
(-0.00543573 0.000597002 0)
(-0.00664862 0.000611244 0)
(-0.00786023 0.000611306 0)
(-0.00911969 0.00063869 0)
(-0.0104224 0.000676966 0)
(-0.0117849 0.000722144 0)
(-0.013278 0.000775565 0)
(-0.0148096 0.000821552 0)
(-0.0164062 0.000846215 0)
(-0.0181298 0.000900221 0)
(-0.0199322 0.00095763 0)
(-0.0218121 0.00099252 0)
(-0.0237275 0.00101215 0)
(-0.0256461 0.00101021 0)
(-0.0275267 0.000986344 0)
(-0.0293546 0.000938277 0)
(-0.0310596 0.000874154 0)
(-0.0326031 0.000784357 0)
(-0.0339475 0.000678747 0)
(-0.0350433 0.000569001 0)
(-0.0358666 0.00045075 0)
(-0.0364001 0.000326659 0)
(-0.0366034 0.000177565 0)
(-0.0364085 -2.85377e-05 0)
(-0.0357858 -0.000265732 0)
(-0.0347409 -0.000514342 0)
(-0.0332553 -0.000757661 0)
(-0.0313478 -0.000972692 0)
(-0.029089 -0.00115026 0)
(-0.0264919 -0.00135605 0)
(-0.0235124 -0.0016161 0)
(-0.0201375 -0.00192111 0)
(-0.0163739 -0.00224365 0)
(-0.0122434 -0.00253915 0)
(-0.00784691 -0.00276303 0)
(-0.00323462 -0.00289361 0)
(0.00145659 -0.00291095 0)
(0.00608491 -0.00281174 0)
(0.0105349 -0.00260678 0)
(0.0146879 -0.00231714 0)
(0.0184847 -0.00198003 0)
(0.0218585 -0.00164161 0)
(0.0247852 -0.00132537 0)
(0.027285 -0.00106701 0)
(0.0294043 -0.000864879 0)
(0.031176 -0.000681817 0)
(0.0325825 -0.00046623 0)
(0.0335806 -0.000233192 0)
(0.0341786 -1.09572e-05 0)
(0.0343931 0.000186321 0)
(0.0342585 0.000307081 0)
(0.0338609 0.000390937 0)
(0.0332328 0.00046765 0)
(0.0323871 0.000547 0)
(0.0313753 0.000622899 0)
(0.0302103 0.000679963 0)
(0.0289201 0.000718588 0)
(0.027567 0.000742619 0)
(0.026174 0.000756289 0)
(0.0247867 0.000742505 0)
(0.0234022 0.000719016 0)
(0.0220456 0.000685373 0)
(0.0207488 0.000647093 0)
(0.0194975 0.000621538 0)
(0.0182405 0.000620459 0)
(0.0169812 0.000642957 0)
(0.015732 0.000661539 0)
(0.0144283 0.000668166 0)
(0.0130654 0.000697908 0)
(0.0116223 0.000741218 0)
(0.0100797 0.000791824 0)
(0.00842397 0.000850342 0)
(0.00669904 0.000885965 0)
(0.0047306 0.000878866 0)
(0.00327736 0.000763829 0)
(0.0015216 0.0011972 0)
(-0.00130182 0.00271876 0)
(-0.00233738 0.00119538 0)
(-0.00305951 0.00164608 0)
(-0.00442246 0.00182484 0)
(-0.00561046 0.00183463 0)
(-0.00684257 0.00184274 0)
(-0.00805887 0.00185605 0)
(-0.00928885 0.00191208 0)
(-0.0105471 0.0019909 0)
(-0.0118268 0.00209785 0)
(-0.0131978 0.00221866 0)
(-0.0146543 0.00235811 0)
(-0.0162076 0.00247629 0)
(-0.0178872 0.00262574 0)
(-0.0196772 0.00273492 0)
(-0.0215496 0.00282839 0)
(-0.0234542 0.00286859 0)
(-0.0253562 0.00285784 0)
(-0.027213 0.00277738 0)
(-0.0289914 0.00263017 0)
(-0.0306183 0.00241311 0)
(-0.0320502 0.00211813 0)
(-0.0332236 0.00175615 0)
(-0.0340842 0.00133717 0)
(-0.0345903 0.000860393 0)
(-0.0346939 0.00035188 0)
(-0.0343823 -0.000199727 0)
(-0.0336795 -0.000793132 0)
(-0.0326041 -0.00140751 0)
(-0.0311572 -0.00202899 0)
(-0.0293751 -0.00263612 0)
(-0.0272551 -0.00320032 0)
(-0.024784 -0.00371499 0)
(-0.02201 -0.00421734 0)
(-0.0189834 -0.00471446 0)
(-0.0157987 -0.0052005 0)
(-0.0125191 -0.00563853 0)
(-0.00916971 -0.00600606 0)
(-0.00582668 -0.00627553 0)
(-0.00246927 -0.0064194 0)
(0.000870703 -0.0064228 0)
(0.00417324 -0.00628058 0)
(0.00745397 -0.00601376 0)
(0.0106849 -0.00563406 0)
(0.0138518 -0.00516128 0)
(0.0169193 -0.00464163 0)
(0.0198402 -0.00409854 0)
(0.0225592 -0.00355887 0)
(0.0249898 -0.00303283 0)
(0.0270641 -0.00249976 0)
(0.0287919 -0.00193366 0)
(0.0302045 -0.00135793 0)
(0.0312969 -0.000801803 0)
(0.0320471 -0.000280845 0)
(0.032452 0.000188885 0)
(0.0325071 0.000607423 0)
(0.0322209 0.000978188 0)
(0.0316398 0.0013084 0)
(0.0308196 0.00158185 0)
(0.029791 0.00179351 0)
(0.0286106 0.00194198 0)
(0.0273512 0.00203277 0)
(0.0260185 0.00206852 0)
(0.0246733 0.00206513 0)
(0.0233336 0.00201932 0)
(0.0220051 0.0019646 0)
(0.0207202 0.00188625 0)
(0.0194825 0.00185012 0)
(0.0182842 0.00182928 0)
(0.0171068 0.00186268 0)
(0.0159277 0.00191362 0)
(0.0146816 0.0019896 0)
(0.0133581 0.00209746 0)
(0.0119176 0.00224567 0)
(0.0103716 0.00242631 0)
(0.00869 0.00259512 0)
(0.0069266 0.00274078 0)
(0.00490769 0.00270357 0)
(0.00340472 0.00236694 0)
(0.00160461 0.00370238 0)
(-0.00136379 0.00458859 0)
(-0.00234665 0.00198513 0)
(-0.00296464 0.00275308 0)
(-0.00432308 0.00306041 0)
(-0.00549066 0.00306736 0)
(-0.006689 0.00305403 0)
(-0.0078654 0.0030743 0)
(-0.00906128 0.00313847 0)
(-0.0102944 0.00326082 0)
(-0.0115805 0.00341831 0)
(-0.0129773 0.00362216 0)
(-0.0144532 0.00387192 0)
(-0.016022 0.00409879 0)
(-0.0177464 0.00435445 0)
(-0.0195773 0.00454474 0)
(-0.021499 0.0047004 0)
(-0.0234797 0.00477661 0)
(-0.0254645 0.00475763 0)
(-0.0274339 0.00461891 0)
(-0.0293336 0.00437076 0)
(-0.0310975 0.00398247 0)
(-0.0326826 0.00346792 0)
(-0.0340283 0.00283037 0)
(-0.0350844 0.00207474 0)
(-0.0357968 0.00120899 0)
(-0.0361302 0.000273807 0)
(-0.0360591 -0.000710421 0)
(-0.0355565 -0.00170985 0)
(-0.0346394 -0.00270897 0)
(-0.0333148 -0.0036976 0)
(-0.0315787 -0.00464964 0)
(-0.0294443 -0.00556172 0)
(-0.0269331 -0.00643214 0)
(-0.0240773 -0.00723139 0)
(-0.0209144 -0.00791788 0)
(-0.0175143 -0.00851025 0)
(-0.0139389 -0.00898349 0)
(-0.0102385 -0.00933869 0)
(-0.0064758 -0.00957938 0)
(-0.00266535 -0.00969101 0)
(0.00114098 -0.00966486 0)
(0.00490236 -0.00950614 0)
(0.00860821 -0.00923303 0)
(0.0122292 -0.00884193 0)
(0.0157155 -0.00833999 0)
(0.0190073 -0.0077328 0)
(0.0220697 -0.00702695 0)
(0.0248527 -0.00623048 0)
(0.0272946 -0.00536953 0)
(0.0293525 -0.00447152 0)
(0.0310112 -0.00356352 0)
(0.0322764 -0.00264996 0)
(0.0331668 -0.00175178 0)
(0.0336948 -0.00087256 0)
(0.0338516 -2.49485e-05 0)
(0.0336503 0.000766262 0)
(0.0331391 0.00146791 0)
(0.0323563 0.00206829 0)
(0.0313569 0.00255768 0)
(0.0301749 0.00293876 0)
(0.0288563 0.00319768 0)
(0.0274696 0.00335617 0)
(0.0260477 0.00340895 0)
(0.0246359 0.00340706 0)
(0.0232475 0.00333259 0)
(0.0218872 0.00323841 0)
(0.0206056 0.00312196 0)
(0.0193916 0.0030581 0)
(0.0182113 0.00300371 0)
(0.0170646 0.00303397 0)
(0.0159032 0.00309745 0)
(0.0146735 0.00325135 0)
(0.0133844 0.00345957 0)
(0.012007 0.00373025 0)
(0.0104729 0.0040399 0)
(0.00878872 0.00434637 0)
(0.00701424 0.0046105 0)
(0.0049645 0.00455064 0)
(0.00350674 0.0039663 0)
(0.00168305 0.00628818 0)
(-0.00150758 0.00653541 0)
(-0.00245343 0.00268662 0)
(-0.00294327 0.00377971 0)
(-0.00430878 0.00426624 0)
(-0.00546663 0.00427862 0)
(-0.00665041 0.00421626 0)
(-0.00779345 0.00424416 0)
(-0.0089163 0.00431867 0)
(-0.0100846 0.00449926 0)
(-0.0113135 0.00473858 0)
(-0.0126493 0.00505083 0)
(-0.0141238 0.00543102 0)
(-0.0156984 0.00576985 0)
(-0.0174264 0.00614817 0)
(-0.0193108 0.00646055 0)
(-0.0213287 0.00671029 0)
(-0.0234317 0.00685294 0)
(-0.0255573 0.00683918 0)
(-0.0276859 0.00666862 0)
(-0.029759 0.00632584 0)
(-0.0317002 0.0057846 0)
(-0.0334534 0.00505472 0)
(-0.0349592 0.00414956 0)
(-0.0361646 0.00307352 0)
(-0.0370056 0.00187007 0)
(-0.0374434 0.000553556 0)
(-0.0374703 -0.000838098 0)
(-0.0370527 -0.00228291 0)
(-0.0361895 -0.00373588 0)
(-0.0348813 -0.0051672 0)
(-0.0331375 -0.00654549 0)
(-0.0309837 -0.0078643 0)
(-0.0284509 -0.00910965 0)
(-0.0255693 -0.0102499 0)
(-0.0223669 -0.0112479 0)
(-0.0188856 -0.0121216 0)
(-0.0151477 -0.0128397 0)
(-0.0111985 -0.0133911 0)
(-0.00709909 -0.0137643 0)
(-0.00289537 -0.0139447 0)
(0.00134143 -0.013915 0)
(0.00552439 -0.0136712 0)
(0.0095959 -0.0132561 0)
(0.0134927 -0.0126482 0)
(0.0171652 -0.0118888 0)
(0.0205672 -0.0109872 0)
(0.0236641 -0.0099468 0)
(0.0264329 -0.00878995 0)
(0.0288436 -0.00755118 0)
(0.0308692 -0.00625853 0)
(0.0324981 -0.00494061 0)
(0.0337146 -0.00361286 0)
(0.0345349 -0.00229946 0)
(0.0349456 -0.00101525 0)
(0.0349632 0.000177416 0)
(0.0346388 0.00127358 0)
(0.033991 0.00225333 0)
(0.0330639 0.00309621 0)
(0.0319172 0.00378272 0)
(0.0305758 0.00430171 0)
(0.0291072 0.00465324 0)
(0.0275891 0.00485117 0)
(0.0260555 0.00490771 0)
(0.0245565 0.00486476 0)
(0.0231008 0.0047348 0)
(0.0217089 0.00454531 0)
(0.0204406 0.00437827 0)
(0.0192666 0.00423781 0)
(0.0181585 0.00414449 0)
(0.0170808 0.00415721 0)
(0.0159895 0.00424479 0)
(0.0148587 0.00445885 0)
(0.0136496 0.00478003 0)
(0.0123194 0.00517502 0)
(0.0108084 0.00563499 0)
(0.00911227 0.0061159 0)
(0.00729225 0.00650237 0)
(0.00514923 0.00639469 0)
(0.00369681 0.00556084 0)
(0.00183264 0.00898615 0)
(-0.00171775 0.00863303 0)
(-0.00262802 0.00330703 0)
(-0.00294072 0.00478275 0)
(-0.00430642 0.00547396 0)
(-0.00549719 0.00547362 0)
(-0.0066352 0.00536451 0)
(-0.00769563 0.00534686 0)
(-0.00874182 0.00543459 0)
(-0.00980099 0.0056553 0)
(-0.0109496 0.00599561 0)
(-0.0122079 0.00642616 0)
(-0.0136471 0.00693204 0)
(-0.0152222 0.00744716 0)
(-0.0169788 0.00796488 0)
(-0.0189238 0.00842046 0)
(-0.0210352 0.00880726 0)
(-0.0232959 0.00902872 0)
(-0.0255954 0.00905887 0)
(-0.0279188 0.00887392 0)
(-0.0302054 0.00844057 0)
(-0.0323667 0.00774607 0)
(-0.0343344 0.00679425 0)
(-0.0360446 0.00559698 0)
(-0.0374208 0.0041787 0)
(-0.0384 0.00257662 0)
(-0.0389501 0.000825191 0)
(-0.0390396 -0.00102779 0)
(-0.0386468 -0.00293322 0)
(-0.0377752 -0.00484502 0)
(-0.0364232 -0.00672264 0)
(-0.0346066 -0.00853491 0)
(-0.0323628 -0.0102564 0)
(-0.029725 -0.0118653 0)
(-0.0267274 -0.0133376 0)
(-0.0234031 -0.0146519 0)
(-0.0197776 -0.015799 0)
(-0.0158719 -0.01676 0)
(-0.0117392 -0.0175006 0)
(-0.00742664 -0.0180157 0)
(-0.00299528 -0.0182555 0)
(0.0014918 -0.0182319 0)
(0.00590828 -0.0179007 0)
(0.0101989 -0.0173369 0)
(0.014299 -0.016519 0)
(0.0181375 -0.0154997 0)
(0.0216788 -0.0142927 0)
(0.024893 -0.0129263 0)
(0.0277471 -0.011421 0)
(0.0302195 -0.00980211 0)
(0.0322918 -0.0081108 0)
(0.0339461 -0.00637536 0)
(0.0351642 -0.00462899 0)
(0.0359562 -0.00290008 0)
(0.0363109 -0.00123045 0)
(0.0362405 0.000360074 0)
(0.0357893 0.00182231 0)
(0.0349872 0.00312451 0)
(0.033882 0.0042373 0)
(0.0325393 0.00513519 0)
(0.0310112 0.00578971 0)
(0.0293648 0.00623206 0)
(0.0276762 0.00645469 0)
(0.0260039 0.00648735 0)
(0.0243981 0.00637043 0)
(0.0228531 0.00614075 0)
(0.021445 0.00585661 0)
(0.0202087 0.00558346 0)
(0.0190766 0.0053405 0)
(0.0180562 0.00520864 0)
(0.0170887 0.00516029 0)
(0.0161303 0.00529037 0)
(0.0151431 0.00557624 0)
(0.0140386 0.00600261 0)
(0.0127915 0.00658421 0)
(0.011324 0.00725308 0)
(0.00959827 0.00794744 0)
(0.00768571 0.00849113 0)
(0.00541986 0.00831287 0)
(0.00398668 0.00721104 0)
(0.00204297 0.0119133 0)
(-0.00196081 0.010943 0)
(-0.00280781 0.00380468 0)
(-0.00295666 0.00572952 0)
(-0.0043681 0.0067347 0)
(-0.00554668 0.00670003 0)
(-0.00665789 0.00647203 0)
(-0.0076288 0.00633175 0)
(-0.0085179 0.00641185 0)
(-0.009431 0.00668637 0)
(-0.010448 0.00713493 0)
(-0.0116163 0.00773768 0)
(-0.0129949 0.0083926 0)
(-0.0145612 0.00914059 0)
(-0.0163448 0.00983174 0)
(-0.0183534 0.0104908 0)
(-0.0206162 0.0110415 0)
(-0.0230662 0.0113974 0)
(-0.0255876 0.0115008 0)
(-0.028179 0.0113212 0)
(-0.0307513 0.0108072 0)
(-0.0332026 0.00996267 0)
(-0.0354533 0.00877987 0)
(-0.0374204 0.00726846 0)
(-0.0390318 0.00548153 0)
(-0.0402081 0.00344906 0)
(-0.04089 0.00122076 0)
(-0.0410574 -0.00113282 0)
(-0.0406919 -0.00355128 0)
(-0.0397955 -0.00597175 0)
(-0.0383715 -0.00833804 0)
(-0.0364553 -0.010616 0)
(-0.0340887 -0.0127661 0)
(-0.0312994 -0.0147669 0)
(-0.0281317 -0.0165871 0)
(-0.0246224 -0.0182301 0)
(-0.0208043 -0.0196719 0)
(-0.0166872 -0.0208898 0)
(-0.0123244 -0.0218433 0)
(-0.00776641 -0.0225225 0)
(-0.00307612 -0.0228395 0)
(0.00167232 -0.0228161 0)
(0.00635306 -0.022387 0)
(0.0108864 -0.0216593 0)
(0.0152122 -0.0206013 0)
(0.0192668 -0.0192967 0)
(0.0230024 -0.0177643 0)
(0.0263771 -0.0160389 0)
(0.0293727 -0.0141488 0)
(0.0319558 -0.0121228 0)
(0.0341026 -0.0099999 0)
(0.0358 -0.00781435 0)
(0.0370281 -0.00560804 0)
(0.0377864 -0.00341813 0)
(0.0380698 -0.00130534 0)
(0.0378857 0.000709179 0)
(0.0372661 0.00255995 0)
(0.0362568 0.00420484 0)
(0.0349226 0.00559764 0)
(0.0333274 0.0067106 0)
(0.0315455 0.00751136 0)
(0.0296562 0.00802399 0)
(0.0277322 0.00824295 0)
(0.0258611 0.00822706 0)
(0.0241013 0.00798849 0)
(0.0224775 0.0076064 0)
(0.0210457 0.00717454 0)
(0.0198233 0.00672571 0)
(0.0187934 0.00634676 0)
(0.0178821 0.0061362 0)
(0.0170666 0.00602246 0)
(0.0163159 0.00617622 0)
(0.0154962 0.00651544 0)
(0.0145826 0.00710167 0)
(0.0134805 0.00791292 0)
(0.0120569 0.00883971 0)
(0.0102863 0.00986251 0)
(0.00824227 0.0106282 0)
(0.00579762 0.0103417 0)
(0.00434038 0.00886877 0)
(0.00230121 0.0151156 0)
(-0.00227619 0.0135016 0)
(-0.0030216 0.00417601 0)
(-0.00294655 0.00658104 0)
(-0.00446145 0.00803097 0)
(-0.00575012 0.00794342 0)
(-0.00682881 0.00745642 0)
(-0.00762099 0.00716863 0)
(-0.00826833 0.0072085 0)
(-0.00895849 0.0075475 0)
(-0.00977979 0.00813898 0)
(-0.0108228 0.00893721 0)
(-0.0121043 0.00983584 0)
(-0.0136526 0.0108288 0)
(-0.0154788 0.0117867 0)
(-0.0175594 0.0126789 0)
(-0.0199953 0.0134515 0)
(-0.0226878 0.0139949 0)
(-0.0255086 0.0142183 0)
(-0.0284429 0.0140859 0)
(-0.0313798 0.0135052 0)
(-0.0342059 0.0125162 0)
(-0.0368363 0.0110761 0)
(-0.0391444 0.00923257 0)
(-0.0410399 0.00702013 0)
(-0.0424599 0.00450415 0)
(-0.0433207 0.00173869 0)
(-0.0435809 -0.0011864 0)
(-0.0432397 -0.00417829 0)
(-0.0423042 -0.00716164 0)
(-0.0407913 -0.0100622 0)
(-0.0387398 -0.0128329 0)
(-0.0362103 -0.0154309 0)
(-0.0332383 -0.017835 0)
(-0.029875 -0.0200308 0)
(-0.0261573 -0.0220104 0)
(-0.0221011 -0.0237717 0)
(-0.0177306 -0.0252656 0)
(-0.0130909 -0.0264585 0)
(-0.00821565 -0.0273184 0)
(-0.00318062 -0.0277207 0)
(0.00191629 -0.0277017 0)
(0.00693195 -0.027164 0)
(0.0117866 -0.0262552 0)
(0.0164091 -0.0249494 0)
(0.020718 -0.0233305 0)
(0.0246823 -0.0214429 0)
(0.0282549 -0.0193293 0)
(0.0314049 -0.0170171 0)
(0.0341068 -0.0145512 0)
(0.0363453 -0.0119619 0)
(0.0380995 -0.00928953 0)
(0.0393443 -0.00658671 0)
(0.0400637 -0.00389445 0)
(0.0402587 -0.00127656 0)
(0.03993 0.00121396 0)
(0.0390976 0.00350829 0)
(0.0378275 0.00553957 0)
(0.0361974 0.0072472 0)
(0.0342796 0.00858361 0)
(0.0321641 0.00953115 0)
(0.0299391 0.0100944 0)
(0.0277173 0.0102874 0)
(0.0255914 0.0101519 0)
(0.0236243 0.0097441 0)
(0.0218938 0.00913697 0)
(0.0204303 0.0084614 0)
(0.0192509 0.0077977 0)
(0.0183555 0.00724939 0)
(0.0175993 0.00687675 0)
(0.0170082 0.00670453 0)
(0.0165178 0.00681704 0)
(0.0159713 0.00724188 0)
(0.0153289 0.00802091 0)
(0.0144107 0.00909202 0)
(0.01312 0.0104432 0)
(0.0113253 0.0119144 0)
(0.00902578 0.0129732 0)
(0.0062255 0.0125 0)
(0.00473094 0.0105847 0)
(0.0026336 0.0186467 0)
(-0.00252687 0.0162393 0)
(-0.00311404 0.00444299 0)
(-0.00291879 0.00744482 0)
(-0.00464649 0.00956047 0)
(-0.00616542 0.00925726 0)
(-0.00719033 0.00830549 0)
(-0.00769045 0.00773703 0)
(-0.00799287 0.00771821 0)
(-0.00834947 0.0081405 0)
(-0.00890133 0.00895537 0)
(-0.00975253 0.00999926 0)
(-0.0109189 0.0112191 0)
(-0.0124347 0.0124968 0)
(-0.0143043 0.0138033 0)
(-0.0164897 0.0150045 0)
(-0.0191143 0.0160799 0)
(-0.0221032 0.0168764 0)
(-0.0252843 0.0172803 0)
(-0.0286643 0.0172398 0)
(-0.0320743 0.0166383 0)
(-0.0353826 0.0154957 0)
(-0.0384828 0.0137882 0)
(-0.0412164 0.0115685 0)
(-0.0434903 0.00887201 0)
(-0.0452091 0.00579214 0)
(-0.0462842 0.00240411 0)
(-0.0466606 -0.00117264 0)
(-0.0463375 -0.00481522 0)
(-0.045332 -0.00843021 0)
(-0.0436809 -0.0119245 0)
(-0.0414502 -0.0152259 0)
(-0.0387131 -0.0182974 0)
(-0.0355273 -0.021113 0)
(-0.0319384 -0.0236911 0)
(-0.0279816 -0.026028 0)
(-0.023673 -0.0281279 0)
(-0.0190139 -0.029942 0)
(-0.0140393 -0.0314066 0)
(-0.00876985 -0.0324703 0)
(-0.00331794 -0.0329887 0)
(0.0022166 -0.0329892 0)
(0.0076685 -0.0323111 0)
(0.0129106 -0.0311803 0)
(0.0178873 -0.0295865 0)
(0.0224999 -0.0276226 0)
(0.0267227 -0.0253438 0)
(0.0305194 -0.0227994 0)
(0.0338513 -0.0200414 0)
(0.036692 -0.0170904 0)
(0.0390379 -0.0139996 0)
(0.0408625 -0.0108093 0)
(0.0421366 -0.00755824 0)
(0.042833 -0.00430413 0)
(0.0429291 -0.00111212 0)
(0.0424226 0.0019208 0)
(0.0413361 0.00471803 0)
(0.0397426 0.00719668 0)
(0.0377295 0.00925732 0)
(0.0353904 0.0108467 0)
(0.0328387 0.0119418 0)
(0.0301922 0.0125335 0)
(0.0275727 0.0126553 0)
(0.0251137 0.0123252 0)
(0.0228928 0.01167 0)
(0.0210097 0.0107385 0)
(0.0195326 0.00973909 0)
(0.0184417 0.00876886 0)
(0.017701 0.00798541 0)
(0.0171716 0.00738762 0)
(0.0168625 0.00712024 0)
(0.0167193 0.00715507 0)
(0.0165694 0.00764477 0)
(0.0162932 0.00861931 0)
(0.0157446 0.0100773 0)
(0.0146694 0.0120192 0)
(0.012788 0.0141643 0)
(0.0100903 0.0157143 0)
(0.00673537 0.014936 0)
(0.00503057 0.01244 0)
(0.00293031 0.0224979 0)
(-0.00245578 0.0189823 0)
(-0.00327491 0.00457708 0)
(-0.00300141 0.00832884 0)
(-0.00506718 0.0116028 0)
(-0.00715038 0.0106784 0)
(-0.00801515 0.00892568 0)
(-0.0079508 0.00789954 0)
(-0.00767542 0.00778799 0)
(-0.0075296 0.00840459 0)
(-0.00771808 0.00951639 0)
(-0.00834109 0.0109254 0)
(-0.0093755 0.0125206 0)
(-0.0108418 0.0141626 0)
(-0.0127347 0.0158847 0)
(-0.015046 0.0174848 0)
(-0.0178805 0.0189512 0)
(-0.0212286 0.0201378 0)
(-0.0248604 0.0208008 0)
(-0.0287719 0.0209002 0)
(-0.0327875 0.0203151 0)
(-0.0367148 0.019032 0)
(-0.0404091 0.0170303 0)
(-0.0436958 0.0143693 0)
(-0.0464442 0.0111115 0)
(-0.0485425 0.00737266 0)
(-0.0498725 0.00326742 0)
(-0.0503622 -0.00106898 0)
(-0.0500395 -0.00547908 0)
(-0.0489316 -0.00981782 0)
(-0.0470876 -0.0139538 0)
(-0.0446051 -0.017817 0)
(-0.04159 -0.0213769 0)
(-0.038131 -0.0246241 0)
(-0.0342905 -0.0276009 0)
(-0.0300838 -0.0303113 0)
(-0.0255082 -0.0327748 0)
(-0.0205317 -0.034941 0)
(-0.0151717 -0.0367392 0)
(-0.00944999 -0.0380615 0)
(-0.00350497 -0.0387173 0)
(0.00258258 -0.0387521 0)
(0.00856502 -0.0379164 0)
(0.0142727 -0.0365202 0)
(0.0196646 -0.0345832 0)
(0.0246222 -0.0322251 0)
(0.0291388 -0.0295014 0)
(0.0331683 -0.0264876 0)
(0.0367025 -0.0232359 0)
(0.0397171 -0.0197795 0)
(0.0421878 -0.0161426 0)
(0.0441178 -0.0123847 0)
(0.0454541 -0.00852946 0)
(0.0461401 -0.00464101 0)
(0.0461309 -0.000793155 0)
(0.0454212 0.00287618 0)
(0.0440454 0.006267 0)
(0.0420508 0.00925177 0)
(0.0395459 0.0117194 0)
(0.0366705 0.0136036 0)
(0.0335566 0.0148498 0)
(0.0303611 0.0154493 0)
(0.0272331 0.0154165 0)
(0.0243506 0.0148368 0)
(0.0218023 0.013805 0)
(0.0197398 0.0124275 0)
(0.0182504 0.0109628 0)
(0.0172896 0.00960406 0)
(0.0167663 0.00843565 0)
(0.0165413 0.00757086 0)
(0.0166009 0.00710594 0)
(0.0168776 0.00706892 0)
(0.01727 0.00757466 0)
(0.0175918 0.00873942 0)
(0.0176038 0.0107159 0)
(0.0169306 0.0135225 0)
(0.0150528 0.0167061 0)
(0.0116134 0.0192651 0)
(0.00725662 0.0178935 0)
(0.00506208 0.0144025 0)
(0.00292741 0.0265401 0)
(-0.00186351 0.0217402 0)
(-0.00400827 0.00493091 0)
(-0.00485218 0.00900981 0)
(-0.00679454 0.0141018 0)
(-0.00933555 0.0121369 0)
(-0.0095135 0.00893108 0)
(-0.00846828 0.00717454 0)
(-0.00724875 0.00704978 0)
(-0.00638842 0.00805712 0)
(-0.00612208 0.00968324 0)
(-0.00647405 0.0116323 0)
(-0.00739905 0.0137214 0)
(-0.00878945 0.015845 0)
(-0.0106806 0.018 0)
(-0.0131222 0.0201446 0)
(-0.0161471 0.0221122 0)
(-0.0199112 0.0238417 0)
(-0.0241386 0.024909 0)
(-0.0287265 0.0252181 0)
(-0.0334872 0.0246917 0)
(-0.0381989 0.0232523 0)
(-0.0426576 0.0209221 0)
(-0.0466337 0.0177519 0)
(-0.0499758 0.0138373 0)
(-0.0525262 0.00930993 0)
(-0.0541603 0.00433024 0)
(-0.0547993 -0.000924466 0)
(-0.0544473 -0.00625189 0)
(-0.053146 -0.0114271 0)
(-0.0510017 -0.0162885 0)
(-0.0481728 -0.0207608 0)
(-0.0448059 -0.0248119 0)
(-0.0410324 -0.028445 0)
(-0.0369051 -0.0317753 0)
(-0.0324287 -0.0348555 0)
(-0.0275832 -0.0377218 0)
(-0.0222818 -0.0402986 0)
(-0.0165214 -0.0425158 0)
(-0.010277 -0.0441822 0)
(-0.00373013 -0.0450216 0)
(0.00307936 -0.0451089 0)
(0.00966389 -0.0440599 0)
(0.0158858 -0.0423414 0)
(0.0217451 -0.0399815 0)
(0.0271077 -0.0371527 0)
(0.0319462 -0.0339426 0)
(0.0362274 -0.0304041 0)
(0.0399664 -0.0266183 0)
(0.0431776 -0.022653 0)
(0.0458261 -0.0184584 0)
(0.0478889 -0.0140865 0)
(0.0493233 -0.00957135 0)
(0.0500498 -0.00495955 0)
(0.0499626 -0.000336829 0)
(0.0490313 0.00410293 0)
(0.0472851 0.00821135 0)
(0.0447843 0.011821 0)
(0.0416772 0.0147836 0)
(0.0381189 0.0169889 0)
(0.0342886 0.0183949 0)
(0.0303778 0.0189801 0)
(0.0266062 0.0187349 0)
(0.0231802 0.0177546 0)
(0.0201902 0.0161978 0)
(0.0179018 0.0141978 0)
(0.0164634 0.0121221 0)
(0.0156737 0.0102279 0)
(0.0154321 0.00860125 0)
(0.0156325 0.00740702 0)
(0.0161696 0.00663745 0)
(0.0170003 0.00636927 0)
(0.018052 0.00678612 0)
(0.0192444 0.00809085 0)
(0.0202488 0.0106116 0)
(0.0202942 0.0146655 0)
(0.0186864 0.0196249 0)
(0.0141245 0.0242341 0)
(0.00830788 0.0215804 0)
(0.00534765 0.0165465 0)
(0.00247882 0.030281 0)
(0.000504779 0.0247543 0)
(0.0011173 0.00764091 0)
(-0.00685739 0.0108798 0)
(-0.012798 0.0176545 0)
(-0.0153575 0.0137208 0)
(-0.0126179 0.00812456 0)
(-0.00911252 0.00562772 0)
(-0.00637943 0.0059171 0)
(-0.00456796 0.00752067 0)
(-0.00381501 0.00967814 0)
(-0.00395373 0.0122132 0)
(-0.00479 0.0148514 0)
(-0.00615162 0.0174871 0)
(-0.00797419 0.0201488 0)
(-0.0104597 0.0229244 0)
(-0.0136927 0.025613 0)
(-0.0179066 0.028053 0)
(-0.0229122 0.0296785 0)
(-0.0283748 0.0303677 0)
(-0.0341047 0.0299554 0)
(-0.0398129 0.0283514 0)
(-0.0452172 0.0256389 0)
(-0.0500698 0.0218709 0)
(-0.0541642 0.017183 0)
(-0.0573045 0.0117137 0)
(-0.0593157 0.00566831 0)
(-0.0601035 -0.000699195 0)
(-0.0596539 -0.00710151 0)
(-0.0580461 -0.0132409 0)
(-0.0554673 -0.0189155 0)
(-0.0521379 -0.0240229 0)
(-0.0482607 -0.0285445 0)
(-0.044062 -0.0325621 0)
(-0.0396413 -0.0362158 0)
(-0.0349373 -0.0396425 0)
(-0.0298564 -0.0429369 0)
(-0.0242784 -0.0460308 0)
(-0.0181614 -0.0487703 0)
(-0.0113789 -0.0508765 0)
(-0.0040407 -0.0520837 0)
(0.0039585 -0.0522131 0)
(0.0112587 -0.0507706 0)
(0.017892 -0.0486613 0)
(0.0241524 -0.0458473 0)
(0.0298948 -0.0424762 0)
(0.0350871 -0.038698 0)
(0.0396561 -0.0345668 0)
(0.043593 -0.0301814 0)
(0.0470079 -0.0255953 0)
(0.0498939 -0.0208026 0)
(0.0521697 -0.015823 0)
(0.0537783 -0.0106242 0)
(0.0546216 -0.00521781 0)
(0.0545008 0.000266331 0)
(0.0533266 0.00565434 0)
(0.0511496 0.0106705 0)
(0.0480198 0.0150594 0)
(0.0441137 0.0186067 0)
(0.0396832 0.0211791 0)
(0.034961 0.0227542 0)
(0.0301392 0.0232553 0)
(0.0254852 0.0227367 0)
(0.0213325 0.021188 0)
(0.0177986 0.0188956 0)
(0.0152521 0.0160529 0)
(0.0138967 0.0131498 0)
(0.013408 0.0105324 0)
(0.013628 0.00843881 0)
(0.0143179 0.00681601 0)
(0.0153376 0.00563513 0)
(0.0168081 0.00509263 0)
(0.0187728 0.00532148 0)
(0.0211627 0.00658084 0)
(0.0237035 0.00959348 0)
(0.0254291 0.0150585 0)
(0.0257806 0.0226261 0)
(0.0203325 0.0303351 0)
(0.0114007 0.0262687 0)
(0.00403461 0.0200966 0)
(0.000947914 0.0342318 0)
(0.00550846 0.0160652 0)
(0.030727 0.0124706 0)
(0.0170602 0.0217227 0)
(-0.014303 0.0255594 0)
(-0.0268642 0.0140692 0)
(-0.020088 0.00256736 0)
(-0.0101818 0.00049395 0)
(-0.00469376 0.00186528 0)
(-0.00220574 0.0050462 0)
(-0.00100296 0.00885721 0)
(-0.000806448 0.012517 0)
(-0.00152954 0.0158259 0)
(-0.00282423 0.0189754 0)
(-0.00456976 0.0222137 0)
(-0.00701513 0.0257394 0)
(-0.010353 0.0294741 0)
(-0.015079 0.0328946 0)
(-0.0209542 0.0353434 0)
(-0.0275092 0.0365963 0)
(-0.0345236 0.0363632 0)
(-0.0415126 0.0346032 0)
(-0.0481097 0.0314197 0)
(-0.0540352 0.0269352 0)
(-0.0590643 0.0213096 0)
(-0.0629487 0.0146697 0)
(-0.0654303 0.00727185 0)
(-0.0663631 -0.000521252 0)
(-0.065718 -0.00828879 0)
(-0.0636337 -0.0156323 0)
(-0.060393 -0.0222637 0)
(-0.0563296 -0.0280332 0)
(-0.0517898 -0.032941 0)
(-0.047072 -0.0371799 0)
(-0.0422887 -0.0410092 0)
(-0.0374158 -0.0446799 0)
(-0.032336 -0.0483782 0)
(-0.0267894 -0.0520345 0)
(-0.020491 -0.0554204 0)
(-0.013109 -0.0582615 0)
(-0.00447388 -0.0603008 0)
(0.00540056 -0.0604263 0)
(0.0137675 -0.0579841 0)
(0.0207089 -0.055268 0)
(0.027147 -0.0520858 0)
(0.0330958 -0.0482045 0)
(0.0385217 -0.0438137 0)
(0.0433547 -0.0390733 0)
(0.0475521 -0.0341924 0)
(0.0511975 -0.0291175 0)
(0.0543238 -0.0237421 0)
(0.0569104 -0.0180404 0)
(0.0588568 -0.0120208 0)
(0.0599144 -0.00564763 0)
(0.0598361 0.000964102 0)
(0.0584614 0.00756467 0)
(0.0557392 0.0137528 0)
(0.0517907 0.0191291 0)
(0.046894 0.0234023 0)
(0.0413946 0.0264355 0)
(0.0355132 0.0282227 0)
(0.0295191 0.0286256 0)
(0.0237456 0.0276239 0)
(0.0186244 0.0253324 0)
(0.0144634 0.0220492 0)
(0.0116824 0.0179978 0)
(0.0104961 0.0138876 0)
(0.0104564 0.0103669 0)
(0.0112098 0.00769897 0)
(0.0124147 0.00560212 0)
(0.0141192 0.00396174 0)
(0.016415 0.00265908 0)
(0.0193274 0.00195718 0)
(0.0231278 0.00277237 0)
(0.0280415 0.00613505 0)
(0.0341943 0.013575 0)
(0.0401162 0.0266669 0)
(0.0324392 0.0436334 0)
(0.0099938 0.0382079 0)
(-0.0137536 0.02694 0)
(-0.00563577 0.0343443 0)
(0.00580107 -0.00591066 0)
(0.0815348 -0.00146452 0)
(0.112994 0.0617457 0)
(0.0515009 0.07138 0)
(-0.0155655 0.0156792 0)
(-0.0276456 -0.0141243 0)
(-0.0124495 -0.0108185 0)
(-0.0017243 -0.00211735 0)
(0.0030722 0.00392336 0)
(0.00412716 0.00871732 0)
(0.0035493 0.0130146 0)
(0.00209256 0.0167232 0)
(0.000223464 0.020201 0)
(-0.00173148 0.0240029 0)
(-0.00398805 0.0285008 0)
(-0.00721666 0.0336325 0)
(-0.012266 0.0383902 0)
(-0.0189216 0.0420508 0)
(-0.0267252 0.0441115 0)
(-0.0353028 0.0441843 0)
(-0.04386 0.0422514 0)
(-0.0518545 0.038481 0)
(-0.058989 0.0331553 0)
(-0.0651264 0.0264345 0)
(-0.0699899 0.0184005 0)
(-0.0731438 0.00931849 0)
(-0.0743161 -0.000280236 0)
(-0.0734204 -0.00975939 0)
(-0.0706094 -0.0185459 0)
(-0.0662921 -0.0262281 0)
(-0.0609888 -0.0326178 0)
(-0.0552894 -0.0377818 0)
(-0.0497343 -0.0420388 0)
(-0.0446008 -0.0458366 0)
(-0.0399458 -0.0495612 0)
(-0.0354809 -0.0535186 0)
(-0.0304339 -0.057809 0)
(-0.0239931 -0.0623242 0)
(-0.015637 -0.0668016 0)
(-0.00506624 -0.070506 0)
(0.00694941 -0.0704457 0)
(0.0170676 -0.0659877 0)
(0.0247804 -0.062006 0)
(0.0314368 -0.0582344 0)
(0.0373218 -0.0539139 0)
(0.0425327 -0.0489681 0)
(0.0472223 -0.0435566 0)
(0.051589 -0.0379856 0)
(0.0558049 -0.0322807 0)
(0.059683 -0.0263925 0)
(0.0629321 -0.0201572 0)
(0.0654034 -0.0134219 0)
(0.0668491 -0.00606061 0)
(0.0668365 0.00188801 0)
(0.0651008 0.0100371 0)
(0.0616517 0.017698 0)
(0.0566923 0.0242894 0)
(0.0506638 0.0294221 0)
(0.0440057 0.0330007 0)
(0.0368415 0.0350468 0)
(0.0293307 0.035307 0)
(0.0220985 0.0336145 0)
(0.0159506 0.0302398 0)
(0.0112002 0.0255831 0)
(0.00834131 0.0199668 0)
(0.00759853 0.0141829 0)
(0.00814422 0.00941297 0)
(0.00915353 0.00601468 0)
(0.0103806 0.0036496 0)
(0.0120202 0.00171756 0)
(0.0144622 -7.81821e-05 0)
(0.0185202 -0.00136748 0)
(0.0251407 -0.00204998 0)
(0.0358007 -0.00222578 0)
(0.0515836 0.000441076 0)
(0.0563223 0.0214822 0)
(0.0193086 0.0624848 0)
(-0.0491999 0.0770165 0)
(-0.0680967 0.0386036 0)
(-0.0113684 0.0136337 0)
(0.038096 -0.0559704 0)
(0.119603 -0.109214 0)
(0.203626 0.0551232 0)
(0.185068 0.173076 0)
(0.0811671 0.101824 0)
(0.00522764 -0.00654847 0)
(-0.002421 -0.0250856 0)
(0.0040482 -0.0123362 0)
(0.00735783 -0.000227542 0)
(0.00808613 0.00822588 0)
(0.00622691 0.0146629 0)
(0.00313014 0.0194855 0)
(0.000860183 0.0229182 0)
(0.00011782 0.0263696 0)
(-0.000782198 0.0313031 0)
(-0.0039699 0.037889 0)
(-0.00994191 0.0444277 0)
(-0.017843 0.0498496 0)
(-0.0273462 0.0532116 0)
(-0.0378746 0.0537337 0)
(-0.0482749 0.0514654 0)
(-0.0577551 0.0468895 0)
(-0.0660757 0.0406426 0)
(-0.0733632 0.0327506 0)
(-0.0793885 0.0230633 0)
(-0.0834375 0.0118579 0)
(-0.0849152 -6.13819e-05 0)
(-0.0835071 -0.0118427 0)
(-0.0794345 -0.0226822 0)
(-0.0733975 -0.0318756 0)
(-0.0662934 -0.0390839 0)
(-0.0590598 -0.0443417 0)
(-0.0525509 -0.0480699 0)
(-0.0472574 -0.0509731 0)
(-0.0431564 -0.0539313 0)
(-0.0393796 -0.0578611 0)
(-0.0342787 -0.06341 0)
(-0.0268569 -0.0701534 0)
(-0.0172679 -0.0772357 0)
(-0.00565242 -0.0830465 0)
(0.00692113 -0.0829055 0)
(0.0187462 -0.0759995 0)
(0.0281107 -0.0698231 0)
(0.0359705 -0.0647067 0)
(0.0424911 -0.0594842 0)
(0.0477537 -0.0539495 0)
(0.0521074 -0.048485 0)
(0.0562544 -0.0430937 0)
(0.0606476 -0.0374027 0)
(0.0650177 -0.0310082 0)
(0.0689848 -0.0238311 0)
(0.0724176 -0.0158712 0)
(0.0750143 -0.00693069 0)
(0.0759019 0.00283768 0)
(0.0742292 0.0128834 0)
(0.0699795 0.0223919 0)
(0.0636839 0.0304135 0)
(0.0561503 0.0364352 0)
(0.0481104 0.0406561 0)
(0.0396248 0.0432658 0)
(0.03052 0.043678 0)
(0.0215035 0.0411126 0)
(0.0137993 0.0360453 0)
(0.0078404 0.0293714 0)
(0.00385084 0.0217501 0)
(0.00337284 0.0143685 0)
(0.00626284 0.00891135 0)
(0.00947919 0.00554836 0)
(0.0110015 0.00301379 0)
(0.011863 0.000114003 0)
(0.0140925 -0.0036615 0)
(0.0187314 -0.00888534 0)
(0.0267848 -0.0153046 0)
(0.0402673 -0.0223842 0)
(0.0525369 -0.0171523 0)
(0.00595699 0.0595334 0)
(-0.112288 0.173178 0)
(-0.175169 0.132292 0)
(-0.115379 -0.0217003 0)
(-0.0262658 -0.0285208 0)
(0.071195 -0.168363 0)
(0.104144 -0.233014 0)
(0.176023 -0.0258974 0)
(0.207688 0.194248 0)
(0.138131 0.19342 0)
(0.0482625 0.0623126 0)
(0.0172943 -0.00665822 0)
(0.0166675 -0.011392 0)
(0.016752 -0.000319738 0)
(0.0132309 0.0101082 0)
(0.00877245 0.0176652 0)
(0.00564236 0.0214613 0)
(0.00686125 0.0224106 0)
(0.0116362 0.0251388 0)
(0.0147589 0.0330238 0)
(0.0111884 0.0434195 0)
(0.00137161 0.0521779 0)
(-0.0112456 0.0588767 0)
(-0.0251844 0.06365 0)
(-0.0391439 0.0648149 0)
(-0.0519934 0.0620248 0)
(-0.0634551 0.0563191 0)
(-0.0738554 0.0488927 0)
(-0.0833571 0.0398037 0)