/*--------------------------------*- C++ -*----------------------------------*\
| =========                 |                                                 |
| \\      /  F ield         | OpenFOAM: The Open Source CFD Toolbox           |
|  \\    /   O peration     | Version:  2412                                  |
|   \\  /    A nd           | Website:  www.openfoam.com                      |
|    \\/     M anipulation  |                                                 |
\*---------------------------------------------------------------------------*/
FoamFile
{
    version     2.0;
    format      ascii;
    arch        "LSB;label=32;scalar=64";
    class       volScalarField;
    location    "6.65";
    object      p_rgh;
}
// * * * * * * * * * * * * * * * * * * * * * * * * * * * * * * * * * * * * * //

dimensions      [1 -1 -2 0 0 0 0];

internalField   nonuniform List<scalar> 
6400
(
133032
133041
133058
133081
133112
133148
133190
133235
133284
133336
133388
133441
133493
133542
133588
133630
133666
133697
133721
133737
133747
133749
133743
133731
133712
133687
133657
133623
133586
133547
133508
133469
133431
133397
133366
133339
133319
133304
133295
133294
133299
133310
133329
133352
133382
133415
133452
133492
133533
133575
133615
133653
133689
133720
133746
133766
133779
133786
133786
133778
133764
133742
133715
133682
133644
133602
133557
133510
133461
133413
133365
133318
133274
133234
133197
133165
133139
133118
133103
133095
133023
133032
133049
133074
133105
133142
133184
133231
133281
133334
133388
133441
133494
133545
133592
133634
133671
133702
133727
133744
133753
133755
133749
133737
133717
133692
133661
133626
133588
133549
133508
133468
133430
133394
133363
133336
133315
133300
133291
133289
133295
133307
133325
133349
133379
133414
133452
133492
133534
133576
133618
133657
133693
133725
133751
133772
133785
133792
133792
133784
133770
133748
133720
133686
133648
133605
133559
133510
133461
133411
133362
133315
133270
133228
133191
133159
133131
133110
133095
133087
133006
133016
133033
133059
133091
133130
133174
133223
133275
133330
133386
133443
133498
133550
133599
133644
133682
133714
133740
133757
133767
133768
133762
133749
133728
133701
133669
133632
133592
133550
133508
133466
133426
133389
133356
133327
133305
133289
133280
133279
133284
133296
133316
133341
133372
133408
133448
133491
133535
133579
133622
133663
133701
133735
133762
133784
133798
133805
133805
133797
133782
133759
133730
133695
133655
133610
133562
133512
133461
133409
133358
133308
133262
133219
133180
133146
133118
133096
133080
133072
132980
132991
133010
133037
133071
133112
133159
133211
133267
133326
133385
133445
133504
133560
133612
133659
133700
133734
133760
133778
133788
133789
133782
133767
133745
133715
133680
133641
133598
133553
133507
133462
133418
133378
133343
133313
133288
133271
133262
133260
133266
133279
133300
133327
133361
133399
133442
133487
133535
133582
133629
133673
133714
133750
133780
133803
133818
133826
133826
133818
133801
133778
133747
133709
133667
133619
133568
133515
133460
133405
133351
133299
133250
133205
133164
133128
133098
133075
133059
133049
132946
132957
132978
133007
133044
133088
133139
133196
133256
133319
133384
133449
133512
133573
133629
133680
133724
133760
133789
133808
133818
133819
133810
133793
133768
133736
133697
133653
133605
133556
133505
133455
133407
133363
133324
133291
133264
133245
133235
133232
133239
133253
133276
133306
133343
133385
133432
133482
133534
133587
133638
133687
133731
133770
133803
133828
133846
133855
133854
133846
133828
133802
133769
133729
133683
133632
133577
133519
133460
133401
133343
133287
133234
133186
133142
133104
133072
133047
133029
133019
132901
132914
132936
132968
133009
133058
133114
133175
133242
133311
133383
133454
133523
133590
133652
133707
133756
133795
133826
133847
133857
133857
133847
133827
133799
133762
133718
133668
133615
133559
133502
133446
133392
133343
133299
133261
133232
133211
133198
133196
133203
133219
133244
133278
133319
133366
133419
133475
133533
133592
133649
133704
133753
133797
133833
133862
133882
133892
133892
133882
133863
133835
133798
133754
133703
133648
133587
133525
133460
133396
133333
133272
133214
133161
133114
133072
133038
133011
132991
132980
132846
132860
132885
132920
132966
133020
133082
133150
133224
133302
133381
133460
133538
133612
133680
133742
133795
133839
133873
133895
133906
133906
133893
133870
133837
133794
133744
133687
133626
133562
133497
133434
133373
133316
133266
133224
133190
133166
133152
133149
133157
133175
133204
133242
133288
133342
133402
133465
133532
133598
133663
133725
133781
133831
133872
133905
133927
133938
133939
133928
133907
133876
133835
133786
133730
133668
133602
133532
133461
133390
133320
133253
133189
133131
133079
133034
132996
132966
132945
132932
132778
132794
132822
132862
132913
132973
133043
133120
133203
133290
133380
133469
133556
133639
133716
133785
133845
133894
133931
133956
133967
133965
133950
133923
133884
133834
133776
133711
133640
133566
133491
133418
133348
133283
133226
133177
133138
133110
133094
133090
133099
133120
133153
133196
133249
133311
133379
133453
133528
133605
133680
133751
133816
133873
133920
133957
133983
133996
133997
133985
133961
133926
133880
133825
133762
133693
133619
133541
133461
133382
133304
133229
133159
133094
133037
132987
132945
132912
132888
132874
132696
132715
132747
132791
132849
132917
132996
133083
133178
133277
133378
133479
133578
133672
133759
133838
133905
133960
134002
134029
134041
134038
134020
133987
133941
133883
133815
133739
133657
133571
133484
133398
133317
133241
133175
133118
133073
133040
133022
133018
133027
133052
133089
133139
133201
133272
133351
133436
133524
133613
133700
133782
133858
133924
133979
134022
134051
134066
134067
134054
134027
133987
133935
133872
133801
133723
133639
133551
133462
133372
133285
133201
133122
133050
132986
132931
132884
132847
132820
132804
132598
132620
132657
132707
132772
132849
132939
133040
133147
133261
133377
133492
133605
133712
133812
133901
133978
134040
134087
134117
134130
134125
134103
134064
134010
133942
133862
133773
133676
133575
133473
133373
133278
133190
133112
133046
132993
132955
132934
132928
132940
132967
133011
133069
133140
133224
133316
133415
133518
133622
133724
133820
133909
133985
134049
134099
134133
134151
134152
134136
134105
134059
133999
133928
133847
133757
133662
133562
133461
133360
133262
133167
133078
132997
132925
132863
132811
132771
132740
132722
132483
132508
132549
132606
132679
132768
132872
132987
133111
133242
133375
133508
133637
133760
133874
133976
134064
134135
134189
134222
134236
134230
134203
134156
134092
134011
133917
133810
133698
133580
133460
133342
133230
133127
133035
132958
132896
132852
132827
132820
132833
132865
132915
132983
133067
133164
133272
133389
133510
133632
133752
133865
133970
134058
134133
134191
134231
134251
134252
134234
134198
134145
134076
133994
133901
133799
133690
133577
133462
133347
133235
133127
133026
132933
132851
132782
132725
132680
132646
132624
132348
132376
132422
132485
132567
132670
132790
132925
133069
133220
133374
133527
133676
133818
133949
134066
134167
134249
134309
134348
134363
134354
134321
134266
134190
134094
133983
133858
133724
133584
133443
133304
133172
133050
132942
132851
132778
132727
132697
132689
132704
132741
132799
132878
132976
133090
133217
133354
133498
133643
133784
133917
134037
134145
134233
134301
134348
134371
134372
134351
134308
134246
134166
134072
133964
133847
133723
133594
133462
133331
133203
133080
132963
132857
132763
132684
132621
132572
132535
132511
132191
132221
132271
132341
132436
132555
132695
132852
133020
133195
133373
133550
133722
133886
134037
134172
134289
134383
134453
134496
134512
134501
134462
134396
134305
134192
134060
133913
133754
133588
133421
133256
133099
132955
132828
132721
132636
132575
132540
132531
132548
132590
132658
132750
132864
132998
133149
133312
133482
133654
133822
133982
134123
134249
134353
134433
134486
134513
134514
134488
134437
134365
134272
134162
134037
133902
133759
133612
133462
133312
133165
133024
132890
132767
132659
132568
132497
132444
132405
132380
132009
132040
132095
132175
132285
132424
132587
132770
132965
133167
133373
133578
133777
133966
134141
134298
134432
134541
134621
134671
134689
134675
134628
134549
134442
134308
134151
133976
133788
133591
133392
133197
133011
132840
132689
132563
132463
132393
132351
132340
132360
132409
132488
132595
132728
132886
133064
133258
133460
133666
133866
134051
134224
134373
134495
134588
134651
134681
134680
134649
134589
134503
134394
134266
134122
133966
133802
133632
133461
133290
133123
132961
132808
132666
132541
132437
132356
132297
132256
132230
131798
131832
131894
131988
132116
132278
132467
132677
132902
133136
133374
133611
133842
134061
134264
134445
134600
134727
134820
134878
134898
134879
134823
134730
134602
134444
134258
134051
133827
133593
133355
133122
132900
132697
132519
132371
132255
132172
132124
132112
132134
132190
132281
132405
132561
132747
132957
133188
133431
133678
133920
134141
134345
134520
134664
134773
134845
134879
134875
134837
134765
134663
134535
134385
134218
134038
133849
133655
133459
133265
133075
132892
132717
132556
132413
132293
132199
132131
132085
132059
131554
131590
131665
131777
131928
132114
132332
132574
132832
133102
133377
133651
133917
134170
134406
134616
134796
134943
135050
135119
135141
135119
135052
134942
134791
134603
134383
134138
133872
133593
133309
133029
132763
132521
132311
132137
132002
131907
131852
131838
131863
131927
132031
132174
132356
132574
132824
133101
133393
133689
133975
134246
134488
134696
134865
134991
135073
135110
135104
135055
134969
134848
134696
134520
134326
134119
133902
133679
133456
133235
133020
132815
132619
132437
132274
132136
132026
131945
131891
131863
131270
131310
131400
131535
131713
131930
132181
132458
132754
133064
133383
133701
134008
134300
134569
134811
135022
135193
135320
135398
135424
135398
135319
135189
135010
134789
134530
134240
133926
133594
133253
132915
132594
132304
132055
131850
131692
131581
131519
131503
131531
131603
131722
131889
132101
132356
132654
132988
133345
133705
134053
134375
134662
134906
135103
135249
135341
135380
135368
135307
135201
135056
134877
134671
134447
134207
133958
133705
133452
133203
132965
132734
132515
132310
132124
131963
131831
131733
131668
131640
130940
130975
131089
131252
131463
131719
132011
132330
132668
133019
133390
133758
134115
134450
134756
135032
135280
135481
135629
135719
135749
135719
135627
135474
135263
135003
134700
134360
133988
133594
133185
132775
132383
132032
131739
131505
131326
131204
131137
131120
131150
131228
131359
131547
131787
132081
132435
132843
133284
133726
134147
134530
134868
135154
135383
135551
135654
135693
135671
135593
135463
135289
135079
134839
134579
134303
134018
133730
133444
133164
132896
132642
132402
132171
131956
131764
131606
131486
131408
131383
130523
130546
130695
130892
131150
131459
131808
132187
132586
132993
133416
133840
134250
134632
134975
135277
135576
135813
135983
136085
136117
136079
135969
135784
135532
135229
134881
134492
134062
133593
133091
132584
132104
131683
131343
131068
130853
130707
130634
130621
130652
130732
130882
131108
131392
131727
132140
132640
133184
133737
134258
134715
135105
135430
135693
135888
136003
136043
136012
135915
135758
135549
135297
135012
134722
134409
134087
133762
133441
133129
132832
132562
132284
132012
131754
131518
131320
131171
131078
131081
80432.8
78941.7
81067
84579.9
88907
93980.5
99554.4
105369
111116
116694
121959
126532
130363
133383
135293
135642
135928
136188
136387
136516
136553
136512
136389
136173
135757
134997
133748
131797
129196
125907
120655
112939
103265
93920.5
87499.1
82728.7
78532.9
75534.3
74331.4
74325.1
74726
75696.7
78227.5
82517.4
87516.1
92817
100183
110270
119719
126599
131250
133276
134784
135632
136081
136320
136441
136472
136422
136287
135997
135750
135545
135250
133960
131324
128141
124809
121391
117815
114214
110881
107491
103770
99851.6
96111.3
92927.8
90426.2
88863.8
92155
4.4079
324.326
845.354
1774.07
3282.32
5397.99
8084.05
11315.6
15147.1
19981.7
26044.2
32873.1
40038.6
47687.2
56436.6
65583.4
72950.7
79087.8
83903.6
87237.1
89081.7
89451.3
88130.9
84167.4
77024.2
68308
58949.6
49178.4
38851
28696
19630.5
12666.5
8505.26
6476.56
5037.51
3619.48
2605.23
2130.14
2082.28
2181.78
2225.33
2307.13
2760.27
3858.68
5638.52
7677.12
10085
14112.7
21148.5
31362.7
43335.3
55542.2
66300.5
75711.9
83345.1
88305.8
89829.1
89331.1
87006.8
82978
77386.2
70307.5
62435.2
54412.3
46635.9
40479.1
35069.3
30053.1
25559.7
21645.3
18155.6
15209.2
12663.1
10325.7
8219.54
6378.48
4909.48
3918.69
3315.74
2193.04
4.50751
4.61445
4.57132
4.51102
4.364
4.18259
4.20887
4.32849
4.06698
4.72071
6.13565
6.86834
7.55035
9.27516
32.3894
530.623
1449.76
2393.33
3063.21
3266.02
2948.88
2044.58
767.942
2.79912
1.54146
1.30633
1.40076
1.42246
1.53974
1.75471
1.88101
1.71792
1.66385
10.5123
22.8461
25.6187
28.9505
36.6044
44.8994
48.7512
44.1685
40.4532
37.7132
35.0147
27.757
16.1938
3.37352
3.15106
2.74058
2.32982
2.03397
1.81836
1.62312
1.71492
2.49943
137.609
1033.38
1565.03
1726.02
1503.52
1033.01
669.087
318.663
10.4075
10.7755
13.1002
14.755
15.732
13.9533
9.01002
5.40016
3.69411
3.78736
3.90731
3.94011
3.98195
4.01352
4.06472
4.41351
4.25365
6.32296
7.07593
7.12175
7.14264
4.79534
4.17228
7.10388
9.06693
8.79338
5.11587
4.20403
4.00627
3.73722
3.83467
4.28228
3.38643
2.26983
2.06961
1.96316
1.93271
1.95909
2.05575
2.20396
2.24999
2.04108
1.88053
1.87135
1.92275
1.97979
2.0069
2.03378
4.79904
17.6991
3.84422
4.53871
6.35671
9.2602
12.2474
9.31887
9.81492
8.3991
7.10169
6.5373
6.83595
7.53316
6.14455
5.01275
5.21984
5.11928
4.73436
2.51785
2.43041
2.30451
2.29545
2.34378
2.18281
1.8517
1.64779
1.70345
2.15249
2.89695
3.4086
3.81859
5.16742
5.81847
5.86341
6.21785
8.81454
10.1917
6.06181
4.04064
3.78884
3.85324
4.31515
4.35538
3.99704
4.03506
4.64531
5.28999
4.93333
11.0543
10.9807
10.898
11.0302
11.047
5.96206
6.7694
9.09495
8.56269
4.33277
4.10777
3.88089
3.55305
3.49467
3.39581
3.01499
2.77056
2.70262
2.67193
2.55774
2.4806
2.94546
3.54375
2.81698
2.37345
2.0022
1.69302
1.63099
1.68168
1.78782
1.98263
3.47576
5.74153
2.69374
2.92682
4.55063
8.56201
11.6044
4.84918
4.15194
3.92284
3.87434
4.22728
4.75699
6.23525
7.11201
7.12511
7.93182
7.76856
6.75267
2.23763
2.27374
2.27586
2.28742
2.28821
2.20981
2.08822
2.00255
2.49624
4.17063
4.80967
5.12422
5.43304
5.83593
5.76321
5.75086
5.90745
9.56969
10.2307
5.63468
4.53823
3.81512
3.9476
5.14574
4.88799
3.91678
5.24768
5.53129
5.471
5.28106
11.0254
6.49072
3.30273
3.62261
7.26987
6.58365
8.11546
8.56914
4.3955
4.33833
4.38102
4.52747
3.539
3.47484
3.46382
3.44292
3.47295
3.7251
3.90736
3.72529
5.0699
7.66279
7.64466
7.61326
7.24596
6.18452
3.3102
1.48436
1.62115
1.78967
1.90959
2.01138
2.07818
2.17327
2.44919
4.24575
11.7157
12.1415
4.2041
3.13856
3.17517
3.40288
3.80665
4.96419
8.14005
7.95549
7.87099
7.83541
7.3771
2.92383
2.30338
2.30004
2.26689
2.23284
2.20045
2.12352
2.03783
2.05971
2.86283
7.5551
9.7975
10.1777
9.45621
5.78987
5.75881
5.72148
5.66656
7.3959
10.0289
9.76366
5.42276
3.81482
4.60683
5.1331
4.09882
3.83431
4.56014
3.95857
3.73545
3.8256
6.85999
3.54233
3.18259
3.223
3.37105
6.40539
7.46848
6.00371
4.48652
6.39731
8.43848
3.65244
3.57479
3.50904
3.48224
6.7898
7.94961
7.82297
7.71988
7.61656
7.59031
7.61193
7.63684
7.60664
7.52667
7.41804
6.35415
1.55265
1.48906
1.64579
1.71802
1.80928
1.89449
1.9745
2.07307
4.63384
11.2698
11.5024
3.27707
2.88207
2.929
3.12057
4.25268
7.75627
7.91837
4.49321
3.67775
3.56939
2.20548
2.08997
2.21338
2.25688
2.25386
2.22802
2.17444
2.11158
2.05059
2.47904
7.35139
9.49137
9.89714
10.2939
10.5965
10.7606
10.0931
5.73256
5.6512
5.60848
6.6853
8.48235
8.54837
6.58173
4.68285
4.69203
3.81295
3.7803
3.70977
3.66788
3.72593
3.79789
3.19337
3.35462
3.05764
3.01334
3.12103
6.47377
6.10842
6.03534
6.16342
9.02246
8.85653
8.82126
8.77461
8.07133
7.72007
7.99501
7.89687
7.74133
6.56077
5.932
6.06762
6.31624
7.6039
7.61182
7.54648
7.31854
3.48954
1.29032
1.36935
1.50656
1.56619
1.64396
1.73127
1.81422
1.88654
3.06698
8.91211
11.3986
4.8132
2.7466
2.76811
3.15679
4.50748
4.32479
2.04706
1.9276
1.84857
1.84393
1.92261
2.04356
2.14122
2.18772
2.18922
2.14689
2.10589
2.24703
2.80196
5.59806
9.38875
9.6322
10.0074
10.3916
10.6726
10.7825
10.6322
10.4106
8.01594
3.19926
2.94115
3.61909
6.90275
7.93386
8.15316
6.85156
4.58097
3.79098
3.7608
3.73303
3.75848
3.85963
2.93539
2.68915
2.57287
2.6287
2.95614
5.86314
5.99472
9.85848
9.77727
5.74717
8.775
8.77137
8.73498
8.62726
8.44917
7.27689
4.37278
2.05201
1.51371
1.43907
1.36759
1.32843
4.62723
7.6123
6.04886
2.13668
1.13623
1.18803
1.31424
1.43122
1.48899
1.55566
1.6301
1.70628
1.76374
2.38209
8.73788
10.626
9.43568
3.04482
2.63308
2.65251
2.63541
2.13368
1.7804
1.83381
1.69596
1.72756
1.87604
2.02617
2.14948
2.2245
2.23331
2.15047
4.3355
9.51645
9.42539
9.39476
9.4864
9.76323
10.1356
10.4793
8.59632
6.17593
5.1001
4.78818
3.63279
2.95725
2.88931
2.90191
2.95847
6.298
8.23495
8.41968
8.60821
4.60942
3.79344
3.76895
3.78689
4.12219
2.38433
2.11597
2.04059
2.24767
2.61184
3.74027
9.05114
11.6245
9.97861
3.48729
3.10645
5.8764
8.68642
4.86108
1.83983
1.72035
1.65307
1.58434
1.51314
1.42997
1.3552
1.30365
1.66399
4.03509
1.42301
1.21017
1.24855
1.28846
1.29956
1.39735
1.45586
1.51933
1.58782
1.6402
1.65669
2.56803
9.77912
10.3938
10.3851
6.93585
2.64478
2.37224
2.17072
1.92824
3.57339
3.48768
2.47126
1.49121
1.72965
1.96175
2.14529
2.26022
2.34353
2.34298
2.42192
7.58966
9.16884
8.24613
9.61295
9.93103
10.2804
7.3943
2.72665
2.87112
2.95913
2.97858
2.95545
2.90969
2.86416
2.86146
2.89963
2.93866
4.34018
7.83802
8.7873
8.99686
6.33191
3.78594
3.79584
4.13945
2.21215
1.92596
1.87738
2.08952
2.45525
4.19668
11.9288
11.7804
11.4985
3.87399
2.84943
2.73893
2.3188
1.74681
1.73329
1.69288
1.64066
1.59968
1.52992
1.42997
1.33245
1.56767
4.2956
3.60775
3.38734
1.16718
1.20964
1.2186
1.29336
1.38162
1.44569
1.51879
1.5883
1.60831
1.55982
2.39372
9.42933
10.4778
10.3947
9.61568
3.27356
2.00012
1.68704
1.75097
3.20515
3.07035
3.1652
2.60731
2.82405
4.01304
5.02637
5.09302
5.54432
4.39342
3.63557
3.41431
2.44848
2.66032
8.51158
10.0751
8.79043
2.72644
2.5905
2.74493
2.84404
2.88119
2.87331
2.84269
2.81407
2.81508
2.84285
2.87342
2.88258
2.88151
6.96855
8.9975
9.20493
7.00199
3.81418
4.02405
2.25399
2.05473
2.01284
2.18463
2.46708
6.5506
12.0943
11.9354
11.7458
7.03165
2.94251
3.0815
2.11597
1.71364
1.69849
1.65647
1.61303
1.55045
1.46119
1.35775
1.27065
1.87876
5.75916
5.62603
5.62428
1.30068
1.10472
1.19298
1.29209
1.37272
1.44432
1.52271
1.60542
1.59887
1.48887
1.77554
6.75265
10.4283
10.3215
9.58635
2.36922
1.68983
1.26928
1.28065
3.00432
1.6599
1.91376
2.26913
3.4003
7.0639
7.31127
7.45613
7.47477
7.29266
6.03273
2.68329
2.14615
2.81254
4.13059
8.09603
5.33087
2.52837
2.46584
2.60299
2.70449
2.75169
2.75654
2.743
2.73149
2.73734
2.7609
2.79061
2.81194
2.80781
2.7849
7.78496
9.254
9.439
5.12487
4.01905
2.47565
2.33812
2.26863
2.37543
3.57047
12.4632
12.2325
12.0549
11.5424
4.90995
3.42388
3.42868
2.72516
1.68828
1.68081
1.62687
1.58843
1.52872
1.43601
1.32393
1.23032
1.22592
4.03712
5.71222
3.08226
1.11397
1.20446
1.45708
1.32507
1.37187
1.42609
1.92613
2.64688
1.68214
1.47023
1.35587
2.62291
8.90694
10.0931
9.68659
2.07059
1.50474
1.27897
3.75533
3.62445
2.1843
1.7213
2.76898
6.357
7.05389
7.23554
7.35781
7.30443
3.8123
2.32099
2.20514
2.14731
2.14962
2.21353
2.35996
4.44669
3.98683
2.49955
2.50366
2.57964
2.62055
2.62458
2.61672
2.61561
2.62916
2.65613
2.68857
2.71551
2.72581
2.72242
3.15318
9.27771
9.5412
6.40523
4.05026
2.71126
2.58339
2.47312
2.53251
7.80587
12.6629
12.3619
8.49767
3.24803
2.2099
2.97316
3.47342
1.76454
1.70962
1.63287
1.60083
1.56881
1.51646
1.42771
1.30661
1.21574
1.1338
1.44787
1.81279
1.10158
1.114
1.75395
2.00548
1.70583
1.39149
1.41623
1.71213
3.40029
2.99403
1.42826
1.28532
1.22904
2.95273
8.72756
9.36645
3.11508
1.45338
2.03489
3.73099
3.6
2.28491
2.8712
6.66241
6.89193
7.07922
7.17646
7.14283
3.40644
2.24268
2.18898
2.14373
2.12655
2.14897
2.21997
2.35231
3.08733
2.79398
2.70365
2.76598
2.64636
2.606
2.5052
2.45844
2.46361
2.48507
2.51886
2.55882
2.59611
2.62436
2.64695
2.7031
6.97171
9.64063
8.04697
4.14585
3.03317
2.70488
2.56579
4.44101
13.3291
13.0073
10.276
2.15905
1.91521
1.77858
1.9805
1.96839
1.6565
1.62616
1.59629
1.5629
1.67435
2.10992
2.7036
1.77381
1.17612
1.0836
1.0106
0.984077
1.03194
1.114
1.53667
2.03239
2.22565
1.82156
1.78824
2.47799
3.31735
3.2877
1.58408
1.25231
1.20108
1.20268
2.24877
4.46965
3.94147
1.553
1.64692
2.81026
1.39832
2.65559
6.77445
6.90781
7.03019
6.31443
4.45048
2.14684
2.07339
2.08475
2.08125
2.06637
2.06505
2.09333
2.16929
2.30051
2.5933
3.71947
6.19567
9.45319
7.94185
4.38526
2.29719
2.24183
2.25684
2.29615
2.34325
2.39673
2.45015
2.49733
2.54609
2.62421
5.10312
9.67564
9.75613
4.49722
3.01766
2.69088
2.73702
10.5448
13.4688
13.2626
13.0796
5.93393
1.87838
1.77927
1.65992
1.61711
1.59329
1.56276
1.52638
1.50217
1.9847
5.61516
6.58369
5.86234
1.50572
1.01928
0.980994
0.986163
1.08885
1.24922
1.33661
1.4527
2.26805
3.27124
3.2834
3.25237
3.17806
3.16079
2.93802
1.20351
1.17874
1.14499
1.98854
10.9229
4.38391
1.71047
1.38332
1.19157
1.39612
7.34799
7.18256
7.22262
3.68473
1.571
1.92485
2.05875
2.01814
1.99049
1.97891
1.97702
1.98021
2.00021
2.60413
3.36641
4.85886
9.91235
10.2712
10.4209
10.5369
10.2959
4.0668
2.02217
1.99183
2.04975
2.12293
2.19714
2.27947
2.34276
2.41796
2.52015
4.30754
9.62662
9.81342
4.9177
2.86895
2.58089
4.16006
13.6444
13.4618
13.3451
13.3378
13.4159
11.5725
4.90671
1.59479
1.53573
1.49849
1.46329
1.42198
1.4493
4.17536
6.67978
6.58282
6.45732
5.6134
0.905338
0.88978
0.928032
1.35262
1.89134
1.97276
2.06376
2.11416
1.93294
1.88631
2.8845
3.08752
3.0766
3.10358
1.65811
1.16842
1.23523
8.05895
11.1355
10.2497
1.93035
1.82441
4.31624
8.49061
7.93685
7.26751
1.01076
1.16449
1.45868
1.7665
3.1156
3.50081
2.38989
1.90207
1.91031
2.2822
2.10112
7.03444
8.05595
8.74377
9.42288
9.90555
10.1505
10.2493
10.3114
9.48307
2.90475
1.6972
1.75178
1.85866
1.9612
2.06812
2.18545
2.26269
2.38607
3.88248
9.60722
9.90198
5.62215
2.85757
2.4594
7.60809
13.5509
13.349
13.2922
13.3881
13.5221
13.5712
13.3794
5.47759
1.3829
1.35592
1.32478
1.27826
1.55742
5.78575
6.6357
6.55093
6.42302
6.27492
3.55682
0.760368
0.84786
0.94723
1.22046
1.91394
2.04167
2.09085
1.80573
1.6549
2.43422
3.13218
3.12951
3.16094
1.71494
1.15882
1.51697
11.3275
11.2774
11.286
8.86549
8.71646
9.60635
9.16753
4.48725
0.717492
0.907411
1.11555
1.97272
3.61748
3.69906
3.74706
3.78031
2.43363
3.98668
3.98884
3.94743
2.78633
1.7135
1.178
1.64641
6.6247
9.73509
9.93436
9.99622
10.0845
5.37107
1.36793
1.41311
1.56228
1.69933
1.83266
1.99901
2.16429
2.21953
4.00841
9.61001
9.89103
7.30279
2.48758
2.10821
9.07717
13.3913
13.2199
12.3302
13.3951
13.5809
13.6599
13.6193
6.49538
1.19542
1.18599
1.27885
1.15534
1.45331
6.03353
6.5915
6.5155
6.36425
6.17073
5.60662
0.7359
0.764233
0.90098
1.01793
1.12133
1.51403
1.9063
1.75446
1.50721
2.06477
3.34777
3.34639
3.08969
1.35465
1.17503
3.22448
11.4325
11.3621
11.3656
11.3875
11.2434
9.84885
1.22354
0.736735
0.80846
0.902303
2.12443
3.45216
3.56547
3.65642
3.69176
3.63287
3.49804
2.69846
2.1515
1.19007
0.533214
0.488669
0.445454
0.383383
0.29619
6.58298
9.60613
9.7008
9.69299
7.3067
1.20126
1.06074
1.25309
1.42552
1.58541
1.85719
2.34147
2.07526
3.54787
9.53913
9.79305
6.89161
1.80066
1.68762
6.9477
13.3808
7.94828
4.83369
13.4689
13.6706
13.7307
13.4008
1.21994
1.02658
1.25118
1.29774
0.934626
0.996571
4.64006
6.54813
6.47591
6.2916
6.01969
5.52262
1.06684
0.689257
0.854568
1.00215
1.12927
1.23801
1.32396
1.38475
1.4801
2.37116
3.55723
3.57864
1.9942
1.62251
2.24936
11.5356
11.5474
11.453
11.4432
11.4269
5.39353
0.844964
0.843365
0.855072
0.881339
2.13734
3.16375
3.36864
3.50662
3.34703
2.85053
2.03865
0.885601
0.554956
0.492135
0.435005
0.380737
0.327442
0.268457
0.190397
0.082544
3.20854
9.33695
9.42758
9.49428
5.52447
0.601812
0.726086
0.956729
1.15707
1.34001
2.01556
3.37122
2.12994
2.89627
8.86027
9.59959
4.85701
1.58291
1.4695
2.56056
4.7418
1.00322
3.11461
13.6749
13.8187
13.8282
5.25922
1.11482
1.53494
2.16411
0.816533
0.753049
0.659285
1.71759
4.82366
4.88941
1.76609
3.02651
5.1579
1.42694
0.614326
0.801235
0.982208
1.14433
1.28404
1.40134
1.52016
1.62858
2.21684
2.62816
2.2644
1.84682
2.80367
6.07085
12.0481
11.7712
11.6762
10.8611
1.59513
0.897599
0.946979
0.970022
0.971085
2.10367
2.56807
2.56476
1.86566
0.835416
0.579758
0.549242
0.525381
0.498651
0.457631
0.39293
0.306582
0.23564
0.177332
0.111465
0.0154335
-0.116689
1.9895
9.12979
9.18359
8.9153
1.81609
0.16512
0.450873
0.700992
0.914453
1.10642
2.97422
3.14207
2.22579
2.70026
8.07905
7.90704
3.21
2.28333
1.36761
1.14979
1.0876
0.984319
9.53452
14.0166
14.0575
8.52875
1.38958
1.38959
2.49645
2.1499
0.675478
0.620886
0.570194
0.811947
0.750638
0.405076
0.365772
0.306247
0.667972
3.35752
4.06542
2.34949
2.56677
3.20851
2.74509
2.00549
1.64528
1.79794
1.9359
2.01625
2.05123
2.00178
2.42702
3.77308
6.65963
6.18566
3.49915
1.0218
1.03086
1.06645
1.08342
1.2959
2.53024
2.42044
2.0621
0.731239
0.662957
0.613475
0.568445
0.520983
0.467208
0.411212
0.353835
0.293081
0.187267
0.100149
0.0529745
0.0020319
-0.107843
-0.265198
0.290951
8.53273
9.07489
4.30543
-0.191591
-0.0306297
0.253547
0.492523
0.701576
1.74758
2.94242
2.9513
1.59663
2.62792
7.58197
7.47636
2.5941
2.72534
1.36558
1.18154
1.08588
1.10529
13.5768
14.2894
7.73694
1.41384
1.6096
2.44568
2.42265
1.83307
0.565188
0.520749
0.461703
0.417028
0.375686
0.30794
0.237897
0.128245
0.0851438
1.98657
4.16837
4.41515
4.70101
4.99077
5.26058
5.47143
3.60672
2.70455
2.26402
2.17119
2.11936
2.07454
1.91352
1.68747
1.5408
1.4704
1.39406
1.35336
1.28906
1.23551
2.15329
3.12729
2.95378
2.11236
0.918347
0.839226
0.757731
0.666284
0.566007
0.492592
0.415274
0.338539
0.287224
0.939026
0.750778
0.208006
0.535502
0.499456
-0.127252
-0.370955
-0.426846
3.00398
3.4515
0.0932171
-0.412894
-0.115899
0.13002
0.330479
0.538729
2.62725
2.70728
1.776
1.14751
3.51525
7.15208
7.19348
2.22854
2.55735
1.31667
1.17739
1.07704
3.44498
13.9676
10.3014
1.33988
1.23748
1.61002
2.32222
2.34734
1.30491
0.48279
0.443917
0.368803
0.277117
0.211414
0.151249
0.0390992
-0.128983
-0.272034
-0.155184
2.35988
4.07323
4.424
4.81184
5.18342
5.50303
5.71821
4.71156
4.37367
4.50682
4.46188
3.64174
2.80311
2.19101
2.01843
1.94003
2.54229
4.48059
4.64629
4.65491
4.41536
3.26101
1.174
1.04466
1.08778
1.02972
0.949546
0.866869
0.759632
0.474911
0.38198
0.33176
2.13212
5.77243
5.46259
1.78536
0.877213
1.56111
0.178993
-0.415146
-0.579509
-0.725092
-0.742502
-0.578351
-0.336469
-0.110211
0.0602331
0.19977
1.03311
2.33138
2.03265
0.683248
0.819844
6.16607
6.91744
3.86413
2.01473
1.45212
1.31233
1.1594
1.01241
13.2806
14.2007
3.60272
1.23969
1.12915
1.04331
1.79078
1.59844
0.734073
0.484502
0.383444
0.293206
0.179293
0.0682548
-0.0434253
-0.206902
-0.399627
-0.568683
-0.625678
0.429664
3.71218
4.13168
4.60243
5.06727
5.44617
4.21946
2.23199
2.12222
4.23964
4.37579
4.24046
3.83456
5.92726
6.01881
5.94827
5.88533
5.78992
5.71753
5.63749
3.82119
0.93455
1.04927
1.10632
1.15419
1.07818
0.976594
0.718293
0.554982
0.459929
0.671186
4.21432
5.92271
5.62901
5.43824
1.93849
-0.158119
1.54083
0.90016
-0.192478
-0.415921
-0.493139
-0.541793
-0.426536
-0.225205
-0.073737
0.0122695
0.0818248
0.853286
1.27739
0.496262
0.393705
1.24073
6.3855
6.79218
1.52981
1.84267
8.14926
1.60884
1.10231
0.929661
14.3805
14.3716
6.23042
1.17631
1.05059
0.894935
0.782173
0.788091
0.800358
0.88698
0.340264
0.22053
0.0792632
-0.0807101
-0.249544
-0.468155
-0.724079
0.114338
1.73893
2.4263
3.22939
3.85273
4.40405
4.94197
5.02347
6.0021
4.96984
1.91841
1.87202
1.82414
1.74359
1.63472
1.50003
1.35927
1.367
2.41991
5.4188
4.24085
1.06907
0.904331
0.964844
1.29579
1.29435
1.20329
0.939429
0.578121
0.497027
0.396773
0.757553
5.4642
6.07708
5.77697
5.52946
4.25137
-0.404327
-0.367775
0.342559
8.69136
7.87483
0.61922
-0.378229
-0.446737
4.38163
5.04659
-0.0702352
-0.0570302
-0.0318465
0.106749
0.186265
0.184628
0.202864
4.83656
5.80747
3.0099
1.39559
1.64908
8.77091
1.35102
1.02057
1.02779
14.4801
14.4649
14.4332
2.45241
1.01578
0.874486
0.800556
0.77268
1.88771
1.8411
0.48257
0.146035
-0.0244409
-0.22307
-0.444965
-0.71651
-0.74011
2.05087
2.20514
2.3058
1.29614
1.26759
3.28908
4.38317
4.64169
6.12854
6.62122
3.6342
1.90867
1.74782
1.65649
1.56954
1.44725
1.30677
1.17286
1.0797
1.00479
0.963817
0.950201
0.945897
1.41139
1.37752
1.31315
0.820651
0.690584
0.592755
0.478547
0.827987
5.75292
6.32925
6.00431
5.71214
4.68194
-0.63533
-0.587868
-0.435493
-0.315001
14.8407
15.0015
13.2526
1.48133
0.990085
14.6687
16.6907
12.6762
0.29407
-0.170829
0.0633995
0.11166
0.0196766
0.0479112
4.83705
4.89345
1.11392
1.33622
1.5169
8.74442
4.6881
0.928445
0.70071
14.1111
14.4427
14.4754
14.0303
2.70627
0.930107
0.845869
0.818459
2.10507
6.61788
1.6152
0.0479601
-0.136618
-0.349066
-0.602503
-0.90324
-1.03201
1.83886
1.98845
2.02681
-0.704457
-0.236399
0.386067
1.85013
4.53928
6.24505
6.80888
7.1102
5.47151
1.89495
1.56242
1.46591
1.33152
1.245
1.21385
1.14974
1.05819
0.99531
0.981414
1.25752
1.43588
1.27537
0.874678
0.810865
0.724964
0.615841
0.781546
5.28526
6.57345
6.30916
6.03122
5.75227
-0.63892
-0.619165
-0.559383
-0.446217
1.2643
12.303
15.0987
15.28
15.5119
16.2944
16.4952
16.6412
16.8454
7.57931
-0.263292
1.33514
0.575217
-0.128368
-0.0686394
3.0616
1.31587
1.06158
1.30509
5.84576
8.68016
8.77837
0.999087
0.620779
5.71911
14.3941
14.3524
14.5152
14.6653
9.29605
1.96586
0.84459
5.07471
10.6005
4.05365
-0.0747243
-0.248803
-0.446748
-0.696903
-1.00333
-1.38182
1.22657
1.95462
-0.478182
-0.809826
-0.331332
1.59981
4.32411
4.83145
4.5414
4.41792
7.23691
7.2987
4.96664
1.55317
1.29489
1.22153
1.16246
1.11891
1.0771
1.03023
1.00262
0.992681
1.03368
1.06468
0.945377
0.904698
0.843773
0.760338
0.746932
4.54732
6.26232
6.42783
6.33864
6.12505
2.62848