/*--------------------------------*- C++ -*----------------------------------*\
| =========                 |                                                 |
| \\      /  F ield         | OpenFOAM: The Open Source CFD Toolbox           |
|  \\    /   O peration     | Version:  2412                                  |
|   \\  /    A nd           | Website:  www.openfoam.com                      |
|    \\/     M anipulation  |                                                 |
\*---------------------------------------------------------------------------*/
FoamFile
{
    version     2.0;
    format      ascii;
    arch        "LSB;label=32;scalar=64";
    class       volVectorField;
    location    "8.62";
    object      U;
}
// * * * * * * * * * * * * * * * * * * * * * * * * * * * * * * * * * * * * * //

dimensions      [0 1 -1 0 0 0 0];

internalField   nonuniform List<vector> 
80000
(
(0.00430298 -0.00611278 0)
(0.0133276 -0.00643934 0)
(0.0219121 -0.00647107 0)
(0.0313991 -0.0065909 0)
(0.0403465 -0.00649811 0)
(0.0491328 -0.00643502 0)
(0.0581443 -0.00642913 0)
(0.0671089 -0.00642998 0)
(0.0760621 -0.00642852 0)
(0.0850161 -0.00642231 0)
(0.0939647 -0.00641182 0)
(0.102904 -0.00640156 0)
(0.111835 -0.00639168 0)
(0.120756 -0.00638042 0)
(0.129666 -0.00636727 0)
(0.138561 -0.00635298 0)
(0.147442 -0.00633817 0)
(0.156307 -0.00632297 0)
(0.165155 -0.00630703 0)
(0.173986 -0.00629005 0)
(0.182798 -0.00627222 0)
(0.19159 -0.00625363 0)
(0.200361 -0.00623415 0)
(0.20911 -0.0062137 0)
(0.217834 -0.00619235 0)
(0.226534 -0.0061701 0)
(0.235208 -0.00614701 0)
(0.243854 -0.00612306 0)
(0.252472 -0.00609827 0)
(0.26106 -0.00607262 0)
(0.269617 -0.0060461 0)
(0.278142 -0.00601867 0)
(0.286633 -0.00599031 0)
(0.295089 -0.00596103 0)
(0.303508 -0.00593088 0)
(0.31189 -0.00589986 0)
(0.320233 -0.00586786 0)
(0.328535 -0.00583488 0)
(0.336796 -0.00580102 0)
(0.345014 -0.00576629 0)
(0.353187 -0.00573064 0)
(0.361314 -0.00569405 0)
(0.369395 -0.0056566 0)
(0.377427 -0.00561822 0)
(0.385409 -0.00557894 0)
(0.39334 -0.005539 0)
(0.401219 -0.00549821 0)
(0.409045 -0.00545631 0)
(0.416815 -0.00541347 0)
(0.424529 -0.0053698 0)
(0.432185 -0.00532527 0)
(0.439782 -0.00527988 0)
(0.447319 -0.00523363 0)
(0.454795 -0.00518653 0)
(0.462207 -0.00513856 0)
(0.469555 -0.00508968 0)
(0.476838 -0.00503992 0)
(0.484054 -0.00498929 0)
(0.491201 -0.00493785 0)
(0.498279 -0.00488558 0)
(0.505286 -0.00483246 0)
(0.512221 -0.00477849 0)
(0.519083 -0.00472366 0)
(0.525869 -0.00466796 0)
(0.53258 -0.00461139 0)
(0.539213 -0.00455398 0)
(0.545767 -0.00449573 0)
(0.552241 -0.00443667 0)
(0.558634 -0.00437676 0)
(0.564943 -0.00431603 0)
(0.571169 -0.00425451 0)
(0.57731 -0.0041922 0)
(0.583363 -0.00412903 0)
(0.589329 -0.00406494 0)
(0.595205 -0.00399995 0)
(0.600991 -0.00393419 0)
(0.606685 -0.00386776 0)
(0.612286 -0.00380054 0)
(0.617791 -0.00373234 0)
(0.623201 -0.00366321 0)
(0.628514 -0.00359334 0)
(0.633728 -0.00352272 0)
(0.638842 -0.00345132 0)
(0.643854 -0.00337905 0)
(0.648764 -0.00330585 0)
(0.65357 -0.00323191 0)
(0.658271 -0.00315711 0)
(0.662865 -0.00308145 0)
(0.667352 -0.00300531 0)
(0.671729 -0.00292857 0)
(0.675996 -0.00285062 0)
(0.68015 -0.00277155 0)
(0.684191 -0.00269182 0)
(0.688117 -0.00261142 0)
(0.691927 -0.00253015 0)
(0.695619 -0.00244797 0)
(0.699193 -0.00236502 0)
(0.702646 -0.00228143 0)
(0.705978 -0.00219709 0)
(0.709187 -0.00211175 0)
(0.712272 -0.00202547 0)
(0.715231 -0.00193845 0)
(0.718063 -0.00185071 0)
(0.720766 -0.00176211 0)
(0.72334 -0.00167271 0)
(0.725782 -0.00158248 0)
(0.728091 -0.00149146 0)
(0.730267 -0.00139968 0)
(0.732307 -0.00130715 0)
(0.734211 -0.00121389 0)
(0.735976 -0.00111978 0)
(0.737602 -0.00102478 0)
(0.739087 -0.000929274 0)
(0.740431 -0.00083323 0)
(0.74163 -0.000736197 0)
(0.742685 -0.000638091 0)
(0.743593 -0.000539244 0)
(0.744353 -0.000439954 0)
(0.744965 -0.0003401 0)
(0.745426 -0.000239665 0)
(0.745736 -0.000138675 0)
(0.745891 -4.2632e-05 0)
(0.745896 5.77386e-05 0)
(0.745737 0.000167969 0)
(0.745428 0.000271586 0)
(0.74496 0.000376702 0)
(0.744332 0.000482747 0)
(0.743545 0.000589314 0)
(0.742597 0.000696405 0)
(0.741486 0.0008041 0)
(0.740212 0.000912808 0)
(0.738773 0.00102217 0)
(0.737168 0.00113139 0)
(0.735397 0.00124084 0)
(0.733459 0.00135102 0)
(0.731352 0.00146156 0)
(0.729076 0.00157236 0)
(0.72663 0.00168378 0)
(0.724012 0.0017956 0)
(0.721224 0.00190742 0)
(0.718263 0.00201945 0)
(0.71513 0.0021317 0)
(0.711823 0.00224403 0)
(0.708343 0.00235641 0)
(0.704689 0.00246886 0)
(0.700862 0.00258122 0)
(0.69686 0.0026934 0)
(0.692684 0.00280531 0)
(0.688333 0.00291694 0)
(0.683809 0.00302835 0)
(0.67911 0.00313962 0)
(0.674238 0.00325051 0)
(0.669193 0.00336074 0)
(0.663975 0.00347025 0)
(0.658586 0.00357897 0)
(0.653026 0.00368698 0)
(0.647296 0.00379426 0)
(0.641398 0.00390057 0)
(0.635332 0.0040057 0)
(0.6291 0.00410962 0)
(0.622705 0.00421218 0)
(0.616147 0.00431323 0)
(0.609429 0.00441295 0)
(0.602552 0.00451117 0)
(0.59552 0.0046075 0)
(0.588335 0.00470181 0)
(0.580999 0.00479412 0)
(0.573516 0.00488434 0)
(0.565888 0.00497225 0)
(0.55812 0.00505762 0)
(0.550215 0.0051404 0)
(0.542177 0.0052205 0)
(0.53401 0.00529763 0)
(0.525718 0.00537162 0)
(0.517307 0.00544245 0)
(0.508782 0.00550989 0)
(0.500147 0.00557387 0)
(0.491408 0.00563418 0)
(0.482571 0.00569045 0)
(0.473642 0.00574262 0)
(0.464628 0.00579069 0)
(0.455534 0.00583443 0)
(0.446367 0.0058736 0)
(0.437135 0.00590795 0)
(0.427845 0.00593733 0)
(0.418506 0.00596188 0)
(0.409124 0.00598155 0)
(0.399707 0.00599588 0)
(0.390265 0.00600452 0)
(0.380806 0.00600735 0)
(0.371339 0.00600444 0)
(0.361874 0.0059958 0)
(0.352419 0.00598128 0)
(0.342985 0.00596057 0)
(0.333581 0.00593361 0)
(0.324217 0.00590039 0)
(0.314904 0.00586079 0)
(0.30565 0.0058148 0)
(0.296468 0.00576238 0)
(0.287367 0.00570345 0)
(0.278357 0.00563794 0)
(0.26945 0.00556586 0)
(0.260655 0.00548736 0)
(0.251983 0.00540246 0)
(0.243446 0.00531109 0)
(0.235052 0.00521339 0)
(0.226813 0.00510959 0)
(0.218738 0.00499975 0)
(0.210838 0.00488389 0)
(0.203122 0.00476215 0)
(0.195599 0.0046349 0)
(0.18828 0.00450238 0)
(0.181171 0.00436473 0)
(0.174283 0.00422227 0)
(0.167622 0.00407513 0)
(0.161196 0.00392369 0)
(0.155013 0.00376815 0)
(0.149079 0.00360881 0)
(0.1434 0.00344597 0)
(0.137982 0.00328032 0)
(0.13283 0.00311205 0)
(0.127948 0.00294119 0)
(0.123341 0.00276837 0)
(0.119012 0.00259402 0)
(0.114963 0.00241861 0)
(0.111197 0.00224254 0)
(0.107715 0.00206589 0)
(0.104519 0.001889 0)
(0.101609 0.00171251 0)
(0.0989845 0.00153682 0)
(0.0966453 0.00136186 0)
(0.0945899 0.00118754 0)
(0.0928171 0.00101427 0)
(0.0913253 0.000842366 0)
(0.0901118 0.000672188 0)
(0.0891738 0.000503928 0)
(0.0885079 0.000337758 0)
(0.0881108 0.000174208 0)
(0.0879781 1.48735e-05 0)
(0.0881064 -0.000144481 0)
(0.0884892 -0.000299514 0)
(0.0891227 -0.00045007 0)
(0.0900018 -0.000597443 0)
(0.0911202 -0.000741263 0)
(0.0924725 -0.000881432 0)
(0.0940528 -0.00101813 0)
(0.0958556 -0.00115101 0)
(0.0978747 -0.00128009 0)
(0.100104 -0.001405 0)
(0.102536 -0.00152599 0)
(0.105165 -0.00164217 0)
(0.107983 -0.0017549 0)
(0.110988 -0.00186168 0)
(0.114167 -0.00196301 0)
(0.117509 -0.00205909 0)
(0.121011 -0.00215436 0)
(0.12466 -0.00224489 0)
(0.128452 -0.00233592 0)
(0.132397 -0.00240978 0)
(0.13647 -0.00248572 0)
(0.140666 -0.00255468 0)
(0.144986 -0.00262086 0)
(0.149404 -0.00268109 0)
(0.153921 -0.00273519 0)
(0.158532 -0.00278815 0)
(0.163218 -0.00283713 0)
(0.167982 -0.0028729 0)
(0.172822 -0.00290691 0)
(0.177714 -0.00293664 0)
(0.182654 -0.002962 0)
(0.187624 -0.00298298 0)
(0.19263 -0.00299285 0)
(0.197672 -0.00300433 0)
(0.202718 -0.00301219 0)
(0.207773 -0.00300675 0)
(0.212833 -0.00300451 0)
(0.217879 -0.00299701 0)
(0.222912 -0.00298347 0)
(0.227922 -0.00296433 0)
(0.232901 -0.00293994 0)
(0.237838 -0.00291219 0)
(0.24273 -0.00288283 0)
(0.247572 -0.00284883 0)
(0.252357 -0.0028106 0)
(0.257076 -0.00276607 0)
(0.26172 -0.00271706 0)
(0.266282 -0.00266595 0)
(0.270759 -0.00261202 0)
(0.275146 -0.00255212 0)
(0.279429 -0.00248523 0)
(0.283596 -0.00241456 0)
(0.287645 -0.00234651 0)
(0.291581 -0.00227487 0)
(0.2954 -0.00219713 0)
(0.29909 -0.00211565 0)
(0.302636 -0.00203018 0)
(0.306034 -0.00194256 0)
(0.309283 -0.00185277 0)
(0.312383 -0.00175904 0)
(0.315329 -0.00166238 0)
(0.318112 -0.00156254 0)
(0.320717 -0.00146057 0)
(0.323144 -0.00135758 0)
(0.325398 -0.00125328 0)
(0.327481 -0.00114761 0)
(0.329383 -0.00103984 0)
(0.3311 -0.000929558 0)
(0.332626 -0.000818043 0)
(0.333959 -0.000705118 0)
(0.3351 -0.00059285 0)
(0.336055 -0.000482408 0)
(0.336821 -0.00037165 0)
(0.337394 -0.000260488 0)
(0.337776 -0.00014944 0)
(0.337965 -3.98019e-05 0)
(0.337961 7.1044e-05 0)
(0.337758 0.000185552 0)
(0.337363 0.000301698 0)
(0.336762 0.000417054 0)
(0.335959 0.000531646 0)
(0.334957 0.000647257 0)
(0.333762 0.000761588 0)
(0.332372 0.000876261 0)
(0.330781 0.000994184 0)
(0.328978 0.00111586 0)
(0.326957 0.00123769 0)
(0.324726 0.00135662 0)
(0.322295 0.00147522 0)
(0.319659 0.00159298 0)
(0.316813 0.00171115 0)
(0.313755 0.00183055 0)
(0.310487 0.00195203 0)
(0.307007 0.00207499 0)
(0.303313 0.00219639 0)
(0.299404 0.00231598 0)
(0.295282 0.00243553 0)
(0.290946 0.00255445 0)
(0.2864 0.0026717 0)
(0.281653 0.00278754 0)
(0.276705 0.00290212 0)
(0.271549 0.00301489 0)
(0.266191 0.00312398 0)
(0.260642 0.00322923 0)
(0.25491 0.00333084 0)
(0.248999 0.00342966 0)
(0.242913 0.00352644 0)
(0.236655 0.00362051 0)
(0.230229 0.0037098 0)
(0.223643 0.00379268 0)
(0.216907 0.00387104 0)
(0.210032 0.00394618 0)
(0.203031 0.00401653 0)
(0.19591 0.00407942 0)
(0.188671 0.00413679 0)
(0.18132 0.00418981 0)
(0.173875 0.00423704 0)
(0.166354 0.00427704 0)
(0.158764 0.00431042 0)
(0.151117 0.00433801 0)
(0.14342 0.00435854 0)
(0.135683 0.00437255 0)
(0.127916 0.00437957 0)
(0.120134 0.00438104 0)
(0.112358 0.00437648 0)
(0.104599 0.00436384 0)
(0.0968639 0.00434131 0)
(0.0891616 0.00431195 0)
(0.0815068 0.00427863 0)
(0.0739162 0.00423915 0)
(0.0664018 0.00419079 0)
(0.0589749 0.00413495 0)
(0.0516495 0.00407119 0)
(0.0444405 0.00399933 0)
(0.0373634 0.00392056 0)
(0.0304298 0.00383717 0)
(0.0236434 0.00374926 0)
(0.0170211 0.0036518 0)
(0.0105702 0.00354572 0)
(0.00431254 0.00343138 0)
(-0.0017355 0.00330904 0)
(-0.00755936 0.00318446 0)
(-0.0131563 0.00305301 0)
(-0.01853 0.00291803 0)
(-0.0236537 0.00277871 0)
(-0.0285167 0.00262882 0)
(-0.03311 0.00247547 0)
(-0.0374275 0.0023169 0)
(-0.0414577 0.00215506 0)
(-0.0451894 0.00199235 0)
(-0.0486193 0.00182504 0)
(-0.05175 0.00165586 0)
(-0.0545757 0.0014799 0)
(-0.0570899 0.0013116 0)
(-0.0592908 0.00113924 0)
(-0.0611795 0.000963202 0)
(-0.0627757 0.000786598 0)
(-0.064042 0.000623362 0)
(-0.0649748 0.000446565 0)
(-0.0656109 0.000272452 0)
(-0.0659345 0.000104823 0)
(-0.0659488 -6.65364e-05 0)
(-0.0656694 -0.00023445 0)
(-0.0650842 -0.000389619 0)
(-0.0641981 -0.00054822 0)
(-0.063037 -0.000703399 0)
(-0.0615924 -0.000854457 0)
(-0.0598756 -0.00100228 0)
(-0.0578921 -0.0011412 0)
(-0.0556482 -0.00127777 0)
(-0.0531765 -0.00141015 0)
(-0.0504576 -0.0015261 0)
(-0.0475025 -0.0016471 0)
(-0.0443547 -0.0017625 0)
(-0.0409912 -0.00186335 0)
(-0.0374298 -0.00196428 0)
(-0.0337037 -0.00205803 0)
(-0.0298184 -0.00214804 0)
(-0.0257623 -0.0022209 0)
(-0.0215513 -0.00229407 0)
(-0.0172249 -0.00236015 0)
(-0.0127925 -0.00241722 0)
(-0.00826303 -0.00246436 0)
(-0.00364503 -0.00250382 0)
(0.00104829 -0.00253296 0)
(0.00578609 -0.00255532 0)
(0.010544 -0.00256553 0)
(0.0153205 -0.00256155 0)
(0.0201134 -0.00256281 0)
(0.024897 -0.00255645 0)
(0.0296464 -0.00254219 0)
(0.0343647 -0.00250686 0)
(0.0390389 -0.00247324 0)
(0.0436186 -0.00242784 0)
(0.0481086 -0.00237387 0)
(0.0525123 -0.00231562 0)
(0.0568006 -0.00225034 0)
(0.0609598 -0.00217934 0)
(0.0649723 -0.00209306 0)
(0.0688212 -0.00200584 0)
(0.0724959 -0.00191084 0)
(0.0760009 -0.0018107 0)
(0.0793276 -0.00170899 0)
(0.0824533 -0.00160239 0)
(0.0853884 -0.00148923 0)
(0.0881128 -0.00137517 0)
(0.0906058 -0.00125386 0)
(0.0928572 -0.0011274 0)
(0.0948741 -0.000995774 0)
(0.0966606 -0.00086663 0)
(0.0982038 -0.000738135 0)
(0.0995043 -0.000608744 0)
(0.100564 -0.00047855 0)
(0.10137 -0.00034659 0)
(0.101917 -0.000211113 0)
(0.102218 -7.88981e-05 0)
(0.102269 5.32894e-05 0)
(0.10207 0.000180032 0)
(0.10164 0.000299119 0)
(0.100988 0.000415499 0)
(0.100114 0.000533626 0)
(0.0990163 0.000644801 0)
(0.0977024 0.000753706 0)
(0.0961799 0.000861836 0)
(0.0944496 0.000962669 0)
(0.0925321 0.00105607 0)
(0.0904415 0.00114496 0)
(0.0881776 0.00122433 0)
(0.0857584 0.00129778 0)
(0.083206 0.00136885 0)
(0.0805255 0.0014315 0)
(0.0777274 0.00148798 0)
(0.0748186 0.00153533 0)
(0.0718186 0.00157546 0)
(0.0687424 0.00161038 0)
(0.0655879 0.00164048 0)
(0.0623792 0.00166643 0)
(0.0591352 0.001681 0)
(0.055862 0.00168894 0)
(0.0525694 0.00169483 0)
(0.049269 0.00169519 0)
(0.0459739 0.00168899 0)
(0.0426994 0.00167712 0)
(0.0394526 0.0016565 0)
(0.0362394 0.00163813 0)
(0.0330742 0.00161548 0)
(0.0299615 0.00158701 0)
(0.0269146 0.00155773 0)
(0.0239329 0.0015192 0)
(0.0210234 0.00148121 0)
(0.0182005 0.00143654 0)
(0.0154662 0.00139219 0)
(0.012828 0.00134133 0)
(0.0102852 0.00129296 0)
(0.00784694 0.00124199 0)
(0.00551654 0.00119077 0)
(0.00329335 0.00113567 0)
(0.00117488 0.00107887 0)
(-0.000840042 0.0010192 0)
(-0.00273225 0.000962642 0)
(-0.00449865 0.000907598 0)
(-0.00616243 0.000843296 0)
(-0.00770701 0.000786989 0)
(-0.00912874 0.000724831 0)
(-0.0104406 0.00066494 0)
(-0.0116222 0.000608839 0)
(-0.01269 0.000550333 0)
(-0.0136559 0.000491712 0)
(-0.0145083 0.000429749 0)
(-0.0152425 0.000370767 0)
(-0.0158545 0.000316335 0)
(-0.0163671 0.0002638 0)
(-0.0167769 0.000211152 0)
(-0.0170795 0.000161811 0)
(-0.0172867 0.000109521 0)
(-0.0173957 6.27167e-05 0)
(-0.0174084 1.87718e-05 0)
(-0.0173432 -2.89124e-05 0)
(-0.01718 -7.23631e-05 0)
(-0.0169246 -0.000124139 0)
(-0.0165838 -0.000163414 0)
(-0.0161473 -0.000206774 0)
(-0.0156316 -0.000253078 0)
(-0.0150261 -0.000301575 0)
(-0.0143324 -0.000350287 0)
(-0.0135521 -0.000395028 0)
(-0.012695 -0.000445748 0)
(-0.0117513 -0.000487168 0)
(-0.0107316 -0.000534415 0)
(-0.00964697 -0.000579338 0)
(-0.00847915 -0.000620377 0)
(-0.00724738 -0.000667319 0)
(-0.00596766 -0.000710615 0)
(-0.00462513 -0.000747059 0)
(-0.00322373 -0.000776767 0)
(-0.00178131 -0.000802932 0)
(-0.000302964 -0.000818766 0)
(0.00119465 -0.000823927 0)
(0.00270139 -0.000828568 0)
(0.00420111 -0.000813521 0)
(0.00569469 -0.000792749 0)
(0.00718139 -0.000764745 0)
(0.00864337 -0.000737271 0)
(0.0100835 -0.000717638 0)
(0.011495 -0.000703339 0)
(0.0128691 -0.000678921 0)
(0.0142086 -0.000651406 0)
(0.0154973 -0.000623342 0)
(0.0167328 -0.000581526 0)
(0.0179119 -0.00054641 0)
(0.019031 -0.000508676 0)
(0.0201054 -0.000466193 0)
(0.0211218 -0.000424364 0)
(0.022064 -0.000375702 0)
(0.02294 -0.000328566 0)
(0.0237372 -0.000284045 0)
(0.0244385 -0.000238918 0)
(0.0250341 -0.000184605 0)
(0.0255236 -0.000138106 0)
(0.0259326 -9.44623e-05 0)
(0.0262688 -4.78093e-05 0)
(0.0265262 -2.97544e-06 0)
(0.0266937 4.24376e-05 0)
(0.0267659 8.758e-05 0)
(0.0267385 0.000125387 0)
(0.0266087 0.000161813 0)
(0.0263939 0.000212472 0)
(0.0260896 0.000256987 0)
(0.0256924 0.000294557 0)
(0.0252227 0.000332924 0)
(0.0246699 0.000373238 0)
(0.0240295 0.000408474 0)
(0.0233108 0.000444619 0)
(0.022501 0.000481578 0)
(0.0215962 0.00052577 0)
(0.0206122 0.000577182 0)
(0.0195319 0.000648584 0)
(0.0183455 0.000765045 0)
(0.0169745 0.000907968 0)
(0.0153715 0.00118847 0)
(0.0136904 0.00130429 0)
(0.0114163 0.000995077 0)
(0.00875193 3.60704e-05 0)
(0.00925137 -0.00146964 0)
(0.0112885 -0.000731893 0)
(0.0104013 0.000608526 0)
(0.00867366 0.00132595 0)
(0.00562789 0.000471596 0)
(0.00629007 -0.00151834 0)
(0.00838444 -0.000745571 0)
(0.00714837 0.000534483 0)
(0.00438316 0.00120394 0)
(0.00220745 0.00144371 0)
(0.00023523 0.00117092 0)
(-0.00157336 0.00100689 0)
(-0.00321 0.00087338 0)
(-0.00475552 0.000792424 0)
(-0.00620631 0.000747043 0)
(-0.00759409 0.000717131 0)
(-0.00893151 0.000700461 0)
(-0.0102326 0.000686618 0)
(-0.0115097 0.000673617 0)
(-0.0127357 0.000657844 0)
(-0.0139127 0.00063448 0)
(-0.0150414 0.000608619 0)
(-0.016091 0.000576626 0)
(-0.0170819 0.00054971 0)
(-0.0180156 0.000514798 0)
(-0.0188567 0.000485474 0)
(-0.0196048 0.000448973 0)
(-0.0202584 0.000399913 0)
(-0.0208168 0.000340782 0)
(-0.0212859 0.000288461 0)
(-0.021647 0.000237668 0)
(-0.0219001 0.000185186 0)
(-0.0220374 0.000129398 0)
(-0.0220556 7.46195e-05 0)
(-0.0219753 1.55275e-05 0)
(-0.0218034 -4.55318e-05 0)
(-0.0215164 -0.000112196 0)
(-0.0211147 -0.000179217 0)
(-0.0205955 -0.000250436 0)
(-0.0199632 -0.000309724 0)
(-0.0192353 -0.000360154 0)
(-0.0184291 -0.000404614 0)
(-0.0175429 -0.000454375 0)
(-0.0165488 -0.000508361 0)
(-0.0154436 -0.000553056 0)
(-0.0142515 -0.000592208 0)
(-0.01299 -0.000638463 0)
(-0.0116655 -0.000688088 0)
(-0.0102815 -0.000732079 0)
(-0.00885005 -0.000765337 0)
(-0.00737846 -0.000774295 0)
(-0.00587996 -0.000775248 0)
(-0.0043767 -0.000770358 0)
(-0.00288091 -0.000757678 0)
(-0.00139653 -0.000736775 0)
(7.43629e-05 -0.000700518 0)
(0.00147361 -0.000647401 0)
(0.00276761 -0.000605103 0)
(0.00403004 -0.000583246 0)
(0.00525788 -0.000550712 0)
(0.00641445 -0.000506606 0)
(0.0075127 -0.000461343 0)
(0.0085268 -0.000425343 0)
(0.00944633 -0.000375462 0)
(0.0102858 -0.000332314 0)
(0.0110275 -0.000284941 0)
(0.0116704 -0.000242021 0)
(0.0122222 -0.00020117 0)
(0.0126841 -0.000153607 0)
(0.0130391 -0.000100651 0)
(0.013259 -4.13379e-05 0)
(0.0133554 1.50526e-05 0)
(0.0133099 7.33747e-05 0)
(0.0131544 0.000129787 0)
(0.0129129 0.000169406 0)
(0.0125522 0.000225779 0)
(0.0120629 0.000296165 0)
(0.0114288 0.000364492 0)
(0.0105955 0.000446202 0)
(0.00956544 0.000510366 0)
(0.00843164 0.000559664 0)
(0.00722433 0.000607485 0)
(0.0059056 0.000676744 0)
(0.00443421 0.000736686 0)
(0.00280208 0.000813483 0)
(0.00100293 0.000869545 0)
(-0.000932149 0.000926487 0)
(-0.00296387 0.000979597 0)
(-0.00509685 0.00102407 0)
(-0.00734695 0.00107169 0)
(-0.00972969 0.0011251 0)
(-0.0122328 0.00117237 0)
(-0.0148381 0.00121874 0)
(-0.0175334 0.00125227 0)
(-0.0202939 0.00127808 0)
(-0.0231243 0.00130799 0)
(-0.0260439 0.00133492 0)
(-0.0290466 0.00136095 0)
(-0.0321267 0.00139021 0)
(-0.0352679 0.00141438 0)
(-0.0384402 0.00143148 0)
(-0.0416317 0.00142397 0)
(-0.0448538 0.00142969 0)
(-0.0480907 0.00142872 0)
(-0.0513084 0.00142141 0)
(-0.0544937 0.00142165 0)
(-0.0576728 0.00141288 0)
(-0.0608437 0.00139592 0)
(-0.0639663 0.001377 0)
(-0.0670326 0.00133675 0)
(-0.0699866 0.00127476 0)
(-0.0727809 0.00121352 0)
(-0.0754302 0.00115805 0)
(-0.0779505 0.00111242 0)
(-0.0803486 0.0010426 0)
(-0.0825917 0.000958514 0)
(-0.084611 0.000852471 0)
(-0.0863771 0.000740458 0)
(-0.0879015 0.00063709 0)
(-0.0891888 0.000529637 0)
(-0.0902275 0.000411015 0)
(-0.0909923 0.000294541 0)
(-0.0914819 0.000166351 0)
(-0.0916947 2.4213e-05 0)
(-0.0915403 -0.000132035 0)
(-0.0909991 -0.00028199 0)
(-0.0901578 -0.000426405 0)
(-0.0890271 -0.000564322 0)
(-0.0875743 -0.000710765 0)
(-0.085775 -0.000854296 0)
(-0.0836363 -0.00100081 0)
(-0.0811685 -0.00115022 0)
(-0.0783866 -0.00128488 0)
(-0.0753001 -0.001415 0)
(-0.0719414 -0.00153601 0)
(-0.0683019 -0.00166772 0)
(-0.0643495 -0.00179377 0)
(-0.0601186 -0.0019068 0)
(-0.0556329 -0.00200766 0)
(-0.0509271 -0.00209267 0)
(-0.0460751 -0.00216929 0)
(-0.0410517 -0.00222323 0)
(-0.035865 -0.00228996 0)
(-0.0305493 -0.00234775 0)
(-0.0250936 -0.00238925 0)
(-0.0195625 -0.00241278 0)
(-0.0140255 -0.00242208 0)
(-0.00847244 -0.00240695 0)
(-0.00293031 -0.00239433 0)
(0.00253496 -0.00236142 0)
(0.00793447 -0.00231952 0)
(0.0132616 -0.00226968 0)
(0.0184646 -0.00220746 0)
(0.0234935 -0.00212492 0)
(0.0282979 -0.00203131 0)
(0.03285 -0.00192005 0)
(0.0371631 -0.00179363 0)
(0.0411789 -0.00166248 0)
(0.0448682 -0.00151646 0)
(0.0482559 -0.00137373 0)
(0.0512815 -0.00121855 0)
(0.0538996 -0.0010425 0)
(0.0560942 -0.000855483 0)
(0.0578407 -0.00066103 0)
(0.0591441 -0.000459957 0)
(0.0599848 -0.000249818 0)
(0.0603381 -2.45725e-05 0)
(0.0601704 0.000174076 0)
(0.0594892 0.000394689 0)
(0.0583128 0.00062192 0)
(0.0566147 0.000851581 0)
(0.0543925 0.00109184 0)
(0.0515978 0.00130984 0)
(0.048255 0.00154558 0)
(0.0444044 0.0017652 0)
(0.0400404 0.00199464 0)
(0.0351534 0.00220253 0)
(0.0297788 0.00242331 0)
(0.0239133 0.00260987 0)
(0.0175803 0.00282097 0)
(0.0107954 0.00298795 0)
(0.00354064 0.00316884 0)
(-0.00409894 0.00333667 0)
(-0.0121134 0.00349164 0)
(-0.0204799 0.00363608 0)
(-0.0291721 0.00377416 0)
(-0.0381883 0.00389956 0)
(-0.0474953 0.00401178 0)
(-0.0570613 0.0041102 0)
(-0.0668521 0.00419355 0)
(-0.0768263 0.00426638 0)
(-0.086962 0.00433058 0)
(-0.097252 0.00438438 0)
(-0.107678 0.0044283 0)
(-0.118205 0.00446144 0)
(-0.128798 0.00448354 0)
(-0.139439 0.00449655 0)
(-0.150106 0.00449864 0)
(-0.160771 0.00448951 0)
(-0.171401 0.00446841 0)
(-0.181973 0.00443663 0)
(-0.192469 0.00439654 0)
(-0.20287 0.00434789 0)
(-0.213157 0.00429025 0)
(-0.223301 0.00422393 0)
(-0.23327 0.00414566 0)
(-0.243043 0.0040563 0)
(-0.252596 0.00395534 0)
(-0.261899 0.00384315 0)
(-0.270921 0.00372047 0)
(-0.279637 0.00358768 0)
(-0.28803 0.00344531 0)
(-0.296077 0.00329325 0)
(-0.303752 0.0031314 0)
(-0.311034 0.00296156 0)
(-0.317903 0.00278432 0)
(-0.324337 0.00260008 0)
(-0.330319 0.00240916 0)
(-0.335839 0.00221362 0)
(-0.340895 0.00201545 0)
(-0.34548 0.00181427 0)
(-0.34958 0.0016107 0)
(-0.353186 0.0014046 0)
(-0.356292 0.00119653 0)
(-0.3589 0.00099218 0)
(-0.361018 0.000792381 0)
(-0.362661 0.00059351 0)
(-0.363819 0.000394151 0)
(-0.364494 0.000194624 0)
(-0.364692 -4.02113e-06 0)
(-0.364415 -0.000190138 0)
(-0.36368 -0.000377767 0)
(-0.362484 -0.000564473 0)
(-0.360832 -0.00075062 0)
(-0.358729 -0.000934806 0)
(-0.356184 -0.00111437 0)
(-0.353204 -0.00128734 0)
(-0.349795 -0.00145748 0)
(-0.345971 -0.00162326 0)
(-0.341748 -0.0017836 0)
(-0.337149 -0.00193782 0)
(-0.332187 -0.0020813 0)
(-0.32687 -0.00222077 0)
(-0.321212 -0.00235588 0)
(-0.31523 -0.00248055 0)
(-0.308944 -0.00259983 0)
(-0.302385 -0.00270959 0)
(-0.295577 -0.00280336 0)
(-0.288534 -0.0028931 0)
(-0.281275 -0.00297162 0)
(-0.273826 -0.00304298 0)
(-0.266209 -0.00310317 0)
(-0.258443 -0.00315973 0)
(-0.250539 -0.003202 0)
(-0.242549 -0.00324199 0)
(-0.234497 -0.00326223 0)
(-0.226383 -0.00327429 0)
(-0.218244 -0.0032752 0)
(-0.210109 -0.00326257 0)
(-0.201997 -0.00324239 0)
(-0.193934 -0.00322131 0)
(-0.185956 -0.00318735 0)
(-0.178087 -0.00313108 0)
(-0.170349 -0.00307691 0)
(-0.162763 -0.00299858 0)
(-0.155353 -0.00292165 0)
(-0.148152 -0.00283349 0)
(-0.141187 -0.00272231 0)
(-0.134491 -0.00262286 0)
(-0.128082 -0.00248969 0)
(-0.121988 -0.00235608 0)
(-0.116231 -0.00221625 0)
(-0.110825 -0.00205943 0)
(-0.105825 -0.00190828 0)
(-0.101266 -0.00172417 0)
(-0.0971426 -0.00153554 0)
(-0.0934715 -0.00133754 0)
(-0.0902884 -0.00114209 0)
(-0.0875877 -0.00094133 0)
(-0.0854098 -0.000726757 0)
(-0.0837987 -0.000500682 0)
(-0.0827565 -0.000267253 0)
(-0.0823033 -2.58745e-05 0)
(-0.082459 0.000219765 0)
(-0.0832397 0.000470888 0)
(-0.0846639 0.000726538 0)
(-0.0867433 0.000985959 0)
(-0.0894856 0.00124825 0)
(-0.0928978 0.00151404 0)
(-0.0969875 0.0017809 0)
(-0.101759 0.00204604 0)
(-0.107215 0.00230923 0)
(-0.113354 0.00257133 0)
(-0.12017 0.00283101 0)
(-0.127655 0.00308649 0)
(-0.135797 0.00333668 0)
(-0.144582 0.00358035 0)
(-0.153996 0.00381689 0)
(-0.164019 0.00404579 0)
(-0.174625 0.0042662 0)
(-0.185785 0.00447611 0)
(-0.197472 0.00467412 0)
(-0.209657 0.00485933 0)
(-0.222309 0.0050314 0)
(-0.235394 0.00518999 0)
(-0.248876 0.00533442 0)
(-0.262719 0.00546431 0)
(-0.276882 0.00557905 0)
(-0.291327 0.00567741 0)
(-0.306014 0.00576018 0)
(-0.320903 0.00582795 0)
(-0.335953 0.00588098 0)
(-0.351126 0.00591872 0)
(-0.366384 0.00594092 0)
(-0.381691 0.00594803 0)
(-0.397008 0.00594137 0)
(-0.412299 0.00592121 0)
(-0.427527 0.00588742 0)
(-0.442657 0.00584037 0)
(-0.457657 0.00578083 0)
(-0.472496 0.00570948 0)
(-0.487142 0.00562654 0)
(-0.501568 0.00553317 0)
(-0.515747 0.00543058 0)
(-0.529656 0.00531897 0)
(-0.54327 0.00519798 0)
(-0.556564 0.00506826 0)
(-0.569518 0.00493068 0)
(-0.582112 0.00478565 0)
(-0.594329 0.00463418 0)
(-0.606152 0.00447711 0)
(-0.617564 0.00431465 0)
(-0.628549 0.0041469 0)
(-0.639096 0.0039752 0)
(-0.649198 0.00379973 0)
(-0.658843 0.00361982 0)
(-0.668021 0.00343665 0)
(-0.676723 0.00325185 0)
(-0.684942 0.00306455 0)
(-0.692672 0.00287455 0)
(-0.699906 0.00268289 0)
(-0.706642 0.00249002 0)
(-0.712876 0.00229624 0)
(-0.718603 0.0021015 0)
(-0.723821 0.00190609 0)
(-0.728531 0.00171104 0)
(-0.732734 0.00151691 0)
(-0.736427 0.00132195 0)
(-0.73961 0.00112671 0)
(-0.742283 0.000933008 0)
(-0.74445 0.000741365 0)
(-0.746112 0.000550446 0)
(-0.747273 0.00035954 0)
(-0.747932 0.000173716 0)
(-0.748099 -3.12095e-05 0)
(-0.747764 -0.000202515 0)
(-0.746943 -0.000386755 0)
(-0.745631 -0.000569264 0)
(-0.743833 -0.000750295 0)
(-0.741558 -0.000929259 0)
(-0.738813 -0.00110598 0)
(-0.735602 -0.00128057 0)
(-0.731927 -0.0014531 0)
(-0.727792 -0.00162376 0)
(-0.723202 -0.00179294 0)
(-0.718164 -0.00195991 0)
(-0.712686 -0.00212312 0)
(-0.70677 -0.00228316 0)
(-0.700423 -0.00244162 0)
(-0.693654 -0.00259841 0)
(-0.686468 -0.00275254 0)
(-0.678868 -0.00290384 0)
(-0.670861 -0.00305268 0)
(-0.662454 -0.00319831 0)
(-0.653655 -0.00334127 0)
(-0.644468 -0.00348374 0)
(-0.6349 -0.00362246 0)
(-0.624957 -0.00375674 0)
(-0.614649 -0.00388863 0)
(-0.603982 -0.00401953 0)
(-0.592961 -0.00414734 0)
(-0.581592 -0.00427189 0)
(-0.569883 -0.00439345 0)
(-0.557844 -0.00451214 0)
(-0.545481 -0.00462787 0)
(-0.532801 -0.00474049 0)
(-0.51981 -0.00485052 0)
(-0.506517 -0.00495739 0)
(-0.492928 -0.00506069 0)
(-0.479056 -0.00516077 0)
(-0.464906 -0.00525882 0)
(-0.450483 -0.00535369 0)
(-0.435796 -0.0054448 0)
(-0.420859 -0.00553241 0)
(-0.405676 -0.005617 0)
(-0.390255 -0.00569834 0)
(-0.374606 -0.00577629 0)
(-0.358738 -0.00585098 0)
(-0.342658 -0.00592266 0)
(-0.326376 -0.00599095 0)
(-0.309898 -0.00605569 0)
(-0.293236 -0.00611632 0)
(-0.276401 -0.00617276 0)
(-0.259402 -0.0062263 0)
(-0.242245 -0.00627662 0)
(-0.224941 -0.00632325 0)
(-0.207501 -0.00636572 0)
(-0.189935 -0.00640403 0)
(-0.172252 -0.00643919 0)
(-0.154462 -0.0064707 0)
(-0.136582 -0.00649289 0)
(-0.118618 -0.00649424 0)
(-0.100553 -0.00647851 0)
(-0.0829108 -0.00656373 0)
(-0.0647692 -0.00676761 0)
(-0.0450851 -0.00658114 0)
(-0.0276277 -0.00646649 0)
(-0.00911325 -0.00664943 0)
(0.0047162 -0.0192312 0)
(0.0137535 -0.0191145 0)
(0.0224775 -0.0191283 0)
(0.0312662 -0.0194429 0)
(0.0401264 -0.0193955 0)
(0.0490899 -0.0193145 0)
(0.0580706 -0.0193112 0)
(0.0670409 -0.0193013 0)
(0.0759985 -0.0192872 0)
(0.0849471 -0.0192637 0)
(0.0938918 -0.0192313 0)
(0.102834 -0.0192001 0)
(0.111767 -0.0191671 0)
(0.120688 -0.0191311 0)
(0.129598 -0.0190886 0)
(0.138495 -0.0190436 0)
(0.147378 -0.0189987 0)
(0.156245 -0.0189514 0)
(0.165096 -0.0189017 0)
(0.173928 -0.01885 0)
(0.182743 -0.0187954 0)
(0.191537 -0.0187388 0)
(0.200309 -0.0186795 0)
(0.209059 -0.0186176 0)
(0.217785 -0.0185536 0)
(0.226487 -0.0184867 0)
(0.235163 -0.0184174 0)
(0.243811 -0.0183455 0)
(0.252431 -0.0182715 0)
(0.261021 -0.0181945 0)
(0.26958 -0.0181146 0)
(0.278107 -0.0180323 0)
(0.286599 -0.0179468 0)
(0.295057 -0.0178593 0)
(0.303478 -0.0177682 0)
(0.311861 -0.017675 0)
(0.320206 -0.0175793 0)
(0.32851 -0.0174805 0)
(0.336772 -0.0173789 0)
(0.344991 -0.0172748 0)
(0.353166 -0.0171681 0)
(0.361295 -0.0170586 0)
(0.369377 -0.0169465 0)
(0.377411 -0.0168316 0)
(0.385396 -0.0167142 0)
(0.393327 -0.016594 0)
(0.401207 -0.0164713 0)
(0.409036 -0.016346 0)
(0.416808 -0.0162177 0)
(0.424524 -0.0160873 0)
(0.432182 -0.0159541 0)
(0.439781 -0.0158181 0)
(0.44732 -0.0156799 0)
(0.454797 -0.0155388 0)
(0.462212 -0.0153953 0)
(0.469562 -0.0152493 0)
(0.476847 -0.0151006 0)
(0.484066 -0.0149495 0)
(0.491215 -0.0147957 0)
(0.498295 -0.0146393 0)
(0.505305 -0.0144805 0)
(0.512242 -0.0143192 0)
(0.519106 -0.0141553 0)
(0.525895 -0.0139889 0)
(0.532609 -0.01382 0)
(0.539244 -0.0136485 0)
(0.545801 -0.0134744 0)
(0.552278 -0.0132977 0)
(0.558674 -0.0131188 0)
(0.564987 -0.0129374 0)
(0.571215 -0.0127532 0)
(0.577358 -0.0125671 0)
(0.583416 -0.012378 0)
(0.589385 -0.012187 0)
(0.595265 -0.0119933 0)
(0.601054 -0.0117969 0)
(0.60675 -0.0115979 0)
(0.612354 -0.0113963 0)
(0.617864 -0.011193 0)
(0.623278 -0.0109876 0)
(0.628594 -0.0107788 0)
(0.633812 -0.0105672 0)
(0.63893 -0.010354 0)
(0.643946 -0.0101383 0)
(0.648862 -0.00992003 0)
(0.653671 -0.00969945 0)
(0.658376 -0.00947634 0)
(0.662976 -0.00925041 0)
(0.667465 -0.00902273 0)
(0.671845 -0.00879229 0)
(0.676118 -0.00855962 0)
(0.680279 -0.00832359 0)
(0.684324 -0.00808587 0)
(0.688254 -0.00784578 0)
(0.692069 -0.00760292 0)
(0.695767 -0.00735796 0)
(0.699346 -0.00711029 0)
(0.702804 -0.00686021 0)
(0.706141 -0.00660805 0)
(0.709357 -0.00635359 0)
(0.712448 -0.00609611 0)
(0.715412 -0.00583646 0)
(0.718249 -0.00557374 0)
(0.720959 -0.00530996 0)
(0.723538 -0.00504213 0)
(0.725986 -0.00477323 0)
(0.728302 -0.00450123 0)
(0.730484 -0.00422717 0)
(0.73253 -0.00395066 0)
(0.73444 -0.00367094 0)
(0.736212 -0.00339005 0)
(0.737845 -0.00310677 0)
(0.739336 -0.00282019 0)
(0.740684 -0.00253192 0)
(0.741892 -0.00224213 0)
(0.742954 -0.00194944 0)
(0.74387 -0.00165418 0)
(0.744635 -0.0013567 0)
(0.745253 -0.00105755 0)
(0.745722 -0.000755622 0)
(0.746037 -0.000452628 0)
(0.746202 -0.000147142 0)
(0.746211 0.000158723 0)
(0.746066 0.000468488 0)
(0.745765 0.000778783 0)
(0.745304 0.00109253 0)
(0.744684 0.00140958 0)
(0.743903 0.00172751 0)
(0.742962 0.00204788 0)
(0.741857 0.00237047 0)
(0.740591 0.00269312 0)
(0.739161 0.00301892 0)
(0.73756 0.00334539 0)
(0.735792 0.00367264 0)
(0.733862 0.00400328 0)
(0.731762 0.00433412 0)
(0.729491 0.0046661 0)
(0.727051 0.00499854 0)
(0.724441 0.00533256 0)
(0.721656 0.00566782 0)
(0.7187 0.00600302 0)
(0.715573 0.00633902 0)
(0.71227 0.00667512 0)
(0.708795 0.00701215 0)
(0.705145 0.00734751 0)
(0.701321 0.00768378 0)
(0.697323 0.00802074 0)