/*--------------------------------*- C++ -*----------------------------------*\
| =========                 |                                                 |
| \\      /  F ield         | OpenFOAM: The Open Source CFD Toolbox           |
|  \\    /   O peration     | Version:  2412                                  |
|   \\  /    A nd           | Website:  www.openfoam.com                      |
|    \\/     M anipulation  |                                                 |
\*---------------------------------------------------------------------------*/
FoamFile
{
    version     2.0;
    format      ascii;
    arch        "LSB;label=32;scalar=64";
    class       volScalarField;
    location    "8.15";
    object      p;
}
// * * * * * * * * * * * * * * * * * * * * * * * * * * * * * * * * * * * * * //

dimensions      [1 -1 -2 0 0 0 0];

internalField   nonuniform List<scalar> 
6400
(
8166.76
8166.77
8166.74
8166.67
8166.56
8166.41
8166.22
8166.02
8165.79
8165.53
8165.26
8164.97
8164.66
8164.33
8163.99
8163.64
8163.27
8162.9
8162.52
8162.14
8161.75
8161.37
8160.99
8160.62
8160.25
8159.9
8159.56
8159.23
8158.92
8158.64
8158.37
8158.13
8157.91
8157.72
8157.56
8157.42
8157.31
8157.22
8157.17
8157.14
8157.14
8157.17
8157.22
8157.3
8157.41
8157.55
8157.71
8157.9
8158.12
8158.36
8158.62
8158.91
8159.21
8159.54
8159.88
8160.23
8160.6
8160.97
8161.35
8161.74
8162.13
8162.51
8162.89
8163.27
8163.64
8163.99
8164.34
8164.67
8164.98
8165.28
8165.56
8165.82
8166.05
8166.27
8166.45
8166.61
8166.72
8166.8
8166.83
8166.82
7749.83
7749.84
7749.81
7749.74
7749.63
7749.49
7749.31
7749.11
7748.88
7748.63
7748.35
7748.06
7747.75
7747.42
7747.07
7746.72
7746.35
7745.98
7745.6
7745.22
7744.83
7744.45
7744.06
7743.69
7743.32
7742.97
7742.63
7742.3
7741.99
7741.71
7741.44
7741.2
7740.98
7740.78
7740.62
7740.48
7740.36
7740.28
7740.22
7740.19
7740.19
7740.22
7740.28
7740.36
7740.47
7740.61
7740.78
7740.97
7741.19
7741.43
7741.69
7741.98
7742.29
7742.61
7742.95
7743.31
7743.68
7744.05
7744.43
7744.82
7745.21
7745.59
7745.98
7746.36
7746.72
7747.08
7747.43
7747.76
7748.08
7748.37
7748.65
7748.91
7749.14
7749.35
7749.53
7749.68
7749.79
7749.87
7749.89
7749.89
7332.94
7332.95
7332.92
7332.85
7332.74
7332.6
7332.43
7332.22
7331.99
7331.74
7331.46
7331.17
7330.85
7330.52
7330.17
7329.81
7329.44
7329.07
7328.68
7328.29
7327.91
7327.52
7327.13
7326.76
7326.39
7326.03
7325.68
7325.36
7325.04
7324.75
7324.48
7324.24
7324.02
7323.82
7323.65
7323.51
7323.39
7323.31
7323.25
7323.22
7323.22
7323.25
7323.3
7323.39
7323.5
7323.64
7323.81
7324.01
7324.23
7324.47
7324.74
7325.03
7325.34
7325.67
7326.02
7326.37
7326.74
7327.12
7327.51
7327.9
7328.29
7328.68
7329.07
7329.45
7329.82
7330.19
7330.54
7330.87
7331.19
7331.49
7331.77
7332.03
7332.26
7332.47
7332.65
7332.79
7332.9
7332.97
7333
7332.99
6916.1
6916.1
6916.07
6916
6915.89
6915.75
6915.57
6915.37
6915.14
6914.88
6914.6
6914.3
6913.98
6913.64
6913.29
6912.92
6912.55
6912.16
6911.77
6911.38
6910.98
6910.59
6910.2
6909.81
6909.44
6909.07
6908.72
6908.39
6908.07
6907.78
6907.5
6907.25
6907.03
6906.83
6906.65
6906.51
6906.39
6906.3
6906.24
6906.21
6906.21
6906.24
6906.3
6906.39
6906.5
6906.65
6906.82
6907.02
6907.24
6907.49
6907.76
6908.06
6908.37
6908.71
6909.06
6909.42
6909.8
6910.19
6910.58
6910.98
6911.37
6911.77
6912.17
6912.55
6912.93
6913.3
6913.66
6914
6914.32
6914.63
6914.91
6915.17
6915.41
6915.62
6915.79
6915.94
6916.05
6916.12
6916.15
6916.15
6499.3
6499.3
6499.26
6499.19
6499.08
6498.93
6498.75
6498.55
6498.31
6498.05
6497.76
6497.46
6497.13
6496.78
6496.42
6496.05
6495.66
6495.27
6494.86
6494.46
6494.06
6493.65
6493.25
6492.86
6492.47
6492.1
6491.74
6491.4
6491.08
6490.77
6490.49
6490.24
6490.01
6489.8
6489.62
6489.47
6489.35
6489.26
6489.2
6489.17
6489.17
6489.2
6489.26
6489.35
6489.47
6489.61
6489.79
6489.99
6490.22
6490.48
6490.76
6491.06
6491.39
6491.73
6492.09
6492.46
6492.85
6493.24
6493.64
6494.05
6494.46
6494.86
6495.27
6495.67
6496.05
6496.43
6496.8
6497.15
6497.48
6497.79
6498.08
6498.35
6498.59
6498.8
6498.98
6499.13
6499.24
6499.32
6499.36
6499.36
6082.54
6082.53
6082.49
6082.41
6082.3
6082.15
6081.96
6081.75
6081.51
6081.24
6080.95
6080.63
6080.29
6079.94
6079.57
6079.18
6078.78
6078.38
6077.96
6077.55
6077.13
6076.71
6076.3
6075.9
6075.5
6075.12
6074.75
6074.4
6074.06
6073.75
6073.46
6073.2
6072.96
6072.75
6072.56
6072.41
6072.29
6072.19
6072.13
6072.1
6072.1
6072.13
6072.19
6072.28
6072.4
6072.55
6072.74
6072.94
6073.18
6073.44
6073.73
6074.04
6074.38
6074.73
6075.1
6075.48
6075.88
6076.29
6076.7
6077.12
6077.54
6077.96
6078.38
6078.79
6079.19
6079.58
6079.95
6080.31
6080.66
6080.98
6081.27
6081.55
6081.79
6082.01
6082.2
6082.35
6082.47
6082.55
6082.6
6082.61
5665.83
5665.81
5665.76
5665.67
5665.55
5665.39
5665.2
5664.98
5664.73
5664.45
5664.15
5663.82
5663.48
5663.11
5662.72
5662.33
5661.91
5661.49
5661.07
5660.63
5660.2
5659.77
5659.35
5658.93
5658.52
5658.12
5657.74
5657.37
5657.03
5656.7
5656.41
5656.13
5655.88
5655.67
5655.48
5655.32
5655.19
5655.1
5655.03
5655
5655
5655.03
5655.09
5655.19
5655.31
5655.47
5655.65
5655.87
5656.11
5656.39
5656.68
5657.01
5657.35
5657.72
5658.1
5658.5
5658.91
5659.33
5659.76
5660.19
5660.63
5661.06
5661.49
5661.92
5662.33
5662.74
5663.13
5663.5
5663.85
5664.18
5664.49
5664.77
5665.03
5665.25
5665.45
5665.61
5665.73
5665.82
5665.87
5665.89
5249.14
5249.12
5249.06
5248.96
5248.83
5248.66
5248.47
5248.24
5247.98
5247.69
5247.38
5247.04
5246.67
5246.29
5245.89
5245.48
5245.05
5244.61
5244.17
5243.72
5243.27
5242.82
5242.38
5241.95
5241.52
5241.11
5240.71
5240.33
5239.97
5239.64
5239.33
5239.04
5238.79
5238.56
5238.36
5238.2
5238.07
5237.97
5237.9
5237.87
5237.87
5237.9
5237.97
5238.06
5238.19
5238.36
5238.55
5238.77
5239.03
5239.31
5239.62
5239.95
5240.31
5240.69
5241.09
5241.5
5241.93
5242.37
5242.81
5243.26
5243.71
5244.17
5244.62
5245.06
5245.49
5245.91
5246.32
5246.7
5247.07
5247.41
5247.73
5248.02
5248.29
5248.52
5248.72
5248.89
5249.03
5249.12
5249.18
5249.21
4832.5
4832.46
4832.39
4832.28
4832.14
4831.97
4831.76
4831.52
4831.25
4830.95
4830.62
4830.27
4829.89
4829.49
4829.08
4828.64
4828.2
4827.74
4827.28
4826.81
4826.34
4825.87
4825.41
4824.96
4824.51
4824.08
4823.67
4823.27
4822.9
4822.55
4822.22
4821.93
4821.66
4821.42
4821.22
4821.05
4820.92
4820.81
4820.75
4820.71
4820.71
4820.74
4820.81
4820.91
4821.05
4821.21
4821.41
4821.65
4821.91
4822.2
4822.53
4822.88
4823.25
4823.65
4824.06
4824.49
4824.94
4825.4
4825.86
4826.33
4826.81
4827.28
4827.75
4828.21
4828.66
4829.1
4829.52
4829.92
4830.31
4830.66
4831
4831.3
4831.57
4831.82
4832.03
4832.21
4832.35
4832.46
4832.53
4832.56
4415.89
4415.84
4415.75
4415.64
4415.48
4415.3
4415.08
4414.83
4414.55
4414.24
4413.89
4413.52
4413.13
4412.71
4412.27
4411.82
4411.35
4410.87
4410.39
4409.9
4409.41
4408.92
4408.43
4407.96
4407.49
4407.04
4406.61
4406.19
4405.8
4405.43
4405.09
4404.78
4404.5
4404.26
4404.05
4403.87
4403.73
4403.63
4403.56
4403.52
4403.52
4403.55
4403.62
4403.73
4403.87
4404.04
4404.25
4404.49
4404.76
4405.07
4405.41
4405.78
4406.17
4406.58
4407.02
4407.47
4407.94
4408.42
4408.91
4409.4
4409.9
4410.4
4410.89
4411.37
4411.84
4412.3
4412.74
4413.17
4413.57
4413.94
4414.29
4414.6
4414.89
4415.15
4415.37
4415.55
4415.71
4415.83
4415.91
4415.96
3999.31
3999.25
3999.15
3999.02
3998.86
3998.66
3998.43
3998.17
3997.88
3997.55
3997.19
3996.81
3996.39
3995.95
3995.49
3995.01
3994.52
3994.02
3993.51
3992.99
3992.47
3991.96
3991.45
3990.95
3990.46
3989.99
3989.53
3989.09
3988.68
3988.29
3987.94
3987.61
3987.32
3987.06
3986.84
3986.66
3986.51
3986.4
3986.33
3986.29
3986.29
3986.33
3986.4
3986.51
3986.65
3986.83
3987.05
3987.3
3987.59
3987.91
3988.27
3988.65
3989.06
3989.5
3989.96
3990.44
3990.93
3991.44
3991.95
3992.47
3992.99
3993.52
3994.03
3994.54
3995.04
3995.52
3995.99
3996.43
3996.85
3997.24
3997.61
3997.94
3998.24
3998.5
3998.74
3998.93
3999.1
3999.23
3999.33
3999.39
3582.78
3582.7
3582.58
3582.44
3582.26
3582.06
3581.82
3581.54
3581.24
3580.9
3580.52
3580.11
3579.67
3579.21
3578.72
3578.22
3577.7
3577.17
3576.63
3576.08
3575.54
3575
3574.46
3573.93
3573.41
3572.91
3572.43
3571.97
3571.53
3571.12
3570.75
3570.4
3570.09
3569.83
3569.6
3569.41
3569.26
3569.14
3569.07
3569.03
3569.03
3569.07
3569.14
3569.25
3569.4
3569.59
3569.81
3570.08
3570.38
3570.72
3571.09
3571.5
3571.94
3572.4
3572.88
3573.39
3573.91
3574.44
3574.99
3575.53
3576.09
3576.64
3577.19
3577.72
3578.25
3578.76
3579.25
3579.72
3580.16
3580.58
3580.96
3581.3
3581.62
3581.9
3582.14
3582.35
3582.53
3582.67
3582.79
3582.87
3166.29
3166.19
3166.05
3165.89
3165.7
3165.49
3165.24
3164.96
3164.64
3164.28
3163.88
3163.45
3162.99
3162.49
3161.98
3161.44
3160.89
3160.32
3159.75
3159.18
3158.6
3158.03
3157.46
3156.9
3156.35
3155.82
3155.31
3154.82
3154.35
3153.92
3153.52
3153.16
3152.83
3152.55
3152.31
3152.12
3151.96
3151.84
3151.77
3151.73
3151.73
3151.77
3151.85
3151.96
3152.11
3152.3
3152.54
3152.81
3153.13
3153.49
3153.88
3154.32
3154.78
3155.27
3155.79
3156.32
3156.87
3157.44
3158.01
3158.6
3159.18
3159.77
3160.35
3160.92
3161.48
3162.02
3162.54
3163.04
3163.5
3163.94
3164.34
3164.71
3165.03
3165.32
3165.58
3165.8
3165.99
3166.15
3166.29
3166.4
2749.84
2749.71
2749.54
2749.37
2749.17
2748.95
2748.7
2748.4
2748.07
2747.7
2747.28
2746.82
2746.33
2745.8
2745.25
2744.68
2744.09
2743.49
2742.88
2742.27
2741.66
2741.05
2740.44
2739.85
2739.27
2738.71
2738.16
2737.64
2737.15
2736.68
2736.26
2735.87
2735.53
2735.23
2734.98
2734.78
2734.62
2734.51
2734.43
2734.39
2734.39
2734.43
2734.51
2734.63
2734.78
2734.98
2735.22
2735.5
2735.84
2736.22
2736.64
2737.1
2737.6
2738.12
2738.67
2739.24
2739.82
2740.42
2741.03
2741.65
2742.28
2742.9
2743.52
2744.12
2744.72
2745.29
2745.85
2746.38
2746.88
2747.34
2747.76
2748.14
2748.48
2748.78
2749.05
2749.28
2749.48
2749.66
2749.83
2749.96
2333.42
2333.25
2333.06
2332.87
2332.67
2332.45
2332.19
2331.89
2331.55
2331.16
2330.72
2330.23
2329.7
2329.14
2328.54
2327.93
2327.3
2326.66
2326.02
2325.37
2324.72
2324.07
2323.42
2322.79
2322.17
2321.57
2320.99
2320.44
2319.91
2319.41
2318.95
2318.54
2318.17
2317.86
2317.61
2317.4
2317.24
2317.13
2317.05
2317.01
2317.01
2317.05
2317.13
2317.25
2317.41
2317.61
2317.85
2318.15
2318.5
2318.9
2319.36
2319.85
2320.38
2320.94
2321.53
2322.13
2322.75
2323.39
2324.04
2324.71
2325.37
2326.04
2326.7
2327.34
2327.98
2328.59
2329.19
2329.75
2330.28
2330.77
2331.22
2331.62
2331.98
2332.28
2332.55
2332.79
2333
2333.19
2333.39
2333.57
1917.03
1916.81
1916.59
1916.4
1916.2
1915.98
1915.72
1915.43
1915.08
1914.68
1914.21
1913.68
1913.11
1912.5
1911.86
1911.19
1910.52
1909.84
1909.16
1908.47
1907.78
1907.08
1906.38
1905.71
1905.05
1904.42
1903.8
1903.2
1902.63
1902.1
1901.61
1901.16
1900.77
1900.44
1900.18
1899.98
1899.82
1899.7
1899.62
1899.58
1899.59
1899.63
1899.71
1899.84
1900
1900.19
1900.44
1900.74
1901.11
1901.54
1902.03
1902.56
1903.14
1903.74
1904.37
1905.01
1905.67
1906.35
1907.05
1907.76
1908.47
1909.18
1909.89
1910.58
1911.25
1911.92
1912.56
1913.16
1913.73
1914.26
1914.73
1915.15
1915.51
1915.83
1916.1
1916.33
1916.54
1916.73
1916.96
1917.19
1500.62
1500.36
1500.11
1499.93
1499.75
1499.55
1499.3
1499.01
1498.66
1498.25
1497.75
1497.18
1496.55
1495.89
1495.19
1494.47
1493.75
1493.03
1492.31
1491.58
1490.83
1490.08
1489.33
1488.61
1487.92
1487.24
1486.58
1485.94
1485.32
1484.75
1484.21
1483.72
1483.29
1482.96
1482.7
1482.51
1482.36
1482.24
1482.16
1482.12
1482.12
1482.17
1482.26
1482.38
1482.54
1482.73
1482.96
1483.26
1483.65
1484.12
1484.65
1485.24
1485.86
1486.52
1487.19
1487.87
1488.57
1489.28
1490.03
1490.81
1491.58
1492.33
1493.08
1493.82
1494.55
1495.26
1495.95
1496.61
1497.23
1497.78
1498.28
1498.72
1499.1
1499.42
1499.68
1499.9
1500.08
1500.27
1500.53
1500.8
1084.2
1083.87
1083.6
1083.46
1083.33
1083.15
1082.91
1082.64
1082.32
1081.91
1081.37
1080.73
1080.04
1079.31
1078.55
1077.75
1076.96
1076.21
1075.45
1074.68
1073.89
1073.07
1072.26
1071.48
1070.75
1070.04
1069.34
1068.64
1067.97
1067.34
1066.75
1066.2
1065.72
1065.37
1065.16
1065
1064.87
1064.75
1064.67
1064.62
1064.63
1064.67
1064.77
1064.9
1065.06
1065.23
1065.41
1065.68
1066.1
1066.62
1067.21
1067.85
1068.54
1069.26
1069.99
1070.72
1071.44
1072.18
1072.99
1073.84
1074.68
1075.49
1076.29
1077.07
1077.84
1078.62
1079.38
1080.11
1080.78
1081.37
1081.89
1082.35
1082.74
1083.05
1083.3
1083.5
1083.64
1083.77
1084.04
1084.39
667.512
667.08
666.949
666.968
666.954
666.809
666.566
666.349
666.111
665.721
665.116
664.374
663.586
662.788
661.94
661.023
660.156
659.381
658.621
657.829
656.981
656.069
655.145
654.297
653.571
652.846
652.076
651.299
650.565
649.887
649.228
648.576
647.999
647.64
647.516
647.444
647.334
647.206
647.101
647.057
647.066
647.108
647.215
647.381
647.552
647.68
647.747
647.938
648.416
649.03
649.697
650.416
651.191
651.991
652.802
653.57
654.272
655.025
655.925
656.892
657.808
658.673
659.511
660.334
661.157
662.009
662.868
663.691
664.428
665.061
665.604
666.087
666.491
666.769
666.977
667.151
667.204
667.136
667.217
667.669
265.776
265.932
266.443
266.813
267.031
267.03
266.871
266.738
266.615
266.323
265.746
265.073
264.475
263.995
263.376
262.508
261.737
261.146
260.562
259.947
259.316
258.694
258.132
257.504
256.655
255.842
255.179
254.6
254.111
253.713
253.33
252.915
252.508
252.229
252.049
251.747
251.347
250.993
250.758
250.643
250.638
250.739
250.951
251.287
251.727
252.148
252.42
252.65
253.006
253.391
253.781
254.205
254.709
255.258
255.923
256.806
257.709
258.23
258.703
259.31
259.96
260.634
261.313
261.97
262.615
263.389
264.284
265.024
265.489
265.844
266.203
266.587
266.923
267.142
267.33
267.409
267.201
266.68
266.067
265.938
30.8907
31.5583
32.1838
32.5933
32.796
32.8886
32.9688
32.8568
32.658
32.4657
32.3566
32.3034
32.2675
32.193
32.0885
32.0389
31.8562
31.5864
31.3057
31.0232
30.7741
30.6078
30.4825
30.2118
29.8252
29.4299
29.1675
29.0014
28.8808
28.7416
28.6289
28.5656
28.47
28.2417
27.8093
27.3323
26.9528
26.6782
26.5129
26.4204
26.4066
26.4931
26.6455
26.8744
27.2184
27.6644
28.2446
28.6547
28.8456
28.957
29.0799
29.1411
29.2265
29.3571
29.5752
29.9326
30.35
30.7073
30.8057
30.8893
31.074
31.3063
31.5628
31.8121
32.0452
32.2828
32.4463
32.6011
32.6985
32.8081
32.9363
33.0368
33.1061
33.1802
33.2245
33.0434
32.7484
32.326
31.7243
31.0702
-10.273
-10.2904
-10.1712
-9.99004
-9.96652
-9.93801
-9.76353
-9.84536
-10.0297
-10.1423
-9.88664
-9.58379
-9.36743
-9.3725
-9.2793
-8.69868
-8.49839
-8.54205
-8.61473
-8.70384
-8.79691
-8.87241
-8.98763
-9.22674
-8.93749
-8.86871
-8.89037
-8.91957
-8.97034
-9.15735
-9.31908
-9.39684
-9.49625
-9.73366
-10.1741
-10.4253
-10.462
-10.4549
-10.4508
-10.4488
-10.4483
-10.449
-10.4497
-10.4504
-10.4486
-10.3454
-9.89432
-9.50683
-9.28526
-9.11046
-8.90187
-8.83484
-8.80877
-8.78115
-8.78534
-8.95877
-9.36579
-8.91878
-8.76835
-8.73264
-8.70819
-8.71362
-8.72313
-8.71819
-8.72769
-8.8701
-9.38545
-9.63428
-9.6028
-9.4988
-9.46256
-9.51345
-9.59496
-9.61372
-9.69523
-9.96345
-10.0765
-10.1174
-10.1334
-10.133
-10.7379
-10.7603
-10.7306
-10.6483
-10.5902
-10.5567
-10.5084
-10.5119
-10.5387
-10.5582
-10.5067
-10.3995
-10.2414
-10.1553
-10.0219
-9.80125
-9.74255
-9.79789
-9.84906
-9.9089
-9.9744
-10.0393
-10.1202
-10.211
-10.1403
-10.1614
-10.1919
-10.2138
-10.2475
-10.3505
-10.4361
-10.4893
-10.5675
-10.7173
-10.8921
-10.9488
-10.9472
-10.9391
-10.9364
-10.9354
-10.9353
-10.9356
-10.9362
-10.9403
-10.9487
-10.9323
-10.8072
-10.6065
-10.467
-10.3636
-10.2433
-10.1985
-10.1804
-10.1599
-10.1346
-10.1547
-10.2893
-10.1508
-10.0781
-10.0669
-10.069
-10.0763
-10.0857
-10.0913
-10.0931
-10.1311
-10.2834
-10.385
-10.4237
-10.4197
-10.4173
-10.4111
-10.408
-10.404
-10.4511
-10.5379
-10.588
-10.6088
-10.6148
-10.6132
-11.2701
-11.305
-11.2891
-11.2131
-11.1501
-11.124
-11.1413
-11.1664
-11.1566
-11.1384
-11.1622
-11.2126
-11.1896
-11.1068
-10.9292
-10.9048
-11.0167
-11.151
-11.2253
-11.2699
-11.3082
-11.3421
-11.3709
-11.3575
-11.424
-11.4598
-11.4656
-11.4642
-11.4638
-11.4632
-11.4638
-11.4659
-11.4668
-11.4639
-11.4561
-11.4513
-11.4465
-11.4392
-11.4347
-11.4324
-11.4316
-11.4319
-11.4324
-11.4327
-11.4325
-11.4319
-11.4423
-11.4536
-11.4582
-11.4599
-11.4683
-11.4799
-11.4947
-11.5027
-11.4904
-11.438
-11.3884
-11.4428
-11.4302
-11.4159
-11.3969
-11.3771
-11.3683
-11.3707
-11.3604
-11.3233
-11.2251
-11.1959
-11.2102
-11.2103
-11.1779
-11.1213
-11.0848
-11.0653
-11.0624
-11.0748
-11.1034
-11.1278
-11.1354
-11.1277
-11.7877
-11.8249
-11.8197
-11.7606
-11.7067
-11.6964
-11.7309
-11.7661
-11.7793
-11.767
-11.7776
-11.821
-11.8955
-11.9055
-11.7892
-11.7159
-11.7846
-11.8738
-11.916
-11.9341
-11.9422
-11.9454
-11.9492
-11.9536
-11.9544
-11.9558
-11.9567
-11.9556
-11.954
-11.9528
-11.9518
-11.9508
-11.9497
-11.9479
-11.9465
-11.9459
-11.9417
-11.9351
-11.9307
-11.9275
-11.9254
-11.9244
-11.9246
-11.9262
-11.9267
-11.9273
-11.9308
-11.9354
-11.9407
-11.9482
-11.9607
-11.9772
-11.9933
-12.0047
-12.0094
-12.0128
-12.01
-11.9966
-11.9791
-11.9484
-11.9188
-11.9068
-11.9017
-11.8976
-11.8942
-11.889
-11.869
-11.8267
-11.782
-11.7501
-11.7218
-11.6785
-11.6344
-11.6085
-11.6019
-11.6209
-11.6418
-11.6639
-11.6697
-11.653
-12.2801
-12.2994
-12.2999
-12.2766
-12.2522
-12.2571
-12.2726
-12.2914
-12.3133
-12.3409
-12.3795
-12.4099
-12.4534
-12.4743
-12.4405
-12.3866
-12.3835
-12.3977
-12.4137
-12.4265
-12.4341
-12.4381
-12.4409
-12.4431
-12.4446
-12.4456
-12.4471
-12.4473
-12.4467
-12.446
-12.4452
-12.4446
-12.4443
-12.4433
-12.4422
-12.4407
-12.4359
-12.4304
-12.4268
-12.4239
-12.4225
-12.4227
-12.4234
-12.4239
-12.4244
-12.4257
-12.4283
-12.4312
-12.4343
-12.4398
-12.4507
-12.4666
-12.4785
-12.4777
-12.4718
-12.4756
-12.4839
-12.4896
-12.4882
-12.4761
-12.4569
-12.4405
-12.4295
-12.4168
-12.4
-12.3812
-12.3608
-12.3295
-12.2918
-12.2603
-12.2389
-12.228
-12.2126
-12.1921
-12.1794
-12.1854
-12.1894
-12.1963
-12.1969
-12.1737
-12.7565
-12.7612
-12.7725
-12.7755
-12.7827
-12.7974
-12.8165
-12.8346
-12.8491
-12.8727
-12.9171
-12.9505
-12.9732
-13.0086
-13.0197
-12.9792
-12.9363
-12.9056
-12.9018
-12.9134
-12.9221
-12.9266
-12.9299
-12.9329
-12.9353
-12.937
-12.938
-12.938
-12.9374
-12.9365
-12.9355
-12.935
-12.9344
-12.9331
-12.9331
-12.9329
-12.9295
-12.9259
-12.9232
-12.9208
-12.9197
-12.9194
-12.9188
-12.9181
-12.9173
-12.9166
-12.9165
-12.918
-12.9204
-12.9245
-12.933
-12.9477
-12.9648
-12.975
-12.9792
-12.9838
-12.9858
-12.987
-12.9877
-12.9866
-12.9787
-12.9668
-12.9549
-12.9423
-12.9247
-12.9023
-12.8759
-12.8422
-12.8052
-12.7721
-12.7529
-12.7565
-12.7635
-12.7605
-12.7469
-12.7338
-12.729
-12.7198
-12.7107
-12.6932
-13.2531
-13.2612
-13.271
-13.2807
-13.3051
-13.3358
-13.3601
-13.3771
-13.3942
-13.4156
-13.4423
-13.467
-13.4876
-13.5231
-13.552
-13.5363
-13.4922
-13.4421
-13.4165
-13.4117
-13.4155
-13.4179
-13.4207
-13.4241
-13.427
-13.4288
-13.4297
-13.43
-13.4296
-13.429
-13.4282
-13.4273
-13.4268
-13.4263
-13.4262
-13.4254
-13.4233
-13.4211
-13.4188
-13.4168
-13.4156
-13.4148
-13.4136
-13.4119
-13.4104
-13.4091
-13.4084
-13.4078
-13.4079
-13.4097
-13.4171
-13.434
-13.4581
-13.4809
-13.4992
-13.51
-13.5168
-13.5214
-13.5188
-13.5109
-13.5014
-13.4911
-13.4842
-13.4773
-13.4666
-13.4492
-13.4266
-13.3941
-13.354
-13.3133
-13.2832
-13.2781
-13.2882
-13.2925
-13.2856
-13.2759
-13.267
-13.2482
-13.2341
-13.2253
-13.7817
-13.7956
-13.7927
-13.7976
-13.8301
-13.8645
-13.886
-13.8991
-13.9139
-13.934
-13.9598
-13.9858
-14.0081
-14.0354
-14.0518
-14.0324
-14.002
-13.9706
-13.944
-13.9217
-13.9138
-13.9119
-13.9129
-13.9161
-13.9192
-13.9216
-13.9228
-13.923
-13.9227
-13.9221
-13.9211
-13.92
-13.9191
-13.9193
-13.9198
-13.9192
-13.9179
-13.9161
-13.9141
-13.9121
-13.9108
-13.9097
-13.908
-13.9058
-13.9038
-13.9023
-13.9011
-13.9
-13.8993
-13.9009
-13.9115
-13.9384
-13.9741
-14.0077
-14.033
-14.046
-14.0546
-14.0524
-14.0409
-14.0252
-14.0158
-14.0095
-14.005
-14.0011
-13.9956
-13.9831
-13.9624
-13.9355
-13.9013
-13.8562
-13.8137
-13.7999
-13.8018
-13.7991
-13.7961
-13.8029
-13.8039
-13.7886
-13.7668
-13.7746
-14.3103
-14.3254
-14.3204
-14.3227
-14.3523
-14.3816
-14.3995
-14.4108
-14.4254
-14.4455
-14.4705
-14.4984
-14.5245
-14.5474
-14.5558
-14.5348
-14.509
-14.4856
-14.4628
-14.4402
-14.4187
-14.4106
-14.4086
-14.4108
-14.4137
-14.4158
-14.4168
-14.4169
-14.4164
-14.4157
-14.4147
-14.4135
-14.4126
-14.413
-14.414
-14.4139
-14.4131
-14.4115
-14.4095
-14.4076
-14.4062
-14.4048
-14.4029
-14.4006
-14.3989
-14.3977
-14.3966
-14.3957
-14.3956
-14.3994
-14.4171
-14.4569
-14.5058
-14.5476
-14.5672
-14.5772
-14.5811
-14.5747
-14.5631
-14.5515
-14.5408
-14.5316
-14.5239
-14.5168
-14.5072
-14.4913
-14.4698
-14.4478
-14.4242
-14.3898
-14.3515
-14.3324
-14.3189
-14.3132
-14.3158
-14.3337
-14.3503
-14.338
-14.3176
-14.3178
-14.8285
-14.8456
-14.8484
-14.851
-14.8713
-14.8921
-14.9081
-14.9208
-14.9366
-14.9578
-14.9835
-15.0119
-15.0392
-15.0621
-15.0718
-15.0541
-15.0228
-14.9978
-14.9736
-14.9567
-14.9301
-14.9146
-14.908
-14.908
-14.91
-14.9113
-14.9119
-14.9117
-14.911
-14.9101
-14.9091
-14.9079
-14.907
-14.9077
-14.9092
-14.9095
-14.9088
-14.9074
-14.9056
-14.9037
-14.9023
-14.9008
-14.8989
-14.897
-14.896
-14.8956
-14.8953
-14.8956
-14.8973
-14.9045
-14.9295
-14.9809
-15.041
-15.0843
-15.0968
-15.1038
-15.1058
-15.1045
-15.0966
-15.0844
-15.071
-15.0582
-15.0456
-15.0332
-15.0188
-14.9994
-14.9761
-14.9549
-14.9375
-14.9207
-14.9061
-14.8909
-14.8728
-14.8647
-14.8732
-14.8924
-14.91
-14.889
-14.8735
-14.8576
-15.355
-15.3659
-15.3752
-15.3789
-15.3882
-15.4007
-15.4142
-15.4298
-15.447
-15.4695
-15.4969
-15.5266
-15.5544
-15.5764
-15.5874
-15.5747
-15.538
-15.5049
-15.4823
-15.4685
-15.4462
-15.4239
-15.4106
-15.4077
-15.408
-15.4081
-15.4079
-15.4073
-15.4063
-15.4052
-15.404
-15.4029
-15.4019
-15.4031
-15.4055
-15.4061
-15.4052
-15.4038
-15.4022
-15.4006
-15.3995
-15.3984
-15.3967
-15.3952
-15.3951
-15.3957
-15.3967
-15.3988
-15.4032
-15.4138
-15.4442
-15.5054
-15.574
-15.6147
-15.6232
-15.6299
-15.6388
-15.6432
-15.6376
-15.6239
-15.6057
-15.5864
-15.5681
-15.5501
-15.5315
-15.5105
-15.4882
-15.4694
-15.4585
-15.4582
-15.4633
-15.4589
-15.4495
-15.4372
-15.4362
-15.4445
-15.4534
-15.4369
-15.4069
-15.3891
-15.878
-15.8856
-15.8948
-15.9006
-15.9045
-15.9115
-15.9202
-15.9365
-15.9551
-15.9784
-16.007
-16.0385
-16.0673
-16.0885
-16.0988
-16.0881
-16.0484
-16.0071
-15.9866
-15.9787
-15.9628
-15.9353
-15.9152
-15.9091
-15.9072
-15.9058
-15.9046
-15.9034
-15.9021
-15.9009
-15.8995
-15.8984
-15.8975
-15.899
-15.9026
-15.9037
-15.9025
-15.9006
-15.8991
-15.898
-15.8976
-15.8973
-15.8959
-15.8949
-15.8957
-15.8974
-15.8998
-15.9039
-15.911
-15.9248
-15.9576
-16.0243
-16.1006
-16.1393
-16.1499
-16.1612
-16.18
-16.1903
-16.1851
-16.1691
-16.1462
-16.1194
-16.0928
-16.0691
-16.0478
-16.0265
-16.005
-15.9874
-15.9785
-15.9804
-15.9886
-15.9932
-15.9911
-15.9813
-15.9679
-15.9586
-15.951
-15.9359
-15.9043
-15.8929
-16.3917
-16.3992
-16.407
-16.4135
-16.4188
-16.4221
-16.4265
-16.4397
-16.4596
-16.4829
-16.5115
-16.5441
-16.5746
-16.5962
-16.6054
-16.5937
-16.5514
-16.5028
-16.4868
-16.4898
-16.4751
-16.444
-16.4194
-16.4108
-16.4067
-16.4037
-16.4016
-16.3998
-16.3982
-16.3968
-16.3955
-16.3945
-16.3938
-16.3954
-16.3999
-16.4016
-16.4001
-16.3975
-16.3959
-16.3953
-16.3957
-16.3964
-16.3955
-16.3952
-16.397
-16.3997
-16.4033
-16.4092
-16.4187
-16.4349
-16.4675
-16.5318
-16.6134
-16.6581
-16.6754
-16.6953
-16.7223
-16.7382
-16.7355
-16.7174
-16.6887
-16.6552
-16.6205
-16.589
-16.5637
-16.543
-16.5233
-16.5052
-16.4929
-16.4884
-16.4881
-16.4887
-16.4891
-16.4843
-16.466
-16.4409
-16.412
-16.3843
-16.3694
-16.3714
-16.9005
-16.9067
-16.9134
-16.9192
-16.9264
-16.9304
-16.9337
-16.9414
-16.9594
-16.9824
-17.0097
-17.0417
-17.0737
-17.0965
-17.1047
-17.091
-17.0453
-16.9975
-16.9947
-17.0017
-16.9844
-16.9488
-16.9212
-16.9112
-16.9056
-16.9014
-16.8985
-16.8962
-16.8943
-16.8928
-16.8915
-16.8907
-16.8901
-16.8917
-16.8961
-16.8984
-16.8967
-16.8934
-16.8916
-16.8913
-16.8925
-16.894
-16.8941
-16.895
-16.898
-16.9015
-16.906
-16.9133
-16.9244
-16.9421
-16.9728
-17.0285
-17.1058
-17.1606
-17.1903
-17.2217
-17.2552
-17.2761
-17.2775
-17.2601
-17.2283
-17.1892
-17.1484
-17.11
-17.0782
-17.0564
-17.0392
-17.022
-17.0072
-16.9969
-16.9908
-16.987
-16.9831
-16.9747
-16.9545
-16.9239
-16.8893
-16.8613
-16.8522
-16.8573
-17.4085
-17.4104
-17.415
-17.4204
-17.4272
-17.4364
-17.4397
-17.4442
-17.4558
-17.4762
-17.5012
-17.5303
-17.5624
-17.5866
-17.5948
-17.5811
-17.5372
-17.502
-17.5082
-17.5112
-17.4916
-17.4484
-17.4204
-17.41
-17.4035
-17.3986
-17.3951
-17.3924
-17.3902
-17.3886
-17.3873
-17.3866
-17.3862
-17.3872
-17.3904
-17.3925
-17.3911
-17.3876
-17.3858
-17.3858
-17.3873
-17.3894
-17.3909
-17.3936
-17.3978
-17.402
-17.4071
-17.4152
-17.4274
-17.4452
-17.4729
-17.5178
-17.5835
-17.6437
-17.6873
-17.7292
-17.7681
-17.7932
-17.7982
-17.7834
-17.7522
-17.7114
-17.6688
-17.6279
-17.5914
-17.565
-17.5492
-17.5344
-17.5188
-17.5046
-17.4939
-17.4862
-17.4782
-17.4692
-17.459
-17.4432
-17.4188
-17.3933
-17.3823
-17.3656
-17.915
-17.9064
-17.9129
-17.9186
-17.9249
-17.9362
-17.9434
-17.9472
-17.9534
-17.9662
-17.9867
-18.0118
-18.041
-18.0661
-18.0754
-18.0645
-18.032
-18.0141
-18.0147
-18.0168
-17.9914
-17.9404
-17.9181
-17.9075
-17.9003
-17.8951
-17.8912
-17.8881
-17.8857
-17.884
-17.8826
-17.882
-17.8818
-17.8822
-17.8833
-17.8842
-17.8832
-17.8803
-17.8788
-17.8791
-17.8808
-17.8833
-17.8861
-17.8906
-17.8962
-17.9009
-17.9064
-17.9149
-17.9273
-17.9446
-17.9692
-18.005
-18.0563
-18.1135
-18.165
-18.2127
-18.2544
-18.2826
-18.2914
-18.2805
-18.2523
-18.2127
-18.1723
-18.1352
-18.0997
-18.0703
-18.0536
-18.0425
-18.0283
-18.0126
-17.9978
-17.9863
-17.976
-17.9666
-17.9599
-17.9515
-17.9407
-17.9352
-17.9313
-17.9069
-18.4173
-18.3978
-18.4081
-18.4149
-18.4215
-18.4308
-18.4424
-18.4468
-18.452
-18.4584
-18.4694
-18.4894
-18.5127
-18.5365
-18.5469
-18.5402
-18.5244
-18.5188
-18.5147
-18.5082
-18.4734
-18.4315
-18.4141
-18.4034
-18.3962
-18.3908
-18.3866
-18.3833
-18.3807
-18.3788
-18.3775
-18.3766
-18.3767
-18.3766
-18.3759
-18.3755
-18.3747
-18.3727
-18.3718
-18.3724
-18.3741
-18.3768
-18.3805
-18.3862
-18.3928
-18.3981
-18.4038
-18.4124
-18.4246
-18.4409
-18.4623
-18.4914
-18.5304
-18.5776
-18.6269
-18.6747
-18.7166
-18.746
-18.7577
-18.7517
-18.729
-18.6943
-18.6577
-18.6265
-18.5991
-18.5725
-18.5525
-18.5442
-18.5351
-18.52
-18.503
-18.4877
-18.475
-18.464
-18.4545
-18.4458
-18.4417
-18.442
-18.4456
-18.4449
-18.9065
-18.8953
-18.9035
-18.9105
-18.9169
-18.9245
-18.9343
-18.9435
-18.9475
-18.954
-18.9542
-18.9673
-18.9833
-19.0025
-19.0133
-19.0117
-19.0051
-19.0033
-18.9981
-18.9815
-18.9493
-18.9211
-18.9075
-18.898
-18.891
-18.8856
-18.8813
-18.8779
-18.8753
-18.8732
-18.8718
-18.8706
-18.8707
-18.8701
-18.8687
-18.8676
-18.8669
-18.8658
-18.8654
-18.8662
-18.8679
-18.8707
-18.8746
-18.8806
-18.8877
-18.8937
-18.8997
-18.9082
-18.9197
-18.9346
-18.9535
-18.9773
-19.0073
-19.0434
-19.0835
-19.1243
-19.1617
-19.1896
-19.2037
-19.2018
-19.187
-19.1614
-19.1322
-19.1056
-19.0873
-19.0677
-19.0487
-19.0407
-19.0373
-19.0256
-19.0083
-18.9896
-18.9742
-18.9609
-18.9495
-18.94
-18.9334
-18.928
-18.9227
-18.9379
-19.4005
-19.397
-19.3995
-19.4056
-19.4117
-19.4188
-19.4255
-19.4349
-19.4405
-19.4465
-19.4473
-19.4511
-19.4593
-19.4711
-19.4797
-19.4808
-19.4774
-19.4747
-19.4671
-19.4498
-19.4272
-19.4103
-19.3995
-19.3913
-19.3848
-19.3796
-19.3754
-19.3719
-19.3692
-19.3671
-19.3656
-19.3643
-19.3638
-19.363
-19.3617
-19.3607
-19.3602
-19.3597
-19.3598
-19.3606
-19.3624
-19.3652
-19.3688
-19.3744
-19.3814
-19.3879
-19.3943
-19.4025
-19.4132
-19.4266
-19.443
-19.4629
-19.4865
-19.5138
-19.5441
-19.5755
-19.6051
-19.6289
-19.6431
-19.6458
-19.6379
-19.6214
-19.6006
-19.5804
-19.5676
-19.5571
-19.544
-19.5341
-19.5349
-19.5282
-19.5124
-19.4922
-19.4738
-19.4575
-19.4436
-19.4327
-19.4253
-19.4168
-19.3995
-19.4255
-19.8963
-19.8946
-19.8958
-19.9009
-19.9069
-19.9135
-19.9196
-19.9243
-19.9314
-19.9342
-19.9439
-19.9433
-19.9433
-19.947
-19.9513
-19.9521
-19.9497
-19.9458
-19.938
-19.9248
-19.9106
-19.8996
-19.8908
-19.8837
-19.8777
-19.8728
-19.8687
-19.8654
-19.8627
-19.8606
-19.859
-19.8576
-19.8567
-19.8558
-19.8549
-19.8542
-19.8541
-19.8539
-19.8544
-19.8552
-19.857
-19.8598
-19.8632
-19.8681
-19.8744
-19.8809
-19.8876
-19.8956
-19.9054
-19.9173
-19.9315
-19.9481
-19.9672
-19.9885
-20.0114
-20.0349
-20.0572
-20.0759
-20.0886
-20.0936
-20.0911
-20.0821
-20.0694
-20.0559
-20.0473
-20.0446
-20.037
-20.0272
-20.0302
-20.0276
-20.0144
-19.9947
-19.9732
-19.9535
-19.9372
-19.9249
-19.9161
-19.9077
-19.8985
-19.9014
-20.3882
-20.3884
-20.3912
-20.3963
-20.4029
-20.4102
-20.417
-20.419
-20.4211
-20.4225
-20.4358
-20.4376
-20.4323
-20.4301
-20.4303
-20.4294
-20.4269
-20.4228
-20.4161
-20.407
-20.3974
-20.389
-20.3816
-20.3753
-20.3699
-20.3653
-20.3615
-20.3583
-20.3557
-20.3536
-20.352
-20.3506
-20.3496
-20.3488
-20.3481
-20.3477
-20.3478
-20.348
-20.3486
-20.3496
-20.3514
-20.3543
-20.3574
-20.3617
-20.3672
-20.3734
-20.38
-20.3875
-20.3965
-20.407
-20.4192
-20.4332
-20.4489
-20.4659
-20.4839
-20.502
-20.519
-20.5335
-20.5442
-20.5501
-20.5509
-20.5473
-20.5409
-20.5337
-20.5285
-20.53
-20.5287
-20.5225
-20.524
-20.5253
-20.5139
-20.4942
-20.4705
-20.4479
-20.4294
-20.4159
-20.4064
-20.3988
-20.3934
-20.3905
-20.878
-20.8806
-20.8855
-20.8916
-20.8999
-20.9095
-20.9176
-20.9196
-20.9146
-20.9108
-20.9202
-20.9253
-20.9198
-20.916
-20.9143
-20.9121
-20.9092
-20.9052
-20.8995
-20.8925
-20.8851
-20.8782
-20.8719
-20.8663
-20.8614
-20.8573
-20.8537
-20.8508
-20.8483
-20.8463
-20.8447
-20.8434
-20.8424
-20.8416
-20.8411
-20.8409
-20.8411
-20.8416
-20.8421
-20.8435
-20.8452
-20.8483
-20.8511
-20.8549
-20.8598
-20.8654
-20.8716
-20.8786
-20.8867
-20.896
-20.9065
-20.9183
-20.9313
-20.9453
-20.9598
-20.9741
-20.9875
-20.9992
-21.0084
-21.0143
-21.0171
-21.017
-21.015
-21.0127
-21.0112
-21.0139
-21.0185
-21.0171
-21.0168
-21.0212
-21.0104
-20.9888
-20.964
-20.9394
-20.9193
-20.9051
-20.8957
-20.8885
-20.8845
-20.8804
-21.3679
-21.373
-21.3788
-21.3865
-21.3973
-21.4098
-21.4195
-21.4221
-21.4123
-21.3999
-21.4032
-21.4082
-21.4054
-21.4023
-21.4
-21.3973
-21.3941
-21.3901
-21.385
-21.3792
-21.3731
-21.3672