/*--------------------------------*- C++ -*----------------------------------*\
| =========                 |                                                 |
| \\      /  F ield         | OpenFOAM: The Open Source CFD Toolbox           |
|  \\    /   O peration     | Version:  2412                                  |
|   \\  /    A nd           | Website:  www.openfoam.com                      |
|    \\/     M anipulation  |                                                 |
\*---------------------------------------------------------------------------*/
FoamFile
{
    version     2.0;
    format      ascii;
    arch        "LSB;label=32;scalar=64";
    class       surfaceScalarField;
    location    "5.75";
    object      alphaPhi0.molasses;
}
// * * * * * * * * * * * * * * * * * * * * * * * * * * * * * * * * * * * * * //

dimensions      [0 3 -1 0 0 0 0];

oriented        oriented;

internalField   nonuniform List<scalar> 
12640
(
3.44263e-13
-3.43551e-13
-8.9979e-14
5.30713e-13
-1.74644e-12
1.73578e-12
-4.59828e-12
2.92961e-12
-8.19423e-12
3.67049e-12
-1.24363e-11
4.31211e-12
-1.71878e-11
4.81711e-12
-2.23024e-11
5.17498e-12
-2.7693e-11
5.44542e-12
-3.32938e-11
5.64918e-12
-3.90398e-11
5.78785e-12
-4.48488e-11
5.84399e-12
-5.06518e-11
5.83137e-12
-5.63899e-11
5.7599e-12
-6.20242e-11
5.65e-12
-6.75151e-11
5.50049e-12
-7.28194e-11
5.30854e-12
-7.78791e-11
5.05847e-12
-8.26288e-11
4.74349e-12
-8.69941e-11
4.35388e-12
-9.09008e-11
3.89024e-12
-9.42757e-11
3.35284e-12
-9.70486e-11
2.74515e-12
-9.91496e-11
2.06684e-12
-1.0051e-10
1.31935e-12
-1.0106e-10
5.01633e-13
-1.00732e-10
-3.85875e-13
-9.94553e-11
-1.34245e-12
-9.71672e-11
-2.36387e-12
-9.38091e-11
-3.44369e-12
-8.9334e-11
-4.571e-12
-8.37093e-11
-5.73076e-12
-7.69236e-11
-6.90186e-12
-6.89917e-11
-8.05783e-12
-5.99602e-11
-9.16642e-12
-4.99119e-11
-1.01916e-11
-3.89676e-11
-1.1095e-11
-2.72857e-11
-1.1839e-11
-1.50585e-11
-1.23895e-11
-2.50563e-12
-1.27192e-11
1.01348e-11
-1.28094e-11
2.26168e-11
-1.26523e-11
3.46971e-11
-1.22507e-11
4.61466e-11
-1.16185e-11
5.67595e-11
-1.07795e-11
6.63622e-11
-9.76551e-12
7.48186e-11
-8.61445e-12
8.20341e-11
-7.36786e-12
8.79562e-11
-6.06776e-12
9.2573e-11
-4.75481e-12
9.59091e-11
-3.46536e-12
9.80203e-11
-2.2306e-12
9.89868e-11
-1.07515e-12
9.89076e-11
-1.73667e-14
9.78926e-11
9.3108e-13
9.60569e-11
1.7649e-12
9.35144e-11
2.48463e-12
9.03728e-11
3.09608e-12
8.67304e-11
3.60779e-12
8.26739e-11
4.03141e-12
7.82781e-11
4.3783e-12
7.36038e-11
4.66258e-12
6.87014e-11
4.8949e-12
6.36101e-11
5.08675e-12
5.83672e-11
5.24066e-12
5.30066e-11
5.36056e-12
4.75673e-11
5.44162e-12
4.20868e-11
5.48614e-12
3.66104e-11
5.48634e-12
3.11847e-11
5.44146e-12
2.58719e-11
5.33562e-12
2.0743e-11
5.16016e-12
1.58931e-11
4.89033e-12
1.14298e-11
4.51379e-12
7.48243e-12
4.0077e-12
4.19338e-12
3.35915e-12
1.72908e-12
2.54338e-12
2.23748e-13
1.59247e-12
-2.81118e-13
5.97923e-13
-1.89549e-13
-4.7497e-13
2.13971e-13
-3.00067e-12
3.23472e-12
-8.11048e-12
7.00257e-12
-1.56077e-11
1.0576e-11
-2.50284e-11
1.32328e-11
-3.60175e-11
1.54344e-11
-4.82792e-11
1.72027e-11
-6.15403e-11
1.85498e-11
-7.5549e-11
1.95564e-11
-9.00992e-11
2.02898e-11
-1.04987e-10
2.07539e-11
-1.20038e-10
2.09598e-11
-1.35081e-10
2.0928e-11
-1.49983e-10
2.07044e-11
-1.64612e-10
2.03096e-11
-1.78847e-10
1.97555e-11
-1.92549e-10
1.90218e-11
-2.05574e-10
1.80835e-11
-2.17752e-10
1.69125e-11
-2.2891e-10
1.54923e-11
-2.38862e-10
1.38123e-11
-2.47426e-10
1.18742e-11
-2.54414e-10
9.67907e-12
-2.59644e-10
7.22771e-12
-2.62927e-10
4.5191e-12
-2.64081e-10
1.55425e-12
-2.62922e-10
-1.66467e-12
-2.59274e-10
-5.12937e-12
-2.52974e-10
-8.8235e-12
-2.43879e-10
-1.27188e-11
-2.31879e-10
-1.67731e-11
-2.16905e-10
-2.09273e-11
-1.98946e-10
-2.51036e-11
-1.78061e-10
-2.92048e-11
-1.5439e-10
-3.3117e-11
-1.28162e-10
-3.67136e-11
-9.97017e-11
-3.98628e-11
-6.94218e-11
-4.24365e-11
-3.78154e-11
-4.43208e-11
-5.43918e-12
-4.54246e-11
2.71089e-11
-4.56879e-11
5.92141e-11
-4.50862e-11
9.02726e-11
-4.36331e-11
1.19717e-10
-4.13791e-11
1.47039e-10
-3.84084e-11
1.71811e-10
-3.48323e-11
1.93698e-10
-3.07827e-11
2.12467e-10
-2.64021e-11
2.27985e-10
-2.18355e-11
2.4022e-10
-1.72208e-11
2.49225e-10
-1.26828e-11
2.55129e-10
-8.32722e-12
2.58123e-10
-4.23917e-12
2.58438e-10
-4.81314e-13
2.56337e-10
2.90568e-12
2.52095e-10
5.90289e-12
2.45987e-10
8.51097e-12
2.38274e-10
1.07463e-11
2.29199e-10
1.26371e-11
2.18982e-10
1.42182e-11
2.07812e-10
1.55303e-11
1.95852e-10
1.66141e-11
1.83236e-10
1.75093e-11
1.70084e-10
1.82438e-11
1.56499e-10
1.88367e-11
1.42586e-10
1.92912e-11
1.28444e-10
1.96092e-11
1.14185e-10
1.97807e-11
9.9921e-11
1.97969e-11
8.57926e-11
1.96301e-11
7.19529e-11
1.92513e-11
5.85969e-11
1.86092e-11
4.59438e-11
1.76543e-11
3.42602e-11
1.63259e-11
2.38299e-11
1.45834e-11
1.49676e-11
1.23821e-11
7.98034e-12
9.70452e-12
3.1347e-12
6.62256e-12
5.3558e-13
3.38278e-12
4.27769e-13
-1.64077e-12
1.93446e-12
-6.53416e-12
8.28905e-12
-1.4874e-11
1.54851e-11
-2.6341e-11
2.21783e-11
-4.04974e-11
2.75173e-11
-5.69118e-11
3.19687e-11
-7.51944e-11
3.55968e-11
-9.4947e-11
3.84042e-11
-1.15817e-10
4.05184e-11
-1.37482e-10
4.20343e-11
-1.59662e-10
4.3003e-11
-1.82095e-10
4.34506e-11
-2.04551e-10
4.34313e-11
-2.26813e-10
4.30022e-11
-2.48682e-10
4.22045e-11
-2.69952e-10
4.10408e-11
-2.90413e-10
3.94895e-11
-3.09837e-10
3.7505e-11
-3.27987e-10
3.50496e-11
-3.44605e-10
3.20885e-11
-3.59429e-10
2.8602e-11
-3.7218e-10
2.458e-11
-3.82579e-10
2.00202e-11
-3.90342e-10
1.49182e-11
-3.95183e-10
9.27172e-12
-3.96815e-10
3.08107e-12
-3.94958e-10
-3.6457e-12
-3.89341e-10
-1.08889e-11
-3.79717e-10
-1.86096e-11
-3.65873e-10
-2.67448e-11
-3.47648e-10
-3.52008e-11
-3.24948e-10
-4.3849e-11
-2.97769e-10
-5.25227e-11
-2.66215e-10
-6.10169e-11
-2.30513e-10
-6.90939e-11
-1.91022e-10
-7.64929e-11
-1.48241e-10
-8.29447e-11
-1.02798e-10
-8.81905e-11
-5.54353e-11
-9.20014e-11
-6.98607e-12
-9.41971e-11
4.16608e-11
-9.46602e-11
8.95968e-11
-9.33469e-11
1.35933e-10
-9.02905e-11
1.79838e-10
-8.55995e-11
2.20573e-10
-7.94495e-11
2.57517e-10
-7.20719e-11
2.90188e-10
-6.37366e-11
3.18253e-10
-5.47352e-11
3.41527e-10
-4.53608e-11
3.59962e-10
-3.58921e-11
3.73641e-10
-2.65787e-11
3.82747e-10
-1.76331e-11
3.87552e-10
-9.22461e-12
3.88389e-10
-1.47848e-12
3.8563e-10
5.52495e-12
3.79666e-10
1.17475e-11
3.70889e-10
1.71891e-11
3.59676e-10
2.188e-11
3.4638e-10
2.58723e-11
3.31319e-10
2.92339e-11
3.14776e-10
3.2041e-11
2.96997e-10
3.43734e-11
2.78194e-10
3.63019e-11
2.58551e-10
3.78836e-11
2.38241e-10
3.9151e-11
2.17422e-10
4.01221e-11
1.96257e-10
4.07941e-11
1.74909e-10
4.11581e-11
1.53565e-10
4.11825e-11
1.32422e-10
4.0827e-11
1.11721e-10
4.00204e-11
9.17315e-11
3.86832e-11
7.27746e-11
3.6712e-11
5.5201e-11
3.40168e-11
3.94069e-11
3.05103e-11
2.57916e-11
2.61448e-11
1.47503e-11
2.09054e-11
6.62986e-12
1.49124e-11
1.64314e-12
8.54199e-12
2.14504e-12
-2.64148e-12
4.65329e-12
-9.66376e-12
1.54646e-11
-2.08613e-11
2.68198e-11
-3.575e-11
3.71977e-11
-5.3864e-11
4.57556e-11
-7.47313e-11
5.29535e-11
-9.7877e-11
5.88523e-11
-1.22847e-10
6.34756e-11
-1.49203e-10
6.69671e-11
-1.76571e-10
6.94845e-11
-2.046e-10
7.1104e-11
-2.32984e-10
7.18972e-11
-2.61427e-10
7.19267e-11
-2.8966e-10
7.12777e-11
-3.17416e-10
6.99936e-11
-3.44435e-10
6.80849e-11
-3.70444e-10
6.55129e-11
-3.95158e-10
6.22251e-11
-4.18275e-10
5.81624e-11
-4.3948e-10
5.32784e-11
-4.58437e-10
4.75333e-11
-4.74799e-10
4.09033e-11
-4.88203e-10
3.33709e-11
-4.98276e-10
2.49239e-11
-5.04642e-10
1.55526e-11
-5.06919e-10
5.25586e-12
-5.04732e-10
-5.95407e-12
-4.97721e-10
-1.80416e-11
-4.85553e-10
-3.09389e-11
-4.67945e-10
-4.45352e-11
-4.44679e-10
-5.86684e-11
-4.15633e-10
-7.31167e-11
-3.80802e-10
-8.75947e-11
-3.40322e-10
-1.01755e-10
-2.94494e-10
-1.15196e-10
-2.43793e-10
-1.27482e-10
-1.88873e-10
-1.38165e-10
-1.30557e-10
-1.46817e-10
-6.98133e-11
-1.53062e-10
-7.72418e-12
-1.56608e-10
5.45596e-11
-1.57267e-10
1.15867e-10
-1.54976e-10
1.75059e-10
-1.49799e-10
2.31075e-10
-1.41926e-10
2.82982e-10
-1.31656e-10
3.30001e-10
-1.19379e-10
3.71539e-10
-1.05547e-10
4.0719e-10
-9.06436e-11
4.36739e-10
-7.51517e-11
4.60147e-10
-5.95255e-11
4.7753e-10
-4.41702e-11
4.8913e-10
-2.94271e-11
4.95294e-10
-1.55675e-11
4.96442e-10
-2.78906e-12
4.93039e-10
8.78166e-12
4.85572e-10
1.90861e-11
4.74527e-10
2.81239e-11
4.60373e-10
3.59419e-11
4.43551e-10
4.26218e-11
4.24461e-10
4.82685e-11
4.03461e-10
5.30021e-11
3.80867e-10
5.69434e-11
3.56953e-10
6.0204e-11
3.31967e-10
6.2869e-11
3.0613e-10
6.49976e-11
2.79655e-10
6.66156e-11
2.52747e-10
6.773e-11
2.25626e-10
6.83177e-11
1.98517e-10
6.83409e-11
1.71679e-10
6.77256e-11
1.45398e-10
6.63766e-11
1.20011e-10
6.4158e-11
9.58906e-11
6.09352e-11
7.34582e-11
5.65658e-11
5.31567e-11
5.0942e-11
3.54643e-11
4.39793e-11
2.08571e-11
3.56644e-11
9.77409e-12
2.61527e-11
2.61097e-12
1.58678e-11
4.82761e-12
-3.36673e-12
8.09451e-12
-1.22323e-11
2.4479e-11
-2.58889e-11
4.06104e-11
-4.37014e-11
5.51377e-11
-6.51514e-11
6.73274e-11
-8.97019e-11
7.76194e-11
-1.16835e-10
8.60946e-11
-1.46037e-10
9.27787e-11
-1.76838e-10
9.78612e-11
-2.08804e-10
1.01534e-10
-2.41563e-10
1.03938e-10
-2.74759e-10
1.05159e-10
-3.08073e-10
1.05297e-10
-3.41181e-10
1.04433e-10
-3.73783e-10
1.02633e-10
-4.05566e-10
9.98974e-11
-4.36219e-10
9.61871e-11
-4.65412e-10
9.14286e-11
-4.92799e-10
8.55499e-11
-5.18012e-10
7.84798e-11
-5.40662e-10
7.01602e-11
-5.60338e-10
6.05415e-11
-5.76605e-10
4.95859e-11
-5.89012e-10
3.72616e-11
-5.97091e-10
2.35456e-11
-6.0037e-10
8.42818e-12
-5.98373e-10
-8.07628e-12
-5.90643e-10
-2.59173e-11
-5.76755e-10
-4.49938e-11
-5.56338e-10
-6.51388e-11
-5.29107e-10
-8.61066e-11
-4.9489e-10
-1.07561e-10
-4.53661e-10
-1.29069e-10
-4.05573e-10
-1.50105e-10
-3.50981e-10
-1.70066e-10
-2.90462e-10
-1.88295e-10
-2.24813e-10
-2.04119e-10
-1.55046e-10
-2.16899e-10
-8.23539e-11
-2.26078e-10
-8.06643e-12
-2.31223e-10
6.64034e-11
-2.32067e-10
1.39623e-10
-2.28524e-10
2.10207e-10
-2.20706e-10
2.76874e-10
-2.08908e-10
3.38506e-10
-1.93592e-10
3.94187e-10
-1.7535e-10
4.4323e-10
-1.54864e-10
4.85185e-10
-1.32855e-10
5.1983e-10
-1.10037e-10
5.47157e-10
-8.70746e-11
5.67334e-10
-6.45542e-11
5.8068e-10
-4.29653e-11
5.87623e-10
-2.26909e-11
5.88674e-10
-4.00747e-12
5.84389e-10
1.29127e-11
5.75342e-10
2.7992e-11
5.62107e-10
4.12345e-11
5.45233e-10
5.27083e-11
5.25237e-10
6.25298e-11
5.02588e-10
7.08481e-11
4.7771e-10
7.78307e-11
4.50973e-10
8.36477e-11
4.22709e-10
8.84517e-11
3.9321e-10
9.23668e-11
3.62742e-10
9.54757e-11
3.31553e-10
9.78266e-11
2.99891e-10
9.94251e-11
2.68002e-10
1.00251e-10
2.36153e-10
1.00244e-10
2.04629e-10
9.93167e-11
1.73761e-10
9.73236e-11
1.43915e-10
9.40952e-11
1.15519e-10
8.94358e-11
8.90206e-11
8.31808e-11
6.49103e-11
7.51809e-11
4.37188e-11
6.53106e-11
2.60273e-11
5.35045e-11
1.23695e-11
3.99628e-11
3.39357e-12
2.5002e-11
8.29161e-12
-3.89587e-12
1.20629e-11
-1.42818e-11
3.50104e-11
-2.99861e-11
5.64461e-11
-5.02676e-11
7.55442e-11
-7.45162e-11
9.16954e-11
-1.02143e-10
1.0536e-10
-1.32572e-10
1.16631e-10
-1.65263e-10
1.25571e-10
-1.99696e-10
1.32387e-10
-2.35421e-10
1.37345e-10
-2.7203e-10
1.40624e-10
-3.09164e-10
1.4236e-10
-3.4647e-10
1.42663e-10
-3.83617e-10
1.41631e-10
-4.20265e-10
1.39324e-10
-4.56083e-10
1.35749e-10
-4.90725e-10
1.30853e-10
-5.23835e-10
1.24553e-10
-5.55032e-10
1.16751e-10
-5.83913e-10
1.07352e-10
-6.10041e-10
9.6267e-11
-6.32952e-10
8.34158e-11
-6.52146e-10
6.87268e-11
-6.67094e-10
5.21389e-11
-6.7724e-10
3.36031e-11
-6.82012e-10
1.30924e-11
-6.80831e-10
-9.38543e-12
-6.73127e-10
-3.37697e-11
-6.58363e-10
-5.99265e-11
-6.36062e-10
-8.76283e-11
-6.05842e-10
-1.16534e-10
-5.67456e-10
-1.46173e-10
-5.2083e-10
-1.75939e-10
-4.66104e-10
-2.05093e-10
-4.03668e-10
-2.3278e-10
-3.34183e-10
-2.58071e-10
-2.58591e-10
-2.80015e-10
-1.78096e-10
-2.97709e-10
-9.41271e-11
-3.1037e-10
-8.28577e-12
-3.17394e-10
7.77294e-11
-3.18414e-10
1.622e-10
-3.13327e-10
2.43471e-10
-3.02305e-10
3.20027e-10
-2.85784e-10
3.90561e-10
-2.64433e-10
4.54019e-10
-2.39102e-10
5.09638e-10
-2.10758e-10
5.56942e-10
-1.80414e-10
5.95734e-10
-1.49064e-10
6.26063e-10
-1.17619e-10
6.48182e-10
-8.68715e-11
6.62506e-10
-5.74734e-11
6.6957e-10
-2.99267e-11
6.69984e-10
-4.58502e-12
6.64405e-10
1.83374e-11
6.535e-10
3.8752e-11
6.37927e-10
5.66744e-11
6.18313e-10
7.22031e-11
5.95244e-10
8.54971e-11
5.69254e-10
9.67568e-11
5.40818e-10
1.06205e-10
5.10359e-10
1.14065e-10
4.78249e-10
1.2054e-10
4.44818e-10
1.25792e-10
4.10363e-10
1.29941e-10
3.75164e-10
1.33051e-10
3.39484e-10
1.35142e-10
3.03597e-10
1.36187e-10
2.67782e-10
1.3612e-10
2.32352e-10
1.34819e-10
1.97648e-10
1.32112e-10
1.64073e-10
1.27765e-10
1.32073e-10
1.21543e-10
1.0214e-10
1.13231e-10
7.47895e-11
1.0266e-10
5.06193e-11
8.96193e-11
3.02919e-11
7.39785e-11
1.44773e-11
5.5927e-11
4.01545e-12
3.56189e-11
1.23765e-11
-4.3357e-12
1.64704e-11
-1.58749e-11
4.66921e-11
-3.32563e-11
7.39567e-11
-5.55981e-11
9.80087e-11
-8.22078e-11
1.18423e-10
-1.12405e-10
1.35669e-10
-1.45591e-10
1.49925e-10
-1.81176e-10
1.61256e-10
-2.18622e-10
1.69928e-10
-2.5744e-10
1.76249e-10
-2.97224e-10
1.80487e-10
-3.37597e-10
1.82805e-10
-3.7822e-10
1.83349e-10
-4.18746e-10
1.82213e-10
-4.58838e-10
1.79463e-10
-4.98143e-10
1.75093e-10
-5.36308e-10
1.69047e-10
-5.72955e-10
1.6122e-10
-6.07688e-10
1.51492e-10
-6.40074e-10
1.39733e-10
-6.6964e-10
1.25815e-10
-6.95873e-10
1.09615e-10
-7.18212e-10
9.10158e-11
-7.36053e-10
6.99121e-11
-7.48752e-10
4.62145e-11
-7.55628e-10
1.98627e-11
-7.55983e-10
-9.15517e-12
-7.49118e-10
-4.07786e-11
-7.3436e-10
-7.48478e-11
-7.11096e-10
-1.11074e-10
-6.78814e-10
-1.49016e-10
-6.37151e-10
-1.88053e-10
-5.85946e-10
-2.27378e-10
-5.25293e-10
-2.65997e-10
-4.55588e-10
-3.02752e-10
-3.77564e-10
-3.36377e-10
-2.92304e-10
-3.65571e-10
-2.01222e-10
-3.89099e-10
-1.06017e-10
-4.05892e-10
-8.60141e-12
-4.15134e-10
8.8992e-11
-4.16336e-10
1.84711e-10
-4.09374e-10
2.76586e-10
-3.94506e-10
3.62834e-10
-3.72351e-10
4.41934e-10
-3.43841e-10
5.12693e-10
-3.10154e-10
5.74276e-10
-2.72614e-10
6.26208e-10
-2.32598e-10
6.6835e-10
-1.91433e-10
7.00847e-10
-1.50319e-10
7.24076e-10
-1.10281e-10
7.38583e-10
-7.21447e-11
7.45034e-10
-3.65301e-11
7.44167e-10
-3.86266e-12
7.36752e-10
2.56135e-11
7.23558e-10
5.18104e-11
7.05334e-10
7.47697e-11
6.82785e-10
9.46321e-11
6.56564e-10
1.11611e-10
6.27262e-10
1.2597e-10
5.95403e-10
1.37994e-10
5.61452e-10
1.47969e-10
5.25815e-10
1.5615e-10
4.88846e-10
1.62754e-10
4.50867e-10
1.67932e-10
4.12168e-10
1.71778e-10
3.73031e-10
1.74321e-10
3.33729e-10
1.75544e-10
2.94553e-10
1.75363e-10
2.55813e-10
1.73638e-10
2.1787e-10
1.70144e-10
1.81126e-10
1.64609e-10
1.46058e-10
1.56721e-10
1.13178e-10
1.46232e-10
8.30621e-11
1.32906e-10
5.63428e-11
1.16477e-10
3.37796e-11
9.66869e-11
1.61663e-11
7.36876e-11
4.49685e-12
4.74402e-11
1.69416e-11
-4.6851e-12
2.12265e-11
-1.70947e-11
5.92409e-11
-3.58371e-11
9.28258e-11
-5.99104e-11
1.22202e-10
-8.85143e-11
1.47142e-10
-1.20891e-10
1.68158e-10
-1.5638e-10
1.8552e-10
-1.94389e-10
1.99367e-10
-2.34339e-10
2.09974e-10
-2.75735e-10
2.17734e-10
-3.18142e-10
2.22977e-10
-3.61211e-10
2.2595e-10
-4.04601e-10
2.26807e-10
-4.47992e-10
2.25666e-10
-4.91048e-10
2.22572e-10
-5.33429e-10
2.1752e-10
-5.74776e-10
2.10431e-10
-6.14715e-10
2.01185e-10
-6.52833e-10
1.89626e-10
-6.88685e-10
1.75587e-10
-7.21768e-10
1.58886e-10
-7.51529e-10
1.39348e-10
-7.7735e-10
1.16793e-10
-7.98553e-10
9.10538e-11
-8.14398e-10
6.19801e-11
-8.24091e-10
2.94584e-11
-8.26799e-10
-6.56244e-12
-8.2167e-10
-4.60402e-11
-8.07866e-10
-8.88022e-11
-7.84598e-10
-1.34509e-10
-7.51182e-10
-1.82616e-10
-7.0709e-10
-2.32346e-10
-6.52023e-10
-2.82663e-10
-5.8598e-10
-3.32275e-10
-5.09325e-10
-3.79658e-10
-4.22846e-10
-4.23124e-10
-3.2777e-10
-4.60929e-10
-2.25749e-10
-4.91415e-10
-1.188e-10
-5.13147e-10
-9.20955e-12
-5.25039e-10
1.00582e-10
-5.26447e-10
2.08113e-10
-5.17229e-10
3.11038e-10
-4.97752e-10
4.07245e-10
-4.68874e-10
4.94968e-10
-4.3187e-10
5.72855e-10
-3.88333e-10
6.40013e-10
-3.40045e-10
6.95997e-10
-2.8883e-10
7.40767e-10
-2.36424e-10
7.74618e-10
-1.84361e-10
7.981e-10
-1.33925e-10
8.11937e-10
-8.61195e-11
8.16965e-10
-4.1679e-11
8.14075e-10
-1.08415e-12
8.04172e-10
3.54077e-11
7.88144e-10
6.77306e-11
7.66834e-10
9.59702e-11
7.41031e-10
1.20329e-10
7.11452e-10
1.41091e-10
6.78742e-10
1.58593e-10
6.43469e-10
1.73198e-10
6.06129e-10
1.85258e-10
5.67153e-10
1.95098e-10
5.26917e-10
2.02984e-10
4.85745e-10
2.09116e-10
4.43938e-10
2.13616e-10
4.01769e-10
2.16538e-10
3.59513e-10
2.17862e-10
3.17446e-10
2.17504e-10
2.75883e-10
2.15286e-10
2.35166e-10
2.10956e-10
1.95711e-10
2.04169e-10
1.57987e-10
1.94559e-10
1.22555e-10
1.81786e-10
9.00267e-11
1.65563e-10
6.111e-11
1.45531e-10
3.66281e-11
1.21312e-10
1.75079e-11
9.29525e-11
4.85417e-12
6.02421e-11
2.18622e-11
-4.93376e-12
2.623e-11
-1.80335e-11
7.24754e-11
-3.79145e-11
1.1283e-10
-6.34564e-11
1.47862e-10
-9.37876e-11
1.77587e-10
-1.2803e-10
2.0251e-10
-1.6547e-10
2.23067e-10
-2.0549e-10
2.39489e-10
-2.47526e-10
2.52107e-10
-2.91049e-10
2.61349e-10
-3.35641e-10
2.67655e-10
-3.80943e-10
2.71332e-10
-4.26658e-10
2.72597e-10
-4.72483e-10
2.71559e-10
-5.18121e-10
2.68272e-10
-5.63247e-10
2.627e-10
-6.07525e-10
2.54754e-10
-6.50585e-10
2.4428e-10
-6.92023e-10
2.31088e-10
-7.31381e-10
2.14955e-10
-7.68142e-10
1.95645e-10
-8.01719e-10
1.72907e-10
-8.31444e-10
1.46484e-10
-8.56565e-10
1.16125e-10
-8.76244e-10
8.15928e-11
-8.89564e-10
4.2696e-11
-8.9554e-10
-6.84228e-13
-8.93145e-10
-4.85495e-11
-8.81338e-10
-1.00739e-10
-8.59112e-10
-1.5688e-10
-8.25553e-10
-2.16337e-10
-7.79907e-10
-2.78171e-10
-7.21669e-10
-3.41099e-10
-6.50675e-10
-4.03485e-10
-5.67209e-10
-4.63359e-10
-4.72081e-10
-5.18504e-10
-3.66671e-10
-5.66607e-10
-2.52911e-10
-6.05459e-10
-1.33202e-10
-6.33151e-10
-1.02955e-11
-6.48249e-10
1.1286e-10
-6.49914e-10
2.33294e-10
-6.37978e-10
3.48187e-10
-6.12961e-10
4.55026e-10
-5.76027e-10
5.51746e-10
-5.28895e-10
6.36817e-10
-4.73698e-10
7.09297e-10
-4.12801e-10
7.68813e-10
-3.48599e-10
8.15488e-10
-2.83321e-10
8.49835e-10
-2.18896e-10
8.72642e-10
-1.56881e-10
8.84868e-10
-9.84608e-11
8.87565e-10
-4.44638e-11
8.81812e-10
4.59623e-12
8.68676e-10
4.84786e-11
8.49173e-10
8.71655e-11
8.24255e-10
1.20815e-10
7.94793e-10
1.49713e-10
7.61567e-10
1.74237e-10
7.25271e-10
1.94815e-10
6.86509e-10
2.11897e-10
6.45804e-10
2.25918e-10
6.03602e-10
2.37274e-10
5.60283e-10
2.46298e-10
5.16177e-10
2.53239e-10
4.71568e-10
2.58261e-10
4.26721e-10
2.61438e-10
3.81885e-10
2.62765e-10
3.37328e-10
2.6214e-10
2.93332e-10
2.59373e-10
2.50236e-10
2.54153e-10
2.08428e-10
2.46085e-10
1.68394e-10
2.34709e-10
1.30705e-10
2.19598e-10
9.60403e-11
2.00358e-10
6.51671e-11
1.76539e-10
3.90064e-11
1.47613e-10
1.85846e-11
1.13516e-10
5.11958e-12
7.38504e-11
2.70455e-11
-5.10986e-12
3.1408e-11
-1.88148e-11
8.63098e-11
-3.96967e-11
1.33832e-10
-6.65444e-11
1.74823e-10
-9.84004e-11
2.09554e-10
-1.34301e-10
2.38519e-10
-1.73409e-10
2.6228e-10
-2.15106e-10
2.81289e-10
-2.58829e-10
2.95928e-10
-3.04087e-10
3.06702e-10
-3.5045e-10
3.14108e-10
-3.97594e-10
3.18562e-10
-4.45238e-10
3.20321e-10
-4.93136e-10
3.19533e-10
-5.41022e-10
3.16227e-10
-5.88621e-10
3.10361e-10
-6.35622e-10
3.01809e-10
-6.81684e-10
2.90387e-10
-7.26415e-10
2.75853e-10
-7.69366e-10
2.57928e-10
-8.10013e-10
2.363e-10
-8.47745e-10
2.10633e-10
-8.81851e-10
1.8057e-10
-9.1151e-10
1.45749e-10
-9.35788e-10
1.05822e-10
-9.53637e-10
6.04818e-11
-9.63905e-10
9.50725e-12
-9.6536e-10
-4.71854e-11
-9.56723e-10
-1.09482e-10
-9.36716e-10
-1.77008e-10
-9.0413e-10
-2.49062e-10
-8.57906e-10
-3.24554e-10
-7.9724e-10
-4.01945e-10
-7.21716e-10
-4.7921e-10
-6.31458e-10
-5.53842e-10
-5.2726e-10
-6.22948e-10
-4.10661e-10
-6.83471e-10
-2.83925e-10
-7.32475e-10
-1.49933e-10
-7.67436e-10
-1.20244e-11
-7.86459e-10
1.26211e-10
-7.88456e-10
2.61155e-10
-7.73234e-10
3.89391e-10
-7.4151e-10
5.07904e-10
-6.94854e-10
6.1426e-10
-6.35561e-10
7.06725e-10
-5.66465e-10
7.84327e-10
-4.90692e-10
8.46826e-10
-4.11367e-10
8.94598e-10
-3.31333e-10
9.28466e-10
-2.52967e-10
9.49544e-10
-1.78115e-10
9.59094e-10
-1.08121e-10
9.58438e-10
-4.38756e-11
9.48882e-10
1.41142e-11
9.31677e-10
6.56615e-11
9.07986e-10
1.10837e-10
8.78872e-10
1.49902e-10
8.45289e-10
1.8326e-10
8.08077e-10
2.11403e-10
7.67972e-10
2.34871e-10
7.25605e-10
2.54217e-10
6.81516e-10
2.69972e-10
6.36156e-10
2.82616e-10
5.89904e-10
2.92551e-10
5.43073e-10
3.0009e-10
4.95933e-10
3.05441e-10
4.48713e-10
3.08715e-10
4.0164e-10
3.0991e-10
3.54939e-10
3.08926e-10
3.0887e-10
3.05537e-10
2.63727e-10
2.99399e-10
2.19889e-10
2.90035e-10
1.77816e-10
2.769e-10
1.38111e-10
2.59426e-10
1.01489e-10
2.37107e-10
6.88202e-11
2.0934e-10
4.11058e-11
1.75464e-10
1.95065e-11
1.35251e-10
5.33158e-12
8.81623e-11
3.24372e-11
-5.2635e-12
3.67374e-11
-1.95524e-11
1.00722e-10
-4.14155e-11
1.55809e-10
-6.9499e-11
2.03015e-10
-1.02769e-10
2.42931e-10
-1.40173e-10
2.76028e-10
-1.80767e-10
3.02978e-10
-2.23854e-10
3.24477e-10
-2.68924e-10
3.41098e-10
-3.15517e-10
3.53392e-10
-3.63264e-10
3.61949e-10
-4.11858e-10
3.67246e-10
-4.61072e-10
3.69622e-10
-5.10697e-10
3.69239e-10
-5.60533e-10
3.66139e-10
-6.1035e-10
3.60248e-10
-6.59892e-10
3.51413e-10
-7.08851e-10
3.39399e-10
-7.56868e-10
3.23913e-10
-8.03511e-10
3.04604e-10
-8.48265e-10
2.81075e-10
-8.90508e-10
2.52884e-10
-9.29499e-10
2.19556e-10
-9.64358e-10
1.80593e-10
-9.94057e-10
1.35494e-10
-1.01742e-09
8.38002e-11
-1.0331e-09
2.51411e-11
-1.03966e-09
-4.06979e-11
-1.03552e-09
-1.13701e-10
-1.01909e-09
-1.93541e-10
-9.88779e-10
-2.79492e-10
-9.43132e-10
-3.70347e-10
-8.80925e-10
-4.64327e-10
-8.01358e-10
-5.5898e-10
-7.04278e-10
-6.51154e-10
-5.90399e-10
-7.37087e-10
-4.61426e-10
-8.12726e-10
-3.20028e-10
-8.74172e-10
-1.69696e-10
-9.18079e-10
-1.45163e-11
-9.41956e-10
1.41096e-10
-9.44387e-10
2.92697e-10
-9.25155e-10
4.3611e-10
-8.85243e-10
5.67688e-10
-8.26753e-10
6.84538e-10
-7.52731e-10
7.84687e-10
-6.66932e-10
8.67167e-10
-5.73483e-10
9.31966e-10
-4.76465e-10
9.79844e-10
-3.79487e-10
1.01207e-09
-2.85432e-10
1.03018e-09
-1.96421e-10
1.03583e-09
-1.13907e-10
1.03067e-09
-3.87881e-11
1.01627e-09
2.84922e-11
9.94077e-10
8.78566e-11
9.65427e-10
1.39509e-10
9.3149e-10
1.83861e-10
8.93297e-10
2.21464e-10
8.51742e-10
2.52954e-10
8.07591e-10
2.79007e-10
7.61494e-10
3.00295e-10
7.13993e-10
3.17456e-10
6.65537e-10
3.31065e-10
6.16486e-10
3.41609e-10
5.67135e-10
3.49467e-10
5.17715e-10
3.54905e-10
4.68424e-10
3.58065e-10
4.19436e-10
3.58973e-10
3.70938e-10
3.57512e-10
3.23127e-10
3.53445e-10
2.76266e-10
3.46365e-10
2.30678e-10
3.35735e-10
1.86818e-10
3.20877e-10
1.45268e-10
3.01097e-10
1.06814e-10
2.75685e-10
7.23999e-11
2.43881e-10
4.31594e-11
2.04833e-10
2.03914e-11
1.58147e-10
5.53316e-12
1.03149e-10
3.80259e-11
-5.43275e-12
4.22331e-11
-2.0357e-11
1.15761e-10
-4.32839e-11
1.78843e-10
-7.26872e-11
2.32521e-10
-1.07335e-10
2.7768e-10
-1.46148e-10
3.14943e-10
-1.8807e-10
3.45002e-10
-2.3234e-10
3.68848e-10
-2.78439e-10
3.87297e-10
-3.26005e-10
4.01055e-10
-3.74727e-10
4.10766e-10
-4.24382e-10
4.16995e-10
-4.74787e-10
4.20117e-10
-5.25805e-10
4.20343e-10
-5.77289e-10
4.17705e-10
-6.29079e-10
4.12115e-10
-6.80973e-10
4.03377e-10
-7.32719e-10
3.91208e-10
-7.83999e-10
3.75247e-10
-8.34417e-10
3.55067e-10
-8.8348e-10
3.30172e-10
-9.30575e-10
3.00003e-10
-9.74946e-10
2.63942e-10
-1.01567e-09
2.21322e-10
-1.05164e-09
1.71459e-10
-1.08155e-09
1.1369e-10
-1.10388e-09
4.74382e-11
-1.11691e-09
-2.77066e-11
-1.11879e-09
-1.11893e-10
-1.10751e-09
-2.04909e-10
-1.08104e-09
-3.06076e-10
-1.0374e-09
-4.14141e-10
-9.74794e-10
-5.27126e-10
-8.91846e-10
-6.42159e-10
-7.87948e-10
-7.55321e-10
-6.63629e-10
-8.61712e-10
-5.20765e-10
-9.55925e-10
-3.62537e-10
-1.03276e-09
-1.9321e-10
-1.08777e-09
-1.78383e-11
-1.11769e-09
1.58096e-10
-1.12068e-09
3.29087e-10
-1.0965e-09
4.8999e-10
-1.04649e-09
6.36357e-10
-9.73461e-10
7.64725e-10
-8.81439e-10
8.7284e-10
-7.75388e-10
9.59792e-10
-6.60774e-10
1.02595e-09
-5.42954e-10
1.07265e-09
-4.26509e-10
1.10178e-09
-3.14864e-10
1.11546e-09
-2.10354e-10
1.1158e-09
-1.14444e-10
1.10484e-09
-2.79473e-11
1.08445e-09
4.88372e-11
1.0563e-09
1.16008e-10
1.02189e-09
1.73965e-10
9.82492e-10
2.23316e-10
9.39208e-10
2.64803e-10
8.92969e-10
2.99234e-10
8.44558e-10
3.27442e-10
7.94627e-10
3.50237e-10
7.4371e-10
3.68379e-10
6.92236e-10
3.82549e-10
6.40541e-10
3.93323e-10
5.88881e-10
4.01159e-10
5.37451e-10
4.06382e-10
4.86394e-10
4.09185e-10
4.35834e-10
4.09609e-10
3.85882e-10
4.07551e-10
3.36688e-10
4.02737e-10
2.88429e-10
3.94728e-10
2.41392e-10
3.82882e-10
1.95964e-10
3.66418e-10
1.52732e-10
3.44445e-10
1.12491e-10
3.16044e-10
7.63e-11
2.80192e-10
4.54278e-11
2.35827e-10
2.13825e-11
1.82312e-10
5.7551e-12
1.18896e-10
4.38318e-11
-5.66078e-12
4.79532e-11
-2.13571e-11
1.31564e-10
-4.5564e-11
2.03151e-10
-7.65067e-11
2.63558e-10
-1.12646e-10
3.13914e-10
-1.52784e-10
3.55177e-10
-1.95875e-10
3.8819e-10
-2.41095e-10
4.14166e-10
-2.87947e-10
4.34247e-10
-3.36118e-10
4.49325e-10
-3.85426e-10
4.60172e-10
-4.35729e-10
4.67393e-10
-4.86943e-10
4.71425e-10
-5.38992e-10
4.72484e-10
-5.91813e-10
4.70613e-10
-6.45308e-10
4.65694e-10
-6.99346e-10
4.57493e-10
-7.53736e-10
4.45669e-10
-8.08219e-10
4.29794e-10
-8.62448e-10
4.09352e-10
-9.1597e-10
3.83743e-10
-9.68203e-10
3.52277e-10
-1.0184e-09
3.14173e-10
-1.06563e-09
2.68572e-10
-1.10871e-09
2.14558e-10
-1.14623e-09
1.51213e-10
-1.17649e-09
7.76867e-11
-1.19753e-09
-6.70528e-12
-1.20712e-09
-1.02366e-10
-1.20283e-09
-2.09288e-10
-1.1821e-09
-3.26943e-10
-1.14229e-09
-4.5414e-10
-1.08082e-09
-5.88834e-10
-9.95479e-10
-7.27792e-10
-8.84919e-10
-8.6623e-10
-7.49307e-10
-9.97722e-10
-5.90701e-10
-1.11497e-09
-4.12928e-10
-1.211e-09
-2.21263e-10
-1.27993e-09
-2.20159e-11
-1.31742e-09
1.77938e-10
-1.3211e-09
3.71711e-10
-1.2907e-09
5.52923e-10
-1.22811e-09
7.16122e-10
-1.13704e-09
8.57134e-10
-1.02281e-09
9.73377e-10
-8.9199e-10
1.06408e-09
-7.51836e-10
1.13022e-09
-6.09456e-10
1.17402e-09
-4.70674e-10
1.19826e-09
-3.39452e-10
1.20575e-09
-2.18174e-10
1.19919e-09
-1.0815e-10
1.18101e-09
-9.96747e-12
1.15341e-09
7.63214e-11
1.11831e-09
1.51079e-10
1.07734e-09
2.14969e-10
1.03187e-09
2.68854e-10
9.8306e-10
3.137e-10
9.31847e-10
3.50525e-10
8.79017e-10
3.80335e-10
8.25204e-10
4.04097e-10
7.70916e-10
4.22702e-10
7.16549e-10
4.36946e-10
6.624e-10
4.47504e-10
6.08685e-10
4.54916e-10
5.5554e-10
4.59579e-10
5.03056e-10
4.61733e-10
4.51284e-10
4.61458e-10
4.00269e-10
4.58653e-10
3.50066e-10
4.53035e-10
3.00786e-10
4.44109e-10
2.52614e-10
4.31161e-10
2.0588e-10
4.1326e-10
1.61105e-10
3.89331e-10
1.19106e-10
3.58154e-10
8.10029e-11
3.18406e-10
4.82678e-11
2.68674e-10
2.26557e-11
2.08034e-10
6.03513e-12
1.35625e-10
4.99129e-11
-6.00725e-12
5.40155e-11
-2.28135e-11
1.48468e-10
-4.86845e-11
2.29116e-10
-8.1522e-11
2.96481e-10
-1.19375e-10
3.51853e-10
-1.60822e-10
3.96714e-10
-2.04842e-10
4.32303e-10
-2.50707e-10
4.60126e-10
-2.97948e-10
4.81584e-10
-3.46353e-10
4.97827e-10
-3.95829e-10
5.09745e-10
-4.46369e-10
5.1803e-10
-4.97979e-10
5.23131e-10
-5.50687e-10
5.25286e-10
-6.04499e-10
5.24518e-10
-6.59402e-10
5.20686e-10
-7.15335e-10
5.1351e-10
-7.72178e-10
5.02592e-10
-8.2974e-10
4.8743e-10
-8.87739e-10
4.67419e-10
-9.45785e-10
4.41851e-10
-1.00335e-09
4.09897e-10
-1.05973e-09
3.70605e-10
-1.114e-09
3.22888e-10
-1.16498e-09
2.65567e-10
-1.21116e-09
1.97405e-10
-1.25068e-09
1.17205e-10
-1.28133e-09
2.39091e-11
-1.30052e-09
-8.32435e-11
-1.30537e-09
-2.04571e-10
-1.29267e-09
-3.39816e-10
-1.25902e-09
-4.88037e-10
-1.20083e-09
-6.47346e-10
-1.11464e-09
-8.14375e-10
-9.97908e-10
-9.83435e-10
-8.50152e-10
-1.14602e-09
-6.73615e-10
-1.29212e-09
-4.7297e-10
-1.41232e-09
-2.54791e-10
-1.4988e-09
-2.70468e-11
-1.54586e-09
2.01539e-10
-1.55034e-09
4.22257e-10
-1.51202e-09
6.27144e-10
-1.43352e-09
8.09495e-10
-1.31984e-09
9.6427e-10
-1.17799e-09
1.08851e-09
-1.0166e-09
1.18171e-09
-8.45398e-10
1.24582e-09
-6.73937e-10
1.28444e-09
-5.0966e-10
1.30153e-09
-3.56922e-10
1.30081e-09
-2.17829e-10
1.28556e-09
-9.32477e-11
1.25867e-09
1.66377e-11
1.22264e-09
1.12148e-10
1.17962e-09
1.94005e-10
1.13135e-09
2.6322e-10
1.07929e-09
3.20965e-10
1.0246e-09
3.6848e-10
9.68215e-10
4.07006e-10
9.10893e-10
4.37748e-10
8.53231e-10
4.61836e-10
7.9569e-10
4.80305e-10
7.38619e-10
4.94069e-10
6.82267e-10
5.03905e-10
6.26792e-10
5.10441e-10
5.72278e-10
5.14152e-10
5.18741e-10
5.15337e-10
4.66166e-10
5.1411e-10
4.14508e-10
5.10395e-10
3.63742e-10
5.03894e-10
3.13865e-10
4.94085e-10
2.64963e-10
4.80163e-10
2.17238e-10
4.61087e-10
1.71133e-10
4.35539e-10
1.27393e-10
4.01996e-10
8.72017e-11
3.58699e-10
5.21995e-11
3.03777e-10
2.45145e-11
2.35818e-10
6.45427e-12
1.53783e-10
5.6408e-11
-6.62291e-12
6.06893e-11
-2.52304e-11
1.67164e-10
-5.34894e-11
2.57467e-10
-8.86544e-11
3.31724e-10
-1.28445e-10
3.91721e-10
-1.71148e-10
4.39498e-10
-2.15806e-10
4.77046e-10
-2.61853e-10
5.06262e-10
-3.09003e-10
5.28825e-10
-3.57149e-10
5.46066e-10
-4.06337e-10
5.59027e-10
-4.56659e-10
5.68446e-10
-5.08243e-10
5.7481e-10
-5.61204e-10
5.78341e-10
-6.15641e-10
5.79048e-10
-6.71615e-10
5.7675e-10
-7.29142e-10
5.71125e-10
-7.88182e-10
5.61716e-10
-8.48616e-10
5.47946e-10
-9.10243e-10
5.29125e-10
-9.72752e-10
5.04435e-10
-1.0357e-09
4.72917e-10
-1.09847e-09
4.33435e-10
-1.16019e-09
3.84668e-10
-1.2197e-09
3.25123e-10
-1.27548e-09
2.53201e-10
-1.32555e-09
1.67264e-10
-1.36747e-09
6.57777e-11
-1.3983e-09
-5.25116e-11
-1.41467e-09
-1.88372e-10
-1.41275e-09
-3.41976e-10
-1.38826e-09
-5.12856e-10
-1.33632e-09
-6.997e-10
-1.25172e-09
-8.99492e-10
-1.12993e-09
-1.10584e-09
-9.6935e-10
-1.30732e-09
-7.72417e-10
-1.48988e-09
-5.4487e-10
-1.64081e-09
-2.9497e-10
-1.74974e-09
-3.28797e-11
-1.80903e-09
2.30135e-10
-1.8144e-09
4.82903e-10
-1.76574e-09
7.15399e-10
-1.66683e-09
9.19381e-10
-1.52449e-09
1.08881e-09
-1.34792e-09
1.22036e-09
-1.14854e-09
1.31396e-09
-9.39341e-10
1.37313e-09
-7.33438e-10
1.40353e-09
-5.40395e-10
1.41078e-09
-3.64521e-10
1.39958e-09
-2.06998e-10
1.37379e-09
-6.78396e-11
1.33671e-09
5.33797e-11
1.29111e-09
1.57469e-10
1.23931e-09
2.45623e-10
1.18317e-09
3.19285e-10
1.12413e-09
3.80002e-10
1.06336e-09
4.29317e-10
1.00174e-09
4.68719e-10
9.39981e-10
4.99613e-10
8.78608e-10
5.23305e-10
8.18024e-10
5.40972e-10
7.58515e-10
5.53649e-10
7.00269e-10
5.62214e-10
6.43384e-10
5.67387e-10
5.8788e-10
5.6972e-10