/*--------------------------------*- C++ -*----------------------------------*\
| =========                 |                                                 |
| \\      /  F ield         | OpenFOAM: The Open Source CFD Toolbox           |
|  \\    /   O peration     | Version:  2412                                  |
|   \\  /    A nd           | Website:  www.openfoam.com                      |
|    \\/     M anipulation  |                                                 |
\*---------------------------------------------------------------------------*/
FoamFile
{
    version     2.0;
    format      ascii;
    arch        "LSB;label=32;scalar=64";
    class       volScalarField;
    location    "5.75";
    object      p;
}
// * * * * * * * * * * * * * * * * * * * * * * * * * * * * * * * * * * * * * //

dimensions      [1 -1 -2 0 0 0 0];

internalField   nonuniform List<scalar> 
6400
(
15293.8
15293.8
15293.8
15293.8
15293.8
15293.8
15293.8
15293.8
15293.8
15293.8
15293.8
15293.8
15293.8
15293.8
15293.8
15293.8
15293.8
15293.8
15293.8
15293.8
15293.8
15293.8
15293.8
15293.8
15293.8
15293.8
15293.8
15293.8
15293.8
15293.9
15293.9
15293.9
15293.9
15293.9
15293.9
15293.9
15293.9
15293.9
15293.9
15293.9
15293.9
15293.9
15293.9
15293.9
15293.9
15293.9
15293.9
15293.9
15293.9
15293.9
15293.9
15293.9
15293.8
15293.8
15293.8
15293.8
15293.8
15293.8
15293.8
15293.8
15293.8
15293.8
15293.8
15293.8
15293.8
15293.8
15293.8
15293.8
15293.8
15293.8
15293.8
15293.8
15293.8
15293.8
15293.8
15293.8
15293.8
15293.8
15293.8
15293.8
14509
14509
14509
14509
14509
14509
14509
14509
14509
14509
14509
14509
14509
14509
14509
14509
14509
14509
14509
14509
14509
14509
14509
14509
14509
14509
14509
14509
14509
14509.1
14509.1
14509.1
14509.1
14509.1
14509.1
14509.1
14509.1
14509.1
14509.1
14509.1
14509.1
14509.1
14509.1
14509.1
14509.1
14509.1
14509.1
14509.1
14509.1
14509.1
14509.1
14509.1
14509
14509
14509
14509
14509
14509
14509
14509
14509
14509
14509
14509
14509
14509
14509
14509
14509
14509
14509
14509
14509
14509
14509
14509
14509
14509
14509
14509
13724.2
13724.2
13724.2
13724.2
13724.2
13724.2
13724.2
13724.2
13724.2
13724.2
13724.2
13724.2
13724.2
13724.2
13724.2
13724.2
13724.2
13724.2
13724.2
13724.2
13724.2
13724.2
13724.2
13724.2
13724.2
13724.2
13724.2
13724.2
13724.2
13724.3
13724.3
13724.3
13724.3
13724.3
13724.3
13724.3
13724.3
13724.3
13724.3
13724.3
13724.3
13724.3
13724.3
13724.3
13724.3
13724.3
13724.3
13724.3
13724.3
13724.3
13724.3
13724.3
13724.2
13724.2
13724.2
13724.2
13724.2
13724.2
13724.2
13724.2
13724.2
13724.2
13724.2
13724.2
13724.2
13724.2
13724.2
13724.2
13724.2
13724.2
13724.2
13724.2
13724.2
13724.2
13724.2
13724.2
13724.2
13724.2
13724.2
13724.2
12939.4
12939.4
12939.4
12939.4
12939.4
12939.4
12939.4
12939.4
12939.4
12939.4
12939.4
12939.4
12939.4
12939.4
12939.4
12939.4
12939.4
12939.4
12939.4
12939.4
12939.4
12939.4
12939.4
12939.4
12939.4
12939.4
12939.4
12939.4
12939.4
12939.5
12939.5
12939.5
12939.5
12939.5
12939.5
12939.5
12939.5
12939.5
12939.5
12939.5
12939.5
12939.5
12939.5
12939.5
12939.5
12939.5
12939.5
12939.5
12939.5
12939.5
12939.5
12939.5
12939.4
12939.4
12939.4
12939.4
12939.4
12939.4
12939.4
12939.4
12939.4
12939.4
12939.4
12939.4
12939.4
12939.4
12939.4
12939.4
12939.4
12939.4
12939.4
12939.4
12939.4
12939.4
12939.4
12939.4
12939.4
12939.4
12939.4
12939.4
12154.6
12154.6
12154.6
12154.6
12154.6
12154.6
12154.6
12154.6
12154.6
12154.6
12154.6
12154.6
12154.6
12154.6
12154.6
12154.6
12154.6
12154.6
12154.6
12154.6
12154.6
12154.6
12154.6
12154.6
12154.6
12154.6
12154.6
12154.6
12154.6
12154.7
12154.7
12154.7
12154.7
12154.7
12154.7
12154.7
12154.7
12154.7
12154.7
12154.7
12154.7
12154.7
12154.7
12154.7
12154.7
12154.7
12154.7
12154.7
12154.7
12154.7
12154.7
12154.7
12154.6
12154.6
12154.6
12154.6
12154.6
12154.6
12154.6
12154.6
12154.6
12154.6
12154.6
12154.6
12154.6
12154.6
12154.6
12154.6
12154.6
12154.6
12154.6
12154.6
12154.6
12154.6
12154.6
12154.6
12154.6
12154.6
12154.6
12154.6
11369.8
11369.8
11369.8
11369.8
11369.8
11369.8
11369.8
11369.8
11369.8
11369.8
11369.8
11369.8
11369.8
11369.8
11369.8
11369.8
11369.8
11369.8
11369.8
11369.8
11369.8
11369.8
11369.8
11369.8
11369.8
11369.8
11369.8
11369.8
11369.8
11369.9
11369.9
11369.9
11369.9
11369.9
11369.9
11369.9
11369.9
11369.9
11369.9
11369.9
11369.9
11369.9
11369.9
11369.9
11369.9
11369.9
11369.9
11369.9
11369.9
11369.9
11369.9
11369.9
11369.8
11369.8
11369.8
11369.8
11369.8
11369.8
11369.8
11369.8
11369.8
11369.8
11369.8
11369.8
11369.8
11369.8
11369.8
11369.8
11369.8
11369.8
11369.8
11369.8
11369.8
11369.8
11369.8
11369.8
11369.8
11369.8
11369.8
11369.8
10585
10585
10585
10585
10585
10585
10585
10585
10585
10585
10585
10585
10585
10585
10585
10585
10585
10585
10585
10585
10585
10585
10585
10585
10585
10585
10585
10585
10585
10585.1
10585.1
10585.1
10585.1
10585.1
10585.1
10585.1
10585.1
10585.1
10585.1
10585.1
10585.1
10585.1
10585.1
10585.1
10585.1
10585.1
10585.1
10585.1
10585.1
10585.1
10585.1
10585.1
10585
10585
10585
10585
10585
10585
10585
10585
10585
10585
10585
10585
10585
10585
10585
10585
10585
10585
10585
10585
10585
10585
10585
10585
10585
10585
10585
10585
9800.2
9800.2
9800.2
9800.2
9800.2
9800.2
9800.2
9800.2
9800.2
9800.21
9800.21
9800.21
9800.21
9800.21
9800.21
9800.21
9800.21
9800.22
9800.22
9800.22
9800.22
9800.23
9800.23
9800.23
9800.24
9800.24
9800.24
9800.24
9800.25
9800.25
9800.26
9800.26
9800.26
9800.27
9800.27
9800.27
9800.27
9800.27
9800.28
9800.28
9800.28
9800.28
9800.27
9800.27
9800.27
9800.27
9800.27
9800.26
9800.26
9800.26
9800.25
9800.25
9800.25
9800.24
9800.24
9800.24
9800.24
9800.23
9800.23
9800.23
9800.22
9800.22
9800.22
9800.22
9800.22
9800.22
9800.21
9800.21
9800.21
9800.21
9800.21
9800.21
9800.21
9800.21
9800.21
9800.21
9800.21
9800.21
9800.21
9800.21
9015.4
9015.4
9015.4
9015.4
9015.4
9015.4
9015.4
9015.4
9015.4
9015.41
9015.41
9015.41
9015.41
9015.41
9015.41
9015.41
9015.41
9015.42
9015.42
9015.42
9015.42
9015.43
9015.43
9015.43
9015.43
9015.44
9015.44
9015.44
9015.45
9015.45
9015.46
9015.46
9015.46
9015.47
9015.47
9015.47
9015.47
9015.48
9015.48
9015.48
9015.48
9015.48
9015.48
9015.48
9015.47
9015.47
9015.47
9015.46
9015.46
9015.46
9015.45
9015.45
9015.45
9015.44
9015.44
9015.44
9015.43
9015.43
9015.43
9015.43
9015.42
9015.42
9015.42
9015.42
9015.42
9015.41
9015.41
9015.41
9015.41
9015.41
9015.41
9015.41
9015.41
9015.41
9015.41
9015.41
9015.41
9015.41
9015.41
9015.41
8230.6
8230.6
8230.6
8230.6
8230.6
8230.6
8230.6
8230.6
8230.6
8230.6
8230.61
8230.61
8230.61
8230.61
8230.61
8230.61
8230.61
8230.62
8230.62
8230.62
8230.62
8230.62
8230.63
8230.63
8230.63
8230.64
8230.64
8230.64
8230.65
8230.65
8230.66
8230.66
8230.66
8230.67
8230.67
8230.67
8230.68
8230.68
8230.68
8230.68
8230.68
8230.68
8230.68
8230.68
8230.68
8230.67
8230.67
8230.67
8230.66
8230.66
8230.65
8230.65
8230.65
8230.64
8230.64
8230.64
8230.63
8230.63
8230.63
8230.63
8230.62
8230.62
8230.62
8230.62
8230.62
8230.61
8230.61
8230.61
8230.61
8230.61
8230.61
8230.61
8230.61
8230.61
8230.61
8230.61
8230.61
8230.61
8230.61
8230.61
7445.8
7445.8
7445.8
7445.8
7445.8
7445.8
7445.8
7445.8
7445.8
7445.8
7445.8
7445.81
7445.81
7445.81
7445.81
7445.81
7445.81
7445.81
7445.82
7445.82
7445.82
7445.82
7445.83
7445.83
7445.83
7445.84
7445.84
7445.84
7445.85
7445.85
7445.86
7445.86
7445.86
7445.87
7445.87
7445.88
7445.88
7445.88
7445.88
7445.89
7445.89
7445.88
7445.88
7445.88
7445.88
7445.87
7445.87
7445.87
7445.86
7445.86
7445.85
7445.85
7445.85
7445.84
7445.84
7445.84
7445.83
7445.83
7445.83
7445.82
7445.82
7445.82
7445.82
7445.82
7445.81
7445.81
7445.81
7445.81
7445.81
7445.81
7445.81
7445.81
7445.81
7445.81
7445.81
7445.81
7445.81
7445.81
7445.81
7445.81
6661
6661
6661
6661
6661
6661
6661
6661
6661
6661
6661
6661.01
6661.01
6661.01
6661.01
6661.01
6661.01
6661.01
6661.02
6661.02
6661.02
6661.02
6661.03
6661.03
6661.03
6661.04
6661.04
6661.04
6661.05
6661.05
6661.06
6661.06
6661.07
6661.07
6661.08
6661.08
6661.08
6661.09
6661.09
6661.09
6661.09
6661.09
6661.09
6661.08
6661.08
6661.08
6661.07
6661.07
6661.06
6661.06
6661.05
6661.05
6661.05
6661.04
6661.04
6661.03
6661.03
6661.03
6661.03
6661.02
6661.02
6661.02
6661.02
6661.01
6661.01
6661.01
6661.01
6661.01
6661.01
6661.01
6661.01
6661.01
6661.01
6661.01
6661.01
6661.01
6661.01
6661.01
6661.01
6661.01
5876.2
5876.2
5876.2
5876.2
5876.2
5876.2
5876.2
5876.2
5876.2
5876.2
5876.2
5876.2
5876.21
5876.21
5876.21
5876.21
5876.21
5876.21
5876.21
5876.22
5876.22
5876.22
5876.22
5876.23
5876.23
5876.23
5876.24
5876.24
5876.25
5876.25
5876.26
5876.26
5876.27
5876.27
5876.28
5876.28
5876.29
5876.29
5876.29
5876.3
5876.3
5876.3
5876.29
5876.29
5876.29
5876.28
5876.28
5876.27
5876.26
5876.26
5876.25
5876.25
5876.24
5876.24
5876.24
5876.23
5876.23
5876.23
5876.22
5876.22
5876.22
5876.22
5876.22
5876.21
5876.21
5876.21
5876.21
5876.21
5876.21
5876.21
5876.21
5876.21
5876.2
5876.2
5876.2
5876.2
5876.2
5876.21
5876.21
5876.21
5091.4
5091.4
5091.4
5091.4
5091.4
5091.4
5091.4
5091.4
5091.4
5091.4
5091.4
5091.4
5091.4
5091.4
5091.41
5091.41
5091.41
5091.41
5091.41
5091.41
5091.42
5091.42
5091.42
5091.43
5091.43
5091.43
5091.44
5091.44
5091.45
5091.45
5091.46
5091.46
5091.47
5091.48
5091.48
5091.49
5091.49
5091.5
5091.5
5091.5
5091.5
5091.5
5091.5
5091.5
5091.49
5091.48
5091.48
5091.47
5091.47
5091.46
5091.45
5091.45
5091.44
5091.44
5091.44
5091.43
5091.43
5091.43
5091.42
5091.42
5091.42
5091.42
5091.41
5091.41
5091.41
5091.41
5091.41
5091.41
5091.41
5091.41
5091.4
5091.4
5091.4
5091.4
5091.4
5091.4
5091.4
5091.4
5091.41
5091.41
4306.6
4306.6
4306.6
4306.6
4306.6
4306.6
4306.6
4306.6
4306.6
4306.6
4306.6
4306.6
4306.6
4306.6
4306.6
4306.61
4306.61
4306.61
4306.61
4306.61
4306.61
4306.62
4306.62
4306.62
4306.63
4306.63
4306.63
4306.64
4306.64
4306.65
4306.66
4306.66
4306.67
4306.68
4306.69
4306.69
4306.7
4306.71
4306.71
4306.71
4306.71
4306.71
4306.71
4306.7
4306.7
4306.69
4306.68
4306.67
4306.67
4306.66
4306.65
4306.65
4306.64
4306.64
4306.63
4306.63
4306.63
4306.62
4306.62
4306.62
4306.62
4306.61
4306.61
4306.61
4306.61
4306.61
4306.61
4306.61
4306.6
4306.6
4306.6
4306.6
4306.6
4306.6
4306.6
4306.6
4306.6
4306.6
4306.6
4306.61
3521.8
3521.8
3521.8
3521.8
3521.8
3521.8
3521.8
3521.8
3521.8
3521.8
3521.8
3521.8
3521.8
3521.8
3521.8
3521.8
3521.81
3521.81
3521.81
3521.81
3521.81
3521.81
3521.82
3521.82
3521.82
3521.83
3521.83
3521.84
3521.84
3521.85
3521.86
3521.86
3521.87
3521.88
3521.89
3521.9
3521.91
3521.92
3521.92
3521.92
3521.92
3521.92
3521.92
3521.91
3521.9
3521.89
3521.89
3521.88
3521.87
3521.86
3521.85
3521.85
3521.84
3521.84
3521.83
3521.83
3521.82
3521.82
3521.82
3521.82
3521.81
3521.81
3521.81
3521.81
3521.81
3521.81
3521.8
3521.8
3521.8
3521.8
3521.8
3521.8
3521.8
3521.8
3521.8
3521.8
3521.8
3521.8
3521.8
3521.8
2737
2737
2737
2737
2737
2737
2737
2737
2737
2737
2737
2737
2737
2737
2737
2737
2737
2737
2737.01
2737.01
2737.01
2737.01
2737.01
2737.02
2737.02
2737.02
2737.03
2737.03
2737.04
2737.05
2737.05
2737.06
2737.07
2737.08
2737.1
2737.11
2737.12
2737.13
2737.13
2737.14
2737.14
2737.13
2737.13
2737.12
2737.11
2737.1
2737.09
2737.08
2737.07
2737.06
2737.05
2737.04
2737.04
2737.03
2737.03
2737.02
2737.02
2737.02
2737.02
2737.01
2737.01
2737.01
2737.01
2737.01
2737.01
2737
2737
2737
2737
2737
2737
2737
2737
2737
2737
2737
2737
2737
2737
2737
1952.2
1952.2
1952.2
1952.2
1952.2
1952.2
1952.2
1952.2
1952.2
1952.2
1952.2
1952.2
1952.2
1952.2
1952.2
1952.2
1952.2
1952.2
1952.2
1952.21
1952.21
1952.21
1952.21
1952.21
1952.22
1952.22
1952.23
1952.23
1952.24
1952.24
1952.25
1952.26
1952.27
1952.29
1952.3
1952.32
1952.33
1952.34
1952.34
1952.35
1952.35
1952.35
1952.34
1952.33
1952.32
1952.31
1952.29
1952.28
1952.27
1952.26
1952.25
1952.24
1952.24
1952.23
1952.23
1952.22
1952.22
1952.22
1952.21
1952.21
1952.21
1952.21
1952.21
1952.2
1952.2
1952.2
1952.2
1952.2
1952.2
1952.2
1952.2
1952.2
1952.2
1952.2
1952.2
1952.2
1952.2
1952.2
1952.2
1952.2
1167.4
1167.4
1167.4
1167.39
1167.39
1167.39
1167.39
1167.39
1167.39
1167.39
1167.4
1167.4
1167.4
1167.4
1167.4
1167.4
1167.4
1167.4
1167.4
1167.4
1167.4
1167.41
1167.41
1167.41
1167.41
1167.42
1167.42
1167.43
1167.43
1167.44
1167.45
1167.46
1167.47
1167.49
1167.51
1167.53
1167.54
1167.55
1167.56
1167.57
1167.57
1167.56
1167.56
1167.55
1167.53
1167.52
1167.5
1167.48
1167.46
1167.45
1167.45
1167.44
1167.43
1167.43
1167.42
1167.42
1167.41
1167.41
1167.41
1167.41
1167.41
1167.4
1167.4
1167.4
1167.4
1167.4
1167.4
1167.4
1167.4
1167.4
1167.4
1167.4
1167.4
1167.4
1167.4
1167.4
1167.4
1167.4
1167.4
1167.4
382.595
382.591
382.59
382.59
382.59
382.59
382.59
382.59
382.59
382.59
382.591
382.591
382.591
382.591
382.592
382.592
382.593
382.593
382.594
382.595
382.595
382.597
382.598
382.6
382.602
382.605
382.608
382.613
382.618
382.626
382.635
382.647
382.661
382.681
382.708
382.743
382.779
382.813
382.84
382.854
382.855
382.842
382.818
382.785
382.752
382.721
382.692
382.669
382.654
382.642
382.633
382.625
382.619
382.614
382.61
382.607
382.604
382.602
382.6
382.599
382.598
382.597
382.596
382.596
382.595
382.595
382.594
382.594
382.593
382.593
382.593
382.592
382.592
382.592
382.592
382.592
382.591
382.592
382.593
382.596
-10.0607
-10.0603
-10.0603
-10.0602
-10.0601
-10.0601
-10.0601
-10.06
-10.06
-10.06
-10.06
-10.06
-10.0599
-10.0598
-10.0596
-10.0594
-10.0592
-10.0589
-10.0586
-10.0582
-10.0577
-10.057
-10.056
-10.0548
-10.0531
-10.0507
-10.0476
-10.0434
-10.0376
-10.0297
-10.019
-10.0047
-9.98619
-9.96289
-9.93291
-9.89193
-9.83937
-9.78609
-9.74593
-9.72426
-9.72255
-9.74186
-9.78195
-9.83362
-9.88268
-9.92249
-9.95255
-9.97525
-9.99386
-10.009
-10.0206
-10.0293
-10.036
-10.041
-10.0448
-10.0477
-10.0498
-10.0514
-10.0527
-10.0537
-10.0544
-10.0551
-10.0556
-10.056
-10.0563
-10.0566
-10.0568
-10.057
-10.0571
-10.0572
-10.0572
-10.0573
-10.0573
-10.0574
-10.0574
-10.0575
-10.0576
-10.0577
-10.0578
-10.0582
-10.5528
-10.5528
-10.5528
-10.5528
-10.5528
-10.5528
-10.5528
-10.5528
-10.5527
-10.5527
-10.5526
-10.5525
-10.5524
-10.5523
-10.5521
-10.5519
-10.5516
-10.5513
-10.5509
-10.5504
-10.5499
-10.5491
-10.5481
-10.5467
-10.5448
-10.5423
-10.5389
-10.5342
-10.5278
-10.5189
-10.5065
-10.4896
-10.4676
-10.4413
-10.4113
-10.3747
-10.3306
-10.2866
-10.2521
-10.233
-10.2317
-10.249
-10.2829
-10.3258
-10.3678
-10.4038
-10.4321
-10.4555
-10.4768
-10.4948
-10.5086
-10.5188
-10.5263
-10.5319
-10.5362
-10.5393
-10.5416
-10.5434
-10.5447
-10.5456
-10.5464
-10.547
-10.5475
-10.5479
-10.5483
-10.5485
-10.5488
-10.5489
-10.5491
-10.5492
-10.5492
-10.5493
-10.5493
-10.5493
-10.5494
-10.5494
-10.5494
-10.5494
-10.5494
-10.5494
-11.0433
-11.0433
-11.0433
-11.0433
-11.0432
-11.0432
-11.0432
-11.0432
-11.0431
-11.0431
-11.043
-11.0429
-11.0427
-11.0426
-11.0423
-11.0421
-11.0418
-11.0414
-11.0409
-11.0404
-11.0397
-11.0389
-11.0378
-11.0365
-11.0347
-11.0324
-11.0293
-11.0251
-11.0196
-11.0121
-11.002
-10.9885
-10.9708
-10.9479
-10.9176
-10.8768
-10.8235
-10.7706
-10.7326
-10.7129
-10.7115
-10.7292
-10.7672
-10.8184
-10.8675
-10.9068
-10.9366
-10.9595
-10.9778
-10.9923
-11.0033
-11.0115
-11.0179
-11.0227
-11.0264
-11.0293
-11.0315
-11.0331
-11.0345
-11.0355
-11.0364
-11.0371
-11.0376
-11.0381
-11.0385
-11.0388
-11.039
-11.0392
-11.0394
-11.0395
-11.0396
-11.0397
-11.0397
-11.0398
-11.0398
-11.0398
-11.0398
-11.0398
-11.0398
-11.0398
-11.5338
-11.5338
-11.5338
-11.5338
-11.5338
-11.5338
-11.5338
-11.5337
-11.5337
-11.5336
-11.5336
-11.5335
-11.5333
-11.5332
-11.533
-11.5327
-11.5325
-11.5321
-11.5317
-11.5311
-11.5305
-11.5297
-11.5287
-11.5274
-11.5258
-11.5236
-11.5209
-11.5173
-11.5126
-11.5065
-11.4985
-11.488
-11.4747
-11.4574
-11.431
-11.3862
-11.3252
-11.2638
-11.2196
-11.1968
-11.1958
-11.2172
-11.2612
-11.3209
-11.3778
-11.4182
-11.4453
-11.464
-11.4782
-11.4895
-11.4983
-11.5051
-11.5103
-11.5145
-11.5178
-11.5204
-11.5224
-11.524
-11.5253
-11.5263
-11.5271
-11.5278
-11.5283
-11.5288
-11.5291
-11.5294
-11.5297
-11.5298
-11.53
-11.5301
-11.5302
-11.5302
-11.5303
-11.5303
-11.5303
-11.5303
-11.5304
-11.5304
-11.5304
-11.5304
-12.0243
-12.0243
-12.0243
-12.0243
-12.0243
-12.0243
-12.0243
-12.0242
-12.0242
-12.0242
-12.0241
-12.024
-12.0239
-12.0238
-12.0236
-12.0234
-12.0231
-12.0228
-12.0224
-12.022
-12.0214
-12.0208
-12.02
-12.019
-12.0177
-12.0161
-12.014
-12.0115
-12.0082
-12.0042
-11.999
-11.9925
-11.985
-11.9774
-11.9645
-11.9307
-11.8773
-11.8072
-11.7404
-11.703
-11.6984
-11.7287
-11.7867
-11.8474
-11.9059
-11.9443
-11.9638
-11.9748
-11.9834
-11.9907
-11.9966
-12.0012
-12.0049
-12.0079
-12.0104
-12.0124
-12.014
-12.0153
-12.0164
-12.0173
-12.018
-12.0186
-12.0191
-12.0195
-12.0198
-12.02
-12.0202
-12.0204
-12.0205
-12.0206
-12.0207
-12.0208
-12.0208
-12.0208
-12.0208
-12.0209
-12.0209
-12.0209
-12.0209
-12.0209
-12.5148
-12.5148
-12.5148
-12.5148
-12.5148
-12.5148
-12.5148
-12.5148
-12.5148
-12.5147
-12.5147
-12.5146
-12.5145
-12.5144
-12.5143
-12.5141
-12.5139
-12.5137
-12.5134
-12.513
-12.5126
-12.5122
-12.5117
-12.511
-12.5103
-12.5093
-12.5083
-12.507
-12.5055
-12.504
-12.5023
-12.5005
-12.5006
-12.5087
-12.5246
-12.5157
-12.4631
-12.3942
-12.3201
-12.26
-12.2424
-12.2823
-12.3512
-12.4158
-12.4635
-12.4931
-12.4945
-12.4914
-12.4924
-12.4949
-12.4972
-12.4991
-12.5008
-12.5024
-12.5039
-12.5051
-12.5062
-12.5071
-12.5079
-12.5085
-12.5091
-12.5096
-12.5099
-12.5103
-12.5105
-12.5107
-12.5109
-12.5111
-12.5112
-12.5112
-12.5113
-12.5113
-12.5114
-12.5114
-12.5114
-12.5114
-12.5114
-12.5114
-12.5114
-12.5114
-13.0053
-13.0053
-13.0053
-13.0053
-13.0053
-13.0053
-13.0053
-13.0053
-13.0053
-13.0053
-13.0053
-13.0052
-13.0052
-13.0051
-13.005
-13.0049
-13.0048
-13.0046
-13.0044
-13.0043
-13.0041
-13.0039
-13.0037
-13.0035
-13.0033
-13.0031
-13.0031
-13.0032
-13.0037
-13.0047
-13.0066
-13.0096
-13.0168
-13.0366
-13.0666
-13.0644
-12.9878
-12.8729
-12.9677
-12.9351
-12.9022
-12.9238
-12.9213
-12.9638
-13.0197
-13.059
-13.0357
-13.0119
-13.0033
-13.0004
-12.9988
-12.9979
-12.9975
-12.9976
-12.9979
-12.9983
-12.9988
-12.9992
-12.9996
-13
-13.0004
-13.0007
-13.0009
-13.0012
-13.0014
-13.0015
-13.0016
-13.0017
-13.0018
-13.0019
-13.0019
-13.0019
-13.0019
-13.0019
-13.0019
-13.0019
-13.0019
-13.0019
-13.0019
-13.0019
-13.4959
-13.4959
-13.4959
-13.4959
-13.4959
-13.4959
-13.4959
-13.4959
-13.4959
-13.4959
-13.4959
-13.4959
-13.4959
-13.4958
-13.4958
-13.4958
-13.4957
-13.4957
-13.4956
-13.4956
-13.4956
-13.4957
-13.4958
-13.4961
-13.4965
-13.4972
-13.4982
-13.4997
-13.502
-13.5054
-13.5103
-13.5173
-13.5294
-13.5531
-13.5825
-13.5833
-13.5115
-13.2339
-13.4833
-13.7148
-13.7468
-13.6784
-13.377
-13.4406
-13.5712
-13.6014
-13.5669
-13.5308
-13.5139
-13.5059
-13.5005
-13.4968
-13.4945
-13.4931
-13.4922
-13.4918
-13.4916
-13.4915
-13.4915
-13.4916
-13.4918
-13.4919
-13.492
-13.4921
-13.4923
-13.4923
-13.4924
-13.4925
-13.4925
-13.4925
-13.4925
-13.4925
-13.4925
-13.4925
-13.4925
-13.4925
-13.4925
-13.4925
-13.4925
-13.4925
-13.9864
-13.9864
-13.9864
-13.9864
-13.9864
-13.9864
-13.9865
-13.9865
-13.9865
-13.9865
-13.9865
-13.9866
-13.9866
-13.9866
-13.9866
-13.9867
-13.9867
-13.9868
-13.9869
-13.987
-13.9872
-13.9876
-13.9881
-13.9888
-13.9898
-13.9912
-13.9932
-13.9959
-13.9997
-14.0051
-14.0124
-14.0223
-14.0381
-14.0647
-14.0954
-14.0999
-14.087
-13.5639
-14.0789
-14.6921
-14.827
-14.323
-13.5845
-14.0213
-14.1184
-14.12
-14.084
-14.0443
-14.0218
-14.0096
-14.0011
-13.9951
-13.9911
-13.9884
-13.9865
-13.9853
-13.9844
-13.9839
-13.9835
-13.9833
-13.9832
-13.9832
-13.9832
-13.9832
-13.9832
-13.9832
-13.9832
-13.9832
-13.9832
-13.9832
-13.9832
-13.9831
-13.9831
-13.9831
-13.9831
-13.9831
-13.983
-13.983
-13.983
-13.983
-14.4769
-14.4769
-14.4769
-14.477
-14.477
-14.477
-14.477
-14.4771
-14.4771
-14.4771
-14.4772
-14.4772
-14.4773
-14.4774
-14.4775
-14.4776
-14.4777
-14.4779
-14.4781
-14.4784
-14.4789
-14.4795
-14.4804
-14.4815
-14.483
-14.4851
-14.4878
-14.4915
-14.4965
-14.5032
-14.5121
-14.5241
-14.5418
-14.5692
-14.5977
-14.6087
-14.6032
-13.9214
-14.9628
-16.3938
-16.5776
-14.1837
-13.7908
-14.6065
-14.6286
-14.6211
-14.5903
-14.5507
-14.5252
-14.5103
-14.4998
-14.4923
-14.487
-14.4832
-14.4805
-14.4786
-14.4772
-14.4762
-14.4755
-14.4751
-14.4747
-14.4745
-14.4743
-14.4742
-14.4741
-14.4741
-14.474
-14.474
-14.4739
-14.4739
-14.4738
-14.4738
-14.4737
-14.4737
-14.4737
-14.4736
-14.4736
-14.4736
-14.4736
-14.4736
-14.9674
-14.9675
-14.9675
-14.9675
-14.9675
-14.9675
-14.9676
-14.9676
-14.9677
-14.9678
-14.9678
-14.9679
-14.968
-14.9681
-14.9683
-14.9685
-14.9687
-14.969
-14.9693
-14.9698
-14.9705
-14.9714
-14.9725
-14.974
-14.9759
-14.9785
-14.9818
-14.9863
-14.9921
-14.9997
-15.0094
-15.0222
-15.0402
-15.065
-15.0884
-15.0981
-15.0861
-14.6147
-35.7104
-41.6623
-42.1295
-34.1529
-14.5296
-15.1128
-15.116
-15.111
-15.0865
-15.0486
-15.0234
-15.0077
-14.9963
-14.9879
-14.9818
-14.9774
-14.974
-14.9716
-14.9698
-14.9684
-14.9675
-14.9667
-14.9662
-14.9658
-14.9655
-14.9653
-14.9651
-14.9649
-14.9648
-14.9647
-14.9646
-14.9645
-14.9645
-14.9644
-14.9643
-14.9643
-14.9642
-14.9642
-14.9642
-14.9642
-14.9641
-14.9641
-15.458
-15.458
-15.458
-15.458
-15.4581
-15.4581
-15.4581
-15.4582
-15.4583
-15.4584
-15.4585
-15.4586
-15.4587
-15.4589
-15.4591
-15.4593
-15.4597
-15.46
-15.4605
-15.4612
-15.462
-15.4631
-15.4645
-15.4662
-15.4685
-15.4714
-15.4752
-15.48
-15.4863
-15.4943
-15.5043
-15.5169
-15.5337
-15.5555
-15.5738
-15.5805
-15.5737
-15.1968
-25.2329
-51.4057
-52.4639
-23.7823
-15.3857
-15.5926
-15.5965
-15.5928
-15.5742
-15.5387
-15.5169
-15.5018
-15.4905
-15.482
-15.4756
-15.4707
-15.467
-15.4642
-15.4621
-15.4605
-15.4592
-15.4583
-15.4576
-15.4571
-15.4566
-15.4563
-15.456
-15.4558
-15.4556
-15.4555
-15.4553
-15.4552
-15.4551
-15.455
-15.455
-15.4549
-15.4548
-15.4548
-15.4547
-15.4547
-15.4547
-15.4547
-15.9485
-15.9485
-15.9485
-15.9485
-15.9486
-15.9486
-15.9487
-15.9488
-15.9489
-15.949
-15.9491
-15.9492
-15.9494
-15.9496
-15.9499
-15.9502
-15.9506
-15.9511
-15.9516
-15.9524
-15.9534
-15.9546
-15.9562
-15.9582
-15.9607
-15.9638
-15.9678
-15.9728
-15.9792
-15.9872
-15.9969
-16.0089
-16.0236
-16.0424
-16.0577
-16.063
-16.0575
-15.7239
-11.9026
-22.3629
-21.2146
-9.84355
-15.9385
-16.0625
-16.0712
-16.0669
-16.0521
-16.0257
-16.0067
-15.9933
-15.9827
-15.9745
-15.9682
-15.9633
-15.9594
-15.9564
-15.9541
-15.9523
-15.9508
-15.9498
-15.9489
-15.9482
-15.9477
-15.9473
-15.9469
-15.9467
-15.9464
-15.9462
-15.946
-15.9459
-15.9458
-15.9457
-15.9456
-15.9455
-15.9454
-15.9454
-15.9453
-15.9453
-15.9453
-15.9452
-16.439
-16.439
-16.439
-16.4391
-16.4391
-16.4392
-16.4392
-16.4393
-16.4394
-16.4395
-16.4397
-16.4399
-16.4401
-16.4403
-16.4406
-16.441
-16.4414
-16.442
-16.4427
-16.4435
-16.4446
-16.446
-16.4477
-16.4498
-16.4524
-16.4557
-16.4597
-16.4647
-16.4709
-16.4786
-16.488
-16.4992
-16.5126
-16.5285
-16.5398
-16.545
-16.5392
-16.5657
-11.4958
-6.20972
-5.4998
-10.2077
-16.5259
-16.5287
-16.5407
-16.537
-16.5268
-16.5083
-16.4939
-16.4824
-16.4732
-16.4658
-16.4599
-16.455
-16.4512
-16.4481
-16.4457
-16.4438
-16.4422
-16.441
-16.4401
-16.4393
-16.4387
-16.4382
-16.4378
-16.4375
-16.4372
-16.4369
-16.4367
-16.4366
-16.4364
-16.4363
-16.4362
-16.4361
-16.436
-16.4359
-16.4359
-16.4358
-16.4358
-16.4358
-16.9295
-16.9295
-16.9295
-16.9296
-16.9296
-16.9297
-16.9298
-16.9299
-16.93
-16.9301
-16.9303
-16.9305
-16.9307
-16.931
-16.9313
-16.9317
-16.9322
-16.9328
-16.9336
-16.9345
-16.9357
-16.9371
-16.9389
-16.9411
-16.9437
-16.947
-16.951
-16.9558
-16.9618
-16.969
-16.9777
-16.988
-17.0001
-17.0137
-17.0227
-17.0272
-17.0217
-17.1343
-4.56585
15.1702
14.6784
-5.0309
-17.0182
-16.9976
-17.0107
-17.0076
-17.0017
-16.9898
-16.9796
-16.9705
-16.9627
-16.9562
-16.9507
-16.9461
-16.9424
-16.9394
-16.937
-16.935
-16.9334
-16.9322
-16.9311
-16.9303
-16.9296
-16.9291
-16.9286
-16.9282
-16.9279
-16.9276
-16.9274
-16.9272
-16.927
-16.9269
-16.9267
-16.9266
-16.9266
-16.9265
-16.9264
-16.9264
-16.9264
-16.9263
-17.42
-17.42
-17.42
-17.4201
-17.4201
-17.4202
-17.4203
-17.4204
-17.4205
-17.4206
-17.4208
-17.421
-17.4213
-17.4216
-17.422
-17.4224
-17.4229
-17.4236
-17.4244
-17.4253
-17.4265
-17.428
-17.4298
-17.432
-17.4347
-17.4379
-17.4417
-17.4463
-17.4519
-17.4586
-17.4665
-17.476
-17.4868
-17.499
-17.5071
-17.5098
-17.5023
-17.2992
-9.53745
9.61493
9.15979
-10.3074
-17.4515
-17.4752
-17.4861
-17.4832
-17.48
-17.4725
-17.4653
-17.4581
-17.4516
-17.4458
-17.4409
-17.4367
-17.4332
-17.4303
-17.4279
-17.426
-17.4244
-17.4231
-17.422
-17.4212
-17.4204
-17.4198
-17.4194
-17.4189
-17.4186
-17.4183
-17.418
-17.4178
-17.4176
-17.4175
-17.4173
-17.4172
-17.4171
-17.417
-17.417
-17.4169
-17.4169
-17.4169
-17.9105
-17.9105
-17.9105
-17.9105
-17.9106
-17.9107
-17.9108
-17.9109
-17.911
-17.9112
-17.9114
-17.9116
-17.9118
-17.9122
-17.9126
-17.913
-17.9136
-17.9142
-17.915
-17.916
-17.9172
-17.9187
-17.9204
-17.9226
-17.9252
-17.9283
-17.9319
-17.9363
-17.9414
-17.9475
-17.9548
-17.9633
-17.9732
-17.9849
-17.9937
-17.9974
-18.0039
-17.9393
-17.982
-17.9732
-17.9694
-18.0338
-17.9549
-17.9593
-17.9686
-17.9657
-17.9631
-17.9574
-17.9517
-17.9457
-17.9401
-17.9351
-17.9306
-17.9268
-17.9236
-17.9209
-17.9186
-17.9167
-17.9151
-17.9139
-17.9128
-17.9119
-17.9112
-17.9105
-17.91
-17.9096
-17.9092
-17.9089
-17.9086
-17.9084
-17.9082
-17.908
-17.9079
-17.9078
-17.9076
-17.9076
-17.9075
-17.9075
-17.9074
-17.9074
-18.4009
-18.4009
-18.401
-18.401
-18.4011
-18.4011
-18.4012
-18.4013
-18.4015
-18.4016
-18.4018
-18.4021
-18.4023
-18.4027
-18.4031
-18.4035
-18.4041
-18.4048
-18.4056
-18.4066
-18.4077
-18.4091
-18.4108
-18.4129
-18.4153
-18.4182
-18.4217
-18.4257
-18.4304
-18.436
-18.4425
-18.4502
-18.4593
-18.4705
-18.48
-18.4849
-18.4864
-18.4704
-18.4632
-18.4625
-18.4597
-18.4651
-18.4581
-18.4566
-18.4581
-18.454
-18.4497
-18.4441
-18.4388
-18.4334
-18.4285
-18.424
-18.4201
-18.4166
-18.4137
-18.4111
-18.409
-18.4072
-18.4057
-18.4044
-18.4034
-18.4025
-18.4018
-18.4012
-18.4006
-18.4002
-18.3998
-18.3995
-18.3992
-18.3989
-18.3987
-18.3986
-18.3984
-18.3983
-18.3982
-18.3981
-18.398
-18.398
-18.3979
-18.3979
-18.8914
-18.8914
-18.8914
-18.8915
-18.8915
-18.8916
-18.8917
-18.8918
-18.8919
-18.8921
-18.8923
-18.8925
-18.8928
-18.8931
-18.8935
-18.894
-18.8946
-18.8952
-18.896
-18.8969
-18.8981
-18.8994
-18.901
-18.9029
-18.9052
-18.9079
-18.911
-18.9147
-18.919
-18.9239
-18.9297
-18.9366
-18.9448
-18.9552
-18.9648
-18.9692
-18.9645
-18.9564
-18.9531
-18.9501
-18.9451
-18.9453
-18.9507
-18.968
-18.9509
-18.9447
-18.9379
-18.9315
-18.9262
-18.9212
-18.9168
-18.9128
-18.9092
-18.9061
-18.9034
-18.9011
-18.8992
-18.8975
-18.8961
-18.8949
-18.8939
-18.893
-18.8923
-18.8917
-18.8912
-18.8907
-18.8903
-18.89
-18.8897
-18.8895
-18.8893
-18.8891
-18.8889
-18.8888
-18.8887
-18.8886
-18.8885
-18.8885
-18.8885
-18.8884
-19.3818
-19.3818
-19.3819
-19.3819
-19.382
-19.382
-19.3821
-19.3822
-19.3824
-19.3825
-19.3827
-19.3829
-19.3832
-19.3835
-19.3839
-19.3844
-19.3849
-19.3855
-19.3863
-19.3872
-19.3883
-19.3895
-19.391
-19.3928
-19.3948
-19.3972
-19.4
-19.4033
-19.4071
-19.4115
-19.4166
-19.4226
-19.4297
-19.439
-19.4486
-19.453
-19.4493
-19.444
-19.4427
-19.4376
-19.4323
-19.4302
-19.4341
-19.4512
-19.4396
-19.433
-19.4251
-19.4186
-19.4134
-19.4089
-19.4049
-19.4013
-19.3982
-19.3954
-19.393
-19.3909
-19.3891
-19.3876
-19.3863
-19.3852
-19.3842
-19.3834
-19.3827
-19.3821
-19.3816
-19.3812
-19.3808
-19.3805
-19.3802
-19.38
-19.3798
-19.3796
-19.3794
-19.3793
-19.3792
-19.3791
-19.379
-19.379
-19.379
-19.3789
-19.8722
-19.8723
-19.8723
-19.8723
-19.8724
-19.8724
-19.8725
-19.8726
-19.8728
-19.8729
-19.8731
-19.8733
-19.8736
-19.8739
-19.8743
-19.8747
-19.8752
-19.8758
-19.8765
-19.8773
-19.8783
-19.8795
-19.8808
-19.8824
-19.8842
-19.8864
-19.8888
-19.8916
-19.8949
-19.8987
-19.903
-19.9081
-19.9141
-19.922
-19.9314
-19.9376
-19.9382
-19.9334
-19.933
-19.9273
-19.9212
-19.9201
-19.9212
-19.925
-19.923
-19.9177
-19.9105
-19.9048
-19.9002
-19.8962
-19.8927
-19.8896
-19.8869
-19.8845
-19.8824
-19.8805
-19.879
-19.8776
-19.8764
-19.8754
-19.8745
-19.8737
-19.8731
-19.8725
-19.872
-19.8716
-19.8713
-19.8709
-19.8707
-19.8704
-19.8702
-19.8701
-19.8699
-19.8698
-19.8697
-19.8696
-19.8695
-19.8695
-19.8694
-19.8694
-20.3627
-20.3627
-20.3627
-20.3627
-20.3628
-20.3628
-20.3629
-20.363
-20.3631
-20.3633
-20.3635
-20.3637
-20.3639
-20.3642
-20.3645
-20.3649
-20.3654
-20.366
-20.3666
-20.3674
-20.3683
-20.3693
-20.3705
-20.3719
-20.3735
-20.3753
-20.3774
-20.3798
-20.3825
-20.3857
-20.3892
-20.3933
-20.3983
-20.4047
-20.4131
-20.4205
-20.4239
-20.4225
-20.4217
-20.4156
-20.408
-20.4074
-20.4069
-20.4064
-20.4054
-20.4007
-20.3948
-20.3903
-20.3866
-20.3833
-20.3804
-20.3778
-20.3755
-20.3734
-20.3716
-20.37
-20.3686
-20.3674
-20.3664
-20.3654
-20.3647
-20.364
-20.3634
-20.3628
-20.3624
-20.362
-20.3617
-20.3614
-20.3611
-20.3609
-20.3607
-20.3605
-20.3604
-20.3602
-20.3601
-20.3601
-20.36
-20.3599
-20.3599
-20.3599
-20.8531
-20.8531
-20.8531
-20.8531
-20.8532
-20.8532
-20.8533
-20.8534
-20.8535
-20.8536
-20.8538
-20.854
-20.8542
-20.8545
-20.8548
-20.8551
-20.8556
-20.8561
-20.8566
-20.8573
-20.8581
-20.859
-20.8601
-20.8612
-20.8626
-20.8641
-20.8658
-20.8678
-20.87
-20.8725
-20.8753
-20.8785
-20.8822
-20.887
-20.8936
-20.9007
-20.9053
-20.906
-20.9039
-20.898
-20.8913
-20.8914
-20.891
-20.8896
-20.8872
-20.8832
-20.8788
-20.8755
-20.8727
-20.8702
-20.8679
-20.8658
-20.8639
-20.8622
-20.8607
-20.8594
-20.8582
-20.8572
-20.8562
-20.8554
-20.8547
-20.8541
-20.8536
-20.8531
-20.8527
-20.8523
-20.852
-20.8517
-20.8515
-20.8513
-20.8511
-20.8509
-20.8508
-20.8507
-20.8506
-20.8505
-20.8505
-20.8504
-20.8504
-20.8504
-21.3434
-21.3434
-21.3435
-21.3435
-21.3435
-21.3436
-21.3437
-21.3437
-21.3438
-21.344
-21.3441
-21.3443
-21.3445
-21.3447
-21.345
-21.3453
-21.3457
-21.3461
-21.3466
-21.3472
-21.3479
-21.3487
-21.3495
-21.3505
-21.3516
-21.3528
-21.3542
-21.3557
-21.3574
-21.3593
-21.3613
-21.3635
-21.366
-21.3691
-21.3734
-21.3784
-21.382
-21.3825
-21.3799
-21.3745
-21.3694
-21.3707
-21.3716
-21.371
-21.3688
-21.3658
-21.3629
-21.3608
-21.3588
-21.357
-21.3553
-21.3537
-21.3523
-21.351
-21.3498
-21.3487
-21.3477
-21.3468
-21.3461
-21.3454
-21.3448
-21.3442