/*--------------------------------*- C++ -*----------------------------------*\
| =========                 |                                                 |
| \\      /  F ield         | OpenFOAM: The Open Source CFD Toolbox           |
|  \\    /   O peration     | Version:  2412                                  |
|   \\  /    A nd           | Website:  www.openfoam.com                      |
|    \\/     M anipulation  |                                                 |
\*---------------------------------------------------------------------------*/
FoamFile
{
    version     2.0;
    format      ascii;
    arch        "LSB;label=32;scalar=64";
    class       volScalarField;
    location    "2.95";
    object      p_rgh;
}
// * * * * * * * * * * * * * * * * * * * * * * * * * * * * * * * * * * * * * //

dimensions      [1 -1 -2 0 0 0 0];

internalField   nonuniform List<scalar> 
6400
(
134342
134348
134358
134369
134380
134392
134402
134410
134415
134415
134410
134399
134380
134354
134319
134276
134224
134163
134094
134017
133932
133841
133743
133641
133535
133426
133315
133205
133096
132990
132887
132791
132701
132619
132548
132487
132438
132402
132379
132369
132374
132393
132426
132473
132533
132605
132688
132781
132882
132990
133104
133221
133341
133461
133580
133696
133808
133915
134015
134108
134192
134268
134334
134390
134437
134474
134502
134521
134532
134536
134533
134526
134515
134501
134485
134469
134454
134440
134429
134421
134335
134342
134352
134364
134377
134391
134402
134412
134418
134420
134417
134406
134389
134363
134329
134286
134234
134173
134104
134026
133940
133848
133749
133646
133538
133428
133316
133204
133094
132986
132882
132784
132693
132610
132537
132474
132424
132386
132363
132353
132358
132378
132412
132459
132520
132593
132677
132772
132874
132985
133100
133219
133341
133462
133583
133701
133815
133923
134024
134118
134203
134279
134345
134402
134448
134485
134512
134530
134539
134542
134538
134529
134516
134500
134483
134465
134448
134433
134421
134413
134323
134331
134343
134358
134373
134389
134404
134417
134426
134431
134429
134421
134405
134381
134348
134305
134253
134192
134121
134042
133955
133861
133761
133655
133545
133432
133317
133202
133089
132978
132871
132770
132676
132591
132515
132451
132399
132360
132335
132325
132330
132349
132384
132433
132495
132570
132657
132754
132861
132974
133093
133215
133340
133465
133589
133710
133827
133937
134041
134137
134223
134300
134367
134423
134469
134505
134530
134547
134554
134554
134548
134536
134520
134501
134480
134459
134440
134423
134408
134399
134307
134317
134331
134349
134368
134388
134408
134425
134438
134447
134449
134444
134430
134407
134375
134333
134281
134219
134147
134067
133977
133880
133777
133668
133554
133437
133318
133199
133081
132966
132855
132750
132651
132562
132483
132415
132360
132319
132293
132282
132287
132307
132342
132393
132458
132537
132627
132729
132839
132958
133082
133210
133340
133470
133598
133724
133844
133959
134066
134164
134252
134331
134398
134455
134500
134534
134558
134572
134577
134573
134563
134546
134526
134502
134477
134451
134428
134407
134390
134379
134284
134296
134314
134336
134361
134387
134413
134436
134455
134469
134475
134474
134464
134444
134413
134371
134319
134256
134182
134099
134007
133906
133799
133685
133566
133444
133320
133195
133071
132950
132833
132722
132618
132523
132439
132367
132308
132264
132236
132223
132228
132248
132286
132339
132408
132491
132586
132694
132811
132936
133067
133202
133339
133476
133611
133742
133868
133988
134099
134200
134291
134372
134440
134497
134541
134574
134596
134607
134607
134599
134583
134561
134534
134504
134472
134441
134411
134386
134365
134352
134253
134268
134291
134319
134352
134385
134419
134450
134477
134497
134510
134514
134507
134490
134461
134420
134367
134303
134227
134141
134045
133939
133826
133707
133582
133453
133322
133190
133058
132930
132805
132686
132575
132473
132383
132305
132241
132193
132162
132148
132152
132173
132213
132270
132343
132432
132534
132649
132774
132908
133048
133192
133337
133483
133627
133766
133899
134024
134141
134247
134341
134424
134494
134551
134594
134626
134644
134651
134647
134633
134610
134580
134545
134506
134466
134426
134389
134357
134332
134315
134211
134230
134260
134297
134338
134382
134427
134468
134504
134534
134555
134564
134562
134548
134521
134480
134427
134361
134282
134192
134091
133980
133860
133734
133601
133464
133325
133184
133043
132905
132771
132643
132522
132412
132314
132229
132159
132106
132071
132055
132058
132081
132123
132184
132263
132358
132469
132593
132729
132873
133024
133180
133336
133493
133646
133795
133937
134070
134193
134304
134403
134489
134560
134617
134660
134689
134704
134706
134695
134674
134643
134603
134558
134508
134457
134407
134360
134319
134287
134266
134154
134180
134218
134266
134320
134377
134435
134489
134538
134578
134607
134624
134628
134618
134593
134553
134499
134431
134348
134253
134146
134029
133902
133766
133625
133478
133328
133177
133025
132876
132730
132591
132460
132339
132231
132137
132060
132001
131961
131942
131944
131968
132014
132080
132166
132270
132391
132527
132675
132832
132997
133166
133336
133505
133671
133831
133983
134125
134256
134374
134478
134567
134640
134697
134739
134765
134776
134772
134754
134724
134683
134632
134573
134510
134445
134381
134322
134270
134228
134201
134078
134112
134162
134224
134295
134369
134444
134515
134578
134631
134672
134698
134708
134702
134680
134641
134585
134514
134427
134326
134212
134087
133950
133805
133653
133496
133334
133170
133006
132843
132684
132532
132387
132254
132134
132029
131943
131876
131830
131808
131810
131835
131884
131956
132051
132166
132299
132448
132611
132784
132965
133150
133336
133521
133701
133874
134038
134192
134332
134457
134566
134659
134735
134793
134833
134856
134862
134851
134825
134784
134730
134665
134591
134511
134429
134347
134271
134204
134150
134114
133976
134022
134088
134169
134260
134357
134453
134544
134626
134695
134749
134785
134803
134802
134782
134744
134687
134612
134520
134412
134290
134155
134008
133851
133687
133516
133341
133163
132984
132806
132632
132463
132304
132155
132021
131903
131806
131729
131677
131651
131651
131678
131732
131811
131915
132043
132190
132356
132536
132728
132929
133132
133337
133540
133737
133927
134105
134270
134421
134555
134671
134768
134846
134904
134943
134962
134963
134945
134909
134856
134786
134705
134612
134511
134406
134302
134204
134118
134048
134000
133838
133902
133989
134095
134213
134338
134462
134579
134684
134771
134840
134888
134914
134919
134902
134864
134805
134725
134627
134512
134380
134233
134074
133905
133727
133542
133351
133157
132961
132766
132573
132387
132209
132042
131891
131758
131647
131559
131498
131467
131465
131494
131553
131641
131756
131900
132064
132248
132449
132666
132888
133113
133340
133564
133781
133989
134184
134363
134526
134669
134793
134895
134975
135034
135070
135086
135080
135053
135006
134940
134856
134753
134636
134508
134375
134242
134117
134005
133913
133848
133649
133740
133858
133996
134150
134311
134471
134620
134752
134863
134949
135010
135045
135055
135041
135002
134941
134857
134751
134626
134483
134324
134151
133967
133773
133572
133365
133152
132937
132722
132509
132301
132102
131915
131743
131591
131463
131361
131290
131252
131249
131280
131346
131445
131577
131735
131919
132125
132349
132595
132841
133093
133346
133594
133834
134063
134277
134473
134649
134803
134934
135041
135124
135182
135217
135227
135214
135179
135120
135038
134933
134807
134662
134502
134333
134164
134002
133857
133735
133644
133390
133521
133680
133861
134062
134273
134479
134669
134835
134971
135077
135152
135196
135212
135200
135162
135097
135007
134893
134757
134600
134427
134239
134038
133827
133609
133382
133150
132914
132676
132439
132207
131983
131771
131575
131401
131253
131134
131050
131004
130997
131031
131105
131217
131365
131544
131752
131984
132237
132511
132789
133072
133354
133631
133898
134151
134386
134600
134791
134957
135097
135209
135294
135351
135382
135387
135367
135321
135249
135150
135024
134870
134691
134491
134277
134060
133850
133661
133497
133368
133031
133221
133437
133675
133942
134220
134487
134728
134934
135101
135228
135317
135371
135392
135382
135343
135275
135179
135055
134905
134733
134544
134338
134118
133887
133653
133405
133150
132891
132628
132365
132104
131851
131610
131386
131184
131011
130872
130771
130715
130706
130743
130827
130953
131121
131324
131560
131823
132110
132416
132732
133050
133367
133677
133975
134255
134514
134749
134957
135135
135283
135400
135486
135541
135568
135567
135538
135482
135396
135279
135129
134943
134725
134475
134202
133919
133645
133395
133174
132990
132547
132806
133098
133413
133771
134145
134496
134803
135057
135257
135405
135507
135569
135594
135587
135547
135476
135372
135237
135073
134885
134675
134449
134210
133959
133701
133434
133155
132870
132580
132287
131994
131707
131431
131172
130938
130735
130571
130448
130381
130368
130409
130505
130651
130840
131071
131339
131639
131965
132310
132670
133029
133386
133735
134066
134378
134665
134922
135148
135340
135497
135616
135702
135753
135773
135764
135726
135660
135561
135427
135251
135032
134765
134451
134100
133728
133363
133033
132732
132481
131904
132169
132546
133006
133528
134048
134511
134899
135207
135442
135610
135723
135790
135819
135813
135774
135701
135591
135444
135263
135053
134821
134572
134310
134038
133757
133467
133166
132855
132533
132206
131878
131551
131234
130934
130659
130420
130223
130073
129991
129973
130020
130131
130300
130514
130779
131086
131428
131800
132193
132603
133009
133411
133800
134175
134523
134841
135124
135369
135574
135738
135860
135942
135986
135996
135976
135928
135852
135742
135591
135391
135133
134813
134421
133966
133463
132951
132486
132091
131813
131016
131200
131681
132389
133207
133951
134559
135038
135401
135667
135849
135965
136031
136061
136058
136022
135949
135834
135674
135473
135237
134978
134703
134417
134123
133821
133509
133185
132847
132492
132126
131759
131386
131020
130668
130344
130061
129813
129640
129536
129509
129564
129698
129901
130139
130444
130797
131187
131611
132066
132528
132989
133444
133886
134305
134694
135045
135355
135621
135840
136009
136130
136203
136235
136230
136196
136137
136053
135937
135776
135555
135258
134886
134397
133806
133100
132321
131652
131142
130920
129721
129721
130600
131728
132852
133869
134686
135259
135663
135946
136125
136231
136287
136311
136311
136282
136214
136094
135919
135693
135427
135136
134831
134520
134205
133883
133552
133208
132845
132457
132050
131630
131217
130795
130379
129989
129644
129357
129144
129014
128978
129048
129220
129490
129758
130074
130477
130916
131400
131916
132442
132965
133480
133979
134452
134887
135273
135611
135897
136129
136302
136417
136478
136491
136466
136414
136344
136258
136146
135989
135757
135423
134986
134403
133659
132713
131604
130505
129654
129647
117597
100550
119771
131308
132928
134120
134993
135566
136039
136320
136468
136534
136560
136569
136569
136545
136478
136350
136155
135897
135591
135260
134920
134583
134252
133918
133576
133225
132853
132446
132009
131554
131092
130598
130086
129523
128368
126951
125577
124569
124102
124388
125276
126489
127815
129029
129983
130595
131156
131747
132342
132927
133502
134063
134595
135077
135498
135864
136172
136415
136590
136699
136747
136742
136696
136626
136551
136478
136392
136265
136051
135683
135092
134579
133816
132695
130912
115097
96668.4
116693
27891.8
13180.4
37370.3
97916
129324
134660
135822
136403
136765
136895
136901
136855
136808
136779
136771
136751
136685
136546
136324
136031
135332
134107
132360
130305
128608
126848
125067
123427
121502
118038
112164
104421
95498.1
85635.3
73242
62104.9
53708.8
47478.1
43127.7
40522
39434.9
40142.4
42577
46659.1
52700
60954.5
71311.5
83059.3
94485.7
104482
113071
119836
125066
129056
131865
133887
135711
136088
136409
136653
136819
136916
136948
136920
136847
136762
136698
136672
136667
136659
136600
136380
135966
135063
133419
126117
89008.3
30363.8
12088.2
30152
1126.49
1103.97
854.022
7316.74
49016.3
76348.9
79002.2
81368
86652.5
88081.5
86922.8
84556.6
82495.1
81485.7
81676
81918.4
81065.5
78256.6
73413.4
67025.2
59922.1
52889.4
46697.8
41644.9
37176.5
32688.4
27759.8
22723.8
17468.5
12350.7
8075.19
4720.69
2096.19
134.07
8.87704
29.0982
7.50616
4.57684
4.8479
4.79523
4.53811
4.63542
4.74245
4.89062
5.05633
5.11337
4.97089
5.94603
1447.31
5462.83
10791
17578.9
26050.3
36146.8
46714.1
56095.6
63465.3
70956.1
76943.1
80974.7
83515.6
84931.8
85212
84163.5
81853
79488.7
78544.5
79322.4
80985.1
82597.6
83459.9
79910.8
72164
69497.7
66814.3
38382.1
4376.74
1340.41
1478.89
1347.42
1888.36
1375.83
496.682
298.57
203.798
4399.98
12805
14635.9
11724.1
7366.51
5331.04
4150.28
3304.03
2896.94
2827.49
2793.78
2533.16
2020.06
1330.66
639.005
165.707
25.3257
0.156569
1.28345
3.15338
3.4799
3.43026
3.32291
3.22471
3.24784
3.40695
3.51688
3.70205
3.91221
3.8235
3.89196
3.97973
4.0846
4.19628
4.31595
4.44542
4.58033
4.71179
4.86145
5.02816
5.19564
5.38919
5.67396
5.85461
5.77292
5.92786
6.2826
6.66051
6.88679
6.91107
6.18812
23.2472
398.793
1354.66
2288.26
2970.2
3373.88
3504.26
3336.61
2934.68
2589.54
2498.16
2775.66
3333.16
4162.22
5811.97
8529
10082.1
6965.67
1336.17
309.441
374.302
1328.11
1756.72
1576.41
2503.66
1414.03
340.02
195.06
118.225
93.8443
106.624
92.9747
47.2304
60.4563
55.6768
39.0235
27.1028
18.7416
11.7238
6.564
0.693093
5.00639
3.57558
4.02041
3.02063
1.89001
58.825
43.8925
5.16965
4.08642
3.87324
3.73983
3.64381
3.5816
3.58128
3.60283
3.6428
3.73267
3.73971
3.7959
3.89362
3.98787
4.09573
4.21402
4.33296
4.45833
4.5992
4.75398
4.92006
5.10228
5.34217
5.68548
5.89155
6.14328
6.42543
6.76628
7.14568
7.55315
8.09012
37.5775
78.8618
19.4287
8.71889
12.9882
20.7283
32.286
34.4093
28.2533
29.5787
36.1267
40.1678
41.332
44.7496
65.3023
122.615
193.359
207.687
204.671
188.295
144.023
123.157
1175.65
2114.72
2237.55
2460.48
384.423
384.984
138.043
82.4862
69.2828
114.438
87.8091
11.5153
7.53463
4.76159
1.88943
0.406486
-0.88274
-1.76629
-1.83725
0.72304
5.59741
4.49936
5.26968
3.88993
0.9776
6.71102
14.5395
8.16084
3.57045
3.50359
3.4424
3.40535
3.4035
3.44274
3.49343
3.55947
3.65029
3.70088
3.76373
3.83565
3.92473
4.02351
4.12909
4.24612
4.37465
4.51887
4.66709
4.83954
5.02889
5.24874
5.50161
5.71302
5.94259
6.20834
6.51495
6.84284
7.23684
10.4995
17.3253
16.3843
7.19024
8.47883
13.1373
23.8695
29.6645
16.8105
9.26677
8.52554
9.51558
11.2154
14.8735
16.4718
17.8914
92.8695
193.332
237.583
213.305
176.949
135.601
101.457
145.889
1996.97
2148.16
1343.68
364.979
489.074
326.25
63.108
18.8724
38.7652
30.6283
7.67092
3.10119
1.79767
1.27263
1.08589
-0.213176
-1.24924
-1.59599
-1.38985
-0.72993
0.334626
1.44713
1.22767
0.557245
0.991595
1.90614
3.31743
3.16697
3.27765
3.34458
3.37505
3.4107
3.44295
3.48471
3.52951
3.57136
3.62142
3.683
3.75599
3.8381
3.92996
4.03162
4.14507
4.27221
4.4161
4.57947
4.75517
4.94692
5.17173
5.42425
5.67531
5.94209
6.20725
6.48157
6.74169
6.97365
7.27627
6.83158
6.59345
6.78491
7.52305
8.49041
9.08746
8.52772
7.12199
6.15572
5.99401
6.84248
8.47169
10.9834
11.9525
8.62415
10.2395
110.881
223.916
272.807
299.504
240.422
84.2857
209.143
391.914
1077.92
65.7969
418.735
488.131
466.063
76.4745
5.07922
2.53163
3.49881
3.30439
1.93215
1.24701
0.593129
-0.0334397
-0.598976
-1.18017
-1.45801
-1.31633
-0.771894
-0.0430749
0.409125
0.681125
0.881769
1.28725
1.89133
2.45236
2.83792
3.04801
3.16589
3.23488
3.28851
3.33636
3.38254
3.431
3.48086
3.53358
3.59183
3.65983
3.73634
3.8222
3.91819
4.02623
4.14841
4.28634
4.44153
4.61401
4.82911
5.08996
5.35351
5.58258
5.78601
6.02911
6.28336
6.50331
6.64761
6.66988
6.57474
6.48598
6.68764
6.84651
6.8086
6.68467
6.28287
5.75631
5.42585
5.79199
7.10572
9.15078
11.4605
11.2652
8.75506
5.97297
4.50563
5.77362
165.287
270.002
272.239
66.2707
290.599
81.3108
80.1158
59.9008
485.18
492.243
475.415
40.6899
0.322536
-0.424222
0.781907
1.45587
1.2656
0.77639
0.37685
-0.0852262
-0.610743
-1.12572
-1.29878
-1.15152
-0.669467
-0.0806819
0.467562
0.823592
1.12002
1.48941
1.93043
2.33719
2.64615
2.85974
3.004
3.10269
3.17561
3.23475
3.28768
3.33862
3.38897
3.44081
3.49692
3.55944
3.62908
3.70731
3.79573
3.89588
4.01098
4.14323
4.32584
4.55537
4.7662
4.98439
5.22378
5.47758
5.74008
5.93387
6.10716
6.27306
6.36472
6.36607
6.28769
6.19311
6.2545
6.28175
6.11358
5.86364
5.46824
5.09685
5.03627
5.62742
7.23976
10.4214
14.2379
14.5368
9.06372
5.82943
3.78984
4.34309
8.9943
250.033
263.112
56.9703
271.894
77.3126
75.6678
58.3831
432.17
490.595
488.831
93.3404
-1.74958
-1.4713
-0.235425
0.552957
0.671023
0.38895
0.029545
-0.407289
-0.836366
-1.12691
-1.19281
-1.00307
-0.565059
0.00403948
0.532058
0.915894
1.23935
1.57915
1.9351
2.26236
2.5292
2.73153
2.88041
2.98818
3.07018
3.1362
3.1927
3.24408
3.29308
3.34204
3.39324
3.4492
3.5115
3.58813
3.68686
3.74854
3.85652
4.04924
4.21575
4.38136
4.57827
4.7737
5.00857
5.29053
5.57163
5.79947
5.9538
6.07302
6.10883
6.05731
5.93475
5.77304
5.61856
5.49004
5.28841
4.98524
4.62307
4.35902
4.47845
5.49235
8.15186
15.9362
84.4619
143.731
79.9959
13.7489
0.387828
1.51245
3.85417
90.8003
253.735
59.3327
227.099
150.456
69.0167
63.9701
90.0783
246.148
491.726
271.285
-2.08189
-1.96417
-0.789728
-0.134747
0.0768258
-0.00213181
-0.270198
-0.639479
-0.923864
-1.08478
-1.06295
-0.822603
-0.379134
0.150659
0.622361
0.995399
1.32032
1.63553
1.94193
2.2197
2.45273
2.63815
2.78153
2.89103
2.97618
3.04447
3.10153
3.15147
3.19718
3.24096
3.28504
3.33305
3.4338
3.58728
3.69397
3.6483
3.71621
3.86429
3.98419
4.05884
4.24251
4.48245
4.77115
5.09953
5.39526
5.65049
5.81895
5.88298
5.85028
5.72682
5.53167
5.28545
5.0055
4.74959
4.42259
4.02958
3.62585
3.28792
3.41686
5.13416
11.0359
135.494
307.648
303.225
286.892
93.33
-3.32953
-1.51656
1.11382
11.2703
196.179
146.807
465.38
422.155
60.0452
27.9211
24.8103
15.1824
134.079
321.039
-1.88387
-2.16815
-1.20605
-0.603807
-0.306281
-0.287049
-0.449668
-0.686617
-0.874918
-0.945005
-0.848224
-0.568168
-0.148036
0.309487
0.720457
1.06904
1.38154
1.67407
1.94674
2.1907
2.39876
2.56938
2.70539
2.81211
2.89593
2.96267
3.0171
3.06292
3.10297
3.13936
3.17442
3.31091
3.44669
3.48675
3.5299
3.57601
3.45734
3.53459
3.60338
3.71628
3.91446
4.60849
5.20649
5.56553
5.92378
5.88149
5.7645
5.68879
5.55667
5.33438
5.05232
4.71752
4.33289
3.97752
3.68208
2.97198
2.35277
1.6645
1.52242
4.7568
80.1491
315.618
312.556
308.245
300.544
247.522
-1.0725
-4.74897
-1.25636
5.38473
213.943
495.74
485.401
239.976
27.8036
16.8939
14.887
10.9195
5.63844
332.104
-2.07619
-2.33144
-1.47715
-0.919819
-0.59464
-0.49761
-0.549154
-0.65959
-0.740784
-0.729345
-0.588098
-0.315307
0.0461083
0.430662
0.790821
1.11634
1.41513
1.69167
1.94455
2.16911
2.36156
2.52106
2.64956
2.75102
2.8303
2.89222
2.94094
2.97991
3.01173
3.03835
3.06308
3.28794
3.30986
3.33073
3.33533
3.18498
3.1805
3.187
3.20003
3.27944
4.56258
5.55572
5.90707
6.3172
6.71157
7.00947
6.74671
5.5827
5.18778
4.84668
4.45959
4.04108
3.56237
3.06375
2.95711
1.75935
0.802143
-0.586197
-1.36016
16.0705
230.548
317.386
319.14
313.106
301.699
219.887
-9.04038
-5.65232
-1.86666
-1.32737
79.8657
500.992
498.227
1.97927
3.93183
20.0658
82.6908
7.91149
4.06871
179.511
-3.12557
-2.56929
-1.70132
-1.16057
-0.818618
-0.661692
-0.621365
-0.630852
-0.626299
-0.558994
-0.401464
-0.154073
0.155908
0.489607
0.817931
1.12936
1.42124
1.6916
1.93698
2.15331
2.33776
2.48991
2.61167
2.70665
2.77913
2.83355
2.87393
2.90362
2.92507
2.94112
3.04494
3.1655
3.16885
3.10654
2.96353
2.92642
2.88638
2.81908
2.78489
4.09208
4.79022
5.02803
5.18236
4.87638
5.70364
6.2352
6.5062
6.3755
5.07119
4.18646
3.71689
3.22174
2.68707
2.14583
1.88093
0.458901
-0.848837
-2.9043
-4.90769
56.5556
302.126
318.124
323.136
315.929
269.36
27.3924
-7.15964
-4.6561
-1.31764
-0.329967
39.7512
513.532
506.753
-1.38969
-2.26336
23.1459
87.0793
23.5696
2.53898
-1.31732
-0.295973
-2.73247
-1.83124
-1.30488
-0.960641
-0.772547
-0.677392
-0.625829
-0.57093
-0.475345
-0.316365
-0.0909124
0.185853
0.490292
0.801996
1.10833
1.40168
1.67585
1.92456
2.14233
2.32587
2.47471
2.59099
2.67862
2.74233
2.78686
2.81641
2.83438
2.84548
2.90745
3.05372
3.04412
2.89102
2.79125
2.74587
2.68307
2.58002
2.42684
2.86115
4.17178
4.19688
4.34573
3.25729
3.73673
4.37754
5.0948
5.77089
5.69905
5.16073
3.41248
2.77028
2.24629
1.70895
1.52782
0.744383
-0.812049
-2.27947
-4.54047
-7.06409
44.8231
227.747
291.105
318.708
311.056
53.3858
-6.37102
-5.38048
-2.79453
0.0294958
0.915973
152.569
522.193
192.499
-0.737774
-2.31387
45.3478
89.6229
29.7486
3.62428
-0.407755
0.259228
-2.53529
-1.77036
-1.30301
-0.988627
-0.80413
-0.693275
-0.619648
-0.547687
-0.447667
-0.299251
-0.0959428
0.155403
0.440159
0.742881
1.05102
1.35445
1.64323
1.90693
2.13654
2.32665
2.47621
2.58801
2.66723
2.71992
2.75194
2.76817
2.77225
2.80816
2.90474
2.90994
2.75977
2.67135
2.62184
2.55222
2.44943
2.28472
2.06945
3.18266
3.65225
3.61002
3.69032
2.57887
2.99152
3.63496
5.97114
5.04543
4.47265
3.78303
2.45192
1.58746
1.10936
0.587435
0.473545
-0.371416
-1.57132
-3.37438
-5.12042
-4.69449
13.1434
0.84852
11.4791
96.4645
147.698
33.1869
-3.71675
-2.80215
-0.504726
1.34712
14.7098
334.611
488.41
3.18261
-1.49854
-2.41236
93.7063
93.0153
25.6792
3.68152
1.02605
-0.12588
-1.97576
-1.48716
-1.13907
-0.899532
-0.754456
-0.662798
-0.599798
-0.538796
-0.455917
-0.332297
-0.158086
0.0667449
0.334164
0.632216
0.948848
1.27256
1.58969
1.88323
2.13733
2.34224
2.49641
2.60428
2.67343
2.71235
2.72873
2.72871
2.72309
2.7735
2.77213
2.66174
2.59287
2.53915
2.46849
2.37487
2.23914
2.02305
1.94682
3.54344
3.24023
3.12997
3.24704
1.99283
2.23604
4.03347
19.1389
17.3193
4.40995
1.69983
1.17331
0.283168
-0.157783
-0.587937
-0.697484
-1.39949
-2.4388
-4.2292
-5.44252
-3.74816
10.9502
-3.86563
-4.65102
-5.38407
-2.66347
37.6243
0.0552804
-0.678933
1.23856
16.4923
129.935
328.906
90.4466
-0.548465
-2.54391
-2.51589
94.1843
96.2558
10.6158
0.966149
1.88233
-0.930921
-1.24952
-1.04473
-0.850875
-0.693878
-0.613882
-0.596282
-0.573038
-0.54728
-0.501978
-0.418757
-0.284242
-0.0916094
0.157134
0.452619
0.783424
1.13985
1.50531
1.85027
2.14652
2.37717
2.54007
2.6433
2.69917
2.72023
2.71721
2.69828
2.67975
2.65946
2.60446
2.54506
2.48781
2.41679
2.32992
2.21859
2.06115
1.81512
1.88072
3.30896
2.98486
2.82335
2.83687
1.47069
1.63213
17.6153
21.9375
20.6378
11.3285
-0.0792653
-0.452938
-1.12523
-1.46778
-1.72901
-2.14444
-2.29631
-3.23114
-4.88654
-6.38585
-5.46875
4.9776
-4.62764
-5.11184
-6.13707
-5.77347
19.3873
79.3586
34.4119
41.8866
97.1989
170.313
147.146
-2.97259
-2.82872
-2.73941
-2.65025
68.7221
97.117
2.68035
0.799063
1.70196
-0.498709
-0.531724
-0.540709
-0.465534
-0.443214
-0.448084
-0.472464
-0.529465
-0.573423
-0.584386
-0.558099
-0.478712
-0.330545
-0.10688
0.184051
0.531622
0.939314
1.37774
1.80548
2.16914
2.4389
2.61394
2.70977
2.74668
2.7439
2.71662
2.67602
2.62822
2.57579
2.5217
2.46041
2.38763
2.30365
2.20712
2.0859
1.91723
1.66237
1.59637
3.21205
2.88664
2.69183
2.59679
0.822474
1.05985
22.0528
20.7381
19.0648
12.5953
-2.1535
-2.90635
-2.18108
-2.66702
-2.77043
-3.04511
-3.02935
-3.82928
-5.34557
-6.9176
-8.17647
-0.523534
2.55081
-6.14047
-7.70833
-8.02404
8.06914
96.2546
103.138
104.72
105.825
47.8542
-3.30926
-3.14606
-2.96064
-2.8071
-2.73872
38.2136
91.7171
2.10322
1.78731
2.09711
0.379218
0.0910997
-0.0664641
-0.109642
-0.174804
-0.275448
-0.378548
-0.485155
-0.605097
-0.704004
-0.752732
-0.746278
-0.660358
-0.473141
-0.191137
0.180714
0.643866
1.18935
1.74847
2.21742
2.541
2.72722
2.8086
2.81741
2.78213
2.724
2.65644
2.58683
2.51845
2.4501
2.37466
2.28967
2.1977
2.09655
1.9741
1.80999
1.5728
1.23623
2.88229
2.91992
2.70938
0.987082
0.537017
6.11671
22.1005
20.0502
18.2033
0.982288
-4.85103
-4.56399
-3.34933
-3.1062
-3.56994
-3.72279
-3.74275
-4.19326
-5.61446
-7.13918
-9.05509
-5.27894
1.49718
-6.90142
-9.7388
-10.2105
-9.72629
10.9697
72.2396
77.9094
25.0681
-3.43998
-3.39176
-3.19797
-2.96613
-2.79801
-2.72911
39.0622
74.8835
2.99982
2.67083
2.54075
1.02855
0.586163
0.339248
0.196106
0.0599091
-0.120697
-0.323423
-0.488579
-0.691156
-0.868085
-1.01305
-1.10482
-0.95796
1.20211
2.2474
0.721572
0.249811
0.888111
1.66142
2.29499
2.69649
2.88811
2.94267
2.90972
2.82996
2.73291
2.63424
2.54077
2.45411
2.3704
2.28371
2.19154
2.09618
1.99583
1.88023
1.73278
1.52966
1.24725
1.71743
3.03721
2.82937
0.454896
0.392519
20.25
22.1519
19.9373
-0.710394
-5.75029
-5.80287
-5.50842
-4.25663
-3.82781
-4.0619
-4.14608
-4.38329
-4.5914
-5.65431
-6.98891
-8.8056
-10.4741
0.841696
-0.568824
-6.78019
-11.8853
-10.8822
-9.34986
-7.43219
-5.63122
-4.46387
-3.68645
-1.42521
-2.833
-2.90176
-2.73662
-2.6412
41.8218
77.9951
3.45917
3.13101
2.77555
1.47143
0.94664
0.653158
0.467072
0.275636
-0.0131797
-0.217061
-0.56239
-0.8315
-1.12146
-1.17686
3.9659
5.13408
5.02861
5.15199
5.43499
2.08099
0.291077
1.46437
2.38906
2.91001
3.10263
3.11073
3.01447
2.87682
2.73254
2.59847
2.47971
2.37565
2.28074
2.18528
2.09082
1.99686
1.90192
1.79807
1.67297
1.51004
1.29078
1.01842
2.34515
2.19655
0.365929
0.169178
23.3572
22.2435
19.5258
-4.57216
-6.11493
-6.21978
-6.05025
-5.24401
-4.32245
-4.33568
-4.30169
-4.41216
-4.75563
-5.38721
-6.41425
-7.96852
-10.1706
-9.10802
-1.71316
-2.07405
-4.27726
-8.42724
-9.20184
-7.22259
-5.62484
-4.51102
-3.31937
-0.303629
-0.514171
-2.77989
-2.62958
-2.50148
26.655
78.4977
3.76198
3.34371
2.65823
1.75048
1.18474
0.876518
4.78082
19.0394
10.0056
-0.493593
-0.758925
-1.06963
-0.578237
5.06971
4.50493
3.8807
3.42391
3.2021
3.10012
5.34191
7.41748
7.39824
4.19554
3.28698
3.39112
3.30315
3.112
2.89969
2.70365
2.53518
2.39398
2.27567
2.18178
2.09105
1.98575
1.89751
1.81139
1.72128
1.61865
1.49316
1.33254
1.13137
0.993354
0.695683
0.456702
0.443803
24.6562
22.492
3.1851
-5.79349
-6.29327
-6.48948
-6.36149
-5.92099
-4.53204
-3.96061
-4.1514
-4.14464
-4.33415
-4.75805
-5.49208
-6.63501
-8.30728
-10.1982
-10.7896
-2.91778
-2.23246
-1.63869
-7.58178
-6.42057
-5.15515
-4.19864
-2.00916
0.004841
0.403937
-2.58852
-2.46777
-2.32445
15.9302
61.7387
4.09607
3.56039
2.78973
1.9005
1.35036
2.49752
20.5935
23.9434
22.3891
1.2341
-0.990947
-0.825686
4.42343
4.04601
3.21177
1.54157
-3.67781
-4.82752
-5.36803
0.067444
18.1662
24.3428
22.7417
10.4089
3.83098
3.4934
3.15582
2.86167
2.62013
2.42775
2.27541
2.15101
2.05521
1.98478
1.90217
1.80173
1.72137
1.64544
1.56247
1.46599
1.34853
1.20207
1.02633
0.823997
0.578484
6.81055
25.2143
23.111
7.17035
-5.74999
-6.3043
-6.58115
-6.44022
-5.94615
-4.50817
-3.69975
-3.74637
-3.66641
-3.71288
-3.94997
-4.41118
-5.14364
-6.22821
-7.56757
-8.74833
-8.72105
-6.81278
-7.31792
-6.11268
-4.63477
-3.79592
-3.67987
-0.0596111
0.443225
-0.604728
-2.31939
-2.24472
-2.12021
7.30924
26.2341
61.8833
3.56514
2.79201
1.94045
1.4294
9.59926
25.501
24.8225
24.1127
5.91508
-0.973853
-0.268687
4.15805
3.17562
-0.639163
-6.06975
-6.84607
-6.86633
-6.43628
-5.76468
-2.76245
24.5826
28.0606
30.9192
12.1071
3.64331
3.07265
2.70631
2.44784
2.25898
2.1117
1.99694
1.90361
1.84685
1.78541
1.72159
1.63839
1.56816
1.50152
1.42527
1.33406
1.21902
1.07073
0.873836
0.615955
7.60118
25.5534
23.9329
15.1023
-5.43763
-6.06635
-6.36137
-6.22003
-5.59471
-4.0934
-3.21261
-3.18318
-3.04947
-2.99111
-3.09341
-3.35634
-3.79106
-4.42827
-5.25398
-6.06723
-6.58152
-6.609
-6.14098
-5.33049
-4.41904
-3.40642
-3.05647
-0.805382
0.938031
-1.06681
-2.0191
-1.95909
-1.89071
4.43205
46.2837
70.8613
25.1688
2.49985
1.87078
1.34845
14.0221
26.0108
25.7961
22.8467
0.53762
-0.60578
2.98892
3.63531
2.51667
-5.53385
-6.72193
-7.24167
-7.14543
-6.56072
-5.70344
-4.43666
22.3754
28.3616
30.7848
29.7383
7.6633
2.75783
2.37443
2.17095
2.0165
1.89992
1.81166
1.7406
1.68158
1.65104
1.61273
1.55865
1.48953
1.43627
1.37482
1.29934
1.20207
1.06928
0.877569
0.609933
2.96955
25.626
24.5299
3.88941
-4.78344
-5.47411
-5.78823
-5.63383
-4.87626
-3.42027
-2.60199
-2.59541
-2.3668
-2.25348
-2.28016
-2.42791
-2.6873
-3.05637
-3.52481
-4.00472
-4.3488
-4.41622
-4.21801
-3.76148
-3.18891
-2.66061
-2.32211
-1.92918
1.39146
0.100319
-1.69892
-1.65576
-1.62617
2.46808
39.1496
71.8009
71.5909
2.30749
1.78985
1.32127
9.17359
26.4017
26.4449
21.8171
0.815792
-0.0685319
1.07817
3.61362
-1.52081
-5.57974
-6.5592
-6.98557
-6.78739
-6.09662
-5.03374
5.75783
25.7679
28.1609
29.9907
31.0137
17.9659
2.23673
1.82448
1.75456
1.69578
1.6426
1.59825
1.57649
1.55743
1.52819
1.48992
1.44598
1.40748
1.36908
1.32121
1.25968
1.17618
1.05717
0.877558
0.611719
1.36301
16.8171
21.8135
-2.85173
-3.90701
-4.60627
-4.91117
-4.74137
-4.06335
-2.83219
-2.33515
-1.96761
-1.67609
-1.55563
-1.55678
-1.65449
-1.82851
-2.06027
-2.33089
-2.5986
-2.79711
-2.86326
-2.77153
-2.53328
-2.21939
-1.91522
-1.68919
-1.40275
1.71941
0.397275
-1.37525
-1.35861
-1.34519
1.85987
4.67426
67.0903
72.2317
10.1957
1.71715
1.30835
1.3552
12.8236
26.7514
26.9785
15.3659
0.340635
-0.743392
-1.35497
-3.87554
-5.033
-5.82542
-6.11066
-5.81089
-5.00717
-0.619294
27.2394
27.1121
27.2908
28.3864
29.4302
20.2728
1.37552
1.09304
1.24878
1.32445
1.35699
1.36971
1.39054
1.49187
1.42305
1.35462
1.34172
1.32546
1.30188
1.26893
1.22284
1.15636
1.05712
0.902665
0.65161
0.523789
0.0925179
2.65349
-1.90922
-3.03217
-3.65047
-3.90669
-3.71869
-3.02773
-2.24819
-1.67709
-1.22163
-1.02629
-0.92427
-0.936514
-1.03039
-1.1742
-1.34522
-1.52232
-1.68274
-1.79903
-1.84446
-1.8096
-1.68951
-1.49673
-1.25908
-1.18212
0.209167
2.00988
-0.354944
-1.09259
-1.08078
-1.07639
1.62204
1.52311
3.13826
72.1933
64.8729
1.81642
1.64258
1.13908
0.766059
13.9308
26.8389
26.5969
6.2187
-0.431529
-1.85111
-3.03751
-3.95082
-4.48283
-4.69315
-4.21533
3.98678
31.0448
29.9996
28.6661
27.7994
27.4269
27.4474
7.24976
-0.18037
0.382459
0.754742
0.958071
1.07341
1.14219
1.18897
1.34107
1.35973
1.25728
1.24335
1.24274
1.23454
1.21773
1.18976
1.14582
1.07434
0.958865
0.749481
0.366469
-0.0301418
-0.452531
1.96482
-1.58919
-2.77964
-2.95045
-2.56713
-2.04814
-1.41079
-0.905221
-0.617574
-0.436348
-0.379559
-0.423838
-0.536602
-0.679776
-0.827777
-0.962421