/*--------------------------------*- C++ -*----------------------------------*\
| =========                 |                                                 |
| \\      /  F ield         | OpenFOAM: The Open Source CFD Toolbox           |
|  \\    /   O peration     | Version:  2412                                  |
|   \\  /    A nd           | Website:  www.openfoam.com                      |
|    \\/     M anipulation  |                                                 |
\*---------------------------------------------------------------------------*/
FoamFile
{
    version     2.0;
    format      ascii;
    arch        "LSB;label=32;scalar=64";
    class       volVectorField;
    location    "2.95";
    object      U;
}
// * * * * * * * * * * * * * * * * * * * * * * * * * * * * * * * * * * * * * //

dimensions      [0 1 -1 0 0 0 0];

internalField   nonuniform List<vector> 
6400
(
(0.00168112 -0.00167593 0)
(0.00589474 -0.00191205 0)
(0.0103765 -0.00187227 0)
(0.014769 -0.00174452 0)
(0.0187838 -0.00155384 0)
(0.0222776 -0.00132556 0)
(0.0251767 -0.00107239 0)
(0.027439 -0.00080757 0)
(0.0290502 -0.00054132 0)
(0.030016 -0.000282524 0)
(0.0303586 -4.86458e-05 0)
(0.0301412 0.00016115 0)
(0.0294416 0.000339364 0)
(0.0283243 0.000487659 0)
(0.0268701 0.000602162 0)
(0.0251551 0.000682096 0)
(0.0232539 0.000735234 0)
(0.0212457 0.000763894 0)
(0.0191933 0.000768134 0)
(0.0171522 0.000750694 0)
(0.0151702 0.000717241 0)
(0.0132834 0.00067456 0)
(0.0115211 0.000621171 0)
(0.0098989 0.000565577 0)
(0.008428 0.000517802 0)
(0.00710769 0.000470275 0)
(0.0059293 0.00042794 0)
(0.00488558 0.000392101 0)
(0.00396255 0.000362645 0)
(0.00315545 0.000342554 0)
(0.00245683 0.000331092 0)
(0.0018468 0.000329329 0)
(0.00131573 0.00033099 0)
(0.000859549 0.000330135 0)
(0.000468262 0.000332565 0)
(0.000141785 0.000331566 0)
(-0.000118627 0.000325461 0)
(-0.000312814 0.000314942 0)
(-0.000445298 0.00029443 0)
(-0.000527766 0.000270763 0)
(-0.000560631 0.000248348 0)
(-0.00054603 0.000224922 0)
(-0.000499339 0.000199347 0)
(-0.000436261 0.000175413 0)
(-0.000369347 0.000152592 0)
(-0.000313258 0.000133426 0)
(-0.000285376 0.000120151 0)
(-0.000304019 0.000113758 0)
(-0.000389428 0.000116182 0)
(-0.000569016 0.000127745 0)
(-0.000873518 0.000152358 0)
(-0.00133487 0.000190909 0)
(-0.00197279 0.000243532 0)
(-0.00280312 0.000306497 0)
(-0.00384259 0.000377566 0)
(-0.00510691 0.000459115 0)
(-0.00660173 0.000544157 0)
(-0.00832199 0.000628439 0)
(-0.0102572 0.000711523 0)
(-0.0123852 0.000783999 0)
(-0.0146657 0.000841918 0)
(-0.0170463 0.000878407 0)
(-0.0194692 0.000889756 0)
(-0.0218688 0.00087164 0)
(-0.0241587 0.000827326 0)
(-0.0262516 0.000743546 0)
(-0.0280636 0.000621302 0)
(-0.0295039 0.000463087 0)
(-0.0304871 0.000269238 0)
(-0.0309267 4.44698e-05 0)
(-0.030751 -0.000214626 0)
(-0.0298967 -0.000497234 0)
(-0.0283308 -0.000787631 0)
(-0.026056 -0.00107312 0)
(-0.0230942 -0.00134443 0)
(-0.0194925 -0.00159034 0)
(-0.0153342 -0.00179386 0)
(-0.0107705 -0.001931 0)
(-0.00610017 -0.00197525 0)
(-0.00171736 -0.00171191 0)
(0.00191524 -0.00586117 0)
(0.00735717 -0.00731093 0)
(0.0131756 -0.00733564 0)
(0.0189493 -0.00690045 0)
(0.0242462 -0.00614903 0)
(0.0288707 -0.00522213 0)
(0.0327275 -0.00419927 0)
(0.0357607 -0.00312977 0)
(0.0379574 -0.00205546 0)
(0.0393228 -0.0010158 0)
(0.0398941 -4.67743e-05 0)
(0.039736 0.000830921 0)
(0.0389225 0.00159207 0)
(0.0375373 0.00223156 0)
(0.0356791 0.00273739 0)
(0.0334553 0.0031065 0)
(0.0309698 0.00335448 0)
(0.0283215 0.00348604 0)
(0.0255926 0.00351343 0)
(0.0228628 0.00344987 0)
(0.0202021 0.00331323 0)
(0.017657 0.00312067 0)
(0.0152727 0.00288512 0)
(0.0130833 0.00262687 0)
(0.0110908 0.00236429 0)
(0.00929808 0.00209728 0)
(0.00771265 0.00183778 0)
(0.00632393 0.00159313 0)
(0.00511378 0.00136448 0)
(0.00406447 0.00115524 0)
(0.00316849 0.000967378 0)
(0.00241368 0.000800968 0)
(0.00178224 0.000646993 0)
(0.0012756 0.000498763 0)
(0.00087493 0.000357265 0)
(0.00057063 0.000226647 0)
(0.000367462 0.000101807 0)
(0.000252571 -1.96437e-05 0)
(0.000221671 -0.000136267 0)
(0.000270399 -0.000235573 0)
(0.00038529 -0.000311706 0)
(0.000548073 -0.000362852 0)
(0.000742701 -0.000390117 0)
(0.00094752 -0.000386241 0)
(0.00113834 -0.000353623 0)
(0.00129177 -0.000290715 0)
(0.00137768 -0.000192123 0)
(0.00136563 -5.74588e-05 0)
(0.00122352 0.000118435 0)
(0.000920751 0.000336779 0)
(0.000425249 0.000595826 0)
(-0.00029182 0.000896503 0)
(-0.00126429 0.00123523 0)
(-0.00252393 0.0016048 0)
(-0.00407864 0.00199089 0)
(-0.00594807 0.00240122 0)
(-0.00813807 0.00279746 0)
(-0.0106235 0.00317754 0)
(-0.013388 0.003531 0)
(-0.0163982 0.00382202 0)
(-0.0195898 0.00403457 0)
(-0.0228864 0.00415146 0)
(-0.0262073 0.0041562 0)
(-0.0294533 0.004034 0)
(-0.0325169 0.00377729 0)
(-0.0352839 0.0033668 0)
(-0.0376307 0.00280267 0)
(-0.0394459 0.00209287 0)
(-0.040618 0.0012447 0)
(-0.0410433 0.000274338 0)
(-0.0406514 -0.000800882 0)
(-0.0393902 -0.00194564 0)
(-0.0372135 -0.00312056 0)
(-0.0341206 -0.00427998 0)
(-0.0301434 -0.00538241 0)
(-0.025338 -0.00637816 0)
(-0.0198133 -0.00718409 0)
(-0.0137826 -0.00765903 0)
(-0.00768714 -0.00765277 0)
(-0.0019708 -0.00605828 0)
(0.00204842 -0.0105002 0)
(0.00806996 -0.01332 0)
(0.0145695 -0.0134962 0)
(0.0210214 -0.0127607 0)
(0.0269464 -0.011417 0)
(0.0321312 -0.00974656 0)
(0.0364725 -0.00790771 0)
(0.0399159 -0.00598538 0)
(0.0424478 -0.00405478 0)
(0.0440808 -0.00218635 0)
(0.0448579 -0.000432638 0)
(0.0448499 0.00115733 0)
(0.044151 0.00254827 0)
(0.0428595 0.00371622 0)
(0.0410768 0.00464808 0)
(0.0389213 0.00533957 0)
(0.0365004 0.0058067 0)
(0.0339142 0.00606266 0)
(0.0312537 0.00613192 0)
(0.0285949 0.00604003 0)
(0.0259993 0.00581791 0)
(0.0235134 0.00549836 0)
(0.0211844 0.00510621 0)
(0.0190367 0.00467402 0)
(0.0170646 0.00422519 0)
(0.0152673 0.00378156 0)
(0.0136461 0.00335324 0)
(0.0121795 0.00295862 0)
(0.0108413 0.00259842 0)
(0.00961078 0.00227293 0)
(0.00847229 0.00198329 0)
(0.00741127 0.00172541 0)
(0.00641205 0.00148957 0)
(0.00546807 0.00127345 0)
(0.00456698 0.00106589 0)
(0.00370764 0.000878257 0)
(0.00289294 0.000697096 0)
(0.0021251 0.000518081 0)
(0.00141403 0.000345845 0)
(0.000766026 0.000186159 0)
(0.000184873 5.59388e-05 0)
(-0.000334033 -4.97827e-05 0)
(-0.000790306 -0.000118297 0)
(-0.00119261 -0.000144456 0)
(-0.00156131 -0.000124985 0)
(-0.0019118 -5.34911e-05 0)
(-0.0022703 8.22082e-05 0)
(-0.00266731 0.00028224 0)
(-0.00313727 0.000563408 0)
(-0.0037199 0.000923066 0)
(-0.00444599 0.00135636 0)
(-0.00534239 0.00186065 0)
(-0.00645534 0.00242909 0)
(-0.00782421 0.0030652 0)
(-0.00944879 0.0037349 0)
(-0.0113709 0.00442885 0)
(-0.0136009 0.00511744 0)
(-0.0160953 0.00577537 0)
(-0.0188696 0.00636593 0)
(-0.021892 0.00685992 0)
(-0.0250852 0.00720714 0)
(-0.0283787 0.00738396 0)
(-0.0316943 0.00735746 0)
(-0.0349321 0.00710207 0)
(-0.037985 0.00659392 0)
(-0.0407324 0.00581637 0)
(-0.0430412 0.00476617 0)
(-0.0447947 0.00345258 0)
(-0.0458753 0.00189371 0)
(-0.0461659 0.000118888 0)
(-0.0455781 -0.00182665 0)
(-0.0440456 -0.0038883 0)
(-0.041522 -0.00599725 0)
(-0.0380036 -0.00808169 0)
(-0.0335187 -0.0100631 0)
(-0.0281283 -0.0118529 0)
(-0.0219517 -0.0132908 0)
(-0.0152195 -0.0140924 0)
(-0.00842495 -0.0139461 0)
(-0.00210949 -0.0108796 0)
(0.00220062 -0.0156236 0)
(0.00883249 -0.0200548 0)
(0.0159779 -0.0203758 0)
(0.023023 -0.0192702 0)
(0.0294592 -0.017241 0)
(0.035055 -0.0147276 0)
(0.0397032 -0.0119664 0)
(0.0433538 -0.00908816 0)
(0.0459996 -0.00620603 0)
(0.0476647 -0.00341975 0)
(0.0484063 -0.000816159 0)
(0.0483158 0.0015289 0)
(0.0475016 0.00357634 0)
(0.0460754 0.00528792 0)
(0.0441513 0.00665042 0)
(0.0418555 0.00766008 0)
(0.039307 0.00833504 0)
(0.0366126 0.00870293 0)
(0.033869 0.00879861 0)
(0.031153 0.00865936 0)
(0.0285268 0.00833242 0)
(0.02603 0.0078719 0)
(0.0237109 0.00731565 0)
(0.0215956 0.0066994 0)
(0.0196665 0.00607317 0)
(0.0179065 0.00546428 0)
(0.0163113 0.00488638 0)
(0.0148539 0.00436762 0)
(0.0134954 0.00390931 0)
(0.0122151 0.00350694 0)
(0.0109943 0.00316276 0)
(0.0098065 0.00286848 0)
(0.00863512 0.00260831 0)
(0.00747242 0.0023761 0)
(0.00630797 0.00216195 0)
(0.00514722 0.00195071 0)
(0.00400401 0.00173833 0)
(0.00288982 0.00152462 0)
(0.00181543 0.00130483 0)
(0.000812396 0.00108627 0)
(-0.000116962 0.000887113 0)
(-0.000975723 0.00070327 0)
(-0.00174792 0.00055684 0)
(-0.00244383 0.000459625 0)
(-0.00307318 0.000428375 0)
(-0.00364576 0.000470298 0)
(-0.00418927 0.000601047 0)
(-0.00472394 0.000833163 0)
(-0.00528875 0.00117365 0)
(-0.00593899 0.00162922 0)
(-0.00670688 0.00220549 0)
(-0.0076292 0.00289286 0)
(-0.00874027 0.00367992 0)
(-0.0100965 0.00455929 0)
(-0.0117181 0.00550594 0)
(-0.0136247 0.00647771 0)
(-0.0158418 0.00746852 0)
(-0.0183563 0.00840933 0)
(-0.0211612 0.00925538 0)
(-0.0242397 0.0099651 0)
(-0.0275249 0.0104681 0)
(-0.0309318 0.0107236 0)
(-0.0343872 0.0106825 0)
(-0.0377863 0.0103031 0)
(-0.0410175 0.00955113 0)
(-0.04395 0.00840478 0)
(-0.0464397 0.00685797 0)
(-0.048359 0.00491585 0)
(-0.0495762 0.00260787 0)
(-0.0499602 -2.2617e-05 0)
(-0.0494107 -0.00291547 0)
(-0.0478385 -0.00599156 0)
(-0.0451822 -0.00914297 0)
(-0.0414311 -0.0122625 0)
(-0.036606 -0.0152341 0)
(-0.0307706 -0.0179221 0)
(-0.0240489 -0.0200832 0)
(-0.0166883 -0.0212803 0)
(-0.0092206 -0.0209973 0)
(-0.00227011 -0.016205 0)
(0.00239628 -0.021207 0)
(0.00974282 -0.0274525 0)
(0.0176353 -0.0278808 0)
(0.0253508 -0.0263188 0)
(0.032334 -0.0234949 0)
(0.0383328 -0.0200173 0)
(0.0432348 -0.0162115 0)
(0.0469946 -0.0122665 0)
(0.0496202 -0.00833506 0)
(0.051156 -0.00455369 0)
(0.0516779 -0.00103767 0)
(0.0513008 0.00211723 0)
(0.0501543 0.00485494 0)
(0.0483685 0.0071297 0)
(0.0460778 0.00892606 0)
(0.0434248 0.0102427 0)
(0.0405422 0.0111025 0)
(0.0375472 0.0115487 0)
(0.0345473 0.0116318 0)
(0.0316265 0.0114051 0)
(0.0288502 0.0109354 0)
(0.0262578 0.0102859 0)
(0.0238839 0.00953017 0)
(0.0217578 0.00871304 0)
(0.019856 0.00789067 0)
(0.0181378 0.00709934 0)
(0.0166016 0.00637734 0)
(0.0152123 0.0057384 0)
(0.0139141 0.0051949 0)
(0.0126834 0.00473898 0)
(0.0114932 0.0043662 0)
(0.0103055 0.00406386 0)
(0.00910862 0.00382083 0)
(0.00789896 0.00360457 0)
(0.00665074 0.00340247 0)
(0.00538229 0.00319352 0)
(0.00413323 0.00297295 0)
(0.00290748 0.00271804 0)
(0.00172185 0.00244762 0)
(0.000616532 0.00216539 0)
(-0.000407068 0.00187199 0)
(-0.00134437 0.00160281 0)
(-0.00217443 0.00136286 0)
(-0.0029034 0.00117691 0)
(-0.00354811 0.00107172 0)
(-0.00412125 0.00105225 0)
(-0.00463538 0.00114832 0)
(-0.00512156 0.00138796 0)
(-0.00562043 0.00176658 0)
(-0.0061758 0.00230112 0)
(-0.00683799 0.00299841 0)
(-0.007658 0.00385818 0)
(-0.00867834 0.00486912 0)
(-0.00995254 0.00599872 0)
(-0.0115144 0.00723467 0)
(-0.0133865 0.00852211 0)
(-0.0156087 0.00983713 0)
(-0.0181804 0.0110969 0)
(-0.0210922 0.0122442 0)
(-0.0243405 0.0132124 0)
(-0.0278502 0.0139181 0)
(-0.0315355 0.0142935 0)
(-0.0353211 0.0142738 0)
(-0.0390941 0.0137993 0)
(-0.0427303 0.0128231 0)
(-0.0460834 0.0113136 0)
(-0.0489965 0.00925796 0)
(-0.051319 0.00665986 0)
(-0.0528951 0.00355829 0)
(-0.0535782 7.5825e-06 0)
(-0.0532484 -0.00391092 0)
(-0.051794 -0.0080876 0)
(-0.0491314 -0.0123886 0)
(-0.0452336 -0.0166638 0)
(-0.04011 -0.0207527 0)
(-0.0338229 -0.0244613 0)
(-0.0265065 -0.0274529 0)
(-0.0184311 -0.0291305 0)
(-0.0101721 -0.0287506 0)
(-0.00247171 -0.022011 0)
(0.0026495 -0.027373 0)
(0.010924 -0.0357025 0)
(0.0197957 -0.0361841 0)
(0.0283806 -0.0340438 0)
(0.0360537 -0.0302672 0)
(0.0425372 -0.0256476 0)
(0.047714 -0.0206274 0)
(0.0515534 -0.0154567 0)
(0.0540875 -0.0103372 0)
(0.0553822 -0.0054492 0)
(0.0555479 -0.000935733 0)
(0.0547303 0.00310336 0)
(0.0530829 0.00657519 0)
(0.0507642 0.00943363 0)
(0.0479342 0.0116587 0)
(0.0447567 0.01326 0)
(0.0413861 0.0142673 0)
(0.0379568 0.0147412 0)
(0.0345865 0.0147525 0)
(0.0313682 0.0143747 0)
(0.0283633 0.0137012 0)
(0.0256199 0.0127982 0)
(0.0231745 0.0117853 0)
(0.0210273 0.0107246 0)
(0.0191457 0.00966609 0)
(0.0174974 0.00867108 0)
(0.0160558 0.00778567 0)
(0.014769 0.00702029 0)
(0.0135832 0.00639629 0)
(0.0124559 0.00589977 0)
(0.0113488 0.00551857 0)
(0.0102262 0.00523198 0)
(0.0090599 0.00502671 0)
(0.00784542 0.00484834 0)
(0.00657966 0.00468369 0)
(0.00527816 0.004494 0)
(0.00396357 0.00425464 0)
(0.00266999 0.00397509 0)
(0.00143561 0.0036367 0)
(0.000280214 0.00327739 0)
(-0.000762859 0.00287889 0)
(-0.00169342 0.00250546 0)
(-0.00250898 0.00216166 0)
(-0.00319566 0.00187037 0)
(-0.0037782 0.00166506 0)
(-0.00426203 0.00155506 0)
(-0.00464715 0.00160459 0)
(-0.00498514 0.00182192 0)
(-0.00532582 0.00222205 0)
(-0.00571198 0.00282618 0)
(-0.00619456 0.00364691 0)
(-0.00683036 0.00468781 0)
(-0.00768842 0.00592874 0)
(-0.00882993 0.00734537 0)
(-0.0102957 0.00890904 0)
(-0.0121147 0.0105613 0)
(-0.0143416 0.0122414 0)
(-0.0169979 0.0138804 0)
(-0.0200617 0.015401 0)
(-0.0235432 0.0167014 0)
(-0.0273783 0.0176804 0)
(-0.031466 0.018241 0)
(-0.0357249 0.0182999 0)
(-0.0400317 0.0177782 0)
(-0.0442476 0.0166082 0)
(-0.0482081 0.0147453 0)
(-0.0517345 0.0121716 0)
(-0.0546473 0.0088891 0)
(-0.0567632 0.00493649 0)
(-0.0579096 0.000384644 0)
(-0.057935 -0.0046659 0)
(-0.0567012 -0.0100799 0)
(-0.054096 -0.0156843 0)
(-0.0500668 -0.0212847 0)
(-0.0446052 -0.0266682 0)
(-0.0377657 -0.031574 0)
(-0.0296942 -0.0355511 0)
(-0.0206925 -0.037825 0)
(-0.0113985 -0.0374002 0)
(-0.0027292 -0.0284187 0)
(0.00296844 -0.0342961 0)
(0.0124595 -0.0450903 0)
(0.0226336 -0.0455461 0)
(0.0323585 -0.0426505 0)
(0.0409167 -0.0376952 0)
(0.047997 -0.0316901 0)
(0.0534865 -0.025222 0)
(0.0573819 -0.0186155 0)
(0.0597448 -0.0121271 0)
(0.0606829 -0.0059833 0)
(0.0603669 -0.000346726 0)
(0.0589599 0.00464835 0)
(0.0566388 0.00889886 0)
(0.053613 0.0123578 0)
(0.0500758 0.0150056 0)
(0.0462205 0.0168584 0)
(0.0422215 0.0179624 0)
(0.0382371 0.0183948 0)
(0.034399 0.0182542 0)
(0.0308128 0.0176363 0)
(0.027525 0.0166663 0)
(0.0246019 0.0154378 0)
(0.0220839 0.0141007 0)
(0.0199243 0.0127248 0)
(0.0180939 0.0113736 0)
(0.0165521 0.0101474 0)
(0.015245 0.00906371 0)
(0.0141138 0.00816753 0)
(0.0130896 0.00746132 0)
(0.0121127 0.00693833 0)
(0.011131 0.00657343 0)
(0.0100996 0.00633675 0)
(0.00898335 0.00620614 0)
(0.00778723 0.00610174 0)
(0.00650079 0.00599761 0)
(0.00512726 0.00584855 0)
(0.00375314 0.00560944 0)
(0.00238213 0.00529676 0)
(0.00106255 0.0048814 0)
(-0.000155639 0.00440783 0)
(-0.00124378 0.00390022 0)
(-0.00217441 0.00339032 0)
(-0.00296774 0.00291377 0)
(-0.00359848 0.00247764 0)
(-0.00409497 0.00214787 0)
(-0.00444172 0.00193239 0)
(-0.00464985 0.00190543 0)
(-0.00480068 0.0020729 0)
(-0.00492387 0.00247194 0)
(-0.00506561 0.0031308 0)
(-0.00529374 0.00407946 0)
(-0.00569095 0.00531233 0)
(-0.00633015 0.00680944 0)
(-0.0072772 0.0085502 0)
(-0.00859795 0.0104856 0)
(-0.0103452 0.0125612 0)
(-0.0125713 0.0146866 0)
(-0.0152941 0.0167955 0)
(-0.0185351 0.0187729 0)
(-0.0223135 0.0205014 0)
(-0.0265512 0.02185 0)
(-0.0311458 0.022687 0)
(-0.036004 0.0229046 0)
(-0.0409954 0.0223976 0)
(-0.0459611 0.0210763 0)
(-0.0507062 0.0188809 0)
(-0.0550268 0.0157817 0)
(-0.0587155 0.0117729 0)
(-0.0615489 0.00690082 0)
(-0.0633184 0.00124618 0)
(-0.0638412 -0.00507339 0)
(-0.0629349 -0.0118914 0)
(-0.0604458 -0.0189993 0)
(-0.0562887 -0.026152 0)
(-0.0504255 -0.033075 0)
(-0.0428954 -0.0394226 0)
(-0.0338529 -0.0446049 0)
(-0.0236372 -0.0476433 0)
(-0.0129782 -0.0472433 0)
(-0.00305098 -0.0356053 0)
(0.00335551 -0.0421802 0)
(0.0144287 -0.0559869 0)
(0.0263318 -0.0563086 0)
(0.0375395 -0.0523977 0)
(0.0472111 -0.045942 0)
(0.0550063 -0.0382205 0)
(0.060831 -0.0299934 0)
(0.0647329 -0.0216807 0)
(0.0668224 -0.0135985 0)
(0.0672682 -0.00601076 0)
(0.0662888 0.000884009 0)
(0.064093 0.00692558 0)
(0.0609115 0.0120078 0)
(0.0569895 0.0160812 0)
(0.0525598 0.0191357 0)
(0.0478515 0.0211904 0)
(0.0430686 0.0223166 0)
(0.0383983 0.0226184 0)
(0.0339889 0.0222184 0)
(0.0299578 0.0212508 0)
(0.0263515 0.0198635 0)
(0.0232435 0.0182132 0)
(0.0206583 0.0164565 0)
(0.018506 0.0146774 0)
(0.0167792 0.0129905 0)
(0.0154028 0.0114754 0)
(0.0142919 0.010173 0)
(0.0133791 0.00912763 0)
(0.0125735 0.008344 0)
(0.0118055 0.00781267 0)
(0.010996 0.00750058 0)
(0.0101016 0.00736251 0)
(0.00905145 0.007343 0)
(0.00784658 0.00735823 0)
(0.00651982 0.00735811 0)
(0.00506391 0.00728006 0)
(0.00355687 0.00708115 0)
(0.00203946 0.00670777 0)
(0.000580064 0.00622199 0)
(-0.000733763 0.00560994 0)
(-0.00187654 0.00495409 0)
(-0.002834 0.00427348 0)
(-0.00362539 0.00361633 0)
(-0.00420293 0.00301277 0)
(-0.004588 0.00250885 0)
(-0.00478332 0.00216182 0)
(-0.00479014 0.00199618 0)
(-0.00470024 0.002081 0)
(-0.00454517 0.00245416 0)
(-0.00437559 0.00316663 0)
(-0.00427684 0.00423113 0)
(-0.00435528 0.00566597 0)
(-0.0046956 0.00745448 0)
(-0.00538868 0.00955819 0)
(-0.00650844 0.0119262 0)
(-0.0081246 0.0144924 0)
(-0.0103083 0.0171623 0)
(-0.0131078 0.0198573 0)
(-0.0165474 0.0223988 0)
(-0.0206511 0.0246651 0)
(-0.0253709 0.0265181 0)
(-0.0305827 0.0277448 0)
(-0.03618 0.0282229 0)
(-0.0420193 0.027816 0)
(-0.0479145 0.0264064 0)
(-0.053642 0.0239118 0)
(-0.0589707 0.0202825 0)
(-0.0636467 0.0155105 0)
(-0.0674034 0.00963824 0)
(-0.0699945 0.00275631 0)
(-0.0711819 -0.00499516 0)
(-0.0707362 -0.0134275 0)
(-0.0684533 -0.0222939 0)
(-0.0641918 -0.0312915 0)
(-0.0578695 -0.0400779 0)
(-0.0494961 -0.0481979 0)
(-0.0392239 -0.0548892 0)
(-0.0274343 -0.0589338 0)
(-0.0149842 -0.0586461 0)
(-0.00343926 -0.0437745 0)
(0.00380313 -0.051251 0)
(0.0169244 -0.0688688 0)
(0.0311374 -0.0689055 0)
(0.0442725 -0.0635976 0)
(0.0553177 -0.0551896 0)
(0.063932 -0.0452987 0)
(0.0700797 -0.0349118 0)
(0.0738887 -0.0245559 0)
(0.0755503 -0.014608 0)
(0.0753052 -0.00536596 0)
(0.0734444 0.00293504 0)
(0.0702358 0.0101363 0)
(0.0659555 0.0161137 0)
(0.0609035 0.020817 0)
(0.0553562 0.0242447 0)
(0.0495885 0.0264379 0)
(0.0438478 0.0274881 0)
(0.0383447 0.0275333 0)
(0.0332521 0.0267298 0)
(0.0286998 0.0252701 0)
(0.0247434 0.0233152 0)
(0.0214563 0.0211196 0)
(0.0188171 0.0188093 0)
(0.0167399 0.0165515 0)
(0.0151826 0.0144399 0)
(0.014033 0.0125774 0)
(0.0132018 0.0110271 0)
(0.0125887 0.00981842 0)
(0.0120854 0.0089746 0)
(0.0115977 0.00846411 0)
(0.0110261 0.00825835 0)
(0.01029 0.00827793 0)
(0.00931629 0.00843403 0)
(0.00812131 0.00863544 0)
(0.00671468 0.0088257 0)
(0.0051085 0.0088497 0)
(0.00339061 0.00871345 0)
(0.00166083 0.00831262 0)
(9.71851e-06 0.00772234 0)
(-0.00147778 0.00694804 0)
(-0.0027302 0.00608504 0)
(-0.00374719 0.00519121 0)
(-0.00453576 0.00431049 0)
(-0.00506968 0.00347642 0)
(-0.00534448 0.00274475 0)
(-0.0053707 0.00219702 0)
(-0.00515097 0.00183888 0)
(-0.00475809 0.00179528 0)
(-0.00424306 0.00211091 0)
(-0.0036794 0.00284898 0)
(-0.00316962 0.00402444 0)
(-0.0028274 0.00567339 0)
(-0.00278147 0.00777443 0)
(-0.00313229 0.0102885 0)
(-0.00397254 0.0131713 0)
(-0.00539937 0.0163251 0)
(-0.0074834 0.0196586 0)
(-0.0103277 0.023029 0)
(-0.0139912 0.0263089 0)
(-0.0184488 0.0292599 0)
(-0.0237176 0.031777 0)
(-0.029677 0.0335433 0)
(-0.0361603 0.0344192 0)
(-0.0430284 0.0342248 0)
(-0.0500661 0.0328075 0)
(-0.0570127 0.0300573 0)
(-0.0635949 0.0259055 0)
(-0.0695155 0.020335 0)
(-0.0744552 0.0133754 0)
(-0.0781033 0.00512343 0)
(-0.0801747 -0.00425548 0)
(-0.0803767 -0.0145586 0)
(-0.0784283 -0.0254955 0)
(-0.0741234 -0.0367075 0)
(-0.0673093 -0.0477745 0)
(-0.0579343 -0.0581111 0)
(-0.046128 -0.0667364 0)
(-0.0323044 -0.0721367 0)
(-0.0174924 -0.0720755 0)
(-0.00388306 -0.0531468 0)
(0.00428582 -0.0617757 0)
(0.0200681 -0.0843997 0)
(0.0374084 -0.0839254 0)
(0.0530504 -0.0766233 0)
(0.0657579 -0.0656089 0)
(0.0752552 -0.0529409 0)
(0.0816412 -0.0398865 0)
(0.0851852 -0.0270844 0)
(0.0861931 -0.0149524 0)
(0.0850017 -0.00383866 0)
(0.081984 0.00606853 0)
(0.0774776 0.0145436 0)
(0.0718149 0.0214739 0)
(0.0653524 0.0268102 0)
(0.0584253 0.0305673 0)
(0.0513579 0.0328121 0)
(0.0444427 0.0336575 0)
(0.0379338 0.0332807 0)
(0.032041 0.0318917 0)
(0.0268865 0.0297443 0)
(0.0225653 0.0270374 0)
(0.0191134 0.0241287 0)
(0.0164753 0.0211385 0)
(0.0145391 0.0182858 0)
(0.0132213 0.0156637 0)
(0.0124195 0.0133765 0)
(0.0119762 0.0115324 0)
(0.0117774 0.0101482 0)
(0.0116805 0.0092488 0)
(0.0115678 0.00881448 0)
(0.0113085 0.00877529 0)
(0.0107872 0.00904524 0)
(0.00991593 0.00949682 0)
(0.00872419 0.00999223 0)
(0.007178 0.0104352 0)
(0.00533893 0.0106488 0)
(0.00332776 0.0105885 0)
(0.00124685 0.0101988 0)
(-0.000721958 0.00945126 0)
(-0.00245974 0.00845235 0)
(-0.00387075 0.00732709 0)
(-0.00497474 0.00616081 0)
(-0.00581071 0.00499476 0)
(-0.00631907 0.00387201 0)
(-0.00646964 0.002861 0)
(-0.00631732 0.002011 0)
(-0.00582464 0.00138635 0)
(-0.00505079 0.00114575 0)
(-0.00409412 0.00135239 0)
(-0.00303869 0.00205926 0)
(-0.00200015 0.00334997 0)
(-0.00112496 0.00520948 0)
(-0.000572764 0.00765243 0)
(-0.000457804 0.0106444 0)
(-0.000912122 0.0141228 0)
(-0.00205533 0.0179847 0)
(-0.00400633 0.0221133 0)
(-0.00684747 0.026331 0)
(-0.0106952 0.0305011 0)
(-0.0155462 0.0343522 0)
(-0.0214361 0.0377126 0)
(-0.0282722 0.040225 0)
(-0.0358144 0.0416757 0)
(-0.0439279 0.0418349 0)
(-0.0523559 0.0405216 0)
(-0.0607953 0.0375851 0)
(-0.0689258 0.0329266 0)
(-0.0763976 0.0265147 0)
(-0.0828306 0.0183761 0)
(-0.087837 0.00859738 0)
(-0.0910674 -0.00265854 0)
(-0.0921618 -0.0151037 0)
(-0.0907478 -0.0284798 0)
(-0.0865244 -0.0423597 0)
(-0.079231 -0.0562413 0)
(-0.0687105 -0.0693982 0)
(-0.0550183 -0.0805628 0)
(-0.0385561 -0.087836 0)
(-0.0205935 -0.0881624 0)
(-0.00435457 -0.0639606 0)
(0.00474087 -0.0740284 0)
(0.0240094 -0.103498 0)
(0.0457027 -0.102181 0)
(0.064629 -0.0919271 0)
(0.0792617 -0.0773435 0)
(0.0895919 -0.0610949 0)
(0.0960111 -0.0447507 0)
(0.0990127 -0.0290312 0)
(0.0990319 -0.0143513 0)
(0.0965805 -0.00107305 0)
(0.0920909 0.0106062 0)
(0.0859234 0.0204656 0)
(0.0785271 0.0284007 0)
(0.0703198 0.0343626 0)
(0.061701 0.0383824 0)
(0.0530446 0.040548 0)
(0.0447041 0.0410179 0)
(0.036994 0.0400103 0)
(0.0301641 0.0377982 0)
(0.0243291 0.0346888 0)
(0.0196405 0.0310378 0)
(0.0160896 0.0271906 0)
(0.0135234 0.023376 0)
(0.0118383 0.0197737 0)
(0.0108671 0.0165227 0)
(0.010519 0.0137549 0)
(0.0106171 0.0115642 0)
(0.0109707 0.00999234 0)
(0.0114396 0.00906304 0)
(0.0118379 0.00876044 0)
(0.0119979 0.00898027 0)
(0.0117724 0.00962359 0)
(0.0110303 0.0105141 0)
(0.00980644 0.0114633 0)
(0.00806036 0.0122397 0)
(0.00586385 0.0127724 0)
(0.00341983 0.0128463 0)
(0.000842306 0.0124566 0)
(-0.0016184 0.0114994 0)
(-0.00372527 0.0101959 0)
(-0.00539768 0.0087158 0)
(-0.00667036 0.00720867 0)
(-0.00757199 0.00568751 0)
(-0.00805941 0.00421739 0)
(-0.0081313 0.00280542 0)
(-0.00780346 0.00156695 0)
(-0.00697182 0.000603758 0)
(-0.00572218 4.85236e-05 0)
(-0.00422129 5.38255e-05 0)
(-0.00252622 0.000676793 0)
(-0.000814137 0.00206723 0)
(0.000728275 0.00414745 0)
(0.00194888 0.00697949 0)
(0.00267232 0.0105121 0)
(0.0027375 0.0146726 0)
(0.00198932 0.0193681 0)
(0.000283455 0.0244437 0)
(-0.00249968 0.0297351 0)
(-0.0065073 0.0349908 0)
(-0.0117487 0.0399857 0)
(-0.0183274 0.0444227 0)
(-0.0261695 0.0479421 0)
(-0.0349804 0.0501863 0)
(-0.0445847 0.0508997 0)
(-0.0546896 0.0498362 0)
(-0.0649556 0.0468049 0)
(-0.074991 0.0416785 0)
(-0.0843739 0.0344057 0)
(-0.0926661 0.0249925 0)
(-0.0994175 0.0135223 0)
(-0.104139 0.000168813 0)
(-0.106433 -0.0147801 0)
(-0.105865 -0.0310443 0)
(-0.10194 -0.0481428 0)
(-0.0942699 -0.0655238 0)
(-0.0825163 -0.082311 0)
(-0.0665469 -0.0968923 0)
(-0.0466342 -0.106847 0)
(-0.0243828 -0.107776 0)
(-0.00478632 -0.0764645 0)
(0.00498671 -0.0881125 0)
(0.0289003 -0.127384 0)
(0.0568903 -0.124746 0)
(0.0801954 -0.109974 0)
(0.0969063 -0.0904086 0)
(0.107761 -0.0695537 0)
(0.11379 -0.0492077 0)
(0.115826 -0.0300616 0)
(0.11446 -0.0124864 0)
(0.110298 0.00327474 0)
(0.103882 0.0169255 0)
(0.0956602 0.0282873 0)
(0.0861313 0.0372725 0)
(0.0757813 0.043839 0)
(0.065088 0.0480314 0)
(0.0545026 0.0499568 0)
(0.0444489 0.0498219 0)
(0.0353028 0.0478948 0)
(0.0273609 0.0445489 0)
(0.0208187 0.0401455 0)
(0.0158107 0.0352741 0)
(0.0122333 0.0302425 0)
(0.00988239 0.0253859 0)
(0.00855779 0.0208731 0)
(0.00811933 0.0168866 0)
(0.00842603 0.0135461 0)
(0.00922671 0.0109475 0)
(0.0103324 0.00917504 0)
(0.011546 0.00825085 0)
(0.0126211 0.00814988 0)
(0.0133452 0.00878382 0)
(0.0135218 0.00994934 0)
(0.012971 0.0114774 0)
(0.0116519 0.0130893 0)
(0.00962041 0.0143975 0)
(0.00695659 0.0153445 0)
(0.0038521 0.0156983 0)
(0.000529981 0.0152769 0)
(-0.00263015 0.0141125 0)
(-0.00529925 0.0123593 0)
(-0.0074095 0.0103441 0)
(-0.00898065 0.00841695 0)
(-0.0100564 0.00651025 0)
(-0.0106144 0.00453839 0)
(-0.0106138 0.00261466 0)
(-0.0100304 0.000853261 0)
(-0.00882114 -0.000613467 0)
(-0.0070169 -0.00162992 0)
(-0.00480814 -0.00194689 0)
(-0.00229052 -0.00142644 0)
(0.000280019 6.06494e-06 0)
(0.00266711 0.00234952 0)
(0.00473313 0.00558015 0)
(0.00623321 0.00971247 0)
(0.00699532 0.0146682 0)
(0.00681511 0.0203325 0)
(0.00550211 0.0265536 0)
(0.00288111 0.0331324 0)
(-0.00121928 0.0397803 0)
(-0.00684376 0.0462039 0)
(-0.0141561 0.0520136 0)
(-0.0231418 0.0568745 0)
(-0.0334491 0.0602031 0)
(-0.0448309 0.0617159 0)
(-0.0569658 0.0610851 0)
(-0.0694355 0.0580859 0)
(-0.0817772 0.052558 0)
(-0.0935063 0.0444076 0)
(-0.104106 0.0336237 0)
(-0.113023 0.0202849 0)
(-0.119707 0.00456537 0)
(-0.123675 -0.0132913 0)
(-0.124339 -0.0329056 0)
(-0.121064 -0.0538506 0)
(-0.113289 -0.0755575 0)
(-0.100383 -0.0970324 0)
(-0.0817728 -0.116308 0)
(-0.0572675 -0.130229 0)
(-0.0289481 -0.132016 0)
(-0.00501258 -0.0907647 0)
(0.00475911 -0.104337 0)
(0.0355762 -0.158463 0)
(0.0728432 -0.153594 0)
(0.101719 -0.131335 0)
(0.120272 -0.104515 0)
(0.130875 -0.0777692 0)
(0.135739 -0.0527156 0)
(0.136136 -0.0296796 0)
(0.132841 -0.00882224 0)
(0.126498 0.00968105 0)
(0.117641 0.0254931 0)
(0.106851 0.0384614 0)
(0.094709 0.0485216 0)
(0.0817571 0.0556481 0)
(0.0685486 0.0599 0)
(0.055619 0.0613971 0)
(0.0434875 0.0603602 0)
(0.0326389 0.0571352 0)
(0.0234204 0.0522125 0)
(0.0161567 0.0461429 0)
(0.0109471 0.0396281 0)
(0.00751068 0.0331384 0)
(0.00557709 0.0270053 0)
(0.00488201 0.0214225 0)
(0.00519721 0.016586 0)
(0.00634826 0.0125364 0)
(0.00810999 0.00948536 0)
(0.0102127 0.00750451 0)
(0.0124089 0.00662699 0)
(0.0144034 0.00682643 0)
(0.0158559 0.00809796 0)
(0.0165385 0.0100247 0)
(0.0162585 0.0123984 0)
(0.0148191 0.0148831 0)
(0.0123552 0.0170233 0)
(0.00907281 0.0186143 0)
(0.00506832 0.0193202 0)
(0.000743906 0.0190206 0)
(-0.00341415 0.0175306 0)
(-0.00710212 0.0151205 0)
(-0.0100034 0.01247 0)
(-0.0121221 0.00995056 0)
(-0.0136562 0.00746893 0)
(-0.0144375 0.00490991 0)
(-0.0143826 0.00231635 0)
(-0.0135576 -0.000158973 0)
(-0.011867 -0.00237312 0)
(-0.00933296 -0.00402006 0)
(-0.00616827 -0.00477437 0)
(-0.002617 -0.00444717 0)
(0.00100879 -0.00300076 0)
(0.00442976 -0.000398864 0)
(0.00751576 0.00326996 0)
(0.010044 0.00806191 0)
(0.011731 0.0139226 0)
(0.0123423 0.02071 0)
(0.0116443 0.02828 0)
(0.00938343 0.0364073 0)
(0.0053195 0.0447748 0)
(-0.000665297 0.0530155 0)
(-0.00870716 0.0605966 0)
(-0.0189495 0.0671971 0)
(-0.0310337 0.0719931 0)
(-0.0445345 0.0746139 0)
(-0.0590948 0.0746715 0)
(-0.0742084 0.0718735 0)
(-0.0893466 0.0660208 0)
(-0.103937 0.0569886 0)
(-0.117369 0.0447657 0)
(-0.129013 0.0293911 0)
(-0.138217 0.0110035 0)
(-0.144367 -0.0101302 0)
(-0.14682 -0.0335908 0)
(-0.144812 -0.0590437 0)
(-0.137543 -0.086007 0)
(-0.123931 -0.113529 0)
(-0.102483 -0.139499 0)
(-0.0718911 -0.15972 0)
(-0.0347509 -0.162763 0)
(-0.00477134 -0.10689 0)
(0.00453863 -0.124426 0)
(0.0485699 -0.200686 0)
(0.0995121 -0.191179 0)
(0.133631 -0.156293 0)
(0.151689 -0.118811 0)
(0.16016 -0.0847016 0)
(0.162704 -0.0543678 0)
(0.160692 -0.0271992 0)
(0.154812 -0.00283108 0)
(0.145619 0.0186368 0)
(0.133709 0.0367881 0)
(0.119806 0.0514658 0)
(0.104528 0.0626307 0)
(0.088472 0.0702686 0)
(0.0722523 0.0744384 0)
(0.056479 0.0752523 0)
(0.0418094 0.0729523 0)
(0.0288925 0.0679482 0)
(0.0182366 0.0608406 0)
(0.0102705 0.0525613 0)
(0.00503406 0.0439446 0)
(0.00205152 0.0356317 0)
(0.000849282 0.0279764 0)
(0.00106704 0.0211709 0)
(0.00237835 0.0152879 0)
(0.00464989 0.0104851 0)
(0.00765473 0.00689592 0)
(0.0110361 0.00468561 0)
(0.0145106 0.00392216 0)
(0.0177916 0.00460805 0)
(0.0202645 0.00658107 0)
(0.0215466 0.00956888 0)
(0.0215866 0.0131303 0)
(0.0200937 0.0167984 0)
(0.017194 0.0201368 0)
(0.0130343 0.022713 0)
(0.00789924 0.0240743 0)
(0.00218513 0.0239519 0)
(-0.00358433 0.0221888 0)
(-0.00872244 0.0191265 0)
(-0.0130388 0.0156611 0)
(-0.0164563 0.0122542 0)
(-0.0188654 0.00886519 0)
(-0.0201346 0.00542513 0)
(-0.0201998 0.00185889 0)
(-0.0191281 -0.00163468 0)
(-0.0168618 -0.00478437 0)
(-0.0133558 -0.00732854 0)
(-0.00897551 -0.00867904 0)
(-0.00411709 -0.00869921 0)
(0.000831756 -0.00724133 0)
(0.00552804 -0.00437413 0)
(0.00987547 -0.000181977 0)
(0.0136665 0.00529552 0)
(0.0165498 0.0121496 0)
(0.0182349 0.0202359 0)
(0.0184473 0.029381 0)
(0.0168333 0.039351 0)
(0.0130598 0.0498207 0)
(0.00684476 0.0603497 0)
(-0.00193587 0.0702928 0)
(-0.0135524 0.0790671 0)
(-0.0277174 0.0858484 0)
(-0.0437411 0.0899948 0)
(-0.0612084 0.0910453 0)
(-0.0795078 0.0886481 0)
(-0.0979997 0.082582 0)
(-0.116007 0.0726996 0)
(-0.132859 0.0589602 0)
(-0.147861 0.0413879 0)
(-0.160257 0.0201095 0)
(-0.169285 -0.00460575 0)
(-0.174261 -0.0323548 0)
(-0.174396 -0.0629682 0)
(-0.168662 -0.0961785 0)
(-0.155527 -0.131567 0)
(-0.132104 -0.167541 0)
(-0.0944858 -0.198294 0)
(-0.0446469 -0.203709 0)
(-0.00426546 -0.126053 0)
(0.00729656 -0.150925 0)
(0.0751389 -0.258352 0)
(0.144526 -0.236076 0)
(0.182436 -0.180564 0)
(0.19418 -0.130075 0)
(0.196034 -0.0888134 0)
(0.194597 -0.0534768 0)
(0.189652 -0.0217107 0)
(0.180832 0.00675085 0)
(0.168313 0.0313288 0)
(0.152765 0.0517616 0)
(0.135139 0.0680478 0)
(0.116154 0.0802284 0)
(0.0964209 0.0882998 0)
(0.0765898 0.0922489 0)
(0.0573641 0.0920969 0)
(0.039559 0.0880781 0)
(0.0240119 0.0806336 0)
(0.0115858 0.0705846 0)
(0.00289591 0.0593662 0)
(-0.00225436 0.0480305 0)
(-0.00459042 0.0374762 0)
(-0.00482818 0.0280765 0)