/*--------------------------------*- C++ -*----------------------------------*\
| =========                 |                                                 |
| \\      /  F ield         | OpenFOAM: The Open Source CFD Toolbox           |
|  \\    /   O peration     | Version:  2412                                  |
|   \\  /    A nd           | Website:  www.openfoam.com                      |
|    \\/     M anipulation  |                                                 |
\*---------------------------------------------------------------------------*/
FoamFile
{
    version     2.0;
    format      ascii;
    arch        "LSB;label=32;scalar=64";
    class       volScalarField;
    location    "3.3";
    object      p_rgh;
}
// * * * * * * * * * * * * * * * * * * * * * * * * * * * * * * * * * * * * * //

dimensions      [1 -1 -2 0 0 0 0];

internalField   nonuniform List<scalar> 
6400
(
7287.86
7288.28
7289.07
7290.25
7291.76
7293.57
7295.6
7297.73
7299.92
7302.07
7304.09
7305.92
7307.49
7308.72
7309.58
7310.04
7310.09
7309.73
7308.98
7307.88
7306.46
7304.79
7302.92
7300.92
7298.85
7296.78
7294.76
7292.83
7291.04
7289.42
7288
7286.77
7285.75
7284.92
7284.29
7283.82
7283.51
7283.33
7283.27
7283.32
7283.46
7283.69
7284.02
7284.44
7284.96
7285.61
7286.39
7287.31
7288.4
7289.64
7291.05
7292.62
7294.32
7296.15
7298.05
7300.01
7301.95
7303.84
7305.62
7307.22
7308.59
7309.69
7310.46
7310.89
7310.94
7310.61
7309.92
7308.88
7307.54
7305.95
7304.17
7302.27
7300.34
7298.45
7296.67
7295.07
7293.7
7292.65
7291.94
7291.56
7287.45
7287.87
7288.69
7289.92
7291.49
7293.35
7295.44
7297.66
7299.92
7302.15
7304.25
7306.15
7307.77
7309.04
7309.93
7310.41
7310.45
7310.07
7309.29
7308.15
7306.68
7304.96
7303.03
7300.98
7298.85
7296.73
7294.66
7292.7
7290.88
7289.25
7287.81
7286.59
7285.57
7284.76
7284.14
7283.7
7283.4
7283.24
7283.2
7283.25
7283.4
7283.63
7283.95
7284.36
7284.87
7285.5
7286.27
7287.18
7288.25
7289.49
7290.91
7292.48
7294.21
7296.06
7298.01
7300.01
7302
7303.94
7305.77
7307.42
7308.84
7309.97
7310.77
7311.21
7311.27
7310.93
7310.21
7309.13
7307.74
7306.09
7304.25
7302.28
7300.28
7298.31
7296.46
7294.81
7293.4
7292.31
7291.58
7291.2
7286.62
7287.06
7287.93
7289.24
7290.92
7292.91
7295.14
7297.52
7299.95
7302.35
7304.6
7306.63
7308.36
7309.72
7310.67
7311.17
7311.2
7310.79
7309.95
7308.72
7307.15
7305.31
7303.26
7301.09
7298.85
7296.62
7294.45
7292.42
7290.54
7288.87
7287.41
7286.18
7285.18
7284.39
7283.81
7283.4
7283.14
7283.01
7282.99
7283.07
7283.22
7283.45
7283.76
7284.15
7284.64
7285.25
7285.98
7286.87
7287.93
7289.17
7290.6
7292.2
7293.97
7295.89
7297.91
7300
7302.09
7304.14
7306.08
7307.83
7309.34
7310.55
7311.42
7311.89
7311.96
7311.6
7310.83
7309.68
7308.19
7306.42
7304.43
7302.32
7300.16
7298.05
7296.07
7294.29
7292.8
7291.63
7290.85
7290.45
7285.34
7285.82
7286.76
7288.2
7290.05
7292.24
7294.7
7297.32
7300.01
7302.66
7305.16
7307.4
7309.31
7310.8
7311.83
7312.36
7312.39
7311.92
7310.98
7309.61
7307.88
7305.86
7303.62
7301.25
7298.83
7296.43
7294.12
7291.96
7289.99
7288.26
7286.77
7285.53
7284.55
7283.8
7283.26
7282.91
7282.71
7282.64
7282.66
7282.77
7282.93
7283.16
7283.45
7283.82
7284.27
7284.83
7285.52
7286.38
7287.41
7288.65
7290.09
7291.74
7293.58
7295.59
7297.74
7299.97
7302.23
7304.45
7306.55
7308.47
7310.14
7311.48
7312.43
7312.96
7313.04
7312.66
7311.81
7310.55
7308.9
7306.93
7304.73
7302.38
7299.99
7297.65
7295.46
7293.5
7291.85
7290.58
7289.75
7289.31
7283.56
7284.08
7285.12
7286.76
7288.82
7291.29
7294.07
7297.05
7300.1
7303.11
7305.94
7308.48
7310.63
7312.31
7313.46
7314.04
7314.05
7313.49
7312.41
7310.85
7308.89
7306.61
7304.1
7301.46
7298.78
7296.14
7293.62
7291.29
7289.2
7287.38
7285.85
7284.62
7283.66
7282.97
7282.51
7282.24
7282.12
7282.12
7282.21
7282.36
7282.55
7282.77
7283.04
7283.36
7283.75
7284.24
7284.87
7285.67
7286.67
7287.9
7289.36
7291.07
7293.01
7295.16
7297.48
7299.92
7302.4
7304.86
7307.21
7309.37
7311.24
7312.76
7313.85
7314.47
7314.57
7314.15
7313.2
7311.76
7309.89
7307.66
7305.15
7302.48
7299.75
7297.09
7294.6
7292.39
7290.54
7289.09
7288.22
7287.73
7281.25
7281.81
7282.92
7284.88
7287.18
7290.02
7293.24
7296.68
7300.22
7303.71
7306.99
7309.92
7312.4
7314.32
7315.63
7316.27
7316.24
7315.57
7314.29
7312.47
7310.2
7307.58
7304.71
7301.7
7298.68
7295.72
7292.94
7290.39
7288.13
7286.2
7284.62
7283.39
7282.48
7281.88
7281.52
7281.37
7281.37
7281.48
7281.65
7281.86
7282.08
7282.3
7282.53
7282.78
7283.09
7283.49
7284.02
7284.74
7285.68
7286.88
7288.37
7290.15
7292.22
7294.55
7297.1
7299.8
7302.59
7305.37
7308.05
7310.52
7312.69
7314.45
7315.73
7316.46
7316.6
7316.12
7315.04
7313.39
7311.22
7308.63
7305.72
7302.61
7299.44
7296.35
7293.47
7290.93
7288.82
7287.18
7286.16
7285.64
7278.34
7278.97
7280.26
7282.3
7285.01
7288.38
7292.15
7296.2
7300.37
7304.49
7308.35
7311.79
7314.68
7316.91
7318.41
7319.12
7319.05
7318.21
7316.68
7314.52
7311.84
7308.77
7305.43
7301.96
7298.49
7295.13
7291.99
7289.16
7286.7
7284.65
7283.02
7281.8
7280.98
7280.49
7280.29
7280.3
7280.47
7280.73
7281.02
7281.31
7281.56
7281.77
7281.94
7282.11
7282.29
7282.56
7282.96
7283.56
7284.41
7285.57
7287.07
7288.93
7291.15
7293.7
7296.54
7299.59
7302.78
7305.98
7309.08
7311.97
7314.51
7316.59
7318.12
7319.01
7319.2
7318.67
7317.42
7315.48
7312.94
7309.88
7306.45
7302.78
7299.03
7295.38
7291.99
7289.03
7286.61
7284.7
7283.57
7283
7274.76
7275.44
7276.87
7279.15
7282.19
7286.31
7290.77
7295.56
7300.55
7305.48
7310.08
7314.16
7317.57
7320.19
7321.92
7322.72
7322.58
7321.53
7319.65
7317.05
7313.85
7310.2
7306.26
7302.2
7298.16
7294.29
7290.72
7287.55
7284.84
7282.65
7280.97
7279.8
7279.09
7278.78
7278.79
7279.04
7279.43
7279.89
7280.34
7280.74
7281.03
7281.23
7281.32
7281.36
7281.37
7281.45
7281.66
7282.08
7282.8
7283.88
7285.38
7287.33
7289.73
7292.55
7295.75
7299.24
7302.92
7306.66
7310.31
7313.72
7316.75
7319.26
7321.11
7322.21
7322.48
7321.89
7320.43
7318.15
7315.12
7311.49
7307.38
7302.99
7298.49
7294.14
7290.1
7286.58
7283.76
7281.64
7280.37
7279.76
7270.39
7271.11
7272.69
7275.29
7278.93
7283.58
7288.85
7294.64
7300.74
7306.73
7312.25
7317.14
7321.21
7324.31
7326.32
7327.2
7326.95
7325.62
7323.3
7320.13
7316.26
7311.88
7307.19
7302.38
7297.64
7293.14
7289.03
7285.44
7282.44
7280.08
7278.37
7277.29
7276.76
7276.7
7277.02
7277.58
7278.28
7279
7279.67
7280.2
7280.55
7280.72
7280.71
7280.56
7280.34
7280.15
7280.09
7280.26
7280.78
7281.74
7283.21
7285.24
7287.85
7291
7294.65
7298.68
7302.98
7307.39
7311.74
7315.83
7319.49
7322.54
7324.81
7326.19
7326.57
7325.91
7324.2
7321.49
7317.87
7313.5
7308.55
7303.26
7297.76
7292.56
7287.69
7283.47
7280.17
7277.85
7276.46
7275.82
7265.16
7265.84
7267.51
7270.43
7274.69
7280.22
7286.6
7293.54
7300.68
7308.33
7314.99
7320.87
7325.73
7329.41
7331.76
7332.73
7332.33
7330.63
7327.75
7323.85
7319.14
7313.84
7308.2
7302.45
7296.83
7291.55
7286.79
7282.69
7279.35
7276.82
7275.11
7274.16
7273.9
7274.2
7274.92
7275.91
7277.02
7278.11
7279.05
7279.77
7280.2
7280.32
7280.16
7279.76
7279.22
7278.67
7278.22
7278.04
7278.27
7279.03
7280.43
7282.54
7285.38
7288.93
7293.11
7297.83
7302.91
7308.16
7313.38
7318.33
7322.79
7326.53
7329.35
7331.09
7331.64
7330.91
7328.9
7325.66
7321.29
7315.99
7310
7303.64
7296.6
7290.44
7284.73
7279.65
7275.71
7273.17
7271.72
7271.11
7258.92
7259.47
7261.1
7264.26
7269.31
7275.95
7283.74
7292.25
7301.08
7309.83
7318.36
7325.47
7331.34
7335.73
7338.49
7339.55
7338.94
7336.75
7333.13
7328.31
7322.53
7316.08
7309.25
7302.34
7295.64
7289.4
7283.84
7279.14
7275.4
7272.7
7271.01
7270.28
7270.4
7271.19
7272.47
7274.04
7275.7
7277.27
7278.59
7279.54
7280.06
7280.12
7279.75
7279.02
7278.05
7276.98
7276.02
7275.35
7275.16
7275.63
7276.9
7279.06
7282.16
7286.17
7291.01
7296.56
7302.6
7308.92
7315.23
7321.27
7326.73
7331.35
7334.88
7337.11
7337.88
7337.09
7334.73
7330.84
7325.55
7319.06
7311.65
7303.69
7295.57
7287.87
7280.84
7274.71
7270.23
7267.44
7266.02
7265.51
7251.45
7251.81
7253.19
7256.29
7262.44
7270.46
7280.09
7290.55
7301.43
7312.19
7322.29
7331.13
7338.28
7343.55
7346.78
7347.92
7347
7344.17
7339.63
7333.63
7326.51
7318.61
7310.31
7301.96
7293.92
7286.5
7279.97
7274.54
7270.36
7267.47
7265.88
7265.48
7266.13
7267.59
7269.64
7271.99
7274.38
7276.58
7278.39
7279.65
7280.29
7280.27
7279.61
7278.42
7276.85
7275.1
7273.43
7272.08
7271.31
7271.35
7272.4
7274.58
7277.95
7282.51
7288.16
7294.73
7301.98
7309.61
7317.3
7324.69
7331.43
7337.18
7341.61
7344.47
7345.55
7344.73
7341.95
7337.27
7330.84
7322.85
7313.69
7303.93
7294.03
7284.59
7275.97
7268.27
7263.13
7260.37
7259.18
7258.84
7242.75
7242.65
7243.58
7245.76
7253.57
7263.93
7275.42
7288.24
7301.67
7314.96
7327.35
7338.15
7346.85
7353.18
7356.96
7358.16
7356.84
7353.18
7347.44
7339.97
7331.16
7321.47
7311.33
7301.2
7291.51
7282.64
7274.93
7268.64
7263.93
7260.88
7259.46
7259.54
7260.92
7263.31
7266.37
7269.75
7273.12
7276.16
7278.62
7280.29
7281.07
7280.92
7279.88
7278.07
7275.7
7273.03
7270.39
7268.11
7266.54
7265.97
7266.67
7268.82
7272.5
7277.71
7284.33
7292.16
7300.89
7310.16
7319.57
7328.67
7337.01
7344.18
7349.76
7353.44
7354.95
7354.12
7350.86
7345.24
7337.42
7327.48
7316.22
7304.11
7291.89
7280.35
7270.13
7260.48
7253.91
7251.81
7251.03
7251.14
7234.59
7231.72
7229.89
7232.26
7241.05
7254.42
7268.95
7284.89
7301.63
7318.22
7333.61
7346.89
7357.46
7365.03
7369.44
7370.65
7368.78
7364.04
7356.79
7347.46
7336.56
7324.63
7312.23
7299.9
7288.18
7277.53
7268.39
7261.06
7255.75
7252.55
7251.42
7252.18
7254.56
7258.18
7262.61
7267.37
7272.04
7276.19
7279.5
7281.71
7282.67
7282.33
7280.77
7278.12
7274.67
7270.76
7266.82
7263.29
7260.62
7259.21
7259.4
7261.43
7265.44
7271.41
7279.22
7288.6
7299.17
7310.5
7322.04
7333.26
7343.61
7352.56
7359.62
7364.36
7366.45
7365.65
7361.85
7355.08
7345.49
7333.34
7319.24
7304.01
7288.71
7274.36
7261.82
7247.88
7240.12
7238.71
7241.32
7244.12
7232.25
7222
7206.37
7202.78
7221.17
7240.74
7259.7
7279.81
7300.92
7321.94
7341.29
7357.73
7370.59
7379.62
7384.72
7385.87
7383.24
7377.11
7367.93
7356.26
7342.76
7328.08
7312.89
7297.84
7283.61
7270.81
7259.92
7251.35
7245.34
7242.02
7241.32
7243.03
7246.77
7252.05
7258.3
7264.9
7271.27
7276.9
7281.32
7284.23
7285.41
7284.82
7282.54
7278.78
7273.89
7268.33
7262.65
7257.43
7253.27
7250.7
7250.16
7251.97
7256.31
7263.19
7272.44
7283.73
7296.6
7310.47
7324.67
7338.52
7351.37
7362.57
7371.51
7377.64
7380.5
7379.8
7375.38
7367.24
7355.52
7340.48
7322.66
7303.22
7283.72
7265.38
7248.29
7229.31
7209.49
7212.39
7233.06
7242.43
7238.73
7219.47
7176.59
7169.89
7194.46
7220.96
7245.96
7271.9
7299.22
7326.34
7351.03
7371.44
7386.92
7397.58
7403.36
7404.29
7400.59
7392.63
7381
7366.41
7349.69
7331.65
7313.06
7294.7
7277.4
7261.96
7248.98
7238.9
7232.05
7228.63
7228.56
7231.58
7237.18
7244.7
7253.38
7262.42
7271.06
7278.62
7284.51
7288.31
7289.78
7288.84
7285.6
7280.36
7273.55
7265.78
7257.77
7250.27
7244.08
7239.91
7238.32
7239.76
7244.47
7252.46
7263.48
7277.12
7292.81
7309.84
7327.31
7344.41
7360.36
7374.38
7385.69
7393.6
7397.53
7397.08
7392.04
7382.37
7368.18
7349.51
7326.77
7301.49
7275.92
7252.01
7229.4
7206.71
7180.8
7188.44
7231.35
7249.05
7258.9
7228.81
7171.37
7142.01
7161.32
7194.26
7227.4
7260.9
7296.24
7331.78
7363.57
7388.78
7407
7419.4
7425.86
7426.42
7421.26
7410.88
7396.07
7377.79
7357.13
7335.02
7312.3
7289.91
7268.97
7250.41
7234.88
7222.94
7215.03
7211.48
7212.28
7217.06
7225.18
7235.75
7247.69
7259.93
7271.49
7281.52
7289.27
7294.21
7296.03
7294.64
7290.19
7283.02
7273.74
7263.1
7251.99
7241.4
7232.41
7226.01
7222.98
7223.91
7229.09
7238.5
7251.74
7268.22
7287.29
7308.16
7329.65
7350.7
7370.43
7387.96
7402.31
7412.57
7417.95
7417.92
7412.25
7400.92
7384.14
7361.27
7332.08
7298.78
7265.34
7233.83
7203.52
7173.58
7156.65
7181.64
7238.04
7265.97
7294.88
7239.83
7154.31
7101.81
7117.63
7152.19
7191.98
7237.02
7285.9
7334.9
7377.05
7408.55
7430.13
7445.29
7452.91
7453.12
7446.16
7432.62
7413.58
7390.49
7365.08
7338.37
7310.69
7283.13
7257.67
7235.36
7216.81
7202.66
7193.46
7189.8
7191.71
7198.73
7210.09
7224.64
7240.94
7257.45
7272.84
7286.05
7296.15
7302.51
7304.78
7302.86
7296.86
7287.21
7274.69
7260.23
7244.94
7230.22
7217.63
7208.4
7203.48
7203.63
7209.3
7220.42
7236.19
7256.15
7279.51
7305.21
7331.82
7357.47
7381.64
7403.6
7421.98
7435.27
7442.45
7442.83
7436.11
7422.17
7401.85
7373.55
7335.26
7289.14
7242.41
7200.23
7164.62
7134
7123.81
7175.18
7256.59
7303.95
7292.41
6856.7
6015.62
5790.92
6261.82
6658.53
7067.1
7184.58
7259.28
7328.45
7387.23
7428.51
7456.55
7475.73
7484.99
7484.73
7475.5
7458.34
7434.59
7406.15
7375.58
7343.83
7310.28
7276.32
7245.28
7218.28
7195.82
7178.59
7167.15
7163.01
7166.46
7176.57
7192.3
7211.96
7233.74
7255.66
7276
7293.34
7306.49
7314.63
7317.48
7314.91
7306.95
7294.07
7277.31
7257.95
7237.33
7217.34
7200.26
7187.42
7179.75
7178.85
7185.39
7198.96
7218.66
7242.89
7271.31
7303.14
7335.98
7367.05
7396.21
7423.01
7445.7
7462.18
7471.3
7472.12
7463.93
7445.96
7419.41
7381.65
7327.6
7261.91
7190.5
7088.27
6722.6
6297.8
6049.41
6334.66
7039.3
7309.22
6839.78
4415.4
1802.29
576.394
583.333
1718.93
3548.95
5180.03
6227.72
6933.89
7362.57
7460.92
7500.22
7522.7
7532.16
7531.01
7519.43
7497.63
7467.44
7430.92
7384.48
7357.04
7177.66
6684.33
6221.51
5808.39
5452.51
5157.22
4879.7
4774.66
4835.78
5029.1
5326.6
5667.85
6010.73
6319.54
6581.7
6787.17
6929.81
7011.41
7041.35
7021.86
6945.77
6808.75
6617.23
6382.06
6103.31
5796.02
5517.84
5294.41
5131.48
5107.2
5263.4
5476.02
5783.82
6150.99
6567.78
7029.55
7346.91
7382.13
7416.89
7454.3
7483.29
7504.49
7516.04
7517.13
7507.98
7486.26
7449.82
7354.06
6902.52
6196.1
5219.01
3688.97
1897.03
687.366
807.368
2306.98
4859.33
6946.4
1873.09
674.303
22.681
12.0519
6.29697
4.69103
4.27357
6.13308
683.283
1989.73
3950.3
6119.89
6815.41
6940.43
6964.71
6969.48
6845.09
6381.05
5590.03
4522.93
3444.69
2405.92
1496.94
916.314
548.726
295.597
118.313
18.4566
22.7404
52.0568
109.305
206.474
343.947
529.365
785.418
1099.69
1444.67
1781.63
2055.44
2226.36
2283.61
2230.25
2054.58
1772.09
1437.26
1095.55
775.913
513.543
324.008
185.206
90.9015
38.5785
21.5785
123.721
290.428
526.839
849.736
1340.33
2123.67
3139.98
4194.16
5230.21
6087.49
6616.51
6820.96
6773.29
6668.63
6477.8
5877.46
3908.84
1933.02
644.652
4.97801
3.47458
4.74916
6.96423
18.3453
40.3552
857.002
2066.25
8.84813
6.38559
4.91279
3.31368
2.90968
2.89842
2.76377
2.42735
1.47201
1.0133
1.55698
646.889
1467.96
1605.56
1493.75
1342.71
1048.4
676.636
326.973
99.8562
10.1159
0.839236
0.882092
0.95567
1.01686
1.05557
1.06897
1.12292
1.12122
1.07651
1.06139
1.02804
0.953827
0.938312
1.04439
1.32128
1.76433
2.29355
2.74565
2.96747
2.93555
2.71454
2.26244
1.73179
1.24849
0.895365
0.756956
0.771437
0.851392
0.955841
0.991356
1.02355
1.01372
0.961309
0.959717
0.934561
0.899757
0.866732
3.08895
31.7319
85.8905
253.2
539.289
858.931
1097.33
1166.17
1162.89
1044.74
501.684
1.56959
1.08135
1.32986
1.98162
2.19996
2.61657
3.76673
6.54878
11.933
17.1286
16.4552
9.52461
7.76108
4.15168
2.32659
2.19035
2.18336
2.08485
1.95659
1.6658
1.22332
1.31406
1.24412
1.0629
0.862434
0.762281
0.691865
0.670179
0.700154
0.770028
0.831591
0.809331
0.776664
0.837155
0.864062
0.906296
0.949043
1.00779
1.04496
1.02735
0.991164
0.948484
0.898948
0.851806
0.820582
0.784725
0.746593
0.715868
0.699355
0.694448
0.695863
0.689078
0.670646
0.649899
0.650564
0.666287
0.694605
0.730018
0.755621
0.778182
0.816139
0.862737
0.906825
0.935002
0.901006
0.858664
0.831211
0.790364
0.747089
0.652318
0.583527
0.622029
0.628672
0.594216
0.582457
0.622028
0.721931
0.855459
1.01777
1.20203
1.34356
1.27607
1.37589
1.50069
1.63224
1.67581
2.03196
4.06118
16.8324
21.1962
17.2941
8.71251
7.59847
2.51782
1.95092
1.96479
2.15224
1.81199
1.94773
2.25408
2.21444
1.6918
1.32209
1.17427
1.02077
0.909669
0.837853
0.79896
0.79157
0.812186
0.843698
0.857441
0.864616
0.868344
0.885621
0.911796
0.935127
0.955147
0.985233
0.969786
0.942089
0.909
0.867333
0.823375
0.790897
0.754646
0.715364
0.677101
0.643325
0.617113
0.60105
0.594699
0.597185
0.608641
0.628127
0.653383
0.681935
0.711821
0.738082
0.760739
0.790071
0.821911
0.851392
0.867413
0.851131
0.828531
0.805929
0.781247
0.755431
0.726691
0.69042
0.669882
0.66865
0.673061
0.696156
0.753453
0.850434
0.984247
1.1468
1.2888
1.49423
1.55683
1.4187
1.23275
1.19345
1.0791
0.86126
9.00603
18.269
19.9112
20.8546
4.56045
7.38608
2.48559
1.88889
3.01868
2.81222
2.72756
2.52392
2.06745
2.48306
1.85261
1.41945
1.24366
1.10796
1.00091
0.927222
0.880734
0.857632
0.853189
0.857706
0.862801
0.869713
0.867145
0.865709
0.881521
0.894853
0.904705
0.908718
0.906957
0.88895
0.858383
0.825909
0.797908
0.76884
0.737735
0.705413
0.674002
0.645875
0.623444
0.609405
0.604755
0.608069
0.618497
0.634205
0.653134
0.67433
0.696678
0.718243
0.739174
0.760858
0.782564
0.799882
0.808072
0.802449
0.790859
0.777027
0.764479
0.749777
0.738972
0.717965
0.710555
0.718244
0.737387
0.772584
0.832331
0.923398
1.04513
1.19315
1.35417
1.64074
1.6251
1.72649
1.66929
1.98773
0.830737
0.339846
0.601301
5.43963
10.5651
20.1774
2.4724
5.22505
1.2875
1.54499
3.10486
2.86779
2.84448
2.44373
1.41786
2.04834
1.54854
1.39562
1.26306
1.15224
1.06309
0.993059
0.939804
0.902216
0.878616
0.866755
0.861719
0.85864
0.850554
0.847072
0.848149
0.856725
0.861126
0.860615
0.852134
0.837272
0.818102
0.796183
0.772646
0.747927
0.722213
0.696046
0.670614
0.647631
0.629293
0.617962
0.614264
0.61631
0.624188
0.635694
0.648279
0.664264
0.681424
0.698954
0.716256
0.732753
0.747486
0.758257
0.762908
0.760226
0.753054
0.742986
0.733277
0.731053
0.73073
0.731044
0.73683
0.751752
0.778751
0.821108
0.882569
0.965786
1.06953
1.1899
1.32433
1.47223
1.46927
1.37201
2.8414
2.60208
2.38689
0.650015
-0.72554
-0.889291
-0.607986
8.31721
3.05986
1.50077
1.3742
1.53891
3.28435
3.14509
2.50606
1.12144
1.33834
1.4654
1.41724
1.31504
1.22797
1.17083
1.1511
1.08063
0.982957
0.930302
0.886458
0.859593
0.845981
0.837502
0.829111
0.824875
0.825326
0.824968
0.824363
0.820965
0.813189
0.801215
0.785884
0.768013
0.74849
0.727843
0.706506
0.685107
0.664554
0.646189
0.63177
0.622836
0.619365
0.619679
0.624592
0.631942
0.641279
0.653795
0.667461
0.681185
0.694244
0.70605
0.715842
0.722506
0.725075
0.723612
0.719912
0.716594
0.71258
0.712387
0.717072
0.726395
0.742539
0.767589
0.805122
0.868805
0.936436
0.980724
1.04812
1.13141
1.21783
1.28826
1.27778
1.06361
1.78942
2.75217
2.59203
2.41978
0.934219
-0.0798951
0.12094
0.560127
21.2176
2.4312
1.40322
1.44369
1.80505
1.74517
1.0853
1.1473
1.30199
1.34788
1.2883
1.19796
1.39462
2.12906
2.49377
2.28954
1.69301
1.13983
0.876704
0.833438
0.814412
0.808841
0.801826
0.7966
0.793855
0.791733
0.789799
0.785477
0.778489
0.768665
0.756301
0.741637
0.725627
0.708547
0.690937
0.673381
0.656706
0.642083
0.630887
0.623621
0.62046
0.620035
0.622348
0.626915
0.634081
0.643624
0.653947
0.664158
0.67357
0.681563
0.687532
0.690868
0.691268
0.689087
0.685512
0.682136
0.681105
0.683772
0.691077
0.704249
0.726467
0.765299
1.11199
1.6555
1.87026
1.62446
1.1444
1.02189
1.07451
1.11973
1.11297
0.994789
0.772768
1.2487
2.86829
2.79608
1.74031
0.522586
0.722178
0.98151
24.4228
3.59155
1.33068
1.315
1.20536
1.10948
1.08843
1.1623
1.24775
1.24661
1.14871
1.05872
2.10319
2.70629
2.70986
2.70291
2.67733
2.48416
1.4625
0.807698
0.774434
0.774325
0.769795
0.765085
0.761659
0.759101
0.756519
0.7525
0.746581
0.738585
0.728568
0.71676
0.703636
0.689587
0.675114
0.660738
0.647228
0.635761
0.627068
0.621162
0.61855
0.621211
0.619779
0.621819
0.626265
0.632948
0.640371
0.647616
0.653932
0.658743
0.661538
0.661932
0.659865
0.655787
0.650815
0.646632
0.644432
0.646787
0.653959
0.667966
0.694418
1.35054
2.02503
2.04695
2.06226
2.07876
1.9716
0.998583
0.901654
0.955167
0.972924
0.920089
0.799733
0.685601
1.08159
1.65683
1.40971
0.939692
1.0752
1.26451
24.9399
4.11838
1.2222
1.2445
1.17891
1.10158
1.08262
1.12154
1.29814
2.16006
2.33965
1.25814
1.52571
2.60047
2.66995
2.68256
2.64641
2.5652
2.17536
0.75355
0.745354
0.741155
0.735214
0.73092
0.728146
0.72627
0.724285
0.721196
0.716607
0.710348
0.702413
0.692978
0.68237
0.67095
0.659085
0.647261
0.636261
0.627153
0.620505
0.618054
0.614406
0.61641
0.617089
0.616744
0.617246
0.621812
0.626981
0.631781
0.635501
0.637615
0.637653
0.635263
0.630368
0.623352
0.615169
0.60728
0.601093
0.601342
0.611088
0.625641
1.30373
1.95856
1.97471
1.99013
1.99816
1.99155
1.97373
1.11824
0.716794
0.792196
0.84123
0.833378
0.78197
0.738773
0.751912
0.831952
0.991292
1.1386
1.25953
1.4088
18.6312
3.30855
1.13286
1.1509
1.09854
1.02752
1.00469
1.03769
5.24001
11.2864
10.4488
3.47366
1.02754
1.20153
1.3804
2.39526
2.43214
1.61824
0.840122
0.784928
0.732242
0.716909
0.698943
0.69397
0.692963
0.69302
0.692615
0.691056
0.688071
0.68354
0.677494
0.670109
0.661666
0.652486
0.642861
0.633089
0.624022
0.616592
0.611533
0.618273
0.662136
0.609342
0.608613
0.606506
0.607182
0.610357
0.613817
0.6167
0.618366
0.618286
0.615947
0.610902
0.602892
0.592013
0.578918
0.564702
0.54914
0.545855
0.560355
0.576671
1.83227
1.88104
1.91896
1.93447
1.94398
1.88888
1.04188
0.649423
0.596726
0.893223
0.775189
0.730978
0.726864
0.739577
0.795706
0.907072
1.04542
1.19403
1.33402
1.45437
3.23969
3.30537
1.07363
1.0342
0.95407
0.868615
1.81414
10.7119
11.4927
11.2073
10.7081
3.33649
0.694167
1.02358
1.16727
0.976159
0.840301
0.776934
0.759068
0.747954
0.72175
0.685046
0.661108
0.652859
0.655531
0.659365
0.661476
0.661987
0.660824
0.65801
0.653681
0.648074
0.641483
0.634197
0.626436
0.618455
0.610975
0.604263
0.60098
0.60858
0.700953
0.601837
0.595889
0.595179
0.596604
0.598879
0.601117
0.602584
0.602712
0.600949
0.596672
0.589229
0.578017
0.562566
0.542806
0.518528
0.486132
0.474119
0.499452
0.711971
1.36192
1.52179
1.3877
0.980214
0.928018
0.798456
0.616097
0.421521
1.71854
8.21345
6.88535
1.48309
0.626321
0.667821
0.759676
0.900042
1.05411
1.1951
1.32053
1.42231
3.48124
3.32577
1.01231
0.877827
0.729832
0.866674
7.31726
11.2206
11.1046
10.6257
4.40745
0.163017
0.19731
1.99617
3.80909
3.11589
1.32701
0.726322
0.687069
1.02299
1.15843
0.623267
0.603614
0.601742
0.615048
0.625592
0.631229
0.634235
0.63498
0.633785
0.630981
0.626896
0.621868
0.616182
0.61
0.603461
0.597045
0.591647
0.589588
0.593798
0.694296
0.595091
0.585411
0.584999
0.586111
0.587805
0.589213
0.589742
0.588869
0.585985
0.580328
0.57099
0.556864
0.53665
0.508946
0.472061
0.415234
0.381656
0.775445
0.906857
0.460785
0.470585
0.516015
0.666145
1.2223
0.948526
0.358023
0.0682707
5.73571
8.73047
9.0215
9.30599
7.46949
0.915616
0.627036
0.806345
0.983148
1.12579
1.23997
1.33013
4.57156
3.61754
0.888348
0.653931
0.407031
2.52743
11.3847
10.8334
10.4398
3.68425
-0.134995
-0.31998
2.57779
4.58589
5.1184
5.70173
5.85599
1.71014
0.616549
1.24054
1.25901
0.681424
0.531828
0.546212
0.573974
0.593191
0.602768
0.608359
0.610856
0.611029
0.609464
0.606615
0.602869
0.59853
0.593737
0.588539
0.583331
0.579406
0.578396
0.579467
0.688016
0.594195
0.575507
0.575117
0.576074
0.577374
0.578292
0.578348
0.577052
0.573742
0.567523
0.557193
0.541101
0.516921
0.480928
0.426508
0.356571
0.394689
0.788725
0.78469
0.296956
0.287001
0.337639
2.0729
4.26952
3.99999
1.14464
-0.393174
1.22046
8.09341
8.61383
8.92687
9.1995
4.08855
0.43022
0.61892
0.834088
0.991668
1.10632
1.19575
4.55456
3.21074
0.679433
0.353909
-0.0113132
4.36849
11.1388
10.5333
6.3265
-0.825459
-1.07108
-1.17462
1.8281
3.60179
4.3879
5.09813
5.761
6.43256
0.654999
0.840674
1.16998
0.673281
0.468019
0.501049
0.537992
0.56369
0.577484
0.585127
0.588841
0.589917
0.589196
0.587246
0.58449
0.581255
0.577712
0.573896
0.570181
0.567964
0.568407
0.570218
0.681309
0.626616
0.565955
0.56569
0.566521
0.567576
0.568359
0.56846
0.567387
0.56446
0.55872
0.54881
0.532666
0.507157
0.466491
0.399736
0.30685
0.374721
0.699919
0.561985
0.0938941
0.0476258
2.89697
4.02228
3.61548
3.1432
2.72693
1.37028
-0.665886
-0.301241
7.36324
8.44155
8.74101
7.78821
0.587999
0.338497
0.616483
0.804967
0.93767
1.03977
4.44499
2.66582
0.401411
0.00445718
-0.383268
6.37637
10.8787
10.3044
1.9257
-1.58759
-1.90079
-1.98513
-1.79688
-1.20965
1.26357
4.18043
5.476
6.34916
3.29292
0.321853
0.391086
0.483407
0.43426
0.474716
0.514738
0.542697
0.557454
0.565403
0.569266
0.570542
0.570164
0.568727
0.566653
0.564265
0.561799
0.559314
0.557109
0.55662
0.558768
0.581882
0.673926
0.628931
0.556086
0.556198
0.557075
0.558177
0.559228
0.559888
0.559707
0.558047
0.554009
0.546312
0.532798
0.510281
0.472295
0.407667
0.314859
0.251359
0.209782
0.052488
-0.0478766
0.236837
3.89079
3.38849
2.77813
2.15566
1.63044
-1.37533
-1.73632
-1.50953
0.16923
7.88716
8.40045
8.97677
1.10952
0.00318214
0.356782
0.585325
0.756919
0.876192
4.09211
4.71789
0.0850484
-0.341785
-0.712205
8.74715
10.6146
10.0894
1.50001
-2.24081
-2.55525
-2.62699
-2.41026
-1.90884
-1.18348
-0.403924
4.44065
6.11392
6.76494
0.235124
0.339357
0.404645
0.436843
0.473038
0.508196
0.531501
0.543327
0.549414
0.552135
0.552806
0.552235
0.550917
0.549204
0.547365
0.545646
0.544101
0.542707
0.581377
0.710836
0.731162
0.663383
0.574938
0.544516
0.545846
0.547141
0.548746
0.550522
0.552242
0.553578
0.554022
0.552854
0.549181
0.541142
0.526166
0.498688
0.448987
0.37296
0.282738
0.187997
0.0599415
-0.117842
3.08493
3.51872
2.78037
2.05525
-0.386756
-2.27164
-2.54573
-2.51275
-2.21347
-1.78676
6.49526
8.15453
8.77978
2.05679
-0.331945
0.0894306
0.351119
0.587303
0.725049
4.39551
5.78341
-0.139698
-0.61282
-1.01177
6.6199
10.3781
9.8472
3.67462
-2.78381
-3.09886
-3.15433
-2.85573
-2.11295
-1.36458
-0.65533
0.202244
6.12684
7.2379
0.253903
0.368769
0.444923
0.470759
0.49434
0.515582
0.528408
0.534074
0.536438
0.536926
0.536314
0.535096
0.533572
0.531953
0.530393
0.529048
0.527943
0.526791
0.629964
0.716072
0.718908
0.586078
0.529619
0.532198
0.534327
0.536445
0.538947
0.541804
0.544961
0.548279
0.551513
0.554295
0.555898
0.555331
0.551099
0.539797
0.513808
0.465912
0.397683
0.304083
0.141778
-0.108408
3.80285
3.1575
2.13236
-0.834534
-2.1634
-2.78672
-3.05528
-3.01425
-2.70129
-0.573315
7.46181
7.95031
8.61383
1.01317
-0.538895
-0.151755
0.118506
0.422014
0.576485
5.82907
5.67817
-0.140063
-0.755337
-1.37087
0.607208
10.4253
9.64849
9.20607
-0.183131
-3.54607
-3.58044
0.351882
6.19631
-0.386103
-0.817382
-0.187823
6.33541
7.44804
1.46581
0.43947
0.509981
0.522172
0.526773
0.529505
0.529265
0.527229
0.52496
0.522649
0.5204
0.518296
0.516385
0.514701
0.513265
0.512086
0.51114
0.510053
0.548016
0.68541
0.705634
0.624085
0.514799
0.519003
0.521818
0.524919
0.52849
0.532607
0.537378
0.542911
0.549164
0.556087
0.563575
0.571328
0.578899
0.585135
0.585064
0.570373
0.532722
0.451683
0.280881
0.0769784
3.62638
2.94865
0.431279
-0.614273
-1.65788
-2.93302
-3.36877
-3.33795
-1.14415
6.89102
7.32621
7.83951
6.04359
-0.986451
-0.679403
-0.332437
-0.0534417
0.329723
3.88605
5.83826
4.66192
-0.228398
-0.732143
-1.32991
-2.26974
7.90179
9.66406
8.96982
8.51272
7.19095
4.46743
7.7254
8.34275
5.27181
-0.839552
-0.219577
3.76878
7.64224
3.86161
0.530121
0.577478
0.571941
0.555904
0.541446
0.529074
0.519744
0.513043
0.508096
0.504273
0.501308
0.499005
0.497228
0.495881
0.494865
0.494103
0.49342
0.492545
0.528554
0.693987
0.686867
0.500338
0.504879
0.508419
0.512457
0.517074
0.522456
0.528762
0.536518
0.545657
0.556548
0.56953
0.584936
0.603121
0.624506
0.646738
0.662067
0.656962
0.599101
0.443774
3.63314
3.51091
1.38946
0.529354
1.95304
5.40508
3.62704
2.59735
5.30139
6.46373
6.76892
7.25318
8.05293
-1.55177
-1.4096
-0.805243
-0.351549
-0.237035
0.888895
6.51474
5.96274
0.609667
-0.168941
-0.554393
-1.10177
-1.93061
-2.31285
5.08609
9.24388
8.64226
8.39092
8.59765
8.73621
9.04673
6.04276
-0.692622
-0.0988397
1.74064
8.573
4.60784
0.628409
0.626956
0.602001
0.569397
0.542674
0.52291
0.509009
0.499146
0.492109
0.487178
0.483633
0.481099
0.479321
0.478121
0.477345
0.476908
0.476741
0.47681
0.504474
0.682487
0.54894
0.485485
0.489846
0.494164
0.498953
0.50448
0.511017
0.518924
0.528287
0.539794
0.553939
0.571342
0.592701
0.618831
0.650811
0.68808
0.725138
0.747808
0.721956
1.24902
5.48973
3.67336
-0.464348
1.52004
6.69311
6.61398
6.70883
6.60506
6.45343
6.66099
7.06294
7.15012
-0.359435
-1.96958
-1.22154
-0.730457
-0.407149
-0.270739
0.963647
6.40445
3.96543
2.90769
0.0190429
-0.314354
-0.79094
-1.45606
-2.31634
-2.97728
-0.683254
4.4979
1.79546
-3.83275
4.05343
9.7769
1.61079
-0.84324
0.16357
5.45317
9.27448
4.57845
0.666902
0.646885
0.602055
0.561948
0.530639
0.508235
0.49259
0.481594
0.473782
0.468533
0.464881
0.462415
0.460819
0.459883
0.459435
0.459403
0.459731
0.46069
0.566949
0.650837
0.464889
0.469902
0.474204
0.479026
0.484326
0.49051
0.497833
0.506685
0.517395
0.530595
0.546953
0.567274
0.592434
0.623313
0.661141
0.706173
0.755052
0.799748
0.842091
3.56524
5.6978
3.78573
-0.610713
3.24153
6.93846
-0.00975154
-3.87192
-1.24025
5.2921
5.56098
-1.1308
-1.83627
-2.2192
-1.50055
-0.913179
-0.542079
-0.283422
-0.123048
0.464039
6.05122
0.415395
4.2167
2.44836
-0.112313
-0.496528
-0.984881
-1.61891
-2.25422
-2.75865
-3.17997
-3.3153
-3.28465
-1.69375
4.92783
0.575863
-0.635406
0.278255
8.23302
9.83672
4.59173
0.657658
0.620297
0.574285
0.534732
0.505756
0.485067
0.470456
0.460199
0.453097
0.448134
0.444867
0.442813
0.441631
0.441106
0.441071
0.44145
0.442197
0.465574
0.608113
0.49572
0.449055
0.453568
0.457948
0.462964
0.468564
0.475087
0.482805
0.492136
0.503452
0.517485
0.534884
0.556482
0.583258
0.615781
0.655744
0.703217
0.756735
0.81249
0.952857
4.95378
5.87308
2.87248
-0.623863
0.824006
4.26562
-2.5462
-3.04514
-3.27052
-2.98044
-2.74491
-2.71032
-2.17388
-1.58234
-1.02102
-0.596555
-0.314451
-0.0914672
0.131009
1.06528
1.12302
-0.0424846
1.13818
3.26253
2.67977
-0.0533441
-0.620512
-1.01531
-1.44576
-1.82667
-2.08995
-2.25417
-2.23475
-1.01193
-0.216873
-0.649084
-0.396445
0.421268
10.674
10.4684
3.11745
0.58212
0.555416
0.520571
0.491076
0.470433
0.454493
0.443107
0.435114
0.429617
0.42589
0.423568
0.42228
0.421747
0.421783
0.422249
0.423058
0.42418
0.448645
0.594114
0.457507
0.432666
0.436701
0.441047
0.446006
0.451655
0.458218
0.465969
0.475263
0.486317
0.500321
0.517594
0.538859
0.565007
0.596921
0.63555
0.680901
0.732926
0.792752
0.968686
4.8335
6.19825
2.25202
-0.438046
-0.553195
0.239653
-1.14005
-2.2384
-2.40768
-2.38523
-2.15637
-1.81315
-1.43696
-1.0235