/*--------------------------------*- C++ -*----------------------------------*\
| =========                 |                                                 |
| \\      /  F ield         | OpenFOAM: The Open Source CFD Toolbox           |
|  \\    /   O peration     | Version:  2412                                  |
|   \\  /    A nd           | Website:  www.openfoam.com                      |
|    \\/     M anipulation  |                                                 |
\*---------------------------------------------------------------------------*/
FoamFile
{
    version     2.0;
    format      ascii;
    arch        "LSB;label=32;scalar=64";
    class       volScalarField;
    location    "2.85";
    object      p_rgh;
}
// * * * * * * * * * * * * * * * * * * * * * * * * * * * * * * * * * * * * * //

dimensions      [1 -1 -2 0 0 0 0];

internalField   nonuniform List<scalar> 
6400
(
135477
135469
135449
135419
135378
135327
135267
135200
135127
135049
134966
134881
134793
134703
134612
134520
134428
134335
134242
134148
134054
133960
133866
133771
133677
133582
133489
133398
133308
133222
133140
133062
132991
132927
132871
132824
132787
132760
132745
132741
132748
132766
132796
132836
132886
132945
133011
133085
133164
133249
133336
133426
133518
133611
133703
133795
133886
133976
134065
134153
134239
134325
134410
134495
134579
134663
134747
134829
134911
134990
135067
135141
135210
135274
135330
135379
135418
135447
135465
135472
135484
135476
135457
135426
135385
135333
135273
135206
135132
135053
134970
134884
134796
134706
134615
134523
134431
134338
134244
134151
134056
133962
133868
133772
133677
133582
133488
133396
133305
133218
133134
133056
132983
132918
132861
132813
132775
132748
132732
132727
132735
132754
132784
132825
132875
132935
133003
133078
133159
133244
133333
133425
133518
133611
133705
133797
133889
133979
134068
134156
134242
134328
134413
134498
134582
134666
134749
134832
134914
134993
135071
135145
135215
135279
135336
135385
135424
135454
135472
135479
135502
135494
135474
135443
135400
135347
135286
135217
135141
135061
134977
134890
134801
134710
134618
134526
134434
134341
134247
134154
134059
133965
133869
133774
133678
133582
133486
133392
133300
133210
133124
133043
132969
132901
132842
132792
132752
132724
132707
132702
132710
132729
132760
132803
132856
132918
132988
133066
133149
133237
133328
133422
133517
133612
133707
133800
133893
133983
134072
134160
134247
134332
134417
134501
134585
134669
134753
134836
134918
134999
135078
135154
135225
135290
135349
135399
135440
135470
135488
135496
135532
135523
135503
135470
135425
135370
135306
135234
135156
135073
134986
134897
134807
134715
134622
134530
134437
134344
134250
134157
134062
133967
133872
133775
133678
133581
133483
133387
133291
133199
133109
133025
132947
132876
132813
132760
132718
132688
132670
132665
132672
132693
132726
132771
132826
132892
132966
133047
133135
133226
133321
133418
133516
133613
133710
133805
133898
133989
134078
134165
134251
134336
134420
134504
134588
134672
134756
134840
134924
135007
135088
135166
135240
135308
135370
135422
135465
135496
135515
135523
135572
135563
135542
135507
135459
135401
135333
135257
135175
135088
134998
134906
134813
134720
134626
134533
134440
134347
134254
134160
134066
133971
133875
133777
133678
133579
133479
133379
133280
133184
133090
133001
132917
132842
132775
132718
132673
132640
132620
132614
132622
132644
132680
132728
132787
132857
132936
133023
133116
133213
133313
133414
133515
133616
133714
133811
133905
133996
134085
134172
134257
134340
134424
134507
134590
134674
134759
134845
134931
135016
135101
135183
135261
135333
135398
135454
135500
135533
135553
135562
135625
135616
135593
135555
135503
135440
135367
135285
135198
135106
135012
134916
134820
134725
134630
134536
134443
134350
134257
134164
134070
133975
133878
133780
133680
133578
133475
133371
133267
133165
133066
132970
132881
132799
132726
132664
132615
132579
132557
132550
132559
132582
132621
132673
132738
132814
132899
132993
133092
133196
133302
133409
133515
133619
133721
133819
133914
134006
134094
134179
134263
134345
134426
134508
134591
134675
134761
134848
134937
135026
135115
135202
135286
135364
135434
135495
135545
135581
135603
135611
135691
135681
135656
135614
135558
135488
135407
135319
135225
135127
135027
134926
134827
134729
134632
134537
134444
134352
134260
134168
134075
133980
133884
133784
133683
133578
133471
133362
133253
133144
133037
132934
132837
132747
132667
132598
132543
132503
132478
132470
132479
132505
132547
132605
132677
132760
132854
132957
133065
133177
133291
133405
133517
133625
133730
133831
133927
134018
134105
134188
134269
134349
134428
134508
134590
134674
134761
134850
134943
135037
135132
135225
135315
135400
135478
135546
135601
135641
135665
135673
135770
135761
135733
135686
135622
135544
135455
135357
135254
135148
135041
134935
134831
134730
134632
134537
134444
134353
134263
134173
134081
133987
133891
133791
133687
133580
133468
133354
133238
133121
133005
132892
132785
132686
132596
132519
132457
132411
132383
132373
132383
132412
132459
132523
132603
132697
132801
132914
133034
133156
133280
133402
133521
133635
133744
133846
133943
134033
134118
134199
134277
134353
134429
134506
134586
134669
134757
134849
134946
135045
135147
135249
135348
135443
135530
135606
135668
135713
135740
135748
135864
135855
135824
135770
135698
135609
135508
135399
135285
135169
135054
134941
134832
134727
134628
134533
134442
134353
134265
134178
134088
133996
133902
133801
133696
133585
133469
133348
133223
133096
132969
132845
132725
132614
132513
132426
132355
132302
132269
132258
132268
132300
132354
132426
132516
132622
132739
132866
132998
133134
133269
133402
133529
133650
133763
133868
133964
134053
134135
134212
134284
134355
134427
134500
134577
134659
134747
134842
134943
135050
135160
135273
135384
135490
135589
135676
135747
135799
135829
135837
135974
135965
135930
135868
135784
135682
135567
135443
135315
135187
135062
134941
134826
134719
134618
134524
134435
134350
134267
134183
134098
134009
133916
133816
133709
133595
133473
133345
133210
133072
132932
132792
132658
132531
132416
132316
132233
132172
132134
132120
132131
132168
132228
132311
132414
132534
132667
132811
132960
133111
133261
133406
133544
133672
133790
133897
133993
134079
134156
134227
134293
134356
134421
134488
134561
134641
134729
134827
134934
135049
135170
135295
135420
135542
135656
135757
135839
135900
135933
135940
136099
136093
136053
135980
135881
135762
135628
135487
135343
135200
135062
134932
134812
134701
134601
134509
134424
134344
134267
134190
134110
134026
133936
133837
133730
133612
133484
133347
133201
133048
132892
132735
132582
132437
132304
132188
132092
132020
131974
131957
131969
132011
132081
132176
132295
132433
132586
132749
132919
133089
133257
133417
133567
133704
133827
133935
134030
134112
134182
134245
134301
134355
134410
134469
134535
134612
134700
134800
134913
135038
135172
135313
135456
135596
135729
135847
135945
136016
136054
136058
136239
136240
136194
136106
135987
135846
135690
135527
135363
135203
135051
134911
134784
134671
134572
134484
134406
134334
134266
134197
134126
134048
133962
133867
133759
133638
133504
133357
133197
133028
132852
132674
132499
132331
132176
132039
131926
131840
131786
131764
131777
131825
131907
132018
132156
132316
132493
132681
132876
133070
133258
133437
133601
133748
133877
133986
134078
134154
134215
134266
134310
134350
134392
134439
134497
134567
134654
134757
134877
135013
135163
135322
135486
135649
135805
135946
136063
136148
136192
136190
136391
136405
136353
136244
136100
135931
135749
135560
135372
135191
135023
134872
134738
134624
134528
134447
134379
134319
134262
134206
134145
134077
133998
133907
133801
133677
133537
133378
133203
133014
132815
132610
132407
132211
132029
131868
131733
131630
131564
131537
131552
131606
131702
131833
131994
132181
132388
132607
132831
133054
133269
133470
133650
133809
133943
134054
134141
134207
134256
134291
134318
134340
134364
134396
134441
134503
134585
134690
134818
134967
135135
135316
135506
135697
135882
136051
136193
136298
136347
136334
136544
136584
136523
136387
136211
136012
135798
135578
135362
135157
134971
134807
134667
134553
134462
134393
134339
134295
134256
134215
134169
134113
134045
133961
133858
133733
133586
133415
133223
133009
132782
132546
132308
132078
131862
131670
131508
131384
131303
131270
131285
131349
131460
131616
131807
132027
132269
132526
132787
133045
133291
133517
133719
133892
134032
134142
134221
134275
134307
134322
134326
134324
134324
134334
134361
134410
134487
134593
134729
134893
135081
135289
135509
135733
135951
136154
136328
136459
136515
136479
136692
136779
136700
136519
136307
136076
135829
135576
135326
135092
134884
134707
134562
134450
134369
134316
134282
134262
134246
134227
134200
134160
134106
134032
133935
133811
133658
133474
133261
133019
132757
132482
132203
131930
131672
131441
131246
131095
130995
130953
130969
131044
131175
131363
131588
131849
132136
132438
132746
133047
133332
133590
133816
134004
134150
134256
134325
134361
134370
134359
134332
134299
134266
134247
134249
134281
134349
134455
134600
134780
134992
135229
135484
135746
136002
136242
136455
136623
136691
136616
136832
136966
136856
136614
136366
136110
135829
135535
135246
134981
134750
134559
134411
134305
134239
134209
134205
134217
134232
134241
134238
134220
134184
134124
134037
133916
133758
133559
133320
133047
132745
132422
132092
131766
131457
131178
130940
130755
130632
130577
130595
130684
130842
131062
131334
131644
131985
132344
132708
133063
133396
133694
133949
134153
134304
134404
134457
134470
134449
134403
134338
134263
134187
134127
134096
134104
134159
134264
134416
134613
134850
135121
135416
135721
136018
136295
136554
136781
136872
136744
136871
136929
136792
136573
136354
136106
135799
135456
135116
134813
134557
134353
134201
134102
134057
134060
134098
134155
134212
134256
134283
134292
134279
134239
134167
134055
133894
133682
133417
133105
132751
132370
131977
131587
131214
130874
130583
130356
130203
130135
130155
130262
130451
130716
131039
131410
131815
132242
132676
133098
133491
133838
134127
134349
134502
134591
134622
134603
134544
134454
134340
134210
134077
133962
133884
133861
133900
134003
134166
134383
134648
134956
135297
135648
135980
136276
136544
136750
136908
136806
136718
136527
136334
136228
136169
136060
135748
135329
134919
134568
134288
134073
133919
133829
133809
133855
133948
134063
134172
134259
134323
134364
134381
134370
134322
134227
134068
133843
133552
133196
132783
132332
131863
131395
130950
130543
130186
129900
129705
129614
129634
129761
129992
130310
130699
131141
131624
132130
132644
133146
133613
134022
134355
134596
134745
134816
134815
134752
134644
134501
134327
134130
133924
133738
133601
133538
133560
133664
133839
134077
134370
134718
135115
135527
135869
136126
136304
136044
135870
136693
136377
136126
136082
135938
135909
136038
135705
135177
134665
134255
133949
133722
133561
133476
133482
133575
133733
133915
134084
134221
134326
134407
134465
134494
134484
134417
134274
134042
133729
133334
132862
132334
131779
131221
130664
129936
128828
127599
126558
126020
126162
126933
128065
129254
130194
130802
131393
132001
132613
133204
133754
134238
134627
134887
135019
135064
135018
134895
134723
134517
134277
134003
133710
133436
133229
133120
133130
133245
133445
133711
134037
134434
134908
135372
135773
136067
136169
136038
133128
132022
127767
124601
131709
135968
136969
136728
136044
131565
125311
120599
117768
115822
114180
113392
113616
115147
117300
119557
121455
123191
125253
127507
129286
130338
130932
131224
131205
130880
130332
128624
123636
115268
104835
93343.3
80920
68478.9
58738.2
51851.9
47539.5
45708
46474.3
49668.4
55265.3
63474
74010.4
86495.9
97380.7
107370
116398
123769
129082
132273
133819
134340
134310
134023
133122
131437
129158
126659
123974
120817
117103
113303
110181
108376
108594
110126
112792
116041
119573
124005
130003
135799
136355
136494
136010
131370
124022
123528
72168
37516.4
52125.8
78542.3
91743.9
83648.5
64617
46911.1
35673.9
29822.7
26386.2
23431.1
21096.2
20008.2
20145.2
21850.5
25073.3
28951.4
32607.1
35537.3
37832
39896.9
42176.3
44939.3
47321.8
48058.4
47077.8
42128.3
34996.1
26669.9
18618.6
11711.9
6072.58
1760.01
3.91844
3.45344
3.66954
3.76319
3.84775
3.92562
3.97926
4.02322
4.0445
3.86906
3.7066
5.63799
3214.93
8268.09
14896.2
23192.9
33383.3
45023.1
55691.6
61778.1
62580.9
60718.9
56236.4
50604.5
45272.6
40519.5
35791.1
30593.5
25105
20264.7
17047.8
15483
15734.5
17303.4
20175.8
23978.1
28538.3
35098.1
45567.1
60487.2
77463.1
84517
76295.2
52831.6
43208.1
82454.7
3392.45
468.314
158.473
8073.49
22636.5
20742.5
10495.1
1111.59
232.987
105.705
88.0686
82.2087
83.9933
96.6349
116.509
123.775
110.676
85.8851
62.6208
42.4417
25.9445
12.374
3.72047
3.71938
3.50008
3.26378
3.0224
2.88494
2.75742
2.69696
2.90293
2.94917
3.14935
3.56365
3.63652
3.5734
3.61106
3.6668
3.73027
3.79552
3.86087
3.92822
3.99709
4.02404
4.16015
4.50367
4.22816
4.05835
4.09727
4.11142
4.27068
4.45602
4.64769
4.73049
5.31707
4.21693
10.7812
23.6509
36.8835
48.6928
59.0867
67.6659
75.9719
91.3436
114.961
126.017
113.888
94.9392
84.1097
80.2437
77.4619
81.6899
1405.9
9427.87
15224.3
14908.6
3782.44
245.85
395.291
9313.66
420.941
141.802
52.5908
28.8736
46.5325
62.4242
293.188
417.114
193.989
8.59468
4.3214
4.8462
7.82732
12.4348
16.6819
19.8265
19.5282
17.8782
15.4522
11.0851
7.3696
5.23854
4.25869
3.90729
3.6388
3.47229
3.34763
3.2488
3.16857
3.14125
3.16222
3.21872
3.30269
3.3924
3.51311
3.47572
3.51428
3.57653
3.63922
3.70158
3.76414
3.8283
3.89571
3.97116
4.10452
4.24272
4.26118
4.29342
4.37163
4.49386
4.64229
4.81647
5.02565
5.27075
5.57675
6.03606
6.34896
7.43395
9.10432
11.6323
14.6669
17.7158
21.8447
26.8097
31.1637
31.4643
27.2805
21.7769
16.0727
12.3725
12.1724
16.6359
64.3345
114.861
147.425
182.938
190.259
188.181
239.324
340.837
2129.2
1162.03
31.0845
14.0147
71.291
220.324
230.132
131.525
24.9967
-1.46913
-2.27215
-2.21941
-1.52141
-0.334534
1.36301
3.89812
6.45462
7.96882
7.41476
5.87423
4.77497
4.29145
3.98182
3.73803
3.54211
3.37664
3.24382
3.15698
3.10955
3.1
3.119
3.15654
3.21887
3.30484
3.38403
3.40994
3.44897
3.50324
3.56023
3.6198
3.68273
3.75024
3.82418
3.9087
4.01372
4.11562
4.1747
4.24303
4.33683
4.46073
4.61052
4.78622
4.99021
5.23346
5.51306
5.8302
6.19756
6.91702
7.69286
8.01189
8.78959
9.80054
11.0456
12.4599
13.1291
12.6345
11.0871
9.1404
7.05767
5.83602
6.3892
8.576
13.6269
93.9056
203.704
217.379
201.543
119.821
178.853
1240.07
3108.8
2576.14
11.8619
9.52201
6.68495
14.8143
6.75341
3.54916
-0.619166
-1.94661
-2.52462
-2.63882
-2.46461
-2.03128
-1.14012
0.153661
1.69745
3.02508
3.79548
3.95325
3.93438
3.86985
3.76775
3.6356
3.49881
3.37669
3.27684
3.20084
3.14767
3.12158
3.12254
3.144
3.18394
3.23649
3.29895
3.33816
3.37657
3.42203
3.47372
3.53135
3.59469
3.6645
3.74244
3.83044
3.92878
4.02803
4.12107
4.22304
4.34011
4.47548
4.63307
4.81764
5.02748
5.25376
5.50324
5.7776
6.0819
6.74077
7.36468
7.34735
7.65605
8.07663
8.47757
8.7907
8.8196
8.32508
7.32661
6.20122
5.16638
4.60747
4.92449
6.37142
9.47234
16.4633
36.7171
78.6232
58.3103
70.7526
1263.6
3043.01
3217.9
1275.78
29.2654
6.78165
4.76053
3.19917
2.35384
1.07822
-0.28475
-1.35533
-1.96469
-2.18361
-2.17449
-2.00131
-1.52779
-0.708342
0.421715
1.65118
2.66119
3.21854
3.47307
3.56223
3.54918
3.4756
3.37987
3.28743
3.20966
3.14968
3.11125
3.09117
3.08879
3.10176
3.12802
3.16331
3.2066
3.24319
3.28337
3.3285
3.3787
3.43451
3.49669
3.5667
3.64618
3.73567
3.83516
3.94608
4.0771
4.22594
4.35184
4.46891
4.60001
4.77036
4.96836
5.18368
5.41514
5.66251
5.91953
6.34699
6.99674
6.94014
7.14014
7.38213
7.5815
7.65487
7.55171
7.22584
6.68231
5.98867
5.25267
4.65871
4.43505
4.522
8.80756
29.6482
37.5405
41.7109
42.7582
45.4714
2817.76
3144.25
3313.59
162.155
63.6739
6.93416
4.21389
2.97048
2.10363
1.04142
0.0703153
-0.876035
-1.43665
-1.72161
-1.83367
-1.85239
-1.50313
-0.821848
0.174987
1.30217
2.23921
2.83158
3.13888
3.27946
3.31491
3.28949
3.23704
3.17882
3.12611
3.0839
3.05374
3.03781
3.03467
3.04341
3.06208
3.08813
3.12508
3.15813
3.19431
3.23472
3.28084
3.33327
3.39282
3.46184
3.54252
3.649
3.79496
3.93411
4.07013
4.19944
4.33819
4.48589
4.59534
4.70978
4.88012
5.0671
5.26794
5.48108
5.70112
5.93617
6.36543
6.70179
6.68775
6.85737
7.01253
7.09355
7.07914
6.96578
6.74114
6.37085
5.8317
5.17522
4.487
3.65119
4.42589
54.7941
130.979
114.426
40.0428
85.3529
3112.37
3205.46
3363.85
146.43
131.14
24.0553
3.45564
2.42944
1.75929
1.09871
0.286663
-0.526081
-1.15372
-1.48522
-1.66383
-1.63121
-1.30757
-0.684941
0.208037
1.189
1.99833
2.53552
2.83488
3.00636
3.08138
3.09829
3.08416
3.05669
3.02683
3.00075
2.98152
2.97086
2.96865
2.97476
2.98829
3.00787
3.03645
3.06445
3.0969
3.13277
3.17945
3.24802
3.28126
3.34595
3.47172
3.61374
3.72358
3.84424
3.97892
4.11643
4.26605
4.4155
4.53043
4.60687
4.75234
4.90863
5.0723
5.24412
5.42314
5.60512
5.84303
6.5729
6.27
6.39072
6.54441
6.68578
6.81826
6.94361
7.02848
6.97175
6.63856
5.96067
4.95782
3.68693
1.89925
66.3545
330.861
359.716
36.3062
345.917
3086.1
2800.24
2247.43
272.205
517.092
98.3038
2.93041
1.85233
1.37889
0.965106
0.253921
-0.388767
-0.846367
-1.15931
-1.30132
-1.24216
-0.94381
-0.389219
0.363815
1.15404
1.80672
2.2679
2.5674
2.75358
2.85834
2.90874
2.92594
2.92503
2.91612
2.90545
2.89683
2.89197
2.8923
2.89784
2.90837
2.92367
2.94405
2.96708
2.99498
3.06101
3.19019
3.29125
3.2557
3.25575
3.37958
3.46992
3.56287
3.65089
3.77716
3.93884
4.1023
4.25388
4.38722
4.50139
4.60534
4.71605
4.82596
4.94836
5.08321
5.22731
5.38668
6.14841
6.07303
5.91249
6.08467
6.30258
6.59175
6.97108
7.4006
7.71753
7.65485
7.02036
5.7609
4.08013
2.28173
88.4544
353.586
367.472
33.129
624.81
1464.23
201.949
77.5134
592.06
616.957
337.917
4.36936
1.24928
0.974552
0.650823
0.232156
-0.183169
-0.538198
-0.784313
-0.884341
-0.808678
-0.53663
-0.0743517
0.516537
1.12271
1.64187
2.03949
2.32627
2.52228
2.64891
2.72554
2.76853
2.79035
2.79996
2.80344
2.80478
2.8061
2.80939
2.81506
2.82333
2.83446
2.84859
2.86546
2.97372
3.10562
3.13129
3.16209
3.20052
3.11088
3.14295
3.20412
3.28782
3.42394
3.59877
3.8098
4.01413
4.18068
4.30418
4.38485
4.43099
4.48071
4.52937
4.63292
4.7281
4.78063
5.19764
5.64347
5.80175
5.36737
5.54249
5.82952
6.2653
6.90859
7.74744
8.56692
8.92906
8.41271
6.8066
4.69177
2.68087
59.4057
364.779
375.742
34.8524
504.599
14.8505
12.3501
51.0017
634.555
637.386
637.772
27.959
0.683608
0.556353
0.407995
0.15104
-0.13262
-0.382887
-0.551927
-0.60351
-0.513448
-0.272079
0.105944
0.571309
1.05087
1.48185
1.83578
2.10994
2.31205
2.45498
2.55231
2.6164
2.65735
2.68298
2.699
2.70878
2.7165
2.72283
2.72887
2.73523
2.74247
2.75079
2.7634
2.97659
2.98821
3.00334
3.00622
2.85991
2.86463
2.90033
2.95486
3.04174
3.18499
3.63113
4.32925
4.60845
4.7778
4.75852
4.43252
4.24967
4.19456
4.17733
4.19329
4.27085
4.72588
4.93464
5.03252
5.15025
4.75384
4.83744
5.14649
5.66679
6.54144
7.85692
9.43395
10.4343
9.92065
7.63522
4.99377
2.73056
5.37002
150.819
382.899
75.8841
39.0918
12.4751
7.93758
52.3095
644.067
654.32
648.789
94.9453
0.171055
0.0883431
0.0672199
-0.0646841
-0.233216
-0.386428
-0.482032
-0.488313
-0.385412
-0.16732
0.152635
0.538658
0.941919
1.31931
1.64568
1.91205
2.11981
2.27619
2.3905
2.47209
2.52918
2.56855
2.59513
2.61352
2.62625
2.63505
2.6413
2.64585
2.64932
2.65362
2.74419
2.86545
2.86742
2.77935
2.65765
2.65573
2.65292
2.65362
2.66982
2.72789
3.50357
4.94066
5.23769
5.48449
5.63916
5.67072
5.54105
4.34851
3.77599
3.72625
3.68651
3.68509
3.95203
4.27105
4.30857
4.35865
3.88362
3.89744
4.12776
4.57291
5.51604
7.22517
11.8975
30.1739
58.8949
22.9655
7.44919
2.16381
3.12403
6.26029
386.656
82.2238
281.552
75.8634
2.26778
57.1912
516.474
660.752
661.251
290.208
-0.349812
-0.503038
-0.384447
-0.383779
-0.437818
-0.497954
-0.524195
-0.487572
-0.370043
-0.165669
0.116452
0.451945
0.807623
1.15185
1.46197
1.7259
1.94087
2.11014
2.23978
2.33675
2.40792
2.45885
2.49519
2.52054
2.53749
2.54812
2.55417
2.55666
2.55779
2.61078
2.75859
2.75044
2.5772
2.51405
2.49199
2.46184
2.42195
2.37238
2.33103
3.05763
4.45705
4.62531
4.85544
5.04067
4.99956
4.57126
4.73123
4.68916
4.18236
3.10726
3.07206
3.03674
2.97287
3.1263
3.49084
3.36212
2.73515
2.67104
2.64567
2.67974
3.36978
6.46161
46.0237
300.714
391.636
284.589
61.9293
2.1082
3.49933
5.90221
328.74
344.569
585.777
405.488
0.0291707
57.2096
55.2531
277.073
553.729
482.943
2.67312
-1.36677
-0.944127
-0.775013
-0.706992
-0.67701
-0.639666
-0.565413
-0.435057
-0.240145
0.0156026
0.317522
0.643463
0.969268
1.27396
1.543
1.76968
1.95391
2.09936
2.21091
2.2947
2.35652
2.40098
2.432
2.45226
2.46401
2.46926
2.46924
2.4982
2.59274
2.60471
2.45718
2.40332
2.37059
2.32603
2.26581
2.18041
2.06598
2.21272
3.94509
3.97858
4.12956
4.27294
3.28519
2.70988
2.47639
2.31598
3.30612
3.44669
3.25401
2.28312
2.279
2.20815
2.08562
2.18426
1.8625
1.50686
1.18241
0.705128
-0.0575315
0.403828
16.2944
259.761
420.451
416.732
413.767
202.019
1.03378
3.29594
6.15674
164.602
606.496
602.717
405.498
-1.36093
18.421
15.4407
5.91659
13.8386
297.937
14.9036
-2.36309
-1.55437
-1.20836
-1.01802
-0.88977
-0.753534
-0.666135
-0.566355
-0.382302
-0.14726
0.131068
0.439215
0.758435
1.06862
1.35266
1.5992
1.80374
1.96752
2.09515
2.19181
2.26324
2.31451
2.34987
2.37239
2.38447
2.38838
2.38947
2.44759
2.4712
2.37223
2.31925
2.28319
2.23374
2.16859
2.07777
1.94235
1.77196
2.82147
3.5463
3.49042
3.60141
2.13537
1.91041
1.82176
1.56725
1.2899
1.08024
1.69683
2.0923
1.98232
1.3747
1.32969
1.19274
0.978712
0.659085
0.194093
-0.454394
-1.44954
-3.14337
-3.42235
98.1441
418.497
427.166
424.759
419.237
237.606
1.41088
3.85547
9.68136
98.505
622.748
619.158
52.5095
-1.93478
18.0164
23.3157
4.82264
4.36053
54.7025
12.0033
-3.2095
-2.12405
-1.62414
-1.31839
-1.07803
-0.936566
-0.815711
-0.680237
-0.536604
-0.351706
-0.0960508
0.198838
0.517383
0.839617
1.14746
1.4227
1.65635
1.84455
1.99053
2.10052
2.18096
2.23776
2.27602
2.29953
2.31108
2.31326
2.31709
2.33175
2.29412
2.25529
2.22071
2.17233
2.10953
2.0269
1.9089
1.72823
1.65232
3.36068
3.17988
3.06528
3.11746
1.28537
1.28432
1.17071
0.690619
0.226636
-0.0922997
-0.250163
0.709822
0.955515
0.442175
0.345981
0.237889
-0.0186105
-0.433105
-1.08043
-2.01977
-3.42403
-5.7849
-7.07362
168.059
399.674
429.577
431.7
416.664
137.363
3.04531
4.59071
35.8596
142.481
638.295
630.295
0.798644
-2.12289
20.0939
120.183
5.0422
4.17725
3.78914
11.1327
-3.5184
-2.47276
-1.90616
-1.53025
-1.28212
-1.11784
-0.992327
-0.868044
-0.715772
-0.534063
-0.34616
-0.065727
0.254517
0.589091
0.927692
1.24184
1.51312
1.73133
1.89862
2.02286
2.11179
2.17275
2.21223
2.23516
2.24513
2.24572
2.23964
2.22356
2.20364
2.17396
2.13062
2.07351
2.00154
1.90648
1.7702
1.56071
1.75053
3.25179
2.94679
2.78545
2.75828
1.11959
0.746554
0.683345
-0.104274
-0.822299
-1.33693
-1.55329
-1.39039
-0.339738
-0.209732
-0.6672
-0.726662
-0.975086
-1.42642
-2.16174
-3.25524
-4.69814
-6.30035
-4.11268
46.2467
121.142
267.536
427.253
401.938
156.986
4.66812
6.55272
42.5793
461.43
648.411
238.654
-0.341756
-2.3163
67.0494
124.362
7.29502
6.28318
5.03447
8.21273
-3.27206
-2.49952
-1.96973
-1.595
-1.35274
-1.21717
-1.16773
-1.11735
-0.984947
-0.833645
-0.640878
-0.378349
-0.0510557
0.316609
0.691054
1.05479
1.37764
1.63312
1.82292
1.96157
2.05814
2.12152
2.16014
2.1805
2.18737
2.1844
2.17388
2.15762
2.13417
2.09892
2.04959
1.98772
1.91172
1.81063
1.66714
1.45698
1.69917
3.18513
2.88688
2.69362
2.59489
0.851881
0.541805
4.60095
0.895589
-1.88601
-2.60865
-2.85813
-2.84076
-1.75076
-1.29027
-1.60414
-1.61022
-1.80526
-2.23142
-2.95192
-4.04576
-5.40039
-6.22571
-0.583138
3.84358
-6.32697
-7.41851
70.7556
355.028
339.869
10.8563
17.3298
155.915
520.726
492.995
0.119997
-2.52669
-2.52608
99.7196
129.746
28.9951
9.4503
8.16369
0.153717
-2.6758
-2.2528
-1.85805
-1.54089
-1.32039
-1.13454
-0.527872
-1.42453
-1.34225
-1.20669
-1.04136
-0.806605
-0.482878
0.307006
0.915025
0.909266
1.24983
1.55375
1.76792
1.92
2.02244
2.0857
2.12081
2.13605
2.13762
2.12991
2.11566
2.09615
2.06885
2.02975
1.97752
1.91465
1.84232
1.74563
1.60935
1.40771
1.36553
3.1846
2.98268
2.79204
2.63269
0.709045
0.494261
23.3063
5.89342
-3.34328
-3.79721
-4.04787
-4.00007
-3.50348
-2.36032
-2.37203
-2.31806
-2.43069
-2.78707
-3.42485
-4.42571
-5.79886
-7.22391
-3.38767
6.99935
-7.42825
-8.30354
-8.28759
6.7356
184.952
219.479
184.033
248.356
234.622
3.86868
-2.77647
-2.6678
-2.62223
29.2269
134.21
59.3759
1.40836
8.23959
-2.2416
-1.93874
-1.85785
-1.66644
-1.46335
7.05804
21.786
11.9371
-1.82709
-1.83778
-1.76727
0.210337
5.23156
6.4448
5.73704
7.03019
4.89269
3.3118
1.6048
1.73648
1.90025
2.00717
2.06626
2.09426
2.10113
2.09471
2.08025
2.06056
2.03699
2.00984
1.96572
1.91345
1.85426
1.78653
1.70122
1.585
1.41829
1.18598
2.83466
3.20562
3.04147
1.07579
0.664397
10.0206
24.6264
14.7432
-4.20305
-4.70845
-4.96879
-4.88
-4.38484
-3.35562
-2.83945
-2.75969
-2.80129
-3.06394
-3.58762
-4.43329
-5.67278
-7.38106
-9.37178
0.191339
-0.497771
-8.63209
-8.39798
-7.38736
11.4983
210.106
199.966
168.817
-2.8697
-2.8761
-2.78643
-2.71007
-2.66661
29.9421
136.432
70.1036
1.99545
7.66521
-0.911615
-1.19627
-1.41528
-1.40022
4.38333
23.8038
22.9644
21.7391
3.86638
-2.49119
0.757707
5.01993
4.86276
5.03832
5.50486
6.236
7.22736
8.38662
6.58835
1.72808
1.90635
2.01493
2.06352
2.07887
2.07347
2.05623
2.03291
2.0063
1.97608
1.95758
1.92662
1.85983
1.80157
1.74256
1.67295
1.584
1.46329
1.29971
1.65828
3.44301
3.30423
0.755604
0.708917
27.0546
25.0842
22.7824
-4.77067
-5.20547
-5.49843
-5.38139
-4.84552
-3.90269
-3.14155
-2.92657
-2.90479
-3.06802
-3.46829
-4.13647
-5.13899
-6.53168
-8.4952
-9.3889
0.163424
-5.43607
-7.98958
-7.29391
-6.35423
43.9034
103.579
0.552788
-2.82838
-2.86409
-2.73277
-2.64556
-2.61172
29.6359
137.317
71.1013
2.83467
2.20057
0.235521
-0.494255
-0.960516
-1.06319
11.5279
24.3908
24.1733
22.7881
-1.21293
-1.2998
3.30466
3.27846
-1.22727
-2.89265
0.706689
3.72432
6.01058
7.75942
9.2599
5.66304
1.98342
2.04842
2.07701
2.07181
2.04912
2.0183
1.98476
1.95112
1.91704
1.89178
1.87447
1.83117
1.75986
1.70539
1.65312
1.59226
1.51695
1.42182
1.31119
1.73964
1.5412
1.03506
3.50659
27.8772
25.8517
22.5036
-4.79948
-5.31357
-5.59655
-5.48479
-4.92213
-4.02153
-3.32158
-2.90274
-2.76276
-2.83681
-3.12112
-3.62159
-4.38004
-5.42536
-6.90022
-8.45847
-2.26046
-2.756
-4.70561
-6.34062
-5.9593
-4.7212
-3.8227
-3.24238
-0.163458
-1.79487
-2.61748
-2.5339
-2.47498
13.909
136.126
84.9618
2.64956
2.03074
1.14912
0.13153
-0.517154
0.654372
22.5626
25.1628
24.9598
11.7497
-2.69454
-2.24571
0.473288
-4.93597
-6.57645
-6.74874
-6.35219
-5.19152
-2.57133
5.91848
9.04712
10.2308
3.42429
2.10747
2.10075
2.06639
2.02165
1.97534
1.93137
1.89112
1.85472
1.81872
1.80456
1.77645
1.73919
1.67351
1.63382
1.59699
1.55851
1.51815
1.47205
1.42636
1.3853
1.30174
7.83668
28.7032
26.8439
21.2423
-4.45162
-5.01692
-5.29741
-5.1837
-4.62396
-3.81382
-2.90149
-2.59382
-2.42589
-2.42969
-2.61825
-2.98014
-3.52609
-4.26306
-5.25839
-6.41744
-7.20522
-6.14308
-4.29097
-2.88794
-2.6488
-4.16512
-3.4971
-2.92016
0.937038
-0.0113397
-2.44125
-2.3777
-2.30593
2.84753
45.7929
110.83
26.534
2.74441
1.7461
0.620966
-0.115654
1.34884
25.9009
26.0212
20.3421
-1.88141
-3.12604
-4.35579
-5.52685
-7.03344
-7.81001
-8.08555
-7.74756
-6.63749
-4.09031
-0.19845
8.21692
10.4665
5.09344
2.18566
2.12117
2.04959
1.98151
1.92038
1.86778
1.82302
1.78578
1.75282
1.72068
1.71693
1.69109
1.64492
1.60905
1.58967
1.57403
1.56397
1.55751
1.54948
1.5249
1.46313
9.48407
29.6047
27.8491
25.897
-0.131031
-4.39819
-4.66402
-4.55274
-4.03265
-3.28399
-2.3124
-1.88657
-1.95094
-1.90968
-2.03552
-2.29868
-2.68836
-3.19478
-3.82749
-4.57275
-5.24086
-5.56988
-5.31537
-1.41386
-0.940159
-2.77595
-2.95571
-0.253869
1.31966
-0.241119
-2.22829
-2.17957
-2.12267
1.84759
28.9327
112.932
107.525
3.08393
2.00085
0.963321
0.301602
0.486808
19.6959
26.6286
23.0173
-1.99346
-3.25319
-4.76636
-6.16893
-7.31511
-8.06431
-8.32507
-8.06017
-6.68905
-1.03972
0.86983
5.01925
10.1075
4.82186
2.2473
2.11212
2.00135
1.9152
1.84514
1.78881
1.74374
1.70683
1.7102
1.70812
1.65042
1.61997
1.59079
1.57669
1.56922
1.56711
1.57116
1.57922
1.58274
1.55965
1.49497
6.11704
30.3671
28.8594
27.4048
15.9923
-3.61496
-3.83232
-3.7373
-3.25536
-2.35262
-1.72477
-1.30308
-1.28161
-1.32612
-1.42723
-1.64056
-1.93309
-2.29307
-2.70362
-3.15537
-3.58237
-3.83964
-3.80559
-2.20333
-0.92585
-2.59184
-2.41129
1.45919
1.72981
-1.40546
-1.99012
-1.94939
-1.9208
1.38418
10.1282
107.786
109.305
61.3985
2.05852
1.3324
0.557065
-0.146952
5.99602
27.2978
26.635
-1.82925
-3.1162
-4.5114
-5.77673
-6.74431
-7.3239
-7.52428
-7.20403
3.68991
26.9016
18.2091
5.42161
5.26144
5.05117
2.87523
2.0192
1.89441
1.80751
1.74127
1.68996
1.6507
1.61975
1.64314
1.7001
1.61182
1.54766
1.53981
1.53637
1.5373
1.54304
1.55301
1.5636
1.56615
1.54591
1.4747
2.55823
28.1626
29.8862
28.3215
23.7766
-2.77413
-2.95078
-2.87389
-2.43486
-1.65373
-1.11822
-0.830808
-0.785027
-0.776492
-0.859844
-1.04124
-1.28291
-1.56102
-1.85042
-2.14113
-2.40839
-2.58215
-2.58383
-2.05196
-2.19021
-2.03724
-1.91063
1.79006
2.1479
-1.28726
-1.73423
-1.70976
-1.69799
1.13119
1.04512
3.35992
110.121
106.46
2.3808
1.778
0.967467
0.260778
-0.582171
26.9569
26.7307
20.3262
1.55215
-3.67221
-4.65698
-5.42088
-5.916
-6.1395
-5.80346
25.0898
32.2674
34.1717
21.3674
9.50115
10.1201
3.60362
1.79257
1.70723
1.64995
1.60509
1.56966
1.54278
1.52227
1.52024
1.62437
1.61893
1.50537
1.48426
1.48791
1.49528
1.5063
1.51967
1.53097
1.53282
1.51291
1.44764
1.32085
13.9833
30.4254
17.5348
11.1284
8.7862
-1.31879
-2.07468
-1.79019
-1.19587
-0.693068
-0.507487
-0.306757
-0.261018
-0.349938
-0.5215
-0.743203
-0.978675
-1.206
-1.39337
0.462925
0.399076
-1.20265
-1.53957
-1.48325
-1.45274
-1.10821
2.36753
2.49129
-1.30416
-1.48397
-1.47344
-1.46997
0.957455
0.914162
0.850973
28.2834
106.642
60.3551
2.05961
1.45791
0.771053
-0.054512
1.5253
26.429
25.0336
22.72
18.6083
16.6092
8.01273