/*--------------------------------*- C++ -*----------------------------------*\
| =========                 |                                                 |
| \\      /  F ield         | OpenFOAM: The Open Source CFD Toolbox           |
|  \\    /   O peration     | Version:  2412                                  |
|   \\  /    A nd           | Website:  www.openfoam.com                      |
|    \\/     M anipulation  |                                                 |
\*---------------------------------------------------------------------------*/
FoamFile
{
    version     2.0;
    format      ascii;
    arch        "LSB;label=32;scalar=64";
    class       volScalarField;
    location    "3.65";
    object      p;
}
// * * * * * * * * * * * * * * * * * * * * * * * * * * * * * * * * * * * * * //

dimensions      [1 -1 -2 0 0 0 0];

internalField   nonuniform List<scalar> 
6400
(
15293.8
15293.8
15293.8
15293.8
15293.8
15293.8
15293.8
15293.8
15293.8
15293.8
15293.8
15293.8
15293.8
15293.8
15293.8
15293.8
15293.8
15293.8
15293.8
15293.8
15293.8
15293.8
15293.8
15293.8
15293.8
15293.8
15293.8
15293.8
15293.8
15293.8
15293.8
15293.8
15293.8
15293.8
15293.8
15293.8
15293.8
15293.8
15293.8
15293.8
15293.8
15293.8
15293.8
15293.8
15293.8
15293.8
15293.8
15293.8
15293.8
15293.8
15293.8
15293.8
15293.8
15293.8
15293.8
15293.8
15293.8
15293.8
15293.8
15293.8
15293.8
15293.8
15293.8
15293.8
15293.8
15293.8
15293.8
15293.8
15293.8
15293.8
15293.8
15293.8
15293.8
15293.8
15293.8
15293.8
15293.8
15293.8
15293.8
15293.8
14509
14509
14509
14509
14509
14509
14509
14509
14509
14509
14509
14509
14509
14509
14509
14509
14509
14509
14509
14509
14509
14509
14509
14509
14509
14509
14509
14509
14509
14509
14509
14509
14509
14509
14509
14509
14509
14509
14509
14509
14509
14509
14509
14509
14509
14509
14509
14509
14509
14509
14509
14509
14509
14509
14509
14509
14509
14509
14509
14509
14509
14509
14509
14509
14509
14509
14509
14509
14509
14509
14509
14509
14509
14509
14509
14509
14509
14509
14509
14509
13724.2
13724.2
13724.2
13724.2
13724.2
13724.2
13724.2
13724.2
13724.2
13724.2
13724.2
13724.2
13724.2
13724.2
13724.2
13724.2
13724.2
13724.2
13724.2
13724.2
13724.2
13724.2
13724.2
13724.2
13724.2
13724.2
13724.2
13724.2
13724.2
13724.2
13724.2
13724.2
13724.2
13724.2
13724.2
13724.2
13724.2
13724.2
13724.2
13724.2
13724.2
13724.2
13724.2
13724.2
13724.2
13724.2
13724.2
13724.2
13724.2
13724.2
13724.2
13724.2
13724.2
13724.2
13724.2
13724.2
13724.2
13724.2
13724.2
13724.2
13724.2
13724.2
13724.2
13724.2
13724.2
13724.2
13724.2
13724.2
13724.2
13724.2
13724.2
13724.2
13724.2
13724.2
13724.2
13724.2
13724.2
13724.2
13724.2
13724.2
12939.4
12939.4
12939.4
12939.4
12939.4
12939.4
12939.4
12939.4
12939.4
12939.4
12939.4
12939.4
12939.4
12939.4
12939.4
12939.4
12939.4
12939.4
12939.4
12939.4
12939.4
12939.4
12939.4
12939.4
12939.4
12939.4
12939.4
12939.4
12939.4
12939.4
12939.4
12939.4
12939.4
12939.4
12939.4
12939.4
12939.4
12939.4
12939.4
12939.4
12939.4
12939.4
12939.4
12939.4
12939.4
12939.4
12939.4
12939.4
12939.4
12939.4
12939.4
12939.4
12939.4
12939.4
12939.4
12939.4
12939.4
12939.4
12939.4
12939.4
12939.4
12939.4
12939.4
12939.4
12939.4
12939.4
12939.4
12939.4
12939.4
12939.4
12939.4
12939.4
12939.4
12939.4
12939.4
12939.4
12939.4
12939.4
12939.4
12939.4
12154.6
12154.6
12154.6
12154.6
12154.6
12154.6
12154.6
12154.6
12154.6
12154.6
12154.6
12154.6
12154.6
12154.6
12154.6
12154.6
12154.6
12154.6
12154.6
12154.6
12154.6
12154.6
12154.6
12154.6
12154.6
12154.6
12154.6
12154.6
12154.6
12154.6
12154.6
12154.6
12154.6
12154.6
12154.6
12154.6
12154.6
12154.6
12154.6
12154.6
12154.6
12154.6
12154.6
12154.6
12154.6
12154.6
12154.6
12154.6
12154.6
12154.6
12154.6
12154.6
12154.6
12154.6
12154.6
12154.6
12154.6
12154.6
12154.6
12154.6
12154.6
12154.6
12154.6
12154.6
12154.6
12154.6
12154.6
12154.6
12154.6
12154.6
12154.6
12154.6
12154.6
12154.6
12154.6
12154.6
12154.6
12154.6
12154.6
12154.6
11369.8
11369.8
11369.8
11369.8
11369.8
11369.8
11369.8
11369.8
11369.8
11369.8
11369.8
11369.8
11369.8
11369.8
11369.8
11369.8
11369.8
11369.8
11369.8
11369.8
11369.8
11369.8
11369.8
11369.8
11369.8
11369.8
11369.8
11369.8
11369.8
11369.8
11369.8
11369.8
11369.8
11369.8
11369.8
11369.8
11369.8
11369.8
11369.8
11369.8
11369.8
11369.8
11369.8
11369.8
11369.8
11369.8
11369.8
11369.8
11369.8
11369.8
11369.8
11369.8
11369.8
11369.8
11369.8
11369.8
11369.8
11369.8
11369.8
11369.8
11369.8
11369.8
11369.8
11369.8
11369.8
11369.8
11369.8
11369.8
11369.8
11369.8
11369.8
11369.8
11369.8
11369.8
11369.8
11369.8
11369.8
11369.8
11369.8
11369.8
10585
10585
10585
10585
10585
10585
10585
10585
10585
10585
10585
10585
10585
10585
10585
10585
10585
10585
10585
10585
10585
10585
10585
10585
10585
10585
10585
10585
10585
10585
10585
10585
10585
10585
10585
10585
10585
10585
10585
10585
10585
10585
10585
10585
10585
10585
10585
10585
10585
10585
10585
10585
10585
10585
10585
10585
10585
10585
10585
10585
10585
10585
10585
10585
10585
10585
10585
10585
10585
10585
10585
10585
10585
10585
10585
10585
10585
10585
10585
10585
9800.2
9800.2
9800.2
9800.2
9800.2
9800.2
9800.2
9800.2
9800.2
9800.2
9800.2
9800.2
9800.2
9800.2
9800.2
9800.2
9800.2
9800.2
9800.2
9800.2
9800.2
9800.2
9800.2
9800.2
9800.2
9800.2
9800.2
9800.2
9800.2
9800.2
9800.2
9800.2
9800.2
9800.2
9800.2
9800.2
9800.2
9800.2
9800.21
9800.21
9800.21
9800.21
9800.21
9800.2
9800.2
9800.2
9800.2
9800.2
9800.2
9800.2
9800.2
9800.2
9800.2
9800.2
9800.2
9800.2
9800.2
9800.2
9800.2
9800.2
9800.2
9800.2
9800.2
9800.2
9800.2
9800.2
9800.2
9800.2
9800.2
9800.2
9800.2
9800.2
9800.2
9800.2
9800.2
9800.2
9800.2
9800.2
9800.2
9800.2
9015.4
9015.4
9015.4
9015.4
9015.4
9015.4
9015.4
9015.4
9015.4
9015.4
9015.4
9015.4
9015.4
9015.4
9015.4
9015.4
9015.4
9015.4
9015.4
9015.4
9015.4
9015.4
9015.4
9015.4
9015.4
9015.4
9015.4
9015.4
9015.4
9015.4
9015.4
9015.4
9015.4
9015.4
9015.4
9015.4
9015.41
9015.41
9015.41
9015.41
9015.41
9015.41
9015.41
9015.41
9015.41
9015.4
9015.4
9015.4
9015.4
9015.4
9015.4
9015.4
9015.4
9015.4
9015.4
9015.4
9015.4
9015.4
9015.4
9015.4
9015.4
9015.4
9015.4
9015.4
9015.4
9015.4
9015.4
9015.4
9015.4
9015.4
9015.4
9015.4
9015.4
9015.4
9015.4
9015.4
9015.4
9015.4
9015.4
9015.4
8230.6
8230.6
8230.6
8230.6
8230.6
8230.6
8230.6
8230.6
8230.6
8230.6
8230.6
8230.6
8230.6
8230.6
8230.6
8230.6
8230.6
8230.6
8230.6
8230.6
8230.6
8230.6
8230.6
8230.6
8230.6
8230.6
8230.6
8230.6
8230.6
8230.6
8230.6
8230.6
8230.6
8230.6
8230.61
8230.61
8230.61
8230.61
8230.61
8230.61
8230.61
8230.61
8230.61
8230.61
8230.61
8230.61
8230.6
8230.6
8230.6
8230.6
8230.6
8230.6
8230.6
8230.6
8230.6
8230.6
8230.6
8230.6
8230.6
8230.6
8230.6
8230.6
8230.6
8230.6
8230.6
8230.6
8230.6
8230.6
8230.6
8230.6
8230.6
8230.6
8230.6
8230.6
8230.6
8230.6
8230.6
8230.6
8230.6
8230.6
7445.8
7445.8
7445.8
7445.8
7445.8
7445.8
7445.8
7445.8
7445.8
7445.8
7445.8
7445.8
7445.8
7445.8
7445.8
7445.8
7445.8
7445.8
7445.8
7445.8
7445.8
7445.8
7445.8
7445.8
7445.8
7445.8
7445.8
7445.8
7445.8
7445.8
7445.8
7445.8
7445.8
7445.8
7445.81
7445.81
7445.81
7445.81
7445.81
7445.81
7445.81
7445.81
7445.81
7445.81
7445.81
7445.81
7445.81
7445.8
7445.8
7445.8
7445.8
7445.8
7445.8
7445.8
7445.8
7445.8
7445.8
7445.8
7445.8
7445.8
7445.8
7445.8
7445.8
7445.8
7445.8
7445.8
7445.8
7445.8
7445.8
7445.8
7445.8
7445.8
7445.8
7445.8
7445.8
7445.8
7445.8
7445.8
7445.8
7445.8
6661
6661
6661
6661
6661
6661
6661
6661
6661
6661
6661
6661
6661
6661
6661
6661
6661
6661
6661
6661
6661
6661
6661
6661
6661
6661
6661
6661
6661
6661
6661
6661
6661
6661.01
6661.01
6661.01
6661.01
6661.01
6661.01
6661.01
6661.01
6661.01
6661.01
6661.01
6661.01
6661.01
6661.01
6661
6661
6661
6661
6661
6661
6661
6661
6661
6661
6661
6661
6661
6661
6661
6661
6661
6661
6661
6661
6661
6661
6661
6661
6661
6661
6661
6661
6661
6661
6661
6661
6661
5876.2
5876.2
5876.2
5876.2
5876.2
5876.2
5876.2
5876.2
5876.2
5876.2
5876.2
5876.2
5876.2
5876.2
5876.2
5876.2
5876.2
5876.2
5876.2
5876.2
5876.2
5876.2
5876.2
5876.2
5876.2
5876.2
5876.2
5876.2
5876.2
5876.2
5876.2
5876.2
5876.2
5876.21
5876.21
5876.21
5876.21
5876.21
5876.21
5876.21
5876.21
5876.21
5876.21
5876.21
5876.21
5876.21
5876.21
5876.21
5876.2
5876.2
5876.2
5876.2
5876.2
5876.2
5876.2
5876.2
5876.2
5876.2
5876.2
5876.2
5876.2
5876.2
5876.2
5876.2
5876.2
5876.2
5876.2
5876.2
5876.2
5876.2
5876.2
5876.2
5876.2
5876.2
5876.2
5876.2
5876.2
5876.2
5876.2
5876.2
5091.4
5091.4
5091.4
5091.4
5091.4
5091.4
5091.4
5091.4
5091.4
5091.4
5091.4
5091.4
5091.4
5091.4
5091.4
5091.4
5091.4
5091.4
5091.4
5091.4
5091.4
5091.4
5091.4
5091.4
5091.4
5091.4
5091.4
5091.4
5091.4
5091.4
5091.4
5091.4
5091.4
5091.41
5091.41
5091.41
5091.41
5091.41
5091.41
5091.41
5091.41
5091.41
5091.41
5091.41
5091.41
5091.41
5091.41
5091.41
5091.41
5091.4
5091.4
5091.4
5091.4
5091.4
5091.4
5091.4
5091.4
5091.4
5091.4
5091.4
5091.4
5091.4
5091.4
5091.4
5091.4
5091.4
5091.4
5091.4
5091.4
5091.4
5091.4
5091.4
5091.4
5091.4
5091.4
5091.4
5091.4
5091.4
5091.4
5091.4
4306.6
4306.6
4306.6
4306.6
4306.6
4306.6
4306.6
4306.6
4306.6
4306.6
4306.6
4306.6
4306.6
4306.6
4306.6
4306.6
4306.6
4306.6
4306.6
4306.6
4306.6
4306.6
4306.6
4306.6
4306.6
4306.6
4306.6
4306.6
4306.6
4306.6
4306.6
4306.6
4306.61
4306.61
4306.61
4306.61
4306.61
4306.61
4306.61
4306.61
4306.61
4306.61
4306.61
4306.61
4306.61
4306.61
4306.61
4306.61
4306.61
4306.6
4306.6
4306.6
4306.6
4306.6
4306.6
4306.6
4306.6
4306.6
4306.6
4306.6
4306.6
4306.6
4306.6
4306.6
4306.6
4306.6
4306.6
4306.6
4306.6
4306.6
4306.6
4306.6
4306.6
4306.6
4306.6
4306.6
4306.6
4306.6
4306.6
4306.6
3521.8
3521.8
3521.8
3521.8
3521.8
3521.8
3521.8
3521.8
3521.8
3521.8
3521.8
3521.8
3521.8
3521.8
3521.8
3521.8
3521.8
3521.8
3521.8
3521.8
3521.8
3521.8
3521.8
3521.8
3521.8
3521.8
3521.8
3521.8
3521.8
3521.8
3521.8
3521.8
3521.81
3521.81
3521.81
3521.81
3521.81
3521.81
3521.81
3521.81
3521.81
3521.81
3521.81
3521.81
3521.81
3521.81
3521.81
3521.81
3521.81
3521.8
3521.8
3521.8
3521.8
3521.8
3521.8
3521.8
3521.8
3521.8
3521.8
3521.8
3521.8
3521.8
3521.8
3521.8
3521.8
3521.8
3521.8
3521.8
3521.8
3521.8
3521.8
3521.8
3521.8
3521.8
3521.8
3521.8
3521.8
3521.8
3521.8
3521.8
2737
2737
2737
2737
2737
2737
2737
2737
2737
2737
2737
2737
2737
2737
2737
2737
2737
2737
2737
2737
2737
2737
2737
2737
2737
2737
2737
2737
2737
2737
2737
2737.01
2737.01
2737.01
2737.01
2737.01
2737.01
2737.01
2737.01
2737.01
2737.01
2737.01
2737.01
2737.01
2737.01
2737.01
2737.01
2737.01
2737.01
2737.01
2737
2737
2737
2737
2737
2737
2737
2737
2737
2737
2737
2737
2737
2737
2737
2737
2737
2737
2737
2737
2737
2737
2737
2737
2737
2737
2737
2737
2737
2737
1952.2
1952.2
1952.2
1952.2
1952.2
1952.2
1952.2
1952.2
1952.2
1952.2
1952.2
1952.2
1952.2
1952.2
1952.2
1952.2
1952.2
1952.2
1952.2
1952.2
1952.2
1952.2
1952.2
1952.2
1952.2
1952.2
1952.2
1952.2
1952.2
1952.2
1952.2
1952.21
1952.21
1952.21
1952.21
1952.21
1952.21
1952.21
1952.21
1952.21
1952.21
1952.21
1952.21
1952.21
1952.21
1952.21
1952.21
1952.21
1952.21
1952.21
1952.2
1952.2
1952.2
1952.2
1952.2
1952.2
1952.2
1952.2
1952.2
1952.2
1952.2
1952.2
1952.2
1952.2
1952.2
1952.2
1952.2
1952.2
1952.2
1952.2
1952.2
1952.2
1952.2
1952.2
1952.2
1952.2
1952.2
1952.2
1952.2
1952.2
1167.4
1167.4
1167.4
1167.4
1167.4
1167.4
1167.4
1167.4
1167.4
1167.4
1167.4
1167.4
1167.4
1167.4
1167.4
1167.4
1167.4
1167.4
1167.4
1167.4
1167.4
1167.4
1167.4
1167.4
1167.4
1167.4
1167.4
1167.4
1167.4
1167.4
1167.4
1167.41
1167.41
1167.41
1167.41
1167.41
1167.41
1167.41
1167.41
1167.41
1167.41
1167.41
1167.41
1167.41
1167.41
1167.41
1167.41
1167.41
1167.41
1167.41
1167.41
1167.4
1167.4
1167.4
1167.4
1167.4
1167.4
1167.4
1167.4
1167.4
1167.4
1167.4
1167.4
1167.4
1167.4
1167.4
1167.4
1167.4
1167.4
1167.4
1167.4
1167.4
1167.4
1167.4
1167.4
1167.4
1167.4
1167.4
1167.4
1167.4
382.599
382.599
382.598
382.598
382.598
382.598
382.598
382.598
382.599
382.599
382.599
382.599
382.599
382.599
382.6
382.6
382.6
382.6
382.601
382.601
382.601
382.602
382.602
382.603
382.603
382.604
382.604
382.605
382.605
382.606
382.606
382.607
382.607
382.608
382.608
382.609
382.609
382.609
382.609
382.609
382.609
382.609
382.609
382.609
382.609
382.609
382.608
382.608
382.607
382.607
382.606
382.606
382.606
382.605
382.605
382.604
382.604
382.603
382.603
382.603
382.602
382.602
382.601
382.601
382.601
382.601
382.6
382.6
382.6
382.6
382.599
382.599
382.599
382.599
382.599
382.599
382.598
382.598
382.598
382.599
-10.0488
-10.0486
-10.0486
-10.0485
-10.0485
-10.0484
-10.0483
-10.0482
-10.048
-10.0479
-10.0477
-10.0475
-10.0472
-10.047
-10.0467
-10.0463
-10.046
-10.0456
-10.0451
-10.0447
-10.0442
-10.0437
-10.0432
-10.0426
-10.042
-10.0413
-10.0406
-10.0399
-10.0392
-10.0385
-10.0377
-10.0371
-10.0364
-10.0358
-10.0353
-10.0348
-10.0344
-10.0341
-10.0339
-10.0338
-10.0338
-10.0339
-10.0341
-10.0343
-10.0347
-10.0351
-10.0356
-10.0361
-10.0366
-10.0372
-10.0378
-10.0384
-10.039
-10.0396
-10.0402
-10.0408
-10.0413
-10.0418
-10.0424
-10.0428
-10.0433
-10.0438
-10.0442
-10.0446
-10.045
-10.0453
-10.0456
-10.0459
-10.0461
-10.0463
-10.0465
-10.0467
-10.0469
-10.0471
-10.0472
-10.0473
-10.0474
-10.0475
-10.0476
-10.0478
-10.5406
-10.5406
-10.5405
-10.5405
-10.5404
-10.5403
-10.5401
-10.54
-10.5398
-10.5396
-10.5393
-10.5391
-10.5388
-10.5384
-10.5381
-10.5377
-10.5373
-10.5368
-10.5364
-10.5359
-10.5353
-10.5348
-10.5342
-10.5335
-10.5329
-10.5322
-10.5316
-10.5309
-10.5301
-10.5294
-10.5287
-10.528
-10.5274
-10.5268
-10.5262
-10.5257
-10.5253
-10.525
-10.5248
-10.5247
-10.5246
-10.5247
-10.5249
-10.5252
-10.5255
-10.5259
-10.5264
-10.5269
-10.5275
-10.5281
-10.5287
-10.5293
-10.5299
-10.5305
-10.5311
-10.5317
-10.5322
-10.5328
-10.5333
-10.5338
-10.5342
-10.5347
-10.5351
-10.5355
-10.5359
-10.5362
-10.5365
-10.5368
-10.5371
-10.5374
-10.5376
-10.5378
-10.538
-10.5381
-10.5383
-10.5384
-10.5385
-10.5385
-10.5386
-10.5386
-11.0311
-11.0311
-11.031
-11.0309
-11.0309
-11.0307
-11.0306
-11.0304
-11.0302
-11.03
-11.0298
-11.0295
-11.0292
-11.0289
-11.0286
-11.0282
-11.0278
-11.0273
-11.0269
-11.0264
-11.0258
-11.0253
-11.0247
-11.0241
-11.0234
-11.0228
-11.0221
-11.0214
-11.0207
-11.02
-11.0193
-11.0186
-11.0179
-11.0173
-11.0167
-11.0163
-11.0158
-11.0155
-11.0153
-11.0152
-11.0152
-11.0152
-11.0154
-11.0157
-11.0161
-11.0165
-11.017
-11.0175
-11.0181
-11.0186
-11.0192
-11.0198
-11.0205
-11.021
-11.0216
-11.0222
-11.0227
-11.0233
-11.0238
-11.0243
-11.0247
-11.0252
-11.0256
-11.026
-11.0264
-11.0267
-11.027
-11.0273
-11.0276
-11.0279
-11.0281
-11.0283
-11.0285
-11.0286
-11.0287
-11.0288
-11.0289
-11.029
-11.029
-11.0291
-11.5216
-11.5216
-11.5215
-11.5215
-11.5214
-11.5213
-11.5211
-11.521
-11.5208
-11.5206
-11.5203
-11.5201
-11.5198
-11.5195
-11.5191
-11.5187
-11.5183
-11.5179
-11.5174
-11.5169
-11.5164
-11.5158
-11.5152
-11.5146
-11.514
-11.5133
-11.5126
-11.5119
-11.5112
-11.5105
-11.5098
-11.5091
-11.5084
-11.5078
-11.5072
-11.5067
-11.5063
-11.5059
-11.5057
-11.5056
-11.5056
-11.5056
-11.5058
-11.5061
-11.5065
-11.5069
-11.5074
-11.508
-11.5086
-11.5092
-11.5098
-11.5104
-11.511
-11.5116
-11.5122
-11.5128
-11.5133
-11.5138
-11.5143
-11.5148
-11.5153
-11.5157
-11.5161
-11.5165
-11.5169
-11.5172
-11.5176
-11.5179
-11.5181
-11.5184
-11.5186
-11.5188
-11.519
-11.5191
-11.5193
-11.5194
-11.5195
-11.5195
-11.5196
-11.5196
-12.0121
-12.0121
-12.0121
-12.012
-12.0119
-12.0118
-12.0117
-12.0115
-12.0113
-12.0111
-12.0109
-12.0106
-12.0103
-12.01
-12.0097
-12.0093
-12.0089
-12.0085
-12.008
-12.0075
-12.007
-12.0064
-12.0058
-12.0052
-12.0046
-12.0039
-12.0032
-12.0025
-12.0018
-12.001
-12.0003
-11.9996
-11.9989
-11.9982
-11.9976
-11.9971
-11.9966
-11.9963
-11.996
-11.9959
-11.9959
-11.996
-11.9962
-11.9965
-11.9969
-11.9973
-11.9979
-11.9984
-11.9991
-11.9997
-12.0003
-12.001
-12.0016
-12.0022
-12.0028
-12.0034
-12.0039
-12.0044
-12.0049
-12.0054
-12.0059
-12.0063
-12.0067
-12.0071
-12.0075
-12.0078
-12.0081
-12.0084
-12.0087
-12.0089
-12.0092
-12.0093
-12.0095
-12.0097
-12.0098
-12.0099
-12.01
-12.0101
-12.0101
-12.0101
-12.5027
-12.5027
-12.5026
-12.5026
-12.5025
-12.5024
-12.5022
-12.5021
-12.5019
-12.5017
-12.5015
-12.5012
-12.5009
-12.5006
-12.5003
-12.4999
-12.4995
-12.4991
-12.4986
-12.4981
-12.4976
-12.4971
-12.4965
-12.4959
-12.4952
-12.4945
-12.4938
-12.4931
-12.4923
-12.4916
-12.4908
-12.49
-12.4893
-12.4886
-12.488
-12.4874
-12.4869
-12.4865
-12.4863
-12.4861
-12.4861
-12.4862
-12.4864
-12.4868
-12.4872
-12.4877
-12.4883
-12.4889
-12.4895
-12.4902
-12.4909
-12.4915
-12.4922
-12.4928
-12.4934
-12.494
-12.4946
-12.4951
-12.4956
-12.4961
-12.4965
-12.4969
-12.4973
-12.4977
-12.4981
-12.4984
-12.4987
-12.499
-12.4993
-12.4995
-12.4997
-12.4999
-12.5001
-12.5002
-12.5004
-12.5005
-12.5005
-12.5006
-12.5006
-12.5007
-12.9932
-12.9932
-12.9932
-12.9931
-12.993
-12.9929
-12.9928
-12.9927
-12.9925
-12.9923
-12.9921
-12.9918
-12.9915
-12.9912
-12.9909
-12.9905
-12.9902
-12.9897
-12.9893
-12.9888
-12.9883
-12.9878
-12.9872
-12.9866
-12.9859
-12.9852
-12.9845
-12.9837
-12.9829
-12.9821
-12.9813
-12.9805
-12.9797
-12.979
-12.9783
-12.9776
-12.9771
-12.9767
-12.9764
-12.9762
-12.9762
-12.9763
-12.9766
-12.977
-12.9775
-12.978
-12.9787
-12.9793
-12.98
-12.9807
-12.9814
-12.9821
-12.9828
-12.9835
-12.9841
-12.9847
-12.9852
-12.9858
-12.9863
-12.9867
-12.9872
-12.9876
-12.988
-12.9884
-12.9887
-12.989
-12.9893
-12.9896
-12.9899
-12.9901
-12.9903
-12.9905
-12.9907
-12.9908
-12.9909
-12.991
-12.9911
-12.9912
-12.9912
-12.9912
-13.4838
-13.4838
-13.4838
-13.4837
-13.4836
-13.4835
-13.4834
-13.4833
-13.4831
-13.4829
-13.4827
-13.4824
-13.4822
-13.4819
-13.4816
-13.4812
-13.4808
-13.4804
-13.48
-13.4795
-13.479
-13.4785
-13.4779
-13.4773
-13.4766
-13.4759
-13.4752
-13.4744
-13.4736
-13.4727
-13.4719
-13.471
-13.4701
-13.4693
-13.4685
-13.4678
-13.4672
-13.4667
-13.4664
-13.4662
-13.4662
-13.4664
-13.4667
-13.4671
-13.4677
-13.4683
-13.469
-13.4697
-13.4705
-13.4713
-13.472
-13.4728
-13.4735
-13.4741
-13.4748
-13.4754
-13.476
-13.4765
-13.477
-13.4775
-13.4779
-13.4783
-13.4787
-13.479
-13.4794
-13.4797
-13.48
-13.4802
-13.4805
-13.4807
-13.4809
-13.4811
-13.4813
-13.4814
-13.4815
-13.4816
-13.4817
-13.4818
-13.4818
-13.4818
-13.9744
-13.9744
-13.9744
-13.9743
-13.9742
-13.9741
-13.974
-13.9739
-13.9737
-13.9735
-13.9733
-13.9731
-13.9728
-13.9726
-13.9723
-13.9719
-13.9716
-13.9712
-13.9707
-13.9703
-13.9698
-13.9693
-13.9687
-13.9681
-13.9674
-13.9667
-13.9659
-13.9651
-13.9643
-13.9634
-13.9624
-13.9615
-13.9605
-13.9596
-13.9587
-13.9578
-13.9571
-13.9566
-13.9562
-13.956
-13.956
-13.9562
-13.9566
-13.9571
-13.9578
-13.9585
-13.9593
-13.9601
-13.961
-13.9618
-13.9626
-13.9634
-13.9642
-13.9649
-13.9655
-13.9662
-13.9667
-13.9673
-13.9678
-13.9682
-13.9686
-13.969
-13.9694
-13.9698
-13.9701
-13.9704
-13.9707
-13.9709
-13.9711
-13.9714
-13.9716
-13.9717
-13.9719
-13.972
-13.9721
-13.9722
-13.9723
-13.9724
-13.9724
-13.9724
-14.465
-14.465
-14.465
-14.4649
-14.4649
-14.4648
-14.4647
-14.4645
-14.4644
-14.4642
-14.464
-14.4638
-14.4635
-14.4633
-14.463
-14.4627
-14.4623
-14.4619
-14.4615
-14.4611
-14.4606
-14.4601
-14.4595
-14.4589
-14.4583
-14.4575
-14.4568
-14.4559
-14.455
-14.454
-14.453
-14.452
-14.4509
-14.4498
-14.4488
-14.4478
-14.447
-14.4463
-14.4459
-14.4456
-14.4457
-14.4459
-14.4464
-14.447
-14.4478
-14.4486
-14.4496
-14.4505
-14.4514
-14.4524
-14.4532
-14.4541
-14.4549
-14.4556
-14.4563
-14.457
-14.4575
-14.4581
-14.4586
-14.459
-14.4594
-14.4598
-14.4602
-14.4605
-14.4608
-14.4611
-14.4614
-14.4616
-14.4618
-14.462
-14.4622
-14.4624
-14.4625
-14.4627
-14.4628
-14.4629
-14.4629
-14.463
-14.463
-14.463
-14.9557
-14.9557
-14.9556
-14.9556
-14.9555
-14.9554
-14.9553
-14.9552
-14.955
-14.9549
-14.9547
-14.9545
-14.9543
-14.954
-14.9537
-14.9534
-14.9531
-14.9528
-14.9524
-14.952
-14.9515
-14.951
-14.9504
-14.9498
-14.9492
-14.9485
-14.9477
-14.9468
-14.9458
-14.9448
-14.9437
-14.9425
-14.9412
-14.94
-14.9388
-14.9376
-14.9366
-14.9358
-14.9353
-14.935
-14.9351
-14.9354
-14.936
-14.9368
-14.9377
-14.9387
-14.9398
-14.9409
-14.9419
-14.943
-14.9439
-14.9448
-14.9457
-14.9464
-14.9472
-14.9478
-14.9484
-14.9489
-14.9494
-14.9499
-14.9503
-14.9506
-14.951
-14.9513
-14.9516
-14.9518
-14.9521
-14.9523
-14.9525
-14.9527
-14.9529
-14.9531
-14.9532
-14.9533
-14.9534
-14.9535
-14.9536
-14.9536
-14.9537
-14.9537
-15.4463
-15.4463
-15.4463
-15.4462
-15.4462
-15.4461
-15.446
-15.4459
-15.4457
-15.4456
-15.4454
-15.4452
-15.445
-15.4448
-15.4445
-15.4443
-15.4439
-15.4436
-15.4433
-15.4429
-15.4424
-15.4419
-15.4414
-15.4408
-15.4402
-15.4394
-15.4386
-15.4377
-15.4367
-15.4356
-15.4344
-15.433
-15.4316
-15.4302
-15.4287
-15.4273
-15.4261
-15.4251
-15.4244
-15.4241
-15.4242
-15.4246
-15.4254
-15.4264
-15.4275
-15.4288
-15.43
-15.4313
-15.4325
-15.4336
-15.4346
-15.4356
-15.4365
-15.4373
-15.4381
-15.4387
-15.4393
-15.4398
-15.4403
-15.4407
-15.4411
-15.4415
-15.4418
-15.4421
-15.4424
-15.4426
-15.4428
-15.443
-15.4432
-15.4434
-15.4436
-15.4437
-15.4439
-15.444
-15.4441
-15.4442
-15.4442
-15.4443
-15.4443
-15.4443
-15.937
-15.937
-15.9369
-15.9369
-15.9368
-15.9368
-15.9367
-15.9366
-15.9364
-15.9363
-15.9361
-15.936
-15.9358
-15.9356
-15.9353
-15.9351
-15.9348
-15.9345
-15.9342
-15.9338
-15.9334
-15.933
-15.9325
-15.9319
-15.9313
-15.9305
-15.9297
-15.9288
-15.9277
-15.9265
-15.9252
-15.9237
-15.9221
-15.9204
-15.9186
-15.9169
-15.9153
-15.914
-15.9132
-15.9128
-15.9129
-15.9135
-15.9145
-15.9157
-15.9172
-15.9187
-15.9203
-15.9217
-15.9231
-15.9243
-15.9255
-15.9265
-15.9274
-15.9283
-15.929
-15.9297
-15.9303
-15.9308
-15.9313
-15.9317
-15.932
-15.9324
-15.9327
-15.9329
-15.9332
-15.9334
-15.9336
-15.9338
-15.934
-15.9342
-15.9343
-15.9344
-15.9346
-15.9347
-15.9348
-15.9348
-15.9349
-15.9349
-15.935
-15.935
-16.4276
-16.4276
-16.4276
-16.4276
-16.4275
-16.4275
-16.4274
-16.4273
-16.4272
-16.427
-16.4269
-16.4268
-16.4266
-16.4264
-16.4262
-16.426
-16.4257
-16.4255
-16.4252
-16.4248
-16.4245
-16.424
-16.4236
-16.423
-16.4224
-16.4217
-16.4209
-16.42
-16.4189
-16.4176
-16.4161
-16.4145
-16.4126
-16.4106
-16.4084
-16.4063
-16.4043
-16.4026
-16.4015
-16.401
-16.4011
-16.4019
-16.4032
-16.4049
-16.4067
-16.4087
-16.4105
-16.4122
-16.4138
-16.4152
-16.4164
-16.4175
-16.4185
-16.4193
-16.4201
-16.4207
-16.4213
-16.4218
-16.4223
-16.4226
-16.423
-16.4233
-16.4236
-16.4238
-16.424
-16.4242
-16.4244
-16.4246
-16.4248
-16.4249
-16.425
-16.4252
-16.4253
-16.4254
-16.4255
-16.4255
-16.4256
-16.4256
-16.4256
-16.4257
-16.9183
-16.9183
-16.9183
-16.9183
-16.9182
-16.9182
-16.9181
-16.918
-16.9179
-16.9178
-16.9177
-16.9175
-16.9174
-16.9172
-16.9171
-16.9169
-16.9167
-16.9164
-16.9162
-16.9159
-16.9156
-16.9152
-16.9148
-16.9143
-16.9137
-16.913
-16.9122
-16.9113
-16.9102
-16.9089
-16.9073
-16.9055
-16.9033
-16.9009
-16.8983
-16.8955
-16.8929
-16.8907
-16.8892
-16.8885
-16.8887
-16.8898
-16.8916
-16.8938
-16.8961
-16.8985
-16.9008
-16.9028
-16.9046
-16.9062
-16.9075
-16.9086
-16.9096
-16.9105
-16.9112
-16.9118
-16.9124
-16.9129
-16.9133
-16.9137
-16.914
-16.9142
-16.9145
-16.9147
-16.9149
-16.9151
-16.9152
-16.9154
-16.9155
-16.9157
-16.9158
-16.9159
-16.916
-16.9161
-16.9162
-16.9162
-16.9163
-16.9163
-16.9163
-16.9163
-17.409
-17.409
-17.409
-17.409
-17.4089
-17.4089
-17.4088
-17.4087
-17.4087
-17.4086
-17.4085
-17.4084
-17.4082
-17.4081
-17.408
-17.4078
-17.4076
-17.4074
-17.4072
-17.407
-17.4067
-17.4064
-17.406
-17.4056
-17.4051
-17.4045
-17.4037
-17.4028
-17.4017
-17.4004
-17.3987
-17.3967
-17.3943
-17.3915
-17.3883
-17.3848
-17.3813
-17.3782
-17.3761
-17.3752
-17.3756
-17.3771
-17.3795
-17.3824
-17.3854
-17.3884
-17.3911
-17.3935
-17.3956
-17.3973
-17.3988
-17.3999
-17.4009
-17.4017
-17.4024
-17.403
-17.4036
-17.404
-17.4044
-17.4047
-17.405
-17.4052
-17.4054
-17.4056
-17.4058
-17.4059
-17.4061
-17.4062
-17.4063
-17.4065
-17.4066
-17.4067
-17.4067
-17.4068
-17.4069
-17.4069
-17.407
-17.407
-17.407
-17.407
-17.8997
-17.8997
-17.8997
-17.8997
-17.8996
-17.8996
-17.8995
-17.8995
-17.8994
-17.8994
-17.8993
-17.8992
-17.8991
-17.899
-17.8989
-17.8988
-17.8986
-17.8985
-17.8983
-17.8981
-17.8979
-17.8977
-17.8974
-17.897
-17.8966
-17.896
-17.8954
-17.8946
-17.8935
-17.8922
-17.8905
-17.8884
-17.8858
-17.8825
-17.8785
-17.874
-17.8693
-17.8651
-17.8621
-17.8609
-17.8615
-17.8638
-17.8671
-17.8708
-17.8747
-17.8783
-17.8816
-17.8844
-17.8868
-17.8887
-17.8902
-17.8914
-17.8924
-17.8931
-17.8938
-17.8943
-17.8948
-17.8952
-17.8955
-17.8958
-17.8961
-17.8963
-17.8964
-17.8966
-17.8967
-17.8968
-17.897
-17.8971
-17.8972
-17.8973
-17.8973
-17.8974
-17.8975
-17.8976
-17.8976
-17.8977
-17.8977
-17.8977
-17.8977
-17.8978
-18.3904
-18.3904
-18.3904
-18.3904
-18.3904
-18.3903
-18.3903
-18.3903
-18.3902
-18.3902
-18.3901
-18.39
-18.39
-18.3899
-18.3898
-18.3897
-18.3896
-18.3895
-18.3894
-18.3893
-18.3892
-18.389
-18.3888
-18.3885
-18.3882
-18.3878
-18.3872
-18.3865
-18.3856
-18.3844
-18.3828
-18.3807
-18.3779
-18.3742
-18.3695
-18.3637
-18.3573
-18.3513
-18.3471
-18.3455
-18.3465
-18.3499
-18.3545
-18.3594
-18.3642
-18.3686
-18.3724
-18.3756
-18.3782
-18.3803
-18.3819
-18.3831
-18.384
-18.3847
-18.3853
-18.3857
-18.3861
-18.3865
-18.3867
-18.387
-18.3872
-18.3873
-18.3874
-18.3876
-18.3877
-18.3878
-18.3878
-18.3879
-18.388
-18.3881
-18.3881
-18.3882
-18.3883
-18.3883
-18.3884
-18.3884
-18.3884
-18.3884
-18.3885
-18.3885
-18.8811
-18.8811
-18.8811
-18.8811
-18.8811
-18.8811
-18.881
-18.881
-18.881
-18.881
-18.8809
-18.8809
-18.8808
-18.8808
-18.8808
-18.8807
-18.8807
-18.8806
-18.8806
-18.8805
-18.8805
-18.8804
-18.8803
-18.8801
-18.8799
-18.8796
-18.8793
-18.8787
-18.878
-18.877
-18.8756
-18.8736
-18.8708
-18.8671
-18.8617
-18.8545
-18.8456
-18.8365
-18.8303
-18.8284
-18.8299
-18.8356
-18.8422
-18.8486
-18.8544
-18.8595
-18.8638
-18.8673
-18.8701
-18.8722
-18.8738
-18.8749
-18.8758
-18.8764
-18.8769
-18.8772
-18.8775
-18.8778
-18.878
-18.8782
-18.8783
-18.8784
-18.8785
-18.8786
-18.8786
-18.8787
-18.8787
-18.8788
-18.8788
-18.8789
-18.8789
-18.879
-18.879
-18.8791
-18.8791
-18.8791
-18.8792
-18.8792
-18.8792
-18.8792
-19.3718
-19.3718
-19.3718
-19.3718
-19.3718
-19.3718
-19.3718
-19.3718
-19.3718
-19.3718
-19.3718
-19.3717
-19.3717
-19.3717
-19.3717
-19.3717
-19.3717
-19.3717
-19.3718
-19.3718
-19.3718
-19.3718
-19.3718
-19.3717
-19.3717
-19.3716
-19.3714
-19.3712
-19.3708
-19.3701
-19.3691
-19.3675
-19.3652
-19.3616
-19.3563
-19.3478
-19.3354
-19.3219
-19.3137
-19.3111
-19.3133
-19.322
-19.3314
-19.3392
-19.3459
-19.3516
-19.3562
-19.3598
-19.3625
-19.3646
-19.3661
-19.3671
-19.3678
-19.3682
-19.3686
-19.3688
-19.369
-19.3692
-19.3693
-19.3694
-19.3694
-19.3695
-19.3695
-19.3696
-19.3696
-19.3696
-19.3696
-19.3697
-19.3697
-19.3697
-19.3697
-19.3698
-19.3698
-19.3698
-19.3699
-19.3699
-19.3699
-19.3699
-19.3699
-19.3699
-19.8626
-19.8626
-19.8626
-19.8626
-19.8626
-19.8626
-19.8626
-19.8626
-19.8626
-19.8626
-19.8626
-19.8626
-19.8626
-19.8627
-19.8627
-19.8627
-19.8628
-19.8629
-19.8629
-19.863
-19.8631
-19.8632
-19.8633
-19.8634
-19.8636
-19.8637
-19.8638
-19.8638
-19.8638
-19.8636
-19.8632
-19.8624
-19.861
-19.8587
-19.8549
-19.8471
-19.8322
-19.8175
-19.8061
-19.8007
-19.8043
-19.8128
-19.8243
-19.8325
-19.8395
-19.8454
-19.8499
-19.8532
-19.8557
-19.8575
-19.8587
-19.8595
-19.8599
-19.8602
-19.8604
-19.8605
-19.8605
-19.8606
-19.8606
-19.8606
-19.8606
-19.8606
-19.8606
-19.8606
-19.8606
-19.8606
-19.8605
-19.8605
-19.8605
-19.8605
-19.8606
-19.8606
-19.8606
-19.8606
-19.8606
-19.8606
-19.8606
-19.8606
-19.8606
-19.8607
-20.3533
-20.3533
-20.3533
-20.3533
-20.3533
-20.3533
-20.3533
-20.3533
-20.3534
-20.3534
-20.3534
-20.3535
-20.3535
-20.3536
-20.3536
-20.3537
-20.3538
-20.354
-20.3541
-20.3543
-20.3544
-20.3546
-20.3549
-20.3552
-20.3555
-20.3558
-20.3562
-20.3566
-20.357
-20.3574
-20.3578
-20.3581
-20.3583
-20.359
-20.3599
-20.3563
-20.3414
-20.3258
-20.308
-20.2966
-20.3009
-20.3105
-20.3208
-20.3291
-20.3363
-20.3417
-20.3453
-20.3478
-20.3497
-20.3509
-20.3517
-20.3521
-20.3523
-20.3523
-20.3523
-20.3522
-20.3521
-20.352
-20.3519
-20.3519
-20.3518
-20.3517
-20.3517
-20.3516
-20.3515
-20.3515
-20.3515
-20.3514
-20.3514
-20.3514
-20.3514
-20.3514
-20.3514
-20.3514
-20.3514
-20.3514
-20.3514
-20.3514
-20.3514
-20.3514
-20.844
-20.844
-20.844
-20.844
-20.844
-20.844
-20.8441
-20.8441
-20.8441
-20.8442
-20.8442
-20.8443
-20.8444
-20.8445
-20.8446
-20.8447
-20.8449
-20.8451
-20.8453
-20.8455
-20.8458
-20.8461
-20.8464
-20.8468
-20.8473
-20.8479
-20.8486
-20.8494
-20.8503
-20.8514
-20.8528
-20.8544
-20.8567
-20.8616
-20.8694
-20.8672
-20.855
-20.8367
-20.8299
-20.816
-20.794
-20.8154
-20.8184
-20.8274
-20.8374
-20.8414
-20.8426
-20.8436
-20.8444
-20.8448
-20.845
-20.8449
-20.8447
-20.8445
-20.8442
-20.8439
-20.8437
-20.8435
-20.8433
-20.8431
-20.843
-20.8428
-20.8427
-20.8426
-20.8425
-20.8424
-20.8424
-20.8423
-20.8423
-20.8422
-20.8422
-20.8422
-20.8421
-20.8421
-20.8421
-20.8421
-20.8421
-20.8421
-20.8421
-20.8421
-21.3347
-21.3347
-21.3347
-21.3347
-21.3348
-21.3348
-21.3348
-21.3349
-21.3349
-21.335
-21.3351
-21.3352
-21.3353
-21.3354
-21.3355
-21.3357
-21.3359
-21.3361
-21.3364
-21.3367
-21.337
-21.3375
-21.3379
-21.3385
-21.3392
-21.3399
-21.3409
-21.3421
-21.3435
-21.3453
-21.3477
-21.3507
-21.355
-21.3645
-21.3796
-21.3781
-21.3662
-21.3258
-21.3968
-21.3926
-21.2955
-21.3411
-21.3297
-21.3298
-21.3464
-21.3457
-21.3417
-21.3403
-21.3397
-21.3391
-21.3385
-21.3378
-21.3372
-21.3366
-21.3361
-21.3357
-21.3353
-21.3349
-21.3346
-21.3344
-21.3342
-21.334
-21.3338
-21.3336
-21.3335
-21.3334
-21.3333
-21.3332
-21.3331
-21.333
-21.333
-21.333
-21.3329
-21.3329
-21.3329
-21.3329
-21.3329
-21.3329
-21.3329
-21.3329
-21.8254
-21.8254
-21.8254
-21.8255
-21.8255
-21.8255
-21.8256
-21.8256
-21.8257
-21.8258
-21.8259
-21.826
-21.8261
-21.8263
-21.8265
-21.8267
-21.8269
-21.8272
-21.8275
-21.8279
-21.8283
-21.8288
-21.8294
-21.8301
-21.8309
-21.8319
-21.8331
-21.8346
-21.8364
-21.8388
-21.842
-21.8462
-21.852
-21.8636
-21.8821
-21.8904
-21.8788
-21.7346
-21.9322
-22.1955
-21.9761
-21.8743
-21.8444
-21.8474
-21.8662
-21.8534
-21.8421
-21.8376
-21.8353
-21.8335
-21.832
-21.8308
-21.8297
-21.8288
-21.828
-21.8274
-21.8268
-21.8263
-21.8259
-21.8256
-21.8253
-21.825
-21.8248
-21.8246
-21.8244