/*--------------------------------*- C++ -*----------------------------------*\
| =========                 |                                                 |
| \\      /  F ield         | OpenFOAM: The Open Source CFD Toolbox           |
|  \\    /   O peration     | Version:  2412                                  |
|   \\  /    A nd           | Website:  www.openfoam.com                      |
|    \\/     M anipulation  |                                                 |
\*---------------------------------------------------------------------------*/
FoamFile
{
    version     2.0;
    format      ascii;
    arch        "LSB;label=32;scalar=64";
    class       volVectorField;
    location    "1.55";
    object      U;
}
// * * * * * * * * * * * * * * * * * * * * * * * * * * * * * * * * * * * * * //

dimensions      [0 1 -1 0 0 0 0];

internalField   nonuniform List<vector> 
6400
(
(0.00239002 -0.00239654 0)
(0.00791275 -0.00260881 0)
(0.0134993 -0.00258042 0)
(0.0190853 -0.00255247 0)
(0.0246444 -0.00252102 0)
(0.0301712 -0.0024758 0)
(0.0356454 -0.00241468 0)
(0.0410397 -0.00233284 0)
(0.0463172 -0.00223049 0)
(0.0514288 -0.00209996 0)
(0.056321 -0.0019372 0)
(0.060932 -0.00174485 0)
(0.0651859 -0.00151639 0)
(0.0690114 -0.00124858 0)
(0.0723322 -0.000948199 0)
(0.0750621 -0.000614045 0)
(0.0771286 -0.000246139 0)
(0.0784629 0.000144766 0)
(0.0790022 0.000553843 0)
(0.0787116 0.000978001 0)
(0.0775488 0.00138579 0)
(0.0754982 0.00177318 0)
(0.0725921 0.00212959 0)
(0.0688855 0.00243968 0)
(0.0644623 0.00268878 0)
(0.0594332 0.00286074 0)
(0.0539378 0.00294619 0)
(0.0481376 0.00293876 0)
(0.0422065 0.00283443 0)
(0.0363177 0.00263934 0)
(0.0306394 0.00236507 0)
(0.0253116 0.0020208 0)
(0.0204652 0.00161264 0)
(0.0162073 0.00115646 0)
(0.0126082 0.000675702 0)
(0.00969088 0.000204572 0)
(0.00741914 -0.000222416 0)
(0.00570306 -0.000572229 0)
(0.00440458 -0.000812421 0)
(0.00334434 -0.000919345 0)
(0.00234023 -0.000877807 0)
(0.00117934 -0.000705385 0)
(-0.000377342 -0.000417418 0)
(-0.00246822 -1.71466e-05 0)
(-0.00517602 0.000445565 0)
(-0.00858412 0.000934535 0)
(-0.0127069 0.00142023 0)
(-0.0175036 0.00187291 0)
(-0.0228845 0.00227265 0)
(-0.0287328 0.00260903 0)
(-0.0349178 0.00287092 0)
(-0.0412805 0.00304706 0)
(-0.0476494 0.00312904 0)
(-0.0538465 0.00311461 0)
(-0.0596989 0.00300738 0)
(-0.0650491 0.00281662 0)
(-0.06976 0.00255278 0)
(-0.0737217 0.00222973 0)
(-0.0768545 0.00186147 0)
(-0.0791096 0.00145965 0)
(-0.0804573 0.00104259 0)
(-0.0809049 0.000612869 0)
(-0.0804994 0.000194088 0)
(-0.0792807 -0.000205333 0)
(-0.0773084 -0.000581376 0)
(-0.0746537 -0.000923747 0)
(-0.0713871 -0.00123341 0)
(-0.0675864 -0.00150751 0)
(-0.0633287 -0.00175002 0)
(-0.058688 -0.00195661 0)
(-0.053731 -0.00213385 0)
(-0.0485187 -0.00228096 0)
(-0.0431044 -0.00240136 0)
(-0.0375314 -0.00249886 0)
(-0.0318393 -0.00257855 0)
(-0.0260599 -0.00263974 0)
(-0.0202128 -0.00268641 0)
(-0.0143089 -0.00272512 0)
(-0.00838505 -0.0027621 0)
(-0.0025288 -0.00253507 0)
(0.00258055 -0.00790402 0)
(0.0089043 -0.00899446 0)
(0.0150718 -0.00887352 0)
(0.0212614 -0.00882604 0)
(0.0274698 -0.00880759 0)
(0.0337103 -0.00877569 0)
(0.0399738 -0.00871324 0)
(0.046242 -0.00860196 0)
(0.0524884 -0.0084303 0)
(0.0586703 -0.00818211 0)
(0.0647272 -0.00784073 0)
(0.0706017 -0.00739607 0)
(0.0762168 -0.00683702 0)
(0.0814833 -0.00615059 0)
(0.086318 -0.00533866 0)
(0.0906241 -0.0043997 0)
(0.0943021 -0.00333371 0)
(0.0972618 -0.00215915 0)
(0.0994238 -0.00088926 0)
(0.100709 0.000453208 0)
(0.101064 0.00182792 0)
(0.100455 0.00320012 0)
(0.0988692 0.0045319 0)
(0.0963232 0.00578096 0)
(0.0928602 0.00689668 0)
(0.0885538 0.00784065 0)
(0.083506 0.00857001 0)
(0.0778383 0.00906142 0)
(0.0716924 0.00929356 0)
(0.0652237 0.00926603 0)
(0.0585873 0.00900062 0)
(0.0519447 0.00852318 0)
(0.0454278 0.00786286 0)
(0.0391057 0.00706474 0)
(0.0330137 0.00618918 0)
(0.027179 0.00531233 0)
(0.0215842 0.00450958 0)
(0.016181 0.00385222 0)
(0.010908 0.00340807 0)
(0.00569516 0.00322503 0)
(0.000472714 0.00333261 0)
(-0.00484513 0.00370518 0)
(-0.0103403 0.00430707 0)
(-0.0160751 0.00511106 0)
(-0.0220863 0.00602692 0)
(-0.0284017 0.00697661 0)
(-0.0350291 0.00789234 0)
(-0.0419353 0.00870335 0)
(-0.0490492 0.00935581 0)
(-0.056274 0.00981148 0)
(-0.0634663 0.0100376 0)
(-0.0704642 0.010011 0)
(-0.0771066 0.00972043 0)
(-0.0832376 0.00917185 0)
(-0.0887134 0.00838434 0)
(-0.0934095 0.00738592 0)
(-0.0972262 0.00621812 0)
(-0.100091 0.0049239 0)
(-0.101966 0.00354909 0)
(-0.102834 0.00213983 0)
(-0.102708 0.000727147 0)
(-0.101626 -0.00064754 0)
(-0.0996444 -0.00195042 0)
(-0.0968344 -0.00315944 0)
(-0.0932796 -0.0042582 0)
(-0.0890752 -0.00523393 0)
(-0.0843107 -0.00608521 0)
(-0.0790789 -0.00681169 0)
(-0.0734655 -0.00742074 0)
(-0.0675539 -0.00791834 0)
(-0.0614192 -0.00831397 0)
(-0.0551184 -0.00862186 0)
(-0.0487069 -0.00885443 0)
(-0.0422243 -0.00902883 0)
(-0.0357013 -0.0091566 0)
(-0.0291601 -0.00924492 0)
(-0.0226073 -0.00931306 0)
(-0.0160373 -0.00940134 0)
(-0.00946876 -0.00955125 0)
(-0.00273656 -0.00837854 0)
(0.0025983 -0.0134644 0)
(0.00883233 -0.0151647 0)
(0.0148698 -0.0149195 0)
(0.0209597 -0.0148667 0)
(0.0270924 -0.0148881 0)
(0.033282 -0.014903 0)
(0.0395289 -0.0148782 0)
(0.045818 -0.0147815 0)
(0.0521199 -0.0145863 0)
(0.0583947 -0.0142695 0)
(0.0645868 -0.0138016 0)
(0.0706313 -0.0131557 0)
(0.0764511 -0.0123166 0)
(0.0819571 -0.0112645 0)
(0.0870571 -0.00999102 0)
(0.0916514 -0.00849279 0)
(0.0956318 -0.00677418 0)
(0.0988991 -0.00485369 0)
(0.101363 -0.00275902 0)
(0.102938 -0.000531576 0)
(0.103553 0.00178697 0)
(0.103162 0.00413683 0)
(0.101756 0.00644692 0)
(0.0993412 0.00863728 0)
(0.0959628 0.0106422 0)
(0.0916944 0.0123883 0)
(0.0866395 0.0138089 0)
(0.0809268 0.014857 0)
(0.0746978 0.0155011 0)
(0.0681188 0.0157343 0)
(0.0613484 0.015573 0)
(0.0545371 0.0150617 0)
(0.0478173 0.0142771 0)
(0.0412657 0.0133025 0)
(0.0349206 0.0122389 0)
(0.0288054 0.0111919 0)
(0.0228983 0.0102525 0)
(0.0171523 0.00950332 0)
(0.0115096 0.00901518 0)
(0.00590806 0.00883472 0)
(0.000288227 0.00898605 0)
(-0.00542348 0.00945906 0)
(-0.0112862 0.0102135 0)
(-0.0173565 0.0111998 0)
(-0.0236786 0.0123367 0)
(-0.0302771 0.0135283 0)
(-0.0371596 0.0146825 0)
(-0.0442954 0.0157001 0)
(-0.0516119 0.016484 0)
(-0.0590092 0.0169547 0)
(-0.0663446 0.0170501 0)
(-0.0734574 0.0167348 0)
(-0.0801849 0.0159995 0)
(-0.0863662 0.0148579 0)
(-0.0918557 0.0133443 0)
(-0.0965205 0.0115087 0)
(-0.100256 0.00941714 0)
(-0.102992 0.007143 0)
(-0.104687 0.00476073 0)
(-0.105343 0.00233941 0)
(-0.104968 -4.12767e-05 0)
(-0.1036 -0.00232781 0)
(-0.101322 -0.00447937 0)
(-0.0982117 -0.00645724 0)
(-0.0943626 -0.00823511 0)
(-0.0898795 -0.0097986 0)
(-0.0848575 -0.0111411 0)
(-0.0793953 -0.0122689 0)
(-0.0735843 -0.0131925 0)
(-0.0675064 -0.0139291 0)
(-0.0612406 -0.0144942 0)
(-0.0548497 -0.0149184 0)
(-0.0483857 -0.0152202 0)
(-0.0418848 -0.0154293 0)
(-0.0353695 -0.0155673 0)
(-0.0288638 -0.0156516 0)
(-0.0223725 -0.0157196 0)
(-0.0158878 -0.0158473 0)
(-0.00943149 -0.0161425 0)
(-0.00276503 -0.0143011 0)
(0.00261563 -0.0190737 0)
(0.00879579 -0.0213488 0)
(0.0147666 -0.0210006 0)
(0.0208081 -0.0209647 0)
(0.0269193 -0.0210556 0)
(0.0331153 -0.021144 0)
(0.0394022 -0.0211852 0)
(0.0457682 -0.0211353 0)
(0.052181 -0.0209535 0)
(0.0586022 -0.0206004 0)
(0.0649768 -0.0200345 0)
(0.0712344 -0.0192175 0)
(0.0772921 -0.0181183 0)
(0.0830552 -0.0167118 0)
(0.0884258 -0.0149792 0)
(0.093294 -0.0129144 0)
(0.0975384 -0.0105229 0)
(0.101045 -0.00782282 0)
(0.103712 -0.00485489 0)
(0.105441 -0.0016663 0)
(0.10615 0.00167235 0)
(0.105779 0.00506865 0)
(0.104292 0.00843949 0)
(0.101709 0.011672 0)
(0.0980767 0.0146559 0)
(0.0934622 0.0172777 0)
(0.0879904 0.0194524 0)
(0.0818113 0.0210961 0)
(0.0750989 0.0221692 0)
(0.0680436 0.0226627 0)
(0.0608317 0.0225902 0)
(0.0536421 0.0220174 0)
(0.046622 0.021051 0)
(0.0398709 0.0198139 0)
(0.0334559 0.0184523 0)
(0.0274028 0.0171114 0)
(0.0216832 0.0159141 0)
(0.0162392 0.0149698 0)
(0.0109883 0.0143635 0)
(0.00583275 0.0141508 0)
(0.000672899 0.0143582 0)
(-0.00461112 0.0149825 0)
(-0.0101173 0.0159694 0)
(-0.015928 0.0172534 0)
(-0.0221126 0.0187342 0)
(-0.0287067 0.0202873 0)
(-0.0357115 0.0217806 0)
(-0.0430856 0.0230792 0)
(-0.0507343 0.0240434 0)
(-0.0585368 0.0245588 0)
(-0.0663365 0.0245409 0)
(-0.0739447 0.0239364 0)
(-0.0811683 0.0227338 0)
(-0.0878178 0.0209521 0)
(-0.0937196 0.0186456 0)
(-0.0987238 0.0158975 0)
(-0.102713 0.0127934 0)
(-0.105611 0.00944832 0)
(-0.107386 0.00596958 0)
(-0.108019 0.00246782 0)
(-0.107535 -0.000954468 0)
(-0.106014 -0.0042253 0)
(-0.103533 -0.00727851 0)
(-0.100186 -0.0100586 0)
(-0.0960793 -0.012537 0)
(-0.0913291 -0.014693 0)
(-0.0860439 -0.0165229 0)
(-0.0803338 -0.0180355 0)
(-0.0742941 -0.0192542 0)
(-0.0680127 -0.0202002 0)
(-0.0615772 -0.0209145 0)
(-0.0550466 -0.0214233 0)
(-0.0484725 -0.0217666 0)
(-0.0418957 -0.0219792 0)
(-0.0353326 -0.0221 0)
(-0.0288077 -0.0221611 0)
(-0.0223214 -0.0222082 0)
(-0.0158585 -0.0223563 0)
(-0.00943973 -0.022776 0)
(-0.00279611 -0.0202986 0)
(0.00263462 -0.0246844 0)
(0.00875644 -0.0274713 0)
(0.0146641 -0.0270373 0)
(0.0206587 -0.0270434 0)
(0.0267615 -0.0272299 0)
(0.0329901 -0.0274281 0)
(0.0393501 -0.027577 0)
(0.0458378 -0.027614 0)
(0.0524207 -0.0274849 0)
(0.0590602 -0.0271337 0)
(0.0656999 -0.0265049 0)
(0.0722643 -0.0255494 0)
(0.0786631 -0.0242167 0)
(0.0847956 -0.0224733 0)
(0.0905505 -0.0202859 0)
(0.0958034 -0.0176474 0)
(0.100422 -0.0145612 0)
(0.104271 -0.0110465 0)
(0.107232 -0.00714905 0)
(0.10919 -0.00293301 0)
(0.110025 0.00150167 0)
(0.109677 0.00606752 0)
(0.108114 0.0106157 0)
(0.105316 0.0149983 0)
(0.101326 0.0190588 0)
(0.0962419 0.0226492 0)
(0.0901984 0.0256407 0)
(0.0833712 0.0279277 0)
(0.0759807 0.0294399 0)
(0.0682504 0.030154 0)
(0.0604118 0.0301023 0)
(0.0526893 0.0293758 0)
(0.0452641 0.0281087 0)
(0.0382648 0.0264734 0)
(0.0317707 0.0246669 0)
(0.0258007 0.0228791 0)
(0.0203149 0.0212809 0)
(0.0152346 0.0200217 0)
(0.010444 0.0192138 0)
(0.00580623 0.0189293 0)
(0.00118075 0.0192055 0)
(-0.00360685 0.0200469 0)
(-0.00870129 0.0213644 0)
(-0.0142121 0.0230783 0)
(-0.0202397 0.025048 0)
(-0.0268379 0.0271133 0)
(-0.0340063 0.0290936 0)
(-0.0417024 0.0308026 0)
(-0.0498211 0.032058 0)
(-0.0582068 0.0327009 0)
(-0.0666654 0.0326201 0)
(-0.0749705 0.0317466 0)
(-0.0828865 0.0300609 0)
(-0.090184 0.0275921 0)
(-0.0966502 0.0244152 0)
(-0.102118 0.0206487 0)
(-0.106451 0.0164329 0)
(-0.10956 0.0119119 0)
(-0.111406 0.00723946 0)
(-0.111998 0.00255961 0)
(-0.11138 -0.00199935 0)
(-0.10963 -0.00632468 0)
(-0.106854 -0.0103301 0)
(-0.103165 -0.0139485 0)
(-0.0986917 -0.017144 0)
(-0.0935619 -0.0198949 0)
(-0.0879005 -0.022205 0)
(-0.0818344 -0.0240892 0)
(-0.075468 -0.0255745 0)
(-0.0688994 -0.0267075 0)
(-0.062214 -0.0275309 0)
(-0.0554721 -0.0280847 0)
(-0.0487333 -0.02843 0)
(-0.0420332 -0.0286148 0)
(-0.0353901 -0.0286902 0)
(-0.0288194 -0.0286988 0)
(-0.022316 -0.0286997 0)
(-0.0158614 -0.028847 0)
(-0.00946485 -0.0293861 0)
(-0.00283514 -0.0263333 0)
(0.00265021 -0.0302802 0)
(0.00867528 -0.0335059 0)
(0.0144878 -0.0330018 0)
(0.0204182 -0.0330902 0)
(0.0264971 -0.0334127 0)
(0.0327512 -0.0337732 0)
(0.0391991 -0.0340812 0)
(0.0458411 -0.0342594 0)
(0.0526404 -0.0342389 0)
(0.0595601 -0.0339444 0)
(0.0665382 -0.0333042 0)
(0.0734997 -0.0322583 0)
(0.0803457 -0.0307256 0)
(0.0869647 -0.0286724 0)
(0.0932316 -0.0260453 0)
(0.0990003 -0.0228276 0)
(0.104123 -0.0190208 0)
(0.108443 -0.0146452 0)
(0.111813 -0.00975049 0)
(0.114082 -0.00441608 0)
(0.115146 0.00123665 0)
(0.11489 0.00708785 0)
(0.113221 0.0129426 0)
(0.110149 0.018619 0)
(0.105721 0.0239116 0)
(0.100033 0.0286215 0)
(0.0932509 0.0325425 0)
(0.0855842 0.035536 0)
(0.0772896 0.0375005 0)
(0.0686625 0.0383974 0)
(0.060003 0.0382796 0)
(0.051585 0.0372612 0)
(0.0436366 0.0355245 0)
(0.0363252 0.0333049 0)
(0.0297393 0.030862 0)
(0.0238852 0.0284492 0)
(0.0187001 0.0263007 0)
(0.0140673 0.0246115 0)
(0.00982632 0.0235249 0)
(0.00579738 0.0231316 0)
(0.00180712 0.0234857 0)
(-0.00239458 0.02461 0)
(-0.00700035 0.0263557 0)
(-0.0121446 0.0286357 0)
(-0.0179738 0.0312584 0)
(-0.0245673 0.0340165 0)
(-0.0319422 0.0366723 0)
(-0.0400549 0.0389668 0)
(-0.0487834 0.040664 0)
(-0.0579335 0.0415547 0)
(-0.0672581 0.0414844 0)
(-0.0764797 0.0403619 0)
(-0.0853053 0.0381611 0)
(-0.0934527 0.0349313 0)
(-0.100658 0.0307867 0)
(-0.106705 0.025871 0)
(-0.11145 0.0203869 0)
(-0.114804 0.0145318 0)
(-0.116737 0.00850922 0)
(-0.117253 0.00252454 0)
(-0.11641 -0.00327342 0)
(-0.114332 -0.00873822 0)
(-0.111143 -0.0137589 0)
(-0.106984 -0.0182563 0)
(-0.102011 -0.0221888 0)
(-0.0963731 -0.0255366 0)
(-0.0902184 -0.0283107 0)
(-0.0836828 -0.0305374 0)
(-0.0768922 -0.0322526 0)
(-0.0699489 -0.0335257 0)
(-0.0629349 -0.0344044 0)
(-0.0559269 -0.034959 0)
(-0.0489853 -0.0352567 0)
(-0.0421402 -0.0353661 0)
(-0.0354006 -0.0353523 0)
(-0.0287794 -0.0352684 0)
(-0.0222664 -0.0351926 0)
(-0.0158326 -0.0353132 0)
(-0.00947593 -0.0359641 0)
(-0.0028775 -0.0324057 0)
(0.00265605 -0.0358339 0)
(0.0085336 -0.0394107 0)
(0.0141968 -0.0388554 0)
(0.0200229 -0.0390701 0)
(0.026054 -0.0395906 0)
(0.0323268 -0.0401772 0)
(0.0388734 -0.0407089 0)
(0.0456915 -0.0411046 0)
(0.0527491 -0.0412689 0)
(0.0600105 -0.0411043 0)
(0.0674041 -0.0405237 0)
(0.0748644 -0.0394411 0)
(0.0822732 -0.0377627 0)
(0.0895042 -0.035434 0)
(0.0964272 -0.0323899 0)
(0.102864 -0.0285964 0)
(0.108645 -0.0240457 0)
(0.113587 -0.0187564 0)
(0.117511 -0.0127813 0)
(0.120234 -0.00621212 0)
(0.121593 0.000819275 0)
(0.121453 0.00811622 0)
(0.11972 0.0154769 0)
(0.116364 0.0226561 0)
(0.111412 0.0293763 0)
(0.104962 0.0353615 0)
(0.0972082 0.0403614 0)
(0.0884301 0.0441466 0)
(0.0789481 0.0465854 0)
(0.069142 0.0476314 0)
(0.0593941 0.0473332 0)
(0.0500545 0.0458427 0)
(0.0414251 0.0434116 0)
(0.0337158 0.040355 0)
(0.0270244 0.037025 0)
(0.0213429 0.0337671 0)
(0.0165705 0.0308858 0)
(0.0125325 0.0286261 0)
(0.00900809 0.0271665 0)
(0.00576611 0.0266277 0)
(0.00261045 0.0270839 0)
(-0.00082489 0.0285274 0)
(-0.00479269 0.0308399 0)
(-0.00944383 0.033854 0)
(-0.0149985 0.0373382 0)
(-0.0215678 0.0410213 0)
(-0.0292004 0.0445895 0)
(-0.0378516 0.0477041 0)
(-0.0473713 0.0500479 0)
(-0.0575204 0.0513449 0)
(-0.0679861 0.0513821 0)
(-0.0784144 0.0500355 0)
(-0.0884286 0.0472782 0)
(-0.0976618 0.0431808 0)
(-0.105808 0.0379051 0)
(-0.112609 0.0316683 0)
(-0.117874 0.0247206 0)
(-0.121513 0.0173363 0)
(-0.123484 0.00977197 0)
(-0.123844 0.0022966 0)
(-0.122699 -0.00487545 0)
(-0.120166 -0.0115885 0)
(-0.116419 -0.0177012 0)
(-0.111639 -0.0231225 0)
(-0.106013 -0.0278113 0)
(-0.0997195 -0.0317517 0)
(-0.0929318 -0.0349641 0)
(-0.0858038 -0.0374891 0)
(-0.0784805 -0.0393855 0)
(-0.0710715 -0.0407312 0)
(-0.0636639 -0.0416019 0)
(-0.0563382 -0.0420921 0)
(-0.0491532 -0.0422796 0)
(-0.0421403 -0.0422538 0)
(-0.0353004 -0.0420894 0)
(-0.0286363 -0.0418681 0)
(-0.0221294 -0.0416724 0)
(-0.015742 -0.0417342 0)
(-0.00945657 -0.0424856 0)
(-0.00292008 -0.0385077 0)
(0.00264488 -0.0413038 0)
(0.00830474 -0.045124 0)
(0.0137547 -0.0445534 0)
(0.0194196 -0.0449497 0)
(0.0253634 -0.0457398 0)
(0.0316418 -0.0466305 0)
(0.0382861 -0.0474799 0)
(0.0452986 -0.0481865 0)
(0.0526611 -0.0486282 0)
(0.0603289 -0.0486848 0)
(0.0682286 -0.0482586 0)
(0.0762932 -0.0472105 0)
(0.0843897 -0.0454599 0)
(0.09238 -0.042906 0)
(0.100117 -0.0394781 0)
(0.107398 -0.0351198 0)
(0.114022 -0.0298053 0)
(0.119775 -0.0235472 0)
(0.124434 -0.0163951 0)
(0.12777 -0.00845649 0)
(0.129572 0.000119084 0)
(0.129654 0.00911754 0)
(0.127875 0.0182307 0)
(0.124172 0.0271763 0)
(0.118559 0.0355967 0)
(0.111162 0.0431043 0)
(0.102191 0.0493649 0)
(0.0919751 0.0540834 0)
(0.0809531 0.0570485 0)
(0.0696017 0.05818 0)
(0.0584158 0.0575349 0)
(0.0478692 0.0553275 0)
(0.0383539 0.0519 0)
(0.0301384 0.047674 0)
(0.0233423 0.043126 0)
(0.0179246 0.0387286 0)
(0.0137202 0.0348756 0)
(0.0104779 0.0318702 0)
(0.00790394 0.0299315 0)
(0.00571037 0.0292022 0)
(0.00361881 0.0297804 0)
(0.00120583 0.0316051 0)
(-0.00187684 0.0346427 0)
(-0.00587732 0.0386102 0)
(-0.0110468 0.043224 0)
(-0.0175602 0.0481389 0)
(-0.0255024 0.0529425 0)
(-0.0348346 0.0571917 0)
(-0.0453744 0.0604591 0)
(-0.0568193 0.0623698 0)
(-0.068774 0.0626345 0)
(-0.0807749 0.0610902 0)
(-0.0923364 0.0577155 0)
(-0.102988 0.0526165 0)
(-0.112318 0.0459981 0)
(-0.120023 0.0381755 0)
(-0.125902 0.0294876 0)
(-0.129862 0.0203021 0)
(-0.131878 0.0109811 0)
(-0.131995 0.00180418 0)
(-0.130381 -0.00692885 0)
(-0.127234 -0.0150258 0)
(-0.122746 -0.022321 0)
(-0.117158 -0.0287177 0)
(-0.110698 -0.0341776 0)
(-0.103577 -0.0386934 0)
(-0.0959998 -0.0423033 0)
(-0.088143 -0.0450696 0)
(-0.0801677 -0.047076 0)
(-0.0721938 -0.0484149 0)
(-0.0643196 -0.0491945 0)
(-0.0566254 -0.0495292 0)
(-0.0491665 -0.0495155 0)
(-0.0419674 -0.0492781 0)
(-0.0350277 -0.0488943 0)
(-0.0283373 -0.0484749 0)
(-0.0218615 -0.0481095 0)
(-0.0155607 -0.0480739 0)
(-0.0093921 -0.04891 0)
(-0.00296024 -0.0446187 0)
(0.0026064 -0.0466267 0)
(0.00795157 -0.0505667 0)
(0.0131002 -0.0500308 0)
(0.0185357 -0.0506899 0)
(0.024344 -0.0518325 0)
(0.0305978 -0.0531316 0)
(0.037335 -0.0544111 0)
(0.0445645 -0.0555398 0)
(0.0522759 -0.0563731 0)
(0.0604097 -0.056771 0)
(0.0689142 -0.0565989 0)
(0.0777053 -0.0556994 0)
(0.0866274 -0.0539636 0)
(0.0955422 -0.0512573 0)
(0.104277 -0.047496 0)
(0.112608 -0.0425939 0)
(0.120297 -0.0365028 0)
(0.127089 -0.0292192 0)
(0.132708 -0.0207881 0)
(0.136869 -0.0113217 0)
(0.139304 -0.000990357 0)
(0.139714 0.00993891 0)
(0.13794 0.0211578 0)
(0.133904 0.0322366 0)
(0.12753 0.0427156 0)
(0.11894 0.0521163 0)
(0.108416 0.0599325 0)
(0.0963619 0.065772 0)
(0.0833132 0.0693271 0)
(0.0699149 0.0704635 0)
(0.0568427 0.0692617 0)
(0.0447266 0.0660047 0)
(0.0340761 0.0611511 0)
(0.0252363 0.0552992 0)
(0.0183541 0.0490981 0)
(0.0133399 0.0431836 0)
(0.00992593 0.0380661 0)
(0.00775454 0.034111 0)
(0.00643098 0.0315711 0)
(0.005599 0.0305953 0)
(0.00488994 0.0313071 0)
(0.0038217 0.0336472 0)
(0.00192871 0.0375441 0)
(-0.00118873 0.0427136 0)
(-0.00581568 0.0488102 0)
(-0.0122067 0.0553557 0)
(-0.0205061 0.0618291 0)
(-0.0306891 0.0676291 0)
(-0.0425373 0.0721832 0)
(-0.055669 0.0749839 0)
(-0.0695655 0.0756442 0)
(-0.083607 0.0739419 0)
(-0.0971521 0.0698526 0)
(-0.109609 0.0635443 0)
(-0.120457 0.0553189 0)
(-0.129304 0.0455728 0)
(-0.135912 0.0347905 0)
(-0.140171 0.0234668 0)
(-0.142122 0.0120418 0)
(-0.141884 0.000909879 0)
(-0.139646 -0.0096052 0)
(-0.135662 -0.0192421 0)
(-0.130203 -0.0278229 0)
(-0.123578 -0.0352509 0)
(-0.116062 -0.0414849 0)
(-0.10791 -0.0465421 0)
(-0.0993633 -0.0504896 0)
(-0.0906238 -0.0534157 0)
(-0.0818656 -0.0554344 0)
(-0.073224 -0.0566626 0)
(-0.0648069 -0.0572386 0)
(-0.0566851 -0.0573044 0)
(-0.0489256 -0.0569883 0)
(-0.0415397 -0.0564377 0)
(-0.0345113 -0.0557514 0)
(-0.0278226 -0.0550542 0)
(-0.0214176 -0.0544647 0)
(-0.0152558 -0.0542851 0)
(-0.00926214 -0.0551859 0)
(-0.00299065 -0.050707 0)
(0.00252326 -0.0517138 0)
(0.00742311 -0.0556344 0)
(0.0121578 -0.0551824 0)
(0.0172818 -0.0562011 0)
(0.0228894 -0.0578255 0)
(0.0290767 -0.0596646 0)
(0.035899 -0.0615067 0)
(0.0433624 -0.063196 0)
(0.051461 -0.0645559 0)
(0.0601397 -0.0654422 0)
(0.0693456 -0.0656506 0)
(0.0789824 -0.0650321 0)
(0.0888955 -0.0634277 0)
(0.09892 -0.0606735 0)
(0.108863 -0.0566562 0)
(0.118485 -0.0512517 0)
(0.127506 -0.0443892 0)
(0.135616 -0.0360299 0)
(0.142478 -0.0262094 0)
(0.147736 -0.0150279 0)
(0.151022 -0.00267193 0)
(0.152011 0.0105681 0)
(0.150401 0.02427 0)
(0.145979 0.0379255 0)
(0.138713 0.0509456 0)
(0.128682 0.0626709 0)
(0.116182 0.0724578 0)
(0.101737 0.0796895 0)
(0.0860404 0.0839379 0)
(0.0699608 0.0849998 0)
(0.0544104 0.082962 0)
(0.0402298 0.0782036 0)
(0.0281136 0.0713594 0)
(0.0185297 0.0632623 0)
(0.0116359 0.0548185 0)
(0.00725073 0.0469099 0)
(0.00494775 0.0401642 0)
(0.00420744 0.0350191 0)
(0.00449738 0.0317147 0)
(0.00539803 0.0303751 0)
(0.00648029 0.0312666 0)
(0.00713392 0.0342948 0)
(0.00678327 0.0392888 0)
(0.00491991 0.0459638 0)
(0.00108762 0.0539134 0)
(-0.00507467 0.0626164 0)
(-0.0137684 0.0713398 0)
(-0.0250111 0.0792496 0)
(-0.0385281 0.0855848 0)
(-0.0538328 0.0896525 0)
(-0.0702526 0.0909327 0)
(-0.0869634 0.0891254 0)
(-0.103092 0.0841881 0)
(-0.117844 0.0763549 0)
(-0.130579 0.0660848 0)
(-0.140812 0.0539658 0)
(-0.148246 0.0406482 0)
(-0.15283 0.0267393 0)
(-0.154637 0.0128269 0)
(-0.153823 -0.000599445 0)
(-0.150693 -0.0131421 0)
(-0.145592 -0.0244951 0)
(-0.138878 -0.0344691 0)
(-0.130928 -0.042969 0)
(-0.122083 -0.0499625 0)
(-0.112662 -0.0555065 0)
(-0.102941 -0.0597041 0)
(-0.0931445 -0.0626797 0)
(-0.0834621 -0.0645792 0)
(-0.0740386 -0.0655627 0)
(-0.0649963 -0.0657969 0)
(-0.0564064 -0.0654561 0)
(-0.0483268 -0.0647166 0)
(-0.0407541 -0.0637275 0)
(-0.0336597 -0.0626292 0)
(-0.0270184 -0.0615663 0)
(-0.0207447 -0.0606874 0)
(-0.0147866 -0.0603179 0)
(-0.00904091 -0.0612511 0)
(-0.00300293 -0.0567337 0)
(0.00237284 -0.0564399 0)
(0.00667027 -0.0601646 0)
(0.0108518 -0.0598873 0)
(0.0155236 -0.0613931 0)
(0.020846 -0.063658 0)
(0.0269329 -0.066188 0)
(0.0338291 -0.0687669 0)
(0.0415469 -0.0711828 0)
(0.0500679 -0.0732464 0)
(0.0593621 -0.0747751 0)
(0.0693811 -0.075544 0)
(0.0799965 -0.0753596 0)
(0.0910666 -0.0740425 0)
(0.102407 -0.0713759 0)
(0.113808 -0.0672064 0)
(0.125001 -0.0613692 0)
(0.135668 -0.0537623 0)
(0.145442 -0.0442966 0)
(0.153912 -0.0329787 0)
(0.16064 -0.019883 0)
(0.165165 -0.0052058 0)
(0.166955 0.0107209 0)
(0.165629 0.0274569 0)
(0.160943 0.0443165 0)
(0.152675 0.0605208 0)
(0.140889 0.0752077 0)
(0.125915 0.0875018 0)
(0.108369 0.0965163 0)
(0.0891974 0.101614 0)
(0.0695643 0.102494 0)
(0.0507235 0.0992343 0)
(0.0338416 0.0923468 0)
(0.0198595 0.0827335 0)
(0.00939928 0.071545 0)
(0.00265326 0.0600513 0)
(-0.000751305 0.0495533 0)
(-0.00151145 0.0408116 0)
(-0.000384459 0.0342888 0)
(0.001896 0.0300408 0)
(0.00501139 0.0282208 0)
(0.00847399 0.0292442 0)
(0.0113612 0.0331317 0)
(0.012987 0.0394915 0)
(0.0127335 0.0480427 0)
(0.0100638 0.0583697 0)
(0.00440494 0.0698108 0)
(-0.00469456 0.0815517 0)
(-0.0172453 0.0923503 0)
(-0.032893 0.101154 0)
(-0.051021 0.107013 0)
(-0.0707314 0.109211 0)
(-0.0909311 0.107349 0)
(-0.110444 0.101371 0)
(-0.128179 0.0916185 0)
(-0.143263 0.078759 0)
(-0.155121 0.06364 0)
(-0.163489 0.0471282 0)
(-0.168314 0.030055 0)
(-0.169754 0.0131748 0)
(-0.168112 -0.00296446 0)
(-0.163766 -0.0178402 0)
(-0.157182 -0.0311144 0)
(-0.148843 -0.042586 0)
(-0.139215 -0.0521729 0)
(-0.128722 -0.0598882 0)
(-0.117753 -0.0658367 0)
(-0.106622 -0.0701546 0)
(-0.0955702 -0.0730303 0)
(-0.0848079 -0.0746508 0)
(-0.0744914 -0.0752182 0)
(-0.0647433 -0.0749438 0)
(-0.0556424 -0.0740349 0)
(-0.0472292 -0.0726946 0)
(-0.0394798 -0.0711248 0)
(-0.0323679 -0.0694866 0)
(-0.0258462 -0.06796 0)
(-0.0197879 -0.0666926 0)
(-0.0141087 -0.0660724 0)
(-0.00869366 -0.0670145 0)
(-0.00299019 -0.0626413 0)
(0.00214279 -0.060637 0)
(0.00560642 -0.063996 0)
(0.0090363 -0.0640155 0)
(0.0131129 -0.0661697 0)
(0.0180591 -0.069253 0)
(0.023987 -0.0726756 0)
(0.0309352 -0.0761869 0)
(0.038922 -0.0795356 0)
(0.0479165 -0.0824978 0)
(0.0579019 -0.0848555 0)
(0.0688337 -0.0863923 0)
(0.0805711 -0.0868421 0)
(0.0929829 -0.0860063 0)
(0.105879 -0.0835993 0)
(0.119016 -0.0794276 0)
(0.132102 -0.0732817 0)
(0.144784 -0.064982 0)
(0.156639 -0.0544092 0)
(0.167171 -0.0415002 0)
(0.175832 -0.0262855 0)
(0.181995 -0.00894502 0)
(0.18509 0.0101627 0)
(0.184461 0.0305113 0)
(0.179553 0.051331 0)
(0.17016 0.0716266 0)
(0.156266 0.0902237 0)
(0.138146 0.105827 0)
(0.116568 0.11723 0)
(0.0928087 0.12344 0)
(0.0684582 0.123975 0)
(0.0452365 0.118946 0)
(0.0247964 0.109069 0)
(0.00843992 0.0955625 0)
(-0.00301552 0.080019 0)
(-0.0092765 0.0644807 0)
(-0.0110595 0.0506211 0)
(-0.00960594 0.0395285 0)
(-0.0061217 0.0314533 0)
(-0.0014452 0.0261167 0)
(0.00440436 0.0234559 0)
(0.0108509 0.0246339 0)
(0.0165823 0.0296546 0)
(0.0207182 0.037672 0)
(0.022691 0.0485658 0)
(0.021633 0.0618869 0)
(0.0168259 0.0769203 0)
(0.00750073 0.0924359 0)
(-0.00662375 0.107239 0)
(-0.0249917 0.119467 0)
(-0.0467978 0.12786 0)
(-0.070836 0.131429 0)
(-0.095623 0.129579 0)
(-0.11955 0.122261 0)
(-0.141111 0.110004 0)
(-0.159154 0.0937879 0)
(-0.172988 0.0748067 0)
(-0.182333 0.054261 0)
(-0.187242 0.0332847 0)
(-0.188067 0.0127274 0)
(-0.185199 -0.00655113 0)
(-0.179155 -0.0240949 0)
(-0.170606 -0.039507 0)
(-0.160166 -0.0525709 0)
(-0.148426 -0.0632402 0)
(-0.135911 -0.071597 0)
(-0.123066 -0.0777979 0)
(-0.110249 -0.0820731 0)
(-0.0977345 -0.0846562 0)
(-0.085728 -0.0857925 0)
(-0.0743963 -0.0857374 0)
(-0.0638668 -0.0847393 0)
(-0.054203 -0.0830452 0)
(-0.0454554 -0.0809185 0)
(-0.0375789 -0.078587 0)
(-0.0305161 -0.0762658 0)
(-0.0241895 -0.0741513 0)
(-0.0184462 -0.0724056 0)
(-0.0131763 -0.0714639 0)
(-0.00820893 -0.0723946 0)
(-0.0029498 -0.0683516 0)
(0.00177879 -0.0640674 0)
(0.00411735 -0.0669037 0)
(0.00657016 -0.0673767 0)
(0.00986211 -0.070414 0)
(0.0143056 -0.0745319 0)
(0.0200238 -0.0791048 0)
(0.0270087 -0.0837735 0)
(0.0352861 -0.0882811 0)
(0.0448102 -0.0923653 0)
(0.0555454 -0.0957936 0)
(0.0674901 -0.0983132 0)
(0.0804955 -0.0996588 0)
(0.0944463 -0.0995177 0)
(0.109148 -0.0976011 0)
(0.124321 -0.0936422 0)
(0.139677 -0.087362 0)
(0.154807 -0.0785026 0)
(0.169232 -0.0668874 0)
(0.182391 -0.0523285 0)
(0.193604 -0.0347957 0)
(0.202083 -0.014413 0)
(0.206946 0.00846681 0)
(0.207398 0.0332455 0)
(0.202729 0.0590055 0)
(0.19233 0.0845401 0)
(0.175962 0.108255 0)
(0.153907 0.128319 0)
(0.127095 0.142949 0)
(0.0971788 0.150691 0)
(0.0664145 0.15073 0)
(0.0372598 0.143178 0)
(0.0120151 0.129031 0)
(-0.00749916 0.110014 0)
(-0.0198937 0.0885426 0)
(-0.0249677 0.0677571 0)
(-0.024138 0.0496885 0)
(-0.0194514 0.0358768 0)
(-0.0128097 0.0261402 0)
(-0.00517629 0.019524 0)
(0.00378017 0.0156967 0)
(0.0135418 0.0168274 0)
(0.0227863 0.0231606 0)
(0.0301776 0.0333623 0)
(0.0351036 0.047085 0)
(0.0364273 0.0641764 0)
(0.03292 0.0837456 0)
(0.0236745 0.104361 0)
(0.00799753 0.124235 0)
(-0.0138726 0.141373 0)
(-0.0404891 0.153318 0)
(-0.0702908 0.158839 0)
(-0.101233 0.157044 0)
(-0.131024 0.147895 0)
(-0.157549 0.132231 0)
(-0.179264 0.111503 0)
(-0.195366 0.0874548 0)
(-0.205654 0.0618167 0)
(-0.210418 0.0359659 0)
(-0.210094 0.0111326 0)
(-0.205377 -0.0118478 0)
(-0.197109 -0.032453 0)
(-0.185998 -0.0502283 0)
(-0.172874 -0.0649526 0)
(-0.158497 -0.0766449 0)
(-0.143499 -0.08548 0)
(-0.128414 -0.0917116 0)
(-0.113634 -0.0956926 0)
(-0.0994155 -0.0977342 0)
(-0.0859929 -0.0981243 0)
(-0.0735228 -0.0972007 0)
(-0.0621205 -0.0952302 0)
(-0.0518779 -0.0925137 0)
(-0.0428178 -0.0893569 0)
(-0.0348669 -0.0860427 0)
(-0.0279584 -0.0828621 0)
(-0.0219527 -0.0800078 0)
(-0.0166626 -0.077698 0)
(-0.0119363 -0.0763606 0)
(-0.00753459 -0.0772497 0)
(-0.00285606 -0.0737741 0)
(0.00122955 -0.066396 0)
(0.00203974 -0.068562 0)
(0.00319736 -0.0697087 0)
(0.00551197 -0.0739216 0)
(0.00933741 -0.0794057 0)
(0.0147795 -0.0854342 0)
(0.0218114 -0.0915543 0)
(0.0303972 -0.0974433 0)
(0.0404876 -0.102885 0)
(0.0520557 -0.107674 0)
(0.0650923 -0.111458 0)
(0.0795133 -0.114003 0)
(0.0952107 -0.114861 0)
(0.111945 -0.113729 0)
(0.129468 -0.110236 0)
(0.147477 -0.104064 0)
(0.165527 -0.0948683 0)
(0.183144 -0.0823443 0)
(0.199693 -0.0661471 0)
(0.214328 -0.0461274 0)
(0.226029 -0.0223005 0)
(0.233736 0.00499776 0)
(0.236229 0.0352039 0)
(0.232395 0.0672429 0)
(0.221375 0.0996167 0)
(0.202495 0.130232 0)
(0.175766 0.15647 0)
(0.142249 0.175537 0)
(0.104143 0.185211 0)
(0.0645698 0.184357 0)
(0.0270371 0.173222 0)
(-0.0050895 0.152887 0)
(-0.0288773 0.12599 0)
(-0.0420222 0.0961882 0)
(-0.0448237 0.0678585 0)
(-0.0399314 0.0445722 0)
(-0.0306995 0.0278484 0)
(-0.0200605 0.0168973 0)
(-0.00872472 0.00936066 0)
(0.0039918 0.00458824 0)
(0.0171303 0.00534992 0)
(0.0303664 0.0126441 0)
(0.0414818 0.0248869 0)
(0.0500359 0.0415953 0)
(0.0546353 0.0631393 0)
(0.0535066 0.0886037 0)
(0.0448436 0.116281 0)
(0.0275719 0.143262 0)
(0.00145172 0.166886 0)
(-0.0319169 0.18425 0)
(-0.0696816 0.192836 0)
(-0.109099 0.191473 0)
(-0.146795 0.180016 0)
(-0.179745 0.159675 0)
(-0.20589 0.132745 0)
(-0.2243 0.101926 0)
(-0.235125 0.0696645 0)
(-0.238969 0.0378444 0)
(-0.23672 0.00788669 0)
(-0.229446 -0.0194801 0)
(-0.218046 -0.0435938 0)
(-0.2035 -0.0639742 0)
(-0.186894 -0.080394 0)
(-0.16921 -0.0929603 0)
(-0.1512 -0.10202 0)
(-0.133473 -0.107984 0)
(-0.116443 -0.111317 0)
(-0.100319 -0.11248 0)
(-0.0853249 -0.111838 0)
(-0.0716121 -0.109728 0)
(-0.0592704 -0.10649 0)
(-0.0484024 -0.102463 0)
(-0.0390458 -0.0979664 0)
(-0.0311335 -0.0934279 0)
(-0.0245148 -0.0891369 0)
(-0.0189955 -0.0853739 0)
(-0.0143372 -0.0823805 0)
(-0.0103311 -0.0805947 0)
(-0.0066698 -0.0814269 0)
(-0.00272545 -0.0787916 0)
(0.000409081 -0.067142 0)
(-0.000842325 -0.0685595 0)
(-0.00135146 -0.0707157 0)
(-0.000298198 -0.076517 0)
(0.00277033 -0.0838283 0)
(0.00792432 -0.0916846 0)
(0.0150716 -0.0995695 0)
(0.0240433 -0.107087 0)
(0.0346834 -0.114132 0)
(0.0470933 -0.120541 0)
(0.0612924 -0.125959 0)
(0.0772329 -0.13001 0)
(0.0948581 -0.132205 0)
(0.113918 -0.132156 0)
(0.134176 -0.129438 0)
(0.155358 -0.123685 0)
(0.177075 -0.114464 0)
(0.19888 -0.101293 0)
(0.220047 -0.0836811 0)
(0.23955 -0.0612226 0)
(0.256072 -0.0337353 0)
(0.268139 -0.00146495 0)
(0.274151 0.0350143 0)
(0.272547 0.0748029 0)
(0.261683 0.116197 0)
(0.240122 0.156477 0)
(0.207415 0.191906 0)
(0.164833 0.218201 0)
(0.115607 0.231705 0)
(0.0643624 0.23038 0)
(0.0156492 0.21445 0)
(-0.0258373 0.185458 0)
(-0.0553913 0.147369 0)
(-0.0694181 0.10539 0)
(-0.0680382 0.0663709 0)
(-0.0562174 0.0368482 0)
(-0.0405461 0.0171552 0)
(-0.0252245 0.00474027 0)
(-0.0102389 -0.00432851 0)
(0.00603369 -0.00989375 0)
(0.0213541 -0.00933567 0)
(0.0372876 -0.000745549 0)
(0.0523349 0.0145684 0)
(0.0658712 0.0353924 0)
(0.0759576 0.0621328 0)
(0.0791849 0.0950532 0)
(0.0720197 0.131893 0)
(0.0523696 0.168832 0)
(0.0205453 0.201363 0)
(-0.0216004 0.226493 0)
(-0.0705129 0.23912 0)
(-0.121644 0.237708 0)
(-0.170264 0.221988 0)