/*--------------------------------*- C++ -*----------------------------------*\
| =========                 |                                                 |
| \\      /  F ield         | OpenFOAM: The Open Source CFD Toolbox           |
|  \\    /   O peration     | Version:  2412                                  |
|   \\  /    A nd           | Website:  www.openfoam.com                      |
|    \\/     M anipulation  |                                                 |
\*---------------------------------------------------------------------------*/
FoamFile
{
    version     2.0;
    format      ascii;
    arch        "LSB;label=32;scalar=64";
    class       surfaceScalarField;
    location    "7.55";
    object      phi;
}
// * * * * * * * * * * * * * * * * * * * * * * * * * * * * * * * * * * * * * //

dimensions      [0 3 -1 0 0 0 0];

oriented        oriented;

internalField   nonuniform List<scalar> 
12640
(
1.31522e-08
-1.19e-08
2.94867e-08
-4.8165e-08
2.25645e-08
-6.42787e-08
-1.29618e-08
-3.15925e-08
-5.69638e-08
4.38835e-08
-7.36321e-08
1.18525e-07
-3.97586e-08
1.35599e-07
3.41035e-08
6.51728e-08
1.04063e-07
-6.65939e-08
1.19096e-07
-1.84006e-07
5.72813e-08
-2.05899e-07
-5.34135e-08
-1.01192e-07
-1.47015e-07
8.20767e-08
-1.59659e-07
2.37931e-07
-7.30215e-08
2.65171e-07
6.84877e-08
1.33618e-07
1.80779e-07
-8.98162e-08
1.91189e-07
-2.75577e-07
8.58942e-08
-3.08377e-07
-7.75559e-08
-1.59821e-07
-2.02507e-07
8.96115e-08
-2.11635e-07
2.95249e-07
-9.54499e-08
3.34027e-07
7.99262e-08
1.79367e-07
2.11432e-07
-8.11265e-08
2.20895e-07
-2.96642e-07
1.02162e-07
-3.42269e-07
-7.52386e-08
-1.92484e-07
-2.07876e-07
6.48329e-08
-2.1985e-07
2.81291e-07
-1.06726e-07
3.35124e-07
6.37424e-08
2.00436e-07
1.93138e-07
-4.12194e-08
2.1011e-07
-2.51319e-07
1.09902e-07
-3.14992e-07
-4.6274e-08
-2.04101e-07
-1.69351e-07
1.19442e-08
-1.93821e-07
2.10335e-07
-1.12425e-07
2.85473e-07
2.40795e-08
2.04947e-07
1.39008e-07
2.14726e-08
1.73134e-07
-1.61801e-07
1.14663e-07
-2.49638e-07
1.08425e-09
-2.03525e-07
-1.04974e-07
-5.65023e-08
-1.5026e-07
1.09934e-07
-1.16818e-07
2.10934e-07
-2.73585e-08
2.00557e-07
6.98944e-08
9.09356e-08
1.26888e-07
-5.82288e-08
1.18539e-07
-1.71746e-07
5.2594e-08
-1.9572e-07
-3.63457e-08
-1.21927e-07
-1.04434e-07
1.0294e-08
-1.19299e-07
1.34307e-07
-7.48136e-08
1.88732e-07
6.37231e-09
1.47195e-07
8.3674e-08
3.13256e-08
1.18184e-07
-9.96636e-08
9.21041e-08
-1.78483e-07
1.83898e-08
-1.6426e-07
-6.49953e-08
-6.43589e-08
-1.14268e-07
6.8621e-08
-1.03044e-07
1.64186e-07
-3.70957e-08
1.71696e-07
4.80897e-08
8.80043e-08
1.06392e-07
-4.07452e-08
1.06556e-07
-1.44652e-07
4.96231e-08
-1.6875e-07
-3.19515e-08
-1.02831e-07
-9.315e-08
1.44797e-08
-1.02142e-07
1.19041e-07
-5.76658e-08
1.57445e-07
1.2187e-08
1.14694e-07
6.87586e-08
1.8125e-08
8.71955e-08
-8.19264e-08
7.05956e-08
-1.40733e-07
3.9958e-08
-1.39156e-07
1.24651e-08
-9.03348e-08
-2.05777e-08
-1.52182e-08
1.86639e-08
2.6289e-08
-1.80788e-08
5.99111e-08
-6.87037e-08
5.08073e-08
-8.29324e-08
-8.74887e-09
-3.46492e-08
-8.29074e-08
6.0067e-08
-1.16786e-07
1.44278e-07
-7.40939e-08
1.52914e-07
3.16391e-08
6.01385e-08
1.37929e-07
-9.29367e-08
1.70752e-07
-2.14881e-07
9.56764e-08
-2.19526e-07
-5.26276e-08
-8.59868e-08
-1.85766e-07
1.18447e-07
-2.15503e-07
2.72433e-07
-1.12523e-07
2.74227e-07
6.92752e-08
1.09168e-07
2.21564e-07
-1.33948e-07
2.47627e-07
-3.11746e-07
1.24495e-07
-3.12737e-07
-7.91517e-08
-1.28079e-07
-2.42408e-07
1.38741e-07
-2.65512e-07
3.3144e-07
-1.31687e-07
3.34418e-07
8.13629e-08
1.43125e-07
2.47871e-07
-1.32095e-07
2.69761e-07
-3.31289e-07
1.35217e-07
-3.3965e-07
-7.53716e-08
-1.54517e-07
-2.38679e-07
1.14922e-07
-2.61985e-07
3.13548e-07
-1.3633e-07
3.3109e-07
6.14413e-08
1.63772e-07
2.1671e-07
-8.78414e-08
2.44526e-07
-2.80519e-07
1.36181e-07
-3.10971e-07
-4.06254e-08
-1.71106e-07
-1.84802e-07
5.34475e-08
-2.20311e-07
2.36603e-07
-1.35877e-07
2.83202e-07
1.44158e-08
1.77799e-07
1.46099e-07
-1.36171e-08
1.92039e-07
-1.85305e-07
1.35828e-07
-2.50299e-07
1.49213e-08
-1.83369e-07
-1.04215e-07
-2.80741e-08
-1.62484e-07
1.31437e-07
-1.3632e-07
2.15685e-07
-4.5153e-08
1.88134e-07
6.23042e-08
6.91151e-08
1.33566e-07
-7.82815e-08
1.36756e-07
-1.80946e-07
7.35525e-08
-1.90702e-07
-2.34896e-08
-1.05809e-07
-1.06905e-07
2.97478e-08
-1.36408e-07
1.4811e-07
-9.77392e-08
1.90459e-07
-9.89685e-09
1.35857e-07
8.32331e-08
1.21283e-08
1.34012e-07
-1.17331e-07
1.15393e-07
-1.85408e-07
3.60368e-08
-1.5626e-07
-6.2787e-08
-4.50271e-08
-1.28314e-07
8.92229e-08
-1.24896e-07
1.7472e-07
-5.42709e-08
1.65995e-07
4.46797e-08
6.89821e-08
1.17459e-07
-6.23766e-08
1.24817e-07
-1.56467e-07
6.4904e-08
-1.64005e-07
-2.66036e-08
-8.46115e-08
-9.84359e-08
3.50597e-08
-1.14161e-07
1.29562e-07
-7.19955e-08
1.51684e-07
-1.55218e-09
9.64941e-08
6.03026e-08
-1.61745e-10
9.47476e-08
-8.52322e-08
9.85786e-08
-1.20209e-07
7.96683e-08
-1.02036e-07
-4.74308e-08
-6.32656e-08
4.11641e-08
-2.25908e-08
3.49573e-08
4.95184e-08
-2.26407e-08
1.03385e-07
-9.02529e-08
8.82971e-08
-1.149e-07
1.57285e-10
-6.18186e-08
-1.12403e-07
5.28724e-08
-1.72187e-07
1.61918e-07
-1.25144e-07
1.86645e-07
1.5856e-08
9.25738e-08
1.69802e-07
-7.82616e-08
2.35063e-07
-2.24904e-07
1.56969e-07
-2.48489e-07
-2.99346e-08
-1.18936e-07
-2.16268e-07
9.77826e-08
-2.83443e-07
2.73634e-07
-1.8015e-07
2.95943e-07
4.02443e-08
1.4034e-07
2.47856e-07
-1.08427e-07
3.14687e-07
-3.03846e-07
1.94797e-07
-3.25874e-07
-4.46824e-08
-1.55762e-07
-2.62354e-07
1.09799e-07
-3.27923e-07
3.15155e-07
-2.01461e-07
3.38839e-07
4.23946e-08
1.66485e-07
2.59845e-07
-1.00863e-07
3.24474e-07
-3.07537e-07
2.01775e-07
-3.35591e-07
-3.28602e-08
-1.72884e-07
-2.41664e-07
8.28144e-08
-3.06852e-07
2.83928e-07
-1.97691e-07
3.1961e-07
1.62342e-08
1.77145e-07
2.10214e-07
-5.59084e-08
2.78213e-07
-2.46541e-07
1.90934e-07
-2.93142e-07
6.37797e-09
-1.7941e-07
-1.69017e-07
2.30123e-08
-2.42421e-07
2.00228e-07
-1.83287e-07
2.60627e-07
-3.35578e-08
1.81458e-07
1.21705e-07
1.44139e-08
2.02851e-07
-1.4816e-07
1.75555e-07
-2.24299e-07
6.28847e-08
-1.82557e-07
-7.25104e-08
-5.25582e-08
-1.62999e-07
9.53869e-08
-1.68454e-07
1.87852e-07
-9.20841e-08
1.83365e-07
2.49817e-08
8.93291e-08
1.25212e-07
-4.47275e-08
1.61549e-07
-1.5244e-07
1.1823e-07
-1.82165e-07
1.73443e-08
-1.20838e-07
-9.14738e-08
2.09466e-10
-1.54228e-07
1.20254e-07
-1.38796e-07
1.78651e-07
-5.18848e-08
1.45263e-07
6.268e-08
3.66971e-08
1.45209e-07
-9.09341e-08
1.51329e-07
-1.7049e-07
7.67223e-08
-1.5947e-07
-3.90247e-08
-6.36397e-08
-1.331e-07
6.51965e-08
-1.54157e-07
1.5718e-07
-9.1422e-08
1.63043e-07
1.9102e-08
8.14862e-08
1.15511e-07
-4.06988e-08
1.45789e-07
-1.35889e-07
9.70328e-08
-1.54171e-07
6.15967e-10
-9.04333e-08
-8.89181e-08
1.54196e-08
-1.26745e-07
1.04042e-07
-1.00513e-07
1.31556e-07
-2.90763e-08
9.26265e-08
5.66755e-08
1.82453e-08
1.16199e-07
-4.9828e-08
1.22539e-07
-8.50772e-08
-6.63179e-08
-8.60757e-08
3.36201e-08
-8.22699e-08
7.53945e-08
-1.64142e-08
5.7754e-08
8.33169e-08
-2.38041e-08
1.47276e-07
-1.22928e-07
1.18867e-07
-1.65239e-07
-3.67729e-09
-1.02062e-07
-1.52394e-07
4.76388e-08
-2.26454e-07
1.98229e-07
-1.60698e-07
2.47237e-07
2.2264e-08
1.44843e-07
2.16261e-07
-6.41743e-08
2.94721e-07
-2.58639e-07
1.94078e-07
-3.12989e-07
-3.80926e-08
-1.79211e-07
-2.65289e-07
7.52714e-08
-3.44363e-07
3.01961e-07
-2.17016e-07
3.60054e-07
4.87222e-08
2.05247e-07
2.95867e-07
-7.819e-08
3.7342e-07
-3.24549e-07
2.3012e-07
-3.85775e-07
-5.20573e-08
-2.21925e-07
-3.06323e-07
7.31218e-08
-3.81824e-07
3.27042e-07
-2.34554e-07
3.91819e-07
4.71694e-08
2.31335e-07
2.97231e-07
-5.87838e-08
3.71606e-07
-3.09683e-07
2.32374e-07
-3.79383e-07
-3.37495e-08
-2.34019e-07
-2.70703e-07
3.67757e-08
-3.46168e-07
2.76359e-07
-2.25991e-07
3.53112e-07
1.21814e-08
2.33079e-07
2.2986e-07
-7.00487e-09
3.09355e-07
-2.29486e-07
2.17294e-07
-3.15659e-07
1.59239e-08
-2.28813e-07
-1.7911e-07
-2.72821e-08
-2.65765e-07
1.74787e-07
-2.08232e-07
2.72501e-07
-4.87119e-08
2.23811e-07
1.22762e-07
6.49662e-08
2.19192e-07
-1.15519e-07
1.99469e-07
-2.26099e-07
8.31422e-08
-2.1736e-07
-6.57564e-08
-1.01864e-07
-1.73504e-07
5.74213e-08
-1.91579e-07
1.80903e-07
-1.16448e-07
2.10686e-07
1.21032e-08
1.3615e-07
1.31152e-07
-3.27526e-09
1.83811e-07
-1.38064e-07
1.45202e-07
-2.01918e-07
3.43152e-08
-1.63565e-07
-9.40948e-08
-4.23818e-08
-1.75212e-07
1.00279e-07
-1.66492e-07
1.91153e-07
-7.07677e-08
1.8258e-07
6.30476e-08
7.83274e-08
1.64153e-07
-6.69218e-08
1.77638e-07
-1.75753e-07
9.54344e-08
-1.89753e-07
-3.7824e-08
-1.01934e-07
-1.48856e-07
3.89561e-08
-1.769e-07
1.55512e-07
-1.08243e-07
1.85124e-07
1.64814e-08
1.14761e-07
1.26703e-07
-1.3116e-08
1.63129e-07
-1.26532e-07
1.10681e-07
-1.65828e-07
3.88008e-09
-1.16205e-07
-9.65473e-08
-1.23131e-08
-1.38907e-07
8.60522e-08
-1.04823e-07
1.30249e-07
-1.24947e-08
1.07074e-07
8.17583e-08
3.68121e-08
1.19408e-07
-4.17503e-08
-6.76403e-08
-5.25175e-08
-9.47956e-09
-1.03851e-07
6.39399e-08
-9.87972e-08
1.17216e-07
-1.33425e-08
8.60807e-08
1.10868e-07
-2.82299e-08
1.88353e-07
-1.58758e-07
1.49047e-07
-2.12937e-07
-4.08994e-09
-1.34105e-07
-1.84044e-07
5.08607e-08
-2.70411e-07
2.36138e-07
-1.90641e-07
2.98673e-07
2.36304e-08
1.8026e-07
2.46992e-07
-6.52439e-08
3.35601e-07
-2.95479e-07
2.20946e-07
-3.64237e-07
-3.9741e-08
-2.15566e-07
-2.92426e-07
7.39424e-08
-3.79548e-07
3.35338e-07
-2.39775e-07
4.08288e-07
4.97828e-08
2.41049e-07
3.1749e-07
-7.38377e-08
4.01277e-07
-3.52255e-07
2.48347e-07
-4.28583e-07
-5.17501e-08
-2.55859e-07
-3.21244e-07
6.54929e-08
-4.01685e-07
3.47779e-07
-2.48493e-07
4.27898e-07
4.46892e-08
2.62932e-07
3.04814e-07
-4.73422e-08
3.83502e-07
-3.22363e-07
2.42615e-07
-4.07747e-07
-2.85407e-08
-2.62784e-07
-2.71001e-07
2.15751e-08
-3.50832e-07
2.80914e-07
-2.33425e-07
3.73824e-07
3.91704e-09
2.59187e-07
2.23459e-07
1.20346e-08
3.07939e-07
-2.2606e-07
2.22811e-07
-3.28937e-07
2.7151e-08
-2.52205e-07
-1.67143e-07
-4.95567e-08
-2.59755e-07
1.64424e-07
-2.12673e-07
2.79334e-07
-6.24827e-08
2.4483e-07
1.06686e-07
8.99167e-08
2.1013e-07
-9.93422e-08
2.03405e-07
-2.27388e-07
9.86215e-08
-2.35941e-07
-4.73101e-08
-1.28289e-07
-1.62908e-07
3.71958e-08
-1.9531e-07
1.77981e-07
-1.32516e-07
2.26942e-07
-6.89918e-09
1.62896e-07
1.20347e-07
1.93494e-08
1.87312e-07
-1.31949e-07
1.60514e-07
-2.15472e-07
5.21092e-08
-1.88962e-07
-8.41102e-08
-6.53671e-08
-1.78132e-07
9.22096e-08
-1.79589e-07
2.01773e-07
-8.57715e-08
2.05183e-07
5.45622e-08
1.0003e-07
1.65885e-07
-5.76157e-08
1.87114e-07
-1.82708e-07
1.06439e-07
-2.07774e-07
-3.10515e-08
-1.20546e-07
-1.48544e-07
2.92299e-08
-1.81467e-07
1.58262e-07
-1.14325e-07
1.97143e-07
1.16013e-08
1.28981e-07
1.23906e-07
-3.21677e-09
1.61816e-07
-1.23859e-07
1.09974e-07
-1.69352e-07
3.96168e-09
-1.22778e-07
-9.32065e-08
-1.88794e-08
-1.27403e-07
8.0865e-08
-8.19897e-08
1.2439e-07
5.345e-09
9.36084e-08
6.71474e-08
1.41985e-08
-4.22403e-08
3.22809e-08
-6.23212e-08
-5.48186e-08
-2.48606e-09
-1.34007e-07
1.04127e-07
-1.29773e-07
1.61588e-07
-1.74122e-08
1.13887e-07
1.39951e-07
-2.96825e-08
2.33888e-07
-1.89367e-07
1.83494e-07
-2.5649e-07
-1.24653e-09
-1.66469e-07
-2.1416e-07
4.74691e-08
-3.156e-07
2.62745e-07
-2.24976e-07
3.39452e-07
1.88161e-08
2.12266e-07
2.72837e-07
-5.87979e-08
3.76131e-07
-3.16308e-07
2.53197e-07
-3.99187e-07
-3.24593e-08
-2.45059e-07
-3.11917e-07
6.47635e-08
-4.13186e-07
3.49214e-07
-2.68789e-07
4.35814e-07
3.96878e-08
2.67048e-07
3.2928e-07
-6.18612e-08
4.26624e-07
-3.58338e-07
2.7343e-07
-4.47684e-07
-3.86958e-08
-2.77687e-07
-3.24759e-07
5.09881e-08
-4.18281e-07
3.46155e-07
-2.69539e-07
4.38705e-07
2.85839e-08
2.80764e-07
3.00066e-07
-3.02773e-08
3.91561e-07
-3.13272e-07
2.59817e-07
-4.1062e-07
-9.56317e-09
-2.76712e-07
-2.58668e-07
2.4724e-09
-3.5123e-07
2.65468e-07
-2.47262e-07
3.69985e-07
-1.75558e-08
2.69863e-07
2.0469e-07
3.28391e-08
3.01926e-07
-2.05387e-07
2.33782e-07
-3.19546e-07
5.04208e-08
-2.59951e-07
-1.4352e-07
-7.11577e-08
-2.4886e-07
1.40275e-07
-2.21273e-07
2.66032e-07
-8.66354e-08
2.5024e-07
8.00093e-08
1.1155e-07
1.95918e-07
-7.32942e-08
2.09947e-07
-2.1149e-07
1.2248e-07
-2.39145e-07
-1.95364e-08
-1.48717e-07
-1.46897e-07
1.11744e-08
-1.99929e-07
1.6099e-07
-1.54754e-07
2.28186e-07
-3.38236e-08
1.81074e-07
1.03888e-07
4.37793e-08
1.89942e-07
-1.14879e-07
1.7974e-07
-2.14524e-07
7.63785e-08
-2.03513e-07
-6.82891e-08
-8.6485e-08
-1.78513e-07
7.61574e-08
-1.94439e-07
1.98582e-07
-1.0583e-07
2.15121e-07
4.01709e-08
1.16681e-07
1.63647e-07
-4.30964e-08
1.96417e-07
-1.76795e-07
1.21118e-07
-2.11896e-07
-1.85676e-08
-1.31475e-07
-1.43282e-07
1.68989e-08
-1.842e-07
1.4939e-07
-1.2238e-07
1.94467e-07
2.13674e-09
1.32925e-07
1.16111e-07
6.01483e-09
1.57102e-07
-1.11829e-07
1.08819e-07
-1.57749e-07
7.46681e-09
-1.15151e-07
-8.32223e-08
-1.87902e-08
-1.1206e-07
6.9648e-08
-7.25778e-08
9.89382e-08
-1.02588e-08
6.14159e-08
2.44813e-09
1.21425e-07
-8.51538e-08
4.94057e-08
-8.51168e-08
-8.17661e-08
1.12943e-08
-1.83072e-07
1.35404e-07
-1.63889e-07
2.01818e-07
-1.81473e-08
1.44947e-07
1.7185e-07
-2.57792e-08
2.79038e-07
-2.1579e-07
2.15439e-07
-2.98759e-07
-4.0801e-10
-2.01446e-07
-2.4371e-07
3.80623e-08
-3.575e-07
2.82528e-07
-2.55192e-07
3.76391e-07
1.62162e-08
2.46219e-07
2.97249e-07
-4.48751e-08
4.12101e-07
-3.27846e-07
2.8037e-07
-4.28382e-07
-2.76285e-08
-2.76147e-07
-3.29557e-07
4.69155e-08
-4.41598e-07
3.51945e-07
-2.92253e-07
4.56168e-07
3.21452e-08
2.94326e-07
3.39072e-07
-4.04945e-08
4.46603e-07
-3.52117e-07
2.92959e-07
-4.58685e-07
-2.81403e-08
-3.00455e-07
-3.26359e-07
2.68936e-08
-4.29812e-07
3.31762e-07
-2.85407e-07
4.40922e-07
1.48356e-08
2.99113e-07
2.93712e-07
-3.9714e-09
3.95232e-07
-2.91619e-07
2.72491e-07
-4.04811e-07
7.22234e-09
-2.90638e-07
-2.45243e-07
-2.50294e-08
-3.48182e-07
2.38232e-07
-2.57371e-07
3.5766e-07
-3.69611e-08
2.79879e-07
1.85513e-07
6.07517e-08
2.93578e-07
-1.74166e-07
2.4188e-07
-3.02088e-07
7.1677e-08
-2.66273e-07
-1.20289e-07
-9.82574e-08
-2.36796e-07
1.07124e-07
-2.27811e-07
2.45193e-07
-1.08731e-07
2.53345e-07
5.45845e-08
1.36838e-07
1.81668e-07
-3.99931e-08
2.15133e-07
-1.88664e-07
1.4415e-07
-2.39122e-07
6.13664e-09
-1.70869e-07
-1.31861e-07
-2.02909e-08
-2.03743e-07
1.37697e-07
-1.74596e-07
2.25288e-07
-5.78668e-08
1.99069e-07
8.92389e-08
7.187e-08
1.92158e-07
-9.21547e-08
1.96333e-07
-2.08621e-07
9.7117e-08
-2.16128e-07
-5.49126e-08
-1.0959e-07
-1.78741e-07
5.51293e-08
-2.06461e-07
1.8981e-07
-1.21888e-07
2.21608e-07
2.86797e-08
1.33768e-07
1.6148e-07
-2.4393e-08
2.02811e-07
-1.64982e-07
1.31446e-07
-2.11351e-07
-9.48955e-09
-1.41338e-07
-1.38538e-07
1.45054e-09
-1.84084e-07
1.34694e-07
-1.25497e-07
1.86012e-07
-2.77301e-09
1.33796e-07
1.10066e-07
1.62633e-08
1.50423e-07
-9.51147e-08
1.03123e-07
-1.39931e-07
5.02699e-09
-1.03218e-07
-8.26383e-08
-1.97142e-08
-1.09067e-07
5.31622e-08
-7.51158e-08
7.53687e-08
4.27061e-08
1.5225e-07
-5.24075e-08
1.46272e-07
-1.24312e-07
3.88656e-08
-1.07697e-07
-1.22075e-07
7.66173e-09
-2.26594e-07
1.60257e-07
-1.92049e-07
2.42665e-07
-1.71613e-08
1.77957e-07
2.00413e-07
-1.88872e-08
3.17919e-07
-2.3759e-07
2.4233e-07
-3.3613e-07
5.08032e-10
-2.33975e-07
-2.66994e-07
2.66625e-08
-3.89913e-07
2.96329e-07
-2.78274e-07
4.06367e-07
1.35903e-08
2.76196e-07
3.1368e-07
-2.939e-08
4.36282e-07
-3.3284e-07
2.98837e-07
-4.49591e-07
-2.29298e-08
-3.02365e-07
-3.3818e-07
2.79247e-08
-4.5681e-07
3.48063e-07
-3.06025e-07
4.6817e-07
2.49642e-08
3.16283e-07
3.39515e-07
-1.84038e-08
4.52892e-07
-3.39614e-07
3.02406e-07
-4.61504e-07
-1.82512e-08
-3.17791e-07
-3.18948e-07
2.53257e-09
-4.27998e-07
3.11777e-07
-2.91291e-07
4.35559e-07
2.18353e-09
3.1216e-07
2.79306e-07
2.20676e-08
3.86609e-07
-2.65379e-07
2.75648e-07
-3.92366e-07
2.23314e-08
-2.99567e-07
-2.25239e-07
-5.16732e-08
-3.34415e-07
2.0762e-07
-2.58651e-07
3.39841e-07
-5.39478e-08
2.85271e-07
1.61615e-07
8.71419e-08
2.76427e-07
-1.4092e-07
2.41947e-07
-2.80393e-07
8.96382e-08
-2.68385e-07
-9.44244e-08
-1.23151e-07
-2.18e-07
7.33238e-08
-2.27117e-07
2.21364e-07
-1.26562e-07
2.52619e-07
2.86906e-08
1.59224e-07
1.62752e-07
-7.38198e-09
2.13833e-07
-1.64031e-07
1.60572e-07
-2.35621e-07
3.01967e-08
-1.89477e-07
-1.14081e-07
-4.9852e-08
-2.01729e-07
1.13658e-07
-1.88275e-07
2.19229e-07
-7.84315e-08
2.12971e-07
7.35381e-08
9.70154e-08
1.89133e-07
-6.96066e-08
2.06021e-07
-1.99878e-07
1.1284e-07
-2.2426e-07
-4.19143e-08
-1.28925e-07
-1.7432e-07
3.50698e-08
-2.11129e-07
1.78563e-07
-1.31778e-07
2.23407e-07
1.88043e-08
1.46439e-07
1.55406e-07
-7.42552e-09
2.01763e-07
-1.51222e-07
1.34689e-07
-2.06131e-07
-3.42207e-09
-1.46221e-07
-1.31101e-07
-1.13227e-08
-1.7683e-07
1.18916e-07
-1.20522e-07
1.73171e-07
-2.63572e-09
1.29102e-07
1.03486e-07
2.24025e-08
1.37538e-07
-7.95276e-08
8.68381e-08
-1.20894e-07
-1.08606e-08
-8.92446e-08
-8.6574e-08
-1.58536e-08
-9.63817e-08
4.89119e-08
5.64552e-08
9.11545e-08
2.40824e-08
1.65475e-07
-8.27776e-08
1.54222e-07
-1.70112e-07
2.86676e-08
-1.43362e-07
-1.48802e-07
2.60702e-09
-2.61874e-07
1.84002e-07
-2.17049e-07
2.79664e-07
-1.78863e-08
2.0831e-07
2.228e-07
-9.57701e-09
3.49026e-07
-2.51727e-07
2.6452e-07
-3.64288e-07
3.36096e-09
-2.61056e-07
-2.81975e-07
1.32796e-08
-4.12136e-07
3.01149e-07
-2.95474e-07
4.25014e-07
8.50506e-09
2.98899e-07
3.20215e-07
-1.26891e-08
4.48736e-07
-3.28426e-07
3.10792e-07
-4.58287e-07
-1.53719e-08
-3.20035e-07
-3.35996e-07
8.56599e-09
-4.5955e-07
3.34998e-07
-3.13053e-07
4.67333e-07
1.47749e-08
3.28993e-07
3.28983e-07
3.19237e-09
4.46732e-07
-3.18709e-07
3.05199e-07
-4.51891e-07
-5.50764e-09
-3.25656e-07
-3.01103e-07
-2.04362e-08
-4.14415e-07
2.84649e-07
-2.90814e-07
4.18769e-07
-1.28311e-08
3.15875e-07
2.55633e-07
4.57677e-08
3.67403e-07
-2.33637e-07
2.72832e-07
-3.6996e-07
3.89908e-08
-2.99583e-07
-1.97617e-07
-7.50155e-08
-3.11576e-07
1.73382e-07
-2.54339e-07
3.13803e-07
-7.13949e-08
2.82327e-07
1.32074e-07
1.09255e-07
2.51873e-07
-1.06055e-07
2.36731e-07
-2.52371e-07
1.06772e-07
-2.62841e-07
-6.50457e-08
-1.42845e-07
-1.93477e-07
3.98857e-08
-2.21343e-07
1.93091e-07
-1.42178e-07
2.44945e-07
1.40544e-09
1.75567e-07
1.39682e-07
2.30053e-08
2.07559e-07
-1.36746e-07
1.73414e-07
-2.25894e-07
5.36844e-08
-2.01356e-07
-9.35306e-08
-7.5561e-08
-1.94782e-07
8.85832e-08
-1.9715e-07
2.07676e-07
-9.67366e-08
2.19672e-07
5.62323e-08
1.16981e-07
1.8123e-07
-4.74411e-08
2.09951e-07
-1.8642e-07
1.24965e-07
-2.25001e-07
-2.8298e-08
-1.42104e-07
-1.6522e-07
1.66206e-08
-2.0946e-07
1.63477e-07
-1.37069e-07
2.17937e-07
9.2629e-09
1.52277e-07
1.45148e-07
6.76325e-09
1.94169e-07
-1.34741e-07
1.32429e-07
-1.9415e-07
1.06803e-09
-1.43823e-07
-1.20418e-07
-1.99897e-08
-1.63069e-07
1.0212e-07
-1.09147e-07
1.54885e-07
1.45863e-10
1.17284e-07
9.35622e-08
2.27814e-08
1.15639e-07
-6.65772e-08
6.00302e-08
-1.00385e-07
-2.26768e-08
-6.74033e-08
-6.77641e-08
1.9933e-10
3.8938e-08
-3.60738e-08
9.75075e-08
8.12605e-08
2.14748e-08
1.84028e-07
-1.24594e-07
1.77065e-07
-2.1247e-07
3.20819e-08
-1.69653e-07
-1.69424e-07
-2.01857e-09
-2.92538e-07
2.00248e-07
-2.38704e-07
3.07523e-07
-1.97367e-08
2.33919e-07
2.38594e-07
2.59452e-09
3.71205e-07
-2.56463e-07
2.8084e-07
-3.81471e-07
7.41134e-09
-2.81851e-07
-2.88891e-07
-2.44242e-09
-4.23971e-07
2.95904e-07
-3.06183e-07
4.31367e-07
1.95184e-09
3.1412e-07
3.18009e-07
5.81108e-09
4.50296e-07
-3.13767e-07
3.16179e-07
-4.54058e-07
-6.16377e-09
-3.29472e-07
-3.24986e-07
-1.19362e-08
-4.51586e-07
3.12136e-07
-3.13795e-07
4.53703e-07
2.93865e-09
3.33165e-07
3.10126e-07
2.51625e-08
4.30654e-07
-2.89021e-07
3.02222e-07
-4.30266e-07
8.63454e-09
-3.25022e-07
-2.75957e-07
-4.28838e-08
-3.92141e-07
2.50217e-07
-2.85175e-07
3.91241e-07
-2.87256e-08
3.11363e-07
2.26101e-07
6.79296e-08
3.41017e-07
-1.9642e-07
2.65459e-07
-3.38436e-07
5.57744e-08
-2.91803e-07
-1.65845e-07
-9.57402e-08
-2.83177e-07
1.35683e-07
-2.45981e-07
2.80428e-07
-8.80231e-08
2.72076e-07
1.00214e-07
1.27635e-07
2.23352e-07
-6.98071e-08
2.27847e-07
-2.18843e-07
1.22039e-07
-2.50512e-07
-3.51536e-08
-1.57746e-07
-1.66437e-07
7.05402e-09
-2.12134e-07
1.61056e-07
-1.54862e-07
2.31001e-07
-2.47345e-08
1.86169e-07
1.15331e-07
5.09874e-08
1.97973e-07
-1.07295e-07
1.82358e-07
-2.10426e-07
7.46316e-08
-2.06752e-07
-7.26836e-08
-9.73619e-08
-1.84591e-07
6.27355e-08
-2.01363e-07
1.90947e-07
-1.11441e-07
2.1942e-07
3.93743e-08
1.31882e-07
1.70186e-07
-2.57055e-08
2.08747e-07
-1.68457e-07
1.3278e-07
-2.18673e-07
-1.57228e-08
-1.49439e-07
-1.53244e-07
-3.50261e-10
-2.02547e-07
1.44729e-07
-1.3763e-07
2.05662e-07
1.34152e-09
1.51809e-07
1.32512e-07
1.84411e-08
1.81491e-07
-1.15768e-07
1.25154e-07
-1.76102e-07
3.37977e-09
-1.34971e-07
-1.07878e-07
-2.50067e-08
-1.44679e-07
8.46037e-08
-9.36793e-08
1.32203e-07
3.06671e-09
9.97214e-08
7.92928e-08
1.88531e-08
9.00284e-08
-5.37892e-08
4.29319e-08
-7.4165e-08
-1.04809e-08
-4.01166e-08
4.67495e-09
-1.5474e-07
1.16539e-07
-6.24439e-08
1.21846e-07
1.00277e-07
6.15896e-09
2.24357e-07
-1.45338e-07
2.02917e-07
-2.36883e-07
3.33944e-08
-1.91673e-07
-1.87216e-07
-1.18103e-08
-3.15459e-07
2.06308e-07
-2.5382e-07
3.2479e-07
-2.1715e-08
2.53661e-07
2.46799e-07
1.69607e-08
3.8255e-07
-2.51761e-07
2.89557e-07
-3.86979e-07
1.18042e-08
-2.95284e-07
-2.87491e-07
-1.94209e-08
-4.24282e-07
2.81356e-07
-3.08915e-07
4.25604e-07
-4.85838e-09
3.21322e-07
3.075e-07
2.49388e-08
4.40433e-07
-2.90276e-07
3.13684e-07
-4.37918e-07
3.13576e-09
-3.30689e-07
-3.06248e-07
-3.23958e-08
-4.32973e-07
2.81413e-07
-3.07124e-07
4.28989e-07
-8.68875e-09
3.29277e-07
2.84624e-07
4.63327e-08
4.05234e-07
-2.52873e-07
2.92526e-07
-3.98864e-07
2.20932e-08
-3.16739e-07
-2.45653e-07
-6.36895e-08
-3.62176e-07
2.11034e-07
-2.73593e-07
3.55552e-07
-4.32797e-08
2.99743e-07
1.93174e-07
8.75277e-08
3.08765e-07
-1.56355e-07
2.52903e-07
-3.00538e-07
7.04236e-08
-2.7753e-07
-1.32563e-07
-1.12971e-07
-2.50745e-07
9.70636e-08
-2.33112e-07
2.42466e-07
-1.01643e-07
2.55928e-07
6.87002e-08
1.41607e-07
1.92499e-07
-3.4495e-08
2.14998e-07
-1.82424e-07
1.33423e-07
-2.32866e-07
-7.3056e-09
-1.67431e-07
-1.3854e-07
-2.31911e-08
-1.99376e-07
1.27642e-07
-1.62873e-07
2.12281e-07
-4.73979e-08
1.90911e-07
9.13229e-08
7.50103e-08
1.85166e-07
-7.77584e-08
1.86022e-07
-1.90727e-07
9.10271e-08
-2.05892e-07
-5.30804e-08
-1.14188e-07
-1.71478e-07
3.78562e-08
-1.99961e-07
1.70568e-07
-1.20918e-07
2.12816e-07
2.44013e-08
1.41162e-07
1.56575e-07
-5.79706e-09
2.01931e-07
-1.47546e-07
1.35075e-07
-2.06264e-07
-5.50934e-09
-1.50888e-07
-1.39213e-07
-1.47806e-08
-1.90384e-07
1.2392e-07
-1.32702e-07
1.87974e-07
-3.85439e-09
1.45541e-07
1.1846e-07
2.69405e-08
1.64244e-07
-9.58939e-08
1.12899e-07
-1.53819e-07
3.12281e-09
-1.20939e-07
-9.44772e-08
-2.65203e-08
-1.23581e-07
6.7505e-08
-7.64902e-08
1.07368e-07
6.05425e-09
7.9592e-08
6.77017e-08
1.4524e-08
7.46055e-08
-3.90665e-08
4.12163e-08
-5.03067e-08
-2.41437e-08
-1.89274e-07
6.30532e-08
-1.7685e-07
1.48693e-07
-4.80712e-08
1.36624e-07
1.36127e-07
1.70664e-08
2.52016e-07
-1.50241e-07
2.16195e-07
-2.54725e-07
3.20149e-08
-2.11439e-07
-1.97645e-07
-2.48042e-08
-3.26845e-07
2.032e-07
-2.60785e-07
3.3065e-07
-2.39798e-08
2.6586e-07
2.46328e-07
3.2119e-08
3.81821e-07
-2.38084e-07
2.89838e-07
-3.80229e-07
1.63581e-08
-3.00066e-07
-2.77406e-07
-3.62358e-08
-4.12465e-07
2.5845e-07
-3.03133e-07
4.07772e-07
-1.16157e-08
3.19564e-07
2.88765e-07
4.31208e-08
4.19025e-07
-2.59463e-07
3.0301e-07
-4.10551e-07
1.20734e-08
-3.23096e-07
-2.80275e-07
-5.1128e-08
-4.04016e-07
2.44807e-07
-2.92913e-07
3.94408e-07
-1.94868e-08
3.17043e-07
2.53345e-07
6.49557e-08
3.71113e-07
-2.12594e-07
2.76087e-07
-3.59322e-07
3.40867e-08
-3.00787e-07
-2.11355e-07
-8.11164e-08
-3.25396e-07
1.69632e-07
-2.56091e-07
3.13618e-07
-5.55804e-08
2.81211e-07
1.58211e-07
1.02904e-07
2.71653e-07
-1.16033e-07
2.35196e-07
-2.58334e-07
8.19435e-08
-2.57143e-07
-9.9215e-08
-1.25205e-07
-2.15317e-07
6.00374e-08
-2.15745e-07
2.0202e-07
-1.11239e-07
2.34423e-07
3.8964e-08
1.49896e-07
1.60312e-07
-2.4325e-09
1.98182e-07
-1.4516e-07
1.39965e-07
-2.10582e-07
1.71815e-08
-1.70921e-07
-1.10685e-07
-4.88355e-08
-1.83069e-07
9.47638e-08
-1.65381e-07
1.89601e-07
-6.54646e-08
1.89164e-07
6.842e-08
9.34366e-08
1.6917e-07
-4.98707e-08
1.83781e-07
-1.6775e-07
1.0201e-07
-1.98544e-07
-3.53377e-08
-1.24834e-07
-1.55547e-07
1.54634e-08
-1.92587e-07
1.47631e-07
-1.24607e-07
2.00048e-07
1.17882e-08
1.44078e-07
1.40612e-07
1.09964e-08
1.89449e-07
-1.24918e-07
1.31609e-07
-1.88398e-07
2.02224e-09
-1.46196e-07
-1.23445e-07
-2.56484e-08
-1.73233e-07
1.02398e-07
-1.22439e-07
1.65958e-07
-6.28514e-09
1.33812e-07
1.03346e-07
3.16663e-08
1.43144e-07
-7.64714e-08
9.65253e-08
-1.28952e-07
6.89202e-10
-1.0306e-07
-8.09281e-08
-2.48985e-08
-1.01179e-07
5.19971e-08
-5.7142e-08
8.33239e-08
1.43085e-08
6.04931e-08
6.17604e-08
9.81739e-09
6.15853e-08
-3.07114e-08
-3.28673e-08
-1.15665e-07
-3.18509e-08
-1.88431e-07
8.09422e-08
-1.66347e-07
1.78701e-07
-3.06998e-08
1.64793e-07
1.49115e-07
2.95503e-08
2.6166e-07
-1.5121e-07
2.20831e-07
-2.63342e-07
3.21145e-08
-2.23617e-07
-1.98504e-07
-3.82023e-08
-3.25968e-07
1.91108e-07
-2.59536e-07
3.2392e-07
-2.66637e-08
2.69064e-07
2.37051e-07
4.70069e-08
3.68966e-07
-2.15837e-07
2.81666e-07
-3.60984e-07
2.09419e-08
-2.95495e-07
-2.58997e-07
-5.19885e-08
-3.89028e-07
2.27962e-07
-2.89184e-07
3.782e-07
-1.81554e-08
3.08529e-07
2.62566e-07
5.94324e-08
3.87097e-07
-2.22491e-07
2.84813e-07
-3.72778e-07
2.04244e-08
-3.06674e-07
-2.48181e-07
-6.71666e-08
-3.66128e-07
2.038e-07
-2.72011e-07
3.51164e-07
-2.91479e-08
2.96667e-07
2.1766e-07
8.0035e-08
3.29948e-07
-1.69889e-07
2.53845e-07
-3.13103e-07
4.42309e-08
-2.77529e-07
-1.74575e-07
-9.41762e-08
-2.83554e-07
1.27819e-07
-2.33612e-07
2.67035e-07
-6.51975e-08
2.56234e-07
1.22747e-07
1.1312e-07
2.31396e-07
-7.72543e-08
2.13222e-07
-2.13448e-07
8.99021e-08
-2.31171e-07
-6.72454e-08
-1.31607e-07
-1.78465e-07
2.62912e-08
-1.94677e-07
1.60647e-07
-1.16433e-07
2.08128e-07
1.22566e-08
1.51824e-07
1.28145e-07
2.48996e-08
1.781e-07
-1.08473e-07
1.41401e-07
-1.84263e-07
3.73324e-08
-1.67749e-07
-8.3958e-08
-6.86815e-08
-1.63833e-07
6.36587e-08
-1.623e-07
1.63607e-07
-7.82964e-08
1.80724e-07
4.74215e-08
1.05409e-07
1.50556e-07
-2.466e-08
1.75779e-07
-1.42202e-07
1.07311e-07
-1.84812e-07
-1.99767e-08
-1.28823e-07
-1.3736e-07
-3.63816e-09
-1.79644e-07
1.22915e-07
-1.22611e-07
1.81555e-07
1.79784e-09
1.40554e-07
1.2287e-07
2.41011e-08
1.71975e-07
-1.01435e-07
1.22867e-07
-1.65876e-07
6.89594e-09
-1.35736e-07
-1.06477e-07
-3.26668e-08
-1.52034e-07
8.10703e-08
-1.07786e-07
1.40805e-07
-6.39568e-09
1.17559e-07
8.75865e-08
3.27817e-08
1.19417e-07
-5.83632e-08
7.74917e-08
-1.03158e-07
-2.99012e-09
-8.30099e-08
-6.69254e-08
-2.07373e-08
-7.6694e-08
3.92225e-08
-3.4109e-08
6.17638e-08
2.12905e-08
4.10312e-08
4.71157e-08
9.676e-11
-2.21009e-08
2.07403e-08
-1.0772e-07
-9.09451e-08
-3.63093e-08
-1.80506e-07
1.06496e-07
-1.67484e-07
1.98989e-07
-3.29507e-08
1.76413e-07
1.48936e-07
3.91355e-08
2.61041e-07
-1.42176e-07
2.1923e-07
-2.58037e-07
3.33594e-08
-2.26672e-07
-1.90697e-07
-5.19846e-08
-3.13322e-07
1.69878e-07
-2.49983e-07
3.04712e-07
-2.92332e-08
2.63461e-07
2.19718e-07
6.1496e-08
3.44651e-07
-1.85679e-07
2.6527e-07
-3.30231e-07
2.50966e-08
-2.82322e-07
-2.33339e-07
-6.66201e-08
-3.55166e-07
1.90911e-07
-2.67671e-07
3.38397e-07
-2.39914e-08
2.89323e-07
2.30367e-07
7.38277e-08
3.46322e-07
-1.8066e-07
2.5997e-07
-3.26463e-07
2.7646e-08
-2.82745e-07
-2.11726e-07
-8.04521e-08
-3.21305e-07
1.59864e-07
-2.45457e-07
3.01303e-07
-3.70799e-08
2.69561e-07
1.79497e-07
9.14947e-08
2.8389e-07
-1.26285e-07
2.269e-07
-2.62286e-07
5.19183e-08
-2.48374e-07
-1.37275e-07
-1.02803e-07
-2.38804e-07
8.70545e-08
-2.0725e-07
2.17774e-07
-7.15572e-08
2.26145e-07
8.86411e-08
1.18154e-07
1.90025e-07
-4.13053e-08
1.88023e-07
-1.67631e-07
9.38184e-08
-2.00835e-07
-3.82924e-08
-1.3224e-07
-1.41996e-07
-3.15119e-09
-1.70873e-07
1.19815e-07
-1.16896e-07
1.78141e-07
-1.00973e-08
1.47591e-07
9.75116e-08
4.68065e-08
1.55643e-07
-7.35067e-08
1.37614e-07
-1.54896e-07
5.22071e-08
-1.58299e-07
-5.9548e-08
-8.24051e-08
-1.42504e-07
3.51395e-08
-1.53775e-07
1.35201e-07
-8.53796e-08
1.66196e-07
2.91855e-08
1.10988e-07
1.30129e-07
-2.62819e-09
1.62449e-07
-1.14941e-07
1.06853e-07
-1.65548e-07
-7.5368e-09
-1.26599e-07
-1.17708e-07
-1.92252e-08
-1.61864e-07
9.72703e-08
-1.15278e-07
1.58445e-07
-5.34215e-09
1.31397e-07
1.04113e-07
3.35455e-08
1.50517e-07
-7.79546e-08
1.09636e-07
-1.40073e-07
9.2572e-09
-1.20698e-07
-8.8975e-08
-3.61646e-08
-1.28056e-07
6.0743e-08
-9.00553e-08
1.14129e-07
-4.85938e-09
9.8395e-08
7.16153e-08
3.101e-08
9.45704e-08
-4.21971e-08
5.78404e-08
-7.80972e-08
-6.02151e-09
-6.24943e-08
-5.14296e-08
-1.49428e-08
-5.1803e-08
2.85557e-08
-1.79057e-08
4.07856e-08
1.43394e-08
2.10123e-08
-3.84933e-09
1.36543e-07
-1.17249e-07
5.02548e-08
-1.23626e-07
-8.92456e-08
-2.43808e-08
-1.9156e-07
1.05135e-07
-1.72473e-07
1.93902e-07
-3.48212e-08
1.79295e-07
1.43265e-07
5.21852e-08
2.49986e-07
-1.23169e-07
2.09308e-07
-2.41489e-07
3.41463e-08
-2.22313e-07
-1.74968e-07
-6.54724e-08
-2.89049e-07
1.42126e-07
-2.31891e-07
2.75997e-07
-3.11485e-08
2.50598e-07
1.95107e-07
7.46919e-08
3.09652e-07
-1.50585e-07
2.41006e-07
-2.91414e-07
2.84136e-08
-2.62469e-07
-2.01562e-07
-7.93242e-08
-3.12185e-07
1.50489e-07
-2.3928e-07
2.92168e-07
-2.8655e-08
2.6418e-07
1.93656e-07
8.56445e-08
2.98402e-07
-1.37186e-07
2.29358e-07
-2.75547e-07
3.31795e-08
-2.53724e-07
-1.72656e-07
-9.05143e-08
-2.71483e-07
1.16046e-07
-2.14209e-07
2.48681e-07
-4.26556e-08
2.38206e-07
1.40727e-07
9.91035e-08
2.3495e-07
-8.44964e-08
1.96211e-07
-2.10466e-07
5.64978e-08
-2.15791e-07
-1.01306e-07
-1.07054e-07
-1.93093e-07
4.95838e-08
-1.7791e-07
1.69036e-07
-7.40443e-08
1.93344e-07
5.76036e-08
1.18393e-07
1.4931e-07
-9.86486e-09
1.60425e-07
-1.23607e-07
9.31818e-08
-1.68427e-07
-1.38106e-08
-1.27843e-07
-1.07422e-07
-2.7224e-08
-1.45076e-07
8.17256e-08
-1.12289e-07
1.46637e-07
-2.69852e-08
1.38292e-07
6.96219e-08
6.28456e-08
1.31491e-07
-4.19408e-08
1.28501e-07
-1.24536e-07
6.10954e-08
-1.44006e-07
-3.83429e-08
-9.01545e-08
-1.19729e-07
1.03908e-08
-1.39987e-07
1.06315e-07
-8.64388e-08
1.47311e-07
1.42813e-08
1.1085e-07
1.08529e-07
1.54896e-08
1.44286e-07
-8.7767e-08
1.00799e-07
-1.42712e-07
1.71784e-09
-1.19271e-07
-9.72393e-08