/*--------------------------------*- C++ -*----------------------------------*\
| =========                 |                                                 |
| \\      /  F ield         | OpenFOAM: The Open Source CFD Toolbox           |
|  \\    /   O peration     | Version:  2412                                  |
|   \\  /    A nd           | Website:  www.openfoam.com                      |
|    \\/     M anipulation  |                                                 |
\*---------------------------------------------------------------------------*/
FoamFile
{
    version     2.0;
    format      ascii;
    arch        "LSB;label=32;scalar=64";
    class       volVectorField;
    location    "4.3";
    object      U;
}
// * * * * * * * * * * * * * * * * * * * * * * * * * * * * * * * * * * * * * //

dimensions      [0 1 -1 0 0 0 0];

internalField   nonuniform List<vector> 
6400
(
(-0.00202995 0.00194213 0)
(-0.00511566 0.00165189 0)
(-0.00739824 0.00152437 0)
(-0.00961601 0.00144284 0)
(-0.0117474 0.00137026 0)
(-0.0138237 0.00127829 0)
(-0.0158028 0.00116792 0)
(-0.0176635 0.00104082 0)
(-0.0193619 0.000905884 0)
(-0.0208573 0.000754264 0)
(-0.0221479 0.000594782 0)
(-0.0232163 0.000436787 0)
(-0.0240489 0.000285833 0)
(-0.0246819 0.000147554 0)
(-0.0251411 4.49168e-05 0)
(-0.0254505 -3.59296e-05 0)
(-0.0256568 -9.10185e-05 0)
(-0.0257963 -0.000128326 0)
(-0.0258989 -0.000143162 0)
(-0.0259876 -0.000139722 0)
(-0.0260819 -0.000129828 0)
(-0.0261842 -0.000117574 0)
(-0.0262869 -0.000108083 0)
(-0.0263753 -0.000105009 0)
(-0.0264242 -0.000115642 0)
(-0.0263926 -0.000158623 0)
(-0.0262099 -0.000227522 0)
(-0.0258499 -0.000311328 0)
(-0.0252894 -0.000406552 0)
(-0.0244954 -0.000516344 0)
(-0.023443 -0.000637141 0)
(-0.0221137 -0.000764984 0)
(-0.0204993 -0.000897261 0)
(-0.0185928 -0.0010329 0)
(-0.0163965 -0.00116695 0)
(-0.0139272 -0.00129241 0)
(-0.0112099 -0.00140407 0)
(-0.00828277 -0.00149725 0)
(-0.00519448 -0.00156466 0)
(-0.00199953 -0.00160061 0)
(0.00123654 -0.0016042 0)
(0.00444806 -0.00157712 0)
(0.00757133 -0.00151817 0)
(0.0105465 -0.00143275 0)
(0.0133249 -0.00132362 0)
(0.015863 -0.00120018 0)
(0.0181302 -0.00106649 0)
(0.0201102 -0.00092984 0)
(0.0217968 -0.000795032 0)
(0.0231926 -0.0006641 0)
(0.0243059 -0.000539546 0)
(0.0251496 -0.000423856 0)
(0.0257485 -0.000321978 0)
(0.0261319 -0.00022785 0)
(0.0263252 -0.000149126 0)
(0.0263511 -0.000102005 0)
(0.0262818 -8.22614e-05 0)
(0.0261562 -7.72547e-05 0)
(0.0260025 -7.96597e-05 0)
(0.0258405 -8.69751e-05 0)
(0.0256794 -9.59336e-05 0)
(0.0255112 -9.03211e-05 0)
(0.0253279 -7.75647e-05 0)
(0.0251125 -4.59229e-05 0)
(0.0248365 7.18988e-06 0)
(0.0244652 8.28263e-05 0)
(0.0239538 0.000178326 0)
(0.0232672 0.000305522 0)
(0.0224036 0.000454459 0)
(0.0213379 0.000600379 0)
(0.0200532 0.000747765 0)
(0.0185733 0.000890585 0)
(0.0169156 0.00102506 0)
(0.0151166 0.00114392 0)
(0.0132067 0.00123993 0)
(0.0112164 0.0013257 0)
(0.00919046 0.00139727 0)
(0.00708844 0.00147401 0)
(0.00491799 0.00160507 0)
(0.0019577 0.0018742 0)
(-0.0020522 0.00534751 0)
(-0.00444428 0.0037366 0)
(-0.00567194 0.00309166 0)
(-0.00686601 0.00294612 0)
(-0.00806557 0.00290825 0)
(-0.00933573 0.00284175 0)
(-0.010638 0.00272582 0)
(-0.0119431 0.00256376 0)
(-0.0132246 0.00235846 0)
(-0.0144443 0.00210458 0)
(-0.0155751 0.00181948 0)
(-0.0165986 0.00152279 0)
(-0.0175096 0.00123247 0)
(-0.0183126 0.000966067 0)
(-0.0190246 0.000755554 0)
(-0.0196589 0.000588174 0)
(-0.0202423 0.000474367 0)
(-0.0207789 0.000399089 0)
(-0.0212765 0.000360013 0)
(-0.0217643 0.000350242 0)
(-0.0222456 0.000347971 0)
(-0.022707 0.000334053 0)
(-0.0231355 0.000299684 0)
(-0.0235091 0.000230234 0)
(-0.0238114 0.00011536 0)
(-0.0239983 -6.39104e-05 0)
(-0.0240679 -0.000306589 0)
(-0.0239792 -0.000607215 0)
(-0.0236691 -0.000958312 0)
(-0.0231135 -0.0013561 0)
(-0.0222846 -0.00178688 0)
(-0.0211539 -0.00223824 0)
(-0.0197111 -0.00270382 0)
(-0.0179558 -0.00317175 0)
(-0.015897 -0.00362076 0)
(-0.0135617 -0.00403488 0)
(-0.0109823 -0.00439757 0)
(-0.00819947 -0.00469332 0)
(-0.00526254 -0.00490748 0)
(-0.0022246 -0.00502423 0)
(0.000850917 -0.00503608 0)
(0.00390367 -0.0049473 0)
(0.0068748 -0.00475862 0)
(0.00970708 -0.00448472 0)
(0.0123495 -0.00413554 0)
(0.0147585 -0.00373064 0)
(0.0168991 -0.00328586 0)
(0.0187426 -0.00282119 0)
(0.020271 -0.00235162 0)
(0.0214819 -0.00188899 0)
(0.0223872 -0.00144602 0)
(0.0230084 -0.00103142 0)
(0.0233784 -0.000660045 0)
(0.023511 -0.000340157 0)
(0.0234478 -7.5684e-05 0)
(0.0232706 0.000126032 0)
(0.0229783 0.000267507 0)
(0.0225907 0.000356328 0)
(0.0221373 0.000406743 0)
(0.0216411 0.000433922 0)
(0.0211296 0.000446048 0)
(0.0205945 0.000470953 0)
(0.0200294 0.000503618 0)
(0.0194514 0.000576052 0)
(0.018832 0.000682674 0)
(0.0181557 0.000834612 0)
(0.0174092 0.00103343 0)
(0.0165784 0.00127711 0)
(0.0156541 0.00155014 0)
(0.0146336 0.00181722 0)
(0.0135161 0.00207341 0)
(0.0123234 0.00230424 0)
(0.0110886 0.0024922 0)
(0.00984854 0.00262881 0)
(0.00862951 0.00271069 0)
(0.00746362 0.00275768 0)
(0.00638026 0.00278203 0)
(0.00531908 0.00291058 0)
(0.00423282 0.00355792 0)
(0.00198057 0.00513656 0)
(-0.00210817 0.00853481 0)
(-0.00426138 0.00529736 0)
(-0.0051295 0.00408062 0)
(-0.00597335 0.00387938 0)
(-0.00683935 0.00390776 0)
(-0.0078183 0.00389331 0)
(-0.00886187 0.0038082 0)
(-0.00993262 0.00363372 0)
(-0.0109883 0.00337561 0)
(-0.0119797 0.00303636 0)
(-0.0128717 0.00264861 0)
(-0.0136428 0.00224422 0)
(-0.0142924 0.00185102 0)
(-0.014833 0.00150286 0)
(-0.0152881 0.00121928 0)
(-0.015682 0.00100458 0)
(-0.0160521 0.000866119 0)
(-0.0164195 0.000793284 0)
(-0.0167978 0.00077166 0)
(-0.0172178 0.000783528 0)
(-0.0176888 0.00080576 0)
(-0.0182005 0.000805583 0)
(-0.0187388 0.00076518 0)
(-0.0192731 0.000656331 0)
(-0.0197752 0.00046904 0)
(-0.0202029 0.000202748 0)
(-0.020516 -0.000157966 0)
(-0.0206771 -0.000624711 0)
(-0.0206335 -0.00118541 0)
(-0.0203522 -0.0018252 0)
(-0.0197996 -0.00252363 0)
(-0.0189494 -0.00326458 0)
(-0.0177875 -0.00403104 0)
(-0.0163057 -0.00479071 0)
(-0.0145171 -0.0055119 0)
(-0.0124521 -0.00616677 0)
(-0.0101386 -0.00673275 0)
(-0.00761829 -0.00718839 0)
(-0.0049428 -0.00751542 0)
(-0.00216413 -0.00769434 0)
(0.000652914 -0.007716 0)
(0.00344685 -0.00758087 0)
(0.00615893 -0.00729587 0)
(0.00873114 -0.00687702 0)
(0.0111121 -0.00634071 0)
(0.0132582 -0.00570559 0)
(0.0151339 -0.00499771 0)
(0.0167112 -0.00424328 0)
(0.017972 -0.0034704 0)
(0.0189122 -0.00271014 0)
(0.0195476 -0.00198744 0)
(0.0199027 -0.00132192 0)
(0.0200084 -0.000727496 0)
(0.0198968 -0.000231236 0)
(0.0196155 0.000164009 0)
(0.0192132 0.000471677 0)
(0.0187153 0.000701525 0)
(0.0181599 0.000840454 0)
(0.0175977 0.000907779 0)
(0.0170486 0.000931221 0)
(0.0165419 0.000928157 0)
(0.0160648 0.000923117 0)
(0.0156178 0.000945061 0)
(0.0152015 0.00101388 0)
(0.0147774 0.00114001 0)
(0.0143408 0.00133273 0)
(0.0138535 0.00159798 0)
(0.0132883 0.00191735 0)
(0.0126278 0.00227372 0)
(0.0118574 0.00263972 0)
(0.0109803 0.00298644 0)
(0.0100216 0.00328188 0)
(0.00902046 0.00349916 0)
(0.00801942 0.00362961 0)
(0.00706155 0.00367054 0)
(0.00619427 0.0036379 0)
(0.00545131 0.00357641 0)
(0.00475513 0.00375219 0)
(0.00404663 0.00496404 0)
(0.0020393 0.00818647 0)
(-0.00228322 0.0118437 0)
(-0.004465 0.00675668 0)
(-0.00516156 0.00491177 0)
(-0.0058478 0.0046683 0)
(-0.00660678 0.00479808 0)
(-0.00754418 0.00489242 0)
(-0.00859919 0.00487078 0)
(-0.00971756 0.00470139 0)
(-0.0108118 0.00439183 0)
(-0.0118155 0.00395176 0)
(-0.0126815 0.00342777 0)
(-0.0133932 0.00287594 0)
(-0.013946 0.00234583 0)
(-0.0143561 0.00188591 0)
(-0.0146599 0.0015207 0)
(-0.0148972 0.0012646 0)
(-0.015124 0.00111831 0)
(-0.015366 0.00107337 0)
(-0.0156496 0.00110624 0)
(-0.0160134 0.00118681 0)
(-0.0164665 0.00128235 0)
(-0.0170049 0.00134837 0)
(-0.0176146 0.00134684 0)
(-0.0182551 0.00125301 0)
(-0.0188874 0.00103777 0)
(-0.019472 0.000688436 0)
(-0.0199615 0.00019003 0)
(-0.0202969 -0.000447757 0)
(-0.02042 -0.00122912 0)
(-0.0202947 -0.00213107 0)
(-0.0198823 -0.00312494 0)
(-0.0191534 -0.00418502 0)
(-0.01809 -0.00527994 0)
(-0.0166842 -0.00636245 0)
(-0.0149434 -0.00739549 0)
(-0.012887 -0.00833717 0)
(-0.0105427 -0.00915289 0)
(-0.0079511 -0.00981049 0)
(-0.00517019 -0.0102832 0)
(-0.00226438 -0.010541 0)
(0.000691513 -0.0105724 0)
(0.00361897 -0.0103763 0)
(0.00644257 -0.00996681 0)
(0.00909414 -0.00936207 0)
(0.0115188 -0.0085922 0)
(0.0136679 -0.00768215 0)
(0.0155077 -0.00666995 0)
(0.0170172 -0.00559142 0)
(0.018185 -0.00448799 0)
(0.019014 -0.0034049 0)
(0.0195169 -0.00237917 0)
(0.0197209 -0.00144278 0)
(0.0196638 -0.000615264 0)
(0.0193809 7.63887e-05 0)
(0.0189289 0.000628729 0)
(0.0183752 0.00103384 0)
(0.0177432 0.00129751 0)
(0.0170727 0.00144881 0)
(0.0164354 0.00149246 0)
(0.0158527 0.00145958 0)
(0.0153499 0.00139323 0)
(0.0149205 0.00131392 0)
(0.0145557 0.00128949 0)
(0.0142527 0.00132323 0)
(0.0139687 0.00144787 0)
(0.0136799 0.00167559 0)
(0.0133401 0.00200891 0)
(0.0129036 0.00243243 0)
(0.0123379 0.00291347 0)
(0.0116236 0.00341277 0)
(0.0107631 0.00387667 0)
(0.00978949 0.00425027 0)
(0.00875501 0.00449939 0)
(0.00771001 0.004615 0)
(0.00673374 0.00457226 0)
(0.00591055 0.00440875 0)
(0.00529062 0.00421903 0)
(0.00475604 0.00442603 0)
(0.00422386 0.00626667 0)
(0.00220487 0.0113378 0)
(-0.0025658 0.0154285 0)
(-0.00486639 0.00818672 0)
(-0.00534174 0.0056061 0)
(-0.00583171 0.00533479 0)
(-0.00646961 0.00565197 0)
(-0.00742039 0.00594673 0)
(-0.00859836 0.00603951 0)
(-0.00987806 0.00588176 0)
(-0.0111297 0.0054998 0)
(-0.0122552 0.00491586 0)
(-0.0131836 0.004207 0)
(-0.0138912 0.00345685 0)
(-0.0143803 0.00275152 0)
(-0.014685 0.00214653 0)
(-0.0148555 0.00168203 0)
(-0.0149486 0.0013794 0)
(-0.01504 0.00124071 0)
(-0.0151688 0.00125436 0)
(-0.0153747 0.00137531 0)
(-0.0156979 0.00157208 0)
(-0.0161528 0.00178275 0)
(-0.0167451 0.0019514 0)
(-0.0174448 0.00202885 0)
(-0.0182105 0.00197507 0)
(-0.0190048 0.00174715 0)
(-0.0197685 0.00132392 0)
(-0.0204305 0.000696292 0)
(-0.0209387 -0.00011805 0)
(-0.021231 -0.00113393 0)
(-0.0212444 -0.00231766 0)
(-0.0209393 -0.00363065 0)
(-0.0202856 -0.00503656 0)
(-0.0192576 -0.00649096 0)
(-0.0178446 -0.00793403 0)
(-0.0160544 -0.00931951 0)
(-0.0138991 -0.0105926 0)
(-0.0114056 -0.0117038 0)
(-0.00861951 -0.0126048 0)
(-0.00560463 -0.0132547 0)
(-0.00243656 -0.0136115 0)
(0.000791644 -0.0136545 0)
(0.00398431 -0.0133839 0)
(0.00705162 -0.0128209 0)
(0.00990995 -0.0119919 0)
(0.0124994 -0.0109411 0)
(0.0147655 -0.00971174 0)
(0.0166707 -0.00835239 0)
(0.018198 -0.00691437 0)
(0.0193397 -0.00545001 0)
(0.0201054 -0.00401508 0)
(0.0205114 -0.00265658 0)
(0.0205864 -0.00142457 0)
(0.0203687 -0.000348238 0)
(0.0199157 0.000537679 0)
(0.0192907 0.00123837 0)
(0.0185488 0.00173756 0)
(0.0177594 0.00202958 0)
(0.0169637 0.00215329 0)
(0.0162155 0.00214393 0)
(0.0155716 0.00201749 0)
(0.0150457 0.00184975 0)
(0.0146445 0.00166515 0)
(0.014357 0.00154557 0)
(0.0141532 0.00152303 0)
(0.0139957 0.00162871 0)
(0.0138411 0.00188756 0)
(0.0136251 0.00230718 0)
(0.0132839 0.00286348 0)
(0.0127711 0.00351071 0)
(0.0120555 0.004184 0)
(0.0111323 0.00481467 0)
(0.0100386 0.00531013 0)
(0.00885214 0.00562325 0)
(0.0076371 0.0056903 0)
(0.00653419 0.00551848 0)
(0.00570176 0.00514157 0)
(0.0052046 0.00473943 0)
(0.00488139 0.00494887 0)
(0.00457728 0.00751195 0)
(0.00246339 0.0147374 0)
(-0.00296258 0.0194139 0)
(-0.00544994 0.00954328 0)
(-0.0055839 0.00605169 0)
(-0.00572452 0.00578319 0)
(-0.00615476 0.00645497 0)
(-0.0071394 0.00708544 0)
(-0.00854602 0.00738867 0)
(-0.0101132 0.00728176 0)
(-0.0116189 0.00678951 0)
(-0.0129355 0.0059925 0)
(-0.013962 0.00501633 0)
(-0.0146678 0.00400528 0)
(-0.0150715 0.00306034 0)
(-0.0152305 0.00226167 0)
(-0.0152172 0.00167418 0)
(-0.015116 0.00132902 0)
(-0.0150189 0.00121953 0)
(-0.0149951 0.00131808 0)
(-0.0150902 0.00158429 0)
(-0.01536 0.00193752 0)
(-0.0158313 0.00231993 0)
(-0.016494 0.00264378 0)
(-0.0173191 0.00285016 0)
(-0.0182638 0.00286759 0)
(-0.0192714 0.00264897 0)
(-0.0202616 0.00216948 0)
(-0.0211474 0.00142126 0)
(-0.0218789 0.000402698 0)
(-0.0223779 -0.000872122 0)
(-0.0225597 -0.00237182 0)
(-0.0223811 -0.0040446 0)
(-0.0218066 -0.00584201 0)
(-0.0208006 -0.00769912 0)
(-0.0193562 -0.00955525 0)
(-0.0174806 -0.0113465 0)
(-0.0151798 -0.0130037 0)
(-0.0124845 -0.0144584 0)
(-0.00944649 -0.0156481 0)
(-0.00613794 -0.0165079 0)
(-0.00264774 -0.0169825 0)
(0.000913006 -0.0170404 0)
(0.00443096 -0.0166811 0)
(0.00780195 -0.0159343 0)
(0.0109274 -0.0148431 0)
(0.0137349 -0.0134636 0)
(0.0161658 -0.0118616 0)
(0.0181792 -0.0101017 0)
(0.019755 -0.00825116 0)
(0.0208883 -0.00637514 0)
(0.0215966 -0.00454154 0)
(0.0218925 -0.0028154 0)
(0.0218083 -0.00125453 0)
(0.0213926 0.000104066 0)
(0.0207193 0.00121282 0)
(0.0198695 0.00205894 0)
(0.0188983 0.00263682 0)
(0.0178848 0.00294863 0)
(0.0169131 0.00301245 0)
(0.0160302 0.0028877 0)
(0.0152956 0.0026315 0)
(0.0147415 0.00229689 0)
(0.0143649 0.00196073 0)
(0.0141753 0.00169993 0)
(0.0141167 0.00158446 0)
(0.0141256 0.00165335 0)
(0.0141516 0.0019444 0)
(0.0141092 0.00247411 0)
(0.0139022 0.00320589 0)
(0.013459 0.00408209 0)
(0.0127448 0.00500855 0)
(0.0117286 0.00587605 0)
(0.0104458 0.00656121 0)
(0.00898122 0.00695745 0)
(0.00747559 0.00695623 0)
(0.00617038 0.00656509 0)
(0.00529503 0.00581435 0)
(0.00500126 0.00503656 0)
(0.00502734 0.00522819 0)
(0.00510074 0.00869904 0)
(0.00284882 0.018528 0)
(-0.00354639 0.0240076 0)
(-0.00631133 0.0108436 0)
(-0.00588258 0.00608052 0)
(-0.00540673 0.00582811 0)
(-0.00548619 0.00713956 0)
(-0.00654873 0.00839752 0)
(-0.00831332 0.00904329 0)
(-0.0103559 0.00901678 0)
(-0.012288 0.00835811 0)
(-0.0138912 0.00724567 0)
(-0.0150389 0.00589385 0)
(-0.0157225 0.00450347 0)
(-0.0160013 0.00322346 0)
(-0.0159385 0.00217261 0)
(-0.0156456 0.00143011 0)
(-0.0152623 0.0010445 0)
(-0.014913 0.000991461 0)
(-0.0146612 0.00122293 0)
(-0.0146049 0.00169605 0)
(-0.014804 0.00228595 0)
(-0.015281 0.00290729 0)
(-0.0160435 0.00346215 0)
(-0.017043 0.00384909 0)
(-0.0182273 0.00398193 0)
(-0.0195127 0.0038064 0)
(-0.0207974 0.00328696 0)
(-0.0219881 0.00240517 0)
(-0.0230123 0.00116247 0)
(-0.0237737 -0.00039353 0)
(-0.0241748 -0.0022547 0)
(-0.0241568 -0.0043393 0)
(-0.0236794 -0.00658509 0)
(-0.0227074 -0.00890853 0)
(-0.0212324 -0.0112428 0)
(-0.0192504 -0.0135047 0)
(-0.0167686 -0.0156095 0)
(-0.0138241 -0.0174675 0)
(-0.0104752 -0.018996 0)
(-0.00680153 -0.0201036 0)
(-0.0029105 -0.0207183 0)
(0.00106553 -0.0207931 0)
(0.00498924 -0.0203289 0)
(0.00873506 -0.0193654 0)
(0.0121892 -0.0179673 0)
(0.0152679 -0.0162072 0)
(0.017903 -0.0141697 0)
(0.0200501 -0.011942 0)
(0.0216866 -0.00960997 0)
(0.0228067 -0.00725747 0)
(0.0234294 -0.00496667 0)
(0.02358 -0.00281932 0)
(0.0233033 -0.000881608 0)
(0.0226425 0.000776214 0)
(0.02168 0.00213025 0)
(0.0205267 0.003142 0)
(0.019254 0.0037985 0)
(0.0179543 0.00409743 0)
(0.0167275 0.00407397 0)
(0.0156659 0.00378 0)
(0.0148166 0.00330727 0)
(0.0142162 0.0027367 0)
(0.0138955 0.0021703 0)
(0.0138426 0.00170494 0)
(0.0139814 0.00145205 0)
(0.0142274 0.00145741 0)
(0.0145223 0.0017791 0)
(0.0147385 0.00244558 0)
(0.0147421 0.0034138 0)
(0.0144285 0.00460387 0)
(0.0137184 0.00590022 0)
(0.0125637 0.00711322 0)
(0.01099 0.00809634 0)
(0.00910893 0.00863399 0)
(0.00714344 0.008553 0)
(0.00545282 0.00779194 0)
(0.00448463 0.00638549 0)
(0.00456147 0.00493609 0)
(0.00523124 0.00504188 0)
(0.00588245 0.0097702 0)
(0.00339528 0.0228681 0)
(-0.00435017 0.029497 0)
(-0.00774958 0.0120415 0)
(-0.00659564 0.00530357 0)
(-0.00485853 0.00522299 0)
(-0.00415646 0.00766395 0)
(-0.0053875 0.0100502 0)
(-0.00782589 0.01127 0)
(-0.0106378 0.0113069 0)
(-0.0132204 0.0103489 0)
(-0.0152272 0.00875082 0)
(-0.016538 0.00683692 0)
(-0.0171815 0.00489791 0)
(-0.0172464 0.0031639 0)
(-0.0168508 0.00178038 0)
(-0.0161564 0.000843317 0)
(-0.0153686 0.000418324 0)
(-0.0146611 0.000453622 0)
(-0.0140995 0.000906682 0)
(-0.0138206 0.00166142 0)
(-0.013925 0.00259688 0)
(-0.0144182 0.00356321 0)
(-0.0153073 0.00444013 0)
(-0.0165463 0.00508388 0)
(-0.0180433 0.00540559 0)
(-0.0196902 0.0053143 0)
(-0.0213714 0.00476384 0)
(-0.0229654 0.00373546 0)
(-0.0243503 0.00224482 0)
(-0.0254442 0.000340612 0)
(-0.0261346 -0.00192504 0)
(-0.0263232 -0.00448311 0)
(-0.0259761 -0.00724363 0)
(-0.0250547 -0.0101145 0)
(-0.0235496 -0.0130044 0)
(-0.0214473 -0.0158204 0)
(-0.0187526 -0.0184541 0)
(-0.0155063 -0.0207936 0)
(-0.0117706 -0.0227242 0)
(-0.00763965 -0.0241328 0)
(-0.00324062 -0.024917 0)
(0.00126585 -0.0250117 0)
(0.00570269 -0.0244184 0)
(0.00991722 -0.0231939 0)
(0.013776 -0.0214282 0)
(0.0171841 -0.0192165 0)
(0.0200643 -0.0166657 0)
(0.0223671 -0.0138886 0)
(0.0240674 -0.0109923 0)
(0.025162 -0.0080816 0)
(0.0256768 -0.00525518 0)
(0.0256414 -0.00261304 0)
(0.0250915 -0.000238297 0)
(0.024111 0.00178004 0)
(0.0228045 0.00340604 0)
(0.0212675 0.00458681 0)
(0.0195948 0.00530099 0)
(0.0179131 0.00555195 0)
(0.0163575 0.00537857 0)
(0.015033 0.00486008 0)
(0.0140299 0.004075 0)
(0.013391 0.00316806 0)
(0.0131354 0.0022719 0)
(0.0132771 0.00151538 0)
(0.0137 0.00103149 0)
(0.014279 0.000945894 0)
(0.0149608 0.00128297 0)
(0.0155625 0.0021226 0)
(0.0158832 0.00340053 0)
(0.0157781 0.00501191 0)
(0.0150993 0.00682021 0)
(0.0137705 0.00859057 0)
(0.0117982 0.0100532 0)
(0.00926688 0.0108823 0)
(0.00652534 0.0107075 0)
(0.00414486 0.00929257 0)
(0.00299018 0.00677666 0)
(0.00379984 0.00410882 0)
(0.00575135 0.00405042 0)
(0.00723196 0.0106517 0)
(0.00417523 0.028009 0)
(-0.0055721 0.0363332 0)
(-0.0108782 0.0132996 0)
(-0.00846949 0.00341291 0)
(-0.00407877 0.00327393 0)
(-0.00184379 0.00778325 0)
(-0.00329825 0.0122103 0)
(-0.0069462 0.0144723 0)
(-0.0110536 0.014469 0)
(-0.0146186 0.0129806 0)
(-0.0171853 0.0105761 0)
(-0.0186802 0.00780746 0)
(-0.0191901 0.00509867 0)
(-0.0189083 0.00275489 0)
(-0.0180296 0.000941558 0)
(-0.0167645 -0.000224345 0)
(-0.015412 -0.000672002 0)
(-0.0141889 -0.000497115 0)
(-0.0132014 0.000278316 0)
(-0.0126356 0.00143674 0)
(-0.0125976 0.00284964 0)
(-0.013115 0.00429624 0)
(-0.0141871 0.00562556 0)
(-0.0157292 0.00665089 0)
(-0.0176354 0.00723869 0)
(-0.0197746 0.00727505 0)
(-0.0219739 0.00670359 0)
(-0.0240803 0.005518 0)
(-0.0259479 0.00374033 0)
(-0.0274505 0.00142435 0)
(-0.028479 -0.00131716 0)
(-0.0289355 -0.00443023 0)
(-0.0287572 -0.00779311 0)
(-0.0279103 -0.0113018 0)
(-0.0263803 -0.0148453 0)
(-0.0241462 -0.0183167 0)
(-0.0212056 -0.0215816 0)
(-0.0175983 -0.0245016 0)
(-0.0133919 -0.0269256 0)
(-0.00869378 -0.0287064 0)
(-0.00365054 -0.0297059 0)
(0.00153203 -0.0298236 0)
(0.0066125 -0.0290636 0)
(0.0114033 -0.0275132 0)
(0.0157547 -0.0252984 0)
(0.0195585 -0.0225426 0)
(0.0227252 -0.0193811 0)
(0.0252039 -0.0159537 0)
(0.0269724 -0.0123933 0)
(0.0280298 -0.00882725 0)
(0.0284005 -0.00537345 0)
(0.0281246 -0.00215446 0)
(0.027253 0.000722532 0)
(0.0258709 0.00317489 0)
(0.0240951 0.00512324 0)
(0.0220506 0.00649376 0)
(0.0198696 0.00726058 0)
(0.0177016 0.0074295 0)
(0.0157183 0.0070334 0)
(0.0140533 0.00616871 0)
(0.0128273 0.00496149 0)
(0.0121344 0.00358479 0)
(0.0119872 0.00221598 0)
(0.0123697 0.00105141 0)
(0.0131919 0.000236738 0)
(0.0142582 -2.10966e-05 0)
(0.0154815 0.00031865 0)
(0.0166458 0.00136895 0)
(0.0174289 0.00304562 0)
(0.0176552 0.00526014 0)
(0.0171079 0.00781905 0)
(0.0155995 0.0104202 0)
(0.0130706 0.0126694 0)
(0.00955062 0.0140041 0)
(0.00544519 0.0138381 0)
(0.00186561 0.0114237 0)
(0.00045883 0.00680864 0)
(0.00279979 0.00202799 0)
(0.00741219 0.00189768 0)
(0.0101717 0.0115747 0)
(0.00535723 0.0345125 0)
(-0.00756874 0.0460805 0)
(-0.0158659 0.0154316 0)
(-0.00955514 -0.00109481 0)
(-0.00104098 -0.00151447 0)
(0.00282495 0.00705188 0)
(0.00043931 0.0153602 0)
(-0.00552448 0.0193175 0)
(-0.011826 0.0190572 0)
(-0.0168135 0.0165125 0)
(-0.0201288 0.0128069 0)
(-0.0217498 0.00879445 0)
(-0.0219662 0.00501148 0)
(-0.0211276 0.00183855 0)
(-0.0195379 -0.000507911 0)
(-0.0174701 -0.00192786 0)
(-0.0153401 -0.00237524 0)
(-0.0134002 -0.00192903 0)
(-0.0118293 -0.00078588 0)
(-0.0108755 0.000956218 0)
(-0.0106577 0.00302629 0)
(-0.0112107 0.00514991 0)
(-0.0125072 0.00710396 0)
(-0.0144689 0.00865417 0)
(-0.0169351 0.00960152 0)
(-0.0197138 0.00982013 0)
(-0.0225827 0.00924167 0)
(-0.0253457 0.0078686 0)
(-0.0278176 0.00575065 0)
(-0.0298322 0.00296591 0)
(-0.0312831 -0.000351632 0)
(-0.0320622 -0.00412843 0)
(-0.0320873 -0.00820044 0)
(-0.0313339 -0.0124527 0)
(-0.0297859 -0.0167664 0)
(-0.0274116 -0.0210108 0)
(-0.0241968 -0.025036 0)
(-0.020174 -0.0286661 0)
(-0.0154085 -0.0317074 0)
(-0.0100191 -0.0339616 0)
(-0.00416239 -0.0352393 0)
(0.00189535 -0.0353812 0)
(0.0077813 -0.0343909 0)
(0.0132644 -0.0324251 0)
(0.0181938 -0.029656 0)
(0.0224571 -0.0262402 0)
(0.0259541 -0.0223495 0)
(0.028631 -0.0181482 0)
(0.0304685 -0.0138026 0)
(0.0314713 -0.0094656 0)
(0.0316644 -0.00527686 0)
(0.0310873 -0.00137388 0)
(0.029812 0.00210081 0)
(0.0279441 0.00505884 0)
(0.0255932 0.00738528 0)
(0.0229075 0.00899015 0)
(0.0200656 0.00981781 0)
(0.0172491 0.00985791 0)
(0.0146779 0.00915162 0)
(0.0125577 0.00780501 0)
(0.011059 0.00600627 0)
(0.0102862 0.00397332 0)
(0.0102769 0.00193846 0)
(0.0110014 0.000194299 0)
(0.0123513 -0.00104682 0)
(0.0140963 -0.00154047 0)
(0.0160997 -0.00122054 0)
(0.0180529 1.73978e-05 0)
(0.0195457 0.00219889 0)
(0.0203273 0.00522222 0)
(0.020035 0.00883815 0)
(0.0183874 0.0126621 0)
(0.0151255 0.0161767 0)
(0.0101752 0.0185365 0)
(0.00392932 0.0186465 0)
(-0.00201188 0.0145767 0)
(-0.00446548 0.00604531 0)
(-0.000694819 -0.00286958 0)
(0.00792173 -0.00304383 0)
(0.014876 0.0131647 0)
(0.00735656 0.0437456 0)
(-0.0106685 0.0588823 0)
(-0.0147632 0.0153427 0)
(0.00487403 -0.0112114 0)
(0.0169029 -0.00917605 0)
(0.0162667 0.00670918 0)
(0.00775541 0.0210921 0)
(-0.00354971 0.0270532 0)
(-0.0135335 0.0258755 0)
(-0.0204786 0.0211937 0)
(-0.0245658 0.0154431 0)
(-0.0261565 0.0096362 0)
(-0.0258267 0.00438561 0)
(-0.024105 0.000155205 0)
(-0.0214613 -0.00286009 0)
(-0.0182877 -0.00456635 0)
(-0.0150531 -0.00495624 0)
(-0.0122076 -0.00416695 0)
(-0.00987877 -0.00237855 0)
(-0.00833884 0.000145819 0)
(-0.00787712 0.00310998 0)
(-0.00847354 0.00617248 0)
(-0.0100919 0.00897776 0)
(-0.0126155 0.0112294 0)
(-0.0158238 0.0126695 0)
(-0.0194469 0.0131357 0)
(-0.0231912 0.012558 0)
(-0.0267892 0.0109489 0)
(-0.0300138 0.00838511 0)
(-0.0326581 0.00500517 0)
(-0.0346213 0.000973037 0)
(-0.0357757 -0.00354364 0)
(-0.036023 -0.00843564 0)
(-0.0353813 -0.0135547 0)
(-0.0338225 -0.0187668 0)
(-0.0313078 -0.0239248 0)
(-0.0278111 -0.0288599 0)
(-0.023338 -0.033357 0)
(-0.0179346 -0.0371735 0)
(-0.0117011 -0.040057 0)
(-0.00479342 -0.0417237 0)
(0.00241697 -0.0418841 0)
(0.00932173 -0.040544 0)
(0.0156196 -0.0380273 0)
(0.0211967 -0.0345742 0)
(0.0259611 -0.0303655 0)
(0.0298188 -0.0256046 0)
(0.0327153 -0.0204882 0)
(0.0346276 -0.0152144 0)
(0.0355642 -0.0099625 0)
(0.0355509 -0.00490276 0)
(0.034619 -0.000186175 0)
(0.0328616 0.00399662 0)
(0.0303892 0.00755449 0)
(0.0273143 0.0103521 0)
(0.023818 0.0122525 0)
(0.0201143 0.0131466 0)
(0.0164503 0.0130053 0)
(0.0131082 0.0118769 0)
(0.0103766 0.00988713 0)
(0.0084969 0.007269 0)
(0.00760972 0.00431876 0)
(0.00779326 0.0013759 0)
(0.00901145 -0.0012054 0)
(0.0111252 -0.00308017 0)
(0.0137867 -0.00397528 0)
(0.0167701 -0.00373969 0)
(0.0198167 -0.00223501 0)
(0.0223985 0.000584499 0)
(0.0240643 0.00464244 0)
(0.0243136 0.00969375 0)
(0.0226828 0.0153309 0)
(0.0186495 0.0209103 0)
(0.0118003 0.0253231 0)
(0.00189327 0.026344 0)
(-0.00942435 0.0203466 0)
(-0.0182032 0.00590824 0)
(-0.019356 -0.0104502 0)
(-0.00738163 -0.0135089 0)
(0.013085 0.0121731 0)
(0.0103676 0.0557059 0)
(-0.0130752 0.0680958 0)
(0.0137255 0.00142815 0)
(0.0514178 -0.0279602 0)
(0.0628946 -0.0113528 0)
(0.0481324 0.0180827 0)
(0.022451 0.0369857 0)
(-0.0012561 0.0411442 0)
(-0.0175601 0.0361131 0)
(-0.0268589 0.0274489 0)
(-0.0313613 0.0183929 0)
(-0.0325411 0.00997625 0)
(-0.0311989 0.00288315 0)
(-0.0281445 -0.0026716 0)
(-0.0240356 -0.00652654 0)
(-0.0193288 -0.008576 0)
(-0.0146625 -0.00884958 0)
(-0.0104675 -0.00747639 0)
(-0.0070677 -0.00479805 0)
(-0.00485855 -0.0011488 0)
(-0.00402427 0.00306388 0)
(-0.00466654 0.00740469 0)
(-0.00671736 0.0113746 0)
(-0.00999424 0.0145762 0)
(-0.0141963 0.0166747 0)
(-0.0189372 0.0174709 0)
(-0.0238239 0.0168821 0)
(-0.028513 0.0149512 0)
(-0.0326858 0.0118377 0)
(-0.0360894 0.00771815 0)
(-0.038585 0.00281428 0)
(-0.0401185 -0.00262537 0)
(-0.0406396 -0.00848296 0)
(-0.0401173 -0.0145994 0)
(-0.038558 -0.020836 0)
(-0.0359262 -0.0270508 0)
(-0.0321663 -0.0330564 0)
(-0.0272303 -0.0386115 0)
(-0.0211032 -0.0434367 0)
(-0.0138279 -0.0472086 0)
(-0.00556493 -0.0494649 0)
(0.00313339 -0.0496144 0)
(0.0113329 -0.0477045 0)
(0.0186055 -0.0444065 0)
(0.0248999 -0.040085 0)
(0.0301896 -0.0349375 0)
(0.0344138 -0.0291597 0)
(0.0375375 -0.0229839 0)
(0.0395373 -0.0166358 0)
(0.0404089 -0.0103237 0)
(0.0401728 -0.00424383 0)
(0.0388258 0.00140471 0)
(0.0364846 0.00649948 0)
(0.0333092 0.0108114 0)
(0.0293667 0.0142052 0)
(0.0248345 0.0164793 0)
(0.0200017 0.017474 0)
(0.0152138 0.0171152 0)
(0.010846 0.0154261 0)
(0.00728956 0.0125654 0)
(0.00488904 0.008833 0)
(0.00386009 0.0046225 0)
(0.00429156 0.000436788 0)
(0.00616412 -0.00326918 0)
(0.00929179 -0.00605687 0)
(0.0132353 -0.00765875 0)
(0.0176942 -0.00763333 0)
(0.0222639 -0.00580844 0)
(0.0263212 -0.00219236 0)
(0.029322 0.00316215 0)
(0.0305785 0.0100848 0)
(0.0294065 0.0182819 0)
(0.0248785 0.0271656 0)
(0.0156651 0.0354754 0)
(-0.000338016 0.040332 0)
(-0.0240685 0.0364621 0)
(-0.0504753 0.0180747 0)
(-0.0659575 -0.0120287 0)
(-0.0544583 -0.0307498 0)
(-0.0161262 -0.00298255 0)
(0.0125957 0.0635577 0)
(-0.00186782 0.0601639 0)
(0.0627633 -0.0432226 0)
(0.103676 -0.059569 0)
(0.109648 -0.00706879 0)
(0.0809867 0.0478223 0)
(0.0352049 0.0708774 0)
(-0.00373424 0.0662953 0)
(-0.0269415 0.0509745 0)
(-0.0379243 0.0350319 0)
(-0.0419056 0.0210071 0)
(-0.0416438 0.00929832 0)
(-0.0385071 -7.71779e-05 0)
(-0.0336162 -0.00721157 0)
(-0.0275156 -0.0120428 0)
(-0.0207536 -0.014444 0)
(-0.0140321 -0.0145011 0)
(-0.00808347 -0.0122071 0)
(-0.00331666 -0.00829283 0)
(-8.71159e-05 -0.00307651 0)
(0.00122849 0.00280005 0)
(0.000533782 0.00888905 0)
(-0.00210273 0.014452 0)
(-0.00639668 0.0189582 0)
(-0.0119281 0.0219323 0)
(-0.0181645 0.0231344 0)
(-0.0245571 0.022486 0)
(-0.03059 0.020102 0)
(-0.0358939 0.0162403 0)
(-0.040194 0.0111852 0)
(-0.0433214 0.00524405 0)
(-0.04526 -0.00133451 0)
(-0.0460158 -0.00832994 0)
(-0.045611 -0.015575 0)
(-0.0440692 -0.022951 0)
(-0.0413338 -0.0303518 0)
(-0.0372768 -0.037621 0)
(-0.0317669 -0.0445072 0)
(-0.0247348 -0.050698 0)
(-0.0162152 -0.0557427 0)
(-0.00643511 -0.0588598 0)
(0.00385971 -0.0589556 0)
(0.0135186 -0.0561691 0)
(0.021968 -0.051736 0)
(0.0291552 -0.0462628 0)
(0.035101 -0.0399734 0)
(0.0397759 -0.0330203 0)
(0.0431635 -0.0256358 0)
(0.0452537 -0.0180532 0)
(0.0460411 -0.0105017 0)
(0.0455217 -0.00320961 0)
(0.0437749 0.00356788 0)
(0.0408443 0.00971231 0)
(0.036818 0.0149941 0)
(0.0318226 0.0191573 0)
(0.0260105 0.0219551 0)
(0.0197374 0.0231253 0)
(0.0134595 0.0225003 0)
(0.00770697 0.0200676 0)
(0.00303674 0.0160334 0)
(-7.44191e-05 0.0107451 0)
(-0.00127561 0.0047945 0)
(-0.000435238 -0.00106515 0)
(0.00234027 -0.00641071 0)
(0.00673611 -0.0104976 0)
(0.0123779 -0.0130055 0)
(0.0188737 -0.0132871 0)
(0.0255451 -0.0112271 0)
(0.0316371 -0.00666 0)
(0.0365504 0.000180159 0)
(0.0395689 0.00940672 0)
(0.0398013 0.0208913 0)
(0.0357788 0.034628 0)
(0.024921 0.0501297 0)
(0.0022073 0.0652674 0)
(-0.0368213 0.0707585 0)
(-0.0835903 0.0487748 0)
(-0.112661 -0.00753434 0)
(-0.106173 -0.0632508 0)
(-0.0648842 -0.0488955 0)
(0.000627165 0.0541518 0)
(0.0309145 0.00810473 0)
(0.078422 -0.108914 0)
(0.0960573 -0.0873763 0)
(0.089319 0.00710233 0)
(0.0574188 0.0857143 0)
(0.0123548 0.113822 0)
(-0.0254528 0.0993529 0)
(-0.0471202 0.069533 0)
(-0.0557718 0.0426054 0)
(-0.056729 0.0222225 0)
(-0.0532358 0.0070231 0)
(-0.0471303 -0.00468489 0)
(-0.0394876 -0.0136252 0)
(-0.0307422 -0.0196668 0)
(-0.0213483 -0.0224143 0)
(-0.0120407 -0.0220127 0)
(-0.00378825 -0.0186979 0)
(0.00261117 -0.0130098 0)
(0.00690178 -0.00577819 0)
(0.00879599 0.00231183 0)
(0.00805167 0.0106043 0)
(0.00460004 0.0183806 0)
(-0.00112425 0.0246862 0)
(-0.00851685 0.0288297 0)
(-0.0167623 0.0305168 0)
(-0.0250797 0.0297185 0)
(-0.0327548 0.026665 0)
(-0.0392967 0.0217301 0)
(-0.0444516 0.0154256 0)
(-0.0481958 0.00815157 0)
(-0.0506146 0.000227665 0)
(-0.0517295 -0.00807411 0)
(-0.0515337 -0.016559 0)
(-0.049997 -0.0251857 0)
(-0.0469764 -0.0339593 0)
(-0.0422631 -0.0427897 0)
(-0.0357614 -0.0513563 0)
(-0.0275838 -0.0592246 0)
(-0.0179543 -0.065782 0)
(-0.0071769 -0.0698853 0)
(0.00404741 -0.0699313 0)
(0.0147557 -0.0661261 0)
(0.0243396 -0.0603116 0)
(0.032673 -0.0534329 0)
(0.0397012 -0.0457467 0)
(0.0452706 -0.0373822 0)
(0.0492211 -0.0285799 0)
(0.0514732 -0.0195799 0)
(0.0520453 -0.0105963 0)
(0.0510293 -0.0018649 0)
(0.0486413 0.00631024 0)
(0.0450714 0.0136935 0)
(0.0402998 0.0201719 0)
(0.0342613 0.0254072 0)
(0.027029 0.0289901 0)
(0.0189568 0.0304826 0)
(0.010686 0.0295622 0)
(0.00302934 0.0261417 0)
(-0.0032297 0.0204809 0)
(-0.00734954 0.0130405 0)
(-0.00872876 0.00483502 0)
(-0.0074822 -0.00323602 0)
(-0.00367658 -0.0106245 0)
(0.00241118 -0.0165252 0)
(0.0102581 -0.0202234 0)
(0.0192608 -0.0210579 0)
(0.0286063 -0.018757 0)
(0.0373597 -0.0130869 0)
(0.0450161 -0.00436747 0)
(0.0510507 0.00727819 0)
(0.0544345 0.0222405 0)
(0.0533341 0.0421474 0)
(0.0446116 0.0684676 0)
(0.0231952 0.0982159 0)
(-0.0149149 0.114141 0)
(-0.0608066 0.0871509 0)
(-0.0925596 0.00680255 0)
(-0.0982111 -0.091455 0)
(-0.0798031 -0.11508 0)
(-0.03223 -4.19787e-05 0)
(0.0354725 -0.0526572 0)
(0.0179421 -0.128703 0)
(0.000751157 -0.066374 0)
(-0.0209492 0.0421487 0)
(-0.0425834 0.121236 0)
(-0.0622229 0.1451 0)
(-0.0771435 0.121716 0)
(-0.082599 0.0808517 0)
(-0.0806092 0.0443864 0)
(-0.07375 0.0175747 0)
(-0.064143 -0.00116178 0)
(-0.0534538 -0.0143515 0)