/*--------------------------------*- C++ -*----------------------------------*\
| =========                 |                                                 |
| \\      /  F ield         | OpenFOAM: The Open Source CFD Toolbox           |
|  \\    /   O peration     | Version:  2412                                  |
|   \\  /    A nd           | Website:  www.openfoam.com                      |
|    \\/     M anipulation  |                                                 |
\*---------------------------------------------------------------------------*/
FoamFile
{
    version     2.0;
    format      ascii;
    arch        "LSB;label=32;scalar=64";
    class       surfaceScalarField;
    location    "6.45";
    object      phi;
}
// * * * * * * * * * * * * * * * * * * * * * * * * * * * * * * * * * * * * * //

dimensions      [0 3 -1 0 0 0 0];

oriented        oriented;

internalField   nonuniform List<scalar> 
12640
(
-5.28833e-09
5.28725e-09
-6.18832e-09
1.7637e-09
1.79549e-09
-7.18502e-09
1.98262e-08
-1.72949e-08
4.75614e-08
-2.70323e-08
8.41766e-08
-3.59445e-08
1.28784e-07
-4.39697e-08
1.80583e-07
-5.11922e-08
2.38894e-07
-5.77357e-08
3.03157e-07
-6.3718e-08
3.7291e-07
-6.92355e-08
4.4776e-07
-7.43586e-08
5.2736e-07
-7.91309e-08
6.11377e-07
-8.35688e-08
6.99468e-07
-8.76608e-08
7.91245e-07
-9.13652e-08
8.86246e-07
-9.46072e-08
9.83893e-07
-9.7275e-08
1.08345e-06
-9.92149e-08
1.184e-06
-1.00229e-07
1.28435e-06
-1.0007e-07
1.38303e-06
-9.84441e-08
1.47822e-06
-9.50085e-08
1.56774e-06
-8.93818e-08
1.64897e-06
-8.11551e-08
1.7189e-06
-6.99153e-08
1.77412e-06
-5.52753e-08
1.81091e-06
-3.69196e-08
1.82536e-06
-1.46568e-08
1.81356e-06
1.15164e-08
1.77184e-06
4.13529e-08
1.69709e-06
7.42971e-08
1.5871e-06
1.09452e-07
1.44092e-06
1.45573e-07
1.25912e-06
1.81117e-07
1.04405e-06
2.14326e-07
7.99886e-07
2.43373e-07
5.32528e-07
2.66521e-07
2.49353e-07
2.82308e-07
-4.12294e-08
2.89695e-07
-3.30317e-07
2.8819e-07
-6.09118e-07
2.779e-07
-8.69536e-07
2.59522e-07
-1.10467e-06
2.3426e-07
-1.30922e-06
2.03693e-07
-1.47962e-06
1.69607e-07
-1.61415e-06
1.33816e-07
-1.71279e-06
9.80065e-08
-1.77695e-06
6.362e-08
-1.80917e-06
3.17725e-08
-1.81277e-06
3.23455e-09
-1.79152e-06
-2.15533e-08
-1.74936e-06
-4.24252e-08
-1.69012e-06
-5.94511e-08
-1.61742e-06
-7.28717e-08
-1.53451e-06
-8.30258e-08
-1.44426e-06
-9.0306e-08
-1.34911e-06
-9.51259e-08
-1.25113e-06
-9.78899e-08
-1.15201e-06
-9.89737e-08
-1.0531e-06
-9.87042e-08
-9.55498e-07
-9.73575e-08
-8.60061e-07
-9.51631e-08
-7.67451e-07
-9.23098e-08
-6.78186e-07
-8.89427e-08
-5.92672e-07
-8.51672e-08
-5.11246e-07
-8.1052e-08
-4.3421e-07
-7.66355e-08
-3.61849e-07
-7.19288e-08
-2.94468e-07
-6.69174e-08
-2.32411e-07
-6.15596e-08
-1.76092e-07
-5.57867e-08
-1.26021e-07
-4.95019e-08
-8.28288e-08
-4.25853e-08
-4.7276e-08
-3.49084e-08
-2.02191e-08
-2.63761e-08
-2.48003e-09
-1.70254e-08
5.50841e-09
-7.24954e-09
4.69225e-09
1.56441e-09
5.36654e-09
-9.16155e-10
6.93159e-09
1.20525e-08
-9.6946e-09
4.61454e-08
-3.98722e-08
1.03727e-07
-7.35409e-08
1.84646e-07
-1.06645e-07
2.87647e-07
-1.37667e-07
4.11121e-07
-1.66198e-07
5.53449e-07
-1.92315e-07
7.13141e-07
-2.16269e-07
8.88872e-07
-2.38343e-07
1.07946e-06
-2.58782e-07
1.28385e-06
-2.77764e-07
1.50103e-06
-2.9539e-07
1.72998e-06
-3.11674e-07
1.96963e-06
-3.26536e-07
2.21875e-06
-3.39789e-07
2.47588e-06
-3.5113e-07
2.73926e-06
-3.60126e-07
3.00668e-06
-3.662e-07
3.27541e-06
-3.68621e-07
3.54207e-06
-3.66494e-07
3.80252e-06
-3.58764e-07
4.05175e-06
-3.44223e-07
4.28382e-06
-3.21539e-07
4.49177e-06
-2.89306e-07
4.66766e-06
-2.46121e-07
4.80265e-06
-1.907e-07
4.88722e-06
-1.2203e-07
4.91147e-06
-3.95544e-08
4.86562e-06
5.66139e-08
4.74064e-06
1.65476e-07
4.52903e-06
2.84965e-07
4.22562e-06
4.11825e-07
3.82846e-06
5.41622e-07
3.3395e-06
6.68889e-07
2.76513e-06
7.87459e-07
2.11629e-06
8.90933e-07
1.40823e-06
9.7326e-07
6.59851e-07
1.02934e-06
-1.07397e-07
1.05558e-06
-8.70841e-07
1.05026e-06
-1.60808e-06
1.01376e-06
-2.29843e-06
9.48503e-07
-2.92418e-06
8.58668e-07
-3.47154e-06
7.49749e-07
-3.93114e-06
6.27974e-07
-4.29817e-06
4.99697e-07
-4.57207e-06
3.70857e-07
-4.75595e-06
2.46563e-07
-4.85584e-06
1.30832e-07
-4.87982e-06
2.64849e-08
-4.83722e-06
-6.47963e-08
-4.73789e-06
-1.42322e-07
-4.5916e-06
-2.06213e-07
-4.40765e-06
-2.57207e-07
-4.19452e-06
-2.96419e-07
-3.95979e-06
-3.25177e-07
-3.71004e-06
-3.44885e-07
-3.45087e-06
-3.56933e-07
-3.18697e-06
-3.62627e-07
-2.92219e-06
-3.63124e-07
-2.65968e-06
-3.5942e-07
-2.40194e-06
-3.52354e-07
-2.151e-06
-3.42618e-07
-1.90847e-06
-3.30761e-07
-1.67565e-06
-3.17197e-07
-1.45363e-06
-3.02212e-07
-1.24335e-06
-2.8598e-07
-1.0457e-06
-2.68579e-07
-8.6156e-07
-2.49994e-07
-6.91876e-07
-2.30129e-07
-5.37695e-07
-2.08806e-07
-4.00219e-07
-1.85776e-07
-2.80821e-07
-1.60746e-07
-1.81022e-07
-1.3344e-07
-1.02367e-07
-1.03737e-07
-4.61068e-08
-7.19631e-08
-1.25165e-08
-3.94876e-08
5.08162e-10
-1.0124e-08
6.44919e-09
8.53944e-09
-9.0199e-10
4.3184e-08
-4.28907e-08
1.08837e-07
-1.04176e-07
2.07612e-07
-1.71034e-07
3.39438e-07
-2.37221e-07
5.0305e-07
-3.00059e-07
6.96653e-07
-3.58617e-07
9.18299e-07
-4.12816e-07
1.16607e-06
-4.62936e-07
1.43813e-06
-5.0936e-07
1.73278e-06
-5.5244e-07
2.04837e-06
-5.92429e-07
2.38329e-06
-6.2945e-07
2.73586e-06
-6.63464e-07
3.10429e-06
-6.94246e-07
3.48651e-06
-7.21367e-07
3.88011e-06
-7.44159e-07
4.28217e-06
-7.61696e-07
4.68914e-06
-7.72764e-07
5.09667e-06
-7.75838e-07
5.49947e-06
-7.69075e-07
5.89114e-06
-7.50311e-07
6.26403e-06
-7.17087e-07
6.60912e-06
-6.66711e-07
6.91597e-06
-5.96351e-07
7.17274e-06
-5.03207e-07
7.36635e-06
-3.84731e-07
7.48273e-06
-2.3894e-07
7.50732e-06
-6.47943e-08
7.4258e-06
1.37378e-07
7.22498e-06
3.65444e-07
6.89391e-06
6.1508e-07
6.42514e-06
8.79548e-07
5.81595e-06
1.14968e-06
5.06942e-06
1.41422e-06
4.19518e-06
1.66045e-06
3.20965e-06
1.87518e-06
2.13565e-06
2.04594e-06
1.00142e-06
2.16225e-06
-1.60977e-07
2.21667e-06
-1.31769e-06
2.20568e-06
-2.43524e-06
2.13006e-06
-3.48274e-06
1.99477e-06
-4.43371e-06
1.80844e-06
-5.26751e-06
1.58239e-06
-5.97009e-06
1.32944e-06
-6.53414e-06
1.06269e-06
-6.95866e-06
7.94413e-07
-7.24807e-06
5.35139e-07
-7.41111e-06
2.9317e-07
-7.45957e-06
7.43683e-08
-7.40707e-06
-1.17746e-07
-7.26806e-06
-2.81684e-07
-7.05694e-06
-4.17608e-07
-6.78744e-06
-5.26918e-07
-6.47217e-06
-6.11813e-07
-6.12247e-06
-6.74933e-07
-5.74822e-06
-7.19085e-07
-5.35796e-06
-7.47062e-07
-4.95884e-06
-7.61495e-07
-4.55688e-06
-7.64753e-07
-4.15698e-06
-7.58886e-07
-3.76319e-06
-7.45636e-07
-3.37877e-06
-7.26447e-07
-3.0064e-06
-7.02481e-07
-2.64825e-06
-6.74623e-07
-2.30616e-06
-6.43507e-07
-1.98176e-06
-6.0954e-07
-1.67649e-06
-5.72933e-07
-1.3918e-06
-5.33721e-07
-1.12913e-06
-4.91786e-07
-8.89999e-07
-4.46871e-07
-6.76053e-07
-3.98615e-07
-4.89046e-07
-3.46607e-07
-3.3079e-07
-2.90516e-07
-2.02989e-07
-2.30328e-07
-1.06895e-07
-1.6682e-07
-4.26981e-08
-1.0242e-07
-8.58504e-09
-4.29952e-08
-1.61289e-09
1.87188e-08
-1.89386e-08
7.65901e-08
-9.9339e-08
1.74722e-07
-2.00969e-07
3.13826e-07
-3.08864e-07
4.93419e-07
-4.1557e-07
7.12145e-07
-5.1757e-07
9.68153e-07
-6.13446e-07
1.25936e-06
-7.02878e-07
1.58359e-06
-7.86069e-07
1.93868e-06
-8.63399e-07
2.32248e-06
-9.35244e-07
2.73284e-06
-1.00187e-06
3.1676e-06
-1.06335e-06
3.62446e-06
-1.11954e-06
4.10092e-06
-1.17e-06
4.59416e-06
-1.21398e-06
5.10089e-06
-1.25034e-06
5.6172e-06
-1.27753e-06
6.13839e-06
-1.29357e-06
6.6588e-06
-1.29594e-06
7.17159e-06
-1.28165e-06
7.66859e-06
-1.24719e-06
8.14011e-06
-1.18859e-06
8.5748e-06
-1.10149e-06
8.95958e-06
-9.81325e-07
9.27964e-06
-8.23571e-07
9.51859e-06
-6.24109e-07
9.65883e-06
-3.79716e-07
9.68207e-06
-8.86837e-08
9.5702e-06
2.48485e-07
9.30644e-06
6.28341e-07
8.87671e-06
1.04385e-06
8.27125e-06
1.48395e-06
7.48625e-06
1.93354e-06
6.52528e-06
2.37397e-06
5.40037e-06
2.78408e-06
4.13234e-06
3.14188e-06
2.75038e-06
3.42655e-06
1.29078e-06
3.62049e-06
-2.05143e-07
3.71126e-06
-1.6937e-06
3.69295e-06
-3.13174e-06
3.56685e-06
-4.47945e-06
3.34131e-06
-5.7029e-06
3.03075e-06
-6.77576e-06
2.65413e-06
-7.68028e-06
2.23288e-06
-8.40748e-06
1.78885e-06
-8.95642e-06
1.34239e-06
-9.33308e-06
9.10947e-07
-9.54879e-06
5.08183e-07
-9.61863e-06
1.43682e-07
-9.55991e-06
-1.76846e-07
-9.39081e-06
-4.51025e-07
-9.1294e-06
-6.79154e-07
-8.79289e-06
-8.6351e-07
-8.39706e-06
-1.00766e-06
-7.95609e-06
-1.11587e-06
-7.48241e-06
-1.19267e-06
-6.98675e-06
-1.24255e-06
-6.47823e-06
-1.26975e-06
-5.96452e-06
-1.27812e-06
-5.45199e-06
-1.27098e-06
-4.94591e-06
-1.25119e-06
-4.45065e-06
-1.22112e-06
-3.9698e-06
-1.18268e-06
-3.50635e-06
-1.13735e-06
-3.06287e-06
-1.08621e-06
-2.6416e-06
-1.02998e-06
-2.24456e-06
-9.69081e-07
-1.8737e-06
-9.03646e-07
-1.53091e-06
-8.33595e-07
-1.21809e-06
-7.5866e-07
-9.37186e-07
-6.78446e-07
-6.90161e-07
-5.92522e-07
-4.78926e-07
-5.00605e-07
-3.05214e-07
-4.02866e-07
-1.70339e-07
-3.00493e-07
-7.48824e-08
-1.96651e-07
-1.83965e-08
-9.82767e-08
-1.94757e-08
2.79917e-08
-4.62255e-08
1.07602e-07
-1.7751e-07
2.36211e-07
-3.2821e-07
4.12701e-07
-4.8405e-07
6.35828e-07
-6.37419e-07
9.03956e-07
-7.84447e-07
1.21511e-06
-9.23381e-07
1.56708e-06
-1.05365e-06
1.95746e-06
-1.1753e-06
2.38378e-06
-1.2886e-06
2.84348e-06
-1.39387e-06
3.33393e-06
-1.49131e-06
3.85242e-06
-1.5809e-06
4.39607e-06
-1.66232e-06
4.96175e-06
-1.73489e-06
5.54595e-06
-1.79747e-06
6.14463e-06
-1.8484e-06
6.7531e-06
-1.88546e-06
7.36575e-06
-1.90577e-06
7.97594e-06
-1.90577e-06
8.57574e-06
-1.88118e-06
9.15573e-06
-1.82702e-06
9.70483e-06
-1.73763e-06
1.02101e-05
-1.60679e-06
1.06566e-05
-1.42798e-06
1.10274e-05
-1.19466e-06
1.13037e-05
-9.00826e-07
1.14651e-05
-5.4169e-07
1.14903e-05
-1.14545e-07
1.13578e-05
3.80183e-07
1.10474e-05
9.3784e-07
1.05417e-05
1.54852e-06
9.82821e-06
2.19634e-06
8.90122e-06
2.85931e-06
7.76393e-06
3.50993e-06
6.4298e-06
4.1168e-06
4.92314e-06
4.64705e-06
3.27874e-06
5.0694e-06
1.54028e-06
5.35738e-06
-2.42243e-07
5.49222e-06
-2.01579e-06
5.46499e-06
-3.72801e-06
5.27764e-06
-5.33082e-06
4.94277e-06
-6.78348e-06
4.48214e-06
-8.05482e-06
3.92426e-06
-9.12439e-06
3.30126e-06
-9.98244e-06
2.64572e-06
-1.0629e-05
1.98782e-06
-1.10722e-05
1.35314e-06
-1.13264e-05
7.61504e-07
-1.141e-05
2.26597e-07
-1.13436e-05
-2.43633e-07
-1.11488e-05
-6.46098e-07
-1.08466e-05
-9.81526e-07
-1.04567e-05
-1.2534e-06
-9.99734e-06
-1.46697e-06
-9.48466e-06
-1.62844e-06
-8.93284e-06
-1.74432e-06
-8.35413e-06
-1.82102e-06
-7.759e-06
-1.86457e-06
-7.15628e-06
-1.88043e-06
-6.55341e-06
-1.87335e-06
-5.95661e-06
-1.84741e-06
-5.37108e-06
-1.80599e-06
-4.80119e-06
-1.75184e-06
-4.25064e-06
-1.68711e-06
-3.72263e-06
-1.61336e-06
-3.22001e-06
-1.5317e-06
-2.74535e-06
-1.44278e-06
-2.30109e-06
-1.3469e-06
-1.88956e-06
-1.24407e-06
-1.51303e-06
-1.13409e-06
-1.17373e-06
-1.01661e-06
-8.73787e-07
-8.91286e-07
-6.15222e-07
-7.57962e-07
-3.99844e-07
-6.17009e-07
-2.29204e-07
-4.69878e-07
-1.0459e-07
-3.19993e-07
-2.72933e-08
-1.74328e-07
-4.61712e-08
3.57715e-08
-8.12555e-08
1.34194e-07
-2.74468e-07
2.89622e-07
-4.82231e-07
4.99207e-07
-6.9229e-07
7.60843e-07
-8.97732e-07
1.07247e-06
-1.09478e-06
1.43188e-06
-1.28151e-06
1.8366e-06
-1.45712e-06
2.28394e-06
-1.62141e-06
2.77104e-06
-1.77448e-06
3.29488e-06
-1.91652e-06
3.85232e-06
-2.04761e-06
4.4401e-06
-2.16759e-06
5.05476e-06
-2.27596e-06
5.69259e-06
-2.37178e-06
6.3495e-06
-2.45351e-06
7.02085e-06
-2.51898e-06
7.70133e-06
-2.56526e-06
8.38475e-06
-2.5886e-06
9.06383e-06
-2.58436e-06
9.73e-06
-2.54697e-06
1.03732e-05
-2.46991e-06
1.09815e-05
-2.34577e-06
1.15411e-05
-2.16638e-06
1.20361e-05
-1.92307e-06
1.24483e-05
-1.60705e-06
1.27572e-05
-1.21011e-06
1.29405e-05
-7.25426e-07
1.29741e-05
-1.48796e-07
1.28335e-05
5.19971e-07
1.2495e-05
1.27546e-06
1.19373e-05
2.10514e-06
1.11443e-05
2.98815e-06
1.01074e-05
3.89486e-06
8.82824e-06
4.78761e-06
7.32061e-06
5.62282e-06
5.61149e-06
6.35442e-06
3.74076e-06
6.93828e-06
1.7593e-06
7.33691e-06
-2.74089e-07
7.52364e-06
-2.29685e-06
7.48581e-06
-4.24724e-06
7.22619e-06
-6.06888e-06
6.76269e-06
-7.71454e-06
6.12622e-06
-9.14883e-06
5.35707e-06
-1.03495e-05
4.50051e-06
-1.13073e-05
3.60205e-06
-1.20242e-05
2.70335e-06
-1.25117e-05
1.83931e-06
-1.27878e-05
1.03639e-06
-1.28746e-05
3.12393e-07
-1.27962e-05
-3.22808e-07
-1.25768e-05
-8.65914e-07
-1.224e-05
-1.31862e-06
-1.18074e-05
-1.6861e-06
-1.12986e-05
-1.97571e-06
-1.0731e-05
-2.19589e-06
-1.01197e-05
-2.35534e-06
-9.4779e-06
-2.46255e-06
-8.81669e-06
-2.5254e-06
-8.1456e-06
-2.55103e-06
-7.47271e-06
-2.54566e-06
-6.80485e-06
-2.51459e-06
-6.14782e-06
-2.46225e-06
-5.50658e-06
-2.39224e-06
-4.88541e-06
-2.30735e-06
-4.28809e-06
-2.20969e-06
-3.71802e-06
-2.10072e-06
-3.17833e-06
-1.98136e-06
-2.67197e-06
-1.8521e-06
-2.20175e-06
-1.71307e-06
-1.77039e-06
-1.5642e-06
-1.38044e-06
-1.40527e-06
-1.03431e-06
-1.23609e-06
-7.34203e-07
-1.05671e-06
-4.82134e-07
-8.67704e-07
-2.80006e-07
-6.70617e-07
-1.29894e-07
-4.68709e-07
-3.4707e-08
-2.68154e-07
-8.0164e-08
4.18821e-08
-1.22351e-07
1.55594e-07
-3.86688e-07
3.33393e-07
-6.58583e-07
5.71112e-07
-9.28621e-07
8.65887e-07
-1.19115e-06
1.21519e-06
-1.44275e-06
1.61642e-06
-1.68143e-06
2.0667e-06
-1.90612e-06
2.56289e-06
-2.11632e-06
3.10158e-06
-2.3119e-06
3.67918e-06
-2.49287e-06
4.29198e-06
-2.65916e-06
4.9361e-06
-2.8105e-06
5.60751e-06
-2.94622e-06
6.30197e-06
-3.06514e-06
7.01486e-06
-3.16538e-06
7.7411e-06
-3.24429e-06
8.475e-06
-3.29831e-06
9.21002e-06
-3.32288e-06
9.93863e-06
-3.31233e-06
1.06521e-05
-3.25986e-06
1.13401e-05
-3.1575e-06
1.19907e-05
-2.9961e-06
1.259e-05
-2.76553e-06
1.31218e-05
-2.45485e-06
1.35675e-05
-2.05286e-06
1.39058e-05
-1.54871e-06
1.4113e-05
-9.33056e-07
1.41631e-05
-1.9945e-07
1.40286e-05
6.53776e-07
1.36818e-05
1.62135e-06
1.30971e-05
2.68879e-06
1.22535e-05
3.83053e-06
1.1138e-05
5.00892e-06
9.74923e-06
6.17482e-06
8.09999e-06
7.2703e-06
6.21914e-06
8.23333e-06
4.15132e-06
9.00401e-06
1.95484e-06
9.53112e-06
-3.02091e-07
9.77821e-06
-2.54657e-06
9.72789e-06
-4.70671e-06
9.384e-06
-6.71733e-06
8.77114e-06
-8.52466e-06
7.93159e-06
-1.00896e-05
6.92027e-06
-1.13892e-05
5.79844e-06
-1.24159e-05
4.62708e-06
-1.31754e-05
3.46123e-06
-1.36838e-05
2.34603e-06
-1.39638e-05
1.31476e-06
-1.40417e-05
3.88904e-07
-1.39452e-05
-4.20544e-07
-1.3701e-05
-1.11094e-06
-1.33344e-05
-1.68577e-06
-1.28682e-05
-2.15259e-06
-1.23227e-05
-2.52132e-06
-1.17155e-05
-2.80295e-06
-1.10621e-05
-3.00855e-06
-1.03757e-05
-3.14871e-06
-9.66743e-06
-3.23323e-06
-8.94713e-06
-3.27082e-06
-8.22303e-06
-3.26912e-06
-7.50228e-06
-3.2346e-06
-6.79102e-06
-3.17266e-06
-6.09461e-06
-3.08769e-06
-5.41781e-06
-2.98311e-06
-4.7649e-06
-2.86149e-06
-4.13981e-06
-2.72463e-06
-3.54623e-06
-2.57368e-06
-2.9877e-06
-2.40932e-06
-2.4676e-06
-2.23181e-06
-1.98919e-06
-2.0412e-06
-1.55553e-06
-1.83748e-06
-1.16944e-06
-1.62069e-06
-8.33497e-07
-1.39114e-06
-5.50013e-07
-1.14965e-06
-3.21293e-07
-8.97781e-07
-1.50074e-07
-6.38366e-07
-4.04661e-08
-3.76242e-07
-1.19789e-07
4.63228e-08
-1.67838e-07
1.71651e-07
-5.10503e-07
3.67143e-07
-8.526e-07
6.27901e-07
-1.18797e-06
9.50551e-07
-1.51243e-06
1.3321e-06
-1.82298e-06
1.76942e-06
-2.11748e-06
2.25902e-06
-2.39449e-06
2.79705e-06
-2.65315e-06
3.37938e-06
-2.89305e-06
4.00169e-06
-3.11399e-06
4.65952e-06
-3.31582e-06
5.34836e-06
-3.49817e-06
6.06357e-06
-3.6603e-06
6.80039e-06
-3.80087e-06
7.55376e-06
-3.91774e-06
8.31831e-06
-4.0079e-06
9.0881e-06
-4.06726e-06
9.85655e-06
-4.09056e-06
1.06162e-05
-4.07129e-06
1.13584e-05
-4.00157e-06
1.20735e-05
-3.87209e-06
1.27498e-05
-3.67216e-06
1.33742e-05
-3.38972e-06
1.39311e-05
-3.01163e-06
1.44022e-05
-2.52407e-06
1.47665e-05
-1.91327e-06
1.49998e-05
-1.16669e-06
1.50745e-05
-2.74702e-07
1.49606e-05
7.67057e-07
1.46262e-05
1.95485e-06
1.40404e-05
3.2736e-06
1.31759e-05
4.6939e-06
1.20134e-05
6.17003e-06
1.05466e-05
7.64014e-06
8.78577e-06
9.02947e-06
6.76066e-06
1.02566e-05
4.5205e-06
1.12422e-05
2.13161e-06
1.19178e-05
-3.27327e-07
1.22348e-05
-2.77171e-06
1.21698e-05
-5.11825e-06
1.17281e-05
-7.29201e-06
1.09426e-05
-9.23243e-06
9.86993e-06
-1.08972e-05
8.58324e-06
-1.22637e-05
7.16339e-06
-1.3328e-05
5.68989e-06
-1.41014e-05
4.23317e-06
-1.46064e-05
2.84936e-06
-1.48716e-05
1.57825e-06
-1.49283e-05
4.43933e-07
-1.48075e-05
-5.42791e-07
-1.45384e-05
-1.38128e-06
-1.41471e-05
-2.07795e-06
-1.36567e-05
-2.64354e-06
-1.30873e-05
-3.09111e-06
-1.24558e-05
-3.43444e-06
-1.17772e-05
-3.68708e-06
-1.10641e-05
-3.8617e-06
-1.03271e-05
-3.96981e-06
-9.57589e-06
-4.02164e-06
-8.81843e-06
-4.02603e-06
-8.06186e-06
-3.99049e-06
-7.31248e-06
-3.92125e-06
-6.57589e-06
-3.82338e-06
-5.85719e-06
-3.70081e-06
-5.16111e-06
-3.55649e-06
-4.4921e-06
-3.39246e-06
-3.85446e-06
-3.21008e-06
-3.25239e-06
-3.01008e-06
-2.68998e-06
-2.79285e-06
-2.17119e-06
-2.55856e-06
-1.69981e-06
-2.30738e-06
-1.27931e-06
-2.03967e-06
-9.12798e-07
-1.75609e-06
-6.03049e-07
-1.45779e-06
-3.52735e-07
-1.14646e-06
-1.64999e-07
-8.24447e-07
-4.45655e-08
-4.95061e-07
-1.63468e-07
4.9142e-08
-2.16097e-07
1.8247e-07
-6.42314e-07
3.91092e-07
-1.05974e-06
6.70067e-07
-1.46555e-06
1.01583e-06
-1.85686e-06
1.42495e-06
-2.23085e-06
1.89358e-06
-2.58497e-06
2.41736e-06
-2.91722e-06
2.99144e-06
-3.22628e-06
3.6107e-06
-3.51141e-06
4.26987e-06
-3.77229e-06
4.96362e-06
-4.00873e-06
5.6867e-06
-4.22042e-06
6.43383e-06
-4.40664e-06
7.19974e-06
-4.56602e-06
7.97903e-06
-4.69632e-06
8.76607e-06
-4.7943e-06
9.5549e-06
-4.85552e-06
1.03391e-05
-4.87423e-06
1.11114e-05
-4.84326e-06
1.1864e-05
-4.75388e-06
1.25879e-05
-4.59575e-06
1.32727e-05
-4.35683e-06
1.39064e-05
-4.02343e-06
1.44749e-05
-3.5803e-06
1.49617e-05
-3.01102e-06
1.53467e-05
-2.2986e-06
1.56062e-05
-1.42668e-06
1.57124e-05
-3.81365e-07
1.56327e-05
8.46026e-07
1.53315e-05
2.25529e-06
1.47713e-05
3.83289e-06
1.39169e-05
5.54728e-06
1.27406e-05
7.34529e-06
1.12283e-05
9.15124e-06
9.38611e-06
1.08706e-05
7.24326e-06
1.23984e-05
4.85351e-06
1.36308e-05
2.29202e-06
1.44781e-05
-3.50558e-07
1.48759e-05
-2.97609e-06
1.47936e-05
-5.4881e-06
1.42382e-05
-7.80073e-06
1.32534e-05
-9.84609e-06
1.19137e-05
-1.15792e-05
1.03151e-05
-1.29794e-05
8.56275e-06
-1.40486e-05
6.75837e-06
-1.48061e-05
4.98999e-06
-1.52827e-05
3.32517e-06
-1.55147e-05
1.80914e-06
-1.55388e-05
4.66731e-07
-1.53895e-05
-6.93533e-07
-1.50971e-05
-1.67485e-06
-1.46882e-05
-2.48795e-06
-1.41847e-05
-3.14772e-06
-1.36055e-05
-3.67083e-06
-1.29661e-05
-4.07408e-06
-1.22799e-05
-4.3734e-06
-1.15583e-05
-4.58336e-06
-1.0811e-05
-4.71697e-06
-1.00468e-05
-4.78566e-06
-9.27326e-06
-4.79925e-06
-8.49728e-06
-4.76605e-06
-7.72507e-06
-4.69296e-06
-6.96235e-06
-4.5855e-06
-6.21447e-06
-4.44799e-06
-5.48656e-06
-4.28361e-06
-4.7836e-06
-4.09456e-06
-4.11055e-06
-3.88219e-06
-3.47234e-06
-3.64727e-06
-2.87395e-06
-3.39017e-06
-2.32027e-06
-3.1111e-06
-1.81605e-06
-2.8104e-06
-1.36569e-06
-2.48875e-06
-9.73137e-07
-2.14731e-06
-6.4176e-07
-1.78777e-06
-3.74569e-07
-1.41218e-06
-1.74784e-07
-1.02271e-06
-4.70591e-08
-6.21293e-07
-2.0977e-07
5.03584e-08
-2.65533e-07
1.88192e-07
-7.78649e-07
4.05699e-07
-1.27579e-06
6.9866e-07
-1.75715e-06
1.06365e-06
-2.22059e-06
1.49675e-06
-2.66281e-06
1.99315e-06
-3.0804e-06
2.54725e-06
-3.47053e-06
3.15286e-06
-3.83127e-06
3.80355e-06
-4.16161e-06
4.49285e-06
-4.46121e-06
5.21444e-06
-4.73003e-06
5.96221e-06
-4.96795e-06
6.73024e-06
-5.17447e-06
7.51274e-06
-5.34837e-06
8.30399e-06
-5.48748e-06
9.09822e-06
-5.5885e-06
9.88952e-06
-5.64685e-06
1.06717e-05
-5.65654e-06
1.14383e-05
-5.60999e-06
1.21821e-05
-5.49796e-06
1.28955e-05
-5.30942e-06
1.35696e-05
-5.03137e-06
1.41946e-05
-4.64886e-06
1.47587e-05
-4.14489e-06
1.52478e-05
-3.50061e-06
1.56443e-05
-2.69576e-06
1.59266e-05
-1.70965e-06
1.60674e-05
-5.22936e-07
1.60334e-05
8.79289e-07
1.57848e-05
2.50305e-06
1.52775e-05
4.33947e-06
1.44661e-05
6.35783e-06
1.33117e-05
8.49909e-06
1.17895e-05
1.06729e-05
9.89837e-06
1.27616e-05
7.66582e-06
1.4631e-05
5.14994e-06
1.6147e-05
2.43578e-06
1.71927e-05
-3.72163e-07
1.76842e-05
-3.16005e-06
1.75815e-05
-5.81614e-06
1.68939e-05
-8.24207e-06
1.56787e-05
-1.03622e-05
1.40333e-05
-1.21295e-05
1.20823e-05
-1.35274e-05
9.96095e-06
-1.45663e-05
7.79794e-06
-1.52766e-05
5.7012e-06
-1.57004e-05
3.74956e-06
-1.58825e-05
1.9915e-06
-1.58655e-05
4.49546e-07
-1.56865e-05
-8.72997e-07
-1.53766e-05
-1.98552e-06
-1.49606e-05
-2.90468e-06
-1.44585e-05
-3.65039e-06
-1.38865e-05
-4.24333e-06
-1.32576e-05
-4.70327e-06
-1.25829e-05
-5.04829e-06
-1.1872e-05
-5.29445e-06
-1.11332e-05
-5.45587e-06
-1.03742e-05
-5.5448e-06
-9.60178e-06
-5.5717e-06
-8.82243e-06
-5.54539e-06
-8.04216e-06
-5.47316e-06
-7.2667e-06
-5.36084e-06
-6.5016e-06
-5.21291e-06
-5.75236e-06
-5.03262e-06
-5.02448e-06
-4.82213e-06
-4.32362e-06
-4.5827e-06
-3.65556e-06
-4.31491e-06
-3.02631e-06
-4.01894e-06
-2.44194e-06
-3.69492e-06
-1.90846e-06
-3.34325e-06
-1.43159e-06
-2.96491e-06
-1.01641e-06
-2.56168e-06
-6.67168e-07
-2.1361e-06
-3.87237e-07
-1.6911e-06
-1.79575e-07
-1.22928e-06
-4.79962e-08
-7.51789e-07
-2.57312e-07
4.99041e-08
-3.14488e-07
1.8885e-07
-9.16122e-07
4.11457e-07
-1.49695e-06
7.15055e-07
-2.05939e-06
1.09661e-06
-2.60087e-06
1.55153e-06
-3.1166e-06
2.07366e-06
-3.60158e-06
2.65564e-06
-4.05179e-06
3.28953e-06
-4.46468e-06
3.96725e-06
-4.83908e-06
4.68094e-06
-5.17483e-06
5.42311e-06
-5.47229e-06
6.18675e-06
-5.7318e-06
6.96524e-06
-5.95326e-06
7.75233e-06
-6.13582e-06
8.54199e-06
-6.27757e-06
9.32836e-06
-6.37537e-06
1.01056e-05
-6.42471e-06
1.08681e-05
-6.41958e-06
1.16097e-05
-6.35235e-06
1.23246e-05
-6.21362e-06
1.30065e-05
-5.9921e-06
1.36486e-05
-5.67437e-06
1.42436e-05
-5.24474e-06
1.47829e-05
-4.68505e-06
1.52558e-05
-3.97455e-06
1.5649e-05
-3.08996e-06
1.59444e-05
-2.00603e-06
1.61175e-05
-6.97039e-07
1.61355e-05
8.60245e-07
1.59562e-05
2.68139e-06
1.55282e-05
4.76663e-06
1.47947e-05
7.09072e-06
1.37015e-05
9.59194e-06
1.22094e-05
1.21651e-05
1.03065e-05
1.46651e-05
8.01666e-06
1.6922e-05
5.40219e-06
1.87632e-05
2.55916e-06
2.00378e-05
-3.92056e-07
2.06375e-05
-3.31951e-06
2.05107e-05
-6.09395e-06
1.96695e-05
-8.60299e-06
1.81882e-05
-1.07628e-05
1.61933e-05
-1.25253e-05
1.38453e-05
-1.38805e-05
1.13172e-05
-1.4851e-05
8.77014e-06
-1.54823e-05
6.33464e-06
-1.58301e-05
4.09953e-06
-1.59494e-05
2.11262e-06
-1.58881e-05
3.89505e-07
-1.56847e-05
-1.07569e-06
-1.53686e-05
-2.30133e-06
-1.49618e-05
-3.31157e-06
-1.44802e-05
-4.13207e-06
-1.39361e-05
-4.78755e-06
-1.33391e-05
-5.30039e-06
-1.26973e-05
-5.69026e-06
-1.20177e-05
-5.97412e-06
-1.13071e-05
-6.16661e-06
-1.05718e-05
-6.28029e-06
-9.8178e-06
-6.32589e-06
-9.05101e-06
-6.3124e-06
-8.27716e-06
-6.24723e-06
-7.50194e-06
-6.13627e-06
-6.73107e-06
-5.98398e-06
-5.97037e-06
-5.79349e-06
-5.2259e-06
-5.56676e-06
-4.50399e-06
-5.30473e-06
-3.8114e-06
-5.00758e-06
-3.15527e-06
-4.6751e-06
-2.5431e-06
-4.30706e-06
-1.98252e-06
-3.90373e-06
-1.48095e-06
-3.46629e-06
-1.04513e-06
-2.99721e-06
-6.80562e-07
-2.50026e-06
-3.91169e-07
-1.97998e-06
-1.7939e-07
-1.44048e-06
-4.73537e-08
-8.83265e-07
-3.04492e-07
4.75728e-08
-3.61086e-07
1.84283e-07
-1.05134e-06
4.08835e-07
-1.71998e-06
7.20958e-07
-2.37002e-06
1.11806e-06
-2.99647e-06
1.59444e-06
-3.59151e-06
2.14192e-06
-4.14768e-06
2.75082e-06
-4.65948e-06
3.41094e-06
-5.12379e-06
4.11223e-06
-5.5396e-06
4.84524e-06
-5.90729e-06
5.60127e-06
-6.22796e-06
6.37236e-06
-6.5027e-06
7.15126e-06
-6.73209e-06
7.93122e-06
-6.91583e-06
8.70597e-06
-7.05245e-06
9.46955e-06
-7.13917e-06
1.02163e-05
-7.17175e-06
1.09408e-05
-7.14445e-06
1.16378e-05
-7.04987e-06
1.23025e-05
-6.87886e-06
1.29301e-05
-6.62036e-06
1.35161e-05
-6.26112e-06
1.40559e-05
-5.78546e-06
1.45448e-05
-5.17487e-06
1.49769e-05
-4.40761e-06
1.5344e-05
-3.4582e-06
1.5634e-05
-2.29721e-06
1.58277e-05
-8.92051e-07
1.5896e-05
7.90643e-07
1.57964e-05
2.77972e-06
1.54715e-05
5.09037e-06
1.48513e-05
7.70998e-06
1.38626e-05
1.05799e-05
1.24463e-05
1.35809e-05
1.05759e-05
1.65355e-05
8.26925e-06
1.92291e-05
5.59227e-06
2.14413e-05
2.65337e-06
2.29784e-05
-4.09434e-07
2.37023e-05
-3.44395e-06
2.35468e-05
-6.30148e-06
2.25277e-05
-8.85436e-06
2.07408e-05
-1.10103e-05
1.83482e-05
-1.27219e-05
1.55557e-05
-1.39887e-05
1.25834e-05
-1.48501e-05
9.63214e-06
-1.53713e-05
6.85729e-06
-1.56245e-05
4.35492e-06
-1.56753e-05
2.16565e-06
-1.55753e-05
2.9138e-07
-1.53616e-05
-1.28793e-06
-1.50595e-05
-2.60248e-06
-1.46853e-05
-3.68518e-06
-1.42494e-05
-4.56757e-06
-1.37586e-05
-5.27791e-06
-1.32183e-05
-5.8404e-06
-1.26328e-05
-6.27536e-06
-1.20068e-05
-6.59977e-06
-1.13451e-05
-6.82804e-06
-1.06526e-05
-6.97252e-06
-9.93447e-06
-7.04372e-06
-9.19613e-06
-7.0505e-06
-8.44302e-06
-7.00011e-06
-7.6808e-06
-6.89828e-06
-6.9153e-06
-6.74926e-06
-6.15269e-06
-6.5559e-06
-5.3995e-06
-6.31974e-06
-4.66278e-06
-6.04122e-06
-3.95025e-06
-5.71988e-06
-3.27029e-06
-5.35479e-06
-2.632e-06
-4.94506e-06
-2.04494e-06
-4.49044e-06
-1.51876e-06
-3.99207e-06
-1.06245e-06
-3.45305e-06
-6.83457e-07
-2.87873e-06
-3.86683e-07
-2.27622e-06
-1.73992e-07
-1.65267e-06
-4.49344e-08
-1.01191e-06
-3.4913e-07
4.2959e-08
-4.03015e-07
1.74102e-07
-1.18087e-06
3.98394e-07
-1.94253e-06
7.18706e-07
-2.68846e-06
1.13252e-06
-3.40819e-06
1.63214e-06
-4.08881e-06
2.20642e-06
-4.71947e-06
2.84262e-06
-5.29309e-06
3.5278e-06
-5.80639e-06
4.24972e-06
-6.25903e-06
4.99728e-06
-6.65248e-06
5.76057e-06
-6.98902e-06
6.53079e-06
-7.27083e-06
7.30008e-06
-7.49941e-06
8.06131e-06
-7.67522e-06
8.80794e-06
-7.79736e-06
9.53392e-06
-7.86354e-06
1.02336e-05
-7.86999e-06
1.09019e-05
-7.81141e-06
1.15342e-05
-7.68097e-06
1.21264e-05
-7.47012e-06
1.26753e-05
-7.16853e-06
1.31785e-05
-6.76375e-06
1.36343e-05
-6.24095e-06
1.40418e-05
-5.58236e-06
1.44004e-05
-4.76655e-06
1.47089e-05
-3.76732e-06
1.49632e-05
-2.5524e-06
1.51528e-05
-1.08287e-06
1.52562e-05
6.85682e-07
1.52353e-05
2.79888e-06
1.50298e-05
5.29399e-06
1.4556e-05
8.18155e-06
1.37176e-05
1.14158e-05
1.24295e-05
1.48662e-05
1.06455e-05
1.83161e-05
8.3746e-06
2.14962e-05
5.68623e-06
2.41258e-05
2.70178e-06
2.59594e-05
-4.2236e-07
2.68237e-05
-3.51293e-06
2.66349e-05
-6.40092e-06
2.54125e-05
-8.94314e-06
2.32785e-05
-1.10395e-05
2.04389e-05
-1.26447e-05
1.71549e-05
-1.37721e-05
1.37051e-05
-1.44831e-05
1.03388e-05
-1.48674e-05
7.23895e-06
-1.50169e-05
4.50338e-06
-1.50061e-05
2.15485e-06
-1.48865e-05
1.72241e-07
-1.46897e-05
-1.48425e-06
-1.44327e-05
-2.85896e-06
-1.41237e-05
-3.99379e-06
-1.37654e-05
-4.92535e-06
-1.33584e-05
-5.68422e-06
-1.29029e-05
-6.29508e-06
-1.23996e-05
-6.77754e-06
-1.18506e-05
-7.14747e-06
-1.1259e-05
-7.41823e-06
-1.06286e-05
-7.60132e-06
-9.96392e-06
-7.7067e-06
-9.26987e-06
-7.74276e-06
-8.55173e-06
-7.71638e-06
-7.81513e-06
-7.63293e-06
-7.06609e-06
-7.49631e-06
-6.31103e-06
-7.30893e-06
-5.55693e-06
-7.07177e-06
-4.8115e-06
-6.78457e-06
-4.08331e-06
-6.44598e-06
-3.38198e-06
-6.05403e-06
-2.71827e-06
-5.60667e-06
-2.10396e-06
-5.10267e-06
-1.55137e-06
-4.54259e-06
-1.07256e-06
-3.92985e-06
-6.77853e-07
-3.27153e-06
-3.74057e-07
-2.57828e-06
-1.62797e-07
-1.86245e-06
-4.02309e-08
-1.13328e-06
-3.88218e-07
3.53593e-08
-4.37211e-07
1.57723e-07
-1.30134e-06
3.81169e-07
-2.16382e-06
7.11984e-07
-3.01683e-06
1.14656e-06
-3.83985e-06
1.67367e-06
-4.61242e-06
2.27794e-06
-5.31968e-06
2.94276e-06
-5.95338e-06
3.65215e-06
-6.51088e-06
4.39164e-06
-6.9934e-06
5.14859e-06
-7.40422e-06
5.91212e-06
-7.7473e-06
6.67276e-06
-8.02625e-06
7.42221e-06
-8.24371e-06
8.15303e-06
-8.40098e-06
8.85844e-06
-8.49783e-06
9.53222e-06
-8.53254e-06
1.01687e-05
-8.50188e-06
1.07628e-05
-8.40118e-06
1.13102e-05
-8.22435e-06
1.18076e-05
-7.9638e-06
1.22527e-05
-7.6103e-06
1.26447e-05
-7.15282e-06
1.29842e-05
-6.57815e-06
1.32741e-05
-5.87043e-06
1.3519e-05
-5.01027e-06
1.37252e-05
-3.97298e-06
1.38986e-05
-2.72592e-06
1.40409e-05
-1.22603e-06
1.41439e-05
5.81104e-07
1.41808e-05
2.75973e-06
1.40951e-05
5.37667e-06
1.37921e-05
8.48037e-06
1.31479e-05
1.20544e-05
1.20447e-05
1.59618e-05
1.04123e-05
1.99386e-05
8.24826e-06
2.36481e-05
5.62449e-06
2.67359e-05
2.67532e-06
2.88949e-05
-4.26824e-07
2.99134e-05
-3.48981e-06
2.96871e-05
-6.32609e-06
2.82388e-05
-8.77918e-06
2.57209e-05
-1.0743e-05
2.23906e-05
-1.21765e-05
1.85751e-05
-1.31108e-05
1.4626e-05
-1.36344e-05
1.08502e-05
-1.3867e-05
7.46162e-06
-1.39214e-05
4.55048e-06
-1.38767e-05
2.10504e-06
-1.37768e-05
6.8922e-08
-1.3641e-05
-1.62233e-06
-1.34739e-05
-3.02758e-06
-1.32724e-05
-4.19606e-06
-1.30306e-05
-5.16732e-06
-1.27422e-05
-5.97216e-06
-1.24022e-05
-6.63389e-06
-1.20082e-05
-7.16975e-06
-1.15602e-05
-7.59314e-06
-1.106e-05
-7.91549e-06
-1.05109e-05
-8.14707e-06
-9.91691e-06
-8.29693e-06
-9.28273e-06
-8.37283e-06
-8.6136e-06
-8.3811e-06
-7.91523e-06
-8.32664e-06
-7.19381e-06
-8.21287e-06
-6.45602e-06
-8.04169e-06
-5.70922e-06
-7.81345e-06
-4.96155e-06
-7.52702e-06
-4.2223e-06
-7.17999e-06
-3.50212e-06
-6.76896e-06
-2.81331e-06
-6.29027e-06
-2.1699e-06
-5.74096e-06
-1.58732e-06
-5.12018e-06
-1.08149e-06
-4.43091e-06
-6.66933e-07
-3.68162e-06
-3.53909e-07
-2.88725e-06
-1.44912e-07
-2.0679e-06
-3.23001e-08
-1.24287e-06
-4.17959e-07
2.3642e-08
-4.59436e-07
1.34632e-07
-1.41009e-06
3.59584e-07
-2.38619e-06
7.07219e-07
-3.36159e-06
1.17029e-06
-4.29951e-06
1.73168e-06
-5.16966e-06
2.37034e-06
-5.95335e-06
3.0652e-06
-6.64246e-06
3.79723e-06
-7.23646e-06
4.55009e-06
-7.7393e-06
5.31007e-06
-8.15689e-06
6.0657e-06
-8.4954e-06
6.8072e-06
-8.76012e-06
7.52605e-06
-8.95491e-06
8.2146e-06
-9.08193e-06
8.86585e-06
-9.1416e-06
9.47334e-06
-9.13273e-06
1.00311e-05
-9.05263e-06
1.0534e-05
-8.89732e-06
1.09776e-05
-8.6616e-06
1.13587e-05
-8.33898e-06
1.16755e-05
-7.92165e-06
1.19278e-05
-7.40033e-06
1.21177e-05
-6.76405e-06
1.22504e-05
-5.99981e-06
1.23347e-05
-5.09207e-06
1.23838e-05
-4.0205e-06
1.24142e-05
-2.75573e-06
1.24426e-05
-1.25484e-06
1.248e-05
5.42296e-07
1.25209e-05
2.71622e-06
1.25251e-05
5.36849e-06
1.23946e-05
8.60487e-06
1.19759e-05
1.24644e-05
1.11126e-05
1.68126e-05
9.7092e-06
2.1325e-05
7.74937e-06
2.55866e-05
5.30654e-06
2.91541e-05
2.52541e-06
3.16505e-05
-4.14558e-07
3.28307e-05
-3.31102e-06
3.25652e-05
-5.96489e-06
3.08779e-05
-8.21344e-06
2.79559e-05
-9.94908e-06
2.41116e-05
-1.1137e-05
1.97464e-05
-1.18296e-05
1.53005e-05
-1.21454e-05
1.11481e-05
-1.22372e-05
7.53732e-06
-1.22371e-05
4.53714e-06
-1.22182e-05
2.07593e-06