/*--------------------------------*- C++ -*----------------------------------*\
| =========                 |                                                 |
| \\      /  F ield         | OpenFOAM: The Open Source CFD Toolbox           |
|  \\    /   O peration     | Version:  2412                                  |
|   \\  /    A nd           | Website:  www.openfoam.com                      |
|    \\/     M anipulation  |                                                 |
\*---------------------------------------------------------------------------*/
FoamFile
{
    version     2.0;
    format      ascii;
    arch        "LSB;label=32;scalar=64";
    class       surfaceScalarField;
    location    "5.65";
    object      phi;
}
// * * * * * * * * * * * * * * * * * * * * * * * * * * * * * * * * * * * * * //

dimensions      [0 3 -1 0 0 0 0];

oriented        oriented;

internalField   nonuniform List<scalar> 
12640
(
3.21133e-13
-3.16061e-13
-3.51891e-13
4.11696e-13
-2.12721e-12
1.51831e-12
-5.00479e-12
2.65028e-12
-8.54909e-12
3.33256e-12
-1.26688e-11
3.92621e-12
-1.72222e-11
4.38465e-12
-2.20755e-11
4.71011e-12
-2.71381e-11
4.94831e-12
-3.23568e-11
5.1318e-12
-3.76632e-11
5.24744e-12
-4.29871e-11
5.28937e-12
-4.82578e-11
5.25835e-12
-5.34287e-11
5.1748e-12
-5.84614e-11
5.04859e-12
-6.33283e-11
4.88738e-12
-6.79899e-11
4.68063e-12
-7.24001e-11
4.41975e-12
-7.64997e-11
4.09295e-12
-8.02265e-11
3.69622e-12
-8.35151e-11
3.22747e-12
-8.63051e-11
2.69163e-12
-8.85374e-11
2.09124e-12
-9.01561e-11
1.42982e-12
-9.11055e-11
7.08938e-13
-9.13309e-11
-6.94232e-14
-9.07773e-11
-9.04428e-13
-8.93912e-11
-1.79347e-12
-8.71217e-11
-2.73266e-12
-8.39236e-11
-3.71535e-12
-7.97595e-11
-4.73259e-12
-7.46043e-11
-5.77143e-12
-6.84491e-11
-6.81491e-12
-6.13066e-11
-7.84106e-12
-5.32153e-11
-8.82373e-12
-4.4244e-11
-9.73292e-12
-3.44933e-11
-1.05368e-11
-2.40959e-11
-1.12035e-11
-1.3214e-11
-1.17039e-11
-2.03448e-12
-1.2014e-11
9.23903e-12
-1.2117e-11
2.0394e-11
-1.20044e-11
3.12189e-11
-1.16772e-11
4.15119e-11
-1.1145e-11
5.10902e-11
-1.04265e-11
5.97968e-11
-9.54712e-12
6.75068e-11
-8.53824e-12
7.41305e-11
-7.43456e-12
7.96154e-11
-6.27255e-12
8.39449e-11
-5.08758e-12
8.71356e-11
-3.91266e-12
8.92328e-11
-2.77624e-12
9.0305e-11
-1.702e-12
9.04378e-11
-7.07878e-13
8.9728e-11
1.9371e-13
8.82773e-11
9.96305e-13
8.61863e-11
1.69904e-12
8.35499e-11
2.30564e-12
8.04538e-11
2.82345e-12
7.69735e-11
3.26135e-12
7.31715e-11
3.6304e-12
6.90998e-11
3.94115e-12
6.47971e-11
4.20536e-12
6.02962e-11
4.42981e-12
5.56232e-11
4.62007e-12
5.08084e-11
4.77385e-12
4.58799e-11
4.89173e-12
4.0874e-11
4.96813e-12
3.5825e-11
5.0033e-12
3.07803e-11
4.98718e-12
2.57907e-11
4.91451e-12
2.09294e-11
4.76656e-12
1.62793e-11
4.53134e-12
1.195e-11
4.18656e-12
8.05944e-12
3.72188e-12
4.75504e-12
3.112e-12
2.20491e-12
2.33535e-12
5.64701e-13
1.407e-12
-1.03387e-13
4.18675e-13
-3.52553e-13
-5.09473e-13
-8.47093e-14
-3.15353e-12
2.56203e-12
-8.20497e-12
6.10988e-12
-1.54791e-11
9.513e-12
-2.45318e-11
1.20102e-11
-3.49911e-11
1.40575e-11
-4.65806e-11
1.56953e-11
-5.9021e-11
1.6927e-11
-7.20871e-11
1.78423e-11
-8.55664e-11
1.84924e-11
-9.92811e-11
1.88883e-11
-1.1305e-10
1.90261e-11
-1.26729e-10
1.89343e-11
-1.40182e-10
1.86475e-11
-1.53302e-10
1.81945e-11
-1.65973e-10
1.75801e-11
-1.78082e-10
1.67918e-11
-1.89494e-10
1.58018e-11
-2.00067e-10
1.45899e-11
-2.09646e-10
1.31402e-11
-2.18076e-10
1.14501e-11
-2.25197e-10
9.52494e-12
-2.30859e-10
7.37353e-12
-2.34907e-10
5.00183e-12
-2.37194e-10
2.41604e-12
-2.3757e-10
-3.78012e-13
-2.35892e-10
-3.37301e-12
-2.32021e-10
-6.55834e-12
-2.25833e-10
-9.9168e-12
-2.17216e-10
-1.34229e-11
-2.06088e-10
-1.70406e-11
-1.92398e-10
-2.07208e-11
-1.76145e-10
-2.43998e-11
-1.57381e-10
-2.79987e-11
-1.36228e-10
-3.14245e-11
-1.1288e-10
-3.45733e-11
-8.7609e-11
-3.73364e-11
-6.07639e-11
-3.96067e-11
-3.27612e-11
-4.12876e-11
-4.0726e-12
-4.23003e-11
2.47921e-11
-4.25907e-11
5.33064e-11
-4.21334e-11
8.09488e-11
-4.09342e-11
1.07226e-10
-3.90298e-11
1.3169e-10
-3.64852e-11
1.53962e-10
-3.33898e-11
1.73737e-10
-2.98515e-11
1.90797e-10
-2.59898e-11
2.05014e-10
-2.19283e-11
2.16343e-10
-1.77879e-11
2.24818e-10
-1.36795e-11
2.30542e-10
-9.70083e-12
2.33672e-10
-5.93205e-12
2.34407e-10
-2.43524e-12
2.32973e-10
7.47398e-13
2.29611e-10
3.59299e-12
2.24559e-10
6.09728e-12
2.18047e-10
8.27108e-12
2.10288e-10
1.01364e-11
2.01469e-10
1.1723e-11
1.91757e-10
1.30649e-11
1.81285e-10
1.41989e-11
1.70172e-10
1.51581e-11
1.5851e-10
1.59686e-11
1.4639e-10
1.66423e-11
1.33893e-10
1.71835e-11
1.21111e-10
1.75867e-11
1.08133e-10
1.78464e-11
9.50686e-11
1.79461e-11
8.20341e-11
1.7867e-11
6.91836e-11
1.75729e-11
5.66867e-11
1.70251e-11
4.4765e-11
1.61684e-11
3.36591e-11
1.4957e-11
2.36562e-11
1.3343e-11
1.50544e-11
1.12873e-11
8.18359e-12
8.74681e-12
3.32758e-12
5.78125e-12
6.04682e-13
2.66238e-12
1.83158e-14
-1.59822e-12
1.25827e-12
-6.38813e-12
6.88523e-12
-1.43808e-11
1.36751e-11
-2.53038e-11
2.00517e-11
-3.87175e-11
2.5076e-11
-5.41969e-11
2.92302e-11
-7.13444e-11
3.25851e-11
-8.97885e-11
3.51618e-11
-1.09176e-10
3.70718e-11
-1.29211e-10
3.84162e-11
-1.49614e-10
3.92256e-11
-1.70151e-10
3.95324e-11
-1.90592e-10
3.93753e-11
-2.10747e-10
3.88192e-11
-2.30423e-10
3.78962e-11
-2.49441e-10
3.6618e-11
-2.67607e-10
3.49604e-11
-2.84723e-10
3.28885e-11
-3.00574e-10
3.03676e-11
-3.14939e-10
2.73751e-11
-3.27585e-10
2.38993e-11
-3.38279e-10
1.99434e-11
-3.46784e-10
1.55161e-11
-3.52864e-10
1.06266e-11
-3.56285e-10
5.284e-12
-3.56816e-10
-4.99969e-13
-3.54233e-10
-6.70908e-12
-3.48325e-10
-1.33182e-11
-3.38899e-10
-2.02885e-11
-3.25794e-10
-2.75625e-11
-3.08889e-10
-3.50598e-11
-2.88123e-10
-4.26731e-11
-2.63507e-10
-5.02652e-11
-2.35138e-10
-5.7669e-11
-2.03217e-10
-6.46904e-11
-1.68053e-10
-7.11162e-11
-1.30069e-10
-7.67252e-11
-8.9798e-11
-8.13025e-11
-4.78679e-11
-8.46559e-11
-4.98445e-12
-8.6631e-11
3.80965e-11
-8.71238e-11
8.05987e-11
-8.60892e-11
1.21759e-10
-8.35455e-11
1.60858e-10
-7.9573e-11
1.97249e-10
-7.43093e-11
2.30383e-10
-6.79396e-11
2.59828e-10
-6.06855e-11
2.85272e-10
-5.27896e-11
3.06533e-10
-4.45011e-11
3.2355e-10
-3.60611e-11
3.3637e-10
-2.76912e-11
3.4514e-10
-1.9584e-11
3.50079e-10
-1.18987e-11
3.51469e-10
-4.75692e-12
3.49628e-10
1.75798e-12
3.44894e-10
7.60141e-12
3.37608e-10
1.27634e-11
3.28097e-10
1.72631e-11
3.16669e-10
2.11413e-11
3.03602e-10
2.44537e-11
2.8914e-10
2.72659e-11
2.73496e-10
2.96461e-11
2.56849e-10
3.16573e-11
2.3936e-10
3.33458e-11
2.21172e-10
3.47401e-11
2.02428e-10
3.58481e-11
1.83264e-10
3.6668e-11
1.63833e-10
3.71819e-11
1.44293e-10
3.7365e-11
1.2484e-10
3.71697e-11
1.05685e-10
3.65378e-11
8.7095e-11
3.53846e-11
6.93612e-11
3.36249e-11
5.2832e-11
3.11646e-11
3.78771e-11
2.79311e-11
2.49016e-11
2.38574e-11
1.43021e-11
1.89092e-11
6.45812e-12
1.31696e-11
1.57358e-12
7.09728e-12
1.37481e-12
-2.52438e-12
3.54543e-12
-9.25859e-12
1.31711e-11
-1.98725e-11
2.38763e-11
-3.3934e-11
3.37433e-11
-5.10022e-11
4.18059e-11
-7.05889e-11
4.85195e-11
-9.22414e-11
5.39828e-11
-1.15503e-10
5.82166e-11
-1.39969e-10
6.13755e-11
-1.65263e-10
6.35937e-11
-1.91066e-10
6.49513e-11
-2.17074e-10
6.54981e-11
-2.43019e-10
6.53033e-11
-2.68637e-10
6.44384e-11
-2.93692e-10
6.29566e-11
-3.17935e-10
6.08636e-11
-3.41125e-10
5.81337e-11
-3.62999e-10
5.4718e-11
-3.83292e-10
5.05739e-11
-4.01722e-10
4.56662e-11
-4.17999e-10
3.99743e-11
-4.31822e-10
3.34914e-11
-4.42881e-10
2.62211e-11
-4.50865e-10
1.81707e-11
-4.55462e-10
9.35071e-12
-4.56359e-10
-2.22809e-13
-4.53255e-10
-1.05233e-11
-4.45862e-10
-2.15069e-11
-4.33923e-10
-3.31052e-11
-4.17219e-10
-4.52169e-11
-3.95593e-10
-5.77016e-11
-3.68965e-10
-7.03725e-11
-3.37352e-10
-8.29938e-11
-3.00891e-10
-9.5281e-11
-2.5985e-10
-1.06907e-10
-2.14644e-10
-1.17517e-10
-1.6583e-10
-1.26743e-10
-1.1411e-10
-1.34233e-10
-6.03049e-11
-1.39675e-10
-5.3311e-12
-1.4282e-10
4.98334e-11
-1.43504e-10
1.04191e-10
-1.41664e-10
1.56766e-10
-1.37338e-10
2.06644e-10
-1.3067e-10
2.53012e-10
-1.21895e-10
2.95185e-10
-1.11326e-10
3.32627e-10
-9.93329e-11
3.64963e-10
-8.63156e-11
3.91976e-10
-7.26818e-11
4.13605e-10
-5.88228e-11
4.29918e-10
-4.50945e-11
4.41106e-10
-3.18054e-11
4.47448e-10
-1.9208e-11
4.49294e-10
-7.49457e-12
4.47042e-10
3.20504e-12
4.41109e-10
1.28206e-11
4.31917e-10
2.13365e-11
4.19875e-10
2.87812e-11
4.05367e-10
3.52168e-11
3.88742e-10
4.07295e-11
3.70313e-10
4.54203e-11
3.50354e-10
4.9394e-11
3.29106e-10
5.2745e-11
3.06779e-10
5.55474e-11
2.83573e-10
5.78454e-11
2.59668e-10
5.96604e-11
2.35256e-10
6.09872e-11
2.10525e-10
6.18054e-11
1.85693e-10
6.20684e-11
1.60991e-10
6.17131e-11
1.36696e-10
6.0639e-11
1.13117e-10
5.87289e-11
9.06207e-11
5.5846e-11
6.95967e-11
5.18698e-11
5.04861e-11
4.66838e-11
3.37461e-11
4.02013e-11
1.98731e-11
3.23575e-11
9.31333e-12
2.32823e-11
2.44966e-12
1.35224e-11
3.60936e-12
-3.19434e-12
6.50685e-12
-1.1642e-11
2.11782e-11
-2.4529e-11
3.63594e-11
-4.13041e-11
5.0154e-11
-6.14597e-11
6.16302e-11
-8.4475e-11
7.12397e-11
-1.09826e-10
7.90822e-11
-1.3703e-10
8.52121e-11
-1.65618e-10
8.98001e-11
-1.9519e-10
9.30425e-11
-2.25373e-10
9.50509e-11
-2.55844e-10
9.59159e-11
-2.86285e-10
9.57174e-11
-3.16404e-10
9.45445e-11
-3.45908e-10
9.24537e-11
-3.74517e-10
8.94595e-11
-4.01938e-10
8.55254e-11
-4.27875e-10
8.05967e-11
-4.52014e-10
7.46146e-11
-4.7403e-10
6.7532e-11
-4.93579e-10
5.9313e-11
-5.10305e-10
4.99364e-11
-5.23834e-10
3.93925e-11
-5.33782e-10
2.76795e-11
-5.39758e-10
1.48033e-11
-5.4137e-10
7.80709e-13
-5.38231e-10
-1.43524e-11
-5.29973e-10
-3.05322e-11
-5.1626e-10
-4.76547e-11
-4.96809e-10
-6.55658e-11
-4.71408e-10
-8.40495e-11
-4.39945e-10
-1.0282e-10
-4.02431e-10
-1.21519e-10
-3.59024e-10
-1.39715e-10
-3.10049e-10
-1.56915e-10
-2.5601e-10
-1.72585e-10
-1.97597e-10
-1.86178e-10
-1.35671e-10
-1.97172e-10
-7.12427e-11
-2.05104e-10
-5.44028e-12
-2.09614e-10
6.05387e-11
-2.1047e-10
1.25476e-10
-2.07587e-10
1.88189e-10
-2.0104e-10
2.47575e-10
-1.91054e-10
3.02665e-10
-1.77993e-10
3.52651e-10
-1.62332e-10
3.96917e-10
-1.44626e-10
4.35039e-10
-1.2547e-10
4.6679e-10
-1.05464e-10
4.92123e-10
-8.51744e-11
5.11146e-10
-6.51155e-11
5.24104e-10
-4.57265e-11
5.31343e-10
-2.73642e-11
5.33287e-10
-1.02966e-11
5.30407e-10
5.29633e-12
5.23198e-10
1.93203e-11
5.12157e-10
3.17546e-11
4.97764e-10
4.26404e-11
4.80469e-10
5.20645e-11
4.60687e-10
6.0148e-11
4.38787e-10
6.70313e-11
4.15097e-10
7.2859e-11
3.89905e-10
7.77627e-11
3.63472e-10
8.18449e-11
3.36029e-10
8.51752e-11
3.07802e-10
8.77847e-11
2.79008e-10
8.96755e-11
2.4988e-10
9.08153e-11
2.20657e-10
9.11503e-11
1.91615e-10
9.05855e-11
1.63053e-10
8.89938e-11
1.35336e-10
8.62029e-11
1.08854e-10
8.20425e-11
8.40533e-11
7.63464e-11
6.13912e-11
6.89823e-11
4.14027e-11
5.97936e-11
2.46603e-11
4.8675e-11
1.17148e-11
3.57819e-11
3.1722e-12
2.16276e-11
6.56824e-12
-3.68397e-12
9.96337e-12
-1.35498e-11
3.06149e-11
-2.83486e-11
5.07638e-11
-4.74163e-11
6.88672e-11
-7.0187e-11
8.4075e-11
-9.6063e-11
9.68272e-11
-1.24499e-10
1.07268e-10
-1.54953e-10
1.15459e-10
-1.86941e-10
1.2162e-10
-2.20013e-10
1.25987e-10
-2.53794e-10
1.28739e-10
-2.87924e-10
1.29984e-10
-3.22083e-10
1.29836e-10
-3.55942e-10
1.28379e-10
-3.89194e-10
1.25684e-10
-4.21517e-10
1.21757e-10
-4.526e-10
1.16565e-10
-4.82111e-10
1.10037e-10
-5.0971e-10
1.02103e-10
-5.35031e-10
9.2694e-11
-5.5769e-10
8.17537e-11
-5.77277e-10
6.92385e-11
-5.93359e-10
5.51166e-11
-6.05482e-10
3.93673e-11
-6.13176e-10
2.19826e-11
-6.15959e-10
2.97327e-12
-6.13354e-10
-1.76213e-11
-6.04896e-10
-3.97183e-11
-5.90159e-10
-6.31769e-11
-5.6877e-10
-8.7782e-11
-5.40447e-10
-1.1323e-10
-5.05023e-10
-1.39119e-10
-4.62479e-10
-1.64941e-10
-4.12974e-10
-1.90087e-10
-3.56873e-10
-2.13863e-10
-2.94763e-10
-2.35516e-10
-2.27457e-10
-2.54276e-10
-1.55981e-10
-2.69409e-10
-8.15483e-11
-2.80271e-10
-5.51239e-12
-2.86363e-10
7.06894e-11
-2.87372e-10
1.45601e-10
-2.83197e-10
2.17813e-10
-2.73957e-10
2.86028e-10
-2.59991e-10
3.49113e-10
-2.41825e-10
4.06145e-10
-2.2014e-10
4.56432e-10
-1.9572e-10
4.99525e-10
-1.69399e-10
5.35205e-10
-1.42002e-10
5.63463e-10
-1.14306e-10
5.84468e-10
-8.69996e-11
5.98538e-10
-6.06678e-11
6.06103e-10
-3.57776e-11
6.07671e-10
-1.26758e-11
6.03796e-10
8.41073e-12
5.95054e-10
2.73655e-11
5.82017e-10
4.41694e-11
5.65234e-10
5.88801e-11
5.45223e-10
7.16163e-11
5.22453e-10
8.25386e-11
4.97347e-10
9.18326e-11
4.70278e-10
9.96875e-11
4.41578e-10
1.06276e-10
4.11537e-10
1.11736e-10
3.80426e-10
1.16163e-10
3.48489e-10
1.19607e-10
3.15975e-10
1.22074e-10
2.83128e-10
1.23533e-10
2.50216e-10
1.23912e-10
2.17522e-10
1.23098e-10
1.85384e-10
1.20917e-10
1.54171e-10
1.17162e-10
1.24326e-10
1.11598e-10
9.63037e-11
1.04038e-10
7.06176e-11
9.4303e-11
4.78383e-11
8.21747e-11
2.86398e-11
6.74515e-11
1.36771e-11
5.02999e-11
3.75226e-12
3.11179e-11
1.01093e-11
-4.09206e-12
1.38348e-11
-1.50367e-11
4.11419e-11
-3.13969e-11
6.67422e-11
-5.23963e-11
8.95203e-11
-7.73668e-11
1.08729e-10
-1.05657e-10
1.24833e-10
-1.36667e-10
1.38031e-10
-1.69844e-10
1.48426e-10
-2.04649e-10
1.56256e-10
-2.4063e-10
1.61833e-10
-2.77377e-10
1.65386e-10
-3.14547e-10
1.6708e-10
-3.51799e-10
1.67035e-10
-3.88815e-10
1.65356e-10
-4.25264e-10
1.62099e-10
-4.60824e-10
1.57276e-10
-4.95156e-10
1.5084e-10
-5.27918e-10
1.42715e-10
-5.58744e-10
1.32808e-10
-5.87244e-10
1.21025e-10
-6.12995e-10
1.0728e-10
-6.35542e-10
9.14959e-11
-6.54393e-10
7.36094e-11
-6.69023e-10
5.35675e-11
-6.78878e-10
3.13365e-11
-6.83382e-10
6.90825e-12
-6.8195e-10
-1.96823e-11
-6.74007e-10
-4.83408e-11
-6.5901e-10
-7.88901e-11
-6.36479e-10
-1.11052e-10
-6.06029e-10
-1.44425e-10
-5.67409e-10
-1.78474e-10
-5.2054e-10
-2.12518e-10
-4.65558e-10
-2.45738e-10
-4.02847e-10
-2.77195e-10
-3.33061e-10
-3.05868e-10
-2.5714e-10
-3.30708e-10
-1.76287e-10
-3.50717e-10
-9.19416e-11
-3.65027e-10
-5.71475e-12
-3.72967e-10
8.06798e-11
-3.74124e-10
1.65509e-10
-3.68378e-10
2.47104e-10
-3.55918e-10
3.23943e-10
-3.37222e-10
3.94715e-10
-3.13031e-10
4.58374e-10
-2.84283e-10
5.14164e-10
-2.52051e-10
5.61622e-10
-2.17456e-10
6.00566e-10
-1.81599e-10
6.31052e-10
-1.45491e-10
6.53342e-10
-1.10023e-10
6.67852e-10
-7.59335e-11
6.75119e-10
-4.38044e-11
6.75751e-10
-1.40572e-11
6.70403e-10
1.30385e-11
6.5974e-10
3.73538e-11
6.44415e-10
5.88776e-11
6.25052e-10
7.76955e-11
6.02231e-10
9.3965e-11
5.76478e-10
1.07895e-10
5.48263e-10
1.19724e-10
5.18002e-10
1.29691e-10
4.86056e-10
1.38016e-10
4.52749e-10
1.44879e-10
4.18365e-10
1.50407e-10
3.83175e-10
1.54671e-10
3.47429e-10
1.57691e-10
3.11392e-10
1.59432e-10
2.75324e-10
1.59817e-10
2.39531e-10
1.58701e-10
2.04343e-10
1.55881e-10
1.7016e-10
1.51085e-10
1.37424e-10
1.44035e-10
1.06642e-10
1.34486e-10
7.83534e-11
1.22222e-10
5.31919e-11
1.06939e-10
3.18944e-11
8.83276e-11
1.52537e-11
6.64995e-11
4.19895e-12
4.17403e-11
1.41e-11
-4.41974e-12
1.80404e-11
-1.6171e-11
5.24896e-11
-3.38117e-11
8.40126e-11
-5.64283e-11
1.11802e-10
-8.32803e-11
1.3527e-10
-1.1361e-10
1.54885e-10
-1.46797e-10
1.70972e-10
-1.82248e-10
1.83669e-10
-2.19425e-10
1.93258e-10
-2.57826e-10
2.00095e-10
-2.97056e-10
2.04504e-10
-3.36756e-10
2.06697e-10
-3.76616e-10
2.0683e-10
-4.16315e-10
2.05002e-10
-4.55541e-10
2.01275e-10
-4.93964e-10
1.95644e-10
-5.31253e-10
1.88056e-10
-5.67052e-10
1.78417e-10
-6.00987e-10
1.66608e-10
-6.32645e-10
1.52503e-10
-6.61576e-10
1.35976e-10
-6.87281e-10
1.16907e-10
-7.09214e-10
9.51828e-11
-7.26777e-10
7.07059e-11
-7.39325e-10
4.33981e-11
-7.46178e-10
1.32183e-11
-7.4663e-10
-1.98195e-11
-7.39972e-10
-5.56189e-11
-7.25523e-10
-9.39755e-11
-7.02659e-10
-1.34548e-10
-6.70859e-10
-1.76833e-10
-6.29751e-10
-2.20149e-10
-5.79159e-10
-2.63618e-10
-5.19159e-10
-3.06174e-10
-4.50125e-10
-3.46584e-10
-3.72768e-10
-3.83494e-10
-2.88153e-10
-4.15508e-10
-1.97685e-10
-4.41294e-10
-1.03062e-10
-4.59693e-10
-6.20554e-12
-4.69818e-10
9.08382e-11
-4.71133e-10
1.86002e-10
-4.63502e-10
2.77305e-10
-4.47198e-10
3.62957e-10
-4.22892e-10
4.41442e-10
-3.91591e-10
5.11579e-10
-3.5457e-10
5.72551e-10
-3.1326e-10
6.23909e-10
-2.69141e-10
6.65534e-10
-2.23639e-10
6.97591e-10
-1.78044e-10
7.20466e-10
-1.33462e-10
7.34713e-10
-9.07984e-11
7.41001e-10
-5.07454e-11
7.40066e-10
-1.37938e-11
7.3268e-10
1.97576e-11
7.19612e-10
4.9778e-11
7.01606e-10
7.62801e-11
6.79364e-10
9.93885e-11
6.53532e-10
1.19314e-10
6.2469e-10
1.36324e-10
5.93352e-10
1.50717e-10
5.59969e-10
1.62794e-10
5.24932e-10
1.72827e-10
4.88579e-10
1.81047e-10
4.51214e-10
1.87617e-10
4.13105e-10
1.92638e-10
3.74513e-10
1.96141e-10
3.35686e-10
1.98105e-10
2.96897e-10
1.98434e-10
2.58429e-10
1.96966e-10
2.20628e-10
1.93449e-10
1.83875e-10
1.87568e-10
1.48639e-10
1.78968e-10
1.15441e-10
1.67345e-10
8.4889e-11
1.52404e-10
5.76536e-11
1.33776e-10
3.45607e-11
1.11003e-10
1.65024e-11
8.41196e-11
4.53013e-12
5.32848e-11
1.84255e-11
-4.65087e-12
2.24843e-11
-1.70501e-11
6.45e-11
-3.57576e-11
1.02365e-10
-5.97677e-11
1.35488e-10
-8.82426e-11
1.63445e-10
-1.20348e-10
1.86717e-10
-1.5537e-10
2.05755e-10
-1.92739e-10
2.20827e-10
-2.31885e-10
2.32229e-10
-2.7232e-10
2.40384e-10
-3.13616e-10
2.45683e-10
-3.55445e-10
2.4843e-10
-3.975e-10
2.48809e-10
-4.39506e-10
2.4694e-10
-4.8116e-10
2.42866e-10
-5.22162e-10
2.36574e-10
-5.62184e-10
2.27992e-10
-6.00883e-10
2.17003e-10
-6.37877e-10
2.03454e-10
-6.72746e-10
1.87179e-10
-7.05015e-10
1.68001e-10
-7.3415e-10
1.4574e-10
-7.5955e-10
1.20222e-10
-7.80545e-10
9.12816e-11
-7.96396e-10
5.87778e-11
-8.06305e-10
2.26129e-11
-8.09427e-10
-1.72384e-11
-8.049e-10
-6.06982e-11
-7.91869e-10
-1.07547e-10
-7.69534e-10
-1.57391e-10
-7.37193e-10
-2.09626e-10
-6.94305e-10
-2.63413e-10
-6.40548e-10
-3.17657e-10
-5.75888e-10
-3.71008e-10
-5.00654e-10
-4.21878e-10
-4.15591e-10
-4.68501e-10
-3.21894e-10
-5.09037e-10
-2.21197e-10
-5.41723e-10
-1.15514e-10
-5.65024e-10
-7.14261e-12
-5.77774e-10
1.01459e-10
-5.79282e-10
2.07809e-10
-5.69389e-10
3.09543e-10
-5.48489e-10
4.04539e-10
-5.17495e-10
4.91036e-10
-4.7777e-10
5.67701e-10
-4.31015e-10
6.3367e-10
-3.79123e-10
6.88531e-10
-3.24023e-10
7.3228e-10
-2.67534e-10
7.65234e-10
-2.11263e-10
7.87956e-10
-1.56556e-10
8.01177e-10
-1.0448e-10
8.05737e-10
-5.58359e-11
8.0253e-10
-1.11647e-11
7.92465e-10
2.92202e-11
7.76431e-10
6.52081e-11
7.55274e-10
9.68522e-11
7.29781e-10
1.24337e-10
7.00662e-10
1.4794e-10
6.68551e-10
1.68004e-10
6.34004e-10
1.84898e-10
5.975e-10
1.98993e-10
5.5945e-10
2.10626e-10
5.20208e-10
2.20082e-10
4.80073e-10
2.27574e-10
4.39316e-10
2.33233e-10
3.98178e-10
2.3712e-10
3.56904e-10
2.39212e-10
3.15737e-10
2.39414e-10
2.74962e-10
2.3753e-10
2.34887e-10
2.33279e-10
1.95906e-10
2.26275e-10
1.58465e-10
2.16099e-10
1.23134e-10
2.02335e-10
9.05495e-11
1.84617e-10
6.14732e-11
1.62457e-10
3.67899e-11
1.35271e-10
1.75103e-11
1.02968e-10
4.77337e-12
6.55998e-11
2.29997e-11
-4.81824e-12
2.71036e-11
-1.77838e-11
7.70961e-11
-3.74489e-11
1.21691e-10
-6.26922e-11
1.60422e-10
-9.26288e-11
1.93093e-10
-1.26304e-10
2.20129e-10
-1.6293e-10
2.42145e-10
-2.0189e-10
2.59582e-10
-2.42665e-10
2.72826e-10
-2.84754e-10
2.82325e-10
-3.27762e-10
2.88565e-10
-3.71351e-10
2.91917e-10
-4.15263e-10
2.92632e-10
-4.5924e-10
2.9084e-10
-5.03037e-10
2.86583e-10
-5.46372e-10
2.79826e-10
-5.88957e-10
2.70474e-10
-6.30456e-10
2.58375e-10
-6.70504e-10
2.43338e-10
-7.08676e-10
2.25145e-10
-7.44485e-10
2.03553e-10
-7.77367e-10
1.78313e-10
-8.06673e-10
1.49164e-10
-8.31659e-10
1.15855e-10
-8.51487e-10
7.81536e-11
-8.65234e-10
3.5881e-11
-8.71901e-10
-1.10585e-11
-8.70441e-10
-6.26301e-11
-8.59796e-10
-1.18625e-10
-8.38942e-10
-1.78611e-10
-8.06949e-10
-2.41896e-10
-7.63045e-10
-3.07481e-10
-7.06696e-10
-3.74041e-10
-6.37698e-10
-4.39902e-10
-5.56275e-10
-5.03051e-10
-4.63175e-10
-5.61209e-10
-3.59725e-10
-6.11961e-10
-2.47829e-10
-6.52975e-10
-1.29887e-10
-6.82222e-10
-8.6689e-12
-6.98172e-10
1.12848e-10
-6.99931e-10
2.31663e-10
-6.87318e-10
3.44924e-10
-6.60884e-10
4.50106e-10
-6.21863e-10
5.45142e-10
-5.72078e-10
6.28529e-10
-5.13789e-10
6.99369e-10
-4.4949e-10
7.57338e-10
-3.81678e-10
8.02605e-10
-3.12652e-10
8.35711e-10
-2.4438e-10
8.57456e-10
-1.78458e-10
8.68803e-10
-1.16112e-10
8.70801e-10
-5.82248e-11
8.64536e-10
-5.37108e-12
8.51078e-10
4.21519e-11
8.31453e-10
8.42775e-11
8.0662e-10
1.21129e-10
7.77449e-10
1.5297e-10
7.44721e-10
1.80169e-10
7.09118e-10
2.03158e-10
6.71233e-10
2.22394e-10
6.31568e-10
2.38327e-10
5.90548e-10
2.51369e-10
5.48526e-10
2.6187e-10
5.05802e-10
2.70098e-10
4.62622e-10
2.76231e-10
4.19213e-10
2.80352e-10
3.75784e-10
2.82458e-10
3.32561e-10
2.82438e-10
2.89783e-10
2.80085e-10
2.47752e-10
2.75062e-10
2.06812e-10
2.66934e-10
1.67429e-10
2.55172e-10
1.30162e-10
2.3926e-10
9.57208e-11
2.18691e-10
6.49284e-11
1.92859e-10
3.8777e-11
1.61017e-10
1.83753e-11
1.22948e-10
4.97125e-12
7.85926e-11
2.77793e-11
-4.96483e-12
3.18793e-11
-1.8492e-11
9.02758e-11
-3.90926e-11
1.41975e-10
-6.55296e-11
1.86566e-10
-9.68124e-11
2.24103e-10
-1.31946e-10
2.5501e-10
-1.69993e-10
2.79968e-10
-2.1031e-10
2.99697e-10
-2.5238e-10
3.14723e-10
-2.95783e-10
3.25577e-10
-3.40131e-10
3.32788e-10
-3.85143e-10
3.36819e-10
-4.30575e-10
3.37969e-10
-4.7623e-10
3.36406e-10
-5.21896e-10
3.32162e-10
-5.67355e-10
3.25187e-10
-6.12344e-10
3.15349e-10
-6.5657e-10
3.02458e-10
-6.9968e-10
2.86273e-10
-7.41265e-10
2.66509e-10
-7.80833e-10
2.42854e-10
-8.17801e-10
2.14964e-10
-8.51478e-10
1.82477e-10
-8.81052e-10
1.45026e-10
-9.05588e-10
1.02261e-10
-9.24027e-10
5.38834e-11
-9.35199e-10
-3.07299e-13
-9.37848e-10
-6.03593e-11
-9.30674e-10
-1.26106e-10
-9.12384e-10
-1.9711e-10
-8.81756e-10
-2.72607e-10
-8.37717e-10
-3.51458e-10
-7.79438e-10
-4.32099e-10
-7.06449e-10
-5.12502e-10
-6.18791e-10
-5.90155e-10
-5.17161e-10
-6.62126e-10
-4.03017e-10
-7.25246e-10
-2.78586e-10
-7.76422e-10
-1.46753e-10
-8.12966e-10
-1.08884e-11
-8.32865e-10
1.25372e-10
-8.34961e-10
2.58365e-10
-8.19051e-10
3.8463e-10
-7.85895e-10
5.01126e-10
-7.37151e-10
6.05415e-10
-6.75244e-10
6.95797e-10
-6.03168e-10
7.71367e-10
-5.24209e-10
8.31963e-10
-4.41605e-10
8.78022e-10
-3.58243e-10
9.10401e-10
-2.76492e-10
9.30214e-10
-1.98193e-10
9.38715e-10
-1.24703e-10
9.37215e-10
-5.69587e-11
9.2702e-10
4.47413e-12
9.09388e-10
5.93463e-11
8.85495e-10
1.07675e-10
8.56418e-10
1.49683e-10
8.23117e-10
1.85748e-10
7.86435e-10
2.1635e-10
7.47101e-10
2.42031e-10
7.05736e-10
2.63348e-10
6.6286e-10
2.80847e-10
6.18899e-10
2.95026e-10
5.74203e-10
3.06308e-10
5.29049e-10
3.15027e-10
4.83668e-10
3.21411e-10
4.38242e-10
3.25584e-10
3.92953e-10
3.27552e-10
3.4797e-10
3.27212e-10
3.03503e-10
3.24325e-10
2.5979e-10
3.18521e-10
2.17164e-10
3.09279e-10
1.76045e-10
2.95982e-10
1.37013e-10
2.77957e-10
1.00803e-10
2.5454e-10
6.83492e-11
2.24935e-10
4.07314e-11
1.88241e-10
1.92192e-11
1.44053e-10
5.1603e-12
9.2255e-11
3.27586e-11
-5.13389e-12
3.68358e-11
-1.92678e-11
1.0409e-10
-4.09051e-11
1.63318e-10
-6.86073e-11
2.13999e-10
-1.01232e-10
2.56472e-10
-1.3772e-10
2.91265e-10
-1.77077e-10
3.19111e-10
-2.18544e-10
3.40976e-10
-2.61647e-10
3.57659e-10
-3.06009e-10
3.69796e-10
-3.51346e-10
3.77999e-10
-3.97413e-10
3.82777e-10
-4.44039e-10
3.84497e-10
-4.91064e-10
3.83339e-10
-5.38346e-10
3.79349e-10
-5.85712e-10
3.72448e-10
-6.32957e-10
3.62469e-10
-6.79826e-10
3.49175e-10
-7.26004e-10
3.32262e-10
-7.71101e-10
3.11377e-10
-8.14637e-10
2.86115e-10
-8.56023e-10
2.5603e-10
-8.94537e-10
2.20633e-10
-9.29312e-10
1.79416e-10
-9.59317e-10
1.31872e-10
-9.83358e-10
7.75428e-11
-1.00008e-09
1.60736e-11
-1.00799e-09
-5.27139e-11
-1.00552e-09
-1.28747e-10
-9.91037e-10
-2.11623e-10
-9.62976e-10
-3.00547e-10
-9.1987e-10
-3.94269e-10
-8.60485e-10
-4.91008e-10
-7.83963e-10
-5.88365e-10
-6.90032e-10
-6.83254e-10
-5.79254e-10
-7.71914e-10
-4.53211e-10
-8.50162e-10
-3.14521e-10
-9.13868e-10
-1.6669e-10
-9.59462e-10
-1.38585e-11
-9.84287e-10
1.39488e-10
-9.8684e-10
2.88843e-10
-9.66894e-10
4.29973e-10
-9.25495e-10
5.5919e-10
-8.64857e-10
6.7359e-10
-7.88194e-10
7.71246e-10
-6.99474e-10
8.51294e-10
-6.03051e-10
9.13852e-10
-5.03141e-10
9.59767e-10
-4.03357e-10
9.90336e-10
-3.06497e-10
1.00708e-09
-2.14608e-10
1.01162e-09
-1.2912e-10
1.00557e-09
-5.09661e-11
9.9049e-10
1.93437e-11
9.67844e-10
8.16599e-11
9.38972e-10
1.36126e-10
9.05068e-10
1.83112e-10
8.6718e-10
2.23138e-10
8.26208e-10
2.56829e-10
7.82917e-10
2.84854e-10
7.37947e-10
3.07892e-10
6.91824e-10
3.26594e-10
6.44967e-10
3.41556e-10
5.97709e-10
3.53285e-10
5.50305e-10
3.62187e-10
5.02943e-10
3.68552e-10
4.55775e-10
3.72546e-10
4.08917e-10
3.74204e-10
3.62496e-10
3.7342e-10
3.16645e-10
3.69945e-10
2.71561e-10
3.63356e-10
2.275e-10
3.53064e-10
1.84863e-10
3.38321e-10
1.44188e-10
3.18308e-10
1.06264e-10
2.9212e-10
7.20902e-11
2.58747e-10
4.29132e-11
2.17045e-10
2.01683e-11
1.66413e-10
5.3756e-12
1.06673e-10
3.79673e-11
-5.35812e-12
4.20305e-11
-2.02417e-11
1.18684e-10
-4.31128e-11
1.85926e-10
-7.23168e-11
2.4296e-10
-1.06377e-10
2.90305e-10
-1.44173e-10
3.28847e-10
-1.84672e-10
3.59418e-10
-2.27108e-10
3.83237e-10
-2.70971e-10
4.01371e-10
-3.15983e-10
4.14674e-10
-3.61935e-10
4.23836e-10
-4.08698e-10
4.29438e-10
-4.56161e-10
4.31866e-10
-5.04247e-10
4.31334e-10
-5.52867e-10
4.27875e-10
-6.01917e-10
4.2139e-10
-6.51248e-10
4.11672e-10
-7.00657e-10
3.98427e-10
-7.49876e-10
3.81288e-10
-7.9855e-10
3.59817e-10
-8.46226e-10
3.33515e-10
-8.92323e-10
3.01812e-10
-9.36112e-10
2.64079e-10
-9.76682e-10
2.1963e-10
-1.01292e-09
1.67767e-10
-1.04351e-09
1.07819e-10
-1.0669e-09
3.92201e-11
-1.08134e-09
-3.84067e-11
-1.08495e-09
-1.25143e-10
-1.07574e-09
-2.20685e-10
-1.05168e-09
-3.24264e-10
-1.01085e-09
-4.34577e-10
-9.51453e-10
-5.49685e-10
-8.72073e-10
-6.66848e-10
-7.71931e-10
-7.82339e-10
-6.51312e-10
-8.91345e-10
-5.119e-10
-9.88282e-10
-3.56804e-10
-1.06759e-09
-1.90326e-10
-1.12452e-09
-1.76124e-11
-1.15554e-09
1.55752e-10
-1.15871e-09
3.24172e-10
-1.13377e-09
4.82438e-10
-1.08216e-09
6.26047e-10
-1.00683e-09
7.51511e-10
-9.12029e-10
8.56636e-10
-8.0302e-10
9.40681e-10
-6.8561e-10
1.00422e-09
-5.65351e-10
1.04875e-09
-4.46752e-10
1.07615e-09
-3.33029e-10
1.08849e-09
-2.26334e-10
1.08779e-09
-1.28062e-10
1.07602e-09
-3.90589e-11
1.05502e-09
4.02886e-11
1.02648e-09
1.09988e-10
9.91912e-10
1.70371e-10
9.52614e-10
2.21998e-10
9.09712e-10
2.65582e-10
8.64152e-10
3.01915e-10
8.16721e-10
3.31823e-10
7.68064e-10
3.56118e-10
7.18698e-10
3.75573e-10
6.69026e-10
3.90886e-10
6.19356e-10
4.02661e-10
5.69904e-10
4.11381e-10
5.20821e-10
4.17406e-10
4.72199e-10
4.20954e-10
4.24105e-10
4.22092e-10
3.76581e-10
4.20731e-10
3.29704e-10
4.166e-10
2.83571e-10
4.09247e-10
2.38384e-10
3.97991e-10
1.94443e-10
3.81979e-10
1.52272e-10
3.60177e-10
1.12632e-10
3.31438e-10
7.66234e-11
2.9442e-10
4.56446e-11
2.47678e-10
2.13987e-11
1.90303e-10
5.6454e-12
1.2208e-10
4.34638e-11
-5.6991e-12
4.7583e-11
-2.1644e-11
1.34377e-10
-4.61322e-11
2.10184e-10
-7.71613e-11
2.7378e-10
-1.129e-10
3.25846e-10
-1.51969e-10
3.67733e-10
-1.93415e-10
4.00696e-10
-2.36513e-10
4.26185e-10
-2.8083e-10
4.45555e-10
-3.26131e-10
4.59861e-10
-3.72338e-10
4.69942e-10
-4.19409e-10
4.76421e-10
-4.6735e-10
4.79725e-10
-5.16155e-10
4.80059e-10
-5.65819e-10
4.77451e-10
-6.16299e-10
4.71769e-10
-6.67514e-10
4.62763e-10
-7.1932e-10
4.5008e-10
-7.71503e-10
4.3328e-10
-8.2376e-10
4.11845e-10
-8.75677e-10
3.85164e-10
-9.26709e-10
3.52545e-10
-9.76139e-10
3.13191e-10
-1.02304e-09
2.66221e-10
-1.06626e-09
2.10694e-10
-1.10434e-09
1.45677e-10
-1.13556e-09
7.03158e-11
-1.15791e-09
-1.60442e-11
-1.16916e-09
-1.13728e-10
-1.16689e-09
-2.22604e-10
-1.14859e-09
-3.4201e-10
-1.11173e-09
-4.70688e-10
-1.05382e-09
-6.06658e-10
-9.7264e-10
-7.46948e-10
-8.66587e-10
-8.87191e-10
-7.35433e-10
-1.02122e-09
-5.80925e-10
-1.14148e-09
-4.06802e-10
-1.24039e-09
-2.18401e-10
-1.31161e-09
-2.21788e-11
-1.35049e-09
1.74827e-10
-1.35446e-09
3.65613e-10
-1.32326e-09
5.43722e-10
-1.25888e-09
7.03638e-10
-1.16526e-09
8.41144e-10
-1.04796e-09
9.53727e-10
-9.13989e-10
1.04089e-09
-7.7116e-10
1.10398e-09
-6.26893e-10
1.14543e-09
-4.86806e-10
1.16799e-09
-3.5442e-10
1.17434e-09
-2.31782e-10
1.16697e-09
-1.20078e-10
1.14822e-09
-1.99543e-11
1.12024e-09
6.84002e-11
1.08494e-09
1.45227e-10
1.04398e-09
2.11113e-10
9.98776e-10
2.66876e-10
9.50504e-10
3.13457e-10
9.00131e-10
3.51854e-10
8.4845e-10
3.83064e-10
7.96091e-10
4.08056e-10
7.43551e-10
4.27727e-10
6.91203e-10
4.42892e-10
6.39316e-10
4.54248e-10
5.8807e-10
4.62368e-10
5.37558e-10
4.67688e-10
4.87819e-10
4.70484e-10
4.38844e-10
4.70866e-10
3.90614e-10
4.68762e-10
3.43101e-10
4.63904e-10
2.96327e-10
4.558e-10
2.50366e-10
4.43713e-10
2.05436e-10
4.26653e-10
1.6194e-10
4.03399e-10
1.20618e-10
3.7247e-10
8.25827e-11
3.32152e-10
4.94313e-11
2.80519e-10
2.31859e-11
2.16228e-10
6.05272e-12
1.38902e-10
4.93882e-11
-6.28761e-12
5.37437e-11
-2.39593e-11
1.51834e-10
-5.074e-11
2.36772e-10
-8.40246e-11
3.06892e-10
-1.21636e-10
3.63297e-10
-1.61959e-10
4.07906e-10
-2.04055e-10
4.42657e-10
-2.47406e-10
4.69415e-10
-2.91705e-10
4.8975e-10
-3.36862e-10
5.04927e-10
-3.82885e-10
5.15889e-10
-4.29864e-10
5.23333e-10
-4.7789e-10
5.27689e-10
-5.27062e-10
5.29166e-10
-5.77441e-10
5.2776e-10
-6.29065e-10
5.23304e-10
-6.81915e-10
5.15501e-10
-7.35916e-10
5.03936e-10
-7.90916e-10
4.881e-10
-8.46672e-10
4.6738e-10
-9.02832e-10
4.41071e-10
-9.58907e-10
4.08341e-10
-1.01423e-09
3.68229e-10
-1.06789e-09
3.19622e-10
-1.11872e-09
2.61306e-10
-1.16519e-09
1.92017e-10
-1.20541e-09
1.10537e-10
-1.23712e-09
1.58242e-11
-1.25771e-09
-9.27947e-11
-1.26431e-09
-2.15458e-10
-1.25386e-09
-3.51703e-10
-1.22315e-09
-5.00455e-10
-1.16882e-09
-6.59897e-10
-1.08748e-09
-8.27092e-10
-9.76259e-10
-9.97168e-10
-8.33999e-10
-1.16225e-09
-6.62438e-10
-1.31187e-09
-4.66147e-10
-1.4356e-09
-2.51796e-10
-1.52498e-09
-2.7573e-11
-1.57385e-09
1.97553e-10
-1.57882e-09
4.14697e-10
-1.53966e-09
6.15808e-10
-1.45914e-09
7.94127e-10
-1.34252e-09
9.44547e-10
-1.19713e-09
1.06419e-09
-1.03221e-09
1.15298e-09
-8.58414e-10
1.21351e-09
-6.85829e-10
1.24968e-09
-5.21417e-10
1.26535e-09
-3.68687e-10
1.26391e-09
-2.29185e-10
1.24834e-09
-1.0363e-10
1.22132e-09
7.65106e-12
1.1853e-09
1.04742e-10
1.14242e-09
1.88198e-10
1.09449e-09
2.58955e-10
1.04299e-09
3.18154e-10
9.89107e-10
3.67016e-10
9.33815e-10
4.06765e-10
8.77881e-10
4.38595e-10
8.21905e-10
4.63632e-10
7.66344e-10
4.82917e-10
7.11529e-10
4.97372e-10
6.57684e-10
5.078e-10
6.04939e-10
5.1486e-10
5.53336e-10
5.19071e-10
5.02846e-10