/*--------------------------------*- C++ -*----------------------------------*\
| =========                 |                                                 |
| \\      /  F ield         | OpenFOAM: The Open Source CFD Toolbox           |
|  \\    /   O peration     | Version:  2412                                  |
|   \\  /    A nd           | Website:  www.openfoam.com                      |
|    \\/     M anipulation  |                                                 |
\*---------------------------------------------------------------------------*/
FoamFile
{
    version     2.0;
    format      ascii;
    arch        "LSB;label=32;scalar=64";
    class       surfaceScalarField;
    location    "3.65";
    object      alphaPhi0.lava;
}
// * * * * * * * * * * * * * * * * * * * * * * * * * * * * * * * * * * * * * //

dimensions      [0 3 -1 0 0 0 0];

oriented        oriented;

internalField   nonuniform List<scalar> 
12640
(
-2.12557e-08
1.1529e-08
-2.57e-08
4.97224e-08
-8.61045e-09
6.7579e-08
2.70639e-08
3.86929e-08
6.00612e-08
-3.7337e-08
6.17851e-08
-1.21425e-07
2.01122e-08
-1.55432e-07
-4.75228e-08
-1.01125e-07
-1.00987e-07
2.7946e-08
-1.01945e-07
1.65577e-07
-4.05787e-08
2.28321e-07
5.38283e-08
1.67468e-07
1.27355e-07
4.5199e-09
1.33537e-07
-1.74902e-07
6.32937e-08
-2.68314e-07
-4.68596e-08
-2.17407e-07
-1.34749e-07
-4.52572e-08
-1.49175e-07
1.54356e-07
-8.08037e-08
2.70405e-07
3.18375e-08
2.38946e-07
1.2502e-07
7.97124e-08
1.47244e-07
-1.16525e-07
8.86751e-08
-2.41506e-07
-1.46955e-08
-2.31206e-07
-1.03684e-07
-9.94875e-08
-1.30761e-07
7.43379e-08
-8.60127e-08
1.94091e-07
1.86397e-10
2.01107e-07
7.75765e-08
1.03004e-07
1.05744e-07
-3.70822e-08
7.53526e-08
-1.40801e-07
9.70282e-09
-1.58704e-07
-5.19999e-08
-9.31286e-08
-7.80246e-08
1.00942e-08
-6.01588e-08
9.22881e-08
-1.45436e-08
1.14883e-07
3.08362e-08
7.63447e-08
5.29484e-08
6.59911e-09
4.48618e-08
-5.40532e-08
1.62471e-08
-7.73972e-08
-1.4918e-08
-5.90277e-08
-3.31356e-08
-1.55719e-08
-3.24099e-08
2.78232e-08
-1.6821e-08
5.10825e-08
3.85674e-09
4.70349e-08
1.98302e-08
2.15785e-08
2.51696e-08
-1.14365e-08
1.89494e-08
-3.68442e-08
4.49599e-09
-4.37102e-08
-1.20703e-08
-2.89089e-08
-2.35876e-08
1.48894e-09
-2.41673e-08
3.36419e-08
-1.19943e-08
5.09002e-08
8.59841e-09
4.16265e-08
2.7678e-08
6.70381e-09
3.39102e-08
-3.80256e-08
2.10723e-08
-6.77405e-08
-6.78532e-09
-6.17716e-08
-3.54835e-08
-1.72581e-08
-4.75162e-08
4.54832e-08
-3.2528e-08
9.1274e-08
4.75738e-09
8.94433e-08
4.4935e-08
3.37341e-08
6.38536e-08
-5.00504e-08
4.71201e-08
-1.15458e-07
3.96485e-10
-1.21284e-07
-5.17159e-08
-5.73524e-08
-7.88336e-08
4.60324e-08
-6.28197e-08
1.3252e-07
-9.72159e-09
1.51167e-07
5.2384e-08
8.67958e-08
8.90534e-08
-2.9233e-08
7.94004e-08
-1.3517e-07
2.77809e-08
-1.73148e-07
-4.00939e-08
-1.21528e-07
-9.37612e-08
-6.3191e-09
-1.1421e-07
1.14882e-07
-9.95333e-08
1.85253e-07
-6.09996e-08
1.75012e-07
6.72569e-08
-8.97491e-09
-1.43353e-08
-3.95108e-08
3.55499e-08
-6.17671e-08
8.4429e-08
-4.39912e-08
8.88813e-08
1.91777e-08
2.47832e-08
9.08861e-08
-8.43796e-08
1.18619e-07
-1.74211e-07
7.17303e-08
-1.77556e-07
-3.27787e-08
-7.18047e-08
-1.35281e-07
9.72415e-08
-1.68842e-07
2.35021e-07
-1.033e-07
2.53381e-07
3.11541e-08
1.27828e-07
1.58253e-07
-8.07971e-08
2.00818e-07
-2.57071e-07
1.29043e-07
-2.9784e-07
-1.90465e-08
-1.74832e-07
-1.58814e-07
4.60726e-08
-2.09406e-07
2.4181e-07
-1.4217e-07
3.03606e-07
2.75137e-09
1.99759e-07
1.41335e-07
-7.6455e-09
1.96044e-07
-2.00962e-07
1.40532e-07
-2.75839e-07
1.22234e-08
-1.99237e-07
-1.1297e-07
-2.34242e-08
-1.66581e-07
1.49222e-07
-1.25753e-07
2.26962e-07
-2.20057e-08
1.78197e-07
8.17766e-08
4.2668e-08
1.29781e-07
-9.8034e-08
1.0336e-07
-1.69674e-07
2.66174e-08
-1.4441e-07
-5.26231e-08
-4.93414e-08
-9.23407e-08
5.5983e-08
-7.81911e-08
1.1611e-07
-2.66467e-08
1.08125e-07
2.92142e-08
4.7908e-08
6.03099e-08
-2.51668e-08
5.59604e-08
-7.27907e-08
2.54774e-08
-7.66686e-08
-1.10847e-08
-4.32379e-08
-3.54333e-08
4.87733e-09
-3.92859e-08
4.30086e-08
-2.53e-08
5.57982e-08
-2.64788e-09
4.1425e-08
1.85032e-08
9.34196e-09
3.05072e-08
-2.52135e-08
2.94277e-08
-4.70781e-08
1.53707e-08
-4.62265e-08
-7.01998e-09
-2.16951e-08
-2.86598e-08
1.66761e-08
-3.84535e-08
5.05806e-08
-2.85776e-08
6.06887e-08
-3.48551e-10
3.71391e-08
3.35803e-08
-1.23807e-08
5.39268e-08
-6.31168e-08
4.54403e-08
-8.46324e-08
7.75344e-09
-5.8551e-08
-4.1105e-08
7.51779e-09
-7.26834e-08
7.98916e-08
-6.45462e-08
1.15413e-07
-1.56934e-08
8.69439e-08
4.95128e-08
2.70125e-09
9.32833e-08
-9.39755e-08
8.65326e-08
-1.46937e-07
2.80427e-08
-1.20161e-07
-5.20693e-08
-2.16734e-08
-1.08254e-07
9.74085e-08
-1.06156e-07
1.70145e-07
-4.37449e-08
1.524e-07
4.64691e-08
4.97766e-08
1.15749e-07
-8.38904e-08
1.2622e-07
-1.76465e-07
6.98259e-08
-1.78235e-07
-2.99911e-08
-8.91634e-08
-1.31326e-07
4.33703e-08
-1.83029e-07
1.52705e-07
-1.65126e-07
1.84366e-07
1.03374e-07
3.72163e-08
-3.81659e-08
-1.585e-09
-1.15068e-08
-6.86108e-08
5.465e-08
-1.09968e-07
1.13658e-07
-7.68099e-08
1.13155e-07
2.41277e-08
3.23595e-08
1.3422e-07
-9.4564e-08
1.78304e-07
-1.92247e-07
1.14968e-07
-1.90078e-07
-3.06999e-08
-7.17024e-08
-1.76236e-07
1.0616e-07
-2.30425e-07
2.41872e-07
-1.51759e-07
2.49484e-07
2.14581e-08
1.1424e-07
1.90612e-07
-9.33739e-08
2.55399e-07
-2.56206e-07
1.75351e-07
-2.79418e-07
-4.52001e-09
-1.47689e-07
-1.80321e-07
6.48038e-08
-2.51602e-07
2.37963e-07
-1.80695e-07
2.76255e-07
-1.29743e-08
1.63238e-07
1.52824e-07
-3.18698e-08
2.24404e-07
-1.97565e-07
1.68615e-07
-2.45546e-07
2.62938e-08
-1.58868e-07
-1.1679e-07
4.07125e-09
-1.82434e-07
1.48478e-07
-1.43289e-07
1.99148e-07
-3.26982e-08
1.39837e-07
8.09047e-08
1.54275e-08
1.36348e-07
-1.00046e-07
1.12463e-07
-1.47394e-07
3.39264e-08
-1.12072e-07
-4.92566e-08
-2.52543e-08
-9.299e-08
6.00692e-08
-8.17646e-08
1.00745e-07
-3.15964e-08
8.42522e-08
2.46675e-08
2.93541e-08
5.80061e-08
-2.97331e-08
5.71946e-08
-6.37288e-08
3.00695e-08
-6.1493e-08
-5.28726e-09
-3.10426e-08
-3.184e-08
8.78329e-09
-4.06376e-08
3.91364e-08
-3.1593e-08
4.86413e-08
-1.04469e-08
3.56989e-08
1.44606e-08
7.09458e-09
3.40128e-08
-2.49318e-08
3.9806e-08
-4.63507e-08
2.69921e-08
-4.60637e-08
-1.85504e-09
-2.12921e-08
-3.4828e-08
1.87828e-08
-5.41318e-08
5.4617e-08
-4.52291e-08
6.47589e-08
-7.2326e-09
3.82778e-08
4.26933e-08
-1.58973e-08
7.59956e-08
-7.00075e-08
6.87729e-08
-9.0953e-08
1.83033e-08
-6.0181e-08
-5.11854e-08
1.19031e-08
-9.94963e-08
8.75874e-08
-9.37382e-08
1.21312e-07
-3.03345e-08
8.70741e-08
5.89326e-08
-2.82632e-09
1.22815e-07
-1.00876e-07
1.2055e-07
-1.49819e-07
4.79653e-08
-1.16673e-07
-5.72452e-08
-1.46109e-08
-1.35773e-07
1.01869e-07
-1.41079e-07
1.67149e-07
-6.71109e-08
1.42719e-07
4.73448e-08
4.0254e-08
1.39779e-07
-8.47601e-08
1.57351e-07
-1.65129e-07
8.47225e-08
-1.59723e-07
-4.43784e-08
-7.43369e-08
-1.50511e-07
4.32494e-08
-1.69584e-07
1.26216e-07
1.09066e-07
9.1926e-08
-4.04718e-08
7.20139e-08
-6.75055e-08
-1.20345e-08
-2.41952e-08
-1.15272e-07
6.84206e-08
-1.5939e-07
1.52562e-07
-9.99856e-08
1.60444e-07
4.18452e-08
6.51106e-08
1.84384e-07
-9.26689e-08
2.32982e-07
-2.22098e-07
1.42738e-07
-2.36937e-07
-4.58396e-08
-1.13193e-07
-2.25132e-07
8.86957e-08
-2.84496e-07
2.54718e-07
-1.80416e-07
2.84662e-07
3.27691e-08
1.54549e-07
2.32782e-07
-6.56756e-08
3.02526e-07
-2.51603e-07
2.01019e-07
-2.97569e-07
-1.20237e-08
-1.78918e-07
-2.12825e-07
3.44667e-08
-2.88019e-07
2.20776e-07
-2.00664e-07
2.78186e-07
-8.31884e-09
1.82204e-07
1.75326e-07
-4.65841e-09
2.49292e-07
-1.7385e-07
1.82027e-07
-2.35192e-07
2.35013e-08
-1.65772e-07
-1.30544e-07
-1.63615e-08
-1.97069e-07
1.24229e-07
-1.50745e-07
1.82325e-07
-3.10489e-08
1.37922e-07
8.79725e-08
2.85685e-08
1.43277e-07
-7.89914e-08
1.15678e-07
-1.29122e-07
3.33101e-08
-1.05303e-07
-5.15837e-08
-3.23498e-08
-9.4985e-08
4.40056e-08
-8.28829e-08
8.48625e-08
-3.24609e-08
7.67924e-08
2.36325e-08
3.32622e-08
5.74702e-08
-1.80165e-08
5.84247e-08
-5.17464e-08
3.34457e-08
-5.61391e-08
-1.3399e-09
-3.45869e-08
-3.02921e-08
-2.84654e-10
-4.37344e-08
3.1129e-08
-3.86429e-08
4.717e-08
-1.73913e-08
4.16163e-08
1.2882e-08
1.61002e-08
4.05838e-08
-1.94851e-08
5.21228e-08
-4.90339e-08
3.79633e-08
-5.61174e-08
-6.31736e-12
-3.26941e-08
-4.5266e-08
1.37797e-08
-7.23374e-08
6.05251e-08
-6.06832e-08
7.95541e-08
-9.45139e-09
5.39828e-08
5.7234e-08
-8.82207e-09
1.00594e-07
-7.69326e-08
8.95368e-08
-1.09458e-07
2.21962e-08
-8.08875e-08
-6.80315e-08
3.37327e-10
-1.28583e-07
9.20864e-08
-1.18574e-07
1.40331e-07
-3.60778e-08
1.11242e-07
7.63926e-08
1.42612e-08
1.54059e-07
-9.9514e-08
1.48011e-07
-1.6492e-07
5.62807e-08
-1.41011e-07
-7.21994e-08
-3.69508e-08
-1.64555e-07
9.12694e-08
-1.66401e-07
1.72357e-07
-7.43763e-08
1.60996e-07
6.04014e-08
6.38746e-08
1.60223e-07
-6.48646e-08
1.65343e-07
-1.55081e-07
7.27661e-08
-1.59718e-07
-4.55625e-08
-8.0833e-08
-1.02004e-07
2.65926e-08
8.21242e-08
1.0987e-07
-8.8843e-09
1.32889e-07
-8.81776e-08
8.36147e-08
-1.09092e-07
-3.54791e-08
-4.3148e-08
-1.58771e-07
8.57119e-08
-2.01342e-07
1.97763e-07
-1.1775e-07
2.09308e-07
5.79839e-08
9.14319e-08
2.24137e-07
-1.02493e-07
2.72217e-07
-2.61901e-07
1.58773e-07
-2.84821e-07
-6.03127e-08
-1.44149e-07
-2.5856e-07
8.91253e-08
-3.15082e-07
2.83523e-07
-1.90489e-07
3.24586e-07
4.62761e-08
1.84693e-07
2.58096e-07
-5.85503e-08
3.22232e-07
-2.67375e-07
2.03808e-07
-3.24956e-07
-2.49301e-08
-2.031e-07
-2.30182e-07
2.38518e-08
-2.97354e-07
2.25589e-07
-1.96796e-07
2.92922e-07
4.06931e-09
1.98448e-07
1.86122e-07
6.32629e-09
2.5062e-07
-1.70911e-07
1.73562e-07
-2.39365e-07
1.201e-08
-1.74074e-07
-1.36557e-07
-2.53928e-08
-1.93475e-07
1.17389e-07
-1.40361e-07
1.79731e-07
-2.12313e-08
1.4037e-07
9.0697e-08
3.5163e-08
1.37566e-07
-7.09432e-08
1.05871e-07
-1.23243e-07
2.60452e-08
-1.0446e-07
-5.20111e-08
-3.6961e-08
-8.92515e-08
3.64939e-08
-7.56394e-08
7.87363e-08
-2.87066e-08
7.55972e-08
2.20633e-08
3.75627e-08
5.28591e-08
-1.11307e-08
5.50513e-08
-4.69273e-08
3.41178e-08
-5.67668e-08
2.51602e-09
-4.03911e-08
-2.7071e-08
-7.26331e-09
-4.48159e-08
2.82289e-08
-4.43575e-08
5.12556e-08
-2.39386e-08
5.08867e-08
1.10058e-08
2.46786e-08
4.64597e-08
-1.80077e-08
6.35147e-08
-5.72105e-08
4.79835e-08
-7.02909e-08
1.31302e-09
-4.45237e-08
-5.52456e-08
1.24515e-08
-8.89167e-08
7.22907e-08
-7.40331e-08
9.9026e-08
-1.05573e-08
7.02466e-08
7.05139e-08
-5.97625e-09
1.21454e-07
-9.0627e-08
1.05858e-07
-1.33221e-07
2.39172e-08
-1.0186e-07
-8.24582e-08
-5.88656e-09
-1.50903e-07
1.04623e-07
-1.35655e-07
1.6517e-07
-3.80096e-08
1.35075e-07
9.02062e-08
2.45044e-08
1.74756e-07
-1.07722e-07
1.63082e-07
-1.86441e-07
5.75886e-08
-1.6424e-07
-8.34086e-08
-5.07205e-08
-1.78883e-07
9.17238e-08
-1.73201e-07
1.83766e-07
-7.01096e-08
1.7532e-07
6.83591e-08
7.42494e-08
1.59497e-07
-5.8924e-08
1.54049e-07
-1.47127e-07
7.70583e-08
-1.43306e-07
4.70951e-09
-6.26799e-08
3.07949e-08
6.06644e-08
4.2762e-08
1.26509e-07
-4.86566e-08
1.55161e-07
-1.39381e-07
9.30965e-08
-1.55093e-07
-5.22217e-08
-6.06504e-08
-1.97672e-07
1.02633e-07
-2.4183e-07
2.37359e-07
-1.37352e-07
2.49318e-07
6.85923e-08
1.1127e-07
2.56074e-07
-1.10812e-07
3.05419e-07
-2.9044e-07
1.75209e-07
-3.15803e-07
-6.62804e-08
-1.6112e-07
-2.78829e-07
9.2267e-08
-3.35127e-07
3.00835e-07
-1.99449e-07
3.43753e-07
4.96869e-08
1.95453e-07
2.6707e-07
-5.89186e-08
3.28509e-07
-2.74414e-07
2.04004e-07
-3.31875e-07
-2.78143e-08
-2.05978e-07
-2.30521e-07
2.41723e-08
-2.92399e-07
2.25637e-07
-1.89387e-07
2.90451e-07
7.62114e-09
1.94697e-07
1.81228e-07
4.98677e-09
2.38547e-07
-1.67014e-07
1.61255e-07
-2.3109e-07
7.57145e-09
-1.6597e-07
-1.29531e-07
-2.27487e-08
-1.78654e-07
1.12309e-07
-1.2653e-07
1.69524e-07
-1.66811e-08
1.31013e-07
8.34621e-08
3.21811e-08
1.23317e-07
-6.60065e-08
9.34206e-08
-1.13738e-07
2.25623e-08
-9.63167e-08
-4.53687e-08
-3.47963e-08
-7.76392e-08
3.22176e-08
-6.67801e-08
7.1671e-08
-2.77466e-08
7.07491e-08
1.56764e-08
3.78e-08
4.4537e-08
-6.8948e-09
5.10209e-08
-4.26798e-08
3.70239e-08
-5.62814e-08
9.67139e-09
-4.42992e-08
-2.16308e-08
-1.24329e-08
-4.59189e-08
2.64748e-08
-5.19966e-08
5.55638e-08
-3.29268e-08
5.94769e-08
7.62951e-09
3.19896e-08
5.24664e-08
-1.7787e-08
7.6362e-08
-6.59434e-08
5.98668e-08
-8.39294e-08
3.99776e-09
-5.5001e-08
-6.4831e-08
1.23481e-08
-1.06086e-07
8.40592e-08
-8.87308e-08
1.16856e-07
-1.34683e-08
8.40245e-08
8.19513e-08
-4.68145e-09
1.41098e-07
-1.03273e-07
1.22414e-07
-1.53124e-07
2.78316e-08
-1.18014e-07
-9.31422e-08
-9.49161e-09
-1.69504e-07
1.15028e-07
-1.51251e-07
1.8315e-07
-4.2294e-08
1.50544e-07
9.80582e-08
2.98958e-08
1.88307e-07
-1.13358e-07
1.73543e-07
-1.97896e-07
5.99354e-08
-1.74483e-07
-8.73684e-08
-5.58863e-08
-1.82724e-07
9.02492e-08
-1.71883e-07
1.81647e-07
-6.49317e-08
1.70437e-07
7.11441e-08
7.09222e-08
1.57607e-07
-5.10671e-08
1.56933e-07
-1.21298e-07
1.00437e-07
-1.06467e-07
-2.51503e-08
-4.37369e-08
8.17987e-08
3.52183e-08
3.63304e-08
1.43566e-07
-8.12132e-08
1.91662e-07
-1.86193e-07
1.10959e-07
-1.94856e-07
-6.75927e-08
-7.72856e-08
-2.36453e-07
1.1422e-07
-2.80279e-07
2.68718e-07
-1.54215e-07
2.83116e-07
7.97806e-08
1.31203e-07
2.85134e-07
-1.11365e-07
3.33801e-07
-3.06532e-07
1.88085e-07
-3.36053e-07
-7.20377e-08
-1.75464e-07
-2.95142e-07
8.75452e-08
-3.50062e-07
3.03346e-07
-2.05506e-07
3.49048e-07
5.19704e-08
2.01015e-07
2.71813e-07
-5.27778e-08
3.30397e-07
-2.66814e-07
2.02565e-07
-3.24158e-07
-2.8691e-08
-2.02216e-07
-2.26839e-07
1.98738e-08
-2.84303e-07
2.12945e-07
-1.81832e-07
2.74546e-07
8.40623e-09
1.84086e-07
1.72749e-07
6.41109e-09
2.24633e-07
-1.53219e-07
1.50089e-07
-2.11883e-07
6.37711e-09
-1.5183e-07
-1.1946e-07
-2.14777e-08
-1.63086e-07
1.00288e-07
-1.14741e-07
1.51372e-07
-1.55718e-08
1.17071e-07
7.36828e-08
2.9785e-08
1.09071e-07
-5.66389e-08
8.34854e-08
-9.91128e-08
2.2471e-08
-8.5261e-08
-3.66004e-08
-3.30037e-08
-6.64559e-08
2.52663e-08
-6.05789e-08
6.16827e-08
-2.99999e-08
6.44523e-08
7.46936e-09
3.85249e-08
3.68266e-08
-1.02909e-09
4.95816e-08
-3.69639e-08
4.28934e-08
-5.54022e-08
1.84047e-08
-4.8937e-08
-1.68613e-08
-1.87914e-08
-4.94432e-08
2.38967e-08
-6.23111e-08
5.98684e-08
-4.32909e-08
6.87919e-08
4.85983e-09
4.03072e-08
6.05222e-08
-1.67435e-08
9.13539e-08
-7.43135e-08
7.27267e-08
-9.77602e-08
6.08711e-09
-6.62492e-08
-7.59625e-08
1.09392e-08
-1.2463e-07
9.42525e-08
-1.0383e-07
1.33472e-07
-1.5855e-08
9.78237e-08
9.40721e-08
-1.51574e-09
1.6079e-07
-1.12477e-07
1.38244e-07
-1.69457e-07
3.09453e-08
-1.32598e-07
-1.03699e-07
-1.5152e-08
-1.86601e-07
1.1988e-07
-1.64613e-07
1.94408e-07
-4.51522e-08
1.61774e-07
1.05042e-07
3.65597e-08
1.9836e-07
-1.11784e-07
1.79232e-07
-1.99149e-07
5.87934e-08
-1.76737e-07
-9.11653e-08
-6.00515e-08
-1.8194e-07
8.14231e-08
-1.6235e-07
1.67428e-07
-4.93693e-08
1.55743e-07
8.48381e-08
6.54839e-08
1.56989e-07
-3.91373e-08
1.40835e-07
-9.26056e-08
-6.20199e-08
-1.4845e-07
7.74241e-08
-1.00883e-07
1.15983e-07
3.84057e-08
4.14405e-08
1.89089e-07
-1.00487e-07
2.33488e-07
-2.2162e-07
1.24605e-07
-2.29809e-07
-8.53536e-08
-9.50285e-08
-2.7094e-07
1.20582e-07
-3.09891e-07
2.92794e-07
-1.63589e-07
3.10537e-07
9.1796e-08
1.48942e-07
3.07066e-07
-1.08375e-07
3.50733e-07
-3.14967e-07
1.91628e-07
-3.48725e-07
-7.96477e-08
-1.86645e-07
-3.04796e-07
7.97727e-08
-3.53701e-07
2.98477e-07
-2.02014e-07
3.4702e-07
5.69835e-08
2.03477e-07
2.7153e-07
-4.40698e-08
3.22927e-07
-2.52964e-07
1.9286e-07
-3.105e-07
-3.25653e-08
-1.96215e-07
-2.20118e-07
1.32832e-08
-2.69703e-07
1.95404e-07
-1.68258e-07
2.54491e-07
1.17976e-08
1.72401e-07
1.62947e-07
9.98508e-09
2.07113e-07
-1.35928e-07
1.35412e-07
-1.90281e-07
3.40708e-09
-1.37762e-07
-1.09217e-07
-2.23171e-08
-1.46266e-07
8.58414e-08
-1.01678e-07
1.32196e-07
-1.36969e-08
1.04079e-07
6.42681e-08
2.94787e-08
9.51415e-08
-4.55881e-08
7.39359e-08
-8.43771e-08
2.2557e-08
-7.57083e-08
-2.82682e-08
-3.32899e-08
-5.64185e-08
1.70334e-08
-5.579e-08
5.20178e-08
-3.31383e-08
5.98473e-08
-4.61154e-10
4.12358e-08
3.05516e-08
5.91453e-09
5.00028e-08
-3.16719e-08
4.99794e-08
-5.6126e-08
2.69696e-08
-5.53822e-08
-1.35575e-08
-2.61653e-08
-5.48298e-08
2.15365e-08
-7.37316e-08
6.5333e-08
-5.33596e-08
7.9468e-08
3.47395e-09
4.95066e-08
6.99797e-08
-1.55414e-08
1.06693e-07
-8.30412e-08
8.46096e-08
-1.12109e-07
6.67389e-09
-7.80081e-08
-8.77885e-08
8.92272e-09
-1.4221e-07
1.03605e-07
-1.16723e-07
1.49191e-07
-1.63922e-08
1.11261e-07
1.05944e-07
2.50111e-09
1.77579e-07
-1.19455e-07
1.49863e-07
-1.82972e-07
3.12141e-08
-1.45324e-07
-1.13363e-07
-2.14059e-08
-1.98721e-07
1.21301e-07
-1.71239e-07
2.00686e-07
-4.35041e-08
1.69011e-07
1.10925e-07
4.26865e-08
2.01191e-07
-1.06408e-07
1.74781e-07
-1.93716e-07
5.02544e-08
-1.72566e-07
-9.43523e-08
-6.10435e-08
-1.70745e-07
7.15393e-08
-1.36528e-07
1.49066e-07
-2.22935e-08
1.35012e-07
8.34628e-08
5.17701e-08
1.11706e-07
-3.64814e-08
-6.49365e-08
-1.8663e-07
2.35571e-08
-2.02549e-07
1.34791e-07
-1.07569e-07
1.55466e-07
7.27035e-08
6.02137e-08
2.32001e-07
-1.10546e-07
2.6402e-07
-2.51298e-07
1.31088e-07
-2.60641e-07
-1.01144e-07
-1.11528e-07
-2.95768e-07
1.2292e-07
-3.27941e-07
3.07793e-07
-1.66489e-07
3.27727e-07
1.00918e-07
1.60658e-07
3.17874e-07
-1.03787e-07
3.54449e-07
-3.14936e-07
1.87439e-07
-3.50623e-07
-8.50693e-08
-1.90463e-07
-3.03727e-07
7.23272e-08
-3.44379e-07
2.87276e-07
-1.90659e-07
3.35876e-07
6.07352e-08
1.98973e-07
2.62282e-07
-3.69746e-08
3.04423e-07
-2.35394e-07
1.76279e-07
-2.90544e-07
-3.59529e-08
-1.84905e-07
-2.06835e-07
8.67571e-09
-2.4692e-07
1.76376e-07
-1.49533e-07
2.31083e-07
1.51266e-08
1.57563e-07
1.48946e-07
1.19065e-08
1.84388e-07
-1.18663e-07
1.17536e-07
-1.67757e-07
4.35503e-10
-1.22602e-07
-9.66695e-08
-2.2257e-08
-1.2679e-07
7.21319e-08
-8.72033e-08
1.13687e-07
-1.20193e-08
9.15512e-08
5.38048e-08
2.90982e-08
8.0386e-08
-3.53814e-08
6.43436e-08
-7.10765e-08
2.31437e-08
-6.75602e-08
-1.9577e-08
-3.42001e-08
-4.66605e-08
9.36581e-09
-5.18136e-08
4.38765e-08
-3.70104e-08
5.69401e-08
-8.42478e-09
4.49221e-08
2.50702e-08
1.26254e-08
5.15478e-08
-2.76162e-08
5.77491e-08
-5.8341e-08
3.53069e-08
-6.27559e-08
-1.11982e-08
-3.35183e-08
-6.11459e-08
1.99048e-08
-8.5352e-08
7.15932e-08
-6.27821e-08
9.04634e-08
2.95325e-09
5.85075e-08
7.96046e-08
-1.45859e-08
1.21062e-07
-9.15006e-08
9.49245e-08
-1.25568e-07
6.38671e-09
-8.88465e-08
-9.86616e-08
6.88526e-09
-1.57041e-07
1.11387e-07
-1.26583e-07
1.62208e-07
-1.58406e-08
1.2234e-07
1.15508e-07
6.26846e-09
1.89257e-07
-1.23716e-07
1.56268e-07
-1.91685e-07
2.9576e-08
-1.5362e-07
-1.19661e-07
-2.63644e-08
-2.03269e-07
1.19502e-07
-1.70051e-07
2.00306e-07
-3.86242e-08
1.69384e-07
1.1271e-07
4.54829e-08
1.94085e-07
-9.86755e-08
1.6015e-07
-1.80928e-07
3.81604e-08
-1.59219e-07
-9.09583e-08
-5.50803e-08
-1.47138e-07
6.304e-08
-1.0599e-07
1.24852e-07
-1.94e-08
1.02584e-07
3.54022e-08
2.76616e-08
-3.71362e-08
-1.23867e-07
-5.2848e-08
-2.00914e-07
7.19305e-08
-2.07288e-07
1.85164e-07
-9.66061e-08
1.98117e-07
9.58768e-08
7.68473e-08
2.59729e-07
-1.19703e-07
2.83456e-07
-2.74078e-07
1.33936e-07
-2.82666e-07
-1.12217e-07
-1.23956e-07
-3.09894e-07
1.20875e-07
-3.34964e-07
3.11616e-07
-1.64321e-07
3.32846e-07
1.06073e-07
1.65989e-07
3.17932e-07
-9.64844e-08
3.46958e-07
-3.04749e-07
1.78093e-07
-3.40602e-07
-8.68948e-08
-1.86955e-07
-2.92909e-07
6.41457e-08
-3.25211e-07
2.68398e-07
-1.74997e-07
3.14805e-07
6.13746e-08
1.87627e-07
2.45148e-07
-3.06168e-08
2.78379e-07
-2.13056e-07
1.56754e-07
-2.63652e-07
-3.67299e-08
-1.68323e-07
-1.87832e-07
5.46456e-09
-2.19184e-07
1.55102e-07
-1.29354e-07
2.03782e-07
1.62698e-08
1.39444e-07
1.31224e-07
1.24543e-08
1.59032e-07
-1.00931e-07
9.95221e-08
-1.43837e-07
-6.67689e-10
-1.06071e-07
-8.19566e-08
-2.13062e-08
-1.06433e-07
5.88797e-08
-7.3539e-08
9.54078e-08
-1.19821e-08
7.90714e-08
4.22217e-08
2.84318e-08
6.58573e-08
-2.59166e-08
5.6096e-08
-5.88189e-08
2.51675e-08
-6.03016e-08
-1.03977e-08
-3.53494e-08
-3.76879e-08
2.30354e-09
-4.93206e-08
3.68947e-08
-4.20391e-08
5.51159e-08
-1.64764e-08
4.90322e-08
2.05301e-08
1.89376e-08
5.43185e-08
-2.44283e-08
6.61502e-08
-6.12822e-08
4.33179e-08
-7.0289e-08
-9.71868e-09
-4.05335e-08
-6.80609e-08
1.86072e-08
-9.67127e-08
7.76709e-08
-7.12836e-08
1.00715e-07
3.12008e-09
6.67849e-08
8.87737e-08
-1.3476e-08
1.33725e-07
-9.8482e-08
1.0329e-07
-1.36733e-07
5.48488e-09
-9.79688e-08
-1.07797e-07
4.49477e-09
-1.68284e-07
1.16238e-07
-1.33046e-07
1.70837e-07
-1.45304e-08
1.29984e-07
1.21995e-07
9.93455e-09
1.95175e-07
-1.23952e-07
1.57408e-07
-1.93858e-07
2.66034e-08
-1.56266e-07
-1.21901e-07
-2.99453e-08
-2.00142e-07
1.13491e-07
-1.619e-07
1.91877e-07
-3.18622e-08
1.61944e-07
1.09864e-07
4.49191e-08
1.78794e-07
-8.78617e-08
1.39581e-07
-1.60071e-07
2.64803e-08
-1.37114e-07
-8.34445e-08
-4.47624e-08
-1.2627e-07
5.16324e-08
-9.67875e-08
9.28398e-08
-4.43863e-08
6.5944e-08
2.60579e-09
1.42593e-08
-1.06242e-07
-8.56171e-08
-3.99632e-08
-1.95331e-07
1.05358e-07
-2.19274e-07
2.23636e-07
-9.98656e-08
2.24074e-07
1.07886e-07
8.57048e-08
2.776e-07
-1.2416e-07
2.94403e-07
-2.84523e-07
1.33201e-07
-2.92807e-07
-1.19109e-07
-1.3159e-07
-3.13597e-07
1.14208e-07
-3.31008e-07
3.04227e-07
-1.56896e-07
3.26442e-07
1.07933e-07
1.65658e-07
3.08492e-07
-8.63246e-08
3.29608e-07
-2.85362e-07
1.64145e-07
-3.20477e-07
-8.60473e-08
-1.77872e-07
-2.74586e-07
5.46355e-08
-2.98653e-07
2.42938e-07
-1.56231e-07
2.86139e-07
5.98245e-08
1.71775e-07
2.22823e-07
-2.39573e-08
2.47799e-07
-1.86791e-07
1.35879e-07
-2.32068e-07
-3.56344e-08
-1.48867e-07
-1.6574e-07
2.38021e-09
-1.89487e-07
1.32032e-07
-1.09398e-07
1.74372e-07
1.57194e-08
1.20114e-07
1.12e-07
1.28862e-08
1.33614e-07
-8.2808e-08
8.28514e-08
-1.19697e-07
-1.89647e-10
-8.96781e-08
-6.67491e-08
-2.05091e-08
-8.71442e-08
4.59174e-08
-6.18081e-08
7.79556e-08
-1.34025e-08
6.75345e-08
3.06775e-08
2.81801e-08
5.28655e-08
-1.69419e-08
4.98843e-08
-4.77556e-08
2.8424e-08
-5.42659e-08
-1.52474e-09
-3.70418e-08
-3.02725e-08
-4.35111e-09
-4.85634e-08
3.09385e-08
-4.78733e-08
5.4248e-08
-2.39995e-08
5.34715e-08
1.73192e-08
2.49008e-08
5.81687e-08
-2.18178e-08
7.45927e-08
-6.446e-08
5.0392e-08
-7.75103e-08
-9.28388e-09
-4.70542e-08
-7.51076e-08
1.7305e-08
-1.06953e-07
8.28226e-08
-7.81391e-08
1.09437e-07
4.07841e-09
7.3962e-08
9.68489e-08
-1.19187e-08
1.43639e-07
-1.03134e-07
1.08858e-07
-1.44646e-07
3.80869e-09
-1.04836e-07
-1.14582e-07
1.58085e-09
-1.74921e-07
1.17403e-07
-1.35251e-07
1.74194e-07
-1.21786e-08
1.3366e-07
1.25078e-07
1.35223e-08
1.94713e-07
-1.19758e-07
1.5277e-07
-1.89075e-07
2.20461e-08
-1.53114e-07
-1.20247e-07
-3.21992e-08
-1.89713e-07
1.03379e-07
-1.47324e-07
1.76011e-07
-2.32562e-08
1.47751e-07
1.03782e-07
4.18598e-08
1.58142e-07
-7.43926e-08
1.14949e-07
-1.33882e-07
1.18654e-08
-1.11245e-07
-8.21444e-08
-3.47272e-08
-1.14742e-07
3.83341e-08
-8.86635e-08
6.3583e-08
3.21907e-08
1.53023e-07
-1.01634e-07
8.29389e-08
-1.32698e-07
-7.33638e-08
-3.75717e-08
-2.21065e-07
1.17893e-07
-2.40137e-07
2.37762e-07
-1.02324e-07
2.35552e-07
1.17831e-07
9.29274e-08
2.86758e-07
-1.20156e-07
2.94801e-07
-2.81639e-07
1.27306e-07
-2.91062e-07
-1.22113e-07
-1.34241e-07
-3.06633e-07
1.03646e-07
-3.15994e-07
2.8672e-07
-1.44313e-07
3.09452e-07
1.06654e-07
1.59811e-07
2.90208e-07
-7.43454e-08
3.03306e-07
-2.58739e-07
1.46079e-07
-2.92271e-07
-8.29955e-08
-1.64158e-07
-2.50087e-07
4.45996e-08
-2.66144e-07
2.13169e-07
-1.34985e-07
2.52465e-07
5.67582e-08
1.52919e-07
1.96935e-07
-1.74018e-08
2.1429e-07
-1.58674e-07
1.14262e-07
-1.9837e-07
-3.34136e-08
-1.28216e-07
-1.42174e-07
-5.26878e-10
-1.59311e-07
1.08774e-07
-9.01471e-08
1.45016e-07
1.41994e-08
1.01092e-07
9.26681e-08
1.33685e-08
1.09314e-07
-6.53713e-08
6.78127e-08
-9.68927e-08
1.20663e-09
-7.45656e-08
-5.21437e-08
-2.00806e-08
-6.97357e-08
3.38697e-08
-5.20797e-08
6.22667e-08
-1.56632e-08
5.7607e-08
1.99983e-08
2.8452e-08
4.18841e-08
-8.79407e-09
4.5552e-08
-3.83091e-08
3.22832e-08
-4.96396e-08
6.3999e-09
-3.91579e-08
-2.46151e-08
-1.03659e-08
-4.91519e-08
2.60729e-08
-5.37835e-08
5.40972e-08
-3.04169e-08
5.78219e-08
1.54444e-08
3.02306e-08
6.2471e-08
-1.96555e-08
8.21685e-08
-6.73011e-08
5.59092e-08
-8.36842e-08
-9.79201e-09
-5.26242e-08
-8.14534e-08
1.58453e-08
-1.14962e-07
8.62974e-08
-8.26185e-08
1.15655e-07
5.71411e-09
7.93727e-08
1.02901e-07
-9.89639e-09
1.49585e-07
-1.04761e-07
1.10821e-07
-1.48304e-07
1.41352e-09
-1.08656e-07
-1.18166e-07
-1.62963e-09
-1.75833e-07
1.14524e-07
-1.3246e-07
1.71602e-07
-8.76682e-09
1.32703e-07
1.24211e-07
1.65686e-08
1.87253e-07
-1.11404e-07
1.4207e-07
-1.77496e-07
1.5975e-08
-1.44149e-07
-1.14655e-07
-3.2708e-08
-1.72315e-07
9.02313e-08
-1.26887e-07
1.54343e-07
-1.29695e-08
1.28318e-07
9.49651e-08
3.6473e-08
1.32226e-07
-6.05296e-08
8.44466e-08
-1.06659e-07
-7.50896e-09
-8.4929e-08
-7.6014e-08
-2.29708e-08
-8.33967e-08
3.07342e-08
3.92128e-08
2.13481e-07
-3.88967e-08
2.08709e-07
-1.4714e-07
8.78187e-08
-1.54314e-07
-1.02558e-07
-5.19402e-08
-2.44422e-07
1.12287e-07
-2.46171e-07
2.38546e-07
-9.59242e-08
2.39392e-07
1.24375e-07
9.92901e-08
2.84035e-07
-1.09496e-07
2.83135e-07
-2.67047e-07
1.16384e-07
-2.78167e-07
-1.20794e-07
-1.31852e-07
-2.89296e-07
8.99153e-08
-2.90979e-07
2.6029e-07
-1.27617e-07
2.83058e-07
1.021e-07
1.48933e-07
2.64162e-07
-6.11978e-08
2.69776e-07
-2.26495e-07
1.25198e-07
-2.57729e-07
-7.77057e-08
-1.46683e-07
-2.20704e-07
3.46045e-08
-2.29521e-07
1.80821e-07
-1.12521e-07
2.15705e-07
5.22077e-08
1.32088e-07
1.68705e-07
-1.13581e-08
1.79452e-07
-1.30242e-07
9.29098e-08
-1.64287e-07
-3.01676e-08
-1.07325e-07
-1.18133e-07
-2.99777e-09
-1.2984e-07
8.64981e-08
-7.2249e-08
1.17024e-07
1.1883e-08
8.30827e-08
7.39613e-08
1.37233e-08
8.68619e-08
-4.94029e-08
5.46826e-08
-7.62378e-08
3.26007e-09
-6.11017e-08
-3.86506e-08
-1.98392e-08
-5.45557e-08
2.32019e-08
-4.43008e-08
4.86953e-08
-1.83884e-08
4.92963e-08
1.05673e-08
2.89743e-08
3.29891e-08
-1.7391e-09
4.27758e-08
-3.04647e-08
3.62234e-08
-4.60796e-08
1.30209e-08
-4.12522e-08
-2.06198e-08
-1.55413e-08
-5.05358e-08
2.20286e-08
-5.90711e-08
5.40058e-08
-3.53251e-08
6.14068e-08
1.47131e-08
3.46725e-08
6.64876e-08
-1.75422e-08
8.7999e-08
-6.8906e-08
5.93827e-08
-8.789e-08
-1.10078e-08
-5.68375e-08
-8.62377e-08
1.3852e-08
-1.19742e-07
8.71112e-08
-8.41791e-08
1.18304e-07
7.79127e-09
8.24405e-08
1.0607e-07
-7.21033e-09
1.50611e-07
-1.0254e-07
1.08704e-07
-1.46735e-07
-1.46269e-09
-1.08792e-07
-1.17846e-07
-5.05581e-09
-1.70383e-07
1.07249e-07
-1.24519e-07
1.62576e-07
-4.61775e-09
1.26719e-07
1.19012e-07
1.87656e-08
1.72838e-07
-9.92639e-08
1.25884e-07
-1.59612e-07
9.05185e-09
-1.2974e-07
-1.0507e-07
-3.12451e-08
-1.48886e-07
7.5198e-08
-1.02262e-07
1.28668e-07
-2.81302e-09
1.05075e-07
8.19898e-08
2.86832e-08
1.01151e-07
-4.78012e-08
5.33364e-08
-7.94386e-08
-1.23978e-08
-5.66332e-08
-4.26767e-08
-7.59573e-09
2.62163e-08
1.62459e-07
4.53625e-08
2.20735e-07
-7.42037e-08
1.93298e-07
-1.73104e-07
6.12126e-08
-1.77895e-07
-1.18803e-07
-6.64659e-08
-2.45222e-07
1.03593e-07
-2.35711e-07
2.31153e-07
-8.50594e-08
2.34124e-07
1.24215e-07
1.01906e-07
2.68816e-07
-9.45298e-08
2.60442e-07
-2.42726e-07
1.01524e-07
-2.55815e-07
-1.15143e-07
-1.25248e-07
-2.62861e-07
7.36923e-08
-2.57802e-07
2.27023e-07
-1.08029e-07
2.49757e-07
9.45419e-08
1.34566e-07
2.32087e-07
-4.71977e-08
2.31247e-07
-1.90639e-07
1.02914e-07
-2.19405e-07
-7.04222e-08
-1.27115e-07
-1.88167e-07
2.47355e-08
-1.90946e-07
1.47559e-07
-9.01804e-08
1.78058e-07
4.63498e-08
1.10775e-07
1.3958e-07
-5.75524e-09
1.45044e-07
-1.02679e-07
7.28724e-08
-1.31434e-07
-2.60378e-08
-8.73108e-08
-9.46752e-08
-5.16648e-09
-1.02289e-07
6.59129e-08
-5.63549e-08
9.13712e-08
8.93486e-09
6.67547e-08
5.65782e-08
1.40522e-08
6.69441e-08
-3.5236e-08
4.3703e-08
-5.81584e-08
5.71769e-09
-4.95291e-08
-2.67258e-08
-1.97926e-08
-4.18719e-08
1.40035e-08
-3.83453e-08
3.72573e-08
-2.11693e-08
4.24968e-08
2.74331e-09
2.96283e-08
2.61773e-08
4.25469e-09
4.11261e-08
-2.3969e-08
3.96339e-08
-4.32151e-08
1.79544e-08
-4.3067e-08
-1.81383e-08
-1.99377e-08
-5.20501e-08
1.84002e-08
-6.29139e-08
5.34203e-08
-3.8246e-08
6.38413e-08
1.4926e-08
3.82562e-08
6.94051e-08
-1.50222e-08
9.11075e-08
-6.86373e-08
6.02471e-08
-8.96679e-08
-1.27413e-08
-5.96672e-08
-8.86256e-08
1.09254e-08
-1.20315e-07
8.46956e-08
-8.22699e-08
1.16983e-07
1.01543e-08
8.31256e-08
1.05675e-07
-3.60485e-09
1.46001e-07
-9.6174e-08
1.02199e-07
-1.39826e-07
-4.64054e-09
-1.05334e-07
-1.13262e-07
-8.77843e-09
-1.58454e-07
9.57613e-08
-1.11702e-07
1.47606e-07
-1.01967e-10
1.16215e-07
1.09559e-07
2.01519e-08
1.52303e-07
-8.40911e-08
1.05517e-07
-1.3679e-07
2.18007e-09
-1.11172e-07
-9.1923e-08
-2.81459e-08
-1.21531e-07
5.9306e-08
-7.66067e-08
1.0096e-07
4.69604e-09
8.00149e-08
6.58243e-08
1.99978e-08
7.28826e-08
-3.49495e-08
3.85851e-08
-5.15514e-08
4.70176e-09
-2.92974e-08
5.93052e-09
3.3385e-08
1.00847e-07
1.18295e-07
3.72862e-08
1.86014e-07
-8.96523e-08
1.71811e-07
-1.8648e-07
5.14184e-08
-1.82635e-07
-1.16073e-07
-6.98453e-08
-2.30228e-07
9.33143e-08
-2.1545e-07
2.13693e-07
-7.27459e-08
2.18149e-07
1.17291e-07
9.913e-08
2.42637e-07
-7.79267e-08
2.28686e-07
-2.12e-07
8.40559e-08
-2.26471e-07
-1.05229e-07
-1.14605e-07
-2.28829e-07
5.73434e-08
-2.18551e-07
1.9066e-07
-8.69459e-08
2.12707e-07
8.41727e-08
1.17649e-07
1.95687e-07
-3.40146e-08
1.89906e-07
-1.54424e-07
8.05788e-08
-1.80328e-07
-6.13943e-08
-1.06707e-07
-1.54089e-07
1.59852e-08
-1.52357e-07
1.15841e-07
-6.90753e-08
1.41986e-07
3.94322e-08
9.01684e-08
1.10853e-07
-1.08245e-09
1.12508e-07
-7.76175e-08
5.4892e-08
-1.01536e-07
-2.12772e-08
-6.9086e-08
-7.26988e-08
-6.83852e-09
-7.75268e-08
4.79619e-08
-4.27864e-08
6.90769e-08
5.65058e-09
5.26447e-08
4.10812e-08
1.42563e-08
4.99197e-08
-2.33683e-08
3.47939e-08
-4.31515e-08
8.18805e-09
-4.00481e-08
-1.67036e-08
-1.98008e-08
-3.16424e-08
6.57393e-09
-3.37679e-08
2.81637e-08
-2.34514e-08
3.7179e-08
-3.23069e-09
3.01665e-08
2.11314e-08
8.88982e-09
3.98424e-08
-1.89705e-08
4.17543e-08
-4.09302e-08
2.09447e-08
-4.42545e-08
-1.6686e-08
-2.31412e-08
-5.26851e-08
1.54519e-08
-6.43496e-08
5.2297e-08
-3.88572e-08
6.47563e-08
1.55271e-08
4.04271e-08
7.00815e-08
-1.2592e-08
9.04286e-08
-6.66925e-08
5.81442e-08
-8.87865e-08
-1.44439e-08
-6.05014e-08
-8.7521e-08
7.83429e-09
-1.15719e-07
7.96542e-08
-7.66197e-08
1.11833e-07
1.23171e-08
8.09672e-08
1.0091e-07