/*--------------------------------*- C++ -*----------------------------------*\
| =========                 |                                                 |
| \\      /  F ield         | OpenFOAM: The Open Source CFD Toolbox           |
|  \\    /   O peration     | Version:  2412                                  |
|   \\  /    A nd           | Website:  www.openfoam.com                      |
|    \\/     M anipulation  |                                                 |
\*---------------------------------------------------------------------------*/
FoamFile
{
    version     2.0;
    format      ascii;
    arch        "LSB;label=32;scalar=64";
    class       volScalarField;
    location    "4.95";
    object      p;
}
// * * * * * * * * * * * * * * * * * * * * * * * * * * * * * * * * * * * * * //

dimensions      [1 -1 -2 0 0 0 0];

internalField   nonuniform List<scalar> 
6400
(
8152.65
8152.54
8152.41
8152.35
8152.37
8152.49
8152.71
8153.02
8153.41
8153.89
8154.43
8155.03
8155.69
8156.41
8157.17
8157.97
8158.82
8159.7
8160.6
8161.54
8162.48
8163.45
8164.41
8165.37
8166.32
8167.26
8168.17
8169.05
8169.9
8170.7
8171.46
8172.16
8172.8
8173.37
8173.88
8174.31
8174.65
8174.92
8175.1
8175.19
8175.19
8175.11
8174.93
8174.67
8174.33
8173.9
8173.41
8172.84
8172.21
8171.52
8170.78
8169.99
8169.16
8168.3
8167.42
8166.51
8165.59
8164.66
8163.73
8162.81
8161.9
8161
8160.13
8159.29
8158.48
8157.7
8156.97
8156.28
8155.64
8155.05
8154.53
8154.07
8153.68
8153.37
8153.15
8153.02
8152.99
8153.05
8153.16
8153.28
7735.84
7735.72
7735.62
7735.57
7735.61
7735.74
7735.95
7736.26
7736.64
7737.1
7737.62
7738.22
7738.86
7739.57
7740.32
7741.11
7741.94
7742.81
7743.71
7744.63
7745.56
7746.51
7747.46
7748.41
7749.35
7750.27
7751.17
7752.04
7752.88
7753.67
7754.41
7755.11
7755.74
7756.3
7756.8
7757.22
7757.56
7757.82
7758
7758.09
7758.09
7758
7757.83
7757.58
7757.24
7756.82
7756.33
7755.78
7755.16
7754.48
7753.75
7752.97
7752.15
7751.31
7750.43
7749.54
7748.63
7747.71
7746.8
7745.89
7744.99
7744.1
7743.24
7742.41
7741.61
7740.84
7740.12
7739.44
7738.82
7738.25
7737.73
7737.29
7736.91
7736.61
7736.4
7736.27
7736.22
7736.26
7736.36
7736.47
7319.03
7318.9
7318.79
7318.76
7318.81
7318.94
7319.15
7319.45
7319.82
7320.27
7320.79
7321.37
7322.01
7322.71
7323.45
7324.23
7325.06
7325.91
7326.8
7327.71
7328.63
7329.57
7330.51
7331.45
7332.38
7333.3
7334.19
7335.05
7335.88
7336.66
7337.4
7338.08
7338.71
7339.27
7339.76
7340.17
7340.51
7340.77
7340.94
7341.03
7341.03
7340.95
7340.78
7340.52
7340.19
7339.78
7339.3
7338.75
7338.13
7337.46
7336.74
7335.97
7335.16
7334.32
7333.45
7332.57
7331.67
7330.76
7329.85
7328.95
7328.06
7327.18
7326.33
7325.51
7324.72
7323.96
7323.25
7322.58
7321.97
7321.41
7320.91
7320.47
7320.11
7319.82
7319.6
7319.47
7319.42
7319.45
7319.55
7319.68
6902.16
6902
6901.88
6901.85
6901.9
6902.03
6902.25
6902.55
6902.92
6903.37
6903.88
6904.46
6905.1
6905.79
6906.53
6907.31
6908.13
6908.99
6909.87
6910.78
6911.7
6912.63
6913.57
6914.51
6915.43
6916.35
6917.24
6918.1
6918.92
6919.71
6920.45
6921.13
6921.75
6922.31
6922.8
6923.22
6923.56
6923.81
6923.99
6924.07
6924.08
6923.99
6923.82
6923.57
6923.24
6922.82
6922.34
6921.79
6921.17
6920.5
6919.78
6919.01
6918.2
6917.36
6916.5
6915.61
6914.71
6913.81
6912.9
6912
6911.11
6910.24
6909.39
6908.57
6907.78
6907.03
6906.32
6905.66
6905.05
6904.5
6904
6903.57
6903.22
6902.93
6902.72
6902.59
6902.53
6902.56
6902.68
6902.83
6485.2
6485.02
6484.88
6484.85
6484.9
6485.04
6485.26
6485.56
6485.94
6486.39
6486.9
6487.48
6488.12
6488.82
6489.56
6490.35
6491.17
6492.03
6492.92
6493.82
6494.75
6495.69
6496.63
6497.57
6498.5
6499.42
6500.32
6501.19
6502.02
6502.81
6503.55
6504.24
6504.87
6505.44
6505.93
6506.35
6506.69
6506.95
6507.13
6507.22
6507.22
6507.13
6506.96
6506.7
6506.37
6505.95
6505.46
6504.91
6504.29
6503.61
6502.88
6502.1
6501.29
6500.44
6499.57
6498.67
6497.77
6496.86
6495.95
6495.04
6494.15
6493.27
6492.42
6491.6
6490.81
6490.05
6489.35
6488.68
6488.07
6487.52
6487.03
6486.6
6486.24
6485.96
6485.75
6485.62
6485.56
6485.6
6485.72
6485.89
6068.13
6067.94
6067.8
6067.76
6067.82
6067.96
6068.19
6068.49
6068.87
6069.33
6069.85
6070.44
6071.09
6071.79
6072.54
6073.33
6074.17
6075.04
6075.93
6076.85
6077.79
6078.73
6079.69
6080.64
6081.59
6082.52
6083.43
6084.31
6085.16
6085.96
6086.72
6087.42
6088.06
6088.64
6089.14
6089.57
6089.92
6090.19
6090.36
6090.45
6090.46
6090.37
6090.19
6089.93
6089.59
6089.16
6088.67
6088.1
6087.46
6086.77
6086.03
6085.24
6084.41
6083.55
6082.66
6081.76
6080.84
6079.92
6078.99
6078.07
6077.17
6076.28
6075.42
6074.59
6073.79
6073.03
6072.32
6071.65
6071.04
6070.48
6069.98
6069.55
6069.19
6068.9
6068.69
6068.56
6068.5
6068.54
6068.67
6068.85
5650.96
5650.76
5650.62
5650.58
5650.64
5650.79
5651.02
5651.34
5651.73
5652.2
5652.73
5653.33
5653.99
5654.7
5655.46
5656.27
5657.12
5658
5658.92
5659.85
5660.81
5661.77
5662.75
5663.72
5664.68
5665.64
5666.57
5667.47
5668.34
5669.17
5669.94
5670.66
5671.32
5671.92
5672.44
5672.88
5673.24
5673.51
5673.7
5673.79
5673.79
5673.7
5673.52
5673.25
5672.9
5672.46
5671.95
5671.36
5670.71
5670
5669.24
5668.43
5667.58
5666.69
5665.79
5664.86
5663.92
5662.98
5662.04
5661.1
5660.18
5659.28
5658.4
5657.55
5656.74
5655.97
5655.24
5654.56
5653.94
5653.37
5652.86
5652.42
5652.05
5651.76
5651.54
5651.4
5651.35
5651.38
5651.51
5651.7
5233.68
5233.48
5233.34
5233.31
5233.38
5233.54
5233.78
5234.11
5234.51
5234.99
5235.54
5236.16
5236.83
5237.56
5238.34
5239.17
5240.04
5240.94
5241.88
5242.84
5243.82
5244.81
5245.81
5246.8
5247.8
5248.78
5249.74
5250.67
5251.57
5252.42
5253.22
5253.97
5254.66
5255.27
5255.81
5256.27
5256.65
5256.93
5257.12
5257.22
5257.22
5257.13
5256.94
5256.66
5256.29
5255.84
5255.3
5254.69
5254.02
5253.28
5252.49
5251.65
5250.78
5249.87
5248.93
5247.98
5247.01
5246.04
5245.07
5244.11
5243.17
5242.24
5241.35
5240.48
5239.65
5238.86
5238.11
5237.42
5236.78
5236.19
5235.67
5235.22
5234.84
5234.53
5234.31
5234.16
5234.1
5234.13
5234.26
5234.45
4816.3
4816.11
4815.97
4815.94
4816.02
4816.19
4816.45
4816.79
4817.22
4817.72
4818.29
4818.93
4819.63
4820.38
4821.19
4822.04
4822.93
4823.86
4824.82
4825.81
4826.82
4827.84
4828.87
4829.9
4830.93
4831.94
4832.94
4833.91
4834.84
4835.72
4836.56
4837.34
4838.05
4838.7
4839.26
4839.75
4840.14
4840.44
4840.64
4840.74
4840.74
4840.64
4840.44
4840.15
4839.76
4839.28
4838.72
4838.09
4837.38
4836.61
4835.79
4834.91
4834
4833.06
4832.09
4831.1
4830.1
4829.1
4828.1
4827.11
4826.13
4825.18
4824.26
4823.37
4822.51
4821.7
4820.93
4820.22
4819.56
4818.95
4818.42
4817.95
4817.55
4817.23
4816.99
4816.84
4816.77
4816.79
4816.93
4817.11
4398.82
4398.63
4398.5
4398.48
4398.57
4398.76
4399.03
4399.4
4399.85
4400.37
4400.97
4401.64
4402.37
4403.15
4403.98
4404.86
4405.78
4406.75
4407.74
4408.76
4409.81
4410.87
4411.94
4413.01
4414.08
4415.13
4416.17
4417.18
4418.15
4419.08
4419.95
4420.77
4421.52
4422.2
4422.8
4423.3
4423.72
4424.04
4424.25
4424.36
4424.36
4424.25
4424.04
4423.73
4423.31
4422.81
4422.22
4421.54
4420.8
4419.99
4419.13
4418.21
4417.26
4416.27
4415.26
4414.23
4413.19
4412.15
4411.11
4410.08
4409.07
4408.09
4407.13
4406.21
4405.33
4404.49
4403.7
4402.96
4402.28
4401.65
4401.09
4400.6
4400.18
4399.85
4399.59
4399.42
4399.34
4399.36
4399.5
4399.68
3981.24
3981.05
3980.93
3980.92
3981.03
3981.23
3981.53
3981.92
3982.4
3982.95
3983.58
3984.28
3985.04
3985.85
3986.72
3987.64
3988.6
3989.6
3990.63
3991.69
3992.78
3993.88
3995
3996.12
3997.24
3998.34
3999.43
4000.48
4001.51
4002.48
4003.41
4004.27
4005.06
4005.78
4006.42
4006.96
4007.4
4007.74
4007.96
4008.08
4008.08
4007.97
4007.74
4007.4
4006.96
4006.42
4005.79
4005.08
4004.29
4003.43
4002.52
4001.55
4000.55
3999.51
3998.45
3997.37
3996.28
3995.19
3994.11
3993.04
3991.99
3990.97
3989.98
3989.02
3988.11
3987.24
3986.42
3985.65
3984.94
3984.28
3983.7
3983.18
3982.74
3982.38
3982.1
3981.92
3981.83
3981.84
3981.96
3982.14
3563.56
3563.37
3563.26
3563.26
3563.38
3563.61
3563.94
3564.36
3564.87
3565.46
3566.12
3566.86
3567.65
3568.5
3569.41
3570.36
3571.36
3572.41
3573.48
3574.59
3575.73
3576.89
3578.06
3579.23
3580.41
3581.57
3582.71
3583.83
3584.91
3585.94
3586.92
3587.83
3588.68
3589.45
3590.13
3590.71
3591.18
3591.55
3591.79
3591.92
3591.92
3591.79
3591.55
3591.19
3590.72
3590.13
3589.46
3588.69
3587.84
3586.93
3585.96
3584.94
3583.88
3582.78
3581.66
3580.52
3579.38
3578.24
3577.1
3575.98
3574.88
3573.82
3572.78
3571.79
3570.84
3569.93
3569.08
3568.28
3567.53
3566.85
3566.23
3565.68
3565.21
3564.82
3564.52
3564.31
3564.21
3564.21
3564.33
3564.5
3145.76
3145.58
3145.48
3145.5
3145.64
3145.89
3146.25
3146.71
3147.26
3147.89
3148.6
3149.37
3150.21
3151.1
3152.05
3153.05
3154.09
3155.18
3156.31
3157.47
3158.66
3159.88
3161.11
3162.35
3163.59
3164.82
3166.03
3167.21
3168.35
3169.45
3170.49
3171.47
3172.37
3173.2
3173.93
3174.56
3175.08
3175.47
3175.74
3175.87
3175.87
3175.74
3175.48
3175.08
3174.57
3173.94
3173.2
3172.37
3171.46
3170.48
3169.45
3168.36
3167.24
3166.08
3164.89
3163.69
3162.48
3161.27
3160.08
3158.9
3157.75
3156.63
3155.55
3154.51
3153.52
3152.58
3151.69
3150.85
3150.07
3149.35
3148.69
3148.1
3147.59
3147.17
3146.84
3146.61
3146.49
3146.48
3146.59
3146.76
2727.87
2727.69
2727.58
2727.62
2727.78
2728.07
2728.47
2728.97
2729.56
2730.24
2731
2731.83
2732.71
2733.65
2734.64
2735.68
2736.77
2737.91
2739.1
2740.32
2741.57
2742.85
2744.15
2745.46
2746.78
2748.08
2749.37
2750.63
2751.84
2753.01
2754.12
2755.17
2756.15
2757.05
2757.84
2758.53
2759.09
2759.52
2759.81
2759.96
2759.96
2759.81
2759.52
2759.09
2758.53
2757.84
2757.04
2756.13
2755.15
2754.09
2752.98
2751.83
2750.63
2749.39
2748.13
2746.85
2745.57
2744.3
2743.03
2741.79
2740.58
2739.41
2738.27
2737.18
2736.15
2735.17
2734.24
2733.37
2732.55
2731.78
2731.08
2730.45
2729.89
2729.43
2729.06
2728.8
2728.66
2728.64
2728.75
2728.93
2309.87
2309.68
2309.57
2309.62
2309.8
2310.13
2310.58
2311.13
2311.78
2312.52
2313.34
2314.22
2315.15
2316.14
2317.18
2318.27
2319.41
2320.6
2321.85
2323.13
2324.46
2325.81
2327.19
2328.58
2329.98
2331.37
2332.74
2334.09
2335.39
2336.63
2337.82
2338.94
2340
2340.99
2341.86
2342.62
2343.24
2343.71
2344.03
2344.19
2344.19
2344.03
2343.71
2343.24
2342.62
2341.86
2340.98
2339.98
2338.9
2337.76
2336.57
2335.33
2334.05
2332.73
2331.39
2330.03
2328.66
2327.3
2325.97
2324.65
2323.38
2322.14
2320.95
2319.81
2318.73
2317.71
2316.75
2315.84
2314.97
2314.15
2313.4
2312.71
2312.1
2311.59
2311.18
2310.89
2310.72
2310.69
2310.81
2311
1891.81
1891.57
1891.44
1891.48
1891.71
1892.09
1892.6
1893.22
1893.94
1894.74
1895.62
1896.56
1897.56
1898.6
1899.68
1900.81
1901.99
1903.25
1904.56
1905.92
1907.31
1908.74
1910.2
1911.68
1913.18
1914.67
1916.14
1917.58
1918.97
1920.3
1921.56
1922.77
1923.93
1925.01
1925.99
1926.82
1927.51
1928.03
1928.38
1928.56
1928.56
1928.38
1928.03
1927.51
1926.83
1925.99
1925.01
1923.9
1922.71
1921.47
1920.2
1918.87
1917.5
1916.09
1914.65
1913.2
1911.74
1910.29
1908.87
1907.48
1906.13
1904.83
1903.57
1902.37
1901.25
1900.2
1899.21
1898.26
1897.35
1896.47
1895.66
1894.91
1894.24
1893.67
1893.2
1892.86
1892.66
1892.64
1892.78
1893.02
1473.76
1473.4
1473.19
1473.22
1473.48
1473.94
1474.54
1475.24
1476.03
1476.92
1477.87
1478.88
1479.94
1481.03
1482.16
1483.31
1484.54
1485.85
1487.23
1488.67
1490.14
1491.65
1493.19
1494.77
1496.37
1497.97
1499.56
1501.1
1502.59
1504
1505.34
1506.64
1507.91
1509.12
1510.21
1511.15
1511.91
1512.49
1512.88
1513.07
1513.07
1512.87
1512.49
1511.92
1511.16
1510.23
1509.13
1507.87
1506.55
1505.2
1503.84
1502.43
1500.97
1499.46
1497.91
1496.35
1494.79
1493.24
1491.73
1490.26
1488.84
1487.47
1486.14
1484.88
1483.71
1482.64
1481.64
1480.67
1479.7
1478.76
1477.88
1477.05
1476.31
1475.66
1475.13
1474.72
1474.49
1474.48
1474.7
1475.07
1055.96
1055.22
1054.77
1054.75
1055.09
1055.67
1056.38
1057.17
1058.06
1059.04
1060.09
1061.18
1062.31
1063.46
1064.62
1065.77
1067.01
1068.39
1069.86
1071.38
1072.93
1074.51
1076.15
1077.84
1079.56
1081.28
1082.99
1084.65
1086.24
1087.73
1089.11
1090.49
1091.91
1093.3
1094.55
1095.61
1096.47
1097.12
1097.54
1097.76
1097.76
1097.53
1097.1
1096.48
1095.64
1094.61
1093.35
1091.88
1090.36
1088.89
1087.47
1086.01
1084.46
1082.83
1081.17
1079.5
1077.83
1076.16
1074.54
1073
1071.51
1070.06
1068.65
1067.31
1066.09
1065.03
1064.07
1063.09
1062.06
1061.03
1060.05
1059.13
1058.29
1057.57
1056.93
1056.42
1056.12
1056.17
1056.61
1057.35
639.072
636.798
635.713
635.654
636.184
637.022
637.92
638.8
639.788
640.911
642.078
643.273
644.512
645.764
646.941
648.044
649.262
650.74
652.364
654.02
655.666
657.321
659.058
660.894
662.772
664.659
666.533
668.362
670.1
671.645
673.013
674.423
676.052
677.769
679.264
680.45
681.422
682.156
682.607
682.855
682.866
682.58
682.104
681.443
680.511
679.394
677.938
676.089
674.257
672.646
671.253
669.775
668.103
666.318
664.508
662.699
660.885
659.049
657.289
655.661
654.105
652.559
651.02
649.528
648.208
647.224
646.409
645.439
644.271
643.095
641.987
640.931
639.973
639.159
638.381
637.638
637.148
637.21
638.245
640.451
243.203
240.325
239.392
239.649
240.452
241.5
242.47
243.231
244.049
244.989
245.947
246.936
248.003
249.17
250.365
251.456
252.472
253.669
255.011
256.435
257.944
259.591
261.439
263.22
264.581
265.98
267.658
269.489
271.34
273.074
274.694
276.418
278.172
279.472
280.258
280.752
281.142
281.449
281.64
281.726
281.706
281.567
281.317
280.956
280.491
279.991
279.366
278.302
276.687
274.8
273.121
271.422
269.582
267.715
265.989
264.578
263.323
261.712
259.846
258.138
256.661
255.313
254.038
252.812
251.721
250.934
250.214
249.204
247.998
246.915
245.979
245.084
244.25
243.55
242.733
241.762
240.97
240.71
241.585
244.336
22.3025
21.623
21.6107
21.8679
22.2743
22.7367
23.2598
23.9048
24.3545
24.7246
25.0662
25.4049
25.7626
26.1793
26.7535
27.522
28.1513
28.6137
29.0686
29.617
30.2905
31.0938
31.9446
32.6175
33.2711
33.8657
34.5719
35.4054
36.2863
37.2151
38.2128
39.1447
39.5693
39.4844
39.3542
39.2268
39.0877
38.9907
38.9589
38.9068
38.8683
38.9048
38.907
38.8739
38.9122
38.9698
39.1346
39.3775
39.4046
38.6493
37.6349
36.6708
35.7618
34.8819
34.1119
33.4765
32.8121
32.2253
31.5214
30.7296
30.033
29.4725
29.0205
28.6346
28.2275
27.6169
26.7618
26.1335
25.7645
25.4544
25.1444
24.8209
24.4242
23.8778
23.2747
22.8056
22.3919
22.1241
22.1218
22.7724
-10.1701
-10.1715
-10.1668
-10.1885
-10.2015
-10.2383
-10.1373
-9.59844
-9.41061
-9.33831
-9.29318
-9.27752
-9.29979
-9.36935
-9.39311
-9.07591
-8.71309
-8.61871
-8.60254
-8.59039
-8.58606
-8.61518
-8.75025
-9.12056
-8.4972
-8.233
-8.2206
-8.27815
-8.40623
-8.53899
-8.6183
-8.8821
-9.708
-10.3204
-10.4231
-10.4223
-10.4267
-10.4283
-10.4274
-10.4252
-10.4255
-10.429
-10.4286
-10.4272
-10.4234
-10.4197
-10.4177
-10.1525
-9.10494
-8.51172
-8.37058
-8.22667
-8.05876
-7.97538
-7.94924
-8.16166
-8.88114
-8.75286
-8.32433
-8.19068
-8.17785
-8.19528
-8.21277
-8.22854
-8.30823
-8.76658
-9.53973
-9.67142
-9.43234
-9.32664
-9.33526
-9.37724
-9.48618
-9.90038
-10.2278
-10.1981
-10.1962
-10.1928
-10.2072
-10.1973
-10.6695
-10.6682
-10.6626
-10.6643
-10.6661
-10.6827
-10.694
-10.5542
-10.4859
-10.4457
-10.3987
-10.3497
-10.312
-10.2938
-10.2627
-10.1452
-10.0293
-9.95889
-9.92844
-9.90868
-9.8971
-9.90292
-9.96656
-10.0907
-9.88901
-9.81877
-9.84332
-9.89027
-9.97173
-10.0604
-10.1368
-10.3517
-10.7474
-10.8942
-10.9062
-10.9027
-10.9083
-10.9123
-10.9146
-10.9153
-10.916
-10.9164
-10.9144
-10.9104
-10.9051
-10.8996
-10.9104
-10.8839
-10.5476
-10.147
-10.0082
-9.90322
-9.79199
-9.72983
-9.67873
-9.69507
-9.88418
-9.86494
-9.7536
-9.70082
-9.70767
-9.73322
-9.77019
-9.8181
-9.89242
-10.0913
-10.3042
-10.3552
-10.3378
-10.357
-10.4058
-10.4541
-10.5145
-10.6567
-10.6911
-10.6772
-10.6807
-10.6842
-10.6962
-10.6955
-11.1617
-11.1605
-11.1646
-11.1769
-11.1882
-11.2065
-11.2482
-11.301
-11.3091
-11.2827
-11.2582
-11.2367
-11.2177
-11.2004
-11.1906
-11.213
-11.3003
-11.2796
-11.2672
-11.2597
-11.2566
-11.2627
-11.2783
-11.2473
-11.3389
-11.3773
-11.3968
-11.4079
-11.4148
-11.4196
-11.4244
-11.4278
-11.4224
-11.4126
-11.4056
-11.403
-11.4056
-11.4071
-11.4073
-11.4072
-11.4078
-11.4087
-11.4075
-11.4063
-11.4041
-11.4006
-11.4056
-11.4106
-11.4175
-11.4199
-11.4144
-11.4075
-11.4002
-11.3905
-11.3691
-11.3161
-11.1602
-11.1737
-11.2574
-11.2451
-11.2458
-11.2548
-11.2689
-11.2913
-11.312
-11.2346
-11.1559
-11.1543
-11.1886
-11.2229
-11.2492
-11.2744
-11.2915
-11.2575
-11.2046
-11.1826
-11.1803
-11.1822
-11.1909
-11.1897
-11.6604
-11.6706
-11.7019
-11.7354
-11.756
-11.7668
-11.7878
-11.8033
-11.8071
-11.8096
-11.8135
-11.8158
-11.818
-11.8216
-11.8263
-11.831
-11.8309
-11.8388
-11.8489
-11.8547
-11.8588
-11.8631
-11.8709
-11.8796
-11.8799
-11.8836
-11.8901
-11.8943
-11.8965
-11.8982
-11.8997
-11.9006
-11.901
-11.9024
-11.9011
-11.9014
-11.9017
-11.9016
-11.9013
-11.9009
-11.901
-11.9013
-11.9006
-11.9013
-11.9015
-11.8981
-11.8958
-11.8944
-11.895
-11.8932
-11.8899
-11.8868
-11.8835
-11.879
-11.8737
-11.8693
-11.872
-11.8627
-11.8474
-11.8416
-11.8381
-11.834
-11.8257
-11.8124
-11.8072
-11.8084
-11.8067
-11.807
-11.8061
-11.8082
-11.8098
-11.799
-11.794
-11.7843
-11.7486
-11.732
-11.7194
-11.7031
-11.6903
-11.6835
-12.1741
-12.2045
-12.2509
-12.2961
-12.3265
-12.3325
-12.3203
-12.3054
-12.3018
-12.3031
-12.303
-12.3044
-12.3074
-12.3105
-12.3146
-12.3195
-12.3245
-12.3321
-12.3385
-12.3437
-12.3487
-12.354
-12.3592
-12.3644
-12.3707
-12.376
-12.3799
-12.3835
-12.3869
-12.3904
-12.3943
-12.3977
-12.3995
-12.3984
-12.3995
-12.4017
-12.4002
-12.3972
-12.3954
-12.3942
-12.3938
-12.3939
-12.3947
-12.3984
-12.4009
-12.3975
-12.3931
-12.3947
-12.3959
-12.3899
-12.3835
-12.3778
-12.3731
-12.3682
-12.3625
-12.3569
-12.3515
-12.3458
-12.3393
-12.3332
-12.3276
-12.3223
-12.3167
-12.3102
-12.303
-12.2999
-12.2966
-12.2935
-12.2942
-12.299
-12.3013
-12.2985
-12.3003
-12.3103
-12.3094
-12.3023
-12.276
-12.2419
-12.2077
-12.1883
-12.6999
-12.747
-12.7845
-12.83
-12.8609
-12.8685
-12.8407
-12.8017
-12.7842
-12.7832
-12.7865
-12.791
-12.796
-12.801
-12.806
-12.8114
-12.8167
-12.8224
-12.8285
-12.8343
-12.8399
-12.8454
-12.8507
-12.8559
-12.8608
-12.8656
-12.8698
-12.8732
-12.8764
-12.8795
-12.8835
-12.8853
-12.8882
-12.8921
-12.8994
-12.9035
-12.8997
-12.8926
-12.8886
-12.8868
-12.8858
-12.8859
-12.8879
-12.8943
-12.9003
-12.8967
-12.8886
-12.8856
-12.8827
-12.8785
-12.8722
-12.8671
-12.8629
-12.8585
-12.8534
-12.8482
-12.8427
-12.8367
-12.8304
-12.8242
-12.8182
-12.8121
-12.8059
-12.8001
-12.795
-12.7906
-12.7865
-12.7827
-12.7796
-12.7783
-12.7787
-12.783
-12.7991
-12.8295
-12.8496
-12.8425
-12.8111
-12.7734
-12.7356
-12.7043
-13.231
-13.2704
-13.2917
-13.3331
-13.3612
-13.3689
-13.338
-13.2903
-13.2644
-13.2636
-13.2708
-13.2777
-13.2839
-13.2896
-13.2953
-13.3012
-13.3073
-13.3136
-13.3198
-13.3255
-13.3309
-13.3362
-13.3413
-13.3461
-13.3507
-13.3552
-13.3592
-13.3628
-13.3662
-13.3696
-13.3741
-13.3766
-13.3774
-13.3834
-13.3947
-13.4
-13.3942
-13.3847
-13.3795
-13.3778
-13.3765
-13.3763
-13.3786
-13.3859
-13.393
-13.3899
-13.379
-13.3729
-13.3714
-13.3674
-13.3613
-13.3566
-13.3522
-13.3476
-13.3427
-13.3375
-13.3323
-13.3267
-13.3208
-13.3149
-13.3091
-13.3032
-13.297
-13.2907
-13.2848
-13.2794
-13.2743
-13.2694
-13.265
-13.2594
-13.2554
-13.2642
-13.293
-13.3347
-13.3609
-13.3544
-13.3233
-13.2848
-13.2547
-13.2204
-13.7465
-13.7654
-13.7771
-13.8079
-13.8303
-13.8373
-13.8101
-13.7698
-13.7489
-13.7496
-13.7571
-13.7648
-13.772
-13.7788
-13.7854
-13.7919
-13.7984
-13.8048
-13.8109
-13.8167
-13.8223
-13.8275
-13.8324
-13.8371
-13.8416
-13.8458
-13.8496
-13.8531
-13.8563
-13.8594
-13.8629
-13.8658
-13.8664
-13.8718
-13.8823
-13.887
-13.8824
-13.8736
-13.8686
-13.8674
-13.8661
-13.8656
-13.8672
-13.8725
-13.8773
-13.8748
-13.8654
-13.8594
-13.8583
-13.8547
-13.8504
-13.8464
-13.8423
-13.838
-13.8334
-13.8284
-13.8231
-13.8175
-13.8118
-13.8059
-13.7999
-13.7937
-13.7875
-13.7812
-13.775
-13.7689
-13.7631
-13.7573
-13.7515
-13.7449
-13.7396
-13.7479
-13.78
-13.821
-13.8472
-13.8398
-13.8129
-13.7743
-13.7659
-13.7347
-14.2455
-14.2459
-14.2558
-14.2686
-14.2806
-14.284
-14.2689
-14.2458
-14.2356
-14.2379
-14.2449
-14.2531
-14.2611
-14.2687
-14.2759
-14.2829
-14.2898
-14.2964
-14.3027
-14.3085
-14.314
-14.3191
-14.3239
-14.3285
-14.3328
-14.3368
-14.3404
-14.3437
-14.3467
-14.3496
-14.3526
-14.3544
-14.3548
-14.3577
-14.3641
-14.3677
-14.3657
-14.3605
-14.3574
-14.3565
-14.3556
-14.3549
-14.3555
-14.3577
-14.359
-14.3564
-14.3501
-14.3464
-14.3453
-14.3433
-14.34
-14.3365
-14.3327
-14.3286
-14.324
-14.3191
-14.3139
-14.3085
-14.3028
-14.2969
-14.2908
-14.2845
-14.278
-14.2713
-14.2645
-14.2578
-14.2513
-14.2451
-14.2389
-14.2328
-14.2285
-14.2333
-14.2576
-14.2889
-14.3064
-14.2995
-14.2809
-14.2565
-14.2644
-14.2406
-14.723
-14.718
-14.727
-14.7323
-14.7356
-14.7368
-14.7318
-14.7241
-14.7226
-14.7268
-14.7342
-14.7428
-14.7514
-14.7595
-14.7672
-14.7747
-14.7818
-14.7885
-14.7948
-14.8007
-14.8061
-14.8111
-14.8158
-14.8202
-14.8243
-14.8281
-14.8315
-14.8346
-14.8374
-14.8398
-14.8419
-14.8434
-14.8437
-14.8446
-14.8476
-14.8502
-14.8502
-14.8484
-14.8471
-14.8463
-14.8457
-14.8452
-14.845
-14.8451
-14.8443
-14.8414
-14.8375
-14.8353
-14.8345
-14.8328
-14.8302
-14.8271
-14.8235
-14.8196
-14.8152
-14.8104
-14.8053
-14.7999
-14.7941
-14.7881
-14.7819
-14.7754
-14.7686
-14.7616
-14.7545
-14.7474
-14.7405
-14.7338
-14.7275
-14.7217
-14.7181
-14.7202
-14.7322
-14.7499
-14.7595
-14.7553
-14.7474
-14.7381
-14.7462
-14.7368
-15.1833
-15.1833
-15.1943
-15.2025
-15.2059
-15.206
-15.2063
-15.2066
-15.2096
-15.2156
-15.224
-15.2333
-15.2426
-15.2513
-15.2595
-15.2672
-15.2745
-15.2813
-15.2875
-15.2933
-15.2986
-15.3035
-15.3081
-15.3123
-15.3163
-15.3199
-15.3231
-15.3261
-15.3287
-15.3309
-15.3326
-15.3338
-15.3342
-15.3345
-15.3359
-15.3378
-15.3387
-15.3385
-15.3378
-15.3371
-15.3367
-15.3362
-15.3359
-15.3352
-15.3337
-15.3312
-15.3285
-15.3268
-15.3256
-15.3238
-15.3214
-15.3184
-15.315
-15.3112
-15.3068
-15.3021
-15.297
-15.2916
-15.2858
-15.2796
-15.2732
-15.2664
-15.2594
-15.2521
-15.2446
-15.2371
-15.2298
-15.2229
-15.2165
-15.2111
-15.2077
-15.2079
-15.2127
-15.2208
-15.2257
-15.2258
-15.2254
-15.2274
-15.2255
-15.2273
-15.6415
-15.6497
-15.6618
-15.6756
-15.6822
-15.6847
-15.6869
-15.6903
-15.6958
-15.7038
-15.7139
-15.7244
-15.7345
-15.7439
-15.7526
-15.7605
-15.7679
-15.7746
-15.7808
-15.7864
-15.7916
-15.7964
-15.8008
-15.8048
-15.8085
-15.812
-15.815
-15.8178
-15.8203
-15.8223
-15.824
-15.8251
-15.8259
-15.8263
-15.8273
-15.8287
-15.8296
-15.8297
-15.8293
-15.8286
-15.8283
-15.8278
-15.8274
-15.8266
-15.825
-15.823
-15.8209
-15.8191
-15.8175
-15.8155
-15.813
-15.8101
-15.8068
-15.8029
-15.7987
-15.7941
-15.7891
-15.7836
-15.7778
-15.7715
-15.7649
-15.7578
-15.7504
-15.7427
-15.7348
-15.7268
-15.719
-15.7117
-15.7052
-15.6998
-15.6963
-15.6955
-15.6978
-15.7022
-15.7057
-15.7081
-15.7103
-15.7147
-15.7046
-15.7108
-16.0965
-16.106
-16.1258
-16.1475
-16.1585
-16.1631
-16.1671
-16.1728
-16.1808
-16.1911
-16.2043
-16.2162
-16.2275
-16.2376
-16.2466
-16.2547
-16.262
-16.2686
-16.2746
-16.28
-16.285
-16.2896
-16.2938
-16.2977
-16.3012
-16.3044
-16.3073
-16.31
-16.3123
-16.3142
-16.3158
-16.317
-16.3179
-16.3187
-16.3196
-16.3206
-16.3214
-16.3215
-16.3211
-16.3206
-16.3203
-16.3199
-16.3194
-16.3186
-16.3171
-16.3153
-16.3135
-16.3117
-16.3098
-16.3077
-16.3052
-16.3023
-16.299
-16.2953
-16.2911
-16.2865
-16.2815
-16.2761
-16.2702
-16.2638
-16.2569
-16.2496
-16.2418
-16.2336
-16.2251
-16.2165
-16.2079
-16.2001
-16.1931
-16.1873
-16.1832
-16.1815
-16.1823
-16.1849
-16.188
-16.1909
-16.1922
-16.19
-16.1766
-16.177
-16.5394
-16.5471
-16.5797
-16.6132
-16.63
-16.6376
-16.6448
-16.6536
-16.665
-16.679
-16.6945
-16.7089
-16.7216
-16.7324
-16.7417
-16.7498
-16.7569
-16.7633
-16.769
-16.7741
-16.7789
-16.7832
-16.7872
-16.7908
-16.7941
-16.7972
-16.8
-16.8024
-16.8046
-16.8064
-16.808
-16.8093
-16.8103
-16.8111
-16.812
-16.8128
-16.8135
-16.8135
-16.813
-16.8129
-16.8126
-16.8122
-16.8117
-16.8108
-16.8095
-16.8079
-16.8062
-16.8044
-16.8025
-16.8003
-16.7978
-16.7949
-16.7917
-16.788
-16.784
-16.7794
-16.7745
-16.769
-16.763
-16.7565
-16.7494
-16.7418
-16.7335
-16.7248
-16.7156
-16.7061
-16.6968
-16.6881
-16.6803
-16.6738
-16.669
-16.6662
-16.6655
-16.6668
-16.6692
-16.6715
-16.67
-16.6599
-16.6431
-16.6405
-16.9761
-16.9811
-17.0197
-17.0687
-17.0951
-17.108
-17.1197
-17.1327
-17.1481
-17.1666
-17.186
-17.2032
-17.2175
-17.2289
-17.2382
-17.246
-17.2527
-17.2586
-17.2639
-17.2687
-17.2731
-17.2772
-17.2809
-17.2843
-17.2874
-17.2903
-17.2929
-17.2952
-17.2972
-17.299
-17.3005
-17.3017
-17.3028
-17.3037
-17.3045
-17.3052
-17.3057
-17.3058
-17.3051
-17.3053
-17.3051
-17.3047
-17.3042
-17.3033
-17.3021
-17.3006
-17.299
-17.2973
-17.2953
-17.2932
-17.2907
-17.2879
-17.2848
-17.2812
-17.2772
-17.2728
-17.2679
-17.2624
-17.2564
-17.2498
-17.2425
-17.2344
-17.2257
-17.2163
-17.2063
-17.1958
-17.1854
-17.1758
-17.1672
-17.1599
-17.1543
-17.1508
-17.1489
-17.1485
-17.1494
-17.1499
-17.1439
-17.1257
-17.1048
-17.0962
-17.4171
-17.4175
-17.4546
-17.5141
-17.5542
-17.5777
-17.5955
-17.6107
-17.6284
-17.6531
-17.6798
-17.7002
-17.7162
-17.7276
-17.7363
-17.7434
-17.7494
-17.7547
-17.7594
-17.7638
-17.7678
-17.7715
-17.7749
-17.7781
-17.781
-17.7836
-17.786
-17.7882
-17.7901
-17.7918
-17.7932
-17.7944
-17.7955
-17.7963
-17.7971
-17.7977
-17.7981
-17.7982
-17.7975
-17.7979
-17.7976
-17.7973
-17.7968
-17.796
-17.7949
-17.7935
-17.792
-17.7903
-17.7885
-17.7864
-17.784
-17.7813
-17.7782
-17.7748
-17.7709
-17.7666
-17.7618
-17.7565
-17.7505
-17.7438
-17.7363
-17.7279
-17.7187
-17.7086
-17.6976
-17.6858
-17.6739
-17.6629
-17.6532
-17.6453
-17.6394
-17.6363
-17.6331
-17.6308
-17.6294
-17.6264
-17.613
-17.585
-17.5567
-17.548
-17.8849
-17.8793
-17.9143
-17.9764
-18.0182
-18.0504
-18.0782
-18.099
-18.1192
-18.1489
-18.1785
-18.2013
-18.2194
-18.2291
-18.2362
-18.2419
-18.2469
-18.2513
-18.2554
-18.2593
-18.2629
-18.2662
-18.2693
-18.2722
-18.2748
-18.2772
-18.2794
-18.2814
-18.2832
-18.2848
-18.2861
-18.2873
-18.2883
-18.2891
-18.2898
-18.2904
-18.2907
-18.2908
-18.2904
-18.2905
-18.2903
-18.29
-18.2895
-18.2888
-18.2878
-18.2866
-18.2852
-18.2836
-18.2818
-18.2798
-18.2775
-18.275
-18.2721
-18.2688
-18.2651
-18.261
-18.2563
-18.2511
-18.2452
-18.2385
-18.2309
-18.2223
-18.2126
-18.2018
-18.1898
-18.1762
-18.1617
-18.1487
-18.1391
-18.1313
-18.1261
-18.1231
-18.1209
-18.1145
-18.1083
-18.0987
-18.0767
-18.042
-18.0119
-18.0032
-18.392
-18.3631
-18.3924
-18.4642
-18.5289
-18.5762
-18.6042
-18.6207
-18.6368
-18.6598
-18.6861
-18.7109
-18.7273
-18.7337
-18.7377
-18.7414
-18.745
-18.7485
-18.7518
-18.7551
-18.7582
-18.7611
-18.7639
-18.7664
-18.7688
-18.771
-18.7731
-18.7749
-18.7765
-18.778
-18.7792
-18.7803
-18.7813
-18.7821
-18.7827
-18.7832
-18.7835
-18.7836
-18.7834
-18.7833
-18.7832
-18.7829
-18.7825
-18.7818
-18.7809
-18.7798
-18.7785
-18.7771
-18.7754
-18.7735
-18.7714
-18.769
-18.7663
-18.7632
-18.7598
-18.7559
-18.7514
-18.7464
-18.7407
-18.7341
-18.7266
-18.7179
-18.7078
-18.6962
-18.683
-18.6685
-18.6496
-18.6383
-18.6349
-18.6365
-18.6395
-18.6414
-18.6374
-18.6261
-18.6061
-18.5789
-18.5421
-18.5038
-18.4798
-18.4749
-18.9169
-18.8872
-18.9138
-18.9952
-19.0797
-19.1518
-19.1995
-19.2207
-19.2193
-19.2088
-19.2097
-19.2267
-19.2384
-19.2418
-19.2403
-19.2415
-19.2435
-19.2458
-19.2484
-19.251
-19.2537
-19.2562
-19.2586
-19.2609
-19.2631
-19.2651
-19.2669
-19.2685
-19.27
-19.2714
-19.2725
-19.2735
-19.2744
-19.2752
-19.2757
-19.2762
-19.2765
-19.2766
-19.2765
-19.2763
-19.2762
-19.276
-19.2756
-19.275
-19.2742
-19.2732
-19.2721
-19.2707
-19.2692
-19.2675
-19.2655
-19.2633
-19.2608
-19.258
-19.2548
-19.2512
-19.2471
-19.2425
-19.2371
-19.2308
-19.2235
-19.2148
-19.2046
-19.1923
-19.1779
-19.1595
-19.1454
-19.1431
-19.1592
-19.1877
-19.2168
-19.2319
-19.2257
-19.194
-19.1323
-19.0656
-19.0256
-18.9947
-18.9682
-18.9706
-19.4834
-19.4798
-19.5151
-19.5938
-19.6876
-19.7727
-19.8353
-19.865
-19.8551
-19.817
-19.774
-19.7509
-19.75
-19.7496
-19.7429
-19.7413
-19.7418
-19.7431
-19.745
-19.7471
-19.7493
-19.7515
-19.7536
-19.7556
-19.7575
-19.7592
-19.7609
-19.7624
-19.7637
-19.7649
-19.766
-19.7669
-19.7677
-19.7684
-19.7689
-19.7693
-19.7696
-19.7697
-19.7697
-19.7695
-19.7695
-19.7693
-19.7689
-19.7684
-19.7677
-19.7668
-19.7658
-19.7646
-19.7632
-19.7617
-19.7599
-19.7579
-19.7557
-19.7532
-19.7504
-19.7471
-19.7434
-19.7392
-19.7343
-19.7286
-19.7217
-19.7135
-19.7034
-19.6909
-19.6758
-19.6541
-19.6543
-19.6857
-19.7386
-19.7978
-19.8482
-19.8692
-19.8518
-19.7949
-19.6958
-19.5956
-19.5501
-19.491
-19.4601
-19.4883
-20.0928
-20.1045
-20.1547
-20.2233
-20.3164
-20.4124
-20.4962
-20.5338
-20.519
-20.459
-20.3806
-20.3018
-20.2615
-20.2499
-20.2448
-20.2398
-20.2397
-20.2402
-20.2416
-20.2432
-20.245
-20.2468
-20.2486
-20.2504
-20.252
-20.2536
-20.255
-20.2563
-20.2575
-20.2586
-20.2595
-20.2604
-20.2611
-20.2617
-20.2622
-20.2626
-20.2629
-20.2629
-20.263
-20.2629
-20.2629
-20.2627
-20.2624
-20.2619
-20.2613
-20.2606
-20.2597
-20.2586
-20.2574
-20.2561
-20.2545
-20.2528
-20.2509
-20.2487
-20.2463
-20.2435
-20.2403
-20.2367
-20.2324
-20.2274
-20.2214
-20.214
-20.2051
-20.193
-20.1705
-20.1653
-20.1969
-20.2594
-20.3314
-20.4041
-20.4668
-20.4917
-20.4682
-20.3969
-20.2977
-20.1972
-20.1217
-20.0381
-20.0098
-20.0406
-20.7206
-20.7282
-20.7717
-20.8393
-20.9182
-21.019
-21.1172
-21.1675
-21.1651
-21.1061
-21.0017
-20.8831
-20.7834
-20.7461
-20.7432
-20.7371
-20.7367
-20.7369
-20.7379
-20.7393
-20.7407
-20.7423
-20.7438
-20.7453
-20.7467
-20.748
-20.7492
-20.7504
-20.7514
-20.7524
-20.7532
-20.754
-20.7546
-20.7551
-20.7556
-20.7559
-20.7562
-20.7563
-20.7564
-20.7563
-20.7564
-20.7563
-20.756
-20.7556
-20.7551
-20.7544
-20.7537
-20.7528
-20.7518
-20.7506
-20.7493
-20.7479
-20.7463
-20.7445
-20.7425
-20.7402
-20.7376
-20.7347
-20.7313
-20.7274
-20.7226
-20.7168
-20.7104
-20.7034
-20.6757
-20.6918
-20.7508
-20.8132
-20.8844
-20.9714
-21.0441
-21.0735
-21.0505
-20.9762
-20.8871
-20.8079
-20.7219
-20.6497
-20.6293
-20.6406
-21.3336
-21.3275
-21.3487
-21.4203
-21.4883
-21.5838
-21.689
-21.74
-21.7379
-21.6915
-21.6019
-21.4671
-21.3173
-21.2443
-21.2353
-21.2333
-21.2328
-21.2334
-21.2341
-21.2352
-21.2365