/*--------------------------------*- C++ -*----------------------------------*\
| =========                 |                                                 |
| \\      /  F ield         | OpenFOAM: The Open Source CFD Toolbox           |
|  \\    /   O peration     | Version:  2412                                  |
|   \\  /    A nd           | Website:  www.openfoam.com                      |
|    \\/     M anipulation  |                                                 |
\*---------------------------------------------------------------------------*/
FoamFile
{
    version     2.0;
    format      ascii;
    arch        "LSB;label=32;scalar=64";
    class       volScalarField;
    location    "9";
    object      p_rgh;
}
// * * * * * * * * * * * * * * * * * * * * * * * * * * * * * * * * * * * * * //

dimensions      [1 -1 -2 0 0 0 0];

internalField   nonuniform List<scalar> 
6400
(
7750.54
7750.72
7751.18
7751.95
7753.02
7754.36
7755.96
7757.8
7759.84
7762.05
7764.4
7766.85
7769.36
7771.88
7774.38
7776.81
7779.14
7781.34
7783.39
7785.25
7786.92
7788.37
7789.62
7790.65
7791.47
7792.1
7792.56
7792.85
7792.99
7793.02
7792.96
7792.82
7792.64
7792.43
7792.21
7792
7791.82
7791.67
7791.58
7791.53
7791.54
7791.61
7791.72
7791.88
7792.08
7792.3
7792.52
7792.74
7792.92
7793.05
7793.1
7793.05
7792.88
7792.57
7792.09
7791.43
7790.57
7789.51
7788.24
7786.75
7785.07
7783.2
7781.15
7778.96
7776.65
7774.25
7771.8
7769.34
7766.91
7764.54
7762.28
7760.17
7758.23
7756.49
7754.99
7753.73
7752.75
7752.04
7751.62
7751.47
7750.35
7750.52
7750.97
7751.74
7752.81
7754.16
7755.78
7757.64
7759.71
7761.96
7764.34
7766.82
7769.35
7771.91
7774.44
7776.9
7779.25
7781.48
7783.53
7785.41
7787.08
7788.54
7789.78
7790.81
7791.62
7792.24
7792.68
7792.95
7793.07
7793.08
7792.99
7792.83
7792.63
7792.4
7792.16
7791.94
7791.74
7791.59
7791.48
7791.44
7791.45
7791.52
7791.64
7791.81
7792.02
7792.26
7792.5
7792.73
7792.94
7793.09
7793.16
7793.13
7792.99
7792.69
7792.23
7791.58
7790.73
7789.67
7788.4
7786.91
7785.22
7783.33
7781.27
7779.05
7776.72
7774.29
7771.81
7769.32
7766.86
7764.47
7762.18
7760.04
7758.07
7756.32
7754.8
7753.54
7752.55
7751.85
7751.45
7751.3
7749.84
7750.02
7750.47
7751.25
7752.34
7753.73
7755.39
7757.3
7759.43
7761.74
7764.19
7766.74
7769.35
7771.97
7774.56
7777.09
7779.49
7781.76
7783.85
7785.75
7787.44
7788.91
7790.15
7791.16
7791.96
7792.55
7792.94
7793.17
7793.25
7793.22
7793.08
7792.88
7792.63
7792.36
7792.09
7791.83
7791.61
7791.44
7791.32
7791.27
7791.28
7791.36
7791.5
7791.69
7791.93
7792.19
7792.47
7792.75
7792.99
7793.19
7793.31
7793.33
7793.22
7792.97
7792.54
7791.91
7791.08
7790.03
7788.76
7787.26
7785.54
7783.62
7781.52
7779.26
7776.87
7774.38
7771.85
7769.29
7766.76
7764.3
7761.95
7759.75
7757.73
7755.93
7754.37
7753.09
7752.09
7751.38
7750.98
7750.84
7749
7749.18
7749.65
7750.44
7751.57
7753.01
7754.75
7756.74
7758.96
7761.38
7763.94
7766.6
7769.32
7772.05
7774.76
7777.39
7779.87
7782.21
7784.37
7786.31
7788.03
7789.51
7790.74
7791.74
7792.5
7793.04
7793.38
7793.54
7793.56
7793.45
7793.24
7792.97
7792.66
7792.32
7791.99
7791.69
7791.44
7791.24
7791.1
7791.04
7791.06
7791.14
7791.3
7791.52
7791.8
7792.11
7792.45
7792.79
7793.1
7793.37
7793.56
7793.65
7793.61
7793.41
7793.03
7792.45
7791.65
7790.61
7789.34
7787.82
7786.07
7784.11
7781.94
7779.6
7777.12
7774.54
7771.89
7769.23
7766.59
7764.02
7761.57
7759.27
7757.17
7755.29
7753.68
7752.36
7751.33
7750.62
7750.22
7750.07
7747.82
7748.01
7748.48
7749.31
7750.49
7752.01
7753.84
7755.96
7758.31
7760.87
7763.59
7766.41
7769.28
7772.17
7775.02
7777.78
7780.4
7782.84
7785.08
7787.09
7788.85
7790.35
7791.58
7792.54
7793.26
7793.73
7794
7794.07
7793.99
7793.78
7793.48
7793.11
7792.7
7792.28
7791.88
7791.52
7791.21
7790.97
7790.81
7790.73
7790.75
7790.85
7791.04
7791.3
7791.63
7792.01
7792.42
7792.85
7793.26
7793.62
7793.91
7794.1
7794.15
7794.04
7793.73
7793.21
7792.45
7791.43
7790.15
7788.61
7786.82
7784.78
7782.52
7780.07
7777.46
7774.74
7771.95
7769.14
7766.35
7763.63
7761.04
7758.61
7756.38
7754.41
7752.71
7751.33
7750.27
7749.54
7749.14
7749
7746.29
7746.47
7746.96
7747.84
7749.08
7750.7
7752.65
7754.92
7757.46
7760.21
7763.12
7766.15
7769.24
7772.33
7775.36
7778.29
7781.08
7783.67
7786.03
7788.13
7789.94
7791.45
7792.67
7793.6
7794.24
7794.63
7794.79
7794.75
7794.54
7794.21
7793.77
7793.28
7792.75
7792.23
7791.73
7791.29
7790.91
7790.62
7790.43
7790.33
7790.35
7790.47
7790.7
7791.02
7791.42
7791.89
7792.4
7792.93
7793.46
7793.95
7794.37
7794.68
7794.86
7794.86
7794.65
7794.2
7793.5
7792.51
7791.23
7789.67
7787.81
7785.68
7783.3
7780.71
7777.94
7775.03
7772.04
7769.03
7766.03
7763.12
7760.33
7757.72
7755.34
7753.23
7751.41
7749.97
7748.88
7748.13
7747.73
7747.6
7744.39
7744.57
7745.07
7746.01
7747.31
7749.03
7751.14
7753.61
7756.37
7759.37
7762.54
7765.83
7769.19
7772.54
7775.82
7778.97
7781.98
7784.75
7787.24
7789.44
7791.31
7792.85
7794.05
7794.92
7795.48
7795.76
7795.79
7795.6
7795.23
7794.72
7794.13
7793.47
7792.8
7792.14
7791.53
7790.98
7790.53
7790.17
7789.94
7789.83
7789.85
7790
7790.27
7790.65
7791.14
7791.72
7792.35
7793.02
7793.7
7794.34
7794.93
7795.4
7795.74
7795.88
7795.8
7795.46
7794.83
7793.88
7792.61
7791
7789.07
7786.83
7784.3
7781.52
7778.54
7775.4
7772.15
7768.87
7765.63
7762.46
7759.44
7756.61
7754.02
7751.74
7749.75
7748.3
7747.17
7746.4
7746
7745.87
7742.12
7742.3
7742.78
7743.86
7745.21
7746.98
7749.26
7751.95
7755.02
7758.33
7761.83
7765.46
7769.14
7772.82
7776.41
7779.85
7783.09
7786.08
7788.75
7791.07
7793.02
7794.58
7795.76
7796.56
7797.01
7797.14
7797
7796.61
7796.04
7795.34
7794.54
7793.69
7792.84
7792.02
7791.26
7790.59
7790.04
7789.61
7789.33
7789.19
7789.22
7789.39
7789.72
7790.19
7790.78
7791.48
7792.26
7793.1
7793.96
7794.8
7795.58
7796.27
7796.81
7797.13
7797.22
7797.01
7796.47
7795.58
7794.31
7792.66
7790.64
7788.25
7785.53
7782.52
7779.27
7775.84
7772.29
7768.7
7765.12
7761.65
7758.32
7755.2
7752.37
7749.93
7747.97
7746.34
7745.18
7744.33
7743.95
7743.83
7739.5
7739.69
7740.21
7741.19
7742.57
7744.46
7746.89
7749.88
7753.34
7757.05
7760.95
7764.99
7769.08
7773.15
7777.13
7780.92
7784.48
7787.72
7790.59
7793.06
7795.1
7796.68
7797.83
7798.55
7798.86
7798.81
7798.45
7797.83
7797.01
7796.05
7795.01
7793.93
7792.85
7791.83
7790.9
7790.09
7789.41
7788.9
7788.56
7788.4
7788.43
7788.64
7789.03
7789.59
7790.3
7791.16
7792.12
7793.16
7794.25
7795.32
7796.35
7797.29
7798.07
7798.63
7798.92
7798.88
7798.46
7797.64
7796.38
7794.69
7792.56
7790
7787.05
7783.75
7780.17
7776.38
7772.46
7768.48
7764.51
7760.64
7756.93
7753.45
7750.27
7747.58
7745.48
7743.84
7742.71
7741.96
7741.59
7741.48
7736.54
7736.74
7737.2
7738.01
7739.3
7741.23
7743.91
7747.25
7751.28
7755.46
7759.88
7764.42
7769.01
7773.56
7777.99
7782.22
7786.16
7789.72
7792.85
7795.5
7797.64
7799.25
7800.34
7800.94
7801.07
7800.79
7800.16
7799.25
7798.13
7796.86
7795.51
7794.14
7792.81
7791.56
7790.42
7789.44
7788.63
7788.02
7787.61
7787.42
7787.45
7787.7
7788.17
7788.84
7789.7
7790.73
7791.9
7793.18
7794.53
7795.9
7797.23
7798.48
7799.56
7800.41
7800.94
7801.11
7800.86
7800.13
7798.9
7797.15
7794.88
7792.12
7788.9
7785.27
7781.29
7777.07
7772.68
7768.21
7763.75
7759.39
7755.2
7751.27
7747.61
7744.61
7742.31
7740.73
7739.77
7739.22
7738.96
7738.85
7733.26
7733.43
7733.7
7734.3
7735.43
7737.36
7740.34
7744.15
7748.65
7753.49
7758.55
7763.72
7768.92
7774.07
7779.06
7783.81
7788.21
7792.16
7795.59
7798.45
7800.7
7802.33
7803.35
7803.78
7803.69
7803.12
7802.15
7800.87
7799.37
7797.73
7796.03
7794.33
7792.69
7791.16
7789.8
7788.62
7787.66
7786.93
7786.45
7786.23
7786.26
7786.56
7787.11
7787.9
7788.93
7790.16
7791.58
7793.14
7794.81
7796.52
7798.21
7799.82
7801.3
7802.48
7803.33
7803.77
7803.72
7803.12
7801.93
7800.13
7797.72
7794.71
7791.16
7787.11
7782.65
7777.89
7772.93
7767.87
7762.81
7757.84
7753.05
7748.53
7744.43
7741.05
7738.51
7737.05
7736.34
7736.08
7736.05
7736
7729.68
7729.74
7729.8
7730.11
7731.06
7733.02
7736.19
7740.46
7745.55
7751.11
7756.92
7762.83
7768.77
7774.63
7780.32
7785.71
7790.67
7795.09
7798.89
7802
7804.38
7806.02
7806.93
7807.16
7806.77
7805.84
7804.44
7802.72
7800.77
7798.69
7796.55
7794.45
7792.46
7790.62
7788.98
7787.58
7786.45
7785.59
7785.03
7784.77
7784.81
7785.16
7785.8
7786.74
7787.95
7789.42
7791.12
7793.01
7795.05
7797.16
7799.29
7801.36
7803.27
7804.89
7806.14
7806.91
7807.11
7806.69
7805.57
7803.72
7801.13
7797.84
7793.87
7789.32
7784.27
7778.85
7773.17
7767.4
7761.62
7755.94
7750.45
7745.27
7740.65
7736.84
7734.18
7732.89
7732.53
7732.64
7732.88
7732.97
7725.74
7725.67
7725.46
7725.5
7726.27
7728.18
7731.51
7736.2
7741.9
7748.23
7754.88
7761.69
7768.54
7775.28
7781.82
7787.98
7793.63
7798.62
7802.86
7806.26
7808.79
7810.43
7811.2
7811.15
7810.41
7809.04
7807.09
7804.82
7802.31
7799.69
7797.05
7794.48
7792.07
7789.87
7787.92
7786.28
7784.95
7783.96
7783.31
7783.01
7783.06
7783.46
7784.21
7785.29
7786.71
7788.45
7790.47
7792.74
7795.21
7797.78
7800.42
7803.06
7805.5
7807.66
7809.4
7810.6
7811.14
7810.93
7809.9
7808.02
7805.23
7801.59
7797.14
7791.97
7786.2
7779.98
7773.45
7766.78
7760.11
7753.56
7747.28
7741.42
7736.26
7732.11
7729.51
7728.33
7728.37
7728.88
7729.48
7729.75
7721.27
7721.07
7720.68
7720.46
7720.92
7722.7
7726.13
7731.18
7737.5
7744.66
7752.29
7760.17
7768.1
7775.95
7783.53
7790.66
7797.15
7802.85
7807.62
7811.37
7814.06
7815.68
7816.26
7815.88
7814.66
7812.7
7810.15
7807.18
7803.99
7800.72
7797.48
7794.36
7791.47
7788.86
7786.57
7784.65
7783.12
7781.98
7781.23
7780.89
7780.94
7781.4
7782.26
7783.51
7785.16
7787.19
7789.58
7792.28
7795.28
7798.48
7801.76
7804.96
7808.01
7810.86
7813.21
7814.94
7815.9
7815.98
7815.07
7813.17
7810.15
7806.09
7801.05
7795.13
7788.48
7781.25
7773.64
7765.86
7758.1
7750.52
7743.31
7736.72
7731.08
7726.7
7724.17
7723.43
7723.87
7724.82
7725.76
7726.24
7715.92
7715.58
7714.94
7714.38
7714.53
7716.12
7719.6
7725
7732
7740.11
7748.9
7758.07
7767.38
7776.58
7785.47
7793.79
7801.34
7807.89
7813.31
7817.49
7820.36
7821.94
7822.26
7821.44
7819.62
7816.94
7813.6
7809.81
7805.84
7801.77
7797.8
7794.02
7790.59
7787.52
7784.86
7782.65
7780.89
7779.59
7778.74
7778.35
7778.41
7778.93
7779.9
7781.33
7783.22
7785.57
7788.36
7791.57
7795.13
7798.98
7803
7807.04
7810.99
7814.55
7817.65
7820.05
7821.56
7822
7821.27
7819.33
7816.04
7811.49
7805.73
7798.88
7791.1
7782.61
7773.65
7764.48
7755.35
7746.48
7738.16
7730.73
7724.6
7720.18
7717.83
7717.46
7718.47
7720.04
7721.43
7722.17
7709.21
7708.78
7707.85
7706.86
7706.54
7707.8
7711.26
7717.07
7724.89
7734.13
7744.34
7755.13
7766.14
7777.06
7787.59
7797.44
7806.3
7813.94
7820.15
7824.83
7827.93
7829.44
7829.4
7828.02
7825.41
7821.85
7817.48
7812.74
7807.76
7802.75
7797.92
7793.37
7789.36
7785.78
7782.71
7780.17
7778.18
7776.73
7775.79
7775.36
7775.42
7775.98
7777.06
7778.67
7780.82
7783.5
7786.7
7790.47
7794.69
7799.32
7804.21
7809.21
7814.13
7818.77
7822.8
7826.06
7828.28
7829.21
7828.72
7826.72
7823.14
7817.98
7811.34
7803.32
7794.12
7784.02
7773.33
7762.39
7751.51
7741.03
7731.34
7722.88
7716.12
7711.59
7709.57
7709.87
7711.74
7714.16
7716.16
7717.17
7700.3
7699.76
7698.56
7697.02
7696.1
7696.89
7700.28
7706.64
7715.54
7726.16
7738.08
7750.86
7764.06
7777.2
7789.89
7801.7
7812.24
7821.21
7828.4
7833.7
7837.03
7838.43
7837.98
7835.86
7832.2
7827.46
7821.97
7815.94
7809.71
7803.56
7797.74
7792.48
7787.69
7783.53
7780
7777.14
7774.92
7773.33
7772.31
7771.84
7771.91
7772.51
7773.69
7775.46
7777.87
7780.91
7784.49
7788.87
7793.84
7799.38
7805.34
7811.51
7817.59
7823.64
7828.75
7833.14
7836.32
7837.84
7837.7
7835.66
7831.71
7825.83
7818.09
7808.62
7797.63
7785.45
7772.49
7759.23
7746.11
7733.6
7722.24
7712.5
7704.89
7700.15
7698.61
7699.84
7702.87
7706.38
7709.15
7710.49
7689.39
7688.72
7687.08
7684.55
7682.51
7682.33
7685.51
7692.69
7703.21
7715.29
7729.13
7744.38
7760.39
7776.48
7792.04
7806.45
7819.18
7829.87
7838.31
7844.36
7847.99
7849.21
7848.18
7845.11
7840.25
7834.04
7826.99
7819.38
7811.6
7804.02
7797.01
7790.78
7785.4
7780.62
7776.59
7773.39
7770.98
7769.28
7768.21
7767.71
7767.77
7768.39
7769.63
7771.55
7774.25
7777.74
7781.9
7786.69
7792.41
7799
7806.27
7813.93
7821.63
7828.99
7835.47
7841.47
7846.01
7848.23
7848.44
7846.41
7842.02
7835.24
7826.12
7814.78
7801.47
7786.55
7770.56
7754.2
7738.18
7723.14
7709.85
7698.71
7689.8
7684.67
7683.82
7686.63
7691.52
7696.77
7700.63
7702.37
7674.19
7673.16
7670.89
7667.45
7664.31
7662.6
7665.13
7673.58
7686.72
7699.97
7716.32
7734.72
7754.41
7774.45
7793.82
7811.65
7827.28
7840.24
7850.32
7857.38
7861.37
7862.33
7860.47
7856.12
7849.52
7841.47
7832.71
7823.18
7813.47
7804.12
7795.63
7788.42
7782.4
7776.81
7772.16
7768.64
7766.14
7764.44
7763.38
7762.89
7762.93
7763.5
7764.69
7766.66
7769.62
7773.73
7778.79
7783.68
7790.23
7798.12
7807.02
7816.55
7826.21
7835.46
7843.58
7851.42
7857.26
7860.65
7861.5
7859.54
7854.59
7846.62
7835.66
7821.86
7805.47
7786.96
7766.97
7746.43
7726.52
7708.2
7692.53
7680.01
7669.21
7663.28
7663.57
7668.64
7675.65
7683.05
7688.76
7691.12
5483.23
5464.78
5426.84
5402.53
5351.86
5286
5372.75
5651.75
5950.38
6190.73
6434.04
6682.99
6945.86
7190.15
7393.34
7549.72
7658.54
7730.21
7776.25
7805.4
7824.71
7839.04
7851.91
7861.35
7860.42
7788.02
7701.32
7605.63
7507.36
7416.96
7341.2
7282.73
7237.65
7195.77
7160.12
7134.04
7116.28
7104.22
7096.64
7092.71
7093.2
7096.79
7102.92
7117.02
7141.2
7175.24
7214.46
7252.9
7300.49
7362.25
7440.27
7531.6
7627.87
7719.48
7800.54
7863.13
7856.34
7841.72
7826.59
7811.39
7790.46
7757.25
7703.68
7621.82
7500.77
7331.4
7111.53
6849.04
6560.79
6283.74
6034.84
5812.43
5560.35
5331.21
5277.79
5395.14
5516.25
5620.44
5757.83
5778.43
512.875
496.382
456.632
433.574
416.447
393.414
369.965
361.239
435.05
556.429
736.537
968.998
1265.75
1637.37
2049.89
2456.17
2823.67
3125.38
3353.68
3498.47
3548.29
3497
3357.87
3159.81
2928.41
2697.97
2485.11
2279.96
2079.16
1894.96
1736.4
1609.73
1516.01
1437.6
1377.24
1336.87
1312.44
1297.99
1288.69
1281.23
1275.81
1274.51
1279.47
1293.2
1319.34
1362.71
1423.7
1503.03
1618.16
1767.2
1941.83
2137.16
2344.7
2551.52
2761.57
2984.09
3195.88
3370.93
3482.66
3506.2
3429.44
3259.04
3009.08
2691.88
2315.11
1908.22
1504.98
1141.58
858.026
640.45
475.35
365.959
304.288
325.023
375.177
444.881
504.789
559.074
630.313
636.396
10.5475
8.88517
6.72672
5.09961
4.98758
4.37228
2.25664
1.11636
0.962696
0.804301
0.760145
0.902724
1.12859
1.16969
0.922094
0.739238
0.703781
0.70649
0.677197
0.63276
0.588312
0.546666
0.51929
0.558604
0.702256
0.909258
0.822486
0.623991
0.558437
0.509576
0.442831
0.390478
0.352823
0.315596
0.297456
0.314199
0.368802
0.462844
0.597825
0.763783
0.942726
1.09884
1.21425
1.28513
1.31808
1.32695
1.32504
1.323
1.35609
1.40756
1.42641
1.39651
1.34328
1.25562
1.14298
1.0099
0.942338
0.96225
1.00787
1.05652
1.12055
1.17486
1.18403
1.13688
1.05678
0.976482
0.9298
0.921625
0.930058
0.948313
0.973876
1.00733
1.03624
2.33878
3.53078
4.33145
5.51855
7.41799
7.33518
6.77645
3.69529
2.98531
2.55103
2.1028
2.99305
3.38509
1.76404
1.13884
0.935503
0.863361
0.852033
1.61836
3.19013
3.10181
1.9148
0.8736
0.855588
0.83874
0.78261
0.718113
0.669597
0.631779
0.604795
0.906959
0.944865
0.880857
0.720097
0.474994
0.409912
0.413878
0.414863
0.409052
0.386527
0.349438
0.316045
0.317733
0.38691
0.570304
0.922029
1.22931
1.42838
1.4268
1.39657
1.3224
1.33325
1.36784
1.36514
1.33756
1.30979
1.2652
1.23245
1.19473
1.14771
1.10649
1.0657
1.03892
1.04515
1.06673
1.10499
1.13764
1.17431
1.20526
1.21043
1.17482
1.10471
1.02604
0.968244
0.945109
0.948393
0.960964
0.989039
1.06259
1.01744
1.15288
1.39903
1.60378
1.96086
3.01914
1.82627
1.6391
2.72858
2.3687
2.23508
1.8337
2.93068
4.92687
2.13115
1.09488
0.988965
0.958987
1.62184
3.20419
3.11747
3.01215
2.9143
1.3023
1.72135
2.15648
1.58253
0.694307
0.654071
0.625704
0.614199
1.21071
1.70873
1.75413
1.48158
0.408022
0.379004
0.374968
0.369887
0.359881
0.331613
0.280763
0.23594
0.593276
1.29885
1.7065
1.78641
1.89342
2.09624
2.31081
2.4826
2.40945
1.62391
1.40861
1.43269
1.42741
1.35784
1.26557
1.24473
1.22038
1.17105
1.11756
1.06711
1.04158
1.04294
1.0509
1.05511
1.08632
1.1594
1.35501
1.45302
1.3914
1.27394
1.05963
0.867366
0.815265
0.806287
0.827138
0.872035
0.912732
0.908291
0.865239
0.918449
1.05537
1.14348
2.80194
1.7012
1.57465
2.5215
2.30509
1.51574
1.44754
1.39096
2.64782
3.03406
2.52298
1.00742
0.991526
3.07519
3.27505
3.0112
0.889581
0.981959
2.12555
2.18196
2.19379
1.17185
0.710658
0.803989
0.773916
0.71635
0.263307
0.771659
1.74926
1.53965
0.369104
0.335125
0.33021
0.322425
0.308799
0.272379
0.205237
0.858391
1.92287
1.93926
1.98062
1.44206
0.93358
1.27774
1.914
2.41067
2.71412
2.80801
2.06871
1.41747
1.39559
1.35929
1.27505
1.25405
1.2253
1.33047
1.79369
1.17143
1.01406
0.996289
0.990952
1.00637
1.111
1.66896
1.90686
1.86675
1.7855
1.66187
1.34237
0.737866
0.632256
0.583453
0.567761
0.588883
0.632673
0.654787
0.633889
0.664821
0.768409
0.940262
2.58707
5.18265
2.08652
2.76948
1.55825
1.46798
1.40456
1.36871
1.79763
3.07869
2.96536
1.36456
1.11599
4.13858
3.15511
0.515586
0.43581
1.46108
2.11095
1.58859
0.835558
0.6787
0.551145
0.316191
0.202749
0.161963
0.147557
0.167714
1.2205
0.952472
0.289191
0.284472
0.282954
0.272458
0.252862
0.206108
0.259322
1.79416
1.85384
1.88836
0.883891
0.146354
0.267456
0.449323
0.694042
1.03822
2.19645
2.81633
2.89739
2.48423
1.40914
1.27826
1.25267
1.2524
1.21104
1.7085
2.21713
1.6388
0.96747
0.93174
0.918956
1.00017
1.67636
1.82089
1.81055
1.74886
1.62982
1.46902
1.14547
0.580565
0.437449
0.36601
0.283319
0.220476
0.250844
0.309547
0.354878
0.471739
0.713315
1.85892
5.30453
5.75318
3.10415
1.75196
2.78104
2.33943
1.36914
1.34765
1.35846
3.04547
2.73506
1.27442
2.20416
4.33666
2.3484
0.48536
0.484837
0.633803
0.708562
0.505359
0.313177
0.266721
0.248546
0.215451
0.181717
0.149421
0.129736
0.129483
0.187828
0.206197
0.22629
0.240125
0.239049
0.226106
0.202861
0.150763
0.4081
1.87081
1.81433
1.66106
-0.00786694
0.0740203
0.174147
0.356883
1.33972
1.52731
1.50211
1.69654
2.85416
2.90546
2.14637
1.17807
1.19954
1.20898
1.17871
2.01338
2.23179
1.37984
0.895023
0.847658
0.837308
1.41444
1.70322
1.70774
1.67902
1.59036
0.958142
0.677625
0.632075
0.85272
1.95654
3.21093
2.20366
0.21144
-0.0937986
-0.0122435
0.0750067
0.271986
1.21793
5.01205
5.59065
5.98414
3.56614
1.98802
3.63903
3.61947
3.09092
2.59425
2.8309
2.91213
1.22399
1.21354
3.91144
4.4188
2.16874
0.466493
0.42055
0.373631
0.335414
0.301586
0.242172
0.23969
0.231646
0.210741
0.188194
0.159202
0.140181
0.135241
0.143397
0.171965
0.200058
0.208098
0.204208
0.195177
0.203569
0.135791
0.0472086
0.665312
1.61391
0.26251
-0.0296392
0.0348131
0.109876
0.923881
1.68043
1.82603
1.31392
1.22608
2.03992
2.8112
2.60933
1.13454
1.09841
1.11987
1.09707
1.95655
2.23415
1.2551
0.797641
0.737843
0.897245
1.57453
1.57329
1.57062
1.53065
1.10667
0.581017
0.455526
0.818817
4.14103
4.59901
4.3739
4.27268
4.08049
3.74458
2.32525
-0.188333
0.0227953
3.17619
5.1215
5.53344
5.93465
3.66749
1.95537
3.54383
3.53506
3.53675
3.51482
3.43228
3.14009
1.20458
1.20059
2.58037
4.4772
2.15901
0.441862
0.4226
0.389725
0.344941
0.305213
0.280292
0.234429
0.228814
0.215439
0.200469
0.181734
0.166675
0.162068
0.168515
0.184214
0.193268
0.185333
0.234601
1.04078
1.23026
0.61373
0.838412
0.929332
0.281378
-0.0545441
-0.02794
0.0119876
0.0640199
1.15168
1.62127
1.74294
1.29984
1.03838
1.19815
2.74049
2.62419
1.05888
0.964564
0.999744
0.990265
1.87286
2.20974
1.53914
0.684361
0.609104
1.02003
1.43303
1.42939
1.42692
1.38555
0.750129
0.425156
0.277477
1.02126
4.67814
4.44096
4.20458
4.09097
4.06869
4.13785
4.26795
3.84603
1.67743
4.15739
5.01316
5.36281
5.73342
4.76164
2.06292
3.44156
3.4724
3.47575
2.70768
2.55806
2.90033
2.39756
1.225
1.27359
4.52701
2.90669
0.418396
0.43295
1.44601
0.995443
0.684148
0.299254
0.264812
0.354046
0.220433
0.214609
0.204724
0.196593
0.1942
0.196994
0.20055
0.194729
0.171302
0.762425
1.27696
1.27279
1.26824
1.23821
1.17641
1.12096
0.12128
-0.0348857
-0.0152973
0.0199909
1.06095
1.59095
1.43416
0.871388
0.908727
0.959825
2.76481
2.3907
0.880596
0.817157
0.861888
0.87777
1.98795
2.15257
2.05736
0.717689
0.500757
0.88313
1.29097
1.28834
1.29334
1.2502
0.894065
0.307923
0.152252
0.187405
2.96982
4.36966
4.20543
4.08298
4.03822
4.06586
4.13251
4.24412
4.37502
4.64295
4.8583
5.21081
5.55286
5.85841
3.52469
3.45061
3.46009
1.88858
0.299647
0.280613
1.63924
2.84434
1.60216
1.31537
3.0382
4.71454
2.46365
5.49474
7.03103
4.41424
0.587694
0.285108
0.477837
0.524375
0.220171
0.222419
0.221184
0.219375
0.219858
0.22071
0.217577
0.204277
0.171297
0.728432
1.26374
1.24928
1.23578
1.21019
1.17822
0.375006
-0.049816
-0.0499683
-0.041743
-0.0218424
0.938291
1.60985
1.48073
0.798983
0.823398
0.86327
2.96172
2.36548
0.709508
0.663242
0.71012
0.753078
2.04641
2.07089
1.99701
1.19251
0.416775
0.630988
1.17162
1.16797
1.10356
0.565207
0.690336
0.272619
0.119233
-0.053219
-0.282651
2.09028
4.20084
4.22286
4.14682
4.11881
4.14429
4.2264
4.36158
4.56035
4.83486
5.17567
5.5024
5.88813
2.23627
3.52751
3.4774
0.581996
0.221693
0.210633
0.212176
2.3861
2.60799
1.30816
1.31064
4.99851
7.02887
6.94424
6.89581
6.9438
5.53148
0.255261
0.453709
0.517517
0.224264
0.226397
0.230411
0.232704
0.235472
0.236918
0.233816
0.220348
0.182758
0.187783
0.728197
1.25281
1.23314
1.10753
0.200219
-0.0488464
-0.0559303
-0.0626242
-0.0670697
-0.0613858
1.01052
1.6167
1.70599
1.04841
0.748299
0.927572
3.26146
2.5185
0.56028
0.501007
0.545123
0.577073
1.64927
1.97291
1.91215
1.04733
0.349399
0.262404
0.821636
1.05673
0.313629
0.250186
0.294435
0.415312
0.14889
-0.0107097
-0.227366
-0.453305
-0.568529
2.86672
4.34188
4.28952
4.2817
4.34422
4.47481
4.67081
4.9419
5.29687
5.73579
3.67152
1.7812
2.67875
0.950356
0.420736
0.144323
0.131481
0.128135
0.580557
2.5203
2.26589
1.31803
1.20796
6.09436
6.81086
6.76172
6.89617
6.92622
1.91839
0.357652
0.291859
0.266079
0.230447
0.236123
0.240192
0.244116
0.246393
0.25605
0.274481
0.233488
0.191686
0.15457
0.15758
0.0872054
0.00519002
-0.0130846
-0.0330201
-0.0542958
-0.0750609
-0.0935262
-0.103092
1.283
1.57933
1.62956
1.02338
0.651812
1.9788
3.29672
3.11841
0.468366
0.326665
0.368662
0.401391
1.50321
1.86318
1.81695
1.13103
0.987122
0.604813
0.349389
0.265953
0.186794
0.232415
0.283468
0.444568
0.197783
0.0686992
-0.108369
-0.300505
-0.463202
-0.570524
0.409414
4.4579
4.55847
4.58892
4.70848
4.91085
5.20704
5.65174
6.11157
0.73033
1.83135
0.687846
0.177919
0.238668
0.10396
0.0613808
0.0483323
0.0302574
2.17893
2.41914
1.72719
0.946928
0.86716
2.74794
6.90949
3.74398
0.640971
2.38728
1.32379
0.275212
0.267806
0.236377
0.240941
0.245916
0.251195
0.255143
0.275816
0.316853
0.305712
0.276608
0.229738
0.137254
0.0912147
0.0565779
0.0252905
-0.00733051
-0.054636
-0.0905512
-0.122288
0.0186083
1.51478
1.51376
1.52274
0.393661
0.634236
3.16905
3.23889
3.2951
0.559141
0.139877
0.183378
0.244455
1.71255
1.74207
0.894285
1.60394
1.6669
1.63677
0.360539
0.159343
0.192095
0.229894
0.282433
0.460999
0.234647
0.140526
0.0145506
0.0205023
0.0604253
-0.168529
-0.602993
-0.776763
2.15333
5.06971
5.17889
5.3867
5.68559
5.08924
1.7546
0.638728
1.72135
0.259673
0.11842
0.0683076
0.0378636
0.0166988
-0.00411254
-0.0289589
0.565244
1.33757
1.3337
0.880331
0.640341
0.443572
0.6277
0.535315
0.617107
0.815569
1.35505
0.600322
0.235719
0.240404
0.245847
0.251976
0.258272
0.263561
0.269253
0.287622
0.316221
0.293044
0.225742
0.172755
0.131725
0.10212
0.0657852
0.0141791
-0.0608314
-0.113067
-0.159073
0.994684
1.49371
1.42046
0.931014
-0.037666
0.85299
3.10606
3.14318
3.18144
0.914347
-0.0494966
0.00153892
0.0856584
1.5509
1.5796
0.00898089
1.20232
1.56458
1.61631
0.90101
0.227717
0.18834
0.219887
0.230899
0.258105
0.282669
0.162506
0.330812
0.417546
0.325527
0.191556
-0.330106
-0.433347
-0.434833
0.693497
2.03012
2.61735
1.61894
0.923088
0.574939
0.595775
0.234364
0.14364
0.0896297
0.0471592
0.0182221
-0.00381207
-0.0314313
-0.0534804
0.351471
0.971062
1.16343
0.93236
0.627401
0.534744
0.513532
0.59377
0.730145
1.13409
1.25461
0.645088
0.236348
0.242456
0.250251
0.257967
0.265316
0.271709
0.275706
0.275475
0.269462
0.253828
0.228452
0.19603
0.1842
0.133169
0.0766443
-0.0112497
-0.0827024
-0.144049
-0.169905
1.55427
1.40786
1.3148
0.0456872
-0.268336
0.685549
3.01086
3.03278
3.06474
0.738782
-0.213025
-0.153417
-0.0816338
1.41283
1.37845
-0.220135
0.0829409
1.41421
1.51986
1.61558
0.608831
0.161664
0.19589
0.208081
0.292664
0.867719
0.176502
0.0356047
0.193155
0.468833
0.416398
-0.0885684
-0.144907
-0.107169
0.000405106
0.227434
0.494198
0.680406
0.644366
0.59274
0.573577
0.146275
0.11199
0.074072
0.0412822
0.0150858
-0.0113389
-0.0459327
-0.0092152
0.325528
1.05316
1.06314
0.988778
1.00273
0.809702
0.569161
0.667745
0.794518
1.21962
1.30665
0.814421
0.230001
0.241983
0.253021
0.262438
0.270723
0.277751
0.282543
0.282938
0.276925
0.263266
0.25983
0.242927
0.197369
0.136281
0.0420357
-0.0301933
-0.107223
-0.18479
1.18725
1.5057
1.31694
0.284842
-0.480742
-0.42971
1.33593
2.92491
2.93709
2.99087
0.245906
-0.313818
-0.257087
-0.220212
1.35418
0.484476
-0.338626
-0.359503
0.660959
1.432
1.56752
1.56591
0.125061
0.165044
0.189355
0.40434
1.14364
0.970573
0.040871
0.00333422
-0.0118961
0.0704271
0.0594923
0.0191937
0.0706859
0.219799
0.624145
0.828617
0.807908
0.691361
0.641872
0.607142
0.126562
0.10568
0.0769914
0.0451861
0.0193665
-0.0104129
-0.0512016
-0.104709
-0.0638372
1.0005
0.991325
0.963551
0.977443
1.02507
0.657236
0.949219
1.14801
1.26869
1.31523
0.500238
0.221217
0.239386
0.253376
0.264312
0.273176
0.280436
0.285373
0.285955
0.296326
0.31429
0.290745
0.246714
0.169653
0.101296
0.0319671
-0.0485342
-0.136428
-0.167754
1.6213
1.41219
1.22582
-0.557176
-0.611167
-0.505923
2.76507
2.86321
2.89174
0.816776
-0.384006
-0.36695
-0.290486
-0.252042
0.704417
-0.25969
-0.364828
-0.3839
-0.31883
0.645548
1.55934
1.64923
0.205738
0.315937
0.428421
0.913328
1.14847
1.14307
0.641436
0.0349223
0.0211907
0.0338732
0.0642119
0.103342
0.154195
0.241817
1.37647
2.71207
2.7844
2.04972
0.986795
0.973642
0.11773
0.115382
0.093361
0.0577724
0.027654
-0.00531839
-0.0462593
-0.0999455
-0.171582
0.0470517
0.99344
0.983315
0.987191
1.03311
1.11786
0.775337
1.13985
1.26122
0.507254
0.184306
0.212845
0.23486
0.25096
0.263141
0.272369
0.279223
0.289037
0.336344
0.345717
0.330178
0.260126
0.202283
0.152339
0.0903312
0.0171434
-0.069881
-0.167818
0.97259
1.55787
1.33406
-0.0329305
-0.681064
-0.677372
1.26887
2.79108
2.83352
1.79192
-0.630358
-0.478477
-0.347593
-0.257459
-0.201349
-0.239801
-0.279381
-0.310334
-0.322615
-0.302253
-0.23284
1.60004
0.714954
0.200001
0.580484
1.06289
1.1432
1.14883
1.1592
1.13697
0.241348
0.397073
0.193813
0.114359
0.152383
0.210052
0.417514
1.96637
2.70095
2.7487
2.61466
0.642667
0.934686
0.115966
0.107123
0.100483
0.0778173
0.0406073
0.00543287
-0.0300207
-0.0770232
-0.139524
-0.214095
-0.256996
0.771222
1.05653
1.08836
1.07731
0.0468694
0.283573
0.28628
0.128795
0.170864
0.203985
0.228053
0.24592
0.258792
0.267832
0.297949
0.365803
0.364705
0.309754
0.25366
0.227415
0.189264
0.141228
0.076937
5.86904e-05
-0.0915491
-0.201945
1.46005
1.45348
1.29368
-0.496249
-0.720281
-0.685696
2.68064
2.75799
0.829849
-0.637183
-0.570145
-0.400459
-0.269107
-0.173032
-0.113507
-0.134801
-0.1753
-0.206185
-0.218576
-0.208295
-0.170858
0.824528
0.416735
0.226123
0.583759
0.191384
1.12602
1.14339
1.16104
0.708769
0.398861
0.724969
0.88522
0.922001
0.89199
1.30511
1.7873
2.6203
2.69958
2.48881
0.628422
0.441216
0.496032
0.116832
0.107781
0.106684
0.086176
0.0560726
0.0211119
-0.00722723
-0.0437495
-0.0915274
-0.148252
-0.202397
-0.0702171
0.347606
0.445407
-0.0226773
-0.0848637
0.000289346
0.066621
0.118426
0.160969
0.193942
0.219499
0.238802
0.258778
0.342304
0.364789
0.35084
0.263788
0.253902
0.238352
0.211293
0.182358
0.133996
0.0650503
-0.0171239
-0.111735
-0.237098
1.41022
1.37349
-0.18528
-0.730389
-0.719293
1.32359
2.68321
2.18462
-0.757744
-0.632732
-0.458468
-0.291991
-0.164962
-0.0761663
-0.020383
0.144938
-0.0536768
-0.0920513
-0.106818
-0.108711
-0.0747284
0.395767
0.374236
0.704391
0.480631
-0.0749343
0.286476
1.07701
1.13636
1.12625
0.816335
0.564869
0.596607
1.61238
1.9523
2.05669
2.1579
2.23441
1.92707
0.501894
0.318258
0.333591
0.336482
0.11653
0.107966
0.109577
0.0937898
0.0713735
0.0374013
0.0162592
-0.0098686
-0.0427994
-0.0813785
-0.119824
-0.147013
-0.157845
-0.146811
-0.105509
-0.0462791
0.0147782
0.0681793
0.113287
0.150775
0.182768
0.210031
0.280467
0.334816
0.341011
0.310328
0.249359
0.244373
0.234915
0.219408
0.201261
0.165081
0.116946
0.0498431
-0.0319938
-0.128677
0.610002
1.52684
0.394754
-0.684957
-0.72323
0.263862
2.68607
2.74819
-0.741937
-0.669493
-0.515773
-0.33998
-0.181789
-0.0661337
0.00279326
0.430931
0.726423
0.617325
0.0805463
-0.00959237
-0.0221347
0.153583
0.504056
0.390146
0.795468
0.320719
-0.0780638
-0.0912155
-0.0583783
0.419396
0.793851
0.918746
0.947486
0.663424
0.281968
0.30528
0.488479
0.730852
0.590409
0.244871
0.268421
0.304846
0.295766
0.300962
0.114225
0.107144
0.102554
0.100402
0.0857903
0.0555736
0.0365163
0.0185439
-0.00314966
-0.0277968
-0.0524421
-0.0721908
-0.0816608
-0.0750096
-0.0505768
-0.0129671
0.0294687
0.0702708
0.106241
0.138328
0.180217
0.285006
0.316313
0.330658
0.274084
0.239814
0.232691
0.223911
0.213083
0.1969
0.178098
0.147015
0.10272
0.0365398
-0.0405022
-0.137866
1.78411
1.55595
-0.541583
-0.620413
-0.661789
0.940224
2.75375
1.07824
-0.644564
-0.52058
-0.386112
-0.197043
0.532069
0.534127
0.083358
0.744491
0.785976
0.76659
0.348141
0.0648627
0.0453254
0.326572
0.55354
0.442981
0.815977
0.0402231
-0.0757098
-0.0794055
-0.0681677
-0.0451131
-0.0121077
0.355533
0.85812
1.13384
1.09671
0.587224
0.186876
0.199131
0.221154
0.242853
0.247
0.257789
0.26668
0.2705
0.110176
0.105299
0.09803
0.103537
0.0938421
0.0706444
0.0523815
0.0401297
0.0258626
0.0100353
-0.00576793
-0.0191194
-0.0266986
-0.0256574
-0.0140019
0.0081103
0.0376062
0.0685204
0.0960294
0.123188
0.203165
0.276272
0.293716
0.236704
0.239412
0.230661
0.217324
0.204744
0.192673
0.174433
0.149421
0.132637
0.0932334
0.0347894
-0.039027
-0.133444
1.52116
1.62687
-0.455916
-0.521913
-0.551
0.372038
0.691416
-0.549668
-0.486473
-0.413695
0.010874
1.27597
1.45378
1.52165
1.20559