/*--------------------------------*- C++ -*----------------------------------*\
| =========                 |                                                 |
| \\      /  F ield         | OpenFOAM: The Open Source CFD Toolbox           |
|  \\    /   O peration     | Version:  2412                                  |
|   \\  /    A nd           | Website:  www.openfoam.com                      |
|    \\/     M anipulation  |                                                 |
\*---------------------------------------------------------------------------*/
FoamFile
{
    version     2.0;
    format      ascii;
    arch        "LSB;label=32;scalar=64";
    class       volScalarField;
    location    "8.2";
    object      p_rgh;
}
// * * * * * * * * * * * * * * * * * * * * * * * * * * * * * * * * * * * * * //

dimensions      [1 -1 -2 0 0 0 0];

internalField   nonuniform List<scalar> 
6400
(
133712
133702
133683
133654
133616
133570
133517
133459
133398
133335
133273
133212
133155
133102
133055
133015
132981
132956
132938
132928
132925
132930
132941
132957
132979
133004
133033
133063
133095
133128
133160
133190
133219
133246
133270
133290
133307
133320
133330
133335
133336
133333
133327
133317
133303
133287
133268
133246
133222
133198
133172
133146
133121
133097
133075
133056
133040
133029
133022
133021
133026
133037
133055
133079
133109
133146
133188
133234
133285
133338
133392
133446
133499
133549
133595
133635
133668
133693
133710
133717
133720
133711
133691
133661
133622
133574
133520
133461
133398
133334
133270
133208
133150
133096
133048
133007
132974
132948
132930
132921
132918
132924
132935
132953
132975
133002
133031
133063
133096
133129
133162
133193
133223
133250
133274
133295
133312
133325
133335
133340
133341
133338
133332
133321
133308
133291
133271
133249
133225
133199
133173
133147
133121
133096
133073
133053
133037
133024
133017
133015
133020
133030
133048
133072
133103
133140
133182
133230
133281
133335
133391
133447
133501
133552
133599
133640
133674
133700
133717
133725
133740
133730
133709
133677
133635
133585
133528
133465
133399
133332
133265
133200
133139
133084
133034
132992
132958
132932
132915
132906
132905
132911
132924
132943
132968
132996
133028
133061
133096
133131
133165
133198
133229
133257
133282
133303
133321
133335
133344
133349
133350
133347
133340
133330
133315
133298
133277
133254
133229
133202
133175
133147
133119
133093
133069
133047
133029
133015
133007
133004
133007
133017
133034
133058
133090
133128
133172
133221
133274
133331
133389
133448
133505
133559
133608
133652
133688
133715
133733
133742
133771
133760
133737
133702
133657
133603
133541
133473
133402
133330
133258
133189
133124
133065
133013
132969
132934
132908
132891
132883
132883
132892
132907
132929
132956
132987
133022
133058
133096
133133
133170
133205
133237
133267
133293
133315
133334
133348
133357
133363
133364
133360
133353
133341
133326
133307
133285
133261
133234
133206
133176
133146
133117
133088
133061
133037
133017
133001
132990
132985
132988
132997
133014
133038
133070
133110
133156
133208
133264
133325
133387
133450
133512
133570
133624
133671
133710
133740
133759
133769
133814
133802
133777
133738
133688
133627
133559
133484
133406
133326
133248
133173
133102
133039
132984
132937
132900
132874
132857
132851
132854
132865
132884
132910
132941
132976
133014
133055
133096
133137
133176
133214
133248
133280
133308
133331
133350
133365
133375
133380
133381
133377
133368
133356
133340
133320
133296
133270
133241
133210
133178
133146
133113
133081
133051
133024
133000
132981
132967
132960
132961
132969
132985
133010
133043
133085
133134
133190
133251
133317
133385
133454
133521
133586
133645
133697
133741
133774
133796
133807
133871
133858
133829
133785
133728
133659
133582
133498
133410
133321
133234
133151
133074
133005
132945
132896
132857
132830
132815
132810
132816
132831
132854
132885
132921
132961
133005
133050
133096
133141
133184
133225
133263
133297
133326
133351
133371
133386
133396
133402
133402
133397
133388
133374
133357
133335
133310
133281
133250
133216
133181
133144
133108
133072
133038
133006
132978
132955
132938
132928
132926
132932
132948
132973
133008
133052
133105
133166
133233
133306
133381
133458
133534
133606
133673
133732
133781
133819
133844
133856
133944
133928
133895
133844
133779
133700
133611
133515
133415
133315
133217
133123
133038
132962
132896
132843
132803
132776
132761
132759
132769
132788
132817
132854
132896
132943
132993
133044
133096
133146
133194
133240
133281
133317
133349
133376
133397
133413
133423
133428
133428
133422
133412
133397
133378
133354
133326
133295
133261
133224
133184
133144
133102
133061
133022
132985
132952
132924
132902
132888
132882
132886
132901
132927
132963
133011
133069
133136
133211
133292
133377
133463
133549
133632
133708
133776
133833
133876
133905
133918
134035
134017
133977
133918
133841
133749
133646
133535
133421
133306
133194
133089
132992
132907
132835
132778
132735
132708
132695
132697
132711
132737
132772
132816
132866
132921
132979
133038
133096
133153
133207
133257
133303
133343
133377
133406
133428
133444
133455
133460
133459
133452
133441
133424
133403
133377
133347
133312
133274
133233
133189
133143
133096
133050
133004
132960
132921
132886
132859
132839
132830
132831
132844
132869
132908
132959
133023
133097
133181
133273
133370
133469
133567
133662
133751
133830
133896
133947
133981
133997
134147
134125
134078
134008
133917
133809
133689
133559
133426
133293
133165
133044
132935
132840
132760
132697
132652
132625
132615
132620
132641
132674
132719
132772
132832
132896
132963
133032
133098
133163
133223
133279
133329
133373
133410
133441
133465
133482
133492
133496
133495
133487
133474
133456
133432
133404
133370
133333
133290
133245
133195
133144
133090
133036
132983
132931
132884
132842
132807
132781
132766
132763
132774
132799
132840
132895
132966
133049
133144
133249
133360
133474
133589
133700
133803
133896
133974
134034
134075
134094
134284
134257
134201
134117
134009
133880
133738
133586
133431
133276
133128
132989
132864
132756
132668
132599
132551
132525
132518
132530
132558
132601
132656
132721
132793
132869
132948
133027
133103
133177
133245
133307
133362
133410
133450
133483
133507
133525
133535
133539
133536
133527
133512
133492
133466
133435
133398
133357
133310
133259
133204
133145
133084
133021
132959
132898
132841
132789
132745
132711
132689
132681
132689
132714
132757
132817
132895
132989
133098
133218
133347
133480
133614
133744
133866
133976
134069
134141
134189
134212
134450
134418
134350
134248
134117
133964
133796
133617
133434
133254
133081
132921
132778
132655
132556
132481
132431
132406
132404
132423
132462
132516
132585
132663
132749
132840
132932
133023
133112
133195
133272
133341
133402
133455
133498
133532
133557
133575
133584
133587
133582
133572
133555
133533
133505
133471
133431
133385
133334
133277
133215
133149
133079
133007
132934
132861
132792
132729
132674
132629
132599
132584
132588
132611
132656
132722
132810
132917
133042
133181
133331
133486
133643
133796
133940
134071
134182
134269
134327
134355
134652
134612
134529
134405
134248
134064
133864
133652
133437
133224
133021
132835
132670
132530
132419
132337
132285
132263
132268
132297
132349
132418
132502
132598
132701
132808
132916
133022
133123
133218
133305
133383
133450
133506
133552
133588
133614
133631
133640
133641
133635
133623
133604
133579
133549
133512
133468
133419
133362
133299
133230
133155
133075
132992
132906
132821
132738
132660
132591
132534
132492
132468
132466
132487
132533
132606
132704
132827
132971
133133
133308
133491
133675
133856
134027
134184
134318
134423
134494
134529
134897
134847
134745
134595
134405
134185
133945
133692
133435
133184
132945
132727
132536
132377
132252
132163
132111
132093
132107
132150
132217
132305
132408
132524
132647
132774
132900
133023
133140
133249
133347
133433
133507
133568
133617
133654
133680
133696
133703
133702
133694
133679
133658
133631
133598
133558
133512
133458
133396
133327
133250
133165
133074
132978
132878
132777
132677
132583
132497
132424
132367
132332
132321
132338
132385
132464
132574
132714
132881
133071
133277
133493
133712
133928
134133
134321
134482
134611
134699
134742
135195
135134
135009
134826
134596
134330
134040
133737
133431
133132
132850
132594
132372
132190
132050
131954
131902
131891
131918
131978
132065
132175
132303
132443
132590
132741
132890
133033
133167
133290
133400
133496
133576
133642
133693
133730
133755
133769
133773
133769
133758
133741
133718
133689
133654
133612
133562
133504
133438
133362
133277
133183
133079
132968
132851
132731
132612
132496
132389
132296
132221
132170
132147
132158
132205
132290
132415
132576
132771
132994
133238
133495
133757
134015
134261
134487
134682
134838
134946
134998
135558
135482
135331
135107
134826
134506
134155
133789
133420
133062
132727
132426
132168
131959
131803
131701
131651
131651
131696
131778
131891
132028
132185
132354
132530
132708
132883
133049
133204
133344
133467
133572
133660
133729
133781
133818
133840
133850
133851
133843
133829
133809
133783
133752
133715
133671
133619
133558
133488
133406
133312
133207
133090
132962
132826
132685
132541
132401
132268
132150
132051
131979
131941
131942
131986
132078
132217
132403
132629
132892
133182
133490
133805
134117
134415
134688
134925
135114
135248
135311
135998
135905
135719
135449
135110
134718
134289
133843
133397
132967
132569
132215
131916
131677
131504
131396
131353
131369
131437
131548
131693
131864
132054
132257
132468
132679
132884
133077
133254
133413
133550
133666
133760
133833
133885
133919
133937
133942
133937
133924
133905
133881
133853
133821
133782
133737
133684
133621
133547
133460
133359
133243
133111
132966
132808
132641
132469
132298
132134
131984
131856
131756
131695
131681
131721
131817
131973
132186
132451
132762
133107
133477
133860
134239
134601
134933
135221
135451
135608
135689
136532
136418
136192
135864
135450
134970
134446
133901
133359
132843
132369
131952
131605
131333
131142
131032
131000
131039
131139
131288
131472
131681
131912
132158
132409
132659
132898
133122
133325
133503
133656
133782
133882
133956
134006
134035
134046
134043
134030
134010
133985
133958
133928
133894
133856
133811
133759
133696
133620
133529
133421
133294
133148
132982
132798
132601
132396
132188
131987
131800
131633
131497
131406
131371
131401
131501
131672
131919
132227
132593
133005
133451
133916
134380
134824
135229
135578
135855
136047
136143
137182
137043
136766
136364
135858
135268
134624
133957
133298
132677
132112
131622
131219
130910
130701
130590
130577
130651
130797
130998
131231
131481
131759
132052
132354
132649
132930
133188
133419
133620
133788
133925
134029
134103
134149
134169
134169
134154
134130
134101
134070
134038
134006
133972
133935
133894
133844
133783
133707
133615
133502
133365
133203
133015
132803
132571
132325
132074
131827
131597
131381
131197
131062
130995
131009
131109
131300
131579
131940
132374
132867
133405
133971
134542
135089
135582
136005
136340
136574
136691
137961
137795
137455
136966
136347
135621
134831
134007
133196
132437
131755
131169
130687
130172
129732
129518
129574
129878
130301
130666
130971
131298
131599
131946
132309
132661
132989
133287
133549
133773
133957
134102
134210
134281
134317
134324
134308
134276
134237
134195
134156
134119
134086
134054
134021
133984
133941
133886
133814
133725
133611
133466
133288
133076
132832
132561
132266
131960
131674
131382
131091
130828
130615
130455
130429
130555
130786
131110
131540
132064
132663
133321
134021
134732
135405
136002
136514
136925
137209
137351
138894
138682
138273
137692
136953
135999
134167
127558
118013
107362
96689.8
87011.7
78258.1
71120.2
66715.8
64885.3
65482.3
68476.5
73856.6
80996.1
87286.3
93469.4
99466.1
105334
110795
115362
119124
122223
124723
126677
128132
129217
130134
130734
130985
130948
130687
130285
129847
129440
129104
128835
128604
128362
128121
127936
127688
127213
126541
125713
124681
123345
121634
119503
116891
113709
109831
105131
100102
94701.5
89083.1
83892.5
78814.3
76021.6
75690.2
77571.8
81838.5
87421.1
94379.9
102532
111190
119710
127537
133748
135760
136517
137127
137624
137963
138147
130561
131225
125289
114968
98247.2
75601.5
52470.5
33249.8
20146.1
11224.2
5280.87
1371.92
4.40123
3.55977
3.67947
3.76809
3.69552
3.59958
3.45184
4.70427
1257.11
3258.09
5613.23
8876.21
13095.6
17690.5
22424.1
27061.1
31296.2
34961.4
38051.4
40480.2
42085.9
42932.7
43090.4
42658.4
41779
40707.6
39639.4
38643.4
37739.7
36970.7
36400.3
35987
35624.8
35224.4
34779.8
34248.7
33585.6
32707.1
31399.8
29455.9
26838.1
23685.4
20166.4
16445.4
12694
9059.77
6117.99
3819.44
1780.16
38.929
2.90719
2.96258
2.94295
3.09921
3.85249
1354.97
4066.45
8106.35
13983.5
22272.8
33780.4
50209.6
70567
90445
105827
116054
122015
121656
46723
40947
31444.2
19322.2
8959.69
2761.46
147.179
2.73734
2.78288
2.98276
3.353
3.70882
3.78812
3.60582
3.59826
3.61446
3.56848
3.51475
3.55131
3.68183
3.49818
3.17581
2.93999
3.0622
3.92735
5.79374
7.49862
9.80184
12.2483
13.6631
16.7386
17.7199
14.9472
11.8422
9.91769
9.46074
10.0549
8.28259
4.96738
5.15102
6.7084
8.71984
7.11602
6.86877
8.29883
10.2664
12.4711
14.5925
16.0831
16.6495
17.509
16.8226
14.7187
11.2233
7.5491
5.23356
3.72304
2.44441
2.45971
2.55615
2.75533
3.01004
2.88738
2.90431
2.96177
3.07836
3.25016
3.16302
2.98584
2.87366
2.64203
2.41682
2.58422
3.09354
1436.92
5492.92
12011.7
19512.6
25880.2
30463.1
14.051
2.55074
2.42491
2.48172
2.77423
3.33955
3.44699
3.50681
2.85957
3.03341
3.29049
4.02347
4.47933
3.61341
3.55765
3.90591
3.54844
3.49091
5.04721
5.80552
4.15012
3.18275
3.04242
3.60071
3.63125
4.49989
4.60194
4.48576
5.14118
3.64029
4.20188
4.46279
3.88278
3.45872
3.51629
5.02245
7.82605
5.91461
2.53409
2.98268
4.97651
7.61567
3.41694
2.52494
2.52079
2.50273
2.52188
2.45346
2.56699
2.78389
2.6688
2.35595
2.43228
2.30542
2.1806
2.50611
3.06084
6.42184
6.60136
6.21239
3.11454
3.20011
3.12308
2.91209
2.97063
3.93677
3.81716
3.01887
3.72812
4.85197
3.9741
2.43657
2.49937
2.51759
2.25947
1.69955
1.44757
1.63581
1.98291
14.3206
6.84811
5.94629
2.96962
3.08421
3.2326
3.3811
2.96578
3.00864
2.80759
4.34679
5.89226
5.85876
4.8418
3.45399
4.44181
5.7757
3.61748
5.83093
7.94629
7.88844
7.7762
5.90191
3.04965
3.03285
3.79021
5.54668
4.41711
4.48879
5.22486
2.36083
2.61985
2.64338
2.25549
2.07722
2.08533
4.73049
8.48475
5.35145
1.87236
2.08405
5.28413
8.54365
3.28357
2.45418
2.46084
2.48042
2.52073
2.58503
2.66298
2.72892
2.73486
2.64969
2.51704
2.34503
2.17967
2.61379
3.45117
3.20842
2.72632
2.78275
2.88828
4.41758
4.30054
2.91377
3.56403
5.03692
5.0839
4.4781
4.97194
4.8028
4.11805
2.28546
2.25663
2.26714
2.13557
1.98074
2.12309
2.0697
2.15491
2.61904
5.88113
6.82058
2.90668
3.0923
3.32692
3.55335
3.5515
3.63702
6.89384
10.2107
10.481
9.61842
3.98089
3.39713
3.55376
5.95531
3.63663
5.44025
7.82684
7.79656
7.72872
5.97649
3.00119
3.54609
6.94882
6.57576
3.81117
2.12959
2.06032
2.03214
1.98604
1.88779
1.85618
1.82461
1.77651
2.30771
2.36718
1.84263
1.56909
1.805
3.06142
3.04939
2.67058
2.44534
2.54322
2.86459
2.88076
2.72228
2.70034
2.62421
2.71444
2.85466
2.51326
2.25279
2.07009
2.12094
3.05699
3.09317
2.90521
2.7116
3.70923
4.39061
3.81675
2.95711
4.3735
5.0293
5.0715
5.06713
4.98753
3.82143
2.26154
2.22626
2.22169
2.25731
2.1883
2.05889
1.93501
2.25043
2.74716
2.46677
5.99281
6.93538
2.92017
5.51783
7.96628
5.32267
3.55555
7.03919
9.93286
10.208
10.4732
10.7069
8.00256
3.35791
3.42833
5.88163
5.70934
3.9107
6.7904
7.73376
6.17178
3.24689
3.02419
4.96109
7.01135
6.796
4.53766
2.14345
2.01572
1.87131
1.7843
1.73383
1.69812
1.64629
1.55505
1.4379
1.34999
1.36363
1.42108
1.54282
1.8615
2.15468
2.37466
2.44729
3.12318
3.53887
3.6933
3.63827
3.82422
3.5119
4.08594
4.22117
3.81924
2.44353
1.94184
1.82883
1.75693
1.79564
3.66723
4.18091
4.25354
4.31503
4.38081
2.9927
3.32353
4.90624
5.03167
4.77928
4.06553
2.35235
2.26289
2.22427
2.25381
3.88516
4.13459
4.06329
3.89134
3.79002
2.4765
1.71509
6.47327
9.67949
9.67919
9.76252
9.96278
9.84979
4.82937
3.03022
6.79602
10.0337
10.3891
10.6122
10.4764
3.79133
5.39491
5.89636
5.86599
3.6272
3.18855
3.21729
3.19009
3.21545
3.19445
5.24009
7.10876
6.93826
4.52782
2.23008
2.14495
2.46241
2.68041
1.79642
1.58438
1.48558
1.35273
1.20254
1.0952
1.09772
1.59997
3.92611
4.65544
3.61608
2.69736
2.95128
3.29449
3.49772
3.72776
3.94473
4.08539
4.14631
4.14837
4.11975
4.05737
3.87528
2.2735
1.73775
1.67063
1.6284
1.59787
1.86687
3.96006
4.23593
4.2859
4.14298
2.95987
2.96371
3.11755
3.17524
2.44328
2.34938
2.35537
2.80555
2.78283
2.62695
2.21231
2.05461
2.60972
3.77834
2.32265
1.56821
6.74063
9.39182
9.40328
9.64425
9.05504
2.28168
1.10165
1.01725
1.04116
5.93369
10.2013
10.4163
10.5963
7.19865
3.77487
5.79955
5.7563
5.0481
3.0808
3.11821
3.13623
3.47212
3.25785
4.8578
7.23151
7.09572
5.33233
2.23032
2.2
2.76981
2.73517
2.55271
1.4787
1.32544
1.13988
0.963448
0.884567
3.00301
4.2815
4.40159
4.57506
4.72826
4.50052
2.68961
2.30487
2.40439
2.35523
2.65833
3.09839
4.05313
4.09038
4.02739
3.96484
3.86453
2.87247
1.65143
1.58564
1.5406
1.50558
1.48527
1.48271
3.6207
4.19979
4.21158
3.1223
2.16399
2.20946
2.29549
2.51023
2.30436
2.86302
2.78013
2.45857
2.41226
2.85543
3.82048
2.57938
2.48
2.28087
1.54239
3.86017
9.01884
4.40027
3.19448
1.76208
0.71799
0.668283
0.686875
0.77757
3.55216
10.091
10.2179
10.3413
6.96567
2.63819
5.62717
5.64437
5.62231
2.97349
3.0545
3.04754
4.93976
3.25591
4.69457
7.36233
7.24081
5.25274
2.22484
2.16292
2.73494
2.74307
2.57716
1.38833
1.15575
0.920226
1.13785
4.07307
3.95619
3.96656
4.10397
4.3286
3.81003
1.14504
1.32549
1.47526
1.60107
1.71355
1.82527
1.94176
3.10466
4.04312
3.96187
3.85802
3.29059
1.95707
1.57453
1.51965
1.51039
1.41415
1.36622
1.36007
1.78996
4.04343
4.11816
3.39979
1.94726
2.04765
2.15439
3.23674
2.23332
2.75703
2.68272
2.31691
2.96181
4.72062
4.62662
3.45303
1.54136
1.54141
1.56842
0.824237
1.10547
4.5213
5.06694
2.72163
0.446177
0.451005
0.496256
0.571533
2.20248
9.9237
10.0463
9.37357
3.44104
2.1412
5.37477
5.46445
5.52569
3.90856
3.67371
3.38412
6.23798
3.3068
4.59629
7.47682
7.38095
5.56556
2.22663
2.16099
2.27424
2.77191
2.04429
1.32606
1.00359
0.915875
4.05253
3.77982
3.6125
3.60533
3.73784
3.96163
2.52449
1.01709
1.20223
1.35005
1.47315
1.58282
1.78131
2.80389
3.97336
3.9933
3.90714
2.33149
1.63796
1.59244
1.55494
1.62425
1.5745
1.5326
1.27448
1.21081
1.24009
3.50561
4.01089
3.99058
1.84882
1.84547
1.99416
3.15912
2.87256
2.46207
2.41127
2.13089
3.12995
4.59493
4.59395
4.59393
2.20128
1.64142
1.62581
0.826664
0.66444
4.97286
5.20775
2.07996
0.323016
0.351424
0.390254
0.429319
0.708157
8.81549
8.0099
2.57903
1.5548
1.79892
3.67662
5.27752
3.00778
4.83211
5.98389
6.19447
6.19362
6.08916
2.67501
7.2543
7.37164
7.0757
2.31749
2.21148
2.13617
2.12892
1.66883
1.31151
1.0365
4.13957
3.83778
3.51773
3.35341
3.13281
2.17724
3.51851
3.60672
2.24823
1.09236
1.23388
1.35076
1.62561
3.38612
3.98507
3.98161
3.94618
2.39859
1.61825
1.5437
1.47931
1.52191
1.47634
1.42133
1.37709
1.24336
1.03848
1.08454
3.16096
3.85348
3.70326
1.62137
1.63838
1.73212
3.04291
3.06162
2.03607
1.85982
3.05228
3.55983
4.54168
4.4499
4.58428
4.70094
1.73912
1.66921
1.0819
0.964846
4.56516
2.05019
0.398268
0.28264
0.294976
0.304324
0.311334
0.303304
8.14705
3.8688
1.12455
1.37524
1.62691
1.69014
2.16949
1.81107
2.15055
5.5374
6.14657
6.13126
4.03088
2.04502
2.79424
6.80707
7.41433
6.42093
2.29854
2.25221
2.1268
1.86763
1.43772
3.36815
4.21687
3.72314
3.38876
3.19964
-0.0287056
0.171091
0.765626
3.51932
4.02101
1.94321
1.14694
1.24818
1.52965
3.84503
3.91181
3.91859
3.80183
1.87959
1.84196
1.74938
1.37523
1.22785
1.30077
1.2561
1.1852
0.880579
0.87443
0.936489
3.08783
3.68673
2.44657
1.36277
1.46148
1.51527
2.79688
2.94788
1.95347
1.63039
2.88203
3.84199
3.68913
2.80008
4.27006
4.82137
4.518
1.68209
1.38835
2.39106
1.16632
0.348183
0.381287
0.311141
0.261288
0.22666
0.20209
0.287413
6.55304
1.00424
1.03285
1.32953
1.6037
1.60489
1.71701
1.7961
1.89647
5.33871
6.10408
5.79355
1.90042
1.91644
1.9207
2.56467
7.49226
8.6237
6.91153
2.42181
2.32418
2.06687
1.71954
4.91842
4.27608
3.76047
3.4231
1.67121
-0.0509992
0.168675
0.504885
3.28484
4.00799
2.91218
1.08228
1.17845
1.24465
3.77567
3.87973
3.86268
2.05035
1.92309
2.26758
2.16921
1.57741
1.00327
0.870484
0.780052
0.718988
0.705956
0.723921
1.04273
2.92708
2.54247
1.1689
1.23435
1.33522
1.3942
1.52604
2.87621
2.16072
1.57719
1.46093
3.52576
3.9883
2.85725
2.93904
4.85029
4.8695
1.69783
1.6562
1.62714
2.20474
1.30133
0.400384
0.326201
0.243632
0.162279
0.102887
1.20713
8.11637
2.86199
1.01089
1.3565
1.88063
1.61557
1.76486
1.88327
3.9299
6.07012
6.12274
2.16545
1.82829
1.89703
1.90005
2.46066
4.68929
8.71793
8.94977
8.32652
3.42824
2.23774
1.83891
1.70611
3.25048
3.98129
3.64838
1.04895
0.137476
0.337326
0.649254
1.51265
4.06016
2.88799
1.04378
1.13585
1.20385
2.51431
3.86742
2.73993
2.0876
2.26176
2.17482
2.05687
1.44379
0.917227
0.948689
0.800552
0.583849
0.562738
0.584133
1.06434
2.60226
1.07673
1.02982
1.15244
1.26185
1.33175
1.34698
1.82295
2.16153
1.58176
1.48584
2.95798
4.12183
3.76107
3.05885
3.62156
4.89247
1.76068
1.89219
3.08105
2.95129
2.04095
0.549212
0.393652
0.23812
0.1153
0.0192645
1.6956
8.23097
8.22441
1.50309
1.78131
1.87204
1.64808
1.82545
3.09455
6.01217
6.10687
3.0922
1.74884
1.84294
2.26282
2.27331
1.95014
1.88398
3.69278
8.02912
9.04979
9.09869
7.1061
2.8305
2.10078
1.72751
1.41481
0.834444
0.632842
0.603113
0.692749
0.933564
1.94138
4.06447
1.6663
1.05346
1.14465
1.21166
1.37111
3.81427
2.06119
2.09717
2.21779
2.09873
1.54337
0.895825
1.17243
1.90485
1.80476
0.707992
0.431869
0.455333
1.11781
2.09516
0.921336
1.0226
1.11583
1.46982
1.3534
1.37755
1.88731
2.55581
1.65866
1.57119
1.92566
4.29052
4.36403
4.45195
3.32311
3.13991
1.97163
3.50968
4.23604
2.70955
0.748301
0.638889
0.832021
0.509425
0.0988904
-0.0279978
2.722
8.34409
8.38169
1.78389
1.27006
1.43821
1.65264
2.80428
4.3953
4.52304
2.09486
1.72129
1.77913
1.8618
1.99973
2.31959
1.90031
1.91652
1.95119
2.06992
2.5401
8.16796
8.13155
7.92425
6.10617
5.43344
7.00463
6.51154
3.22041
1.91065
2.06257
2.34337
2.98007
3.03319
1.28035
1.09048
1.18235
1.25087
1.40953
2.42471
2.07814
2.24454
2.19497
2.04455
0.821256
0.760264
1.88365
1.82439
1.75806
1.27652
0.321303
0.345719
1.02573
1.75757
0.939884
1.44756
2.06049
2.36178
2.42443
2.32248
2.59441
2.62714
2.1199
1.66478
1.62764
2.49
4.51045
4.59837
4.32067
2.35846
2.37736
7.54527
4.42542
0.812822
0.761925
0.89169
0.900432
0.760766
0.134476
-0.00797209
1.80517
7.62722
5.68325
1.06315
1.32951
1.55845
2.79581
3.3526
3.45721
1.72211
1.70608
1.7343
1.80492
1.87863
1.89683
1.91112
1.96829
2.02631
2.0694
2.09604
2.09997
2.04513
3.40913
7.82924
7.88633
7.74
7.52443
7.31731
7.17974
7.15138
7.21131
6.57457
2.44039
0.903472
0.999037
1.13271
1.22998
1.30008
2.34185
2.15645
2.12058
2.32264
2.19519
1.5633
0.750034
0.655727
1.23451
1.75658
1.69049
1.42184
0.240538
0.260462
0.621749
1.70505
1.69851
2.02109
2.20759
2.34424
2.4519
2.54551
2.61972
2.67224
1.79673
1.76783
1.76128
1.73072
1.7462
4.11113
4.37613
2.72652
2.41757
7.63414
1.4221
0.800191
0.781902
1.07633
0.97364
0.842681
0.241175
0.107895
0.302785
0.711708
0.856653
1.07566
1.5738
2.65508
2.86775
3.05114
1.71964
1.75183
1.72396
1.84548
4.35067
6.86425
3.46723
1.87223
2.25417
3.22269
3.75805
4.37963
4.38462
3.71373
3.25443
3.04388
2.88789
6.70825
7.78946
7.66607
7.54689
7.43839
5.96776
1.63784
0.889547
0.890956
1.01492
1.16308
1.26753
1.3377
3.1461
2.21821
2.1628
2.35602
2.20912
1.02418
0.708935
0.579081
0.473842
1.65881
1.65979
1.16728
0.179861
0.211708
0.264249
1.69988
1.8228
1.37127
2.18473
2.29743
2.40576
2.50584
2.59334
2.053
1.87009
2.12482
2.77935
2.54281
2.00736
2.05028
2.21133
3.00549
3.58831
7.65208
0.87752
0.838494
1.14329
1.14864
1.06498
0.712681
0.393999
0.268752
0.14827
0.127036
0.445295
2.2371
2.47435
2.61678
2.77163
1.82332
1.69714
1.72165
5.60524
6.81319
6.88503
6.92287
7.06449
6.91168
7.2231
7.30385
7.42204
7.49283
7.39649
7.1594
6.90289
3.58812
3.00921
3.51857
7.78998
6.34413
3.04554
2.85973
2.86645
3.5302
3.585
1.74598
1.02104
1.14977
1.26643
1.36438
3.37269
2.69747
2.19412
2.37749
2.21522
1.64922
0.692447
0.547573
0.437846
0.648324
1.66358
1.06734
0.201895
0.220465
0.258417
1.45692
1.14986
0.643573
1.53517
2.2038
2.34036
2.43136
1.84773
1.89161
6.26184
10.3558
10.4162
10.3928
9.01402
2.20553
2.15642
3.41247
3.86946
6.17581
0.916896
0.889179
1.28683
1.23549
1.17047
0.767231
0.546125
0.435461
0.336807
0.68672
2.3513
2.40371
2.46917
2.55829
2.45508
1.70054
2.71028
4.18065
4.41046
2.22976
1.11363
3.00177
7.0062
7.0099
7.01264
7.04498
7.14602
7.26493
7.13938
6.38696
5.86976
4.8758
6.95335
7.22268
7.4088
7.06518
6.97949
3.96778
4.68284
5.72318
5.6575
3.55107
0.994769
1.10541
1.22139
2.3311
3.42604
3.10598
2.57749
2.41693
2.13242
1.87658
0.740997
0.534606
0.420975
0.347087
1.67869
1.53411
0.226612
0.310101
0.44611
0.527945
0.544725
0.604451
0.689624
0.905881
1.16068
1.08454
1.22426
2.28043
9.95782
10.2857
10.4129
10.4144
10.3653
5.27308
2.09077
3.55505
3.80374
7.59614
0.974586
0.936712
1.17086
1.32924
1.27969
0.906064
0.687426
0.599164
0.783496
2.54896
2.48962
2.46048
2.45565
2.21282
1.0484
2.42146
2.55454
2.21336
0.563833
0.645817
0.695139
0.715771
1.07402
2.08744
3.2775
3.56077
4.09168
6.9093
3.14028
0.669967
0.695049
0.996285
1.50994
2.91823
4.2142
6.13212
6.93675
6.40362
5.95132
5.91576
4.37745
1.26352
1.12966
2.0544
1.79332
2.98788
3.39393
2.50508
2.48983
1.93766
0.940527
1.08915
1.04259
0.622578
0.415446
0.343737
0.657908
1.58324
0.271434
0.359898
0.714045
0.520735
0.564562
0.604459
0.634386
0.674026
0.72941
0.821235
1.26288
7.97283
7.08107
4.77867
9.78513
10.402
10.3566
7.44958
2.14364
2.51126
3.69516
8.08108
2.62116
1.00206
0.98672
1.42065
1.37831
1.05686
0.81977
0.786346
2.30491
2.6882
2.58657
2.50511
2.18443
0.31105
0.284555
1.3991
0.924439
0.299878
0.427322
0.525442
0.584015
0.603759
0.586421
0.52335
0.436743
0.374487
0.461841
2.86921
0.937603
0.492055
0.474522
0.430412
0.372221
0.300921
0.241652
0.205123
2.47727
5.86001
5.9801
2.26455
1.17563
1.17396
1.31067
5.25817
6.02484
2.97592
2.09599
2.066
2.29236
0.912722
0.649611
0.542081
0.978398
0.811773
0.557686
0.336077
0.30366
1.58048
0.457503
0.416028
0.795762
0.968336
0.597701
0.612314
0.605961
0.606489
0.601018
0.830334
9.94729
9.14155
1.56756
1.5954
2.05048
10.3568
10.3447
8.97398
2.15733
2.27305
2.88612
8.28634
5.81476
1.05786
1.04558
1.35613
1.45076
1.12888
0.947432
1.48619
2.93984
2.78356
2.64955
2.42568
0.248891
0.109686
0.0336758
0.0120983
0.0953553
0.206188
0.313372
0.41794
0.485695
0.514902
0.515609
0.488682
0.442046
0.357381
2.91134
3.11689
4.22453
0.440527
0.417783
0.379684
0.331472
0.267092
0.220258
0.199924
0.479144
0.679414
3.32535
5.2393
5.33156
5.46679
5.65267
5.82224
5.99021
2.68785
1.94069
1.94477
1.6372
0.633489
0.5548
0.472161
0.788731
0.809261
0.716294
0.435523
0.320933
0.441337
1.37013
0.476271
0.588679
1.04262
1.05089
0.62069
0.583724
0.543954
0.467876
0.581862
10.4788
2.53106
1.41472
1.46128
1.47273
8.05598
10.3372
7.89679
1.99055
2.15676
2.20777
8.48002
5.13784
1.10623
1.11825
1.13359
1.44893
1.03705
1.06921
2.37832
3.03272
2.85274
2.65495
0.839398
0.0923247
-0.0476009
-0.100454
-0.0721463
0.475824
1.51318
0.756757
0.324094
0.402797
0.435384
0.44377
0.433746
0.41327
0.387171
4.82212
4.89892
4.53189
0.411765
0.398021
0.344372
0.292897
0.223935
0.18368
1.94935
4.58053
4.66247
4.82435
4.8726
5.21344
5.34916
5.51704
5.71127
5.90814
3.76236
1.85716
1.68552
0.881366
0.500434
0.445724
0.382716
0.327346
0.784726
0.711947
0.65596
0.338076
0.364376
1.27418
1.12242
0.646111
0.929513
1.08819
0.906785
0.647933
0.48153
0.340731
5.30485
10.4841
3.40452
1.26615
1.33663
1.38045
7.33871
10.3748
4.72352
1.95759
2.12222
2.14249
8.46382
2.18153
1.8032
1.57079
1.06276
1.04374
1.00604
1.41218
3.29009
3.0868
2.8912
2.30648
0.179036
-0.0463963
-0.212436
-0.272147
-0.144746
2.12506
2.76275
2.35601
0.334204
0.331951
0.368768
0.611838
0.915724
0.360169
0.432589
4.86381
4.94426
1.03495
1.081
1.58491
0.443567
0.281633
0.168007
0.128533
4.23581
4.44328
2.34495
0.604538
0.426974
3.75169
5.19648
5.35878
5.57302
5.80517
4.41501
0.912918
1.13547
0.431661
0.36423
0.331431
0.292887
0.251191
0.301554
0.607748
0.661464
0.478454
0.400415
0.513481
1.33619
0.959793
0.875218
0.890104
1.02264
0.944098
0.428816
0.220381
10.3838
10.4457
7.10106
1.24017
1.23601
1.35999
7.94522
5.69043
2.3451
2.06149
3.83777
2.14641
2.35271
2.39965
3.83089
3.80593
1.1051
1.08137
1.01827
1.91037
3.3723
3.14482
2.90422
1.68211
0.0627151
-0.192432
-0.387867
-0.443257
1.16429
2.40822
2.80952
3.28353
1.84361
0.277574
0.324549
0.60053
1.57396
1.62034
2.42538
4.7997
4.93091
0.453351
3.13156
3.20795
2.51977
2.01674
0.148863
0.0765309
2.77373
1.94888
0.757534
0.561157
0.435528
0.689357
5.13973
5.28571
3.93843
5.03864
1.87908
0.240696
0.317416
0.258009
0.24471
0.224068
0.201004
0.181302
0.170498
0.174775
0.437459
0.532066
0.456169
0.488113
0.700136
1.23442
1.1333
0.948211
1.08965
0.651202
0.40191
0.149536
9.33872
10.4787
10.5732
4.01571
1.22059
1.36283
8.16972
7.52705
2.69297
3.86931
5.66382
2.40583
2.31884
2.31892
3.21214
4.66586
2.23599
1.10754
1.03183
2.16208
3.4118
3.1847
2.9279
0.552874
-0.0523201
-0.34491
-0.552588
0.351182
1.75756
2.0445
1.81864
3.46398
3.94322
0.594488
0.286179
0.289824
0.65883
4.31431
4.45607
4.6746
2.86295
0.210259
2.9824
3.39898
3.50897
3.4791
0.152637
0.210149
0.154817
0.447728
1.04953
0.682186
0.548707
0.792558
4.00264
1.51566
0.0975068
0.320207
0.061321
0.145315
0.163423
0.166129
0.152907
0.132777
0.114054
0.106998
0.118446
0.149615
0.198901
0.459064
0.530232
0.532595
0.596939
1.00045
1.48104
1.49738
1.44456
0.642514
0.40507
0.160111
1.31578
10.5746
10.6714
6.04414
1.32742
1.45832
6.7029
8.26996
3.37296
5.90574
5.82033
2.533
2.48443
2.33559
2.89146
4.74877
3.48157
1.11442
1.01484
2.78337
3.41825
3.19088
2.50823
0.139431
-0.164444
-0.48359
-0.562998
1.35501
1.44355
0.351741
0.0910478
1.80263
4.05764
4.03643
0.504027
0.243533
0.209873
1.74799
4.37181
2.58284
0.0321086
0.0126723
0.382623
1.63276
3.47764
3.50184
0.0785878
0.253047
0.359248
3.68787
6.02307
4.39001
0.722045
0.694809
1.87472
1.56174
-0.121638
-0.0758572