/*--------------------------------*- C++ -*----------------------------------*\
| =========                 |                                                 |
| \\      /  F ield         | OpenFOAM: The Open Source CFD Toolbox           |
|  \\    /   O peration     | Version:  2412                                  |
|   \\  /    A nd           | Website:  www.openfoam.com                      |
|    \\/     M anipulation  |                                                 |
\*---------------------------------------------------------------------------*/
FoamFile
{
    version     2.0;
    format      ascii;
    arch        "LSB;label=32;scalar=64";
    class       volScalarField;
    location    "0.2";
    object      p_rgh;
}
// * * * * * * * * * * * * * * * * * * * * * * * * * * * * * * * * * * * * * //

dimensions      [1 -1 -2 0 0 0 0];

internalField   nonuniform List<scalar> 
6400
(
34595.5
34542.4
34397.4
34176.9
33888.4
33499.5
33018.1
32451.5
31814.5
31130.2
30423.2
29717
29038.6
28412.9
27859.9
27393.1
27018.4
26735.1
26540.9
26432.9
26403.9
26436.7
26501.9
26562.1
26578.4
26515.5
26343.9
26040.8
25590.5
24983.7
24218
23297.4
22232.3
21038.4
19736.7
18352.1
16912.1
15445
13979.2
12541.7
11157.9
9851.31
8643.11
7552.02
6594.27
5784.06
5134.51
4658.87
4371.55
4288.62
4427.27
4804.17
5432.87
6320.75
7466.31
8857.74
10473.3
12283.4
14252.9
16344
18517.5
20733.8
22953.5
25137.7
27247.9
29246.6
31098.6
32773.6
34251.6
35525.5
36601.3
37494
38222.3
38805.2
39260.7
39607.3
39862.9
40040.3
40143
40185.2
34612.9
34571.2
34466
34263.6
33971.1
33584.3
33103.6
32534.2
31894.7
31208.3
30496.4
29780.5
29090.4
28455
27894.1
27418.5
27033.2
26741.1
26543.5
26438.7
26417.7
26460.3
26535.7
26607.3
26637.7
26592.1
26441
26160.5
25733.2
25149
24404.7
23504.1
22457.3
21280.3
19993.9
18622.4
17192.5
15731.9
14267.9
12827.3
11435.4
10116.2
8891.54
7780.75
6800.72
5966.19
5290.81
4788.5
4474.62
4366.49
4482.8
4841.72
5457.75
6338.31
7480.75
8871.23
10485.6
12292
14254
16333.2
18490.6
20687.9
22887.3
25051.9
27144.5
29128
30966.5
32629.8
34098.5
35367.3
36444.2
37344.8
38087.2
38689.3
39167
39534.5
39804.5
39985.6
40082
40120.9
34641.9
34599
34513.3
34337.1
34059.1
33680.9
33205.1
32640.1
32003.3
31316.7
30601.1
29880.2
29185
28542.7
27971.5
27483.7
27088.5
26792.3
26597.3
26499.4
26486.8
26538.4
26625
26712
26763.5
26745
26625.4
26378.7
25985.7
25435.1
24723.2
23853.8
22837.1
21688.5
20428
19078.6
17665.7
16215.3
14753.9
13307.8
11902.6
10563.1
9312.16
8170.49
7156.12
6284.87
5571.43
5030.85
4679.88
4537.57
4624.47
4960.31
5560.34
6431.34
7568.61
8955.19
10563.6
12359.2
14303.6
16357.6
18482.7
20641.9
22800.1
24923
26975.5
28921.4
30725.5
32358.9
33805.1
35062.6
36141.9
37058.5
37827.1
38460.4
38970.1
39366.4
39656.8
39843.8
39931.3
39954.5
34603.3
34578.7
34513.5
34355.5
34096.3
33732.2
33267.6
32714.4
32089.3
31416.4
30713.7
30001.2
29309.7
28667.8
28095.3
27606.2
27212.3
26921.3
26734.6
26646.4
26643.5
26705.3
26804.8
26910.2
26987.3
27000.9
26918.3
26711.2
26358.8
25848.7
25177.2
24347.7
23369.8
22258
21030.6
19708.9
18316.1
16876.8
15416.5
13961.2
12537.3
11170.8
9886.48
8707
7652.19
6739.52
5985.08
5405.23
5018.02
4843.81
4904.38
5220.19
5806.29
6667.99
7798.01
9176.18
10771.8
12547.3
14462.4
16476.4
18550.6
20649.3
22739.7
24790.5
26769.9
28644.9
30383.6
31961.1
33365.6
34599.3
35674.9
36607.5
37407.8
38081.4
38631.6
39061.1
39370.8
39560.5
39638.3
39649.4
34462.8
34462.1
34420
34282.5
34041.8
33692.7
33244.5
32712.7
32111.1
31463.4
30785.4
30095.7
29423.6
28798.3
28240.3
27765.1
27385.5
27109.8
26938.8
26866.2
26878.8
26957.5
27077.2
27208
27316
27365.6
27322.3
27156.5
26846.6
26379.9
25752
24965.9
24030
22957.1
21763.6
20468.6
19093.4
17661.1
16196.5
14726.2
13277.9
11879.6
10558.3
9338.96
8243.57
7291.4
6500.03
5886.98
5471.21
5273.68
5316.32
5619.1
6195.7
7049.29
8169.9
9534.67
11110.5
12857.7
14734.2
16697.7
18708.6
20731
22733.6
24687.7
26565.6
28339.5
29984.3
31482.4
32827.9
34026.3
35089.6
36030.3
36855.1
37562.9
38148.6
38606.3
38930.2
39121
39196.2
39207.8
34227.1
34239
34209.6
34093.5
33870.3
33538.2
33111.4
32606.5
32035.4
31420.5
30776.4
30121.8
29485.2
28893.7
28367
27920.2
27567.2
27317.2
27171.9
27125.4
27165.3
27273.1
27424.7
27590.6
27736.9
27827.4
27827
27705.9
27442.1
27022.4
26442.1
25702.8
24811.4
23778.7
22618.6
21348.1
19986.8
18556.9
17083.5
15594.1
14118.3
12686.5
11328
10070
8936.52
7948.42
7124.69
6483.79
6045.13
5829.52
5858.05
6149.07
6714
7553.47
8655.2
9994.57
11537.3
13243
15068.1
16969.1
18904.9
20838.8
22739.8
24581.4
26340
27994.6
29528.9
30934.4
32211.6
33368.3
34413.9
35355.6
36194.7
36925.4
37536
38012.7
38347.2
38542.8
38626.6
38651.4
33865
33883.7
33863.8
33759.5
33550.7
33238.6
32838.3
32364.5
31828.6
31252.9
30652.1
30045.6
29460
28918.8
28438.8
28034.7
27720.9
27508.1
27399.5
27390.3
27468.1
27614.3
27804.8
28010
28196.2
28327.5
28369.4
28292.6
28075.1
27703.7
27172.7
26482.2
25637.1
24645.9
23520.2
22274.9
20928.2
19502
18021.9
16516.9
15018.3
13558.7
12169.2
10879
9713.67
8695.81
7845.82
7183.2
6727.71
6499.63
6518.46
6800.02
7352.66
8173.95
9249.3
10552.9
12050.2
13700.7
15460.6
17285.5
19132.8
20965.4
22752.2
24469.1
26097.1
27622.5
29038.3
30344.4
31547.5
32656.5
33678.1
34613
35455.8
36196.4
36820
37308.9
37653.2
37859.6
37959.8
37999.4
33363.1
33382.6
33373.1
33273.6
33076.9
32784.8
32411.6
31969.4
31471.3
30938.9
30387.9
29838.4
29314.8
28835.8
28414.7
28065.5
27803.5
27640.9
27581.8
27621.5
27747.1
27939.3
28173.5
28420.7
28647.8
28820.4
28905
28873.2
28703.6
28382.4
27902.9
27263.5
26466.8
25519
24429.4
23211.4
21882.1
20463.7
18982.5
17469
15956
14477.2
13065.5
11751
10561.1
9520.16
8650.31
7972.36
7506.47
7272.04
7286.31
7561.7
8102.58
8902.85
9945.37
11203.3
12642.4
14223.2
15902.5
17636.2
19381.7
21101.3
22764.8
24350.1
25843.3
27238.2
28536.3
29744.3
30872
31928
32916.3
33833.2
34668.5
35408.5
36035.3
36530.6
36882.7
37100.9
37214.6
37258.3
32725.3
32742.7
32731.4
32631.3
32444.6
32170.4
31822.3
31410.3
30950.5
30463.7
29966.5
29479.9
29025.7
28618.3
28267.5
27986
27789.4
27690.2
27692.7
27791.6
27973
28216.9
28498.7
28790.1
29059.6
29274.5
29402.8
29417.2
29296.7
29027
28600.2
28012.9
27265.6
26362
25309.8
24121.1
22813
21407.8
19933
18420
16902.6
15415.2
13991
12661.4
11455.1
10398.5
9515.71
8829.24
8359.76
8125.7
8141.66
8415.98
8948.22
9727.78
10734.3
11939.8
13310.5
14808.6
16393.6
18023
19655.9
21255.4
22792.2
24246.1
25607.1
26874.9
28057.5
29167.3
30216.3
31212.8
32157.9
33045.1
33861.1
34589.5
35209.7
35704
36058
36281.3
36397.2
36435.2
31951.8
31962.1
31936.5
31833.1
31653.9
31394.8
31070.3
30689.4
30270.4
29832.6
29393.8
28975.3
28596.2
28267
27994.6
27790.2
27668.4
27641.2
27712.2
27875
28114.9
28411.6
28741
29076.2
29387.5
29644.2
29816.2
29877.2
29806.7
29590
29217.7
28684.3
27988.2
27131
26119.2
24964
23682.9
22298.8
20840.2
19338.9
17829
16344.7
14919.6
13585.6
12372.9
11310.2
10424.1
9738.64
9275.29
9051.23
9077.88
9358.7
9887.5
10648.3
11617.1
12764.5
14058
15462.7
16941.9
18457.1
19970
21445.4
22855
24179.9
25412.6
26557
27625.3
28634
29597.6
30524.9
31415.9
32261.6
33046.7
33752.3
34355.6
34840
35187.5
35406.5
35516.1
35553
31065.7
31055.3
31007.5
30897.7
30721.4
30473.6
30171.3
29823.8
29449.2
29064.2
28687.5
28340.7
28040.2
27793.1
27604.2
27482.8
27441.9
27492.2
27635.7
27865.1
28165
28515.2
28892.7
29272
29625.7
29924.9
30141.6
30250.7
30232.1
30070.3
29754.1
29276.3
28632.7
27823.6
26854.5
25736.7
24488.2
23133
21699.8
20220.8
18729.5
17259.4
15843.6
14514.6
13304
12242.8
11360.1
10682.2
10231.1
10022.9
10065.5
10357
10885.1
11628.2
12558.3
13645
14857.4
16164.9
17535.2
18934.3
20327.1
21680
22965.3
24164.9
25273
26296
27249.2
28152
29021.8
29869.2
30694.5
31487.2
32230.3
32902.6
33479.8
33945.8
34279.9
34489.4
34595.3
34642.7
30096.4
30056.8
29982.7
29860.8
29682.8
29445
29165.7
28855
28528.2
28199.2
27886.6
27612
27389.5
27223.7
27117.4
27078.5
27118.3
27245.3
27460.1
27754.1
28111.6
28513
28936.6
29358.9
29754.4
30096.5
30358.9
30517.8
30553.1
30448.4
30190.6
29770.3
29181.5
28423.5
27501.4
26427.2
25219.5
23903.1
22507.1
21062.8
19602.7
18159.1
16764.1
15450.3
14250.7
13198.5
12325.5
11660.2
11225.5
11036.2
11096.8
11400.1
11927.7
12652.6
13543.4
14568.9
15700.4
16910.9
18173.3
19457.8
20732.4
21964.8
23127.4
24202.6
25185.9
26086.4
26922
27714.4
28483.8
29242.9
29992.9
30723.2
31415.6
32045.9
32589.6
33031.5
33348.5
33549.5
33660.7
33719.2
29087.5
29021.7
28919.5
28781
28599.5
28373.8
28121.4
27851.2
27573.4
27300
27049.8
26843.2
26692.1
26599.1
26566.2
26599.9
26709.8
26902.5
27177
27524
27928
28370.6
28831.7
29290
29722.1
30103.6
30410.1
30618.7
30709.2
30663.7
30467.6
30109.2
29581.5
28883
28018.9
27001.9
25851.3
24592.2
23252.8
21863.5
20454.8
19057
17701.1
16419.4
15246
14216.1
13363.9
12719.7
12306.9
12138.9
12216.6
12527.9
13049
13748.8
14593.6
15552.1
16597.5
17706.6
18856.5
20021.9
21173.8
22281.7
23318.7
24267.1
25123.7
25899.6
26615.8
27296.9
27964.7
28633.1
29303.4
29965.3
30600.8
31183.3
31688.5
32102.2
32401.3
32597.2
32713.6
32768.9
28102.6
28016.7
27886.1
27729.7
27546.9
27338.1
27116.3
26888
26657.8
26436.5
26243
26095.9
26004.3
25969.8
25993.8
26082.4
26243.6
26482.3
26796.3
27176
27606.8
28072
28553.7
29032.9
29488.7
29898.9
30240.9
30492.8
30634.1
30646
30512.3
30220.1
29761.6
29135.1
28346.4
27408.3
26340.1
25166
23912.8
22608.4
21280.7
19957.7
18668.9
17445.9
16323.7
15338.8
14526.9
13919.3
13538.4
13395.2
13486.9
13797.3
14299.1
14958.9
15742.8
16620.2
17566.8
18562.2
19587.5
20621.5
21639.4
22613.3
23517.6
24335.3
25063.7
25715.4
26313.8
26885.8
27454.7
28033.5
28622
29210.3
29782.3
30310.6
30771.8
31152.5
31431
31618.8
31723.6
31760.7
27201.5
27099.1
26944.5
26774.5
26596.6
26412.4
26225.2
26037.8
25852.1
25678.1
25533.7
25434.8
25388.1
25394.3
25455.2
25576.3
25764.6
26023.4
26349.5
26733.9
27163.5
27623.9
28099.9
28575
29031.2
29448.8
29807.2
30085.7
30264.2
30323.8
30247.6
30022.7
29641.2
29101.7
28410.1
27578.8
26625.7
25573
24444.4
23264.6
22058.1
20850
19667.8
18542.5
17508.6
16603.2
15861.6
15313.4
14978.7
14864.6
14964.9
15260.7
15724
16322.1
17022.7
17797.8
18625.2
19487.4
20369.5
21254.9
22123.1
22950.4
23713.1
24395.7
24995.9
25526.4
26011.2
26478.4
26951
27440.2
27943.6
28451.7
28951.1
29416
29824.9
30164.7
30415.7
30582.4
30656.9
30672.2
26419.8
26304.3
26138.4
25969.3
25807.4
25656.1
25509.9
25364.3
25220.7
25089.7
24987.1
24925.1
24907.9
24936
25011.7
25140.3
25327.5
25575.5
25880.8
26235.4
26628.5
27048.8
27483.9
27920.7
28343.9
28737.1
29082.3
29361
29554.4
29644.7
29616.2
29456.7
29159.3
28722.9
28152.8
27459.9
26659.6
25770.1
24811.3
23803.4
22766.8
21723.3
20697.9
19719.7
18821.7
18038.7
17403
16940
16664.9
16580.9
16679.3
16941.3
17341.1
17849.9
18439.2
19084.5
19766.6
20471.4
21188.1
21905.4
22608.1
23276.4
23889.7
24433.5
24906.4
25320.6
25698.4
26066.3
26444.9
26843
27256
27675.3
28091.9
28482.5
28828.3
29117.2
29329.8
29459.7
29504.3
29508.9
25768.9
25650.5
25493.9
25346.5
25218.4
25106.2
25001.9
24897.9
24795.2
24704
24636.7
24601.4
24600.1
24633.5
24704.1
24816.7
24975.9
25182.7
25434
25723.5
26043.6
26385.8
26741.4
27100.5
27451.6
27781.9
28077.1
28321.8
28500.5
28598
28601.2
28500.1
28289.1
27967.4
27539.3
27013
26400.1
25714.5
24970.7
24184
23370.1
22546.7
21735.1
20960.8
20252.4
19639.2
19147
18794.8
18591.9
18538.1
18624.2
18834.3
19147.7
19541.7
19993.5
20483.2
20995.6
21520.7
22052.6
22585.1
23108.1
23606
24061.4
24462
24807
25107.6
25382.5
25653
25935.8
26236.8
26550.8
26871.1
27192.2
27495.2
27764.8
27990.6
28151.9
28238.8
28268.1
28275.6
25246.7
25145.3
25020.5
24912.4
24826.2
24756.2
24692.1
24627.8
24564.4
24509.7
24471.7
24454.6
24459.2
24486.1
24537.7
24617.7
24729.1
24872.4
25045.1
25243.3
25462.2
25696.6
25941.1
26189.5
26434.3
26667.1
26877.8
27055.9
27190.2
27270
27286
27231.4
27102.2
26898
26621.5
26278
25874.9
25421
24925.6
24398.4
23850.2
23293.6
22744.3
22221.5
21746.1
21338.8
21016.7
20790.9
20665.7
20639.2
20704.2
20849.6
21061.4
21323.9
21621.4
21939.9
22269.4
22604.7
22943.8
23284.8
23621.6
23943.1
24236
24491.5
24709.8
24899.8
25074.6
25248.5
25432.7
25630.4
25837.2
26049.5
26264.9
26468
26648.9
26801.6
26902.3
26954.5
26981
26991.2
24849.8
24781.7
24708.6
24652.1
24610.6
24578.3
24549
24518.9
24489.3
24464.4
24448.2
24442
24445.9
24460.4
24487
24527.9
24584.6
24657.1
24744.2
24843.9
24954
25072.1
25195.9
25322.4
25448.1
25568.6
25679.1
25773.7
25846.8
25892.6
25906.3
25884.5
25825.2
25727.9
25594.1
25426.1
25227.7
25002.8
24756
24492
24216.2
23935.4
23658.5
23395.9
23159.1
22958.5
22802.3
22695
22638
22629.6
22665.8
22741.2
22848.5
22979.6
23126
23280.5
23438.4
23598.1
23760.1
23924.6
24088.6
24245.7
24388.1
24511.2
24616
24707.4
24791.5
24875.4
24965.7
25064.6
25167.4
25272.3
25381.2
25484.3
25575.1
25652.9
25696.6
25723.9
25754.2
25766.8
24573
24555.4
24537.7
24529.8
24525.3
24521.1
24516.5
24511.4
24506.2
24501.9
24499.2
24498.3
24499.1
24501.5
24505.9
24512.8
24522.6
24535.1
24550.1
24567.3
24586.1
24606.4
24627.8
24649.7
24671.7
24693
24712.8
24729.9
24743.3
24752
24755.2
24752.1
24742.4
24726.2
24703.5
24674.9
24640.9
24602.2
24559.7
24513.9
24465.9
24416.9
24368.6
24322.9
24282.2
24248.2
24222.2
24204.9
24196.1
24195.6
24202.6
24216.4
24235.6
24258.6
24283.8
24309.7
24335.5
24361.4
24388
24415.8
24444.4
24471.9
24496.3
24516.8
24534.2
24549.7
24563.7
24577.1
24591.9
24609.7
24627.9
24645
24664.2
24683.9
24699.6
24712.1
24716.7
24721.9
24738.9
24726.5
0.0203721
0.0534489
0.0341459
0.0263931
0.0282378
0.031431
0.034436
0.0369817
0.0395493
0.0408091
0.0406186
0.0392721
0.0370946
0.033389
0.0279717
0.0215611
0.0163774
0.0112303
0.00975313
0.0342645
0.0601825
0.0868307
0.11346
0.13929
0.163545
0.185499
0.204507
0.220043
0.231708
0.239229
0.242438
0.241231
0.235541
0.225306
0.210484
0.191075
0.167179
0.139056
0.107188
0.077516
0.0684765
0.0672837
0.1015
0.135297
0.165373
0.190267
0.209501
0.223729
0.231636
0.232767
0.227024
0.2148
0.19705
0.17527
0.151257
0.126433
0.102175
0.0795551
0.0657556
0.0597661
0.054316
0.0449306
0.0344909
0.0254031
0.02219
0.0233902
0.0264582
0.0303651
0.0366054
0.0425463
0.0481664
0.0537746
0.0581331
0.0601843
0.0620492
0.0652594
0.0665971
0.0707701
0.0696838
0.0699368
-0.000616742
-0.00062198
-0.000615299
-0.000602418
-0.000628601
-0.000647263
-0.000639969
-0.000626522
-0.000622179
-0.000621751
-0.000620685
-0.00061504
-0.000607188
-0.000599845
-0.000592832
-0.000585117
-0.000577242
-0.000568726
-0.000561572
-0.00055386
-0.000543511
-0.000533166
-0.000524041
-0.000514743
-0.00050557
-0.000496991
-0.000488798
-0.000480936
-0.000473865
-0.00046811
-0.0004639
-0.000461128
-0.00045961
-0.000459239
-0.000460006
-0.000461917
-0.000464905
-0.000468747
-0.00047322
-0.000478516
-0.000485752
-0.000492048
-0.000499979
-0.000508316
-0.000515271
-0.000520792
-0.000525266
-0.000527995
-0.000529114
-0.000529161
-0.000528152
-0.000525579
-0.000522175
-0.000519455
-0.000516006
-0.000511069
-0.000506284
-0.000503893
-0.000505389
-0.000503304
-0.000500724
-0.000501683
-0.000498892
-0.000493215
-0.000493325
-0.000495757
-0.00048972
-0.000479804
-0.00047599
-0.000474989
-0.000468411
-0.000459112
-0.000455436
-0.000459096
-0.000466348
-0.000471333
-0.000472179
-0.000466715
-0.000437658
-0.000464344
-0.000634483
-0.000651177
-0.000660615
-0.000628673
-0.000617191
-0.000630013
-0.000636656
-0.000631206
-0.00062297
-0.000617378
-0.000613686
-0.000610024
-0.000604733
-0.000598462
-0.000591708
-0.000585107
-0.000579626
-0.00057226
-0.000563114
-0.000556309
-0.000549031
-0.000541428
-0.000533906
-0.00052643
-0.000519478
-0.000513201
-0.000507232
-0.00050143
-0.000496096
-0.0004916
-0.000488043
-0.000485287
-0.000483098
-0.000481343
-0.000479998
-0.000479108
-0.000478777
-0.000479021
-0.000479592
-0.00048044
-0.000481845
-0.000483335
-0.000484718
-0.00048641
-0.000488186
-0.00048973
-0.000490956
-0.000491698
-0.000491906
-0.000492049
-0.000492249
-0.000491935
-0.000491362
-0.000491679
-0.000492291
-0.000491739
-0.000491749
-0.000494527
-0.000497614
-0.000495253
-0.000493575
-0.000496748
-0.000498467
-0.000495046
-0.00049316
-0.000495918
-0.000495527
-0.000489619
-0.000485269
-0.000485484
-0.000484393
-0.000479004
-0.000474245
-0.000475652
-0.000482181
-0.000488833
-0.000490397
-0.000484855
-0.000475508
-0.000476812
-0.000621809
-0.000600836
-0.000648993
-0.000647745
-0.000629325
-0.000623424
-0.00062737
-0.000627821
-0.000624228
-0.00061765
-0.000610686
-0.000605542
-0.000600823
-0.00059528
-0.000589043
-0.000582377
-0.000575755
-0.000571008
-0.000563582
-0.00055656
-0.000549802
-0.000542402
-0.000535057
-0.000528055
-0.000521416
-0.000515339
-0.000509745
-0.00050445
-0.000499607
-0.000495423
-0.000491898
-0.000488842
-0.000486114
-0.000483772
-0.000481958
-0.000480716
-0.000480042
-0.000479787
-0.000479815
-0.000480329
-0.000480979
-0.000481585
-0.000482126
-0.000482522
-0.000483112
-0.000483771
-0.000484578
-0.000485479
-0.000485999
-0.000486246
-0.000486913
-0.000487475
-0.000487108
-0.000487207
-0.000488978
-0.000490077
-0.000488963
-0.000490114
-0.000493674
-0.000494096
-0.000491258
-0.000491614
-0.000494777
-0.000494621
-0.000492533
-0.000493909
-0.000496212
-0.000494968
-0.000491743
-0.000491317
-0.000492687
-0.000491302
-0.000486418
-0.000481575
-0.000481215
-0.000485532
-0.000490534
-0.000492097
-0.000491811
-0.000486172
-0.000653607
-0.000601598
-0.000629261
-0.00063819
-0.000634741
-0.000626956
-0.000623952
-0.000622621
-0.000621255
-0.000617013
-0.000611252
-0.00060544
-0.000599699
-0.000593459
-0.000587559
-0.00058141
-0.000573213
-0.000567662
-0.000561445
-0.000555296
-0.000548907
-0.000541918
-0.000535005
-0.000528595
-0.000522502
-0.00051662
-0.000511013
-0.000505757
-0.000500985
-0.000496776
-0.000493087
-0.000489794
-0.000486781
-0.000484069
-0.000481815
-0.000480046
-0.00047863
-0.000477623
-0.000477174
-0.000477297
-0.000477823
-0.000478746
-0.000479767
-0.000480882
-0.000481862
-0.000482735
-0.000483613
-0.000484777
-0.000485909
-0.000486651
-0.000487472
-0.000488496
-0.000488226
-0.000487087
-0.000487283
-0.000488274
-0.000486965
-0.000485947
-0.000487652
-0.000488886
-0.000487393
-0.000487274
-0.000488946
-0.000488814
-0.000489231
-0.000493423
-0.00049761
-0.000497396
-0.000496629
-0.000500039
-0.000504462
-0.000503345
-0.000494944
-0.000484985
-0.000480202
-0.000480554
-0.000483936
-0.000487163
-0.000495309
-0.000493092
-0.000655558
-0.000622859
-0.000618386
-0.000626148
-0.000630377
-0.000628286
-0.000623229
-0.000619319
-0.000616073
-0.000612621
-0.000608203
-0.000603242
-0.000597781
-0.000591374
-0.000586103
-0.000580708
-0.000573433
-0.000567705
-0.00056134
-0.000554559
-0.000547832
-0.000540942
-0.000534262
-0.000528147
-0.000522389
-0.000516781
-0.000511428
-0.000506443
-0.000501845
-0.000497583
-0.000493566
-0.00048981
-0.000486392
-0.000483413
-0.000481076
-0.000479462
-0.000478314
-0.000477392
-0.000476879
-0.000476504
-0.000476327
-0.000476551
-0.000477122
-0.000477989
-0.000479139
-0.000480256
-0.000481304
-0.000482573
-0.000483832
-0.000484635
-0.000485556
-0.000487016
-0.000487274
-0.000485802
-0.000486255
-0.000487198
-0.000485763
-0.00048414
-0.00048553
-0.000486553
-0.000484318
-0.000484197
-0.000486713
-0.000485763
-0.000484117
-0.000488727
-0.000495927
-0.00049679
-0.000493593
-0.000496239
-0.000505424
-0.000511353
-0.000505773
-0.000493248
-0.000484091
-0.000479901
-0.000481923
-0.000485054
-0.000494675
-0.000497536
-0.000640708
-0.00064417
-0.000627958
-0.000623598
-0.000624508
-0.000625501
-0.000623272
-0.000619238
-0.000614282
-0.000609663
-0.000605309
-0.000600696
-0.000595914
-0.000590129
-0.00058362
-0.000577564
-0.000571192
-0.000565834
-0.000559919
-0.000553203
-0.000546629
-0.000540232
-0.000534008
-0.000528104
-0.000522459
-0.000516982
-0.000511771
-0.000506911
-0.000502352
-0.000497982
-0.000493669
-0.000489497
-0.000485654
-0.000482281
-0.000479543
-0.000477577
-0.000476142
-0.000474838
-0.000473895
-0.000473356
-0.000473202
-0.000473471
-0.00047415
-0.000475025
-0.000476157
-0.000477471
-0.00047879
-0.00048032
-0.000482006
-0.00048316
-0.000484302
-0.000486702
-0.000488246
-0.000486701
-0.000486115
-0.000488054
-0.000487813
-0.000485284
-0.000486212
-0.000488591
-0.000486885
-0.000485964
-0.000488888
-0.000487795
-0.000483166
-0.000484618
-0.000491938
-0.000493759
-0.000488413
-0.00048654
-0.000495369
-0.000507891
-0.000511826
-0.000505247
-0.000495225
-0.000484836
-0.000480642
-0.000481756
-0.000489161
-0.000495483
-0.0006177
-0.000633811
-0.000629454
-0.000622303
-0.000619516
-0.000619267
-0.000619205
-0.00061668
-0.000612549
-0.000607533
-0.000602495
-0.000596812
-0.000590668
-0.000585587
-0.000580189
-0.000574513
-0.000567846
-0.000561986
-0.000556057
-0.000549525
-0.000543156
-0.000537161
-0.000531297
-0.000525578
-0.000520156
-0.000515026
-0.000510125
-0.000505449
-0.000500958
-0.000496587
-0.000492295
-0.000488164
-0.000484414
-0.00048122
-0.000478616
-0.000476671
-0.000475405
-0.000474802
-0.000474609
-0.000474697
-0.000474977
-0.000475489
-0.000476306
-0.00047735
-0.000478675
-0.000480205
-0.00048159
-0.000483029
-0.00048477
-0.000485753
-0.000485812
-0.000487358
-0.000489699
-0.000488874
-0.000486981
-0.000488992
-0.000491291
-0.000489878
-0.000490006
-0.000492823
-0.000492674
-0.00049269
-0.000497046
-0.000496697
-0.000489299
-0.00048645
-0.000492465
-0.000495078
-0.000487051
-0.00047789
-0.000480062
-0.000493536
-0.000507012
-0.000511423
-0.000505331
-0.000494231
-0.000484348
-0.000481967
-0.000485348
-0.00048949
-0.000615253
-0.000621659
-0.000624772
-0.000621578
-0.000617496
-0.000615035
-0.000613009
-0.000610649
-0.000606935
-0.00060265
-0.000598568
-0.000593601
-0.000587247
-0.0005816
-0.000576795
-0.000571768
-0.000565414
-0.000559212
-0.000553355
-0.000547234
-0.000541131
-0.000535296
-0.000529619
-0.000524037
-0.000518697
-0.000513682
-0.000508888
-0.000504168
-0.000499448
-0.000494811
-0.000490356
-0.000486162
-0.000482424
-0.000479413
-0.000477147
-0.00047543
-0.00047415
-0.000473558
-0.000473583
-0.00047399
-0.000474557
-0.000475229
-0.000476053
-0.000477038
-0.000478325
-0.000479901
-0.000481159
-0.00048219
-0.000483928
-0.00048535
-0.000484766
-0.000485161
-0.00048844
-0.000489423
-0.000486757
-0.000487115
-0.000490832
-0.000492469
-0.000493745
-0.00049599
-0.000495351
-0.00049642
-0.000504653
-0.000508765
-0.000501305
-0.000494661
-0.000499226
-0.000504584
-0.000497414
-0.000481421
-0.000470829
-0.00047427
-0.000489209
-0.000504496
-0.000508582
-0.000502699
-0.00049258
-0.000487032
-0.000486092
-0.000484799
-0.000618859
-0.000612895
-0.000616652
-0.000617593
-0.000615837
-0.000612929
-0.000609549
-0.000606005
-0.000602071
-0.000598152
-0.000594816
-0.000590997
-0.000585546
-0.000579133
-0.000573469
-0.000568562
-0.000562716
-0.000556645
-0.00055098
-0.000545282
-0.000539462
-0.000533732
-0.000528112
-0.000522571
-0.000517213
-0.000512093
-0.000507166
-0.000502295
-0.000497421
-0.000492655
-0.000488152
-0.000483901
-0.000479943
-0.000476618
-0.000474214
-0.000472455
-0.000471031
-0.000470008
-0.00046954
-0.000469612
-0.000470021
-0.000470615
-0.000471326
-0.000472038
-0.000472971
-0.000474384
-0.000475464
-0.000475734
-0.000477145
-0.0004798
-0.00047974
-0.00047853
-0.000482131
-0.000486493
-0.00048537
-0.000483283
-0.000484646
-0.000487326
-0.000491301
-0.000494262
-0.000490702
-0.000488862
-0.000499603
-0.000510612
-0.000506913
-0.000498662
-0.000502039
-0.000512309
-0.000512724
-0.00049798
-0.000478093
-0.000467301
-0.000473004
-0.000489546
-0.000501999
-0.000503895
-0.000498515
-0.00049312
-0.000490393
-0.000485766
-0.000617962
-0.000610405
-0.000608733
-0.000610579
-0.000610808
-0.00060954
-0.000606979
-0.000603577
-0.000599445
-0.000594699
-0.000590248
-0.000586257
-0.000581641
-0.000575652
-0.00056956
-0.00056441
-0.000558955
-0.000553172
-0.000547619
-0.000542086
-0.000536393
-0.000530657
-0.000525015
-0.000519545
-0.000514217
-0.000509017
-0.000503915
-0.000498897
-0.000493965
-0.000489243
-0.000484924
-0.000481003
-0.00047726
-0.000473733
-0.000470957
-0.000468936
-0.000467394
-0.000466174
-0.000465279
-0.000464772
-0.000464543
-0.000464502
-0.000464596
-0.000464552
-0.000464561
-0.000465566
-0.000466865
-0.000466621
-0.000467137
-0.000471419
-0.000474136
-0.000471833
-0.000473008
-0.000479383
-0.000482519
-0.000480582
-0.000477484
-0.000476621
-0.000482054
-0.000488801
-0.000483668
-0.00047442
-0.000481544
-0.000497749
-0.000500098
-0.000491788
-0.000492741
-0.000506912
-0.000519348
-0.000516011
-0.000497881
-0.000478436
-0.000471686
-0.000479904
-0.000491945
-0.000497671
-0.000497407
-0.000494449
-0.000492349
-0.000489491
-0.000609388
-0.000608775
-0.00060425
-0.000603325
-0.000602923
-0.000601926
-0.000600196
-0.000597714
-0.000594631
-0.000590449
-0.000585425
-0.000580785
-0.00057662
-0.000571468
-0.000565744
-0.00056065
-0.00055559
-0.000550164
-0.000544732
-0.000539286
-0.000533616
-0.000527739
-0.000521895
-0.000516162
-0.000510549
-0.000505007
-0.000499519
-0.000494184
-0.000489147
-0.000484512
-0.000480389
-0.000476839
-0.000473701
-0.000470624
-0.000467759
-0.000465362
-0.00046346
-0.000461917
-0.000460614
-0.000459562
-0.000458669
-0.000457936
-0.000457515
-0.00045702
-0.000456227
-0.000456751
-0.000459025
-0.000459322
-0.000458017
-0.000461984
-0.000468621
-0.000468167
-0.000465714
-0.000470063
-0.000477727
-0.000481207
-0.000477021
-0.000469565
-0.000472188
-0.000484217
-0.000482543
-0.000466938
-0.000465592
-0.000480921
-0.000487744
-0.00047961
-0.000475791
-0.000488285
-0.000507889
-0.000518746
-0.000512103
-0.000495351
-0.000483399
-0.000482804
-0.000488552
-0.000492297
-0.000493234
-0.000491776
-0.000489967
-0.000490347
-0.000598548
-0.000602058
-0.000600382
-0.000597235
-0.00059512
-0.000593117
-0.000591446
-0.000589566
-0.000587094
-0.000583935
-0.000579559
-0.000574905
-0.000570955
-0.000566542
-0.000561402
-0.000556498
-0.000551763
-0.000546681
-0.000541352
-0.00053593
-0.000530343
-0.000524538
-0.000518575
-0.000512621
-0.000506747
-0.000500955
-0.000495251
-0.000489738
-0.000484657
-0.000480195
-0.000476341
-0.000472974
-0.000470037
-0.00046735
-0.000464689
-0.000462081
-0.000459698
-0.000457557
-0.0004556
-0.000453906
-0.000452423
-0.000451142
-0.000450501
-0.000450239
-0.000449138
-0.000448767
-0.000452011
-0.000454581
-0.000451927
-0.000452623
-0.000461489
-0.000466401
-0.000463058
-0.00046169
-0.000469763
-0.000481771
-0.00048443
-0.000473787
-0.000469667
-0.000484182
-0.000491412
-0.000476936
-0.000467612
-0.000476711
-0.000483564
-0.000475391
-0.000464612
-0.000469102
-0.000486664
-0.000504046
-0.000508106
-0.000500491
-0.000492529
-0.000490279
-0.000492326
-0.00049313
-0.000492231
-0.000490352
-0.000487606
-0.00048795
-0.000590746
-0.000593038
-0.000594261
-0.000592156
-0.000589569
-0.000586563
-0.000584073
-0.00058223
-0.00057999
-0.000577255
-0.000573519
-0.000569184
-0.000565345
-0.000561503
-0.000556887
-0.000552066
-0.000547383
-0.000542515
-0.000537371
-0.000532036
-0.000526522
-0.00052078
-0.000514791
-0.000508658
-0.000502526
-0.000496552
-0.000490818
-0.000485364
-0.000480301
-0.000475818
-0.000471969
-0.000468586
-0.00046545
-0.000462538
-0.00045967
-0.000456681
-0.000453743
-0.000451012
-0.000448531
-0.00044648
-0.000444855
-0.00044348
-0.000443034
-0.000443924
-0.000443764
-0.000442236
-0.000445099
-0.000451135
-0.000449732
-0.000445384
-0.000451738
-0.000462503
-0.000463601
-0.000456535
-0.000458154
-0.000474178
-0.000488326
-0.000482778
-0.000472655
-0.000484185
-0.000498847
-0.000492468
-0.000483498
-0.000489382
-0.000495762
-0.000486505
-0.000469607
-0.000463968
-0.000474118
-0.000488156
-0.00049514
-0.000492195
-0.000489159
-0.000489869
-0.000493079
-0.000494534
-0.000493209
-0.000490912
-0.000487991
-0.000486415
-0.000585334
-0.000584781
-0.000585997
-0.00058546
-0.000583859
-0.000581329
-0.000578363
-0.000575876
-0.000573485
-0.000570902
-0.00056766
-0.000563643
-0.00055974
-0.000556037
-0.00055176
-0.000547037
-0.000542303
-0.00053749
-0.000532472
-0.000527198
-0.00052165
-0.000515829
-0.000509755
-0.000503515
-0.000497286
-0.000491258
-0.000485594
-0.000480342
-0.000475471
-0.00047102
-0.000467031
-0.000463434
-0.000459979
-0.000456654
-0.000453429
-0.000450154
-0.000446975
-0.00044414
-0.000441772
-0.000440147
-0.000439313
-0.000438591
-0.000438421
-0.00044061
-0.000442656
-0.000440191
-0.000439666
-0.000447442
-0.000450528
-0.000442632
-0.000440777
-0.000452539
-0.000461908
-0.000453879
-0.00044498
-0.000454609
-0.00047571
-0.000479704
-0.00046967
-0.000476854
-0.000490662
-0.000489904
-0.000486776
-0.000496609
-0.00050827
-0.000503363
-0.000485461
-0.000473224
-0.000476886
-0.000486128
-0.000490521
-0.000486523
-0.00048237
-0.00048288
-0.000486705
-0.00048993
-0.000490354
-0.000489118
-0.000487673
-0.000486052
-0.000579211
-0.00057795
-0.000577109
-0.000576723
-0.000575971
-0.000574686
-0.000572518
-0.000569654
-0.000566769
-0.000564092
-0.0005612
-0.000557495
-0.000553446
-0.000549569
-0.00054539
-0.000540749
-0.00053594
-0.000531027
-0.00052589
-0.000520469
-0.000514724
-0.000508685
-0.000502455
-0.000496231
-0.000490226
-0.000484612
-0.000479497
-0.000474882
-0.000470638
-0.000466641
-0.000462849
-0.000459238
-0.000455685
-0.000452262
-0.000449095
-0.000446146
-0.000443513
-0.000441384
-0.000439784
-0.000439005
-0.000439364
-0.000439578
-0.00043882
-0.000440512
-0.00044482
-0.00044294
-0.000436658
-0.000441396
-0.000450274
-0.000444198
-0.000431982
-0.000437295
-0.000454045
-0.000451604
-0.000434612
-0.000434374
-0.000451427
-0.000460473
-0.000454734
-0.00046257
-0.000473672
-0.000469247
-0.000466004
-0.000479228
-0.000498283
-0.000504146
-0.000492472
-0.000480012
-0.000480934
-0.000489892
-0.000494607
-0.000490524
-0.00048372
-0.00048049
-0.000481283
-0.000483257
-0.000484462
-0.000484367
-0.00048452
-0.000484321
-0.000571185
-0.000571097
-0.00056918
-0.000568213
-0.000567335
-0.000566315
-0.000564964
-0.000562515
-0.000559434
-0.000556484
-0.00055371
-0.000550353
-0.000546335
-0.000542189
-0.000537907
-0.000533256
-0.000528319
-0.000523199
-0.000517815
-0.000512102
-0.000506071
-0.000499813
-0.000493497
-0.000487405
-0.00048183
-0.000476908
-0.0004726
-0.00046879
-0.000465309
-0.000461965
-0.000458691