/*--------------------------------*- C++ -*----------------------------------*\
| =========                 |                                                 |
| \\      /  F ield         | OpenFOAM: The Open Source CFD Toolbox           |
|  \\    /   O peration     | Version:  2412                                  |
|   \\  /    A nd           | Website:  www.openfoam.com                      |
|    \\/     M anipulation  |                                                 |
\*---------------------------------------------------------------------------*/
FoamFile
{
    version     2.0;
    format      ascii;
    arch        "LSB;label=32;scalar=64";
    class       surfaceScalarField;
    location    "4.3";
    object      alphaPhi0.water;
}
// * * * * * * * * * * * * * * * * * * * * * * * * * * * * * * * * * * * * * //

dimensions      [0 3 -1 0 0 0 0];

oriented        oriented;

internalField   nonuniform List<scalar> 
12640
(
-2.35773e-05
2.35772e-05
-4.17897e-05
1.82129e-05
-6.05316e-05
1.87422e-05
-7.8559e-05
1.80276e-05
-9.49472e-05
1.63883e-05
-0.000109283
1.43362e-05
-0.000121423
1.214e-05
-0.000131316
9.8926e-06
-0.000139029
7.71334e-06
-0.000144646
5.61633e-06
-0.000148298
3.6522e-06
-0.000150148
1.84997e-06
-0.000150299
1.51603e-07
-0.000149265
-1.03421e-06
-0.000147215
-2.04992e-06
-0.000144607
-2.60873e-06
-0.000141569
-3.03771e-06
-0.000138363
-3.20613e-06
-0.000135205
-3.15753e-06
-0.000132216
-2.98849e-06
-0.000129517
-2.69964e-06
-0.000127164
-2.35269e-06
-0.000125171
-1.99311e-06
-0.000123506
-1.66541e-06
-0.000122092
-1.41342e-06
-0.000120794
-1.29688e-06
-0.000119364
-1.42938e-06
-0.000117478
-1.88616e-06
-0.000114883
-2.59395e-06
-0.000111388
-3.49536e-06
-0.000106866
-4.52224e-06
-0.000101341
-5.52456e-06
-9.48151e-05
-6.5258e-06
-8.7052e-05
-7.76312e-06
-7.77901e-05
-9.26203e-06
-6.68736e-05
-1.09168e-05
-5.42678e-05
-1.2606e-05
-4.01822e-05
-1.40857e-05
-2.49031e-05
-1.52796e-05
-8.86112e-06
-1.60422e-05
7.36364e-06
-1.62246e-05
2.31645e-05
-1.58006e-05
3.79951e-05
-1.48304e-05
5.14452e-05
-1.345e-05
6.32732e-05
-1.18276e-05
7.33638e-05
-1.009e-05
8.17546e-05
-8.39022e-06
8.8676e-05
-6.92105e-06
9.44619e-05
-5.78554e-06
9.92746e-05
-4.81244e-06
0.000103139
-3.86443e-06
0.000106067
-2.92736e-06
0.000108235
-2.16776e-06
0.000109931
-1.69523e-06
0.000111502
-1.57172e-06
0.000113306
-1.8033e-06
0.000115473
-2.16646e-06
0.000117995
-2.52229e-06
0.000120938
-2.94257e-06
0.000124316
-3.37735e-06
0.000128053
-3.73709e-06
0.000132044
-3.9909e-06
0.000136147
-4.10251e-06
0.000140196
-4.04911e-06
0.00014392
-3.72424e-06
0.000147016
-3.09623e-06
0.000149138
-2.12224e-06
0.000149965
-8.25722e-07
0.000149109
8.56033e-07
0.000146276
2.83263e-06
0.000141292
4.98414e-06
0.000133994
7.29871e-06
0.000124345
9.64833e-06
0.000112227
1.2118e-05
9.77079e-05
1.45199e-05
8.09978e-05
1.67108e-05
6.24385e-05
1.85595e-05
4.29328e-05
1.95052e-05
2.38143e-05
1.91179e-05
2.38137e-05
-2.44868e-05
4.80642e-05
-4.34165e-05
3.71429e-05
-6.29286e-05
3.82545e-05
-8.15386e-05
3.66379e-05
-9.83645e-05
3.32143e-05
-0.000113
2.89717e-05
-0.000125211
2.43514e-05
-0.000134996
1.96771e-05
-0.000142352
1.50699e-05
-0.000147398
1.06617e-05
-0.000150346
6.60073e-06
-0.000151561
3.0646e-06
-0.00015131
-9.91872e-08
-0.000149727
-2.61779e-06
-0.000147242
-4.53458e-06
-0.000144126
-5.72465e-06
-0.000140594
-6.56946e-06
-0.000136873
-6.9273e-06
-0.00013312
-6.91067e-06
-0.000129441
-6.66775e-06
-0.000125938
-6.20237e-06
-0.000122586
-5.70333e-06
-0.000119344
-5.23442e-06
-0.000116137
-4.87217e-06
-0.000112806
-4.74259e-06
-0.000109257
-4.84555e-06
-0.000105399
-5.28606e-06
-0.000101221
-6.06294e-06
-9.66831e-05
-7.1318e-06
-9.17012e-05
-8.47676e-06
-8.61304e-05
-1.00926e-05
-7.97803e-05
-1.18744e-05
-7.25004e-05
-1.38056e-05
-6.44022e-05
-1.58613e-05
-5.57045e-05
-1.79596e-05
-4.66065e-05
-2.00148e-05
-3.72271e-05
-2.19855e-05
-2.77372e-05
-2.35755e-05
-1.81709e-05
-2.48454e-05
-8.55187e-06
-2.56608e-05
1.08536e-06
-2.58616e-05
1.07255e-05
-2.54405e-05
2.03602e-05
-2.44648e-05
2.99323e-05
-2.30216e-05
3.93613e-05
-2.12563e-05
4.85285e-05
-1.92568e-05
5.72329e-05
-1.70942e-05
6.5256e-05
-1.49434e-05
7.23778e-05
-1.29066e-05
7.8604e-05
-1.10379e-05
8.41121e-05
-9.37184e-06
8.91087e-05
-7.92343e-06
9.37257e-05
-6.78445e-06
9.80247e-05
-5.99402e-06
0.000102031
-5.57773e-06
0.000105813
-5.58557e-06
0.000109531
-5.88412e-06
0.000113381
-6.37149e-06
0.000117451
-7.01249e-06
0.00012173
-7.65637e-06
0.000126267
-8.27326e-06
0.000130949
-8.67318e-06
0.000135742
-8.89592e-06
0.000140341
-8.64771e-06
0.000144555
-7.93816e-06
0.000148074
-6.61462e-06
0.000150673
-4.72064e-06
0.000151986
-2.13905e-06
0.000151578
1.26501e-06
0.000149287
5.12385e-06
0.000144825
9.44582e-06
0.000137857
1.4267e-05
0.00012833
1.91757e-05
0.000116069
2.43793e-05
0.000101245
2.9343e-05
8.40586e-05
3.38974e-05
6.48904e-05
3.77269e-05
4.46666e-05
3.97287e-05
2.48395e-05
3.89442e-05
4.8654e-05
-2.54664e-05
7.35311e-05
-4.49235e-05
5.66002e-05
-6.50232e-05
5.83545e-05
-8.43393e-05
5.59542e-05
-0.000101667
5.05418e-05
-0.000116606
4.39114e-05
-0.000128985
3.67294e-05
-0.000138754
2.94467e-05
-0.000146053
2.23687e-05
-0.000150911
1.55195e-05
-0.000153604
9.29345e-06
-0.00015447
3.93081e-06
-0.00015368
-8.89021e-07
-0.000151584
-4.71446e-06
-0.000148565
-7.55318e-06
-0.00014497
-9.31989e-06
-0.00014103
-1.05098e-05
-0.000136986
-1.09707e-05
-0.000133054
-1.0842e-05
-0.000129416
-1.03047e-05
-0.000126106
-9.511e-06
-0.000123176
-8.63229e-06
-0.000120578
-7.83156e-06
-0.000118221
-7.22834e-06
-0.000115982
-6.98056e-06
-0.000113651
-7.17502e-06
-0.000111066
-7.87104e-06
-0.000108071
-9.05677e-06
-0.00010455
-1.06521e-05
-0.000100298
-1.27283e-05
-9.52179e-05
-1.51713e-05
-8.91264e-05
-1.79649e-05
-8.18889e-05
-2.10419e-05
-7.35517e-05
-2.41974e-05
-6.42699e-05
-2.72404e-05
-5.4118e-05
-3.0166e-05
-4.33635e-05
-3.27397e-05
-3.20529e-05
-3.48862e-05
-2.03932e-05
-3.65056e-05
-8.5701e-06
-3.74843e-05
3.27417e-06
-3.77057e-05
1.50472e-05
-3.72133e-05
2.66189e-05
-3.60363e-05
3.78233e-05
-3.42258e-05
4.84789e-05
-3.19116e-05
5.83817e-05
-2.9159e-05
6.74222e-05
-2.6134e-05
7.54026e-05
-2.29231e-05
8.22233e-05
-1.97269e-05
8.78974e-05
-1.67118e-05
9.25977e-05
-1.40719e-05
9.65075e-05
-1.18331e-05
9.98165e-05
-1.00932e-05
0.000102758
-8.93546e-06
0.00010547
-8.28946e-06
0.000108122
-8.23733e-06
0.000110906
-8.66857e-06
0.000114032
-9.49757e-06
0.000117566
-1.05468e-05
0.000121572
-1.16624e-05
0.000126006
-1.27072e-05
0.00013088
-1.35463e-05
0.000135937
-1.39527e-05
0.000140957
-1.36676e-05
0.000145651
-1.26316e-05
0.000149817
-1.07807e-05
0.000153004
-7.90809e-06
0.000154801
-3.93604e-06
0.000155
1.06637e-06
0.000153051
7.07325e-06
0.000148768
1.37284e-05
0.000142003
2.10312e-05
0.000132373
2.8803e-05
0.000120029
3.67234e-05
0.000104923
4.44491e-05
8.72259e-05
5.15949e-05
6.73412e-05
5.76119e-05
4.65079e-05
6.05631e-05
2.59606e-05
5.94924e-05
7.46152e-05
-2.75422e-05
0.000101074
-4.81328e-05
7.71912e-05
-6.92791e-05
7.9501e-05
-8.97208e-05
7.6396e-05
-0.000107984
6.88053e-05
-0.000123491
5.94179e-05
-0.000136085
4.9324e-05
-0.000145757
3.91181e-05
-0.000152641
2.92529e-05
-0.000157017
1.98956e-05
-0.000159092
1.13681e-05
-0.000158953
3.79184e-06
-0.00015716
-2.68208e-06
-0.000154243
-7.63133e-06
-0.000150478
-1.1318e-05
-0.000146096
-1.37024e-05
-0.000141498
-1.51082e-05
-0.000136966
-1.55021e-05
-0.000132714
-1.50929e-05
-0.000128886
-1.41326e-05
-0.000125573
-1.28231e-05
-0.000122791
-1.14139e-05
-0.00012048
-1.01421e-05
-0.00011857
-9.13901e-06
-0.000116902
-8.64886e-06
-0.000115277
-8.80063e-06
-0.000113435
-9.71292e-06
-0.000111206
-1.12844e-05
-0.000108362
-1.34954e-05
-0.000104744
-1.63455e-05
-0.00010016
-1.97547e-05
-9.44924e-05
-2.36316e-05
-8.76903e-05
-2.78437e-05
-7.97126e-05
-3.21754e-05
-7.04838e-05
-3.64701e-05
-6.0065e-05
-4.0586e-05
-4.8519e-05
-4.42863e-05
-3.59813e-05
-4.74236e-05
-2.27022e-05
-4.97841e-05
-8.99531e-06
-5.11905e-05
4.83009e-06
-5.15304e-05
1.84087e-05
-5.07911e-05
3.14431e-05
-4.90701e-05
4.3645e-05
-4.64274e-05
5.48006e-05
-4.30671e-05
6.48469e-05
-3.92053e-05
7.36416e-05
-3.49288e-05
8.1175e-05
-3.04566e-05
8.74462e-05
-2.59981e-05
9.25286e-05
-2.17941e-05
9.65312e-05
-1.80742e-05
9.96909e-05
-1.49923e-05
0.000102191
-1.25926e-05
0.000104252
-1.09956e-05
0.000106118
-1.01554e-05
0.000108128
-1.02469e-05
0.000110402
-1.09421e-05
0.000113175
-1.22712e-05
0.000116572
-1.39436e-05
0.000120606
-1.56957e-05
0.000125304
-1.74048e-05
0.000130537
-1.87793e-05
0.000136137
-1.9552e-05
0.000141872
-1.94025e-05
0.000147456
-1.82156e-05
0.000152525
-1.58496e-05
0.000156638
-1.20212e-05
0.000159552
-6.85057e-06
0.000160639
-2.19015e-08
0.000159558
8.15243e-06
0.000156005
1.728e-05
0.000149515
2.7521e-05
0.000140151
3.81672e-05
0.000127553
4.93222e-05
0.000111779
6.02235e-05
9.30115e-05
7.03618e-05
7.19036e-05
7.87209e-05
4.97054e-05
8.27608e-05
2.80164e-05
8.11826e-05
0.000102632
-3.03651e-05
0.000131439
-5.23393e-05
9.91656e-05
-7.52053e-05
0.000102367
-9.73814e-05
9.85723e-05
-0.000117006
8.843e-05
-0.000133314
7.5726e-05
-0.000146146
6.21554e-05
-0.00015555
4.85227e-05
-0.000161853
3.55558e-05
-0.000165311
2.33535e-05
-0.000166209
1.22663e-05
-0.000164977
2.55952e-06
-0.000162123
-5.5359e-06
-0.000157866
-1.18889e-05
-0.000152823
-1.63608e-05
-0.00014726
-1.92653e-05
-0.000141639
-2.07289e-05
-0.000136322
-2.08193e-05
-0.000131477
-1.99383e-05
-0.000127308
-1.83019e-05
-0.000123873
-1.62591e-05
-0.000121174
-1.41129e-05
-0.000119183
-1.21337e-05
-0.000117724
-1.05983e-05
-0.000116677
-9.69493e-06
-0.000115689
-9.78897e-06
-0.000114539
-1.08624e-05
-0.000112989
-1.28343e-05
-0.000110789
-1.56947e-05
-0.000107707
-1.94282e-05
-0.000103553
-2.39086e-05
-9.82285e-05
-2.89574e-05
-9.16515e-05
-3.44215e-05
-8.37222e-05
-4.01047e-05
-7.43687e-05
-4.58227e-05
-6.36441e-05
-5.13096e-05
-5.15552e-05
-5.63744e-05
-3.82983e-05
-6.06804e-05
-2.4113e-05
-6.39699e-05
-9.37201e-06
-6.59324e-05
5.52473e-06
-6.64281e-05
2.00999e-05
-6.53668e-05
3.40438e-05
-6.30142e-05
4.69589e-05
-5.93426e-05
5.86818e-05
-5.479e-05
6.90043e-05
-4.95278e-05
7.78575e-05
-4.37821e-05
8.52506e-05
-3.78498e-05
9.12111e-05
-3.19586e-05
9.58311e-05
-2.64142e-05
9.92441e-05
-2.14869e-05
0.00010166
-1.74076e-05
0.000103389
-1.43209e-05
0.000104669
-1.22749e-05
0.000105782
-1.12681e-05
0.000107053
-1.15184e-05
0.000108837
-1.27257e-05
0.000111203
-1.46368e-05
0.000114418
-1.71586e-05
0.000118647
-1.99233e-05
0.000123724
-2.24812e-05
0.000129573
-2.46284e-05
0.000136004
-2.59827e-05
0.000142855
-2.62531e-05
0.000149752
-2.51123e-05
0.000156121
-2.22188e-05
0.000161782
-1.76835e-05
0.00016599
-1.1059e-05
0.000168519
-2.55087e-06
0.000168643
8.02937e-06
0.000165965
1.99603e-05
0.000160258
3.32286e-05
0.000151018
4.74086e-05
0.000138123
6.22169e-05
0.000121489
7.68565e-05
0.000101304
9.05457e-05
7.83399e-05
0.000101685
5.42244e-05
0.000106876
3.08159e-05
0.000104591
0.000133447
-3.39609e-05
0.0001654
-5.79942e-05
0.000123199
-8.30246e-05
0.000127398
-0.000107648
0.000123195
-0.000129149
0.000109931
-0.000146448
9.30243e-05
-0.000159458
7.51659e-05
-0.000168522
5.75872e-05
-0.000173947
4.09808e-05
-0.00017619
2.55968e-05
-0.000175643
1.17193e-05
-0.000172774
-3.10004e-07
-0.000168189
-1.01199e-05
-0.000162215
-1.7863e-05
-0.000155331
-2.32446e-05
-0.000148328
-2.62691e-05
-0.000141502
-2.75553e-05
-0.000135122
-2.71989e-05
-0.000129491
-2.55691e-05
-0.000124839
-2.29527e-05
-0.000121272
-1.98261e-05
-0.000118742
-1.66421e-05
-0.000117166
-1.37083e-05
-0.000116393
-1.13709e-05
-0.000116163
-9.92388e-06
-0.00011615
-9.80143e-06
-0.000115951
-1.10612e-05
-0.000115279
-1.35066e-05
-0.000113869
-1.7104e-05
-0.000111474
-2.18239e-05
-0.000107886
-2.74952e-05
-0.000102963
-3.38792e-05
-9.65698e-05
-4.08135e-05
-8.86393e-05
-4.8034e-05
-7.90614e-05
-5.54001e-05
-6.78107e-05
-6.25603e-05
-5.50357e-05
-6.91499e-05
-4.09377e-05
-7.4779e-05
-2.56976e-05
-7.92107e-05
-9.81703e-06
-8.18135e-05
6.32441e-06
-8.25698e-05
2.20509e-05
-8.10934e-05
3.70287e-05
-7.79921e-05
5.087e-05
-7.3184e-05
6.32834e-05
-6.72035e-05
7.40816e-05
-6.03261e-05
8.31511e-05
-5.28516e-05
9.04733e-05
-4.51721e-05
9.61046e-05
-3.759e-05
0.00010016
-3.04701e-05
0.000102814
-2.41401e-05
0.000104326
-1.89201e-05
0.000105002
-1.49966e-05
0.000105158
-1.24305e-05
0.000105145
-1.12548e-05
0.000105465
-1.18383e-05
0.000106407
-1.36675e-05
0.000108336
-1.65658e-05
0.000111399
-2.02213e-05
0.000115709
-2.42328e-05
0.000121247
-2.80189e-05
0.000127932
-3.13139e-05
0.000135555
-3.36063e-05
0.000143807
-3.45057e-05
0.000152299
-3.36042e-05
0.000160623
-3.05415e-05
0.000168136
-2.51952e-05
0.00017431
-1.72319e-05
0.000178549
-6.78863e-06
0.000180398
6.18076e-06
0.000179083
2.1276e-05
0.000174306
3.80045e-05
0.000165516
5.61971e-05
0.000152391
7.5341e-05
0.000134644
9.46024e-05
0.000112473
0.000112718
8.67804e-05
0.000127377
6.01827e-05
0.000133474
3.44535e-05
0.00013032
0.0001679
-3.82357e-05
0.000203636
-6.50361e-05
0.000149999
-9.31602e-05
0.000155522
-0.000121324
0.000151359
-0.000145241
0.000133848
-0.000163648
0.000111432
-0.000176719
8.82367e-05
-0.000184963
6.58315e-05
-0.000189106
4.51244e-05
-0.000189629
2.61197e-05
-0.000187242
9.33272e-06
-0.000182272
-5.27952e-06
-0.000175343
-1.70488e-05
-0.000167161
-2.6045e-05
-0.000158373
-3.20319e-05
-0.000149308
-3.53332e-05
-0.000140726
-3.61364e-05
-0.000132964
-3.49594e-05
-0.00012641
-3.21225e-05
-0.000121202
-2.81599e-05
-0.000117477
-2.35515e-05
-0.000115225
-1.88928e-05
-0.00011431
-1.46232e-05
-0.000114428
-1.12524e-05
-0.000115275
-9.07659e-06
-0.000116504
-8.5724e-06
-0.000117585
-9.97975e-06
-0.000118147
-1.29446e-05
-0.000117813
-1.74372e-05
-0.000116306
-2.33299e-05
-0.000113439
-3.03612e-05
-0.000109033
-3.82844e-05
-0.000102963
-4.68834e-05
-9.5062e-05
-5.59345e-05
-8.52747e-05
-6.51871e-05
-7.35414e-05
-7.42934e-05
-5.9925e-05
-8.27657e-05
-4.45808e-05
-9.01224e-05
-2.7889e-05
-9.59021e-05
-1.03622e-05
-9.93401e-05
7.44269e-06
-0.000100375
2.47775e-05
-9.84284e-05
4.11534e-05
-9.43681e-05
5.61896e-05
-8.82203e-05
6.95026e-05
-8.05168e-05
8.08805e-05
-7.17042e-05
9.01512e-05
-6.21227e-05
9.73387e-05
-5.23601e-05
0.000102503
-4.27551e-05
0.000105769
-3.37359e-05
0.000107386
-2.57567e-05
0.000107642
-1.91763e-05
0.00010686
-1.4214e-05
0.000105503
-1.10736e-05
0.000104104
-9.85507e-06
0.000103114
-1.08477e-05
0.000103016
-1.35696e-05
0.000104127
-1.76763e-05
0.000106894
-2.29875e-05
0.000111293
-2.86317e-05
0.000117471
-3.41974e-05
0.000125176
-3.90198e-05
0.000134321
-4.27505e-05
0.000144406
-4.45904e-05
0.000155142
-4.43392e-05
0.000165891
-4.12895e-05
0.000175862
-3.51666e-05
0.000184432
-2.58026e-05
0.000191111
-1.34692e-05
0.000195101
2.18849e-06
0.000195767
2.06095e-05
0.000192359
4.1412e-05
0.000184329
6.42273e-05
0.000171071
8.85992e-05
0.000152011
0.000113665
0.000127127
0.000137605
9.765e-05
0.000156854
6.75333e-05
0.000163592
3.86827e-05
0.000159172
0.000206583
-4.271e-05
0.000246346
-7.30282e-05
0.000180318
-0.000105375
0.000187869
-0.000139207
0.000185192
-0.000166666
0.000161307
-0.000186255
0.000131021
-0.000198808
0.00010079
-0.000205536
7.25592e-05
-0.000207742
4.73313e-05
-0.000206086
2.44636e-05
-0.000201114
4.36122e-06
-0.000193577
-1.28157e-05
-0.000183794
-2.68308e-05
-0.000172947
-3.68916e-05
-0.000161247
-4.37312e-05
-0.000149668
-4.69114e-05
-0.000138934
-4.68708e-05
-0.000129496
-4.43974e-05
-0.000121709
-3.99099e-05
-0.00011586
-3.40099e-05
-0.000111986
-2.74256e-05
-0.000110166
-2.07126e-05
-0.000110101
-1.46889e-05
-0.000111474
-9.87875e-06
-0.000113826
-6.72514e-06
-0.000116743
-5.65456e-06
-0.000119503
-7.21959e-06
-0.00012159
-1.08573e-05
-0.000122585
-1.64416e-05
-0.000122221
-2.36943e-05
-0.000120284
-3.22983e-05
-0.000116575
-4.19926e-05
-0.000110963
-5.24955e-05
-0.000103196
-6.37016e-05
-9.31815e-05
-7.52014e-05
-8.08339e-05
-8.6641e-05
-6.61337e-05
-9.74662e-05
-4.93012e-05
-0.000106955
-3.0706e-05
-0.000114498
-1.10967e-05
-0.00011895
8.95664e-06
-0.000120429
2.83713e-05
-0.000117844
4.65961e-05
-0.000112593
6.308e-05
-0.000104705
7.74338e-05
-9.4871e-05
8.94858e-05
-8.37566e-05
9.90426e-05
-7.16799e-05
0.000106038
-5.93553e-05
0.000110561
-4.72789e-05
0.000112829
-3.60031e-05
0.000113091
-2.60186e-05
0.000111697
-1.77823e-05
0.000109056
-1.15717e-05
0.000105732
-7.74908e-06
0.000102385
-6.50734e-06
9.96433e-05
-8.10581e-06
9.81018e-05
-1.20275e-05
9.83782e-05
-1.79521e-05
0.000100604
-2.52129e-05
0.000105151
-3.3178e-05
0.000112017
-4.10631e-05
0.000121048
-4.80512e-05
0.000131953
-5.36548e-05
0.000144358
-5.69952e-05
0.00015783
-5.78121e-05
0.000171459
-5.49199e-05
0.000184673
-4.83826e-05
0.000196537
-3.76682e-05
0.000206195
-2.31271e-05
0.000213113
-4.72901e-06
0.000216217
1.75062e-05
0.000214955
4.26759e-05
0.000208425
7.07601e-05
0.000195425
0.0001016
0.000174884
0.000134206
0.00014631
0.000166179
0.000110914
0.000192249
7.58791e-05
0.000198628
4.3342e-05
0.000191709
0.000249925
-4.70986e-05
0.000293444
-8.28679e-05
0.000216087
-0.000120854
0.000225855
-0.000163107
0.000227445
-0.000195238
0.000193439
-0.00021548
0.000151264
-0.000226513
0.000111823
-0.000230916
7.69626e-05
-0.000230267
4.66824e-05
-0.000225711
1.99078e-05
-0.000217506
-3.8434e-06
-0.000206713
-2.3608e-05
-0.000193768
-3.97757e-05
-0.000179221
-5.14387e-05
-0.000164065
-5.8887e-05
-0.000149354
-6.16234e-05
-0.00013571
-6.05145e-05
-0.000124141
-5.59663e-05
-0.000114853
-4.91986e-05
-0.000108241
-4.06208e-05
-0.000104308
-3.13583e-05
-0.000102954
-2.20662e-05
-0.000104211
-1.34314e-05
-0.000107248
-6.84102e-06
-0.000111649
-2.32453e-06
-0.000116616
-6.87007e-07
-0.000121581
-2.25383e-06
-0.000125633
-6.80497e-06
-0.000128329
-1.37457e-05
-0.000129375
-2.26491e-05
-0.000128533
-3.31409e-05
-0.000125655
-4.48709e-05
-0.000120632
-5.75196e-05
-0.000113149
-7.11851e-05
-0.000103037
-8.53128e-05
-9.0057e-05
-9.96212e-05
-7.41479e-05
-0.000113376
-5.54228e-05
-0.000125681
-3.44118e-05
-0.000135509
-1.20533e-05
-0.000141309
1.09011e-05
-0.000143384
3.2977e-05
-0.00013992
5.34744e-05
-0.000133091
7.18172e-05
-0.000123047
8.75626e-05
-0.000110616
0.000100404
-9.65979e-05
0.000110154
-8.14297e-05
0.000116871
-6.60724e-05
0.000120578
-5.09858e-05
0.000121538
-3.69631e-05
0.000120066
-2.4547e-05
0.000116585
-1.43011e-05
0.000111548
-6.53443e-06
0.00010557
-1.77109e-06
9.99526e-05
-8.90255e-07
9.48244e-05
-2.97742e-06
9.14213e-05
-8.62418e-06
9.02079e-05
-1.67384e-05
9.17947e-05
-2.67992e-05
9.64195e-05
-3.78025e-05
0.000104103
-4.87465e-05
0.000114822
-5.87712e-05
0.000128036
-6.68691e-05
0.000143475
-7.24355e-05
0.000160216
-7.45531e-05
0.000177833
-7.25375e-05
0.000194988
-6.55372e-05
0.000210769
-5.34481e-05
0.0002242
-3.6556e-05
0.000234697
-1.52239e-05
0.000241206
1.09976e-05
0.000243029
4.08516e-05
0.000238893
7.48962e-05
0.000226974
0.000113519
0.00020514
0.000156039
0.000171809
0.000199509
0.000127254
0.000236803
8.49854e-05
0.000240897
4.73243e-05
0.000229369
0.000297249
-5.22141e-05
0.000345658
-9.96171e-05
0.000263491
-0.00014486
0.000271098
-0.00019688
0.000279465
-0.000234142
0.000230702
-0.000253673
0.000170795
-0.000261135
0.000119285
-0.000261424
7.72523e-05
-0.000256872
4.21302e-05
-0.000248461
1.14974e-05
-0.000236879
-1.54255e-05
-0.000222124
-3.83624e-05
-0.000204964
-5.69359e-05
-0.000185643
-7.07601e-05
-0.000166018
-7.85108e-05
-0.00014732
-8.03201e-05
-0.000130582
-7.72515e-05
-0.000116259
-7.02881e-05
-0.000105123
-6.03336e-05
-9.74843e-05
-4.82593e-05
-9.34939e-05
-3.53487e-05
-9.31006e-05
-2.24598e-05
-9.58189e-05
-1.07134e-05
-0.000101295
-1.36479e-06
-0.000108377
4.75755e-06
-0.000116086
7.021e-06
-0.000123883
5.54361e-06
-0.000130463
-2.26556e-07
-0.000135185
-9.02487e-06
-0.000137805
-2.00303e-05
-0.000138232
-3.2713e-05
-0.000136381
-4.67216e-05
-0.000132019
-6.18804e-05
-0.000125042
-7.81625e-05
-0.000114941
-9.5414e-05
-0.000101359
-0.000113203
-8.40171e-05
-0.000130719
-6.30985e-05
-0.0001466
-3.91914e-05
-0.000159416
-1.30605e-05
-0.00016744
1.37005e-05
-0.000170145
3.88751e-05
-0.000165095
6.19952e-05
-0.000156211
8.25198e-05
-0.000143572
9.99319e-05
-0.000128029
0.000113795
-0.000110461
0.000123861
-9.14964e-05
0.000130159
-7.23704e-05
0.000132912
-5.37387e-05
0.000132246
-3.62981e-05
0.000128608
-2.09084e-05
0.000122495
-8.18834e-06
0.0001141
1.86072e-06
0.000105327
7.00247e-06
9.63098e-05
8.12695e-06
8.83052e-05
5.02747e-06
8.21617e-05
-2.48004e-06
7.9e-05
-1.35761e-05
7.96029e-05
-2.74014e-05
8.43331e-05
-4.25323e-05
9.3121e-05
-5.75341e-05
0.000105718
-7.13674e-05
0.000121864
-8.30148e-05
0.000140781
-9.13516e-05
0.000162094
-9.58649e-05
0.000184349
-9.47913e-05
0.000206539
-8.77261e-05
0.000227361
-7.42703e-05
0.000245438
-5.4634e-05
0.000260181
-2.99689e-05
0.00027118
-1.68357e-09
0.000277332
3.47003e-05
0.000277229
7.4999e-05
0.000268294
0.000122454
0.00024581
0.000178523
0.000205995
0.000239323
0.000149121
0.000293679
9.76835e-05
0.000292335
5.18756e-05
0.000275178
0.000349125
-4.1571e-05
0.00038723
-0.000110833
0.000332753
-0.000184643
0.000344909
-0.000256289
0.000351111
-0.00029554
0.000269955
-0.000303701
0.000178956
-0.000302753
0.000118338
-0.000296467
7.09663e-05
-0.000286831
3.24956e-05
-0.000274345
-9.8778e-07
-0.0002589
-3.08701e-05
-0.000239589
-5.76728e-05
-0.00021693
-7.95935e-05
-0.000192206
-9.54827e-05
-0.000167148
-0.000103568
-0.000142979
-0.000104488
-0.000122153
-9.80779e-05
-0.000104483
-8.79575e-05
-9.12294e-05
-7.35873e-05
-8.24589e-05
-5.70297e-05
-7.84329e-05
-3.93748e-05
-7.92008e-05
-2.16922e-05
-8.43101e-05
-5.60407e-06
-9.29438e-05
7.26846e-06
-0.000103826
1.56396e-05
-0.000115395
1.85898e-05
-0.000126411
1.656e-05
-0.000136048
9.41142e-06
-0.000143242
-1.82904e-06
-0.000147601
-1.56709e-05
-0.000149323
-3.09906e-05
-0.000148557
-4.74884e-05
-0.000145217
-6.52223e-05
-0.000138955
-8.44265e-05
-0.000129161
-0.000105208
-0.000115191
-0.000127174
-9.67237e-05
-0.000149186
-7.35112e-05
-0.000169812
-4.57163e-05
-0.000187211
-1.36249e-05
-0.000199532
1.89163e-05
-0.000202687
4.74852e-05
-0.000193664
7.28277e-05
-0.000181554
9.54952e-05
-0.00016624
0.00011477
-0.000147304
0.000129802
-0.000125494
0.000140314
-0.000102008
0.000146169
-7.82261e-05
0.000147674
-5.52438e-05
0.000145142
-3.37656e-05
0.000138819
-1.45851e-05
0.000129174
1.45673e-06
0.00011763
1.34041e-05
0.000104551
2.00815e-05
9.12134e-05
2.14646e-05
7.89093e-05
1.73316e-05
6.91868e-05
7.24265e-06
6.33679e-05
-7.75699e-06
6.27275e-05
-2.67607e-05
6.75229e-05
-4.73274e-05
7.76671e-05
-6.76778e-05
9.27883e-05
-8.64878e-05
0.000112357
-0.000102582
0.00013565
-0.000114645
0.000161957
-0.000122171
0.000190465
-0.000123299
0.000219026
-0.000116287
0.000245913
-0.000101157
0.000269479
-7.8199e-05
0.00028932
-4.98111e-05
0.000305621
-1.63024e-05
0.000317703
2.2619e-05
0.000324395
6.83068e-05
0.000322557
0.000124293
0.000306638
0.000194443
0.00026257
0.000283392
0.000185334
0.000370915
0.000114185
0.000363483
5.03228e-05
0.000339039
0.000399447
3.56662e-05
0.000351563
-1.78115e-05
0.00038623
-0.000189368
0.000516465
-0.000348096
0.000509838
-0.000394127
0.000315987
-0.000372413
0.000157241
-0.000351166
9.7091e-05
-0.000336675
5.64761e-05
-0.000321865
1.76865e-05
-0.000304535
-1.83174e-05
-0.000284049
-5.13545e-05
-0.000259527
-8.21944e-05
-0.000230716
-0.000108404
-0.0001989
-0.000127298
-0.000166033
-0.000136435
-0.000136132
-0.000134388
-0.000109597
-0.000124612
-8.79096e-05
-0.000109645
-7.17708e-05
-8.97258e-05
-6.15847e-05
-6.72158e-05
-5.75574e-05
-4.34018e-05
-5.98727e-05
-1.93765e-05
-6.80923e-05
2.61659e-06
-8.11507e-05
2.03278e-05
-9.71469e-05
3.16367e-05
-0.000113888
3.53315e-05
-0.000129388
3.20596e-05
-0.000142508
2.25313e-05
-0.000152645
8.30607e-06
-0.000158623
-9.69397e-06
-0.000161536
-2.80778e-05
-0.000161795
-4.723e-05
-0.000159499
-6.75181e-05
-0.000154416
-8.95088e-05
-0.000145944
-0.000113679
-0.00013318
-0.000139938
-0.000114696
-0.00016767
-8.91016e-05
-0.000195407
-5.52202e-05
-0.000221093
-1.35554e-05
-0.000241197
2.80161e-05
-0.000244258
6.11572e-05
-0.000226805
8.85194e-05
-0.000208916
0.000112414
-0.000190135
0.000132823
-0.000167713
0.000148933
-0.000141605
0.000159821
-0.000112896
0.000165389
-8.37938e-05
0.000165581
-5.5436e-05
0.000160791
-2.89764e-05
0.000151251
-5.04537e-06
0.000137491
1.52163e-05
0.000121255
2.96395e-05
0.000102904
3.84314e-05
8.37619e-05
4.06061e-05
6.57629e-05
3.533e-05
5.11435e-05
2.18616e-05
4.20494e-05
1.33667e-06
3.96311e-05
-2.43426e-05
4.45028e-05
-5.21996e-05
5.63478e-05
-7.9523e-05
7.47478e-05
-0.000104887
9.8971e-05
-0.000126805
0.000128037
-0.00014371
0.000160898
-0.000155032
0.000196639
-0.000159039
0.000232917
-0.000152565
0.000267191
-0.000135433
0.000297452
-0.00010846
0.000323352
-7.57106e-05
0.0003459
-3.88489e-05
0.000365046
3.47435e-06
0.000380879
5.24736e-05
0.000393813
0.000111359
0.00040129
0.000186965
0.000359771
0.000324911
0.000233794
0.000496891
8.28279e-05
0.000514449
-5.16556e-06
0.000427032
0.000394281
0.000131572
0.000216564
0.000316274
0.000191294
0.00013261
0.000694584
-0.000287878
0.000930326
-0.000501279
0.000529388
-0.000467917
0.000123879
-0.000411653
4.08273e-05
-0.000376074
2.08971e-05
-0.000353012
-5.37522e-06
-0.000333764
-3.75659e-05
-0.000313004
-7.21139e-05
-0.000286981
-0.000108218
-0.000253298
-0.000142086
-0.000213052
-0.000167544
-0.000171748
-0.00017774
-0.000131889
-0.000174247
-9.70109e-05
-0.00015949
-6.89389e-05
-0.000137717
-4.85016e-05
-0.000110163
-3.61299e-05
-7.95871e-05
-3.15631e-05
-4.79679e-05
-3.53749e-05
-1.5564e-05
-4.74001e-05
1.46417e-05
-6.64695e-05
3.93969e-05
-8.98435e-05
5.50095e-05
-0.000114042
5.95294e-05
-0.000136175
5.41918e-05
-0.000153668
4.00246e-05
-0.000166181
2.08186e-05
-0.000173147
-2.72866e-06
-0.00017599
-2.52345e-05
-0.000176274
-4.69457e-05
-0.000175159
-6.8634e-05
-0.000172823
-9.18453e-05
-0.000168301
-0.000118203
-0.000158861
-0.000149379
-0.000140437
-0.000186095
-0.000110432
-0.000225412
-6.79154e-05
-0.00026361
-1.48702e-05
-0.000294242
3.78568e-05
-0.000296985
7.92934e-05
-0.000268242
0.00011115
-0.000240773
0.000136942
-0.000215927
0.000157586
-0.000188357
0.000172793
-0.000156812
0.000183023
-0.000123127
0.000188483
-8.92535e-05
0.00018878
-5.57337e-05
0.000183033
-2.3229e-05
0.000169958
8.02963e-06
0.000152158
3.30166e-05
0.000129354
5.24429e-05
0.000103246
6.45402e-05
7.57995e-05
6.80519e-05
4.99835e-05
6.11457e-05
2.91487e-05
4.26959e-05
1.60559e-05
1.44289e-05
1.24991e-05
-2.07861e-05
1.83134e-05
-5.80145e-05
3.30069e-05
-9.4217e-05
5.60003e-05
-0.000127881
8.7134e-05
-0.00015794
0.00012437
-0.000180946
0.000166541
-0.000197204
0.000211603
-0.000204102
0.000256047
-0.000197008
0.000295563
-0.000174947
0.000329251
-0.000142148
0.000358371
-0.00010483
0.000385445
-6.59225e-05
0.000415216
-2.62972e-05
0.000453218
1.44713e-05
0.00050431
6.02678e-05
0.000553195
0.00013808
0.000446252
0.000431853
9.41505e-05
0.000848992
-0.000178133
0.000782403
-0.000117619
0.000362217
0.000274094
0.000278018
-6.67194e-05
0.000666491
-0.000202936
0.000647341
0.000691651
0.000142692
0.00137218
-0.000326893
0.000986819
-0.000466346
0.000263331
-0.000455817
3.02979e-05
-0.000422514
-1.24056e-05
-0.000397269
-3.06209e-05
-0.000379201
-5.56331e-05
-0.000361144
-9.01711e-05
-0.000333815
-0.000135547
-0.000290057
-0.000185844
-0.000234441
-0.00022316
-0.000179573
-0.000232608
-0.000131931
-0.000221889
-8.92212e-05
-0.0002022
-5.35567e-05
-0.000173381
-2.72621e-05
-0.000136457
-1.13279e-05
-9.55206e-05
-5.04793e-06
-5.42479e-05
-8.82351e-06
-1.17885e-05
-2.4917e-05
3.07345e-05
-5.12339e-05
6.57139e-05
-8.47051e-05
8.84812e-05
-0.000119351
9.41757e-05
-0.000149593
8.4433e-05
-0.000172429
6.28594e-05
-0.000185701
3.40898e-05
-0.000192492
4.06227e-06
-0.000194838
-2.28897e-05
-0.000195612
-4.61732e-05
-0.000196603
-6.76447e-05
-0.000197815
-9.06337e-05
-0.000196579
-0.00011944
-0.000186824
-0.000159133
-0.000163015
-0.000209905
-0.000125056
-0.000263371
-7.68788e-05
-0.000311787
-2.11513e-05
-0.00034997
3.6006e-05
-0.000354143
8.59086e-05
-0.000318145
0.00012731
-0.000282175
0.00016147
-0.000250087
0.00018791
-0.000214797
0.000205339
-0.000174241
0.000214721
-0.000132509
0.000218373
-9.29065e-05
0.000216567
-5.39276e-05
0.000207329
-1.39904e-05
0.000191134
2.42243e-05
0.00016878
5.53713e-05
0.000141307
7.99157e-05
0.000107729
9.8118e-05
7.00961e-05
0.000105685
3.39885e-05
9.7253e-05
4.93242e-06
7.17519e-05
-1.20584e-05
3.14196e-05
-1.52245e-05
-1.76205e-05
-6.45619e-06
-6.67839e-05
1.1563e-05
-0.000112237
4.06366e-05
-0.000156955
7.77711e-05
-0.000195074
0.000120122
-0.000223296
0.0001679
-0.000244981
0.00022692
-0.000263119
0.000290294
-0.000260382
0.000343619
-0.000228272
0.00038112
-0.000179648
0.000409903
-0.000133612
0.00044001
-9.60299e-05
0.000479449
-6.5736e-05
0.000534611
-4.06909e-05
0.000590529
4.35082e-06
0.000529662
0.000198947
0.000119791
0.000841722
-0.000463094
0.0014138
-0.000568883
0.000873456
-0.000237495
1.60925e-05
3.6489e-05
0.000393779
-0.000460473
0.000656945
-0.000466075
0.000635647
0.000698845
0.000349878
0.00165629
-0.000104866
0.00139499
-0.000381566
0.000538493
-0.000451759
0.000100491
-0.000445463
-1.87007e-05
-0.000434202
-4.18811e-05
-0.000427971
-6.18646e-05
-0.000412737
-0.000105404
-0.000369676
-0.000178608
-0.000293328
-0.000262191
-0.000202824
-0.000313664
-0.000129896
-0.000305536
-8.2664e-05
-0.000269121
-4.77028e-05
-0.000237161
-1.65825e-05
-0.000204501
7.7529e-06
-0.000160792
2.62848e-05
-0.000114053
3.44629e-05
-6.24266e-05
2.80642e-05
-5.38966e-06
5.94766e-06
5.28519e-05
-3.14937e-05
0.000103155
-7.76298e-05
0.000134617
-0.000121869
0.000138414
-0.000157025
0.00011959
-0.000180348
8.61823e-05
-0.000193503
4.72456e-05
-0.000200907
1.1465e-05
-0.00020539
-1.84068e-05
-0.000209149
-4.2413e-05
-0.000212039
-6.47549e-05
-0.000211185
-9.14869e-05
-0.000202674
-0.000127951
-0.000180865
-0.000180942
-0.000144501
-0.000246269
-0.000102374
-0.000305498
-6.34748e-05
-0.000350686
-2.76552e-05
-0.00038579
1.15966e-05
-0.000393396
5.46979e-05
-0.000361247
0.000100325
-0.000327803
0.000148177
-0.00029794
0.000193856
-0.000260477
0.000229433
-0.000209818
0.000248247
-0.000151323
0.000251457
-9.61166e-05
0.000242284
-4.47551e-05
0.000221897