/*--------------------------------*- C++ -*----------------------------------*\
| =========                 |                                                 |
| \\      /  F ield         | OpenFOAM: The Open Source CFD Toolbox           |
|  \\    /   O peration     | Version:  2412                                  |
|   \\  /    A nd           | Website:  www.openfoam.com                      |
|    \\/     M anipulation  |                                                 |
\*---------------------------------------------------------------------------*/
FoamFile
{
    version     2.0;
    format      ascii;
    arch        "LSB;label=32;scalar=64";
    class       surfaceScalarField;
    location    "9.55";
    object      alphaPhi0.gasoline;
}
// * * * * * * * * * * * * * * * * * * * * * * * * * * * * * * * * * * * * * //

dimensions      [0 3 -1 0 0 0 0];

oriented        oriented;

internalField   nonuniform List<scalar> 
12640
(
7.75365e-06
-7.75358e-06
1.61774e-05
-8.41562e-06
2.61666e-05
-9.98966e-06
3.70244e-05
-1.086e-05
4.74227e-05
-1.03998e-05
5.61391e-05
-8.71689e-06
6.23675e-05
-6.22852e-06
6.56723e-05
-3.30491e-06
6.60404e-05
-3.6812e-07
6.36867e-05
2.35368e-06
5.90087e-05
4.67794e-06
5.23911e-05
6.61757e-06
4.43012e-05
8.09048e-06
3.51596e-05
9.14172e-06
2.53991e-05
9.76098e-06
1.52831e-05
1.01162e-05
5.12171e-06
1.01623e-05
-4.79947e-06
9.92238e-06
-1.42671e-05
9.46852e-06
-2.30811e-05
8.8143e-06
-3.10679e-05
7.98683e-06
-3.80932e-05
7.02502e-06
-4.40421e-05
5.94817e-06
-4.88147e-05
4.77168e-06
-5.2429e-05
3.61348e-06
-5.48261e-05
2.39637e-06
-5.60736e-05
1.24702e-06
-5.62154e-05
1.42069e-07
-5.5309e-05
-9.06093e-07
-5.34332e-05
-1.8754e-06
-5.06905e-05
-2.74229e-06
-4.71513e-05
-3.53846e-06
-4.2901e-05
-4.24919e-06
-3.80297e-05
-4.87008e-06
-3.26087e-05
-5.41985e-06
-2.67426e-05
-5.86477e-06
-2.05059e-05
-6.2351e-06
-1.39577e-05
-6.54638e-06
-7.17227e-06
-6.78388e-06
-2.4284e-07
-6.92864e-06
6.74137e-06
-6.98379e-06
1.37116e-05
-6.96976e-06
2.05652e-05
-6.85303e-06
2.7209e-05
-6.64332e-06
3.35474e-05
-6.33772e-06
3.94942e-05
-5.9461e-06
4.49293e-05
-5.43467e-06
4.97273e-05
-4.79767e-06
5.38061e-05
-4.07854e-06
5.70312e-05
-3.22494e-06
5.92843e-05
-2.25302e-06
6.04668e-05
-1.18257e-06
6.04818e-05
-1.50179e-08
5.92544e-05
1.22748e-06
5.67544e-05
2.49999e-06
5.28971e-05
3.85746e-06
4.77739e-05
5.12316e-06
4.13618e-05
6.41214e-06
3.38055e-05
7.55621e-06
2.51885e-05
8.61695e-06
1.56992e-05
9.48958e-06
5.52526e-06
1.01745e-05
-5.09805e-06
1.06239e-05
-1.59112e-05
1.08134e-05
-2.66099e-05
1.06987e-05
-3.69214e-05
1.03114e-05
-4.64945e-05
9.57354e-06
-5.50162e-05
8.52269e-06
-6.1923e-05
6.90788e-06
-6.67782e-05
4.85549e-06
-6.91709e-05
2.39204e-06
-6.87733e-05
-3.97917e-07
-6.52944e-05
-3.47832e-06
-5.86872e-05
-6.60653e-06
-4.95032e-05
-9.18396e-06
-3.86466e-05
-1.08569e-05
-2.73441e-05
-1.13021e-05
-1.69118e-05
-1.04323e-05
-8.20631e-06
-8.7074e-06
-8.20567e-06
6.96165e-06
-1.47238e-05
1.60514e-05
-1.75063e-05
2.91314e-05
-2.30696e-05
4.4468e-05
-2.61971e-05
5.98571e-05
-2.57897e-05
7.3116e-05
-2.19764e-05
8.26987e-05
-1.58116e-05
8.78325e-05
-8.43878e-06
8.8529e-05
-1.0647e-06
8.52224e-05
5.66059e-06
7.86133e-05
1.12872e-05
6.95115e-05
1.57192e-05
5.858e-05
1.90228e-05
4.64335e-05
2.12889e-05
3.34919e-05
2.27043e-05
2.02732e-05
2.33359e-05
7.13441e-06
2.33017e-05
-5.5362e-06
2.2594e-05
-1.7463e-05
2.1396e-05
-2.84247e-05
1.97759e-05
-3.82511e-05
1.78127e-05
-4.67846e-05
1.5558e-05
-5.39118e-05
1.3075e-05
-5.96046e-05
1.04641e-05
-6.38206e-05
7.82974e-06
-6.66355e-05
5.21167e-06
-6.80479e-05
2.65997e-06
-6.81614e-05
2.55898e-07
-6.70607e-05
-2.00677e-06
-6.48529e-05
-4.08286e-06
-6.16134e-05
-5.98111e-06
-5.74657e-05
-7.68538e-06
-5.25022e-05
-9.21181e-06
-4.68082e-05
-1.05631e-05
-4.05009e-05
-1.17258e-05
-3.36645e-05
-1.26998e-05
-2.63709e-05
-1.35278e-05
-1.86965e-05
-1.42205e-05
-1.07467e-05
-1.47334e-05
-2.61113e-06
-1.50639e-05
5.60492e-06
-1.51993e-05
1.37896e-05
-1.51538e-05
2.18275e-05
-1.48903e-05
2.96141e-05
-1.44293e-05
3.70415e-05
-1.37644e-05
4.39973e-05
-1.29013e-05
5.03633e-05
-1.18001e-05
5.60278e-05
-1.04617e-05
6.08687e-05
-8.91907e-06
6.47451e-05
-7.10111e-06
6.75104e-05
-5.01813e-06
6.9053e-05
-2.72499e-06
6.92616e-05
-2.23469e-07
6.80312e-05
2.45798e-06
6.5274e-05
5.25734e-06
6.09843e-05
8.1472e-06
5.50788e-05
1.10286e-05
4.76717e-05
1.3819e-05
3.87317e-05
1.64962e-05
2.84256e-05
1.89234e-05
1.68888e-05
2.10271e-05
4.33916e-06
2.27251e-05
-8.95365e-06
2.39174e-05
-2.26723e-05
2.45322e-05
-3.64602e-05
2.44867e-05
-4.99337e-05
2.37857e-05
-6.26135e-05
2.2255e-05
-7.38841e-05
1.97947e-05
-8.31782e-05
1.62026e-05
-8.98312e-05
1.15081e-05
-9.30974e-05
5.65812e-06
-9.22405e-05
-1.25376e-06
-8.67166e-05
-9.00105e-06
-7.66151e-05
-1.6708e-05
-6.26548e-05
-2.3145e-05
-4.65255e-05
-2.69865e-05
-3.05117e-05
-2.73164e-05
-1.68985e-05
-2.40482e-05
-7.27558e-06
-1.833e-05
-1.5484e-05
8.02516e-06
-2.27494e-05
1.90932e-05
-2.85764e-05
3.50209e-05
-3.89981e-05
5.42317e-05
-4.54085e-05
7.41925e-05
-4.57509e-05
9.20022e-05
-3.97865e-05
0.000105272
-2.90818e-05
0.000112948
-1.61151e-05
0.000115003
-3.12026e-06
0.000112111
8.5523e-06
0.000105171
1.82282e-05
9.51232e-05
2.57668e-05
8.28986e-05
3.12474e-05
6.91456e-05
3.50416e-05
5.45347e-05
3.73162e-05
3.95831e-05
3.82882e-05
2.4758e-05
3.81266e-05
1.03986e-05
3.69533e-05
-3.14368e-06
3.49393e-05
-1.56348e-05
3.22686e-05
-2.6878e-05
2.90574e-05
-3.67258e-05
2.54075e-05
-4.50801e-05
2.1431e-05
-5.18849e-05
1.72702e-05
-5.71228e-05
1.30676e-05
-6.08416e-05
8.92927e-06
-6.311e-05
4.92674e-06
-6.40009e-05
1.14563e-06
-6.3633e-05
-2.37585e-06
-6.20899e-05
-5.62696e-06
-5.94764e-05
-8.59615e-06
-5.58966e-05
-1.12668e-05
-5.14628e-05
-1.36476e-05
-4.62646e-05
-1.57637e-05
-4.03756e-05
-1.76176e-05
-3.39026e-05
-1.91756e-05
-2.6921e-05
-2.05112e-05
-1.9532e-05
-2.16101e-05
-1.17995e-05
-2.24657e-05
-3.86306e-06
-2.3e-05
4.16191e-06
-2.3224e-05
1.21477e-05
-2.31393e-05
1.99711e-05
-2.27136e-05
2.75084e-05
-2.19663e-05
3.46392e-05
-2.08948e-05
4.12592e-05
-1.95206e-05
4.72506e-05
-1.7791e-05
5.2486e-05
-1.56966e-05
5.68347e-05
-1.32673e-05
6.01397e-05
-1.04058e-05
6.2311e-05
-7.18918e-06
6.31962e-05
-3.60997e-06
6.26893e-05
2.83626e-07
6.06907e-05
4.45674e-06
5.70709e-05
8.87729e-06
5.18096e-05
1.34086e-05
4.48586e-05
1.79795e-05
3.6229e-05
2.24486e-05
2.6019e-05
2.67065e-05
1.43269e-05
3.06163e-05
1.294e-06
3.4061e-05
-1.28497e-05
3.68696e-05
-2.77897e-05
3.88577e-05
-4.31908e-05
3.99336e-05
-5.86754e-05
3.99717e-05
-7.37881e-05
3.88998e-05
-8.79904e-05
3.64589e-05
-0.000100559
3.23642e-05
-0.000110805
2.64491e-05
-0.000117809
1.85124e-05
-0.000120582
8.43169e-06
-0.000118142
-3.69328e-06
-0.000109916
-1.72276e-05
-9.59325e-05
-3.06925e-05
-7.73393e-05
-4.17393e-05
-5.64983e-05
-4.78278e-05
-3.64777e-05
-4.73389e-05
-1.99251e-05
-4.06028e-05
-8.34479e-06
-2.99098e-05
-2.38303e-05
8.12717e-06
-3.08757e-05
1.95945e-05
-4.0045e-05
3.70449e-05
-5.64493e-05
5.95526e-05
-6.79168e-05
8.40901e-05
-7.02888e-05
0.000106492
-6.21889e-05
0.000123213
-4.58037e-05
0.000132637
-2.5539e-05
0.000135202
-5.68521e-06
0.00013188
1.18734e-05
0.000123968
2.61395e-05
0.000112741
3.69946e-05
9.90977e-05
4.48912e-05
8.39509e-05
5.01878e-05
6.79366e-05
5.33296e-05
5.16785e-05
5.45472e-05
3.55946e-05
5.42114e-05
2.00642e-05
5.2484e-05
5.41719e-06
4.95866e-05
-8.07533e-06
4.57618e-05
-2.02181e-05
4.12008e-05
-3.0852e-05
3.60415e-05
-3.98915e-05
3.04701e-05
-4.72952e-05
2.46735e-05
-5.30694e-05
1.88415e-05
-5.72408e-05
1.31004e-05
-5.99269e-05
7.61269e-06
-6.11924e-05
2.41056e-06
-6.11542e-05
-2.41475e-06
-5.99254e-05
-6.85658e-06
-5.7656e-05
-1.08664e-05
-5.44368e-05
-1.44865e-05
-5.03607e-05
-1.77237e-05
-4.55082e-05
-2.06156e-05
-3.99693e-05
-2.31551e-05
-3.38048e-05
-2.53381e-05
-2.70827e-05
-2.72313e-05
-1.99e-05
-2.87909e-05
-1.23657e-05
-2.99987e-05
-4.5694e-06
-3.07956e-05
3.32983e-06
-3.11228e-05
1.11802e-05
-3.09893e-05
1.88536e-05
-3.03866e-05
2.62126e-05
-2.93252e-05
3.31656e-05
-2.78478e-05
3.95748e-05
-2.593e-05
4.53298e-05
-2.35461e-05
5.03333e-05
-2.07001e-05
5.44173e-05
-1.73511e-05
5.74707e-05
-1.34589e-05
5.9349e-05
-9.06717e-06
5.99417e-05
-4.20237e-06
5.91094e-05
1.11641e-06
5.67487e-05
6.81814e-06
5.27131e-05
1.29135e-05
4.69201e-05
1.92022e-05
3.93591e-05
2.55409e-05
3.00194e-05
3.17887e-05
1.89754e-05
3.77509e-05
6.33464e-06
4.32577e-05
-7.74025e-06
4.81366e-05
-2.30242e-05
5.2154e-05
-3.92127e-05
5.5046e-05
-5.59175e-05
5.66383e-05
-7.27549e-05
5.68094e-05
-8.9225e-05
5.53706e-05
-0.00010479
5.20245e-05
-0.000118783
4.6358e-05
-0.000130284
3.79491e-05
-0.000138267
2.64957e-05
-0.000141416
1.15814e-05
-0.000138465
-6.64439e-06
-0.000128381
-2.73122e-05
-0.000110809
-4.82652e-05
-8.74153e-05
-6.51324e-05
-6.18744e-05
-7.33686e-05
-3.85034e-05
-7.07116e-05
-2.04241e-05
-5.86782e-05
-8.46769e-06
-4.18666e-05
-3.22963e-05
7.47263e-06
-3.8348e-05
1.87667e-05
-5.13399e-05
3.85946e-05
-7.62777e-05
6.65156e-05
-9.58381e-05
9.74608e-05
-0.000101234
0.000124889
-8.96174e-05
0.000144153
-6.50681e-05
0.00015401
-3.53968e-05
0.000155293
-6.96738e-06
0.000149895
1.7271e-05
0.000139535
3.64984e-05
0.000125932
5.05975e-05
0.000110138
6.06855e-05
9.3044e-05
6.72824e-05
7.53197e-05
7.10531e-05
5.75107e-05
7.23552e-05
4.00458e-05
7.16758e-05
2.33014e-05
6.9228e-05
7.60344e-06
6.52838e-05
-6.81344e-06
6.01783e-05
-1.96838e-05
5.40713e-05
-3.08916e-05
4.72499e-05
-4.0355e-05
3.99342e-05
-4.805e-05
3.23689e-05
-5.39906e-05
2.47823e-05
-5.82409e-05
1.73505e-05
-6.09393e-05
1.03117e-05
-6.21403e-05
3.61286e-06
-6.20279e-05
-2.52462e-06
-6.07497e-05
-8.13113e-06
-5.84017e-05
-1.321e-05
-5.51289e-05
-1.77545e-05
-5.10394e-05
-2.18081e-05
-4.62107e-05
-2.54396e-05
-4.07015e-05
-2.86609e-05
-3.45644e-05
-3.14734e-05
-2.7851e-05
-3.39442e-05
-2.06188e-05
-3.6023e-05
-1.29829e-05
-3.76346e-05
-5.07426e-06
-3.87039e-05
2.97032e-06
-3.91669e-05
1.09691e-05
-3.89877e-05
1.87817e-05
-3.81993e-05
2.62748e-05
-3.68186e-05
3.33373e-05
-3.49107e-05
3.98703e-05
-3.24633e-05
4.57709e-05
-2.94469e-05
5.09076e-05
-2.58368e-05
5.51495e-05
-2.1593e-05
5.8364e-05
-1.66733e-05
6.04095e-05
-1.11125e-05
6.11454e-05
-4.93809e-06
6.04321e-05
1.83015e-06
5.8098e-05
9.15276e-06
5.40033e-05
1.70087e-05
4.80218e-05
2.5184e-05
4.01187e-05
3.34444e-05
3.02891e-05
4.16186e-05
1.85869e-05
4.94535e-05
5.12506e-06
5.672e-05
-9.93416e-06
6.31961e-05
-2.63376e-05
6.85572e-05
-4.37969e-05
7.25049e-05
-6.19542e-05
7.47951e-05
-8.04108e-05
7.52661e-05
-9.87152e-05
7.36753e-05
-0.00011634
6.96493e-05
-0.000132581
6.25986e-05
-0.000146559
5.19261e-05
-0.000156995
3.69326e-05
-0.000162227
1.68142e-05
-0.00016055
-8.32152e-06
-0.000150268
-3.75951e-05
-0.000130464
-6.80686e-05
-0.000102189
-9.34066e-05
-7.00165e-05
-0.000105541
-4.06092e-05
-0.000100117
-1.96417e-05
-7.96426e-05
-7.82526e-06
-5.36844e-05
-4.01201e-05
7.40521e-06
-4.57535e-05
2.26979e-05
-6.66331e-05
5.37002e-05
-0.00010728
9.62599e-05
-0.000138398
0.000137493
-0.000142468
0.000166598
-0.000118722
0.000181365
-7.98351e-05
0.000184822
-3.88543e-05
0.000180614
-2.75983e-06
0.000170437
2.74482e-05
0.000155923
5.1012e-05
0.000138371
6.81492e-05
0.000119299
7.97558e-05
9.94403e-05
8.71412e-05
7.93699e-05
9.11239e-05
5.95183e-05
9.22069e-05
4.034e-05
9.08538e-05
2.20991e-05
8.74692e-05
5.13176e-06
8.22513e-05
-1.02893e-05
7.5599e-05
-2.39253e-05
6.77068e-05
-3.56844e-05
5.90085e-05
-4.54709e-05
4.97208e-05
-5.32747e-05
4.01739e-05
-5.91678e-05
3.06776e-05
-6.32255e-05
2.14107e-05
-6.55681e-05
1.26574e-05
-6.64017e-05
4.44874e-06
-6.5885e-05
-3.03967e-06
-6.41449e-05
-9.87024e-06
-6.14077e-05
-1.5947e-05
-5.77836e-05
-2.13786e-05
-5.3389e-05
-2.6203e-05
-4.83082e-05
-3.05207e-05
-4.25891e-05
-3.43805e-05
-3.62399e-05
-3.7823e-05
-2.92937e-05
-4.08903e-05
-2.17944e-05
-4.35218e-05
-1.38375e-05
-4.5591e-05
-5.5618e-06
-4.69794e-05
2.85426e-06
-4.7583e-05
1.12332e-05
-4.73669e-05
1.94235e-05
-4.63902e-05
2.7294e-05
-4.46896e-05
3.47415e-05
-4.23584e-05
4.1678e-05
-3.93997e-05
4.80102e-05
-3.57789e-05
5.36213e-05
-3.14476e-05
5.83855e-05
-2.6357e-05
6.21581e-05
-2.04456e-05
6.47596e-05
-1.37136e-05
6.6015e-05
-6.19279e-06
6.57649e-05
2.08108e-06
6.37573e-05
1.11613e-05
5.98325e-05
2.09342e-05
5.38935e-05
3.11236e-05
4.58207e-05
4.15174e-05
3.55927e-05
5.18466e-05
2.32418e-05
6.18043e-05
8.87835e-06
7.10833e-05
-7.30501e-06
7.93795e-05
-2.508e-05
8.63325e-05
-4.41382e-05
9.15632e-05
-6.41693e-05
9.48261e-05
-8.47438e-05
9.58405e-05
-0.000105503
9.44341e-05
-0.000126017
9.0162e-05
-0.000145692
8.22734e-05
-0.000163673
6.99066e-05
-0.000178544
5.18047e-05
-0.000188893
2.71634e-05
-0.000193436
-3.77985e-06
-0.000190778
-4.02533e-05
-0.000176949
-8.1895e-05
-0.000147663
-0.000122692
-0.000104688
-0.000148517
-5.90109e-05
-0.000145792
-2.48398e-05
-0.000113815
-8.0288e-06
-7.04945e-05
-4.81489e-05
1.18945e-05
-5.76483e-05
4.53635e-05
-0.000100102
0.000108327
-0.000170244
0.00018125
-0.00021132
0.000237754
-0.000198972
0.000262436
-0.000143403
0.000257816
-7.52148e-05
0.000238122
-1.91606e-05
0.000216979
1.83818e-05
0.0001962
4.82267e-05
0.000174356
7.28554e-05
0.000151459
9.10475e-05
0.00012808
0.000103134
0.000104718
0.000110502
8.17632e-05
0.000114079
5.94762e-05
0.000114494
3.81321e-05
0.000112198
1.81064e-05
0.000107495
-3.65934e-07
0.000100724
-1.69696e-05
9.22027e-05
-3.15065e-05
8.22438e-05
-4.38326e-05
7.1335e-05
-5.38966e-05
5.97855e-05
-6.16786e-05
4.79567e-05
-6.73149e-05
3.63143e-05
-7.09479e-05
2.50433e-05
-7.2722e-05
1.44299e-05
-7.28856e-05
4.60993e-06
-7.16251e-05
-4.3032e-06
-6.92257e-05
-1.22729e-05
-6.58284e-05
-1.93473e-05
-6.16173e-05
-2.55924e-05
-5.67174e-05
-3.11048e-05
-5.12197e-05
-3.60193e-05
-4.5154e-05
-4.04464e-05
-3.84852e-05
-4.44918e-05
-3.11919e-05
-4.81833e-05
-2.33039e-05
-5.14093e-05
-1.48984e-05
-5.39962e-05
-6.12247e-06
-5.57553e-05
2.81852e-06
-5.65239e-05
1.17147e-05
-5.62628e-05
2.04196e-05
-5.50946e-05
2.87913e-05
-5.30607e-05
3.67642e-05
-5.03307e-05
4.42875e-05
-4.69224e-05
5.12771e-05
-4.27678e-05
5.76108e-05
-3.77806e-05
6.31828e-05
-3.19283e-05
6.77997e-05
-2.5062e-05
7.12705e-05
-1.71839e-05
7.33718e-05
-8.29365e-06
7.38215e-05
1.63203e-06
7.24272e-05
1.25561e-05
6.89333e-05
2.44287e-05
6.31836e-05
3.68735e-05
5.50295e-05
4.96716e-05
4.4419e-05
6.2457e-05
3.13677e-05
7.48556e-05
1.59678e-05
8.64835e-05
-1.56478e-06
9.69124e-05
-2.09984e-05
0.000105766
-4.20284e-05
0.000112593
-6.43075e-05
0.000117105
-8.75507e-05
0.000119084
-0.000111325
0.000118208
-0.000135451
0.000114288
-0.000159553
0.000106375
-0.000183161
9.35144e-05
-0.000205701
7.43445e-05
-0.000227719
4.91814e-05
-0.000251127
1.96275e-05
-0.000273898
-1.74823e-05
-0.00028176
-7.40326e-05
-0.000258268
-0.000146186
-0.000199125
-0.00020766
-0.000120468
-0.00022445
-5.10908e-05
-0.000183194
-1.29212e-05
-0.000108663
-6.10706e-05
2.46586e-05
-8.2307e-05
9.84568e-05
-0.0001739
0.000210084
-0.000281871
0.000318194
-0.000319429
0.000389383
-0.000270162
0.000408549
-0.00016257
0.000379309
-4.59738e-05
0.000324634
3.5515e-05
0.000270123
7.28916e-05
0.000228126
9.02229e-05
0.000194786
0.000106193
0.000164866
0.000120968
0.000136527
0.000131472
0.000109284
0.000137744
8.30782e-05
0.000140284
5.79865e-05
0.000139585
3.42398e-05
0.000135944
1.2097e-05
0.000129637
-8.159e-06
0.000120979
-2.61522e-05
0.000110196
-4.17037e-05
9.77961e-05
-5.46216e-05
8.42534e-05
-6.48779e-05
7.00411e-05
-7.25695e-05
5.56471e-05
-7.77641e-05
4.15069e-05
-8.07319e-05
2.80097e-05
-8.16387e-05
1.53356e-05
-8.08663e-05
3.83729e-06
-7.86526e-05
-6.51593e-06
-7.5274e-05
-1.56501e-05
-7.09833e-05
-2.36366e-05
-6.60104e-05
-3.05643e-05
-6.0489e-05
-3.66256e-05
-5.45024e-05
-4.20055e-05
-4.80475e-05
-4.69009e-05
-4.1059e-05
-5.14803e-05
-3.34374e-05
-5.58048e-05
-2.51377e-05
-5.97089e-05
-1.6179e-05
-6.29546e-05
-6.77715e-06
-6.51568e-05
2.82532e-06
-6.61259e-05
1.23556e-05
-6.57927e-05
2.15865e-05
-6.43252e-05
3.05084e-05
-6.19822e-05
3.9073e-05
-5.88949e-05
4.72499e-05
-5.50989e-05
5.49994e-05
-5.0517e-05
6.22702e-05
-4.50511e-05
6.88541e-05
-3.8512e-05
7.45995e-05
-3.08074e-05
7.92271e-05
-2.18114e-05
8.24411e-05
-1.15075e-05
8.39411e-05
1.32316e-07
8.33979e-05
1.30996e-05
8.05819e-05
2.72448e-05
7.52075e-05
4.22479e-05
6.70613e-05
5.78175e-05
5.60879e-05
7.34301e-05
4.22604e-05
8.86828e-05
2.56807e-05
0.000103063
6.53972e-06
0.000116054
-1.48769e-05
0.000127183
-3.82121e-05
0.000135928
-6.31669e-05
0.00014206
-8.93428e-05
0.000145259
-0.00011651
0.000145374
-0.00014463
0.000142408
-0.000173849
0.000135594
-0.000204583
0.000124248
-0.000239453
0.000109213
-0.000284146
9.38724e-05
-0.000342649
7.81289e-05
-0.000402221
4.20897e-05
-0.000436133
-4.01218e-05
-0.000419129
-0.000163189
-0.000345554
-0.000281234
-0.000230409
-0.000339595
-0.000108946
-0.000304655
-2.72477e-05
-0.00019036
-8.83179e-05
5.01897e-05
-0.000132497
0.000175709
-0.000299418
0.000324337
-0.000430499
0.000445638
-0.00044073
0.000517557
-0.00034208
0.000532629
-0.000177642
0.000491514
-4.85818e-06
0.000412022
0.000115007
0.000328235
0.000156678
0.000262037
0.00015642
0.000214305
0.000153925
0.000176871
0.000158401
0.000143672
0.00016467
0.00011263
0.000168784
8.32093e-05
0.000169704
5.51018e-05
0.000167692
2.85648e-05
0.000162481
3.96297e-06
0.000154239
-1.82622e-05
0.000143205
-3.78369e-05
0.000129772
-5.44851e-05
0.000114445
-6.80357e-05
9.78043e-05
-7.84538e-05
8.04596e-05
-8.58323e-05
6.30271e-05
-9.0375e-05
4.60517e-05
-9.23617e-05
2.99999e-05
-9.2158e-05
1.51361e-05
-9.00796e-05
1.76313e-06
-8.65344e-05
-1.00572e-05
-8.18827e-05
-2.02986e-05
-7.64649e-05
-2.90521e-05
-7.05492e-05
-3.64789e-05
-6.43176e-05
-4.28567e-05
-5.78381e-05
-4.8485e-05
-5.10519e-05
-5.36876e-05
-4.38365e-05
-5.86963e-05
-3.59848e-05
-6.36571e-05
-2.72854e-05
-6.84085e-05
-1.77422e-05
-7.24981e-05
-7.54845e-06
-7.53507e-05
2.86033e-06
-7.65347e-05
1.30894e-05
-7.60217e-05
2.2871e-05
-7.41067e-05
3.22672e-05
-7.1378e-05
4.13828e-05
-6.80099e-05
5.02666e-05
-6.39819e-05
5.89194e-05
-5.91689e-05
6.72539e-05
-5.33849e-05
7.51284e-05
-4.63862e-05
8.22633e-05
-3.79421e-05
8.83707e-05
-2.79188e-05
9.30515e-05
-1.61885e-05
9.59067e-05
-2.72286e-06
9.65916e-05
1.24147e-05
9.47228e-05
2.91135e-05
8.98777e-05
4.70928e-05
8.19222e-05
6.57726e-05
7.06245e-05
8.47275e-05
5.59506e-05
0.000103356
3.80041e-05
0.000121009
1.70079e-05
0.00013705
-6.66105e-06
0.000150852
-3.26825e-05
0.00016195
-6.0548e-05
0.000169925
-8.98915e-05
0.000174602
-0.000120535
0.000176018
-0.00015254
0.000174413
-0.000186568
0.000169622
-0.000225304
0.000162983
-0.000274991
0.000158901
-0.000343711
0.000162592
-0.000430105
0.000164523
-0.00051258
0.000124567
-0.000558722
6.02709e-06
-0.000546993
-0.000174915
-0.000474176
-0.000354051
-0.000348203
-0.000465569
-0.000191401
-0.000461457
-5.5417e-05
-0.000326346
-0.000143736
8.46856e-05
-0.000217182
0.000242905
-0.000457637
0.000387535
-0.000575128
0.00048932
-0.000542514
0.00054586
-0.00039862
0.000555772
-0.000187591
0.000517948
3.29589e-05
0.000444737
0.000188243
0.000358961
0.000242454
0.000284141
0.00023124
0.00022803
0.000210035
0.000185144
0.000201286
0.000148465
0.00020135
0.000114342
0.000202908
8.16801e-05
0.000202366
5.04282e-05
0.000198944
2.08726e-05
0.000192036
-6.40944e-06
0.000181521
-3.10094e-05
0.000167806
-5.24044e-05
0.000151168
-7.02699e-05
0.000132312
-8.44313e-05
0.000111969
-9.48875e-05
9.09191e-05
-0.000101743
6.98852e-05
-0.000105334
4.96454e-05
-0.000105977
3.06448e-05
-0.000104193
1.33532e-05
-0.000100401
-2.02941e-06
-9.51142e-05
-1.53449e-05
-8.88231e-05
-2.65906e-05
-8.19652e-05
-3.59106e-05
-7.48827e-05
-4.35622e-05
-6.78212e-05
-4.9919e-05
-6.08618e-05
-5.54453e-05
-5.39161e-05
-6.06339e-05
-4.66835e-05
-6.59294e-05
-3.87707e-05
-7.15701e-05
-2.97713e-05
-7.74079e-05
-1.95649e-05
-8.27046e-05
-8.45408e-06
-8.64616e-05
2.89228e-06
-8.78809e-05
1.38282e-05
-8.69572e-05
2.41345e-05
-8.44123e-05
3.39263e-05
-8.11689e-05
4.34699e-05
-7.75525e-05
5.3025e-05
-7.35364e-05
6.26364e-05
-6.87799e-05
7.228e-05
-6.30284e-05
8.17302e-05
-5.58365e-05
9.06564e-05
-4.68687e-05
9.86334e-05
-3.58963e-05
0.000105213
-2.27682e-05
0.000109884
-7.39383e-06
0.000112171
1.01273e-05
0.000111539
2.97453e-05
0.000107632
5.09997e-05
0.00010002
7.33843e-05
8.84539e-05
9.62936e-05
7.28741e-05
0.000118936
5.33862e-05
0.000140498
3.0253e-05
0.000160184
3.89997e-06
0.000177206
-2.51348e-05
0.000190985
-5.62756e-05
0.000201066
-8.89577e-05
0.000207285
-0.000122784
0.000209844
-0.000157787
0.000209417
-0.000195306
0.000207141
-0.000239039
0.000206716
-0.0002962
0.000216062
-0.000371752
0.000238144
-0.000456496
0.000249267
-0.000529382
0.000197569
-0.000568628
4.54042e-05
-0.000561398
-0.000182348
-0.000507111
-0.000408338
-0.000405886
-0.000566792
-0.000258921
-0.000608421
-9.2189e-05
-0.000493076
-0.000235924
0.000111064
-0.000328246
0.000259079
-0.000605652
0.000362838
-0.000678889
0.000425096
-0.000604772
0.00045885
-0.000432375
0.000464883
-0.000193697
0.00044384
5.4001e-05
0.000398437
0.000233716
0.000338883
0.000302013
0.000278982
0.000291141
0.000229106
0.000259912
0.000187371
0.00024302
0.000150074
0.000238647
0.00011398
0.000239002
7.84553e-05
0.000237891
4.3818e-05
0.000233581
1.08467e-05
0.000225008
-1.9734e-05
0.000212103
-4.70217e-05
0.000195094
-7.04849e-05
0.000174632
-8.97015e-05
0.000151529
-0.000104453
0.000126719
-0.000114737
0.000101203
-0.000120782
7.5928e-05
-0.00012296
5.18221e-05
-0.000121776
2.94584e-05
-0.000117821
9.39632e-06
-0.000111779
-8.07265e-06
-0.000104234
-2.2891e-05
-9.57941e-05
-3.50308e-05
-8.70663e-05
-4.46383e-05
-7.85053e-05
-5.21232e-05
-7.04405e-05
-5.79837e-05
-6.29847e-05
-6.29011e-05
-5.59913e-05
-6.76273e-05
-4.89787e-05
-7.29422e-05
-4.12485e-05
-7.93005e-05
-3.21692e-05
-8.64874e-05
-2.15074e-05
-9.33664e-05
-9.66462e-06
-9.83043e-05
2.46435e-06
-0.00010001
1.40066e-05
-9.84991e-05
2.47491e-05
-9.51542e-05
3.48744e-05
-9.12938e-05
4.47652e-05
-8.74429e-05
5.49623e-05
-8.37331e-05
6.56469e-05
-7.94642e-05
7.68172e-05
-7.41986e-05
8.82393e-05
-6.72587e-05
9.94354e-05
-5.80651e-05
0.000109851
-4.63122e-05
0.000118885
-3.1802e-05
0.000125928
-1.4437e-05
0.000130329
5.72658e-06
0.000131561
2.85134e-05
0.000128912
5.36495e-05
0.000121912
8.03842e-05
0.000110227
0.000107979
9.37133e-05
0.000135451
7.24615e-05
0.00016175
4.6822e-05
0.000185823
1.73227e-05
0.000206705
-1.52931e-05
0.0002236
-5.01552e-05
0.000235928
-8.63373e-05
0.000243467
-0.000123078
0.000246584
-0.000159821
0.00024616
-0.000197786
0.000245106
-0.000239738
0.000248668
-0.00028982
0.000266145
-0.000347588
0.000295913
-0.000403321
0.000305017
-0.000444793
0.000239225
-0.00046269
6.32992e-05
-0.000456201
-0.00018884
-0.000425288
-0.000439524
-0.000367816
-0.000624265
-0.000268375
-0.000707865
-0.0001185
-0.000642953
-0.000354426
0.000113449
-0.000441696
0.000215378
-0.000707581
0.00026573
-0.000729241
0.00028871
-0.000627754
0.000301256
-0.000444968
0.000306631
-0.000199073
0.00030701
5.36208e-05
0.000298365
0.00024236
0.000279452
0.000320984
0.000251205
0.000319389
0.000218345
0.000292773
0.000184756
0.000276611
0.000149269
0.000274134
0.000112393
0.000275879
7.38537e-05
0.00027643
3.53794e-05
0.000272055
-1.7574e-06
0.000262143
-3.61046e-05
0.000246448
-6.66276e-05
0.000225615
-9.25242e-05
0.000200526
-0.000113228
0.000172232
-0.000128494
0.000141985
-0.000138357
0.000111066
-0.000143117
8.06879e-05
-0.00014332
5.20258e-05
-0.000139625
2.57641e-05
-0.000132888
2.66145e-06
-0.000123851
-1.71092e-05
-0.000113339
-3.34016e-05
-0.000102109
-4.62602e-05
-9.09155e-05
-5.58309e-05
-8.04309e-05
-6.26071e-05
-7.10414e-05
-6.73726e-05
-6.29592e-05
-7.0983e-05
-5.58421e-05
-7.47442e-05
-4.91628e-05
-7.96216e-05
-4.188e-05
-8.65831e-05
-3.33014e-05
-9.50658e-05
-2.30763e-05
-0.000103591
-1.15464e-05
-0.000109834
3.87105e-07
-0.000111943
1.18885e-05
-0.00011
2.26365e-05
-0.000105902
3.3008e-05
-0.000101665
4.35624e-05
-9.79971e-05
5.46583e-05
-9.48288e-05
6.68263e-05
-9.16321e-05
7.99868e-05
-8.73592e-05
9.38551e-05
-8.11272e-05
0.000107917
-7.21271e-05
0.000121462
-5.98572e-05
0.000133678
-4.40175e-05
0.000143841
-2.46e-05
0.000151072
-1.50317e-06
0.000154603
2.49833e-05
0.000153748
5.45048e-05
0.00014781
8.63225e-05
0.000136203
0.000119586
0.000118749
0.000152904
9.55489e-05
0.00018495
6.69297e-05
0.000214442
3.37112e-05
0.000239923
-3.18385e-06
0.000260495
-4.24271e-05
0.000275171
-8.26446e-05
0.000283684
-0.000122233
0.000286173
-0.000160114
0.000284041
-0.000195613
0.000280604
-0.000229176
0.00028223
-0.000260234
0.000297203
-0.000286228
0.000321907
-0.00030134
0.000320194
-0.00030366
0.000241743
-0.000297441
5.70774e-05
-0.000288358
-0.000197926
-0.000276408
-0.000451634
-0.000258708
-0.000641967
-0.000215149
-0.000751422
-0.000117619
-0.00074048
-0.000472044
9.19117e-05
-0.000533608
0.000140984
-0.000756654
0.000148482
-0.000736737
0.000141515
-0.000620786
0.000137267
-0.000440749
0.000144194
-0.000206027
0.000165034
3.27795e-05
0.000193103
0.000214359
0.000214021
0.000300086
0.000219021
0.000314391
0.000207608
0.000304186
0.000183407
0.000300814
0.000150981
0.000306561
0.000112036
0.000314823
7.00186e-05
0.000318447
2.66289e-05
0.000315444
-1.55934e-05
0.000304365
-5.46987e-05
0.000285553
-8.9134e-05
0.000260049
-0.0001178
0.000229192
-0.000140115
0.000194547
-0.000155835
0.000157705
-0.000164934
0.000120165
-0.00016789
8.36453e-05
-0.000165453
4.95902e-05
-0.000158373
1.86857e-05
-0.000147981
-7.72932e-06
-0.000135134
-2.99556e-05
-0.000120852
-4.76832e-05
-0.000106175
-6.09373e-05
-9.186e-05
-7.01448e-05
-7.87983e-05
-7.56682e-05
-6.75987e-05
-7.85718e-05
-5.83898e-05
-8.01914e-05
-5.09198e-05
-8.22139e-05
-4.4466e-05
-8.60753e-05
-3.82541e-05
-9.2795e-05
-3.1499e-05
-0.000101821
-2.36318e-05
-0.000111458
-1.45307e-05
-0.000118935
-4.74313e-06
-0.00012173
5.16984e-06
-0.000119913
1.52239e-05
-0.000115956
2.55212e-05
-0.000111962
3.67171e-05
-0.000109193
4.92799e-05
-0.000107392
6.34417e-05
-0.000105794
7.93399e-05
-0.000103257
9.64057e-05
-9.81929e-05
0.00011396
-8.96814e-05
0.000131274
-7.71702e-05
0.000147477
-6.02206e-05
0.000161551
-3.86734e-05
0.000172541
-1.24918e-05
0.000179472
1.80525e-05
0.000181265
5.27121e-05
0.000176783
9.08052e-05
0.00016546
0.000130909
0.000147031
0.000171333
0.000121576
0.000210404
8.96155e-05
0.000246403
5.19177e-05
0.000277621
9.83392e-06
0.000302579
-3.49498e-05
0.000319954
-8.0136e-05
0.000328869
-0.000123529
0.000329565
-0.000162432
0.000322942
-0.000194387
0.000312558
-0.000217353
0.000305196
-0.000227629
0.00030748
-0.000220966
0.000315243
-0.000197634
0.000296869
-0.000164768
0.000209079
-0.000137243
2.95495e-05
-0.000125261
-0.000210053
-0.000127989
-0.000448991
-0.000137142
-0.000632812
-0.000134335
-0.000754229
-9.1633e-05
-0.000783183
-0.000563677
6.17117e-05
-0.000595321
7.26823e-05
-0.000767627
5.50242e-05
-0.000719078
3.16602e-05
-0.000597422
1.91793e-05
-0.000428274
3.14557e-05
-0.000218353
7.0349e-05
-6.11015e-06
0.000125592
0.000159141
0.000175135
0.000250545
0.000204356
0.000285171
0.000207554
0.000300988
0.000191246
0.000317122
0.000159547
0.00033826
0.000118365
0.000356005
7.07486e-05
0.000366063
2.0879e-05
0.000365314
-2.80467e-05
0.00035329
-7.30865e-05
0.000330592
-0.000112368
0.00029933
-0.000144566
0.000261388
-0.000168947
0.000218925
-0.000185208
0.000173966
-0.000193458
0.000128413
-0.000194092
8.42781e-05
-0.000187914
4.34099e-05
-0.000176718
7.48872e-06
-0.00016136
-2.30873e-05
-0.000143344
-4.79713e-05
-0.000124228
-6.67991e-05
-0.000104777
-8.03883e-05
-8.6391e-05
-8.85307e-05
-7.01076e-05
-9.19516e-05
-5.63163e-05
-9.23631e-05
-4.55216e-05
-9.09862e-05
-3.77037e-05
-9.00317e-05
-3.20538e-05
-9.17248e-05
-2.83342e-05
-9.6514e-05
-2.55377e-05
-0.000104616
-2.2473e-05
-0.000114522
-1.8287e-05
-0.00012312
-1.30598e-05
-0.000126957
-7.0311e-06
-0.000125941
2.82622e-07
-0.000123269
9.75856e-06
-0.000121438
2.16015e-05
-0.000121036
3.59383e-05
-0.000121728
5.30366e-05
-0.000122892
7.20729e-05
-0.000122293
9.30081e-05
-0.000119128
0.000115163
-0.000111836
0.000137428
-9.94342e-05
0.000158644
-8.14366e-05
0.000177827
-5.78561e-05
0.000193747
-2.84107e-05
0.000204983
6.81659e-06
0.000210319
4.73767e-05
0.000208142
9.29823e-05
0.000197415
0.000141636
0.000177741
0.000191008
0.000149305
0.00023884
0.000112835
0.000282872
6.94598e-05
0.000320995
2.0777e-05
0.000351261
-3.09236e-05
0.000371654
-8.30826e-05
0.000381028
-0.000131811
0.000378292
-0.000173589
0.000364721
-0.000204685
0.000343653
-0.00022022
0.000320731
-0.000214516
0.000301775
-0.00018395
0.000284676
-0.000132781
0.000245699
-7.54593e-05
0.000151767
-3.15427e-05
-1.43548e-05
-1.3359e-05
-0.000228293
-2.28259e-05
-0.000439532
-4.48699e-05
-0.000610768
-6.3289e-05
-0.000735807
-5.7887e-05
-0.000788584
-0.000621564
3.74267e-05
-0.000632746
3.04674e-05
-0.000760668
6.62829e-06
-0.000695239
-1.51214e-05
-0.000575673
-2.20069e-05
-0.000421388
-6.84408e-07
-0.000239675
5.13723e-05
-5.81664e-05
0.000120662
8.98509e-05
0.000183338
0.000187868
0.000221297
0.000247212
0.000231431
0.000290855
0.000215563
0.000332989
0.000181266
0.000372557
0.000133375
0.000403896
7.72367e-05
0.000422201
1.77764e-05
0.000424773
-4.02672e-05
0.000411333
-9.35974e-05
0.000383921
-0.000139778
0.000345508
-0.000176905
0.000298513
-0.000204443
0.000246463
-0.000221549
0.000191069
-0.000228325
0.000135187
-0.000225568
8.15199e-05
-0.000214812
3.26524e-05
-0.000197545
-9.77871e-06
-0.000175596
-4.50364e-05
-0.000150842
-7.27263e-05
-0.000124688
-9.2953e-05
-9.90291e-05
-0.000106048
-7.50203e-05
-0.00011254
-5.37822e-05
-0.00011319
-3.65684e-05
-0.000109577
-2.33592e-05
-0.000104195
-1.45503e-05
-9.88401e-05
-1.07545e-05
-9.55198e-05
-1.12594e-05
-9.60083e-05
-1.46402e-05
-0.000101235
-1.8442e-05
-0.00011072
-2.10075e-05
-0.000120554
-2.23039e-05
-0.00012566
-2.2519e-05
-0.000125726
-2.02615e-05
-0.000125526
-1.38371e-05
-0.000127862
-2.44753e-06
-0.000132425
1.38164e-05
-0.000137992
3.36821e-05
-0.000142757
5.74508e-05
-0.000146062
8.4192e-05
-0.000145869
0.000112712
-0.000140356
0.000141915
-0.000128637
0.00017052
-0.000110042
0.000196966
-8.43019e-05
0.000219855
-5.12996e-05
0.00023746
-1.07887e-05
0.000247693
3.71432e-05
0.000248676
9.19979e-05
0.000238861
0.000151451
0.00021734