/*--------------------------------*- C++ -*----------------------------------*\
| =========                 |                                                 |
| \\      /  F ield         | OpenFOAM: The Open Source CFD Toolbox           |
|  \\    /   O peration     | Version:  2412                                  |
|   \\  /    A nd           | Website:  www.openfoam.com                      |
|    \\/     M anipulation  |                                                 |
\*---------------------------------------------------------------------------*/
FoamFile
{
    version     2.0;
    format      ascii;
    arch        "LSB;label=32;scalar=64";
    class       volScalarField;
    location    "9.55";
    object      p;
}
// * * * * * * * * * * * * * * * * * * * * * * * * * * * * * * * * * * * * * //

dimensions      [1 -1 -2 0 0 0 0];

internalField   nonuniform List<scalar> 
6400
(
7168.48
7168.03
7167.09
7165.67
7163.76
7161.37
7158.51
7155.22
7151.52
7147.47
7143.1
7138.46
7133.6
7128.58
7123.46
7118.3
7113.15
7108.07
7103.13
7098.38
7093.86
7089.62
7085.69
7082.09
7078.85
7075.96
7073.43
7071.25
7069.39
7067.84
7066.57
7065.55
7064.73
7064.1
7063.61
7063.23
7062.94
7062.71
7062.53
7062.38
7062.25
7062.16
7062.1
7062.09
7062.17
7062.34
7062.64
7063.11
7063.79
7064.7
7065.88
7067.38
7069.21
7071.37
7073.91
7076.83
7080.12
7083.78
7087.79
7092.11
7096.71
7101.54
7106.55
7111.68
7116.88
7122.09
7127.24
7132.27
7137.13
7141.76
7146.11
7150.15
7153.82
7157.09
7159.92
7162.28
7164.17
7165.57
7166.5
7166.95
6805.97
6805.51
6804.58
6803.15
6801.23
6798.83
6795.96
6792.64
6788.91
6784.82
6780.41
6775.72
6770.81
6765.74
6760.56
6755.33
6750.12
6744.99
6740
6735.19
6730.63
6726.35
6722.39
6718.78
6715.52
6712.64
6710.11
6707.94
6706.11
6704.59
6703.35
6702.35
6701.57
6700.97
6700.51
6700.16
6699.89
6699.68
6699.51
6699.36
6699.23
6699.13
6699.06
6699.03
6699.07
6699.22
6699.49
6699.93
6700.57
6701.44
6702.6
6704.06
6705.86
6708.02
6710.57
6713.49
6716.8
6720.48
6724.52
6728.88
6733.52
6738.41
6743.47
6748.67
6753.93
6759.2
6764.4
6769.49
6774.4
6779.08
6783.47
6787.54
6791.24
6794.53
6797.38
6799.75
6801.65
6803.05
6803.97
6804.42
6443.92
6443.46
6442.53
6441.1
6439.17
6436.74
6433.82
6430.45
6426.66
6422.49
6417.98
6413.2
6408.18
6402.99
6397.69
6392.35
6387.02
6381.77
6376.67
6371.77
6367.12
6362.77
6358.76
6355.11
6351.84
6348.95
6346.44
6344.31
6342.52
6341.05
6339.87
6338.95
6338.23
6337.7
6337.3
6337.01
6336.78
6336.6
6336.45
6336.31
6336.18
6336.06
6335.96
6335.89
6335.88
6335.96
6336.17
6336.54
6337.1
6337.91
6339.01
6340.42
6342.17
6344.31
6346.84
6349.77
6353.11
6356.83
6360.93
6365.37
6370.1
6375.09
6380.27
6385.59
6390.97
6396.36
6401.68
6406.88
6411.9
6416.67
6421.15
6425.29
6429.05
6432.4
6435.28
6437.68
6439.58
6440.99
6441.91
6442.36
6082.35
6081.89
6080.96
6079.52
6077.57
6075.11
6072.12
6068.66
6064.76
6060.47
6055.83
6050.89
6045.71
6040.35
6034.87
6029.33
6023.82
6018.39
6013.13
6008.08
6003.3
5998.85
5994.76
5991.06
5987.77
5984.89
5982.41
5980.33
5978.61
5977.23
5976.15
5975.32
5974.72
5974.28
5973.98
5973.77
5973.62
5973.5
5973.38
5973.26
5973.12
5972.97
5972.82
5972.69
5972.6
5972.58
5972.68
5972.94
5973.4
5974.1
5975.1
5976.42
5978.12
5980.21
5982.71
5985.65
5989.02
5992.81
5996.99
6001.55
6006.43
6011.57
6016.93
6022.43
6028
6033.57
6039.08
6044.45
6049.62
6054.54
6059.15
6063.41
6067.27
6070.69
6073.64
6076.07
6077.99
6079.4
6080.32
6080.76
5721.24
5720.79
5719.86
5718.43
5716.46
5713.94
5710.87
5707.29
5703.24
5698.78
5693.96
5688.81
5683.41
5677.81
5672.07
5666.29
5660.52
5654.85
5649.36
5644.1
5639.16
5634.57
5630.37
5626.61
5623.29
5620.42
5617.98
5615.98
5614.36
5613.1
5612.16
5611.48
5611.02
5610.74
5610.57
5610.48
5610.43
5610.38
5610.32
5610.21
5610.07
5609.88
5609.66
5609.44
5609.23
5609.09
5609.04
5609.14
5609.45
5610
5610.86
5612.07
5613.66
5615.68
5618.16
5621.1
5624.51
5628.38
5632.69
5637.4
5642.47
5647.83
5653.43
5659.18
5665.01
5670.84
5676.59
5682.2
5687.58
5692.7
5697.48
5701.9
5705.9
5709.43
5712.46
5714.94
5716.88
5718.28
5719.19
5719.63
5360.6
5360.17
5359.25
5357.82
5355.83
5353.25
5350.07
5346.34
5342.1
5337.44
5332.38
5326.98
5321.29
5315.38
5309.32
5303.2
5297.11
5291.12
5285.33
5279.82
5274.64
5269.87
5265.55
5261.7
5258.35
5255.5
5253.13
5251.23
5249.76
5248.66
5247.9
5247.42
5247.16
5247.07
5247.08
5247.15
5247.23
5247.28
5247.28
5247.21
5247.05
5246.81
5246.51
5246.16
5245.81
5245.48
5245.24
5245.15
5245.24
5245.6
5246.27
5247.31
5248.78
5250.71
5253.13
5256.07
5259.53
5263.51
5267.97
5272.89
5278.2
5283.85
5289.76
5295.84
5302.01
5308.17
5314.24
5320.14
5325.81
5331.16
5336.17
5340.77
5344.94
5348.62
5351.75
5354.29
5356.24
5357.63
5358.52
5358.94
5000.41
5000.02
4999.13
4997.7
4995.67
4993
4989.69
4985.78
4981.35
4976.45
4971.12
4965.4
4959.36
4953.07
4946.61
4940.08
4933.56
4927.18
4921.01
4915.18
4909.72
4904.72
4900.23
4896.29
4892.91
4890.09
4887.82
4886.06
4884.76
4883.89
4883.37
4883.14
4883.14
4883.29
4883.53
4883.8
4884.05
4884.23
4884.32
4884.28
4884.11
4883.81
4883.39
4882.89
4882.34
4881.79
4881.31
4880.95
4880.78
4880.87
4881.31
4882.14
4883.43
4885.23
4887.59
4890.52
4894.04
4898.14
4902.79
4907.96
4913.59
4919.59
4925.9
4932.39
4938.98
4945.56
4952.04
4958.31
4964.3
4969.95
4975.2
4980.01
4984.36
4988.2
4991.45
4994.09
4996.08
4997.47
4998.32
4998.69
4640.65
4640.34
4639.46
4637.96
4635.78
4632.93
4629.51
4625.49
4620.94
4615.81
4610.18
4604.1
4597.65
4590.9
4583.95
4576.9
4569.87
4562.99
4556.37
4550.11
4544.31
4539.04
4534.37
4530.32
4526.91
4524.14
4521.99
4520.41
4519.35
4518.75
4518.54
4518.63
4518.95
4519.41
4519.94
4520.47
4520.93
4521.28
4521.47
4521.48
4521.29
4520.91
4520.36
4519.66
4518.87
4518.04
4517.24
4516.55
4516.04
4515.81
4515.94
4516.5
4517.58
4519.2
4521.45
4524.36
4527.95
4532.19
4537.08
4542.56
4548.57
4555.02
4561.81
4568.82
4575.94
4583.04
4590
4596.71
4603.1
4609.08
4614.6
4619.6
4624.03
4627.94
4631.27
4634.09
4636.26
4637.74
4638.58
4638.85
4281.26
4281.06
4280.05
4278.21
4275.61
4272.51
4269.16
4265.22
4260.73
4255.5
4249.58
4243.12
4236.19
4228.89
4221.34
4213.66
4206.01
4198.52
4191.33
4184.57
4178.35
4172.76
4167.86
4163.68
4160.25
4157.56
4155.57
4154.23
4153.48
4153.23
4153.4
4153.89
4154.62
4155.47
4156.36
4157.2
4157.93
4158.48
4158.8
4158.87
4158.66
4158.18
4157.46
4156.52
4155.43
4154.25
4153.06
4151.96
4151.03
4150.39
4150.12
4150.33
4151.1
4152.53
4154.66
4157.53
4161.18
4165.59
4170.76
4176.61
4183.09
4190.08
4197.47
4205.12
4212.88
4220.6
4228.15
4235.4
4242.23
4248.56
4254.31
4259.36
4263.64
4267.44
4270.58
4273.66
4276.3
4278.19
4279.19
4279.35
3922.19
3921.98
3920.6
3918.11
3914.93
3911.54
3908.21
3904.82
3900.71
3895.53
3889.38
3882.5
3875.02
3867.07
3858.8
3850.36
3841.94
3833.7
3825.83
3818.46
3811.74
3805.76
3800.59
3796.29
3792.85
3790.27
3788.49
3787.46
3787.09
3787.28
3787.93
3788.93
3790.15
3791.48
3792.81
3794.05
3795.11
3795.9
3796.39
3796.52
3796.29
3795.7
3794.76
3793.54
3792.08
3790.47
3788.8
3787.18
3785.74
3784.58
3783.83
3783.6
3784.01
3785.15
3787.1
3789.91
3793.62
3798.22
3803.71
3810.01
3817.05
3824.71
3832.83
3841.26
3849.8
3858.29
3866.55
3874.42
3881.76
3888.45
3894.37
3899.29
3903.08
3906.06
3909.25
3912.62
3915.89
3918.5
3919.96
3920.16
3563.42
3563.01
3561.12
3558.09
3554.54
3551.03
3547.86
3544.93
3541.2
3536.11
3529.73
3522.37
3514.24
3505.51
3496.35
3486.99
3477.62
3468.48
3459.76
3451.66
3444.34
3437.91
3432.45
3428
3424.58
3422.15
3420.65
3420.01
3420.13
3420.87
3422.12
3423.73
3425.57
3427.49
3429.37
3431.08
3432.53
3433.63
3434.32
3434.54
3434.28
3433.55
3432.36
3430.78
3428.87
3426.73
3424.48
3422.24
3420.14
3418.35
3417
3416.22
3416.17
3416.95
3418.66
3421.37
3425.13
3429.94
3435.8
3442.64
3450.36
3458.82
3467.83
3477.21
3486.72
3496.14
3505.26
3513.87
3521.81
3528.92
3535.01
3539.79
3543.17
3545.76
3548.66
3552.04
3555.62
3558.77
3560.79
3561.24
3204.95
3204.27
3202.15
3199.1
3195.66
3192.33
3189.36
3186.56
3182.89
3177.66
3170.9
3162.93
3153.99
3144.29
3134.05
3123.53
3113.01
3102.75
3093.02
3084.04
3075.99
3069.03
3063.24
3058.66
3055.28
3053.07
3051.94
3051.8
3052.52
3053.95
3055.94
3058.31
3060.9
3063.54
3066.08
3068.38
3070.31
3071.77
3072.7
3073.03
3072.74
3071.84
3070.35
3068.34
3065.89
3063.11
3060.14
3057.13
3054.25
3051.67
3049.57
3048.12
3047.48
3047.8
3049.19
3051.75
3055.54
3060.58
3066.87
3074.33
3082.86
3092.29
3102.41
3112.95
3123.65
3134.22
3144.39
3153.91
3162.59
3170.23
3176.63
3181.52
3184.89
3187.36
3190.02
3193.16
3196.54
3199.63
3201.86
3202.61
2846.82
2846.03
2844.17
2841.66
2838.8
2835.93
2833.13
2830.27
2826.27
2820.58
2813.21
2804.42
2794.44
2783.52
2771.93
2759.99
2748.04
2736.41
2725.44
2715.39
2706.5
2698.93
2692.78
2688.07
2684.79
2682.86
2682.21
2682.7
2684.18
2686.46
2689.36
2692.67
2696.18
2699.69
2703.03
2706.03
2708.55
2710.46
2711.68
2712.14
2711.81
2710.71
2708.85
2706.34
2703.23
2699.67
2695.83
2691.88
2688.04
2684.49
2681.47
2679.17
2677.8
2677.53
2678.52
2680.87
2684.65
2689.93
2696.69
2704.89
2714.39
2725
2736.46
2748.45
2760.61
2772.6
2784.07
2794.73
2804.34
2812.69
2819.62
2824.91
2828.6
2831.18
2833.65
2836.27
2839.01
2841.5
2843.43
2844.29
2489.05
2488.43
2487.21
2485.61
2483.69
2481.56
2479.06
2476.03
2471.5
2465.13
2456.92
2447.08
2435.79
2423.35
2410.08
2396.37
2382.63
2369.32
2356.83
2345.49
2335.6
2327.34
2320.8
2316
2312.88
2311.36
2311.3
2312.59
2315.01
2318.35
2322.36
2326.8
2331.43
2336.01
2340.33
2344.18
2347.39
2349.84
2351.41
2352.03
2351.67
2350.32
2348.01
2344.94
2341.01
2336.51
2331.61
2326.53
2321.49
2316.77
2312.61
2309.26
2306.98
2305.98
2306.44
2308.48
2312.21
2317.71
2325
2334.04
2344.71
2356.76
2369.88
2383.65
2397.64
2411.39
2424.48
2436.54
2447.3
2456.56
2464.18
2470.03
2474.18
2477.01
2479.11
2480.99
2482.8
2484.38
2485.64
2486.31
2131.52
2131.31
2130.93
2130.43
2129.62
2128.51
2126.79
2123.48
2118.48
2111.42
2102.27
2091.15
2078.26
2063.92
2048.54
2032.63
2016.68
2001.29
1986.94
1974.05
1962.98
1953.93
1947.01
1942.17
1939.31
1938.3
1939.02
1941.29
1944.88
1949.52
1954.9
1960.73
1966.72
1972.59
1978.08
1982.96
1987.02
1990.1
1992.09
1992.91
1992.52
1990.9
1988.1
1984.22
1979.35
1973.74
1967.55
1961.09
1954.62
1948.44
1942.88
1938.25
1934.83
1932.91
1932.69
1934.32
1937.91
1943.59
1951.44
1961.45
1973.51
1987.32
2002.49
2018.49
2034.77
2050.71
2065.81
2079.61
2091.76
2102.06
2110.41
2116.78
2121.23
2124.06
2125.63
2126.59
2127.3
2127.89
2128.3
2128.57
1773.98
1774.29
1774.82
1775.47
1776.01
1776.05
1775
1772.13
1767.07
1759.55
1749.48
1736.91
1722.07
1705.38
1687.4
1668.77
1650.01
1632.07
1615.43
1600.65
1588.17
1578.26
1570.99
1566.25
1563.77
1563.45
1565.12
1568.62
1573.67
1579.9
1586.95
1594.47
1602.11
1609.54
1616.43
1622.55
1627.63
1631.47
1633.95
1635.01
1634.61
1632.69
1629.28
1624.49
1618.47
1611.46
1603.75
1595.62
1587.4
1579.47
1572.19
1565.95
1561.12
1558.06
1556.99
1558.05
1561.37
1567.11
1575.51
1586.63
1600.35
1616.33
1634.07
1652.89
1672.04
1690.74
1708.33
1724.22
1738
1749.42
1758.4
1765.02
1769.41
1771.82
1772.65
1772.52
1772.02
1771.48
1771.06
1770.84
1416.36
1417.26
1418.7
1420.63
1422.63
1424.07
1424.16
1422.15
1417.53
1409.91
1399.04
1384.84
1367.63
1348
1326.7
1304.58
1282.47
1261.26
1241.74
1224.64
1210.49
1199.63
1192.15
1187.83
1186.01
1186.44
1189.25
1194.27
1201.13
1209.34
1218.44
1228.02
1237.65
1246.93
1255.55
1263.17
1269.46
1274.2
1277.24
1278.58
1278.18
1275.94
1271.84
1265.97
1258.55
1249.87
1240.26
1230.14
1219.78
1209.69
1200.29
1192.05
1185.47
1181.01
1178.99
1179.4
1182.12
1187.64
1196.49
1208.83
1224.53
1243.21
1264.22
1286.63
1309.44
1331.65
1352.37
1370.83
1386.51
1399.06
1408.43
1414.88
1418.74
1420.27
1420
1418.61
1416.8
1415.12
1413.88
1413.09
1057.64
1059.13
1061.72
1065.28
1069.2
1072.61
1074.51
1073.91
1070.13
1063.06
1051.66
1035.58
1015.38
992.001
966.443
939.937
913.452
888.108
864.967
844.97
828.823
816.946
809.539
806.389
805.422
806.592
810.697
817.653
826.838
837.548
849.191
861.262
873.314
884.883
895.605
905.057
912.826
918.568
922.189
923.809
923.515
921.005
916.12
908.943
899.795
889.056
877.12
864.551
851.561
838.799
826.752
815.955
807.097
800.981
798.005
797.842
799.431
804.098
813.228
826.903
844.994
867.093
892.334
919.445
946.985
973.658
998.349
1019.93
1037.86
1051.55
1060.86
1066.49
1069.46
1069.61
1067.63
1064.46
1060.97
1057.89
1055.7
1054.37
697.094
698.853
702.814
708.654
715.443
721.965
726.593
728.33
726.033
720.638
709.243
690.886
666.738
638.353
607.523
575.274
543.044
512.295
484.41
460.701
442.096
429.025
421.928
421.707
420.807
422.059
428.082
438.088
450.659
464.695
479.512
494.61
509.527
523.808
537.031
548.704
558.277
565.138
569.246
571.055
571.132
568.507
562.775
553.999
542.778
529.625
514.984
499.351
483.209
467.179
451.701
437.291
424.847
416.005
412.078
412.54
412.718
415.108
424.334
439.422
460.373
486.92
517.896
551.436
585.364
617.612
647.601
672.959
693.643
708.492
716.921
720.631
722.401
720.31
715.642
709.749
703.831
698.865
695.565
693.969
338.489
340.026
345.401
353.547
363.885
374.868
383.319
388.391
387.292
385.289
374.252
352.042
323.578
292.889
260.772
228.277
197.428
169.648
145.861
127.011
113.557
105.088
100.809
99.74
100.669
103.633
109.193
117.93
128.32
139.733
151.805
164.25
176.827
189.297
201.333
212.462
221.912
228.334
232.799
235.111
234.692
232.064
226.5
217.512
206.358
193.988
181.005
167.862
154.832
142.045
129.636
118.002
108.119
101.447
97.2267
95.3255
95.3876
97.5674
103.038
112.592
127.3
148.044
174.692
206.004
239.709
272.992
303.993
331.58
355.647
372.709
379.455
381.985
381.224
375.616
366.943
357.427
348.707
341.702
337.173
336.076
76.3305
77.0904
81.0396
86.4042
92.8473
100.053
107.958
115.231
119.823
117.97
109.015
91.4836
72.2014
55.9849
40.701
26.8274
15.3809
6.4839
-0.0642635
-4.50729
-7.23207
-8.67691
-9.2433
-9.40657
-9.44201
-9.41475
-9.1722
-7.74615
-5.53622
-2.82473
0.312236
3.83506
7.69935
11.8615
16.3027
20.9309
25.3379
28.7954
31.1565
32.3828
32.3332
30.7457
27.4367
22.8716
17.742
12.7725
8.32482
4.43751
0.866977
-2.44372
-5.39275
-7.85279
-9.09551
-9.28849
-9.26772
-9.21226
-9.08486
-8.74427
-7.90195
-6.18943
-3.34147
1.3338
8.62663
19.0138
32.3624
47.4585
62.7214
78.3289
95.1515
108.357
113.953
113.72
109.449
102.574
95.003
88.5763
82.9454
78.3631
75.3367
75.6469
-9.80956
-9.80475
-9.87511
-9.83527
-9.66916
-9.39713
-7.76811
-5.23958
-3.42765
-3.455
-5.13423
-7.79351
-9.53859
-9.99938
-10.0087
-9.95729
-10.0101
-10.1666
-10.1904
-10.0643
-9.9639
-9.94494
-9.95367
-9.97514
-9.98396
-9.97999
-9.91724
-9.93338
-9.94273
-9.9443
-9.95195
-9.96821
-9.9936
-10.0196
-10.043
-10.0787
-10.1191
-10.1679
-10.2119
-10.2412
-10.2487
-10.2123
-10.1398
-10.0768
-10.0642
-10.0963
-10.1292
-10.1174
-10.0643
-9.98436
-9.91111
-9.84161
-9.79529
-9.81916
-9.77077
-9.68982
-9.61037
-9.56411
-9.54454
-9.51343
-9.45218
-9.34461
-9.24544
-9.21028
-9.24289
-9.30416
-9.36259
-9.0169
-7.48897
-5.41419
-4.65805
-5.27141
-7.12135
-9.46593
-10.6786
-10.7551
-10.619
-10.5144
-10.452
-10.532
-10.2842
-10.3301
-10.3509
-10.2953
-10.2421
-10.3106
-10.5735
-10.6928
-10.6838
-10.6627
-10.6541
-10.6523
-10.6612
-10.7157
-10.7628
-10.7412
-10.6913
-10.6682
-10.6358
-10.5655
-10.5115
-10.4977
-10.4975
-10.4941
-10.479
-10.4534
-10.4427
-10.4454
-10.4432
-10.4348
-10.431
-10.4409
-10.4703
-10.5073
-10.5296
-10.5649
-10.599
-10.6465
-10.6763
-10.6917
-10.6989
-10.6878
-10.6529
-10.6099
-10.5952
-10.628
-10.6761
-10.6599
-10.5795
-10.4826
-10.4254
-10.3694
-10.3231
-10.3012
-10.2955
-10.2581
-10.1962
-10.1286
-10.0596
-9.97575
-9.89258
-9.83375
-9.80751
-9.83816
-9.93525
-10.1166
-10.449
-10.9592
-11.3721
-11.4588
-11.4056
-11.3922
-11.3666
-11.2923
-11.2293
-11.1902
-11.1158
-11.0379
-10.9888
-10.9853
-10.8798
-10.9298
-10.8958
-10.9092
-11.0134
-11.1677
-11.244
-11.1995
-11.1507
-11.1386
-11.1418
-11.1493
-11.1681
-11.1997
-11.2244
-11.2354
-11.2504
-11.2468
-11.1966
-11.1149
-11.0423
-11.0026
-10.9871
-10.9784
-10.9669
-10.954
-10.9477
-10.947
-10.9499
-10.9512
-10.9533
-10.9572
-10.9694
-10.9909
-11.0128
-11.031
-11.067
-11.1143
-11.1566
-11.1917
-11.2275
-11.2474
-11.2286
-11.1881
-11.1701
-11.1967
-11.223
-11.1768
-11.0851
-11.0122
-10.9603
-10.9094
-10.8673
-10.8514
-10.8591
-10.8519
-10.8055
-10.7297
-10.6423
-10.5541
-10.4748
-10.4126
-10.3755
-10.3838
-10.4796
-10.6775
-10.9826
-11.3438
-11.6443
-11.8045
-11.8631
-11.8723
-11.8268
-11.7623
-11.7443
-11.7709
-11.7498
-11.6808
-11.587
-11.5372
-11.5392
-11.6042
-11.5423
-11.6643
-11.927
-12.0818
-12.0406
-11.8455
-11.731
-11.7043
-11.7034
-11.7094
-11.729
-11.7595
-11.7754
-11.7749
-11.761
-11.7328
-11.6779
-11.6025
-11.5345
-11.4976
-11.4873
-11.4852
-11.4785
-11.4684
-11.4616
-11.4601
-11.4621
-11.4681
-11.4761
-11.4808
-11.4814
-11.4845
-11.4924
-11.5001
-11.5363
-11.5879
-11.6539
-11.7297
-11.8071
-11.8534
-11.8439
-11.798
-11.7575
-11.7444
-11.7253
-11.6603
-11.5811
-11.5286
-11.4934
-11.4555
-11.4318
-11.4426
-11.4643
-11.4511
-11.3998
-11.3231
-11.2338
-11.1465
-11.069
-10.9979
-10.9439
-10.9349
-11.0259
-11.2232
-11.5051
-11.8179
-12.0908
-12.2686
-12.347
-12.3492
-12.3132
-12.2817
-12.2976
-12.3668
-12.388
-12.3522
-12.2564
-12.1292
-12.1934
-12.2741
-12.2135
-12.3985
-12.6973
-12.8269
-12.7296
-12.472
-12.2953
-12.2554
-12.2456
-12.2484
-12.2681
-12.2868
-12.2895
-12.275
-12.2436
-12.1994
-12.1425
-12.0807
-12.0305
-12.0022
-11.9922
-11.9896
-11.9861
-11.981
-11.9779
-11.9788
-11.9832
-11.9903
-11.9989
-12.0052
-12.0047
-11.9979
-11.995
-11.9965
-12.0347
-12.0919
-12.1737
-12.2774
-12.3763
-12.4332
-12.429
-12.3825
-12.319
-12.2624
-12.2021
-12.1302
-12.0688
-12.034
-12.0147
-11.9986
-12.0041
-12.0402
-12.0655
-12.0469
-11.9939
-11.9184
-11.8335
-11.7526
-11.6748
-11.5889
-11.5086
-11.4919
-11.5933
-11.8087
-12.0997
-12.4077
-12.6697
-12.8414
-12.91
-12.9024
-12.865
-12.8382
-12.8457
-12.8903
-12.9174
-12.9012
-12.8605
-12.7147
-12.7898
-12.8335
-12.8059
-12.9627
-13.1916
-13.3048
-13.2168
-12.9974
-12.8136
-12.7725
-12.7603
-12.7666
-12.7868
-12.7972
-12.7869
-12.7567
-12.7111
-12.661
-12.6091
-12.5613
-12.5253
-12.5044
-12.4957
-12.4936
-12.4936
-12.4945
-12.4974
-12.5021
-12.5079
-12.5142
-12.521
-12.5275
-12.5304
-12.526
-12.5223
-12.5268
-12.5657
-12.6293
-12.7087
-12.8177
-12.9222
-12.9906
-13.0045
-12.9536
-12.8666
-12.7754
-12.688
-12.6036
-12.5451
-12.5157
-12.5019
-12.515
-12.5596
-12.6193
-12.6443
-12.6245
-12.5726
-12.4999
-12.4227
-12.3521
-12.2795
-12.1889
-12.1028
-12.1153
-12.2619
-12.5212
-12.8398
-13.1481
-13.3783
-13.52
-13.5696
-13.5361
-13.468
-13.4088
-13.3757
-13.3672
-13.3581
-13.3285
-13.2857
-13.2109
-13.2981
-13.3031
-13.3011
-13.3793
-13.5001
-13.5754
-13.5499
-13.4178
-13.2897
-13.2508
-13.2468
-13.2579
-13.2745
-13.2807
-13.2641
-13.2233
-13.1705
-13.1203
-13.0749
-13.0386
-13.0145
-13.0021
-12.9983
-12.9995
-13.0033
-13.0089
-13.0159
-13.0233
-13.0303
-13.0365
-13.0423
-13.0485
-13.0542
-13.0565
-13.0602
-13.0721
-13.1106
-13.1785
-13.2517
-13.3456
-13.4434
-13.5178
-13.5434
-13.5044
-13.4069
-13.2896
-13.1818
-13.0824
-13.0065
-12.9649
-12.9606
-13.0067
-13.0967
-13.1795
-13.2073
-13.1887
-13.1412
-13.0767
-13.011
-12.9551
-12.9012
-12.8352
-12.7918
-12.8615
-13.0655
-13.3796
-13.7344
-14.0523
-14.273
-14.3546
-14.3293
-14.2422
-14.1146
-13.9897
-13.8923
-13.821
-13.7591
-13.6928
-13.6311
-13.5986
-13.75
-13.7486
-13.7511
-13.7719
-13.817
-13.8603
-13.8688
-13.8049
-13.7403
-13.7166
-13.7168
-13.7244
-13.7343
-13.7343
-13.7141
-13.6729
-13.6267
-13.5792
-13.541
-13.5149
-13.5011
-13.4971
-13.4994
-13.5052
-13.5133
-13.5231
-13.5336
-13.5437
-13.5524
-13.5595
-13.5653
-13.571
-13.5775
-13.5839
-13.5937
-13.6122
-13.6498
-13.7201
-13.7918
-13.8685
-13.9489
-14.0116
-14.0414
-14.0185
-13.9228
-13.8004
-13.6762
-13.5701
-13.472
-13.4277
-13.4247
-13.4956
-13.623
-13.7259
-13.7586
-13.744
-13.7041
-13.651
-13.6011
-13.5666
-13.5433
-13.5303
-13.5606
-13.6661
-13.8931
-14.2343
-14.6259
-14.9734
-15.2011
-15.261
-15.1725
-14.9946
-14.7915
-14.5834
-14.4079
-14.273
-14.1677
-14.0786
-14.0075
-13.9596
-14.2048
-14.202
-14.1997
-14.1936
-14.2048
-14.2309
-14.249
-14.2265
-14.1981
-14.1895
-14.1891
-14.1904
-14.1907
-14.183
-14.1607
-14.124
-14.08
-14.0423
-14.0124
-13.9949
-13.9896
-13.993
-14.0009
-14.0113
-14.0235
-14.0371
-14.0513
-14.0642
-14.0749
-14.0832
-14.0896
-14.0951
-14.1016
-14.1094
-14.1206
-14.1412
-14.1762
-14.2412
-14.3129
-14.3817
-14.4449
-14.4934
-14.517
-14.5007
-14.4254
-14.3058
-14.1666
-14.057
-13.9517
-13.9031
-13.9111
-13.9912
-14.1407
-14.2589
-14.2991
-14.2915
-14.2613
-14.2216
-14.1904
-14.18
-14.1877
-14.2186
-14.2971
-14.4346
-14.6677
-15.0036
-15.4023
-15.7597
-15.9958
-16.0759
-15.9878
-15.7473
-15.4579
-15.1757
-14.9249
-14.7326
-14.5967
-14.4978
-14.4338
-14.3826
-14.7043
-14.6901
-14.6675
-14.6531
-14.6549
-14.6762
-14.6896
-14.6859
-14.6758
-14.6733
-14.6719
-14.6702
-14.6661
-14.6555
-14.6339
-14.5996
-14.5579
-14.52
-14.4935
-14.4818
-14.4832
-14.4929
-14.5056
-14.5194
-14.5349
-14.5524
-14.5702
-14.5862
-14.5987
-14.608
-14.6149
-14.6205
-14.6265
-14.6341
-14.6442
-14.6619
-14.6906
-14.741
-14.8058
-14.8702
-14.9276
-14.9683
-14.9863
-14.9699
-14.9042
-14.7952
-14.6618
-14.5473
-14.4545
-14.3994
-14.4253
-14.5012
-14.6498
-14.7771
-14.8277
-14.8289
-14.8109
-14.7862
-14.7745
-14.7886
-14.8236
-14.8766
-14.9664
-15.1195
-15.3524
-15.6753
-16.0516
-16.4063
-16.6482
-16.7319
-16.656
-16.4216
-16.0733
-15.7364
-15.4285
-15.1954
-15.0439
-14.9448
-14.8965
-14.855
-15.2181
-15.2105
-15.1858
-15.1718
-15.1683
-15.1701
-15.1719
-15.1689
-15.1654
-15.1632
-15.1614
-15.159
-15.1545
-15.1449
-15.1251
-15.0909
-15.046
-15.0051
-14.9799
-14.9733
-14.982
-14.9987
-15.0162
-15.0324
-15.0506
-15.0724
-15.0946
-15.1134
-15.1271
-15.1364
-15.1428
-15.1477
-15.1523
-15.1583
-15.1663
-15.1787
-15.1981
-15.2303
-15.2762
-15.3276
-15.377
-15.4133
-15.4288
-15.4141
-15.3602
-15.2692
-15.1566
-15.0505
-14.9756
-14.9314
-14.9606
-15.0332
-15.1554
-15.2785
-15.3417
-15.3554
-15.3522
-15.3449
-15.3527
-15.391
-15.4518
-15.5221
-15.6097
-15.7433
-15.9498
-16.2411
-16.5834
-16.912
-17.1523
-17.2498
-17.1915
-16.9872
-16.6413
-16.2465
-15.9
-15.652
-15.5004
-15.402
-15.3584
-15.3402
-15.7039
-15.7119
-15.7025
-15.6922
-15.6867
-15.6757
-15.6663
-15.6606
-15.6572
-15.6553
-15.6541
-15.6526
-15.6498
-15.6441
-15.6294
-15.5957
-15.5449
-15.4983
-15.474
-15.4753
-15.4942
-15.5201
-15.5447
-15.5663
-15.5854
-15.6056
-15.6316
-15.6517
-15.6644
-15.6714
-15.6752
-15.6774
-15.6793
-15.6822
-15.6867
-15.6938
-15.7043
-15.7206
-15.7448
-15.7747
-15.8069
-15.8346
-15.8493
-15.8431
-15.8087
-15.7448
-15.6604
-15.5756
-15.5162
-15.494
-15.5126
-15.5763
-15.6689
-15.7735
-15.8432
-15.8725
-15.8853
-15.8989
-15.926
-15.9855
-16.0694
-16.1553
-16.2396
-16.3473
-16.5054
-16.7255
-16.9962
-17.2603
-17.4659
-17.5776
-17.5725
-17.4078
-17.0814
-16.6694
-16.3244
-16.0929
-15.9555
-15.8574
-15.7984
-15.8337
-16.185
-16.1887
-16.1848
-16.178
-16.1707
-16.1626
-16.1559
-16.1517
-16.1494
-16.1485
-16.1487
-16.1496
-16.1506
-16.1538
-16.1522
-16.1206
-16.0644
-16.0179
-16.0078
-16.0293
-16.0639
-16.0999
-16.1337
-16.1608
-16.1786
-16.1895
-16.1989
-16.2115
-16.2175
-16.2168
-16.2138
-16.2107
-16.2079
-16.2061
-16.206
-16.2078
-16.2114
-16.2171
-16.2257
-16.2376
-16.2529
-16.2696
-16.2836
-16.2886
-16.277
-16.243
-16.1887
-16.1268
-16.0802
-16.0644
-16.0749
-16.1232
-16.194
-16.2758
-16.3438
-16.3871
-16.4173
-16.4503
-16.4941
-16.5685
-16.6705
-16.7723
-16.8587
-16.9431
-17.048
-17.1843
-17.347
-17.5104
-17.6334
-17.7073
-17.7103
-17.5784
-17.3093
-16.9658
-16.6887
-16.5049
-16.396
-16.3212
-16.2479
-16.3219
-16.669
-16.6701
-16.6667
-16.6617
-16.6556
-16.6501
-16.6454
-16.6424
-16.6411
-16.6415
-16.6438
-16.648
-16.6549
-16.6724
-16.6927
-16.6689
-16.6203
-16.5979
-16.621
-16.6669
-16.7114
-16.7496
-16.7842
-16.8108
-16.8279
-16.8326
-16.8216
-16.8074
-16.7943
-16.7769
-16.7607
-16.7482
-16.7382
-16.7303
-16.7247
-16.7213
-16.7196
-16.719
-16.7195
-16.7216
-16.7269
-16.7367
-16.7507
-16.7659
-16.7746
-16.7668
-16.7385
-16.6957
-16.6545
-16.6316
-16.6318
-16.6691
-16.7273
-16.7921
-16.8543
-16.9059
-16.9503
-16.9993
-17.056
-17.1355
-17.2454
-17.3604
-17.4572
-17.5285
-17.5867
-17.6453
-17.7106
-17.7707
-17.8066
-17.8073
-17.7506
-17.6183
-17.4136
-17.1851
-17.001
-16.8765
-16.8115
-16.7895
-16.7762
-16.8153
-17.1536
-17.154
-17.1504
-17.1464
-17.1416
-17.1373
-17.1338
-17.1318
-17.1315
-17.1331
-17.1374
-17.1452
-17.1572
-17.1903
-17.2291
-17.2351
-17.2113
-17.2273
-17.2815
-17.3357
-17.3752
-17.4071
-17.4361
-17.4616
-17.4831
-17.4942
-17.4834
-17.4426
-17.3958
-17.3524
-17.3162
-17.2897
-17.2699
-17.2546
-17.2429
-17.2343
-17.2282
-17.2237
-17.2205
-17.219
-17.2206
-17.2271
-17.2417
-17.264
-17.2869
-17.2982
-17.2892
-17.2608
-17.2232
-17.1942
-17.195
-17.2159
-17.2658
-17.3224
-17.3772
-17.4328
-17.4852
-17.5435
-17.6079
-17.6836
-17.7857
-17.9051
-18.0088
-18.0771
-18.1081
-18.1103
-18.0987
-18.0793
-18.05
-17.9944
-17.8923
-17.7523
-17.5887
-17.4331
-17.3144
-17.2413
-17.2232
-17.2534
-17.3183
-17.3401
-17.6379
-17.638
-17.6345
-17.6311
-17.6275
-17.6241
-17.6213
-17.6198
-17.62
-17.6222
-17.6276
-17.6385
-17.6492
-17.6979
-17.7463
-17.7841
-17.7965
-17.8396
-17.8967
-17.9415
-17.9758
-18.0115
-18.0515
-18.0884
-18.1167
-18.1383
-18.1376
-18.0934
-18.0148
-17.9375
-17.8768
-17.8338
-17.8021
-17.778
-17.76
-17.7466
-17.7365
-17.729
-17.7239
-17.7216
-17.7233
-17.7304
-17.7464
-17.7709
-17.7984
-17.8174
-17.8186
-17.803
-17.7763
-17.7621
-17.7709
-17.7751
-17.8114
-17.863
-17.9095
-17.9642
-18.0195
-18.0803
-18.1466
-18.2155
-18.2922
-18.3939
-18.4923
-18.5564
-18.5792
-18.5574
-18.5042
-18.4378
-18.3659
-18.2807
-18.1752
-18.0475
-17.9159
-17.7998
-17.7221
-17.6922
-17.7088
-17.7605
-17.827
-17.8376
-18.1223
-18.122
-18.1193
-18.1164
-18.1133
-18.1104
-18.108
-18.1065
-18.1063
-18.1081
-18.1124
-18.1214
-18.1363
-18.1735
-18.2355
-18.2944
-18.3366
-18.3895
-18.4403
-18.4812
-18.5206
-18.5691
-18.6268
-18.679
-18.7158
-18.7408
-18.7456
-18.709
-18.6193
-18.5166
-18.4355
-18.3763
-18.3323
-18.2994
-18.275
-18.2571
-18.2437
-18.2338
-18.2273
-18.225
-18.2282
-18.238
-18.2543
-18.2767
-18.3002
-18.3166
-18.3226
-18.3238
-18.3248
-18.337
-18.3469
-18.3508
-18.373
-18.4095
-18.4429
-18.4929
-18.5484
-18.6077
-18.671
-18.7329
-18.7865
-18.8543
-18.9182
-18.9724
-18.9909
-18.9672
-18.9069
-18.8258
-18.7352
-18.6409
-18.5455
-18.4426
-18.3483
-18.2748
-18.2307
-18.2229
-18.2434
-18.2813
-18.314
-18.3094
-18.6073
-18.6066
-18.6047
-18.6022
-18.5994
-18.5965
-18.5939
-18.5918
-18.5908
-18.591
-18.5933
-18.597
-18.607
-18.6299
-18.6957
-18.7743
-18.8373
-18.8983
-18.9577
-19.0107
-19.0665
-19.1364
-19.2063
-19.2581
-19.2856
-19.294
-19.2898
-19.2591
-19.1773
-19.0732
-18.9829
-18.9121
-18.8578
-18.817
-18.787
-18.7649
-18.7487
-18.7367
-18.7286
-18.7254
-18.7288
-18.7395
-18.7566
-18.7786
-18.7985
-18.8119
-18.8233
-18.8439
-18.8783
-18.9093
-18.9283
-18.945
-18.9574
-18.9556
-18.9662
-19.0112
-19.0664
-19.1245
-19.1866
-19.2424
-19.2864
-19.3232
-19.3566
-19.3807
-19.3864
-19.3635
-19.3101
-19.2336
-19.1461
-19.0572
-18.9701
-18.8842
-18.8091
-18.7595
-18.7352
-18.7326
-18.7462
-18.7663
-18.7841
-18.7863
-19.0935
-19.0926
-19.091
-19.0886
-19.0857
-19.0826
-19.0795
-19.0765
-19.074
-19.0721
-19.071
-19.07
-19.0726
-19.0882
-19.1565
-19.2519
-19.3284
-19.4013
-19.4756
-19.5485
-19.6344
-19.7363
-19.8228
-19.8699
-19.8766
-19.8569
-19.8242
-19.7761
-19.7023
-19.6076
-19.5159
-19.4379
-19.376
-19.3292
-19.2946
-19.2693
-19.2505
-19.2364
-19.2262
-19.2208
-19.2221
-19.2321
-19.2524
-19.2773
-19.3015
-19.3274
-19.3588
-19.3957
-19.4378
-19.4812
-19.5193
-19.5477
-19.534
-19.4807
-19.4694
-19.5109
-19.5659
-19.6252
-19.6909
-19.7511
-19.7948
-19.8203
-19.8311
-19.8276
-19.811
-19.7792
-19.7287
-19.6609
-19.5834
-19.5048
-19.4302
-19.3604
-19.2989
-19.2542
-19.2313
-19.2274
-19.2361
-19.2492
-19.2613
-19.2658
-19.5808
-19.5799
-19.5783
-19.5758
-19.5727
-19.5691
-19.5652
-19.5612
-19.557
-19.5529
-19.5485
-19.5444
-19.5416
-19.5685
-19.6477
-19.7433
-19.8184
-19.902
-19.9923
-20.0885
-20.2045
-20.3312
-20.429
-20.4797
-20.4812
-20.4415
-20.3811
-20.3054
-20.2209
-20.1301
-20.0375
-19.9539
-19.8859
-19.8347
-19.7971
-19.7697
-19.7491
-19.7331
-19.7206
-19.7124
-19.7112
-19.7208
-19.7441
-19.7762
-19.8213
-19.8744
-19.9222
-19.9601
-19.9916
-20.0381
-20.0835
-20.0929
-20.0346
-19.9548
-19.9401
-19.983
-20.041
-20.1029
-20.1728
-20.2421
-20.2947
-20.3236
-20.3249
-20.3045
-20.2677
-20.2205
-20.1648
-20.1017
-20.0339
-19.9672
-19.9053
-19.8494
-19.7996
-19.7572
-19.7321
-19.7249
-19.7292
-19.7374
-19.7441
-19.7474
-20.0694
-20.0685
-20.0667
-20.064
-20.0605
-20.0564
-20.0517
-20.0465
-20.0408
-20.0347
-20.0276
-20.0217
-20.0189
-20.0683
-20.156
-20.2332
-20.3036
-20.3948
-20.4972
-20.6094
-20.7348
-20.8695
-20.965
-21.0207
-21.03
-20.9926
-20.9278
-20.8415
-20.7427
-20.6458
-20.5501
-20.4601
-20.3871
-20.3332
-20.2943
-20.2661
-20.2449
-20.2276
-20.2134
-20.203
-20.1995
-20.2086
-20.2318
-20.2784
-20.3407
-20.399
-20.4483
-20.4799
-20.4991
-20.5304
-20.5515
-20.5252
-20.4429
-20.3758
-20.3757
-20.4271
-20.4924
-20.5583
-20.6292
-20.7025
-20.7628
-20.7981
-20.8039
-20.7806
-20.7329
-20.6719
-20.6087
-20.5477
-20.4886
-20.4322
-20.3809
-20.3355
-20.2956
-20.2585
-20.2329
-20.2226
-20.2236
-20.2282
-20.2318
-20.2332
-20.5594
-20.5583
-20.5563
-20.5534
-20.5496
-20.5449
-20.5395
-20.5333
-20.5264
-20.5186
-20.5095
-20.5017
-20.509
-20.5741
-20.6562
-20.713
-20.784
-20.8786
-20.9854
-21.1015
-21.2252
-21.3457
-21.4422
-21.5035
-21.5231
-21.5028
-21.4464
-21.3632
-21.2625
-21.1562
-21.0526
-20.955
-20.8792
-20.8248
-20.7865
-20.7592
-20.7383
-20.7207
-20.7058
-20.694
-20.6881
-20.6943
-20.712
-20.7697
-20.8275
-20.8751
-20.9146
-20.9382
-20.9487
-20.9531
-20.9367
-20.8857
-20.8153
-20.777
-20.7968
-20.8585
-20.9308
-21
-21.0698
-21.1402
-21.2005
-21.2398
-21.2514
-21.2332
-21.1853
-21.1185
-21.0511
-20.9928
-20.9426
-20.8969
-20.8548
-20.817
-20.7836
-20.7537
-20.7303
-20.7183
-20.7186
-20.7202
-20.7223
-20.7222
-21.0507
-21.0495
-21.0473
-21.0442
-21.0401
-21.035
-21.029
-21.0221
-21.0144
-21.0058
-20.9953
-20.987
-21.0123
-21.0781
-21.1395
-21.1876
-21.2599