/*--------------------------------*- C++ -*----------------------------------*\
| =========                 |                                                 |
| \\      /  F ield         | OpenFOAM: The Open Source CFD Toolbox           |
|  \\    /   O peration     | Version:  2412                                  |
|   \\  /    A nd           | Website:  www.openfoam.com                      |
|    \\/     M anipulation  |                                                 |
\*---------------------------------------------------------------------------*/
FoamFile
{
    version     2.0;
    format      ascii;
    arch        "LSB;label=32;scalar=64";
    class       volScalarField;
    location    "9.85";
    object      alpha.oil;
}
// * * * * * * * * * * * * * * * * * * * * * * * * * * * * * * * * * * * * * //

dimensions      [0 0 0 0 0 0 0];

internalField   nonuniform List<scalar> 
6400
(
1
0.999994
0.999995
0.999995
0.999996
0.999997
0.999998
0.999998
0.999998
1
1
1
1
1
1
1
1
1
1
1
1
1
1
1
0.999999
0.999999
0.999998
0.999998
0.999998
0.999999
0.999999
0.999999
0.999999
0.999999
0.999999
0.999999
1
1
1
1
1
1
1
1
1
1
1
1
1
1
1
1
1
0.999999
0.999999
0.999999
0.999999
0.999998
0.999998
0.999998
0.999999
0.999999
0.999999
1
1
1
1
1
1
1
1
1
1
0.999999
1
1
1
1
1
1
0.999994
0.999991
0.999993
0.999994
0.999996
0.999996
0.999997
0.999998
0.999999
1
1
1
1
1
1
1.00001
1.00001
1
1
1
1
1
1
1
0.999999
0.999998
0.999998
0.999998
0.999998
0.999999
0.999999
0.999999
0.999999
1
1
1
1
1
1
1
1
1
1
1
1
1
1
1
1
1
0.999999
0.999999
0.999998
0.999998
0.999997
0.999997
0.999997
0.999998
0.999998
0.999998
0.999998
0.999998
0.999999
0.999999
1
1
1
1
1
1
0.999999
0.999999
0.999999
1
1
1
1
1
1
1
0.999995
0.999994
0.999995
0.999996
0.999996
0.999997
0.999997
0.999998
0.999998
0.999999
0.999999
0.999999
0.999999
0.999998
0.999998
0.999999
1
1
1
1
1
1
1
1
1
1
1
1
1
1
1
1
1
1
1
1
1
1
1
1
1
1
1
1
1
1
1
1
1
1
1
1
0.999999
1
1
1
1
0.999999
0.999998
0.999998
0.999998
0.999998
0.999997
0.999997
0.999997
0.999998
0.999998
0.999998
0.999997
0.999997
0.999996
0.999996
0.999996
0.999997
0.999998
1
1
1
1
0.999996
0.999997
0.999997
0.999998
0.999998
0.999998
0.999998
0.999998
0.999997
0.999997
0.999997
0.999996
0.999996
0.999996
0.999994
0.999993
0.999994
0.999996
0.999997
0.999998
0.999999
0.999999
0.999999
0.999999
1
1
1
1
1
1
1
1
1
1
1
1
1
1
1
1.00001
1.00001
1.00001
1.00001
1.00001
1.00001
1.00001
1.00001
1.00001
1.00001
1
1
1
1
1
1
1
1
1
1
1
1
1
1
1
0.999999
0.999999
0.999998
0.999998
0.999997
0.999996
0.999996
0.999996
0.999996
0.999996
0.999996
0.999996
0.999996
0.999996
0.999996
0.999994
0.999992
0.999998
0.999999
0.999999
0.999999
0.999998
0.999998
0.999997
0.999997
0.999996
0.999996
0.999995
0.999995
0.999996
0.999995
0.999992
0.999991
0.999991
0.999992
0.999994
0.999994
0.999994
0.999995
0.999996
0.999997
0.999998
0.999999
0.999999
1
1
1
1
1
1
1
1.00001
1.00001
1.00001
1.00001
1.00001
1.00001
1.00001
1.00001
1.00001
1.00001
1.00001
1.00001
1.00001
1.00001
1.00001
1.00001
1.00001
1.00001
1.00001
1.00001
1.00001
1.00001
1.00001
1.00001
1
1
1
1
1
1
1
1
0.999999
0.999998
0.999997
0.999996
0.999996
0.999996
0.999997
0.999996
0.999995
0.999994
0.999993
0.999992
0.999989
0.999994
1
1
1
1
1
0.999999
0.999999
0.999998
0.999999
0.999999
0.999998
0.999999
1
1
0.999998
0.999995
0.999994
0.999994
0.999995
0.999995
0.999996
0.999996
0.999996
0.999997
0.999997
0.999998
0.999998
0.999999
0.999999
1
1
1
1
1
1
1
1
1
1
1
1
1
1
1
1
1
1
1
1
1
1
1
1
1.00001
1.00001
1.00001
1.00001
1.00001
1.00001
1
1
1
1
1
1
1
1
0.999999
0.999998
0.999999
0.999999
0.999999
0.999999
0.999999
0.999997
0.999996
0.999995
0.999993
0.999992
1
1
1
1
1
1
1
1
1
1
1
1
1
1.00001
1.00001
1.00001
1
1
1
1
1
1
1
1
1
1
1
0.999999
0.999999
0.999998
0.999997
0.999997
0.999997
0.999997
0.999997
0.999996
0.999996
0.999995
0.999995
0.999995
0.999994
0.999994
0.999994
0.999993
0.999992
0.999992
0.999991
0.999993
0.999993
0.999994
0.999994
0.999995
0.999996
0.999996
0.999997
0.999997
0.999998
0.999998
0.999998
0.999999
0.999999
1
1
1
1
1
1
0.999999
1
1
1
1
1
1
1
1
1
1
1
1.00001
1.00001
1
1.00001
1.00001
1.00001
1.00001
1.00001
1.00001
1.00001
1.00001
1.00001
1.00001
1.00001
1.00001
1.00001
1.00001
1.00001
1.00001
1.00001
1.00001
1.00001
1.00001
1
1
1
1
1
0.999999
0.999998
0.999996
0.999995
0.999994
0.999993
0.999993
0.999992
0.999992
0.999991
0.99999
0.999989
0.999988
0.999988
0.999988
0.999987
0.999987
0.999986
0.999985
0.999985
0.999985
0.999986
0.999986
0.999987
0.999987
0.999988
0.999988
0.999989
0.999989
0.99999
0.999992
0.999992
0.999993
0.999995
0.999996
0.999997
0.999997
0.999998
0.999999
1
1
1
1
1.00001
1.00001
1.00001
1.00001
1.00001
1.00001
1.00001
1.00001
1.00001
1.00002
1.00001
1
1.00001
1.00001
1.00001
1.00001
1.00001
1.00001
1.00001
1.00001
1.00001
1
1
1
1.00001
1.00001
1.00001
1
1
1
1
1
1
1
1
0.999999
0.999998
0.999997
0.999996
0.999994
0.999993
0.999992
0.999991
0.999991
0.99999
0.99999
0.999989
0.999989
0.999988
0.999988
0.999988
0.999988
0.999989
0.999989
0.999989
0.999989
0.999989
0.999989
0.99999
0.99999
0.99999
0.99999
0.99999
0.999991
0.999991
0.999992
0.999992
0.999993
0.999994
0.999994
0.999995
0.999996
0.999997
0.999998
0.999999
1
1
1
1
1.00001
1.00001
1.00001
1.00001
1.00001
1.00001
1.00001
1.00001
1.00001
1.00001
1.00002
0.999998
1
1.00001
1.00001
1.00001
1.00001
1.00001
1.00001
1
1.00001
1
1
0.999997
0.999997
0.999999
1
1
0.999999
0.999998
0.999999
0.999999
0.999999
0.999999
0.999998
0.999998
0.999997
0.999996
0.999995
0.999994
0.999994
0.999992
0.999991
0.999991
0.999991
0.999991
0.999992
0.999993
0.999993
0.999992
0.999992
0.999993
0.999993
0.999994
0.999995
0.999995
0.999996
0.999996
0.999996
0.999996
0.999996
0.999996
0.999997
0.999997
0.999997
0.999998
0.999998
0.999998
0.999998
0.999998
0.999999
0.999999
0.999998
0.999999
0.999998
0.999999
0.999999
1
1
1
1
1
1
1
1
1
1
1
1.00001
1.00001
1
0.999991
1.00001
1.00001
1.00001
1.00001
1.00001
1.00001
1
1
1
1
0.999999
0.999997
0.999996
0.999997
0.999998
0.999997
0.999996
0.999996
0.999997
0.999997
0.999997
0.999998
0.999998
0.999997
0.999997
0.999997
0.999996
0.999996
0.999996
0.999996
0.999996
0.999996
0.999996
0.999997
0.999997
0.999998
0.999997
0.999997
0.999997
0.999997
0.999997
0.999998
0.999998
0.999998
0.999999
0.999999
0.999999
0.999999
0.999999
0.999999
0.999999
0.999999
0.999999
0.999999
0.999999
0.999999
1
1
1
1
1
1
1
0.999999
0.999999
0.999999
1
1
1
1
1
1
0.999999
1
1
1
1.00001
1
0.999991
0.999998
1.00001
1.00001
1.00001
1
0.999998
1
1
0.999998
1
0.999999
0.999997
0.999995
0.999996
0.999997
0.999997
0.999997
0.999997
0.999996
0.999996
0.999997
0.999998
0.999998
0.999999
0.999999
0.999999
0.999999
0.999999
0.999999
1
1
1
1
1
1
1
1
1
1
1
1
1
1
1
1
1
1
1
1
1
0.999999
0.999999
0.999999
0.999999
0.999999
1
1
1
1
1
1
1
1
1
1
1
0.999999
0.999999
0.999999
0.999998
0.999998
0.999997
0.999997
0.999997
0.999998
1
1
1
0.999993
0.999992
1
1
1
0.999999
0.999999
0.999994
0.999998
0.999995
0.999996
0.999999
0.999998
0.999995
0.999993
0.999993
0.999996
0.999997
0.999997
0.999997
0.999997
0.999997
0.999997
0.999998
0.999999
1
1
1
1
1
1
1
1
1
1
1
1
1
1
1
1
1
1
1
1
1
1
1
1
1
1
1
1
1
1
1
1
1
1
1
1
1
1
1
1
1
1
0.999999
0.999999
0.999999
0.999998
0.999998
0.999997
0.999996
0.999996
0.999997
0.999999
1
1
0.999995
0.999989
1
0.999998
1
0.999995
0.999994
0.999996
0.999996
0.999995
0.999994
0.999996
0.999999
0.999998
0.999996
0.999995
0.999995
0.999996
0.999997
0.999998
0.999998
0.999998
0.999998
0.999999
0.999999
1
1
1
1
1
1
1
1
1
1
1
1
1
1
1
1
1
1
1.00001
1.00001
1.00001
1.00001
1.00001
1.00001
1.00001
1.00001
1
1
1
1
1
1
1
1
1
1
0.999999
0.999999
0.999998
0.999998
0.999998
0.999999
0.999999
0.999999
0.999999
0.999999
0.999999
0.999999
0.999998
0.999998
0.999999
1
1
1
0.999998
0.999992
0.999995
1
0.999995
0.999997
0.999995
0.999996
0.999997
1
0.999998
0.999997
1
1
1
1
1
1
1
1
1
1
1
1
1
1
1
1
1
1
1
1
0.999999
0.999997
0.999996
0.999996
0.999996
0.999998
0.999999
1
1
1
1
1
1
1
1
1
1
1
1
1
1
1
1
1
0.999999
0.999998
0.999998
0.999997
0.999996
0.999995
0.999995
0.999996
0.999997
0.999996
0.999997
0.999997
0.999998
0.999999
1
1
1
1
1
1
1
1
1
1
0.999997
0.999996
1
0.999996
1
0.999996
1
1
1
1.00001
1
1
1.00001
1.00001
1.00001
1
1
1
1
1
1
1
1
1
0.999999
1
1
1
0.999999
0.999999
0.999998
0.999996
0.999996
0.999996
0.999996
0.999996
0.999997
0.999997
0.999998
0.999998
0.999997
0.999997
0.999997
0.999997
0.999997
0.999997
0.999997
0.999996
0.999996
0.999996
0.999996
0.999996
0.999996
0.999996
0.999995
0.999995
0.999994
0.999994
0.999994
0.999996
0.999997
0.999997
0.999997
0.999997
0.999996
0.999996
0.999997
0.999998
1
1
1
1
1
1
1
1
1.00001
1.00001
1.00001
1
0.999999
1
1.00001
0.999998
1.00001
0.999999
1
1
1.00001
1.00001
1
1
1.00001
1.00001
1
1
1
1
1
1
0.999999
0.999999
1
1
0.999999
0.999998
1
1
0.999999
0.999998
0.999998
0.999998
0.999998
0.999998
0.999998
0.999998
0.999998
0.999997
0.999996
0.999996
0.999995
0.999994
0.999994
0.999994
0.999994
0.999994
0.999993
0.999993
0.999993
0.999993
0.999993
0.999994
0.999994
0.999994
0.999994
0.999995
0.999997
0.999997
0.999998
0.999999
0.999999
0.999999
0.999999
0.999999
0.999999
1
1
1
1
1
1
1
1
1
1
1
1.00001
1.00001
1
1
1
1.00001
1
1.00001
1.00001
1
1
1
0.999999
0.999999
1
1
1
1
1
1
0.999999
0.999999
1
0.999999
0.999999
0.999999
1
1
0.999999
0.999998
0.999999
1
1
1
1
1
1
1
1
1
1
1
1
0.999999
0.999999
0.999999
0.999999
0.999999
0.999999
0.999998
0.999998
0.999998
0.999998
0.999998
0.999999
0.999999
0.999999
0.999999
0.999999
0.999999
0.999999
1
1
1
1
1
1
1
1
1
1
1
1
1
1
1
1
1
1
1
1
1
0.999999
0.999999
0.999999
0.999999
1
1
1
1
1
1
1
1
1
1
1
1
1
1
1
1
1
1
1
1
1
1
1
1
1
1
1
1
1
1
1
1
1
1
1
1
0.999999
0.999999
0.999999
0.999999
0.999999
0.999999
0.999999
0.999998
0.999998
0.999998
0.999998
0.999998
0.999999
0.999999
0.999999
0.999999
0.999999
0.999999
1
1
1
1
1
1
1
1
1
1
1
1
1
1
1
1
1
1
1
1
1
1
1
1
1
1
1
1
1
0.911748
0.906852
0.905758
0.905622
0.90558
0.905543
0.905594
0.90577
0.905719
0.905858
0.906593
0.907178
0.907059
0.906237
0.906522
0.907871
0.908393
0.908333
0.90844
0.908621
0.908646
0.908298
0.907124
0.906559
0.90874
0.910426
0.910595
0.910521
0.910457
0.910254
0.909773
0.909333
0.90904
0.90898
0.909203
0.910054
0.911496
0.912708
0.913314
0.913701
0.913818
0.913436
0.912899
0.912104
0.910619
0.909229
0.908453
0.9082
0.908762
0.909322
0.909572
0.909716
0.909879
0.910102
0.910073
0.908148
0.905505
0.906131
0.907717
0.90832
0.908346
0.908144
0.907915
0.907898
0.907921
0.907207
0.905497
0.904833
0.905634
0.906332
0.906333
0.906044
0.905789
0.905465
0.904974
0.904767
0.904864
0.905147
0.906386
0.911389
0.178323
0.178402
0.178915
0.179379
0.17977
0.180327
0.180934
0.181418
0.181864
0.181852
0.181942
0.182272
0.183135
0.184631
0.184658
0.184087
0.184466
0.185239
0.186118
0.187005
0.188091
0.189567
0.191312
0.192948
0.191793
0.191382
0.191858
0.192755
0.193768
0.194929
0.196235
0.197935
0.199126
0.20013
0.200877
0.201139
0.200408
0.19968
0.199238
0.198976
0.198931
0.199192
0.199605
0.200193
0.201033
0.201682
0.201085
0.200114
0.198459
0.196983
0.195725
0.194558
0.193427
0.192394
0.191846
0.192496
0.194137
0.192186
0.190232
0.188542
0.187433
0.186603
0.185832
0.18506
0.184455
0.1847
0.185648
0.185695
0.184187
0.182825
0.181854
0.181314
0.18099
0.180708
0.180522
0.180214
0.179889
0.179605
0.179101
0.179021
0.000105514
0.000134919
0.000179363
0.000187761
0.000256323
0.000343987
0.000285446
0.000246371
0.000357481
0.000457254
0.000485055
0.000408046
0.000326225
0.000256151
0.000204461
0.000165796
0.000128823
9.80367e-05
7.59845e-05
6.50035e-05
6.3359e-05
6.2798e-05
6.22492e-05
6.2798e-05
6.22581e-05
6.38288e-05
6.56608e-05
6.6364e-05
6.71402e-05
6.80333e-05
0.000103371
3.06019e-06
1.67066e-06
4.2788e-07
1.64143e-08
1.55043e-08
1.46622e-08
1.4602e-08
1.4577e-08
1.45259e-08
1.44861e-08
1.44879e-08
1.4486e-08
1.44879e-08
1.45647e-08
1.56792e-08
1.67995e-08
3.63526e-07
2.34992e-06
3.72616e-05
5.25739e-05
6.65104e-05
6.57543e-05
6.43621e-05
6.19228e-05
6.05771e-05
6.15043e-05
5.98167e-05
5.90664e-05
5.91442e-05
5.90741e-05
6.77388e-05
8.63878e-05
0.000111915
0.000143083
0.000181425
0.000232142
0.000298085
0.000375085
0.000452656
0.0005307
0.000543162
0.000457252
0.000369053
0.00028098
0.00019487
0.000108609
3.32476e-05
1.63106e-05
1.47475e-05
0.000105549
0.000211272
0.000195343
0.000187049
0.000363386
0.000372068
0.000323228
0.000246826
0.000449785
0.00123756
0.00123741
0.00123756
0.0006546
0.000303401
0.00158457
0.00313419
0.00313722
0.00313828
0.00313853
0.00313858
0.00313853
0.00313858
0.00313849
0.00218517
0.0036472
0.00364876
0.00364883
0.00364876
0.00364827
0.00364341
0.00361878
0.00289879
0.0023008
0.00170973
0.000873441
5.13392e-07
1.55043e-08
1.46622e-08
6.45258e-08
9.27773e-08
1.14595e-07
1.44879e-08
1.44879e-08
1.45647e-08
1.56792e-08
1.96316e-05
0.00115796
0.00246755
0.00360926
0.00387712
0.00394773
0.00394971
0.0039494
0.00395
0.00394937
0.00360158
0.001887
0.00366458
0.00366784
0.00366849
0.0036685
0.00366849
0.00366849
0.00366772
0.00343659
0.00237999
0.00114858
0.000642809
0.00111619
0.00111706
0.00107763
0.00099775
0.000821676
0.000793771
0.000791242
0.000693016
0.000341559
4.49517e-05
1.60965e-05
1.47475e-05
0.000133751
0.000211337
0.000136092
2.67162e-05
3.91195e-05
6.08202e-05
0.000135837
0.000344147
0.000383062
0.000332323
0.000405377
0.000798783
0.00113117
0.00113117
0.0011183
0.000565834
0.000502032
0.000478366
0.000614401
0.000684355
0.000677969
0.000635054
0.00055122
0.0006533
0.000342624
0.000230728
0.000135833
4.07719e-05
8.05449e-11
2.31463e-08
4.18007e-08
5.68205e-08
8.30307e-08
9.49947e-08
9.63708e-08
2.61376e-06
3.08733e-06
5.40254e-07
1.25517e-07
2.48415e-07
2.67469e-07
1.31292e-07
1.65933e-08
1.66318e-08
7.46516e-08
6.79665e-06
1.29918e-08
1.27029e-08
1.29526e-08
1.32022e-08
1.35143e-08
2.19057e-06
7.08399e-05
0.000167082
0.000261812
0.000413996
0.000548919
0.000220099
0.000253966
0.000202946
0.000154892
0.00011592
8.72947e-05
4.75843e-05
4.75696e-05
0.00045896
0.000713352
0.000235428
0.000110203
0.000106092
9.33669e-05
9.33586e-05
9.85011e-05
9.79608e-05
9.11991e-05
9.12744e-05
0.00017348
0.000239843
0.000239843
5.46962e-05
7.09244e-05
5.51547e-05
3.11055e-05
2.58566e-05
2.58566e-05
4.82286e-05
5.25318e-05
4.27785e-05
3.77625e-05
3.865e-05
7.90603e-05
0.000142979
8.08903e-05
0.000143737
5.56975e-05
4.6626e-05
0.000251384
0.000226522
3.72582e-05
2.37381e-07
1.08202e-07
1.15435e-07
9.70822e-08
4.96279e-08
5.20023e-09
2.77032e-10
8.8387e-11
8.05449e-11
8.05449e-11
1.12359e-06
1.85614e-06
1.86052e-06
1.85812e-06
9.68982e-07
9.58559e-08
1.84032e-06
3.09077e-06
1.19601e-07
8.26014e-08
2.15525e-07
9.0034e-08
6.43424e-08
1.86604e-08
3.37463e-06
1.15668e-05
6.20971e-06
1.61312e-06
1.29918e-08
1.32022e-08
1.35143e-08
1.5895e-08
1.59062e-08
3.08852e-07
3.30152e-07
2.58144e-06
2.43653e-05
6.15937e-05
6.84725e-05
4.00026e-05
4.00024e-05
4.00024e-05
4.00024e-05
4.01224e-05
5.06105e-05
6.99119e-05
6.19001e-05
5.6941e-05
5.69149e-05
6.56851e-05
0.000131245
0.000131393
0.000110857
9.07649e-05
8.83606e-05
9.02954e-05
0.000101236
0.000207368
0.000239843
0.000239843
4.01381e-05
5.80753e-06
5.88717e-06
2.19633e-05
5.2122e-05
5.36773e-05
5.37516e-05
5.37655e-05
5.37516e-05
5.06627e-05
1.51772e-05
8.89554e-07
7.99783e-07
7.67989e-07
7.68085e-07
1.5642e-05
3.55187e-05
2.07846e-06
1.99516e-05
0.000112745
0.000114772
8.09037e-05
2.12238e-05
2.05878e-05
1.80231e-05
6.21402e-06
2.06344e-07
2.66715e-10
8.6991e-11
5.01413e-11
1.64499e-11
1.26726e-11
1.24185e-11
1.23812e-11
1.23812e-11
1.55049e-06
2.9005e-06
2.04221e-06
6.35387e-08
6.35394e-08
6.35342e-08
7.19566e-08
1.86426e-07
2.03532e-05
6.02218e-05
6.73529e-05
5.06009e-05
1.97214e-07
4.97502e-08
2.28839e-06
1.07479e-05
1.50789e-05
6.61505e-06
3.19814e-07
4.42265e-07
3.22078e-05
0.000159806
0.00017406
0.000174038
0.00017385
0.000112924
4.00208e-05
4.83537e-05
0.000117431
0.000116069
0.00011287
3.35259e-05
2.42588e-05
0.000112851
0.000131245
0.000131398
0.000131245
0.000130268
0.000119983
8.24134e-05
0.000185202
0.000239179
0.000239553
0.000239826
0.000232404
3.92173e-05
5.80753e-06
5.80753e-06
5.88717e-06
2.13512e-05
5.37079e-05
5.37531e-05
4.93953e-05
2.97544e-05
1.35587e-05
1.35596e-05
1.41136e-05
1.29584e-05
8.87236e-06
3.71203e-06
1.14333e-06
8.79564e-07
8.79564e-07
2.03881e-06
9.02588e-06
3.98387e-05
7.74439e-05
7.70631e-05
7.61686e-05
7.59843e-05
6.99317e-05
3.26436e-05
1.24385e-06
5.59405e-09
5.2178e-10
5.93679e-11
3.56768e-11
2.90876e-11
1.25577e-11
1.23812e-11
2.96525e-06
2.95133e-06
3.99413e-07
6.38589e-08
6.35398e-08
7.19781e-08
5.44356e-07
3.69223e-05
6.76908e-05
6.77194e-05
6.76908e-05
6.54798e-05
8.32513e-06
2.15316e-05
8.3121e-05
6.25314e-05
1.00307e-05
7.06357e-06
1.67131e-05
0.00015482
0.00017402
0.000174066
0.000174038
0.000174062
0.000174038
0.000173854
0.000173097
0.000170708
0.00011216
5.2073e-05
6.99677e-05
4.87294e-05
5.34361e-06
4.86952e-06
7.86075e-05
0.000130977
6.46e-05
2.084e-05
2.61359e-05
5.15735e-05
0.000101422
0.000149832
0.000238594
0.000239553
0.000232788
9.52295e-05
6.87035e-06
1.47554e-05
3.8848e-05
2.99423e-05
1.99277e-05
1.93577e-05
7.09784e-06
3.63931e-06
2.87842e-05
3.55425e-05
3.5899e-05
3.59956e-05
3.59944e-05
3.61256e-05
2.63772e-05
1.36677e-05
2.12901e-06
1.72343e-06
1.48448e-06
1.16357e-06
2.18035e-06
8.31121e-06
6.32814e-05
7.57918e-05
7.53749e-05
7.49124e-05
4.47199e-05
1.03569e-06
1.71657e-08
1.12161e-09
6.96242e-11
1.95218e-11
1.28704e-11
1.72914e-06
2.96737e-06
2.61806e-06
6.69388e-08
6.35635e-08
6.83032e-08
1.47291e-07
2.12753e-05
6.75995e-05
6.77194e-05
6.76908e-05
6.38803e-05
1.63005e-05
8.74135e-06
7.41344e-05
9.32097e-05
5.31903e-05
1.34523e-05
1.55575e-05
0.00013752
0.000169051
0.000173293
0.000109518
7.18564e-06
1.75675e-05
4.04487e-05
4.84954e-05
2.96727e-05
3.96395e-06
3.85174e-08
3.87362e-08
3.92582e-08
4.18547e-08
5.13817e-08
8.76674e-08
2.29773e-07
9.86884e-07
8.14581e-06
1.21943e-05
1.05757e-05
1.05757e-05
1.05536e-05
1.05757e-05
2.87365e-05
0.000123699
9.87249e-05
4.3467e-05
0.000157462
0.000190745
0.000187814
0.000144954
2.00865e-05
9.68143e-08
2.02923e-08
4.40033e-09
2.50074e-06
1.10304e-05
2.15476e-05
2.98396e-05
3.57682e-05
3.64039e-05
3.65521e-05
3.65438e-05
3.62215e-05
1.0431e-05
1.04066e-06
8.14431e-07
6.2179e-07
3.62976e-07
2.68835e-07
1.11902e-05
7.09905e-05
7.49516e-05
7.44999e-05
1.18688e-05
4.30826e-08
2.40251e-09
1.83232e-10
6.96842e-11
2.25831e-07
2.93928e-06
2.96737e-06
6.1031e-07
7.04297e-08
6.69388e-08
7.06065e-08
1.15982e-07
1.00926e-05
6.24484e-05
6.75995e-05
3.22108e-05
7.77784e-07
1.07686e-06
2.10653e-06
3.23246e-05
9.82961e-05
9.96029e-05
9.1942e-05
0.000113296
0.000118641
6.77061e-05
4.93955e-07
3.66752e-07
5.33517e-08
4.39567e-08
3.79673e-08
3.79706e-08
3.79474e-08
3.79704e-08
3.81316e-08
3.86e-08
4.0265e-08
4.69788e-08
7.54064e-08
1.71839e-07
4.65798e-06
2.32711e-05
2.37526e-05
2.40744e-05
1.49851e-05
1.0551e-05
1.05757e-05
1.09122e-05
1.19372e-05
1.89293e-05
3.41311e-05
4.42094e-05
0.00022582
0.000221501
8.00634e-05
8.27924e-06
5.08942e-07
8.5465e-10
7.61039e-10
2.59359e-10
6.44546e-11
2.98399e-11
2.41474e-11
2.32739e-11
1.32329e-07
1.14993e-05
3.26209e-05
3.65438e-05
3.62851e-05
3.59727e-05
2.02053e-05
1.0252e-06
3.60325e-07
2.68841e-07
2.24989e-07
1.97956e-07
8.50508e-06
7.3395e-05
7.26082e-05
1.16003e-05
3.39603e-08
1.74862e-09
1.99713e-10
1.49821e-10
4.79969e-07
2.91118e-06
2.40582e-06
7.32598e-08
7.04155e-08
1.46979e-07
1.63418e-07
2.0333e-07
1.14036e-06
3.14809e-05
5.5732e-05
7.13893e-07
7.15857e-07
7.77693e-07
1.07453e-06
1.09303e-05
9.04413e-05
9.93895e-05
9.96559e-05
0.000102588
4.15288e-05
1.66934e-07
8.24078e-08
5.33502e-08
4.74287e-08
4.4063e-08
4.06045e-08
3.79706e-08
3.79706e-08
3.81312e-08
3.85983e-08
4.02602e-08
4.31252e-08
5.17699e-08
4.8191e-08
4.04241e-08
4.61606e-06
2.07313e-05
2.40197e-05
2.37526e-05
2.30203e-05
2.19047e-05
1.90997e-05
3.42356e-05
6.50994e-05
8.86807e-05
8.87034e-05
8.86807e-05
0.00022585
1.03091e-05
6.81134e-11
6.81988e-11
6.81988e-11
1.00438e-10
3.66768e-10
3.11677e-10
5.76314e-11
2.41474e-11
2.32739e-11
2.3214e-11
2.32739e-11
2.3214e-11
2.32866e-11
9.14023e-06
3.51504e-05
3.60179e-05
2.87272e-05
2.70965e-06
3.4404e-07
2.24989e-07
1.97956e-07
1.90032e-07
1.97956e-07
6.28992e-05
4.9076e-05
3.99402e-06
1.42472e-08
7.49044e-10
1.75701e-10
1.75736e-10
6.27474e-07
2.91118e-06
3.28714e-07
9.26358e-08
2.72729e-07
6.86298e-07
6.14216e-07
5.13169e-07
7.84835e-07
1.93826e-05
3.26993e-05
7.11482e-07
6.97104e-07
7.15857e-07
8.26724e-07
1.51325e-06
4.48292e-05
9.96086e-05
9.89871e-05
2.17954e-05
2.55975e-07
1.87295e-07
1.4771e-07
8.24078e-08
9.65412e-07
1.3661e-06
9.17059e-07
1.41889e-07
4.04992e-08
4.16537e-08
4.16143e-08
4.31049e-08
4.82802e-08
4.89686e-08
4.09118e-08
3.62638e-08
1.77965e-08
3.03542e-09
5.21736e-08
5.87511e-06
7.11626e-06
5.33215e-06
3.72374e-05
7.27246e-05
8.27576e-05
8.77162e-05
8.86807e-05
8.87226e-05
0.000225804
2.20379e-08
6.81988e-11
6.81333e-11
6.96985e-11
6.03153e-10
2.61079e-10
6.31923e-11
2.89548e-11
2.42756e-11
2.35884e-11
2.32739e-11
2.32739e-11
2.4699e-11
2.35267e-11
2.88998e-11
3.33427e-06
1.09658e-05
8.15188e-06
1.66634e-06
2.48886e-07
2.00246e-07
1.90032e-07
1.8869e-07
1.90032e-07
6.0221e-05
4.10049e-05
1.65436e-06
7.46787e-09
9.55973e-10
6.65412e-10
9.81422e-09
2.06145e-06
2.8796e-06
9.66696e-08
9.47677e-08
3.80922e-07
7.37869e-07
7.6908e-07
5.72855e-07
1.31153e-06
2.42879e-05
3.24041e-05
6.97104e-07
6.92782e-07
6.97104e-07
7.2568e-07
8.73982e-07
7.46025e-06
2.04004e-05
1.37808e-05
8.40287e-07
5.94228e-07
2.55975e-07
1.46997e-06
1.10136e-05
1.22205e-05
1.20878e-05
1.18757e-05
5.96595e-06
3.18572e-06
4.48275e-06
2.51357e-06
6.53992e-07
2.16632e-07
1.11187e-07
4.38882e-08
1.77965e-08
3.03542e-09
2.21729e-09
1.85699e-09
1.48393e-09
1.00728e-09
4.48818e-10
4.6837e-10
7.40163e-10
2.99859e-06
2.05514e-05
7.0952e-05
7.16674e-05
0.000191467
3.25562e-06
7.17429e-11
6.94943e-11
8.75782e-11
1.63198e-09
1.03794e-09
2.61011e-10
6.31867e-11
2.89544e-11
2.42756e-11
3.03255e-11
8.85618e-11
1.53547e-10
9.39406e-11
3.80271e-11
1.1646e-10
2.15504e-10
2.50545e-10
2.55601e-07
3.2978e-07
2.12311e-07
1.88905e-07
1.90032e-07
1.36854e-06
5.86516e-05
4.443e-05
2.33394e-06
5.65287e-09
9.34748e-10
8.84518e-10
1.3072e-07
2.16487e-06
2.09529e-06
9.19367e-08
9.20676e-08
1.61719e-07
4.39115e-07
3.1548e-07
2.80053e-07
2.14671e-06
2.58954e-05
3.1159e-05
6.92782e-07
6.92395e-07
6.92782e-07
6.97626e-07
7.26558e-07
8.7455e-07
1.39972e-06
1.19326e-06
1.0005e-06
8.40277e-07
1.23214e-06
1.09362e-05
1.22205e-05
1.22205e-05
1.22097e-05
1.2008e-05
1.17358e-05
1.13938e-05
1.11286e-05
1.09172e-05
1.06178e-05
7.7226e-06
6.52227e-06
3.13355e-06
6.07552e-07
1.14682e-08
2.47206e-09
2.21629e-09
1.34389e-09
4.47886e-10
4.48818e-10
4.48818e-10
4.6837e-10
7.40163e-10
6.30423e-09
1.56977e-05
4.42124e-05
0
7.0121e-07
6.49248e-10
8.65959e-11
2.39242e-10
1.8531e-08
1.21906e-08
5.04774e-09
5.69655e-10
9.53862e-11
3.3196e-11
9.00818e-11
2.35831e-10
2.66542e-10
1.15233e-10
1.1646e-10
2.15504e-10
2.50545e-10
1.43861e-09
4.09754e-07
2.40316e-06
6.42312e-07
1.90856e-07
1.8948e-07
9.77093e-06
6.05392e-05
4.76937e-05
2.64734e-06
3.93875e-09
8.84518e-10
8.84518e-10
2.86709e-07
2.16581e-06
2.75509e-07
9.20123e-08
9.1975e-08
9.20676e-08
9.83786e-08
1.15985e-07
1.46397e-07
2.25422e-06
2.31057e-05
3.01114e-05
6.92685e-07
6.92782e-07
6.92436e-07
6.94944e-07
7.12008e-07
8.00682e-07
3.10574e-06
1.30949e-05
9.07841e-06
4.17811e-06
9.54633e-06
1.11912e-05
1.09346e-05
5.37629e-07
7.34909e-09
6.03881e-07
3.54243e-06
4.46551e-06
5.3792e-06
7.91264e-06
1.06877e-05
1.0843e-05
1.08512e-05
1.08508e-05
1.0175e-05
3.30544e-06
4.46398e-09
2.46353e-09
1.02429e-08
7.57301e-09
4.48818e-10
4.56006e-10
5.10854e-10
6.02643e-10
6.55797e-09
2.02223e-05
8.27977e-05
-6.40448e-14
-1.45151e-14
2.75942e-09
2.30368e-10
1.31676e-09
1.66005e-06
1.09033e-06
5.81892e-07
6.09655e-09
7.44181e-10
1.53039e-10
2.05436e-10
2.77043e-10
2.82944e-10
4.59836e-10
9.71742e-10
1.15269e-09
1.29324e-07
1.3371e-06
2.49189e-06
2.49901e-06
1.78355e-06
1.95519e-07
1.90856e-07
2.82718e-05
6.16961e-05
4.93952e-05
2.22546e-06
4.35059e-09
2.8255e-09
8.84518e-10
6.07411e-07
2.15345e-06
8.50619e-08
9.27568e-08
3.16918e-07
1.14195e-07
1.07618e-07
1.10704e-07
1.19071e-07
1.68073e-06
2.47498e-05
3.38596e-05
7.06171e-07
6.92463e-07
6.94944e-07
7.12062e-07
6.26982e-06
1.35686e-05
1.51221e-05
1.49714e-05
1.46804e-05
1.41191e-05
4.61979e-06
1.03949e-06
7.63958e-07
7.34257e-10
7.96624e-10
8.22552e-10
9.50632e-10
1.15623e-09
6.15344e-10
2.21316e-10
1.25842e-06
5.22527e-06
8.73375e-06
1.08508e-05
1.07107e-05
1.05702e-05
1.84999e-06
4.47424e-09
1.55766e-07
1.00972e-07
4.56006e-10
5.35543e-10
7.01789e-10
2.17299e-10
9.84989e-10
1.45202e-06
6.97324e-05
-7.52331e-13
-8.09784e-14
-2.16053e-14
-2.82858e-11
3.74376e-06
1.62964e-05
1.17878e-05
8.58675e-07
7.88419e-09
1.02224e-09
3.40467e-10
3.23814e-10
3.15372e-10
3.7982e-09
4.74108e-09
1.36972e-08
3.88234e-07
2.34706e-06
2.49442e-06
2.50197e-06
2.5024e-06
2.49901e-06
2.6098e-07
1.95127e-07
4.56526e-05
6.20766e-05
4.08689e-05
8.95944e-07
3.72195e-09
3.72195e-09
9.56938e-09
1.23026e-06
2.12743e-06
6.13715e-08
2.97295e-07
4.59223e-07
4.47428e-07
1.28883e-07
1.15984e-07
1.20859e-07
7.3478e-07
2.44955e-05
3.73224e-05
1.35735e-05
7.06171e-07
7.81579e-07
9.44868e-06
1.50679e-05
1.52088e-05
1.51943e-05
1.51221e-05
1.49714e-05
6.30699e-06
2.87744e-08
3.33424e-09
7.07203e-10
7.34257e-10
9.32178e-10
3.50891e-09
4.64428e-09
2.94569e-09
3.05589e-10
1.05513e-10
6.47603e-11
5.3959e-11
5.64703e-11
1.88655e-06
7.41098e-06
8.01027e-06
3.59137e-06
1.05509e-07
1.85922e-07
1.35283e-07
4.99434e-10
3.86384e-09
8.61742e-10
1.97531e-10
2.4017e-09
1.16289e-07
1.34946e-12
-4.24243e-13
-1.7834e-14
-2.96984e-15
-1.16826e-11
1.63195e-05
1.69866e-05
1.5525e-05
6.43712e-07
4.35973e-09
1.21426e-09
4.50036e-10
4.00918e-10
3.41971e-10
9.4119e-08
2.29318e-06
3.61525e-06
3.88346e-06
1.65246e-06
2.49338e-06
2.5022e-06
2.50197e-06
1.49956e-06
2.3667e-07
1.98209e-07
5.60452e-05
6.2033e-05
1.91558e-05
1.29081e-07
3.1442e-09
2.68795e-09
1.30622e-07
1.21071e-06
6.33922e-07
5.2878e-08
3.16514e-07
4.59832e-07
4.6073e-07
4.51521e-07
2.19915e-07
1.2279e-07
1.03454e-07
1.49341e-05
3.80623e-05
3.82567e-05
3.95956e-06
1.37982e-06
4.81972e-06
1.52005e-05
1.51943e-05
1.52043e-05
1.51943e-05
1.21736e-05
2.87747e-08
3.064e-09
8.53868e-10
7.33913e-10
7.31309e-10
1.18624e-09
6.53656e-09
7.82194e-09
7.82194e-09
5.12257e-09
1.40305e-09
4.92494e-10
2.20925e-10
6.48875e-11
1.31966e-11
1.20163e-11
1.20542e-11
1.7099e-07
2.01008e-07
1.26508e-07
1.20548e-08
2.10586e-09
1.01997e-08
4.40406e-09
1.79854e-10
1.86893e-12
1.35286e-12
1.33394e-12
7.02927e-14
3.36774e-14
1.57772e-31
5.97952e-07
1.69866e-05
1.69866e-05
5.10411e-06
2.42155e-08
1.90759e-08
1.10601e-08
1.31006e-08
1.81041e-09
8.06581e-10
1.32193e-08
1.74374e-05
6.20307e-05
5.26428e-05
6.38167e-07
4.56521e-07
1.65321e-06
1.68706e-06
2.64294e-07
2.64294e-07
4.00905e-05
5.73783e-05
3.93527e-05
2.13098e-06
1.59546e-09
6.05546e-10
1.00024e-09
2.27897e-07
1.17802e-06
5.77818e-08
5.19655e-08
9.83884e-08
4.141e-07
4.59169e-07
4.60656e-07
3.12361e-07
1.1676e-07
2.71121e-08
2.78149e-06
3.23427e-05
3.90783e-05
3.7231e-05
5.05353e-06
4.07843e-06
4.58734e-06
9.3296e-06
1.18819e-05
1.02561e-05
1.93708e-06
3.068e-09
8.82796e-10
7.89843e-10
8.32416e-10
7.34257e-10
8.1429e-10
4.43037e-09
7.82194e-09
7.7346e-09
4.72293e-09
1.55658e-09
7.74303e-10
5.22029e-10
2.54835e-10
8.11079e-11
1.34869e-11
1.17719e-11
1.20632e-11
2.17002e-11
2.11745e-11
2.7328e-11
3.16269e-09
1.12461e-08
8.45125e-09
7.04508e-10
2.08292e-11
9.22673e-12
1.73874e-12
7.26441e-14
2.94953e-14
7.32582e-16
2.60773e-07
1.58045e-05
1.69866e-05
1.13942e-06
2.50258e-08
5.31607e-08
2.522e-07
2.5188e-07
1.89875e-09
1.84185e-09
1.45161e-08
2.4376e-05
7.09159e-05
7.09159e-05
5.43372e-05
3.73177e-07
3.69726e-07
3.80313e-07
3.41644e-07
1.80351e-05
5.97277e-05
5.47985e-05
4.07327e-06
6.09077e-09
1.20946e-10
6.08666e-11
2.20638e-10
1.87354e-07
1.05249e-06
6.95629e-08
5.08175e-08
4.77759e-08
6.92289e-08
2.50398e-07
2.87969e-07
1.02126e-07
8.95605e-08
9.81572e-09
3.93036e-08
8.26457e-06
3.9822e-05
4.02896e-05
3.98276e-05
2.14559e-05
5.5856e-06
2.10982e-06
1.35473e-06
1.95332e-07
5.45227e-09
1.01447e-09
7.87206e-10
7.90536e-10
3.52165e-09
4.31649e-09
9.02329e-10
1.65795e-09
3.57747e-09
2.61049e-09
6.60689e-10
2.0588e-10
2.53066e-10
2.48517e-10
2.08458e-10
1.17563e-10
3.05101e-11
1.14944e-11
1.06313e-10
5.30894e-11
3.62307e-11
3.74309e-11
3.83221e-09
1.13264e-08
9.8597e-09
9.80052e-10
1.27488e-11
1.15201e-11
2.63925e-12
4.45044e-14
2.18891e-14
2.25377e-15
7.306e-15
2.98625e-06
1.69565e-05
3.96224e-07
2.56887e-08
1.53167e-07
3.66977e-07
3.67134e-07
4.18262e-09
7.152e-09
1.95718e-08
2.88766e-08
2.04759e-05
6.95613e-05
7.58747e-05
5.97004e-05
3.87264e-07
3.93293e-07
1.60729e-05
6.30303e-05
6.01901e-05
1.25683e-05
3.36659e-08
7.94251e-10
5.95071e-11
1.48279e-11
6.07905e-11
5.76232e-08
4.52936e-07
9.7543e-07
5.9928e-08
4.66239e-08
4.51071e-08
2.81928e-08
1.40474e-08
8.17575e-09
9.75888e-09
6.8582e-09
9.75442e-09
7.5481e-08
1.42033e-05
4.02362e-05
4.05229e-05
4.07558e-05
3.99801e-05
3.44806e-05
3.12989e-05
2.61695e-05
1.65161e-05
3.78777e-06
1.32386e-07
1.90642e-07
1.50337e-07
5.51068e-08
2.84789e-09
4.489e-10
2.81732e-10
7.8367e-11
5.77292e-11
1.11012e-10
1.14143e-10
6.9908e-11
3.02866e-11
2.36577e-11
2.25865e-11
1.11334e-11
1.10983e-10
1.11006e-10
3.72299e-11
2.46675e-10
9.10775e-09
1.13264e-08
8.71506e-09
8.41501e-10
4.08405e-12
4.71454e-12
1.85085e-12
1.5368e-14
2.42537e-14
8.48982e-15
3.86069e-14
8.26086e-14
1.68524e-05
1.51249e-06
2.56887e-08
1.56432e-07
3.67166e-07
3.64845e-07
2.10755e-08
1.04451e-08
2.96349e-08
1.02277e-07
2.76538e-08
4.28035e-08
7.32418e-05
8.70382e-05
7.92955e-05
6.04703e-05
6.34654e-05
6.34372e-05
2.12057e-05
5.0267e-08
4.36235e-09
1.23017e-10
1.36322e-11
4.85509e-12
1.56902e-11
5.87919e-10
2.80233e-07
1.0904e-06
9.43357e-07
1.30114e-07
5.66473e-07
8.58002e-08
8.17577e-09
6.74985e-09
6.49425e-09
6.46546e-09
6.83446e-09
1.78228e-08
1.54531e-07
1.4635e-05
3.9528e-05
4.06502e-05
4.07562e-05
4.06502e-05
4.03155e-05
3.98528e-05
3.9305e-05
3.85942e-05
3.78553e-05
2.05358e-05
2.4782e-07
2.34079e-08
3.00628e-09
3.62746e-10
5.88088e-11
4.34572e-11
5.54481e-11
6.07629e-11