/*--------------------------------*- C++ -*----------------------------------*\
| =========                 |                                                 |
| \\      /  F ield         | OpenFOAM: The Open Source CFD Toolbox           |
|  \\    /   O peration     | Version:  2412                                  |
|   \\  /    A nd           | Website:  www.openfoam.com                      |
|    \\/     M anipulation  |                                                 |
\*---------------------------------------------------------------------------*/
FoamFile
{
    version     2.0;
    format      ascii;
    arch        "LSB;label=32;scalar=64";
    class       volScalarField;
    location    "3.19";
    object      p;
}
// * * * * * * * * * * * * * * * * * * * * * * * * * * * * * * * * * * * * * //

dimensions      [1 -1 -2 0 0 0 0];

internalField   nonuniform List<scalar> 
80000
(
29043
29043
29043
29043
29043
29043
29043.1
29043.1
29043.1
29043.1
29043.2
29043.2
29043.3
29043.3
29043.4
29043.4
29043.5
29043.6
29043.6
29043.7
29043.8
29043.9
29043.9
29044
29044.1
29044.2
29044.3
29044.4
29044.5
29044.7
29044.8
29044.9
29045
29045.2
29045.3
29045.4
29045.6
29045.7
29045.9
29046.1
29046.2
29046.4
29046.6
29046.8
29047
29047.1
29047.3
29047.5
29047.8
29048
29048.2
29048.4
29048.7
29048.9
29049.1
29049.4
29049.7
29049.9
29050.2
29050.5
29050.7
29051
29051.3
29051.6
29052
29052.3
29052.6
29052.9
29053.3
29053.6
29054
29054.4
29054.7
29055.1
29055.5
29055.9
29056.3
29056.7
29057.1
29057.6
29058
29058.5
29058.9
29059.4
29059.9
29060.4
29060.9
29061.4
29061.9
29062.5
29063
29063.6
29064.2
29064.7
29065.3
29065.9
29066.6
29067.2
29067.8
29068.5
29069.2
29069.9
29070.6
29071.3
29072
29072.7
29073.5
29074.3
29075.1
29075.9
29076.7
29077.5
29078.4
29079.2
29080.1
29081
29081.9
29082.9
29083.8
29084.8
29085.8
29086.8
29087.9
29088.9
29090
29091.1
29092.2
29093.4
29094.5
29095.7
29096.9
29098.2
29099.4
29100.7
29102
29103.4
29104.7
29106.1
29107.5
29108.9
29110.4
29111.9
29113.4
29115
29116.6
29118.2
29119.8
29121.5
29123.2
29124.9
29126.7
29128.5
29130.4
29132.2
29134.1
29136.1
29138.1
29140.1
29142.2
29144.3
29146.4
29148.6
29150.8
29153.1
29155.4
29157.7
29160.1
29162.5
29165
29167.5
29170.1
29172.7
29175.4
29178.1
29180.9
29183.7
29186.6
29189.5
29192.5
29195.5
29198.6
29201.8
29205
29208.2
29211.5
29214.9
29218.4
29221.9
29225.5
29229.1
29232.8
29236.6
29240.4
29244.3
29248.3
29252.3
29256.4
29260.6
29264.9
29269.3
29273.7
29278.2
29282.7
29287.4
29292.2
29297
29301.9
29306.9
29312
29317.1
29322.4
29327.8
29333.2
29338.7
29344.4
29350.1
29355.9
29361.9
29367.9
29374
29380.3
29386.6
29393.1
29399.6
29406.3
29413.1
29420
29427
29434.1
29441.4
29448.7
29456.2
29463.8
29471.6
29479.4
29487.4
29495.5
29503.8
29512.1
29520.7
29529.3
29538.1
29547
29556.1
29565.3
29574.6
29584.1
29593.8
29603.5
29613.5
29623.6
29633.8
29644.2
29654.8
29665.5
29676.3
29687.4
29698.6
29709.9
29721.4
29733.1
29745
29757
29769.2
29781.5
29794.1
29806.8
29819.6
29832.7
29845.9
29859.3
29872.9
29886.7
29900.6
29914.7
29929.1
29943.5
29958.2
29973.1
29988.1
30003.3
30018.7
30034.3
30050.1
30066
30082.2
30098.5
30115
30131.7
30148.5
30165.6
30182.8
30200.2
30217.8
30235.6
30253.5
30271.6
30289.9
30308.4
30327
30345.8
30364.7
30383.9
30403.1
30422.6
30442.1
30461.9
30481.8
30501.8
30522
30542.3
30562.7
30583.3
30603.9
30624.7
30645.6
30666.7
30687.8
30709
30730.3
30751.6
30773.1
30794.6
30816.2
30837.8
30859.5
30881.2
30903
30924.7
30946.5
30968.3
30990
31011.8
31033.5
31055.1
31076.7
31098.2
31119.7
31141.1
31162.3
31183.4
31204.4
31225.3
31246
31266.5
31286.8
31307
31326.8
31346.5
31365.9
31385
31403.8
31422.3
31440.4
31458.2
31475.6
31492.6
31509.2
31525.4
31541.1
31556.3
31571.1
31585.3
31598.9
31611.9
31624.4
31636.2
31647.4
31657.9
31667.6
31676.7
31685
31692.5
31699.2
31705.1
31710.1
31714.2
31717.4
31719.7
31720.9
31721.2
31720.5
31718.8
31715.9
31712
31706.9
31700.7
31693.4
31684.8
31675.1
31664.1
31651.9
31638.5
31623.8
31607.8
31590.5
31571.8
31551.9
31530.7
31508.1
31484.1
31458.9
31432.2
31404.2
31374.9
31344.3
31312.2
31278.9
31244.2
31208.1
31170.8
31132.1
31092.1
31050.8
31008.2
30964.4
30919.3
30872.9
30825.3
30776.5
30726.5
30675.2
30622.9
30569.3
30514.6
30458.8
30402
30344
30285
30224.9
30163.8
30101.7
30038.7
29974.7
29909.9
29844.1
29777.5
29710
29641.7
29572.6
29502.9
29432.6
29361.6
29290
29217.8
29145.2
29072.2
28998.9
28925.1
28851.1
28776.9
28702.6
28628.2
28553.9
28479.6
28405.6
28331.9
28258.5
28185.6
28113.3
28041.6
27970.6
27900.5
27831.4
27763.4
27696.5
27630.9
27566.6
27503.8
27442.6
27383.1
27325.3
27269.5
27215.6
27163.8
27114.2
27066.8
27021.8
26979.3
26939.3
26901.9
26867.2
26835.2
26806.1
26779.9
26756.7
26736.5
26719.4
26705.4
26694.7
26687.1
26682.8
26681.8
26684.2
26689.9
26699
26711.3
26727.2
26746.3
26768.9
26794.7
26823.9
26856.3
26891.9
26930.7
26972.7
27017.6
27065.6
27116.4
27170
27226.3
27285.2
27346.5
27410.1
27475.9
27543.7
27613.4
27684.8
27757.8
27832.1
27907.6
27984.1
28061.5
28139.5
28217.9
28296.6
28375.4
28454
28532.4
28610.2
28687.4
28763.8
28839.2
28913.4
28986.5
29058.2
29128.2
29196.4
29263.1
29327.9
29390.6
29451.2
29510
29566.6
29621.1
29673.5
29723.7
29771.7
29817.6
29861.4
29903.1
29942.7
29980.3
30015.9
30049.6
30081.5
30111.6
30140
30166.8
30192.1
30215.9
30238.3
30259.5
30279.4
30298.2
30316
30332.7
30348.5
30363.3
30377.4
30390.6
30403.1
30414.9
30425.9
30436.2
30445.8
30454.6
30462.8
30470.2
30476.8
30482.5
30487.4
30491.5
30494.7
30496.9
30498.3
30498.7
30498.2
30496.7
30494.3
30491
30486.6
30481.3
30475.1
30467.9
30459.8
30450.8
30440.8
30429.9
30418
30405.1
30391.2
30376.2
30360.1
30342.8
30324.2
30304.4
30283.2
30260.5
30236.2
30210.3
30182.7
30153.3
30122.1
30088.9
30053.6
30016.2
29976.6
29934.8
29890.7
29844.2
29795.3
29744.1
29690.3
29634.2
29575.6
29514.6
29451.3
29385.8
29317.9
29247.7
29175.4
29101.2
29025.1
28947.1
28867.6
28786.8
28704.8
28621.8
28537.9
28453.4
28368.5
28283.5
28198.5
28113.8
28029.7
27946.4
27864.1
27783.2
27703.7
27626.1
27550.4
27476.9
27405.9
27337.5
27271.9
27209.4
27150
27094
27041.4
26992.5
26947.4
26906.1
26868.7
26835.3
26806.1
26780.9
26760
26743.3
26730.9
26722.7
26718.7
26719.1
26723.6
26732.3
26745.1
26762.1
26783
26807.9
26836.7
26869.3
26905.7
26945.6
26989.1
27035.9
27086.1
27139.4
27195.8
27255.1
27317.1
27381.8
27449.1
27518.6
27590.4
27664.3
27740.1
27817.6
27896.8
27977.4
28059.3
28142.4
28226.5
28311.4
28397
28483.2
28569.8
28656.7
28743.7
28830.7
28917.6
29004.1
29090.3
29176.2
29261.4
29346.1
29429.9
29512.8
29594.9
29676.1
29756.2
29835
29912.7
29989.1
30064.1
30137.9
30210.2
30281
30350.4
30418.3
30484.6
30549.4
30612.5
30674
30733.8
30792
30848.4
30903.1
30956.1
31007.3
31056.7
31104.3
31150.1
31194.1
31236.2
31276.5
31314.9
31351.4
31386
31418.8
31449.6
31478.5
31505.5
31530.6
31553.9
31575.2
31594.6
31612.1
31627.8
31641.6
31653.6
31663.8
31672.2
31678.8
31683.7
31686.9
31688.4
31688.2
31686.5
31683.2
31678.5
31672.2
31664.5
31655.5
31645.1
31633.4
31620.4
31606.3
31591.1
31574.7
31557.3
31538.9
31519.5
31499.2
31478
31456
31433.2
31409.7
31385.5
31360.6
31335.1
31309
31282.4
31255.3
31227.7
31199.7
31171.4
31142.6
31113.6
31084.3
31054.7
31024.9
30995
30964.9
30934.6
30904.3
30874
30843.6
30813.2
30782.9
30752.5
30722.3
30692.2
30662.2
30632.3
30602.6
30573
30543.7
30514.6
30485.7
30457
30428.6
30400.5
30372.6
30345.1
30317.8
30290.8
30264.2
30237.9
30211.9
30186.3
30161
30136.1
30111.5
30087.3
30063.4
30039.9
30016.8
29994
29971.6
29949.6
29927.9
29906.7
29885.8
29865.2
29845
29825.2
29805.8
29786.7
29768
29749.7
29731.7
29714
29696.7
29679.8
29663.2
29647
29631.1
29615.5
29600.3
29585.3
29570.8
29556.5
29542.5
29528.9
29515.5
29502.5
29489.8
29477.3
29465.1
29453.3
29441.7
29430.4
29419.3
29408.5
29398
29387.7
29377.7
29367.9
29358.4
29349.1
29340
29331.2
29322.6
29314.2
29306
29298.1
29290.3
29282.7
29275.4
29268.2
29261.2
29254.5
29247.8
29241.4
29235.1
29229.1
29223.1
29217.4
29211.8
29206.3
29201
29195.9
29190.9
29186
29181.3
29176.7
29172.2
29167.9
29163.6
29159.5
29155.6
29151.7
29148
29144.3
29140.8
29137.4
29134
29130.8
29127.7
29124.6
29121.7
29118.8
29116.1
29113.4
29110.8
29108.2
29105.8
29103.4
29101.1
29098.9
29096.7
29094.6
29092.6
29090.6
29088.7
29086.9
29085.1
29083.4
29081.7
29080.1
29078.5
29077
29075.6
29074.1
29072.8
29071.5
29070.2
29068.9
29067.8
29066.6
29065.5
29064.4
29063.4
29062.4
29061.4
29060.5
29059.6
29058.7
29057.9
29057.1
29056.3
29055.5
29054.8
29054.1
29053.5
29052.8
29052.2
29051.6
29051.1
29050.5
29050
29049.5
29049
29048.6
29048.2
29047.7
29047.4
29047
29046.6
29046.3
29046
29045.7
29045.4
29045.1
29044.9
29044.6
29044.4
29044.2
29044.1
29043.9
29043.7
29043.6
29043.5
29043.4
29043.3
29043.2
29043.2
29043.1
29043.1
29043.1
28307.2
28307.2
28307.2
28307.2
28307.3
28307.3
28307.3
28307.3
28307.4
28307.4
28307.4
28307.5
28307.5
28307.6
28307.6
28307.7
28307.7
28307.8
28307.9
28307.9
28308
28308.1
28308.2
28308.3
28308.4
28308.5
28308.6
28308.7
28308.8
28308.9
28309
28309.1
28309.3
28309.4
28309.5
28309.7
28309.8
28310
28310.1
28310.3
28310.5
28310.6
28310.8
28311
28311.2
28311.4
28311.6
28311.8
28312
28312.2
28312.4
28312.7
28312.9
28313.1
28313.4
28313.6
28313.9
28314.2
28314.4
28314.7
28315
28315.3
28315.6
28315.9
28316.2
28316.5
28316.8
28317.2
28317.5
28317.9
28318.2
28318.6
28319
28319.3
28319.7
28320.1
28320.5
28321
28321.4
28321.8
28322.3
28322.7
28323.2
28323.7
28324.1
28324.6
28325.1
28325.6
28326.2
28326.7
28327.3
28327.8
28328.4
28329
28329.6
28330.2
28330.8
28331.4
28332.1
28332.7
28333.4
28334.1
28334.8
28335.5
28336.2
28337
28337.7
28338.5
28339.3
28340.1
28340.9
28341.7
28342.6
28343.5
28344.3
28345.2
28346.2
28347.1
28348.1
28349
28350
28351.1
28352.1
28353.2
28354.2
28355.3
28356.4
28357.6
28358.8
28359.9
28361.1
28362.4
28363.6
28364.9
28366.2
28367.6
28368.9
28370.3
28371.7
28373.2
28374.6
28376.1
28377.6
28379.2
28380.8
28382.4
28384
28385.7
28387.4
28389.1
28390.9
28392.7
28394.6
28396.4
28398.3
28400.3
28402.3
28404.3
28406.3
28408.4
28410.6
28412.8
28415
28417.2
28419.5
28421.9
28424.3
28426.7
28429.2
28431.7
28434.3
28436.9
28439.6
28442.3
28445.1
28447.9
28450.7
28453.7
28456.7
28459.7
28462.8
28465.9
28469.1
28472.4
28475.7
28479.1
28482.5
28486
28489.6
28493.2
28496.9
28500.7
28504.5
28508.4
28512.4
28516.5
28520.6
28524.8
28529
28533.4
28537.8
28542.3
28546.9
28551.5
28556.3
28561.1
28566
28571
28576.1
28581.3
28586.5
28591.9
28597.3
28602.8
28608.5
28614.2
28620
28626
28632
28638.1
28644.4
28650.7
28657.2
28663.7
28670.4
28677.2
28684.1
28691.1
28698.2
28705.4
28712.8
28720.3
28727.9
28735.6
28743.5
28751.5
28759.6
28767.8
28776.2
28784.7
28793.3
28802.1
28811.1
28820.1
28829.3
28838.7
28848.2
28857.8
28867.6
28877.5
28887.6
28897.8
28908.2
28918.8
28929.5
28940.4
28951.4
28962.6
28973.9
28985.4
28997.1
29009
29021
29033.2
29045.5
29058.1
29070.8
29083.6
29096.7
29109.9
29123.3
29136.9
29150.7
29164.6
29178.7
29193
29207.5
29222.2
29237
29252.1
29267.3
29282.7
29298.3
29314.1
29330
29346.2
29362.5
29379
29395.7
29412.5
29429.6
29446.8
29464.2
29481.8
29499.6
29517.5
29535.6
29553.9
29572.4
29591
29609.8
29628.7
29647.9
29667.1
29686.6
29706.2
29725.9
29745.8
29765.8
29786
29806.3
29826.7
29847.3
29868
29888.8
29909.7
29930.7
29951.9
29973.1
29994.4
30015.8
30037.2
30058.8
30080.3
30102
30123.7
30145.4
30167.2
30188.9
30210.7
30232.5
30254.3
30276
30297.7
30319.4
30341
30362.6
30384
30405.4
30426.7
30447.8
30468.9
30489.7
30510.4
30531
30551.3
30571.5
30591.4
30611
30630.4
30649.6
30668.4
30686.9
30705.1
30722.9
30740.4
30757.4
30774
30790.2
30806
30821.2
30836
30850.2
30863.9
30876.9
30889.4
30901.3
30912.5
30923
30932.8
30941.9
30950.2
30957.8
30964.5
30970.4
30975.4
30979.6
30982.8
30985.1
30986.4
30986.7
30986
30984.3
30981.5
30977.6
30972.6
30966.4
30959
30950.5
30940.8
30929.9
30917.7
30904.2
30889.5
30873.5
30856.2
30837.6
30817.7
30796.4
30773.8
30749.9
30724.6
30698
30670
30640.6
30609.9
30577.9
30544.5
30509.8
30473.7
30436.4
30397.6
30357.6
30316.3
30273.7
30229.8
30184.7
30138.3
30090.7
30041.8
29991.7
29940.5
29888.1
29834.5
29779.8
29724
29667
29609
29550
29489.8
29428.7
29366.6
29303.5
29239.5
29174.6
29108.8
29042.1
28974.6
28906.3
28837.2
28767.4
28697
28625.9
28554.2
28482
28409.4
28336.3
28262.8
28189
28114.9
28040.6
27966.2
27891.8
27817.4
27743
27668.9
27595.1
27521.6
27448.6
27376.2
27304.4
27233.3
27163.2
27093.9
27025.8
26958.8
26893.1
26828.7
26765.8
26704.5
26644.9
26587.1
26531.1
26477.2
26425.3
26375.6
26328.2
26283.1
26240.5
26200.4
26163
26128.2
26096.2
26067.1
26040.8
26017.6
25997.3
25980.2
25966.2
25955.4
25947.9
25943.6
25942.6
25944.9
25950.6
25959.7
25972.1
25987.9
26007.1
26029.6
26055.5
26084.6
26117.1
26152.8
26191.6
26233.6
26278.6
26326.6
26377.5
26431.2
26487.6
26546.5
26607.9
26671.7
26737.6
26805.5
26875.3
26946.9
27020
27094.4
27170.1
27246.8
27324.3
27402.5
27481.1
27560
27638.9
27717.8
27796.3
27874.3
27951.7
28028.3
28103.8
28178.2
28251.4
28323.1
28393.3
28461.8
28528.5
28593.4
28656.2
28717
28775.8
28832.6
28887.1
28939.5
28989.8
29037.8
29083.7
29127.5
29169.2
29208.8
29246.3
29281.9
29315.6
29347.4
29377.5
29405.8
29432.6
29457.8
29481.5
29503.8
29524.9
29544.8
29563.5
29581.1
29597.8
29613.5
29628.3
29642.3
29655.5
29667.9
29679.6
29690.6
29700.9
29710.4
29719.3
29727.4
29734.8
29741.3
29747.1
29752
29756.1
29759.3
29761.6
29763
29763.4
29762.9
29761.4
29759
29755.7
29751.3
29746.1
29739.9
29732.7
29724.6
29715.6
29705.7
29694.8
29683
29670.2
29656.3
29641.4
29625.3
29608.1
29589.6
29569.9
29548.7
29526.1
29501.9
29476.1
29448.6
29419.2
29388
29354.9
29319.6
29282.3
29242.7
29200.9
29156.8
29110.3
29061.4
29010.1
28956.3
28900.1
28841.5
28780.4
28717
28651.3
28583.3
28513
28440.5
28366.2
28289.9
28211.8
28132.2
28051.3
27969
27885.8
27801.7
27717.1
27632
27546.7
27461.5
27376.7
27292.4
27208.9
27126.5
27045.4
26965.8
26888
26812.2
26738.6
26667.4
26598.9
26533.2
26470.6
26411.1
26355
26302.4
26253.5
26208.3
26166.9
26129.5
26096.1
26066.8
26041.7
26020.7
26004
25991.6
25983.4
25979.5
25979.8
25984.4
25993.1
26006
26022.9
26043.9
26068.9
26097.7
26130.4
26166.8
26206.8
26250.3
26297.2
26347.5
26400.9
26457.3
26516.7
26578.8
26643.7
26711
26780.7
26852.6
26926.6
27002.5
27080.1
27159.4
27240.1
27322.1
27405.3
27489.5
27574.6
27660.3
27746.6
27833.3
27920.3
28007.4
28094.5
28181.5
28268.1
28354.5
28440.4
28525.8
28610.4
28694.3
28777.4
28859.6
28940.8
29020.9
29099.8
29177.5
29253.9
29329.1
29402.8
29475.2
29546.1
29615.5
29683.4
29749.8
29814.6
29877.7
29939.3
29999.1
30057.3
30113.8
30168.5
30221.5
30272.7
30322.2
30369.8
30415.6
30459.6
30501.7
30542
30580.4
30617
30651.6
30684.4
30715.2
30744.1
30771.1
30796.3
30819.5
30840.8
30860.2
30877.8
30893.4
30907.2
30919.2
30929.4
30937.7
30944.3
30949.2
30952.3
30953.8
30953.6
30951.9
30948.6
30943.8
30937.5
30929.8
30920.7
30910.2
30898.5
30885.5
30871.4
30856.1
30839.7
30822.2
30803.8
30784.3
30764
30742.8
30720.8
30698
30674.4
30650.1
30625.2
30599.7
30573.6
30547
30519.8
30492.2
30464.2
30435.8
30407
30378
30348.6
30319
30289.2
30259.2
30229.1
30198.9
30168.6
30138.2
30107.8
30077.4
30047
30016.7
29986.4
29956.3
29926.2
29896.4
29866.6
29837.1
29807.7
29778.6
29749.7
29721
29692.6
29664.5
29636.6
29609.1
29581.8
29554.8
29528.2
29501.9
29475.9
29450.3
29425
29400.1
29375.5
29351.3
29327.4
29303.9
29280.8
29258
29235.6
29213.6
29191.9
29170.6
29149.7
29129.2
29109
29089.2
29069.8
29050.7
29032
29013.7
28995.7
28978
28960.8
28943.8
28927.2
28911
28895.1
28879.5
28864.3
28849.4
28834.8
28820.5
28806.6
28792.9
28779.6
28766.5
28753.8
28741.4
28729.2
28717.3
28705.7
28694.4
28683.4
28672.6
28662.1
28651.8
28641.8
28632
28622.5
28613.2
28604.1
28595.3
28586.7
28578.3
28570.1
28562.2
28554.4
28546.9
28539.5
28532.3
28525.4
28518.6
28512
28505.5
28499.3
28493.2
28487.3
28481.5
28475.9
28470.5
28465.2
28460
28455
28450.2
28445.4
28440.8
28436.4
28432
28427.8
28423.7
28419.8
28415.9
28412.1
28408.5
28405
28401.6
28398.2
28395
28391.9
28388.8
28385.9
28383
28380.3
28377.6
28375
28372.4
28370
28367.6
28365.3
28363.1
28360.9
28358.8
28356.8
28354.9
28353
28351.1
28349.3
28347.6
28345.9
28344.3
28342.8
28341.2
28339.8
28338.4
28337
28335.7
28334.4
28333.2
28332
28330.8
28329.7
28328.6
28327.6
28326.6
28325.6
28324.7
28323.8
28322.9
28322.1
28321.3
28320.5
28319.8
28319.1
28318.4
28317.7
28317.1
28316.5
28315.9
28315.3
28314.8
28314.2
28313.8
28313.3
28312.8
28312.4
28312
28311.6
28311.2
28310.9
28310.5
28310.2
28309.9
28309.6
28309.4
28309.1
28308.9
28308.7
28308.5
28308.3
28308.1
28308
28307.8
28307.7
28307.6
28307.5
28307.5
28307.4
28307.4
28307.3
28307.3
27571.5
27571.5
27571.5
27571.5
27571.5
27571.5
27571.5
27571.6
27571.6
27571.6
27571.7
27571.7
27571.7
27571.8
27571.8
27571.9
27572
27572
27572.1
27572.2
27572.2
27572.3
27572.4
27572.5
27572.6
27572.7
27572.8
27572.9
27573
27573.1
27573.2
27573.4
27573.5
27573.6
27573.8
27573.9
27574.1
27574.2
27574.4
27574.5
27574.7
27574.9
27575
27575.2
27575.4
27575.6
27575.8
27576
27576.2
27576.4
27576.7
27576.9
27577.1
27577.4
27577.6
27577.9
27578.1
27578.4
27578.6
27578.9
27579.2
27579.5
27579.8
27580.1
27580.4
27580.7
27581.1
27581.4
27581.7
27582.1
27582.4
27582.8
27583.2
27583.6
27584
27584.3
27584.8
27585.2
27585.6
27586
27586.5
27586.9
27587.4
27587.9
27588.3
27588.8
27589.3
27589.9
27590.4
27590.9
27591.5
27592
27592.6
27593.2
27593.8
27594.4
27595
27595.6
27596.3
27596.9
27597.6
27598.3
27599
27599.7
27600.4
27601.2
27601.9
27602.7
27603.5
27604.3
27605.1
27605.9
27606.8
27607.6
27608.5
27609.4
27610.4
27611.3
27612.3
27613.2
27614.2
27615.2
27616.3
27617.3
27618.4
27619.5
27620.6
27621.8
27622.9
27624.1
27625.3
27626.6
27627.8
27629.1
27630.4
27631.7
27633.1
27634.5
27635.9
27637.3
27638.8
27640.3
27641.8
27643.3
27644.9
27646.5
27648.2
27649.8
27651.5
27653.3
27655
27656.9
27658.7
27660.6
27662.5
27664.4
27666.4
27668.4
27670.5
27672.6
27674.7
27676.9
27679.1
27681.3
27683.6
27686
27688.4
27690.8
27693.3
27695.8
27698.4
27701
27703.7
27706.4
27709.1
27712
27714.8
27717.8
27720.7
27723.8
27726.8
27730
27733.2
27736.4
27739.8
27743.1
27746.6
27750.1
27753.7
27757.3
27761
27764.7
27768.6
27772.5
27776.4
27780.5
27784.6
27788.8
27793.1
27797.4
27801.8
27806.3
27810.9
27815.5
27820.3
27825.1
27830
27835
27840.1
27845.2
27850.5
27855.8
27861.3
27866.8
27872.4
27878.2
27884
27889.9
27895.9
27902.1
27908.3
27914.6
27921.1
27927.6
27934.3
27941.1
27948
27955
27962.1
27969.3
27976.7
27984.2
27991.8
27999.5
28007.4
28015.3
28023.4
28031.7
28040
28048.6
28057.2
28066
28074.9
28083.9
28093.1
28102.5
28112
28121.6
28131.4
28141.3
28151.4
28161.6
28172
28182.6
28193.3
28204.1
28215.2
28226.3
28237.7
28249.2
28260.9
28272.7
28284.7
28296.9
28309.3
28321.8
28334.5
28347.4
28360.4
28373.6
28387.1
28400.6
28414.4
28428.3
28442.5
28456.8
28471.2
28485.9
28500.8
28515.8
28531
28546.4
28562
28577.8
28593.7
28609.9
28626.2
28642.7
28659.4
28676.3
28693.3
28710.5
28728
28745.5
28763.3
28781.3
28799.4
28817.7
28836.1
28854.8
28873.6
28892.5
28911.6
28930.9
28950.4
28970
28989.7
29009.6
29029.7
29049.8
29070.2
29090.6
29111.2
29131.9
29152.7
29173.6
29194.7
29215.8
29237
29258.4
29279.8
29301.2
29322.8
29344.4
29366.1
29387.8
29409.5
29431.3
29453.1
29474.9
29496.7
29518.5
29540.3
29562
29583.7
29605.4
29627
29648.5
29669.9
29691.2
29712.4
29733.4
29754.3
29775.1
29795.7
29816.1
29836.2
29856.2
29875.9
29895.4
29914.5
29933.4
29952
29970.2
29988.1
30005.6
30022.7
30039.4
30055.6
30071.4
30086.7
30101.5
30115.8
30129.5
30142.7
30155.2
30167.1
30178.4
30189
30198.9
30208
30216.4
30224
30230.8
30236.8
30241.9
30246.1
30249.4
30251.7
30253.1
30253.5
30252.9
30251.2
30248.4
30244.6
30239.6
30233.4
30226.2
30217.7
30208
30197.1
30184.9
30171.5
30156.8
30140.8
30123.5
30104.9
30085
30063.7
30041.1
30017.2
29991.9
29965.2
29937.2
29907.8
29877.1
29845
29811.6
29776.8
29740.7
29703.3
29664.5
29624.5
29583.1
29540.4
29496.5
29451.3
29404.8
29357.1
29308.2
29258.1
29206.8
29154.3
29100.6
29045.8
28989.9
28932.9
28874.8
28815.7
28755.5
28694.3
28632.1
28568.9
28504.8
28439.8
28373.9
28307.1
28239.5
28171.1
28101.9
28032.1
27961.5
27890.3
27818.5
27746.2
27673.4
27600.2
27526.5
27452.6
27378.3
27303.9
27229.3
27154.7
27080.1
27005.6
26931.3
26857.3
26783.6
26710.4
26637.8
26565.8
26494.5
26424.2
26354.7
26286.4
26219.2
26153.2
26088.7
26025.6
25964.1
25904.3
25846.3
25790.2
25736.1
25684.1
25634.2
25586.7
25541.5
25498.7
25458.5
25421
25386.1
25354
25324.8
25298.4
25275.1
25254.8
25237.6
25223.6
25212.7
25205.1
25200.8
25199.8
25202.1
25207.8
25216.9
25229.3
25245.1
25264.3
25286.9
25312.8
25342
25374.5
25410.3
25449.2
25491.3
25536.4
25584.5
25635.5
25689.4
25745.9
25805
25866.6
25930.5
25996.7
26064.9
26134.9
26206.7
26280.1
26354.9
26430.9
26507.9
26585.7
26664.2
26743.2
26822.4
26901.7
26980.9
27059.8
27138.2
27215.9
27292.8
27368.7
27443.5
27516.9
27588.9
27659.4
27728.1
27795.1
27860.2
27923.3
27984.3
28043.3
28100.1
28154.8
28207.3
28257.6
28305.8
28351.7
28395.5
28437.1
28476.7
28514.2
28549.7
28583.3
28615.1
28645
28673.2
28699.8
28724.8
28748.4
28770.6
28791.5
28811.2
28829.7
28847.2
28863.7
28879.2
28893.9
28907.8
28920.9
28933.2
28944.9
28955.8
28966
28975.5
28984.3
28992.4
28999.7
29006.3
29012.1
29017
29021.1
29024.3
29026.7
29028.1
29028.5
29028
29026.6
29024.2
29020.9
29016.6
29011.3
29005.1
28998.1
28990
28981.1
28971.3
28960.5
28948.7
28936
28922.3
28907.5
28891.5
28874.5
28856.2
28836.5
28815.5
28793
28769
28743.3
28716
28686.8
28655.7
28622.6
28587.4
28550.1
28510.6
28468.8
28424.7
28378.2
28329.3
28277.9
28224.1
28167.8
28109
28047.8
27984.1
27918.2
27849.9
27779.4
27706.6
27632
27555.4
27477
27397.1
27315.8
27233.2
27149.6
27065.1
26980
26894.6
26808.9
26723.4
26638.2
26553.5
26469.7
26386.9
26305.5
26225.6
26147.5
26071.4
25997.5
25926.1
25857.4
25791.5
25728.7
25669.1
25612.8
25560.1
25511.1
25465.8
25424.3
25386.8
25353.4
25324.1
25298.9
25278
25261.3
25248.8
25240.7
25236.8
25237.1
25241.7
25250.5
25263.4
25280.5
25301.5
25326.6
25355.5
25388.3
25424.8
25464.9
25508.6
25555.6
25606
25659.6
25716.2
25775.8
25838.1
25903.1
25970.6
26040.5
26112.6
26186.8
26262.9
26340.8
26420.3
26501.3
26583.6
26667
26751.4
26836.7
26922.6
27009.2
27096.1
27183.3
27270.6
27357.9
27445.1
27532
27618.5
27704.6
27790.1
27875
27959
28042.2
28124.5
28205.8
28286
28365.1
28442.9
28519.5
28594.7
28668.5
28741
28812
28881.5
28949.5
29015.9
29080.8
29144
29205.6
29265.5
29323.7
29380.3
29435
29488.1
29539.3
29588.8
29636.5
29682.4
29726.4
29768.6
29808.9
29847.3
29883.9
29918.5
29951.3
29982.1
30011.1
30038.1
30063.3
30086.5
30107.8
30127.2
30144.7
30160.4
30174.1
30186.1
30196.2
30204.5
30211.1
30215.9
30219
30220.4
30220.2
30218.4
30215
30210.1
30203.8
30196
30186.8
30176.3
30164.5
30151.5
30137.2
30121.8
30105.4
30087.8
30069.3
30049.8
30029.4
30008.1
29986
29963.2
29939.5
29915.2
29890.2
29864.6
29838.5
29811.8
29784.6
29756.9
29728.9
29700.4
29671.6
29642.5
29613.1
29583.4
29553.6
29523.6
29493.4
29463.1
29432.8
29402.3
29371.9
29341.5
29311
29280.7
29250.4
29220.2
29190.2
29160.3
29130.5
29101
29071.6
29042.4
29013.5
28984.8
28956.4
28928.3
28900.4
28872.8
28845.5
28818.6
28791.9
28765.6
28739.6
28714
28688.7
28663.8
28639.2
28615
28591.1
28567.6
28544.5
28521.7
28499.3
28477.3
28455.6
28434.4
28413.5
28392.9
28372.8
28353
28333.5
28314.5
28295.7
28277.4
28259.4
28241.8
28224.5
28207.6
28191
28174.8
28158.9
28143.3
28128.1
28113.2
28098.6
28084.3
28070.4
28056.8
28043.4
28030.4
28017.7
28005.2
27993.1
27981.2
27969.6
27958.3
27947.3
27936.5
27926
27915.7
27905.7
27895.9
27886.4
27877.1
27868.1
27859.3
27850.7
27842.3
27834.1
27826.2
27818.4
27810.9
27803.5
27796.4
27789.4
27782.6
27776
27769.6
27763.3
27757.2
27751.3
27745.6
27740
27734.5
27729.2
27724.1
27719.1
27714.2
27709.5
27704.9
27700.5
27696.1
27691.9
27687.8
27683.9
27680
27676.3
27672.6
27669.1
27665.7
27662.4
27659.1
27656
27653
27650
27647.2
27644.4
27641.7
27639.1
27636.6
27634.2
27631.8
27629.5
27627.3
27625.1
27623
27621
27619
27617.1
27615.3
27613.5
27611.8
27610.1
27608.5
27607
27605.4
27604
27602.6
27601.2
27599.9
27598.6
27597.4
27596.2
27595
27593.9
27592.8
27591.8
27590.8
27589.8
27588.9
27588
27587.2
27586.3
27585.5
27584.7
27584
27583.3
27582.6
27581.9
27581.3
27580.7
27580.1
27579.5
27579
27578.5
27578
27577.5
27577.1
27576.6
27576.2
27575.8
27575.4
27575.1
27574.8
27574.4
27574.1
27573.9
27573.6
27573.4
27573.1
27572.9
27572.7
27572.5
27572.4
27572.2
27572.1
27572
27571.9
27571.8
27571.7
27571.6
27571.6
27571.6
27571.5
26835.7
26835.7
26835.7
26835.7
26835.7
26835.7
26835.8
26835.8
26835.8
26835.8
26835.9
26835.9
26836
26836
26836.1
26836.1
26836.2
26836.3
26836.3
26836.4
26836.5
26836.6
26836.6
26836.7
26836.8
26836.9
26837
26837.1
26837.2
26837.4
26837.5
26837.6
26837.7
26837.9
26838
26838.1
26838.3
26838.4
26838.6
26838.8
26838.9
26839.1
26839.3
26839.5
26839.6
26839.8
26840
26840.2
26840.4
26840.7
26840.9
26841.1
26841.3
26841.6
26841.8
26842.1
26842.3
26842.6
26842.9
26843.1
26843.4
26843.7
26844
26844.3
26844.6
26844.9
26845.3
26845.6
26845.9
26846.3
26846.6
26847
26847.4
26847.8
26848.2
26848.6
26849
26849.4
26849.8
26850.2
26850.7
26851.1
26851.6
26852.1
26852.5
26853
26853.5
26854.1
26854.6
26855.1
26855.7
26856.2
26856.8
26857.4
26858
26858.6
26859.2
26859.8
26860.4
26861.1
26861.8
26862.5
26863.2
26863.9
26864.6
26865.3
26866.1
26866.9
26867.6
26868.4
26869.3
26870.1
26870.9
26871.8
26872.7
26873.6
26874.5
26875.4
26876.4
26877.4
26878.4
26879.4
26880.4
26881.5
26882.5
26883.6
26884.8
26885.9
26887.1
26888.2
26889.5
26890.7
26891.9
26893.2
26894.5
26895.8
26897.2
26898.6
26900
26901.4
26902.9
26904.4
26905.9
26907.4
26909
26910.6
26912.3
26913.9
26915.6
26917.4
26919.1
26920.9
26922.8
26924.6
26926.5
26928.5
26930.5
26932.5
26934.5
26936.6
26938.8
26940.9
26943.1
26945.4
26947.7
26950
26952.4
26954.8
26957.3
26959.8
26962.4
26965
26967.7
26970.4
26973.1
26976
26978.8
26981.7
26984.7
26987.7
26990.8
26994
26997.2
27000.4
27003.7
27007.1
27010.5
27014
27017.6
27021.2
27024.9
27028.7
27032.5
27036.4
27040.4
27044.4
27048.5
27052.7
27057
27061.3
27065.7
27070.2
27074.8
27079.4
27084.1
27088.9
27093.8
27098.8
27103.9
27109.1
27114.3
27119.7
27125.1
27130.6
27136.2
27142
27147.8
27153.7
27159.7
27165.8
27172.1
27178.4
27184.8
27191.4
27198.1
27204.8
27211.7
27218.7
27225.8
27233.1
27240.4
27247.9
27255.5
27263.2
27271
27279
27287.1
27295.3
27303.7
27312.2
27320.8
27329.6
27338.5
27347.6
27356.8
27366.1
27375.6
27385.2
27395
27404.9
27415
27425.2
27435.6
27446.1
27456.8
27467.7
27478.7
27489.9
27501.2
27512.7
27524.4
27536.2
27548.2
27560.4
27572.8
27585.3
27598
27610.9
27623.9
27637.1
27650.5
27664.1
27677.9
27691.8
27705.9
27720.2
27734.7
27749.4
27764.2
27779.3
27794.5
27809.9
27825.5
27841.2
27857.2
27873.3
27889.6
27906.2
27922.8
27939.7
27956.8
27974
27991.4
28009
28026.8
28044.7
28062.9
28081.2
28099.6
28118.3
28137.1
28156
28175.2
28194.5
28213.9
28233.5
28253.3
28273.2
28293.3
28313.5
28333.8
28354.3
28374.9
28395.6
28416.4
28437.4
28458.4
28479.6
28500.8
28522.2
28543.6
28565.1
28586.7
28608.3
28630
28651.8
28673.6
28695.4
28717.2
28739.1
28760.9
28782.7
28804.6
28826.3
28848.1
28869.8
28891.4
28913
28934.4
28955.8
28977
28998.1
29019.1
29039.9
29060.6
29081
29101.3
29121.3
29141.1
29160.6
29179.8
29198.8
29217.4
29235.7
29253.7
29271.3
29288.5
29305.2
29321.6
29337.4
29352.8
29367.7
29382.1
29395.9
29409.2
29421.8
29433.8
29445.2
29455.9
29465.8
29475.1
29483.6
29491.3
29498.2
29504.3
29509.5
29513.8
29517.1
29519.6
29521
29521.5
29521
29519.4
29516.7
29512.9
29508
29501.9
29494.7
29486.3
29476.6
29465.8
29453.6
29440.3
29425.6
29409.6
29392.3
29373.7
29353.8
29332.5
29309.9
29285.9
29260.6
29233.9
29205.9
29176.5
29145.7
29113.6
29080.1
29045.3
29009.1
28971.6
28932.7
28892.6
28851.1
28808.4
28764.4
28719.1
28672.5
28624.7
28575.7
28525.5
28474.1
28421.5
28367.7
28312.8
28256.8
28199.7
28141.5
28082.2
28021.9
27960.6
27898.2
27834.9
27770.7
27705.5
27639.5
27572.6
27504.8
27436.3
27366.9
27296.9
27226.2
27154.8
27082.8
27010.3
26937.3
26863.8
26790
26715.8
26641.3
26566.6
26491.8
26416.9
26342.1
26267.3
26192.7
26118.4
26044.5
25971
25898
25825.8
25754.2
25683.5
25613.8
25545.1
25477.6
25411.4
25346.6
25283.2
25221.5
25161.4
25103.1
25046.8
24992.4
24940.1
24890.1
24842.3
24796.9
24753.9
24713.6
24675.8
24640.8
24608.6
24579.2
24552.7
24529.3
24508.9
24491.6
24477.5
24466.6
24458.9
24454.6
24453.5
24455.8
24461.5
24470.5
24483
24498.8
24518
24540.6
24566.6
24595.9
24628.5
24664.3
24703.4
24745.6
24790.9
24839.2
24890.4
24944.4
25001.2
25060.6
25122.5
25186.7
25253.2
25321.7
25392.2
25464.4
25538.2
25613.4
25689.8
25767.3
25845.7
25924.7
26004.2
26083.9
26163.8
26243.5
26322.9
26401.9
26480.1
26557.5
26633.9
26709.2
26783.1
26855.6
26926.4
26995.6
27062.9
27128.3
27191.8
27253.1
27312.3
27369.4
27424.3
27476.9
27527.4
27575.6
27621.6
27665.3
27707
27746.5
27783.9
27819.3
27852.8
27884.4
27914.1
27942.1
27968.5
27993.3
28016.6
28038.6
28059.2
28078.7
28097
28114.2
28130.5
28145.8
28160.3
28173.9
28186.8
28199
28210.5
28221.3
28231.4
28240.9
28249.7
28257.7
28265.1
28271.6
28277.4
28282.4
28286.5
28289.8
28292.1
28293.6
28294
28293.6
28292.2
28289.8
28286.5
28282.3
28277.1
28271
28263.9
28256
28247.2
28237.4
28226.8
28215.2
28202.6
28189.1
28174.5
28158.8
28141.9
28123.8
28104.4
28083.6
28061.4
28037.6
28012.1
27984.9
27955.9
27925
27892.1
27857
27819.8
27780.4
27738.6
27694.5
27648
27599
27547.5
27493.5
27437.1
27378.1
27316.6
27252.7
27186.4
27117.8
27046.9
26973.6
26898.6
26821.5
26742.7
26662.3
26580.4
26497.2
26413.1
26328
26242.4
26156.3
26070.1
25984
25898.2
25813
25728.7
25645.4
25563.4
25483.1
25404.5
25328
25253.8
25182.1
25113
25046.8
24983.7
24923.9
24867.4
24814.5
24765.3
24719.8
24678.3
24640.7
24607.2
24577.8
24552.6
24531.6
24514.9
24502.5
24494.4
24490.5
24491
24495.6
24504.5
24517.5
24534.6
24555.8
24581
24610.1
24643
24679.7
24720
24763.9
24811.1
24861.7
24915.5
24972.4
25032.2
25094.8
25160.1
25228
25298.2
25370.6
25445.1
25521.6
25599.8
25679.6
25760.9
25843.5
25927.3
26012.1
26097.7
26184
26270.9
26358.1
26445.6
26533.3
26620.9
26708.3
26795.6
26882.4
26968.7
27054.5
27139.6
27223.9
27307.3
27389.8
27471.3
27551.7
27630.9
27708.9
27785.6
27861