/*--------------------------------*- C++ -*----------------------------------*\
| =========                 |                                                 |
| \\      /  F ield         | OpenFOAM: The Open Source CFD Toolbox           |
|  \\    /   O peration     | Version:  2412                                  |
|   \\  /    A nd           | Website:  www.openfoam.com                      |
|    \\/     M anipulation  |                                                 |
\*---------------------------------------------------------------------------*/
FoamFile
{
    version     2.0;
    format      ascii;
    arch        "LSB;label=32;scalar=64";
    class       surfaceScalarField;
    location    "7.3";
    object      alphaPhi0.oil;
}
// * * * * * * * * * * * * * * * * * * * * * * * * * * * * * * * * * * * * * //

dimensions      [0 3 -1 0 0 0 0];

oriented        oriented;

internalField   nonuniform List<scalar> 
12640
(
-2.20294e-08
2.19113e-08
-1.1913e-07
9.67968e-08
-2.70787e-07
1.5142e-07
-4.48754e-07
1.78009e-07
-6.32855e-07
1.84124e-07
-8.10484e-07
1.7773e-07
-9.75172e-07
1.64775e-07
-1.12464e-06
1.49554e-07
-1.25883e-06
1.34331e-07
-1.37885e-06
1.2024e-07
-1.48645e-06
1.07896e-07
-1.58318e-06
9.71074e-08
-1.67022e-06
8.74821e-08
-1.74848e-06
7.8758e-08
-1.81823e-06
7.03479e-08
-1.87927e-06
6.16766e-08
-1.93118e-06
5.25474e-08
-1.97356e-06
4.29598e-08
-2.0059e-06
3.28829e-08
-2.02764e-06
2.22766e-08
-2.03821e-06
1.10921e-08
-2.03711e-06
-6.42523e-10
-2.02391e-06
-1.2856e-08
-1.99825e-06
-2.54371e-08
-1.9599e-06
-3.82615e-08
-1.90866e-06
-5.12617e-08
-1.84439e-06
-6.4419e-08
-1.76692e-06
-7.77209e-08
-1.67618e-06
-9.10984e-08
-1.57216e-06
-1.04457e-07
-1.45501e-06
-1.17666e-07
-1.32502e-06
-1.30589e-07
-1.18262e-06
-1.43069e-07
-1.02848e-06
-1.54894e-07
-8.63506e-07
-1.65814e-07
-6.88918e-07
-1.75509e-07
-5.06202e-07
-1.83706e-07
-3.17067e-07
-1.9018e-07
-1.23469e-07
-1.94685e-07
7.23916e-08
-1.96981e-07
2.68255e-07
-1.97009e-07
4.61878e-07
-1.94786e-07
6.50999e-07
-1.90295e-07
8.33616e-07
-1.83793e-07
1.00788e-06
-1.75438e-07
1.17209e-06
-1.65358e-07
1.32489e-06
-1.53921e-07
1.46525e-06
-1.41436e-07
1.59248e-06
-1.28255e-07
1.70618e-06
-1.14659e-07
1.80602e-06
-1.00749e-07
1.89188e-06
-8.67077e-08
1.9638e-06
-7.27073e-08
2.02186e-06
-5.87679e-08
2.06624e-06
-4.49963e-08
2.09718e-06
-3.14676e-08
2.11499e-06
-1.82352e-08
2.12001e-06
-5.35887e-09
2.11268e-06
7.09506e-09
2.09355e-06
1.89874e-08
2.06326e-06
3.02361e-08
2.02249e-06
4.08047e-08
1.97194e-06
5.06524e-08
1.91233e-06
5.97769e-08
1.84431e-06
6.82537e-08
1.76834e-06
7.62815e-08
1.68451e-06
8.41851e-08
1.59263e-06
9.22866e-08
1.49201e-06
1.01044e-07
1.38149e-06
1.10961e-07
1.25948e-06
1.22457e-07
1.12423e-06
1.35702e-07
9.74385e-07
1.50306e-07
8.09797e-07
1.65053e-07
6.32706e-07
1.77546e-07
4.49312e-07
1.83837e-07
2.71779e-07
1.77986e-07
1.20339e-07
1.51933e-07
2.32011e-08
9.76608e-08
2.37605e-08
-9.7677e-08
1.19935e-07
-3.47739e-07
3.46994e-07
-6.99665e-07
5.03329e-07
-1.10213e-06
5.80597e-07
-1.51595e-06
5.97967e-07
-1.91518e-06
5.77091e-07
-2.28576e-06
5.35559e-07
-2.62204e-06
4.86111e-07
-2.92369e-06
4.36367e-07
-3.19334e-06
3.90391e-07
-3.43475e-06
3.4991e-07
-3.65149e-06
3.14583e-07
-3.84659e-06
2.83431e-07
-4.02229e-06
2.55377e-07
-4.17965e-06
2.28691e-07
-4.31851e-06
2.01564e-07
-4.43794e-06
1.73032e-07
-4.53674e-06
1.42774e-07
-4.61358e-06
1.10633e-07
-4.66706e-06
7.6539e-08
-4.69576e-06
4.04299e-08
-4.69832e-06
2.37381e-09
-4.67347e-06
-3.74464e-08
-4.62011e-06
-7.87459e-08
-4.53731e-06
-1.21183e-07
-4.42436e-06
-1.64501e-07
-4.28069e-06
-2.08553e-07
-4.10581e-06
-2.53223e-07
-3.89939e-06
-2.98311e-07
-3.66127e-06
-3.4353e-07
-3.39157e-06
-3.88465e-07
-3.0908e-06
-4.32614e-07
-2.75994e-06
-4.75327e-07
-2.40053e-06
-5.15832e-07
-2.01478e-06
-5.53227e-07
-1.60558e-06
-5.8649e-07
-1.17651e-06
-6.14649e-07
-7.31801e-07
-6.36835e-07
-2.76266e-07
-6.52227e-07
1.84808e-07
-6.60101e-07
6.45838e-07
-6.60111e-07
1.10125e-06
-6.5228e-07
1.54563e-06
-6.36751e-07
1.97397e-06
-6.14192e-07
2.38177e-06
-5.8525e-07
2.76504e-06
-5.50587e-07
3.1205e-06
-5.11269e-07
3.44565e-06
-4.68384e-07
3.73882e-06
-4.23118e-07
3.99902e-06
-3.76441e-07
4.22577e-06
-3.28963e-07
4.41899e-06
-2.81243e-07
4.57886e-06
-2.33765e-07
4.70594e-06
-1.86853e-07
4.8008e-06
-1.40729e-07
4.86426e-06
-9.56322e-08
4.89732e-06
-5.18313e-08
4.90111e-06
-9.53318e-09
4.87696e-06
3.10253e-08
4.82643e-06
6.94425e-08
4.75123e-06
1.05513e-07
4.65315e-06
1.39088e-07
4.53401e-06
1.70119e-07
4.39557e-06
1.98661e-07
4.23928e-06
2.25062e-07
4.06616e-06
2.49998e-07
3.87637e-06
2.74608e-07
3.66921e-06
3.00124e-07
3.44289e-06
3.28068e-07
3.19455e-06
3.60033e-07
2.92042e-06
3.97323e-07
2.61656e-06
4.40325e-07
2.27999e-06
4.8763e-07
1.91052e-06
5.35274e-07
1.51321e-06
5.75632e-07
1.10146e-06
5.96422e-07
7.00434e-07
5.79975e-07
3.49324e-07
5.04156e-07
9.90643e-08
3.49138e-07
1.23054e-07
-1.54733e-07
2.74593e-07
-5.10767e-07
7.02963e-07
-9.87525e-07
9.80017e-07
-1.52109e-06
1.11418e-06
-2.06424e-06
1.14104e-06
-2.58545e-06
1.09836e-06
-3.06763e-06
1.01781e-06
-3.504e-06
9.22546e-07
-3.8944e-06
8.26872e-07
-4.24262e-06
7.38742e-07
-4.55392e-06
6.61358e-07
-4.83325e-06
5.94108e-07
-5.08487e-06
5.35323e-07
-5.31205e-06
4.82878e-07
-5.51652e-06
4.3356e-07
-5.69835e-06
3.83886e-07
-5.85646e-06
3.31663e-07
-5.98912e-06
2.75896e-07
-6.09435e-06
2.16214e-07
-6.17005e-06
1.52494e-07
-6.2141e-06
8.46503e-08
-6.22438e-06
1.27699e-08
-6.19891e-06
-6.28667e-08
-6.13592e-06
-1.41781e-07
-6.03386e-06
-2.23365e-07
-5.89147e-06
-3.07097e-07
-5.70769e-06
-3.92626e-07
-5.48167e-06
-4.79659e-07
-5.21269e-06
-5.67833e-07
-4.90027e-06
-6.56603e-07
-4.54432e-06
-7.45183e-07
-4.14527e-06
-8.32515e-07
-3.70426e-06
-9.17259e-07
-3.22327e-06
-9.97816e-07
-2.70525e-06
-1.07232e-06
-2.15414e-06
-1.13874e-06
-1.5749e-06
-1.19509e-06
-9.7352e-07
-1.23946e-06
-3.56817e-07
-1.27021e-06
2.67718e-07
-1.28594e-06
8.92209e-07
-1.28591e-06
1.50868e-06
-1.27006e-06
2.10945e-06
-1.23882e-06
2.68741e-06
-1.19343e-06
3.23616e-06
-1.13524e-06
3.75021e-06
-1.06585e-06
4.22508e-06
-9.87307e-07
4.6574e-06
-9.01811e-07
5.04495e-06
-8.11689e-07
5.38652e-06
-7.18954e-07
5.68174e-06
-6.25025e-07
5.93077e-06
-5.31022e-07
6.13417e-06
-4.37833e-07
6.29291e-06
-3.46171e-07
6.40819e-06
-2.56507e-07
6.48144e-06
-1.69296e-07
6.51431e-06
-8.50145e-08
6.50868e-06
-4.1374e-09
6.46673e-06
7.28369e-08
6.39085e-06
1.45284e-07
6.28359e-06
2.12809e-07
6.14762e-06
2.75165e-07
5.98557e-06
3.3232e-07
5.79993e-06
3.84499e-07
5.5927e-06
4.32488e-07
5.36519e-06
4.77725e-07
5.11757e-06
5.2245e-07
4.84871e-06
5.69217e-07
4.55603e-06
6.21014e-07
4.23542e-06
6.8092e-07
3.8816e-06
7.5142e-07
3.48901e-06
8.33184e-07
3.05334e-06
9.2355e-07
2.5738e-06
1.01504e-06
2.05622e-06
1.09344e-06
1.51685e-06
1.13609e-06
9.86166e-07
1.11105e-06
5.11108e-07
9.7963e-07
1.55179e-07
7.05623e-07
2.78038e-07
-1.85654e-07
4.60097e-07
-6.01816e-07
1.11893e-06
-1.14626e-06
1.52428e-06
-1.74561e-06
1.71341e-06
-2.34869e-06
1.74387e-06
-2.92263e-06
1.67217e-06
-3.45018e-06
1.54518e-06
-3.92502e-06
1.39713e-06
-4.34799e-06
1.24954e-06
-4.72415e-06
1.11455e-06
-5.06001e-06
9.96806e-07
-5.36153e-06
8.95189e-07
-5.63366e-06
8.07036e-07
-5.88023e-06
7.29049e-07
-6.10349e-06
6.56499e-07
-6.30398e-06
5.84143e-07
-6.48065e-06
5.08209e-07
-6.63138e-06
4.2656e-07
-6.75363e-06
3.38395e-07
-6.84473e-06
2.43498e-07
-6.90193e-06
1.41753e-07
-6.92256e-06
3.33083e-08
-6.90411e-06
-8.14305e-08
-6.84426e-06
-2.01776e-07
-6.74096e-06
-3.26846e-07
-6.59242e-06
-4.55837e-07
-6.39709e-06
-5.88167e-07
-6.15366e-06
-7.23335e-07
-5.86103e-06
-8.60766e-07
-5.51834e-06
-9.99654e-07
-5.12507e-06
-1.13884e-06
-4.68136e-06
-1.27664e-06
-4.18813e-06
-1.41091e-06
-3.64739e-06
-1.53899e-06
-3.0623e-06
-1.65784e-06
-2.43739e-06
-1.7641e-06
-1.77856e-06
-1.8544e-06
-1.09295e-06
-1.92556e-06
-3.88781e-07
-1.97488e-06
3.24916e-07
-2.00013e-06
1.03863e-06
-2.00012e-06
1.74271e-06
-1.9746e-06
2.42775e-06
-1.9243e-06
3.08508e-06
-1.85117e-06
3.70701e-06
-1.75756e-06
4.28713e-06
-1.64634e-06
4.82032e-06
-1.52084e-06
5.30282e-06
-1.38463e-06
5.73224e-06
-1.24141e-06
6.10747e-06
-1.09445e-06
6.42844e-06
-9.46201e-07
6.69577e-06
-7.98526e-07
6.9106e-06
-6.52804e-07
7.07436e-06
-5.1006e-07
7.18886e-06
-3.71113e-07
7.25613e-06
-2.36655e-07
7.27841e-06
-1.07372e-07
7.25822e-06
1.59852e-08
7.19837e-06
1.3264e-07
7.10186e-06
2.41752e-07
6.97192e-06
3.42717e-07
6.81186e-06
4.35189e-07
6.62495e-06
5.19182e-07
6.41417e-06
5.95208e-07
6.18195e-06
6.64594e-07
5.9298e-06
7.29705e-07
5.658e-06
7.94041e-07
5.36517e-06
8.61812e-07
5.04813e-06
9.37809e-07
4.70187e-06
1.02693e-06
4.31997e-06
1.13307e-06
3.89551e-06
1.25738e-06
3.42281e-06
1.39598e-06
2.89989e-06
1.53769e-06
2.33182e-06
1.66124e-06
1.73486e-06
1.73281e-06
1.14065e-06
1.70503e-06
5.99652e-07
1.5203e-06
1.84869e-07
1.1201e-06
4.62306e-07
-1.98238e-07
6.58195e-07
-6.38985e-07
1.55931e-06
-1.2085e-06
2.09343e-06
-1.82751e-06
2.33208e-06
-2.44333e-06
2.35916e-06
-3.02369e-06
2.25212e-06
-3.55286e-06
2.07381e-06
-4.026e-06
1.8696e-06
-4.44527e-06
1.66806e-06
-4.81712e-06
1.48556e-06
-5.1492e-06
1.32786e-06
-5.4481e-06
1.19296e-06
-5.71912e-06
1.07686e-06
-5.96616e-06
9.74894e-07
-6.19172e-06
8.80906e-07
-6.39655e-06
7.88017e-07
-6.57974e-06
6.90616e-07
-6.73893e-06
5.85194e-07
-6.87122e-06
4.70235e-07
-6.97342e-06
3.4532e-07
-7.04232e-06
2.10374e-07
-7.07486e-06
6.5636e-08
-7.06814e-06
-8.83178e-08
-7.01948e-06
-2.5059e-07
-6.92641e-06
-4.20051e-07
-6.78672e-06
-5.95623e-07
-6.59842e-06
-7.76494e-07
-6.35977e-06
-9.61948e-07
-6.06926e-06
-1.15118e-06
-5.72563e-06
-1.34316e-06
-5.32784e-06
-1.53645e-06
-4.87545e-06
-1.72881e-06
-4.36891e-06
-1.91716e-06
-3.80987e-06
-2.09767e-06
-3.20143e-06
-2.26587e-06
-2.54833e-06
-2.41676e-06
-1.85701e-06
-2.54523e-06
-1.13544e-06
-2.64664e-06
-3.92827e-07
-2.717e-06
3.607e-07
-2.75315e-06
1.11439e-06
-2.75328e-06
1.85731e-06
-2.71697e-06
2.5788e-06
-2.64521e-06
3.26895e-06
-2.54075e-06
3.91916e-06
-2.40717e-06
4.52236e-06
-2.24896e-06
5.07315e-06
-2.07106e-06
5.56772e-06
-1.87868e-06
6.00393e-06
-1.67714e-06
6.38105e-06
-1.47112e-06
6.6995e-06
-1.26425e-06
6.96056e-06
-1.05921e-06
7.16599e-06
-8.57901e-07
7.31786e-06
-6.61643e-07
7.41845e-06
-4.71486e-07
7.47027e-06
-2.88316e-07
7.47602e-06
-1.13029e-07
7.43862e-06
5.33947e-08
7.36129e-06
2.09905e-07
7.24751e-06
3.55402e-07
7.10097e-06
4.89061e-07
6.92545e-06
6.10441e-07
6.72467e-06
7.1963e-07
6.50206e-06
8.17412e-07
6.26045e-06
9.05703e-07
6.00167e-06
9.87876e-07
5.72611e-06
1.0689e-06
5.43232e-06
1.15481e-06
5.11685e-06
1.25243e-06
4.77413e-06
1.36873e-06
4.39691e-06
1.50936e-06
3.97715e-06
1.67618e-06
3.50785e-06
1.8643e-06
2.98557e-06
2.05903e-06
2.41379e-06
2.23214e-06
1.80723e-06
2.33856e-06
1.19654e-06
2.31489e-06
6.33203e-07
2.08261e-06
1.96301e-07
1.55586e-06
6.57764e-07
-1.99827e-07
8.57853e-07
-6.41704e-07
2.00056e-06
-1.20741e-06
2.65848e-06
-1.81549e-06
2.93952e-06
-2.41385e-06
2.95664e-06
-2.97213e-06
2.8097e-06
-3.47705e-06
2.57791e-06
-3.92578e-06
2.31732e-06
-4.32181e-06
2.06305e-06
-4.67273e-06
1.83539e-06
-4.98704e-06
1.64092e-06
-5.27187e-06
1.47631e-06
-5.53234e-06
1.33574e-06
-5.77209e-06
1.21297e-06
-5.99338e-06
1.1005e-06
-6.19691e-06
9.89971e-07
-6.38167e-06
8.74008e-07
-6.54527e-06
7.47684e-07
-6.68455e-06
6.0862e-07
-6.79599e-06
4.56026e-07
-6.87607e-06
2.89881e-07
-6.92141e-06
1.10569e-07
-6.92887e-06
-8.11411e-08
-6.89552e-06
-2.84139e-07
-6.81865e-06
-4.97064e-07
-6.69575e-06
-7.18584e-07
-6.52452e-06
-9.47659e-07
-6.30289e-06
-1.18337e-06
-6.02902e-06
-1.42471e-06
-5.70117e-06
-1.67056e-06
-5.31772e-06
-1.91935e-06
-4.87752e-06
-2.16836e-06
-4.3803e-06
-2.41362e-06
-3.8271e-06
-2.64999e-06
-3.2207e-06
-2.87128e-06
-2.56581e-06
-3.07055e-06
-1.86915e-06
-3.24072e-06
-1.13926e-06
-3.37531e-06
-3.86118e-07
-3.46889e-06
3.79181e-07
-3.51718e-06
1.14487e-06
-3.51768e-06
1.89895e-06
-3.46975e-06
2.6297e-06
-3.37464e-06
3.32626e-06
-3.23596e-06
3.97921e-06
-3.05878e-06
4.58093e-06
-2.84935e-06
5.12594e-06
-2.61477e-06
5.61064e-06
-2.36215e-06
6.03337e-06
-2.09872e-06
6.39413e-06
-1.83081e-06
6.69413e-06
-1.5633e-06
6.9354e-06
-1.29961e-06
7.12034e-06
-1.04207e-06
7.25155e-06
-7.92191e-07
7.33177e-06
-5.51147e-07
7.36379e-06
-3.19908e-07
7.35056e-06
-9.95144e-08
7.29524e-06
1.08854e-07
7.20126e-06
3.03863e-07
7.07233e-06
4.84155e-07
6.91241e-06
6.48647e-07
6.72564e-06
7.96743e-07
6.51612e-06
9.28562e-07
6.28765e-06
1.04515e-06
6.04352e-06
1.14898e-06
5.78592e-06
1.24448e-06
5.51558e-06
1.33811e-06
5.23128e-06
1.43786e-06
4.92955e-06
1.55285e-06
4.60464e-06
1.69225e-06
4.24885e-06
1.86373e-06
3.85354e-06
2.07007e-06
3.41065e-06
2.30576e-06
2.91523e-06
2.55304e-06
2.36873e-06
2.77725e-06
1.78345e-06
2.92245e-06
1.18764e-06
2.90923e-06
6.31975e-07
2.63664e-06
1.97418e-07
1.98872e-06
8.54244e-07
-1.95622e-07
1.05315e-06
-6.2498e-07
2.42896e-06
-1.1693e-06
3.20179e-06
-1.74819e-06
3.51747e-06
-2.31218e-06
3.51942e-06
-2.83379e-06
3.3304e-06
-3.30284e-06
3.04591e-06
-3.71849e-06
2.73179e-06
-4.08532e-06
2.42878e-06
-4.41154e-06
2.16057e-06
-4.706e-06
1.93424e-06
-4.97598e-06
1.74495e-06
-5.2262e-06
1.58442e-06
-5.45966e-06
1.4447e-06
-5.67799e-06
1.31697e-06
-5.88143e-06
1.19153e-06
-6.06872e-06
1.05953e-06
-6.23732e-06
9.14729e-07
-6.38392e-06
7.53884e-07
-6.50485e-06
5.7582e-07
-6.59641e-06
3.80506e-07
-6.65502e-06
1.68492e-07
-6.67737e-06
-5.92651e-08
-6.6604e-06
-3.01411e-07
-6.60128e-06
-5.56354e-07
-6.49742e-06
-8.225e-07
-6.3464e-06
-1.09857e-06
-6.14599e-06
-1.38349e-06
-5.89405e-06
-1.67618e-06
-5.58847e-06
-1.97552e-06
-5.227e-06
-2.28004e-06
-4.8077e-06
-2.58675e-06
-4.3294e-06
-2.89089e-06
-3.79232e-06
-3.1859e-06
-3.19863e-06
-3.46364e-06
-2.55284e-06
-3.71488e-06
-1.86182e-06
-3.93017e-06
-1.13458e-06
-4.1009e-06
-3.81885e-07
-4.21989e-06
3.84244e-07
-4.28158e-06
1.15104e-06
-4.28272e-06
1.90548e-06
-4.22242e-06
2.63491e-06
-4.10229e-06
3.32754e-06
-3.9268e-06
3.97312e-06
-3.70256e-06
4.56356e-06
-3.438e-06
5.0932e-06
-3.14263e-06
5.55894e-06
-2.82616e-06
5.95988e-06
-2.49802e-06
6.29697e-06
-2.16637e-06
6.57244e-06
-1.83735e-06
6.78918e-06
-1.51506e-06
6.95026e-06
-1.20198e-06
7.0587e-06
-8.99595e-07
7.11742e-06
-6.08991e-07
7.12936e-06
-3.31123e-07
7.09755e-06
-6.71385e-08
7.02514e-06
1.81637e-07
6.91559e-06
4.13568e-07
6.77267e-06
6.27003e-07
6.60043e-06
8.20592e-07
6.40319e-06
9.93491e-07
6.1853e-06
1.14577e-06
5.95099e-06
1.2786e-06
5.70403e-06
1.39492e-06
5.44718e-06
1.50014e-06
5.18177e-06
1.6022e-06
4.90702e-06
1.71115e-06
4.61984e-06
1.83847e-06
4.31472e-06
1.99575e-06
3.98417e-06
2.19264e-06
3.61946e-06
2.43316e-06
3.21202e-06
2.71159e-06
2.75565e-06
3.0078e-06
2.24966e-06
3.28159e-06
1.70326e-06
3.46713e-06
1.1413e-06
3.46933e-06
6.11708e-07
3.16425e-06
1.93121e-07
2.40546e-06
1.04642e-06
-1.88856e-07
1.24149e-06
-5.98429e-07
2.83728e-06
-1.1119e-06
3.71402e-06
-1.65255e-06
4.05698e-06
-2.17536e-06
4.04081e-06
-2.65645e-06
3.81056e-06
-3.08912e-06
3.47752e-06
-3.47424e-06
3.11575e-06
-3.8169e-06
2.7705e-06
-4.12511e-06
2.46809e-06
-4.40728e-06
2.21576e-06
-4.67018e-06
2.00714e-06
-4.91797e-06
1.83133e-06
-5.15279e-06
1.67838e-06
-5.37532e-06
1.53813e-06
-5.58506e-06
1.39976e-06
-5.78022e-06
1.25315e-06
-5.95798e-06
1.09103e-06
-6.11484e-06
9.09421e-07
-6.24709e-06
7.06883e-07
-6.35099e-06
4.83383e-07
-6.42292e-06
2.3961e-07
-6.45947e-06
-2.3275e-08
-6.45752e-06
-3.03713e-07
-6.41427e-06
-5.99798e-07
-6.32722e-06
-9.09628e-07
-6.19408e-06
-1.23165e-06
-6.01266e-06
-1.56468e-06
-5.78078e-06
-1.90767e-06
-5.49602e-06
-2.25975e-06
-5.15563e-06
-2.61979e-06
-4.75674e-06
-2.98488e-06
-4.29711e-06
-3.34966e-06
-3.77585e-06
-3.70619e-06
-3.19432e-06
-4.0441e-06
-2.55664e-06
-4.35135e-06
-1.86986e-06
-4.61563e-06
-1.14358e-06
-4.82575e-06
-3.89419e-07
-4.97254e-06
3.79584e-07
-5.04903e-06
1.14957e-06
-5.05114e-06
1.90645e-06
-4.97775e-06
2.63652e-06
-4.8308e-06
3.32702e-06
-4.61574e-06
3.96677e-06
-4.34076e-06
4.54712e-06
-4.01678e-06
5.06225e-06
-3.65619e-06
5.50961e-06
-3.27195e-06
5.88937e-06
-2.87627e-06
6.20376e-06
-2.4793e-06
6.4562e-06
-2.08843e-06
6.65053e-06
-1.70813e-06
6.79043e-06
-1.34073e-06
6.87914e-06
-9.87286e-07
6.91961e-06
-6.48522e-07
6.91452e-06
-3.25247e-07
6.86674e-06
-1.86794e-08
6.77929e-06
2.69616e-07
6.6555e-06
5.37711e-07
6.49901e-06
7.83642e-07
6.31379e-06
1.00572e-06
6.10418e-06
1.2028e-06
5.87472e-06
1.37473e-06
5.63005e-06
1.52263e-06
5.37444e-06
1.64971e-06
5.11147e-06
1.76216e-06
4.84324e-06
1.86935e-06
4.5698e-06
1.9834e-06
4.28889e-06
2.11811e-06
3.99581e-06
2.28753e-06
3.68391e-06
2.50324e-06
3.34512e-06
2.77066e-06
2.97107e-06
3.08435e-06
2.55488e-06
3.42267e-06
2.09389e-06
3.74117e-06
1.59398e-06
3.9655e-06
1.07567e-06
3.98596e-06
5.81834e-07
3.65646e-06
1.85317e-07
2.80047e-06
1.23115e-06
-1.80965e-07
1.42176e-06
-5.66878e-07
3.22178e-06
-1.04492e-06
4.19072e-06
-1.5444e-06
4.55531e-06
-2.02652e-06
4.52142e-06
-2.47147e-06
4.25475e-06
-2.87596e-06
3.8811e-06
-3.242e-06
3.48069e-06
-3.57433e-06
3.10205e-06
-3.87971e-06
2.77313e-06
-4.16496e-06
2.50095e-06
-4.43552e-06
2.27778e-06
-4.69458e-06
2.09049e-06
-4.94343e-06
1.92713e-06
-5.18165e-06
1.77605e-06
-5.40775e-06
1.62541e-06
-5.61919e-06
1.46407e-06
-5.81269e-06
1.28398e-06
-5.98449e-06
1.08072e-06
-6.13087e-06
8.52801e-07
-6.24819e-06
6.00299e-07
-6.33295e-06
3.24072e-07
-6.38179e-06
2.54197e-08
-6.39155e-06
-2.9393e-07
-6.35955e-06
-6.31681e-07
-6.28352e-06
-9.85484e-07
-6.16158e-06
-1.35337e-06
-5.99198e-06
-1.73401e-06
-5.77276e-06
-2.12654e-06
-5.50148e-06
-2.53062e-06
-5.17492e-06
-2.94593e-06
-4.78929e-06
-3.37006e-06
-4.34095e-06
-3.79755e-06
-3.82758e-06
-4.21911e-06
-3.24946e-06
-4.62176e-06
-2.61035e-06
-4.98998e-06
-1.91756e-06
-5.30789e-06
-1.18147e-06
-5.56126e-06
-4.14756e-07
-5.73863e-06
3.68384e-07
-5.83154e-06
1.1529e-06
-5.83505e-06
1.92347e-06
-5.74774e-06
2.66519e-06
-5.57198e-06
3.36408e-06
-5.31415e-06
4.00795e-06
-4.9842e-06
4.58728e-06
-4.59571e-06
5.09618e-06
-4.16469e-06
5.53266e-06
-3.70804e-06
5.89827e-06
-3.2415e-06
6.19689e-06
-2.77759e-06
6.4334e-06
-2.32464e-06
6.61264e-06
-1.8871e-06
6.73871e-06
-1.4666e-06
6.81487e-06
-1.06328e-06
6.84363e-06
-6.77172e-07
6.82718e-06
-3.08726e-07
6.76785e-06
4.07193e-08
6.66842e-06
3.69116e-07
6.53197e-06
6.74196e-07
6.3619e-06
9.53686e-07
6.16194e-06
1.20552e-06
5.93627e-06
1.42819e-06
5.68945e-06
1.62115e-06
5.42646e-06
1.78514e-06
5.15228e-06
1.92334e-06
4.87142e-06
2.04243e-06
4.58706e-06
2.15308e-06
4.30046e-06
2.26936e-06
4.01058e-06
2.40737e-06
3.71414e-06
2.58338e-06
3.40602e-06
2.81084e-06
3.07968e-06
3.0965e-06
2.72793e-06
3.43561e-06
2.34406e-06
3.80599e-06
1.92421e-06
4.1604e-06
1.47105e-06
4.41791e-06
9.99794e-07
4.45642e-06
5.45912e-07
4.10973e-06
1.74773e-07
3.17088e-06
1.40627e-06
-1.71872e-07
1.59285e-06
-5.30995e-07
3.57953e-06
-9.70935e-07
4.62942e-06
-1.42978e-06
5.01321e-06
-1.8769e-06
4.96698e-06
-2.29659e-06
4.674e-06
-2.6882e-06
4.27205e-06
-3.05376e-06
3.84519e-06
-3.39661e-06
3.44409e-06
-3.72104e-06
3.09721e-06
-4.03113e-06
2.81108e-06
-4.32975e-06
2.57684e-06
-4.61868e-06
2.38006e-06
-4.89803e-06
2.20718e-06
-5.16653e-06
2.04514e-06
-5.42158e-06
1.88098e-06
-5.65974e-06
1.70271e-06
-5.87697e-06
1.50175e-06
-6.0693e-06
1.27357e-06
-6.23301e-06
1.017e-06
-6.36472e-06
7.32464e-07
-6.46124e-06
4.21046e-07
-6.51937e-06
8.40376e-08
-6.53594e-06
-2.76796e-07
-6.5083e-06
-6.58737e-07
-6.43457e-06
-1.05866e-06
-6.31362e-06
-1.47382e-06
-6.14463e-06
-1.90255e-06
-5.92642e-06
-2.34433e-06
-5.65683e-06
-2.79984e-06
-5.33235e-06
-3.27008e-06
-4.9482e-06
-3.754e-06
-4.49892e-06
-4.24667e-06
-3.98035e-06
-4.73764e-06
-3.39144e-06
-5.21072e-06
-2.73559e-06
-5.64596e-06
-2.0206e-06
-6.02303e-06
-1.25794e-06
-6.32411e-06
-4.61636e-07
-6.53514e-06
3.52808e-07
-6.6462e-06
1.16904e-06
-6.65155e-06
1.97045e-06
-6.54948e-06
2.74077e-06
-6.34274e-06
3.46458e-06
-6.0385e-06
4.12827e-06
-5.64853e-06
4.72124e-06
-5.18941e-06
5.23722e-06
-4.68145e-06
5.67499e-06
-4.14663e-06
6.03786e-06
-3.60521e-06
6.33184e-06
-3.07245e-06
6.56361e-06
-2.5573e-06
6.73899e-06
-2.06339e-06
6.86234e-06
-1.59086e-06
6.93649e-06
-1.13835e-06
6.96307e-06
-7.04693e-07
6.94323e-06
-2.89835e-07
6.87847e-06
1.04591e-07
6.7711e-06
4.75721e-07
6.62393e-06
8.20721e-07
6.44014e-06
1.13694e-06
6.22306e-06
1.42207e-06
5.97649e-06
1.67424e-06
5.70488e-06
1.89224e-06
5.41342e-06
2.07609e-06
5.10791e-06
2.22839e-06
4.79398e-06
2.35596e-06
4.47629e-06
2.47045e-06
4.15759e-06
2.58784e-06
3.83841e-06
2.72645e-06
3.51731e-06
2.90448e-06
3.19139e-06
3.13685e-06
2.85665e-06
3.43138e-06
2.50828e-06
3.78412e-06
2.14132e-06
4.17304e-06
1.75186e-06
4.54984e-06
1.34009e-06
4.82961e-06
9.15206e-07
4.8813e-06
5.03672e-07
4.5215e-06
1.62856e-07
3.51176e-06
1.57007e-06
-1.60179e-07
1.75227e-06
-4.87523e-07
3.90574e-06
-8.86106e-07
5.02704e-06
-1.30656e-06
5.43315e-06
-1.7283e-06
5.38715e-06
-2.13954e-06
5.08516e-06
-2.54005e-06
4.67225e-06
-2.93011e-06
4.23425e-06
-3.3101e-06
3.82304e-06
-3.68063e-06
3.46695e-06
-4.04186e-06
3.17179e-06
-4.39326e-06
2.92803e-06
-4.73417e-06
2.72107e-06
-5.06336e-06
2.53659e-06
-5.37876e-06
2.36074e-06
-5.67692e-06
2.17933e-06
-5.95333e-06
1.97936e-06
-6.20305e-06
1.75182e-06
-6.42165e-06
1.49259e-06
-6.60562e-06
1.20137e-06
-6.75217e-06
8.79369e-07
-6.85864e-06
5.27855e-07
-6.92205e-06
1.4779e-07
-6.93909e-06
-2.59348e-07
-6.90699e-06
-6.90405e-07
-6.82434e-06
-1.14092e-06
-6.69116e-06
-1.60667e-06
-6.50814e-06
-2.08529e-06
-6.27566e-06
-2.57656e-06
-5.9925e-06
-3.08276e-06
-5.65525e-06
-3.60714e-06
-5.25783e-06
-4.15127e-06
-4.79257e-06
-4.71183e-06
-4.2527e-06
-5.27746e-06
-3.63548e-06
-5.82795e-06
-2.94401e-06
-6.33749e-06
-2.18707e-06
-6.78007e-06
-1.37774e-06
-7.13357e-06
-5.3173e-07
-7.38128e-06
3.33998e-07
-7.512e-06
1.20191e-06
-7.51951e-06
2.0542e-06
-7.40182e-06
2.87327e-06
-7.16189e-06
3.64204e-06
-6.80742e-06
4.34499e-06
-6.35172e-06
4.96981e-06
-5.81455e-06
5.50941e-06
-5.22144e-06
5.96346e-06
-4.60111e-06
6.33771e-06
-3.97992e-06
6.64104e-06
-3.37627e-06
6.8823e-06
-2.79909e-06
7.06837e-06
-2.25e-06
7.20341e-06
-1.72647e-06
7.28918e-06
-1.22472e-06
7.32583e-06
-7.41989e-07
7.31284e-06
-2.77609e-07
7.25046e-06
1.66176e-07
7.14024e-06
5.85175e-07
6.98495e-06
9.75365e-07
6.78764e-06
1.33371e-06
6.55118e-06
1.65806e-06
6.27866e-06
1.94631e-06
5.9741e-06
2.19636e-06
5.64281e-06
2.40694e-06
5.29148e-06
2.57932e-06
4.9273e-06
2.71981e-06
4.5567e-06
2.84079e-06
4.18414e-06
2.96023e-06
3.81181e-06
3.09869e-06
3.44033e-06
3.27594e-06
3.06958e-06
3.5076e-06
2.69912e-06
3.8018e-06
2.32822e-06
4.15489e-06
1.95559e-06
4.54541e-06
1.57946e-06
4.92557e-06
1.19899e-06
5.20963e-06
8.17724e-07
5.26223e-06
4.52473e-07
4.88661e-06
1.50006e-07
3.81426e-06
1.7199e-06
-1.42799e-07
1.89448e-06
-4.28783e-07
4.19094e-06
-7.80411e-07
5.37806e-06
-1.16603e-06
5.81887e-06
-1.57626e-06
5.79579e-06
-2.00225e-06
5.51139e-06
-2.4404e-06
5.11055e-06
-2.88618e-06
4.67927e-06
-3.3349e-06
4.27066e-06
-3.78242e-06
3.91331e-06
-4.22399e-06
3.61219e-06
-4.65493e-06
3.35786e-06
-5.07147e-06
3.13671e-06
-5.47089e-06
2.9352e-06
-5.85058e-06
2.73952e-06
-6.20651e-06
2.5343e-06
-6.53296e-06
2.30487e-06
-6.82369e-06
2.0418e-06
-7.0737e-06
1.74206e-06
-7.27995e-06
1.40715e-06
-7.44073e-06
1.03967e-06
-7.55434e-06
6.40999e-07
-7.61805e-06
2.11058e-07
-7.62803e-06
-2.49686e-07
-7.58101e-06
-7.37625e-07
-7.47596e-06
-1.24611e-06
-7.31452e-06
-1.76825e-06
-7.09979e-06
-2.30014e-06
-6.83459e-06
-2.84181e-06
-6.51974e-06
-3.39758e-06
-6.15244e-06
-3.97433e-06
-5.72541e-06
-4.5781e-06
-5.22786e-06
-5.20907e-06
-4.6493e-06
-5.85564e-06
-3.98461e-06
-6.49221e-06
-3.2369e-06
-7.08471e-06
-2.41685e-06
-7.5996e-06
-1.53995e-06
-8.00995e-06
-6.2392e-07
-8.29672e-06
3.12912e-07
-8.44815e-06
1.25216e-06
-8.45791e-06
2.1753e-06
-8.32398e-06
3.06373e-06
-8.04925e-06
3.89866e-06
-7.6412e-06
4.66201e-06
-7.11391e-06
5.33869e-06
-6.49008e-06
5.91997e-06
-5.8016e-06
6.40647e-06
-5.0865e-06
6.80752e-06
-4.37988e-06
7.13615e-06
-3.70385e-06
7.40385e-06
-3.06579e-06
7.61814e-06
-2.46334e-06
7.78235e-06
-1.88975e-06
7.89639e-06
-1.33786e-06
7.95793e-06
-8.0275e-07
7.9641e-06
-2.83227e-07
7.91338e-06
2.17199e-07
7.80662e-06
6.92032e-07
7.64691e-06
1.13512e-06
7.43744e-06
1.54321e-06
7.18044e-06
1.91506e-06
6.87779e-06
2.24891e-06
6.53249e-06
2.54152e-06
6.14984e-06
2.78935e-06
5.73765e-06
2.99118e-06
5.30526e-06
3.15183e-06
4.8613e-06
3.28437e-06
4.412e-06
3.40915e-06
3.96091e-06
3.54936e-06
3.51047e-06
3.7259e-06
3.06361e-06
3.95385e-06
2.62456e-06
4.2401e-06
2.19838e-06
4.58012e-06
1.79019e-06
4.95244e-06
1.40359e-06
5.31082e-06
1.03958e-06
5.57219e-06
6.98194e-07
5.60225e-06
3.86335e-07
5.19727e-06
1.32007e-07
4.06779e-06
1.85014e-06
-1.14032e-07
2.0082e-06
-3.417e-07
4.41818e-06
-6.37768e-07
5.67372e-06
-9.94782e-07
6.1766e-06
-1.41373e-06
6.21308e-06
-1.88553e-06
5.98341e-06
-2.39738e-06
5.6229e-06
-2.93561e-06
5.21719e-06
-3.48854e-06
4.82293e-06
-4.04619e-06
4.47025e-06
-4.59833e-06
4.16362e-06
-5.13542e-06
3.89422e-06
-5.65046e-06
3.65112e-06
-6.13934e-06
3.42358e-06
-6.59964e-06
3.1992e-06
-7.02716e-06
2.96099e-06
-7.41464e-06
2.69139e-06
-7.7538e-06
2.3801e-06
-8.03878e-06
2.02645e-06
-8.26749e-06
1.63541e-06
-8.44018e-06
1.2119e-06
-8.55685e-06
7.57166e-07
-8.61495e-06
2.68685e-07
-8.60948e-06
-2.55553e-07
-8.5357e-06
-8.11666e-07
-8.39274e-06
-1.38922e-06
-8.18449e-06
-1.97664e-06
-7.91749e-06
-2.56727e-06
-7.59824e-06
-3.16114e-06
-7.23081e-06
-3.76499e-06
-6.8143e-06
-4.39073e-06
-6.34049e-06
-5.05169e-06
-5.79441e-06
-5.75483e-06
-5.15982e-06
-6.4898e-06
-4.4283e-06
-7.22325e-06
-3.60379e-06
-7.90869e-06
-2.70028e-06
-8.50252e-06
-1.73683e-06
-8.97286e-06
-7.33423e-07
-9.29962e-06
2.90733e-07
-9.47178e-06
1.31716e-06
-9.48374e-06
2.32764e-06
-9.33375e-06
3.30339e-06
-9.02418e-06
4.22424e-06
-8.56118e-06
5.06884e-06
-7.95762e-06
5.81769e-06
-7.23805e-06
6.45881e-06
-6.44184e-06
6.99376e-06
-5.62058e-06
7.43733e-06
-4.82258e-06
7.80861e-06
-4.07425e-06
8.1221e-06
-3.37841e-06
8.38506e-06
-2.72546e-06
8.59882e-06
-2.10263e-06
8.7604e-06
-1.49852e-06
8.86407e-06
-9.05474e-07
8.90364e-06
-3.21974e-07
8.87529e-06
2.46126e-07
8.77954e-06
7.88092e-07
8.62053e-06
1.29427e-06
8.40217e-06
1.7616e-06
8.1257e-06
2.19151e-06
7.79091e-06
2.58362e-06
7.39894e-06
2.93332e-06
6.95468e-06
3.23335e-06
6.46749e-06
3.47803e-06
5.94967e-06
3.66927e-06
5.41288e-06
3.82077e-06
4.86496e-06
3.95666e-06
4.30991e-06
4.10398e-06
3.7511e-06
4.28418e-06
3.19444e-06
4.50984e-06
2.6494e-06
4.78426e-06
2.12885e-06
5.09967e-06
1.64742e-06
5.43277e-06
1.21846e-06
5.73857e-06
8.49909e-07
5.93942e-06
5.42754e-07
5.90822e-06
2.93437e-07
5.44565e-06
1.00386e-07
4.25955e-06
1.94972e-06
-6.4069e-08
2.07224e-06
-2.06772e-07
4.56063e-06
-4.37184e-07
5.90343e-06
-7.77775e-07
6.51797e-06
-1.23555e-06
6.66911e-06
-1.7934e-06
6.54091e-06
-2.42189e-06
6.25166e-06
-3.09266e-06
5.88789e-06
-3.7861e-06
5.51612e-06
-4.48664e-06
5.17074e-06
-5.1783e-06
4.8555e-06
-5.84614e-06
4.56235e-06
-6.47949e-06
4.2849e-06
-7.07358e-06
4.0184e-06
-7.62765e-06
3.75401e-06
-8.13823e-06
3.47196e-06
-8.59574e-06
3.14893e-06
-8.98853e-06
2.7728e-06
-9.30939e-06
2.34742e-06
-9.55788e-06
1.8842e-06
-9.73759e-06
1.39195e-06
-9.85151e-06
8.7129e-07
-9.89739e-06
3.14708e-07
-9.86765e-06
-2.85171e-07
-9.75445e-06
-9.24686e-07
-9.55659e-06
-1.58681e-06
-9.28097e-06
-2.25201e-06
-8.93867e-06
-2.90932e-06
-8.54116e-06
-3.55842e-06
-8.09749e-06
-4.20845e-06
-7.61065e-06
-4.87738e-06
-7.07276e-06
-5.58939e-06
-6.46319e-06
-6.36422e-06
-5.75678e-06
-7.19604e-06
-4.94035e-06
-8.03956e-06
-4.02027e-06
-8.82869e-06
-3.0164e-06
-9.5063e-06
-1.95273e-06
-1.00366e-05
-8.51584e-07
-1.0401e-05
2.68136e-07
-1.0592e-05
1.38949e-06
-1.06057e-05
2.49606e-06
-1.0441e-05
3.57065e-06
-1.00995e-05
4.59271e-06
-9.58394e-06
5.53706e-06
-8.90268e-06
6.37739e-06
-8.07912e-06
7.09541e-06
-7.16062e-06
7.69329e-06
-6.21921e-06
8.19459e-06
-5.32459e-06
8.62725e-06
-4.50756e-06
9.00859e-06
-3.76036e-06
9.34379e-06
-3.06127e-06
9.63036e-06
-2.38971e-06
9.86137e-06
-1.7298e-06
1.00267e-05
-1.07087e-06
1.01157e-05
-4.10994e-07
1.01217e-05
2.40167e-07
1.00452e-05
8.64453e-07
9.89337e-06
1.4459e-06
9.67194e-06
1.98274e-06
9.38051e-06
2.48262e-06
9.01525e-06
2.94851e-06
8.57407e-06
3.37412e-06
8.06083e-06
3.74623e-06
7.48696e-06
4.05157e-06
6.86918e-06
4.28674e-06
6.22342e-06
4.4663e-06
5.55885e-06
4.62108e-06
4.87805e-06
4.78465e-06
4.18367e-06
4.9784e-06
3.48376e-06
5.20947e-06
2.79334e-06
5.47429e-06
2.13441e-06
5.7582e-06
1.5343e-06
6.03264e-06
1.02157e-06
6.25115e-06
6.18413e-07
6.34244e-06
3.33466e-07
6.19326e-06
1.54461e-07
5.62496e-06
4.65512e-08
4.36636e-06
1.99762e-06
2.32725e-08
2.04899e-06
2.27935e-09
4.58131e-06
-1.56531e-07
6.06082e-06
-5.04958e-07
6.8661e-06
-1.04516e-06
7.20776e-06
-1.73892e-06
7.23371e-06
-2.53111e-06
7.04317e-06
-3.37325e-06
6.72939e-06
-4.23881e-06
6.38099e-06
-5.11009e-06
6.04145e-06
-5.96585e-06
5.71097e-06
-6.78431e-06
5.38059e-06
-7.55021e-06
5.05057e-06
-8.25898e-06
4.72731e-06
-8.91443e-06
4.40993e-06
-9.51554e-06
4.07334e-06
-1.00489e-05
3.68217e-06
-1.0497e-05
3.2205e-06
-1.08505e-05
2.70073e-06
-1.1112e-05
2.1457e-06
-1.12904e-05
1.57068e-06
-1.13938e-05
9.74846e-07
-1.14204e-05
3.41508e-07
-1.1358e-05
-3.47436e-07
-1.11927e-05
-1.08978e-06
-1.09223e-05
-1.85692e-06
-1.05578e-05
-2.61609e-06
-1.01159e-05
-3.35075e-06
-9.61362e-06
-4.06017e-06
-9.06715e-06
-4.75442e-06
-8.48663e-06
-5.45734e-06
-7.86727e-06
-6.20824e-06
-7.18186e-06
-7.0492e-06
-6.39075e-06
-7.98673e-06
-5.47392e-06
-8.95603e-06
-4.44347e-06
-9.85885e-06
-3.32924e-06
-1.06201e-05
-2.1617e-06
-1.12037e-05
-9.64667e-07
-1.15979e-05
2.45456e-07
-1.1802e-05
1.45579e-06
-1.1816e-05
2.65392e-06
-1.16392e-05
3.82716e-06
-1.12728e-05
4.95706e-06
-1.0714e-05
6.01456e-06
-9.96034e-06
6.96336e-06
-9.0281e-06
7.77332e-06
-7.97076e-06
8.44594e-06
-6.892e-06
9.01924e-06
-5.89807e-06
9.53425e-06
-5.0227e-06
1.00093e-05
-4.23555e-06
1.04438e-05
-3.49599e-06
1.08289e-05
-2.77518e-06
1.1153e-05
-2.0541e-06
1.14011e-05
-1.31903e-06
1.15571e-05
-5.66854e-07
1.16098e-05
1.87562e-07
1.15609e-05
9.13439e-07
1.14236e-05
1.58314e-06
1.12077e-05
2.19848e-06
1.09103e-05
2.77976e-06
1.05215e-05
3.33706e-06
1.00338e-05