/*--------------------------------*- C++ -*----------------------------------*\
| =========                 |                                                 |
| \\      /  F ield         | OpenFOAM: The Open Source CFD Toolbox           |
|  \\    /   O peration     | Version:  2412                                  |
|   \\  /    A nd           | Website:  www.openfoam.com                      |
|    \\/     M anipulation  |                                                 |
\*---------------------------------------------------------------------------*/
FoamFile
{
    version     2.0;
    format      ascii;
    arch        "LSB;label=32;scalar=64";
    class       surfaceScalarField;
    location    "6.2";
    object      phi;
}
// * * * * * * * * * * * * * * * * * * * * * * * * * * * * * * * * * * * * * //

dimensions      [0 3 -1 0 0 0 0];

oriented        oriented;

internalField   nonuniform List<scalar> 
12640
(
-3.96043e-09
3.96113e-09
-2.10775e-09
-9.61471e-10
8.73605e-09
-1.00222e-08
2.88653e-08
-1.93816e-08
5.7516e-08
-2.79462e-08
9.37401e-08
-3.55626e-08
1.36723e-07
-4.23651e-08
1.85861e-07
-4.85609e-08
2.40742e-07
-5.43433e-08
3.01104e-07
-5.98617e-08
3.66787e-07
-6.52173e-08
4.37687e-07
-7.04662e-08
5.13719e-07
-7.56248e-08
5.94777e-07
-8.0674e-08
6.80702e-07
-8.55607e-08
7.71248e-07
-9.01984e-08
8.66045e-07
-9.44656e-08
9.64562e-07
-9.82031e-08
1.06607e-06
-1.0121e-07
1.16958e-06
-1.03242e-07
1.27383e-06
-1.04009e-07
1.37722e-06
-1.03174e-07
1.47775e-06
-1.00358e-07
1.57304e-06
-9.51483e-08
1.66024e-06
-8.711e-08
1.73609e-06
-7.58128e-08
1.79694e-06
-6.08604e-08
1.8388e-06
-4.19383e-08
1.85753e-06
-1.88657e-08
1.84899e-06
8.33864e-09
1.80933e-06
3.93957e-08
1.73528e-06
7.37067e-08
1.62455e-06
1.10322e-07
1.47615e-06
1.47935e-07
1.29069e-06
1.84932e-07
1.07062e-06
2.19484e-07
8.20308e-07
2.49691e-07
5.459e-07
2.73748e-07
2.55078e-07
2.90138e-07
-4.3407e-08
2.97783e-07
-3.40294e-07
2.96175e-07
-6.26436e-07
2.85425e-07
-8.93414e-07
2.66261e-07
-1.13406e-06
2.39933e-07
-1.34283e-06
2.08085e-07
-1.51604e-06
1.72571e-07
-1.65191e-06
1.35283e-07
-1.75039e-06
9.79755e-08
-1.81298e-06
6.21569e-08
-1.84233e-06
2.89988e-08
-1.84194e-06
-6.80509e-10
-1.81577e-06
-2.64036e-08
-1.768e-06
-4.79783e-08
-1.70273e-06
-6.54585e-08
-1.6238e-06
-7.90779e-08
-1.53473e-06
-8.91788e-08
-1.43862e-06
-9.61656e-08
-1.33814e-06
-1.00472e-07
-1.23555e-06
-1.0253e-07
-1.13268e-06
-1.02748e-07
-1.03102e-06
-1.01491e-07
-9.31752e-07
-9.90748e-08
-8.35754e-07
-9.57743e-08
-7.43688e-07
-9.18233e-08
-6.56011e-07
-8.74132e-08
-5.73031e-07
-8.26957e-08
-4.94936e-07
-7.77851e-08
-4.21834e-07
-7.27634e-08
-3.5378e-07
-6.76822e-08
-2.90811e-07
-6.25619e-08
-2.32977e-07
-5.73875e-08
-1.80385e-07
-5.21039e-08
-1.33242e-07
-4.66099e-08
-9.19082e-08
-4.07543e-08
-5.6942e-08
-3.43391e-08
-2.91216e-08
-2.71468e-08
-9.38751e-09
-1.90173e-08
1.40612e-09
-1.00423e-08
3.33351e-09
-1.16115e-09
4.01667e-09
1.86368e-09
2.83238e-09
1.96986e-08
-1.72551e-08
5.82478e-08
-4.71311e-08
1.1829e-07
-7.80571e-08
1.98835e-07
-1.07156e-07
2.98372e-07
-1.33796e-07
4.15464e-07
-1.5819e-07
5.48953e-07
-1.80826e-07
6.97991e-07
-2.02207e-07
8.61983e-07
-2.22737e-07
1.04051e-06
-2.4269e-07
1.23324e-06
-2.62207e-07
1.43984e-06
-2.81304e-07
1.65988e-06
-2.99873e-07
1.89278e-06
-3.17692e-07
2.1377e-06
-3.34416e-07
2.39343e-06
-3.49576e-07
2.65832e-06
-3.62569e-07
2.93021e-06
-3.72648e-07
3.20623e-06
-3.78913e-07
3.48279e-06
-3.80309e-07
3.7554e-06
-3.75629e-07
4.01862e-06
-3.63532e-07
4.26599e-06
-3.42568e-07
4.48997e-06
-3.11239e-07
4.68197e-06
-2.68077e-07
4.83251e-06
-2.11767e-07
4.9314e-06
-1.41295e-07
4.96811e-06
-5.61447e-08
4.93229e-06
4.34942e-08
4.81442e-06
1.56508e-07
4.6066e-06
2.80676e-07
4.30344e-06
4.12556e-07
3.90289e-06
5.47492e-07
3.40699e-06
6.79777e-07
2.82238e-06
8.02985e-07
2.16046e-06
9.10463e-07
1.4371e-06
9.95928e-07
6.71953e-07
1.05409e-06
-1.12691e-07
1.08121e-06
-8.93267e-07
1.07553e-06
-1.6465e-06
1.03743e-06
-2.3509e-06
9.69439e-07
-2.98807e-06
8.75907e-07
-3.5437e-06
7.62545e-07
-4.00807e-06
6.35831e-07
-4.3762e-06
5.02374e-07
-4.64753e-06
3.68368e-07
-4.82537e-06
2.3915e-07
-4.91605e-06
1.18937e-07
-4.9281e-06
1.07183e-08
-4.87138e-06
-8.36935e-08
-4.75634e-06
-1.63514e-07
-4.59341e-06
-2.28806e-07
-4.39254e-06
-2.80283e-07
-4.16287e-06
-3.19074e-07
-3.91259e-06
-3.46551e-07
-3.64885e-06
-3.6419e-07
-3.37775e-06
-3.73484e-07
-3.10438e-06
-3.75855e-07
-2.8329e-06
-3.72601e-07
-2.56664e-06
-3.64868e-07
-2.30821e-06
-3.53653e-07
-2.05958e-06
-3.39815e-07
-1.82221e-06
-3.24071e-07
-1.59712e-06
-3.07e-07
-1.385e-06
-2.89051e-07
-1.18628e-06
-2.70553e-07
-1.00125e-06
-2.51722e-07
-8.3009e-07
-2.32661e-07
-6.73007e-07
-2.13358e-07
-5.30279e-07
-1.93671e-07
-4.02363e-07
-1.73321e-07
-2.89982e-07
-1.51893e-07
-1.94185e-07
-1.28862e-07
-1.16334e-07
-1.03693e-07
-5.79281e-08
-7.60889e-08
-2.00786e-08
-4.65241e-08
-2.26952e-09
-1.76155e-08
2.32605e-09
1.15219e-08
-7.97075e-09
5.07001e-08
-5.49571e-08
1.1948e-07
-1.14531e-07
2.18172e-07
-1.75443e-07
3.4578e-07
-2.33494e-07
5.00808e-07
-2.87591e-07
6.81773e-07
-3.37962e-07
8.87417e-07
-3.85322e-07
1.11675e-06
-4.30444e-07
1.36902e-06
-4.73965e-07
1.64362e-06
-5.16305e-07
1.93998e-06
-5.57655e-07
2.25749e-06
-5.97966e-07
2.59535e-06
-6.36962e-07
2.95249e-06
-6.7413e-07
3.32742e-06
-7.08717e-07
3.71812e-06
-7.39713e-07
4.12187e-06
-7.6584e-07
4.53515e-06
-7.85526e-07
4.95346e-06
-7.96898e-07
5.37116e-06
-7.97774e-07
5.78135e-06
-7.85675e-07
6.17573e-06
-7.57857e-07
6.54449e-06
-7.11382e-07
6.87633e-06
-6.43226e-07
7.15845e-06
-5.5045e-07
7.37677e-06
-4.30439e-07
7.51623e-06
-2.81213e-07
7.56134e-06
-1.0181e-07
7.4969e-06
1.07281e-07
7.30896e-06
3.43688e-07
6.98603e-06
6.02775e-07
6.52025e-06
8.77412e-07
5.90876e-06
1.15799e-06
5.15476e-06
1.43273e-06
4.26825e-06
1.68839e-06
3.2663e-06
1.91128e-06
2.17263e-06
2.08845e-06
1.01658e-06
2.20899e-06
-1.68548e-07
2.26521e-06
-1.34759e-06
2.25346e-06
-2.48581e-06
2.17456e-06
-3.55111e-06
2.03369e-06
-4.51604e-06
1.8398e-06
-5.35918e-06
1.60468e-06
-6.06597e-06
1.34166e-06
-6.62887e-06
1.06437e-06
-7.04692e-06
7.85595e-07
-7.32483e-06
5.16343e-07
-7.47182e-06
2.65331e-07
-7.50034e-06
3.8764e-08
-7.42483e-06
-1.59566e-07
-7.26065e-06
-3.27974e-07
-7.02317e-06
-4.66502e-07
-6.7271e-06
-5.76503e-07
-6.38606e-06
-6.60203e-07
-6.0123e-06
-7.20334e-07
-5.61658e-06
-7.5986e-07
-5.20814e-06
-7.8178e-07
-4.79477e-06
-7.88981e-07
-4.38293e-06
-7.84119e-07
-3.97782e-06
-7.69563e-07
-3.5836e-06
-7.4739e-07
-3.20347e-06
-7.19388e-07
-2.83984e-06
-6.87069e-07
-2.49449e-06
-6.51664e-07
-2.16864e-06
-6.14142e-07
-1.86315e-06
-5.75226e-07
-1.57859e-06
-5.35406e-07
-1.31536e-06
-4.94953e-07
-1.07381e-06
-4.53911e-07
-8.54339e-07
-4.12087e-07
-6.57513e-07
-3.69048e-07
-4.84133e-07
-3.24128e-07
-3.35306e-07
-2.76502e-07
-2.12415e-07
-2.25363e-07
-1.16931e-07
-1.7032e-07
-4.99682e-08
-1.12202e-07
-1.15154e-08
-5.48031e-08
-8.65606e-09
2.09981e-08
-2.82648e-08
8.13272e-08
-1.13834e-07
1.79157e-07
-2.10986e-07
3.13464e-07
-3.08449e-07
4.82974e-07
-4.01739e-07
6.86277e-07
-4.89666e-07
9.22049e-07
-5.72548e-07
1.18914e-06
-6.51274e-07
1.4866e-06
-7.26805e-07
1.81359e-06
-7.99919e-07
2.16937e-06
-8.71104e-07
2.55314e-06
-9.40513e-07
2.96398e-06
-1.00796e-06
3.40069e-06
-1.0729e-06
3.86169e-06
-1.13444e-06
4.34488e-06
-1.19128e-06
4.84744e-06
-1.24173e-06
5.36573e-06
-1.28367e-06
5.89509e-06
-1.31449e-06
6.42962e-06
-1.33112e-06
6.96207e-06
-1.33e-06
7.48362e-06
-1.30708e-06
7.98373e-06
-1.25792e-06
8.45004e-06
-1.17775e-06
8.86834e-06
-1.06168e-06
9.22259e-06
-9.04953e-07
9.49513e-06
-7.03336e-07
9.66706e-06
-4.5361e-07
9.71889e-06
-1.54197e-07
9.63137e-06
1.94134e-07
9.38675e-06
5.87541e-07
8.97021e-06
1.01846e-06
8.37148e-06
1.4752e-06
7.58653e-06
1.94192e-06
6.61907e-06
2.39911e-06
5.48157e-06
2.82476e-06
4.19567e-06
3.196e-06
2.79169e-06
3.49121e-06
1.30734e-06
3.69214e-06
-2.14509e-07
3.78587e-06
-1.72848e-06
3.7663e-06
-3.18978e-06
3.63478e-06
-4.55711e-06
3.4e-06
-5.79526e-06
3.07697e-06
-6.87692e-06
2.68539e-06
-7.78374e-06
2.24756e-06
-8.50646e-06
1.78619e-06
-9.04421e-06
1.32252e-06
-9.40334e-06
8.74757e-07
-9.59585e-06
4.57255e-07
-9.63767e-06
8.01653e-08
-9.54716e-06
-2.50352e-07
-9.34369e-06
-5.31601e-07
-9.04658e-06
-7.63678e-07
-8.67431e-06
-9.48785e-07
-8.24395e-06
-1.09053e-06
-7.77088e-06
-1.19334e-06
-7.26862e-06
-1.262e-06
-6.74887e-06
-1.30135e-06
-6.22153e-06
-1.31607e-06
-5.69485e-06
-1.31046e-06
-5.1756e-06
-1.28841e-06
-4.66918e-06
-1.25331e-06
-4.17989e-06
-1.20813e-06
-3.711e-06
-1.15534e-06
-3.26498e-06
-1.097e-06
-2.84363e-06
-1.03475e-06
-2.44825e-06
-9.6982e-07
-2.07973e-06
-9.03079e-07
-1.73873e-06
-8.35051e-07
-1.42576e-06
-7.65915e-07
-1.14134e-06
-6.95505e-07
-8.86016e-07
-6.23309e-07
-6.60538e-07
-5.48502e-07
-4.65859e-07
-4.70035e-07
-3.0317e-07
-3.86868e-07
-1.73828e-07
-2.98444e-07
-7.92028e-08
-2.0558e-07
-2.05696e-08
-1.12208e-07
-2.86766e-08
2.90095e-08
-5.6538e-08
1.07772e-07
-1.91126e-07
2.31087e-07
-3.32896e-07
3.96406e-07
-4.72433e-07
6.01996e-07
-6.06028e-07
8.46476e-07
-7.32882e-07
1.1287e-06
-8.53546e-07
1.44768e-06
-9.69064e-07
1.80251e-06
-1.08049e-06
2.19232e-06
-1.18862e-06
2.61618e-06
-1.29391e-06
3.07305e-06
-1.39638e-06
3.56164e-06
-1.49562e-06
4.08034e-06
-1.59075e-06
4.62708e-06
-1.68039e-06
5.19914e-06
-1.76264e-06
5.79306e-06
-1.83503e-06
6.40439e-06
-1.89446e-06
7.02757e-06
-1.93721e-06
7.65567e-06
-1.95884e-06
8.28022e-06
-1.95426e-06
8.89102e-06
-1.91769e-06
9.47595e-06
-1.84276e-06
1.00209e-05
-1.72266e-06
1.05094e-05
-1.55037e-06
1.09233e-05
-1.31902e-06
1.1242e-05
-1.02243e-06
1.14438e-05
-6.55815e-07
1.15057e-05
-2.16662e-07
1.14049e-05
2.94213e-07
1.11201e-05
8.71574e-07
1.06329e-05
1.50475e-06
9.9302e-06
2.17692e-06
9.00602e-06
2.86499e-06
7.86367e-06
3.54025e-06
6.51714e-06
4.16999e-06
4.99171e-06
4.72007e-06
3.3235e-06
5.15799e-06
1.55789e-06
5.45629e-06
-2.5319e-07
5.59551e-06
-2.05468e-06
5.5664e-06
-3.79224e-06
5.37103e-06
-5.41595e-06
5.0225e-06
-6.88355e-06
4.54345e-06
-8.16272e-06
3.9635e-06
-9.23228e-06
3.31607e-06
-1.00822e-05
2.63506e-06
-1.07126e-05
1.95191e-06
-1.11321e-05
1.29337e-06
-1.13559e-05
6.80246e-07
-1.14033e-05
1.27068e-07
-1.12965e-05
-3.57565e-07
-1.10582e-05
-7.70093e-07
-1.07109e-05
-1.11095e-06
-1.02761e-05
-1.3835e-06
-9.77348e-06
-1.59306e-06
-9.22058e-06
-1.74608e-06
-8.63294e-06
-1.84943e-06
-8.02398e-06
-1.91006e-06
-7.4051e-06
-1.93461e-06
-6.78588e-06
-1.92927e-06
-6.17422e-06
-1.89958e-06
-5.57654e-06
-1.85044e-06
-4.99795e-06
-1.78607e-06
-4.4425e-06
-1.71009e-06
-3.91327e-06
-1.62547e-06
-3.41262e-06
-1.53459e-06
-2.94228e-06
-1.43929e-06
-2.50353e-06
-1.3409e-06
-2.09734e-06
-1.24026e-06
-1.72444e-06
-1.13779e-06
-1.38543e-06
-1.03343e-06
-1.08091e-06
-9.26701e-07
-8.11518e-07
-8.1673e-07
-5.78004e-07
-7.02341e-07
-3.81341e-07
-5.82289e-07
-2.2281e-07
-4.55705e-07
-1.04181e-07
-3.22922e-07
-2.81556e-08
-1.8697e-07
-5.62181e-08
3.5183e-08
-9.09381e-08
1.286e-07
-2.83047e-07
2.72594e-07
-4.75443e-07
4.63372e-07
-6.61831e-07
6.98795e-07
-8.40104e-07
9.77491e-07
-1.01026e-06
1.29845e-06
-1.17323e-06
1.66079e-06
-1.33015e-06
2.06358e-06
-1.48207e-06
2.50584e-06
-1.62969e-06
2.98639e-06
-1.7733e-06
3.50384e-06
-1.91271e-06
4.05651e-06
-2.04722e-06
4.64233e-06
-2.17556e-06
5.25871e-06
-2.29583e-06
5.90242e-06
-2.40549e-06
6.5694e-06
-2.50124e-06
7.25462e-06
-2.57899e-06
7.95184e-06
-2.63382e-06
8.65345e-06
-2.65993e-06
9.35021e-06
-2.6506e-06
1.00311e-05
-2.59825e-06
1.0683e-05
-2.49449e-06
1.12908e-05
-2.33033e-06
1.18368e-05
-2.09641e-06
1.23012e-05
-1.78349e-06
1.26616e-05
-1.38311e-06
1.28938e-05
-8.88462e-07
1.29723e-05
-2.95618e-07
1.28707e-05
3.95083e-07
1.25641e-05
1.17744e-06
1.203e-05
2.03786e-06
1.12517e-05
2.95421e-06
1.022e-05
3.89538e-06
8.93691e-06
4.82202e-06
7.41662e-06
5.68877e-06
5.68729e-06
6.44775e-06
3.79035e-06
7.05316e-06
1.77869e-06
7.46609e-06
-2.8661e-07
7.6589e-06
-2.34055e-06
7.61846e-06
-4.31902e-06
7.34771e-06
-6.16346e-06
6.86529e-06
-7.82484e-06
6.20333e-06
-9.26645e-06
5.40371e-06
-1.04652e-05
4.51349e-06
-1.14115e-05
3.58e-06
-1.21075e-05
2.64667e-06
-1.25654e-05
1.74996e-06
-1.2804e-05
9.17709e-07
-1.28467e-05
1.68845e-07
-1.27191e-05
-4.85877e-07
-1.24471e-05
-1.04251e-06
-1.20558e-05
-1.50234e-06
-1.15689e-05
-1.8704e-06
-1.10077e-05
-2.15411e-06
-1.03914e-05
-2.36223e-06
-9.73652e-06
-2.50401e-06
-9.05762e-06
-2.58861e-06
-8.36699e-06
-2.62482e-06
-7.67501e-06
-2.62074e-06
-6.99032e-06
-2.58367e-06
-6.32002e-06
-2.52005e-06
-5.66987e-06
-2.43545e-06
-5.0445e-06
-2.33462e-06
-4.44754e-06
-2.22151e-06
-3.88186e-06
-2.09929e-06
-3.34967e-06
-1.97045e-06
-2.85267e-06
-1.8368e-06
-2.3922e-06
-1.69959e-06
-1.9693e-06
-1.55951e-06
-1.58478e-06
-1.41671e-06
-1.23933e-06
-1.27087e-06
-9.33552e-07
-1.1212e-06
-6.68047e-07
-9.66497e-07
-4.43597e-07
-8.05362e-07
-2.61408e-07
-6.36498e-07
-1.23575e-07
-4.59352e-07
-3.39212e-08
-2.75259e-07
-8.94098e-08
3.94671e-08
-1.29567e-07
1.43419e-07
-3.85473e-07
3.02798e-07
-6.33329e-07
5.13125e-07
-8.70731e-07
7.72104e-07
-1.09769e-06
1.07843e-06
-1.31523e-06
1.43117e-06
-1.52465e-06
1.82942e-06
-1.72712e-06
2.27213e-06
-1.92351e-06
2.758e-06
-2.11431e-06
3.28547e-06
-2.29955e-06
3.85272e-06
-2.47874e-06
4.45754e-06
-2.65087e-06
5.09736e-06
-2.81424e-06
5.76909e-06
-2.96648e-06
6.469e-06
-3.10439e-06
7.19258e-06
-3.22387e-06
7.93434e-06
-3.3199e-06
8.68765e-06
-3.38637e-06
9.44452e-06
-3.41613e-06
1.01954e-05
-3.40091e-06
1.0929e-05
-3.33133e-06
1.16318e-05
-3.197e-06
1.22884e-05
-2.98668e-06
1.28807e-05
-2.68856e-06
1.3388e-05
-2.29083e-06
1.37871e-05
-1.78234e-06
1.40521e-05
-1.15375e-06
1.4155e-05
-3.98992e-07
1.40666e-05
4.82914e-07
1.37576e-05
1.48566e-06
1.32011e-05
2.5934e-06
1.23753e-05
3.77894e-06
1.12667e-05
5.00266e-06
9.87398e-06
6.21325e-06
8.21065e-06
7.35041e-06
6.30679e-06
8.34975e-06
4.20885e-06
9.14905e-06
1.9775e-06
9.69521e-06
-3.16339e-07
9.95039e-06
-2.59688e-06
9.89662e-06
-4.78942e-06
9.53793e-06
-6.82621e-06
8.89992e-06
-8.65137e-06
8.02654e-06
-1.02243e-05
6.97489e-06
-1.1521e-05
5.8086e-06
-1.25336e-05
4.59111e-06
-1.32683e-05
3.37974e-06
-1.37416e-05
2.22168e-06
-1.39774e-05
1.15199e-06
-1.40036e-05
1.9359e-07
-1.38492e-05
-6.41355e-07
-1.35432e-05
-1.34937e-06
-1.31126e-05
-1.93341e-06
-1.25824e-05
-2.40081e-06
-1.19749e-05
-2.76161e-06
-1.13098e-05
-3.02719e-06
-1.06042e-05
-3.20933e-06
-9.87295e-06
-3.31953e-06
-9.12858e-06
-3.36871e-06
-8.38184e-06
-3.3669e-06
-7.64172e-06
-3.32311e-06
-6.9157e-06
-3.24528e-06
-6.20996e-06
-3.14031e-06
-5.52955e-06
-3.01405e-06
-4.87859e-06
-2.87141e-06
-4.26042e-06
-2.71633e-06
-3.67776e-06
-2.55192e-06
-3.1328e-06
-2.3805e-06
-2.62736e-06
-2.20373e-06
-2.16289e-06
-2.02261e-06
-1.7406e-06
-1.8376e-06
-1.36139e-06
-1.64863e-06
-1.02598e-06
-1.45512e-06
-7.34929e-07
-1.25603e-06
-4.8887e-07
-1.04988e-06
-2.88857e-07
-8.34948e-07
-1.37048e-07
-6.09598e-07
-3.78221e-08
-3.7297e-07
-1.2637e-07
4.19276e-08
-1.70598e-07
1.52297e-07
-4.9429e-07
3.21738e-07
-8.01237e-07
5.45807e-07
-1.09334e-06
8.22424e-07
-1.37289e-06
1.15046e-06
-1.64191e-06
1.52902e-06
-1.90191e-06
1.957e-06
-2.15386e-06
2.43298e-06
-2.39829e-06
2.95516e-06
-2.63532e-06
3.5214e-06
-2.86462e-06
4.12923e-06
-3.08543e-06
4.77587e-06
-3.29637e-06
5.45814e-06
-3.49541e-06
6.17242e-06
-3.6797e-06
6.91454e-06
-3.84549e-06
7.67959e-06
-3.98798e-06
8.46181e-06
-4.10126e-06
9.2544e-06
-4.17819e-06
1.00493e-05
-4.21037e-06
1.08371e-05
-4.18809e-06
1.16065e-05
-4.10032e-06
1.23447e-05
-3.93476e-06
1.30362e-05
-3.67798e-06
1.36636e-05
-3.31575e-06
1.42062e-05
-2.83347e-06
1.46407e-05
-2.21699e-06
1.49405e-05
-1.4538e-06
1.50759e-05
-5.34774e-07
1.50147e-05
5.43584e-07
1.47234e-05
1.77622e-06
1.41695e-05
3.14636e-06
1.33248e-05
4.62253e-06
1.21696e-05
6.1566e-06
1.06975e-05
7.68397e-06
8.91946e-06
9.12687e-06
6.86662e-06
1.04008e-05
4.59032e-06
1.14234e-05
2.15963e-06
1.21238e-05
-3.43565e-07
1.24513e-05
-2.83123e-06
1.23818e-05
-5.2167e-06
1.19209e-05
-7.42206e-06
1.11029e-05
-9.38425e-06
9.98666e-06
-1.10592e-05
8.64809e-06
-1.24233e-05
7.17122e-06
-1.34724e-05
5.63871e-06
-1.42179e-05
4.12388e-06
-1.46832e-05
2.68544e-06
-1.48983e-05
1.36537e-06
-1.48959e-05
1.89578e-07
-1.4709e-05
-8.297e-07
-1.43689e-05
-1.69075e-06
-1.39038e-05
-2.39931e-06
-1.33393e-05
-2.96583e-06
-1.26977e-05
-3.40349e-06
-1.19984e-05
-3.72658e-06
-1.12581e-05
-3.9495e-06
-1.04913e-05
-4.08608e-06
-9.71032e-06
-4.14928e-06
-8.92581e-06
-4.15093e-06
-8.14669e-06
-4.10161e-06
-7.38057e-06
-4.01067e-06
-6.63384e-06
-3.8862e-06
-5.91186e-06
-3.73509e-06
-5.21914e-06
-3.56308e-06
-4.55951e-06
-3.37484e-06
-3.93619e-06
-3.17403e-06
-3.35197e-06
-2.96344e-06
-2.80928e-06
-2.74509e-06
-2.31017e-06
-2.52032e-06
-1.8564e-06
-2.28993e-06
-1.44936e-06
-2.05417e-06
-1.09009e-06
-1.81286e-06
-7.79252e-07
-1.56528e-06
-5.17381e-07
-1.31012e-06
-3.05249e-07
-1.04542e-06
-1.44687e-07
-7.6849e-07
-3.99199e-08
-4.76118e-07
-1.65357e-07
4.26388e-08
-2.12282e-07
1.55435e-07
-6.05519e-07
3.29843e-07
-9.74088e-07
5.62275e-07
-1.32429e-06
8.51325e-07
-1.66053e-06
1.19618e-06
-1.98544e-06
1.59583e-06
-2.30036e-06
2.04879e-06
-2.60571e-06
2.55293e-06
-2.90144e-06
3.10569e-06
-3.18714e-06
3.70406e-06
-3.46212e-06
4.34477e-06
-3.72529e-06
5.02427e-06
-3.97505e-06
5.73873e-06
-4.20908e-06
6.48396e-06
-4.42419e-06
7.25534e-06
-4.61618e-06
8.04767e-06
-4.77968e-06
8.85504e-06
-4.90806e-06
9.67064e-06
-4.99331e-06
1.04867e-05
-5.02599e-06
1.1294e-05
-4.99516e-06
1.20823e-05
-4.88835e-06
1.28392e-05
-4.69159e-06
1.35507e-05
-4.38948e-06
1.42003e-05
-3.96543e-06
1.47687e-05
-3.40208e-06
1.52335e-05
-2.68198e-06
1.55681e-05
-1.78885e-06
1.57422e-05
-7.09405e-07
1.57213e-05
5.6392e-07
1.54675e-05
2.0293e-06
1.49419e-05
3.67111e-06
1.41081e-05
5.45531e-06
1.29379e-05
7.32582e-06
1.14172e-05
9.2036e-06
9.5526e-06
1.09904e-05
7.37506e-06
1.25773e-05
4.94067e-06
1.38567e-05
2.32779e-06
1.47355e-05
-3.6911e-07
1.51468e-05
-3.04783e-06
1.50589e-05
-5.60791e-06
1.44792e-05
-7.95993e-06
1.34532e-05
-1.00332e-05
1.20583e-05
-1.17807e-05
1.03944e-05
-1.31807e-05
8.57046e-06
-1.42347e-05
6.69223e-06
-1.49627e-05
4.85128e-06
-1.53962e-05
3.11829e-06
-1.5573e-05
1.54111e-06
-1.55314e-05
1.46768e-07
-1.5308e-05
-1.05444e-06
-1.49356e-05
-2.06438e-06
-1.4443e-05
-2.89291e-06
-1.38551e-05
-3.55454e-06
-1.31931e-05
-4.06605e-06
-1.24751e-05
-4.44485e-06
-1.17168e-05
-4.70791e-06
-1.09316e-05
-4.87124e-06
-1.01312e-05
-4.94959e-06
-9.32554e-06
-4.95638e-06
-8.52329e-06
-4.90354e-06
-7.73192e-06
-4.80162e-06
-6.95786e-06
-4.65973e-06
-6.20669e-06
-4.48563e-06
-5.48327e-06
-4.28577e-06
-4.79188e-06
-4.06542e-06
-4.13634e-06
-3.82868e-06
-3.5201e-06
-3.57871e-06
-2.94634e-06
-3.3178e-06
-2.41795e-06
-3.0476e-06
-1.93749e-06
-2.7692e-06
-1.50712e-06
-2.48328e-06
-1.12848e-06
-2.19017e-06
-8.02606e-07
-1.88976e-06
-5.29999e-07
-1.58126e-06
-3.11017e-07
-1.26287e-06
-1.46698e-07
-9.31228e-07
-4.02894e-08
-5.80985e-07
-2.04793e-07
4.16119e-08
-2.52885e-07
1.5296e-07
-7.15303e-07
3.27581e-07
-1.14715e-06
5.63676e-07
-1.55892e-06
8.60992e-07
-1.95647e-06
1.21909e-06
-2.34229e-06
1.63669e-06
-2.71686e-06
2.11149e-06
-3.0796e-06
2.64034e-06
-3.42955e-06
3.21949e-06
-3.76571e-06
3.84482e-06
-4.087e-06
4.51202e-06
-4.39213e-06
5.21662e-06
-4.67937e-06
5.95404e-06
-4.94627e-06
6.71949e-06
-5.18948e-06
7.50792e-06
-5.40451e-06
8.31386e-06
-5.58559e-06
9.13133e-06
-5.72557e-06
9.95369e-06
-5.81579e-06
1.07735e-05
-5.84603e-06
1.15825e-05
-5.80439e-06
1.23711e-05
-5.67732e-06
1.31286e-05
-5.44951e-06
1.38425e-05
-5.10395e-06
1.44986e-05
-4.62202e-06
1.50796e-05
-3.98374e-06
1.55652e-05
-3.16832e-06
1.59308e-05
-2.15518e-06
1.61464e-05
-9.25773e-07
1.61761e-05
5.33399e-07
1.59782e-05
2.22637e-06
1.55067e-05
4.14177e-06
1.47153e-05
6.24592e-06
1.35641e-05
8.47635e-06
1.20284e-05
1.07388e-05
1.01077e-05
1.2911e-05
7.83119e-06
1.4854e-05
5.25964e-06
1.64288e-05
2.48179e-06
1.75139e-05
-3.93369e-07
1.80224e-05
-3.24713e-06
1.79129e-05
-5.96304e-06
1.71949e-05
-8.43859e-06
1.59282e-05
-1.05949e-05
1.42142e-05
-1.23828e-05
1.21822e-05
-1.37844e-05
9.97253e-06
-1.481e-05
7.71873e-06
-1.54907e-05
5.53297e-06
-1.58692e-05
3.49772e-06
-1.59921e-05
1.66447e-06
-1.59037e-05
5.83855e-08
-1.56435e-05
-1.31509e-06
-1.52449e-05
-2.4637e-06
-1.47356e-05
-3.40297e-06
-1.41385e-05
-4.15231e-06
-1.34726e-05
-4.7325e-06
-1.27538e-05
-5.16401e-06
-1.19959e-05
-5.46615e-06
-1.12107e-05
-5.65674e-06
-1.04085e-05
-5.75198e-06
-9.59858e-06
-5.7665e-06
-8.78895e-06
-5.7133e-06
-7.98682e-06
-5.60383e-06
-7.19854e-06
-5.448e-06
-6.42985e-06
-5.25425e-06
-5.68589e-06
-5.02959e-06
-4.97142e-06
-4.77967e-06
-4.29088e-06
-4.50892e-06
-3.64853e-06
-4.22069e-06
-3.04843e-06
-3.91745e-06
-2.49454e-06
-3.60097e-06
-1.99053e-06
-3.27259e-06
-1.53969e-06
-2.93342e-06
-1.14465e-06
-2.58441e-06
-8.07129e-07
-2.22636e-06
-5.2783e-07
-1.85953e-06
-3.066e-07
-1.48295e-06
-1.43198e-07
-1.0934e-06
-3.89603e-08
-6.84014e-07
-2.43145e-07
3.87373e-08
-2.90569e-07
1.44778e-07
-8.19789e-07
3.15261e-07
-1.31606e-06
5.51228e-07
-1.7934e-06
8.54017e-07
-2.25785e-06
1.22349e-06
-2.71049e-06
1.65769e-06
-3.14996e-06
2.15303e-06
-3.57406e-06
2.70481e-06
-3.98069e-06
3.30771e-06
-4.36819e-06
3.95615e-06
-4.73523e-06
4.64454e-06
-5.08049e-06
5.3674e-06
-5.40233e-06
6.1193e-06
-5.69839e-06
6.89483e-06
-5.96532e-06
7.68849e-06
-6.19856e-06
8.49456e-06
-6.39215e-06
9.30705e-06
-6.53863e-06
1.01195e-05
-6.62894e-06
1.09251e-05
-6.65235e-06
1.17164e-05
-6.59642e-06
1.2485e-05
-6.44688e-06
1.32221e-05
-6.18757e-06
1.39176e-05
-5.80039e-06
1.45597e-05
-5.26522e-06
1.51349e-05
-4.55997e-06
1.56262e-05
-3.66075e-06
1.60123e-05
-2.54251e-06
1.62659e-05
-1.18053e-06
1.63515e-05
4.46642e-07
1.62247e-05
2.35214e-06
1.58322e-05
4.53322e-06
1.51162e-05
6.96118e-06
1.40217e-05
9.57043e-06
1.25092e-05
1.22513e-05
1.05676e-05
1.48532e-05
8.22255e-06
1.72004e-05
5.53909e-06
1.91141e-05
2.61762e-06
2.04377e-05
-4.16212e-07
2.10587e-05
-3.42471e-06
2.09234e-05
-6.27308e-06
2.00445e-05
-8.84412e-06
1.84999e-05
-1.10503e-05
1.64207e-05
-1.28414e-05
1.39737e-05
-1.42061e-05
1.13383e-05
-1.51669e-05
8.68137e-06
-1.577e-05
6.13841e-06
-1.60722e-05
3.80227e-06
-1.61298e-05
1.72419e-06
-1.59927e-05
-7.71931e-08
-1.57018e-05
-1.60517e-06
-1.52891e-05
-2.876e-06
-1.47796e-05
-3.91245e-06
-1.41927e-05
-4.73946e-06
-1.35436e-05
-5.3818e-06
-1.28452e-05
-5.86267e-06
-1.21084e-05
-6.20319e-06
-1.1343e-05
-6.42238e-06
-1.05579e-05
-6.53739e-06
-9.76119e-06
-6.56357e-06
-8.96022e-06
-6.51463e-06
-8.1618e-06
-6.40261e-06
-7.37219e-06
-6.23797e-06
-6.59718e-06
-6.02959e-06
-5.84224e-06
-5.78483e-06
-5.11261e-06
-5.50956e-06
-4.41339e-06
-5.20835e-06
-3.7497e-06
-4.88454e-06
-3.12668e-06
-4.54055e-06
-2.54954e-06
-4.17812e-06
-2.0234e-06
-3.79865e-06
-1.5531e-06
-3.40354e-06
-1.14275e-06
-2.99446e-06
-7.95289e-07
-2.5734e-06
-5.11973e-07
-2.14228e-06
-2.92217e-07
-1.70202e-06
-1.34059e-07
-1.25079e-06
-3.58526e-08
-7.81472e-07
-2.7864e-07
3.37184e-08
-3.2319e-07
1.30451e-07
-9.14954e-07
2.92924e-07
-1.47691e-06
5.26193e-07
-2.02508e-06
8.33461e-07
-2.56352e-06
1.21454e-06
-3.09001e-06
1.66612e-06
-3.60007e-06
2.18264e-06
-4.08925e-06
2.75723e-06
-4.55415e-06
3.38256e-06
-4.99259e-06
4.05129e-06
-5.40326e-06
4.75641e-06
-5.78512e-06
5.49129e-06
-6.13688e-06
6.24963e-06
-6.45655e-06
7.02537e-06
-6.74101e-06
7.81256e-06
-6.9858e-06
8.60525e-06
-7.18499e-06
9.3974e-06
-7.33103e-06
1.01828e-05
-7.4147e-06
1.09551e-05
-7.42512e-06
1.17078e-05
-7.34963e-06
1.2434e-05
-7.17373e-06
1.31267e-05
-6.881e-06
1.37783e-05
-6.45291e-06
1.43808e-05
-5.86866e-06
1.49246e-05
-5.10488e-06
1.53981e-05
-4.13538e-06
1.57853e-05
-2.93107e-06
1.6064e-05
-1.46063e-06
1.62022e-05
3.07079e-07
1.6155e-05
2.3979e-06
1.58635e-05
4.82342e-06
1.52564e-05
7.56706e-06
1.42601e-05
1.05659e-05
1.28151e-05
1.36957e-05
1.08954e-05
1.67727e-05
8.52055e-06
1.95756e-05
5.75965e-06
2.18761e-05
2.72585e-06
2.34732e-05
-4.36743e-07
2.42233e-05
-3.56921e-06
2.40575e-05
-6.51639e-06
2.29926e-05
-9.14515e-06
2.11283e-05
-1.13592e-05
1.86336e-05
-1.31088e-05
1.57219e-05
-1.43923e-05
1.26211e-05
-1.52495e-05
9.53884e-06
-1.57459e-05
6.63625e-06
-1.5955e-05
4.0136e-06
-1.59436e-05
1.71517e-06
-1.5765e-05
-2.53621e-07
-1.54589e-05
-1.90962e-06
-1.50534e-05
-3.28039e-06
-1.4568e-05
-4.39703e-06
-1.40169e-05
-5.29014e-06
-1.34103e-05
-5.98794e-06
-1.27571e-05
-6.51556e-06
-1.2065e-05
-6.89502e-06
-1.13414e-05
-7.14573e-06
-1.05935e-05
-7.28505e-06
-9.8283e-06
-7.32858e-06
-9.0525e-06
-7.29028e-06
-8.2725e-06
-7.18249e-06
-7.49442e-06
-7.01595e-06
-6.72417e-06
-6.79975e-06
-5.96751e-06
-6.54138e-06
-5.23017e-06
-6.24679e-06
-4.51796e-06
-5.92043e-06
-3.83688e-06
-5.56546e-06
-3.19326e-06
-5.18398e-06
-2.59374e-06
-4.7774e-06
-2.0452e-06
-4.34688e-06
-1.55446e-06
-3.8939e-06
-1.12775e-06
-3.4207e-06
-7.69917e-07
-2.93066e-06
-4.83469e-07
-2.42808e-06
-2.67739e-07
-1.91705e-06
-1.18756e-07
-1.3991e-06
-3.06727e-08
-8.68987e-07
-3.08896e-07
2.59753e-08
-3.48004e-07
1.09084e-07
-9.96419e-07
2.60368e-07
-1.6264e-06
4.90107e-07
-2.25295e-06
8.03263e-07
-2.87463e-06
1.19875e-06
-3.48326e-06
1.67086e-06
-4.06979e-06
2.21112e-06
-4.62701e-06
2.80985e-06
-5.15037e-06
3.45729e-06
-5.63755e-06
4.14414e-06
-6.08773e-06
4.86187e-06
-6.50059e-06
5.60273e-06
-6.87559e-06
6.35954e-06
-7.21132e-06
7.12563e-06
-7.50515e-06
7.89459e-06
-7.75292e-06
8.66019e-06
-7.94886e-06
9.4163e-06
-8.08551e-06
1.01569e-05
-8.15377e-06
1.08759e-05
-8.14285e-06
1.15678e-05
-8.04026e-06
1.22268e-05
-7.83176e-06
1.28478e-05
-7.50126e-06
1.3426e-05
-7.03059e-06
1.39569e-05
-6.39927e-06
1.44359e-05
-5.58396e-06
1.48578e-05
-4.5576e-06
1.52143e-05
-3.28836e-06
1.54915e-05
-1.73899e-06
1.5665e-05
1.32132e-07
1.56943e-05
2.36689e-06
1.55177e-05
4.99813e-06
1.50507e-05
8.03177e-06
1.41965e-05
1.14175e-05
1.28698e-05
1.50194e-05
1.10249e-05
1.8614e-05
8.67239e-06
2.1924e-05
5.88472e-06
2.46596e-05
2.78856e-06
2.65656e-05
-4.52859e-07
2.74616e-05
-3.65856e-06
2.72604e-05
-6.65221e-06
2.59828e-05
-9.28462e-06
2.3756e-05
-1.14514e-05
2.07943e-05
-1.3105e-05
1.73688e-05
-1.42578e-05
1.37675e-05
-1.49717e-05
1.02476e-05
-1.53369e-05
6.99837e-06
-1.54463e-05
4.1216e-06
-1.53751e-05
1.64387e-06
-1.51764e-05
-4.51813e-07
-1.4884e-05
-2.20121e-06
-1.45183e-05
-3.6453e-06
-1.4091e-05
-4.82363e-06
-1.36087e-05
-5.77161e-06
-1.30759e-05
-6.5197e-06
-1.24968e-05
-7.09358e-06
-1.18755e-05
-7.51489e-06
-1.12174e-05
-7.80235e-06
-1.0528e-05
-7.97275e-06
-9.81347e-06
-8.04138e-06
-9.07983e-06
-8.02209e-06
-8.33322e-06
-7.92721e-06
-7.57971e-06
-7.76752e-06
-6.82536e-06
-7.55212e-06
-6.07625e-06
-7.2885e-06
-5.33858e-06
-6.98244e-06
-4.61884e-06
-6.63815e-06
-3.92394e-06
-6.25835e-06
-3.26134e-06
-5.84456e-06
-2.63925e-06
-5.39749e-06
-2.0665e-06
-4.91764e-06
-1.55234e-06
-4.40607e-06
-1.1058e-06
-3.86526e-06
-7.34581e-07
-3.29994e-06
-4.43505e-07
-2.7173e-06
-2.32687e-07
-2.12617e-06
-9.62189e-08
-1.53411e-06
-2.27593e-08
-9.41288e-07
-3.30577e-07
1.44752e-08
-3.61201e-07
7.92094e-08
-1.05934e-06
2.17366e-07
-1.76248e-06
4.45402e-07
-2.47872e-06
7.6912e-07
-3.1957e-06
1.18492e-06
-3.89591e-06
1.68317e-06
-4.56438e-06
2.25142e-06
-5.19113e-06
2.87657e-06
-5.771e-06
3.54616e-06
-6.30235e-06
4.24893e-06
-6.78553e-06
4.97494e-06
-7.22153e-06
5.71539e-06
-7.61093e-06
6.46239e-06
-7.95321e-06
7.20867e-06
-8.24634e-06
7.9474e-06
-8.48661e-06
8.67202e-06
-8.66851e-06
9.37619e-06
-8.78484e-06
1.00538e-05
-8.82672e-06
1.06992e-05
-8.78372e-06
1.13069e-05
-8.64384e-06
1.18726e-05
-8.3935e-06
1.23923e-05
-8.01749e-06
1.28635e-05
-7.49879e-06
1.3285e-05
-6.81831e-06
1.36573e-05
-5.95433e-06
1.3982e-05
-4.88111e-06
1.42606e-05
-3.56656e-06
1.4491e-05
-1.96977e-06
1.46618e-05
-3.97688e-08
1.47439e-05
2.28296e-06
1.46796e-05
5.05961e-06
1.43744e-05
8.33305e-06
1.37042e-05
1.20823e-05
1.25511e-05
1.61649e-05
1.08458e-05
2.0309e-05
8.58732e-06
2.41698e-05
5.85027e-06
2.73821e-05
2.77448e-06
2.96267e-05
-4.60255e-07
3.06829e-05
-3.65336e-06
3.04419e-05
-6.60945e-06
2.89281e-05
-9.16575e-06
2.6301e-05
-1.12119e-05
2.28277e-05
-1.27047e-05
1.88475e-05
-1.36743e-05
1.47228e-05
-1.421e-05
1.077e-05
-1.44321e-05
7.20956e-06
-1.44535e-05
4.13492e-06
-1.43532e-05
1.53801e-06
-1.41761e-05
-6.32342e-07
-1.39441e-05
-2.43533e-06
-1.3665e-05
-3.92546e-06
-1.334e-05
-5.14902e-06
-1.29671e-05
-6.14401e-06
-1.25445e-05
-6.94109e-06
-1.20716e-05
-7.56468e-06
-1.15495e-05
-8.03439e-06
-1.09818e-05
-8.36699e-06
-1.03731e-05
-8.57792e-06
-9.72869e-06
-8.68175e-06
-9.0545e-06
-8.69194e-06
-8.35649e-06
-8.62061e-06
-7.64082e-06
-8.47836e-06
-6.91377e-06
-8.27419e-06
-6.18175e-06
-8.0154e-06
-5.45147e-06
-7.70755e-06
-4.72998e-06
-7.35443e-06
-4.02499e-06
-6.95815e-06
-3.34502e-06
-6.51937e-06
-2.69971e-06
-6.03771e-06
-2.09992e-06
-5.51244e-06
-1.55758e-06
-4.94354e-06
-1.08519e-06
-4.33297e-06
-6.94446e-07
-3.68624e-06
-3.9403e-07
-3.01359e-06
-1.86456e-07
-2.33004e-06
-6.47228e-08
-1.65266e-06
-1.0891e-08
-9.925e-07
-3.39216e-07
-2.55101e-09
-3.57161e-07
3.87755e-08
-1.09867e-06
1.64348e-07
-1.88566e-06
3.96699e-07
-2.70849e-06
7.40041e-07
-3.53602e-06
1.18557e-06
-4.3378e-06
1.71782e-06
-5.09224e-06
2.31928e-06
-5.78746e-06
2.9731e-06
-6.41901e-06
3.66425e-06
-6.98712e-06
4.3798e-06
-7.49427e-06
5.10872e-06
-7.94333e-06
5.84147e-06
-8.33635e-06
6.56962e-06
-8.67389e-06
7.28543e-06
-8.95463e-06
7.98165e-06
-9.1753e-06
8.65132e-06
-9.3307e-06
9.28773e-06
-9.41389e-06
9.88452e-06
-9.41635e-06
1.04358e-05
-9.32811e-06
1.09364e-05
-9.1379e-06
1.13821e-05
-8.83304e-06
1.17699e-05
-8.39962e-06
1.20983e-05
-7.82228e-06
1.23685e-05
-7.08424e-06
1.25846e-05
-6.16703e-06
1.2755e-05
-5.04893e-06
1.28911e-05
-3.70126e-06
1.30055e-05
-2.08369e-06
1.31054e-05
-1.40319e-07
1.3183e-05
2.20348e-06
1.31975e-05
5.04178e-06
1.3052e-05
8.47302e-06
1.25939e-05
1.25319e-05
1.16675e-05
1.70789e-05
1.01793e-05
2.17799e-05
8.11449e-06
2.62123e-05
5.54848e-06
2.99221e-05
2.63141e-06
3.25169e-05
-4.50172e-07
3.37403e-05
-3.48549e-06
3.34577e-05
-6.26792e-06
3.16951e-05
-8.629e-06
2.86481e-05
-1.04571e-05
2.46409e-05
-1.17156e-05
2.00889e-05
-1.24553e-05
1.54439e-05
-1.27955e-05
1.10914e-05
-1.28891e-05
7.28614e-06
-1.28671e-05
4.09882e-06
-1.2801e-05
1.46116e-06
-1.27156e-05