/*--------------------------------*- C++ -*----------------------------------*\
| =========                 |                                                 |
| \\      /  F ield         | OpenFOAM: The Open Source CFD Toolbox           |
|  \\    /   O peration     | Version:  2412                                  |
|   \\  /    A nd           | Website:  www.openfoam.com                      |
|    \\/     M anipulation  |                                                 |
\*---------------------------------------------------------------------------*/
FoamFile
{
    version     2.0;
    format      ascii;
    arch        "LSB;label=32;scalar=64";
    class       surfaceScalarField;
    location    "13";
    object      phi;
}
// * * * * * * * * * * * * * * * * * * * * * * * * * * * * * * * * * * * * * //

dimensions      [0 3 -1 0 0 0 0];

oriented        oriented;

internalField   nonuniform List<scalar> 
12640
(
-1.46619e-10
9.41575e-11
-6.73848e-10
-1.3227e-10
-1.02087e-09
-3.33788e-10
-1.30351e-09
-4.35508e-10
-1.59996e-09
-4.31759e-10
-1.90192e-09
-3.43454e-10
-2.1651e-09
-2.36174e-10
-2.35965e-09
-1.867e-10
-2.50122e-09
-2.28528e-10
-2.64026e-09
-3.26909e-10
-2.8223e-09
-4.01091e-10
-3.0499e-09
-3.83167e-10
-3.27722e-09
-2.66918e-10
-3.44065e-09
-1.13833e-10
-3.50379e-09
-9.57061e-12
-3.48265e-09
-5.12619e-12
-3.43352e-09
-8.34848e-11
-3.41267e-09
-1.76034e-10
-3.43856e-09
-2.13202e-10
-3.48348e-09
-1.71431e-10
-3.49847e-09
-8.32645e-11
-3.4502e-09
-8.04823e-12
-3.34182e-09
1.11387e-11
-3.20525e-09
-2.78687e-11
-3.07487e-09
-9.37754e-11
-2.96472e-09
-1.49843e-10
-2.86465e-09
-1.7875e-10
-2.75411e-09
-1.88107e-10
-2.61969e-09
-1.97951e-10
-2.46333e-09
-2.23727e-10
-2.29795e-09
-2.67645e-10
-2.13722e-09
-3.21661e-10
-1.98818e-09
-3.76257e-10
-1.85081e-09
-4.27034e-10
-1.7224e-09
-4.75396e-10
-1.60183e-09
-5.2499e-10
-1.49072e-09
-5.77993e-10
-1.39166e-09
-6.33927e-10
-1.30589e-09
-6.90902e-10
-1.23221e-09
-7.47444e-10
-1.16768e-09
-8.03302e-10
-1.10899e-09
-8.58907e-10
-1.05342e-09
-9.1424e-10
-9.99052e-10
-9.68126e-10
-9.4423e-10
-1.01844e-09
-8.87016e-10
-1.06308e-09
-8.24987e-10
-1.10108e-09
-7.5561e-10
-1.13317e-09
-6.77038e-10
-1.16136e-09
-5.88943e-10
-1.18763e-09
-4.92879e-10
-1.21246e-09
-3.91794e-10
-1.23408e-09
-2.88734e-10
-1.24922e-09
-1.85334e-10
-1.2552e-09
-8.10075e-11
-1.25227e-09
2.65308e-11
-1.24463e-09
1.3952e-10
-1.23908e-09
2.58203e-10
-1.24174e-09
3.80011e-10
-1.25459e-09
5.00708e-10
-1.2741e-09
6.17072e-10
-1.29331e-09
7.2956e-10
-1.30653e-09
8.43031e-10
-1.31373e-09
9.64719e-10
-1.32184e-09
1.1002e-09
-1.34122e-09
1.25e-09
-1.37932e-09
1.40905e-09
-1.43509e-09
1.57017e-09
-1.4988e-09
1.72926e-09
-1.55745e-09
1.88871e-09
-1.60318e-09
2.05518e-09
-1.63771e-09
2.23239e-09
-1.6697e-09
2.41185e-09
-1.70477e-09
2.5675e-09
-1.73619e-09
2.65596e-09
-1.74192e-09
2.62065e-09
-1.69143e-09
2.39291e-09
-1.55429e-09
1.89085e-09
-1.31778e-09
1.06548e-09
-1.05427e-09
-8.26422e-10
-4.83513e-10
-1.86799e-10
-1.3136e-09
-5.84115e-10
-1.88551e-09
-9.19237e-10
-2.31528e-09
-1.13083e-09
-2.74967e-09
-1.19582e-09
-3.24128e-09
-1.11196e-09
-3.7536e-09
-9.30264e-10
-4.21363e-09
-7.44786e-10
-4.57722e-09
-6.43331e-10
-4.86446e-09
-6.51135e-10
-5.13953e-09
-7.16023e-10
-5.45653e-09
-7.45773e-10
-5.81183e-09
-6.75763e-10
-6.14143e-09
-5.14847e-10
-6.36367e-09
-3.39129e-10
-6.43657e-09
-2.3682e-10
-6.38592e-09
-2.46973e-10
-6.28457e-09
-3.35619e-10
-6.19958e-09
-4.25348e-10
-6.14814e-09
-4.52537e-10
-6.09354e-09
-4.09266e-10
-5.98015e-09
-3.41514e-10
-5.77699e-09
-3.10651e-10
-5.49697e-09
-3.50692e-10
-5.18195e-09
-4.51902e-10
-4.87054e-09
-5.77037e-10
-4.57549e-09
-6.92016e-10
-4.28468e-09
-7.86628e-10
-3.97942e-09
-8.73626e-10
-3.65268e-09
-9.72768e-10
-3.31431e-09
-1.09501e-09
-2.98319e-09
-1.23766e-09
-2.67566e-09
-1.3902e-09
-2.3993e-09
-1.54342e-09
-2.15434e-09
-1.69428e-09
-1.93897e-09
-1.8448e-09
-1.75313e-09
-1.99791e-09
-1.59856e-09
-2.15423e-09
-1.47636e-09
-2.31183e-09
-1.38471e-09
-2.46794e-09
-1.31848e-09
-2.6207e-09
-1.27053e-09
-2.76954e-09
-1.2335e-09
-2.9143e-09
-1.20098e-09
-3.05405e-09
-1.16775e-09
-3.18649e-09
-1.12924e-09
-3.30838e-09
-1.08081e-09
-3.41682e-09
-1.0175e-09
-3.51055e-09
-9.34274e-10
-3.59064e-09
-8.27112e-10
-3.65989e-09
-6.94223e-10
-3.72125e-09
-5.36812e-10
-3.77593e-09
-3.58585e-10
-3.82265e-09
-1.63928e-10
-3.85856e-09
4.44439e-11
-3.88194e-09
2.6698e-10
-3.89484e-09
5.06803e-10
-3.90407e-09
7.67234e-10
-3.91922e-09
1.04877e-09
-3.9485e-09
1.34746e-09
-3.99463e-09
1.65626e-09
-4.05366e-09
1.96878e-09
-4.11785e-09
2.28346e-09
-4.18157e-09
2.60516e-09
-4.2462e-09
2.94272e-09
-4.32109e-09
3.30319e-09
-4.41846e-09
3.68667e-09
-4.54551e-09
4.08485e-09
-4.69813e-09
4.48536e-09
-4.86142e-09
4.87807e-09
-5.01629e-09
5.25807e-09
-5.14825e-09
5.61945e-09
-5.24967e-09
5.9411e-09
-5.31322e-09
6.16982e-09
-5.31812e-09
6.21053e-09
-5.22049e-09
5.92811e-09
-4.95414e-09
5.16104e-09
-4.44648e-09
3.7177e-09
-3.64663e-09
1.43826e-09
-2.55191e-09
-1.08165e-09
-5.68917e-10
-4.01592e-10
-1.44308e-09
-1.04457e-09
-1.9956e-09
-1.51641e-09
-2.33872e-09
-1.81158e-09
-2.64564e-09
-1.93635e-09
-3.03958e-09
-1.88626e-09
-3.54441e-09
-1.67911e-09
-4.0899e-09
-1.38337e-09
-4.57447e-09
-1.10528e-09
-4.93959e-09
-9.37852e-10
-5.2075e-09
-9.04282e-10
-5.45488e-09
-9.46045e-10
-5.74751e-09
-9.64645e-10
-6.08363e-09
-8.92055e-10
-6.39021e-09
-7.36713e-10
-6.57316e-09
-5.74351e-10
-6.58374e-09
-4.90391e-10
-6.45018e-09
-5.19661e-10
-6.25302e-09
-6.26479e-10
-6.06577e-09
-7.36922e-10
-5.90755e-09
-7.94587e-10
-5.74121e-09
-7.97125e-10
-5.51184e-09
-7.89641e-10
-5.19147e-09
-8.26252e-10
-4.79635e-09
-9.32519e-10
-4.36976e-09
-1.09498e-09
-3.95013e-09
-1.27929e-09
-3.55088e-09
-1.4576e-09
-3.16335e-09
-1.62403e-09
-2.77449e-09
-1.79076e-09
-2.38245e-09
-1.97314e-09
-1.99951e-09
-2.17745e-09
-1.64397e-09
-2.39892e-09
-1.33018e-09
-2.62798e-09
-1.06401e-09
-2.85761e-09
-8.44922e-10
-3.08629e-09
-6.70575e-10
-3.316e-09
-5.39686e-10
-3.54852e-09
-4.51621e-10
-3.78323e-09
-4.04243e-10
-4.01743e-09
-3.9225e-10
-4.24808e-09
-4.07205e-10
-4.47323e-09
-4.38995e-10
-4.69217e-09
-4.77657e-10
-4.90449e-09
-5.14678e-10
-5.10882e-09
-5.43328e-10
-5.3023e-09
-5.58105e-10
-5.48098e-09
-5.53713e-10
-5.64124e-09
-5.24233e-10
-5.78145e-09
-4.63169e-10
-5.903e-09
-3.64662e-10
-6.00983e-09
-2.25422e-10
-6.10658e-09
-4.61844e-11
-6.19611e-09
1.68509e-10
-6.27814e-09
4.12615e-10
-6.35006e-09
6.8196e-10
-6.4099e-09
9.76695e-10
-6.4598e-09
1.301e-09
-6.50755e-09
1.65982e-09
-6.56469e-09
2.0543e-09
-6.64166e-09
2.47902e-09
-6.74268e-09
2.92316e-09
-6.86379e-09
3.37565e-09
-6.99587e-09
3.83152e-09
-7.13152e-09
4.29493e-09
-7.27138e-09
4.77656e-09
-7.4256e-09
5.28554e-09
-7.60794e-09
5.82118e-09
-7.82577e-09
6.36956e-09
-8.07136e-09
6.90761e-09
-8.3208e-09
7.41004e-09
-8.5399e-09
7.85138e-09
-8.69226e-09
8.19578e-09
-8.74012e-09
8.37751e-09
-8.63622e-09
8.28149e-09
-8.31117e-09
7.74096e-09
-7.6708e-09
6.55971e-09
-6.61525e-09
4.53456e-09
-5.08718e-09
1.66271e-09
-3.13774e-09
-9.88394e-10
-4.83137e-10
-6.66024e-10
-1.28025e-09
-1.6629e-09
-1.72957e-09
-2.30854e-09
-1.92222e-09
-2.64845e-09
-2.01233e-09
-2.76986e-09
-2.16235e-09
-2.72281e-09
-2.46953e-09
-2.51949e-09
-2.92233e-09
-2.17807e-09
-3.41637e-09
-1.76867e-09
-3.82944e-09
-1.40465e-09
-4.10188e-09
-1.18618e-09
-4.26997e-09
-1.13651e-09
-4.42708e-09
-1.18789e-09
-4.64536e-09
-1.22767e-09
-4.91518e-09
-1.17667e-09
-5.14901e-09
-1.03992e-09
-5.2444e-09
-8.96017e-10
-5.15695e-09
-8.35057e-10
-4.92755e-09
-8.94551e-10
-4.64674e-09
-1.03927e-09
-4.38824e-09
-1.19531e-09
-4.1639e-09
-1.3067e-09
-3.93018e-09
-1.37058e-09
-3.6329e-09
-1.42913e-09
-3.25092e-09
-1.53195e-09
-2.8074e-09
-1.70128e-09
-2.34785e-09
-1.92382e-09
-1.90851e-09
-2.16838e-09
-1.50007e-09
-2.41054e-09
-1.11399e-09
-2.64526e-09
-7.40182e-10
-2.88258e-09
-3.79962e-10
-3.13455e-09
-4.641e-11
-3.40536e-09
2.44191e-10
-3.69046e-09
4.80974e-10
-3.98206e-09
6.61295e-10
-4.27494e-09
7.87994e-10
-4.56834e-09
8.65171e-10
-4.86385e-09
8.96058e-10
-5.16236e-09
8.83706e-10
-5.46239e-09
8.32924e-10
-5.76067e-09
7.5155e-10
-6.05382e-09
6.50168e-10
-6.33964e-09
5.40594e-10
-6.61734e-09
4.33975e-10
-6.88651e-09
3.39357e-10
-7.1458e-09
2.63276e-10
-7.39206e-09
2.10511e-10
-7.62068e-09
1.85608e-10
-7.82721e-09
1.94279e-10
-8.00963e-09
2.43571e-10
-8.16996e-09
3.40314e-10
-8.31395e-09
4.88415e-10
-8.44867e-09
6.86692e-10
-8.57908e-09
9.28989e-10
-8.70568e-09
1.20716e-09
-8.82513e-09
1.51554e-09
-8.93396e-09
1.85426e-09
-9.03332e-09
2.2289e-09
-9.1317e-09
2.64607e-09
-9.24307e-09
3.1073e-09
-9.38088e-09
3.60523e-09
-9.55112e-09
4.1252e-09
-9.74911e-09
4.65223e-09
-9.96272e-09
5.17951e-09
-1.01812e-08
5.71244e-09
-1.04033e-08
6.26444e-09
-1.06401e-08
6.84546e-09
-1.09062e-08
7.4503e-09
-1.12065e-08
8.05353e-09
-1.15226e-08
8.61424e-09
-1.18089e-08
9.08353e-09
-1.19982e-08
9.4055e-09
-1.20104e-08
9.50444e-09
-1.17559e-08
9.26539e-09
-1.11327e-08
8.52541e-09
-1.00266e-08
7.09647e-09
-8.33689e-09
4.8065e-09
-6.0438e-09
1.7507e-09
-3.3323e-09
-7.66971e-10
-3.39381e-10
-1.00484e-09
-9.88313e-10
-2.48805e-09
-1.30723e-09
-3.38284e-09
-1.37361e-09
-3.76148e-09
-1.2878e-09
-3.80415e-09
-1.19089e-09
-3.67026e-09
-1.22072e-09
-3.42834e-09
-1.44604e-09
-3.07857e-09
-1.82736e-09
-2.62573e-09
-2.23958e-09
-2.13658e-09
-2.55304e-09
-1.72673e-09
-2.71443e-09
-1.49553e-09
-2.77331e-09
-1.45756e-09
-2.83268e-09
-1.53136e-09
-2.96373e-09
-1.59393e-09
-3.14811e-09
-1.56434e-09
-3.2917e-09
-1.45268e-09
-3.29542e-09
-1.3427e-09
-3.12652e-09
-1.3243e-09
-2.83599e-09
-1.42995e-09
-2.51441e-09
-1.62013e-09
-2.22605e-09
-1.82173e-09
-1.97285e-09
-1.98372e-09
-1.70958e-09
-2.10709e-09
-1.38953e-09
-2.23273e-09
-1.00143e-09
-2.40445e-09
-5.72867e-10
-2.63876e-09
-1.46143e-10
-2.92066e-09
2.49221e-10
-3.22165e-09
6.06883e-10
-3.5213e-09
9.34865e-10
-3.81656e-09
1.23987e-09
-4.11643e-09
1.5182e-09
-4.43043e-09
1.75777e-09
-4.76103e-09
1.94612e-09
-5.10385e-09
2.07687e-09
-5.45264e-09
2.1509e-09
-5.80375e-09
2.1732e-09
-6.15701e-09
2.14942e-09
-6.51368e-09
2.08439e-09
-6.87373e-09
1.98299e-09
-7.23474e-09
1.85175e-09
-7.59266e-09
1.69983e-09
-7.94349e-09
1.53868e-09
-8.2847e-09
1.38065e-09
-8.61543e-09
1.23698e-09
-8.93554e-09
1.11622e-09
-9.24397e-09
1.02362e-09
-9.53758e-09
9.6206e-10
-9.8113e-09
9.34195e-10
-1.006e-08
9.44482e-10
-1.02816e-08
9.99706e-10
-1.04788e-08
1.10712e-09
-1.06595e-08
1.27096e-09
-1.08333e-08
1.48946e-09
-1.10072e-08
1.75474e-09
-1.11824e-08
2.05636e-09
-1.13544e-08
2.3869e-09
-1.1518e-08
2.74629e-09
-1.16731e-08
3.14152e-09
-1.18291e-08
3.58128e-09
-1.20021e-08
4.06822e-09
-1.22084e-08
4.594e-09
-1.24555e-08
5.14106e-09
-1.27374e-08
5.69134e-09
-1.30385e-08
6.23674e-09
-1.33444e-08
6.78375e-09
-1.36515e-08
7.34722e-09
-1.39689e-08
7.93523e-09
-1.43069e-08
8.53392e-09
-1.46579e-08
9.10119e-09
-1.49785e-08
9.57219e-09
-1.51832e-08
9.86808e-09
-1.51516e-08
9.89792e-09
-1.47424e-08
9.54862e-09
-1.38072e-08
8.67695e-09
-1.2209e-08
7.12468e-09
-9.85996e-09
4.75736e-09
-6.80873e-09
1.70775e-09
-3.39929e-09
-5.15764e-10
-2.19586e-10
-1.38885e-09
-6.82067e-10
-3.46725e-09
-8.45345e-10
-4.70372e-09
-8.14024e-10
-5.16536e-09
-6.39808e-10
-5.10224e-09
-3.96576e-10
-4.79119e-09
-1.95409e-10
-4.41266e-09
-1.53006e-10
-4.01219e-09
-3.20032e-10
-3.56083e-09
-6.40313e-10
-3.04472e-09
-9.76757e-10
-2.52344e-09
-1.19761e-09
-2.10902e-09
-1.25793e-09
-1.89411e-09
-1.21942e-09
-1.8823e-09
-1.19191e-09
-1.98279e-09
-1.24416e-09
-2.07052e-09
-1.35143e-09
-2.06958e-09
-1.41825e-09
-1.99621e-09
-1.3532e-09
-1.93448e-09
-1.13452e-09
-1.96764e-09
-8.17953e-10
-2.1203e-09
-4.88207e-10
-2.35112e-09
-1.98295e-10
-2.59299e-09
5.67685e-11
-2.80342e-09
3.19388e-10
-2.98715e-09
6.26978e-10
-3.18105e-09
9.83272e-10
-3.42052e-09
1.3605e-09
-3.71563e-09
1.7226e-09
-4.05088e-09
2.04706e-09
-4.40209e-09
2.33057e-09
-4.75374e-09
2.5797e-09
-5.10485e-09
2.79837e-09
-5.46306e-09
2.98216e-09
-5.8353e-09
3.12146e-09
-6.2225e-09
3.20808e-09
-6.62057e-09
3.23974e-09
-7.02466e-09
3.22005e-09
-7.43233e-09
3.15561e-09
-7.8437e-09
3.05321e-09
-8.25942e-09
2.91881e-09
-8.67846e-09
2.75827e-09
-9.09735e-09
2.57867e-09
-9.5111e-09
2.38931e-09
-9.91491e-09
2.2015e-09
-1.03058e-08
2.02735e-09
-1.06831e-08
1.87766e-09
-1.10472e-08
1.75986e-09
-1.13979e-08
1.67724e-09
-1.17325e-08
1.63003e-09
-1.20459e-08
1.61826e-09
-1.23324e-08
1.64466e-09
-1.25896e-08
1.7156e-09
-1.2821e-08
1.83893e-09
-1.30365e-08
2.01953e-09
-1.32485e-08
2.25532e-09
-1.34663e-08
2.53668e-09
-1.36916e-08
2.85062e-09
-1.3919e-08
3.18771e-09
-1.41408e-08
3.5477e-09
-1.43556e-08
3.93951e-09
-1.45725e-08
4.37484e-09
-1.481e-08
4.85838e-09
-1.50875e-08
5.38132e-09
-1.54139e-08
5.92326e-09
-1.57821e-08
6.46277e-09
-1.61727e-08
6.98994e-09
-1.65658e-08
7.51133e-09
-1.69516e-08
8.04137e-09
-1.73306e-08
8.58302e-09
-1.76979e-08
9.10945e-09
-1.80185e-08
9.55712e-09
-1.82054e-08
9.83338e-09
-1.81138e-08
9.8284e-09
-1.75557e-08
9.42205e-09
-1.63296e-08
8.48501e-09
-1.42631e-08
6.89171e-09
-1.12777e-08
4.5463e-09
-7.49736e-09
1.59891e-09
-3.43388e-09
-2.71229e-10
-1.76024e-10
-1.79262e-09
-4.47191e-10
-4.51414e-09
-4.27742e-10
-6.15619e-09
-2.88635e-10
-6.77576e-09
-8.25864e-11
-6.65054e-09
1.87302e-10
-6.13704e-09
4.88217e-10
-5.52882e-09
7.28461e-10
-4.97534e-09
8.00618e-10
-4.48111e-09
6.64139e-10
-3.98565e-09
3.87002e-10
-3.45762e-09
1.13639e-10
-2.94878e-09
-2.75613e-11
-2.56493e-09
-4.18402e-12
-2.38926e-09
1.09666e-10
-2.4155e-09
2.00764e-10
-2.54811e-09
2.06441e-10
-2.66563e-09
1.58255e-10
-2.70046e-09
1.50131e-10
-2.67403e-09
2.62891e-10
-2.6671e-09
5.07397e-10
-2.75367e-09
8.26191e-10
-2.95119e-09
1.14348e-09
-3.21954e-09
1.41789e-09
-3.50012e-09
1.65932e-09
-3.75902e-09
1.9054e-09
-4.00283e-09
2.18445e-09
-4.26251e-09
2.49472e-09
-4.56493e-09
2.81032e-09
-4.91521e-09
3.10186e-09
-5.29899e-09
3.35292e-09
-5.69707e-09
3.56216e-09
-6.09844e-09
3.7347e-09
-6.50336e-09
3.87267e-09
-6.91786e-09
3.97208e-09
-7.3465e-09
4.02612e-09
-7.78898e-09
4.03039e-09
-8.24156e-09
3.9858e-09
-8.70036e-09
3.89794e-09
-9.16357e-09
3.77452e-09
-9.63119e-09
3.62309e-09
-1.01031e-08
3.45012e-09
-1.05774e-08
3.26155e-09
-1.10495e-08
3.06402e-09
-1.15134e-08
2.86601e-09
-1.19634e-08
2.67808e-09
-1.23962e-08
2.51176e-09
-1.28114e-08
2.3772e-09
-1.32107e-08
2.28057e-09
-1.35953e-08
2.22296e-09
-1.39636e-08
2.20168e-09
-1.43103e-08
2.21396e-09
-1.46295e-08
2.26077e-09
-1.49181e-08
2.34833e-09
-1.51803e-08
2.48555e-09
-1.54281e-08
2.67845e-09
-1.56766e-08
2.92498e-09
-1.59376e-08
3.21387e-09
-1.62136e-08
3.52951e-09
-1.64977e-08
3.86035e-09
-1.67796e-08
4.20609e-09
-1.70554e-08
4.57807e-09
-1.73341e-08
4.99151e-09
-1.76366e-08
5.45341e-09
-1.79853e-08
5.95441e-09
-1.8391e-08
6.47085e-09
-1.88448e-08
6.97738e-09
-1.93214e-08
7.46158e-09
-1.97911e-08
7.92866e-09
-2.02307e-08
8.3899e-09
-2.06208e-08
8.83933e-09
-2.09254e-08
9.23316e-09
-2.10628e-08
9.48394e-09
-2.08828e-08
9.47171e-09
-2.01701e-08
9.06198e-09
-1.86774e-08
8.12374e-09
-1.61901e-08
6.54961e-09
-1.26235e-08
4.27672e-09
-8.1648e-09
1.4694e-09
-3.48526e-09
-5.19134e-11
-2.12793e-10
-2.21961e-09
-3.31251e-10
-5.56831e-09
-1.26833e-10
-7.61505e-09
1.51845e-10
-8.44381e-09
3.98787e-10
-8.34353e-09
6.32407e-10
-7.68566e-09
9.0319e-10
-6.82982e-09
1.20026e-09
-6.03022e-09
1.4367e-09
-5.38833e-09
1.50842e-09
-4.86825e-09
1.38312e-09
-4.38341e-09
1.13823e-09
-3.88985e-09
9.19673e-10
-3.43236e-09
8.45735e-10
-3.1084e-09
9.33087e-10
-2.99011e-09
1.0979e-09
-3.06244e-09
1.22959e-09
-3.22932e-09
1.27581e-09
-3.37808e-09
1.2742e-09
-3.45229e-09
1.31308e-09
-3.47789e-09
1.45958e-09
-3.52985e-09
1.71438e-09
-3.67138e-09
2.02169e-09
-3.91336e-09
2.3172e-09
-4.21849e-09
2.57102e-09
-4.53745e-09
2.7958e-09
-4.84424e-09
3.02283e-09
-5.14603e-09
3.27167e-09
-5.46759e-09
3.53667e-09
-5.82828e-09
3.79494e-09
-6.22979e-09
4.02361e-09
-6.65973e-09
4.21126e-09
-7.10355e-09
4.35784e-09
-7.55384e-09
4.46724e-09
-8.01148e-09
4.54058e-09
-8.48086e-09
4.57477e-09
-8.96454e-09
4.56568e-09
-9.46123e-09
4.5119e-09
-9.96725e-09
4.41665e-09
-1.04792e-08
4.28683e-09
-1.09952e-08
4.13091e-09
-1.15151e-08
3.9568e-09
-1.2038e-08
3.77096e-09
-1.25611e-08
3.57864e-09
-1.30791e-08
3.38526e-09
-1.35848e-08
3.19792e-09
-1.40719e-08
3.02611e-09
-1.45367e-08
2.88077e-09
-1.49796e-08
2.7715e-09
-1.54042e-08
2.70343e-09
-1.58135e-08
2.67556e-09
-1.62074e-08
2.6824e-09
-1.6581e-08
2.71841e-09
-1.69276e-08
2.783e-09
-1.72437e-08
2.88249e-09
-1.75337e-08
3.02734e-09
-1.78113e-08
3.22522e-09
-1.80947e-08
3.47454e-09
-1.8398e-08
3.76254e-09
-1.87245e-08
4.07089e-09
-1.90656e-08
4.38577e-09
-1.9408e-08
4.70686e-09
-1.9745e-08
5.04802e-09
-2.00854e-08
5.42816e-09
-2.04525e-08
5.85653e-09
-2.08717e-08
6.32288e-09
-2.13545e-08
6.7999e-09
-2.1888e-08
7.25794e-09
-2.24365e-08
7.68116e-09
-2.29533e-08
8.07139e-09
-2.33903e-08
8.43347e-09
-2.36918e-08
8.74882e-09
-2.37704e-08
8.95422e-09
-2.34778e-08
8.93843e-09
-2.25914e-08
8.55926e-09
-2.08387e-08
7.67274e-09
-1.79705e-08
6.16984e-09
-1.38862e-08
4.00296e-09
-8.81535e-09
1.34837e-09
-3.56743e-09
1.32011e-10
-2.83534e-10
-2.69299e-09
-3.2012e-10
-6.62328e-09
1.83038e-11
-9.00696e-09
4.44439e-10
-1.00332e-08
7.76129e-10
-1.00208e-08
9.948e-10
-9.3226e-09
1.17883e-09
-8.28965e-09
1.40515e-09
-7.23284e-09
1.66714e-09
-6.35276e-09
1.87654e-09
-5.70482e-09
1.93252e-09
-5.21953e-09
1.81166e-09
-4.79243e-09
1.59763e-09
-4.37159e-09
1.43128e-09
-3.99549e-09
1.41527e-09
-3.75185e-09
1.55008e-09
-3.70084e-09
1.74707e-09
-3.82082e-09
1.90419e-09
-4.02017e-09
1.98163e-09
-4.19977e-09
2.02059e-09
-4.31605e-09
2.09978e-09
-4.39792e-09
2.2714e-09
-4.51203e-09
2.52824e-09
-4.7097e-09
2.81943e-09
-4.99596e-09
3.09331e-09
-5.33759e-09
3.32979e-09
-5.69481e-09
3.54187e-09
-6.04863e-09
3.75356e-09
-6.40601e-09
3.97672e-09
-6.78577e-09
4.20343e-09
-7.20101e-09
4.41452e-09
-7.65116e-09
4.59291e-09
-8.12608e-09
4.73111e-09
-8.61521e-09
4.8298e-09
-9.11378e-09
4.89194e-09
-9.62283e-09
4.91824e-09
-1.01452e-08
4.90681e-09
-1.06818e-08
4.85569e-09
-1.12303e-08
4.76571e-09
-1.17868e-08
4.64157e-09
-1.23478e-08
4.49102e-09
-1.29112e-08
4.32297e-09
-1.34763e-08
4.14546e-09
-1.40419e-08
3.96449e-09
-1.46046e-08
3.78414e-09
-1.51585e-08
3.60808e-09
-1.56958e-08
3.44169e-09
-1.62092e-08
3.29331e-09
-1.66951e-08
3.17343e-09
-1.71552e-08
3.09146e-09
-1.7595e-08
3.05182e-09
-1.80201e-08
3.05178e-09
-1.84321e-08
3.08323e-09
-1.88268e-08
3.13802e-09
-1.91968e-08
3.2141e-09
-1.95374e-08
3.31816e-09
-1.98531e-08
3.46255e-09
-2.0159e-08
3.65706e-09
-2.04759e-08
3.90086e-09
-2.08204e-08
4.17981e-09
-2.11965e-08
4.47274e-09
-2.1594e-08
4.76344e-09
-2.19963e-08
5.05157e-09
-2.23944e-08
5.3536e-09
-2.27964e-08
5.692e-09
-2.32275e-08
6.07798e-09
-2.37148e-08
6.50002e-09
-2.4268e-08
6.92697e-09
-2.48651e-08
7.32456e-09
-2.54528e-08
7.67241e-09
-2.5956e-08
7.96656e-09
-2.62846e-08
8.20197e-09
-2.6326e-08
8.34425e-09
-2.59217e-08
8.30932e-09
-2.48481e-08
7.96493e-09
-2.28271e-08
7.15914e-09
-1.95943e-08
5.7684e-09
-1.50393e-08
3.73951e-09
-9.42197e-09
1.24838e-09
-3.6641e-09
2.82779e-10
-3.19427e-10
-3.22576e-09
-3.46868e-10
-7.70183e-09
3.30903e-11
-1.03338e-08
5.53241e-10
-1.14828e-08
9.9268e-10
-1.15535e-08
1.25911e-09
-1.08876e-08
1.39296e-09
-9.79162e-09
1.50167e-09
-8.55572e-09
1.6695e-09
-7.43228e-09
1.88648e-09
-6.571e-09
2.06221e-09
-5.98673e-09
2.1015e-09
-5.58527e-09
1.98992e-09
-5.25124e-09
1.8134e-09
-4.92925e-09
1.70165e-09
-4.65267e-09
1.73815e-09
-4.4989e-09
1.90903e-09
-4.51671e-09
2.12631e-09
-4.68118e-09
2.301e-09
-4.90976e-09
2.40601e-09
-5.11992e-09
2.48303e-09
-5.28078e-09
2.59859e-09
-5.42182e-09
2.79049e-09
-5.59938e-09
3.04648e-09
-5.85282e-09
3.32275e-09
-6.18272e-09
3.57975e-09
-6.56089e-09
3.80476e-09
-6.95665e-09
4.00923e-09
-7.35678e-09
4.21004e-09
-7.76732e-09
4.41297e-09
-8.20176e-09
4.60932e-09
-8.66827e-09
4.78372e-09
-9.16498e-09
4.92395e-09
-9.68391e-09
5.02538e-09
-1.02176e-08
5.08914e-09
-1.07632e-08
5.11767e-09
-1.13213e-08
5.11181e-09
-1.18935e-08
5.07083e-09
-1.24791e-08
4.99449e-09
-1.30749e-08
4.885e-09
-1.36765e-08
4.74794e-09
-1.42797e-08
4.59154e-09
-1.48821e-08
4.42499e-09
-1.54826e-08
4.25629e-09
-1.608e-08
4.09073e-09
-1.66709e-08
3.93085e-09
-1.72492e-08
3.7783e-09
-1.78065e-08
3.63652e-09
-1.83351e-08
3.51273e-09
-1.88316e-08
3.41717e-09
-1.9299e-08
3.35942e-09
-1.97451e-08
3.34362e-09
-2.01785e-08
3.36568e-09
-2.06027e-08
3.41515e-09
-2.10142e-08
3.4814e-09
-2.14048e-08
3.56099e-09
-2.17685e-08
3.6611e-09
-2.21091e-08
3.79619e-09
-2.24425e-08
3.97842e-09
-2.27919e-08
4.20792e-09
-2.31763e-08
4.46923e-09
-2.36005e-08
4.73836e-09
-2.40528e-08
4.99685e-09
-2.4514e-08
5.24447e-09
-2.49725e-08
5.50032e-09
-2.54358e-08
5.79013e-09
-2.59294e-08
6.1265e-09
-2.64789e-08
6.49634e-09
-2.70866e-08
6.86458e-09
-2.77136e-08
7.19205e-09
-2.82765e-08
7.45253e-09
-2.8655e-08
7.63353e-09
-2.86967e-08
7.71644e-09
-2.82124e-08
7.64787e-09
-2.69643e-08
7.32293e-09
-2.46728e-08
6.5982e-09
-2.10762e-08
5.33963e-09
-1.60723e-08
3.47502e-09
-9.95519e-09
1.16401e-09
-3.74438e-09
4.16013e-10
-2.79363e-10
-3.79441e-09
-3.32366e-10
-8.81138e-09
-4.41941e-12
-1.16324e-08
5.12058e-10
-1.28188e-08
1.01821e-09
-1.29009e-08
1.37297e-09
-1.22659e-08
1.53482e-09
-1.11833e-08
1.57404e-09
-9.88607e-09
1.61043e-09
-8.60074e-09
1.72602e-09
-7.52526e-09
1.90409e-09
-6.76293e-09
2.05321e-09
-6.29494e-09
2.0862e-09
-6.00996e-09
1.99688e-09
-5.78892e-09
1.86914e-09
-5.57786e-09
1.81661e-09
-5.40661e-09
1.9023e-09
-5.34263e-09
2.10147e-09
-5.42486e-09
2.33206e-09
-5.62844e-09
2.52097e-09
-5.88315e-09
2.65257e-09
-6.12396e-09
2.7661e-09
-6.33099e-09
2.91475e-09
-6.53191e-09
3.12369e-09
-6.77189e-09
3.37824e-09
-7.0794e-09
3.64255e-09
-7.45208e-09
3.88754e-09
-7.86712e-09
4.10553e-09
-8.30181e-09
4.30538e-09
-8.74727e-09
4.49775e-09
-9.20823e-09
4.68412e-09
-9.69373e-09
4.85607e-09
-1.02083e-08
5.00176e-09
-1.07494e-08
5.11279e-09
-1.1311e-08
5.18661e-09
-1.18877e-08
5.22477e-09
-1.24775e-08
5.22965e-09
-1.30808e-08
5.20254e-09
-1.36978e-08
5.14376e-09
-1.43266e-08
5.05417e-09
-1.49629e-08
4.93673e-09
-1.56015e-08
4.79735e-09
-1.62376e-08
4.6445e-09
-1.68683e-08
4.48753e-09
-1.74925e-08
4.33429e-09
-1.81092e-08
4.1892e-09
-1.87159e-08
4.05308e-09
-1.93064e-08
3.92534e-09
-1.98724e-08
3.80743e-09
-2.04059e-08
3.70546e-09
-2.09039e-08
3.6296e-09
-2.13705e-08
3.58992e-09
-2.18161e-08
3.5907e-09
-2.22521e-08
3.62688e-09
-2.26844e-08
3.68599e-09
-2.311e-08
3.75504e-09
-2.352e-08
3.82926e-09
-2.39065e-08
3.91634e-09
-2.4272e-08
4.0329e-09
-2.4633e-08
4.19352e-09
-2.50143e-08
4.39934e-09
-2.5437e-08
4.63364e-09
-2.59072e-08
4.86994e-09
-2.64121e-08
5.08795e-09
-2.69305e-08
5.28795e-09
-2.74485e-08
5.49157e-09
-2.7972e-08
5.72725e-09
-2.85236e-08
6.00831e-09
-2.91213e-08
6.31971e-09
-2.9751e-08
6.62245e-09
-3.03432e-08
6.87213e-09
-3.07672e-08
7.03511e-09
-3.08363e-08
7.08702e-09
-3.03169e-08
6.99143e-09
-2.89355e-08
6.67345e-09
-2.63969e-08
6.01417e-09
-2.2444e-08
4.88378e-09
-1.69984e-08
3.19448e-09
-1.04048e-08
1.07888e-09
-3.78186e-09
5.52647e-10
-1.75604e-10
-4.34519e-09
-2.41292e-10
-9.90981e-09
-7.50528e-12
-1.29187e-08
4.10963e-10
-1.40959e-08
8.97045e-10
-1.41102e-08
1.31184e-09
-1.34364e-08
1.55471e-09
-1.23675e-08
1.61223e-09
-1.10852e-08
1.57276e-09
-9.75443e-09
1.55873e-09
-8.54567e-09
1.64285e-09
-7.60705e-09
1.79956e-09
-7.00028e-09
1.93834e-09
-6.67919e-09
1.98193e-09
-6.52385e-09
1.93109e-09
-6.41937e-09
1.86346e-09
-6.31792e-09
1.87346e-09
-6.24742e-09
2.00461e-09
-6.26609e-09
2.22587e-09
-6.4049e-09
2.46552e-09
-6.64171e-09
2.6672e-09
-6.92018e-09
2.82442e-09
-7.19188e-09
2.97161e-09
-7.44546e-09
3.14878e-09
-7.70495e-09
3.37089e-09
-8.00455e-09
3.62299e-09
-8.36356e-09
3.87703e-09
-8.77799e-09
4.11239e-09
-9.23012e-09
4.32447e-09
-9.70373e-09
4.51926e-09
-1.0193e-08
4.70254e-09
-1.07013e-08
4.87314e-09
-1.12341e-08
5.02355e-09
-1.17934e-08
5.14502e-09
-1.23764e-08
5.23207e-09
-1.29781e-08
5.28377e-09
-1.35948e-08
5.30214e-09
-1.42247e-08
5.28989e-09
-1.48676e-08
5.2489e-09
-1.55225e-08
5.1803e-09
-1.61865e-08
5.08547e-09
-1.68545e-08
4.96752e-09
-1.75201e-08
4.83229e-09
-1.8178e-08
4.68826e-09
-1.88249e-08
4.54481e-09
-1.94599e-08
4.40956e-09
-2.00832e-08
4.28596e-09
-2.0693e-08
4.17304e-09
-2.12844e-08
4.06792e-09
-2.18489e-08
3.97004e-09
-2.23788e-08
3.88443e-09
-2.28711e-08
3.82132e-09
-2.33313e-08
3.79152e-09
-2.3772e-08
3.79979e-09
-2.42073e-08
3.84054e-09
-2.46452e-08
3.89959e-09
-2.50837e-08
3.96184e-09
-2.55126e-08
4.02128e-09
-2.59221e-08
4.08606e-09
-2.63133e-08
4.17485e-09
-2.67022e-08
4.30439e-09
-2.71149e-08
4.47668e-09
-2.75746e-08
4.6739e-09
-2.80883e-08
4.86767e-09
-2.86433e-08
5.03669e-09
-2.92168e-08
5.18234e-09
-2.97926e-08
5.32868e-09
-3.03725e-08
5.50609e-09
-3.09703e-08
5.72774e-09
-3.15868e-08
5.97629e-09
-3.2176e-08
6.20885e-09
-3.26191e-08
6.37526e-09
-3.27158e-08
6.4322e-09
-3.21936e-08
6.3391e-09
-3.07306e-08
6.03733e-09
-2.7994e-08
5.43393e-09
-2.37159e-08
4.41673e-09
-1.7842e-08
2.89607e-09
-1.07815e-08
9.811e-10
-3.76715e-09
7.08589e-10
-6.51068e-11
-4.82349e-09
-9.84479e-11
-1.09236e-08
6.10203e-11
-1.41506e-08
3.48518e-10
-1.53362e-08
7.29282e-10
-1.52455e-08
1.12717e-09
-1.44604e-08
1.43286e-09
-1.33395e-08
1.57016e-09
-1.20739e-08
1.54805e-09
-1.07715e-08
1.46452e-09
-9.54071e-09
1.43516e-09
-8.50323e-09
1.51711e-09
-7.76061e-09
1.6757e-09
-7.33796e-09
1.824e-09
-7.17002e-09
1.89619e-09
-7.13809e-09
1.89804e-09
-7.13916e-09
1.89774e-09
-7.1353e-09
1.96949e-09
-7.15348e-09
2.14027e-09
-7.2434e-09
2.37757e-09
-7.42973e-09
2.62278e-09
-7.69469e-09
2.83534e-09
-7.99569e-09
3.01507e-09
-8.29869e-09
3.19009e-09
-8.59816e-09
3.38859e-09
-8.91338e-09
3.61797e-09
-9.26871e-09
3.86446e-09
-9.6761e-09
4.10704e-09
-1.01309e-08
4.3315e-09
-1.06199e-08
4.53491e-09
-1.11318e-08
4.7207e-09
-1.16629e-08
4.89122e-09
-1.2215e-08
5.04397e-09
-1.27911e-08
5.17276e-09
-1.33914e-08
5.27141e-09
-1.40129e-08
5.33668e-09
-1.46513e-08
5.36889e-09
-1.53033e-08
5.37068e-09
-1.59673e-08
5.34525e-09
-1.66423e-08
5.29509e-09
-1.73264e-08
5.22176e-09
-1.80161e-08
5.12667e-09
-1.87052e-08
5.01255e-09
-1.93867e-08
4.88482e-09
-2.00544e-08
4.75166e-09
-2.0705e-08
4.62239e-09
-2.13384e-08
4.50429e-09
-2.19561e-08
4.39984e-09
-2.25579e-08
4.30635e-09
-2.314e-08
4.21874e-09
-2.36948e-08
4.13452e-09
-2.42145e-08
4.05767e-09
-2.46966e-08
3.99859e-09
-2.51474e-08
3.96893e-09
-2.55812e-08
3.97425e-09
-2.60144e-08
4.00878e-09
-2.64571e-08
4.05708e-09
-2.69077e-08
4.10228e-09
-2.73554e-08
4.13733e-09
-2.77884e-08
4.17074e-09
-2.82059e-08
4.22281e-09
-2.86233e-08
4.31188e-09
-2.90673e-08
4.44041e-09
-2.95626e-08
4.58972e-09
-3.01176e-08
4.73042e-09
-3.07199e-08
4.84148e-09
-3.13456e-08
4.92616e-09
-3.19749e-08
5.01083e-09
-3.26006e-08
5.12692e-09
-3.32181e-08
5.28664e-09
-3.37949e-08
5.47014e-09
-3.42325e-08
5.63074e-09
-3.43385e-08
5.71151e-09
-3.38216e-08
5.65575e-09
-3.23163e-08
5.40128e-09
-2.94391e-08
4.86709e-09
-2.48889e-08
3.95792e-09
-1.86194e-08
2.59393e-09
-1.1104e-08
8.72132e-10
-3.70537e-09
8.89676e-10
-2.28095e-12
-5.20808e-09
3.11039e-11
-1.17873e-08
1.78568e-10
-1.52554e-08
3.6937e-10
-1.64973e-08
6.19433e-10
-1.63318e-08
9.22555e-10
-1.54077e-08
1.22427e-09
-1.417e-08
1.43357e-09
-1.28611e-08
1.4965e-09
-1.15897e-08
1.43916e-09
-1.04065e-08
1.3588e-09
-9.37313e-09
1.35508e-09
-8.56615e-09
1.46586e-09
-8.04463e-09
1.64911e-09
-7.80499e-09
1.82473e-09
-7.7736e-09
1.93932e-09
-7.84303e-09
2.00187e-09
-7.92828e-09
2.06919e-09
-8.00328e-09
2.19644e-09
-8.09412e-09
2.39821e-09
-8.24244e-09
2.6446e-09
-8.46791e-09
2.89096e-09
-8.75757e-09
3.11032e-09
-9.08116e-09
3.30607e-09
-9.41596e-09
3.4996e-09
-9.75987e-09
3.70927e-09
-1.01271e-08
3.93744e-09
-1.05335e-08
4.17242e-09
-1.09859e-08
4.39903e-09
-1.14794e-08
4.60769e-09
-1.20045e-08
4.79631e-09
-1.25534e-08
4.96638e-09
-1.31235e-08
5.11824e-09
-1.37156e-08
5.24906e-09
-1.43307e-08
5.35408e-09
-1.49677e-08
5.42922e-09
-1.56232e-08
5.47292e-09
-1.62932e-08
5.48648e-09
-1.69745e-08
5.47317e-09
-1.76649e-08
5.4367e-09
-1.8363e-08
5.38e-09
-1.90664e-08
5.30468e-09
-1.97707e-08
5.21169e-09
-2.04694e-08
5.10298e-09
-2.11549e-08
4.98318e-09
-2.18206e-08
4.85999e-09
-2.24633e-08
4.74242e-09
-2.30839e-08
4.63739e-09
-2.36854e-08
4.54651e-09
-2.42697e-08
4.46556e-09
-2.48346e-08
4.38754e-09
-2.53736e-08
4.30825e-09
-2.58793e-08
4.23074e-09
-2.63493e-08
4.16556e-09
-2.67902e-08
4.12525e-09
-2.72174e-08
4.11628e-09
-2.76488e-08
4.13301e-09
-2.8096e-08
4.15922e-09
-2.85584e-08
4.1768e-09
-2.90242e-08
4.17793e-09
-2.94805e-08
4.17133e-09
-2.99246e-08
4.17819e-09
-3.0371e-08
4.21743e-09
-3.08465e-08
4.29133e-09
-3.13765e-08
4.38062e-09
-3.19705e-08
4.45621e-09
-3.26167e-08
4.49897e-09
-3.32892e-08
4.5151e-09
-3.3961e-08
4.53323e-09
-3.46074e-08
4.58516e-09
-3.51901e-08
4.68182e-09
-3.56213e-08
4.80128e-09
-3.57239e-08
4.89304e-09
-3.52074e-08
4.89082e-09
-3.36807e-08
4.71865e-09
-3.07116e-08
4.28908e-09
-2.59508e-08
3.5084e-09
-1.93353e-08
2.30295e-09
-1.13878e-08
7.6507e-10
-3.60746e-09
1.09527e-09
-6.36463e-12
-5.51437e-09
9.84023e-11
-1.24874e-08
2.85486e-10
-1.61742e-08
4.56185e-10
-1.75109e-08
6.12991e-10
-1.73292e-08
8.00647e-10
-1.63057e-08
1.03044e-09
-1.49323e-08
1.25789e-09
-1.35241e-08
1.40933e-09
-1.22307e-08
1.45005e-09
-1.10977e-08
1.41435e-09
-1.01311e-08
1.38807e-09
-9.35066e-09
1.44841e-09
-8.79306e-09
1.61358e-09
-8.4828e-09
1.83792e-09
-8.39887e-09
2.05172e-09
-8.47075e-09
2.21455e-09
-8.61031e-09
2.33719e-09
-8.75381e-09
2.46473e-09
-8.88685e-09
2.63603e-09
-9.03389e-09
2.85756e-09
-9.22875e-09
3.10476e-09
-9.4869e-09
3.34619e-09
-9.79974e-09
3.56551e-09
-1.01469e-08
3.76751e-09
-1.0514e-08
3.96724e-09
-1.09002e-08
4.1756e-09
-1.1315e-08
4.392e-09
-1.17678e-08
4.60715e-09
-1.22614e-08
4.81051e-09
-1.27916e-08
4.99577e-09
-1.33512e-08
5.16132e-09
-1.3935e-08
5.30754e-09
-1.45409e-08
5.43382e-09
-1.51687e-08
5.53768e-09
-1.58178e-08
5.61578e-09
-1.64861e-08
5.66563e-09
-1.717e-08
5.68684e-09
-1.78651e-08
5.68144e-09
-1.8568e-08
5.65318e-09
-1.92759e-08
5.60615e-09
-1.99869e-08
5.54338e-09
-2.06983e-08
5.46618e-09
-2.14057e-08
5.3747e-09
-2.21022e-08
5.26982e-09
-2.27802e-08
5.15515e-09
-2.34329e-08
5.03766e-09
-2.40576e-08
4.92591e-09
-2.46562e-08
4.8264e-09
-2.52334e-08
4.74004e-09