/*--------------------------------*- C++ -*----------------------------------*\
| =========                 |                                                 |
| \\      /  F ield         | OpenFOAM: The Open Source CFD Toolbox           |
|  \\    /   O peration     | Version:  2412                                  |
|   \\  /    A nd           | Website:  www.openfoam.com                      |
|    \\/     M anipulation  |                                                 |
\*---------------------------------------------------------------------------*/
FoamFile
{
    version     2.0;
    format      ascii;
    arch        "LSB;label=32;scalar=64";
    class       volScalarField;
    location    "96";
    object      p_rgh;
}
// * * * * * * * * * * * * * * * * * * * * * * * * * * * * * * * * * * * * * //

dimensions      [1 -1 -2 0 0 0 0];

internalField   nonuniform List<scalar> 
6400
(
21332.9
21323.1
21356.9
21453.2
21595.3
21762.2
21951.1
22149.9
22347.3
22541.4
22726.7
22896.6
23043.1
23167.5
23271.3
23361.5
23436.2
23503.2
23556.8
23584.5
23588.2
23584.3
23585.4
23594.2
23586.4
23534.7
23463.2
23406.5
23350.7
23280.9
23192
23106.1
23027.1
22956.1
22883.6
22783.3
22679.4
22602.1
22509
22445.5
22418.3
22418.7
22406.6
22393.3
22406.8
22442.6
22479
22526.9
22592.1
22674.1
22761.3
22860.9
22965.4
23080.4
23195.6
23323.5
23456.4
23601.8
23742.8
23891.1
24035.3
24184.8
24324.9
24465.1
24590.9
24707.4
24794.8
24868.9
24919.6
24958.2
24972.1
24974.8
24959.6
24938.6
24907.3
24875.8
24840.7
24807
24774.4
24755.2
21345.6
21334.3
21356.2
21422.9
21544
21694.7
21861.1
22033.3
22207.1
22380.9
22550.3
22701.9
22831.5
22940.6
23034.5
23119.5
23196.2
23265.8
23318.2
23336.3
23346.3
23357.4
23382.1
23406.7
23394.7
23344.6
23303.6
23270.2
23244.8
23203.1
23140.9
23074.5
23004.9
22952.8
22908.8
22828
22767.1
22691.3
22621.6
22603.3
22603.2
22612.7
22608.3
22634.4
22663.3
22699.3
22737
22796.8
22873.3
22947.7
23030.6
23118.1
23217.8
23314.1
23410.5
23514.7
23635.4
23759.5
23883.2
24002.3
24131.8
24250.6
24377.5
24497.8
24621.5
24721.2
24795.1
24853
24901.5
24934.9
24950
24944.4
24933.2
24907.6
24881.9
24851.2
24823
24794.9
24771.9
24758.7
21271.5
21263.1
21287.7
21350.4
21451.6
21580
21725.6
21880.8
22034.7
22189.3
22343.5
22481.8
22596.8
22685.7
22780.8
22870.5
22949.4
23012.4
23060.6
23079.3
23099.8
23135.4
23190
23203.9
23192.5
23166.4
23159.8
23170.7
23166.9
23128.5
23089.1
23046.5
23001.3
22958.9
22932.2
22864.5
22825.1
22781.2
22762.9
22789.5
22800.3
22808.9
22823.6
22853.6
22919.5
22965.6
23009.9
23087.1
23171.1
23239.5
23311.6
23405.4
23493.5
23569
23644.2
23754.9
23846.4
23941.4
24035.8
24134
24228.4
24341.6
24457.1
24584.5
24677.6
24761.5
24824.4
24868.2
24914.6
24943.1
24946.6
24941.8
24922.1
24900.7
24873.6
24847
24818
24793.6
24774.2
24770.5
21143.7
21134.4
21159.7
21220.3
21317.7
21438.2
21574.5
21709.5
21842.2
22005
22149.3
22271.4
22350.5
22455.7
22573.9
22656.2
22728.5
22789.2
22830.5
22859.7
22914.1
22989.4
23023.6
23039.5
23057
23056.6
23055.6
23100.3
23110.1
23097
23063.2
23037.3
23008.5
22998.1
22973.4
22915.4
22908.3
22909.1
22925.9
22981
22973.9
22967.4
23025.1
23022.1
23081.4
23122.4
23193.6
23305.1
23343
23439.7
23566.1
23641.9
23705
23717.7
23863.2
23960.6
24027.7
24053.5
24138.2
24218.7
24363.3
24491
24602.8
24682.5
24748.7
24809.9
24902.7
24935.8
24951
24975.6
24985.5
24973.8
24956.1
24928.6
24902.3
24873.5
24846.6
24817.7
24809.3
24809.4
20967.6
20960.1
20986
21054.7
21147.9
21265.4
21397.3
21526.2
21651.9
21815
21953.2
22026.7
22141.8
22280.7
22374.2
22452.3
22508.6
22553.4
22628.7
22717.4
22781.3
22839.4
22875.7
22912.2
22948
22991.4
23046.5
23062.2
23084.8
23084.6
23076.7
23041.9
23050.8
23047.1
23063.8
23077.7
23101.7
23117.4
23126.3
23025.2
23000.4
23050.6
23188.7
23246.6
23227
23296.6
23365.1
23438.7
23513.4
23593.7
23690
23734.3
23801.4
23877.6
23949.6
24064.8
24132.2
24209.1
24278.2
24391.4
24548.9
24600.9
24669.6
24787.9
24880.7
24888.6
24978
25016.8
25030
25041.5
25047.3
25041.8
25020.6
24994.5
24963.9
24937.3
24907.2
24890.1
24888.2
24889.3
20753.8
20752.7
20780.8
20859.2
20953.7
21067.7
21195.9
21326.1
21458.7
21594.5
21681.4
21795.3
21968.8
22086
22176.6
22227.6
22272.1
22369.1
22489.3
22564.5
22635.2
22699.6
22720.4
22778.6
22859.9
22932.5
22994.5
23060.1
23116.1
23045
23091.9
23127.4
23166.2
23190.6
23199.2
23191.5
23209.5
23082.8
23046.3
23072.9
23121.2
23161.9
23353.6
23287.5
23333.6
23413.5
23492.1
23564.9
23644.3
23718.9
23793.1
23863.6
23937.4
24033.8
24159
24201.4
24272.3
24335.4
24405
24509.6
24695
24780.4
24780.7
24859.5
25002.9
25045.4
25062.2
25089.7
25140.1
25146.6
25147.8
25135.7
25117.6
25089.6
25062.6
25035.1
25011.1
25006.1
25007
25013.7
20516.3
20525.1
20565
20637.8
20737.8
20851.6
20979.1
21117.8
21234.5
21333
21464.5
21591.8
21785.4
21889.2
21964.5
21932.1
22083.9
22236
22323.6
22408.9
22451
22518.6
22602.9
22691.9
22798.5
22881
22950.7
23035.1
23102
23014.8
23101.7
23180
23229.9
23266.7
23235
23246.5
23065.8
23095.1
23138.3
23184
23233.8
23281.9
23309.3
23355.6
23431.1
23511.8
23594.6
23659.2
23730.4
23811.9
23879.3
23961.4
24031.8
24271.5
24336.5
24302
24371.3
24438
24614.7
24617.3
24695.8
24904
24993
24989.7
25087.2
25175.3
25189.5
25218.6
25252.7
25272.7
25273
25263
25240.2
25215
25184.9
25158.5
25149.9
25148.7
25157.3
25165.5
20261.2
20271.9
20327.2
20400.7
20505.9
20619.2
20749.8
20888.6
20960.4
21032.6
21332.2
21480
21586.7
21615.6
21636.9
21738.2
21967.6
22058.9
22145.7
22208.1
22288.1
22390.3
22523.5
22642.2
22702.7
22773.7
22908.6
23008.5
23092.8
23007.3
23032.7
23221.5
23279.9
23269.6
23118.5
23257.8
23099.4
23172.8
23238.8
23282.1
23322.5
23362.3
23405.6
23457
23528.5
23607.6
23676.7
23742.5
23801.9
23882.5
23951.8
24023.2
24103.3
24272.8
24418.3
24432.1
24450.8
24518.8
24728.3
24913.6
24831
24908.9
25134
25204.3
25229.4
25286.8
25341
25368.5
25394.7
25406.6
25409.8
25396.7
25372.2
25343.5
25319.3
25303.9
25300.1
25305.1
25321.6
25335.8
19997.3
20014.6
20062.7
20146.9
20265.6
20358.6
20422.7
20507.4
20628.7
20815.1
21125
21197.6
21229.8
21334.5
21456
21617.6
21815.9
21899
21982.3
22092.7
22210
22317.3
22438.7
22555.8
22558.7
22510
22703
23007
23006.7
22949.1
23045.3
23257.9
23176.1
23109.3
23155.4
23177.5
23280.7
23390.7
23309.9
23350.3
23375.3
23419.7
23474.9
23539.6
23612.7
23679.1
23741.7
23809.4
23875
23947.4
24017.6
24089.7
24159.7
24227.7
24502.2
24615.2
24623.3
24606.4
24662
25050.3
25132.2
25076
25217.9
25357.3
25409.2
25444.9
25487.8
25524.6
25542.9
25548.8
25535
25519.1
25498.6
25478.2
25462.1
25450.2
25453.3
25466.7
25495.9
25514.8
19714.2
19744.6
19789
19886.6
19962.9
19983.9
20151.5
20308.7
20454.9
20592.5
20717
20824.2
20925.8
21204.1
21398
21513.3
21611.5
21451
21612.1
21961.1
22116.8
22216.6
22347.4
22309.1
22303.8
22453.6
22607.1
22948.7
22852.7
22943.2
23063.5
23133.8
23240
23396.7
23199.8
23248.1
23366.7
23758.3
23553.3
23386.6
23413
23463.6
23535.8
23599.2
23663.8
23736.1
23800.6
23849.3
23930
24010.7
24083.4
24142.9
24225.8
24304.1
24373.1
24722
24829.3
24890.2
24765.8
25047.8
25300.6
25365
25376.6
25492.9
25568.7
25608
25645.8
25669.8
25674.6
25672
25666.3
25649.6
25630.1
25614.3
25603
25598.4
25609.1
25637.1
25671.2
25705.3
19426.7
19457.6
19530.4
19625.6
19587.5
19787.7
19968.1
20133.2
20285.3
20427.9
20559.1
20674.3
20781.1
20889.7
21225.2
21294
21213.9
21333.4
21464.2
21590.5
21906.6
21841.8
21961.7
22087.9
22233.6
22631.1
22845.3
22776.3
22858.2
23220.7
23354.6
23163
23230.7
23467.2
23579.8
23564.6
23815.5
23859.1
23567.8
23427.9
23470.7
23778.6
23618.4
23683.9
23733.4
23790.7
23845.9
23912.7
23985.6
24068.4
24139.1
24215.8
24297
24388.8
24469
24539.1
24947.3
25061.7
25049.7
25126.9
25319.3
25541.1
25602.7
25667.6
25735.5
25780.6
25797
25800.1
25806.5
25811.5
25806.7
25790.7
25770.1
25754.5
25747.9
25748.9
25772.1
25803.9
25855.4
25896.8
19135.4
19184.3
19290.3
19206.1
19389
19606.5
19798.8
19971.2
20127.5
20269.5
20400
20520
20635.6
20751.4
20859
20961.6
21071
21190.8
21324.9
21458.7
21579.7
21719.7
21854.4
22102.6
22601.5
22881.4
23025.1
23046.2
22958.7
23186.9
23498.1
23602.9
23646.7
23558.5
23651
23914.8
23980.7
23921.9
23661
23597.8
23845.3
24255.6
24264.2
23794
23843.8
23890.7
23940.9
24001.5
24081.8
24159
24236.8
24312.7
24509.7
24498.1
24589.1
24663.7
24732.7
25172.5
25494.9
25435
25523.4
25697.4
25801.5
25867.1
25923
25935.5
25948.2
25957.5
25965.7
25966.2
25957.8
25935.3
25909.7
25890.8
25883.9
25891.8
25918.7
25959.4
26027.2
26088.2
18811.4
18922.4
19027.2
18938.3
19192.1
19427.2
19628.7
19803.6
19958.3
20095.7
20219.4
20335.6
20450.1
20562.6
20667.8
20812
21073.2
21372.1
21635.9
21739.8
21854.7
22155.5
22433.7
22595.3
22725.4
22790.8
22947.1
23157.6
23323.2
23454.9
23499.8
23598.6
23711.9
23797.6
23870.6
23997.8
24018.2
23986.8
24091.4
24255.2
24375.6
24442.9
24455.4
24457.3
24344
24089.8
24128.8
24381.1
24421.5
24318.2
24413.4
24786.7
25108.4
25141.7
25060.5
25159
25283.7
25438.8
25703
25806.8
25869.6
25951.9
26030.1
26071.9
26096.7
26125.8
26143.5
26148.4
26141
26127.8
26104.9
26067
26030.9
26003.6
25999.3
26008.9
26043.4
26095.8
26188.6
26262.9
18460.4
18672
18847.6
19235.7
19350
19469.8
19661.2
19851.6
20048.4
20240.2
20426
20637.1
20860.7
20989.2
21121.9
21346.6
21473
21605
21736.5
21873.4
22020.3
22170.4
22324
22487.9
22659.7
22829.6
22994.6
23152.8
23311.1
23464.6
23608.2
23738.9
23853.7
23959.1
24070.9
24168.7
24261.5
24355.9
24471.6
24578.4
24662.5
24694
24756.6
24854.6
24933.1
24947.5
25012.7
25124.5
25196.6
25207.6
25314.8
25441.6
25525.9
25626.2
25752.6
25869.4
25948.4
25963.2
26036.6
26127.2
26175
26203.3
26235.3
26280.4
26324
26351.6
26360.2
26346.7
26318.8
26284.4
26240.8
26185.9
26136.7
26104.1
26095.8
26107
26143.3
26218.3
26330
26426.6
18102.9
18475.8
18959
19351.7
19662.4
19908.9
20103.9
20268.1
20415.6
20550
20674.9
20794.3
20910.5
21027.2
21146.9
21269.1
21396.1
21529.1
21667.5
21812.3
21966.3
22130.2
22299.5
22474.4
22653.1
22833.6
23012.3
23188
23357.3
23520.4
23670.9
23810.5
23936.3
24056.8
24172.2
24284.5
24393.8
24506.2
24614.1
24720.4
24816
24906.6
24993.2
25089.5
25185.2
25289.8
25384.4
25471.5
25555.1
25652.9
25742.7
25823.6
25891.8
25975.1
26053
26128.3
26189.3
26245.2
26288.3
26350.7
26404.2
26453.6
26501.6
26549.8
26582.6
26597.7
26589.7
26557.4
26505.2
26443.5
26372.9
26294.2
26234.1
26190.9
26178.8
26180.4
26228.8
26309.9
26453
26581.4
17760.3
18341.8
18937.2
19370.5
19690.5
19930.2
20110.5
20258.7
20389.1
20510
20626.2
20742
20858.6
20976.8
21098.9
21225.9
21357.4
21495.2
21640.4
21793.5
21956.5
22129
22310.5
22499.3
22695.1
22894.3
23095.1
23293.1
23487
23671.2
23844.2
24001.9
24146
24276.1
24399.4
24513.2
24620.9
24721.4
24821.4
24915.6
25010.1
25098.1
25188
25276.7
25372.6
25467.5
25563.3
25649.2
25739.7
25829.3
25921.8
26004.3
26089.4
26173.3
26261.7
26340.9
26420.3
26494.2
26569.9
26644.5
26713.5
26772.6
26826.8
26863.7
26879.9
26872.5
26842.7
26785
26703.9
26613.8
26511.2
26408.9
26326.7
26267
26234.3
26227.1
26275.5
26372.3
26539.3
26727.3
17438.3
18313.9
19050.7
19488.8
19777.5
19960.1
20085.2
20185.3
20277.6
20369.6
20465.8
20567.4
20674.9
20787.2
20905.5
21030.2
21162.6
21304.1
21456.6
21621.1
21798.8
21990.3
22195.5
22415.5
22648.5
22889.2
23132.5
23376.4
23616.5
23849.7
24067.8
24266.9
24440.3
24590.4
24721.6
24843.2
24952.3
25055.1
25148.7
25239.7
25324.3
25408.1
25486.5
25569.7
25653.1
25743.9
25831.7
25921.9
26008
26098.6
26183.8
26273.1
26361
26457.8
26552.4
26649.9
26742.3
26837.7
26926.9
27011.2
27079.9
27140.7
27189
27220.7
27224.1
27197.5
27140.8
27049.5
26932.5
26799.9
26654.7
26509.6
26395.7
26299.4
26247.9
26230.1
26278.9
26395
26617.5
26852.5
17065.2
18296.9
19159.6
19546.8
19702.9
19780
19924.1
20039
20140.2
20237.6
20334.4
20433.1
20533.5
20636.4
20741.7
20851.1
20965.4
21086.9
21216.9
21356.9
21507.7
21670.4
21844.8
22030.6
22300.1
22612.8
22921.6
23221.1
23516.3
23815.8
24123.6
24428.5
24701.2
24916.4
25087.5
25229.4
25353.8
25461.6
25560.3
25648.9
25735.4
25814.3
25891.8
25964.7
26043.9
26123.1
26209.6
26293.2
26382.1
26468
26559.1
26648.8
26748.1
26849
26955.4
27055.7
27157.3
27254.2
27349.6
27429.9
27494.8
27546.4
27591.7
27621.5
27606.2
27530.6
27425.7
27291.5
27114
26891.6
26630.9
26386.7
26222.4
26087.9
26021.4
26053.5
26137.8
26298.7
26619.2
27013
16872.7
18975.7
19945.9
19994.2
19622.5
19055.7
18362.2
17768.9
17318.7
17010.4
16825.3
16741.3
16739.4
16800.4
16909.3
17066.9
17272.7
17539.1
17875.6
18284.4
18770.4
19337.1
19979.9
20681
21331.9
21944.1
22514.3
22975.8
23264
23467.6
23672.5
24110.3
24607
24973.3
25238.1
25446.2
25617.9
25769.6
25900.8
26019.4
26123.9
26220.9
26305.3
26387.3
26466.2
26551.1
26635.8
26724.8
26808.6
26895.6
26979.3
27070.8
27163.9
27264.7
27358.9
27449
27532.5
27616.9
27689.7
27751.1
27796.1
27836.2
27868.5
27861.7
27677.3
27383.8
27187.3
26951.1
26652.3
26050.5
25344.3
24758.4
24385
24305
24503.8
24891.1
25353.1
25650.6
26092.1
26881.7
15731.9
13316.7
10188
7406.87
5282.45
3819.3
2857.65
2237.36
1843.5
1600.13
1457.43
1384.88
1365.66
1381.39
1428.2
1504.45
1611.65
1761.97
1967.8
2241.52
2603.08
3082.09
3716
4552.25
5655.22
7113.81
9045.1
11565.8
14666
17628.3
20225.5
22225.6
23971.2
24541.4
24848.5
25152.9
25430.8
25676.7
25891.9
26082.4
26255.4
26405.5
26539.8
26655.7
26765.8
26865.9
26965.4
27056.2
27144.8
27224.9
27306.8
27386
27469.7
27546.8
27618.2
27675.6
27734.1
27790.2
27833.3
27844.9
27804.4
27709.1
27552.6
27260.6
26413.6
24102.7
20809.2
16748.7
12890.8
10128.2
8277.58
7125.33
6621.49
6685.94
7356.44
8740.81
10889.1
13829.7
17246.7
21073.2
-0.0125063
-0.0118144
-0.0104672
-0.0119914
-0.0131788
-0.0133628
-0.0130571
-0.0124785
-0.0121075
-0.0119668
-0.0112675
-0.0125008
-0.0128741
-0.0111531
-0.0117777
-0.0131017
-0.0137468
-0.0141177
-0.0149127
-0.0147524
-0.0150092
-0.0148413
-0.0148119
-0.0154452
-0.0160549
-0.0167082
-0.0179345
-0.0189045
-0.0213491
555.086
1858.5
3731.85
6442.72
10757.7
15978.7
20354.9
23418.6
25569.1
25683.5
25907.1
26122
26323.2
26507.5
26669.8
26814.5
26950.9
27072.1
27183.4
27277.3
27363.6
27437.6
27510.7
27571.7
27627.1
27666.6
27685.9
27680.4
27648.3
27555.3
27330.6
25419.7
22044.7
17173.4
11237.9
6084.11
2937.21
1063.89
367.175
77.2135
0.020782
0.00919921
0.00241174
-0.00162891
-0.00387663
-0.00493119
-0.00527799
9.53447
72.1455
148.639
207.558
-0.0124387
-0.0123755
-0.00628614
0.00470986
0.0142105
0.0200558
0.0232527
0.0233831
0.0178962
0.00339346
-0.0104026
-0.00828103
0.00281969
0.0100125
5.36038e-05
-0.0128608
-0.0137761
-0.0140359
-0.0148361
-0.0146582
-0.0149689
-0.0150582
-0.0144751
-0.0149183
-0.0157013
-0.0162005
-0.0165715
-0.0170817
-0.0196204
-0.0302033
-0.0260841
-0.0209603
-0.0159381
53.3322
548.747
1994.43
4561.99
8245.52
13548.3
18422.3
22067.1
24516.2
26176.1
26643.8
26768.8
26901.3
27030.9
27143.6
27240.8
27321.6
27392.5
27445.5
27483.7
27499.1
27397.3
26164.1
24028.5
20708
15974.3
10245.5
5817.57
2612.36
652.689
7.84504
0.0199123
-0.00446389
-0.0175441
-0.0225358
-0.0244263
-0.0248618
-0.024915
-0.0249324
-0.0248465
-0.0247437
-0.0246809
-0.0246632
-0.0246199
-0.0244708
-0.0243673
-0.022853
-0.0122713
-0.00723647
0.0241182
0.0319451
0.0318338
0.0320675
0.0323171
0.0325224
0.0325078
0.00912945
-0.0119654
-0.00680341
0.016743
0.0170441
0.0135962
-0.0116894
-0.0133609
-0.012652
-0.0133377
-0.0134333
-0.0136458
-0.0135338
-0.0135072
-0.0139152
-0.0147537
-0.0150509
-0.0137132
-0.0103226
-0.00854181
-0.00370665
0.116021
0.122215
0.0358349
-0.0168076
-0.0175772
-0.0167528
-0.0122003
0.000364165
163.987
1048.17
2858.47
5413.19
8387.67
11942.8
15194.2
17654.7
19342.5
20398.6
20691.9
20617.4
20063.5
18804
16764.3
13864.3
10198.2
6978.26
4058.24
1736.47
356.239
0.113934
0.0393559
0.00225685
-0.0177036
-0.0243208
-0.0248077
-0.0250127
-0.0251654
-0.0252018
-0.0251279
-0.0250636
-0.0250517
-0.0250348
-0.0249406
-0.0248189
-0.0247347
-0.0247063
-0.0246761
-0.0245864
-0.0243831
-0.0240013
-0.0123332
-0.0130977
-0.0123362
-0.0122698
-0.0123292
-0.0123015
-0.0122096
-0.0121244
-0.0121067
-0.012086
-0.0119753
-0.0117546
-0.0066946
0.00744127
-0.0069475
-0.013425
-0.0139001
-0.013453
-0.0138241
-0.0139971
-0.0140635
-0.0141348
-0.01384
-0.0146165
-0.015521
-0.0157659
-0.0160762
-0.0156578
-0.0143498
-0.0151864
-0.0166722
-0.0135605
-0.0129653
-0.017054
-0.0177789
-0.017815
-0.0178768
-0.0178727
-0.0171675
-0.0128771
0.000415028
0.0261864
0.0651718
12.5416
224.279
630.789
1108.32
1516.78
1648.23
1599.18
1349.59
904.217
422.927
82.5282
0.159588
0.092834
0.0405984
0.00303816
-0.0178574
-0.0234217
-0.0241037
-0.0245286
-0.0248368
-0.0249617
-0.025028
-0.0251084
-0.0251891
-0.0252279
-0.0251539
-0.0250558
-0.025014
-0.02501
-0.0249498
-0.024827
-0.0247135
-0.024674
-0.0247111
-0.0247739
-0.0247008
-0.0242771
-0.0119939
-0.0126736
-0.0123449
-0.0122686
-0.0123121
-0.0122842
-0.0121938
-0.0121093
-0.012094
-0.0121577
-0.0122143
-0.0120416
-0.0120907
-0.0124167
-0.0127679
-0.0129738
-0.0135444
-0.0134961
-0.0137275
-0.0140111
-0.0141598
-0.014431
-0.0148127
-0.0152374
-0.0154969
-0.0157506
-0.0163567
-0.0170811
-0.0166286
-0.0164325
-0.0167294
-0.0170373
-0.0175349
-0.017769
-0.0178552
-0.0178595
-0.0178811
-0.0178686
-0.0178796
-0.0179398
-0.0179333
-0.0178475
-0.0177359
-0.0174704
-0.0147492
-0.00864459
-0.000353011
0.00763639
0.0110777
0.0108113
0.00624367
-0.00241837
-0.0119663
-0.0189993
-0.0212134
-0.0219315
-0.0226579
-0.0232948
-0.0238583
-0.0241899
-0.0244359
-0.0246529
-0.0248362
-0.0249725
-0.0250395
-0.0250726
-0.02511
-0.0251614
-0.0251602
-0.0250924
-0.0250139
-0.0249732
-0.0249379
-0.0248573
-0.0247393
-0.024613
-0.0245453
-0.0245927
-0.0246447
-0.0245735
-0.0120353
-0.0125957
-0.0124775
-0.0122928
-0.0122396
-0.0122229
-0.0121631
-0.0120545
-0.0119516
-0.0119565
-0.0121089
-0.0121231
-0.0122105
-0.0123897
-0.0125776
-0.0126411
-0.0131569
-0.0133912
-0.0135962
-0.0139014
-0.0141466
-0.0144387
-0.014801
-0.0152063
-0.0154864
-0.0155824
-0.0158734
-0.0167115
-0.0169565
-0.0169723
-0.0170568
-0.0172451
-0.0174735
-0.0176465
-0.017804
-0.0178732
-0.0178972
-0.017904
-0.0179197
-0.0179452
-0.0179608
-0.0179971
-0.018075
-0.0181967
-0.018339
-0.0185465
-0.0187503
-0.0189973
-0.0193407
-0.0197403
-0.0201816
-0.0206923
-0.021246
-0.0217874
-0.0222158
-0.0226038
-0.0230056
-0.023411
-0.0238008
-0.0241222
-0.02436
-0.0245496
-0.0247319
-0.0249122
-0.0250366
-0.025087
-0.0250871
-0.0250896
-0.0250951
-0.0250738
-0.025011
-0.024939
-0.0248834
-0.0248402
-0.024793
-0.0247061
-0.0245901
-0.0245404
-0.0245695
-0.0245633
-0.0120923
-0.0124592
-0.0125094
-0.0123829
-0.0122686
-0.012205
-0.0121713
-0.0121272
-0.0120361
-0.0119464
-0.012011
-0.0120805
-0.012204
-0.0124326
-0.0126839
-0.0126719
-0.0129366
-0.0132289
-0.0134914
-0.0138062
-0.0141011
-0.0143893
-0.0147039
-0.0151221
-0.0155377
-0.0157668
-0.0158939
-0.0163216
-0.016705
-0.016955
-0.0171491
-0.0173225
-0.01749
-0.0176121
-0.0177313
-0.0178157
-0.0178665
-0.0178885
-0.0178954
-0.0179114
-0.0179585
-0.018019
-0.0180968
-0.0182154
-0.0183628
-0.0185613
-0.0188167
-0.0191219
-0.0194857
-0.0198833
-0.0203175
-0.0207694
-0.0212222
-0.0216672
-0.0220904
-0.0225056
-0.022919
-0.0233284
-0.0237195
-0.0240632
-0.0243324
-0.024526
-0.0246716
-0.0248123
-0.0249436
-0.0250357
-0.0250629
-0.0250479
-0.0250272
-0.0250124
-0.0249766
-0.0249078
-0.0248222
-0.0247477
-0.0247083
-0.0246792
-0.0246094
-0.0245319
-0.024514
-0.0245104
-0.0122473
-0.0123199
-0.0124132
-0.012369
-0.0122677
-0.0121626
-0.0120929
-0.0120666
-0.0120394
-0.011968
-0.0119675
-0.0119914
-0.0120446
-0.0122202
-0.0125382
-0.0126703
-0.0128575
-0.013115
-0.0133975
-0.0137099
-0.014037
-0.0143533
-0.0146336
-0.0149614
-0.0153795
-0.0157762
-0.0160344
-0.0163015
-0.016587
-0.0168527
-0.017094
-0.0173062
-0.0174873
-0.0176045
-0.017691
-0.0177572
-0.0178068
-0.0178398
-0.0178572
-0.0178821
-0.0179149
-0.0179811
-0.0180699
-0.0181947
-0.0183474
-0.0185512
-0.0188165
-0.019114
-0.0194605
-0.0198342
-0.02024
-0.0206696
-0.0211109
-0.0215639
-0.022018
-0.0224598
-0.0228749
-0.0232525
-0.0236019
-0.0239333
-0.024233
-0.0244736
-0.0246383
-0.0247552
-0.0248553
-0.0249458
-0.0250007
-0.0250038
-0.0249719
-0.02494
-0.0249118
-0.0248675
-0.0247948
-0.0247024
-0.0246276
-0.0245915
-0.0245562
-0.0244968
-0.0244582
-0.0244473
-0.0124089
-0.0123242
-0.0123464
-0.0123233
-0.0122575
-0.0121582
-0.0120556
-0.0119908
-0.0119715
-0.0119445
-0.0119629
-0.0120083
-0.0120362
-0.0121068
-0.0123514
-0.0125643
-0.0127694
-0.0130039
-0.0132751
-0.0135715
-0.0139038
-0.0142634
-0.0145945
-0.0148929
-0.0152273
-0.0156091
-0.0159713
-0.0162823
-0.0165493
-0.0167955
-0.0170274
-0.0172359
-0.0174253
-0.0175621
-0.0176503
-0.0177053
-0.017742
-0.017773
-0.0178003
-0.0178232
-0.0178545
-0.0179239
-0.0180268
-0.0181666
-0.0183191
-0.0185117
-0.0187726
-0.0190613
-0.0194103
-0.019785
-0.0201821
-0.020588
-0.0210129
-0.0214673
-0.0219315
-0.0223802
-0.0227996
-0.0231807
-0.0235214
-0.0238308
-0.0241144
-0.0243655
-0.0245608
-0.0246959
-0.0247858
-0.0248558
-0.0249098
-0.0249318
-0.0249105
-0.0248653
-0.0248195
-0.0247773
-0.024727
-0.0246526
-0.0245649
-0.0245015
-0.0244652
-0.0244232
-0.0243844
-0.0243663
-0.0124375
-0.0123476
-0.0123102
-0.012262
-0.0122042
-0.01213
-0.0120342
-0.0119406
-0.011884
-0.0118418
-0.0118465
-0.0119125
-0.0119806
-0.0120277
-0.0121856
-0.0123952
-0.0126227
-0.0128688
-0.0131432
-0.0134303
-0.0137394
-0.0140932
-0.0144745
-0.0148285
-0.0151521
-0.0154762
-0.0158261
-0.0161743
-0.0164795
-0.0167448
-0.0169785
-0.0171735
-0.0173441
-0.0174817
-0.0175792
-0.0176376
-0.0176675
-0.0176895
-0.0177197
-0.0177552
-0.0177941
-0.0178548
-0.017959
-0.018116
-0.0182933
-0.018484
-0.0187372
-0.0190069
-0.0193423
-0.019711
-0.020122
-0.0205441
-0.0209734
-0.0214159
-0.0218547
-0.022279
-0.0226846
-0.0230724
-0.0234309
-0.0237474
-0.0240182
-0.0242538
-0.024452
-0.0246067
-0.0247105
-0.0247734
-0.0248135
-0.024837
-0.0248305
-0.0247906
-0.0247314
-0.0246708
-0.024618
-0.0245608
-0.0244849
-0.0244102
-0.0243585
-0.0243187
-0.0242835
-0.024263
-0.0123799
-0.0123365
-0.0122865
-0.0122168
-0.0121413
-0.0120687
-0.0119892
-0.0119028
-0.0118344
-0.0117738
-0.0117364
-0.0117666
-0.0118492
-0.0119228
-0.0120463
-0.0122279
-0.0124496
-0.0127035
-0.0129932
-0.0132992
-0.0136043
-0.013922
-0.0142839
-0.0146748
-0.0150492
-0.0153812
-0.0157034
-0.0160417
-0.0163637
-0.0166507
-0.0169015
-0.0171026
-0.0172614
-0.0173884
-0.017487
-0.0175545
-0.0175872
-0.0175997
-0.0176203
-0.0176633
-0.0177233
-0.0177871
-0.0178805
-0.0180463
-0.0182572
-0.018472
-0.0187306
-0.0189891
-0.0193096
-0.0196614
-0.0200646
-0.0204845
-0.0209116
-0.0213477
-0.0217773
-0.0221882
-0.0225785
-0.0229553
-0.0233162
-0.023644
-0.0239218
-0.0241499
-0.0243374
-0.024493
-0.0246102
-0.024682
-0.0247162
-0.0247289
-0.0247232
-0.0246927
-0.0246368
-0.024566
-0.0244977
-0.0244376
-0.0243714
-0.024299
-0.024237
-0.0241907
-0.0241551
-0.024134
-0.0123006
-0.0122828
-0.0122411
-0.0121733
-0.0120856
-0.011996
-0.0119101
-0.011826
-0.0117619
-0.0117125
-0.0116668
-0.0116568
-0.0117117
-0.0117962
-0.0119168
-0.0120835
-0.0122881
-0.012525
-0.0128041
-0.0131238
-0.0134581
-0.0137813
-0.0141092
-0.0144763
-0.014874
-0.015249
-0.0155846
-0.0159153
-0.0162351
-0.0165256
-0.0167852
-0.017002
-0.0171686
-0.0172913
-0.0173821
-0.0174497
-0.0174875
-0.0174976
-0.0175062
-0.0175456
-0.0176334
-0.0177279
-0.0178238
-0.017971
-0.0181819
-0.0184266
-0.0187107
-0.018984
-0.019298
-0.0196301
-0.020006
-0.0204069
-0.0208217
-0.0212498
-0.0216759
-0.0220862
-0.0224737
-0.0228413
-0.0231932
-0.0235208
-0.0238071
-0.0240408
-0.0242235
-0.0243701
-0.0244876
-0.0245693
-0.0246091
-0.0246156
-0.0246007
-0.0245682
-0.0245168
-0.0244473
-0.0243694
-0.0242968
-0.024228
-0.0241577
-0.0240919
-0.0240391
-0.0240003
-0.0239786
-0.0122312
-0.0122148
-0.0121735
-0.0121123
-0.0120275
-0.011929
-0.0118294
-0.0117316
-0.0116542
-0.0116084
-0.0115768
-0.0115583
-0.0115843
-0.011655
-0.01177
-0.0119329
-0.0121355
-0.0123623
-0.0126152
-0.0129121
-0.0132543
-0.0136092
-0.0139486
-0.0142902
-0.0146692
-0.0150623
-0.0154252
-0.0157679
-0.016093
-0.016386
-0.0166468
-0.0168744
-0.0170592
-0.0171931
-0.0172781
-0.017332
-0.0173619
-0.0173714
-0.0173753
-0.0173974
-0.0174995
-0.017643
-0.0177803
-0.017936
-0.0181233
-0.0183685
-0.0186541
-0.0189468
-0.0192653
-0.0195955
-0.0199433
-0.0203209
-0.0207242
-0.0211452
-0.0215654
-0.0219734
-0.0223605
-0.022725
-0.023069
-0.0233885
-0.0236735
-0.023913
-0.0241004
-0.0242427
-0.024353
-0.0244344
-0.0244799
-0.0244879
-0.0244664
-0.0244255
-0.0243706
-0.0243019
-0.0242216
-0.0241387
-0.0240606
-0.0239868
-0.0239186
-0.0238618
-0.0238197
-0.0237971
-0.0121652
-0.0121471
-0.0120994
-0.012034
-0.0119519
-0.0118527
-0.0117475
-0.0116395
-0.0115427
-0.01148
-0.0114498
-0.0114362
-0.0114502
-0.0115029
-0.0115999
-0.011748
-0.0119483
-0.0121833
-0.012433
-0.012705
-0.0130228
-0.0133837
-0.0137529
-0.0141032
-0.0144653
-0.0148517
-0.0152272
-0.0155837
-0.0159222
-0.0162293
-0.0164991
-0.0167352
-0.0169369
-0.017092
-0.0171821
-0.0172109
-0.0172036
-0.017202
-0.0172306
-0.017254
-0.0173485
-0.0175234
-0.0177102
-0.0179131
-0.0180995
-0.0183503
-0.0186146
-0.0188997
-0.019208
-0.01955
-0.0198887
-0.0202449
-0.0206316
-0.0210406
-0.0214505
-0.0218513
-0.0222348
-0.0225973
-0.0229391
-0.0232522
-0.023529
-0.0237655
-0.0239575
-0.0241038
-0.0242108
-0.0242861
-0.0243298
-0.0243388
-0.024315
-0.0242669
-0.0242034
-0.0241298
-0.024047
-0.023958
-0.0238709
-0.0237899
-0.0237178
-0.0236581
-0.0236135
-0.0235902
-0.0120901
-0.0120737
-0.012025
-0.0119523
-0.011867
-0.0117664
-0.0116588
-0.0115475
-0.0114392
-0.0113555
-0.011311
-0.011296
-0.0113074
-0.0113521
-0.0114346
-0.0115603
-0.0117402
-0.0119734
-0.0122348
-0.0125066
-0.0128023
-0.0131417
-0.0135188
-0.0138889
-0.0142532
-0.0146332
-0.0150119
-0.0153756
-0.0157237
-0.0160478
-0.0163371
-0.0165893
-0.0168083
-0.0169926
-0.0171122
-0.0171346
-0.0170705
-0.0170149
-0.0170709
-0.0171289
-0.0172276
-0.01743
-0.0176508
-0.0178898
-0.0180845
-0.0183465
-0.018602
-0.0188682
-0.0191438
-0.0194729
-0.019814
-0.0201633
-0.0205364
-0.0209298
-0.0213263
-0.0217192
-0.0220982
-0.0224561
-0.0227938
-0.0231047
-0.0233762
-0.0236054
-0.0237949
-0.0239445
-0.0240536
-0.0241253
-0.0241632
-0.0241684
-0.0241421
-0.024089
-0.0240171
-0.0239344
-0.0238459
-0.0237519
-0.023658
-0.0235697
-0.0234922
-0.0234292
-0.0233826
-0.0233587
-0.0120056
-0.0119879
-0.011943
-0.0118675
-0.0117782
-0.0116751
-0.0115654
-0.0114532
-0.0113417
-0.0112439
-0.011181
-0.0111552
-0.0111615
-0.011203
-0.0112814
-0.011394
-0.0115482
-0.0117586
-0.012018
-0.0123004
-0.0125939
-0.0129124
-0.0132753
-0.0136518
-0.0140236
-0.0144035
-0.0147857
-0.0151558
-0.0155096
-0.0158448
-0.0161541
-0.0164286
-0.0166688
-0.0168922
-0.0170877
-0.017167
-0.0170406
-0.0168531
-0.0169832
-0.0170921
-0.0171892
-0.0174156
-0.0176551
-0.0179073
-0.0180882
-0.0183227
-0.0185683
-0.0188244
-0.0190852
-0.0193851
-0.0197172
-0.0200647
-0.0204313
-0.0208105
-0.0211902
-0.0215718
-0.0219474
-0.0223024
-0.0226327
-0.0229383
-0.0232083
-0.023434
-0.0236182
-0.0237652
-0.0238747
-0.0239454
-0.0239787
-0.0239779
-0.0239466
-0.0238886
-0.0238099
-0.0237178
-0.0236206
-0.0235203
-0.0234208
-0.0233265
-0.0232437
-0.0231769
-0.0231283
-0.0231041
-0.0119178
-0.0118941
-0.0118509
-0.0117759
-0.0116848
-0.01158
-0.0114683
-0.0113555
-0.0112446
-0.0111414
-0.0110648
-0.0110241
-0.0110194
-0.0110534
-0.011129
-0.0112395
-0.0113801
-0.0115636
-0.0118014
-0.0120824
-0.0123819
-0.0126929
-0.0130388
-0.0134091
-0.0137828
-0.014162
-0.0145454
-0.0149212
-0.0152804
-0.0156219
-0.0159455
-0.0162434
-0.016507
-0.016756
-0.0170126
-0.0171923
-0.017033
-0.0165715
-0.0167234
-0.017014
-0.0171806
-0.0175603
-0.0177385
-0.0179663
-0.0181358
-0.0183238
-0.0185354
-0.0187775
-0.0190343
-0.0193085
-0.0196207
-0.0199574
-0.0203167
-0.0206854
-0.0210489
-0.0214121
-0.0217767
-0.0221297
-0.0224554
-0.0227532
-0.0230201
-0.0232462
-0.0234278
-0.0235694
-0.0236746
-0.0237426
-0.0237724
-0.0237659
-0.0237282
-0.0236643
-0.0235795
-0.0234795
-0.0233731
-0.0232653
-0.0231598
-0.0230605
-0.0229732
-0.022903
-0.0228527
-0.0228283
-0.0118272
-0.0117986
-0.0117535
-0.0116781
-0.0115856
-0.0114798
-0.0113671
-0.0112534
-0.0111438
-0.0110405
-0.0109571
-0.0109046
-0.0108869
-0.0109075
-0.0109727
-0.0110804
-0.011219
-0.0113875
-0.0115998
-0.0118638
-0.0121615
-0.0124713
-0.0128054
-0.0131657
-0.0135369
-0.0139132
-0.0142932
-0.0146697
-0.0150322
-0.0153761
-0.0157048
-0.0160202
-0.016308
-0.0165586
-0.0168012
-0.0170302
-0.0170355
-0.0164921
-0.0145008
-0.0155375
-0.0155437
-0.0176496
-0.0179073
-0.0180756
-0.0182317
-0.0183816
-0.0185323
-0.0187401
-0.0189822
-0.0192309
-0.0195186
-0.0198361
-0.0201834
-0.0205436
-0.0208997
-0.0212486
-0.0215943
-0.0219376
-0.02226
-0.0225509
-0.0228108
-0.0230355
-0.0232174
-0.0233558
-0.023455
-0.0235174
-0.0235424
-0.0235305
-0.0234861
-0.0234153
-0.0233243
-0.0232179
-0.0231039
-0.0229886
-0.022877
-0.0227729
-0.022682
-0.0226093
-0.0225579
-0.0225337
-0.0117319
-0.0117026
-0.0116547
-0.0115778
-0.0114834
-0.0113757
-0.0112614
-0.0111464
-0.0110367
-0.0109343
-0.0108486
-0.0107901
-0.0107632
-0.0107704
-0.0108188
-0.0109143
-0.0110498
-0.0112143
-0.0114101
-0.0116525
-0.0119379
-0.0122437
-0.012569
-0.0129185
-0.0132843
-0.0136567
-0.0140306
-0.0144027
-0.0147651
-0.0151082
-0.0154312
-0.0157473
-0.0160593
-0.0163308
-0.0165222
-0.0166969
-0.0171448
-0.0169292
0.00627559
0.00284899
0.00418249
-0.0156666
-0.017859
-0.0182342
-0.0183701
-0.0184353
-0.0185207
-0.0186794
-0.0189038
-0.0191382
-0.0194065
-0.0197001
-0.0200282
-0.0203754
-0.0207267
-0.0210723
-0.0214044
-0.0217314
-0.0220468
-0.0223331
-0.0225852
-0.0228035
-0.0229835
-0.0231204
-0.0232151
-0.023271
-0.0232897
-0.0232718
-0.0232207
-0.0231425
-0.0230447
-0.0229325
-0.0228126
-0.0226914
-0.0225745
-0.0224662
-0.0223727
-0.0222982
-0.0222466
-0.0222228
-0.0116342
-0.0116057
-0.0115551
-0.0114765
-0.0113806
-0.0112714
-0.0111548
-0.011037
-0.0109253
-0.010822
-0.0107341
-0.0106715
-0.0106398
-0.0106395
-0.0106735
-0.0107507
-0.010874
-0.011034
-0.0112219
-0.0114468
-0.011715
-0.0120116
-0.0123282
-0.0126666
-0.013024
-0.0133907
-0.0137575
-0.0141215
-0.0144806
-0.0148234
-0.0151362
-0.0154284
-0.0157375
-0.0160696
-0.0163114
-0.0162942