/*--------------------------------*- C++ -*----------------------------------*\
| =========                 |                                                 |
| \\      /  F ield         | OpenFOAM: The Open Source CFD Toolbox           |
|  \\    /   O peration     | Version:  2412                                  |
|   \\  /    A nd           | Website:  www.openfoam.com                      |
|    \\/     M anipulation  |                                                 |
\*---------------------------------------------------------------------------*/
FoamFile
{
    version     2.0;
    format      ascii;
    arch        "LSB;label=32;scalar=64";
    class       volScalarField;
    location    "1.8";
    object      alpha.ethanol;
}
// * * * * * * * * * * * * * * * * * * * * * * * * * * * * * * * * * * * * * //

dimensions      [0 0 0 0 0 0 0];

internalField   nonuniform List<scalar> 
6400
(
1
1
1
0.999999
0.999999
1
1
1
1
1
1
1
1
1
1
1
1
1
1
1
1
1
1
1
1
1
1
1
1
1
1
1
1
1
1
1
1
1
1
1
1
1
1
1
1
1
1
1
1
1
1
1
1
1
1
1
1
1
1
1
1
1
1
1
1
1
1
1
1
1
0.999999
0.999999
1
1
1
1
1
1
1
1
0.999994
0.999999
1
1
1
0.999999
0.999999
0.999999
0.999999
0.999999
0.999999
0.999999
1
1
1
1
1
1
0.999999
0.999999
1
1
1
1
1
1
1
1
1
1
1
1
1
1
1
1
1
1
1
1
1
1
1
1
1
1
1
1
1
1
1
1
1
1
1
1
1
1
1
1
1
1
1
1
1
1
1
0.999999
0.999999
0.999999
1
1
1
1
1
1
0.999999
0.999999
0.999999
1
1
0.999999
1
1
1
1
1
1
1
1
1
1
1
1
1
1
1
1
0.999999
0.999999
1
1
1
1
1
1
1
1
1
1
1
1
1
1
1
1
1
1
1
1
1
1
1
1
1
1
1
1
1
1
1
1
1
1
1
1
1
1
1
1
1
1
1
1
1
0.999999
0.999999
0.999999
1
1
1
1
1
1
0.999999
0.999999
0.999999
0.999999
0.999999
1
1
1
1
1
1
1
1
1
1
1
1
1
1
1
1
1
1
1
1
1
1
1
1
1
1
1
1
1
1
1
1
1
1
1
1
1
1
1
1
1
1
1
1
1
1
1
1
1
1
1
0.999999
1
1
1
1
1
1
1
1
1
1
0.999999
0.999999
0.999999
1
1
1
1
1
1
1
0.999999
0.999999
1
1
0.999999
1
1
1
1
1
1
1
1
1
1
1
1
1
1
1
1
1
1
1
1
1
1
1
1
1
1
1
1
1
1
1
1
1
1
1
1
1
1
1
1
1
1
1
1
1
1
1
1
1
1
1
1
1
1
1
1
1
1
1
1
1
1
1
1
1
1
1
1
1
1
1
1
0.999999
0.999999
0.999999
1
1
1
1
1
1
1
1
1
1
1
1
1
1
1
1
1
1
1
1
0.999999
0.999999
0.999999
1
1
1
1
1
1
1
1
1
1
1
1
1
1
1
1
1
1
1
1
1
1
1
1
1
1
1
1
1
1
1
1
1
1
1
1
1
1
1
1
1
1
1
1
1
1
1
1
1
1
1
1
1
0.999999
1
1
1
1
1
1
1
1
1
1
1
1
1
1
1
1
1
1
1
1
1
1
1
0.999999
0.999999
1
1
1
1
1
1
1
1
1
1
1
1
1
1
1
1
1
1
1
1
0.999999
1
1
1
1
1
0.999999
1
1
1
1
1
1
1
1
1
1
1
1
1
1
1
1
1
1
1
1
1
1
1
1
1
1
1
0.999999
0.999999
1
1
1
1
1
1
1
1
1
1
1
1
1
1
1
1
1
1
1
1
1
1
1
1
1
1
1
1
1
1
1
1
1
1
1
1
1
1
1
1
1
1
1
1
1
1
0.999999
0.999999
1
1
1
1
1
1
1
1
1
1
1
1
1
1
1
1
1
1
1
1
1
1
1
1
1
1
1
1
1
1
1
1
1
1
1
1
1
1
1
1
1
1
1
1
1
1
1
1
1
1
1
1
1
1
1
1
1
1
1
0.999999
0.999999
0.999999
1
1
1
1
1
1
1
1
1
1
1
1
1
1
1
1
1
1
1
1
1
1
1
1
1
1
1
1
1
1
1
1
1
1
1
1
1
1
1
1
1
1
1
1
1
1
1
1
1
1
1
1
1
1
1
1
1
1
1
1
1
1
1
1
1
1
1
1
1
1
1
1
1
1
1
1
1
0.999999
0.999999
0.999999
1
1
1
1
1
1
1
1
1
1
1
1
1
1
1
1
1
1
1
1
1
1
1
1
1
1
1
1
1
1
1
1
1
1
1
1
1
1
1
1
1
1
1
1
1
1
1
1
1
1
1
1
1
1
1
1
1
1
1
1
1
1
1
1
1
1
1
1
1
1
1
1
1
1
1
1
1
0.999999
0.999999
1
1
1
1
1
1
1
1
1
1
1
1
1
1
1
1
1
1
1
1
1
1
1
1
1
1
0.999999
1
1
1
1
1
1
1
1
1
1
1
1
1
1
1
1
1
1
1
1
1
1
1
1
1
1
1
1
1
1
1
1
1
1
1
1
1
1
1
1
1
1
1
1
1
1
1
1
1
1
1
1
1
1
1
1
1
1
1
1
1
1
1
1
1
1
1
1
1
1
1
1
1
1
1
1
1
1
1
1
1
1
1
1
1
1
1
1
1
1
1
1
1
1
1
1
1
1
1
1
1
1
1
1
1
1
1
1
1
1
1
1
1
1
1
1
1
1
1
1
1
1
1
1
1
1
1
1
1
1
1
1
1
1
1
1
1
1
1
1
1
1
1
1
1
1
1
1
1
1
1
1
1
1
1
1
1
1
1
1
1
1
1
1
1
1
1
1
1
1
1
1
1
1
1
1
1
1
1
1
1
1
1
1
1
1
1
1
1
1
1
1
1
1
1
1
1
1
1
1
1
1
1
1
1
1
1
1
1
1
1
1
1
1
1
1
1
1
1
1
1
1
1
1
1
1
1
1
1
1
1
1
1
1
1
1
1
1
1
1
1
1
1
1
1
1
1
1
1
1
1
1
1
1
1
1
1
1
1
1
1
1
1
1
1
1
1
1
1
1
1
1
1
1
1
1
1
1
1
1
1
1
1
1
1
1
1
1
1
1
1
1
1
1
1
1
1
1
1
1
1
1
1
1
1
1
1
1
1
1
1
1
1
1
1
1
1
1
1
1
1
0.999999
0.999999
0.999999
1
1
1
1
1
1
1
1
1
1
1
1
1
1
1
1
1
1
1
1
1
1
1
1
1
1
1
1
1
1
1
1
1
1
1
1
1
1
1
1
1
1
1
1
1
1
1
1
1
1
1
1
1
0.999999
0.999999
0.999999
0.999999
1
1
1
1
1
1
1
1
1
1
1
1
1
1
1
1
1
1
1
1
1
1
1
1
1
1
1
1
1
1
1
1
1
1
1
1
1
1
1
1
1
1
1
1
1
1
1
1
1
1
1
1
1
1
0.999998
0.999997
0.999999
0.999999
0.999999
0.999999
0.999999
0.999999
0.999999
0.999999
1
1
1
1
1
1
1
1
1
1
1
1
1
1
1
1
1
1
1
1
1
1
1
1
1
1
1
1
1
1
1
1
1
1
1
1
1
1
1
1
1
1
1
1
1
1
1
1
1
1
1
1
1
1
1
1
1
1
1
1
0.999999
0.999999
0.999999
0.999999
0.999999
0.999999
0.999999
0.999999
0.999998
0.999998
0.999954
0.999957
0.999976
0.999976
0.999973
0.999971
0.999971
0.999971
0.999971
0.999974
0.999979
0.999986
0.999995
0.999999
1
1
1
1
1
1
1
1
1
1
1
1
1
1
1
1
1
1
1
1
1
0.999999
0.999997
0.999993
0.999988
0.999983
0.999983
0.999988
0.999993
0.999997
0.999999
1
1
1
1
1
1
1
1
1
1
1
1
1
1
1
1
1
1
1
1
1
0.999999
0.999995
0.999987
0.999979
0.999974
0.999972
0.999972
0.999972
0.999974
0.999976
0.999979
0.999977
0.999961
0.999963
0.99924
0.999375
0.999624
0.999595
0.999513
0.999435
0.998767
0.993354
0.982141
0.966805
0.949051
0.930497
0.91324
0.899611
0.892121
0.895697
0.910464
0.935518
0.966823
0.995585
1
1
1
1
1
0.998994
0.993655
0.993728
0.999878
1
0.99949
0.997315
0.997827
0.999825
0.999994
0.999951
0.999849
0.999706
0.999461
0.998714
0.998558
0.998819
0.999683
0.999835
0.999946
0.999993
1
0.998833
0.998959
0.999977
1
1
0.997418
0.991071
0.99123
0.999751
1
1
1
1
0.994669
0.967098
0.936434
0.912494
0.898706
0.89591
0.903757
0.916893
0.932994
0.950148
0.966829
0.981955
0.993365
0.998861
0.999479
0.999558
0.999627
0.999638
0.999428
0.999388
0.805356
0.859098
0.888474
0.837531
0.766254
0.683611
0.578973
0.474525
0.389839
0.322941
0.268595
0.224972
0.192238
0.167148
0.151694
0.157665
0.191867
0.260538
0.380674
0.57285
0.756034
0.78718
0.773247
0.806067
0.984864
0.999538
0.998772
0.998953
0.99998
0.999991
0.99998
0.999904
0.999234
0.931146
0.821642
0.742932
0.681178
0.63072
0.591805
0.571388
0.563796
0.566768
0.586911
0.630535
0.689911
0.75874
0.859865
0.999125
0.999831
0.999984
0.999999
1
0.999626
0.998094
0.999282
0.999388
0.824212
0.752783
0.759161
0.758503
0.599296
0.392998
0.267024
0.19774
0.163161
0.157422
0.173353
0.198499
0.230355
0.271638
0.322939
0.388615
0.474035
0.58193
0.687814
0.769784
0.838496
0.885407
0.870708
0.864999
0.280824
0.3058
0.208351
0.116194
0.0565994
0.0146474
1.0455e-08
2.03178e-08
4.2034e-08
1.14908e-07
4.92167e-07
1.27028e-05
0.000579174
0.0103029
0.0166902
0.0153215
0.0141812
0.0186771
0.0329621
0.0990919
0.391752
0.787696
0.952602
0.984569
0.997861
0.999578
0.999608
0.999789
0.999975
0.99998
0.999905
0.653188
0.294179
0.1263
0.0672319
0.0296984
0.00714006
2.80598e-09
1.97738e-09
1.89575e-09
1.94832e-09
1.83887e-08
8.46303e-08
6.99453e-08
0.0100205
0.0357268
0.0800775
0.196231
0.509364
0.946218
0.999984
0.999999
0.999775
0.999524
0.999473
0.999423
0.987686
0.960701
0.850417
0.510186
0.14216
0.0346569
0.0200878
0.0159929
0.0162976
0.0159983
0.00754618
0.000136509
6.50357e-06
2.47108e-07
8.54091e-08
3.41168e-08
1.6278e-08
1.03166e-08
0.0155459
0.0581537
0.117652
0.20481
0.28127
0.334261
0.128023
0.091623
3.0016e-05
-1.98412e-13
-4.80875e-08
-1.17465e-08
5.29396e-24
3.18751e-08
1.14935e-07
4.92273e-07
8.0995e-06
4.45135e-05
0.000285371
0.00070668
0.00166411
0.00690839
0.01258
0.00770342
0.00450978
0.0402929
0.188366
0.304505
0.365751
0.49471
0.678012
0.78811
0.820893
0.820188
0.640967
0.41479
0.184558
0.0368531
0.000542752
-5.20292e-09
1.53748e-07
5.45066e-08
2.80598e-09
1.97738e-09
1.89575e-09
1.84471e-09
1.87301e-09
1.94832e-09
1.83887e-08
4.00832e-08
3.47668e-08
3.21671e-08
1.40631e-08
0.000286059
0.0108416
0.142715
0.368065
0.605803
0.794105
0.847306
0.819018
0.708111
0.501014
0.321606
0.260115
0.182114
0.0624839
0.00602644
0.00938012
0.0138177
0.00763192
0.00175407
0.000628422
0.000166542
2.5171e-05
3.93303e-06
4.88451e-07
2.38656e-07
1.90464e-08
2.14383e-09
4.71755e-10
4.72409e-10
4.71755e-10
1.88909e-06
0.0629052
0.118386
0.0585759
0.0212594
8.07468e-06
-1.35535e-21
-4.46979e-08
-3.88554e-13
1.93188e-08
1.05235e-07
4.40073e-07
1.80076e-06
7.38072e-06
3.20066e-05
0.000124381
0.0003344
0.00140425
0.00425683
0.00347927
0.00117446
0.000479607
0.000206756
9.17582e-05
7.0814e-05
8.16849e-05
0.000106838
0.000157401
0.000223485
0.0383553
0.0504189
0.0227679
0.00136572
0.000237818
0.000179249
3.27287e-05
8.43172e-07
1.98333e-07
2.72926e-06
8.34389e-09
2.05324e-09
1.84471e-09
1.81032e-09
1.78272e-09
1.33835e-07
9.57388e-07
6.13956e-07
5.71536e-08
2.23985e-08
3.4413e-08
2.751e-06
0.000178805
0.000384929
0.000609806
0.0193029
0.0579781
0.0499975
0.00364746
0.000102154
6.88107e-05
7.10161e-05
0.000111534
0.000211674
0.000298209
0.000278772
0.000576952
0.0023783
0.00432895
0.00191252
0.000320268
9.79786e-05
2.68519e-05
9.18939e-06
3.91685e-06
7.41246e-07
1.04108e-07
1.7953e-08
2.14236e-09
4.7181e-10
3.20427e-09
0.00177729
0.0194549
0.0283751
5.10769e-05
2.098e-05
0.000459288
7.87358e-08
-7.11717e-09
-4.03897e-26
7.87374e-09
4.84412e-08
2.32951e-07
1.04169e-06
4.32395e-06
1.75277e-05
5.67906e-05
0.000168634
0.0013684
0.00305181
0.000515548
0.000116909
0.000160811
0.000150283
8.31094e-05
5.49391e-05
4.48385e-05
8.16848e-05
0.000113408
0.000219485
0.00022369
0.000269125
0.000236655
0.00012144
8.02342e-05
3.81628e-05
1.22331e-05
7.52654e-06
2.70483e-05
3.64396e-05
8.62369e-06
2.68956e-09
1.81032e-09
1.78546e-09
1.73548e-09
6.85155e-07
1.58209e-06
1.58403e-06
1.59264e-07
5.12379e-09
2.4864e-05
0.000142333
0.000161478
0.000264065
0.000397526
0.000511658
0.000341585
0.000199669
0.00013838
3.61397e-05
3.41703e-05
4.06165e-05
0.000113116
0.000327024
0.000331466
0.000236239
0.000177119
0.00017943
0.00216062
0.00183891
0.000297738
6.37655e-05
2.04148e-05
5.09563e-06
1.31381e-06
3.41107e-07
7.13767e-08
1.40858e-08
4.19346e-09
2.52153e-09
3.9748e-09
0.000504876
1.04215e-05
4.23227e-05
0.000152244
7.41394e-06
3.52242e-05
1.38027e-09
8.07794e-26
4.95379e-09
1.16399e-08
4.2148e-08
1.7296e-07
6.99391e-07
2.6723e-06
9.7221e-06
3.12553e-05
9.2378e-05
0.000986459
0.00218125
0.000283099
8.18094e-05
0.000190992
0.000261902
0.000232289
6.96489e-06
7.5804e-06
0.000237607
0.000309683
0.000316028
0.000342307
0.000366676
0.000146583
0.000118444
7.49921e-05
4.26731e-05
2.03797e-05
1.1708e-05
3.45449e-05
3.64396e-05
3.64356e-05
9.40679e-09
1.73512e-09
1.72141e-09
1.19976e-09
5.64462e-07
1.58443e-06
9.07086e-07
1.50927e-08
3.24753e-09
0.000371029
0.000553485
0.00054858
0.00040766
0.00033476
0.000935088
0.00094531
0.000940894
0.000673305
3.32599e-05
8.29001e-07
7.29834e-07
0.000286944
0.000333331
0.000340938
0.000215445
0.000157744
0.000139234
0.00104099
0.00127394
0.000224652
4.44992e-05
1.49376e-05
4.65712e-06
1.34514e-06
3.58828e-07
8.65477e-08
1.85945e-08
5.24411e-09
4.5701e-09
5.2568e-09
4.19316e-08
2.71784e-06
0.000169137
0.000156965
4.52588e-06
2.89248e-08
1.63363e-08
5.30568e-08
2.50891e-07
6.32993e-08
8.12321e-08
1.57445e-07
4.73007e-07
1.63986e-06
5.63322e-06
1.79206e-05
5.34262e-05
0.000537026
0.00160469
0.000177987
4.91003e-05
0.000178118
0.000265509
8.49929e-05
6.74671e-06
6.78076e-06
7.07248e-06
7.94331e-06
9.24611e-06
8.60494e-05
0.000375943
0.000491377
0.000510365
0.000510784
0.000510766
0.000493067
1.11514e-05
1.07723e-05
3.63942e-05
3.16306e-05
1.74955e-06
1.55054e-09
1.38442e-09
5.43187e-10
7.05228e-08
1.28804e-06
7.95697e-10
2.74315e-09
1.7175e-09
0.000260022
0.000543695
0.000552903
0.000491959
0.000295646
1.30072e-05
3.8459e-05
1.3396e-07
2.49287e-07
4.74471e-07
6.29759e-07
6.65759e-07
5.54908e-05
0.000340938
0.000346007
0.000321023
0.000131391
0.000128256
0.000292518
0.00100534
0.000458196
4.40196e-05
1.78318e-05
5.15322e-06
1.6596e-06
4.61024e-07
1.18879e-07
2.89852e-08
8.16633e-09
5.25923e-09
7.41713e-09
8.63094e-09
2.51481e-06
0.000174549
7.47342e-05
2.51306e-06
1.17984e-06
1.48764e-06
2.42312e-06
4.9341e-08
3.85888e-08
5.53078e-08
1.16013e-07
3.63025e-07
1.32823e-06
4.25406e-06
1.63496e-05
8.19025e-05
0.000704157
0.00114086
4.91003e-05
2.47557e-05
0.000190751
0.000241949
2.01064e-05
6.74671e-06
6.71596e-06
6.78076e-06
7.07248e-06
7.93531e-06
9.2498e-06
8.08414e-06
4.04731e-06
7.19584e-05
0.000273769
0.000297631
0.000147115
0.000110303
8.22606e-06
7.88933e-06
1.0316e-06
2.46082e-07
9.98737e-10
7.6103e-10
4.26997e-10
2.66363e-09
6.54494e-10
6.54294e-10
4.29536e-10
1.30182e-10
1.35956e-10
8.88739e-05
6.78235e-05
5.0294e-09
1.24818e-08
3.82115e-08
5.9857e-08
8.06829e-08
1.35213e-07
4.76533e-07
5.27902e-07
6.29761e-07
8.91162e-05
0.00034575
0.00034575
0.000252089
0.000119333
0.0001272
0.000292948
0.000855865
0.000795709
0.000491155
6.24379e-05
9.08118e-06
2.70617e-06
7.95356e-07
2.82791e-07
1.42861e-07
1.94333e-07
5.35367e-08
8.63094e-09
1.69093e-08
1.22804e-07
9.61951e-05
3.48592e-06
3.0204e-06
3.48257e-06
1.56788e-05
3.37595e-07
2.54613e-08
2.9722e-08
4.57339e-08
1.13297e-07
3.91962e-07
1.4449e-06
5.40183e-06
7.79654e-05
0.000685584
0.000953871
0.000981228
0.000151901
1.43234e-05
3.21643e-05
5.84377e-05
1.07061e-05
6.79102e-06
6.81556e-06
7.12278e-06
1.62315e-05
2.00461e-05
1.40425e-05
7.9057e-06
2.68346e-06
4.17902e-08
6.91514e-09
4.16025e-09
2.96665e-09
4.16025e-09
9.29004e-07
4.90662e-09
1.79449e-09
1.22817e-09
1.02193e-09
1.03789e-09
4.26997e-10
4.26997e-10
4.70114e-10
1.27137e-09
2.91897e-10
1.22484e-10
1.15642e-10
1.35956e-10
2.34319e-10
1.18359e-09
5.0294e-09
4.02243e-08
2.08878e-07
4.36442e-07
1.33532e-06
1.51011e-06
7.51336e-07
6.6575e-07
8.65034e-06
0.00011363
0.000188693
0.000120992
0.000124876
0.000191882
0.000790881
0.000795709
0.000795064
0.000791313
0.000120404
8.44197e-06
2.32957e-06
6.44399e-07
2.10853e-07
9.26537e-08
7.18727e-08
2.63811e-08
1.69093e-08
2.63811e-08
9.01754e-08
7.80389e-07
4.67411e-06
4.39523e-06
2.14356e-05
1.53015e-05
2.5461e-08
2.25999e-08
2.54613e-08
3.73466e-08
8.42405e-08
2.92045e-07
1.05233e-06
3.79224e-06
6.70628e-05
0.000739904
0.000921043
0.000953871
0.000566033
7.65189e-06
5.00618e-06
1.52756e-06
9.49852e-06
1.40379e-05
1.40393e-05
1.29297e-05
2.11696e-05
2.15548e-05
2.15548e-05
2.15548e-05
2.14459e-05
7.43696e-06
1.39544e-08
1.8966e-09
1.79979e-09
1.57942e-08
5.44467e-09
2.89478e-09
2.35677e-09
1.98356e-09
2.59679e-09
1.78879e-09
4.21016e-10
6.39929e-10
3.18548e-09
5.12832e-09
1.93277e-09
1.02335e-10
7.36782e-11
9.84511e-11
8.79063e-09
3.94118e-08
6.85398e-08
1.28773e-07
4.49417e-07
8.03029e-07
6.82167e-07
1.38807e-06
2.42286e-06
6.91189e-06
9.31984e-06
8.76957e-06
5.62692e-05
0.000139092
0.000226769
0.000409374
0.000698311
0.00079398
0.000697014
0.000342702
4.3905e-05
3.80475e-06
1.00473e-06
2.84549e-07
8.6158e-08
3.61448e-08
2.95279e-08
2.19648e-06
2.92518e-06
2.061e-06
1.86599e-07
4.46518e-07
6.28595e-06
5.39265e-06
2.95432e-05
1.06235e-05
2.25999e-08
2.17656e-08
2.25999e-08
2.73565e-08
4.53713e-08
1.04029e-07
2.72622e-07
1.18982e-06
3.20466e-05
0.000215532
0.000537069
0.000570608
0.000389395
4.69158e-05
1.94036e-06
8.98666e-07
8.8143e-07
2.02488e-06
2.31184e-06
6.40842e-06
8.78006e-06
9.23371e-06
1.53496e-05
1.42719e-05
5.82922e-06
3.03833e-06
2.947e-07
1.34095e-11
1.19054e-10
5.44224e-08
5.31202e-08
3.35873e-08
4.57694e-09
5.2082e-09
7.89536e-09
2.44126e-09
4.15166e-10
9.97441e-10
4.97008e-09
5.55832e-09
4.09876e-09
7.55015e-11
2.32503e-11
1.22516e-10
1.86171e-08
3.60035e-08
7.85585e-10
7.32446e-11
1.10453e-10
1.39181e-09
6.68328e-09
4.97237e-08
2.68442e-06
1.74422e-05
6.93312e-05
0.000121654
0.000121972
0.000119061
9.32718e-05
7.74517e-05
9.01695e-05
0.000137269
7.23482e-05
8.21496e-06
1.04553e-05
1.81112e-06
1.79534e-07
6.25178e-08
2.83005e-08
1.94707e-08
2.76201e-08
9.13111e-06
6.43954e-05
7.28313e-06
4.46518e-07
1.55844e-06
7.02839e-06
1.49594e-05
3.06549e-05
1.59119e-05
2.17656e-08
2.17656e-08
2.17656e-08
2.28563e-08
3.50105e-08
4.99207e-08
6.09166e-08
3.79466e-07
3.90894e-06
2.51243e-06
1.32515e-05
2.19283e-05
2.00376e-05
2.9117e-05
9.61055e-06
2.37115e-07
4.50532e-08
9.16653e-09
1.76418e-09
3.34931e-10
6.98745e-11
2.29144e-11
1.4799e-11
1.33251e-11
1.3002e-11
1.28334e-11
1.3002e-11
1.31533e-11
1.34095e-11
4.87294e-08
6.06697e-08
5.6822e-08
8.62673e-09
8.5993e-09
8.81188e-09
2.44e-09
3.98854e-10
4.66915e-10
2.66334e-09
5.12279e-09
2.52152e-09
1.81797e-10
2.30273e-11
2.3563e-11
1.3175e-11
1.21574e-11
1.14911e-11
1.10449e-11
1.01534e-11
9.50251e-12
8.56756e-12
1.14039e-07
6.44942e-06
8.3214e-06
5.70874e-06
1.16187e-05
1.47149e-05
3.96728e-06
3.01077e-07
5.41195e-07
1.06564e-06
1.65513e-06
1.47876e-06
6.69524e-07
2.08605e-07
8.31865e-08
4.35766e-08
2.56123e-08
1.8122e-08
1.7053e-08
1.94707e-08
4.86959e-05
7.485e-05
6.08683e-05
4.87328e-06
2.7178e-06
7.23613e-06
3.06549e-05
3.09178e-05
3.06549e-05
5.0101e-06
2.17656e-08
2.28563e-08
2.8239e-08
4.7682e-08
6.10457e-08
3.67157e-08
1.14855e-08
3.14976e-08
1.67952e-07
4.3587e-07
5.04612e-07
2.91612e-07
6.91935e-07
1.5923e-06
7.6175e-07
7.16755e-09
1.72612e-09
3.16513e-10
7.53959e-11
3.28064e-11
1.88795e-11
1.43651e-11
1.31769e-11
1.28334e-11
1.27443e-11
1.28334e-11
1.32217e-11
1.3399e-11
1.59809e-09
3.71096e-08
7.64249e-09
4.60617e-09
8.63595e-09
8.63923e-09
1.06136e-09
2.85752e-10
2.7464e-10
3.58843e-10
5.86257e-10
2.73777e-10
6.79617e-11
2.29804e-11
2.48152e-11
1.94551e-11
1.16958e-11
1.14835e-11
1.10749e-11
9.59458e-12
9.07495e-12
7.35458e-12
5.95962e-12
4.34909e-12
6.35591e-12
2.394e-11
1.23841e-10
6.72312e-10
3.4747e-09
1.34376e-08
3.37332e-08
7.01091e-08
1.04028e-07
9.64182e-08
3.71083e-08
1.92035e-08
3.33528e-08
3.04862e-08
1.8122e-08
1.68344e-08
1.74737e-08
1.77646e-05
7.485e-05
7.59966e-05
7.485e-05
8.15995e-06
2.75144e-06
7.53929e-06
9.08678e-06
3.07927e-05
3.09178e-05
2.71209e-05
1.61878e-06
2.02315e-06
2.18654e-06
1.24702e-07
3.61869e-08
1.12459e-08
6.98888e-09
2.49224e-09
4.46097e-09
1.58062e-08
2.12544e-08
1.29402e-08
5.44093e-09
1.74082e-09
1.94671e-08
7.8028e-09
7.27091e-10
4.41256e-11
2.54666e-11
2.55398e-11
2.86306e-11
2.40761e-11
1.83294e-11
1.38856e-11
1.28867e-11
1.39649e-11
1.42335e-11
1.4024e-11
3.74356e-12
3.68139e-12
3.74356e-12
2.01923e-09
7.24573e-09
2.43356e-09
1.51735e-10
2.02898e-10
1.99432e-10
1.84887e-10
5.58849e-11
3.05256e-11
1.44524e-11
1.11938e-11
1.44433e-11
1.60872e-11
1.53249e-11
1.10667e-11
1.05916e-11
1.07901e-11
9.36567e-12
6.9918e-12
5.9651e-12
3.44267e-12
2.55042e-12
2.24308e-12
3.01165e-12
9.14555e-12
4.57226e-10
1.83891e-10
4.77155e-10
1.17024e-09
2.37736e-09
3.73957e-09
2.78993e-09
1.09963e-08
1.92035e-08
3.33528e-08
2.56123e-08
1.8122e-08
2.00728e-06
6.93586e-05
7.59966e-05
7.55445e-05
5.59171e-05
3.82438e-06
2.89793e-06
7.71719e-06
7.96266e-06
1.5214e-05
2.88715e-05
1.8081e-05
9.95082e-06
3.91983e-05
5.70808e-05
2.04353e-05
3.73325e-07
1.66627e-08
2.48923e-09
2.0798e-09
1.12294e-09
1.53912e-10
4.43454e-10
2.27549e-10
7.87435e-11
1.59572e-11
1.48056e-10
7.99059e-11
6.2626e-11
5.00112e-11
2.44778e-11
2.29641e-11
2.91407e-11
2.95064e-11
2.33819e-11
1.36741e-11
1.04247e-11
1.02934e-11
1.18098e-11
1.0106e-11
4.13422e-12
3.6436e-12
9.80858e-12
3.92761e-10
8.54081e-10
1.78282e-10
4.68897e-11
4.88539e-11
1.06986e-10
1.5588e-10
1.82977e-10
7.44386e-11
9.70591e-12
3.18523e-12
3.43119e-12
3.50292e-12
2.74803e-12
2.45178e-12
3.84641e-12
6.97972e-12
8.39672e-12
8.38489e-12
7.06238e-12
4.15585e-12
2.57265e-12
1.95981e-12
1.8271e-12
1.63039e-12
1.40748e-12
-3.20897e-12
-8.90594e-12
2.32468e-11
2.05186e-10
1.70581e-09
2.56305e-09
2.7253e-09
1.59458e-08
1.73711e-07
1.3318e-07
4.33792e-08
6.86488e-06
7.09888e-05
7.44573e-05
7.05614e-05
7.98812e-06
4.2425e-06
2.93751e-06
0.00072481
9.55667e-06
1.5239e-05
1.47597e-05
1.38044e-05
1.26235e-05
1.52315e-05
0.000100545
0.000308468
6.86544e-05
1.68762e-07
9.71053e-09
1.02094e-09
3.82404e-10
3.12461e-10
1.98293e-10
2.94582e-11
9.26835e-12
6.77777e-12
1.25557e-11
1.48834e-11
1.20644e-11
8.16602e-12
5.08335e-12
2.65973e-12
3.17738e-12
3.31419e-12
2.97162e-12
3.05847e-12
2.82882e-12
2.17775e-12
2.77083e-12
2.78042e-12
2.90978e-12
3.65133e-12
2.42237e-11
1.84851e-11
2.06732e-11
4.28176e-11
4.4322e-11
4.6703e-11
9.93723e-09
1.00528e-11
8.73849e-11
2.05935e-11
4.26965e-12
1.62632e-12
1.36042e-12
1.07725e-12
6.86479e-13
4.97279e-13
4.49717e-13
6.26815e-13
1.23063e-12
2.10612e-12
2.44387e-12
2.78124e-12
2.38602e-12
2.03664e-12
1.78984e-12
1.63054e-12
1.94303e-12
5.74563e-12
2.61736e-11
6.38263e-11
9.5516e-11
2.59076e-10
1.34556e-09
3.35465e-08
1.91654e-07
3.06021e-06
9.17327e-06
2.36424e-05
1.57126e-05
2.33705e-05
4.8657e-05
3.09335e-05
1.70531e-05
7.35865e-06
0.00117792
0.00128486
0.000755188
2.17727e-05
1.63335e-05
1.42306e-05
1.38044e-05
1.42306e-05
1.78804e-05
0.000313326
0.000305687
3.25867e-05
3.45449e-07
1.02712e-08
9.53312e-10
1.76358e-10
3.57862e-11
1.82788e-11
7.59028e-12
3.17526e-12
2.50329e-12
2.15067e-12
1.67452e-12
1.12501e-12
6.55409e-13
3.97008e-13
3.33046e-13
3.5988e-13
3.65129e-13
3.29249e-13
2.48438e-13
2.31198e-13
3.25806e-13
7.12953e-13
1.80969e-12
3.392e-12
4.46862e-12
1.30922e-11
2.03311e-10
6.48582e-11
4.6703e-11
4.24768e-06
1.57639e-07
5.71834e-12
7.01072e-12
3.37062e-12
1.72265e-12
9.94866e-13
6.62382e-13
3.45937e-13
1.43748e-13
7.6334e-14
6.16024e-14
6.04646e-14
7.63464e-14
1.15619e-13
1.69392e-13
2.22692e-13
2.73814e-13
3.41509e-13
4.92537e-13
9.31953e-13
2.56941e-12
9.56654e-12
2.93348e-11
6.83786e-11
2.84094e-10
1.48483e-09
1.28445e-08
4.49525e-07
3.54455e-05
0.000306389
0.000298592
1.86811e-05
1.71097e-05
1.87586e-05
2.06653e-05
2.5961e-05
2.77178e-05
0.000546953
0.00155553
0.000358451
0.0008446
0.000583312
2.6153e-05
1.63526e-05
1.42306e-05
1.47262e-05
1.50134e-05
0.000213451
0.000405948
0.000104389
6.96905e-07
7.52355e-08
9.1109e-09
1.09829e-09
1.72686e-10
3.7372e-11
1.26993e-11
2.84294e-12
6.34886e-13
2.50733e-13
1.42514e-13
8.2227e-14
4.28651e-14
3.17295e-14
3.5227e-14
3.60123e-14
3.24424e-14
2.36924e-14
2.18537e-14
3.79645e-14
1.34463e-13
4.97796e-13
1.61114e-12
3.1825e-12
5.91964e-12
8.54991e-11
5.23004e-10
9.42838e-11
7.14996e-11
1.57235e-05
5.30769e-07
3.6541e-12
3.41258e-12
2.20106e-12
1.50058e-12
7.97461e-13
4.04962e-13
1.53302e-13
4.07121e-14
1.0657e-14
5.03906e-15
4.32716e-15
4.54816e-15
6.15417e-15
9.60649e-15
1.58092e-14
2.87071e-14
6.76606e-14
2.31705e-13
1.09279e-12
6.13565e-12
2.45293e-11
6.1451e-11
2.76785e-10
1.70147e-09
1.31171e-08
1.06492e-07
9.91718e-07
0.000188326
0.000626723
0.000473113
1.88614e-05
1.86811e-05
1.94461e-05
2.22781e-05
3.2559e-05
0.000325525
0.0015524
0.00154605
7.45647e-09
0.000797481
0.00078244
0.000564554
2.79656e-05
1.69973e-05
1.51697e-05
1.49108e-05
0.000226186
0.000430369
0.000139579
1.69159e-06
2.13206e-07
2.56314e-08
3.09258e-09
4.58351e-10
7.74498e-11
2.45386e-11
6.01232e-12
9.45966e-13
1.40672e-13
2.74327e-14
7.75936e-15
2.98138e-15
1.8589e-15
1.53442e-15
1.29449e-15
9.83444e-16
1.04193e-15
2.88533e-15
1.81192e-14
1.03361e-13
4.60749e-13
1.71173e-12
3.25819e-12
8.94864e-12
2.27028e-10
6.89997e-10
9.75752e-11
1.04696e-10
1.58251e-05
7.13094e-07
5.22918e-12
5.08509e-12
2.15781e-12
1.52116e-12
7.60669e-13
3.22092e-13
9.97985e-14
2.19638e-14
3.55978e-15
6.02261e-16
2.94193e-16
2.88359e-16
3.94625e-16
6.55449e-16
1.46417e-15
5.54645e-15
3.23336e-14
2.22522e-13
1.61258e-12
9.70217e-12
3.5956e-11
1.16138e-10
6.61513e-10
4.63742e-09
3.88265e-08
3.2757e-07
3.17974e-06
0.000322128
0.000641431
0.00049515
1.88614e-05
1.94461e-05
2.14757e-05
2.87304e-05
0.000119934
0.00134546
0.00145521
0.000440379
7.31222e-09
5.67829e-05
0.000720721
0.000683133
0.000651385
0.000120377
1.87788e-05
1.56594e-05
0.00043368
0.000468396
0.00012352
2.33711e-06
3.32969e-07
4.32605e-08
5.37083e-09
7.08759e-10
1.20071e-10
2.52452e-11
6.53279e-12
1.06444e-12
1.30929e-13
1.60209e-14
2.08309e-15
3.85719e-16
1.37765e-16
7.54032e-17
4.82996e-17
5.53569e-17
2.15467e-16
2.03971e-15
1.65681e-14
1.01016e-13
4.8472e-13
2.03504e-12
3.56074e-12
1.39294e-11
3.69788e-10
7.20713e-10
1.0796e-10
2.01568e-08
1.58684e-05
6.56956e-07
9.22594e-12
1.11249e-11
3.13864e-12
1.88449e-12
8.70829e-13
3.07824e-13
8.60127e-14
1.70256e-14
2.49207e-15
2.78035e-16
3.84917e-17
2.41761e-17
3.19914e-17
6.74952e-17
2.98496e-16
2.44163e-15
2.23824e-14
1.97334e-13
1.67785e-12
9.21349e-12
2.92002e-11
1.62525e-10
9.52638e-10
7.66422e-09
6.31951e-08
5.06978e-07
4.01382e-06
0.000317874
0.000651621
0.000623532
6.70216e-05
2.14777e-05
2.66352e-05
8.08863e-05
0.00108489
0.00127362
0.000632019
6.4956e-07
7.24382e-09
7.31222e-09
0.000340035
0.00067636
0.000674685
0.000663498
0.00034747
0.000491481
0.00061305
0.000491184
5.31734e-05
2.44982e-06
3.62344e-07
4.83679e-08
6.04945e-09
7.35022e-10
1.17876e-10
1.84035e-11
4.56373e-12
6.78434e-13
6.99884e-14
7.32102e-15
7.46603e-16
8.00108e-17
1.35064e-17
4.68018e-18
5.21146e-18
1.83873e-17
1.88271e-16
2.03705e-15
1.70266e-14
1.08822e-13
5.67712e-13
2.21593e-12
3.73643e-12
1.85297e-11
4.21793e-10
7.19472e-10
1.68014e-10
9.55322e-07
1.58772e-05
3.9221e-07
5.81258e-12
1.90564e-11
4.57192e-12
2.2443e-12
1.12268e-12
3.52181e-13
8.56522e-14
1.59167e-14
2.1166e-15
2.21678e-16
1.78514e-17
3.29443e-18
2.72606e-18
9.70719e-18
8.75159e-17
9.73442e-16
1.03395e-14
1.05001e-13
1.04037e-12
6.53447e-12
2.40775e-11
1.56553e-10
9.63343e-10
7.97438e-09
6.46496e-08
4.96604e-07
3.49779e-06
0.000211535
0.000654965
0.000674675
0.000423724
2.66377e-05
4.32488e-05
0.000695775
0.00107789
0.000923904
6.46908e-07
4.89848e-09
6.45201e-09
6.89462e-09
6.90853e-08
0.000546692
0.000666365
0.000664094
0.000657338
0.000643379
0.000625891
0.000315672
1.14534e-05
1.19285e-06
1.76396e-07
2.36694e-08
2.96227e-09
3.64773e-10
5.6056e-11
9.88778e-12
1.73308e-12
2.01402e-13
1.93046e-14
1.82639e-15
1.64611e-16
1.44173e-17
1.41443e-18
5.1976e-19
1.78943e-18
1.68474e-17
2.02593e-16
2.20351e-15
1.85139e-14
1.19713e-13
6.16713e-13
2.23963e-12
3.79941e-12
2.04097e-11
3.93044e-10
4.89998e-10
1.34301e-08
1.13142e-05
1.5877e-05
1.12251e-07
5.81258e-12
2.42345e-11
6.22092e-12
2.37138e-12
1.26011e-12
4.28602e-13
9.96172e-14
1.65781e-14
2.02542e-15
1.8963e-16
1.47936e-17
1.28253e-18
3.48938e-19
1.46966e-18
1.94719e-17
2.54322e-16
3.06424e-15
3.47132e-14
3.84232e-13
2.93122e-12
1.37997e-11
9.76557e-11
6.37663e-10
5.38881e-09
4.38393e-08
3.33261e-07
2.31993e-06
6.97419e-05
0.0005995
0.000680046
0.000684152
0.000423148
0.000575274
0.000938309
0.000966322
4.45984e-05
4.89845e-09
4.62029e-09
2.52949e-09
4.92487e-09
1.6225e-07
5.29171e-05
0.000571974
0.00065748
0.000655853
0.000652843
0.000430633
3.66589e-05
1.92954e-06
3.05512e-07
4.37846e-08
5.75613e-09
7.12403e-10
1.06829e-10
1.52444e-11
3.09265e-12
3.96054e-13
3.66666e-14
3.36649e-15
2.96128e-16
2.45061e-17
1.88868e-18
1.56637e-19
1.72057e-19
1.58255e-18
1.8756e-17
2.1865e-16
2.31291e-15
1.9329e-14
1.23717e-13
6.2068e-13
1.81059e-12
3.73679e-12
1.98664e-11
2.13496e-10
9.36754e-12
9.79347e-08
1.58354e-05
1.56526e-05
1.31623e-11
1.57722e-11
2.59176e-11
8.42575e-12
2.38371e-12
1.28108e-12
4.53547e-13
1.08282e-13
1.79402e-14
2.03473e-15
1.68916e-16
1.30648e-17
1.08966e-18
1.24751e-19
2.45966e-19
2.80116e-18
4.2462e-17
5.64219e-16
6.92094e-15
8.14825e-14
8.28557e-13
5.67525e-12
3.26024e-11
2.29601e-10
1.79782e-09
1.47658e-08
1.13684e-07
8.01358e-07
5.06472e-06
0.000256147
0.000684152
0.000691979
0.000730504
0.000788447
0.00083847
0.000249576
3.57137e-07
3.22857e-09
2.81342e-09
4.7389e-10
1.98274e-09
6.37514e-08
7.72635e-07
7.99214e-05
0.000401451
0.000498542
0.000316717
4.90701e-05
2.13338e-06
4.11287e-07
6.44313e-08
8.31972e-09
1.05566e-09
1.56927e-10
2.27368e-11
4.80637e-12
6.39431e-13
5.91354e-14
5.34023e-15
4.65399e-16
3.83478e-17
2.95956e-18
2.04661e-19
2.37039e-20
1.22844e-19
1.68034e-18
1.96188e-17
2.22503e-16
2.2647e-15
1.78839e-14
1.043e-13
4.51076e-13
1.32427e-12
3.65062e-12
1.44364e-11
7.60949e-11
8.93448e-12
8.74531e-08
1.58465e-05
1.53178e-05
1.02219e-11
1.08912e-11
2.59176e-11
1.06688e-11
2.3445e-12
1.09883e-12
4.14338e-13
1.05116e-13
1.79332e-14
1.99473e-15
1.46587e-16
1.09224e-17
1.06855e-18
8.0635e-20
3.02946e-20
3.10873e-19
5.24054e-18
7.50394e-17
9.8399e-16
1.20538e-14
1.43938e-13
1.36418e-12
8.31512e-12
5.33207e-11
3.46782e-10
2.89271e-09
2.28643e-08
1.6756e-07
1.1221e-06
1.13543e-05
0.000304749
0.000692673
0.000695918
0.000730504
0.000420664
2.12194e-06
4.66867e-08
2.00304e-09
1.14368e-09
5.85252e-11
3.84314e-10
1.4352e-08
2.86953e-07
2.02709e-06
1.68977e-05
2.38002e-05
6.08083e-06
1.29837e-06
4.31106e-07
7.11319e-08
1.11319e-08
1.49713e-09
2.08975e-10
3.09776e-11
6.88579e-12
9.22471e-13
8.43274e-14
7.54568e-15
6.52003e-16
5.34944e-17
4.13927e-18
2.99349e-19
1.85011e-20
9.88746e-21
1.01986e-19
1.49599e-18
1.65144e-17
1.7075e-16
1.56161e-15
1.14556e-14
6.6393e-14
2.9907e-13
1.12972e-12
3.70269e-12
1.3093e-11
3.21099e-11
8.70512e-12
6.50357e-09
1.50416e-05
1.64411e-05
9.18076e-12
9.03442e-12
2.59176e-11
1.20642e-11
2.42956e-12
8.7213e-13
2.71558e-13
6.70891e-14
1.19792e-14
1.37828e-15
1.06954e-16
7.88724e-18
7.79299e-19
5.32399e-20
5.69981e-21
3.12936e-20
5.25618e-19
8.07015e-18
1.12652e-16
1.45734e-15
1.77542e-14
2.12292e-13
1.96452e-12
1.12521e-11
6.97365e-11
4.7416e-10
3.65731e-09
3.06215e-08
1.91216e-07
1.05599e-06
1.67611e-05
0.0002034
0.000401897
0.000316652
2.07304e-05
6.95962e-07
6.27081e-08
7.64727e-10
2.22626e-10
6.70209e-12
4.70749e-11
2.29023e-09
4.63848e-08
2.66762e-07
9.02083e-07
9.49523e-07
5.11138e-07
1.6088e-07
4.21205e-08
8.0879e-09
1.36695e-09
2.27763e-10
3.84599e-11
9.17756e-12
1.22576e-12
1.07652e-13
9.49087e-15
8.12131e-16
6.61853e-17
5.11263e-18
3.72189e-19
2.51449e-20
1.51132e-21
5.40567e-21
6.86925e-20
9.93239e-19
1.16071e-17
1.17177e-16
1.0226e-15
7.75556e-15
4.9865e-14
2.56492e-13
1.10308e-12
4.02964e-12
1.56447e-11
2.48336e-11
8.57361e-12
8.70512e-12
1.4873e-05
1.64695e-05
1.05852e-09
8.8379e-12
2.18373e-11
1.46513e-11
3.72511e-12
8.1063e-13
2.03026e-13
4.00766e-14
6.38405e-15
7.67688e-16
6.95985e-17
5.5938e-18
4.93624e-19
3.18848e-20
2.76513e-21
2.11634e-21
4.27126e-20
6.97691e-19
1.03635e-17
1.42528e-16
1.83107e-15
2.22206e-14
2.64264e-13
2.54285e-12
1.48206e-11
7.77608e-11
5.51393e-10
4.07761e-09
2.83135e-08
1.83227e-07
6.26707e-07
2.20463e-06
7.91108e-06
7.05586e-06
1.20469e-06
1.77788e-07
1.14439e-08
1.51559e-10
3.37877e-11
1.30253e-12
5.4167e-11
3.2699e-10
4.51387e-09
2.88315e-08
9.93975e-08
1.03903e-07
5.4724e-08
1.71681e-08
4.28304e-09
8.84219e-10
1.71842e-10
4.34857e-11
1.03675e-11
1.38434e-12
1.2746e-13
1.11264e-14
9.19616e-16
7.37071e-17
5.65703e-18
4.11276e-19
2.81717e-20
1.74055e-21
2.8324e-22
2.74165e-21
4.21127e-20
6.44228e-19
8.78088e-18
9.29406e-17
8.28264e-16
6.65661e-15
4.56293e-14
2.52585e-13
1.26042e-12
5.45705e-12
1.98968e-11
2.36544e-11
8.29498e-12
1.19489e-08
1.64901e-05
1.64983e-05