/*--------------------------------*- C++ -*----------------------------------*\
| =========                 |                                                 |
| \\      /  F ield         | OpenFOAM: The Open Source CFD Toolbox           |
|  \\    /   O peration     | Version:  2412                                  |
|   \\  /    A nd           | Website:  www.openfoam.com                      |
|    \\/     M anipulation  |                                                 |
\*---------------------------------------------------------------------------*/
FoamFile
{
    version     2.0;
    format      ascii;
    arch        "LSB;label=32;scalar=64";
    class       surfaceScalarField;
    location    "65";
    object      alphaPhi0.lava;
}
// * * * * * * * * * * * * * * * * * * * * * * * * * * * * * * * * * * * * * //

dimensions      [0 3 -1 0 0 0 0];

oriented        oriented;

internalField   nonuniform List<scalar> 
12640
(
-1.44647e-08
1.4699e-08
-3.53776e-08
2.54799e-08
-5.10426e-08
2.14193e-08
-5.41514e-08
8.66976e-09
-3.99812e-08
-8.03776e-09
-7.39526e-09
-2.60341e-08
4.30752e-08
-4.46351e-08
1.10974e-07
-6.17026e-08
1.95061e-07
-7.77927e-08
2.90657e-07
-9.21121e-08
3.98874e-07
-1.04671e-07
5.18568e-07
-1.14862e-07
6.44921e-07
-1.24461e-07
7.78637e-07
-1.31715e-07
9.19071e-07
-1.3629e-07
1.05843e-06
-1.40365e-07
1.20585e-06
-1.4073e-07
1.35846e-06
-1.4603e-07
1.49276e-06
-1.48682e-07
1.63887e-06
-1.47619e-07
1.77742e-06
-1.43354e-07
1.95614e-06
-1.40586e-07
2.09344e-06
-1.3764e-07
2.22833e-06
-1.35205e-07
2.36783e-06
-1.31165e-07
2.47472e-06
-1.20777e-07
2.58241e-06
-1.08416e-07
2.68034e-06
-9.8657e-08
2.76821e-06
-8.85711e-08
2.83911e-06
-7.17176e-08
2.90184e-06
-5.38855e-08
2.92908e-06
-3.71308e-08
2.85973e-06
-1.94972e-08
2.93543e-06
-3.90545e-09
2.89282e-06
1.75685e-08
2.86492e-06
4.33676e-08
2.79189e-06
6.47948e-08
2.69972e-06
8.39899e-08
2.62201e-06
1.09645e-07
2.44249e-06
1.32219e-07
2.28085e-06
1.47963e-07
2.1055e-06
1.63446e-07
1.91516e-06
1.7862e-07
1.7282e-06
1.88886e-07
1.50575e-06
1.9764e-07
1.27135e-06
2.06466e-07
1.03865e-06
2.12879e-07
8.03743e-07
2.16479e-07
5.6677e-07
2.1698e-07
3.31681e-07
2.15065e-07
1.01884e-07
2.10308e-07
-1.19185e-07
2.03404e-07
-3.30819e-07
1.93902e-07
-5.29357e-07
1.87732e-07
-7.13847e-07
1.73685e-07
-8.78085e-07
1.58201e-07
-1.01673e-06
1.36145e-07
-1.15645e-06
1.15353e-07
-1.26253e-06
9.47513e-08
-1.34659e-06
7.21886e-08
-1.40567e-06
4.77508e-08
-1.43926e-06
2.32102e-08
-1.43034e-06
-2.46712e-09
-1.40883e-06
-2.71749e-08
-1.33819e-06
-5.30092e-08
-1.28008e-06
-7.6924e-08
-1.19333e-06
-9.66257e-08
-1.07828e-06
-1.16709e-07
-9.46329e-07
-1.33526e-07
-8.03858e-07
-1.44047e-07
-6.53064e-07
-1.4662e-07
-5.04932e-07
-1.45468e-07
-3.62897e-07
-1.40222e-07
-2.3478e-07
-1.26301e-07
-1.25352e-07
-1.08187e-07
-4.31241e-08
-8.23648e-08
8.73178e-09
-5.35593e-08
2.8026e-08
-2.11285e-08
1.8738e-08
6.42167e-09
1.71057e-08
-2.04105e-08
4.05502e-08
-4.57337e-08
5.96225e-08
-5.28713e-08
3.75914e-08
-2.58146e-08
-8.29992e-09
4.26032e-08
-6.67128e-08
1.56768e-07
-1.31426e-07
3.148e-07
-1.95735e-07
5.17884e-07
-2.57665e-07
7.67171e-07
-3.15101e-07
1.05075e-06
-3.67041e-07
1.34644e-06
-4.13772e-07
1.68033e-06
-4.5171e-07
2.04531e-06
-4.86237e-07
2.45378e-06
-5.13382e-07
2.85205e-06
-5.27669e-07
3.2633e-06
-5.44726e-07
3.6853e-06
-5.55928e-07
4.10846e-06
-5.63974e-07
4.53317e-06
-5.68656e-07
4.92092e-06
-5.62352e-07
5.33115e-06
-5.52765e-07
5.73403e-06
-5.426e-07
6.17206e-06
-5.29266e-07
6.38529e-06
-5.15541e-07
6.81071e-06
-4.88108e-07
7.14404e-06
-4.54335e-07
7.44711e-06
-4.11925e-07
7.71605e-06
-3.70264e-07
7.9523e-06
-3.25642e-07
8.14908e-06
-2.63085e-07
8.30908e-06
-1.9897e-07
8.39454e-06
-1.32657e-07
8.42738e-06
-6.23603e-08
8.4051e-06
8.16626e-09
8.07048e-06
8.84923e-08
8.12139e-06
1.72891e-07
7.92262e-06
2.55456e-07
7.63124e-06
3.35824e-07
7.26713e-06
4.23577e-07
6.9418e-06
5.0623e-07
6.49891e-06
5.75019e-07
5.87836e-06
6.28087e-07
5.50184e-06
6.94896e-07
4.96711e-06
7.21528e-07
4.24189e-06
7.62545e-07
3.6183e-06
7.92572e-07
3.00408e-06
8.14367e-07
2.35227e-06
8.27822e-07
1.68978e-06
8.30908e-07
1.03338e-06
8.23176e-07
3.93398e-07
8.05473e-07
-2.23568e-07
7.80019e-07
-8.1381e-07
7.44755e-07
-1.37465e-06
7.00398e-07
-1.8836e-06
6.71856e-07
-2.35878e-06
6.0304e-07
-2.72153e-06
5.25757e-07
-3.10827e-06
4.48259e-07
-3.44333e-06
3.67497e-07
-3.6741e-06
2.91092e-07
-3.83939e-06
2.01064e-07
-3.92095e-06
1.05636e-07
-3.9408e-06
1.03964e-08
-3.88768e-06
-8.59544e-08
-3.78764e-06
-1.78248e-07
-3.59027e-06
-2.71377e-07
-3.34247e-06
-3.49776e-07
-3.03807e-06
-4.2278e-07
-2.67381e-06
-4.71461e-07
-2.31602e-06
-5.14636e-07
-1.93396e-06
-5.3584e-07
-1.54117e-06
-5.38728e-07
-1.16384e-06
-5.16991e-07
-8.15701e-07
-4.75025e-07
-5.17507e-07
-4.09736e-07
-2.78596e-07
-3.26596e-07
-1.11635e-07
-2.26353e-07
-1.74638e-08
-1.21293e-07
9.64549e-09
-2.55276e-08
2.41951e-08
-1.33347e-08
5.91736e-08
-1.79031e-08
7.27498e-08
1.09896e-08
1.71971e-08
8.94736e-08
-7.91009e-08
2.28382e-07
-1.98857e-07
4.35396e-07
-3.30624e-07
7.09782e-07
-4.63164e-07
1.04634e-06
-5.90301e-07
1.44852e-06
-7.09862e-07
1.92427e-06
-8.14118e-07
2.41086e-06
-9.15348e-07
2.93332e-06
-9.90577e-07
3.48349e-06
-1.05477e-06
4.13341e-06
-1.11885e-06
4.76746e-06
-1.15442e-06
5.4241e-06
-1.187e-06
6.08532e-06
-1.21063e-06
6.75078e-06
-1.22397e-06
7.40997e-06
-1.22537e-06
8.01205e-06
-1.20724e-06
8.66554e-06
-1.20535e-06
9.33648e-06
-1.17772e-06
9.95227e-06
-1.1446e-06
1.05426e-05
-1.10527e-06
1.09907e-05
-1.0378e-06
1.1506e-05
-9.69249e-07
1.20514e-05
-8.69123e-07
1.24714e-05
-7.91155e-07
1.27496e-05
-6.85072e-07
1.30659e-05
-5.51556e-07
1.32719e-05
-4.14821e-07
1.33988e-05
-2.699e-07
1.34431e-05
-1.16956e-07
1.3397e-05
4.41033e-08
1.29046e-05
2.19369e-07
1.26618e-05
4.00584e-07
1.25343e-05
5.95679e-07
1.21072e-05
7.46876e-07
1.16905e-05
9.44589e-07
1.10834e-05
1.09745e-06
1.03823e-05
1.26034e-06
9.50637e-06
1.3952e-06
8.65003e-06
1.52038e-06
7.82549e-06
1.59274e-06
6.84801e-06
1.71094e-06
5.81779e-06
1.77807e-06
4.82582e-06
1.76184e-06
3.82072e-06
1.78404e-06
2.77098e-06
1.79315e-06
1.74155e-06
1.78004e-06
7.49344e-07
1.74248e-06
-2.22238e-07
1.68992e-06
-1.1518e-06
1.61744e-06
-2.01297e-06
1.5083e-06
-2.83865e-06
1.42751e-06
-3.58891e-06
1.29459e-06
-4.23913e-06
1.18369e-06
-4.81219e-06
9.71866e-07
-5.29413e-06
7.98648e-07
-5.62894e-06
6.22457e-07
-5.88991e-06
4.46706e-07
-6.04987e-06
2.50128e-07
-6.01094e-06
4.38651e-08
-5.97438e-06
-1.5948e-07
-5.91462e-06
-3.5524e-07
-5.63118e-06
-5.53424e-07
-5.26274e-06
-7.23232e-07
-4.78623e-06
-8.63117e-07
-4.27971e-06
-9.89661e-07
-3.73768e-06
-1.08085e-06
-3.15666e-06
-1.13313e-06
-2.56247e-06
-1.1403e-06
-1.98078e-06
-1.10307e-06
-1.44511e-06
-1.018e-06
-9.75144e-07
-8.91836e-07
-5.90084e-07
-7.24826e-07
-2.98979e-07
-5.29862e-07
-1.10457e-07
-3.19739e-07
-1.68825e-08
-1.25957e-07
2.92803e-09
3.17128e-10
6.36906e-08
2.96954e-08
5.17587e-08
1.0805e-07
-5.38861e-08
2.52061e-07
-2.17602e-07
4.73326e-07
-4.16046e-07
7.76646e-07
-6.31117e-07
1.16083e-06
-8.4732e-07
1.63252e-06
-1.05586e-06
2.20823e-06
-1.25349e-06
2.81695e-06
-1.42607e-06
3.4628e-06
-1.5767e-06
4.17445e-06
-1.72327e-06
4.98947e-06
-1.81664e-06
5.78972e-06
-1.89205e-06
6.62628e-06
-1.98317e-06
7.48332e-06
-2.03626e-06
8.34745e-06
-2.06696e-06
9.2166e-06
-2.08671e-06
1.00419e-05
-2.09443e-06
1.09076e-05
-2.09142e-06
1.18297e-05
-2.06252e-06
1.2666e-05
-2.01347e-06
1.34731e-05
-1.95092e-06
1.42439e-05
-1.87617e-06
1.48042e-05
-1.78344e-06
1.5473e-05
-1.63759e-06
1.61865e-05
-1.46362e-06
1.67323e-05
-1.33781e-06
1.71911e-05
-1.14486e-06
1.74347e-05
-9.10934e-07
1.76979e-05
-6.88535e-07
1.78597e-05
-4.42001e-07
1.79108e-05
-1.78404e-07
1.78417e-05
1.02975e-07
1.74109e-05
4.0007e-07
1.7096e-05
6.99823e-07
1.66737e-05
1.0023e-06
1.61523e-05
1.25285e-06
1.55921e-05
1.57397e-06
1.47788e-05
1.8946e-06
1.3667e-05
2.14462e-06
1.2434e-05
2.40132e-06
1.14094e-05
2.6027e-06
1.02472e-05
2.7451e-06
9.05092e-06
2.89701e-06
7.78144e-06
3.03563e-06
6.53602e-06
3.10967e-06
5.12623e-06
3.15572e-06
3.81069e-06
3.16574e-06
2.48035e-06
3.11544e-06
1.13842e-06
2.96921e-06
-1.4529e-07
2.87234e-06
-1.36315e-06
2.73728e-06
-2.45963e-06
2.65643e-06
-3.58515e-06
2.48291e-06
-4.60133e-06
2.25125e-06
-5.51924e-06
1.94029e-06
-6.16851e-06
1.72707e-06
-6.57765e-06
1.41679e-06
-7.01921e-06
1.12235e-06
-7.45414e-06
8.0782e-07
-7.73542e-06
4.60405e-07
-7.91696e-06
1.00769e-07
-7.94564e-06
-2.46659e-07
-7.7531e-06
-5.8925e-07
-7.36297e-06
-8.95812e-07
-6.9348e-06
-1.19415e-06
-6.38775e-06
-1.44208e-06
-5.71539e-06
-1.64965e-06
-5.00926e-06
-1.80803e-06
-4.27246e-06
-1.89946e-06
-3.51457e-06
-1.9216e-06
-2.76946e-06
-1.86579e-06
-2.06723e-06
-1.73667e-06
-1.44304e-06
-1.53394e-06
-9.16845e-07
-1.27145e-06
-5.05899e-07
-9.60332e-07
-2.13726e-07
-6.2338e-07
-4.82981e-08
-3.00676e-07
-5.18683e-08
1.6685e-08
5.16257e-08
8.49284e-08
-8.72279e-09
2.19192e-07
-1.8211e-07
4.34028e-07
-4.28927e-07
7.40814e-07
-7.19757e-07
1.14447e-06
-1.03249e-06
1.64097e-06
-1.34681e-06
2.2377e-06
-1.6494e-06
2.94171e-06
-1.93474e-06
3.68663e-06
-2.19245e-06
4.48176e-06
-2.42236e-06
5.39522e-06
-2.60339e-06
6.36277e-06
-2.73615e-06
7.33673e-06
-2.88269e-06
8.35081e-06
-2.98917e-06
9.3763e-06
-3.05397e-06
1.03932e-05
-3.10178e-06
1.14472e-05
-3.1467e-06
1.25503e-05
-3.15372e-06
1.35972e-05
-3.13613e-06
1.4627e-05
-3.09075e-06
1.56323e-05
-3.01779e-06
1.66017e-05
-2.91243e-06
1.7522e-05
-2.79671e-06
1.8389e-05
-2.65033e-06
1.89962e-05
-2.46834e-06
1.98548e-05
-2.21719e-06
2.04909e-05
-1.9756e-06
2.10309e-05
-1.68619e-06
2.1202e-05
-1.36125e-06
2.15191e-05
-1.01704e-06
2.18681e-05
-6.41359e-07
2.19153e-05
-2.36526e-07
2.18197e-05
1.87858e-07
2.15717e-05
6.37152e-07
2.11623e-05
1.09814e-06
2.06007e-05
1.55188e-06
1.92393e-05
1.98624e-06
1.84865e-05
2.34183e-06
1.76906e-05
2.8168e-06
1.66466e-05
3.1991e-06
1.55525e-05
3.52731e-06
1.42505e-05
3.94221e-06
1.26085e-05
4.17354e-06
1.10986e-05
4.39586e-06
9.54337e-06
4.57877e-06
7.94528e-06
4.69519e-06
6.32338e-06
4.76356e-06
4.71048e-06
4.77473e-06
3.10568e-06
4.71464e-06
1.5091e-06
4.61707e-06
-1.21786e-08
4.46984e-06
-1.46072e-06
4.25667e-06
-2.81233e-06
4.08095e-06
-4.09019e-06
3.8352e-06
-5.2574e-06
3.41161e-06
-6.36112e-06
3.0329e-06
-7.24351e-06
2.60788e-06
-8.00958e-06
2.18364e-06
-8.5078e-06
1.72859e-06
-9.04608e-06
1.22289e-06
-9.36651e-06
7.10176e-07
-9.36024e-06
1.856e-07
-9.3923e-06
-3.34089e-07
-9.27278e-06
-8.29373e-07
-8.80997e-06
-1.29449e-06
-8.30825e-06
-1.73857e-06
-7.71595e-06
-2.11915e-06
-6.9713e-06
-2.43031e-06
-6.13792e-06
-2.66573e-06
-5.26091e-06
-2.80984e-06
-4.3667e-06
-2.84805e-06
-3.48115e-06
-2.78112e-06
-2.64164e-06
-2.60168e-06
-1.88003e-06
-2.32225e-06
-1.23052e-06
-1.9509e-06
-6.9953e-07
-1.50891e-06
-3.12713e-07
-1.02519e-06
-7.66674e-08
-5.48424e-07
-1.37e-07
3.30471e-08
2.31079e-08
1.40374e-07
-1.09306e-07
3.30238e-07
-3.67861e-07
6.15733e-07
-7.12627e-07
1.00424e-06
-1.10876e-06
1.50394e-06
-1.53093e-06
2.10773e-06
-1.9536e-06
2.81329e-06
-2.35929e-06
3.62e-06
-2.7396e-06
4.49577e-06
-3.08689e-06
5.48585e-06
-3.33035e-06
6.59033e-06
-3.59685e-06
7.61194e-06
-3.83118e-06
8.74342e-06
-4.0059e-06
9.89953e-06
-4.1369e-06
1.10412e-05
-4.25791e-06
1.22329e-05
-4.30763e-06
1.35008e-05
-4.35115e-06
1.47176e-05
-4.36801e-06
1.59004e-05
-4.31668e-06
1.70542e-05
-4.24279e-06
1.81713e-05
-4.13268e-06
1.92427e-05
-3.99758e-06
2.03682e-05
-3.86233e-06
2.1354e-05
-3.63682e-06
2.22606e-05
-3.3758e-06
2.30809e-05
-3.07321e-06
2.34556e-05
-2.7178e-06
2.43062e-05
-2.34577e-06
2.47967e-05
-1.85822e-06
2.51461e-05
-1.37326e-06
2.53517e-05
-8.53526e-07
2.50149e-05
-2.99965e-07
2.5143e-05
2.89707e-07
2.4854e-05
9.1502e-07
2.42527e-05
1.53578e-06
2.31954e-05
2.10934e-06
2.24402e-05
2.73904e-06
2.1547e-05
3.3331e-06
2.04774e-05
3.88613e-06
1.91899e-05
4.45357e-06
1.78061e-05
4.91456e-06
1.6159e-05
5.36788e-06
1.45709e-05
5.75066e-06
1.28704e-05
6.08639e-06
1.11003e-05
6.33629e-06
9.27355e-06
6.5089e-06
7.41878e-06
6.60402e-06
5.55746e-06
6.62067e-06
3.71383e-06
6.5506e-06
1.90494e-06
6.41534e-06
1.52789e-07
6.21006e-06
-1.52434e-06
5.92008e-06
-3.08852e-06
5.64824e-06
-4.57946e-06
5.26982e-06
-5.92336e-06
4.75011e-06
-7.10728e-06
4.2131e-06
-8.14039e-06
3.63753e-06
-8.76985e-06
3.069e-06
-9.53337e-06
2.4495e-06
-1.02124e-05
1.70389e-06
-1.06706e-05
1.0155e-06
-1.06654e-05
2.99196e-07
-1.06159e-05
-4.11743e-07
-1.04769e-05
-1.10041e-06
-1.01227e-05
-1.74346e-06
-9.51928e-06
-2.33529e-06
-8.81305e-06
-2.86581e-06
-8.00907e-06
-3.30341e-06
-7.09881e-06
-3.63547e-06
-6.11597e-06
-3.83839e-06
-5.10046e-06
-3.90224e-06
-4.09569e-06
-3.81854e-06
-3.13642e-06
-3.59493e-06
-2.26259e-06
-3.2316e-06
-1.49755e-06
-2.74682e-06
-8.68982e-07
-2.16005e-06
-3.96175e-07
-1.51518e-06
-1.01741e-07
-8.56904e-07
-2.48718e-07
4.81124e-08
-2.03624e-08
1.91529e-07
-2.4659e-07
4.33013e-07
-6.08013e-07
7.82518e-07
-1.06279e-06
1.24891e-06
-1.57768e-06
1.83594e-06
-2.11972e-06
2.53565e-06
-2.65975e-06
3.33574e-06
-3.17401e-06
4.24026e-06
-3.65311e-06
5.26678e-06
-4.08676e-06
6.37408e-06
-4.4098e-06
7.65724e-06
-4.72479e-06
8.739e-06
-5.10777e-06
9.96411e-06
-5.22259e-06
1.11304e-05
-5.35254e-06
1.26212e-05
-5.51694e-06
1.3893e-05
-5.61924e-06
1.52193e-05
-5.67476e-06
1.65118e-05
-5.65774e-06
1.77673e-05
-5.59582e-06
1.90215e-05
-5.51058e-06
2.02654e-05
-5.3903e-06
2.14673e-05
-5.21292e-06
2.27596e-05
-5.08526e-06
2.38161e-05
-4.69427e-06
2.4802e-05
-4.36261e-06
2.56975e-05
-3.96964e-06
2.56872e-05
-3.50931e-06
2.69987e-05
-2.95302e-06
2.75458e-05
-2.41164e-06
2.79195e-05
-1.75356e-06
2.81353e-05
-1.07608e-06
2.75416e-05
-3.51788e-07
2.74079e-05
4.13138e-07
2.71098e-05
1.20277e-06
2.64863e-05
2.02764e-06
2.57518e-05
2.83575e-06
2.48857e-05
3.5959e-06
2.38457e-05
4.35847e-06
2.2634e-05
5.10947e-06
2.12371e-05
5.86503e-06
1.96983e-05
6.45297e-06
1.80275e-05
7.023e-06
1.6242e-05
7.52611e-06
1.43628e-05
7.94793e-06
1.24075e-05
8.27406e-06
1.03974e-05
8.50136e-06
8.35587e-06
8.62754e-06
6.30772e-06
8.65065e-06
4.27294e-06
8.56988e-06
2.28414e-06
8.39309e-06
3.4941e-07
8.13388e-06
-1.51575e-06
7.76052e-06
-3.26685e-06
7.41484e-06
-4.85945e-06
6.87958e-06
-6.33121e-06
6.21851e-06
-7.64686e-06
5.5253e-06
-8.78224e-06
4.77184e-06
-9.73038e-06
4.02003e-06
-1.04323e-05
3.2386e-06
-1.09737e-05
2.32007e-06
-1.14679e-05
1.35707e-06
-1.17761e-05
4.33945e-07
-1.17113e-05
-4.85873e-07
-1.14746e-05
-1.37329e-06
-1.10869e-05
-2.21631e-06
-1.04909e-05
-2.98755e-06
-9.72576e-06
-3.67155e-06
-8.84782e-06
-4.24881e-06
-7.86799e-06
-4.68459e-06
-6.80531e-06
-4.95978e-06
-5.69845e-06
-5.0575e-06
-4.59392e-06
-4.96668e-06
-3.54137e-06
-4.69677e-06
-2.56957e-06
-4.2421e-06
-1.71419e-06
-3.6315e-06
-1.00151e-06
-2.89682e-06
-4.62825e-07
-2.07277e-06
-1.19581e-07
-1.21651e-06
-3.79524e-07
6.06935e-08
-7.63072e-08
2.35184e-07
-4.16269e-07
5.22087e-07
-8.95854e-07
9.27622e-07
-1.47411e-06
1.46298e-06
-2.11863e-06
2.1297e-06
-2.7931e-06
2.91123e-06
-3.45548e-06
3.79139e-06
-4.08552e-06
4.82387e-06
-4.67225e-06
6.04955e-06
-5.16113e-06
7.13913e-06
-5.61177e-06
8.33083e-06
-5.95595e-06
9.53115e-06
-6.35004e-06
1.0928e-05
-6.49876e-06
1.22755e-05
-6.71951e-06
1.38003e-05
-6.81391e-06
1.52347e-05
-7.0515e-06
1.66293e-05
-7.06682e-06
1.79431e-05
-7.05249e-06
1.93256e-05
-6.99246e-06
2.06874e-05
-6.88649e-06
2.20719e-05
-6.71377e-06
2.3341e-05
-6.48551e-06
2.45502e-05
-6.29682e-06
2.57358e-05
-5.82844e-06
2.68048e-05
-5.43251e-06
2.77486e-05
-4.9144e-06
2.81748e-05
-4.37804e-06
2.88323e-05
-3.61893e-06
2.96513e-05
-2.89446e-06
3.00083e-05
-2.11677e-06
3.0221e-05
-1.29535e-06
2.96658e-05
-3.93582e-07
2.95181e-05
5.50461e-07
2.91778e-05
1.53263e-06
2.86628e-05
2.53219e-06
2.77388e-05
3.70741e-06
2.67463e-05
4.57384e-06
2.56328e-05
5.48389e-06
2.43501e-05
6.43098e-06
2.29143e-05
7.31276e-06
2.12577e-05
8.09613e-06
1.94686e-05
8.79859e-06
1.75508e-05
9.41915e-06
1.55424e-05
9.93876e-06
1.34531e-05
1.03457e-05
1.13059e-05
1.0631e-05
9.12525e-06
1.07891e-05
6.93259e-06
1.08177e-05
4.76803e-06
1.07214e-05
2.64176e-06
1.05079e-05
5.79406e-07
1.01851e-05
-1.39811e-06
9.72705e-06
-3.29948e-06
9.1014e-06
-5.00746e-06
8.60087e-06
-6.56787e-06
7.8492e-06
-7.97091e-06
6.92623e-06
-9.24115e-06
6.04256e-06
-1.01856e-05
4.97465e-06
-1.12386e-05
4.01386e-06
-1.1771e-05
2.94312e-06
-1.20726e-05
1.76978e-06
-1.23843e-05
5.9334e-07
-1.24548e-05
-5.51732e-07
-1.22392e-05
-1.65468e-06
-1.18043e-05
-2.70376e-06
-1.11836e-05
-3.66944e-06
-1.03989e-05
-4.52826e-06
-9.47555e-06
-5.24669e-06
-8.4317e-06
-5.79662e-06
-7.31035e-06
-6.15976e-06
-6.1384e-06
-6.28578e-06
-4.96676e-06
-6.18557e-06
-3.83557e-06
-5.86182e-06
-2.79317e-06
-5.32054e-06
-1.86778e-06
-4.58807e-06
-1.09687e-06
-3.69252e-06
-5.0733e-07
-2.68387e-06
-1.33001e-07
-1.60898e-06
-5.24094e-07
7.06083e-08
-1.41929e-07
2.7022e-07
-6.12526e-07
5.94498e-07
-1.2221e-06
1.04942e-06
-1.93527e-06
1.64578e-06
-2.72514e-06
2.37619e-06
-3.51028e-06
3.23219e-06
-4.13255e-06
4.21206e-06
-4.83174e-06
5.3452e-06
-5.48698e-06
6.5587e-06
-6.32778e-06
7.73228e-06
-6.89252e-06
8.95002e-06
-7.36363e-06
1.03293e-05
-7.73675e-06
1.1748e-05
-7.92753e-06
1.31938e-05
-8.18198e-06
1.4802e-05
-8.37123e-06
1.62563e-05
-8.5033e-06
1.75956e-05
-8.73025e-06
1.91262e-05
-8.66058e-06
2.05917e-05
-8.43258e-06
2.20094e-05
-8.30542e-06
2.33718e-05
-8.07706e-06
2.46324e-05
-7.74837e-06
2.5471e-05
-7.43689e-06
2.68581e-05
-6.92882e-06
2.81127e-05
-6.47004e-06
2.91094e-05
-5.91219e-06
2.95383e-05
-5.19902e-06
3.01847e-05
-4.27259e-06
3.07413e-05
-3.45835e-06
3.11373e-05
-2.52014e-06
3.04652e-05
-1.54099e-06
3.11789e-05
-4.2414e-07
3.10139e-05
7.05106e-07
3.06511e-05
1.88491e-06
3.00837e-05
3.08917e-06
2.91587e-05
4.35785e-06
2.81854e-05
5.6665e-06
2.69644e-05
6.69073e-06
2.56253e-05
7.78196e-06
2.40783e-05
8.85883e-06
2.23629e-05
9.80717e-06
2.04992e-05
1.06477e-05
1.85084e-05
1.13955e-05
1.64132e-05
1.20186e-05
1.42356e-05
1.25043e-05
1.19979e-05
1.28534e-05
9.72653e-06
1.3045e-05
7.44928e-06
1.30803e-05
5.19241e-06
1.29644e-05
2.97922e-06
1.27097e-05
8.38058e-07
1.29309e-05
-1.21783e-06
1.17718e-05
-3.1671e-06
1.11226e-05
-5.06015e-06
1.01983e-05
-6.71285e-06
9.51765e-06
-8.23695e-06
8.52211e-06
-9.12947e-06
7.48583e-06
-1.03054e-05
6.24391e-06
-1.14138e-05
4.83969e-06
-1.22289e-05
3.57089e-06
-1.25974e-05
2.20241e-06
-1.27881e-05
7.8225e-07
-1.28524e-05
-5.9983e-07
-1.26665e-05
-1.93102e-06
-1.22392e-05
-3.19465e-06
-1.16172e-05
-4.36455e-06
-1.0821e-05
-5.4054e-06
-9.86751e-06
-6.27717e-06
-8.80053e-06
-6.9463e-06
-7.6239e-06
-7.37101e-06
-6.40889e-06
-7.53855e-06
-5.19064e-06
-7.44181e-06
-4.01829e-06
-7.07355e-06
-2.92673e-06
-6.44849e-06
-1.9604e-06
-5.58523e-06
-1.1497e-06
-4.52982e-06
-5.33185e-07
-3.32343e-06
-1.38412e-07
-2.02153e-06
-6.73311e-07
7.75004e-08
-2.14536e-07
2.96842e-07
-8.29216e-07
6.50428e-07
-1.58104e-06
1.14591e-06
-2.44289e-06
1.77245e-06
-3.35494e-06
2.58423e-06
-4.14194e-06
3.47937e-06
-5.015e-06
4.49565e-06
-5.83315e-06
5.60711e-06
-6.58686e-06
6.93016e-06
-7.26379e-06
8.17381e-06
-7.85692e-06
9.67229e-06
-8.36952e-06
1.10151e-05
-9.08596e-06
1.24707e-05
-9.37194e-06
1.3941e-05
-9.63997e-06
1.54224e-05
-9.8404e-06
1.69375e-05
-9.80611e-06
1.85119e-05
-9.86582e-06
1.99767e-05
-1.01279e-05
2.1426e-05
-9.88307e-06
2.28107e-05
-9.69054e-06
2.40085e-05
-9.34666e-06
2.49961e-05
-9.01354e-06
2.63337e-05
-8.45526e-06
2.776e-05
-8.05292e-06
2.88727e-05
-7.29595e-06
2.93871e-05
-6.78481e-06
3.02827e-05
-5.77862e-06
3.11074e-05
-5.10484e-06
3.17129e-05
-4.07104e-06
3.21048e-05
-2.9194e-06
3.26049e-05
-1.71144e-06
3.22025e-05
-4.60456e-07
3.20108e-05
8.9599e-07
3.24124e-05
2.3421e-06
3.16491e-05
3.8358e-06
3.06737e-05
5.28136e-06
2.90298e-05
6.73568e-06
2.77746e-05
7.93822e-06
2.65134e-05
9.26684e-06
2.49713e-05
1.09599e-05
2.31134e-05
1.20291e-05
2.11541e-05
1.25925e-05
1.91217e-05
1.34129e-05
1.69832e-05
1.41415e-05
1.47615e-05
1.47113e-05
1.24811e-05
1.51196e-05
1.01674e-05
1.5344e-05
7.84691e-06
1.53857e-05
5.54574e-06
1.52511e-05
3.29316e-06
1.49495e-05
1.11626e-06
1.50741e-05
-9.778e-07
1.44972e-05
-2.88525e-06
1.32429e-05
-4.76105e-06
1.23146e-05
-6.62139e-06
1.0976e-05
-8.17214e-06
1.00501e-05
-9.48555e-06
8.77983e-06
-1.02837e-05
7.41052e-06
-1.12931e-05
5.8151e-06
-1.21254e-05
4.2188e-06
-1.27006e-05
2.63672e-06
-1.29352e-05
9.92815e-07
-1.29714e-05
-6.27893e-07
-1.27904e-05
-2.19114e-06
-1.23809e-05
-3.6813e-06
-1.17709e-05
-5.05936e-06
-1.09769e-05
-6.28994e-06
-1.00173e-05
-7.3016e-06
-8.92213e-06
-8.08226e-06
-7.74135e-06
-8.59507e-06
-6.51148e-06
-8.81458e-06
-5.28032e-06
-8.71815e-06
-4.08511e-06
-8.3107e-06
-2.97533e-06
-7.59512e-06
-1.98756e-06
-6.6058e-06
-1.16495e-06
-5.38112e-06
-5.35959e-07
-3.97338e-06
-1.39961e-07
-2.43408e-06
-8.22346e-07
8.20795e-08
-2.92048e-07
3.16956e-07
-1.06357e-06
6.979e-07
-1.97171e-06
1.21876e-06
-2.99209e-06
1.94282e-06
-3.94043e-06
2.76662e-06
-4.96349e-06
3.71932e-06
-5.95344e-06
4.77853e-06
-6.88077e-06
5.93111e-06
-7.72965e-06
7.16385e-06
-8.4869e-06
8.46601e-06
-9.14933e-06
9.82314e-06
-9.71696e-06
1.16332e-05
-1.01959e-05
1.29351e-05
-1.05826e-05
1.43197e-05
-1.10123e-05
1.56456e-05
-1.10614e-05
1.70332e-05
-1.11853e-05
1.86362e-05
-1.1241e-05
2.0563e-05
-1.12167e-05
2.15555e-05
-1.10914e-05
2.2766e-05
-1.09342e-05
2.41378e-05
-1.03843e-05
2.57235e-05
-1.02133e-05
2.72615e-05
-9.66421e-06
2.81237e-05
-9.207e-06
2.91865e-05
-8.4182e-06
3.01616e-05
-7.79978e-06
3.15498e-05
-6.70845e-06
3.20318e-05
-5.75548e-06
3.19353e-05
-4.57825e-06
3.28499e-05
-3.2733e-06
3.36804e-05
-1.92273e-06
3.33571e-05
-4.74743e-07
3.28428e-05
1.10687e-06
3.23799e-05
2.77067e-06
3.13544e-05
4.45049e-06
3.04745e-05
6.12853e-06
2.97256e-05
7.84868e-06
2.86559e-05
9.53411e-06
2.73712e-05
1.11328e-05
2.55283e-05
1.26121e-05
2.3411e-05
1.39707e-05
2.1172e-05
1.51571e-05
1.91256e-05
1.61362e-05
1.72763e-05
1.6945e-05
1.50411e-05
1.69322e-05
1.28674e-05
1.81732e-05
1.05212e-05
1.85079e-05
8.14234e-06
1.77499e-05
5.84455e-06
1.7535e-05
3.70589e-06
1.79738e-05
1.46559e-06
1.74245e-05
-6.62752e-07
1.67653e-05
-2.66594e-06
1.57097e-05
-4.38893e-06
1.44568e-05
-5.97131e-06
1.30714e-05
-7.82017e-06
1.15482e-05
-9.12279e-06
1.01056e-05
-1.03086e-05
8.6239e-06
-1.10757e-05
6.81721e-06
-1.18265e-05
4.94965e-06
-1.24107e-05
3.09597e-06
-1.27269e-05
1.22178e-06
-1.27895e-05
-6.33485e-07
-1.26298e-05
-2.43248e-06
-1.22473e-05
-4.15344e-06
-1.16528e-05
-5.72648e-06
-1.08563e-05
-7.12146e-06
-9.90798e-06
-8.29686e-06
-8.83854e-06
-9.20455e-06
-7.67478e-06
-9.81222e-06
-6.46016e-06
-1.00791e-05
-5.23477e-06
-9.99242e-06
-4.04764e-06
-9.53966e-06
-2.93869e-06
-8.74146e-06
-1.95865e-06
-7.61938e-06
-1.13877e-06
-6.22743e-06
-5.2141e-07
-4.60813e-06
-1.33049e-07
-2.83624e-06
-9.63608e-07
8.51577e-08
-3.72494e-07
3.35107e-07
-1.31543e-06
7.40468e-07
-2.38902e-06
1.34251e-06
-3.503e-06
2.07323e-06
-4.66083e-06
2.94822e-06
-5.82705e-06
3.93927e-06
-6.93502e-06
5.03117e-06
-7.95858e-06
6.20945e-06
-8.89634e-06
7.4607e-06
-9.72836e-06
8.77135e-06
-1.04505e-05
1.01279e-05
-1.10638e-05
1.15198e-05
-1.15789e-05
1.29368e-05
-1.19899e-05
1.43742e-05
-1.23356e-05
1.58152e-05
-1.2494e-05
1.72614e-05
-1.26234e-05
1.87006e-05
-1.26718e-05
2.01193e-05
-1.26255e-05
2.15586e-05
-1.25193e-05
2.29642e-05
-1.23266e-05
2.47848e-05
-1.18346e-05
2.6354e-05
-1.14922e-05
2.77218e-05
-1.10001e-05
2.86456e-05
-1.04192e-05
2.94608e-05
-9.6216e-06
3.04648e-05
-8.68991e-06
3.1513e-05
-7.63911e-06
3.22048e-05
-6.4636e-06
3.26135e-05
-5.14825e-06
3.29136e-05
-3.70151e-06
3.30207e-05
-2.13748e-06
3.2989e-05
-4.74941e-07
3.27975e-05
1.30538e-06
3.23488e-05
3.17015e-06
3.171e-05
5.06572e-06
3.09423e-05
6.98863e-06
2.99488e-05
8.90343e-06
2.8706e-05
1.07747e-05
2.72414e-05
1.2556e-05
2.55748e-05
1.42093e-05
2.37862e-05
1.57532e-05
2.18529e-05
1.71659e-05
1.97806e-05
1.83816e-05
1.76375e-05
1.93857e-05
1.54439e-05
2.01604e-05
1.31776e-05
2.07002e-05
1.08515e-05
2.09978e-05
8.53405e-06
2.10674e-05
6.25471e-06
2.08855e-05
4.01713e-06
2.04583e-05
1.84064e-06
1.97684e-05
-2.43134e-07
1.88635e-05
-2.21736e-06
1.78221e-05
-4.04101e-06
1.65429e-05
-5.67758e-06
1.50383e-05
-7.05807e-06
1.33048e-05
-8.49155e-06
1.15223e-05
-9.7232e-06
9.7193e-06
-1.06746e-05
7.76168e-06
-1.13687e-05
5.68695e-06
-1.18967e-05
3.5804e-06
-1.22085e-05
1.47305e-06
-1.23023e-05
-6.10529e-07
-1.21703e-05
-2.63767e-06
-1.17896e-05
-4.56129e-06
-1.12199e-05
-6.33874e-06
-1.0476e-05
-7.91895e-06
-9.57792e-06
-9.24902e-06
-8.5537e-06
-1.0287e-05
-7.43519e-06
-1.09855e-05
-6.25815e-06
-1.13067e-05
-5.06946e-06
-1.12249e-05
-3.91e-06
-1.07369e-05
-2.83166e-06
-9.85333e-06
-1.87351e-06
-8.60695e-06
-1.081e-06
-7.03923e-06
-4.85887e-07
-5.21755e-06
-1.23057e-07
-3.21105e-06
-1.09353e-06
8.85008e-08
-4.56699e-07
3.56802e-07
-1.58799e-06
7.88012e-07
-2.82998e-06
1.42962e-06
-4.03036e-06
2.22227e-06
-5.43938e-06
3.13832e-06
-6.73755e-06
4.16338e-06
-7.94993e-06
5.27867e-06
-9.06037e-06
6.46981e-06
-1.0074e-05
7.72253e-06
-1.09699e-05
9.0245e-06
-1.17432e-05
1.03639e-05
-1.23943e-05
1.17329e-05
-1.29382e-05
1.31223e-05
-1.33655e-05
1.45232e-05
-1.37231e-05
1.59508e-05
-1.39119e-05
1.74148e-05
-1.40787e-05
1.89514e-05
-1.4052e-05
2.04335e-05
-1.40339e-05
2.19412e-05
-1.39193e-05
2.34921e-05
-1.37269e-05
2.48524e-05
-1.34495e-05
2.59994e-05
-1.29937e-05
2.71511e-05
-1.23763e-05
2.83336e-05
-1.1628e-05
2.93663e-05
-1.07602e-05
3.02038e-05
-9.73429e-06
3.09326e-05
-8.54168e-06
3.15675e-05
-7.19627e-06
3.20675e-05
-5.71055e-06
3.23897e-05
-4.08721e-06
3.25286e-05
-2.33243e-06
3.24754e-05
-4.6237e-07
3.22523e-05
1.51767e-06
3.18477e-05
3.57522e-06
3.12411e-05
5.67931e-06
3.04353e-05
7.79987e-06
2.94346e-05
9.90326e-06
2.82379e-05
1.19573e-05
2.68434e-05
1.39253e-05
2.52661e-05
1.57737e-05
2.35363e-05
1.74777e-05
2.16656e-05
1.90097e-05
1.96772e-05
2.03438e-05
1.75983e-05
2.1452e-05
1.54487e-05
2.23138e-05
1.32481e-05
2.29032e-05
1.10195e-05
2.32317e-05
8.7845e-06
2.33156e-05
6.5674e-06
2.31129e-05
4.39704e-06
2.26299e-05
2.2955e-06
2.19072e-05
2.79583e-07
2.09149e-05
-1.62264e-06
1.97214e-05
-3.39983e-06
1.83236e-05
-5.02851e-06
1.67166e-05
-6.4848e-06
1.49111e-05
-7.76735e-06
1.292e-05
-8.89362e-06
1.08241e-05
-9.82641e-06
8.65456e-06
-1.05525e-05
6.38631e-06
-1.10738e-05
4.05842e-06
-1.13818e-05
1.74616e-06
-1.14703e-05
-5.50679e-07
-1.13503e-05
-2.7909e-06
-1.10356e-05
-4.92311e-06
-1.05314e-05
-6.89475e-06
-9.8543e-06
-8.64894e-06
-9.02776e-06
-1.01327e-05
-8.07861e-06
-1.12939e-05
-7.02944e-06
-1.20865e-05
-5.92281e-06
-1.24568e-05
-4.79331e-06
-1.23912e-05
-3.69364e-06
-1.18692e-05
-2.66144e-06
-1.09156e-05
-1.74961e-06
-9.54269e-06
-9.93746e-07
-7.81009e-06
-4.39005e-07
-5.78526e-06
-1.05128e-07
-3.55686e-06
-1.20467e-06
9.72262e-08
-5.50652e-07
3.99323e-07
-1.90106e-06
8.98154e-07
-3.35613e-06
1.57446e-06
-4.87608e-06
2.38422e-06
-6.33761e-06
3.35803e-06
-7.70043e-06
4.42137e-06
-8.98824e-06
5.55267e-06
-1.01923e-05
6.74488e-06
-1.12537e-05
7.98553e-06
-1.21977e-05
9.26494e-06
-1.3012e-05
1.05823e-05
-1.37735e-05
1.19555e-05
-1.44644e-05
1.34271e-05
-1.49833e-05
1.49582e-05
-1.53791e-05
1.65013e-05
-1.56964e-05
1.79015e-05
-1.58826e-05
1.92524e-05
-1.59275e-05
2.05896e-05
-1.58471e-05
2.19022e-05
-1.57769e-05
2.31631e-05
-1.54464e-05
2.43934e-05
-1.49948e-05
2.55823e-05
-1.44165e-05
2.66734e-05
-1.37034e-05
2.76773e-05
-1.28472e-05
2.85969e-05
-1.184e-05
2.94171e-05
-1.06759e-05
3.01087e-05
-9.35263e-06
3.06739e-05
-7.86757e-06
3.11047e-05
-6.22225e-06
3.13909e-05
-4.4237e-06
3.15125e-05
-2.48488e-06
3.14595e-05
-4.23038e-07
3.1236e-05
1.73571e-06
3.08359e-05
3.97179e-06
3.02503e-05
6.25756e-06
2.94758e-05
8.56072e-06
2.85157e-05
1.0846e-05
2.7377e-05
1.30764e-05
2.60642e-05
1.52138e-05
2.45854e-05
1.72219e-05
2.29478e-05
1.90822e-05
2.11675e-05
2.07504e-05
1.9279e-05
2.22003e-05
1.73095e-05
2.34048e-05
1.52783e-05
2.43376e-05
1.31981e-05
2.49899e-05
1.10874e-05
2.53542e-05
8.97248e-06
2.54261e-05
6.87492e-06
2.52047e-05
4.82382e-06
2.46934e-05
2.83641e-06
2.39031e-05
9.30997e-07
2.28455e-05
-8.71399e-07
2.15377e-05
-2.55386e-06
1.99889e-05
-4.10375e-06
1.82245e-05
-5.49868e-06
1.62559e-05
-6.73177e-06
1.41403e-05
-7.79567e-06
1.18867e-05
-8.67563e-06
9.52571e-06
-9.3611e-06
7.07178e-06
-9.86358e-06
4.56621e-06
-1.01838e-05
2.04874e-06
-1.03141e-05
-4.46386e-07
-1.02521e-05
-2.88929e-06
-1.00053e-05
-5.21434e-06
-9.5812e-06
-7.3659e-06
-8.99565e-06
-9.28507e-06
-8.27017e-06
-1.09112e-05
-7.42324e-06
-1.21936e-05
-6.47917e-06
-1.30718e-05
-5.47059e-06
-1.35003e-05
-4.43735e-06
-1.34541e-05
-3.41766e-06
-1.29186e-05
-2.459e-06
-1.18992e-05
-1.60145e-06
-1.04173e-05
-8.98365e-07
-8.52754e-06
-3.82688e-07
-6.30985e-06
-8.72703e-08
-3.86282e-06
-1.29762e-06
1.19941e-07
-6.67958e-07
4.89866e-07
-2.29254e-06
1.09084e-06
-4.06046e-06
1.87704e-06
-5.8401e-06
2.80168e-06
-7.55228e-06
3.80612e-06
-9.15527e-06
4.90198e-06
-1.06194e-05
6.0749e-06
-1.19415e-05
7.31178e-06
-1.31151e-05
8.58733e-06
-1.41393e-05
9.9031e-06
-1.50178e-05
1.12479e-05
-1.57532e-05
1.25925e-05
-1.63531e-05
1.39228e-05
-1.68238e-05
1.52361e-05
-1.71662e-05
1.6525e-05
-1.73832e-05
1.7803e-05
-1.74817e-05
1.90698e-05
-1.74622e-05
2.02997e-05
-1.73265e-05
2.1495e-05
-1.70734e-05
2.26461e-05
-1.66976e-05
2.37454e-05
-1.61923e-05
2.4787e-05
-1.55516e-05
2.57614e-05
-1.47677e-05
2.66591e-05
-1.38339e-05
2.74669e-05
-1.27387e-05
2.81768e-05
-1.14753e-05
2.87841e-05
-1.00379e-05
2.9276e-05
-8.42545e-06
2.96357e-05
-6.64038e-06
2.98526e-05
-4.69028e-06
2.992e-05
-2.58824e-06
2.98334e-05
-3.5264e-07
2.95932e-05
1.97468e-06
2.91916e-05
4.38173e-06
2.86225e-05
6.84038e-06
2.78847e-05
9.3157e-06
2.69814e-05
1.17703e-05
2.59167e-05
1.41648e-05
2.46958e-05
1.64581e-05
2.3327e-05
1.86112e-05
2.18286e-05
2.05806e-05
2.02183e-05
2.23608e-05
1.85065e-05
2.39121e-05
1.67106e-05
2.52006e-05
1.48496e-05
2.61986e-05
1.29425e-05
2.6897e-05
1.10108e-05
2.72858e-05
9.07586e-06
2.73611e-05
7.15887e-06
2.71217e-05
5.27896e-06
2.65733e-05
3.45669e-06
2.57254e-05
1.70988e-06
2.45923e-05
5.78987e-08
2.31897e-05
-1.48469e-06
2.15315e-05
-2.90325e-06
1.9643e-05
-4.1913e-06
1.75719e-05
-5.33664e-06
1.53177e-05
-6.33163e-06
1.29142e-05
-7.16418e-06
1.03847e-05
-7.83528e-06
7.76194e-06
-8.34193e-06
5.08218e-06
-8.68441e-06
2.3858e-06