/*--------------------------------*- C++ -*----------------------------------*\
| =========                 |                                                 |
| \\      /  F ield         | OpenFOAM: The Open Source CFD Toolbox           |
|  \\    /   O peration     | Version:  2412                                  |
|   \\  /    A nd           | Website:  www.openfoam.com                      |
|    \\/     M anipulation  |                                                 |
\*---------------------------------------------------------------------------*/
FoamFile
{
    version     2.0;
    format      ascii;
    arch        "LSB;label=32;scalar=64";
    class       surfaceScalarField;
    location    "2.6";
    object      alphaPhi0.molasses;
}
// * * * * * * * * * * * * * * * * * * * * * * * * * * * * * * * * * * * * * //

dimensions      [0 3 -1 0 0 0 0];

oriented        oriented;

internalField   nonuniform List<scalar> 
12640
(
2.96631e-14
-1.32354e-14
5.59887e-13
1.23034e-12
1.0878e-13
2.11199e-12
-9.12753e-13
2.58591e-12
-1.94897e-12
2.57881e-12
-2.99372e-12
2.57896e-12
-4.026e-12
2.55786e-12
-5.00346e-12
2.49259e-12
-5.9244e-12
2.4216e-12
-6.78574e-12
2.3454e-12
-7.57792e-12
2.25623e-12
-8.26441e-12
2.12909e-12
-8.82211e-12
1.97609e-12
-9.23036e-12
1.80163e-12
-9.49182e-12
1.6278e-12
-9.60487e-12
1.45215e-12
-9.57378e-12
1.27957e-12
-9.38919e-12
1.09796e-12
-9.04712e-12
9.11812e-13
-8.5387e-12
7.17375e-13
-7.86844e-12
5.27293e-13
-7.04696e-12
3.48495e-13
-6.09995e-12
1.95455e-13
-5.05775e-12
7.34852e-14
-3.96039e-12
-8.14423e-15
-2.84855e-12
-4.82706e-14
-1.76508e-12
-4.4951e-14
-7.48659e-13
-1.97205e-15
1.65574e-13
7.70343e-14
9.50625e-13
1.84226e-13
1.58806e-12
3.11062e-13
2.07041e-12
4.468e-13
2.40041e-12
5.81321e-13
2.59059e-12
7.05005e-13
2.66104e-12
8.10371e-13
2.63714e-12
8.9229e-13
2.54647e-12
9.48619e-13
2.41628e-12
9.7979e-13
2.271e-12
9.88643e-13
2.13094e-12
9.7936e-13
2.01085e-12
9.57486e-13
1.91991e-12
9.28609e-13
1.86099e-12
8.98953e-13
1.83201e-12
8.73467e-13
1.82579e-12
8.5709e-13
1.83287e-12
8.52126e-13
1.84162e-12
8.60496e-13
1.84209e-12
8.80532e-13
1.82562e-12
9.10673e-13
1.78852e-12
9.45921e-13
1.73004e-12
9.83065e-13
1.65519e-12
1.01632e-12
1.57108e-12
1.04324e-12
1.48949e-12
1.05921e-12
1.422e-12
1.06407e-12
1.38194e-12
1.05611e-12
1.37855e-12
1.03908e-12
1.41908e-12
1.01503e-12
1.5042e-12
9.90284e-13
1.63115e-12
9.68266e-13
1.79055e-12
9.55432e-13
1.96908e-12
9.55692e-13
2.14805e-12
9.74363e-13
2.30735e-12
1.01272e-12
2.42821e-12
1.06947e-12
2.49616e-12
1.14008e-12
2.50201e-12
1.21927e-12
2.43909e-12
1.30425e-12
2.3042e-12
1.39152e-12
2.0956e-12
1.47928e-12
1.81838e-12
1.56071e-12
1.48247e-12
1.63069e-12
1.10682e-12
1.68029e-12
7.09586e-13
1.71015e-12
3.05581e-13
1.72377e-12
-9.2769e-14
1.7238e-12
-4.41812e-13
1.67941e-12
-6.50451e-13
1.54411e-12
-5.58736e-13
1.24942e-12
7.12223e-13
4.24402e-13
1.30009e-12
7.98317e-13
4.19075e-12
-2.27042e-13
6.27598e-12
-2.05592e-12
7.43574e-12
-4.13314e-12
7.64693e-12
-6.28683e-12
7.70301e-12
-8.46472e-12
7.68489e-12
-1.0628e-11
7.57812e-12
-1.27204e-11
7.40607e-12
-1.47059e-11
7.18631e-12
-1.65206e-11
6.88739e-12
-1.812e-11
6.50022e-12
-1.94469e-11
6.02909e-12
-2.0482e-11
5.51268e-12
-2.11957e-11
4.96752e-12
-2.15846e-11
4.41407e-12
-2.16283e-11
3.84449e-12
-2.13207e-11
3.25773e-12
-2.06439e-11
2.65007e-12
-1.96013e-11
2.03628e-12
-1.81993e-11
1.43497e-12
-1.64738e-11
8.80081e-13
-1.44727e-11
4.0037e-13
-1.22668e-11
2.26222e-14
-9.93374e-12
-2.35586e-13
-7.56278e-12
-3.625e-13
-5.2409e-12
-3.56954e-13
-3.05294e-12
-2.2582e-13
-1.07104e-12
1.58979e-14
6.46494e-13
3.45907e-13
2.06149e-12
7.36584e-13
3.15618e-12
1.15643e-12
3.93443e-12
1.57452e-12
4.41913e-12
1.96201e-12
4.64892e-12
2.29628e-12
4.67319e-12
2.56138e-12
4.54675e-12
2.75013e-12
4.32466e-12
2.86268e-12
4.05792e-12
2.90615e-12
3.78965e-12
2.89256e-12
3.55332e-12
2.83716e-12
3.37056e-12
2.75729e-12
3.25227e-12
2.66987e-12
3.19771e-12
2.5913e-12
3.19861e-12
2.53397e-12
3.23915e-12
2.50746e-12
3.3027e-12
2.51434e-12
3.37152e-12
2.55371e-12
3.43439e-12
2.61734e-12
3.48366e-12
2.69623e-12
3.52197e-12
2.77671e-12
3.55588e-12
2.84859e-12
3.60191e-12
2.89938e-12
3.6773e-12
2.92318e-12
3.80509e-12
2.91394e-12
4.00242e-12
2.8754e-12
4.28519e-12
2.81245e-12
4.65692e-12
2.73911e-12
5.11531e-12
2.66744e-12
5.6438e-12
2.61484e-12
6.21849e-12
2.59498e-12
6.80242e-12
2.62469e-12
7.35364e-12
2.71402e-12
7.82645e-12
2.86796e-12
8.18e-12
3.07998e-12
8.38106e-12
3.33788e-12
8.4043e-12
3.62792e-12
8.23412e-12
3.93755e-12
7.86112e-12
4.25641e-12
7.28942e-12
4.56923e-12
6.53185e-12
4.86002e-12
5.62002e-12
5.10507e-12
4.59356e-12
5.28723e-12
3.50229e-12
5.39697e-12
2.38597e-12
5.44734e-12
1.29104e-12
5.43323e-12
3.00572e-13
5.28688e-12
-3.7328e-13
4.83685e-12
-3.35008e-13
3.76681e-12
1.54729e-12
4.44427e-13
2.50977e-12
5.25478e-13
7.22981e-12
-9.0487e-13
1.06408e-11
-3.16884e-12
1.25317e-11
-5.8134e-12
1.30961e-11
-8.64601e-12
1.3322e-11
-1.1595e-11
1.33993e-11
-1.45679e-11
1.3292e-11
-1.74899e-11
1.30384e-11
-2.02727e-11
1.26454e-11
-2.2852e-11
1.21033e-11
-2.51507e-11
1.13938e-11
-2.71174e-11
1.05445e-11
-2.86971e-11
9.59405e-12
-2.98614e-11
8.58347e-12
-3.0572e-11
7.5266e-12
-3.081e-11
6.43283e-12
-3.05488e-11
5.29654e-12
-2.97834e-11
4.13309e-12
-2.85128e-11
2.96411e-12
-2.67621e-11
1.83216e-12
-2.45703e-11
7.87185e-13
-2.20047e-11
-1.15435e-13
-1.91488e-11
-8.30873e-13
-1.61044e-11
-1.32458e-12
-1.29799e-11
-1.57659e-12
-9.88728e-12
-1.58338e-12
-6.93182e-12
-1.35696e-12
-4.20654e-12
-9.25482e-13
-1.78601e-12
-3.28482e-13
2.78286e-13
3.82757e-13
1.95931e-12
1.15326e-12
3.25578e-12
1.92599e-12
4.18852e-12
2.65074e-12
4.79789e-12
3.28512e-12
5.13715e-12
3.80083e-12
5.2678e-12
4.18229e-12
5.25279e-12
4.42853e-12
5.15198e-12
4.54968e-12
5.01769e-12
4.56543e-12
4.89143e-12
4.50171e-12
4.80305e-12
4.38757e-12
4.76891e-12
4.25326e-12
4.79468e-12
4.12577e-12
4.87477e-12
4.02857e-12
4.99873e-12
3.97589e-12
5.15107e-12
3.97517e-12
5.31975e-12
4.02175e-12
5.49389e-12
4.10604e-12
5.67215e-12
4.20915e-12
5.85668e-12
4.31373e-12
6.06086e-12
4.39796e-12
6.29972e-12
4.44752e-12
6.59679e-12
4.44762e-12
6.97095e-12
4.39671e-12
7.44247e-12
4.29675e-12
8.01874e-12
4.16544e-12
8.702e-12
4.02156e-12
9.47738e-12
3.89429e-12
1.03219e-11
3.80871e-12
1.11952e-11
3.79613e-12
1.20493e-11
3.88034e-12
1.28261e-11
4.08194e-12
1.34689e-11
4.40385e-12
1.3924e-11
4.83662e-12
1.4147e-11
5.35846e-12
1.41042e-11
5.94473e-12
1.37725e-11
6.5716e-12
1.31449e-11
7.21278e-12
1.22254e-11
7.84127e-12
1.10402e-11
8.41897e-12
9.62914e-12
8.90843e-12
8.05229e-12
9.27198e-12
6.37044e-12
9.49997e-12
4.65287e-12
9.59683e-12
2.96485e-12
9.56163e-12
1.42053e-12
9.27677e-12
2.73739e-13
8.43904e-12
-6.56484e-14
6.50394e-12
2.56735e-12
3.1225e-13
3.75094e-12
1.3635e-13
1.03718e-11
-1.59618e-12
1.51699e-11
-4.19242e-12
1.78285e-11
-7.24331e-12
1.88227e-11
-1.05774e-11
1.93148e-11
-1.40828e-11
1.95454e-11
-1.76653e-11
1.94919e-11
-2.12074e-11
1.91706e-11
-2.46235e-11
1.86185e-11
-2.78167e-11
1.78176e-11
-3.07185e-11
1.67758e-11
-3.32459e-11
1.55099e-11
-3.53431e-11
1.40834e-11
-3.69494e-11
1.25361e-11
-3.8028e-11
1.09032e-11
-3.8535e-11
9.19049e-12
-3.84501e-11
7.41325e-12
-3.77561e-11
5.59336e-12
-3.6464e-11
3.77776e-12
-3.45974e-11
2.02449e-12
-3.22069e-11
4.08216e-13
-2.93609e-11
-9.95499e-13
-2.61524e-11
-2.11924e-12
-2.26887e-11
-2.91194e-12
-1.90879e-11
-3.34463e-12
-1.54699e-11
-3.40998e-12
-1.19491e-11
-3.12686e-12
-8.6284e-12
-2.53345e-12
-5.59075e-12
-1.68994e-12
-2.89801e-12
-6.67637e-13
-5.85466e-13
4.51386e-13
1.33479e-12
1.58782e-12
2.87522e-12
2.66652e-12
4.0662e-12
3.62794e-12
4.9539e-12
4.42765e-12
5.59258e-12
5.04257e-12
6.04079e-12
5.46721e-12
6.35514e-12
5.71393e-12
6.58685e-12
5.8077e-12
6.77863e-12
5.78304e-12
6.9621e-12
5.68e-12
7.1586e-12
5.53904e-12
7.37749e-12
5.39901e-12
7.62119e-12
5.29014e-12
7.88408e-12
5.23458e-12
8.16089e-12
5.23916e-12
8.44402e-12
5.30138e-12
8.73308e-12
5.40409e-12
9.0286e-12
5.52739e-12
9.34166e-12
5.6429e-12
9.68386e-12
5.72823e-12
1.00769e-11
5.7585e-12
1.05384e-11
5.72296e-12
1.10906e-11
5.61484e-12
1.17437e-11
5.44833e-12
1.25057e-11
5.2428e-12
1.33665e-11
5.03508e-12
1.43102e-11
4.85987e-12
1.5301e-11
4.7623e-12
1.62955e-11
4.78051e-12
1.72346e-11
4.95454e-12
1.80578e-11
5.3058e-12
1.87007e-11
5.84124e-12
1.91061e-11
6.54375e-12
1.9224e-11
7.38425e-12
1.90167e-11
8.32532e-12
1.84624e-11
9.32705e-12
1.75516e-11
1.03504e-11
1.62954e-11
1.13475e-11
1.47203e-11
1.22648e-11
1.28816e-11
1.30356e-11
1.08428e-11
1.36145e-11
8.68098e-12
1.39773e-11
6.46724e-12
1.4136e-11
4.29694e-12
1.40638e-11
2.31279e-12
1.35956e-11
7.77595e-13
1.23146e-11
1.04016e-13
9.4685e-12
3.72195e-12
2.54008e-13
5.00852e-12
-1.76308e-13
1.36808e-11
-2.13628e-12
1.9846e-11
-4.96048e-12
2.32766e-11
-8.29633e-12
2.47586e-11
-1.1965e-11
2.55677e-11
-1.58634e-11
2.60101e-11
-1.98693e-11
2.60425e-11
-2.3874e-11
2.56924e-11
-2.7758e-11
2.49886e-11
-3.14394e-11
2.39485e-11
-3.48204e-11
2.25677e-11
-3.78307e-11
2.08884e-11
-4.03806e-11
1.89582e-11
-4.24109e-11
1.6845e-11
-4.3857e-11
1.45822e-11
-4.46802e-11
1.2199e-11
-4.48437e-11
9.71585e-12
-4.4338e-11
7.17892e-12
-4.3165e-11
4.65022e-12
-4.13558e-11
2.2139e-12
-3.89583e-11
-3.56362e-14
-3.60447e-11
-2.00106e-12
-3.2705e-11
-3.59427e-12
-2.90463e-11
-4.74967e-12
-2.51855e-11
-5.42588e-12
-2.12414e-11
-5.61554e-12
-1.73303e-11
-5.3381e-12
-1.35552e-11
-4.64629e-12
-1.00049e-11
-3.61287e-12
-6.74541e-12
-2.33312e-12
-3.82282e-12
-9.07529e-13
-1.25817e-12
5.588e-13
9.46216e-13
1.97296e-12
2.80849e-12
3.25452e-12
4.35912e-12
4.34741e-12
5.63976e-12
5.21708e-12
6.69589e-12
5.85464e-12
7.57449e-12
6.27078e-12
8.31924e-12
6.49398e-12
8.96794e-12
6.56449e-12
9.55125e-12
6.52953e-12
1.00902e-11
6.43907e-12
1.05994e-11
6.33834e-12
1.10846e-11
6.26612e-12
1.15504e-11
6.24572e-12
1.19966e-11
6.28857e-12
1.24277e-11
6.38692e-12
1.28468e-11
6.52526e-12
1.32657e-11
6.67439e-12
1.36947e-11
6.80747e-12
1.4154e-11
6.89158e-12
1.46594e-11
6.90632e-12
1.5234e-11
6.83324e-12
1.58894e-11
6.67693e-12
1.66384e-11
6.44984e-12
1.74764e-11
6.18915e-12
1.83958e-11
5.93388e-12
1.93687e-11
5.73939e-12
2.03619e-11
5.65535e-12
2.1323e-11
5.73975e-12
2.21965e-11
6.03467e-12
2.2917e-11
6.5722e-12
2.34235e-11
7.35396e-12
2.36562e-11
8.36192e-12
2.35663e-11
9.55551e-12
2.31175e-11
1.08845e-11
2.22873e-11
1.22948e-11
2.10715e-11
1.37288e-11
1.94789e-11
1.51253e-11
1.75475e-11
1.64014e-11
1.53318e-11
1.74736e-11
1.29131e-11
1.82699e-11
1.03634e-11
1.87758e-11
7.76098e-12
1.89965e-11
5.21218e-12
1.88784e-11
2.90224e-12
1.81743e-11
1.08024e-12
1.64096e-11
2.19993e-13
1.25531e-11
4.95641e-12
2.53457e-13
6.22782e-12
-3.69793e-13
1.70914e-11
-2.44748e-12
2.45535e-11
-5.39059e-12
2.8761e-11
-8.86551e-12
3.07519e-11
-1.2722e-11
3.19271e-11
-1.68418e-11
3.26157e-11
-2.112e-11
3.27845e-11
-2.54183e-11
3.24283e-11
-2.9632e-11
3.1608e-11
-3.36528e-11
3.03402e-11
-3.74013e-11
2.86479e-11
-4.07823e-11
2.65602e-11
-4.37186e-11
2.41413e-11
-4.6121e-11
2.14503e-11
-4.79279e-11
1.85456e-11
-4.90793e-11
1.54617e-11
-4.95452e-11
1.22461e-11
-4.93045e-11
8.95737e-12
-4.83636e-11
5.68203e-12
-4.67459e-11
2.52438e-12
-4.44996e-11
-3.9894e-13
-4.16914e-11
-2.96959e-12
-3.84058e-11
-5.08368e-12
-3.47435e-11
-6.65733e-12
-3.08123e-11
-7.64357e-12
-2.67266e-11
-8.02683e-12
-2.2594e-11
-7.83446e-12
-1.85172e-11
-7.12256e-12
-1.45814e-11
-5.98242e-12
-1.08591e-11
-4.52075e-12
-7.40025e-12
-2.8613e-12
-4.23933e-12
-1.12353e-12
-1.38938e-12
5.77593e-13
1.14966e-12
2.14943e-12
3.39332e-12
3.52001e-12
5.36457e-12
4.64792e-12
7.09401e-12
5.51638e-12
8.61388e-12
6.13477e-12
9.95665e-12
6.53115e-12
1.1152e-11
6.74868e-12
1.22245e-11
6.83958e-12
1.31946e-11
6.85787e-12
1.40758e-11
6.85554e-12
1.48804e-11
6.8725e-12
1.56155e-11
6.93719e-12
1.62917e-11
7.05702e-12
1.69165e-11
7.22746e-12
1.75048e-11
7.42516e-12
1.80679e-11
7.6244e-12
1.86264e-11
7.78873e-12
1.91952e-11
7.89087e-12
1.97974e-11
7.9015e-12
2.04458e-11
7.81304e-12
2.11567e-11
7.62533e-12
2.19301e-11
7.36801e-12
2.27661e-11
7.07701e-12
2.3645e-11
6.81174e-12
2.45454e-11
6.62839e-12
2.54252e-11
6.59806e-12
2.62401e-11
6.77983e-12
2.69306e-11
7.23181e-12
2.74401e-11
7.98208e-12
2.7707e-11
9.038e-12
2.76782e-11
1.0372e-11
2.73077e-11
1.1937e-11
2.65621e-11
1.3669e-11
2.54232e-11
1.54988e-11
2.38845e-11
1.73567e-11
2.19641e-11
1.91564e-11
1.96966e-11
2.07987e-11
1.7151e-11
2.2165e-11
1.44063e-11
2.31739e-11
1.15489e-11
2.38029e-11
8.64681e-12
2.40775e-11
5.82584e-12
2.38852e-11
3.27786e-12
2.2913e-11
1.27732e-12
2.0604e-11
3.01298e-13
1.56775e-11
6.22955e-12
2.28935e-13
7.4269e-12
-4.46171e-13
2.04456e-11
-2.54446e-12
2.91805e-11
-5.4885e-12
3.4149e-11
-8.99029e-12
3.66761e-11
-1.28833e-11
3.82275e-11
-1.70895e-11
3.92122e-11
-2.14853e-11
3.95494e-11
-2.59508e-11
3.92365e-11
-3.03494e-11
3.83191e-11
-3.45928e-11
3.68609e-11
-3.85821e-11
3.4877e-11
-4.22404e-11
3.24173e-11
-4.54709e-11
2.95289e-11
-4.81949e-11
2.62869e-11
-5.03272e-11
2.27467e-11
-5.1812e-11
1.89698e-11
-5.2604e-11
1.50171e-11
-5.26863e-11
1.09732e-11
-5.20561e-11
6.94163e-12
-5.07348e-11
3.04822e-12
-4.87625e-11
-5.68737e-13
-4.61981e-11
-3.77477e-12
-4.31182e-11
-6.44544e-12
-3.96098e-11
-8.48878e-12
-3.57723e-11
-9.84303e-12
-3.17043e-11
-1.04952e-11
-2.7508e-11
-1.04672e-11
-2.32741e-11
-9.82777e-12
-1.90889e-11
-8.67131e-12
-1.50205e-11
-7.12341e-12
-1.1128e-11
-5.31591e-12
-7.45051e-12
-3.3886e-12
-4.01723e-12
-1.46567e-12
-8.40487e-13
3.42961e-13
2.0753e-12
1.95814e-12
4.73718e-12
3.3266e-12
7.15672e-12
4.4275e-12
9.35102e-12
5.26443e-12
1.13383e-11
5.86453e-12
1.31369e-11
6.2708e-12
1.47642e-11
6.53631e-12
1.62341e-11
6.71836e-12
1.7561e-11
6.86856e-12
1.87553e-11
7.03055e-12
1.98311e-11
7.22872e-12
2.07994e-11
7.47372e-12
2.1678e-11
7.75372e-12
2.24805e-11
8.04973e-12
2.32286e-11
8.32721e-12
2.39374e-11
8.55656e-12
2.46304e-11
8.70129e-12
2.53209e-11
8.74289e-12
2.60281e-11
8.66676e-12
2.67552e-11
8.48925e-12
2.7509e-11
8.2357e-12
2.82768e-11
7.96192e-12
2.90483e-11
7.72416e-12
2.97921e-11
7.60011e-12
3.04779e-11
7.6591e-12
3.10564e-11
7.9797e-12
3.14818e-11
8.61578e-12
3.16971e-11
9.60701e-12
3.16526e-11
1.09527e-11
3.12985e-11
1.26259e-11
3.05968e-11
1.45667e-11
2.95196e-11
1.67011e-11
2.80494e-11
1.89491e-11
2.61868e-11
2.12224e-11
2.39465e-11
2.34204e-11
2.13741e-11
2.54127e-11
1.85301e-11
2.70661e-11
1.55092e-11
2.82642e-11
1.23916e-11
2.89999e-11
9.27063e-12
2.92852e-11
6.24843e-12
2.90016e-11
3.53632e-12
2.77235e-11
1.41284e-12
2.48305e-11
3.60336e-13
1.87878e-11
7.51408e-12
2.06435e-13
8.59381e-12
-4.35241e-13
2.36415e-11
-2.46254e-12
3.36178e-11
-5.32852e-12
3.93454e-11
-8.74867e-12
4.24059e-11
-1.25779e-11
4.43522e-11
-1.67292e-11
4.56423e-11
-2.11286e-11
4.62067e-11
-2.56321e-11
4.59727e-11
-3.01183e-11
4.50078e-11
-3.44663e-11
4.33783e-11
-3.86034e-11
4.11461e-11
-4.24354e-11
3.83426e-11
-4.58861e-11
3.50312e-11
-4.88591e-11
3.127e-11
-5.12795e-11
2.71334e-11
-5.30755e-11
2.26894e-11
-5.42044e-11
1.80256e-11
-5.46375e-11
1.32434e-11
-5.43705e-11
8.46828e-12
-5.34164e-11
3.8461e-12
-5.18066e-11
-4.69021e-13
-4.95911e-11
-4.32094e-12
-4.68314e-11
-7.57656e-12
-4.36044e-11
-1.01255e-11
-3.99896e-11
-1.19058e-11
-3.60767e-11
-1.28919e-11
-3.19492e-11
-1.31136e-11
-2.76937e-11
-1.26347e-11
-2.3384e-11
-1.15638e-11
-1.90918e-11
-1.00269e-11
-1.48728e-11
-8.17291e-12
-1.07778e-11
-6.14521e-12
-6.84227e-12
-4.08415e-12
-3.0964e-12
-2.10404e-12
4.42349e-13
-2.97208e-13
3.76111e-12
1.27908e-12
6.85581e-12
2.59483e-12
9.72564e-12
3.65072e-12
1.23742e-11
4.46927e-12
1.4807e-11
5.09158e-12
1.70305e-11
5.56989e-12
1.90532e-11
5.95903e-12
2.08828e-11
6.31165e-12
2.25315e-11
6.66633e-12
2.40101e-11
7.04922e-12
2.53363e-11
7.46326e-12
2.65245e-11
7.9004e-12
2.7597e-11
8.33294e-12
2.85692e-11
8.73356e-12
2.94648e-11
9.06352e-12
3.02971e-11
9.29721e-12
3.10872e-11
9.40758e-12
3.18407e-11
9.39579e-12
3.25693e-11
9.27135e-12
3.32659e-11
9.07897e-12
3.39291e-11
8.86777e-12
3.45374e-11
8.71492e-12
3.50736e-11
8.6925e-12
3.55005e-11
8.89092e-12
3.57861e-11
9.38255e-12
3.58831e-11
1.0237e-11
3.57519e-11
1.14856e-11
3.53454e-11
1.31356e-11
3.46267e-11
1.5149e-11
3.35629e-11
1.74621e-11
3.21314e-11
1.99898e-11
3.03221e-11
2.26399e-11
2.81352e-11
2.53128e-11
2.55953e-11
2.78835e-11
2.27383e-11
3.02103e-11
1.96353e-11
3.21241e-11
1.63631e-11
3.35035e-11
1.30286e-11
3.43105e-11
9.71879e-12
3.45786e-11
6.55174e-12
3.4158e-11
3.71244e-12
3.25579e-11
1.50664e-12
2.90347e-11
3.87581e-13
2.18642e-11
8.77178e-12
2.06806e-13
9.69687e-12
-3.62565e-13
2.66205e-11
-2.27611e-12
3.7806e-11
-4.985e-12
4.42537e-11
-8.26312e-12
4.78645e-11
-1.19353e-11
5.0191e-11
-1.59402e-11
5.1798e-11
-2.02128e-11
5.26101e-11
-2.46569e-11
5.25226e-11
-2.91209e-11
5.15493e-11
-3.34976e-11
4.97999e-11
-3.76848e-11
4.73435e-11
-4.16155e-11
4.42453e-11
-4.52003e-11
4.05494e-11
-4.83622e-11
3.63242e-11
-5.10137e-11
3.16367e-11
-5.30915e-11
2.6577e-11
-5.45412e-11
2.12445e-11
-5.53329e-11
1.57624e-11
-5.54536e-11
1.02761e-11
-5.49085e-11
4.94714e-12
-5.3721e-11
-4.93002e-14
-5.19256e-11
-4.54879e-12
-4.95739e-11
-8.39802e-12
-4.67212e-11
-1.14855e-11
-4.3437e-11
-1.37324e-11
-3.97877e-11
-1.51184e-11
-3.58491e-11
-1.56617e-11
-3.16883e-11
-1.54365e-11
-2.73772e-11
-1.45445e-11
-2.29759e-11
-1.31251e-11
-1.85463e-11
-1.13239e-11
-1.41376e-11
-9.29772e-12
-9.79885e-12
-7.18626e-12
-5.56731e-12
-5.11609e-12
-1.47838e-12
-3.18067e-12
2.44224e-12
-1.44748e-12
6.17171e-12
5.11753e-14
9.69419e-12
1.30863e-12
1.29971e-11
2.34433e-12
1.60722e-11
3.19504e-12
1.89151e-11
3.90881e-12
2.15237e-11
4.53836e-12
2.39021e-11
5.12996e-12
2.60549e-11
5.72156e-12
2.7995e-11
6.33055e-12
2.97338e-11
6.9618e-12
3.12913e-11
7.59786e-12
3.26816e-11
8.21734e-12
3.39271e-11
8.7836e-12
3.50406e-11
9.26845e-12
3.60429e-11
9.63676e-12
3.69412e-11
9.87636e-12
3.775e-11
9.97946e-12
3.84662e-11
9.97432e-12
3.9095e-11
9.89613e-12
3.96223e-11
9.8142e-12
4.00425e-11
9.79606e-12
4.03295e-11
9.93514e-12
4.04653e-11
1.03127e-11
4.04145e-11
1.10193e-11
4.01513e-11
1.2114e-11
3.96379e-11
1.3641e-11
3.88455e-11
1.5597e-11
3.77419e-11
1.79487e-11
3.63039e-11
2.06219e-11
3.4514e-11
2.35261e-11
3.23651e-11
2.65583e-11
2.98679e-11
2.96006e-11
2.70406e-11
3.25205e-11
2.39287e-11
3.51482e-11
2.0585e-11
3.73081e-11
1.7097e-11
3.8843e-11
1.35592e-11
3.97092e-11
1.00849e-11
3.99202e-11
6.78181e-12
3.9335e-11
3.84719e-12
3.73707e-11
1.56582e-12
3.31992e-11
4.01504e-13
2.48707e-11
9.9844e-12
2.28648e-13
1.07043e-11
-2.86836e-13
2.93843e-11
-2.0521e-12
4.16922e-11
-4.56536e-12
4.88188e-11
-7.63208e-12
5.29647e-11
-1.11101e-11
5.569e-11
-1.4886e-11
5.75799e-11
-1.89473e-11
5.86584e-11
-2.32099e-11
5.8749e-11
-2.75649e-11
5.78406e-11
-3.18734e-11
5.60144e-11
-3.60459e-11
5.33884e-11
-3.99921e-11
5.0029e-11
-4.36466e-11
4.60038e-11
-4.69245e-11
4.13642e-11
-4.97551e-11
3.61902e-11
-5.2067e-11
3.05735e-11
-5.38099e-11
2.46323e-11
-5.49464e-11
1.85058e-11
-5.54575e-11
1.2355e-11
-5.53418e-11
6.36209e-12
-5.46081e-11
7.09746e-13
-5.32828e-11
-4.41706e-12
-5.13957e-11
-8.86441e-12
-4.89929e-11
-1.25015e-11
-4.6118e-11
-1.52542e-11
-4.28288e-11
-1.70861e-11
-3.91758e-11
-1.80241e-11
-3.52207e-11
-1.81294e-11
-3.10159e-11
-1.75143e-11
-2.66227e-11
-1.6308e-11
-2.20927e-11
-1.46667e-11
-1.74835e-11
-1.27401e-11
-1.28435e-11
-1.06778e-11
-8.22404e-12
-8.60249e-12
-3.66783e-12
-6.61696e-12
7.82293e-13
-4.78786e-12
5.091e-12
-3.15547e-12
9.22525e-12
-1.72835e-12
1.31581e-11
-4.93399e-13
1.68671e-11
5.81613e-13
2.03348e-11
1.53995e-12
2.35505e-11
2.42706e-12
2.6507e-11
3.28597e-12
2.92066e-11
4.14476e-12
3.16523e-11
5.0202e-12
3.38573e-11
5.90649e-12
3.58307e-11
6.79043e-12
3.75913e-11
7.64055e-12
3.91486e-11
8.42963e-12
4.05216e-11
9.11913e-12
4.17164e-11
9.68766e-12
4.27487e-11
1.01124e-11
4.3617e-11
1.04032e-11
4.43306e-11
1.05769e-11
4.48802e-11
1.06879e-11
4.52685e-11
1.07923e-11
4.54785e-11
1.09785e-11
4.5505e-11
1.13268e-11
4.5324e-11
1.19383e-11
4.49244e-11
1.28896e-11
4.42804e-11
1.42553e-11
4.33772e-11
1.60673e-11
4.219e-11
1.83335e-11
4.07026e-11
2.10104e-11
3.88962e-11
2.40275e-11
3.67589e-11
2.72858e-11
3.42906e-11
3.0671e-11
3.14998e-11
3.4056e-11
2.84136e-11
3.72895e-11
2.50638e-11
4.01969e-11
2.15102e-11
4.25738e-11
1.78194e-11
4.42577e-11
1.40993e-11
4.51613e-11
1.04531e-11
4.53059e-11
7.02302e-12
4.45096e-11
3.97888e-12
4.21652e-11
1.63111e-12
3.73001e-11
4.12527e-13
2.78065e-11
1.11417e-11
2.37052e-13
1.16213e-11
-2.33387e-13
3.19216e-11
-1.86455e-12
4.52742e-11
-4.14445e-12
5.29849e-11
-6.96311e-12
5.7653e-11
-1.02008e-11
6.07849e-11
-1.37376e-11
6.29607e-11
-1.75172e-11
6.42649e-11
-2.15254e-11
6.45623e-11
-2.56619e-11
6.37571e-11
-2.98247e-11
6.19284e-11
-3.38948e-11
5.91792e-11
-3.77969e-11
5.56184e-11
-4.14478e-11
5.1308e-11
-4.47844e-11
4.63182e-11
-4.77322e-11
4.07201e-11
-5.02317e-11
3.46181e-11
-5.22282e-11
2.81386e-11
-5.36832e-11
2.14341e-11
-5.45731e-11
1.46834e-11
-5.48842e-11
8.07598e-12
-5.462e-11
1.81464e-12
-5.37859e-11
-3.91625e-12
-5.2405e-11
-8.94265e-12
-5.04965e-11
-1.31396e-11
-4.80965e-11
-1.64138e-11
-4.52341e-11
-1.8738e-11
-4.19531e-11
-2.0122e-11
-3.82893e-11
-2.06367e-11
-3.42928e-11
-2.03786e-11
-3.00063e-11
-1.94855e-11
-2.54849e-11
-1.80995e-11
-2.07774e-11
-1.63779e-11
-1.59415e-11
-1.44602e-11
-1.10288e-11
-1.24761e-11
-6.09575e-12
-1.05225e-11
-1.19263e-12
-8.67296e-12
3.62919e-12
-6.96608e-12
8.32441e-12
-5.41683e-12
1.28507e-11
-4.01487e-12
1.71717e-11
-2.73414e-12
2.1258e-11
-1.53837e-12
2.50856e-11
-3.87483e-13
2.86405e-11
7.51169e-13
3.19124e-11
1.90238e-12
3.49021e-11
3.07103e-12
3.76094e-11
4.25277e-12
4.00447e-11
5.42309e-12
4.22116e-11
6.55785e-12
4.41239e-11
7.61858e-12
4.57843e-11
8.5788e-12
4.72062e-11
9.40501e-12
4.83879e-11
1.00907e-11
4.93396e-11
1.06326e-11
5.00539e-11
1.10659e-11
5.0538e-11
1.14291e-11
5.07812e-11
1.1798e-11
5.07878e-11
1.22437e-11
5.05436e-11
1.2867e-11
5.00506e-11
1.3751e-11
4.92952e-11
1.49893e-11
4.82785e-11
1.66402e-11
4.69875e-11
1.87512e-11
4.54195e-11
2.13182e-11
4.3562e-11
2.43085e-11
4.14082e-11
2.76449e-11
3.89509e-11
3.12289e-11
3.61905e-11
3.49381e-11
3.31416e-11
3.86307e-11
2.98206e-11
4.21538e-11
2.62669e-11
4.5309e-11
2.25186e-11
4.78941e-11
1.8652e-11
4.97067e-11
1.47449e-11
5.066e-11
1.09318e-11
5.07164e-11
7.34391e-12
4.97015e-11
4.17777e-12
4.69389e-11
1.73121e-12
4.13586e-11
4.53924e-13
3.06597e-11
1.22686e-11
2.31417e-13
1.24514e-11
-2.14164e-13
3.4237e-11
-1.71485e-12
4.85369e-11
-3.79187e-12
5.67667e-11
-6.3184e-12
6.18677e-11
-9.29836e-12
6.54417e-11
-1.25801e-11
6.79066e-11
-1.60926e-11
6.94269e-11
-1.97962e-11
6.98966e-11
-2.36607e-11
6.92294e-11
-2.75865e-11
6.74363e-11
-3.14894e-11
6.46356e-11
-3.52708e-11
6.09238e-11
-3.88649e-11
5.63942e-11
-4.21981e-11
5.11118e-11
-4.52135e-11
4.51625e-11
-4.78501e-11
3.86494e-11
-5.00586e-11
3.17083e-11
-5.17992e-11
2.45041e-11
-5.30407e-11
1.72214e-11
-5.37669e-11
1.00677e-11
-5.39625e-11
3.24409e-12
-5.36292e-11
-3.04535e-12
-5.27636e-11
-8.63416e-12
-5.13802e-11
-1.33769e-11
-4.94851e-11
-1.71909e-11
-4.71017e-11
-2.00291e-11
-4.42441e-11
-2.19127e-11
-4.0944e-11
-2.28931e-11
-3.72263e-11
-2.30751e-11
-3.31336e-11
-2.25768e-11
-2.87044e-11
-2.15463e-11
-2.39926e-11
-2.01236e-11
-1.90486e-11
-1.84531e-11
-1.39338e-11
-1.66523e-11
-8.70554e-12
-1.48228e-11
-3.42736e-12
-1.30314e-11
1.84163e-12
-1.13217e-11
7.04135e-12
-9.70715e-12
1.21172e-11
-8.1832e-12
1.70194e-11
-6.72864e-12
2.17047e-11
-5.31371e-12
2.61395e-11
-3.90803e-12
3.02955e-11
-2.48434e-12
3.41565e-11
-1.03031e-12
3.77082e-11
4.57441e-13
4.09481e-11
1.96206e-12
4.38697e-11
3.46352e-12
4.6478e-11
4.92532e-12
4.87689e-11
6.31877e-12
5.07507e-11
7.60405e-12
5.24181e-11
8.76211e-12
5.37791e-11
9.77183e-12
5.48253e-11
1.06475e-11
5.55647e-11
1.14066e-11
5.59886e-11
1.21056e-11
5.61073e-11
1.27997e-11
5.59132e-11
1.35796e-11
5.54184e-11
1.45244e-11
5.46188e-11
1.5735e-11
5.35302e-11
1.72839e-11
5.21526e-11
1.92463e-11
5.05e-11
2.16541e-11
4.85717e-11
2.45192e-11
4.63743e-11
2.78005e-11
4.39042e-11
3.1431e-11
4.11619e-11
3.53079e-11
3.81508e-11
3.93054e-11
3.48768e-11
4.32794e-11
3.13634e-11
4.70581e-11
2.7628e-11
5.04503e-11
2.37193e-11
5.32209e-11
1.96801e-11
5.51749e-11
1.56023e-11
5.61746e-11
1.15948e-11
5.61678e-11
7.82765e-12
5.49169e-11
4.48632e-12
5.17338e-11
1.91058e-12
4.53892e-11
5.18308e-13
3.34762e-11
1.33805e-11
2.02119e-13
1.32099e-11
-1.9864e-13
3.62928e-11
-1.5881e-12
5.1485e-11
-3.50109e-12
6.01865e-11
-5.78205e-12
6.56418e-11
-8.46355e-12
6.96039e-11
-1.14935e-11
7.24057e-11
-1.47445e-11
7.41339e-11
-1.81766e-11
7.47692e-11
-2.17416e-11
7.42157e-11
-2.54007e-11
7.24941e-11
-2.9069e-11
6.96776e-11
-3.26808e-11
6.58823e-11
-3.61572e-11
6.11898e-11
-3.94425e-11
5.56871e-11
-4.24755e-11
4.94569e-11
-4.52059e-11
4.26114e-11
-4.75858e-11
3.52914e-11
-4.95736e-11
2.76656e-11
-5.11389e-11
1.99327e-11
-5.22505e-11
1.22967e-11
-5.28925e-11
4.9768e-12
-5.30416e-11
-1.83279e-12
-5.26926e-11
-7.94502e-12
-5.18301e-11
-1.32268e-11
-5.04579e-11
-1.75738e-11
-4.85681e-11
-2.09533e-11
-4.61713e-11
-2.33651e-11
-4.32694e-11
-2.48716e-11
-3.98853e-11
-2.55544e-11
-3.60383e-11
-2.55372e-11
-3.17692e-11
-2.49445e-11
-2.71175e-11
-2.39193e-11
-2.21404e-11
-2.25868e-11
-1.68933e-11
-2.10673e-11
-1.14435e-11
-1.94496e-11
-5.8563e-12
-1.78032e-11
-2.03394e-13
-1.61646e-11
5.44662e-12
-1.45509e-11
1.10257e-11
-1.29579e-11
1.64717e-11
-1.13704e-11
2.17303e-11
-9.76631e-12
2.67535e-11
-8.12176e-12
3.15048e-11
-6.42127e-12
3.5952e-11
-4.65651e-12
4.00758e-11
-2.83731e-12
4.38553e-11
-9.79015e-13
4.72829e-11
8.84899e-13
5.03443e-11
2.7248e-12
5.3039e-11
4.49754e-12
5.53551e-11
6.17537e-12
5.72953e-11
7.72358e-12
5.8847e-11
9.13743e-12
6.00151e-11
1.04123e-11
6.07891e-11
1.15824e-11
6.11804e-11
1.26808e-11
6.11845e-11
1.37801e-11
6.082e-11
1.49461e-11
6.00889e-11
1.62764e-11
5.90173e-11
1.7846e-11
5.76157e-11
1.97445e-11
5.59144e-11
2.20258e-11
5.39271e-11
2.47397e-11
5.16788e-11
2.78853e-11
4.91778e-11
3.14395e-11
4.64335e-11
3.53327e-11
4.34492e-11
3.94688e-11
4.02277e-11
4.37217e-11
3.67769e-11
4.79419e-11
3.31041e-11
5.19583e-11
2.92325e-11
5.55628e-11
2.51804e-11
5.85265e-11
2.09965e-11
6.06216e-11
1.67373e-11
6.17051e-11
1.25327e-11
6.16488e-11
8.53097e-12
6.02008e-11
4.96973e-12
5.65796e-11
2.17765e-12
4.94686e-11
6.05443e-13
3.63052e-11
1.44961e-11
1.74798e-13
1.38847e-11
-2.0153e-13
3.8102e-11
-1.47006e-12
5.40953e-11
-3.28057e-12
6.32951e-11
-5.40038e-12
6.90484e-11
-7.83232e-12
7.33125e-11
-1.05776e-11
7.64149e-11
-1.35818e-11
7.83905e-11
-1.67486e-11
7.91752e-11
-2.00463e-11
7.87372e-11
-2.3422e-11
7.70749e-11
-2.68404e-11
7.42797e-11
-3.02352e-11
7.04379e-11
-3.35585e-11
6.56494e-11
-3.67501e-11
5.99906e-11
-3.97634e-11
5.35563e-11
-4.25493e-11
4.64587e-11
-4.50634e-11
3.88413e-11
-4.72678e-11
3.08817e-11
-4.91216e-11
2.27732e-11
-5.05962e-11
1.47349e-11
-5.16533e-11
6.97342e-12
-5.22705e-11
-2.97974e-13
-5.24129e-11
-6.90749e-12
-5.20665e-11
-1.26986e-11
-5.1204e-11
-1.75826e-11
-4.98172e-11
-2.15051e-11
-4.78841e-11
-2.44819e-11
-4.54047e-11
-2.65515e-11
-4.2373e-11
-2.78032e-11
-3.88091e-11
-2.83326e-11
-3.47333e-11
-2.82658e-11
-3.01902e-11
-2.77198e-11
-2.52251e-11
-2.68204e-11
-1.99011e-11
-2.56689e-11
-1.4281e-11
-2.43553e-11
-8.44007e-12
-2.29361e-11
-2.45302e-12
-2.14486e-11
3.59928e-12
-1.99035e-11
9.63908e-12
-1.82998e-11
1.55927e-11
-1.66265e-11
2.13932e-11
-1.48683e-11
2.69832e-11
-1.30107e-11
3.23105e-11
-1.10437e-11
3.7336e-11
-8.97201e-12
4.20219e-11
-6.8068e-12
4.63439e-11
-4.57721e-12
5.02743e-11
-2.313e-12
5.38002e-11
-5.94e-14
5.69006e-11
2.14957e-12
5.95695e-11
4.26969e-12
6.17876e-11
6.28086e-12
6.35534e-11
8.15912e-12
6.48506e-11
9.91596e-12
6.56871e-11
1.15599e-11
6.60567e-11
1.31397e-11
6.59802e-11
1.46991e-11
6.54625e-11
1.63218e-11
6.45354e-11
1.80761e-11
6.32154e-11
2.0055e-11
6.15448e-11
2.23199e-11
5.95497e-11
2.49427e-11
5.72746e-11
2.79533e-11
5.47451e-11
3.1371e-11
5.19902e-11
3.5168e-11
4.90189e-11
3.92952e-11
4.5839e-11
4.36571e-11
4.24563e-11
4.81291e-11
3.8871e-11
5.25678e-11
3.50924e-11
5.67917e-11
3.11192e-11
6.06041e-11
2.69714e-11
6.3753e-11
2.26577e-11
6.60241e-11
1.8243e-11
6.72151e-11
1.3816e-11
6.71772e-11
9.5539e-12
6.55675e-11
5.67778e-12
6.15642e-11
2.57597e-12
5.36784e-11
6.95499e-13
3.92696e-11
1.56146e-11
1.47126e-13
1.44703e-11
-2.55573e-13
3.9713e-11
-1.48675e-12
5.64508e-11
-3.20121e-12
6.60925e-11
-5.26287e-12
7.21886e-11
-7.52423e-12
7.66455e-11
-1.00294e-11
7.99815e-11
-1.27548e-11
8.2165e-11
-1.56605e-11
8.31185e-11
-1.86768e-11
8.27781e-11
-2.17812e-11
8.11887e-11
-2.49269e-11
7.84174e-11
-2.80895e-11
7.45731e-11
-3.12233e-11
6.97356e-11
-3.42933e-11
6.39917e-11
-3.7254e-11
5.74272e-11
-4.00652e-11
5.01584e-11
-4.2688e-11
4.23321e-11
-4.50783e-11
3.41188e-11
-4.72007e-11
2.57228e-11
-4.90078e-11
1.73488e-11
-5.04652e-11
9.21923e-12
-5.15216e-11
1.52758e-12
-5.2145e-11
-5.5321e-12
-5.22894e-11
-1.18199e-11
-5.19325e-11
-1.72211e-11
-5.10328e-11
-2.17024e-11
-4.95685e-11
-2.52581e-11
-4.75059e-11
-2.79401e-11
-4.48395e-11
-2.98081e-11
-4.15631e-11
-3.09599e-11
-3.77014e-11
-3.1489e-11
-3.32823e-11
-3.15105e-11
-2.83585e-11
-3.11243e-11
-2.29839e-11
-3.04316e-11
-1.72291e-11
-2.95044e-11
-1.11666e-11
-2.83983e-11
-4.88132e-12
-2.71376e-11
1.54018e-12
-2.57317e-11
8.00807e-12
-2.41761e-11
1.44385e-11
-2.24659e-11
2.07552e-11
-2.05933e-11
2.68867e-11
-1.85489e-11
3.27727e-11
-1.63336e-11
3.83568e-11
-1.39561e-11
4.35959e-11
-1.14414e-11
4.84461e-11
-8.81683e-12
5.28786e-11
-6.12867e-12
5.68602e-11
-3.41662e-12
6.03739e-11
-7.32037e-13
6.33916e-11
1.89309e-12
6.59026e-11
4.41969e-12
6.78826e-11
6.83904e-12
6.93313e-11
9.13678e-12
7.02363e-11
1.13353e-11
7.06155e-11
1.34512e-11
7.04724e-11
1.55445e-11
6.98409e-11
1.76667e-11
6.87386e-11
1.99044e-11
6.72139e-11
2.23176e-11
6.53003e-11
2.49849e-11
6.30577e-11
2.79498e-11
6.05285e-11
3.12615e-11
5.77666e-11
3.49261e-11
5.47993e-11
3.89436e-11
5.16488e-11
4.3269e-11
4.83217e-11
4.78226e-11
4.48227e-11
5.24813e-11
4.1158e-11
5.70997e-11
3.73175e-11
6.15127e-11
3.33057e-11
6.5508e-11
2.91024e-11
6.88592e-11
2.47224e-11
7.1315e-11
2.01738e-11
7.2682e-11
1.55517e-11
7.27215e-11
1.09803e-11
7.10653e-11
6.71775e-12
6.67543e-11
3.15031e-12
5.81744e-11
8.59028e-13