/*--------------------------------*- C++ -*----------------------------------*\
| =========                 |                                                 |
| \\      /  F ield         | OpenFOAM: The Open Source CFD Toolbox           |
|  \\    /   O peration     | Version:  2412                                  |
|   \\  /    A nd           | Website:  www.openfoam.com                      |
|    \\/     M anipulation  |                                                 |
\*---------------------------------------------------------------------------*/
FoamFile
{
    version     2.0;
    format      ascii;
    arch        "LSB;label=32;scalar=64";
    class       volScalarField;
    location    "8.35";
    object      p;
}
// * * * * * * * * * * * * * * * * * * * * * * * * * * * * * * * * * * * * * //

dimensions      [1 -1 -2 0 0 0 0];

internalField   nonuniform List<scalar> 
6400
(
7099.05
7098.68
7097.88
7096.68
7095.12
7093.25
7091.16
7088.95
7086.7
7084.52
7082.51
7080.73
7079.25
7078.14
7077.43
7077.15
7077.3
7077.89
7078.89
7080.29
7082.05
7084.12
7086.45
7088.99
7091.69
7094.49
7097.33
7100.17
7102.96
7105.65
7108.21
7110.6
7112.79
7114.76
7116.48
7117.96
7119.16
7120.08
7120.72
7121.07
7121.12
7120.87
7120.33
7119.5
7118.38
7116.98
7115.31
7113.39
7111.24
7108.89
7106.36
7103.7
7100.94
7098.13
7095.33
7092.59
7089.96
7087.51
7085.3
7083.37
7081.77
7080.56
7079.76
7079.4
7079.48
7080.02
7080.99
7082.36
7084.09
7086.12
7088.38
7090.79
7093.24
7095.64
7097.89
7099.9
7101.57
7102.84
7103.69
7104.09
6736.44
6736.05
6735.23
6733.99
6732.36
6730.43
6728.26
6725.96
6723.63
6721.37
6719.28
6717.44
6715.92
6714.77
6714.04
6713.75
6713.91
6714.51
6715.54
6716.98
6718.78
6720.9
6723.28
6725.88
6728.64
6731.49
6734.39
6737.28
6740.11
6742.83
6745.42
6747.84
6750.05
6752.04
6753.79
6755.27
6756.48
6757.41
6758.05
6758.4
6758.45
6758.21
6757.67
6756.83
6755.7
6754.29
6752.6
6750.67
6748.49
6746.11
6743.54
6740.84
6738.03
6735.18
6732.32
6729.52
6726.84
6724.33
6722.06
6720.08
6718.44
6717.19
6716.36
6715.99
6716.07
6716.62
6717.62
6719.03
6720.82
6722.91
6725.25
6727.73
6730.27
6732.76
6735.09
6737.17
6738.89
6740.22
6741.09
6741.5
6374.25
6373.82
6372.94
6371.61
6369.86
6367.78
6365.44
6362.96
6360.46
6358.04
6355.8
6353.83
6352.21
6350.99
6350.21
6349.9
6350.07
6350.7
6351.79
6353.3
6355.19
6357.41
6359.91
6362.62
6365.49
6368.45
6371.45
6374.43
6377.35
6380.16
6382.81
6385.28
6387.54
6389.57
6391.35
6392.85
6394.08
6395.03
6395.68
6396.03
6396.09
6395.84
6395.29
6394.45
6393.3
6391.87
6390.15
6388.18
6385.95
6383.51
6380.87
6378.08
6375.18
6372.22
6369.25
6366.33
6363.53
6360.91
6358.52
6356.44
6354.72
6353.4
6352.52
6352.12
6352.2
6352.78
6353.83
6355.33
6357.22
6359.45
6361.94
6364.6
6367.32
6369.98
6372.49
6374.71
6376.56
6377.97
6378.9
6379.34
6012.49
6012.03
6011.05
6009.58
6007.64
6005.32
6002.71
5999.96
5997.18
5994.5
5992.04
5989.88
5988.1
5986.76
5985.91
5985.57
5985.75
5986.44
5987.62
5989.24
5991.27
5993.65
5996.31
5999.19
6002.23
6005.36
6008.52
6011.65
6014.7
6017.62
6020.38
6022.93
6025.26
6027.35
6029.17
6030.71
6031.97
6032.93
6033.59
6033.96
6034.02
6033.77
6033.22
6032.36
6031.19
6029.72
6027.97
6025.93
6023.63
6021.09
6018.34
6015.42
6012.38
6009.26
6006.12
6003.03
6000.04
5997.24
5994.68
5992.44
5990.58
5989.15
5988.2
5987.76
5987.84
5988.46
5989.59
5991.22
5993.28
5995.72
5998.45
6001.38
6004.37
6007.33
6010.1
6012.56
6014.6
6016.15
6017.17
6017.66
5651.23
5650.7
5649.6
5647.92
5645.72
5643.06
5640.08
5636.93
5633.77
5630.74
5627.96
5625.53
5623.54
5622.04
5621.1
5620.72
5620.92
5621.68
5622.98
5624.77
5626.99
5629.59
5632.48
5635.6
5638.88
5642.24
5645.61
5648.94
5652.17
5655.24
5658.13
5660.8
5663.23
5665.38
5667.26
5668.85
5670.14
5671.13
5671.81
5672.19
5672.25
5672.01
5671.44
5670.57
5669.37
5667.87
5666.05
5663.93
5661.53
5658.87
5655.98
5652.89
5649.65
5646.31
5642.94
5639.6
5636.37
5633.31
5630.52
5628.06
5626.01
5624.43
5623.36
5622.86
5622.94
5623.61
5624.87
5626.67
5628.96
5631.69
5634.75
5638.04
5641.43
5644.78
5647.93
5650.73
5653.04
5654.79
5655.93
5656.48
5290.52
5289.91
5288.64
5286.7
5284.13
5281.02
5277.53
5273.87
5270.2
5266.71
5263.51
5260.73
5258.47
5256.77
5255.71
5255.29
5255.52
5256.39
5257.85
5259.86
5262.34
5265.22
5268.42
5271.85
5275.43
5279.09
5282.74
5286.32
5289.77
5293.05
5296.11
5298.91
5301.45
5303.69
5305.64
5307.28
5308.61
5309.62
5310.33
5310.72
5310.8
5310.55
5309.98
5309.09
5307.87
5306.31
5304.43
5302.22
5299.7
5296.88
5293.8
5290.5
5287.01
5283.39
5279.72
5276.06
5272.5
5269.12
5266.02
5263.27
5260.96
5259.17
5257.96
5257.37
5257.44
5258.18
5259.59
5261.61
5264.2
5267.31
5270.8
5274.57
5278.47
5282.35
5286.01
5289.26
5291.93
5293.94
5295.25
5295.87
4930.44
4929.75
4928.25
4925.97
4922.92
4919.2
4915.05
4910.71
4906.42
4902.34
4898.63
4895.42
4892.81
4890.87
4889.66
4889.2
4889.49
4890.5
4892.18
4894.47
4897.28
4900.52
4904.11
4907.93
4911.9
4915.93
4919.93
4923.82
4927.55
4931.06
4934.32
4937.29
4939.95
4942.3
4944.32
4946.01
4947.38
4948.43
4949.16
4949.57
4949.66
4949.42
4948.85
4947.94
4946.69
4945.09
4943.13
4940.81
4938.15
4935.15
4931.85
4928.28
4924.48
4920.52
4916.47
4912.41
4908.44
4904.65
4901.15
4898.03
4895.39
4893.33
4891.92
4891.22
4891.27
4892.09
4893.67
4895.99
4898.98
4902.52
4906.54
4910.91
4915.45
4920
4924.33
4928.19
4931.34
4933.69
4935.22
4935.91
4571.08
4570.34
4568.55
4565.77
4562.03
4557.51
4552.52
4547.38
4542.32
4537.55
4533.22
4529.49
4526.47
4524.24
4522.86
4522.36
4522.73
4523.92
4525.89
4528.54
4531.77
4535.48
4539.55
4543.86
4548.31
4552.79
4557.21
4561.47
4565.53
4569.32
4572.81
4575.96
4578.77
4581.22
4583.32
4585.07
4586.48
4587.56
4588.31
4588.74
4588.84
4588.61
4588.05
4587.13
4585.86
4584.21
4582.17
4579.74
4576.92
4573.72
4570.16
4566.27
4562.11
4557.73
4553.22
4548.67
4544.19
4539.88
4535.88
4532.29
4529.24
4526.83
4525.16
4524.31
4524.32
4525.22
4527.02
4529.67
4533.1
4537.2
4541.88
4546.96
4552.26
4557.6
4562.76
4567.43
4571.28
4574.14
4575.96
4576.67
4212.55
4211.79
4209.49
4205.81
4200.96
4195.38
4189.52
4183.62
4177.77
4172.23
4167.17
4162.82
4159.3
4156.73
4155.17
4154.64
4155.12
4156.57
4158.9
4162.01
4165.78
4170.06
4174.73
4179.65
4184.68
4189.7
4194.62
4199.33
4203.77
4207.88
4211.62
4214.97
4217.93
4220.49
4222.66
4224.46
4225.91
4227.01
4227.78
4228.23
4228.35
4228.14
4227.59
4226.68
4225.4
4223.71
4221.6
4219.06
4216.07
4212.64
4208.78
4204.53
4199.93
4195.06
4190
4184.86
4179.75
4174.81
4170.18
4166.01
4162.43
4159.58
4157.58
4156.52
4156.47
4157.46
4159.5
4162.54
4166.5
4171.28
4176.71
4182.58
4188.63
4194.68
4200.67
4206.38
4211.39
4215.2
4217.55
4218.25
3854.99
3854.01
3850.73
3845.49
3839.03
3832.21
3825.58
3819.16
3812.71
3806.29
3800.37
3795.27
3791.18
3788.21
3786.44
3785.9
3786.55
3788.33
3791.13
3794.82
3799.25
3804.25
3809.66
3815.3
3821.03
3826.71
3832.22
3837.45
3842.32
3846.79
3850.81
3854.37
3857.48
3860.14
3862.37
3864.2
3865.67
3866.79
3867.58
3868.04
3868.19
3868.01
3867.49
3866.61
3865.33
3863.63
3861.46
3858.81
3855.65
3851.97
3847.79
3843.12
3838.03
3832.57
3826.85
3820.99
3815.12
3809.41
3804.02
3799.12
3794.88
3791.48
3789.04
3787.71
3787.55
3788.63
3790.95
3794.46
3799.06
3804.62
3810.94
3817.64
3824.29
3830.8
3837.47
3844.36
3850.98
3856.45
3859.84
3860.76
3498.54
3496.92
3492.15
3485.01
3476.76
3468.62
3461.17
3454.16
3446.98
3439.61
3432.68
3426.7
3421.91
3418.48
3416.48
3415.95
3416.83
3419.04
3422.45
3426.87
3432.13
3438.01
3444.32
3450.85
3457.43
3463.88
3470.08
3475.9
3481.27
3486.13
3490.44
3494.22
3497.46
3500.2
3502.46
3504.31
3505.77
3506.9
3507.69
3508.17
3508.35
3508.22
3507.76
3506.93
3505.69
3503.99
3501.8
3499.06
3495.73
3491.8
3487.26
3482.13
3476.46
3470.32
3463.83
3457.11
3450.33
3443.67
3437.34
3431.55
3426.49
3422.38
3419.4
3417.7
3417.39
3418.55
3421.19
3425.26
3430.63
3437.14
3444.49
3452.15
3459.51
3466.58
3474
3482.1
3490.39
3497.75
3502.71
3504.33
3143.48
3140.88
3134.65
3125.97
3116.17
3106.53
3097.73
3089.47
3080.98
3072.26
3064.03
3056.93
3051.29
3047.3
3045.05
3044.57
3045.78
3048.56
3052.73
3058.08
3064.36
3071.33
3078.73
3086.33
3093.92
3101.28
3108.28
3114.79
3120.71
3125.99
3130.61
3134.58
3137.93
3140.71
3142.98
3144.79
3146.23
3147.31
3148.09
3148.59
3148.82
3148.76
3148.38
3147.64
3146.49
3144.86
3142.67
3139.88
3136.41
3132.23
3127.31
3121.67
3115.35
3108.42
3101.01
3093.27
3085.39
3077.59
3070.11
3063.21
3057.14
3052.14
3048.45
3046.27
3045.75
3046.98
3049.99
3054.73
3061.07
3068.77
3077.47
3086.51
3095.22
3103.6
3112.33
3121.79
3131.44
3140.13
3146.52
3149.19
2790.32
2786.79
2779.62
2769.9
2758.68
2747.23
2736.32
2725.74
2715.01
2704.27
2694.28
2685.75
2679.04
2674.38
2671.86
2671.48
2673.13
2676.66
2681.82
2688.33
2695.89
2704.19
2712.93
2721.82
2730.59
2739.04
2746.96
2754.24
2760.76
2766.49
2771.41
2775.55
2778.96
2781.72
2783.93
2785.66
2787
2788.03
2788.78
2789.29
2789.58
2789.61
2789.36
2788.77
2787.76
2786.26
2784.15
2781.36
2777.79
2773.37
2768.07
2761.87
2754.81
2746.98
2738.5
2729.55
2720.35
2711.17
2702.29
2694.02
2686.68
2680.57
2675.98
2673.17
2672.33
2673.61
2677.06
2682.63
2690.17
2699.42
2709.96
2721.07
2732.05
2742.78
2753.6
2764.71
2775.54
2785.03
2792.21
2795.8
2439.72
2435.62
2427.85
2417.19
2404.3
2390.54
2376.79
2362.91
2348.98
2335.44
2323.12
2312.78
2304.78
2299.34
2296.53
2296.34
2298.61
2303.12
2309.54
2317.52
2326.66
2336.6
2346.95
2357.38
2367.58
2377.28
2386.28
2394.41
2401.59
2407.78
2412.97
2417.22
2420.62
2423.29
2425.34
2426.9
2428.1
2429.01
2429.7
2430.22
2430.58
2430.75
2430.68
2430.31
2429.54
2428.24
2426.31
2423.6
2420
2415.39
2409.7
2402.91
2395.04
2386.17
2376.44
2366.06
2355.28
2344.42
2333.83
2323.89
2314.98
2307.47
2301.73
2298.08
2296.79
2298.07
2302
2308.57
2317.61
2328.84
2341.79
2355.75
2369.92
2383.9
2397.55
2410.73
2422.88
2433.13
2440.73
2444.79
2092.38
2087.96
2079.5
2067.73
2052.32
2035.46
2018.28
2000.37
1982.31
1965.22
1949.99
1937.51
1928
1921.66
1918.58
1918.71
1921.85
1927.65
1935.69
1945.51
1956.62
1968.55
1980.86
1993.15
2005.03
2016.21
2026.43
2035.53
2043.41
2050.04
2055.46
2059.74
2063.02
2065.46
2067.24
2068.52
2069.47
2070.2
2070.8
2071.32
2071.76
2072.12
2072.31
2072.25
2071.82
2070.87
2069.24
2066.74
2063.2
2058.47
2052.43
2045.02
2036.25
2026.2
2015.01
2002.94
1990.27
1977.38
1964.71
1952.71
1941.85
1932.58
1925.36
1920.61
1918.69
1919.87
1924.31
1932.04
1942.9
1956.55
1972.5
1990.02
2008.21
2026.17
2043.32
2059.17
2073.14
2084.48
2092.6
2096.87
1749.01
1744.18
1734.55
1720.58
1702.28
1682.07
1660.21
1637.33
1614.53
1592.94
1574.15
1559.28
1548.05
1540.7
1537.39
1538.06
1542.38
1549.89
1560.02
1572.17
1585.71
1600.08
1614.77
1629.28
1643.17
1656.06
1667.68
1677.85
1686.46
1693.52
1699.07
1703.25
1706.25
1708.29
1709.63
1710.49
1711.07
1711.53
1711.98
1712.48
1713.04
1713.65
1714.19
1714.57
1714.63
1714.19
1713.03
1710.91
1707.6
1702.85
1696.51
1688.47
1678.72
1667.33
1654.47
1640.39
1625.45
1610.11
1594.89
1580.37
1567.09
1555.61
1546.5
1540.29
1537.45
1538.38
1543.34
1552.4
1565.4
1581.93
1601.43
1623.14
1646.04
1668.78
1690.23
1709.55
1726.09
1739.14
1748.21
1752.72
1410.54
1405.05
1393.48
1376.58
1354.95
1329.9
1302.43
1273.61
1244.9
1217.9
1194.88
1177.42
1164.25
1155.75
1152.26
1153.78
1159.73
1169.49
1182.32
1197.41
1213.93
1231.27
1248.82
1265.99
1282.25
1297.15
1310.37
1321.7
1331.07
1338.48
1344.05
1347.94
1350.43
1351.84
1352.5
1352.73
1352.78
1352.87
1353.11
1353.57
1354.27
1355.24
1356.22
1357.19
1357.93
1358.22
1357.78
1356.29
1353.41
1348.83
1342.28
1333.62
1322.81
1309.93
1295.12
1278.67
1261.01
1242.68
1224.36
1206.75
1190.5
1176.23
1164.69
1156.56
1152.43
1152.87
1158.3
1168.85
1184.43
1204.42
1228.13
1254.77
1283.28
1311.71
1338.38
1362.15
1382.17
1397.71
1408.33
1413.27
1077.72
1071.28
1057.29
1036.54
1010.02
979.166
945.297
909.599
873.679
839.094
812.399
791.871
776.141
766.265
762.675
765.351
773.442
786.067
802.356
821.179
841.278
862.171
883.144
903.478
922.542
939.795
954.828
967.425
977.545
985.243
990.648
994
995.681
996.128
995.785
995.12
994.465
994.052
994.031
994.476
995.373
996.671
998.253
1000.02
1001.67
1002.96
1003.55
1003.03
1000.9
996.72
990.113
980.856
968.9
954.35
937.322
918.06
897.12
875.181
853.059
831.729
811.876
794.1
779.494
768.907
763.066
762.71
768.452
780.687
799.193
823.249
851.787
884.569
920.387
955.474
988.122
1017.26
1041.73
1060.54
1073.25
1078.86
750.138
741.99
725.112
700.219
668.64
631.327
589.761
545.984
504.913
466.592
431.565
402.67
383.276
371.827
367.937
372.217
382.765
399.22
420.145
444.022
468.257
493.388
518.443
542.519
564.887
584.853
601.895
615.786
626.593
634.429
639.425
641.848
642.256
641.25
639.395
637.494
635.881
634.777
634.349
634.694
635.82
637.651
640.066
642.843
645.698
648.362
650.463
651.437
650.569
647.156
640.707
630.929
617.768
601.416
581.902
559.286
534.401
508.077
481.251
455.48
431.26
408.781
390.198
376.34
368.147
366.696
372.484
386.457
409.209
439.607
475.566
516.856
558.294
601.403
641.139
675.781
704.447
726.657
741.761
748.63
436.543
426.521
405.513
374.079
335.323
292.383
246.288
200.007
157.303
123.997
100.984
87.0602
78.9787
74.8926
74.0501
76.7255
82.9401
92.7567
105.648
121.99
140.375
160.815
182.467
204.241
225.257
244.447
260.979
274.205
284.154
290.882
294.411
295.062
293.476
290.374
286.681
283.367
280.901
279.469
279.034
279.518
280.757
282.588
285.076
288.153
291.713
295.625
299.643
303.002
304.516
303.027
297.945
289.084
276.469
260.336
241.333
219.854
196.942
173.658
150.562
130.538
113.137
98.4751
87.6372
79.5309
74.6229
73.5214
76.0899
82.7879
95.108
113.869
138.187
171.147
214.454
260.072
303.618
342.599
377.485
404.863
423.226
432.111
169.746
161.504
143.759
118.086
87.6325
58.8556
33.745
13.9537
1.19398
-5.64061
-8.14176
-8.81833
-9.05677
-9.15455
-9.15149
-9.06641
-8.93557
-8.69777
-8.14048
-6.38413
-2.79995
2.54562
9.37256
17.4491
26.2862
35.0119
42.849
49.1524
53.8043
56.7403
57.8383
57.3721
55.6691
53.1751
50.6159
48.5864
47.2235
46.551
46.4544
46.8219
47.4822
48.36
49.5461
51.1116
53.0551
55.3422
57.9849
60.6287
62.5388
62.7891
60.9096
56.7605
50.5398
42.459
33.509
24.0614
14.9254
6.86348
0.15972
-4.73815
-7.28396
-8.06792
-8.29035
-8.35638
-8.32181
-8.22455
-8.0599
-7.77385
-7.23484
-6.02656
-2.14219
6.22817
20.4219
40.5629
65.3433
92.95
120.589
141.806
155.662
162.348
18.52
12.7801
5.15949
-2.78769
-8.34889
-10.1361
-9.97602
-9.81383
-9.76361
-9.73321
-9.69309
-9.7144
-9.77039
-9.7799
-9.76176
-9.74986
-9.7545
-9.77833
-9.87053
-9.98807
-9.97498
-9.96604
-10.0407
-10.1536
-10.2423
-10.2977
-10.332
-10.3514
-10.3646
-10.3765
-10.3867
-10.397
-10.388
-10.4155
-10.4592
-10.4974
-10.5374
-10.5771
-10.6094
-10.6204
-10.603
-10.5565
-10.4812
-10.3964
-10.322
-10.2803
-10.3012
-10.3681
-10.4129
-10.4137
-10.3939
-10.3666
-10.3373
-10.2986
-10.2562
-10.1913
-10.0593
-9.91394
-9.89612
-9.93329
-9.72894
-9.45509
-9.30886
-9.19753
-9.08559
-8.97834
-8.88607
-8.81316
-8.69991
-8.8388
-9.00056
-9.03573
-9.422
-10.0908
-9.99555
-7.75355
-2.73532
3.51482
9.01207
12.2757
-10.3422
-10.4188
-10.3982
-10.4255
-10.5637
-10.5756
-10.4908
-10.3819
-10.356
-10.3373
-10.2734
-10.2843
-10.3033
-10.3059
-10.2992
-10.298
-10.3058
-10.3275
-10.3788
-10.4538
-10.5188
-10.5501
-10.5901
-10.654
-10.7147
-10.7567
-10.7854
-10.8082
-10.8302
-10.8514
-10.8667
-10.8753
-10.8773
-10.9039
-10.9393
-10.9721
-11.007
-11.0437
-11.0754
-11.0903
-11.0815
-11.0499
-10.9971
-10.9265
-10.859
-10.8135
-10.8175
-10.8594
-10.89
-10.8834
-10.8484
-10.8179
-10.7923
-10.757
-10.7153
-10.6663
-10.6002
-10.5503
-10.5294
-10.4413
-10.2718
-10.1006
-9.94693
-9.81944
-9.70001
-9.58578
-9.47838
-9.38276
-9.31409
-9.35136
-9.54556
-9.79335
-10.0564
-10.4675
-10.8032
-10.7331
-10.5942
-10.5317
-10.4698
-10.4748
-10.5994
-10.7909
-11.0806
-11.3189
-11.365
-11.2136
-11.0831
-10.9962
-10.9414
-10.8951
-10.8505
-10.8375
-10.8418
-10.8451
-10.836
-10.8287
-10.8346
-10.8603
-10.9036
-10.9612
-11.0157
-11.0637
-11.1131
-11.166
-11.2148
-11.25
-11.2723
-11.2873
-11.3005
-11.3142
-11.3248
-11.3358
-11.3582
-11.3932
-11.4402
-11.4918
-11.5423
-11.5885
-11.6242
-11.6323
-11.611
-11.569
-11.5104
-11.4428
-11.3868
-11.3464
-11.343
-11.3794
-11.4011
-11.3797
-11.3296
-11.2899
-11.26
-11.2308
-11.2038
-11.1813
-11.165
-11.1676
-11.154
-11.0591
-10.9124
-10.772
-10.6263
-10.4878
-10.3605
-10.2453
-10.1448
-10.0681
-10.0446
-10.095
-10.2628
-10.49
-10.7267
-10.9803
-11.193
-11.1983
-11.0203
-10.8561
-10.7733
-10.7505
-11.1532
-11.373
-11.7971
-12.2224
-12.3643
-12.2608
-11.9911
-11.7147
-11.5495
-11.4531
-11.3921
-11.3666
-11.36
-11.3572
-11.3583
-11.3597
-11.3712
-11.3964
-11.433
-11.4773
-11.5259
-11.5743
-11.6215
-11.6695
-11.7149
-11.7519
-11.7779
-11.7932
-11.8008
-11.8049
-11.8073
-11.8136
-11.8414
-11.8875
-11.951
-12.0247
-12.0853
-12.1352
-12.1765
-12.1867
-12.1562
-12.103
-12.0397
-11.9708
-11.9183
-11.887
-11.8853
-11.9192
-11.9346
-11.9055
-11.8435
-11.791
-11.7566
-11.7361
-11.7319
-11.7378
-11.7518
-11.7786
-11.7746
-11.6947
-11.569
-11.4323
-11.2903
-11.1507
-11.024
-10.9186
-10.8391
-10.7912
-10.801
-10.8909
-11.0844
-11.3297
-11.5481
-11.6868
-11.7113
-11.5935
-11.3877
-11.2507
-11.2128
-11.2197
-11.9843
-12.255
-12.7502
-13.217
-13.4166
-13.3404
-13.01
-12.5591
-12.2238
-12.0372
-11.9396
-11.9009
-11.8895
-11.8874
-11.8903
-11.8978
-11.9121
-11.9345
-11.9653
-12.0024
-12.0432
-12.0852
-12.1271
-12.1688
-12.2092
-12.246
-12.277
-12.2992
-12.3138
-12.3213
-12.3233
-12.3268
-12.3512
-12.4067
-12.4888
-12.5881
-12.6546
-12.7002
-12.7312
-12.7369
-12.7015
-12.6386
-12.5683
-12.496
-12.4374
-12.4076
-12.4074
-12.4345
-12.4474
-12.4245
-12.3673
-12.3142
-12.285
-12.2789
-12.293
-12.3123
-12.3392
-12.3754
-12.3813
-12.3177
-12.2093
-12.079
-11.9385
-11.7989
-11.6772
-11.5897
-11.5438
-11.547
-11.5932
-11.7418
-11.9956
-12.253
-12.4351
-12.5067
-12.4213
-12.2227
-12.0101
-11.8832
-11.8404
-11.8372
-12.8337
-13.1397
-13.6412
-14.0874
-14.2876
-14.2451
-13.9205
-13.3948
-12.9317
-12.6383
-12.4867
-12.4336
-12.42
-12.4184
-12.4224
-12.4312
-12.4457
-12.4665
-12.4935
-12.5254
-12.5607
-12.5977
-12.635
-12.6721
-12.7081
-12.7414
-12.771
-12.7976
-12.8202
-12.8382
-12.8522
-12.8661
-12.8946
-12.9544
-13.0487
-13.1533
-13.2306
-13.267
-13.2717
-13.2584
-13.2169
-13.1478
-13.0706
-12.9973
-12.938
-12.9038
-12.9049
-12.9295
-12.9408
-12.9269
-12.8874
-12.8476
-12.8328
-12.8394
-12.8573
-12.8768
-12.9059
-12.9434
-12.9559
-12.9149
-12.8332
-12.7261
-12.5992
-12.4662
-12.3518
-12.2825
-12.2732
-12.3365
-12.4584
-12.6622
-12.9421
-13.1935
-13.3297
-13.3321
-13.1773
-12.933
-12.7209
-12.6025
-12.5537
-12.5424
-13.4858
-13.7965
-14.2871
-14.7135
-14.916
-14.8886
-14.6061
-14.0796
-13.5773
-13.23
-13.0367
-12.9677
-12.9541
-12.9518
-12.9555
-12.9638
-12.9771
-12.9956
-13.0191
-13.0468
-13.0776
-13.1102
-13.1435
-13.1769
-13.2095
-13.2406
-13.2697
-13.2967
-13.322
-13.3471
-13.3723
-13.3986
-13.4323
-13.4866
-13.5687
-13.6649
-13.7418
-13.7754
-13.7624
-13.726
-13.6708
-13.5956
-13.5193
-13.4483
-13.3981
-13.3668
-13.3745
-13.4073
-13.425
-13.4227
-13.4014
-13.3813
-13.3806
-13.3928
-13.4086
-13.4273
-13.4568
-13.4947
-13.5166
-13.5037
-13.4587
-13.3814
-13.2754
-13.1561
-13.0535
-13.0011
-13.0219
-13.1308
-13.3007
-13.5558
-13.8623
-14.0997
-14.1944
-14.1385
-13.9232
-13.6531
-13.4516
-13.3442
-13.2897
-13.2688
-13.95
-14.2042
-14.6704
-15.0913
-15.303
-15.2979
-15.0606
-14.5901
-14.1087
-13.7672
-13.5741
-13.5022
-13.4899
-13.4861
-13.4881
-13.4948
-13.5063
-13.5225
-13.543
-13.5672
-13.5943
-13.6234
-13.6535
-13.6839
-13.714
-13.7433
-13.7714
-13.7988
-13.8257
-13.8535
-13.8842
-13.9181
-13.9532
-13.9913
-14.0394
-14.0977
-14.1509
-14.1784
-14.1659
-14.122
-14.0565
-13.983
-13.9132
-13.8504
-13.814
-13.7972
-13.8154
-13.8643
-13.8959
-13.9122
-13.9102
-13.911
-13.9214
-13.9355
-13.9514
-13.9716
-14.0021
-14.0425
-14.0784
-14.0953
-14.0848
-14.0387
-13.9575
-13.8585
-13.774
-13.7374
-13.7828
-13.9114
-14.0875
-14.3979
-14.7439
-14.9615
-15.0213
-14.9268
-14.6693
-14.3836
-14.1896
-14.0824
-14.0146
-13.9812
-14.386
-14.5263
-14.8896
-15.2656
-15.4719
-15.4894
-15.3101
-14.9375
-14.5387
-14.2468
-14.0941
-14.0359
-14.0225
-14.0186
-14.0189
-14.0239
-14.0336
-14.0477
-14.0656
-14.087
-14.1111
-14.1372
-14.1646
-14.1926
-14.2205
-14.2481
-14.2751
-14.3017
-14.3288
-14.3575
-14.3897
-14.427
-14.4649
-14.4935
-14.5094
-14.5215
-14.5358
-14.5467
-14.5413
-14.5103
-14.4513
-14.3727
-14.2917
-14.2371
-14.2124
-14.2111
-14.242
-14.2899
-14.343
-14.3863
-14.4152
-14.4401
-14.4597
-14.4761
-14.4927
-14.5131
-14.5435
-14.5863
-14.6359
-14.6787
-14.6992
-14.6818
-14.6261
-14.5509
-14.4873
-14.4702
-14.5416
-14.6835
-14.8835
-15.2402
-15.5905
-15.7802
-15.8149
-15.7006
-15.4167
-15.1136
-14.9114
-14.7894
-14.7034
-14.6587
-14.886
-14.9517
-15.1452
-15.3915
-15.5469
-15.5612
-15.4275
-15.1677
-14.8882
-14.6937
-14.6
-14.564
-14.5518
-14.5475
-14.5468
-14.5505
-14.5586
-14.5708
-14.5867
-14.6057
-14.6275
-14.6513
-14.6765
-14.7023
-14.7284
-14.7543
-14.7799
-14.8051
-14.8305
-14.8569
-14.8868
-14.9221
-14.9594
-14.9867
-14.9915
-14.978
-14.9635
-14.9588
-14.9587
-14.9443
-14.8958
-14.8121
-14.7175
-14.6503
-14.6303
-14.6388
-14.6724
-14.7159
-14.7857
-14.8608
-14.9268
-14.9734
-15.0007
-15.0193
-15.0347
-15.0511
-15.076
-15.117
-15.174
-15.2348
-15.2806
-15.2901
-15.2598
-15.2086
-15.1695
-15.1766
-15.2741
-15.4415
-15.7046
-16.0679
-16.3948
-16.561
-16.5819
-16.4598
-16.1564
-15.8136
-15.5795
-15.4405
-15.3364
-15.283
-15.4172
-15.4561
-15.5298
-15.6201
-15.668
-15.6383
-15.5383
-15.3858
-15.2417
-15.1525
-15.1092
-15.0879
-15.0776
-15.0726
-15.0712
-15.0739
-15.0807
-15.0914
-15.1057
-15.123
-15.143
-15.165
-15.1884
-15.2126
-15.237
-15.2614
-15.2854
-15.309
-15.3323
-15.3557
-15.3798
-15.4058
-15.435
-15.4594
-15.4656
-15.4509
-15.4302
-15.4203
-15.4253
-15.4263
-15.3898
-15.3028
-15.1925
-15.1091
-15.0851
-15.1083
-15.1286
-15.1645
-15.2498
-15.3566
-15.4518
-15.5128
-15.5464
-15.5662
-15.5784
-15.5862
-15.5979
-15.6278
-15.6813
-15.7478
-15.8093
-15.8435
-15.8372
-15.8113
-15.7974
-15.8313
-15.9545
-16.1593
-16.4726
-16.8369
-17.1603
-17.3151
-17.3286
-17.1989
-16.8642
-16.454
-16.1718
-16.0104
-15.8981
-15.8415
-15.9276
-15.9645
-15.9958
-15.9996
-15.9596
-15.8822
-15.8004
-15.7277
-15.6785
-15.651
-15.6288
-15.6108
-15.5999
-15.5938
-15.5917
-15.5937
-15.5996
-15.6092
-15.6222
-15.6384
-15.6571
-15.6779
-15.7001
-15.723
-15.7461
-15.7691
-15.7916
-15.8136
-15.835
-15.8556
-15.8755
-15.8947
-15.9138
-15.9301
-15.9378
-15.9331
-15.9212
-15.9145
-15.9215
-15.9304
-15.9049
-15.8217
-15.7041
-15.6116
-15.5716
-15.6231
-15.6426
-15.6548
-15.7459
-15.8739
-15.9863
-16.0565
-16.0971
-16.1195
-16.1277
-16.1234
-16.1152
-16.1219
-16.1568
-16.2153
-16.2802
-16.3299
-16.3458
-16.3418
-16.3531
-16.414
-16.5653
-16.8108
-17.1392
-17.544
-17.8876
-18.04
-18.0474
-17.9061
-17.4966
-17.0106
-16.6822
-16.4926
-16.3855
-16.3337
-16.4112
-16.4442
-16.4702
-16.4635
-16.4007
-16.3107
-16.2402
-16.2024
-16.186
-16.1682
-16.1461
-16.1285
-16.1171
-16.1105
-16.1081
-16.1096
-16.1149
-16.1238
-16.1362
-16.1516
-16.1696
-16.1897
-16.2112
-16.2334
-16.2556
-16.2776
-16.299
-16.3196
-16.3394
-16.358
-16.3754
-16.3911
-16.4048
-16.4161
-16.4238
-16.4265
-16.4238
-16.4204
-16.4256
-16.4356
-16.418
-16.3452
-16.2337
-16.1449
-16.0922
-16.1685
-16.1898
-16.1785
-16.2639
-16.3995
-16.5215
-16.6006
-16.6517
-16.6807
-16.6874
-16.6724
-16.6426
-16.618
-16.6164
-16.6502
-16.7076
-16.7594
-16.7875
-16.7999
-16.8314
-16.9154
-17.0939
-17.3778
-17.7325
-18.1812
-18.5477
-18.7052
-18.7057
-18.5262
-18.0531
-17.4948
-17.1184
-16.9152
-16.8134
-16.7717
-16.8782
-16.8997
-16.9166
-16.9097
-16.8705
-16.8067
-16.7581
-16.7233
-16.6998
-16.6766
-16.6559
-16.64
-16.6292
-16.6227
-16.6203
-16.6217
-16.6267
-16.6354
-16.6474
-16.6626
-16.6805
-16.7006
-16.7221
-16.7443
-16.7662
-16.7877
-16.8084
-16.828
-16.8463
-16.8634
-16.8789
-16.8924
-16.9037
-16.9125
-16.9187
-16.9221
-16.9228
-16.9213
-16.9252
-16.9339
-16.9214
-16.8625
-16.7714
-16.6957
-16.6568
-16.7312
-16.72
-16.712
-16.7795
-16.9161
-17.0492
-17.1402
-17.2069
-17.2486
-17.2597
-17.2421
-17.1979
-17.1505
-17.1042
-17.0993
-17.1292
-17.1669
-17.1891
-17.2039
-17.2422
-17.3389
-17.5321
-17.8433
-18.2292
-18.6979
-19.0822
-19.2648
-19.2555
-19.0252
-18.4946
-17.8836
-17.499
-17.3031
-17.213
-17.18
-17.3467
-17.3575
-17.3597
-17.3499
-17.3248
-17.2903
-17.2564
-17.2274
-17.2008
-17.1789
-17.1608
-17.1467
-17.1368
-17.1308
-17.1286
-17.1301
-17.1351
-17.1439
-17.1561
-17.1716
-17.19
-17.2109
-17.2333
-17.2564
-17.2792
-17.3011
-17.3216
-17.3405
-17.3575
-17.3729
-17.3861
-17.3971
-17.4057
-17.4117
-17.4151
-17.4163
-17.4159
-17.4152
-17.4178
-17.4246
-17.4161
-17.3733
-17.3181
-17.2535
-17.2614
-17.2832
-17.2512
-17.235
-17.278
-17.4081
-17.5571
-17.6678
-17.753
-17.8122
-17.8341
-17.8224
-17.7858
-17.7175
-17.6365
-17.5831
-17.5693
-17.5791
-17.5824
-17.582
-17.6107
-17.7032
-17.8917
-18.1981
-18.5832
-19.0289
-19.4144
-19.6172
-19.6027
-19.3248
-18.7673
-18.1992
-17.8593
-17.6876
-17.6087
-17.5873
-17.8219
-17.8259
-17.8212
-17.8101
-17.7921
-17.768
-17.7425
-17.7186
-17.6966
-17.6776
-17.6619
-17.6495
-17.6406
-17.6353
-17.6334
-17.6351
-17.6404
-17.6495
-17.6624
-17.6788
-17.6985
-17.7211
-17.7456
-17.771
-17.796
-17.8193
-17.8404
-17.8589
-17.8747
-17.8879
-17.8983
-17.906
-17.9108
-17.9132
-17.9134
-17.9118
-17.9092
-17.9068
-17.907
-17.9107
-17.9064
-17.8808
-17.8762
-17.8375
-17.8458
-17.8331
-17.7971
-17.7325
-17.7463
-17.8713
-18.0366
-18.1711
-18.2739
-18.3477
-18.3791
-18.3679
-18.3262
-18.26
-18.169
-18.0804
-18.0244
-18.0004
-17.9807
-17.9582
-17.9659
-18.0346
-18.1929
-18.4609
-18.8011
-19.1706
-19.4998
-19.6811
-19.6633
-19.3934
-18.9234
-18.4895
-18.2299
-18.0929
-18.0335
-18.0263
-18.2982
-18.2989
-18.2918
-18.281
-18.2662
-18.2476
-18.2277
-18.2082
-18.1901
-18.1739
-18.1602
-18.1492
-18.1413
-18.1365
-18.135
-18.137
-18.1428
-18.1525
-18.1664
-18.1844
-18.2065
-18.2321
-18.2604
-18.2897
-18.3183
-18.3444
-18.3669
-18.3854
-18.3997
-18.41
-18.4166
-18.4198
-18.4199
-18.4176
-18.4137
-18.4088
-18.4036
-18.3986
-18.3961
-18.3965
-18.397
-18.3904
-18.4288
-18.4419
-18.4231
-18.3879
-18.3208
-18.2011
-18.2024
-18.3168
-18.4854
-18.6359
-18.7511
-18.8328
-18.8693
-18.8565
-18.8078
-18.7392
-18.6532
-18.5533
-18.475
-18.4264
-18.3869
-18.3463
-18.3305
-18.3639
-18.4734
-18.6778
-18.9466
-19.2237
-19.4653
-19.6013
-19.585
-19.3875
-19.0819
-18.8048
-18.6286
-18.5323
-18.5048
-18.515
-18.774
-18.7731
-18.7658
-18.7561
-18.7439
-18.7294
-18.7134
-18.6974
-18.682
-18.6681
-18.6561
-18.6464
-18.6392
-18.6349
-18.6337
-18.6361
-18.6424
-18.653
-18.6684
-18.689
-18.7149
-18.7455
-18.7795
-18.8148
-18.849
-18.8794
-18.9042
-18.9226
-18.9346
-18.9408
-18.9418
-18.9389
-18.9328
-18.9247
-18.9158
-18.9071
-18.8993
-18.892
-18.8871
-18.8851
-18.8883
-18.896
-18.9537
-19.0073
-18.9795
-18.9277
-18.8519
-18.7161
-18.6808
-18.7697
-18.9221
-19.0644
-19.175
-19.2529
-19.2881
-19.2753
-19.2263
-19.159
-19.0807
-18.9907
-18.9116
-18.8558
-18.8046
-18.7537
-18.72
-18.7165
-18.7741
-18.9091
-19.1027
-19.3027
-19.4724
-19.5764
-19.5804
-19.4797
-19.3205
-19.1696
-19.062
-19.0093
-19.0056
-19.0188
-19.2504
-19.2486
-19.243
-19.2348
-19.2246
-19.2127
-19.1995
-19.1861
-19.173
-19.161
-19.1503
-19.1415
-19.1349
-19.1309
-19.1299
-19.1325
-19.1393
-19.151
-19.1686
-19.1931
-19.225
-19.2632
-19.3053
-19.3487
-19.3902
-19.4263
-19.4541
-19.4722
-19.4809
-19.4811
-19.4745
-19.4632
-19.4492
-19.4341
-19.4193
-19.4062
-19.3957
-19.387
-19.3799
-19.3755
-19.3767
-19.3901
-19.447
-19.5157
-19.4999
-19.4534
-19.3976
-19.273
-19.1963
-19.2604
-19.3815
-19.4827
-19.5592
-19.6156
-19.6423
-19.6321
-19.5929
-19.5381
-19.4726
-19.4029
-19.3398
-19.29
-19.2371
-19.1839
-19.1401
-19.1079
-19.123
-19.1986
-19.329
-19.4743
-19.6019
-19.6943
-19.731
-19.7094
-19.652
-19.5879
-19.5373
-19.5139
-19.5164
-19.5174
-19.7288
-19.7269
-19.7226
-19.7158
-19.7072
-19.6972
-19.6862
-19.6748
-19.6635
-19.6528
-19.6431
-19.635
-19.6287
-19.6248
-19.6238
-19.6264
-19.6336
-19.6465
-19.667
-19.6973
-19.7378
-19.7855
-19.8367
-19.8886
-19.9382
-19.9809
-20.0128
-20.0314
-20.0366
-20.0295
-20.0133
-19.9919
-19.9684
-19.9449
-19.9231
-19.9046
-19.891
-19.8804
-19.8716
-19.8651
-19.861
-19.872
-19.9171
-19.9888
-19.9823
-19.9446
-19.9068
-19.8257
-19.7647
-19.8009
-19.8768
-19.9185
-19.9382
-19.9563
-19.9667
-19.9596
-19.9355
-19.8994
-19.8557
-19.8102
-19.7699
-19.7305
-19.6841
-19.635
-19.5879
-19.5425
-19.5287
-19.5613
-19.6427
-19.7513
-19.858
-19.9478
-20.0111
-20.0435
-20.0536
-20.0515
-20.0424
-20.0283
-20.015
-20.0067
-20.2097
-20.208
-20.2045
-20.1988
-20.1915
-20.183
-20.1735
-20.1636
-20.1536
-20.144
-20.1351
-20.1274
-20.1212
-20.1172
-20.1158
-20.1181
-20.1252
-20.1393
-20.1636
-20.2014
-20.2522
-20.3095
-20.3678
-20.4264
-20.4838
-20.5337
-20.5708
-20.5922
-20.5956
-20.5818
-20.5557
-20.5232
-20.4892
-20.4568
-20.4272
-20.4023
-20.384
-20.369
-20.3586
-20.3513
-20.3433
-20.3458
-20.3729
-20.4296
-20.4278
-20.4029
-20.3818
-20.3562
-20.3459
-20.3675
-20.3915
-20.375
-20.3393
-20.3159
-20.3064
-20.3002
-20.2894
-20.2723
-20.2514
-20.2293
-20.2074
-20.1797
-20.1438
-20.1026
-20.0585
-20.0145
-19.9874
-19.9935
-20.0381
-20.1155
-20.2067
-20.2983
-20.3801
-20.4472
-20.5026
-20.5387
-20.5437
-20.5235
-20.4945
-20.4861
-20.6927
-20.6913
-20.6883
-20.6835
-20.6771
-20.6697
-20.6615
-20.6527
-20.6437
-20.6349
-20.6265
-20.619
-20.6128
-20.6083
-20.6063
-20.6077
-20.6141
-20.6291
-20.6574
-20.7029
-20.7643
-20.828
-20.8896
-20.9543
-21.0216
-21.0813
-21.1257
-21.15
-21.1524
-21.1319
-21.096
-21.0525
-21.0087
-20.9684
-20.9315
-20.9007
-20.8775
-20.8545
-20.8406
-20.8359
-20.8266
-20.8167
-20.8207
-20.845
-20.8443
-20.8327
-20.8338
-20.8599
-20.8916
-20.9103
-20.893
-20.8359
-20.7658
-20.7144
-20.6893
-20.681
-20.679
-20.6769
-20.6732
-20.6665
-20.6566
-20.6402
-20.6145
-20.5826
-20.5472
-20.5126
-20.4869
-20.4818
-20.5061
-20.5599
-20.6315
-20.7189
-20.8121
-20.902
-20.9777
-21.021
-21.0208
-20.9892
-20.9648
-20.9574
-21.1776
-21.1765
-21.1737
-21.1696
-21.164
-21.1576
-21.1502
-21.1423
-21.1341
-21.1258
-21.1178
-21.1104
-21.1039
-21.0988
-21.0957
-21.0956
-21.1007
-21.1153
-21.1454