/*--------------------------------*- C++ -*----------------------------------*\
| =========                 |                                                 |
| \\      /  F ield         | OpenFOAM: The Open Source CFD Toolbox           |
|  \\    /   O peration     | Version:  2412                                  |
|   \\  /    A nd           | Website:  www.openfoam.com                      |
|    \\/     M anipulation  |                                                 |
\*---------------------------------------------------------------------------*/
FoamFile
{
    version     2.0;
    format      ascii;
    arch        "LSB;label=32;scalar=64";
    class       surfaceScalarField;
    location    "68";
    object      phi;
}
// * * * * * * * * * * * * * * * * * * * * * * * * * * * * * * * * * * * * * //

dimensions      [0 3 -1 0 0 0 0];

oriented        oriented;

internalField   nonuniform List<scalar> 
12640
(
-1.64082e-08
1.9665e-08
-4.15651e-08
3.56601e-08
-6.55152e-08
3.62196e-08
-7.97347e-08
2.8283e-08
-8.16907e-08
1.64312e-08
-6.97348e-08
2.64908e-09
-4.37742e-08
-1.12608e-08
-4.16437e-09
-2.50015e-08
4.84454e-08
-3.75366e-08
1.13108e-07
-4.9525e-08
1.89132e-07
-6.01286e-08
2.74883e-07
-6.93902e-08
3.69113e-07
-7.64158e-08
4.70585e-07
-8.25783e-08
5.7811e-07
-8.67773e-08
6.90191e-07
-8.99917e-08
8.059e-07
-9.12904e-08
9.24314e-07
-9.20103e-08
1.04529e-06
-9.16609e-08
1.16518e-06
-8.8581e-08
1.28256e-06
-8.34596e-08
1.39709e-06
-7.84704e-08
1.50857e-06
-7.24868e-08
1.6184e-06
-6.82704e-08
1.72401e-06
-6.12066e-08
1.8201e-06
-4.9866e-08
1.90534e-06
-3.64709e-08
1.98211e-06
-2.57471e-08
2.05069e-06
-1.4889e-08
2.1059e-06
8.09996e-10
2.14674e-06
1.84871e-08
2.17463e-06
3.48038e-08
2.18975e-06
5.13734e-08
2.19304e-06
6.68799e-08
2.18177e-06
8.52303e-08
2.15022e-06
1.08188e-07
2.10238e-06
1.28031e-07
2.04137e-06
1.44321e-07
1.96005e-06
1.66993e-07
1.86098e-06
1.8643e-07
1.75066e-06
1.99558e-07
1.62852e-06
2.12622e-07
1.49354e-06
2.2641e-07
1.34708e-06
2.38208e-07
1.19233e-06
2.47123e-07
1.0304e-06
2.53888e-07
8.62663e-07
2.59337e-07
6.91613e-07
2.61435e-07
5.20025e-07
2.61085e-07
3.49705e-07
2.57977e-07
1.83066e-07
2.52991e-07
2.19263e-08
2.45164e-07
-1.31295e-07
2.35735e-07
-2.74987e-07
2.23522e-07
-4.0762e-07
2.11009e-07
-5.27819e-07
1.95929e-07
-6.32303e-07
1.79292e-07
-7.19769e-07
1.59599e-07
-7.88959e-07
1.4059e-07
-8.40186e-07
1.19383e-07
-8.72606e-07
9.96967e-08
-8.86778e-07
7.733e-08
-8.81575e-07
5.69338e-08
-8.58901e-07
3.41824e-08
-8.17747e-07
1.42118e-08
-7.6162e-07
-7.4311e-09
-6.91557e-07
-2.33198e-08
-6.10365e-07
-4.1418e-08
-5.1924e-07
-5.27634e-08
-4.23442e-07
-6.4376e-08
-3.25352e-07
-6.73952e-08
-2.30534e-07
-6.99828e-08
-1.41772e-07
-6.35603e-08
-6.49095e-08
-5.61993e-08
-2.96294e-09
-4.08139e-08
3.89199e-08
-2.48266e-08
5.85156e-08
-3.30859e-09
5.4137e-08
1.62129e-08
2.94267e-08
3.13487e-08
2.60584e-08
-2.8713e-08
4.89301e-08
-6.79636e-08
8.37266e-08
-9.74921e-08
7.63883e-08
-1.02679e-07
4.5552e-08
-7.69854e-08
2.051e-09
-1.61803e-08
-4.69237e-08
8.0548e-08
-9.78382e-08
2.12923e-07
-1.47394e-07
3.79268e-07
-1.94617e-07
5.77848e-07
-2.3811e-07
8.05788e-07
-2.78123e-07
1.05978e-06
-3.12107e-07
1.33619e-06
-3.41076e-07
1.63229e-06
-3.64663e-07
1.94452e-06
-3.83588e-07
2.26926e-06
-3.96218e-07
2.60261e-06
-4.04319e-07
2.94206e-06
-4.07829e-07
3.28438e-06
-4.08381e-07
3.62595e-06
-4.0125e-07
3.96284e-06
-3.8944e-07
4.2922e-06
-3.73516e-07
4.61058e-06
-3.54301e-07
4.91679e-06
-3.34243e-07
5.20797e-06
-3.10118e-07
5.47747e-06
-2.74337e-07
5.71998e-06
-2.31766e-07
5.93544e-06
-1.89839e-07
6.12077e-06
-1.45347e-07
6.2707e-06
-8.96667e-08
6.38236e-06
-2.94694e-08
6.45528e-06
3.12897e-08
6.4878e-06
9.34331e-08
6.47855e-06
1.57103e-07
6.42542e-06
2.25167e-07
6.32453e-06
3.01604e-07
6.17634e-06
3.72984e-07
5.98192e-06
4.40166e-07
5.73966e-06
5.14373e-07
5.45352e-06
5.81454e-07
5.12562e-06
6.38583e-07
4.75786e-06
6.93897e-07
4.35556e-06
7.43177e-07
3.92596e-06
7.83559e-07
3.47171e-06
8.16951e-07
2.99681e-06
8.44764e-07
2.50639e-06
8.645e-07
2.00852e-06
8.73414e-07
1.50918e-06
8.72085e-07
1.01416e-06
8.63331e-07
5.29012e-07
8.45202e-07
6.08758e-08
8.18726e-07
-3.85377e-07
7.83509e-07
-8.03455e-07
7.41507e-07
-1.19049e-06
6.9378e-07
-1.53947e-06
6.39478e-07
-1.84569e-06
5.75261e-07
-2.10312e-06
5.05832e-07
-2.31106e-06
4.3181e-07
-2.4667e-06
3.57426e-07
-2.5714e-06
2.79681e-07
-2.62207e-06
2.02161e-07
-2.62069e-06
1.20639e-07
-2.56645e-06
4.34605e-08
-2.46462e-06
-3.48545e-08
-2.31625e-06
-1.04345e-07
-2.12961e-06
-1.70272e-07
-1.90841e-06
-2.23379e-07
-1.66345e-06
-2.69926e-07
-1.40057e-06
-2.98275e-07
-1.1328e-06
-3.16134e-07
-8.67784e-07
-3.1321e-07
-6.1965e-07
-2.98185e-07
-3.96873e-07
-2.62489e-07
-2.12032e-07
-2.15792e-07
-7.20958e-08
-1.52567e-07
1.5341e-08
-8.34221e-08
4.94641e-08
-1.0924e-08
3.6226e-08
4.37601e-08
4.90332e-08
-2.71888e-08
7.56459e-08
-5.70156e-08
1.20229e-07
-6.54533e-08
9.40893e-08
-3.62169e-08
2.66338e-08
3.92954e-08
-6.35951e-08
1.66311e-07
-1.65251e-07
3.4669e-07
-2.70274e-07
5.79828e-07
-3.73867e-07
8.63888e-07
-4.7193e-07
1.19586e-06
-5.63581e-07
1.5716e-06
-6.46097e-07
1.98585e-06
-7.18157e-07
2.43476e-06
-7.7966e-07
2.91324e-06
-8.31352e-07
3.41539e-06
-8.70661e-07
3.93467e-06
-8.98222e-07
4.46642e-06
-9.15053e-07
5.0064e-06
-9.24537e-07
5.55025e-06
-9.25483e-07
6.09315e-06
-9.15415e-07
6.62885e-06
-8.92888e-07
7.15063e-06
-8.60887e-07
7.65343e-06
-8.19337e-07
8.13325e-06
-7.74358e-07
8.58754e-06
-7.21411e-07
9.00912e-06
-6.5074e-07
9.39015e-06
-5.63961e-07
9.72513e-06
-4.72406e-07
1.00091e-05
-3.71702e-07
1.02384e-05
-2.56249e-07
1.04088e-05
-1.3095e-07
1.05165e-05
-1.71103e-09
1.05594e-05
1.32419e-07
1.05326e-05
2.72393e-07
1.04335e-05
4.20205e-07
1.02612e-05
5.76709e-07
1.00135e-05
7.29788e-07
9.68888e-06
8.78363e-07
9.29298e-06
1.02896e-06
8.82982e-06
1.16679e-06
8.29751e-06
1.29638e-06
7.6996e-06
1.41908e-06
7.04848e-06
1.52418e-06
6.3516e-06
1.61118e-06
5.6163e-06
1.6838e-06
4.84985e-06
1.74204e-06
4.06164e-06
1.78363e-06
3.26123e-06
1.80297e-06
2.45911e-06
1.80239e-06
1.66385e-06
1.7838e-06
8.85325e-07
1.74759e-06
1.33662e-07
1.69048e-06
-5.82422e-07
1.61812e-06
-1.257e-06
1.53017e-06
-1.8786e-06
1.42789e-06
-2.43924e-06
1.30729e-06
-2.9311e-06
1.17264e-06
-3.35063e-06
1.02441e-06
-3.69132e-06
8.69709e-07
-3.95263e-06
7.07716e-07
-4.13018e-06
5.43778e-07
-4.22465e-06
3.7284e-07
-4.23304e-06
2.02157e-07
-4.16112e-06
3.24558e-08
-4.01148e-06
-1.26246e-07
-3.79279e-06
-2.77354e-07
-3.50938e-06
-4.0948e-07
-3.1751e-06
-5.26081e-07
-2.79883e-06
-6.1445e-07
-2.39704e-06
-6.79352e-07
-1.98154e-06
-7.08797e-07
-1.57098e-06
-7.10081e-07
-1.17927e-06
-6.73477e-07
-8.24403e-07
-6.08693e-07
-5.19295e-07
-5.10267e-07
-2.77099e-07
-3.90203e-07
-1.05697e-07
-2.49751e-07
-8.22054e-09
-1.08038e-07
2.0277e-08
1.10913e-08
5.30237e-08
-1.80032e-08
9.34323e-08
-2.49696e-08
1.33353e-07
2.96459e-09
7.49298e-08
8.15924e-08
-4.20909e-08
2.20031e-07
-1.92737e-07
4.23595e-07
-3.60177e-07
6.94222e-07
-5.33603e-07
1.03139e-06
-7.04222e-07
1.43236e-06
-8.66788e-07
1.89306e-06
-1.01731e-06
2.40819e-06
-1.1538e-06
2.97244e-06
-1.27323e-06
3.58069e-06
-1.3776e-06
4.22492e-06
-1.46225e-06
4.8966e-06
-1.52688e-06
5.58921e-06
-1.57167e-06
6.29775e-06
-1.60203e-06
7.01702e-06
-1.61867e-06
7.74003e-06
-1.62155e-06
8.45928e-06
-1.60456e-06
9.16613e-06
-1.56773e-06
9.85447e-06
-1.51405e-06
1.05175e-05
-1.44548e-06
1.11484e-05
-1.36525e-06
1.17409e-05
-1.27176e-06
1.22906e-05
-1.15476e-06
1.27886e-05
-1.01319e-06
1.32254e-05
-8.56369e-07
1.35921e-05
-6.81282e-07
1.38866e-05
-4.87416e-07
1.41044e-05
-2.79242e-07
1.42396e-05
-6.00211e-08
1.42879e-05
1.67482e-07
1.42424e-05
4.0875e-07
1.4098e-05
6.62012e-07
1.38571e-05
9.23115e-07
1.3516e-05
1.18261e-06
1.30708e-05
1.44102e-06
1.25311e-05
1.69048e-06
1.19022e-05
1.92198e-06
1.11848e-05
2.14253e-06
1.03887e-05
2.34675e-06
9.5228e-06
2.52374e-06
8.59047e-06
2.67953e-06
7.6018e-06
2.80883e-06
6.57257e-06
2.90846e-06
5.51752e-06
2.97485e-06
4.44711e-06
3.0093e-06
3.3721e-06
3.01122e-06
2.30854e-06
2.98013e-06
1.26885e-06
2.91649e-06
2.65465e-07
2.82182e-06
-6.93248e-07
2.70056e-06
-1.59705e-06
2.55632e-06
-2.42994e-06
2.37763e-06
-3.17907e-06
2.1714e-06
-3.84162e-06
1.94366e-06
-4.40886e-06
1.69806e-06
-4.87545e-06
1.43388e-06
-5.2329e-06
1.15955e-06
-5.48042e-06
8.74598e-07
-5.61534e-06
5.87305e-07
-5.64185e-06
2.95672e-07
-5.55994e-06
1.41789e-08
-5.37908e-06
-2.56409e-07
-5.10379e-06
-5.03824e-07
-4.74807e-06
-7.29066e-07
-4.32115e-06
-9.17065e-07
-3.84116e-06
-1.06972e-06
-3.32216e-06
-1.17171e-06
-2.78607e-06
-1.22781e-06
-2.25022e-06
-1.22621e-06
-1.73694e-06
-1.17528e-06
-1.26372e-06
-1.06804e-06
-8.49212e-07
-9.17062e-07
-5.0723e-07
-7.22746e-07
-2.48766e-07
-5.0319e-07
-8.06603e-08
-2.73165e-07
-8.91095e-10
-7.25244e-08
3.55155e-08
-5.74966e-09
9.90321e-08
1.71482e-08
1.16452e-07
8.9596e-08
1.14499e-08
2.25763e-07
-1.68277e-07
4.34e-07
-3.91007e-07
7.19e-07
-6.36029e-07
1.08217e-06
-8.88119e-07
1.5223e-06
-1.13671e-06
2.03588e-06
-1.37264e-06
2.6179e-06
-1.59157e-06
3.26317e-06
-1.78976e-06
3.96497e-06
-1.9648e-06
4.71566e-06
-2.1158e-06
5.50524e-06
-2.23793e-06
6.32576e-06
-2.33043e-06
7.16979e-06
-2.39676e-06
8.03395e-06
-2.44382e-06
8.90871e-06
-2.46924e-06
9.78351e-06
-2.46921e-06
1.06494e-05
-2.44215e-06
1.15002e-05
-2.38758e-06
1.23288e-05
-2.31039e-06
1.31272e-05
-2.20876e-06
1.38853e-05
-2.08671e-06
1.4594e-05
-1.9406e-06
1.52475e-05
-1.76619e-06
1.58411e-05
-1.56024e-06
1.63627e-05
-1.32829e-06
1.67984e-05
-1.06302e-06
1.71451e-05
-7.7501e-07
1.74e-05
-4.67932e-07
1.75538e-05
-1.41225e-07
1.76007e-05
2.00849e-07
1.75317e-05
5.64209e-07
1.73419e-05
9.45754e-07
1.70355e-05
1.33033e-06
1.66115e-05
1.71424e-06
1.6066e-05
2.09834e-06
1.54063e-05
2.4684e-06
1.46321e-05
2.81884e-06
1.37518e-05
3.14902e-06
1.2782e-05
3.44507e-06
1.17297e-05
3.70727e-06
1.05984e-05
3.94297e-06
9.39847e-06
4.14339e-06
8.14665e-06
4.29497e-06
6.86082e-06
4.39608e-06
5.55518e-06
4.44894e-06
4.24589e-06
4.45425e-06
2.94859e-06
4.40833e-06
1.68125e-06
4.31365e-06
4.54402e-07
4.17456e-06
-7.14566e-07
3.99404e-06
-1.81453e-06
3.77562e-06
-2.83037e-06
3.51083e-06
-3.74962e-06
3.20175e-06
-4.56035e-06
2.86336e-06
-5.25695e-06
2.49532e-06
-5.83023e-06
2.10413e-06
-6.27486e-06
1.69021e-06
-6.58441e-06
1.2658e-06
-6.76258e-06
8.35161e-07
-6.80854e-06
4.07995e-07
-6.72885e-06
-1.19733e-08
-6.52642e-06
-4.0752e-07
-6.21377e-06
-7.77291e-07
-5.80051e-06
-1.10356e-06
-5.30513e-06
-1.38492e-06
-4.7413e-06
-1.60419e-06
-4.1317e-06
-1.76148e-06
-3.49565e-06
-1.84135e-06
-2.8587e-06
-1.84959e-06
-2.24211e-06
-1.77656e-06
-1.66902e-06
-1.63329e-06
-1.15826e-06
-1.41798e-06
-7.26373e-07
-1.14835e-06
-3.87228e-07
-8.34477e-07
-1.50039e-07
-5.06351e-07
-2.23723e-08
-2.03765e-07
-3.127e-09
7.3848e-09
9.18601e-08
6.25381e-08
6.76374e-08
1.82959e-07
-9.94218e-08
3.79874e-07
-3.54393e-07
6.6046e-07
-6.60783e-07
1.0278e-06
-9.92886e-07
1.48228e-06
-1.33293e-06
2.02159e-06
-1.66662e-06
2.64119e-06
-1.98357e-06
3.33588e-06
-2.2769e-06
4.10033e-06
-2.54407e-06
4.92507e-06
-2.77757e-06
5.79851e-06
-2.97681e-06
6.71349e-06
-3.13828e-06
7.66243e-06
-3.26367e-06
8.63823e-06
-3.35427e-06
9.63282e-06
-3.41852e-06
1.06348e-05
-3.44838e-06
1.16327e-05
-3.44331e-06
1.26199e-05
-3.40344e-06
1.35894e-05
-3.33045e-06
1.45335e-05
-3.22563e-06
1.54426e-05
-3.08796e-06
1.63038e-05
-2.91511e-06
1.71048e-05
-2.70747e-06
1.78409e-05
-2.46455e-06
1.85075e-05
-2.18618e-06
1.90941e-05
-1.87067e-06
1.95861e-05
-1.50602e-06
1.99737e-05
-1.10872e-06
2.02535e-05
-6.8816e-07
2.0418e-05
-2.39151e-07
2.04585e-05
2.33526e-07
2.03667e-05
7.36375e-07
2.01391e-05
1.26016e-06
1.97796e-05
1.78441e-06
1.92837e-05
2.30954e-06
1.86547e-05
2.83441e-06
1.78935e-05
3.34172e-06
1.70014e-05
3.82757e-06
1.5989e-05
4.28167e-06
1.48712e-05
4.68687e-06
1.3654e-05
5.04972e-06
1.23497e-05
5.37578e-06
1.09729e-05
5.64944e-06
9.5396e-06
5.85918e-06
8.06407e-06
6.00195e-06
6.56534e-06
6.0785e-06
5.06111e-06
6.08735e-06
3.56949e-06
6.02823e-06
2.10692e-06
5.90105e-06
6.92896e-07
5.71213e-06
-6.54284e-07
5.46003e-06
-1.91311e-06
5.15117e-06
-3.07814e-06
4.78638e-06
-4.13772e-06
4.36977e-06
-5.07739e-06
3.90407e-06
-5.88269e-06
3.39857e-06
-6.54902e-06
2.85804e-06
-7.06807e-06
2.2925e-06
-7.43905e-06
1.7074e-06
-7.65704e-06
1.11997e-06
-7.72838e-06
5.34138e-07
-7.65352e-06
-3.4413e-08
-7.44325e-06
-5.77386e-07
-7.10426e-06
-1.07601e-06
-6.65363e-06
-1.52484e-06
-6.10473e-06
-1.90296e-06
-5.48063e-06
-2.20732e-06
-4.79977e-06
-2.41848e-06
-4.08857e-06
-2.53753e-06
-3.36994e-06
-2.55097e-06
-2.67104e-06
-2.46678e-06
-2.01498e-06
-2.27965e-06
-1.42376e-06
-2.00514e-06
-9.16159e-07
-1.64944e-06
-5.06536e-07
-1.23843e-06
-2.11454e-07
-7.97244e-07
-3.99495e-08
-3.78188e-07
-5.98862e-08
2.00125e-08
7.25351e-08
1.07372e-07
-1.23625e-08
2.75551e-07
-2.56882e-07
5.33274e-07
-6.00202e-07
8.8541e-07
-1.00066e-06
1.33325e-06
-1.42914e-06
1.8754e-06
-1.86393e-06
2.50852e-06
-2.28925e-06
3.22681e-06
-2.69159e-06
4.02436e-06
-3.0645e-06
4.89309e-06
-3.40171e-06
5.82196e-06
-3.69472e-06
6.80003e-06
-3.94192e-06
7.82219e-06
-4.14678e-06
8.88098e-06
-4.30714e-06
9.96694e-06
-4.42419e-06
1.10649e-05
-4.49803e-06
1.21651e-05
-4.52943e-06
1.32612e-05
-4.51824e-06
1.4346e-05
-4.46667e-06
1.54115e-05
-4.37249e-06
1.64455e-05
-4.23586e-06
1.74377e-05
-4.05439e-06
1.83758e-05
-3.82639e-06
1.92479e-05
-3.55021e-06
2.0047e-05
-3.23233e-06
2.07686e-05
-2.87274e-06
2.14015e-05
-2.46543e-06
2.19335e-05
-1.99587e-06
2.23512e-05
-1.47951e-06
2.26474e-05
-9.31318e-07
2.28168e-05
-3.50055e-07
2.28506e-05
2.65284e-07
2.27409e-05
9.17186e-07
2.24862e-05
1.59445e-06
2.20831e-05
2.27255e-06
2.15304e-05
2.95496e-06
2.0831e-05
3.63228e-06
1.99851e-05
4.2916e-06
1.89969e-05
4.92387e-06
1.78773e-05
5.51396e-06
1.66354e-05
6.04447e-06
1.52845e-05
6.51975e-06
1.38418e-05
6.9397e-06
1.2323e-05
7.29163e-06
1.07417e-05
7.5643e-06
9.1152e-06
7.7533e-06
7.46206e-06
7.85546e-06
5.80327e-06
7.87019e-06
4.15657e-06
7.79656e-06
2.54133e-06
7.63715e-06
9.77125e-07
7.3933e-06
-5.10846e-07
7.06343e-06
-1.89987e-06
6.65014e-06
-3.18267e-06
6.17706e-06
-4.3553e-06
5.64355e-06
-5.39778e-06
5.04509e-06
-6.29614e-06
4.38636e-06
-7.03588e-06
3.6832e-06
-7.62036e-06
2.95118e-06
-8.04264e-06
2.19957e-06
-8.30187e-06
1.43601e-06
-8.39648e-06
6.82562e-07
-8.33561e-06
-5.30613e-08
-8.12249e-06
-7.48802e-07
-7.77269e-06
-1.39517e-06
-7.29641e-06
-1.969e-06
-6.71509e-06
-2.46224e-06
-6.04656e-06
-2.85147e-06
-5.31724e-06
-3.13277e-06
-4.54959e-06
-3.28776e-06
-3.77187e-06
-3.31978e-06
-3.00956e-06
-3.21867e-06
-2.28917e-06
-2.99638e-06
-1.63465e-06
-2.65454e-06
-1.06568e-06
-2.21554e-06
-6.02116e-07
-1.69674e-06
-2.58917e-07
-1.1366e-06
-5.58699e-08
-5.8579e-07
-1.30155e-07
3.16605e-08
4.23079e-08
1.4913e-07
-1.21613e-07
3.63126e-07
-4.59096e-07
6.79075e-07
-9.03439e-07
1.09983e-06
-1.40841e-06
1.62427e-06
-1.94096e-06
2.24924e-06
-2.47742e-06
2.96968e-06
-2.99829e-06
3.77851e-06
-3.48988e-06
4.66727e-06
-3.9421e-06
5.62293e-06
-4.3467e-06
6.63646e-06
-4.69653e-06
7.70353e-06
-4.9967e-06
8.81777e-06
-5.24696e-06
9.96629e-06
-5.44157e-06
1.1135e-05
-5.57729e-06
1.23089e-05
-5.6557e-06
1.34833e-05
-5.68593e-06
1.46545e-05
-5.6712e-06
1.58132e-05
-5.60556e-06
1.69462e-05
-5.48522e-06
1.80411e-05
-5.3091e-06
1.90882e-05
-5.07962e-06
2.00792e-05
-4.79349e-06
2.10043e-05
-4.45064e-06
2.18513e-05
-4.0513e-06
2.26118e-05
-3.6029e-06
2.32737e-05
-3.09329e-06
2.38294e-05
-2.51554e-06
2.42685e-05
-1.87519e-06
2.4575e-05
-1.19107e-06
2.47454e-05
-4.67104e-07
2.47709e-05
2.97042e-07
2.46473e-05
1.10677e-06
2.43683e-05
1.9454e-06
2.39279e-05
2.7916e-06
2.33301e-05
3.63717e-06
2.25756e-05
4.47734e-06
2.16642e-05
5.29849e-06
2.0602e-05
6.08672e-06
1.93985e-05
6.82186e-06
1.8065e-05
7.48662e-06
1.66157e-05
8.0803e-06
1.50697e-05
8.60031e-06
1.3442e-05
9.03512e-06
1.17493e-05
9.37471e-06
1.00085e-05
9.6115e-06
8.24067e-06
9.7414e-06
6.4661e-06
9.76143e-06
4.70628e-06
9.6731e-06
2.97947e-06
9.47794e-06
1.3075e-06
9.17839e-06
-2.88614e-07
8.7685e-06
-1.78382e-06
8.25248e-06
-3.16031e-06
7.65519e-06
-4.40974e-06
6.99254e-06
-5.52837e-06
6.25492e-06
-6.49704e-06
5.44289e-06
-7.30232e-06
4.56521e-06
-7.93597e-06
3.65712e-06
-8.40257e-06
2.72689e-06
-8.69505e-06
1.7855e-06
-8.8175e-06
8.48945e-07
-8.77083e-06
-5.71765e-08
-8.56717e-06
-9.20969e-07
-8.21354e-06
-1.71627e-06
-7.72922e-06
-2.43102e-06
-7.12872e-06
-3.03814e-06
-6.43729e-06
-3.52789e-06
-5.67606e-06
-3.87663e-06
-4.87358e-06
-4.08178e-06
-4.05539e-06
-4.12745e-06
-3.25003e-06
-4.02033e-06
-2.48449e-06
-3.75622e-06
-1.78364e-06
-3.35325e-06
-1.17231e-06
-2.82274e-06
-6.68112e-07
-2.19638e-06
-2.94243e-07
-1.50758e-06
-6.55524e-08
-8.1621e-07
-2.09011e-07
4.16766e-08
2.64406e-09
1.86672e-07
-2.57739e-07
4.43294e-07
-7.03452e-07
8.14046e-07
-1.26142e-06
1.29867e-06
-1.87993e-06
1.89523e-06
-2.52464e-06
2.59758e-06
-3.16746e-06
3.39841e-06
-3.78704e-06
4.28764e-06
-4.36692e-06
5.25275e-06
-4.89609e-06
6.28176e-06
-5.36432e-06
7.36865e-06
-5.77125e-06
8.50771e-06
-6.12248e-06
9.68903e-06
-6.41457e-06
1.08989e-05
-6.63669e-06
1.21237e-05
-6.78683e-06
1.33526e-05
-6.8683e-06
1.45806e-05
-6.89715e-06
1.5801e-05
-6.87429e-06
1.7006e-05
-6.7914e-06
1.81786e-05
-6.6382e-06
1.93086e-05
-6.41942e-06
2.03888e-05
-6.13846e-06
2.14119e-05
-5.79627e-06
2.23742e-05
-5.38859e-06
2.3254e-05
-4.90513e-06
2.40341e-05
-4.3546e-06
2.47076e-05
-3.73772e-06
2.52749e-05
-3.04811e-06
2.57228e-05
-2.28546e-06
2.60345e-05
-1.45979e-06
2.61998e-05
-5.85593e-07
2.62155e-05
3.35615e-07
2.60747e-05
1.30613e-06
2.57733e-05
2.31193e-06
2.53064e-05
3.32902e-06
2.4676e-05
4.34426e-06
2.38813e-05
5.35363e-06
2.29232e-05
6.34385e-06
2.1809e-05
7.29248e-06
2.05496e-05
8.17741e-06
1.91553e-05
8.98037e-06
1.76424e-05
9.69655e-06
1.6027e-05
1.0321e-05
1.43268e-05
1.08433e-05
1.25588e-05
1.12513e-05
1.07424e-05
1.15378e-05
8.89755e-06
1.16954e-05
7.0479e-06
1.17209e-05
5.21345e-06
1.16156e-05
3.41615e-06
1.13833e-05
1.67406e-06
1.10251e-05
8.51149e-09
1.05382e-05
-1.56092e-06
9.92153e-06
-3.00521e-06
9.19687e-06
-4.3112e-06
8.38937e-06
-5.47356e-06
7.50542e-06
-6.4906e-06
6.53788e-06
-7.34412e-06
5.49277e-06
-8.02202e-06
4.39605e-06
-8.51977e-06
3.28178e-06
-8.84381e-06
2.15468e-06
-8.98929e-06
1.03707e-06
-8.96462e-06
-5.12113e-08
-8.7731e-06
-1.08158e-06
-8.43055e-06
-2.03819e-06
-7.94778e-06
-2.89095e-06
-7.34751e-06
-3.62488e-06
-6.64782e-06
-4.21119e-06
-5.87593e-06
-4.64064e-06
-5.05602e-06
-4.89117e-06
-4.21757e-06
-4.96233e-06
-3.38849e-06
-4.84307e-06
-2.59657e-06
-4.54555e-06
-1.87005e-06
-4.0747e-06
-1.23173e-06
-3.45706e-06
-7.06862e-07
-2.71648e-06
-3.12311e-07
-1.89745e-06
-7.28484e-08
-1.05818e-06
-2.92039e-07
5.01583e-08
-4.52103e-08
2.19605e-07
-4.1864e-07
5.16337e-07
-9.87936e-07
9.38475e-07
-1.67125e-06
1.48392e-06
-2.41309e-06
2.14889e-06
-3.17609e-06
2.92172e-06
-3.92806e-06
3.7918e-06
-4.64451e-06
4.74726e-06
-5.31018e-06
5.77609e-06
-5.91175e-06
6.86955e-06
-6.44456e-06
8.01869e-06
-6.90725e-06
9.20804e-06
-7.2977e-06
1.04265e-05
-7.61809e-06
1.16682e-05
-7.86337e-06
1.29257e-05
-8.02826e-06
1.41922e-05
-8.11813e-06
1.54559e-05
-8.14236e-06
1.67023e-05
-8.1028e-06
1.7924e-05
-7.99399e-06
1.91118e-05
-7.80732e-06
2.02578e-05
-7.54535e-06
2.13549e-05
-7.21652e-06
2.23972e-05
-6.81647e-06
2.33677e-05
-6.33675e-06
2.42524e-05
-5.76564e-06
2.50353e-05
-5.11339e-06
2.57124e-05
-4.38666e-06
2.62754e-05
-3.58089e-06
2.67154e-05
-2.6912e-06
2.70182e-05
-1.72571e-06
2.71746e-05
-6.97918e-07
2.71758e-05
3.80267e-07
2.70192e-05
1.51502e-06
2.66977e-05
2.68999e-06
2.62136e-05
3.8783e-06
2.55608e-05
5.0629e-06
2.4742e-05
6.2445e-06
2.37573e-05
7.40562e-06
2.26178e-05
8.51401e-06
2.13356e-05
9.54653e-06
1.99148e-05
1.04916e-05
1.83682e-05
1.1335e-05
1.67164e-05
1.20683e-05
1.49779e-05
1.26784e-05
1.31722e-05
1.31555e-05
1.13171e-05
1.34913e-05
9.43483e-06
1.36773e-05
7.54746e-06
1.37066e-05
5.6777e-06
1.35844e-05
3.84509e-06
1.33123e-05
2.075e-06
1.28932e-05
3.79041e-07
1.23267e-05
-1.2232e-06
1.1616e-05
-2.71138e-06
1.07717e-05
-4.05533e-06
9.81671e-06
-5.24628e-06
8.77171e-06
-6.28182e-06
7.64499e-06
-7.16355e-06
6.43549e-06
-7.8714e-06
5.15896e-06
-8.39965e-06
3.85274e-06
-8.74641e-06
2.54132e-06
-8.91864e-06
1.23789e-06
-8.91463e-06
-2.70426e-08
-8.74658e-06
-1.23185e-06
-8.42088e-06
-2.34417e-06
-7.95685e-06
-3.34431e-06
-7.36866e-06
-4.19915e-06
-6.68079e-06
-4.89286e-06
-5.91441e-06
-5.39719e-06
-5.09795e-06
-5.70412e-06
-4.25846e-06
-5.79474e-06
-3.42509e-06
-5.67327e-06
-2.62765e-06
-5.33674e-06
-1.89217e-06
-4.80542e-06
-1.24803e-06
-4.09569e-06
-7.14726e-07
-3.24393e-06
-3.18431e-07
-2.29023e-06
-7.28605e-08
-1.30183e-06
-3.75925e-07
5.71525e-08
-1.00299e-07
2.49871e-07
-6.03514e-07
5.856e-07
-1.31184e-06
1.05999e-06
-2.13379e-06
1.66748e-06
-3.00868e-06
2.39628e-06
-3.89221e-06
3.23083e-06
-4.74994e-06
4.15894e-06
-5.55966e-06
5.16795e-06
-6.30563e-06
6.24694e-06
-6.97722e-06
7.38535e-06
-7.56896e-06
8.57227e-06
-8.08015e-06
9.79404e-06
-8.50312e-06
1.10339e-05
-8.84219e-06
1.22889e-05
-9.1016e-06
1.35604e-05
-9.28251e-06
1.48421e-05
-9.38178e-06
1.61163e-05
-9.39898e-06
1.73677e-05
-9.33282e-06
1.85823e-05
-9.19018e-06
1.97662e-05
-8.97178e-06
2.09143e-05
-8.67419e-06
2.20102e-05
-8.29211e-06
2.30395e-05
-7.82395e-06
2.39863e-05
-7.26379e-06
2.48496e-05
-6.6094e-06
2.562e-05
-5.86055e-06
2.62819e-05
-5.02406e-06
2.6824e-05
-4.0961e-06
2.72412e-05
-3.08077e-06
2.75267e-05
-1.97836e-06
2.76671e-05
-8.00554e-07
2.76519e-05
4.36359e-07
2.748e-05
1.7312e-06
2.7149e-05
3.07131e-06
2.66531e-05
4.4271e-06
2.59887e-05
5.78492e-06
2.51585e-05
7.1377e-06
2.41698e-05
8.46366e-06
2.30307e-05
9.72576e-06
2.17522e-05
1.08995e-05
2.03384e-05
1.19817e-05
1.87962e-05
1.29594e-05
1.71413e-05
1.38052e-05
1.54003e-05
1.45042e-05
1.35925e-05
1.50486e-05
1.17386e-05
1.54322e-05
9.85791e-06
1.56446e-05
7.97191e-06
1.56802e-05
6.1011e-06
1.55412e-05
4.27097e-06
1.52289e-05
2.50477e-06
1.47427e-05
8.20682e-07
1.40957e-05
-7.76929e-07
1.32938e-05
-2.26779e-06
1.23402e-05
-3.62967e-06
1.12492e-05
-4.83619e-06
1.00445e-05
-5.88199e-06
8.74803e-06
-6.76607e-06
7.37299e-06
-7.49002e-06
5.92524e-06
-8.03718e-06
4.43793e-06
-8.40887e-06
2.93947e-06
-8.60268e-06
1.45766e-06
-8.62768e-06
1.40394e-08
-8.48538e-06
-1.35631e-06
-8.1914e-06
-2.62922e-06
-7.75511e-06
-3.76853e-06
-7.19778e-06
-4.75216e-06
-6.53636e-06
-5.54612e-06
-5.79665e-06
-6.13464e-06
-5.0026e-06
-6.49142e-06
-4.18256e-06
-6.61162e-06
-3.36577e-06
-6.48313e-06
-2.58023e-06
-6.1173e-06
-1.85724e-06
-5.522e-06
-1.22048e-06
-4.72661e-06
-6.98865e-07
-3.76055e-06
-3.07632e-07
-2.67455e-06
-7.23378e-08
-1.53781e-06
-4.55404e-07
6.36182e-08
-1.6203e-07
2.802e-07
-8.13091e-07
6.5809e-07
-1.67815e-06
1.18978e-06
-2.65278e-06
1.85888e-06
-3.66655e-06
2.64735e-06
-4.66853e-06
3.53798e-06
-5.6282e-06
4.51552e-06
-6.52422e-06
5.56688e-06
-7.34331e-06
6.68015e-06
-8.0759e-06
7.844e-06
-8.718e-06
9.04605e-06
-9.26672e-06
1.02776e-05
-9.71911e-06
1.15279e-05
-1.00755e-05
1.27897e-05
-1.03456e-05
1.40573e-05
-1.05313e-05
1.53227e-05
-1.06285e-05
1.65754e-05
-1.0632e-05
1.7806e-05
-1.05446e-05
1.90051e-05
-1.03696e-05
2.0167e-05
-1.01146e-05
2.12837e-05
-9.77166e-06
2.23417e-05
-9.33068e-06
2.33261e-05
-8.79039e-06
2.42319e-05
-8.15163e-06
2.50558e-05
-7.41467e-06
2.57893e-05
-6.57525e-06
2.64181e-05
-5.63168e-06
2.69313e-05
-4.58649e-06
2.73207e-05
-3.44508e-06
2.75799e-05
-2.20999e-06
2.76992e-05
-8.89111e-07
2.76682e-05
5.01948e-07
2.74841e-05
1.95412e-06
2.71454e-05
3.45227e-06
2.66458e-05
4.97309e-06
2.59822e-05
6.49934e-06
2.51601e-05
8.01451e-06
2.41874e-05
9.49325e-06
2.3069e-05
1.09045e-05
2.18089e-05
1.22225e-05
2.04188e-05
1.34381e-05
1.89106e-05
1.45356e-05
1.72977e-05
1.549e-05
1.55946e-05
1.62805e-05
1.38241e-05
1.68946e-05
1.20104e-05
1.73211e-05
1.01743e-05
1.75571e-05
8.32773e-06
1.76022e-05
6.49678e-06
1.74486e-05
4.70633e-06
1.70942e-05
2.97681e-06
1.65451e-05
1.32477e-06
1.58167e-05
-2.34399e-07
1.49222e-05
-1.69191e-06
1.38631e-05
-3.02934e-06
1.26499e-05
-4.23007e-06
1.12997e-05
-5.273e-06
9.84121e-06
-6.15649e-06
8.29657e-06
-6.87842e-06
6.68509e-06
-7.43894e-06
5.02563e-06
-7.82706e-06
3.35345e-06
-8.0485e-06
1.69515e-06
-8.10148e-06
8.45505e-08
-7.99775e-06
-1.45112e-06
-7.74171e-06
-2.87352e-06
-7.35094e-06
-4.15557e-06
-6.83745e-06
-5.25865e-06
-6.2237e-06
-6.15946e-06
-5.52903e-06
-6.82482e-06
-4.77889e-06
-7.24069e-06
-3.99945e-06
-7.3857e-06
-3.21799e-06
-7.26091e-06
-2.46591e-06
-6.86357e-06
-1.76911e-06
-6.2138e-06
-1.15972e-06
-5.33127e-06
-6.57026e-07
-4.25623e-06
-2.88456e-07
-3.03821e-06
-6.49201e-08
-1.75719e-06
-5.26697e-07
7.1189e-08
-2.31482e-07
3.16767e-07
-1.05175e-06
7.4327e-07
-2.09313e-06
1.3375e-06
-3.23375e-06
2.07016e-06
-4.38748e-06
2.91777e-06
-5.50466e-06
3.85981e-06
-6.55823e-06
4.87909e-06
-7.53104e-06
5.96144e-06
-8.41216e-06
7.09517e-06
-9.19509e-06
8.26881e-06
-9.87612e-06
9.47217e-06
-1.04542e-05
1.06969e-05
-1.09267e-05
1.19358e-05
-1.12969e-05
1.31793e-05
-1.15707e-05
1.44191e-05
-1.17526e-05
1.56471e-05
-1.18376e-05
1.68564e-05
-1.18232e-05
1.80407e-05
-1.17107e-05
1.91933e-05
-1.15048e-05
2.0301e-05
-1.12047e-05
2.13527e-05
-1.08074e-05
2.2345e-05
-1.03079e-05
2.32723e-05
-9.70309e-06
2.41276e-05
-8.99081e-06
2.48996e-05
-8.17081e-06
2.55803e-05
-7.23963e-06
2.61607e-05
-6.19573e-06
2.66327e-05
-5.03998e-06
2.69859e-05
-3.77805e-06
2.72134e-05
-2.41442e-06
2.73077e-05
-9.5829e-07
2.72607e-05
5.77565e-07
2.70672e-05
2.17931e-06
2.67249e-05
3.82997e-06
2.62292e-05
5.50731e-06
2.55798e-05
7.1911e-06
2.47804e-05
8.85856e-06
2.38378e-05
1.04836e-05
2.27555e-05
1.20368e-05
2.15379e-05
1.34934e-05
2.01959e-05
1.48353e-05
1.87456e-05
1.60434e-05
1.71993e-05
1.70945e-05
1.55719e-05
1.7968e-05
1.38802e-05
1.86467e-05
1.21448e-05
1.91181e-05
1.03842e-05
1.93785e-05
8.62006e-06
1.94285e-05
6.87076e-06
1.92587e-05
5.15754e-06
1.88689e-05
3.49542e-06
1.82669e-05
1.90573e-06
1.74661e-05
4.04769e-07
1.64783e-05
-9.91404e-07
1.53138e-05
-2.27567e-06
1.39826e-05
-3.43318e-06
1.25039e-05
-4.45465e-06
1.09001e-05
-5.32385e-06
9.20069e-06
-6.0426e-06
7.42909e-06
-6.60377e-06
5.61133e-06
-7.01e-06
3.77483e-06
-7.25462e-06
1.95604e-06
-7.34612e-06
1.8402e-07
-7.28433e-06
-1.5024e-06
-7.08292e-06
-3.0722e-06
-6.74873e-06
-4.4839e-06
-6.30022e-06
-5.7079e-06
-5.75149e-06
-6.70539e-06
-5.12425e-06
-7.45373e-06
-4.43954e-06
-7.92294e-06
-3.7214e-06
-8.10311e-06
-2.99794e-06
-7.98077e-06
-2.29455e-06
-7.56406e-06
-1.64406e-06
-6.86117e-06
-1.0691e-06
-5.90128e-06
-6.01492e-07
-4.71926e-06
-2.56351e-07
-3.3749e-06
-5.7777e-08
-1.95501e-06
-5.86604e-07
8.50734e-08
-3.14621e-07
3.7422e-07
-1.3338e-06
8.63248e-07
-2.57108e-06
1.5239e-06
-3.88105e-06
2.32257e-06
-5.17376e-06
3.22911e-06
-6.39975e-06
4.21829e-06
-7.53565e-06
5.27058e-06
-8.57119e-06
6.37228e-06
-9.50098e-06
7.51185e-06
-1.03207e-05
8.67974e-06
-1.10295e-05
9.86699e-06
-1.16261e-05
1.10659e-05
-1.21116e-05
1.2271e-05
-1.24868e-05
1.34723e-05
-1.27565e-05
1.46577e-05
-1.2922e-05
1.58215e-05
-1.29859e-05
1.69615e-05
-1.29473e-05
1.80731e-05
-1.28071e-05
1.91489e-05
-1.25654e-05
2.01796e-05
-1.22215e-05
2.11574e-05
-1.17716e-05
2.20767e-05
-1.12141e-05
2.29317e-05
-1.05449e-05
2.37152e-05
-9.76185e-06
2.44189e-05
-8.86158e-06
2.50344e-05
-7.84262e-06
2.55551e-05
-6.70283e-06
2.5973e-05
-5.44394e-06
2.62803e-05
-4.06951e-06
2.64694e-05
-2.58629e-06
2.65342e-05
-1.00315e-06
2.64676e-05
6.66154e-07
2.62654e-05
2.40667e-06
2.59239e-05
4.19899e-06
2.54409e-05
6.02121e-06
2.48159e-05
7.84934e-06
2.40524e-05
9.65832e-06
2.31542e-05
1.142e-05
2.21265e-05
1.31057e-05
2.09743e-05
1.46887e-05
1.97089e-05
1.61464e-05
1.83427e-05
1.74562e-05
1.68902e-05
1.85955e-05
1.53645e-05
1.95426e-05
1.37818e-05
2.02797e-05
1.21569e-05
2.07932e-05
1.05095e-05
2.10775e-05
8.85891e-06
2.11294e-05
7.22379e-06
2.0945e-05
5.61796e-06
2.05246e-05
4.06076e-06
1.98755e-05
2.56689e-06
1.90087e-05
1.15642e-06
1.79369e-05
-1.60234e-07
1.66729e-05
-1.36905e-06
1.52328e-05
-2.46604e-06
1.36349e-05
-3.43787e-06
1.19039e-05
-4.28029e-06
1.00659e-05
-4.98093e-06
8.15139e-06
-5.5431e-06
6.18637e-06
-5.95885e-06
4.20443e-06
-6.23361e-06
2.23663e-06
-6.36308e-06
3.21739e-07
-6.35759e-06
-1.50689e-06
-6.21902e-06
-3.20662e-06
-5.96188e-06
-4.74298e-06
-5.59459e-06
-6.07323e-06
-5.13455e-06
-7.16758e-06
-4.59686e-06
-7.98977e-06
-4.00087e-06
-8.51973e-06
-3.36881e-06
-8.73355e-06
-2.72199e-06
-8.627e-06
-2.08982e-06
-8.19522e-06
-1.49463e-06
-7.45405e-06
-9.69916e-07
-6.42351e-06
-5.35885e-07
-5.14587e-06
-2.25187e-07
-3.68107e-06
-4.48873e-08
-2.12754e-06
-6.3415e-07
1.12176e-07
-4.24694e-07
4.70654e-07
-1.68482e-06
1.04733e-06
-3.13808e-06
1.79366e-06
-4.61512e-06
2.66432e-06
-6.03154e-06
3.62438e-06
-7.34887e-06
4.64961e-06
-8.55091e-06
5.72164e-06
-9.63348e-06
6.82585e-06
-1.05952e-05
7.95223e-06
-1.14366e-05
9.09215e-06
-1.21579e-05
1.02386e-05
-1.27605e-05
1.13868e-05
-1.32454e-05
1.25301e-05
-1.36161e-05
1.36616e-05
-1.38737e-05
1.47742e-05
-1.40205e-05
1.58619e-05
-1.40592e-05
1.69205e-05
-1.39919e-05
1.79452e-05
-1.38178e-05
1.89299e-05
-1.35371e-05
1.98683e-05
-1.31474e-05
2.07549e-05
-1.26469e-05
2.15834e-05
-1.20321e-05
2.23482e-05
-1.13003e-05
2.30434e-05
-1.04478e-05
2.36624e-05
-9.47208e-06
2.41991e-05
-8.37026e-06
2.46466e-05
-7.14171e-06
2.49991e-05
-5.78688e-06
2.52498e-05
-4.31022e-06
2.53932e-05
-2.71784e-06
2.5423e-05
-1.02014e-06
2.53346e-05
7.69887e-07
2.51233e-05
2.63507e-06
2.47868e-05
4.55561e-06
2.43224e-05
6.50764e-06
2.3731e-05
8.46583e-06
2.30143e-05
1.04022e-05
2.21765e-05
1.22878e-05
2.12214e-05
1.40926e-05
2.0156e-05
1.57885e-05
1.89891e-05
1.73493e-05
1.77331e-05
1.87503e-05
1.63996e-05
1.99676e-05
1.50027e-05
2.09796e-05
1.35547e-05
2.17677e-05
1.20708e-05
2.23184e-05
1.05662e-05
2.26232e-05
9.05979e-06
2.26782e-05
7.56549e-06
2.24805e-05
6.09986e-06
2.20325e-05
4.67553e-06
2.13404e-05
3.31051e-06
2.04157e-05
2.01529e-06
1.92707e-05
8.05433e-07
1.79211e-05
-3.13797e-07
1.63842e-05
-1.32984e-06
1.46823e-05
-2.24055e-06
1.28383e-05
-3.03388e-06
1.08815e-05
-3.70995e-06
8.84084e-06
-4.25946e-06
6.7492e-06
-4.6872e-06
4.63737e-06
-4.98645e-06
2.54277e-06
-5.16496e-06
4.99817e-07
-5.22025e-06
-1.44947e-06
-5.1633e-06