/*--------------------------------*- C++ -*----------------------------------*\
| =========                 |                                                 |
| \\      /  F ield         | OpenFOAM: The Open Source CFD Toolbox           |
|  \\    /   O peration     | Version:  2412                                  |
|   \\  /    A nd           | Website:  www.openfoam.com                      |
|    \\/     M anipulation  |                                                 |
\*---------------------------------------------------------------------------*/
FoamFile
{
    version     2.0;
    format      ascii;
    arch        "LSB;label=32;scalar=64";
    class       surfaceScalarField;
    location    "1.35";
    object      alphaPhi0.gasoline;
}
// * * * * * * * * * * * * * * * * * * * * * * * * * * * * * * * * * * * * * //

dimensions      [0 3 -1 0 0 0 0];

oriented        oriented;

internalField   nonuniform List<scalar> 
12640
(
1.01732e-05
-1.01732e-05
1.97105e-05
-9.55209e-06
2.96014e-05
-9.89054e-06
4.01472e-05
-1.05425e-05
5.16511e-05
-1.15018e-05
6.43019e-05
-1.26504e-05
7.81508e-05
-1.3849e-05
9.34617e-05
-1.53111e-05
0.000110269
-1.68073e-05
0.000128753
-1.8484e-05
0.000148785
-2.00322e-05
0.000170301
-2.15151e-05
0.000193228
-2.29268e-05
0.000217262
-2.40341e-05
0.000242264
-2.50011e-05
0.000267864
-2.56001e-05
0.000293601
-2.57372e-05
0.000319203
-2.56015e-05
0.000344015
-2.48121e-05
0.000367517
-2.3501e-05
0.000389108
-2.15913e-05
0.000408176
-1.90687e-05
0.000424126
-1.59504e-05
0.000436361
-1.22353e-05
0.000444338
-7.97726e-06
0.000447565
-3.22709e-06
0.000445749
1.81682e-06
0.000438409
7.33936e-06
0.000425498
1.29108e-05
0.000406983
1.85139e-05
0.00038289
2.40946e-05
0.000353364
2.95257e-05
0.00031882
3.45444e-05
0.000280016
3.88049e-05
0.000237778
4.22383e-05
0.000192831
4.49461e-05
0.00014589
4.69404e-05
9.75809e-05
4.83093e-05
4.85368e-05
4.9044e-05
-7.54561e-07
4.92913e-05
-4.99173e-05
4.91626e-05
-9.86455e-05
4.87278e-05
-0.000146468
4.78228e-05
-0.000192833
4.63643e-05
-0.000237133
4.43006e-05
-0.000278739
4.1606e-05
-0.000317014
3.82743e-05
-0.000351142
3.41281e-05
-0.000380411
2.92688e-05
-0.000404288
2.38773e-05
-0.000422631
1.83426e-05
-0.000435439
1.28079e-05
-0.000442814
7.37545e-06
-0.000444762
1.94773e-06
-0.000441735
-3.02677e-06
-0.000434014
-7.7208e-06
-0.000422075
-1.19396e-05
-0.000406444
-1.5631e-05
-0.000387705
-1.87392e-05
-0.000366452
-2.12536e-05
-0.000343276
-2.31763e-05
-0.000318777
-2.44986e-05
-0.000293478
-2.52999e-05
-0.000267987
-2.54901e-05
-0.000242697
-2.52887e-05
-0.000217874
-2.48232e-05
-0.00019398
-2.38936e-05
-0.000171205
-2.27745e-05
-0.000149794
-2.14112e-05
-0.000129834
-1.99592e-05
-0.000111367
-1.84672e-05
-9.45338e-05
-1.6833e-05
-7.91557e-05
-1.53777e-05
-6.51877e-05
-1.39678e-05
-5.2449e-05
-1.2739e-05
-4.08076e-05
-1.16417e-05
-3.01141e-05
-1.06933e-05
-2.00597e-05
-1.00542e-05
-1.03616e-05
-9.69737e-06
-1.03606e-05
8.91628e-06
-1.90735e-05
1.67264e-05
-1.7361e-05
2.49628e-05
-1.81278e-05
3.40197e-05
-1.95996e-05
4.40921e-05
-2.15739e-05
5.54594e-05
-2.40173e-05
6.83723e-05
-2.67618e-05
8.28721e-05
-2.98109e-05
9.92337e-05
-3.31687e-05
0.000117236
-3.64859e-05
0.000137198
-3.99942e-05
0.000159009
-4.33245e-05
0.000182523
-4.64407e-05
0.000207612
-4.91235e-05
0.000233985
-5.13735e-05
0.000261248
-5.28631e-05
0.000289201
-5.369e-05
0.000317061
-5.34594e-05
0.000344561
-5.23127e-05
0.000371035
-4.9975e-05
0.000395851
-4.64085e-05
0.000418349
-4.1566e-05
0.000437842
-3.54443e-05
0.000453694
-2.80871e-05
0.000465278
-1.95608e-05
0.000472046
-9.99582e-06
0.000473448
4.14326e-07
0.000469229
1.15585e-05
0.00045906
2.308e-05
0.000442824
3.47496e-05
0.000420633
4.62863e-05
0.000392755
5.74046e-05
0.000359318
6.79812e-05
0.00032041
7.77118e-05
0.000276262
8.63847e-05
0.000227369
9.38388e-05
0.000174329
9.99803e-05
0.000118153
0.000104486
5.96955e-05
0.000107501
9.58473e-08
0.000108891
-5.94924e-05
0.000108751
-0.000117873
0.000107108
-0.000174006
0.000103956
-0.000226777
9.91351e-05
-0.000275413
9.29368e-05
-0.000319282
8.54753e-05
-0.000357857
7.68485e-05
-0.000390914
6.71849e-05
-0.000418393
5.67479e-05
-0.000440323
4.58079e-05
-0.000456459
3.44778e-05
-0.000466668
2.30166e-05
-0.000470973
1.16813e-05
-0.000469727
7.01128e-07
-0.000463172
-9.58156e-06
-0.000451851
-1.90418e-05
-0.000436292
-2.74993e-05
-0.000417103
-3.48207e-05
-0.000394928
-4.09145e-05
-0.000370428
-4.57533e-05
-0.000344258
-4.93465e-05
-0.000317037
-5.17188e-05
-0.000289377
-5.29603e-05
-0.000261787
-5.30793e-05
-0.000234671
-5.24042e-05
-0.000208531
-5.09615e-05
-0.000183666
-4.8758e-05
-0.000160233
-4.62069e-05
-0.000138484
-4.31598e-05
-0.000118559
-3.98846e-05
-0.000100546
-3.64797e-05
-8.41435e-05
-3.32352e-05
-6.95537e-05
-2.99675e-05
-5.65583e-05
-2.69636e-05
-4.50366e-05
-2.42605e-05
-3.479e-05
-2.18875e-05
-2.55585e-05
-1.99248e-05
-1.71366e-05
-1.84765e-05
-9.1018e-06
-1.77333e-05
-1.94624e-05
8.36004e-06
-2.7433e-05
1.55323e-05
-2.45301e-05
2.3159e-05
-2.57537e-05
3.16496e-05
-2.809e-05
4.1246e-05
-3.11702e-05
5.21289e-05
-3.49e-05
6.46095e-05
-3.92418e-05
7.88293e-05
-4.40303e-05
9.48754e-05
-4.92146e-05
0.000112968
-5.4578e-05
0.000133007
-6.0033e-05
0.000154986
-6.53031e-05
0.000178935
-7.03892e-05
0.000204605
-7.47926e-05
0.000231563
-7.83313e-05
0.000259692
-8.09925e-05
0.000288496
-8.2493e-05
0.00031753
-8.24934e-05
0.000346239
-8.10212e-05
0.000373999
-7.77328e-05
0.000400135
-7.25456e-05
0.000423945
-6.53771e-05
0.000444716
-5.62148e-05
0.000461747
-4.51178e-05
0.000474358
-3.21726e-05
0.000481935
-1.75736e-05
0.000483935
-1.58423e-06
0.000479964
1.55285e-05
0.000469718
3.33251e-05
0.000453057
5.14102e-05
0.000430043
6.92994e-05
0.000400826
8.66198e-05
0.000365649
0.000103158
0.000324964
0.000118397
0.000279226
0.000132122
0.000228967
0.000144098
0.000175169
0.000153778
0.00011841
0.000161244
5.9613e-05
0.000166298
-9.93181e-08
0.000168603
-5.97626e-05
0.000168414
-0.000118351
0.000165697
-0.00017492
0.000160525
-0.000228494
0.000152708
-0.000278259
0.000142701
-0.000323566
0.000130782
-0.000363834
0.000117117
-0.000398628
0.000101978
-0.000427535
8.56548e-05
-0.00045035
6.86221e-05
-0.000466897
5.10243e-05
-0.000477218
3.33369e-05
-0.000481294
1.57559e-05
-0.000479477
-1.11481e-06
-0.000472154
-1.69052e-05
-0.000459844
-3.13524e-05
-0.000443142
-4.42017e-05
-0.000422712
-5.52505e-05
-0.000399238
-6.4388e-05
-0.000373438
-7.15534e-05
-0.00034601
-7.67742e-05
-0.000317606
-8.01225e-05
-0.000288928
-8.16385e-05
-0.000260288
-8.17177e-05
-0.000232383
-8.03077e-05
-0.000205586
-7.77573e-05
-0.000180119
-7.42257e-05
-0.000156318
-7.00079e-05
-0.000134391
-6.50867e-05
-0.000114357
-5.99192e-05
-9.62809e-05
-5.45552e-05
-8.01903e-05
-4.93256e-05
-6.58907e-05
-4.42669e-05
-5.32695e-05
-3.95843e-05
-4.2225e-05
-3.53039e-05
-3.24948e-05
-3.16166e-05
-2.38094e-05
-2.86089e-05
-1.59438e-05
-2.63413e-05
-8.51231e-06
-2.51657e-05
-2.79749e-05
7.57957e-06
-3.50145e-05
1.40073e-05
-3.09563e-05
2.08168e-05
-3.25624e-05
2.85755e-05
-3.58484e-05
3.74635e-05
-4.00578e-05
4.7838e-05
-4.5274e-05
5.98314e-05
-5.12346e-05
7.36575e-05
-5.78558e-05
8.95731e-05
-6.51302e-05
0.000107567
-7.25711e-05
0.000127772
-8.02382e-05
0.000150265
-8.77953e-05
0.000174624
-9.47473e-05
0.000200931
-0.0001011
0.000229028
-0.000106427
0.000258403
-0.000110368
0.000288614
-0.000112703
0.000319266
-0.000113144
0.000349707
-0.000111462
0.000379373
-0.000107398
0.000407474
-0.000100645
0.000433268
-9.11712e-05
0.000455972
-7.89189e-05
0.000474835
-6.39817e-05
0.00048907
-4.6407e-05
0.000498006
-2.6511e-05
0.000501053
-4.63224e-06
0.000497696
1.8886e-05
0.000487673
4.33481e-05
0.000470852
6.82317e-05
0.000447164
9.29875e-05
0.000416814
0.00011697
0.000380195
0.000139777
0.000337624
0.000160968
0.000289673
0.000180073
0.000237392
0.000196378
0.00018131
0.000209861
0.000122296
0.000220257
6.14377e-05
0.000227157
-3.44623e-07
0.000230385
-6.20184e-05
0.000230088
-0.00012264
0.000226318
-0.000181249
0.000219133
-0.000236855
0.000208314
-0.000288783
0.000194629
-0.000336127
0.000178126
-0.000378161
0.000159151
-0.000414373
0.000138189
-0.000444325
0.000115606
-0.000467786
9.20824e-05
-0.000484599
6.78348e-05
-0.00049461
4.33489e-05
-0.000498153
1.92981e-05
-0.000495354
-3.914e-06
-0.000486726
-2.55328e-05
-0.000472839
-4.52392e-05
-0.000454362
-6.26796e-05
-0.00043203
-7.75822e-05
-0.000406589
-8.98287e-05
-0.00037883
-9.93135e-05
-0.000349516
-0.000106088
-0.000319347
-0.00011029
-0.000289041
-0.000111943
-0.000259121
-0.000111637
-0.000229959
-0.00010947
-0.000202157
-0.000105559
-0.00017592
-0.000100463
-0.000151644
-9.42833e-05
-0.000129261
-8.74695e-05
-0.000109087
-8.0093e-05
-9.1078e-05
-7.25633e-05
-7.5142e-05
-6.52611e-05
-6.12096e-05
-5.81995e-05
-4.91173e-05
-5.16767e-05
-3.8537e-05
-4.5884e-05
-2.94567e-05
-4.0697e-05
-2.15011e-05
-3.65637e-05
-1.44207e-05
-3.34202e-05
-7.78113e-06
-3.18055e-05
-3.57549e-05
6.47574e-06
-4.14912e-05
1.17833e-05
-3.62636e-05
1.76402e-05
-3.84189e-05
2.43719e-05
-4.25796e-05
3.23195e-05
-4.80047e-05
4.18837e-05
-5.48376e-05
5.32049e-05
-6.25555e-05
6.66762e-05
-7.13266e-05
8.21285e-05
-8.05822e-05
0.000100049
-9.04912e-05
0.000120273
-0.000100461
0.000143091
-0.000110613
0.000168332
-0.000119988
0.000195754
-0.000128522
0.000225127
-0.0001358
0.000256161
-0.000141401
0.000288306
-0.000144847
0.000321181
-0.000146018
0.000353994
-0.000144275
0.000386272
-0.000139677
0.000417128
-0.000131502
0.000445713
-0.000119756
0.000471207
-0.000104413
0.000492592
-8.5367e-05
0.000509136
-6.29515e-05
0.000520043
-3.74173e-05
0.000524628
-9.21527e-06
0.000522251
2.12633e-05
0.000512678
5.29217e-05
0.000495659
8.525e-05
0.000471231
0.000117415
0.000439558
0.000148643
0.000401069
0.000178267
0.000356207
0.00020583
0.0003059
0.000230381
0.000250646
0.000251632
0.000191383
0.000269123
0.000128977
0.000282663
6.46803e-05
0.000291453
-6.27622e-07
0.000295692
-6.57993e-05
0.000295259
-0.000129858
0.000290377
-0.000191694
0.00028097
-0.000250413
0.000267033
-0.000304968
0.000249183
-0.000354661
0.000227818
-0.00039884
0.000203331
-0.000436753
0.0001761
-0.000467938
0.000146789
-0.000492066
0.00011621
-0.000509093
8.48611e-05
-0.000518807
5.30629e-05
-0.000521382
2.18728e-05
-0.000517142
-8.15433e-06
-0.000506624
-3.60513e-05
-0.00049048
-6.13825e-05
-0.000469467
-8.36933e-05
-0.000444455
-0.000102594
-0.000416278
-0.000118006
-0.000385826
-0.000129766
-0.00035391
-0.000138003
-0.000321452
-0.000142748
-0.000288818
-0.000144577
-0.000256916
-0.000143539
-0.000226272
-0.000140114
-0.000197051
-0.00013478
-0.0001698
-0.000127715
-0.000144698
-0.000119386
-0.000121966
-0.000110201
-0.000101722
-0.000100337
-8.37505e-05
-9.05344e-05
-6.81732e-05
-8.08385e-05
-5.46571e-05
-7.17155e-05
-4.32311e-05
-6.31028e-05
-3.35817e-05
-5.55331e-05
-2.5336e-05
-4.89409e-05
-1.83651e-05
-4.35337e-05
-1.23046e-05
-3.94798e-05
-6.73299e-06
-3.73763e-05
-4.24881e-05
5.15251e-06
-4.66438e-05
9.00393e-06
-4.01151e-05
1.34499e-05
-4.28645e-05
1.88653e-05
-4.79946e-05
2.5693e-05
-5.48317e-05
3.41121e-05
-6.32561e-05
4.45456e-05
-7.29887e-05
5.71204e-05
-8.39011e-05
7.22784e-05
-9.57397e-05
9.00457e-05
-0.000108258
0.000110632
-0.000121047
0.000133796
-0.000133777
0.000159831
-0.000146023
0.000188498
-0.000157188
0.00021954
-0.000166842
0.000252616
-0.000174478
0.000287379
-0.000179609
0.000323005
-0.000181646
0.000359164
-0.000180433
0.000394717
-0.000175229
0.000429111
-0.000165896
0.000461328
-0.000151972
0.000490402
-0.000133487
0.000515277
-0.000110243
0.000534962
-8.26359e-05
0.000548528
-5.09849e-05
0.000555139
-1.58266e-05
0.000554204
2.21974e-05
0.000545164
6.19614e-05
0.000527982
0.000102431
0.000502458
0.000142939
0.000469139
0.000181963
0.00042834
0.000219066
0.000380669
0.000253501
0.000326841
0.000284209
0.000267787
0.000310685
0.000204404
0.000332507
0.000137714
0.000349351
6.88841e-05
0.000360284
-9.79499e-07
0.000365556
-7.06951e-05
0.000364975
-0.000139174
0.000358856
-0.000205195
0.00034699
-0.000267844
0.00032968
-0.000326015
0.000307355
-0.000378897
0.000280699
-0.000425682
0.000250115
-0.000465762
0.000216181
-0.000498661
0.000179688
-0.000523839
0.000141388
-0.000540876
0.000101897
-0.000550254
6.24396e-05
-0.000551505
2.31233e-05
-0.000545313
-1.43457e-05
-0.000532255
-4.91088e-05
-0.000513106
-8.05319e-05
-0.000488795
-0.000108005
-0.000460155
-0.000131234
-0.000428338
-0.000149823
-0.000394296
-0.000163808
-0.0003591
-0.000173201
-0.000323395
-0.000178452
-0.000288083
-0.000179889
-0.000253734
-0.000177889
-0.000220828
-0.000173021
-0.000190009
-0.000165599
-0.000161529
-0.000156196
-0.000135609
-0.000145307
-0.000112543
-0.000133266
-9.19621e-05
-0.000120918
-7.41396e-05
-0.000108357
-5.89564e-05
-9.60216e-05
-4.62159e-05
-8.44558e-05
-3.5592e-05
-7.37265e-05
-2.69332e-05
-6.41914e-05
-1.99172e-05
-5.59567e-05
-1.42941e-05
-4.91568e-05
-9.56918e-06
-4.42045e-05
-5.3882e-06
-4.1557e-05
-4.78771e-05
3.47844e-06
-5.0122e-05
5.62173e-06
-4.22582e-05
8.25572e-06
-4.5498e-05
1.20741e-05
-5.18125e-05
1.74081e-05
-6.01652e-05
2.43967e-05
-7.0244e-05
3.36244e-05
-8.22156e-05
4.53218e-05
-9.55984e-05
5.98244e-05
-0.000110242
7.72453e-05
-0.000125679
9.78264e-05
-0.000141629
0.000121708
-0.000157657
0.000148778
-0.000173094
0.000178965
-0.000187373
0.000212022
-0.000199899
0.000247624
-0.000210081
0.000285317
-0.000217301
0.000324656
-0.000220985
0.000364578
-0.000220355
0.000404448
-0.000215099
0.000443388
-0.000204836
0.00048038
-0.000188965
0.000514019
-0.000167127
0.000543355
-0.00013958
0.000567041
-0.000106322
0.000584057
-6.8001e-05
0.000593424
-2.51934e-05
0.000594184
2.14382e-05
0.000585991
7.01535e-05
0.000568506
0.000119916
0.000541948
0.000169496
0.000506283
0.000217627
0.000462456
0.000262893
0.000411063
0.000304893
0.000352925
0.000342347
0.000289062
0.000374548
0.000220477
0.000401092
0.00014844
0.000421388
7.39891e-05
0.000434734
-1.46223e-06
0.000441007
-7.67501e-05
0.000440262
-0.000150683
0.000432788
-0.000221951
0.000418257
-0.000289507
0.000397236
-0.000352146
0.000369993
-0.00040902
0.000337574
-0.000459336
0.000300432
-0.000502235
0.000259079
-0.000537157
0.000214609
-0.000563463
0.000167692
-0.000581193
0.000119627
-0.000589413
7.06596e-05
-0.000589222
2.29314e-05
-0.000580495
-2.30734e-05
-0.00056414
-6.54637e-05
-0.000541034
-0.000103638
-0.000512311
-0.000136728
-0.000479148
-0.000164398
-0.000442694
-0.000186278
-0.000404159
-0.000202343
-0.000364666
-0.000212694
-0.000325118
-0.000218
-0.000286283
-0.000218723
-0.000248817
-0.000215355
-0.000213525
-0.000208314
-0.000180723
-0.000198403
-0.000150742
-0.000186177
-0.000123764
-0.000172285
-9.99897e-05
-0.000157039
-7.94923e-05
-0.000141414
-6.20203e-05
-0.000125828
-4.73965e-05
-0.000110645
-3.55453e-05
-9.63073e-05
-2.6067e-05
-8.32055e-05
-1.87326e-05
-7.15252e-05
-1.32891e-05
-6.14004e-05
-9.12855e-06
-5.33171e-05
-6.21189e-06
-4.71206e-05
-3.82765e-06
-4.39416e-05
-5.17036e-05
1.39835e-06
-5.15201e-05
1.34999e-06
-4.22093e-05
2.04539e-06
-4.61929e-05
3.69452e-06
-5.34608e-05
7.08887e-06
-6.35589e-05
1.25191e-05
-7.56738e-05
2.02572e-05
-8.99529e-05
3.07412e-05
-0.000106082
4.43807e-05
-0.000123882
6.13808e-05
-0.000142678
8.19759e-05
-0.000162224
0.000106464
-0.000182145
0.000134687
-0.000201316
0.00016661
-0.000219295
0.000202024
-0.000235313
0.000240609
-0.000248666
0.000281882
-0.000258574
0.000325274
-0.000264375
0.000370142
-0.000265224
0.000415313
-0.00026027
0.000459796
-0.00024932
0.000502532
-0.000231702
0.00054215
-0.000206744
0.000577085
-0.000174514
0.000605965
-0.000135202
0.000627476
-8.95109e-05
0.000640337
-3.80545e-05
0.000643506
1.82684e-05
0.000636347
7.73125e-05
0.000618607
0.000137655
0.000590354
0.000197748
0.000552067
0.000255915
0.000504311
0.000310649
0.000448118
0.000361086
0.000384578
0.000405887
0.000314774
0.000444351
0.000239796
0.00047607
0.000161242
0.000499942
8.02221e-05
0.000515754
-2.0577e-06
0.000523286
-8.40532e-05
0.000522258
-0.000164514
0.000513249
-0.000242168
0.000495912
-0.000315714
0.000470781
-0.000383879
0.000438158
-0.00044572
0.000399415
-0.000500333
0.000355046
-0.000546709
0.000305454
-0.000584486
0.000252385
-0.000612382
0.000195589
-0.000630082
0.000137326
-0.000637812
7.839e-05
-0.000635514
2.06329e-05
-0.000623515
-3.50732e-05
-0.000602947
-8.60304e-05
-0.00057493
-0.000131655
-0.000540549
-0.00017111
-0.00050158
-0.000203368
-0.000459329
-0.000228528
-0.000415286
-0.000246387
-0.000370503
-0.000257477
-0.000325979
-0.000262523
-0.000282893
-0.000261809
-0.000242007
-0.000256242
-0.000203769
-0.000246552
-0.000168662
-0.000233509
-0.000136999
-0.00021784
-0.00010906
-0.000200225
-8.45776e-05
-0.000181521
-6.39085e-05
-0.000162083
-4.68612e-05
-0.000142875
-3.30106e-05
-0.000124496
-2.23673e-05
-0.000106951
-1.44278e-05
-9.11441e-05
-8.89444e-06
-7.70584e-05
-5.1136e-06
-6.51811e-05
-3.01563e-06
-5.54144e-05
-2.02558e-06
-4.81102e-05
-1.73722e-06
-4.42288e-05
-5.34416e-05
-9.20362e-07
-5.05994e-05
-3.56989e-06
-3.95588e-05
-5.61279e-06
-4.41492e-05
-6.11685e-06
-5.29559e-05
-5.0869e-06
-6.4588e-05
-1.84297e-06
-7.89178e-05
4.06647e-06
-9.58622e-05
1.31153e-05
-0.000115131
2.55259e-05
-0.000136293
4.19021e-05
-0.000159054
6.27359e-05
-0.000183058
8.75121e-05
-0.00020692
0.000116919
-0.000230724
0.000150801
-0.000253177
0.00018894
-0.000273453
0.00023098
-0.000290705
0.000276439
-0.000304033
0.0003248
-0.000312736
0.000375213
-0.000315638
0.000426956
-0.000312012
0.000478394
-0.000300756
0.000528209
-0.000281518
0.000575085
-0.000253621
0.000617184
-0.000216613
0.000652748
-0.000170766
0.000679817
-0.00011658
0.000697112
-5.53487e-05
0.000703583
1.1797e-05
0.000697475
8.34209e-05
0.000679685
0.000155445
0.000649226
0.000228208
0.000607477
0.000297664
0.000554675
0.00036345
0.000492673
0.000423088
0.000422435
0.000476126
0.000345328
0.000521458
0.000263003
0.000558394
0.000176546
0.000586398
8.7475e-05
0.000604825
-2.82158e-06
0.000613583
-9.2719e-05
0.000612156
-0.000181092
0.000601622
-0.000266248
0.000581067
-0.000346774
0.000551307
-0.000421786
0.000513172
-0.000489743
0.000467372
-0.000549741
0.000415043
-0.000600776
0.000356489
-0.000641484
0.000293093
-0.000671348
0.000225453
-0.000690107
0.000156083
-0.000696711
8.49937e-05
-0.000691347
1.52681e-05
-0.000675371
-5.10492e-05
-0.000649456
-0.000111946
-0.000614993
-0.000166117
-0.000573826
-0.000212275
-0.000527438
-0.000249757
-0.000477939
-0.000278028
-0.000426973
-0.000297352
-0.000375647
-0.000308803
-0.000325592
-0.000312579
-0.000277625
-0.000309776
-0.000232585
-0.000301282
-0.000190956
-0.000288181
-0.000153199
-0.000271267
-0.000119593
-0.000251447
-9.03172e-05
-0.0002295
-6.54196e-05
-0.000206418
-4.48057e-05
-0.000182697
-2.83629e-05
-0.000159318
-1.58354e-05
-0.000137023
-6.49209e-06
-0.000116295
-3.03038e-07
-9.73331e-05
3.30049e-06
-8.06627e-05
4.6869e-06
-6.65663e-05
4.41287e-06
-5.51396e-05
2.82985e-06
-4.6527e-05
5.91716e-07
-4.19899e-05
-5.28499e-05
-3.76574e-06
-4.68332e-05
-9.55099e-06
-3.37724e-05
-1.41846e-05
-3.95147e-05
-1.77697e-05
-4.93705e-05
-1.94267e-05
-6.29304e-05
-1.87624e-05
-7.9582e-05
-1.5209e-05
-9.94163e-05
-8.30192e-06
-0.000122037
2.75355e-06
-0.000147348
1.84055e-05
-0.000174705
3.84916e-05
-0.000203145
6.394e-05
-0.000232368
9.47141e-05
-0.000261498
0.000130813
-0.000289275
0.000172033
-0.000314673
0.000218005
-0.000336677
0.000268289
-0.000354318
0.000322365
-0.00036681
0.000379425
-0.000372697
0.000438447
-0.000371034
0.000498342
-0.000360653
0.00055716
-0.000340337
0.000613138
-0.000309599
0.000664121
-0.000267596
0.000707895
-0.000214541
0.000742351
-0.000151035
0.000765372
-7.83698e-05
0.000775463
1.70569e-06
0.000771634
8.72496e-05
0.000753089
0.000173989
0.000720725
0.000260571
0.000674303
0.000344085
0.000615287
0.000422466
0.000545697
0.000492678
0.000467173
0.000554651
0.000381575
0.000607055
0.000290117
0.000649852
0.000194246
0.000682268
9.57723e-05
0.000703299
-3.7791e-06
0.000713134
-0.000102943
0.000711319
-0.000200603
0.000699284
-0.000294843
0.000675307
-0.00038389
0.000640355
-0.000466476
0.000595754
-0.000541852
0.000542747
-0.000608501
0.000481691
-0.000665399
0.000413388
-0.000710271
0.000337965
-0.000743174
0.000258356
-0.000761659
0.000174567
-0.000767164
9.04979e-05
-0.000758716
6.81967e-06
-0.000737536
-7.22298e-05
-0.000704828
-0.000144653
-0.000662285
-0.00020866
-0.000612082
-0.000262479
-0.000556684
-0.000305155
-0.00049839
-0.000336321
-0.00043865
-0.000357092
-0.000379924
-0.00036753
-0.000323238
-0.000369266
-0.00026958
-0.000363434
-0.000219814
-0.000351048
-0.000174356
-0.000333639
-0.000133608
-0.000312015
-9.78774e-05
-0.000287177
-6.73131e-05
-0.000260064
-4.21191e-05
-0.000231612
-2.1714e-05
-0.000203102
-5.94557e-06
-0.000175086
5.31381e-06
-0.000148283
1.25098e-05
-0.00012349
1.63668e-05
-0.00010119
1.74064e-05
-8.1702e-05
1.61155e-05
-6.52744e-05
1.29295e-05
-5.19534e-05
8.59023e-06
-4.21863e-05
3.43404e-06
-3.68345e-05
-4.9416e-05
-7.11715e-06
-3.97154e-05
-1.59924e-05
-2.48963e-05
-2.43571e-05
-3.11494e-05
-3.10776e-05
-4.26501e-05
-3.60638e-05
-5.79446e-05
-3.86092e-05
-7.70362e-05
-3.79446e-05
-0.000100081
-3.34422e-05
-0.00012654
-2.46137e-05
-0.000156178
-1.06041e-05
-0.000188713
9.30187e-06
-0.00022305
3.52309e-05
-0.000258296
6.73378e-05
-0.000293604
0.000105824
-0.000327762
0.000150465
-0.000359315
0.000200866
-0.000387077
0.000256607
-0.000410056
0.000317147
-0.000427351
0.00038187
-0.000437421
0.000449723
-0.000438887
0.000519419
-0.00043035
0.000589205
-0.000410123
0.000656489
-0.000376883
0.000718877
-0.000329984
0.000773325
-0.000268989
0.000816893
-0.000194604
0.000847243
-0.00010872
0.000862663
-1.37148e-05
0.000860288
8.96239e-05
0.000841853
0.000192423
0.000806453
0.000295971
0.000754617
0.000395922
0.000687654
0.00048943
0.000608527
0.000571806
0.000519962
0.000643215
0.000423827
0.00070319
0.000321611
0.000752067
0.000214566
0.000789313
0.000104802
0.000813062
-4.9073e-06
0.000822845
-0.000114203
0.000820615
-0.000223235
0.000808314
-0.000328397
0.000780467
-0.000427481
0.000739438
-0.000519422
0.000687696
-0.00060357
0.000626896
-0.000678538
0.000556661
-0.000742482
0.00047733
-0.000792923
0.000388405
-0.000827583
0.000293016
-0.000847966
0.000194951
-0.000852422
9.49528e-05
-0.000839585
-6.01789e-06
-0.000811844
-9.99712e-05
-0.000770409
-0.00018609
-0.000717534
-0.000261536
-0.000656095
-0.000323917
-0.000589387
-0.000371863
-0.000519668
-0.000406041
-0.000450144
-0.000426616
-0.000382386
-0.000435289
-0.000317987
-0.000433665
-0.000257866
-0.000423555
-0.000202814
-0.0004061
-0.000153108
-0.000383344
-0.00010909
-0.000356033
-7.10394e-05
-0.000325228
-3.9188e-05
-0.000291916
-1.3321e-05
-0.000257479
6.54296e-06
-0.000222965
2.08656e-05
-0.000189409
3.00091e-05
-0.000157427
3.48396e-05
-0.00012832
3.58766e-05
-0.000102228
3.38023e-05
-7.96266e-05
2.928e-05
-6.07516e-05
2.29622e-05
-4.56343e-05
1.51124e-05
-3.43379e-05
6.5523e-06
-2.82736e-05
-4.28645e-05
-1.0782e-05
-2.89328e-05
-2.36305e-05
-1.20477e-05
-3.59196e-05
-1.88603e-05
-4.6572e-05
-3.19977e-05
-5.52691e-05
-4.92479e-05
-6.13704e-05
-7.09355e-05
-6.43382e-05
-9.71125e-05
-6.32055e-05
-0.000127672
-5.69144e-05
-0.00016247
-4.48319e-05
-0.000200796
-2.59351e-05
-0.000241946
1.8405e-07
-0.000284416
3.38942e-05
-0.000327314
7.48046e-05
-0.000368671
0.000123258
-0.000407767
0.00017852
-0.00044234
0.000240309
-0.000471846
0.000308112
-0.000495155
0.000381434
-0.000510744
0.000459534
-0.000516986
0.000540966
-0.000511783
0.000623812
-0.000492969
0.000705394
-0.000458465
0.000781839
-0.000406429
0.000849845
-0.000336995
0.000905168
-0.000249927
0.000944623
-0.000148175
0.000965698
-3.47903e-05
0.000967796
8.75265e-05
0.000948746
0.000211473
0.000909411
0.000335307
0.000850847
0.000454487
0.000774192
0.000566085
0.000682705
0.000663292
0.000581605
0.000744314
0.00047313
0.000811665
0.000357987
0.000867212
0.000237219
0.000910081
0.000114335
0.000935945
-6.72412e-06
0.0009439
-0.000127158
0.000941047
-0.000248916
0.000930074
-0.000367508
0.000899061
-0.00047866
0.00085059
-0.000581395
0.000790431
-0.000676046
0.000721546
-0.000761621
0.000642233
-0.00083477
0.00055048
-0.000891382
0.000445018
-0.000930585
0.000332219
-0.000951016
0.000215382
-0.000952531
9.64672e-05
-0.000935799
-2.27516e-05
-0.000900312
-0.00013546
-0.000848074
-0.000238327
-0.000782004
-0.000327606
-0.000706372
-0.00039955
-0.00062469
-0.000453546
-0.000541588
-0.000489144
-0.000459845
-0.00050836
-0.000381746
-0.000513388
-0.000308678
-0.000506734
-0.000241564
-0.000490668
-0.000180622
-0.000467043
-0.000126273
-0.000437694
-7.87441e-05
-0.000403563
-3.8264e-05
-0.000365708
-4.98664e-06
-0.000325193
2.11054e-05
-0.000283572
4.01881e-05
-0.000242048
5.25889e-05
-0.00020181
5.93331e-05
-0.000164171
6.09083e-05
-0.000129896
5.84331e-05
-9.9752e-05
5.27118e-05
-7.39047e-05
4.44513e-05
-5.24909e-05
3.42182e-05
-3.54009e-05
2.26284e-05
-2.27497e-05
1.02384e-05
-1.58829e-05
-3.26269e-05
-1.50107e-05
-1.39217e-05
-3.23834e-05
5.32489e-06
-4.86898e-05
-2.55455e-06
-6.38327e-05
-1.68549e-05
-7.69693e-05
-3.61107e-05
-8.75627e-05
-6.03421e-05
-9.49525e-05
-8.97229e-05
-9.79236e-05
-0.000124701
-9.52813e-05
-0.000165111
-8.57609e-05
-0.000210316
-6.84601e-05
-0.000259246
-4.23266e-05
-0.000310549
-7.06128e-06
-0.00036258
3.73014e-05
-0.000413034
8.94317e-05
-0.000459898
0.000149823
-0.000502731
0.000218096
-0.000540118
0.000293735
-0.000570796
0.000376676
-0.000593685
0.000466471
-0.000606781
0.00056175
-0.000607063
0.000660453
-0.000591672
0.000759206
-0.000557218
0.00085389
-0.000501113
0.000938386
-0.000421491
0.00100857
-0.00032011
0.00106018
-0.000199789
0.00109013
-6.47355e-05
0.00109513
8.25249e-05
0.00107632
0.000230283
0.00103365
0.000377979
0.00096734
0.000520792
0.00087731
0.000656115
0.000769825
0.000770776
0.000653202
0.000860939
0.000530703
0.000934164
0.000401605
0.000996308
0.00026541
0.00104628
0.000127123
0.00107423
-7.63631e-06
0.00107866
-0.000142775
0.00107619
-0.000280832
0.00106813
-0.000415231
0.00103346
-0.000539344
0.000974703
-0.000653734
0.00090482
-0.000760912
0.000828723
-0.00086023
0.000741552
-0.000944313
0.000634564
-0.00100799
0.00050869
-0.00105164
0.000375876
-0.0010747
0.000238442
-0.00107505
9.6814e-05
-0.00105135
-4.64488e-05
-0.00100527
-0.000181546
-0.000938854
-0.000304742
-0.000856176
-0.000410285
-0.000761827
-0.000493899
-0.00066241
-0.000552964
-0.000562704
-0.000588849
-0.00046658
-0.000604484
-0.000376456
-0.000603512
-0.000293793
-0.000589398
-0.000218982
-0.00056548
-0.000152001
-0.000534025
-9.27982e-05
-0.000496897
-4.15456e-05
-0.000454815
1.64723e-06
-0.0004089
3.64666e-05
-0.000360013
6.25622e-05
-0.000309667
8.01888e-05
-0.000259674
9.02691e-05
-0.00021189
9.34721e-05
-0.000167373
9.11473e-05
-0.000127571
8.4299e-05
-9.29023e-05
7.41474e-05
-6.37536e-05
6.15253e-05
-3.98674e-05
4.68282e-05
-2.07055e-05
3.10636e-05
-6.9846e-06
1.44109e-05
7.70089e-07
-1.8216e-05
-1.9648e-05
5.72603e-06
-4.18788e-05
2.75558e-05
-6.31889e-05
1.87556e-05
-8.30918e-05
3.04773e-06
-0.000101245
-1.79575e-05
-0.000117035
-4.45513e-05
-0.000130051
-7.67057e-05
-0.000138166
-0.000116586
-0.000140474
-0.000162802
-0.000134775
-0.000216014
-0.000119491
-0.000274531
-9.36881e-05
-0.000336351
-5.68141e-05
-0.000399454
-9.69801e-06
-0.000460149
4.75112e-05
-0.000517107
0.000113639
-0.000568859
0.000188561
-0.000615041
0.000272275
-0.00065451
0.000365462
-0.000686872
0.000468097
-0.000709417
0.000579258
-0.000718224
0.000696639
-0.000709053
0.000816638
-0.000677217
0.000934035
-0.00061851
0.00104261
-0.00053007
0.00113594
-0.000413436
0.00120749
-0.00027134
0.00125064
-0.00010788
0.00126119
7.19687e-05
0.00124075
0.000250722
0.00119068
0.000428051
0.00111016
0.000601312
0.0010016
0.000764677
0.000872866
0.000899509
0.000739033
0.000994772
0.000600979
0.00107222
0.000453578
0.00114371
0.000297765
0.00120209
0.000142612
0.00122938
-9.87336e-06
0.00123114
-0.000163378
0.00122969
-0.000318937
0.00122369
-0.00047224
0.00118676
-0.000613329
0.00111579
-0.00074069
0.00103218
-0.000861283
0.000949316
-0.000977411
0.00085768
-0.0010792
0.000736351
-0.00115691
0.000586399
-0.0012094
0.000428365
-0.00123527
0.000264317
-0.00123572
9.72631e-05
-0.00120253
-7.96426e-05
-0.00113804
-0.000246035
-0.00104828
-0.000394505
-0.000940589
-0.000517972
-0.000821982
-0.000612506
-0.000699945
-0.000675001
-0.00058033
-0.000708463
-0.000467545
-0.000717269
-0.000364188
-0.000706869
-0.000271348
-0.000682238
-0.000188933
-0.000647895
-0.000115693
-0.000607265
-5.15781e-05
-0.000561012
3.7922e-06
-0.000510185
4.97063e-05
-0.000454815
8.61959e-05
-0.000396503
0.000112165
-0.000335636
0.000128206
-0.000275715
0.000134745
-0.000218429
0.000133192
-0.000165819
0.000125699
-0.000120077
0.00011363
-8.08327e-05
9.80746e-05
-4.81989e-05
8.02922e-05
-2.20848e-05
6.11802e-05
-1.59366e-06
4.04442e-05
1.37517e-05
1.88844e-05
2.23295e-05
6.6884e-07
-2.48504e-05
3.0576e-05
-5.2402e-05
5.5107e-05
-7.90018e-05
4.53556e-05
-0.000104286
2.83324e-05
-0.000127988
5.74528e-06
-0.000149957
-2.25821e-05
-0.000169237
-5.74244e-05
-0.000184441
-0.000101383
-0.000193535
-0.000153707
-0.000193247
-0.000216301
-0.000181083
-0.000286695
-0.000155617
-0.000361818
-0.00011679
-0.000438281
-6.52697e-05
-0.000511667
-3.26147e-06
-0.000579115
6.84798e-05
-0.000640599
0.000149517
-0.000696078
0.000241061
-0.000746055
0.000344367
-0.000790178
0.000460871
-0.000825921
0.0005904
-0.000847754
0.00073161
-0.000850263
0.000882306
-0.000827913
0.00103772
-0.000773926
0.00118844
-0.000680786
0.00132299
-0.000547988
0.0014265
-0.000374852
0.00148521
-0.000166586
0.0014993
5.78744e-05
0.00147558
0.000274442
0.00141432
0.000489312
0.00130997
0.000705662
0.00116184
0.000912803
0.00099479
0.00106656
0.000839737
0.00114982
0.000693509
0.00121845
0.000535134
0.00130208
0.000358355
0.00137887
0.000173603
0.00141414
-1.61683e-05
0.00142091
-0.000204384
0.00141791
-0.000387478
0.00140678
-0.000562487
0.00136177
-0.0007164
0.00126971
-0.000849029
0.00116481
-0.000981856
0.00108214
-0.00112753
0.00100336
-0.00126293
0.000871746
-0.00136589
0.000689364
-0.00143226
0.000494736
-0.00146641
0.000298464
-0.0014677
9.85586e-05
-0.00142911
-0.000118236
-0.00133811
-0.000337038