/*--------------------------------*- C++ -*----------------------------------*\
| =========                 |                                                 |
| \\      /  F ield         | OpenFOAM: The Open Source CFD Toolbox           |
|  \\    /   O peration     | Version:  2412                                  |
|   \\  /    A nd           | Website:  www.openfoam.com                      |
|    \\/     M anipulation  |                                                 |
\*---------------------------------------------------------------------------*/
FoamFile
{
    version     2.0;
    format      ascii;
    arch        "LSB;label=32;scalar=64";
    class       volScalarField;
    location    "0.55";
    object      alpha.honey;
}
// * * * * * * * * * * * * * * * * * * * * * * * * * * * * * * * * * * * * * //

dimensions      [0 0 0 0 0 0 0];

internalField   nonuniform List<scalar> 
6400
(
1
1
1
1
1
1
1
1
1
1
1
1
1
1
1
1
1
1
1
1
1
1
1
1
1
1
1
1
1
1
1
1
1
1
1
1
1
1
1
1
1
1
1
1
1
1
1
1
1
1
1
1
1
1
1
1
1
1
1
1
1
1
1
1
1
1
1
1
1
1
1
1
1
1
1
1
1
1
1
1
1
1
1
1
1
1
1
1
1
1
1
1
1
1
1
1
1
1
1
1
1
1
1
1
1
1
1
1
1
1
1
1
1
1
1
1
1
1
1
1
1
1
1
1
1
1
1
1
1
1
1
1
1
1
1
1
1
1
1
1
1
1
1
1
1
1
1
1
1
1
1
1
1
1
1
1
1
1
1
1
1
1
1
1
1
1
1
1
1
1
1
1
1
1
1
1
1
1
1
1
1
1
1
1
1
1
1
1
1
1
1
1
1
1
1
1
1
1
1
1
1
1
1
1
1
1
1
1
1
1
1
1
1
1
1
1
1
1
1
1
1
1
1
1
1
1
1
1
1
1
1
1
1
1
1
1
1
1
1
1
1
1
1
1
1
1
1
1
1
1
1
1
1
1
1
1
1
1
1
1
1
1
1
1
1
1
1
1
1
1
1
1
1
1
1
1
1
1
1
1
1
1
1
1
1
1
1
1
1
1
1
1
1
1
1
1
1
1
1
1
1
1
1
1
1
1
1
1
1
1
1
1
1
1
1
1
1
1
1
1
1
1
1
1
1
1
1
1
1
1
1
1
1
1
1
1
1
1
1
1
1
1
1
1
1
1
1
1
1
1
1
1
1
1
1
1
1
1
1
1
1
1
1
1
1
1
1
1
1
1
1
1
1
1
1
1
1
1
1
1
1
1
1
1
1
1
1
1
1
1
1
1
1
1
1
1
1
1
1
1
1
1
1
1
1
1
1
1
1
1
1
1
1
1
1
1
1
1
1
1
1
1
1
1
1
1
1
1
1
1
1
1
1
1
1
1
1
1
1
1
1
1
1
1
1
1
1
1
1
1
1
1
1
1
1
1
1
1
1
1
1
1
1
1
1
1
1
1
1
1
1
1
1
1
1
1
1
1
1
1
1
1
1
1
1
1
1
1
1
1
1
1
1
1
1
1
1
1
1
1
1
1
1
1
1
1
1
1
1
1
1
1
1
1
1
1
1
1
1
1
1
1
1
1
1
1
1
1
1
1
1
1
1
1
1
1
1
1
1
1
1
1
1
1
1
1
1
1
1
1
1
1
1
1
1
1
1
1
1
1
1
1
1
1
1
1
1
1
1
1
1
1
1
1
1
1
1
1
1
1
1
1
1
1
1
1
1
1
1
1
1
1
1
1
1
1
1
1
1
1
1
1
1
1
1
1
1
1
1
1
1
1
1
1
1
1
1
1
1
1
1
1
1
1
1
1
1
1
1
1
1
1
1
1
1
1
1
1
1
1
1
1
1
1
1
1
1
1
1
1
1
1
1
1
1
1
1
1
1
1
1
1
1
1
1
1
1
1
1
1
1
1
1
1
1
1
1
1
1
1
1
1
1
1
1
1
1
1
1
1
1
1
1
1
1
1
1
1
1
1
1
1
1
1
1
1
1
1
1
1
1
1
1
1
1
1
1
1
1
1
1
1
1
1
1
1
1
1
1
1
1
1
1
1
1
1
1
1
1
1
1
1
1
1
1
1
1
1
1
1
1
1
1
1
1
1
1
1
1
1
1
1
1
1
1
1
1
1
1
1
1
1
1
1
1
1
1
1
1
1
1
1
1
1
1
1
1
1
1
1
1
1
1
1
1
1
1
1
1
1
1
1
1
1
1
1
1
1
1
1
1
1
1
1
1
1
1
1
1
1
1
1
1
1
1
1
1
1
1
1
1
1
1
1
1
1
1
1
1
1
1
1
1
1
1
1
1
1
1
1
1
1
1
1
1
1
1
1
1
1
1
1
1
1
1
1
1
1
1
1
1
1
1
1
1
1
1
1
1
1
1
1
1
1
1
1
1
1
1
1
1
1
1
1
1
1
1
1
1
1
1
1
1
1
1
1
1
1
1
1
1
1
1
1
1
1
1
1
1
1
1
1
1
1
1
1
1
1
1
1
1
1
1
1
1
1
1
1
1
1
1
1
1
1
1
1
1
1
1
1
1
1
1
1
1
1
1
1
1
1
1
1
1
1
1
1
1
1
1
1
1
1
1
1
1
1
1
1
1
1
1
1
1
1
1
1
1
1
1
1
1
1
1
1
1
1
1
1
1
1
1
1
1
1
1
1
1
1
1
1
1
1
1
1
1
1
1
1
1
1
1
1
1
1
1
1
1
1
1
1
1
1
1
1
1
1
1
1
1
1
1
1
1
1
1
1
1
1
1
1
1
1
1
1
1
1
1
1
1
1
1
1
1
1
1
1
1
1
1
1
1
1
1
1
1
1
1
1
1
1
1
1
1
1
1
1
1
1
1
1
1
1
1
1
1
1
1
1
1
1
1
1
1
1
1
1
1
1
1
1
1
1
1
1
1
1
1
1
1
1
1
1
1
1
1
1
1
1
1
1
1
1
1
1
1
1
1
1
1
1
1
1
1
1
1
1
1
1
1
1
1
1
1
1
1
1
1
1
1
1
1
1
1
1
1
1
1
1
1
1
1
1
1
1
1
1
1
1
1
1
1
1
1
1
1
1
1
1
1
1
1
1
1
1
1
1
1
1
1
1
1
1
1
1
1
1
1
1
1
1
1
1
1
1
1
1
1
1
1
1
1
1
1
1
1
1
1
1
1
1
1
1
1
1
1
1
1
1
1
1
1
1
1
1
1
1
1
1
1
1
1
1
1
1
1
1
1
1
1
1
1
1
1
1
1
1
1
1
1
1
1
1
1
1
1
1
1
1
1
1
1
1
1
1
1
1
1
1
1
1
1
1
1
1
1
1
1
1
1
1
1
1
1
1
1
1
1
1
1
1
1
1
1
1
1
1
1
1
1
1
1
1
1
1
1
1
1
1
1
1
1
1
1
1
1
1
1
1
1
1
1
1
1
1
1
1
1
1
1
1
1
1
1
1
1
1
1
1
1
1
1
1
1
1
1
1
1
1
1
1
1
1
1
1
1
1
1
1
1
1
1
1
1
1
1
1
1
1
1
1
1
1
1
1
1
1
1
1
1
1
1
1
1
1
1
1
1
1
1
1
1
1
1
1
1
1
1
1
1
1
1
1
1
1
1
1
1
1
1
1
1
1
1
1
1
1
1
1
1
1
1
1
1
1
1
1
1
1
1
1
1
1
1
1
1
1
1
1
1
1
1
1
1
1
1
1
1
1
1
1
1
1
1
1
1
1
1
1
1
1
1
1
1
1
1
1
1
1
1
1
1
1
1
1
1
1
1
1
1
1
1
1
1
1
1
1
1
1
1
1
1
1
1
1
1
1
1
1
1
1
1
1
1
1
1
1
1
1
1
1
1
1
1
1
1
1
1
1
1
1
1
1
1
1
1
1
1
1
1
1
1
1
1
1
1
1
1
1
1
1
1
1
1
1
1
1
1
1
1
1
1
1
1
1
1
1
1
1
1
1
1
1
1
1
1
1
1
1
1
1
1
1
1
1
1
1
1
1
1
1
6.7608e-08
1.06465e-07
1.31002e-07
1.45611e-07
1.49572e-07
1.47386e-07
1.41628e-07
1.33106e-07
1.22741e-07
1.11553e-07
1.00167e-07
8.8789e-08
7.7457e-08
6.58312e-08
5.35484e-08
4.28612e-08
3.16306e-08
1.99095e-08
1.11578e-08
3.46107e-09
2.19834e-09
1.45532e-09
9.95181e-10
5.64568e-10
1.67545e-10
1.38721e-148
1.38721e-148
3.35756e-145
9.91119e-142
2.22043e-138
4.01084e-135
5.90351e-132
7.07593e-129
6.81307e-126
5.1653e-123
2.98414e-120
1.25192e-117
3.52828e-115
5.77464e-113
3.53094e-111
2.61241e-111
1.84621e-114
2.33003e-118
2.34011e-122
4.54712e-126
5.50118e-130
4.02444e-134
1.96503e-138
8.03304e-143
4.32313e-147
0
-5.84536e-150
0
9.98523e-162
9.98523e-162
0
0
0
0
3.31507e-10
1.26969e-09
2.95802e-09
1.38296e-08
3.63975e-08
7.41717e-08
1.11516e-07
1.463e-07
1.76309e-07
2.00977e-07
2.1882e-07
2.29025e-07
2.32537e-07
2.29329e-07
2.22942e-07
2.13631e-07
2.05333e-07
1.98503e-07
1.94877e-07
1.78509e-07
1.45312e-07
5.55187e-21
6.17311e-21
1.0377e-20
1.30895e-20
1.41295e-20
1.41662e-20
1.36978e-20
1.26758e-20
1.14666e-20
9.9167e-21
8.45617e-21
6.87339e-21
5.49587e-21
4.11496e-21
3.01959e-21
2.04332e-21
1.25404e-21
6.20154e-22
2.63178e-22
6.1555e-23
2.4185e-23
7.60298e-24
1.7025e-24
-6.48414e-32
-2.40583e-35
6.87792e-149
2.56419e-139
8.86377e-136
1.59404e-132
2.46179e-129
3.21608e-126
3.48974e-123
3.07831e-120
2.14872e-117
1.14519e-114
4.44833e-112
1.22387e-109
3.59159e-107
7.77003e-106
2.1235e-105
1.80942e-105
3.97672e-106
1.84621e-114
2.33003e-118
2.34011e-122
4.54712e-126
5.50118e-130
4.02444e-134
1.96503e-138
8.03304e-143
4.33056e-147
1.37246e-149
2.06436e-149
1.01716e-149
5.01571e-153
5.92841e-160
2.10344e-163
7.99298e-167
3.99649e-167
-1.01108e-34
1.29955e-23
6.51785e-23
4.58413e-22
1.76329e-21
4.76727e-21
8.96968e-21
1.35211e-20
1.81995e-20
2.2028e-20
2.4962e-20
2.62785e-20
2.67835e-20
2.60513e-20
2.49368e-20
2.328e-20
2.14596e-20
1.94074e-20
1.63494e-20
1.09089e-20
1.23621e-20
2.62586e-25
2.93231e-25
4.89595e-25
6.15147e-25
6.60963e-25
6.56334e-25
6.19277e-25
5.55852e-25
4.85491e-25
4.02049e-25
3.24297e-25
2.46648e-25
1.81486e-25
1.22521e-25
7.82364e-26
4.37761e-26
1.92432e-26
4.61083e-27
-1.19652e-27
-1.27169e-27
-7.33669e-28
-2.82637e-28
-9.06982e-29
1.01811e-141
1.01811e-141
3.97816e-138
1.62401e-134
3.3216e-131
5.87879e-128
8.89642e-125
1.1351e-121
1.20027e-118
1.03036e-115
6.99512e-113
3.62697e-110
1.37196e-107
3.6771e-105
1.03671e-102
2.272e-101
6.19012e-101
5.30392e-101
1.16251e-101
4.90133e-106
5.98728e-110
5.82551e-114
1.09916e-117
1.29543e-121
9.27925e-126
4.4669e-130
1.81798e-134
9.86046e-139
1.16455e-142
2.36471e-146
3.85085e-149
3.4878e-149
8.07805e-152
3.40742e-155
1.55645e-158
7.99304e-167
-2.19423e-44
2.28346e-28
1.61227e-27
1.35389e-26
5.96533e-26
1.75145e-25
3.58554e-25
5.87077e-25
8.24149e-25
1.0208e-24
1.2028e-24
1.31618e-24
1.3588e-24
1.34269e-24
1.29153e-24
1.21641e-24
1.13372e-24
1.03342e-24
8.66791e-25
5.35866e-25
6.57689e-25
7.12078e-28
7.50406e-28
1.10663e-27
1.28033e-27
1.27115e-27
1.15573e-27
9.78754e-28
7.80221e-28
5.81734e-28
4.12766e-28
2.75094e-28
1.75041e-28
1.04829e-28
6.65194e-29
3.96721e-29
2.21977e-29
1.00019e-29
3.39576e-30
5.5385e-31
1.01056e-31
1.74588e-32
-2.13828e-34
-2.36675e-34
2.03622e-141
2.93237e-137
1.38258e-133
3.16998e-130
6.33696e-127
1.09339e-123
1.60944e-120
1.99432e-117
2.04573e-114
1.70272e-111
1.12118e-108
5.6432e-106
2.07532e-103
5.41478e-101
1.47224e-98
3.24169e-97
8.77641e-97
7.55793e-97
1.65315e-97
1.35372e-101
1.7071e-105
1.73491e-109
3.46162e-113
4.37133e-117
3.40292e-121
1.80712e-125
8.19937e-130
4.85683e-134
5.99815e-138
1.27905e-141
3.32529e-145
1.61736e-148
3.86334e-149
6.30416e-151
2.83195e-154
1.41598e-154
-2.24236e-45
6.05906e-33
8.75443e-32
8.63342e-31
2.04088e-29
1.19443e-28
3.96733e-28
8.82553e-28
1.49927e-27
2.11031e-27
2.70871e-27
3.25431e-27
3.65776e-27
3.8649e-27
3.89918e-27
3.72766e-27
3.44567e-27
3.08556e-27
2.65998e-27
1.90388e-27
2.14054e-27
4.62784e-32
4.87169e-32
7.16241e-32
8.22811e-32
8.08821e-32
7.26134e-32
6.06997e-32
4.76555e-32
3.50088e-32
2.43983e-32
1.59685e-32
9.98081e-33
6.08696e-33
3.72236e-33
2.13597e-33
1.06015e-33
4.26555e-34
1.49731e-34
1.32462e-34
3.10418e-35
7.12529e-36
2.83353e-37
6.82448e-39
2.15153e-137
4.29121e-133
1.87066e-129
4.19162e-126
8.15836e-123
1.36684e-119
1.95002e-116
2.33895e-113
2.32182e-110
1.87039e-107
1.19245e-104
5.81856e-102
2.07831e-99
5.278e-97
1.39093e-94
3.04829e-93
8.17675e-93
7.07268e-93
1.54506e-93
1.82809e-97
2.3801e-101
2.52712e-105
5.33419e-109
7.22129e-113
4.70088e-117
2.64332e-121
1.81089e-125
1.15916e-129
1.45509e-133
3.11114e-137
8.31897e-141
2.47094e-144
8.72074e-148
4.23824e-149
3.70854e-150
3.45866e-155
-1.45818e-54
2.15695e-37
2.89041e-36
3.43247e-35
6.96099e-34
4.89559e-33
1.78488e-32
4.21303e-32
7.40059e-32
1.07752e-31
1.42343e-31
1.76002e-31
2.0408e-31
2.22019e-31
2.27373e-31
2.18716e-31
2.01255e-31
1.79268e-31
1.53893e-31
1.10003e-31
1.22894e-31
3.94488e-36
4.2715e-36
6.2309e-36
7.09611e-36
6.92903e-36
6.16479e-36
5.10804e-36
3.96756e-36
2.88174e-36
1.9775e-36
1.27119e-36
7.80076e-37
4.84779e-37
2.81036e-37
1.49631e-37
6.88681e-38
2.43375e-38
5.71509e-39
5.96868e-40
5.38321e-41
4.13153e-42
2.75835e-43
2.20248e-47
2.95205e-133
4.42411e-129
1.92882e-125
4.20002e-122
7.92464e-119
1.28472e-115
1.77144e-112
2.05221e-109
1.96752e-106
1.53153e-103
9.44313e-101
4.46285e-98
1.54715e-95
3.82419e-93
9.81135e-91
2.12279e-89
5.62861e-89
4.88718e-89
1.06708e-89
1.49291e-93
1.73259e-97
2.42972e-101
5.42818e-105
6.41133e-109
4.58734e-113
2.87468e-117
2.1527e-121
1.82492e-125
2.30991e-129
4.93217e-133
1.338e-136
4.06044e-140
1.31428e-143
4.53582e-147
5.06539e-149
7.30597e-150
2.36766e-58
9.7086e-42
1.32075e-40
2.01741e-39
3.07341e-38
2.62237e-37
1.05244e-36
2.62873e-36
4.91985e-36
7.46654e-36
1.01907e-35
1.29133e-35
1.52753e-35
1.69625e-35
1.7618e-35
1.71556e-35
1.59009e-35
1.42268e-35
1.22456e-35
8.75951e-36
9.68246e-36
4.43474e-40
4.84279e-40
7.03683e-40
7.95258e-40
7.70451e-40
6.78625e-40
5.57165e-40
4.283e-40
3.07763e-40
2.08039e-40
1.31454e-40
8.21393e-41
4.92387e-41
2.70571e-41
1.34608e-41
5.64134e-42
1.74038e-42
3.27139e-43
4.38467e-44
3.34975e-45
2.22438e-46
2.03861e-47
1.04271e-56
2.75984e-128
3.74716e-125
1.6021e-121
3.37649e-118
6.15521e-115
9.62966e-112
1.28048e-108
1.43031e-105
1.32256e-102
9.93622e-100
5.91983e-97
2.7078e-94
9.10579e-92
2.19064e-89
5.49224e-87
1.16495e-85
3.04746e-85
2.65498e-85
5.79733e-86
8.02842e-90
9.75113e-94
1.7326e-97
4.09668e-101
4.48156e-105
3.54893e-109
2.48475e-113
2.03665e-117
2.15271e-121
2.76662e-125
5.89401e-129
1.61514e-132
4.98714e-136
1.64765e-139
5.67974e-143
2.20101e-146
6.03336e-149
1.16645e-62
5.33796e-46
8.84929e-45
1.50963e-43
1.73022e-42
1.80802e-41
8.03359e-41
2.14121e-40
4.22624e-40
6.70238e-40
9.46943e-40
1.22923e-39
1.47827e-39
1.66546e-39
1.76029e-39
1.74098e-39
1.63945e-39
1.48102e-39
1.28133e-39
9.17242e-40
1.00677e-39
6.11189e-44
6.71493e-44
9.72641e-44
1.09166e-43
1.05019e-43
9.17235e-44
7.47189e-44
5.69097e-44
4.04785e-44
2.69549e-44
1.69809e-44
1.05436e-44
6.07953e-45
3.16467e-45
1.46918e-45
5.59351e-46
1.49602e-46
2.25877e-47
3.83766e-48
2.48908e-49
1.41641e-50
1.43702e-51
2.16917e-65
1.85103e-122
2.66904e-121
1.10808e-117
2.25306e-114
3.95806e-111
5.96348e-108
7.63473e-105
8.21229e-102
7.31644e-99
5.30097e-96
3.0497e-93
1.3494e-90
4.39986e-88
1.03028e-85
2.53212e-83
5.23382e-82
1.34853e-81
1.17843e-81
2.57468e-82
3.53676e-86
4.49978e-90
9.75113e-94
2.15867e-97
2.57876e-101
2.26418e-105
1.77641e-109
1.60823e-113
2.03665e-117
2.70003e-121
5.78873e-125
1.60818e-128
5.06828e-132
1.71348e-135
6.05114e-139
2.42808e-142
1.04847e-141
-9.72273e-64
3.50963e-50
7.03829e-49
1.36801e-47
1.25426e-46
1.52154e-45
7.53612e-45
2.15178e-44
4.48476e-44
7.43593e-44
1.08764e-43
1.44682e-43
1.7694e-43
2.01929e-43
2.17094e-43
2.17863e-43
2.088e-43
1.90827e-43
1.66106e-43
1.18999e-43
1.2973e-43
1.00038e-47
1.1036e-47
1.59544e-47
1.78039e-47
1.70287e-47
1.47712e-47
1.19506e-47
9.02476e-48
6.35488e-48
4.17009e-48
2.65982e-48
1.60211e-48
8.88037e-49
4.37863e-49
1.89564e-49
6.54112e-50
1.50393e-50
2.65382e-51
3.95986e-52
2.21206e-53
1.1061e-54
9.17149e-56
9.32706e-74
2.09777e-121
1.62683e-117
6.51753e-114
1.27549e-110
2.15515e-107
3.12236e-104
3.84434e-101
3.97858e-98
3.41287e-95
2.38334e-92
1.32344e-89
5.66234e-87
1.78955e-84
4.07881e-82
9.85131e-80
1.97373e-78
5.0029e-78
4.38372e-78
9.58826e-79
1.30869e-82
1.74613e-86
4.49976e-90
9.5944e-94
1.254e-97
1.22338e-101
1.07899e-105
1.08753e-109
1.60823e-113
2.23773e-117
4.89176e-121
1.38915e-124
4.49943e-128
1.56652e-131
5.70354e-135
2.40035e-138
9.91982e-138
-5.93451e-68
2.72066e-54
6.55034e-53
1.47014e-51
1.45455e-50
1.52147e-49
8.45596e-49
2.59427e-48
5.71365e-48
9.90239e-48
1.49896e-47
2.04423e-47
2.54615e-47
2.94647e-47
3.21589e-47
3.2714e-47
3.18572e-47
2.94635e-47
2.58141e-47
1.85068e-47
2.00439e-47
1.90118e-51
2.10507e-51
3.04352e-51
3.37851e-51
3.21534e-51
2.77283e-51
2.22994e-51
1.67028e-51
1.16445e-51
7.56679e-52
4.83485e-52
2.82506e-52
1.50539e-52
7.03444e-53
2.83966e-53
8.86995e-54
1.78612e-54
3.59915e-55
4.73911e-56
2.29042e-57
9.95288e-59
7.24801e-60
-8.04337e-78
1.12606e-117
9.52508e-114
3.30603e-110
6.21708e-107
1.00903e-103
1.40431e-100
1.66161e-97
1.65361e-94
1.3652e-91
9.18589e-89
4.92177e-86
2.03559e-83
6.23393e-81
1.38308e-78
3.28885e-76
6.36098e-75
1.58393e-74
1.39142e-74
3.04737e-75
4.13821e-79
5.79836e-83
1.74605e-86
3.66273e-90
5.24997e-94
5.70577e-98
5.67728e-102
6.41497e-106
1.02745e-109
1.61285e-113
3.64307e-117
1.06677e-120
3.57646e-124
1.29237e-127
4.88235e-131
2.17849e-134
1.21124e-137
-1.61106e-75
2.46345e-58
7.06457e-57
1.82487e-55
1.98115e-54
1.77254e-53
1.11248e-52
3.67481e-52
8.55514e-52
1.54914e-51
2.42551e-51
3.39124e-51
4.30529e-51
5.0565e-51
5.59108e-51
5.77623e-51
5.68694e-51
5.32543e-51
4.6965e-51
3.36917e-51
3.62655e-51
4.12598e-55
4.58284e-55
6.63352e-55
7.33582e-55
6.95999e-55
5.96969e-55
4.77372e-55
3.54773e-55
2.44963e-55
1.60764e-55
1.00467e-55
5.69721e-56
2.92021e-56
1.2945e-56
4.87352e-57
1.37774e-57
3.05901e-58
5.59693e-59
6.55787e-60
2.77339e-61
1.04982e-62
6.42646e-64
-8.63155e-79
1.42516e-113
7.01877e-110
1.4605e-106
2.63646e-103
4.10662e-100
5.48715e-97
6.23685e-94
5.96673e-91
4.73987e-88
3.07225e-85
1.58797e-82
6.34725e-80
1.88308e-77
4.06678e-75
9.53465e-73
1.78463e-71
4.39296e-71
3.87172e-71
8.45797e-72
1.1318e-75
1.66808e-79
5.35841e-83
1.21683e-86
1.91813e-90
2.33022e-94
2.62593e-98
3.3488e-102
5.86551e-106
1.02745e-109
2.42753e-113
7.38695e-117
2.57727e-120
9.72348e-124
3.82113e-127
6.70118e-130
1.12486e-133
6.30318e-80
2.58907e-62
8.76926e-61
2.59529e-59
3.10034e-58
2.37258e-57
1.69138e-56
6.02129e-56
1.48147e-55
2.80087e-55
4.53303e-55
6.495e-55
8.40398e-55
1.00186e-54
1.12188e-54
1.1753e-54
1.16837e-54
1.10703e-54
9.82555e-55
7.05214e-55
7.54798e-55
1.00975e-58
1.12386e-58
1.63054e-58
1.79912e-58
1.70303e-58
1.45494e-58
1.15724e-58
8.53595e-59
5.84585e-59
3.85725e-59
2.35916e-59
1.29951e-59
6.41413e-60
2.70155e-60
9.49966e-61
2.43089e-61
5.93082e-62
9.89843e-63
1.03736e-63
3.8523e-65
1.27627e-66
6.35251e-68
1.19628e-86
2.63757e-110
2.71803e-106
5.65895e-103
9.79718e-100
1.46428e-96
1.87803e-93
2.05022e-90
1.88532e-87
1.4409e-84
8.99568e-82
4.48474e-79
1.74411e-76
5.06465e-74
1.07522e-71
2.46924e-69
4.59716e-68
1.12211e-67
9.94238e-68
2.17203e-68
2.69998e-72
4.19376e-76
1.44055e-79
3.5517e-83
6.17801e-87
8.4219e-91
1.07967e-94
1.56428e-98
3.03023e-102
5.86551e-106
1.4686e-109
4.68937e-113
1.715e-116
6.76954e-120
2.84244e-123
6.28005e-126
9.07122e-130
-5.68355e-84
3.14761e-66
1.24739e-64
4.20515e-63
5.52433e-62
4.01423e-61
2.94065e-60
1.12797e-59
2.93036e-59
5.77846e-59
9.65932e-59
1.41745e-58
1.86815e-58
2.25915e-58
2.56053e-58
2.71629e-58
2.72467e-58
2.61032e-58
2.33083e-58
1.6735e-58
1.78206e-58
2.76061e-62
3.07606e-62
4.47785e-62
4.93491e-62
4.664e-62
3.97111e-62
3.14414e-62
2.30238e-62
1.59162e-62
1.03541e-62
6.20378e-63
3.3238e-63
1.58364e-63
6.35133e-64
2.08931e-64
5.36469e-65
1.29577e-65
1.98457e-66
1.87535e-67
6.16385e-69
2.14758e-70
6.57353e-72
-3.21669e-87
2.19188e-106
1.00331e-102
1.93326e-99
3.2091e-96
4.60097e-93
5.66395e-90
5.9388e-87
5.24927e-84
3.88377e-81
2.35898e-78
1.14764e-75
4.33821e-73
1.22365e-70
2.52887e-68
5.63839e-66
1.03855e-64
2.50632e-64
2.2306e-64
4.87273e-65
5.64987e-69
9.26955e-73
3.4145e-76
9.17129e-80
1.76739e-83
2.71575e-87
3.9804e-91
6.59395e-95
1.42632e-98
3.03023e-102
8.14028e-106
2.75461e-109
1.06429e-112
4.43304e-116
2.03611e-119
4.63475e-122
5.91871e-126
-5.01648e-88
4.4159e-70
2.02739e-68
7.73204e-67
1.1158e-65
8.69429e-65
5.80354e-64
2.39476e-63
6.55788e-63
1.34666e-62
2.32241e-62
3.48774e-62
4.6786e-62
5.73382e-62
6.57118e-62
7.04456e-62
7.14228e-62
6.89809e-62
6.19881e-62
4.4517e-62
4.71897e-62
8.36038e-66
9.32687e-66
1.36329e-65
1.50159e-65
1.4178e-65
1.20347e-65
9.49029e-66
6.90384e-66
4.81578e-66
3.08599e-66
1.81371e-66
9.46774e-67
4.37408e-67
1.67507e-67
5.17924e-68
1.40488e-68
3.17721e-69
4.49501e-70
3.86018e-71
1.13315e-72
3.70623e-74
7.84527e-76
7.28312e-95
3.63024e-103
2.98457e-99
5.84242e-96
9.29993e-93
1.27918e-89
1.51586e-86
1.53771e-83
1.31888e-80
9.43519e-78
5.53438e-75
2.60286e-72
9.52608e-70
2.6067e-67
5.24245e-65
1.1365e-62
2.06091e-61
4.91076e-61
4.38692e-61
9.58461e-62
1.04074e-65
1.8083e-69
7.16666e-73
2.10541e-76
4.51587e-80
7.86229e-84
1.32488e-87
2.52596e-91
6.1559e-95
1.42632e-98
4.15565e-102
1.50326e-105
6.17796e-109
2.73213e-112
1.3905e-115
3.47006e-118
5.1857e-122
4.8549e-92
7.14302e-74
3.75864e-72
1.60886e-70
2.53653e-69
2.11368e-68
1.29351e-67
5.72442e-67
1.64812e-66
3.51681e-66
6.24712e-66
9.59098e-66
1.3084e-65
1.62346e-65
1.87911e-65
2.03353e-65
2.08154e-65
2.02559e-65
1.83098e-65
1.3151e-65
1.38843e-65
2.7858e-69
3.11273e-69
4.57037e-69
5.03331e-69
4.7497e-69
4.02056e-69
3.15954e-69
2.30915e-69
1.60554e-69
1.01484e-69
5.86014e-70
2.99452e-70
1.34065e-70
4.92052e-71
1.43666e-71
4.0943e-72
8.71611e-73
1.14545e-73
9.00047e-75
2.37474e-76
6.9805e-78
1.08171e-79
-4.35736e-99
2.32824e-99
9.05e-96
1.56617e-92
2.39768e-89
3.18307e-86
3.64104e-83
3.55922e-80
2.94238e-77
2.03011e-74
1.14942e-71
5.2238e-69
1.85022e-66
4.90926e-64
9.60581e-62
2.02724e-59
3.60296e-58
8.4673e-58
7.58814e-58
1.65786e-58
1.69079e-62
3.12045e-66
1.33565e-69
4.31138e-73
1.03475e-76
2.05341e-80
4.00316e-84
8.84335e-88
2.44895e-91
6.1559e-95
1.96477e-98
7.65991e-102
3.36907e-105
1.58888e-108
9.07865e-112
2.54252e-114
3.64337e-118
1.18585e-95
1.33073e-77
7.93747e-76
3.78011e-74
6.46869e-73
5.74286e-72
3.24515e-71
1.53299e-70
4.62426e-70
1.02252e-69
1.86701e-69
2.92591e-69
4.05492e-69
5.08929e-69
5.9431e-69
6.48404e-69
6.69431e-69
6.55767e-69
5.95959e-69
4.2804e-69
4.50276e-69
1.01532e-72
1.13681e-72
1.67697e-72
1.84713e-72
1.74242e-72
1.47154e-72
1.15312e-72
8.50845e-73
5.86533e-73
3.66281e-73
2.08444e-73
1.04392e-73
4.54166e-74
1.60456e-74
4.81129e-75
1.32447e-75
2.66923e-76
3.28103e-77
2.37896e-78
5.69207e-80
1.46371e-81
1.72247e-83
9.31125e-93
5.65359e-96
2.27115e-92
3.73054e-89
5.50518e-86
7.04024e-83
7.75747e-80
7.30643e-77
5.82186e-74
3.87363e-71
2.11654e-68
9.29231e-66
3.18381e-63
8.18709e-61
1.55816e-58
3.20411e-56
5.55823e-55
1.28676e-54
1.15634e-54
2.52492e-55
2.42414e-59
4.76816e-63
2.21379e-66
7.89277e-70
2.13255e-73
4.85596e-77
1.10272e-80
2.84211e-84
8.84335e-88
2.44895e-91
8.64434e-95
3.66117e-98
1.73474e-101
8.77327e-105
4.60878e-107
1.72632e-110
2.42926e-114
-1.79515e-97
2.85223e-81
1.90705e-79
1.00109e-77
1.84652e-76
1.73794e-75
9.14493e-75
4.58167e-74
1.44166e-73
3.2924e-73
6.16363e-73
9.84124e-73
1.38358e-72
1.7547e-72
2.0653e-72
2.2691e-72
2.36005e-72
2.32511e-72
2.123e-72
1.52457e-72
1.59847e-72
4.02542e-76
4.51883e-76
6.69705e-76
7.37974e-76
6.96058e-76
5.86812e-76
4.60372e-76
3.41387e-76
2.33659e-76
1.44426e-76
8.12819e-77
3.99372e-77
1.69485e-77
5.79279e-78
1.79322e-78
4.7432e-79
9.10087e-80
1.05351e-80
7.1032e-82
1.55452e-83
3.45965e-85
2.79469e-87
2.13758e-89
1.32317e-92
5.05366e-89
7.88234e-86
1.12062e-82
1.38097e-79
1.4662e-76
1.33081e-73
1.02215e-70
6.55805e-68
3.45736e-65
1.46584e-62
4.85629e-60
1.20959e-57
2.23852e-55
4.48818e-53
7.56887e-52
1.72395e-51
1.55298e-51
3.38587e-52
3.06645e-56
6.45284e-60
3.2658e-63
1.29366e-66
3.96193e-70
1.04287e-73
2.77869e-77
8.41335e-81
2.84211e-84
9.01646e-88
3.55129e-91
1.64658e-94
8.46382e-98
4.88464e-101
2.9876e-103
2.11033e-106
2.77708e-109
-7.63876e-99
7.02558e-85
5.20667e-83
2.98345e-81
5.88739e-80
5.84441e-79
3.1079e-78
1.52351e-77
4.97441e-77
1.16875e-76
2.23675e-76
3.63033e-76
5.16864e-76
6.61518e-76
7.83985e-76
8.66472e-76
9.06777e-76
8.97617e-76
8.22788e-76
5.90652e-76
6.17381e-76
1.72726e-79
1.94504e-79
2.89544e-79
3.19417e-79
3.01206e-79
2.53703e-79
2.01034e-79
1.4849e-79
1.01072e-79
6.19942e-80
3.45524e-80
1.67103e-80
6.94671e-81
2.30984e-81
7.34393e-82
1.87598e-82
3.44777e-83
3.78526e-84
2.39221e-85
4.83885e-87
1.07741e-88
6.75956e-89
5.51716e-89
3.13511e-89
1.02764e-85
1.4898e-82
2.02076e-79
2.40063e-76
2.457e-73
2.14968e-70
1.59167e-67
9.84685e-65
5.00777e-62
2.0497e-59
6.56305e-57
1.58249e-54
2.84703e-52
5.56842e-50
9.09194e-49
2.03472e-48
1.8369e-48
3.99382e-49
3.41961e-53
7.73181e-57
4.2895e-60
1.90055e-63
6.64801e-67
2.0392e-70
6.42327e-74
2.29983e-77
8.41335e-81
3.08089e-84
1.36538e-87
6.98156e-91
3.91539e-94
2.6502e-97
1.826e-99
1.29539e-102
4.96666e-106
5.35597e-103
1.9862e-88
1.61328e-86
9.98954e-85
2.09275e-83
2.17796e-82
1.20123e-81
5.62147e-81
1.89318e-80
4.55617e-80
8.88454e-80
1.46205e-79
2.10376e-79
2.71311e-79
3.23379e-79
3.59136e-79
3.77703e-79
3.75322e-79
3.45068e-79
2.47572e-79
2.58019e-79
7.98276e-83
9.02182e-83
1.34878e-82
1.49043e-82
1.4055e-82
1.18384e-82
9.46541e-83
6.97335e-83
4.72867e-83
2.88855e-83
1.59576e-83
7.62331e-84
3.11863e-84
1.01586e-84
3.29699e-85
8.17705e-86
1.44861e-86
1.51952e-87
9.08596e-89
3.6745e-90
5.38817e-89
8.57992e-89
7.04991e-89
1.39013e-85
1.89047e-82
2.50533e-79
3.21762e-76
3.69246e-73
3.64512e-70
3.07514e-67
2.19529e-64
1.30954e-61
6.42364e-59
2.53751e-56
7.84937e-54
1.83118e-51
3.20197e-49
6.11152e-47
9.62059e-46
2.11245e-45
1.91074e-45
4.13702e-46
3.35839e-50
8.19847e-54
5.01784e-57
2.50554e-60
1.0095e-63
3.63945e-67
1.36543e-70
5.81592e-74
2.29983e-77
9.78705e-81
4.91694e-84
2.79158e-87
1.72292e-90
1.18596e-92
1.04392e-95
7.51242e-99
2.2026e-102
3.88809e-99
6.4346e-92
5.66402e-90
3.75147e-88
8.27616e-87
8.97006e-86
5.1053e-85
2.29597e-84
7.92273e-84
1.94366e-83
3.84785e-83
6.40197e-83
9.28935e-83
1.20508e-82
1.44264e-82
1.60799e-82
1.69739e-82
1.6915e-82
1.55845e-82
1.1172e-82
1.16105e-82
3.95569e-86
4.48886e-86
6.73965e-86
7.46248e-86
7.04259e-86
5.95958e-86
4.78642e-86
3.5224e-86
2.38554e-86
1.45318e-86
7.9814e-87
3.78066e-87
1.52937e-87
5.08185e-88
1.61872e-88
3.91982e-89
6.73836e-90
7.63239e-91
2.41433e-91
2.00938e-90
3.77595e-90
1.14759e-88
1.74376e-85
2.38775e-82
3.06157e-79
3.71281e-76
4.52552e-73
5.01274e-70
4.77617e-67
3.88694e-64
2.67606e-61
1.53942e-58
7.28304e-56
2.77608e-53
8.29311e-51
1.87092e-48
3.17929e-46
5.9234e-44
8.9498e-43
1.92513e-42
1.74434e-42
3.75549e-43
2.90173e-47
7.69007e-51
5.23049e-54
2.96849e-57
1.39047e-60
5.94455e-64
2.6752e-67
1.36231e-70
5.81592e-74
2.89275e-77
1.65737e-80
1.0517e-83
7.59012e-87
6.2386e-89
5.47093e-92
4.13239e-95
1.12811e-98
2.21711e-95
4.60839e-95
2.24678e-93
1.57706e-91
3.63385e-90
4.07395e-89
2.37982e-88
1.03539e-87
3.635e-87
9.04389e-87
1.81058e-86
3.03632e-86
4.43208e-86
5.77268e-86
6.93063e-86
7.74307e-86
8.19333e-86
8.18011e-86
7.5458e-86
5.40339e-86
5.59983e-86
2.09271e-89
2.38552e-89
3.59712e-89
3.9927e-89
3.77403e-89
3.22088e-89
2.58984e-89
1.90698e-89
1.29356e-89
7.86787e-90
4.30987e-90
2.03226e-90
8.17001e-91
2.75987e-91
8.67046e-92
2.06688e-92
7.4197e-93
8.28671e-92
1.97973e-91
2.4281e-91
1.29842e-88
2.01567e-85
2.85395e-82
3.72742e-79
4.5243e-76
5.13906e-73
5.70485e-70
5.97719e-67
5.5089e-64
4.32788e-61
2.87488e-58
1.59525e-55
7.28008e-53
2.67748e-50
7.72273e-48
1.6841e-45
2.78143e-43
5.05936e-41
7.30213e-40
1.53614e-39
1.39304e-39
2.99717e-40
2.20381e-44
6.37972e-48
4.86282e-51
3.16713e-54
1.7422e-57
8.91221e-61
4.84053e-64
2.6752e-67
1.36231e-70
7.95603e-74
5.22355e-77
3.72673e-80
2.83867e-82
3.12612e-85
2.65935e-88
2.12269e-91
1.21138e-94
4.60839e-95
2.52588e-95
2.68433e-96
7.31388e-95
1.76667e-93
2.03563e-92
1.21373e-91
5.14123e-91
1.82301e-90
4.57524e-90
9.22492e-90
1.5542e-89
2.27631e-89
2.9707e-89
3.57113e-89
3.99352e-89
4.23034e-89
4.22735e-89
3.90065e-89
2.78929e-89
2.88263e-89
1.19981e-92
1.37798e-92
2.08939e-92
2.32913e-92
2.20909e-92
1.90066e-92
1.53249e-92
1.13088e-92
7.69193e-93
4.67794e-93
2.55871e-93
1.20138e-93
4.79398e-94
1.62326e-94
8.07612e-95
1.1126e-94
3.91421e-93
7.45515e-93
8.02953e-92
1.14706e-88
1.94804e-85
2.9496e-82
4.04114e-79
5.06038e-76
5.83742e-73
6.24694e-70
6.30369e-67
6.25563e-64
5.57072e-61
4.22882e-58
2.71216e-55
1.45244e-52
6.39606e-50
2.27012e-47
6.32169e-45
1.33221e-42
2.13919e-40
3.79919e-38
5.21083e-37
1.07013e-36
9.70704e-37
2.10483e-37
1.47027e-41
4.68149e-45
4.03797e-48
3.05103e-51
1.99258e-54
1.2303e-57
8.10373e-61
4.84053e-64
2.95777e-67
2.0342e-70
1.53645e-73
1.24188e-76
1.25159e-78
1.34899e-81
1.2046e-84
1.00477e-87
7.71018e-91
5.3719e-94
2.68433e-96
2.54531e-96
2.15441e-96
1.90254e-96
1.11512e-95
6.75399e-95
2.80224e-94
9.9625e-94
2.50841e-93
5.07225e-93
8.57178e-93
1.2592e-92
1.64562e-92
1.9796e-92
2.21437e-92
2.34641e-92
2.34565e-92
2.16326e-92
1.54433e-92
1.58993e-92
7.34803e-96
8.50141e-96
1.2965e-95
1.45298e-95
1.38524e-95
1.19893e-95
9.72159e-96
7.22273e-96
4.94694e-96
3.02959e-96
1.67032e-96
7.90957e-97
3.19656e-97
2.50893e-97
3.02443e-95
8.085e-95
1.11299e-94
7.79318e-92
1.2535e-88
1.75148e-85
2.51989e-82
3.77279e-79
5.04462e-76
6.09867e-73
6.72535e-70
6.81429e-67
6.38906e-64
5.801e-61
4.90409e-58
3.60901e-55
2.2372e-52
1.15728e-49
4.92104e-47
1.68636e-44
4.53491e-42
9.23479e-40
1.44277e-37
2.50155e-35
3.24213e-34
6.48717e-34
5.88703e-34
1.283e-34
8.61196e-39
3.03924e-42
3.00008e-45
2.66227e-48
2.0883e-51
1.56891e-54
1.2303e-57
8.10373e-61
5.95225e-64
4.82541e-67
4.19769e-70
4.39105e-73
5.10217e-75
5.31688e-78
4.97516e-81
4.31286e-84
3.40624e-87
2.43011e-90
1.54365e-93
2.15441e-96
1.90254e-96
9.9676e-97
1.84612e-98
4.30528e-98
1.71782e-97
6.09552e-97
1.53316e-96
3.09917e-96
5.21775e-96
7.63339e-96
9.93644e-96
1.19139e-95
1.32894e-95
1.40511e-95
1.40281e-95
1.29099e-95
9.19349e-96
9.44112e-96
4.74394e-99
5.53123e-99
8.48244e-99
9.55971e-99
9.16796e-99
7.97962e-99
6.51433e-99
4.87886e-99
3.36982e-99
2.08284e-99
1.16035e-99
9.03764e-100
6.86038e-99
1.34886e-97
2.5094e-97
3.02178e-95
5.83452e-92
1.02145e-88
1.62491e-85
2.35335e-82
3.10423e-79
4.05639e-76
5.35666e-73
6.31029e-70
6.70272e-67
6.47067e-64
5.71786e-61
4.68881e-58
3.75406e-55
2.67325e-52
1.6052e-49
8.03152e-47
3.30144e-44
1.0933e-41
2.84081e-39
5.59143e-37
8.51022e-35
1.44006e-32
1.75264e-31
3.40946e-31
3.09598e-31
6.7626e-32
4.42638e-36
1.74556e-39
1.99787e-42
2.11119e-45
2.01345e-48
1.85363e-51
1.56891e-54
1.2571e-57
1.10965e-60
1.05982e-63
1.06439e-66
1.34441e-68
1.75681e-71
1.87204e-74
1.84347e-77
1.64822e-80
1.32762e-83
9.53254e-87
5.99748e-90
3.19945e-93
1.31642e-96
1.84612e-98
1.36658e-98
4.81728e-99
2.13102e-100
4.07236e-100
1.01749e-99
2.03694e-99
3.39831e-99
4.93587e-99
6.38395e-99
7.61399e-99
8.45511e-99
8.90756e-99
8.87239e-99
8.14128e-99
5.78207e-99
5.92143e-99
3.21541e-102
3.77893e-102
5.82649e-102
6.60756e-102
6.37754e-102
5.58394e-102
4.59508e-102
3.47334e-102
2.42243e-102
1.5224e-102
2.27914e-102
4.88787e-100
9.03777e-100
6.80038e-99
1.58162e-95
3.38481e-92
6.52797e-89
1.13731e-85
1.79338e-82
2.56339e-79
3.32496e-76
3.91951e-73
4.8893e-70
5.68597e-67
5.8785e-64
5.45505e-61
4.57676e-58
3.49728e-55
2.53151e-52
1.70617e-49
9.95462e-47
4.82732e-44
1.9214e-41
6.1575e-39
1.54762e-36
2.94618e-34
4.3775e-32
7.2242e-30
8.19913e-29
1.54707e-28
1.406e-28
3.07038e-29
1.99474e-33
8.86144e-37
1.19387e-39
1.52585e-42
1.79227e-45
2.01345e-48
1.85363e-51
1.80888e-54
1.91418e-57
2.15434e-60
2.63803e-62
4.28035e-65
5.25348e-68
5.91653e-71
6.0215e-74
5.4967e-77
4.45813e-80
3.16553e-83
1.91449e-86
9.25067e-90
5.4467e-93
3.58458e-96
4.7351e-99
2.13102e-100
1.14273e-100
3.91961e-102
8.88875e-103
1.42345e-102
2.34996e-102
3.38109e-102
4.33611e-102
5.13544e-102
5.66911e-102
5.9435e-102
5.90102e-102
5.39484e-102
3.82019e-102
3.90067e-102
2.28041e-105
2.70135e-105
4.18743e-105
4.78255e-105
4.64734e-105
4.09548e-105
3.40111e-105
2.59719e-105
2.45319e-105
1.31782e-103
1.08704e-102
2.27914e-102
2.14553e-99
5.79172e-96
1.39655e-92
3.0177e-89
5.85881e-86
1.02406e-82
1.61376e-79
2.29502e-76
2.94736e-73
3.41909e-70
3.65586e-67
4.23605e-64
4.32432e-61
3.90206e-58
3.14008e-55
2.26916e-52
1.48596e-49
9.38994e-47
5.28188e-44
2.4952e-41
9.64011e-39
2.99584e-36
7.29611e-34
1.34515e-31
1.95744e-29
3.14637e-27
3.30422e-26
6.03191e-26
5.48736e-26
1.19806e-26
7.8706e-31
3.96466e-34
6.39624e-37
1.00619e-39
1.476e-42
1.79227e-45
2.03472e-48
2.41691e-51
3.05583e-54
4.13349e-57
7.1159e-59
1.09714e-61
1.39992e-64
1.63153e-67
1.69576e-70
1.5579e-73
1.24829e-76
8.51387e-80
4.67928e-83
2.97551e-86
2.17622e-89
1.44726e-92
8.73687e-96
4.82146e-99
3.91961e-102
8.88875e-103
4.78894e-103
2.71649e-105
1.65308e-105
2.4431e-105
3.10237e-105
3.64245e-105
3.99162e-105
4.15948e-105
4.11287e-105
3.74358e-105
2.64229e-105
2.6894e-105
1.68659e-108
2.01394e-108
3.13906e-108
3.61237e-108
3.5364e-108
3.13694e-108
2.63715e-108
5.46833e-108
1.33638e-105
2.45319e-105
1.25955e-103
4.59538e-100
1.43225e-96
3.9587e-93
9.74992e-90
2.14666e-86
4.2346e-83
7.49583e-80
1.19176e-76
1.70253e-73
2.18548e-70
2.51993e-67
2.609e-64
2.60711e-61
2.68508e-58
2.39541e-55
1.87403e-52
1.29671e-49
7.99645e-47
4.49406e-44
2.39033e-41
1.09739e-38
4.13637e-36
1.25036e-33
2.95853e-31
5.29467e-29
7.58329e-27
1.18448e-24
1.14087e-23
2.00949e-23
1.83016e-23
4.0019e-24
2.71248e-28
1.55168e-31
3.0548e-34
6.03195e-37
1.00619e-39
1.476e-42
2.07966e-45
3.00212e-48
4.53134e-51
8.37601e-53
1.61467e-55
2.39405e-58
3.21549e-61
3.82455e-64
3.99276e-67
3.61268e-70
2.76927e-73
1.70939e-76
1.22872e-79
1.00009e-82
7.37259e-86
4.91861e-89
2.96769e-92
1.6172e-95