/*--------------------------------*- C++ -*----------------------------------*\
| =========                 |                                                 |
| \\      /  F ield         | OpenFOAM: The Open Source CFD Toolbox           |
|  \\    /   O peration     | Version:  2412                                  |
|   \\  /    A nd           | Website:  www.openfoam.com                      |
|    \\/     M anipulation  |                                                 |
\*---------------------------------------------------------------------------*/
FoamFile
{
    version     2.0;
    format      ascii;
    arch        "LSB;label=32;scalar=64";
    class       volScalarField;
    location    "5.24";
    object      p;
}
// * * * * * * * * * * * * * * * * * * * * * * * * * * * * * * * * * * * * * //

dimensions      [1 -1 -2 0 0 0 0];

internalField   nonuniform List<scalar> 
80000
(
29673.8
29673.8
29674
29674.3
29674.8
29675.4
29676
29676.8
29677.6
29678.6
29679.7
29680.8
29682.1
29683.4
29684.9
29686.5
29688.1
29689.9
29691.8
29693.8
29695.9
29698.1
29700.4
29702.8
29705.3
29708
29710.7
29713.5
29716.5
29719.6
29722.8
29726
29729.4
29732.9
29736.6
29740.3
29744.1
29748.1
29752.2
29756.3
29760.6
29765
29769.5
29774.2
29778.9
29783.8
29788.7
29793.8
29799
29804.3
29809.7
29815.2
29820.9
29826.6
29832.5
29838.5
29844.6
29850.8
29857.1
29863.6
29870.1
29876.8
29883.6
29890.5
29897.5
29904.6
29911.9
29919.2
29926.7
29934.3
29942
29949.8
29957.7
29965.7
29973.9
29982.2
29990.5
29999
30007.6
30016.3
30025.2
30034.1
30043.1
30052.3
30061.6
30070.9
30080.4
30090
30099.7
30109.5
30119.4
30129.4
30139.6
30149.8
30160.1
30170.6
30181.1
30191.7
30202.5
30213.3
30224.2
30235.3
30246.4
30257.6
30268.9
30280.3
30291.8
30303.4
30315.1
30326.9
30338.7
30350.6
30362.7
30374.8
30386.9
30399.2
30411.5
30423.9
30436.4
30448.9
30461.5
30474.2
30487
30499.8
30512.6
30525.5
30538.5
30551.5
30564.6
30577.7
30590.9
30604.1
30617.3
30630.6
30643.9
30657.2
30670.6
30684
30697.4
30710.8
30724.2
30737.7
30751.1
30764.6
30778
30791.5
30804.9
30818.3
30831.8
30845.1
30858.5
30871.8
30885.1
30898.4
30911.6
30924.8
30937.9
30951
30964
30976.9
30989.8
31002.6
31015.3
31027.9
31040.5
31052.9
31065.2
31077.5
31089.6
31101.6
31113.5
31125.2
31136.8
31148.3
31159.6
31170.8
31181.8
31192.6
31203.3
31213.8
31224.1
31234.3
31244.2
31253.9
31263.5
31272.8
31281.9
31290.7
31299.3
31307.7
31315.9
31323.7
31331.4
31338.7
31345.8
31352.6
31359.1
31365.3
31371.2
31376.8
31382.1
31387
31391.6
31395.9
31399.9
31403.4
31406.7
31409.5
31412
31414.1
31415.8
31417.2
31418.1
31418.6
31418.7
31418.4
31417.6
31416.4
31414.8
31412.7
31410.1
31407.1
31403.6
31399.7
31395.2
31390.3
31384.9
31378.9
31372.5
31365.5
31358
31350
31341.4
31332.3
31322.6
31312.4
31301.7
31290.3
31278.4
31265.9
31252.9
31239.2
31225
31210.1
31194.7
31178.6
31161.9
31144.6
31126.7
31108.2
31089.1
31069.3
31048.8
31027.8
31006.1
30983.7
30960.7
30937.1
30912.8
30887.9
30862.3
30836
30809.1
30781.5
30753.3
30724.4
30694.9
30664.7
30633.8
30602.3
30570.1
30537.3
30503.8
30469.7
30434.9
30399.5
30363.4
30326.8
30289.4
30251.5
30212.9
30173.8
30134
30093.6
30052.6
30011.1
29968.9
29926.2
29883
29839.2
29794.9
29750
29704.6
29658.8
29612.4
29565.6
29518.3
29470.6
29422.5
29374
29325
29275.7
29226.1
29176.2
29126
29075.5
29024.7
28973.8
28922.7
28871.4
28819.9
28768.3
28716.7
28665
28613.3
28561.6
28510
28458.4
28407
28355.8
28304.8
28254
28203.5
28153.3
28103.6
28054.2
28005.3
27956.9
27909
27861.7
27815.1
27769.1
27723.8
27679.2
27635.5
27592.6
27550.5
27509.4
27469.1
27429.9
27391.6
27354.4
27318.3
27283.2
27249.2
27216.4
27184.8
27154.3
27125.1
27097
27070.3
27044.7
27020.5
26997.5
26975.8
26955.5
26936.5
26918.8
26902.5
26887.6
26874.1
26861.9
26851.2
26841.9
26834
26827.6
26822.6
26819.2
26817.2
26816.8
26817.8
26820.4
26824.6
26830.4
26837.8
26846.7
26857.3
26869.5
26883.4
26899
26916.2
26935.1
26955.7
26978
27002
27027.8
27055.2
27084.4
27115.3
27147.9
27182.3
27218.3
27256
27295.3
27336.3
27379
27423.1
27468.9
27516.1
27564.8
27614.9
27666.4
27719.1
27773.1
27828.2
27884.5
27941.7
27999.8
28058.7
28118.4
28178.7
28239.5
28300.7
28362.3
28424
28485.7
28547.5
28609
28670.3
28731.2
28791.5
28851.1
28910
28967.9
29024.8
29080.6
29135.2
29188.3
29240.1
29290.3
29338.8
29385.5
29430.4
29473.4
29514.4
29553.3
29590.2
29624.9
29657.4
29687.6
29715.6
29741.2
29764.6
29785.6
29804.3
29820.6
29834.6
29846.3
29855.6
29862.6
29867.4
29869.9
29870.2
29868.3
29864.3
29858.2
29850
29839.9
29827.8
29813.8
29797.9
29780.3
29761
29740.1
29717.5
29693.5
29668
29641.2
29613.1
29583.8
29553.3
29521.8
29489.3
29455.9
29421.7
29386.8
29351.3
29315.2
29278.6
29241.7
29204.5
29167.2
29129.7
29092.1
29054.7
29017.4
28980.3
28943.6
28907.3
28871.5
28836.3
28801.8
28768.1
28735.1
28703.1
28672.1
28642.2
28613.4
28585.8
28559.4
28534.4
28510.7
28488.5
28467.8
28448.5
28430.9
28414.8
28400.4
28387.6
28376.4
28367
28359.3
28353.3
28349.1
28346.5
28345.5
28346.3
28348.6
28352.5
28358
28365.1
28373.6
28383.6
28394.9
28407.6
28421.5
28436.6
28452.9
28470.3
28488.6
28507.8
28527.8
28548.6
28570.1
28592.1
28614.7
28637.6
28660.8
28684.3
28707.9
28731.6
28755.3
28778.9
28802.4
28825.6
28848.5
28871
28893.1
28914.8
28935.9
28956.4
28976.4
28995.6
29014.2
29032.2
29049.3
29065.7
29081.4
29096.2
29110.4
29123.7
29136.3
29148.1
29159.2
29169.6
29179.3
29188.2
29196.5
29204.1
29211.1
29217.5
29223.3
29228.6
29233.3
29237.5
29241.2
29244.4
29247.2
29249.5
29251.4
29252.9
29254
29254.7
29255
29255
29254.5
29253.7
29252.6
29251
29249
29246.7
29243.9
29240.7
29237.1
29233
29228.4
29223.3
29217.7
29211.6
29204.9
29197.7
29189.8
29181.3
29172.1
29162.3
29151.7
29140.5
29128.5
29115.7
29102.2
29087.9
29072.8
29056.9
29040.1
29022.5
29004.2
28985.1
28965.3
28944.7
28923.5
28901.6
28879
28855.9
28832.3
28808.2
28783.8
28759.1
28734.1
28709
28683.9
28658.8
28633.9
28609.3
28585.1
28561.3
28538.1
28515.6
28493.9
28473.2
28453.5
28434.9
28417.6
28401.7
28387.1
28374.1
28362.8
28353.1
28345.2
28339.1
28335
28332.8
28332.6
28334.5
28338.4
28344.5
28352.6
28362.9
28375.4
28389.9
28406.5
28425.2
28446
28468.7
28493.4
28520
28548.3
28578.5
28610.2
28643.6
28678.4
28714.7
28752.2
28790.9
28830.6
28871.3
28912.8
28955
28997.8
29040.9
29084.4
29128
29171.6
29215.1
29258.3
29301.2
29343.5
29385.1
29425.8
29465.6
29504.3
29541.8
29577.8
29612.3
29645.1
29676.2
29705.4
29732.5
29757.5
29780.2
29800.5
29818.3
29833.5
29846.1
29855.8
29862.6
29866.4
29867.1
29864.8
29859.2
29850.4
29838.3
29822.8
29804
29781.7
29756.1
29727.1
29694.7
29658.9
29619.8
29577.5
29532
29483.5
29432.1
29377.9
29318.6
29259
29196.8
29132.1
29065.3
28996.6
28926.2
28854.2
28780.9
28706.5
28631.2
28555.3
28479
28402.5
28326.1
28249.9
28174.3
28099.3
28025.3
27952.3
27880.7
27810.6
27742.1
27675.5
27610.9
27548.4
27488.2
27430.4
27375
27322.2
27272.2
27224.8
27180.3
27138.6
27099.9
27064.1
27031.2
27001.3
26974.4
26950.4
26929.4
26911.4
26896.2
26884
26874.6
26868
26864.2
26863.2
26864.8
26869.1
26876
26885.5
26897.4
26911.8
26928.6
26947.7
26969.1
26992.8
27018.6
27046.6
27076.6
27108.7
27142.8
27178.8
27216.7
27256.4
27297.9
27341.1
27386
27432.5
27480.6
27530.2
27581.2
27633.7
27687.5
27742.7
27799.1
27856.6
27915.3
27975.1
28035.9
28097.7
28160.3
28223.8
28288.1
28353.1
28418.7
28485
28551.7
28618.9
28686.4
28754.3
28822.4
28890.7
28958.9
29027.3
29095.7
29163.9
29231.9
29299.7
29367.1
29434.2
29500.9
29566.9
29632.4
29697.2
29761.3
29824.7
29887.2
29948.9
30009.7
30069.6
30128.4
30186.3
30243.1
30298.7
30353.3
30406.7
30458.8
30509.8
30559.5
30608
30655.2
30701
30745.6
30788.7
30830.5
30871
30910
30947.6
30983.8
31018.6
31052
31083.9
31114.3
31143.4
31170.9
31197.1
31221.8
31245.1
31266.9
31287.4
31306.4
31324
31340.3
31355.2
31368.8
31381
31391.9
31401.5
31409.9
31417
31422.8
31427.4
31430.9
31433.2
31434.3
31434.3
31433.3
31431.1
31428
31423.8
31418.6
31412.4
31405.3
31397.3
31388.4
31378.7
31368.1
31356.7
31344.5
31331.6
31318
31303.7
31288.7
31273
31256.8
31239.9
31222.5
31204.6
31186.2
31167.3
31147.9
31128.1
31107.9
31087.3
31066.4
31045.1
31023.6
31001.7
30979.6
30957.3
30934.8
30912
30889.2
30866.1
30843
30819.7
30796.4
30773
30749.6
30726.1
30702.6
30679.2
30655.8
30632.4
30609.1
30585.9
30562.7
30539.7
30516.8
30494.1
30471.5
30449.1
30426.8
30404.8
30382.9
30361.3
30339.9
30318.7
30297.8
30277.1
30256.7
30236.6
30216.7
30197.2
30177.9
30158.9
30140.3
30122
30104
30086.3
30069
30052
30035.3
30019
30003.1
29987.5
29972.3
29957.4
29943
29928.9
29915.1
29901.8
29888.8
29876.2
29864
29852.2
29840.8
29829.8
29819.2
29808.9
29799.1
29789.6
29780.6
29772
29763.7
29755.9
29748.5
29741.5
29734.8
29728.6
29722.8
29717.4
29712.5
29707.9
29703.7
29700
29696.7
29693.7
29691.2
29689.2
29687.5
29686.2
29685.4
29685
28938.1
28938.2
28938.3
28938.6
28939
28939.4
28940
28940.7
28941.6
28942.5
28943.5
28944.7
28945.9
28947.2
28948.7
28950.3
28952
28953.7
28955.6
28957.6
28959.7
28961.9
28964.3
28966.7
28969.2
28971.9
28974.6
28977.5
28980.5
28983.5
28986.7
28990
28993.4
28996.9
29000.6
29004.3
29008.1
29012.1
29016.2
29020.4
29024.6
29029
29033.6
29038.2
29042.9
29047.8
29052.7
29057.8
29063
29068.3
29073.7
29079.3
29084.9
29090.7
29096.5
29102.5
29108.6
29114.8
29121.2
29127.6
29134.2
29140.8
29147.6
29154.5
29161.5
29168.7
29175.9
29183.3
29190.7
29198.3
29206
29213.8
29221.7
29229.8
29237.9
29246.2
29254.6
29263.1
29271.7
29280.4
29289.2
29298.1
29307.2
29316.3
29325.6
29335
29344.5
29354
29363.7
29373.6
29383.5
29393.5
29403.6
29413.8
29424.2
29434.6
29445.1
29455.8
29466.5
29477.4
29488.3
29499.3
29510.5
29521.7
29533
29544.4
29555.9
29567.5
29579.2
29590.9
29602.8
29614.7
29626.7
29638.8
29651
29663.3
29675.6
29688
29700.5
29713
29725.7
29738.3
29751.1
29763.9
29776.7
29789.7
29802.6
29815.7
29828.7
29841.9
29855
29868.2
29881.5
29894.8
29908.1
29921.4
29934.8
29948.2
29961.6
29975
29988.5
30001.9
30015.4
30028.8
30042.3
30055.7
30069.2
30082.6
30096
30109.4
30122.8
30136.1
30149.4
30162.7
30175.9
30189.1
30202.2
30215.3
30228.3
30241.3
30254.1
30266.9
30279.7
30292.3
30304.8
30317.3
30329.6
30341.9
30354
30366
30377.9
30389.7
30401.3
30412.8
30424.1
30435.3
30446.3
30457.2
30467.9
30478.4
30488.7
30498.8
30508.8
30518.5
30528.1
30537.4
30546.5
30555.3
30564
30572.4
30580.5
30588.4
30596
30603.4
30610.5
30617.3
30623.8
30630
30635.9
30641.5
30646.8
30651.8
30656.4
30660.7
30664.7
30668.3
30671.5
30674.4
30676.9
30679
30680.7
30682
30683
30683.5
30683.6
30683.3
30682.5
30681.3
30679.7
30677.6
30675.1
30672.1
30668.6
30664.7
30660.2
30655.3
30649.9
30643.9
30637.5
30630.5
30623
30615
30606.5
30597.4
30587.7
30577.5
30566.7
30555.4
30543.5
30531
30518
30504.3
30490.1
30475.2
30459.8
30443.7
30427
30409.8
30391.9
30373.3
30354.2
30334.4
30314
30292.9
30271.2
30248.8
30225.9
30202.2
30177.9
30153
30127.4
30101.1
30074.2
30046.6
30018.4
29989.5
29959.9
29929.7
29898.8
29867.3
29835.1
29802.3
29768.8
29734.7
29699.9
29664.4
29628.4
29591.7
29554.4
29516.4
29477.8
29438.6
29398.8
29358.4
29317.4
29275.9
29233.7
29191
29147.7
29103.9
29059.5
29014.6
28969.3
28923.4
28877
28830.1
28782.8
28735.1
28686.9
28638.4
28589.4
28540.1
28490.5
28440.5
28390.2
28339.7
28288.9
28237.9
28186.8
28135.4
28083.9
28032.3
27980.6
27928.9
27877.1
27825.4
27773.7
27722.1
27670.7
27619.4
27568.3
27517.5
27466.9
27416.7
27366.9
27317.5
27268.5
27220.1
27172.1
27124.8
27078.1
27032.1
26986.7
26942.2
26898.4
26855.4
26813.3
26772.1
26731.9
26692.6
26654.3
26617.1
26580.9
26545.8
26511.9
26479
26447.4
26416.9
26387.6
26359.6
26332.8
26307.2
26283
26260
26238.3
26218
26199
26181.3
26165
26150.1
26136.5
26124.3
26113.6
26104.3
26096.4
26090
26085
26081.5
26079.6
26079.1
26080.2
26082.8
26087
26092.7
26100
26109
26119.5
26131.8
26145.6
26161.1
26178.3
26197.2
26217.8
26240.1
26264.1
26289.9
26317.3
26346.5
26377.4
26410.1
26444.4
26480.4
26518.1
26557.5
26598.5
26641.2
26685.4
26731.2
26778.5
26827.2
26877.4
26928.9
26981.7
27035.8
27091
27147.3
27204.6
27262.8
27321.8
27381.6
27442
27502.9
27564.3
27625.9
27687.8
27749.7
27811.6
27873.3
27934.7
27995.7
28056.1
28115.9
28174.9
28233
28290.1
28346
28400.7
28454
28505.8
28556.1
28604.7
28651.6
28696.6
28739.7
28780.8
28819.8
28856.7
28891.5
28924
28954.3
28982.4
29008.1
29031.4
29052.5
29071.2
29087.5
29101.5
29113.1
29122.4
29129.4
29134.2
29136.6
29136.9
29135
29130.9
29124.7
29116.5
29106.2
29094.1
29080
29064.1
29046.4
29027
29005.9
28983.3
28959.2
28933.6
28906.7
28878.5
28849.1
28818.5
28786.9
28754.3
28720.8
28686.6
28651.6
28615.9
28579.7
28543.1
28506.1
28468.8
28431.3
28393.7
28356.1
28318.5
28281.2
28244
28207.2
28170.9
28135
28099.7
28065.1
28031.3
27998.3
27966.2
27935.1
27905.1
27876.3
27848.6
27822.2
27797.2
27773.5
27751.2
27730.4
27711.2
27693.5
27677.4
27662.9
27650.1
27638.9
27629.4
27621.8
27615.9
27611.6
27609
27608.1
27608.8
27611.2
27615.2
27620.7
27627.8
27636.4
27646.4
27657.8
27670.5
27684.5
27699.7
27716.1
27733.5
27751.9
27771.2
27791.3
27812.2
27833.7
27855.8
27878.4
27901.5
27924.8
27948.3
27972.1
27995.8
28019.6
28043.3
28066.8
28090.1
28113.1
28135.7
28157.8
28179.5
28200.7
28221.3
28241.2
28260.5
28279.2
28297.1
28314.3
28330.7
28346.4
28361.2
28375.3
28388.7
28401.3
28413.1
28424.2
28434.5
28444.1
28453.1
28461.4
28469
28476
28482.3
28488.1
28493.4
28498
28502.2
28505.9
28509.1
28511.9
28514.2
28516.1
28517.4
28518.6
28519.3
28519.6
28519.6
28519.1
28518.3
28517.1
28515.6
28513.6
28511.3
28508.5
28505.3
28501.7
28497.7
28493.1
28488
28482.5
28476.4
28469.7
28462.5
28454.6
28446.1
28437
28427.1
28416.6
28405.4
28393.4
28380.7
28367.1
28352.8
28337.7
28321.8
28305.1
28287.4
28269.1
28250
28230.2
28209.6
28188.3
28166.3
28143.7
28120.6
28096.9
28072.8
28048.3
28023.4
27998.4
27973.2
27948
27922.9
27897.9
27873.2
27848.8
27824.9
27801.6
27779.1
27757.3
27736.5
27716.7
27698.1
27680.7
27664.6
27650
27637
27625.5
27615.8
27607.8
27601.7
27597.6
27595.3
27595.1
27597
27600.9
27606.9
27615.1
27625.4
27637.8
27652.4
27669.1
27687.8
27708.6
27731.4
27756.1
27782.7
27811.1
27841.3
27873.1
27906.6
27941.5
27977.8
28015.4
28054.2
28094
28134.8
28176.4
28218.7
28261.5
28304.8
28348.4
28392.1
28435.8
28479.4
28522.8
28565.7
28608.1
28649.8
28690.7
28730.6
28769.4
28807
28843.1
28877.8
28910.7
28941.9
28971.2
28998.4
29023.5
29046.3
29066.7
29084.6
29099.9
29112.5
29122.3
29129.2
29133
29133.9
29131.5
29126
29117.2
29105.1
29089.7
29070.8
29048.6
29022.9
28993.8
28961.4
28925.5
28886.4
28844
28798.4
28749.8
28698.1
28643.5
28584.9
28524.9
28462.5
28397.6
28330.7
28261.8
28191.1
28119
28045.5
27970.9
27895.5
27819.4
27743
27666.3
27589.7
27513.4
27437.6
27362.5
27288.3
27215.2
27143.5
27073.3
27004.7
26938
26873.3
26810.8
26750.5
26692.6
26637.2
26584.4
26534.3
26486.9
26442.4
26400.7
26361.9
26326.1
26293.2
26263.3
26236.4
26212.5
26191.5
26173.5
26158.4
26146.2
26136.8
26130.3
26126.5
26125.5
26127.2
26131.5
26138.5
26147.9
26159.9
26174.3
26191.1
26210.3
26231.7
26255.4
26281.3
26309.3
26339.4
26371.5
26405.6
26441.6
26479.5
26519.3
26560.8
26604.1
26649
26695.5
26743.6
26793.3
26844.4
26896.9
26950.7
27005.9
27062.3
27119.9
27178.7
27238.5
27299.3
27361.1
27423.8
27487.3
27551.6
27616.7
27682.3
27748.6
27815.4
27882.6
27950.2
28018.1
28086.3
28154.6
28222.9
28291.4
28359.8
28428
28496.1
28563.9
28631.4
28698.5
28765.2
28831.3
28896.8
28961.7
29025.8
29089.3
29151.8
29213.6
29274.4
29334.3
29393.2
29451.1
29507.9
29563.6
29618.1
29671.5
29723.7
29774.7
29824.5
29873
29920.2
29966
30010.6
30053.8
30095.6
30136
30175.1
30212.7
30248.9
30283.7
30317.1
30349
30379.5
30408.5
30436.1
30462.2
30486.9
30510.2
30532
30552.5
30571.5
30589.1
30605.4
30620.3
30633.9
30646.1
30657
30666.6
30674.9
30682
30687.8
30692.4
30695.9
30698.1
30699.3
30699.3
30698.2
30696
30692.8
30688.6
30683.4
30677.2
30670.1
30662.1
30653.2
30643.4
30632.8
30621.4
30609.2
30596.3
30582.6
30568.3
30553.3
30537.6
30521.4
30504.5
30487.1
30469.1
30450.7
30431.8
30412.4
30392.6
30372.3
30351.7
30330.8
30309.5
30287.9
30266.1
30244
30221.6
30199.1
30176.4
30153.4
30130.4
30107.2
30084
30060.6
30037.2
30013.8
29990.3
29966.8
29943.4
29919.9
29896.6
29873.3
29850
29826.9
29803.9
29781
29758.2
29735.6
29713.2
29690.9
29668.9
29647
29625.4
29604
29582.8
29561.9
29541.2
29520.8
29500.6
29480.8
29461.2
29442
29423
29404.3
29386
29368
29350.3
29333
29316
29299.4
29283.1
29267.1
29251.5
29236.3
29221.5
29207
29192.9
29179.2
29165.8
29152.8
29140.3
29128.1
29116.2
29104.8
29093.8
29083.2
29072.9
29063.1
29053.7
29044.6
29036
29027.8
29019.9
29012.5
29005.5
28998.9
28992.7
28986.9
28981.5
28976.5
28971.9
28967.8
28964
28960.7
28957.8
28955.3
28953.2
28951.5
28950.2
28949.4
28949
28201.6
28201.8
28202
28202.3
28202.8
28203.3
28203.9
28204.6
28205.5
28206.4
28207.5
28208.6
28209.8
28211.2
28212.7
28214.2
28215.9
28217.7
28219.5
28221.5
28223.6
28225.8
28228.1
28230.6
28233.1
28235.7
28238.5
28241.3
28244.3
28247.4
28250.5
28253.8
28257.2
28260.8
28264.4
28268.1
28272
28275.9
28280
28284.2
28288.4
28292.8
28297.4
28302
28306.7
28311.6
28316.5
28321.6
28326.8
28332.1
28337.5
28343.1
28348.7
28354.5
28360.3
28366.3
28372.4
28378.6
28385
28391.4
28398
28404.6
28411.4
28418.3
28425.3
28432.5
28439.7
28447.1
28454.5
28462.1
28469.8
28477.6
28485.6
28493.6
28501.7
28510
28518.4
28526.9
28535.5
28544.2
28553
28562
28571
28580.2
28589.4
28598.8
28608.3
28617.9
28627.6
28637.4
28647.3
28657.3
28667.5
28677.7
28688
28698.5
28709
28719.6
28730.4
28741.2
28752.2
28763.2
28774.3
28785.6
28796.9
28808.3
28819.8
28831.4
28843.1
28854.9
28866.7
28878.7
28890.7
28902.8
28915
28927.2
28939.6
28952
28964.5
28977
28989.6
29002.3
29015.1
29027.9
29040.8
29053.7
29066.7
29079.7
29092.8
29105.9
29119.1
29132.3
29145.6
29158.9
29172.2
29185.5
29198.9
29212.3
29225.8
29239.2
29252.6
29266.1
29279.6
29293.1
29306.5
29320
29333.4
29346.9
29360.3
29373.7
29387.1
29400.5
29413.8
29427.1
29440.3
29453.5
29466.7
29479.7
29492.8
29505.7
29518.6
29531.4
29544.2
29556.8
29569.4
29581.9
29594.2
29606.5
29618.6
29630.6
29642.6
29654.3
29666
29677.5
29688.8
29700
29711.1
29722
29732.7
29743.2
29753.5
29763.7
29773.7
29783.4
29793
29802.3
29811.4
29820.3
29829
29837.4
29845.6
29853.5
29861.1
29868.5
29875.6
29882.4
29889
29895.2
29901.2
29906.8
29912.1
29917.1
29921.7
29926
29930
29933.6
29936.9
29939.8
29942.3
29944.4
29946.2
29947.5
29948.5
29949
29949.1
29948.9
29948.1
29947
29945.3
29943.3
29940.8
29937.8
29934.3
29930.4
29926
29921
29915.6
29909.7
29903.3
29896.3
29888.9
29880.9
29872.3
29863.2
29853.6
29843.4
29832.6
29821.3
29809.4
29796.9
29783.9
29770.2
29756
29741.2
29725.7
29709.7
29693
29675.7
29657.8
29639.3
29620.2
29600.4
29579.9
29558.9
29537.2
29514.8
29491.8
29468.2
29443.9
29418.9
29393.3
29367
29340.1
29312.5
29284.3
29255.3
29225.8
29195.5
29164.7
29133.1
29100.9
29068.1
29034.5
29000.4
28965.6
28930.1
28894
28857.3
28819.9
28781.9
28743.3
28704.1
28664.3
28623.8
28582.8
28541.2
28499
28456.2
28412.9
28369
28324.6
28279.7
28234.3
28188.3
28141.9
28095
28047.6
27999.8
27951.6
27903
27854
27804.6
27754.9
27704.8
27654.5
27603.9
27553
27502
27450.7
27399.3
27347.7
27296
27244.2
27192.4
27140.5
27088.7
27036.9
26985.2
26933.7
26882.3
26831.1
26780.2
26729.6
26679.3
26629.3
26579.8
26530.8
26482.2
26434.2
26386.8
26340
26293.9
26248.5
26203.8
26159.9
26116.9
26074.7
26033.5
25993.2
25953.8
25915.5
25878.2
25842
25806.9
25772.8
25740
25708.3
25677.8
25648.5
25620.4
25593.6
25568
25543.8
25520.8
25499.1
25478.7
25459.7
25442
25425.7
25410.7
25397.2
25385
25374.2
25364.9
25357
25350.5
25345.5
25342
25340
25339.5
25340.6
25343.2
25347.3
25353
25360.3
25369.2
25379.8
25391.9
25405.8
25421.3
25438.4
25457.3
25477.9
25500.2
25524.2
25549.9
25577.3
25606.5
25637.4
25670.1
25704.4
25740.5
25778.2
25817.6
25858.7
25901.4
25945.7
25991.5
26038.9
26087.8
26138
26189.7
26242.6
26296.8
26352.2
26408.6
26466.1
26524.5
26583.8
26643.8
26704.4
26765.6
26827.1
26889.1
26951.2
27013.3
27075.5
27137.5
27199.2
27260.4
27321.2
27381.2
27440.5
27498.9
27556.3
27612.5
27667.4
27721
27773.1
27823.6
27872.5
27919.6
27964.8
28008.1
28049.3
28088.5
28125.6
28160.5
28193.2
28223.6
28251.7
28277.4
28300.9
28321.9
28340.6
28357
28370.9
28382.5
28391.8
28398.8
28403.4
28405.8
28406
28404
28399.8
28393.5
28385.1
28374.8
28362.4
28348.2
28332.1
28314.3
28294.7
28273.5
28250.7
28226.4
28200.6
28173.5
28145.1
28115.5
28084.8
28052.9
28020.2
27986.5
27952
27916.8
27881
27844.6
27807.8
27770.6
27733.1
27695.4
27657.6
27619.8
27582.1
27544.5
27507.2
27470.2
27433.7
27397.7
27362.2
27327.5
27293.5
27260.4
27228.2
27197
27166.8
27137.9
27110.1
27083.6
27058.4
27034.6
27012.3
26991.4
26972.1
26954.4
26938.2
26923.7
26910.9
26899.7
26890.3
26882.6
26876.7
26872.4
26869.8
26869
26869.8
26872.2
26876.2
26881.8
26889
26897.7
26907.8
26919.3
26932.1
26946.3
26961.6
26978.1
26995.6
27014.2
27033.6
27053.9
27075
27096.7
27119
27141.8
27164.9
27188.4
27212.2
27236.1
27260
27283.9
27307.8
27331.4
27354.8
27377.9
27400.7
27423
27444.8
27466
27486.7
27506.7
27526.1
27544.8
27562.8
27580
27596.4
27612.1
27627
27641.1
27654.4
27667
27678.8
27689.8
27700.1
27709.7
27718.6
27726.8
27734.4
27741.4
27747.7
27753.4
27758.6
27763.3
27767.4
27771
27774.2
27776.9
27779.2
27781.1
27782.5
27783.5
27784.2
27784.5
27784.5
27784.1
27783.3
27782.1
27780.5
27778.6
27776.3
27773.6
27770.4
27766.8
27762.8
27758.2
27753.2
27747.7
27741.6
27735
27727.8
27720
27711.5
27702.4
27692.6
27682.1
27670.9
27659
27646.3
27632.8
27618.5
27603.4
27587.5
27570.7
27553.1
27534.7
27515.6
27495.6
27475
27453.6
27431.6
27408.9
27385.6
27361.8
27337.5
27312.9
27287.9
27262.7
27237.4
27212
27186.7
27161.5
27136.6
27112
27088
27064.5
27041.8
27019.8
26998.8
26978.8
26960
26942.5
26926.3
26911.5
26898.4
26886.8
26877
26868.9
26862.7
26858.5
26856.2
26855.9
26857.7
26861.6
26867.6
26875.8
26886.1
26898.6
26913.2
26929.9
26948.7
26969.5
26992.4
27017.2
27043.9
27072.4
27102.7
27134.7
27168.3
27203.3
27239.8
27277.6
27316.5
27356.5
27397.5
27439.3
27481.8
27524.8
27568.3
27612.1
27656
27700
27743.8
27787.4
27830.6
27873.2
27915.2
27956.3
27996.4
28035.4
28073.2
28109.6
28144.4
28177.6
28209
28238.5
28266
28291.3
28314.2
28334.8
28352.9
28368.4
28381.1
28391.1
28398.1
28402.1
28403
28400.8
28395.3
28386.6
28374.5
28359.1
28340.2
28317.9
28292.2
28263.1
28230.5
28194.6
28155.3
28112.7
28066.9
28018
27966
27911.1
27852.8
27792.4
27729.5
27664.3
27597
27527.8
27456.8
27384.3
27310.5
27235.5
27159.8
27083.3
27006.5
26929.6
26852.6
26776
26699.9
26624.5
26550.1
26476.8
26404.8
26334.4
26265.6
26198.8
26133.9
26071.2
26010.8
25952.7
25897.3
25844.4
25794.2
25746.8
25702.2
25660.5
25621.7
25585.9
25553.1
25523.2
25496.3
25472.4
25451.5
25433.5
25418.4
25406.3
25397
25390.5
25386.8
25385.9
25387.7
25392.1
25399.1
25408.6
25420.6
25435.1
25452
25471.2
25492.8
25516.5
25542.4
25570.5
25600.7
25632.8
25667
25703.1
25741.1
25780.9
25822.5
25865.8
25910.7
25957.3
26005.5
26055.2
26106.4
26158.9
26212.9
26268.1
26324.6
26382.2
26441.1
26500.9
26561.8
26623.7
26686.5
26750.1
26814.5
26879.6
26945.3
27011.7
27078.5
27145.9
27213.6
27281.6
27349.8
27418.2
27486.7
27555.2
27623.7
27692.1
27760.2
27828.1
27895.7
27962.9
28029.7
28095.9
28161.5
28226.4
28290.7
28354.1
28416.8
28478.6
28539.5
28599.5
28658.4
28716.4
28773.2
28829
28883.6
28937
28989.3
29040.3
29090.1
29138.7
29185.9
29231.8
29276.4
29319.6
29361.5
29401.9
29441
29478.7
29514.9
29549.7
29583.1
29615
29645.5
29674.5
29702.1
29728.2
29752.9
29776.2
29798
29818.5
29837.5
29855.1
29871.4
29886.2
29899.8
29911.9
29922.8
29932.4
29940.7
29947.7
29953.6
29958.2
29961.6
29963.8
29964.9
29964.9
29963.7
29961.6
29958.3
29954.1
29948.8
29942.6
29935.5
29927.4
29918.4
29908.6
29898
29886.6
29874.3
29861.4
29847.7
29833.3
29818.3
29802.6
29786.3
29769.4
29751.9
29733.9
29715.4
29696.5
29677.1
29657.2
29637
29616.3
29595.4
29574.1
29552.4
29530.6
29508.4
29486.1
29463.5
29440.7
29417.8
29394.7
29371.5
29348.2
29324.9
29301.4
29278
29254.5
29231
29207.5
29184.1
29160.7
29137.3
29114.1
29090.9
29067.9
29045
29022.2
28999.6
28977.2
28954.9
28932.8
28911
28889.3
28867.9
28846.7
28825.7
28805.1
28784.6
28764.5
28744.6
28725.1
28705.8
28686.8
28668.2
28649.9
28631.8
28614.2
28596.8
28579.8
28563.2
28546.9
28530.9
28515.4
28500.1
28485.3
28470.8
28456.7
28443
28429.6
28416.6
28404
28391.8
28380
28368.6
28357.6
28347
28336.7
28326.9
28317.5
28308.4
28299.8
28291.5
28283.7
28276.3
28269.3
28262.7
28256.4
28250.6
28245.3
28240.3
28235.7
28231.6
28227.8
28224.5
28221.6
28219.1
28217
28215.3
28214
28213.2
28212.8
27465.3
27465.4
27465.6
27465.9
27466.3
27466.8
27467.4
27468.2
27469
27469.9
27471
27472.1
27473.3
27474.7
27476.2
27477.7
27479.4
27481.2
27483.1
27485.1
27487.2
27489.4
27491.7
27494.1
27496.6
27499.3
27502
27504.9
27507.8
27510.9
27514.1
27517.4
27520.8
27524.3
27527.9
27531.7
27535.5
27539.5
27543.5
27547.7
27552
27556.4
27560.9
27565.6
27570.3
27575.2
27580.1
27585.2
27590.4
27595.7
27601.1
27606.6
27612.3
27618
27623.9
27629.9
27636
27642.2
27648.5
27655
27661.5
27668.2
27675
27681.9
27688.9
27696
27703.3
27710.6
27718.1
27725.7
27733.4
27741.2
27749.1
27757.2
27765.3
27773.6
27782
27790.5
27799.1
27807.8
27816.6
27825.6
27834.6
27843.8
27853
27862.4
27871.9
27881.5
27891.2
27901
27911
27921
27931.1
27941.3
27951.7
27962.1
27972.7
27983.3
27994.1
28004.9
28015.9
28026.9
28038
28049.3
28060.6
28072
28083.5
28095.2
28106.8
28118.6
28130.5
28142.4
28154.5
28166.6
28178.8
28191.1
28203.4
28215.8
28228.3
28240.9
28253.5
28266.2
28279
28291.8
28304.7
28317.6
28330.6
28343.7
28356.8
28369.9
28383.1
28396.3
28409.6
28422.9
28436.3
28449.6
28463
28476.4
28489.9
28503.3
28516.8
28530.3
28543.8
28557.3
28570.8
28584.2
28597.7
28611.2
28624.6
28638.1
28651.5
28664.8
28678.2
28691.5
28704.8
28718
28731.1
28744.3
28757.3
28770.3
28783.2
28796.1
28808.8
28821.5
28834.1
28846.6
28859
28871.2
28883.4
28895.5
28907.4
28919.2
28930.9
28942.4
28953.8
28965
28976.1
28987
28997.7
29008.3
29018.7
29028.9
29038.9
29048.7
29058.3
29067.6
29076.8
29085.7
29094.4
29102.8
29111
29119
29126.7
29134.1
29141.2
29148.1
29154.6
29160.9
29166.9
29172.5
29177.9
29182.9
29187.6
29191.9
29195.9
29199.6
29202.9
29205.8
29208.3
29210.5
29212.3
29213.7
29214.6
29215.2
29215.4
29215.1
29214.4
29213.3
29211.7
29209.6
29207.1
29204.2
29200.7
29196.8
29192.4
29187.6
29182.2
29176.3
29169.9
29162.9
29155.5
29147.5
29139
29129.9
29120.3
29110.1
29099.4
29088.1
29076.2
29063.7
29050.7
29037
29022.8
29008
28992.6
28976.5
28959.9
28942.6
28924.7
28906.2
28887
28867.2
28846.8
28825.7
28804
28781.7
28758.6
28735
28710.7
28685.7
28660.1
28633.8
28606.8
28579.2
28551
28522
28492.5
28462.2
28431.3
28399.7
28367.5
28334.6
28301
28266.8
28232
28196.5
28160.4
28123.6
28086.2
28048.2
28009.5
27970.2
27930.3
27889.8
27848.7
27807.1
27764.8
27722
27678.6
27634.7
27590.2
27545.2
27499.6
27453.6
27407.1
27360.1
27312.7
27264.8
27216.5
27167.8
27118.6
27069.2
27019.3
26969.2
26918.8
26868
26817.1
26765.9
26714.5
26662.9
26611.2
26559.4
26507.4
26455.5
26403.5
26351.5
26299.6
26247.8
26196.1
26144.6
26093.3
26042.2
25991.4
25941
25890.9
25841.2
25792
25743.3
25695.2
25647.6
25600.7
25554.4
25508.9
25464.1
25420.1
25377
25334.7
25293.4
25253
25213.5
25175.1
25137.8
25101.5
25066.3
25032.2
24999.3
24967.5
24937
24907.7
24879.6
24852.7
24827.1
24802.8
24779.8
24758.1
24737.7
24718.6
24700.9
24684.6
24669.6
24656
24643.8
24633
24623.6
24615.7
24609.2
24604.2
24600.7
24598.6
24598.1
24599.1
24601.6
24605.7
24611.4
24618.6
24627.5
24638
24650.1
24663.9
24679.3
24696.5
24715.3
24735.8
24758.1
24782.1
24807.8
24835.2
24864.4
24895.3
24928
24962.3
24998.4
25036.2
25075.7
25116.8
25159.6
25204
25249.9
25297.4
25346.4
25396.9
25448.7
25501.8
25556.2
25611.8
25668.5
25726.3
25785
25844.5
25904.8
25965.8
26027.3
26089.3
26151.6
26214.1
26276.7
26339.2
26401.6
26463.7
26525.4
26586.6
26647.1
26706.8
26765.7
26823.4
26880
26935.4
26989.4
27041.8
27092.7
27141.9
27189.4
27234.9
27278.5
27320
27359.5
27396.8
27431.9
27464.7
27495.3
27523.5
27549.4
27572.9
27594
27612.7
27629
27643
27654.6
27663.8
27670.7
27675.2
27677.5
27677.5
27675.3
27671
27664.5
27656
27645.4
27632.8
27618.4
27602.1
27584
27564.2
27542.7
27519.6
27495
27469
27441.6
27412.9
27383
27352
27319.9
27286.8
27252.8
27218.1
27182.6
27146.4
27109.8
27072.6
27035.1
26997.3
26959.4
26921.3
26883.2
26845.2
26807.4
26769.8
26732.6
26695.8
26659.6
26623.9
26588.9
26554.7
26521.4
26489
26457.6
26427.3
26398.1
26370.2
26343.5
26318.2
26294.3
26271.8
26250.9
26231.4
26213.6
26197.4
26182.8
26170
26158.8
26149.3
26141.6
26135.7
26131.5
26129
26128.1
26129
26131.5
26135.6
26141.4
26148.6
26157.5
26167.7
26179.4
26192.4
26206.7
26222.3
26239
26256.8
26275.5
26295.2
26315.8
26337.1
26359
26381.6
26404.6
26428
26451.8
26475.8
26499.9
26524.1
26548.3
26572.3
26596.2
26619.8
26643.2
26666.1
26688.5
26710.5
26731.9
26752.7
26772.8
26792.3
26811.1
26829.2
26846.4
26862.9
26878.6
26893.4
26907.5
26920.9
26933.4
26945.2
26956.2
26966.4
26976
26984.8
26993
27000.5
27007.3
27013.6
27019.3
27024.4
27029
27033
27036.6
27039.7
27042.4
27044.6
27046.4
27047.8
27048.9
27049.5
27049.8
27049.8
27049.3
27048.5
27047.4
27045.9
27044
27041.7
27039
27035.8
27032.3
27028.3
27023.8
27018.9
27013.4
27007.4
27000.8
26993.7
26985.9
26977.5
26968.5
26958.8
26948.3
26937.2
26925.2
26912.6
26899.1
26884.8
26869.7
26853.8
26837
26819.4
26801
26781.7
26761.7
26741
26719.5
26697.3
26674.5
26651
26627
26602.6
26577.7
26552.5
26527.1
26501.5
26475.8
26450.2
26424.8
26399.6
26374.8
26350.4
26326.7
26303.6
26281.4
26260.1
26239.9
26220.9
26203.1
26186.7
26171.7
26158.3
26146.6
26136.6
26128.4
26122
26117.7
26115.3
26114.9
26116.7
26120.5
26126.5
26134.7
26145
26157.5
26172.2
26188.9
26207.8
26228.8
26251.7
26276.7
26303.5
26332.2
26362.7
26394.9
26428.7
26464
26500.7
26538.7
26577.9
26618.2
26659.4
26701.5
26744.3
26787.6
26831.4
26875.5
26919.8
26964.1
27008.3
27052.2
27095.7
27138.7
27181
27222.5
27262.9
27302.3
27340.4
27377.2
27412.4
27445.9
27477.6
27507.4
27535.2
27560.8
27584.1
27604.9
27623.3
27639
27652
27662.1
27669.4
27673.5
27674.6
27672.5
27667.2
27658.5
27646.5
27631.1
27612.2
27589.9
27564.1
27534.9
27502.2
27466
27426.5
27383.7
27337.6
27288.3
27236
27180.6
27122.2
27061.3
26997.9
26932.3
26864.4
26794.7
26723.2
26650.1
26575.8
26500.3