/*--------------------------------*- C++ -*----------------------------------*\
| =========                 |                                                 |
| \\      /  F ield         | OpenFOAM: The Open Source CFD Toolbox           |
|  \\    /   O peration     | Version:  2412                                  |
|   \\  /    A nd           | Website:  www.openfoam.com                      |
|    \\/     M anipulation  |                                                 |
\*---------------------------------------------------------------------------*/
FoamFile
{
    version     2.0;
    format      ascii;
    arch        "LSB;label=32;scalar=64";
    class       volVectorField;
    location    "5.24";
    object      U;
}
// * * * * * * * * * * * * * * * * * * * * * * * * * * * * * * * * * * * * * //

dimensions      [0 1 -1 0 0 0 0];

internalField   nonuniform List<vector> 
80000
(
(-0.00078478 0.00119397 0)
(-0.00231631 0.00105159 0)
(-0.00381653 0.00103456 0)
(-0.00530029 0.00104987 0)
(-0.00678901 0.00105991 0)
(-0.00828041 0.00106577 0)
(-0.00977185 0.00106905 0)
(-0.0112641 0.00107164 0)
(-0.0127585 0.00107406 0)
(-0.0142556 0.00107655 0)
(-0.0157566 0.00107949 0)
(-0.0172617 0.00108207 0)
(-0.018771 0.00108462 0)
(-0.0202848 0.00108735 0)
(-0.0218034 0.00109014 0)
(-0.0233268 0.00109281 0)
(-0.0248552 0.00109539 0)
(-0.0263885 0.00109798 0)
(-0.0279268 0.00110061 0)
(-0.02947 0.00110307 0)
(-0.0310182 0.00110571 0)
(-0.0325716 0.00110843 0)
(-0.0341303 0.00111124 0)
(-0.0356943 0.00111415 0)
(-0.0372639 0.00111715 0)
(-0.0388391 0.00112025 0)
(-0.0404201 0.00112359 0)
(-0.0420072 0.00112709 0)
(-0.0436005 0.00113057 0)
(-0.0452001 0.00113428 0)
(-0.0468063 0.00113818 0)
(-0.0484193 0.00114222 0)
(-0.0500393 0.00114641 0)
(-0.0516665 0.00115075 0)
(-0.0533011 0.00115525 0)
(-0.0549434 0.00115989 0)
(-0.0565935 0.00116467 0)
(-0.0582517 0.00116959 0)
(-0.0599181 0.00117466 0)
(-0.0615929 0.00117986 0)
(-0.0632765 0.00118519 0)
(-0.0649688 0.00119065 0)
(-0.0666702 0.00119623 0)
(-0.0683808 0.00120195 0)
(-0.0701009 0.00120778 0)
(-0.0718305 0.00121374 0)
(-0.0735699 0.00121982 0)
(-0.0753193 0.00122601 0)
(-0.0770788 0.00123232 0)
(-0.0788486 0.00123874 0)
(-0.0806289 0.00124527 0)
(-0.0824199 0.00125192 0)
(-0.0842217 0.00125867 0)
(-0.0860345 0.00126554 0)
(-0.0878584 0.00127251 0)
(-0.0896938 0.00127959 0)
(-0.0915406 0.00128677 0)
(-0.093399 0.00129404 0)
(-0.0952693 0.00130142 0)
(-0.0971516 0.0013089 0)
(-0.0990461 0.00131648 0)
(-0.100953 0.00132416 0)
(-0.102872 0.00133192 0)
(-0.104804 0.00133978 0)
(-0.106748 0.00134773 0)
(-0.108706 0.00135576 0)
(-0.110676 0.00136387 0)
(-0.11266 0.00137207 0)
(-0.114657 0.00138035 0)
(-0.116667 0.0013887 0)
(-0.118691 0.00139713 0)
(-0.120728 0.00140563 0)
(-0.12278 0.0014142 0)
(-0.124845 0.00142284 0)
(-0.126924 0.00143154 0)
(-0.129018 0.0014403 0)
(-0.131126 0.00144911 0)
(-0.133248 0.00145798 0)
(-0.135384 0.0014669 0)
(-0.137535 0.00147587 0)
(-0.139701 0.00148488 0)
(-0.141881 0.00149394 0)
(-0.144076 0.00150303 0)
(-0.146286 0.00151215 0)
(-0.148511 0.0015213 0)
(-0.150751 0.00153048 0)
(-0.153006 0.00153968 0)
(-0.155276 0.00154889 0)
(-0.157561 0.00155812 0)
(-0.159861 0.00156735 0)
(-0.162177 0.00157659 0)
(-0.164507 0.00158583 0)
(-0.166853 0.00159507 0)
(-0.169214 0.00160429 0)
(-0.17159 0.0016135 0)
(-0.173982 0.00162269 0)
(-0.176388 0.00163185 0)
(-0.17881 0.00164099 0)
(-0.181247 0.00165009 0)
(-0.183699 0.00165914 0)
(-0.186167 0.00166815 0)
(-0.188649 0.00167711 0)
(-0.191146 0.00168601 0)
(-0.193658 0.00169484 0)
(-0.196185 0.00170361 0)
(-0.198727 0.0017123 0)
(-0.201283 0.0017209 0)
(-0.203854 0.00172942 0)
(-0.206439 0.00173784 0)
(-0.209039 0.00174615 0)
(-0.211652 0.00175436 0)
(-0.21428 0.00176245 0)
(-0.216921 0.00177041 0)
(-0.219576 0.00177825 0)
(-0.222245 0.00178594 0)
(-0.224927 0.00179349 0)
(-0.227621 0.00180089 0)
(-0.230329 0.00180812 0)
(-0.233049 0.00181518 0)
(-0.235782 0.00182207 0)
(-0.238527 0.00182877 0)
(-0.241284 0.00183527 0)
(-0.244052 0.00184157 0)
(-0.246831 0.00184767 0)
(-0.249622 0.00185354 0)
(-0.252423 0.00185918 0)
(-0.255234 0.00186458 0)
(-0.258055 0.00186974 0)
(-0.260886 0.00187465 0)
(-0.263726 0.00187929 0)
(-0.266575 0.00188365 0)
(-0.269433 0.00188773 0)
(-0.272298 0.00189152 0)
(-0.275171 0.00189501 0)
(-0.278051 0.00189818 0)
(-0.280937 0.00190103 0)
(-0.28383 0.00190355 0)
(-0.286728 0.00190572 0)
(-0.289632 0.00190755 0)
(-0.29254 0.00190901 0)
(-0.295452 0.00191009 0)
(-0.298367 0.0019108 0)
(-0.301285 0.00191111 0)
(-0.304206 0.00191101 0)
(-0.307128 0.0019105 0)
(-0.310051 0.00190957 0)
(-0.312975 0.00190819 0)
(-0.315898 0.00190637 0)
(-0.31882 0.0019041 0)
(-0.321741 0.00190135 0)
(-0.324658 0.00189812 0)
(-0.327573 0.0018944 0)
(-0.330484 0.00189018 0)
(-0.33339 0.00188544 0)
(-0.33629 0.00188018 0)
(-0.339184 0.00187438 0)
(-0.342071 0.00186804 0)
(-0.34495 0.00186113 0)
(-0.34782 0.00185366 0)
(-0.35068 0.0018456 0)
(-0.353529 0.00183695 0)
(-0.356366 0.00182769 0)
(-0.359191 0.00181782 0)
(-0.362002 0.00180733 0)
(-0.364798 0.00179619 0)
(-0.367579 0.00178441 0)
(-0.370343 0.00177196 0)
(-0.373089 0.00175884 0)
(-0.375817 0.00174504 0)
(-0.378524 0.00173055 0)
(-0.381211 0.00171536 0)
(-0.383875 0.00169944 0)
(-0.386516 0.00168281 0)
(-0.389133 0.00166544 0)
(-0.391724 0.00164732 0)
(-0.394288 0.00162844 0)
(-0.396824 0.0016088 0)
(-0.39933 0.00158838 0)
(-0.401807 0.00156718 0)
(-0.404251 0.00154518 0)
(-0.406662 0.00152237 0)
(-0.409038 0.00149875 0)
(-0.411379 0.0014743 0)
(-0.413683 0.00144902 0)
(-0.415948 0.0014229 0)
(-0.418173 0.00139593 0)
(-0.420357 0.0013681 0)
(-0.422499 0.0013394 0)
(-0.424596 0.00130982 0)
(-0.426647 0.00127936 0)
(-0.428652 0.00124802 0)
(-0.430608 0.00121577 0)
(-0.432514 0.00118262 0)
(-0.434369 0.00114856 0)
(-0.43617 0.00111358 0)
(-0.437917 0.00107768 0)
(-0.439608 0.00104084 0)
(-0.441242 0.00100307 0)
(-0.442816 0.000964357 0)
(-0.444329 0.000924697 0)
(-0.44578 0.000884088 0)
(-0.447167 0.000842524 0)
(-0.448488 0.000800002 0)
(-0.449742 0.000756518 0)
(-0.450928 0.000712068 0)
(-0.452043 0.000666651 0)
(-0.453085 0.000620265 0)
(-0.454054 0.00057291 0)
(-0.454948 0.000524585 0)
(-0.455764 0.00047529 0)
(-0.456502 0.000425025 0)
(-0.457159 0.000373793 0)
(-0.457735 0.000321598 0)
(-0.458226 0.000268449 0)
(-0.458632 0.000214361 0)
(-0.45895 0.000159361 0)
(-0.45918 0.000103505 0)
(-0.45932 4.69836e-05 0)
(-0.459368 -8.39417e-06 0)
(-0.45932 -6.83669e-05 0)
(-0.459176 -0.000127605 0)
(-0.458935 -0.00018813 0)
(-0.458596 -0.000250425 0)
(-0.458157 -0.000313226 0)
(-0.457614 -0.0003769 0)
(-0.456968 -0.000441945 0)
(-0.456216 -0.000507691 0)
(-0.455358 -0.000574151 0)
(-0.454389 -0.000641918 0)
(-0.453311 -0.000710436 0)
(-0.452121 -0.000779629 0)
(-0.450816 -0.000849994 0)
(-0.449397 -0.000921133 0)
(-0.44786 -0.000992985 0)
(-0.446205 -0.00106587 0)
(-0.44443 -0.00113955 0)
(-0.442534 -0.00121393 0)
(-0.440514 -0.0012892 0)
(-0.438371 -0.00136523 0)
(-0.436101 -0.00144196 0)
(-0.433704 -0.00151949 0)
(-0.431178 -0.00159773 0)
(-0.428523 -0.00167663 0)
(-0.425736 -0.00175627 0)
(-0.422816 -0.00183655 0)
(-0.419763 -0.00191745 0)
(-0.416574 -0.00199899 0)
(-0.413249 -0.0020811 0)
(-0.409787 -0.00216378 0)
(-0.406186 -0.00224702 0)
(-0.402446 -0.00233075 0)
(-0.398564 -0.00241498 0)
(-0.394541 -0.00249972 0)
(-0.390376 -0.00258486 0)
(-0.386066 -0.00267041 0)
(-0.381613 -0.00275635 0)
(-0.377014 -0.00284263 0)
(-0.372269 -0.00292921 0)
(-0.367377 -0.00301608 0)
(-0.362339 -0.00310318 0)
(-0.357152 -0.00319045 0)
(-0.351817 -0.00327786 0)
(-0.346332 -0.00336539 0)
(-0.340699 -0.00345304 0)
(-0.334916 -0.00354073 0)
(-0.328983 -0.00362843 0)
(-0.3229 -0.0037161 0)
(-0.316667 -0.00380366 0)
(-0.310284 -0.00389105 0)
(-0.303751 -0.00397825 0)
(-0.297067 -0.00406526 0)
(-0.290234 -0.00415201 0)
(-0.283251 -0.0042384 0)
(-0.27612 -0.00432436 0)
(-0.268839 -0.00440987 0)
(-0.261411 -0.00449491 0)
(-0.253835 -0.00457944 0)
(-0.246112 -0.00466333 0)
(-0.238244 -0.00474652 0)
(-0.23023 -0.004829 0)
(-0.222073 -0.00491076 0)
(-0.213773 -0.00499165 0)
(-0.205332 -0.00507161 0)
(-0.196751 -0.00515056 0)
(-0.188031 -0.00522838 0)
(-0.179175 -0.00530502 0)
(-0.170185 -0.00538044 0)
(-0.161061 -0.00545458 0)
(-0.151806 -0.00552727 0)
(-0.142423 -0.00559845 0)
(-0.132914 -0.00566806 0)
(-0.123282 -0.00573596 0)
(-0.113529 -0.00580209 0)
(-0.103659 -0.00586631 0)
(-0.0936742 -0.00592854 0)
(-0.0835783 -0.00598861 0)
(-0.073375 -0.00604638 0)
(-0.0630683 -0.00610156 0)
(-0.0526607 -0.0061536 0)
(-0.0421599 -0.00620289 0)
(-0.0315808 -0.00625277 0)
(-0.0208906 -0.0063018 0)
(-0.0101192 -0.00634603 0)
(0.000730781 -0.00638621 0)
(0.0116541 -0.00642325 0)
(0.0226464 -0.00645743 0)
(0.0336973 -0.00649014 0)
(0.0448219 -0.00651924 0)
(0.0559936 -0.00653944 0)
(0.0671939 -0.0065545 0)
(0.0784306 -0.00656636 0)
(0.0896938 -0.00657396 0)
(0.100974 -0.00657801 0)
(0.112262 -0.00657601 0)
(0.123552 -0.00656916 0)
(0.134834 -0.00655725 0)
(0.1461 -0.00654001 0)
(0.157347 -0.00651689 0)
(0.168555 -0.00649216 0)
(0.179712 -0.00645788 0)
(0.19082 -0.00641786 0)
(0.201864 -0.0063725 0)
(0.212834 -0.00632147 0)
(0.223718 -0.00626473 0)
(0.23451 -0.00620268 0)
(0.245196 -0.0061345 0)
(0.255767 -0.00606007 0)
(0.266213 -0.00597997 0)
(0.276524 -0.00589439 0)
(0.28669 -0.00580338 0)
(0.296701 -0.00570709 0)
(0.30655 -0.00560577 0)
(0.316227 -0.00550002 0)
(0.325723 -0.00538944 0)
(0.33503 -0.00527428 0)
(0.34414 -0.00515503 0)
(0.353047 -0.00503207 0)
(0.361744 -0.00490588 0)
(0.370225 -0.00477637 0)
(0.378484 -0.00464409 0)
(0.386517 -0.0045095 0)
(0.394319 -0.00437304 0)
(0.401887 -0.00423476 0)
(0.409217 -0.00409506 0)
(0.416307 -0.00395414 0)
(0.423155 -0.00381227 0)
(0.429759 -0.00366998 0)
(0.436118 -0.00352754 0)
(0.442232 -0.00338497 0)
(0.4481 -0.00324236 0)
(0.453722 -0.00309989 0)
(0.459098 -0.00295797 0)
(0.46423 -0.00281688 0)
(0.469116 -0.00267603 0)
(0.473758 -0.00253523 0)
(0.478155 -0.0023949 0)
(0.482309 -0.002255 0)
(0.486219 -0.00211517 0)
(0.489885 -0.00197523 0)
(0.493307 -0.00183538 0)
(0.496483 -0.00169558 0)
(0.499414 -0.00155539 0)
(0.502098 -0.00141412 0)
(0.504533 -0.00127185 0)
(0.506717 -0.00112888 0)
(0.508649 -0.000984876 0)
(0.510325 -0.000839438 0)
(0.511742 -0.000692445 0)
(0.512898 -0.000543706 0)
(0.513788 -0.000393285 0)
(0.514408 -0.000241042 0)
(0.514753 -8.74814e-05 0)
(0.51482 6.07509e-05 0)
(0.514595 0.000226377 0)
(0.514085 0.00038803 0)
(0.51328 0.00055279 0)
(0.512174 0.000724116 0)
(0.510763 0.000897698 0)
(0.509038 0.00107329 0)
(0.506994 0.00125164 0)
(0.504626 0.00143379 0)
(0.501926 0.00161969 0)
(0.498891 0.00180857 0)
(0.495513 0.00200004 0)
(0.491787 0.00219421 0)
(0.487707 0.00239088 0)
(0.483266 0.00258978 0)
(0.478463 0.00279059 0)
(0.473292 0.00299312 0)
(0.467751 0.00319709 0)
(0.461836 0.00340246 0)
(0.455544 0.00360831 0)
(0.448874 0.00381441 0)
(0.441826 0.00402043 0)
(0.4344 0.00422642 0)
(0.426596 0.0044314 0)
(0.418417 0.00463426 0)
(0.409866 0.00483443 0)
(0.400947 0.00503122 0)
(0.391666 0.00522464 0)
(0.382029 0.00541415 0)
(0.372042 0.00559925 0)
(0.361714 0.00577864 0)
(0.351055 0.0059515 0)
(0.340079 0.00611717 0)
(0.328799 0.00627552 0)
(0.317227 0.00642561 0)
(0.305377 0.00656702 0)
(0.293268 0.00669827 0)
(0.280918 0.00681896 0)
(0.268345 0.00692863 0)
(0.25557 0.00702695 0)
(0.242614 0.00711277 0)
(0.229501 0.00718577 0)
(0.216255 0.00724519 0)
(0.202899 0.00729085 0)
(0.189461 0.00732212 0)
(0.175966 0.00733916 0)
(0.162441 0.00734134 0)
(0.148914 0.00732814 0)
(0.135414 0.00729954 0)
(0.121971 0.00725517 0)
(0.108614 0.00719517 0)
(0.0953714 0.00711944 0)
(0.0822726 0.00702796 0)
(0.0693488 0.00692047 0)
(0.0566286 0.00679746 0)
(0.0441391 0.00665858 0)
(0.0319258 0.00650724 0)
(0.0199869 0.00634462 0)
(0.0083476 0.0061671 0)
(-0.00295627 0.00597412 0)
(-0.0139189 0.0057595 0)
(-0.0244537 0.00555751 0)
(-0.03458 0.00532232 0)
(-0.0442714 0.0050739 0)
(-0.0534913 0.00482118 0)
(-0.0622484 0.00455369 0)
(-0.0704982 0.0042843 0)
(-0.0782729 0.00399367 0)
(-0.0854863 0.0037263 0)
(-0.0921478 0.00342436 0)
(-0.0982775 0.00313081 0)
(-0.103841 0.00282706 0)
(-0.108846 0.00251918 0)
(-0.113277 0.00221003 0)
(-0.117129 0.0019055 0)
(-0.120416 0.00159064 0)
(-0.123107 0.00129436 0)
(-0.125192 0.000977746 0)
(-0.126721 0.000671404 0)
(-0.12767 0.000364324 0)
(-0.12806 6.57408e-05 0)
(-0.127879 -0.000227851 0)
(-0.127142 -0.000522129 0)
(-0.125857 -0.00080727 0)
(-0.124025 -0.00109085 0)
(-0.121674 -0.00136449 0)
(-0.118796 -0.00163512 0)
(-0.11542 -0.00189321 0)
(-0.111584 -0.00214314 0)
(-0.107262 -0.0023758 0)
(-0.102471 -0.0026116 0)
(-0.0972619 -0.00283884 0)
(-0.0916518 -0.0030503 0)
(-0.0856275 -0.00324239 0)
(-0.0792175 -0.00343376 0)
(-0.072476 -0.00361343 0)
(-0.0654182 -0.00377516 0)
(-0.0580391 -0.00391985 0)
(-0.0503718 -0.00406186 0)
(-0.0424624 -0.00418583 0)
(-0.0343312 -0.00429147 0)
(-0.0260044 -0.00439326 0)
(-0.0174849 -0.00447749 0)
(-0.00882553 -0.00454208 0)
(-3.37351e-05 -0.00458835 0)
(0.00885098 -0.00463213 0)
(0.0177963 -0.00465412 0)
(0.0267713 -0.00466428 0)
(0.035762 -0.00465711 0)
(0.0447472 -0.00463007 0)
(0.0536706 -0.0045956 0)
(0.0625099 -0.00454408 0)
(0.0712589 -0.00447936 0)
(0.0798776 -0.00440252 0)
(0.0883436 -0.0043103 0)
(0.0966305 -0.00421011 0)
(0.104711 -0.0040956 0)
(0.112574 -0.0039644 0)
(0.120202 -0.00382969 0)
(0.127564 -0.00368544 0)
(0.134643 -0.00353111 0)
(0.141423 -0.00336741 0)
(0.147885 -0.00319486 0)
(0.154025 -0.00301515 0)
(0.159807 -0.00283428 0)
(0.165218 -0.00264377 0)
(0.170265 -0.00244867 0)
(0.174933 -0.00224805 0)
(0.179213 -0.0020426 0)
(0.183095 -0.00183334 0)
(0.186564 -0.00162497 0)
(0.189616 -0.00141399 0)
(0.192255 -0.00119887 0)
(0.194474 -0.000981614 0)
(0.196265 -0.000764759 0)
(0.19763 -0.000546849 0)
(0.198569 -0.000333909 0)
(0.199077 -0.000113307 0)
(0.19916 0.000102486 0)
(0.198815 0.000312212 0)
(0.198054 0.0005216 0)
(0.196885 0.000728371 0)
(0.19531 0.000928804 0)
(0.193341 0.00113142 0)
(0.190989 0.00132598 0)
(0.188256 0.00150831 0)
(0.185154 0.0016848 0)
(0.181706 0.00185324 0)
(0.177927 0.00201571 0)
(0.173829 0.00216841 0)
(0.16943 0.00231161 0)
(0.164748 0.00244221 0)
(0.159803 0.00256026 0)
(0.15462 0.00266371 0)
(0.149222 0.00275519 0)
(0.143629 0.00283958 0)
(0.137861 0.00291012 0)
(0.131943 0.00296832 0)
(0.125905 0.00301564 0)
(0.119755 0.00304783 0)
(0.113519 0.00307217 0)
(0.107231 0.00308815 0)
(0.10091 0.00309311 0)
(0.0945733 0.00308677 0)
(0.0882442 0.00307348 0)
(0.0819458 0.00305138 0)
(0.0756952 0.00302243 0)
(0.0695108 0.00299469 0)
(0.0634188 0.00295979 0)
(0.0574409 0.00291193 0)
(0.0516011 0.00285298 0)
(0.045926 0.00277239 0)
(0.0404329 0.00268312 0)
(0.0351409 0.00258904 0)
(0.0300628 0.00248521 0)
(0.0252147 0.00237574 0)
(0.0206153 0.00226473 0)
(0.0162793 0.00214381 0)
(0.0122244 0.00201993 0)
(0.00845618 0.00189146 0)
(0.00497094 0.00176043 0)
(0.00177547 0.00162975 0)
(-0.00114335 0.00148433 0)
(-0.00376807 0.00134126 0)
(-0.00610489 0.00120124 0)
(-0.0081762 0.0010577 0)
(-0.00994819 0.000924275 0)
(-0.0114291 0.000793042 0)
(-0.0126339 0.000657606 0)
(-0.0136042 0.000517939 0)
(-0.0143216 0.000397091 0)
(-0.014782 0.000267722 0)
(-0.0150572 0.000146751 0)
(-0.0151004 6.24528e-05 0)
(-0.0149373 -3.82387e-05 0)
(-0.0146132 -0.000126237 0)
(-0.0140879 -0.000196081 0)
(-0.0134239 -0.000273297 0)
(-0.0126449 -0.000336413 0)
(-0.0117481 -0.000387231 0)
(-0.0107932 -0.000419562 0)
(-0.00977531 -0.000439704 0)
(-0.00869374 -0.00042967 0)
(-0.00762653 -0.000385626 0)
(-0.00661747 -0.000286386 0)
(-0.00576266 -0.000138485 0)
(-0.00509423 0.000137604 0)
(-0.00443464 0.000127344 0)
(-0.00484688 -0.0004458 0)
(-0.00430514 -0.00144147 0)
(-0.000494513 -0.00289018 0)
(0.00419078 -0.0013361 0)
(0.00420278 -5.56835e-05 0)
(0.00486915 0.000340845 0)
(0.003921 -0.000823187 0)
(0.00773132 -0.00279293 0)
(0.0120063 -0.00156817 0)
(0.012415 -0.000300745 0)
(0.0117579 0.000201947 0)
(0.0116759 0.000389431 0)
(0.0118182 0.000182987 0)
(0.0120293 4.77586e-05 0)
(0.0123595 -4.9502e-05 0)
(0.0126925 -8.99881e-05 0)
(0.0130487 -8.62606e-05 0)
(0.0133661 -7.49319e-05 0)
(0.0136176 -3.61496e-05 0)
(0.0138034 7.665e-06 0)
(0.0138674 6.69471e-05 0)
(0.0138426 0.000135263 0)
(0.0136836 0.000190868 0)
(0.0133804 0.000266012 0)
(0.0129506 0.000326558 0)
(0.0123664 0.000415697 0)
(0.0115874 0.000499659 0)
(0.0106135 0.000610927 0)
(0.00946695 0.000735599 0)
(0.00810941 0.000849503 0)
(0.00653448 0.000949976 0)
(0.00471646 0.00105799 0)
(0.00265395 0.00117465 0)
(0.000327427 0.00129491 0)
(-0.00226464 0.00142897 0)
(-0.0051132 0.00155567 0)
(-0.00824065 0.0016814 0)
(-0.011654 0.00180612 0)
(-0.0153526 0.00191878 0)
(-0.0193313 0.00202711 0)
(-0.0235867 0.0021375 0)
(-0.0281148 0.00224689 0)
(-0.0329037 0.00234718 0)
(-0.0379492 0.00244146 0)
(-0.0432384 0.00253847 0)
(-0.0487503 0.00262713 0)
(-0.0544615 0.00270624 0)
(-0.0603505 0.00277442 0)
(-0.0664012 0.00282136 0)
(-0.0725867 0.00285596 0)
(-0.0788818 0.00288027 0)
(-0.0852612 0.00290875 0)
(-0.0917017 0.00293409 0)
(-0.0981791 0.00294906 0)
(-0.104668 0.00295053 0)
(-0.111147 0.0029453 0)
(-0.117586 0.00293072 0)
(-0.123959 0.00290342 0)
(-0.130245 0.00286364 0)
(-0.136409 0.00281414 0)
(-0.142426 0.00274245 0)
(-0.148268 0.0026564 0)
(-0.153879 0.00255765 0)
(-0.159232 0.00243597 0)
(-0.164312 0.00230808 0)
(-0.169086 0.00216441 0)
(-0.173525 0.00200643 0)
(-0.177606 0.00183695 0)
(-0.181304 0.00165423 0)
(-0.184589 0.00145636 0)
(-0.187442 0.0012571 0)
(-0.189852 0.00104249 0)
(-0.191801 0.000819456 0)
(-0.19328 0.000596138 0)
(-0.194265 0.000376161 0)
(-0.194755 0.00013992 0)
(-0.194735 -9.61902e-05 0)
(-0.194184 -0.000333493 0)
(-0.193102 -0.000573328 0)
(-0.191499 -0.000813629 0)
(-0.189375 -0.00104966 0)
(-0.186735 -0.00128283 0)
(-0.183593 -0.00151253 0)
(-0.179949 -0.00174756 0)
(-0.175778 -0.00198521 0)
(-0.171072 -0.00221104 0)
(-0.165874 -0.00243102 0)
(-0.160193 -0.00264982 0)
(-0.154049 -0.0028542 0)
(-0.147467 -0.0030548 0)
(-0.140442 -0.0032489 0)
(-0.132991 -0.0034367 0)
(-0.125141 -0.00361566 0)
(-0.116909 -0.00377908 0)
(-0.108354 -0.00393787 0)
(-0.09945 -0.00406382 0)
(-0.0902554 -0.00420464 0)
(-0.0807963 -0.00430754 0)
(-0.0710771 -0.00442612 0)
(-0.0611791 -0.00449641 0)
(-0.0510962 -0.00456639 0)
(-0.0408827 -0.00461634 0)
(-0.0305978 -0.00464865 0)
(-0.020309 -0.00464802 0)
(-0.0100001 -0.00462627 0)
(0.000305599 -0.00459899 0)
(0.0105138 -0.0045582 0)
(0.0205756 -0.00449193 0)
(0.0304755 -0.00439616 0)
(0.0401558 -0.00427707 0)
(0.0495789 -0.00415874 0)
(0.0586771 -0.00401122 0)
(0.0674508 -0.00383935 0)
(0.0758256 -0.00365237 0)
(0.0837568 -0.00345436 0)
(0.0912544 -0.00323632 0)
(0.0982451 -0.0029926 0)
(0.104671 -0.00273116 0)
(0.110514 -0.0024614 0)
(0.115728 -0.00217279 0)
(0.12032 -0.00187361 0)
(0.124235 -0.00158404 0)
(0.12742 -0.00125791 0)
(0.129916 -0.000914396 0)
(0.131631 -0.00058699 0)
(0.132529 -0.000229037 0)
(0.132685 0.000142873 0)
(0.132013 0.000483215 0)
(0.130489 0.000851143 0)
(0.128174 0.00122668 0)
(0.125055 0.00160708 0)
(0.121049 0.00195785 0)
(0.116153 0.00233904 0)
(0.110446 0.00271498 0)
(0.103905 0.00308499 0)
(0.0965755 0.0034536 0)
(0.0884042 0.00377758 0)
(0.0793775 0.00414035 0)
(0.0695886 0.00447665 0)
(0.0590454 0.00480535 0)
(0.047778 0.00511473 0)
(0.0358183 0.00541431 0)
(0.0231949 0.00569775 0)
(0.00999349 0.00595461 0)
(-0.00389039 0.00617406 0)
(-0.0183477 0.00641093 0)
(-0.0332287 0.00661601 0)
(-0.048525 0.00679467 0)
(-0.0642346 0.00695267 0)
(-0.08031 0.00709305 0)
(-0.0966883 0.00720936 0)
(-0.113319 0.00730281 0)
(-0.130147 0.00737228 0)
(-0.147115 0.00741854 0)
(-0.164163 0.00743926 0)
(-0.181235 0.00743419 0)
(-0.198282 0.00740757 0)
(-0.215256 0.00735852 0)
(-0.232102 0.00728781 0)
(-0.24877 0.00719649 0)
(-0.265216 0.00708504 0)
(-0.28139 0.00695357 0)
(-0.297244 0.00680332 0)
(-0.312736 0.00663595 0)
(-0.327831 0.00645273 0)
(-0.342495 0.0062554 0)
(-0.356695 0.00604369 0)
(-0.370401 0.00582045 0)
(-0.383585 0.00558653 0)
(-0.396218 0.00534239 0)
(-0.408276 0.00508924 0)
(-0.419745 0.00482864 0)
(-0.430605 0.00456123 0)
(-0.440839 0.00428747 0)
(-0.450432 0.00400967 0)
(-0.459378 0.00372808 0)
(-0.467668 0.00344362 0)
(-0.475299 0.00315688 0)
(-0.482266 0.00286977 0)
(-0.488568 0.00258355 0)
(-0.494204 0.00229866 0)
(-0.499177 0.00201523 0)
(-0.503491 0.00173439 0)
(-0.50715 0.00145643 0)
(-0.510163 0.00118092 0)
(-0.512541 0.000908608 0)
(-0.514293 0.000642435 0)
(-0.51543 0.000385074 0)
(-0.515969 0.000127601 0)
(-0.515913 -0.000111275 0)
(-0.515291 -0.000348489 0)
(-0.514114 -0.000580634 0)
(-0.512397 -0.000806136 0)
(-0.510156 -0.00102481 0)
(-0.507409 -0.00123582 0)
(-0.504172 -0.00143943 0)
(-0.500461 -0.00163794 0)
(-0.496288 -0.00183089 0)
(-0.491666 -0.00201723 0)
(-0.486607 -0.00219735 0)
(-0.481128 -0.00237146 0)
(-0.475242 -0.00253992 0)
(-0.468962 -0.00270272 0)
(-0.462299 -0.00286045 0)
(-0.455262 -0.00301421 0)
(-0.447862 -0.00316394 0)
(-0.440107 -0.00331 0)
(-0.432003 -0.00345311 0)
(-0.423559 -0.0035932 0)
(-0.41478 -0.00372941 0)
(-0.405674 -0.00386156 0)
(-0.396251 -0.003991 0)
(-0.386519 -0.00411688 0)
(-0.376484 -0.00423931 0)
(-0.366156 -0.00435843 0)
(-0.355539 -0.00447466 0)
(-0.344643 -0.00458739 0)
(-0.333472 -0.00469557 0)
(-0.322038 -0.00480064 0)
(-0.310348 -0.00490345 0)
(-0.298408 -0.00500165 0)
(-0.286231 -0.00509494 0)
(-0.273829 -0.00518434 0)
(-0.261209 -0.0052703 0)
(-0.248378 -0.00535323 0)
(-0.235346 -0.00543082 0)
(-0.22212 -0.00550222 0)
(-0.208717 -0.00557032 0)
(-0.195151 -0.00563276 0)
(-0.181432 -0.00569079 0)
(-0.167567 -0.0057452 0)
(-0.153566 -0.00579491 0)
(-0.139444 -0.00583819 0)
(-0.125213 -0.00587661 0)
(-0.110893 -0.00590826 0)
(-0.0964937 -0.00593179 0)
(-0.0820278 -0.00595094 0)
(-0.0675169 -0.005967 0)
(-0.052945 -0.00597128 0)
(-0.0383916 -0.00596364 0)
(-0.0238555 -0.00595183 0)
(-0.00933649 -0.00593584 0)
(0.00514606 -0.00591369 0)
(0.0195769 -0.00588601 0)
(0.0339451 -0.00584878 0)
(0.0482178 -0.00580338 0)
(0.0623653 -0.00575685 0)
(0.0764318 -0.0057078 0)
(0.0903712 -0.00565183 0)
(0.104174 -0.00559009 0)
(0.117826 -0.0055228 0)
(0.131317 -0.005451 0)
(0.144635 -0.0053749 0)
(0.157768 -0.0052942 0)
(0.170704 -0.00520945 0)
(0.183434 -0.00512059 0)
(0.195948 -0.00502858 0)
(0.208239 -0.00493311 0)
(0.220298 -0.00483504 0)
(0.232119 -0.00473426 0)
(0.243694 -0.00463089 0)
(0.255017 -0.00452473 0)
(0.266079 -0.00441582 0)
(0.276875 -0.00430462 0)
(0.287399 -0.00419108 0)
(0.297645 -0.00407547 0)
(0.307608 -0.0039581 0)
(0.317281 -0.00383871 0)
(0.326661 -0.00371748 0)
(0.335742 -0.00359435 0)
(0.344519 -0.00346974 0)
(0.352989 -0.00334351 0)
(0.361148 -0.00321587 0)
(0.368991 -0.00308706 0)
(0.376514 -0.0029571 0)
(0.383716 -0.00282612 0)
(0.390593 -0.00269456 0)
(0.397146 -0.00256252 0)
(0.403371 -0.0024304 0)
(0.40927 -0.00229833 0)
(0.41484 -0.00216656 0)
(0.420084 -0.00203508 0)
(0.425 -0.00190388 0)
(0.429592 -0.00177352 0)
(0.43386 -0.00164426 0)
(0.437806 -0.0015162 0)
(0.441435 -0.00138972 0)
(0.44475 -0.00126504 0)
(0.447755 -0.00114184 0)
(0.450454 -0.00102011 0)
(0.452849 -0.000900249 0)
(0.454945 -0.000782823 0)
(0.456749 -0.000667482 0)
(0.458268 -0.000554788 0)
(0.459506 -0.000444852 0)
(0.460468 -0.000336864 0)
(0.46116 -0.000230559 0)
(0.461588 -0.000127822 0)
(0.46176 -2.59766e-05 0)
(0.461678 6.9058e-05 0)
(0.461352 0.000163768 0)
(0.460788 0.000256327 0)
(0.459991 0.000346156 0)
(0.458969 0.000433248 0)
(0.457727 0.000517681 0)
(0.456274 0.000599367 0)
(0.454615 0.000678071 0)
(0.452759 0.000754265 0)
(0.450709 0.000827982 0)
(0.448474 0.000898998 0)
(0.44606 0.000967292 0)
(0.443473 0.001033 0)
(0.440719 0.0010959 0)
(0.437806 0.00115621 0)
(0.43474 0.00121402 0)
(0.431527 0.0012692 0)
(0.428174 0.00132191 0)
(0.424687 0.00137224 0)
(0.421072 0.00142011 0)
(0.417334 0.0014655 0)
(0.413479 0.00150851 0)
(0.409515 0.00154921 0)
(0.405447 0.00158761 0)
(0.40128 0.00162365 0)
(0.39702 0.00165748 0)
(0.392673 0.00168919 0)
(0.388243 0.00171877 0)
(0.383737 0.00174626 0)
(0.37916 0.00177171 0)
(0.374517 0.00179516 0)
(0.369812 0.00181665 0)
(0.365051 0.00183622 0)
(0.360239 0.00185393 0)
(0.355379 0.00186982 0)
(0.350478 0.00188395 0)
(0.345539 0.00189639 0)
(0.340566 0.00190718 0)
(0.335565 0.00191637 0)
(0.330538 0.00192401 0)
(0.325489 0.00193014 0)
(0.320424 0.00193483 0)
(0.315344 0.00193812 0)
(0.310254 0.00194006 0)
(0.305158 0.00194071 0)
(0.300058 0.00194012 0)
(0.294958 0.00193833 0)
(0.289861 0.00193539 0)
(0.284769 0.00193136 0)
(0.279686 0.00192629 0)
(0.274615 0.00192021 0)
(0.269557 0.00191319 0)
(0.264515 0.00190526 0)
(0.259492 0.00189648 0)
(0.25449 0.00188689 0)
(0.249511 0.00187654 0)
(0.244557 0.00186548 0)
(0.239629 0.00185375 0)
(0.234731 0.00184139 0)
(0.229862 0.00182845 0)
(0.225025 0.00181497 0)
(0.220221 0.00180099 0)
(0.215451 0.00178654 0)
(0.210718 0.00177168 0)
(0.206021 0.00175644 0)
(0.201361 0.00174085 0)
(0.196741 0.00172496 0)
(0.19216 0.00170879 0)
(0.187619 0.00169239 0)
(0.183119 0.00167579 0)
(0.17866 0.00165902 0)
(0.174244 0.00164211 0)
(0.16987 0.0016251 0)
(0.165538 0.00160802 0)
(0.161249 0.00159089 0)
(0.157003 0.00157374 0)
(0.1528 0.00155661 0)
(0.14864 0.00153951 0)
(0.144523 0.00152248 0)
(0.140449 0.00150554 0)
(0.136417 0.00148871 0)
(0.132428 0.00147202 0)
(0.12848 0.00145548 0)
(0.124575 0.00143912 0)
(0.12071 0.00142297 0)
(0.116886 0.00140703 0)
(0.113102 0.00139134 0)
(0.109357 0.0013759 0)
(0.105651 0.00136074 0)
(0.101983 0.00134587 0)
(0.0983526 0.00133131 0)
(0.0947585 0.00131708 0)
(0.0912 0.00130318 0)
(0.0876762 0.00128964 0)
(0.0841863 0.00127647 0)
(0.0807292 0.00126368 0)
(0.0773039 0.00125127 0)
(0.0739094 0.00123927 0)
(0.0705447 0.00122769 0)
(0.0672086 0.00121654 0)
(0.0638999 0.00120582 0)
(0.0606176 0.00119554 0)
(0.0573604 0.00118573 0)
(0.0541271 0.00117637 0)
(0.0509165 0.00116748 0)
(0.0477272 0.00115908 0)
(0.0445581 0.00115116 0)
(0.0414077 0.00114374 0)
(0.0382748 0.00113681 0)
(0.035158 0.00113038 0)
(0.0320559 0.00112447 0)
(0.0289672 0.00111907 0)
(0.0258905 0.00111419 0)
(0.0228242 0.00110982 0)
(0.0197671 0.00110593 0)
(0.016718 0.00110243 0)
(0.0136735 0.00109886 0)
(0.0106424 0.00109689 0)
(0.00761148 0.00109839 0)
(0.00455354 0.00109804 0)
(0.00151996 0.00109642 0)
(-0.000651835 0.00326588 0)
(-0.00211729 0.00329506 0)
(-0.00368852 0.00325038 0)
(-0.00521171 0.00323167 0)
(-0.00672947 0.00322368 0)
(-0.00823374 0.00321752 0)
(-0.00973462 0.00321521 0)
(-0.0112336 0.00321611 0)
(-0.0127339 0.00321954 0)
(-0.0142364 0.0032246 0)
(-0.0157417 0.00323164 0)
(-0.0172504 0.00323841 0)
(-0.0187625 0.00324554 0)
(-0.0202784 0.00325323 0)
(-0.0217981 0.00326148 0)
(-0.023322 0.00326965 0)
(-0.0248503 0.00327786 0)
(-0.026383 0.00328615 0)
(-0.0279205 0.00329472 0)
(-0.0294628 0.00330282 0)
(-0.0310101 0.00331149 0)
(-0.0325625 0.00332022 0)
(-0.0341202 0.00332912 0)
(-0.0356834 0.00333853 0)
(-0.0372522 0.00334796 0)
(-0.0388268 0.00335764 0)
(-0.0404073 0.00336794 0)
(-0.041994 0.00337868 0)
(-0.0435869 0.00338933 0)
(-0.0451863 0.00340067 0)
(-0.0467925 0.00341249 0)
(-0.0484054 0.0034247 0)
(-0.0500255 0.00343733 0)
(-0.0516528 0.0034504 0)
(-0.0532875 0.00346389 0)
(-0.0549299 0.00347781 0)
(-0.0565802 0.00349215 0)
(-0.0582385 0.0035069 0)
(-0.059905 0.00352205 0)
(-0.06158 0.00353761 0)
(-0.0632636 0.00355357 0)
(-0.064956 0.00356991 0)
(-0.0666574 0.00358662 0)
(-0.068368 0.00360371 0)
(-0.0700881 0.00362117 0)
(-0.0718177 0.00363898 0)
(-0.073557 0.00365715 0)
(-0.0753063 0.00367568 0)
(-0.0770657 0.00369455 0)
(-0.0788354 0.00371376 0)
(-0.0806157 0.00373331 0)
(-0.0824065 0.00375319 0)
(-0.0842082 0.00377339 0)
(-0.0860209 0.00379393 0)
(-0.0878448 0.00381478 0)
(-0.0896799 0.00383595 0)
(-0.0915266 0.00385743 0)
(-0.093385 0.00387921 0)
(-0.0952552 0.0039013 0)
(-0.0971373 0.00392368 0)
(-0.0990317 0.00394635 0)
(-0.100938 0.00396932 0)
(-0.102857 0.00399256 0)
(-0.104789 0.00401607 0)
(-0.106733 0.00403985 0)
(-0.108691 0.00406388 0)
(-0.110661 0.00408817 0)
(-0.112645 0.0041127 0)
(-0.114641 0.00413748 0)
(-0.116652 0.00416248 0)
(-0.118675 0.00418771 0)
(-0.120713 0.00421315 0)
(-0.122764 0.00423881 0)
(-0.124829 0.00426465 0)
(-0.126909 0.00429069 0)
(-0.129002 0.0043169 0)
(-0.13111 0.00434329 0)
(-0.133232 0.00436983 0)
(-0.135368 0.00439653 0)
(-0.137519 0.00442338 0)
(-0.139685 0.00445036 0)
(-0.141865 0.00447746 0)
(-0.14406 0.00450467 0)
(-0.14627 0.00453198 0)
(-0.148495 0.00455937 0)
(-0.150735 0.00458684 0)
(-0.15299 0.00461437 0)
(-0.15526 0.00464195 0)
(-0.157545 0.00466957 0)
(-0.159845 0.00469722 0)
(-0.16216 0.00472488 0)
(-0.164491 0.00475254 0)
(-0.166837 0.00478018 0)
(-0.169198 0.0048078 0)
(-0.171574 0.00483537 0)
(-0.173966 0.00486289 0)
(-0.176373 0.00489033 0)
(-0.178794 0.00491767 0)
(-0.181232 0.00494491 0)
(-0.183684 0.00497203 0)
(-0.186151 0.00499901 0)
(-0.188634 0.00502584 0)
(-0.191131 0.00505249 0)
(-0.193643 0.00507895 0)
(-0.19617 0.0051052 0)
(-0.198712 0.00513122 0)
(-0.201269 0.005157 0)
(-0.20384 0.00518251 0)
(-0.206425 0.00520773 0)
(-0.209025 0.00523264 0)
(-0.211639 0.00525723 0)
(-0.214266 0.00528147 0)
(-0.216908 0.00530534 0)
(-0.219563 0.00532881 0)
(-0.222232 0.00535188 0)
(-0.224914 0.0053745 0)
(-0.22761 0.00539667 0)
(-0.230318 0.00541836 0)
(-0.233038 0.00543954 0)
(-0.235771 0.00546019 0)
(-0.238517 0.00548028 0)
(-0.241274 0.0054998 0)
(-0.244042 0.00551871 0)
(-0.246822 0.00553699 0)
(-0.249613 0.00555461 0)
(-0.252415 0.00557156 0)
(-0.255227 0.00558779 0)
(-0.258049 0.0056033 0)
(-0.26088 0.00561804 0)
(-0.263721 0.00563199 0)
(-0.26657 0.00564513 0)
(-0.269428 0.00565742 0)
(-0.272294 0.00566883 0)
(-0.275168 0.00567934 0)
(-0.278049 0.00568892 0)
(-0.280936 0.00569754 0)
(-0.28383 0.00570517 0)
(-0.286729 0.00571178 0)
(-0.289633 0.00571733 0)
(-0.292542 0.00572181 0)
(-0.295455 0.00572517 0)
(-0.298371 0.00572738 0)
(-0.301291 0.00572842 0)
(-0.304212 0.00572826 0)
(-0.307136 0.00572686 0)
(-0.31006 0.00572419 0)
(-0.312985 0.00572022 0)
(-0.315909 0.00571491 0)
(-0.318833 0.00570824 0)
(-0.321754 0.00570017 0)
(-0.324674 0.00569066 0)
(-0.32759 0.00567969 0)
(-0.330502 0.00566721 0)