/*--------------------------------*- C++ -*----------------------------------*\
| =========                 |                                                 |
| \\      /  F ield         | OpenFOAM: The Open Source CFD Toolbox           |
|  \\    /   O peration     | Version:  2412                                  |
|   \\  /    A nd           | Website:  www.openfoam.com                      |
|    \\/     M anipulation  |                                                 |
\*---------------------------------------------------------------------------*/
FoamFile
{
    version     2.0;
    format      ascii;
    arch        "LSB;label=32;scalar=64";
    class       volScalarField;
    location    "8.75";
    object      p_rgh;
}
// * * * * * * * * * * * * * * * * * * * * * * * * * * * * * * * * * * * * * //

dimensions      [1 -1 -2 0 0 0 0];

internalField   nonuniform List<scalar> 
6400
(
8371.33
8371.37
8371.42
8371.46
8371.49
8371.49
8371.47
8371.42
8371.35
8371.27
8371.16
8371.05
8370.92
8370.77
8370.63
8370.47
8370.31
8370.14
8369.98
8369.81
8369.64
8369.48
8369.31
8369.16
8369
8368.86
8368.72
8368.6
8368.48
8368.37
8368.27
8368.18
8368.11
8368.04
8367.99
8367.94
8367.91
8367.89
8367.88
8367.87
8367.88
8367.9
8367.92
8367.96
8368
8368.06
8368.13
8368.21
8368.3
8368.4
8368.51
8368.63
8368.76
8368.9
8369.05
8369.21
8369.37
8369.54
8369.71
8369.89
8370.07
8370.25
8370.43
8370.6
8370.77
8370.94
8371.1
8371.25
8371.39
8371.51
8371.62
8371.72
8371.79
8371.85
8371.88
8371.88
8371.86
8371.82
8371.77
8371.73
8371.29
8371.33
8371.38
8371.41
8371.43
8371.43
8371.41
8371.36
8371.3
8371.21
8371.11
8371
8370.88
8370.74
8370.6
8370.45
8370.29
8370.13
8369.97
8369.81
8369.64
8369.48
8369.33
8369.17
8369.03
8368.89
8368.75
8368.63
8368.52
8368.41
8368.32
8368.23
8368.16
8368.09
8368.04
8368
8367.96
8367.94
8367.93
8367.93
8367.93
8367.95
8367.98
8368.01
8368.06
8368.11
8368.18
8368.26
8368.34
8368.44
8368.55
8368.67
8368.8
8368.94
8369.08
8369.23
8369.39
8369.56
8369.73
8369.9
8370.07
8370.24
8370.42
8370.59
8370.75
8370.91
8371.07
8371.21
8371.34
8371.46
8371.57
8371.66
8371.73
8371.78
8371.81
8371.82
8371.81
8371.77
8371.73
8371.68
8371.25
8371.29
8371.34
8371.37
8371.38
8371.38
8371.35
8371.31
8371.25
8371.17
8371.07
8370.96
8370.84
8370.7
8370.56
8370.42
8370.27
8370.12
8369.96
8369.8
8369.65
8369.49
8369.34
8369.19
8369.05
8368.91
8368.78
8368.66
8368.55
8368.45
8368.36
8368.28
8368.2
8368.14
8368.09
8368.05
8368.01
8367.99
8367.98
8367.98
8367.98
8368
8368.03
8368.06
8368.11
8368.16
8368.23
8368.31
8368.39
8368.49
8368.6
8368.71
8368.84
8368.97
8369.12
8369.26
8369.42
8369.58
8369.74
8369.91
8370.08
8370.24
8370.41
8370.57
8370.73
8370.89
8371.04
8371.18
8371.3
8371.42
8371.52
8371.61
8371.67
8371.72
8371.76
8371.76
8371.75
8371.72
8371.68
8371.62
8371.22
8371.27
8371.32
8371.35
8371.36
8371.36
8371.33
8371.28
8371.22
8371.14
8371.04
8370.93
8370.81
8370.68
8370.54
8370.39
8370.25
8370.1
8369.95
8369.79
8369.64
8369.49
8369.34
8369.2
8369.06
8368.93
8368.8
8368.68
8368.58
8368.48
8368.39
8368.31
8368.24
8368.17
8368.12
8368.08
8368.05
8368.03
8368.02
8368.02
8368.02
8368.04
8368.06
8368.1
8368.15
8368.2
8368.27
8368.34
8368.43
8368.52
8368.63
8368.75
8368.87
8369
8369.14
8369.29
8369.44
8369.6
8369.76
8369.92
8370.08
8370.25
8370.41
8370.57
8370.73
8370.88
8371.02
8371.16
8371.28
8371.4
8371.5
8371.58
8371.65
8371.69
8371.72
8371.73
8371.72
8371.69
8371.63
8371.58
8371.21
8371.27
8371.32
8371.36
8371.37
8371.36
8371.33
8371.28
8371.21
8371.13
8371.03
8370.92
8370.8
8370.67
8370.53
8370.38
8370.23
8370.08
8369.93
8369.78
8369.63
8369.48
8369.33
8369.19
8369.06
8368.93
8368.81
8368.69
8368.58
8368.49
8368.4
8368.32
8368.25
8368.19
8368.14
8368.1
8368.07
8368.05
8368.04
8368.04
8368.04
8368.06
8368.09
8368.12
8368.17
8368.22
8368.29
8368.37
8368.45
8368.55
8368.65
8368.77
8368.89
8369.02
8369.16
8369.3
8369.45
8369.61
8369.77
8369.93
8370.09
8370.26
8370.42
8370.58
8370.73
8370.88
8371.02
8371.16
8371.28
8371.39
8371.49
8371.58
8371.64
8371.69
8371.72
8371.72
8371.71
8371.68
8371.61
8371.56
8371.23
8371.29
8371.35
8371.38
8371.39
8371.38
8371.35
8371.3
8371.24
8371.15
8371.05
8370.94
8370.82
8370.69
8370.54
8370.39
8370.24
8370.08
8369.93
8369.78
8369.63
8369.48
8369.33
8369.19
8369.05
8368.92
8368.8
8368.68
8368.58
8368.48
8368.39
8368.31
8368.24
8368.18
8368.13
8368.09
8368.06
8368.04
8368.03
8368.03
8368.03
8368.05
8368.07
8368.11
8368.15
8368.21
8368.28
8368.35
8368.44
8368.54
8368.64
8368.76
8368.88
8369.01
8369.15
8369.3
8369.45
8369.61
8369.77
8369.93
8370.1
8370.26
8370.42
8370.58
8370.74
8370.89
8371.04
8371.17
8371.3
8371.41
8371.51
8371.6
8371.67
8371.72
8371.75
8371.75
8371.74
8371.7
8371.64
8371.6
8371.27
8371.35
8371.41
8371.44
8371.46
8371.44
8371.41
8371.36
8371.29
8371.21
8371.1
8370.98
8370.86
8370.73
8370.58
8370.42
8370.26
8370.11
8369.95
8369.79
8369.64
8369.48
8369.33
8369.19
8369.05
8368.91
8368.79
8368.67
8368.55
8368.45
8368.36
8368.28
8368.21
8368.15
8368.1
8368.05
8368.02
8368
8367.99
8367.98
8367.99
8368.01
8368.03
8368.06
8368.11
8368.16
8368.23
8368.31
8368.39
8368.49
8368.6
8368.72
8368.84
8368.98
8369.12
8369.27
8369.43
8369.59
8369.75
8369.92
8370.09
8370.26
8370.43
8370.59
8370.75
8370.91
8371.06
8371.2
8371.33
8371.46
8371.57
8371.66
8371.73
8371.78
8371.81
8371.82
8371.81
8371.78
8371.73
8371.68
8371.36
8371.44
8371.5
8371.54
8371.55
8371.54
8371.5
8371.44
8371.37
8371.28
8371.16
8371.04
8370.91
8370.77
8370.62
8370.46
8370.29
8370.13
8369.97
8369.8
8369.64
8369.48
8369.33
8369.17
8369.03
8368.89
8368.76
8368.63
8368.52
8368.41
8368.31
8368.23
8368.16
8368.09
8368.04
8368
8367.96
8367.94
8367.93
8367.93
8367.93
8367.95
8367.97
8368
8368.05
8368.1
8368.17
8368.24
8368.33
8368.43
8368.54
8368.66
8368.79
8368.93
8369.07
8369.23
8369.39
8369.55
8369.73
8369.9
8370.08
8370.25
8370.43
8370.6
8370.77
8370.94
8371.1
8371.25
8371.4
8371.53
8371.64
8371.74
8371.81
8371.87
8371.91
8371.93
8371.92
8371.89
8371.86
8371.76
8371.47
8371.56
8371.63
8371.67
8371.68
8371.66
8371.62
8371.55
8371.47
8371.37
8371.24
8371.09
8370.95
8370.81
8370.65
8370.48
8370.31
8370.13
8369.96
8369.79
8369.63
8369.46
8369.3
8369.14
8368.99
8368.85
8368.71
8368.58
8368.46
8368.35
8368.25
8368.17
8368.09
8368.03
8367.98
8367.93
8367.9
8367.88
8367.87
8367.87
8367.87
8367.89
8367.92
8367.95
8368
8368.05
8368.12
8368.19
8368.28
8368.38
8368.49
8368.61
8368.75
8368.89
8369.04
8369.2
8369.37
8369.54
8369.71
8369.89
8370.07
8370.26
8370.44
8370.63
8370.81
8370.98
8371.15
8371.32
8371.47
8371.61
8371.73
8371.83
8371.92
8371.98
8372.03
8372.05
8372.05
8372.04
8371.98
8371.85
8371.62
8371.72
8371.79
8371.83
8371.83
8371.81
8371.75
8371.66
8371.57
8371.46
8371.32
8371.16
8371.01
8370.85
8370.68
8370.5
8370.31
8370.13
8369.95
8369.78
8369.6
8369.43
8369.27
8369.1
8368.95
8368.8
8368.66
8368.52
8368.4
8368.29
8368.19
8368.1
8368.02
8367.96
8367.91
8367.87
8367.84
8367.82
8367.81
8367.81
8367.82
8367.83
8367.86
8367.9
8367.94
8368
8368.06
8368.14
8368.23
8368.33
8368.44
8368.57
8368.71
8368.85
8369.01
8369.17
8369.35
8369.52
8369.71
8369.89
8370.08
8370.27
8370.46
8370.65
8370.84
8371.03
8371.21
8371.38
8371.55
8371.69
8371.83
8371.94
8372.03
8372.11
8372.17
8372.2
8372.21
8372.2
8372.1
8371.98
8371.81
8371.91
8371.98
8372
8371.99
8371.97
8371.89
8371.79
8371.69
8371.57
8371.41
8371.25
8371.08
8370.9
8370.72
8370.53
8370.33
8370.14
8369.95
8369.76
8369.58
8369.41
8369.23
8369.06
8368.9
8368.75
8368.6
8368.46
8368.34
8368.23
8368.12
8368.03
8367.96
8367.89
8367.84
8367.8
8367.77
8367.75
8367.74
8367.74
8367.75
8367.77
8367.79
8367.82
8367.87
8367.92
8367.98
8368.06
8368.15
8368.25
8368.37
8368.5
8368.64
8368.8
8368.96
8369.13
8369.31
8369.5
8369.69
8369.89
8370.09
8370.28
8370.48
8370.68
8370.88
8371.08
8371.27
8371.45
8371.63
8371.79
8371.93
8372.06
8372.17
8372.26
8372.33
8372.38
8372.4
8372.36
8372.24
8372.19
8372.02
8372.12
8372.18
8372.2
8372.16
8372.14
8372.05
8371.94
8371.82
8371.68
8371.51
8371.33
8371.15
8370.96
8370.76
8370.56
8370.35
8370.14
8369.94
8369.75
8369.56
8369.37
8369.19
8369.02
8368.86
8368.7
8368.54
8368.41
8368.28
8368.16
8368.06
8367.97
8367.89
8367.82
8367.77
8367.74
8367.71
8367.69
8367.68
8367.67
8367.68
8367.69
8367.72
8367.75
8367.78
8367.83
8367.9
8367.97
8368.06
8368.16
8368.28
8368.42
8368.57
8368.73
8368.9
8369.08
8369.27
8369.47
8369.68
8369.88
8370.09
8370.3
8370.51
8370.72
8370.93
8371.14
8371.34
8371.54
8371.72
8371.9
8372.05
8372.2
8372.32
8372.43
8372.52
8372.58
8372.59
8372.53
8372.46
8372.42
8372.26
8372.34
8372.4
8372.42
8372.37
8372.33
8372.23
8372.11
8371.98
8371.81
8371.62
8371.42
8371.22
8371.02
8370.8
8370.58
8370.36
8370.14
8369.93
8369.73
8369.53
8369.34
8369.15
8368.97
8368.79
8368.63
8368.48
8368.33
8368.2
8368.08
8367.97
8367.87
8367.79
8367.73
8367.68
8367.65
8367.62
8367.61
8367.6
8367.6
8367.61
8367.63
8367.65
8367.67
8367.71
8367.76
8367.81
8367.89
8367.98
8368.08
8368.21
8368.35
8368.51
8368.68
8368.85
8369.04
8369.23
8369.44
8369.65
8369.86
8370.08
8370.3
8370.53
8370.75
8370.98
8371.2
8371.42
8371.63
8371.83
8372.02
8372.19
8372.36
8372.5
8372.63
8372.74
8372.8
8372.8
8372.76
8372.76
8372.63
8372.53
8372.61
8372.67
8372.68
8372.65
8372.56
8372.45
8372.31
8372.16
8371.97
8371.76
8371.54
8371.31
8371.08
8370.85
8370.62
8370.38
8370.15
8369.93
8369.71
8369.5
8369.3
8369.1
8368.91
8368.73
8368.56
8368.4
8368.24
8368.1
8367.96
8367.85
8367.75
8367.67
8367.61
8367.56
8367.54
8367.52
8367.52
8367.52
8367.52
8367.53
8367.54
8367.56
8367.58
8367.62
8367.66
8367.71
8367.78
8367.87
8367.98
8368.11
8368.26
8368.42
8368.6
8368.78
8368.97
8369.17
8369.38
8369.6
8369.83
8370.06
8370.3
8370.54
8370.78
8371.02
8371.26
8371.5
8371.73
8371.95
8372.16
8372.36
8372.55
8372.72
8372.87
8372.99
8373.06
8373.07
8373.08
8373.05
8372.9
8372.84
8372.94
8373.01
8373
8372.97
8372.84
8372.7
8372.56
8372.38
8372.17
8371.93
8371.69
8371.44
8371.18
8370.91
8370.66
8370.41
8370.16
8369.92
8369.69
8369.47
8369.25
8369.04
8368.84
8368.65
8368.47
8368.3
8368.13
8367.97
8367.83
8367.7
8367.6
8367.52
8367.47
8367.44
8367.42
8367.41
8367.41
8367.41
8367.41
8367.42
8367.43
8367.45
8367.46
8367.49
8367.52
8367.56
8367.62
8367.71
8367.83
8367.96
8368.12
8368.3
8368.48
8368.68
8368.87
8369.08
8369.3
8369.54
8369.79
8370.04
8370.29
8370.54
8370.8
8371.06
8371.32
8371.58
8371.84
8372.08
8372.32
8372.55
8372.77
8372.97
8373.14
8373.27
8373.35
8373.41
8373.46
8373.35
8373.28
8373.21
8373.34
8373.42
8373.4
8373.33
8373.18
8373
8372.82
8372.61
8372.36
8372.09
8371.82
8371.54
8371.24
8370.95
8370.67
8370.4
8370.14
8369.89
8369.64
8369.41
8369.18
8368.96
8368.76
8368.56
8368.37
8368.19
8368.02
8367.85
8367.7
8367.57
8367.46
8367.38
8367.33
8367.3
8367.29
8367.29
8367.29
8367.3
8367.3
8367.31
8367.32
8367.33
8367.34
8367.35
8367.37
8367.4
8367.45
8367.53
8367.65
8367.8
8367.97
8368.17
8368.37
8368.59
8368.81
8369.03
8369.26
8369.5
8369.76
8370.02
8370.29
8370.56
8370.84
8371.11
8371.39
8371.67
8371.95
8372.22
8372.49
8372.75
8373
8373.23
8373.43
8373.57
8373.69
8373.81
8373.85
8373.75
8373.7
8373.66
8373.8
8373.86
8373.85
8373.71
8373.52
8373.3
8373.07
8372.83
8372.55
8372.25
8371.94
8371.63
8371.31
8370.97
8370.66
8370.37
8370.1
8369.85
8369.59
8369.35
8369.11
8368.88
8368.67
8368.47
8368.29
8368.1
8367.92
8367.74
8367.57
8367.43
8367.3
8367.21
8367.15
8367.15
8367.16
8367.17
8367.18
8367.19
8367.2
8367.21
8367.21
8367.22
8367.23
8367.23
8367.23
8367.23
8367.27
8367.35
8367.47
8367.65
8367.85
8368.07
8368.3
8368.52
8368.74
8368.96
8369.19
8369.46
8369.74
8370.03
8370.31
8370.59
8370.87
8371.15
8371.45
8371.75
8372.06
8372.37
8372.66
8372.95
8373.23
8373.49
8373.71
8373.9
8374.08
8374.25
8374.28
8374.27
8374.14
8374.16
8374.31
8374.38
8374.27
8374.11
8373.87
8373.6
8373.33
8373.05
8372.76
8372.43
8372.08
8371.73
8371.37
8371
8370.63
8370.32
8370.05
8369.8
8369.54
8369.28
8369.03
8368.78
8368.56
8368.38
8368.21
8368.02
8367.81
8367.6
8367.41
8367.25
8367.11
8367
8366.97
8367.01
8367.08
8367.12
8367.14
8367.15
8367.16
8367.16
8367.17
8367.17
8367.18
8367.17
8367.13
8367.07
8367.06
8367.13
8367.27
8367.47
8367.71
8367.96
8368.21
8368.44
8368.66
8368.86
8369.09
8369.38
8369.71
8370.01
8370.3
8370.58
8370.86
8371.16
8371.48
8371.82
8372.16
8372.5
8372.83
8373.14
8373.45
8373.75
8374.01
8374.25
8374.49
8374.7
8374.83
8374.78
8374.64
8374.76
8375.03
8375.05
8374.91
8374.66
8374.32
8373.95
8373.63
8373.35
8373.05
8372.67
8372.26
8371.87
8371.47
8371.02
8370.56
8370.22
8369.98
8369.75
8369.5
8369.23
8368.94
8368.64
8368.4
8368.27
8368.13
8367.93
8367.69
8367.43
8367.2
8367.02
8366.84
8366.69
8366.66
8366.8
8366.96
8367.05
8367.07
8367.06
8367.07
8367.08
8367.08
8367.09
8367.11
8367.1
8367
8366.83
8366.72
8366.79
8366.96
8367.21
8367.52
8367.82
8368.11
8368.37
8368.58
8368.71
8368.93
8369.27
8369.67
8370.02
8370.32
8370.58
8370.85
8371.15
8371.52
8371.92
8372.3
8372.68
8373.04
8373.39
8373.74
8374.09
8374.39
8374.67
8375
8375.34
8375.57
8375.57
8375.27
7752.09
7736.25
7729.54
7725.46
7718.93
7711.63
7705.39
7701.81
7696.42
7691.1
7688.77
7686.54
7679.33
7665.99
7658.44
7658.68
7656.1
7650.19
7644.89
7639.98
7633.63
7623.89
7607.57
7597.85
7610.87
7619.61
7615.7
7609.47
7602.86
7594.85
7586.69
7579.03
7572
7568.47
7572.04
7581.01
7592.02
7600.22
7603.78
7606.58
7607.67
7604.46
7600.81
7596.02
7585.72
7575.67
7566.73
7563.21
7570.77
7579.73
7588.66
7596.98
7604.73
7612.76
7618.99
7609.86
7593.52
7602.06
7622.15
7635.59
7643.2
7648.02
7651.96
7657.24
7664.09
7666.25
7661.46
7663.5
7676.2
7688.23
7694.96
7699.39
7703.99
7707.07
7707.82
7712.78
7721.23
7728.48
7736.21
7750.28
1708.4
1723.6
1722.02
1715.35
1710.02
1706.07
1700.6
1695.44
1691.27
1687.53
1678.17
1670.6
1665.81
1666.8
1663.05
1647.22
1639.31
1634.96
1631.63
1629.52
1629.89
1634.33
1641
1646.12
1626.22
1613.12
1608.65
1608.83
1611.04
1615.52
1623.35
1629.36
1636.71
1641.41
1643.11
1638.24
1627.45
1618.48
1613.12
1609.88
1609.26
1612.41
1617.46
1624.54
1635.13
1645.67
1647.57
1646.86
1639.05
1629.15
1622.89
1618.95
1616.49
1615.75
1619.65
1634.57
1659.85
1653.53
1645.56
1638.85
1638.22
1641.18
1645.32
1649.41
1654.33
1663.7
1681.4
1690.44
1689.04
1686.96
1688.42
1692.52
1697.38
1703.55
1711.55
1719.99
1725.94
1731.01
1730.88
1714.53
0.337666
0.405566
0.454969
0.460125
0.453086
0.476391
0.558281
0.613817
0.544243
0.505408
0.818076
1.04028
1.18114
1.1405
1.39963
1.97797
2.11708
2.04915
2.01593
2.01163
1.98403
1.92911
1.91652
1.93554
2.61166
3.22347
3.87123
4.63736
5.50256
6.3994
7.13364
7.93811
6.55571
4.91086
2.7473
0.346233
0.116621
0.10973
0.109651
0.109747
0.109303
0.111098
0.105115
0.102285
0.128873
0.674485
3.19824
5.22269
6.86432
7.96653
7.0215
6.03873
5.14042
4.36218
3.66515
2.90249
2.10782
2.2395
2.22844
2.19832
2.19592
2.19962
2.22006
2.22099
2.0899
1.74472
1.23261
1.00179
1.05371
1.09013
1.08281
0.991752
0.952815
0.931953
0.934269
0.867801
0.711854
0.594165
0.528964
0.539882
0.409945
2.03701
2.36721
2.37775
2.32495
2.68002
4.06685
4.10663
2.03836
1.8052
11.5297
13.3971
13.534
6.48324
7.59098
23.223
30.5334
31.8612
31.8633
31.8826
31.8796
31.8305
31.7474
21.5078
36.0191
35.9928
35.9523
35.8425
35.8221
35.7434
28.2394
24.3513
22.3784
15.7275
5.84785
0.121827
0.107139
0.111888
0.110545
0.1099
0.109054
0.111455
0.104933
0.096934
0.0875558
0.435143
10.8965
20.1483
28.0233
36.7387
38.0954
38.1374
38.2783
38.5659
38.6006
35.3524
17.8514
36.0805
36.1536
36.1641
36.1606
36.2583
36.2662
36.2921
36.3395
28.8301
12.5737
6.69425
10.9891
12.0199
11.987
9.37362
8.61277
8.53148
8.21009
4.53764
1.1714
0.575519
0.603291
0.587632
0.326286
1.49054
2.2428
1.43055
0.824903
0.85426
1.59595
3.79929
3.99291
3.15331
3.24739
4.75755
10.2234
11.6938
14.048
15.8482
6.71344
6.69252
8.18296
8.27384
7.7934
6.54469
5.05632
6.11632
3.31625
1.25148
0.486728
0.103512
0.0774294
0.0767726
0.0780239
0.0770679
0.0746029
0.075954
0.0810177
0.116971
0.13246
0.104141
0.104887
0.105302
0.105111
0.108247
0.101668
0.0966628
0.0949618
0.0928069
0.0808025
0.0641469
0.046045
0.0231429
-0.00108638
-0.0263159
-0.00692025
0.288952
0.795046
3.56471
6.29349
2.32481
2.79715
2.81851
2.32509
1.75899
1.36083
0.959301
0.767214
3.59361
7.82436
6.78306
2.6703
1.71156
1.42401
1.43533
1.583
1.51237
1.50391
2.39118
2.75914
2.74517
0.993776
0.51568
0.289811
0.372868
0.235216
0.259727
0.318958
0.366104
0.2826
0.259777
0.421571
0.712255
1.50306
2.99631
2.17082
2.08937
5.15249
7.76809
6.91787
1.00715
0.153028
0.117634
0.0889848
0.0781588
0.0759253
0.0735581
0.0742958
0.0742378
0.07314
0.0825252
0.108288
0.110412
0.111718
0.112806
0.102916
0.0818985
0.0903946
0.128459
0.132557
0.0955971
0.100423
0.102956
0.108408
0.103866
0.0974956
0.0936935
0.0909593
0.086558
0.0754901
0.0602631
0.0406813
0.0151798
-0.0145766
-0.0434379
-0.0562819
-0.0534901
-0.0391673
-0.0209871
0.00244083
0.0150038
0.0402989
0.0737731
0.391565
1.01302
1.09638
0.340542
0.386134
0.427513
0.47843
0.535958
0.581202
0.786196
2.00112
2.16516
2.1666
1.51799
1.50104
2.41126
2.78041
2.74357
1.79278
0.396784
0.204699
0.186775
0.213284
0.513265
0.722524
0.7987
0.61475
0.261309
0.180507
0.145026
0.116469
0.1565
1.78567
1.55531
0.5541
0.541355
3.17982
2.90045
0.507173
0.0906745
0.0857877
0.0844057
0.0805691
0.076505
0.0748237
0.0747864
0.0742512
0.0739158
0.074531
0.0754529
0.0764061
0.0771783
0.0775406
0.0778311
0.117371
0.126363
0.100167
0.0904753
0.0943506
0.0990202
0.102371
0.0940658
0.0904256
0.088077
0.0864907
0.0820169
0.0726243
0.0604255
0.0452312
0.02247
-0.00762541
-0.038406
-0.0570956
-0.0567438
-0.0464238
0.0900024
0.552147
0.702867
0.359104
0.127015
0.164781
0.233318
0.269111
0.322037
0.523596
0.950016
1.08474
0.860375
0.709378
0.728622
0.750373
1.33555
1.49667
1.91068
1.97255
2.83034
2.79083
2.67854
1.11492
0.276199
0.202201
0.185781
0.535566
0.753654
0.771879
0.778988
0.77061
0.385429
0.12514
0.109206
0.0907671
0.0651151
0.0973856
0.415611
0.533724
0.193848
0.0210138
0.901176
1.56138
1.07287
0.127461
0.0845074
0.0807971
0.0773768
0.0757009
0.0751491
0.0746759
0.0746101
0.0753063
0.0763235
0.077323
0.0779448
0.0775881
0.0984522
0.119751
0.109994
0.0803638
0.0845091
0.0872618
0.0948029
0.0956644
0.0892023
0.0865913
0.087314
0.0868308
0.0840826
0.0774044
0.0648376
0.0996008
0.358615
0.544721
0.306865
-0.00732422
0.0486884
0.609873
0.67942
0.689091
0.773132
0.898591
0.978737
0.835128
0.236939
0.244292
0.6995
2.19734
2.23128
2.27584
2.32019
2.34509
1.26653
1.01395
0.975916
0.9752
0.959386
0.967714
2.15735
2.79616
1.14713
0.249847
0.218348
0.206844
0.193525
0.618457
0.750985
0.768745
0.773791
0.345626
0.115792
0.10601
0.095719
0.0789034
0.0588829
0.0338705
0.0114772
0.0256473
0.0207161
0.0145868
0.0194565
0.493248
1.11927
1.15604
0.371627
0.0808633
0.0766738
0.075493
0.0752474
0.0745376
0.0740971
0.0743983
0.0749911
0.0755579
0.0759903
0.0804109
0.117013
0.117823
0.0752347
0.0767821
0.0789393
0.0806907
0.0884018
0.0900522
0.0892671
0.0838406
0.0852902
0.0851729
0.0813338
0.0733419
0.351109
0.963696
0.936144
0.909641
0.874263
0.290861
-0.0602852
-0.0506872
-0.0414881
-0.0574662
-0.0625528
0.147172
1.02973
1.1754
1.1946
0.508926
1.44498
2.16291
2.22599
2.25756
2.2847
2.30917
2.34423
2.42215
1.23937
1.14594
2.02821
2.30844
2.03119
2.37385
0.104968
0.141076
0.206418
0.384468
0.745073
0.473849
0.196237
0.382976
0.755304
0.239697
0.102638
0.0948164
0.0854465
0.0710974
0.0525753
0.030103
0.00779348
-0.0077597
-0.0115502
-0.00265715
0.012309
0.0283342
0.676974
1.24365
1.25763
0.406355
0.0751635
0.0732614
0.0737509
0.0729865
0.0722223
0.0722636
0.072627
0.0730423
0.0736531
0.0846616
0.115141
0.0818467
0.0724536
0.0737579
0.0738852
0.0748907
0.0796904
0.0848281
0.0865924
0.0820613
0.081574
0.0812305
0.0762471
0.0797347
0.611872
0.95725
0.953232
0.571863
-0.043298
-0.0559239
-0.0675335
-0.0795294
-0.0889369
-0.0939338
-0.0935046
-0.0751527
0.0415939
0.177753
0.225557
0.133428
0.0706425
0.0110399
-0.0096716
0.456514
1.81226
2.2806
2.3776
2.51017
2.58607
2.59342
2.57052
2.53544
2.48259
0.590106
0.124944
0.176457
0.564114
1.3187
0.910471
0.123712
0.0787983
0.0764075
0.313905
0.649437
0.205954
0.0842119
0.0740042
0.0578117
0.0376304
0.0160451
-0.00491114
-0.0217169
-0.0299571
-0.0253155
-0.00611276
0.0205499
0.118521
1.25349
1.28329
0.991418
0.105172
0.0681825
0.0697672
0.0695213
0.0688142
0.0688757
0.0692361
0.069605
0.0701895
0.0922408
0.11219
0.0689305
0.0705584
0.074757
0.0705288
0.0694072
0.0700555
0.0783296
0.0811837
0.0800491
0.0750334
0.0734018
0.0659388
0.0701574
0.701771
0.969639
0.756637
-0.0281555
-0.046272
-0.0632905
-0.0781621
-0.0921813
-0.103046
-0.109137
-0.109789
-0.106033
-0.0981855
-0.0853794
-0.0696652
-0.0553239
-0.0459051
-0.0381245
-0.0316675
-0.0235759
-0.016449
-0.005728
0.84111
1.59904
2.16386
2.59462
2.59801
2.56849
1.58646
0.166937
0.153843
0.27106
1.31134
2.9642
1.27876
0.0692154
0.0591495
0.0519451
0.369459
0.640145
0.629355
0.215045
0.0627779
0.0411325
0.0184545
-0.00390597
-0.0195842
-0.0119391
-0.0286186
-0.0497638
-0.0332927
-1.20741e-05
0.0249773
0.950945
1.31447
1.24324
0.165521
0.0606395
0.0636834
0.0641969
0.0638189
0.064096
0.0645914
0.0649674
0.0675214
0.0897523
0.0893356
0.0637585
0.066747
0.06943
0.0699149
0.0641881
0.0640561
0.0665421
0.0746267
0.0753073
0.0661963
0.0629839
0.0530546
0.0502993
0.662825
0.968407
0.62208
-0.0274496
-0.0517813
-0.0470048
-0.00789781
-0.0873483
-0.123353
-0.13115
-0.132461
-0.12718
-0.115645
-0.100589
-0.0837667
-0.0709356
-0.0599463
-0.0508521
-0.0423322
-0.0357694
-0.0292988
-0.0228396
-0.0182226
-0.0124676
-0.00433501
0.847658
1.61199
0.690007
0.148421
0.171812
0.198587
0.8967
1.34894
3.03677
1.50305
0.0554267
0.0454626
0.0358335
0.0302404
0.590555
0.676331
0.693594
0.359103
0.0260108
-0.00412296
-0.0275663
-0.0314586
-0.0340777
-0.0447857
-0.0486211
-0.0605249
-0.0276267
0.00748362
0.696698
1.33372
1.32235
0.295365
0.0514188
0.0560294
0.0571802
0.0572981
0.0579539
0.0586961
0.0592266
0.0648433
0.0843773
0.0593856
0.0577259
0.0592347
0.0634635
0.063949
0.0638999
0.0577827
0.0573512
0.0652226
0.0663501
0.0600867
0.0499681
0.0380854
0.0205397
0.556068
0.940281
0.669972
-0.0238506
-0.0603268
0.0182909
0.121513
0.02393
-0.150377
-0.159951
-0.162041
-0.156404
-0.130768
-0.0152524
0.0401387
-0.0534553
-0.0814224
-0.0694858
-0.0547577
-0.0469438
-0.0429462
-0.0367305
-0.0305052
-0.0234376
-0.0156669
-0.00866874
0.00293555
0.0642455
0.275511
0.235045
0.346089
1.15427
1.38653
3.11406
1.49834
0.0444097
0.0378988
0.0277477
0.0161188
0.0392822
0.657214
0.699139
0.694768
0.22599
-0.0268719
-0.0527717
-0.0714547
-0.0609927
-0.069971
-0.0691895
-0.0755044
-0.053185
-0.0123024
0.434426
1.34779
1.35315
0.539871
0.0405359
0.0470649
0.0487764
0.0495671
0.0507485
0.0518353
0.052673
0.0596163
0.0760084
0.0528843
0.0510774
0.0501653
0.0530794
0.0573629
0.0577427
0.0520966
0.0495424
0.0522352
0.0561568
0.050881
0.0356198
0.0226082
-0.00122125
0.444156
0.906245
0.801093
0.0197629
-0.0626842
0.0751467
0.10135
0.0770498
0.0574923
0.0450153
-0.073631
-0.158627
-0.0515416
0.0796722
0.098883
0.0742016
-0.103859
-0.0830562
-8.09017e-05
0.0177948
-0.0483666
-0.0501257
-0.0422154
-0.0337498
-0.0248351
-0.0145726
0.00409892
0.595784
1.11555
0.899475
0.357029
0.371189
0.696441
3.19099
1.2591
0.03582
0.0317059
0.0219631
0.00893247
-0.00404824
0.0977198
0.690235
0.691657
0.59355
0.00460914
-0.0755503
-0.0946503
-0.0861572
-0.0935088
-0.0907845
-0.0830177
-0.0704181
-0.0260712
0.024054
1.29965
1.37722
0.550622
0.0282106
0.036998
0.0393485
0.0410636
0.0428733
0.0443548
0.0455235
0.0528711
0.0700537
0.0460248
0.043798
0.0427869
0.0426872
0.0441339
0.0460312
0.0445549
0.0411869
0.0402268
0.0447078
0.033741
0.0208193
0.00715638
-0.0175918
0.258356
0.885362
0.862484
0.384586
-0.0617922
-0.0166097
0.0761155
0.0459164
0.0207952
0.00608804
0.00546664
0.0156815
0.032465
0.0535021
0.0771034
0.0993292
0.00363452
-0.0833333
-0.00838488
0.0359975
0.0321313
-0.0635421
-0.0547212
-0.0444388
-0.0335288
-0.0207273
-0.00464163
0.608158
1.17236
1.1989
1.17373
0.366707
0.326174
3.26744
0.595723
0.0276048
0.0243567
0.0150115
0.00214334
-0.0114675
-0.0250788
0.232897
0.688019
0.658498
0.150453
-0.0906444
-0.113252
-0.103163
-0.111337
-0.104811
-0.102227
-0.0757378
-0.0275095
-0.00738619
1.16577
1.39624
0.319588
0.0167667
0.0262083
0.0294859
0.0322794
0.034731
0.0366149
0.0380908
0.0435056
0.063639
0.0424129
0.0360051
0.0409798
0.0348946
0.0354623
0.0355757
0.0353819
0.0321857
0.0291527
0.025059
0.0166999
0.00666752
-0.00745212
-0.030752
0.0355367
0.786259
0.855613
0.830994
-0.043232
-0.163533
-0.0291418
-0.024715
-0.245381
-0.276572
-0.209219
-0.110515
-0.0594204
-0.0172726
0.0429476
0.0677843
0.0862617
0.0638702
-0.00875438
0.0210139
0.0332643
0.0163178
-0.06918
-0.0573017
-0.0441818
-0.0294349
-0.0141076
-0.00139986
0.0897736
0.971681
1.86483
1.91279
0.6155
1.97855
0.104267
0.0195755
0.015809
0.00697656
-0.00520312
-0.0183116
-0.0313078
-0.0445162
0.563739
0.667945
0.237323
-0.107603
-0.130066
-0.116097
-0.123919
-0.130879
-0.111335
-0.064564
-0.0227483
0.440978
1.48941
0.858728
0.0483694
0.00721149
0.0153749
0.0199629
0.0237227
0.0267537
0.0290082
0.0307522
0.0328774
0.0537902
0.0502345
0.0362907
0.0379052
0.0318141
0.0277596
0.0277922
0.0266595
0.0230724
0.0191368
0.0132503
0.00484271
-0.00571096
-0.0198522
-0.0410703
-0.0687939
0.226522
0.852379
0.845413
0.515372
-0.200355
-0.252008
-0.287858
-0.33707
-0.355625
-0.356104
-0.340253
-0.311547
-0.27585
-0.203411
0.00267538
0.0679158
0.0826607
0.102152
0.0102618
0.016295
0.0336529
-0.0210275
-0.0718544
-0.0569792
-0.040237
-0.0238372
-0.00927381
0.00349266
0.0116745
0.339317
2.31193
2.39457
-0.00166655
0.0189283
0.011894
0.00634851
-0.00201628
-0.0132549
-0.0255642
-0.0372506
-0.0482142
0.0483908
0.669111
0.190097
-0.113513
-0.132525
-0.127583
-0.142037
-0.125016
-0.0896851
-0.0501146
0.24714
1.60245
1.55641
0.291595
-0.0154591
-0.00205952
0.00576549
0.011376
0.0158171
0.0193337
0.0219007
0.0238888
0.0251424
0.0281096
0.031689
0.0327786
0.0307832
0.0312329
0.0206772
0.0217747
0.0188643
0.014884
0.0103707
0.00395735
-0.00501007
-0.0156466
-0.0290213
-0.0481788
-0.0762445
-0.109504
0.303594
0.823202
0.614775
-0.220323
-0.272515
-0.322363
-0.35816
-0.377229
-0.377036
-0.358963
-0.327187
-0.288005
-0.248583
-0.214492
-0.0762947
0.0790761
0.0991299
0.0600444
0.00587365
0.0226001
0.044658
-0.0751079
-0.0709031
-0.0521264
-0.0333764
-0.017225
-0.00416685
0.00509052
0.0105825
0.10103
2.44225
-0.00285181
0.00574152
0.00389302
-0.00290286
-0.0116997
-0.0222971
-0.0339439
-0.0443107
-0.0516282
-0.059706
0.450991
0.0189904
-0.107054
-0.122742
-0.12412
-0.12183
-0.105343
0.198823
0.866477
1.65675
1.63569
1.14863
-0.0231944
-0.0267138
-0.011284
-0.00233368
0.00389255
0.0088542
0.0127283
0.0155233
0.017671
0.0189407
0.0196578
0.0185547
0.0282284
0.0258881
0.0259496
0.0150926
0.017193
0.0128364
0.00852461
0.00358878
-0.0032035
-0.012513
-0.0229621
-0.0351464
-0.0516191
-0.0750791
-0.10677
-0.134422
0.090286
0.0331227
-0.178004
-0.270294
-0.319141
-0.353972
-0.372393
-0.372693
-0.354892
-0.323373
-0.28444
-0.245433
-0.211466
-0.184911
-0.101247
0.102465
0.120116
0.00985902
-0.0179781
0.0364289
0.0324198
-0.0849357
-0.0644443
-0.0428222
-0.0242326
-0.0101516
-0.000993233
0.00738855
0.0284212
0.843872
-0.00772744
-0.00488465
-0.00524699
-0.0120976
-0.0214344
-0.0322764
-0.0438023
-0.0530999
-0.057128
-0.0586504
-0.0710044
-0.0785411
-0.0975711
-0.109671
-0.113042
-0.109977
0.162863
1.65917
1.68171
1.66885
1.55504
0.0436434
-0.0576844
-0.0310733
-0.0181544
-0.00880592
-0.00224056
0.00300522
0.00704728
0.0100034
0.01222
0.0135463
0.0141789
0.0135179
0.023139
0.0233922
0.0189349
0.0107714
0.0131901
0.0126663
0.00408014
-0.00105026
-0.00812049
-0.0177144
-0.0279066
-0.0387746
-0.0528614
-0.0719547
-0.0974868
-0.128161
-0.158203
-0.187379
-0.183345
-0.242767
-0.293558
-0.325594
-0.342581
-0.343003
-0.328049
-0.300564
-0.266371
-0.231832
-0.201701
-0.177974
-0.161458
-0.0262484
0.127354
0.136798
-0.0191808
0.0308242
0.0417082
-0.0966758
-0.0757759
-0.0516177
-0.0306259
-0.0152324
-0.00489763
0.00466102
0.0161304
0.00977529
-0.00906057
-0.00947856
-0.0129516
-0.0203491
-0.0304325
-0.0425071
-0.0546066
-0.062957
-0.0635259
-0.0591464
-0.0708287
-0.0805746
-0.088599
-0.0980303
-0.100859
-0.0999335
0.114001
1.24117
1.68478
1.0862
0.0964576
-0.0823856
-0.0537515
-0.0334041
-0.022247
-0.0135391
-0.00694376
-0.00171229
0.00233348
0.00536043
0.0075709
0.00897791
0.00940808
0.00916474
0.0107708
0.0208864
0.00993752
0.00788007
0.0102976
0.0133638
0.000920269
-0.00410715
-0.011105
-0.0209786
-0.0308537
-0.0408203
-0.0527924
-0.0683333
-0.088257
-0.112563
-0.139519
-0.166197
-0.191124
-0.216865
-0.248643
-0.276365
-0.291988
-0.293508
-0.283508
-0.2634
-0.237755
-0.21138
-0.187702
-0.16862
-0.154553
-0.146344
0.00333182
0.142094
-0.0114757
0.0035399
0.0146434
-0.0861764
-0.0838389
-0.0582033
-0.0354276
-0.0189508
-0.00807605
0.000419596
0.00692216
0.0105864
-0.00776901
-0.0110314
-0.0179513
-0.0265303
-0.0375818
-0.0513427
-0.0643694
-0.0717789
-0.069088
-0.0609075
-0.0684103
-0.0711894
-0.0806364
-0.0882222
-0.0915213
-0.0740404
-0.0118219
0.0181134
0.176719
-0.0711721
-0.090498
-0.0691846
-0.0475588
-0.0338684
-0.0242955
-0.0165738
-0.0103334
-0.00535631
-0.00143975
0.00156713
0.00375086
0.00524282
0.00555848
0.0057739
0.00645229
0.00780795
0.0059613
0.00553392
0.00817445
0.0108638
-0.00164787
-0.00638601
-0.0130339
-0.0223712
-0.0321816
-0.0415795
-0.0519426
-0.0648269
-0.0807695
-0.0995162
-0.120356
-0.14196
-0.163572
-0.186011
-0.207783
-0.226071
-0.237701
-0.240729
-0.235796
-0.223583
-0.20691
-0.188969
-0.172212
-0.158097
-0.147188
-0.139739
-0.136634
0.045418
-0.026388
-0.129597
-0.118197
-0.0770948
-0.0844555
-0.0601229
-0.0373334
-0.0206593
-0.0100683
-0.00237669
0.00228535
0.00684334
-0.00751302
-0.0133408
-0.0209387
-0.0300226
-0.0412933
-0.0562234
-0.0698197
-0.0764004
-0.0708564
-0.0626129
-0.0598262
-0.0576155
-0.0732071
-0.0783684
-0.0792484
-0.077312
-0.0850156
-0.0888842
-0.0901757
-0.0847059
-0.071889
-0.0558728
-0.0425035
-0.0330673
-0.0250196
-0.0182786
-0.0126367
-0.00804361
-0.00435101
-0.00144907
0.00070122
0.00225015
0.0027937
0.00340757
0.0042434
0.00454349
0.00385474
0.00303713
0.00528543
0.0084637
-0.00366626
-0.00828322
-0.0141471