/*--------------------------------*- C++ -*----------------------------------*\
| =========                 |                                                 |
| \\      /  F ield         | OpenFOAM: The Open Source CFD Toolbox           |
|  \\    /   O peration     | Version:  2412                                  |
|   \\  /    A nd           | Website:  www.openfoam.com                      |
|    \\/     M anipulation  |                                                 |
\*---------------------------------------------------------------------------*/
FoamFile
{
    version     2.0;
    format      ascii;
    arch        "LSB;label=32;scalar=64";
    class       surfaceScalarField;
    location    "8.75";
    object      phi;
}
// * * * * * * * * * * * * * * * * * * * * * * * * * * * * * * * * * * * * * //

dimensions      [0 3 -1 0 0 0 0];

oriented        oriented;

internalField   nonuniform List<scalar> 
12640
(
-3.76963e-09
3.75022e-09
3.12223e-08
-3.54987e-08
1.09973e-07
-7.92391e-08
2.20533e-07
-1.10816e-07
3.49477e-07
-1.29295e-07
4.85879e-07
-1.36708e-07
6.21845e-07
-1.36194e-07
7.51937e-07
-1.30274e-07
8.72943e-07
-1.21161e-07
9.83175e-07
-1.10361e-07
1.0817e-06
-9.86146e-08
1.16827e-06
-8.66067e-08
1.24302e-06
-7.47059e-08
1.30601e-06
-6.28882e-08
1.3575e-06
-5.13472e-08
1.39792e-06
-4.02638e-08
1.42766e-06
-2.95188e-08
1.4469e-06
-1.89324e-08
1.4558e-06
-8.46886e-09
1.45448e-06
1.8252e-09
1.44317e-06
1.18522e-08
1.42211e-06
2.15615e-08
1.39163e-06
3.09204e-08
1.3521e-06
3.99215e-08
1.30389e-06
4.85575e-08
1.24748e-06
5.6748e-08
1.18347e-06
6.43566e-08
1.11258e-06
7.12371e-08
1.03559e-06
7.7315e-08
9.53349e-07
8.25415e-08
8.66701e-07
8.69103e-08
7.76513e-07
9.04117e-08
6.83642e-07
9.30585e-08
5.88891e-07
9.491e-08
4.92961e-07
9.60684e-08
3.96377e-07
9.67087e-08
2.99519e-07
9.69696e-08
2.02649e-07
9.69671e-08
1.05866e-07
9.68584e-08
9.09003e-09
9.68265e-08
-8.77822e-08
9.68983e-08
-1.84824e-07
9.70467e-08
-2.82145e-07
9.73075e-08
-3.79639e-07
9.74632e-08
-4.77109e-07
9.74214e-08
-5.74324e-07
9.71453e-08
-6.70804e-07
9.63843e-08
-7.6589e-07
9.49671e-08
-8.58726e-07
9.2693e-08
-9.48337e-07
8.9443e-08
-1.0338e-06
8.52675e-08
-1.11417e-06
8.01453e-08
-1.18848e-06
7.40551e-08
-1.25591e-06
6.71378e-08
-1.31565e-06
5.94318e-08
-1.36702e-06
5.103e-08
-1.40941e-06
4.20499e-08
-1.44237e-06
3.25934e-08
-1.46552e-06
2.27696e-08
-1.47852e-06
1.26037e-08
-1.4811e-06
2.17092e-09
-1.47309e-06
-8.44464e-09
-1.45432e-06
-1.92115e-08
-1.42463e-06
-3.01361e-08
-1.38382e-06
-4.1244e-08
-1.33168e-06
-5.25438e-08
-1.26803e-06
-6.40278e-08
-1.19258e-06
-7.57862e-08
-1.10509e-06
-8.78074e-08
-1.00544e-06
-9.99534e-08
-8.93825e-07
-1.1191e-07
-7.71035e-07
-1.23081e-07
-6.3879e-07
-1.32535e-07
-5.00262e-07
-1.38812e-07
-3.60738e-07
-1.39787e-07
-2.2833e-07
-1.32633e-07
-1.14302e-07
-1.14214e-07
-3.23731e-08
-8.211e-08
4.95446e-09
-3.75027e-08
4.83871e-09
3.5975e-08
-3.2694e-08
1.65729e-07
-1.65886e-07
3.836e-07
-2.9792e-07
6.67311e-07
-3.95222e-07
9.9068e-07
-4.53397e-07
1.33098e-06
-4.77696e-07
1.67061e-06
-4.76457e-07
1.99711e-06
-4.57372e-07
2.30243e-06
-4.27024e-07
2.58176e-06
-3.90173e-07
2.83261e-06
-3.49849e-07
3.05402e-06
-3.08306e-07
3.24578e-06
-2.66647e-07
3.40793e-06
-2.25104e-07
3.54085e-06
-1.84195e-07
3.64533e-06
-1.44535e-07
3.72221e-06
-1.06082e-07
3.77215e-06
-6.84698e-08
3.79562e-06
-3.14609e-08
3.79298e-06
4.99138e-09
3.76465e-06
4.07266e-08
3.71121e-06
7.55483e-08
3.63343e-06
1.09268e-07
3.5322e-06
1.41738e-07
3.40855e-06
1.7282e-07
3.26369e-06
2.02255e-07
3.09906e-06
2.29655e-07
2.91638e-06
2.54601e-07
2.71758e-06
2.76776e-07
2.50481e-06
2.95958e-07
2.28029e-06
3.12048e-07
2.04629e-06
3.25016e-07
1.80498e-06
3.3496e-07
1.55837e-06
3.421e-07
1.30822e-06
3.46796e-07
1.05595e-06
3.49554e-07
8.02616e-07
3.50881e-07
5.48891e-07
3.51256e-07
2.95104e-07
3.51195e-07
4.1252e-08
3.51206e-07
-2.12863e-07
3.51517e-07
-4.67415e-07
3.52075e-07
-7.22457e-07
3.52798e-07
-9.7775e-07
3.53171e-07
-1.23274e-06
3.52792e-07
-1.48659e-06
3.51327e-07
-1.73806e-06
3.48143e-07
-1.98551e-06
3.42646e-07
-2.22684e-06
3.34196e-07
-2.45967e-06
3.22388e-07
-2.68152e-06
3.07181e-07
-2.88998e-06
2.88591e-07
-3.08268e-06
2.66692e-07
-3.25741e-06
2.41731e-07
-3.4122e-06
2.14031e-07
-3.54536e-06
1.8393e-07
-3.65537e-06
1.51748e-07
-3.74103e-06
1.17861e-07
-3.80134e-06
8.26246e-08
-3.83546e-06
4.6206e-08
-3.84277e-06
8.89654e-09
-3.82278e-06
-2.90724e-08
-3.77512e-06
-6.75575e-08
-3.69941e-06
-1.06566e-07
-3.59523e-06
-1.46158e-07
-3.46212e-06
-1.86399e-07
-3.29963e-06
-2.27258e-07
-3.10727e-06
-2.68889e-07
-2.88464e-06
-3.11195e-07
-2.63172e-06
-3.53644e-07
-2.3494e-06
-3.95026e-07
-2.04008e-06
-4.33224e-07
-1.70845e-06
-4.64999e-07
-1.36263e-06
-4.85451e-07
-1.0153e-06
-4.87882e-07
-6.84559e-07
-4.64032e-07
-3.93849e-07
-4.0545e-07
-1.69811e-07
-3.06527e-07
-3.5921e-08
-1.71484e-07
-3.20263e-08
8.05794e-08
-1.13769e-07
3.01173e-07
-3.87728e-07
6.36262e-07
-6.34159e-07
1.05406e-06
-8.14056e-07
1.52153e-06
-9.22017e-07
2.01002e-06
-9.67346e-07
2.4967e-06
-9.6428e-07
2.96493e-06
-9.26727e-07
3.40365e-06
-8.66847e-07
3.80595e-06
-7.93548e-07
4.16803e-06
-7.12928e-07
4.48832e-06
-6.2951e-07
4.76631e-06
-5.45425e-07
5.00188e-06
-4.61343e-07
5.19535e-06
-3.78235e-07
5.34753e-06
-2.97258e-07
5.45947e-06
-2.18559e-07
5.53214e-06
-1.4166e-07
5.56629e-06
-6.60554e-08
5.56254e-06
8.45208e-09
5.52152e-06
8.16336e-08
5.44405e-06
1.53088e-07
5.33116e-06
2.22378e-07
5.18411e-06
2.89132e-07
5.00437e-06
3.53013e-07
4.79365e-06
4.1353e-07
4.55398e-06
4.69973e-07
4.28775e-06
5.21561e-07
3.99776e-06
5.67584e-07
3.6871e-06
6.07519e-07
3.35904e-06
6.41072e-07
3.0169e-06
6.68187e-07
2.66389e-06
6.89071e-07
2.30297e-06
7.04178e-07
1.93674e-06
7.14256e-07
1.56731e-06
7.20267e-07
1.19627e-06
7.23252e-07
8.2462e-07
7.24296e-07
4.52819e-07
7.24417e-07
8.08943e-08
7.24571e-07
-2.91387e-07
7.25243e-07
-6.64326e-07
7.26451e-07
-1.038e-06
7.27893e-07
-1.41208e-06
7.28647e-07
-1.78579e-06
7.27874e-07
-2.1578e-06
7.24675e-07
-2.52626e-06
7.17882e-07
-2.88871e-06
7.06322e-07
-3.24215e-06
6.88795e-07
-3.58312e-06
6.6447e-07
-3.90801e-06
6.33112e-07
-4.21323e-06
5.9478e-07
-4.4954e-06
5.49746e-07
-4.75132e-06
4.98446e-07
-4.97815e-06
4.41546e-07
-5.1734e-06
3.79749e-07
-5.33496e-06
3.1375e-07
-5.46103e-06
2.44258e-07
-5.55014e-06
1.71938e-07
-5.60114e-06
9.72696e-08
-5.61311e-06
2.08086e-08
-5.58541e-06
-5.69846e-08
-5.51748e-06
-1.35828e-07
-5.40883e-06
-2.157e-07
-5.25892e-06
-2.96684e-07
-5.06715e-06
-3.78886e-07
-4.83294e-06
-4.6229e-07
-4.55568e-06
-5.47051e-07
-4.23498e-06
-6.32895e-07
-3.87103e-06
-7.18669e-07
-3.46538e-06
-8.01854e-07
-3.02166e-06
-8.78197e-07
-2.54674e-06
-9.41242e-07
-2.05195e-06
-9.8159e-07
-1.55438e-06
-9.86836e-07
-1.07755e-06
-9.42316e-07
-6.5095e-07
-8.33555e-07
-3.08101e-07
-6.50869e-07
-8.23228e-08
-3.98943e-07
-1.15856e-07
1.14936e-07
-2.29209e-07
4.07855e-07
-6.82247e-07
8.34676e-07
-1.06252e-06
1.35364e-06
-1.33447e-06
1.92631e-06
-1.49627e-06
2.52029e-06
-1.56298e-06
3.11007e-06
-1.55573e-06
3.67696e-06
-1.4953e-06
4.2083e-06
-1.39988e-06
4.69592e-06
-1.28288e-06
5.13524e-06
-1.15393e-06
5.52427e-06
-1.02016e-06
5.86238e-06
-8.85081e-07
6.14941e-06
-7.4979e-07
6.38551e-06
-6.15595e-07
6.57127e-06
-4.84171e-07
6.70767e-06
-3.56032e-07
6.79595e-06
-2.30928e-07
6.83717e-06
-1.08146e-07
6.83221e-06
1.27339e-08
6.78193e-06
1.3147e-07
6.68731e-06
2.47518e-07
6.54952e-06
3.60197e-07
6.37002e-06
4.68873e-07
6.1505e-06
5.7294e-07
5.893e-06
6.71598e-07
5.59996e-06
7.63746e-07
5.27424e-06
8.4817e-07
4.91919e-06
9.23694e-07
4.53854e-06
9.89379e-07
4.13635e-06
1.04462e-06
3.71678e-06
1.08925e-06
3.28389e-06
1.12359e-06
2.84143e-06
1.14838e-06
2.39272e-06
1.16482e-06
1.94043e-06
1.17451e-06
1.48646e-06
1.17927e-06
1.03199e-06
1.1809e-06
5.77529e-07
1.18108e-06
1.23044e-07
1.1813e-06
-3.31819e-07
1.18238e-06
-7.87538e-07
1.18444e-06
-1.2444e-06
1.18701e-06
-1.70218e-06
1.18867e-06
-2.16e-06
1.18792e-06
-2.61619e-06
1.18304e-06
-3.06833e-06
1.17215e-06
-3.51334e-06
1.15338e-06
-3.94746e-06
1.1249e-06
-4.36648e-06
1.08538e-06
-4.76588e-06
1.03432e-06
-5.14119e-06
9.71809e-07
-5.48817e-06
8.98341e-07
-5.803e-06
8.14752e-07
-6.08217e-06
7.22059e-07
-6.32265e-06
6.21415e-07
-6.52189e-06
5.13998e-07
-6.67772e-06
4.00927e-07
-6.78839e-06
2.83258e-07
-6.85251e-06
1.61867e-07
-6.86904e-06
3.7616e-08
-6.83716e-06
-8.87852e-08
-6.75623e-06
-2.16894e-07
-6.62568e-06
-3.46604e-07
-6.44491e-06
-4.78015e-07
-6.21326e-06
-6.11296e-07
-5.93001e-06
-7.46485e-07
-5.59452e-06
-8.83651e-07
-5.20646e-06
-1.02222e-06
-4.76628e-06
-1.16026e-06
-4.27597e-06
-1.29373e-06
-3.73996e-06
-1.41591e-06
-3.1663e-06
-1.51673e-06
-2.56803e-06
-1.5818e-06
-1.96435e-06
-1.59255e-06
-1.38155e-06
-1.52733e-06
-8.52862e-07
-1.36473e-06
-4.17454e-07
-1.08897e-06
-1.18579e-07
-7.00836e-07
-2.36167e-07
1.38303e-07
-3.68414e-07
4.8317e-07
-1.02945e-06
9.76823e-07
-1.55849e-06
1.5688e-06
-1.92873e-06
2.21585e-06
-2.14578e-06
2.8829e-06
-2.23259e-06
3.54292e-06
-2.21833e-06
4.17631e-06
-2.13129e-06
4.76978e-06
-1.99597e-06
5.31451e-06
-1.83026e-06
5.8054e-06
-1.64742e-06
6.24027e-06
-1.45752e-06
6.61841e-06
-1.26555e-06
6.93973e-06
-1.0732e-06
7.20434e-06
-8.81969e-07
7.41258e-06
-6.93826e-07
7.56532e-06
-5.09904e-07
7.66386e-06
-3.30374e-07
7.70953e-06
-1.54506e-07
7.70351e-06
1.83102e-08
7.64684e-06
1.87972e-07
7.54061e-06
3.53876e-07
7.38604e-06
5.15174e-07
7.18462e-06
6.70955e-07
6.93818e-06
8.20279e-07
6.64894e-06
9.61975e-07
6.31954e-06
1.0945e-06
5.95314e-06
1.21614e-06
5.55339e-06
1.32523e-06
5.12448e-06
1.4203e-06
4.67105e-06
1.50024e-06
4.19799e-06
1.56469e-06
3.71012e-06
1.614e-06
3.21192e-06
1.64928e-06
2.70729e-06
1.67227e-06
2.19934e-06
1.68539e-06
1.69018e-06
1.69144e-06
1.18107e-06
1.69312e-06
6.72424e-07
1.6929e-06
1.64074e-07
1.69287e-06
-3.44607e-07
1.69429e-06
-8.5438e-07
1.69745e-06
-1.36586e-06
1.7017e-06
-1.87911e-06
1.70507e-06
-2.39332e-06
1.70522e-06
-2.90661e-06
1.69936e-06
-3.41619e-06
1.68466e-06
-3.91839e-06
1.6584e-06
-4.40881e-06
1.61799e-06
-4.8825e-06
1.5616e-06
-5.33423e-06
1.48844e-06
-5.75882e-06
1.39861e-06
-6.15136e-06
1.29292e-06
-6.50746e-06
1.17269e-06
-6.82324e-06
1.03945e-06
-7.09536e-06
8.94911e-07
-7.321e-06
7.40762e-07
-7.49784e-06
5.78624e-07
-7.62399e-06
4.09989e-07
-7.69794e-06
2.36128e-07
-7.71851e-06
5.82299e-08
-7.68481e-06
-1.22719e-07
-7.59614e-06
-3.06081e-07
-7.45186e-06
-4.91692e-07
-7.25129e-06
-6.7968e-07
-6.99371e-06
-8.70258e-07
-6.6784e-06
-1.06345e-06
-6.30475e-06
-1.25919e-06
-5.87253e-06
-1.45654e-06
-5.38237e-06
-1.6527e-06
-4.83657e-06
-1.84197e-06
-4.23999e-06
-2.01507e-06
-3.60115e-06
-2.15828e-06
-2.93362e-06
-2.25215e-06
-2.25747e-06
-2.27167e-06
-1.60031e-06
-2.18758e-06
-9.98116e-07
-1.97017e-06
-4.95293e-07
-1.5953e-06
-1.43289e-07
-1.05661e-06
-3.81175e-07
1.53138e-07
-5.22725e-07
5.33024e-07
-1.4122e-06
1.07289e-06
-2.10118e-06
1.71549e-06
-2.57411e-06
2.41363e-06
-2.84682e-06
3.13018e-06
-2.95211e-06
3.83717e-06
-2.92827e-06
4.51466e-06
-2.81171e-06
5.14921e-06
-2.6335e-06
5.73177e-06
-2.41586e-06
6.25685e-06
-2.17554e-06
6.72193e-06
-1.92557e-06
7.12627e-06
-1.67273e-06
7.4699e-06
-1.41944e-06
7.753e-06
-1.16731e-06
7.97585e-06
-9.18468e-07
8.13932e-06
-6.7472e-07
8.24462e-06
-4.3666e-07
8.29321e-06
-2.03765e-07
8.28652e-06
2.46354e-08
8.22578e-06
2.48658e-07
8.11214e-06
4.67772e-07
7.94684e-06
6.81046e-07
7.73136e-06
8.87315e-07
7.46751e-06
1.08529e-06
7.15751e-06
1.2734e-06
6.80408e-06
1.44962e-06
6.41048e-06
1.6117e-06
5.98052e-06
1.7574e-06
5.51869e-06
1.88457e-06
5.03013e-06
1.99145e-06
4.52038e-06
2.0773e-06
3.99497e-06
2.14246e-06
3.4591e-06
2.18837e-06
2.91722e-06
2.21748e-06
2.37283e-06
2.23323e-06
1.82827e-06
2.23954e-06
1.28475e-06
2.24025e-06
7.42538e-07
2.23878e-06
2.01129e-07
2.23801e-06
-3.40485e-07
2.23966e-06
-8.83503e-07
2.24421e-06
-1.42896e-06
2.25087e-06
-1.97731e-06
2.25708e-06
-2.52795e-06
2.25945e-06
-3.07907e-06
2.254e-06
-3.62752e-06
2.23652e-06
-4.16913e-06
2.20329e-06
-4.69882e-06
2.1508e-06
-5.21089e-06
2.07659e-06
-5.69933e-06
1.9796e-06
-6.15831e-06
1.86009e-06
-6.58243e-06
1.71932e-06
-6.96693e-06
1.55922e-06
-7.30767e-06
1.38198e-06
-7.60121e-06
1.18994e-06
-7.84464e-06
9.8539e-07
-8.03563e-06
7.70477e-07
-8.17222e-06
5.47121e-07
-8.25288e-06
3.17008e-07
-8.2764e-06
8.16486e-08
-8.2418e-06
-1.57724e-07
-8.14832e-06
-4.0028e-07
-7.99527e-06
-6.45778e-07
-7.78192e-06
-8.94387e-07
-7.50756e-06
-1.1463e-06
-7.17147e-06
-1.40152e-06
-6.77312e-06
-1.6598e-06
-6.31246e-06
-1.91969e-06
-5.79035e-06
-2.17751e-06
-5.20931e-06
-2.42588e-06
-4.57424e-06
-2.65316e-06
-3.89371e-06
-2.842e-06
-3.18125e-06
-2.968e-06
-2.45706e-06
-2.99949e-06
-1.74948e-06
-2.89898e-06
-1.09651e-06
-2.62699e-06
-5.4665e-07
-2.14918e-06
-1.57993e-07
-1.44932e-06
-5.41053e-07
1.62319e-07
-6.86551e-07
5.65369e-07
-1.81844e-06
1.13672e-06
-2.67558e-06
1.81405e-06
-3.25439e-06
2.54714e-06
-3.58288e-06
3.29741e-06
-3.70535e-06
4.0363e-06
-3.67e-06
4.74386e-06
-3.52198e-06
5.40675e-06
-3.29911e-06
6.01576e-06
-3.02773e-06
6.56509e-06
-2.72786e-06
7.05161e-06
-2.41516e-06
7.47444e-06
-2.09866e-06
7.83357e-06
-1.78164e-06
8.12929e-06
-1.46588e-06
8.36209e-06
-1.15375e-06
8.53286e-06
-8.47541e-07
8.64291e-06
-5.4834e-07
8.69378e-06
-2.55887e-07
8.68703e-06
3.04999e-08
8.62403e-06
3.11124e-07
8.50601e-06
5.85613e-07
8.33424e-06
8.5302e-07
8.1101e-06
1.11201e-06
7.83529e-06
1.36102e-06
7.51189e-06
1.59804e-06
7.14249e-06
1.82057e-06
6.7303e-06
2.02576e-06
6.2792e-06
2.21067e-06
5.79386e-06
2.37234e-06
5.27986e-06
2.50815e-06
4.74333e-06
2.61676e-06
4.19057e-06
2.69839e-06
3.62756e-06
2.75476e-06
3.05942e-06
2.78917e-06
2.4901e-06
2.80624e-06
1.92214e-06
2.8113e-06
1.35669e-06
2.80959e-06
7.93733e-07
2.80573e-06
2.32271e-07
2.80354e-06
-3.29228e-07
2.80528e-06
-8.92535e-07
2.81167e-06
-1.45917e-06
2.82166e-06
-2.03006e-06
2.83209e-06
-2.60498e-06
2.83844e-06
-3.18224e-06
2.83528e-06
-3.75855e-06
2.81678e-06
-4.3291e-06
2.77768e-06
-4.88801e-06
2.7134e-06
-5.4287e-06
2.62078e-06
-5.94436e-06
2.49854e-06
-6.42844e-06
2.34723e-06
-6.87512e-06
2.1688e-06
-7.2794e-06
1.96605e-06
-7.63715e-06
1.742e-06
-7.94493e-06
1.4997e-06
-8.19991e-06
1.24203e-06
-8.39979e-06
9.71665e-07
-8.54268e-06
6.90946e-07
-8.62705e-06
4.01934e-07
-8.65168e-06
1.06485e-07
-8.61561e-06
-1.93947e-07
-8.51803e-06
-4.98343e-07
-8.35823e-06
-8.06412e-07
-8.13543e-06
-1.11835e-06
-7.84893e-06
-1.43431e-06
-7.49806e-06
-1.75423e-06
-7.08249e-06
-2.07752e-06
-6.60243e-06
-2.40217e-06
-6.05906e-06
-2.72352e-06
-5.45498e-06
-3.03281e-06
-4.79505e-06
-3.31613e-06
-4.08758e-06
-3.55273e-06
-3.34584e-06
-3.71332e-06
-2.58986e-06
-3.75939e-06
-1.84841e-06
-3.64458e-06
-1.16082e-06
-3.31867e-06
-5.78632e-07
-2.73553e-06
-1.65851e-07
-1.86618e-06
-7.09089e-07
1.68408e-07
-8.56715e-07
5.87868e-07
-2.241e-06
1.18174e-06
-3.27228e-06
1.88401e-06
-3.95934e-06
2.64236e-06
-4.34376e-06
3.41729e-06
-4.48273e-06
4.17991e-06
-4.43482e-06
4.91051e-06
-4.25443e-06
5.59589e-06
-3.98617e-06
6.22668e-06
-3.66032e-06
6.79661e-06
-3.29979e-06
7.30186e-06
-2.92262e-06
7.74085e-06
-2.54012e-06
8.11336e-06
-2.15683e-06
8.41975e-06
-1.77504e-06
8.66074e-06
-1.3974e-06
8.83753e-06
-1.02675e-06
8.95165e-06
-6.64589e-07
9.00487e-06
-3.10926e-07
8.99886e-06
3.50012e-08
8.93508e-06
3.73706e-07
8.81484e-06
7.04999e-07
8.63936e-06
1.028e-06
8.40995e-06
1.34129e-06
8.12809e-06
1.64309e-06
7.79559e-06
1.9311e-06
7.41472e-06
2.20233e-06
6.98847e-06
2.45321e-06
6.52065e-06
2.67999e-06
6.01607e-06
2.87871e-06
5.48061e-06
3.04563e-06
4.9211e-06
3.17855e-06
4.34468e-06
3.27732e-06
3.75832e-06
3.34389e-06
3.16804e-06
3.38243e-06
2.57837e-06
3.39906e-06
1.99208e-06
3.4009e-06
1.41017e-06
3.39492e-06
8.32201e-07
3.38724e-06
2.56616e-07
3.38276e-06
-3.18813e-07
3.38443e-06
-8.96508e-07
3.39316e-06
-1.47862e-06
3.40761e-06
-2.06662e-06
3.42393e-06
-2.66077e-06
3.43641e-06
-3.25953e-06
3.43783e-06
-3.85946e-06
3.42048e-06
-4.45505e-06
3.37699e-06
-5.03939e-06
3.30137e-06
-5.60478e-06
3.18969e-06
-6.14344e-06
3.04055e-06
-6.6481e-06
2.85504e-06
-7.11249e-06
2.63616e-06
-7.53158e-06
2.38789e-06
-7.90137e-06
2.11433e-06
-8.21871e-06
1.81933e-06
-8.48095e-06
1.50631e-06
-8.68589e-06
1.17834e-06
-8.83167e-06
8.38144e-07
-8.91684e-06
4.88156e-07
-8.9402e-06
1.30554e-07
-8.90082e-06
-2.32944e-07
-8.79795e-06
-6.01165e-07
-8.63083e-06
-9.73794e-07
-8.39872e-06
-1.35102e-06
-8.10092e-06
-1.73298e-06
-7.7369e-06
-2.11941e-06
-7.30661e-06
-2.50926e-06
-6.81055e-06
-2.89991e-06
-6.25025e-06
-3.28573e-06
-5.62845e-06
-3.65672e-06
-4.95001e-06
-3.99691e-06
-4.223e-06
-4.28234e-06
-3.46034e-06
-4.47891e-06
-2.68183e-06
-4.54118e-06
-1.91637e-06
-4.41352e-06
-1.20411e-06
-4.03426e-06
-5.99248e-07
-3.34377e-06
-1.71138e-07
-2.29783e-06
-8.8167e-07
1.73507e-07
-1.03196e-06
6.06703e-07
-2.67663e-06
1.21902e-06
-3.88668e-06
1.94175e-06
-4.68393e-06
2.72121e-06
-5.12472e-06
3.51743e-06
-5.28035e-06
4.30136e-06
-5.21976e-06
5.05371e-06
-5.00712e-06
5.76131e-06
-4.69352e-06
6.41451e-06
-4.31309e-06
7.00647e-06
-3.89137e-06
7.53239e-06
-3.44836e-06
7.98959e-06
-2.99746e-06
8.37714e-06
-2.5449e-06
8.69536e-06
-2.09408e-06
8.9453e-06
-1.64835e-06
9.12866e-06
-1.21115e-06
9.24743e-06
-7.84376e-07
9.30376e-06
-3.68208e-07
9.29954e-06
3.83593e-08
9.23632e-06
4.36164e-07
9.11538e-06
8.25301e-07
8.9379e-06
1.205e-06
8.70507e-06
1.5738e-06
8.41813e-06
1.92989e-06
8.0785e-06
2.27078e-06
7.68794e-06
2.59308e-06
7.24898e-06
2.89253e-06
6.76518e-06
3.1643e-06
6.24138e-06
3.40316e-06
5.68381e-06
3.60392e-06
5.1e-06
3.76318e-06
4.49822e-06
3.88003e-06
3.88671e-06
3.95646e-06
3.27268e-06
3.99766e-06
2.66143e-06
4.01164e-06
2.05595e-06
4.00778e-06
1.45708e-06
3.99526e-06
8.6385e-07
3.98197e-06
2.7405e-07
3.97411e-06
-3.15308e-07
3.97538e-06
-9.07454e-07
3.98693e-06
-1.50528e-06
4.00707e-06
-2.11091e-06
4.03118e-06
-2.72514e-06
4.05222e-06
-3.34668e-06
4.06091e-06
-3.97172e-06
4.04703e-06
-4.59398e-06
4.00074e-06
-5.2052e-06
3.91407e-06
-5.79622e-06
3.78215e-06
-6.35801e-06
3.60371e-06
-6.88248e-06
3.38081e-06
-7.36304e-06
3.11795e-06
-7.79474e-06
2.82074e-06
-8.17399e-06
2.49466e-06
-8.49817e-06
2.14452e-06
-8.76501e-06
1.7741e-06
-8.97235e-06
1.38657e-06
-9.11836e-06
9.84907e-07
-9.20157e-06
5.7197e-07
-9.22087e-06
1.50287e-07
-9.17543e-06
-2.7811e-07
-9.0646e-06
-7.1188e-07
-8.88769e-06
-1.15074e-06
-8.64397e-06
-1.59489e-06
-8.33278e-06
-2.04444e-06
-7.95379e-06
-2.49878e-06
-7.50716e-06
-2.95634e-06
-6.99386e-06
-3.41374e-06
-6.41575e-06
-3.86441e-06
-5.77596e-06
-4.29716e-06
-5.07949e-06
-4.69413e-06
-4.33436e-06
-5.02837e-06
-3.55328e-06
-5.26108e-06
-2.75574e-06
-5.34e-06
-1.97055e-06
-5.20002e-06
-1.23858e-06
-4.76725e-06
-6.16468e-07
-3.96696e-06
-1.77229e-07
-2.7385e-06
-1.05753e-06
1.79167e-07
-1.2125e-06
6.26317e-07
-3.12507e-06
1.25691e-06
-4.5182e-06
2.00003e-06
-5.42775e-06
2.80118e-06
-5.92589e-06
3.62e-06
-6.0992e-06
4.42752e-06
-6.02699e-06
5.2049e-06
-5.78333e-06
5.93882e-06
-5.42519e-06
6.61916e-06
-4.99045e-06
7.23813e-06
-4.50701e-06
7.78985e-06
-3.99669e-06
8.2701e-06
-3.47453e-06
8.67688e-06
-2.94888e-06
9.01019e-06
-2.42501e-06
9.27153e-06
-1.90766e-06
9.46328e-06
-1.40114e-06
9.58825e-06
-9.07813e-07
9.64909e-06
-4.27735e-07
9.648e-06
4.05539e-08
9.5866e-06
4.98462e-07
9.46608e-06
9.46521e-07
9.28751e-06
1.38408e-06
9.05202e-06
1.80964e-06
8.76066e-06
2.22146e-06
8.41435e-06
2.61714e-06
8.01411e-06
2.99323e-06
7.56164e-06
3.34476e-06
7.05997e-06
3.66561e-06
6.5139e-06
3.94873e-06
5.93004e-06
4.18711e-06
5.31674e-06
4.37559e-06
4.68372e-06
4.512e-06
4.04091e-06
4.59813e-06
3.39701e-06
4.64033e-06
2.75829e-06
4.64905e-06
2.12811e-06
4.63659e-06
1.50705e-06
4.61486e-06
8.9353e-07
4.59395e-06
2.84569e-07
4.58145e-06
-3.23598e-07
4.58183e-06
-9.3502e-07
4.59657e-06
-1.5534e-06
4.62359e-06
-2.18169e-06
4.65753e-06
-2.82128e-06
4.68977e-06
-3.47117e-06
4.70866e-06
-4.12723e-06
4.70088e-06
-4.78204e-06
4.65331e-06
-5.42562e-06
4.55542e-06
-6.04689e-06
4.4012e-06
-6.63519e-06
4.18982e-06
-7.18148e-06
3.92493e-06
-7.67889e-06
3.61325e-06
-8.12285e-06
3.26266e-06
-8.51055e-06
2.88045e-06
-8.84021e-06
2.47241e-06
-9.11012e-06
2.04244e-06
-9.3182e-06
1.5933e-06
-9.46246e-06
1.12802e-06
-9.54129e-06
6.49803e-07
-9.55362e-06
1.61782e-07
-9.49884e-06
-3.33577e-07
-9.37648e-06
-8.34783e-07
-9.18601e-06
-1.34159e-06
-8.92675e-06
-1.85438e-06
-8.59805e-06
-2.37316e-06
-8.19965e-06
-2.89701e-06
-7.73204e-06
-3.42357e-06
-7.19665e-06
-3.94852e-06
-6.59594e-06
-4.46429e-06
-5.93362e-06
-4.95845e-06
-5.21515e-06
-5.41142e-06
-4.44882e-06
-5.79343e-06
-3.64725e-06
-6.0613e-06
-2.82972e-06
-6.15607e-06
-2.02485e-06
-6.00323e-06
-1.27426e-06
-5.51582e-06
-6.36217e-07
-4.6029e-06
-1.84359e-07
-3.1881e-06
-1.23751e-06
1.86336e-07
-1.39956e-06
6.49765e-07
-3.58841e-06
1.30159e-06
-5.16968e-06
2.06865e-06
-6.19443e-06
2.89599e-06
-6.75176e-06
3.74239e-06
-6.94451e-06
4.57922e-06
-6.86299e-06
5.38804e-06
-6.59075e-06
6.15533e-06
-6.18996e-06
6.87015e-06
-5.70171e-06
7.52343e-06
-5.15599e-06
8.10772e-06
-4.57631e-06
8.61716e-06
-3.97934e-06
9.04846e-06
-3.37587e-06
9.40106e-06
-2.77374e-06
9.6769e-06
-2.18005e-06
9.87945e-06
-1.60061e-06
1.00126e-05
-1.03823e-06
1.00798e-05
-4.92501e-07
1.00835e-05
3.89423e-08
1.00252e-05
5.58463e-07
9.90598e-06
1.06713e-06
9.72676e-06
1.56431e-06
9.48873e-06
2.04832e-06
9.19288e-06
2.51761e-06
8.83958e-06
2.97044e-06
8.42877e-06
3.4037e-06
7.96095e-06
3.81193e-06
7.43818e-06
4.18746e-06
6.86497e-06
4.52078e-06
6.24829e-06
4.80233e-06
5.59764e-06
5.02444e-06
4.92451e-06
5.183e-06
4.24104e-06
5.27921e-06
3.55793e-06
5.32084e-06
2.88277e-06
5.32146e-06
2.21919e-06
5.29727e-06
1.56734e-06
5.26367e-06
9.24834e-07
5.23329e-06
2.87962e-07
5.21503e-06
-3.47709e-07
5.21411e-06
-9.86882e-07
5.23226e-06
-1.63403e-06
5.26719e-06
-2.293e-06
5.31286e-06
-2.96605e-06
5.35907e-06
-3.65271e-06
5.39148e-06
-4.34858e-06
5.39281e-06
-5.04477e-06
5.34554e-06
-5.72897e-06
5.23564e-06
-6.38755e-06
5.05586e-06
-7.00775e-06
4.80613e-06
-7.57929e-06
4.49265e-06
-8.09522e-06
4.12545e-06
-8.55177e-06
3.7156e-06
-8.94749e-06
3.2727e-06
-9.28189e-06
2.80356e-06
-9.55406e-06
2.31164e-06
-9.76201e-06
1.79865e-06
-9.90319e-06
1.26699e-06
-9.97555e-06
7.20308e-07
-9.97806e-06
1.62784e-07
-9.91045e-06
-4.02333e-07
-9.77262e-06
-9.73413e-07
-9.5643e-06
-1.55038e-06
-9.28479e-06
-2.13401e-06
-8.93335e-06
-2.72436e-06
-8.50969e-06
-3.32007e-06
-8.01461e-06
-3.91771e-06
-7.4501e-06
-4.51173e-06
-6.81946e-06
-5.09329e-06
-6.12728e-06
-5.64868e-06
-5.3799e-06
-6.15661e-06
-4.58615e-06
-6.58476e-06
-3.75892e-06
-6.88592e-06
-2.91731e-06
-6.99486e-06
-2.08973e-06
-6.82775e-06
-1.31813e-06
-6.28405e-06
-6.60927e-07
-5.25643e-06
-1.90847e-07
-3.65329e-06
-1.42506e-06
1.95616e-07
-1.59513e-06
6.79518e-07
-4.07104e-06
1.35828e-06
-5.84708e-06
2.15548e-06
-6.99103e-06
3.01628e-06
-7.61026e-06
3.89748e-06
-7.82429e-06
4.77092e-06
-7.73643e-06
5.61875e-06
-7.43907e-06
6.42742e-06
-6.99877e-06
7.18499e-06
-6.4587e-06
7.88071e-06
-5.85035e-06
8.50496e-06
-5.19865e-06
9.05002e-06
-4.5223e-06
9.5111e-06
-3.83499e-06
9.88704e-06
-3.14801e-06
1.01803e-05
-2.47193e-06
1.03959e-05
-1.81508e-06
1.05393e-05
-1.18076e-06
1.06149e-05
-5.67436e-07
1.06254e-05
2.90541e-08
1.05718e-05
6.12488e-07
1.04547e-05
1.18452e-06
1.0275e-05
1.7441e-06
1.00342e-05
2.28898e-06
9.73365e-06
2.81793e-06
9.37304e-06
3.33062e-06
8.95091e-06
3.82525e-06
8.4659e-06
4.29618e-06
7.91865e-06
4.73386e-06
7.31296e-06
5.1256e-06
6.6561e-06
5.45821e-06
5.9589e-06
5.72052e-06
5.23512e-06
5.90549e-06
4.49985e-06
6.01308e-06
3.76661e-06
6.05259e-06
3.04447e-06
6.04206e-06
2.33706e-06
6.00313e-06
1.64363e-06
5.95555e-06
9.60901e-07
5.9145e-06
2.845e-07
5.88995e-06
-3.90319e-07
5.88748e-06
-1.06849e-06
5.90903e-06
-1.75493e-06
5.95227e-06
-2.45437e-06
6.01096e-06
-3.17036e-06
6.07372e-06
-3.90354e-06
6.12328e-06
-4.64948e-06
6.13733e-06
-5.3975e-06
6.09212e-06
-6.13208e-06
5.96877e-06
-6.83609e-06
5.75843e-06
-7.49404e-06
5.46265e-06
-8.09429e-06
5.09146e-06
-8.63009e-06
4.65978e-06
-9.09914e-06
4.18316e-06
-9.50214e-06
3.6742e-06
-9.84065e-06
3.14058e-06
-1.01148e-05
2.58439e-06
-1.03223e-05
2.00497e-06
-1.04594e-05
1.40321e-06
-1.05234e-05
7.83547e-07
-1.05131e-05
1.5206e-07
-1.04291e-05
-4.86607e-07
-1.02719e-05
-1.13058e-06
-1.00417e-05
-1.78043e-06
-9.73751e-06
-2.43779e-06
-9.35816e-06
-3.10308e-06
-8.90322e-06
-3.77419e-06
-8.3737e-06
-4.4463e-06
-7.77234e-06
-5.11204e-06
-7.10354e-06
-5.76094e-06
-6.37318e-06
-6.37781e-06
-5.58869e-06
-6.93982e-06
-4.75996e-06
-7.4122e-06
-3.90038e-06
-7.74425e-06
-3.02884e-06
-7.86517e-06
-2.17322e-06
-7.68213e-06
-1.37481e-06
-7.08104e-06
-6.91141e-07
-5.93821e-06
-1.97722e-07
-4.14355e-06
-1.62522e-06
2.07666e-07
-1.80215e-06
7.18264e-07
-4.5799e-06
1.43227e-06
-6.55923e-06
2.26762e-06
-7.82686e-06
3.17e-06
-8.51062e-06
4.09341e-06
-8.74639e-06
5.01015e-06
-8.6542e-06
5.90333e-06
-8.33495e-06
6.75997e-06
-7.8588e-06
7.5674e-06
-7.26945e-06
8.31266e-06
-6.5984e-06
8.98359e-06
-5.87174e-06
9.57005e-06
-5.11047e-06
1.00655e-05
-4.33198e-06
1.0468e-05
-3.55197e-06
1.07806e-05
-2.78612e-06
1.10108e-05
-2.04679e-06
1.11664e-05
-1.33797e-06
1.12531e-05
-6.55547e-07
1.1273e-05
7.84786e-09
1.12261e-05
6.58162e-07
1.11122e-05
1.29746e-06
1.0932e-05
1.92336e-06
1.06883e-05
2.53202e-06
1.0383e-05
3.12256e-06
1.00156e-05
3.69756e-06
9.58244e-06
4.25805e-06
9.07955e-06
4.79878e-06
8.50551e-06
5.30781e-06
7.8631e-06
5.76817e-06
7.15968e-06
6.16201e-06
6.40727e-06
6.47346e-06
5.62237e-06
6.69102e-06
4.82411e-06
6.81207e-06
4.02979e-06
6.84775e-06
3.25014e-06
6.82265e-06
2.48814e-06
6.76623e-06
1.74136e-06
6.70355e-06
1.00537e-06
6.65186e-06
2.75522e-07
6.62131e-06
-4.52574e-07
6.61723e-06
-1.18319e-06
6.64146e-06
-1.92102e-06
6.69206e-06
-2.67145e-06
6.76345e-06
-3.43986e-06
6.84426e-06
-4.22901e-06
6.91456e-06
-5.03515e-06
6.94559e-06
-5.84548e-06
6.90455e-06
-6.64008e-06
6.76543e-06
-7.3971e-06
6.51749e-06
-8.09765e-06
6.16521e-06
-8.72873e-06
5.72448e-06
-9.28424e-06
5.21712e-06
-9.76422e-06
4.66482e-06
-1.01726e-05
4.08411e-06
-1.05141e-05
3.48329e-06
-1.07901e-05
2.86147e-06
-1.09973e-05
2.21318e-06
-1.11298e-05
1.53668e-06
-1.11833e-05
8.37948e-07
-1.11571e-05
1.26723e-07
-1.10529e-05
-5.89939e-07
-1.08728e-05
-1.30992e-06
-1.06173e-05
-2.03526e-06
-1.0285e-05
-2.76944e-06
-9.87383e-06
-3.51366e-06
-9.38275e-06
-4.26481e-06
-8.8129e-06
-5.01586e-06
-8.16801e-06
-5.75693e-06
-7.45389e-06
-6.47532e-06
-6.67795e-06
-7.15427e-06
-5.84913e-06
-7.76937e-06
-4.97852e-06
-8.28379e-06
-4.08026e-06
-8.64384e-06
-3.17276e-06
-8.77428e-06
-2.28236e-06
-8.57426e-06
-1.44844e-06
-7.91647e-06
-7.29094e-07
-6.65869e-06
-2.09655e-07
-4.66514e-06
-1.84069e-06
2.23713e-07
-2.02505e-06
7.69766e-07
-5.12477e-06
1.52997e-06
-7.31744e-06
2.4131e-06
-8.71234e-06
3.36401e-06
-9.46046e-06
4.33467e-06
-9.71526e-06
5.29765e-06
-9.61701e-06
6.23828e-06
-9.27712e-06
7.14531e-06
-8.76849e-06
8.00595e-06
-8.13311e-06
8.80463e-06
-7.39985e-06
9.52597e-06
-6.59538e-06
1.01575e-05
-5.74384e-06
1.06904e-05
-4.86644e-06
1.11212e-05
-3.98424e-06
1.1454e-05
-3.1203e-06
1.16995e-05
-2.29371e-06
1.18694e-05
-1.5093e-06
1.19704e-05
-7.57909e-07
1.20036e-05
-2.65417e-08
1.19667e-05
6.93986e-07
1.18576e-05
1.40571e-06
1.16771e-05
2.10312e-06
1.143e-05
2.77858e-06
1.11209e-05
3.43136e-06
1.07487e-05
4.06966e-06
1.03068e-05
4.69992e-06
9.78765e-06
5.31795e-06
9.18713e-06
5.90858e-06
8.50677e-06
6.44907e-06
7.75359e-06
6.916e-06
6.94014e-06
7.28792e-06
6.08578e-06
7.54653e-06
5.215e-06
7.68413e-06
4.35046e-06
7.71364e-06
3.50457e-06
7.66993e-06
2.67827e-06
7.59398e-06
1.8662e-06
7.51707e-06
1.06243e-06
7.45711e-06
2.62875e-07
7.42235e-06
-5.35111e-07
7.41671e-06
-1.33378e-06
7.44169e-06
-2.13623e-06
7.49615e-06
-2.94787e-06
7.57681e-06
-3.77657e-06
7.67471e-06
-4.62886e-06
7.76864e-06
-5.50322e-06
7.82175e-06
-6.38439e-06
7.78752e-06
-7.24632e-06
7.62919e-06
-8.06128e-06
7.3343e-06
-8.80636e-06
6.9122e-06
-9.46724e-06
6.38736e-06
-1.00393e-05
5.79123e-06
-1.0526e-05
5.15352e-06
-1.09358e-05
4.49586e-06
-1.12778e-05
3.82707e-06
-1.15555e-05
3.14068e-06
-1.17633e-05
2.42229e-06
-1.18908e-05
1.66547e-06
-1.19315e-05
8.79705e-07
-1.18855e-05
8.17178e-08
-1.17573e-05
-7.17389e-07
-1.1551e-05
-1.51551e-06
-1.12681e-05
-2.3177e-06
-1.09063e-05
-3.13099e-06
-1.04616e-05
-3.95814e-06
-9.93184e-06
-4.79441e-06
-9.3184e-06
-5.62938e-06
-8.62614e-06
-6.44959e-06
-7.86269e-06
-7.23956e-06
-7.03723e-06
-7.98081e-06
-6.16033e-06
-8.64754e-06
-5.24426e-06
-9.20129e-06
-4.30382e-06
-9.58599e-06
-3.35619e-06
-9.72379e-06
-2.42431e-06
-9.50788e-06
-1.54503e-06
-8.79702e-06
-7.80658e-07
-7.42447e-06
-2.29255e-07
-5.22179e-06
-2.07102e-06
2.46445e-07
-2.27103e-06
8.40962e-07
-5.71947e-06
1.66078e-06
-8.13527e-06
2.60282e-06
-9.65784e-06
3.6066e-06
-1.04641e-05
4.62381e-06
-1.07301e-05
5.6279e-06
-1.06186e-05
6.60912e-06
-1.02565e-05
7.56103e-06
-9.71932e-06
8.47128e-06
-9.04271e-06
9.32069e-06
-8.24863e-06
1.00905e-05
-7.36439e-06
1.07666e-05
-6.41894e-06
1.13376e-05
-5.43645e-06
1.17973e-05
-4.44287e-06
1.21496e-05
-3.47173e-06
1.24107e-05
-2.55411e-06
1.25977e-05
-1.6958e-06
1.27183e-05
-8.78182e-07
1.27708e-05
-7.88353e-08
1.27491e-05
7.15885e-07
1.26476e-05
1.50729e-06
1.24671e-05
2.28366e-06
1.22165e-05
3.02928e-06
1.19053e-05
3.74265e-06
1.15323e-05
4.44269e-06
1.10869e-05
5.14548e-06
1.05566e-05
5.84822e-06
9.93407e-06
6.53098e-06
9.21965e-06
7.16351e-06
8.41949e-06
7.71628e-06
7.54515e-06
8.16239e-06
6.61774e-06
8.47402e-06
5.66884e-06
8.63306e-06
4.72896e-06
8.65345e-06
3.81186e-06
8.58674e-06
2.9139e-06
8.49148e-06
2.02476e-06
8.40553e-06
1.13692e-06
8.34406e-06
2.48492e-07
8.30962e-06
-6.39191e-07
8.30301e-06
-1.52431e-06
8.32529e-06
-2.406e-06
8.37631e-06
-3.28817e-06
8.4575e-06
-4.18172e-06
8.56683e-06
-5.09957e-06
8.68513e-06
-6.04534e-06
8.76622e-06
-7.00107e-06
8.74206e-06
-7.93225e-06
8.5593e-06
-8.80408e-06
8.20522e-06
-9.58967e-06
7.69706e-06
-1.02739e-05
7.07113e-06
-1.08546e-05
6.37185e-06
-1.13399e-05
5.63895e-06
-1.17439e-05
4.90017e-06
-1.20823e-05
4.16575e-06
-1.23615e-05
3.42013e-06
-1.25716e-05
2.63243e-06
-1.26943e-05
1.78827e-06
-1.27194e-05
9.04848e-07
-1.2649e-05
1.14083e-08
-1.24924e-05
-8.74091e-07
-1.22574e-05
-1.75045e-06