/*--------------------------------*- C++ -*----------------------------------*\
| =========                 |                                                 |
| \\      /  F ield         | OpenFOAM: The Open Source CFD Toolbox           |
|  \\    /   O peration     | Version:  2412                                  |
|   \\  /    A nd           | Website:  www.openfoam.com                      |
|    \\/     M anipulation  |                                                 |
\*---------------------------------------------------------------------------*/
FoamFile
{
    version     2.0;
    format      ascii;
    arch        "LSB;label=32;scalar=64";
    class       volVectorField;
    location    "0.75";
    object      U;
}
// * * * * * * * * * * * * * * * * * * * * * * * * * * * * * * * * * * * * * //

dimensions      [0 1 -1 0 0 0 0];

internalField   nonuniform List<vector> 
6400
(
(-0.00138991 0.00138983 0)
(-0.00417253 0.00139155 0)
(-0.00697115 0.00140596 0)
(-0.00980093 0.00142401 0)
(-0.0126724 0.00144733 0)
(-0.0155959 0.00147612 0)
(-0.0185822 0.00151016 0)
(-0.0216414 0.00154903 0)
(-0.0247825 0.00159218 0)
(-0.0280135 0.00163895 0)
(-0.0313408 0.0016885 0)
(-0.0347689 0.00173976 0)
(-0.0383001 0.00179142 0)
(-0.0419334 0.00184185 0)
(-0.0456647 0.00188906 0)
(-0.0494849 0.00193065 0)
(-0.0533802 0.00196374 0)
(-0.0573302 0.00198493 0)
(-0.0613074 0.00199025 0)
(-0.0652756 0.00197514 0)
(-0.069189 0.00193446 0)
(-0.0729907 0.00186251 0)
(-0.0766123 0.00175311 0)
(-0.0799723 0.0015997 0)
(-0.082976 0.00139559 0)
(-0.0855154 0.0011342 0)
(-0.0874694 0.000809394 0)
(-0.0887064 0.000415116 0)
(-0.0890953 -5.42055e-05 0)
(-0.088452 -0.000602292 0)
(-0.0866487 -0.00121072 0)
(-0.0835709 -0.00187322 0)
(-0.0791192 -0.00257873 0)
(-0.073227 -0.00330823 0)
(-0.0658719 -0.00403647 0)
(-0.0570873 -0.00473303 0)
(-0.0469714 -0.00536378 0)
(-0.0356925 -0.00589345 0)
(-0.0234881 -0.00628898 0)
(-0.0106585 -0.0065235 0)
(0.00246401 -0.00657986 0)
(0.0155144 -0.00645348 0)
(0.0281406 -0.00615352 0)
(0.040017 -0.00570086 0)
(0.050864 -0.00512546 0)
(0.0604691 -0.00446202 0)
(0.0686907 -0.00374624 0)
(0.0754571 -0.00301161 0)
(0.0807592 -0.00228695 0)
(0.0846392 -0.00159517 0)
(0.0871794 -0.000952778 0)
(0.0884919 -0.000367389 0)
(0.0886874 0.000149647 0)
(0.0879283 0.000589147 0)
(0.0863731 0.000954869 0)
(0.0841554 0.00125305 0)
(0.0814025 0.00149043 0)
(0.0782302 0.00167367 0)
(0.0747405 0.00180918 0)
(0.0710219 0.00190344 0)
(0.0671506 0.00196329 0)
(0.0631892 0.00199451 0)
(0.0591897 0.00200239 0)
(0.0551939 0.00199167 0)
(0.0512339 0.00196713 0)
(0.0473337 0.00193227 0)
(0.0435104 0.00189028 0)
(0.0397759 0.00184387 0)
(0.036137 0.00179508 0)
(0.0325962 0.00174577 0)
(0.0291528 0.00169761 0)
(0.0258035 0.00165178 0)
(0.0225428 0.00160918 0)
(0.0193634 0.00157057 0)
(0.0162566 0.00153656 0)
(0.0132124 0.00150765 0)
(0.0102207 0.00148417 0)
(0.00727055 0.00146633 0)
(0.00435028 0.00145431 0)
(0.00144819 0.00144829 0)
(-0.00138572 0.00416646 0)
(-0.00416626 0.00417785 0)
(-0.00696581 0.00421647 0)
(-0.00979337 0.00427081 0)
(-0.0126635 0.00434171 0)
(-0.0155875 0.00442903 0)
(-0.0185762 0.00453212 0)
(-0.0216397 0.00464984 0)
(-0.0247875 0.00478063 0)
(-0.0280281 0.00492253 0)
(-0.0313685 0.00507303 0)
(-0.0348138 0.00522896 0)
(-0.0383667 0.0053864 0)
(-0.0420272 0.00554047 0)
(-0.0457913 0.00568519 0)
(-0.049651 0.00581331 0)
(-0.0535926 0.00591615 0)
(-0.0575963 0.00598339 0)
(-0.0616345 0.00600298 0)
(-0.0656709 0.00596107 0)
(-0.0696588 0.00584196 0)
(-0.0735404 0.00562821 0)
(-0.0772452 0.00530089 0)
(-0.0806895 0.00483996 0)
(-0.0837755 0.00422495 0)
(-0.0863915 0.00343596 0)
(-0.0884135 0.00245469 0)
(-0.089707 0.00126515 0)
(-0.0901463 -0.000144152 0)
(-0.089614 -0.00175861 0)
(-0.087925 -0.00357995 0)
(-0.0849434 -0.00557822 0)
(-0.0805577 -0.00771303 0)
(-0.0746872 -0.00992573 0)
(-0.0672982 -0.0121395 0)
(-0.0584153 -0.0142616 0)
(-0.0481319 -0.0161872 0)
(-0.0366175 -0.0178074 0)
(-0.0241177 -0.0190193 0)
(-0.0109492 -0.0197388 0)
(0.00253375 -0.0199121 0)
(0.0159399 -0.0195245 0)
(0.0288923 -0.0186048 0)
(0.0410446 -0.0172187 0)
(0.052103 -0.0154596 0)
(0.0618493 -0.0134355 0)
(0.0701431 -0.0112566 0)
(0.0769195 -0.00902515 0)
(0.0821797 -0.00682928 0)
(0.0859783 -0.00473871 0)
(0.088413 -0.00280424 0)
(0.0895996 -0.00105819 0)
(0.0897138 0.000474625 0)
(0.0889028 0.00179002 0)
(0.0872859 0.00289236 0)
(0.0849975 0.00379338 0)
(0.082167 0.00450993 0)
(0.0789128 0.00506163 0)
(0.0753404 0.0054685 0)
(0.0715409 0.0057504 0)
(0.0675927 0.00592749 0)
(0.0635603 0.00601775 0)
(0.0594962 0.00603784 0)
(0.0554428 0.00600237 0)
(0.0514322 0.00592502 0)
(0.0474886 0.00581697 0)
(0.0436287 0.00568774 0)
(0.0398637 0.00554531 0)
(0.0361998 0.00539616 0)
(0.0326388 0.00524596 0)
(0.0291798 0.00509954 0)
(0.0258188 0.00496036 0)
(0.0225496 0.00483106 0)
(0.0193642 0.00471398 0)
(0.0162536 0.00461101 0)
(0.0132077 0.00452352 0)
(0.0102158 0.00445243 0)
(0.00726632 0.00439838 0)
(0.00434746 0.004362 0)
(0.00144716 0.00434351 0)
(-0.001371 0.00692411 0)
(-0.00412193 0.00695252 0)
(-0.00689328 0.00701251 0)
(-0.0096939 0.00710303 0)
(-0.0125366 0.00722235 0)
(-0.0154334 0.00736944 0)
(-0.0183956 0.00754306 0)
(-0.0214339 0.00774144 0)
(-0.0245583 0.00796215 0)
(-0.0277777 0.00820203 0)
(-0.0310998 0.00845702 0)
(-0.0345308 0.00872199 0)
(-0.0380744 0.00899052 0)
(-0.041732 0.00925463 0)
(-0.0455013 0.00950448 0)
(-0.0493763 0.0097281 0)
(-0.0533458 0.00991106 0)
(-0.0573923 0.0100362 0)
(-0.0614913 0.0100835 0)
(-0.0656095 0.0100296 0)
(-0.0697038 0.00984809 0)
(-0.0737194 0.00950941 0)
(-0.0775892 0.00898132 0)
(-0.0812315 0.00822956 0)
(-0.0845502 0.00721907 0)
(-0.0874335 0.00591554 0)
(-0.0897551 0.00428772 0)
(-0.0913759 0.00231048 0)
(-0.092138 -2.95566e-05 0)
(-0.091892 -0.00271993 0)
(-0.0904716 -0.00577715 0)
(-0.0877058 -0.00915146 0)
(-0.0834671 -0.0127737 0)
(-0.0776525 -0.0165457 0)
(-0.0702056 -0.020337 0)
(-0.0611319 -0.0239876 0)
(-0.0505136 -0.0273149 0)
(-0.0385209 -0.0301259 0)
(-0.025416 -0.0322362 0)
(-0.0115496 -0.0334927 0)
(0.00267779 -0.0337968 0)
(0.0168187 -0.0331206 0)
(0.0304423 -0.0315171 0)
(0.043158 -0.0291065 0)
(0.0546435 -0.0260581 0)
(0.0646692 -0.0225653 0)
(0.0730994 -0.0188226 0)
(0.0798844 -0.0150073 0)
(0.0850469 -0.0112707 0)
(0.0886669 -0.00773086 0)
(0.090864 -0.00447277 0)
(0.0917751 -0.00155369 0)
(0.091573 0.000994455 0)
(0.0904331 0.00318176 0)
(0.0885031 0.00501296 0)
(0.0859289 0.00650556 0)
(0.0828455 0.00768741 0)
(0.0793735 0.00859156 0)
(0.0756174 0.00925252 0)
(0.0716666 0.00970505 0)
(0.0675966 0.0099829 0)
(0.0634688 0.0101168 0)
(0.0593325 0.0101349 0)
(0.0552265 0.0100622 0)
(0.0511801 0.00992088 0)
(0.0472144 0.00972987 0)
(0.0433439 0.00950495 0)
(0.0395777 0.00925929 0)
(0.0359199 0.00900384 0)
(0.032371 0.00874796 0)
(0.0289287 0.00849928 0)
(0.0255878 0.00826341 0)
(0.0223413 0.00804474 0)
(0.0191808 0.00784712 0)
(0.0160966 0.00767358 0)
(0.0130781 0.0075262 0)
(0.0101143 0.00740648 0)
(0.0071935 0.00731548 0)
(0.00430356 0.00725443 0)
(0.00143244 0.00722323 0)
(-0.00135389 0.00964875 0)
(-0.00406834 0.00969315 0)
(-0.00680237 0.0097774 0)
(-0.00956766 0.0099044 0)
(-0.0123762 0.0100726 0)
(-0.01524 0.0102804 0)
(-0.0181711 0.0105261 0)
(-0.0211808 0.0108072 0)
(-0.0242798 0.0111206 0)
(-0.0274781 0.0114621 0)
(-0.0307845 0.0118263 0)
(-0.0342065 0.0122063 0)
(-0.0377497 0.0125935 0)
(-0.0414174 0.0129771 0)
(-0.0452099 0.0133437 0)
(-0.0491237 0.013677 0)
(-0.0531508 0.0139571 0)
(-0.0572772 0.0141605 0)
(-0.0614822 0.0142592 0)
(-0.0657363 0.0142207 0)
(-0.0700002 0.0140077 0)
(-0.0742229 0.0135783 0)
(-0.0783399 0.0128863 0)
(-0.0822718 0.0118824 0)
(-0.0859223 0.0105151 0)
(-0.0891776 0.00873352 0)
(-0.0919056 0.00649038 0)
(-0.0939555 0.00374645 0)
(-0.09516 0.000477786 0)
(-0.0953578 -0.00332716 0)
(-0.0943511 -0.00766546 0)
(-0.0919331 -0.0124835 0)
(-0.0879438 -0.0176905 0)
(-0.0822412 -0.0231503 0)
(-0.0747301 -0.0286767 0)
(-0.0653828 -0.0340352 0)
(-0.0542599 -0.0389525 0)
(-0.041529 -0.0431339 0)
(-0.027476 -0.0462913 0)
(-0.0125053 -0.0481805 0)
(0.00290556 -0.0486411 0)
(0.0182141 -0.0476262 0)
(0.0328979 -0.0452218 0)
(0.0464937 -0.0416222 0)
(0.0586338 -0.0370962 0)
(0.0690744 -0.0319447 0)
(0.0776912 -0.0264632 0)
(0.0844628 -0.0209156 0)
(0.0894489 -0.015521 0)
(0.0927704 -0.010447 0)
(0.0945855 -0.00581113 0)
(0.0950639 -0.00168648 0)
(0.0944148 0.00190087 0)
(0.0928367 0.00495571 0)
(0.0904847 0.00749133 0)
(0.0875181 0.00954112 0)
(0.0840799 0.01115 0)
(0.0802948 0.0123676 0)
(0.076268 0.0132445 0)
(0.0720883 0.0138316 0)
(0.0678284 0.0141773 0)
(0.0635465 0.0143257 0)
(0.0592879 0.0143161 0)
(0.0550876 0.0141841 0)
(0.0509714 0.0139602 0)
(0.0469567 0.0136704 0)
(0.0430546 0.0133367 0)
(0.0392714 0.0129771 0)
(0.0356086 0.0126069 0)
(0.0320645 0.0122384 0)
(0.0286346 0.0118819 0)
(0.0253124 0.011545 0)
(0.0220896 0.0112336 0)
(0.0189565 0.0109529 0)
(0.0159027 0.0107067 0)
(0.0129169 0.010498 0)
(0.00998732 0.0103285 0)
(0.00710203 0.0102001 0)
(0.0042484 0.010114 0)
(0.00141399 0.0100699 0)
(-0.00132995 0.0123328 0)
(-0.00399578 0.0123901 0)
(-0.00668088 0.0125002 0)
(-0.00939833 0.012665 0)
(-0.0121604 0.0128833 0)
(-0.0149796 0.0131536 0)
(-0.0178684 0.0134737 0)
(-0.0208388 0.0138407 0)
(-0.0239026 0.0142509 0)
(-0.0270709 0.0146994 0)
(-0.0303543 0.0151795 0)
(-0.0337619 0.0156832 0)
(-0.0373016 0.0161999 0)
(-0.0409793 0.0167164 0)
(-0.0447986 0.0172162 0)
(-0.0487597 0.017679 0)
(-0.0528586 0.01808 0)
(-0.0570863 0.0183896 0)
(-0.0614269 0.0185722 0)
(-0.0658565 0.0185863 0)
(-0.0703413 0.0183837 0)
(-0.0748357 0.0179096 0)
(-0.0792797 0.0171032 0)
(-0.0835973 0.0158981 0)
(-0.0876934 0.0142244 0)
(-0.0914526 0.0120114 0)
(-0.0947367 0.00919094 0)
(-0.0973831 0.00570324 0)
(-0.0992066 0.00150301 0)
(-0.10003 -0.00342739 0)
(-0.0996206 -0.00908704 0)
(-0.0977219 -0.0154367 0)
(-0.0941235 -0.0223636 0)
(-0.0886269 -0.0296954 0)
(-0.0810773 -0.0371877 0)
(-0.0713937 -0.0445223 0)
(-0.0595981 -0.0513175 0)
(-0.0458457 -0.0571492 0)
(-0.0304499 -0.0615902 0)
(-0.0138922 -0.0642672 0)
(0.00323258 -0.0649272 0)
(0.0202309 -0.0634923 0)
(0.0364352 -0.0600986 0)
(0.0512707 -0.0550492 0)
(0.0643073 -0.0487533 0)
(0.0752888 -0.0416544 0)
(0.084116 -0.0341743 0)
(0.0908154 -0.0266786 0)
(0.0955061 -0.0194604 0)
(0.0983693 -0.0127353 0)
(0.0996182 -0.00664954 0)
(0.0994826 -0.00130145 0)
(0.0982111 0.00333843 0)
(0.0960186 0.00724459 0)
(0.0930833 0.0104522 0)
(0.0895823 0.0130165 0)
(0.0856657 0.0150033 0)
(0.0814615 0.0164832 0)
(0.0770758 0.0175258 0)
(0.0725944 0.0181999 0)
(0.0680857 0.0185691 0)
(0.0636034 0.018692 0)
(0.0591876 0.0186199 0)
(0.0548676 0.0183979 0)
(0.0506634 0.0180653 0)
(0.0465878 0.0176548 0)
(0.042648 0.017194 0)
(0.038846 0.0167055 0)
(0.0351797 0.0162082 0)
(0.0316444 0.0157174 0)
(0.0282334 0.0152451 0)
(0.0249382 0.0148008 0)
(0.0217486 0.0143918 0)
(0.0186534 0.0140242 0)
(0.0156409 0.0137024 0)
(0.0126994 0.0134301 0)
(0.00981644 0.0132094 0)
(0.00697906 0.0130425 0)
(0.00417428 0.0129306 0)
(0.00138928 0.0128734 0)
(-0.00129908 0.0149621 0)
(-0.00390341 0.015032 0)
(-0.00652739 0.0151684 0)
(-0.00918442 0.0153722 0)
(-0.0118875 0.0156422 0)
(-0.0146496 0.015977 0)
(-0.0174839 0.0163743 0)
(-0.0204033 0.016831 0)
(-0.0234207 0.017343 0)
(-0.0265489 0.0179048 0)
(-0.0297998 0.0185093 0)
(-0.0331851 0.0191472 0)
(-0.0367153 0.0198066 0)
(-0.0403997 0.0204725 0)
(-0.0442457 0.0211257 0)
(-0.048258 0.0217428 0)
(-0.052438 0.0222946 0)
(-0.0567827 0.0227459 0)
(-0.0612829 0.0230542 0)
(-0.065922 0.0231691 0)
(-0.0706737 0.0230315 0)
(-0.0754999 0.0225736 0)
(-0.0803474 0.0217186 0)
(-0.0851459 0.0203819 0)
(-0.0898037 0.0184723 0)
(-0.0942052 0.0158952 0)
(-0.0982074 0.0125565 0)
(-0.101636 0.00836891 0)
(-0.104283 0.00325738 0)
(-0.105941 -0.00282147 0)
(-0.106351 -0.00983947 0)
(-0.105198 -0.0178284 0)
(-0.102189 -0.0266466 0)
(-0.0970499 -0.0360921 0)
(-0.0895396 -0.045863 0)
(-0.0794937 -0.0555485 0)
(-0.066867 -0.0646353 0)
(-0.0517816 -0.0725311 0)
(-0.0345749 -0.0786151 0)
(-0.0158308 -0.0823224 0)
(0.0036819 -0.0832525 0)
(0.0230328 -0.0812709 0)
(0.0413258 -0.0765959 0)
(0.0578217 -0.0697023 0)
(0.0720106 -0.0612063 0)
(0.083636 -0.051748 0)
(0.0926511 -0.0419099 0)
(0.0991626 -0.0321779 0)
(0.10338 -0.0229226 0)
(0.105572 -0.0144027 0)
(0.106011 -0.00677922 0)
(0.105046 -0.000156436 0)
(0.102955 0.00551168 0)
(0.0999444 0.0102291 0)
(0.0962508 0.0140543 0)
(0.0920643 0.0170687 0)
(0.0875414 0.0193639 0)
(0.0828121 0.0210354 0)
(0.0779805 0.0221755 0)
(0.0731284 0.0228727 0)
(0.0683177 0.0232078 0)
(0.0635945 0.0232535 0)
(0.0589917 0.0230735 0)
(0.0545313 0.0227228 0)
(0.0502264 0.0222485 0)
(0.0460835 0.0216896 0)
(0.042104 0.0210788 0)
(0.0382848 0.0204428 0)
(0.0346196 0.0198034 0)
(0.0311002 0.019178 0)
(0.0277169 0.0185803 0)
(0.0244585 0.018021 0)
(0.0213128 0.0175085 0)
(0.018267 0.0170495 0)
(0.0153083 0.0166488 0)
(0.0124237 0.0163103 0)
(0.00959994 0.0160367 0)
(0.00682337 0.01583 0)
(0.00408047 0.0156916 0)
(0.00135795 0.0156207 0)
(-0.00126151 0.0175231 0)
(-0.0037911 0.0176062 0)
(-0.00634094 0.0177693 0)
(-0.00892455 0.018013 0)
(-0.0115555 0.0183364 0)
(-0.0142474 0.018738 0)
(-0.0170142 0.0192155 0)
(-0.0198697 0.019766 0)
(-0.0228283 0.0203852 0)
(-0.025904 0.0210676 0)
(-0.029111 0.0218057 0)
(-0.0324635 0.0225897 0)
(-0.035975 0.023407 0)
(-0.0396587 0.0242412 0)
(-0.0435265 0.0250717 0)
(-0.0475887 0.0258721 0)
(-0.0518531 0.0266101 0)
(-0.0563239 0.0272457 0)
(-0.0610006 0.0277301 0)
(-0.0658756 0.0280047 0)
(-0.0709328 0.028 0)
(-0.0761439 0.0276348 0)
(-0.081466 0.0268159 0)
(-0.0868374 0.0254384 0)
(-0.0921733 0.0233871 0)
(-0.0973608 0.0205391 0)
(-0.102255 0.0167683 0)
(-0.106673 0.0119525 0)
(-0.110387 0.00598075 0)
(-0.113117 -0.00123025 0)
(-0.114615 -0.00967787 0)
(-0.114514 -0.0194168 0)
(-0.11237 -0.0303258 0)
(-0.107823 -0.0421841 0)
(-0.10051 -0.0546381 0)
(-0.0901401 -0.0671781 0)
(-0.0765525 -0.0791326 0)
(-0.0597962 -0.0896908 0)
(-0.0402126 -0.0979581 0)
(-0.0185122 -0.103075 0)
(0.00428644 -0.104396 0)
(0.0268727 -0.101668 0)
(0.0479821 -0.0952591 0)
(0.0666368 -0.0859309 0)
(0.0822379 -0.0746166 0)
(0.0945625 -0.06223 0)
(0.103666 -0.0495577 0)
(0.109785 -0.0372224 0)
(0.113266 -0.0256731 0)
(0.1145 -0.0152027 0)
(0.113854 -0.0059804 0)
(0.111765 0.00196023 0)
(0.108588 0.00863234 0)
(0.104553 0.014102 0)
(0.0999158 0.0184655 0)
(0.0948857 0.0218392 0)
(0.0896263 0.0243486 0)
(0.0842671 0.0261189 0)
(0.0789079 0.0272686 0)
(0.0736223 0.027908 0)
(0.0684629 0.0281364 0)
(0.063466 0.0280413 0)
(0.0586541 0.0276984 0)
(0.0540398 0.0271721 0)
(0.0496277 0.0265167 0)
(0.0454163 0.0257767 0)
(0.0414 0.0249891 0)
(0.0375695 0.0241838 0)
(0.0339136 0.0233849 0)
(0.0304201 0.0226111 0)
(0.0270756 0.0218769 0)
(0.0238661 0.0211942 0)
(0.0207768 0.0205717 0)
(0.0177933 0.0200163 0)
(0.0149016 0.0195331 0)
(0.0120873 0.0191256 0)
(0.00933619 0.0187972 0)
(0.00663388 0.0185492 0)
(0.00396638 0.0183834 0)
(0.00131981 0.0182987 0)
(-0.00121725 0.0200024 0)
(-0.00365862 0.0200991 0)
(-0.00612075 0.0202894 0)
(-0.00861736 0.0205741 0)
(-0.0111625 0.0209524 0)
(-0.0137703 0.021423 0)
(-0.0164556 0.0219838 0)
(-0.0192332 0.0226322 0)
(-0.0221187 0.0233643 0)
(-0.0251278 0.0241747 0)
(-0.0282769 0.0250562 0)
(-0.0315828 0.0259991 0)
(-0.0350626 0.0269906 0)
(-0.0387337 0.0280141 0)
(-0.0426131 0.0290478 0)
(-0.0467174 0.0300642 0)
(-0.0510619 0.0310286 0)
(-0.0556597 0.0318973 0)
(-0.0605204 0.0326165 0)
(-0.0656481 0.0331204 0)
(-0.0710389 0.0333297 0)
(-0.0766783 0.0331504 0)
(-0.0825373 0.0324723 0)
(-0.0885672 0.031169 0)
(-0.0946946 0.0290982 0)
(-0.100814 0.0261044 0)
(-0.106783 0.0220227 0)
(-0.112412 0.0166863 0)
(-0.117453 0.00993737 0)
(-0.121586 0.00163704 0)
(-0.124521 -0.00829411 0)
(-0.125826 -0.019869 0)
(-0.124933 -0.0330916 0)
(-0.121335 -0.0477162 0)
(-0.114502 -0.0633568 0)
(-0.103952 -0.0794078 0)
(-0.0893397 -0.0950184 0)
(-0.0705644 -0.109097 0)
(-0.0479175 -0.120361 0)
(-0.0222438 -0.127494 0)
(0.00509301 -0.129423 0)
(0.0321477 -0.12562 0)
(0.0570316 -0.116762 0)
(0.0784318 -0.104114 0)
(0.0956803 -0.0891024 0)
(0.108666 -0.073019 0)
(0.117632 -0.0569024 0)
(0.123025 -0.0415186 0)
(0.125382 -0.0273804 0)
(0.125249 -0.0147892 0)
(0.123162 -0.00394203 0)
(0.119645 0.0053133 0)
(0.115085 0.0129467 0)
(0.109767 0.0190771 0)
(0.103979 0.0238645 0)
(0.09794 0.0274739 0)
(0.0918139 0.0300734 0)
(0.085725 0.0318233 0)
(0.0797637 0.0328724 0)
(0.0739913 0.033355 0)
(0.0684467 0.0333892 0)
(0.0631527 0.0330776 0)
(0.0581192 0.0325072 0)
(0.0533466 0.031751 0)
(0.0488286 0.0308694 0)
(0.0445543 0.0299116 0)
(0.0405098 0.0289174 0)
(0.0366791 0.027919 0)
(0.0330453 0.0269415 0)
(0.0295912 0.0260042 0)
(0.0262996 0.0251221 0)
(0.0231529 0.024307 0)
(0.0201345 0.0235678 0)
(0.017228 0.0229111 0)
(0.0144177 0.0223415 0)
(0.011688 0.0218625 0)
(0.00902357 0.0214772 0)
(0.00640954 0.0211866 0)
(0.00383137 0.0209925 0)
(0.00127474 0.0208935 0)
(-0.0011662 0.0223864 0)
(-0.00350559 0.0224971 0)
(-0.00586608 0.0227151 0)
(-0.00826163 0.0230416 0)
(-0.0107066 0.0234761 0)
(-0.0132158 0.0240175 0)
(-0.0158046 0.0246645 0)
(-0.0184889 0.0254148 0)
(-0.0212853 0.0262652 0)
(-0.0242115 0.0272109 0)
(-0.0272859 0.0282455 0)
(-0.0305282 0.0293602 0)
(-0.033959 0.0305426 0)
(-0.0376003 0.0317769 0)
(-0.0414747 0.0330416 0)
(-0.0456058 0.034309 0)
(-0.0500174 0.0355434 0)
(-0.0547329 0.0366992 0)
(-0.0597738 0.0377191 0)
(-0.0651579 0.0385317 0)
(-0.0708973 0.0390494 0)
(-0.0769947 0.0391662 0)
(-0.0834397 0.0387552 0)
(-0.0902025 0.0376678 0)
(-0.0972274 0.0357326 0)
(-0.104424 0.0327569 0)
(-0.111659 0.0285297 0)
(-0.118743 0.0228285 0)
(-0.125418 0.0154297 0)
(-0.131329 0.00611519 0)
(-0.136102 -0.00529034 0)
(-0.139284 -0.0187739 0)
(-0.140185 -0.0345127 0)
(-0.138051 -0.0522931 0)
(-0.132159 -0.0717206 0)
(-0.121752 -0.0921155 0)
(-0.106185 -0.112442 0)
(-0.0850778 -0.131262 0)
(-0.05855 -0.146756 0)
(-0.0275401 -0.156895 0)
(0.00616643 -0.159864 0)
(0.0395011 -0.154409 0)
(0.0694435 -0.141937 0)
(0.0942524 -0.124629 0)
(0.113292 -0.104682 0)
(0.126725 -0.0838899 0)
(0.135133 -0.0635738 0)
(0.139278 -0.0446295 0)
(0.13997 -0.0275992 0)
(0.137918 -0.0127682 0)
(0.13394 -0.000192916 0)
(0.128634 0.0102923 0)
(0.122335 0.0187517 0)
(0.115457 0.0253921 0)
(0.108301 0.0304392 0)
(0.101085 0.0341185 0)
(0.0939672 0.0366483 0)
(0.0870587 0.0382295 0)
(0.0804329 0.0390441 0)
(0.0741332 0.0392514 0)
(0.0681805 0.0389891 0)
(0.0625796 0.0383737 0)
(0.0573239 0.0375026 0)
(0.0523989 0.0364559 0)
(0.0477857 0.0352987 0)
(0.0434626 0.0340831 0)
(0.0394059 0.0328506 0)
(0.0355919 0.0316338 0)
(0.0319974 0.0304579 0)
(0.0286 0.0293419 0)
(0.0253781 0.0283003 0)
(0.0223113 0.0273441 0)
(0.0193802 0.0264816 0)
(0.0165667 0.0257187 0)
(0.0138533 0.0250591 0)
(0.0112233 0.0245064 0)
(0.00866039 0.0240621 0)
(0.00614925 0.0237279 0)
(0.00367484 0.0235046 0)
(0.00122256 0.0233912 0)
(-0.00110821 0.0246613 0)
(-0.00333166 0.0247861 0)
(-0.00557633 0.0250321 0)
(-0.00785638 0.0254011 0)
(-0.0101864 0.0258927 0)
(-0.0125817 0.0265066 0)
(-0.015058 0.027242 0)
(-0.0176322 0.0280975 0)
(-0.0203221 0.0290707 0)
(-0.0231469 0.0301583 0)
(-0.026127 0.0313551 0)
(-0.0292849 0.0326536 0)
(-0.032645 0.0340432 0)
(-0.0362335 0.0355096 0)
(-0.0400793 0.0370331 0)
(-0.0442134 0.0385874 0)
(-0.048669 0.0401375 0)
(-0.0534808 0.041638 0)
(-0.0586839 0.0430301 0)
(-0.0643127 0.0442393 0)
(-0.0703982 0.0451719 0)
(-0.076965 0.0457117 0)
(-0.0840266 0.0457168 0)
(-0.0915791 0.0450164 0)
(-0.0995928 0.043409 0)
(-0.108002 0.0406614 0)
(-0.116694 0.03651 0)
(-0.125492 0.0306653 0)
(-0.134142 0.0228223 0)
(-0.142278 0.0126703 0)
(-0.149383 -9.15648e-05 0)
(-0.155012 -0.0155828 0)
(-0.158408 -0.0339749 0)
(-0.158492 -0.0553186 0)
(-0.154264 -0.0792176 0)
(-0.144605 -0.104977 0)
(-0.128408 -0.131409 0)
(-0.104793 -0.156699 0)
(-0.0734675 -0.178307 0)
(-0.0353026 -0.193097 0)
(0.00760125 -0.198065 0)
(0.0500238 -0.189842 0)
(0.0867473 -0.171791 0)
(0.115628 -0.147775 0)
(0.136368 -0.121171 0)
(0.149727 -0.0943808 0)
(0.15685 -0.0689762 0)
(0.158963 -0.0459178 0)
(0.15721 -0.0257062 0)
(0.152629 -0.00861204 0)
(0.146194 0.00570847 0)
(0.138561 0.0172768 0)
(0.130162 0.026366 0)
(0.121436 0.0332974 0)
(0.112691 0.0383806 0)
(0.104137 0.0419139 0)
(0.0959147 0.0441731 0)
(0.0881123 0.0454048 0)
(0.080778 0.0458253 0)
(0.0739295 0.0456195 0)
(0.0675632 0.0449437 0)
(0.0616615 0.043927 0)
(0.0561975 0.0426749 0)
(0.0511393 0.0412723 0)
(0.046453 0.039787 0)
(0.0421043 0.0382721 0)
(0.038059 0.0367686 0)
(0.034285 0.0353082 0)
(0.0307522 0.0339146 0)
(0.027433 0.0326052 0)
(0.0243014 0.0313931 0)
(0.0213338 0.0302878 0)
(0.0185085 0.0292962 0)
(0.0158053 0.0284227 0)
(0.0132055 0.0276702 0)
(0.0106911 0.0270415 0)
(0.00824537 0.026537 0)
(0.00585228 0.0261583 0)
(0.00349644 0.0259053 0)
(0.00116307 0.0257773 0)
(-0.00104321 0.0268131 0)
(-0.00313664 0.026952 0)
(-0.00525117 0.0272262 0)
(-0.00740102 0.0276378 0)
(-0.00960093 0.028187 0)
(-0.0118663 0.0288742 0)
(-0.0142135 0.0296994 0)
(-0.0166598 0.0306624 0)
(-0.0192241 0.0317621 0)
(-0.0219267 0.0329968 0)
(-0.0247902 0.0343632 0)
(-0.0278394 0.035856 0)
(-0.0311021 0.0374674 0)
(-0.0346091 0.0391857 0)
(-0.0383953 0.0409946 0)
(-0.0424993 0.0428707 0)
(-0.0469642 0.0447822 0)
(-0.051837 0.0466862 0)
(-0.0571681 0.0485256 0)
(-0.0630106 0.0502255 0)
(-0.069418 0.0516896 0)
(-0.0764414 0.0527948 0)
(-0.0841246 0.053387 0)
(-0.0924975 0.0532758 0)
(-0.101567 0.0522297 0)
(-0.111305 0.049973 0)
(-0.121633 0.0461844 0)
(-0.132404 0.0404986 0)
(-0.143381 0.032513 0)
(-0.154202 0.0218006 0)
(-0.16431 0.00790746 0)
(-0.173121 -0.0095785 0)
(-0.179857 -0.0307097 0)
(-0.183218 -0.055928 0)
(-0.181732 -0.0850278 0)
(-0.173847 -0.117337 0)
(-0.1578 -0.151641 0)
(-0.131857 -0.185813 0)
(-0.094841 -0.216386 0)
(-0.0472046 -0.238722 0)
(0.00952719 -0.247944 0)
(0.0657223 -0.234533 0)
(0.111429 -0.207449 0)
(0.144799 -0.173602 0)
(0.166624 -0.138012 0)
(0.17886 -0.103662 0)
(0.183538 -0.0721956 0)
(0.182493 -0.044486 0)
(0.177231 -0.0209521 0)
(0.169297 -0.00150184 0)
(0.159785 0.0143151 0)
(0.149251 0.0267074 0)
(0.138325 0.0361333 0)
(0.127448 0.0430491 0)
(0.116899 0.047873 0)
(0.106863 0.0509868 0)
(0.0974459 0.0527296 0)
(0.0887005 0.0533957 0)
(0.0806387 0.0532363 0)
(0.0732441 0.052461 0)
(0.0664816 0.0512418 0)
(0.0603055 0.0497176 0)
(0.0546648 0.0479989 0)
(0.0495075 0.0461725 0)
(0.0447829 0.0443058 0)
(0.0404423 0.0424502 0)
(0.0364405 0.0406442 0)
(0.0327365 0.0389162 0)
(0.0292934 0.037287 0)
(0.026078 0.0357713 0)
(0.0230605 0.0343793 0)
(0.020214 0.0331183 0)
(0.0175147 0.0319927 0)
(0.0149407 0.0310054 0)
(0.0124721 0.030158 0)
(0.0100901 0.0294519 0)
(0.00777758 0.0288863 0)
(0.00551798 0.0284629 0)
(0.00329587 0.0281798 0)
(0.00109618 0.0280371 0)
(-0.000971221 0.0288279 0)
(-0.00292054 0.0289807 0)
(-0.00489061 0.0292828 0)
(-0.00689549 0.0297367 0)
(-0.00894982 0.0303434 0)
(-0.0110691 0.0311038 0)
(-0.0132696 0.0320192 0)
(-0.0155693 0.0330906 0)
(-0.0179875 0.0343187 0)
(-0.0205456 0.0357037 0)
(-0.0232675 0.0372449 0)
(-0.0261802 0.03894 0)
(-0.0293144 0.0407848 0)
(-0.0327051 0.0427718 0)
(-0.0363928 0.0448892 0)
(-0.0404238 0.0471191 0)
(-0.0448509 0.0494353 0)
(-0.049734 0.0518003 0)
(-0.0551401 0.0541621 0)
(-0.0611428 0.0564499 0)
(-0.0678214 0.0585688 0)
(-0.075258 0.0603944 0)
(-0.0835335 0.0617654 0)
(-0.0927213 0.0624759 0)
(-0.102877 0.0622676 0)
(-0.114025 0.0608229 0)
(-0.126141 0.0577605 0)
(-0.139129 0.052633 0)
(-0.152796 0.044927 0)
(-0.166825 0.0340701 0)
(-0.180693 0.0194287 0)
(-0.193557 0.000313409 0)
(-0.204661 -0.0236493 0)
(-0.212688 -0.052924 0)
(-0.215543 -0.087891 0)
(-0.211079 -0.128038 0)
(-0.196737 -0.17231 0)
(-0.16937 -0.218508 0)
(-0.126184 -0.262393 0)
(-0.0664672 -0.297064 0)
(0.011418 -0.315391 0)
(0.090262 -0.291906 0)
(0.147647 -0.249726 0)
(0.185006 -0.201444 0)
(0.206241 -0.153999 0)
(0.215465 -0.110377 0)
(0.215939 -0.0718888 0)
(0.210119 -0.0391638 0)
(0.200128 -0.0123557 0)
(0.187831 0.00937784 0)
(0.174337 0.0263064 0)
(0.160326 0.0390827 0)
(0.146463 0.0484101 0)
(0.133144 0.0548963 0)
(0.120605 0.0590816 0)
(0.108975 0.0614379 0)
(0.0983085 0.0623693 0)
(0.0886069 0.0622183 0)
(0.0798331 0.0612685 0)
(0.0719265 0.0597505 0)
(0.0648128 0.057848 0)
(0.0584129 0.0557048 0)
(0.052648 0.053432 0)
(0.0474429 0.051114 0)
(0.0427283 0.0488143 0)
(0.0384407 0.0465792 0)
(0.0345235 0.0444419 0)
(0.0309267 0.0424255 0)
(0.0276066 0.0405459 0)
(0.0245249 0.0388136 0)
(0.0216481 0.0372349 0)
(0.0189469 0.0358134 0)
(0.0163954 0.034551 0)
(0.0139707 0.0334481 0)
(0.0116518 0.032505 0)
(0.00941961 0.0317208 0)
(0.00725659 0.0310943 0)
(0.00514622 0.030626 0)
(0.00307303 0.0303134 0)
(0.00102189 0.0301558 0)
(-0.000892342 0.0306919 0)
(-0.0026837 0.0308582 0)
(-0.00449516 0.0311876 0)
(-0.0063404 0.031683 0)
(-0.00823373 0.032346 0)
(-0.0101904 0.0331786 0)
(-0.0122266 0.0341831 0)
(-0.0143602 0.0353621 0)
(-0.0166108 0.0367184 0)
(-0.0190003 0.0382545 0)
(-0.0215536 0.0399727 0)
(-0.024299 0.0418745 0)
(-0.0272696 0.0439601 0)
(-0.0305036 0.0462276 0)
(-0.0340465 0.0486717 0)
(-0.0379513 0.0512819 0)
(-0.0422804 0.0540404 0)
(-0.0471066 0.0569189 0)
(-0.0525138 0.0598746 0)
(-0.0585976 0.0628455 0)
(-0.0654652 0.0657447 0)
(-0.0732339 0.0684533 0)
(-0.0820291 0.0708106 0)
(-0.0919775 0.072603 0)
(-0.103198 0.0735517 0)
(-0.115784 0.0733017 0)
(-0.129787 0.0714132 0)
(-0.145191 0.0673552 0)
(-0.161883 0.0604981 0)
(-0.179619 0.0501078 0)
(-0.19796 0.0353442 0)
(-0.216082 0.0152177 0)
(-0.232957 -0.0113214 0)
(-0.247259 -0.0447313 0)
(-0.256623 -0.0859985 0)
(-0.258065 -0.135161 0)
(-0.248043 -0.191577 0)
(-0.221461 -0.254113 0)
(-0.172604 -0.317896 0)
(-0.0991888 -0.371108 0)
(0.00965093 -0.41309 0)
(0.127372 -0.368194 0)
(0.201273 -0.29917 0)
(0.240565 -0.229272 0)
(0.257678 -0.166723 0)
(0.260862 -0.112411 0)
(0.254593 -0.0662029 0)
(0.241888 -0.0284387 0)
(0.22567 0.00164998 0)
(0.207856 0.0250021 0)
(0.189394 0.0423823 0)
(0.171284 0.0549097 0)
(0.154084 0.0635374 0)
(0.138078 0.0690557 0)
(0.123409 0.0721318 0)
(0.110127 0.0733245 0)
(0.0982081 0.0731009 0)
(0.0875852 0.0718471 0)
(0.0781593 0.0698746 0)
(0.0698141 0.0674287 0)
(0.0624283 0.0646977 0)
(0.0558837 0.0618235 0)
(0.0500697 0.0589115 0)
(0.0448867 0.0560384 0)
(0.0402455 0.0532587 0)
(0.0360678 0.0506105 0)
(0.0322853 0.0481185 0)
(0.0288398 0.0457979 0)
(0.0256811 0.0436578 0)
(0.0227666 0.0417025 0)
(0.0200599 0.0399332 0)
(0.0175299 0.0383493 0)
(0.0151494 0.0369495 0)
(0.0128948 0.0357312 0)
(0.0107446 0.0346929 0)
(0.00867983 0.0338314 0)
(0.00668276 0.0331452 0)
(0.00473729 0.0326322 0)
(0.00282809 0.032291 0)
(0.000940283 0.0321186 0)
(-0.000806794 0.0323914 0)
(-0.00242675 0.0325708 0)
(-0.00406584 0.0329265 0)
(-0.00573713 0.0334617 0)
(-0.00745429 0.034179 0)
(-0.00923198 0.0350814 0)
(-0.0110861 0.0361724 0)
(-0.013034 0.0374564 0)
(-0.015095 0.0389382 0)
(-0.0172911 0.0406232 0)
(-0.0196471 0.0425169 0)
(-0.0221922 0.0446253 0)
(-0.0249605 0.0469537 0)
(-0.0279926 0.0495071 0)
(-0.0313373 0.0522883 0)
(-0.0350532 0.0552968 0)
(-0.0392113 0.0585265 0)
(-0.0438962 0.0619617 0)
(-0.0492086 0.0655738 0)
(-0.0552659 0.0693156 0)
(-0.0622044 0.0731154 0)
(-0.0701798 0.0768694 0)
(-0.0793677 0.0804289 0)
(-0.0899592 0.0835846 0)
(-0.102151 0.0860484 0)
(-0.116128 0.0874365 0)
(-0.132041 0.0872565 0)
(-0.149982 0.0848982 0)
(-0.16996 0.0796224 0)
(-0.191866 0.0705353 0)
(-0.215427 0.0565513 0)
(-0.240035 0.0363339 0)
(-0.264387 0.00817059 0)
(-0.287045 -0.0293316 0)
(-0.305591 -0.0768918 0)
(-0.316278 -0.13566 0)
(-0.314931 -0.20673 0)
(-0.294242 -0.291149 0)
(-0.244972 -0.381993 0)
(-0.16472 -0.472032 0)
(0.013363 -0.568476 0)
(0.187794 -0.478445 0)
(0.280388 -0.357021 0)
(0.316615 -0.253923 0)
(0.32319 -0.172378 0)
(0.315838 -0.106531 0)
(0.299642 -0.0527771 0)
(0.277747 -0.0100717 0)
(0.253389 0.0226586 0)
(0.228399 0.0464898 0)
(0.204114 0.0632956 0)
(0.181385 0.0746607 0)
(0.160537 0.081797 0)
(0.141684 0.0856788 0)
(0.124833 0.0870831 0)
(0.109914 0.0866411 0)
(0.0968088 0.0848739 0)
(0.0853632 0.0822031 0)
(0.0754011 0.0789604 0)
(0.066739 0.0753964 0)
(0.0591997 0.0716936 0)
(0.0526208 0.0679825 0)
(0.0468583 0.0643539 0)
(0.0417869 0.0608703 0)
(0.0372979 0.0575726 0)
(0.0332984 0.0544861 0)
(0.0297096 0.0516237 0)
(0.0264654 0.0489901 0)
(0.0235109 0.0465852 0)
(0.0207999 0.0444055 0)
(0.0182946 0.042446 0)
(0.0159629 0.0407012 0)
(0.0137775 0.039166 0)
(0.0117142 0.0378348 0)
(0.00975197 0.0367036 0)
(0.00787211 0.0357668 0)
(0.00605733 0.0350227 0)
(0.00429206 0.0344666 0)
(0.00256155 0.0340976 0)
(0.00085155 0.033911 0)
(-0.000714919 0.0339135 0)
(-0.00215071 0.0341052 0)
(-0.00360431 0.0344856 0)
(-0.00508789 0.0350585 0)
(-0.00661425 0.0358271 0)
(-0.00819716 0.0367955 0)
(-0.00985168 0.0379687 0)
(-0.0115944 0.0393527 0)
(-0.013444 0.0409548 0)
(-0.0154214 0.0427829 0)
(-0.0175511 0.0448465 0)
(-0.0198617 0.0471559 0)
(-0.022387 0.0497225 0)
(-0.0251682 0.0525588 0)
(-0.0282556 0.0556777 0)
(-0.0317114 0.0590911 0)
(-0.035613 0.0628077 0)
(-0.0400556 0.066829 0)
(-0.0451548 0.0711454 0)
(-0.0510487 0.0757306 0)
(-0.0579011 0.080537 0)
(-0.0659067 0.0854875 0)
(-0.0752955 0.0904616 0)
(-0.0863334 0.0952727 0)
(-0.0993126 0.0996404 0)
(-0.114531 0.103165 0)
(-0.132265 0.105312 0)
(-0.152743 0.105403 0)
(-0.176133 0.102613 0)
(-0.202534 0.0959329 0)
(-0.231942 0.0840619 0)
(-0.264168 0.0653016 0)
(-0.298293 0.0373001 0)
(-0.331881 -0.00299006 0)
(-0.362224 -0.0571335 0)
(-0.386627 -0.12615 0)
(-0.40217 -0.211979 0)
(-0.404826 -0.313348 0)
(-0.391888 -0.439387 0)
(-0.303844 -0.610622 0)
(0.113064 -0.783508 0)
(0.359968 -0.613882 0)
(0.42409 -0.412055 0)
(0.422317 -0.265337 0)
(0.404419 -0.166224 0)
(0.380026 -0.0895877 0)
(0.350629 -0.0279031 0)
(0.317019 0.0191061 0)
(0.28196 0.0524349 0)
(0.248252 0.0749951 0)
(0.217388 0.0897513 0)
(0.189654 0.0987119 0)
(0.165005 0.103364 0)
(0.143292 0.104819 0)
(0.124319 0.103909 0)
(0.107879 0.101304 0)
(0.0937418 0.0975664 0)
(0.0816507 0.0931439 0)
(0.0713366 0.0883774 0)
(0.0625354 0.0835093 0)
(0.0550059 0.0787026 0)