/*--------------------------------*- C++ -*----------------------------------*\
| =========                 |                                                 |
| \\      /  F ield         | OpenFOAM: The Open Source CFD Toolbox           |
|  \\    /   O peration     | Version:  2412                                  |
|   \\  /    A nd           | Website:  www.openfoam.com                      |
|    \\/     M anipulation  |                                                 |
\*---------------------------------------------------------------------------*/
FoamFile
{
    version     2.0;
    format      ascii;
    arch        "LSB;label=32;scalar=64";
    class       volScalarField;
    location    "7.55";
    object      p;
}
// * * * * * * * * * * * * * * * * * * * * * * * * * * * * * * * * * * * * * //

dimensions      [1 -1 -2 0 0 0 0];

internalField   nonuniform List<scalar> 
6400
(
130133
130139
130150
130167
130187
130212
130240
130270
130302
130335
130367
130397
130425
130449
130469
130484
130492
130494
130489
130477
130457
130429
130395
130355
130308
130256
130201
130142
130082
130020
129960
129901
129845
129793
129746
129706
129672
129646
129628
129619
129617
129625
129641
129664
129695
129733
129776
129824
129876
129931
129987
130044
130099
130153
130205
130252
130295
130333
130366
130392
130413
130428
130437
130441
130440
130434
130424
130411
130396
130379
130360
130341
130323
130305
130289
130275
130262
130253
130246
130243
123488
123495
123506
123523
123545
123571
123600
123631
123664
123697
123731
123762
123791
123817
123838
123853
123862
123864
123859
123846
123826
123798
123764
123722
123674
123622
123565
123505
123443
123380
123318
123258
123201
123148
123100
123059
123025
122998
122980
122970
122969
122977
122993
123017
123049
123087
123132
123181
123234
123290
123347
123405
123462
123517
123570
123618
123662
123700
123733
123761
123781
123796
123805
123809
123807
123801
123790
123777
123760
123742
123723
123704
123684
123666
123649
123634
123621
123611
123604
123601
116838
116845
116858
116876
116899
116926
116957
116990
117025
117061
117096
117130
117161
117189
117211
117228
117238
117241
117236
117224
117203
117175
117138
117095
117046
116991
116932
116869
116805
116739
116675
116612
116553
116498
116448
116405
116369
116341
116322
116312
116311
116320
116337
116362
116395
116435
116482
116533
116589
116647
116707
116767
116827
116884
116938
116988
117034
117074
117107
117135
117156
117171
117179
117182
117179
117171
117160
117145
117127
117107
117086
117065
117045
117025
117007
116991
116977
116967
116959
116955
110182
110189
110203
110223
110248
110277
110311
110347
110386
110425
110463
110501
110535
110565
110590
110609
110621
110626
110622
110609
110588
110558
110520
110475
110423
110365
110302
110236
110167
110098
110030
109963
109900
109841
109789
109743
109705
109676
109656
109645
109645
109653
109672
109699
109734
109777
109827
109882
109941
110003
110067
110130
110193
110254
110311
110364
110411
110452
110487
110515
110537
110551
110559
110560
110555
110546
110532
110515
110495
110473
110450
110427
110404
110383
110363
110345
110330
110319
110310
110306
103519
103527
103542
103564
103592
103625
103662
103702
103745
103789
103832
103874
103912
103947
103975
103998
104012
104018
104015
104003
103981
103950
103910
103862
103806
103744
103676
103605
103531
103457
103383
103311
103243
103179
103123
103073
103033
103001
102980
102969
102968
102978
102998
103027
103066
103113
103166
103226
103290
103357
103426
103494
103562
103627
103688
103744
103794
103838
103874
103903
103924
103938
103944
103944
103937
103925
103908
103888
103865
103840
103814
103788
103762
103738
103716
103697
103680
103667
103658
103653
96848.1
96857.6
96875
96899.7
96931.1
96968.1
97009.8
97055.3
97103.5
97152.8
97202
97249.5
97293.8
97333.5
97367.1
97393.4
97411.5
97420
97418.5
97406.5
97384
97351
97308.1
97255.9
97195.4
97127.7
97054.1
96976.2
96895.7
96814.1
96733.1
96654.5
96579.9
96510.9
96448.8
96395
96350.6
96316.4
96293.1
96281.1
96280.7
96291.7
96313.9
96346.8
96389.4
96440.9
96500
96565.5
96635.7
96709.3
96784.5
96859.7
96933.3
97003.9
97070
97130.5
97184.2
97230.3
97268.4
97297.9
97319
97331.6
97336.2
97333.2
97323.6
97308
97287.6
97263.2
97236
97207.1
97177.3
97147.6
97118.9
97091.9
97067.2
97045.3
97026.6
97011.8
97001.2
96995.4
90168.7
90179.8
90199.9
90228.2
90263.9
90305.9
90353.4
90405.2
90460.2
90516.9
90573.5
90628.3
90679.8
90726.2
90765.9
90797.5
90819.9
90831.5
90831.8
90820.3
90796.9
90761.7
90715.2
90658.2
90591.8
90517.2
90436.1
90350
90260.9
90170.7
90081.1
89994.2
89911.7
89835.3
89766.7
89707.3
89658.2
89620.6
89595.1
89582.1
89582
89594.6
89619.6
89656.4
89704
89761.5
89827.4
89900.2
89978.2
90059.8
90143.1
90226.3
90307.6
90385.2
90457.7
90523.5
90581.5
90630.9
90670.9
90701.4
90722.1
90733.4
90735.7
90729.6
90716.1
90695.9
90670.7
90641.4
90609.1
90575.1
90540.5
90506.3
90473.4
90442.7
90414.6
90389.8
90368.7
90351.7
90339.5
90332.6
83479.5
83492.7
83516.1
83548.7
83589.5
83637.6
83692
83751.2
83815
83880.5
83946.2
84010.2
84070.5
84125.2
84172.5
84210.7
84238.4
84254
84256.6
84245.8
84221.3
84183.3
84132.5
84069.6
83996
83913.1
83822.7
83726.7
83627.2
83526.4
83426.4
83329.3
83237.2
83151.9
83075.4
83009.1
82954.5
82912.6
82884.4
82870.2
82870.5
82885
82913.4
82955
83008.8
83073.5
83147.6
83229.5
83317.1
83408.6
83501.8
83594.8
83685.3
83771.6
83851.8
83924
83987.2
84040.4
84082.9
84114.3
84134.5
84144
84143.2
84133
84114.5
84088.8
84057.6
84022
83983.5
83943.3
83902.8
83863.1
83825.2
83790
83758
83729.9
83705.9
83686.6
83672.4
83664
76779.1
76794.9
76822.2
76859.7
76906.5
76961.7
77024.6
77094.1
77167.1
77243.1
77319.9
77395.1
77466.2
77531.2
77587.8
77633.9
77668.5
77688.8
77694.4
77684.5
77658.9
77617.7
77561.7
77491.8
77409.5
77316.6
77214.9
77106.9
76994.9
76881.4
76768.7
76659.4
76555.7
76459.7
76373.7
76299.2
76237.9
76191
76159.5
76143.9
76144.6
76161.4
76194
76241.4
76302.5
76376
76460.1
76552.9
76652.1
76755.5
76860.7
76965.4
77067.2
77163.9
77253.5
77333.3
77402.7
77460.4
77505.6
77537.9
77557.3
77564.3
77559.6
77544.2
77519.6
77487
77448.3
77405.1
77358.9
77311.2
77263.6
77217.3
77173.4
77132.9
77096.5
77064.6
77037.6
77015.5
76999
76988.9
70065.7
70084.7
70116.3
70159
70212.4
70275.9
70348.7
70429.1
70514.9
70604.1
70694.3
70783
70867.4
70944.8
71012.8
71068.7
71111.6
71137.8
71147.1
71138.4
71111.6
71066.6
71004.4
70926.1
70833.5
70728.6
70613.5
70491.1
70364.2
70235.4
70107.7
69983.8
69866.3
69757.7
69660.2
69576
69506.8
69454
69418.7
69401.4
69402.7
69422.2
69459.7
69514
69584
69667.9
69763.9
69869.7
69982.7
70100.4
70220
70338.7
70453.9
70563
70664.2
70752.8
70829.5
70892.4
70940.7
70973.8
70991.9
70995.6
70985.9
70964.1
70931.8
70890.6
70843
70790.5
70735
70678.3
70622.1
70567.8
70516.7
70469.8
70428.2
70392.3
70362.1
70337.4
70318.3
70306.2
63337.4
63359.7
63395.6
63443.8
63504.6
63577.8
63662.5
63756.6
63857.6
63962.7
64069.2
64174.1
64274.4
64367
64448.7
64516.9
64569.2
64603
64616.9
64609.9
64581.6
64532.2
64462.6
64374.2
64269.2
64150
64018.9
63879.5
63734.9
63588.2
63442.8
63301.7
63168
63044.4
62933.7
62838
62759.5
62699.6
62659.8
62640.5
62642.4
62665.3
62708.5
62771.1
62851.5
62947.9
63058
63179.2
63308.6
63443.3
63580
63715.5
63846.5
63969.9
64082.3
64183.7
64269.5
64338.6
64390.2
64424
64440.2
64439.6
64423.4
64393.5
64351.8
64300
64241.4
64177.8
64111.1
64043.6
63977.1
63913.1
63853.2
63798.8
63750.8
63710.4
63677.1
63650.2
63629.1
63614.9
56591.9
56617.3
56657.5
56711.4
56780.6
56865.5
56964.7
57075.4
57194.4
57318.4
57444.2
57568.5
57687.8
57798.5
57896.9
57979.8
58043.9
58086.8
58106.4
58101.4
58071.5
58016.8
57938.4
57838.1
57718.3
57582.1
57432.1
57272.6
57107.2
56939.5
56773.3
56612.2
56459.4
56318.4
56192.1
56083
55993.5
55925.5
55880.2
55858.6
55861.4
55888.1
55938.2
56010.5
56103.2
56214.2
56340.9
56480.4
56629.3
56784.1
56941.1
57096.4
57246.4
57387.4
57515.9
57629.8
57725.6
57801.7
57856.9
57891
57904.3
57898
57873.7
57833.5
57780.3
57715.2
57643.5
57566.4
57486.5
57406.2
57327.4
57252
57181.7
57118.5
57062.8
57017.1
56980.9
56952.4
56929.8
56913.9
49827.1
49854.9
49899.5
49960.4
50040
50138.9
50255.1
50385.1
50524.9
50670.9
50819.3
50966.5
51108.3
51240.5
51358.9
51459.5
51538.3
51592.1
51618.7
51616.4
51584.6
51523.7
51435
51320.5
51183
51025.7
50854.1
50671.1
50481.3
50289.1
50098.6
49914
49739.1
49577.7
49433.1
49308.4
49206.2
49128.6
49077.2
49052.7
49056.3
49087.6
49145.8
49229.4
49336.6
49464.8
49611.1
49772.1
49943.9
50122.4
50303.3
50482.3
50654.9
50816.7
50964
51093
51200.5
51284.4
51343.5
51377.4
51386.7
51372.9
51338.1
51285.1
51217.1
51137.1
51049.2
50956
50860.6
50765.3
50672.6
50584.2
50502
50427.5
50364.2
50312.6
50272.8
50242.8
50219.3
50202.6
43040.5
43070.3
43120.4
43190.6
43283.4
43398.8
43534.3
43685.9
43849.2
44020.1
44194.6
44368.4
44536.7
44694.5
44836.8
44958.7
45055.1
45122.4
45157.5
45158.5
45124.6
45056.4
44955.4
44824.1
44665.8
44484.8
44286.5
44075.6
43857.2
43636.3
43417.6
43205.7
43005.1
42820
42654.3
42511.3
42394.2
42305.5
42247
42218.8
42223.8
42260.4
42327.9
42424.9
42548.9
42697.3
42866.6
43052.7
43251.3
43457.8
43666.9
43873.7
44073
44259.6
44428.8
44576.1
44697.2
44790.1
44853.2
44886.3
44890.1
44866.6
44818.5
44749.5
44663.6
44565.1
44458
44346.3
44232.8
44120.7
44012.4
43910.1
43815.3
43730.3
43657.5
43598.8
43554.2
43521.6
43497
43480
36229.2
36261.4
36318.7
36401.1
36510.1
36644.8
36802.1
36977.6
37167.1
37366.1
37570.3
37774.7
37973.9
38162
38332.8
38480
38597.8
38681.3
38726.7
38731.6
38695.3
38618.4
38502.7
38351.5
38168.5
37958.9
37729.2
37485.6
37234
36979.9
36728.7
36485.4
36255.1
36042.6
35852.3
35688.2
35553.8
35451.9
35384.8
35353.3
35359.5
35402.3
35480.8
35593.2
35737.1
35909
36105
36320.6
36550.6
36789.7
37031.9
37271.3
37502
37718
37913.1
38081.6
38219.1
38322.1
38389.3
38420.6
38417
38381
38316.3
38227.6
38120.1
37999.1
37869.7
37736.6
37602.8
37471.8
37346.6
37229.4
37121.8
37025.8
36943.6
36876.9
36826
36789.2
36762.7
36745.7
29390.2
29425.6
29491.7
29588.7
29716.9
29874
30056.2
30259
30478
30708.7
30946.6
31186.1
31421.1
31644.7
31849.2
32026.6
32169.7
32272.4
32330
32339.6
32300.2
32212.7
32079.7
31904.8
31692
31448.7
31182.2
30900.6
30610.9
30319
30030.5
29751.2
29486.7
29242.6
29023.9
28835.3
28680.8
28563.8
28486.8
28451.4
28458.9
28508.8
28600
28730.5
28897.3
29096.6
29323.8
29573.7
29840.4
30117.4
30398.1
30675.5
30943.1
31193.7
31419.7
31613.6
31770.2
31883.9
31955.1
31983.5
31970.1
31918.1
31832.5
31719.6
31586.2
31438.6
31282.6
31126.4
30969.4
30817.7
30674.4
30541.5
30420.8
30313.5
30221.6
30146.3
30088.2
30046
30016.8
29999.2
22519.3
22556.3
22631.3
22745
22896.2
23081
23293.6
23527.9
23780.7
24047.5
24323.6
24603.2
24879.1
25144.4
25388.4
25601.1
25773.8
25899
25970.9
25985.7
25942.1
25841.6
25688.2
25486.7
25238.7
24954.3
24644.3
24318.8
23985.8
23651.2
23320.6
23000.6
22697.5
22417.5
22166.4
21949.7
21772.4
21638.1
21549.8
21509.6
21518.6
21576.7
21682.5
21833.5
22026.6
22257.4
22520.5
22809.8
23118.6
23439.6
23764.5
24086
24396.8
24688.7
24952
25176.6
25355.4
25479
25553.5
25577.5
25551.3
25479.1
25367.6
25225.4
25061.2
24883.1
24698
24512
24331.1
24157.1
23994.3
23844.8
23710.1
23591
23487.7
23402.3
23335.6
23287.4
23256.1
23238.5
15611.7
15643.3
15725.1
15857.1
16036.5
16256.3
16508
16779.7
17071.8
17379.7
17698.5
18023.2
18348.1
18662.5
18952.5
19206.2
19412.9
19563.9
19652
19672.3
19623.1
19506.2
19328.4
19098.8
18807
18472.4
18110.2
17734
17352.5
16970.8
16594.3
16229.3
15883.2
15562.7
15274.6
15025.7
14822.4
14668.8
14567.5
14521.9
14533.2
14601.4
14724.4
14898.8
15121.7
15388.2
15691.9
16025.6
16381.9
16752.1
17126.8
17498.3
17859.6
18201.5
18510.7
18771.7
18971
19107.5
19186.3
19205.1
19162.2
19063.8
18919.9
18742.2
18542.1
18329.3
18110.8
17893.2
17683.4
17486
17302.8
17135.5
16985.3
16852.5
16734.3
16636
16559.3
16505.6
16474.3
16461.3
8676.98
8674.77
8756.36
8909.02
9122.74
9387.08
9690.55
10003.8
10344.8
10702.5
11070.7
11446.8
11830.1
12203.6
12547.8
12848.6
13093.8
13274
13380.3
13406
13348.3
13209
12997.3
12732.4
12395.9
12000.6
11576.4
11143.5
10710.1
10278.1
9849.79
9431.52
9032.14
8660.31
8324.44
8033.47
7796.91
7621.18
7506.23
7454.3
7468.79
7549.06
7691.93
7893.64
8154.19
8466.06
8821.52
9211.67
9628.03
10057.9
10489
10915.3
11333.6
11735.1
12101.6
12409.9
12638.1
12774.2
12859.3
12873.2
12808.8
12677.6
12493.7
12273.9
12032.7
11780.5
11524.1
11269.6
11027
10804.1
10597.5
10407.1
10236.3
10086.9
9952.11
9841.69
9756.94
9701.87
9678.27
9683.33
2679.54
2649.63
2693.61
2801.12
2960.33
3164.89
3407.29
3666.78
3975.09
4311.58
4667.96
5043.82
5428.26
5811.65
6174.81
6509.83
6804.53
7027.34
7163.27
7202.68
7140.51
6974.49
6716.46
6454.8
6062.88
5610.97
5158.29
4731.96
4333.33
3953.28
3589.01
3245.51
2926.23
2634.62
2376.07
2156.42
1997.99
1892.25
1821.46
1786.08
1790.66
1835.44
1919.23
2038.42
2231.35
2473.86
2757.59
3074.63
3417.82
3782.95
4162.76
4553.86
4961.77
5383.28
5791.19
6145.24
6400.68
6494.59
6601.74
6611.4
6505.83
6319.79
6094.39
5848.07
5591.7
5335.07
5081.83
4835.04
4601.45
4389.47
4196.37
4020.89
3874.43
3767.38
3656.83
3572.34
3509.44
3472.71
3468.33
3487.81
110.018
116.594
123.964
147.032
184.391
234.867
296.258
377.129
489.116
621.984
770.721
941.221
1116.31
1304.73
1497.32
1696.81
1896.97
2057.03
2161.1
2197.59
2169.45
2080.04
1933.93
1743.66
1506.94
1245.86
1008.26
809.672
642.824
495.888
366.366
257.178
168.357
98.0735
44.3793
4.92447
-6.56309
-7.18409
-7.04805
-7.04909
-7.04951
-7.12032
-7.08037
-5.97597
20.5309
66.5422
128.565
209.099
309.521
432.611
577.104
741.897
935
1160.82
1397.9
1607.5
1757.1
1838.74
1860.5
1827.3
1730.48
1586.8
1443.83
1307.09
1175.62
1052.88
938.908
834.135
737.491
649.927
573.015
502.346
447.394
413.196
389.714
368.946
352.244
341.657
342.541
355.176
-7.41949
-6.85578
-6.80621
-6.73896
-6.58517
-6.54728
-6.89022
-7.35273
-7.58466
-7.57225
-7.00885
-5.91469
-4.8389
-3.06393
3.41103
16.6277
34.9293
53.3305
65.9844
67.9561
58.3167
39.8785
17.6848
-6.26939
-8.7596
-8.36761
-8.09979
-8.22194
-8.21508
-8.07926
-7.78974
-7.60058
-7.51019
-7.46466
-7.46164
-7.4095
-7.51533
-7.63341
-7.64286
-7.67275
-7.65072
-7.61675
-7.52759
-7.30526
-7.27603
-7.31873
-7.36161
-7.3709
-7.34883
-7.41955
-7.53957
-7.63057
-7.69432
-7.79551
-7.97835
-8.01247
-5.43797
10.4679
15.7739
15.601
10.3898
3.27574
-2.00107
-4.44643
-4.7375
-4.90956
-5.29769
-5.69592
-6.20522
-7.05987
-7.77509
-8.15806
-8.19155
-8.10883
-8.00678
-7.98079
-7.98522
-7.96076
-7.921
-8.45142
-7.44923
-7.50522
-7.56605
-7.55476
-7.48724
-7.56823
-7.92843
-8.31154
-8.59438
-8.84312
-8.92646
-8.82176
-8.65228
-8.56281
-8.62132
-8.70805
-8.81319
-8.89039
-9.07646
-9.3041
-9.36429
-9.1696
-8.94378
-8.78621
-8.89421
-8.74857
-8.5387
-8.54852
-8.57936
-8.53201
-8.34564
-8.17201
-8.04881
-7.99736
-7.99649
-7.9962
-7.99261
-8.0983
-8.18578
-8.21601
-8.19893
-8.14811
-8.05113
-7.94678
-7.94241
-7.92821
-7.93449
-7.94093
-7.92939
-7.94849
-8.0157
-8.08619
-8.13842
-8.19875
-8.28862
-8.39179
-8.39668
-8.61746
-8.66058
-8.57812
-8.40024
-8.26342
-8.27565
-8.34749
-8.37325
-8.33336
-8.35282
-8.35234
-8.29713
-8.43918
-8.73819
-8.85217
-8.71448
-8.57986
-8.51293
-8.48516
-8.48759
-8.51722
-8.54068
-8.53776
-8.26623
-8.33124
-8.47963
-8.50395
-8.47189
-8.63666
-9.10055
-9.46314
-9.64325
-9.77478
-9.74638
-9.61029
-9.49841
-9.47401
-9.53273
-9.64704
-9.75359
-9.79301
-9.7827
-9.73993
-9.73701
-9.64187
-9.46518
-9.39369
-9.45284
-9.42427
-9.24678
-9.21255
-9.20265
-9.12237
-8.95412
-8.83359
-8.72981
-8.62818
-8.58559
-8.64143
-8.73522
-8.83681
-8.88964
-8.86191
-8.79598
-8.75121
-8.73203
-8.7
-8.69201
-8.68178
-8.67691
-8.68002
-8.63888
-8.58501
-8.59158
-8.63983
-8.70326
-8.76064
-8.79816
-8.83254
-8.91589
-9.0643
-9.14582
-9.14962
-9.0668
-9.0279
-9.05783
-9.10661
-9.11725
-9.08511
-9.0834
-9.04988
-8.96361
-9.00965
-9.24032
-9.30361
-9.18846
-9.06352
-9.00537
-9.00136
-9.04117
-9.08554
-9.11197
-9.15741
-9.11326
-9.33782
-9.55301
-9.64537
-9.6597
-9.82098
-10.1653
-10.3305
-10.4384
-10.4505
-10.3279
-10.1811
-10.1066
-10.0985
-10.1363
-10.217
-10.2984
-10.3186
-10.2854
-10.2518
-10.2835
-10.2437
-10.0476
-9.9626
-10.0052
-10.0373
-9.90052
-9.75415
-9.71813
-9.62556
-9.45652
-9.35567
-9.30746
-9.30819
-9.3383
-9.48874
-9.66795
-9.73433
-9.68012
-9.5428
-9.40735
-9.34975
-9.36805
-9.40464
-9.4335
-9.44435
-9.42785
-9.37587
-9.30336
-9.23077
-9.18516
-9.18661
-9.23455
-9.30008
-9.35112
-9.38163
-9.43125
-9.52552
-9.64128
-9.70714
-9.72129
-9.70279
-9.71422
-9.728
-9.72316
-9.69638
-9.68734
-9.67014
-9.63339
-9.74357
-9.98386
-9.95941
-9.78376
-9.6454
-9.55533
-9.52211
-9.5814
-9.61119
-9.6425
-9.65068
-9.99669
-10.3582
-10.6559
-10.8431
-10.9167
-10.9201
-10.8732
-10.7865
-10.7522
-10.7623
-10.7499
-10.7337
-10.7492
-10.7539
-10.7627
-10.8012
-10.8472
-10.8646
-10.8399
-10.8094
-10.8258
-10.8175
-10.6692
-10.5373
-10.5307
-10.5246
-10.4369
-10.3134
-10.2701
-10.1564
-9.96332
-9.82618
-9.85147
-10.0199
-10.262
-10.5362
-10.7378
-10.7713
-10.6344
-10.3872
-10.1858
-10.0982
-10.1083
-10.1468
-10.1505
-10.1429
-10.09
-9.98356
-9.87901
-9.79178
-9.72584
-9.70925
-9.74939
-9.82594
-9.90797
-9.95892
-10.0167
-10.1056
-10.1975
-10.2698
-10.3218
-10.333
-10.3183
-10.309
-10.3108
-10.3032
-10.2891
-10.2778
-10.2587
-10.341
-10.4837
-10.4196
-10.3341
-10.2497
-10.1673
-10.1598
-10.234
-10.2929
-10.2944
-10.2676
-10.8705
-11.1969
-11.5866
-11.9255
-12.0203
-11.8832
-11.5912
-11.2542
-11.015
-11.0473
-11.1651
-11.3126
-11.4104
-11.4205
-11.3796
-11.3483
-11.3575
-11.3844
-11.3788
-11.3411
-11.3241
-11.2946
-11.1892
-11.0814
-11.0451
-11.0052
-10.9445
-10.9015
-10.8678
-10.7483
-10.5733
-10.4399
-10.562
-10.8539
-11.2479
-11.5927
-11.7858
-11.8049
-11.6385
-11.3686
-11.1319
-11.0048
-10.9584
-10.9215
-10.858
-10.7858
-10.6901
-10.5631
-10.4259
-10.3081
-10.2333
-10.2122
-10.2548
-10.342
-10.4374
-10.5143
-10.5824
-10.6663
-10.7462
-10.8035
-10.8468
-10.8644
-10.854
-10.8504
-10.8645
-10.8728
-10.8635
-10.8586
-10.8382
-10.862
-10.9128
-10.897
-10.8893
-10.8727
-10.8217
-10.8445
-10.9083
-10.9754
-10.9353
-10.8708
-11.521
-11.7324
-12.1583
-12.529
-12.6118
-12.4806
-12.2549
-11.9244
-11.5566
-11.4902
-11.6544
-11.8785
-12.0277
-12.0505
-12.0051
-11.9544
-11.9383
-11.9411
-11.9318
-11.8882
-11.8369
-11.7703
-11.6724
-11.594
-11.5639
-11.518
-11.4944
-11.4942
-11.5067
-11.4118
-11.2633
-11.2291
-11.4551
-11.8085
-12.2541
-12.6042
-12.7755
-12.8104
-12.692
-12.4487
-12.182
-11.9934
-11.8676
-11.6919
-11.5525
-11.4327
-11.3119
-11.17
-11.0027
-10.8482
-10.7586
-10.7306
-10.7662
-10.8574
-10.9684
-11.072
-11.1567
-11.2343
-11.3027
-11.3597
-11.3939
-11.3977
-11.3845
-11.3797
-11.3955
-11.405
-11.4059
-11.4235
-11.3849
-11.3493
-11.3537
-11.3971
-11.4535
-11.495
-11.5092
-11.5309
-11.5451
-11.5426
-11.4825
-11.4376
-11.9982
-12.0857
-12.384
-12.7005
-12.8538
-12.8453
-12.7409
-12.591
-12.2788
-12.0656
-12.2281
-12.4671
-12.6365
-12.7036
-12.7112
-12.7021
-12.6872
-12.6487
-12.5887
-12.4975
-12.3848
-12.2662
-12.1629
-12.1001
-12.0853
-12.046
-12.0606
-12.0796
-12.1208
-12.143
-12.0757
-12.1585
-12.4019
-12.7773
-13.2088
-13.5325
-13.7322
-13.8354
-13.7731
-13.5239
-13.1929
-12.9023
-12.6771
-12.4349
-12.2405
-12.0884
-11.9605
-11.8174
-11.6216
-11.4339
-11.3287
-11.3087
-11.3494
-11.4327
-11.5449
-11.6616
-11.7559
-11.8265
-11.8879
-11.9422
-11.9711
-11.9697
-11.9508
-11.9377
-11.9383
-11.9399
-11.9384
-11.9569
-11.935
-11.8576
-11.8303
-11.9061
-12.0105
-12.1198
-12.1712
-12.1856
-12.1506
-12.0673
-11.9865
-11.938
-12.5041
-12.5498
-12.7094
-12.9273
-13.0935
-13.1523
-13.1501
-13.1208
-12.9721
-12.788
-12.8949
-13.0852
-13.2207
-13.363
-13.4787
-13.562
-13.5813
-13.4883
-13.3015
-13.1053
-12.9384
-12.7846
-12.6737
-12.6146
-12.5916
-12.5818
-12.6463
-12.7465
-12.8299
-12.9302
-12.973
-13.0662
-13.2569
-13.6123
-14.0102
-14.3389
-14.5893
-14.7586
-14.7637
-14.5481
-14.1639
-13.7439
-13.4051
-13.1461
-12.9206
-12.7468
-12.6312
-12.5155
-12.3073
-12.1191
-12.0084
-12.0191
-12.0856
-12.1606
-12.2393
-12.3284
-12.4189
-12.4831
-12.5282
-12.5631
-12.584
-12.5867
-12.5669
-12.5418
-12.5214
-12.5043
-12.4873
-12.4856
-12.4844
-12.4296
-12.3806
-12.4429
-12.5903
-12.7379
-12.791
-12.766
-12.6945
-12.5752
-12.4667
-12.3999
-13.0529
-13.1144
-13.1768
-13.3226
-13.4442
-13.5356
-13.5895
-13.6096
-13.5699
-13.5117
-13.5841
-13.6836
-13.8076
-14.0278
-14.2436
-14.3768
-14.4054
-14.256
-13.9639
-13.7003
-13.4998
-13.3225
-13.1858
-13.1117
-13.0814
-13.145
-13.3238
-13.5205
-13.6544
-13.7545
-13.7946
-13.8246
-13.9756
-14.289
-14.6723
-15.0336
-15.3246
-15.5255
-15.587
-15.4628
-15.1262
-14.6059
-14.1443
-13.8537
-13.6041
-13.413
-13.3168
-13.253
-13.0737
-12.9091
-12.8391
-12.8876
-12.9721
-13.0395
-13.0837
-13.1192
-13.1619
-13.1986
-13.2094
-13.2108
-13.2144
-13.2097
-13.1888
-13.1636
-13.1338
-13.1001
-13.0656
-13.0416
-13.035
-13.0274
-13.014
-13.0585
-13.2012
-13.3336
-13.3593
-13.2814
-13.1726
-13.0377
-12.9246
-12.8789
-13.595
-13.6283
-13.6212
-13.7158
-13.8404
-13.9698
-14.0743
-14.1361
-14.141
-14.1911
-14.2399
-14.3124
-14.4722
-14.6809
-14.8591
-14.9774
-14.9922
-14.8343
-14.5611
-14.3066
-14.0816
-13.8688
-13.6961
-13.6006
-13.6106
-13.7679
-14.0319
-14.2508
-14.3621
-14.3982
-14.3947
-14.4159
-14.5609
-14.8508
-15.2545
-15.6505
-15.9706
-16.195
-16.294
-16.244
-15.99
-15.5074
-14.9576
-14.5754
-14.2904
-14.0878
-14.0009
-13.9782
-13.8667
-13.7293
-13.7301
-13.8216
-13.9149
-13.9731
-14.0043
-14.0161
-13.9908
-13.9603
-13.9117
-13.8667
-13.8397
-13.8167
-13.7907
-13.767
-13.7381
-13.7023
-13.6596
-13.6202
-13.6023
-13.6094
-13.6373
-13.6904
-13.7923
-13.8734
-13.8539
-13.7573
-13.6168
-13.4894
-13.4027
-13.39
-14.2076
-14.2282
-14.2173
-14.2785
-14.4229
-14.5902
-14.7212
-14.8088
-14.8537
-14.9233
-14.9138
-15.0064
-15.1143
-15.2477
-15.3676
-15.4452
-15.4402
-15.3245
-15.1288
-14.9103
-14.6761
-14.4334
-14.2376
-14.1513
-14.2133
-14.4174
-14.6415
-14.7773
-14.8343
-14.8315
-14.8242
-14.8711
-15.0326
-15.3452
-15.8031
-16.243
-16.6013
-16.8641
-16.9821
-16.9375
-16.7094
-16.2993
-15.7848
-15.3385
-14.9896
-14.7585
-14.6732
-14.6487
-14.6048
-14.5128
-14.5669
-14.6543
-14.7267
-14.7984
-14.8623
-14.8934
-14.8496
-14.7362
-14.6119
-14.5172
-14.46
-14.4196
-14.3821
-14.3478
-14.3179
-14.2867
-14.2489
-14.2052
-14.1754
-14.1733
-14.1985
-14.2416
-14.2972
-14.3207
-14.2721
-14.1809
-14.07
-13.9819
-13.9248
-13.9201
-14.9121
-14.9585
-14.9922
-15.0983
-15.2962
-15.4996
-15.62
-15.717
-15.702
-15.6224
-15.6122
-15.6585
-15.7072
-15.7882
-15.8732
-15.9276
-15.9253
-15.8554
-15.7189
-15.5247
-15.287
-15.043
-14.8732
-14.8177
-14.8821
-15.0056
-15.1137
-15.1852
-15.1938
-15.1716
-15.1686
-15.2363
-15.4257
-15.7903
-16.3057
-16.7939
-17.1979
-17.5034
-17.6352
-17.561
-17.2894
-16.8915
-16.4649
-16.0435
-15.6824
-15.4099
-15.3248
-15.2745
-15.2495
-15.1953
-15.2464
-15.2918
-15.3416
-15.4184
-15.5201
-15.5896
-15.5604
-15.4251
-15.2632
-15.1432
-15.0707
-15.0189
-14.9712
-14.9249
-14.8826
-14.8456
-14.8135
-14.7784
-14.7455
-14.7304
-14.7336
-14.7482
-14.7526
-14.7241
-14.6579
-14.5668
-14.5394
-14.5259
-14.4951
-14.4783
-15.6182
-15.6679
-15.7433
-15.9415
-16.138
-16.3013
-16.367
-16.4548
-16.38
-16.2177
-16.2273
-16.2314
-16.2628
-16.3284
-16.3991
-16.4525
-16.4679
-16.428
-16.3206
-16.1437
-15.9191
-15.7287
-15.623
-15.5887
-15.5966
-15.6078
-15.6104
-15.5892
-15.5457
-15.4991
-15.486
-15.5551
-15.7625
-16.148
-16.6987
-17.2118
-17.647
-17.9631
-18.1022
-18.024
-17.7179
-17.3082
-16.9272
-16.603
-16.2985
-16.0381
-15.9155
-15.8491
-15.8148
-15.7797
-15.7903
-15.8163
-15.8594
-15.922
-16.0015
-16.0661
-16.0586
-15.9643
-15.8329
-15.7264
-15.6593
-15.6089
-15.5572
-15.5006
-15.4459
-15.3955
-15.3515
-15.3227
-15.303
-15.2874
-15.2779
-15.2724
-15.2472
-15.1844
-15.1051
-15.0332
-15.0518
-15.0917
-15.0879
-15.0607
-16.2542
-16.3038
-16.3951
-16.5933
-16.6907
-16.7937
-16.8794
-16.8987
-16.8338
-16.7578
-16.7566
-16.758
-16.7928
-16.8527
-16.9196
-16.9754
-17.0038
-16.9822
-16.893
-16.7395
-16.5654
-16.4519
-16.3912
-16.3364
-16.2599
-16.1858
-16.105
-16.0234
-15.9417
-15.8627
-15.8214
-15.8723
-16.0711
-16.4473
-16.9489
-17.4536
-17.8831
-18.1867
-18.3066
-18.2285
-17.9545
-17.5794
-17.2504
-17.0109
-16.7935
-16.5953
-16.4448
-16.3705
-16.3183
-16.2824
-16.2815
-16.3132
-16.3505
-16.3965
-16.4435
-16.4743
-16.4686
-16.421
-16.349
-16.2764
-16.23
-16.1915
-16.1393
-16.069
-16.0047
-15.9376
-15.8713
-15.8363
-15.8345
-15.8334
-15.8292
-15.8212
-15.7914
-15.7258
-15.6451
-15.5942
-15.6176
-15.6639
-15.6737
-15.6439
-16.8008
-16.8728
-16.966
-17.0979
-17.1216
-17.1924
-17.2668
-17.2861
-17.2716
-17.2554
-17.253
-17.2662
-17.3056
-17.3606
-17.422
-17.4756
-17.5073
-17.4948
-17.4216
-17.3036
-17.1923
-17.1148
-17.0446
-16.9421
-16.8287
-16.7173
-16.6092
-16.4924
-16.3775
-16.2804
-16.2215
-16.2456
-16.3965
-16.702
-17.1092
-17.538
-17.903
-18.1472
-18.2797
-18.2421
-18.0632
-17.8031
-17.5528
-17.358
-17.2059
-17.0485
-16.9032
-16.8411
-16.7826
-16.7464
-16.7643
-16.8109
-16.8495
-16.8889
-16.9209
-16.9368
-16.934
-16.9165
-16.8881
-16.8516
-16.8175
-16.7856
-16.7502
-16.7037
-16.6371
-16.5385
-16.4219
-16.3651
-16.3611
-16.3811
-16.396
-16.392
-16.3692
-16.3244
-16.2756
-16.252
-16.2397
-16.2488
-16.2418
-16.2148
-17.2682
-17.3634
-17.4918
-17.565
-17.5641
-17.6168
-17.6698
-17.6993
-17.7119
-17.7216
-17.7366
-17.7646
-17.8071
-17.8589
-17.9139
-17.9645
-17.9954
-17.9872
-17.9294
-17.8448
-17.7664
-17.6842
-17.5822
-17.4637
-17.3455
-17.2369
-17.1238
-16.9991
-16.8689
-16.7508
-16.6806
-16.6934
-16.8044
-17.025
-17.3294
-17.6541
-17.9451
-18.1754
-18.309
-18.3262
-18.2373
-18.0792
-17.892
-17.7187
-17.5844
-17.4224
-17.2944
-17.2409
-17.2249
-17.2229
-17.2554
-17.3166
-17.3683
-17.4141
-17.4514
-17.4717
-17.4789
-17.481
-17.4853
-17.4837
-17.4599
-17.4343
-17.4169
-17.398
-17.328
-17.1987
-17.0424
-16.9748
-16.976
-16.9955
-17.0047
-17.0024
-16.9839
-16.957
-16.9459
-16.9511
-16.8895
-16.8387
-16.7922
-16.7751
-17.6615
-17.7945
-17.9929
-18.0508
-18.0443
-18.0688
-18.0989
-18.128
-18.1536
-18.1811
-18.214
-18.2539
-18.3014
-18.3556
-18.4104
-18.4634
-18.4984
-18.4962
-18.4494
-18.3754
-18.2966
-18.2033
-18.0991
-18.0021
-17.9159
-17.8153
-17.6823
-17.5283
-17.3757
-17.2609
-17.2024
-17.2153
-17.3065
-17.4774
-17.7041
-17.9573
-18.2094
-18.4173
-18.5398
-18.5694
-18.5163
-18.4057
-18.2567
-18.0919
-17.9424
-17.77
-17.647
-17.6058
-17.6657
-17.7016
-17.7492
-17.8288
-17.9042
-17.9681
-18.023
-18.0573
-18.0773
-18.0905
-18.104
-18.1141
-18.1047
-18.0857
-18.0684
-18.0376
-17.9545
-17.8176
-17.7142
-17.6698
-17.6775
-17.7022
-17.6997
-17.679
-17.6511
-17.6148
-17.5932
-17.5968
-17.5315
-17.4204
-17.3326
-17.3369
-18.0059
-18.1633
-18.4533
-18.556
-18.5633
-18.5542
-18.5566
-18.5765
-18.6082
-18.6468
-18.6897
-18.7393
-18.7959
-18.8571
-18.9223
-18.9867
-19.0347
-19.0476
-19.014
-18.9466
-18.8699
-18.7934
-18.7217
-18.6455
-18.5484
-18.4176
-18.25
-18.0665
-17.9035
-17.7939
-17.7547
-17.7856
-17.8818
-18.0354
-18.2355
-18.4628
-18.6748
-18.8392
-18.9285
-18.9316
-18.867
-18.7651
-18.6344
-18.4749
-18.3012
-18.1246
-17.9957
-18.0009
-18.1181
-18.1712
-18.2439
-18.3451
-18.4491
-18.5421
-18.619
-18.6695
-18.7009
-18.7192
-18.7276
-18.7278
-18.7169
-18.6935
-18.6681
-18.635
-18.5758
-18.5115
-18.4767
-18.4388
-18.4334
-18.4697
-18.4913
-18.4365
-18.3758
-18.3048
-18.2314
-18.1783
-18.1144
-17.9872
-17.8893
-17.8999
-18.3789
-18.5216
-18.9062
-19.061
-19.0891
-19.0406
-19.0227
-19.0356
-19.0703
-19.1138
-19.1644
-19.223
-19.2906
-19.3673
-19.4525
-19.5367
-19.6062
-19.6446
-19.6398
-19.6009
-19.5447
-19.4811
-19.4095
-19.3198
-19.1915
-19.0175
-18.8131
-18.6047
-18.439
-18.3469
-18.3348
-18.3909
-18.4953
-18.6357
-18.8076
-18.9956
-19.1679
-19.2963
-19.3613
-19.3566
-19.2838
-19.1748
-19.0472
-18.8895
-18.7036
-18.5189
-18.3632
-18.4468
-18.5948
-18.6419
-18.7463
-18.8681
-18.9996
-19.1236
-19.2201
-19.2844
-19.3248
-19.3488
-19.3574
-19.356
-19.3418
-19.3172
-19.2836
-19.2623
-19.2757
-19.2912
-19.2593
-19.1847
-19.2015
-19.3032
-19.3523
-19.2797
-19.1536
-19.0274
-18.8882
-18.7606
-18.657
-18.5436
-18.4608
-18.4568
-18.905
-19.0312
-19.3701
-19.5431
-19.5634
-19.4947
-19.4744
-19.4885
-19.5274
-19.5768
-19.6359
-19.7043
-19.7868
-19.8877
-19.9995
-20.1093
-20.2073
-20.281
-20.3138
-20.3017
-20.2562
-20.1867
-20.0924
-19.976
-19.8206
-19.619
-19.3893
-19.1633
-18.9978
-18.9228
-18.9436
-19.0261
-19.1299
-19.2497
-19.3894
-19.5388
-19.6729
-19.7716
-19.8169
-19.8041
-19.7306
-19.6187
-19.5056
-19.3657
-19.1779
-18.9867
-18.8093
-18.9604
-19.1097
-19.1322
-19.2653
-19.4016
-19.5525
-19.7029
-19.8117
-19.8851
-19.9317
-19.9625
-19.9789
-19.9884
-19.9887
-19.9707
-19.9296
-19.9084
-19.9528
-19.9478
-19.841
-19.7462
-19.8557
-20.0852
-20.1984
-20.1372
-19.9606
-19.7702
-19.5652
-19.3675
-19.2138
-19.1072
-19.0334
-19.0136
-19.6763
-19.7799
-19.9296
-19.9732
-19.9432
-19.9043
-19.8997
-19.9283
-19.9775
-20.0379
-20.107
-20.188
-20.2893
-20.4199
-20.567
-20.7177
-20.8642
-20.9797
-21.0446
-21.0569
-21.0207
-20.9347
-20.8077
-20.6469
-20.4499
-20.2267
-20.0057
-19.8157
-19.6796
-19.6113
-19.6268
-19.7072
-19.7885
-19.879
-19.9933
-20.1203
-20.231
-20.306
-20.3284
-20.2915
-20.2081
-20.0984
-19.9956
-19.875
-19.7131
-19.5443
-19.392
-19.5526
-19.6317
-19.6772
-19.8016
-19.9477
-20.1114
-20.27
-20.3905
-20.473
-20.5327
-20.5766
-20.6047
-20.6214
-20.6311
-20.6208
-20.5877
-20.5483
-20.5227
-20.446
-20.3259
-20.2361
-20.5019
-20.8594
-21.0207
-20.9554
-20.7507
-20.5043
-20.2474
-19.9976
-19.7967
-19.6818
-19.6024
-19.579
-20.565
-20.7607
-20.6219
-20.3824
-20.2536
-20.272
-20.2992
-20.358
-20.4273
-20.5041
-20.5836
-20.6749
-20.8022
-20.972
-21.1718
-21.3857
-21.593
-21.7516
-21.8417
-21.8596
-21.8084
-21.6997
-21.5445
-21.3437
-21.0964
-20.8888
-20.7225
-20.6006
-20.5139
-20.4493
-20.4136
-20.4171
-20.4423
-20.5045
-20.6089
-20.7349
-20.8411
-20.9023
-20.9037
-20.8392
-20.7248
-20.6203
-20.5254
-20.4069
-20.2467
-20.0732
-20.0551
-20.1764
-20.1896
-20.2565
-20.3657
-20.505
-20.6698
-20.8321
-20.9637
-21.0631
-21.1487
-21.2117
-21.2545
-21.2741
-21.2772
-21.2724
-21.254
-21.2093
-21.136
-21.0157
-20.8838
-20.9623
-21.3048
-21.6991
-21.824
-21.7264