/*--------------------------------*- C++ -*----------------------------------*\
| =========                 |                                                 |
| \\      /  F ield         | OpenFOAM: The Open Source CFD Toolbox           |
|  \\    /   O peration     | Version:  2412                                  |
|   \\  /    A nd           | Website:  www.openfoam.com                      |
|    \\/     M anipulation  |                                                 |
\*---------------------------------------------------------------------------*/
FoamFile
{
    version     2.0;
    format      ascii;
    arch        "LSB;label=32;scalar=64";
    class       volScalarField;
    location    "7.25";
    object      p;
}
// * * * * * * * * * * * * * * * * * * * * * * * * * * * * * * * * * * * * * //

dimensions      [1 -1 -2 0 0 0 0];

internalField   nonuniform List<scalar> 
6400
(
24028.3
23650.1
23074.3
22759.9
23172.2
24384.1
25776.8
26348.2
25416.9
23230.3
20990.8
20184.5
21595.4
24659.4
27654
28690.1
26920.7
23182.8
19606.6
18370.4
20349.8
24510.8
28462.6
29864.1
27836.7
23516.3
19397.4
17861.3
19775.8
24004.3
28100.5
29751.5
28100.4
24183.7
20266
18508.7
19768.7
23198.9
26822.4
28686.4
27914.9
25092.8
21836.8
19861.8
20085.6
22233.6
25086.9
27174.5
27516.8
26056.3
23609.7
21417.5
20533.2
21339.8
23396.7
25669.5
27031
26807
25111.2
22802.2
21064.3
20804.1
22168.4
24446.2
26430.4
27061.2
26006.7
23849.3
21766
20873.7
21615.5
23537.7
25579
26685.2
26373.1
24914.8
23071.2
21592
20816.9
20551.8
22989.4
23178.5
22847.2
22103.4
21388.3
21375.1
22356.4
23895.2
25006.7
24794.8
23128.7
20868.3
19417
19836.3
22089.1
24945
26668.4
26095
23416.1
20142.9
18231.3
18888.8
21805.2
25300.9
27318.7
26658.8
23700.3
20171.8
18118.1
18693.9
21510.5
24904.9
26942.5
26535.2
24019.8
20892.6
18903.3
19067.2
21157.8
23924.6
25851.4
25989.3
24405.6
22052.2
20188.9
19713.5
20752.2
22676.3
24482.1
25303.7
24805.8
23296.6
21543.1
20396
20395.6
21526.6
23226.1
24647.9
25072
24269.3
22638.1
21019.6
20269.3
20796.8
22328.8
24042.3
25008.9
24710.7
23329.5
21638.2
20557.4
20638.3
21779.7
23331.5
24495.8
24751.7
24055.1
22746.3
21296.8
19762.4
21307.1
22228
22534.4
21979.7
20659.9
19407.4
19244.5
20606.4
22887.4
24691.4
24700.5
22613
19493.8
17225.5
17347.5
20013.7
23774.6
26385.2
26175.4
23128.6
18965.4
16146.1
16385.1
19594.3
23913.5
26817.1
26619.8
23467
19221.4
16336.7
16415.2
19311.7
23288.5
26078.6
26196.1
23723.5
20164.6
17514.9
17133.4
19058.6
22102.3
24591.4
25288.3
23985.2
21503.5
19175.4
18135.6
18793.7
20712.1
22889.6
24270.6
24231.6
22841.4
20802.6
19114.7
18604.3
19527.8
21432.6
23359.7
24313.8
23780.5
22018.4
19950.2
18682.9
18905.1
20495.9
22581.9
24021.3
24044.8
22680
20713.4
19223.2
18972.3
20019.9
21750.4
23249.2
23773.8
23084.8
21548.2
19480.2
19286.4
20652.3
21727.4
21986.3
20929.3
18941.1
17263.9
17219.6
19222
22301.6
24566.6
24385.9
21540.6
17539.2
14801.6
15163
18643.6
23309
26374
25902.1
22041.3
17001.6
13756.2
14250.9
18222.4
23350
26646.1
26229.1
22408.2
17450.2
14204.5
14439.9
17879
22456.7
25583.9
25628.8
22757.7
18712.9
15739.7
15332.8
17506.7
20927
23736.8
24562
23153.5
20391.6
17737.1
16470.9
17107.9
19227.3
21740.8
23432
23516.2
21985.7
19603
17543.7
16838
17858.2
20106.7
22436.7
23625.8
23025.7
20934.8
18466.3
16955.6
17222.6
19107
21556.3
23222.5
23223.5
21622.8
19356.5
17672.4
17429.6
18660.3
20601.9
22146.2
22456.2
21501.7
19674.5
17492.2
18489.6
19906.9
21209.9
21388.4
19876.5
17298.3
15259.9
15322.7
17846.2
21541.4
24135.4
23797.8
20415.4
15834.6
12827.7
13378.3
17369
22540.4
25805.7
25132.2
20820.6
15369.6
11990.2
12676.6
17015.4
22450.4
25825.2
25247.6
21158.2
15995.1
12709.9
13056.8
16660
21351.3
24497.5
24492.1
21557.4
17473.5
14483.7
14060.8
16209.5
19615.5
22454
23359.3
22046.3
19330.6
16625.8
15225.1
15718.8
17780.1
20369.1
22233
22483.5
21006.4
18526.2
16276.8
15406.5
16389.6
18748.3
21261.9
22591.5
22006.4
19806.9
17185.4
15575.7
15849.7
17824.8
20376.3
22089.3
22064.1
20400.9
18096.4
16438.5
16269.8
17537
19364.6
20626
20754.8
19911.4
16574.1
16323.1
17178.8
18953.3
20653.7
20846.4
18919
15748.9
13304.8
13387.6
16333.2
20592.9
23564.3
23216
19470.2
14405.6
11072.1
11614.2
15880.5
21427.4
24956.8
24317.8
19834.1
14128.1
10548.5
11167.7
15568.4
21138
24654.8
24182.4
20139.1
14952.1
11572.1
11773.7
15233.3
19855.4
23061.8
23239.8
20529.2
16585.4
13557.8
12919.8
14786.1
18004.4
20868.4
22009.5
21012.5
18509
15785.2
14142.6
14312.6
16157.5
18760.7
20854.9
21411.4
20138.5
17651.3
15202.5
14066.6
14869.6
17221.9
19885.1
21420.9
20984.8
18813.2
16108.4
14366
14526.1
16446.2
19004.3
20765.5
20807.8
19219.3
16992.7
15402.7
15248.7
16413.4
18020
19160
19598.9
16662.7
14924.5
14435.8
15555.2
17975.3
20144
20343.6
17986.4
14224.3
11374.8
11460.7
14794.6
19588
22934.7
22612.1
18560.7
13055.7
9393.65
9875.11
14343.6
20216.8
24018.7
23479.4
18907.2
12996.7
9201.36
9679
14053.5
19709.4
23390.3
23102.1
19192.2
14024.3
10522.9
10500.7
13734.9
18251.3
21546.3
21980.9
19566.9
15793.3
12700.7
11783.8
13306.8
16313.6
19225.5
20653.5
20020.3
17748.3
14990.2
13069.8
12881.6
14493.9
17117.2
19461.5
20345.8
19291.7
16802.3
14150
12738.1
13346.7
15677.6
18480.2
20222.8
19949.5
17828.6
15062.1
13196
13233.5
15074.8
17609.6
19393.6
19492.4
17990.5
15878.2
14406.9
14318
15444
16971.4
18356.8
17101.4
14647.2
12807.2
12355.1
13998.7
17050.5
19614.1
19785.6
17029.5
12746.4
9551.59
9643.07
13297.6
18520.5
22163.4
21864.8
17592
11771.8
7873.67
8297.46
12876.5
18941.4
22917.6
22473.6
17905.2
11924.2
8010.86
8353.12
12615.4
18232.3
21985.1
21871.6
18168.9
13130.3
9591.24
9359.27
12311.2
16631.3
19941.3
20611.8
18531.1
14996.5
11902.6
10735.9
11900.7
14649
17554.1
19230.4
18954.1
16939.6
14194.9
12045.3
11526.4
12898.2
15499.5
18035.7
19202.5
18359.9
15906
13116.2
11487.9
11921.6
14197.4
17068.7
18948.2
18807.6
16764.9
14008.3
12097.2
12055.9
13802.5
16242.6
17955.6
18044.2
16632.3
14721.5
13508.4
13612
14727.9
16280.3
16780.4
15050
12802.4
10804.8
10474.9
12537
16092.1
18974.8
19124.7
16050.2
11356
7887.77
7967.43
11835.6
17348.6
21199.4
20946
16576.5
10599.2
6563.34
6907.04
11464
17555.2
21604.1
21277.2
16843.5
10954.6
7022.71
7211.2
11240.2
16667.6
20398.4
20471.4
17079.4
12302.1
8811.81
8368.49
10957.6
14971.8
18218
19113.3
17420
14209.8
11186.5
9796.04
10576.1
13004.5
15836.5
17719
17798.9
16081.7
13412.8
11091.3
10267.1
11377.8
13897.3
16554.4
17957.5
17331.4
14970.2
12124.2
10341.7
10608.4
12776
15629.1
17571.6
17543.4
15624
12965.1
11092.9
11008.3
12625.8
14882.7
16430.5
16469.2
15200.5
13614.7
12755.7
12954.5
13897.2
14904.7
15099.9
13818.1
11362.4
9057.31
8721.31
11087.8
15047.4
18192.1
18338.5
15040.8
10059.6
6397.04
6445.49
10414.2
16074.1
20045.1
19859.7
15515.9
9532.01
5447.66
5686.45
10098.2
16067.8
20103.7
19918.1
15735
10074.9
6203.25
6217.64
9912.19
15030.6
18669.1
18941.3
15940.9
11523.4
8143.96
7487.21
9656.54
13289
16416.3
17525.1
16250.7
13418.6
10516
8927.87
9317.12
11391.7
14103.3
16151.1
16570.3
15167.1
12619.9
10181.6
9088.54
9934.64
12327.1
15039
16626.7
16210.2
13986
11157.1
9282.21
9397.06
11415.5
14175
16112.1
16172.3
14410.3
11922.4
10161.8
10064.6
11525
13530.9
14855.5
14844.1
13772.7
12533.6
11861.9
11839.1
11646.7
13869.2
14449
13032.2
10054.1
7395.77
7049.04
9660.87
13920
17246.4
17397.3
13979.2
8852.11
5090.55
5098.09
9055.27
14712.4
18704.3
18596.1
14389.4
8546.12
4509.87
4635.77
8798.46
14510.5
18444.3
18404.8
14561.6
9248.22
5515.85
5357.24
8647.85
13361.8
16839.5
17301.5
14738.8
10752.4
7542.2
6692.33
8420.61
11623.8
14582
15871.9
15013.2
12585.2
9847.48
8106.36
8130.21
9843.47
12394.5
14551.4
15265.6
14169.5
11781.6
9291.8
7988.38
8587.6
10817.3
13512.9
15217.9
14985.9
12931.4
10191.8
8296.15
8289.78
10131.9
12728.7
14588.3
14701.7
13116.7
10861.2
9278.27
9201.8
10491
12205.1
13275.6
13203.9
12292.6
11251.8
10463.9
8155.18
11235
13443.7
13972.1
12105.8
8700.17
5839.13
5525.12
8295.89
12710.9
16116.5
16276.7
12849.6
7730.33
3975.78
3938.31
7772.26
13272.9
17179.5
17149.8
13184.8
7626.3
3738.31
3753.44
7576.12
12903.7
16645.2
16744.1
13312.3
8449.86
4935.52
4619.28
7458.05
11688.6
14938.4
15564.9
13462.4
9960.3
6976.47
5969.82
7259.89
10004.3
12744.6
14167.8
13698.5
11683.3
9153.21
7317.84
7022.52
8382.43
10734.5
12932.8
13880.4
13071
10877.5
8409.7
6967.53
7348.64
9384.01
11988.2
13734.4
13653
11794.9
9216.64
7375.76
7285.4
8930.82
11300.9
13012.7
13141.8
11747
9775.01
8425.22
8397.49
9507.34
10899
11678.1
11498.4
10688.8
9689.8
5841.56
8035.79
10615.2
12775.5
13097.9
10973.5
7387.23
4472.84
4193.21
7006.53
11420.2
14797.6
14969
11641.8
6682.81
3043.1
2962.7
6571.15
11770.6
15488.8
15532.4
11899.2
6754.22
3107.67
3021.35
6431.94
11268.4
14736.7
14958.5
11987.7
7657.36
4429.12
3979.25
6341.42
10033.7
12999.3
13756.3
12113.6
9125.74
6414.87
5296
6171.95
8449.67
10932.7
12434.3
12309.9
10697.7
8409.21
6543.28
5989.44
7019.13
9141.86
11311.7
12421.3
11866.6
9894.89
7521.42
6017.02
6216.85
8034.02
10476.5
12187.8
12218.3
10575.7
8222.24
6506.68
6370.47
7806.42
9897.57
11402.8
11515.6
10319.3
8666.6
7585.04
7617.05
8529.92
9568.28
10039.5
9803.53
9126.88
5418.07
5521.18
7004.95
9481.8
11663.9
11942.8
9760.68
6173
3309.57
3058.68
5806
10065.3
13300.4
13471.2
10338.9
5685.18
2271.55
2164.28
5464.12
10232.6
13661.4
13759.4
10524.2
5900.09
2581.98
2417.44
5371.29
9635.72
12759
13074.4
10584.9
6839.67
3954.97
3408.58
5298.72
8426.52
11062.8
11904.7
10693.6
8222.53
5819.63
4642.9
5153.48
6981.39
9179.51
10697.6
10853.1
9612.44
7588.15
5759.08
5022.63
5762.98
7637.31
9708.99
10899.5
10554
8820.06
6608.96
5122.49
5187.39
6773.82
8992.79
10595.6
10693.9
9274.98
7197.56
5669.43
5525.22
6748.03
8523.96
9780.29
9853.24
8858.01
7539.68
6732.39
6810.77
7509.5
8215.97
8503.75
8375.56
6394.3
4475.43
4141.52
5528.02
8138.62
10359.3
10617.3
8477.18
5036.65
2339.84
2130.57
4711.65
8659.59
11628.4
11776.2
8926.48
4721.36
1649.39
1541.22
4461.66
8678.69
11717.3
11839.9
9051.46
5040.76
2134.98
1927.37
4401.16
8031.45
10742.6
11109.2
9097.87
5970.01
3480.81
2888.29
4335.27
6893.31
9160.94
10029
9198.02
7226.31
5161.1
3992.55
4207.49
5620.42
7510.94
8974.08
9327.05
8411.36
6668.99
4950.66
4120.38
4624.12
6236.16
8137.31
9320.23
9129.83
7643.99
5661.44
4275.04
4256.2
5605.78
7545.84
8970.2
9091.86
7898.14
6137.17
4847.77
4728.61
5740.39
7180.73
8164.83
8185.59
7387.59
6394.57
5839.69
5947.15
6463.06
6964.66
7263.55
7422.93
4670.43
2937.95
2661.92
4220.6
6818.78
8905.76
9103.47
7106.43
3971.85
1556.49
1394.18
3706.36
7195.46
9791.16
9907.19
7427.35
3797.87
1161.17
1064.79
3539.92
7105.44
9676.29
9804.97
7503.6
4176.32
1744.49
1520.83
3501.81
6457.89
8709.31
9090.33
7542.64
5044.79
2987.23
2395.9
3438.74
5437.64
7308.93
8146.16
7635.86
6134.89
4429.3
3333.95
3327.5
4366.42
5931.07
7269.27
7736.89
7098.31
5653.57
4116.78
3277.54
3594.5
4931.03
6594.78
7689.72
7606.79
6378.94
4682.86
3466.36
3406.01
4513.38
6130.44
7322.73
7434.32
6466.05
5047.33
4027.76
3953.07
4758.14
5860.61
6572.42
6541.47
5930.3
5234.79
4902.59
5045.15
5446.04
5878.53
7247.86
5069.43
3077.04
1659.58
1625.02
3148.3
5486.26
7298.4
7426.79
5657.39
2944.42
893.127
787.129
2768.75
5707.36
7861.66
7934.94
5868.9
2882.08
732.166
661.033
2668.14
5542.6
7610.88
7727.62
5913.25
3282.06
1344.57
1129.03
2639.55
4932.79
6715.59
7079.78
5953.58
4054.64
2429.53
1877.47
2574.25
4059.6
5538.68
6301.22
6042.52
4957.73
3605.3
2630.62
2477.55
3200.71
4446.56
5611.55
6118.97
5700.22
4546.17
3236.48
2457.85
2640.62
3708.61
5095.85
6043.36
6022.87
5045.28
3664.71
2663.33
2596.76
3471.17
4749.42
5682.52
5761.15
5007.46
3930.48
3184.95
3161.45
3772.07
4557.01
5019.33
4947.25
4508.83
4076.74
3936.74
4101.26
4426.03
5535.96
4624.87
3354.35
1866.51
828.114
911.84
2239.83
4165.32
5576.31
5567.95
4048.1
1858.05
297.007
330.667
1981.7
4293.47
5899.28
5848.09
4176.41
1877.77
297.615
331.084
1911.05
4081.7
5589.13
5616.82
4227.64
2274.12
866.077
733.443
1853.9
3530.29
4829.73
5104.8
4304.78
2936.45
1741.74
1298.09
1754.31
2810.56
3912.51
4535.4
4418.02
3655.41
2631.72
1836.97
1646.48
2150.88
3108.44
4048.67
4493.68
4200.85
3303.59
2262.6
1634.16
1768.01
2602.59
3683.93
4412.17
4382.34
3620.63
2570.99
1834.51
1815.4
2488.21
3427.5
4077.86
4092.43
3527.17
2775.43
2297.54
2330.53
2766.97
3268.38
3517.1
3422.69
3144.36
2931.84
2914.51
3058.18
2979.51
3021.32
2684.05
1899.98
929.195
313.388
502.568
1497.03
2772.88
3570.79
3370.15
2238.25
820.424
-38.7878
188.789
1385.09
2849.19
3719.01
3489.08
2307.29
876.041
25.0683
222.488
1316.92
2651.64
3466.69
3337.07
2390.84
1199.28
426.377
456.433
1210.06
2230.17
2962.4
3055.76
2520.96
1683.74
985.789
755.357
1063.84
1721.69
2393.21
2761.85
2669.4
2176.03
1524.93
1030
932.082
1283.76
1916.26
2512.66
2762.49
2525.35
1915.81
1254.5
900.413
1051.55
1627.56
2308.05
2712.3
2618.46
2091.93
1444.58
1047.63
1111.92
1569.93
2129.47
2461.61
2400.8
2030.87
1609.54
1390.4
1465.34
1729.06
1977.66
2061.16
1977.35
1844.05
1776.37
1800.11
692.236
838.334
888.781
796.765
563.096
305.192
191.145
317.925
631.631
951.716
1080.15
927.204
574.714
229.904
100.064
266.248
631.216
979.267
1106.31
940.977
585.726
250.845
127.196
277.058
602.955
912.831
1035.08
913.592
631.681
354.488
230.528
313.22
540.978
782.066
911.571
874.485
705.418
500.394
362.187
350.847
461.267
632.739
781.715
840.155
783.883
641.646
481.851
381.793
391.839
509.662
677.964
810.716
836.537
738.301
566.103
412.764
363.168
445.957
615.03
774.856
835.417
764.589
606.955
456.194
397.972
459.66
596.405
722.425
765.843
711.32
604.446
516.801
497.442
544.498
613.639
654.867
649.009
616.958
593.304
593.43
-9.92276
-9.73907
-9.65841
-9.74912
-9.89968
-9.96331
-10.0949
-10.0598
-9.9719
-9.65106
-9.32565
-9.55452
-9.91334
-10.0101
-10.1757
-10.0922
-9.98303
-9.6687
-9.36037
-9.57682
-9.93847
-10.0112
-10.1309
-10.0713
-9.99602
-9.79347
-9.57497
-9.68121
-9.9472
-9.99457
-10.051
-10.038
-10.0003
-9.93067
-9.80233
-9.78469
-9.90881
-9.99889
-10.01
-10.0163
-9.99827
-9.9959
-9.94643
-9.86336
-9.84996
-9.93925
-10.0024
-10.0033
-10.0003
-9.98394
-9.99022
-9.88805
-9.79045
-9.84513
-9.98089
-9.98946
-9.99902
-9.98603
-9.99057
-9.9007
-9.77467
-9.80806
-9.96018
-9.9774
-9.98197
-9.9739
-9.98674
-9.9267
-9.84816
-9.88504
-9.98736
-9.98965
-9.98144
-9.9874
-10.0145
-9.9895
-9.98836
-10.0162
-10.0223
-10.025
-10.5459
-10.5456
-10.5454
-10.5453
-10.5455
-10.5458
-10.546
-10.5461
-10.5459
-10.5455
-10.5452
-10.5452
-10.5454
-10.5458
-10.5461
-10.5461
-10.5458
-10.5455
-10.5452
-10.5452
-10.5454
-10.5458
-10.546
-10.546
-10.5458
-10.5455
-10.5453
-10.5452
-10.5454
-10.5457
-10.5459
-10.5459
-10.5458
-10.5456
-10.5454
-10.5453
-10.5454
-10.5456
-10.5457
-10.5458
-10.5458
-10.5457
-10.5455
-10.5454
-10.5454
-10.5455
-10.5456
-10.5457
-10.5458
-10.5458
-10.5457
-10.5455
-10.5454
-10.5454
-10.5455
-10.5457
-10.5458
-10.5458
-10.5457
-10.5456
-10.5454
-10.5454
-10.5455
-10.5457
-10.5458
-10.5458
-10.5457
-10.5456
-10.5455
-10.5455
-10.5456
-10.5457
-10.5458
-10.5457
-10.5457
-10.5456
-10.5456
-10.5456
-10.5457
-10.5457
-11.0362
-11.0362
-11.0361
-11.036
-11.0361
-11.0362
-11.0363
-11.0363
-11.0362
-11.0361
-11.036
-11.036
-11.0361
-11.0362
-11.0363
-11.0363
-11.0362
-11.0361
-11.036
-11.036
-11.036
-11.0362
-11.0362
-11.0363
-11.0362
-11.0361
-11.036
-11.036
-11.036
-11.0361
-11.0362
-11.0362
-11.0362
-11.0361
-11.0361
-11.036
-11.036
-11.0361
-11.0361
-11.0362
-11.0362
-11.0361
-11.0361
-11.0361
-11.036
-11.0361
-11.0361
-11.0361
-11.0362
-11.0362
-11.0361
-11.0361
-11.0361
-11.036
-11.0361
-11.0361
-11.0362
-11.0362
-11.0362
-11.0361
-11.0361
-11.0361
-11.0361
-11.0361
-11.0362
-11.0362
-11.0362
-11.0361
-11.0361
-11.0361
-11.0361
-11.0362
-11.0362
-11.0362
-11.0362
-11.0361
-11.0361
-11.0362
-11.0362
-11.0362
-11.5267
-11.5267
-11.5267
-11.5267
-11.5266
-11.5266
-11.5266
-11.5267
-11.5267
-11.5267
-11.5267
-11.5266
-11.5266
-11.5266
-11.5266
-11.5267
-11.5267
-11.5267
-11.5267
-11.5266
-11.5266
-11.5266
-11.5266
-11.5266
-11.5267
-11.5267
-11.5266
-11.5266
-11.5266
-11.5266
-11.5266
-11.5266
-11.5266
-11.5266
-11.5266
-11.5266
-11.5266
-11.5266
-11.5266
-11.5266
-11.5266
-11.5266
-11.5266
-11.5266
-11.5266
-11.5266
-11.5266
-11.5266
-11.5266
-11.5266
-11.5266
-11.5266
-11.5266
-11.5266
-11.5266
-11.5266
-11.5266
-11.5266
-11.5266
-11.5267
-11.5266
-11.5266
-11.5266
-11.5266
-11.5266
-11.5266
-11.5267
-11.5267
-11.5267
-11.5266
-11.5266
-11.5266
-11.5266
-11.5267
-11.5267
-11.5267
-11.5267
-11.5267
-11.5267
-11.5267
-12.0172
-12.0172
-12.0172
-12.0172
-12.0172
-12.0172
-12.0171
-12.0171
-12.0171
-12.0172
-12.0172
-12.0172
-12.0171
-12.0171
-12.0171
-12.0171
-12.0171
-12.0171
-12.0172
-12.0171
-12.0171
-12.0171
-12.0171
-12.0171
-12.0171
-12.0171
-12.0171
-12.0171
-12.0171
-12.0171
-12.0171
-12.0171
-12.0171
-12.0171
-12.0171
-12.0171
-12.0171
-12.0171
-12.0171
-12.0171
-12.0171
-12.0171
-12.0171
-12.0171
-12.0171
-12.0171
-12.0171
-12.0171
-12.0171
-12.0171
-12.0171
-12.0171
-12.0171
-12.0171
-12.0171
-12.0171
-12.0171
-12.0171
-12.0171
-12.0171
-12.0171
-12.0171
-12.0171
-12.0171
-12.0171
-12.0171
-12.0171
-12.0171
-12.0172
-12.0172
-12.0171
-12.0171
-12.0171
-12.0172
-12.0172
-12.0172
-12.0172
-12.0172
-12.0172
-12.0172
-12.5077
-12.5077
-12.5077
-12.5077
-12.5077
-12.5077
-12.5077
-12.5077
-12.5077
-12.5076
-12.5076
-12.5076
-12.5077
-12.5076
-12.5076
-12.5076
-12.5076
-12.5076
-12.5076
-12.5076
-12.5076
-12.5076
-12.5076
-12.5076
-12.5076
-12.5076
-12.5076
-12.5076
-12.5076
-12.5076
-12.5076
-12.5076
-12.5076
-12.5076
-12.5076
-12.5076
-12.5076
-12.5076
-12.5076
-12.5076
-12.5076
-12.5076
-12.5076
-12.5076
-12.5076
-12.5076
-12.5076
-12.5076
-12.5076
-12.5076
-12.5076
-12.5076
-12.5076
-12.5076
-12.5076
-12.5076
-12.5076
-12.5076
-12.5076
-12.5076
-12.5076
-12.5076
-12.5076
-12.5076
-12.5076
-12.5076
-12.5076
-12.5076
-12.5076
-12.5076
-12.5076
-12.5077
-12.5077
-12.5077
-12.5077
-12.5077
-12.5077
-12.5077
-12.5077
-12.5077
-12.9982
-12.9982
-12.9982
-12.9982
-12.9982
-12.9982
-12.9982
-12.9982
-12.9982
-12.9982
-12.9981
-12.9981
-12.9981
-12.9981
-12.9981
-12.9981
-12.9981
-12.9981
-12.9981
-12.9981
-12.9981
-12.9981
-12.9981
-12.9981
-12.9981
-12.9981
-12.9981
-12.9981
-12.9981
-12.9981
-12.9981
-12.9981
-12.9981
-12.9981
-12.9981
-12.9981
-12.9981
-12.9981
-12.9981
-12.9981
-12.9981
-12.9981
-12.9981
-12.9981
-12.9981
-12.9981
-12.9981
-12.9981
-12.9981
-12.9981
-12.9981
-12.9981
-12.9981
-12.9981
-12.9981
-12.9981
-12.9981
-12.9981
-12.9981
-12.9981
-12.9981
-12.9981
-12.9981
-12.9981
-12.9981
-12.9981
-12.9981
-12.9981
-12.9981
-12.9981
-12.9981
-12.9982
-12.9982
-12.9982
-12.9982
-12.9982
-12.9982
-12.9982
-12.9982
-12.9982
-13.4887
-13.4887
-13.4887
-13.4887
-13.4887
-13.4887
-13.4887
-13.4887
-13.4887
-13.4887
-13.4887
-13.4886
-13.4886
-13.4886
-13.4886
-13.4886
-13.4886
-13.4886
-13.4886
-13.4886
-13.4886
-13.4886
-13.4886
-13.4886
-13.4886
-13.4886
-13.4886
-13.4886
-13.4886
-13.4886
-13.4886
-13.4886
-13.4886
-13.4886
-13.4886
-13.4886
-13.4886
-13.4886
-13.4886
-13.4886
-13.4886
-13.4886
-13.4886
-13.4886
-13.4886
-13.4886
-13.4886
-13.4886
-13.4886
-13.4886
-13.4886
-13.4886
-13.4886
-13.4886
-13.4886
-13.4886
-13.4886
-13.4886
-13.4886
-13.4886
-13.4886
-13.4886
-13.4886
-13.4886
-13.4886
-13.4886
-13.4886
-13.4886
-13.4886
-13.4886
-13.4886
-13.4887
-13.4887
-13.4887
-13.4887
-13.4887
-13.4887
-13.4887
-13.4887
-13.4887
-13.9792
-13.9792
-13.9792
-13.9792
-13.9792
-13.9792
-13.9792
-13.9792
-13.9792
-13.9792
-13.9792
-13.9792
-13.9791
-13.9791
-13.9791
-13.9791
-13.9791
-13.9791
-13.9791
-13.9791
-13.9791
-13.9791
-13.9791
-13.9791
-13.9791
-13.9791
-13.9791
-13.9791
-13.9791
-13.9791
-13.9791
-13.9791
-13.9791
-13.9791
-13.9791
-13.9791
-13.9791
-13.9791
-13.9791
-13.9791
-13.9791
-13.9791
-13.9791
-13.9791
-13.9791
-13.9791
-13.9791
-13.9791
-13.9791
-13.9791
-13.9791
-13.9791
-13.9791
-13.9791
-13.9791
-13.9791
-13.9791
-13.9791
-13.9791
-13.9791
-13.9791
-13.9791
-13.9791
-13.9791
-13.9791
-13.9791
-13.9791
-13.9791
-13.9791
-13.9791
-13.9792
-13.9792
-13.9792
-13.9792
-13.9792
-13.9792
-13.9792
-13.9792
-13.9792
-13.9792
-14.4697
-14.4697
-14.4697
-14.4697
-14.4697
-14.4697
-14.4697
-14.4697
-14.4697
-14.4697
-14.4697
-14.4697
-14.4696
-14.4696
-14.4696
-14.4696
-14.4696
-14.4696
-14.4696
-14.4696
-14.4696
-14.4696
-14.4696
-14.4696
-14.4696
-14.4696
-14.4696
-14.4696
-14.4696
-14.4696
-14.4696
-14.4696
-14.4696
-14.4696
-14.4696
-14.4696
-14.4696
-14.4696
-14.4696
-14.4696
-14.4696
-14.4696
-14.4696
-14.4696
-14.4696
-14.4696
-14.4696
-14.4696
-14.4696
-14.4696
-14.4696
-14.4696
-14.4696
-14.4696
-14.4696
-14.4696
-14.4696
-14.4696
-14.4696
-14.4696
-14.4696
-14.4696
-14.4696
-14.4696
-14.4696
-14.4696
-14.4696
-14.4696
-14.4696
-14.4696
-14.4697
-14.4697
-14.4697
-14.4697
-14.4697
-14.4697
-14.4697
-14.4697
-14.4697
-14.4697
-14.9602
-14.9602
-14.9602
-14.9602
-14.9602
-14.9602
-14.9602
-14.9602
-14.9602
-14.9602
-14.9602
-14.9601
-14.9601
-14.9601
-14.9601
-14.9601
-14.9601
-14.9601
-14.9601
-14.9601
-14.9601
-14.9601
-14.9601
-14.9601
-14.9601
-14.9601
-14.9601
-14.9601
-14.9601
-14.9601
-14.9601
-14.9601
-14.9601
-14.9601
-14.9601
-14.9601
-14.9601
-14.9601
-14.9601
-14.9601
-14.9601
-14.9601
-14.9601
-14.9601
-14.9601
-14.9601
-14.9601
-14.9601
-14.9601
-14.9601
-14.9601
-14.9601
-14.9601
-14.9601
-14.9601
-14.9601
-14.9601
-14.9601
-14.9601
-14.9601
-14.9601
-14.9601
-14.9601
-14.9601
-14.9601
-14.9601
-14.9601
-14.9601
-14.9601
-14.9602
-14.9602
-14.9602
-14.9602
-14.9602
-14.9602
-14.9602
-14.9602
-14.9602
-14.9602
-14.9602
-15.4507
-15.4507
-15.4507
-15.4507
-15.4507
-15.4507
-15.4507
-15.4507
-15.4507
-15.4507
-15.4507
-15.4506
-15.4506
-15.4506
-15.4506
-15.4506
-15.4506
-15.4506
-15.4506
-15.4506
-15.4506
-15.4506
-15.4506
-15.4506
-15.4506
-15.4506
-15.4506
-15.4506
-15.4506
-15.4506
-15.4506
-15.4506
-15.4506
-15.4506
-15.4506
-15.4506
-15.4506
-15.4506
-15.4506
-15.4506
-15.4506
-15.4506
-15.4506
-15.4506
-15.4506
-15.4506
-15.4506
-15.4506
-15.4506
-15.4506
-15.4506
-15.4506
-15.4506
-15.4506
-15.4506
-15.4506
-15.4506
-15.4506
-15.4506
-15.4506
-15.4506
-15.4506
-15.4506
-15.4506
-15.4506
-15.4506
-15.4506
-15.4506
-15.4506
-15.4507
-15.4507
-15.4507
-15.4507
-15.4507
-15.4507
-15.4507
-15.4507
-15.4507
-15.4507
-15.4507
-15.9412
-15.9412
-15.9412
-15.9412
-15.9412
-15.9412
-15.9412
-15.9412
-15.9412
-15.9412
-15.9412
-15.9412
-15.9411
-15.9411
-15.9411
-15.9411
-15.9411
-15.9411
-15.9411
-15.9411
-15.9411
-15.9411
-15.9411
-15.9411
-15.9411
-15.9411
-15.9411
-15.9411
-15.9411
-15.9411
-15.9411
-15.9411
-15.9411
-15.9411
-15.9411
-15.9411
-15.9411
-15.9411
-15.9411
-15.9411
-15.9411
-15.9411
-15.9411
-15.9411
-15.9411
-15.9411
-15.9411
-15.9411
-15.9411
-15.9411
-15.9411
-15.9411
-15.9411
-15.9411
-15.9411
-15.9411
-15.9411
-15.9411
-15.9411
-15.9411
-15.9411
-15.9411
-15.9411
-15.9411
-15.9411
-15.9411
-15.9411
-15.9411
-15.9412
-15.9412
-15.9412
-15.9412
-15.9412
-15.9412
-15.9412
-15.9412
-15.9412
-15.9412
-15.9412
-15.9412
-16.4317
-16.4317
-16.4317
-16.4317
-16.4317
-16.4317
-16.4317
-16.4317
-16.4317
-16.4317
-16.4317
-16.4317
-16.4316
-16.4316
-16.4316
-16.4316
-16.4316
-16.4316
-16.4316
-16.4316
-16.4316
-16.4316
-16.4316
-16.4316
-16.4316
-16.4316
-16.4316
-16.4316
-16.4316
-16.4316
-16.4316
-16.4316
-16.4316
-16.4316
-16.4316
-16.4316
-16.4316
-16.4316
-16.4316
-16.4316
-16.4316
-16.4316
-16.4316
-16.4316
-16.4316
-16.4316
-16.4316
-16.4316
-16.4316
-16.4316
-16.4316
-16.4316
-16.4316
-16.4316
-16.4316
-16.4316
-16.4316
-16.4316
-16.4316
-16.4316
-16.4316
-16.4316
-16.4316
-16.4316
-16.4316
-16.4316
-16.4316
-16.4316
-16.4317
-16.4317
-16.4317
-16.4317
-16.4317
-16.4317
-16.4317
-16.4317
-16.4317
-16.4317
-16.4317
-16.4317
-16.9222
-16.9222
-16.9222
-16.9222
-16.9222
-16.9222
-16.9222
-16.9222
-16.9222
-16.9222
-16.9222
-16.9222
-16.9221
-16.9221
-16.9221
-16.9221
-16.9221
-16.9221
-16.9221
-16.9221
-16.9221
-16.9221
-16.9221
-16.9221
-16.9221
-16.9221
-16.9221
-16.9221
-16.9221
-16.9221
-16.9221
-16.9221
-16.9221
-16.9221
-16.9221
-16.9221
-16.9221
-16.9221
-16.9221
-16.9221
-16.9221
-16.9221
-16.9221
-16.9221
-16.9221
-16.9221
-16.9221
-16.9221
-16.9221
-16.9221
-16.9221
-16.9221
-16.9221
-16.9221
-16.9221
-16.9221
-16.9221
-16.9221
-16.9221
-16.9221
-16.9221
-16.9221
-16.9221
-16.9221
-16.9221
-16.9221
-16.9221
-16.9222
-16.9222
-16.9222
-16.9222
-16.9222
-16.9222
-16.9222
-16.9222
-16.9222
-16.9222
-16.9222
-16.9222
-16.9222
-17.4127
-17.4127
-17.4127
-17.4127
-17.4127
-17.4127
-17.4127
-17.4127
-17.4127
-17.4127
-17.4127
-17.4127
-17.4127
-17.4126
-17.4126
-17.4126
-17.4126
-17.4126
-17.4126
-17.4126
-17.4126
-17.4126
-17.4126
-17.4126
-17.4126
-17.4126
-17.4126
-17.4126
-17.4126
-17.4126
-17.4126
-17.4126
-17.4126
-17.4126
-17.4126
-17.4126
-17.4126
-17.4126
-17.4126
-17.4126
-17.4126
-17.4126
-17.4126
-17.4126
-17.4126
-17.4126
-17.4126
-17.4126
-17.4126
-17.4126
-17.4126
-17.4126
-17.4126
-17.4126
-17.4126
-17.4126
-17.4126
-17.4126
-17.4126
-17.4126
-17.4126
-17.4126
-17.4126
-17.4126
-17.4126
-17.4126
-17.4126
-17.4127
-17.4127
-17.4127
-17.4127
-17.4127
-17.4127
-17.4127
-17.4127
-17.4127
-17.4127
-17.4127
-17.4127
-17.4127
-17.9032
-17.9032
-17.9032
-17.9032
-17.9032
-17.9032
-17.9032
-17.9032
-17.9032
-17.9032
-17.9032
-17.9032
-17.9032
-17.9031
-17.9031
-17.9031
-17.9031
-17.9031
-17.9031
-17.9031
-17.9031
-17.9031
-17.9031
-17.9031
-17.9031
-17.9031
-17.9031
-17.9031
-17.9031
-17.9031
-17.9031
-17.9031
-17.9031
-17.9031
-17.9031
-17.9031
-17.9031
-17.9031
-17.9031
-17.9031
-17.9031
-17.9031
-17.9031
-17.9031
-17.9031
-17.9031
-17.9031
-17.9031
-17.9031
-17.9031
-17.9031
-17.9031
-17.9031
-17.9031
-17.9031
-17.9031
-17.9031
-17.9031
-17.9031
-17.9031
-17.9031
-17.9031
-17.9031
-17.9031
-17.9031
-17.9031
-17.9032
-17.9032
-17.9032
-17.9032
-17.9032
-17.9032
-17.9032
-17.9032
-17.9032
-17.9032
-17.9032
-17.9032
-17.9032
-17.9032
-18.3937
-18.3937
-18.3937
-18.3937
-18.3937
-18.3937
-18.3937
-18.3937
-18.3937
-18.3937
-18.3937
-18.3937
-18.3937
-18.3936
-18.3936
-18.3936
-18.3936
-18.3936
-18.3936
-18.3936
-18.3936
-18.3936
-18.3936
-18.3936
-18.3936
-18.3936
-18.3936
-18.3936
-18.3936
-18.3936
-18.3936
-18.3936
-18.3936
-18.3936
-18.3936
-18.3936
-18.3936
-18.3936
-18.3936
-18.3936
-18.3936
-18.3936
-18.3936
-18.3936
-18.3936
-18.3936
-18.3936
-18.3936
-18.3936
-18.3936
-18.3936
-18.3936
-18.3936
-18.3936
-18.3936
-18.3936
-18.3936
-18.3936
-18.3936
-18.3936
-18.3936
-18.3936
-18.3936
-18.3936
-18.3936
-18.3936
-18.3937
-18.3937
-18.3937
-18.3937
-18.3937
-18.3937
-18.3937
-18.3937
-18.3937
-18.3937
-18.3937
-18.3937
-18.3937
-18.3937
-18.8842
-18.8842
-18.8842
-18.8842
-18.8842
-18.8842
-18.8842
-18.8842
-18.8842
-18.8842
-18.8842
-18.8842
-18.8842
-18.8842
-18.8841
-18.8841
-18.8841
-18.8841
-18.8841
-18.8841
-18.8841
-18.8841
-18.8841
-18.8841
-18.8841
-18.8841
-18.8841
-18.8841
-18.8841
-18.8841
-18.8841
-18.8841
-18.8841
-18.8841
-18.8841
-18.8841
-18.8841
-18.8841
-18.8841
-18.8841
-18.8841
-18.8841
-18.8841
-18.8841
-18.8841
-18.8841
-18.8841
-18.8841
-18.8841
-18.8841
-18.8841
-18.8841
-18.8841
-18.8841
-18.8841
-18.8841
-18.8841
-18.8841
-18.8841
-18.8841
-18.8841
-18.8841
-18.8841
-18.8841
-18.8841
-18.8842
-18.8842
-18.8842
-18.8842
-18.8842
-18.8842
-18.8842
-18.8842
-18.8842
-18.8842
-18.8842
-18.8842
-18.8842
-18.8842
-18.8842
-19.3747
-19.3747
-19.3747
-19.3747
-19.3747
-19.3747
-19.3747
-19.3747
-19.3747
-19.3747
-19.3747
-19.3747
-19.3747
-19.3747
-19.3746
-19.3746
-19.3746
-19.3746
-19.3746
-19.3746
-19.3746
-19.3746
-19.3746
-19.3746
-19.3746
-19.3746
-19.3746
-19.3746
-19.3746
-19.3746
-19.3746
-19.3746
-19.3746
-19.3746
-19.3746
-19.3746
-19.3746
-19.3746
-19.3746
-19.3746
-19.3746
-19.3746
-19.3746
-19.3746
-19.3746
-19.3746
-19.3746
-19.3746
-19.3746
-19.3746
-19.3746
-19.3746
-19.3746
-19.3746
-19.3746
-19.3746
-19.3746
-19.3746
-19.3746
-19.3746
-19.3746
-19.3746
-19.3746
-19.3746
-19.3746
-19.3747
-19.3747
-19.3747
-19.3747
-19.3747
-19.3747
-19.3747
-19.3747
-19.3747
-19.3747
-19.3747
-19.3747
-19.3747
-19.3747
-19.3747
-19.8652
-19.8652
-19.8652
-19.8652
-19.8652
-19.8652
-19.8652
-19.8652
-19.8652
-19.8652
-19.8652
-19.8652
-19.8652
-19.8652
-19.8652
-19.8651
-19.8651
-19.8651
-19.8651
-19.8651
-19.8651
-19.8651
-19.8651
-19.8651
-19.8651
-19.8651
-19.8651
-19.8651
-19.8651
-19.8651
-19.8651
-19.8651
-19.8651
-19.8651
-19.8651
-19.8651
-19.8651
-19.865
-19.865
-19.865
-19.865
-19.865
-19.865
-19.8651
-19.8651
-19.8651
-19.8651
-19.8651
-19.8651
-19.8651
-19.8651
-19.8651
-19.8651
-19.8651
-19.8651
-19.8651
-19.8651
-19.8651
-19.8651
-19.8651
-19.8651
-19.8651
-19.8651
-19.8651
-19.8652
-19.8652
-19.8652
-19.8652
-19.8652
-19.8652
-19.8652
-19.8652
-19.8652
-19.8652
-19.8652
-19.8652
-19.8652
-19.8652
-19.8652
-19.8652
-20.3557
-20.3557
-20.3557
-20.3557
-20.3557
-20.3557
-20.3557
-20.3557
-20.3557
-20.3557
-20.3557
-20.3557
-20.3557
-20.3557
-20.3557
-20.3556
-20.3556
-20.3556
-20.3556
-20.3556
-20.3556
-20.3556
-20.3556
-20.3556
-20.3556
-20.3556
-20.3556
-20.3556
-20.3556
-20.3556
-20.3556
-20.3556
-20.3556
-20.3556
-20.3556
-20.3556
-20.3555
-20.3555
-20.3555
-20.3555
-20.3555
-20.3555
-20.3555
-20.3555
-20.3556
-20.3556
-20.3556
-20.3556
-20.3556
-20.3556
-20.3556
-20.3556
-20.3556
-20.3556
-20.3556
-20.3556
-20.3556
-20.3556
-20.3556
-20.3556
-20.3556
-20.3556
-20.3556
-20.3557
-20.3557
-20.3557
-20.3557
-20.3557
-20.3557
-20.3557
-20.3557
-20.3557
-20.3557
-20.3557
-20.3557
-20.3557
-20.3557
-20.3557
-20.3557
-20.3557
-20.8462
-20.8462
-20.8462
-20.8462
-20.8462
-20.8462
-20.8462
-20.8462
-20.8462
-20.8462
-20.8462
-20.8462
-20.8462
-20.8462
-20.8462
-20.8462
-20.8461
-20.8461
-20.8461
-20.8461
-20.8461
-20.8461
-20.8461
-20.8461
-20.8461
-20.8461
-20.8461
-20.8461
-20.8461
-20.8461
-20.8461
-20.8461
-20.8461
-20.8461
-20.8461
-20.846
-20.846
-20.846
-20.846
-20.846
-20.846
-20.846
-20.846
-20.846
-20.846
-20.8461
-20.8461
-20.8461
-20.8461
-20.8461
-20.8461
-20.8461
-20.8461
-20.8461
-20.8461
-20.8461
-20.8461
-20.8461
-20.8461
-20.8461
-20.8461
-20.8461
-20.8461
-20.8462
-20.8462
-20.8462
-20.8462
-20.8462
-20.8462
-20.8462
-20.8462
-20.8462
-20.8462
-20.8462
-20.8462
-20.8462
-20.8462
-20.8462
-20.8462
-20.8462
-21.3367
-21.3367