/*--------------------------------*- C++ -*----------------------------------*\
| =========                 |                                                 |
| \\      /  F ield         | OpenFOAM: The Open Source CFD Toolbox           |
|  \\    /   O peration     | Version:  2412                                  |
|   \\  /    A nd           | Website:  www.openfoam.com                      |
|    \\/     M anipulation  |                                                 |
\*---------------------------------------------------------------------------*/
FoamFile
{
    version     2.0;
    format      ascii;
    arch        "LSB;label=32;scalar=64";
    class       volScalarField;
    location    "8.25";
    object      alpha.water;
}
// * * * * * * * * * * * * * * * * * * * * * * * * * * * * * * * * * * * * * //

dimensions      [0 0 0 0 0 0 0];

internalField   nonuniform List<scalar> 
6400
(
1
1.00001
1
1
1
1
1
1
1
1
1
1
1
1
1
1
1
1
1
1
1
1
1
1
1
1
1
1
1
1
1
1
1
1
1
1
1
1
0.999999
0.999999
0.999999
1
1
1
1
1
1
1
1
1
1
1
1
1
1
1
1
1
1
1
1
1
1
1
1
1
1
1
1
0.999999
0.999999
0.999999
1
1
0.999999
0.999999
1
1
1
1
0.999995
1
1
1
1
1
1
1
1
1
1
1
1
1
1
1
1
1
1
1
1
1
1
1
1
1
1
1
1
1
1
1
1
1
1
1
1
1
1
1
1
1
1
1
1
1
1
1
1
1
1
1
1
1
1
1
1
1
1
1
1
1
0.999999
0.999999
1
0.999999
0.999999
0.999999
0.999999
0.999999
1
1
1
0.999999
0.999998
1
1
0.999999
1
0.999997
0.999999
1
1
1
1
1
1
1
1
1
1
1
1
1
1
1
1
1
1
1
1
1
1
1
1
1
1
1
1
1
1
1
1
1
1
1
1
1
1
1
1
1
1
1
1
1
1
1
1
0.999999
0.999999
0.999999
0.999999
0.999999
1
0.999999
0.999999
0.999999
0.999998
0.999998
0.999998
0.999999
1
1
1
1
1
1
1
1
1
1
1
0.999998
0.999999
0.999999
0.999997
0.999998
0.999999
0.999999
1
1
1
1
1
1
1
1
1
1
1
1
1
0.999999
1
1
1
1
1
1
1
1
1
1
1
1
1
1
1
1
1
1
1
1
1
1
1
1
1
1
1
1
1
1
0.999999
1
1
1
1
1
1
1
1
1
1
1
1
1
1
1
1
1
1
1
1
1
0.999999
0.999999
0.999999
1
1
0.999999
0.999998
0.999998
0.999999
0.999999
0.999999
0.999999
1
1
1
1
1
1
1
1
1
1
1
1
1
1
1
1
1
1
1
1
1
1
1
1
1
1
1
1
1
1
1
1
1
1
1
1
1
1
1
1
1
1
1
1
1
1
1
1
1
1
1
1
1
1
1
1
1
1
1
1
1
1
1
1
1
1
1
1
1
1
1
1
1
1
1
1
1
0.999999
1
1
1
1
1
1
1
1
1
1
1
1
1
1
1
1
1
1
1
1
1
1
1
0.999999
0.999999
0.999999
0.999999
1
1
1
1
1
1
1
1
1
1
1
1
1
1
1
1
1
1
1
1
1
1
1
1
1
1
1
1
1
1
1
1
1
1
1
0.999999
0.999998
0.999998
0.999999
1
1
1
1
1
1
1
1
1
1
1
1
1
1
0.999999
1
0.999999
1
1
1
1
1
1
1
1
1
1
1
0.999999
1
1
1
1
0.999999
0.999999
0.999999
0.999998
0.999998
0.999998
0.999999
1
1
1
1
1
1
0.999999
0.999999
1
1
1
1
1
1
1
1
1
1
1
1
1
1
1
1
1
1
1
1
0.999999
0.999998
0.999998
0.999998
0.999999
0.999999
0.999999
0.999999
0.999999
1
1
0.999999
0.999998
0.999998
0.999998
0.999998
0.999998
0.999998
0.999999
0.999999
0.999999
1
1
1
0.999999
1
0.999999
1
0.999999
1
1
1
1
1
1
1
0.999999
0.999999
0.999999
1
1
1
0.999999
1
1
1
1
1
1
1
0.999999
0.999998
0.999998
0.999998
0.999999
0.999999
0.999999
1
1
1
1
1
1
1
1
1
1
1
1
1
1
1
1
1
1
1
1
1
1
1
1
1
1
1
1
1
1
1
1
1
1
1
0.999999
0.999999
1
1
1
1
1
1
1
1
1
0.999999
1
1
1
0.999999
1
1
1
1
1
1
1
0.999999
0.999999
0.999999
1
1
1
1
1
1
1
1
1
1
1
1
0.999998
0.999998
0.999998
0.999999
1
1
1
1
1
1
1
1
1
1
1
1
1
1
1
1
1
1
1
1
1
1
1
1
1
1
1
1
1
1
1
1
1
1
1
1
1
1
1
1
1
1
1
1
1
1
1
1
1
1
1
1
1
1
1
0.999999
1
1
1
1
0.999999
0.999999
1
0.999999
1
1
1
1
1
1
1
1
0.999999
0.999999
0.999999
1
1
1
1
1
1
1
1
1
1
1
1
1
1
1
1
1
1
1
1
1
1
1
1
1
1
1
1
1
1
1
1
1
1
1
0.999999
0.999999
0.999999
1
1
1
1
1
1
1
1
1
1
1
1
1
1
1
1
1
1
1
0.999999
1
0.999999
1
1
0.999995
1
0.999999
0.999999
1
1
1
1
1
0.999999
1
0.999999
0.999999
1
1
1
1
1
1
1
1
1
1
1
1
1
1
1
1
1
1
1
1
1
1
1
1
1
1
1
1
1
1
1
1
1
0.999999
0.999999
0.999998
0.999998
0.999998
0.999999
1
1
1
1
1
1
1
1
1
1
1
1
1
1
1
1
1
1
0.999999
0.999997
0.999998
0.999999
0.999999
1
1
1
1
0.999923
0.999377
0.999998
1
1
1
0.999999
0.999999
0.999999
1
1
1
1
1
1
1
1
1
1
1
1
1
1
1
1
1
1
1
1
1
0.999999
1
1
1
1
1
1
1
1
1
1
1
1
1
1
1
1
1
1
1
1
1
1
1
1
1
1
1
1
1
1
1
1
1
1
1
1
0.999999
0.999999
0.999999
0.999999
0.999998
0.999984
0.999961
0.999977
0.999999
1
1
0.999989
0.999977
0.999788
0.999195
0.999633
1
1
0.999999
0.999999
1
1
1
1
1
1
1
1
1
1
1
1
1
1
1
1
1
1
1
1
1
1
1
1
1
1
1
1
1
1
1
1
1
1
1
1
1
1
1
1
1
1
1
1
1
1
1
1
1
1
1
1
1
1
1
1
1
1
1
1
1
1
1
1
1
0.999991
0.99994
0.999938
0.999978
1
0.999976
0.99949
0.999822
0.998945
0.999187
0.999223
0.999996
1
1
1
1
1
1
1
1
1
1
1
1
1
1
1
1
1
1
1
1
1
1
1
1
1
1
1
1
1
1
1
1
1
1
1
1
1
1
1
1
1
1
1
1
1
1
0.999999
1
1
1
1
1
1
1
1
1
1
1
1
1
1
1
1
1
1
1
1
1
1
0.999999
0.999938
0.999978
0.999985
0.999811
0.999807
0.999316
0.997106
0.994625
0.999018
1
1
0.999993
0.999989
1
1
1
1
1
1
1
1
1
1
1
1
1
1
1
1
1
1
1
1
1
1
1
1
1
1
1
1
1
1
1
1
1
1
1
1
1
1
1
0.999999
0.999999
0.999999
0.999999
1
1
1
1
1
1
1
1
1
1
1
1
1
1
1
1
1
1
1
1
1
1
1
1
0.999983
0.999973
0.999999
0.999484
0.994462
0.996702
0.997027
0.992011
0.99736
0.999998
0.999997
0.999962
0.99997
1
1
1
1
1
1
1
1
1
1
1
1
1
1
1
0.999999
0.999999
0.999999
0.999999
1
1
1
1
1
1
1
1
1
1
0.999999
0.999999
0.999999
0.999999
1
0.999999
0.999999
0.999999
0.999999
0.999999
0.999999
0.999999
1
1
1
1
1
1
1
1
1
1
1
1
1
1
1
1
1
1
1
1
1
1
1
1
1
1
0.999995
0.999984
0.999999
0.9991
0.991924
0.995392
0.997224
0.992011
0.992011
0.9997
0.999996
0.999962
0.999964
1
1
1
1
1
1
1
1
1
1
1
1
1
1
1
0.999999
0.999999
0.999999
0.999999
1
1
1
1
1
1
1
1
0.999999
0.999999
0.999999
0.999999
1
1
1
1
1
0.999999
0.999999
0.999999
1
1
1
1
1
1
1
1
1
1
1
1
1
1
1
1
1
1
1
1
1
1
1
1
1
1
1
1
0.999994
0.999996
0.999993
0.993776
0.991924
0.995658
0.998745
0.992616
0.992378
0.999876
0.999994
0.999975
0.999972
0.999998
0.999997
0.999997
0.999997
0.999998
0.999999
1
1
1
1
1
1
1
1
1
1
1
1
1
1
1
1
1
1
1
1
1
1
1
1
1
1
1
1
1
1
1
1
1
1
1
1
1
1
1
1
1
1
1
1
1
1
1
1
1
1
1
1
0.999999
0.999997
0.999995
0.999995
0.999992
0.999993
0.999995
0.999998
1
0.999999
0.999999
0.999986
0.993404
0.991924
0.997477
0.999258
0.999258
0.998963
0.999968
0.999993
0.999982
0.999962
0.999966
0.999944
0.999944
0.999949
0.999954
0.999563
0.998168
0.997831
0.998485
0.999413
0.999917
1
1
1
1
1
1
1
1
1
1
1
1
1
1
1
1
1
1
1
0.999999
0.999998
0.999999
1
1
1
1
1
1
1
1
1
1
1
1
1
1
1
1
1
1
1
1
0.998526
0.995532
0.991392
0.987222
0.984029
0.982789
0.984505
0.989595
0.996141
0.999784
0.999878
0.999896
0.999949
0.999985
0.999997
0.999999
0.999994
0.998944
0.998419
0.999635
0.999196
0.999258
0.999426
0.999958
0.999956
0.996804
0.979349
0.934194
0.866872
0.789045
0.714055
0.645476
0.578923
0.530348
0.514235
0.522265
0.546252
0.577701
0.614384
0.653696
0.683229
0.709634
0.739096
0.771365
0.803009
0.832945
0.861805
0.884845
0.900079
0.910325
0.920007
0.931614
0.942659
0.951025
0.954512
0.953838
0.951933
0.955524
0.966526
0.9807
0.993359
0.999541
1
1
1
1
0.996591
0.989919
0.980387
0.967294
0.949952
0.927938
0.901199
0.870139
0.835107
0.796524
0.752858
0.700963
0.638284
0.571927
0.516791
0.468609
0.428483
0.399549
0.38471
0.385285
0.408391
0.455765
0.524111
0.607943
0.717783
0.84232
0.940417
0.984393
0.999823
0.999987
0.999991
0.999931
0.999871
0.99986
0.916391
0.924803
0.887509
0.812447
0.679105
0.501395
0.338971
0.213607
0.124239
0.0651527
0.0275844
0.00641087
1.85303e-05
1.85587e-05
1.88908e-05
2.01254e-05
2.41336e-05
3.66139e-05
5.45514e-05
0.0037949
0.0166544
0.0299511
0.0462588
0.0649765
0.084685
0.106146
0.129634
0.152732
0.173846
0.194189
0.213252
0.232674
0.253214
0.274604
0.295186
0.314057
0.329859
0.341266
0.349421
0.356116
0.362669
0.370253
0.379575
0.391313
0.40147
0.404536
0.402319
0.38694
0.356459
0.316267
0.272086
0.228188
0.186145
0.145635
0.10756
0.0730722
0.0430196
0.0206182
0.00495842
9.44265e-09
9.44295e-09
9.53281e-09
1.04522e-08
1.74492e-08
5.55561e-08
2.72354e-07
1.87749e-06
6.42935e-06
2.78782e-05
0.00659584
0.0404769
0.101666
0.204338
0.366086
0.612063
0.819409
0.928635
0.979045
0.998548
0.982111
0.332227
0.26469
0.190512
0.105205
0.0393748
0.00798292
0.000221788
0.00015939
9.27009e-05
2.8979e-05
2.38501e-05
1.85491e-05
1.85491e-05
1.85348e-05
1.85904e-05
1.89225e-05
2.16397e-05
4.41178e-05
5.07999e-05
5.42532e-05
3.39117e-05
2.14441e-05
2.59309e-05
3.46991e-05
4.84549e-05
6.5733e-05
0.000111897
0.000187599
0.000153676
6.31705e-05
2.42213e-05
2.73236e-06
-1.6854e-09
-2.07176e-08
-1.10453e-07
-6.85814e-08
-6.40948e-08
1.37863e-26
9.59088e-11
1.21805e-09
1.18484e-08
9.84894e-08
7.28607e-07
7.38004e-07
1.76374e-06
0.000620693
0.000426192
0.000129904
0.000125139
0.00017986
0.000208554
0.00021071
0.000195877
0.000162637
0.000105979
4.76681e-05
9.50436e-06
3.43301e-06
-1.95937e-08
9.44282e-09
9.48646e-09
1.03692e-08
3.1957e-07
1.10886e-06
9.83476e-07
1.38828e-06
2.83982e-06
4.36991e-06
6.36798e-06
5.55872e-06
5.63335e-06
5.61121e-06
1.79228e-05
5.79064e-05
7.70842e-05
0.0733571
0.191495
0.353062
0.519437
0.606596
2.10792e-05
2.05275e-05
2.05269e-05
2.05275e-05
2.145e-05
6.34462e-05
8.35666e-05
0.000112333
7.30075e-05
3.44529e-05
2.75603e-05
1.86196e-05
1.85272e-05
1.85904e-05
1.89213e-05
2.00828e-05
7.81916e-05
0.000108591
0.000109243
0.000101962
2.68215e-05
1.71826e-05
2.09666e-05
2.59261e-05
3.44484e-05
5.45529e-05
7.78344e-05
0.000128515
7.80351e-05
5.61472e-06
1.15165e-06
-2.24323e-09
1.11695e-09
1.27854e-09
1.34615e-09
1.83278e-09
3.4505e-09
1.76202e-09
1.57086e-09
6.36236e-09
2.72389e-07
2.33434e-06
2.57798e-06
1.79205e-07
5.29562e-08
3.40512e-08
2.78532e-06
1.53614e-07
7.33502e-07
1.98528e-06
3.46387e-06
3.21481e-06
3.02977e-06
3.77059e-06
2.44458e-06
1.05525e-06
1.62569e-06
2.35431e-06
9.53132e-09
9.48651e-09
9.53129e-09
1.49888e-08
4.37531e-08
1.07713e-05
3.84197e-05
4.43458e-05
3.99807e-05
7.09807e-05
5.9541e-05
9.06167e-06
1.05597e-05
6.1649e-05
0.000109634
7.70841e-05
7.43873e-05
7.37888e-05
7.43508e-05
7.43508e-05
0.0149943
0.0552798
6.09629e-05
4.77791e-05
2.05275e-05
2.05269e-05
2.32679e-05
4.49709e-05
4.78736e-05
0.000112907
0.000130656
0.000130656
0.000127932
9.61655e-05
2.69234e-05
1.90366e-05
2.05227e-05
8.0507e-05
0.000108455
0.000109461
0.000108162
2.69556e-05
1.70834e-05
1.28333e-05
2.10491e-05
8.8676e-05
0.00013382
0.000143085
0.000147091
0.000133989
6.29901e-05
6.08376e-07
5.49861e-08
1.12434e-09
1.09005e-09
1.09829e-09
1.39486e-09
1.13607e-09
1.25232e-09
1.30024e-09
2.98228e-09
8.83906e-09
1.98554e-08
3.68339e-08
4.95124e-08
6.35122e-08
3.18518e-08
1.43789e-08
3.35065e-08
1.01588e-07
1.15221e-07
1.41183e-09
-2.32602e-08
-4.69058e-08
-1.24357e-08
-1.20551e-08
2.84573e-08
1.42762e-07
1.46775e-06
4.11355e-06
6.85416e-06
6.10645e-06
9.82967e-07
1.312e-07
1.34163e-07
4.95092e-06
5.45046e-05
0.000124051
0.000131165
0.000195395
0.00019353
0.00013422
1.2302e-05
0.000166188
0.000233117
0.000218514
0.000111374
7.43873e-05
7.36913e-05
7.46712e-05
7.66617e-05
9.03904e-05
0.00010802
2.29122e-05
2.05275e-05
5.08028e-05
7.1883e-05
6.54731e-05
3.69133e-05
2.68882e-05
3.78146e-05
0.000108557
0.000124702
0.000123442
0.000122056
8.26444e-05
2.84576e-05
3.20527e-05
3.76626e-05
0.000102764
7.78881e-05
1.67326e-05
1.4373e-05
1.06024e-05
8.32016e-06
4.14832e-06
3.18753e-05
7.39289e-05
0.000105702
0.000111056
1.23213e-05
6.4754e-08
3.42171e-09
1.08644e-09
1.06978e-09
1.06995e-09
9.57015e-10
7.5733e-10
7.20374e-10
7.42643e-10
8.09276e-10
9.27896e-10
9.19801e-10
1.10124e-09
1.20877e-09
1.20877e-09
1.30591e-09
1.70385e-09
2.37656e-09
1.6163e-09
1.41183e-09
1.41183e-09
1.35177e-09
1.22658e-09
1.08154e-09
1.61383e-09
1.25058e-08
4.73228e-08
3.07548e-07
1.89625e-05
3.14659e-05
3.14741e-05
6.86678e-06
1.59645e-07
4.04928e-07
4.89077e-07
1.2518e-06
2.20135e-06
1.87013e-05
0.000163683
0.000206522
0.000196383
0.000102695
0.000109556
0.000193328
0.00028727
0.000291931
0.000265308
7.91157e-05
7.66617e-05
7.92563e-05
0.000216043
8.95859e-05
1.43012e-05
3.55046e-05
7.1883e-05
7.20984e-05
7.1883e-05
6.90617e-05
2.03913e-05
2.43926e-05
2.80222e-05
2.78754e-05
2.82803e-05
8.21248e-05
0.000106606
0.000106171
3.16124e-05
2.41763e-05
2.41813e-05
2.385e-05
2.36271e-05
2.47781e-05
1.44142e-05
4.67478e-06
2.0882e-06
1.45036e-06
1.1651e-06
1.1731e-06
1.24713e-05
6.91852e-06
8.27956e-09
1.2199e-09
1.04335e-09
1.11947e-09
1.22757e-09
8.81817e-10
7.35674e-10
7.20374e-10
7.20374e-10
7.22977e-10
7.36844e-10
7.92935e-10
1.02445e-09
2.64529e-09
3.96849e-09
3.32576e-09
2.42858e-09
3.37887e-09
2.40276e-09
1.53849e-09
1.24979e-09
1.22972e-09
1.17625e-09
9.71614e-10
5.5926e-10
4.95538e-10
5.09475e-10
2.20885e-09
9.89647e-06
3.08998e-05
3.18784e-05
3.18555e-05
1.98416e-05
2.14744e-05
2.11734e-05
2.45331e-05
3.28539e-05
0.000113947
0.000178195
0.000223505
0.000231429
0.000205679
0.000196907
0.000145536
0.000179014
0.000298842
0.000300861
0.000182949
7.61527e-05
7.61527e-05
0.000167636
3.0103e-05
1.44155e-05
2.32475e-05
7.20601e-05
7.20601e-05
7.20601e-05
6.12085e-05
7.97951e-06
2.97243e-05
4.73568e-05
4.75147e-05
4.07719e-05
2.70754e-05
2.8434e-05
4.65481e-05
4.57042e-05
2.44044e-05
2.41797e-05
2.74579e-05
9.78284e-05
0.000116221
4.7273e-05
1.29209e-05
2.97855e-06
1.1651e-06
1.01676e-06
8.57038e-07
2.74402e-07
5.08737e-07
2.70982e-07
1.04335e-09
9.73407e-10
1.39186e-09
1.4288e-09
9.72456e-10
7.43497e-10
7.20331e-10
7.22909e-10
7.35129e-10
7.71343e-10
8.67231e-10
1.50485e-09
2.90041e-08
1.16767e-07
9.76555e-08
2.8965e-08
3.37534e-08
2.63624e-08
9.60192e-09
3.38751e-09
1.51222e-09
8.71977e-10
5.44382e-10
4.9571e-10
4.55545e-10
2.6905e-10
2.0418e-10
1.98779e-10
1.98115e-10
6.11304e-06
4.14451e-05
5.85392e-05
5.85392e-05
5.85392e-05
4.07381e-05
0.000103245
0.000269542
0.000271552
0.000271552
0.000271579
0.00022029
0.000161109
8.35412e-05
0.000170898
0.000300861
0.000302525
0.000234193
7.34003e-05
9.85612e-05
6.61993e-05
1.52169e-05
4.54597e-05
8.24467e-06
2.50304e-05
5.95562e-05
4.14829e-05
1.18077e-05
3.95177e-06
1.24966e-06
1.20405e-06
1.26238e-06
6.19901e-06
2.82607e-05
5.20755e-05
3.04633e-05
2.35777e-05
2.38729e-05
2.46423e-05
0.000113771
0.000158413
0.000158395
0.000157756
0.000124507
5.63732e-05
4.22238e-06
2.9474e-06
1.69364e-06
1.82804e-07
9.74362e-08
8.4705e-08
9.73407e-10
9.15377e-10
1.38467e-09
1.44312e-09
1.30235e-09
8.36664e-10
7.24946e-10
7.44308e-10
8.38884e-10
1.22244e-09
2.62476e-09
8.10278e-09
3.28931e-08
8.71441e-07
6.03773e-06
1.61432e-05
2.14241e-05
1.05195e-05
9.02869e-07
5.03749e-08
1.60874e-08
3.32583e-09
9.66965e-10
4.74956e-10
2.62433e-10
2.04525e-10
1.99279e-10
1.9919e-10
1.99185e-10
1.99192e-10
1.99192e-10
1.64527e-05
3.60386e-05
1.48461e-05
1.36035e-07
5.51636e-05
0.000268559
0.000271224
0.000271677
0.000271224
0.000199712
2.85455e-05
2.84949e-05
0.000290548
0.000302522
0.000302177
0.000244323
6.8826e-05
0.000198347
5.45928e-05
1.40004e-05
6.78441e-05
8.27453e-06
6.01734e-06
4.85439e-06
2.90476e-06
4.15902e-06
1.19148e-05
8.20347e-06
1.18289e-06
1.18289e-06
1.18289e-06
3.1771e-06
5.19072e-05
5.17589e-05
2.34716e-05
2.34812e-05
2.48034e-05
0.000146544
0.000158395
0.000158442
0.000158197
0.000157186
0.000155223
7.43877e-05
1.67256e-06
1.38605e-06
2.3403e-07
1.83203e-07
1.01415e-07
6.24617e-08
9.01535e-10
9.02556e-10
9.33972e-10
9.58803e-10
8.70426e-10
7.92832e-10
1.04038e-09
2.07129e-09
6.41677e-09
2.36171e-08
8.88008e-08
3.26393e-07
2.71058e-06
3.66937e-05
6.73455e-05
6.73468e-05
6.7375e-05
4.13491e-05
6.98592e-06
1.04121e-06
5.1734e-08
8.41663e-09
1.83302e-09
6.07814e-10
2.64051e-10
2.00325e-10
1.99188e-10
1.99188e-10
1.99192e-10
1.99205e-10
1.9937e-10
1.99523e-10
2.01378e-10
5.00512e-10
2.91572e-06
0.000257614
0.000270397
0.000271224
0.000261218
6.11629e-05
8.28339e-06
1.17994e-05
0.000210405
0.000302177
0.000302526
0.000212572
5.12878e-05
0.000198347
4.35554e-05
7.34663e-06
6.82666e-05
5.4769e-05
6.75687e-06
2.76936e-06
2.57147e-06
2.51631e-06
1.09543e-05
1.09214e-05
4.8773e-06
1.90506e-06
1.22018e-06
1.26817e-06
1.55002e-05
5.11715e-05
2.34812e-05
2.34715e-05
2.35025e-05
0.00010385
0.000158395
0.000158197
0.000156115
0.00015514
0.000149285
0.000142833
8.23153e-06
1.63773e-07
4.56036e-07
7.5923e-07
1.34621e-06
4.37759e-07
9.01535e-10
9.00132e-10
9.02488e-10
9.13537e-10
9.4213e-10
1.11159e-09
2.1195e-09
6.37725e-09
2.42601e-08
9.87098e-08
3.96256e-07
1.69975e-06
3.45653e-05
6.75625e-05
6.75192e-05
6.72932e-05
6.7498e-05
6.77018e-05
6.7714e-05
3.95142e-05
4.46644e-06
1.09192e-07
2.30745e-08
5.54447e-09
1.19755e-09
2.17524e-10
1.9878e-10
1.99193e-10
1.99411e-10
2.01125e-10
1.99533e-10
2.00422e-10
2.17185e-10
2.76285e-09
0.000140004
0.000270335
0.00027063
0.000270397
5.38912e-05
6.98861e-06
5.92417e-06
8.28372e-06
4.01873e-05
0.000300851
0.000302177
0.000242416
3.14172e-05
0.000198347
2.45905e-05
1.9152e-06
6.86098e-05
6.86098e-05
2.90984e-05
2.57147e-06
2.51118e-06
2.51903e-06
9.3167e-06
7.61218e-06
2.09619e-06
2.34062e-06
2.33217e-06
1.56296e-06
1.6403e-07
7.83762e-06
8.12767e-05
9.15902e-05
0.000104343
0.000146388
0.000146322
9.76721e-05
1.73171e-05
6.27795e-05
0.000144998
0.000140585
6.49594e-05
1.23586e-07
1.89455e-07
1.30898e-06
1.38127e-06
1.30678e-06
1.16295e-07
8.68228e-10
8.09103e-10
5.64455e-10
4.09705e-10
1.29212e-10
7.19434e-06
9.20842e-06
7.20581e-06
3.96452e-07
1.01778e-06
2.82822e-06
4.06333e-05
6.71743e-05
6.73755e-05
6.75872e-05
6.77018e-05
6.7714e-05
6.7776e-05
6.80022e-05
6.41295e-05
4.57419e-06
2.53836e-07
6.20703e-08
1.01169e-08
3.63395e-10
1.98046e-10
1.99226e-10
2.00377e-10
2.20858e-10
2.00419e-10
2.07226e-10
3.31027e-10
1.88754e-08
0.000252928
0.000270583
0.000270335
0.000178224
8.94868e-06
5.61339e-06
5.55424e-06
3.91321e-05
4.91627e-05
9.38393e-05
0.000300851
0.000224495
3.14172e-05
6.59759e-05
2.10112e-05
4.12341e-07
4.5375e-05
6.86098e-05
3.85571e-05
2.74465e-06
2.57147e-06
2.7484e-06
9.65364e-06
5.49329e-06
4.79949e-07
3.50383e-07
7.2754e-07
5.62091e-07
7.84729e-08
1.61469e-07
5.73399e-05
0.00014423
0.000146043
0.00014634
0.000146366
3.09026e-05
2.30198e-06
1.31228e-06
7.23937e-05
0.000133622
0.000108658
1.13764e-07
7.51408e-08
1.10955e-06
1.38127e-06
1.38127e-06
4.10329e-07
9.04376e-10
4.9967e-09
4.67873e-08
2.8849e-05
0.000180564
0.000208255
0.000124036
9.22522e-07
7.31275e-07
8.80252e-07
1.04983e-06
4.42806e-06
2.22138e-05
5.40685e-05
6.66734e-05
6.74171e-05
6.77637e-05
6.80022e-05
6.81955e-05
6.85412e-05
6.4317e-05
7.15222e-06
5.5992e-07
7.97829e-08
1.7617e-09
1.87049e-10
1.99543e-10
2.00953e-10
2.51116e-10
2.05601e-10
2.4945e-10
1.02785e-09
2.85079e-06
0.000264627
0.000267937
0.000270335
8.56908e-05
5.07582e-06
5.2982e-06
5.55429e-06
0.000113078
7.18571e-05
1.94301e-05
0.000125838
7.99533e-05
3.27103e-05
1.9411e-05
2.10112e-05
3.93664e-07
2.04281e-06
1.8115e-05
1.49824e-05
3.82454e-06
3.55768e-06
9.65013e-06
9.68533e-06
4.64675e-06
2.05598e-07
7.03027e-08
7.04377e-08
1.08133e-07
7.17795e-08
7.8486e-08
1.61471e-07
0.000122799
0.000145595
0.000146043
0.00014634
3.54548e-05
1.31228e-06
1.2481e-06
6.76685e-06
0.000130522
0.000135095
2.25471e-05
2.97198e-08
4.64866e-07
1.38127e-06
1.31541e-06
5.93886e-07
2.22117e-07
1.13334e-06
2.59026e-05
0.00019612
0.000225374
0.000220311
0.000119337
8.46044e-07
8.47459e-07
8.39434e-07
8.80243e-07
1.04505e-06
1.41666e-06
1.71969e-06
2.59102e-06
5.96578e-06
4.30316e-05
6.45304e-05
6.5694e-05
5.90856e-05
7.40181e-05
6.05069e-05
2.09235e-05
6.79309e-07
1.15945e-08
1.79298e-10
2.01401e-10
2.01242e-10
2.86131e-10
2.41133e-10
4.44687e-10
4.90342e-09
5.33974e-05
0.000262915
0.000264627
0.000262555
2.19897e-05
5.07582e-06
5.07226e-06
1.71909e-05
0.000113348
6.40135e-05
1.76589e-05
1.92589e-05
1.79391e-05
1.78592e-05
1.77563e-05
2.2485e-05
3.93361e-07
3.93664e-07
8.6194e-07
2.90607e-06
9.08046e-06
1.00071e-05
1.00508e-05
8.93882e-06
2.51732e-06
3.52228e-07
7.07061e-08
7.02855e-08
7.07061e-08
7.19712e-08
7.17808e-08
7.95865e-08
1.88896e-05
0.00014271
0.000145595
0.000119303
1.08956e-05
1.2481e-06
1.22215e-06
1.24706e-06
5.54199e-05
0.000138897
5.47441e-05
1.86641e-08
6.08254e-08
5.10619e-07
3.79376e-07
4.74577e-07
8.28007e-07
3.84367e-06
0.000106185
0.000232373
0.000230727
0.000226827
0.000114237
8.5725e-07
8.3299e-07
8.5725e-07
1.1123e-06
4.0719e-06
6.44801e-06
5.09085e-06
4.80532e-06
7.62829e-06
1.02333e-05
1.34193e-05
1.75448e-05
3.46435e-05
7.22947e-05
9.81101e-05
7.17159e-05
3.73104e-05
7.51675e-08
1.48647e-10
2.09608e-10
2.026e-10
3.75288e-10
1.0073e-09
1.58863e-09
2.22914e-08
0.000213281
0.000255782
0.000263291
0.000186499
3.16128e-05
5.0462e-06
4.95391e-06
5.00152e-05
0.000113348
3.44685e-05
1.73677e-05
1.73126e-05
1.69904e-05
1.68966e-05
1.70471e-05
2.24096e-05
3.93361e-07
3.93361e-07
5.19966e-07
3.77233e-06
1.00071e-05
1.00733e-05
1.00382e-05
3.58423e-06
2.15033e-06
5.72134e-07
7.9816e-08
7.86922e-08
7.52932e-08
1.65372e-07
7.26552e-08
7.24541e-08
1.03253e-07
3.94341e-05
6.83609e-05
3.35003e-05
1.99405e-06
1.22215e-06
1.22215e-06
1.22058e-06
5.85367e-05
0.000141514
7.54559e-05
1.52184e-08
1.83064e-08
3.45652e-08
9.1923e-08
2.28971e-07
8.5754e-07
1.64561e-05
0.000196261
0.000234016
0.000232322
0.000234811
0.000232428
0.000191938
6.1806e-05
6.52393e-06
1.00745e-05
9.23214e-05
0.000141725
5.72917e-05
1.86466e-05
1.02333e-05
1.41424e-05
1.75449e-05
2.63635e-05
0.000122795
0.000159654
0.000103863
9.2248e-05
7.11359e-05
1.98427e-05
8.29656e-10
2.5165e-10
2.10198e-10
5.4452e-10
8.62313e-09
7.19478e-09
1.89848e-05
0.000236967
0.00025314
0.000189894
0.000164628
3.85199e-05
6.38861e-06
4.30271e-06
4.24083e-05
6.98731e-05
3.83574e-05
1.73045e-05
1.69037e-05
1.68321e-05
1.68273e-05
1.68447e-05
1.74111e-05
3.93361e-07
3.96291e-07
4.86002e-07
2.51876e-06
1.00596e-05
1.00563e-05
6.35912e-06
1.29476e-06
2.53796e-06
4.05846e-07
8.23003e-08
3.61714e-07
3.06855e-05
7.11779e-05
7.09139e-05
5.26803e-05
4.50833e-05
1.98045e-05
3.70942e-06
2.15947e-06
2.16468e-06
2.1948e-06
1.22215e-06
1.23165e-06
5.76889e-05
0.000143553
8.85518e-05
1.40471e-08
1.44681e-08
1.93932e-08
4.05949e-08
1.38049e-07
7.92068e-07
3.32442e-05
0.000232838
0.000233006
0.000232832
0.000232326
0.000233561
0.000228926
0.000220635
8.65606e-05
0.000107165
0.000149991
0.000150649
0.000148121
0.00013893
9.42108e-05
0.000115348
6.72365e-05
9.75357e-05
0.000183694
0.000183362
0.000120722
7.20565e-05
7.53774e-05
7.48364e-05
4.48004e-09
4.61738e-10
2.50289e-10
6.70932e-10
5.4971e-09
5.18287e-07
4.48613e-05
0.000227742
0.000128199
3.70589e-06
1.95421e-05
4.51881e-05
1.32072e-05
3.50575e-06
8.81613e-06
4.33967e-05
5.04148e-05
3.28577e-05
1.68321e-05
1.68222e-05
1.68321e-05
1.68321e-05
1.68447e-05
2.73428e-05
3.81714e-05
5.50965e-07
5.50965e-07
4.57884e-06
7.39212e-06
7.74519e-07
1.04365e-06
2.94203e-06
2.54308e-07
1.24863e-07
3.48656e-05
0.000116736
0.00011674
0.000116736
0.000116642
5.39233e-05
1.99716e-05
1.99482e-05
4.88267e-05
3.45584e-05
3.26473e-06
1.23252e-06
1.25074e-06
6.8073e-05
0.00014466
0.000109836
1.38659e-08
1.29089e-08
1.44681e-08
2.33341e-08
8.3432e-08
5.57857e-07
5.74803e-05
0.000232999
0.000233193
0.000232999
0.000231911
0.000185575
2.33041e-05
1.89964e-05
1.69593e-05
6.22191e-05
9.86924e-05
5.79126e-05
1.98094e-05
4.99355e-05
0.000180638
0.000181665
0.000183506
0.000183694
0.000183694
0.000183728
0.000183094
6.98026e-05
6.96928e-05
8.04613e-05
9.81203e-06
1.40055e-09
4.66445e-10
1.45436e-09
2.83315e-09
3.72986e-08
4.34199e-05
0.000172526
3.70589e-06
3.56269e-06
3.62016e-06
1.68139e-05
1.59169e-05
3.38761e-06
3.50575e-06
6.88725e-06
3.96148e-05
4.15281e-05
1.77001e-05
1.68321e-05
1.68286e-05
3.79689e-05
3.81115e-05
5.72797e-05
5.88415e-05
7.95517e-06
6.89337e-07
7.21798e-07
6.80611e-07
6.51925e-07
1.70274e-06
2.9488e-06
2.81567e-07
2.70385e-07
6.50338e-05
0.000116739
0.000116736
0.000116642
9.94657e-05
1.7751e-05
2.97452e-05
4.94816e-05
4.95204e-05
3.38312e-05
1.3138e-06
1.25079e-06
1.32801e-06
7.23678e-05
0.00014492
0.000141243
7.06934e-06
1.2484e-08
1.29089e-08
1.59328e-08
4.04098e-08
4.45574e-07
3.46775e-05
0.000233186
0.000233287
0.000233193
0.000232516
0.000171565
1.391e-05
1.33757e-05
1.33416e-05
1.33423e-05
1.3341e-05
1.33423e-05
1.33536e-05
1.34357e-05
5.27776e-05
0.000183378
0.000183471
0.000183506
0.000183712
0.000183538
0.000183349
7.12855e-05
6.90547e-05
8.04613e-05
7.35028e-05
6.9143e-09
1.52238e-09
3.79475e-09
6.22618e-09
2.55363e-07
1.41562e-05
1.13216e-05
3.56269e-06
3.49891e-06
3.49891e-06
3.6126e-06
4.30919e-06
3.38761e-06
3.42728e-06
3.56852e-06
5.43854e-06
2.24464e-05
3.09173e-05
1.68933e-05
5.11563e-05
5.67568e-05
5.68482e-05
4.07357e-05
5.88415e-05
5.69896e-05
1.02801e-05
5.82277e-06
7.65066e-07
6.51925e-07
1.17684e-06
2.9488e-06
2.95522e-07
3.05714e-07
4.97941e-05
0.000116724
0.000116599
4.63694e-05
1.53407e-05
1.1745e-05
2.13042e-05
4.24451e-05
4.84809e-05
1.02396e-05
1.37507e-06
1.3138e-06
1.43966e-06
5.36176e-05
0.000144936
0.00014492
5.57171e-05
1.24121e-08
1.2484e-08
1.31988e-08
1.96847e-08
4.68168e-07
1.28472e-05
0.000117408
0.000233193
0.000233287
0.000233103
0.000232066
9.96049e-05
1.33501e-05
1.33452e-05
1.33402e-05
1.33423e-05
1.33536e-05
1.34312e-05
1.35624e-05
1.37782e-05
0.000174162
0.000183378
0.000183378
0.000183476
0.000183348
0.000183247
0.000174937
6.79627e-05
8.06361e-05
8.87042e-05
6.70503e-08
6.89509e-09
7.09648e-09
1.10385e-08
9.06898e-08
2.1821e-05
8.99134e-05
6.77217e-05
3.55686e-06
3.49891e-06
3.55686e-06
3.50699e-06
3.38761e-06
1.94765e-05
8.9828e-05
7.98897e-05
1.81777e-05
3.53741e-05
4.40308e-05
5.68132e-05
5.68482e-05
5.68482e-05
2.91243e-06
5.89939e-05
5.91463e-05
5.89168e-05
5.78527e-05
1.90891e-05
6.51925e-07
6.91177e-07
2.944e-06
1.72887e-06
1.32538e-06
3.57438e-05
0.000116401
4.88316e-05
2.0618e-06
1.99046e-06
2.02007e-06
2.2209e-06
2.39213e-06
6.18096e-06
2.21291e-05
2.22065e-05
1.57217e-05
3.06004e-06
5.34616e-05
0.00014492
0.000144951
5.53147e-05
1.24121e-08
1.24121e-08
1.2707e-08
1.48628e-08
9.88434e-08
8.73187e-07
2.63658e-06
0.000167159
0.000233103
0.000232058
0.00023228
0.000229236
2.48536e-05
1.33501e-05
1.33487e-05
1.33786e-05
1.34312e-05
1.35624e-05
1.37782e-05
1.56174e-05
0.000166711
0.000182518
0.000182835
0.000182181
0.000182545
0.000183264
0.000182397
8.27776e-05
6.64943e-05
8.94655e-05
5.66096e-07
1.50984e-08
1.10395e-08
1.62688e-08
1.10759e-07
3.66632e-05
0.000153849
0.000162073
4.19798e-06
3.55686e-06
3.62039e-06
3.72661e-06
1.85917e-05
0.000158706
0.000273561
0.000273929
7.78705e-05
1.13966e-05
5.67782e-05
5.67782e-05
5.68132e-05
3.80609e-05
5.81372e-08
5.16257e-05
5.89553e-05
5.91463e-05
5.89492e-05
4.38242e-05
9.819e-07
7.13611e-07
2.92668e-06
2.90058e-06
1.10608e-06
3.62417e-05
0.000113667
1.05896e-05
1.99046e-06
1.99046e-06
1.99044e-06
2.5898e-06
3.9162e-06
1.97545e-07
1.40682e-07
4.09129e-06
2.13652e-05
4.88414e-05
8.68581e-05
0.000132934
0.000134081
4.7979e-05
1.44666e-05
3.41382e-05
2.75115e-07
2.20211e-08
2.56203e-08
6.92107e-08
6.79437e-07
9.90892e-06
8.4328e-05
0.000185607
0.000231579
0.000152375
1.84243e-05
1.34219e-05
1.35457e-05
1.59735e-05
1.496e-05
1.43828e-05
1.51477e-05
0.000105672
0.000178436
0.000179912
0.000180518
0.000153191
0.000176193
0.000182285
0.000182988
0.000103219
6.62695e-05
8.92922e-05
2.34995e-05
3.46786e-07
2.06358e-08
2.41368e-08
5.90804e-08
6.97395e-06
0.000144988
0.000178021
0.000110239
5.44713e-06
1.66518e-05
0.00011164
0.000224447
0.000273066
0.000273968
0.000273167
0.000174626
6.87103e-06
4.8665e-05
5.67782e-05
4.02929e-05
2.04807e-05
9.80297e-09
5.95001e-06
5.08611e-05
5.89353e-05
5.88114e-05
2.96259e-05
1.15814e-06
6.94628e-07
2.31102e-06
1.81134e-06
1.01592e-06
3.39829e-05
0.000109061
3.51001e-05
2.0618e-06
1.99046e-06
5.5713e-05
0.000133165
0.000105645
1.64537e-07
1.88569e-08
2.60178e-08
4.99314e-06
2.68266e-05
3.69262e-05
2.85952e-05
3.52043e-05
2.32436e-05
5.96695e-05
6.66568e-05
5.56067e-05
4.61924e-06
7.03076e-08
2.804e-07
4.54077e-07
1.28754e-06
3.88611e-06
1.287e-05
2.62389e-05
1.2856e-05
6.65975e-06
1.49051e-05
7.26704e-05
0.00014828
0.00014109
0.000103842
0.000134917
0.000169922
0.000170279
0.000179177
0.000103284
9.8985e-06
3.57806e-05
0.000180333
0.000182202
7.72617e-05
6.64943e-05
8.81868e-05
9.63195e-05
8.92271e-06
3.53525e-08
2.16431e-08
2.08109e-08
1.96207e-07
4.14651e-05
0.000182554
0.000182554
0.000168768
0.000178539
0.00024727
0.000258835
0.000269066
0.00025383
0.00013443
3.69062e-05
6.11123e-06
8.78032e-06
2.45486e-05
2.4723e-05
6.75494e-05
5.80406e-09
9.8032e-09
5.3754e-06
2.8627e-05
1.94353e-05
4.71454e-06
2.93274e-06
6.60501e-07
1.69079e-07
4.76323e-08
1.52199e-08
1.74464e-05
9.49227e-05
0.000103058
1.46072e-05
5.38748e-06
0.000133165
0.000133254
0.000133165
0.000100886
1.53004e-08
1.15736e-08
1.37937e-08
1.72634e-07
1.01435e-07
1.90296e-07
1.36182e-06
1.25724e-05
5.95312e-05
6.66534e-05
6.66608e-05
6.4965e-05
4.28634e-05
8.94382e-06
1.28754e-06
2.50886e-06
3.14492e-06
4.52212e-06
5.58066e-06
5.45907e-06
6.22517e-06
2.80441e-05
0.00016351
0.000171325
0.000171696
0.000171602
0.000171822
0.000171602
0.000169939
9.78782e-05
2.50168e-06
5.82449e-07
2.53405e-07
6.8302e-05
0.000179052
7.06489e-05
6.69405e-05
6.87276e-05
9.71349e-05
3.19021e-05
2.42294e-08
1.96449e-08
7.41355e-09
2.39557e-08
4.55471e-07
7.66338e-05
0.000180213
0.000173586
0.000157233
0.00016648
0.000147213
2.78158e-05
3.31647e-06
3.71233e-06
4.47089e-06
5.52557e-06
6.1097e-06
2.71838e-05
6.70134e-05
6.75494e-05
4.70205e-09
5.80406e-09
1.0228e-07
5.41206e-07
7.4697e-07
4.72411e-07
1.05374e-06
5.02236e-07
7.87897e-09
3.16811e-09
2.25256e-09
7.21507e-07
1.71037e-05
0.000104751
0.000114205
0.000115891
0.000133254
0.000133254
0.000133254
0.000131936
1.57063e-05
1.0073e-08
8.71118e-09
3.18943e-09
7.03349e-09
1.66575e-08
5.90105e-08
9.33216e-07
3.73047e-05
6.65526e-05
6.63413e-05
6.63375e-05
6.70752e-05
6.74973e-05
5.64721e-05
2.02242e-05
4.52213e-06
5.58066e-06
5.46139e-06
5.53703e-06
6.90881e-06
0.000119787
0.000168574
0.000170371
0.000171325
0.000171823
0.000171602
0.000169894
8.71737e-05
1.36311e-06
4.82281e-07
2.37267e-07
1.65093e-07
3.92313e-06
8.04033e-05
0.000159436
8.24434e-05
9.32814e-05
9.75299e-05
4.55288e-05
2.15635e-08
1.08565e-08
1.55227e-09
9.33895e-07
6.93056e-06
5.62139e-06
4.03817e-06
2.70826e-05
3.00432e-06
3.00432e-06
2.98526e-06
3.01403e-06
3.13275e-06
3.3165e-06
3.69044e-06
5.19969e-06
3.36779e-05
5.49336e-05
5.44405e-05
1.61555e-05
4.42365e-09
1.72233e-07
1.84255e-07
2.43029e-07
6.37985e-07
4.06599e-07
1.57207e-08
4.73761e-08
3.40619e-09
5.69338e-10
3.53433e-10
1.98288e-09
1.83738e-07
2.53583e-05
8.30309e-05
0.000122959
0.00013322
0.000133254
0.00013322
5.21549e-05
1.96165e-06
6.69642e-09
4.12052e-09
1.4092e-09
8.23253e-10
1.35786e-09
5.93819e-09
2.50438e-08
6.41289e-06
1.47905e-05
2.46889e-05
5.66367e-05
6.74973e-05
6.74973e-05
6.74973e-05
6.70084e-05
4.1382e-05