/*--------------------------------*- C++ -*----------------------------------*\
| =========                 |                                                 |
| \\      /  F ield         | OpenFOAM: The Open Source CFD Toolbox           |
|  \\    /   O peration     | Version:  2412                                  |
|   \\  /    A nd           | Website:  www.openfoam.com                      |
|    \\/     M anipulation  |                                                 |
\*---------------------------------------------------------------------------*/
FoamFile
{
    version     2.0;
    format      ascii;
    arch        "LSB;label=32;scalar=64";
    class       volScalarField;
    location    "8.25";
    object      p_rgh;
}
// * * * * * * * * * * * * * * * * * * * * * * * * * * * * * * * * * * * * * //

dimensions      [1 -1 -2 0 0 0 0];

internalField   nonuniform List<scalar> 
6400
(
9870.77
9870.02
9868.53
9866.36
9863.56
9860.22
9856.45
9852.34
9848.02
9843.6
9839.2
9834.93
9830.9
9827.19
9823.88
9821.03
9818.7
9816.89
9815.64
9814.93
9814.76
9815.08
9815.88
9817.1
9818.69
9820.6
9822.77
9825.12
9827.62
9830.18
9832.76
9835.29
9837.72
9840
9842.07
9843.91
9845.45
9846.68
9847.56
9848.06
9848.18
9847.88
9847.18
9846.07
9844.5
9842.62
9840.38
9837.83
9835.01
9831.97
9828.77
9825.49
9822.2
9818.99
9815.93
9813.12
9810.64
9808.58
9807
9805.99
9805.61
9805.88
9806.86
9808.54
9810.92
9813.97
9817.64
9821.85
9826.52
9831.53
9836.74
9842.02
9847.22
9852.19
9856.77
9860.82
9864.23
9866.89
9868.7
9869.62
9871.5
9870.73
9869.2
9866.96
9864.08
9860.65
9856.77
9852.55
9848.11
9843.57
9839.07
9834.7
9830.57
9826.79
9823.42
9820.53
9818.16
9816.34
9815.09
9814.4
9814.25
9814.61
9815.45
9816.72
9818.37
9820.34
9822.57
9824.99
9827.54
9830.17
9832.8
9835.39
9837.87
9840.2
9842.32
9844.19
9845.77
9847.03
9847.93
9848.46
9848.58
9848.29
9847.58
9846.45
9844.9
9842.98
9840.7
9838.1
9835.22
9832.12
9828.85
9825.49
9822.12
9818.82
9815.68
9812.78
9810.22
9808.08
9806.43
9805.37
9804.93
9805.18
9806.15
9807.84
9810.25
9813.35
9817.09
9821.4
9826.18
9831.31
9836.66
9842.09
9847.44
9852.55
9857.27
9861.45
9864.97
9867.7
9869.57
9870.51
9873.01
9872.19
9870.56
9868.19
9865.14
9861.51
9857.41
9852.96
9848.28
9843.51
9838.78
9834.21
9829.91
9825.97
9822.48
9819.5
9817.07
9815.23
9813.98
9813.32
9813.22
9813.66
9814.59
9815.97
9817.73
9819.82
9822.17
9824.71
9827.39
9830.14
9832.89
9835.59
9838.18
9840.6
9842.81
9844.76
9846.42
9847.74
9848.69
9849.25
9849.39
9849.12
9848.39
9847.24
9845.66
9843.69
9841.33
9838.64
9835.65
9832.42
9829.01
9825.5
9821.96
9818.49
9815.17
9812.1
9809.37
9807.07
9805.29
9804.1
9803.58
9803.77
9804.71
9806.42
9808.89
9812.09
9815.98
9820.47
9825.48
9830.87
9836.5
9842.23
9847.88
9853.29
9858.29
9862.72
9866.45
9869.35
9871.34
9872.34
9875.32
9874.42
9872.65
9870.07
9866.76
9862.83
9858.39
9853.57
9848.53
9843.41
9838.33
9833.45
9828.87
9824.7
9821.03
9817.9
9815.4
9813.53
9812.29
9811.67
9811.66
9812.21
9813.28
9814.82
9816.75
9819.02
9821.56
9824.3
9827.17
9830.1
9833.03
9835.89
9838.64
9841.21
9843.56
9845.63
9847.39
9848.8
9849.83
9850.44
9850.63
9850.36
9849.64
9848.46
9846.82
9844.76
9842.3
9839.47
9836.31
9832.89
9829.26
9825.51
9821.73
9817.99
9814.41
9811.07
9808.08
9805.54
9803.55
9802.18
9801.51
9801.61
9802.51
9804.24
9806.79
9810.15
9814.25
9819.03
9824.38
9830.17
9836.24
9842.43
9848.55
9854.42
9859.85
9864.68
9868.74
9871.9
9874.07
9875.17
9878.5
9877.51
9875.54
9872.67
9868.99
9864.63
9859.72
9854.41
9848.86
9843.23
9837.69
9832.38
9827.42
9822.94
9819.02
9815.74
9813.11
9811.19
9809.96
9809.42
9809.53
9810.24
9811.5
9813.26
9815.43
9817.96
9820.75
9823.75
9826.87
9830.05
9833.22
9836.31
9839.27
9842.04
9844.57
9846.81
9848.71
9850.25
9851.38
9852.07
9852.31
9852.07
9851.34
9850.12
9848.42
9846.24
9843.63
9840.61
9837.23
9833.55
9829.63
9825.57
9821.44
9817.34
9813.39
9809.68
9806.34
9803.47
9801.17
9799.54
9798.68
9798.64
9799.47
9801.22
9803.89
9807.45
9811.86
9817.03
9822.84
9829.17
9835.85
9842.67
9849.45
9855.97
9862.01
9867.37
9871.89
9875.42
9877.84
9879.06
9882.68
9881.54
9879.31
9876.05
9871.88
9866.96
9861.42
9855.46
9849.24
9842.97
9836.81
9830.94
9825.49
9820.61
9816.38
9812.87
9810.11
9808.14
9806.95
9806.5
9806.78
9807.71
9809.23
9811.27
9813.76
9816.61
9819.74
9823.07
9826.51
9830.01
9833.48
9836.86
9840.1
9843.12
9845.87
9848.32
9850.41
9852.1
9853.36
9854.16
9854.46
9854.26
9853.53
9852.28
9850.46
9848.16
9845.36
9842.11
9838.44
9834.43
9830.14
9825.66
9821.09
9816.53
9812.1
9807.92
9804.11
9800.8
9798.11
9796.14
9795
9794.78
9795.53
9797.29
9800.09
9803.91
9808.69
9814.36
9820.78
9827.82
9835.28
9842.95
9850.6
9857.96
9864.8
9870.88
9876.01
9880.02
9882.76
9884.16
9887.97
9886.66
9884.07
9880.31
9875.52
9869.87
9863.54
9856.74
9849.67
9842.56
9835.62
9829.05
9823
9817.62
9813
9809.23
9806.32
9804.31
9803.17
9802.87
9803.36
9804.58
9806.43
9808.84
9811.72
9814.97
9818.51
9822.25
9826.1
9829.99
9833.83
9837.57
9841.12
9844.45
9847.48
9850.18
9852.49
9854.38
9855.81
9856.73
9857.13
9856.97
9856.24
9854.94
9853.04
9850.56
9847.54
9844
9839.99
9835.57
9830.82
9825.83
9820.71
9815.58
9810.55
9805.77
9801.38
9797.51
9794.31
9791.91
9790.42
9789.94
9790.55
9792.32
9795.27
9799.39
9804.63
9810.91
9818.1
9826.02
9834.48
9843.22
9851.98
9860.44
9868.3
9875.31
9881.22
9885.85
9889.02
9890.64
9894.57
9893.02
9889.98
9885.58
9880
9873.43
9866.1
9858.24
9850.1
9841.95
9834.05
9826.62
9819.83
9813.85
9808.78
9804.71
9801.64
9799.6
9798.55
9798.45
9799.23
9800.79
9803.06
9805.93
9809.29
9813.04
9817.08
9821.32
9825.65
9830
9834.29
9838.44
9842.38
9846.06
9849.43
9852.42
9855
9857.12
9858.75
9859.83
9860.34
9860.25
9859.53
9858.18
9856.17
9853.52
9850.23
9846.35
9841.93
9837.03
9831.73
9826.13
9820.35
9814.51
9808.75
9803.23
9798.11
9793.55
9789.72
9786.75
9784.81
9784
9784.43
9786.18
9789.29
9793.75
9799.54
9806.56
9814.67
9823.68
9833.37
9843.45
9853.61
9863.45
9872.62
9880.79
9887.7
9893.1
9896.82
9898.71
9902.7
9900.84
9897.24
9892.03
9885.44
9877.73
9869.15
9859.97
9850.5
9841.06
9831.98
9823.51
9815.85
9809.16
9803.57
9799.16
9795.93
9793.89
9792.98
9793.14
9794.28
9796.3
9799.08
9802.51
9806.46
9810.81
9815.45
9820.28
9825.18
9830.07
9834.87
9839.5
9843.9
9848
9851.74
9855.08
9857.97
9860.36
9862.22
9863.5
9864.16
9864.15
9863.45
9862.05
9859.93
9857.1
9853.51
9849.24
9844.35
9838.88
9832.93
9826.6
9820.02
9813.33
9806.68
9800.27
9794.26
9788.85
9784.23
9780.57
9778.04
9776.8
9776.98
9778.67
9781.93
9786.78
9793.2
9801.09
9810.3
9820.63
9831.82
9843.56
9855.46
9867.07
9877.87
9887.5
9895.64
9902.02
9906.41
9908.65
9912.66
9910.4
9906.08
9899.83
9891.98
9882.85
9872.73
9861.93
9850.79
9839.78
9829.27
9819.55
9810.85
9803.34
9797.14
9792.38
9789.01
9787.01
9786.31
9786.83
9788.45
9791.03
9794.45
9798.56
9803.21
9808.28
9813.63
9819.14
9824.7
9830.22
9835.62
9840.8
9845.71
9850.28
9854.45
9858.18
9861.43
9864.14
9866.28
9867.79
9868.62
9868.72
9868.07
9866.64
9864.4
9861.35
9857.48
9852.75
9847.3
9841.18
9834.48
9827.29
9819.77
9812.07
9804.37
9796.87
9789.79
9783.35
9777.76
9773.24
9769.98
9768.18
9768
9769.56
9772.96
9778.23
9785.37
9794.27
9804.79
9816.68
9829.67
9843.44
9857.54
9871.36
9884.21
9895.63
9905.28
9912.91
9918.12
9920.81
9924.86
9922.05
9916.81
9909.23
9899.78
9888.9
9876.89
9864.07
9850.86
9837.91
9825.69
9814.51
9804.61
9796.18
9789.39
9784.21
9780.71
9778.81
9778.41
9779.4
9781.62
9784.91
9789.1
9794.03
9799.53
9805.44
9811.62
9817.93
9824.26
9830.5
9836.56
9842.37
9847.85
9852.94
9857.59
9861.77
9865.4
9868.48
9870.97
9872.73
9873.77
9874.04
9873.45
9872
9869.66
9866.39
9862.19
9857.04
9850.91
9844.04
9836.46
9828.28
9819.66
9810.77
9801.82
9793.03
9784.67
9776.97
9770.2
9764.61
9760.44
9757.92
9757.25
9758.6
9762.1
9767.81
9775.75
9785.83
9797.86
9811.57
9826.68
9842.86
9859.64
9876.26
9891.76
9905.43
9916.96
9926.16
9932.39
9935.65
9939.4
9932.9
9929.78
9920.53
9908.96
9895.95
9881.6
9866.24
9850.41
9835.17
9820.99
9808.14
9796.86
9787.39
9779.88
9774.35
9770.78
9769.08
9769.11
9770.71
9773.69
9777.85
9782.99
9788.91
9795.41
9802.32
9809.46
9816.69
9823.89
9830.94
9837.75
9844.25
9850.36
9856.03
9861.22
9865.89
9869.96
9873.44
9876.26
9878.35
9879.67
9880.18
9879.66
9878.23
9875.8
9872.35
9867.83
9862.25
9855.27
9847.6
9839.02
9829.69
9819.78
9809.49
9799.05
9788.74
9778.83
9769.62
9761.42
9754.53
9749.23
9745.79
9744.47
9745.49
9749.02
9755.17
9763.99
9775.4
9789.18
9804.96
9822.38
9841.19
9861.07
9881.21
9900.4
9916.97
9931.04
9942.25
9949.65
9953.61
9956.89
9949.04
9943.2
9934.05
9919.67
9903.78
9886.6
9868.19
9848.99
9831.11
9814.79
9800.07
9787.22
9776.59
9768.34
9762.49
9758.96
9757.6
9758.21
9760.6
9764.54
9769.78
9776.07
9783.18
9790.87
9798.93
9807.18
9815.46
9823.64
9831.61
9839.26
9846.51
9853.31
9859.61
9865.37
9870.54
9875.1
9879.03
9882.26
9884.73
9886.34
9886.98
9886.73
9885.39
9882.94
9879.32
9874.47
9868.32
9860.79
9852.01
9842.28
9831.62
9820.22
9808.29
9796.1
9783.98
9772.24
9761.23
9751.31
9742.83
9736.12
9731.52
9729.33
9729.85
9733.31
9739.88
9749.6
9762.57
9778.41
9796.58
9816.5
9838.22
9861.89
9886.51
9910.12
9930.58
9947.9
9961.58
9967.63
9974.74
9973.25
9969.29
9959.03
9950.03
9931.96
9912.21
9891.36
9869.94
9846.15
9825.66
9806.8
9789.93
9775.32
9763.4
9754.33
9748.25
9744.93
9744.1
9745.52
9748.93
9754.06
9760.62
9768.3
9776.82
9785.9
9795.3
9804.83
9814.31
9823.6
9832.59
9841.15
9849.22
9856.75
9863.72
9870.08
9875.79
9880.86
9885.26
9888.98
9891.91
9893.92
9894.91
9894.83
9893.62
9891.2
9887.48
9882.33
9875.67
9867.49
9857.35
9846.39
9834.23
9821.09
9807.25
9793.04
9778.79
9764.89
9751.73
9739.74
9729.33
9720.89
9714.81
9711.47
9711.25
9714.46
9721.37
9732.12
9746.92
9765.3
9786.47
9809.5
9835.01
9863.34
9893.43
9921.67
9946.88
9968.02
9983.5
9994.99
9998.14
9984.96
9959.27
9978.49
9969.06
9946.93
9921.04
9895.27
9869.81
9843.89
9819.44
9797.11
9777.31
9760.42
9747.02
9737.19
9731.15
9728.3
9728.26
9730.74
9735.45
9742.07
9750.25
9759.61
9769.82
9780.53
9791.5
9802.51
9813.37
9823.89
9833.99
9843.54
9852.46
9860.77
9868.43
9875.43
9881.74
9887.38
9892.32
9896.55
9899.99
9902.52
9903.92
9904.12
9903.1
9900.79
9897.04
9891.67
9884.51
9875.46
9864.09
9851.66
9837.72
9822.55
9806.5
9789.91
9773.17
9756.7
9740.98
9726.51
9713.77
9703.21
9695.28
9690.44
9689.17
9691.86
9698.96
9711.03
9727.91
9749.42
9774.76
9801.41
9832.32
9865.66
9900.67
9934.8
9965.8
9992.37
10008.8
9989.48
10011.5
10011.6
9961.56
9989.01
9990.54
9964.38
9930.06
9898.95
9869.52
9840.47
9811.97
9785.32
9761.94
9742.07
9726.42
9716.01
9710.5
9708.59
9709.74
9713.6
9719.92
9728.37
9738.52
9749.9
9762.12
9774.79
9787.61
9800.36
9812.78
9824.65
9835.92
9846.5
9856.28
9865.39
9873.81
9881.49
9888.43
9894.68
9900.19
9904.96
9908.99
9912.17
9914.16
9914.77
9914.02
9911.92
9908.26
9902.79
9895.24
9884.93
9872.64
9858.35
9842.24
9824.66
9805.99
9786.64
9767.01
9747.55
9728.78
9711.3
9695.76
9682.7
9672.55
9665.75
9663
9664.7
9671.54
9684.74
9704.27
9729.36
9758.92
9791.92
9828.4
9867.14
9907.38
9948.15
9987.49
10019.9
10037
9999.14
10036.4
10048.1
9991.03
9975.9
10015.3
9984.43
9944.35
9904.88
9869.25
9835.73
9802.53
9770.35
9743.31
9720.48
9702.75
9691.04
9686.51
9685.66
9688.37
9693.93
9702.14
9712.78
9725.26
9739.07
9753.7
9768.71
9783.74
9798.52
9812.67
9825.93
9838.52
9850.24
9860.78
9870.7
9879.94
9888.35
9895.93
9902.73
9908.82
9914.23
9918.92
9922.74
9925.39
9926.57
9926.31
9924.63
9921.32
9915.99
9908.05
9897.05
9883.1
9866.67
9847.98
9827.55
9805.88
9783.4
9760.47
9737.51
9715.05
9693.9
9675
9659.11
9646.45
9637.04
9632.41
9632.95
9639.76
9653.74
9676.06
9704.78
9739.1
9778.37
9821.57
9866.8
9913.78
9962.36
10008.8
10052.6
10032.2
10034.9
10081.9
10109.9
10040.1
10019.4
10054.1
10013.3
9964.14
9914.82
9870.13
9828.83
9789
9751.88
9720.1
9693.97
9674.68
9664.09
9660.36
9659.7
9664.36
9671.68
9681.91
9695.15
9710.39
9727.05
9744.57
9762.34
9779.97
9797.12
9813.17
9827.54
9841.78
9854.38
9865.87
9876.69
9886.82
9895.93
9904.17
9911.79
9918.43
9924.4
9929.78
9934.32
9937.73
9939.44
9939.76
9938.75
9936.21
9931.46
9923.41
9911.4
9895.62
9876.65
9854.97
9831.39
9806.4
9780.41
9753.74
9726.74
9699.93
9674.29
9651.45
9632.56
9617.22
9605.31
9597.61
9595.98
9601.4
9616.35
9641.08
9674.15
9713.86
9760.32
9812.28
9866.75
9923.92
9984.23
10043
10095.7
10078.6
10088.3
10157.6
10172.8
10157.4
10133.3
10103.4
10051.2
9990.46
9929.07
9872.13
9818.42
9768.25
9724.55
9688.08
9653.69
9618.59
9603.72
9606.81
9621.8
9636.04
9646.38
9658.85
9675.54
9693.99
9714.22
9735.53
9756.86
9777.76
9797.91
9816.29
9832.2
9846.61
9859.81
9872.04
9883.58
9894.82
9904.4
9912.84
9921.69
9928.69
9934.89
9940.67
9945.88
9949.76
9952.86
9954.18
9954.41
9953.37
9950.08
9942.25
9928.97
9910.95
9889.25
9864.68
9837.93
9809.43
9779.56
9748.74
9717.3
9685.45
9653.89
9625.97
9592.16
9543.6
9487.44
9437.2
9404.04
9398.07
9429.83
9503.15
9598.93
9675.94
9731.5
9797.7
9868.58
9940.77
10016.4
10089.8
10153.8
10192.7
10218.8
10250
10243.3
10227.8
10200.5
10159.3
10096.3
9992.6
9754.28
9261.23
8564.3
7772.92
7016
6330.69
5674.74
5198.72
5040.76
5119.41
5354.44
5662.48
6021.76
6408.91
6705.06
6971.28
7268.83
7594.55
7914.35
8217.72
8510.92
8747.63
8907.1
9017.1
9120.57
9242.26
9358.64
9449.35
9492.7
9495.56
9485.28
9525.43
9635.23
9775.04
9900.76
9964.02
9970.24
9972
9974.74
9976.49
9943.41
9873.11
9768.65
9625.32
9438.17
9204.45
8924.3
8601.82
8240.81
7846.04
7403.24
6882.36
6259.52
5606.6
5066.23
4594.07
4200.87
3917.37
3772.01
3777.77
4004.29
4468.56
5138.67
5965.86
7061.37
8310.91
9317.6
9817.35
10057.8
10150.1
10223.8
10279.1
10319
10341.9
9521.78
9589.87
9186.32
8391.15
7001.2
5161.52
3488.2
2198.54
1278.97
670.946
284.006
66.3883
1.52401
1.4551
1.35238
1.31616
1.32583
1.2583
1.15749
39.5647
171.751
308.791
476.827
669.553
872.385
1093.11
1334.6
1572.24
1789.53
1998.83
2194.94
2394.72
2606.01
2826.07
3037.81
3231.97
3394.54
3511.9
3595.78
3664.66
3732.08
3810.13
3906.08
4026.87
4131.34
4162.95
4140.1
3981.8
3668.19
3254.72
2800.22
2348.63
1916.1
1499.36
1107.65
752.858
443.786
212.729
52.0868
1.72561
1.5882
1.54742
1.56078
1.60499
1.68102
1.79807
1.94238
2.05421
2.30227
69.5928
417.635
1047.36
2103.84
3768.06
6299.44
8453
9613.93
10177.2
10417.1
10279.6
3581.53
2853.25
2053.7
1133.95
423.885
85.1641
3.0549
2.50682
1.63304
0.951587
0.844578
0.808097
1.08092
1.194
1.18753
1.16549
1.1636
1.31718
1.29407
1.26224
0.978453
0.833913
0.978332
1.22483
1.42469
1.48996
1.80068
2.55257
2.21748
1.22487
0.755506
0.480054
0.399413
0.349961
0.307695
0.271515
0.239715
0.215682
0.19847
0.190735
0.190906
0.195521
0.213107
0.216766
0.172091
6.69067
4.7014
1.59767
1.57821
2.22159
2.62194
2.74995
2.68956
2.43395
1.93731
1.43217
1.11501
1.02852
1.10586
1.37855
1.43551
1.46503
1.49809
1.55029
1.62168
1.72509
1.84326
1.91771
1.88778
1.76322
1.62485
1.50502
1.48984
1.68261
2.80815
790.822
2065.1
3806
5598.61
6540.77
0.556508
0.341398
0.447287
0.297183
-0.00277813
0.25915
0.985985
1.6962
1.30717
0.910958
0.835172
0.828249
0.954989
1.01322
1.01686
0.998413
1.58708
1.84415
1.78034
1.65447
0.837282
0.797142
0.934497
1.08187
1.16748
1.27482
1.40075
1.89928
1.36158
0.565863
0.497952
0.451216
0.405469
0.356469
0.311632
0.271641
0.235135
0.204479
0.183184
0.173497
0.173831
0.199384
0.208364
0.180153
0.153255
0.122752
0.188216
0.226079
0.292529
0.375132
0.475798
0.565377
0.6559
0.754129
0.829155
0.901794
0.981467
1.05012
1.13291
1.24817
1.31721
1.365
1.39995
1.54852
1.90791
2.06703
2.13071
2.55335
2.41852
1.72071
1.5263
1.90589
2.29759
1.8832
1.93123
1.77759
1.97532
1.8182
167.861
622.928
1.17192
0.865171
0.476368
0.317943
0.127451
0.358885
0.56676
1.47491
1.78206
1.87633
1.9278
1.66828
0.972272
0.919609
0.908927
1.53861
1.80614
1.79077
1.75458
0.80162
0.695577
0.681713
0.83344
1.65569
2.1463
2.15263
2.10049
1.92235
1.13695
0.463841
0.466575
0.442433
0.404412
0.36045
0.316528
0.275646
0.239107
0.208861
0.18709
0.174716
0.169174
0.168148
0.168585
0.168695
0.166283
0.175941
0.213196
0.270943
0.335754
0.40633
0.484778
0.567182
0.650803
0.732683
0.812527
0.887288
0.968792
1.06847
1.18355
1.24853
1.24215
1.27085
1.29237
1.35328
1.95634
2.83366
3.04691
3.88434
3.8812
3.10512
1.5336
3.11652
3.73163
3.47981
2.20606
1.65409
1.58091
1.2981
1.08448
1.63004
1.88393
0.738409
0.57893
0.785304
0.892205
0.785246
0.474286
0.376614
0.580307
1.52953
1.83585
1.93953
2.02359
1.59227
0.912975
0.885624
0.904552
1.67353
1.38059
0.661303
0.64865
0.624914
0.623444
0.578097
0.86246
1.27819
1.58942
1.64115
0.503809
0.416932
0.436017
0.420759
0.388041
0.346329
0.302276
0.260128
0.222274
0.190821
0.167547
0.153099
0.146204
0.146203
0.151493
0.160623
0.175943
0.203781
0.248222
0.306073
0.372133
0.443698
0.518965
0.595824
0.671782
0.744974
0.814626
0.879807
0.943092
1.22649
1.4361
1.48927
1.23906
1.19011
1.20743
1.22153
1.22742
1.28727
1.60077
3.44085
3.97703
3.76664
2.47814
2.35381
3.19163
4.23625
4.25078
3.86621
1.56072
1.37609
1.2826
3.05109
1.68195
0.608933
0.712938
1.0121
0.908391
0.877397
0.854021
0.270749
0.38507
0.521568
0.625798
0.728466
1.4755
1.82174
1.80678
0.829095
0.698098
0.688073
0.701702
0.729502
0.767683
0.655865
0.547251
0.508806
0.45604
0.384373
0.33281
0.463515
0.431093
0.388106
0.402131
0.389001
0.359503
0.320702
0.278492
0.236855
0.198394
0.165483
0.140135
0.123558
0.115444
0.115269
0.123012
0.139622
0.166902
0.206985
0.259868
0.322496
0.391366
0.463951
0.538317
0.612845
0.685641
0.75455
0.818182
0.876234
0.928691
1.09902
1.40415
1.45479
1.48664
1.35999
1.39133
1.37408
1.38838
1.51048
2.61568
3.48997
4.0414
4.03317
3.55456
3.27904
2.51507
2.87315
4.32979
4.29846
2.74853
1.2993
1.24992
2.49658
0.794089
0.466886
0.427934
0.927342
0.852106
0.837933
0.723193
0.0839778
0.437775
0.757962
0.858287
0.851084
0.727401
0.776937
1.01036
0.978834
0.679828
0.670347
0.728664
1.66615
1.93284
1.0656
0.637248
0.504411
0.451845
0.410025
0.375594
0.355371
0.369036
0.380171
0.375526
0.358146
0.328625
0.291405
0.250528
0.209006
0.169267
0.13385
0.105252
0.0857128
0.0760638
0.0761365
0.0867366
0.110652
0.147619
0.197286
0.258436
0.326232
0.398164
0.472703
0.547528
0.620975
0.691671
0.757747
0.817624
0.870688
0.916445
0.953999
0.983174
1.08232
1.54951
1.77494
1.76918
1.73635
1.44697
2.22345
4.4182
4.46538
4.38916
4.2508
3.46254
2.61263
1.58461
2.72658
4.38146
4.34969
3.37698
1.16313
1.44757
1.1107
0.444587
0.719011
0.0984694
0.218223
0.62707
0.380711
0.0226115
-0.0104754
0.0393983
0.137354
0.234601
0.375491
0.711699
1.0557
0.76841
0.657654
0.636863
0.625066
1.82664
2.44432
2.47865
2.51384
2.1044
1.20779
0.501258
0.46525
0.430824
0.395903
0.385989
0.376495
0.35893
0.334258
0.301969
0.263942
0.222243
0.17883
0.13572
0.0956101
0.0616928
0.0375828
0.0249795
0.023706
0.0350523
0.0731634
0.186475
0.380597
0.520605
0.45042
0.40038
0.468811
0.54769
0.623567
0.694291
0.758439
0.815001
0.863677
0.904041
0.9353
0.956393
0.965103
0.953237
1.15779
1.39495
1.06128
0.78888
1.44412
4.25976
4.21764
4.06105
3.86901
2.82531
0.568701
0.664863
4.25191
4.40442
4.3783
3.52256
1.03357
2.71902
0.882371
0.361674
0.941156
0.0108681
-0.104161
-0.163585
-0.189025
-0.12564
0.0604192
0.104033
0.113491
0.208652
0.283702
0.341613
1.03093
1.03188
0.617576
0.583264
0.556628
2.23375
2.41685
2.4595
2.50625
2.54956
2.57734
1.4832
0.46982
0.458618
0.42617
0.403249
0.377182
0.348646
0.316154
0.279949
0.239192
0.194503
0.147115
0.0981019
0.0499171
0.00663516
-0.0256387
-0.0439392
-0.0491443
-0.0394342
0.0169557
0.53162
1.01748
1.09302
1.18281
0.916493
0.5345
0.544632
0.616098
0.691103
0.75565
0.80908
0.852482
0.886793
0.91175
0.926231
0.928484
0.915185
0.886843
0.846018
0.78714
0.708015
0.6395
4.01774
3.98315
3.74766
3.40952
0.592553
0.00691661
0.238965
3.08334
4.38913
4.41502
3.11486
0.763356
2.78738
0.696251
0.250421
0.975991
0.659433
-0.106395
-0.198107
-0.199553
-0.159313
0.0336832
0.124792
0.146356
0.187117
0.237231
0.270757
0.481954
0.993501
0.579898
0.546519
0.501063
1.62515
2.4329
2.468
2.48042
2.52892
2.52211
2.49774
0.582698
0.462225
0.447525
0.420337
0.393707
0.344657
0.301136
0.26066
0.215819
0.167029
0.115268
0.0587877
-0.00186523
-0.060443
-0.106201
-0.132779
-0.143122
-0.129001
0.355728
0.860532
0.912747
0.9881
1.09058
1.20984
1.33464
1.04942
0.652851
0.678579
0.747583
0.799655
0.836893
0.863391
0.881066
0.889415
0.887496
0.872082
0.842116
0.796029
0.726317
0.640722
2.52721
4.12589
3.80883
3.52685
0.259887
-0.376233
-0.195421
0.0635736
0.585036
4.36192
4.44598
3.56928
0.453716
2.86939
0.398893
0.137429
1.04267
0.925026
0.266166
-0.16058
-0.160353
-0.124713
0.0369388
0.0927304
0.0962532
0.166041
0.206472
0.217816
0.206273
0.31754
1.40359
1.53828
1.70038
2.30327
2.31909
1.62691
0.464686
1.19897
2.50563
2.52401
1.44593
0.473374
0.451567
0.43022
0.389688
0.347632
0.288338
0.24156
0.192227
0.140441
0.0859695
0.0227904
0.0493077
-0.00695318
-0.10599
-0.241872
-0.253243
-0.240975
0.317216
0.729034
0.78025
0.861759
0.966904
1.09192
1.23439
1.38985
1.47871
0.70953
0.730412
0.784411
0.816879
0.834616
0.844229
0.846618
0.841929
0.82447
0.794595
0.746245
0.672201
0.572803
4.14883
4.05946
3.6912
2.07675
-0.504997
-0.471254
-0.254107
0.470052
0.632686
1.28206
4.46473
3.32757
0.412993
0.949993
0.308117
0.0588714
0.709356
1.01017
0.500989
-0.0746685
-0.0752356
-0.0428159
0.112496
0.105925
0.0873327
0.128224
0.156349
0.161906
0.159795
0.162258
1.031
2.36105
2.37973
2.38099
2.40255
0.660999
0.264373
0.299963
1.4583
2.48201
2.15226
0.476055
0.447346
0.421042
0.379553
0.335252
0.274815
0.217714
0.162751
0.109267
0.494117
2.74239
3.04764
1.62997
-0.345735
-0.375547
-0.387188
-0.396581
-0.352684
-0.0687727
0.460556
0.723203
0.831919
0.962163
1.11333
1.28311
1.46369
1.55808
0.791522
0.761332
0.789632
0.800732
0.802822
0.800419
0.792653
0.774564
0.746413
0.698743
0.628832
0.558973
4.30949
3.95706
3.64784
0.640572
-0.586474
-0.478847
-0.244098
1.57156
0.891352
0.0847241
1.83206
1.13627
0.417813
0.242196
0.291044
0.0228755
0.0355248
0.289002
0.229171
0.0449461
0.047914
0.1673
0.199229
0.153476
0.114807
0.134541
0.141512
0.138879
0.138465
0.145166
0.139322
2.07589
2.43907
2.45556
2.48842
0.763023
0.268343
0.323143
0.46572
2.49391
2.61496
0.825209
0.432658
0.395122
0.361351
0.312813
0.250707
0.185212
0.134806
0.464782
3.08699
3.42254
3.19125
1.45161
-0.502832
-0.523705
-0.527782
-0.525946
-0.518686
-0.501051
-0.469573
-0.400428
-0.257348
0.451874
0.938779
1.13105
1.21893
1.63443
1.56203
1.02885
0.756674
0.760121
0.757122
0.751521
0.741796
0.723434
0.697157
0.650032
0.584952
1.29895
4.25958
3.86195
3.54709
-0.353963
-0.556502
-0.435854
-0.0467145
1.55353
0.712075
0.0149515
0.16773
0.170582
0.199425
0.233855
0.327256
0.0304581
0.0347313
0.0585099
0.104692
0.219264
0.251046
0.268683
0.266351
0.175386
0.152269
0.156451
0.153064
0.141152
0.140221
0.150839
0.152048
0.44203
2.46618
2.52066
2.11126
0.374944
0.270352
0.330391
0.387954
1.31822
2.7203
1.34059
0.406181
0.362071
0.319297
0.265411
0.208356
0.140352
0.106355
1.69675
3.64223
3.47403
3.26044
1.28553
-0.642554
-0.678559
-0.690965
-0.680748
-0.617128
-0.564463
-0.565207
-0.515641
-0.374569
-0.205509
-0.00250969
0.246201
0.7332
1.53623
2.1042
1.78373
1.29352
0.711043
0.708183
0.70085
0.690967
0.672684
0.648132
0.598985
0.529913
3.83803
4.10312
3.8374
2.38405
-0.157494
-0.510518
-0.375546
0.525365
1.57178
0.241858
0.0242561
0.14263
0.177193
0.217943
0.262341
0.360702
0.0622741
0.0675708
0.0808161
0.157847
0.291273
0.317189
0.33169
0.229774
0.207737
0.184123
0.179601
0.173529
0.165758
0.164782
0.169006
0.166908
0.153255
0.799198
1.28492
0.711001
0.216713
0.254444
0.315837
0.377739
1.38157
2.79846
1.6778
0.368385
0.325156
0.274188
0.217716
0.149996
0.0657608
0.212725
3.11948
3.59972
3.41308
3.30629
3.15128
2.396
0.148121
-0.816152
-0.761155
0.634754
1.47415
0.0772113
-0.505017
-0.527337
-0.29787
-0.0637825
0.275488
2.12196
2.94698
2.15122
2.06287
1.79822
0.985106
0.658435
0.649636
0.642201
0.624621
0.602564
0.552184
0.795883
4.22039
4.0564
2.66917
2.12487
0.0294151
-0.417007
-0.310153
0.459133
0.92093
0.386493
0.0947173
0.1755
0.21537
0.260811
0.306355
0.321951
0.0957402
0.0925143
0.0964203
0.154861
0.318475
0.344625
0.294395
0.210529
0.231014
0.195922
0.190112
0.191165
0.714074
1.40925
1.39709
1.07078
0.929042
0.482551
0.19973
0.178799
0.195948
0.235011
0.278243
0.344991
1.36006
2.85926
1.89419
0.323039
0.282744
0.231443
0.168021
0.0865549
-0.0219231
0.381132
3.665
3.47285
3.27853
3.10239
2.99922
2.82256
2.62599
0.269233
0.614915
1.3487
1.36757
1.36074
1.28739
0.669862
1.25527
0.643926
1.38207
3.10664
3.32779
2.41078
1.67102
1.8178
1.88166
0.608455
0.600741
0.598275
0.584302
0.561981
0.525731
1.21957
4.10205
1.98302
-0.410181
-0.221085
0.253592
-0.20328
-0.235176
-0.0521633
0.563628
0.713151
0.463113
0.2331
0.26595
0.308054
0.351538
0.358091
0.602603
0.785351
0.112032
0.131443
0.231078
0.300869
0.193959
0.203056
0.237772
0.191577
0.185313
0.801083
2.2549
2.23246
2.21247
2.20242
1.08504
0.491432
0.492818
0.999518
0.736472
0.20748
0.232165
0.297676
1.52857
2.90172
2.26866
0.277051
0.239927
0.190106
0.121123
0.0269355
-0.106888
0.704876
3.60569
3.37678
3.15542
2.95695
2.00623
-0.994832
-1.13347
-1.18844
-0.387183
0.273681
-0.438236
-1.09085
-0.488993
1.99299
2.26533
2.58169
2.83509
3.07912
3.32307
3.50773
1.60618
1.67899
1.95001
0.736324
0.559125
0.560481
0.552054
0.533957
0.502171
1.18395
3.22558
-0.0806653
-0.251589
-0.327873
-0.0854107
-0.0175392
-0.132713
-0.0723549
0.0163766
0.641871
0.716074
0.305818
0.312537
0.349025
0.764402
0.775698
1.17785
1.19759
0.266135
0.145383
0.16506
0.172055
0.177635
0.20246
0.228918
0.181184
0.174325
1.35683
2.29386
2.27029
2.24251
1.91552
0.42869
0.669045
1.03165
1.01268
0.714268
0.1455
0.198547
0.257343
1.59395
2.93355
2.85495
0.368039
0.203261
0.15722
0.0853835
-0.0177145
-0.166907
0.226648
3.5944
3.3342
3.09599
2.90273
1.68316
-1.28121
-1.35383
-1.37181
-1.36059
-1.34175
-1.3112
-1.27902
-1.23521
-0.409253
2.23011
2.5447
2.83346
3.0987
3.33861
3.53546
1.62729
1.65305
1.93135
1.86416
0.527257
0.529792
0.528671
0.518029
0.502086
0.672863
0.420436
0.076688
-0.0622965
-0.132342
-0.128991
-0.060536
-0.0153936
0.01088
0.0459064
0.118362
0.445418
0.593314
0.348384
1.00735
1.14044
1.1527
0.897807
1.23323
1.20538
0.332938
0.262212
0.16365
0.16243
0.178404
0.217029
0.168265
0.159506
1.08371
2.34012
2.31779
0.968285
0.370735
0.312959
0.505464
0.905534
1.01248
0.294843
0.15591
0.197196
0.239249
1.24144
2.97053
2.95904
1.25655
0.177323
0.137979
0.066674
-0.0392951
-0.189406
-0.194614
1.46997
3.36216
3.10316
2.90641
2.78987
0.255354
-1.42273
-1.43528
-1.40917
-1.36138
-1.31367
-1.26839
-1.21836
-1.12386
2.10219
2.58541
2.88895
3.15847
3.38835
3.57649
3.57777
1.63713
1.92826
2.14317
0.504928
0.506736
0.512135
0.508134
0.498228
0.849263
2.00344
1.44178
0.120245
0.0578062
0.0543831
0.080606
0.0891922
0.381515
1.7257
1.57421
0.394007
0.699188
0.879422
1.14775
1.17473
1.1847
0.186869
1.26088
1.26521
1.26398
1.25285
0.504618
0.14783
0.155209
0.20488
0.181756
0.163752
0.820284
2.3796
1.05425
0.127716
0.11026
0.11251
0.127802
0.142673
0.226661
0.553747
0.581632
0.487865
0.267313
1.24598
3.01389
3.00363
1.2498
0.163278
0.132718
0.0651458
-0.0374053
-0.185243
-0.391618
-0.656849
2.2055
3.19083
2.95275
2.83686
2.74645
-1.22254
-1.44277
-1.39747
-1.32806
-1.26083
-1.19985
-1.13464
-1.00275
2.09455
2.68164
2.98105
3.22562
3.4508
3.64088
3.76485
1.93214
1.66348
2.16762
0.496583
0.489697
0.498013
0.49712
0.490442
1.15647
3.33825
3.40163
0.271612
0.206127
0.194394
0.196358
0.446312
3.09295
5.2679
5.27569
1.47932
0.213945
1.14384
1.1801
1.20564
0.852471
0.118928
1.12774
1.26861
1.27067
1.27311
0.9825
0.139113
0.141976
0.191504
0.19017
0.144075
0.828157
2.36489
0.310612
0.112711
0.0888897
0.0919361
0.126858
0.181665
0.126138
0.141787
0.242585
0.607701
1.16621
1.91383
2.81691
2.83009
1.10852
0.436654
0.804017
0.0775885
-0.0196889
-0.151429
-0.340181
-0.589538
-0.717112
0.460144
2.2255
2.98612
1.36258
-1.28499
-1.36061
-1.30452
-1.18213
-1.13132
-1.07788
-0.989775
0.907889
2.51442
2.7923
3.06619
2.75188
3.4046
3.69462
3.8375
2.34791
1.66934
2.17804
0.934255
0.481885
0.482041
0.481763
0.472709
0.575834
3.24969
3.83547
2.43642
0.31385
0.513675
2.36745
4.51672
5.33601
5.22056
5.13682
3.25963
0.0647679
1.00204
1.21235
0.909907
0.529489
0.0964151
0.207373
1.11912
1.28157
1.28165
0.698675
0.131347
0.12942
0.165491
0.152137
0.126543
0.772569
2.29862
0.798336
0.0928379
0.0585453
1.15149
2.75552
2.23786
0.126017
0.138556
0.159051
0.276621
0.726355
0.924465
0.74336
0.865571
0.605971
1.3362
1.45964
1.19762
0.0912675
-0.107197
-0.257689
-0.464714
-0.705949
-0.922668
-0.976822
-0.871867
-1.2241
-1.36245
-1.18313
0.0302882
1.62142
1.53809
0.849892
1.56364
2.38489
2.55773
2.95929
1.64449
-0.0531566
0.639121
3.72531
3.88933
1.8446
1.68287
2.16837
2.39915
0.639894
0.461857
0.461101
0.450653
0.425685
1.21178
4.01824
3.95946
3.63397
3.79469
5.12894
5.23606
5.26244
4.80123
2.33266
0.469671
0.0488986
0.231096
0.598362
0.619938
1.4984
0.0860775
0.0856292
0.200509
0.682242
0.490144
0.190802
0.16193
0.118384
0.107712
0.0985872
0.0850458
0.424013
2.01796
2.19704
0.32919
0.0932946
2.73332
2.75575
2.81052
2.205
0.130448
0.149132
0.165583
0.176321
0.174251
0.168721
0.17602
0.378964
1.32967
1.45828
1.43008
1.34734
0.808766
-0.0134829
-0.332578
-0.509236
-0.715594
-0.891448
-1.03173
-1.13739
-1.17431
-0.738618
2.08426
2.27296
2.33378
2.40669
2.50645
2.62703
2.75646
1.45114
-0.333662
-0.193694
-0.0569127
1.47313
3.89135
1.73045
1.70866
1.78774
2.42427
1.09863
0.437425
0.435266
0.424499
0.400382
0.368724
1.89518
3.98442
3.78627
3.39402
3.52282
3.01986
0.403391
-0.195441
-0.172538
-0.0394256
0.140032
0.233922
0.690721
1.51924
1.52627
0.0896807
0.0919792
0.0972142
0.104789
0.107733
0.103949
0.118416
0.106532
0.0927016
0.0842331
0.0693509
0.0587866
0.377064
2.23628
2.41967
2.41054
2.74675
2.76215
2.82409
2.87628
0.45118
0.136828
0.154275
0.163823
0.167212
0.162927
0.146361
0.128655
0.860849
1.45347
1.42062
1.38388
1.34316
1.26927
0.916373
-0.00807054
-0.515241
-0.663306
-0.8116
-0.917858
-0.965903
1.38729
2.39958
2.45415
2.5238
2.61023
2.70899
2.80022
1.19274
-0.463973
-0.31243
-0.16464
-0.0352226
0.144641
1.86509
3.64042
2.06118
2.33187
2.45007
1.37269
0.410202
0.406454
0.394819
0.392203
0.484783
0.40633
0.308649
0.737462