/*--------------------------------*- C++ -*----------------------------------*\
| =========                 |                                                 |
| \\      /  F ield         | OpenFOAM: The Open Source CFD Toolbox           |
|  \\    /   O peration     | Version:  2412                                  |
|   \\  /    A nd           | Website:  www.openfoam.com                      |
|    \\/     M anipulation  |                                                 |
\*---------------------------------------------------------------------------*/
FoamFile
{
    version     2.0;
    format      ascii;
    arch        "LSB;label=32;scalar=64";
    class       surfaceScalarField;
    location    "1.44";
    object      phi;
}
// * * * * * * * * * * * * * * * * * * * * * * * * * * * * * * * * * * * * * //

dimensions      [0 3 -1 0 0 0 0];

oriented        oriented;

internalField   nonuniform List<scalar> 
158920
(
-4.98737e-08
4.98737e-08
-7.29722e-08
-7.56082e-10
-7.30378e-08
-2.06446e-08
-7.04081e-08
-1.82946e-08
-6.65364e-08
-1.52851e-08
-6.04697e-08
-1.41822e-08
-5.37431e-08
-1.23981e-08
-4.60321e-08
-1.16289e-08
-3.76039e-08
-1.11145e-08
-2.94917e-08
-9.94545e-09
-2.22712e-08
-8.46756e-09
-1.62312e-08
-6.8866e-09
-1.15146e-08
-5.29044e-09
-8.14112e-09
-3.76224e-09
-6.06453e-09
-2.34032e-09
-5.20746e-09
-1.03661e-09
-5.31591e-09
-1.46507e-11
-6.42657e-09
1.02535e-09
-8.15699e-09
1.67045e-09
-1.04099e-08
2.21004e-09
-1.30419e-08
2.60099e-09
-1.5897e-08
2.83228e-09
-1.89227e-08
3.00879e-09
-2.18321e-08
2.8969e-09
-2.46383e-08
2.79714e-09
-2.72853e-08
2.6404e-09
-2.97289e-08
2.43887e-09
-3.19502e-08
2.21805e-09
-3.39365e-08
1.98402e-09
-3.57002e-08
1.76211e-09
-3.72416e-08
1.54032e-09
-3.8586e-08
1.34368e-09
-3.97522e-08
1.16556e-09
-4.07683e-08
1.0157e-09
-4.16618e-08
8.93148e-10
-4.24628e-08
8.00599e-10
-4.32008e-08
7.37661e-10
-4.3901e-08
6.99894e-10
-4.45913e-08
6.89878e-10
-4.52952e-08
7.03582e-10
-4.60308e-08
7.35302e-10
-4.68142e-08
7.83028e-10
-4.76574e-08
8.4284e-10
-4.857e-08
9.12232e-10
-4.95571e-08
9.86746e-10
-5.06218e-08
1.06426e-09
-5.17657e-08
1.14356e-09
-5.29864e-08
1.22022e-09
-5.42841e-08
1.29737e-09
-5.56535e-08
1.36892e-09
-5.70915e-08
1.43761e-09
-5.85934e-08
1.50152e-09
-6.01552e-08
1.56134e-09
-6.17728e-08
1.61713e-09
-6.34443e-08
1.67107e-09
-6.51671e-08
1.7223e-09
-6.69395e-08
1.77201e-09
-6.87607e-08
1.8207e-09
-7.06305e-08
1.86928e-09
-7.25489e-08
1.91792e-09
-7.45164e-08
1.96694e-09
-7.65336e-08
2.01669e-09
-7.86015e-08
2.06745e-09
-8.07213e-08
2.11919e-09
-8.28936e-08
2.17184e-09
-8.51194e-08
2.22523e-09
-8.73992e-08
2.27919e-09
-8.97335e-08
2.33371e-09
-9.21229e-08
2.38886e-09
-9.45684e-08
2.44484e-09
-9.70707e-08
2.50177e-09
-9.96311e-08
2.55979e-09
-1.02251e-07
2.61903e-09
-1.04931e-07
2.67959e-09
-1.07673e-07
2.74162e-09
-1.10479e-07
2.80545e-09
-1.13352e-07
2.87151e-09
-1.16292e-07
2.94025e-09
-1.19305e-07
3.012e-09
-1.22393e-07
3.08668e-09
-1.25558e-07
3.16439e-09
-1.28803e-07
3.24439e-09
-1.3213e-07
3.32664e-09
-1.35541e-07
3.41053e-09
-1.39038e-07
3.49581e-09
-1.42621e-07
3.58247e-09
-1.46293e-07
3.67082e-09
-1.50055e-07
3.76129e-09
-1.5391e-07
3.85428e-09
-1.57861e-07
3.9501e-09
-1.61911e-07
4.04891e-09
-1.66063e-07
4.15065e-09
-1.70319e-07
4.25544e-09
-1.74683e-07
4.36298e-09
-1.79157e-07
4.47325e-09
-1.83744e-07
4.58613e-09
-1.88447e-07
4.70163e-09
-1.93268e-07
4.81989e-09
-1.9821e-07
4.94104e-09
-2.03276e-07
5.06533e-09
-2.0847e-07
5.19291e-09
-2.13795e-07
5.32401e-09
-2.19255e-07
5.45885e-09
-2.24854e-07
5.59765e-09
-2.30596e-07
5.74066e-09
-2.36485e-07
5.88798e-09
-2.42526e-07
6.03948e-09
-2.48722e-07
6.19521e-09
-2.55079e-07
6.35483e-09
-2.61598e-07
6.5182e-09
-2.68285e-07
6.68527e-09
-2.75142e-07
6.8562e-09
-2.82175e-07
7.03118e-09
-2.89387e-07
7.21058e-09
-2.96783e-07
7.39484e-09
-3.04369e-07
7.58443e-09
-3.12151e-07
7.77976e-09
-3.20133e-07
7.98101e-09
-3.28323e-07
8.1882e-09
-3.36726e-07
8.40114e-09
-3.45347e-07
8.61961e-09
-3.54193e-07
8.84341e-09
-3.63267e-07
9.07251e-09
-3.72576e-07
9.30706e-09
-3.82125e-07
9.54735e-09
-3.91921e-07
9.79383e-09
-4.0197e-07
1.0047e-08
-4.12279e-07
1.03074e-08
-4.22857e-07
1.05754e-08
-4.3371e-07
1.08513e-08
-4.44848e-07
1.11353e-08
-4.56277e-07
1.14272e-08
-4.68007e-07
1.17271e-08
-4.80044e-07
1.20348e-08
-4.92397e-07
1.23503e-08
-5.05073e-07
1.26737e-08
-5.18081e-07
1.30053e-08
-5.31429e-07
1.33454e-08
-5.45126e-07
1.36944e-08
-5.59181e-07
1.40528e-08
-5.73605e-07
1.44209e-08
-5.88407e-07
1.47991e-08
-6.03598e-07
1.51875e-08
-6.19187e-07
1.55865e-08
-6.35186e-07
1.59963e-08
-6.51607e-07
1.64171e-08
-6.68459e-07
1.68494e-08
-6.85756e-07
1.72935e-08
-7.0351e-07
1.77498e-08
-7.21732e-07
1.82186e-08
-7.40435e-07
1.87001e-08
-7.59633e-07
1.91943e-08
-7.79339e-07
1.97014e-08
-7.99564e-07
2.02214e-08
-8.20322e-07
2.07544e-08
-8.41627e-07
2.1301e-08
-8.63493e-07
2.18617e-08
-8.85935e-07
2.24375e-08
-9.08969e-07
2.30293e-08
-9.32612e-07
2.36384e-08
-9.56882e-07
2.42654e-08
-9.81797e-07
2.4911e-08
-1.00738e-06
2.55753e-08
-1.03364e-06
2.62581e-08
-1.0606e-06
2.6959e-08
-1.08829e-06
2.76777e-08
-1.11671e-06
2.84142e-08
-1.14588e-06
2.91688e-08
-1.17583e-06
2.99423e-08
-1.20657e-06
3.07359e-08
-1.23813e-06
3.15509e-08
-1.27052e-06
3.23889e-08
-1.30378e-06
3.32511e-08
-1.33792e-06
3.41383e-08
-1.37298e-06
3.50511e-08
-1.40898e-06
3.59895e-08
-1.44594e-06
3.69536e-08
-1.48389e-06
3.79433e-08
-1.52285e-06
3.89587e-08
-1.56286e-06
4.00004e-08
-1.60394e-06
4.10693e-08
-1.64611e-06
4.21664e-08
-1.68941e-06
4.32931e-08
-1.73387e-06
4.44507e-08
-1.77952e-06
4.56403e-08
-1.82639e-06
4.68628e-08
-1.87452e-06
4.8119e-08
-1.92394e-06
4.94097e-08
-1.97468e-06
5.07353e-08
-2.02679e-06
5.20968e-08
-2.08029e-06
5.3495e-08
-2.13523e-06
5.49308e-08
-2.19165e-06
5.64053e-08
-2.24958e-06
5.79198e-08
-2.30906e-06
5.94754e-08
-2.37015e-06
6.10734e-08
-2.43287e-06
6.27149e-08
-2.49729e-06
6.44014e-08
-2.56343e-06
6.61343e-08
-2.63136e-06
6.79149e-08
-2.70111e-06
6.97447e-08
-2.77275e-06
7.16249e-08
-2.84632e-06
7.35569e-08
-2.92187e-06
7.55416e-08
-2.99947e-06
7.75802e-08
-3.07915e-06
7.96739e-08
-3.16099e-06
8.18241e-08
-3.24504e-06
8.40323e-08
-3.33135e-06
8.63004e-08
-3.42e-06
8.86304e-08
-3.51104e-06
9.10242e-08
-3.60454e-06
9.34838e-08
-3.70056e-06
9.6011e-08
-3.79919e-06
9.86076e-08
-3.90048e-06
1.01275e-07
-4.00451e-06
1.04016e-07
-4.11136e-06
1.06831e-07
-4.2211e-06
1.09723e-07
-4.33381e-06
1.12695e-07
-4.44958e-06
1.15748e-07
-4.56848e-06
1.18885e-07
-4.69061e-06
1.22108e-07
-4.81605e-06
1.2542e-07
-4.94489e-06
1.28822e-07
-5.07723e-06
1.32317e-07
-5.21316e-06
1.35907e-07
-5.35277e-06
1.39595e-07
-5.49618e-06
1.43384e-07
-5.64348e-06
1.47277e-07
-5.79478e-06
1.51276e-07
-5.95019e-06
1.55386e-07
-6.10982e-06
1.59609e-07
-6.27379e-06
1.63949e-07
-6.44223e-06
1.68407e-07
-6.61524e-06
1.72988e-07
-6.79296e-06
1.77695e-07
-6.97552e-06
1.82531e-07
-7.16305e-06
1.87501e-07
-7.35568e-06
1.92606e-07
-7.55356e-06
1.97851e-07
-7.75683e-06
2.03239e-07
-7.96563e-06
2.08774e-07
-8.18012e-06
2.14461e-07
-8.40046e-06
2.20303e-07
-8.6268e-06
2.26306e-07
-8.8593e-06
2.32475e-07
-9.09815e-06
2.38815e-07
-9.34351e-06
2.4533e-07
-9.59557e-06
2.52024e-07
-9.85451e-06
2.58901e-07
-1.01205e-05
2.65966e-07
-1.03938e-05
2.73224e-07
-1.06745e-05
2.8068e-07
-1.09629e-05
2.88341e-07
-1.12591e-05
2.96214e-07
-1.15635e-05
3.04305e-07
-1.18761e-05
3.12619e-07
-1.21973e-05
3.21163e-07
-1.25273e-05
3.2994e-07
-1.28663e-05
3.38958e-07
-1.32146e-05
3.4822e-07
-1.35724e-05
3.57736e-07
-1.39399e-05
3.67513e-07
-1.43175e-05
3.7756e-07
-1.47055e-05
3.87884e-07
-1.5104e-05
3.98494e-07
-1.55135e-05
4.09397e-07
-1.59341e-05
4.20598e-07
-1.63663e-05
4.32106e-07
-1.68103e-05
4.43929e-07
-1.72664e-05
4.56075e-07
-1.7735e-05
4.68554e-07
-1.82165e-05
4.81376e-07
-1.87111e-05
4.94552e-07
-1.92192e-05
5.08091e-07
-1.97413e-05
5.22001e-07
-2.02777e-05
5.36291e-07
-2.08287e-05
5.50973e-07
-2.13948e-05
5.66055e-07
-2.19765e-05
5.81552e-07
-2.2574e-05
5.97475e-07
-2.31879e-05
6.13836e-07
-2.38187e-05
6.30647e-07
-2.44667e-05
6.47919e-07
-2.51324e-05
6.65663e-07
-2.58164e-05
6.83891e-07
-2.65191e-05
7.02616e-07
-2.7241e-05
7.21854e-07
-2.79827e-05
7.41619e-07
-2.87448e-05
7.61928e-07
-2.95277e-05
7.82795e-07
-3.0332e-05
8.04233e-07
-3.11584e-05
8.26256e-07
-3.20073e-05
8.48878e-07
-3.28796e-05
8.72116e-07
-3.37757e-05
8.95988e-07
-3.46963e-05
9.20512e-07
-3.56421e-05
9.45708e-07
-3.66138e-05
9.71595e-07
-3.76121e-05
9.9819e-07
-3.86378e-05
1.02551e-06
-3.96915e-05
1.05357e-06
-4.0774e-05
1.08239e-06
-4.18861e-05
1.112e-06
-4.30286e-05
1.14241e-06
-4.42024e-05
1.17365e-06
-4.54083e-05
1.20575e-06
-4.66472e-05
1.23872e-06
-4.79199e-05
1.27258e-06
-4.92274e-05
1.30737e-06
-5.05707e-05
1.34309e-06
-5.19506e-05
1.37978e-06
-5.33683e-05
1.41747e-06
-5.48246e-05
1.45618e-06
-5.63207e-05
1.49594e-06
-5.78577e-05
1.53677e-06
-5.94365e-05
1.57871e-06
-6.10585e-05
1.62178e-06
-6.27247e-05
1.66602e-06
-6.44364e-05
1.71144e-06
-6.61946e-05
1.7581e-06
-6.80008e-05
1.80601e-06
-6.98563e-05
1.85521e-06
-7.17622e-05
1.90574e-06
-7.372e-05
1.95763e-06
-7.57312e-05
2.0109e-06
-7.7797e-05
2.06561e-06
-7.9919e-05
2.12179e-06
-8.20987e-05
2.17947e-06
-8.43376e-05
2.2387e-06
-8.66374e-05
2.29952e-06
-8.89996e-05
2.36196e-06
-9.14259e-05
2.42606e-06
-9.3918e-05
2.49187e-06
-9.64777e-05
2.55943e-06
-9.91068e-05
2.6288e-06
-0.000101807
2.7e-06
-0.00010458
2.77311e-06
-0.000107429
2.84815e-06
-0.000110354
2.92519e-06
-0.000113359
3.00426e-06
-0.000116445
3.08542e-06
-0.000119614
3.16873e-06
-0.000122868
3.25423e-06
-0.000126211
3.34198e-06
-0.000129643
3.43204e-06
-0.000133168
3.52447e-06
-0.000136787
3.61932e-06
-0.000140504
3.71665e-06
-0.000144321
3.81653e-06
-0.000148241
3.91903e-06
-0.000152265
4.02419e-06
-0.000156398
4.13209e-06
-0.000160641
4.2428e-06
-0.000164998
4.35637e-06
-0.000169471
4.47289e-06
-0.000174064
4.59242e-06
-0.000178779
4.71503e-06
-0.00018362
4.84081e-06
-0.000188591
4.96983e-06
-0.000193693
5.10215e-06
-0.000198931
5.23787e-06
-0.000204309
5.37705e-06
-0.000209829
5.51979e-06
-0.000215496
5.66616e-06
-0.000221312
5.81625e-06
-0.000227283
5.97015e-06
-0.000233411
6.12794e-06
-0.000239701
6.2897e-06
-0.000246157
6.45554e-06
-0.000252783
6.62554e-06
-0.000259584
6.79981e-06
-0.000266562
6.97842e-06
-0.000273724
7.16147e-06
-0.000281074
7.34906e-06
-0.000288616
7.54129e-06
-0.000296355
7.73826e-06
-0.000304295
7.94008e-06
-0.000312443
8.14685e-06
-0.000320802
8.35867e-06
-0.000329378
8.57565e-06
-0.000338177
8.79788e-06
-0.000347203
9.02548e-06
-0.000356462
9.25856e-06
-0.00036596
9.49724e-06
-0.000375702
9.74162e-06
-0.000385694
9.99183e-06
-0.000395942
1.0248e-05
-0.000406453
1.05101e-05
-0.000417232
1.07785e-05
-0.000428285
1.10531e-05
-0.000439619
1.13341e-05
-0.000451241
1.16216e-05
-0.000463157
1.19157e-05
-0.000475374
1.22166e-05
-0.000487898
1.25243e-05
-0.000500737
1.28389e-05
-0.000513898
1.31606e-05
-0.000527388
1.34895e-05
-0.000541215
1.38256e-05
-0.000555385
1.41691e-05
-0.000569906
1.45201e-05
-0.000584785
1.48786e-05
-0.000600031
1.52448e-05
-0.000615651
1.56188e-05
-0.000631653
1.60006e-05
-0.000648044
1.63904e-05
-0.000664833
1.67882e-05
-0.000682028
1.71942e-05
-0.000699637
1.76083e-05
-0.000717668
1.80307e-05
-0.000736129
1.84615e-05
-0.00075503
1.89006e-05
-0.000774378
1.93481e-05
-0.000794182
1.9804e-05
-0.00081445
2.02683e-05
-0.000835191
2.0741e-05
-0.000856414
2.1222e-05
-0.000878126
2.17113e-05
-0.000900336
2.22088e-05
-0.000923053
2.27146e-05
-0.000946283
2.32285e-05
-0.000970035
2.37504e-05
-0.000994317
2.42802e-05
-0.00101914
2.48178e-05
-0.0010445
2.53631e-05
-0.00107042
2.59158e-05
-0.00109689
2.64757e-05
-0.00112393
2.70425e-05
-0.00115155
2.76159e-05
-0.00117974
2.81955e-05
-0.00120852
2.87809e-05
-0.00123789
2.93716e-05
-0.00126786
2.9967e-05
-0.00129843
3.05667e-05
-0.0013296
3.11699e-05
-0.00136138
3.1776e-05
-0.00139376
3.23844e-05
-0.00142676
3.29942e-05
-0.00146037
3.36046e-05
-0.00149458
3.42148e-05
-0.00152941
3.48235e-05
-0.00156484
3.54298e-05
-0.00160087
3.60322e-05
-0.0016375
3.66294e-05
-0.00167472
3.72201e-05
-0.00171252
3.78023e-05
-0.00175089
3.83739e-05
-0.00178983
3.89334e-05
-0.00182931
3.94792e-05
-0.00186932
4.00092e-05
-0.00190984
4.05212e-05
-0.00195086
4.1013e-05
-0.00199235
4.14824e-05
-0.00203428
4.19274e-05
-0.00207662
4.23451e-05
-0.00211936
4.27324e-05
-0.00216244
4.30861e-05
-0.00220584
4.34032e-05
-0.00224952
4.3682e-05
-0.00229344
4.39184e-05
-0.00233755
4.41061e-05
-0.00238179
4.42427e-05
-0.00242612
4.43276e-05
-0.00247047
4.43559e-05
-0.0025148
4.43247e-05
-0.00255904
4.42294e-05
-0.00260311
4.40677e-05
-0.00264695
4.3837e-05
-0.0026905
4.35349e-05
-0.00273366
4.31566e-05
-0.00277636
4.27023e-05
-0.00281853
4.21682e-05
-0.00286009
4.15516e-05
-0.00290093
4.08502e-05
-0.002941
4.00624e-05
-0.00298018
3.91864e-05
-0.0030184
3.82209e-05
-0.00305556
3.71662e-05
-0.00309158
3.60204e-05
-0.00312637
3.47851e-05
-0.00315983
3.34588e-05
-0.00319187
3.20417e-05
-0.00322241
3.05346e-05
-0.00325135
2.89445e-05
-0.00327862
2.72623e-05
-0.00330411
2.5491e-05
-0.00332774
2.36329e-05
-0.00334944
2.1692e-05
-0.0033691
1.96605e-05
-0.00338664
1.75415e-05
-0.00340198
1.53346e-05
-0.00341502
1.30382e-05
-0.00342567
1.06524e-05
-0.00343386
8.1809e-06
-0.00343948
5.61935e-06
-0.00344245
2.96635e-06
-0.00344268
2.23895e-07
-0.00344002
-2.66376e-06
-0.00343442
-5.59833e-06
-0.00342576
-8.65697e-06
-0.00341395
-1.18134e-05
-0.00339889
-1.50555e-05
-0.00338047
-1.842e-05
-0.00335861
-2.18647e-05
-0.00333317
-2.54387e-05
-0.00330407
-2.91024e-05
-0.00327118
-3.28901e-05
-0.00323445
-3.6723e-05
-0.00319379
-4.06717e-05
-0.00314908
-4.47103e-05
-0.00310024
-4.8839e-05
-0.00304723
-5.30144e-05
-0.00298998
-5.72518e-05
-0.00292844
-6.15406e-05
-0.00286257
-6.5874e-05
-0.00279234
-7.02332e-05
-0.00271773
-7.46025e-05
-0.00263877
-7.89669e-05
-0.00255547
-8.33098e-05
-0.00246787
-8.76114e-05
-0.00237602
-9.18596e-05
-0.00228002
-9.60141e-05
-0.00217996
-0.000100069
-0.00207596
-0.000103992
-0.00196818
-0.000107777
-0.00185677
-0.000111407
-0.0017419
-0.000114864
-0.00162381
-0.000118091
-0.00150274
-0.000121063
-0.00137895
-0.000123772
-0.00125274
-0.000126203
-0.00112443
-0.000128308
-0.000994357
-0.000130076
-0.00086288
-0.000131492
-0.000730394
-0.0001325
-0.000597326
-0.000133074
-0.000464082
-0.000133241
-0.0003311
-0.000132976
-0.000198774
-0.000132323
-6.76624e-05
-0.000131114
6.17062e-05
-0.000129373
0.000188827
-0.000127123
0.000313116
-0.000124287
0.000434324
-0.000121204
0.00055112
-0.000116794
0.000663605
-0.000112489
0.000771066
-0.000107472
0.000872943
-0.000101889
0.000968729
-9.57977e-05
0.001058
-8.92828e-05
0.00114034
-8.23439e-05
0.00121507
-7.47399e-05
0.00128207
-6.70045e-05
0.00134073
-5.86562e-05
0.00139124
-5.04993e-05
0.00143293
-4.16742e-05
0.00146526
-3.23257e-05
0.00148926
-2.40091e-05
0.00150379
-1.45368e-05
0.00150943
-5.65307e-06
0.00150564
3.78831e-06
0.00149285
1.28026e-05
0.00147144
2.14125e-05
0.00144157
2.98735e-05
0.00140382
3.77508e-05
0.00135876
4.50482e-05
0.00130673
5.20303e-05
0.00124825
5.84884e-05
0.00118389
6.43656e-05
0.00111438
6.95162e-05
0.00104041
7.39787e-05
0.000962771
7.76394e-05
0.000882349
8.04193e-05
0.000799408
8.29357e-05
0.000714439
8.4964e-05
0.000627279
8.71577e-05
0.000537563
8.97177e-05
0.000444439
9.31285e-05
0.000351509
9.29341e-05
0.000277308
7.42027e-05
0.000233911
4.33935e-05
0.000172853
6.10556e-05
9.17198e-05
8.11336e-05
1.79916e-05
7.37319e-05
-5.64853e-05
7.44797e-05
-0.000137205
8.07206e-05
-0.000201828
6.46248e-05
-0.00024843
4.66045e-05
-0.000322002
7.35728e-05
-0.00041548
9.3474e-05
-0.000510876
9.53886e-05
-0.000603385
9.2504e-05
-0.000693198
8.98149e-05
-0.000780883
8.76906e-05
-0.000866559
8.56818e-05
-0.00094949
8.29362e-05
-0.00102925
7.97674e-05
-0.00110507
7.58197e-05
-0.00117635
7.12838e-05
-0.00124205
6.56966e-05
-0.0013014
5.93484e-05
-0.00135371
5.23087e-05
-0.00139874
4.50291e-05
-0.00143597
3.72303e-05
-0.00146476
2.87839e-05
-0.00148469
1.99302e-05
-0.00149513
1.04452e-05
-0.0014957
5.68517e-07
-0.00148626
-9.44616e-06
-0.00146733
-1.89296e-05
-0.00143826
-2.90676e-05
-0.00139977
-3.84833e-05
-0.0013514
-4.83729e-05
-0.0012936
-5.77922e-05
-0.00122683
-6.67741e-05
-0.00115106
-7.57614e-05
-0.00106697
-8.40953e-05
-0.000974991
-9.19745e-05
-0.000875617
-9.93753e-05
-0.000769351
-0.000106269
-0.000656663
-0.000112692
-0.000538148
-0.000118519
-0.000414445
-0.000123708
-0.000286193
-0.000128258
-0.000153992
-0.000132204
-1.88636e-05
-0.00013513
0.00011899
-0.000137855
0.00025887
-0.000139881
0.000400096
-0.000141224
0.000542063
-0.000141962
0.000684258
-0.000142192
0.000826235
-0.000141977
0.000967408
-0.000141172
0.00110732
-0.000139904
0.00124548
-0.000138155
0.00138143
-0.000135959
0.0015148
-0.000133381
0.00164519
-0.000130392
0.00177226
-0.000127068
0.00189568
-0.000123414
0.00201515
-0.000119473
0.00213042
-0.000115283
0.00224129
-0.000110864
0.00234753
-0.000106236
0.00244897
-0.000101439
0.0025455
-9.65204e-05
0.002637
-9.14969e-05
0.0027234
-8.63897e-05
0.00280463
-8.12288e-05
0.00288067
-7.6044e-05
0.00295151
-7.08444e-05
0.00301715
-6.56414e-05
0.00307763
-6.04785e-05
0.00313299
-5.53626e-05
0.00318332
-5.034e-05
0.00322866
-4.53453e-05
0.00326915
-4.04905e-05
0.00330484
-3.56909e-05
0.00333589
-3.10464e-05
0.00336241
-2.65209e-05
0.00338453
-2.21153e-05
0.00340235
-1.7822e-05
0.00341603
-1.36717e-05
0.00342568
-9.6557e-06
0.00343145
-5.77765e-06
0.00343351
-2.05702e-06
0.00343192
1.59295e-06
0.00342689
5.03772e-06
0.00341852
8.37661e-06
0.00340695
1.15877e-05
0.00339229
1.46636e-05
0.00337468
1.76168e-05
0.00335423
2.04447e-05
0.00333107
2.3153e-05
0.00330534
2.57366e-05
0.00327714
2.81941e-05
0.00324662
3.05242e-05
0.00321388
3.2744e-05
0.00317906
3.48218e-05
0.00314229
3.67796e-05
0.00310368
3.86198e-05
0.00306335
4.03339e-05
0.00302145
4.1912e-05
0.00297807
4.3378e-05
0.00293336
4.47083e-05
0.00288746
4.59008e-05
0.00284048
4.6976e-05
0.00279256
4.79296e-05
0.00274379
4.87702e-05
0.0026943
4.94878e-05
0.00264421
5.00845e-05
0.00259363
5.05802e-05
0.00254267
5.09557e-05
0.00249144
5.12204e-05
0.00244004
5.13991e-05
0.00238856
5.14846e-05
0.00233708
5.14833e-05
0.0022857
5.13889e-05
0.00223449
5.12143e-05
0.00218352
5.0964e-05
0.00213287
5.06477e-05
0.00208259
5.02726e-05
0.00203275
4.98415e-05
0.0019834
4.93559e-05
0.00193459
4.88172e-05
0.00188635
4.82326e-05
0.00183874
4.76042e-05
0.00179179
4.6942e-05
0.00174553
4.62562e-05
0.00169998
4.5545e-05
0.00165517
4.48089e-05
0.00161111
4.4052e-05
0.00156783
4.32811e-05
0.00152534
4.24923e-05
0.00148365
4.16903e-05
0.00144277
4.08745e-05
0.0014027
4.0056e-05
0.00136345
3.92411e-05
0.00132503
3.84299e-05
0.00128744
3.76127e-05
0.00125068
3.67878e-05
0.00121472
3.59576e-05
0.00117958
3.51334e-05
0.00114525
3.43213e-05
0.00111173
3.35203e-05
0.001079
3.2725e-05
0.00104707
3.19329e-05
0.00101592
3.11484e-05
0.000985532
3.03765e-05
0.000955913
2.9619e-05
0.000927049
2.8873e-05
0.000898924
2.81349e-05
0.000871524
2.74037e-05
0.000844836
2.6682e-05
0.000818853
2.59739e-05
0.000793564
2.52816e-05
0.000768959
2.46049e-05
0.000745023
2.39417e-05
0.000721738
2.32902e-05
0.000699092
2.26498e-05
0.000677069
2.20212e-05
0.00065566
2.14057e-05
0.000634853
2.08041e-05
0.000614635
2.02161e-05
0.000594995
1.96414e-05
0.000575916
1.90796e-05
0.000557387
1.85305e-05
0.000539393
1.7994e-05
0.000521922
1.74699e-05
0.000504962
1.69579e-05
0.000488502
1.6458e-05
0.000472529
1.59703e-05
0.000457033
1.54949e-05
0.000442001
1.50318e-05
0.000427421
1.45807e-05
0.000413282
1.41412e-05
0.000399571
1.37129e-05
0.000386276
1.32956e-05
0.000373387
1.2889e-05
0.000360894
1.24931e-05
0.000348785
1.21077e-05
0.000337052
1.17327e-05
0.000325683
1.13678e-05
0.000314669
1.1013e-05
0.000304001
1.0668e-05
0.000293668
1.03326e-05
0.000283662
1.00065e-05
0.000273972
9.68959e-06
0.000264591
9.38158e-06
0.000255509
9.0823e-06
0.000246718
8.79155e-06
0.000238209
8.50915e-06
0.000229974
8.23492e-06
0.000222005
7.96865e-06
0.000214295
7.71014e-06
0.000206836
7.45921e-06
0.00019962
7.21567e-06
0.00019264
6.97936e-06
0.000185889
6.7501e-06
0.000179361
6.52768e-06
0.000173049
6.31195e-06
0.000166946
6.10274e-06
0.000161046
5.8999e-06
0.000155342
5.70325e-06
0.00014983
5.51261e-06
0.000144502
5.32783e-06
0.000139353
5.14876e-06
0.000134377
4.97525e-06
0.00012957
4.80716e-06
0.000124926
4.64431e-06
0.000120439
4.48658e-06
0.000116105
4.33381e-06
0.000111919
4.18587e-06
0.000107877
4.04263e-06
0.000103973
3.90395e-06
0.000100203
3.76969e-06
9.65632e-05
3.63974e-06
9.30491e-05
3.51397e-06
8.96567e-05
3.39226e-06
8.63821e-05
3.27449e-06
8.32215e-05
3.16054e-06
8.01711e-05
3.05031e-06
7.72273e-05
2.94369e-06
7.43866e-05
2.84056e-06
7.16457e-05
2.74083e-06
6.90012e-05
2.64439e-06
6.64499e-05
2.55113e-06
6.39889e-05
2.46098e-06
6.1615e-05
2.37383e-06
5.93253e-05
2.28958e-06
5.7117e-05
2.20816e-06
5.49875e-05
2.12947e-06
5.29339e-05
2.05344e-06
5.09539e-05
1.97997e-06
4.90448e-05
1.90898e-06
4.72044e-05
1.84041e-06
4.54301e-05
1.77416e-06
4.37199e-05
1.71018e-06
4.20714e-05
1.64839e-06
4.04826e-05
1.58872e-06
3.89515e-05
1.53109e-06
3.7476e-05
1.47546e-06
3.60541e-05
1.42175e-06
3.46842e-05
1.3699e-06
3.33643e-05
1.31983e-06
3.20927e-05
1.27151e-06
3.08678e-05
1.22488e-06
2.96879e-05
1.17989e-06
2.85514e-05
1.13648e-06
2.74567e-05
1.09457e-06
2.64026e-05
1.05414e-06
2.53874e-05
1.01514e-06
2.44098e-05
9.77519e-07
2.34685e-05
9.41235e-07
2.25623e-05
9.06234e-07
2.16898e-05
8.72472e-07
2.08498e-05
8.39916e-07
2.00412e-05
8.08531e-07
1.92629e-05
7.78273e-07
1.85138e-05
7.49093e-07
1.77928e-05
7.20953e-07
1.7099e-05
6.93823e-07
1.64313e-05
6.67679e-07
1.57888e-05
6.42489e-07
1.51705e-05
6.1821e-07
1.45757e-05
5.94807e-07
1.40034e-05
5.72249e-07
1.34529e-05
5.50515e-07
1.29233e-05
5.29578e-07
1.24138e-05
5.09408e-07
1.19238e-05
4.89973e-07
1.14526e-05
4.71247e-07
1.09993e-05
4.53211e-07
1.05635e-05
4.35844e-07
1.01443e-05
4.1912e-07
9.7413e-06
4.03012e-07
9.35379e-06
3.87494e-07
8.98122e-06
3.7255e-07
8.62304e-06
3.58165e-07
8.2787e-06
3.44319e-07
7.9477e-06
3.3099e-07
7.62953e-06
3.18157e-07
7.32371e-06
3.058e-07
7.02979e-06
2.93906e-07
6.74732e-06
2.8246e-07
6.47585e-06
2.71447e-07
6.21499e-06
2.60846e-07
5.96434e-06
2.50644e-07
5.7235e-06
2.40828e-07
5.4921e-06
2.31384e-07
5.26979e-06
2.22298e-07
5.05622e-06
2.13555e-07
4.85106e-06
2.05143e-07
4.654e-06
1.97052e-07
4.46472e-06
1.89272e-07
4.28291e-06
1.81792e-07
4.10831e-06
1.74597e-07
3.94062e-06
1.67674e-07
3.7796e-06
1.61016e-07
3.62497e-06
1.54615e-07
3.4765e-06
1.48464e-07
3.33394e-06
1.42552e-07
3.19706e-06
1.36864e-07
3.06566e-06
1.31391e-07
2.93953e-06
1.2613e-07
2.81844e-06
1.21076e-07
2.70221e-06
1.16223e-07
2.59064e-06
1.11559e-07
2.48357e-06
1.07071e-07
2.38081e-06
1.02754e-07
2.28219e-06
9.86055e-08
2.18756e-06
9.46254e-08
2.09675e-06
9.08079e-08
2.0096e-06
8.71414e-08
1.92598e-06
8.36142e-08
1.84576e-06
8.02194e-08
1.76879e-06
7.69561e-08
1.69496e-06
7.38247e-08
1.62414e-06
7.08215e-08
1.5562e-06
6.79382e-08
1.49102e-06
6.5166e-08
1.42852e-06
6.25002e-08
1.36858e-06
5.99401e-08
1.31109e-06
5.74858e-08
1.25595e-06
5.51332e-08
1.20307e-06
5.28748e-08
1.15236e-06
5.07028e-08
1.10375e-06
4.86137e-08
1.05713e-06
4.6608e-08
1.01244e-06
4.46867e-08
9.69594e-07
4.28468e-08
9.28509e-07
4.10815e-08
8.89122e-07
3.93836e-08
8.5137e-07
3.77493e-08
8.15188e-07
3.6179e-08
7.80511e-07
3.46744e-08
7.47273e-07
3.32349e-08
7.15414e-07
3.18564e-08
6.84878e-07
3.05331e-08
6.55614e-07
2.92614e-08
6.27571e-07
2.80404e-08
6.00699e-07
2.68703e-08
5.74947e-07
2.57499e-08
5.50269e-07
2.46755e-08
5.26624e-07
2.36429e-08
5.03972e-07
2.26501e-08
4.82272e-07
2.16977e-08
4.61483e-07
2.0787e-08
4.41564e-07
1.99173e-08
4.22478e-07
1.90846e-08
4.04192e-07
1.82837e-08
3.86679e-07
1.75113e-08
3.6991e-07
1.6768e-08
3.53851e-07
1.60568e-08
3.3847e-07
1.53797e-08
3.23733e-07
1.47354e-08
3.09612e-07
1.41193e-08
2.96084e-07
1.35268e-08
2.83127e-07
1.29557e-08
2.70719e-07
1.24071e-08
2.58834e-07
1.18829e-08
2.4745e-07
1.1383e-08
2.36544e-07
1.09052e-08
2.26097e-07
1.04453e-08
2.16094e-07
1.00019e-08
2.06518e-07
9.57538e-09
1.97349e-07
9.16781e-09
1.88567e-07
8.78037e-09
1.80154e-07
8.41196e-09
1.72094e-07
8.05982e-09
1.64372e-07
7.721e-09
1.56977e-07
7.39421e-09
1.49895e-07
7.08054e-09
1.43112e-07
6.78245e-09
1.36609e-07
6.50151e-09
1.30372e-07
6.23658e-09
1.24388e-07
5.98345e-09
1.18649e-07
5.73765e-09
1.13151e-07
5.49793e-09
1.07884e-07
5.2663e-09
1.02837e-07
5.04604e-09
9.79976e-08
4.83865e-09
9.33543e-08
4.64261e-09
8.88982e-08
4.45554e-09
8.46222e-08
4.27538e-09
8.05188e-08
4.10285e-09
7.6579e-08
3.93917e-09
7.27919e-08
3.78659e-09
6.91469e-08
3.6445e-09
6.5637e-08
3.50935e-09
6.22586e-08
3.37797e-09
5.901e-08
3.24814e-09
5.58852e-08
3.12435e-09
5.2879e-08
3.00569e-09
4.99838e-08
2.89487e-09
4.71942e-08
2.7892e-09
4.44988e-08
2.69492e-09
4.18909e-08
2.60759e-09
3.93653e-08
2.52524e-09
3.69237e-08
2.44122e-09
3.45618e-08
2.36159e-09
3.22718e-08
2.28964e-09
3.00467e-08
2.22477e-09
2.78827e-08
2.16365e-09
2.57745e-08
2.1079e-09
2.3716e-08
2.05823e-09
2.17044e-08
2.01129e-09
1.97388e-08
1.96527e-09
1.78159e-08
1.92261e-09
1.5932e-08
1.88367e-09
1.40834e-08
1.84831e-09
1.22647e-08
1.81841e-09
1.04706e-08
1.79388e-09
8.69764e-09
1.77266e-09
6.94146e-09
1.75593e-09
5.19746e-09
1.74373e-09
3.46041e-09
1.73678e-09
1.72574e-09
1.7344e-09
1.72547e-09
8.55674e-08
-1.32991e-08
6.99116e-08
4.76529e-08
3.54181e-08
3.94074e-08
1.28953e-08
2.38675e-08
-3.56819e-09
1.59035e-08
-1.36783e-08
6.71675e-09
-1.92888e-08
9.73769e-10
-2.10583e-08
-4.35406e-09
-2.17168e-08
-6.59343e-09
-2.19134e-08
-7.06217e-09
-2.15513e-08
-6.9735e-09
-2.08141e-08
-6.34835e-09
-1.97836e-08
-5.44777e-09
-1.86147e-08
-4.33473e-09
-1.74631e-08
-3.08456e-09
-1.63845e-08
-1.8361e-09
-1.55921e-08
-6.14729e-10
-1.51042e-08
6.71102e-10
-1.51538e-08
1.81395e-09
-1.55212e-08
2.64416e-09
-1.61874e-08
3.315e-09
-1.71173e-08
3.79673e-09
-1.80939e-08
4.01028e-09
-1.94421e-08
4.26287e-09
-2.09112e-08
4.27883e-09
-2.24533e-08
4.19112e-09
-2.4041e-08
4.03235e-09
-2.56469e-08
3.82773e-09
-2.72439e-08
3.58318e-09
-2.88191e-08
3.33852e-09
-3.03568e-08
3.07858e-09
-3.18533e-08
2.84021e-09
-3.33029e-08
2.61497e-09
-3.4705e-08
2.41739e-09
-3.60593e-08
2.24689e-09
-3.73701e-08
2.11081e-09
-3.86408e-08
2.00773e-09
-3.98822e-08
1.94069e-09
-4.11001e-08
1.90712e-09
-4.23023e-08
1.90513e-09
-4.34994e-08
1.93165e-09
-4.47003e-08
1.98323e-09
-4.5914e-08
2.05594e-09
-4.71484e-08
2.14587e-09
-4.84093e-08
2.24699e-09
-4.97039e-08
2.35814e-09
-5.10353e-08
2.47419e-09
-5.24087e-08
2.59292e-09
-5.38244e-08
2.71229e-09
-5.5287e-08
2.83076e-09
-5.6796e-08
2.94589e-09
-5.83521e-08
3.05685e-09
-5.9955e-08
3.16338e-09
-6.16041e-08
3.26544e-09
-6.32986e-08
3.36479e-09
-6.50387e-08
3.46151e-09
-6.68244e-08
3.55682e-09
-6.86564e-08
3.65185e-09
-7.05348e-08
3.74674e-09
-7.24598e-08
3.84205e-09
-7.4432e-08
3.93824e-09
-7.64522e-08
4.03591e-09
-7.85212e-08
4.13548e-09
-8.064e-08
4.23703e-09
-8.28099e-08
4.34076e-09
-8.50321e-08
4.4464e-09
-8.73076e-08
4.55363e-09
-8.96373e-08
4.66237e-09
-9.20222e-08
4.77266e-09
-9.44631e-08
4.88467e-09
-9.69611e-08
4.99865e-09
-9.95173e-08
5.11488e-09
-1.02133e-07
5.23371e-09
-1.0481e-07
5.35545e-09
-1.0755e-07
5.48053e-09
-1.10356e-07
5.60952e-09
-1.13228e-07
5.74299e-09
-1.16171e-07
5.88144e-09
-1.19185e-07
6.0252e-09
-1.22274e-07
6.17424e-09
-1.25439e-07
6.32834e-09
-1.28683e-07
6.48712e-09
-1.32008e-07
6.64993e-09
-1.35415e-07
6.81643e-09
-1.38907e-07
6.98622e-09
-1.42486e-07
7.15941e-09
-1.46153e-07
7.33642e-09
-1.49911e-07
7.51778e-09
-1.53762e-07
7.70408e-09
-1.57709e-07
7.89576e-09
-1.61755e-07
8.0931e-09
-1.65902e-07
8.2962e-09
-1.70154e-07
8.50514e-09
-1.74512e-07
8.71967e-09
-1.78981e-07
8.93977e-09
-1.83562e-07
9.16528e-09
-1.88258e-07
9.39624e-09
-1.93073e-07
9.63283e-09
-1.98009e-07
9.87533e-09
-2.0307e-07
1.0124e-08
-2.08258e-07
1.03793e-08
-2.13578e-07
1.06417e-08
-2.19033e-07
1.09114e-08
-2.24626e-07
1.11891e-08
-2.30363e-07
1.1475e-08
-2.36247e-07
1.17693e-08
-2.42281e-07
1.20719e-08
-2.48471e-07
1.23826e-08
-2.5482e-07
1.27012e-08
-2.61332e-07
1.30273e-08
-2.6801e-07
1.33611e-08
-2.74859e-07
1.37027e-08
-2.81883e-07
1.40527e-08
-2.89087e-07
1.44118e-08
-2.96476e-07
1.47807e-08
-3.04055e-07
1.51603e-08
-3.11829e-07
1.55511e-08
-3.19804e-07
1.59535e-08
-3.27987e-07
1.63674e-08
-3.36381e-07
1.67926e-08
-3.44993e-07
1.72287e-08
-3.53829e-07
1.76756e-08
-3.62893e-07
1.81333e-08
-3.72192e-07
1.86022e-08
-3.81731e-07
1.90829e-08
-3.91517e-07
1.95761e-08
-4.01556e-07
2.00829e-08
-4.11857e-07
2.0604e-08
-4.22425e-07
2.11401e-08
-4.3327e-07
2.16918e-08
-4.44398e-07
2.22593e-08
-4.55817e-07
2.28424e-08
-4.67536e-07
2.34412e-08
-4.79561e-07
2.40556e-08
-4.91901e-07
2.46856e-08
-5.04563e-07
2.53315e-08
-5.17556e-07
2.5994e-08
-5.3089e-07
2.66737e-08
-5.44572e-07
2.73715e-08
-5.58612e-07
2.80881e-08
-5.7302e-07
2.88241e-08
-5.87807e-07
2.95801e-08
-6.02981e-07
3.03566e-08
-6.18555e-07
3.11542e-08
-6.34537e-07
3.19733e-08
-6.50941e-07
3.28146e-08
-6.67776e-07
3.36788e-08
-6.85055e-07
3.45664e-08
-7.0279e-07
3.54783e-08
-7.20993e-07
3.64152e-08
-7.39677e-07
3.73773e-08
-7.58855e-07
3.83652e-08
-7.78539e-07
3.93788e-08
-7.98743e-07
4.04185e-08
-8.19481e-07
4.14847e-08
-8.40766e-07
4.25782e-08
-8.62612e-07
4.37002e-08
-8.85035e-07
4.48525e-08
-9.0805e-07
4.60367e-08
-9.31675e-07
4.72548e-08
-9.55926e-07
4.85082e-08
-9.80822e-07
4.97977e-08
-1.00638e-06
5.11239e-08
-1.03262e-06
5.24865e-08
-1.05955e-06
5.38854e-08
-1.0872e-06
5.53203e-08
-1.11559e-06
5.67915e-08
-1.14473e-06
5.82999e-08
-1.17465e-06
5.9847e-08
-1.20536e-06
6.14351e-08
-1.23688e-06
6.30666e-08
-1.26925e-06
6.47438e-08
-1.30248e-06
6.64688e-08
-1.3366e-06
6.82429e-08
-1.37162e-06
7.00671e-08
-1.40759e-06
7.19418e-08
-1.44451e-06
7.3867e-08
-1.48243e-06
7.58433e-08
-1.52135e-06
7.78713e-08
-1.56132e-06
7.99523e-08
-1.60235e-06
8.20884e-08
-1.64448e-06
8.42816e-08
-1.68773e-06
8.65344e-08
-1.73215e-06
8.88491e-08
-1.77775e-06
9.12278e-08
-1.82458e-06
9.36721e-08
-1.87266e-06
9.61836e-08
-1.92203e-06
9.87636e-08
-1.97272e-06
1.01414e-07
-2.02478e-06
1.04135e-07
-2.07823e-06
1.0693e-07
-2.13311e-06
1.098e-07
-2.18948e-06
1.12748e-07
-2.24735e-06
1.15776e-07