/*--------------------------------*- C++ -*----------------------------------*\
| =========                 |                                                 |
| \\      /  F ield         | OpenFOAM: The Open Source CFD Toolbox           |
|  \\    /   O peration     | Version:  2412                                  |
|   \\  /    A nd           | Website:  www.openfoam.com                      |
|    \\/     M anipulation  |                                                 |
\*---------------------------------------------------------------------------*/
FoamFile
{
    version     2.0;
    format      ascii;
    arch        "LSB;label=32;scalar=64";
    class       volVectorField;
    location    "62";
    object      U;
}
// * * * * * * * * * * * * * * * * * * * * * * * * * * * * * * * * * * * * * //

dimensions      [0 1 -1 0 0 0 0];

internalField   nonuniform List<vector> 
6400
(
(-1.71346e-06 1.89363e-06 0)
(-6.90327e-06 2.8712e-06 0)
(-1.0652e-05 2.62791e-06 0)
(-1.10105e-05 1.83626e-06 0)
(-6.46768e-06 9.87511e-07 0)
(3.39284e-06 1.04867e-07 0)
(1.83038e-05 -6.31787e-07 0)
(3.78782e-05 -1.33367e-06 0)
(6.14457e-05 -1.84419e-06 0)
(8.85227e-05 -2.37772e-06 0)
(0.000118479 -2.76466e-06 0)
(0.000150849 -3.14095e-06 0)
(0.000184955 -3.33286e-06 0)
(0.000220513 -3.60949e-06 0)
(0.000256969 -3.70941e-06 0)
(0.000294183 -3.87601e-06 0)
(0.000331606 -3.95975e-06 0)
(0.000369442 -4.16428e-06 0)
(0.000407323 -4.24849e-06 0)
(0.000444764 -4.13324e-06 0)
(0.000481591 -3.97882e-06 0)
(0.000517371 -4.13573e-06 0)
(0.000552676 -4.1553e-06 0)
(0.000587346 -4.1154e-06 0)
(0.000620661 -4.01372e-06 0)
(0.000652155 -4.17136e-06 0)
(0.000681351 -3.79077e-06 0)
(0.000707605 -3.2313e-06 0)
(0.000731117 -3.07616e-06 0)
(0.000751231 -2.24197e-06 0)
(0.000766847 -1.45862e-06 0)
(0.000777586 -1.33287e-06 0)
(0.000784107 -1.34816e-06 0)
(0.000786456 -1.22871e-06 0)
(0.000782835 4.99279e-07 0)
(0.000772263 2.07088e-06 0)
(0.000756424 2.07159e-06 0)
(0.000733845 1.97752e-06 0)
(0.00070584 3.20233e-06 0)
(0.000671183 4.65299e-06 0)
(0.000631309 4.91976e-06 0)
(0.000586793 5.19657e-06 0)
(0.000537922 5.61822e-06 0)
(0.000485721 6.01e-06 0)
(0.000430079 6.4261e-06 0)
(0.000371957 6.68312e-06 0)
(0.000311947 6.88727e-06 0)
(0.000250884 6.87476e-06 0)
(0.000189512 6.86911e-06 0)
(0.000128586 6.67804e-06 0)
(6.87092e-05 6.51824e-06 0)
(1.05082e-05 6.14647e-06 0)
(-4.54435e-05 5.85425e-06 0)
(-9.86818e-05 5.3553e-06 0)
(-0.000148769 4.99266e-06 0)
(-0.000195465 4.41563e-06 0)
(-0.000238066 3.88577e-06 0)
(-0.000276016 3.09272e-06 0)
(-0.000308824 2.46196e-06 0)
(-0.000336505 1.60103e-06 0)
(-0.000358512 9.01475e-07 0)
(-0.000374661 -4.49918e-08 0)
(-0.000384405 -6.87313e-07 0)
(-0.000387729 -1.81705e-06 0)
(-0.000383644 -2.83621e-06 0)
(-0.000372881 -4.05386e-06 0)
(-0.000354637 -4.59347e-06 0)
(-0.000330193 -5.74836e-06 0)
(-0.000299187 -6.17616e-06 0)
(-0.000263184 -7.17581e-06 0)
(-0.000222756 -7.15303e-06 0)
(-0.000180237 -7.70965e-06 0)
(-0.00013684 -7.02955e-06 0)
(-9.54213e-05 -6.88341e-06 0)
(-5.76596e-05 -5.44851e-06 0)
(-2.65807e-05 -4.44267e-06 0)
(-3.86747e-06 -2.25484e-06 0)
(8.21661e-06 -3.50324e-07 0)
(1.00321e-05 1.95826e-06 0)
(3.80482e-06 2.60684e-06 0)
(-1.87036e-06 7.85928e-06 0)
(-7.90878e-06 1.1025e-05 0)
(-8.55739e-06 6.488e-06 0)
(-1.19453e-07 -1.69321e-06 0)
(2.03438e-05 -1.14435e-05 0)
(5.35889e-05 -2.12211e-05 0)
(9.95235e-05 -3.06583e-05 0)
(0.000157071 -3.89683e-05 0)
(0.000225219 -4.64222e-05 0)
(0.000302334 -5.2568e-05 0)
(0.000387355 -5.80654e-05 0)
(0.00047849 -6.21584e-05 0)
(0.000574782 -6.54809e-05 0)
(0.000674682 -6.79013e-05 0)
(0.000777752 -6.99422e-05 0)
(0.000882474 -7.09292e-05 0)
(0.000988421 -7.16099e-05 0)
(0.00109449 -7.19087e-05 0)
(0.00120059 -7.24611e-05 0)
(0.00130546 -7.14236e-05 0)
(0.0014095 -6.99905e-05 0)
(0.00151086 -6.83642e-05 0)
(0.00161013 -6.69722e-05 0)
(0.0017057 -6.57787e-05 0)
(0.00179721 -6.32728e-05 0)
(0.00188398 -5.8866e-05 0)
(0.00196436 -5.36927e-05 0)
(0.00203708 -4.85428e-05 0)
(0.00210043 -4.25584e-05 0)
(0.00215371 -3.43884e-05 0)
(0.00219579 -2.57245e-05 0)
(0.00222457 -1.70479e-05 0)
(0.00224044 -7.88057e-06 0)
(0.00224234 8.47804e-07 0)
(0.00222863 1.24594e-05 0)
(0.00219788 2.64537e-05 0)
(0.00215089 3.69413e-05 0)
(0.00208717 4.71241e-05 0)
(0.00200707 6.02867e-05 0)
(0.00191044 7.22655e-05 0)
(0.00179944 8.12331e-05 0)
(0.00167367 8.95309e-05 0)
(0.00153606 9.78282e-05 0)
(0.00138819 0.000104532 0)
(0.00123249 0.000109535 0)
(0.00106925 0.000114038 0)
(0.000900709 0.000116849 0)
(0.000729123 0.000118138 0)
(0.00055689 0.000117775 0)
(0.000385596 0.000116397 0)
(0.00021706 0.000113402 0)
(5.30676e-05 0.000109656 0)
(-0.000104781 0.000104467 0)
(-0.000254926 9.87596e-05 0)
(-0.000396625 9.1947e-05 0)
(-0.000528352 8.45982e-05 0)
(-0.00064861 7.54008e-05 0)
(-0.000755372 6.57305e-05 0)
(-0.000848627 5.50637e-05 0)
(-0.000926781 4.44691e-05 0)
(-0.000989785 3.27543e-05 0)
(-0.0010358 2.08622e-05 0)
(-0.00106504 7.46087e-06 0)
(-0.00107499 -5.71126e-06 0)
(-0.00106649 -2.05235e-05 0)
(-0.00103817 -3.35893e-05 0)
(-0.000991921 -4.73687e-05 0)
(-0.000926714 -5.92185e-05 0)
(-0.000846332 -7.13594e-05 0)
(-0.000751046 -7.91355e-05 0)
(-0.000646274 -8.63603e-05 0)
(-0.000533875 -8.77734e-05 0)
(-0.000420842 -8.78411e-05 0)
(-0.000310408 -8.09786e-05 0)
(-0.000210209 -7.22926e-05 0)
(-0.000123932 -5.68508e-05 0)
(-5.81433e-05 -3.99592e-05 0)
(-1.49722e-05 -1.92664e-05 0)
(3.81883e-06 -1.66961e-06 0)
(3.67724e-06 7.03833e-06 0)
(-1.18826e-06 1.27922e-05 0)
(-2.05105e-06 1.4147e-05 0)
(7.18065e-06 6.08242e-07 0)
(3.07128e-05 -2.08506e-05 0)
(7.14135e-05 -4.54467e-05 0)
(0.000130612 -7.08786e-05 0)
(0.000207823 -9.49013e-05 0)
(0.000302258 -0.000117174 0)
(0.000411901 -0.000136476 0)
(0.000535389 -0.000153527 0)
(0.00067013 -0.000167451 0)
(0.000814548 -0.000179058 0)
(0.00096629 -0.000187712 0)
(0.0011246 -0.000194992 0)
(0.00128698 -0.00019976 0)
(0.00145238 -0.000202944 0)
(0.00161883 -0.000204249 0)
(0.00178619 -0.0002051 0)
(0.00195256 -0.000204792 0)
(0.00211895 -0.000203072 0)
(0.00228289 -0.00019928 0)
(0.00244319 -0.000194591 0)
(0.00259803 -0.000189055 0)
(0.00274743 -0.000184047 0)
(0.00289053 -0.000175677 0)
(0.0030255 -0.000163433 0)
(0.00315037 -0.000148771 0)
(0.00326237 -0.00013363 0)
(0.00335973 -0.000116745 0)
(0.0034413 -9.45203e-05 0)
(0.00350495 -7.02429e-05 0)
(0.0035494 -4.53891e-05 0)
(0.00357228 -1.87963e-05 0)
(0.00357256 8.83735e-06 0)
(0.00354831 4.06716e-05 0)
(0.00349892 7.46113e-05 0)
(0.00342259 0.000106571 0)
(0.003321 0.000138963 0)
(0.00319345 0.000172527 0)
(0.00304072 0.000202776 0)
(0.00286564 0.000229541 0)
(0.00266867 0.000255619 0)
(0.00245135 0.000278688 0)
(0.00221707 0.000295696 0)
(0.00197029 0.000310634 0)
(0.00171268 0.000322478 0)
(0.0014469 0.00033113 0)
(0.00117612 0.000334522 0)
(0.000903893 0.000334261 0)
(0.000633411 0.000330141 0)
(0.000366847 0.00032303 0)
(0.000107306 0.000311957 0)
(-0.000142219 0.000298399 0)
(-0.000380421 0.0002816 0)
(-0.000605153 0.000263666 0)
(-0.000813655 0.000241571 0)
(-0.00100283 0.000216926 0)
(-0.00117258 0.000189322 0)
(-0.00132015 0.00016102 0)
(-0.00144521 0.000130525 0)
(-0.00154506 9.90708e-05 0)
(-0.00161952 6.39408e-05 0)
(-0.00166514 2.84231e-05 0)
(-0.00168293 -9.60089e-06 0)
(-0.00167015 -4.69977e-05 0)
(-0.00162935 -8.57758e-05 0)
(-0.00155899 -0.00012077 0)
(-0.00146266 -0.000156235 0)
(-0.00134013 -0.000184473 0)
(-0.00119861 -0.000210341 0)
(-0.0010393 -0.000225034 0)
(-0.000871767 -0.000235145 0)
(-0.000699219 -0.000230755 0)
(-0.000532819 -0.000219961 0)
(-0.000377062 -0.00019362 0)
(-0.000242714 -0.00016097 0)
(-0.000133589 -0.000116091 0)
(-5.68088e-05 -6.97331e-05 0)
(-1.25212e-05 -2.38746e-05 0)
(1.7612e-06 3.81052e-06 0)
(-2.86733e-07 1.36636e-05 0)
(6.6454e-06 7.44763e-06 0)
(2.91364e-05 -2.03994e-05 0)
(7.06256e-05 -5.97826e-05 0)
(0.000133823 -0.000104737 0)
(0.000219433 -0.000150366 0)
(0.000327521 -0.000194639 0)
(0.000456398 -0.000234863 0)
(0.000604778 -0.000271089 0)
(0.00076976 -0.000301892 0)
(0.000949349 -0.000328438 0)
(0.00114045 -0.000349411 0)
(0.00134224 -0.000366617 0)
(0.00155132 -0.000379382 0)
(0.00176596 -0.00038886 0)
(0.00198352 -0.000393944 0)
(0.00220364 -0.000396872 0)
(0.00242429 -0.000397996 0)
(0.00264533 -0.000397682 0)
(0.00286489 -0.000393267 0)
(0.00308089 -0.000386403 0)
(0.00329129 -0.000376969 0)
(0.00349586 -0.000365423 0)
(0.00369214 -0.000352386 0)
(0.0038801 -0.000336583 0)
(0.00405592 -0.000313582 0)
(0.0042194 -0.000285692 0)
(0.00436436 -0.000254219 0)
(0.00449157 -0.000219599 0)
(0.00459723 -0.000178901 0)
(0.00467988 -0.000133113 0)
(0.00473714 -8.41477e-05 0)
(0.00476587 -3.18213e-05 0)
(0.00476365 2.31559e-05 0)
(0.00473036 8.37211e-05 0)
(0.00466256 0.000148015 0)
(0.00456077 0.000210702 0)
(0.00442301 0.000273495 0)
(0.00425389 0.00033501 0)
(0.00405101 0.000391487 0)
(0.00381833 0.000445093 0)
(0.00355885 0.000496219 0)
(0.00327391 0.000538216 0)
(0.00296557 0.000573901 0)
(0.00263731 0.000603907 0)
(0.00229427 0.000627173 0)
(0.00194189 0.000641923 0)
(0.00158331 0.000648979 0)
(0.00122182 0.000648311 0)
(0.0008623 0.000641411 0)
(0.000508742 0.000627273 0)
(0.000164456 0.000606518 0)
(-0.000166979 0.000579867 0)
(-0.000484071 0.000549427 0)
(-0.00078314 0.000512359 0)
(-0.00105859 0.000470888 0)
(-0.00131065 0.000423147 0)
(-0.00153617 0.00037221 0)
(-0.00173354 0.000316574 0)
(-0.0018992 0.000258843 0)
(-0.00203249 0.000196027 0)
(-0.00212938 0.000130757 0)
(-0.00219097 6.07033e-05 0)
(-0.00221387 -9.17929e-06 0)
(-0.00220058 -8.2585e-05 0)
(-0.00214728 -0.000152465 0)
(-0.00205967 -0.000222644 0)
(-0.00193508 -0.000284158 0)
(-0.00178145 -0.000342467 0)
(-0.00159861 -0.000385155 0)
(-0.00139781 -0.000419871 0)
(-0.00118102 -0.000432621 0)
(-0.000962022 -0.000433443 0)
(-0.000744697 -0.000408404 0)
(-0.000543396 -0.00036985 0)
(-0.00036271 -0.000307068 0)
(-0.000214614 -0.000234674 0)
(-0.000101895 -0.000149436 0)
(-3.14653e-05 -6.98297e-05 0)
(-1.04222e-07 -8.44909e-06 0)
(5.77827e-07 9.4504e-06 0)
(1.5997e-05 -1.12943e-05 0)
(5.24554e-05 -5.81355e-05 0)
(0.000112729 -0.000120146 0)
(0.000198103 -0.000188678 0)
(0.000309587 -0.000258904 0)
(0.000446202 -0.000325992 0)
(0.000607076 -0.000388511 0)
(0.000789503 -0.000443583 0)
(0.000991689 -0.00049198 0)
(0.0012099 -0.000532175 0)
(0.00144265 -0.000565913 0)
(0.00168661 -0.000592177 0)
(0.0019395 -0.000612725 0)
(0.00219772 -0.000626122 0)
(0.00246062 -0.000635025 0)
(0.00272634 -0.000639633 0)
(0.00299446 -0.000641667 0)
(0.00326089 -0.000639486 0)
(0.00352511 -0.00063317 0)
(0.00378422 -0.000621178 0)
(0.00403882 -0.000605905 0)
(0.0042852 -0.000586198 0)
(0.00452302 -0.00056394 0)
(0.00474759 -0.000536042 0)
(0.00495938 -0.000500368 0)
(0.00515422 -0.000456065 0)
(0.00532906 -0.000404701 0)
(0.00548121 -0.000347334 0)
(0.00560815 -0.000282879 0)
(0.00570646 -0.000210161 0)
(0.00577401 -0.000131166 0)
(0.00580596 -4.6161e-05 0)
(0.00580141 4.47808e-05 0)
(0.00575809 0.000141909 0)
(0.00567426 0.000241648 0)
(0.00554957 0.00034129 0)
(0.00538385 0.000442272 0)
(0.00517783 0.000539637 0)
(0.00493402 0.000630239 0)
(0.00465043 0.0007184 0)
(0.00433536 0.000798055 0)
(0.00399076 0.000865302 0)
(0.00361961 0.000924981 0)
(0.00322266 0.000974891 0)
(0.00280761 0.00101165 0)
(0.00237918 0.0010356 0)
(0.00194331 0.00104735 0)
(0.00150385 0.00104777 0)
(0.00106612 0.00103547 0)
(0.00063627 0.00101321 0)
(0.000217229 0.00097965 0)
(-0.000187283 0.000938645 0)
(-0.000572641 0.000889314 0)
(-0.000935029 0.000830404 0)
(-0.00127126 0.00076089 0)
(-0.00157724 0.000686307 0)
(-0.00185161 0.000603451 0)
(-0.00209002 0.000515785 0)
(-0.00229138 0.000420566 0)
(-0.00245044 0.00032126 0)
(-0.00256907 0.000214511 0)
(-0.00264207 0.000105333 0)
(-0.00267248 -8.96511e-06 0)
(-0.00265555 -0.000121027 0)
(-0.00259616 -0.00023524 0)
(-0.00249033 -0.000340737 0)
(-0.00234685 -0.000443241 0)
(-0.00216312 -0.000528024 0)
(-0.00195124 -0.000602896 0)
(-0.00171117 -0.000649833 0)
(-0.00145842 -0.000679979 0)
(-0.00119543 -0.000674412 0)
(-0.000939378 -0.000647773 0)
(-0.000694218 -0.000583364 0)
(-0.000476207 -0.000499125 0)
(-0.000289225 -0.000385338 0)
(-0.00014547 -0.000263312 0)
(-4.85013e-05 -0.000136157 0)
(-1.91612e-06 -3.12866e-05 0)
(1.34839e-06 2.2582e-07 0)
(2.45747e-05 -4.16292e-05 0)
(7.43403e-05 -0.000112737 0)
(0.000151989 -0.000200535 0)
(0.000258239 -0.000296623 0)
(0.00039286 -0.000393317 0)
(0.000555524 -0.000486914 0)
(0.000743878 -0.000572758 0)
(0.00095644 -0.000650236 0)
(0.00118969 -0.000716773 0)
(0.0014416 -0.000774121 0)
(0.00170837 -0.000820255 0)
(0.00198805 -0.000857778 0)
(0.00227592 -0.000885243 0)
(0.00257114 -0.000905249 0)
(0.00287122 -0.000917189 0)
(0.00317656 -0.000925603 0)
(0.00348133 -0.000927091 0)
(0.00378522 -0.000923208 0)
(0.00408535 -0.000912115 0)
(0.00438211 -0.000895945 0)
(0.00467205 -0.000873949 0)
(0.00495516 -0.000845952 0)
(0.00522627 -0.000811095 0)
(0.00548264 -0.000769054 0)
(0.00572258 -0.000716768 0)
(0.00594423 -0.000654866 0)
(0.00614364 -0.000580435 0)
(0.00631774 -0.000495936 0)
(0.00646135 -0.000402495 0)
(0.00657277 -0.000298678 0)
(0.00664734 -0.000184502 0)
(0.00668335 -6.07638e-05 0)
(0.0066757 7.09905e-05 0)
(0.00662506 0.000208787 0)
(0.00652887 0.000352009 0)
(0.00638629 0.000497329 0)
(0.00619647 0.000642133 0)
(0.00596079 0.000780791 0)
(0.00568077 0.00091435 0)
(0.00535664 0.00104007 0)
(0.00499395 0.00115102 0)
(0.00459876 0.00124911 0)
(0.00417011 0.00133751 0)
(0.00371581 0.0014099 0)
(0.00324022 0.00146428 0)
(0.00274935 0.00149973 0)
(0.00224816 0.00151823 0)
(0.00174328 0.0015185 0)
(0.0012399 0.00150251 0)
(0.000743808 0.00146937 0)
(0.000260045 0.00142366 0)
(-0.000207187 0.00136226 0)
(-0.00064984 0.00129071 0)
(-0.00106418 0.00120428 0)
(-0.00144922 0.00110596 0)
(-0.00180245 0.000995901 0)
(-0.00211638 0.000877525 0)
(-0.00239079 0.000748724 0)
(-0.00261884 0.000612234 0)
(-0.00280257 0.000465985 0)
(-0.00293625 0.000315394 0)
(-0.00302235 0.000156419 0)
(-0.00305488 -3.23844e-06 0)
(-0.0030392 -0.000167401 0)
(-0.00296975 -0.000324541 0)
(-0.00285483 -0.000480274 0)
(-0.00269002 -0.00061836 0)
(-0.00248789 -0.000746675 0)
(-0.00224585 -0.000843949 0)
(-0.00198047 -0.000921437 0)
(-0.00169159 -0.000955257 0)
(-0.00139864 -0.000961407 0)
(-0.0011039 -0.000916847 0)
(-0.000827218 -0.000842145 0)
(-0.000572162 -0.000719873 0)
(-0.00035573 -0.000574615 0)
(-0.000181622 -0.000400541 0)
(-6.38394e-05 -0.000225499 0)
(-3.08675e-06 -6.18026e-05 0)
(1.93408e-06 -1.32312e-05 0)
(3.18077e-05 -8.25381e-05 0)
(9.27392e-05 -0.000181901 0)
(0.000185665 -0.000299567 0)
(0.000309601 -0.000425001 0)
(0.00046457 -0.00055153 0)
(0.000648775 -0.000672214 0)
(0.000860922 -0.000784578 0)
(0.0010977 -0.0008843 0)
(0.00135738 -0.000972188 0)
(0.00163543 -0.00104578 0)
(0.00192995 -0.00110705 0)
(0.00223661 -0.00115424 0)
(0.00255361 -0.00119108 0)
(0.00287724 -0.00121654 0)
(0.00320905 -0.00123492 0)
(0.00354289 -0.00124431 0)
(0.0038768 -0.00124616 0)
(0.00420878 -0.00123886 0)
(0.00453951 -0.00122565 0)
(0.00486536 -0.00120368 0)
(0.00518559 -0.00117504 0)
(0.00549588 -0.00113647 0)
(0.00579372 -0.00108834 0)
(0.0060747 -0.00102923 0)
(0.00633893 -0.000959009 0)
(0.00658114 -0.000875737 0)
(0.00680095 -0.000777465 0)
(0.00699115 -0.000662591 0)
(0.00715 -0.000536225 0)
(0.00727097 -0.000396213 0)
(0.0073527 -0.000242602 0)
(0.00739163 -7.67703e-05 0)
(0.0073846 0.000100263 0)
(0.00732793 0.000287143 0)
(0.00722231 0.00047847 0)
(0.00706522 0.000672074 0)
(0.00685673 0.000865083 0)
(0.0065956 0.00105284 0)
(0.00628647 0.00123242 0)
(0.00592927 0.00140025 0)
(0.00552885 0.00155011 0)
(0.00508968 0.00168511 0)
(0.0046164 0.00180239 0)
(0.00411417 0.00189928 0)
(0.00358954 0.00197234 0)
(0.00304691 0.00202211 0)
(0.00249336 0.0020472 0)
(0.00193483 0.00204957 0)
(0.00137816 0.00202816 0)
(0.000828823 0.00198655 0)
(0.000292798 0.00192391 0)
(-0.000224604 0.00184109 0)
(-0.000714459 0.00173848 0)
(-0.00117045 0.001624 0)
(-0.00159608 0.00149257 0)
(-0.00198445 0.00134597 0)
(-0.00233275 0.00118369 0)
(-0.00263272 0.00101141 0)
(-0.00288485 0.000825763 0)
(-0.0030847 0.000631516 0)
(-0.00323383 0.00042608 0)
(-0.00332538 0.000217236 0)
(-0.00336442 3.5856e-07 0)
(-0.00334393 -0.00021289 0)
(-0.00327245 -0.000427643 0)
(-0.00314334 -0.000626925 0)
(-0.0029691 -0.000818308 0)
(-0.00274456 -0.000978599 0)
(-0.00248687 -0.0011187 0)
(-0.00219303 -0.0012105 0)
(-0.00188387 -0.00127037 0)
(-0.00155879 -0.00126878 0)
(-0.00124062 -0.00122799 0)
(-0.000931248 -0.00112237 0)
(-0.000652281 -0.000979519 0)
(-0.000406615 -0.000783982 0)
(-0.000212067 -0.000566647 0)
(-7.47136e-05 -0.000328101 0)
(-4.29443e-06 -0.00010045 0)
(2.35269e-06 -3.01096e-05 0)
(3.71165e-05 -0.000131652 0)
(0.000106975 -0.000263594 0)
(0.000211703 -0.000413339 0)
(0.000350249 -0.000571461 0)
(0.000521081 -0.000728346 0)
(0.00072325 -0.000879108 0)
(0.000953562 -0.00101743 0)
(0.00121028 -0.00114224 0)
(0.00148934 -0.00124997 0)
(0.001788 -0.00134231 0)
(0.00210162 -0.00141651 0)
(0.00242938 -0.00147662 0)
(0.00276698 -0.00152154 0)
(0.00311448 -0.00155564 0)
(0.00346732 -0.00157721 0)
(0.00382195 -0.00158877 0)
(0.00417521 -0.00158903 0)
(0.00453044 -0.00158182 0)
(0.00488286 -0.00156456 0)
(0.00523132 -0.00153819 0)
(0.00557093 -0.0015 0)
(0.00590131 -0.00145109 0)
(0.00621767 -0.00138751 0)
(0.00651983 -0.00131136 0)
(0.00680196 -0.00122037 0)
(0.00706172 -0.00111514 0)
(0.00729437 -0.000989942 0)
(0.00749924 -0.000843905 0)
(0.00766838 -0.000680186 0)
(0.00779827 -0.000501995 0)
(0.0078857 -0.000305886 0)
(0.0079282 -9.32897e-05 0)
(0.00792053 0.000133179 0)
(0.00786097 0.0003702 0)
(0.00774631 0.000614628 0)
(0.00757795 0.000861834 0)
(0.00735461 0.00110805 0)
(0.00707631 0.00134739 0)
(0.006744 0.00157778 0)
(0.00636235 0.00179209 0)
(0.00593302 0.00198623 0)
(0.00546217 0.00215827 0)
(0.00495411 0.00230814 0)
(0.00441616 0.0024312 0)
(0.00385286 0.00252604 0)
(0.00327127 0.00259002 0)
(0.002677 0.00262428 0)
(0.00207793 0.00262721 0)
(0.00148046 0.00260204 0)
(0.000890725 0.0025483 0)
(0.000316776 0.00247006 0)
(-0.00023694 0.00236193 0)
(-0.000764584 0.00222946 0)
(-0.00125741 0.00207869 0)
(-0.00170982 0.0019135 0)
(-0.00212444 0.0017255 0)
(-0.00249508 0.0015187 0)
(-0.00281713 0.00129323 0)
(-0.00308391 0.00105837 0)
(-0.00329877 0.000808265 0)
(-0.00345407 0.000549602 0)
(-0.00355443 0.000279478 0)
(-0.00359176 9.07979e-06 0)
(-0.00357418 -0.000266775 0)
(-0.00349346 -0.000531241 0)
(-0.00336191 -0.00079135 0)
(-0.00317173 -0.00102314 0)
(-0.00294015 -0.00123686 0)
(-0.002661 -0.0014014 0)
(-0.00235609 -0.00153269 0)
(-0.00202151 -0.00159567 0)
(-0.00168229 -0.00161312 0)
(-0.00133719 -0.00155107 0)
(-0.00101177 -0.00143925 0)
(-0.000707263 -0.0012519 0)
(-0.0004462 -0.00102377 0)
(-0.000231624 -0.00074383 0)
(-8.35051e-05 -0.000447585 0)
(-4.67637e-06 -0.000142667 0)
(2.55613e-06 -4.92026e-05 0)
(4.04999e-05 -0.000187042 0)
(0.000116333 -0.000354061 0)
(0.000229868 -0.000539233 0)
(0.000378686 -0.00073077 0)
(0.000561953 -0.000920766 0)
(0.000777087 -0.00110068 0)
(0.00102182 -0.00126747 0)
(0.00129212 -0.00141568 0)
(0.00158579 -0.00154586 0)
(0.00189704 -0.00165409 0)
(0.00222474 -0.00174405 0)
(0.00256575 -0.00181571 0)
(0.00291856 -0.00187264 0)
(0.00327871 -0.00191218 0)
(0.00364487 -0.00193798 0)
(0.00401096 -0.00194894 0)
(0.00437961 -0.00195154 0)
(0.00474834 -0.0019425 0)
(0.00511497 -0.00192254 0)
(0.00547479 -0.00188836 0)
(0.00582816 -0.00184179 0)
(0.0061703 -0.0017804 0)
(0.00650134 -0.00170457 0)
(0.00681688 -0.00161042 0)
(0.00711382 -0.00149781 0)
(0.00738371 -0.00136585 0)
(0.00762659 -0.00121356 0)
(0.00783965 -0.00103567 0)
(0.00801705 -0.000834745 0)
(0.00815286 -0.000613262 0)
(0.0082455 -0.000372358 0)
(0.00828823 -0.000111019 0)
(0.0082798 0.00016707 0)
(0.00821705 0.000459475 0)
(0.00809851 0.000759543 0)
(0.00792156 0.00106288 0)
(0.00768831 0.00136374 0)
(0.00739751 0.00165944 0)
(0.00705151 0.0019429 0)
(0.006653 0.00220789 0)
(0.00620602 0.00244703 0)
(0.00571332 0.00265924 0)
(0.00518283 0.00284285 0)
(0.00461948 0.00299495 0)
(0.00403071 0.00311134 0)
(0.00342175 0.00319196 0)
(0.00280052 0.00323425 0)
(0.00217357 0.00323984 0)
(0.0015487 0.00320843 0)
(0.000931632 0.00314377 0)
(0.000332206 0.00304524 0)
(-0.000244578 0.00291612 0)
(-0.000797372 0.00275179 0)
(-0.00131435 0.00256289 0)
(-0.00178942 0.00235337 0)
(-0.00221809 0.00212577 0)
(-0.00260273 0.00187062 0)
(-0.00293574 0.00159415 0)
(-0.00321637 0.00130012 0)
(-0.0034359 0.000995926 0)
(-0.00359971 0.000675469 0)
(-0.00369919 0.000349134 0)
(-0.00374184 1.30527e-05 0)
(-0.00371809 -0.00031689 0)
(-0.00363987 -0.000647157 0)
(-0.00349722 -0.000954238 0)
(-0.0033071 -0.0012476 0)
(-0.0030602 -0.00149477 0)
(-0.00277869 -0.0017105 0)
(-0.00245489 -0.00185556 0)
(-0.00211539 -0.00195223 0)
(-0.00175524 -0.0019591 0)
(-0.00140317 -0.00190687 0)
(-0.00105728 -0.00175904 0)
(-0.000744946 -0.00155362 0)
(-0.000466681 -0.00126744 0)
(-0.000245272 -0.000941262 0)
(-8.69749e-05 -0.00057013 0)
(-5.35935e-06 -0.000189775 0)
(2.58377e-06 -6.95419e-05 0)
(4.1869e-05 -0.000245803 0)
(0.000121202 -0.000450905 0)
(0.000239904 -0.000672453 0)
(0.000395908 -0.000899953 0)
(0.000586894 -0.0011229 0)
(0.000811564 -0.00133514 0)
(0.00106542 -0.00152862 0)
(0.00134556 -0.00170204 0)
(0.00164668 -0.00185071 0)
(0.0019661 -0.00197733 0)
(0.00230142 -0.0020813 0)
(0.0026508 -0.00216694 0)
(0.00300747 -0.00223123 0)
(0.00337246 -0.00227862 0)
(0.00374206 -0.00230598 0)
(0.0041164 -0.00232026 0)
(0.00449152 -0.00232241 0)
(0.00486666 -0.00231374 0)
(0.00523702 -0.00228774 0)
(0.00560343 -0.00224809 0)
(0.005962 -0.00219214 0)
(0.00631272 -0.00212123 0)
(0.00665016 -0.00203095 0)
(0.00697274 -0.0019205 0)
(0.00727389 -0.001785 0)
(0.00755112 -0.00162663 0)
(0.00779927 -0.00144356 0)
(0.00801632 -0.00123325 0)
(0.00819567 -0.000993687 0)
(0.00833519 -0.000729238 0)
(0.00842755 -0.000440243 0)
(0.0084709 -0.000129139 0)
(0.00846108 0.000203746 0)
(0.0083966 0.000551775 0)
(0.00827451 0.000908871 0)
(0.00809528 0.0012692 0)
(0.00785616 0.00162943 0)
(0.0075594 0.00198245 0)
(0.0072056 0.00232043 0)
(0.00680112 0.00263494 0)
(0.00634681 0.00292219 0)
(0.00584535 0.00317773 0)
(0.00530184 0.00339826 0)
(0.00472634 0.00357899 0)
(0.00412348 0.00371904 0)
(0.00350122 0.00381539 0)
(0.00286611 0.00386785 0)
(0.0022256 0.00387372 0)
(0.0015863 0.00383814 0)
(0.000955685 0.00375964 0)
(0.000342693 0.00364075 0)
(-0.000245388 0.00348584 0)
(-0.000806006 0.00329391 0)
(-0.00133606 0.00306491 0)
(-0.00182352 0.00281058 0)
(-0.00226327 0.00253177 0)
(-0.00265018 0.00223159 0)
(-0.00298954 0.00190207 0)
(-0.00327184 0.0015527 0)
(-0.00349805 0.00118495 0)
(-0.00365976 0.000807603 0)
(-0.00376459 0.000415293 0)
(-0.00380213 2.27334e-05 0)
(-0.00378364 -0.000375481 0)
(-0.00369757 -0.000757288 0)
(-0.00356027 -0.00113122 0)
(-0.00335971 -0.00146522 0)
(-0.00311799 -0.00177253 0)
(-0.00282361 -0.00201168 0)
(-0.00250395 -0.00220354 0)
(-0.00214969 -0.0023006 0)
(-0.00179204 -0.00233319 0)
(-0.00142495 -0.00225494 0)
(-0.00108009 -0.00210566 0)
(-0.000754698 -0.0018493 0)
(-0.000476618 -0.00153181 0)
(-0.00024676 -0.00113501 0)
(-8.90582e-05 -0.000702462 0)
(-5.03525e-06 -0.000236029 0)
(2.37992e-06 -8.99264e-05 0)
(4.16622e-05 -0.000306289 0)
(0.000122198 -0.000550523 0)
(0.000243992 -0.000810818 0)
(0.000404303 -0.00107464 0)
(0.000601168 -0.00133348 0)
(0.00083029 -0.00157603 0)
(0.00108859 -0.00179797 0)
(0.00137135 -0.00199333 0)
(0.00167608 -0.00216317 0)
(0.00199821 -0.00230534 0)
(0.00233618 -0.00242472 0)
(0.00268404 -0.00251758 0)
(0.00304032 -0.0025905 0)
(0.00340174 -0.00264237 0)
(0.0037701 -0.00267746 0)
(0.00414337 -0.002694 0)
(0.00452023 -0.00269727 0)
(0.00489237 -0.0026831 0)
(0.00526137 -0.00265494 0)
(0.00562595 -0.00260878 0)
(0.00598614 -0.00254765 0)
(0.0063353 -0.0024647 0)
(0.00667237 -0.00236169 0)
(0.00699134 -0.00223178 0)
(0.00729186 -0.00207559 0)
(0.00756786 -0.0018901 0)
(0.00781632 -0.00167657 0)
(0.00802989 -0.00143062 0)
(0.00820845 -0.0011537 0)
(0.00834569 -0.000844923 0)
(0.00843765 -0.000508284 0)
(0.00847917 -0.000144971 0)
(0.00846949 0.000240787 0)
(0.00840363 0.000644802 0)
(0.00828165 0.0010591 0)
(0.00810082 0.00147952 0)
(0.00786234 0.00189814 0)
(0.00756544 0.00230806 0)
(0.00721364 0.00269888 0)
(0.00680838 0.0030649 0)
(0.00635438 0.00340056 0)
(0.00585382 0.00370148 0)
(0.00531317 0.00395896 0)
(0.00473752 0.0041711 0)
(0.004135 0.00433386 0)
(0.00351219 0.00444672 0)
(0.00287853 0.00450705 0)
(0.00223803 0.00451682 0)
(0.0015981 0.00447453 0)
(0.000969375 0.00438341 0)
(0.000356203 0.00424267 0)
(-0.000232643 0.00406078 0)
(-0.000791537 0.0038381 0)
(-0.00131777 0.00357615 0)
(-0.00180663 0.00327584 0)
(-0.00224703 0.00294663 0)
(-0.00263676 0.00259033 0)
(-0.00297005 0.00221123 0)
(-0.00325245 0.00180365 0)
(-0.00347349 0.001379 0)
(-0.00363873 0.00093597 0)
(-0.00373762 0.000486661 0)
(-0.00378091 2.5921e-05 0)
(-0.00375606 -0.000426235 0)
(-0.00367868 -0.000877139 0)
(-0.00353456 -0.00129671 0)
(-0.00334529 -0.00169666 0)
(-0.00309592 -0.00203534 0)
(-0.00281396 -0.0023316 0)
(-0.00248558 -0.0025341 0)
(-0.00214351 -0.00267149 0)
(-0.00177663 -0.00268895 0)
(-0.00142011 -0.00262645 0)
(-0.00106682 -0.00243527 0)
(-0.000750017 -0.0021648 0)
(-0.000466582 -0.00178251 0)
(-0.000243945 -0.00134014 0)
(-8.51699e-05 -0.000827134 0)
(-5.18326e-06 -0.0002841 0)
(2.0712e-06 -0.000109667 0)
(4.01948e-05 -0.000366363 0)
(0.000121055 -0.000651743 0)
(0.000244905 -0.000951391 0)
(0.000408628 -0.00125429 0)
(0.00060824 -0.00154638 0)
(0.000839535 -0.00181992 0)
(0.00109787 -0.00206688 0)
(0.0013802 -0.00228645 0)
(0.00168189 -0.00247429 0)
(0.00200084 -0.00263408 0)
(0.0023323 -0.0027632 0)
(0.0026749 -0.00286714 0)
(0.00302464 -0.00294517 0)
(0.00338115 -0.00300466 0)
(0.0037413 -0.00304321 0)
(0.00410659 -0.00306553 0)
(0.00447184 -0.00306665 0)
(0.00483715 -0.0030516 0)
(0.00519832 -0.00301816 0)
(0.00555693 -0.0029698 0)
(0.00590679 -0.00289838 0)
(0.00624768 -0.00280522 0)
(0.00657398 -0.00268479 0)
(0.00688445 -0.0025382 0)
(0.00717477 -0.00235967 0)
(0.00744392 -0.00214996 0)
(0.00768408 -0.00190442 0)
(0.00789318 -0.00162484 0)
(0.00806527 -0.00130874 0)
(0.00819849 -0.000958348 0)
(0.00828616 -0.000573986 0)
(0.00832669 -0.000160859 0)
(0.00831501 0.000278882 0)
(0.00825058 0.000737706 0)
(0.00812944 0.00121012 0)
(0.0079522 0.0016876 0)
(0.00771716 0.00216389 0)
(0.00742715 0.00262876 0)
(0.00708208 0.0030743 0)
(0.00668572 0.00349118 0)
(0.00623982 0.00387448 0)
(0.0057506 0.00421633 0)
(0.00522174 0.00451175 0)
(0.00466021 0.00475397 0)
(0.00407121 0.00494095 0)
(0.00346289 0.00506873 0)
(0.00284167 0.00513874 0)
(0.00221531 0.00515017 0)
(0.0015907 0.00510305 0)
(0.000975683 0.00499733 0)
(0.000376269 0.00483935 0)
(-0.000201298 0.00462904 0)
(-0.000748279 0.00437508 0)
(-0.00126182 0.00407616 0)
(-0.00173528 0.00373677 0)
(-0.00216705 0.00335842 0)
(-0.00254697 0.00294985 0)
(-0.00287635 0.00251246 0)
(-0.00314757 0.0020522 0)
(-0.00336701 0.00156637 0)
(-0.00352353 0.00106739 0)
(-0.00362652 0.000551861 0)
(-0.00366314 3.68531e-05 0)
(-0.00364814 -0.000483728 0)
(-0.00356606 -0.000982932 0)
(-0.00343752 -0.00147086 0)
(-0.00324482 -0.0019079 0)
(-0.00301517 -0.0023104 0)
(-0.0027303 -0.00262603 0)
(-0.00242354 -0.00288078 0)
(-0.00207837 -0.00301386 0)
(-0.00173226 -0.00306358 0)
(-0.0013725 -0.00296975 0)
(-0.0010371 -0.00278297 0)
(-0.000718358 -0.00245546 0)
(-0.000449819 -0.00204526 0)
(-0.000228611 -0.00152713 0)
(-8.07724e-05 -0.000955114 0)
(-3.95805e-06 -0.000326842 0)
(1.61283e-06 -0.000128 0)
(3.84737e-05 -0.000425707 0)
(0.000119819 -0.000753093 0)
(0.000245829 -0.00109541 0)
(0.000412677 -0.00143541 0)
(0.000614372 -0.00176121 0)
(0.00084556 -0.00206224 0)
(0.00110249 -0.00233505 0)
(0.00138025 -0.00257374 0)
(0.00167617 -0.00278042 0)
(0.00198581 -0.00295235 0)
(0.00230774 -0.0030949 0)
(0.00263809 -0.00320612 0)
(0.00297676 -0.00329352 0)
(0.00331978 -0.00335595 0)
(0.0036673 -0.00340082 0)
(0.00401584 -0.00342265 0)
(0.00436594 -0.00342635 0)
(0.00471368 -0.0034082 0)
(0.00506078 -0.00337341 0)
(0.00540135 -0.00331576 0)
(0.00573504 -0.00323658 0)
(0.00605743 -0.00312995 0)
(0.00636929 -0.00299672 0)
(0.00666419 -0.00283083 0)
(0.00694158 -0.0026333 0)
(0.00719525 -0.00239751 0)
(0.00742402 -0.0021246 0)
(0.00762107 -0.00181067 0)
(0.0077848 -0.00145818 0)
(0.00790876 -0.00106531 0)
(0.00799151 -0.000636685 0)
(0.00802717 -0.000173853 0)
(0.0080149 0.000316499 0)
(0.00795023 0.000829831 0)
(0.0078333 0.0013568 0)
(0.00766112 0.00189093 0)
(0.00743556 0.00242177 0)
(0.00715582 0.00294134 0)
(0.0068251 0.00343839 0)
(0.00644393 0.00390558 0)
(0.00601718 0.00433365 0)
(0.00554778 0.00471668 0)
(0.00504216 0.00504641 0)
(0.00450441 0.00531862 0)
(0.00394173 0.00552774 0)
(0.00335946 0.00567267 0)
(0.00276537 0.00575089 0)
(0.0021661 0.00576396 0)
(0.00156907 0.00571028 0)
(0.000980674 0.00559369 0)
(0.000407105 0.00541566 0)
(-0.000144484 0.00518172 0)
(-0.000668884 0.00489402 0)
(-0.00115812 0.00455901 0)
(-0.00161074 0.00417723 0)
(-0.00201941 0.00375586 0)
(-0.00238474 0.00329638 0)
(-0.00269719 0.0028078 0)
(-0.00296104 0.00228967 0)
(-0.00316679 0.0017513 0)
(-0.00332304 0.00119056 0)
(-0.00341704 0.00062244 0)
(-0.00346235 4.22522e-05 0)
(-0.003443 -0.00052699 0)
(-0.00337846 -0.0010935 0)
(-0.00324939 -0.0016216 0)
(-0.00308203 -0.00212503 0)
(-0.00285459 -0.00255339 0)
(-0.00260011 -0.00292939 0)
(-0.00229669 -0.00318961 0)
(-0.001983 -0.00336905 0)
(-0.00163987 -0.00339886 0)
(-0.0013086 -0.00332808 0)
(-0.000975505 -0.00309438 0)
(-0.000680138 -0.00275863 0)
(-0.000415075 -0.00227854 0)
(-0.000212071 -0.00171897 0)
(-7.00111e-05 -0.00106552 0)
(-3.45415e-06 -0.000368407 0)
(1.22448e-06 -0.000145243 0)
(3.84856e-05 -0.000484804 0)
(0.000123157 -0.000857459 0)
(0.000253022 -0.00124168 0)
(0.000423034 -0.00161985 0)
(0.00062676 -0.00197683 0)
(0.000857958 -0.00230559 0)
(0.00111117 -0.00259878 0)
(0.00138283 -0.00285711 0)
(0.00166859 -0.00307674 0)
(0.0019666 -0.0032626 0)
(0.0022732 -0.00341279 0)
(0.00258817 -0.0035342 0)
(0.00290837 -0.00362525 0)