/*--------------------------------*- C++ -*----------------------------------*\
| =========                 |                                                 |
| \\      /  F ield         | OpenFOAM: The Open Source CFD Toolbox           |
|  \\    /   O peration     | Version:  2412                                  |
|   \\  /    A nd           | Website:  www.openfoam.com                      |
|    \\/     M anipulation  |                                                 |
\*---------------------------------------------------------------------------*/
FoamFile
{
    version     2.0;
    format      ascii;
    arch        "LSB;label=32;scalar=64";
    class       volScalarField;
    location    "17";
    object      p;
}
// * * * * * * * * * * * * * * * * * * * * * * * * * * * * * * * * * * * * * //

dimensions      [1 -1 -2 0 0 0 0];

internalField   nonuniform List<scalar> 
6400
(
19592.9
19573
19536.4
19472.7
19384.8
19276.6
19150.3
18998.2
18818.8
18632
18430.5
18229.3
18019.1
17795.9
17571
17342.7
17109.8
16877.5
16651.2
16437.3
16242.7
16072.4
15929.2
15815.9
15735.2
15690.6
15688.7
15739.4
15852.4
16032.8
16279.7
16588.7
16954.8
17373.8
17841.9
18354.4
18905.6
19488.9
20097.4
20724.4
21363.2
22007.2
22649.2
23281.6
23896.5
24485.2
25039.8
25553.7
26022.3
26443.1
26815.2
27138
27410.6
27631.1
27797.9
27909.7
27966.5
27969.3
27919.8
27820.2
27673.4
27484
27259.4
27009.9
26746.8
26480.7
26218.5
25963.9
25718
25481.8
25258.3
25052.8
24872.5
24722.1
24600.7
24501.8
24420.6
24358.4
24319.6
24303.4
18381
18362.6
18328.7
18266.6
18179.1
18068.1
17937.7
17786.5
17608
17423.9
17221.6
17013.8
16802
16582.4
16357.1
16126.7
15891.8
15657.4
15430.9
15218.9
15025.9
14855.2
14709.9
14593.4
14509.2
14462.1
14460.2
14513.4
14629.8
14812.8
15061.3
15371.3
15738.7
16159.3
16628.8
17142.1
17693.2
18275.9
18883.5
19509.5
20147.4
20790.6
21432.1
22064.4
22678.7
23265.9
23817.5
24326.7
24789.3
25203.7
25569.7
25887.2
26155.6
26372.9
26537.3
26647.5
26703.5
26706.1
26656.8
26557.1
26409.8
26219.5
25994.3
25745
25483.5
25219.8
24960.4
24708.1
24464
24229.1
24006.5
23802.7
23625.7
23479.6
23360.6
23260.4
23175.5
23109.9
23068.3
23054.7
17175.9
17157.6
17125.3
17064.4
16978.4
16866.3
16732.9
16579.8
16402
16217.2
16015.9
15805.5
15586
15367
15145.3
14916.1
14682.1
14449.5
14224.9
14014.2
13821.8
13650.1
13501.9
13381.6
13294.4
13246.8
13246.8
13302.9
13422.3
13607.8
13858.5
14170.7
14540
14962.3
15433.2
15947.6
16499.4
17081.9
17688.2
18311.7
18946.2
19586.1
20224.8
20854.3
21465.3
22047.7
22592.2
23092
23543.6
23946.8
24302.4
24611.2
24872.7
25084.7
25245.3
25353
25407.7
25410.2
25361.4
25262.4
25115.4
24925.4
24700.8
24452.9
24193.7
23932.8
23676.2
23426.7
23185
22952.6
22733.6
22535.3
22364.6
22222.7
22105
22006.4
21925.7
21862.5
21814.8
21791.8
15980.9
15961.9
15926
15864.2
15776.6
15659.6
15525.1
15373.1
15197.1
15008
14803.3
14599
14381.5
14161.6
13941.7
13717.2
13488.6
13260.1
13037.9
12828
12635.1
12461.9
12312.2
12191
12104
12057.5
12059.4
12118.6
12241.8
12431.4
12685.5
13000
13370.4
13793.1
14264.1
14778.3
15329.3
15909.6
16511.8
17129.6
17757.8
18391.2
19023.4
19646.1
20248.6
20819.7
21349.9
21833.1
22267.6
22654.6
22996.3
23293.9
23546.5
23751.8
23907.2
24011.3
24064
24065.9
24017.6
23919.7
23774.1
23585.9
23363.9
23119.8
22865.5
22610.1
22359.4
22115.6
21879.4
21652.4
21440
21249.6
21085.6
20946.3
20827.7
20729.5
20652.3
20592.9
20543.8
20514.8
14779.5
14761.8
14723.4
14659.4
14574.5
14457
14320.1
14166.8
13994.4
13808.5
13601
13396.6
13183.4
12967.1
12751.8
12534
12312.4
12088.6
11867.6
11656.8
11462.4
11289
11140.5
11021.5
10936.6
10892.5
10897.7
10961
11088.7
11282.3
11539.2
11855.4
12226.9
12650.5
13122.2
13636.2
14184.9
14760.2
15354.7
15963
16580.8
17203.7
17825.4
18436.3
19024.6
19578.6
20088.7
20550.3
20963.6
21331.3
21656.6
21940.8
22182.4
22378.4
22526.1
22624.2
22673.1
22673.5
22625.6
22529.5
22386.8
22202.4
21985.3
21747.3
21499.9
21252.3
21009.6
20774
20545.9
20327.4
20124.3
19943.2
19786.4
19650.8
19533.9
19436.8
19359.2
19298.9
19252.5
19225.3
13576.4
13555.6
13513.3
13442.5
13358.1
13248.1
13117.1
12966.8
12798.3
12619
12417.9
12213.8
12004.2
11790.5
11577.4
11364
11147.6
10928.4
10711.3
10503.8
10312
10140.4
9993.53
9876.18
9794.04
9754.04
9764.52
9833.46
9965.85
10162.5
10420.9
10737.7
11109.9
11534.4
12006.6
12519.5
13064.3
13632.4
14216.4
14811.7
15415
16022.4
16627.5
17220
17787.8
18318.6
18804.1
19241.2
19631.6
19979.3
20287.6
20557.1
20785.6
20969.7
21106.6
21195.9
21238.6
21235.8
21187.8
21094.1
20955.7
20777.3
20567.8
20338.6
20100.7
19862.7
19629.8
19403.8
19185.4
18977
18783.8
18610.9
18459.9
18329.7
18218.6
18125.4
18047.3
17986.1
17945.4
17923.9
12375.7
12349.6
12302.8
12229.2
12142.6
12039
11919.4
11778.6
11617.6
11440.5
11248
11045.8
10840.9
10630.8
10418.4
10207.2
9996.46
9785.14
9576.44
9376.03
9189.22
9020.98
8876.95
8763.19
8685.85
8651.7
8668.32
8742.67
8878.98
9077.9
9337.53
9655.17
10028.1
10452.7
10923.7
11433
11971.1
12529
13099.6
13678.6
14263.3
14850
15432.4
16000.2
16541.3
17044.5
17502.5
17913.8
18280.9
18608.4
18898.9
19152.1
19365.1
19534.2
19657.4
19735.2
19769.9
19763
19714.5
19623.3
19490.1
19319
19118.6
18899.7
18672.9
18446.3
18224.5
18009.3
17801.6
17604.1
17420.9
17255.3
17109.2
16984.2
16879.2
16791
16716.2
16659.4
16625.8
16608.6
11183
11156.6
11104.8
11030.7
10944.7
10845.1
10733.9
10600
10448
10269.9
10084.5
9886.88
9687.57
9485.93
9280.43
9074.48
8869.36
8665.15
8464.71
8272.83
8094.27
7934
7797.77
7691.57
7621.32
7593.58
7615.78
7694.66
7834.35
8035.53
8296.43
8614.32
8986.12
9407.76
9873.15
10373.9
10900.3
11443.3
11996.2
12554.8
13116.5
13677.5
14231.4
14768.3
15277.1
15748
16175.6
16559.4
16902.6
17209.2
17481
17716.6
17912.4
18065.3
18174.4
18241.5
18269.4
18259.8
18211.9
18124.1
17996.7
17833.9
17643.7
17436.6
17222.4
17008.7
16799.9
16596.9
16400.4
16212.8
16037.5
15877.9
15737.3
15618.2
15518.5
15435.6
15368.8
15321.5
15293.2
15277.2
9999.43
9972.68
9921.01
9846.88
9763
9665.98
9558.44
9427.63
9287.5
9113.77
8934.5
8744.16
8548.86
8354.96
8161.88
7968.08
7772.31
7575.73
7383.15
7200.67
7033.43
6885.78
6762.03
6666.68
6605.06
6584.13
6612.01
6695.86
6839.62
7043.4
7304.78
7620.51
7987.24
8400.89
8855.5
9342.86
9853.33
10377.8
10909.1
11443.2
11976.9
12506.9
13027
13528.3
14001
14436.9
14832
15186.9
15504.9
15789.4
16041
16257.4
16435
16571.3
16666.7
16724.1
16746.6
16735.4
16688.9
16605
16483.9
16329.8
16151
15957.1
15757.2
15557.8
15362.5
15171.7
14985.5
14805.9
14636.6
14482.7
14348.4
14236.2
14143
14067.7
14012
13974.3
13948.6
13932.3
8851.72
8820.04
8767.3
8690.4
8604.71
8509.72
8404.71
8274.57
8142.02
7977.53
7803.31
7625.14
7440.57
7255.28
7073.02
6891.39
6707.23
6522.3
6342.79
6175.19
6023.93
5891.89
5781.77
5697.24
5644.02
5630.26
5664.97
5755.28
5904.11
6110.21
6369.96
6679.5
7035.59
7434.79
7872.08
8340.06
8829.54
9331.28
9837.76
10343.9
10846.4
11341.5
11823.9
12285.8
12719.2
13117.5
13478
13802
14092.4
14351.8
14580.4
14775.7
14934.6
15055.6
15140
15190.7
15210.2
15198.6
15153.6
15073.3
14958.5
14814
14647.8
14468.6
14284
14099.7
13918.2
13739.5
13563.3
13390.9
13227.5
13080.5
12954.5
12850.2
12765.7
12700
12654.3
12622.4
12598.5
12584.7
7743.82
7705.04
7647.81
7570.01
7481.7
7388.49
7288.74
7163.89
7035.52
6885.53
6717.35
6546.62
6374.34
6202.27
6032.89
5863.72
5692.29
5521.82
5359.23
5210.31
5077.79
4962.68
4866.41
4792.62
4748.11
4742.26
4784.44
4880.84
5032.72
5237.22
5489.93
5787.19
6126.68
6506.21
6921.79
7366.47
7830.97
8305.53
8782.04
9255.04
9721.09
10177
10618.1
11038.1
11430.2
11789.6
12114.3
12405.9
12667.2
12900.3
13105
13279.1
13420.2
13527.7
13603
13648.9
13666.9
13656
13613.5
13538
13431
13298
13146.3
12983.1
12814.6
12645
12476.2
12308.6
12142.6
11980
11826
11689.2
11574.2
11478.5
11403.6
11345.7
11304.8
11275.5
11256.3
11248.9
6683.87
6639.34
6578.8
6508.07
6424.4
6334.8
6239.85
6121.31
5990.08
5851.85
5699.13
5539.13
5378.31
5220.64
5066.6
4912.41
4756.35
4602.71
4458.38
4328.09
4213.22
4113.66
4030.38
3967.41
3932.38
3935.12
3984.42
4085.03
4236.54
4434.99
4675.79
4956.03
5274.58
5630.44
6020.37
6437.67
6872.82
7315.63
7757.65
8193.32
8619.41
9033.24
9431.03
9807.56
10157.3
10476.2
10763.2
11019.9
11249.2
11453.2
11632.2
11784.5
11908.5
12003.6
12071.2
12112.8
12129
12118.2
12078
12007.9
11910.5
11791.1
11655.7
11509.7
11357.9
11203.7
11048.6
10893.4
10739.6
10590.5
10451.2
10328
10225
10137.7
10069.8
10015.7
9976.48
9951.54
9940.59
9938.87
5684.94
5644.77
5589.05
5530.06
5455.45
5369.35
5277.09
5168.55
5039.74
4906.41
4768.42
4625.71
4483.25
4344.81
4208.46
4069.79
3928.74
3790.99
3663.4
3549.81
3450.6
3364.88
3293.32
3240.11
3213.24
3222.34
3275.34
3375.63
3521.63
3708.92
3933.31
4192.77
4487.21
4816.28
5176.92
5562.24
5962.5
6367.55
6769.3
7162.79
7545.38
7914.98
8268.32
8600.78
8907.45
9185.02
9432.91
9653.22
9849.18
10023.3
10176.3
10307.1
10414.2
10497.1
10556.5
10593
10606.4
10594.9
10557.1
10493.5
10407.5
10303.8
10186.6
10059.6
9925.89
9788.23
9648.74
9508.94
9370.92
9238.84
9117.85
9010.1
8918.78
8838.84
8774.41
8721.75
8685.26
8667.89
8665.4
8665.19
4761.23
4735.31
4692.5
4645.74
4584.78
4506.34
4415.68
4315.14
4199.1
4078.32
3955.54
3830.17
3706.67
3587.36
3468.12
3344.32
3217.49
3094.45
2982.05
2883.42
2798.1
2724.51
2662.93
2617.48
2596.03
2607.8
2659.87
2754.71
2890.26
3062.2
3266.87
3502.88
3770.45
4069.17
4395.72
4743.07
5101.8
5462.54
5818.22
6164.86
6500.58
6823.68
7131.22
7418.84
7682.09
7918.17
8127.05
8311.25
8474.39
8619.35
8747.07
8856.74
8946.9
9016.72
9066.28
9095.87
9105.02
9092.64
9058.29
9003.45
8931.33
8845.42
8748.24
8641.64
8527.64
8408.76
8287.5
8166.13
8047.03
7934.05
7831.49
7739.27
7658.5
7586.03
7524.93
7475.29
7443.67
7432.18
7433.23
7431.16
3926.55
3912.98
3881.3
3845.75
3805.24
3744.62
3661.68
3567.67
3465.13
3360.76
3256.57
3152.22
3049.67
2948.14
2842.91
2731.49
2617.66
2508.92
2411.41
2327.13
2254.55
2191.42
2137.79
2097.82
2079.19
2090.55
2138.07
2223.53
2344.65
2497.5
2679.02
2888.23
3125.26
3389.28
3676.55
3980.14
4291.4
4602.31
4907.31
5203.58
5489.82
5764.48
6024.6
6266.05
6484.92
6679.17
6849.45
6998.68
7130.55
7247.8
7351.23
7439.89
7512.18
7567.02
7604.41
7624.8
7628.5
7615.54
7586.54
7543.1
7487.4
7420.97
7344.48
7258.63
7165.14
7066.51
6965.34
6864.01
6765.18
6672.27
6588.23
6512.82
6443.14
6378.36
6322.4
6278.81
6252.86
6244.54
6248.1
6245.89
3173.05
3163.93
3141.68
3120.04
3099.37
3057.24
2988.45
2908
2824.05
2738.32
2651.78
2566.63
2483.57
2398.86
2307.71
2209.9
2110.88
2017.95
1935.97
1865.6
1804.54
1750.29
1703.08
1667.19
1649.96
1659.06
1699.59
1772.62
1875.91
2006.12
2160.8
2339.12
2540.85
2764.59
3006.4
3259.96
3518.01
3774.3
4024.87
4267.87
4502.32
4726.63
4937.85
5132.31
5306.87
5460.33
5593.85
5710.33
5813.07
5904.29
5984.34
6052.03
6105.68
6144.43
6168.71
6179.82
6178.99
6167.2
6145.31
6114.5
6075.53
6028.18
5971.55
5905.55
5831.84
5753.33
5672.91
5592.89
5515.82
5444.22
5378.72
5320.38
5262.85
5206.66
5158.28
5121.65
5098.65
5089.76
5095.96
5101.34
2478.44
2470.93
2461.65
2453.74
2444.71
2417.57
2364.81
2300.2
2234.52
2168.33
2101.73
2036.6
1972.09
1903.8
1828.46
1747.83
1667.67
1593.92
1529.6
1474.13
1424.83
1379.56
1339.04
1307.56
1291.76
1298.03
1330.2
1388.68
1471.36
1575.49
1699.14
1841.55
2002.14
2179.18
2369.02
2566.47
2766.06
2963.52
3156.35
3343.41
3523.86
3696.06
3857.38
4004.81
4136.06
4250.51
4349.39
4435.22
4510.62
4577.16
4634.79
4682.12
4717.75
4741.41
4754.44
4758.96
4756.73
4748.46
4734.44
4714.95
4690.08
4658.87
4619.75
4571.91
4516.82
4457.83
4398.34
4340.35
4285.52
4234.95
4186.86
4143.95
4099.71
4055.12
4017.74
3988.04
3965.87
3956.61
3958.23
3967.27
1824.57
1817.45
1818.05
1819.1
1812.28
1792.02
1756.45
1712.93
1667.37
1621.1
1575.41
1531.07
1485.91
1436.28
1380.81
1322.04
1264.75
1212.99
1168.21
1129.16
1093.4
1059.37
1028.08
1003.32
990.396
994.095
1016.99
1059.03
1118.4
1192.95
1281.21
1382.51
1496.23
1620.84
1753.52
1890.55
2028.28
2164.03
2296.38
2424.75
2548.53
2666.51
2776.7
2876.91
2965.51
3042.08
3107.63
3164.14
3213.56
3256.85
3293.52
3322.22
3342
3353.45
3358.69
3360.11
3358.86
3354.69
3347.02
3335.96
3321.75
3303.58
3279.52
3248.28
3210.98
3171.01
3131.82
3095.21
3061.99
3031.15
2998.45
2967.93
2937.19
2906.84
2883.22
2863.01
2842.74
2839.25
2841.49
2850.65
1188.25
1173.54
1178.62
1184.47
1180.45
1165.83
1144.52
1120.35
1095.39
1070.79
1047.4
1024.56
1000.07
971.969
940.343
907.327
875.78
847.76
823.662
802.393
782.34
762.655
744.131
729.226
721.184
722.787
735.419
758.903
792.073
833.61
882.61
938.601
1001.11
1069.17
1141.16
1215.07
1289
1361.63
1432.28
1500.69
1566.6
1629.36
1687.94
1741.1
1787.84
1827.88
1861.8
1890.77
1915.96
1937.76
1955.67
1968.76
1976.74
1980.5
1981.85
1982.21
1981.87
1980.29
1977.2
1972.85
1967.05
1958.5
1945.82
1929.15
1910.31
1891.05
1871.64
1852.35
1835.72
1821.83
1804.37
1785.56
1768.37
1751.58
1737.41
1727.67
1713.18
1708.75
1708.97
1719.97
509.144
479.643
480.49
484.541
484.638
481.218
476.245
470.797
465.463
460.752
456.768
452.98
448.579
443.103
436.727
430.097
423.941
418.694
414.342
410.485
406.631
402.543
398.457
395.044
393.142
393.397
396.034
400.865
407.499
415.601
425.033
435.803
447.898
461.127
475.096
489.32
503.385
517.065
530.317
543.19
555.692
567.691
578.901
588.97
597.631
604.853
610.869
616.042
620.632
624.625
627.76
629.804
630.808
631.175
631.306
631.304
630.993
630.366
629.812
629.633
629.476
628.437
625.958
622.366
618.562
615.31
612.379
608.976
605.805
603.654
600.079
595.306
591.802
588.175
583.618
583.112
581.164
581.012
581.567
590.697
-9.76255
-9.72636
-9.62676
-9.55591
-9.51845
-9.50086
-9.49222
-9.48773
-9.48905
-9.49369
-9.50088
-9.51069
-9.52246
-9.53225
-9.54195
-9.55223
-9.56207
-9.57071
-9.57865
-9.58676
-9.59589
-9.60679
-9.61898
-9.63104
-9.64159
-9.64955
-9.65476
-9.65793
-9.66005
-9.66186
-9.6636
-9.66514
-9.66642
-9.66771
-9.66964
-9.67296
-9.67822
-9.68556
-9.69482
-9.70566
-9.71786
-9.7314
-9.74642
-9.76301
-9.78099
-9.79973
-9.81827
-9.83677
-9.8549
-9.87264
-9.88997
-9.90679
-9.92295
-9.93845
-9.9531
-9.96653
-9.97896
-9.9803
-9.98105
-9.98109
-9.98099
-9.98066
-9.98004
-9.97913
-9.97777
-9.97618
-9.97439
-9.97234
-9.97018
-9.96772
-9.96423
-9.95982
-9.95457
-9.94866
-9.94185
-9.93357
-9.92823
-9.92853
-9.93822
-9.95651
-10.468
-10.4678
-10.4679
-10.4679
-10.468
-10.4681
-10.4682
-10.4683
-10.4683
-10.4684
-10.4685
-10.4687
-10.4688
-10.469
-10.4692
-10.4694
-10.4696
-10.4698
-10.4701
-10.4703
-10.4706
-10.4708
-10.4711
-10.4714
-10.4716
-10.4719
-10.4723
-10.4726
-10.4729
-10.4732
-10.4736
-10.4739
-10.4742
-10.4746
-10.475
-10.4753
-10.4757
-10.4761
-10.4765
-10.4769
-10.4773
-10.4778
-10.4782
-10.4786
-10.479
-10.4794
-10.4798
-10.4801
-10.4805
-10.4809
-10.4812
-10.4815
-10.4818
-10.4821
-10.4824
-10.4827
-10.4829
-10.4832
-10.4834
-10.4837
-10.4839
-10.4842
-10.4844
-10.4847
-10.4849
-10.4851
-10.4853
-10.4855
-10.4857
-10.4859
-10.486
-10.4861
-10.4861
-10.4862
-10.4862
-10.4862
-10.4862
-10.4861
-10.4862
-10.4863
-10.9585
-10.9584
-10.9584
-10.9585
-10.9585
-10.9586
-10.9587
-10.9588
-10.9588
-10.9589
-10.959
-10.9592
-10.9593
-10.9595
-10.9597
-10.9599
-10.9601
-10.9603
-10.9606
-10.9608
-10.9611
-10.9613
-10.9616
-10.9619
-10.9622
-10.9625
-10.9628
-10.9631
-10.9634
-10.9637
-10.9641
-10.9644
-10.9648
-10.9651
-10.9655
-10.9659
-10.9662
-10.9666
-10.967
-10.9674
-10.9679
-10.9683
-10.9687
-10.9691
-10.9695
-10.9699
-10.9703
-10.9707
-10.971
-10.9714
-10.9717
-10.972
-10.9723
-10.9726
-10.9729
-10.9732
-10.9735
-10.9738
-10.974
-10.9742
-10.9744
-10.9747
-10.9749
-10.9751
-10.9754
-10.9756
-10.9758
-10.976
-10.9762
-10.9764
-10.9765
-10.9766
-10.9766
-10.9767
-10.9767
-10.9767
-10.9766
-10.9766
-10.9767
-10.9768
-11.4492
-11.449
-11.449
-11.4491
-11.4491
-11.4491
-11.4491
-11.4493
-11.4494
-11.4495
-11.4496
-11.4497
-11.4499
-11.45
-11.4502
-11.4504
-11.4506
-11.4509
-11.4511
-11.4513
-11.4516
-11.4518
-11.4521
-11.4524
-11.4527
-11.453
-11.4533
-11.4536
-11.4539
-11.4542
-11.4546
-11.4549
-11.4553
-11.4556
-11.456
-11.4564
-11.4568
-11.4571
-11.4576
-11.458
-11.4584
-11.4588
-11.4592
-11.4596
-11.46
-11.4604
-11.4608
-11.4612
-11.4615
-11.4619
-11.4622
-11.4626
-11.4629
-11.4632
-11.4635
-11.4637
-11.464
-11.4642
-11.4645
-11.4648
-11.465
-11.4652
-11.4655
-11.4657
-11.4659
-11.4662
-11.4664
-11.4666
-11.4667
-11.4669
-11.467
-11.4671
-11.4672
-11.4672
-11.4672
-11.4672
-11.4672
-11.4671
-11.4671
-11.4673
-11.9397
-11.9396
-11.9396
-11.9397
-11.9397
-11.9397
-11.9398
-11.9398
-11.94
-11.9401
-11.9402
-11.9403
-11.9405
-11.9406
-11.9408
-11.941
-11.9412
-11.9415
-11.9417
-11.9419
-11.9422
-11.9424
-11.9427
-11.943
-11.9432
-11.9435
-11.9438
-11.9442
-11.9445
-11.9448
-11.9451
-11.9455
-11.9458
-11.9462
-11.9465
-11.9469
-11.9473
-11.9477
-11.9481
-11.9485
-11.9489
-11.9493
-11.9497
-11.9502
-11.9506
-11.951
-11.9514
-11.9518
-11.9521
-11.9525
-11.9528
-11.9531
-11.9535
-11.9538
-11.9541
-11.9543
-11.9546
-11.9548
-11.9551
-11.9554
-11.9556
-11.9558
-11.9561
-11.9563
-11.9565
-11.9567
-11.9569
-11.9571
-11.9573
-11.9574
-11.9576
-11.9577
-11.9578
-11.9578
-11.9578
-11.9578
-11.9579
-11.9578
-11.9577
-11.9578
-12.4303
-12.4303
-12.4302
-12.4303
-12.4304
-12.4304
-12.4305
-12.4305
-12.4306
-12.4307
-12.4308
-12.431
-12.4311
-12.4313
-12.4315
-12.4317
-12.4319
-12.4321
-12.4323
-12.4326
-12.4328
-12.433
-12.4333
-12.4336
-12.4339
-12.4341
-12.4344
-12.4348
-12.4351
-12.4354
-12.4357
-12.4361
-12.4364
-12.4368
-12.4371
-12.4375
-12.4379
-12.4383
-12.4387
-12.4391
-12.4395
-12.4399
-12.4403
-12.4407
-12.4412
-12.4416
-12.442
-12.4423
-12.4427
-12.4431
-12.4434
-12.4437
-12.4441
-12.4444
-12.4447
-12.445
-12.4452
-12.4455
-12.4457
-12.446
-12.4463
-12.4465
-12.4467
-12.4469
-12.4472
-12.4474
-12.4476
-12.4477
-12.4479
-12.4481
-12.4482
-12.4483
-12.4484
-12.4484
-12.4484
-12.4484
-12.4485
-12.4485
-12.4484
-12.4485
-12.9211
-12.9211
-12.921
-12.921
-12.9211
-12.9211
-12.9212
-12.9213
-12.9213
-12.9214
-12.9216
-12.9217
-12.9218
-12.922
-12.9222
-12.9224
-12.9226
-12.9228
-12.923
-12.9232
-12.9235
-12.9237
-12.924
-12.9242
-12.9245
-12.9248
-12.9251
-12.9254
-12.9257
-12.926
-12.9264
-12.9267
-12.927
-12.9274
-12.9278
-12.9281
-12.9285
-12.9289
-12.9293
-12.9297
-12.9301
-12.9305
-12.9309
-12.9314
-12.9318
-12.9322
-12.9326
-12.933
-12.9333
-12.9337
-12.9341
-12.9344
-12.9347
-12.935
-12.9353
-12.9356
-12.9359
-12.9362
-12.9364
-12.9367
-12.9369
-12.9372
-12.9374
-12.9376
-12.9378
-12.9381
-12.9383
-12.9384
-12.9386
-12.9387
-12.9388
-12.939
-12.9391
-12.9391
-12.9391
-12.9391
-12.9391
-12.9392
-12.9392
-12.9392
-13.4118
-13.4119
-13.4119
-13.4118
-13.4118
-13.4119
-13.412
-13.412
-13.4121
-13.4122
-13.4123
-13.4125
-13.4126
-13.4128
-13.4129
-13.4131
-13.4133
-13.4135
-13.4138
-13.414
-13.4142
-13.4144
-13.4147
-13.4149
-13.4152
-13.4155
-13.4157
-13.4161
-13.4164
-13.4167
-13.417
-13.4174
-13.4177
-13.4181
-13.4184
-13.4188
-13.4192
-13.4196
-13.42
-13.4204
-13.4208
-13.4212
-13.4216
-13.422
-13.4224
-13.4229
-13.4233
-13.4236
-13.424
-13.4244
-13.4247
-13.4251
-13.4254
-13.4257
-13.426
-13.4263
-13.4266
-13.4269
-13.4271
-13.4274
-13.4276
-13.4279
-13.4282
-13.4284
-13.4286
-13.4288
-13.429
-13.4292
-13.4293
-13.4294
-13.4295
-13.4297
-13.4298
-13.4299
-13.4299
-13.4299
-13.4299
-13.4299
-13.43
-13.43
-13.9027
-13.9027
-13.9027
-13.9027
-13.9027
-13.9027
-13.9028
-13.9029
-13.903
-13.9031
-13.9032
-13.9033
-13.9034
-13.9036
-13.9038
-13.9039
-13.9041
-13.9043
-13.9045
-13.9047
-13.905
-13.9052
-13.9054
-13.9056
-13.9059
-13.9062
-13.9065
-13.9068
-13.9071
-13.9074
-13.9077
-13.9081
-13.9084
-13.9088
-13.9092
-13.9096
-13.9099
-13.9103
-13.9107
-13.9111
-13.9115
-13.9119
-13.9123
-13.9127
-13.9132
-13.9136
-13.914
-13.9144
-13.9147
-13.9151
-13.9155
-13.9158
-13.9162
-13.9165
-13.9168
-13.917
-13.9173
-13.9176
-13.9179
-13.9182
-13.9184
-13.9187
-13.9189
-13.9192
-13.9194
-13.9196
-13.9198
-13.9199
-13.9201
-13.9202
-13.9203
-13.9204
-13.9205
-13.9206
-13.9207
-13.9207
-13.9207
-13.9207
-13.9207
-13.9208
-14.3936
-14.3936
-14.3936
-14.3936
-14.3936
-14.3937
-14.3937
-14.3938
-14.3939
-14.394
-14.3941
-14.3942
-14.3943
-14.3945
-14.3946
-14.3948
-14.395
-14.3952
-14.3954
-14.3956
-14.3958
-14.396
-14.3962
-14.3964
-14.3967
-14.3969
-14.3972
-14.3975
-14.3978
-14.3982
-14.3985
-14.3989
-14.3992
-14.3996
-14.4
-14.4003
-14.4007
-14.4011
-14.4015
-14.4019
-14.4023
-14.4027
-14.4031
-14.4035
-14.4039
-14.4043
-14.4047
-14.4051
-14.4055
-14.4059
-14.4062
-14.4066
-14.407
-14.4073
-14.4076
-14.4079
-14.4082
-14.4085
-14.4087
-14.409
-14.4092
-14.4095
-14.4097
-14.41
-14.4102
-14.4104
-14.4106
-14.4107
-14.4109
-14.411
-14.4111
-14.4112
-14.4113
-14.4114
-14.4114
-14.4115
-14.4115
-14.4116
-14.4116
-14.4116
-14.8846
-14.8845
-14.8845
-14.8846
-14.8846
-14.8846
-14.8847
-14.8847
-14.8848
-14.8849
-14.885
-14.8851
-14.8853
-14.8854
-14.8856
-14.8857
-14.8859
-14.8861
-14.8863
-14.8864
-14.8866
-14.8868
-14.887
-14.8873
-14.8875
-14.8878
-14.888
-14.8883
-14.8887
-14.889
-14.8893
-14.8897
-14.8901
-14.8905
-14.8908
-14.8912
-14.8916
-14.892
-14.8923
-14.8927
-14.8931
-14.8935
-14.8939
-14.8943
-14.8948
-14.8952
-14.8956
-14.896
-14.8964
-14.8967
-14.8971
-14.8974
-14.8978
-14.8981
-14.8985
-14.8988
-14.8991
-14.8994
-14.8996
-14.8999
-14.9001
-14.9003
-14.9006
-14.9008
-14.901
-14.9012
-14.9014
-14.9016
-14.9017
-14.9019
-14.902
-14.9021
-14.9022
-14.9022
-14.9023
-14.9024
-14.9024
-14.9025
-14.9025
-14.9025
-15.3756
-15.3756
-15.3756
-15.3756
-15.3756
-15.3756
-15.3757
-15.3758
-15.3758
-15.3759
-15.376
-15.3762
-15.3763
-15.3764
-15.3766
-15.3767
-15.3769
-15.3771
-15.3772
-15.3774
-15.3776
-15.3777
-15.3779
-15.3782
-15.3784
-15.3787
-15.3789
-15.3792
-15.3796
-15.3799
-15.3803
-15.3806
-15.381
-15.3814
-15.3817
-15.3821
-15.3825
-15.3829
-15.3833
-15.3836
-15.384
-15.3844
-15.3848
-15.3852
-15.3856
-15.3861
-15.3865
-15.3868
-15.3872
-15.3876
-15.388
-15.3884
-15.3887
-15.389
-15.3894
-15.3897
-15.39
-15.3903
-15.3905
-15.3908
-15.3911
-15.3913
-15.3915
-15.3917
-15.3919
-15.3921
-15.3923
-15.3925
-15.3926
-15.3928
-15.3929
-15.393
-15.3931
-15.3931
-15.3932
-15.3933
-15.3934
-15.3934
-15.3935
-15.3935
-15.8667
-15.8667
-15.8667
-15.8667
-15.8667
-15.8667
-15.8668
-15.8668
-15.8669
-15.867
-15.8671
-15.8672
-15.8674
-15.8675
-15.8676
-15.8678
-15.8679
-15.8681
-15.8682
-15.8684
-15.8686
-15.8687
-15.8689
-15.8691
-15.8694
-15.8696
-15.8699
-15.8702
-15.8706
-15.8709
-15.8713
-15.8716
-15.872
-15.8724
-15.8727
-15.8731
-15.8735
-15.8738
-15.8742
-15.8746
-15.875
-15.8754
-15.8758
-15.8762
-15.8766
-15.877
-15.8774
-15.8778
-15.8781
-15.8785
-15.8789
-15.8793
-15.8796
-15.88
-15.8803
-15.8806
-15.8809
-15.8812
-15.8815
-15.8818
-15.882
-15.8823
-15.8825
-15.8827
-15.8829
-15.8831
-15.8833
-15.8834
-15.8836
-15.8837
-15.8838
-15.8839
-15.884
-15.8841
-15.8842
-15.8843
-15.8844
-15.8844
-15.8845
-15.8845
-16.3578
-16.3578
-16.3578
-16.3578
-16.3578
-16.3579
-16.3579
-16.358
-16.3581
-16.3582
-16.3583
-16.3584
-16.3585
-16.3586
-16.3587
-16.3589
-16.359
-16.3592
-16.3593
-16.3595
-16.3596
-16.3598
-16.36
-16.3602
-16.3604
-16.3607
-16.361
-16.3613
-16.3616
-16.362
-16.3623
-16.3627
-16.3631
-16.3634
-16.3638
-16.3642
-16.3645
-16.3649
-16.3652
-16.3656
-16.366
-16.3663
-16.3667
-16.3671
-16.3675
-16.3679
-16.3683
-16.3687
-16.3691
-16.3695
-16.3699
-16.3703
-16.3706
-16.3709
-16.3713
-16.3716
-16.3719
-16.3722
-16.3725
-16.3728
-16.3731
-16.3733
-16.3735
-16.3737
-16.3739
-16.3741
-16.3743
-16.3745
-16.3746
-16.3747
-16.3749
-16.3749
-16.3751
-16.3752
-16.3752
-16.3753
-16.3754
-16.3755
-16.3755
-16.3755
-16.849
-16.849
-16.849
-16.849
-16.849
-16.8491
-16.8491
-16.8492
-16.8493
-16.8493
-16.8494
-16.8495
-16.8497
-16.8498
-16.8499
-16.85
-16.8502
-16.8503
-16.8504
-16.8506
-16.8507
-16.8509
-16.8511
-16.8513
-16.8516
-16.8518
-16.8521
-16.8524
-16.8527
-16.8531
-16.8534
-16.8538
-16.8542
-16.8545
-16.8549
-16.8552
-16.8556
-16.8559
-16.8563
-16.8567
-16.857
-16.8574
-16.8578
-16.8582
-16.8586
-16.859
-16.8594
-16.8598
-16.8601
-16.8605
-16.8609
-16.8613
-16.8617
-16.862
-16.8623
-16.8627
-16.863
-16.8633
-16.8635
-16.8638
-16.8641
-16.8644
-16.8646
-16.8648
-16.865
-16.8652
-16.8653
-16.8655
-16.8657
-16.8658
-16.8659
-16.866
-16.8661
-16.8662
-16.8663
-16.8664
-16.8665
-16.8666
-16.8666
-16.8666
-17.3402
-17.3402
-17.3402
-17.3402
-17.3403
-17.3403
-17.3404
-17.3404
-17.3405
-17.3406
-17.3407
-17.3408
-17.3409
-17.341
-17.3411
-17.3412
-17.3414
-17.3415
-17.3416
-17.3418
-17.3419
-17.3421
-17.3423
-17.3425
-17.3428
-17.343
-17.3433
-17.3436
-17.3439
-17.3443
-17.3446
-17.345
-17.3453
-17.3457
-17.346
-17.3464
-17.3467
-17.3471
-17.3474
-17.3478
-17.3481
-17.3485
-17.3489
-17.3493
-17.3497
-17.35
-17.3504
-17.3509
-17.3512
-17.3516
-17.352
-17.3524
-17.3528
-17.3531
-17.3534
-17.3538
-17.3541
-17.3544
-17.3547
-17.3549
-17.3552
-17.3555
-17.3557
-17.3559
-17.3561
-17.3563
-17.3564
-17.3566
-17.3568
-17.3569
-17.357
-17.3571
-17.3572
-17.3573
-17.3574
-17.3575
-17.3576
-17.3577
-17.3577
-17.3577
-17.8315
-17.8315
-17.8315
-17.8315
-17.8316
-17.8316
-17.8317
-17.8317
-17.8318
-17.8319
-17.832
-17.8321
-17.8322
-17.8323
-17.8324
-17.8325
-17.8326
-17.8327
-17.8329
-17.833
-17.8332
-17.8334
-17.8336
-17.8338
-17.834
-17.8343
-17.8345
-17.8348
-17.8352
-17.8355
-17.8358
-17.8362
-17.8365
-17.8369
-17.8372
-17.8375
-17.8379
-17.8382
-17.8386
-17.8389
-17.8393
-17.8396
-17.84
-17.8404
-17.8408
-17.8412
-17.8416
-17.842
-17.8424
-17.8428
-17.8432
-17.8435
-17.8439
-17.8443
-17.8446
-17.8449
-17.8452
-17.8455
-17.8458
-17.8461
-17.8464
-17.8466
-17.8468
-17.8471
-17.8473
-17.8474
-17.8476
-17.8478
-17.8479
-17.848
-17.8482
-17.8483
-17.8484
-17.8485
-17.8486
-17.8487
-17.8488
-17.8488
-17.8489
-17.8489
-18.3228
-18.3228
-18.3228
-18.3229
-18.3229
-18.323
-18.323
-18.3231
-18.3231
-18.3232
-18.3233
-18.3234
-18.3235
-18.3236
-18.3237
-18.3238
-18.3239
-18.324
-18.3242
-18.3243
-18.3245
-18.3247
-18.3249
-18.3251
-18.3253
-18.3256
-18.3258
-18.3261
-18.3264
-18.3267
-18.3271
-18.3274
-18.3277
-18.3281
-18.3284
-18.3288
-18.3291
-18.3294
-18.3298
-18.3301
-18.3305
-18.3308
-18.3312
-18.3315
-18.332
-18.3324
-18.3328
-18.3332
-18.3336
-18.334
-18.3343
-18.3347
-18.3351
-18.3354
-18.3358
-18.3361
-18.3364
-18.3367
-18.337
-18.3373
-18.3375
-18.3378
-18.338
-18.3382
-18.3384
-18.3386
-18.3388
-18.3389
-18.3391
-18.3392
-18.3394
-18.3395
-18.3396
-18.3397
-18.3398
-18.3399
-18.3399
-18.34
-18.34
-18.3401
-18.8142
-18.8142
-18.8143
-18.8143
-18.8143
-18.8143
-18.8144
-18.8145
-18.8145
-18.8146
-18.8147
-18.8147
-18.8148
-18.8149
-18.815
-18.8151
-18.8153
-18.8154
-18.8156
-18.8157
-18.8159
-18.8161
-18.8163
-18.8165
-18.8167
-18.8169
-18.8172
-18.8175
-18.8177
-18.818
-18.8183
-18.8187
-18.819
-18.8193
-18.8197
-18.82
-18.8203
-18.8207
-18.821
-18.8213
-18.8217
-18.822
-18.8224
-18.8228
-18.8232
-18.8236
-18.824
-18.8244
-18.8248
-18.8252
-18.8256
-18.8259
-18.8263
-18.8266
-18.827
-18.8273
-18.8276
-18.8279
-18.8282
-18.8285
-18.8288
-18.829
-18.8292
-18.8295
-18.8297
-18.8299
-18.83
-18.8302
-18.8303
-18.8305
-18.8306
-18.8307
-18.8308
-18.8309
-18.831
-18.8311
-18.8311
-18.8312
-18.8313
-18.8313
-19.3057
-19.3057
-19.3057
-19.3057
-19.3058
-19.3058
-19.3058
-19.3059
-19.306
-19.306
-19.3061
-19.3061
-19.3062
-19.3063
-19.3064
-19.3065
-19.3067
-19.3068
-19.307
-19.3071
-19.3073
-19.3075
-19.3077
-19.3079
-19.3081
-19.3083
-19.3086
-19.3088
-19.3091
-19.3094
-19.3097
-19.31
-19.3103
-19.3106
-19.311
-19.3113
-19.3116
-19.3119
-19.3122
-19.3125
-19.3129
-19.3132
-19.3136
-19.314
-19.3144
-19.3148
-19.3152
-19.3156
-19.316
-19.3164
-19.3168
-19.3172
-19.3176
-19.3179
-19.3182
-19.3186
-19.3189
-19.3192
-19.3195
-19.3198
-19.32
-19.3203
-19.3205
-19.3207
-19.3209
-19.3211
-19.3213
-19.3214
-19.3216
-19.3217
-19.3218
-19.322
-19.3221
-19.3222
-19.3223
-19.3223
-19.3224
-19.3225
-19.3225
-19.3225
-19.7972
-19.7972
-19.7972
-19.7972
-19.7973
-19.7973
-19.7973
-19.7974
-19.7974
-19.7975
-19.7975
-19.7976
-19.7976
-19.7977
-19.7978
-19.798
-19.7981
-19.7983
-19.7984
-19.7986
-19.7988
-19.799
-19.7992
-19.7994
-19.7996
-19.7998
-19.8
-19.8002
-19.8005
-19.8008
-19.801
-19.8013
-19.8016
-19.8019
-19.8023
-19.8026
-19.8028
-19.8031
-19.8035
-19.8038
-19.8041
-19.8044
-19.8048
-19.8052
-19.8056
-19.806
-19.8064
-19.8069
-19.8073
-19.8077
-19.8081
-19.8085
-19.8088
-19.8092
-19.8096
-19.8099
-19.8102
-19.8105
-19.8108
-19.8111
-19.8113
-19.8116
-19.8118
-19.812
-19.8122
-19.8124
-19.8126
-19.8127
-19.8129
-19.813
-19.8131
-19.8133
-19.8134
-19.8134
-19.8135
-19.8136
-19.8137
-19.8138
-19.8138
-19.8138
-20.2888
-20.2888
-20.2888
-20.2888
-20.2888
-20.2888
-20.2889
-20.2889
-20.2889
-20.289
-20.289
-20.2891
-20.2891
-20.2892
-20.2893
-20.2895
-20.2896
-20.2898
-20.2899
-20.2901
-20.2903
-20.2905
-20.2907
-20.2909
-20.2911
-20.2913
-20.2915
-20.2917
-20.2919
-20.2922
-20.2924
-20.2927
-20.293
-20.2933
-20.2935
-20.2938
-20.2941
-20.2944
-20.2947
-20.2951
-20.2954
-20.2957
-20.2961
-20.2965
-20.2969
-20.2973
-20.2977
-20.2982
-20.2986
-20.2991
-20.2995
-20.2998
-20.3002
-20.3006
-20.3009
-20.3012
-20.3015
-20.3019
-20.3022
-20.3024
-20.3027
-20.3029
-20.3031
-20.3034
-20.3036
-20.3037
-20.3039
-20.3041
-20.3042
-20.3044
-20.3045
-20.3046
-20.3047
-20.3048
-20.3049
-20.305
-20.305
-20.3051
-20.3051
-20.3052
-20.7804
-20.7804
-20.7804
-20.7804
-20.7804
-20.7804
-20.7804
-20.7805
-20.7805
-20.7805
-20.7805
-20.7806
-20.7807
-20.7808
-20.7809
-20.781
-20.7812
-20.7813
-20.7815
-20.7817
-20.7819
-20.782
-20.7822
-20.7824
-20.7826
-20.7828
-20.783
-20.7832
-20.7834
-20.7836
-20.7839
-20.7841
-20.7844
-20.7846
-20.7849
-20.7851
-20.7854
-20.7857
-20.786
-20.7863
-20.7867
-20.787
-20.7874
-20.7878
-20.7882
-20.7887
-20.7891
-20.7896
-20.79
-20.7904
-20.7909
-20.7912
-20.7916
-20.792
-20.7923
-20.7926
-20.7929
-20.7932
-20.7935
-20.7938
-20.794
-20.7943
-20.7945
-20.7947
-20.7949
-20.7951
-20.7953
-20.7954
-20.7956
-20.7957
-20.7959
-20.796
-20.7961
-20.7962
-20.7963
-20.7963
-20.7964
-20.7965
-20.7965
-20.7965
-21.2721
-21.2721
-21.2721
-21.2721
-21.2721
-21.2721
-21.2721
-21.2721
-21.2721
-21.2721
-21.2721
-21.2722
-21.2722
-21.2723
-21.2725
-21.2726
-21.2728
-21.2729
-21.2731
-21.2733
-21.2735
-21.2736