/*--------------------------------*- C++ -*----------------------------------*\
| =========                 |                                                 |
| \\      /  F ield         | OpenFOAM: The Open Source CFD Toolbox           |
|  \\    /   O peration     | Version:  2412                                  |
|   \\  /    A nd           | Website:  www.openfoam.com                      |
|    \\/     M anipulation  |                                                 |
\*---------------------------------------------------------------------------*/
FoamFile
{
    version     2.0;
    format      ascii;
    arch        "LSB;label=32;scalar=64";
    class       surfaceScalarField;
    location    "3.4";
    object      phi;
}
// * * * * * * * * * * * * * * * * * * * * * * * * * * * * * * * * * * * * * //

dimensions      [0 3 -1 0 0 0 0];

oriented        oriented;

internalField   nonuniform List<scalar> 
12640
(
1.98748e-07
-1.98814e-07
6.29226e-07
-4.29039e-07
1.11173e-06
-4.81562e-07
1.53396e-06
-4.21102e-07
1.85001e-06
-3.15225e-07
2.05581e-06
-2.04812e-07
2.16779e-06
-1.11475e-07
2.21207e-06
-4.36002e-08
2.21486e-06
-1.92922e-09
2.19841e-06
1.69204e-08
2.1797e-06
1.8956e-08
2.1703e-06
9.81817e-09
2.17613e-06
-5.36965e-09
2.19859e-06
-2.22385e-08
2.23617e-06
-3.76505e-08
2.28571e-06
-4.96394e-08
2.34287e-06
-5.70658e-08
2.40267e-06
-5.93187e-08
2.45997e-06
-5.63672e-08
2.51e-06
-4.86871e-08
2.54847e-06
-3.69898e-08
2.57175e-06
-2.19981e-08
2.57695e-06
-4.37097e-09
2.56202e-06
1.52732e-08
2.52577e-06
3.62806e-08
2.46775e-06
5.79376e-08
2.38822e-06
7.94758e-08
2.28816e-06
1.0008e-07
2.16908e-06
1.19129e-07
2.03303e-06
1.361e-07
1.88238e-06
1.50648e-07
1.71974e-06
1.62596e-07
1.5477e-06
1.71922e-07
1.36873e-06
1.78799e-07
1.18499e-06
1.83515e-07
9.98184e-07
1.86523e-07
8.09585e-07
1.88286e-07
6.19987e-07
1.89262e-07
4.29726e-07
1.8991e-07
2.38711e-07
1.90649e-07
4.66852e-08
1.91647e-07
-1.46618e-07
1.92917e-07
-3.41434e-07
1.94434e-07
-5.37608e-07
1.95826e-07
-7.34643e-07
1.96746e-07
-9.31709e-07
1.9685e-07
-1.12739e-06
1.95536e-07
-1.31978e-06
1.92302e-07
-1.50652e-06
1.8668e-07
-1.68491e-06
1.78338e-07
-1.85225e-06
1.67268e-07
-2.00584e-06
1.53496e-07
-2.14313e-06
1.37188e-07
-2.26203e-06
1.18796e-07
-2.36095e-06
9.88232e-08
-2.43888e-06
7.78385e-08
-2.49558e-06
5.65998e-08
-2.53152e-06
3.58157e-08
-2.54799e-06
1.63204e-08
-2.54701e-06
-1.15711e-09
-2.53142e-06
-1.58144e-08
-2.50477e-06
-2.69193e-08
-2.47125e-06
-3.38331e-08
-2.43548e-06
-3.61357e-08
-2.40215e-06
-3.37325e-08
-2.37561e-06
-2.69728e-08
-2.35919e-06
-1.68669e-08
-2.35418e-06
-5.39641e-09
-2.35892e-06
4.45788e-09
-2.36762e-06
8.59096e-09
-2.3694e-06
1.87715e-09
-2.34773e-06
-2.134e-08
-2.28072e-06
-6.64589e-08
-2.14319e-06
-1.36793e-07
-1.91116e-06
-2.31179e-07
-1.56985e-06
-3.40447e-07
-1.12667e-06
-4.42433e-07
-6.30344e-07
-4.95852e-07
-1.95948e-07
-4.34309e-07
-1.96279e-07
4.35391e-07
-6.32809e-07
1.24527e-06
-1.23704e-06
2.09019e-06
-1.32515e-06
2.77643e-06
-1.10591e-06
3.22065e-06
-7.58648e-07
3.41864e-06
-4.01667e-07
3.41e-06
-1.01846e-07
3.25493e-06
1.12302e-07
3.01671e-06
2.37104e-07
2.7506e-06
2.83587e-07
2.50009e-06
2.69796e-07
2.29553e-06
2.14697e-07
2.15433e-06
1.36183e-07
2.08287e-06
4.95306e-08
2.07942e-06
-3.39308e-08
2.13678e-06
-1.06559e-07
2.24424e-06
-1.63706e-07
2.38895e-06
-2.02788e-07
2.55718e-06
-2.23134e-07
2.73537e-06
-2.25509e-07
2.91087e-06
-2.11495e-07
3.07242e-06
-1.83029e-07
3.21044e-06
-1.42264e-07
3.31719e-06
-9.15672e-08
3.38685e-06
-3.3503e-08
3.41554e-06
2.9209e-08
3.40119e-06
9.38866e-08
3.34382e-06
1.57567e-07
3.24497e-06
2.18116e-07
3.10771e-06
2.73449e-07
2.93634e-06
3.22066e-07
2.73585e-06
3.63066e-07
2.51157e-06
3.96111e-07
2.26874e-06
4.21469e-07
2.01211e-06
4.39903e-07
1.74572e-06
4.52615e-07
1.47265e-06
4.61003e-07
1.19503e-06
4.66501e-07
9.14029e-07
4.70505e-07
6.30035e-07
4.74225e-07
3.42944e-07
4.78325e-07
5.25893e-08
4.82889e-07
-2.40956e-07
4.8765e-07
-5.37011e-07
4.91623e-07
-8.34101e-07
4.93668e-07
-1.12989e-06
4.92562e-07
-1.42108e-06
4.86711e-07
-1.70337e-06
4.7463e-07
-1.97167e-06
4.5504e-07
-2.22038e-06
4.27128e-07
-2.44391e-06
3.90893e-07
-2.6371e-06
3.46807e-07
-2.79558e-06
2.95816e-07
-2.91616e-06
2.39542e-07
-2.99718e-06
1.80013e-07
-3.03868e-06
1.19511e-07
-3.04262e-06
6.06801e-08
-3.01274e-06
6.02759e-09
-2.95485e-06
-4.15397e-08
-2.87655e-06
-7.94936e-08
-2.78719e-06
-1.05297e-07
-2.69765e-06
-1.16678e-07
-2.61998e-06
-1.11822e-07
-2.56673e-06
-8.97752e-08
-2.55012e-06
-5.079e-08
-2.58066e-06
3.12843e-09
-2.66552e-06
6.76473e-08
-2.80633e-06
1.35244e-07
-2.99674e-06
1.94944e-07
-3.21997e-06
2.32206e-07
-3.4469e-06
2.29521e-07
-3.63532e-06
1.68109e-07
-3.73145e-06
3.09533e-08
-3.67486e-06
-1.91985e-07
-3.40952e-06
-4.9516e-07
-2.90016e-06
-8.48664e-07
-2.15768e-06
-1.18414e-06
-1.27098e-06
-1.38231e-06
-4.39165e-07
-1.26651e-06
-6.35751e-07
5.04893e-07
-1.13655e-06
1.37565e-06
-2.10706e-06
2.2092e-06
-2.15832e-06
2.78949e-06
-1.68602e-06
3.03178e-06
-1.0008e-06
2.9431e-06
-3.12694e-07
2.58428e-06
2.56887e-07
2.04193e-06
6.54627e-07
1.4062e-06
8.73058e-07
7.56862e-07
9.3298e-07
1.57469e-07
8.69111e-07
-3.46725e-07
7.18967e-07
-7.28628e-07
5.18391e-07
-9.77006e-07
2.98265e-07
-1.0929e-06
8.21532e-08
-1.08597e-06
-1.13618e-07
-9.71838e-07
-2.78396e-07
-7.69649e-07
-4.05907e-07
-5.00223e-07
-4.93655e-07
-1.84606e-07
-5.42118e-07
1.56989e-07
-5.53797e-07
5.05883e-07
-5.32322e-07
8.4549e-07
-4.82035e-07
1.16169e-06
-4.0779e-07
1.44308e-06
-3.14807e-07
1.68108e-06
-2.08614e-07
1.87008e-06
-9.48263e-08
2.00712e-06
2.09293e-08
2.09217e-06
1.33549e-07
2.12756e-06
2.38606e-07
2.11756e-06
3.32649e-07
2.06785e-06
4.13375e-07
1.98484e-06
4.79701e-07
1.87514e-06
5.31718e-07
1.74491e-06
5.70611e-07
1.59956e-06
5.98382e-07
1.44338e-06
6.17554e-07
1.27938e-06
6.3084e-07
1.1094e-06
6.40809e-07
9.34282e-07
6.49669e-07
7.54245e-07
6.58694e-07
5.69318e-07
6.68144e-07
3.79876e-07
6.77406e-07
1.87079e-07
6.84722e-07
-6.93128e-09
6.87987e-07
-1.98807e-07
6.8478e-07
-3.8403e-07
6.72339e-07
-5.56971e-07
6.48065e-07
-7.11128e-07
6.09794e-07
-8.39616e-07
5.56315e-07
-9.35767e-07
4.87832e-07
-9.93838e-07
4.05734e-07
-1.00959e-06
3.12481e-07
-9.80749e-07
2.11643e-07
-9.0738e-07
1.07614e-07
-7.92288e-07
5.39691e-09
-6.41009e-07
-8.96367e-08
-4.62011e-07
-1.72048e-07
-2.66356e-07
-2.36339e-07
-6.77306e-08
-2.77349e-07
1.17889e-07
-2.90252e-07
2.72657e-07
-2.70895e-07
3.77518e-07
-2.16244e-07
4.13177e-07
-1.25096e-07
3.61484e-07
1.16512e-09
2.07332e-07
1.57502e-07
-5.88784e-08
3.34082e-07
-4.38194e-07
5.14833e-07
-9.19754e-07
6.76873e-07
-1.47758e-06
7.90541e-07
-2.06823e-06
8.20832e-07
-2.63001e-06
7.30717e-07
-3.08553e-06
4.87441e-07
-3.3485e-06
7.19834e-08
-3.3379e-06
-5.04891e-07
-2.99891e-06
-1.18706e-06
-2.33242e-06
-1.85044e-06
-1.43109e-06
-2.28388e-06
-5.18173e-07
-2.1799e-06
-1.15371e-06
4.67789e-07
-1.60418e-06
1.20947e-06
-2.8496e-06
1.81338e-06
-2.7629e-06
2.06919e-06
-1.94255e-06
1.90912e-06
-8.41503e-07
1.36196e-06
2.34086e-07
5.12085e-07
1.10614e-06
-5.30251e-07
1.69658e-06
-1.65298e-06
1.99583e-06
-2.75744e-06
2.03745e-06
-3.76508e-06
1.87663e-06
-4.61969e-06
1.5736e-06
-5.28702e-06
1.186e-06
-5.75221e-06
7.63824e-07
-6.01582e-06
3.45927e-07
-6.08972e-06
-4.00061e-08
-5.99354e-06
-3.75422e-07
-5.75164e-06
-6.49057e-07
-5.39082e-06
-8.55811e-07
-4.93857e-06
-9.95447e-07
-4.4218e-06
-1.07116e-06
-3.86601e-06
-1.08826e-06
-3.29442e-06
-1.05347e-06
-2.72744e-06
-9.74449e-07
-2.18225e-06
-8.5961e-07
-1.67248e-06
-7.17931e-07
-1.20804e-06
-5.58722e-07
-7.95191e-07
-3.9128e-07
-4.36539e-07
-2.24368e-07
-1.31432e-07
-6.56968e-08
1.23538e-07
7.85268e-08
3.33805e-07
2.03976e-07
5.06053e-07
3.08316e-07
6.47432e-07
3.91167e-07
7.6486e-07
4.53951e-07
8.64426e-07
4.99514e-07
9.50941e-07
5.31674e-07
1.02784e-06
5.54539e-07
1.0972e-06
5.72029e-07
1.15998e-06
5.87464e-07
1.21641e-06
6.02815e-07
1.26648e-06
6.18599e-07
1.31048e-06
6.33873e-07
1.34959e-06
6.4601e-07
1.38622e-06
6.51726e-07
1.42421e-06
6.47169e-07
1.4687e-06
6.28266e-07
1.52598e-06
5.91295e-07
1.60312e-06
5.33278e-07
1.70737e-06
4.52802e-07
1.84545e-06
3.50587e-07
2.02272e-06
2.29376e-07
2.24239e-06
9.37966e-08
2.50488e-06
-4.98135e-08
2.80744e-06
-1.93886e-07
3.14386e-06
-3.29933e-07
3.50429e-06
-4.48988e-07
3.87536e-06
-5.42076e-07
4.24042e-06
-6.00418e-07
4.57983e-06
-6.15858e-07
4.8714e-06
-5.80998e-07
5.09099e-06
-4.8977e-07
5.21346e-06
-3.38086e-07
5.21375e-06
-1.24865e-07
5.06876e-06
1.46612e-07
4.75958e-06
4.67084e-07
4.27457e-06
8.19453e-07
3.61292e-06
1.17681e-06
2.78865e-06
1.50145e-06
1.83434e-06
1.74514e-06
8.04037e-07
1.85142e-06
-2.25944e-07
1.76099e-06
-1.15966e-06
1.42147e-06
-1.89058e-06
8.03186e-07
-2.31386e-06
-8.1409e-08
-2.35199e-06
-1.14891e-06
-1.98542e-06
-2.21719e-06
-1.29148e-06
-2.97806e-06
-4.89767e-07
-2.98142e-06
-1.64251e-06
3.82074e-07
-1.98667e-06
8.94155e-07
-3.36282e-06
1.14667e-06
-3.01667e-06
9.54234e-07
-1.75111e-06
2.7756e-07
-1.65762e-07
-8.25372e-07
1.33669e-06
-2.24355e-06
2.5238e-06
-3.84348e-06
3.29627e-06
-5.49388e-06
3.64647e-06
-7.081e-06
3.62484e-06
-8.51518e-06
3.31096e-06
-9.73286e-06
2.79138e-06
-1.06955e-05
2.14884e-06
-1.13863e-05
1.45518e-06
-1.18064e-05
7.6675e-07
-1.19699e-05
1.24279e-07
-1.19003e-05
-4.44569e-07
-1.16265e-05
-9.22689e-07
-1.11807e-05
-1.30173e-06
-1.05959e-05
-1.58028e-06
-9.90504e-06
-1.76187e-06
-9.13955e-06
-1.85331e-06
-8.32869e-06
-1.8637e-06
-7.49875e-06
-1.8037e-06
-6.67238e-06
-1.68531e-06
-5.86814e-06
-1.52153e-06
-5.10021e-06
-1.32602e-06
-4.37828e-06
-1.11256e-06
-3.70769e-06
-8.94314e-07
-3.08964e-06
-6.83094e-07
-2.52184e-06
-4.88641e-07
-1.9993e-06
-3.17947e-07
-1.51534e-06
-1.75048e-07
-1.06259e-06
-6.10301e-08
-6.33773e-07
2.56329e-08
-2.22574e-07
8.87337e-08
1.75886e-07
1.33548e-07
5.64911e-07
1.65783e-07
9.46314e-07
1.9086e-07
1.32067e-06
2.13328e-07
1.6877e-06
2.35997e-07
2.04685e-06
2.5965e-07
2.39784e-06
2.83045e-07
2.74136e-06
3.02604e-07
3.07949e-06
3.13641e-07
3.41604e-06
3.10642e-07
3.7563e-06
2.88027e-07
4.1068e-06
2.40874e-07
4.47482e-06
1.65422e-07
4.86765e-06
6.02272e-08
5.29174e-06
-7.31624e-08
5.75174e-06
-2.30201e-07
6.24955e-06
-4.0352e-07
6.78356e-06
-5.83291e-07
7.34817e-06
-7.57931e-07
7.93351e-06
-9.14681e-07
8.52542e-06
-1.0403e-06
9.10562e-06
-1.12169e-06
9.65215e-06
-1.1464e-06
1.01398e-05
-1.10304e-06
1.05409e-05
-9.81597e-07
1.08257e-05
-7.74148e-07
1.09637e-05
-4.75726e-07
1.09249e-05
-8.57875e-08
1.06819e-05
3.89919e-07
1.02121e-05
9.37101e-07
9.50158e-06
1.53026e-06
8.54857e-06
2.13002e-06
7.36839e-06
2.68173e-06
5.99757e-06
3.11592e-06
4.49718e-06
3.35159e-06
2.9542e-06
3.3036e-06
1.47905e-06
2.8961e-06
1.98274e-07
2.08331e-06
-7.61449e-07
8.77662e-07
-1.29617e-06
-6.14666e-07
-1.35816e-06
-2.15539e-06
-9.97387e-07
-3.33841e-06
-4.10877e-07
-3.5666e-06
-2.05221e-06
2.79506e-07
-2.26726e-06
5.16624e-07
-3.6013e-06
3.55983e-07
-2.85705e-06
-3.51404e-07
-1.04436e-06
-1.60691e-06
1.08918e-06
-3.31692e-06
3.04689e-06
-5.34034e-06
4.54717e-06
-7.51984e-06
5.47594e-06
-9.70653e-06
5.83363e-06
-1.17743e-05
5.69311e-06
-1.36256e-05
5.16269e-06
-1.51927e-05
4.35878e-06
-1.64357e-05
3.39197e-06
-1.73384e-05
2.35804e-06
-1.79033e-05
1.33242e-06
-1.81478e-05
3.69987e-07
-1.80991e-05
-4.91821e-07
-1.77909e-05
-1.22965e-06
-1.72601e-05
-1.83161e-06
-1.65449e-05
-2.29477e-06
-1.56833e-05
-2.62275e-06
-1.47121e-05
-2.82369e-06
-1.36659e-05
-2.90896e-06
-1.25763e-05
-2.89233e-06
-1.1471e-05
-2.7897e-06
-1.03732e-05
-2.61857e-06
-9.3008e-06
-2.39762e-06
-8.26684e-06
-2.14584e-06
-7.27897e-06
-1.88154e-06
-6.34002e-06
-1.62147e-06
-5.4485e-06
-1.37964e-06
-4.5997e-06
-1.16628e-06
-3.78678e-06
-9.87523e-07
-3.00206e-06
-8.45345e-07
-2.23804e-06
-7.38005e-07
-1.4884e-06
-6.60602e-07
-7.48473e-07
-6.06157e-07
-1.55296e-08
-5.6702e-07
7.11417e-07
-5.35991e-07
1.43189e-06
-5.0706e-07
2.1445e-06
-4.76494e-07
2.8475e-06
-4.4319e-07
3.53948e-06
-4.08753e-07
4.22008e-06
-3.77811e-07
4.89057e-06
-3.56687e-07
5.55413e-06
-3.52789e-07
6.21589e-06
-3.73617e-07
6.88243e-06
-4.25526e-07
7.5612e-06
-5.13163e-07
8.25969e-06
-6.3801e-07
8.98432e-06
-7.97477e-07
9.73925e-06
-9.84754e-07
1.05253e-05
-1.18912e-06
1.13389e-05
-1.39654e-06
1.2172e-05
-1.59062e-06
1.30113e-05
-1.75354e-06
1.38384e-05
-1.86709e-06
1.46306e-05
-1.91355e-06
1.53609e-05
-1.87649e-06
1.59992e-05
-1.74116e-06
1.65128e-05
-1.49499e-06
1.6867e-05
-1.12835e-06
1.70269e-05
-6.35594e-07
1.69579e-05
-1.68502e-08
1.66284e-05
7.19373e-07
1.6012e-05
1.5534e-06
1.50914e-05
2.45072e-06
1.38626e-05
3.35858e-06
1.234e-05
4.20399e-06
1.05612e-05
4.8942e-06
8.5912e-06
5.32093e-06
6.52437e-06
5.36956e-06
4.4833e-06
4.9362e-06
2.61181e-06
3.95381e-06
1.06048e-06
2.42814e-06
-3.69049e-08
4.82304e-07
-5.97936e-07
-1.59408e-06
-6.35762e-07
-3.29925e-06
-3.1288e-07
-3.88768e-06
-2.36479e-06
1.73817e-07
-2.44174e-06
1.16388e-07
-3.54449e-06
-4.90724e-07
-2.24993e-06
-1.75206e-06
2.17227e-07
-3.62275e-06
2.95995e-06
-5.96716e-06
5.39204e-06
-8.61047e-06
7.19067e-06
-1.13703e-05
8.23614e-06
-1.40816e-05
8.54517e-06
-1.66083e-05
8.21998e-06
-1.88482e-05
7.40262e-06
-2.07322e-05
6.24286e-06
-2.22222e-05
4.88148e-06
-2.33048e-05
3.43976e-06
-2.39863e-05
2.01329e-06
-2.42881e-05
6.71706e-07
-2.4242e-05
-5.3753e-07
-2.38862e-05
-1.58488e-06
-2.32623e-05
-2.45497e-06
-2.24133e-05
-3.14347e-06
-2.13817e-05
-3.65399e-06
-2.02091e-05
-3.99586e-06
-1.89349e-05
-4.18258e-06
-1.75955e-05
-4.23112e-06
-1.62231e-05
-4.16147e-06
-1.48449e-05
-3.99617e-06
-1.34825e-05
-3.75953e-06
-1.21512e-05
-3.47658e-06
-1.08607e-05
-3.17163e-06
-9.61464e-06
-2.86715e-06
-8.41182e-06
-2.58213e-06
-7.24716e-06
-2.33063e-06
-6.11323e-06
-2.12117e-06
-5.00165e-06
-1.95663e-06
-3.9045e-06
-1.83485e-06
-2.8154e-06
-1.74942e-06
-1.73017e-06
-1.69115e-06
-6.47064e-07
-1.64996e-06
4.33451e-07
-1.61638e-06
1.50916e-06
-1.58265e-06
2.5768e-06
-1.54397e-06
3.63272e-06
-1.49886e-06
4.6738e-06
-1.44947e-06
5.69804e-06
-1.40161e-06
6.70532e-06
-1.36347e-06
7.69783e-06
-1.34479e-06
8.68019e-06
-1.35546e-06
9.65912e-06
-1.40391e-06
1.06426e-05
-1.49601e-06
1.16386e-05
-1.63342e-06
1.26543e-05
-1.81241e-06
1.36938e-05
-2.02357e-06
1.47577e-05
-2.25217e-06
1.58411e-05
-2.47917e-06
1.69337e-05
-2.6825e-06
1.80194e-05
-2.83846e-06
1.90761e-05
-2.9231e-06
2.00767e-05
-2.91359e-06
2.09901e-05
-2.7892e-06
2.17813e-05
-2.53185e-06
2.24134e-05
-2.1265e-06
2.28475e-05
-1.56197e-06
2.30444e-05
-8.32037e-07
2.29655e-05
6.25149e-08
2.25747e-05
1.11061e-06
2.18412e-05
2.28723e-06
2.07434e-05
3.5489e-06
1.92729e-05
4.82923e-06
1.74409e-05
6.03607e-06
1.52829e-05
7.05192e-06
1.28647e-05
7.73867e-06
1.0285e-05
7.94857e-06
7.67586e-06
7.54448e-06
5.19755e-06
6.43132e-06
3.02543e-06
4.59978e-06
1.3268e-06
2.18106e-06
2.25316e-07
-4.91745e-07
-2.46919e-07
-2.82546e-06
-2.1006e-07
-3.9239e-06
-2.57586e-06
6.63414e-08
-2.50832e-06
-3.01094e-07
-3.17677e-06
-1.38395e-06
-1.16648e-06
-3.23327e-06
2.06716e-06
-5.74882e-06
5.47562e-06
-8.7461e-06
8.38995e-06
-1.20127e-05
1.04572e-05
-1.53407e-05
1.15642e-05
-1.85501e-05
1.17546e-05
-2.14987e-05
1.11682e-05
-2.40827e-05
9.98636e-06
-2.62354e-05
8.39568e-06
-2.79231e-05
6.56905e-06
-2.91385e-05
4.65417e-06
-2.98936e-05
2.76717e-06
-3.02156e-05
9.92622e-07
-3.01414e-05
-6.12177e-07
-2.97145e-05
-2.01195e-06
-2.8981e-05
-3.18842e-06
-2.79883e-05
-4.13621e-06
-2.6783e-05
-4.85914e-06
-2.5411e-05
-5.36762e-06
-2.3916e-05
-5.67724e-06
-2.23386e-05
-5.80806e-06
-2.07151e-05
-5.78443e-06
-1.90764e-05
-5.63441e-06
-1.74467e-05
-5.38878e-06
-1.58434e-05
-5.07949e-06
-1.42768e-05
-4.73782e-06
-1.27508e-05
-4.39281e-06
-1.12634e-05
-4.06917e-06
-9.80835e-06
-3.78536e-06
-8.37674e-06
-3.55245e-06
-6.95886e-06
-3.37416e-06
-5.54592e-06
-3.2474e-06
-4.13138e-06
-3.16352e-06
-2.71177e-06
-3.11033e-06
-1.28685e-06
-3.07449e-06
1.40815e-07
-3.04371e-06
1.56648e-06
-3.00801e-06
2.98413e-06
-2.96132e-06
4.38747e-06
-2.90184e-06
5.77079e-06
-2.83233e-06
7.12986e-06
-2.76011e-06
8.4626e-06
-2.69557e-06
9.76984e-06
-2.65135e-06
1.10555e-05
-2.64043e-06
1.23265e-05
-2.67425e-06
1.3592e-05
-2.76071e-06
1.48613e-05
-2.902e-06
1.6143e-05
-3.09331e-06
1.74425e-05
-3.32231e-06
1.87608e-05
-3.56968e-06
2.00929e-05
-3.81043e-06
2.1427e-05
-4.01583e-06
2.27446e-05
-4.15527e-06
2.40205e-05
-4.19825e-06
2.52238e-05
-4.11619e-06
2.63191e-05
-3.88383e-06
2.72677e-05
-3.47972e-06
2.80286e-05
-2.88662e-06
2.85594e-05
-2.09193e-06
2.8817e-05
-1.08883e-06
2.87588e-05
1.21491e-07
2.83442e-05
1.52597e-06
2.75372e-05
3.09501e-06
2.63098e-05
4.77686e-06
2.46477e-05
6.49181e-06
2.25556e-05
8.12844e-06
2.00642e-05
9.54347e-06
1.72359e-05
1.05668e-05
1.41703e-05
1.10139e-05
1.10059e-05
1.07085e-05
7.91755e-06
9.51944e-06
5.10602e-06
7.41149e-06
2.77585e-06
4.51193e-06
1.09895e-06
1.18611e-06
1.61681e-07
-1.88752e-06
-1.05486e-07
-3.65814e-06
-2.68253e-06
-4.78761e-08
-2.4603e-06
-7.53889e-07
-2.47009e-06
-2.35554e-06
4.3564e-07
-4.83788e-06
4.54984e-06
-8.03335e-06
8.6708e-06
-1.17008e-05
1.20576e-05
-1.5587e-05
1.4343e-05
-1.9459e-05
1.54361e-05
-2.31255e-05
1.54211e-05
-2.64422e-05
1.44847e-05
-2.9309e-05
1.28532e-05
-3.16654e-05
1.07532e-05
-3.3486e-05
8.39105e-06
-3.4772e-05
5.94101e-06
-3.5544e-05
3.5394e-06
-3.58365e-05
1.28518e-06
-3.56931e-05
-7.5528e-07
-3.51628e-05
-2.54188e-06
-3.42965e-05
-4.05444e-06
-3.31451e-05
-5.28724e-06
-3.17592e-05
-6.24462e-06
-3.01882e-05
-6.93818e-06
-2.84796e-05
-7.38537e-06
-2.66778e-05
-7.60931e-06
-2.48228e-05
-7.63894e-06
-2.29484e-05
-7.5085e-06
-2.10807e-05
-7.25616e-06
-1.92381e-05
-6.9219e-06
-1.74307e-05
-6.54507e-06
-1.56611e-05
-6.16227e-06
-1.39255e-05
-5.80473e-06
-1.2215e-05
-5.49578e-06
-1.05182e-05
-5.24922e-06
-8.82307e-06
-5.06919e-06
-7.11951e-06
-4.95085e-06
-5.40075e-06
-4.88211e-06
-3.6643e-06
-4.84657e-06
-1.91202e-06
-4.8266e-06
-1.49452e-07
-4.80616e-06
1.61521e-06
-4.77263e-06
3.3722e-06
-4.71833e-06
5.11145e-06
-4.64114e-06
6.82381e-06
-4.54472e-06
8.5019e-06
-4.43818e-06
1.01411e-05
-4.33467e-06
1.17402e-05
-4.25044e-06
1.33025e-05
-4.20262e-06
1.48352e-05
-4.20694e-06
1.63492e-05
-4.27462e-06
1.78564e-05
-4.40924e-06
1.93682e-05
-4.60505e-06
2.08925e-05
-4.84659e-06
2.24321e-05
-5.1093e-06
2.3983e-05
-5.36127e-06
2.55331e-05
-5.56591e-06
2.70623e-05
-5.68445e-06
2.85429e-05
-5.67877e-06
2.99407e-05
-5.51381e-06
3.12165e-05
-5.15942e-06
3.2328e-05
-4.59092e-06
3.3231e-05
-3.78913e-06
3.388e-05
-2.74033e-06
3.42288e-05
-1.43694e-06
3.4231e-05
1.20011e-07
3.38411e-05
1.91655e-06
3.30169e-05
3.91997e-06
3.17227e-05
6.07167e-06
2.99352e-05
8.27976e-06
2.76499e-05
1.04141e-05
2.48883e-05
1.23052e-05
2.17056e-05
1.37496e-05
1.81973e-05
1.45223e-05
1.45035e-05
1.44025e-05
1.08106e-05
1.32128e-05
7.34368e-06
1.08792e-05
4.34772e-06
7.50875e-06
2.05067e-06
3.4835e-06
6.05033e-07
-4.42617e-07
6.0245e-09
-3.06138e-06
-2.67619e-06
-1.81121e-07
-2.27879e-06
-1.27763e-06
-1.37318e-06
-3.4671e-06
2.62514e-06
-6.64783e-06
7.73055e-06
-1.05683e-05
1.25909e-05
-1.49221e-05
1.64114e-05
-1.94137e-05
1.88342e-05
-2.37883e-05
1.98112e-05
-2.78497e-05
1.94832e-05
-3.14588e-05
1.80938e-05
-3.45252e-05
1.59198e-05
-3.70004e-05
1.32298e-05
-3.88711e-05
1.02639e-05
-4.01502e-05
7.22219e-06
-4.08691e-05
4.26011e-06
-4.10719e-05
1.48957e-06
-4.08101e-05
-1.01552e-06
-4.01387e-05
-3.21195e-06
-3.91129e-05
-5.07919e-06
-3.77872e-05
-6.61223e-06
-3.62147e-05
-7.81645e-06
-3.44477e-05
-8.70459e-06
-3.25367e-05
-9.29577e-06
-3.05296e-05
-9.616e-06
-2.84691e-05
-9.69905e-06
-2.63913e-05
-9.58621e-06
-2.43231e-05
-9.32424e-06
-2.22827e-05
-8.96245e-06
-2.02784e-05
-8.54948e-06
-1.83102e-05
-8.1307e-06
-1.63705e-05
-7.74474e-06
-1.44464e-05
-7.42017e-06
-1.25225e-05
-7.17347e-06
-1.05836e-05
-7.00853e-06
-8.61751e-06
-6.91734e-06
-6.61734e-06
-6.88265e-06
-4.58208e-06
-6.88216e-06
-2.51655e-06
-6.89244e-06
-4.30425e-07
-6.8926e-06
1.66334e-06
-6.86674e-06
3.74995e-06
-6.80536e-06
5.81432e-06
-6.70597e-06
7.84265e-06
-6.57353e-06
9.82334e-06
-6.41935e-06
1.17482e-05
-6.25997e-06
1.36135e-05
-6.11618e-06
1.54211e-05
-6.01065e-06
1.71789e-05
-5.96524e-06
1.89002e-05
-5.99648e-06
2.06011e-05
-6.11068e-06
2.22972e-05
-6.30162e-06
2.40007e-05
-6.55062e-06
2.57182e-05
-6.82725e-06
2.7448e-05
-7.09158e-06
2.91794e-05
-7.29771e-06
3.08917e-05
-7.39722e-06
3.25555e-05
-7.34291e-06
3.41336e-05
-7.09226e-06
3.55839e-05
-6.60984e-06
3.68609e-05
-5.86803e-06
3.79182e-05
-4.84619e-06
3.8708e-05
-3.52982e-06
3.91821e-05
-1.91043e-06
3.92907e-05
1.20426e-08
3.89835e-05
2.22439e-06
3.82111e-05
4.69307e-06
3.69283e-05
7.35508e-06
3.51e-05
1.01084e-05
3.2709e-05
1.28055e-05
2.97631e-05
1.52513e-05
2.63047e-05
1.72082e-05
2.24186e-05
1.84088e-05
1.82399e-05
1.85817e-05
1.39595e-05
1.74938e-05
9.82361e-06
1.50158e-05
6.11882e-06
1.12139e-05
3.1378e-06
6.46375e-06
1.11607e-06
1.57756e-06
1.35871e-07
-2.08201e-06
-2.53892e-06
-3.49758e-07
-1.92881e-06
-1.92282e-06
1.99873e-07
-4.80408e-06
5.50634e-06
-8.7725e-06
1.1699e-05
-1.34701e-05
1.72888e-05
-1.85174e-05
2.14587e-05
-2.35783e-05
2.38949e-05
-2.83849e-05
2.46188e-05
-3.27472e-05
2.38464e-05
-3.65414e-05
2.18877e-05
-3.96954e-05
1.90731e-05
-4.21793e-05
1.57136e-05
-4.39965e-05
1.20816e-05
-4.51746e-05
8.40115e-06
-4.57584e-05
4.84494e-06
-4.58035e-05
1.53581e-06
-4.53704e-05
-1.4473e-06
-4.45202e-05
-4.06089e-06
-4.33119e-05
-6.28651e-06
-4.1802e-05
-8.12147e-06
-4.00451e-05
-9.57279e-06
-3.80949e-05
-1.06543e-05
-3.6004e-05
-1.13863e-05
-3.38223e-05
-1.17972e-05
-3.15951e-05
-1.1926e-05
-2.93589e-05
-1.18221e-05
-2.71405e-05
-1.15425e-05
-2.49557e-05
-1.11472e-05
-2.28096e-05
-1.06956e-05
-2.06975e-05
-1.02429e-05
-1.8606e-05
-9.83632e-06
-1.65165e-05
-9.50992e-06
-1.44079e-05
-9.2824e-06
-1.22604e-05
-9.15637e-06
-1.00595e-05
-9.11867e-06
-7.79817e-06
-9.14429e-06
-5.47801e-06
-9.2026e-06
-3.10813e-06
-9.26254e-06
-7.03965e-07
-9.29692e-06
1.71508e-06
-9.28587e-06
4.12755e-06
-9.2179e-06
6.51183e-06
-9.09033e-06
8.84803e-06
-8.90979e-06
1.1119e-05
-8.69038e-06
1.33117e-05
-8.45263e-06
1.54183e-05
-8.22284e-06
1.74386e-05
-8.0309e-06
1.93809e-05
-7.90754e-06
2.12621e-05
-7.87777e-06
2.31039e-05
-7.95245e-06
2.4928e-05
-8.12573e-06
2.67533e-05
-8.37591e-06
2.85921e-05
-8.66601e-06
3.04474e-05
-8.94684e-06
3.23114e-05
-9.16163e-06
3.41647e-05
-9.25049e-06
3.59771e-05
-9.15527e-06
3.77094e-05
-8.82453e-06
3.93169e-05
-8.21726e-06
4.07525e-05
-7.30341e-06
4.19684e-05
-6.06175e-06
4.29166e-05
-4.47747e-06
4.35479e-05
-2.54103e-06
4.38108e-05
-2.50064e-07
4.36507e-05
2.38536e-06
4.30103e-05
5.33434e-06
4.1833e-05
8.53312e-06
4.00694e-05
1.18727e-05
3.76852e-05
1.51903e-05
3.46699e-05
1.8267e-05
3.10464e-05
2.08321e-05
2.68803e-05
2.25755e-05
2.22911e-05
2.31716e-05
1.74635e-05
2.23218e-05
1.26557e-05
1.98238e-05
8.19343e-06
1.56753e-05
4.44254e-06
1.02128e-05
1.74431e-06
4.2746e-06
3.00293e-07
-6.37099e-07
-2.23873e-06
-5.77301e-07
-1.3516e-06
-2.75804e-06
2.38075e-06
-6.47683e-06
9.22557e-06
-1.13436e-05
1.6566e-05
-1.68665e-05
2.28129e-05
-2.25874e-05
2.71801e-05
-2.81406e-05
2.94472e-05
-3.32617e-05
2.97401e-05
-3.77837e-05
2.83691e-05
-4.16128e-05
2.57165e-05
-4.47063e-05
2.21655e-05
-4.70597e-05
1.80657e-05
-4.86973e-05
1.37181e-05
-4.96648e-05
9.36778e-06
-5.00225e-05
5.20186e-06
-4.98388e-05
1.35177e-06
-4.91842e-05
-2.10183e-06
-4.81256e-05
-5.11926e-06
-4.6724e-05
-7.68794e-06
-4.50357e-05
-9.80973e-06
-4.31145e-05
-1.1494e-05
-4.10133e-05
-1.27555e-05
-3.87846e-05
-1.36148e-05
-3.64798e-05
-1.41019e-05
-3.41447e-05
-1.42609e-05
-3.18152e-05
-1.41513e-05
-2.95151e-05
-1.38423e-05
-2.72558e-05
-1.34062e-05
-2.50372e-05
-1.2914e-05
-2.28476e-05
-1.24323e-05
-2.06657e-05
-1.2018e-05
-1.84648e-05
-1.17107e-05
-1.62168e-05
-1.15304e-05
-1.38959e-05
-1.14771e-05
-1.14847e-05
-1.15298e-05
-8.9771e-06
-1.16518e-05
-6.37856e-06
-1.18009e-05
-3.7047e-06
-1.19361e-05
-9.78852e-07
-1.20224e-05
1.77105e-06
-1.20354e-05
4.51487e-06
-1.19613e-05
7.2226e-06
-1.17977e-05
9.86676e-06
-1.15536e-05
1.24231e-05
-1.12464e-05
1.48718e-05
-1.09009e-05
1.7199e-05
-1.05498e-05
1.94004e-05
-1.02319e-05
2.14842e-05
-9.99097e-06
2.34723e-05
-9.86549e-06
2.53936e-05
-9.87332e-06
2.72782e-05
-1.00099e-05
2.91538e-05
-1.0251e-05
3.1041e-05
-1.05527e-05
3.29499e-05
-1.08553e-05
3.48781e-05
-1.10893e-05
3.68095e-05
-1.11815e-05
3.87153e-05
-1.10605e-05
4.05551e-05
-1.06639e-05
4.2283e-05
-9.94459e-06
4.38515e-05
-8.87122e-06
4.52139e-05
-7.42341e-06
4.63242e-05
-5.58684e-06
4.7135e-05
-3.35075e-06
4.75952e-05
-7.09158e-07
4.76474e-05
2.33418e-06
4.72269e-05
5.75593e-06
4.6264e-05
9.49704e-06
4.46919e-05
1.34459e-05
4.24556e-05
1.74275e-05
3.95216e-05
2.12019e-05
3.58861e-05
2.44685e-05
3.15852e-05
2.68774e-05
2.67079e-05
2.80496e-05
2.14155e-05
2.76144e-05
1.59608e-05
2.52778e-05
1.06989e-05
2.09356e-05
6.07349e-06
1.48364e-05
2.55845e-06
7.78991e-06
5.21063e-07
1.40072e-06
-1.71972e-06
-8.99079e-07
-4.52544e-07
-3.87992e-06
5.36237e-06
-8.62892e-06
1.39757e-05
-1.45155e-05
2.24527e-05
-2.08855e-05
2.9184e-05
-2.72065e-05
3.35023e-05
-3.31063e-05
3.53466e-05
-3.83538e-05
3.49876e-05
-4.28306e-05
3.28469e-05
-4.64919e-05
2.93788e-05
-4.93357e-05
2.50101e-05
-5.13894e-05
2.012e-05
-5.27019e-05
1.50309e-05
-5.33384e-05
1.00042e-05
-5.33761e-05
5.23907e-06
-5.28975e-05
8.7293e-07
-5.19835e-05
-3.01582e-06
-5.07054e-05
-6.39734e-06
-4.9123e-05
-9.27034e-06
-4.72889e-05
-1.1644e-05
-4.52523e-05
-1.3531e-05
-4.30619e-05
-1.49463e-05
-4.07677e-05
-1.59094e-05
-3.84199e-05
-1.64499e-05
-3.60639e-05
-1.66172e-05
-3.37324e-05
-1.64833e-05
-3.14426e-05
-1.61325e-05
-2.91987e-05
-1.56505e-05
-2.69928e-05
-1.51202e-05
-2.48044e-05
-1.46212e-05
-2.26017e-05
-1.42211e-05
-2.03481e-05
-1.39647e-05
-1.80069e-05
-1.38719e-05
-1.55456e-05
-1.39387e-05
-1.29433e-05
-1.41323e-05
-1.01965e-05
-1.43988e-05
-7.317e-06
-1.46806e-05
-4.32952e-06
-1.49238e-05
-1.26807e-06
-1.50841e-05
1.82853e-06
-1.51322e-05
4.91922e-06
-1.50523e-05
7.96351e-06
-1.48423e-05
1.09249e-05
-1.45153e-05
1.37705e-05
-1.40925e-05
1.64715e-05
-1.36022e-05
1.90053e-05
-1.3084e-05
2.13599e-05
-1.2587e-05
2.35419e-05
-1.21734e-05
2.55799e-05
-1.19039e-05
2.75123e-05
-1.18061e-05
2.93789e-05
-1.1877e-05
3.12183e-05
-1.20908e-05
3.30623e-05
-1.2397e-05
3.49306e-05
-1.27239e-05
3.68294e-05
-1.29883e-05
3.87493e-05
-1.31018e-05
4.0665e-05
-1.29763e-05
4.2537e-05
-1.25358e-05
4.43191e-05
-1.17267e-05
4.59662e-05
-1.05181e-05
4.74361e-05
-8.89293e-06
4.86882e-05
-6.83844e-06
4.96806e-05
-4.34266e-06
5.03666e-05
-1.39464e-06
5.06894e-05
2.01186e-06
5.05777e-05
5.86808e-06
4.99478e-05
1.01276e-05
4.87126e-05
1.46817e-05
4.6794e-05
1.93469e-05
4.41316e-05
2.38652e-05
4.06889e-05
2.79123e-05
3.64609e-05
3.11064e-05
3.1488e-05
3.30231e-05
2.58818e-05
3.32205e-05
1.98612e-05
3.12978e-05
1.37865e-05
2.70095e-05
8.17347e-06
2.04496e-05
3.65484e-06
1.23106e-05
8.33173e-07
4.22105e-06
-8.86556e-07
-1.37333e-06
9.21131e-07
-5.43284e-06
9.42291e-06
-1.14536e-05
1.99982e-05
-1.84691e-05
2.94685e-05
-2.56443e-05
3.63596e-05
-3.23991e-05
4.02592e-05
-3.83987e-05
4.13476e-05
-4.34901e-05
4.00805e-05
-4.76394e-05
3.69979e-05
-5.08723e-05
3.26135e-05
-5.32381e-05
2.73782e-05
-5.47994e-05
2.16838e-05
-5.56303e-05
1.5864e-05
-5.5815e-05
1.01908e-05
-5.54469e-05
4.87236e-06
-5.46239e-05
5.10733e-08
-5.3437e-05
-4.20144e-06
-5.19593e-05
-7.87403e-06
-5.02442e-05
-1.09847e-05
-4.83351e-05
-1.35529e-05
-4.62714e-05
-1.55947e-05
-4.40929e-05
-1.7125e-05
-4.18427e-05
-1.816e-05
-3.9568e-05
-1.87251e-05
-3.73119e-05
-1.88741e-05
-3.50998e-05
-1.86963e-05
-3.29377e-05
-1.82959e-05
-3.08185e-05
-1.77709e-05
-2.87248e-05
-1.72152e-05
-2.66255e-05
-1.67219e-05
-2.44758e-05
-1.63719e-05
-2.22281e-05
-1.62135e-05
-1.98377e-05
-1.62633e-05
-1.72636e-05
-1.65139e-05
-1.44817e-05
-1.69154e-05
-1.14941e-05
-1.73876e-05
-8.32228e-06
-1.78536e-05
-5.00305e-06
-1.82442e-05
-1.58441e-06
-1.85039e-05
1.88203e-06
-1.85998e-05
5.3421e-06
-1.85136e-05
8.74256e-06
-1.8244e-05
1.20371e-05
-1.78111e-05
1.51837e-05
-1.72403e-05
1.81417e-05
-1.65614e-05
2.0877e-05
-1.58204e-05
2.33638e-05
-1.50749e-05
2.56033e-05
-1.4414e-05
2.76347e-05
-1.39363e-05
2.95071e-05
-1.36795e-05
3.12702e-05
-1.36411e-05
3.2975e-05
-1.37967e-05
3.46669e-05
-1.40901e-05
3.63781e-05
-1.44362e-05
3.81266e-05
-1.47379e-05
3.99145e-05
-1.48907e-05
4.17235e-05
-1.47862e-05
4.35166e-05
-1.43297e-05
4.52499e-05
-1.34606e-05
4.68836e-05
-1.21525e-05
4.8385e-05
-1.0395e-05
4.97238e-05
-8.17788e-06
5.08687e-05
-5.48816e-06
5.17827e-05
-2.30925e-06
5.24153e-05
1.3787e-06
5.26916e-05
5.5913e-06
5.25128e-05
1.03061e-05
5.17699e-05
1.54246e-05
5.03604e-05
2.07565e-05
4.81965e-05
2.60296e-05
4.5206e-05
3.09035e-05
4.13336e-05
3.49797e-05
3.65496e-05
3.78077e-05
3.08815e-05
3.88888e-05
2.44698e-05
3.77101e-05
1.76342e-05
3.38464e-05
1.09339e-05
2.71528e-05
5.17611e-06
1.80711e-05
1.29773e-06
8.09856e-06
4.15176e-07
-2.10302e-06
3.02475e-06
-7.6417e-06
1.4962e-05
-1.52163e-05
2.75742e-05
-2.34134e-05
3.76673e-05
-3.12311e-05
4.4178e-05
-3.81109e-05
4.71406e-05
-4.38292e-05
4.7067e-05
-4.83715e-05
4.4624e-05
-5.18299e-05
4.04572e-05
-5.43226e-05
3.51068e-05
-5.59554e-05
2.90116e-05
-5.68237e-05
2.25528e-05
-5.70227e-05
1.60636e-05
-5.66514e-05
9.82006e-06
-5.58164e-05
4.03774e-06
-5.46307e-05
-1.13448e-06
-5.3196e-05
-5.6359e-06
-5.15823e-05
-9.48747e-06
-4.98286e-05
-1.27382e-05
-4.79618e-05
-1.54197e-05
-4.60058e-05
-1.75509e-05
-4.39852e-05
-1.91459e-05
-4.19302e-05
-2.02153e-05
-3.9882e-05
-2.07736e-05
-3.78803e-05
-2.08762e-05
-3.59385e-05
-2.06385e-05
-3.40428e-05
-2.01921e-05
-3.21704e-05
-1.96439e-05
-3.02938e-05
-1.90922e-05
-2.83715e-05
-1.86445e-05
-2.63436e-05
-1.84e-05
-2.41517e-05
-1.84057e-05
-2.17469e-05
-1.86683e-05
-1.90782e-05
-1.9183e-05
-1.61182e-05
-1.9876e-05
-1.28806e-05
-2.06257e-05
-9.40066e-06
-2.13341e-05
-5.72949e-06
-2.1916e-05
-1.93262e-06
-2.23013e-05
1.925e-06
-2.24579e-05
5.77503e-06
-2.23639e-05
9.54862e-06
-2.20179e-05
1.3191e-05
-2.14537e-05
1.66521e-05
-2.07017e-05
1.98775e-05
-1.9787e-05
2.2819e-05
-1.8762e-05
2.54275e-05
-1.76834e-05
2.76909e-05
-1.66775e-05
2.96669e-05
-1.59123e-05
3.14163e-05
-1.5429e-05
3.29939e-05
-1.52188e-05
3.44634e-05
-1.52663e-05
3.58861e-05
-1.55129e-05
3.73075e-05
-1.58576e-05
3.8761e-05
-1.61915e-05
4.02669e-05
-1.63965e-05
4.18192e-05