/*--------------------------------*- C++ -*----------------------------------*\
| =========                 |                                                 |
| \\      /  F ield         | OpenFOAM: The Open Source CFD Toolbox           |
|  \\    /   O peration     | Version:  2412                                  |
|   \\  /    A nd           | Website:  www.openfoam.com                      |
|    \\/     M anipulation  |                                                 |
\*---------------------------------------------------------------------------*/
FoamFile
{
    version     2.0;
    format      ascii;
    arch        "LSB;label=32;scalar=64";
    class       surfaceScalarField;
    location    "8.95";
    object      phi;
}
// * * * * * * * * * * * * * * * * * * * * * * * * * * * * * * * * * * * * * //

dimensions      [0 3 -1 0 0 0 0];

oriented        oriented;

internalField   nonuniform List<scalar> 
12640
(
-2.14544e-05
2.14544e-05
-4.0643e-05
1.91887e-05
-5.69009e-05
1.62578e-05
-7.06474e-05
1.3746e-05
-8.24358e-05
1.17878e-05
-9.28253e-05
1.03889e-05
-0.000102229
9.4038e-06
-0.000110937
8.70752e-06
-0.000118876
7.93854e-06
-0.000125844
6.96718e-06
-0.000131656
5.81256e-06
-0.000136027
4.37069e-06
-0.000138905
2.87846e-06
-0.000140239
1.33522e-06
-0.000140103
-1.36014e-07
-0.000138589
-1.51516e-06
-0.000135865
-2.72373e-06
-0.000132134
-3.72994e-06
-0.000127624
-4.5103e-06
-0.0001225
-5.1237e-06
-0.000116932
-5.56878e-06
-0.000111097
-5.83516e-06
-0.000105074
-6.02452e-06
-9.90045e-05
-6.07029e-06
-9.29501e-05
-6.05446e-06
-8.6934e-05
-6.016e-06
-8.09684e-05
-5.96557e-06
-7.50502e-05
-5.91835e-06
-6.92083e-05
-5.84208e-06
-6.33843e-05
-5.82408e-06
-5.75478e-05
-5.83655e-06
-5.16913e-05
-5.85664e-06
-4.57826e-05
-5.9088e-06
-3.98168e-05
-5.96597e-06
-3.37613e-05
-6.05575e-06
-2.76145e-05
-6.14706e-06
-2.13823e-05
-6.2324e-06
-1.50876e-05
-6.29482e-06
-8.75239e-06
-6.33524e-06
-2.40947e-06
-6.34286e-06
3.90851e-06
-6.31789e-06
1.01669e-05
-6.25826e-06
1.63284e-05
-6.16149e-06
2.23745e-05
-6.04595e-06
2.83071e-05
-5.93245e-06
3.41478e-05
-5.84055e-06
3.98993e-05
-5.75144e-06
4.55803e-05
-5.6809e-06
5.12173e-05
-5.63693e-06
5.68715e-05
-5.6543e-06
6.25642e-05
-5.69286e-06
6.83328e-05
-5.76891e-06
7.42168e-05
-5.8844e-06
8.02276e-05
-6.01131e-06
8.63811e-05
-6.15413e-06
9.26478e-05
-6.26733e-06
9.90065e-05
-6.35922e-06
0.000105345
-6.33858e-06
0.000111609
-6.26471e-06
0.000117628
-6.0188e-06
0.000123273
-5.6463e-06
0.000128316
-5.04359e-06
0.000132568
-4.25199e-06
0.000135807
-3.24039e-06
0.000137812
-2.00526e-06
0.000138396
-5.8437e-07
0.000137477
9.18551e-07
0.000134981
2.49575e-06
0.000130918
4.0627e-06
0.000125407
5.51071e-06
0.000118671
6.73408e-06
0.000110957
7.71345e-06
0.000102463
8.49362e-06
9.32283e-05
9.23606e-06
8.29599e-05
1.02692e-05
7.1236e-05
1.17236e-05
5.74592e-05
1.3776e-05
4.11016e-05
1.63567e-05
2.16972e-05
1.94033e-05
2.16954e-05
-2.10176e-05
4.24723e-05
-3.73823e-05
3.55531e-05
-4.87761e-05
2.76507e-05
-5.64444e-05
2.14132e-05
-6.15959e-05
1.69385e-05
-6.5727e-05
1.45197e-05
-6.97944e-05
1.34709e-05
-7.45074e-05
1.34203e-05
-7.98548e-05
1.32856e-05
-8.55673e-05
1.26791e-05
-9.11886e-05
1.14346e-05
-9.64374e-05
9.61969e-06
-0.000100779
7.21948e-06
-0.000104058
4.61406e-06
-0.000106153
1.95937e-06
-0.000107075
-5.92181e-07
-0.000106922
-2.87799e-06
-0.000105834
-4.81896e-06
-0.000103934
-6.41062e-06
-0.000101435
-7.62386e-06
-9.84337e-05
-8.57054e-06
-9.50487e-05
-9.22002e-06
-9.14071e-05
-9.66569e-06
-8.75575e-05
-9.91985e-06
-8.35582e-05
-1.00546e-05
-7.94498e-05
-1.01259e-05
-7.52401e-05
-1.0177e-05
-7.09339e-05
-1.02263e-05
-6.64864e-05
-1.02911e-05
-6.18849e-05
-1.04266e-05
-5.70922e-05
-1.063e-05
-5.2093e-05
-1.08563e-05
-4.68514e-05
-1.11507e-05
-4.13567e-05
-1.14609e-05
-3.56132e-05
-1.17992e-05
-2.96126e-05
-1.21475e-05
-2.3381e-05
-1.24634e-05
-1.69683e-05
-1.27067e-05
-1.04325e-05
-1.28701e-05
-3.84905e-06
-1.29256e-05
2.70046e-06
-1.28668e-05
9.13842e-06
-1.26958e-05
1.54016e-05
-1.24244e-05
2.1446e-05
-1.20902e-05
2.72283e-05
-1.17145e-05
3.27364e-05
-1.13487e-05
3.79761e-05
-1.09913e-05
4.29786e-05
-1.06837e-05
4.77531e-05
-1.04118e-05
5.23298e-05
-1.02315e-05
5.67645e-05
-1.01282e-05
6.10997e-05
-1.0105e-05
6.53951e-05
-1.01806e-05
6.9673e-05
-1.02901e-05
7.39368e-05
-1.04188e-05
7.81763e-05
-1.05076e-05
8.23386e-05
-1.05219e-05
8.63986e-05
-1.0399e-05
9.02387e-05
-1.01051e-05
9.37904e-05
-9.57098e-06
9.69081e-05
-8.76491e-06
9.94186e-05
-7.55527e-06
0.000101151
-5.98611e-06
0.000101899
-3.98902e-06
0.00010158
-1.68687e-06
0.00010004
9.56086e-07
9.73178e-05
3.64034e-06
9.35181e-05
6.29488e-06
8.87638e-05
8.81548e-06
8.35213e-05
1.07514e-05
7.81989e-05
1.20554e-05
7.32696e-05
1.26429e-05
6.9019e-05
1.27451e-05
6.53437e-05
1.29116e-05
6.15789e-05
1.40329e-05
5.67133e-05
1.65876e-05
4.91731e-05
2.13149e-05
3.77965e-05
2.7732e-05
2.12889e-05
3.59088e-05
4.29857e-05
-2.06377e-05
6.31099e-05
-3.49084e-05
4.98233e-05
-4.31212e-05
3.58629e-05
-4.68287e-05
2.51204e-05
-4.77517e-05
1.78616e-05
-4.77696e-05
1.4538e-05
-4.85233e-05
1.42246e-05
-5.06265e-05
1.55232e-05
-5.41937e-05
1.68524e-05
-5.87803e-05
1.72644e-05
-6.39492e-05
1.66026e-05
-6.90882e-05
1.47579e-05
-7.36322e-05
1.17633e-05
-7.73729e-05
8.35362e-06
-8.01144e-05
4.69841e-06
-8.18214e-05
1.11346e-06
-8.25399e-05
-2.15965e-06
-8.23956e-05
-4.96303e-06
-8.15688e-05
-7.23692e-06
-8.01887e-05
-9.00301e-06
-7.83554e-05
-1.04034e-05
-7.6245e-05
-1.13317e-05
-7.38969e-05
-1.20165e-05
-7.1405e-05
-1.24147e-05
-6.87934e-05
-1.26685e-05
-6.60819e-05
-1.28388e-05
-6.32582e-05
-1.30017e-05
-6.03083e-05
-1.31767e-05
-5.71958e-05
-1.34038e-05
-5.38797e-05
-1.37427e-05
-5.03237e-05
-1.41857e-05
-4.64448e-05
-1.47347e-05
-4.22485e-05
-1.53464e-05
-3.77207e-05
-1.59878e-05
-3.2846e-05
-1.66727e-05
-2.76428e-05
-1.73494e-05
-2.21293e-05
-1.79757e-05
-1.63554e-05
-1.84795e-05
-1.04111e-05
-1.88136e-05
-4.40333e-06
-1.89329e-05
1.568e-06
-1.88379e-05
7.39875e-06
-1.85265e-05
1.29999e-05
-1.80255e-05
1.82963e-05
-1.73866e-05
2.32718e-05
-1.66901e-05
2.78649e-05
-1.5942e-05
3.21134e-05
-1.524e-05
3.60379e-05
-1.46084e-05
3.9628e-05
-1.40023e-05
4.29513e-05
-1.35551e-05
4.60671e-05
-1.32442e-05
4.90656e-05
-1.31038e-05
5.19957e-05
-1.31111e-05
5.48833e-05
-1.3178e-05
5.77644e-05
-1.33001e-05
6.06244e-05
-1.33675e-05
6.34609e-05
-1.33584e-05
6.62282e-05
-1.31662e-05
6.88728e-05
-1.27498e-05
7.12845e-05
-1.19829e-05
7.33165e-05
-1.07974e-05
7.48555e-05
-9.09505e-06
7.56722e-05
-6.80348e-06
7.566e-05
-3.97723e-06
7.4602e-05
-6.2904e-07
7.24781e-05
3.0799e-06
6.93038e-05
6.81432e-06
6.51901e-05
1.04077e-05
6.06474e-05
1.33567e-05
5.59985e-05
1.53989e-05
5.18025e-05
1.62504e-05
4.87697e-05
1.56756e-05
4.72411e-05
1.42736e-05
4.69815e-05
1.31704e-05
4.7462e-05
1.35511e-05
4.68879e-05
1.71611e-05
4.34592e-05
2.47438e-05
3.52808e-05
3.59103e-05
2.09053e-05
5.02856e-05
6.38926e-05
-2.15023e-05
8.46119e-05
-3.50672e-05
6.33879e-05
-4.11246e-05
4.19201e-05
-4.18131e-05
2.58093e-05
-3.95275e-05
1.55765e-05
-3.68581e-05
1.18689e-05
-3.55298e-05
1.28959e-05
-3.63771e-05
1.63695e-05
-3.94399e-05
1.9914e-05
-4.40625e-05
2.1886e-05
-4.93554e-05
2.18951e-05
-5.44513e-05
1.98514e-05
-5.91846e-05
1.64952e-05
-6.29394e-05
1.21089e-05
-6.56261e-05
7.38502e-06
-6.72859e-05
2.77291e-06
-6.79626e-05
-1.48373e-06
-6.78444e-05
-5.08318e-06
-6.70882e-05
-7.99643e-06
-6.59174e-05
-1.01769e-05
-6.44785e-05
-1.18436e-05
-6.28054e-05
-1.30044e-05
-6.10488e-05
-1.37714e-05
-5.9229e-05
-1.42322e-05
-5.73863e-05
-1.45084e-05
-5.55317e-05
-1.46911e-05
-5.36251e-05
-1.49067e-05
-5.16294e-05
-1.51713e-05
-4.9495e-05
-1.55375e-05
-4.71273e-05
-1.61101e-05
-4.44866e-05
-1.68265e-05
-4.15414e-05
-1.76801e-05
-3.82271e-05
-1.8661e-05
-3.45144e-05
-1.97008e-05
-3.03958e-05
-2.07916e-05
-2.58459e-05
-2.18998e-05
-2.09276e-05
-2.28943e-05
-1.57108e-05
-2.36966e-05
-1.02938e-05
-2.42307e-05
-4.7856e-06
-2.44411e-05
6.79569e-07
-2.43029e-05
5.97756e-06
-2.38242e-05
1.09953e-05
-2.3043e-05
1.56561e-05
-2.20472e-05
1.9893e-05
-2.09267e-05
2.37214e-05
-1.97701e-05
2.71064e-05
-1.86248e-05
3.00779e-05
-1.75797e-05
3.27211e-05
-1.66453e-05
3.5065e-05
-1.58989e-05
3.71975e-05
-1.53769e-05
3.92017e-05
-1.51082e-05
4.11375e-05
-1.50472e-05
4.30973e-05
-1.51382e-05
4.51125e-05
-1.53157e-05
4.72483e-05
-1.55037e-05
4.94608e-05
-1.55711e-05
5.1713e-05
-1.54187e-05
5.39452e-05
-1.49822e-05
5.60945e-05
-1.41325e-05
5.79924e-05
-1.26959e-05
5.95358e-05
-1.06393e-05
6.04365e-05
-7.70498e-06
6.05889e-05
-4.13037e-06
5.96463e-05
3.1301e-07
5.76173e-05
5.10829e-06
5.4489e-05
9.94171e-06
5.04978e-05
1.43978e-05
4.5711e-05
1.81424e-05
4.085e-05
2.02593e-05
3.68476e-05
2.02527e-05
3.43441e-05
1.8179e-05
3.39134e-05
1.47034e-05
3.58848e-05
1.11978e-05
3.91377e-05
1.02978e-05
4.19476e-05
1.43524e-05
4.15639e-05
2.51288e-05
3.55486e-05
4.19263e-05
2.18087e-05
6.40272e-05
8.57002e-05
-2.30518e-05
0.000107664
-3.60294e-05
7.63652e-05
-3.94238e-05
4.53145e-05
-3.62657e-05
2.26516e-05
-3.04972e-05
9.80813e-06
-2.54199e-05
6.79126e-06
-2.34409e-05
1.09162e-05
-2.49489e-05
1.78771e-05
-2.92098e-05
2.41741e-05
-3.51229e-05
2.7798e-05
-4.14718e-05
2.82452e-05
-4.73949e-05
2.57749e-05
-5.21917e-05
2.12918e-05
-5.57604e-05
1.56769e-05
-5.80575e-05
9.68047e-06
-5.91445e-05
3.85771e-06
-5.92515e-05
-1.37789e-06
-5.85368e-05
-5.7973e-06
-5.73769e-05
-9.15478e-06
-5.58285e-05
-1.17235e-05
-5.41397e-05
-1.35308e-05
-5.24192e-05
-1.47244e-05
-5.07729e-05
-1.54186e-05
-4.92303e-05
-1.57766e-05
-4.78065e-05
-1.59339e-05
-4.64563e-05
-1.60428e-05
-4.52248e-05
-1.61395e-05
-4.39359e-05
-1.64614e-05
-4.25334e-05
-1.6941e-05
-4.10173e-05
-1.7627e-05
-3.92166e-05
-1.86277e-05
-3.70652e-05
-1.98318e-05
-3.45166e-05
-2.12098e-05
-3.1505e-05
-2.27124e-05
-2.80151e-05
-2.42816e-05
-2.40854e-05
-2.58295e-05
-1.97268e-05
-2.72529e-05
-1.50136e-05
-2.84099e-05
-1.00509e-05
-2.91935e-05
-4.97802e-06
-2.95141e-05
4.39034e-08
-2.9325e-05
4.87074e-06
-2.86512e-05
9.36148e-06
-2.75339e-05
1.34397e-05
-2.61255e-05
1.70329e-05
-2.45199e-05
2.01103e-05
-2.28475e-05
2.27122e-05
-2.12268e-05
2.48407e-05
-1.97082e-05
2.66145e-05
-1.84193e-05
2.80732e-05
-1.73578e-05
2.93324e-05
-1.66365e-05
3.05037e-05
-1.628e-05
3.17166e-05
-1.62605e-05
3.30373e-05
-1.64595e-05
3.45562e-05
-1.68352e-05
3.62935e-05
-1.72415e-05
3.82695e-05
-1.75476e-05
4.04903e-05
-1.76399e-05
4.2869e-05
-1.73614e-05
4.53059e-05
-1.65699e-05
4.77176e-05
-1.51081e-05
4.97228e-05
-1.2645e-05
5.14088e-05
-9.39162e-06
5.21797e-05
-4.90207e-06
5.18712e-05
6.20894e-07
5.03324e-05
6.64642e-06
4.74037e-05
1.287e-05
4.29484e-05
1.88528e-05
3.77386e-05
2.33521e-05
3.18034e-05
2.61947e-05
2.63484e-05
2.57076e-05
2.25971e-05
2.19294e-05
2.16154e-05
1.56834e-05
2.41842e-05
8.62769e-06
2.97971e-05
4.6853e-06
3.6225e-05
7.92543e-06
3.98234e-05
2.15304e-05
3.66e-05
4.51492e-05
2.34791e-05
7.71472e-05
0.000109177
-2.48375e-05
0.000132501
-3.57582e-05
8.72852e-05
-3.3886e-05
4.34421e-05
-2.44207e-05
1.31863e-05
-1.36231e-05
-9.89592e-07
-6.84716e-06
1.48937e-08
-6.49933e-06
1.05676e-05
-1.13797e-05
2.27577e-05
-1.95001e-05
3.22953e-05
-2.9064e-05
3.73623e-05
-3.80424e-05
3.72241e-05
-4.54145e-05
3.31467e-05
-5.09121e-05
2.67889e-05
-5.44238e-05
1.91888e-05
-5.61445e-05
1.14027e-05
-5.64187e-05
4.13408e-06
-5.55077e-05
-2.28735e-06
-5.38342e-05
-7.46998e-06
-5.17507e-05
-1.12385e-05
-4.94442e-05
-1.40312e-05
-4.71859e-05
-1.57908e-05
-4.50974e-05
-1.68149e-05
-4.32648e-05
-1.72534e-05
-4.1739e-05
-1.73044e-05
-4.05053e-05
-1.71693e-05
-3.95314e-05
-1.7018e-05
-3.86954e-05
-1.69762e-05
-3.80089e-05
-1.71482e-05
-3.72658e-05
-1.76842e-05
-3.63481e-05
-1.85445e-05
-3.52241e-05
-1.97511e-05
-3.37625e-05
-2.12927e-05
-3.18424e-05
-2.31291e-05
-2.94267e-05
-2.51273e-05
-2.64633e-05
-2.72443e-05
-2.29592e-05
-2.93331e-05
-1.89556e-05
-3.12559e-05
-1.45426e-05
-3.28224e-05
-9.82959e-06
-3.3906e-05
-4.98688e-06
-3.43565e-05
-1.92233e-07
-3.41194e-05
4.36315e-06
-3.32066e-05
8.53478e-06
-3.17057e-05
1.21984e-05
-2.97894e-05
1.52817e-05
-2.76035e-05
1.77888e-05
-2.53549e-05
1.96979e-05
-2.31361e-05
2.11171e-05
-2.11277e-05
2.20788e-05
-1.93812e-05
2.27623e-05
-1.80415e-05
2.32959e-05
-1.71702e-05
2.37852e-05
-1.67693e-05
2.43866e-05
-1.68621e-05
2.52118e-05
-1.72848e-05
2.63908e-05
-1.80143e-05
2.79746e-05
-1.88256e-05
3.00112e-05
-1.95844e-05
3.2488e-05
-2.01168e-05
3.53522e-05
-2.02257e-05
3.84779e-05
-1.96956e-05
4.17881e-05
-1.84183e-05
4.48543e-05
-1.57113e-05
4.74928e-05
-1.20305e-05
4.93906e-05
-6.80037e-06
5.00754e-05
-6.4416e-08
4.91352e-05
7.58624e-06
4.62319e-05
1.57732e-05
4.13426e-05
2.37424e-05
3.42078e-05
3.04874e-05
2.57124e-05
3.46903e-05
1.64012e-05
3.50182e-05
8.21391e-06
3.01152e-05
3.9303e-06
1.99652e-05
5.01474e-06
7.54254e-06
1.2532e-05
-2.83171e-06
2.41083e-05
-3.65149e-06
3.42714e-05
1.13657e-05
3.63709e-05
4.30486e-05
2.52545e-05
8.82615e-05
0.000134432
-2.59816e-05
0.000158482
-3.13815e-05
9.26848e-05
-1.92382e-05
3.12988e-05
2.15835e-07
-6.26788e-06
1.66312e-05
-1.74052e-05
2.34653e-05
-6.81906e-06
1.94185e-05
1.46142e-05
7.21802e-06
3.49581e-05
-8.62211e-06
4.8135e-05
-2.43422e-05
5.30826e-05
-3.76845e-05
5.05666e-05
-4.78327e-05
4.32954e-05
-5.43658e-05
3.3323e-05
-5.78555e-05
2.26779e-05
-5.88073e-05
1.23533e-05
-5.79477e-05
3.27362e-06
-5.56387e-05
-4.59726e-06
-5.27241e-05
-1.03856e-05
-4.93965e-05
-1.4567e-05
-4.60789e-05
-1.73491e-05
-4.29929e-05
-1.88761e-05
-4.0318e-05
-1.94884e-05
-3.8143e-05
-1.94264e-05
-3.64799e-05
-1.89654e-05
-3.53287e-05
-1.83183e-05
-3.46089e-05
-1.77359e-05
-3.42093e-05
-1.73744e-05
-3.39729e-05
-1.73835e-05
-3.37732e-05
-1.7883e-05
-3.34879e-05
-1.8829e-05
-3.29436e-05
-2.02947e-05
-3.2021e-05
-2.22148e-05
-3.06119e-05
-2.45378e-05
-2.86217e-05
-2.71172e-05
-2.5975e-05
-2.98909e-05
-2.27214e-05
-3.25868e-05
-1.88647e-05
-3.51126e-05
-1.44849e-05
-3.72022e-05
-9.73373e-06
-3.86571e-05
-4.82571e-06
-3.92645e-05
2.19022e-08
-3.89671e-05
4.57129e-06
-3.77561e-05
8.64498e-06
-3.57794e-05
1.20959e-05
-3.32404e-05
1.48736e-05
-3.03812e-05
1.68917e-05
-2.73729e-05
1.82612e-05
-2.45055e-05
1.90351e-05
-2.19014e-05
1.93574e-05
-1.97034e-05
1.93452e-05
-1.8029e-05
1.91676e-05
-1.69924e-05
1.90151e-05
-1.66166e-05
1.90662e-05
-1.6913e-05
1.9503e-05
-1.77214e-05
2.04135e-05
-1.89248e-05
2.19476e-05
-2.03597e-05
2.41724e-05
-2.18092e-05
2.70963e-05
-2.30406e-05
3.06616e-05
-2.37907e-05
3.47452e-05
-2.37791e-05
3.91724e-05
-2.28453e-05
4.36599e-05
-2.01991e-05
4.7688e-05
-1.60593e-05
5.09383e-05
-1.00516e-05
5.29597e-05
-2.08679e-06
5.28678e-05
7.67763e-06
5.00756e-05
1.85656e-05
4.40642e-05
2.97545e-05
3.4317e-05
4.02355e-05
2.08988e-05
4.81087e-05
5.08691e-06
5.08293e-05
-1.08132e-05
4.60142e-05
-2.29805e-05
3.21323e-05
-2.67689e-05
1.13317e-05
-1.87904e-05
-1.081e-05
-1.20122e-06
-2.12416e-05
1.9188e-05
-9.02397e-06
3.19485e-05
3.02884e-05
2.64155e-05
9.37948e-05
0.00016085
-2.54336e-05
0.000183915
-2.03412e-05
8.75929e-05
6.81539e-06
4.14328e-06
3.8315e-05
-3.77671e-05
5.9941e-05
-3.90319e-05
6.46045e-05
-1.14832e-05
5.25946e-05
2.66233e-05
2.93875e-05
5.81655e-05
2.31079e-06
7.52107e-05
-2.23975e-05
7.77908e-05
-4.14102e-05
6.95778e-05
-5.45578e-05
5.64409e-05
-6.22902e-05
4.10543e-05
-6.53508e-05
2.57375e-05
-6.51821e-05
1.21829e-05
-6.25665e-05
6.56319e-07
-5.87142e-05
-8.45093e-06
-5.40983e-05
-1.50028e-05
-4.91055e-05
-1.95613e-05
-4.45235e-05
-2.19322e-05
-4.04147e-05
-2.29851e-05
-3.70053e-05
-2.28976e-05
-3.43827e-05
-2.20486e-05
-3.25742e-05
-2.07732e-05
-3.14933e-05
-1.93984e-05
-3.10104e-05
-1.82181e-05
-3.1017e-05
-1.73671e-05
-3.12402e-05
-1.71598e-05
-3.16402e-05
-1.74826e-05
-3.1924e-05
-1.85448e-05
-3.19353e-05
-2.02831e-05
-3.15232e-05
-2.26269e-05
-3.05501e-05
-2.55113e-05
-2.88598e-05
-2.8808e-05
-2.64783e-05
-3.2273e-05
-2.32915e-05
-3.57743e-05
-1.93667e-05
-3.90381e-05
-1.48042e-05
-4.17653e-05
-9.76098e-06
-4.3701e-05
-4.5232e-06
-4.45027e-05
6.43224e-07
-4.41339e-05
5.43996e-06
-4.25529e-05
9.6222e-06
-3.99617e-05
1.30502e-05
-3.66682e-05
1.55947e-05
-3.29255e-05
1.72664e-05
-2.90443e-05
1.8146e-05
-2.53848e-05
1.83398e-05
-2.20948e-05
1.79869e-05
-1.93503e-05
1.72648e-05
-1.73065e-05
1.63814e-05
-1.61086e-05
1.55702e-05
-1.58051e-05
1.50585e-05
-1.64011e-05
1.50338e-05
-1.76966e-05
1.57e-05
-1.9591e-05
1.71883e-05
-2.18483e-05
1.96457e-05
-2.4267e-05
2.31137e-05
-2.65089e-05
2.75299e-05
-2.8207e-05
3.27969e-05
-2.90462e-05
3.85668e-05
-2.86154e-05
4.48647e-05
-2.64977e-05
5.07729e-05
-2.19685e-05
5.59298e-05
-1.52099e-05
5.97058e-05
-5.86376e-06
6.09912e-05
6.3918e-06
5.86697e-05
2.08873e-05
5.14807e-05
3.69442e-05
3.83332e-05
5.33835e-05
1.89631e-05
6.74787e-05
-6.24462e-06
7.60368e-05
-3.36668e-05
7.34368e-05
-5.6971e-05
5.54382e-05
-6.84655e-05
2.2828e-05
-6.25849e-05
-1.66904e-05
-3.96153e-05
-4.42114e-05
-6.97169e-06
-4.16665e-05
2.0858e-05
2.45947e-06
2.59754e-05
8.86796e-05
0.000186825
-2.27655e-05
0.000206681
-3.79579e-06
6.86248e-05
3.78139e-05
-3.74654e-05
7.66789e-05
-7.66317e-05
9.83963e-05
-6.07498e-05
9.78153e-05
-1.0903e-05
7.70439e-05
4.73933e-05
4.31057e-05
9.21036e-05
5.50361e-06
0.000112811
-2.71985e-05
0.000110493
-5.21586e-05
9.45376e-05
-6.7809e-05
7.20902e-05
-7.53442e-05
4.85881e-05
-7.72017e-05
2.75937e-05
-7.48766e-05
9.85638e-06
-6.97952e-05
-4.42623e-06
-6.34876e-05
-1.47589e-05
-5.64805e-05
-2.20093e-05
-4.98223e-05
-2.62185e-05
-4.35688e-05
-2.81847e-05
-3.82219e-05
-2.83311e-05
-3.39648e-05
-2.71541e-05
-3.08736e-05
-2.51397e-05
-2.89027e-05
-2.27443e-05
-2.79194e-05
-2.03819e-05
-2.77805e-05
-1.83572e-05
-2.82979e-05
-1.685e-05
-2.91964e-05
-1.62613e-05
-3.02211e-05
-1.6458e-05
-3.11561e-05
-1.76097e-05
-3.17658e-05
-1.96733e-05
-3.18738e-05
-2.25186e-05
-3.13182e-05
-2.60665e-05
-2.9963e-05
-3.01629e-05
-2.76993e-05
-3.45364e-05
-2.44893e-05
-3.8984e-05
-2.03614e-05
-4.31658e-05
-1.5417e-05
-4.67096e-05
-9.89361e-06
-4.92242e-05
-4.08784e-06
-5.03085e-05
1.61584e-06
-4.98376e-05
6.85004e-06
-4.77872e-05
1.13179e-05
-4.44296e-05
1.47883e-05
-4.01387e-05
1.72175e-05
-3.53547e-05
1.85783e-05
-3.04051e-05
1.89658e-05
-2.57723e-05
1.8534e-05
-2.1663e-05
1.74535e-05
-1.82697e-05
1.5956e-05
-1.58088e-05
1.42672e-05
-1.44197e-05
1.26479e-05
-1.41855e-05
1.1447e-05
-1.52e-05
1.083e-05
-1.70797e-05
1.11228e-05
-1.98841e-05
1.25323e-05
-2.32582e-05
1.52512e-05
-2.69862e-05
1.92772e-05
-3.0535e-05
2.47079e-05
-3.36376e-05
3.13734e-05
-3.57114e-05
3.90135e-05
-3.62554e-05
4.72264e-05
-3.47108e-05
5.58223e-05
-3.05652e-05
6.36151e-05
-2.30035e-05
6.99961e-05
-1.22455e-05
7.35641e-05
2.82354e-06
7.26501e-05
2.18014e-05
6.54678e-05
4.41266e-05
4.98816e-05
6.89693e-05
2.47799e-05
9.25799e-05
-8.84658e-06
0.000109664
-4.68818e-05
0.000111473
-8.06554e-05
8.92133e-05
-0.000100414
4.25864e-05
-9.99987e-05
-1.71067e-05
-7.7247e-05
-6.69633e-05
-3.75186e-05
-8.13943e-05
4.58631e-06
-3.96455e-05
2.34021e-05
6.98637e-05
0.000210225
-1.90671e-05
0.000225749
1.01713e-05
3.93881e-05
5.50218e-05
-8.2316e-05
8.86287e-05
-0.000110239
0.000101403
-7.35248e-05
9.26669e-05
-2.16576e-06
6.5926e-05
7.41345e-05
2.7363e-05
0.000130668
-1.29353e-05
0.00015311
-4.89801e-05
0.000146538
-7.4785e-05
0.000120342
-8.94056e-05
8.67101e-05
-9.49288e-05
5.41111e-05
-9.34733e-05
2.61392e-05
-8.7424e-05
3.80917e-06
-7.89121e-05
-1.29356e-05
-6.92227e-05
-2.4446e-05
-5.95563e-05
-3.16738e-05
-5.0305e-05
-3.54686e-05
-4.21094e-05
-3.63798e-05
-3.53351e-05
-3.51053e-05
-3.01361e-05
-3.23533e-05
-2.65794e-05
-2.86968e-05
-2.45348e-05
-2.47894e-05
-2.38088e-05
-2.11082e-05
-2.42347e-05
-1.79312e-05
-2.53517e-05
-1.57326e-05
-2.70686e-05
-1.45438e-05
-2.89312e-05
-1.45946e-05
-3.06368e-05
-1.59036e-05
-3.19589e-05
-1.83507e-05
-3.26705e-05
-2.18067e-05
-3.25454e-05
-2.61914e-05
-3.15248e-05
-3.11834e-05
-2.93465e-05
-3.67148e-05
-2.60529e-05
-4.2278e-05
-2.16071e-05
-4.76119e-05
-1.61643e-05
-5.21526e-05
-1.00095e-05
-5.53794e-05
-3.49602e-06
-5.68223e-05
2.88319e-06
-5.62171e-05
8.67206e-06
-5.35764e-05
1.35261e-05
-4.92839e-05
1.71512e-05
-4.3764e-05
1.94432e-05
-3.76469e-05
2.04892e-05
-3.14512e-05
2.03759e-05
-2.56591e-05
1.92158e-05
-2.05028e-05
1.72937e-05
-1.63476e-05
1.48596e-05
-1.33746e-05
1.21855e-05
-1.17453e-05
9.57312e-06
-1.15729e-05
7.40099e-06
-1.30277e-05
6.07826e-06
-1.57569e-05
5.79703e-06
-1.9603e-05
7.00423e-06
-2.44657e-05
9.8685e-06
-2.98507e-05
1.45817e-05
-3.52482e-05
2.10234e-05
-4.00792e-05
2.93673e-05
-4.4055e-05
3.92077e-05
-4.60956e-05
5.02791e-05
-4.57823e-05
6.17559e-05
-4.20424e-05
7.3372e-05
-3.46203e-05
8.35185e-05
-2.23926e-05
9.11781e-05
-4.83648e-06
9.35737e-05
1.94051e-05
8.86075e-05
4.9092e-05
7.41343e-05
8.34414e-05
4.80088e-05
0.000118705
1.18722e-05
0.000145801
-2.87148e-05
0.000152061
-6.63666e-05
0.000126865
-9.24062e-05
6.86244e-05
-0.000100806
-8.70816e-06
-8.78186e-05
-7.99499e-05
-5.40097e-05
-0.000115203
-9.05145e-06
-8.46037e-05
1.98186e-05
4.09911e-05
0.000230045
-1.79981e-05
0.000243749
8.18683e-06
1.32037e-05
3.73844e-05
-0.000111514
4.99048e-05
-0.000122759
4.49128e-05
-6.85318e-05
2.65031e-05
1.62458e-05
-1.41997e-06
0.000102059
-3.44175e-05
0.000163667
-6.88714e-05
0.000187564
-9.70124e-05
0.000174679
-0.000115456
0.000138786
-0.000123238
9.44927e-05
-0.000122239
5.31119e-05
-0.000114744
1.86424e-05
-0.000102805
-8.13247e-06
-8.93454e-05
-2.63981e-05
-7.55824e-05
-3.82119e-05
-6.20159e-05
-4.52429e-05
-4.97646e-05
-4.77221e-05
-3.92686e-05
-4.68776e-05
-3.08913e-05
-4.34841e-05
-2.4757e-05
-3.84886e-05
-2.07129e-05
-3.27413e-05
-1.87195e-05
-2.67826e-05
-1.84956e-05
-2.13314e-05
-1.96532e-05
-1.67729e-05
-2.17279e-05
-1.36572e-05
-2.44716e-05
-1.17996e-05
-2.73343e-05
-1.17315e-05
-3.0037e-05
-1.32006e-05
-3.21788e-05
-1.62089e-05
-3.35533e-05
-2.04325e-05
-3.39793e-05
-2.57658e-05
-3.32141e-05
-3.19491e-05
-3.118e-05
-3.87494e-05
-2.77222e-05
-4.57363e-05
-2.29123e-05
-5.24223e-05
-1.69007e-05
-5.81646e-05
-1.00199e-05
-6.22604e-05
-2.72595e-06
-6.41164e-05
4.40602e-06
-6.33493e-05
1.08209e-05
-5.99914e-05
1.60635e-05
-5.45267e-05
1.98686e-05
-4.75693e-05
2.20999e-05
-3.98784e-05
2.27762e-05
-3.21276e-05
2.19954e-05
-2.48786e-05
2.006e-05
-1.85675e-05
1.71234e-05
-1.34111e-05
1.35149e-05
-9.76595e-06
9.55145e-06
-7.78174e-06
5.7912e-06
-7.81241e-06
2.38945e-06
-9.62583e-06
1.16557e-07
-1.34842e-05
-7.64931e-07
-1.87219e-05
2.06751e-08
-2.52518e-05
2.87539e-06
-3.2706e-05
8.00782e-06
-4.03811e-05
1.57442e-05
-4.78157e-05
2.58358e-05
-5.41466e-05
3.8406e-05
-5.86657e-05
5.28584e-05
-6.02347e-05
6.86734e-05
-5.78575e-05
8.47349e-05
-5.06819e-05
0.000100506
-3.81635e-05
0.000113732
-1.80629e-05
0.000122891
1.02454e-05
0.000124952
4.70298e-05
0.000117548
9.08454e-05
9.94775e-05
0.000136775
7.1517e-05
0.000173761
3.78468e-05
0.000185732
4.96636e-06
0.000159744
-2.30673e-05
9.66564e-05
-4.2186e-05
1.04113e-05
-4.81255e-05
-7.40089e-05
-3.60235e-05
-0.000127306
-6.87218e-06
-0.000113755
1.8736e-05
1.53831e-05
0.000248782
-2.48431e-05
0.000268592
-2.05657e-05
8.92583e-06
-2.53945e-05
-0.000106686
-4.44313e-05
-0.000103722
-7.12407e-05
-4.17212e-05
-9.92033e-05
4.42096e-05
-0.000124919
0.000127775
-0.000146307
0.000185056
-0.00016329
0.000204547
-0.000173379
0.000184768
-0.000175635
0.00014104
-0.000170266
8.91236e-05
-0.000157858
4.07034e-05
-0.00014059
1.37563e-06
-0.000121186
-2.7535e-05
-0.000100938
-4.66455e-05
-8.1387e-05
-5.77618e-05
-6.35424e-05
-6.30872e-05
-4.78447e-05
-6.34198e-05
-3.48216e-05
-5.99008e-05
-2.44573e-05
-5.38485e-05
-1.7199e-05
-4.57469e-05
-1.28203e-05
-3.712e-05
-1.10476e-05
-2.85552e-05
-1.16096e-05
-2.07691e-05
-1.38354e-05
-1.45466e-05
-1.72653e-05
-1.02267e-05
-2.12252e-05
-7.83927e-06
-2.53149e-05
-7.64171e-06
-2.91718e-05
-9.34349e-06
-3.23041e-05
-1.30764e-05
-3.44292e-05
-1.83073e-05
-3.53604e-05
-2.48345e-05
-3.48911e-05
-3.24184e-05
-3.29062e-05
-4.07342e-05
-2.92822e-05
-4.93602e-05
-2.40924e-05
-5.76121e-05
-1.74973e-05
-6.47597e-05
-9.86971e-06
-6.9888e-05
-1.76822e-06
-7.2218e-05
6.14057e-06
-7.12583e-05
1.32088e-05
-6.70599e-05
1.889e-05
-6.02081e-05
2.2862e-05
-5.15414e-05
2.49753e-05
-4.1992e-05
2.52389e-05
-3.23914e-05
2.38116e-05
-2.34515e-05
2.09022e-05
-1.56581e-05
1.67933e-05
-9.30212e-06
1.17781e-05
-4.75065e-06
6.4274e-06
-2.43095e-06
1.08943e-06
-2.47442e-06
-3.65218e-06
-4.88436e-06
-7.39401e-06
-9.74273e-06
-9.52127e-06
-1.65953e-05
-9.48226e-06
-2.52916e-05
-6.80555e-06
-3.53835e-05
-9.82643e-07
-4.62045e-05
8.06047e-06
-5.68591e-05
2.0407e-05
-6.6493e-05
3.59641e-05
-7.42224e-05
5.44169e-05
-7.86871e-05
7.51862e-05
-7.86262e-05
9.75183e-05
-7.30136e-05
0.000120178
-6.08234e-05
0.000142047
-3.99319e-05
0.000161245
-8.95318e-06
0.000175029
3.32444e-05
0.000181561
8.43136e-05
0.000179716
0.000138619
0.000170342
0.000183136
0.000154229
0.000201843
0.000132124
0.000181847
0.000105705
0.000123076
7.54574e-05
4.06609e-05
4.66118e-05
-4.51643e-05
2.59758e-05
-0.000106672
2.13551e-05
-0.000109137
2.60001e-05
1.07405e-05
0.000274778
-4.26071e-05
0.000311198
-7.61414e-05
4.24593e-05
-0.000123506
-5.93213e-05
-0.00017767
-4.95569e-05
-0.000226567
7.17537e-06
-0.000263055
8.06986e-05
-0.000283785
0.000148505
-0.000290056
0.000191328
-0.000284711
0.000199203
-0.000272133
0.000172193
-0.000253303
0.000122213
-0.000229335
6.51573e-05
-0.000201787
1.31569e-05
-0.000171862
-2.85486e-05
-0.000142685
-5.67123e-05
-0.000114396
-7.49347e-05
-8.79978e-05
-8.41596e-05
-6.4662e-05
-8.6423e-05
-4.50109e-05
-8.30709e-05
-2.88712e-05
-7.60401e-05
-1.67137e-05
-6.60054e-05
-8.21005e-06
-5.42497e-05
-3.58866e-06
-4.17403e-05
-2.29586e-06
-2.9847e-05
-3.89317e-06
-1.9171e-05
-7.41518e-06
-1.10243e-05
-1.24191e-05
-5.22293e-06
-1.78873e-05
-2.37146e-06
-2.35133e-05
-2.01618e-06
-2.86318e-05
-4.22572e-06
-3.27784e-05
-8.93065e-06
-3.56421e-05
-1.54444e-05
-3.70312e-05
-2.34461e-05
-3.6816e-05
-3.26341e-05
-3.4776e-05
-4.27748e-05
-3.09183e-05
-5.32181e-05
-2.52692e-05
-6.32615e-05
-1.80325e-05
-7.19965e-05
-9.60694e-06
-7.83136e-05
-6.12595e-07
-8.12123e-05
8.15125e-06
-8.0022e-05
1.594e-05
-7.48485e-05
2.21235e-05
-6.63915e-05
2.63246e-05
-5.57424e-05
2.8334e-05
-4.40014e-05
2.81893e-05
-3.22467e-05
2.60659e-05
-2.13281e-05
2.21229e-05
-1.17153e-05
1.66459e-05
-3.82528e-06
1.01498e-05
1.74529e-06
3.11799e-06
4.60083e-06
-4.03915e-06
4.68265e-06
-1.05054e-05
1.58173e-06
-1.59981e-05
-4.25038e-06
-1.94996e-05
-1.30944e-05
-2.03398e-05
-2.44523e-05
-1.79578e-05
-3.77665e-05
-1.17241e-05
-5.24391e-05
-1.31435e-06
-6.72695e-05
1.35502e-05
-8.13579e-05
3.25999e-05
-9.32722e-05
5.58208e-05
-0.000101908
8.26916e-05
-0.000105496
0.00011251
-0.000102831
0.000143952
-9.22649e-05
0.000175997
-7.19768e-05
0.000207975
-4.09318e-05
0.000237594
3.62607e-06
0.000262978
5.89296e-05
0.000283082
0.000118515
0.0002965
0.000169717
0.000301181
0.00019716
0.00029356
0.000189468
0.000270549
0.000146088
0.000231644
7.95657e-05
0.000179908
6.57017e-06
0.00012389
-5.06533e-05
7.58837e-05
-6.11293e-05
4.27532e-05
4.38702e-05
0.000317533
-7.05891e-05
0.000381786
-0.00014844
0.000120309
-0.000240423
3.26606e-05
-0.000326671
3.66908e-05
-0.000393952
7.44563e-05
-0.000435811
0.000122557
-0.000450956
0.000163651
-0.000443456
0.000183826
-0.000419043
0.000174788
-0.000384084
0.000137232
-0.000343379
8.15052e-05
-0.00029963
2.14056e-05
-0.0002548
-3.16756e-05
-0.000211423
-7.19256e-05
-0.000170025
-9.81114e-05
-0.000132077
-0.000112882
-9.81934e-05
-0.000118043
-6.86631e-05
-0.000115952
-4.3883e-05
-0.00010785
-2.42706e-05
-9.56513e-05
-9.92809e-06
-8.03469e-05
-5.07094e-07
-6.36702e-05
4.06258e-06
-4.63101e-05
4.7933e-06
-3.05783e-05
2.24001e-06
-1.66186e-05
-2.85451e-06
-5.93095e-06
-9.45309e-06
1.37439e-06
-1.68263e-05
5.00027e-06
-2.39191e-05
5.0753e-06
-3.01733e-05
2.02731e-06
-3.5287e-05
-3.81786e-06
-3.86563e-05
-1.20757e-05
-4.02976e-05
-2.18053e-05
-4.00452e-05
-3.28867e-05
-3.78314e-05
-4.49888e-05
-3.35545e-05
-5.7495e-05
-2.72526e-05
-6.95632e-05
-1.91228e-05
-8.01262e-05
-9.55251e-06
-8.78837e-05
7.43627e-07
-9.15083e-05
1.08385e-05
-9.01167e-05
1.97354e-05
-8.37453e-05
2.66907e-05
-7.33468e-05
3.12851e-05
-6.03368e-05
3.33266e-05
-4.6043e-05
3.28791e-05
-3.17993e-05
3.01231e-05
-1.85723e-05
2.53361e-05
-6.92851e-06
1.8529e-05
2.98143e-06
1.06681e-05
9.60581e-06
1.83537e-06
1.34331e-05
-7.22866e-06
1.37462e-05
-1.5965e-05
1.03174e-05
-2.30727e-05
2.85659e-06
-2.81223e-05
-8.04581e-06
-2.98301e-05
-2.27457e-05
-2.76931e-05
-3.99046e-05
-2.09896e-05
-5.91437e-05
-9.02861e-06
-7.92314e-05
8.53574e-06
-9.89227e-05
3.18481e-05
-0.000116585
6.04643e-05
-0.000130523
9.40075e-05
-0.000139039
0.000131998
-0.000140821
0.000173746
-0.000134012
0.000218358
-0.000116589
0.000264546
-8.71193e-05
0.000311526
-4.33538e-05
0.000356982
1.34743e-05
0.000398958
7.65391e-05
0.000434202
0.000134473
0.000457923
0.000173438
0.000464051
0.000183341
0.000446166
0.000163973
0.00040122
0.00012451
0.00033049
7.72981e-05
0.000241678
3.81593e-05
0.000148506
3.20439e-05
7.05171e-05
0.000121856
0.000388051
-0.000104339
0.000486124
-0.000229448
0.000245418
-0.000360961
0.000164174
-0.000476292
0.000152021
-0.000559048
0.000157212
-0.000604396
0.000167902
-0.000615031
0.000174283
-0.000597463
0.000166256
-0.000558741
0.000136066
-0.000506849
8.53397e-05
-0.000447957
2.26145e-05
-0.000385717
-4.08327e-05
-0.000324415
-9.29764e-05
-0.000265328
-0.000131011
-0.000210501
-0.000152937
-0.000161358
-0.000162023
-0.000118171
-0.000161228
-8.0816e-05
-0.000153307
-5.03669e-05
-0.000138298
-2.65049e-05
-0.000119513
-9.48551e-06
-9.73663e-05
9.67581e-07
-7.41234e-05
6.09016e-06
-5.14328e-05
6.14512e-06
-3.06335e-05
2.35281e-06
-1.28266e-05
-4.32325e-06
7.44594e-07
-1.29355e-05
9.98593e-06
-2.21376e-05
1.42017e-05
-3.07867e-05
1.37238e-05
-3.79275e-05
9.16737e-06
-4.35196e-05
1.77367e-06
-4.67801e-05
-8.81563e-06
-4.80447e-05
-2.05412e-05
-4.73386e-05
-3.35931e-05
-4.43776e-05
-4.79501e-05
-3.90999e-05
-6.27729e-05
-3.15006e-05
-7.71628e-05
-2.16929e-05
-8.9934e-05
-1.0064e-05
-9.95126e-05
2.56999e-06
-0.000104142
1.49661e-05
-0.000102513
2.58716e-05
-9.46507e-05
3.43817e-05
-8.18569e-05
3.99358e-05
-6.58908e-05
4.24442e-05
-4.85515e-05
4.20353e-05
-3.13905e-05
3.90205e-05
-1.55579e-05
3.36469e-05
-1.55538e-06
2.63801e-05
1.02476e-05
1.73148e-05