/*--------------------------------*- C++ -*----------------------------------*\
| =========                 |                                                 |
| \\      /  F ield         | OpenFOAM: The Open Source CFD Toolbox           |
|  \\    /   O peration     | Version:  2412                                  |
|   \\  /    A nd           | Website:  www.openfoam.com                      |
|    \\/     M anipulation  |                                                 |
\*---------------------------------------------------------------------------*/
FoamFile
{
    version     2.0;
    format      ascii;
    arch        "LSB;label=32;scalar=64";
    class       volVectorField;
    location    "8.95";
    object      U;
}
// * * * * * * * * * * * * * * * * * * * * * * * * * * * * * * * * * * * * * //

dimensions      [0 1 -1 0 0 0 0];

internalField   nonuniform List<vector> 
6400
(
(-0.00224477 0.00221582 0)
(-0.00638013 0.00210659 0)
(-0.00982938 0.00192521 0)
(-0.0128028 0.0017389 0)
(-0.0153215 0.00156199 0)
(-0.0175043 0.00140119 0)
(-0.0194627 0.00124825 0)
(-0.0212636 0.00109599 0)
(-0.0229295 0.000930881 0)
(-0.024429 0.000753488 0)
(-0.0257181 0.000569893 0)
(-0.0267465 0.000373595 0)
(-0.0274799 0.000186197 0)
(-0.0279085 4.1001e-06 0)
(-0.0280341 -0.00016603 0)
(-0.0278727 -0.000316635 0)
(-0.0274499 -0.000442618 0)
(-0.0268048 -0.000545308 0)
(-0.0259842 -0.000626056 0)
(-0.0250222 -0.000681756 0)
(-0.0239524 -0.000719016 0)
(-0.022813 -0.000741127 0)
(-0.0216297 -0.000748226 0)
(-0.020428 -0.000745994 0)
(-0.0192166 -0.000730993 0)
(-0.0180047 -0.000715076 0)
(-0.0168069 -0.00069799 0)
(-0.0156227 -0.00067867 0)
(-0.0144449 -0.000658071 0)
(-0.013273 -0.0006437 0)
(-0.0121104 -0.000631667 0)
(-0.0109406 -0.000620943 0)
(-0.00976205 -0.000615023 0)
(-0.00857345 -0.000608874 0)
(-0.00736771 -0.000607809 0)
(-0.00614612 -0.00060744 0)
(-0.00490649 -0.000606916 0)
(-0.00365213 -0.000606933 0)
(-0.00238703 -0.000605846 0)
(-0.00111713 -0.000604192 0)
(0.000151486 -0.000602074 0)
(0.00141118 -0.000598483 0)
(0.00265445 -0.000593818 0)
(0.00387695 -0.000588774 0)
(0.00507878 -0.000585301 0)
(0.0062581 -0.000585533 0)
(0.00741619 -0.00058719 0)
(0.00855987 -0.000591246 0)
(0.00969716 -0.000598909 0)
(0.0108266 -0.000614558 0)
(0.011958 -0.000630312 0)
(0.0131078 -0.000650667 0)
(0.0142722 -0.000674239 0)
(0.0154585 -0.000700995 0)
(0.0166746 -0.000727693 0)
(0.0179161 -0.000751124 0)
(0.0191778 -0.000767975 0)
(0.0204463 -0.000778796 0)
(0.0217045 -0.000777076 0)
(0.0229312 -0.000762843 0)
(0.0240965 -0.00072543 0)
(0.0251648 -0.000672523 0)
(0.0260936 -0.000595392 0)
(0.0268412 -0.000490875 0)
(0.027364 -0.000361727 0)
(0.0276203 -0.000207108 0)
(0.027581 -3.07846e-05 0)
(0.0272346 0.000155082 0)
(0.0265698 0.000350978 0)
(0.0255991 0.000549055 0)
(0.0243636 0.000741877 0)
(0.0229107 0.000923858 0)
(0.0212889 0.00109119 0)
(0.0195269 0.00124625 0)
(0.0175985 0.00140385 0)
(0.0154306 0.00156687 0)
(0.0129161 0.00175272 0)
(0.00993511 0.0019425 0)
(0.0064575 0.00212604 0)
(0.00227233 0.00224018 0)
(-0.00231571 0.00650085 0)
(-0.0061543 0.0056888 0)
(-0.00876745 0.00465416 0)
(-0.0106105 0.00381092 0)
(-0.011815 0.00317364 0)
(-0.0126762 0.00276932 0)
(-0.0134489 0.0025408 0)
(-0.0143035 0.00241124 0)
(-0.0153118 0.0022714 0)
(-0.016435 0.00206246 0)
(-0.0176106 0.00177782 0)
(-0.0187184 0.00141542 0)
(-0.0196774 0.000998641 0)
(-0.0204561 0.00056082 0)
(-0.0210045 0.000125621 0)
(-0.0213144 -0.000278923 0)
(-0.0213976 -0.000638558 0)
(-0.0212773 -0.000940489 0)
(-0.0209847 -0.00118589 0)
(-0.0205481 -0.00137374 0)
(-0.0199982 -0.00151362 0)
(-0.0193614 -0.00160909 0)
(-0.0186609 -0.00166883 0)
(-0.0179151 -0.00170164 0)
(-0.0171318 -0.00171019 0)
(-0.0163215 -0.00171159 0)
(-0.0154908 -0.0017098 0)
(-0.0146403 -0.00170677 0)
(-0.0137649 -0.00170412 0)
(-0.0128595 -0.00171395 0)
(-0.0119247 -0.00173269 0)
(-0.0109445 -0.00175561 0)
(-0.00991474 -0.00178895 0)
(-0.00884067 -0.00182302 0)
(-0.00771534 -0.00186312 0)
(-0.00653707 -0.00190603 0)
(-0.00531158 -0.0019431 0)
(-0.00404509 -0.00197259 0)
(-0.00274583 -0.00199087 0)
(-0.00142972 -0.00199657 0)
(-0.000112377 -0.00198867 0)
(0.00119015 -0.00196623 0)
(0.00246419 -0.00193078 0)
(0.00369797 -0.00188779 0)
(0.00488255 -0.00184103 0)
(0.00601371 -0.00179725 0)
(0.00709042 -0.0017551 0)
(0.00811597 -0.00171946 0)
(0.00909567 -0.00168981 0)
(0.0100314 -0.00167668 0)
(0.0109341 -0.00167122 0)
(0.011819 -0.00167859 0)
(0.0126803 -0.00169864 0)
(0.0135297 -0.00172606 0)
(0.014382 -0.00175587 0)
(0.0152304 -0.00177865 0)
(0.0160686 -0.00178767 0)
(0.0168879 -0.00177763 0)
(0.0176756 -0.00173843 0)
(0.018419 -0.00166319 0)
(0.0190837 -0.00153816 0)
(0.019638 -0.00135702 0)
(0.0200588 -0.00111128 0)
(0.0203029 -0.000802133 0)
(0.0203399 -0.000434519 0)
(0.020147 -2.20244e-05 0)
(0.0197091 0.000421182 0)
(0.0190416 0.000868139 0)
(0.01817 0.00130617 0)
(0.0171448 0.00168136 0)
(0.0160616 0.00198217 0)
(0.0150202 0.00219226 0)
(0.0141014 0.00233586 0)
(0.0133387 0.00247578 0)
(0.012644 0.00271573 0)
(0.0118446 0.00313706 0)
(0.0106815 0.00381157 0)
(0.00885541 0.00467643 0)
(0.00623646 0.00574423 0)
(0.00234853 0.00657441 0)
(-0.00236319 0.0105928 0)
(-0.00593717 0.00864351 0)
(-0.00800715 0.00651404 0)
(-0.00911295 0.00485325 0)
(-0.00946938 0.003687 0)
(-0.00948916 0.00308209 0)
(-0.00950326 0.00292624 0)
(-0.00974358 0.00299679 0)
(-0.010316 0.00308727 0)
(-0.0111531 0.00302841 0)
(-0.0121654 0.0028117 0)
(-0.0132275 0.00242825 0)
(-0.0142144 0.00187604 0)
(-0.0150649 0.00126719 0)
(-0.0157274 0.000630442 0)
(-0.0161826 1.7175e-05 0)
(-0.0164326 -0.000538605 0)
(-0.0164928 -0.00101562 0)
(-0.0164006 -0.00140696 0)
(-0.0161833 -0.00171163 0)
(-0.0158652 -0.00194423 0)
(-0.015474 -0.00210974 0)
(-0.0150313 -0.00222085 0)
(-0.0145504 -0.00229034 0)
(-0.0140412 -0.00232944 0)
(-0.0135102 -0.0023531 0)
(-0.0129588 -0.00237367 0)
(-0.0123835 -0.00239468 0)
(-0.0117797 -0.00242176 0)
(-0.011139 -0.00246691 0)
(-0.010452 -0.00252834 0)
(-0.00970487 -0.00260328 0)
(-0.00889286 -0.00269077 0)
(-0.0080188 -0.00278272 0)
(-0.00708092 -0.00288028 0)
(-0.00607128 -0.00297987 0)
(-0.00499355 -0.00307123 0)
(-0.00386117 -0.00314413 0)
(-0.00268452 -0.00319082 0)
(-0.00148362 -0.00320866 0)
(-0.000280382 -0.00319345 0)
(0.000904564 -0.00314612 0)
(0.00205197 -0.00307008 0)
(0.00314793 -0.00297595 0)
(0.0041783 -0.00287184 0)
(0.00513715 -0.00276386 0)
(0.00602338 -0.00266098 0)
(0.00684068 -0.00256869 0)
(0.00759334 -0.00248537 0)
(0.00828589 -0.00242616 0)
(0.00893475 -0.00238738 0)
(0.00955197 -0.00237331 0)
(0.0101397 -0.00238352 0)
(0.0107131 -0.00240296 0)
(0.011287 -0.00242785 0)
(0.0118588 -0.00244392 0)
(0.0124267 -0.00244322 0)
(0.0129849 -0.00241138 0)
(0.0135223 -0.00233735 0)
(0.0140247 -0.00220603 0)
(0.0144672 -0.002003 0)
(0.0148206 -0.00170858 0)
(0.0150534 -0.00131191 0)
(0.0151294 -0.000827432 0)
(0.0150143 -0.000255124 0)
(0.0146858 0.00037136 0)
(0.0141408 0.00101794 0)
(0.0134134 0.00165168 0)
(0.0125218 0.00221078 0)
(0.0115503 0.00262369 0)
(0.0106356 0.00286755 0)
(0.00989061 0.00290471 0)
(0.00942878 0.00282013 0)
(0.00929696 0.00276863 0)
(0.00938561 0.00294586 0)
(0.009469 0.00358457 0)
(0.00917335 0.00480946 0)
(0.00809177 0.00652949 0)
(0.00601445 0.00872534 0)
(0.0023872 0.0107189 0)
(-0.0025135 0.0147843 0)
(-0.00612374 0.0114123 0)
(-0.00787587 0.00794087 0)
(-0.00843711 0.00529168 0)
(-0.00813568 0.00354867 0)
(-0.00751625 0.00278565 0)
(-0.00705343 0.00281738 0)
(-0.00699907 0.00323397 0)
(-0.00743624 0.00368459 0)
(-0.00822589 0.0038902 0)
(-0.00922094 0.00380753 0)
(-0.0103254 0.00342238 0)
(-0.011336 0.0027904 0)
(-0.0121766 0.00201718 0)
(-0.0128357 0.00118341 0)
(-0.0132775 0.000367801 0)
(-0.0135177 -0.000371958 0)
(-0.0135786 -0.00100912 0)
(-0.0134957 -0.00152908 0)
(-0.0133107 -0.00194028 0)
(-0.013053 -0.00224551 0)
(-0.012741 -0.00246387 0)
(-0.012401 -0.00260844 0)
(-0.0120462 -0.00270019 0)
(-0.0116829 -0.00275484 0)
(-0.0113176 -0.00279141 0)
(-0.0109434 -0.00282971 0)
(-0.0105525 -0.00287406 0)
(-0.0101407 -0.00293345 0)
(-0.00969346 -0.00302372 0)
(-0.0091985 -0.00313755 0)
(-0.00863868 -0.00327733 0)
(-0.00800567 -0.00343489 0)
(-0.00729961 -0.00360051 0)
(-0.00651416 -0.00377678 0)
(-0.00564471 -0.0039506 0)
(-0.00469516 -0.00411125 0)
(-0.00367837 -0.00424281 0)
(-0.00260981 -0.00432779 0)
(-0.00151069 -0.00436176 0)
(-0.000406744 -0.00433843 0)
(0.000675766 -0.00425935 0)
(0.00171241 -0.00413131 0)
(0.00268448 -0.00397036 0)
(0.00358017 -0.00379082 0)
(0.00439083 -0.0036023 0)
(0.00511092 -0.003419 0)
(0.00575134 -0.00325163 0)
(0.00631406 -0.00310114 0)
(0.00680723 -0.00298293 0)
(0.00725376 -0.00290107 0)
(0.00766655 -0.00286053 0)
(0.00805921 -0.00285486 0)
(0.00844772 -0.00287052 0)
(0.00884787 -0.00289885 0)
(0.00926106 -0.00292314 0)
(0.00968893 -0.00292488 0)
(0.0101314 -0.00288984 0)
(0.0105764 -0.00279977 0)
(0.011013 -0.00263237 0)
(0.0114146 -0.0023687 0)
(0.0117555 -0.00197829 0)
(0.0119965 -0.00145569 0)
(0.0120962 -0.000803607 0)
(0.0120138 -4.36586e-05 0)
(0.0117062 0.000796389 0)
(0.0111788 0.00164648 0)
(0.0104493 0.00244456 0)
(0.00953684 0.00310905 0)
(0.00856057 0.00352392 0)
(0.00763978 0.00362546 0)
(0.00693 0.00338985 0)
(0.00662989 0.00294587 0)
(0.00680288 0.00254586 0)
(0.00738215 0.00255134 0)
(0.00812583 0.00335821 0)
(0.00851469 0.00518391 0)
(0.00798025 0.00795218 0)
(0.00621147 0.0115212 0)
(0.00254251 0.0149736 0)
(-0.00274551 0.0192419 0)
(-0.00650882 0.0141064 0)
(-0.00788643 0.0089717 0)
(-0.00772892 0.00513562 0)
(-0.00662922 0.00277827 0)
(-0.0053888 0.00201051 0)
(-0.00461684 0.00242555 0)
(-0.00457281 0.00337943 0)
(-0.00523013 0.00431813 0)
(-0.00630493 0.00486301 0)
(-0.00755171 0.0049063 0)
(-0.00882284 0.00447749 0)
(-0.00991894 0.00371509 0)
(-0.0107742 0.00273302 0)
(-0.0113713 0.00167686 0)
(-0.0117137 0.000644797 0)
(-0.0118369 -0.000284385 0)
(-0.011777 -0.00107206 0)
(-0.0115931 -0.00170585 0)
(-0.0113253 -0.00219717 0)
(-0.0110046 -0.00254814 0)
(-0.0106667 -0.00278706 0)
(-0.0103334 -0.00293694 0)
(-0.0100173 -0.00302145 0)
(-0.00972339 -0.00306651 0)
(-0.00945631 -0.00309702 0)
(-0.00920093 -0.00312991 0)
(-0.00894366 -0.0031891 0)
(-0.00868263 -0.00327461 0)
(-0.00839216 -0.00340058 0)
(-0.00805407 -0.00357093 0)
(-0.00765768 -0.00377688 0)
(-0.00718723 -0.00401164 0)
(-0.00663216 -0.0042636 0)
(-0.0059818 -0.00452807 0)
(-0.00523587 -0.00479164 0)
(-0.00440249 -0.00503235 0)
(-0.00349051 -0.00522966 0)
(-0.00251669 -0.00536026 0)
(-0.0015066 -0.00541229 0)
(-0.000489018 -0.00537964 0)
(0.000503944 -0.00526234 0)
(0.00144122 -0.00507615 0)
(0.00230144 -0.00483672 0)
(0.00307252 -0.00456561 0)
(0.00374642 -0.00428436 0)
(0.00431483 -0.00400885 0)
(0.00479017 -0.00375438 0)
(0.00518116 -0.00353378 0)
(0.00549812 -0.00335311 0)
(0.00576855 -0.00322897 0)
(0.00601233 -0.00316617 0)
(0.00624927 -0.00315694 0)
(0.00649768 -0.00318465 0)
(0.0067779 -0.00323847 0)
(0.00710127 -0.00329611 0)
(0.00747108 -0.0033295 0)
(0.00788829 -0.00332016 0)
(0.00834495 -0.00324684 0)
(0.00882329 -0.0030762 0)
(0.009305 -0.00278324 0)
(0.00975246 -0.00231862 0)
(0.0101192 -0.00168592 0)
(0.0103546 -0.000878133 0)
(0.0104075 8.35347e-05 0)
(0.0102164 0.0011474 0)
(0.00974975 0.00223646 0)
(0.00903271 0.00325813 0)
(0.00803695 0.00405853 0)
(0.00686036 0.00453312 0)
(0.0056703 0.0044863 0)
(0.00467119 0.00391896 0)
(0.00414897 0.00299091 0)
(0.0043081 0.00201394 0)
(0.00519475 0.00161954 0)
(0.00657556 0.00249439 0)
(0.00781243 0.0049592 0)
(0.00801474 0.00896379 0)
(0.00662049 0.0142517 0)
(0.0027889 0.0194898 0)
(-0.00306564 0.0240692 0)
(-0.00687784 0.0166362 0)
(-0.00740693 0.00928956 0)
(-0.00598481 0.00402566 0)
(-0.00366584 0.00123337 0)
(-0.00172225 0.000833449 0)
(-0.000969643 0.00204264 0)
(-0.00146619 0.00384194 0)
(-0.00290635 0.00540212 0)
(-0.00476822 0.0062793 0)
(-0.00664322 0.00634989 0)
(-0.00832763 0.00574645 0)
(-0.00963281 0.00470644 0)
(-0.0105322 0.00341872 0)
(-0.0110601 0.00206773 0)
(-0.0112588 0.000777459 0)
(-0.0111925 -0.000360592 0)
(-0.0109346 -0.00129508 0)
(-0.0105605 -0.00203647 0)
(-0.0101238 -0.00257313 0)
(-0.00967012 -0.00293797 0)
(-0.00923846 -0.00316149 0)
(-0.0088495 -0.00327769 0)
(-0.00851597 -0.00332147 0)
(-0.00824427 -0.00332483 0)
(-0.00802761 -0.00332159 0)
(-0.00785623 -0.00332876 0)
(-0.007706 -0.00337769 0)
(-0.00755686 -0.00347984 0)
(-0.00739752 -0.00363409 0)
(-0.00719708 -0.00385255 0)
(-0.00693357 -0.00412792 0)
(-0.00659554 -0.00444851 0)
(-0.00616184 -0.0047972 0)
(-0.00561809 -0.00516318 0)
(-0.00496713 -0.00552652 0)
(-0.00421528 -0.00585897 0)
(-0.00336939 -0.00613013 0)
(-0.00244904 -0.00631464 0)
(-0.0014857 -0.00638959 0)
(-0.000511166 -0.00634704 0)
(0.000431496 -0.00618729 0)
(0.00130821 -0.0059299 0)
(0.00209622 -0.00559957 0)
(0.00277431 -0.00522198 0)
(0.00333624 -0.00482852 0)
(0.00377892 -0.00444898 0)
(0.00411171 -0.0040966 0)
(0.00435398 -0.00379669 0)
(0.00452175 -0.00355781 0)
(0.00463837 -0.00339899 0)
(0.00473465 -0.00332465 0)
(0.00484269 -0.0033299 0)
(0.00498257 -0.00339502 0)
(0.0051785 -0.00350009 0)
(0.0054521 -0.00362082 0)
(0.00581121 -0.00372534 0)
(0.00626011 -0.00378346 0)
(0.00679185 -0.00376576 0)
(0.00738825 -0.00363006 0)
(0.00802923 -0.00333223 0)
(0.00866486 -0.00283099 0)
(0.00923501 -0.00209619 0)
(0.00969467 -0.00112751 0)
(0.00995499 4.57943e-05 0)
(0.00992488 0.00138474 0)
(0.00955952 0.00279748 0)
(0.00877305 0.00415278 0)
(0.00755685 0.00522897 0)
(0.005954 0.00588048 0)
(0.00407927 0.00582354 0)
(0.00228039 0.00494632 0)
(0.000915277 0.00335906 0)
(0.000471317 0.00153298 0)
(0.00140402 0.00031566 0)
(0.00352181 0.000818729 0)
(0.00599591 0.0037767 0)
(0.0075361 0.00925752 0)
(0.00700828 0.0168187 0)
(0.00311138 0.0243957 0)
(-0.00346307 0.0292322 0)
(-0.00692497 0.0185269 0)
(-0.00563883 0.00819546 0)
(-0.00190054 0.0014066 0)
(0.00217147 -0.00132006 0)
(0.00470497 -0.000527861 0)
(0.00494214 0.00225196 0)
(0.00312648 0.0053442 0)
(7.08117e-05 0.00761003 0)
(-0.0032791 0.0086533 0)
(-0.00628147 0.00847924 0)
(-0.00863912 0.00743708 0)
(-0.0102691 0.00587683 0)
(-0.0112574 0.00410486 0)
(-0.0116942 0.00232943 0)
(-0.0116932 0.000720366 0)
(-0.011365 -0.000643312 0)
(-0.0108437 -0.00174438 0)
(-0.01022 -0.00257347 0)
(-0.00955284 -0.00313019 0)
(-0.00891448 -0.00347184 0)
(-0.00834118 -0.0036383 0)
(-0.00785913 -0.00367657 0)
(-0.00747821 -0.00363565 0)
(-0.00720251 -0.00355985 0)
(-0.00701941 -0.00348728 0)
(-0.00690909 -0.00344685 0)
(-0.00685064 -0.00346549 0)
(-0.00680823 -0.00356772 0)
(-0.00675651 -0.00374766 0)
(-0.00667255 -0.00401135 0)
(-0.00652608 -0.00435751 0)
(-0.00629321 -0.00477102 0)
(-0.00595354 -0.00522785 0)
(-0.00548899 -0.00571141 0)
(-0.00489652 -0.00619246 0)
(-0.00418241 -0.00663389 0)
(-0.00335448 -0.00699665 0)
(-0.00243502 -0.00724706 0)
(-0.00146069 -0.00735215 0)
(-0.000473803 -0.00729857 0)
(0.000476059 -0.00708764 0)
(0.00134418 -0.00674127 0)
(0.00210238 -0.00629935 0)
(0.0027278 -0.00579483 0)
(0.00320754 -0.00527161 0)
(0.00354763 -0.00476779 0)
(0.00376175 -0.00430722 0)
(0.00387108 -0.00391706 0)
(0.00390139 -0.00361758 0)
(0.00388175 -0.0034283 0)
(0.00384716 -0.0033582 0)
(0.00383517 -0.00339378 0)
(0.00387925 -0.00351655 0)
(0.00400868 -0.0037053 0)
(0.00425018 -0.0039302 0)
(0.004622 -0.00414991 0)
(0.00513377 -0.00432426 0)
(0.00578127 -0.00440774 0)
(0.00654521 -0.00434793 0)
(0.00739517 -0.00408519 0)
(0.00828608 -0.00358248 0)
(0.00914809 -0.00276817 0)
(0.00988152 -0.00164371 0)
(0.0104074 -0.000210816 0)
(0.0106098 0.00148475 0)
(0.0103521 0.00335135 0)
(0.0094834 0.00520806 0)
(0.00790787 0.00685163 0)
(0.005586 0.00796052 0)
(0.00255578 0.00817373 0)
(-0.000819113 0.00715524 0)
(-0.00386302 0.00480884 0)
(-0.0056546 0.00164564 0)
(-0.00527007 -0.00118302 0)
(-0.00248928 -0.00194306 0)
(0.00182681 0.000998031 0)
(0.00571931 0.00807417 0)
(0.00705364 0.0187317 0)
(0.00351861 0.0296569 0)
(-0.00392099 0.0344899 0)
(-0.00621159 0.0188572 0)
(-0.0018577 0.00456983 0)
(0.00483922 -0.00349662 0)
(0.0106814 -0.00510408 0)
(0.0135026 -0.00170984 0)
(0.0126472 0.00382738 0)
(0.00879437 0.00881741 0)
(0.00339626 0.0117981 0)
(-0.00205813 0.0125967 0)
(-0.00658312 0.0116485 0)
(-0.00982572 0.00973188 0)
(-0.0118366 0.00729288 0)
(-0.01286 0.00476178 0)
(-0.0131192 0.00241369 0)
(-0.0128024 0.000385286 0)
(-0.0121408 -0.00125091 0)
(-0.0112873 -0.00250976 0)
(-0.0103255 -0.00337253 0)
(-0.00936878 -0.00392102 0)
(-0.00850093 -0.00419056 0)
(-0.00775132 -0.00424752 0)
(-0.00715137 -0.00415729 0)
(-0.0067122 -0.00398289 0)
(-0.00642878 -0.00378126 0)
(-0.00627685 -0.00360544 0)
(-0.00623326 -0.0034833 0)
(-0.00626842 -0.00346443 0)
(-0.00632975 -0.00354372 0)
(-0.00638803 -0.00374311 0)
(-0.0064168 -0.00406093 0)
(-0.0063763 -0.0044851 0)
(-0.00623721 -0.00500184 0)
(-0.0059747 -0.00558565 0)
(-0.00556884 -0.00620718 0)
(-0.00500804 -0.00682957 0)
(-0.004295 -0.00740498 0)
(-0.0034414 -0.00788289 0)
(-0.00247301 -0.00821494 0)
(-0.00143443 -0.00835994 0)
(-0.000380618 -0.00829357 0)
(0.000626759 -0.00801572 0)
(0.00153195 -0.00755988 0)
(0.00229833 -0.00697473 0)
(0.00289787 -0.0063161 0)
(0.00332036 -0.0056388 0)
(0.00357565 -0.00498715 0)
(0.00368077 -0.00439967 0)
(0.0036644 -0.00390931 0)
(0.00355808 -0.0035403 0)
(0.00339652 -0.00331917 0)
(0.00322999 -0.00326052 0)
(0.00310049 -0.00334747 0)
(0.00303716 -0.00355298 0)
(0.00308815 -0.00386236 0)
(0.00329832 -0.00423269 0)
(0.00368965 -0.00461863 0)
(0.00427857 -0.00496471 0)
(0.00506639 -0.00520648 0)
(0.00603439 -0.00528267 0)
(0.00713849 -0.00511693 0)
(0.00834653 -0.00463158 0)
(0.00957082 -0.00377838 0)
(0.0107 -0.00249273 0)
(0.011612 -0.000763591 0)
(0.012129 0.00137793 0)
(0.0120572 0.00386943 0)
(0.0111533 0.00652338 0)
(0.00918604 0.00911234 0)
(0.00592907 0.011176 0)
(0.00131653 0.0121873 0)
(-0.0042369 0.0114017 0)
(-0.00969484 0.00827825 0)
(-0.0135051 0.00306596 0)
(-0.0141698 -0.00261122 0)
(-0.0110733 -0.00600012 0)
(-0.00496792 -0.00416092 0)
(0.00192096 0.00430115 0)
(0.00636346 0.0190733 0)
(0.00398784 0.03502 0)
(-0.00437191 0.0394297 0)
(-0.0046101 0.0165672 0)
(0.00316133 -0.00244618 0)
(0.012114 -0.0109455 0)
(0.0186221 -0.009873 0)
(0.0208955 -0.00238355 0)
(0.0186381 0.00708793 0)
(0.0127618 0.0146499 0)
(0.0050949 0.0183728 0)
(-0.00240218 0.018423 0)
(-0.00831533 0.0161078 0)
(-0.0122736 0.0126615 0)
(-0.0145337 0.00886273 0)
(-0.015397 0.00529148 0)
(-0.0152787 0.00219637 0)
(-0.0145023 -0.000326474 0)
(-0.0133432 -0.00227056 0)
(-0.0120035 -0.00364733 0)
(-0.0106349 -0.00453305 0)
(-0.00934301 -0.00500788 0)
(-0.00818397 -0.00513631 0)
(-0.00722585 -0.00501485 0)
(-0.00649545 -0.00473029 0)
(-0.005995 -0.00436544 0)
(-0.00571483 -0.00398822 0)
(-0.0056097 -0.00366785 0)
(-0.00565515 -0.0034421 0)
(-0.0057987 -0.00335107 0)
(-0.00597799 -0.00340075 0)
(-0.00617231 -0.0036176 0)
(-0.00632414 -0.00399533 0)
(-0.00639373 -0.0045108 0)
(-0.00635063 -0.00515002 0)
(-0.00616148 -0.00588233 0)
(-0.00580058 -0.00667098 0)
(-0.00525289 -0.0074652 0)
(-0.00451763 -0.00820778 0)
(-0.0036059 -0.00882992 0)
(-0.00255096 -0.00926513 0)
(-0.00140536 -0.00945881 0)
(-0.000238451 -0.0093753 0)
(0.000868444 -0.00901429 0)
(0.00184718 -0.00842138 0)
(0.00264639 -0.00765982 0)
(0.00323622 -0.00680735 0)
(0.00361436 -0.00593778 0)
(0.00379098 -0.00510979 0)
(0.003785 -0.00437171 0)
(0.00363204 -0.00376265 0)
(0.00337526 -0.00331674 0)
(0.0030571 -0.00306256 0)
(0.00273433 -0.00301611 0)
(0.00245591 -0.00317541 0)
(0.00225967 -0.00350349 0)
(0.00221344 -0.00396142 0)
(0.00237363 -0.00452448 0)
(0.00277131 -0.00513816 0)
(0.00344237 -0.00571544 0)
(0.00439009 -0.00619235 0)
(0.00559552 -0.00647693 0)
(0.00702985 -0.00647642 0)
(0.00862465 -0.00607369 0)
(0.0103116 -0.00519265 0)
(0.0119602 -0.00376852 0)
(0.0134013 -0.001733 0)
(0.0144412 0.000933495 0)
(0.0147683 0.00423355 0)
(0.0140361 0.00800952 0)
(0.0118358 0.0120448 0)
(0.00780783 0.0157044 0)
(0.00176557 0.0181762 0)
(-0.00584113 0.018076 0)
(-0.0135451 0.0140782 0)
(-0.0192829 0.00617363 0)
(-0.0213115 -0.00354898 0)
(-0.0188243 -0.011052 0)
(-0.0121283 -0.0118482 0)
(-0.00303733 -0.00285087 0)
(0.00480624 0.0167816 0)
(0.00445373 0.0400675 0)
(-0.00470243 0.0436291 0)
(-0.00270694 0.0113359 0)
(0.00670699 -0.011974 0)
(0.0152137 -0.0192583 0)
(0.0200819 -0.0142078 0)
(0.0206123 -0.00195285 0)
(0.0170427 0.0117966 0)
(0.0101636 0.0221158 0)
(0.00159098 0.0264954 0)
(-0.00655192 0.0256338 0)
(-0.0128009 0.0214446 0)
(-0.016825 0.0158698 0)
(-0.0187361 0.01029 0)
(-0.018988 0.00541564 0)
(-0.0181684 0.00142534 0)
(-0.0166687 -0.00161 0)
(-0.0148252 -0.00382097 0)
(-0.0128802 -0.00530435 0)
(-0.0109853 -0.00614937 0)
(-0.00923939 -0.00645248 0)
(-0.00774282 -0.00634892 0)
(-0.00654878 -0.00596204 0)
(-0.00568072 -0.00539736 0)
(-0.0051308 -0.00476968 0)
(-0.00487356 -0.00416214 0)
(-0.00485125 -0.00364213 0)
(-0.00501226 -0.00328086 0)
(-0.00529684 -0.00309528 0)
(-0.00563974 -0.00312735 0)
(-0.00599938 -0.00336105 0)
(-0.00629875 -0.00379821 0)
(-0.00649321 -0.00442275 0)
(-0.00655449 -0.00520772 0)
(-0.0064419 -0.00611842 0)
(-0.00612334 -0.00710661 0)
(-0.00557865 -0.00811492 0)
(-0.00480442 -0.00906428 0)
(-0.0038111 -0.00986713 0)
(-0.00264101 -0.0104338 0)
(-0.00135868 -0.0106868 0)
(-5.06123e-05 -0.0105794 0)
(0.00118144 -0.010113 0)
(0.00225555 -0.00934729 0)
(0.00310823 -0.00837286 0)
(0.00369955 -0.00728236 0)
(0.00403144 -0.00617394 0)
(0.00412093 -0.005127 0)
(0.00399326 -0.00420934 0)
(0.0036855 -0.00346015 0)
(0.00325031 -0.00292388 0)
(0.00274178 -0.00263019 0)
(0.00221544 -0.00261012 0)
(0.00173722 -0.00284127 0)
(0.00138186 -0.00331255 0)
(0.00120833 -0.00396498 0)
(0.00127497 -0.00478836 0)
(0.00166538 -0.00569914 0)
(0.00241003 -0.00659165 0)
(0.00352429 -0.00738105 0)
(0.00501284 -0.00797831 0)
(0.00683197 -0.00822554 0)
(0.00893552 -0.00802227 0)
(0.0112055 -0.00718474 0)
(0.0135257 -0.00564347 0)
(0.0157255 -0.00329759 0)
(0.0175555 -3.39691e-05 0)
(0.0186379 0.00417833 0)
(0.0185386 0.00935724 0)
(0.0166971 0.0152491 0)
(0.0126725 0.021109 0)
(0.00632782 0.0255083 0)
(-0.00190744 0.0262881 0)
(-0.0103758 0.0214701 0)
(-0.0170513 0.0107613 0)
(-0.0204938 -0.0032892 0)
(-0.0199201 -0.0155289 0)
(-0.0150318 -0.0202748 0)
(-0.006492 -0.0124433 0)
(0.00295811 0.0115945 0)
(0.00479663 0.044394 0)
(-0.00480771 0.0471031 0)
(-0.0021248 0.00483287 0)
(0.00511729 -0.0206011 0)
(0.00946608 -0.0248877 0)
(0.0101914 -0.0156207 0)
(0.00795096 0.000585196 0)
(0.00338393 0.0173798 0)
(-0.00310955 0.0296198 0)
(-0.0102842 0.0344404 0)
(-0.0167372 0.0325398 0)
(-0.0215705 0.0262788 0)
(-0.0242341 0.0184035 0)
(-0.0248195 0.0109357 0)
(-0.0238208 0.00464606 0)
(-0.0218024 -0.000203739 0)
(-0.019224 -0.00374715 0)
(-0.016486 -0.00614694 0)
(-0.0137481 -0.00759183 0)
(-0.011165 -0.00824875 0)
(-0.00888873 -0.00828268 0)
(-0.00700225 -0.00786189 0)
(-0.00554521 -0.00709681 0)
(-0.00454026 -0.0061597 0)
(-0.00396673 -0.00517646 0)
(-0.00376067 -0.0042608 0)
(-0.00386272 -0.00348794 0)
(-0.00419926 -0.00295685 0)
(-0.00468858 -0.00267367 0)
(-0.0052352 -0.00266403 0)
(-0.00577681 -0.00293079 0)
(-0.00625444 -0.00344827 0)
(-0.00660288 -0.0042093 0)
(-0.00678288 -0.00517331 0)
(-0.00675184 -0.00629796 0)
(-0.00647604 -0.00752708 0)
(-0.00592995 -0.00879086 0)
(-0.00510483 -0.00999086 0)
(-0.00401849 -0.011017 0)
(-0.00271857 -0.0117481 0)
(-0.00128376 -0.0120769 0)
(0.000179947 -0.011939 0)
(0.00155154 -0.0113407 0)
(0.00272755 -0.0103607 0)
(0.00363759 -0.00911991 0)
(0.00423978 -0.00774097 0)
(0.00452694 -0.0063439 0)
(0.00451321 -0.00503386 0)
(0.00423865 -0.0038892 0)
(0.00375161 -0.00296964 0)
(0.00310539 -0.00232203 0)
(0.00235152 -0.00198904 0)
(0.00157888 -0.00197905 0)
(0.000860927 -0.00228987 0)
(0.000278407 -0.00294437 0)
(-8.75396e-05 -0.0038517 0)
(-0.00015537 -0.00499232 0)
(0.000201328 -0.00627487 0)
(0.00102079 -0.00758041 0)
(0.00229978 -0.00880228 0)
(0.00409494 -0.00982291 0)
(0.00636897 -0.0104582 0)
(0.00907802 -0.0105355 0)
(0.0121386 -0.00990443 0)
(0.0153362 -0.00837834 0)
(0.0185387 -0.00580587 0)
(0.0214828 -0.00201586 0)
(0.0237997 0.00316737 0)
(0.0250445 0.00985608 0)
(0.0245987 0.0177466 0)
(0.0220439 0.0259519 0)
(0.0172585 0.0324127 0)
(0.0107545 0.034179 0)
(0.00374002 0.0288751 0)
(-0.0025912 0.0163486 0)
(-0.00728547 -0.000723812 0)
(-0.00972704 -0.0168511 0)
(-0.00917669 -0.0258575 0)
(-0.00487726 -0.0210459 0)
(0.00239166 0.00512854 0)
(0.00490535 0.0480718 0)
(-0.00484736 0.0510324 0)
(-0.00472053 0.000890167 0)
(-0.003797 -0.0237105 0)
(-0.00655964 -0.0243944 0)
(-0.0114317 -0.0122435 0)
(-0.0169453 0.00555095 0)
(-0.0221546 0.0230833 0)
(-0.0268679 0.0354612 0)
(-0.0308612 0.0400246 0)
(-0.0336796 0.0368122 0)
(-0.0351124 0.0287384 0)
(-0.034823 0.018945 0)
(-0.0329371 0.0098032 0)
(-0.0298921 0.0023229 0)
(-0.0261678 -0.00318663 0)
(-0.0221756 -0.00705463 0)
(-0.0181934 -0.00949351 0)
(-0.0144567 -0.0107323 0)
(-0.0111004 -0.0110485 0)
(-0.00822822 -0.0106377 0)
(-0.00588501 -0.00971367 0)
(-0.00412684 -0.00844136 0)
(-0.00299276 -0.00701041 0)
(-0.00241538 -0.00555829 0)
(-0.00231192 -0.00423057 0)
(-0.00260875 -0.00316402 0)
(-0.00318549 -0.00241818 0)
(-0.00390952 -0.00201122 0)
(-0.00471256 -0.00196246 0)
(-0.00549954 -0.00227506 0)
(-0.00618147 -0.00291353 0)
(-0.00670132 -0.00384695 0)
(-0.00700593 -0.00503115 0)
(-0.00705592 -0.00641356 0)
(-0.00681666 -0.0079344 0)
(-0.00626017 -0.00950007 0)
(-0.00538162 -0.0109979 0)
(-0.00420015 -0.0122871 0)
(-0.0027669 -0.0132101 0)
(-0.00117438 -0.0136269 0)
(0.000450353 -0.0134513 0)
(0.00196542 -0.0126979 0)
(0.00324935 -0.011465 0)
(0.00421923 -0.0099031 0)
(0.00482831 -0.00817468 0)
(0.00506277 -0.00643554 0)
(0.00494103 -0.00481248 0)
(0.00450339 -0.00339201 0)
(0.00380079 -0.00225927 0)
(0.00289301 -0.001476 0)
(0.00186418 -0.00107902 0)
(0.000802211 -0.0010742 0)
(-0.000250374 -0.00150269 0)
(-0.00112633 -0.00234988 0)
(-0.00171667 -0.00355569 0)
(-0.00196162 -0.00508038 0)
(-0.00167985 -0.00683223 0)
(-0.000825224 -0.00868178 0)
(0.000622623 -0.0104868 0)
(0.00275098 -0.0120719 0)
(0.00556578 -0.0132647 0)
(0.0089868 -0.0138229 0)
(0.0129147 -0.0135558 0)
(0.0172295 -0.0122486 0)
(0.0217402 -0.00959565 0)
(0.0262356 -0.0054274 0)
(0.0303966 0.000532221 0)
(0.0337522 0.00847967 0)
(0.0358405 0.0181323 0)
(0.0363582 0.0283265 0)
(0.0350851 0.0365781 0)
(0.0322171 0.0395748 0)
(0.0284216 0.0347248 0)
(0.0236508 0.0221075 0)
(0.0179708 0.0045665 0)
(0.0120424 -0.0131583 0)
(0.00680873 -0.0251548 0)
(0.00389051 -0.0241658 0)
(0.0049229 0.00122334 0)
(0.00502456 0.0521804 0)
(-0.00533678 0.0574525 0)
(-0.0113165 0.00336044 0)
(-0.0194239 -0.0183474 0)
(-0.0303166 -0.0165598 0)
(-0.0408794 -0.00407513 0)
(-0.0493184 0.0124347 0)
(-0.0547675 0.0280804 0)
(-0.0572582 0.038546 0)
(-0.057385 0.041469 0)
(-0.0556591 0.0368006 0)
(-0.0525019 0.0272849 0)
(-0.0482336 0.0161836 0)
(-0.0430524 0.00595466 0)
(-0.0372714 -0.00217437 0)
(-0.0313447 -0.00804321 0)
(-0.0256036 -0.011853 0)
(-0.0201523 -0.0140095 0)
(-0.0151937 -0.0148269 0)
(-0.0108658 -0.0146252 0)
(-0.00726559 -0.0135993 0)
(-0.00444364 -0.0119747 0)
(-0.0024066 -0.0100253 0)
(-0.00114166 -0.00791501 0)
(-0.000579137 -0.00586607 0)
(-0.000649026 -0.0040376 0)
(-0.00120691 -0.00258936 0)
(-0.00206313 -0.00159052 0)
(-0.00309938 -0.00104591 0)
(-0.00420637 -0.000994411 0)
(-0.00526395 -0.00138058 0)
(-0.00617523 -0.00217099 0)
(-0.00686669 -0.00332483 0)
(-0.00728927 -0.0047748 0)
(-0.00740819 -0.00646593 0)
(-0.00718763 -0.00832114 0)
(-0.00660338 -0.0102422 0)
(-0.00565911 -0.0120877 0)
(-0.0043728 -0.0136777 0)
(-0.00279776 -0.0148199 0)
(-0.00103421 -0.0153387 0)
(0.000768087 -0.0151199 0)
(0.00244228 -0.0141844 0)
(0.00384846 -0.0126554 0)
(0.0048897 -0.0107213 0)
(0.00550913 -0.0085861 0)
(0.00568932 -0.00644242 0)
(0.00545625 -0.00444105 0)
(0.00484671 -0.00269652 0)
(0.003905 -0.00129298 0)
(0.00271484 -0.000322821 0)
(0.00137289 0.000195048 0)
(-4.4398e-05 0.000198016 0)
(-0.00144833 -0.000365704 0)
(-0.00265432 -0.00142246 0)
(-0.00355132 -0.00298742 0)
(-0.00402741 -0.00499277 0)
(-0.00387404 -0.00733403 0)
(-0.00300308 -0.00988788 0)
(-0.00136941 -0.012437 0)
(0.00111737 -0.0147758 0)
(0.00449293 -0.0167405 0)
(0.00873886 -0.0180289 0)
(0.0137474 -0.0183062 0)
(0.0194141 -0.0173835 0)
(0.0255511 -0.0149901 0)
(0.031895 -0.0107692 0)
(0.0383147 -0.0044116 0)
(0.0445043 0.00429826 0)
(0.0500283 0.0151011 0)
(0.0545852 0.0266877 0)
(0.0578671 0.036392 0)
(0.0595916 0.0409771 0)
(0.0594936 0.0380206 0)
(0.0567818 0.0274079 0)
(0.0507256 0.0119539 0)
(0.0416132 -0.00448886 0)
(0.0305366 -0.0169876 0)
(0.0194331 -0.0187945 0)
(0.0113734 0.00356161 0)
(0.00542611 0.0587056 0)
(-0.00675643 0.0685282 0)
(-0.0210676 0.0144942 0)
(-0.0387427 -0.00422663 0)
(-0.0574627 -0.00218858 0)
(-0.0730818 0.00781687 0)
(-0.0838002 0.0204853 0)
(-0.089154 0.0318724 0)
(-0.0895915 0.0384779 0)
(-0.0861934 0.0384487 0)
(-0.0801629 0.0319585 0)
(-0.0725433 0.0212573 0)
(-0.0640786 0.00938329 0)
(-0.0552021 -0.00121066 0)
(-0.0463864 -0.00944631 0)
(-0.0379302 -0.0151347 0)
(-0.0300365 -0.0184924 0)
(-0.0228598 -0.0200257 0)
(-0.0165416 -0.0201101 0)
(-0.0111399 -0.0190557 0)
(-0.0066798 -0.0171717 0)
(-0.00327234 -0.0146484 0)
(-0.000885541 -0.0118075 0)
(0.000515895 -0.00882141 0)
(0.00101459 -0.00605392 0)
(0.000750385 -0.00360863 0)
(-0.00011613 -0.00170652 0)
(-0.00131965 -0.000396665 0)
(-0.00270541 0.000280511 0)
(-0.00414317 0.000318706 0)
(-0.00546239 -0.000210137 0)
(-0.00658321 -0.0012239 0)
(-0.00741401 -0.00266794 0)
(-0.00790477 -0.0044427 0)
(-0.00804171 -0.00649315 0)
(-0.00780148 -0.00873227 0)
(-0.00716392 -0.0110488 0)
(-0.00611776 -0.0132771 0)
(-0.00468179 -0.0152068 0)
(-0.00290834 -0.0166063 0)
(-0.000895357 -0.01725 0)
(0.00117715 -0.0169882 0)
(0.00309471 -0.0158367 0)
(0.00468699 -0.0139573 0)
(0.00584092 -0.0115904 0)
(0.00649844 -0.00898319 0)
(0.00664834 -0.00636421 0)
(0.00632008 -0.00391865 0)
(0.00556342 -0.00179452 0)
(0.00440967 -7.9286e-05 0)
(0.00295585 0.0011653 0)
(0.0013017 0.0018485 0)
(-0.000507693 0.0018846 0)
(-0.00229909 0.00122185 0)
(-0.00386674 -0.000123508 0)