/*--------------------------------*- C++ -*----------------------------------*\
| =========                 |                                                 |
| \\      /  F ield         | OpenFOAM: The Open Source CFD Toolbox           |
|  \\    /   O peration     | Version:  2412                                  |
|   \\  /    A nd           | Website:  www.openfoam.com                      |
|    \\/     M anipulation  |                                                 |
\*---------------------------------------------------------------------------*/
FoamFile
{
    version     2.0;
    format      ascii;
    arch        "LSB;label=32;scalar=64";
    class       volScalarField;
    location    "4.45";
    object      p_rgh;
}
// * * * * * * * * * * * * * * * * * * * * * * * * * * * * * * * * * * * * * //

dimensions      [1 -1 -2 0 0 0 0];

internalField   nonuniform List<scalar> 
6400
(
9956.96
9956.69
9956.17
9955.39
9954.37
9953.11
9951.6
9949.86
9947.87
9945.65
9943.17
9940.43
9937.42
9934.09
9930.44
9926.44
9922.05
9917.26
9912.06
9906.43
9900.36
9893.88
9886.99
9879.74
9872.17
9864.37
9856.4
9848.35
9840.32
9832.43
9824.79
9817.48
9810.62
9804.31
9798.63
9793.69
9789.53
9786.26
9783.9
9782.46
9781.98
9782.44
9783.83
9786.1
9789.22
9793.1
9797.72
9802.94
9808.66
9814.81
9821.28
9827.97
9834.81
9841.69
9848.48
9855.16
9861.67
9867.96
9874
9879.78
9885.3
9890.55
9895.54
9900.29
9904.82
9909.12
9913.22
9917.12
9920.83
9924.34
9927.64
9930.72
9933.55
9936.11
9938.38
9940.33
9941.92
9943.14
9943.97
9944.39
9957.18
9956.91
9956.39
9955.62
9954.59
9953.32
9951.82
9950.08
9948.1
9945.89
9943.43
9940.71
9937.71
9934.41
9930.79
9926.8
9922.44
9917.67
9912.47
9906.84
9900.77
9894.26
9887.35
9880.05
9872.4
9864.5
9856.46
9848.32
9840.2
9832.21
9824.46
9817.04
9810.08
9803.67
9797.91
9792.9
9788.7
9785.37
9782.96
9781.51
9781.03
9781.51
9782.94
9785.27
9788.47
9792.46
9797.13
9802.43
9808.25
9814.52
9821.08
9827.87
9834.78
9841.71
9848.56
9855.33
9861.88
9868.19
9874.25
9880.04
9885.55
9890.79
9895.77
9900.51
9905.02
9909.32
9913.41
9917.31
9921.02
9924.54
9927.85
9930.95
9933.8
9936.39
9938.69
9940.65
9942.27
9943.5
9944.34
9944.78
9957.61
9957.33
9956.81
9956.04
9955.03
9953.77
9952.27
9950.54
9948.58
9946.38
9943.95
9941.26
9938.3
9935.05
9931.47
9927.53
9923.2
9918.47
9913.3
9907.67
9901.59
9895.05
9888.07
9880.66
9872.86
9864.82
9856.61
9848.3
9839.98
9831.77
9823.79
9816.16
9808.98
9802.38
9796.45
9791.28
9786.96
9783.54
9781.07
9779.59
9779.11
9779.64
9781.13
9783.57
9786.9
9791.04
9795.9
9801.4
9807.43
9813.9
9820.67
9827.65
9834.73
9841.8
9848.78
9855.68
9862.3
9868.67
9874.76
9880.55
9886.06
9891.28
9896.23
9900.94
9905.42
9909.7
9913.78
9917.68
9921.4
9924.95
9928.29
9931.43
9934.33
9936.96
9939.3
9941.31
9942.96
9944.22
9945.08
9945.53
9958.23
9957.96
9957.44
9956.68
9955.67
9954.42
9952.93
9951.21
9949.27
9947.11
9944.71
9942.07
9939.18
9935.99
9932.48
9928.62
9924.37
9919.69
9914.56
9908.94
9902.85
9896.26
9889.18
9881.6
9873.56
9865.35
9856.88
9848.27
9839.62
9831.09
9822.78
9814.81
9807.32
9800.42
9794.22
9788.82
9784.31
9780.76
9778.2
9776.68
9776.22
9776.8
9778.42
9781.01
9784.54
9788.92
9794.05
9799.85
9806.17
9812.96
9820.05
9827.33
9834.68
9841.99
9849.18
9856.19
9862.96
9869.41
9875.54
9881.35
9886.83
9892.01
9896.91
9901.57
9906.01
9910.26
9914.32
9918.22
9921.96
9925.54
9928.94
9932.14
9935.11
9937.82
9940.23
9942.3
9944.01
9945.31
9946.2
9946.66
9959.04
9958.77
9958.26
9957.51
9956.51
9955.27
9953.8
9952.1
9950.18
9948.05
9945.71
9943.13
9940.32
9937.23
9933.83
9930.07
9925.92
9921.33
9916.26
9910.68
9904.57
9897.93
9890.77
9882.79
9874.66
9866.13
9857.3
9848.29
9839.23
9830.21
9821.42
9812.99
9805.05
9797.75
9791.19
9785.48
9780.72
9776.96
9774.28
9772.71
9772.26
9772.93
9774.69
9777.51
9781.31
9786.03
9791.55
9797.77
9804.56
9811.75
9819.26
9826.94
9834.67
9842.31
9849.77
9856.98
9863.89
9870.46
9876.64
9882.44
9887.88
9892.99
9897.83
9902.41
9906.78
9910.98
9915.01
9918.91
9922.68
9926.3
9929.77
9933.06
9936.13
9938.95
9941.46
9943.63
9945.4
9946.76
9947.69
9948.18
9960.03
9959.75
9959.25
9958.53
9957.55
9956.32
9954.85
9953.16
9951.27
9949.18
9946.9
9944.42
9941.71
9938.75
9935.5
9931.89
9927.88
9923.42
9918.45
9912.92
9906.8
9900.06
9892.64
9884.64
9876.15
9867.2
9857.9
9848.35
9838.7
9829.09
9819.7
9810.67
9802.17
9794.33
9787.31
9781.2
9776.1
9772.1
9769.26
9767.62
9767.18
9767.96
9769.92
9773.02
9777.18
9782.33
9788.34
9795.09
9802.45
9810.22
9818.29
9826.52
9834.73
9842.8
9850.62
9858.08
9865.14
9871.84
9878.1
9883.87
9889.23
9894.24
9898.96
9903.43
9907.7
9911.82
9915.82
9919.72
9923.51
9927.2
9930.76
9934.17
9937.38
9940.34
9942.99
9945.29
9947.16
9948.6
9949.57
9950.09
9961.14
9960.87
9960.39
9959.7
9958.75
9957.54
9956.07
9954.38
9952.51
9950.46
9948.26
9945.89
9943.32
9940.53
9937.47
9934.07
9930.26
9925.98
9921.16
9915.71
9909.59
9902.75
9895.2
9886.96
9878.07
9868.63
9858.73
9848.51
9838.13
9827.77
9817.61
9807.82
9798.61
9790.12
9782.5
9775.89
9770.39
9766.08
9763.04
9761.31
9760.9
9761.81
9764.01
9767.46
9772.08
9777.76
9784.39
9791.82
9799.89
9808.41
9817.17
9826.1
9834.94
9843.55
9851.8
9859.59
9866.85
9873.55
9880.02
9885.67
9890.9
9895.75
9900.3
9904.61
9908.75
9912.77
9916.71
9920.59
9924.42
9928.19
9931.88
9935.45
9938.84
9941.99
9944.83
9947.28
9949.29
9950.81
9951.84
9952.38
9962.34
9962.08
9961.65
9961.02
9960.11
9958.9
9957.41
9955.72
9953.85
9951.85
9949.74
9947.5
9945.11
9942.54
9939.72
9936.58
9933.05
9929.03
9924.43
9919.13
9913.03
9906.15
9898.43
9889.88
9880.54
9870.49
9859.87
9848.82
9837.54
9826.24
9815.12
9804.41
9794.32
9785.02
9776.69
9769.47
9763.48
9758.81
9755.52
9753.68
9753.29
9754.36
9756.85
9760.73
9765.9
9772.25
9779.64
9787.91
9796.87
9806.32
9816.06
9825.78
9835.38
9844.64
9853.42
9861.6
9869.12
9875.97
9882.23
9887.84
9892.9
9897.53
9901.84
9905.93
9909.87
9913.75
9917.61
9921.47
9925.35
9929.22
9933.07
9936.85
9940.47
9943.88
9946.97
9949.63
9951.8
9953.41
9954.5
9955.07
9963.53
9963.31
9962.96
9962.44
9961.59
9960.37
9958.84
9957.1
9955.23
9953.28
9951.26
9949.18
9947
9944.7
9942.2
9939.42
9936.25
9932.59
9928.3
9923.28
9917.19
9910.35
9902.47
9893.57
9883.68
9872.9
9861.39
9849.34
9836.96
9824.5
9812.22
9800.39
9789.22
9778.96
9769.77
9761.82
9755.24
9750.13
9746.56
9744.58
9744.22
9745.48
9748.33
9752.71
9758.54
9765.69
9774.01
9783.31
9793.37
9803.94
9814.77
9825.58
9836.13
9846.21
9855.63
9864.26
9872.03
9878.96
9885.08
9890.47
9895.28
9899.59
9903.56
9907.33
9911.01
9914.69
9918.44
9922.28
9926.21
9930.23
9934.28
9938.31
9942.25
9945.98
9949.39
9952.34
9954.7
9956.4
9957.52
9958.1
9964.58
9964.42
9964.24
9963.92
9963.17
9961.9
9960.28
9958.46
9956.55
9954.62
9952.72
9950.82
9948.92
9946.95
9944.85
9942.52
9939.85
9936.67
9932.83
9928.07
9922.34
9915.52
9907.47
9898.17
9887.64
9876.01
9863.44
9850.15
9836.43
9822.56
9808.87
9795.66
9783.21
9771.8
9761.6
9752.79
9745.53
9739.9
9736
9733.87
9733.54
9735.01
9738.27
9743.25
9749.86
9757.97
9767.4
9777.94
9789.33
9801.29
9813.49
9825.61
9837.34
9848.41
9858.59
9867.72
9875.75
9882.69
9888.61
9893.64
9898.09
9901.91
9905.4
9908.74
9912.07
9915.5
9919.11
9922.91
9926.92
9931.09
9935.39
9939.75
9944.07
9948.23
9952.07
9955.41
9958.01
9959.78
9960.87
9961.44
9965.35
9965.16
9965.38
9965.39
9964.75
9963.41
9961.63
9959.68
9957.7
9955.79
9954
9952.32
9950.74
9949.18
9947.58
9945.83
9943.79
9941.28
9938.12
9933.72
9928.46
9921.81
9913.64
9903.92
9892.66
9880
9866.14
9851.36
9836
9820.42
9805.02
9790.15
9776.17
9763.42
9752.02
9742.22
9734.16
9727.94
9723.65
9721.34
9721.04
9722.76
9726.47
9732.15
9739.69
9748.93
9759.69
9771.72
9784.74
9798.38
9812.27
9826.01
9839.19
9851.46
9862.54
9872.24
9880.5
9887.37
9892.96
9897.5
9901.26
9904.44
9907.3
9910.07
9912.93
9916.03
9919.46
9923.23
9927.32
9931.69
9936.3
9941.05
9945.86
9950.56
9954.97
9958.8
9961.7
9963.52
9964.44
9964.94
9965.78
9965.04
9965.78
9966.76
9966.36
9964.8
9962.74
9960.6
9958.5
9956.59
9954.92
9953.51
9952.3
9951.23
9950.22
9949.19
9947.98
9946.34
9943.98
9940.52
9935.79
9929.43
9921.22
9911.06
9898.97
9885.09
9869.69
9853.1
9835.74
9818.07
9800.58
9783.72
9767.88
9753.64
9740.83
9729.87
9720.91
9714.04
9709.33
9706.8
9706.52
9708.49
9712.72
9719.17
9727.8
9738.36
9750.68
9764.51
9779.49
9795.21
9811.19
9826.93
9841.9
9855.66
9867.8
9878.12
9886.56
9893.2
9898.26
9902.03
9904.88
9907.16
9909.14
9911.14
9913.39
9916.08
9919.31
9923.06
9927.28
9931.89
9936.84
9942.07
9947.46
9952.82
9957.95
9962.52
9965.92
9967.59
9967.84
9968.62
9948.68
9875.46
9897.87
9967.66
9967.19
9965.64
9963.42
9961.08
9958.82
9956.87
9955.32
9954.19
9953.4
9952.87
9952.54
9952.39
9952.25
9951.79
9950.62
9948.32
9944.46
9938.63
9930.51
9919.93
9906.89
9891.55
9874.31
9855.51
9835.7
9815.49
9795.47
9776.21
9758.19
9742.12
9727.73
9715.48
9705.53
9697.96
9692.75
9689.98
9689.7
9691.93
9696.75
9704.15
9713.93
9726.03
9740.19
9756.13
9773.48
9791.74
9810.32
9828.57
9845.8
9861.37
9874.79
9885.75
9894.25
9900.44
9904.66
9907.33
9908.93
9909.93
9910.74
9911.73
9913.17
9915.36
9918.39
9922.19
9926.58
9931.48
9936.86
9942.64
9948.7
9954.82
9960.81
9966.21
9970.12
9971.62
9939.31
9967.06
9909.44
9801.66
9792.3
9963.79
9966.61
9965.26
9963.37
9960.94
9958.49
9956.42
9954.92
9954.04
9953.68
9953.74
9954.22
9955.13
9956.35
9957.46
9957.97
9957.25
9954.7
9949.73
9941.9
9930.95
9916.85
9899.87
9880.33
9858.79
9835.97
9812.62
9789.52
9767.39
9746.84
9728.5
9712.38
9698.72
9687.68
9679.44
9673.62
9670.59
9670.28
9672.75
9678.17
9686.54
9697.7
9711.53
9727.9
9746.31
9766.53
9787.91
9809.75
9831.18
9851.27
9869.14
9884.08
9895.7
9904.05
9909.45
9912.38
9913.44
9913.32
9912.62
9911.88
9911.56
9912.02
9913.61
9916.43
9920.3
9924.95
9930.23
9936.1
9942.51
9949.31
9956.08
9962.45
9968.55
9972.47
9819.53
9818.77
9906.19
9957.08
9953.2
9888.26
9654.45
9955.34
9965.75
9964.16
9960.88
9957.58
9954.92
9953.25
9952.56
9952.68
9953.48
9954.95
9957.17
9960.13
9963.31
9966.08
9967.55
9966.87
9963.22
9955.95
9944.68
9929.32
9910.43
9888.11
9863.19
9836.6
9809.35
9782.46
9756.85
9733.26
9712.38
9694.45
9679.23
9667
9657.66
9651.59
9648.4
9648.01
9650.63
9656.58
9665.93
9678.77
9694.46
9713.36
9734.78
9758.33
9783.52
9809.45
9834.98
9858.82
9879.69
9896.51
9908.66
9916.49
9920.61
9921.69
9920.55
9918.11
9915.2
9912.46
9910.46
9909.58
9910.38
9912.95
9917.01
9922.03
9927.79
9934.28
9941.45
9949.12
9956.72
9963.68
9970.84
9971.92
9877.29
9936.15
9948.03
9946.75
9922.87
9804.25
9523.61
9671.44
9967.91
9965.31
9960.16
9955.28
9951.88
9950.08
9949.79
9950.52
9951.83
9954.11
9957.89
9963.21
9968.96
9974.57
9978.95
9980.93
9979.31
9973.11
9961.71
9944.68
9923.73
9898
9868.83
9837.51
9805.4
9773.86
9744.09
9716.98
9693.05
9673.8
9656.9
9643.63
9633.4
9626.87
9623.41
9622.72
9625.25
9631.68
9642.01
9655.95
9674.19
9696.34
9721.05
9748.54
9778.26
9809.31
9840.16
9868.93
9893.67
9912.81
9925.14
9931.92
9934.03
9932.38
9928.05
9922.47
9916.92
9912.1
9908.16
9905.11
9904.52
9907.07
9912.15
9918.04
9924.28
9931.43
9939.67
9948.6
9957.3
9965.42
9935.43
9662.74
9931.99
9945.96
9959.84
9959.02
9818.6
9463.07
9500.5
9527.75
9927.27
9965.94
9958.33
9952.3
9948.25
9946.66
9947.16
9948.19
9949.05
9951.46
9956.93
9964.88
9973.75
9982.67
9990.31
9995.45
9996.62
9992.45
9982.04
9965.68
9941.01
9910.72
9876.01
9838.46
9800.11
9762.8
9728.19
9697.45
9671.06
9649.31
9631.57
9617.65
9605.63
9599.28
9595.74
9594.29
9596.17
9603.2
9615.07
9630.45
9649.6
9676.29
9704.5
9736.21
9771.02
9808.28
9845.9
9881.38
9911.75
9934.97
9946.3
9950.48
9948.52
9942.32
9933.74
9924.65
9916.47
9909.67
9903.8
9898.78
9896.53
9899.17
9906.1
9913.82
9920.88
9928.64
9938
9949.01
9959.96
9889.78
9542.92
9523.45
9585.71
9841.89
9963.68
9991.66
9946.53
9615.19
9497.25
9746.89
9973.38
9967
9958.76
9950.39
9944.12
9941.64
9941.51
9940.72
9939.69
9942.12
9949.72
9961.13
9974.16
9987.63
9999.58
10008.7
10013.2
10012.1
10003.6
9985.93
9959.91
9925.42
9884.5
9839.64
9793.79
9749.31
9708.81
9673.91
9644.83
9621.21
9602.98
9591.15
9585.79
9579.59
9572.92
9569.85
9571.67
9577.55
9589.55
9608.61
9635.38
9656.64
9685.57
9721.2
9761.32
9806.67
9853.7
9898.46
9935.37
9958.47
9971.18
9971.48
9963.17
9951.36
9938.25
9924.72
9912.07
9901.2
9892.09
9884.87
9881.71
9885.14
9894.65
9905.87
9915.85
9925.87
9937.4
9951.01
9967.23
9963.28
9676.72
9520.56
9482.92
9825.51
9996.84
10018.4
9997.69
9980.21
9962.83
9989.23
9977.36
9965.78
9950.74
9937.37
9928.28
9922.62
9918.15
9913.88
9912.06
9916.66
9927.78
9943.5
9963.63
9986.81
10009.2
10027.3
10037.1
10038.3
10031.2
10014.6
9987.59
9947.62
9897.47
9841.13
9784.45
9729.66
9680.14
9638.89
9606.11
9576.77
9512.59
9477.16
9439.42
9406.06
9376.33
9347.61
9324.96
9315.57
9315.19
9373.54
9494.45
9587.63
9654.67
9695.69
9744.91
9802.26
9865.02
9926.92
9977.52
10006.6
10014
10007.9
9992.61
9972.63
9947.44
9922.3
9900.42
9882.36
9866.97
9855.46
9851.66
9856.47
9867.59
9882.32
9897.1
9910.98
9924.92
9942.29
9964.99
9991.75
10016.3
9900.36
9927.99
10017.1
10062.2
9535.25
9636.79
9534.67
9566.23
9620.23
9634.66
9748.97
9846.78
9845.21
9654.34
9417.42
9279.94
9201.85
9167.77
9229.71
9344.48
9453.68
9611.86
9824.34
9973.54
10048.2
10081.6
10092.4
10084.4
10064.2
10030.1
9744.13
9207.54
8531.57
7764.89
6976.17
6231.92
5591.04
5071.75
4659.34
4387.04
4180.45
4013.76
3872.74
3753.99
3665.66
3672.2
3762.73
3933.84
4180.13
4759.82
5212.75
5715.11
6364.21
7100
7868.78
8642.49
9343.75
9823.97
10062.3
10076.8
10069.3
10026.4
9893.82
9663.23
9421.06
9216.29
9083.28
8934.35
8767
8729.28
8815.78
8951.81
9151.52
9403.87
9682.21
9784.06
9663.62
9413.83
9551.33
9839.98
9911.89
9952.28
10044.3
10086.8
5178.77
4358.16
3695.42
3543.01
3543.72
3407.74
3052.18
2562.91
2240.26
2119.73
2197.6
2313.82
2396.17
2369.11
2413.86
2650.55
2931.99
3334.69
4147.82
5122.69
5940.81
6335.54
6452.84
6224.88
5722.3
4938.99
3883.84
2825.29
1921.55
1221.35
705.161
363.173
181.178
79.5413
13.4542
2.87894
2.61918
2.52652
2.69658
2.99835
3.40386
3.903
4.37923
43.906
108.839
81.2929
186.906
350.31
591.111
947.142
1567.43
2640.82
4114.07
5496.32
6274.06
6473.5
6234.68
5534
4377.05
3336.23
2680.31
2307.7
2070.96
1764.95
1525.87
1524.24
1663.88
1766.98
1895.47
2037.38
2156.55
2343.48
2763.51
3446.14
4002.96
4396.49
4879.77
5099.59
5427.81
6026.44
293.938
77.8699
25.2018
11.6644
6.27543
2.47506
1.23336
0.7136
0.459371
0.437188
0.56031
0.650683
0.598691
0.524957
0.490778
0.562968
0.722145
0.795182
0.815666
0.8527
9.56109
349.983
761.554
961.399
905.754
619.032
278.077
102.129
37.8398
9.58716
5.63557
7.9245
3.46214
2.48889
3.01719
3.29641
3.27477
3.90142
5.48807
5.07786
3.18658
3.49137
3.8726
3.98755
5.48718
4.13493
2.52724
1.48985
1.40152
69.7956
198.951
360.467
636.081
905.884
1026.2
831.471
249.603
0.985006
0.358687
0.377426
0.40619
0.538686
0.730421
0.916916
1.03139
1.11337
1.2445
1.37325
1.47273
1.52417
1.62363
1.42043
3.25311
4.42108
4.10678
15.6248
54.74
90.6341
142.437
241.726
25.796
10.0869
4.57068
2.88797
2.28061
1.55705
1.18478
0.815893
0.560562
0.468265
0.822275
0.988219
0.943383
0.593554
0.872281
1.39466
1.41916
0.933716
0.773367
0.728094
0.597338
0.428869
0.395813
0.44757
0.543613
0.691789
0.829006
0.943436
1.00165
1.18827
1.38635
1.54686
1.78154
2.14803
5.85107
8.0222
8.11751
8.17551
8.28579
8.5434
7.33634
3.05752
3.17137
3.32454
3.3238
2.01454
1.22708
0.817115
0.605322
0.367155
0.125278
-0.0469767
-0.194795
-0.337774
-0.575885
-0.879389
-0.480987
-0.0544903
-0.0545652
0.0589166
0.186661
0.341164
0.54048
1.06838
2.98413
2.9987
1.4429
1.34788
1.80199
5.68301
6.09359
1.32905
1.11742
1.8875
0.683467
0.392809
1.65554
4.8435
10.4719
14.8897
10.7227
4.114
2.81549
2.57672
2.5412
2.13633
1.53273
1.09603
0.547451
0.406373
0.439071
0.520588
0.518507
0.44952
0.560005
4.04775
4.08491
4.18796
1.26489
0.63577
0.536116
0.576073
0.702549
1.00903
1.19649
1.40902
1.69568
1.6687
1.22683
1.3276
1.44014
1.56141
1.72465
4.74762
7.82223
7.95437
8.01754
5.24241
2.73683
4.48801
5.06917
2.57799
2.46551
2.51726
2.34632
1.65987
1.3094
1.14097
1.76574
1.69487
0.11055
-0.153686
-0.323382
-0.4844
-0.614265
-0.639165
-0.525546
-0.361937
-0.320945
-0.227543
-0.0995814
0.0503999
0.2326
0.454809
1.66209
3.36847
4.42288
4.7145
8.06486
9.85279
8.88008
0.997363
0.686345
0.342061
0.0374418
0.0198318
0.836431
5.07426
10.4747
16.1776
4.2147
2.91618
2.83489
2.76295
3.11582
3.04278
2.81012
1.87737
0.419649
0.380523
0.43872
0.565687
0.595263
0.370653
0.279156
2.54629
4.03398
4.05317
1.24859
0.652993
0.253158
0.228887
0.242281
0.538582
1.47393
1.66535
1.74439
1.80434
1.45604
1.26809
2.88125
4.55601
4.68947
3.98198
1.41714
1.16102
1.13298
1.12063
1.15064
1.21105
1.62006
1.96579
1.8939
1.9157
1.72064
1.37722
1.16997
1.19377
3.05631
2.8796
2.12506
-0.0271567
-0.326464
-0.511164
-0.687739
-0.758565
-0.728417
-0.61929
-0.5354
-0.435982
-0.317369
-0.175881
-0.00830351
0.180684
0.371455
0.592529
0.992601
1.40522
5.81585
10.0164
10.0769
7.2725
0.694133
0.314305
-0.0689333
-0.145209
0.231147
0.771805
1.36584
4.55419
2.18165
1.96654
2.58392
2.60558
2.43296
2.63517
1.87717
0.542686
0.245738
0.333829
0.396958
0.688397
0.69127
0.581017
0.269415
0.216197
0.757502
0.952308
0.728066
0.283933
0.200772
0.20475
0.237879
0.278027
0.320939
0.862538
1.34445
0.802026
0.825817
1.71916
1.95218
1.39709
1.27731
0.965793
1.02451
1.07702
1.09719
1.12865
1.14677
1.17432
1.25826
1.40196
1.49042
1.46328
1.30388
1.05615
0.871686
1.65126
2.99881
2.72433
2.50318
2.33814
0.422888
-0.61736
-0.725656
-0.776309
-0.764034
-0.724094
-0.670352
-0.591929
-0.487272
-0.357624
-0.152106
0.18125
0.39226
0.863801
1.09772
1.06458
1.01005
3.04599
8.92533
10.1275
8.01696
0.42288
0.127489
0.0846067
0.323445
0.672765
1.05873
3.21039
1.4097
1.20839
2.12396
1.30347
0.682489
0.808902
1.98349
0.0926966
0.171841
0.277615
0.334709
0.332305
0.473144
0.39806
0.321038
0.298903
0.306052
0.335887
0.352501
0.288331
0.218589
0.213519
0.246604
0.2909
0.342168
0.399518
0.455527
0.499377
0.527189
0.721706
0.751305
0.691671
0.772502
0.859653
0.941242
0.999874
1.03921
1.07612
1.11947
1.16172
1.21608
1.26775
1.28096
1.19122
1.02541
0.802192
0.560465
1.11561
2.77636
2.50433
2.33183
2.21626
2.11325
1.84453
-0.392753
-0.843989
-0.719201
-0.619797
-0.670148
-0.63576
-0.386768
-0.236717
0.338301
0.810112
0.620657
0.505714
0.951389
0.907861
0.60076
0.40162
0.726742
9.78473
10.7441
9.43279
0.374469
0.406486
0.658541
1.22152
0.998742
1.53917
0.837956
0.363069
1.4839
0.822562
0.0566857
1.74723
4.15268
0.061327
0.0750839
0.1988
0.266734
0.28804
0.288551
0.351926
0.433815
0.418045
0.377676
0.414514
0.446475
0.395433
0.347275
0.231001
0.229011
0.278771
0.339393
0.406239
0.4648
0.505255
0.533695
0.568644
0.626968
0.66826
0.730566
0.801282
0.871121
0.934025
0.990921
1.04559
1.09551
1.13178
1.17019
1.17334
1.12673
1.00153
0.83423
0.641605
0.335802
0.135899
1.30817
2.33469
1.4192
-0.241437
-0.526048
-0.304492
0.303713
0.305295
0.327183
0.233623
-0.706062
-0.707665
0.20455
0.49885
0.621289
0.77173
0.113859
0.140308
0.523643
0.983995
0.968577
0.273537
0.15327
0.891175
10.5878
11.1495
9.75553
2.92634
5.02552
2.67963
0.989207
0.96999
0.650682
-0.0666111
-0.376924
0.449725
-0.49797
2.07231
3.86442
3.46202
-0.0408332
0.101819
0.202059
0.247445
0.263401
0.302262
0.426554
0.430028
0.431062
0.422114
0.395762
0.353236
0.311724
0.2675
0.273712
0.280998
0.308471
0.386398
0.450832
0.493642
0.522428
0.554949
0.597448
0.630664
0.678115
0.73829
0.803176
0.870027
0.939244
1.01114
1.07049
1.09033
1.10271
1.07899
0.998552
0.850238
0.812991
1.35521
0.26833
-0.0657526
-0.40132
-0.303234
-0.66758
-0.978255
-1.03724
-1.08277
-1.08715
-1.07359
-1.03864
-0.993618
-0.920828
-0.556741
-0.305644
0.463067
0.573924
0.713591
0.736483
-0.0434947
0.0308085
0.887355
0.900684
0.435743
0.128044
0.0962319
1.52854
9.68158
9.95375
6.59396
6.32403
1.04886
0.873543
0.854464
0.764116
0.104613
-0.562802
0.29498
-0.698052
-0.142523
3.76384
4.50883
0.0313136
0.0212101
0.142308
0.212839
0.238821
0.259694
0.289214
0.373866
0.332871
0.273751
0.212044
0.145836
0.121451
0.244006
0.260243
0.243591
0.244037
0.337577
0.559577
1.00893
0.686569
0.513526
0.544881
0.576349
0.617595
0.671513
0.732823
0.801497
0.885817
0.981561
1.04139
1.02453
1.01876
0.981876
0.886034
0.717247
2.24783
7.20665
1.57929
-0.157608
-0.510163
-0.703692
-0.804053
-1.00035
-1.08641
-1.14695
-1.1569
-1.12606
-1.06881
-1.00248
-0.942726
-0.899461
-0.864202
-0.642227
0.571767
0.68443
0.824308
0.337777
-0.0876515
0.107099
0.9727
1.00193
0.153335
0.132
0.110577
0.830464
2.42284
6.57298
3.48531
0.690081
0.680354
0.729517
0.968325
0.549537
-0.20318
-0.643476
-0.905929
-0.900818
2.17943
4.53144
2.47148
0.445928
0.105018
0.192854
0.224489
0.282892
0.27385
0.202305
0.176075
0.143786
0.10428
0.0719782
0.0465293
0.159297
0.107371
0.0541712
0.153693
0.261869
1.37146
2.65229
1.02472
0.447375
0.480413
0.510711
0.549961
0.597675
0.652032
0.713488
0.889759
2.46748
3.83873
0.940147
0.909092
0.8727
0.77624
0.587722
3.3338
7.59581
6.15134
-0.246394
-0.569061
-0.74235
-0.87685
-1.09228
-1.23145
-1.33156
-1.34476
-1.27777
-1.167
-1.04977
-0.954892
-0.891343
-0.849684
-0.81476
-0.380011
0.690652
0.804795
0.950659
-0.182062
-0.166725
0.472896
1.57326
1.37286
0.207383
0.163277
0.137321
0.731666
6.49315
2.48627
0.408429
2.96556
0.610361
1.11145
0.918602
0.355583
-0.195068
-0.453397
-0.490153
-0.409973
4.49744
5.1586
1.05991
0.115527
0.220485
0.283464
0.272573
0.232768
0.181958
0.142579
0.101338
0.0590545
0.0612921
0.85229
0.539325
0.0328095
-0.0573884
0.0545947
0.173494
2.32845
2.62434
0.941499
0.364542
0.406112
0.439464
0.475391
0.51382
0.553021
0.588567
0.749785
6.48874
9.08943
3.20196
0.747448
0.75192
0.672294
0.47192
2.18361
7.80593
5.5651
-0.444245
-0.675243
-0.853959
-1.08413
-1.30189
-1.51162
-1.66039
-1.60242
-1.37551
-1.10438
-1.11145
-0.970544
-0.88949
-0.835997
-0.795766
-0.687765
0.419784
0.811683
0.932373
0.506231
-0.200663
-0.111528
1.60768
3.94417
2.36367
0.234736
0.152624
0.373601
5.97891
0.240628
3.74261
5.31918
0.863273
5.17962
1.11282
0.798198
0.361186
0.0895123
0.0103819
0.0255142
2.91104
5.86387
1.28891
0.209653
1.12626
0.883935
0.233154
0.189214
0.159858
0.119626
0.0665992
0.0154524
1.48476
4.85082
4.62468
0.83021
-0.170424
-0.0428636
0.195036
3.39615
2.05564
0.387734
0.281834
0.331426
0.366902
0.397627
0.424053
0.44279
0.447188
0.517253
5.964
9.24289
9.29671
0.822767
0.665996
0.589994
0.385074
1.41327
8.06653
2.38249
-0.564579
-0.833673
-1.00107
-1.35718
-1.6216
-1.91865
-2.13341
-0.473186
4.23504
5.63079
2.55582
-0.0596539
-0.879903
-0.834665
-0.782401
-0.718944
-0.673225
0.601929
0.921924
0.647468
-0.220789
-0.133184
0.0433716
4.14056
5.34816
4.99025
0.210402
0.109591
0.364732
0.0966522
5.19988
5.47107
1.15185
9.3231
8.83785
7.12383
4.97771
0.795472
0.478169
0.485526
3.22749
7.80694
1.84644
0.501922
1.92251
1.08262
0.223641
0.190881
0.154559
0.104832
0.0393194
-0.0314282
2.76701
4.93892
4.79259
2.97096
-0.272741
-0.12986
1.23811
3.45292
1.12543
0.143118
0.211402
0.26423
0.298562
0.322977
0.338697
0.341731
0.328461
0.309048
0.849466
6.22847
9.702
1.69164
0.618659
0.538015
0.32988
3.5161
8.26012
1.85456
-0.691864
-1.02004
-1.23541
-1.65691
-1.99989
-2.39873
-2.21276
5.46678
7.12956
7.56344
8.0457
7.72576
0.711508
-0.718459
-0.784624
-0.72118
-0.649443
-0.562174
0.776792
-0.296147
-0.22978
-0.138035
-0.0804935
0.0272446
5.29068
5.84372
4.27202
0.234504
0.150855
2.29941
5.68377
5.81709
1.25641
6.93001
9.6205
9.67167
9.41125
7.01121
0.990897
0.91076
4.61004
9.10255
7.45924
4.21556
1.7179
0.421041
0.223599
0.191785
0.153085
0.0998222
0.0280262
0.0694337
0.0244716
4.90887
4.81665
2.09613
-0.354026
-0.183068
2.92714
3.47158
1.16773
0.0811816
0.15493
0.207083
0.238051
0.256956
0.265867
0.262425
0.243704
0.20286
0.149749
0.193021
9.81101
11.9797
1.74729
0.517755
0.283551
8.35278
8.37574
1.48092
-0.791104
-1.17077
-1.46311
-1.94334
-2.3572
-2.83607
-1.62558
6.5295
6.7997
7.23902
7.86421
8.48158
8.68546
0.941229
-0.791388
-0.71301
-0.626937
-0.543893
-0.420954
-0.337436
-0.229049
-0.138124
-0.0758447
-0.049541
-0.00830287
5.87886
6.3201
3.99125
2.01195
6.20715
6.13185
2.25501
1.43427
0.165638
8.98169
9.75361
9.41172
3.32177
1.33433
1.31966
7.90306
9.59609
9.5632
7.01128
0.464488
0.235721
0.219028
0.194455
0.150346
0.100168
0.032066
-0.0624445
-0.188823
1.05881
4.97263
3.4404
-0.290023
0.353417
3.45568
3.4845
0.54815
0.035838
0.111295
0.15943
0.186548
0.201273
0.206728
0.202415
0.187273
0.15828
0.11859
0.0965316
1.37894
12.129
1.41868
0.543744
0.236826
7.35533
8.51645
4.71086
-0.766552
-1.31951
-1.68201
-2.16126
-2.60128
-3.08769
-3.41734
4.37308
5.57117
3.89391
7.71382
8.53748
9.14996
3.3821
-0.799345
-0.705181
-0.605932
-0.513828
-0.423383
-0.323665
-0.223642
-0.139785
-0.0785482
-0.0456705
-0.0293266
0.125685
5.15682
6.61451
6.68495
6.59821
6.54484
1.75509
1.54275
0.153285
2.48597
8.39822
2.44438
1.55864
1.66237
4.61093
10.0322
9.89212
9.8323
5.2076
0.252572
0.20135
0.194089
0.183559
0.14432
0.100611
0.0425226
-0.0383505
-0.154172
-0.141617
3.46275
3.80947
3.9451
3.99874
3.41034
1.02814
-0.0834753
0.0129746
0.0811286
0.120828
0.142964
0.154197
0.15767
0.15398
0.141823
0.118581
0.0851806
0.0565029
0.158593
9.30405
13.4289
1.52768
0.153684
1.04135
8.64208
8.15597
-0.375246
-1.416
-1.84655
-2.24503
-2.66408
-3.0946
-3.53917
-2.82347
-3.66174
-3.29291
0.366554
8.59701
9.34845
3.69484
-0.78971
-0.686076
-0.580456
-0.484432
-0.395349
-0.305835
-0.217192
-0.142356
-0.0870823
-0.0534757
-0.0348664
0.292124
0.444759
1.8049
5.5951
5.0119
0.850601
0.959244
1.54887
0.178876
1.06108
5.23187
6.39012
4.04592
1.90232
9.18218
10.1835
10.0943
9.28912
1.18872
0.16509
0.159634
0.161608
0.16154
0.135884
0.0971329
0.0539787
-0.00580243
-0.092542
-0.214543
-0.341467
1.16738
1.93223
1.03398
0.112548
-0.147993
-0.0622137
0.0130829
0.0619146
0.0901413
0.105682
0.112757
0.11425
0.111062
0.100307
0.0777312
0.0865667
0.0109653
-0.0150605
0.907904
13.4089
2.47936
0.133239
-0.105797
8.3342
7.84015
1.03521
-1.3842
-1.80261
-2.17669
-2.54092
-2.8901
-3.20931
-3.41435
-3.3499
-3.06879
-2.66724
7.22825
9.55751
1.05059
-0.757661
-0.649173
-0.544495
-0.450656
-0.366284
-0.286191
-0.209973
-0.144165
-0.0951366
-0.0641481
-0.0447322
-0.0192113
0.0138628
0.290544
0.398528
0.504481
0.605019
0.965144
1.54928
0.229164
0.18793
3.54597
9.18237
9.18754
7.93501
10.262
10.1925
8.31738
0.252836
0.136845
0.281048
0.147236
0.130661
0.138066
0.120251
0.0892038
0.058263
0.0172176
-0.0381371
-0.109041
-0.177235
-0.213574
-0.198358
-0.177711
-0.136993
-0.0814946
-0.0237874
0.019818
0.0484976
0.0651165
0.0731279
0.0750129
0.0733445
0.0687597
0.128361
0.37754
0.380626
0.0947688
-0.0827374
0.203378
13.4585
13.6466
0.707404
0.108421
3.76605
7.81626
7.41097
-1.25085
-1.65273
-1.97522
-2.27314
-2.54488
-2.77399
-2.9233
-2.90271
-2.70961
-2.35604
7.02431
7.71776
0.118769
-0.691562
-0.593094
-0.496389
-0.410068
-0.333563
-0.263232
-0.198271
-0.142671
-0.100331
-0.0718293
-0.0355711
0.0525169
0.0143611
0.023466
0.0218752
0.519171
0.614315
1.41006
1.51951
0.240677
0.269374
7.26988
9.21079
7.51887
10.0506
10.1879
6.44973
0.213964
0.21511
0.0975013
0.185596
0.0994782
0.104798
0.116272
0.0952731
0.0790374
0.0568918
0.0280966
-0.0077395
-0.0483099
-0.0832163
-0.0994114
-0.0944093
-0.079379
-0.0576007
-0.0285679
0.000235435
0.0222385
0.0367464
0.043835
0.0445662
0.0399647
0.0320645
0.127121
0.403625
0.373162
0.330851
0.269185
-0.123851
-0.115273
5.9537
13.6902
2.2205
0.160929
0.142218
7.70866
7.0587
4.27062
-1.38743
-1.69504
-1.9329
-2.1348
-2.29703
-2.40787
-2.41931
-2.29812
1.64073
7.58171
7.37762
0.35758
-0.602083
-0.522101
-0.438685
-0.363303
-0.29695
-0.237078
-0.183143
-0.137373
-0.101993
-0.0766832
0.111332
0.223974
0.178529
0.0113738
0.0119069
0.406603
0.64879
0.689305
0.734295
0.215677
2.72899
5.23563
1.31407
0.288815
6.23287
4.87868
0.481549
0.498113
0.213756
0.0439815
0.0579241
0.0748687
0.0837008
0.0847342
0.0788813
0.0687708
0.0533808
0.0334027
0.00972043
-0.0150594
-0.0354262
-0.0460259
-0.0457091
-0.0365188
-0.0225492
-0.0065621
0.00842089
0.0195605
0.0255347
0.0257721
0.0200915
0.00773865
0.0457985
0.376365
0.352271
0.318299
0.276635
0.220475
-0.0645457
-0.155351
-0.0832758
13.7407
8.46296
0.105041
0.418821
3.04838
6.89187
6.58745
5.06521
0.808407
-1.6119
-1.6006
0.297114
0.598865
-1.56403
-1.88891
6.39099
7.91124
7.7185
0.200069
-0.508101
-0.444624
-0.375728
-0.312845
-0.25768
-0.2084
-0.164849
-0.128271
-0.0997441
-0.0786768
0.148679
0.223127
0.234698
0.0710081
0.0056825
0.0970308
0.799371
0.627444
1.63442
0.207174
2.78193
1.86165
0.237031
0.290486
0.317338
0.322903
0.640386
0.663001
0.129261
0.0408883
0.0498786
0.0608479
0.0668947
0.0684653
0.0660082
0.0594164
0.0488825
0.0352477
0.0196066
0.00400609
-0.00850374
-0.015687
-0.0171958
-0.0135142
-0.00687033
0.00163965
0.00945117
0.0144541
0.0152623
0.0109732
0.000382547
-0.0188414
-0.0159724
0.206281
0.247634
0.133342
0.174141
0.170949
0.0371859
-0.210032
0.148073
13.707
13.5031
1.71189
0.60494
0.663038
5.47966
6.29126
5.96301
5.68834
4.52118
4.80558
5.24425
5.07538
0.457064
2.03012
8.089
8.44052
5.53012
-0.26802
-0.416198
-0.365701
-0.311133
-0.261111
-0.217187
-0.17827
-0.144271
-0.115876
-0.0935338
-0.0767306
-0.0588093
0.219384
0.233696
0.0824218
-0.00145167
0.0436784
1.04611
0.957125
4.66936
0.255567
0.373617
1.09029
0.791877
0.316326
0.325371
0.340704
0.664958
0.542683
0.0526136
0.0349333
0.043892
0.0508605
0.0554988
0.0570318
0.0556926
0.0512921
0.0441608
0.0348348
0.0243102
0.0138917
0.00531377
-0.000153154
-0.00231876
-0.00194664
0.00106024
0.00465183
0.00755086
0.00834732
0.00582305
-0.00117619
-0.0143796
-0.0364971
-0.0647706
-0.092229
-0.14938
-0.188747
-0.234386
0.13226
0.0566887
-0.216933
-0.472587
4.68317
13.7046
1.64169
0.662386
0.833722
0.893904
5.7245
5.99058
5.70537
5.64997
5.67766
5.62684
5.62414
1.48409
5.61847
8.58802
8.94677
3.02481
-0.339227
-0.326899
-0.289317
-0.248515
-0.210803
-0.17751
-0.14806
-0.122464
-0.101041
-0.0839105
-0.0707424
-0.0612902
-0.00352412
0.00381212
-0.0260894
0.0548564
-0.0126865
0.286326
4.65491
4.7447
0.865023
1.83622
1.79912
1.76865
0.690913
0.367845
0.310908
0.290947
0.0315659
0.0271858
0.0326368
0.0384647
0.0433779
0.0467775
0.0481392
0.0473921
0.0444618
0.0395157
0.0330947
0.0258105
0.0185112
0.0121811
0.0075343
0.00476366
0.00358332
0.00369569