/*--------------------------------*- C++ -*----------------------------------*\
| =========                 |                                                 |
| \\      /  F ield         | OpenFOAM: The Open Source CFD Toolbox           |
|  \\    /   O peration     | Version:  2412                                  |
|   \\  /    A nd           | Website:  www.openfoam.com                      |
|    \\/     M anipulation  |                                                 |
\*---------------------------------------------------------------------------*/
FoamFile
{
    version     2.0;
    format      ascii;
    arch        "LSB;label=32;scalar=64";
    class       volScalarField;
    location    "3.55";
    object      p;
}
// * * * * * * * * * * * * * * * * * * * * * * * * * * * * * * * * * * * * * //

dimensions      [1 -1 -2 0 0 0 0];

internalField   nonuniform List<scalar> 
6400
(
8188.77
8188.91
8188.9
8188.62
8188.06
8187.25
8186.2
8184.96
8183.54
8181.97
8180.26
8178.43
8176.5
8174.48
8172.38
8170.23
8168.02
8165.79
8163.55
8161.3
8159.07
8156.88
8154.74
8152.66
8150.65
8148.73
8146.91
8145.19
8143.59
8142.11
8140.76
8139.54
8138.45
8137.49
8136.68
8135.99
8135.45
8135.04
8134.77
8134.63
8134.62
8134.75
8135.01
8135.4
8135.93
8136.59
8137.39
8138.31
8139.38
8140.57
8141.89
8143.34
8144.9
8146.58
8148.37
8150.25
8152.22
8154.27
8156.38
8158.53
8160.72
8162.93
8165.15
8167.35
8169.52
8171.65
8173.72
8175.72
8177.63
8179.43
8181.11
8182.66
8184.06
8185.28
8186.3
8187.09
8187.63
8187.89
8187.89
8187.74
7771.7
7771.84
7771.82
7771.53
7770.98
7770.19
7769.17
7767.95
7766.55
7765
7763.3
7761.48
7759.55
7757.53
7755.44
7753.28
7751.08
7748.85
7746.6
7744.37
7742.15
7739.96
7737.83
7735.75
7733.76
7731.85
7730.03
7728.33
7726.74
7725.26
7723.92
7722.7
7721.62
7720.67
7719.85
7719.17
7718.63
7718.22
7717.94
7717.8
7717.8
7717.93
7718.19
7718.58
7719.11
7719.77
7720.57
7721.49
7722.55
7723.74
7725.06
7726.5
7728.06
7729.73
7731.51
7733.38
7735.34
7737.37
7739.47
7741.62
7743.8
7746.01
7748.21
7750.41
7752.58
7754.71
7756.78
7758.77
7760.67
7762.47
7764.14
7765.67
7767.04
7768.24
7769.23
7770.01
7770.54
7770.81
7770.82
7770.67
7354.78
7354.94
7354.92
7354.63
7354.08
7353.29
7352.29
7351.08
7349.69
7348.14
7346.44
7344.61
7342.68
7340.64
7338.53
7336.36
7334.15
7331.91
7329.66
7327.41
7325.19
7323
7320.86
7318.79
7316.8
7314.89
7313.08
7311.38
7309.79
7308.32
7306.98
7305.77
7304.69
7303.74
7302.93
7302.25
7301.71
7301.3
7301.03
7300.89
7300.88
7301.01
7301.27
7301.67
7302.2
7302.86
7303.65
7304.58
7305.64
7306.82
7308.14
7309.57
7311.13
7312.8
7314.57
7316.44
7318.4
7320.43
7322.53
7324.68
7326.86
7329.07
7331.29
7333.49
7335.67
7337.81
7339.89
7341.89
7343.8
7345.6
7347.27
7348.8
7350.16
7351.35
7352.33
7353.09
7353.62
7353.9
7353.91
7353.74
6938.14
6938.31
6938.29
6937.99
6937.43
6936.64
6935.62
6934.41
6933.01
6931.44
6929.72
6927.87
6925.9
6923.84
6921.7
6919.5
6917.25
6914.98
6912.7
6910.43
6908.19
6905.98
6903.83
6901.75
6899.74
6897.83
6896.01
6894.31
6892.72
6891.25
6889.91
6888.69
6887.61
6886.67
6885.86
6885.18
6884.64
6884.24
6883.97
6883.83
6883.82
6883.95
6884.22
6884.61
6885.14
6885.8
6886.59
6887.52
6888.58
6889.77
6891.08
6892.52
6894.08
6895.75
6897.53
6899.4
6901.37
6903.41
6905.53
6907.69
6909.9
6912.13
6914.37
6916.6
6918.81
6920.98
6923.08
6925.11
6927.05
6928.87
6930.56
6932.11
6933.48
6934.67
6935.66
6936.43
6936.97
6937.26
6937.27
6937.09
6521.79
6521.95
6521.92
6521.6
6521.02
6520.2
6519.17
6517.92
6516.49
6514.88
6513.13
6511.23
6509.22
6507.11
6504.92
6502.67
6500.38
6498.06
6495.74
6493.43
6491.15
6488.91
6486.73
6484.62
6482.59
6480.66
6478.83
6477.12
6475.52
6474.04
6472.7
6471.48
6470.4
6469.46
6468.65
6467.98
6467.44
6467.04
6466.77
6466.63
6466.63
6466.76
6467.02
6467.42
6467.95
6468.61
6469.4
6470.33
6471.39
6472.58
6473.9
6475.34
6476.91
6478.59
6480.38
6482.27
6484.26
6486.33
6488.47
6490.67
6492.91
6495.18
6497.46
6499.73
6501.99
6504.2
6506.35
6508.43
6510.41
6512.27
6514
6515.58
6516.99
6518.21
6519.22
6520.01
6520.57
6520.88
6520.9
6520.72
6105.74
6105.88
6105.81
6105.46
6104.85
6103.99
6102.92
6101.63
6100.14
6098.48
6096.67
6094.71
6092.64
6090.46
6088.2
6085.89
6083.53
6081.15
6078.77
6076.4
6074.07
6071.78
6069.56
6067.41
6065.35
6063.39
6061.54
6059.81
6058.2
6056.71
6055.36
6054.14
6053.06
6052.11
6051.31
6050.64
6050.1
6049.7
6049.43
6049.3
6049.3
6049.43
6049.7
6050.09
6050.62
6051.28
6052.08
6053.01
6054.07
6055.26
6056.59
6058.04
6059.62
6061.32
6063.14
6065.05
6067.07
6069.18
6071.35
6073.6
6075.89
6078.21
6080.55
6082.89
6085.2
6087.48
6089.7
6091.84
6093.88
6095.81
6097.59
6099.22
6100.68
6101.94
6103
6103.83
6104.42
6104.76
6104.81
6104.65
5689.97
5690.08
5689.97
5689.57
5688.91
5688.01
5686.87
5685.52
5683.97
5682.24
5680.35
5678.31
5676.15
5673.89
5671.55
5669.14
5666.7
5664.24
5661.78
5659.34
5656.94
5654.59
5652.31
5650.12
5648.01
5646.02
5644.14
5642.38
5640.75
5639.25
5637.89
5636.66
5635.58
5634.63
5633.83
5633.16
5632.63
5632.23
5631.97
5631.84
5631.84
5631.97
5632.24
5632.63
5633.16
5633.82
5634.62
5635.55
5636.62
5637.82
5639.15
5640.62
5642.22
5643.94
5645.78
5647.74
5649.79
5651.95
5654.18
5656.48
5658.83
5661.23
5663.64
5666.06
5668.46
5670.82
5673.12
5675.35
5677.47
5679.48
5681.34
5683.04
5684.56
5685.89
5687
5687.88
5688.52
5688.9
5688.99
5688.87
5274.5
5274.56
5274.4
5273.95
5273.22
5272.25
5271.05
5269.62
5267.98
5266.16
5264.17
5262.03
5259.76
5257.39
5254.94
5252.43
5249.89
5247.33
5244.77
5242.24
5239.76
5237.33
5234.98
5232.73
5230.57
5228.53
5226.61
5224.82
5223.17
5221.65
5220.28
5219.05
5217.96
5217.01
5216.21
5215.55
5215.02
5214.63
5214.37
5214.24
5214.24
5214.38
5214.64
5215.04
5215.56
5216.23
5217.02
5217.96
5219.03
5220.24
5221.59
5223.07
5224.69
5226.44
5228.32
5230.32
5232.43
5234.64
5236.93
5239.31
5241.75
5244.23
5246.73
5249.25
5251.75
5254.22
5256.63
5258.96
5261.19
5263.29
5265.25
5267.04
5268.64
5270.05
5271.23
5272.17
5272.87
5273.31
5273.45
5273.37
4859.33
4859.33
4859.1
4858.58
4857.79
4856.74
4855.44
4853.92
4852.18
4850.25
4848.14
4845.88
4843.48
4840.98
4838.4
4835.76
4833.09
4830.41
4827.73
4825.1
4822.51
4819.99
4817.56
4815.24
4813.02
4810.92
4808.96
4807.13
4805.45
4803.91
4802.53
4801.29
4800.2
4799.25
4798.45
4797.79
4797.27
4796.89
4796.63
4796.51
4796.52
4796.65
4796.91
4797.31
4797.83
4798.49
4799.29
4800.22
4801.3
4802.52
4803.88
4805.39
4807.03
4808.82
4810.74
4812.79
4814.96
4817.24
4819.62
4822.08
4824.61
4827.2
4829.82
4832.45
4835.08
4837.67
4840.21
4842.67
4845.02
4847.25
4849.32
4851.22
4852.93
4854.42
4855.69
4856.71
4857.48
4857.98
4858.19
4858.16
4444.45
4444.39
4444.09
4443.48
4442.6
4441.46
4440.07
4438.43
4436.57
4434.51
4432.26
4429.85
4427.31
4424.65
4421.91
4419.12
4416.3
4413.47
4410.66
4407.9
4405.19
4402.57
4400.05
4397.63
4395.34
4393.19
4391.17
4389.3
4387.59
4386.03
4384.63
4383.38
4382.29
4381.35
4380.56
4379.91
4379.39
4379.02
4378.77
4378.65
4378.66
4378.79
4379.06
4379.45
4379.97
4380.62
4381.41
4382.35
4383.42
4384.65
4386.03
4387.56
4389.24
4391.07
4393.04
4395.15
4397.39
4399.75
4402.22
4404.78
4407.43
4410.14
4412.89
4415.67
4418.44
4421.18
4423.87
4426.48
4428.98
4431.35
4433.56
4435.59
4437.42
4439.02
4440.39
4441.51
4442.36
4442.94
4443.22
4443.25
4029.89
4029.75
4029.35
4028.66
4027.68
4026.44
4024.93
4023.17
4021.17
4018.95
4016.55
4013.97
4011.24
4008.4
4005.48
4002.51
3999.51
3996.52
3993.55
3990.64
3987.8
3985.05
3982.42
3979.91
3977.53
3975.31
3973.23
3971.32
3969.57
3967.99
3966.57
3965.32
3964.23
3963.3
3962.52
3961.88
3961.38
3961.01
3960.78
3960.66
3960.68
3960.81
3961.07
3961.45
3961.97
3962.61
3963.4
3964.33
3965.41
3966.64
3968.03
3969.58
3971.29
3973.17
3975.19
3977.37
3979.69
3982.14
3984.72
3987.41
3990.18
3993.04
3995.94
3998.88
4001.82
4004.74
4007.61
4010.4
4013.08
4015.62
4017.99
4020.17
4022.13
4023.87
4025.34
4026.56
4027.51
4028.17
4028.54
4028.65
3615.64
3615.41
3614.91
3614.11
3613.04
3611.68
3610.04
3608.14
3605.98
3603.59
3600.99
3598.22
3595.29
3592.24
3589.11
3585.93
3582.73
3579.54
3576.39
3573.3
3570.31
3567.42
3564.66
3562.04
3559.58
3557.27
3555.14
3553.17
3551.39
3549.78
3548.35
3547.1
3546.02
3545.09
3544.33
3543.71
3543.23
3542.88
3542.66
3542.55
3542.57
3542.7
3542.96
3543.33
3543.84
3544.47
3545.24
3546.16
3547.23
3548.47
3549.87
3551.45
3553.2
3555.11
3557.2
3559.45
3561.86
3564.42
3567.11
3569.93
3572.86
3575.88
3578.96
3582.09
3585.23
3588.36
3591.43
3594.43
3597.31
3600.05
3602.61
3604.96
3607.08
3608.96
3610.56
3611.89
3612.93
3613.7
3614.17
3614.37
3201.73
3201.38
3200.75
3199.85
3198.67
3197.19
3195.42
3193.36
3191.02
3188.43
3185.62
3182.61
3179.45
3176.16
3172.79
3169.37
3165.93
3162.52
3159.16
3155.88
3152.71
3149.67
3146.77
3144.03
3141.46
3139.07
3136.87
3134.85
3133.03
3131.4
3129.96
3128.71
3127.64
3126.74
3125.99
3125.4
3124.95
3124.62
3124.41
3124.32
3124.34
3124.48
3124.72
3125.09
3125.57
3126.19
3126.94
3127.84
3128.9
3130.14
3131.55
3133.14
3134.93
3136.9
3139.05
3141.38
3143.89
3146.56
3149.38
3152.35
3155.45
3158.65
3161.94
3165.28
3168.65
3172.02
3175.33
3178.57
3181.69
3184.65
3187.42
3189.98
3192.28
3194.31
3196.05
3197.49
3198.64
3199.51
3200.1
3200.43
2788.15
2787.64
2786.87
2785.86
2784.58
2783
2781.09
2778.85
2776.31
2773.49
2770.43
2767.16
2763.73
2760.17
2756.52
2752.82
2749.11
2745.44
2741.85
2738.35
2734.99
2731.77
2728.72
2725.85
2723.17
2720.69
2718.41
2716.34
2714.48
2712.83
2711.38
2710.14
2709.09
2708.22
2707.51
2706.96
2706.54
2706.24
2706.05
2705.98
2706
2706.13
2706.37
2706.72
2707.18
2707.76
2708.48
2709.36
2710.4
2711.62
2713.04
2714.65
2716.47
2718.49
2720.72
2723.14
2725.75
2728.54
2731.52
2734.65
2737.93
2741.34
2744.86
2748.45
2752.08
2755.72
2759.32
2762.83
2766.22
2769.44
2772.46
2775.24
2777.75
2779.95
2781.83
2783.39
2784.64
2785.6
2786.34
2786.8
2374.87
2374.17
2373.25
2372.16
2370.81
2369.12
2367.07
2364.65
2361.88
2358.8
2355.46
2351.89
2348.14
2344.26
2340.29
2336.27
2332.26
2328.3
2324.44
2320.7
2317.11
2313.71
2310.49
2307.48
2304.68
2302.1
2299.74
2297.62
2295.72
2294.05
2292.61
2291.38
2290.36
2289.53
2288.88
2288.37
2288
2287.74
2287.58
2287.52
2287.55
2287.68
2287.9
2288.22
2288.65
2289.2
2289.88
2290.7
2291.71
2292.91
2294.33
2295.96
2297.81
2299.89
2302.18
2304.7
2307.43
2310.36
2313.48
2316.8
2320.29
2323.93
2327.71
2331.58
2335.52
2339.47
2343.39
2347.22
2350.92
2354.44
2357.74
2360.78
2363.52
2365.91
2367.93
2369.59
2370.91
2371.96
2372.84
2373.48
1961.77
1960.89
1959.84
1958.73
1957.35
1955.59
1953.41
1950.79
1947.76
1944.38
1940.71
1936.79
1932.69
1928.44
1924.1
1919.73
1915.36
1911.07
1906.9
1902.89
1899.07
1895.45
1892.06
1888.9
1885.97
1883.28
1880.85
1878.67
1876.74
1875.05
1873.61
1872.42
1871.45
1870.68
1870.1
1869.66
1869.34
1869.13
1869.01
1868.97
1869.01
1869.13
1869.33
1869.62
1870.01
1870.51
1871.12
1871.88
1872.83
1874.01
1875.4
1877.05
1878.94
1881.07
1883.44
1886.05
1888.9
1891.97
1895.26
1898.78
1902.49
1906.4
1910.46
1914.65
1918.93
1923.25
1927.54
1931.74
1935.79
1939.65
1943.28
1946.62
1949.62
1952.22
1954.39
1956.12
1957.46
1958.54
1959.53
1960.36
1548.69
1547.67
1546.57
1545.55
1544.24
1542.45
1540.14
1537.3
1533.96
1530.23
1526.18
1521.87
1517.36
1512.7
1507.95
1503.16
1498.39
1493.72
1489.22
1484.92
1480.83
1476.99
1473.42
1470.1
1467.04
1464.24
1461.74
1459.5
1457.53
1455.82
1454.39
1453.25
1452.33
1451.65
1451.16
1450.81
1450.58
1450.43
1450.35
1450.33
1450.38
1450.48
1450.66
1450.92
1451.26
1451.69
1452.21
1452.86
1453.75
1454.88
1456.25
1457.91
1459.84
1462.03
1464.48
1467.2
1470.18
1473.4
1476.86
1480.57
1484.53
1488.72
1493.09
1497.64
1502.32
1507.06
1511.78
1516.38
1520.83
1525.08
1529.09
1532.78
1536.09
1538.92
1541.22
1542.99
1544.27
1545.25
1546.28
1547.23
1135.33
1134.28
1133.33
1132.61
1131.5
1129.75
1127.31
1124.21
1120.49
1116.33
1111.84
1107.09
1102.14
1097.03
1091.84
1086.58
1081.33
1076.23
1071.37
1066.74
1062.39
1058.32
1054.57
1051.11
1047.88
1044.94
1042.36
1040.07
1038.02
1036.26
1034.87
1033.8
1032.96
1032.38
1032.04
1031.81
1031.68
1031.62
1031.58
1031.6
1031.66
1031.73
1031.88
1032.11
1032.38
1032.73
1033.12
1033.6
1034.4
1035.46
1036.79
1038.47
1040.47
1042.73
1045.27
1048.13
1051.26
1054.63
1058.24
1062.16
1066.38
1070.87
1075.58
1080.51
1085.65
1090.91
1096.11
1101.16
1106.04
1110.71
1115.13
1119.25
1122.94
1126.07
1128.49
1130.23
1131.32
1132.01
1132.88
1133.85
720.293
719.838
720.029
720.232
719.57
717.916
715.343
711.865
707.648
702.928
697.923
692.667
687.188
681.566
675.855
670.006
664.102
658.44
653.164
648.178
643.47
639.118
635.204
631.599
628.152
625.047
622.417
620.112
618.01
616.17
614.854
613.986
613.197
612.82
612.742
612.673
612.702
612.773
612.755
612.828
612.923
612.907
613.007
613.23
613.378
613.696
613.873
613.919
614.653
615.624
616.811
618.482
620.574
622.887
625.491
628.495
631.838
635.356
639.096
643.239
647.788
652.641
657.744
663.125
668.871
674.841
680.689
686.246
691.586
696.74
701.678
706.346
710.556
714.037
716.653
718.297
718.974
718.755
718.481
718.779
307
309.7
313.054
315.052
315.195
314.028
311.826
308.557
304.402
299.675
294.879
289.949
284.837
279.75
274.833
269.891
264.703
259.606
254.937
250.7
246.899
243.614
240.842
238.104
235.137
232.532
230.685
229.321
228.25
227.647
227.65
227.73
227.232
226.428
225.746
224.98
224.328
223.936
223.662
223.524
223.551
223.732
224.054
224.481
225.032
225.904
226.822
227.702
228.672
229.03
228.974
229.296
230.236
231.539
233.246
235.637
238.49
241.337
244.067
247.094
250.675
254.743
259.182
263.946
269.188
274.473
279.494
284.321
289.163
293.964
298.662
303.294
307.478
310.808
313.129
314.215
314.149
312.222
308.865
305.991
44.3234
48.284
51.371
53.0603
53.5629
53.2298
52.2726
50.9426
49.4063
47.3727
45.2305
42.9608
40.6318
38.4374
36.342
34.4355
32.7939
30.9251
29.1445
27.5302
26.1702
25.0445
23.9926
22.881
22.2927
21.6711
21.1656
20.9347
20.9826
21.3244
21.473
21.1392
20.7964
20.1065
19.3529
18.5596
17.8175
17.3428
17.1146
16.9187
16.8638
17.1148
17.3932
17.6584
18.1987
18.8903
19.7972
20.9249
21.5334
21.9443
22.1383
21.9159
21.7616
21.8999
22.2932
22.8839
23.4382
24.463
25.6771
26.7807
28.0292
29.5391
31.2643
33.1063
34.9998
36.5768
38.383
40.4587
42.6958
44.9158
47.0335
49.0129
50.5988
51.9178
52.8906
53.2891
52.7972
51.1825
48.1604
44.195
-10.2626
-10.2368
-10.2314
-10.2298
-10.2125
-10.1968
-10.188
-10.0204
-9.41015
-9.10933
-8.99079
-9.00497
-9.06832
-9.04827
-9.23491
-9.34257
-8.62957
-8.26977
-8.10129
-8.04897
-8.10282
-8.29221
-8.67748
-9.1481
-8.08666
-7.62467
-7.58319
-7.62459
-7.66392
-7.83227
-8.6963
-10.0736
-10.4201
-10.4131
-10.4226
-10.436
-10.4358
-10.4209
-10.4057
-10.3901
-10.3857
-10.4058
-10.4177
-10.4294
-10.4367
-10.4265
-10.4131
-10.4183
-10.2999
-9.43642
-8.06362
-7.49766
-7.36628
-7.29999
-7.27911
-7.57654
-8.53359
-8.54681
-7.88573
-7.56335
-7.4451
-7.45608
-7.56929
-7.7901
-8.24559
-9.18609
-9.34289
-9.19147
-9.03021
-8.97701
-9.05869
-9.30809
-9.89505
-10.136
-10.166
-10.1775
-10.1878
-10.1834
-10.1867
-10.2137
-10.7282
-10.7225
-10.7127
-10.7013
-10.6879
-10.6767
-10.6833
-10.6614
-10.4817
-10.2815
-10.1356
-10.0506
-10.0255
-10.0196
-10.0988
-10.1659
-9.94994
-9.75982
-9.64367
-9.61343
-9.65179
-9.78173
-9.97199
-10.1631
-9.76791
-9.59578
-9.64575
-9.70904
-9.75259
-9.87915
-10.4568
-10.8783
-10.9055
-10.8875
-10.898
-10.9083
-10.9148
-10.9144
-10.9085
-10.9016
-10.9003
-10.908
-10.9133
-10.9145
-10.9105
-10.9001
-10.8891
-10.8976
-10.8923
-10.727
-10.0905
-9.68853
-9.60099
-9.53052
-9.44644
-9.4862
-9.80704
-9.79936
-9.59816
-9.38839
-9.30309
-9.31004
-9.39152
-9.56447
-9.80557
-10.1155
-10.1164
-10.075
-10.0476
-10.0928
-10.2239
-10.4032
-10.6045
-10.6462
-10.6413
-10.6515
-10.66
-10.6669
-10.6742
-10.6799
-11.215
-11.2106
-11.2053
-11.1987
-11.1863
-11.1724
-11.1737
-11.1829
-11.1849
-11.1613
-11.1292
-11.0952
-11.0713
-11.0835
-11.131
-11.1845
-11.2583
-11.2281
-11.1761
-11.1692
-11.1967
-11.2629
-11.2836
-11.2567
-11.3907
-11.4037
-11.4065
-11.4114
-11.4168
-11.4232
-11.4308
-11.427
-11.4128
-11.4038
-11.413
-11.4241
-11.425
-11.4166
-11.4086
-11.4008
-11.3997
-11.4071
-11.4124
-11.4193
-11.4238
-11.4172
-11.4053
-11.4089
-11.4215
-11.4292
-11.4258
-11.4108
-11.4043
-11.398
-11.3936
-11.3674
-11.1821
-11.1582
-11.275
-11.1825
-11.1288
-11.1213
-11.1562
-11.2398
-11.247
-11.1305
-11.0535
-11.04
-11.0533
-11.0798
-11.1218
-11.1607
-11.1672
-11.1525
-11.1448
-11.1536
-11.1586
-11.1584
-11.1609
-11.1656
-11.7119
-11.7127
-11.7196
-11.7152
-11.6941
-11.6679
-11.657
-11.6589
-11.6648
-11.6841
-11.7222
-11.7571
-11.7864
-11.8059
-11.8189
-11.8237
-11.8221
-11.8281
-11.8466
-11.8623
-11.8746
-11.8772
-11.8848
-11.8892
-11.8922
-11.8943
-11.8949
-11.8969
-11.8995
-11.9039
-11.9135
-11.9181
-11.9118
-11.9088
-11.9189
-11.9319
-11.93
-11.9192
-11.9117
-11.9054
-11.9036
-11.9084
-11.9115
-11.9205
-11.9287
-11.9246
-11.9109
-11.9095
-11.9169
-11.9159
-11.9048
-11.8939
-11.8891
-11.886
-11.8841
-11.8811
-11.8796
-11.8721
-11.8599
-11.8578
-11.848
-11.832
-11.8124
-11.792
-11.7873
-11.7811
-11.7707
-11.7532
-11.7298
-11.6986
-11.6655
-11.6524
-11.6527
-11.6429
-11.6491
-11.6688
-11.6799
-11.676
-11.6649
-11.6633
-12.2284
-12.2517
-12.2787
-12.2692
-12.2233
-12.1693
-12.1375
-12.1308
-12.1429
-12.1641
-12.1977
-12.2323
-12.2637
-12.2893
-12.3059
-12.3143
-12.3221
-12.3323
-12.3438
-12.3552
-12.3656
-12.3738
-12.3803
-12.3835
-12.3841
-12.387
-12.3909
-12.395
-12.3982
-12.4033
-12.413
-12.4129
-12.4089
-12.4066
-12.4175
-12.4315
-12.4282
-12.4145
-12.407
-12.4023
-12.4002
-12.402
-12.4055
-12.4149
-12.4265
-12.4225
-12.408
-12.4043
-12.4104
-12.4127
-12.4018
-12.3916
-12.3864
-12.3815
-12.3765
-12.3725
-12.3699
-12.3646
-12.3571
-12.3493
-12.338
-12.3248
-12.3105
-12.2958
-12.2815
-12.269
-12.2572
-12.2357
-12.206
-12.174
-12.1467
-12.1335
-12.128
-12.1313
-12.1615
-12.208
-12.2393
-12.234
-12.2005
-12.1797
-12.765
-12.8212
-12.863
-12.843
-12.7667
-12.675
-12.6148
-12.5962
-12.616
-12.6563
-12.6982
-12.7306
-12.7577
-12.78
-12.7968
-12.8087
-12.8194
-12.8305
-12.8415
-12.8515
-12.8597
-12.8664
-12.8724
-12.877
-12.8794
-12.8809
-12.883
-12.8851
-12.8876
-12.8912
-12.8959
-12.8993
-12.8994
-12.8988
-12.909
-12.922
-12.9187
-12.9054
-12.8983
-12.8955
-12.8933
-12.8937
-12.8967
-12.9045
-12.9137
-12.9106
-12.8972
-12.8909
-12.8911
-12.8888
-12.8847
-12.88
-12.8761
-12.873
-12.8703
-12.8679
-12.8643
-12.8581
-12.8503
-12.8427
-12.8335
-12.8219
-12.8084
-12.7936
-12.7791
-12.7654
-12.75
-12.729
-12.7018
-12.6705
-12.6345
-12.6026
-12.5896
-12.6148
-12.6764
-12.7558
-12.8079
-12.801
-12.7511
-12.7088
-13.2822
-13.3528
-13.4005
-13.3778
-13.2883
-13.1785
-13.1016
-13.084
-13.1089
-13.1495
-13.1886
-13.2249
-13.2545
-13.2776
-13.2953
-13.309
-13.3204
-13.3309
-13.3406
-13.3493
-13.3565
-13.3624
-13.367
-13.3706
-13.3733
-13.3756
-13.378
-13.3803
-13.3825
-13.3847
-13.386
-13.3857
-13.3848
-13.3855
-13.3935
-13.4028
-13.4014
-13.3932
-13.3885
-13.3869
-13.3854
-13.3852
-13.3872
-13.3909
-13.3943
-13.3913
-13.3822
-13.3764
-13.3758
-13.377
-13.377
-13.3744
-13.3712
-13.3679
-13.3644
-13.3608
-13.3568
-13.3518
-13.3457
-13.3387
-13.3301
-13.3197
-13.3075
-13.2941
-13.2797
-13.2643
-13.2464
-13.2241
-13.1966
-13.1638
-13.1265
-13.0913
-13.0723
-13.1
-13.18
-13.2753
-13.3375
-13.3316
-13.2702
-13.2137
-13.7463
-13.8225
-13.8757
-13.8626
-13.7797
-13.6736
-13.6016
-13.5871
-13.6115
-13.6512
-13.6922
-13.7285
-13.758
-13.7811
-13.7988
-13.8125
-13.8236
-13.8331
-13.8413
-13.8484
-13.8543
-13.8591
-13.8629
-13.8658
-13.8681
-13.8701
-13.8718
-13.8733
-13.8746
-13.8756
-13.8758
-13.875
-13.8733
-13.8737
-13.8782
-13.8839
-13.885
-13.8822
-13.8798
-13.8787
-13.8779
-13.8777
-13.8788
-13.8797
-13.879
-13.8753
-13.8701
-13.8669
-13.867
-13.8676
-13.8667
-13.8655
-13.8635
-13.8611
-13.8584
-13.8553
-13.8517
-13.8474
-13.8421
-13.8358
-13.8283
-13.8193
-13.8088
-13.7967
-13.783
-13.7674
-13.7488
-13.726
-13.6983
-13.6658
-13.6294
-13.5953
-13.5755
-13.5946
-13.6686
-13.7615
-13.8198
-13.8119
-13.7436
-13.6712
-14.1514
-14.2279
-14.2957
-14.3076
-14.2541
-14.1742
-14.1146
-14.0979
-14.1228
-14.1617
-14.2048
-14.2418
-14.2702
-14.2916
-14.3076
-14.3197
-14.3292
-14.3369
-14.3434
-14.3488
-14.3532
-14.3567
-14.3594
-14.3617
-14.3635
-14.365
-14.3664
-14.3676
-14.3686
-14.3691
-14.3691
-14.368
-14.3668
-14.3663
-14.3683
-14.3719
-14.3741
-14.3738
-14.3723
-14.3713
-14.3708
-14.3705
-14.3713
-14.3714
-14.3701
-14.3669
-14.363
-14.3611
-14.3609
-14.3609
-14.3606
-14.3596
-14.3579
-14.3557
-14.3533
-14.3505
-14.3473
-14.3436
-14.3393
-14.3341
-14.328
-14.3206
-14.3117
-14.3013
-14.289
-14.2742
-14.2561
-14.2335
-14.2057
-14.1726
-14.1361
-14.1024
-14.0832
-14.0958
-14.1495
-14.2192
-14.2572
-14.2316
-14.1561
-14.0848
-14.5287
-14.6014
-14.6942
-14.7506
-14.7489
-14.701
-14.6421
-14.6195
-14.638
-14.6848
-14.7305
-14.7676
-14.7927
-14.8096
-14.8218
-14.8306
-14.8372
-14.8424
-14.8466
-14.8501
-14.8528
-14.8549
-14.8567
-14.8581
-14.8593
-14.8603
-14.8612
-14.862
-14.8625
-14.8627
-14.8625
-14.8618
-14.8612
-14.8609
-14.8624
-14.8648
-14.8663
-14.8663
-14.8653
-14.8644
-14.8641
-14.8638
-14.8644
-14.864
-14.8626
-14.8602
-14.8577
-14.856
-14.8554
-14.855
-14.8544
-14.8535
-14.8522
-14.8505
-14.8485
-14.8463
-14.8437
-14.8408
-14.8375
-14.8335
-14.8288
-14.8232
-14.8164
-14.8081
-14.798
-14.7855
-14.7695
-14.7492
-14.7236
-14.6916
-14.6546
-14.6199
-14.5961
-14.6045
-14.6387
-14.6726
-14.6713
-14.6162
-14.5314
-14.4647
-14.938
-15.0145
-15.1336
-15.2436
-15.3006
-15.2863
-15.2511
-15.2387
-15.2387
-15.2551
-15.2827
-15.3098
-15.3259
-15.3348
-15.3407
-15.3446
-15.3472
-15.3493
-15.3509
-15.3521
-15.3531
-15.3538
-15.3545
-15.355
-15.3556
-15.356
-15.3565
-15.3568
-15.357
-15.3569
-15.3567
-15.3562
-15.3559
-15.3561
-15.3569
-15.3584
-15.3595
-15.3595
-15.3586
-15.3579
-15.3578
-15.3575
-15.3577
-15.3573
-15.3561
-15.3543
-15.3524
-15.351
-15.3502
-15.3496
-15.349
-15.3483
-15.3472
-15.3459
-15.3444
-15.3427
-15.3409
-15.3388
-15.3365
-15.3338
-15.3308
-15.3271
-15.3227
-15.3172
-15.3102
-15.3011
-15.2892
-15.2734
-15.2523
-15.2221
-15.1828
-15.1377
-15.1149
-15.1271
-15.1565
-15.1589
-15.1113
-15.0196
-14.9177
-14.8557
-15.4291
-15.5117
-15.6598
-15.8282
-15.9608
-16.0251
-16.052
-16.0239
-15.9427
-15.8788
-15.861
-15.8681
-15.8695
-15.8659
-15.8632
-15.861
-15.8589
-15.8572
-15.8559
-15.8548
-15.8539
-15.8532
-15.8527
-15.8524
-15.8522
-15.8521
-15.8521
-15.852
-15.8518
-15.8516
-15.8512
-15.8509
-15.8507
-15.8508
-15.8514
-15.8523
-15.8529
-15.8528
-15.8521
-15.8516
-15.8516
-15.8514
-15.8513
-15.8508
-15.8498
-15.8485
-15.847
-15.8459
-15.8451
-15.8445
-15.844
-15.8434
-15.8427
-15.8418
-15.8408
-15.8397
-15.8386
-15.8374
-15.8362
-15.835
-15.8336
-15.8321
-15.8304
-15.8281
-15.8251
-15.8208
-15.8147
-15.8062
-15.7938
-15.7732
-15.7443
-15.7169
-15.6935
-15.6935
-15.7154
-15.7
-15.6139
-15.4866
-15.3672
-15.3067
-16.0181
-16.1071
-16.2797
-16.5017
-16.7152
-16.8605
-16.9137
-16.839
-16.702
-16.5623
-16.4673
-16.4372
-16.4208
-16.4009
-16.3878
-16.3786
-16.3713
-16.3657
-16.3613
-16.3578
-16.3551
-16.353
-16.3514
-16.3502
-16.3492
-16.3485
-16.3479
-16.3474
-16.3469
-16.3465
-16.346
-16.3457
-16.3454
-16.3455
-16.3458
-16.3462
-16.3466
-16.3464
-16.3457
-16.3454
-16.3454
-16.3452
-16.3449
-16.3445
-16.3437
-16.3427
-16.3417
-16.3408
-16.3402
-16.3397
-16.3392
-16.3388
-16.3384
-16.338
-16.3375
-16.3371
-16.3368
-16.3366
-16.3366
-16.3368
-16.3373
-16.3381
-16.3392
-16.3406
-16.3422
-16.3437
-16.345
-16.3468
-16.3485
-16.3463
-16.3392
-16.3625
-16.4083
-16.4093
-16.3836
-16.3212
-16.1928
-16.031
-15.8909
-15.8373
-16.6807
-16.7721
-16.9574
-17.2119
-17.4872
-17.6832
-17.7059
-17.5953
-17.4335
-17.2533
-17.0967
-17.0148
-16.9718
-16.9354
-16.9123
-16.896
-16.8837
-16.8742
-16.8668
-16.861
-16.8565
-16.853
-16.8502
-16.8481
-16.8464
-16.845
-16.8439
-16.843
-16.8422
-16.8416
-16.8409
-16.8405
-16.8401
-16.84
-16.84
-16.8401
-16.8402
-16.8399
-16.8391
-16.8391
-16.8393
-16.839
-16.8386
-16.8382
-16.8376
-16.8369
-16.8362
-16.8356
-16.8352
-16.8349
-16.8346
-16.8345
-16.8344
-16.8344
-16.8345
-16.8348
-16.8353
-16.8361
-16.8373
-16.839
-16.8413
-16.8445
-16.8487
-16.854
-16.8606
-16.8688
-16.8787
-16.8934
-16.9135
-16.9323
-16.9768
-17.0766
-17.1951
-17.2332
-17.1505
-17.0219
-16.8437
-16.6474
-16.4847
-16.433
-17.3614
-17.4518
-17.6358
-17.8917
-18.1789
-18.3898
-18.4212
-18.3191
-18.1384
-17.9225
-17.7224
-17.59
-17.5146
-17.4669
-17.4351
-17.4122
-17.3952
-17.3821
-17.3719
-17.364
-17.3578
-17.3529
-17.349
-17.346
-17.3436
-17.3416
-17.34
-17.3387
-17.3376
-17.3367
-17.3359
-17.3352
-17.3348
-17.3344
-17.3343
-17.3341
-17.334
-17.3337
-17.3331
-17.3329
-17.3331
-17.3328
-17.3324
-17.3321
-17.3316
-17.3312
-17.3308
-17.3304
-17.3302
-17.3301
-17.3301
-17.3302
-17.3305
-17.331
-17.3316
-17.3326
-17.3339
-17.3357
-17.3381
-17.3413
-17.3455
-17.3511
-17.3583
-17.3676
-17.3795
-17.3948
-17.4145
-17.4434
-17.4801
-17.5359
-17.6512
-17.8042
-17.9496
-18.0287
-17.9488
-17.7681
-17.5423
-17.3203
-17.1538
-17.096
-18.011
-18.097
-18.2675
-18.5002
-18.7575
-18.9567
-19.0158
-18.9626
-18.8091
-18.5815
-18.3418
-18.1529
-18.0483
-17.9953
-17.9556
-17.9267
-17.9054
-17.8889
-17.8762
-17.8663
-17.8586
-17.8525
-17.8476
-17.8438
-17.8407
-17.8381
-17.8361
-17.8344
-17.833
-17.8318
-17.8308
-17.83
-17.8293
-17.8288
-17.8284
-17.8281
-17.8278
-17.8275
-17.827
-17.8268
-17.8268
-17.8265
-17.8262
-17.826
-17.8257
-17.8255
-17.8253
-17.8252
-17.8251
-17.8253
-17.8256
-17.826
-17.8267
-17.8275
-17.8287
-17.8303
-17.8324
-17.8352
-17.8387
-17.8433
-17.8493
-17.8571
-17.8673
-17.8805
-17.8977
-17.9202
-17.9506
-17.9936
-18.0502
-18.1486
-18.3195
-18.51
-18.6787
-18.7695
-18.7184
-18.5156
-18.2507
-18.0154
-17.8587
-17.8075
-18.5998
-18.6855
-18.8337
-19.0331
-19.2491
-19.4283
-19.5088
-19.4919
-19.3781
-19.1832
-18.9352
-18.7096
-18.5848
-18.5204
-18.4731
-18.4386
-18.4133
-18.394
-18.3791
-18.3676
-18.3586
-18.3515
-18.3458
-18.3412
-18.3375
-18.3345
-18.332
-18.33
-18.3283
-18.3268
-18.3256
-18.3246
-18.3238
-18.3231
-18.3226
-18.3221
-18.3217
-18.3213
-18.321
-18.3207
-18.3206
-18.3203
-18.3201
-18.3199
-18.3198
-18.3198
-18.3198
-18.3199
-18.3201
-18.3204
-18.321
-18.3217
-18.3227
-18.324
-18.3257
-18.3279
-18.3307
-18.3343
-18.3389
-18.3448
-18.3523
-18.3622
-18.375
-18.3918
-18.4138
-18.4433
-18.4842
-18.5409
-18.6217
-18.7638
-18.9776
-19.1902
-19.3593
-19.448
-19.4132
-19.2006
-18.9198
-18.6835
-18.5319
-18.4939
-19.1199
-19.2122
-19.3388
-19.5088
-19.6917
-19.8489
-19.9349
-19.9317
-19.8445
-19.6912
-19.4724
-19.2514
-19.1174
-19.0371
-18.9845
-18.9461
-18.918
-18.8967
-18.8804
-18.8676
-18.8576
-18.8496
-18.8432
-18.8381
-18.8339
-18.8305
-18.8277
-18.8253
-18.8234
-18.8217
-18.8203
-18.8191
-18.8182
-18.8174
-18.8167
-18.8161
-18.8157
-18.8152
-18.815
-18.8145
-18.8144
-18.8142
-18.814
-18.814
-18.814
-18.8141
-18.8142
-18.8145
-18.8149
-18.8155
-18.8163
-18.8173
-18.8186
-18.8203
-18.8224
-18.8252
-18.8286
-18.8329
-18.8384
-18.8453
-18.8542
-18.8657
-18.8807
-18.9003
-18.9263
-18.9615
-19.0107
-19.0796
-19.1867
-19.3721
-19.6181
-19.8215
-19.9519
-20.0246
-19.9837
-19.7703
-19.514
-19.2993
-19.1595
-19.1187
-19.5984
-19.6775
-19.7886
-19.9405
-20.1019
-20.2393
-20.3186
-20.3206
-20.2573
-20.1413
-19.9647
-19.754
-19.6225
-19.541
-19.4874
-19.4481
-19.4189
-19.3967
-19.3795
-19.366
-19.3554
-19.3469
-19.34
-19.3344
-19.3299
-19.3261
-19.323
-19.3205
-19.3183
-19.3164
-19.3149
-19.3135
-19.3124
-19.3115
-19.3108
-19.3101
-19.3096
-19.3091
-19.3089
-19.3084
-19.3083
-19.3081
-19.308
-19.308
-19.3081
-19.3083
-19.3086
-19.3091
-19.3096
-19.3104
-19.3114
-19.3127
-19.3143
-19.3163
-19.3188
-19.322
-19.3259
-19.3308
-19.3369
-19.3447
-19.3545
-19.3672
-19.3837
-19.4053
-19.4339
-19.4726
-19.527
-19.6042
-19.7318
-19.9428
-20.1934
-20.3614
-20.4578
-20.5042
-20.4457
-20.2464
-20.0308
-19.8508
-19.7383
-19.68
-20.0707
-20.1039
-20.1918
-20.329
-20.4757
-20.5949
-20.6646
-20.6679
-20.6265
-20.5551
-20.4151
-20.233
-20.1069
-20.0337
-19.9832
-19.9448
-19.9159
-19.8937
-19.8764
-19.8628
-19.8518
-19.8431
-19.8359
-19.8301
-19.8253
-19.8214
-19.8181
-19.8153
-19.8129
-19.8109
-19.8092
-19.8078
-19.8066
-19.8056
-19.8048
-19.8041
-19.8035
-19.8029
-19.8027
-19.8023
-19.8021
-19.802
-19.8019
-19.802
-19.8022
-19.8025
-19.8029
-19.8035
-19.8043
-19.8052
-19.8064
-19.8079
-19.8097
-19.812
-19.8148
-19.8183
-19.8226
-19.8279
-19.8345
-19.8427
-19.8532
-19.8665
-19.8837
-19.9062
-19.9359
-19.9761
-20.0318
-20.1112
-20.2482
-20.4617
-20.6842
-20.819
-20.8985
-20.9227
-20.8554
-20.683
-20.4859
-20.3186
-20.231
-20.1794
-20.5504
-20.5278
-20.5856
-20.7043
-20.8297
-20.925
-20.9814
-20.9841
-20.9732
-20.9618
-20.8512
-20.6951
-20.5845
-20.5189
-20.4724
-20.4367
-20.4093
-20.3879
-20.3713
-20.3578
-20.347
-20.3382
-20.331
-20.3251
-20.3202
-20.3161
-20.3127
-20.3098
-20.3073
-20.3052
-20.3034
-20.3019
-20.3006
-20.2996
-20.2987
-20.2979
-20.2973
-20.2968
-20.2965
-20.2961
-20.296
-20.2959
-20.2959
-20.296
-20.2963
-20.2966
-20.2972
-20.2978
-20.2987
-20.2998
-20.3011
-20.3028
-20.3048
-20.3073
-20.3103
-20.314
-20.3185
-20.3241
-20.3309
-20.3394
-20.3501
-20.3635
-20.3808
-20.4031
-20.4327
-20.4726
-20.5258
-20.6015
-20.7372
-20.9404
-21.1153
-21.2123
-21.2741
-21.2926
-21.2276
-21.0786
-20.8805
-20.7127
-20.6456
-20.6391
-21.0277
-20.9903
-21.022
-21.1099
-21.2073
-21.2759
-21.3125
-21.3209
-21.3499
-21.3782
-21.2773
-21.1469
-21.0555
-20.9988
-20.957
-20.9248
-20.8997
-20.8798
-20.8641
-20.8513
-20.8408
-20.8324
-20.8253
-20.8194
-20.8145
-20.8104
-20.8069
-20.804
-20.8014
-20.7993
-20.7974
-20.7958
-20.7945
-20.7934
-20.7924
-20.7917
-20.791
-20.7905
-20.7901
-20.7898
-20.7897
-20.7897
-20.7897
-20.7899
-20.7902
-20.7907
-20.7913
-20.792
-20.793
-20.7942
-20.7957
-20.7974
-20.7996
-20.8022
-20.8053
-20.8092
-20.8138
-20.8194
-20.8263
-20.8348
-20.8453
-20.8583
-20.875
-20.8964
-20.9242
-20.961
-21.01
-21.08
-21.2029
-21.3804
-21.5188
-21.5677
-21.6006
-21.6105
-21.5492
-21.413
-21.2327
-21.0912
-21.0671
-21.1117
-21.4566
-21.4749
-21.5217
-21.5686
-21.6176
-21.6697
-21.6997
-21.7349
-21.8036
-21.7998
-21.7002
-21.5939
-21.5214
-21.474
-21.438
-21.4098
-21.3875
-21.3696
-21.3552
-21.3433
-21.3336