/*--------------------------------*- C++ -*----------------------------------*\
| =========                 |                                                 |
| \\      /  F ield         | OpenFOAM: The Open Source CFD Toolbox           |
|  \\    /   O peration     | Version:  2412                                  |
|   \\  /    A nd           | Website:  www.openfoam.com                      |
|    \\/     M anipulation  |                                                 |
\*---------------------------------------------------------------------------*/
FoamFile
{
    version     2.0;
    format      ascii;
    arch        "LSB;label=32;scalar=64";
    class       volScalarField;
    location    "6.95";
    object      p_rgh;
}
// * * * * * * * * * * * * * * * * * * * * * * * * * * * * * * * * * * * * * //

dimensions      [1 -1 -2 0 0 0 0];

internalField   nonuniform List<scalar> 
6400
(
9814.25
9814.15
9813.95
9813.65
9813.25
9812.76
9812.19
9811.54
9810.85
9810.14
9809.45
9808.84
9808.34
9808.04
9807.98
9808.25
9808.91
9810.02
9811.64
9813.83
9816.61
9820
9824.01
9828.61
9833.76
9839.4
9845.45
9851.81
9858.37
9865
9871.55
9877.89
9883.88
9889.38
9894.26
9898.4
9901.71
9904.1
9905.51
9905.9
9905.28
9903.65
9901.06
9897.57
9893.28
9888.28
9882.71
9876.69
9870.38
9863.91
9857.43
9851.06
9844.95
9839.18
9833.85
9829.02
9824.74
9821.03
9817.88
9815.29
9813.22
9811.62
9810.43
9809.6
9809.04
9808.72
9808.55
9808.49
9808.49
9808.52
9808.54
9808.53
9808.49
9808.43
9808.34
9808.23
9808.13
9808.03
9807.96
9807.92
9814.35
9814.25
9814.05
9813.75
9813.34
9812.84
9812.25
9811.59
9810.87
9810.12
9809.38
9808.71
9808.15
9807.78
9807.65
9807.85
9808.44
9809.5
9811.08
9813.23
9815.99
9819.39
9823.41
9828.05
9833.27
9838.99
9845.14
9851.62
9858.3
9865.06
9871.76
9878.24
9884.37
9890
9894.99
9899.24
9902.62
9905.07
9906.51
9906.92
9906.28
9904.61
9901.95
9898.38
9893.97
9888.85
9883.14
9876.99
9870.53
9863.91
9857.3
9850.81
9844.59
9838.74
9833.34
9828.47
9824.17
9820.45
9817.33
9814.77
9812.75
9811.2
9810.07
9809.3
9808.81
9808.55
9808.43
9808.42
9808.46
9808.52
9808.55
9808.56
9808.53
9808.46
9808.36
9808.24
9808.12
9808
9807.92
9807.88
9814.55
9814.45
9814.25
9813.95
9813.53
9813.02
9812.4
9811.69
9810.91
9810.08
9809.25
9808.46
9807.77
9807.26
9807
9807.06
9807.51
9808.45
9809.93
9812.01
9814.74
9818.14
9822.2
9826.93
9832.27
9838.15
9844.51
9851.22
9858.16
9865.2
9872.18
9878.95
9885.35
9891.24
9896.47
9900.92
9904.47
9907.03
9908.54
9908.97
9908.3
9906.54
9903.74
9899.99
9895.37
9890
9884.02
9877.57
9870.82
9863.92
9857.03
9850.31
9843.87
9837.84
9832.31
9827.35
9823
9819.29
9816.2
9813.71
9811.78
9810.35
9809.35
9808.71
9808.36
9808.21
9808.21
9808.3
9808.42
9808.53
9808.6
9808.63
9808.6
9808.52
9808.4
9808.25
9808.09
9807.95
9807.85
9807.79
9814.85
9814.75
9814.55
9814.25
9813.83
9813.29
9812.64
9811.86
9810.99
9810.04
9809.06
9808.1
9807.22
9806.5
9806.01
9805.85
9806.1
9806.85
9808.18
9810.15
9812.81
9816.21
9820.34
9825.18
9830.71
9836.85
9843.52
9850.58
9857.93
9865.39
9872.81
9880.02
9886.85
9893.14
9898.73
9903.49
9907.29
9910.03
9911.65
9912.11
9911.38
9909.48
9906.48
9902.46
9897.5
9891.75
9885.34
9878.46
9871.25
9863.92
9856.61
9849.5
9842.74
9836.44
9830.71
9825.62
9821.21
9817.49
9814.46
9812.09
9810.31
9809.06
9808.27
9807.83
9807.68
9807.73
9807.9
9808.13
9808.36
9808.56
9808.69
9808.75
9808.73
9808.62
9808.46
9808.26
9808.05
9807.86
9807.73
9807.65
9815.24
9815.15
9814.96
9814.66
9814.25
9813.69
9812.98
9812.13
9811.14
9810.04
9808.86
9807.66
9806.5
9805.49
9804.69
9804.22
9804.18
9804.67
9805.77
9807.58
9810.16
9813.54
9817.74
9822.76
9828.55
9835.03
9842.12
9849.68
9857.57
9865.61
9873.64
9881.46
9888.88
9895.72
9901.82
9907
9911.15
9914.15
9915.91
9916.41
9915.62
9913.52
9910.24
9905.84
9900.42
9894.13
9887.15
9879.64
9871.82
9863.87
9855.99
9848.36
9841.14
9834.47
9828.47
9823.2
9818.71
9815.01
9812.07
9809.86
9808.31
9807.32
9806.8
9806.66
9806.79
9807.1
9807.51
9807.95
9808.34
9808.65
9808.86
9808.95
9808.92
9808.78
9808.56
9808.28
9807.99
9807.73
9807.53
9807.43
9815.72
9815.64
9815.47
9815.2
9814.79
9814.23
9813.48
9812.54
9811.4
9810.1
9808.66
9807.15
9805.65
9804.24
9803.04
9802.16
9801.72
9801.85
9802.66
9804.24
9806.69
9810.04
9814.34
9819.56
9825.68
9832.61
9840.24
9848.44
9857.04
9865.86
9874.67
9883.29
9891.49
9899.05
9905.8
9911.56
9916.16
9919.48
9921.44
9921.99
9921.1
9918.78
9915.13
9910.22
9904.19
9897.2
9889.45
9881.14
9872.5
9863.75
9855.11
9846.79
9838.99
9831.85
9825.49
9820
9815.42
9811.75
9808.96
9806.98
9805.73
9805.09
9804.96
9805.21
9805.72
9806.38
9807.1
9807.8
9808.39
9808.85
9809.15
9809.27
9809.23
9809.03
9808.71
9808.31
9807.9
9807.53
9807.25
9807.1
9816.27
9816.21
9816.09
9815.86
9815.5
9814.94
9814.16
9813.12
9811.83
9810.28
9808.53
9806.64
9804.68
9802.78
9801.05
9799.64
9798.69
9798.35
9798.76
9800.04
9802.3
9805.6
9810
9815.47
9821.99
9829.47
9837.8
9846.81
9856.31
9866.09
9875.92
9885.54
9894.71
9903.2
9910.78
9917.25
9922.42
9926.17
9928.38
9928.99
9927.99
9925.38
9921.25
9915.71
9908.9
9901.02
9892.3
9882.96
9873.27
9863.5
9853.9
9844.72
9836.17
9828.43
9821.64
9815.88
9811.21
9807.6
9805.01
9803.35
9802.51
9802.35
9802.73
9803.48
9804.48
9805.6
9806.71
9807.73
9808.57
9809.21
9809.61
9809.76
9809.67
9809.38
9808.92
9808.35
9807.76
9807.23
9806.82
9806.61
9816.86
9816.84
9816.79
9816.66
9816.38
9815.87
9815.08
9813.96
9812.48
9810.66
9808.53
9806.17
9803.66
9801.13
9798.74
9796.65
9795.04
9794.09
9793.97
9794.85
9796.86
9800.08
9804.57
9810.34
9817.35
9825.5
9834.68
9844.68
9855.3
9866.28
9877.35
9888.22
9898.62
9908.25
9916.86
9924.21
9930.1
9934.37
9936.89
9937.6
9936.45
9933.48
9928.77
9922.44
9914.67
9905.68
9895.73
9885.1
9874.11
9863.05
9852.25
9841.98
9832.51
9824.03
9816.72
9810.67
9805.9
9802.41
9800.11
9798.89
9798.6
9799.06
9800.09
9801.5
9803.13
9804.81
9806.4
9807.81
9808.96
9809.79
9810.3
9810.46
9810.32
9809.89
9809.22
9808.41
9807.56
9806.79
9806.2
9805.9
9817.46
9817.49
9817.57
9817.6
9817.46
9817.06
9816.31
9815.12
9813.45
9811.32
9808.75
9805.82
9802.63
9799.33
9796.11
9793.16
9790.71
9788.98
9788.19
9788.54
9790.19
9793.27
9797.85
9803.96
9811.55
9820.52
9830.71
9841.94
9853.92
9866.37
9878.97
9891.38
9903.26
9914.3
9924.17
9932.62
9939.39
9944.3
9947.21
9948.03
9946.72
9943.31
9937.88
9930.59
9921.63
9911.26
9899.8
9887.59
9874.97
9862.34
9850.05
9838.44
9827.83
9818.47
9810.54
9804.15
9799.33
9796.02
9794.13
9793.49
9793.92
9795.18
9797.05
9799.3
9801.7
9804.07
9806.27
9808.15
9809.65
9810.71
9811.31
9811.48
9811.23
9810.61
9809.65
9808.49
9807.26
9806.15
9805.3
9804.86
9817.98
9818.1
9818.39
9818.65
9818.77
9818.57
9817.93
9816.71
9814.87
9812.38
9809.3
9805.7
9801.69
9797.45
9793.19
9789.16
9785.63
9782.91
9781.24
9780.9
9782.08
9784.95
9789.6
9796.09
9804.36
9814.29
9825.73
9838.42
9852.06
9866.3
9880.76
9895.04
9908.75
9921.49
9932.9
9942.67
9950.52
9956.22
9959.61
9960.57
9959.07
9955.14
9948.84
9940.37
9929.96
9917.92
9904.61
9890.43
9875.84
9861.26
9847.14
9833.89
9821.89
9811.45
9802.8
9796.04
9791.19
9788.18
9786.85
9787.01
9788.38
9790.68
9793.62
9796.91
9800.28
9803.52
9806.43
9808.87
9810.78
9812.07
9812.75
9812.87
9812.48
9811.59
9810.24
9808.58
9806.82
9805.22
9803.99
9803.34
9818.35
9818.52
9819.19
9819.81
9820.3
9820.42
9820.02
9818.87
9816.86
9814.01
9810.35
9805.95
9800.96
9795.55
9790.01
9784.63
9779.75
9775.75
9772.96
9771.71
9772.25
9774.81
9779.52
9786.42
9795.48
9806.57
9819.49
9833.95
9849.6
9866.01
9882.72
9899.27
9915.17
9929.98
9943.26
9954.64
9963.78
9970.44
9974.41
9975.56
9973.85
9969.29
9961.95
9952.05
9939.87
9925.79
9910.22
9893.67
9876.64
9859.67
9843.3
9828.04
9814.35
9802.6
9793.11
9785.97
9781.17
9778.6
9778.06
9779.26
9781.86
9785.5
9789.8
9794.4
9798.98
9803.26
9807.04
9810.14
9812.48
9814.01
9814.73
9814.75
9814.17
9812.93
9811.04
9808.69
9806.19
9803.9
9802.07
9801.14
9817.5
9811.77
9819.86
9821.03
9822.02
9822.64
9822.67
9821.72
9819.61
9816.38
9812.08
9806.77
9800.58
9793.75
9786.61
9779.54
9772.98
9767.35
9763.12
9760.68
9760.38
9762.49
9767.2
9774.58
9784.56
9797.02
9811.69
9828.27
9846.35
9865.38
9884.82
9904.11
9922.68
9939.97
9955.5
9968.8
9979.5
9987.31
9992
9993.4
9991.45
9986.15
9977.58
9965.93
9951.63
9935.07
9916.76
9897.3
9877.29
9857.4
9838.27
9820.55
9804.79
9791.47
9781.02
9773.48
9768.84
9766.92
9767.45
9770.04
9774.25
9779.6
9785.62
9791.86
9797.92
9803.47
9808.26
9812.14
9814.98
9816.73
9817.42
9817.25
9816.41
9814.73
9812.05
9808.74
9805.28
9802.01
9798.49
9797.96
9812.53
9797.08
9803.93
9822.04
9823.85
9825.11
9825.81
9825.35
9823.34
9819.8
9814.82
9808.44
9800.8
9792.21
9783.08
9773.9
9765.19
9757.52
9751.45
9747.47
9746.05
9747.55
9752.2
9760.1
9771.17
9785.22
9801.98
9821.1
9842.13
9864.33
9887.06
9909.64
9931.4
9951.68
9969.89
9985.5
9998.08
10007.3
10012.9
10014.6
10012.4
10006.2
9996.15
9982.4
9965.54
9945.99
9924.37
9901.37
9877.75
9854.28
9831.76
9811
9792.68
9777.39
9765.89
9758.01
9753.69
9752.71
9754.68
9759.11
9765.4
9772.94
9781.13
9789.4
9797.28
9804.36
9810.39
9815.17
9818.58
9820.51
9820.97
9820.32
9818.72
9816.3
9812.98
9808.56
9804
9796.79
9777.82
9787.37
9810.99
9811.45
9796.71
9810.78
9825.61
9827.51
9829.14
9829.61
9828.05
9824.43
9818.9
9811.39
9802.01
9791.21
9779.59
9767.74
9756.33
9746.05
9737.59
9731.63
9728.75
9729.42
9733.94
9742.43
9754.79
9770.78
9790.03
9812.1
9836.71
9862.72
9889.41
9915.96
9941.55
9965.41
9986.81
10005.2
10020
10030.9
10037.5
10039.7
10037.3
10030.1
10018.2
10002
9982.03
9958.87
9933.23
9905.97
9877.95
9850.1
9823.4
9798.86
9777.44
9759.81
9747.09
9738.85
9735.04
9735.37
9739.3
9746.16
9755.15
9765.5
9776.46
9787.31
9797.44
9806.36
9813.81
9819.65
9823.72
9825.69
9825.45
9823.75
9821.24
9817.07
9813.27
9807.88
9801.04
9779.19
9770.21
9773.76
9802.93
9792.04
9787.38
9806.41
9826.77
9829.7
9832.11
9833.9
9833.58
9830.37
9824.55
9815.99
9804.57
9790.94
9776.12
9761.02
9746.32
9732.74
9721.18
9712.56
9707.72
9707.26
9711.59
9720.81
9734.77
9753.12
9775.49
9801.31
9829.92
9860.42
9891.86
9923.18
9953.37
9981.47
10006.7
10028.3
10045.8
10058.7
10066.8
10069.5
10066.8
10058.5
10044.5
10025.3
10001.6
9974.1
9943.62
9911.21
9877.86
9844.63
9812.68
9783.37
9758.13
9738.25
9723.47
9714.74
9711.78
9714.02
9720.67
9730.79
9743.35
9757.38
9771.95
9786.08
9798.91
9809.83
9818.8
9825.84
9830.76
9832.7
9831.48
9828.37
9825.14
9819.33
9813.89
9806.34
9797.21
9779.46
9760.3
9762.3
9772.34
9719.47
9728.15
9806.96
9826.47
9830.98
9833.02
9837.92
9840.33
9838.42
9832.54
9822.78
9808.84
9791.55
9772.79
9753.81
9735.22
9717.58
9701.97
9689.73
9682.1
9680.01
9684
9694.13
9710.04
9731.14
9757.01
9787.41
9821.11
9856.99
9894.27
9931.38
9967.09
10000.3
10030
10055.5
10076.2
10091.6
10101.3
10104.9
10102
10092.4
10075.9
10053.3
10025
9992.1
9955.74
9917.15
9877.41
9837.52
9798.82
9763.13
9732.53
9708.86
9692.33
9683.78
9682.53
9687.72
9698.24
9712.83
9730.17
9748.98
9768.15
9786.22
9802.21
9815.31
9825.89
9834.18
9839.9
9842.01
9840.14
9835.61
9829.97
9822.57
9812.39
9802.21
9787.07
9736.71
9718.12
9746.62
9758.35
9704.48
9707.54
9791.89
9825.48
9831.65
9834.51
9843.46
9850.42
9850.86
9844.75
9833.09
9815.87
9794.24
9770.59
9746.66
9723.09
9700.27
9679.52
9662.58
9651.37
9647.15
9650.62
9661.78
9680.06
9704.12
9733.52
9769
9808.5
9851.62
9895.88
9940.11
9982.65
10022.1
10057.3
10087.4
10112
10130.2
10141.8
10146.2
10143.3
10132.7
10113.4
10086.7
10052.9
10013.5
9969.92
9923.82
9876.34
9828.31
9780.98
9736.79
9698.82
9669.14
9652.68
9645.37
9646.79
9656.02
9671.65
9692.03
9715.41
9739.98
9764.87
9787.51
9807.38
9823.64
9836.39
9845.89
9851.98
9853.92
9851.36
9844.8
9834.89
9822.5
9805.6
9794.44
9769.41
9671.69
9695.02
9728.99
9776.18
9749.84
9704.91
9769.71
9814.36
9830.79
9841.19
9854.25
9867.96
9870.71
9863.24
9848.21
9826.33
9799.36
9769.75
9739.31
9708.77
9678.87
9651.5
9628.72
9613.56
9607.8
9612.55
9627.06
9648.53
9673.83
9704.68
9746.88
9794.43
9845.63
9898.72
9951.23
10001.5
10048
10089.4
10124.8
10153.7
10175.5
10189.3
10194.8
10191.8
10179.8
10158.1
10126.5
10086
10038.5
9986.07
9931.08
9874.65
9817.11
9758.81
9703.43
9657.17
9622.66
9607.75
9600.38
9603.92
9617.64
9639.48
9666.81
9697.24
9728.58
9759.43
9788.01
9813.13
9833.86
9849.85
9861
9867.53
9869.11
9865.29
9855.23
9838.93
9819.4
9797.97
9779.46
9741.66
9659.12
9699.11
9716.21
9796.44
9793.03
9800.59
9820.18
9838.02
9846.95
9860.3
9877.68
9896.49
9898.96
9888.92
9869.7
9842.05
9808.22
9770.59
9731.17
9690.68
9650.15
9602.97
9530.38
9450.16
9391.69
9388.5
9449
9546.55
9634.34
9686.49
9725.8
9778.03
9838.71
9902.27
9964.9
10024.5
10079
10127.4
10168.9
10203.2
10229.2
10245.8
10252.2
10248.7
10235.7
10211.5
10175
10126.5
10068.8
10005.9
9941.57
9876.29
9809.93
9739.56
9669.41
9586.24
9440.36
9346.45
9325.21
9377.45
9469.7
9562.15
9630.33
9672.72
9712.49
9751.26
9787.37
9819.73
9846.99
9867.51
9880.64
9888.14
9889.98
9885.98
9874.55
9854.6
9825.16
9801.01
9787.72
9766.19
9738.97
9719.12
9718.54
8087.88
8092.65
8345.94
8785.4
9025.12
9143.97
9172.31
9256.55
9522.79
9681.98
9705.23
9641.82
9406.75
8968.91
8385.3
7731.48
7020.59
6255.68
5383.8
4653.57
4089.66
3755.47
3712.94
4006.28
4609.3
5396.1
6168.31
7018.74
7966.29
8927.06
9622.61
9984.22
10054.1
10116.6
10172
10218.9
10258.3
10290.1
10310.8
10318.7
10315.1
10301.7
10276.4
10235.4
10177.6
10105.3
10025.8
9943.66
9356.88
8581.91
7387.05
5774.76
4357.29
3630.3
3372.84
3406.29
3712.01
4234.09
4936.06
5767.15
6592.06
7311.85
7969.77
8521.99
8995.6
9381.31
9613.61
9661.39
9690.34
9712.45
9664.82
9485.24
9195.57
8933.58
8769.1
8626.48
8303.08
7501.98
6871.95
6765.93
1276.42
1273.88
1312.01
1491.63
1770.44
2050.96
2518.22
3148.55
3631.1
3756.75
3517.64
2973.33
2287.12
1628.18
1076.93
626.659
265.236
2.08377
1.21434
1.23168
1.32721
1.42658
1.53861
1.6122
1.62567
9.13557
125.907
317.075
656.111
1340.2
2457.27
3955.34
5672.02
7130.65
8169.84
8866.04
9491.87
9894.65
10030.6
10036.7
10043.8
10059.8
9943.44
9492.7
8502.88
6827.9
4722.13
2802.86
1701.97
961.995
393.524
73.9465
6.5131
2.67348
2.2987
2.15714
2.1421
2.2108
2.32337
2.5836
174.874
549.635
967.071
1443.76
1941.68
2410.23
2904.88
3336.06
3521.96
3485.03
3285.03
2922.51
2403.78
1797.44
1227.79
827.434
643.587
648.875
593.183
510.632
1.87215
1.92602
2.82154
4.48802
3.29646
1.81844
1.72673
1.1012
0.524508
0.339452
0.303103
0.311627
0.334804
0.385263
0.529205
0.703167
0.874846
1.06755
1.12968
1.19595
1.27543
1.34501
1.39022
1.40387
1.48258
1.6707
1.82244
2.05227
2.61279
3.65599
5.82814
43.5535
329.539
785.051
1406.94
2106.18
2854.61
3579.63
3989.91
4052.83
3932.66
3755.63
3298.36
2395.02
1249.35
377.459
48.1638
12.471
5.86059
3.40596
2.95994
2.30142
1.5658
1.91304
1.8753
1.83264
1.81404
1.81131
1.83985
1.86245
1.76846
1.70152
1.70346
1.77069
1.87916
1.95331
1.98272
1.99883
2.10014
2.23491
2.41959
2.53829
2.57225
2.52508
2.46649
2.42659
3.62046
6.59132
5.80392
4.97686
1.41112
1.66254
1.54906
1.61893
1.36607
1.19331
1.59333
1.07945
0.399418
0.357618
0.330613
0.322385
0.349487
0.432062
0.549046
0.691598
0.84084
0.974726
1.06497
1.15168
1.23998
1.29739
1.28593
1.37801
2.53995
2.96187
2.99632
2.75726
2.7763
2.77422
5.23348
7.57592
1.0973
0.820418
3.04614
4.07204
17.8912
18.3946
7.73715
7.49743
8.35963
7.61339
6.74739
6.45705
5.95812
4.77296
3.54053
1.83046
0.706126
0.258682
0.459207
1.08417
1.17548
1.47208
1.49421
1.51627
1.53322
1.54894
2.05679
3.09723
2.50838
1.87282
2.96803
4.16122
4.14588
4.09451
2.61775
2.34058
2.30173
2.06399
2.36748
2.80051
3.85058
3.94684
2.52745
2.33583
2.32306
2.50005
2.51314
2.389
1.35347
2.17811
1.52391
1.39964
1.24065
1.14259
1.72821
1.25584
0.411687
0.356073
0.329179
0.342468
0.385397
0.446914
0.539639
0.666995
0.795796
0.903207
0.987161
1.07882
1.16388
1.21162
1.1835
1.18135
2.7873
3.59411
3.746
3.88467
2.94695
2.70161
2.47117
1.1783
0.940615
0.771936
0.877284
1.59165
2.52442
2.1411
0.81434
1.62416
3.09109
3.9861
2.70188
1.54506
0.542888
0.2391
0.16572
-0.189297
-0.334371
-0.258824
0.300447
1.11043
1.37395
1.03753
1.11426
1.18039
1.22254
1.24184
2.00453
3.28411
3.35486
3.38446
3.37174
3.60932
4.21257
4.20274
4.18758
4.15797
2.8031
1.81318
4.2609
4.7933
4.8702
4.89027
4.82361
2.84335
2.26768
1.72293
1.69555
1.72668
1.29844
3.19875
2.86074
1.35074
1.24372
1.15113
1.05942
1.41235
0.681605
0.328965
0.283412
0.257652
0.278215
0.357021
0.478041
0.636594
0.750126
0.840931
0.91589
1.25388
1.30858
1.13099
1.08475
1.02402
1.03048
1.18958
2.48012
3.73878
3.70351
2.90176
1.37648
1.16951
0.995583
0.845404
0.733174
0.738126
0.742359
0.621538
0.54126
0.789203
2.55103
3.74277
1.72604
0.113761
-0.259495
-0.220649
-0.287045
-0.719285
-0.723226
-0.598095
-0.358295
-0.00805113
0.303352
0.5564
0.744358
0.859944
0.931434
0.977405
1.00017
1.05515
1.31247
1.07597
1.07052
1.04588
1.12796
2.20817
2.75537
2.27215
1.47168
1.69378
4.04228
4.71737
4.80917
4.82881
4.76261
4.75328
2.49849
1.40464
1.38885
1.44938
1.83788
3.21418
3.18727
3.10899
2.99053
1.25928
1.00755
1.5636
1.61457
0.925599
0.262868
0.211587
0.230454
0.373496
0.639026
0.757475
0.728367
0.793213
0.928306
1.66792
1.74542
1.40746
0.991624
0.960665
0.981548
0.987407
1.0273
2.72741
3.19544
2.68211
1.2426
1.16671
1.02391
0.902408
0.813389
0.742354
0.668628
0.600128
0.569647
0.606453
2.04871
4.00804
1.2412
-0.0202708
-0.436394
-0.215143
0.566905
-0.434924
-0.734436
-0.864543
-0.681
-0.381343
-0.0769133
0.195196
0.41119
0.566352
0.673855
0.752998
0.812502
0.864383
0.915736
1.00363
1.0189
0.993304
0.9778
0.968346
0.955705
0.936595
0.895656
0.833609
0.955378
4.05444
4.80865
4.79848
4.68697
4.64928
3.31245
1.16041
1.20657
1.2733
2.55719
2.37173
1.50205
0.983544
1.00177
0.752663
0.934741
1.71588
1.65811
1.62954
1.61855
1.36641
0.393849
0.41111
1.22998
1.09458
0.711863
0.749029
1.19521
1.59932
1.65503
1.68043
1.28959
0.902058
0.892312
0.920151
0.955415
3.54824
1.62724
1.35783
1.19652
1.13092
1.02128
0.924388
0.846719
0.789964
0.735369
0.680838
0.629222
0.587195
1.42571
2.36344
1.29919
-0.149595
-0.618432
-0.488274
0.178107
-0.012477
-0.056985
-1.11034
-1.05337
-0.770384
-0.456955
-0.155489
0.0954663
0.283723
0.423638
0.538671
0.634084
0.712362
0.783577
0.935494
1.00437
1.03182
0.94089
0.926491
0.924636
0.913652
0.888249
0.856092
0.835576
1.00322
4.68191
4.82561
3.72768
4.62007
2.88078
0.99137
1.0801
1.15373
2.55562
1.62817
0.809154
0.699627
0.719216
0.712991
0.678014
0.617441
0.899394
1.7011
1.68587
1.69347
1.50816
1.86472
2.3045
1.76129
0.737222
0.705994
1.24725
1.53972
1.57003
1.57776
1.48434
0.850616
0.817252
0.844965
1.84454
4.16857
1.73436
1.20259
1.15274
1.08977
1.00736
0.921608
0.846703
0.794306
0.75634
0.716572
0.670184
0.605959
0.51178
0.360658
0.218132
-0.264629
-0.796102
-0.817381
-0.302457
-0.319325
-0.212156
-0.715356
-1.43977
-0.995475
-0.423048
-0.202059
-0.1875
0.0188831
0.181301
0.328732
0.451635
0.553714
0.638835
0.702038
0.845503
0.857443
0.866521
0.877671
0.86602
0.864507
0.871601
0.878985
0.842163
0.838575
2.01687
4.91973
2.14286
2.2727
1.35303
0.931956
1.0131
1.08509
2.48664
2.18182
1.49298
0.598009
0.647598
0.89466
1.06497
0.694677
0.622042
0.589819
0.602084
0.914373
2.15301
2.29272
2.39967
2.49032
1.39119
0.670161
0.882005
1.48256
1.49977
1.42302
0.871009
0.734295
0.705706
3.0135
4.11464
4.17227
1.62173
1.13638
1.08268
1.02961
0.959527
0.889419
0.821064
0.775726
0.750318
0.724785
0.681022
0.610928
0.478293
0.258877
-0.0640256
-0.493251
-0.95362
-1.33957
-1.41906
-1.38425
-1.42688
-1.29213
-0.939531
1.41889
2.29814
2.51416
0.632132
-0.13355
-0.0432248
0.124921
0.289366
0.448856
0.501728
0.577082
0.634717
0.682312
0.723227
0.76532
0.783731
0.798845
0.816445
0.815046
0.805809
0.82795
0.855272
4.77218
2.25843
0.831879
0.883584
0.948325
1.0019
1.66498
1.18433
0.746731
0.652862
0.388649
1.19281
1.18668
1.1271
0.855593
0.579157
0.543702
0.541705
0.581202
1.31648
2.33815
2.44666
2.51925
1.57446
0.628837
0.652502
1.2331
1.20118
0.757133
0.669039
0.626304
2.04694
3.96053
3.98367
4.0422
3.50089
1.0216
0.957296
0.918075
0.873312
0.8271
0.783707
0.752148
0.746392
0.886588
0.687898
0.620968
0.476625
0.206862
-0.166722
-0.608768
-1.05481
-1.43045
-1.67991
-1.77539
-1.74155
-1.61525
0.796748
1.74706
2.02586
2.39337
2.82937
2.03998
-0.24106
-0.0584934
0.243369
0.42336
0.459218
0.459477
0.520509
0.574637
0.621898
0.663334
0.697747
0.724435
0.744367
0.761548
0.781493
0.809633
0.835619
1.75317
3.72808
0.960428
0.968145
0.989955
1.01622
2.62921
0.477055
0.354833
0.346629
0.357367
1.09076
1.14671
1.08211
0.645831
0.548506
0.507245
0.501536
0.771532
2.23577
2.37126
2.46667
2.52572
0.907519
0.564087
0.595501
0.829444
0.696398
0.653477
0.577878
0.489221
2.85683
3.76205
3.72848
3.78952
3.91862
0.889724
0.788533
0.77286
0.755253
0.751364
0.738518
0.723595
2.5542
3.92869
2.60695
0.807208
0.469965
0.227211
-0.131718
-0.55471
-0.994367
-1.39025
-1.66655
-1.80004
-1.82248
-1.77125
0.643737
1.65361
1.89551
2.22626
2.66646
3.04875
-0.273011
-0.192998
0.131022
0.295298
0.426853
0.346134
0.409126
0.468801
0.521443
0.569007
0.612587
0.652665
0.690479
0.724995
0.753329
0.781805
0.810322
0.973326
3.84702
2.11428
1.01074
1.01109
1.92238
2.67858
0.366058
0.342032
0.335366
0.337606
0.439326
1.11839
1.05831
0.656911
0.857056
1.93903
2.15487
2.21202
2.28799
2.37848
2.46799
1.06391
0.4779
0.520022
0.717834
0.697738
0.647063
0.583979
0.494026
2.18306
2.74419
2.34755
2.89543
3.51581
3.65482
0.594611
0.613422
0.620296
0.637234
0.682964
0.693872
0.995487
3.96903
4.01908
4.00179
3.71209
2.89906
2.12177
0.602819
-0.49477
-0.891858
-1.24974
-1.53225
-1.69981
-1.76286
-1.7624
-0.645821
1.69994
1.9058
2.19986
2.61231
0.642926
-0.304668
-0.297852
0.0190513
0.18819
0.316674
0.236848
0.304536
0.367184
0.423386
0.474639
0.525689
0.579456
0.637373
0.68534
0.71224
0.734876
0.759352
0.774851
3.89079
4.72186
1.02317
1.00543
2.71217
2.70832
0.345758
0.332309
0.321573
0.309637
0.286218
0.712113
0.965573
0.940281
2.09402
2.23235
2.21359
2.25096
2.32403
1.88414
0.739045
0.380765
0.437984
0.480461
0.683814
0.65068
0.604192
0.53116
2.8356
3.67136
2.54867
0.0408907
0.0513777
2.68259
2.59059
0.385284
0.487596
0.504025
0.887485
2.66736
0.678993
0.654775
2.79004
4.05732
4.10112
4.0308
3.81932
3.58732
2.79582
-0.439027
-0.441572
-0.51138
-1.31759
-1.49796
-1.59142
-1.62072
-0.611347
1.85672
2.03098
2.29039
2.64829
-0.859479
-0.569056
-0.306362
-0.0610781
0.104395
0.0863216
0.132604
0.208448
0.27121
0.327457
0.378678
0.43361
0.50402
0.904771
1.69488
1.30004
0.743005
0.669644
0.692936
1.36696
4.74439
1.17529
0.966346
1.68593
2.72872
0.330331
0.320993
0.309591
0.295081
0.271874
0.233688
0.291343
0.375875
0.0969339
0.640839
1.03336
0.903701
0.581708
0.274146
0.289614
0.354651
0.40115
0.567375
0.562908
0.613033
1.01342
2.41156
3.94507
3.66415
0.467418
-0.0874243
-0.141867
0.0541306
0.134881
0.379091
0.455497
0.464129
3.21307
3.49262
2.80817
0.709689
0.713017
4.08462
4.11637
4.05574
3.86446
3.60783
1.84552
0.181259
2.32919
2.28309
0.137209
-1.25088
-1.35767
-1.40979
-0.00583179
2.07316
2.23745
2.45474
1.09664
-0.881988
-0.626421
-0.301712
-0.111795
0.0424221
-0.00804543
0.0497892
0.121209
0.180731
0.232953
0.28008
0.333266
1.0735
2.63406
2.78691
2.78571
1.27841
0.541218
0.577708
0.610608
4.25889
3.31467
0.921142
0.937125
2.73928
0.31735
0.310504
0.29997
0.286638
0.267124
0.239421
0.20465
0.166481
0.131432
0.107845
0.108903
0.130597
0.175568
0.231637
0.287201
0.334235
0.375265
0.546585
0.497331
1.02788
1.88967
3.51065
3.99719
3.42275
0.143821
0.0258975
0.000746577
0.11372
0.303352
0.484054
0.516832
0.820012
3.50955
3.54927
3.57514
0.976634
0.701131
1.59364
4.14019
4.06866
3.90855
3.68124
1.33386
1.20298
2.65822
2.51641
2.41148
1.65195
-0.0695805
0.614002
2.2334
2.29893
2.47372
2.35106
-1.03128
-0.91875
-0.618908
-0.308335
-0.137006
-0.00322043
-0.0870206
-0.0215207
0.0425528
0.0955693
0.140004
0.179867
0.701499
2.63843
2.67858
2.6925
2.69433
2.37756
0.5009
0.434811
0.504715
2.60078
4.13386
1.22825
0.955725
2.69367
0.317944
0.313492
0.29105
0.279765
0.264624
0.245012
0.221773
0.196987
0.174695
0.161324
0.163519
0.179431
0.208518
0.244733
0.28212
0.314302
0.361863
0.438929
0.454702
1.09826
1.30018
2.11619
4.09666
3.93587
1.61495
0.211692
0.231165
0.35492
0.536953
0.633133
0.744074
3.54523
3.64252
3.62216
2.05563
0.740395
0.697197
1.15807
4.16129
4.09318
3.95124
3.76162
1.79178
-0.210515
2.84032
2.68609
2.60864
2.55217
2.49947
2.46138
2.4709
2.54475
2.2517
-1.03427
-1.12137
-0.835748
-0.575861
-0.28954
-0.144378
-0.185334
-0.152422
-0.0821766
-0.0275304
0.016229
0.0503442
0.0790689
1.87992
2.58299
2.61642
2.62202
2.38053
1.21674
0.228483
0.28651
0.371979
0.684441
4.10852
1.70172
0.941681
2.66633
0.319247
0.314963
0.282928
0.273097
0.261375
0.246997
0.23075
0.214355
0.200476
0.192803
0.194455
0.205642
0.224382
0.248006
0.27319
0.294727
0.331381
0.56016
0.881162
1.1494
0.593763
0.942165
4.20202
4.00595
3.74244
0.308874
0.407218
0.64375
2.35598
3.00288
3.8184
3.80468
3.74373
2.59706
0.913599
0.779684
0.98035
4.00728
4.19476
4.1136
3.99712
3.85276
2.50623
-0.652767
1.46457
2.89611
2.79852
2.73786
2.70555
2.70591
2.6844
1.08317
-1.41984
-1.19546
-0.956358
-0.728338
-0.411798
-0.259054
-0.141667
-0.244675
-0.189893
-0.13281
-0.088941
-0.0560062
-0.0325629
-0.0176811
1.68294
2.27181
2.56464
2.58565
1.01312
0.0615781
0.0748368
0.144655
0.235383
0.307313
3.76216
1.86397
0.908285
2.62139
0.309247
0.305995
0.285995
0.266713
0.257536
0.246869
0.235289
0.223919
0.214656
0.209652
0.210508
0.217485
0.230093
0.246075
0.263244
0.277621
0.300263
0.898614
1.25268
1.18919
0.566931
0.448507
0.940006
2.95478
2.19835
0.328447
0.47487
2.38272
2.64126
2.38469
2.18213
2.34372
2.40127
3.83341
4.00379
3.64055
4.33481
4.31804
4.24122
4.15925
4.07791
3.98995
1.75225
-0.653226
-0.891594
0.0805122
1.01395
1.30927
0.609999
-0.799252
-1.41837
-1.30004
-1.14129
-0.961637
-0.785411
-0.538343
-0.325935
-0.219999
-0.237
-0.273207
-0.217814
-0.173952
-0.141669
-0.119935
-0.107121
-0.0268342
0.146761
0.232053
1.35526
2.56708
2.60631
0.448227
-0.0264936
0.0303743
0.112412
0.181264
1.72307
4.57951
1.16016
1.77208
0.276458
0.297302
0.287198
0.260059
0.252971
0.245002
0.236626
0.228633
0.22223
0.218733
0.219052
0.223402
0.231419
0.242082
0.253695
0.263526
0.273984
0.837914
1.26544
1.23403
0.6433
0.472337
0.392839
0.35523
0.335649
0.375567
0.441991
1.0504
1.85058
1.08097
0.94451
0.893739
0.913799
4.1326
4.06741
4.11643
4.16247
4.30946
4.20656
3.44398
2.37932
1.3062
0.010118
-0.519483
-0.74462
-0.9409
-1.07029
-1.12605
-1.1766
-1.15268
-1.08733
-0.994775
-0.880817
-0.758378
-0.576402
-0.348231
-0.257361
-0.185108
-0.324294
-0.279605
-0.236852
-0.205772
-0.185493
-0.175257
-0.174564
-0.174684
-0.200658
0.206057
2.51891
2.52146
2.54261
1.21726
-0.105688
-0.0686762
0.000897241
0.0484849
3.05138
6.334
1.45709
1.23284
0.265566
0.283447
0.265869
0.253084
0.247631
0.241551
0.235294
0.229455
0.224833
0.222233
0.222204
0.22488
0.230055
0.237237
0.245296
0.252416
0.258949
0.686589
1.28634
1.28979
0.671898
0.511965
0.445245
0.393794
0.383249
0.416504
0.468109
0.530217
0.905398
1.42275
0.949816
0.902031
0.848117
2.52057
3.90397
1.7082
0.428133
0.522009
0.19673
-0.0306041
-0.183854
-0.259837
-0.290298
-0.359927
-0.484237
-0.628519
-0.745478
-0.816467
-0.842596
-0.833204
-0.796762
-0.740736
-0.670028
-0.526969
-0.31122
-0.255191
-0.193988
-0.359999
-0.316599
-0.276988
-0.247636
-0.228513
-0.220072
-0.221928
-0.235385
-0.259241
-0.292659
0.880965
2.44437
2.43504
2.43272
0.923463
0.736208
2.69753
3.97426
3.67369
6.0148
6.30133
1.72068
1.0044
0.255208
0.252887
0.249537
0.245802
0.24159
0.2369
0.232144
0.227749
0.224259
0.222191
0.221872
0.22339
0.226701
0.231469
0.236987
0.24219
0.268406
0.996211
1.33159
1.34736
0.868996
0.632757
0.500686
0.454032
0.434987
0.459878
1.3256
2.97495
3.01659
2.98728
2.17704
1.30021
0.994015
0.552262
0.358165
0.156
0.0946424
0.0248126
-0.0373845
-0.0809249
-0.12701
-0.161628
-0.174298
-0.214762
-0.295049
-0.394171
-0.482741
-0.545364
-0.579561
-0.588349
-0.576118
-0.547606
-0.384714
-0.215693
-0.199217
-0.191336
-0.345594
-0.329864
-0.295194
-0.26862
-0.250745
-0.242341
-0.244892
-0.259
-0.287853
-0.331479
-0.388951
0.486206
2.30079
2.30169
2.27061
0.593361
1.29834
5.44527
5.65617
5.69449
5.82429
6.03211
2.02915
0.719516
0.24566
0.243852
0.241097
0.238175
0.234855
0.231165
0.227444
0.22403
0.221286
0.219542
0.219001
0.21968
0.221639
0.22461
0.228194
0.231789
0.236503
0.721171
1.29428
1.53051
1.71959
1.74759
0.75796
0.499652
0.485055
1.7953
3.04419
3.05557
3.05403
3.03633
2.99371
2.90306
2.7417
0.989942
0.35587
0.29103
0.805681
0.694515
0.208394
0.160416
0.00362897
-0.0720606
-0.0889131
-0.12509
-0.182292
-0.249622
-0.312074
-0.360025
-0.383151
-0.352502
-0.290764
-0.06944
-0.0787526
-0.114381
-0.269942
-0.355201
-0.323257
-0.29469
-0.271707
-0.25538
-0.246749
-0.247354
-0.259365
-0.284789
-0.328755
-0.393769
-0.480505
-0.467026
1.13648
2.1227
2.07776
0.231597
-0.935298
2.45299
5.44575
5.48697
5.61843
5.80933
2.70546
0.501875
0.236099
0.234661
0.232443
0.230144
0.227482
0.224528
0.221537
0.218775
0.216501
0.214927
0.214085
0.214208
0.215157
0.21674
0.218703
0.220772
0.221951
0.437001
1.00224
1.13819
1.60032
1.85819
1.83826
0.698882
0.612464
1.89794
3.06096
3.07331
3.07633
3.06641
3.04701
2.96204
0.986957
0.690346
0.840615
0.991676
0.987888
0.992721
0.994239
0.126103
0.14033
0.049772
0.0920657
0.0433192
0.0633344
0.0236527
-0.0238595
0.124453
0.206286
0.181628
0.162432
0.151571
0.00914079
-0.342628
-0.324242
-0.301925
-0.280173
-0.261356
-0.246896
-0.238045
-0.236314
-0.243745
-0.262969
-0.297453
-0.354366
-0.438636
-0.554938
-0.69366
-0.716877
1.46045
0.924465
-0.97361
-1.19989
2.215
5.32583
5.32201
5.45524
5.66102
3.33936
0.39438
0.226448
0.225334
0.223555
0.221695
0.219523
0.217108
0.21463
0.212302
0.210297
0.208727
0.207746
0.207328
0.207436
0.207908
0.208529
0.209126
0.208528
0.21826
0.544564
0.786727
1.01526
1.71498
1.92621
1.85739
0.753453
1.0632
2.61556
3.09907
2.22427
0.931789
1.04974
0.348843
0.0287857
0.0542788
0.834707
1.03231
1.01393
0.347487
0.177749
0.208274
0.259227
0.26644
0.148246
0.38137
0.382225
0.364068
0.338971
0.307653
0.276686
0.250573
0.232833
-0.171803
-0.294543
-0.285198
-0.271547
-0.256534
-0.242166
-0.229988
-0.221313
-0.217562
-0.220446
-0.232194
-0.255735
-0.295648
-0.361027
-0.460305
-0.599181
-0.759411
-0.905023