/*--------------------------------*- C++ -*----------------------------------*\
| =========                 |                                                 |
| \\      /  F ield         | OpenFOAM: The Open Source CFD Toolbox           |
|  \\    /   O peration     | Version:  2412                                  |
|   \\  /    A nd           | Website:  www.openfoam.com                      |
|    \\/     M anipulation  |                                                 |
\*---------------------------------------------------------------------------*/
FoamFile
{
    version     2.0;
    format      ascii;
    arch        "LSB;label=32;scalar=64";
    class       surfaceScalarField;
    location    "1";
    object      phi;
}
// * * * * * * * * * * * * * * * * * * * * * * * * * * * * * * * * * * * * * //

dimensions      [0 3 -1 0 0 0 0];

oriented        oriented;

internalField   nonuniform List<scalar> 
12640
(
2.83162e-10
-3.55569e-10
1.40211e-10
-1.00456e-10
4.38564e-10
3.35501e-10
1.09189e-09
4.03194e-10
1.69295e-09
1.22961e-10
1.99173e-09
-1.6015e-10
2.05976e-09
-2.20378e-10
2.12397e-09
-8.84886e-11
2.29142e-09
8.09984e-11
2.5202e-09
1.86472e-10
2.73865e-09
2.0623e-10
2.92141e-09
1.56021e-10
3.05855e-09
6.98247e-11
3.13075e-09
-4.62567e-12
3.15948e-09
-4.86123e-11
3.19618e-09
-1.01265e-10
3.26438e-09
-2.2237e-10
3.32149e-09
-4.28261e-10
3.29813e-09
-6.71011e-10
3.16432e-09
-8.76989e-10
2.94497e-09
-9.99325e-10
2.68404e-09
-1.0363e-09
2.40662e-09
-1.01559e-09
2.11014e-09
-9.68106e-10
1.77965e-09
-9.12239e-10
1.40595e-09
-8.53056e-10
9.93262e-10
-7.90288e-10
5.56068e-10
-7.25757e-10
1.1211e-10
-6.65132e-10
-3.22189e-10
-6.14611e-10
-7.32797e-10
-5.76495e-10
-1.10788e-09
-5.47396e-10
-1.43834e-09
-5.20362e-10
-1.71929e-09
-4.89322e-10
-1.95184e-09
-4.52723e-10
-2.14372e-09
-4.13927e-10
-2.308e-09
-3.78391e-10
-2.45914e-09
-3.49896e-10
-2.60747e-09
-3.28509e-10
-2.7545e-09
-3.11303e-10
-2.89166e-09
-2.94785e-10
-3.00331e-09
-2.77045e-10
-3.07228e-09
-2.58321e-10
-3.08517e-09
-2.40045e-10
-3.0351e-09
-2.23367e-10
-2.92133e-09
-2.08183e-10
-2.74702e-09
-1.93117e-10
-2.51669e-09
-1.76303e-10
-2.2347e-09
-1.56414e-10
-1.90541e-09
-1.33339e-10
-1.53455e-09
-1.08118e-10
-1.13083e-09
-8.22742e-11
-7.06779e-10
-5.71207e-11
-2.77868e-10
-3.36731e-11
1.39927e-10
-1.31812e-11
5.33262e-10
2.4218e-12
8.93805e-10
1.0903e-11
1.21886e-09
1.0753e-11
1.51021e-09
1.70837e-12
1.77207e-09
-1.61639e-11
2.00909e-09
-4.40813e-11
2.22462e-09
-8.48311e-11
2.41927e-09
-1.40318e-10
2.58989e-09
-2.07963e-10
2.72991e-09
-2.79444e-10
2.83173e-09
-3.44464e-10
2.89024e-09
-3.97636e-10
2.90595e-09
-4.43385e-10
2.88491e-09
-4.93907e-10
2.83362e-09
-5.59459e-10
2.75021e-09
-6.35801e-10
2.6187e-09
-6.9713e-10
2.41477e-09
-7.04178e-10
2.1235e-09
-6.27249e-10
1.761e-09
-4.74251e-10
1.37808e-09
-3.03029e-10
1.02058e-09
-1.88165e-10
6.90971e-10
-1.74572e-10
3.41653e-10
-2.17975e-10
-2.50676e-10
8.7071e-10
-5.86106e-10
7.91872e-10
-7.81056e-10
9.14472e-10
-3.3529e-10
1.5799e-09
9.33468e-11
2.58587e-09
1.44232e-10
3.48962e-09
-7.74077e-11
4.10017e-09
-2.7901e-10
4.58445e-09
-3.05509e-10
5.12043e-09
-2.19655e-10
5.73339e-09
-1.45383e-10
6.35461e-09
-1.58876e-10
6.94506e-09
-2.86085e-10
7.47199e-09
-5.04823e-10
7.86664e-09
-7.55651e-10
8.08807e-09
-9.81095e-10
8.17048e-09
-1.1793e-09
8.17505e-09
-1.39888e-09
8.10719e-09
-1.68323e-09
7.90834e-09
-2.01902e-09
7.52559e-09
-2.34164e-09
6.96237e-09
-2.58295e-09
6.26698e-09
-2.71201e-09
5.49081e-09
-2.74019e-09
4.66259e-09
-2.69978e-09
3.79e-09
-2.61975e-09
2.87469e-09
-2.51518e-09
1.92507e-09
-2.39091e-09
9.6053e-10
-2.25048e-09
8.82732e-12
-2.10154e-09
-8.99343e-10
-1.95476e-09
-1.73581e-09
-1.81912e-09
-2.47975e-09
-1.69835e-09
-3.1211e-09
-1.59122e-09
-3.66175e-09
-1.49481e-09
-4.11421e-09
-1.40791e-09
-4.4986e-09
-1.33227e-09
-4.83841e-09
-1.27099e-09
-5.15522e-09
-1.22583e-09
-5.46259e-09
-1.19534e-09
-5.76115e-09
-1.17511e-09
-6.03729e-09
-1.15963e-09
-6.26698e-09
-1.14443e-09
-6.42298e-09
-1.12713e-09
-6.48241e-09
-1.10711e-09
-6.43122e-09
-1.08407e-09
-6.26447e-09
-1.05663e-09
-5.98341e-09
-1.02161e-09
-5.59146e-09
-9.74578e-10
-5.0914e-09
-9.11204e-10
-4.48484e-09
-8.28974e-10
-3.77426e-09
-7.28341e-10
-2.96651e-09
-6.13046e-10
-2.07612e-09
-4.89762e-10
-1.12633e-09
-3.67425e-10
-1.46694e-10
-2.56287e-10
8.3169e-10
-1.66461e-10
1.78097e-09
-1.05956e-10
2.67907e-09
-7.91215e-11
3.50962e-09
-8.67518e-11
4.26066e-09
-1.28202e-10
4.9238e-09
-2.03924e-10
5.4934e-09
-3.15843e-10
5.9644e-09
-4.64335e-10
6.32865e-09
-6.43675e-10
6.57274e-09
-8.39959e-10
6.68061e-09
-1.03422e-09
6.64222e-09
-1.2093e-09
6.46349e-09
-1.3559e-09
6.17134e-09
-1.47395e-09
5.80689e-09
-1.56941e-09
5.4065e-09
-1.64729e-09
4.97981e-09
-1.70377e-09
4.50175e-09
-1.72117e-09
3.93119e-09
-1.67437e-09
3.25213e-09
-1.5489e-09
2.50587e-09
-1.36213e-09
1.75658e-09
-1.16338e-09
1.06395e-09
-9.88579e-10
3.33409e-10
-7.96882e-10
-4.33223e-10
1.0661e-09
-3.81524e-10
1.36486e-09
-1.06126e-09
1.42144e-09
-1.0224e-09
1.78921e-09
-5.72578e-10
2.6636e-09
-2.35959e-10
3.78055e-09
-2.2743e-10
4.81581e-09
-4.21025e-10
5.71354e-09
-6.12797e-10
6.57503e-09
-7.21634e-10
7.45029e-09
-7.87812e-10
8.31089e-09
-8.79146e-10
9.14721e-09
-1.05167e-09
9.94157e-09
-1.32789e-09
1.05997e-08
-1.67366e-09
1.10137e-08
-2.0122e-09
1.11599e-08
-2.291e-09
1.10999e-08
-2.52312e-09
1.08936e-08
-2.75942e-09
1.05393e-08
-3.02805e-09
1.00002e-08
-3.30511e-09
9.25878e-09
-3.5389e-09
8.33748e-09
-3.69077e-09
7.2828e-09
-3.75372e-09
6.14189e-09
-3.74315e-09
4.94999e-09
-3.67841e-09
3.73025e-09
-3.5722e-09
2.50032e-09
-3.43157e-09
1.2799e-09
-3.26373e-09
9.48089e-11
-3.07953e-09
-1.02411e-09
-2.89193e-09
-2.04691e-09
-2.71209e-09
-2.95233e-09
-2.54656e-09
-3.73339e-09
-2.3974e-09
-4.39808e-09
-2.26422e-09
-4.9653e-09
-2.14667e-09
-5.45903e-09
-2.04574e-09
-5.90292e-09
-1.96352e-09
-6.31602e-09
-1.90187e-09
-6.70905e-09
-1.86078e-09
-7.08143e-09
-1.8376e-09
-7.42058e-09
-1.82731e-09
-7.70468e-09
-1.8239e-09
-7.90817e-09
-1.82175e-09
-8.00787e-09
-1.81639e-09
-7.98694e-09
-1.80432e-09
-7.83565e-09
-1.78223e-09
-7.54956e-09
-1.74625e-09
-7.12667e-09
-1.69197e-09
-6.56524e-09
-1.61523e-09
-5.86325e-09
-1.51335e-09
-5.02031e-09
-1.38632e-09
-4.04126e-09
-1.23756e-09
-2.93993e-09
-1.07413e-09
-1.7407e-09
-9.06477e-10
-4.76537e-10
-7.47405e-10
8.15675e-10
-6.10126e-10
2.09945e-09
-5.05918e-10
3.34032e-09
-4.42373e-10
4.50524e-09
-4.23275e-10
5.56288e-09
-4.49965e-10
6.48643e-09
-5.22992e-10
7.25737e-09
-6.42399e-10
7.86547e-09
-8.06104e-10
8.30356e-09
-1.0072e-09
8.56094e-09
-1.23226e-09
8.62317e-09
-1.4623e-09
8.48108e-09
-1.67657e-09
8.1444e-09
-1.85747e-09
7.6498e-09
-1.9957e-09
7.05594e-09
-2.09401e-09
6.42465e-09
-2.16819e-09
5.7937e-09
-2.238e-09
5.15879e-09
-2.31079e-09
4.47821e-09
-2.36662e-09
3.70913e-09
-2.36254e-09
2.85657e-09
-2.2598e-09
1.9648e-09
-2.05176e-09
1.12592e-09
-1.75318e-09
2.7915e-10
-1.32906e-09
-5.98725e-10
7.34162e-10
2.80323e-11
1.52225e-09
-7.86927e-10
1.86487e-09
-1.21866e-09
2.14815e-09
-1.08185e-09
2.7669e-09
-7.33258e-10
3.76631e-09
-5.64789e-10
4.9125e-09
-6.76591e-10
6.03607e-09
-9.52641e-10
7.10876e-09
-1.25537e-09
8.13707e-09
-1.51865e-09
9.09141e-09
-1.73886e-09
9.99212e-09
-1.95972e-09
1.08659e-08
-2.24349e-09
1.16492e-08
-2.61433e-09
1.22022e-08
-3.02164e-09
1.24354e-08
-3.38286e-09
1.2372e-08
-3.65527e-09
1.20937e-08
-3.85843e-09
1.16523e-08
-4.03637e-09
1.10456e-08
-4.21112e-09
1.02524e-08
-4.37144e-09
9.27215e-09
-4.49256e-09
8.13575e-09
-4.55652e-09
6.89277e-09
-4.55836e-09
5.59212e-09
-4.50189e-09
4.26988e-09
-4.39471e-09
2.94924e-09
-4.24631e-09
1.6489e-09
-4.0678e-09
3.91542e-10
-3.87123e-09
-7.94297e-10
-3.66807e-09
-1.87983e-09
-3.4677e-09
-2.84504e-09
-3.27687e-09
-3.68503e-09
-3.09996e-09
-4.41024e-09
-2.93951e-09
-5.04124e-09
-2.79696e-09
-5.60168e-09
-2.6733e-09
-6.1126e-09
-2.5698e-09
-6.58897e-09
-2.488e-09
-7.03746e-09
-2.4289e-09
-7.45527e-09
-2.39181e-09
-7.8303e-09
-2.37355e-09
-8.14355e-09
-2.36858e-09
-8.37317e-09
-2.36999e-09
-8.49864e-09
-2.37072e-09
-8.50334e-09
-2.36438e-09
-8.37514e-09
-2.34554e-09
-8.10546e-09
-2.30979e-09
-7.68782e-09
-2.25368e-09
-7.11694e-09
-2.17485e-09
-6.38897e-09
-2.07222e-09
-5.50329e-09
-1.94615e-09
-4.46584e-09
-1.79899e-09
-3.29217e-09
-1.63571e-09
-2.00826e-09
-1.46443e-09
-6.47835e-10
-1.29608e-09
7.5215e-10
-1.14295e-09
2.15456e-09
-1.01668e-09
3.52175e-09
-9.26633e-10
4.81371e-09
-8.79356e-10
5.98881e-09
-8.78819e-10
7.00945e-09
-9.26802e-10
7.84921e-09
-1.02309e-09
8.49551e-09
-1.16524e-09
8.94439e-09
-1.34787e-09
9.19166e-09
-1.56113e-09
9.22931e-09
-1.78946e-09
9.05196e-09
-2.01244e-09
8.66882e-09
-2.20949e-09
8.11091e-09
-2.3668e-09
7.42981e-09
-2.48451e-09
6.68769e-09
-2.57836e-09
5.94113e-09
-2.67335e-09
5.21974e-09
-2.78643e-09
4.51389e-09
-2.91092e-09
3.77918e-09
-3.00897e-09
2.97718e-09
-3.0252e-09
2.09518e-09
-2.90663e-09
1.19798e-09
-2.595e-09
2.86715e-10
-1.99563e-09
-8.76609e-10
1.94791e-10
2.16718e-10
1.24364e-09
-3.42043e-10
1.99334e-09
-9.17447e-10
2.48272e-09
-1.11176e-09
2.98727e-09
-1.02151e-09
3.76478e-09
-9.26842e-10
4.78292e-09
-1.02054e-09
5.911e-09
-1.31359e-09
7.0632e-09
-1.72449e-09
8.1753e-09
-2.15867e-09
9.16733e-09
-2.5412e-09
1.00395e-08
-2.85272e-09
1.08572e-08
-3.14921e-09
1.16242e-08
-3.50282e-09
1.22303e-08
-3.92214e-09
1.25483e-08
-4.34172e-09
1.25434e-08
-4.68716e-09
1.22727e-08
-4.93211e-09
1.18085e-08
-5.09939e-09
1.11818e-08
-5.22401e-09
1.03884e-08
-5.32365e-09
9.42465e-09
-5.39522e-09
8.31128e-09
-5.42611e-09
7.09114e-09
-5.40551e-09
5.81145e-09
-5.33004e-09
4.50872e-09
-5.20451e-09
3.20633e-09
-5.03941e-09
1.92243e-09
-4.84712e-09
6.78865e-10
-4.63877e-09
-4.96857e-10
-4.42302e-09
-1.57727e-09
-4.20677e-09
-2.54377e-09
-3.99627e-09
-3.3925e-09
-3.79744e-09
-4.13409e-09
-3.61521e-09
-4.78851e-09
-3.45263e-09
-5.37823e-09
-3.31095e-09
-5.92258e-09
-3.19043e-09
-6.43416e-09
-3.09124e-09
-6.91684e-09
-3.01351e-09
-7.36525e-09
-2.95657e-09
-7.76583e-09
-2.91799e-09
-8.09977e-09
-2.89325e-09
-8.34675e-09
-2.87616e-09
-8.48817e-09
-2.85967e-09
-8.50872e-09
-2.83685e-09
-8.39639e-09
-2.80162e-09
-8.14158e-09
-2.7494e-09
-7.73618e-09
-2.67761e-09
-7.17328e-09
-2.58565e-09
-6.44808e-09
-2.47454e-09
-5.56022e-09
-2.34627e-09
-4.51723e-09
-2.20357e-09
-3.33711e-09
-2.05044e-09
-2.04801e-09
-1.89272e-09
-6.84414e-10
-1.7382e-09
7.17654e-10
-1.59574e-09
2.12284e-09
-1.47414e-09
3.49465e-09
-1.3812e-09
4.79252e-09
-1.32337e-09
5.97266e-09
-1.30546e-09
6.99454e-09
-1.33027e-09
7.82954e-09
-1.39847e-09
8.46518e-09
-1.50928e-09
8.90123e-09
-1.66073e-09
9.1406e-09
-1.84849e-09
9.18275e-09
-2.06277e-09
9.02552e-09
-2.28739e-09
8.67288e-09
-2.50372e-09
8.14205e-09
-2.69907e-09
7.46588e-09
-2.87106e-09
6.69502e-09
-3.02564e-09
5.8923e-09
-3.17029e-09
5.11726e-09
-3.31061e-09
4.39878e-09
-3.44888e-09
3.71427e-09
-3.58355e-09
3.00369e-09
-3.69231e-09
2.20887e-09
-3.70813e-09
1.32551e-09
-3.48854e-09
3.93312e-10
-2.80639e-09
-1.31634e-09
-1.23934e-10
7.35826e-11
8.64561e-10
-1.65663e-10
1.82083e-09
-5.59009e-10
2.56076e-09
-8.58612e-10
3.12056e-09
-1.02823e-09
3.76735e-09
-1.15355e-09
4.60084e-09
-1.34906e-09
5.59492e-09
-1.67549e-09
6.69352e-09
-2.13137e-09
7.8218e-09
-2.67047e-09
8.83999e-09
-3.20287e-09
9.68137e-09
-3.64587e-09
1.03977e-08
-3.99921e-09
1.10567e-08
-4.33613e-09
1.16187e-08
-4.71717e-09
1.19697e-08
-5.12994e-09
1.20318e-08
-5.51267e-09
1.18155e-08
-5.81446e-09
1.13785e-08
-6.0258e-09
1.07665e-08
-6.16581e-09
9.99574e-09
-6.25523e-09
9.07335e-09
-6.30188e-09
8.01958e-09
-6.30244e-09
6.87037e-09
-6.25121e-09
5.66482e-09
-6.14737e-09
4.43355e-09
-5.99716e-09
3.19759e-09
-5.81148e-09
1.97537e-09
-5.60176e-09
7.89499e-10
-5.37712e-09
-3.33028e-10
-5.14424e-09
-1.36674e-09
-4.90898e-09
-2.29531e-09
-4.67781e-09
-3.11591e-09
-4.45791e-09
-3.83865e-09
-4.2559e-09
-4.48207e-09
-4.07641e-09
-5.06735e-09
-3.92163e-09
-5.61301e-09
-3.79176e-09
-6.1309e-09
-3.6858e-09
-6.62375e-09
-3.60185e-09
-7.08448e-09
-3.53687e-09
-7.49787e-09
-3.48632e-09
-7.84401e-09
-3.44441e-09
-8.10228e-09
-3.40466e-09
-8.25442e-09
-3.36065e-09
-8.28579e-09
-3.3066e-09
-8.18515e-09
-3.23771e-09
-7.94354e-09
-3.15069e-09
-7.55323e-09
-3.04428e-09
-7.00722e-09
-2.91949e-09
-6.30031e-09
-2.77917e-09
-5.43198e-09
-2.62726e-09
-4.41033e-09
-2.4682e-09
-3.25463e-09
-2.30689e-09
-1.99423e-09
-2.14891e-09
-6.63773e-10
-2.00038e-09
7.01809e-10
-1.86748e-09
2.06891e-09
-1.75589e-09
3.40265e-09
-1.6707e-09
4.66363e-09
-1.61633e-09
5.80898e-09
-1.59625e-09
6.7988e-09
-1.61239e-09
7.60483e-09
-1.66524e-09
8.21547e-09
-1.75491e-09
8.63368e-09
-1.88238e-09
8.86877e-09
-2.04864e-09
8.9274e-09
-2.25135e-09
8.80923e-09
-2.48152e-09
8.51101e-09
-2.72606e-09
8.0354e-09
-2.97463e-09
7.4016e-09
-3.22273e-09
6.65004e-09
-3.46372e-09
5.84233e-09
-3.68322e-09
5.04279e-09
-3.86525e-09
4.29779e-09
-4.0125e-09
3.60894e-09
-4.15351e-09
2.9396e-09
-4.31254e-09
2.23403e-09
-4.43247e-09
1.44203e-09
-4.31503e-09
5.49405e-10
-3.60276e-09
-1.79673e-09
-9.33771e-11
-1.59816e-10
6.84518e-10
-2.54691e-10
1.59203e-09
-4.08654e-10
2.40588e-09
-6.17028e-10
3.05355e-09
-8.87768e-10
3.68234e-09
-1.20306e-09
4.40132e-09
-1.56371e-09
5.23369e-09
-1.97948e-09
6.1933e-09
-2.47641e-09
7.25391e-09
-3.0681e-09
8.27662e-09
-3.71027e-09
9.11652e-09
-4.30175e-09
9.76367e-09
-4.77672e-09
1.02978e-08
-5.15644e-09
1.07519e-08
-5.5089e-09
1.10623e-08
-5.87214e-09
1.11466e-08
-6.22983e-09
1.09775e-08
-6.5427e-09
1.05843e-08
-6.78508e-09
1.00082e-08
-6.954e-09
9.27646e-09
-7.05709e-09
8.40671e-09
-7.10038e-09
7.42198e-09
-7.08537e-09
6.35356e-09
-7.01298e-09
5.23329e-09
-6.88744e-09
4.08645e-09
-6.7171e-09
2.93242e-09
-6.51229e-09
1.79048e-09
-6.28274e-09
6.83882e-10
-6.03655e-09
-3.61602e-10
-5.78075e-09
-1.32343e-09
-5.52251e-09
-2.18831e-09
-5.26961e-09
-2.9551e-09
-5.03002e-09
-3.6338e-09
-4.81072e-09
-4.24179e-09
-4.6168e-09
-4.79906e-09
-4.4511e-09
-5.32332e-09
-4.31436e-09
-5.82578e-09
-4.20539e-09
-6.30825e-09
-4.12086e-09
-6.76256e-09
-4.05512e-09
-7.1725e-09
-4.00047e-09
-7.51766e-09
-3.94822e-09
-7.77741e-09
-3.89008e-09
-7.93365e-09
-3.81936e-09
-7.97196e-09
-3.73134e-09
-7.88142e-09
-3.62316e-09
-7.65366e-09
-3.49371e-09
-7.28161e-09
-3.34376e-09
-6.75868e-09
-3.17606e-09
-6.07959e-09
-2.9951e-09
-5.24344e-09
-2.80653e-09
-4.25812e-09
-2.61649e-09
-3.14284e-09
-2.43132e-09
-1.92664e-09
-2.25719e-09
-6.43205e-10
-2.09966e-09
6.741e-10
-1.96333e-09
1.9933e-09
-1.85185e-09
3.28088e-09
-1.76834e-09
4.49879e-09
-1.71573e-09
5.6056e-09
-1.69631e-09
6.56272e-09
-1.71124e-09
7.3424e-09
-1.76065e-09
7.93292e-09
-1.84501e-09
8.33831e-09
-1.96701e-09
8.57211e-09
-2.13185e-09
8.64681e-09
-2.34408e-09
8.56424e-09
-2.60258e-09
8.31425e-09
-2.89849e-09
7.88933e-09
-3.21945e-09
7.30208e-09
-3.55297e-09
6.59327e-09
-3.88314e-09
5.81761e-09
-4.18548e-09
5.02653e-09
-4.43642e-09
4.25078e-09
-4.63149e-09
3.50877e-09
-4.80248e-09
2.81228e-09
-4.9851e-09
2.15653e-09
-5.13623e-09
1.47951e-09
-5.04113e-09
6.58037e-10
-4.27976e-09
-2.1845e-09
1.09806e-10
-2.34743e-10
7.37878e-10
-3.51108e-10
1.47998e-09
-4.03293e-10
2.19909e-09
-5.1e-10
2.84254e-09
-7.59734e-10
3.48481e-09
-1.16587e-09
4.16214e-09
-1.67518e-09
4.88204e-09
-2.22627e-09
5.6772e-09
-2.801e-09
6.59979e-09
-3.43211e-09
7.56621e-09
-4.13173e-09
8.4099e-09
-4.83811e-09
9.04124e-09
-5.45872e-09
9.5007e-09
-5.95338e-09
9.84806e-09
-6.35143e-09
1.00749e-08
-6.70355e-09
1.01249e-08
-7.03334e-09
9.96282e-09
-7.33215e-09
9.59704e-09
-7.58097e-09
9.05741e-09
-7.76706e-09
8.37059e-09
-7.88646e-09
7.55755e-09
-7.93922e-09
6.64158e-09
-7.92689e-09
5.65068e-09
-7.85282e-09
4.61248e-09
-7.72292e-09
3.5497e-09
-7.54494e-09
2.48124e-09
-7.32715e-09
1.42657e-09
-7.07773e-09
4.08293e-10
-6.80514e-09
-5.49878e-10
-6.51879e-09
-1.42831e-09
-6.22909e-09
-2.21639e-09
-5.94658e-09
-2.91461e-09
-5.6807e-09
-3.53356e-09
-5.43885e-09
-4.09058e-09
-5.22605e-09
-4.60531e-09
-5.04513e-09
-5.0948e-09
-4.89684e-09
-5.56912e-09
-4.77959e-09
-6.02847e-09
-4.68891e-09
-6.46316e-09
-4.61717e-09
-6.85626e-09
-4.55424e-09
-7.18782e-09
-4.489e-09
-7.43838e-09
-4.41129e-09
-7.5911e-09
-4.3133e-09
-7.63224e-09
-4.19011e-09
-7.55107e-09
-4.0396e-09
-7.33922e-09
-3.86221e-09
-6.98966e-09
-3.66087e-09
-6.49577e-09
-3.4407e-09
-5.85194e-09
-3.20847e-09
-5.05672e-09
-2.97174e-09
-4.11721e-09
-2.73829e-09
-3.05162e-09
-2.51555e-09
-1.88751e-09
-2.31024e-09
-6.56707e-10
-2.1277e-09
6.09241e-10
-1.97173e-09
1.87972e-09
-1.84493e-09
3.12221e-09
-1.74971e-09
4.29979e-09
-1.68866e-09
5.37252e-09
-1.66431e-09
6.30315e-09
-1.67815e-09
7.0641e-09
-1.73057e-09
7.64236e-09
-1.82221e-09
8.04055e-09
-1.95667e-09
8.27332e-09
-2.14212e-09
8.358e-09
-2.38926e-09
8.30063e-09
-2.70475e-09
8.09028e-09
-3.08414e-09
7.71194e-09
-3.5096e-09
7.17434e-09
-3.95475e-09
6.51497e-09
-4.3907e-09
5.78473e-09
-4.79276e-09
5.01613e-09
-5.14264e-09
4.22349e-09
-5.43279e-09
3.42687e-09
-5.67053e-09
2.68668e-09
-5.87166e-09
2.04614e-09
-5.99377e-09
1.4438e-09
-5.83607e-09
6.65442e-10
-4.95591e-09
-2.52585e-09
2.64498e-10
-1.3953e-10
8.53065e-10
-3.02294e-10
1.47315e-09
-3.92796e-10
2.04557e-09
-4.8652e-10
2.60476e-09
-7.23974e-10
3.20869e-09
-1.17206e-09
3.86854e-09
-1.80057e-09
4.52655e-09
-2.50384e-09
5.19409e-09
-3.20715e-09
5.94803e-09
-3.90575e-09
6.79282e-09
-4.63789e-09
7.59318e-09
-5.39797e-09
8.22413e-09
-6.12198e-09
8.6617e-09
-6.74377e-09
8.94743e-09
-7.247e-09
9.09677e-09
-7.65922e-09
9.08763e-09
-8.01265e-09
8.89851e-09
-8.32027e-09
8.53478e-09
-8.57784e-09
8.01824e-09
-8.77695e-09
7.37057e-09
-8.91181e-09
6.61023e-09
-8.98033e-09
5.75821e-09
-8.98261e-09
4.83991e-09
-8.92086e-09
3.88098e-09
-8.79902e-09
2.90309e-09
-8.62237e-09
1.92431e-09
-8.39704e-09
9.62504e-10
-8.13031e-09
3.77201e-11
-7.83137e-09
-8.29222e-10
-7.51186e-09
-1.62107e-09
-7.18515e-09
-2.32867e-09
-6.86483e-09
-2.95331e-09
-6.56291e-09
-3.50611e-09
-6.2886e-09
-4.00494e-09
-6.04792e-09
-4.46981e-09
-5.84382e-09
-4.91749e-09
-5.67631e-09
-5.35672e-09
-5.54221e-09
-5.78575e-09
-5.43494e-09
-6.19305e-09
-5.34478e-09
-6.56102e-09
-5.26007e-09
-6.87049e-09
-5.16891e-09
-7.10384e-09
-5.0608e-09
-7.24617e-09
-4.92756e-09
-7.28523e-09
-4.76361e-09
-7.21108e-09
-4.56629e-09
-7.01572e-09
-4.33617e-09
-6.69206e-09
-4.07735e-09
-6.23296e-09
-3.79701e-09
-5.63178e-09
-3.50424e-09
-4.8857e-09
-3.20886e-09
-4.00022e-09
-2.92052e-09
-2.99169e-09
-2.64832e-09
-1.88544e-09
-2.40021e-09
-7.11014e-10
-2.18226e-09
5.01819e-10
-1.99829e-09
1.72331e-09
-1.85054e-09
2.92127e-09
-1.7409e-09
4.05944e-09
-1.67191e-09
5.09935e-09
-1.64631e-09
6.00538e-09
-1.66596e-09
6.75036e-09
-1.73119e-09
7.3193e-09
-1.84249e-09
7.71115e-09
-2.00397e-09
7.93851e-09
-2.22614e-09
8.02142e-09
-2.5242e-09
7.97418e-09
-2.91078e-09
7.79277e-09
-3.38638e-09
7.46376e-09
-3.93182e-09
6.98602e-09
-4.50968e-09
6.38543e-09
-5.07787e-09
5.69787e-09
-5.60617e-09
4.95507e-09
-6.08101e-09
4.16656e-09
-6.4879e-09
3.3613e-09
-6.80832e-09
2.60985e-09
-7.02634e-09
1.98244e-09
-7.1029e-09
1.39467e-09
-6.85137e-09
6.16996e-10
-5.79953e-09
-2.95092e-09
2.83133e-10
-2.07166e-11
8.80572e-10
-1.8682e-10
1.44747e-09
-3.32341e-10
1.92152e-09
-4.80542e-10
2.36948e-09
-7.54471e-10
2.89168e-09
-1.25847e-09
3.50436e-09
-1.98565e-09
4.13242e-09
-2.83577e-09
4.72265e-09
-3.69172e-09
5.34116e-09
-4.5015e-09
6.0327e-09
-5.28074e-09
6.73333e-09
-6.05807e-09
7.32516e-09
-6.81778e-09
7.74965e-09
-7.5133e-09
8.00699e-09
-8.11064e-09
8.10859e-09
-8.60875e-09
8.04966e-09
-9.02563e-09
7.82742e-09
-9.37508e-09
7.45362e-09
-9.6611e-09
6.94873e-09
-9.88197e-09
6.33096e-09
-1.00364e-08
5.61597e-09
-1.01237e-08
4.82256e-09
-1.01435e-08
3.97426e-09
-1.00956e-08
3.09535e-09
-9.98147e-09
2.20619e-09
-9.80436e-09
1.32286e-09
-9.56996e-09
4.60082e-10
-9.28609e-09
-3.66037e-10
-8.96293e-09
-1.13834e-09
-8.61302e-09
-1.84205e-09
-8.25087e-09
-2.46906e-09
-7.89171e-09
-3.02075e-09
-7.54983e-09
-3.50805e-09
-7.237e-09
-3.94873e-09
-6.96141e-09
-4.36257e-09
-6.72723e-09
-4.76561e-09
-6.53418e-09
-5.16524e-09
-6.37738e-09
-5.55811e-09
-6.24762e-09
-5.93174e-09
-6.1326e-09
-6.26867e-09
-6.01898e-09
-6.55092e-09
-5.89446e-09
-6.76254e-09
-5.74899e-09
-6.8902e-09
-5.57487e-09
-6.92307e-09
-5.36658e-09
-6.85262e-09
-5.12115e-09
-6.67216e-09
-4.83897e-09
-6.37535e-09
-4.52442e-09
-5.9547e-09
-4.18529e-09
-5.40213e-09
-3.83152e-09
-4.71277e-09
-3.47399e-09
-3.88986e-09
-3.12408e-09
-2.94721e-09
-2.79336e-09
-1.90727e-09
-2.49266e-09
-7.96643e-10
-2.23056e-09
3.57059e-10
-2.01272e-09
1.52494e-09
-1.84248e-09
2.67481e-09
-1.72265e-09
3.77069e-09
-1.65639e-09
4.77551e-09
-1.64656e-09
5.65565e-09
-1.69384e-09
6.38448e-09
-1.79615e-09
6.94426e-09
-1.95131e-09
7.32846e-09
-2.16212e-09
7.54497e-09
-2.43973e-09
7.61519e-09
-2.80077e-09
7.56189e-09
-3.26028e-09
7.39563e-09
-3.82299e-09
7.11063e-09
-4.47602e-09
6.70072e-09
-5.18378e-09
6.16634e-09
-5.89701e-09
5.5272e-09
-6.57329e-09
4.81565e-09
-7.18581e-09
4.06715e-09
-7.70893e-09
3.30694e-09
-8.10413e-09
2.59369e-09
-8.34554e-09
1.98077e-09
-8.39213e-09
1.3751e-09
-8.06145e-09
5.72987e-10
-6.81356e-09
-3.485e-09
2.15219e-10
-7.13524e-12
7.85763e-10
-1.31896e-10
1.3302e-09
-2.73677e-10
1.74805e-09
-4.60085e-10
2.11598e-09
-7.9968e-10
2.53203e-09
-1.36833e-09
3.07588e-09
-2.17772e-09
3.66401e-09
-3.13703e-09
4.22303e-09
-4.12958e-09
4.7589e-09
-5.06685e-09
5.32675e-09
-5.93141e-09
5.90134e-09
-6.74501e-09
6.4098e-09
-7.52153e-09
6.78845e-09
-8.24751e-09
7.0154e-09
-8.89931e-09
7.08411e-09
-9.46604e-09
6.99317e-09
-9.94914e-09
6.74877e-09
-1.03543e-08
6.36868e-09
-1.06837e-08
5.87408e-09
-1.09388e-08
5.28257e-09
-1.11206e-08
4.60964e-09
-1.12304e-08
3.87362e-09
-1.12672e-08
3.09679e-09
-1.12294e-08
2.30122e-09
-1.11168e-08
1.50479e-09
-1.09329e-08
7.2071e-10
-1.06845e-08
-3.96251e-11
-1.03816e-08
-7.63896e-10
-1.0036e-08
-1.43873e-09
-9.66118e-09
-2.0524e-09
-9.27189e-09
-2.59857e-09
-8.88349e-09
-3.07909e-09
-8.5107e-09
-3.50436e-09
-8.16615e-09
-3.89105e-09
-7.85906e-09
-4.25726e-09
-7.5944e-09
-4.61693e-09
-7.37213e-09
-4.97532e-09
-7.1869e-09
-5.32776e-09
-7.02836e-09
-5.66194e-09
-6.8828e-09
-5.96207e-09
-6.7356e-09
-6.21234e-09
-6.57359e-09
-6.39861e-09
-6.38623e-09
-6.50865e-09
-6.1657e-09
-6.53261e-09
-5.90684e-09
-6.46338e-09
-5.60755e-09
-6.29597e-09
-5.26953e-09
-6.02512e-09
-4.89823e-09
-5.64319e-09
-4.50179e-09
-5.14088e-09
-4.08982e-09
-4.51171e-09
-3.67304e-09
-3.75718e-09
-3.2638e-09
-2.88882e-09
-2.87597e-09
-1.9258e-09
-2.52329e-09
-8.90982e-10
-2.21697e-09
1.90913e-10
-1.96452e-09
1.29237e-09
-1.77118e-09
2.38168e-09
-1.64211e-09
3.42399e-09
-1.58326e-09
4.38501e-09
-1.59928e-09
5.23431e-09
-1.69041e-09
5.946e-09
-1.85174e-09
6.49821e-09
-2.0773e-09
6.8768e-09
-2.36705e-09
7.0837e-09
-2.72954e-09
7.13979e-09
-3.17782e-09
7.07472e-09
-3.72138e-09
6.91031e-09
-4.36462e-09
6.65509e-09
-5.10348e-09
6.30189e-09
-5.91698e-09
5.83707e-09
-6.76029e-09
5.25666e-09
-7.57792e-09
4.60461e-09
-8.32249e-09
3.93179e-09
-8.95103e-09
3.26448e-09
-9.42356e-09
2.61101e-09
-9.70939e-09
2.01322e-09
-9.76447e-09
1.37486e-09
-9.36439e-09
5.4738e-10
-7.8925e-09
-4.04493e-09
1.43562e-10
-1.57307e-10
6.31183e-10
-2.54382e-10
1.11502e-09
-3.142e-10
1.50133e-09
-4.88539e-10
1.814e-09
-8.70618e-10
2.14786e-09
-1.50514e-09
2.59956e-09
-2.36928e-09
3.13667e-09
-3.39545e-09
3.66272e-09
-4.47425e-09
4.15899e-09
-5.517e-09
4.64225e-09
-6.48032e-09
5.11051e-09
-7.36607e-09
5.51687e-09
-8.18679e-09
5.8212e-09
-8.94396e-09
5.99624e-09
-9.63192e-09
6.02847e-09
-1.0244e-08
5.91261e-09
-1.07792e-08
5.65682e-09
-1.1236e-08
5.27951e-09
-1.16137e-08
4.80138e-09
-1.19111e-08
4.24049e-09
-1.21296e-08
3.61366e-09
-1.2269e-08
2.94003e-09
-1.23282e-08
2.24027e-09
-1.23049e-08
1.53317e-09
-1.21988e-08
8.32657e-10
-1.20134e-08
1.48652e-10
-1.1757e-08
-5.10217e-10
-1.1441e-08
-1.13431e-09
-1.10791e-08
-1.7132e-09
-1.06865e-08
-2.23797e-09
-1.02789e-08
-2.70437e-09
-9.87181e-09
-3.11516e-09
-9.4795e-09
-3.48046e-09
-9.11344e-09
-3.8156e-09
-8.78177e-09
-4.13643e-09
-8.48866e-09
-4.45393e-09
-8.23397e-09
-4.77055e-09
-8.01288e-09
-5.08002e-09
-7.81608e-09
-5.37045e-09
-7.63096e-09
-5.62825e-09
-7.44343e-09
-5.84052e-09
-7.23986e-09
-5.99554e-09
-7.00833e-09
-6.08286e-09
-6.73954e-09
-6.09423e-09
-6.4278e-09
-6.02433e-09
-6.07202e-09
-5.86959e-09
-5.67589e-09
-5.6251e-09
-5.24671e-09
-5.28233e-09
-4.7934e-09
-4.83082e-09
-4.3255e-09
-4.26347e-09
-3.85388e-09
-3.58131e-09
-3.39209e-09
-2.79417e-09
-2.95608e-09
-1.91762e-09
-2.56157e-09
-9.70247e-10
-2.22081e-09
2.62717e-11
-1.94168e-09
1.0454e-09
-1.72987e-09
2.05593e-09
-1.59229e-09
3.02547e-09
-1.53773e-09
3.92508e-09
-1.57384e-09
4.73022e-09
-1.7023e-09
5.41675e-09
-1.9176e-09
5.95804e-09
-2.2123e-09
6.33188e-09
-2.58472e-09
6.53508e-09
-3.04127e-09
6.5886e-09
-3.58815e-09
6.52288e-09
-4.22559e-09
6.36267e-09
-4.95042e-09
6.1232e-09
-5.76531e-09
5.80962e-09
-6.66429e-09
5.40423e-09
-7.61264e-09
4.8976e-09
-8.54508e-09
4.32853e-09
-9.39603e-09
3.76501e-09
-1.01186e-08
3.20616e-09
-1.06784e-08
2.62536e-09
-1.10456e-08
2.03826e-09
-1.11335e-08
1.38416e-09
-1.06574e-08
5.25576e-10
-8.90556e-09
-4.52331e-09
1.2431e-10
-4.0326e-10
4.71624e-10
-4.93889e-10
8.56467e-10
-4.35365e-10
1.18615e-09
-5.36532e-10
1.47578e-09
-9.32567e-10
1.7481e-09
-1.61856e-09
2.12289e-09
-2.53708e-09
2.58223e-09
-3.60356e-09
3.06306e-09
-4.73178e-09
3.51201e-09
-5.83983e-09
3.93469e-09
-6.88243e-09
4.31668e-09
-7.84705e-09
4.63369e-09
-8.73353e-09
4.85695e-09
-9.54314e-09
4.96909e-09
-1.02737e-08
4.95626e-09
-1.09279e-08
4.81422e-09
-1.15059e-08
4.55082e-09
-1.20081e-08
4.18268e-09
-1.24308e-08
3.72864e-09
-1.27722e-08
3.2062e-09
-1.30302e-08
2.63348e-09
-1.32038e-08
2.02979e-09
-1.32911e-08
1.41399e-09
-1.32906e-08
8.00773e-10
-1.32025e-08
1.99695e-10
-1.30306e-08
-3.83121e-10
-1.27825e-08
-9.41776e-10
-1.24693e-08
-1.46889e-09
-1.21054e-08
-1.95609e-09
-1.17068e-08
-2.39623e-09
-1.12909e-08
-2.78618e-09
-1.0874e-08
-3.12895e-09
-1.04698e-08
-3.43428e-09
-1.00886e-08
-3.71646e-09
-9.73633e-09
-3.98969e-09
-9.41547e-09
-4.26268e-09
-9.12478e-09
-4.53544e-09
-8.8598e-09
-4.80008e-09
-8.61313e-09
-5.04455e-09
-8.37514e-09
-5.25661e-09
-8.13462e-09
-5.42559e-09
-7.87948e-09
-5.54243e-09
-7.59754e-09
-5.59978e-09
-7.27818e-09
-5.59275e-09
-6.91453e-09
-5.519e-09
-6.50528e-09
-5.37634e-09
-6.05464e-09
-5.1591e-09
-5.57043e-09
-4.85688e-09
-5.06192e-09
-4.45807e-09
-4.53937e-09
-3.95576e-09
-4.01547e-09
-3.35127e-09
-3.50646e-09
-2.65261e-09
-3.03082e-09
-1.87103e-09
-2.60562e-09
-1.02014e-09
-2.24318e-09
-1.18875e-10
-1.95064e-09
8.06127e-10
-1.73301e-09
1.72311e-09
-1.59688e-09
2.60246e-09
-1.55179e-09
3.42234e-09
-1.60691e-09
4.16623e-09
-1.76552e-09
4.81307e-09
-2.02295e-09
5.33182e-09
-2.37187e-09
5.69382e-09
-2.81175e-09
5.89441e-09
-3.3489e-09
5.95702e-09
-3.98713e-09
5.90931e-09
-4.71694e-09
5.76488e-09
-5.52678e-09
5.53891e-09
-6.41645e-09
5.24992e-09
-7.39128e-09
4.90012e-09
-8.42276e-09
4.47226e-09
-9.44086e-09
4.00339e-09
-1.03704e-08
3.54719e-09
-1.11706e-08
3.1023e-09
-1.18273e-08
2.59475e-09
-1.22936e-08
2.04507e-09
-1.24262e-08
1.39568e-09
-1.18356e-08
5.03208e-10
-9.75316e-09
-4.82746e-09
1.61731e-10
-6.51526e-10
3.54642e-10
-7.63656e-10
5.90904e-10
-5.60486e-10
8.44939e-10
-5.60336e-10
1.09605e-09
-9.22275e-10
1.34428e-09
-1.64669e-09
1.65224e-09
-2.62065e-09
2.04123e-09
-3.7415e-09
2.44869e-09
-4.91459e-09
2.83671e-09
-6.07375e-09
3.18543e-09
-7.17589e-09
3.48919e-09
-8.20274e-09
3.72508e-09
-9.14926e-09
3.87623e-09
-1.00091e-08
3.92732e-09
-1.07843e-08
3.86922e-09
-1.14766e-08
3.701e-09
-1.20926e-08
3.43192e-09
-1.26314e-08
3.0778e-09
-1.30926e-08
2.65474e-09
-1.34716e-08
2.17909e-09
-1.37661e-08
1.66807e-09
-1.3973e-08
1.14041e-09
-1.40906e-08
6.12606e-10
-1.41179e-08
9.6159e-11
-1.40567e-08
-4.03261e-10
-1.39106e-08
-8.83114e-10
-1.36866e-08
-1.34086e-09
-1.33941e-08
-1.77197e-09
-1.30461e-08
-2.17016e-09
-1.26582e-08
-2.52926e-09
-1.22471e-08
-2.84588e-09
-1.18288e-08
-3.12202e-09
-1.14168e-08
-3.36616e-09
-1.10205e-08
-3.5915e-09
-1.06455e-08
-3.81122e-09
-1.0293e-08
-4.03306e-09
-9.96112e-09
-4.25614e-09
-9.64515e-09
-4.47194e-09
-9.33892e-09
-4.66823e-09
-9.03556e-09
-4.83289e-09
-8.72763e-09
-4.95602e-09
-8.40658e-09
-5.03048e-09
-8.06275e-09
-5.05248e-09
-7.68666e-09
-5.02181e-09
-7.27152e-09
-4.94011e-09
-6.81503e-09
-4.80678e-09
-6.31942e-09
-4.61526e-09
-5.78993e-09
-4.3535e-09
-5.23406e-09
-4.00948e-09
-4.6625e-09
-3.57713e-09
-4.09084e-09
-3.05781e-09
-3.53931e-09
-2.45676e-09
-3.02953e-09
-1.77974e-09
-2.57987e-09
-1.03487e-09
-2.20256e-09
-2.38282e-10
-1.90429e-09
5.82887e-10
-1.6893e-09
1.39587e-09
-1.56351e-09
2.17341e-09
-1.53636e-09
2.90105e-09
-1.61847e-09
3.57099e-09
-1.81502e-09
4.16527e-09
-2.12093e-09
4.64843e-09
-2.52604e-09
4.98628e-09
-3.02638e-09
5.17716e-09
-3.63023e-09
5.2518e-09
-4.34397e-09
5.23453e-09
-5.15948e-09
5.12021e-09
-6.05539e-09
4.91152e-09
-7.02488e-09
4.64631e-09
-8.07044e-09
4.35074e-09
-9.1714e-09
4.01219e-09
-1.0256e-08
3.63638e-09
-1.12474e-08
3.27519e-09
-1.21158e-08
2.91977e-09
-1.286e-08
2.51078e-09
-1.34293e-08
2.03103e-09
-1.36044e-08
1.42081e-09
-1.28945e-08
4.83736e-10
-1.04461e-08
-4.9874e-09
2.57707e-10
-8.37839e-10
2.95296e-10
-9.78206e-10
3.72555e-10
-6.70942e-10
5.05372e-10
-5.47174e-10
7.03349e-10
-8.43299e-10
9.1301e-10
-1.55041e-09
1.18039e-09
-2.55932e-09
1.49855e-09
-3.7307e-09
1.83476e-09
-4.95954e-09
2.14145e-09
-6.1713e-09
2.4096e-09
-7.3241e-09
2.62772e-09
-8.40049e-09
2.78637e-09
-9.38935e-09
2.86965e-09
-1.02896e-08
2.86523e-09
-1.10984e-08
2.76634e-09
-1.18239e-08
2.57549e-09
-1.24685e-08
2.30508e-09
-1.30369e-08
1.96982e-09
-1.35266e-08
1.58454e-09
-1.39367e-08
1.16266e-09
-1.42627e-08
7.19675e-10
-1.45019e-08
2.71645e-10
-1.46512e-08
-1.67078e-10
-1.47106e-08
-5.87568e-10
-1.46817e-08
-9.86425e-10
-1.45692e-08
-1.36391e-09
-1.43796e-08
-1.72059e-09
-1.41217e-08
-2.05514e-09
-1.38067e-08
-2.36365e-09
-1.34479e-08
-2.64091e-09
-1.30594e-08
-2.88307e-09
-1.26549e-08
-3.09077e-09
-1.22457e-08
-3.27081e-09
-1.18405e-08
-3.43476e-09
-1.1445e-08
-3.59452e-09
-1.10609e-08
-3.75715e-09
-1.06866e-08
-3.92204e-09
-1.03176e-08
-4.08166e-09
-9.94849e-09
-4.22473e-09
-9.57416e-09
-4.33951e-09
-9.1902e-09
-4.41619e-09
-8.79209e-09
-4.4487e-09
-8.37453e-09
-4.43598e-09
-7.93196e-09
-4.38168e-09