/*--------------------------------*- C++ -*----------------------------------*\
| =========                 |                                                 |
| \\      /  F ield         | OpenFOAM: The Open Source CFD Toolbox           |
|  \\    /   O peration     | Version:  2412                                  |
|   \\  /    A nd           | Website:  www.openfoam.com                      |
|    \\/     M anipulation  |                                                 |
\*---------------------------------------------------------------------------*/
FoamFile
{
    version     2.0;
    format      ascii;
    arch        "LSB;label=32;scalar=64";
    class       volVectorField;
    location    "7.82";
    object      U;
}
// * * * * * * * * * * * * * * * * * * * * * * * * * * * * * * * * * * * * * //

dimensions      [0 1 -1 0 0 0 0];

internalField   nonuniform List<vector> 
80000
(
(0.00104936 -0.00149636 0)
(0.00355394 -0.0018022 0)
(0.00587894 -0.0018213 0)
(0.0085205 -0.00191428 0)
(0.0111364 -0.00189962 0)
(0.0137164 -0.00187696 0)
(0.016321 -0.00187037 0)
(0.0189219 -0.00187004 0)
(0.0215267 -0.00187286 0)
(0.0241347 -0.00187162 0)
(0.0267451 -0.00187242 0)
(0.0293603 -0.00187565 0)
(0.0319815 -0.00187899 0)
(0.0346079 -0.00188165 0)
(0.0372391 -0.00188405 0)
(0.0398766 -0.00188831 0)
(0.0425219 -0.00189313 0)
(0.0451754 -0.00189785 0)
(0.0478373 -0.00190313 0)
(0.0505086 -0.00190894 0)
(0.0531898 -0.00191511 0)
(0.0558816 -0.00192153 0)
(0.0585841 -0.00192819 0)
(0.061298 -0.00193518 0)
(0.0640238 -0.00194255 0)
(0.0667618 -0.00195031 0)
(0.0695127 -0.00195834 0)
(0.072277 -0.00196665 0)
(0.0750548 -0.00197522 0)
(0.0778466 -0.00198401 0)
(0.0806527 -0.00199303 0)
(0.0834734 -0.00200226 0)
(0.086309 -0.00201168 0)
(0.0891599 -0.00202127 0)
(0.0920262 -0.00203107 0)
(0.0949085 -0.00204114 0)
(0.0978071 -0.00205125 0)
(0.100722 -0.00206167 0)
(0.103654 -0.0020723 0)
(0.106602 -0.00208304 0)
(0.109568 -0.00209387 0)
(0.112552 -0.00210479 0)
(0.115553 -0.00211595 0)
(0.118572 -0.00212733 0)
(0.121609 -0.00213867 0)
(0.124665 -0.00215085 0)
(0.127739 -0.00216237 0)
(0.130833 -0.00217394 0)
(0.133945 -0.00218597 0)
(0.137076 -0.00219791 0)
(0.140226 -0.00221002 0)
(0.143396 -0.00222215 0)
(0.146586 -0.00223436 0)
(0.149795 -0.00224662 0)
(0.153024 -0.00225886 0)
(0.156272 -0.00227097 0)
(0.159541 -0.00228332 0)
(0.162829 -0.0022956 0)
(0.166137 -0.00230782 0)
(0.169466 -0.00231987 0)
(0.172815 -0.00233211 0)
(0.176183 -0.00234435 0)
(0.179571 -0.00235651 0)
(0.182979 -0.00236855 0)
(0.186407 -0.00238065 0)
(0.189854 -0.00239275 0)
(0.193321 -0.00240469 0)
(0.196807 -0.00241631 0)
(0.200313 -0.00242793 0)
(0.203837 -0.0024394 0)
(0.207381 -0.00245075 0)
(0.210944 -0.00246192 0)
(0.214525 -0.00247285 0)
(0.218124 -0.00248367 0)
(0.221742 -0.00249427 0)
(0.225377 -0.0025048 0)
(0.22903 -0.00251502 0)
(0.2327 -0.00252496 0)
(0.236388 -0.00253461 0)
(0.240092 -0.00254398 0)
(0.243812 -0.00255312 0)
(0.247548 -0.00256201 0)
(0.2513 -0.0025706 0)
(0.255066 -0.00257891 0)
(0.258847 -0.00258684 0)
(0.262642 -0.00259437 0)
(0.266451 -0.00260155 0)
(0.270273 -0.00260931 0)
(0.274108 -0.00261604 0)
(0.277955 -0.00262198 0)
(0.281813 -0.00262764 0)
(0.285682 -0.00263308 0)
(0.289562 -0.00263803 0)
(0.293451 -0.00264246 0)
(0.29735 -0.00264646 0)
(0.301257 -0.00265011 0)
(0.305172 -0.0026533 0)
(0.309094 -0.0026559 0)
(0.313023 -0.00265795 0)
(0.316957 -0.00265953 0)
(0.320895 -0.00266055 0)
(0.324838 -0.00266095 0)
(0.328784 -0.00266078 0)
(0.332732 -0.00266006 0)
(0.336681 -0.00265879 0)
(0.340632 -0.00265693 0)
(0.344581 -0.00265444 0)
(0.34853 -0.00265127 0)
(0.352476 -0.00264742 0)
(0.35642 -0.00264295 0)
(0.360359 -0.00263805 0)
(0.364294 -0.00263249 0)
(0.368222 -0.00262601 0)
(0.372143 -0.00261875 0)
(0.376056 -0.00261083 0)
(0.379959 -0.00260218 0)
(0.383852 -0.00259276 0)
(0.387733 -0.00258252 0)
(0.391601 -0.00257143 0)
(0.395455 -0.00255948 0)
(0.399293 -0.00254683 0)
(0.403115 -0.00253352 0)
(0.40692 -0.00251927 0)
(0.410705 -0.002504 0)
(0.414469 -0.0024878 0)
(0.418212 -0.00247088 0)
(0.421931 -0.00245332 0)
(0.425627 -0.0024347 0)
(0.429296 -0.00241488 0)
(0.432937 -0.00239439 0)
(0.43655 -0.00237304 0)
(0.440132 -0.00235019 0)
(0.443682 -0.00232638 0)
(0.447199 -0.00230228 0)
(0.450681 -0.00227703 0)
(0.454127 -0.00225041 0)
(0.457533 -0.00222277 0)
(0.4609 -0.00219408 0)
(0.464226 -0.00216425 0)
(0.467508 -0.00213335 0)
(0.470744 -0.00210138 0)
(0.473934 -0.00206822 0)
(0.477075 -0.00203394 0)
(0.480166 -0.00199853 0)
(0.483205 -0.00196197 0)
(0.48619 -0.00192429 0)
(0.489118 -0.00188538 0)
(0.491988 -0.00184516 0)
(0.494799 -0.00180364 0)
(0.497547 -0.00176089 0)
(0.500232 -0.00171687 0)
(0.50285 -0.00167165 0)
(0.5054 -0.00162522 0)
(0.50788 -0.00157735 0)
(0.510288 -0.00152801 0)
(0.512621 -0.00147739 0)
(0.514877 -0.00142538 0)
(0.517054 -0.00137199 0)
(0.51915 -0.00131747 0)
(0.521163 -0.00126157 0)
(0.523091 -0.00120404 0)
(0.52493 -0.00114502 0)
(0.526679 -0.00108469 0)
(0.528335 -0.00102292 0)
(0.529896 -0.000959646 0)
(0.531359 -0.000894888 0)
(0.532723 -0.000828691 0)
(0.533984 -0.000761088 0)
(0.535141 -0.000691963 0)
(0.53619 -0.000621289 0)
(0.537129 -0.000549097 0)
(0.537956 -0.000475404 0)
(0.538668 -0.000400206 0)
(0.539262 -0.000323582 0)
(0.539737 -0.0002455 0)
(0.540089 -0.000166127 0)
(0.540316 -8.57185e-05 0)
(0.540415 -6.0845e-06 0)
(0.540384 7.63475e-05 0)
(0.540217 0.000162848 0)
(0.539916 0.000249528 0)
(0.539477 0.000337534 0)
(0.538897 0.000427539 0)
(0.538175 0.000519664 0)
(0.537308 0.000614124 0)
(0.536293 0.00070982 0)
(0.535128 0.000806407 0)
(0.53381 0.000904043 0)
(0.532335 0.00100299 0)
(0.530703 0.00110334 0)
(0.52891 0.00120522 0)
(0.526955 0.00130839 0)
(0.524837 0.00141274 0)
(0.522552 0.00151817 0)
(0.520099 0.00162462 0)
(0.517474 0.00173211 0)
(0.514677 0.00184071 0)
(0.511706 0.00195024 0)
(0.50856 0.00206048 0)
(0.505237 0.0021714 0)
(0.501734 0.00228313 0)
(0.498051 0.00239564 0)
(0.494187 0.00250855 0)
(0.490141 0.00262167 0)
(0.485912 0.00273508 0)
(0.481499 0.00284882 0)
(0.476901 0.00296267 0)
(0.472119 0.00307634 0)
(0.467153 0.00318975 0)
(0.462002 0.00330297 0)
(0.456666 0.00341574 0)
(0.451147 0.00352786 0)
(0.445445 0.00363928 0)
(0.439561 0.00374978 0)
(0.433496 0.00385919 0)
(0.427253 0.0039673 0)
(0.420832 0.00407378 0)
(0.414237 0.00417863 0)
(0.40747 0.0042818 0)
(0.400533 0.00438301 0)
(0.39343 0.00448172 0)
(0.386164 0.00457796 0)
(0.37874 0.00467158 0)
(0.37116 0.00476222 0)
(0.363431 0.00484988 0)
(0.355557 0.00493412 0)
(0.347544 0.00501451 0)
(0.339397 0.00509117 0)
(0.331123 0.0051641 0)
(0.322727 0.00523283 0)
(0.314218 0.00529686 0)
(0.305601 0.00535605 0)
(0.296885 0.00541027 0)
(0.288079 0.00545929 0)
(0.27919 0.00550294 0)
(0.270228 0.00554085 0)
(0.261201 0.00557288 0)
(0.25212 0.00559903 0)
(0.242994 0.00561903 0)
(0.233833 0.00563271 0)
(0.224648 0.00563981 0)
(0.215449 0.00564025 0)
(0.206248 0.00563392 0)
(0.197055 0.00562068 0)
(0.187881 0.0056006 0)
(0.17874 0.00557331 0)
(0.169642 0.00553891 0)
(0.1606 0.0054974 0)
(0.151625 0.00544858 0)
(0.142728 0.00539268 0)
(0.133923 0.00532975 0)
(0.125221 0.00525994 0)
(0.116633 0.00518314 0)
(0.108171 0.00509937 0)
(0.099846 0.00500895 0)
(0.0916707 0.00491173 0)
(0.0836557 0.00480801 0)
(0.0758113 0.00469858 0)
(0.0681473 0.00458344 0)
(0.0606737 0.00446193 0)
(0.0534009 0.00433441 0)
(0.0463397 0.00420137 0)
(0.0394986 0.00406389 0)
(0.0328847 0.00392185 0)
(0.0265056 0.00377486 0)
(0.020371 0.00362377 0)
(0.01449 0.00347014 0)
(0.00885888 0.00331375 0)
(0.0034876 0.00315365 0)
(-0.00162099 0.00298957 0)
(-0.00647994 0.00282123 0)
(-0.011043 0.00266355 0)
(-0.0153039 0.00249096 0)
(-0.0193217 0.00231576 0)
(-0.0230465 0.00215954 0)
(-0.0264688 0.00197842 0)
(-0.0296226 0.00180881 0)
(-0.0324876 0.00163781 0)
(-0.0350726 0.00146833 0)
(-0.0373756 0.00130136 0)
(-0.0393977 0.00113306 0)
(-0.0411413 0.000963376 0)
(-0.0426014 0.000799704 0)
(-0.0437935 0.00063429 0)
(-0.0447131 0.000479383 0)
(-0.0453609 0.00032172 0)
(-0.0457516 0.000162426 0)
(-0.0458813 7.88865e-06 0)
(-0.0457526 -0.000140071 0)
(-0.0453777 -0.000284436 0)
(-0.0447634 -0.000427505 0)
(-0.0439096 -0.000579118 0)
(-0.0428106 -0.000712046 0)
(-0.041472 -0.000841836 0)
(-0.0399151 -0.000969855 0)
(-0.0381452 -0.00109648 0)
(-0.0361596 -0.00122537 0)
(-0.0339739 -0.00134911 0)
(-0.0315752 -0.0014576 0)
(-0.0289713 -0.00156717 0)
(-0.0261939 -0.0016723 0)
(-0.0232388 -0.00177648 0)
(-0.0201036 -0.00187896 0)
(-0.0167941 -0.00197557 0)
(-0.0133274 -0.00206857 0)
(-0.00971929 -0.00215593 0)
(-0.00595289 -0.00223142 0)
(-0.00203854 -0.00230913 0)
(0.00200238 -0.00238232 0)
(0.00617237 -0.00245624 0)
(0.0104622 -0.0025314 0)
(0.0148687 -0.0025938 0)
(0.0193931 -0.00265507 0)
(0.0240224 -0.00271159 0)
(0.0287473 -0.00276378 0)
(0.0335634 -0.00281217 0)
(0.0384572 -0.00285631 0)
(0.0434234 -0.00289642 0)
(0.0484739 -0.00293971 0)
(0.0536048 -0.0029801 0)
(0.0588003 -0.00301405 0)
(0.0640501 -0.00304244 0)
(0.0693483 -0.00307371 0)
(0.0746877 -0.00309515 0)
(0.0800826 -0.00311998 0)
(0.0855366 -0.00314755 0)
(0.0910264 -0.00316408 0)
(0.096543 -0.00317647 0)
(0.102089 -0.00319319 0)
(0.107661 -0.00320463 0)
(0.113256 -0.00321342 0)
(0.118864 -0.00321589 0)
(0.124478 -0.00321415 0)
(0.130092 -0.00321337 0)
(0.135706 -0.00321239 0)
(0.141314 -0.0032068 0)
(0.146912 -0.00319663 0)
(0.152486 -0.00317576 0)
(0.15803 -0.00314925 0)
(0.16354 -0.00312652 0)
(0.169013 -0.00310606 0)
(0.174444 -0.00307679 0)
(0.17982 -0.00304033 0)
(0.18513 -0.00299818 0)
(0.190367 -0.00295157 0)
(0.195522 -0.00289959 0)
(0.200586 -0.00284492 0)
(0.205556 -0.00278774 0)
(0.210431 -0.00272804 0)
(0.215201 -0.00265962 0)
(0.219847 -0.0025829 0)
(0.224353 -0.00250214 0)
(0.228718 -0.00242167 0)
(0.232945 -0.00233873 0)
(0.237026 -0.00224954 0)
(0.240947 -0.00215408 0)
(0.244696 -0.00205336 0)
(0.248267 -0.00194769 0)
(0.251649 -0.00183756 0)
(0.254835 -0.00172382 0)
(0.257819 -0.00160617 0)
(0.260596 -0.00148419 0)
(0.263158 -0.00135607 0)
(0.265491 -0.0012229 0)
(0.267584 -0.00108762 0)
(0.269433 -0.000950439 0)
(0.271037 -0.000808058 0)
(0.272386 -0.00066015 0)
(0.27347 -0.00050897 0)
(0.274283 -0.000355385 0)
(0.274821 -0.000199139 0)
(0.275079 -4.26313e-05 0)
(0.275051 0.000115421 0)
(0.274725 0.000284314 0)
(0.274103 0.000453222 0)
(0.273174 0.000620371 0)
(0.271942 0.000788494 0)
(0.270414 0.000956168 0)
(0.26859 0.00112249 0)
(0.266463 0.00128936 0)
(0.264022 0.00145856 0)
(0.261267 0.00162894 0)
(0.258209 0.00179745 0)
(0.254855 0.00196329 0)
(0.251202 0.00212582 0)
(0.247252 0.00228479 0)
(0.243014 0.00244 0)
(0.238496 0.00259268 0)
(0.233702 0.00274231 0)
(0.228635 0.00288721 0)
(0.223302 0.00302841 0)
(0.217713 0.00316484 0)
(0.21188 0.00329774 0)
(0.205811 0.00342341 0)
(0.199513 0.00354069 0)
(0.192999 0.00365215 0)
(0.186283 0.00375783 0)
(0.17938 0.00385424 0)
(0.172305 0.00394241 0)
(0.165067 0.00402452 0)
(0.157681 0.004097 0)
(0.150161 0.0041596 0)
(0.142532 0.00421546 0)
(0.134806 0.00426308 0)
(0.126995 0.00430127 0)
(0.119114 0.00432836 0)
(0.111183 0.00434646 0)
(0.103222 0.00435567 0)
(0.0952516 0.00435628 0)
(0.0872835 0.0043459 0)
(0.0793321 0.00432627 0)
(0.0714213 0.00429767 0)
(0.0635719 0.0042584 0)
(0.055797 0.00420847 0)
(0.0481117 0.00414959 0)
(0.0405363 0.0040834 0)
(0.0330882 0.00400585 0)
(0.0257815 0.00391938 0)
(0.018645 0.00382601 0)
(0.0116828 0.0037241 0)
(0.00490476 0.00361401 0)
(-0.00169122 0.00349625 0)
(-0.00806112 0.00337602 0)
(-0.0141774 0.00324882 0)
(-0.0200658 0.00311108 0)
(-0.0257252 0.00296688 0)
(-0.0311122 0.0028343 0)
(-0.0362079 0.00267937 0)
(-0.0410305 0.00252102 0)
(-0.0455833 0.00235255 0)
(-0.0498167 0.00220204 0)
(-0.053728 0.00203016 0)
(-0.0573634 0.00186151 0)
(-0.0606815 0.00169613 0)
(-0.0636755 0.00152617 0)
(-0.066352 0.00135249 0)
(-0.0687164 0.00117842 0)
(-0.0707552 0.00100889 0)
(-0.0724784 0.00083705 0)
(-0.0739027 0.000667222 0)
(-0.0749926 0.000504951 0)
(-0.0757573 0.000334371 0)
(-0.0762281 0.000167092 0)
(-0.0763762 1.06214e-05 0)
(-0.0762079 -0.000156152 0)
(-0.075756 -0.000313372 0)
(-0.0750363 -0.000466522 0)
(-0.074021 -0.000602519 0)
(-0.0727138 -0.000747326 0)
(-0.0711484 -0.000888309 0)
(-0.0693205 -0.00102586 0)
(-0.0672503 -0.00115701 0)
(-0.0649312 -0.00127373 0)
(-0.0623795 -0.0013872 0)
(-0.0596224 -0.00149578 0)
(-0.0566643 -0.00159758 0)
(-0.0535188 -0.00169805 0)
(-0.0501926 -0.00179347 0)
(-0.0466788 -0.00187409 0)
(-0.0430071 -0.00195097 0)
(-0.0392043 -0.00201774 0)
(-0.0352793 -0.0020776 0)
(-0.031257 -0.00212655 0)
(-0.0271484 -0.00216806 0)
(-0.0229615 -0.00220305 0)
(-0.0187141 -0.00223155 0)
(-0.0144356 -0.00225123 0)
(-0.0101274 -0.00225834 0)
(-0.00579188 -0.00225664 0)
(-0.00145962 -0.00224812 0)
(0.00285385 -0.00222821 0)
(0.00710794 -0.00221 0)
(0.0113136 -0.00217716 0)
(0.0154481 -0.00213614 0)
(0.0194662 -0.00208305 0)
(0.0234002 -0.00202095 0)
(0.027221 -0.00195711 0)
(0.0309005 -0.00188401 0)
(0.0344316 -0.00180116 0)
(0.0378009 -0.00171258 0)
(0.0410009 -0.00161601 0)
(0.0440293 -0.00151645 0)
(0.0468654 -0.00142027 0)
(0.0494917 -0.00130727 0)
(0.0519169 -0.00119494 0)
(0.0541237 -0.0010796 0)
(0.0561207 -0.000957699 0)
(0.05789 -0.000844066 0)
(0.0594326 -0.000723374 0)
(0.0607559 -0.000609536 0)
(0.061852 -0.000489344 0)
(0.0627322 -0.000376125 0)
(0.0633862 -0.000259274 0)
(0.0638289 -0.000148126 0)
(0.0640647 -3.86956e-05 0)
(0.0640957 6.43373e-05 0)
(0.0639231 0.000164566 0)
(0.0635676 0.000258614 0)
(0.0630352 0.000344171 0)
(0.0623298 0.000434794 0)
(0.061464 0.000509207 0)
(0.0604604 0.000582847 0)
(0.05932 0.000640256 0)
(0.0580491 0.00070503 0)
(0.056675 0.000759787 0)
(0.0552028 0.000807854 0)
(0.0536321 0.000846634 0)
(0.0519776 0.000881218 0)
(0.0502653 0.000908536 0)
(0.0485046 0.000934037 0)
(0.0466964 0.000959812 0)
(0.044843 0.000975074 0)
(0.0429622 0.000988325 0)
(0.0410638 0.00099205 0)
(0.0391516 0.000998217 0)
(0.0372367 0.00100237 0)
(0.0353161 0.000998408 0)
(0.0334093 0.000990925 0)
(0.0315215 0.000972908 0)
(0.0296591 0.000957868 0)
(0.0278333 0.000939757 0)
(0.0260433 0.000915296 0)
(0.0243054 0.000884157 0)
(0.0226263 0.000851121 0)
(0.0210083 0.000813735 0)
(0.0194497 0.000768455 0)
(0.0179752 0.000727661 0)
(0.0165767 0.000677886 0)
(0.0152449 0.000625173 0)
(0.0140152 0.000574429 0)
(0.0128733 0.000513248 0)
(0.0118092 0.000452694 0)
(0.0108458 0.000393954 0)
(0.0099826 0.000344102 0)
(0.00921113 0.000285258 0)
(0.0085262 0.000240717 0)
(0.00793383 0.000200006 0)
(0.00742462 0.000156557 0)
(0.00698707 0.000129625 0)
(0.00662806 0.000109276 0)
(0.00635013 9.1442e-05 0)
(0.0061483 6.95563e-05 0)
(0.00602266 3.77959e-05 0)
(0.00597089 -1.0974e-06 0)
(0.00598848 -3.19178e-05 0)
(0.00608256 -5.99617e-05 0)
(0.0062379 -8.87048e-05 0)
(0.00645577 -0.000102828 0)
(0.00673261 -0.000125329 0)
(0.00706175 -0.000142383 0)
(0.00746122 -0.000154182 0)
(0.00791359 -0.000166795 0)
(0.00839922 -0.000171189 0)
(0.00892636 -0.000176647 0)
(0.00947675 -0.000183072 0)
(0.0100292 -0.000186301 0)
(0.0105709 -0.000177788 0)
(0.0110967 -0.000174456 0)
(0.0116266 -0.000169462 0)
(0.0121588 -0.00015689 0)
(0.0126799 -0.000143868 0)
(0.0131715 -0.000127175 0)
(0.0136225 -0.000106248 0)
(0.0140248 -9.35451e-05 0)
(0.0143633 -7.50819e-05 0)
(0.0146534 -3.80395e-05 0)
(0.0148798 -6.41264e-06 0)
(0.0150321 2.34029e-05 0)
(0.015126 5.83358e-05 0)
(0.0151396 9.63799e-05 0)
(0.0150657 0.000132758 0)
(0.014909 0.000172918 0)
(0.0146494 0.000216533 0)
(0.0142822 0.000269942 0)
(0.0138195 0.000331416 0)
(0.0132371 0.000416829 0)
(0.0125187 0.000547387 0)
(0.0115916 0.000706947 0)
(0.0104132 0.00100235 0)
(0.00914329 0.00109837 0)
(0.00715216 0.000725536 0)
(0.00500353 -0.000175452 0)
(0.00605181 -0.00171926 0)
(0.00850418 -0.000805456 0)
(0.00777524 0.000518442 0)
(0.00632962 0.0012093 0)
(0.0035856 0.000245838 0)
(0.0048613 -0.00178985 0)
(0.00735553 -0.000879919 0)
(0.00635916 0.000410025 0)
(0.00390112 0.00103602 0)
(0.00222598 0.00119385 0)
(0.000717784 0.00093117 0)
(-0.000605005 0.000752043 0)
(-0.00172284 0.000614112 0)
(-0.00271761 0.000525593 0)
(-0.00359423 0.000469049 0)
(-0.00438883 0.000429358 0)
(-0.00511169 0.000402191 0)
(-0.00577831 0.000379787 0)
(-0.00640522 0.000360669 0)
(-0.00696704 0.00034132 0)
(-0.00747563 0.000315606 0)
(-0.00793455 0.000289981 0)
(-0.00831557 0.000261856 0)
(-0.00864568 0.000241212 0)
(-0.00893615 0.00021646 0)
(-0.00915728 0.000201899 0)
(-0.00931284 0.000183473 0)
(-0.00941092 0.000153906 0)
(-0.00945795 0.00011598 0)
(-0.00946819 8.91105e-05 0)
(-0.00942877 6.96142e-05 0)
(-0.00934759 5.14144e-05 0)
(-0.00922876 3.45338e-05 0)
(-0.00907064 2.18328e-05 0)
(-0.00890264 2.53684e-06 0)
(-0.00873779 -1.26312e-05 0)
(-0.00856331 -2.89821e-05 0)
(-0.00838387 -4.49563e-05 0)
(-0.00820523 -5.9228e-05 0)
(-0.00803656 -6.15985e-05 0)
(-0.00789242 -5.43151e-05 0)
(-0.0077902 -3.95306e-05 0)
(-0.00773747 -2.81182e-05 0)
(-0.00771495 -1.81259e-05 0)
(-0.00771829 9.49989e-08 0)
(-0.00776447 2.21439e-05 0)
(-0.00786959 3.59435e-05 0)
(-0.00804029 4.31708e-05 0)
(-0.00827569 5.39625e-05 0)
(-0.00858346 7.19547e-05 0)
(-0.00896123 0.000114765 0)
(-0.00942081 0.0001609 0)
(-0.00998215 0.000211295 0)
(-0.0106431 0.000262762 0)
(-0.0113903 0.000321488 0)
(-0.012236 0.000386645 0)
(-0.0132165 0.000463399 0)
(-0.0143285 0.000524189 0)
(-0.0155284 0.000567459 0)
(-0.0167979 0.000613994 0)
(-0.0181497 0.000656238 0)
(-0.0195662 0.000699391 0)
(-0.021059 0.000728609 0)
(-0.0226263 0.000762513 0)
(-0.0242368 0.000788174 0)
(-0.0259 0.000809953 0)
(-0.027595 0.000826787 0)
(-0.0293091 0.000826526 0)
(-0.0310407 0.000828616 0)
(-0.0327864 0.00083166 0)
(-0.0345386 0.000840796 0)
(-0.0362936 0.000833535 0)
(-0.038062 0.000829352 0)
(-0.0397929 0.000820247 0)
(-0.0414629 0.000788188 0)
(-0.0430822 0.000760427 0)
(-0.0446489 0.000744433 0)
(-0.0461748 0.000716072 0)
(-0.0476811 0.000699985 0)
(-0.0491391 0.000664671 0)
(-0.0504919 0.000613791 0)
(-0.0517177 0.000552157 0)
(-0.0527936 0.000504818 0)
(-0.0537512 0.000440396 0)
(-0.054592 0.000396165 0)
(-0.0553017 0.000316935 0)
(-0.0558725 0.000240851 0)
(-0.0562489 0.00016168 0)
(-0.0564127 6.73697e-05 0)
(-0.0563668 -3.42102e-05 0)
(-0.0561265 -0.00013041 0)
(-0.055679 -0.000233744 0)
(-0.054999 -0.000338324 0)
(-0.0540717 -0.000455938 0)
(-0.0528803 -0.000583898 0)
(-0.0514162 -0.000705575 0)
(-0.0496939 -0.000826389 0)
(-0.0477146 -0.000947283 0)
(-0.0454884 -0.00106614 0)
(-0.0430208 -0.00117888 0)
(-0.0402784 -0.00128448 0)
(-0.03726 -0.00141528 0)
(-0.0340079 -0.00152635 0)
(-0.0305292 -0.00162996 0)
(-0.0268274 -0.00173422 0)
(-0.02288 -0.00181675 0)
(-0.018724 -0.0018908 0)
(-0.0144436 -0.0019647 0)
(-0.0100117 -0.00201602 0)
(-0.00546038 -0.00206887 0)
(-0.000797935 -0.00212205 0)
(0.00399995 -0.00216263 0)
(0.00889088 -0.00217843 0)
(0.0138122 -0.0021746 0)
(0.0186892 -0.0021642 0)
(0.0235174 -0.00214265 0)
(0.0283133 -0.00212028 0)
(0.0330636 -0.00208944 0)
(0.0377264 -0.00203427 0)
(0.0422555 -0.00196114 0)
(0.0466057 -0.0018799 0)
(0.0507529 -0.0017796 0)
(0.0546678 -0.00167148 0)
(0.0583315 -0.00155445 0)
(0.0617365 -0.00144566 0)
(0.064886 -0.00130593 0)
(0.0677149 -0.0011641 0)
(0.0701536 -0.00099693 0)
(0.0722175 -0.000825396 0)
(0.0739009 -0.000639807 0)
(0.0751801 -0.000455044 0)
(0.0760087 -0.000270198 0)
(0.0763763 -5.91448e-05 0)
(0.0762743 0.000155125 0)
(0.0756725 0.000374306 0)
(0.0745677 0.000591389 0)
(0.0729815 0.000810721 0)
(0.0709026 0.00103156 0)
(0.0682995 0.00126159 0)
(0.065172 0.00149892 0)
(0.0614826 0.00172797 0)
(0.0572747 0.00196961 0)
(0.0525438 0.00218064 0)
(0.0472931 0.00239956 0)
(0.0415867 0.00261383 0)
(0.0353927 0.00282138 0)
(0.0287341 0.00302354 0)
(0.0215983 0.00321504 0)
(0.0140052 0.00338843 0)
(0.00602576 0.00355028 0)
(-0.00232053 0.00369792 0)
(-0.0109696 0.00383656 0)
(-0.0199128 0.00395785 0)
(-0.0291336 0.00406816 0)
(-0.0386145 0.00416337 0)
(-0.0483048 0.00424612 0)
(-0.0581623 0.00431142 0)
(-0.0681593 0.00435833 0)
(-0.0782421 0.00438736 0)
(-0.0883645 0.00439282 0)
(-0.0985057 0.00439036 0)
(-0.108648 0.00437317 0)
(-0.118747 0.00434131 0)
(-0.128756 0.00429635 0)
(-0.138647 0.00423823 0)
(-0.148392 0.00416679 0)
(-0.157963 0.00408374 0)
(-0.167335 0.00398509 0)
(-0.17647 0.00387561 0)
(-0.185336 0.00375921 0)
(-0.193925 0.00363449 0)
(-0.202223 0.00350423 0)
(-0.210215 0.00336581 0)
(-0.21788 0.00321834 0)
(-0.225194 0.00306491 0)
(-0.232144 0.00290796 0)
(-0.23872 0.00274735 0)
(-0.24491 0.00257973 0)
(-0.250701 0.0024053 0)
(-0.25608 0.00222885 0)
(-0.261044 0.00204945 0)
(-0.265587 0.00186793 0)
(-0.269703 0.00168329 0)
(-0.273384 0.00149557 0)
(-0.276625 0.00130527 0)
(-0.279422 0.00111736 0)
(-0.281776 0.000931864 0)
(-0.28369 0.000742789 0)
(-0.285159 0.000552916 0)
(-0.286181 0.000361566 0)
(-0.28676 0.000167089 0)
(-0.286879 -2.61135e-05 0)
(-0.286533 -0.000214377 0)
(-0.285743 -0.000399397 0)
(-0.284527 -0.000581039 0)
(-0.282887 -0.000761233 0)
(-0.280824 -0.000939638 0)
(-0.278342 -0.00111349 0)
(-0.275452 -0.0012822 0)
(-0.272163 -0.00144818 0)
(-0.26848 -0.00161107 0)
(-0.264409 -0.00177215 0)
(-0.259956 -0.0019317 0)
(-0.255132 -0.00208393 0)
(-0.249958 -0.00222817 0)
(-0.244442 -0.00236765 0)
(-0.23859 -0.00250305 0)
(-0.232414 -0.00263428 0)
(-0.225927 -0.00275917 0)
(-0.219145 -0.00287883 0)
(-0.212078 -0.00299446 0)
(-0.204734 -0.0031027 0)
(-0.197134 -0.00320122 0)
(-0.189301 -0.00329125 0)
(-0.181256 -0.00337343 0)
(-0.17302 -0.00344746 0)
(-0.16462 -0.00350964 0)
(-0.156076 -0.00356133 0)
(-0.147409 -0.00360173 0)
(-0.138635 -0.00363322 0)
(-0.129789 -0.00365787 0)
(-0.120913 -0.0036688 0)
(-0.112025 -0.00367281 0)
(-0.103142 -0.00366453 0)
(-0.094278 -0.00364994 0)
(-0.0854542 -0.0036229 0)
(-0.0766985 -0.00358027 0)
(-0.0680368 -0.00353532 0)
(-0.0594922 -0.0034857 0)
(-0.0510816 -0.00342517 0)
(-0.04282 -0.00335771 0)
(-0.0347313 -0.00327889 0)
(-0.0268334 -0.00318771 0)
(-0.0191606 -0.0030897 0)
(-0.0117083 -0.00298648 0)
(-0.00452888 -0.00289122 0)
(0.0023511 -0.00275842 0)
(0.008946 -0.00262634 0)
(0.015221 -0.00248395 0)
(0.0211613 -0.00233225 0)
(0.0267042 -0.0021878 0)
(0.0318239 -0.00200748 0)
(0.0365491 -0.00182211 0)
(0.0408163 -0.00164681 0)
(0.0445901 -0.0014344 0)
(0.047897 -0.00122765 0)
(0.0506837 -0.001031 0)
(0.0529089 -0.000788877 0)
(0.0545917 -0.000564536 0)
(0.0556886 -0.000319681 0)
(0.0561939 -7.71739e-05 0)
(0.0560896 0.000178921 0)
(0.0553544 0.000427654 0)
(0.0540285 0.000694366 0)
(0.0520382 0.00093544 0)
(0.0493778 0.00120386 0)
(0.0460959 0.00146798 0)
(0.0421586 0.00173182 0)
(0.0375634 0.00199777 0)
(0.0323123 0.00225967 0)
(0.0264315 0.0025182 0)
(0.0199089 0.00276065 0)
(0.012739 0.00301547 0)
(0.00496324 0.0032474 0)
(-0.00344429 0.0034962 0)
(-0.012427 0.00371752 0)
(-0.0219428 0.00393219 0)
(-0.0319763 0.00413673 0)
(-0.0425212 0.00433351 0)
(-0.0535629 0.0045198 0)
(-0.065058 0.00469298 0)
(-0.076975 0.00485251 0)
(-0.0892783 0.00499732 0)
(-0.10193 0.00512544 0)
(-0.114891 0.00523814 0)
(-0.128129 0.00533633 0)
(-0.141603 0.00541894 0)
(-0.15527 0.00548478 0)
(-0.16909 0.00553376 0)
(-0.18302 0.00556628 0)
(-0.197022 0.00558198 0)
(-0.211053 0.00558261 0)
(-0.225074 0.00556851 0)
(-0.239047 0.00554005 0)
(-0.252937 0.00549714 0)
(-0.266711 0.00544076 0)
(-0.280338 0.00537219 0)
(-0.293789 0.0052925 0)
(-0.307032 0.00520242 0)
(-0.320039 0.00510271 0)
(-0.332785 0.00499345 0)
(-0.34525 0.00487541 0)
(-0.357417 0.00475092 0)
(-0.369272 0.00462141 0)
(-0.380798 0.00448621 0)
(-0.391978 0.00434495 0)
(-0.402797 0.00419936 0)
(-0.413245 0.0040499 0)
(-0.423317 0.00389718 0)
(-0.433004 0.0037413 0)
(-0.4423 0.00358282 0)
(-0.451195 0.00342263 0)
(-0.459682 0.00326063 0)
(-0.467755 0.00309652 0)
(-0.475412 0.00293131 0)
(-0.482651 0.00276582 0)
(-0.489471 0.00259961 0)
(-0.495873 0.00243365 0)
(-0.501855 0.0022682 0)
(-0.507415 0.00210322 0)
(-0.512554 0.00193837 0)
(-0.517274 0.00177385 0)
(-0.521578 0.00160995 0)
(-0.525468 0.00144796 0)
(-0.528946 0.00128798 0)
(-0.532013 0.00112984 0)
(-0.534678 0.000973436 0)
(-0.536946 0.000819705 0)
(-0.538828 0.000668655 0)
(-0.540325 0.000520541 0)
(-0.541446 0.000374665 0)
(-0.542192 0.000232785 0)
(-0.542579 9.0073e-05 0)
(-0.542601 -4.52779e-05 0)
(-0.542275 -0.000175837 0)
(-0.54161 -0.00030424 0)
(-0.540615 -0.000430351 0)
(-0.539297 -0.000553367 0)
(-0.537666 -0.000672726 0)
(-0.53573 -0.000788503 0)
(-0.533496 -0.000900781 0)
(-0.530973 -0.00100936 0)
(-0.528171 -0.0011144 0)
(-0.5251 -0.001216 0)
(-0.521771 -0.00131359 0)
(-0.518192 -0.00140676 0)
(-0.514368 -0.00149725 0)
(-0.510308 -0.0015853 0)
(-0.506025 -0.00166887 0)
(-0.501529 -0.00174792 0)
(-0.496829 -0.00182334 0)
(-0.491931 -0.00189576 0)
(-0.486845 -0.0019651 0)
(-0.481579 -0.00203108 0)
(-0.476143 -0.00209343 0)
(-0.470545 -0.00215274 0)
(-0.464792 -0.00220891 0)
(-0.458894 -0.00226097 0)
(-0.452859 -0.00231011 0)
(-0.446695 -0.00235684 0)
(-0.44041 -0.0023994 0)
(-0.434014 -0.00243802 0)
(-0.427514 -0.00247533 0)
(-0.420914 -0.00251045 0)
(-0.414223 -0.00254204 0)
(-0.40745 -0.00257048 0)
(-0.400599 -0.00259662 0)
(-0.393679 -0.00261975 0)
(-0.386699 -0.00264002 0)
(-0.379664 -0.00265797 0)
(-0.37258 -0.00267395 0)
(-0.36545 -0.00268791 0)
(-0.358283 -0.00269904 0)
(-0.351085 -0.00270806 0)
(-0.343864 -0.0027143 0)
(-0.336623 -0.00271906 0)
(-0.329367 -0.00272254 0)
(-0.322101 -0.00272297 0)
(-0.31483 -0.00272192 0)
(-0.307562 -0.00271654 0)
(-0.300302 -0.00271391 0)
(-0.293051 -0.00270752 0)
(-0.285812 -0.00270046 0)
(-0.278588 -0.00269181 0)
(-0.271389 -0.00267895 0)
(-0.264216 -0.0026687 0)
(-0.257069 -0.00265711 0)
(-0.249951 -0.0026427 0)
(-0.242872 -0.0026243 0)
(-0.235832 -0.0026099 0)
(-0.22883 -0.00259346 0)
(-0.221869 -0.00257573 0)
(-0.214952 -0.00255707 0)
(-0.208081 -0.00253841 0)
(-0.201258 -0.00251819 0)
(-0.194485 -0.00249792 0)
(-0.187762 -0.00247734 0)
(-0.18109 -0.00245677 0)
(-0.174468 -0.0024363 0)
(-0.167902 -0.00241165 0)
(-0.161393 -0.00239112 0)
(-0.154936 -0.00237012 0)
(-0.148529 -0.00234958 0)
(-0.142177 -0.00232735 0)
(-0.135878 -0.00230606 0)
(-0.129632 -0.00228535 0)
(-0.123439 -0.00226417 0)
(-0.117296 -0.00224421 0)
(-0.111203 -0.00222419 0)
(-0.105159 -0.00220467 0)
(-0.0991621 -0.00218658 0)
(-0.0932092 -0.0021686 0)
(-0.087299 -0.00215119 0)
(-0.0814317 -0.00213321 0)
(-0.0756042 -0.00211686 0)
(-0.0698136 -0.00210187 0)
(-0.0640579 -0.00208715 0)
(-0.0583354 -0.00207301 0)
(-0.0526431 -0.00205997 0)
(-0.0469765 -0.00204926 0)
(-0.0413314 -0.00203992 0)
(-0.0357043 -0.00203137 0)
(-0.0300833 -0.00202804 0)
(-0.0245097 -0.00204683 0)
(-0.0188487 -0.00205259 0)
(-0.0130463 -0.00185062 0)
(-0.00809788 -0.00182441 0)
(-0.00260709 -0.00194353 0)
(0.00143161 -0.00513863 0)
(0.00400687 -0.00524339 0)
(0.0064077 -0.0053102 0)
(0.0089193 -0.00557632 0)
(0.0114302 -0.00560405 0)
(0.013988 -0.00559815 0)
(0.016566 -0.00560323 0)
(0.0191539 -0.00560416 0)
(0.0217444 -0.00561071 0)
(0.0243399 -0.00561183 0)
(0.0269439 -0.00561519 0)
(0.0295549 -0.00562251 0)
(0.0321699 -0.00562948 0)
(0.0347904 -0.00563662 0)
(0.0374175 -0.00564349 0)
(0.0400513 -0.00565486 0)
(0.0426921 -0.00566784 0)
(0.0453406 -0.00568109 0)
(0.0479978 -0.00569663 0)
(0.0506642 -0.00571327 0)
(0.0533403 -0.00573074 0)
(0.0560263 -0.00574979 0)
(0.058723 -0.00576958 0)
(0.0614313 -0.0057907 0)
(0.0641514 -0.00581272 0)
(0.0668838 -0.0058355 0)
(0.069629 -0.00585967 0)
(0.0723875 -0.00588439 0)
(0.0751594 -0.0059096 0)
(0.0779449 -0.00593544 0)
(0.0807446 -0.00596215 0)
(0.0835589 -0.00598943 0)
(0.0863881 -0.00601738 0)
(0.0892324 -0.00604582 0)
(0.0920919 -0.00607461 0)
(0.0949677 -0.00610497 0)
(0.0978597 -0.00613504 0)
(0.100768 -0.00616584 0)
(0.103693 -0.00619725 0)
(0.106635 -0.00622921 0)
(0.109594 -0.00626152 0)
(0.112571 -0.00629417 0)
(0.115565 -0.00632743 0)
(0.118578 -0.00636107 0)
(0.121607 -0.00639525 0)
(0.124655 -0.0064298 0)
(0.127725 -0.00646461 0)
(0.130811 -0.0064996 0)
(0.133916 -0.00653532 0)
(0.137041 -0.0065711 0)
(0.140185 -0.00660692 0)
(0.143348 -0.00664335 0)
(0.146531 -0.00667962 0)
(0.149733 -0.00671628 0)
(0.152956 -0.00675289 0)
(0.156198 -0.00678939 0)
(0.15946 -0.00682639 0)
(0.162742 -0.00686308 0)
(0.166044 -0.00689977 0)
(0.169366 -0.00693635 0)
(0.172708 -0.00697304 0)
(0.17607 -0.00700964 0)
(0.179452 -0.00704602 0)
(0.182853 -0.00708208 0)
(0.186275 -0.00711803 0)
(0.189716 -0.00715389 0)
(0.193177 -0.00718957 0)
(0.196658 -0.00722472 0)
(0.200158 -0.00725937 0)
(0.203677 -0.00729373 0)
(0.207215 -0.00732789 0)
(0.210772 -0.00736128 0)
(0.214348 -0.00739424 0)
(0.217942 -0.00742667 0)
(0.221554 -0.00745821 0)
(0.225184 -0.00748978 0)
(0.228832 -0.00752048 0)
(0.232498 -0.00755086 0)
(0.23618 -0.00757987 0)
(0.23988 -0.00760813 0)
(0.243595 -0.00763603 0)
(0.247327 -0.00766289 0)
(0.251074 -0.0076887 0)
(0.254836 -0.00771378 0)
(0.258612 -0.00773775 0)
(0.262405 -0.00776063 0)
(0.266207 -0.00778269 0)
(0.270022 -0.00780386 0)
(0.273858 -0.00782379 0)
(0.277702 -0.00784257 0)
(0.281556 -0.00785994 0)
(0.285421 -0.00787634 0)
(0.289299 -0.00789158 0)
(0.293185 -0.0079053 0)
(0.297081 -0.00791776 0)
(0.300985 -0.00792795 0)
(0.304897 -0.0079384 0)
(0.308817 -0.00794675 0)
(0.312743 -0.007953 0)
(0.316674 -0.00795757 0)
(0.320611 -0.00796079 0)
(0.324552 -0.00796274 0)
(0.328496 -0.0079628 0)
(0.332442 -0.00796093 0)
(0.33639 -0.00795731 0)
(0.340339 -0.0079519 0)
(0.344288 -0.00794491 0)
(0.348235 -0.00793662 0)
(0.352181 -0.00792549 0)
(0.356123 -0.00791291 0)
(0.360062 -0.00789614 0)
(0.363995 -0.00788084 0)
(0.367924 -0.00786245 0)
(0.371845 -0.00784077 0)
(0.375758 -0.00781716 0)
(0.379661 -0.00779158 0)
(0.383554 -0.00776385 0)
(0.387435 -0.00773389 0)
(0.391304 -0.00770162 0)
(0.395159 -0.00766689 0)
(0.398997 -0.00762965 0)
(0.402819 -0.00759012 0)
(0.406626 -0.00754826 0)
(0.410412 -0.00750349 0)
(0.414179 -0.00745598 0)
(0.417922 -0.00740571 0)
(0.421641 -0.00735327 0)
(0.42534 -0.0072974 0)
(0.429012 -0.00724025 0)
(0.432656 -0.00717718 0)
(0.436268 -0.00711464 0)
(0.439855 -0.00704893 0)
(0.443409 -0.00697921 0)
(0.446923 -0.00690569 0)
(0.45041 -0.0068302 0)
(0.453861 -0.0067508 0)
(0.45727 -0.00666931 0)