/*--------------------------------*- C++ -*----------------------------------*\
| =========                 |                                                 |
| \\      /  F ield         | OpenFOAM: The Open Source CFD Toolbox           |
|  \\    /   O peration     | Version:  2412                                  |
|   \\  /    A nd           | Website:  www.openfoam.com                      |
|    \\/     M anipulation  |                                                 |
\*---------------------------------------------------------------------------*/
FoamFile
{
    version     2.0;
    format      ascii;
    arch        "LSB;label=32;scalar=64";
    class       volScalarField;
    location    "81";
    object      alpha.lava;
}
// * * * * * * * * * * * * * * * * * * * * * * * * * * * * * * * * * * * * * //

dimensions      [0 0 0 0 0 0 0];

internalField   nonuniform List<scalar> 
6400
(
0.997508
0.988884
0.984924
0.984065
0.985207
0.985341
0.985001
0.984176
0.983959
0.983959
0.983684
0.982824
0.982068
0.98095
0.979633
0.979097
0.977813
0.976718
0.976716
0.974356
0.973061
0.970271
0.970271
0.970278
0.971817
0.968894
0.963683
0.963683
0.963683
0.963683
0.965899
0.968658
0.96866
0.962519
0.957706
0.963903
0.965088
0.965088
0.958304
0.965694
0.965872
0.965872
0.965872
0.964792
0.967183
0.967184
0.967186
0.967405
0.967962
0.968399
0.968694
0.96908
0.969425
0.969425
0.969425
0.969178
0.969247
0.971158
0.971159
0.971159
0.971158
0.971157
0.969393
0.967157
0.967734
0.970781
0.970775
0.969817
0.969817
0.969891
0.970004
0.970325
0.970738
0.971112
0.971394
0.971987
0.974454
0.978799
0.986754
0.999954
1.00295
0.994651
0.988997
0.984401
0.983716
0.984693
0.984424
0.983654
0.982599
0.982901
0.983713
0.983352
0.981448
0.980279
0.97776
0.977764
0.977845
0.980622
0.980621
0.973342
0.970271
0.970272
0.974198
0.978592
0.972516
0.963685
0.963684
0.963786
0.963683
0.963683
0.966049
0.96866
0.968661
0.968662
0.962852
0.951901
0.963999
0.961156
0.951854
0.961199
0.965872
0.965808
0.953013
0.961848
0.96718
0.96468
0.960793
0.963048
0.964671
0.96514
0.965177
0.965144
0.965979
0.967338
0.964632
0.96441
0.96586
0.971159
0.971159
0.971159
0.971158
0.96857
0.965808
0.967163
0.970794
0.975173
0.969886
0.969817
0.970046
0.974765
0.975212
0.975645
0.976513
0.977332
0.978917
0.981429
0.984578
0.98967
0.998163
1.01148
1.00486
0.99655
0.990779
0.986722
0.984407
0.983209
0.982612
0.982577
0.981805
0.981048
0.982989
0.983345
0.982158
0.977749
0.977753
0.978899
0.980629
0.980624
0.980622
0.973289
0.970274
0.971575
0.978593
0.978593
0.971319
0.963684
0.963685
0.97244
0.973926
0.965072
0.964379
0.968141
0.968662
0.968663
0.966814
0.951856
0.951855
0.951854
0.951855
0.962505
0.965863
0.961177
0.952883
0.952834
0.95883
0.960605
0.958161
0.959014
0.962859
0.962041
0.9596
0.961903
0.963392
0.961982
0.960646
0.965853
0.965858
0.965491
0.966169
0.964652
0.962338
0.962338
0.96579
0.972513
0.975173
0.975173
0.97478
0.972272
0.977416
0.98004
0.980893
0.981434
0.981901
0.983216
0.985722
0.989086
0.993245
0.998689
1.0053
1.01709
1.00596
0.997235
0.990793
0.986174
0.984072
0.982761
0.982051
0.980384
0.978164
0.981528
0.982991
0.982056
0.975689
0.97609
0.980633
0.980633
0.980632
0.980629
0.976155
0.97314
0.973999
0.978596
0.978594
0.978594
0.978593
0.969763
0.963684
0.972245
0.973933
0.973932
0.964964
0.96446
0.966273
0.968666
0.968666
0.955079
0.951855
0.951855
0.9531
0.965852
0.965853
0.965852
0.961895
0.9428
0.94278
0.94277
0.946808
0.952013
0.945806
0.951728
0.959311
0.959378
0.957666
0.945776
0.960582
0.965849
0.961062
0.949841
0.949844
0.949849
0.962482
0.970068
0.976465
0.976465
0.973168
0.973168
0.981528
0.981123
0.979355
0.983111
0.985298
0.986487
0.987413
0.988568
0.990495
0.993528
0.997832
1.00194
1.0099
1.01886
1.00691
0.997422
0.98943
0.985216
0.982201
0.98064
0.980064
0.978783
0.976892
0.980811
0.982583
0.975535
0.975549
0.980628
0.980634
0.980634
0.976712
0.974574
0.975633
0.978593
0.978596
0.978596
0.977629
0.978567
0.978594
0.978593
0.976058
0.972355
0.973932
0.973932
0.97097
0.964461
0.96446
0.968434
0.968666
0.968612
0.968605
0.968592
0.966629
0.942802
0.942799
0.952996
0.961816
0.957815
0.942752
0.942763
0.942769
0.942778
0.942786
0.942794
0.947219
0.942816
0.942824
0.942839
0.94285
0.949895
0.950362
0.949841
0.949841
0.957353
0.971854
0.967735
0.96773
0.97639
0.981476
0.973174
0.982737
0.98461
0.984609
0.985577
0.988098
0.989917
0.991419
0.992795
0.994489
0.997197
1.00005
1.00505
1.01219
1.01913
1.00757
0.996948
0.987462
0.983355
0.979937
0.977989
0.97723
0.976722
0.976122
0.977126
0.972473
0.970678
0.979625
0.980631
0.980634
0.976093
0.972366
0.974577
0.978596
0.978596
0.978596
0.97818
0.97236
0.972361
0.97838
0.978594
0.978594
0.978594
0.973151
0.968575
0.973087
0.973088
0.973088
0.971283
0.967752
0.968606
0.968595
0.944017
0.942753
0.94278
0.942795
0.948168
0.961669
0.944788
0.942737
0.942751
0.942763
0.942769
0.942778
0.942786
0.942795
0.942806
0.942816
0.948983
0.953771
0.949841
0.949841
0.949841
0.949841
0.958132
0.974054
0.977797
0.967729
0.971835
0.983627
0.983952
0.981596
0.983835
0.988725
0.990195
0.991554
0.992816
0.994239
0.99574
0.997738
0.999946
1.00243
1.00726
1.01292
1.01853
1.0082
0.996602
0.986849
0.980621
0.977286
0.975139
0.974374
0.974571
0.97325
0.970407
0.970402
0.97065
0.98061
0.980627
0.977133
0.967101
0.972352
0.978596
0.978596
0.978425
0.972377
0.972367
0.972362
0.972362
0.977822
0.978593
0.978594
0.978594
0.976
0.957971
0.972694
0.973088
0.973088
0.972625
0.951349
0.968454
0.943662
0.942753
0.942749
0.942823
0.942919
0.942754
0.942907
0.942721
0.942729
0.942769
0.943138
0.942778
0.942786
0.942872
0.942806
0.942796
0.943479
0.963206
0.963247
0.949841
0.949841
0.949841
0.965344
0.95821
0.960775
0.97814
0.982211
0.975052
0.980872
0.986671
0.985954
0.987187
0.990945
0.993651
0.995402
0.996471
0.997377
0.998653
1
1.00164
1.00479
1.00842
1.01291
1.0174
1.00849
0.995215
0.985505
0.978132
0.974451
0.971909
0.970957
0.971119
0.968086
0.962755
0.975571
0.980103
0.98017
0.968239
0.967068
0.967088
0.976928
0.978596
0.978596
0.972533
0.972389
0.972592
0.976099
0.976104
0.973278
0.974971
0.978593
0.978594
0.972737
0.95783
0.965633
0.973085
0.973088
0.955084
0.94986
0.964573
0.942756
0.942749
0.942741
0.942862
0.942919
0.942747
0.94271
0.942716
0.943156
0.943859
0.943859
0.943197
0.942834
0.943852
0.942832
0.942786
0.942793
0.954646
0.963708
0.95727
0.949841
0.949841
0.966054
0.980103
0.964784
0.966893
0.983846
0.986199
0.984357
0.987073
0.99004
0.991976
0.994376
0.996572
0.998382
0.999584
1.00003
1.00068
1.00194
1.00402
1.00654
1.00915
1.01306
1.01635
1.0091
0.994966
0.982897
0.975438
0.971674
0.967299
0.959485
0.955577
0.950796
0.962134
0.975492
0.970524
0.967016
0.966991
0.967034
0.967523
0.978538
0.978589
0.978596
0.974024
0.976084
0.976104
0.976104
0.976104
0.961458
0.955834
0.967852
0.978593
0.96571
0.957767
0.957772
0.972955
0.954199
0.94986
0.94986
0.94986
0.959135
0.956135
0.942729
0.942722
0.942717
0.94271
0.942707
0.94323
0.943859
0.943859
0.943859
0.943859
0.943857
0.943853
0.94348
0.942775
0.942784
0.942794
0.963739
0.966733
0.96033
0.949851
0.949856
0.981286
0.983757
0.972482
0.980077
0.98841
0.990082
0.990775
0.993409
0.996004
0.998067
0.999521
1.00019
1.00111
1.00219
1.00329
1.00465
1.00618
1.00802
1.01025
1.01331
1.01536
1.00886
0.994402
0.980328
0.972407
0.965746
0.950689
0.950689
0.950689
0.950689
0.95069
0.951391
0.950695
0.951001
0.97321
0.97321
0.97321
0.968943
0.957478
0.966946
0.976042
0.97607
0.976078
0.976034
0.957654
0.9554
0.955644
0.961178
0.966216
0.957798
0.957772
0.957767
0.957796
0.967763
0.965475
0.94986
0.949868
0.969789
0.978122
0.949583
0.942717
0.94271
0.942707
0.942699
0.942707
0.942752
0.943859
0.942916
0.942742
0.942787
0.943654
0.942758
0.942766
0.942775
0.942784
0.942794
0.966768
0.970093
0.968351
0.949882
0.969764
0.985365
0.986381
0.982902
0.988991
0.992607
0.994565
0.996928
0.999169
1.00007
1.00106
1.00244
1.00368
1.00484
1.00604
1.00711
1.00812
1.00962
1.01141
1.01316
1.01359
1.00898
0.992921
0.979154
0.970083
0.95069
0.95069
0.950689
0.950689
0.95069
0.950691
0.950689
0.950693
0.950694
0.955178
0.97299
0.96352
0.950707
0.950707
0.950707
0.962354
0.966796
0.951137
0.951224
0.951224
0.955245
0.973483
0.964998
0.962357
0.963773
0.985456
0.969688
0.957788
0.966537
0.978047
0.973338
0.97338
0.978904
0.978256
0.949925
0.942779
0.952095
0.970863
0.942699
0.942703
0.942715
0.942719
0.942726
0.942732
0.942735
0.94274
0.942749
0.942758
0.942766
0.942775
0.942785
0.942795
0.968743
0.973394
0.968783
0.968985
0.9762
0.988543
0.990022
0.992152
0.995782
0.9984
0.999903
1.0006
1.00202
1.00362
1.00535
1.00675
1.00786
1.00884
1.00958
1.01023
1.01137
1.01213
1.01254
1.01132
1.00939
0.992545
0.978568
0.956708
0.950692
0.95069
0.95069
0.95069
0.950691
0.950693
0.950693
0.950692
0.950693
0.950698
0.9507
0.950702
0.950704
0.950707
0.950707
0.950777
0.950879
0.951005
0.951129
0.962679
0.987938
0.989828
0.98864
0.974932
0.973109
0.985475
0.990514
0.98763
0.981775
0.977902
0.981151
0.9881
0.979635
0.968651
0.96835
0.965414
0.974927
0.982024
0.973204
0.950756
0.942718
0.942726
0.942732
0.942735
0.94274
0.942746
0.942752
0.950483
0.961225
0.950144
0.942795
0.943282
0.949787
0.971826
0.985395
0.977691
0.981619
0.989558
0.993684
0.996593
0.999318
1.0002
1.00155
1.00329
1.00514
1.00695
1.00871
1.00999
1.01095
1.01154
1.01202
1.01233
1.01286
1.01231
1.01151
1.00953
1.00849
0.993055
0.976119
0.950722
0.950696
0.950692
0.95069
0.950691
0.950693
0.950693
0.95069
0.950693
0.950694
0.9507
0.950702
0.950704
0.956117
0.963982
0.971147
0.970828
0.974465
0.987938
0.997489
0.997588
0.992136
0.989778
0.994459
0.99674
0.995978
0.992905
0.990501
0.991199
0.990927
0.988547
0.987975
0.988124
0.985597
0.983154
0.985836
0.98775
0.987544
0.9857
0.984483
0.981455
0.971687
0.96027
0.962642
0.972513
0.964534
0.955897
0.961001
0.974586
0.978461
0.977957
0.975164
0.976455
0.974081
0.97762
0.988218
0.991066
0.992628
0.99553
0.998438
0.999771
1.00102
1.00301
1.00519
1.00707
1.00877
1.0105
1.01209
1.01304
1.01367
1.0139
1.01417
1.01413
1.01373
1.01243
1.01044
1.00791
1.00772
0.994788
0.97896
0.977362
0.965267
0.957106
0.955671
0.955821
0.958022
0.961003
0.964694
0.970393
0.976485
0.977549
0.980288
0.993573
1
1.00048
1.00071
1.00081
1.00082
1.0006
1.00017
1.00035
1.00052
1.00057
1.00046
1.00036
1.00025
1.00014
0.999845
0.99916
0.998311
0.997761
0.997516
0.997373
0.997705
0.997826
0.997848
0.997724
0.997017
0.996011
0.995876
0.995662
0.994557
0.992667
0.992195
0.992285
0.991956
0.990922
0.990699
0.990539
0.990288
0.992087
0.994785
0.996903
0.997256
0.995962
0.997391
0.999293
0.99952
0.99965
1.00057
1.0029
1.00539
1.00767
1.00962
1.01122
1.01261
1.01404
1.01521
1.01565
1.01598
1.01597
1.01614
1.01561
1.01452
1.01265
1.01003
1.00622
1.00803
1.00016
0.997995
0.999629
1.00055
1.00055
1.00034
1.00036
1.00072
1.00121
1.00172
1.00226
1.00276
1.00327
1.0037
1.00398
1.00417
1.00433
1.00451
1.0047
1.00488
1.00503
1.00516
1.00529
1.00539
1.00543
1.00536
1.00519
1.00494
1.00455
1.00397
1.00315
1.00216
1.00135
1.00073
1.00026
1
1
1
1
0.999957
0.99974
0.999698
0.999744
0.999878
1
1
0.999899
1
1
1
0.99975
0.999615
0.999677
0.9998
0.99974
0.999854
1
1.00016
1.00161
1.00273
1.00407
1.00618
1.00869
1.01096
1.0128
1.01431
1.01546
1.01636
1.01727
1.01781
1.01775
1.01788
1.01778
1.01771
1.01669
1.01538
1.01279
1.00969
1.00517
1.00886
1.00618
1.00644
1.00694
1.00727
1.00763
1.00767
1.00784
1.00807
1.00831
1.0086
1.00895
1.00936
1.00986
1.01035
1.0108
1.01119
1.01153
1.01184
1.01215
1.01245
1.01274
1.01303
1.01333
1.01367
1.014
1.01427
1.01443
1.01442
1.0142
1.01371
1.01295
1.01194
1.01089
1.00983
1.00876
1.00768
1.00659
1.00561
1.00473
1.00392
1.00314
1.00243
1.0019
1.00154
1.0013
1.00111
1.00098
1.00092
1.0009
1.00087
1.00091
1.00109
1.00145
1.00189
1.00242
1.00316
1.0044
1.00609
1.00791
1.00956
1.01142
1.01356
1.01562
1.01722
1.01838
1.0192
1.01954
1.01957
1.01965
1.01939
1.01883
1.01878
1.01848
1.01823
1.01695
1.01576
1.01294
1.00897
1.00464
1.01147
1.016
1.01749
1.0173
1.01694
1.0163
1.01556
1.01498
1.01459
1.01434
1.01424
1.01428
1.0144
1.01458
1.0148
1.01505
1.01535
1.0157
1.01613
1.01664
1.01722
1.01788
1.01865
1.01953
1.02051
1.02156
1.02262
1.02365
1.02455
1.02522
1.0255
1.02527
1.02457
1.02346
1.02213
1.02066
1.01913
1.01757
1.01603
1.01452
1.01302
1.01151
1.01009
1.00888
1.00793
1.00724
1.00678
1.00649
1.00632
1.00622
1.00623
1.00644
1.00697
1.00779
1.00879
1.0099
1.01126
1.01303
1.01513
1.01713
1.01885
1.02045
1.02206
1.02341
1.02396
1.02372
1.02292
1.02164
1.02018
1.01892
1.01742
1.01614
1.0157
1.01532
1.01552
1.01516
1.0144
1.01262
1.00864
1.00421
1.01656
1.02141
1.02084
1.01855
1.01615
1.01353
1.01105
1.00899
1.00744
1.00638
1.00571
1.00533
1.00513
1.00507
1.00514
1.00532
1.00563
1.00612
1.00679
1.00767
1.00877
1.01008
1.01159
1.01326
1.01505
1.01694
1.01904
1.02146
1.02432
1.02774
1.03139
1.03421
1.03583
1.03584
1.0349
1.03347
1.03181
1.03006
1.02827
1.02646
1.02461
1.02275
1.02093
1.01929
1.01794
1.01693
1.01625
1.01582
1.01555
1.01539
1.01541
1.01578
1.01657
1.01772
1.01896
1.02023
1.02163
1.02335
1.02524
1.02679
1.02769
1.02826
1.02877
1.02903
1.02739
1.02338
1.01955
1.01614
1.01277
1.00882
1.0044
1.00088
1
1
1.00258
1.00597
1.00823
1.00869
1.0071
1.00422
1.00463
1
1
0.999415
0.994329
0.986132
0.977548
0.97041
0.965383
0.962358
0.960911
0.960609
0.960975
0.961783
0.962802
0.963935
0.965332
0.967251
0.969754
0.97291
0.976821
0.981473
0.986652
0.991927
0.996554
0.999493
1
1
1
1
1.00956
1.02193
1.03037
1.03454
1.03617
1.03652
1.03626
1.03567
1.03485
1.03382
1.03259
1.0312
1.02973
1.02832
1.02711
1.02618
1.02554
1.0251
1.02477
1.02452
1.02445
1.0247
1.02529
1.026
1.02652
1.02672
1.02705
1.0275
1.02764
1.02732
1.02633
1.02499
1.02342
1.02123
1.01138
1.00083
1.00001
0.998477
0.989925
0.974201
0.956517
0.942853
0.936807
0.94038
0.952791
0.970962
0.98903
0.99822
1
1
0.854101
0.757338
0.661268
0.552297
0.460608
0.393268
0.347278
0.317617
0.299706
0.28993
0.285564
0.284742
0.286075
0.288747
0.292148
0.29599
0.300823
0.307601
0.316855
0.329259
0.34607
0.368719
0.398737
0.437892
0.488348
0.552197
0.630177
0.70316
0.776989
0.850192
0.907938
0.956881
0.99798
1.0024
1.00771
1.01289
1.01717
1.02053
1.02304
1.02494
1.02617
1.02686
1.02712
1.02711
1.02698
1.02684
1.02673
1.0266
1.02637
1.02606
1.02574
1.02555
1.02532
1.02482
1.02382
1.02239
1.02094
1.01935
1.0171
1.0142
1.01057
1.00637
1.0027
0.984684
0.915286
0.820374
0.691479
0.543613
0.421315
0.334771
0.276673
0.241367
0.228332
0.234671
0.264158
0.320026
0.40616
0.523235
0.659288
0.799034
0.0342275
0.0149045
5.66039e-08
3.61247e-08
3.23048e-08
2.73769e-08
2.12915e-08
1.58039e-08
1.1959e-08
1.00975e-08
9.75429e-09
8.29277e-09
4.71076e-09
1.65411e-09
7.73039e-10
7.512e-10
7.50421e-10
7.46303e-10
7.4408e-10
7.46292e-10
7.4408e-10
7.46292e-10
7.64772e-10
8.08712e-10
8.38435e-10
8.51521e-10
8.75674e-10
0.0181475
0.0492046
0.0923006
0.151682
0.231019
0.340538
0.494995
0.65225
0.78335
0.884358
0.960905
1
1.0023
1.00601
1.0091
1.01194
1.01363
1.01486
1.01573
1.01636
1.01663
1.01661
1.01622
1.01551
1.01466
1.01318
1.01135
1.00913
1.00654
1.00365
1.00042
0.956741
0.872969
0.753622
0.593522
0.400752
0.221216
0.108852
0.0348114
0.00182355
7.08938e-05
1.63279e-09
3.71988e-11
1.994e-11
6.03856e-12
3.59639e-12
2.57126e-12
2.38185e-12
1.7511e-12
7.40953e-13
7.40953e-13
7.40953e-13
1.799e-12
5.31647e-08
5.54541e-08
5.96476e-08
1.55502e-07
4.88975e-07
7.35166e-07
8.51295e-07
7.76456e-07
5.1326e-07
2.94721e-07
6.57419e-08
1.34213e-07
3.89729e-07
4.03403e-07
1.29667e-07
7.81763e-10
7.91706e-10
1.43831e-09
1.27793e-09
7.4408e-10
1.27356e-09
4.4228e-09
1.01746e-08
6.15163e-09
4.22939e-09
5.08747e-09
4.76945e-09
4.80653e-09
5.29891e-09
5.90549e-09
8.98724e-09
1.60313e-08
2.05776e-08
0.00403494
0.0255659
0.0739779
0.150822
0.253393
0.388021
0.545076
0.678716
0.782226
0.858058
0.911776
0.948681
0.972969
0.987846
0.994982
0.994986
0.990346
0.977996
0.956473
0.923039
0.873436
0.801609
0.701061
0.566493
0.400693
0.257984
0.146195
0.0634156
0.0152321
0.000135115
1.64978e-06
5.30739e-07
1.21557e-07
7.09088e-09
2.46321e-08
3.42688e-08
2.11415e-08
1.5756e-07
9.99349e-08
6.87658e-09
1.26442e-09
1.25907e-09
1.75132e-09
1.41994e-09
1.36092e-11
5.00637e-10
2.63437e-09
5.19722e-08
6.69857e-07
1.73527e-06
2.31454e-06
2.31484e-06
2.31381e-06
2.31097e-06
2.30682e-06
1.99369e-06
7.46581e-07
6.06719e-08
5.81157e-07
1.19662e-06
1.19649e-06
4.96367e-07
2.061e-09
3.11215e-09
5.13089e-09
4.04468e-09
7.9869e-10
2.29531e-09
3.67349e-08
4.88812e-08
3.81935e-08
1.76331e-08
2.7813e-08
6.33719e-08
1.87524e-07
2.13106e-07
2.03771e-06
5.60497e-06
5.59341e-06
3.74863e-07
8.23937e-09
1.06601e-07
6.15627e-07
2.1206e-06
5.37722e-06
1.14518e-05
0.00818758
0.0338939
0.076711
0.130668
0.189445
0.246092
0.294862
0.331367
0.351658
0.35195
0.339707
0.309148
0.263478
0.208331
0.148451
0.0904521
0.042136
0.0107237
7.95739e-05
9.84725e-06
4.47456e-06
1.57462e-06
3.43787e-07
3.37014e-08
8.30296e-09
2.17547e-09
5.13193e-10
6.75117e-11
3.4836e-08
4.03334e-08
2.17882e-08
1.04211e-08
3.25132e-09
1.13999e-08
2.0679e-09
1.3404e-09
1.77729e-09
1.3752e-09
5.52044e-11
2.47923e-09
1.47473e-08
2.56908e-13
2.56244e-13
2.56075e-13
2.56244e-13
4.41253e-12
3.33516e-12
1.54951e-12
7.06784e-13
6.08273e-13
6.12394e-13
6.08273e-13
1.31584e-07
8.74478e-07
9.90128e-07
2.54693e-07
9.74308e-10
4.04278e-09
5.13314e-09
4.10649e-09
5.61877e-10
1.23e-09
3.56614e-08
4.5777e-08
2.94509e-08
7.81958e-10
8.65765e-16
3.54046e-16
0
-2.07726e-14
0
6.45513e-08
1.96781e-07
1.65447e-07
7.31655e-11
7.62645e-11
2.92305e-09
1.15225e-08
3.50763e-08
8.73682e-08
4.60708e-07
1.81503e-06
4.67039e-06
9.12915e-06
1.49351e-05
2.14277e-05
2.77406e-05
3.29683e-05
3.62368e-05
3.68276e-05
3.53383e-05
3.13778e-05
2.56113e-05
1.905e-05
1.25886e-05
7.07045e-06
3.11077e-06
8.95853e-07
1.95613e-07
8.7926e-08
3.67077e-08
1.16415e-08
1.87098e-09
1.15527e-10
2.04614e-11
9.06632e-12
2.8626e-11
3.34977e-11
9.63625e-10
1.11365e-09
3.17954e-10
1.57106e-14
2.41337e-14
4.74891e-10
9.06629e-10
8.15249e-10
1.22066e-10
9.94501e-11
2.13196e-12
7.29431e-10
8.31437e-09
1.42982e-12
5.54978e-13
2.87174e-13
2.56097e-13
1.54538e-11
1.68522e-10
2.26752e-10
1.21123e-10
1.40312e-11
6.48247e-13
7.02847e-12
1.0901e-15
5.75746e-17
4.29187e-17
4.30998e-17
9.61434e-10
2.22263e-09
2.20414e-09
7.78523e-10
2.72041e-10
1.40816e-12
7.11798e-16
7.10053e-16
7.28127e-16
7.40973e-16
8.64688e-16
1.26806e-15
-8.63024e-15
-2.40085e-14
1.72169e-12
1.72221e-12
3.14172e-09
2.6999e-09
4.85672e-11
5.96176e-13
1.66763e-11
1.19878e-10
4.802e-10
1.16632e-09
4.85766e-09
1.75408e-08
4.87236e-08
1.02453e-07
1.78027e-07
2.68914e-07
3.62543e-07
4.43867e-07
4.97338e-07
5.10234e-07
4.89359e-07
4.30479e-07
3.3812e-07
2.37307e-07
1.55487e-07
8.34938e-08
3.49463e-08
9.59354e-09
1.7114e-09
4.26582e-10
1.25991e-10
3.87953e-11
5.69314e-12
3.18594e-14
-1.66023e-14
3.71434e-14
3.28833e-11
3.32771e-11
3.92095e-13
4.72301e-14
1.95322e-14
1.4135e-14
3.09255e-14
4.47041e-12
5.36438e-11
5.32471e-11
1.43977e-13
1.30107e-13
1.69711e-12
6.39201e-12
1.76384e-12
1.54603e-12
2.27729e-13
2.27729e-13
7.53557e-13
3.15881e-11
1.61067e-11
5.24151e-12
2.15056e-13
7.47166e-15
1.29186e-12
1.38221e-11
1.82257e-12
2.09773e-14
7.9215e-17
1.08329e-16
4.62624e-17
4.62276e-17
1.09715e-16
5.3594e-16
1.36556e-12
5.21409e-15
7.10053e-16
7.10053e-16
1.27598e-15
8.82242e-15
2.2505e-14
2.83596e-14
4.57094e-14
1.44026e-12
1.34114e-11
2.79024e-11
4.30534e-13
5.70931e-15
5.72099e-13
3.04478e-14
3.51746e-14
5.64821e-13
3.44326e-12
1.06508e-11
6.16821e-11
2.95408e-10
9.06539e-10
1.64419e-09
2.43313e-09
3.49561e-09
4.73584e-09
5.90687e-09
6.72499e-09
6.96374e-09
6.68034e-09
5.81471e-09
4.53277e-09
3.00819e-09
1.43058e-09
6.64405e-10
1.74961e-10
4.28657e-11
8.11024e-12
-2.64085e-13
-1.6757e-12
2.45516e-14
3.81764e-14
3.2414e-15
1.03227e-14
2.35638e-14
1.81502e-12
1.73056e-12
4.93046e-13
1.79107e-13
3.98598e-14
1.40872e-14
5.58053e-16
2.07705e-14
4.20685e-13
4.50547e-13
4.6055e-14
4.36598e-14
3.7008e-13
1.18516e-12
1.76453e-12
2.29332e-12
6.65286e-13
3.07208e-13
8.00484e-13
1.06725e-12
2.21994e-18
1.94732e-18
1.61616e-18
4.90371e-15
1.70495e-13
6.6048e-13
3.13397e-15
1.35087e-17
1.54085e-16
2.74663e-16
1.05391e-16
7.76852e-15
7.55655e-14
1.69654e-13
1.60599e-13
1.70413e-14
1.22873e-15
1.05946e-15
1.48216e-15
1.30431e-15
7.01891e-16
4.18015e-16
2.46366e-16
7.26474e-17
2.12907e-17
3.04796e-15
1.3874e-14
5.66044e-15
5.84557e-14
3.00937e-14
1.00009e-14
2.07296e-14
3.63537e-14
7.07342e-14
3.525e-13
2.2024e-12
8.33691e-12
1.62793e-11
2.63619e-11
4.15972e-11
6.00578e-11
7.67267e-11
8.59528e-11
8.77953e-11
8.5141e-11
7.57285e-11
6.04724e-11
4.33145e-11
2.58302e-11
6.66633e-12
1.75295e-12
8.15511e-13
4.36994e-13
1.43503e-13
7.97498e-14
3.17568e-14
1.04364e-14
6.21586e-15
9.50484e-15
2.00255e-14
4.64444e-14
1.08992e-13
1.63224e-13
1.13772e-13
4.13331e-14
8.10533e-15
5.09694e-16
2.58789e-16
1.70701e-14
9.4985e-14
6.12937e-14
1.77414e-14
7.77038e-16
8.51248e-15
2.91449e-13
3.58915e-12
1.70852e-12
1.93736e-13
1.95584e-14
2.06309e-17
5.79087e-18
4.91129e-18
1.55925e-18
2.34203e-17
5.40676e-17
2.18592e-17
4.67228e-18
1.82251e-19
1.18808e-18
3.57709e-18
4.54233e-18
5.13342e-17
7.124e-16
2.11934e-15
1.6038e-15
7.97662e-16
3.95604e-16
6.45416e-16
9.88802e-16
8.95961e-16
6.17586e-16
4.6735e-16
3.5506e-16
9.73654e-17
2.06773e-17
9.52476e-17
5.36957e-16
1.04928e-15
1.40764e-15
2.19999e-15
1.00098e-14
2.35555e-14
2.78459e-14
2.48367e-14
3.12923e-14
4.57015e-14
6.61358e-14
1.03504e-13
2.02616e-13
3.75555e-13
6.377e-13
9.41235e-13
1.17035e-12
1.26445e-12
1.2689e-12
1.19543e-12
9.98344e-13
7.34108e-13
4.58255e-13
3.48338e-13
3.36571e-13
1.83314e-13
4.53189e-14
1.6735e-14
3.8422e-14
2.23949e-14
7.25606e-15
9.09649e-16
9.14152e-16
2.25522e-15
7.38746e-15
1.3752e-14
2.45231e-14
2.19054e-14
7.9925e-15
4.6704e-16
3.49967e-17
1.22097e-16
7.37508e-15
3.79995e-14
2.70693e-14
4.97642e-15
1.62975e-16
6.48228e-18
2.84233e-16
3.66257e-12
2.15033e-12
1.20865e-12
1.52454e-13
3.86432e-15
1.40826e-17
2.41581e-19
1.92962e-20
9.41858e-20
1.2639e-19
3.0334e-19
2.40484e-20
1.40475e-20
2.19754e-20
4.6191e-20
7.97375e-20
3.49756e-19
3.35808e-18
1.0751e-17
1.31988e-17
5.08515e-18
1.65444e-18
2.16927e-18
5.10558e-18
6.03251e-18
7.29509e-18
5.39202e-18
5.07312e-18
1.37489e-18
2.63172e-19
7.03756e-19
7.28383e-18
3.04192e-17
1.2445e-16
8.2971e-16
3.10607e-15
7.49404e-15
1.46447e-14
2.48041e-14
3.45552e-14
3.90836e-14
3.0512e-14
1.1999e-14
1.60343e-14
2.71823e-14
4.43455e-14
6.01391e-14
6.95513e-14
7.10306e-14
6.80876e-14
6.47889e-14
5.6072e-14
4.90836e-14
3.9626e-14
1.32051e-13
2.23074e-13
1.52147e-13
3.85693e-14
1.10399e-14
3.71735e-15
1.53876e-15
4.51091e-16
2.35795e-17
1.36363e-17
7.06203e-17
4.34526e-16
5.69908e-16
8.45462e-16
6.3535e-16
1.67308e-16
5.14621e-18
2.00226e-19
1.24383e-17
1.91049e-15
6.15477e-15
2.51563e-15
1.73933e-16
1.47505e-18
5.68732e-22
6.18312e-21
1.34598e-12
2.23307e-13
6.26603e-13
2.60023e-13
1.73419e-14
2.81708e-17
3.90391e-21
1.43822e-22
9.95619e-23
1.31669e-22
3.65127e-22
1.47349e-22
1.61247e-22
2.33655e-22
3.46634e-22
3.65189e-22
9.15609e-22
2.82215e-21
8.75333e-21
1.1893e-20
5.29231e-21
4.17935e-22
4.7551e-22
8.37251e-22
1.37962e-21
1.71298e-21
1.58896e-21
1.21967e-21
3.21628e-22
2.14743e-22
1.75827e-21
2.07776e-20
2.6524e-19
4.36641e-18
3.71045e-17
1.37156e-16
3.66863e-16
1.03725e-15
2.23826e-15
3.49417e-15
5.05164e-15
7.21392e-15
1.07718e-14
1.73406e-14
2.93982e-14
4.48123e-14
5.68882e-14
6.19168e-14
6.19446e-14
5.83744e-14
5.42831e-14
4.73034e-14
4.30488e-14
3.59223e-14
3.0577e-14
3.74362e-14
3.13948e-14
7.80618e-15
8.93068e-16
8.90377e-17
1.86976e-17
3.60024e-18
2.16885e-19
5.93025e-20
4.86844e-19
4.7371e-18
4.88655e-18
5.57504e-18
3.193e-18
6.83256e-19
3.84355e-20
4.57317e-22
9.35962e-19
1.29845e-16
1.57829e-16
3.46031e-17
9.9371e-19
4.11412e-21
9.23625e-24
8.63824e-23
1.07718e-13
3.34244e-15
2.16506e-13
3.58651e-14
1.64642e-15
2.24471e-18
3.33604e-21
2.76714e-24
4.5151e-25
2.33645e-25
4.17932e-25
1.14511e-25
1.47932e-25
2.05573e-25
3.15579e-25
3.63747e-25
1.38586e-24
9.15673e-24
1.67852e-23
1.00415e-23
2.92028e-24
9.10464e-25
2.3749e-24
4.44406e-24
5.8085e-24
6.25923e-24
5.64396e-24
5.11416e-24
1.09645e-24
3.27479e-25
2.01164e-24
4.81118e-23
1.58284e-21
2.66293e-20
2.00596e-19
8.84736e-19
3.37366e-18
1.13287e-17
2.81978e-17
5.84684e-17
1.22778e-16
2.67161e-16
5.93771e-16
1.18313e-15
2.25418e-15
3.80363e-15
5.18064e-15
5.98677e-15
6.32345e-15
6.35721e-15
6.29785e-15
5.55051e-15
5.68096e-15
4.23395e-15
1.67863e-15
1.27278e-15
1.12863e-15
2.83858e-16
1.68449e-17
1.24822e-18
1.98645e-19
3.30979e-20
3.09496e-21
4.43706e-22
2.30896e-21
2.56927e-20
3.76427e-20
4.811e-20
3.32998e-20
8.9079e-21
7.6315e-22
9.34189e-25
3.68595e-21
1.23197e-18
7.78562e-19
2.12262e-19
9.19339e-21
6.59863e-23
3.39536e-25
2.10055e-24
2.79773e-15
8.03628e-16
1.85462e-14
1.86451e-16
1.17424e-17
3.35354e-20
2.465e-22
2.03392e-25
6.53943e-27
1.15143e-27
1.96381e-27
8.22044e-28
7.70112e-28
1.09625e-27
1.80666e-27
2.10709e-27
8.99564e-27
1.01731e-25
2.09717e-25
1.39322e-25
4.49028e-26
1.41653e-26
3.71756e-26
8.16964e-26
1.21969e-25
1.43489e-25
1.33764e-25
1.15882e-25
2.34107e-26
2.72457e-27
6.63833e-27
1.16321e-25
2.39936e-24
7.02423e-23
8.94192e-22
5.12562e-21
2.17408e-20
6.82753e-20
1.67701e-19
3.76766e-19
8.26745e-19
1.77576e-18
4.15744e-18
1.04255e-17
2.48472e-17
4.878e-17
7.46287e-17
9.37068e-17
1.06155e-16
1.18909e-16
1.24266e-16
1.00225e-16
1.06922e-16
7.49756e-17
3.16186e-17
1.54338e-17
9.50487e-18
2.67899e-18
2.52101e-19
2.41038e-20
3.87546e-21
6.59939e-22
6.90996e-23
8.87122e-24
2.04155e-23
3.87406e-22
6.96764e-22
9.40041e-22
6.87123e-22
1.90074e-22
1.75045e-23
1.60277e-26
2.89286e-23
6.73297e-21
7.35207e-21
2.79191e-21
1.33813e-22
1.31245e-24
1.08972e-26
5.82823e-26
1.50502e-17
8.47093e-18
2.11376e-16
1.01865e-17
5.39042e-20
3.42976e-22
2.76346e-24
1.1978e-26
1.92297e-28
1.86024e-29
2.85591e-29
1.24002e-29
1.21299e-29
1.73704e-29
2.844e-29
3.25895e-29
1.20369e-28
1.60472e-27
3.64506e-27
2.82319e-27
8.37711e-28
2.66222e-28
5.98759e-28
1.5266e-27
2.43138e-27
3.23629e-27
3.09967e-27
3.20513e-27
1.14517e-27
1.27648e-27
4.79673e-27
7.10514e-26
9.22657e-25
1.03746e-23
1.00255e-22
7.21643e-22
3.93111e-21
1.88121e-20
7.27716e-20
2.06201e-19
2.89508e-19
4.04672e-20
3.61588e-20
7.4857e-20
1.84684e-19
3.80764e-19
6.42295e-19
8.77828e-19
1.04972e-18
1.28436e-18
1.39261e-18
1.09762e-18
9.81279e-19
7.91944e-19
4.7742e-19
2.43718e-19
1.31236e-19
4.32069e-20
5.92355e-21
6.50191e-22
1.0187e-22
1.69376e-23
1.85261e-24
2.81528e-25
5.33489e-25
8.87295e-24
1.59102e-23
2.15136e-23
1.64322e-23
4.91408e-24
4.81893e-25
1.72648e-27
3.19603e-25
1.09939e-22
1.40534e-22
5.28007e-23
2.59981e-24
3.44437e-26
4.02222e-28
1.73338e-27
1.48814e-19
1.93457e-20
9.68328e-19
9.50529e-20
1.01239e-21
1.08914e-23
1.004e-25
6.73574e-28
8.48964e-30
4.29048e-31
5.6821e-31
2.60648e-31
2.4403e-31
3.40968e-31
5.44248e-31
6.09367e-31
2.31391e-30
3.25084e-29
7.56918e-29
6.30615e-29
1.7851e-29
6.52807e-30
1.58721e-29
4.08445e-29
6.82589e-29
9.16007e-29
9.35519e-29
1.19048e-28
5.63443e-28
8.49019e-27
1.3249e-25
1.92302e-24
2.57281e-23
3.12933e-22
3.36921e-21
2.95172e-20
1.74101e-19
6.13561e-19
1.36456e-18
2.17713e-18
1.61082e-18
2.7797e-19
2.57006e-21
1.59268e-21
1.55896e-21
4.06411e-21
8.05801e-21
1.21041e-20
1.53307e-20
1.9951e-20
2.32537e-20
2.10587e-20
1.8777e-20
1.6067e-20
1.03276e-20
5.75605e-21
3.2544e-21
1.1397e-21
1.70438e-22
1.95374e-23
2.96547e-24
4.83454e-25
5.54787e-26
8.97214e-27
1.78292e-26
2.27176e-25
4.0572e-25
5.43698e-25
4.19405e-25
1.37182e-25
1.45071e-26
3.56196e-28
1.68535e-26
2.62319e-24
3.37058e-24
1.22305e-24
6.39841e-26
1.09857e-27
1.75711e-29
5.60734e-29
3.38076e-21
3.67651e-22
1.64192e-20
1.13089e-21
2.08908e-23
2.89425e-25
3.51279e-27
3.0674e-29
3.72894e-31
1.18683e-32
1.27955e-32
6.35941e-33
5.73671e-33
7.13253e-33
1.09346e-32
1.17184e-32
4.24819e-32
7.04241e-31
1.7766e-30
1.6767e-30
4.66557e-31
1.69296e-31
3.64562e-31
1.07293e-30
1.91932e-30
4.14216e-30
3.50872e-29
6.4064e-28
1.11361e-26
1.92534e-25
3.14774e-24
4.82706e-23
6.89991e-22
9.09025e-21
1.07616e-19
1.04269e-18
6.5601e-18
2.37564e-17
5.3457e-17
8.88371e-17
8.35055e-17
2.50149e-17
5.2771e-20
1.29429e-21
1.60049e-22
1.21761e-22
8.52902e-23
1.72031e-22
2.72176e-22
3.8223e-22
4.84745e-22
4.84633e-22
4.63139e-22
4.19461e-22
2.77921e-22
1.56653e-22
9.11815e-23
3.41622e-23
5.541e-24
6.54066e-25
9.62651e-26
1.56362e-26
1.89017e-27
3.01824e-28
5.85815e-28
6.3153e-27
1.14521e-26
1.53773e-26
1.18968e-26
4.20232e-27
4.83175e-28
1.89164e-29
4.95748e-28
7.38719e-26
9.44247e-26
3.35386e-26
1.86107e-27
3.9127e-29
9.25913e-31
2.01391e-30
8.45985e-23
7.2543e-24
4.01416e-22
2.97e-23
5.31451e-25
7.34631e-27
1.13146e-28
1.2576e-30
1.64696e-32
4.06225e-34
3.3863e-34
1.98343e-34
1.66794e-34
1.74961e-34
2.65002e-34
2.88168e-34
9.488e-34
1.73124e-32
4.86081e-32
5.02931e-32
1.4457e-32
6.29281e-33
1.11969e-32
7.27453e-32
1.07776e-30
2.41717e-29
5.08026e-28
1.02567e-26
1.96269e-25
3.57347e-24
6.20296e-23
1.02243e-21
1.5863e-20
2.31239e-19
3.09984e-18
3.3798e-17
2.27109e-16
8.40173e-16
1.84122e-15
3.03418e-15
3.44324e-15
2.2862e-15
4.0036e-17
6.69341e-20
1.24832e-21
6.51003e-23
2.35535e-23
2.22314e-23
5.33964e-24
6.62255e-24
1.1022e-23
1.19635e-23
1.21037e-23
1.16859e-23
8.19314e-24
4.66312e-24
2.74596e-24
1.08773e-24
1.9252e-25
2.36303e-26
3.38371e-27
5.48745e-28
7.01308e-29
1.09485e-29
2.00475e-29
1.93922e-28
3.60268e-28
4.84299e-28
3.75456e-28
1.38944e-28
1.74333e-29
8.79948e-31
1.42498e-29
2.34181e-27
2.99935e-27
1.05985e-27
6.26657e-29
1.51967e-30
5.95474e-32
8.29305e-32
2.25368e-24
1.94454e-25
1.06034e-23
6.18623e-25
1.41358e-26
2.06865e-28
3.70304e-30
5.0965e-32
7.60096e-34
1.80912e-35
1.14434e-35
8.70217e-36
7.06631e-36
6.45512e-36
9.11092e-36
9.96194e-36
2.57856e-35
4.92722e-34
1.50127e-33
1.65266e-33
1.17222e-33
1.57537e-33
2.95282e-32
7.18803e-31
1.65897e-29
3.74855e-28
8.2212e-27
1.72615e-25
3.4571e-24
6.6222e-23
1.21349e-21
2.12088e-20
3.5311e-19
5.64862e-18
8.62733e-17
1.05954e-15
7.41546e-15
2.77173e-14
6.05744e-14
1.01926e-13
1.32483e-13
1.65153e-13
3.15242e-15
2.34861e-18
6.11578e-20
1.50962e-21
4.14833e-23
3.74803e-24
2.66477e-24
1.65302e-24