/*--------------------------------*- C++ -*----------------------------------*\
| =========                 |                                                 |
| \\      /  F ield         | OpenFOAM: The Open Source CFD Toolbox           |
|  \\    /   O peration     | Version:  2412                                  |
|   \\  /    A nd           | Website:  www.openfoam.com                      |
|    \\/     M anipulation  |                                                 |
\*---------------------------------------------------------------------------*/
FoamFile
{
    version     2.0;
    format      ascii;
    arch        "LSB;label=32;scalar=64";
    class       volScalarField;
    location    "81";
    object      p;
}
// * * * * * * * * * * * * * * * * * * * * * * * * * * * * * * * * * * * * * //

dimensions      [1 -1 -2 0 0 0 0];

internalField   nonuniform List<scalar> 
6400
(
13445.4
13460.8
13548.8
13773.9
14118.1
14561
15082.1
15671.2
16319.2
17018.3
17763.3
18541.9
19344.8
20162.8
20991.5
21822.5
22649.9
23466.7
24259
24987
25644.6
26247.9
26815.5
27341.6
27776.3
28072.7
28275.8
28438
28546.7
28564.7
28500
28385.2
28231.2
28045.1
27815.7
27478.5
27105.6
26749.1
26339.6
25933.8
25589.9
25273.5
24929.8
24585.5
24301.3
24062.3
23855.1
23693
23594.5
23552
23563.9
23624.6
23734.6
23883.6
24068.9
24286.2
24539.9
24814
25103.7
25396.5
25691.1
25971.4
26237.4
26463.9
26643.5
26754
26803.7
26786.8
26713.2
26574
26387.4
26161.8
25921.8
25671.9
25430.5
25199.3
24992.7
24818.7
24698
24641.6
12216.3
12238.3
12329.8
12535.1
12842.6
13242.9
13718.7
14262.3
14864.9
15523.7
16230.6
16977
17751.1
18546.8
19357.4
20177.3
20996.3
21807.4
22589
23319.2
23989.3
24616.6
25206
25742.6
26183.6
26511.6
26757.8
26972.3
27144.1
27227.8
27212.8
27134.2
27010.1
26867.5
26715.1
26479
26160.3
25827.3
25493.6
25171.8
24864.1
24571.2
24275.7
23982.7
23707.3
23474.8
23279.1
23127.6
23025.4
22972
22962.6
23003.2
23082.4
23199.6
23339.8
23513.7
23710.1
23933.7
24165.5
24408.1
24643.3
24876.1
25081.5
25255.1
25373.3
25447.4
25456.9
25412.2
25304.7
25152.7
24954.4
24737.7
24505.4
24279.7
24059.2
23858.4
23677
23529.1
23420.2
23363.1
10941.6
10965.3
11060.3
11254.5
11539.8
11907.2
12347.4
12852.1
13417.3
14040.9
14717.1
15432.2
16179.9
16953.4
17751.4
18559.2
19366.8
20161.6
20925.7
21651.2
22342.1
22995.4
23592.9
24110
24560.4
24946.5
25256.1
25505.9
25708
25846.6
25903.3
25873.9
25793
25685
25568.6
25423
25204.5
24936
24687
24432.4
24140
23851.4
23619
23386.3
23121.3
22878.7
22692.3
22552.2
22447
22377.1
22357.8
22377.2
22431.5
22508
22615.3
22740.5
22891.5
23057.4
23244.5
23431.4
23621.5
23791.3
23944.1
24054
24131.1
24160
24142.4
24053.9
23923.5
23747.9
23550.2
23330.5
23114.2
22900.3
22704
22521.5
22362.5
22227.2
22116.8
22040
9566.89
9608.17
9717.96
9913.03
10190.8
10545.6
10968.9
11456.2
12002.9
12610.7
13270
13967.4
14701.7
15471.6
16260.8
17054.6
17843.1
18620.3
19371.5
20100.5
20803.7
21463.8
22048.1
22554.9
23012.4
23439.3
23817.7
24110.2
24313.5
24468.3
24582.4
24625
24597.3
24530.4
24426.9
24329.4
24219.9
24060.3
23886.4
23647.6
23332
23041.4
22831.1
22655.5
22430.1
22195.7
22003.7
21860
21749
21673.8
21635.2
21636.6
21666.8
21721.4
21794.8
21896
22017.6
22158.2
22301
22450.9
22586
22711.4
22815.8
22898.5
22932.7
22930.1
22873.9
22768.2
22610.9
22429.5
22222
22009.8
21794.5
21592.6
21401.2
21229.1
21072.4
20936
20810.2
20701.3
8117.31
8187.05
8323.89
8532.91
8816.34
9170.88
9591.96
10075.1
10619.7
11222.2
11874.3
12564.3
13303.7
14074.6
14853.7
15625.4
16397.2
17162
17914.5
18641.7
19335.4
19978.6
20556.5
21064.4
21527.8
21962.9
22373
22713.6
22955.3
23107.1
23236.4
23348.9
23405.4
23398.1
23324.5
23260.8
23220.4
23096.5
22926.2
22719
22471.9
22213.7
21999.7
21822.1
21632.9
21431.4
21248.4
21092.5
20978.8
20896.2
20846.1
20827.1
20842.2
20874.3
20934.2
21014.8
21122.5
21235
21348.4
21452.7
21555.8
21639.3
21713.9
21760.5
21773.7
21730.9
21651.4
21524.9
21363.8
21167.3
20961.4
20745.6
20537.5
20334.2
20146.1
19970.2
19810.1
19662.7
19516.1
19376.6
6616.39
6723.71
6895.41
7128.21
7426.79
7791.5
8219.24
8708.98
9257.87
9863.5
10519.3
11220.1
11963.7
12730
13493.9
14248.5
15009.6
15777.5
16524.6
17234.9
17903
18527
19103.7
19627.9
20100.4
20534.3
20938
21304.3
21591.5
21769.8
21910.6
22067.5
22187.2
22240.5
22202.1
22168.4
22125.4
22009.6
21864
21717.9
21567.6
21369.8
21146.1
20945.2
20770.4
20594.8
20421.4
20272.4
20154.3
20069.4
20011.6
19995
19998.4
20020.7
20055.9
20123.7
20207.9
20300.1
20376.2
20444.6
20511.9
20581.7
20618.2
20634.2
20615.2
20560
20453.7
20318.7
20143.5
19948.3
19735.2
19524.5
19314.1
19114.4
18921.3
18740.5
18571.2
18410.3
18248.1
18083.2
5087.18
5240.69
5454.98
5719.42
6041.67
6423.64
6866.33
7367.15
7923.46
8537.26
9207.17
9921.38
10668.2
11428.1
12177
12922.3
13682.9
14439.7
15167
15851.1
16499.6
17109.2
17689.1
18229.3
18702.7
19123.2
19527.1
19903.6
20211
20436.7
20615.4
20790.4
20936.1
20999.3
20994.1
20986
20947.7
20894.8
20833.3
20732
20605.5
20435.7
20224
20026
19863.3
19693.5
19529.6
19382.2
19265.3
19176.8
19125.9
19111.3
19113.7
19115.4
19137.3
19188.4
19261.4
19324.4
19383.7
19418.4
19459.5
19498.6
19524.1
19509.7
19472.8
19396.5
19287.1
19134.9
18957.8
18754.5
18544
18327.5
18118.4
17914
17719.1
17531.9
17355
17185.4
17012.4
16838.6
3559.59
3764.65
4028.06
4331.08
4682.99
5090.21
5555.61
6073.13
6636.89
7259.62
7936.64
8654.77
9391.4
10148.4
10898
11644.4
12384.9
13105.4
13797.5
14465.6
15105.4
15716.8
16292.2
16828.4
17300.4
17717.4
18117.9
18502.3
18813.3
19083.2
19307
19492.3
19630.4
19702.6
19753.5
19753.2
19752.6
19800.3
19787.9
19699.2
19570.6
19418.1
19243
19070.3
18900.2
18728.4
18560.9
18415.5
18293.6
18205.9
18150.4
18136.1
18134.7
18130.5
18139.1
18184.8
18241.3
18295.4
18330.8
18362.6
18380.2
18400
18401
18382.8
18327.6
18246.1
18123.8
17972.2
17787.4
17587.3
17371.8
17156.1
16939.9
16732.3
16532.4
16342.4
16163.6
15990.7
15821.8
15646.6
2059.25
2321.01
2639.73
2987.18
3376.97
3820.43
4315.58
4850.14
5428.74
6062.02
6737.73
7433.59
8148.92
8896.57
9653.77
10389.9
11099.5
11774.3
12426.3
13081.1
13716.6
14315.8
14883.7
15399.9
15874.3
16326.6
16744.7
17107.3
17408.7
17704.2
17971.9
18144.6
18271.6
18400.7
18509.4
18526
18556.9
18648.9
18674.6
18595.3
18467.7
18333.2
18199.5
18039.2
17867.6
17689.5
17519.8
17367
17244.2
17148.8
17089.5
17059.6
17060.9
17057.9
17069.5
17105.1
17158.5
17204.9
17232.2
17249.7
17272.7
17280.2
17274.4
17243.4
17191.3
17100.7
16980.3
16821.5
16639.9
16435.2
16222.7
16002.2
15783.8
15569.3
15365.9
15176.1
14999.8
14835.8
14673.9
14512.6
602.321
925.466
1305.53
1702.62
2137.68
2619.23
3138.86
3693.72
4285.4
4920.86
5589.64
6270.93
6973.1
7695.67
8432.56
9151.14
9830.3
10480.6
11116.4
11748.4
12360.3
12933
13462.3
13958.5
14445
14941.7
15379.8
15712.2
15996.7
16312.6
16606.6
16785.9
16918.6
17074.5
17217.1
17307.7
17366.3
17424.6
17448
17400.7
17293
17199.6
17091.8
16944.2
16767.8
16587.3
16409.7
16255
16125.8
16029.4
15957
15915.4
15901.9
15921
15938.1
15971.5
16014.8
16072.4
16101.5
16119.7
16134.3
16153.8
16145.3
16120.4
16064.3
15981.4
15857.1
15702.1
15514.5
15310.6
15092.8
14871.9
14648.5
14430.6
14225.1
14037.4
13871
13716
13572.6
13424.4
-807.911
-417.424
28.747
482.01
965.705
1475.59
2012.62
2575.74
3171.43
3807.03
4472.35
5147.59
5840.41
6548.18
7252.8
7935.18
8592.64
9239.12
9874.58
10476.8
11043.5
11577.3
12075.1
12558.5
13051
13529.7
13954.8
14295
14598.6
14900.8
15182.3
15410.4
15587.1
15731.1
15880.1
16023.1
16103.4
16122.2
16154.9
16169.4
16110.2
16027.7
15939.7
15810.2
15630.3
15440.6
15258.6
15097.1
14975.6
14879.3
14805.6
14753
14742.5
14757.1
14787.2
14813.2
14858.1
14914.8
14973.5
14996.9
15019.7
15034.7
15039.2
15015.5
14969.5
14885.8
14769.1
14610.8
14424
14212
13990.1
13762
13535.6
13315.4
13109.1
12927.5
12767.4
12627.7
12497.3
12374.7
-2180.87
-1712.02
-1188.08
-668.183
-143.519
389.495
944.17
1516.78
2112.69
2737.53
3387.11
4052.88
4734.77
5428.5
6098.31
6745.32
7374.11
7990.16
8596.27
9167.28
9691.5
10200.6
10698.5
11183.2
11654
12084.9
12475.5
12842
13183.4
13480.5
13737.1
13983.7
14198.6
14367.6
14519.5
14659
14748.1
14798
14871.2
14939.6
14927.2
14834.3
14739
14642.1
14494.2
14314.2
14130
13978.6
13861.3
13775.9
13707
13662.6
13648.2
13673.2
13706.3
13736.9
13764.7
13813
13869.2
13915.5
13941.4
13959
13959.4
13943.5
13895.5
13819
13700.8
13546.3
13353.7
13137.7
12906
12670.9
12438.9
12215.4
12010.1
11828.7
11676
11541.2
11434.4
11334.6
-3541.7
-2974.69
-2350.1
-1763.14
-1205.09
-637.213
-61.739
517.628
1106.77
1710.57
2331.31
2965.56
3609.64
4255.78
4886.63
5491.66
6079.02
6652.93
7210.75
7746.97
8258.18
8755.46
9250.76
9731
10183.9
10604.8
10994.8
11366.7
11720.8
12030.6
12292.3
12531
12751.5
12945.8
13118.5
13259.5
13372.7
13476.5
13583.6
13660.8
13671.8
13607.6
13533
13454.3
13358.3
13229.7
13079.2
12933.8
12831.3
12761.6
12704.6
12655.2
12640.5
12663.2
12703.6
12732.6
12758.1
12783.3
12823.1
12859.3
12889.4
12899.3
12900.9
12878.8
12835
12755.5
12641.3
12484
12291.7
12069.6
11831.5
11587.6
11347.5
11119.5
10907.3
10724.1
10564.8
10437.6
10346.6
10284.8
-4926.68
-4238.22
-3500.69
-2845.18
-2246.78
-1661.72
-1082.96
-510.342
59.9022
633.074
1213.86
1804.42
2397.43
2985.62
3566.65
4137.88
4694.15
5232.62
5756.37
6271.83
6777.8
7271.78
7753.96
8227.17
8685.08
9116.24
9514.48
9882.6
10225.3
10538
10814.1
11061.7
11284.5
11488.1
11671.3
11832.1
11972.6
12104.1
12217.3
12297
12326.3
12312.2
12277
12231.5
12165.4
12082.7
11974.8
11860.3
11768.4
11712.1
11661.7
11619.5
11598.3
11620.2
11652.5
11685.9
11708.5
11731
11751.4
11783
11804.9
11820.5
11818.9
11802.8
11758.2
11685
11570.4
11416.3
11221.9
10997.6
10752.9
10499
10248.9
10007.4
9784.39
9583.59
9416.35
9283.31
9218.74
9190.56
-6351.01
-5504.99
-4642.32
-3908.55
-3264.64
-2670.55
-2105.42
-1556.22
-1014.26
-473.578
70.0254
618.303
1167.16
1712.48
2253.14
2784.98
3306.8
3818.07
4319.72
4812.35
5301.17
5785.36
6259.93
6721.22
7166.96
7591.81
7993.51
8367.02
8712.77
9027.35
9311.81
9567.26
9798.62
10008.1
10199
10370.2
10524.5
10661
10777.5
10862.5
10914.1
10931.9
10927.5
10902.1
10861.9
10802.3
10724.2
10635.3
10568.8
10519.8
10481
10446.3
10438.3
10452.3
10484.8
10515.4
10550.7
10578.3
10609.1
10639
10672
10694.5
10708.5
10700.2
10668.8
10600.8
10492.8
10337.6
10141
9910.57
9655.65
9388.97
9119.46
8859.94
8610.65
8389.66
8200.18
8067.62
8015.63
8029.81
-7780.82
-6726.49
-5692.23
-4857.17
-4173.65
-3577.6
-3031.8
-2515.12
-2013.42
-1517.91
-1022.66
-524.928
-27.0439
467.1
958.292
1445.93
1923.91
2392.69
2855.5
3314.82
3773
4230.65
4684.16
5131.44
5568.15
5990.55
6393.95
6774.94
7129.7
7456.31
7754.01
8024.75
8268.27
8489.8
8689.35
8871.35
9033.53
9177.25
9297.52
9392.21
9455.39
9490.86
9500.26
9490.57
9461.16
9418.82
9360.01
9300.5
9248.78
9214.48
9187.23
9176.17
9179.05
9203.09
9235.38
9279.24
9322.87
9371.66
9415.67
9464.89
9509.35
9552.61
9579.16
9588.72
9567.96
9510.61
9403.58
9244.81
9039.46
8798.11
8531.32
8244.74
7953.05
7659.71
7378.9
7118.9
6906.42
6756.44
6715.73
6748.25
-9265.35
-7922.65
-6651.31
-5711.82
-4999.1
-4420.12
-3917.9
-3455.15
-3012.11
-2577.5
-2145.68
-1713.61
-1282.33
-853.001
-425.836
-1.11817
419.74
838.507
1257.99
1680.58
2107.95
2540.35
2975.94
3412.08
3845.33
4270.54
4682.78
5075.26
5444.36
5785.94
6103.08
6397.17
6666.42
6909.84
7129.17
7326.1
7502.92
7656.4
7786.41
7888.61
7965.13
8011.23
8035.52
8036.87
8021.96
7990.72
7952.92
7911.41
7880.69
7858.6
7852.19
7855.81
7878.99
7912.99
7963.29
8018.47
8083.27
8146.28
8213.93
8277.1
8340.55
8396.1
8440.43
8463.47
8465.76
8428.55
8336.9
8182.32
7972.96
7724.79
7440.41
7129.24
6794.09
6452.63
6109.58
5795.56
5526.07
5339.3
5263.49
5287.29
-10974.5
-9051.9
-7445.76
-6419.51
-5705.72
-5163.94
-4716.37
-4316.98
-3940.82
-3576.3
-3216.38
-2858.64
-2501.7
-2146.26
-1791.19
-1436.5
-1080.05
-719.401
-351.245
26.548
416.162
818.436
1232.9
1658.01
2090.83
2526.86
2957.94
3373.14
3764.24
4126.03
4457.46
4763.41
5043.69
5299.06
5527.6
5734.35
5919.73
6085.74
6227.49
6344.82
6436.4
6500.08
6535.75
6552.93
6551.15
6539.29
6517.98
6498.95
6483
6480.29
6486.43
6509.53
6543.97
6596.44
6657.61
6732.84
6811.22
6898.14
6985.34
7077.66
7162.3
7248.42
7324.6
7389.68
7440.86
7458.83
7401.4
7234.87
6988.32
6695.54
6368.53
6003.65
5615.03
5205.14
4796.4
4401.88
4057.2
3778.31
3613.25
3545.82
-11994.7
-8709.83
-6746.54
-5657.14
-4939.22
-4434.13
-4048.43
-3729.11
-3451.17
-3199.51
-2964.92
-2740.07
-2520.97
-2304.2
-2088.13
-1870.46
-1649.4
-1421.8
-1185.62
-938.113
-677.031
-399.326
-102.882
214.731
555.37
919.917
1302.91
1690.72
2074.58
2446.26
2797.61
3124.88
3426.73
3693.66
3928.29
4134.48
4317.79
4479.25
4621.74
4741.77
4847.58
4932.27
4995.29
5034.04
5055.8
5061.36
5061.78
5058.59
5063.33
5074.26
5100.38
5136.14
5189.97
5254.09
5335.03
5424.18
5527.49
5637.09
5762.36
5897.14
6034.83
6159.95
6253.35
6294.62
6289.3
6227.54
6025.84
5635.14
5155.83
4700.55
4276.07
3885.06
3523.47
3191.99
2876.3
2576.66
2282.45
2005.24
1751.81
1504.46
-7016.37
-3675.68
-2491.05
-1922.5
-1555.61
-1312.57
-1141.25
-1014.82
-918.801
-843.547
-781.674
-728.215
-679.356
-632.982
-587.449
-541.885
-495.464
-447.684
-397.626
-344.532
-287.066
-223.491
-151.352
-67.6758
31.549
151.053
294.028
472.022
685.777
928.938
1190.98
1467.86
1753.6
2032.32
2283.31
2503.65
2696.56
2865.43
3005.77
3116.38
3208.31
3290.07
3357.78
3413.94
3455.99
3490.94
3518.16
3547.24
3577.41
3618.31
3666.24
3728.29
3798.93
3885.59
3981.48
4093.74
4211.83
4333.17
4436.11
4527.4
4586.92
4570.7
4395.92
4032.82
3567.32
3053.68
2515.52
2041.73
1640.98
1332.72
1099.05
924.504
804.176
720.607
663.698
614.286
556.147
468.857
329.23
51.0872
-745.24
-105.07
-10.0399
-10.0446
-10.0482
-10.0502
-10.0502
-10.0478
-10.0454
-10.0441
-10.0428
-10.0432
-10.0413
-10.0383
-10.0405
-10.0427
-10.0432
-10.0438
-10.0436
-10.0434
-10.0434
-10.0434
-10.0435
-10.0448
-10.0474
-10.0507
-10.053
6.00171
41.9129
97.1662
174.131
273.833
400.524
562.909
742.471
920.968
1088.02
1235.27
1363.86
1475.71
1574.96
1660.93
1735.05
1793.72
1842.71
1882.01
1920.89
1958.99
2005.8
2060.02
2128.4
2203.35
2289.97
2379.28
2474.16
2561.43
2625.85
2622
2528.29
2340.7
2063.08
1695.56
1274.03
854.851
509.715
208.099
4.58134
-9.51083
-10.0535
-10.0539
-10.0523
-10.052
-10.053
-10.0536
-10.0536
-10.0536
-10.0534
-10.0527
-10.0507
-10.0491
-10.5684
-10.5194
-10.5256
-10.5263
-10.5269
-10.5267
-10.5265
-10.5269
-10.5286
-10.5311
-10.5321
-10.5315
-10.5293
-10.529
-10.5323
-10.5335
-10.5337
-10.5342
-10.534
-10.5339
-10.5338
-10.5338
-10.5337
-10.5344
-10.5365
-10.5402
-10.543
-10.5481
-10.5376
-10.5332
-10.5236
-10.5193
-10.5293
-3.48512
25.6167
73.2277
129.836
186.338
239.838
288.496
323.846
350.322
369.899
387.417
403.927
425.542
452.457
490.099
535.475
594.827
659.49
727.859
788.153
834.729
852.59
834.743
768.185
650.808
511.645
358.329
199.498
60.0491
-9.72458
-10.5328
-10.5401
-10.5432
-10.5443
-10.5443
-10.5446
-10.5446
-10.5446
-10.5444
-10.5442
-10.5442
-10.5442
-10.5441
-10.544
-10.5435
-10.5419
-10.54
-11.0231
-11.0203
-11.0232
-11.0227
-11.0224
-11.0223
-11.0224
-11.0225
-11.0228
-11.0234
-11.0232
-11.0234
-11.0222
-11.022
-11.0231
-11.0236
-11.0235
-11.024
-11.0242
-11.0243
-11.0242
-11.0238
-11.0225
-11.0206
-11.0201
-11.0221
-11.0233
-11.0273
-11.0266
-11.0263
-11.0264
-11.0266
-11.0258
-11.0271
-11.0282
-11.0278
-11.0268
-11.0255
-11.0254
-10.4896
-13.2623
-20.6098
-32.0323
-46.466
-61.0661
-72.8234
-77.7695
-74.4015
-60.9817
-39.4249
-11.9236
15.2464
37.5034
48.8137
46.4748
30.3617
5.85727
-10.8456
-11.0034
-11.0169
-11.0261
-11.0317
-11.034
-11.0344
-11.0346
-11.0348
-11.035
-11.0351
-11.0351
-11.035
-11.035
-11.035
-11.0349
-11.0347
-11.0347
-11.0348
-11.0352
-11.036
-11.0361
-11.0334
-11.5121
-11.512
-11.5122
-11.5122
-11.5123
-11.5124
-11.5126
-11.5127
-11.5129
-11.513
-11.5131
-11.5132
-11.5134
-11.5137
-11.5142
-11.5144
-11.5143
-11.5145
-11.5147
-11.5148
-11.5149
-11.515
-11.515
-11.515
-11.5149
-11.5153
-11.5157
-11.5164
-11.5167
-11.517
-11.5172
-11.5182
-11.5184
-11.5186
-11.5188
-11.5189
-11.5191
-11.5193
-11.5197
-11.5202
-11.5221
-11.5263
-11.5337
-11.5448
-11.5585
-11.5724
-11.5836
-11.5895
-11.5883
-11.5811
-11.5686
-11.5537
-11.5399
-11.5294
-11.5234
-11.5212
-11.5217
-11.5227
-11.5233
-11.5238
-11.5241
-11.5245
-11.5248
-11.525
-11.5252
-11.5253
-11.5254
-11.5255
-11.5256
-11.5256
-11.5256
-11.5256
-11.5255
-11.5253
-11.5252
-11.525
-11.5248
-11.5252
-11.5258
-11.5253
-12.0026
-12.0026
-12.0027
-12.0027
-12.0028
-12.0029
-12.0031
-12.0032
-12.0034
-12.0035
-12.0036
-12.0037
-12.0041
-12.0044
-12.0047
-12.0048
-12.0049
-12.005
-12.0051
-12.0053
-12.0053
-12.0055
-12.0057
-12.0059
-12.0061
-12.0064
-12.0066
-12.0069
-12.0072
-12.0074
-12.0076
-12.0083
-12.009
-12.0092
-12.0093
-12.0094
-12.0096
-12.0098
-12.01
-12.0102
-12.0103
-12.0107
-12.0111
-12.0115
-12.012
-12.0126
-12.0131
-12.0135
-12.0137
-12.0138
-12.0138
-12.0136
-12.0134
-12.0133
-12.0134
-12.0136
-12.0137
-12.0139
-12.0141
-12.0144
-12.0147
-12.015
-12.0152
-12.0154
-12.0156
-12.0158
-12.0159
-12.016
-12.0161
-12.0161
-12.0161
-12.0161
-12.016
-12.0161
-12.0161
-12.016
-12.0158
-12.0156
-12.016
-12.0159
-12.4931
-12.4931
-12.4932
-12.4933
-12.4934
-12.4935
-12.4936
-12.4937
-12.4939
-12.494
-12.4942
-12.4944
-12.4946
-12.4948
-12.495
-12.4952
-12.4954
-12.4955
-12.4957
-12.4958
-12.4959
-12.4961
-12.4962
-12.4964
-12.4966
-12.497
-12.4972
-12.4975
-12.4978
-12.4981
-12.4984
-12.4989
-12.4993
-12.4996
-12.4998
-12.5
-12.5002
-12.5003
-12.5005
-12.5006
-12.5007
-12.501
-12.5013
-12.5015
-12.5016
-12.5019
-12.5021
-12.5024
-12.5026
-12.5029
-12.5031
-12.5034
-12.5035
-12.5037
-12.5038
-12.5041
-12.5043
-12.5044
-12.5046
-12.5048
-12.5051
-12.5054
-12.5056
-12.5058
-12.506
-12.5062
-12.5064
-12.5065
-12.5065
-12.5066
-12.5066
-12.5066
-12.5065
-12.5065
-12.5065
-12.5066
-12.5065
-12.5064
-12.5065
-12.5065
-12.9836
-12.9836
-12.9837
-12.9838
-12.9839
-12.984
-12.9842
-12.9843
-12.9844
-12.9846
-12.9848
-12.985
-12.9852
-12.9854
-12.9855
-12.9857
-12.9858
-12.986
-12.9861
-12.9863
-12.9865
-12.9867
-12.9869
-12.9871
-12.9872
-12.9875
-12.9878
-12.9881
-12.9884
-12.9887
-12.989
-12.9894
-12.9898
-12.9901
-12.9903
-12.9905
-12.9907
-12.9908
-12.991
-12.9912
-12.9914
-12.9916
-12.9917
-12.9919
-12.9921
-12.9923
-12.9925
-12.9928
-12.9931
-12.9934
-12.9936
-12.9938
-12.994
-12.9942
-12.9943
-12.9945
-12.9946
-12.9948
-12.995
-12.9952
-12.9955
-12.9958
-12.996
-12.9963
-12.9965
-12.9967
-12.9968
-12.9969
-12.997
-12.9971
-12.9972
-12.9972
-12.9972
-12.9971
-12.9971
-12.9971
-12.9971
-12.9971
-12.9971
-12.9971
-13.4742
-13.4742
-13.4743
-13.4744
-13.4745
-13.4746
-13.4747
-13.4749
-13.475
-13.4752
-13.4754
-13.4755
-13.4757
-13.4759
-13.4761
-13.4763
-13.4764
-13.4765
-13.4767
-13.4768
-13.477
-13.4772
-13.4774
-13.4777
-13.4779
-13.4781
-13.4784
-13.4787
-13.479
-13.4793
-13.4796
-13.48
-13.4803
-13.4806
-13.4808
-13.481
-13.4812
-13.4814
-13.4815
-13.4817
-13.4819
-13.482
-13.4822
-13.4824
-13.4826
-13.4828
-13.4831
-13.4833
-13.4836
-13.4838
-13.4841
-13.4843
-13.4845
-13.4846
-13.4848
-13.4849
-13.4851
-13.4853
-13.4855
-13.4857
-13.4859
-13.4862
-13.4864
-13.4867
-13.4869
-13.4871
-13.4873
-13.4874
-13.4875
-13.4876
-13.4877
-13.4877
-13.4878
-13.4878
-13.4878
-13.4877
-13.4878
-13.4877
-13.4877
-13.4878
-13.9648
-13.9648
-13.9649
-13.9649
-13.965
-13.9652
-13.9653
-13.9655
-13.9656
-13.9658
-13.966
-13.9661
-13.9663
-13.9665
-13.9666
-13.9668
-13.967
-13.9671
-13.9673
-13.9674
-13.9676
-13.9678
-13.968
-13.9683
-13.9685
-13.9688
-13.969
-13.9693
-13.9696
-13.9699
-13.9702
-13.9705
-13.9708
-13.971
-13.9713
-13.9715
-13.9717
-13.9718
-13.972
-13.9722
-13.9723
-13.9725
-13.9727
-13.9729
-13.9731
-13.9733
-13.9736
-13.9738
-13.9741
-13.9743
-13.9745
-13.9747
-13.9749
-13.9751
-13.9753
-13.9754
-13.9756
-13.9758
-13.9759
-13.9761
-13.9763
-13.9766
-13.9768
-13.9771
-13.9773
-13.9775
-13.9777
-13.9779
-13.978
-13.9781
-13.9782
-13.9783
-13.9783
-13.9784
-13.9784
-13.9784
-13.9784
-13.9784
-13.9784
-13.9784
-14.4554
-14.4554
-14.4554
-14.4555
-14.4556
-14.4558
-14.4559
-14.4561
-14.4562
-14.4564
-14.4565
-14.4567
-14.4569
-14.4571
-14.4572
-14.4574
-14.4575
-14.4577
-14.4579
-14.4581
-14.4582
-14.4584
-14.4587
-14.4589
-14.4591
-14.4594
-14.4597
-14.46
-14.4602
-14.4605
-14.4608
-14.4611
-14.4613
-14.4616
-14.4618
-14.4619
-14.4621
-14.4623
-14.4625
-14.4626
-14.4628
-14.463
-14.4632
-14.4634
-14.4636
-14.4638
-14.4641
-14.4643
-14.4646
-14.4648
-14.465
-14.4652
-14.4654
-14.4656
-14.4658
-14.4659
-14.4661
-14.4662
-14.4664
-14.4666
-14.4668
-14.467
-14.4672
-14.4675
-14.4677
-14.4679
-14.4681
-14.4683
-14.4685
-14.4686
-14.4688
-14.4688
-14.4689
-14.469
-14.469
-14.4691
-14.4691
-14.4691
-14.4691
-14.4691
-14.946
-14.946
-14.9461
-14.9461
-14.9463
-14.9464
-14.9465
-14.9467
-14.9468
-14.947
-14.9471
-14.9473
-14.9475
-14.9477
-14.9478
-14.948
-14.9481
-14.9483
-14.9485
-14.9487
-14.9489
-14.9491
-14.9493
-14.9495
-14.9498
-14.95
-14.9503
-14.9506
-14.9509
-14.9511
-14.9514
-14.9516
-14.9519
-14.9521
-14.9522
-14.9524
-14.9526
-14.9527
-14.9529
-14.9531
-14.9532
-14.9534
-14.9536
-14.9538
-14.9541
-14.9543
-14.9546
-14.9548
-14.9551
-14.9553
-14.9555
-14.9557
-14.9559
-14.9561
-14.9563
-14.9564
-14.9566
-14.9567
-14.9569
-14.9571
-14.9573
-14.9575
-14.9577
-14.9579
-14.9581
-14.9583
-14.9586
-14.9588
-14.9589
-14.9591
-14.9593
-14.9594
-14.9595
-14.9596
-14.9596
-14.9597
-14.9597
-14.9597
-14.9597
-14.9597
-15.4366
-15.4366
-15.4367
-15.4368
-15.4369
-15.437
-15.4372
-15.4373
-15.4375
-15.4376
-15.4378
-15.4379
-15.4381
-15.4383
-15.4385
-15.4386
-15.4388
-15.4389
-15.4391
-15.4393
-15.4395
-15.4397
-15.44
-15.4402
-15.4404
-15.4407
-15.441
-15.4412
-15.4415
-15.4418
-15.442
-15.4422
-15.4424
-15.4426
-15.4427
-15.4429
-15.443
-15.4432
-15.4433
-15.4435
-15.4437
-15.4439
-15.4441
-15.4443
-15.4446
-15.4448
-15.4451
-15.4453
-15.4456
-15.4459
-15.4461
-15.4463
-15.4465
-15.4466
-15.4468
-15.447
-15.4471
-15.4472
-15.4474
-15.4476
-15.4477
-15.4479
-15.4481
-15.4483
-15.4486
-15.4488
-15.449
-15.4492
-15.4494
-15.4496
-15.4498
-15.45
-15.4501
-15.4502
-15.4502
-15.4503
-15.4503
-15.4504
-15.4504
-15.4504
-15.9272
-15.9272
-15.9273
-15.9274
-15.9275
-15.9277
-15.9278
-15.9279
-15.9281
-15.9282
-15.9284
-15.9285
-15.9287
-15.9289
-15.9291
-15.9292
-15.9294
-15.9296
-15.9298
-15.93
-15.9302
-15.9304
-15.9306
-15.9309
-15.9311
-15.9314
-15.9316
-15.9319
-15.9321
-15.9324
-15.9326
-15.9328
-15.9329
-15.9331
-15.9332
-15.9333
-15.9335
-15.9336
-15.9337
-15.9339
-15.9341
-15.9343
-15.9345
-15.9348
-15.935
-15.9353
-15.9356
-15.9359
-15.9362
-15.9364
-15.9367
-15.9369
-15.937
-15.9372
-15.9374
-15.9375
-15.9376
-15.9378
-15.9379
-15.9381
-15.9382
-15.9384
-15.9386
-15.9388
-15.939
-15.9392
-15.9395
-15.9397
-15.9399
-15.9401
-15.9403
-15.9405
-15.9406
-15.9408
-15.9408
-15.9409
-15.9409
-15.941
-15.941
-15.941
-16.4179
-16.4179
-16.4179
-16.418
-16.4182
-16.4183
-16.4184
-16.4186
-16.4187
-16.4189
-16.419
-16.4192
-16.4193
-16.4195
-16.4197
-16.4199
-16.42
-16.4202
-16.4204
-16.4206
-16.4209
-16.4211
-16.4213
-16.4216
-16.4218
-16.4221
-16.4223
-16.4226
-16.4228
-16.423
-16.4232
-16.4233
-16.4235
-16.4236
-16.4237
-16.4238
-16.4239
-16.424
-16.4242
-16.4243
-16.4245
-16.4247
-16.425
-16.4253
-16.4255
-16.4258
-16.4261
-16.4264
-16.4267
-16.427
-16.4272
-16.4275
-16.4276
-16.4278
-16.4279
-16.4281
-16.4282
-16.4283
-16.4285
-16.4286
-16.4287
-16.4289
-16.4291
-16.4293
-16.4295
-16.4297
-16.43
-16.4302
-16.4304
-16.4306
-16.4308
-16.431
-16.4312
-16.4313
-16.4314
-16.4315
-16.4315
-16.4316
-16.4316
-16.4316
-16.9085
-16.9085
-16.9086
-16.9087
-16.9088
-16.9089
-16.9091
-16.9092
-16.9093
-16.9095
-16.9096
-16.9098
-16.9099
-16.9101
-16.9103
-16.9105
-16.9107
-16.9109
-16.9111
-16.9113
-16.9115
-16.9118
-16.912
-16.9123
-16.9125
-16.9127
-16.913
-16.9132
-16.9134
-16.9136
-16.9138
-16.9139
-16.914
-16.9141
-16.9142
-16.9142
-16.9143
-16.9144
-16.9146
-16.9148
-16.915
-16.9152
-16.9155
-16.9157
-16.916
-16.9163
-16.9167
-16.917
-16.9173
-16.9175
-16.9178
-16.918
-16.9182
-16.9184
-16.9185
-16.9186
-16.9188
-16.9189
-16.919
-16.9191
-16.9193
-16.9194
-16.9196
-16.9198
-16.92
-16.9202
-16.9205
-16.9207
-16.921
-16.9212
-16.9214
-16.9216
-16.9217
-16.9219
-16.922
-16.9221
-16.9221
-16.9221
-16.9221
-16.9221
-17.3991
-17.3992
-17.3992
-17.3993
-17.3994
-17.3996
-17.3997
-17.3998
-17.4
-17.4001
-17.4003
-17.4004
-17.4006
-17.4007
-17.4009
-17.4011
-17.4013
-17.4015
-17.4018
-17.402
-17.4022
-17.4025
-17.4027
-17.4029
-17.4032
-17.4034
-17.4036
-17.4039
-17.404
-17.4042
-17.4043
-17.4044
-17.4045
-17.4046
-17.4046
-17.4047
-17.4048
-17.4049
-17.405
-17.4052
-17.4054
-17.4057
-17.4059
-17.4063
-17.4066
-17.4069
-17.4072
-17.4076
-17.4079
-17.4081
-17.4084
-17.4086
-17.4088
-17.409
-17.4091
-17.4092
-17.4093
-17.4095
-17.4096
-17.4097
-17.4098
-17.41
-17.4102
-17.4104
-17.4106
-17.4108
-17.411
-17.4113
-17.4115
-17.4117
-17.412
-17.4121
-17.4123
-17.4124
-17.4125
-17.4126
-17.4126
-17.4127
-17.4127
-17.4127
-17.8898
-17.8898
-17.8899
-17.8899
-17.8901
-17.8902
-17.8903
-17.8905
-17.8906
-17.8908
-17.8909
-17.891
-17.8912
-17.8914
-17.8916
-17.8918
-17.892
-17.8922
-17.8924
-17.8926
-17.8929
-17.8931
-17.8934
-17.8936
-17.8938
-17.8941
-17.8943
-17.8945
-17.8947
-17.8948
-17.8949
-17.895
-17.8951
-17.8951
-17.8952
-17.8952
-17.8953
-17.8953
-17.8955
-17.8957
-17.8959
-17.8962
-17.8965
-17.8968
-17.8972
-17.8975
-17.8978
-17.8982
-17.8985
-17.8987
-17.899
-17.8992
-17.8994
-17.8996
-17.8997
-17.8998
-17.8999
-17.9
-17.9002
-17.9003
-17.9004
-17.9006
-17.9007
-17.9009
-17.9011
-17.9014
-17.9016
-17.9018
-17.9021
-17.9023
-17.9025
-17.9027
-17.9029
-17.903
-17.9031
-17.9031
-17.9032
-17.9032
-17.9032
-17.9032
-18.3804
-18.3804
-18.3805
-18.3806
-18.3807
-18.3808
-18.381
-18.3811
-18.3813
-18.3814
-18.3816
-18.3817
-18.3819
-18.382
-18.3822
-18.3824
-18.3826
-18.3828
-18.3831
-18.3833
-18.3835
-18.3838
-18.384
-18.3842
-18.3845
-18.3847
-18.3849
-18.3851
-18.3853
-18.3854
-18.3855
-18.3856
-18.3856
-18.3857
-18.3857
-18.3857
-18.3857
-18.3858
-18.386
-18.3861
-18.3864
-18.3867
-18.387
-18.3874
-18.3878
-18.3881
-18.3885
-18.3888
-18.3891
-18.3894
-18.3896
-18.3898
-18.39
-18.3902
-18.3903
-18.3904
-18.3905
-18.3906
-18.3908
-18.3909
-18.391
-18.3912
-18.3913
-18.3915
-18.3917
-18.392
-18.3922
-18.3925
-18.3927
-18.3929
-18.3931
-18.3933
-18.3934
-18.3935
-18.3936
-18.3937
-18.3937
-18.3937
-18.3937
-18.3937
-18.8711
-18.8711
-18.8712
-18.8712
-18.8714
-18.8715
-18.8716
-18.8718
-18.8719
-18.8721
-18.8722
-18.8724
-18.8725
-18.8727
-18.8729
-18.8731
-18.8733
-18.8735
-18.8737
-18.8739
-18.8742
-18.8744
-18.8746
-18.8749
-18.8751
-18.8754
-18.8756
-18.8758
-18.8759
-18.876
-18.8761
-18.8762
-18.8762
-18.8762
-18.8762
-18.8762
-18.8762
-18.8763
-18.8764
-18.8766
-18.877
-18.8773
-18.8776
-18.878
-18.8784
-18.8788
-18.8791
-18.8794
-18.8797
-18.88
-18.8802
-18.8804
-18.8806
-18.8808
-18.8809
-18.881
-18.8811
-18.8812
-18.8813
-18.8815
-18.8816
-18.8818
-18.882
-18.8822
-18.8824
-18.8826
-18.8828
-18.8831
-18.8833
-18.8835
-18.8837
-18.8839
-18.884
-18.8841
-18.8842
-18.8842
-18.8842
-18.8842
-18.8842
-18.8842
-19.3618
-19.3618
-19.3618
-19.3619
-19.362
-19.3622
-19.3623
-19.3625
-19.3626
-19.3628
-19.3629
-19.3631
-19.3632
-19.3634
-19.3636
-19.3638
-19.364
-19.3641
-19.3644
-19.3646
-19.3648
-19.365
-19.3653
-19.3655
-19.3657
-19.366
-19.3662
-19.3664
-19.3665
-19.3666
-19.3667
-19.3667
-19.3668
-19.3668
-19.3668
-19.3668
-19.3668
-19.3668
-19.3669
-19.3671
-19.3675
-19.3679
-19.3683
-19.3686
-19.369
-19.3694
-19.3697
-19.3701
-19.3703
-19.3706
-19.3708
-19.371
-19.3712
-19.3713
-19.3715
-19.3716
-19.3717
-19.3718
-19.3719
-19.3721
-19.3722
-19.3724
-19.3726
-19.3728
-19.373
-19.3733
-19.3735
-19.3737
-19.3739
-19.3741
-19.3743
-19.3744
-19.3746
-19.3746
-19.3747
-19.3747
-19.3747
-19.3747
-19.3747
-19.3747
-19.8525
-19.8525
-19.8525
-19.8526
-19.8527
-19.8529
-19.853
-19.8532
-19.8533
-19.8535
-19.8536
-19.8538
-19.854
-19.8541
-19.8543
-19.8544
-19.8546
-19.8548
-19.855
-19.8552
-19.8554
-19.8556
-19.8559
-19.8561
-19.8563
-19.8566
-19.8568
-19.857
-19.8571
-19.8572
-19.8573
-19.8573
-19.8573
-19.8574
-19.8574
-19.8574
-19.8573
-19.8573
-19.8574
-19.8576
-19.8581
-19.8586
-19.859
-19.8594
-19.8597
-19.86
-19.8604
-19.8607
-19.8609
-19.8612
-19.8614
-19.8616
-19.8617
-19.8619
-19.862
-19.8621
-19.8622
-19.8624
-19.8625
-19.8627
-19.8629
-19.8631
-19.8633
-19.8635
-19.8637
-19.8639
-19.8642
-19.8644
-19.8646
-19.8648
-19.8649
-19.865
-19.8651
-19.8652
-19.8652
-19.8653
-19.8653
-19.8653
-19.8653
-19.8652
-20.3432
-20.3432
-20.3433
-20.3434
-20.3435
-20.3436
-20.3437
-20.3439
-20.344
-20.3442
-20.3444
-20.3445
-20.3447
-20.3448
-20.345
-20.3451
-20.3453
-20.3454
-20.3456
-20.3458
-20.346
-20.3462
-20.3464
-20.3467
-20.3469
-20.3471
-20.3473
-20.3475
-20.3477
-20.3478
-20.3479
-20.3479
-20.3479
-20.3479
-20.3479
-20.3479
-20.3478
-20.3477
-20.3479
-20.3481
-20.3488
-20.3493
-20.3498
-20.3501
-20.3505
-20.3508
-20.351
-20.3513
-20.3515
-20.3517
-20.3519
-20.3521
-20.3523
-20.3524
-20.3525
-20.3527
-20.3528
-20.3529
-20.3531
-20.3533
-20.3535
-20.3537
-20.3539
-20.3542
-20.3544
-20.3546
-20.3549
-20.3551
-20.3553
-20.3554
-20.3556
-20.3557
-20.3557
-20.3558
-20.3558
-20.3558
-20.3558
-20.3558
-20.3558
-20.3558
-20.834
-20.834
-20.834
-20.8341
-20.8342
-20.8344
-20.8345
-20.8346
-20.8348
-20.8349
-20.8351
-20.8352
-20.8354
-20.8355
-20.8356
-20.8358
-20.8359
-20.8361
-20.8362
-20.8364
-20.8366
-20.8368
-20.837
-20.8372
-20.8375
-20.8377
-20.8379
-20.8381
-20.8382
-20.8383
-20.8384
-20.8385
-20.8385
-20.8385
-20.8385
-20.8385
-20.8385
-20.8384
-20.838
-20.8378
-20.8389
-20.8399
-20.8405
-20.841
-20.8412
-20.8415
-20.8417
-20.8419
-20.8421
-20.8423
-20.8425
-20.8426
-20.8428
-20.8429
-20.843
-20.8432
-20.8433
-20.8435
-20.8437
-20.8439
-20.8441
-20.8443
-20.8446
-20.8448
-20.8451
-20.8453
-20.8455
-20.8457
-20.8459
-20.8461
-20.8462
-20.8463
-20.8463
-20.8463
-20.8464
-20.8463
-20.8463
-20.8463
-20.8463
-20.8463
-21.3248
-21.3248
-21.3248
-21.3249
-21.325
-21.3252
-21.3253
-21.3254
-21.3256
-21.3257
-21.3258
-21.3259
-21.3261
-21.3262
-21.3263
-21.3264
-21.3265
-21.3267
-21.3268
-21.327
-21.3271