/*--------------------------------*- C++ -*----------------------------------*\
| =========                 |                                                 |
| \\      /  F ield         | OpenFOAM: The Open Source CFD Toolbox           |
|  \\    /   O peration     | Version:  2412                                  |
|   \\  /    A nd           | Website:  www.openfoam.com                      |
|    \\/     M anipulation  |                                                 |
\*---------------------------------------------------------------------------*/
FoamFile
{
    version     2.0;
    format      ascii;
    arch        "LSB;label=32;scalar=64";
    class       volScalarField;
    location    "5.8";
    object      alpha.soap;
}
// * * * * * * * * * * * * * * * * * * * * * * * * * * * * * * * * * * * * * //

dimensions      [0 0 0 0 0 0 0];

internalField   nonuniform List<scalar> 
6400
(
1
1
1
1
0.999999
0.999999
0.999999
0.999999
1
1
1
1
1
1
1
1
1
1
1
1
1
1
1
1
1
1
1
1
1
1
1
1
1
1
1
1
1
1
1
1
1
1
1
1
1
1
1
1
0.999999
0.999999
1
1
1
1
1
1
1
1
1
0.999999
1
1
1
0.999999
0.999999
1
1
1
1
0.999999
0.999999
0.999999
0.999999
0.999999
0.999998
0.999998
0.999998
0.999998
0.999999
0.999998
0.999996
0.999999
1
1
0.999999
0.999999
0.999999
0.999999
1
0.999999
0.999999
1
1
1
0.999999
1
1
1
1
1
1
1
1
1
1
1
1
1
1
1
1
1
1
1
1
1
1
1
1
1
1
1
1
1
1
1
1
1
1
1
1
1
1
1
1
1
1
1
1
1
1
1
1
1
1
1
1
0.999999
0.999999
0.999999
1
0.999999
0.999998
0.999997
0.999997
0.999997
0.999998
0.999999
0.999998
1
0.999999
0.999998
0.999999
0.999999
1
1
1
0.999999
0.999999
0.999999
0.999999
0.999999
0.999999
0.999999
1
1
1
1
1
1
1
1
1
1
1
1
1
1
1
1
1
1
0.999999
0.999999
0.999999
1
1
1
1
1
1
1
1
1
1
1
1
1
0.999999
0.999999
0.999999
0.999999
0.999999
1
1
1
1
1
1
1
1
1
1
0.999999
1
1
1
1
1
1
1
1
0.999999
0.999999
0.999999
0.999999
0.999998
0.999998
1
1
0.999999
0.999998
0.999999
1
1
1
1
0.999999
0.999999
0.999999
1
1
1
0.999999
1
1
1
1
1
1
1
1
1
1
1
1
1
1
1
1
1
1
1
1
1
1
1
1
1
1
0.999999
0.999999
0.999999
0.999999
0.999999
0.999999
0.999999
0.999999
0.999999
0.999999
0.999999
0.999999
0.999999
1
1
1
1
0.999999
0.999999
0.999999
0.999998
0.999998
0.999999
0.999999
1
1
0.999999
0.999999
1
1
1
0.999999
0.999999
0.999999
0.999999
1
1
0.999998
1
0.999998
0.999999
1
1
1
1
1
0.999999
0.999999
1
1
1
1
1
1
1
1
0.999999
1
1
1
1
1
1
1
1
1
1
1
1
1
1
1
1
1
1
1
1
1
1
1
0.999999
0.999999
0.999999
0.999999
0.999999
1
1
1
1
1
0.999999
0.999999
1
1
1
1
1
1
1
1
1
1
1
1
1
0.999999
0.999998
0.999999
1
1
0.999999
0.999999
1
1
1
1
1
1
1
1
1
1
1
1
1
1
1
1
1
1
1
1
1
1
1
1
1
1
1
1
1
1
1
1
1
1
1
1
1
1
0.999999
0.999999
1
1
1
1
1
1
1
1
1
1
1
1
1
1
1
1
1
1
1
1
1
1
1
1
1
1
1
1
1
1
1
1
0.999999
0.999998
0.999999
1
1
0.999999
0.999999
1
1
1
1
1
1
1
1
1
1
1
1
1
1
1
1
1
1
1
1
1
1
1
1
1
1
1
1
0.999999
0.999999
0.999999
0.999999
0.999999
0.999999
0.999998
0.999998
0.999998
1
1
1
1
1
1
1
1
1
1
1
1
1
1
1
1
1
1
1
1
1
1
1
1
1
1
1
1
1
1
1
1
1
1
1
0.999999
0.999998
0.999998
0.999999
1
1
1
1
1
1
1
1
1
1
1
1
1
1
1
1
1
1
1
1
1
1
1
1
1
1
1
1
1
0.999999
0.999999
0.999999
1
1
1
1
1
1
1
1
1
1
1
1
1
1
1
1
1
1
1
1
1
1
1
1
1
1
1
1
1
1
1
1
1
1
1
1
0.999999
0.999999
0.999999
0.999999
1
1
0.999999
0.999999
0.999999
0.999999
1
1
1
1
1
1
1
1
1
1
1
1
1
1
1
1
1
1
1
1
1
1
1
1
1
1
1
1
0.999999
0.999999
0.999999
1
1
1
1
1
1
1
1
1
1
1
1
1
1
1
1
1
1
1
1
1
1
1
1
1
1
1
1
1
1
1
1
1
1
1
1
1
1
1
1
1
1
1
1
0.999999
0.999999
0.999999
1
1
1
1
1
1
1
1
1
1
1
1
1
1
1
1
1
1
1
1
1
1
1
1
1
1
1
1
1
1
1
1
1
0.999999
0.999998
0.999999
1
1
1
1
1
1
1
1
1
1
1
1
1
1
1
1
1
1
1
1
1
1
1
1
1
1
1
1
1
1
1
1
1
1
1
1
1
1
1
1
1
1
1
1
1
1
1
1
1
1
1
1
1
1
1
1
1
1
1
1
1
1
1
1
1
1
1
1
1
1
1
1
1
1
1
1
1
0.999998
0.999998
0.999999
0.999999
0.999999
0.999999
0.999999
1
1
1
1
1
1
1
1
1
1
1
1
1
1
1
1
1
1
1
1
1
1
1
1
1
1
1
0.999999
0.999999
0.999999
0.999999
1
1
1
1
1
1
1
1
1
1
1
1
1
0.999999
0.999999
0.999999
0.999999
1
1
1
1
1
1
1
1
1
0.999868
0.998653
1
1
1
1
1
1
1
1
1
1
1
1
1
1
1
0.999999
0.999999
1
1
1
1
1
1
1
1
1
1
1
1
1
1
1
1
1
1
1
1
1
1
1
1
1
1
1
1
1
1
1
1
1
1
1
1
1
1
1
1
1
1
1
1
1
1
0.999999
0.999999
0.999999
0.999999
0.999999
0.999999
0.999999
1
1
1
1
1
1
1
1
0.998861
0.993718
0.994962
1
1
1
1
1
1
1
1
1
0.999999
0.999999
0.999999
1
1
1
1
1
1
1
1
1
1
1
1
1
1
1
1
1
1
1
1
1
1
1
1
1
1
1
1
1
1
1
1
1
1
1
1
1
1
1
1
1
1
1
1
1
1
1
1
1
1
1
1
1
1
1
1
1
1
1
1
1
1
1
0.996665
0.998792
0.998865
0.996027
0.993342
0.99728
1
1
1
0.999999
1
1
1
1
1
1
1
1
1
1
1
1
1
1
1
1
1
1
1
1
1
1
1
1
1
1
1
1
1
1
1
1
1
1
1
1
1
1
1
1
1
1
1
1
1
1
1
1
1
1
1
1
1
1
1
1
1
1
1
1
1
1
1
0.999999
0.999969
0.999984
0.999999
1
1
0.99789
0.994154
0.997953
0.998859
0.998851
0.99783
0.991925
0.998697
1
1
0.999989
1
1
1
1
1
1
1
1
1
1
1
1
1
1
1
1
1
1
1
0.999999
1
1
1
1
1
1
1
1
1
1
1
1
1
1
1
1
1
1
1
1
1
1
1
1
1
1
1
1
1
1
1
1
1
1
1
1
1
1
1
0.999999
0.999999
1
1
1
0.999925
0.999901
0.999998
0.999833
0.998511
0.994216
0.998013
0.99805
0.998851
0.996172
0.995958
0.991184
0.992594
1
0.999899
1
1
1
1
1
1
1
1
1
1
1
1
1
1
1
1
1
1
1
1
0.999999
1
1
1
1
1
1
1
1
1
1
1
1
1
1
1
1
1
0.999999
0.999999
0.999999
1
1
1
1
1
1
1
1
1
1
1
1
1
1
1
1
0.999999
0.999999
0.999999
0.999999
1
1
1
1
1
0.999267
0.999935
0.998118
0.98889
0.988713
0.997754
0.998051
0.996452
0.988564
0.988479
0.991137
0.993042
0.999999
0.999567
0.999994
1
1
1
1
1
1
1
1
1
1
1
1
1
0.999999
0.999999
0.999999
0.999999
0.999999
0.999998
0.999998
0.999999
1
1
1
1
0.999999
0.999999
0.999999
0.999999
0.999999
0.999999
0.999999
0.999999
0.999999
0.999999
0.999999
0.999999
0.999999
0.999999
0.999999
1
1
1
1
0.999999
0.999999
0.999999
0.999999
0.999999
1
1
1
1
1
1
1
1
0.999999
0.999999
0.999999
0.999999
1
1
1
1
0.999333
0.99945
0.996013
0.988713
0.988713
0.989146
0.99805
0.992784
0.985797
0.988322
0.997653
0.998826
0.999721
0.999887
1
1
1
0.999999
0.999999
1
1
1
1
1
1
0.999999
0.999995
0.999988
0.999979
0.999974
0.999972
0.99997
0.999968
0.999967
0.99997
0.999979
0.999989
0.999996
0.999999
1
1
1
1
1
1
1
1
1
1
1
1
1
0.999997
0.999999
0.999998
0.999997
0.999995
0.999991
0.999986
0.999979
0.999973
0.999971
0.999973
0.999979
0.999987
0.999992
0.999994
0.999998
0.999999
1
1
1
0.999999
0.999999
0.999999
0.999999
1
1
1
1
0.999857
0.998789
0.997457
0.99301
0.988927
0.989018
0.996464
0.999471
0.998988
0.998637
0.999963
0.999991
0.999999
1
1
1
1
1
1
1
1
1
1
0.999999
0.999841
0.999698
0.999467
0.999427
0.999459
0.999378
0.999349
0.999336
0.999332
0.999348
0.999424
0.99956
0.999728
0.999874
0.999962
0.999994
1
1
1
1
1
1
1
1
1
1
1
1
0.999998
0.999988
0.999943
0.999869
0.999788
0.999701
0.999603
0.999505
0.999429
0.999403
0.999428
0.999494
0.999578
0.999657
0.999764
0.999872
0.999951
0.99999
0.999999
0.999999
0.999999
1
1
1
1
1
1
1
1
0.999986
0.999894
0.999833
0.999069
0.999266
0.995419
0.999879
0.999911
0.999952
0.999963
0.999973
0.991542
0.956431
0.935497
0.906618
0.887981
0.860788
0.8096
0.752736
0.707081
0.676274
0.654555
0.641402
0.628851
0.608835
0.592933
0.600076
0.63497
0.667873
0.689643
0.703067
0.712284
0.720904
0.735212
0.755252
0.787143
0.83298
0.889396
0.945764
0.999037
0.999999
1
1
1
1
1
1
1
1
1
0.986264
0.913511
0.848795
0.802848
0.771838
0.7585
0.754388
0.750465
0.744313
0.735919
0.728327
0.720542
0.710607
0.699285
0.686025
0.671514
0.666921
0.694996
0.74951
0.796962
0.804981
0.813099
0.831666
0.851669
0.867477
0.87951
0.893247
0.913268
0.933156
0.96076
0.998069
0.9999
0.999901
0.99988
0.999654
0.992831
0.668307
0.640971
0.604003
0.547786
0.477859
0.377307
0.311535
0.25948
0.227489
0.199533
0.150452
0.0965186
0.0552295
0.0288528
0.0146343
0.00509277
8.96257e-05
4.91202e-05
2.31254e-05
7.22884e-06
8.98419e-06
1.93967e-05
0.0153266
0.0313372
0.0373751
0.039361
0.0409731
0.0451548
0.0529603
0.0688478
0.0984517
0.149718
0.219644
0.308978
0.485595
0.681989
0.821336
0.906785
0.933371
0.932395
0.895129
0.806636
0.669051
0.480898
0.286313
0.169368
0.110312
0.0793911
0.0607315
0.0534444
0.0523896
0.051748
0.049739
0.0456691
0.0416366
0.0370611
0.0314169
0.0239777
0.0121281
0.0017551
1.10984e-05
0.00383567
0.0216143
0.0441957
0.0712322
0.0994413
0.12156
0.143174
0.164579
0.185266
0.204029
0.218082
0.232789
0.258956
0.32253
0.422716
0.482255
0.518373
0.538933
0.590371
0.0582604
0.0394982
0.0212136
0.00665248
0.00228237
0.000286749
0.000165643
0.00017681
0.000238741
0.000276833
0.000222433
0.000133495
0.000129967
0.000155815
8.47248e-05
6.50626e-05
5.48011e-05
5.26373e-05
3.05353e-05
2.61075e-06
5.28609e-06
8.2525e-06
1.13654e-05
9.39075e-06
8.73614e-06
8.57799e-06
8.5136e-06
8.49898e-06
8.5136e-06
8.49496e-06
8.5726e-06
8.61967e-06
0.000181328
0.00974732
0.0193265
0.0763937
0.185608
0.291958
0.329557
0.304362
0.218685
0.11524
0.0412072
0.00713842
0.000874607
2.89527e-06
6.51373e-06
6.51316e-06
6.51598e-06
6.54732e-06
6.67432e-06
6.88038e-06
7.07818e-06
7.35499e-06
7.81724e-06
8.47578e-06
9.4317e-06
8.93374e-06
5.77524e-06
1.81799e-06
2.40331e-06
9.72669e-06
2.905e-05
3.14042e-05
0.000101631
2.22447e-05
7.24592e-05
0.000122633
0.000213559
0.00039185
0.000455063
0.000394623
0.000291176
0.000228481
0.000208967
0.000209485
0.00092875
0.00630683
0.0156975
0.0246269
0.00013918
0.000151397
0.000141017
9.02281e-05
5.84552e-05
4.40314e-05
2.82558e-05
2.4425e-05
3.58126e-05
8.0048e-05
0.000152096
0.000130065
0.000126037
0.000124237
0.000100133
6.60185e-05
4.3157e-05
7.70702e-06
3.81742e-08
2.16059e-08
9.76533e-07
2.97204e-05
0.000203981
0.000267674
9.98726e-05
8.73614e-06
8.57796e-06
8.5136e-06
8.51244e-06
1.00874e-05
8.63495e-06
8.95707e-06
3.9353e-05
0.000169617
0.00180574
0.00132659
0.000571746
0.00105132
0.00170459
0.00204694
0.00200548
0.0016555
0.00107628
0.000414471
5.70991e-05
6.30407e-06
6.51173e-06
6.51533e-06
6.54667e-06
9.69618e-06
1.05144e-05
7.53253e-06
7.35499e-06
8.69876e-06
1.54464e-05
7.23167e-05
0.000138676
6.77974e-05
3.94337e-06
9.03546e-07
2.26955e-07
8.64645e-06
3.40297e-05
1.73404e-05
2.89198e-07
7.15914e-06
5.47929e-05
4.2118e-06
2.54893e-05
0.000184665
0.00030031
0.000291102
0.000229712
0.000209011
0.00020949
0.000208687
0.000229158
0.0001936
9.69464e-05
7.12978e-05
6.1971e-05
6.37396e-05
5.50387e-05
3.07536e-05
2.31647e-05
2.16006e-05
1.86623e-05
1.87939e-05
3.25844e-05
0.000107098
0.000191321
0.000163202
0.000138834
5.8516e-05
7.1468e-06
6.42123e-08
1.4838e-08
1.27982e-08
1.42733e-08
1.56247e-08
1.59201e-08
9.15154e-05
0.000268707
0.000277923
0.000289533
0.00027306
5.80735e-05
9.09806e-06
8.6238e-06
5.60812e-05
2.17011e-05
1.96562e-05
0.000109581
0.000283232
0.000436277
0.000350087
0.000161179
0.000255893
0.000399612
0.000505509
0.000491475
0.000526047
0.000335652
6.9334e-05
1.72896e-05
1.53752e-05
6.51533e-06
8.97188e-06
0.00012652
0.00019374
0.000121425
1.50969e-05
4.2541e-05
9.47086e-05
0.000139413
0.000170537
0.000160358
0.000146205
2.1683e-05
2.26961e-07
2.25724e-07
2.23816e-07
2.17619e-07
2.13607e-07
2.12641e-07
2.11051e-07
2.31739e-07
2.9354e-07
1.46345e-05
0.000186626
0.000310137
0.000338327
0.000325718
0.000225524
0.000221267
0.00027418
0.000261332
0.000239492
4.29428e-05
4.54837e-05
3.62247e-05
3.1412e-05
2.49426e-05
2.02829e-05
1.95364e-05
1.84e-05
1.78449e-05
1.77246e-05
3.38994e-05
0.000171979
0.000193892
0.000199826
5.05297e-05
5.29915e-07
6.57161e-08
1.48004e-08
1.14893e-08
1.20272e-08
1.27982e-08
1.46255e-08
1.56247e-08
1.59201e-08
0.000100041
0.000290421
0.0002968
0.000298753
0.00024476
3.51943e-05
1.28642e-05
5.91481e-05
7.55734e-05
9.30296e-05
0.000106117
9.12115e-05
0.00012298
0.000115891
9.98013e-05
0.000198035
0.000352015
0.000428777
0.000395855
0.000445097
0.000291711
5.49717e-05
4.86451e-05
1.66306e-05
1.37972e-05
0.000138462
0.00019374
0.00019374
0.00019374
0.000193426
0.000193111
0.000193111
0.000192777
0.000189158
0.000100338
4.6471e-06
7.38939e-07
2.88955e-07
2.24538e-07
2.17619e-07
2.13607e-07
2.12831e-07
2.12831e-07
2.12831e-07
2.15791e-07
2.32001e-07
4.03707e-07
6.23119e-07
7.51169e-07
0.000112326
0.000267807
0.000289056
0.000289056
0.000279327
0.000199737
0.000177816
2.47201e-05
1.97018e-05
3.84919e-05
2.47541e-05
2.06998e-05
1.92916e-05
1.8283e-05
1.78449e-05
1.77246e-05
1.77117e-05
1.85495e-05
0.000201118
0.000199751
0.000172345
6.73087e-06
7.29476e-08
1.47712e-08
1.14996e-08
1.14998e-08
1.1498e-08
1.20132e-08
1.41496e-08
1.59201e-08
2.20971e-08
0.000207915
0.000297954
0.000299787
0.000299512
0.000298658
0.000128724
4.90358e-05
5.85335e-05
4.27093e-05
2.06948e-05
1.79425e-05
1.57804e-05
3.79336e-05
4.55214e-05
6.95811e-05
0.000210343
0.000447677
0.000403412
0.000397036
0.000540463
0.000264969
2.3987e-05
1.53916e-05
1.62614e-05
1.8901e-05
0.000100992
0.000192194
0.000160676
3.54196e-05
1.89489e-05
1.69473e-05
1.66849e-05
2.63976e-05
2.43047e-05
5.91036e-06
1.39521e-06
4.63946e-07
3.04323e-07
2.36001e-07
2.25471e-07
2.17229e-07
2.12298e-07
2.11719e-07
2.14743e-07
2.33726e-07
3.50321e-07
9.63237e-07
7.69089e-07
6.86208e-07
7.51227e-07
1.34414e-06
0.000137707
0.000202171
3.27169e-05
1.16618e-05
2.10694e-05
2.09381e-05
1.65548e-05
0.000114995
4.41615e-05
1.92891e-05
1.83116e-05
1.7879e-05
1.77299e-05
1.77069e-05
1.77197e-05
0.000118185
0.000202991
0.000201139
3.80555e-05
2.56183e-07
2.22558e-08
1.18668e-08
1.16139e-08
1.14816e-08
1.48467e-08
1.5365e-07
3.40026e-08
2.20972e-08
0.000118934
0.000298543
0.000300227
0.000300303
0.000299787
0.00029948
9.1621e-05
2.87525e-05
5.67891e-05
3.86727e-06
3.32683e-06
4.07058e-06
8.15045e-06
1.10752e-05
0.000145464
0.000209364
0.000210826
9.34136e-05
4.99397e-05
0.000177795
0.000538128
0.000231793
8.51205e-06
9.83604e-06
1.44488e-05
3.17656e-05
2.22423e-05
1.22366e-05
6.78608e-06
2.91452e-07
2.09156e-07
2.02686e-07
2.31434e-07
2.60347e-07
2.68083e-07
2.64806e-07
3.54887e-07
6.35579e-07
4.63894e-07
3.4873e-07
3.1192e-07
2.90102e-07
2.50016e-07
2.32907e-07
2.42977e-07
2.79118e-07
9.05011e-07
9.54493e-07
6.63779e-07
6.63779e-07
6.86208e-07
1.26961e-06
2.2981e-06
6.41036e-06
1.07426e-05
1.16618e-05
1.16618e-05
1.30746e-05
1.48496e-05
0.000142331
0.000116558
2.03242e-05
1.80794e-05
1.77916e-05
1.77337e-05
1.77299e-05
8.30309e-05
0.000202991
0.000203205
0.000203012
3.50063e-05
1.88762e-07
1.96421e-08
1.27865e-08
1.19623e-08
1.16139e-08
3.25794e-08
3.27106e-07
2.35746e-07
1.04694e-07
0.000213709
0.000300227
0.000300303
0.000300227
0.000300227
0.000140955
3.32658e-05
3.27539e-06
1.2403e-05
2.32903e-06
2.74133e-06
3.32762e-06
4.07113e-06
0.000153283
0.000206746
0.000207173
0.000126413
4.2287e-05
4.2429e-05
0.000198559
0.000522125
0.000242086
5.7826e-06
8.0421e-06
1.58932e-05
3.03109e-05
1.28405e-05
4.62809e-07
2.59013e-07
1.96759e-07
1.97021e-07
2.00343e-07
2.03403e-07
2.31743e-07
2.59473e-07
5.88584e-07
9.33484e-06
2.52314e-05
3.52754e-05
1.83188e-05
3.21309e-06
6.71307e-07
5.6875e-07
5.08014e-07
4.24311e-07
4.3008e-07
8.25745e-07
7.18252e-07
6.63779e-07
6.86208e-07
7.60614e-07
8.3814e-06
6.07868e-05
8.58064e-05
4.429e-05
1.16618e-05
1.5157e-05
2.34694e-05
1.95115e-05
0.00014077
9.75842e-05
1.85913e-05
1.79315e-05
1.78174e-05
1.77916e-05
2.92406e-05
0.000194856
0.000203205
0.000202991
0.000190964
1.30585e-05
1.19068e-07
1.5424e-08
1.10646e-08
2.00372e-08
1.35108e-08
3.08858e-08
1.95537e-07
2.53893e-07
1.16206e-06
0.000172338
0.000298543
0.000300227
0.000212424
0.000100071
2.36105e-05
2.5097e-06
1.56772e-06
1.89561e-06
2.22406e-06
2.3384e-06
3.56562e-06
0.000133035
0.00020503
0.000205031
0.000152149
4.1071e-05
4.19299e-05
4.40838e-05
0.000206133
0.000494174
0.000148396
4.35544e-06
6.81971e-06
2.51724e-05
2.68899e-05
1.57291e-05
2.59013e-07
1.9676e-07
1.9676e-07
1.9676e-07
1.97021e-07
2.28703e-07
3.84094e-07
7.80205e-07
3.75072e-06
4.88917e-05
9.90302e-05
0.000102039
0.00010543
5.28155e-05
2.81545e-06
2.4509e-06
2.15573e-06
1.51148e-06
1.0246e-06
1.14184e-06
8.69914e-07
7.04964e-07
7.60609e-07
8.51537e-07
7.82736e-06
0.000125822
0.000136023
0.000136135
7.15706e-05
1.66206e-05
2.34894e-05
2.55065e-05
0.000272151
0.000111766
1.80878e-05
1.79145e-05
1.7857e-05
4.36572e-05
0.00018591
0.000197141
0.00020141
0.000202991
0.000157506
1.14867e-05
9.43024e-08
7.85679e-09
7.58384e-09
5.80131e-08
2.44572e-08
6.01169e-08
1.71282e-07
3.20432e-07
7.01053e-07
2.5754e-05
0.000130632
0.000201945
0.00015126
6.34186e-05
4.0741e-05
1.55271e-06
1.30594e-06
1.46422e-06
1.89333e-06
2.2207e-06
4.84686e-05
0.000205158
0.000205094
0.000200473
3.22648e-05
3.67706e-05
6.97972e-05
7.70194e-05
8.10943e-05
8.58848e-05
2.99408e-05
3.53312e-06
6.29498e-06
2.39938e-05
2.51724e-05
6.66863e-06
4.45339e-07
2.59013e-07
1.9676e-07
3.65631e-06
8.26877e-06
4.83101e-06
1.29693e-06
5.02319e-06
6.25362e-05
9.90302e-05
0.000101231
0.000104623
0.000106741
0.000106709
8.96043e-05
8.45087e-05
7.07737e-05
2.36581e-05
3.88514e-06
2.80798e-06
2.00195e-06
1.02601e-06
8.51169e-07
1.85043e-06
2.48987e-06
3.52541e-05
0.000136135
0.000136135
0.000136135
9.84444e-05
2.34462e-05
2.59604e-05
0.00032066
8.28707e-05
1.79793e-05
1.7897e-05
1.79016e-05
8.12552e-05
0.000181126
0.000141497
0.000118523
0.000199982
8.50234e-05
7.70799e-06
4.8834e-08
7.06405e-09
6.13606e-09
5.63021e-08
3.59851e-07
1.56608e-07
3.02178e-07
5.42587e-07
5.82277e-07
2.87116e-06
7.89015e-05
0.000151497
0.000157417
0.000136887
9.01935e-05
1.30595e-06
1.25507e-06
1.30594e-06
1.45811e-06
5.07621e-06
0.000134216
0.000205158
0.000205158
8.18275e-05
2.72653e-05
6.9569e-05
7.09724e-05
7.06215e-05
1.42918e-05
4.40795e-06
3.51549e-06
3.20429e-06
3.96372e-06
1.01755e-05
1.0528e-05
1.24972e-06
5.57542e-07
1.52225e-06
3.28256e-05
5.26161e-05
2.29418e-05
5.51649e-06
4.20004e-06
6.73162e-06
2.84631e-05
8.52349e-05
9.05548e-05
6.17807e-05
6.85172e-05
7.52799e-05
0.000216713
0.000261848
0.000261522
0.000206203
6.58879e-05
3.98839e-05
4.30908e-05
9.59356e-06
1.2889e-06
2.89398e-06
3.59972e-06
2.00099e-06
2.27558e-05
0.000127025
0.000134429
0.000131259
0.000102425
2.73288e-05
0.000322637
0.000151961
1.79593e-05
1.79016e-05
1.78974e-05
2.17421e-05
2.85849e-05
3.43061e-05
0.000109526
8.7747e-05
1.5861e-05
1.00409e-07
9.99106e-09
6.1174e-09
6.13698e-09
4.49068e-08
2.27064e-06
2.48796e-06
4.14422e-06
5.55122e-07
3.43533e-07
1.71304e-06
3.85441e-05
6.9712e-05
0.000103162
0.000141272
0.000138732
1.80755e-05
1.26885e-06
1.26885e-06
1.33987e-06
9.6833e-06
0.000185459
0.000205158
0.000170115
1.16972e-05
1.23492e-05
6.4911e-05
6.92134e-05
6.69527e-05
1.45665e-05
3.78758e-06
3.20182e-06
3.11958e-06
3.07811e-06
2.80091e-06
2.54765e-06
2.25115e-06
1.24972e-06
5.80098e-06
4.88664e-05
5.19534e-05
2.34578e-05
6.46214e-06
6.46217e-06
6.74756e-06
1.0194e-05
1.84056e-05
3.98422e-05
5.61924e-05
6.32897e-05
8.04796e-05
0.000209348
0.000261862
0.000261848
0.000261624
0.000243024
0.000124962
0.000131816
9.56452e-05
2.79193e-05
2.11762e-06
1.84342e-06
1.93541e-06
1.92543e-07
1.61798e-07
7.59192e-05
0.00011766
0.00011664
0.000114131
0.000322637
0.000322637
0.000168485
0.000107612
3.47566e-05
2.45535e-05
7.45675e-05
0.000114966
0.000113963
5.382e-05
2.06425e-07
2.1413e-07
2.01444e-07
1.50777e-08
6.13698e-09
6.23577e-09
5.29957e-06
5.10372e-05
6.01913e-05
3.43533e-07
3.13161e-07
4.13599e-07
2.96944e-06
5.93839e-06
7.67162e-05
0.000139554
0.000139486
0.000121568
1.26885e-06
1.2476e-06
1.32001e-06
1.12913e-05
0.000179635
0.000202807
2.44712e-05
1.04842e-05
1.10994e-05
1.23484e-05
3.36186e-05
8.19001e-05
3.08598e-05
3.20431e-06
3.11984e-06
3.07811e-06
2.98796e-06
2.86503e-06
2.6782e-06
2.54853e-06
2.38082e-06
3.22192e-06
9.13492e-06
5.01936e-05
0.000148319
0.000111
1.62663e-05
3.45331e-05
0.000112168
0.000179752
0.000230152
0.00024942
0.000226899
0.000235478
0.000262089
0.00026203
0.000261862
0.000261782
0.000261557
0.000183165
0.00016122
0.000144581
0.000113514
2.2111e-05
9.04816e-07
6.86817e-07
7.15083e-07
1.36636e-07
1.22707e-07
1.25147e-07
3.97489e-05
9.25121e-05
0.000322637
0.000240841
0.000267356
0.000267356
0.000267356
0.000266583
0.000177994
5.82137e-05
4.17471e-07
2.37936e-08
1.93127e-07
2.92988e-07
2.47955e-07
1.57995e-08
5.39016e-09
7.22608e-09
1.18484e-05
7.32813e-05
7.35418e-05
4.57385e-05
3.13161e-07
3.11173e-07
4.05834e-07
4.3326e-06
0.000104069
0.000139486
0.00013956
0.000138881
2.26081e-05
1.18503e-06
1.2476e-06
2.57211e-05
0.000162107
0.00012417
1.04869e-05
1.02513e-05
1.04869e-05
1.10992e-05
4.33529e-05
9.15363e-05
2.17814e-05
4.33845e-06
3.08485e-06
3.04251e-06
2.98413e-06
2.93559e-06
2.86503e-06
2.6782e-06
2.88002e-06
3.39876e-06
5.58474e-06
6.53086e-05
0.000223574
0.000232525
0.000241017
0.000243349
0.000246994
0.000252548
0.000256502
0.000259258
0.00026084
0.000261908
0.000262041
0.000261872
0.000261781
0.000261557
0.000261132
0.000238124
0.000115022
0.000114705
0.000120071
0.000104099
1.02375e-05
4.87357e-07
3.72766e-07
3.0142e-07
1.18957e-07
1.2338e-07
1.37307e-07
3.08839e-06
0.000313927
1.20092e-05
1.8496e-05
1.00281e-05
7.22376e-06
2.52576e-07
2.96551e-08
2.58881e-08
2.37936e-08
2.31302e-08
1.93512e-07
1.82215e-07
2.91337e-09
8.71691e-10
8.45664e-10
3.73945e-09
9.5976e-06
7.35418e-05
7.35418e-05
7.29712e-05
4.43511e-06
3.354e-06
1.16407e-06
1.29925e-05
0.000134905
0.000139579
9.25007e-05
3.30122e-05
3.57923e-05
1.15888e-06
1.18503e-06
2.50149e-05
8.70409e-05
1.8775e-05
1.02513e-05
1.01234e-05
1.02513e-05
4.3939e-05
0.000107055
0.000107004
9.87432e-05
1.99259e-05
7.98681e-05
0.000133209
0.00010599
3.08184e-05
6.21352e-06
2.87836e-06
3.08674e-06
3.71526e-06
2.65135e-05
0.000205353
0.000215111
0.000176297
7.74429e-05
8.51181e-05
0.000115144
0.0001445
0.000218475
0.000256521
0.000259341
0.000260799
0.000261557
0.000261766
0.000261346
0.000261144
0.000260929
0.000259091
0.000126262
3.74668e-05
0.000114617
0.000114088
6.80113e-05
1.88e-06
1.51204e-07
1.18757e-07
1.18957e-07
6.21412e-07
2.55058e-07
2.82804e-07
0.000163486
1.12917e-05
1.00825e-05
9.76576e-06
8.82857e-06
4.8026e-06
4.20191e-07
8.61817e-07
5.29812e-07
2.26008e-08
6.63345e-08
2.12498e-08
7.75544e-10
8.31911e-10
3.13576e-10
8.54311e-10
2.34473e-08
2.8117e-05
7.35418e-05
6.32224e-05
2.54842e-06
2.40726e-06
1.64907e-06
1.08672e-05
0.000115457
0.000137024
5.26598e-05
7.04451e-06
5.64026e-06
1.15888e-06
1.15888e-06
3.39101e-06
1.95639e-05
4.49358e-05
2.35638e-05
1.0077e-05
1.01234e-05
5.73772e-05
0.000107004
0.000105177
6.37284e-05
0.000173972
0.000206429
0.000209677
0.000209359
0.000204759
8.55854e-05
3.0853e-06
3.74171e-06
4.29121e-06
9.96989e-06
0.000199023
0.000206561
2.17447e-05
1.51827e-05
1.52418e-05
1.50974e-05
1.54387e-05
1.68058e-05
9.42793e-05
0.000233695
0.000261002
0.000260949
0.000261261
0.000260718
0.000261742
0.000263603
0.000257875
7.36992e-05
2.38035e-05
0.000107503
0.000114236
0.000113922
2.29136e-05
2.56086e-07
1.27073e-07
1.88581e-07
1.13854e-06
1.01527e-06
3.05539e-07
0.000145964
1.19379e-05
2.28452e-05
9.83824e-06
6.29039e-06
3.27534e-06
4.251e-07
1.11138e-06
5.27887e-07
6.2046e-11
6.20399e-11
6.95212e-11
9.85441e-10
7.48308e-10
1.25067e-10
1.89271e-10
4.06294e-09
2.25419e-06
6.56064e-05
7.83931e-05
4.11197e-05
7.93631e-07
6.94893e-07
2.90468e-06
3.25371e-05
9.76441e-05
8.04988e-05
1.01894e-05
1.24777e-06
1.15888e-06
5.00279e-06
4.30363e-06
5.58722e-06
6.58622e-05
6.43036e-05
1.00699e-05
1.09429e-05
9.9308e-05
0.000107069
2.27542e-05
3.43589e-06
0.000106698
0.000209677
0.000209865
0.000210066
0.000209661
0.000207876
0.000120913
1.03656e-05
1.14113e-05
0.000103288
0.000101038
4.89579e-05
1.66379e-05
1.58583e-05
1.51489e-05
1.54387e-05
1.6455e-05
2.30051e-05
2.87787e-05
5.60956e-05
0.000236968
0.000261687
0.000260712
0.000265793
0.000258175
0.000224099
8.87081e-05
2.34969e-05
2.24823e-05
8.85994e-05
0.000113922
0.000113013
4.95044e-05
2.80581e-07
6.31857e-08
4.36795e-08
7.24971e-07
2.72868e-06
1.24548e-06
0.000149247
3.07741e-05
3.30125e-05
2.63031e-06
1.35537e-09
1.9628e-09
5.37229e-07
8.34951e-07
3.38646e-11
1.01047e-10
5.7171e-10
1.77203e-09
2.57947e-09
1.13388e-09
9.32027e-11
2.13629e-11
2.91197e-10
6.59991e-09
5.32373e-06
7.8303e-05
9.12131e-05
3.80837e-05
7.28715e-07
6.96195e-07
9.49216e-07
6.06081e-06
5.49147e-05
8.70824e-05
1.71617e-06
1.24777e-06
1.67294e-05
7.64287e-05
1.21024e-05
6.57988e-05
3.27663e-05
1.007e-05
1.4345e-05
9.7519e-05
6.86732e-05
2.17639e-07
2.31857e-07
7.37053e-06
3.80268e-05
0.000133443
0.000209661
0.000209924
0.000209661
0.000207876
0.000185089
0.000183367
0.000202181
0.000194326
3.14927e-05
1.9877e-05
2.48944e-05
4.64504e-05
0.000102537
0.000111464
3.88963e-05
3.04656e-05
4.89896e-05
0.000238906
0.000264456
0.00026094
9.83766e-05
4.57228e-05
2.8512e-05
2.35059e-05
2.24823e-05
2.24196e-05
5.10263e-05
0.000112255
0.000113501
4.71447e-05
2.61695e-07
4.36675e-08
2.53491e-08
6.31725e-08
3.45706e-06
2.0134e-06
7.98771e-05
9.86276e-05
3.21039e-05
8.01397e-10
1.23235e-09
1.09145e-08
5.38938e-09
2.53111e-11
3.29864e-11
4.73492e-10
2.035e-09
3.00744e-09
2.99965e-09
1.30761e-09
7.18625e-11
1.1041e-11
1.04053e-11
9.58974e-11
1.61012e-09
1.42723e-06
9.25202e-05
0.000106738
7.7102e-05
1.05631e-05
1.82587e-06
2.34061e-06
1.28133e-05
8.69427e-05
1.98098e-06
1.6919e-06
2.45981e-05
0.000150543
4.27815e-05
5.93176e-05
1.03327e-05
1.007e-05
8.44522e-05
9.66989e-05
3.95869e-06
1.29889e-07
1.27707e-07
1.47979e-07
2.17857e-07
2.91555e-06
4.6997e-05
0.000146789
0.000207878
0.000207157
0.000206924
0.000203619
0.000204756
0.000205083
0.000182113
0.000163824
0.000205445
0.000205698
0.000205869
0.000205712
0.000185145
4.30936e-05
0.000173291
0.000264879
0.000267687
0.000263377
5.72925e-05
3.28475e-05
2.54622e-05
2.29632e-05
2.24196e-05
2.24196e-05
2.24196e-05
0.000110232
9.40052e-05
1.15658e-05
1.16123e-07
2.53426e-08
1.92941e-08
1.94416e-08
3.42541e-06
2.2478e-06
7.93797e-05
9.93899e-05
1.79038e-05
8.0516e-10
8.15938e-10
1.31551e-09
2.44015e-11
2.43994e-11
5.55354e-11
6.82816e-10
2.36462e-09
3.00744e-09
2.79456e-09
9.71683e-10
6.97956e-11
1.08873e-11
9.66084e-12
1.20818e-11
9.38883e-11
1.62385e-09
2.97983e-08
2.36319e-05
8.89968e-05
8.99572e-05
5.92316e-05
3.09481e-06
4.11883e-06
8.47863e-05
5.99197e-05
2.32531e-06
0.000116156
0.000151836
0.000147526
2.29309e-05
1.26583e-05
3.3406e-05
8.6906e-05
6.14794e-05
1.29892e-07
1.22875e-07
1.2241e-07
1.27711e-07
1.48002e-07
2.18021e-07
5.09831e-07
4.42335e-06
6.44048e-05
8.51535e-05
0.000203801
0.000204759
0.000205132
0.000205232
0.000205649
0.000205649
0.000205649
0.000205439
0.000205695
0.000205882
0.000204931
0.000108448
0.000211645
0.000266051
0.000283755
0.000306193
0.000195214
3.87232e-05
2.72403e-05
2.34525e-05
2.25021e-05
2.24196e-05
2.25021e-05
0.000118595
6.34898e-05
1.10632e-06
6.49987e-08
2.22604e-08
2.02648e-08
1.94416e-08
3.54295e-06
2.95036e-06
0.000100263
9.97048e-05
1.34578e-05
8.03733e-10
7.96007e-09
1.32785e-08
2.43994e-11
9.50715e-11
6.5015e-11
3.63263e-10
1.42019e-09
2.14261e-09
1.44794e-09
3.34507e-10
7.01144e-11
1.63894e-11
9.2588e-12
7.07874e-12
1.40292e-11
1.29678e-10
2.00583e-09
3.2392e-08
1.95968e-05
8.76653e-05
0.000103596
7.71671e-05
5.61055e-06
0.000108935
0.000188698
9.15648e-06
0.000151836
0.000151836
0.000151836
1.96304e-05
3.34338e-05
7.69383e-05
8.05942e-05
3.84456e-06
1.22875e-07
1.2241e-07
1.22296e-07
1.26972e-06
2.80869e-06
2.29298e-06
1.97339e-06
2.06579e-06
6.87288e-07
6.33352e-07
2.00215e-05
4.93057e-05
4.84637e-05
8.83413e-05
0.0002033
0.00020518
0.000202724
0.000205042
0.000205096
0.000204929
0.000196087
0.000156101
0.000139305
0.000146165
0.000290113
0.000313966
0.000309619
0.000115158
2.9072e-05
2.40921e-05
2.27182e-05
2.25021e-05
2.35704e-05
0.00013392
7.85142e-05
1.782e-06
6.75737e-08
2.06745e-08
1.79123e-08
7.31981e-07
3.61818e-06
3.59972e-06
8.72956e-05
1.98313e-05
9.54182e-06
7.81662e-10
1.90736e-08
1.90591e-08
2.57249e-11
5.20718e-10
7.34315e-11
5.82589e-11
2.45235e-10
3.27454e-10
3.19254e-10
1.5546e-10
7.2567e-11
3.00676e-11
1.04564e-11
6.54988e-12
7.06761e-12
1.67886e-11
1.60249e-10
2.46963e-09
3.51375e-08
1.14456e-05
8.21235e-05
0.000133622
7.47721e-05
0.00018781
0.000187953
1.29295e-05
0.000151582
0.000151836
0.000127218
1.73064e-05
3.07693e-05
2.54835e-05
6.85326e-06
1.44924e-07
1.22926e-07
1.22274e-07
1.22303e-07
1.9429e-06
9.51148e-06
9.83926e-06
9.67818e-06
3.4491e-06
4.18784e-07
4.76894e-07
2.43388e-07
2.59652e-07
7.65526e-07
5.35696e-06
5.09754e-06
5.42684e-06
1.38536e-05
9.96011e-05
0.000196472
0.000145197
0.000113412
0.000122168
0.000127134
0.000247969
0.000316487
0.00031778
0.000319095
0.000181478
3.08769e-05
2.45119e-05
2.29643e-05
2.27176e-05
3.20909e-05
0.000145734
0.000106041
6.09758e-06
8.61938e-08
1.7912e-08
1.30876e-08
7.04916e-07
3.61512e-06
2.26859e-06
2.18458e-05
3.60237e-06
8.76466e-06
5.87695e-10
1.85052e-08
1.82096e-08
3.40835e-11
1.15244e-09
1.45183e-10
3.20028e-12
1.4536e-11
2.20382e-11
4.76089e-11
7.65593e-11
7.70764e-11
3.98674e-11
1.44064e-11
5.99764e-12
9.72167e-12
2.47169e-11
3.84849e-11
2.73655e-10
3.63456e-09
4.63385e-08
7.94557e-06
0.000124624
0.000188634
0.000189268
0.000188325
1.70862e-05
0.000149225
0.000145635
2.59955e-05
1.52734e-05
1.01749e-05
2.08512e-06
3.21682e-07
1.36796e-07
1.23226e-07
1.22303e-07
1.22293e-07
2.7544e-06
9.83926e-06
9.85583e-06
9.83926e-06
2.48845e-06
2.36101e-07
2.00291e-07
2.28474e-07
2.43388e-07
4.6979e-07
4.29838e-06
3.61715e-06
2.75473e-06
3.54075e-06
4.88429e-06
1.32539e-05
3.39188e-05
9.36641e-05
0.000178963
0.000314765
0.000317853
0.000317905
0.000318617
0.000319585
0.000258619
4.5111e-05
2.49855e-05
2.31878e-05
2.29643e-05
4.84879e-05
0.000154994
0.000113791
6.52224e-06
8.36365e-08
1.30632e-08
7.94739e-09
9.53444e-08
3.18785e-06
1.05894e-06
1.41934e-05
2.52343e-07
5.91817e-07
5.59863e-10
3.6741e-09
7.45413e-09
1.19055e-09
1.53655e-09
2.26798e-10
8.16645e-15
6.38611e-13
1.23993e-12
9.99358e-12
3.28926e-11
4.51614e-11
4.25703e-11
1.51857e-11
4.38054e-12
4.70286e-12
1.53701e-11
2.13312e-11
1.13254e-10
9.40869e-10
8.87364e-09
1.02799e-07
8.27512e-05
0.000189268
0.000189481
0.000189268
0.000160257
9.57313e-05
3.08555e-05
1.68778e-05
1.62105e-05
1.32411e-05
6.34568e-05
0.000109846
4.98016e-05
1.09868e-06
1.23226e-07
1.22303e-07
7.8351e-06
9.85583e-06
9.85728e-06
4.99899e-06
2.50905e-07
1.65097e-07
1.92442e-07
2.00291e-07
8.07091e-07
2.09538e-06
1.35136e-06
1.45706e-06
1.7324e-06
6.19039e-06
6.69411e-05
0.000142526
0.000254386
0.000310585
0.00031395
0.000314692
0.000316655
0.000317928
0.000319161
0.000320434
0.000322114
0.000137294
2.64355e-05
2.35646e-05
2.31878e-05
7.13221e-05
0.00016256
0.000111407
4.15255e-06
6.29388e-08
7.94707e-09
4.51976e-09
5.59269e-09
2.86687e-07
2.19675e-07
1.63621e-11
3.08967e-11
4.52983e-11
5.59505e-10
5.18178e-10
5.18409e-10
1.8477e-09