/*--------------------------------*- C++ -*----------------------------------*\
| =========                 |                                                 |
| \\      /  F ield         | OpenFOAM: The Open Source CFD Toolbox           |
|  \\    /   O peration     | Version:  2412                                  |
|   \\  /    A nd           | Website:  www.openfoam.com                      |
|    \\/     M anipulation  |                                                 |
\*---------------------------------------------------------------------------*/
FoamFile
{
    version     2.0;
    format      ascii;
    arch        "LSB;label=32;scalar=64";
    class       volScalarField;
    location    "5.8";
    object      p_rgh;
}
// * * * * * * * * * * * * * * * * * * * * * * * * * * * * * * * * * * * * * //

dimensions      [1 -1 -2 0 0 0 0];

internalField   nonuniform List<scalar> 
6400
(
9869.79
9869.27
9868.26
9866.78
9864.88
9862.62
9860.05
9857.27
9854.34
9851.36
9848.41
9845.58
9842.96
9840.61
9838.61
9837.02
9835.9
9835.28
9835.2
9835.68
9836.71
9838.3
9840.41
9843.03
9846.11
9849.59
9853.4
9857.47
9861.72
9866.05
9870.38
9874.58
9878.57
9882.25
9885.5
9888.27
9890.48
9892.09
9893.05
9893.33
9892.96
9891.94
9890.32
9888.14
9885.49
9882.44
9879.08
9875.49
9871.76
9868.01
9864.31
9860.76
9857.42
9854.37
9851.66
9849.33
9847.42
9845.96
9844.96
9844.43
9844.37
9844.76
9845.59
9846.82
9848.42
9850.35
9852.56
9854.99
9857.58
9860.28
9863.01
9865.71
9868.32
9870.77
9872.99
9874.95
9876.57
9877.83
9878.69
9879.13
9870.27
9869.74
9868.7
9867.18
9865.23
9862.89
9860.26
9857.39
9854.38
9851.31
9848.28
9845.37
9842.67
9840.25
9838.19
9836.55
9835.39
9834.74
9834.64
9835.11
9836.15
9837.75
9839.9
9842.56
9845.69
9849.24
9853.13
9857.28
9861.62
9866.06
9870.48
9874.79
9878.88
9882.67
9885.99
9888.82
9891.09
9892.74
9893.71
9894
9893.6
9892.55
9890.87
9888.62
9885.88
9882.74
9879.31
9875.61
9871.79
9867.94
9864.16
9860.53
9857.13
9854.02
9851.26
9848.89
9846.96
9845.48
9844.48
9843.96
9843.91
9844.32
9845.18
9846.45
9848.08
9850.07
9852.33
9854.82
9857.47
9860.23
9863.03
9865.79
9868.46
9870.97
9873.25
9875.26
9876.92
9878.22
9879.1
9879.55
9871.24
9870.68
9869.58
9867.98
9865.91
9863.45
9860.67
9857.64
9854.47
9851.23
9848.03
9844.96
9842.1
9839.54
9837.36
9835.61
9834.36
9833.66
9833.52
9833.97
9835.02
9836.66
9838.86
9841.61
9844.85
9848.52
9852.56
9856.89
9861.42
9866.05
9870.68
9875.2
9879.5
9883.47
9887.01
9889.93
9892.33
9894.06
9895.07
9895.34
9894.9
9893.78
9892
9889.6
9886.67
9883.41
9879.74
9875.84
9871.83
9867.8
9863.85
9860.07
9856.53
9853.31
9850.45
9848.02
9846.03
9844.53
9843.52
9843
9842.98
9843.44
9844.36
9845.7
9847.44
9849.51
9851.88
9854.49
9857.26
9860.15
9863.07
9865.97
9868.76
9871.39
9873.78
9875.88
9877.62
9878.98
9879.9
9880.38
9872.73
9872.12
9870.93
9869.2
9866.97
9864.31
9861.3
9858.03
9854.6
9851.1
9847.65
9844.32
9841.23
9838.46
9836.08
9834.18
9832.8
9831.99
9831.79
9832.22
9833.28
9834.97
9837.27
9840.14
9843.55
9847.42
9851.69
9856.29
9861.1
9866.04
9870.99
9875.83
9880.44
9884.71
9888.53
9891.66
9894.26
9896.12
9897.22
9897.56
9897.06
9895.74
9893.75
9891.11
9887.9
9884.37
9880.39
9876.18
9871.88
9867.57
9863.36
9859.34
9855.6
9852.2
9849.21
9846.67
9844.61
9843.06
9842.04
9841.54
9841.57
9842.1
9843.11
9844.57
9846.43
9848.66
9851.2
9853.98
9856.94
9860.02
9863.14
9866.23
9869.21
9872.02
9874.58
9876.83
9878.7
9880.14
9881.13
9881.64
9874.78
9874.1
9872.79
9870.88
9868.43
9865.49
9862.17
9858.56
9854.78
9850.93
9847.12
9843.45
9840.04
9836.97
9834.34
9832.21
9830.65
9829.71
9829.43
9829.83
9830.91
9832.67
9835.08
9838.13
9841.75
9845.9
9850.48
9855.43
9860.64
9866
9871.39
9876.68
9881.72
9886.38
9890.56
9894.09
9896.93
9898.95
9900.2
9900.5
9899.9
9898.44
9896.15
9893.19
9889.63
9885.62
9881.23
9876.62
9871.92
9867.23
9862.67
9858.33
9854.31
9850.68
9847.5
9844.82
9842.67
9841.06
9840.03
9839.56
9839.64
9840.27
9841.41
9843.02
9845.06
9847.5
9850.27
9853.29
9856.5
9859.84
9863.23
9866.58
9869.83
9872.89
9875.68
9878.13
9880.16
9881.74
9882.82
9883.38
9877.44
9876.69
9875.22
9873.08
9870.32
9867.02
9863.3
9859.26
9855.02
9850.7
9846.43
9842.33
9838.5
9835.05
9832.08
9829.67
9827.88
9826.78
9826.39
9826.74
9827.84
9829.68
9832.25
9835.51
9839.41
9843.9
9848.89
9854.3
9860.01
9865.91
9871.87
9877.75
9883.31
9888.55
9893.23
9897.22
9900.42
9902.74
9904.04
9904.33
9903.61
9901.91
9899.29
9895.88
9891.83
9887.25
9882.3
9877.11
9871.94
9866.76
9861.74
9856.99
9852.62
9848.7
9845.29
9842.43
9840.15
9838.48
9837.43
9837
9837.17
9837.93
9839.23
9841.05
9843.34
9846.03
9849.07
9852.4
9855.94
9859.61
9863.34
9867.04
9870.62
9874
9877.09
9879.8
9882.06
9883.81
9885.01
9885.62
9880.8
9879.94
9878.27
9875.84
9872.7
9868.96
9864.72
9860.12
9855.3
9850.41
9845.56
9840.91
9836.56
9832.65
9829.26
9826.49
9824.42
9823.11
9822.58
9822.88
9824
9825.95
9828.7
9832.22
9836.46
9841.36
9846.85
9852.82
9859.17
9865.74
9872.42
9878.99
9885.34
9891.27
9896.6
9901.15
9904.78
9907.42
9908.89
9909.17
9908.28
9906.27
9903.21
9899.21
9894.54
9889.27
9883.61
9877.72
9871.77
9866.12
9860.5
9855.25
9850.45
9846.18
9842.49
9839.42
9837.01
9835.26
9834.2
9833.82
9834.1
9835.01
9836.53
9838.61
9841.19
9844.19
9847.59
9851.29
9855.23
9859.31
9863.46
9867.59
9871.6
9875.38
9878.85
9881.9
9884.44
9886.4
9887.74
9888.43
9884.94
9883.95
9882.04
9879.25
9875.65
9871.33
9866.45
9861.17
9855.64
9850.04
9844.49
9839.17
9834.19
9829.7
9825.8
9822.6
9820.19
9818.63
9817.95
9818.18
9819.33
9821.39
9824.35
9828.18
9832.82
9838.23
9844.31
9850.97
9858.07
9865.45
9872.97
9880.49
9887.76
9894.59
9900.74
9906.01
9910.26
9913.24
9914.9
9915.18
9914.08
9911.66
9908.04
9903.38
9897.83
9891.69
9885.13
9878.37
9871.61
9865.06
9858.88
9853.03
9847.73
9843.05
9839.04
9835.73
9833.16
9831.34
9830.28
9829.96
9830.38
9831.49
9833.26
9835.64
9838.57
9841.97
9845.79
9849.94
9854.36
9858.94
9863.6
9868.25
9872.77
9877.06
9881
9884.46
9887.35
9889.57
9891.09
9891.87
9889.97
9888.82
9886.63
9883.41
9879.23
9874.21
9868.55
9862.43
9856.05
9849.58
9843.19
9837.05
9831.32
9826.13
9821.63
9817.91
9815.1
9813.24
9812.37
9812.52
9813.7
9815.9
9819.1
9823.28
9828.39
9834.36
9841.13
9848.6
9856.65
9864.89
9873.55
9882.21
9890.63
9898.55
9905.73
9911.91
9916.88
9920.38
9922.3
9922.56
9921.19
9918.25
9913.89
9908.31
9901.73
9894.5
9886.83
9879
9871.24
9863.75
9856.71
9850.22
9844.36
9839.22
9834.84
9831.28
9828.54
9826.64
9825.58
9825.35
9825.93
9827.29
9829.37
9832.11
9835.46
9839.33
9843.64
9848.33
9853.3
9858.48
9863.75
9869.01
9874.16
9879.06
9883.57
9887.55
9890.86
9893.41
9895.13
9896.02
9896.05
9894.67
9892.16
9888.43
9883.54
9877.66
9871.04
9863.92
9856.51
9849.01
9841.62
9834.51
9827.87
9821.87
9816.64
9812.3
9809.04
9806.83
9805.74
9805.79
9806.99
9809.34
9812.81
9817.38
9823.01
9829.64
9837.19
9845.58
9854.64
9864.18
9874.1
9884.12
9893.93
9903.24
9911.71
9919.07
9924.94
9929.08
9931.33
9931.58
9929.85
9926.24
9920.95
9914.21
9906.36
9897.72
9888.68
9879.54
9870.56
9861.97
9853.97
9846.69
9840.21
9834.56
9829.79
9825.94
9823.03
9821.05
9820.01
9819.9
9820.69
9822.35
9824.8
9827.98
9831.81
9836.21
9841.11
9846.42
9852.05
9857.9
9863.87
9869.87
9875.76
9881.4
9886.6
9891.21
9895.07
9897.99
9899.96
9900.98
9903.39
9901.55
9898.82
9894.47
9888.68
9881.73
9873.97
9865.66
9857.03
9848.33
9839.74
9831.49
9823.77
9816.79
9810.73
9805.74
9801.88
9799.26
9797.91
9797.85
9799.07
9801.57
9805.34
9810.34
9816.54
9823.89
9832.33
9841.77
9852.05
9863.02
9874.48
9886.15
9897.7
9908.72
9918.77
9927.64
9934.69
9939.67
9942.34
9942.58
9940.38
9935.92
9929.42
9921.21
9911.71
9901.33
9890.6
9879.85
9869.41
9859.54
9850.45
9842.25
9835.16
9828.92
9823.74
9819.6
9816.5
9814.45
9813.45
9813.5
9814.55
9816.57
9819.48
9823.16
9827.58
9832.6
9838.15
9844.17
9850.55
9857.18
9863.97
9870.82
9877.59
9884.09
9890.13
9895.53
9900.05
9903.48
9905.64
9906.87
9911.61
9902.24
9906.75
9901.77
9894.8
9886.48
9877.35
9867.67
9857.64
9847.5
9837.51
9827.9
9818.9
9810.77
9803.72
9797.94
9793.44
9790.36
9788.73
9788.53
9789.77
9792.44
9796.51
9801.97
9808.78
9816.91
9826.33
9836.94
9848.62
9861.23
9874.53
9888.21
9901.88
9915.09
9927.35
9937.94
9946.48
9952.53
9955.75
9955.98
9953.15
9947.59
9939.55
9929.45
9917.84
9905.23
9892.45
9879.76
9867.59
9856.26
9845.96
9836.81
9828.89
9822.13
9816.53
9812.09
9808.81
9806.7
9805.75
9805.98
9807.37
9809.84
9813.3
9817.64
9822.69
9828.41
9834.73
9841.56
9848.8
9856.31
9864.02
9871.84
9879.64
9887.15
9894.16
9900.54
9905.97
9910.05
9912.2
9913.93
9916.34
9882.06
9886.22
9910.52
9901.89
9891.82
9881.12
9869.94
9858.31
9846.52
9834.88
9823.65
9813.11
9803.58
9795.35
9788.63
9783.45
9779.89
9777.94
9777.6
9778.85
9781.69
9786.09
9792.03
9799.49
9808.46
9818.91
9830.8
9844.06
9858.53
9873.99
9890.08
9906.36
9922.25
9937.13
9950.15
9960.68
9968.13
9972.1
9972.33
9968.72
9961.72
9951.65
9939.13
9924.86
9909.67
9894.12
9879.02
9864.82
9851.8
9840.17
9829.99
9821.26
9813.97
9807.95
9803.21
9799.75
9797.56
9796.68
9797.14
9798.93
9801.97
9806.13
9811.23
9817.07
9823.59
9830.76
9838.52
9846.72
9855.23
9863.97
9872.88
9881.86
9890.49
9898.59
9906.25
9913.01
9917.95
9899.97
9915.11
9929.39
9906.79
9885.17
9902.58
9909.78
9897.41
9884.99
9872.39
9859.1
9845.37
9831.8
9818.65
9806.28
9795.1
9785.48
9777.7
9771.74
9767.59
9765.29
9764.77
9766.02
9769.02
9773.78
9780.24
9788.39
9798.22
9809.77
9823.04
9838.02
9854.59
9872.53
9891.5
9910.98
9930.16
9948.52
9964.68
9977.8
9987.14
9992.13
9992.44
9987.73
9978.84
9966.12
9950.42
9932.7
9913.99
9895.18
9877.21
9860.63
9845.76
9832.72
9821.5
9811.98
9804.32
9797.83
9792.75
9789.04
9786.72
9785.89
9786.63
9788.94
9792.73
9797.81
9803.87
9810.64
9818.07
9826.22
9835.06
9844.35
9853.92
9863.72
9873.86
9883.91
9893.65
9902.87
9912.28
9920.87
9913.21
9892.11
9919.31
9942.82
9937.96
9922.12
9872.26
9909.22
9903.29
9888.9
9874.9
9860.03
9844.02
9828.31
9812.99
9798.41
9785.14
9773.87
9764.95
9758.26
9753.37
9750.77
9750.02
9751.2
9754.35
9759.45
9766.41
9775.19
9785.81
9798.38
9813.03
9829.86
9848.78
9869.63
9892.07
9915.54
9939.2
9961.69
9981.88
9998.46
10010.4
10016.8
10017.1
10011.2
9999.71
9983.39
9963.4
9941.08
9917.84
9895.02
9873.7
9854.43
9837.54
9823.13
9811.01
9800.94
9792.68
9785.89
9780.51
9776.56
9774.12
9773.34
9774.39
9777.33
9782.08
9788.44
9795.71
9803.43
9811.7
9820.92
9831.13
9841.83
9852.48
9863.08
9874.34
9885.22
9895.89
9906.6
9917
9917.16
9893.63
9927.12
9930.57
9944.27
9908.91
9900.13
9865.91
9871.5
9909.17
9892.17
9877.38
9860.16
9842.12
9824.39
9806.79
9789.41
9773.24
9759.82
9749.83
9742.77
9737.73
9734.76
9733.67
9734.66
9737.88
9743.28
9750.68
9759.93
9771.06
9784.29
9799.92
9818.25
9839.47
9863.68
9890.5
9919.11
9948.33
9976.51
10002.2
10023.5
10039
10047.3
10047.7
10040
10025.1
10004
9978.39
9950.08
9921.08
9893.12
9867.46
9845.04
9826.12
9810.45
9797.56
9787.02
9778.56
9771.86
9766.6
9762.67
9760.19
9759.48
9760.91
9764.62
9770.46
9778.23
9786.77
9795.37
9804.31
9814.62
9826.69
9839.29
9851.01
9861.77
9873.12
9886.93
9894.33
9910.47
9910.23
9848.16
9847.98
9923.05
9933.57
9934.42
9844.08
9837.49
9867.21
9881.56
9914.73
9892.9
9880.38
9861.72
9841.05
9820.67
9800.09
9778.9
9758.77
9742.45
9731.15
9724.06
9719.43
9716.64
9715.2
9715.85
9719.03
9724.84
9732.84
9742.55
9753.86
9767.12
9782.97
9802.06
9825.08
9852.57
9884.44
9919.6
9956.27
9992.39
10025.9
10053.9
10074.2
10084.8
10085
10074.5
10055.2
10027.7
9994.31
9957.71
9920.86
9886.44
9856.2
9831.01
9810.63
9794.18
9780.79
9769.99
9761.65
9755.41
9750.61
9746.85
9744.21
9743.36
9745.18
9750.08
9757.65
9766.29
9776.43
9786.15
9796.19
9808.12
9822.41
9837.14
9850.12
9861.63
9874.2
9889.68
9898.87
9912.08
9900.61
9847.1
9840.25
9845.82
9938.74
9936.27
9846.76
9860.65
9942.03
9942.82
9919.82
9898.39
9885.84
9866.23
9842.77
9817.85
9791.54
9764.65
9739.77
9720.02
9706.74
9699.64
9696.76
9693.01
9690.08
9689.57
9692.83
9700.14
9709.69
9720.15
9731.38
9744.32
9760.35
9780.65
9806.29
9837.83
9875.17
9917.46
9963.28
10009.6
10053.7
10091
10117.6
10131.1
10130.7
10116.7
10090.6
10054.2
10010.4
9963
9915.82
9874.28
9839.98
9812.58
9791.41
9774.97
9761.64
9750.45
9741.45
9734.48
9729.1
9724.75
9721.29
9719.43
9720.72
9726.66
9737.02
9749.92
9762.18
9773.92
9786.33
9800.96
9817.84
9834.72
9849.81
9863.89
9878.81
9893.68
9905.37
9911.85
9923.11
9894.85
9854.91
9861.77
9949.57
10046.9
10022.9
10002
10001
9977.61
9940.64
9910.48
9892.55
9872.16
9846.53
9816.91
9781.73
9745.66
9714.11
9690.29
9674.15
9666.5
9662.68
9653.2
9643.09
9639.98
9646.51
9659.57
9673.45
9685.67
9697.11
9709.79
9726.44
9748.79
9778.86
9817.42
9863.75
9914.73
9968.18
10027.9
10087.2
10137.8
10173.3
10190.3
10188.6
10169.1
10134.5
10087.4
10031
9970.23
9910.3
9858.42
9816.83
9784.71
9762.5
9747.15
9734.72
9723.47
9713.02
9703.96
9696.3
9689.63
9683.77
9678.87
9677.45
9684.27
9701.5
9723.54
9742.95
9756.52
9771.02
9789.21
9810.81
9832.06
9850.68
9867.56
9884.23
9899.66
9909.96
9931.47
9960.66
9980.67
9980.37
9995.23
9979.28
10099.7
10085.8
10067.3
10044
10012.4
9893.74
9526.06
9298.64
9000.8
8801.22
8512.89
7988.3
7410.6
6948.2
6637.3
6418.16
6286.71
6163.33
5966.98
5810.9
5880.65
6219.85
6549.25
6770.17
6906.99
7001.74
7090.53
7235.78
7439.15
7762.42
8228.76
8810.26
9404.16
9974.4
10054.1
10131.4
10198.6
10244.1
10265.4
10261.2
10233.6
10187.8
10127.1
10054.3
9845.47
9080.06
8409.47
7932.94
7612.05
7473.07
7428.81
7387.56
7324.5
7238.77
7160.39
7079.68
6977.92
6862.84
6728.42
6582.66
6537.21
6813.87
7355.03
7831.2
7924.43
8016.98
8209.72
8418.47
8587.97
8720.46
8865.67
9068.71
9269.36
9547
9930.85
9986.04
10014.3
10029.7
10042.1
9996.26
6897.55
6610.43
6223.22
5639.7
4917.85
3883.13
3205.64
2669.83
2340.89
2053.46
1549.06
994.884
570.255
298.675
152.019
52.9765
1.27264
0.741123
0.466582
0.117817
-0.0722511
0.289705
158.535
323.43
385.854
406.516
423.221
466.322
546.76
710.365
1015.06
1541.99
2261.08
3185.2
5007.08
7050
8517.89
9424.54
9711.18
9692.48
9285.41
8348.56
6908.49
4957.21
2950.86
1745.55
1136.64
818.393
626.405
551.342
540.319
533.543
512.726
470.754
429.162
381.96
323.705
247.004
125.541
19.3228
0.511035
38.8746
221.076
454.057
732.84
1023.22
1250.99
1474.08
1695
1908.49
2101.83
2246.44
2397.73
2666.9
3320.89
4351.65
4964.41
5338.07
5553.45
6084.53
628.172
425.7
228.319
72.2098
25.2
3.61074
1.84023
1.63579
2.39958
3.29184
3.43656
3.03458
3.06842
3.12223
2.04517
1.49054
1.12145
0.889245
0.539654
0.15141
0.144562
0.238901
0.444622
0.82521
1.16913
1.33912
1.45732
1.55526
1.6659
1.80543
2.01294
1.97635
3.46245
104.991
208.984
822.577
1999.98
3146.07
3551.64
3279.67
2356.16
1242.06
445.076
78.9669
11.1101
1.38456
1.29172
1.27516
1.25663
1.20017
1.09286
0.961097
0.831415
0.727451
0.643111
0.550734
0.452843
0.378576
0.415811
0.471788
0.335612
0.174987
0.18386
0.21607
1.10636
0.409307
1.15592
2.1435
3.54059
5.81144
6.73158
6.19799
5.12932
4.43436
4.19238
4.22218
11.9762
69.3181
170.119
266.305
2.14271
2.05192
1.76889
1.27879
0.944188
0.704697
0.327239
0.116714
0.300453
1.1497
2.48946
2.66252
2.74028
2.56596
2.00956
1.33268
0.829535
0.258105
0.0739502
0.0438655
0.109251
0.547584
2.61006
3.57903
2.02283
1.22857
1.37534
1.47554
1.5596
1.66175
1.69034
1.62146
1.73239
2.89871
20.8568
15.0561
6.32502
11.5562
18.9094
22.688
22.2791
18.6883
12.5634
5.43102
1.60321
1.09247
1.17562
1.20364
1.19709
1.1746
1.08412
0.92843
0.801418
0.69906
0.66576
1.18359
1.83406
1.02691
0.340446
0.281165
0.152462
0.124935
0.392284
0.313678
0.274759
0.534856
1.30146
1.01424
1.51874
3.52789
4.99788
5.01676
4.38666
4.13602
4.08466
4.00002
4.13926
3.53499
2.31287
2.16863
1.27419
1.20344
1.00607
0.611984
0.370181
0.153984
-0.069668
-0.158698
0.0809644
1.23437
2.64455
2.68179
2.49333
1.4576
0.684561
0.419319
0.243529
0.0865365
-0.0330553
-0.0885762
-0.0680671
1.07895
3.28886
3.61336
4.03703
4.12228
1.8533
1.40769
1.4763
2.04084
1.56691
1.40282
2.21049
3.91334
5.47245
4.26686
1.95032
2.98529
4.67963
5.99013
5.92384
6.45003
4.40232
1.45739
1.08145
1.17682
1.08931
1.11403
2.42703
3.12337
2.19345
0.866055
1.08126
1.59008
2.0068
2.2632
2.05327
1.85662
0.437201
0.188313
0.152918
0.119474
0.14253
0.239633
0.386231
0.570477
0.789344
1.01999
1.39017
3.53461
5.08471
5.50853
5.42562
4.27829
4.17819
4.68205
4.38885
4.00068
1.66572
1.76892
1.00676
0.885025
0.705486
0.488218
0.25294
-0.0127752
-0.211812
-0.278159
-0.0228962
1.84361
2.4679
2.83739
1.14808
0.511275
0.414601
0.299728
0.167925
0.0290689
-0.100312
-0.189855
-0.212416
-0.182713
1.11146
3.55287
3.87934
4.22124
3.89525
1.59006
1.41992
1.95438
2.01684
2.09708
2.09708
1.73377
1.94491
1.68213
1.34267
2.4597
4.3353
5.30864
4.96796
5.62183
3.86197
1.20593
1.33119
1.0346
0.991993
2.43903
3.01978
2.92444
2.82927
2.73692
2.63725
2.5381
2.44665
2.34249
1.24393
0.0954648
0.0781789
0.100782
0.123851
0.162221
0.238486
0.357382
0.506714
0.67685
0.860051
1.04042
1.19644
1.31196
1.39707
2.79717
4.70628
4.98235
4.92711
4.66238
3.53149
3.12369
1.3058
1.38429
1.07728
0.845321
0.642628
0.435982
0.202135
-0.0364232
-0.210671
-0.263251
-0.201938
2.22432
2.47627
2.37378
0.425231
0.350385
0.303984
0.223815
0.11305
-0.0173387
-0.154499
-0.271336
-0.327982
-0.316114
2.31945
3.50989
3.72597
4.02671
4.36968
2.53325
1.68629
1.79822
1.49404
1.12652
0.98827
0.838191
0.997889
0.956027
1.1043
2.75281
5.65387
5.06828
4.981
6.76592
3.37208
0.600638
0.703883
0.789711
0.806455
1.76517
2.82515
2.35962
0.722878
0.442629
0.339499
0.259541
0.313962
0.23703
-0.0126616
-0.0575923
-0.0359956
0.00852557
0.0657386
0.144711
0.256486
0.400269
0.564518
0.736467
0.904975
1.05972
1.19465
1.28902
1.35275
1.38405
1.40202
3.09861
3.845
1.6116
1.21471
1.23897
1.28572
1.35264
2.0365
1.05176
0.551872
0.362468
0.196722
0.0319
-0.0963639
-0.139887
1.19492
2.39455
2.56825
0.640434
0.256311
0.271545
0.242631
0.179152
0.082397
-0.0411986
-0.182435
-0.325223
-0.418392
1.08869
3.3974
3.44664
3.61476
3.88868
4.21626
1.82211
1.19008
1.58721
0.859113
0.802523
0.750902
0.730554
0.707301
2.35261
3.03346
2.89918
1.23717
0.589567
2.19349
6.80348
2.87416
0.206236
0.419627
0.552723
0.776095
0.604627
0.411276
0.285645
0.146734
0.0773104
0.00210818
-0.0708321
-0.134749
-0.181897
-0.204254
-0.196208
-0.157463
-0.0999499
-0.0187436
0.0913819
0.235385
0.407919
0.593881
0.776004
0.941648
1.08988
1.2013
1.27895
1.33108
1.35694
1.37109
1.36624
1.37191
1.36729
1.31684
1.29817
1.34991
1.4089
2.32544
1.85397
0.410986
0.283907
0.224488
0.152898
0.0730794
0.908748
2.52086
2.59173
2.73729
0.623533
0.230847
0.23874
0.21202
0.158319
0.0760506
-0.0341738
-0.167849
-0.325345
-0.453744
2.31229
3.39092
3.44769
3.61444
3.87239
2.01913
0.843442
0.623297
0.818195
0.695119
0.690654
0.672745
0.652302
2.63534
3.28924
3.16106
1.89648
0.601741
0.485017
2.48975
6.75951
3.05198
0.0795861
0.265659
0.433081
0.632225
0.36567
0.150388
0.0955628
0.0333761
-0.0414808
-0.125218
-0.210252
-0.2878
-0.347684
-0.375126
-0.255273
-0.00556012
0.2002
0.0799001
0.0197728
0.166727
0.378286
0.597633
0.800517
0.975141
1.11963
1.22013
1.28763
1.32801
1.34522
1.44578
2.13966
2.44715
1.85759
1.40467
1.46237
1.58314
1.52218
2.22736
1.47283
0.265941
0.23898
0.265736
0.268432
0.387059
2.63893
2.73338
2.78937
2.74045
0.365974
0.233531
0.231038
0.20343
0.157964
0.0915152
0.00238809
-0.110228
-0.24633
-0.370124
1.88297
3.57203
3.63826
2.57525
1.22823
0.388859
0.297988
0.443439
0.537396
0.585561
0.602612
0.614746
2.40931
3.39831
3.36035
2.5043
0.783474
0.619489
0.505657
2.64785
6.59549
1.86244
0.0330547
0.178325
0.474124
0.496768
0.311486
0.0506186
-0.00663395
-0.0804418
-0.174127
-0.281588
-0.392292
-0.492799
-0.569201
-0.575852
0.0429795
0.771052
0.893164
1.07641
0.529818
0.0643843
0.322575
0.58422
0.812238
0.999394
1.14959
1.24822
1.30688
1.33647
1.34323
1.42723
3.05075
3.16997
3.15305
2.25287
1.49821
1.59914
1.61501
4.09116
1.62886
0.233288
0.271106
0.332082
0.731281
2.75433
2.85428
2.90615
2.99358
2.42591
0.386291
0.245357
0.234868
0.20807
0.171218
0.120171
0.057782
-0.015452
-0.102294
-0.203642
0.0439325
1.5145
2.58413
1.98235
0.871267
0.687767
0.248198
0.361251
0.443052
0.499466
0.529403
1.20482
3.44575
3.41937
3.31548
0.79375
0.725217
1.04066
1.008
0.967602
1.00982
0.299972
0.038003
0.136792
0.405919
0.409557
0.10719
-0.033624
-0.108525
-0.208983
-0.28836
-0.37028
-0.570424
-0.757979
-0.814427
-0.0543552
0.450124
0.513113
0.654327
0.841714
1.0647
1.10143
1.34861
1.48201
1.09464
1.03248
1.17953
1.27887
1.3258
1.34484
1.3543
1.34077
1.77697
3.20101
3.18058
3.1848
2.66096
1.58425
1.61907
4.91806
1.25698
0.297124
0.364142
0.423281
1.37925
2.83137
2.20813
1.8804
3.1472
1.48094
0.359856
0.253021
0.240219
0.216961
0.187743
0.154339
0.110501
0.0732987
0.0328778
-0.0316903
-0.0812712
0.995142
2.10503
2.29322
2.0999
1.49757
0.25135
0.320909
0.37829
0.42324
0.505969
2.44594
3.45423
3.3873
1.49395
0.623736
1.173
1.08872
0.996665
0.109362
-0.0229047
0.0307788
0.0789436
0.101123
0.181377
0.156811
-0.0300151
-0.112387
-0.204648
0.116913
0.231451
-0.40472
-0.850984
-1.03758
-1.1302
-0.886725
-0.0560327
0.0751458
-0.241785
0.0301365
0.357363
2.75755
3.78881
4.18361
3.72849
1.9173
1.71273
1.88154
1.44956
1.34761
1.35991
1.34025
1.27432
1.53268
3.04724
3.14807
3.13569
2.74605
1.64315
5.115
2.44891
0.41176
0.467796
0.516757
0.579626
0.658466
0.736614
1.9073
1.58235
0.487813
0.255299
0.253402
0.241693
0.223168
0.200021
0.205826
0.18292
0.187197
0.109037
0.0665362
0.0178729
0.521702
1.00834
1.60026
2.27809
2.31556
0.522439
0.293746
0.327791
0.362285
0.51919
3.22947
3.44597
2.78563
0.280306
0.256673
1.03467
1.07144
1.0239
0.22391
0.0862394
0.112662
0.122073
0.102984
0.0654878
0.0141913
-0.0595762
-0.182403
-0.272299
0.182333
-0.00197369
-0.66234
-1.12891
-1.30951
-1.43127
-1.4396
-1.30776
-0.905629
-0.526649
-0.244737
0.237083
2.49369
3.66557
4.09208
4.50955
4.58233
2.98869
3.21821
2.74001
1.73133
1.32436
1.28658
1.24297
1.16205
1.10925
2.2396
2.90207
2.94251
2.95181
5.2526
5.25645
2.8481
1.93813
0.829772
0.685569
1.46772
2.09041
2.06223
1.10254
0.250482
0.252154
0.249235
0.237359
0.222702
0.203384
0.265423
0.971342
1.09499
0.128733
0.101388
0.0560222
0.0451882
0.0903892
1.27095
2.33635
2.39235
2.16513
0.268833
0.286481
0.31218
0.490648
3.14946
3.40072
0.407462
0.106874
0.0898898
0.110402
0.487851
1.31084
0.542983
0.13807
0.159042
0.15284
0.119812
0.0710592
0.00596639
-0.0879153
-0.239497
-0.447841
-0.625222
-0.242611
1.07333
0.263081
-1.41337
-1.23528
-0.0513854
1.0361
1.91993
2.3648
2.18955
2.55263
3.25353
3.61361
4.03371
4.45983
4.85119
3.88535
3.66081
3.48142
3.04137
1.59774
1.22953
1.18188
1.1358
1.08146
1.04216
1.04109
1.69751
2.58455
5.37208
4.00506
4.49306
4.54931
4.59029
4.59576
3.14333
1.17728
0.232269
0.229626
0.236306
0.24011
0.237729
0.227296
0.21521
0.198966
0.373961
1.3563
1.32656
0.852654
0.0944161
0.0796589
0.053037
0.114824
1.78235
2.39864
2.43238
2.46165
0.591967
0.251194
0.267272
0.672444
2.87261
2.1216
0.0951335
-0.00699776
-0.0300663
0.0144131
0.628739
1.50452
0.420513
0.173124
0.178681
0.176527
0.144749
0.0939575
0.0229329
-0.0929894
-0.278918
-0.548991
-0.841072
-0.183001
2.10796
2.00321
1.96271
1.89429
1.91497
2.03875
2.21475
2.4306
2.671
2.94372
3.25678
3.62612
4.03626
4.44473
4.82593
4.75559
2.89189
2.9603
3.10662
2.87721
1.32444
1.12393
1.08282
1.05009
1.02591
1.02145
1.03015
1.10532
5.37147
0.246109
0.383039
0.264735
0.233922
0.133157
0.155366
0.181843
0.198358
0.209581
0.219912
0.222805
0.218701
0.213347
0.203255
0.189435
0.333586
1.38739
1.34924
1.3061
0.146205
0.137785
0.095734
0.292769
2.36607
2.46138
1.68417
0.712018
0.803312
0.225791
0.230834
0.620811
1.61925
0.353735
0.0541965
-0.0560681
-0.0787506
0.537692
1.69657
1.79124
1.71998
0.431196
1.47354
2.38797
1.9157
0.613966
0.132842
-0.0528334
-0.274324
-0.59033
-0.592283
2.03694
1.83144
0.879035
-0.983748
-0.944117
-0.437404
0.127263
1.51635
2.35239
2.6447
2.95519
3.30617
3.69742
4.09447
4.48022
4.83892
5.10809
3.04045
1.61409
2.96777
2.99624
2.22801
1.08122
1.02022
0.998275
0.985917
0.993139
0.996464
1.01535
2.92028
0.265091
0.257997
0.258808
0.250166
0.19726
0.146845
0.178756
0.19054
0.193668
0.20141
0.20364
0.202717
0.198383
0.189989
0.17839
0.163374
0.628959
1.38948
1.1752
0.119184
0.128838
0.124938
0.281148
2.10163
2.49506
1.05731
0.296691
0.293954
0.215743
0.208171
0.227818
0.451589
0.801048
0.286737
-0.054307
-0.0756365
0.79332
1.72426
1.75364
1.0885
3.062
3.6721
3.7671
3.78867
3.71302
1.59812
0.0338158
-0.203367
-0.552747
-0.886137
1.94058
1.67053
-1.83414
-2.13711
-2.21472
-2.1853
-2.07733
-1.90965
-0.37698
2.28231
3.06103
3.41467
3.81321
4.19858
4.57935
4.93942
5.10877
2.0856
1.30272
2.7969
2.94932
2.96272
1.36838
0.952122
0.937974
0.933807
0.950433
0.954491
0.95539
2.69303
0.288331
0.49264
0.265844
0.208812
0.171279
0.141071
0.171596
0.176467
0.177886
0.184399
0.187393
0.187237
0.183853
0.177101
0.167556
0.155606
0.179771
1.29286
1.50466
0.840594
0.123037
0.127928
0.164453
0.688154
1.87151
1.61316
0.400785
0.231719
0.213365
0.26445
0.235604
0.188991
1.18206
1.03166
-0.0305533
-0.0413064
1.57219
1.75402
0.283797
-0.0162494
1.87234
3.76673
3.83674
3.90175
3.93461
3.89805
2.24016
0.0245946
-0.318817
0.866856
0.338272
-0.99846
-1.85746
-2.05833
-2.14044
-2.07743
-1.93117
-1.66505
-1.39671
-0.705082
2.81382
3.60469
3.96672
4.42602
4.62225
4.30435
2.12757
1.13463
1.19877
2.41068
2.89551
2.89798
1.76248
0.873387
0.866478
0.867119
0.881799
0.922095
0.903689
2.80914
0.637906
0.694157
0.147645
0.104989
0.117039
0.140655
0.159151
0.155536
0.164278
0.170011
0.172903
0.173099
0.170552
0.165244
0.157462
0.147742
0.136391
0.220373
1.55461
1.79871
0.832042
0.150019
0.149449
0.147149
0.250314
1.18651
1.83802
0.256869
0.205047
0.468261
1.54268
0.283797
1.18852
0.487473
-0.00187047
0.0451422
1.58207
1.07453
-0.150713
-0.105686
0.0660838
0.674442
2.48858
3.9607
4.03121
4.04827
3.94971
3.33869
2.97711
2.88868
2.28774
-1.0782
-1.56372
-1.64493
-1.31311
-0.236153
0.0450487
-1.14685
-1.16235
-0.643545
3.08428
3.86701
4.14964
1.49291
0.828391
0.782082
0.912966
1.04318
1.11506
1.66513
2.81819
2.85858
1.64457
0.78799
0.788673
0.793937
0.799408
0.865168
0.844452
1.56443
1.92998
0.696848
0.104438
0.108978
0.117724
0.127186
0.136752
0.145642
0.152628
0.157553
0.160196
0.160603
0.158713
0.154573
0.148391
0.140355
0.130556
0.120459
0.142314
1.86522
2.14314
1.5981
0.353401
0.188322
0.199254
0.402815
1.85126
0.275446
0.190698
0.603895
2.9289
0.836369
1.0632
0.0837471
0.0234847
1.388
1.6055
-0.137081
-0.182911
-0.135417
-0.0808847
-0.0298167
0.0669545
0.948541
2.88773
4.07623
4.0308
3.89347
3.56958
3.23704
2.86617
2.11543
1.52517
2.1435
2.07378
2.08778
2.16185
1.89237
-0.671356
1.92071
3.83325
4.14262
4.35813
0.76506
0.566137
0.672667
0.827835
0.949891
1.02022
1.04975
2.73264
2.44433
0.901201
0.697994
0.705934
0.714756
0.721365
0.788704
0.771051
1.60081
1.99352
0.435907
0.10197
0.107363
0.114828
0.122514
0.130184
0.137134
0.142817
0.146977
0.149311
0.149805
0.148356
0.145045
0.140054
0.133406
0.125054
0.115636
0.107212
0.103539
0.568162
1.84697
1.8828
1.29917
0.215227
0.222955
1.80268
1.38655
0.171003
2.34466
2.96543
2.83709
0.360288
0.13516
0.492198
1.4798
0.960078
-0.225205
-0.2013
-0.152264
-0.0962715
-0.0438858
0.00303962
0.0475662
0.15507
1.33889
1.73002
3.94952
3.79763
3.55415
3.27309
3.02583
2.82136
2.67062
2.59396
2.58774
2.62016
2.66737
0.882752
2.9521
4.11082
4.626
5.2808
3.38584
0.582283
0.573796
0.700912
0.822851
0.901299
0.94655
2.83998
1.79953
0.611488
0.607102
0.619082
0.630666
0.638894
0.710038
0.702595
2.05411
2.04112
0.350824
0.095948
0.10327
0.11084
0.117521
0.124061
0.129825
0.134559
0.138063
0.140093
0.140571
0.139404
0.136626
0.132362
0.126628
0.119423
0.110924
0.101598
0.0946778
0.0933089
0.481963
1.84088
2.17006
1.66104
0.230377
2.28289
3.88623
0.25875
3.05131
2.98131
2.9395
0.282735
0.543698
1.36562
1.38916
-0.162413
-0.238388
-0.215527
-0.164276
-0.0867053
-0.00629876
0.0241712
0.0498714
0.0754387
0.0594536
0.0516914
0.390801
0.881402
0.725497
1.34448
3.45616
3.34724
3.19205
3.17505
3.14242
3.10657
2.91363
2.13075
1.79772
1.94681
4.86421
5.46066
5.56852
1.92536
0.412729
0.51695
0.654552
0.753059
0.839085
3.07901
2.02088
0.525361
0.511308
0.527321
0.542027
0.566241
0.626861
0.63018
1.83069
0.458169
0.274008
0.091004
0.099255
0.106739
0.112821
0.118639
0.123596
0.12761
0.130573
0.132304
0.132732
0.131739
0.129302
0.125492
0.120306
0.113712
0.105668
0.0960798
0.0857972
0.0767887
0.0695291
0.296063
1.73464
2.79196
1.59498
3.87727
3.86573
0.280782
3.06967
3.00244
2.47073
0.226811
0.486466
0.34406
-0.0744949
-0.236732
-0.244566
-0.222795
-0.175459
-0.0864079
0.114056
0.157536
0.180999
0.0707218
0.014872
0.0100594
-0.0229415
-0.0763341
-0.139788
-0.137007
-0.240324
-0.306248
-0.189162
1.50541
3.41686
2.29578
1.57111
1.68755
1.72589
4.11561
5.47009
5.52627
5.67404
3.07435
0.21407
0.293907
0.453752
0.582808
0.864905
3.24573
2.49568
0.502751
0.408671
0.430555
0.449425
0.476077
0.539758
0.51617
0.512099
0.137626
0.259364
0.0878493
0.0961033
0.103255
0.108845
0.114047
0.118346
0.121781
0.124304
0.125772
0.126116
0.125223
0.123028
0.119536
0.11471
0.108487
0.100742
0.0911157
0.0790856
0.0653088
0.0525194
0.0412749
0.192189
2.61155
3.93832
3.91917
3.88274
0.338977
3.04538
2.91335
0.409745
0.18389
0.0572669
-0.130282
-0.191145
-0.220256
-0.234291
-0.217571
-0.177404
-0.0773383
0.109452
0.141298
0.164076
0.0243169
-0.0213072
-0.0337148
-0.0579411
-0.0937134
-0.133596
-0.105135
-0.167817
-0.215903
-0.224662
-0.244425
-0.151858
0.185449
1.3324
3.00805
5.72417
5.65877
5.54707
5.51858
5.59898
4.50134
0.27346
0.0652765
0.239046
0.40147
1.05336
3.36181
2.57665
0.395674
0.300565
0.330315
0.354296
0.372282
0.443099
0.403399
0.369484
0.0753537
0.0911884
0.0874328
0.0943094
0.100625
0.105765
0.110273
0.113962
0.1169
0.11905
0.120283
0.120541
0.119726
0.117736
0.114521
0.110009
0.104091
0.0966054
0.0871386
0.0748093
0.0592586
0.0424796
0.0255795
0.00615295
1.73618
3.9781
3.95022
3.94271
3.37602
1.95218
0.539139
0.241879
0.207785
0.113423
1.16928
2.14676
0.8589
-0.19099
-0.201883
-0.171369
0.0290905
0.103455
0.12901
0.0443712
-0.0466836
-0.0493621
-0.0608744
-0.0814886
-0.094581
-0.096031
-0.143091
-0.167678
-0.174913
-0.0984451
1.14614
2.66623
4.94184
6.02574
5.97388
5.83706
5.70604
5.57468
5.50467
5.5339
5.70584
2.00066
-0.134358
0.0358816
0.222468
1.39708
3.45107