/*--------------------------------*- C++ -*----------------------------------*\
| =========                 |                                                 |
| \\      /  F ield         | OpenFOAM: The Open Source CFD Toolbox           |
|  \\    /   O peration     | Version:  2412                                  |
|   \\  /    A nd           | Website:  www.openfoam.com                      |
|    \\/     M anipulation  |                                                 |
\*---------------------------------------------------------------------------*/
FoamFile
{
    version     2.0;
    format      ascii;
    arch        "LSB;label=32;scalar=64";
    class       surfaceScalarField;
    location    "1.85";
    object      phi;
}
// * * * * * * * * * * * * * * * * * * * * * * * * * * * * * * * * * * * * * //

dimensions      [0 3 -1 0 0 0 0];

oriented        oriented;

internalField   nonuniform List<scalar> 
12640
(
3.97863e-05
-3.97863e-05
8.16687e-05
-4.18847e-05
0.000121166
-3.9497e-05
0.000158583
-3.74162e-05
0.000193609
-3.50245e-05
0.000225715
-3.21056e-05
0.000254397
-2.86817e-05
0.000279383
-2.49852e-05
0.00030028
-2.0897e-05
0.000316932
-1.66527e-05
0.000329209
-1.22765e-05
0.000337054
-7.84503e-06
0.000340517
-3.46439e-06
0.000339633
8.84868e-07
0.000334577
5.05543e-06
0.000325644
8.93159e-06
0.000313242
1.24021e-05
0.000297777
1.5463e-05
0.000279784
1.79938e-05
0.000259686
2.00965e-05
0.000238017
2.16675e-05
0.000215278
2.27397e-05
0.000191934
2.33453e-05
0.000168408
2.3528e-05
0.000145113
2.3296e-05
0.000122431
2.26825e-05
0.000100732
2.16989e-05
8.03839e-05
2.03479e-05
6.17243e-05
1.86602e-05
4.50495e-05
1.6673e-05
3.05153e-05
1.45362e-05
1.8091e-05
1.24218e-05
7.68529e-06
1.04061e-05
-7.06883e-07
8.39095e-06
-6.69412e-06
5.98739e-06
-1.01835e-05
3.48988e-06
-1.14208e-05
1.23601e-06
-1.04829e-05
-9.35921e-07
-7.88409e-06
-2.59799e-06
-4.41433e-06
-3.47207e-06
-8.90781e-07
-3.52631e-06
1.76729e-06
-2.65935e-06
2.84747e-06
-1.08056e-06
1.643e-06
1.20447e-06
-1.90394e-06
3.54659e-06
-7.95891e-06
6.05406e-06
-1.67263e-05
8.76668e-06
-2.78628e-05
1.11365e-05
-4.0945e-05
1.30829e-05
-5.57175e-05
1.47736e-05
-7.22278e-05
1.65119e-05
-9.04461e-05
1.82192e-05
-0.000110092
1.96452e-05
-0.000130816
2.07226e-05
-0.000152244
2.14263e-05
-0.00017398
2.17363e-05
-0.000195672
2.1692e-05
-0.000216973
2.13014e-05
-0.000237517
2.05429e-05
-0.000256921
1.94043e-05
-0.000274776
1.7856e-05
-0.000290657
1.58825e-05
-0.000304129
1.34722e-05
-0.000314733
1.06041e-05
-0.000322154
7.42036e-06
-0.000325978
3.82541e-06
-0.000325987
9.56965e-09
-0.000322007
-3.9798e-06
-0.000313984
-8.02445e-06
-0.000301836
-1.21479e-05
-0.000285694
-1.61411e-05
-0.000265584
-2.01112e-05
-0.000241696
-2.38892e-05
-0.000214315
-2.73809e-05
-0.000183776
-3.05367e-05
-0.000150488
-3.32875e-05
-0.000114926
-3.55624e-05
-7.74952e-05
-3.74301e-05
-3.78149e-05
-3.96815e-05
-3.78131e-05
4.03375e-05
-8.01222e-05
8.26746e-05
-8.4221e-05
0.000122595
-7.94164e-05
0.000160515
-7.53347e-05
0.00019594
-7.04484e-05
0.000228364
-6.45293e-05
0.000257381
-5.76978e-05
0.000282484
-5.00886e-05
0.000303513
-4.19263e-05
0.000320173
-3.33134e-05
0.000332341
-2.4446e-05
0.00034001
-1.55124e-05
0.00034322
-6.67531e-06
0.000342156
1.94946e-06
0.000337119
1.00912e-05
0.000328479
1.75701e-05
0.000316575
2.43052e-05
0.00030177
3.02648e-05
0.000284444
3.53191e-05
0.000265135
3.94071e-05
0.000244286
4.25182e-05
0.000222384
4.46436e-05
0.000199912
4.58181e-05
0.00017733
4.61118e-05
0.000155112
4.55145e-05
0.000133635
4.41588e-05
0.000113239
4.2097e-05
9.42202e-05
3.93655e-05
7.67719e-05
3.61109e-05
6.10578e-05
3.23851e-05
4.72624e-05
2.83332e-05
3.56449e-05
2.4038e-05
2.63618e-05
1.96897e-05
1.92857e-05
1.54658e-05
1.38177e-05
1.1456e-05
9.43239e-06
7.878e-06
5.82438e-06
4.84133e-06
2.88081e-06
2.00457e-06
-7.739e-09
2.89906e-07
-2.95453e-06
-5.25736e-07
-6.05151e-06
-4.31214e-07
-9.35389e-06
6.411e-07
-1.30547e-05
2.61861e-06
-1.74567e-05
5.60463e-06
-2.29469e-05
9.03528e-06
-2.95564e-05
1.26634e-05
-3.73692e-05
1.65803e-05
-4.68499e-05
2.06185e-05
-5.8403e-05
2.46374e-05
-7.21393e-05
2.85113e-05
-8.76813e-05
3.20548e-05
-0.000104668
3.52051e-05
-0.000122864
3.78403e-05
-0.00014206
3.99168e-05
-0.000162019
4.13852e-05
-0.000182453
4.21714e-05
-0.000203025
4.22645e-05
-0.000223352
4.1629e-05
-0.000243018
4.02085e-05
-0.000261601
3.79887e-05
-0.000278685
3.49423e-05
-0.000293862
3.10603e-05
-0.000306732
2.63422e-05
-0.00031694
2.08116e-05
-0.000324073
1.45536e-05
-0.000327949
7.70295e-06
-0.000328206
2.67197e-07
-0.000324499
-7.68793e-06
-0.000316695
-1.58282e-05
-0.000304757
-2.40857e-05
-0.000288556
-3.23428e-05
-0.000268374
-4.0295e-05
-0.000244318
-4.79433e-05
-0.000216729
-5.49671e-05
-0.00018589
-6.13757e-05
-0.000152253
-6.69245e-05
-0.000116328
-7.14888e-05
-7.84268e-05
-7.5332e-05
-3.82705e-05
-7.98354e-05
-7.60841e-05
4.17019e-05
-0.000121824
8.54584e-05
-0.000127976
0.000126654
-0.00012061
0.00016574
-0.00011442
0.000202263
-0.000106971
0.00023565
-9.7916e-05
0.00026543
-8.74779e-05
0.000291269
-7.59285e-05
0.000312774
-6.3431e-05
0.000329761
-5.03002e-05
0.000342103
-3.67877e-05
0.000349788
-2.31958e-05
0.000352823
-9.71014e-06
0.000351255
3.51817e-06
0.000345467
1.58784e-05
0.000335747
2.72896e-05
0.000322553
3.74998e-05
0.000306281
4.65374e-05
0.000287417
5.41837e-05
0.000266505
6.03194e-05
0.000244064
6.49597e-05
0.000220627
6.80808e-05
0.000196664
6.97812e-05
0.000172677
7.01001e-05
0.000149081
6.91136e-05
0.000126288
6.69523e-05
0.000104697
6.36917e-05
8.4591e-05
5.94724e-05
6.62612e-05
5.4441e-05
4.99229e-05
4.87243e-05
3.57454e-05
4.25099e-05
2.38981e-05
3.5884e-05
1.44927e-05
2.90968e-05
7.55983e-06
2.23968e-05
2.50402e-06
1.65086e-05
-7.21444e-07
1.11038e-05
-2.40093e-06
6.52229e-06
-3.28776e-06
2.89099e-06
-3.34098e-06
3.41013e-07
-3.09518e-06
-7.7404e-07
-3.02218e-06
-5.06734e-07
-3.48694e-06
1.1044e-06
-4.89198e-06
4.02434e-06
-7.31831e-06
8.03313e-06
-1.1195e-05
1.29138e-05
-1.69359e-05
1.84047e-05
-2.47722e-05
2.44167e-05
-3.47859e-05
3.06331e-05
-4.70048e-05
3.68581e-05
-6.13444e-05
4.28533e-05
-7.76287e-05
4.83409e-05
-9.55602e-05
5.31373e-05
-0.000114918
5.71989e-05
-0.000135413
6.04122e-05
-0.000156748
6.27216e-05
-0.000178569
6.39936e-05
-0.000200536
6.4232e-05
-0.000222242
6.33344e-05
-0.000243298
6.12649e-05
-0.000263282
5.79752e-05
-0.000281796
5.34569e-05
-0.000298344
4.76078e-05
-0.000312505
4.05024e-05
-0.000323842
3.21488e-05
-0.000331951
2.26643e-05
-0.000336453
1.22061e-05
-0.000337126
9.39813e-07
-0.000333607
-1.12079e-05
-0.000325794
-2.36397e-05
-0.000313663
-3.62173e-05
-0.000297285
-4.87226e-05
-0.000276618
-6.09626e-05
-0.00025202
-7.25394e-05
-0.000223605
-8.33819e-05
-0.00019188
-9.31028e-05
-0.000157211
-0.000101594
-0.000120101
-0.000108602
-8.09985e-05
-0.000114431
-3.95112e-05
-0.000121324
-0.000115595
4.35521e-05
-0.000165375
8.93802e-05
-0.000173802
0.000132523
-0.000163752
0.00017333
-0.000155227
0.000211405
-0.000145046
0.000246155
-0.000132667
0.000277129
-0.000118452
0.000303835
-0.000102634
0.000326008
-8.56036e-05
0.000343398
-6.76887e-05
0.000355843
-4.92308e-05
0.00036333
-3.06813e-05
0.000365927
-1.23067e-05
0.000363649
5.79761e-06
0.000357034
2.2493e-05
0.000346207
3.81172e-05
0.000331697
5.201e-05
0.000314012
6.42225e-05
0.000293658
7.4539e-05
0.000271223
8.27548e-05
0.000247264
8.89189e-05
0.000222319
9.30259e-05
0.000196909
9.51916e-05
0.000171536
9.54728e-05
0.000146642
9.40093e-05
0.000122658
9.09356e-05
9.99488e-05
8.6399e-05
7.88515e-05
8.05711e-05
5.96881e-05
7.36015e-05
4.27111e-05
6.57032e-05
2.8152e-05
5.70698e-05
1.61414e-05
4.78927e-05
6.87331e-06
3.83634e-05
-2.71088e-07
2.95422e-05
-5.10501e-06
2.13445e-05
-7.44292e-06
1.34389e-05
-8.19676e-06
7.27221e-06
-7.23447e-06
1.92751e-06
-5.35475e-06
-1.53621e-06
-3.07055e-06
-3.05377e-06
-9.4373e-07
-2.62931e-06
5.5543e-07
-3.91153e-07
8.93219e-07
3.68968e-06
-4.8965e-07
9.41773e-06
-3.85755e-06
1.6282e-05
-9.39266e-06
2.39399e-05
-1.71176e-05
3.21426e-05
-2.73714e-05
4.08888e-05
-4.00196e-05
4.95083e-05
-5.49401e-05
5.77756e-05
-7.1931e-05
6.53333e-05
-9.0769e-05
7.19767e-05
-0.000111144
7.75753e-05
-0.000132741
8.2011e-05
-0.000155189
8.51704e-05
-0.000178207
8.7012e-05
-0.000201381
8.74056e-05
-0.00022433
8.62837e-05
-0.000246663
8.35996e-05
-0.000267933
7.92469e-05
-0.000287769
7.3294e-05
-0.000305607
6.54438e-05
-0.000320969
5.58631e-05
-0.000333434
4.46142e-05
-0.000342538
3.17689e-05
-0.000347896
1.75635e-05
-0.000349268
2.31e-06
-0.000346117
-1.43591e-05
-0.000338507
-3.12492e-05
-0.000326314
-4.84125e-05
-0.000309538
-6.54987e-05
-0.000288347
-8.21519e-05
-0.000262864
-9.80221e-05
-0.000233471
-0.000112776
-0.000200443
-0.000126129
-0.000164327
-0.000137714
-0.000125625
-0.000147302
-8.47385e-05
-0.000155321
-4.12919e-05
-0.000164768
-0.00015689
4.61683e-05
-0.000211543
9.47962e-05
-0.000222429
0.000140513
-0.000209468
0.000183696
-0.000198412
0.000223892
-0.000185241
0.000260496
-0.00016927
0.000293008
-0.000150964
0.000320999
-0.000130625
0.000344083
-0.000108687
0.000362001
-8.5605e-05
0.000374611
-6.18389e-05
0.000381866
-3.79352e-05
0.0003838
-1.42412e-05
0.000380694
8.90448e-06
0.000372733
3.04549e-05
0.000360343
5.05079e-05
0.000344086
6.82692e-05
0.000324436
8.38706e-05
0.000302092
9.6881e-05
0.00027756
0.000107286
0.000251567
0.000114913
0.000224654
0.000119939
0.000197394
0.000122452
0.0001703
0.000122566
0.000143815
0.000120493
0.000118413
0.00011634
9.44496e-05
0.000110363
7.23141e-05
0.000102712
5.22958e-05
9.36217e-05
3.46975e-05
8.33025e-05
1.97637e-05
7.20023e-05
7.94472e-06
5.97152e-05
-1.53148e-06
4.78399e-05
-8.10713e-06
3.61128e-05
-1.18768e-05
2.5114e-05
-1.35024e-05
1.50686e-05
-1.25889e-05
6.36262e-06
-1.01895e-05
-4.70328e-07
-6.64761e-06
-5.07772e-06
-2.64364e-06
-7.05769e-06
1.17483e-06
-6.4476e-06
4.30721e-06
-3.52277e-06
5.89229e-06
2.10595e-06
5.80296e-06
9.50808e-06
3.32146e-06
1.87638e-05
-1.73095e-06
2.89925e-05
-9.50383e-06
3.99162e-05
-1.95453e-05
5.09312e-05
-3.24621e-05
6.24262e-05
-4.79382e-05
7.32533e-05
-6.5721e-05
8.31181e-05
-8.55447e-05
9.18022e-05
-0.000107039
9.90709e-05
-0.00012986
0.000104834
-0.000153622
0.000108932
-0.000177992
0.000111382
-0.000202635
0.000112047
-0.000227178
0.000110827
-0.000251188
0.00010761
-0.000274197
0.000102258
-0.0002957
9.47961e-05
-0.000315299
8.50431e-05
-0.000332395
7.29596e-05
-0.000346462
5.86834e-05
-0.000356978
4.22852e-05
-0.00036358
2.41646e-05
-0.000365687
4.4167e-06
-0.000363208
-1.68376e-05
-0.00035585
-3.86079e-05
-0.000343551
-6.07126e-05
-0.00032633
-8.27185e-05
-0.000304319
-0.000104161
-0.000277742
-0.000124599
-0.000246875
-0.000143643
-0.000212161
-0.000160844
-0.000174049
-0.000175828
-0.000133124
-0.000188225
-8.98295e-05
-0.000198615
-4.37517e-05
-0.000210844
-0.000200644
4.94736e-05
-0.000261016
0.00010182
-0.000274775
0.000150801
-0.00025845
0.000197068
-0.000244678
0.000239977
-0.000228151
0.000279019
-0.000208312
0.000313517
-0.000185462
0.000343108
-0.000160214
0.000367346
-0.000132924
0.000385957
-0.000104215
0.000398838
-7.47202e-05
0.00040578
-4.48758e-05
0.000406951
-1.54125e-05
0.000402521
1.33325e-05
0.0003929
4.00749e-05
0.000378462
6.49451e-05
0.000359853
8.6879e-05
0.000337668
0.000106056
0.00031264
0.000121909
0.000285496
0.000134432
0.000256855
0.000143556
0.000227404
0.000149389
0.000197774
0.000152081
0.000168469
0.000151871
0.000140017
0.000148944
0.000112802
0.000143556
8.72301e-05
0.000135935
6.37373e-05
0.000126203
4.26384e-05
0.000114722
2.42213e-05
0.000101725
9.11956e-06
8.71018e-05
-3.2902e-06
7.21226e-05
-1.24255e-05
5.69766e-05
-1.83652e-05
4.20541e-05
-2.10501e-05
2.77981e-05
-2.11094e-05
1.51269e-05
-1.83364e-05
3.5886e-06
-1.40254e-05
-4.78194e-06
-8.33262e-06
-1.07697e-05
-2.03092e-06
-1.33573e-05
4.11633e-06
-1.25923e-05
9.26617e-06
-8.67003e-06
1.27883e-05
-1.41422e-06
1.40247e-05
8.27284e-06
1.24421e-05
2.03469e-05
8.1432e-06
3.32913e-05
1.04038e-06
4.70187e-05
-9.44904e-06
6.14203e-05
-2.25855e-05
7.55626e-05
-3.88333e-05
8.95017e-05
-5.76761e-05
0.000101961
-7.87238e-05
0.00011285
-0.000101617
0.000121965
-0.000125946
0.000129163
-0.000151401
0.000134386
-0.000177578
0.000137559
-0.000204102
0.00013857
-0.000230649
0.000137374
-0.000256772
0.000133735
-0.00028199
0.000127476
-0.000305764
0.00011857
-0.000327631
0.00010691
-0.000346899
9.22292e-05
-0.000363045
7.48305e-05
-0.000375366
5.46047e-05
-0.000383529
3.23265e-05
-0.000387022
7.91017e-06
-0.000385229
-1.86297e-05
-0.000378176
-4.56621e-05
-0.000365769
-7.31187e-05
-0.000347978
-0.000100507
-0.000324946
-0.000127193
-0.00029692
-0.000152625
-0.000264215
-0.000176349
-0.000227297
-0.000197766
-0.000186616
-0.000216508
-0.000142867
-0.000231976
-9.6447e-05
-0.000245034
-4.69604e-05
-0.000260335
-0.000247601
5.36756e-05
-0.000314691
0.000110545
-0.000331645
0.000163731
-0.000311635
0.000213725
-0.000294672
0.000260095
-0.00027452
0.000302027
-0.000250243
0.000339093
-0.000222527
0.000370592
-0.000191714
0.000396275
-0.000158604
0.000415829
-0.00012377
0.000428896
-8.77886e-05
0.000435519
-5.14995e-05
0.000435784
-1.56773e-05
0.000429612
1.95036e-05
0.000417891
5.17959e-05
0.00040088
8.1955e-05
0.000379196
0.000108564
0.000353855
0.0001314
0.000325482
0.000150284
0.000294982
0.000164931
0.000263068
0.00017547
0.000230461
0.000181996
0.000197921
0.00018462
0.000165945
0.000183849
0.000135039
0.000179851
0.000105589
0.000173004
7.81709e-05
0.000163356
5.29488e-05
0.000151426
3.05216e-05
0.000137146
1.15506e-05
0.000120694
-4.54271e-06
0.000103196
-1.73462e-05
8.49285e-05
-2.63519e-05
6.59826e-05
-3.14426e-05
4.71461e-05
-3.27411e-05
2.90996e-05
-3.09518e-05
1.33416e-05
-2.6158e-05
-1.20184e-06
-1.89748e-05
-1.19633e-05
-1.033e-05
-1.94138e-05
-1.1327e-06
-2.25555e-05
7.87664e-06
-2.16037e-05
1.56225e-05
-1.64175e-05
2.15341e-05
-7.32666e-06
2.45053e-05
5.30135e-06
2.48877e-05
1.99645e-05
2.14902e-05
3.6689e-05
1.4231e-05
5.42782e-05
3.77249e-06
7.18789e-05
-1.05333e-05
8.98684e-05
-2.74407e-05
0.000106409
-4.75992e-05
0.000122119
-7.02388e-05
0.00013549
-9.48741e-05
0.0001466
-0.000121117
0.000155405
-0.000148593
0.000161862
-0.000176929
0.000165894
-0.000205751
0.000167391
-0.000234634
0.000166258
-0.000263252
0.000162354
-0.000291214
0.000155439
-0.000317871
0.000145227
-0.000342535
0.000131576
-0.000364657
0.000114352
-0.000383426
9.35994e-05
-0.000398237
6.94148e-05
-0.000408436
4.25263e-05
-0.000413274
1.27484e-05
-0.000412592
-1.93127e-05
-0.000405965
-5.22895e-05
-0.0003934
-8.5681e-05
-0.000374904
-0.000119
-0.000350647
-0.000151452
-0.000320826
-0.000182445
-0.000285906
-0.000211271
-0.00024621
-0.00023746
-0.000202402
-0.000260315
-0.000155073
-0.00027931
-0.000104752
-0.000295354
-5.09002e-05
-0.000314189
-0.000298505
5.88034e-05
-0.000373494
0.000121316
-0.000394158
0.000179514
-0.000369834
0.000234108
-0.000349265
0.000284513
-0.000324925
0.000330085
-0.000295814
0.000370025
-0.000262464
0.000404025
-0.000225715
0.000431532
-0.00018611
0.000452076
-0.000144315
0.000465521
-0.000101234
0.00047172
-5.76989e-05
0.000470671
-1.46299e-05
0.000462792
2.73828e-05
0.000448223
6.63653e-05
0.000427967
0.000102212
0.000402606
0.000133927
0.000373145
0.000160862
0.000340605
0.000182826
0.000305913
0.000199624
0.000270001
0.000211383
0.00023372
0.000218279
0.000197672
0.000220669
0.000162532
0.000218987
0.000128665
0.00021372
9.67398e-05
0.000204928
6.69122e-05
0.000193181
3.97826e-05
0.000178554
1.5738e-05
0.000161197
-4.87373e-06
0.00014131
-2.20652e-05
0.000120387
-3.48837e-05
9.77476e-05
-4.36065e-05
7.47082e-05
-4.77996e-05
5.13408e-05
-4.77486e-05
2.90494e-05
-4.33002e-05
8.89422e-06
-3.59789e-05
-8.52232e-06
-2.52672e-05
-2.26748e-05
-1.28752e-05
-3.1807e-05
2.74696e-07
-3.57069e-05
1.31448e-05
-3.44746e-05
2.41434e-05
-2.74157e-05
3.27188e-05
-1.59012e-05
3.82986e-05
-2.77716e-07
3.97294e-05
1.85337e-05
3.72809e-05
3.9137e-05
3.09648e-05
6.05936e-05
1.97479e-05
8.30951e-05
5.0423e-06
0.000104573
-1.3933e-05
0.000125383
-3.5251e-05
0.000143436
-5.9952e-05
0.00016019
-8.67991e-05
0.000173447
-0.000115328
0.000183935
-0.000145075
0.00019161
-0.000175812
0.000196631
-0.000207233
0.000198813
-0.000238988
0.000198015
-0.000270664
0.00019403
-0.000301839
0.000186614
-0.000331902
0.000175292
-0.00036017
0.000159846
-0.000385811
0.000139994
-0.000407968
0.000115756
-0.00042583
8.72758e-05
-0.000438406
5.51028e-05
-0.00044532
1.96623e-05
-0.000445867
-1.87662e-05
-0.000439858
-5.82968e-05
-0.000427056
-9.84811e-05
-0.000407651
-0.000138407
-0.000381866
-0.000177237
-0.000349949
-0.000214363
-0.000312221
-0.000249
-0.000269319
-0.00028036
-0.000221673
-0.000307959
-0.000170054
-0.000330927
-0.000114898
-0.000350512
-5.579e-05
-0.000373293
-0.000354291
6.49417e-05
-0.000438436
0.000134278
-0.000463495
0.000198706
-0.000434264
0.000258694
-0.000409252
0.00031392
-0.000380151
0.000363602
-0.000345497
0.000407185
-0.000306046
0.000444005
-0.000262534
0.000473599
-0.000215704
0.000495583
-0.0001663
0.000509555
-0.000115205
0.000515318
-6.34621e-05
0.000512837
-1.21468e-05
0.000502449
3.77729e-05
0.000484587
8.42287e-05
0.000460142
0.000126659
0.000430103
0.000163967
0.00039561
0.000195354
0.000357932
0.000220503
0.000318209
0.000239346
0.000277567
0.000252023
0.00023681
0.000259037
0.000196711
0.000260768
0.000157858
0.000257836
0.000120827
0.000250747
8.58659e-05
0.000239892
5.34275e-05
0.000225625
2.38299e-05
0.000208151
-1.74176e-06
0.000186765
-2.43122e-05
0.000163878
-4.26989e-05
0.000138773
-5.59268e-05
0.000110973
-6.41888e-05
8.29688e-05
-6.73334e-05
5.44852e-05
-6.57866e-05
2.75043e-05
-5.87836e-05
1.89351e-06
-4.77002e-05
-1.96039e-05
-3.35654e-05
-3.68088e-05
-1.62705e-05
-4.91025e-05
1.91842e-06
-5.38969e-05
1.9812e-05
-5.23681e-05
3.50255e-05
-4.26279e-05
4.69999e-05
-2.78744e-05
5.50128e-05
-8.29037e-06
5.85864e-05
1.49595e-05
5.73147e-05
4.04083e-05
5.04231e-05
6.74853e-05
3.91164e-05
9.44016e-05
2.30179e-05
0.000120671
2.60533e-06
0.000145794
-2.14106e-05
0.00016745
-4.79202e-05
0.000186699
-7.71369e-05
0.000202664
-0.000108163
0.000214962
-0.000140682
0.000224129
-0.000174253
0.000230202
-0.000208602
0.000233162
-0.000243546
0.00023296
-0.00027874
0.000229224
-0.000313639
0.000221512
-0.000347913
0.000209567
-0.000380463
0.000192397
-0.00041055
0.000170081
-0.000436985
0.000142189
-0.000458596
0.000108886
-0.000474355
7.08631e-05
-0.00048383
2.91369e-05
-0.000485821
-1.67726e-05
-0.000480388
-6.37256e-05
-0.0004674
-0.000111469
-0.000447014
-0.000158795
-0.000419323
-0.000204927
-0.000384871
-0.000248818
-0.000343994
-0.000289877
-0.000297133
-0.000327222
-0.000244993
-0.000360102
-0.000188191
-0.000387726
-0.000127334
-0.00041137
-6.16463e-05
-0.000438983
-0.000415937
7.22946e-05
-0.000510732
0.000150061
-0.000541263
0.000221653
-0.000505856
0.000288048
-0.000475646
0.000348893
-0.000440995
0.000403467
-0.000400071
0.00045118
-0.000353759
0.000491356
-0.00030271
0.000523522
-0.000247866
0.000547188
-0.000189966
0.000561882
-0.000129898
0.000567232
-6.88132e-05
0.000563144
-8.05832e-06
0.000549763
5.11548e-05
0.000527735
0.000106258
0.000498139
0.000156254
0.000462256
0.000199849
0.000421518
0.000236092
0.00037751
0.000264509
0.000331794
0.000285064
0.000285486
0.000298331
0.000239509
0.000305011
0.000194787
0.000305489
0.000151826
0.000300804
0.000111003
0.000291574
7.27792e-05
0.000278112
3.73905e-05
0.000261005
5.70747e-06
0.000239832
-2.31867e-05
0.00021566
-4.75576e-05
0.000188249
-6.67254e-05
0.00015794
-8.10019e-05
0.000125248
-8.93437e-05
9.13092e-05
-9.14034e-05
5.65443e-05
-8.74166e-05
2.35174e-05
-7.77122e-05
-7.81168e-06
-6.25021e-05
-3.48153e-05
-4.26087e-05
-5.67036e-05
-1.98385e-05
-7.18736e-05
4.24248e-06
-7.79776e-05
2.78599e-05
-7.5984e-05
4.81842e-05
-6.2951e-05
6.48368e-05
-4.45269e-05
7.61947e-05
-1.96489e-05
8.12777e-05
9.87658e-06
8.11904e-05
4.04962e-05
7.52882e-05
7.33878e-05
6.30483e-05
0.000106641
4.5037e-05
0.00013868
2.26825e-05
0.000168146
-4.27649e-06
0.000194408
-3.37311e-05
0.000216154
-6.60954e-05
0.00023503
-0.000100077
0.000248945
-0.000135421
0.000259473
-0.000171958
0.000266741
-0.000209586
0.000270791
-0.00024805
0.000271423
-0.000287127
0.0002683
-0.000326518
0.000260902
-0.000365444
0.000248493
-0.000403464
0.000230416
-0.000439092
0.000205708
-0.000470817
0.000173914
-0.00049735
0.000135421
-0.000517312
9.08274e-05
-0.000529342
4.11684e-05
-0.000533353
-1.27617e-05
-0.00052864
-6.84369e-05
-0.000515259
-0.00012485
-0.000493471
-0.000180583
-0.000463678
-0.000234719
-0.000426201
-0.000286297
-0.000381609
-0.000334467
-0.000330288
-0.00037854
-0.000272902
-0.000417488
-0.000210069
-0.000450562
-0.000142263
-0.000479175
-6.87303e-05
-0.000512512
-0.000484665
8.12114e-05
-0.000591945
0.000169152
-0.000629204
0.000249289
-0.000585994
0.000322992
-0.000549349
0.000390158
-0.00050816
0.00045028
-0.00046019
0.000502591
-0.000406068
0.000546774
-0.000346892
0.00058211
-0.000283202
0.000607967
-0.000215825
0.000623744
-0.000145674
0.000628863
-7.39311e-05
0.000622838
-2.03341e-06
0.000605724
6.82689e-05
0.000578722
0.000133261
0.000542628
0.000192347
0.000499335
0.000243141
0.000450916
0.000284512
0.000399342
0.000316082
0.000346319
0.000338086
0.000293212
0.00035144
0.000241483
0.000356744
0.000191522
0.000355449
0.000143933
0.000348387
9.92064e-05
0.000336295
5.73773e-05
0.000319945
1.85469e-05
0.000299841
-1.65274e-05
0.000274907
-4.77684e-05
0.0002469
-7.44269e-05
0.000214908
-9.56154e-05
0.000179129
-0.000110936
0.000140569
-0.000119286
9.96598e-05
-0.000120584
5.78427e-05
-0.000114472
1.7406e-05
-0.000100982
-2.13034e-05
-8.06215e-05
-5.51775e-05
-5.49529e-05
-8.23723e-05
-2.49046e-05
-0.000101921
8.11645e-06
-0.000110998
3.98534e-05
-0.00010772
6.67182e-05
-8.98161e-05
8.71209e-05
-6.49304e-05
0.000101406
-3.39352e-05
0.000109685
1.59733e-06
0.000110281
3.99003e-05
0.00010383
7.9839e-05
9.06165e-05
0.000119853
7.09397e-05
0.000158355
4.55901e-05
0.000193494
1.538e-05
0.000224619
-1.84526e-05
0.000249988
-5.37988e-05
0.000270378
-9.103e-05
0.000286177
-0.00012946
0.000297903
-0.000169135
0.000306416
-0.000210142
0.000311796
-0.000252382
0.000313661
-0.000295664
0.00031158
-0.000339979
0.000305215
-0.000384824
0.000293338
-0.00042912
0.000274712
-0.000471466
0.000248054
-0.000510055
0.000212505
-0.000542776
0.000168143
-0.000567813
0.000115863
-0.00058363
5.69864e-05
-0.000589684
-6.70461e-06
-0.000585599
-7.25218e-05
-0.000571612
-0.000138838
-0.000548135
-0.000204057
-0.000515719
-0.000267136
-0.000474862
-0.000327148
-0.000425954
-0.000383375
-0.000369541
-0.000434955
-0.00030611
-0.000480917
-0.000236336
-0.000520335
-0.00016036
-0.000555152
-7.7186e-05
-0.000595683
-0.000561851
9.17842e-05
-0.00068373
0.000192318
-0.000729738
0.000282549
-0.000676225
0.000364448
-0.000631248
0.000438664
-0.000582376
0.000504776
-0.000526302
0.000562437
-0.000463729
0.00061117
-0.000395625
0.000650349
-0.00032238
0.000679118
-0.000244594
0.000696535
-0.000163093
0.000701633
-7.90291e-05
0.000693697
5.90271e-06
0.000672342
8.96239e-05
0.000638913
0.00016669
0.000594761
0.0002365
0.000542028
0.000295874
0.000483943
0.000342597
0.000422948
0.000377076
0.000361151
0.000399881
0.000300752
0.000411836
0.000242205
0.00041529
0.000186583
0.000411072
0.000134181
0.000400793
8.51904e-05
0.000385291
3.96454e-05
0.000365489
-2.04833e-06
0.000341532
-4.06521e-05
0.00031351
-7.62078e-05
0.000282456
-0.000105798
0.000244501
-0.000129398
0.000202731
-0.000145815
0.000156986
-0.000154259
0.000108101
-0.000154297
5.78795e-05
-0.000146762
9.86943e-06
-0.000128966
-3.90995e-05
-0.0001032
-8.09431e-05
-7.03907e-05
-0.00011518
-3.13775e-05
-0.000140933
1.39226e-05
-0.000156297
5.78292e-05
-0.000151627
9.04635e-05
-0.000122451
0.000115005
-8.94735e-05
0.00013256
-5.14911e-05
0.000142349
-8.19155e-06
0.000142255
3.99938e-05
0.000135807
8.62853e-05
0.000121874
0.000133784
0.00010018
0.000180049
7.12345e-05
0.00022244
3.65765e-05
0.000259278
-1.09607e-06
0.000287662
-4.04709e-05
0.000309753
-8.13555e-05
0.000327061
-0.000122965
0.000339511
-0.000165929
0.000349379
-0.000210359
0.000356225
-0.000256216
0.000359516
-0.000303866
0.000359228
-0.000353481
0.00035483
-0.000404969
0.000344827
-0.000457195
0.000326939
-0.000508211
0.000299072
-0.000555485
0.000259782
-0.000596168
0.000208829
-0.000627548
0.000147243
-0.000647946
7.73847e-05
-0.000656347
1.69664e-06
-0.000652701
-7.61706e-05
-0.00063764
-0.0001539
-0.00061194
-0.000229755
-0.000576386
-0.000302696
-0.000531621
-0.000371912
-0.000477975
-0.000437022
-0.000415888
-0.000497043
-0.000345724
-0.000551083
-0.000267974
-0.000598083
-0.000182417
-0.000640708
-8.73095e-05
-0.000690789
-0.000649162
0.000104638
-0.000788367
0.000221241
-0.000846342
0.000323088
-0.000778072
0.000413761
-0.00072192
0.000495362
-0.000663975
0.000568104
-0.000599044
0.00063168
-0.000527304
0.000685637
-0.000449583
0.00072935
-0.000366096
0.000761959
-0.000277204
0.000781962
-0.000183096
0.000787701
-8.4767e-05
0.000777739
1.58641e-05
0.000751731
0.000115632
0.000710234
0.000208187
0.000655309
0.000291425
0.000590939
0.00036024
0.000520438
0.000413094
0.000447751
0.000449763
0.000375998
0.000471638
0.000306626
0.00048121
0.000241116
0.0004808
0.000179282
0.000472907
0.000121713
0.000458359
6.84261e-05
0.000438575
1.8804e-05
0.00041511
-2.65828e-05
0.000386918
-6.99914e-05
0.000356917
-0.000108356
0.00032082
-0.000141509
0.000277653
-0.000168104
0.000229326
-0.000186176
0.000175058
-0.000195712
0.000117637
-0.000196568
5.87351e-05
-0.000183048
-3.64883e-06
-0.000161199
-6.09476e-05
-0.000130022
-0.000112119
-8.97336e-05
-0.000155468
-3.91373e-05
-0.00019153
2.16733e-05
-0.000217108
7.90417e-05
-0.000208996
0.000120703
-0.000164113
0.000149898
-0.00011867
0.000168776
-7.03701e-05
0.000179794
-1.92113e-05
0.000182737
3.70498e-05
0.000174932
9.40899e-05
0.000158419
0.000150297
0.000134508
0.000203961
0.000101778
0.000255172
6.32125e-05
0.000297844
1.89238e-05
0.000331951
-2.67115e-05
0.000355388
-7.12102e-05
0.000371559
-0.000115921
0.000384222
-0.000161958
0.000395416
-0.00020965
0.000403916
-0.00025913
0.000408995
-0.000310888
0.000410986
-0.000366127
0.000410071
-0.000425239
0.000403939
-0.000487151
0.000388851
-0.000549317
0.000361239
-0.000608105
0.000318571
-0.000659173
0.000259899
-0.000698886
0.000186956
-0.000724606
0.000103104
-0.000735429
1.25179e-05
-0.000731624
-7.99758e-05
-0.000714654
-0.000170873
-0.000685973
-0.000258438
-0.000646732
-0.000341936
-0.000597552
-0.000421092
-0.000538781
-0.000495793
-0.000470499
-0.000565323
-0.000393024
-0.000628558
-0.000306641
-0.000684466
-0.000209884
-0.000737466
-9.97348e-05
-0.000800939
-0.000748898
0.000119119
-0.000907486
0.000256441
-0.000983663
0.000371825
-0.000893455
0.000471596
-0.000821692
0.000560725
-0.000753105
0.000640041
-0.000678361
0.00070956
-0.000596823
0.000769195
-0.000509219
0.000818546
-0.000415448
0.000856221
-0.000314879
0.000880313
-0.000207188
0.000888064
-9.25173e-05
0.000876676
2.72529e-05
0.000845129
0.000147179
0.000793277
0.000260038
0.000724876
0.000359825
0.000644526
0.000440591
0.00055832
0.000499303
0.000471324
0.000536758
0.000387219
0.00055574
0.000308345
0.000560082
0.000234866
0.000554279
0.000166744
0.000541027
0.000103648
0.000521453
4.60721e-05
0.000496149
-6.25017e-06
0.000467432
-5.63938e-05
0.000437061
-0.000104077
0.000404599
-0.000147538
0.00036428
-0.000185296
0.000315411
-0.000213404
0.000257434
-0.000231719
0.000193373
-0.000239031
0.000124951
-0.000237026
5.67322e-05
-0.000227561
-1.31127e-05
-0.000202686
-8.58215e-05
-0.00016705
-0.000147754
-0.000118102
-0.000204416
-5.09673e-05
-0.000258664
2.86577e-05
-0.000296732
0.000104102
-0.000284441
0.000161488
-0.0002215
0.000197937
-0.000155121
0.000217541
-8.99757e-05
0.000226096
-2.77663e-05
0.000221502
4.16437e-05
0.00021272
0.000102874
0.000197973
0.000165046
0.000174771
0.000227165
0.000140901
0.000289042
9.40566e-05
0.00034469
4.07292e-05
0.000385279
-1.07275e-05
0.000406844
-5.81127e-05
0.000418945
-0.000105097
0.000431208
-0.000154217
0.000444536
-0.000205532
0.00045523
-0.000258513
0.000461976
-0.000313855
0.000466328
-0.000374478
0.000470695
-0.000442258
0.000471719
-0.000516131
0.000462724
-0.000592909
0.000438019
-0.000667206
0.00039287
-0.000732531
0.000325222
-0.000782911
0.000237336
-0.00081486
0.000135053
-0.000827746
2.5403e-05
-0.000822593
-8.51313e-05
-0.000802301
-0.000191165
-0.000769503
-0.000291238
-0.000725872
-0.000385563
-0.00067215
-0.000474814
-0.00060824
-0.000559704
-0.000533918
-0.000639644
-0.000449102
-0.000713374
-0.000353387
-0.000780184
-0.00024372
-0.000847132
-0.000114063
-0.000930597
-0.000862962
0.000136775
-0.00104426
0.000298058
-0.00114495
0.00042798
-0.00102338
0.000536743
-0.000930455
0.00063282
-0.000849182
0.000718272
-0.000763813
0.000793321
-0.000671873
0.000858586
-0.000574483
0.000914224
-0.000471087
0.000959121
-0.000359775
0.000990246
-0.000238314
0.00100323
-0.000105496
0.000991755
3.87242e-05
0.00095401
0.000184925
0.000889593
0.000324456
0.000802606
0.000446812
0.000701538
0.000541658
0.0005951
0.00060574
0.000490661
0.000641196
0.000393098
0.000653304
0.000304003
0.000649179
0.000222964
0.000635318
0.000149016
0.000614976
8.26076e-05
0.000587863
2.3633e-05
0.000555126
-3.01433e-05
0.000521209
-8.2442e-05
0.000489359
-0.000135443
0.0004576
-0.000184839
0.000413675
-0.000228265
0.000358838
-0.000262538
0.000291708
-0.00028691
0.000217747
-0.000300152
0.000138194
-0.000294363
5.0944e-05
-0.00026765
-3.98256e-05
-0.000232458
-0.000121013
-0.000190262
-0.00018995
-0.000134461
-0.000260216
-5.71117e-05
-0.000336011
3.09882e-05
-0.000384831
0.000119245
-0.000372697
0.000190682
-0.000292938
0.000234598
-0.000199038
0.000252918
-0.000108297
0.000260723
-3.55708e-05
0.000269733
3.26349e-05
0.000268898
0.00010371
0.000251884
0.000182061
0.000216484
0.000262565
0.000165156
0.000340371
0.000104269
0.000405577
4.36955e-05
0.000445853
-1.39163e-05
0.000464457
-6.16539e-05
0.000466683
-0.000104233
0.000473789
-0.00014922
0.000489525
-0.000199464
0.000505475
-0.000253703
0.000516215
-0.000311332
0.000523958
-0.000375665
0.000535029
-0.000452234
0.000548287
-0.000540362
0.000550851
-0.000636
0.000533658
-0.000731257
0.000488128
-0.000815985
0.00040995