/*--------------------------------*- C++ -*----------------------------------*\
| =========                 |                                                 |
| \\      /  F ield         | OpenFOAM: The Open Source CFD Toolbox           |
|  \\    /   O peration     | Version:  2412                                  |
|   \\  /    A nd           | Website:  www.openfoam.com                      |
|    \\/     M anipulation  |                                                 |
\*---------------------------------------------------------------------------*/
FoamFile
{
    version     2.0;
    format      ascii;
    arch        "LSB;label=32;scalar=64";
    class       volScalarField;
    location    "2.65";
    object      alpha.oil;
}
// * * * * * * * * * * * * * * * * * * * * * * * * * * * * * * * * * * * * * //

dimensions      [0 0 0 0 0 0 0];

internalField   nonuniform List<scalar> 
6400
(
1
0.999999
1
1
1
1
1
1
1
1
1
1
1
1
1
1
1
1
1
1
1
1
1
1
1
1
1
1
1
1
1
0.999999
0.999999
0.999999
0.999999
0.999999
0.999999
1
1
1
1
1
1
1
1
1
1
1
1
1
1
1
1
1
1
1
1
1
1
1
1
1
0.999999
0.999999
0.999999
1
1
1
1
1
1
1
1
0.999999
0.999999
0.999999
1
1
1
1
1
1
1
1
1
1
1
1
1
1
1
1
1
1
1
1
1
1
1
1
1
1
1
1
1
1
1
1
1
1
0.999999
0.999999
0.999999
0.999999
0.999999
1
1
1
1
1
1
1
1
1
1
1
1
1
1
1
1
1
1
1
1
1
1
1
1
1
0.999999
0.999999
0.999999
0.999999
0.999999
0.999999
1
1
1
1
1
0.999999
0.999999
0.999999
0.999999
1
1
1
1
1
1
1
1
1
1
1
1
1
1
1
1
1
1
1
1
1
0.999999
0.999999
0.999999
0.999999
1
1
1
1
1
1
1
1
1
1
1
1
1
1
1
1
1
1
1
1
1
1
1
1
1
1
1
1
1
1
1
1
1
1
1
1
1
1
1
1
1
1
1
1
1
1
1
1
1
1
1
0.999999
0.999999
0.999999
1
1
1
1
0.999999
0.999999
1
1
1
1
1
1
1
1
1
0.999999
1
1
0.999999
0.999999
0.999999
0.999999
0.999999
0.999999
0.999999
0.999999
0.999999
1
1
1
1
1
1
1
1
1
1
1
1
1
1
1
1
1
1
1
1
1
1
1
1
1
1
1
1
1
1
1
1
1
1
1
1
1
1
1
1
1
1
1
1
1
1
1
1
1
1
1
1
1
1
1
1
0.999999
0.999999
1
1
1
1
1
1
1
1
1
1
0.999999
1
1
0.999999
0.999999
0.999999
1
1
1
1
1
1
1
1
1
1
1
1
1
1
1
1
1
1
1
1
1
1
1
1
1
1
1
0.999999
1
1
1
1
1
1
1
1
1
1
1
1
1
1
1
1
1
1
1
1
1
1
1
1
1
1
1
1
1
1
1
1
0.999999
0.999999
0.999999
1
1
1
1
1
1
1
1
1
1
1
1
1
1
1
1
1
1
1
1
1
1
1
1
1
1
1
1
1
1
1
1
1
1
1
1
1
1
0.999999
0.999999
0.999999
0.999999
0.999999
0.999999
0.999999
0.999999
0.999999
0.999999
1
1
1
1
1
1
1
1
1
1
1
1
1
1
1
1
0.999999
0.999999
0.999999
0.999999
0.999999
0.999999
0.999999
0.999999
1
1
1
1
1
0.999999
0.999999
0.999999
1
1
1
1
1
1
1
1
1
1
1
1
1
1
1
1
1
1
1
1
1
1
1
1
1
1
1
0.999999
0.999999
0.999999
0.999999
0.999999
0.999999
1
1
1
1
1
1
0.999999
0.999999
0.999999
1
1
0.999999
0.999999
0.999999
0.999999
1
1
1
1
1
1
1
1
1
1
1
1
1
1
1
1
1
0.999999
0.999999
0.999999
0.999999
0.999999
0.999999
1
1
1
1
1
1
0.999999
0.999999
1
1
0.999999
1
0.999999
0.999999
0.999999
1
1
1
1
1
1
1
1
1
1
1
1
1
1
1
1
1
1
1
1
1
0.999999
0.999999
0.999999
0.999999
0.999999
0.999999
0.999999
1
1
1
1
1
1
1
1
1
1
1
1
1
1
1
1
1
1
1
1
1
1
1
1
1
1
1
1
1
1
1
1
1
1
1
1
1
1
1
1
1
1
1
1
1
1
1
1
1
0.999999
0.999999
0.999999
0.999999
1
1
1
1
1
1
1
1
1
1
1
1
1
1
1
1
1
1
1
1
1
1
0.999999
0.999999
0.999999
0.999999
0.999999
0.999999
1
1
1
1
1
1
1
1
1
1
1
1
1
1
1
1
1
1
1
1
1
1
1
1
1
1
1
1
1
1
1
1
1
1
1
1
1
1
1
1
1
1
1
1
1
0.999999
1
0.999999
0.999998
0.999998
0.999999
0.999999
1
1
1
1
1
1
1
1
1
1
1
1
1
1
1
1
1
1
1
1
1
1
1
1
1
0.999999
0.999999
0.999999
0.999999
0.999999
1
1
0.999999
0.999999
0.999999
0.999999
0.999999
1
1
1
1
1
1
1
1
1
1
1
1
1
1
1
1
1
1
1
1
1
1
1
1
1
1
1
1
1
1
1
1
1
1
1
0.999999
1
1
0.999999
0.999998
0.999998
0.999998
0.999998
0.999999
1
1
1
1
1
1
1
1
1
1
1
1
1
1
1
1
1
1
1
1
1
1
1
1
1
1
1
1
1
1
1
1
1
0.999999
1
1
1
1
1
1
1
1
1
1
1
1
1
1
1
1
1
1
1
1
1
1
1
1
1
1
1
1
1
1
1
1
1
1
1
1
0.999999
0.999999
1
0.999999
0.999999
0.999998
0.999999
0.999999
0.999998
0.999999
1
1
1
1
1
1
1
1
1
1
1
1
1
1
1
1
1
1
1
1
0.999999
1
1
1
1
1
1
1
1
1
1
1
1
1
1
1
1
1
1
1
1
1
1
1
0.999999
0.999999
0.999999
0.999999
1
1
1
1
1
1
1
1
1
1
1
1
1
1
1
1
0.999999
0.999999
0.999999
0.999999
0.999999
0.999998
0.999998
0.999999
0.999999
0.999998
0.999999
0.999998
0.999999
0.999999
1
0.999999
0.999999
1
1
1
1
1
1
1
1
1
1
1
1
1
1
1
1
1
1
0.999999
0.999999
0.999999
1
1
1
1
1
1
1
1
1
1
1
1
1
1
1
1
1
1
1
1
1
1
1
1
1
1
1
1
1
1
1
1
1
1
1
1
1
1
1
1
1
1
1
0.999999
0.999999
0.999999
0.999999
0.999998
0.999999
1
0.999998
0.999999
0.999999
0.999999
0.999999
1
1
1
1
1
1
1
1
1
1
1
1
1
1
1
1
1
1
1
1
1
1
1
0.999999
0.999999
0.999999
0.999999
0.999999
0.999999
0.999999
0.999999
0.999999
0.999999
0.999999
0.999999
0.999999
0.999999
1
1
1
1
1
1
1
0.999999
0.999999
0.999999
1
1
1
1
1
1
1
1
1
1
1
1
1
1
1
1
1
1
1
1
1
1
1
1
0.999999
0.999999
1
1
0.999999
1
1
1
1
1
1
1
1
1
1
1
1
1
1
1
1
1
1
1
1
1
1
1
1
1
1
1
1
0.999999
0.999999
0.999999
0.999999
0.999999
0.999999
0.999999
0.999999
0.999999
0.999999
0.999999
0.999999
0.999999
0.999999
0.999999
0.999999
0.999999
0.999999
0.999999
0.999999
0.999999
0.999999
0.999999
0.999999
0.999999
0.999999
0.999999
0.999999
1
1
1
1
1
1
1
1
1
1
1
1
1
1
1
1
1
1
0.999999
0.999999
0.999999
1
0.999998
1
1
1
1
1
1
1
1
1
1
1
1
1
1
1
1
1
1
1
1
1
1
1
1
1
1
1
1
1
1
1
0.999999
0.999999
0.999999
0.999999
1
1
0.999999
0.999999
0.999999
0.999999
0.999999
0.999999
0.999998
0.999998
0.999998
0.999998
0.999999
0.999999
0.999999
0.999999
1
1
1
0.999999
1
1
1
1
1
1
1
1
1
1
1
1
1
1
1
1
1
1
1
1
0.999999
0.999999
0.999999
0.999999
0.999998
1
0.999998
1
1
1
1
1
1
1
1
1
1
1
1
1
1
1
1
1
1
1
1
1
1
1
1
1
1
1
1
1
1
0.999999
0.999999
0.999999
0.999999
0.999999
0.999999
1
0.999999
0.999999
0.999999
0.999999
0.999999
0.999998
0.999998
0.999999
0.999999
0.999999
0.999999
0.999999
1
1
1
1
1
1
1
1
1
1
1
1
1
1
1
1
1
1
1
1
1
1
1
1
1
1
1
0.999999
0.999999
1
1
1
1
1
1
1
1
1
1
1
1
1
1
1
1
1
1
1
1
1
1
1
1
1
1
1
1
1
1
1
1
1
0.999999
0.999999
0.999999
0.999999
0.999999
1
0.999999
0.999999
0.999999
0.999999
0.999999
0.999998
0.999998
0.999999
0.999999
0.999999
0.999999
0.999999
1
1
1
1
1
1
1
1
1
1
1
1
1
1
1
1
1
1
1
1
1
1
1
1
1
1
1
1
0.999999
1
1
1
1
1
1
1
1
1
1
1
1
1
1
1
1
1
1
1
1
1
1
1
1
1
1
1
1
1
1
1
0.999999
0.999999
0.999999
0.999998
0.999998
0.999999
0.999999
0.999999
0.999999
0.999999
0.999998
0.999998
0.999998
0.999998
0.999998
0.999998
0.999998
0.999998
0.999998
0.999999
0.999999
0.999999
0.999999
1
1
1
1
1
1
1
1
1
1
1
1
1
1
1
1
1
1
1
1
1
1
1
1
1
1
1
1
0.881803
0.819315
0.787634
0.773318
0.76884
0.770846
0.777016
0.786062
0.797274
0.810149
0.824278
0.839146
0.854163
0.868884
0.882772
0.895084
0.9061
0.916898
0.927427
0.937051
0.944899
0.950619
0.953956
0.956738
0.961027
0.964471
0.96543
0.963778
0.960193
0.952471
0.942762
0.934855
0.929478
0.932534
0.936366
0.93815
0.940152
0.942183
0.941053
0.941789
0.942685
0.940068
0.939624
0.941211
0.938596
0.939859
0.936344
0.925909
0.929107
0.935704
0.944773
0.953447
0.959198
0.961644
0.962404
0.960007
0.955394
0.951859
0.948681
0.943637
0.936353
0.92721
0.916498
0.905217
0.893643
0.881719
0.868449
0.853691
0.838373
0.823128
0.808472
0.795006
0.78323
0.773699
0.767086
0.764663
0.768809
0.783029
0.815129
0.878681
0.0932336
0.0737407
0.0634876
0.0587955
0.057935
0.0597517
0.0635352
0.068999
0.0760328
0.084078
0.0935575
0.104667
0.11729
0.131792
0.148558
0.167367
0.187311
0.20352
0.218794
0.233718
0.249678
0.267872
0.285357
0.299012
0.302975
0.302924
0.305014
0.306933
0.30764
0.310113
0.319864
0.319233
0.297596
0.278087
0.282971
0.2758
0.258986
0.250814
0.245156
0.24078
0.239248
0.242821
0.24796
0.253639
0.262723
0.279808
0.28065
0.283804
0.306388
0.319187
0.312684
0.306228
0.305181
0.303282
0.300077
0.298444
0.296305
0.286028
0.269028
0.250433
0.23347
0.218544
0.203501
0.188446
0.172142
0.152761
0.134947
0.119361
0.106035
0.0945359
0.0844808
0.0761679
0.0690565
0.0632628
0.0591932
0.0571121
0.0577384
0.0622637
0.0725669
0.0923371
1.6368e-11
1.6368e-11
1.6368e-11
1.00409e-07
3.32835e-07
6.56088e-07
1.36479e-06
3.74185e-06
4.43426e-05
0.000323064
0.000723563
0.00110237
0.00153523
0.00187948
0.00173852
0.00107446
0.000221692
0.00114661
0.00207217
0.00296416
0.00314176
0.00202687
0.000871043
0.000312268
0.00112674
0.00253564
0.00339414
0.00439419
0.00523598
0.00587249
0.00555347
0.0077887
0.0185055
0.0227532
0.00917359
2.62895e-08
3.73669e-08
4.30436e-08
3.60833e-08
2.79496e-08
2.07966e-08
1.6396e-08
1.51592e-08
1.3832e-08
9.74962e-09
6.92217e-09
0.0129809
0.0223065
0.0145607
0.00714461
0.00529072
0.00471501
0.00386511
0.00302149
0.00212164
0.00119283
0.00107576
0.00124483
0.00237023
0.0034211
0.0035445
0.0027724
0.00194515
0.0010745
0.000181762
0.00101321
0.00154092
0.00165737
0.00137015
0.000969034
0.000599768
0.000220894
5.96303e-06
2.57316e-06
8.75884e-07
4.68526e-07
1.73474e-07
1.94792e-11
1.94792e-11
1.94792e-11
1.6368e-11
3.714e-11
6.1408e-11
4.15117e-10
4.05874e-09
9.77129e-09
3.04976e-07
1.59882e-06
5.65171e-05
0.00143864
0.00205867
0.00205867
0.00200769
0.00199128
0.00202465
0.00172332
0.000151337
0.00413798
0.00589252
0.00589296
0.00589252
0.00547909
0.00388777
0.000253011
0.00718286
0.0135674
0.0135665
0.0135682
0.0132051
0.0113532
0.00355188
1.07073e-07
2.44859e-08
2.45025e-08
2.44865e-08
2.45247e-08
2.62895e-08
7.03396e-07
2.12121e-06
2.73285e-06
2.35242e-06
1.46129e-06
2.33021e-07
1.09017e-08
9.47147e-09
6.79157e-09
6.82051e-09
6.79157e-09
6.82051e-09
0.000419952
0.00818143
0.0134189
0.013806
0.0145849
0.0145858
0.0130007
0.0011928
0.00265329
0.00684841
0.00745157
0.00745053
0.00745151
0.00744673
0.00383551
9.92127e-05
0.00155614
0.00174911
0.00173226
0.00173768
0.00175778
0.00175647
0.000421341
2.57316e-06
1.27231e-06
2.66333e-08
6.93018e-09
1.48318e-09
3.10777e-11
4.17878e-11
1.94792e-11
1.76328e-11
3.42383e-11
6.1103e-11
2.14285e-11
1.25614e-10
5.88855e-10
3.36346e-07
3.14597e-06
5.13112e-06
1.14112e-05
0.000372929
0.00116233
0.00166661
0.00178645
0.00134907
0.000756729
5.28154e-05
0.00047075
0.00148175
0.00369472
0.00411708
0.00208444
0.000961505
0.000252175
0.000797668
0.000573791
0.00117052
0.000793488
0.000137119
1.97266e-10
2.43307e-10
5.15907e-09
5.52008e-08
2.45025e-08
2.45247e-08
2.48701e-08
4.02485e-08
2.70482e-06
4.33902e-06
4.33796e-06
4.33964e-06
3.96823e-06
4.59897e-07
1.43337e-08
1.22784e-08
6.92217e-09
7.63121e-09
9.39014e-09
4.48197e-07
1.80652e-08
6.00976e-10
2.68343e-10
0.00033319
0.00116298
0.00095094
0.000789399
0.000687736
0.00131704
0.00195082
0.00421038
0.00519784
0.00334486
0.000598228
0.000400734
9.02648e-05
0.000862359
0.00158431
0.00159575
0.00122078
0.000627309
2.63388e-05
1.0598e-05
5.40495e-06
1.88235e-06
7.88713e-09
3.87044e-10
3.48938e-11
4.95312e-11
3.62243e-11
2.0207e-11
8.31992e-12
7.35011e-12
1.23258e-11
1.47989e-11
4.66658e-11
4.6418e-10
6.99747e-10
9.82002e-07
3.43488e-06
3.44062e-06
2.985e-06
2.4998e-06
3.56131e-06
9.00138e-06
2.31363e-05
1.85905e-05
1.00138e-05
7.30234e-09
7.30234e-09
7.13874e-09
7.37753e-09
8.20494e-09
5.14143e-07
2.53578e-05
2.08004e-10
1.95604e-10
1.94924e-10
1.94243e-10
1.94924e-10
1.95482e-10
1.97266e-10
2.43307e-10
3.85115e-09
3.2868e-07
1.04405e-06
1.32803e-06
5.50588e-07
1.32722e-07
2.5506e-06
4.33971e-06
2.22599e-06
6.33099e-07
1.06514e-07
2.46146e-08
2.48522e-08
2.05707e-08
9.48324e-09
6.77539e-09
9.49418e-09
7.47212e-10
4.14579e-10
2.52986e-10
2.44865e-10
2.34354e-10
2.06421e-10
2.17068e-10
8.52696e-05
8.95536e-06
1.17964e-08
7.4274e-09
6.79575e-09
7.22037e-09
7.21985e-09
7.16002e-09
2.33433e-05
7.73151e-05
3.53094e-05
1.57551e-05
1.11735e-05
1.65868e-06
3.08645e-06
3.43356e-06
2.74657e-06
1.57234e-06
7.10318e-10
4.11593e-11
1.54791e-11
1.502e-11
8.14595e-12
9.46681e-12
3.88242e-12
3.88242e-12
3.86649e-12
4.04669e-12
1.07115e-11
1.72855e-10
2.36127e-09
3.44944e-08
6.47174e-07
5.27719e-06
3.88947e-06
4.28334e-08
4.37444e-08
4.84912e-08
4.83491e-08
2.67359e-08
1.26848e-08
1.09798e-08
2.89218e-08
5.46715e-08
6.43563e-08
1.17985e-07
1.04834e-07
3.43177e-11
2.15747e-10
2.14105e-10
2.06733e-10
1.93741e-10
1.94243e-10
1.96708e-10
2.43307e-10
3.02792e-09
8.00606e-07
1.53333e-06
1.5471e-06
1.53333e-06
8.01366e-07
5.87774e-09
9.62909e-07
4.33594e-06
4.11133e-08
4.1156e-08
1.81851e-07
2.98201e-08
1.34946e-08
1.34353e-08
8.59594e-09
6.73625e-09
5.79167e-09
3.27531e-09
1.91789e-09
1.51942e-09
1.03688e-09
4.8398e-10
1.97686e-10
2.12299e-10
1.86607e-10
1.13725e-07
1.35221e-07
7.90996e-08
7.1287e-09
6.79333e-09
7.21895e-09
7.39728e-09
7.94556e-09
6.72923e-08
6.07893e-08
4.12935e-08
3.15396e-08
1.09507e-06
3.8676e-06
1.0737e-06
2.65582e-08
2.38e-09
1.1777e-10
1.0868e-11
5.31072e-12
5.0603e-12
5.09679e-12
5.09678e-12
3.89172e-12
3.33997e-12
-4.4205e-11
-1.64044e-10
-4.00979e-10
8.33771e-10
8.03977e-05
0.000255154
7.03349e-05
6.96892e-08
4.28687e-08
4.28687e-08
4.27888e-08
4.24014e-08
3.14514e-08
1.69241e-08
1.45719e-08
1.43733e-08
2.33836e-08
2.44936e-08
5.36448e-09
1.83913e-10
3.43177e-11
2.43397e-11
3.00367e-10
3.00802e-10
2.11155e-10
1.94498e-10
2.03465e-10
2.0797e-10
2.10697e-10
4.04818e-10
2.48823e-07
1.33932e-06
1.54301e-06
1.27777e-06
1.21419e-07
5.87656e-09
2.37451e-06
3.35965e-06
3.92872e-08
3.9746e-08
1.82463e-07
6.32414e-09
6.32414e-09
6.32414e-09
7.09131e-09
8.63731e-09
8.73889e-09
8.73827e-09
8.66718e-09
5.50902e-09
1.66684e-09
2.03639e-10
1.93294e-10
3.62819e-10
1.71668e-10
1.29337e-10
1.8075e-10
2.63334e-10
1.56941e-09
9.96172e-09
9.18665e-09
8.67265e-09
9.28803e-09
9.26037e-09
1.79903e-08
1.63691e-08
1.56253e-08
1.55796e-08
4.03064e-08
3.68722e-05
0.000226426
0.000102765
1.37181e-09
-5.44479e-10
-5.06117e-10
-1.89275e-11
4.05971e-12
5.10454e-12
4.91261e-12
1.38764e-11
1.08774e-09
6.72244e-08
1.30601e-06
7.7694e-05
0.000396515
0.000387895
0.000307481
1.58642e-05
4.63572e-08
4.28687e-08
4.37444e-08
4.15376e-08
3.13455e-08
2.3965e-08
1.69241e-08
5.93667e-08
8.23801e-08
8.24619e-08
7.62526e-08
1.49842e-08
3.96422e-09
1.6716e-11
7.2078e-11
9.74893e-11
1.02621e-10
1.18608e-10
1.77347e-10
1.96677e-10
2.02942e-10
5.25725e-10
3.84219e-09
7.16863e-08
2.39857e-07
7.7818e-08
1.39908e-08
8.94305e-09
2.5891e-06
1.83509e-08
6.05544e-09
2.37819e-08
1.29129e-07
6.32512e-09
6.32414e-09
6.47011e-09
7.09263e-09
6.97495e-09
5.81275e-09
2.84964e-09
7.22317e-10
1.93003e-10
9.59542e-11
6.80041e-11
7.2253e-11
1.84106e-10
1.69391e-10
1.18778e-10
1.29337e-10
1.59666e-08
5.46614e-08
1.32779e-07
1.24165e-07
4.89954e-08
1.55081e-08
1.79911e-08
1.63702e-08
1.56253e-08
1.54772e-08
1.55796e-08
1.55653e-08
0.000105773
0.000397631
0.000415316
0.000119358
1.63742e-06
1.21332e-07
2.63313e-09
2.15876e-11
6.62866e-12
2.37301e-11
2.1647e-10
1.88926e-08
6.17293e-07
4.31171e-05
0.000384152
0.000397545
0.000396514
0.000387898
0.000136259
4.79108e-08
1.10078e-07
5.70552e-08
6.08769e-08
4.06579e-08
1.8997e-08
2.21568e-08
3.07903e-08
7.0702e-08
8.1913e-08
7.91791e-08
7.69941e-08
2.00008e-08
1.65752e-11
1.67544e-11
3.4936e-11
4.19271e-11
3.88326e-11
1.23153e-10
2.29934e-10
3.63766e-10
6.32427e-10
4.30415e-09
1.24824e-08
1.92019e-08
3.0946e-08
1.94914e-08
9.59235e-09
2.58908e-06
1.75023e-07
3.51666e-09
5.18532e-09
3.33765e-08
3.62488e-08
1.96304e-08
1.5653e-08
3.45864e-09
3.36383e-10
1.52776e-10
1.5068e-10
1.49915e-10
1.35343e-10
9.60828e-11
4.78937e-11
2.57989e-11
1.15496e-11
3.78088e-12
4.21095e-12
1.72302e-08
1.30947e-07
1.3281e-07
1.3281e-07
1.3281e-07
1.31857e-07
3.72895e-08
1.98492e-08
1.79924e-08
1.63702e-08
1.56253e-08
1.54807e-08
5.08576e-05
0.000361885
0.000415316
0.000420173
0.000417924
6.81697e-05
1.23154e-06
4.5485e-08
2.16273e-10
3.90632e-11
2.96956e-10
1.38521e-09
1.27856e-07
2.23006e-06
0.000130409
0.000398636
0.000398227
0.000397546
0.000278886
5.45294e-06
1.48858e-06
1.97066e-05
2.7713e-05
1.50276e-05
2.99117e-06
1.83742e-07
1.4382e-08
3.06279e-09
1.14454e-09
1.98234e-08
4.97086e-08
2.88677e-08
2.97971e-09
1.63328e-11
1.63242e-11
1.70235e-11
1.70683e-11
1.27276e-11
3.75392e-11
1.44692e-10
4.82578e-10
9.81093e-10
1.27705e-09
1.27657e-09
1.28352e-09
1.83717e-09
1.58072e-09
1.58002e-09
2.02163e-06
1.70019e-07
3.03962e-09
2.93178e-09
1.64196e-08
5.63851e-08
5.64081e-08
4.26116e-08
5.45152e-09
1.94827e-10
1.94984e-10
1.92652e-10
1.58681e-10
8.5066e-11
2.74617e-11
8.5168e-12
3.92948e-12
2.98593e-12
3.03337e-12
3.54464e-12
4.76878e-08
1.03824e-07
9.43209e-08
1.29261e-07
8.99182e-08
4.07872e-08
3.68281e-08
2.77716e-08
2.95319e-08
2.72444e-08
2.12532e-08
4.97619e-08
0.00018163
0.000412213
0.000420173
0.000420173
0.000420173
0.000256563
7.44105e-06
2.64856e-07
1.59057e-09
6.80006e-10
3.21611e-09
1.47547e-08
3.98131e-07
2.60336e-05
0.000359934
0.000397569
0.000398227
0.000350915
2.26622e-05
2.28904e-05
5.79019e-05
9.68953e-05
9.64459e-05
9.53893e-05
7.5569e-05
2.47573e-05
1.06948e-05
1.05348e-09
5.29102e-11
4.80171e-11
4.43073e-11
3.08281e-11
2.04256e-11
1.81485e-11
1.63244e-11
1.53401e-11
1.15298e-11
9.32851e-12
1.00965e-11
1.96612e-11
7.41125e-11
3.36577e-10
1.06131e-09
1.84853e-09
2.24727e-09
1.831e-09
1.57991e-09
1.57808e-09
1.57849e-09
3.01388e-08
5.1783e-09
2.8494e-09
2.82963e-08
5.64076e-08
4.43814e-08
8.42219e-09
9.21895e-10
1.93501e-10
1.92361e-10
1.41543e-10
6.46024e-11
1.72503e-11
3.98859e-12
2.32708e-12
2.75531e-12
2.95604e-12
1.06935e-11
9.77849e-10
2.75314e-09
3.39642e-11
3.53152e-10
3.36682e-08
3.86767e-08
4.07264e-08
4.0369e-08
1.3322e-07
4.43393e-07
1.42118e-06
2.07234e-07
3.64994e-05
0.000112558
9.76828e-05
0.00039825
0.000420173
0.000419668
0.000419419
7.51349e-05
9.61906e-07
4.54332e-08
7.77116e-09
1.86012e-08
5.94085e-08
8.26788e-07
7.65546e-05
0.000398773
0.000398864
0.000397569
0.000126946
1.55628e-05
3.86242e-05
9.68953e-05
9.68953e-05
9.68953e-05
9.64459e-05
9.48765e-05
9.16702e-05
5.72656e-05
8.10167e-09
8.80506e-11
5.39118e-11
7.37128e-11
1.88446e-10
1.99577e-10
6.94681e-11
2.1304e-11
1.70122e-11
1.14891e-11
7.98957e-12
6.75764e-12
7.85211e-12
2.03583e-11
8.23762e-11
4.4366e-10
1.57091e-09
2.59986e-09
2.71578e-09
1.6205e-09
2.89162e-09
1.57808e-09
9.01049e-07
3.51595e-08
2.7244e-09
2.80129e-08
3.45469e-08
2.22182e-10
2.17468e-10
2.16501e-10
2.17054e-10
1.58871e-10
7.07003e-11
1.82565e-11
3.0896e-12
1.47039e-12
1.81421e-12
3.05039e-12
4.66491e-12
1.23945e-10
2.01395e-11
2.15489e-11
2.84849e-11
6.33549e-10
1.64208e-07
8.58329e-08
3.25368e-08
4.61692e-08
1.96879e-05
5.41693e-05
0.000110053
8.69422e-05
4.70709e-05
4.97853e-05
4.76882e-05
4.92617e-05
0.000409825
0.000419162
0.000413911
0.000172515
1.80806e-06
1.57643e-07
5.19632e-08
7.10798e-08
1.17625e-07
1.0553e-06
0.000127917
0.000401699
0.000398155
0.00031418
1.2459e-05
8.40253e-06
7.96318e-05
9.64904e-05
9.68953e-05
9.64459e-05
9.48765e-05
8.12344e-05
3.97686e-05
1.67264e-05
6.42689e-06
1.22203e-09
6.96692e-11
6.12565e-11
2.8838e-10
3.97852e-10
1.79153e-10
2.88503e-11
1.80331e-11
1.26265e-11
7.10454e-12
4.57078e-12
4.28078e-12
1.12158e-11
3.85446e-11
1.15778e-10
3.89719e-10
1.31475e-09
2.3454e-09
1.62059e-09
1.45424e-08
1.58419e-09
1.23718e-06
1.78157e-07
1.03395e-09
5.72307e-09
4.90529e-10
4.88533e-10
4.55207e-10
2.51421e-10
1.45407e-10
7.09808e-11
2.2406e-11
4.36343e-12
9.67103e-13
1.06709e-12
1.73089e-12
3.80902e-12
5.82071e-12
6.08115e-12
1.15265e-11
2.06827e-10
3.39642e-11
3.12122e-09
1.64625e-07
1.32529e-08
1.80467e-08
6.01108e-06
0.000124455
0.000127689
0.000128323
0.000128514
0.000113966
4.76882e-05
4.68544e-05
4.50441e-05
0.00024033
0.000413655
0.000406891
0.00019943
2.52564e-06
2.9153e-07
1.89876e-07
5.25676e-08
9.52637e-08
2.7573e-06
0.000215603
0.000403658
0.000401673
0.000217916
8.40253e-06
6.16623e-06
2.88842e-05
8.05777e-05
9.59511e-05
6.15666e-05
2.32616e-05
2.25224e-06
1.88188e-10
5.98528e-11
7.41433e-11
6.01919e-07
4.39931e-09
3.04988e-11
1.6619e-10
4.06256e-10
2.54961e-10
3.64381e-11
1.74414e-11
1.25098e-11
5.83523e-12
2.60537e-12
2.10845e-12
6.11299e-12
2.71583e-11
7.95438e-11
2.01417e-10
9.06247e-10
1.97622e-09
1.8538e-09
1.64002e-08
1.62557e-09
1.23938e-06
8.91988e-07
9.34262e-10
9.33645e-10
1.68339e-09
2.17305e-09
7.44586e-10
1.81296e-10
8.86381e-11
3.84405e-11
9.96919e-12
1.60833e-12
5.18832e-13
7.41677e-13
1.80746e-12
4.05323e-12
5.8876e-12
6.4064e-12
5.39894e-11
5.84866e-10
1.5578e-10
2.67737e-09
1.08153e-07
7.98366e-10
1.90188e-08
1.6045e-05
6.76937e-05
0.000127159
0.000128514
0.000128722
0.000128683
7.32673e-05
4.50441e-05
4.4123e-05
6.09506e-05
0.000399475
0.000405664
0.000343868
1.59971e-05
2.55995e-07
1.6858e-07
1.24444e-08
4.16225e-08
5.62717e-06
0.000304416
0.000403752
0.000403658
0.00038264
4.15343e-05
4.83908e-06
3.2541e-06
3.64135e-06
1.57532e-08
4.05106e-09
9.39405e-10
2.132e-10
5.98528e-11
4.51984e-11
4.41894e-11
5.51812e-08
8.46333e-09
3.00864e-11
8.25689e-11
3.7821e-10
2.59787e-10
4.07142e-11
1.22713e-11
8.29571e-12
3.56635e-12
1.255e-12
9.30002e-13
3.75666e-12
2.00144e-11
6.37012e-11
1.4626e-10
1.19721e-09
3.58425e-09
2.26556e-09
1.02239e-08
1.70585e-09
1.24064e-06
1.24642e-06
9.38649e-10
1.91395e-09
3.82513e-09
3.05623e-09
7.05553e-10
1.215e-10
6.54387e-11
2.64319e-11
5.53341e-12
7.48514e-13
2.45528e-13
4.75623e-13
1.57773e-12
3.21522e-12
4.50612e-12
6.21502e-12
1.12417e-10
7.051e-10
6.81054e-10
5.37893e-09
2.13882e-11
8.16081e-10
2.46523e-06
2.45923e-08
5.77273e-08
8.49882e-05
0.000127997
0.000128683
0.000128712
7.98461e-05
4.43388e-05
4.44803e-05
0.00023119
0.000404451
0.000405243
0.00040445
3.11732e-05
1.30064e-07
5.81245e-08
2.98953e-09
9.54979e-08
7.27878e-06
0.000209668
0.000403658
0.000403813
0.000403636
0.00037676
3.07868e-05
3.37989e-07
1.38752e-07
5.33904e-08
1.79521e-08
5.28289e-09
1.0886e-09
2.26129e-10
6.1722e-11
4.17696e-11
3.06255e-11
3.00864e-11
3.00598e-11
4.88617e-11
1.60662e-10
1.85372e-10
4.11944e-11
6.6782e-12
3.70066e-12
1.52778e-12
4.94432e-13
4.41286e-13
2.68481e-12
1.64765e-11
5.5921e-11
9.69438e-11
1.3802e-09
4.85168e-09
3.10221e-09
3.70032e-10
1.60278e-07
1.24861e-06
1.24807e-06
9.40443e-10
2.51824e-09
3.87099e-09
2.91009e-09
6.04082e-10
9.57637e-11
5.51884e-11
2.03052e-11
3.46456e-12
4.1908e-13
1.08091e-13
2.256e-13
7.874e-13
1.62972e-12
2.58886e-12
5.65753e-12
1.43827e-10
7.05998e-10
6.84256e-10
4.70205e-11
1.74783e-11
9.47425e-11
1.5424e-08
7.70162e-09
2.01305e-08
3.46456e-06
0.000106319
0.000127997
0.000128683
0.000127218
0.000104004
0.000145003
0.000402524
0.000404783
0.000404615
0.000339189
2.36084e-05
3.5843e-07
3.00942e-08
8.26187e-10
9.66753e-08
3.71317e-06
3.68205e-05
0.000367157
0.000403636
0.000400521
0.000399891
0.000287381
1.53637e-05
3.37989e-07
1.43599e-07
1.12931e-07
3.45204e-08
2.60673e-09
3.07556e-10
1.21365e-10
1.0875e-10
4.71747e-11
3.51831e-11
2.98396e-11
2.95437e-11
5.35178e-11
6.44396e-11
2.43705e-11
3.22412e-12
1.3335e-12
5.05562e-13
1.62379e-13
2.75864e-13
2.15799e-12
1.34574e-11
5.18986e-11
8.26971e-11
1.15604e-09
4.85199e-09
3.20855e-09
3.69831e-10
1.11378e-06
1.24848e-06
1.08388e-06
9.42598e-10
1.77975e-09
3.34177e-09
2.44101e-09
6.82712e-10
8.16683e-11
4.97268e-11
1.65321e-11
2.42337e-12
2.80736e-13
5.22945e-14
7.78426e-14
2.79668e-13
6.7946e-13
1.358e-12
4.82154e-12
1.31295e-10
5.44903e-10
3.21951e-10
2.89594e-11
1.65158e-11
1.82209e-11
4.70533e-11
4.42062e-10
3.32119e-09
2.03442e-08
5.40847e-06
4.25291e-05
3.51491e-05
3.39371e-05
0.000117811
0.000395919
0.000399873
0.000402524
0.000404616
7.84908e-05
5.90715e-06
4.04985e-07
1.7062e-08
3.35303e-10
4.55607e-09
2.03315e-08
6.8927e-07
6.02667e-05
0.000214506
0.000399094
0.000395583
0.000257622
4.51524e-05
2.21817e-06
5.44852e-07
1.1032e-07
1.92343e-08
2.82154e-09
4.25463e-10
1.56256e-10
1.31529e-10
8.87305e-11
4.93937e-11
2.73163e-11
1.493e-11
1.68014e-11
1.67208e-11
7.52447e-12
1.39877e-12
3.93791e-13
1.27574e-13
5.19781e-14
2.1221e-13
1.93425e-12
1.10521e-11
4.62143e-11
8.45267e-11
7.84102e-10
4.79558e-09
1.908e-09
3.68932e-10
1.24401e-06
1.20645e-06
1.25203e-07
9.67091e-10
1.14305e-09
1.54061e-09
2.3442e-09
7.75369e-10
7.09483e-11
4.60457e-11
1.36369e-11
1.87178e-12
2.20564e-13
3.13676e-14
2.30802e-14
8.41703e-14
2.43683e-13
6.29654e-13
2.84393e-12
4.40329e-11
1.12142e-10
9.29082e-11
2.43196e-11
1.63669e-11
1.74607e-11
2.08717e-11
6.27724e-11
4.54838e-10
3.27125e-09
1.84252e-08
1.07465e-07
5.15115e-07
2.34705e-06
5.45731e-05
0.000260431
0.000395919
0.00031271
0.000125665
1.69456e-06
7.73342e-08
9.65559e-09
3.72319e-09
5.26397e-11
7.19828e-11
3.21333e-09
1.77123e-07
3.38106e-06
1.29462e-05
6.03548e-05
6.34572e-05
4.19959e-05
2.2578e-05
6.30693e-06
1.22212e-07
2.61652e-08
4.94209e-09
8.18832e-10
1.29561e-10
9.29176e-11
1.15184e-10
8.7057e-11
4.37639e-11
1.60448e-11
6.18777e-12
5.31501e-12
4.71528e-12
2.36181e-12
5.22359e-13
9.57965e-14
2.50323e-14
2.55108e-14
1.79422e-13
1.80717e-12
9.73979e-12
3.78735e-11
1.14075e-10
5.92673e-10
2.57931e-09
9.13426e-10
3.67991e-10
1.24407e-06
1.70372e-07
5.00789e-08
1.06138e-07
1.13352e-09
1.1872e-09
2.33256e-09
6.72806e-10
6.51327e-11
4.16004e-11
1.1016e-11
1.56678e-12
1.9155e-13
2.28787e-14
7.01537e-15
2.06262e-14
7.31455e-14
2.41469e-13
1.07885e-12
6.27075e-12
1.32566e-11
1.37949e-11
1.12557e-11
1.62864e-11
2.29327e-11
2.54229e-11
5.75943e-11
3.34488e-10
1.56459e-09
1.462e-08
7.24374e-08
3.08245e-07
2.56048e-06
1.9536e-05
3.59381e-05
5.98436e-05
3.47566e-05
6.36383e-06
4.93028e-07
1.70058e-08
1.14789e-09
3.82295e-10
1.3563e-11
-6.09281e-12
8.31638e-10
4.50651e-08
8.05379e-07
1.53692e-06
1.93496e-06
1.37814e-06
8.69008e-07
8.98726e-07
3.74433e-07
1.33967e-08
2.63411e-09
5.01111e-10
9.40203e-11
4.25276e-11
6.05847e-11
5.47709e-11
3.37132e-11
1.57167e-11
5.66837e-12
2.13055e-12
1.97902e-12
1.7535e-12
8.51797e-13
1.53292e-13
1.83748e-14
5.71337e-15
1.8441e-14
1.62263e-13
1.63817e-12
8.99808e-12
3.07858e-11
1.24762e-10
5.31407e-10
7.69197e-10
5.43042e-10
3.67511e-10
1.09883e-06
2.38662e-08
4.99757e-08
1.90839e-07
1.13539e-09
1.10196e-09
1.8038e-09
4.02914e-10
6.5534e-11
3.5019e-11
8.65642e-12
1.36228e-12
1.72947e-13
1.88184e-14
3.2399e-15
4.24732e-15
1.75818e-14
7.29203e-14
3.99556e-13
1.56695e-12
3.24158e-12
4.71976e-12
7.42728e-12
1.42447e-11
2.48369e-11
3.29568e-11
4.02247e-11
4.18335e-11
4.06176e-10
2.03764e-09
9.6224e-09
4.16583e-08
1.01333e-06
1.49223e-06
1.46557e-06
2.35999e-06
2.50004e-06
1.52063e-06
1.35261e-07
4.95872e-09
2.18295e-10
1.14852e-10
3.61225e-12
4.69705e-12
3.43374e-10
1.07061e-08
1.53828e-07
2.74323e-07
3.08526e-07
2.02004e-07
9.44801e-08
6.84684e-08
3.51574e-08
3.14738e-09
3.77167e-10
1.04135e-10
3.50969e-11
2.34323e-11
1.57597e-11
9.70018e-12
5.87229e-12
3.26501e-12
1.35358e-12
5.55983e-13
5.37116e-13
4.83574e-13
2.19472e-13
2.93174e-14
2.5493e-15
2.63639e-15
1.57486e-14
1.49392e-13
1.36509e-12
7.64738e-12
2.56022e-11
1.21468e-10
4.90806e-10
4.2813e-10
4.01916e-10
3.6729e-10
3.65608e-10
2.37186e-08
1.27262e-07
1.90859e-07
7.57914e-10
8.52325e-10
7.88247e-10
2.12728e-10
7.15163e-11
2.7939e-11
6.58338e-12
1.16716e-12
1.55082e-13
1.66648e-14
2.00381e-15
8.77287e-16
3.16529e-15
1.20192e-14
1.07159e-13
9.39673e-13
2.53155e-12
2.91706e-12
2.85726e-12
5.81075e-12
1.39718e-11
2.87416e-11
4.65831e-11
5.31532e-11
7.50437e-11
2.10073e-10
9.39494e-10
9.3241e-09
3.80216e-08
7.52739e-08
2.13714e-07
4.11996e-07
4.7949e-07
3.22374e-07
3.18856e-08
1.45273e-09
6.22556e-11
2.8504e-11
1.43236e-12
2.14527e-12
8.17586e-11
2.28048e-09
2.68447e-08
4.28112e-08
4.35036e-08
3.12548e-08
1.2286e-08
6.98048e-09
3.74764e-09
8.1832e-10
1.65672e-10
6.05236e-11
2.05457e-11
9.97e-12
6.5082e-12
4.11029e-12
2.21588e-12
9.19819e-13
2.7111e-13
9.51269e-14
5.50453e-14
2.99364e-14
1.03953e-14
2.25551e-15
5.35995e-16
1.66149e-15
1.45261e-14
1.32107e-13
1.05879e-12
5.93344e-12
2.1071e-11
9.90417e-11
3.46804e-10
3.15022e-10
3.59978e-10
3.67054e-10
3.65608e-10
1.19883e-08
1.4343e-07
1.90294e-07
5.6948e-10
6.33579e-10
2.25121e-10
1.40722e-10
7.21289e-11
2.20597e-11
4.79513e-12
9.4098e-13
1.33137e-13
1.4926e-14
1.49154e-15
2.59838e-16
4.3695e-16
2.34032e-15
1.38809e-14
6.51856e-14
1.7525e-13
3.25247e-13
6.33111e-13
1.714e-12
4.32645e-12
8.63789e-12
1.56195e-11
2.89073e-11
4.72109e-11
5.10232e-11
1.40333e-10
1.11862e-09
2.11069e-09
9.11184e-09
2.94654e-08
6.28477e-08
8.10691e-08
6.03349e-08
7.44659e-09
3.50037e-10
1.56149e-11
1.05115e-11
3.24141e-13
3.88953e-12
2.04448e-11
4.5296e-10
4.19233e-09
5.96885e-09
5.51327e-09
3.77656e-09
1.62826e-09
7.87749e-10
5.44747e-10
2.59006e-10
6.96363e-11
1.41739e-11
4.83858e-12
2.95712e-12
1.88348e-12
9.86786e-13
3.92372e-13
1.15236e-13
2.96908e-14
1.31033e-14
8.04077e-15
4.1619e-15
1.33958e-15
2.18301e-16
1.79904e-16
1.31797e-15
1.31493e-14
1.0949e-13
7.43447e-13
4.14435e-12
1.68545e-11
6.79882e-11
1.76896e-10
1.98476e-10
3.18484e-10
3.6612e-10
3.65564e-10
3.03586e-09
2.8167e-08
4.91179e-08
5.5714e-10
5.55509e-10
7.11018e-11
1.08058e-10
6.86687e-11
1.70767e-11
3.41672e-12
6.93792e-13
1.06973e-13
1.27545e-14
1.28067e-15
1.24774e-16
4.05861e-17
2.83039e-16
2.50907e-15
1.35537e-14
3.76636e-14
7.29039e-14
1.62113e-13
5.73928e-13
1.80577e-12
4.16183e-12
7.87349e-12
1.25944e-11
1.86373e-11
3.28287e-11
5.31415e-11
4.96672e-11
2.02491e-10
9.83088e-10
3.59256e-09
8.50136e-09
1.21515e-08
1.01878e-08
1.63267e-09
8.48345e-11
9.35401e-12
2.88674e-12
3.85716e-14
3.26559e-12
1.54618e-11
1.22419e-10
5.89656e-10
7.72001e-10
7.07628e-10
4.87644e-10
2.28738e-10
2.12448e-10
1.44295e-10
4.69162e-11
8.7236e-12
1.9279e-12
8.89359e-13
5.474e-13
3.03882e-13
1.26314e-13
3.60415e-14
7.40922e-15
2.01098e-15
1.10554e-15
6.77075e-16
3.13031e-16
8.01829e-17
1.9294e-17
9.64703e-17
1.12433e-15
1.04657e-14
8.00851e-14
4.95469e-13
2.81497e-12
1.32439e-11
4.57625e-11
8.90123e-11
9.23633e-11
2.29596e-10
5.01493e-10
3.71484e-10
3.72242e-10
3.72992e-10
3.75382e-10
4.59731e-09
4.72124e-10
3.82231e-11
8.08312e-11
5.58878e-11
1.26317e-11
2.43602e-12
4.64386e-13
7.55138e-14
9.6888e-15
1.03734e-15
8.72815e-17
1.15106e-17
1.33908e-17
1.66197e-16
1.13025e-15
4.026e-15
9.12107e-15
2.00813e-14
6.99149e-14
2.79308e-13
8.58248e-13
2.13467e-12
4.26102e-12
6.6121e-12
8.88843e-12
1.05841e-11
7.15405e-12
1.80728e-11
9.77327e-11
4.00093e-10
1.04172e-09
1.64537e-09
1.53737e-09
3.41723e-10
3.99479e-11
1.32712e-11
4.13606e-13
3.82941e-15
9.52832e-13
8.5876e-12
2.6837e-11
9.92291e-11
1.25217e-10
1.0622e-10
7.37313e-11
8.40966e-11
6.00738e-11
2.17005e-11
4.69731e-12
7.84872e-13
1.87862e-13
8.72993e-14
4.77957e-14
2.22699e-14
7.55648e-15
1.75894e-15
3.24897e-16
1.00129e-16
5.744e-17
3.4e-17
1.44514e-17
3.24386e-18
6.16538e-18
7.07916e-17
7.87545e-16
7.08186e-15
5.2329e-14
3.36986e-13
2.00502e-12
1.02309e-11
3.33661e-11
5.31512e-11
3.94472e-11
1.08851e-10
1.13788e-09
4.34693e-10
4.17373e-10
5.97947e-10
4.7521e-09
8.9171e-09
2.00511e-10
3.25263e-11
5.69985e-11
3.7103e-11