/*--------------------------------*- C++ -*----------------------------------*\
| =========                 |                                                 |
| \\      /  F ield         | OpenFOAM: The Open Source CFD Toolbox           |
|  \\    /   O peration     | Version:  2412                                  |
|   \\  /    A nd           | Website:  www.openfoam.com                      |
|    \\/     M anipulation  |                                                 |
\*---------------------------------------------------------------------------*/
FoamFile
{
    version     2.0;
    format      ascii;
    arch        "LSB;label=32;scalar=64";
    class       volScalarField;
    location    "1.45";
    object      alpha.mercury;
}
// * * * * * * * * * * * * * * * * * * * * * * * * * * * * * * * * * * * * * //

dimensions      [0 0 0 0 0 0 0];

internalField   nonuniform List<scalar> 
6400
(
1
0.999999
1
1
1
1
1
1
1
1
1
1
1
1
1
1
1
1
1
1
1
1
1
1
1
1
1
1
1
1
1
1
0.999999
1
1
1
1
1
1
0.999999
1
1
1
1
1
1
1
1
1
1
1
1
1
0.999999
0.999999
0.999999
1
1
1
1
1
1
1
1
1
1
1
1
1
1
1
1
1
1
1
1
1
1
1
1
1
0.999999
0.999999
0.999999
1
1
1
1
1
1
1
1
1
1
1
1
1
1
1
1
1
1
1
1
1
1
1
1
1
1
0.999999
0.999999
0.999999
0.999999
1
1
1
0.999999
0.999999
0.999999
0.999999
1
1
1
1
1
0.999999
1
1
0.999999
0.999999
0.999999
0.999999
1
1
1
1
1
1
1
1
1
1
1
1
1
1
1
1
1
1
1
1
1
1
1
1
1
1
1
1
0.999999
0.999999
1
1
1
1
1
1
1
1
1
1
1
1
1
1
1
1
1
1
1
1
1
1
1
1
1
1
1
1
1
0.999999
1
1
0.999999
0.999999
1
1
0.999999
1
1
0.999999
0.999999
0.999999
0.999999
0.999999
0.999999
0.999999
0.999999
1
1
1
1
1
1
1
1
1
1
1
1
1
1
1
1
1
1
1
1
1
1
1
1
1
1
1
1
1
1
1
0.999999
1
1
1
1
1
1
1
1
1
1
1
1
1
1
1
1
1
1
1
1
1
1
1
1
1
1
1
1
1
1
1
1
1
1
0.999999
0.999999
1
0.999999
0.999999
0.999999
0.999999
1
0.999999
0.999999
0.999999
0.999999
1
1
1
1
0.999999
1
1
1
1
1
1
1
1
1
1
1
1
1
1
1
1
1
1
1
1
1
0.999999
0.999999
1
1
1
1
1
0.999999
1
1
1
1
1
1
1
1
1
1
1
1
1
1
1
1
1
1
1
1
1
1
1
1
1
1
1
1
1
1
1
0.999999
0.999999
0.999999
0.999999
1
1
1
1
1
1
1
1
1
1
1
1
1
0.999999
0.999999
0.999999
0.999999
0.999999
0.999999
1
1
1
1
1
1
1
1
1
1
1
1
1
1
1
1
1
1
1
1
1
1
1
1
1
0.999999
1
1
1
1
1
1
1
1
1
1
1
1
1
1
1
1
1
1
1
1
1
1
1
1
1
1
1
1
1
1
1
0.999999
0.999999
0.999999
1
1
1
1
1
1
0.999999
0.999999
1
1
0.999999
0.999999
0.999999
1
1
1
0.999999
1
1
1
1
1
1
1
1
1
1
1
1
1
1
1
1
1
1
1
1
1
1
1
1
1
1
1
1
0.999999
1
1
1
1
1
1
1
1
1
1
1
1
1
1
1
1
1
1
1
1
1
1
1
1
1
1
1
1
1
1
1
1
0.999999
0.999999
1
1
1
0.999999
0.999999
0.999999
0.999999
0.999999
0.999999
0.999999
0.999999
1
1
1
1
1
1
1
1
1
0.999999
1
1
1
1
1
1
1
1
1
1
1
1
1
1
1
1
1
1
0.999999
1
0.999999
1
1
1
1
1
1
1
1
1
1
1
1
1
1
1
1
1
1
1
1
0.999999
1
1
1
1
1
1
1
1
1
1
1
1
1
1
1
1
1
1
0.999999
0.999999
0.999999
0.999999
0.999999
0.999999
0.999999
1
1
0.999999
1
1
1
1
1
1
1
0.999999
0.999999
0.999999
0.999999
1
1
1
1
1
1
1
1
1
1
1
1
1
1
1
1
1
0.999999
1
1
1
1
1
1
1
1
1
1
1
1
1
1
1
1
1
1
1
1
1
0.999999
0.999999
1
1
1
1
1
1
1
1
1
1
1
1
1
1
1
1
1
1
1
0.999999
0.999999
1
1
1
1
1
1
1
1
1
1
1
1
0.999999
0.999999
0.999999
1
1
1
1
1
1
1
1
1
1
1
1
1
1
1
1
1
1
1
1
1
1
1
1
1
1
1
1
1
1
1
1
1
1
1
1
1
1
1
1
0.999999
0.999999
0.999999
1
1
1
1
1
1
1
1
1
1
1
1
1
1
1
1
1
1
1
1
1
1
1
1
1
1
1
1
1
1
1
0.999999
0.999999
0.999999
1
1
1
1
1
1
1
1
1
1
1
1
1
0.999999
0.999999
1
1
1
1
1
1
1
1
1
1
1
1
1
1
1
1
1
1
1
1
1
1
1
1
1
1
1
0.999999
0.999999
0.999999
1
1
1
1
1
1
1
1
1
1
1
1
1
1
1
1
1
1
1
1
1
1
1
1
1
1
1
1
1
1
1
1
1
1
1
1
1
1
1
1
1
1
0.999999
0.999999
0.999999
0.999999
0.999999
0.999999
1
1
1
1
1
1
1
1
1
1
1
1
1
1
1
1
1
1
1
1
1
1
1
1
1
1
1
1
1
1
1
1
1
1
1
1
1
1
1
1
1
1
1
1
1
1
1
1
1
1
1
1
1
1
1
1
1
1
1
1
1
1
1
1
1
1
1
1
1
1
1
1
1
1
0.999999
0.999999
0.999999
1
1
1
1
1
1
1
1
1
1
1
1
1
1
1
1
1
1
1
1
1
1
1
1
1
1
1
1
1
1
1
1
1
1
1
1
1
1
1
1
1
1
1
1
1
1
1
1
1
1
1
1
1
1
1
1
1
0.999999
0.999999
0.999999
1
1
1
1
1
1
1
1
1
1
1
1
1
1
1
1
1
0.999999
1
1
1
1
1
1
1
1
1
1
1
1
1
1
1
1
1
1
1
1
1
1
1
1
1
1
1
1
1
1
1
1
1
1
1
1
1
1
1
1
1
1
1
1
1
1
1
1
1
1
1
1
1
1
1
1
1
1
1
1
1
0.999999
0.999999
1
1
1
1
1
1
1
1
1
1
1
1
1
1
1
1
1
1
1
1
1
1
1
1
1
1
1
1
1
1
1
1
1
1
1
1
1
1
1
1
1
1
1
1
0.999999
0.999999
1
1
1
1
1
1
1
1
1
1
1
1
1
1
1
1
1
1
1
1
1
1
1
1
1
1
1
1
1
1
1
0.999999
1
1
1
1
1
1
1
1
1
1
1
1
1
1
1
1
1
1
1
1
1
1
1
1
1
1
1
1
1
1
1
1
1
1
1
1
1
1
1
1
1
1
1
1
1
1
0.999999
1
1
0.999999
0.999999
1
1
1
1
1
1
1
1
1
1
1
1
1
1
1
1
1
1
1
1
1
1
1
1
1
1
1
1
1
1
1
1
1
1
1
1
1
1
1
1
1
1
1
1
1
1
1
1
1
1
1
1
1
1
1
1
1
1
1
1
1
1
1
1
1
1
1
1
1
1
1
1
1
1
1
1
1
0.999999
0.999999
0.999999
1
1
1
1
1
1
1
0.999999
0.999998
0.999997
0.999997
0.999998
0.999999
1
1
1
1
1
1
1
1
1
1
1
1
1
1
1
1
1
1
1
1
1
1
1
1
1
1
1
1
1
1
0.999999
0.999999
0.999998
0.999998
0.999998
0.999999
1
1
1
1
1
1
1
1
1
1
1
1
1
1
1
1
1
1
1
1
1
1
1
1
1
1
1
1
0.999999
0.999999
0.999999
0.999999
1
0.999999
0.999999
0.999997
0.999995
0.999988
0.999963
0.999921
0.999884
0.999869
0.995928
0.983766
0.967589
0.952534
0.953358
0.961922
0.980559
1
1
1
1
1
1
1
1
1
1
1
1
1
1
1
1
1
1
1
1
0.976053
0.95996
0.955081
0.958492
0.972138
0.987505
0.997551
0.999901
0.999907
0.999929
0.99996
0.999985
0.999994
0.999997
0.999999
0.999999
1
1
1
1
1
1
1
1
1
1
1
1
1
1
1
1
1
1
1
1
1
1
0.999999
0.999999
0.999998
0.999998
0.999996
0.999991
0.999978
0.999953
0.999907
0.999819
0.992597
0.946809
0.859241
0.751621
0.630652
0.495065
0.391141
0.316521
0.261379
0.266864
0.32377
0.43769
0.598789
0.806852
0.92117
0.959647
0.981597
0.999202
1
1
1
1
1
1
1
1
0.997893
0.983997
0.956305
0.88015
0.703191
0.482299
0.335431
0.273318
0.256502
0.272778
0.331071
0.414303
0.520372
0.652035
0.764206
0.857481
0.936599
0.987699
0.999792
0.999902
0.999954
0.999977
0.999988
0.999994
0.999998
0.999999
1
1
1
1
1
1
1
1
1
1
1
1
1
1
1
1
0.999997
0.999989
0.999979
0.999965
0.999878
0.998934
0.994756
0.981739
0.951547
0.898707
0.815486
0.68228
0.464686
0.266185
0.129255
0.0456451
2.09203e-06
5.46685e-06
2.50231e-05
3.96789e-05
0.00119096
0.000538688
0.00140461
0.0072162
0.0651945
0.323743
0.67141
0.862744
0.958218
0.99971
0.999996
1
1
1
1
1
1
1
0.999896
0.989624
0.896321
0.613504
0.197761
0.0193163
0.00273901
0.0009072
0.000463367
0.000627406
2.64323e-05
2.30096e-05
1.51009e-05
1.08142e-05
0.0497207
0.124082
0.23981
0.424668
0.661261
0.814466
0.898626
0.942583
0.96784
0.984415
0.994285
0.998623
0.999869
0.999981
0.999991
0.999995
0.999997
0.999998
0.999999
1
1
1
0.629046
0.678093
0.689582
0.703779
0.722549
0.734718
0.726281
0.706205
0.683572
0.659806
0.630694
0.584942
0.511585
0.402429
0.277347
0.167942
0.0771374
0.0089646
5.85606e-07
1.34266e-06
1.71511e-06
1.79612e-06
1.99105e-06
2.09203e-06
2.24456e-05
0.000128371
2.54457e-05
4.73568e-05
0.000180497
0.000479497
0.00111094
0.00698866
0.0451882
0.104009
0.4419
0.868081
0.99971
0.999991
1
1
1
1
0.999996
0.999896
0.928291
0.74394
0.456555
0.144735
0.00722836
0.000932531
0.000198236
5.56827e-05
3.35489e-05
6.18004e-05
0.000108445
2.82733e-05
1.10793e-05
9.71928e-06
1.06972e-05
1.128e-05
1.00785e-05
9.58449e-06
0.00151445
0.0769608
0.182719
0.291347
0.382078
0.4567
0.529564
0.592543
0.636609
0.659994
0.670598
0.678999
0.690356
0.704452
0.716698
0.717519
0.712861
0.689781
0.0344754
0.0494529
0.064217
0.0820412
0.12569
0.217216
0.293693
0.296004
0.225245
0.161611
0.110057
0.0564369
0.0142908
2.04287e-08
2.10489e-08
2.0302e-08
2.54238e-08
4.19548e-08
1.40443e-07
5.19593e-06
1.2687e-05
1.30696e-05
4.28081e-06
1.02262e-05
6.3089e-05
4.75373e-05
2.6313e-06
7.48132e-06
6.20843e-05
7.32394e-05
6.79729e-05
9.59657e-05
5.6891e-05
6.7903e-05
0.000810724
0.20092
0.868886
0.999567
0.999952
0.999983
0.999985
0.999931
0.99903
0.785052
0.233446
0.000333349
2.18415e-05
4.86401e-05
0.000152588
0.000260146
3.61446e-05
7.93153e-07
2.09984e-06
6.67784e-06
0.000134557
0.000131968
2.90352e-05
4.65761e-06
2.85139e-05
2.92692e-05
2.67524e-05
7.90816e-06
6.85722e-06
5.17828e-06
3.65873e-06
3.84946e-06
0.00662171
0.0299274
0.0576531
0.0950735
0.139967
0.155146
0.145986
0.12594
0.120759
0.13297
0.169453
0.20326
0.199877
0.115914
0.0161087
5.49243e-05
6.36456e-05
9.63257e-05
0.000158903
0.000183834
7.15125e-05
0.000281978
3.09742e-21
5.70465e-10
1.14093e-09
2.61031e-09
7.49333e-09
1.95831e-08
2.06999e-08
9.23206e-09
3.2602e-08
1.33492e-06
2.14184e-05
2.56139e-05
2.55821e-05
2.56235e-05
2.55031e-05
1.72214e-05
1.35492e-05
1.47441e-06
6.67674e-07
1.26957e-06
1.23382e-05
1.16342e-05
5.60105e-07
6.60115e-07
7.13377e-07
-3.97612e-08
4.99835e-06
0.000117724
0.135454
0.752102
0.958527
0.98308
0.972632
0.882479
0.529415
0.0222908
1.73458e-05
2.25979e-07
2.30469e-08
1.44388e-06
5.63463e-06
1.11975e-05
2.20176e-06
5.08957e-08
2.52051e-07
1.53644e-06
2.9806e-05
3.18529e-05
1.60596e-05
3.50419e-06
8.19427e-07
3.85455e-07
5.20939e-09
3.4545e-06
3.80646e-05
3.82226e-05
3.83091e-05
1.10471e-05
3.40205e-07
9.943e-07
1.45396e-06
1.34791e-06
1.34998e-06
0.00124277
0.00272395
0.00321302
0.00376042
0.0230399
0.0799518
0.074874
0.0289221
0.0194483
0.00772387
8.49281e-06
9.19385e-06
1.86194e-05
1.02501e-05
8.11746e-06
1.58638e-06
-5.5469e-08
-1.74347e-08
-1.32349e-24
7.59632e-08
2.56616e-07
2.58014e-07
2.58837e-07
4.31561e-08
8.29115e-10
4.32254e-09
2.94187e-08
2.82968e-06
2.1742e-05
2.56256e-05
2.55031e-05
1.89254e-05
2.08063e-06
9.56493e-07
6.50791e-07
5.13672e-07
5.0149e-07
5.08511e-07
5.25743e-07
5.38199e-07
6.69191e-07
6.36876e-07
1.04941e-07
-1.36995e-08
-3.18948e-07
-8.26592e-09
0.0101993
0.272262
0.382705
0.329513
0.101065
-4.41345e-07
-2.56541e-07
1.69059e-09
1.0653e-08
1.58223e-08
2.17868e-08
9.88239e-08
2.07337e-07
4.90305e-08
4.83756e-08
7.76832e-08
3.9988e-07
4.77959e-07
3.24695e-07
2.32464e-07
3.617e-09
8.49058e-11
2.46987e-09
4.80003e-09
5.20939e-09
3.95253e-07
1.03083e-06
7.49918e-07
3.11097e-07
1.88384e-07
6.32463e-06
1.28082e-05
9.77348e-06
1.66183e-06
1.2524e-06
5.40617e-07
3.24356e-07
1.72039e-07
8.42547e-08
6.31364e-08
6.30957e-08
6.30963e-08
0.00119376
0.00663612
2.67386e-06
1.88572e-06
1.31688e-05
7.06327e-07
3.84618e-07
1.98455e-08
1.37118e-10
-4.49179e-14
4.36004e-08
2.57599e-07
2.5883e-07
2.60036e-07
2.58039e-07
1.19917e-07
3.01079e-10
8.29113e-10
4.32254e-09
2.93672e-08
7.8754e-07
1.75511e-05
2.21284e-05
7.75936e-07
6.16376e-07
5.93286e-07
5.14292e-07
4.98229e-07
4.97966e-07
5.0188e-07
5.08578e-07
7.46344e-07
2.61041e-06
2.56463e-06
8.29704e-08
1.49405e-08
8.79715e-09
7.98536e-09
7.21478e-09
3.62351e-09
9.31346e-10
3.75368e-10
3.79876e-10
3.75375e-10
4.61081e-10
6.50388e-09
1.32874e-08
1.68322e-08
1.33763e-08
1.38288e-08
2.2785e-08
5.35063e-07
6.45934e-07
8.66437e-07
8.66207e-07
5.01829e-07
4.39906e-08
1.79521e-10
8.06198e-11
2.95411e-11
2.15013e-08
1.92103e-08
4.99599e-08
3.30299e-07
2.62961e-07
1.42793e-07
1.62228e-07
1.80418e-07
3.55323e-07
1.99768e-06
2.02001e-05
2.45452e-05
2.56884e-05
1.52977e-05
3.33261e-06
2.46859e-06
1.2402e-06
1.09372e-07
6.31112e-08
1.30474e-05
0.000452305
0.00675177
1.32119e-06
2.41879e-07
1.73168e-07
5.39938e-08
1.76168e-08
6.97949e-11
8.00696e-12
2.21196e-11
1.08355e-09
9.548e-09
3.44895e-08
3.65959e-08
7.57736e-09
1.75777e-11
5.14131e-11
3.09255e-10
2.06682e-09
1.49881e-08
4.90554e-07
8.60387e-06
1.2064e-05
6.16462e-07
5.38307e-07
5.14921e-07
4.98229e-07
4.96661e-07
4.97145e-07
4.97966e-07
5.05298e-07
6.99226e-07
2.65141e-06
2.65141e-06
1.02491e-06
1.24632e-07
6.02478e-08
1.84057e-08
2.25298e-08
4.40709e-08
3.60591e-08
7.85593e-09
3.75368e-10
2.46363e-09
6.27714e-08
4.45179e-08
8.90961e-08
2.47805e-08
1.33769e-08
1.33625e-08
1.151e-07
4.75441e-07
7.91994e-07
5.28621e-07
6.36713e-08
1.13643e-09
1.16332e-10
1.34826e-10
1.10736e-10
2.50689e-11
7.21983e-08
1.23732e-07
4.82153e-08
1.42986e-09
1.12697e-08
1.06411e-07
2.08879e-07
1.93676e-07
1.94007e-07
2.08873e-07
1.11065e-05
2.59892e-05
2.67724e-05
2.72416e-05
2.73761e-05
2.712e-05
5.39677e-06
2.21014e-07
8.02977e-08
1.83842e-05
0.000180137
0.00712885
2.27612e-06
4.51928e-08
1.53857e-08
5.26007e-09
1.18628e-09
-3.28557e-11
4.44277e-12
4.31646e-12
2.26014e-12
2.26014e-12
2.27078e-12
2.23995e-12
2.12386e-12
2.731e-12
1.15289e-11
9.13854e-11
4.80956e-10
3.7053e-09
2.97268e-08
4.29238e-06
1.05546e-05
1.96197e-06
5.16906e-07
5.00224e-07
4.96969e-07
4.97145e-07
4.96931e-07
5.60096e-07
2.43835e-06
2.17635e-06
9.80337e-07
1.80325e-06
5.8e-07
7.12696e-09
4.78121e-08
1.29323e-08
4.28603e-08
7.84417e-08
7.84417e-08
2.20465e-08
2.2977e-10
1.57254e-08
2.02983e-06
9.61583e-07
1.00647e-07
2.65841e-09
2.3641e-08
4.21793e-08
7.5524e-09
1.19713e-11
1.32966e-11
5.54756e-12
4.75158e-12
4.75412e-12
2.62899e-10
3.43117e-10
2.03825e-10
2.15189e-11
4.66434e-13
1.00563e-12
5.02972e-13
4.06601e-12
1.41238e-07
4.2378e-07
4.2378e-07
3.15836e-07
2.08873e-07
2.58201e-07
1.17519e-05
2.66864e-05
2.72416e-05
2.73819e-05
2.73454e-05
2.33128e-05
2.08947e-06
2.31152e-07
4.05535e-07
0.000195754
0.00253272
0.00697391
2.05076e-05
9.92135e-09
2.9367e-09
8.5126e-10
8.82471e-11
4.05943e-12
2.96911e-12
2.54121e-12
2.32647e-12
2.27078e-12
2.23995e-12
2.12386e-12
1.85215e-12
1.66017e-12
3.51294e-12
5.59658e-12
2.16787e-11
1.18718e-10
1.04909e-09
2.72329e-07
2.90571e-06
4.5947e-06
4.0871e-06
1.406e-06
5.29e-07
8.67866e-07
9.15614e-07
3.65977e-06
3.98177e-06
3.98177e-06
2.43972e-07
2.49556e-09
2.74264e-10
6.70245e-09
3.6519e-12
8.65823e-12
1.25352e-11
3.55934e-08
1.90119e-08
4.65952e-09
2.62709e-11
4.19763e-07
2.57341e-06
1.82391e-06
2.98106e-08
2.24966e-09
1.58711e-08
1.20826e-08
1.69476e-09
9.72824e-12
8.66448e-12
8.10796e-12
8.02416e-12
6.89438e-12
3.19207e-12
1.15993e-12
5.08716e-13
5.0416e-13
4.61984e-13
4.66434e-13
4.78628e-13
2.27843e-08
2.19155e-08
1.2061e-07
3.05685e-07
5.55347e-07
1.08182e-06
2.70266e-06
7.83065e-06
2.1854e-05
2.66864e-05
2.51573e-05
1.67833e-05
4.91938e-06
2.37262e-07
9.4752e-08
4.40441e-07
0.000373271
0.00316513
0.000935437
4.26455e-06
2.9367e-09
1.08025e-09
6.00439e-10
3.71452e-10
8.82945e-11
1.68174e-09
8.10508e-09
2.54193e-12
2.58355e-12
2.63153e-12
1.84208e-12
1.2406e-12
1.14357e-12
7.42885e-13
5.76552e-13
5.64443e-13
2.67949e-12
2.52079e-11
2.96277e-10
5.45941e-09
1.10393e-06
2.69302e-06
3.61484e-06
3.79365e-06
3.87849e-06
3.87849e-06
3.89921e-06
3.91371e-06
1.33111e-06
3.96407e-10
2.73872e-11
2.01212e-12
1.0578e-12
1.47192e-12
1.11115e-11
1.24438e-11
1.28125e-11
1.60762e-11
2.25995e-11
2.62709e-11
1.56033e-06
2.57486e-06
2.35263e-06
1.42155e-07
8.49317e-11
2.73747e-11
2.54505e-11
2.53131e-11
2.53468e-11
2.21139e-11
1.74602e-11
1.33974e-11
9.2733e-12
4.96958e-12
2.00848e-12
8.4478e-13
5.29029e-13
4.62981e-13
5.37882e-13
8.92199e-13
9.09198e-13
1.19909e-12
2.67031e-12
6.39107e-12
1.03996e-11
1.18289e-11
2.43034e-10
1.66741e-09
4.29673e-07
1.88735e-06
1.68704e-06
5.79985e-07
3.03541e-07
1.90904e-07
3.84541e-08
2.1094e-07
0.000304145
0.00316513
1.05393e-06
1.21376e-08
8.33707e-09
2.9367e-09
7.66624e-08
5.13325e-07
2.03291e-07
2.11852e-09
8.29363e-09
1.44142e-08
1.60303e-11
1.3778e-11
6.9951e-12
1.24009e-12
6.96784e-13
4.7805e-13
1.38413e-13
3.19315e-14
8.33521e-15
1.41015e-14
1.70296e-12
3.4375e-11
7.05487e-10
1.69235e-07
1.03286e-06
1.60874e-06
1.60494e-06
1.40536e-06
8.10445e-07
3.29166e-12
-3.55252e-12
3.22053e-13
3.61314e-13
4.77694e-13
9.61107e-13
1.86203e-12
1.30548e-11
1.73214e-11
5.45217e-11
7.79882e-10
4.3766e-10
2.62182e-11
2.21742e-06
2.5717e-06
2.40836e-06
2.06612e-07
1.74999e-10
5.33606e-11
5.08378e-11
4.69554e-11
3.63606e-11
2.35279e-11
1.5263e-11
1.07596e-11
7.04281e-12
3.65497e-12
1.49033e-12
6.22613e-13
3.33893e-13
2.97583e-13
4.41151e-13
1.44327e-12
6.02045e-12
2.27109e-11
5.0402e-11
5.08655e-11
1.17891e-11
3.04929e-09
2.34319e-08
2.58253e-08
5.66362e-08
5.63392e-08
8.80708e-08
5.26623e-08
5.23495e-08
4.89525e-08
1.72039e-08
3.8169e-08
8.96405e-05
0.00316513
3.65002e-07
1.97566e-08
1.21394e-08
4.77933e-08
8.62048e-07
8.86552e-07
8.86094e-07
8.69989e-07
4.86866e-07
3.45715e-08
4.1653e-10
2.51217e-10
9.73713e-11
9.56645e-12
8.0299e-13
6.33476e-13
2.14193e-13
1.7414e-14
3.01264e-15
4.16195e-16
-2.10754e-14
-2.38913e-13
6.02191e-13
3.46715e-11
2.80042e-10
2.32068e-10
1.29767e-10
7.67366e-13
1.41229e-13
1.87625e-13
2.0275e-13
2.45809e-13
3.66454e-13
5.56562e-13
1.25281e-12
4.537e-12
1.60556e-11
1.46936e-11
3.32773e-10
4.73361e-09
2.49434e-09
3.23784e-11
1.04126e-06
2.5839e-06
1.72108e-06
6.48375e-08
1.2263e-10
5.86626e-11
5.74432e-11
4.53257e-11
2.52316e-11
1.07477e-11
5.8966e-12
4.27799e-12
2.89961e-12
1.49752e-12
6.03361e-13
2.45462e-13
1.31714e-13
1.19052e-13
2.24276e-13
1.19608e-12
7.17506e-12
2.85966e-11
6.52226e-11
7.10879e-11
2.05551e-11
3.59125e-10
5.66841e-08
1.03526e-07
1.167e-07
1.20472e-07
9.75885e-08
1.61906e-08
1.55316e-08
1.4321e-08
9.0284e-09
1.65738e-08
2.15524e-07
0.00306112
1.69362e-07
6.91638e-08
4.90983e-08
6.75453e-07
8.86543e-07
8.86543e-07
8.86543e-07
9.56414e-07
1.01399e-06
4.90314e-07
1.12919e-07
3.87546e-09
1.36439e-09
8.30891e-11
4.82912e-12
1.10302e-12
1.2896e-12
3.66673e-14
2.0271e-15
1.3175e-15
2.77515e-15
6.53533e-16
8.48219e-16
-1.3112e-13
-8.85892e-14
3.93368e-16
4.86215e-16
3.81755e-15
6.08928e-14
1.77973e-13
1.97877e-13
2.75253e-13
3.86978e-13
6.72178e-13
1.43325e-12
4.43226e-12
1.56983e-11
1.28788e-11
8.34316e-10
6.33892e-09
3.90988e-09
6.90589e-11
3.81872e-07
2.62305e-06
1.5541e-06
2.60963e-08
9.77071e-11
4.89638e-11
4.7412e-11
3.05853e-11
1.14596e-11
3.19974e-12
1.49554e-12
1.04922e-12
6.77462e-13
3.29619e-13
1.29017e-13
5.26654e-14
2.98494e-14
2.80729e-14
6.08927e-14
4.39101e-13
4.1896e-12
2.15725e-11
5.42394e-11
7.3289e-11
1.36428e-10
8.41851e-11
1.20946e-08
7.34473e-08
4.48171e-08
2.2077e-08
1.8217e-08
9.53641e-09
7.21511e-09
7.07432e-09
5.30597e-09
9.21372e-09
7.53882e-08
0.00314742
1.34876e-07
1.35207e-07
2.18141e-07
8.83167e-07
8.84862e-07
8.86543e-07
6.81299e-07
5.51909e-07
1.21e-06
1.65398e-06
1.76276e-06
4.65515e-07
3.41924e-08
7.70131e-10
4.7438e-11
2.8376e-12
2.15031e-12
2.26232e-13
9.67439e-15
3.19628e-16
1.52214e-16
6.4529e-16
8.44685e-16
1.94081e-16
2.10768e-16
2.78644e-16
5.28842e-16
4.67525e-15
1.10711e-13
2.02104e-13
2.04176e-13
1.89078e-13
2.1653e-13
4.06886e-13
9.49608e-13
3.37791e-12
1.34646e-11
1.24644e-11
9.55336e-10
6.33892e-09
3.72428e-09
1.50931e-10
4.62608e-07
2.66111e-06
2.3349e-06
1.93366e-07
1.72971e-10
3.82167e-11
3.37286e-11
1.75858e-11
4.34097e-12
7.83161e-13
2.89926e-13
1.69839e-13
9.19573e-14
3.92397e-14
1.46306e-14
6.57237e-15
4.09349e-15
4.34812e-15
1.52742e-14
1.95265e-13
2.74357e-12
1.81438e-11
5.2591e-11
1.07899e-10
2.80113e-10
1.71364e-10
2.10156e-10
3.74863e-09
3.62955e-08
4.76123e-08
1.40071e-08
7.39328e-09
4.99153e-09
4.33536e-09
3.89453e-09
5.40107e-09
8.46998e-07
0.00327051
1.18005e-07
1.10384e-07
3.15631e-07
8.67354e-07
8.83167e-07
7.14264e-07
4.61962e-08
4.16356e-08
1.6872e-07
1.24525e-06
1.84845e-06
1.89328e-06
1.36398e-06
5.47633e-09
3.38677e-10
1.19865e-11
1.96362e-12
1.15951e-12
6.41474e-14
1.83426e-15
5.63392e-17
2.27319e-17
5.29975e-17
1.90199e-16
5.4407e-16
1.24242e-15
2.33395e-15
2.46824e-15
2.89067e-15
6.65873e-15
1.18451e-14
2.6748e-14
7.47147e-14
2.34514e-13
7.05076e-13
3.22356e-12
1.20583e-11
1.20522e-11
2.9639e-10
5.10939e-09
1.72615e-09
4.10263e-10
1.78398e-06
2.67533e-06
2.66446e-06
5.84493e-07
2.81827e-10
2.70308e-11
1.96278e-11
9.55803e-12
1.73087e-12
1.95793e-13
5.05285e-14
2.07821e-14
8.28478e-15
2.98019e-15
1.12445e-15
6.35876e-16
4.78767e-16
7.97309e-16
5.9521e-15
9.79055e-14
1.71138e-12
1.42748e-11
5.40832e-11
1.24925e-10
1.33546e-10
1.44854e-10
2.80414e-10
5.12761e-07
1.87363e-06
7.11374e-07
1.00819e-08
4.97815e-09
3.75279e-09
3.42612e-09
3.48231e-09
3.88407e-09
2.79433e-06
0.00326639
9.14295e-08
9.08934e-08
2.5834e-07
8.56548e-07
7.7242e-07
7.03756e-08
3.17865e-08
2.76664e-08
2.82475e-08
1.7606e-07
1.52549e-06
1.9473e-06
2.00131e-06
6.95846e-07
2.27615e-09
8.60017e-11
8.58495e-12
7.3253e-12
4.74266e-13
1.66053e-14
4.83392e-16
1.32663e-17
5.06285e-18
4.94246e-18
1.17739e-17
2.54383e-17
4.81841e-17
1.0106e-16
2.87575e-16
1.05534e-15
4.23308e-15
1.57381e-14
5.28092e-14
2.01244e-13
6.70672e-13
3.39984e-12
1.1739e-11
1.87271e-11
9.00985e-11
8.84549e-10
1.03206e-09
1.09038e-09
2.67468e-06
2.67533e-06
2.67533e-06
5.67439e-07
1.83035e-10
1.84205e-11
1.43978e-11
5.69638e-12
7.64287e-13
6.43468e-14
9.74218e-15
2.91471e-15
1.10617e-15
3.93356e-16
1.57881e-16
9.8449e-17
7.90591e-17
2.04485e-16
2.03311e-15
3.93318e-14
8.35828e-13
9.16504e-12
4.83615e-11
1.23845e-10
1.80324e-10
2.21012e-10
9.06764e-10
3.90495e-06
4.44893e-06
2.09853e-06
1.18535e-08
3.75274e-09
3.07047e-09
3.20021e-09
3.36696e-09
3.16368e-09
2.34329e-05
0.00310996
4.0105e-08
7.52146e-08
7.28725e-07
8.56548e-07
6.69252e-07
3.17867e-08
2.76669e-08
2.51837e-08
2.44317e-08
2.41045e-08
1.03002e-07
1.68655e-06
2.01759e-06
2.03388e-06
1.05624e-07
5.28401e-10
2.34386e-10
5.43197e-11
3.87366e-12
1.62632e-13
5.93939e-15
2.09452e-16
5.05473e-18
7.51373e-19
5.35208e-19
9.2097e-19
3.10589e-18
1.68969e-17
9.90401e-17
5.45717e-16
2.63368e-15
1.115e-14
4.47704e-14
1.97733e-13
7.14035e-13
4.48359e-12
1.4449e-11
2.39952e-11
3.47607e-11
5.28599e-11
8.16553e-10
1.04325e-06
2.67469e-06
2.67533e-06
2.1467e-06
1.10579e-07
3.52429e-11
1.2976e-11
1.24759e-11
3.54753e-12
3.5901e-13
3.09139e-14
3.01946e-15
4.4464e-16
1.17387e-16
4.03032e-17
1.86364e-17
1.29766e-17
1.17449e-17
5.62217e-17
8.40873e-16
1.8484e-14
4.29219e-13
5.95426e-12
3.50688e-11
1.01812e-10
2.62242e-10
3.86236e-10
9.27494e-07
4.44893e-06
4.44893e-06
2.61155e-06
1.33516e-08
3.91235e-09
2.97567e-09
3.06848e-09
3.04627e-09
9.25198e-09
2.288e-05
0.000470472
6.43513e-09
1.67557e-08
8.5282e-07
8.55822e-07
8.51607e-07
2.97714e-08
2.51837e-08
2.44317e-08
2.41045e-08
2.41045e-08
2.41045e-08
2.46426e-08
2.02818e-06
2.03388e-06
1.41844e-06
1.01338e-07
1.95681e-09
1.21017e-10
1.78597e-11
1.16646e-12
4.73077e-14
1.8439e-15
7.23442e-17
2.64022e-18
2.11397e-19
1.99462e-19
7.4236e-19
6.51042e-18
4.9038e-17
3.26298e-16
1.86787e-15
9.51281e-15
4.32743e-14
2.33219e-13
9.53838e-13
7.30054e-12
1.94185e-11
1.92321e-11
1.93287e-11
2.03674e-10
3.06081e-09
1.65266e-06
2.65773e-06
2.67469e-06
1.06185e-06
8.96099e-11
1.85658e-11
2.0109e-11
1.02513e-11
1.70047e-12
1.78537e-13
1.86009e-14
1.53877e-15
1.25259e-16
1.67091e-17
4.62477e-18
2.3112e-18
1.71195e-18
2.03494e-18
2.44473e-17
5.6397e-16
1.41321e-14
3.44626e-13
5.21954e-12
3.15639e-11
8.02033e-11
6.80907e-10
5.67717e-09
1.61236e-06
4.43624e-06
4.44893e-06
3.03912e-06
3.57146e-09
2.97569e-09
2.97569e-09
2.91149e-09
3.99699e-09
4.12021e-07
2.11324e-05
1.02927e-05
1.00794e-09
3.09051e-09
2.83786e-07
8.5282e-07
8.36078e-07
6.34925e-07
2.8561e-08
2.50117e-08
2.42597e-08
2.40995e-08
2.42597e-08
2.46246e-08
7.92197e-07
2.03388e-06
2.00917e-06
4.48289e-07
1.70439e-09
6.1882e-11
2.62089e-11
3.93508e-12
2.07383e-13
8.73056e-15
3.71376e-16
1.59717e-17
5.80962e-19
1.99462e-19
3.64162e-19
3.41132e-18
3.21572e-17
2.59853e-16
1.70713e-15
9.3992e-15
5.01324e-14
3.3179e-13
1.44341e-12
1.14633e-11
2.02538e-11
1.93603e-11
1.97196e-11
3.07707e-07
7.94729e-07
8.55039e-07
2.4915e-06
2.0617e-06
2.26741e-07
1.84908e-11
1.78804e-11
1.78811e-11
6.03363e-12
8.55988e-13
1.09043e-13
1.18519e-14
9.46252e-16
6.5795e-17
4.89388e-18
6.78089e-19
2.8927e-19
2.29677e-19
7.52216e-19
1.91621e-17
6.34177e-16
1.81818e-14
4.37525e-13
6.82974e-12
4.02487e-11
8.32099e-11
3.75604e-10
1.25052e-08
1.98818e-06
4.42119e-06
4.43624e-06
1.64793e-06
3.127e-09
3.05134e-09
2.9692e-09
3.18072e-09
8.69031e-09
5.24187e-07
1.08266e-05
1.18218e-06
1.75912e-10
7.4505e-10
3.03318e-09
5.98712e-07
8.2241e-07
7.94473e-07
7.17284e-07
2.63279e-07
2.54258e-08
2.42597e-08
2.46246e-08
2.50562e-08
1.18245e-07
1.95404e-06
2.01717e-06
6.15981e-07
1.86431e-09
1.20972e-10
1.15202e-11
5.5446e-12
5.33424e-13
2.31622e-14
1.03773e-15
4.64633e-17
1.85405e-18
2.38887e-19
2.89608e-19
2.63683e-18
2.88546e-17
2.52216e-16
1.74538e-15
1.09984e-14
7.18387e-14
4.72114e-13
2.16256e-12
1.41656e-11
1.83685e-11
1.79767e-11
1.8325e-11
2.03441e-06
2.17147e-06
8.87521e-07
2.07964e-07
2.58367e-07
2.90043e-11
5.94223e-11
3.37065e-11
1.14946e-11
2.69546e-12
4.76743e-13
6.92067e-14
7.51768e-15
6.03604e-16
4.20718e-17
2.66932e-18
1.89005e-19
4.15249e-20
5.31289e-20
8.33674e-19
3.45082e-17
1.11584e-15
3.05563e-14
6.86225e-13
8.49504e-12
3.98303e-11
1.14201e-10
8.79791e-10
1.57391e-08
2.13615e-06
4.40724e-06
3.57354e-06
4.8359e-08
3.28273e-09
3.127e-09
3.21676e-09
5.88707e-09
2.36401e-08
1.31036e-06
5.62645e-06
6.58181e-08
9.28228e-11
1.24514e-10
7.26056e-10
1.8094e-08
4.00081e-07
7.47816e-07
6.98472e-07
6.67848e-07
5.65626e-07
1.06931e-07
2.76532e-08
2.67255e-08
1.33701e-07
1.6542e-06
1.95886e-06
3.59919e-07
2.54461e-09
2.05382e-10
2.54149e-11
6.10898e-12
6.81915e-13
3.55597e-14
1.64642e-15
7.52976e-17
3.07963e-18
3.04764e-19
2.91632e-19
2.53156e-18
2.90693e-17
2.74003e-16
2.10384e-15
1.5159e-14
1.05448e-13
6.64055e-13
3.36369e-12
1.71589e-11
1.70729e-11
1.71668e-11
7.45409e-07
2.18759e-06
2.18134e-06
8.31569e-07
1.45392e-09
6.39949e-08
2.84941e-11
1.02467e-10
1.95135e-11
6.23999e-12
1.48941e-12
2.89397e-13
4.36146e-14
4.8178e-15
3.90175e-16
2.74606e-17
1.74313e-18
1.01525e-19
1.39231e-20
3.70854e-20
1.46097e-18
5.21192e-17
1.55468e-15
4.14798e-14
9.66625e-13
8.36396e-12
2.31843e-11
2.26295e-10
1.80548e-09
2.65239e-08
2.15081e-06
4.31581e-06
2.02566e-06
3.73373e-09
3.35384e-09
3.38417e-09
6.10254e-09
1.93938e-08
8.29826e-07
3.00466e-06
1.03136e-06
8.03854e-10
8.90672e-11
2.45903e-11
1.30137e-10
2.9858e-09
2.09402e-08
1.1931e-07
5.25405e-07
6.37803e-07
5.83669e-07
3.54979e-07
4.80913e-08
3.50159e-08
5.40996e-07
1.81275e-06
1.52853e-06
1.6801e-07
2.60685e-09
2.42643e-10
3.12303e-11
5.49697e-12
6.35947e-13
3.56077e-14
1.60892e-15
7.19445e-17
2.84431e-18
3.17858e-19
2.76715e-19
2.62209e-18
3.30792e-17
3.34363e-16
2.79107e-15
2.17636e-14
1.6085e-13
9.67327e-13
6.92962e-12
1.97365e-11
1.717e-11
1.74832e-11
2.03862e-06
2.18759e-06
1.65716e-06
1.29526e-07
1.39636e-09
2.84941e-11
2.84686e-11
3.01651e-11
1.2725e-11
3.84087e-12
8.54355e-13
1.75466e-13
2.72452e-14
3.13629e-15
2.57177e-16
1.80365e-17
1.15778e-18
6.86181e-20
1.39231e-20
4.26296e-20
1.74887e-18
5.65677e-17
1.5769e-15
3.96011e-14
7.69669e-13
6.72919e-12
3.18168e-11
2.8401e-10
2.40252e-09
2.12115e-08
1.69025e-06
4.07487e-06
2.11037e-06
5.52066e-09
3.73373e-09
5.27618e-09
1.26295e-08
4.05341e-08
8.00251e-07
2.7946e-06
2.09441e-08
4.25469e-10
4.89261e-11
1.60103e-11
1.17714e-08
1.42287e-08
1.83456e-08
2.84863e-08
4.40528e-08
1.51502e-07
2.89491e-07
1.56028e-07
6.50341e-08
5.37868e-08
1.02332e-06
1.91085e-06
1.37911e-06
7.40057e-08
2.25391e-09
2.03281e-10
2.77924e-11
3.61783e-12
3.9048e-13
2.27817e-14
1.04554e-15
4.62201e-17
1.74103e-18
2.43617e-19
2.51655e-19
2.91853e-18
3.91286e-17
4.21981e-16
3.92164e-15
3.38019e-14
2.79278e-13
1.57942e-12
1.80799e-11
2.16274e-11
1.74832e-11
3.20366e-09
2.10818e-06
2.1851e-06
7.23093e-10
3.17051e-10
4.58802e-08
1.45615e-10
2.4984e-11
2.49867e-11
1.14567e-11
2.82774e-12
5.78583e-13
1.1356e-13
1.69633e-14
2.07282e-15
1.73528e-16
1.20757e-17
7.70518e-19
4.72049e-20
1.14813e-20
3.18872e-20
1.39148e-18
4.47308e-17
1.22963e-15
2.96757e-14
5.46876e-13
5.12668e-12
3.16645e-11
2.77255e-10
2.20336e-09
1.78686e-08
1.03215e-06
3.78548e-06
3.33285e-06
5.27766e-07
5.52066e-09
1.09175e-08
2.87089e-08
8.8951e-08
5.62338e-07
2.22285e-07
4.25469e-10
4.18283e-10
1.75229e-11
1.43914e-11
4.15333e-08
9.51509e-08
3.15641e-08
3.80209e-08
4.0509e-08
4.6541e-08
6.00935e-08
6.8572e-08
6.87779e-08
1.81429e-07
1.9208e-06
1.99055e-06
8.12134e-07
1.10155e-08
1.16307e-09
1.3415e-10
1.44428e-11
1.55854e-12
1.31149e-13
6.79418e-15
2.91751e-16
1.17848e-17
4.24278e-19
1.21735e-19
2.36817e-19
3.29816e-18
4.80362e-17
5.81177e-16
6.28035e-15
5.99289e-14
5.41512e-13
2.93195e-12
3.20005e-11
2.16587e-11
1.93339e-11
1.45338e-08
2.07346e-06
5.85516e-07
1.63592e-10
2.81309e-10
3.14118e-09
1.34401e-10
1.94808e-10
2.21776e-11
1.3874e-11
2.42097e-12
4.97927e-13
8.68839e-14
1.10563e-14
1.4085e-15
1.20004e-16
8.26216e-18
5.21577e-19
3.19781e-20
5.85422e-21
1.8574e-20
6.38045e-19
1.87904e-17
4.96448e-16
1.18353e-14
2.17931e-13
2.35674e-12
2.07195e-11
1.87569e-10
1.48342e-09
1.1859e-08
3.69124e-07
3.23956e-06
3.66234e-06
3.28322e-06
2.5921e-07
2.87131e-08
1.23465e-06
3.5054e-06
2.28858e-06
7.46597e-10
4.17718e-10
4.13831e-10
1.20752e-11
1.43747e-11
5.52919e-11
1.31692e-08
3.38749e-07
9.87709e-07
7.30901e-07
6.00918e-08
7.17112e-08
7.23519e-08
3.49485e-07
2.01417e-06
2.09643e-06
1.76444e-06
1.67209e-07
3.4743e-09
3.80847e-10
4.96931e-11
4.42483e-12
4.24153e-13
2.64275e-14
1.14528e-15
5.36484e-17
2.51478e-18
1.28696e-19
3.36505e-20
2.28798e-19
4.1867e-18
6.92278e-17
9.57759e-16
1.14039e-14
1.10339e-13
9.98781e-13
4.95442e-12
3.64783e-11
2.19572e-11
2.21547e-11
7.81862e-07
2.05572e-06
1.67214e-07
1.63592e-10
1.6269e-10
3.23588e-10
6.842e-10
4.99634e-10
3.07257e-11
1.52048e-11
2.26681e-12
4.93188e-13
7.95983e-14
8.0387e-15
1.015e-15
8.59722e-17
5.85255e-18
3.65509e-19
2.19068e-20
2.2653e-21
6.04105e-21
1.44343e-19
4.25064e-18
1.161e-16
2.86756e-15
5.94804e-14
8.13673e-13
7.49267e-12
7.35852e-11
5.35212e-10
4.28939e-09
3.30352e-08
1.549e-06
3.71442e-06
3.79469e-06
3.69063e-06
3.13167e-06
3.92351e-06
3.93776e-06
3.79179e-06
2.50609e-07
5.7297e-10
3.85284e-10
7.40211e-12
8.15585e-12
8.33084e-12
4.10148e-08
1.57032e-06
2.31507e-06
2.33061e-06
1.99854e-06
1.1922e-06
1.42056e-06
2.20599e-06
2.16376e-06
1.91931e-06
3.15286e-07
4.1637e-09
4.71744e-10
5.74802e-11
7.21151e-12
8.86443e-13
6.49623e-14
2.93806e-15
1.29548e-16
6.44819e-18
3.02513e-19
2.19419e-20
2.52298e-20
3.15344e-19
6.82302e-18
1.20571e-16
1.72418e-15
2.00282e-14
1.81414e-13
1.59608e-12
5.77343e-12
3.38981e-11
1.86858e-11
4.07229e-09
2.36578e-06
5.94756e-07
1.87823e-07
1.62636e-10
3.59546e-10
9.47512e-10
9.96873e-10
5.34228e-10
6.47543e-11
1.34161e-11
2.24104e-12
5.31798e-13
8.01572e-14
6.68349e-15
8.0818e-16
6.60566e-17
4.44964e-18
2.74412e-19
1.59562e-20
1.10479e-21
2.17318e-21
3.537e-20
9.10747e-19
2.29804e-17
5.56836e-16
1.16106e-14
2.01382e-13
2.19503e-12
1.60398e-11
1.19677e-10
8.59291e-10
6.15163e-09
8.82646e-08
2.01777e-06
3.82483e-06
3.86198e-06
3.9421e-06
3.98362e-06
3.95958e-06
3.72004e-06
2.8654e-07
3.62071e-10
1.69864e-10
3.51534e-12
1.64661e-11
1.63827e-11
2.75313e-10
5.45128e-07
2.33061e-06
2.33061e-06
2.33061e-06
2.30863e-06
2.2478e-06
2.20599e-06
1.54775e-06
2.24267e-07
3.25228e-09
4.65172e-10
6.36227e-11
8.25571e-12
1.37923e-12
1.1307e-13
5.62867e-15
2.555e-16
1.02172e-17