/*--------------------------------*- C++ -*----------------------------------*\
| =========                 |                                                 |
| \\      /  F ield         | OpenFOAM: The Open Source CFD Toolbox           |
|  \\    /   O peration     | Version:  2412                                  |
|   \\  /    A nd           | Website:  www.openfoam.com                      |
|    \\/     M anipulation  |                                                 |
\*---------------------------------------------------------------------------*/
FoamFile
{
    version     2.0;
    format      ascii;
    arch        "LSB;label=32;scalar=64";
    class       volVectorField;
    location    "6";
    object      U;
}
// * * * * * * * * * * * * * * * * * * * * * * * * * * * * * * * * * * * * * //

dimensions      [0 1 -1 0 0 0 0];

internalField   nonuniform List<vector> 
6400
(
(0.000412495 -0.000423704 0)
(0.000529732 -0.000289076 0)
(0.000622911 -0.000292133 0)
(0.000862856 -0.000289934 0)
(0.00116165 -0.000271615 0)
(0.00143074 -0.000238271 0)
(0.00160981 -0.000194667 0)
(0.00167528 -0.000136321 0)
(0.00162934 -7.35933e-05 0)
(0.00145417 -1.23941e-05 0)
(0.00115272 5.23918e-05 0)
(0.000744507 0.000118724 0)
(0.000232728 0.000186219 0)
(-0.0003773 0.000252924 0)
(-0.00107829 0.000317349 0)
(-0.00185661 0.000378359 0)
(-0.00270077 0.000436888 0)
(-0.00360175 0.000491819 0)
(-0.00454957 0.000537506 0)
(-0.00552755 0.000573612 0)
(-0.00651679 0.000595753 0)
(-0.0074978 0.000605863 0)
(-0.00844492 0.000602118 0)
(-0.00933841 0.000578569 0)
(-0.0101529 0.000541569 0)
(-0.0108645 0.000485316 0)
(-0.0114502 0.000417428 0)
(-0.0118858 0.000331031 0)
(-0.0121513 0.00023326 0)
(-0.0122245 0.000125449 0)
(-0.0120973 4.46988e-06 0)
(-0.0117703 -0.000121239 0)
(-0.0112327 -0.000242663 0)
(-0.0104788 -0.000360973 0)
(-0.00951773 -0.000472692 0)
(-0.00836809 -0.000573878 0)
(-0.00704958 -0.000662253 0)
(-0.00558083 -0.000735548 0)
(-0.00399422 -0.000792264 0)
(-0.00231906 -0.000826195 0)
(-0.000588676 -0.000840186 0)
(0.00115642 -0.000830963 0)
(0.00288191 -0.000800447 0)
(0.004549 -0.000751912 0)
(0.00612737 -0.00068542 0)
(0.00759139 -0.000603859 0)
(0.00890891 -0.000511334 0)
(0.0100617 -0.000407726 0)
(0.0110419 -0.000294146 0)
(0.011846 -0.000185865 0)
(0.0124596 -7.85948e-05 0)
(0.0128785 2.33207e-05 0)
(0.0131103 0.000123391 0)
(0.0131575 0.000218604 0)
(0.0130356 0.000307183 0)
(0.012755 0.000376622 0)
(0.0123214 0.000428266 0)
(0.0117541 0.000467813 0)
(0.0110744 0.000494931 0)
(0.0103014 0.000508756 0)
(0.00945666 0.000510139 0)
(0.0085594 0.000496622 0)
(0.0076275 0.000472528 0)
(0.00668128 0.000440648 0)
(0.00573777 0.000401936 0)
(0.00481394 0.000357846 0)
(0.00392814 0.000308421 0)
(0.00309734 0.000254471 0)
(0.00233694 0.000196858 0)
(0.00165974 0.000137848 0)
(0.00107833 8.05172e-05 0)
(0.000608019 2.36443e-05 0)
(0.000260487 -2.99767e-05 0)
(3.66643e-05 -8.03972e-05 0)
(-6.95449e-05 -0.000125702 0)
(-8.17229e-05 -0.000160715 0)
(-5.64086e-05 -0.000177677 0)
(-7.09205e-05 -0.000175207 0)
(-0.00021219 -0.00018296 0)
(-0.000317371 -0.000329279 0)
(0.000248147 -0.000521603 0)
(-0.000350958 0.000226416 0)
(-0.000583844 -2.19684e-05 0)
(-0.000494323 -0.00022365 0)
(-0.000250989 -0.000263145 0)
(-9.07425e-06 -0.000181499 0)
(0.000120421 -2.6351e-05 0)
(8.56572e-05 0.000164702 0)
(-0.000121015 0.000356958 0)
(-0.000491452 0.000538778 0)
(-0.00100227 0.000700064 0)
(-0.00162071 0.000844366 0)
(-0.00232612 0.000974105 0)
(-0.00309856 0.00108715 0)
(-0.00392254 0.00118532 0)
(-0.00478744 0.00126398 0)
(-0.00567455 0.00132704 0)
(-0.00657173 0.00137783 0)
(-0.00746762 0.00140654 0)
(-0.00834649 0.00141046 0)
(-0.00919098 0.0013858 0)
(-0.00998688 0.00133351 0)
(-0.0107241 0.00125206 0)
(-0.0113842 0.00113606 0)
(-0.0119526 0.000989782 0)
(-0.012412 0.000810173 0)
(-0.0127468 0.000603529 0)
(-0.0129407 0.000363875 0)
(-0.0129701 9.84508e-05 0)
(-0.01283 -0.000189563 0)
(-0.0125161 -0.000495957 0)
(-0.0120245 -0.000811869 0)
(-0.0113493 -0.00112099 0)
(-0.0104864 -0.00142465 0)
(-0.00943907 -0.00171324 0)
(-0.00822473 -0.00198079 0)
(-0.00685931 -0.00221366 0)
(-0.00535262 -0.00241226 0)
(-0.00372889 -0.00257298 0)
(-0.00201226 -0.00268317 0)
(-0.000230367 -0.00274408 0)
(0.00158403 -0.00274929 0)
(0.00339978 -0.00270005 0)
(0.00518147 -0.00260424 0)
(0.00690726 -0.00246301 0)
(0.00855365 -0.00228106 0)
(0.0100869 -0.00206754 0)
(0.0114952 -0.00182648 0)
(0.0127615 -0.00156032 0)
(0.0138901 -0.00129044 0)
(0.0148625 -0.00101619 0)
(0.0156532 -0.000744537 0)
(0.0162674 -0.000464759 0)
(0.0166999 -0.000186649 0)
(0.0169459 8.40767e-05 0)
(0.0170068 0.000335601 0)
(0.0168944 0.000562626 0)
(0.0166155 0.000770348 0)
(0.0161739 0.000955497 0)
(0.0155799 0.00111567 0)
(0.0148458 0.00124878 0)
(0.0139877 0.00135178 0)
(0.0130246 0.00142691 0)
(0.0119736 0.00147629 0)
(0.0108564 0.00149835 0)
(0.00969767 0.00149308 0)
(0.00852131 0.00146045 0)
(0.00734995 0.00140031 0)
(0.00620993 0.00131099 0)
(0.00513277 0.00119345 0)
(0.00415353 0.00104888 0)
(0.00331025 0.000874217 0)
(0.0026383 0.000681971 0)
(0.00215334 0.000484513 0)
(0.00185116 0.000311826 0)
(0.00168932 0.00020831 0)
(0.00155518 0.000228924 0)
(0.00128719 0.000406675 0)
(0.00073625 0.000610602 0)
(-0.00014076 -0.000202523 0)
(0.000276484 -0.000531624 0)
(-0.000111322 0.000515476 0)
(8.32544e-05 -0.000180804 0)
(0.000666952 -0.000686933 0)
(0.00142687 -0.000811005 0)
(0.00215857 -0.00065408 0)
(0.0027258 -0.000329398 0)
(0.00306232 5.96202e-05 0)
(0.00316828 0.000454351 0)
(0.00304623 0.000815277 0)
(0.0027273 0.00113299 0)
(0.00226187 0.00140778 0)
(0.00166809 0.00163784 0)
(0.000975537 0.00183299 0)
(0.000207714 0.00200295 0)
(-0.00062331 0.00213203 0)
(-0.00149421 0.0022279 0)
(-0.00239265 0.00229895 0)
(-0.00330949 0.00233574 0)
(-0.00422651 0.00232884 0)
(-0.00512819 0.00228176 0)
(-0.00600451 0.00218944 0)
(-0.00684355 0.00204925 0)
(-0.00762661 0.00186222 0)
(-0.00833592 0.00162426 0)
(-0.00895058 0.00133828 0)
(-0.00945588 0.000999207 0)
(-0.0098361 0.000617244 0)
(-0.0100697 0.000192815 0)
(-0.0101448 -0.000270641 0)
(-0.0100541 -0.00075789 0)
(-0.00978775 -0.00125982 0)
(-0.00933684 -0.00175967 0)
(-0.00870254 -0.00225302 0)
(-0.00788925 -0.00272783 0)
(-0.00690222 -0.00317202 0)
(-0.00575333 -0.00356033 0)
(-0.00445804 -0.00389354 0)
(-0.00303828 -0.00416366 0)
(-0.00152292 -0.00435721 0)
(6.08258e-05 -0.00446781 0)
(0.0016814 -0.00449025 0)
(0.00330491 -0.00442494 0)
(0.00489797 -0.00427942 0)
(0.00643946 -0.00405806 0)
(0.00789906 -0.00377519 0)
(0.009247 -0.00343488 0)
(0.0104796 -0.00305151 0)
(0.0115713 -0.00263541 0)
(0.0125173 -0.00219856 0)
(0.0133064 -0.00175124 0)
(0.0139251 -0.00129836 0)
(0.0143726 -0.000841642 0)
(0.0146395 -0.000389402 0)
(0.0147303 5.19105e-05 0)
(0.014642 0.000477837 0)
(0.0143855 0.000878216 0)
(0.013972 0.00124937 0)
(0.0134045 0.00158509 0)
(0.0126928 0.00188213 0)
(0.01185 0.0021359 0)
(0.0108924 0.00234474 0)
(0.00983876 0.00250517 0)
(0.00870688 0.00261776 0)
(0.00751883 0.00267686 0)
(0.00630372 0.0026819 0)
(0.00509087 0.00263297 0)
(0.00390995 0.00252986 0)
(0.00279626 0.00236595 0)
(0.00179024 0.00213573 0)
(0.000934815 0.00183284 0)
(0.000276598 0.00146824 0)
(-0.000143043 0.00105785 0)
(-0.000300648 0.000633829 0)
(-0.000202647 0.000270034 0)
(9.15777e-05 6.45072e-05 0)
(0.000443629 0.000138278 0)
(0.000649472 0.000583508 0)
(0.000524722 0.00120728 0)
(-0.000155257 2.57391e-05 0)
(0.000309265 -0.000727475 0)
(0.000168365 0.0004387 0)
(0.000757129 -0.000787012 0)
(0.00176781 -0.00160985 0)
(0.00295443 -0.00179936 0)
(0.00407188 -0.00152329 0)
(0.00496319 -0.000975758 0)
(0.00556924 -0.00032106 0)
(0.00588684 0.000330228 0)
(0.0059363 0.000915175 0)
(0.00576652 0.00142782 0)
(0.00541336 0.00186482 0)
(0.00490994 0.00222109 0)
(0.00429981 0.0025197 0)
(0.00359074 0.0027691 0)
(0.00279655 0.00296499 0)
(0.00195581 0.00311026 0)
(0.00107517 0.00321322 0)
(0.000154821 0.00326928 0)
(-0.000782659 0.00327273 0)
(-0.00172115 0.00321989 0)
(-0.00265715 0.0031084 0)
(-0.00357359 0.00293168 0)
(-0.00444898 0.00269003 0)
(-0.00526626 0.0023784 0)
(-0.00600808 0.00199978 0)
(-0.00665357 0.00154529 0)
(-0.00718616 0.00103326 0)
(-0.00759306 0.0004615 0)
(-0.00785487 -0.000157176 0)
(-0.00795874 -0.000816217 0)
(-0.00789376 -0.00149732 0)
(-0.00764844 -0.00218516 0)
(-0.00722524 -0.00286479 0)
(-0.00662865 -0.00352197 0)
(-0.00585594 -0.00413904 0)
(-0.00491566 -0.00468885 0)
(-0.00382294 -0.00516153 0)
(-0.00260214 -0.00554582 0)
(-0.00128584 -0.00582384 0)
(0.000101195 -0.00598733 0)
(0.0015288 -0.00603165 0)
(0.00296599 -0.00595631 0)
(0.00438038 -0.00576771 0)
(0.0057429 -0.00547444 0)
(0.00702804 -0.00509775 0)
(0.0082112 -0.00464236 0)
(0.00928147 -0.00412226 0)
(0.010215 -0.00356258 0)
(0.0110047 -0.0029656 0)
(0.0116418 -0.00235139 0)
(0.0121119 -0.00172206 0)
(0.0124163 -0.00109405 0)
(0.0125525 -0.000468078 0)
(0.0125208 0.000142538 0)
(0.0123168 0.000729848 0)
(0.0119517 0.00129434 0)
(0.0114368 0.00181838 0)
(0.0107771 0.00229769 0)
(0.00998301 0.00272436 0)
(0.00906646 0.00309435 0)
(0.00804284 0.00340141 0)
(0.00693224 0.00364058 0)
(0.00575121 0.00380952 0)
(0.00452242 0.00390034 0)
(0.00327915 0.00390748 0)
(0.00205496 0.00382647 0)
(0.000884406 0.00365601 0)
(-0.000193629 0.00338414 0)
(-0.00113807 0.00300078 0)
(-0.00189385 0.00249325 0)
(-0.00240979 0.0018864 0)
(-0.00264681 0.00119298 0)
(-0.00256051 0.000478595 0)
(-0.00214956 -0.000140064 0)
(-0.00147499 -0.000495995 0)
(-0.000688977 -0.000393898 0)
(-3.97447e-05 0.000337194 0)
(0.000238767 0.00145355 0)
(-0.000189473 7.53156e-05 0)
(0.000330519 -0.00105306 0)
(0.000367878 9.34929e-05 0)
(0.00128884 -0.00175705 0)
(0.00267265 -0.00291491 0)
(0.00420942 -0.00313134 0)
(0.0056032 -0.00267695 0)
(0.0066895 -0.00184257 0)
(0.00741661 -0.000868204 0)
(0.0078045 7.62044e-05 0)
(0.00790131 0.000920288 0)
(0.00776875 0.00164484 0)
(0.00744259 0.00224545 0)
(0.00696199 0.002746 0)
(0.00637677 0.00315685 0)
(0.00569392 0.00348616 0)
(0.00492066 0.00376605 0)
(0.00408862 0.00397126 0)
(0.00320966 0.00411353 0)
(0.00228482 0.00420303 0)
(0.00133035 0.00423122 0)
(0.000360926 0.00419281 0)
(-0.000616257 0.00407732 0)
(-0.00158457 0.00388118 0)
(-0.00252362 0.00359733 0)
(-0.00341766 0.00322371 0)
(-0.00425361 0.0027618 0)
(-0.00500345 0.00221072 0)
(-0.00564645 0.0015789 0)
(-0.0061692 0.000879794 0)
(-0.00655485 0.000115008 0)
(-0.00679363 -0.000708198 0)
(-0.00686721 -0.00156394 0)
(-0.00676139 -0.00243819 0)
(-0.0064718 -0.00329735 0)
(-0.00600807 -0.00413288 0)
(-0.0053704 -0.00492333 0)
(-0.00456036 -0.00564183 0)
(-0.00359182 -0.00625706 0)
(-0.00248714 -0.0067609 0)
(-0.00128078 -0.00712675 0)
(-2.13457e-06 -0.00734704 0)
(0.00132188 -0.00741583 0)
(0.00266141 -0.00733226 0)
(0.00398393 -0.00710776 0)
(0.00525486 -0.00674521 0)
(0.00644738 -0.00627978 0)
(0.00754758 -0.00571776 0)
(0.00853717 -0.00506949 0)
(0.00939346 -0.00436741 0)
(0.0101052 -0.00361533 0)
(0.0106637 -0.00284057 0)
(0.0110612 -0.00204549 0)
(0.0112937 -0.00124595 0)
(0.0113572 -0.00045009 0)
(0.0112521 0.000327455 0)
(0.0109877 0.00107431 0)
(0.010563 0.00179107 0)
(0.00998453 0.00246021 0)
(0.00926692 0.0030758 0)
(0.00841838 0.00362683 0)
(0.00744992 0.0041065 0)
(0.00637447 0.00450693 0)
(0.00521317 0.00481908 0)
(0.00398322 0.00503677 0)
(0.00270781 0.00515267 0)
(0.00142222 0.00515265 0)
(0.000163915 0.0050283 0)
(-0.00103617 0.00476922 0)
(-0.00214123 0.004376 0)
(-0.00310972 0.00381544 0)
(-0.00387363 0.00309932 0)
(-0.00437881 0.0022136 0)
(-0.00457308 0.00118954 0)
(-0.00437993 0.00012055 0)
(-0.00378115 -0.000828945 0)
(-0.00282627 -0.0014041 0)
(-0.00167436 -0.00131691 0)
(-0.000623827 -0.000292913 0)
(9.05261e-06 0.00140076 0)
(-0.000217321 -2.92882e-06 0)
(0.000350616 -0.00147046 0)
(0.000549604 -0.000498163 0)
(0.00183432 -0.00307061 0)
(0.00363947 -0.0045709 0)
(0.00553024 -0.00475226 0)
(0.00715118 -0.00402556 0)
(0.00833928 -0.00281347 0)
(0.00907123 -0.00145782 0)
(0.00940649 -0.00017747 0)
(0.00943114 0.000939814 0)
(0.00922013 0.00187915 0)
(0.00883329 0.00264437 0)
(0.00830753 0.00327666 0)
(0.00767349 0.00379511 0)
(0.00696912 0.00421312 0)
(0.00617582 0.00456171 0)
(0.00530711 0.00483487 0)
(0.00440612 0.0050296 0)
(0.003458 0.00516167 0)
(0.00247162 0.00521868 0)
(0.00145856 0.00519254 0)
(0.000424305 0.00509396 0)
(-0.000609216 0.00488761 0)
(-0.00162276 0.0045752 0)
(-0.00259949 0.00415208 0)
(-0.00352732 0.0036169 0)
(-0.0043775 0.0029764 0)
(-0.00511471 0.00223481 0)
(-0.00573153 0.00141029 0)
(-0.00621933 0.000494919 0)
(-0.0065507 -0.00049292 0)
(-0.00671599 -0.00152689 0)
(-0.00669259 -0.00258518 0)
(-0.0064702 -0.0036323 0)
(-0.00606487 -0.00465398 0)
(-0.00547976 -0.0056261 0)
(-0.00471003 -0.00651335 0)
(-0.00377004 -0.00728506 0)
(-0.00268342 -0.00791357 0)
(-0.00147817 -0.00837607 0)
(-0.000193707 -0.00866107 0)
(0.00114031 -0.00876316 0)
(0.00248895 -0.008672 0)
(0.00382735 -0.00840685 0)
(0.00510553 -0.00798277 0)
(0.0062957 -0.00742151 0)
(0.00740221 -0.00674911 0)
(0.00838982 -0.00597344 0)
(0.00923687 -0.00512944 0)
(0.00993449 -0.00422406 0)
(0.0104746 -0.00328388 0)
(0.0108523 -0.00231889 0)
(0.0110559 -0.00134535 0)
(0.011085 -0.000378718 0)
(0.0109414 0.000567926 0)
(0.0106335 0.00147907 0)
(0.0101623 0.00234342 0)
(0.00953395 0.00315682 0)
(0.00876186 0.00390826 0)
(0.00785354 0.0045852 0)
(0.00682102 0.00517593 0)
(0.00567537 0.00567004 0)
(0.00443823 0.00605658 0)
(0.00313159 0.00632712 0)
(0.00177632 0.00646608 0)
(0.000405135 0.00645849 0)
(-0.000949454 0.0062941 0)
(-0.00224577 0.0059424 0)
(-0.00346388 0.00542789 0)
(-0.00454905 0.00470483 0)
(-0.00543451 0.00376489 0)
(-0.00607015 0.00257457 0)
(-0.00635285 0.00117663 0)
(-0.00617962 -0.000325027 0)
(-0.00548604 -0.00171124 0)
(-0.00429016 -0.00262225 0)
(-0.00275953 -0.002626 0)
(-0.00125731 -0.00131332 0)
(-0.00021641 0.0010664 0)
(-0.000238073 -0.000188686 0)
(0.000362061 -0.00199345 0)
(0.000785821 -0.00138923 0)
(0.00259082 -0.00480993 0)
(0.00495675 -0.00664227 0)
(0.00726764 -0.00666631 0)
(0.00908641 -0.0055088 0)
(0.0102745 -0.00378506 0)
(0.0108768 -0.0019617 0)
(0.0110271 -0.000306654 0)
(0.0108611 0.00108587 0)
(0.0104769 0.00222042 0)
(0.00994602 0.00313922 0)
(0.00930931 0.00388176 0)
(0.00858765 0.00449336 0)
(0.00780734 0.00499578 0)
(0.00696034 0.00540101 0)
(0.0060433 0.00573576 0)
(0.00508865 0.00599296 0)
(0.00409095 0.00616962 0)
(0.00304215 0.0062652 0)
(0.00197494 0.00626266 0)
(0.000868709 0.00618064 0)
(-0.000265413 0.0059696 0)
(-0.00137651 0.0056466 0)
(-0.00245878 0.00518542 0)
(-0.00349654 0.0045834 0)
(-0.00445719 0.00384974 0)
(-0.00530227 0.00299549 0)
(-0.00602429 0.00203279 0)
(-0.00660408 0.000954683 0)
(-0.00700787 -0.000196079 0)
(-0.00723247 -0.00141973 0)
(-0.00725948 -0.00267969 0)
(-0.00706963 -0.0039323 0)
(-0.00667264 -0.00515746 0)
(-0.00607132 -0.00632727 0)
(-0.00527278 -0.00739948 0)
(-0.00428766 -0.00834532 0)
(-0.00313323 -0.00911554 0)
(-0.00184538 -0.00968706 0)
(-0.00046502 -0.0100444 0)
(0.000980282 -0.0101796 0)
(0.00244354 -0.0100803 0)
(0.00387801 -0.00976476 0)
(0.00524954 -0.00927659 0)
(0.00652136 -0.00860958 0)
(0.00769528 -0.00781486 0)
(0.00874062 -0.00690502 0)
(0.00963058 -0.00590741 0)
(0.0103593 -0.00483903 0)
(0.0109163 -0.00372354 0)
(0.0113025 -0.00257999 0)
(0.0115031 -0.00142483 0)
(0.0115168 -0.000279074 0)
(0.0113483 0.000841398 0)
(0.0110032 0.00192182 0)
(0.0104837 0.00294673 0)
(0.0097994 0.00391278 0)
(0.00896107 0.00480695 0)
(0.00797648 0.00561564 0)
(0.00685711 0.00632424 0)
(0.00561462 0.00691725 0)
(0.00427343 0.00738639 0)
(0.00285394 0.00771735 0)
(0.00137755 0.00788409 0)
(-0.000120052 0.00787509 0)
(-0.00163194 0.00767236 0)
(-0.00309962 0.00727092 0)
(-0.00449117 0.00664632 0)
(-0.00579242 0.00578069 0)
(-0.00692862 0.00461032 0)
(-0.00781941 0.00310314 0)
(-0.00833323 0.00127851 0)
(-0.00831544 -0.000757073 0)
(-0.00762548 -0.00273107 0)
(-0.0062088 -0.00415214 0)
(-0.00421796 -0.00439026 0)
(-0.00210879 -0.00281179 0)
(-0.000506293 0.000392341 0)
(-0.000258791 -0.000498457 0)
(0.000380817 -0.00266706 0)
(0.00120226 -0.0027305 0)
(0.00385209 -0.00719722 0)
(0.00705754 -0.00928474 0)
(0.00988733 -0.00890187 0)
(0.0118138 -0.00705013 0)
(0.0128104 -0.00462424 0)
(0.0130792 -0.00223652 0)
(0.0128672 -0.000181918 0)
(0.0123728 0.00146351 0)
(0.0117248 0.00275541 0)
(0.010992 0.00378527 0)
(0.0102014 0.0046102 0)
(0.00936262 0.00528574 0)
(0.00848615 0.00584565 0)
(0.0075623 0.00631721 0)
(0.00658628 0.00669588 0)
(0.00556967 0.00700305 0)
(0.00450473 0.00724152 0)
(0.00338464 0.00739012 0)
(0.00223272 0.00743306 0)
(0.00102062 0.00737369 0)
(-0.000226686 0.007175 0)
(-0.0014589 0.00683975 0)
(-0.00267804 0.00634699 0)
(-0.00385052 0.00568084 0)
(-0.00494369 0.00484622 0)
(-0.00591466 0.00386035 0)
(-0.00676408 0.00273654 0)
(-0.00743902 0.00151004 0)
(-0.00790975 0.000170781 0)
(-0.00820292 -0.00126617 0)
(-0.00826563 -0.00274474 0)
(-0.0080844 -0.00422847 0)
(-0.00767418 -0.00568112 0)
(-0.00702757 -0.00707208 0)
(-0.0061567 -0.00836313 0)
(-0.00507118 -0.00950265 0)
(-0.00378895 -0.0104433 0)
(-0.00234983 -0.0111415 0)
(-0.000799259 -0.0115802 0)
(0.000828226 -0.0117447 0)
(0.0024742 -0.0116362 0)
(0.00406738 -0.0112731 0)
(0.00558698 -0.0106883 0)
(0.00699723 -0.00991071 0)
(0.00828241 -0.00897195 0)
(0.00942524 -0.00790598 0)
(0.0103932 -0.00673573 0)
(0.0111795 -0.00548842 0)
(0.0117773 -0.00418205 0)
(0.012188 -0.00284698 0)
(0.0123964 -0.0014963 0)
(0.0124024 -0.000161115 0)
(0.0122136 0.00114664 0)
(0.0118305 0.00240904 0)
(0.0112575 0.00360962 0)
(0.010506 0.00474219 0)
(0.00958655 0.00578932 0)
(0.00850808 0.0067401 0)
(0.00728119 0.0075766 0)
(0.0059181 0.00828032 0)
(0.00444467 0.00884163 0)
(0.0028805 0.00923403 0)
(0.00124837 0.0094401 0)
(-0.000420313 0.00944559 0)
(-0.00211181 0.00922808 0)
(-0.00379956 0.00880483 0)
(-0.00545256 0.00811577 0)
(-0.00704747 0.00712647 0)
(-0.00854022 0.00576444 0)
(-0.0098347 0.00395 0)
(-0.010767 0.00165281 0)
(-0.0111097 -0.00104292 0)
(-0.0105961 -0.0038235 0)
(-0.00902838 -0.00604352 0)
(-0.00646026 -0.00676636 0)
(-0.00345038 -0.00499348 0)
(-0.000963869 -0.000780711 0)
(-0.000281526 -0.000984493 0)
(0.000423607 -0.00362702 0)
(0.00203919 -0.00487104 0)
(0.00618468 -0.0106391 0)
(0.0107033 -0.0127231 0)
(0.0141109 -0.011425 0)
(0.0158699 -0.00843258 0)
(0.0162727 -0.00505982 0)
(0.0158448 -0.00203699 0)
(0.0150113 0.000374188 0)
(0.0140282 0.00219433 0)
(0.0130317 0.00356723 0)
(0.0120518 0.00463212 0)
(0.0110816 0.00548474 0)
(0.0101149 0.0061881 0)
(0.00915253 0.00678328 0)
(0.00814903 0.00729641 0)
(0.00709475 0.00772136 0)
(0.00602734 0.00808049 0)
(0.00490088 0.00839166 0)
(0.00368968 0.00860187 0)
(0.00244374 0.00870274 0)
(0.0011152 0.00869268 0)
(-0.000282124 0.00852467 0)
(-0.00166507 0.00818273 0)
(-0.00303797 0.00766047 0)
(-0.00437757 0.00693226 0)
(-0.00563749 0.00599479 0)
(-0.0067712 0.00487367 0)
(-0.00774028 0.00357967 0)
(-0.00852844 0.00217087 0)
(-0.00911701 0.000613883 0)
(-0.00946707 -0.00106086 0)
(-0.00956246 -0.00278468 0)
(-0.00939371 -0.00453132 0)
(-0.00895872 -0.0062462 0)
(-0.00825795 -0.00789083 0)
(-0.00729122 -0.00942571 0)
(-0.00607243 -0.0107904 0)
(-0.00462257 -0.011927 0)
(-0.00298314 -0.012785 0)
(-0.00121141 -0.013324 0)
(0.000647666 -0.0135243 0)
(0.00251756 -0.0133994 0)
(0.00432839 -0.0129696 0)
(0.00604125 -0.0122706 0)
(0.00761893 -0.0113528 0)
(0.00905336 -0.0102528 0)
(0.0103165 -0.00900485 0)
(0.0113831 -0.00764022 0)
(0.0122487 -0.00619116 0)
(0.0129017 -0.00467386 0)
(0.0133476 -0.00312455 0)
(0.0135716 -0.00156289 0)
(0.0135727 -2.02928e-05 0)
(0.0133632 0.00149449 0)
(0.0129364 0.00295535 0)
(0.0123021 0.00434705 0)
(0.0114727 0.00566159 0)
(0.0104613 0.00687744 0)
(0.00927716 0.00798268 0)
(0.00792644 0.00895397 0)
(0.00642404 0.00977855 0)
(0.00479037 0.0104378 0)
(0.00305332 0.0109059 0)
(0.00124091 0.0111744 0)
(-0.000625352 0.0112109 0)
(-0.00253222 0.0110143 0)
(-0.00446475 0.0105819 0)
(-0.00641696 0.00987932 0)
(-0.00837718 0.00884456 0)
(-0.0103284 0.00736683 0)
(-0.0122095 0.00530729 0)
(-0.0138404 0.00254413 0)
(-0.0149059 -0.000929915 0)
(-0.014942 -0.00481356 0)
(-0.0134248 -0.00829409 0)
(-0.0101521 -0.0100026 0)
(-0.00577698 -0.00825832 0)
(-0.00180437 -0.00278606 0)
(-0.000325344 -0.00177698 0)
(0.000550523 -0.00519811 0)
(0.00373043 -0.00849797 0)
(0.0103756 -0.0158042 0)
(0.0167952 -0.0172299 0)
(0.0207085 -0.0140176 0)
(0.0217563 -0.00916389 0)
(0.0208842 -0.0045825 0)
(0.0192017 -0.000983129 0)
(0.0173981 0.0016047 0)
(0.0157621 0.00340812 0)
(0.0143497 0.00470747 0)
(0.0131095 0.00569652 0)
(0.011975 0.00650735 0)
(0.0108987 0.00719508 0)
(0.00985513 0.00780808 0)
(0.00878494 0.00833559 0)
(0.0076771 0.00880608 0)
(0.00656875 0.00922761 0)
(0.00538127 0.00961676 0)
(0.00408324 0.00990497 0)
(0.00274387 0.0100904 0)
(0.00128514 0.0101433 0)
(-0.000282622 0.0100269 0)
(-0.00184904 0.00970832 0)
(-0.00341592 0.00916077 0)
(-0.00495985 0.00836319 0)
(-0.00641513 0.00732649 0)
(-0.00773226 0.00606398 0)
(-0.0088708 0.00459773 0)
(-0.00980463 0.00295357 0)
(-0.0105178 0.00113836 0)
(-0.0109514 -0.000789586 0)
(-0.0110863 -0.00279865 0)
(-0.0109287 -0.00483773 0)
(-0.0104681 -0.00685516 0)
(-0.00970458 -0.00880269 0)
(-0.00863557 -0.010625 0)
(-0.0072683 -0.0122626 0)
(-0.00563265 -0.0136385 0)
(-0.00376453 -0.0146791 0)
(-0.00172522 -0.0153314 0)
(0.000408255 -0.0155766 0)
(0.0025477 -0.015414 0)
(0.0046107 -0.0148928 0)
(0.00654967 -0.0140557 0)
(0.00832393 -0.0129697 0)
(0.00992634 -0.011675 0)
(0.0113373 -0.0102196 0)
(0.0125208 -0.00863639 0)
(0.0134787 -0.00695442 0)
(0.0142006 -0.00520489 0)
(0.0146878 -0.00341963 0)
(0.0149313 -0.001623 0)
(0.0149333 0.000146771 0)
(0.014697 0.00189051 0)
(0.0142156 0.00356864 0)
(0.0135146 0.00516548 0)
(0.0126026 0.00667625 0)
(0.0114903 0.00807631 0)
(0.0101846 0.0093452 0)
(0.00869557 0.0104688 0)
(0.00704064 0.0114358 0)
(0.00523393 0.0122177 0)
(0.00331186 0.0127838 0)
(0.00128726 0.0131108 0)
(-0.000809535 0.0131954 0)
(-0.00294771 0.0130345 0)
(-0.00513189 0.0126355 0)
(-0.00737511 0.0119798 0)
(-0.00972571 0.0110116 0)
(-0.0122319 0.00956788 0)
(-0.014903 0.00743654 0)
(-0.0176132 0.00434766 0)
(-0.0199618 7.76819e-05 0)
(-0.0211501 -0.00526211 0)
(-0.0201032 -0.0107783 0)
(-0.0160967 -0.0144348 0)
(-0.00975479 -0.0132753 0)
(-0.00338098 -0.00625883 0)
(-0.000433974 -0.00314753 0)
(0.000841952 -0.0079488 0)
(0.00663578 -0.0147334 0)
(0.0166013 -0.0235594 0)
(0.0251736 -0.023013 0)
(0.0293056 -0.0162456 0)
(0.0290037 -0.0085005 0)
(0.0261549 -0.00248331 0)
(0.0227126 0.0014175 0)
(0.0196892 0.00376858 0)
(0.0173249 0.00519923 0)
(0.0155227 0.00617775 0)
(0.0140855 0.00695193 0)
(0.0128469 0.0076433 0)
(0.0117152 0.00827377 0)
(0.0106277 0.00888199 0)
(0.00951665 0.00941369 0)
(0.0083869 0.00993147 0)
(0.00726715 0.0104151 0)
(0.00604181 0.0108754 0)
(0.00466761 0.011268 0)
(0.00322555 0.0115859 0)
(0.00162261 0.0117352 0)
(-0.00013296 0.0117209 0)
(-0.00193256 0.0114556 0)
(-0.00375888 0.0108926 0)
(-0.00555209 0.0100308 0)
(-0.0072386 0.00888614 0)
(-0.00877184 0.00745703 0)
(-0.0101053 0.00577182 0)
(-0.0112307 0.00388917 0)
(-0.0120818 0.00179658 0)
(-0.012596 -0.000451948 0)
(-0.0127901 -0.00277385 0)
(-0.0126508 -0.00513737 0)
(-0.0121751 -0.00749023 0)
(-0.0113523 -0.00980434 0)
(-0.0101758 -0.0119669 0)
(-0.00865335 -0.0139268 0)
(-0.00680263 -0.0155882 0)
(-0.00467439 -0.0168573 0)
(-0.00235741 -0.0176522 0)
(8.18561e-05 -0.0179302 0)
(0.0025227 -0.0177286 0)
(0.00486954 -0.0170924 0)
(0.0070644 -0.016061 0)
(0.00906286 -0.014783 0)
(0.0108635 -0.0132616 0)
(0.012433 -0.0115655 0)
(0.0137563 -0.00972735 0)
(0.0148225 -0.00779157 0)
(0.015616 -0.00578235 0)
(0.0161561 -0.00373792 0)
(0.0164239 -0.00167506 0)
(0.0164246 0.000347349 0)
(0.0161581 0.00233398 0)
(0.0156099 0.00425539 0)
(0.0148325 0.00607616 0)
(0.0138325 0.00779222 0)
(0.0126061 0.009396 0)
(0.0111722 0.0108451 0)
(0.0095452 0.0121498 0)
(0.00773051 0.0132791 0)
(0.00572814 0.0142017 0)
(0.00357057 0.0148721 0)
(0.00131451 0.0152688 0)
(-0.0010027 0.0154053 0)
(-0.00336331 0.0152885 0)
(-0.0057621 0.014957 0)
(-0.00824576 0.0144183 0)
(-0.0109475 0.0136498 0)
(-0.0140198 0.0124951 0)
(-0.0176053 0.0106374 0)
(-0.0217034 0.00757378 0)
(-0.0258619 0.00265321 0)
(-0.0288389 -0.00453533 0)
(-0.0287405 -0.0132202 0)
(-0.0241126 -0.0203466 0)
(-0.0154745 -0.0208467 0)
(-0.00595018 -0.012137 0)
(-0.000663502 -0.00558075 0)
(0.00131271 -0.012598 0)
(0.0103378 -0.0244762 0)
(0.0230488 -0.0343228 0)
(0.0327724 -0.0299598 0)
(0.0365163 -0.017762 0)
(0.0346981 -0.00601896 0)
(0.0299511 0.00158412 0)
(0.0249562 0.00536705 0)
(0.020982 0.00690043 0)
(0.0181627 0.00750272 0)
(0.016209 0.00787877 0)
(0.0147635 0.00830335 0)
(0.0135548 0.00880537 0)
(0.0124609 0.00936704 0)
(0.0113847 0.00994234 0)
(0.0102875 0.0104984 0)
(0.00918559 0.0110462 0)
(0.00806448 0.0116451 0)
(0.00682511 0.012172 0)
(0.00541996 0.0127196 0)
(0.00386116 0.0132122 0)
(0.00207926 0.0135523 0)
(9.53785e-05 0.0136676 0)
(-0.00201474 0.0134838 0)
(-0.00415795 0.0129195 0)
(-0.00624371 0.0119733 0)
(-0.00820598 0.0107026 0)
(-0.00999384 0.00907823 0)
(-0.0115217 0.00717324 0)
(-0.0128122 0.00500631 0)
(-0.0138434 0.00257238 0)
(-0.0144549 -4.56275e-07 0)
(-0.0146693 -0.00269546 0)
(-0.0145409 -0.00543779 0)
(-0.0140663 -0.00818187 0)
(-0.0131823 -0.0108635 0)
(-0.0118731 -0.0134584 0)
(-0.0101834 -0.0157955 0)
(-0.00812456 -0.017798 0)
(-0.0057402 -0.0193324 0)
(-0.00310437 -0.0202796 0)
(-0.000347757 -0.0206107 0)
(0.0024026 -0.0203524 0)
(0.00508657 -0.0195387 0)
(0.00755176 -0.0183493 0)
(0.0097755 -0.0168029 0)
(0.0118073 -0.0150442 0)
(0.0135778 -0.0130586 0)
(0.0150605 -0.0109393 0)
(0.0162534 -0.00871302 0)
(0.0171481 -0.00640015 0)
(0.0177609 -0.0040672 0)
(0.018066 -0.00172326 0)
(0.0180645 0.000589101 0)
(0.0177753 0.00284081 0)
(0.0171642 0.00502596 0)
(0.0162914 0.00708224 0)
(0.0151953 0.00902162 0)
(0.0138435 0.0108495 0)
(0.0122621 0.0125044 0)
(0.0104757 0.0140088 0)
(0.00846828 0.0153237 0)
(0.00624242 0.0164011 0)
(0.00384332 0.0171868 0)
(0.00134458 0.0176577 0)
(-0.00119604 0.0178222 0)
(-0.00373187 0.0177276 0)
(-0.00626682 0.0174652 0)
(-0.00886714 0.0170913 0)
(-0.0117264 0.016674 0)
(-0.0151491 0.0161314 0)
(-0.0194474 0.0150077 0)
(-0.0247539 0.0124606 0)
(-0.0305909 0.00711605 0)
(-0.0352801 -0.00234371 0)
(-0.0361826 -0.015426 0)
(-0.0313677 -0.0277514 0)
(-0.0212733 -0.0314009 0)
(-0.00914721 -0.021185 0)
(-0.00105792 -0.00964217 0)
(0.00195299 -0.019353 0)
(0.0130557 -0.0371117 0)
(0.025462 -0.0464729 0)
(0.0337551 -0.0366769 0)
(0.0362675 -0.0181887 0)
(0.0336552 -0.00224039 0)
(0.0285051 0.00679627 0)
(0.0234866 0.0100988 0)
(0.0197263 0.0104063 0)
(0.0172533 0.00987832 0)
(0.0156608 0.00949447 0)
(0.0145129 0.00953285 0)
(0.013529 0.0098613 0)
(0.0125893 0.0103702 0)
(0.0116138 0.0109476 0)
(0.0105786 0.0115591 0)
(0.00956358 0.0121742 0)
(0.00845232 0.012837 0)
(0.00716273 0.0135003 0)
(0.00570706 0.0143045 0)
(0.003992 0.0150513 0)
(0.00195121 0.015622 0)
(-0.000356558 0.0159317 0)
(-0.00280574 0.0158609 0)
(-0.00530658 0.0152987 0)
(-0.0076715 0.0142362 0)
(-0.00986032 0.0127978 0)
(-0.011825 0.0109733 0)
(-0.0134958 0.00880316 0)
(-0.0149641 0.00629029 0)
(-0.0160517 0.00349186 0)
(-0.0166698 0.000539704 0)
(-0.016906 -0.00257797 0)
(-0.0167327 -0.00575631 0)
(-0.0161618 -0.00893584 0)
(-0.0152097 -0.0120352 0)
(-0.0137819 -0.0150493 0)
(-0.011865 -0.0178462 0)
(-0.00955612 -0.0202702 0)
(-0.00686844 -0.0221245 0)
(-0.00394039 -0.0232631 0)
(-0.000871138 -0.0236419 0)
(0.00224719 -0.0233129 0)
(0.00520812 -0.0222673 0)
(0.00797313 -0.0208934 0)
(0.0105064 -0.0191 0)
(0.0127962 -0.0170286 0)
(0.0148283 -0.0147461 0)
(0.0165253 -0.0122735 0)
(0.017932 -0.00971719 0)
(0.0189843 -0.00710725 0)
(0.0197183 -0.00443572 0)
(0.0201402 -0.00176358 0)
(0.020213 0.000862669 0)
(0.0199495 0.00341468 0)
(0.0193052 0.00588653 0)
(0.018352 0.00819172 0)
(0.0171602 0.010377 0)
(0.0156517 0.0124106 0)
(0.0138716 0.0143214 0)
(0.0118772 0.0160565 0)
(0.00962504 0.0175918 0)
(0.00711552 0.0188458 0)
(0.00441709 0.0197622 0)
(0.00164249 0.0202766 0)
(-0.00110539 0.0204144 0)
(-0.00374396 0.0202686 0)
(-0.0062788 0.0199834 0)
(-0.00877095 0.0197812 0)
(-0.0114025 0.0198171 0)
(-0.0146217 0.0200735 0)
(-0.0188588 0.0200234 0)
(-0.0242731 0.0183381 0)
(-0.0304077 0.0127171 0)
(-0.0354779 0.000805733 0)
(-0.0367712 -0.0171772 0)
(-0.0326384 -0.0355471 0)
(-0.023468 -0.0435341 0)
(-0.0114325 -0.0328476 0)
(-0.00157551 -0.0154739 0)
(0.00247467 -0.027044 0)
(0.0120614 -0.0491576 0)
(0.0197165 -0.0558366 0)
(0.0235723 -0.0405882 0)
(0.024002 -0.0173624 0)
(0.021857 0.00135767 0)
(0.0186804 0.0111562 0)
(0.0158958 0.0138035 0)
(0.0139935 0.0129864 0)
(0.0128974 0.0115013 0)
(0.0122578 0.0105667 0)
(0.0117334 0.0103659 0)
(0.011134 0.0106728 0)
(0.0104669 0.0112255 0)
(0.00967571 0.01186 0)
(0.00873812 0.0125364 0)
(0.00769517 0.0132804 0)
(0.0064892 0.0140423 0)
(0.00512351 0.0149538 0)
(0.00345128 0.0159967 0)
(0.00132591 0.0170928 0)
(-0.00110347 0.0180187 0)
(-0.00374651 0.0185873 0)
(-0.00652212 0.0186217 0)
(-0.00926297 0.0179795 0)
(-0.0117141 0.0167952 0)
(-0.0138537 0.0151163 0)
(-0.0157412 0.013012 0)
(-0.0173233 0.0104985 0)
(-0.01864 0.0076105 0)
(-0.0195541 0.00452954 0)
(-0.0199841 0.00102815 0)
(-0.0200029 -0.00253765 0)
(-0.0196064 -0.00615894 0)
(-0.0188109 -0.00979936 0)
(-0.0176146 -0.0133933 0)
(-0.015974 -0.0168542 0)
(-0.0138284 -0.0202025 0)
(-0.0111865 -0.0230668 0)
(-0.00811786 -0.0252654 0)
(-0.00478581 -0.026626 0)
(-0.00134788 -0.0270423 0)
(0.00218458 -0.0265954 0)
(0.00549973 -0.0253693 0)
(0.00853847 -0.0237283 0)
(0.011485 -0.0217155 0)
(0.0141665 -0.0192992 0)
(0.0165989 -0.0166979 0)
(0.0186944 -0.0138355 0)
(0.0204253 -0.0109354 0)
(0.0218811 -0.00799439 0)
(0.0230414 -0.00497163 0)
(0.0238109 -0.00194972 0)
(0.0241857 0.00105238 0)
(0.0241761 0.00396959 0)
(0.0236634 0.00675213 0)
(0.0227277 0.00941433 0)
(0.0214355 0.0118997 0)
(0.0197445 0.0141479 0)
(0.0176873 0.0163418 0)
(0.0153093 0.0183806 0)
(0.0126333 0.0201909 0)
(0.00968203 0.0216604 0)
(0.00656397 0.0226693 0)