/*--------------------------------*- C++ -*----------------------------------*\
| =========                 |                                                 |
| \\      /  F ield         | OpenFOAM: The Open Source CFD Toolbox           |
|  \\    /   O peration     | Version:  2412                                  |
|   \\  /    A nd           | Website:  www.openfoam.com                      |
|    \\/     M anipulation  |                                                 |
\*---------------------------------------------------------------------------*/
FoamFile
{
    version     2.0;
    format      ascii;
    arch        "LSB;label=32;scalar=64";
    class       surfaceScalarField;
    location    "2.75";
    object      alphaPhi0.molasses;
}
// * * * * * * * * * * * * * * * * * * * * * * * * * * * * * * * * * * * * * //

dimensions      [0 3 -1 0 0 0 0];

oriented        oriented;

internalField   nonuniform List<scalar> 
12640
(
-6.44457e-14
6.19442e-14
-4.32158e-13
-5.92479e-14
-8.92787e-13
1.89628e-14
-1.5867e-12
3.02392e-13
-2.31451e-12
3.16168e-13
-3.11587e-12
3.78705e-13
-3.946e-12
4.15334e-13
-4.74865e-12
3.95664e-13
-5.5149e-12
3.64009e-13
-6.2464e-12
3.24751e-13
-6.93161e-12
2.75301e-13
-7.53831e-12
1.90075e-13
-8.0394e-12
8.37046e-14
-8.41839e-12
-4.22393e-14
-8.6743e-12
-1.63705e-13
-8.81005e-12
-2.86735e-13
-8.82644e-12
-4.04469e-13
-8.71786e-12
-5.32734e-13
-8.47633e-12
-6.65036e-13
-8.09512e-12
-8.08721e-13
-7.574e-12
-9.49171e-13
-6.92405e-12
-1.08271e-12
-6.16552e-12
-1.19301e-12
-5.32779e-12
-1.27745e-12
-4.44511e-12
-1.32509e-12
-3.55601e-12
-1.33703e-12
-2.69765e-12
-1.30972e-12
-1.90587e-12
-1.24874e-12
-1.21043e-12
-1.15634e-12
-6.35244e-13
-1.04166e-12
-1.93951e-13
-9.12048e-13
1.0893e-13
-7.7912e-13
2.80146e-13
-6.51964e-13
3.34763e-13
-5.40702e-13
2.95974e-13
-4.51878e-13
1.91026e-13
-3.90804e-13
4.9579e-14
-3.58754e-13
-1.00068e-13
-3.55217e-13
-2.32468e-13
-3.76523e-13
-3.27193e-13
-4.18216e-13
-3.69567e-13
-4.73954e-13
-3.51275e-13
-5.37752e-13
-2.70547e-13
-6.0263e-13
-1.31276e-13
-6.63193e-13
5.73593e-14
-7.13816e-13
2.83222e-13
-7.51761e-13
5.31962e-13
-7.74525e-13
7.90319e-13
-7.83408e-13
1.04642e-12
-7.79524e-13
1.29289e-12
-7.67589e-13
1.52554e-12
-7.50531e-13
1.74555e-12
-7.33947e-13
1.95668e-12
-7.20149e-13
2.16693e-12
-7.13656e-13
2.38477e-12
-7.14661e-13
2.61997e-12
-7.24789e-13
2.87898e-12
-7.40489e-13
3.16581e-12
-7.59631e-13
3.47859e-12
-7.76234e-13
3.81172e-12
-7.8678e-13
4.15352e-12
-7.85292e-13
4.48827e-12
-7.67784e-13
4.79528e-12
-7.29547e-13
5.05274e-12
-6.69311e-13
5.2404e-12
-5.89096e-13
5.34314e-12
-4.93577e-13
5.35125e-12
-3.88752e-13
5.25872e-12
-2.77611e-13
5.06293e-12
-1.64074e-13
4.76391e-12
-5.00102e-14
4.36816e-12
5.74796e-14
3.889e-12
1.5176e-13
3.35109e-12
2.2023e-13
2.78534e-12
2.55703e-13
2.22656e-12
2.53725e-13
1.70557e-12
2.18881e-13
1.24641e-12
1.60874e-13
8.22599e-13
1.29893e-13
3.73522e-13
1.57783e-13
9.25904e-14
-5.31138e-13
9.67109e-14
-1.53156e-12
5.25831e-14
-2.82471e-12
4.49805e-13
-4.45156e-12
1.1155e-12
-6.32644e-12
1.36803e-12
-8.36351e-12
1.59521e-12
-1.04903e-11
1.72794e-12
-1.26319e-11
1.72922e-12
-1.472e-11
1.63736e-12
-1.67064e-11
1.49125e-12
-1.85309e-11
1.26827e-12
-2.01417e-11
9.66449e-13
-2.14874e-11
5.87485e-13
-2.25428e-11
1.72215e-13
-2.32852e-11
-2.67936e-13
-2.37063e-11
-7.10781e-13
-2.37927e-11
-1.16943e-12
-2.35339e-11
-1.64314e-12
-2.2917e-11
-2.14076e-12
-2.19409e-11
-2.64576e-12
-2.06151e-11
-3.1443e-12
-1.89705e-11
-3.60065e-12
-1.70558e-11
-3.99027e-12
-1.49367e-11
-4.28456e-12
-1.26901e-11
-4.46938e-12
-1.04e-11
-4.53133e-12
-8.15179e-12
-4.47184e-12
-6.02529e-12
-4.29625e-12
-4.09081e-12
-4.02144e-12
-2.40238e-12
-3.66823e-12
-9.96495e-13
-3.26544e-12
1.12287e-13
-2.84315e-12
9.2891e-13
-2.43287e-12
1.47821e-12
-2.06203e-12
1.79905e-12
-1.75328e-12
1.94141e-12
-1.52115e-12
1.95935e-12
-1.37242e-12
1.90722e-12
-1.30551e-12
1.83426e-12
-1.31257e-12
1.78173e-12
-1.38017e-12
1.78044e-12
-1.49218e-12
1.84931e-12
-1.62993e-12
1.99586e-12
-1.77558e-12
2.2161e-12
-1.91156e-12
2.49798e-12
-2.02463e-12
2.82224e-12
-2.10429e-12
3.16846e-12
-2.14729e-12
3.51568e-12
-2.15386e-12
3.8492e-12
-2.1318e-12
4.15874e-12
-2.08974e-12
4.44407e-12
-2.0411e-12
4.70998e-12
-1.996e-12
4.9709e-12
-1.96683e-12
5.24318e-12
-1.95969e-12
5.54859e-12
-1.98053e-12
5.90412e-12
-2.02606e-12
6.32506e-12
-2.09126e-12
6.81522e-12
-2.16269e-12
7.37206e-12
-2.22807e-12
7.97941e-12
-2.27073e-12
8.6133e-12
-2.27668e-12
9.23698e-12
-2.22995e-12
9.80861e-12
-2.12017e-12
1.02825e-11
-1.94332e-12
1.06185e-11
-1.70577e-12
1.07836e-11
-1.42074e-12
1.07539e-11
-1.10194e-12
1.05148e-11
-7.62674e-13
1.00596e-11
-4.13197e-13
9.39381e-12
-6.91297e-14
8.53387e-12
2.52149e-13
7.51569e-12
5.22345e-13
6.38989e-12
7.1234e-13
5.22629e-12
7.94229e-13
4.09478e-12
7.64418e-13
3.05929e-12
6.41025e-13
2.14447e-12
4.78059e-13
1.30863e-12
3.8527e-13
4.55059e-13
4.39593e-13
2.94211e-13
-9.01801e-13
5.67075e-13
-2.34214e-12
6.89732e-13
-4.1536e-12
1.47659e-12
-6.357e-12
2.57468e-12
-8.95018e-12
3.21025e-12
-1.18348e-11
3.72665e-12
-1.49066e-11
4.05536e-12
-1.80365e-11
4.11549e-12
-2.11187e-11
3.97615e-12
-2.40576e-11
3.67733e-12
-2.67777e-11
3.23248e-12
-2.92052e-11
2.62956e-12
-3.1282e-11
1.90062e-12
-3.2959e-11
1.07987e-12
-3.42031e-11
2.09297e-13
-3.4983e-11
-7.03299e-13
-3.5276e-11
-1.64741e-12
-3.50618e-11
-2.63483e-12
-3.43317e-11
-3.64899e-12
-3.30891e-11
-4.67427e-12
-3.13553e-11
-5.66675e-12
-2.91716e-11
-6.58193e-12
-2.66011e-11
-7.36293e-12
-2.37283e-11
-7.96949e-12
-2.06503e-11
-8.3654e-12
-1.74757e-11
-8.53429e-12
-1.43122e-11
-8.47086e-12
-1.12645e-11
-8.18972e-12
-8.42242e-12
-7.7172e-12
-5.86014e-12
-7.09447e-12
-3.62691e-12
-6.37091e-12
-1.75016e-12
-5.60225e-12
-2.30319e-13
-4.84355e-12
9.52077e-13
-4.14501e-12
1.83673e-12
-3.54692e-12
2.47447e-12
-3.07696e-12
2.92468e-12
-2.74859e-12
3.24682e-12
-2.56167e-12
3.4974e-12
-2.50404e-12
3.72439e-12
-2.55465e-12
3.96508e-12
-2.6857e-12
4.24442e-12
-2.86681e-12
4.57411e-12
-3.06615e-12
4.95483e-12
-3.25557e-12
5.37642e-12
-3.41047e-12
5.82383e-12
-3.51577e-12
6.27764e-12
-3.56343e-12
6.7221e-12
-3.55763e-12
7.14353e-12
-3.50792e-12
7.53816e-12
-3.433e-12
7.9068e-12
-3.35071e-12
8.26191e-12
-3.28292e-12
8.61879e-12
-3.24479e-12
9.0015e-12
-3.25122e-12
9.43062e-12
-3.30483e-12
9.92814e-12
-3.40363e-12
1.05041e-11
-3.5311e-12
1.11632e-11
-3.66816e-12
1.18934e-11
-3.78676e-12
1.26747e-11
-3.86127e-12
1.34692e-11
-3.86143e-12
1.42315e-11
-3.76273e-12
1.49057e-11
-3.54559e-12
1.54373e-11
-3.20639e-12
1.57746e-11
-2.75557e-12
1.58753e-11
-2.21452e-12
1.57076e-11
-1.60862e-12
1.52515e-11
-9.61388e-13
1.4502e-11
-2.99214e-13
1.34666e-11
3.50646e-13
1.21745e-11
9.47871e-13
1.06722e-11
1.44586e-12
9.03231e-12
1.78759e-12
7.34068e-12
1.92998e-12
5.70138e-12
1.85313e-12
4.19682e-12
1.5964e-12
2.86614e-12
1.26121e-12
1.67238e-12
1.02891e-12
5.50771e-13
1.03474e-12
6.07567e-13
-1.08096e-12
1.21789e-12
-2.78297e-12
1.61749e-12
-4.90182e-12
2.83986e-12
-7.46768e-12
4.42005e-12
-1.05207e-11
5.53056e-12
-1.39713e-11
6.44251e-12
-1.76769e-11
7.02971e-12
-2.14932e-11
7.20563e-12
-2.52764e-11
7.02831e-12
-2.89202e-11
6.58689e-12
-3.23255e-11
5.89394e-12
-3.5415e-11
4.97321e-12
-3.811e-11
3.84283e-12
-4.03495e-11
2.56762e-12
-4.20794e-11
1.18181e-12
-4.32593e-11
-2.79358e-13
-4.38521e-11
-1.81672e-12
-4.3834e-11
-3.41478e-12
-4.31935e-11
-5.05854e-12
-4.19376e-11
-6.70056e-12
-4.00935e-11
-8.28943e-12
-3.77073e-11
-9.7496e-12
-3.48495e-11
-1.10113e-11
-3.1608e-11
-1.20058e-11
-2.8091e-11
-1.26867e-11
-2.44115e-11
-1.30234e-11
-2.06897e-11
-1.30118e-11
-1.70357e-11
-1.26689e-11
-1.35523e-11
-1.20351e-11
-1.03197e-11
-1.11681e-11
-7.40025e-12
-1.01405e-11
-4.82782e-12
-9.03171e-12
-2.61598e-12
-7.9211e-12
-7.52646e-13
-6.88105e-12
7.89861e-13
-5.97029e-12
2.05564e-12
-5.23037e-12
3.09498e-12
-4.68292e-12
3.96277e-12
-4.33061e-12
4.71059e-12
-4.15925e-12
5.38471e-12
-4.14127e-12
6.02208e-12
-4.24031e-12
6.6486e-12
-4.41421e-12
7.27954e-12
-4.62086e-12
7.91841e-12
-4.81999e-12
8.56185e-12
-4.98022e-12
9.1989e-12
-5.07877e-12
9.81939e-12
-5.10825e-12
1.04116e-11
-5.07138e-12
1.09716e-11
-4.9853e-12
1.14974e-11
-4.87094e-12
1.19987e-11
-4.75705e-12
1.24863e-11
-4.66768e-12
1.29823e-11
-4.62822e-12
1.35058e-11
-4.65139e-12
1.4081e-11
-4.74431e-12
1.47212e-11
-4.89482e-12
1.54374e-11
-5.08348e-12
1.62236e-11
-5.27529e-12
1.70675e-11
-5.43493e-12
1.79374e-11
-5.51876e-12
1.87936e-11
-5.48759e-12
1.95806e-11
-5.30252e-12
2.02411e-11
-4.9409e-12
2.07136e-11
-4.39669e-12
2.09439e-11
-3.68594e-12
2.08844e-11
-2.83839e-12
2.05007e-11
-1.89071e-12
1.97737e-11
-8.82851e-13
1.86976e-11
1.46619e-13
1.72869e-11
1.14966e-12
1.55728e-11
2.06819e-12
1.36175e-11
2.82335e-12
1.14981e-11
3.34001e-12
9.3183e-12
3.55118e-12
7.18702e-12
3.43401e-12
5.22336e-12
3.02695e-12
3.49812e-12
2.4684e-12
1.98622e-12
2.0248e-12
6.40878e-13
1.88473e-12
1.01773e-12
-1.10088e-12
1.91535e-12
-3.00381e-12
2.78032e-12
-5.32144e-12
4.43355e-12
-8.10747e-12
6.51597e-12
-1.14483e-11
8.16988e-12
-1.52466e-11
9.53611e-12
-1.93611e-11
1.04458e-11
-2.36244e-11
1.07727e-11
-2.78918e-11
1.05996e-11
-3.20305e-11
1.00223e-11
-3.59461e-11
9.10265e-12
-3.95416e-11
7.85436e-12
-4.27408e-11
6.32724e-12
-4.54589e-11
4.56582e-12
-4.76336e-11
2.63768e-12
-4.92064e-11
5.69467e-13
-5.01364e-11
-1.6103e-12
-5.03923e-11
-3.88878e-12
-4.99614e-11
-6.22034e-12
-4.88498e-11
-8.55078e-12
-4.70846e-11
-1.0796e-11
-4.47155e-11
-1.28687e-11
-4.18101e-11
-1.4671e-11
-3.8459e-11
-1.61207e-11
-3.47639e-11
-1.71509e-11
-3.08415e-11
-1.77248e-11
-2.68058e-11
-1.78328e-11
-2.27724e-11
-1.74977e-11
-1.88403e-11
-1.67693e-11
-1.50984e-11
-1.57221e-11
-1.16099e-11
-1.44483e-11
-8.42172e-12
-1.30487e-11
-5.55431e-12
-1.16249e-11
-3.01197e-12
-1.02688e-11
-7.77827e-13
-9.05728e-12
1.1751e-12
-8.04452e-12
2.88532e-12
-7.26135e-12
4.39342e-12
-6.71424e-12
5.74158e-12
-6.38902e-12
6.96748e-12
-6.25468e-12
8.1029e-12
-6.26797e-12
9.17184e-12
-6.37944e-12
1.01887e-11
-6.53699e-12
1.11614e-11
-6.69377e-12
1.20891e-11
-6.80998e-12
1.29704e-11
-6.86148e-12
1.37994e-11
-6.83708e-12
1.4576e-11
-6.74455e-12
1.52989e-11
-6.60078e-12
1.59773e-11
-6.43572e-12
1.66192e-11
-6.27853e-12
1.72441e-11
-6.16324e-12
1.78681e-11
-6.11317e-12
1.85155e-11
-6.14778e-12
1.92e-11
-6.26557e-12
1.99376e-11
-6.4546e-12
2.0727e-11
-6.6805e-12
2.15649e-11
-6.90396e-12
2.24274e-11
-7.07186e-12
2.32857e-11
-7.13343e-12
2.40913e-11
-7.03227e-12
2.4793e-11
-6.7246e-12
2.53284e-11
-6.17939e-12
2.56403e-11
-5.39324e-12
2.56717e-11
-4.38485e-12
2.53769e-11
-3.19335e-12
2.47225e-11
-1.8691e-12
2.36897e-11
-4.65111e-13
2.22779e-11
9.61544e-13
2.05006e-11
2.34872e-12
1.84009e-11
3.60848e-12
1.60411e-11
4.63878e-12
1.35167e-11
5.33123e-12
1.09254e-11
5.61247e-12
8.38496e-12
5.44971e-12
6.02629e-12
4.87022e-12
3.97036e-12
4.02388e-12
2.18874e-12
3.30317e-12
7.0936e-13
2.88551e-12
1.50229e-12
-1.06161e-12
2.58828e-12
-3.10016e-12
4.10058e-12
-5.51364e-12
6.14694e-12
-8.41505e-12
8.74826e-12
-1.18974e-11
1.09729e-11
-1.58848e-11
1.28427e-11
-2.02258e-11
1.41109e-11
-2.47645e-11
1.46405e-11
-2.93339e-11
1.44948e-11
-3.38078e-11
1.38191e-11
-3.80738e-11
1.26832e-11
-4.2044e-11
1.1137e-11
-4.56265e-11
9.2159e-12
-4.87397e-11
6.98608e-12
-5.13009e-11
4.50055e-12
-5.32454e-11
1.81681e-12
-5.452e-11
-1.03908e-12
-5.50914e-11
-4.02072e-12
-5.49439e-11
-7.07861e-12
-5.40798e-11
-1.01272e-11
-5.25258e-11
-1.30711e-11
-5.03249e-11
-1.57937e-11
-4.7545e-11
-1.81845e-11
-4.42651e-11
-2.01387e-11
-4.05856e-11
-2.15785e-11
-3.66088e-11
-2.24551e-11
-3.24482e-11
-2.27572e-11
-2.82064e-11
-2.25094e-11
-2.39856e-11
-2.17702e-11
-1.98671e-11
-2.06275e-11
-1.59235e-11
-1.91886e-11
-1.22029e-11
-1.75734e-11
-8.74086e-12
-1.59002e-11
-5.5506e-12
-1.42798e-11
-2.63487e-12
-1.28026e-11
1.97384e-14
-1.15358e-11
2.4318e-12
-1.0518e-11
4.62781e-12
-9.76133e-12
6.63419e-12
-9.25313e-12
8.4777e-12
-8.96128e-12
1.01812e-11
-8.83953e-12
1.17625e-11
-8.83258e-12
1.32347e-11
-8.88401e-12
1.46043e-11
-8.94008e-12
1.58766e-11
-8.95954e-12
1.70519e-11
-8.91378e-12
1.81352e-11
-8.79523e-12
1.91283e-11
-8.60984e-12
2.0042e-11
-8.38188e-12
2.08842e-11
-8.1399e-12
2.16733e-11
-7.92196e-12
2.24231e-11
-7.75918e-12
2.31569e-11
-7.68265e-12
2.38886e-11
-7.70419e-12
2.46369e-11
-7.82531e-12
2.54046e-11
-8.02039e-12
2.61956e-11
-8.25391e-12
2.69943e-11
-8.46975e-12
2.77838e-11
-8.61095e-12
2.85261e-11
-8.60877e-12
2.91814e-11
-8.40228e-12
2.96938e-11
-7.93482e-12
3.00109e-11
-7.17589e-12
3.0074e-11
-6.11896e-12
2.98336e-11
-4.78929e-12
2.92461e-11
-3.2343e-12
2.82819e-11
-1.51626e-12
2.6926e-11
2.964e-13
2.51761e-11
2.1347e-12
2.30551e-11
3.91184e-12
2.06033e-11
5.52037e-12
1.78979e-11
6.82118e-12
1.50314e-11
7.68417e-12
1.21162e-11
8.01967e-12
9.2568e-12
7.80211e-12
6.60545e-12
7.02545e-12
4.2911e-12
5.85106e-12
2.32809e-12
4.78144e-12
7.57968e-13
3.98991e-12
2.04685e-12
-1.05078e-12
3.26085e-12
-3.0901e-12
5.45008e-12
-5.519e-12
7.90093e-12
-8.43533e-12
1.10223e-11
-1.19582e-11
1.38437e-11
-1.59941e-11
1.6226e-11
-2.04283e-11
1.78987e-11
-2.50934e-11
1.86619e-11
-2.98349e-11
1.85922e-11
-3.45025e-11
1.78356e-11
-3.89957e-11
1.65211e-11
-4.32157e-11
1.46943e-11
-4.70802e-11
1.24165e-11
-5.04971e-11
9.73362e-12
-5.33847e-11
6.71957e-12
-5.56639e-11
3.42205e-12
-5.72771e-11
-9.96239e-14
-5.81843e-11
-3.79399e-12
-5.83656e-11
-7.57881e-12
-5.7822e-11
-1.13604e-11
-5.65705e-11
-1.50145e-11
-5.4653e-11
-1.84122e-11
-5.21229e-11
-2.14192e-11
-4.9057e-11
-2.39189e-11
-4.55366e-11
-2.58181e-11
-4.16602e-11
-2.70608e-11
-3.75211e-11
-2.76313e-11
-3.32203e-11
-2.75553e-11
-2.88441e-11
-2.68979e-11
-2.44783e-11
-2.57547e-11
-2.0188e-11
-2.42471e-11
-1.60328e-11
-2.25063e-11
-1.20509e-11
-2.06669e-11
-8.27343e-12
-1.8851e-11
-4.71389e-12
-1.71629e-11
-1.38039e-12
-1.56783e-11
1.7309e-12
-1.44447e-11
4.62625e-12
-1.34792e-11
7.31762e-12
-1.27726e-11
9.81671e-12
-1.2294e-11
1.21352e-11
-1.1996e-11
1.42831e-11
-1.18221e-11
1.62672e-11
-1.17123e-11
1.80942e-11
-1.16129e-11
1.97674e-11
-1.14791e-11
2.12943e-11
-1.12861e-11
2.26794e-11
-1.10242e-11
2.39354e-11
-1.07061e-11
2.5071e-11
-1.03538e-11
2.61049e-11
-1.00037e-11
2.70496e-11
-9.69013e-12
2.79281e-11
-9.45193e-12
2.87532e-11
-9.313e-12
2.9546e-11
-9.29025e-12
3.03117e-11
-9.37268e-12
3.10604e-11
-9.53634e-12
3.1783e-11
-9.73007e-12
3.24737e-11
-9.89753e-12
3.31053e-11
-9.96448e-12
3.36522e-11
-9.85997e-12
3.40692e-11
-9.50755e-12
3.43146e-11
-8.85064e-12
3.43352e-11
-7.8506e-12
3.40846e-11
-6.50515e-12
3.35159e-11
-4.84149e-12
3.25943e-11
-2.91709e-12
3.12949e-11
-8.05495e-13
2.96037e-11
1.41519e-12
2.75254e-11
3.65766e-12
2.50795e-11
5.81969e-12
2.23174e-11
7.7631e-12
1.93074e-11
9.32677e-12
1.61581e-11
1.03414e-11
1.29731e-11
1.07156e-11
9.8823e-12
1.04088e-11
7.01027e-12
9.41952e-12
4.51176e-12
7.8851e-12
2.41586e-12
6.41087e-12
7.90891e-13
5.17178e-12
2.63378e-12
-1.03593e-12
3.93428e-12
-2.9925e-12
6.74976e-12
-5.35507e-12
9.62647e-12
-8.22034e-12
1.32789e-11
-1.16892e-11
1.66972e-11
-1.56826e-11
1.96033e-11
-2.00807e-11
2.16869e-11
-2.47625e-11
2.27381e-11
-2.95562e-11
2.27779e-11
-3.43204e-11
2.1988e-11
-3.893e-11
2.05107e-11
-4.33044e-11
1.84452e-11
-4.73524e-11
1.58344e-11
-5.0994e-11
1.27447e-11
-5.41385e-11
9.2281e-12
-5.67087e-11
5.35669e-12
-5.86388e-11
1.18883e-12
-5.98839e-11
-3.19107e-12
-6.04198e-11
-7.69255e-12
-6.02386e-11
-1.21929e-11
-5.9356e-11
-1.65573e-11
-5.77983e-11
-2.0633e-11
-5.56166e-11
-2.42737e-11
-5.28665e-11
-2.7346e-11
-4.96248e-11
-2.9747e-11
-4.59652e-11
-3.14127e-11
-4.19764e-11
-3.23227e-11
-3.7737e-11
-3.25033e-11
-3.33329e-11
-3.20207e-11
-2.8834e-11
-3.09789e-11
-2.43123e-11
-2.9504e-11
-1.98213e-11
-2.77392e-11
-1.54134e-11
-2.5826e-11
-1.11241e-11
-2.38983e-11
-6.98668e-12
-2.20668e-11
-3.02078e-12
-2.04172e-11
7.55986e-13
-1.9002e-11
4.33523e-12
-1.78447e-11
7.71e-12
-1.69397e-11
1.08778e-11
-1.62589e-11
1.38371e-11
-1.57566e-11
1.65871e-11
-1.53766e-11
1.91287e-11
-1.50607e-11
2.14622e-11
-1.47544e-11
2.35926e-11
-1.44176e-11
2.55238e-11
-1.40246e-11
2.72675e-11
-1.35727e-11
2.88324e-11
-1.30729e-11
3.02367e-11
-1.25548e-11
3.14923e-11
-1.20508e-11
3.26213e-11
-1.16026e-11
3.36355e-11
-1.12421e-11
3.45569e-11
-1.09997e-11
3.53921e-11
-1.08808e-11
3.61558e-11
-1.08784e-11
3.68437e-11
-1.09541e-11
3.74588e-11
-1.10597e-11
3.79835e-11
-1.11229e-11
3.84058e-11
-1.10705e-11
3.86925e-11
-1.08154e-11
3.88161e-11
-1.02825e-11
3.87333e-11
-9.40376e-12
3.84081e-11
-8.14415e-12
3.77966e-11
-6.49705e-12
3.6865e-11
-4.49692e-12
3.55829e-11
-2.20712e-12
3.3931e-11
2.89701e-13
3.19021e-11
2.90266e-12
2.95005e-11
5.53344e-12
2.67553e-11
8.05626e-12
2.37078e-11
1.03179e-11
2.04371e-11
1.21213e-11
1.70321e-11
1.32792e-11
1.36235e-11
1.3664e-11
1.03308e-11
1.32419e-11
7.29618e-12
1.20049e-11
4.6475e-12
1.0091e-11
2.4606e-12
8.16048e-12
7.90346e-13
6.42047e-12
3.23595e-12
-9.92507e-13
4.58172e-12
-2.82152e-12
7.96613e-12
-5.08104e-12
1.12876e-11
-7.82543e-12
1.5457e-11
-1.11894e-11
1.94865e-11
-1.50587e-11
2.28994e-11
-1.93365e-11
2.53971e-11
-2.39159e-11
2.6754e-11
-2.86681e-11
2.69662e-11
-3.34284e-11
2.61788e-11
-3.80785e-11
2.45867e-11
-4.25167e-11
2.23014e-11
-4.66712e-11
1.94042e-11
-5.04569e-11
1.59395e-11
-5.37944e-11
1.19744e-11
-5.66019e-11
7.56726e-12
-5.88144e-11
2.80411e-12
-6.03827e-11
-2.22695e-12
-6.12741e-11
-7.4065e-12
-6.14791e-11
-1.26016e-11
-6.09988e-11
-1.76537e-11
-5.98583e-11
-2.23989e-11
-5.80868e-11
-2.66743e-11
-5.57361e-11
-3.03357e-11
-5.28561e-11
-3.32709e-11
-4.95157e-11
-3.54073e-11
-4.57759e-11
-3.67222e-11
-4.17121e-11
-3.72372e-11
-3.7387e-11
-3.70222e-11
-3.28724e-11
-3.61797e-11
-2.82258e-11
-3.48435e-11
-2.351e-11
-3.31574e-11
-1.87735e-11
-3.12716e-11
-1.40677e-11
-2.9322e-11
-9.43132e-12
-2.74277e-11
-4.90376e-12
-2.5677e-11
-5.14202e-13
-2.41297e-11
3.70887e-12
-2.28124e-11
7.74428e-12
-2.17248e-11
1.15727e-11
-2.08417e-11
1.51788e-11
-2.01209e-11
1.85512e-11
-1.951e-11
2.16801e-11
-1.89527e-11
2.45622e-11
-1.84003e-11
2.71948e-11
-1.78141e-11
2.95845e-11
-1.71765e-11
3.17362e-11
-1.64846e-11
3.36652e-11
-1.57579e-11
3.53809e-11
-1.50225e-11
3.69034e-11
-1.43184e-11
3.82428e-11
-1.36808e-11
3.94203e-11
-1.31489e-11
4.04427e-11
-1.27427e-11
4.1327e-11
-1.24738e-11
4.20723e-11
-1.23216e-11
4.26877e-11
-1.22532e-11
4.31629e-11
-1.22059e-11
4.3497e-11
-1.21121e-11
4.36682e-11
-1.1883e-11
4.36635e-11
-1.14351e-11
4.34515e-11
-1.06802e-11
4.30103e-11
-9.55553e-12
4.23055e-11
-8.01761e-12
4.13116e-11
-6.06532e-12
3.99988e-11
-3.73191e-12
3.83467e-11
-1.08775e-12
3.63403e-11
1.77742e-12
3.39755e-11
4.76325e-12
3.12663e-11
7.75345e-12
2.82351e-11
1.06131e-11
2.49326e-11
1.31626e-11
2.14183e-11
1.51902e-11
1.77922e-11
1.64715e-11
1.41697e-11
1.68553e-11
1.06977e-11
1.62883e-11
7.50389e-12
1.47769e-11
4.73698e-12
1.24481e-11
2.46228e-12
1.00226e-11
7.7451e-13
7.71791e-12
3.83469e-12
-9.18897e-13
5.17926e-12
-2.6333e-12
9.11036e-12
-4.75642e-12
1.28597e-11
-7.34936e-12
1.75242e-11
-1.05487e-11
2.21563e-11
-1.42647e-11
2.60847e-11
-1.83502e-11
2.89585e-11
-2.27481e-11
3.06315e-11
-2.73466e-11
3.10445e-11
-3.20183e-11
3.03277e-11
-3.662e-11
2.86592e-11
-4.10564e-11
2.62046e-11
-4.52402e-11
2.30476e-11
-4.91033e-11
1.92601e-11
-5.25657e-11
1.48881e-11
-5.55552e-11
1.00074e-11
-5.80057e-11
4.69874e-12
-5.9865e-11
-9.24454e-13
-6.10999e-11
-6.73607e-12
-6.16882e-11
-1.25797e-11
-6.16308e-11
-1.82863e-11
-6.09321e-11
-2.3676e-11
-5.96195e-11
-2.85751e-11
-5.77173e-11
-3.28301e-11
-5.52718e-11
-3.63189e-11
-5.23214e-11
-3.89652e-11
-4.89235e-11
-4.0738e-11
-4.5124e-11
-4.16603e-11
-4.09847e-11
-4.17952e-11
-3.65548e-11
-4.12495e-11
-3.18963e-11
-4.01516e-11
-2.70593e-11
-3.86504e-11
-2.21036e-11
-3.68923e-11
-1.70779e-11
-3.5019e-11
-1.20373e-11
-3.31477e-11
-7.02697e-12
-3.13726e-11
-2.09496e-12
-2.97539e-11
2.71884e-12
-2.83236e-11
7.37498e-12
-2.70837e-11
1.18403e-11
-2.60139e-11
1.60852e-11
-2.50762e-11
2.00848e-11
-2.42226e-11
2.38212e-11
-2.34036e-11
2.72796e-11
-2.25741e-11
3.04557e-11
-2.17047e-11
3.33456e-11
-2.07799e-11
3.59572e-11
-1.98065e-11
3.82944e-11
-1.88023e-11
4.03724e-11
-1.7802e-11
4.21975e-11
-1.68399e-11
4.3788e-11
-1.59594e-11
4.5149e-11
-1.51906e-11
4.62975e-11
-1.45612e-11
4.72337e-11
-1.40705e-11
4.79703e-11
-1.37056e-11
4.8501e-11
-1.34201e-11
4.88335e-11
-1.31596e-11
4.89547e-11
-1.28419e-11
4.88646e-11
-1.23853e-11
4.85433e-11
-1.16927e-11
4.79842e-11
-1.06836e-11
4.71649e-11
-9.28493e-12
4.60742e-11
-7.45971e-12
4.46898e-11
-5.20012e-12
4.29982e-11
-2.5447e-12
4.09825e-11
4.36844e-13
3.86332e-11
3.64922e-12
3.59528e-11
6.97978e-12
3.29525e-11
1.03032e-11
2.96631e-11
1.3467e-11
2.61205e-11
1.62825e-11
2.23914e-11
1.85107e-11
1.85524e-11
1.99084e-11
1.47335e-11
2.02784e-11
1.10673e-11
1.95585e-11
7.7203e-12
1.77378e-11
4.81431e-12
1.49715e-11
2.46347e-12
1.19965e-11
7.50908e-13
9.06646e-12
4.42789e-12
-8.50678e-13
5.73076e-12
-2.44993e-12
1.01899e-11
-4.45413e-12
1.43534e-11
-6.86437e-12
1.94528e-11
-9.87079e-12
2.46739e-11
-1.33963e-11
2.91232e-11
-1.72849e-11
3.23628e-11
-2.14397e-11
3.43053e-11
-2.58147e-11
3.49389e-11
-3.0296e-11
3.43265e-11
-3.4772e-11
3.26503e-11
-3.91249e-11
3.0067e-11
-4.32766e-11
2.67057e-11
-4.71486e-11
2.26319e-11
-5.0676e-11
1.79136e-11
-5.37896e-11
1.26127e-11
-5.64285e-11
6.8282e-12
-5.85424e-11
6.73111e-13
-6.00907e-11
-5.70576e-12
-6.10525e-11
-1.21439e-11
-6.14108e-11
-1.84566e-11
-6.11703e-11
-2.44541e-11
-6.03322e-11
-2.99543e-11
-5.89196e-11
-3.47937e-11
-5.69471e-11
-3.88466e-11
-5.44507e-11
-4.2027e-11
-5.14549e-11
-4.43043e-11
-4.80038e-11
-4.56919e-11
-4.41297e-11
-4.62555e-11
-3.98834e-11
-4.60917e-11
-3.53056e-11
-4.53311e-11
-3.04534e-11
-4.41135e-11
-2.53752e-11
-4.25875e-11
-2.01321e-11
-4.08873e-11
-1.47773e-11
-3.91335e-11
-9.37213e-12
-3.74161e-11
-3.97062e-12
-3.5799e-11
1.36985e-12
-3.43136e-11
6.59839e-12
-3.29661e-11
1.16657e-11
-3.17393e-11
1.65285e-11
-3.06003e-11
2.11501e-11
-2.95078e-11
2.54991e-11
-2.84179e-11
2.95547e-11
-2.72952e-11
3.32993e-11
-2.61147e-11
3.67279e-11
-2.48719e-11
3.98346e-11
-2.35746e-11
4.26257e-11
-2.22503e-11
4.51006e-11
-2.093e-11
4.72718e-11
-1.96571e-11
4.91398e-11
-1.84675e-11
5.07191e-11
-1.74005e-11
5.20083e-11
-1.6473e-11
5.30205e-11
-1.56936e-11
5.37509e-11
-1.5037e-11
5.42113e-11
-1.44679e-11
5.43946e-11
-1.39187e-11
5.43105e-11
-1.33183e-11
5.39487e-11
-1.25717e-11
5.33163e-11
-1.15926e-11
5.24032e-11
-1.029e-11
5.12145e-11
-8.60012e-12
4.974e-11
-6.47623e-12
4.79796e-11
-3.91609e-12
4.59229e-11
-9.5178e-13
4.35648e-11
2.34451e-12
4.09e-11
5.87598e-12
3.79306e-11
9.52362e-12
3.46739e-11
1.31476e-11
3.11487e-11
1.65921e-11
2.73985e-11
1.96471e-11
2.34658e-11
2.2067e-11
1.94381e-11
2.35694e-11
1.5411e-11
2.39391e-11
1.15515e-11
2.30573e-11
8.01172e-12
2.09192e-11
4.95287e-12
1.76831e-11
2.48914e-12
1.4109e-11
7.55225e-13
1.04702e-11
5.03595e-12
-7.86494e-13
6.24439e-12
-2.28571e-12
1.12109e-11
-4.17271e-12
1.57765e-11
-6.43828e-12
2.12713e-11
-9.21647e-12
2.70025e-11
-1.25411e-11
3.19957e-11
-1.62232e-11
3.55968e-11
-2.0151e-11
3.77839e-11
-2.42577e-11
3.8596e-11
-2.84949e-11
3.81136e-11
-3.27589e-11
3.64626e-11
-3.69617e-11
3.38168e-11
-4.1009e-11
3.02955e-11
-4.4834e-11
2.59973e-11
-4.83683e-11
2.09823e-11
-5.15539e-11
1.53312e-11
-5.43342e-11
9.13509e-12
-5.66585e-11
2.52278e-12
-5.84903e-11
-4.35569e-12
-5.97956e-11
-1.13221e-11
-6.05601e-11
-1.81837e-11
-6.07648e-11
-2.47436e-11
-6.04122e-11
-3.08102e-11
-5.94944e-11
-3.62181e-11
-5.80262e-11
-4.0831e-11
-5.60094e-11
-4.45642e-11
-5.34678e-11
-4.7376e-11
-5.0412e-11
-4.92827e-11
-4.68744e-11
-5.03375e-11
-4.28777e-11
-5.06382e-11
-3.84662e-11
-5.03014e-11
-3.36778e-11
-4.94663e-11
-2.85693e-11
-4.82686e-11
-2.31923e-11
-4.68426e-11
-1.76126e-11
-4.5299e-11
-1.18906e-11
-4.37291e-11
-6.0955e-12
-4.21914e-11
-2.91428e-13
-4.07197e-11
5.45483e-12
-3.93194e-11
1.10823e-11
-3.79774e-11
1.65339e-11
-3.6666e-11
2.17592e-11
-3.53497e-11
2.67174e-11
-3.39941e-11
3.13731e-11
-3.25699e-11
3.5704e-11
-3.10639e-11
3.96893e-11
-2.94749e-11
4.3322e-11
-2.7822e-11
4.65909e-11
-2.61314e-11
4.94987e-11
-2.44446e-11
5.20387e-11
-2.27996e-11
5.42191e-11
-2.12426e-11
5.60342e-11
-1.9804e-11
5.74946e-11
-1.85116e-11
5.85933e-11
-1.73623e-11
5.93428e-11
-1.63441e-11
5.97375e-11
-1.54102e-11
5.9793e-11
-1.45077e-11
5.95056e-11
-1.35533e-11
5.88928e-11
-1.24662e-11
5.79543e-11
-1.11495e-11
5.67102e-11
-9.52603e-12
5.51636e-11
-7.5216e-12
5.33315e-11
-5.09765e-12
5.12155e-11
-2.24158e-12
4.88237e-11
1.01193e-12
4.61543e-11
4.59761e-12
4.32086e-11
8.41744e-12
3.99917e-11
1.23483e-11
3.65107e-11
1.62479e-11
3.27918e-11
1.99438e-11
2.88539e-11
2.32282e-11
2.47508e-11
2.58257e-11
2.05325e-11
2.74471e-11
1.63106e-11
2.78261e-11
1.22218e-11
2.68095e-11
8.46408e-12
2.43502e-11
5.19103e-12
2.06316e-11
2.58724e-12
1.63948e-11
7.77044e-13
1.19724e-11
5.6794e-12
-7.37509e-13
6.72942e-12
-2.10799e-12
1.21496e-11
-3.89889e-12
1.71407e-11
-6.06247e-12
2.3027e-11
-8.66765e-12
2.9189e-11
-1.1758e-11
3.46685e-11
-1.52389e-11
3.86596e-11
-1.89465e-11
4.1072e-11
-2.28145e-11
4.20396e-11
-2.67815e-11
4.16548e-11
-3.08006e-11
4.00561e-11
-3.47884e-11
3.73785e-11
-3.86794e-11
3.37604e-11
-4.23997e-11
2.9288e-11
-4.58938e-11
2.40456e-11
-4.91048e-11
1.81062e-11
-5.19813e-11
1.15747e-11
-5.44791e-11
4.57758e-12
-5.65542e-11
-2.72441e-12
-5.81786e-11
-1.01484e-11
-5.93181e-11
-1.74965e-11
-5.99576e-11
-2.45641e-11
-6.00702e-11
-3.11599e-11
-5.96509e-11
-3.71082e-11
-5.86806e-11
-4.22753e-11
-5.71635e-11
-4.65642e-11
-5.50882e-11
-4.99381e-11
-5.24662e-11
-5.24003e-11
-4.9297e-11
-5.40067e-11
-4.56053e-11
-5.48386e-11
-4.14092e-11
-5.50109e-11
-3.67525e-11
-5.46447e-11
-3.16753e-11
-5.38725e-11
-2.62389e-11
-5.28132e-11
-2.05013e-11
-5.15758e-11
-1.45353e-11
-5.0241e-11
-8.41037e-12
-4.88669e-11
-2.20483e-12
-4.74814e-11
4.00684e-12
-4.60914e-11
1.01493e-11
-4.46845e-11
1.61536e-11
-4.32382e-11
2.1958e-11
-4.17246e-11
2.75073e-11
-4.0116e-11
3.27585e-11
-3.83945e-11
3.76729e-11
-3.65523e-11
4.22257e-11
-3.46006e-11
4.63913e-11
-3.25596e-11
5.01587e-11
-3.04673e-11
5.35104e-11
-2.83623e-11
5.64453e-11
-2.62945e-11
5.89502e-11
-2.43032e-11
6.10296e-11
-2.24308e-11
6.26717e-11
-2.06948e-11
6.38855e-11
-1.91066e-11
6.46627e-11
-1.76438e-11
6.50202e-11
-1.62776e-11
6.49571e-11
-1.49448e-11
6.44974e-11
-1.358e-11
6.36472e-11
-1.20916e-11
6.24375e-11
-1.04008e-11
6.0882e-11
-8.42042e-12
5.90147e-11
-6.08975e-12
5.68517e-11
-3.35879e-12
5.44202e-11
-2.2062e-13
5.17297e-11
3.30308e-12
4.87909e-11
7.14938e-12
4.56078e-11
1.12248e-11
4.21838e-11
1.54076e-11
3.8528e-11
1.95512e-11
3.46481e-11
2.34818e-11
3.05693e-11
2.6978e-11
2.6311e-11
2.97623e-11
2.19298e-11
3.15154e-11
1.74966e-11
3.19455e-11
1.31724e-11
3.08259e-11
9.13181e-12
2.80844e-11
5.59836e-12
2.38701e-11
2.76258e-12
1.89312e-11
8.18944e-13
1.36352e-11
6.37039e-12
-6.75981e-13
7.17727e-12
-1.93531e-12
1.30125e-11
-3.61895e-12
1.84434e-11
-5.74806e-12
2.4786e-11
-8.27049e-12
3.13349e-11
-1.11802e-11
3.71958e-11
-1.44277e-11
4.15284e-11
-1.79239e-11
4.41843e-11
-2.15541e-11
4.52808e-11
-2.52749e-11
4.49816e-11
-2.90301e-11
4.34166e-11
-3.27828e-11
4.07377e-11
-3.64712e-11
3.70552e-11
-4.00485e-11
3.24725e-11
-4.34593e-11
2.70605e-11
-4.66565e-11
2.09073e-11
-4.95945e-11
1.41118e-11
-5.22275e-11
6.80919e-12
-5.45194e-11
-8.39505e-13
-5.6427e-11
-8.64847e-12
-5.7923e-11
-1.64148e-11
-5.89656e-11
-2.3937e-11
-5.95331e-11
-3.10153e-11
-5.9587e-11
-3.74791e-11
-5.91136e-11
-4.31813e-11
-5.80824e-11
-4.80307e-11
-5.64861e-11
-5.19777e-11
-5.43003e-11
-5.50327e-11
-5.15267e-11
-5.72351e-11
-4.8158e-11
-5.86659e-11
-4.42171e-11
-5.94182e-11
-3.97244e-11
-5.96079e-11
-3.47286e-11
-5.93461e-11
-2.92769e-11
-5.8747e-11
-2.34379e-11
-5.79037e-11
-1.72782e-11
-5.6894e-11
-1.08792e-11
-5.5765e-11
-4.32121e-12
-5.45425e-11
2.30767e-12
-5.32282e-11
8.92307e-12
-5.18114e-11
1.54438e-11
-5.0274e-11
2.17959e-11
-4.85945e-11
2.79147e-11
-4.67546e-11
3.37415e-11
-4.47429e-11
3.92315e-11
-4.2564e-11
4.43412e-11
-4.02325e-11
4.90426e-11
-3.77813e-11
5.33041e-11
-3.52482e-11
5.71116e-11
-3.26851e-11
6.04421e-11
-3.01375e-11
6.32907e-11
-2.76581e-11
6.56383e-11
-2.52804e-11
6.74866e-11
-2.30366e-11
6.88214e-11
-2.09288e-11
6.96554e-11
-1.89546e-11
6.99858e-11
-1.70771e-11
6.9839e-11
-1.52547e-11
6.92236e-11
-1.34123e-11
6.8177e-11
-1.14794e-11
6.67192e-11
-9.36752e-12
6.48968e-11
-7.00882e-12
6.27386e-11
-4.33212e-12
6.02917e-11
-1.29925e-12
5.75837e-11
2.11059e-12
5.46445e-11
5.87762e-12
5.14844e-11
9.95538e-12
4.81112e-11
1.42548e-11
4.45315e-11
1.86549e-11
4.07448e-11
2.30155e-11
3.6761e-11
2.71551e-11
3.25776e-11
3.08596e-11
2.82158e-11
3.38333e-11
2.36861e-11
3.57568e-11
1.90679e-11
3.62809e-11
1.44757e-11
3.51336e-11
1.01221e-11
3.21637e-11
6.22338e-12
2.74961e-11
3.06542e-12
2.18231e-11
8.59909e-13
1.5579e-11
7.11861e-12
-6.0902e-13
7.57795e-12
-1.7994e-12
1.38578e-11
-3.4658e-12
1.9767e-11
-5.57282e-12
2.6575e-11
-8.12053e-12
3.35577e-11
-1.09276e-11
3.96783e-11
-1.39797e-11
4.42562e-11
-1.72224e-11
4.71032e-11
-2.06047e-11
4.83315e-11
-2.40546e-11
4.80948e-11
-2.7547e-11
4.6569e-11
-3.10377e-11
4.3888e-11
-3.45031e-11
4.0181e-11
-3.79016e-11
3.55305e-11
-4.11989e-11
3.00177e-11
-4.43524e-11
2.37172e-11
-4.73209e-11
1.67365e-11
-5.00671e-11
9.20666e-12
-5.25451e-11
1.28931e-12
-5.47203e-11
-6.82834e-12
-5.65426e-11
-1.49484e-11
-5.79782e-11
-2.2864e-11
-5.89725e-11
-3.03849e-11
-5.94938e-11
-3.73289e-11
-5.94932e-11
-4.3555e-11
-5.89489e-11
-4.89556e-11
-5.78171e-11
-5.34926e-11
-5.60775e-11
-5.7163e-11
-5.36952e-11
-6.00111e-11
-5.0667e-11
-6.20951e-11
-4.69868e-11
-6.35029e-11
-4.2683e-11
-6.4323e-11
-3.77854e-11
-6.46588e-11
-3.23515e-11
-6.46022e-11
-2.64387e-11
-6.42416e-11
-2.01238e-11
-6.36394e-11
-1.34846e-11
-6.28386e-11
-6.61291e-12
-6.18532e-11
3.98226e-13
-6.06816e-11
7.45138e-12
-5.93104e-11
1.44556e-11
-5.77268e-11
2.13271e-11
-5.59169e-11
2.79877e-11
-5.3868e-11
3.43706e-11
-5.15793e-11
4.04136e-11
-4.90614e-11
4.60694e-11
-4.63416e-11
5.12893e-11
-4.34544e-11
5.60429e-11
-4.0452e-11
6.02945e-11
-3.73852e-11
6.40275e-11
-3.43141e-11
6.72133e-11
-3.12844e-11
6.9844e-11
-2.83446e-11
7.18967e-11
-2.55183e-11
7.33755e-11
-2.28278e-11
7.42712e-11
-2.02645e-11