/*--------------------------------*- C++ -*----------------------------------*\
| =========                 |                                                 |
| \\      /  F ield         | OpenFOAM: The Open Source CFD Toolbox           |
|  \\    /   O peration     | Version:  2412                                  |
|   \\  /    A nd           | Website:  www.openfoam.com                      |
|    \\/     M anipulation  |                                                 |
\*---------------------------------------------------------------------------*/
FoamFile
{
    version     2.0;
    format      ascii;
    arch        "LSB;label=32;scalar=64";
    class       volScalarField;
    location    "7.55";
    object      p_rgh;
}
// * * * * * * * * * * * * * * * * * * * * * * * * * * * * * * * * * * * * * //

dimensions      [1 -1 -2 0 0 0 0];

internalField   nonuniform List<scalar> 
6400
(
12417
12417.1
12417.4
12417.9
12418.4
12419
12419.6
12420.2
12420.7
12421.1
12421.5
12421.8
12421.9
12422
12421.9
12421.7
12421.4
12421
12420.4
12419.7
12418.8
12417.8
12416.6
12415.2
12413.5
12411.7
12409.6
12407.4
12404.9
12402.2
12399.4
12396.5
12393.6
12390.8
12388.1
12385.7
12383.7
12382.1
12381
12380.5
12380.6
12381.3
12382.5
12384.2
12386.4
12388.9
12391.6
12394.5
12397.4
12400.3
12403.1
12405.7
12408.1
12410.3
12412.4
12414.2
12415.8
12417.1
12418.3
12419.3
12420.2
12420.9
12421.5
12421.9
12422.2
12422.4
12422.5
12422.4
12422.3
12422
12421.7
12421.3
12420.8
12420.2
12419.6
12419
12418.5
12418
12417.7
12417.6
12416.9
12417
12417.3
12417.6
12418.1
12418.6
12419.2
12419.6
12420.1
12420.5
12420.8
12421
12421.1
12421.2
12421.1
12420.9
12420.6
12420.1
12419.6
12418.9
12418
12417
12415.9
12414.5
12413
12411.2
12409.3
12407.2
12404.9
12402.4
12399.9
12397.3
12394.6
12392.1
12389.7
12387.6
12385.8
12384.3
12383.4
12382.9
12383
12383.6
12384.7
12386.3
12388.2
12390.4
12392.9
12395.4
12398.1
12400.7
12403.2
12405.6
12407.9
12410
12411.9
12413.6
12415.1
12416.4
12417.6
12418.5
12419.4
12420.1
12420.6
12421.1
12421.4
12421.6
12421.7
12421.6
12421.5
12421.3
12421
12420.7
12420.2
12419.7
12419.2
12418.7
12418.3
12417.9
12417.6
12417.5
12416.6
12416.7
12417
12417.3
12417.8
12418.2
12418.7
12419.1
12419.5
12419.8
12420.1
12420.2
12420.3
12420.3
12420.2
12420
12419.7
12419.3
12418.7
12418.1
12417.3
12416.3
12415.2
12413.9
12412.5
12410.8
12409
12407.1
12405
12402.8
12400.4
12398.1
12395.7
12393.4
12391.3
12389.4
12387.8
12386.5
12385.7
12385.3
12385.4
12385.9
12386.9
12388.2
12390
12391.9
12394.1
12396.4
12398.8
12401.2
12403.5
12405.7
12407.8
12409.7
12411.5
12413.1
12414.5
12415.7
12416.8
12417.8
12418.6
12419.3
12419.8
12420.2
12420.5
12420.7
12420.8
12420.9
12420.8
12420.6
12420.4
12420
12419.7
12419.3
12418.8
12418.4
12418
12417.6
12417.4
12417.2
12416.1
12416.3
12416.6
12417
12417.4
12417.8
12418.2
12418.6
12418.9
12419.2
12419.4
12419.6
12419.7
12419.6
12419.5
12419.3
12419
12418.6
12418.1
12417.5
12416.7
12415.8
12414.7
12413.5
12412.2
12410.7
12409
12407.2
12405.2
12403.2
12401
12398.8
12396.7
12394.6
12392.6
12390.8
12389.3
12388.2
12387.4
12387
12387.1
12387.6
12388.5
12389.8
12391.3
12393.2
12395.2
12397.3
12399.5
12401.7
12403.8
12405.9
12407.8
12409.6
12411.3
12412.7
12414.1
12415.3
12416.3
12417.2
12418
12418.6
12419.1
12419.5
12419.8
12420.1
12420.2
12420.2
12420.1
12420
12419.8
12419.5
12419.2
12418.8
12418.4
12418
12417.6
12417.3
12417
12416.8
12415.6
12415.9
12416.2
12416.6
12417
12417.4
12417.8
12418.1
12418.4
12418.7
12418.9
12419
12419.1
12419.1
12419
12418.8
12418.5
12418.1
12417.6
12417
12416.2
12415.4
12414.4
12413.3
12412
12410.6
12409.1
12407.4
12405.6
12403.6
12401.6
12399.6
12397.5
12395.5
12393.6
12392
12390.5
12389.4
12388.7
12388.3
12388.4
12388.9
12389.7
12390.9
12392.4
12394.2
12396.1
12398.2
12400.2
12402.3
12404.3
12406.2
12408
12409.7
12411.2
12412.6
12413.8
12415
12415.9
12416.8
12417.5
12418.1
12418.6
12419
12419.3
12419.5
12419.6
12419.6
12419.6
12419.5
12419.3
12419
12418.7
12418.4
12418
12417.6
12417.2
12416.9
12416.5
12416.2
12415
12415.3
12415.8
12416.2
12416.6
12417
12417.4
12417.7
12418
12418.3
12418.4
12418.6
12418.6
12418.6
12418.5
12418.3
12418
12417.6
12417.2
12416.6
12415.9
12415.2
12414.3
12413.2
12412.1
12410.8
12409.3
12407.7
12406
12404.2
12402.3
12400.3
12398.3
12396.4
12394.5
12392.8
12391.4
12390.3
12389.6
12389.2
12389.3
12389.7
12390.6
12391.8
12393.3
12395.1
12397
12398.9
12400.9
12402.9
12404.8
12406.6
12408.3
12409.9
12411.3
12412.6
12413.7
12414.8
12415.7
12416.4
12417.1
12417.7
12418.1
12418.5
12418.8
12419
12419.1
12419.1
12419.1
12419
12418.8
12418.6
12418.3
12418
12417.6
12417.2
12416.8
12416.4
12416
12415.6
12414.3
12414.8
12415.3
12415.8
12416.2
12416.6
12417
12417.4
12417.6
12417.9
12418
12418.1
12418.2
12418.1
12418
12417.9
12417.6
12417.3
12416.9
12416.3
12415.7
12415
12414.2
12413.3
12412.2
12411
12409.7
12408.2
12406.6
12404.8
12403
12401
12399.1
12397.1
12395.2
12393.5
12392
12390.8
12390.1
12389.7
12389.8
12390.3
12391.2
12392.4
12394
12395.8
12397.7
12399.7
12401.7
12403.6
12405.5
12407.2
12408.8
12410.2
12411.6
12412.7
12413.8
12414.7
12415.5
12416.2
12416.8
12417.3
12417.8
12418.1
12418.4
12418.6
12418.7
12418.7
12418.7
12418.6
12418.5
12418.2
12418
12417.6
12417.3
12416.9
12416.4
12416
12415.5
12415
12413.7
12414.3
12414.9
12415.4
12415.9
12416.3
12416.7
12417
12417.3
12417.5
12417.7
12417.8
12417.8
12417.8
12417.7
12417.5
12417.3
12417
12416.6
12416.2
12415.6
12415
12414.3
12413.5
12412.5
12411.4
12410.2
12408.8
12407.3
12405.6
12403.8
12401.8
12399.8
12397.7
12395.7
12393.9
12392.3
12391
12390.1
12389.7
12389.8
12390.4
12391.4
12392.8
12394.4
12396.3
12398.4
12400.4
12402.5
12404.4
12406.2
12407.9
12409.4
12410.7
12411.9
12413
12413.9
12414.8
12415.5
12416.1
12416.7
12417.1
12417.5
12417.8
12418
12418.2
12418.3
12418.4
12418.4
12418.3
12418.1
12417.9
12417.7
12417.3
12416.9
12416.5
12416.1
12415.5
12415
12414.4
12413.2
12413.8
12414.5
12415
12415.6
12416
12416.4
12416.8
12417.1
12417.3
12417.4
12417.5
12417.5
12417.5
12417.4
12417.3
12417.1
12416.8
12416.5
12416.1
12415.7
12415.1
12414.5
12413.8
12412.9
12412
12410.8
12409.6
12408.1
12406.5
12404.6
12402.7
12400.5
12398.3
12396.1
12394.1
12392.2
12390.8
12389.8
12389.3
12389.4
12390
12391.2
12392.8
12394.7
12396.8
12399
12401.2
12403.3
12405.3
12407.1
12408.7
12410.1
12411.4
12412.5
12413.4
12414.2
12415
12415.6
12416.1
12416.6
12417
12417.3
12417.6
12417.8
12418
12418.1
12418.1
12418.1
12418
12417.9
12417.7
12417.4
12417.1
12416.7
12416.2
12415.7
12415.1
12414.5
12413.9
12412.7
12413.4
12414.1
12414.8
12415.3
12415.8
12416.2
12416.6
12416.9
12417.1
12417.2
12417.3
12417.3
12417.3
12417.2
12417.1
12416.9
12416.7
12416.4
12416.1
12415.7
12415.3
12414.8
12414.2
12413.5
12412.7
12411.7
12410.5
12409.1
12407.5
12405.7
12403.6
12401.3
12398.9
12396.4
12394
12391.8
12390.1
12388.8
12388.3
12388.4
12389.2
12390.6
12392.4
12394.7
12397.1
12399.6
12402
12404.2
12406.3
12408.1
12409.7
12411
12412.2
12413.1
12413.9
12414.6
12415.2
12415.8
12416.2
12416.6
12416.9
12417.2
12417.4
12417.6
12417.8
12417.9
12417.9
12417.9
12417.8
12417.7
12417.5
12417.2
12416.9
12416.5
12416
12415.4
12414.8
12414.1
12413.4
12412.3
12413
12413.8
12414.5
12415.1
12415.7
12416.1
12416.5
12416.7
12416.9
12417.1
12417.1
12417.2
12417.1
12417.1
12416.9
12416.8
12416.6
12416.4
12416.2
12415.9
12415.6
12415.2
12414.8
12414.2
12413.5
12412.7
12411.7
12410.4
12408.9
12407
12404.8
12402.3
12399.5
12396.5
12393.6
12391
12388.8
12387.3
12386.6
12386.7
12387.7
12389.4
12391.7
12394.4
12397.3
12400.2
12402.9
12405.3
12407.5
12409.3
12410.8
12412.1
12413.1
12413.9
12414.6
12415.1
12415.6
12416
12416.3
12416.6
12416.9
12417.1
12417.3
12417.5
12417.6
12417.7
12417.8
12417.8
12417.7
12417.6
12417.4
12417.1
12416.8
12416.4
12415.8
12415.2
12414.6
12413.8
12413
12411.9
12412.8
12413.6
12414.4
12415
12415.6
12416
12416.4
12416.7
12416.8
12417
12417
12417
12417
12416.9
12416.8
12416.7
12416.6
12416.4
12416.3
12416.1
12415.9
12415.7
12415.4
12415
12414.5
12413.9
12413
12411.9
12410.5
12408.6
12406.3
12403.4
12400.2
12396.7
12393.1
12389.8
12387
12385.1
12384.1
12384.3
12385.6
12387.8
12390.7
12394.1
12397.7
12401.1
12404.1
12406.8
12409
12410.8
12412.2
12413.3
12414.2
12414.8
12415.3
12415.7
12416
12416.3
12416.5
12416.7
12416.9
12417.1
12417.2
12417.4
12417.5
12417.6
12417.7
12417.7
12417.6
12417.5
12417.4
12417.1
12416.8
12416.3
12415.8
12415.1
12414.4
12413.5
12412.7
12411.7
12412.6
12413.5
12414.4
12415.1
12415.6
12416.1
12416.4
12416.7
12416.8
12416.9
12416.9
12416.9
12416.8
12416.7
12416.6
12416.5
12416.4
12416.4
12416.3
12416.2
12416.2
12416.1
12416
12415.8
12415.6
12415.2
12414.6
12413.7
12412.4
12410.6
12408.2
12405
12401.2
12396.9
12392.4
12388.2
12384.6
12382.1
12380.9
12381.1
12382.7
12385.6
12389.5
12393.8
12398.3
12402.4
12406
12408.9
12411.1
12412.8
12414
12414.9
12415.4
12415.8
12416.1
12416.2
12416.4
12416.5
12416.6
12416.7
12416.8
12416.9
12417.1
12417.2
12417.3
12417.4
12417.5
12417.6
12417.6
12417.5
12417.4
12417.1
12416.8
12416.3
12415.8
12415.1
12414.3
12413.4
12412.5
12411.5
12412.5
12413.5
12414.4
12415.2
12415.8
12416.2
12416.5
12416.7
12416.8
12416.8
12416.8
12416.7
12416.6
12416.5
12416.4
12416.3
12416.2
12416.2
12416.2
12416.2
12416.3
12416.4
12416.6
12416.7
12416.7
12416.7
12416.4
12415.9
12414.9
12413.2
12410.7
12407.2
12402.7
12397.4
12391.7
12386.2
12381.6
12378.3
12376.7
12376.8
12378.9
12382.8
12387.8
12393.6
12399.4
12404.6
12408.7
12411.8
12414
12415.4
12416.3
12416.8
12416.9
12417
12416.9
12416.8
12416.7
12416.6
12416.6
12416.6
12416.6
12416.7
12416.8
12416.9
12417
12417.2
12417.3
12417.4
12417.4
12417.4
12417.3
12417.2
12416.9
12416.4
12415.8
12415.1
12414.2
12413.2
12412.3
12411.3
12412.4
12413.6
12414.6
12415.4
12416.1
12416.5
12416.7
12416.9
12416.9
12416.8
12416.7
12416.5
12416.4
12416.2
12416.1
12416
12415.9
12416
12416
12416.2
12416.4
12416.8
12417.1
12417.6
12418
12418.4
12418.6
12418.5
12417.9
12416.6
12414.2
12410.4
12405
12398.2
12390.8
12383.6
12377.5
12373.2
12370.9
12371
12373.7
12378.7
12385.5
12393.2
12400.9
12407.5
12412.4
12415.8
12417.7
12418.7
12419.1
12419
12418.7
12418.3
12417.8
12417.4
12417
12416.7
12416.5
12416.4
12416.3
12416.4
12416.4
12416.5
12416.7
12416.9
12417
12417.2
12417.3
12417.4
12417.4
12417.3
12417
12416.6
12416
12415.2
12414.3
12413.2
12412.1
12411.1
12412.5
12413.8
12415
12415.9
12416.6
12417
12417.2
12417.2
12417.2
12417
12416.8
12416.6
12416.4
12416.2
12416.1
12416
12416
12416
12416.2
12416.5
12416.9
12417.4
12418
12418.8
12419.6
12420.5
12421.3
12421.8
12421.9
12421.1
12419.1
12415
12408.5
12399.6
12389.6
12379.7
12371.3
12365.5
12362.3
12362.3
12365.7
12372.3
12381.5
12392.1
12402.3
12410.9
12416.9
12420.4
12422.1
12422.5
12422.2
12421.5
12420.7
12419.8
12419
12418.2
12417.6
12417.2
12416.8
12416.6
12416.4
12416.4
12416.4
12416.6
12416.7
12416.9
12417.2
12417.4
12417.6
12417.7
12417.8
12417.8
12417.5
12417.1
12416.5
12415.6
12414.5
12413.2
12411.9
12410.7
12412.6
12414.1
12415.4
12416.5
12417.3
12417.7
12417.9
12417.9
12417.7
12417.5
12417.2
12417
12416.7
12416.5
12416.3
12416.2
12416.3
12416.4
12416.7
12417.1
12417.7
12418.4
12419.3
12420.4
12421.7
12423.1
12424.6
12426
12427
12427.3
12426
12422
12413.7
12401.4
12386.9
12372.6
12360.5
12352.7
12348.6
12348.8
12353.7
12362.9
12375.7
12390.4
12404.4
12415.6
12422.7
12426
12426.9
12426.6
12425.5
12424.2
12422.8
12421.4
12420.2
12419.2
12418.4
12417.8
12417.4
12417
12416.9
12416.8
12416.8
12416.9
12417.1
12417.4
12417.7
12418
12418.2
12418.5
12418.6
12418.7
12418.5
12418.1
12417.4
12416.3
12414.9
12413.2
12411.5
12409.8
12412.5
12414.5
12416
12417.2
12418
12418.4
12418.5
12418.4
12418.1
12417.8
12417.5
12417.1
12416.8
12416.6
12416.4
12416.3
12416.4
12416.6
12417
12417.5
12418.3
12419.3
12420.5
12422
12423.9
12426.1
12428.6
12431.3
12433.9
12436.2
12437.4
12434.3
12423.2
12404.7
12382.3
12361.1
12344.4
12334
12328.5
12329.1
12336.4
12349.2
12367.2
12388.7
12409.6
12426
12434.6
12436.1
12434.7
12432.4
12429.9
12427.5
12425.2
12423.2
12421.5
12420.1
12419.1
12418.4
12417.8
12417.3
12417.1
12417
12417
12417.1
12417.3
12417.6
12418
12418.3
12418.7
12419.1
12419.3
12419.5
12419.4
12419
12418.3
12417
12415.2
12413
12410.5
12407.2
12412.3
12415.5
12417.5
12418.8
12419.4
12419.5
12419.2
12418.8
12418.2
12417.7
12417.1
12416.6
12416.1
12415.7
12415.5
12415.3
12415.3
12415.5
12415.9
12416.6
12417.5
12418.7
12420.3
12422.2
12424.6
12427.7
12431.6
12436.1
12441.1
12447
12453.5
12454.7
12441.9
12415.1
12384.1
12355.4
12333.7
12322.8
12263.5
12267.2
12325.2
12340.3
12363.5
12393
12423.3
12446
12455.1
12451.7
12445.2
12439.7
12434.9
12430.8
12427.2
12424.1
12421.7
12419.9
12418.6
12417.7
12417
12416.4
12416.1
12415.9
12416
12416.2
12416.5
12416.9
12417.4
12417.9
12418.5
12419.1
12419.6
12420
12420.2
12420.1
12419.5
12418.2
12416
12412.8
12408
12377.1
12313.2
12254.8
12200.1
12152.2
12110.9
12075.5
12045
12018.6
11995.6
11975.3
11957.2
11940.7
11925.4
11911.1
11897.4
11884.2
11871.5
11859.4
11848.1
11838.1
11830.1
11824.8
11822.9
11824.7
11830.1
11839.2
11850.9
11862.1
11866.9
11853.6
11796.5
11668.5
11354.3
10136.4
8570.2
7211.45
6038.55
5589.79
5306.08
5315.07
5667.8
6381.17
7554.38
8933.37
10689.8
11477.9
11681.8
11800.9
11847.1
11856.4
11851.9
11842.7
11833.9
11827.7
11824.4
11824.5
11828.5
11836.3
11846.6
11858.3
11870.9
11884.1
11897.6
11911.3
11925.5
11940.1
11955.5
11972
11990.1
12010.2
12032.9
12058.7
12088.6
12123.2
12163.4
12209.9
12262.8
12319.1
12379.9
1302.99
1659.13
1842.94
1943.25
1993.02
2013.65
2017.62
2011.73
1999.88
1984.2
1966.11
1946.55
1926.26
1905.83
1885.83
1866.79
1849.22
1833.54
1820.17
1809.35
1801.24
1795.85
1793.02
1792.58
1795.16
1800.95
1811.43
1826.47
1843.78
1860.29
1869.81
1837.65
1746.02
1744.83
1554.87
1477.53
1504.59
1530.01
1544.43
1549.36
1548.67
1542.22
1525.93
1498.45
1455.84
1390.53
1625.75
1763.81
1855.29
1868.61
1857.34
1841.12
1823.19
1807.8
1796.81
1790.99
1790
1792.63
1796.52
1802.72
1811.61
1823.12
1837.13
1853.42
1871.57
1891.11
1911.58
1932.39
1952.99
1972.77
1990.98
2006.63
2018.34
2023.91
2019.41
1998.09
1947.4
1845.93
1661.03
1303.49
0.00545827
0.00555469
0.00561992
0.00570393
0.00580039
0.0059006
0.00599708
0.0060788
0.00613349
0.00614348
0.00610502
0.0061098
0.00615619
0.00600072
0.00692529
0.0192141
0.0476685
0.0401928
0.0151582
-0.00533685
-0.00387155
-0.00363483
-0.00411145
0.119502
0.56785
0.971895
1.14044
1.29454
1.4865
2.05471
3.88651
4.96529
6.32608
31.3539
2109.86
3619.98
3656.52
3679.81
3693.54
3694.45
3694.57
3693
3679.01
3654.53
3610.81
1317.21
17.9472
7.87374
5.77237
3.94628
2.04303
0.940096
0.821457
0.92582
0.879679
0.84738
0.785686
0.413889
0.0797556
-0.00871409
-0.011127
-0.0178454
-0.00432107
0.0127864
0.0223541
0.0167175
0.00676549
0.006253
0.00588412
0.00515482
0.00495157
0.00514941
0.0054404
0.0056825
0.00586463
0.00600492
0.00610471
0.00616792
0.00620087
0.00614777
0.00563414
0.00562781
0.00566114
0.00571985
0.00579591
0.00588189
0.00597136
0.00606008
0.00614945
0.00624942
0.00638768
0.00666242
0.00725345
0.00817457
0.00927235
0.0122703
0.0434657
0.0812636
0.0574469
0.00830541
-0.00167915
-0.00160477
-0.00593123
0.00436045
2.44742
5.39235
5.03629
1.4543
1.48798
2.20965
4.17523
4.18751
4.58773
6.02559
798.084
1879.99
2633.93
3328.95
3703.31
3435.63
3445.12
3695.19
3285.75
2597.24
1740.02
430.58
6.98866
6.40783
5.98015
7.0147
4.492
0.882018
0.865652
1.54824
6.47436
6.73627
6.62686
2.18776
0.00316972
-0.00591913
-0.00286336
-0.00880546
-0.00302543
0.00466042
0.00581036
0.00772196
0.00889475
0.00744317
0.00606292
0.00538693
0.00524701
0.00531718
0.0054564
0.00562913
0.00579454
0.00594315
0.00606433
0.00615392
0.00622093
0.00627997
0.00545162
0.00550935
0.00556812
0.00564301
0.00572905
0.00581903
0.00590593
0.0059784
0.00602334
0.00601918
0.00596717
0.00594788
0.00581289
0.00545924
0.00645818
0.0616124
0.264849
0.267617
0.261524
0.0645424
-0.0034666
-0.00380014
-0.00522722
0.0187303
3.22819
5.42352
5.51622
4.90281
1.40149
6.028
41.7294
42.8462
42.8414
32.7595
11.4264
0.244149
0.187193
0.169227
297.983
39.0064
34.9818
183.279
0.00798991
0.00834699
0.00900729
10.27
33.3057
45.2371
45.2269
41.0161
3.80555
0.815241
2.99639
6.80128
6.80699
6.77411
6.68365
2.42072
-0.00904037
-0.0100424
-0.00497987
0.0638985
0.145565
0.155935
0.134344
0.0609338
0.00736072
0.00597091
0.00566092
0.00502576
0.00480215
0.00500179
0.00532195
0.00557519
0.00577753
0.00593373
0.00604471
0.0061173
0.00615621
0.00614813
0.00542525
0.00545178
0.00549972
0.0055681
0.00565341
0.00574789
0.00584407
0.00592912
0.00598652
0.00598858
0.00590393
0.00573552
0.00525718
0.00404455
0.00404143
0.154154
0.276834
0.274419
0.264176
0.0488819
-0.00294345
-0.00395007
-0.00569431
-0.00702444
-0.00802933
0.236276
3.71076
5.40383
5.40433
3.25698
1.1298
3.7209
5.51209
3.02155
0.0803588
1.03778
1.53216
0.19285
0.000851648
0.00985826
0.00985899
0.00785749
0.00878589
0.00903649
0.00955747
0.00915861
5.34037
6.39587
2.42556
0.51381
2.45896
2.54379
2.52044
2.87003
4.68449
3.41913
0.274528
-0.00900396
-0.00467677
-0.00880161
0.00117075
0.193943
0.196391
0.199262
0.202911
0.205488
0.120383
0.00847909
0.00455045
0.003938
0.00421741
0.00479785
0.00518844
0.00546828
0.00570083
0.00588278
0.00600973
0.00609354
0.00614199
0.00615402
0.00525629
0.00529047
0.00534155
0.00541242
0.00550245
0.00560567
0.00571469
0.00581639
0.00589196
0.005905
0.00580933
0.00558831
0.00496503
0.0032275
0.000718654
0.00614321
0.133895
0.211129
0.0179905
-0.00229614
-0.00156471
-0.00419304
-0.00642042
-0.00862716
-0.0117611
-0.0126037
-0.00910503
-0.00150714
-0.000706359
0.00120838
0.00533342
0.00713259
0.00429115
0.00320554
0.0850116
1.14549
1.48358
0.731483
0.00885308
0.0110085
0.00897529
0.00835626
0.00809262
0.00841979
0.0089555
0.00998512
0.0091958
0.00754157
0.0141643
0.0141574
0.131814
0.548553
0.256677
0.0116403
0.00405346
-0.00406413
-0.00761394
-0.00617386
-0.00473496
-0.00628171
0.000372277
0.0155002
0.000173266
0.0300381
0.153897
0.20828
0.209958
0.121573
0.00531744
0.00276618
0.00325337
0.00430817
0.00496962
0.00531379
0.00556207
0.0057518
0.00588012
0.00596251
0.00600819
0.00601491
0.00504406
0.0050739
0.0051236
0.00519473
0.00528653
0.00539529
0.00551576
0.00563801
0.00574837
0.00581833
0.00579468
0.00562283
0.0051112
0.00402686
0.00305078
0.00224467
-0.000233874
-0.00243671
-0.00385282
-0.00500622
-0.00661216
-0.0084957
-0.00959824
-0.0101398
-0.0104107
-0.00916832
-0.00613344
-0.00264495
8.93566e-07
0.0018626
0.00322295
0.0042506
0.00452914
0.0041852
0.00385101
0.00287441
0.000832946
0.00742523
0.00974048
0.00914145
0.00822716
0.00730354
0.00752644
0.0082573
0.0089545
0.0100168
0.0114165
0.0122626
0.0133932
0.0150588
0.0160494
0.0080638
-0.00243509
-0.00443977
-0.00311761
-0.00419747
-0.00705284
-0.00825947
-0.00731625
-0.00566845
-0.0102447
-0.0199734
-0.0228426
-0.0200143
-0.016427
0.104431
0.214491
0.212677
0.0228656
0.00170527
0.00233086
0.0036653
0.00459907
0.00504138
0.0053241
0.00552803
0.00566006
0.005742
0.00578813
0.0057978
0.0047854
0.00480965
0.00485549
0.00492315
0.00501238
0.0051219
0.00524996
0.00539272
0.00554506
0.00569318
0.00580042
0.00581857
0.00569644
0.00559332
0.00617913
0.00716793
0.00307807
-0.00443043
-0.00810211
-0.0114277
-0.0145416
-0.0161952
-0.016305
-0.015371
-0.0135298
-0.0104922
-0.00668969
-0.00333991
-0.000640554
0.0016642
0.00333281
0.00406975
0.00415747
0.0043056
0.00476607
0.00482004
0.0042866
0.00425866
0.0065611
0.0073752
0.0073411
0.00731351
0.00768866
0.00808581
0.00885068
0.0100027
0.0107962
0.0110662
0.0120996
0.0124872
0.0112106
0.00867086
0.00487184
0.00191459
-0.000510414
-0.00499435
-0.0112606
-0.016888
-0.0208611
-0.0233758
-0.0260027
-0.0283136
-0.0257951
-0.0192162
-0.00911742
-0.00363237
0.167134
0.20487
0.0238058
0.000576228
0.0017553
0.00307492
0.00414644
0.00469034
0.00500925
0.00522763
0.00536699
0.00545257
0.00550218
0.00551967
0.00447951
0.00450006
0.00454052
0.00460134
0.00468339
0.00478759
0.00491554
0.00506912
0.00525188
0.00546498
0.00569329
0.00591638
0.00619176
0.00683136
0.00842504
0.00987317
0.00593901
-0.00422937
-0.0130842
-0.0200854
-0.0245927
-0.0267711
-0.0256234
-0.0221296
-0.0176255
-0.0128962
-0.00848892
-0.00475279
-0.00175911
0.000568903
0.00226016
0.00330792
0.00383402
0.0041283
0.00433612
0.00456688
0.00476151
0.00490432
0.00529601
0.00633543
0.00694182
0.00717939
0.00746837
0.00785305
0.00857731
0.00957654
0.0103312
0.0108701
0.0114004
0.0116691
0.0112575
0.00930652
0.00553182
0.000650435
-0.00481495
-0.0120484
-0.0217396
-0.0323474
-0.0411539
-0.0462533
-0.046832
-0.0418635
-0.0310046
-0.0167878
-0.00270356
0.00403762
0.122439
0.114937
0.00705266
0.00063151
0.00175924
0.00276641
0.00378426
0.00433955
0.00465959
0.00487885
0.00502035
0.00510826
0.00515993
0.0051815
0.00413487
0.00415116
0.00418384
0.00423393
0.00430297
0.00439332
0.0045088
0.00465513
0.00484181
0.00508035
0.00537309
0.00572993
0.00628026
0.00740672
0.0090726
0.0102464
0.00384883
-0.00981257
-0.0197676
-0.0293168
-0.0370718
-0.0426382
-0.041667
-0.0339289
-0.0254017
-0.0173766
-0.0112791
-0.00670169
-0.00315707
-0.000527839
0.00133506
0.00258636
0.00342011
0.00401098
0.00441443
0.00463176
0.00469259
0.00471043
0.00480443
0.00575549
0.00665057
0.00697884
0.00725774
0.00761211
0.00820213
0.00891678
0.00947951
0.00983799
0.0100413
0.00994471
0.00916056
0.00720052
0.00369129
-0.001544
-0.00899892
-0.0203535
-0.0367234
-0.0556219
-0.0712074
-0.0784896
-0.0761359
-0.0636926
-0.0438872
-0.0214374
-0.000662227
0.00907166
0.132329
0.104078
0.00244733
0.00191927
0.0023722
0.00282477
0.00358245
0.0040304
0.0043048
0.00450341
0.00463623
0.00472148
0.00477264
0.00479509
0.00375965
0.00377041
0.00379266
0.00382765
0.0038769
0.00394319
0.004031
0.0041474
0.00430402
0.00451605
0.00479395
0.00517144
0.00582049
0.00706444
0.00852747
0.00679581
-0.00308077
-0.0184276
-0.0347791
-0.0530312
-0.0645512
-0.0665758
-0.0594809
-0.0491928
-0.0371224
-0.0239258
-0.0152524
-0.00926097
-0.00492547
-0.00183072
0.000340964
0.00184979
0.00291156
0.00369334
0.00427427
0.00466782
0.00485998
0.00477451
0.00470554
0.00541948
0.00633747
0.0066734
0.00691073
0.00719454
0.0076362
0.00809159
0.00843272
0.00860623
0.00856657
0.00817598
0.00714268
0.00499835
0.00112233
-0.00524149
-0.0156713
-0.0331484
-0.0591447
-0.0890226
-0.112827
-0.122389
-0.116295
-0.0951111
-0.0651803
-0.0339372
-0.0058486
0.0101345
0.0748606
0.190787
0.0393163
0.00257641
0.00314598
0.00305176
0.00344508
0.00373726
0.00394269
0.00410684
0.00422396
0.00430309
0.00435241
0.00437497
0.00336218
0.00336647
0.00337598
0.00339167
0.00341447
0.00344646
0.00349109
0.00355406
0.00364488
0.00377592
0.0039559
0.00422118
0.00474854
0.00575936
0.00734485
0.00370606
-0.0105623
-0.0290513
-0.0560352
-0.081038
-0.103024
-0.109615
-0.0973044
-0.0737278
-0.0498738
-0.0317223
-0.0202509
-0.0121457
-0.00679309
-0.00311663
-0.000596486
0.00116185
0.00240807
0.00332594
0.00401638
0.004494
0.00472477
0.00473642
0.00463992
0.00509348
0.00593192
0.00625552
0.00644519
0.00667803
0.00696663
0.00720396
0.00733262
0.00729785
0.00701126
0.00631824
0.00494066
0.00239115
-0.00209782
-0.00966821
-0.0230868
-0.0470843
-0.0832324
-0.124053
-0.155329
-0.166957
-0.157163
-0.128129
-0.0889371
-0.0496858
-0.0151456
0.00669026
0.119873
0.197283
0.109111
0.00233803
0.00309125
0.00298291
0.00318523
0.00338214
0.00354288
0.00368124
0.00378642
0.00386111
0.00390945
0.00393247
0.00295215
0.00294921
0.00294414
0.00293722
0.00292821
0.00291748
0.00290588
0.00289527
0.00288921
0.00289168
0.00290119
0.0029381
0.00313351
0.00360766
0.0054924
0.0011043
-0.0179738
-0.0422774
-0.0765863
-0.110945
-0.140416
-0.146946
-0.134278
-0.104162
-0.0680843
-0.0422071
-0.0253118
-0.0147951
-0.00843262
-0.00422178
-0.00140362
0.000546207
0.00191951
0.00292097
0.00368168
0.00423735
0.00454288
0.0046126
0.00452748
0.00480179
0.00548223
0.00577063
0.00592475
0.00609231
0.00623475
0.00628866
0.00623009
0.00599735
0.00548328
0.00452518
0.00285568
-1.67526e-05
-0.00494542
-0.0132674
-0.0285856
-0.0569732
-0.100131
-0.148048
-0.183464
-0.196488
-0.184201
-0.150673
-0.1062
-0.062541
-0.0255413
-0.00590892
0.194553
0.204923
0.106097
0.000769955
0.00219067
0.00245373
0.00270112
0.00291268
0.00308106
0.00321958
0.00332595
0.0034028
0.00345339
0.0034782
0.00253969
0.00252905
0.00250839
0.00247704
0.00243318
0.00237479
0.00229913
0.00220259
0.00208005
0.0019243
0.00171772
0.00144766
0.00115627
0.00092844
0.000476035
-0.00391996
-0.0231514
-0.0518787
-0.0911099
-0.129679
-0.165179
-0.174462
-0.161122
-0.12636
-0.0825219
-0.0510544
-0.02865
-0.0164009
-0.00942919
-0.00492577
-0.00196036
7.33659e-05
0.00150245
0.00253395
0.00331085
0.00389274
0.00424881
0.00437702
0.00435286
0.00451089
0.00502167
0.00525338
0.00537552
0.00547035
0.00548716
0.0053954
0.00518373
0.00478046
0.00407782
0.00291898
0.00105269
-0.00197657
-0.00697378
-0.0150528
-0.0299779
-0.0582573
-0.101867
-0.15141
-0.187167
-0.200285
-0.187573
-0.15396
-0.109689
-0.0657061
-0.0298957
-0.0103859
0.126617
0.137697
0.0351615
-0.0009776
0.000963813
0.00161923
0.00204224
0.00234499
0.00256355
0.00272851
0.00285092
0.00293806
0.00299526
0.00302395
0.00213466
0.00211632
0.00208021
0.00202453
0.00194577
0.00183934
0.00169875
0.00151505
0.00127276
0.000954141
0.000527548
-5.82814e-05
-0.000790815
-0.00164935
-0.00380498
-0.00958715
-0.0273366
-0.0580651
-0.0939716
-0.134215
-0.170815
-0.182396
-0.169123
-0.131997
-0.0878146
-0.0491378
-0.0285425
-0.0163777
-0.00953644
-0.00512001
-0.00220857
-0.000220164
0.00118491
0.00219802
0.00295688
0.00353479
0.00391971
0.00409896
0.0041053
0.0042267
0.00455319
0.00473858
0.00482467
0.004844
0.0047596
0.00455706
0.00422632
0.00369013
0.00285024
0.00156968
-0.000374029
-0.00338753
-0.00814165
-0.0148613
-0.0276331
-0.0518956
-0.0898703
-0.133631
-0.16653
-0.178234
-0.167408
-0.137338
-0.0970923
-0.0557
-0.0250892
-0.007873
-0.00671528
-0.00404387
-0.00268905
-0.00203916
-0.000280882
0.000704778
0.00132799
0.00173825
0.00202388
0.00222926
0.00237707
0.00248019
0.00254715
0.00258241
0.00174632
0.00172061
0.00167048
0.00159254
0.00148194
0.00133174
0.00113231
0.000872845
0.000523244
6.74642e-05
-0.000563941
-0.0014308
-0.0025912
-0.00407963
-0.00575599
-0.0109585
-0.0246807
-0.052524
-0.0852252
-0.125118
-0.155857
-0.166337
-0.154357
-0.120779
-0.0766502
-0.0430929
-0.0250703
-0.0146423
-0.00869581
-0.00483286
-0.0021496
-0.00031962
0.000986838
0.00193155
0.00264301
0.00318994
0.003576
0.00378545
0.00382075
0.0039216
0.00411545
0.00423975
0.00429375
0.00424314
0.00408084
0.00379764
0.00337966
0.00275265
0.00183116
0.000502958
-0.00141481
-0.00421825
-0.00829399
-0.0139146
-0.0234002
-0.040515
-0.0675398
-0.100016
-0.126126
-0.135586
-0.127235
-0.102902
-0.070007
-0.0373011
-0.016603
-0.014461
-0.0110398
-0.00828413
-0.00620881
-0.00322459
-0.00123332
-8.56434e-05
0.000661188
0.00115748
0.00150352
0.00174883
0.00192345
0.00204394
0.00212059
0.00216607
0.00138298
0.00135004
0.00128869
0.00119226
0.00105566
0.000869837
0.000621254
0.000314751
-0.000116711
-0.000684128
-0.00144888
-0.00249061
-0.0039526
-0.00597258
0.00185113
-0.00066728
-0.016644
-0.0393536
-0.0682081
-0.0986462
-0.121439
-0.12977
-0.119787
-0.0932866
-0.0577226
-0.0321578
-0.0196102
-0.0118588
-0.00718528
-0.00406038
-0.00182151
-0.000241929
0.000912307
0.00173207
0.00238193
0.00288111
0.00324773
0.00346522
0.00352102
0.00360632
0.00371125
0.00377761
0.00379854
0.00368838
0.00346862
0.00312981
0.00265421
0.00197604
0.00102529
-0.000279789
-0.00209137
-0.00463258
-0.00810772
-0.0127156
-0.0194024
-0.0298476
-0.0453045
-0.0640006
-0.079329
-0.0839222
-0.0783037
-0.0621739
-0.0411984
-0.023023
-0.013413
-0.0128095
-0.0108582
-0.00884289
-0.00623023
-0.00360017
-0.00182374
-0.000666348
0.000111928
0.000652204
0.00103597
0.00131105
0.00150697
0.00164256
0.00172333
0.00178721
0.00105068
0.00101185
0.000942141
0.000832655
0.000678339
0.000469833
0.000195114
-0.000160257
-0.000630074
-0.00124529
-0.00205702
-0.00312782
-0.0045831
-0.00642651
-0.00224096
0.000265663
-0.0048088
-0.0209335
-0.0433903
-0.0624126
-0.0773992
-0.0825213
-0.0758409
-0.057485
-0.0359514
-0.0214669
-0.0143728
-0.00875532
-0.00543924
-0.00309319
-0.00134147
-5.42985e-05
0.000905667
0.00162493
0.0021816
0.00261868
0.00294985
0.00315661
0.0032241
0.0032957
0.00334294
0.00336209
0.00334817
0.0031894
0.00293072
0.00255758
0.00205192
0.00135935
0.000426105
-0.000820523
-0.00248455
-0.00471493
-0.00766343
-0.0114845
-0.0164847
-0.0230591
-0.0313191
-0.040253
-0.0468077
-0.0477328
-0.0435607
-0.0352654
-0.0251982
-0.0175626
-0.0140964
-0.0123128
-0.0102162
-0.00776732
-0.00543346
-0.00350501
-0.00208839
-0.00105196
-0.000302754
0.000241951
0.00063987
0.000930504
0.00113903
0.00128459
0.00136917
0.0014461
0.000752918
0.000710395
0.000635711
0.000518387
0.000354045
0.000133598
-0.000154348
-0.000525464
-0.00100338
-0.00161582
-0.00240038
-0.00339891
-0.00467301
-0.00628106
-0.00810537
0.00160868
-0.000696466
-0.00518774
-0.0136448
-0.0293715
-0.0407023
-0.0433465
-0.0400984
-0.0268198
-0.0190983
-0.0141963
-0.00936811
-0.00601628
-0.00380346
-0.00212182
-0.00081251
0.000190986
0.000963911
0.00156249
0.00203046
0.00240199
0.00268841
0.00287338
0.00294315
0.0030035
0.00300973
0.00299619
0.0029459
0.00274968
0.00246847
0.0020796
0.00156781
0.000886136
-4.08442e-06
-0.00115859
-0.00264788
-0.00456159
-0.00700528
-0.0101026
-0.0139848
-0.0186933
-0.0239377
-0.0287828
-0.0317833
-0.0319501
-0.0293878
-0.024991
-0.0199447
-0.0158031
-0.0133729
-0.0111422
-0.00886584
-0.00670747
-0.00486952
-0.00337522
-0.00219931
-0.00129024
-0.000597743
-7.44867e-05
0.000318622
0.000611193
0.000824255
0.000974691
0.00106304
0.00114268
0.000492015
0.000448183
0.000371702
0.000251698
8.48226e-05
-0.000137138
-0.000423843
-0.000788336
-0.00124773
-0.00182212
-0.00253539
-0.00341139
-0.00446858
-0.00573817
-0.00710498
-0.00712962
-0.00042622
0.000548276
-0.00193344
-0.00472242
-0.00755364
-0.00903765
-0.00853369
-0.00909523
-0.0125069
-0.0085505
-0.00579145
-0.00389442
-0.00244268
-0.00126579
-0.000313667
0.000446361
0.00105187
0.00153378
0.00191698
0.00222422
0.00246322
0.00262074
0.00268578
0.00273664
0.0027125
0.00267708
0.00259327
0.00236715
0.00207913
0.00168918