/*--------------------------------*- C++ -*----------------------------------*\
| =========                 |                                                 |
| \\      /  F ield         | OpenFOAM: The Open Source CFD Toolbox           |
|  \\    /   O peration     | Version:  2412                                  |
|   \\  /    A nd           | Website:  www.openfoam.com                      |
|    \\/     M anipulation  |                                                 |
\*---------------------------------------------------------------------------*/
FoamFile
{
    version     2.0;
    format      ascii;
    arch        "LSB;label=32;scalar=64";
    class       surfaceScalarField;
    location    "1.95";
    object      phi;
}
// * * * * * * * * * * * * * * * * * * * * * * * * * * * * * * * * * * * * * //

dimensions      [0 3 -1 0 0 0 0];

oriented        oriented;

internalField   nonuniform List<scalar> 
12640
(
8.09831e-06
-8.09831e-06
2.65589e-05
-1.8464e-05
4.53692e-05
-1.88112e-05
6.25462e-05
-1.71776e-05
7.764e-05
-1.50946e-05
9.03066e-05
-1.26675e-05
0.000100263
-9.95693e-06
0.000107333
-7.0701e-06
0.000111453
-4.11996e-06
0.000112681
-1.22839e-06
0.000111257
1.42415e-06
0.000107235
4.02139e-06
0.000101023
6.21185e-06
9.30343e-05
7.98847e-06
8.36924e-05
9.34173e-06
7.34479e-05
1.02451e-05
6.27407e-05
1.07086e-05
5.19948e-05
1.07464e-05
4.15656e-05
1.04289e-05
3.17707e-05
9.79522e-06
2.28488e-05
8.92262e-06
1.49537e-05
7.89556e-06
8.17371e-06
6.77924e-06
2.54637e-06
5.62611e-06
-1.94911e-06
4.49585e-06
-5.44549e-06
3.49628e-06
-8.02707e-06
2.58068e-06
-9.8038e-06
1.77897e-06
-1.09697e-05
1.16605e-06
-1.154e-05
5.69376e-07
-1.16464e-05
1.09098e-07
-1.14506e-05
-1.94234e-07
-1.08657e-05
-5.85588e-07
-9.97464e-06
-8.9001e-07
-8.70193e-06
-1.27103e-06
-7.04031e-06
-1.66195e-06
-5.06079e-06
-1.98072e-06
-2.74776e-06
-2.31328e-06
-2.25081e-07
-2.52215e-06
2.38369e-06
-2.60851e-06
4.90516e-06
-2.52173e-06
7.22446e-06
-2.31964e-06
9.15615e-06
-1.93196e-06
1.06367e-05
-1.48082e-06
1.17148e-05
-1.07847e-06
1.22891e-05
-5.74457e-07
1.24002e-05
-1.11137e-07
1.21111e-05
2.89392e-07
1.15209e-05
5.90648e-07
1.06911e-05
8.30129e-07
9.43955e-06
1.25191e-06
7.68695e-06
1.75286e-06
5.42504e-06
2.26211e-06
2.42435e-06
3.00089e-06
-1.28246e-06
3.70704e-06
-5.93241e-06
4.6501e-06
-1.15803e-05
5.64783e-06
-1.82585e-05
6.67811e-06
-2.59435e-05
7.68513e-06
-3.45649e-05
8.62217e-06
-4.39908e-05
9.42708e-06
-5.40029e-05
1.0013e-05
-6.43013e-05
1.02985e-05
-7.45553e-05
1.02534e-05
-8.43534e-05
9.79718e-06
-9.32809e-05
8.92749e-06
-0.000100899
7.61898e-06
-0.000106804
5.9064e-06
-0.000110568
3.76491e-06
-0.000111806
1.23748e-06
-0.000110471
-1.33626e-06
-0.000106307
-4.16423e-06
-9.92545e-05
-7.05207e-06
-8.93753e-05
-9.88044e-06
-7.68331e-05
-1.25438e-05
-6.18963e-05
-1.49366e-05
-4.49079e-05
-1.69871e-05
-2.63152e-05
-1.85922e-05
-8.06986e-06
-1.82443e-05
-8.06736e-06
1.66436e-05
-2.47413e-05
4.77947e-05
-4.96167e-05
7.89971e-05
-5.00153e-05
0.000107934
-4.61158e-05
0.000134258
-4.14205e-05
0.000157613
-3.60227e-05
0.000177669
-3.00135e-05
0.000194198
-2.35985e-05
0.000207068
-1.69907e-05
0.000216301
-1.04616e-05
0.000221935
-4.21082e-06
0.000224231
1.72563e-06
0.000223562
6.88144e-06
0.000220235
1.1316e-05
0.000214701
1.48763e-05
0.000207374
1.75727e-05
0.000198686
1.93972e-05
0.000189052
2.03815e-05
0.000178857
2.06247e-05
0.000168416
2.02356e-05
0.000157995
1.93424e-05
0.000147799
1.8091e-05
0.000137962
1.66152e-05
0.000128545
1.50421e-05
0.000119559
1.34824e-05
0.000111022
1.20351e-05
0.000102862
1.07395e-05
9.50044e-05
9.63715e-06
8.74219e-05
8.75188e-06
7.99703e-05
8.022e-06
7.26165e-05
7.46279e-06
6.53728e-05
7.05065e-06
5.80688e-05
6.72009e-06
5.06803e-05
6.49911e-06
4.31025e-05
6.30624e-06
3.53758e-05
6.06412e-06
2.74168e-05
5.97826e-06
1.92355e-05
5.86807e-06
1.08974e-05
5.81534e-06
2.44318e-06
5.84442e-06
-6.12519e-06
6.04529e-06
-1.474e-05
6.29442e-06
-2.3355e-05
6.68287e-06
-3.19074e-05
7.07188e-06
-4.04013e-05
7.41603e-06
-4.87946e-05
7.81943e-06
-5.70168e-05
8.11166e-06
-6.51129e-05
8.38625e-06
-7.31876e-05
8.66594e-06
-8.13245e-05
8.96747e-06
-8.9456e-05
9.38341e-06
-9.76176e-05
9.91438e-06
-0.000105928
1.05723e-05
-0.000114355
1.14278e-05
-0.000123077
1.24292e-05
-0.000132043
1.36157e-05
-0.00014131
1.49148e-05
-0.000150871
1.62395e-05
-0.000160682
1.74975e-05
-0.00017063
1.8571e-05
-0.00018054
1.93382e-05
-0.000190169
1.96421e-05
-0.000199231
1.93601e-05
-0.000207355
1.83758e-05
-0.000214154
1.65969e-05
-0.000219222
1.39981e-05
-0.000222141
1.05402e-05
-0.000222507
6.27242e-06
-0.000219961
1.21712e-06
-0.000214204
-4.52055e-06
-0.000204932
-1.0609e-05
-0.000192104
-1.69911e-05
-0.000175707
-2.34501e-05
-0.000155848
-2.97422e-05
-0.000132745
-3.5645e-05
-0.000106727
-4.09523e-05
-7.81358e-05
-4.5578e-05
-4.73071e-05
-4.94202e-05
-1.65022e-05
-4.90456e-05
-2.45724e-05
1.86578e-05
-4.34001e-05
5.19748e-05
-8.29341e-05
8.52843e-05
-8.33254e-05
0.000116214
-7.70463e-05
0.000144372
-6.95791e-05
0.000169402
-6.10526e-05
0.000190936
-5.1548e-05
0.000208731
-4.13922e-05
0.000222692
-3.09519e-05
0.000232818
-2.05872e-05
0.000239242
-1.06347e-05
0.000242279
-1.31166e-06
0.000242123
7.03829e-06
0.00023938
1.40594e-05
0.000234427
1.98288e-05
0.000227741
2.42597e-05
0.000219745
2.73923e-05
0.000210909
2.92166e-05
0.000201581
2.99507e-05
0.000192092
2.97236e-05
0.000182671
2.87621e-05
0.000173483
2.72786e-05
0.000164618
2.54818e-05
0.000156086
2.35732e-05
0.000147851
2.17162e-05
0.000139841
2.00454e-05
0.000131933
1.86491e-05
0.00012402
1.75512e-05
0.000115983
1.6786e-05
0.000107705
1.63009e-05
9.91176e-05
1.6054e-05
9.01695e-05
1.59981e-05
8.07914e-05
1.60951e-05
7.09724e-05
1.63173e-05
6.06709e-05
1.66086e-05
4.98516e-05
1.6883e-05
3.86454e-05
1.71828e-05
2.70396e-05
1.74722e-05
1.50543e-05
1.78001e-05
2.80378e-06
1.80949e-05
-9.52264e-06
1.83716e-05
-2.1912e-05
1.86834e-05
-3.40778e-05
1.88484e-05
-4.59917e-05
1.89856e-05
-5.76347e-05
1.90588e-05
-6.88468e-05
1.90313e-05
-7.96142e-05
1.88792e-05
-8.9918e-05
1.86903e-05
-9.97711e-05
1.85191e-05
-0.000109207
1.84031e-05
-0.00011823
1.84052e-05
-0.00012688
1.85637e-05
-0.000135255
1.89471e-05
-0.000143448
1.96205e-05
-0.000151595
2.05768e-05
-0.000159793
2.18132e-05
-0.00016814
2.32613e-05
-0.000176677
2.47762e-05
-0.00018542
2.62412e-05
-0.000194313
2.74641e-05
-0.000203208
2.82338e-05
-0.000211929
2.83627e-05
-0.00022014
2.75712e-05
-0.000227519
2.57558e-05
-0.000233639
2.27181e-05
-0.000238109
1.847e-05
-0.000240426
1.2858e-05
-0.00024025
6.09456e-06
-0.000236999
-2.03586e-06
-0.000230452
-1.10669e-05
-0.0002203
-2.07588e-05
-0.000206414
-3.08766e-05
-0.000188772
-4.10925e-05
-0.000167463
-5.10507e-05
-0.000142728
-6.03792e-05
-0.000114905
-6.87769e-05
-8.43471e-05
-7.61388e-05
-5.14271e-05
-8.234e-05
-1.84881e-05
-8.19866e-05
-4.30624e-05
2.03286e-05
-6.37294e-05
5.56491e-05
-0.000118254
9.08282e-05
-0.000118505
0.000123394
-0.000109613
0.000152916
-9.9101e-05
0.000178968
-8.71041e-05
0.000201176
-7.37552e-05
0.000219296
-5.95116e-05
0.000233224
-4.488e-05
0.000243
-3.03622e-05
0.000248797
-1.64304e-05
0.000250943
-3.45761e-06
0.000249706
8.27583e-06
0.000245695
1.80706e-05
0.000239486
2.60368e-05
0.000231535
3.22092e-05
0.000222413
3.6513e-05
0.000212555
3.90741e-05
0.000202437
4.00681e-05
0.000192351
3.98113e-05
0.000182594
3.85198e-05
0.000173304
3.65689e-05
0.000164536
3.42501e-05
0.00015627
3.18403e-05
0.000148421
2.95666e-05
0.000140852
2.76123e-05
0.000133413
2.60861e-05
0.000125933
2.50355e-05
0.000118251
2.44671e-05
0.000110233
2.43149e-05
0.00010177
2.4514e-05
9.27909e-05
2.49769e-05
8.32433e-05
2.56431e-05
7.31475e-05
2.64137e-05
6.25031e-05
2.72531e-05
5.13658e-05
2.80201e-05
3.98531e-05
2.86952e-05
2.78428e-05
2.94819e-05
1.55679e-05
3.00738e-05
3.09007e-06
3.05711e-05
-9.53173e-06
3.09918e-05
-2.2126e-05
3.12763e-05
-3.46735e-05
3.13946e-05
-4.70058e-05
3.13171e-05
-5.90905e-05
3.11433e-05
-7.07817e-05
3.07229e-05
-8.19643e-05
3.00622e-05
-9.25747e-05
2.93007e-05
-0.00010258
2.85244e-05
-0.000111991
2.78139e-05
-0.000120829
2.72426e-05
-0.000129179
2.69129e-05
-0.000137166
2.6934e-05
-0.00014492
2.73752e-05
-0.000152626
2.82827e-05
-0.000160431
2.96174e-05
-0.000168461
3.12912e-05
-0.000176855
3.31692e-05
-0.000185648
3.50338e-05
-0.00019481
3.66255e-05
-0.000204224
3.76486e-05
-0.000213637
3.77763e-05
-0.000222797
3.67312e-05
-0.000231256
3.42157e-05
-0.000238595
3.00579e-05
-0.000244243
2.41178e-05
-0.000247787
1.64012e-05
-0.000248626
6.93282e-06
-0.00024628
-4.38177e-06
-0.000240368
-1.69757e-05
-0.000230585
-3.05398e-05
-0.000216752
-4.471e-05
-0.00019882
-5.90251e-05
-0.000176877
-7.29928e-05
-0.000151144
-8.61137e-05
-0.000121994
-9.79293e-05
-8.98277e-05
-0.000108306
-5.50724e-05
-0.000117096
-2.0159e-05
-0.0001169
-6.32177e-05
2.25568e-05
-8.62862e-05
6.07614e-05
-0.000156458
9.86264e-05
-0.000156369
0.000133499
-0.000144484
0.000164881
-0.000130483
0.00019233
-0.000114552
0.000215434
-9.6859e-05
0.000233942
-7.80188e-05
0.000247746
-5.86838e-05
0.000256931
-3.95473e-05
0.000261717
-2.12156e-05
0.000262447
-4.18657e-06
0.000259583
1.11392e-05
0.000253807
2.38461e-05
0.000245681
3.41608e-05
0.000235849
4.20409e-05
0.000224955
4.74084e-05
0.000213521
5.05096e-05
0.000202092
5.14981e-05
0.000191037
5.08666e-05
0.000180566
4.89918e-05
0.000170889
4.62456e-05
0.000162015
4.3124e-05
0.000153866
3.99865e-05
0.000146322
3.71128e-05
0.000139185
3.47507e-05
0.00013223
3.30361e-05
0.000125232
3.20299e-05
0.000118025
3.16732e-05
0.000110411
3.19306e-05
0.000102269
3.26587e-05
9.35068e-05
3.37393e-05
8.40825e-05
3.50655e-05
7.40847e-05
3.64098e-05
6.34549e-05
3.78812e-05
5.21469e-05
3.9326e-05
4.04302e-05
4.04105e-05
2.84194e-05
4.14927e-05
1.60724e-05
4.2422e-05
3.52353e-06
4.31215e-05
-9.15631e-06
4.36725e-05
-2.19297e-05
4.40502e-05
-3.47218e-05
4.41871e-05
-4.73438e-05
4.39395e-05
-5.96769e-05
4.34764e-05
-7.14655e-05
4.25113e-05
-8.27315e-05
4.13275e-05
-9.33673e-05
3.99357e-05
-0.000103299
3.84554e-05
-0.00011252
3.70331e-05
-0.000121067
3.57878e-05
-0.000129036
3.48814e-05
-0.000136587
3.44852e-05
-0.000143886
3.4674e-05
-0.00015115
3.55466e-05
-0.000158606
3.70725e-05
-0.000166488
3.91726e-05
-0.000174914
4.15941e-05
-0.00018401
4.41285e-05
-0.000193762
4.63781e-05
-0.00020406
4.79472e-05
-0.000214686
4.8402e-05
-0.000225298
4.7343e-05
-0.000235426
4.43441e-05
-0.000244567
3.91996e-05
-0.000252072
3.16234e-05
-0.000257346
2.16751e-05
-0.000259823
9.40935e-06
-0.000258847
-5.35601e-06
-0.000253946
-2.18749e-05
-0.00024477
-3.97151e-05
-0.000231092
-5.83901e-05
-0.000212812
-7.7305e-05
-0.000190012
-9.57929e-05
-0.00016294
-0.000113187
-0.00013197
-0.000128898
-9.75474e-05
-0.000142726
-6.01533e-05
-0.000154489
-2.23824e-05
-0.000154669
-8.55997e-05
2.54806e-05
-0.000111766
6.75551e-05
-0.000198532
0.000109015
-0.000197829
0.000146947
-0.000182416
0.000180818
-0.000164354
0.000210112
-0.000143846
0.000234391
-0.000121137
0.000253371
-9.69991e-05
0.000266991
-7.23038e-05
0.000275367
-4.79233e-05
0.000278778
-2.46271e-05
0.00027763
-3.0397e-06
0.000272623
1.61455e-05
0.00026438
3.20885e-05
0.00025376
4.4782e-05
0.00024143
5.43716e-05
0.000228222
6.06163e-05
0.000214828
6.39021e-05
0.000201731
6.45941e-05
0.000189417
6.31792e-05
0.000178175
6.02323e-05
0.000168087
5.63353e-05
0.000159183
5.203e-05
0.000151331
4.78367e-05
0.000144291
4.41516e-05
0.000137805
4.12373e-05
0.000131561
3.92851e-05
0.000125306
3.82888e-05
0.000118739
3.82387e-05
0.000111668
3.89982e-05
0.000103966
4.03581e-05
9.55191e-05
4.21838e-05
8.6384e-05
4.41992e-05
7.6314e-05
4.64799e-05
6.54134e-05
4.87821e-05
5.39773e-05
5.0762e-05
4.20405e-05
5.23469e-05
2.96559e-05
5.38767e-05
1.69803e-05
5.50971e-05
4.07664e-06
5.60249e-05
-8.98598e-06
5.67349e-05
-2.2182e-05
5.7246e-05
-3.54214e-05
5.7426e-05
-4.84528e-05
5.69703e-05
-6.11751e-05
5.61981e-05
-7.3436e-05
5.47713e-05
-8.48897e-05
5.27803e-05
-9.54745e-05
5.05194e-05
-0.000105303
4.82823e-05
-0.000114262
4.59908e-05
-0.000122391
4.39166e-05
-0.000129829
4.23182e-05
-0.000136709
4.13662e-05
-0.000143331
4.12957e-05
-0.000149937
4.21527e-05
-0.000156857
4.39909e-05
-0.00016435
4.66649e-05
-0.000172713
4.99558e-05
-0.000182079
5.34943e-05
-0.000192502
5.68013e-05
-0.000203897
5.93432e-05
-0.000216047
6.05508e-05
-0.000228508
5.98043e-05
-0.000240852
5.66874e-05
-0.000252318
5.0667e-05
-0.000262255
4.15616e-05
-0.00026988
2.93005e-05
-0.000274582
1.41127e-05
-0.000275441
-4.49596e-06
-0.000271911
-2.54057e-05
-0.000263568
-4.80617e-05
-0.000250117
-7.18424e-05
-0.000231416
-9.6005e-05
-0.000207518
-0.00011969
-0.000178666
-0.00014204
-0.000145278
-0.000162284
-0.000107858
-0.000180146
-6.69187e-05
-0.000195431
-2.53154e-05
-0.000196271
-0.00011092
2.92489e-05
-0.000141014
7.63406e-05
-0.000245624
0.000122438
-0.000243927
0.000164303
-0.000224281
0.000201323
-0.000201374
0.000232937
-0.00017546
0.00025866
-0.00014686
0.000278203
-0.000116544
0.000291535
-8.56377e-05
0.000298813
-5.52022e-05
0.000300413
-2.62288e-05
0.000296777
5.94438e-07
0.000288908
2.4015e-05
0.000277485
4.35095e-05
0.000263565
5.8701e-05
0.000248093
6.9843e-05
0.00023192
7.67886e-05
0.000215945
7.98766e-05
0.000200773
7.97673e-05
0.000186965
7.69884e-05
0.00017479
7.24079e-05
0.000164356
6.67687e-05
0.000155563
6.08252e-05
0.000148218
5.51856e-05
0.000141992
5.0382e-05
0.000136479
4.67473e-05
0.000131296
4.44672e-05
0.000126026
4.35563e-05
0.000120352
4.39087e-05
0.000114033
4.53171e-05
0.000106902
4.749e-05
9.8939e-05
5.01468e-05
8.97343e-05
5.34032e-05
7.9699e-05
5.65146e-05
6.85335e-05
5.99467e-05
5.67496e-05
6.25451e-05
4.43335e-05
6.47625e-05
3.14795e-05
6.67305e-05
1.83473e-05
6.82291e-05
4.82294e-06
6.95489e-05
-8.84704e-06
7.04044e-05
-2.26778e-05
7.10762e-05
-3.6514e-05
7.12618e-05
-5.02802e-05
7.07361e-05
-6.36061e-05
6.95241e-05
-7.63439e-05
6.75093e-05
-8.81785e-05
6.46148e-05
-9.91148e-05
6.14552e-05
-0.00010864
5.78063e-05
-0.000117247
5.45974e-05
-0.000124816
5.14855e-05
-0.000131467
4.89694e-05
-0.000137455
4.73544e-05
-0.000143052
4.68935e-05
-0.000148695
4.77955e-05
-0.000154736
5.00314e-05
-0.000161624
5.3552e-05
-0.000169724
5.80566e-05
-0.000179285
6.30559e-05
-0.000190451
6.79674e-05
-0.000203172
7.20635e-05
-0.000217225
7.46028e-05
-0.000232096
7.46756e-05
-0.000247182
7.17744e-05
-0.000261732
6.52186e-05
-0.000274848
5.46784e-05
-0.000285679
4.01321e-05
-0.000293026
2.14598e-05
-0.000296434
-1.09009e-06
-0.000294742
-2.71003e-05
-0.00028754
-5.52658e-05
-0.000274435
-8.49471e-05
-0.000255258
-0.00011518
-0.000230006
-0.000144944
-0.000198927
-0.000173119
-0.000162485
-0.000198726
-0.000121204
-0.000221432
-7.56787e-05
-0.000240956
-2.90994e-05
-0.000242852
-0.000140019
3.40165e-05
-0.00017503
8.75016e-05
-0.00029911
0.000139477
-0.000295904
0.000186285
-0.000271089
0.000227223
-0.000242312
0.000261672
-0.00020991
0.000289115
-0.000174305
0.000309289
-0.000136719
0.000322167
-9.85179e-05
0.000327977
-6.10155e-05
0.000327201
-2.5454e-05
0.000320339
7.45479e-06
0.000308731
3.56229e-05
0.000293311
5.89306e-05
0.000275113
7.68986e-05
0.000255496
8.94596e-05
0.000235585
9.66995e-05
0.000216357
9.91041e-05
0.000198688
9.74361e-05
0.000183084
9.25953e-05
0.000169888
8.5607e-05
0.000159166
7.74931e-05
0.000150748
6.92416e-05
0.000144233
6.16961e-05
0.000139196
5.54192e-05
0.000135087
5.0852e-05
0.000131341
4.82143e-05
0.000127443
4.74555e-05
0.000122971
4.83802e-05
0.000117613
5.06752e-05
0.000111276
5.3826e-05
0.000103426
5.7997e-05
9.43758e-05
6.24538e-05
8.40064e-05
6.6885e-05
7.28039e-05
7.11503e-05
6.05351e-05
7.48149e-05
4.74955e-05
7.78037e-05
3.39864e-05
8.02419e-05
1.99499e-05
8.22681e-05
5.92662e-06
8.35742e-05
-8.5328e-06
8.4865e-05
-2.32894e-05
8.58333e-05
-3.81484e-05
8.61211e-05
-5.28543e-05
8.54422e-05
-6.69498e-05
8.36198e-05
-8.03374e-05
8.08968e-05
-9.26712e-05
7.69481e-05
-0.000103729
7.25118e-05
-0.000113607
6.76842e-05
-0.000121638
6.26284e-05
-0.000128449
5.8296e-05
-0.000134079
5.4601e-05
-0.000138803
5.20793e-05
-0.000143012
5.11024e-05
-0.000147197
5.19803e-05
-0.000151964
5.47992e-05
-0.000157877
5.94654e-05
-0.000165435
6.56151e-05
-0.000175083
7.27045e-05
-0.000187035
7.9919e-05
-0.000201342
8.637e-05
-0.000217627
9.08869e-05
-0.000235533
9.25826e-05
-0.000254214
9.0457e-05
-0.000272725
8.37305e-05
-0.00028995
7.19022e-05
-0.000304666
5.48474e-05
-0.000315759
3.25517e-05
-0.000322495
5.64496e-06
-0.000323114
-2.64817e-05
-0.000317422
-6.0957e-05
-0.000304866
-9.75003e-05
-0.000285179
-0.000134869
-0.000258329
-0.000171797
-0.000224552
-0.000206895
-0.000184299
-0.00023898
-0.000138166
-0.000267564
-8.6838e-05
-0.000292281
-3.38811e-05
-0.00029581
-0.000173898
3.9997e-05
-0.000215028
0.000101552
-0.000360667
0.000160931
-0.000355284
0.000213858
-0.000324017
0.000259579
-0.000288033
0.00029744
-0.000247772
0.000326904
-0.000203771
0.000347724
-0.000157542
0.000359916
-0.000110711
0.000363794
-6.48935e-05
0.000359914
-2.15751e-05
0.000349138
1.82316e-05
0.000332543
5.22168e-05
0.000311843
7.96294e-05
0.000288245
0.000100495
0.000263382
0.000114322
0.000238704
0.000121379
0.000215472
0.000122339
0.000194725
0.000118185
0.000177079
0.000110241
0.0001628
9.9884e-05
0.000151955
8.83374e-05
0.000144203
7.6994e-05
0.000139061
6.68359e-05
0.000135802
5.86798e-05
0.000133636
5.30181e-05
0.000131861
4.99904e-05
0.000129794
4.95224e-05
0.000126881
5.12947e-05
0.000122975
5.45825e-05
0.000117179
5.96232e-05
0.000109808
6.53685e-05
0.000100829
7.14325e-05
9.01783e-05
7.75363e-05
7.84054e-05
8.29241e-05
6.55345e-05
8.76872e-05
5.16463e-05
9.16938e-05
3.71197e-05
9.47704e-05
2.22822e-05
9.7107e-05
7.22499e-06
9.86321e-05
-8.1928e-06
0.000100283
-2.39248e-05
0.000101565
-4.01638e-05
0.00010236
-5.60054e-05
0.000101284
-7.15781e-05
9.91928e-05
-8.58454e-05
9.51641e-05
-9.91827e-05
9.02853e-05
-0.000110677
8.40063e-05
-0.00012015
7.71573e-05
-0.000128004
7.04824e-05
-0.000133669
6.39619e-05
-0.000137932
5.88658e-05
-0.000140925
5.50723e-05
-0.000143213
5.33919e-05
-0.00014541
5.41775e-05
-0.000148301
5.76915e-05
-0.00015268
6.3845e-05
-0.000159322
7.22575e-05
-0.000168816
8.21983e-05
-0.000181564
9.26663e-05
-0.000197567
0.000102373
-0.000216694
0.000110014
-0.000238346
0.000114235
-0.000261561
0.000113672
-0.000285137
0.000107305
-0.000307675
9.44386e-05
-0.00032757
7.47429e-05
-0.0003435
4.84842e-05
-0.000353874
1.60202e-05
-0.000357825
-2.25299e-05
-0.000354205
-6.45752e-05
-0.00034248
-0.000109227
-0.000322298
-0.000155055
-0.000293612
-0.000200484
-0.000256574
-0.000243932
-0.000211698
-0.000283857
-0.000159555
-0.000319703
-0.000100893
-0.000350943
-3.98741e-05
-0.000356827
-0.00021377
4.74427e-05
-0.000262472
0.000119219
-0.000432445
0.00018785
-0.000423916
0.000248298
-0.000384466
0.000299765
-0.0003395
0.000341626
-0.000289634
0.000373397
-0.000235542
0.000394847
-0.000178992
0.00040607
-0.000121935
0.000407429
-6.62523e-05
0.000399502
-1.36503e-05
0.000383501
3.42316e-05
0.000361045
7.46715e-05
0.000333427
0.000107246
0.000302861
0.000131062
0.0002713
0.000145884
0.000240638
0.000152041
0.000212418
0.000150558
0.000187964
0.000142639
0.00016795
0.000130256
0.000152721
0.000115112
0.000142071
9.8987e-05
0.000135529
8.35379e-05
0.000132385
6.99831e-05
0.000131606
5.94559e-05
0.000132189
5.24371e-05
0.000133087
4.90941e-05
0.000133431
4.91781e-05
0.000132717
5.20097e-05
0.000130073
5.72271e-05
0.000125249
6.44464e-05
0.000118447
7.21708e-05
0.000109431
8.04495e-05
9.86858e-05
8.82834e-05
8.56724e-05
9.59392e-05
7.13728e-05
0.000101988
5.63318e-05
0.000106736
4.07682e-05
0.000110335
2.49754e-05
0.0001129
9.04686e-06
0.000114561
-7.52686e-06
0.000116857
-2.48774e-05
0.000118917
-4.26293e-05
0.000120113
-6.0841e-05
0.000119496
-7.78616e-05
0.000116214
-9.39213e-05
0.000111224
-0.00010786
0.000104224
-0.000119913
9.60604e-05
-0.000129527
8.6772e-05
-0.000136489
7.74456e-05
-0.000141203
6.86761e-05
-0.000143463
6.11265e-05
-0.000144181
5.57913e-05
-0.000143812
5.30238e-05
-0.000143258
5.36241e-05
-0.000143483
5.79177e-05
-0.000145608
6.59708e-05
-0.000150739
7.73887e-05
-0.00015967
9.11295e-05
-0.000173022
0.000106018
-0.000191048
0.0001204
-0.000213518
0.000132484
-0.000239826
0.000140542
-0.000268722
0.000142565
-0.00029873
0.000137312
-0.000328014
0.000123722
-0.000354606
0.000101337
-0.000376515
7.03952e-05
-0.000392144
3.16482e-05
-0.000400131
-1.45445e-05
-0.000399145
-6.55617e-05
-0.000388559
-0.000119814
-0.000367973
-0.000175641
-0.000337194
-0.000231259
-0.000296406
-0.000284721
-0.000245969
-0.000334295
-0.000186461
-0.000379213
-0.000118588
-0.000418819
-4.73407e-05
-0.000428077
-0.000261112
5.67143e-05
-0.000319189
0.000141424
-0.000517156
0.000221635
-0.000504126
0.000291239
-0.000454071
0.000349493
-0.000397756
0.000395961
-0.000336102
0.000430276
-0.000269858
0.000452306
-0.000201022
0.000462209
-0.000131839
0.000460402
-6.44464e-05
0.000447343
-5.92006e-07
0.000424985
5.65889e-05
0.000394393
0.000105263
0.00035812
0.000143519
0.000318666
0.000170517
0.000278573
0.000185977
0.000240337
0.000190278
0.000206125
0.000184769
0.00017725
0.000171514
0.000154636
0.00015287
0.000138512
0.000131239
0.000128558
0.000108944
0.000124071
8.80229e-05
0.000123864
7.01923e-05
0.000126656
5.66605e-05
0.000130934
4.81573e-05
0.000135359
4.46702e-05
0.00013894
4.55958e-05
0.000140702
5.02476e-05
0.000139792
5.81376e-05
0.000136651
6.75884e-05
0.000130359
7.8464e-05
0.000121394
8.94152e-05
0.000109232
0.000100446
9.58653e-05
0.000109307
8.04637e-05
0.000117391
6.34424e-05
0.000123759
4.57128e-05
0.000128066
2.85442e-05
0.00013007
1.13834e-05
0.000131723
-6.25427e-06
0.000134496
-2.57014e-05
0.000138364
-4.63005e-05
0.000140712
-6.65941e-05
0.00013979
-8.67935e-05
0.000136413
-0.000104421
0.000128851
-0.000120263
0.000120066
-0.000132482
0.000108281
-0.000142197
9.6488e-05
-0.000148217
8.34666e-05
-0.000151372
7.18309e-05
-0.000151309
6.10636e-05
-0.000149042
5.35241e-05
-0.00014518
4.91623e-05
-0.000140802
4.92476e-05
-0.000137295
5.44109e-05
-0.000136164
6.48404e-05
-0.000138825
8.00503e-05
-0.000146616
9.89205e-05
-0.000160387
0.00011979
-0.000180559
0.000140571
-0.00020702
0.000158944
-0.000238907
0.000172426
-0.000275015
0.00017867
-0.000313243
0.000175539
-0.000351178
0.000161658
-0.000386258
0.000136418
-0.000416123
0.000100259
-0.00043823
5.37528e-05
-0.00045143
-1.34383e-06
-0.000453781
-6.32099e-05
-0.000444754
-0.000128841
-0.000423838
-0.000196555
-0.000390834
-0.000264265
-0.000345742
-0.000329817
-0.000288823
-0.000391212
-0.000220346
-0.00044769
-0.000140964
-0.000498199
-5.66864e-05
-0.00051235
-0.000317799
6.82397e-05
-0.000387429
0.000169492
-0.000618408
0.000264207
-0.000598842
0.000344828
-0.000534692
0.000410916
-0.000463845
0.000462519
-0.000387706
0.000499523
-0.000306862
0.000521993
-0.000223492
0.000530169
-0.000140013
0.00052458
-5.88573e-05
0.000504795
1.91924e-05
0.000474229
8.71548e-05
0.000434012
0.00014548
0.00038644
0.000191092
0.000335419
0.000221538
0.000284389
0.000237006
0.000236625
0.000238041
0.000194909
0.000226486
0.000160922
0.000205503
0.000135512
0.000178282
0.000118864
0.000147885
0.000110384
0.000117423
0.000108985
8.94192e-05
0.000113108
6.60688e-05
0.00012082
4.89479e-05
0.00013016
3.88178e-05
0.000139262
3.55669e-05
0.000147012
3.78463e-05
0.000152102
4.51581e-05
0.000153946
5.62934e-05
0.000151943
6.95904e-05
0.000146665
8.3742e-05
0.000137027
9.90526e-05
0.000125093
0.00011238
0.000109589
0.000124812
9.15819e-05
0.000135397
7.20234e-05
0.000143317
5.22609e-05
0.000147829
3.29129e-05
0.000149419
1.45539e-05
0.000150083
-4.93677e-06
0.000153987
-2.68076e-05
0.000160235
-5.08672e-05
0.000164771
-7.55104e-05
0.000164433
-9.87362e-05
0.000159638
-0.000119583
0.000149698
-0.000136309
0.000136793
-0.000150318
0.000122291
-0.000158701
0.000104872
-0.000164197
8.89619e-05
-0.000165115
7.2749e-05
-0.000162512
5.84594e-05
-0.000156152
4.71646e-05
-0.000147707
4.07173e-05
-0.000138249
3.97906e-05
-0.000129554
4.57161e-05
-0.000123661
5.89466e-05
-0.000122679
7.90694e-05
-0.000128399
0.00010464
-0.000142112
0.000133504
-0.000164495
0.000162953
-0.00019552
0.000189967
-0.000234433
0.000211339
-0.000279607
0.000223844
-0.000328378
0.000224311
-0.000377526
0.000210807
-0.000423795
0.000182686
-0.000463225
0.000139686
-0.000493541
8.40682e-05
-0.000513605
1.87229e-05
-0.000519953
-5.6863e-05
-0.000512919
-0.000135878
-0.000491923
-0.000217552
-0.000456626
-0.000299563
-0.000406858
-0.000379585
-0.000342515
-0.000455554
-0.000263346
-0.000526858
-0.00016949
-0.000592061
-6.84493e-05
-0.000613394
-0.000386249
8.24469e-05
-0.000469876
0.000204924
-0.000740883
0.000317903
-0.000711821
0.000411516
-0.000628306
0.000486347
-0.000538677
0.000543375
-0.000444734
0.000583117
-0.000346604
0.000605849
-0.000246223
0.000611822
-0.000145987
0.000601332
-4.83682e-05
0.000574853
4.56706e-05
0.000533538
0.00012847
0.000480314
0.000198704
0.00041847
0.000252935
0.000352372
0.000287635
0.000287187
0.000302191
0.000227507
0.000297723
0.000176606
0.000277387
0.000136657
0.00024545
0.000108524
0.000206412
9.19662e-05
0.000164441
8.60922e-05
0.000123297
8.93507e-05
8.61637e-05
9.95894e-05
5.58288e-05
0.000114213
3.43239e-05
0.000130391
2.26411e-05
0.000145871
2.00876e-05
0.000158709
2.50088e-05
0.000167621
3.62472e-05
0.000172339
5.15758e-05
0.00017279
6.91398e-05
0.000167994
8.85374e-05
0.000159723
0.000107323
0.000146191
0.000125911
0.000128099
0.000142903
0.000106591
0.000156906
8.31451e-05
0.000166763
5.96082e-05
0.000171366
3.82876e-05
0.000170739
1.85487e-05
0.000169821
-2.13061e-06
0.000174666
-2.80258e-05
0.00018613
-5.73227e-05
0.000194067
-8.77623e-05
0.000194871
-0.00011591
0.000187786
-0.000140666
0.000174454
-0.000160265
0.000156392
-0.000173812
0.000135838
-0.000182429
0.000113489
-0.00018592
9.24515e-05
-0.000184239
7.10679e-05
-0.000177676
5.18957e-05
-0.000166438
3.59261e-05
-0.00015202
2.62985e-05
-0.00013579
2.35605e-05
-0.000119909
2.98355e-05
-0.000107291
4.63287e-05
-0.000100889
7.26677e-05
-0.000103211
0.000106962
-0.00011606
0.000146352
-0.000140517
0.00018741
-0.000176889
0.00022634
-0.000224404
0.000258855
-0.000280961
0.000280402
-0.000343407
0.000286757
-0.000407249
0.000274648
-0.000467543
0.000242979
-0.000519842
0.000191985
-0.000560973
0.000125201
-0.000587967
4.57163e-05
-0.000599509
-4.53249e-05
-0.000595058
-0.000140328
-0.000574238
-0.000238372
-0.000536735
-0.000337068
-0.00048213
-0.000434192
-0.000409718
-0.00052797
-0.000318016
-0.000618562
-0.000205957
-0.000704115
-8.32059e-05
-0.000736146
-0.000469455
9.9689e-05
-0.000569564
0.000250441
-0.000891635
0.000386585
-0.000847965
0.000495096
-0.000736817
0.000578988
-0.000622569
0.000641388
-0.000507135
0.000683675
-0.000388893
0.000706469
-0.000269018
0.000709994
-0.000149514
0.000694005
-3.23792e-05
0.000659279
8.03966e-05
0.000605736
0.000182011
0.00053569
0.000268748
0.000454692
0.000333931
0.000368805
0.000373524
0.000285264
0.000385732
0.000210356
0.000372629
0.000148532
0.00033921
0.000102053
0.000291926
7.14443e-05
0.000237022
5.60879e-05
0.0001798
5.44763e-05
0.000124908
6.46301e-05
7.60118e-05
8.38258e-05
3.66338e-05
0.000108249
9.903e-06
0.000133823
-2.93227e-06
0.000157463
-3.55259e-06
0.00017684
5.6319e-06
0.000191179
2.19086e-05
0.000199487
4.32668e-05
0.000201657
6.6968e-05
0.000199353
9.08407e-05
0.000191327
0.000115348
0.000177279
0.000139958
0.000156192
0.00016399
0.000129997
0.000183101
0.000101774
0.000194985
7.28547e-05
0.000200284
4.7422e-05
0.000196171
2.27088e-05
0.000194534
-3.14628e-06
0.00020052
-3.35926e-05
0.000216575
-6.95583e-05
0.000230032
-0.000107079
0.000232391
-0.000142202
0.000222909
-0.00017217
0.000204422
-0.00019392
0.000178142
-0.000207041
0.000148959
-0.000214775
0.000121222
-0.000216294
9.39702e-05
-0.000212539
6.73122e-05
-0.000201252
4.06086e-05
-0.000183676
1.835e-05
-0.000160957
3.57889e-06
-0.000135248
-2.14878e-06
-0.000109155
3.74341e-06
-8.66892e-05
2.38624e-05
-7.22515e-05
5.82296e-05
-6.92304e-05
0.00010394
-8.0045e-05
0.000157167
-0.000106172
0.000213538
-0.00014838
0.00026855
-0.000206121
0.000316596
-0.000277251
0.000351531
-0.000357391
0.000366897
-0.000440564
0.000357821
-0.000519624
0.00032204
-0.000588647
0.000261008
-0.000642068
0.000178621
-0.000677667
8.13151e-05
-0.000695105
-2.7887e-05
-0.000693524
-0.000141906
-0.000673153
-0.000258746
-0.000633756
-0.000376462
-0.000574664
-0.000493281
-0.000494178
-0.000608451
-0.000388498
-0.000724246
-0.000253481
-0.000839134
-0.000101615
-0.000888012
-0.000571071
0.000125194
-0.000694757
0.000319476
-0.00108592
0.000485384
-0.00101387
0.000608643
-0.000860077
0.000699799
-0.000713726
0.000766181
-0.000573518
0.000810151
-0.000432864
0.00083257
-0.000291437
0.000833685
-0.000150628
0.000812429
-1.11239e-05
0.000767392
0.000125431
0.000698081
0.00025132
0.000606829
0.000360001
0.000500181
0.000440579
0.000387495
0.000486209
0.00027961
0.000493616
0.000185403
0.000466836
0.000110848
0.000413767
5.7937e-05
0.000344839
2.60994e-05
0.00026886
1.41388e-05
0.000191759
1.94186e-05
0.00011963
3.99329e-05
5.54988e-05
7.24083e-05
4.15905e-06
0.000111197
-2.8885e-05
0.000149897
-4.1632e-05
0.000184055
-3.77105e-05
0.000211805
-2.21177e-05
0.000232131
1.5817e-06
0.000243779
3.16175e-05
0.000247492
6.3255e-05
0.000244284
9.40479e-05
0.000237778
0.000121853
0.000225172
0.000152564
0.000204947
0.000184215
0.000175991
0.000212056
0.000139449
0.000231526
0.000100937
0.000238795
6.37528e-05
0.000233354
2.70224e-05
0.000231264
-1.0699e-05
0.000238241
-5.24686e-05
0.000258344
-9.97101e-05
0.000277273
-0.0001479
0.000280581
-0.000190732
0.000265741
-0.000223127
0.000236816
-0.000244377
0.000199391
-0.000257066
0.000161648
-0.0002655
0.000129656
-0.000266787
9.52578e-05
-0.000259915
6.04403e-05
-0.000244047
2.47408e-05
-0.000217722
-7.97523e-06
-0.000184353
-2.97889e-05
-0.000145705
-4.07967e-05
-0.000104623
-3.73379e-05
-6.73405e-05
-1.34204e-05
-4.06796e-05
3.15674e-05
-2.91788e-05
9.24383e-05
-3.5735e-05
0.000163724
-6.21604e-05
0.000239965
-0.000109908
0.000316297
-0.000179673
0.00038636
-0.000269225
0.000441082
-0.000372904
0.000470578
-0.000482042
0.00046696
-0.000586351
0.000426346
-0.000676408
0.000351065
-0.000745811
0.000248027
-0.000791752
0.000127255
-0.000815077