/*--------------------------------*- C++ -*----------------------------------*\
| =========                 |                                                 |
| \\      /  F ield         | OpenFOAM: The Open Source CFD Toolbox           |
|  \\    /   O peration     | Version:  2412                                  |
|   \\  /    A nd           | Website:  www.openfoam.com                      |
|    \\/     M anipulation  |                                                 |
\*---------------------------------------------------------------------------*/
FoamFile
{
    version     2.0;
    format      ascii;
    arch        "LSB;label=32;scalar=64";
    class       volVectorField;
    location    "59";
    object      U;
}
// * * * * * * * * * * * * * * * * * * * * * * * * * * * * * * * * * * * * * //

dimensions      [0 1 -1 0 0 0 0];

internalField   nonuniform List<vector> 
6400
(
(-3.61093e-06 3.03817e-06 0)
(-9.08215e-06 3.44918e-06 0)
(-1.03155e-05 2.39286e-06 0)
(-7.748e-06 1.82368e-06 0)
(-1.76007e-06 1.43199e-06 0)
(5.84387e-06 1.291e-06 0)
(1.42789e-05 9.8072e-07 0)
(2.19276e-05 1.30652e-06 0)
(2.8074e-05 1.73726e-06 0)
(3.16296e-05 2.63123e-06 0)
(3.22453e-05 3.21914e-06 0)
(2.9125e-05 4.16718e-06 0)
(2.29441e-05 4.83967e-06 0)
(1.37758e-05 5.89697e-06 0)
(2.33025e-06 6.73293e-06 0)
(-1.19933e-05 7.80265e-06 0)
(-2.87384e-05 8.43948e-06 0)
(-4.77471e-05 9.16854e-06 0)
(-6.77698e-05 9.66079e-06 0)
(-8.85211e-05 1.03789e-05 0)
(-0.000109331 1.08528e-05 0)
(-0.00013028 1.12973e-05 0)
(-0.000150687 1.13802e-05 0)
(-0.000170359 1.14568e-05 0)
(-0.000188722 1.13956e-05 0)
(-0.000205944 1.14537e-05 0)
(-0.000221894 1.144e-05 0)
(-0.00023677 1.14933e-05 0)
(-0.000250302 1.14453e-05 0)
(-0.000262465 1.13905e-05 0)
(-0.000272885 1.11994e-05 0)
(-0.000281385 1.09817e-05 0)
(-0.000287592 1.07196e-05 0)
(-0.000291442 1.05527e-05 0)
(-0.000292861 1.04579e-05 0)
(-0.000292088 1.04716e-05 0)
(-0.000289374 1.05253e-05 0)
(-0.000285055 1.0617e-05 0)
(-0.000279305 1.06726e-05 0)
(-0.000272286 1.06896e-05 0)
(-0.000264019 1.0635e-05 0)
(-0.000254566 1.05621e-05 0)
(-0.000243962 1.04494e-05 0)
(-0.000232016 1.03231e-05 0)
(-0.000218593 1.02048e-05 0)
(-0.000203678 1.01827e-05 0)
(-0.000187412 1.02684e-05 0)
(-0.000170051 1.04899e-05 0)
(-0.000152014 1.07729e-05 0)
(-0.000133657 1.11029e-05 0)
(-0.000115314 1.13768e-05 0)
(-9.70796e-05 1.16317e-05 0)
(-7.90188e-05 1.18217e-05 0)
(-6.10137e-05 1.20722e-05 0)
(-4.31576e-05 1.23573e-05 0)
(-2.55637e-05 1.28363e-05 0)
(-8.69995e-06 1.33753e-05 0)
(7.09312e-06 1.4033e-05 0)
(2.13167e-05 1.45887e-05 0)
(3.38836e-05 1.5172e-05 0)
(4.4653e-05 1.55912e-05 0)
(5.38962e-05 1.60467e-05 0)
(6.15671e-05 1.63581e-05 0)
(6.78775e-05 1.6698e-05 0)
(7.26238e-05 1.68124e-05 0)
(7.61222e-05 1.69455e-05 0)
(7.84991e-05 1.69241e-05 0)
(8.01449e-05 1.69744e-05 0)
(8.10153e-05 1.69249e-05 0)
(8.12711e-05 1.68528e-05 0)
(8.07346e-05 1.65597e-05 0)
(7.97369e-05 1.62181e-05 0)
(7.82618e-05 1.58708e-05 0)
(7.6315e-05 1.56881e-05 0)
(7.32197e-05 1.56917e-05 0)
(6.84252e-05 1.59513e-05 0)
(6.10791e-05 1.64916e-05 0)
(5.02463e-05 1.73195e-05 0)
(3.46691e-05 1.77242e-05 0)
(1.28182e-05 1.16908e-05 0)
(-4.444e-06 6.0489e-06 0)
(-7.59244e-06 2.60981e-06 0)
(-9.12511e-07 -5.31968e-06 0)
(1.45209e-05 -1.27201e-05 0)
(3.64646e-05 -1.73824e-05 0)
(6.28105e-05 -2.01595e-05 0)
(9.02588e-05 -2.01912e-05 0)
(0.000116944 -1.86495e-05 0)
(0.000138963 -1.43014e-05 0)
(0.000155622 -9.20732e-06 0)
(0.000164223 -2.67344e-06 0)
(0.000165335 3.52471e-06 0)
(0.000157773 1.07247e-05 0)
(0.000143617 1.71722e-05 0)
(0.000122081 2.37596e-05 0)
(9.46046e-05 2.87916e-05 0)
(6.05142e-05 3.34515e-05 0)
(2.23907e-05 3.68998e-05 0)
(-1.94053e-05 4.05201e-05 0)
(-6.26223e-05 4.3359e-05 0)
(-0.000107583 4.60314e-05 0)
(-0.0001525 4.75281e-05 0)
(-0.000197399 4.86142e-05 0)
(-0.000240542 4.89628e-05 0)
(-0.00028211 4.94239e-05 0)
(-0.000321263 4.969e-05 0)
(-0.000358731 5.02438e-05 0)
(-0.000393937 5.0705e-05 0)
(-0.000427229 5.13273e-05 0)
(-0.000457828 5.17371e-05 0)
(-0.000485688 5.21338e-05 0)
(-0.000509966 5.23487e-05 0)
(-0.00053049 5.26684e-05 0)
(-0.000546735 5.30535e-05 0)
(-0.000559029 5.36527e-05 0)
(-0.000567473 5.42087e-05 0)
(-0.000572468 5.47392e-05 0)
(-0.00057446 5.50931e-05 0)
(-0.000573605 5.51432e-05 0)
(-0.00056997 5.49103e-05 0)
(-0.000563851 5.45539e-05 0)
(-0.000555216 5.39716e-05 0)
(-0.000543878 5.32082e-05 0)
(-0.000529589 5.23831e-05 0)
(-0.000512193 5.16194e-05 0)
(-0.000491635 5.09078e-05 0)
(-0.000468083 5.04123e-05 0)
(-0.000442135 5.00662e-05 0)
(-0.00041437 4.98457e-05 0)
(-0.000385519 4.95494e-05 0)
(-0.000355916 4.92298e-05 0)
(-0.000325953 4.87672e-05 0)
(-0.000295453 4.84242e-05 0)
(-0.000264578 4.81418e-05 0)
(-0.000233243 4.82805e-05 0)
(-0.000202177 4.86758e-05 0)
(-0.000171794 4.95131e-05 0)
(-0.000143201 5.02674e-05 0)
(-0.000116669 5.11245e-05 0)
(-9.28731e-05 5.16543e-05 0)
(-7.13916e-05 5.22286e-05 0)
(-5.24307e-05 5.23854e-05 0)
(-3.53751e-05 5.25074e-05 0)
(-2.06477e-05 5.19993e-05 0)
(-7.62187e-06 5.121e-05 0)
(3.61405e-06 4.96719e-05 0)
(1.4179e-05 4.79846e-05 0)
(2.39369e-05 4.58449e-05 0)
(3.35093e-05 4.3711e-05 0)
(4.2277e-05 4.12014e-05 0)
(5.08111e-05 3.87512e-05 0)
(5.88321e-05 3.64463e-05 0)
(6.68524e-05 3.48503e-05 0)
(7.38624e-05 3.40457e-05 0)
(7.91977e-05 3.43031e-05 0)
(8.10605e-05 3.57941e-05 0)
(7.81206e-05 3.85447e-05 0)
(6.7998e-05 4.25325e-05 0)
(4.87442e-05 4.53256e-05 0)
(1.86055e-05 3.15337e-05 0)
(-3.54628e-06 3.51956e-06 0)
(-1.4892e-07 -9.1011e-06 0)
(1.78706e-05 -2.82913e-05 0)
(4.73879e-05 -4.49013e-05 0)
(8.62614e-05 -5.70214e-05 0)
(0.000129261 -6.2329e-05 0)
(0.000174596 -6.29213e-05 0)
(0.000217114 -5.72516e-05 0)
(0.000254807 -4.81456e-05 0)
(0.00028273 -3.42689e-05 0)
(0.000301005 -1.94182e-05 0)
(0.000306707 -2.21765e-06 0)
(0.000302015 1.40358e-05 0)
(0.000285245 3.07738e-05 0)
(0.000259265 4.47783e-05 0)
(0.000222597 5.77491e-05 0)
(0.000178715 6.77656e-05 0)
(0.000127453 7.71026e-05 0)
(7.25049e-05 8.43257e-05 0)
(1.32297e-05 9.09491e-05 0)
(-4.7582e-05 9.53183e-05 0)
(-0.000110367 9.86537e-05 0)
(-0.000172129 0.000100178 0)
(-0.000233101 0.000101417 0)
(-0.000291157 0.000101929 0)
(-0.000347298 0.000102811 0)
(-0.000400582 0.000103537 0)
(-0.00045202 0.000104702 0)
(-0.000500585 0.00010569 0)
(-0.000546651 0.000106827 0)
(-0.000588944 0.000107675 0)
(-0.00062739 0.000108648 0)
(-0.00066104 0.000109546 0)
(-0.000690058 0.000110622 0)
(-0.000714201 0.000111591 0)
(-0.000734076 0.000112436 0)
(-0.000749632 0.000112832 0)
(-0.000761478 0.00011286 0)
(-0.000769522 0.000112236 0)
(-0.000773958 0.000111125 0)
(-0.000774894 0.000109701 0)
(-0.000772424 0.000108035 0)
(-0.000766012 0.000105918 0)
(-0.000755472 0.000103699 0)
(-0.000740701 0.000101417 0)
(-0.000721658 9.92106e-05 0)
(-0.000698667 9.70124e-05 0)
(-0.000672194 9.49427e-05 0)
(-0.000643146 9.28363e-05 0)
(-0.000612069 9.07786e-05 0)
(-0.000579618 8.85541e-05 0)
(-0.000545805 8.64901e-05 0)
(-0.000510898 8.45362e-05 0)
(-0.000474614 8.31215e-05 0)
(-0.000437633 8.20595e-05 0)
(-0.000400163 8.1857e-05 0)
(-0.000363595 8.19258e-05 0)
(-0.000328339 8.24097e-05 0)
(-0.000295691 8.25631e-05 0)
(-0.000265223 8.29734e-05 0)
(-0.000237569 8.28451e-05 0)
(-0.000211807 8.27373e-05 0)
(-0.000188537 8.17033e-05 0)
(-0.00016684 8.02409e-05 0)
(-0.000147235 7.73564e-05 0)
(-0.000128229 7.3807e-05 0)
(-0.000109941 6.89987e-05 0)
(-9.10559e-05 6.38096e-05 0)
(-7.24277e-05 5.77719e-05 0)
(-5.32404e-05 5.17524e-05 0)
(-3.42277e-05 4.58462e-05 0)
(-1.44318e-05 4.1162e-05 0)
(5.03167e-06 3.80159e-05 0)
(2.40336e-05 3.69285e-05 0)
(4.05589e-05 3.80989e-05 0)
(5.34303e-05 4.174e-05 0)
(5.98549e-05 4.77051e-05 0)
(5.79079e-05 5.59895e-05 0)
(4.47465e-05 6.36992e-05 0)
(1.80863e-05 4.70102e-05 0)
(-2.66498e-06 -4.14744e-06 0)
(7.46366e-06 -3.20333e-05 0)
(3.54859e-05 -6.47842e-05 0)
(7.84945e-05 -9.37107e-05 0)
(0.000130874 -0.000113096 0)
(0.000189091 -0.000123191 0)
(0.000247189 -0.00012183 0)
(0.000303514 -0.000112683 0)
(0.000351334 -9.41057e-05 0)
(0.000389744 -7.09143e-05 0)
(0.000413437 -4.2026e-05 0)
(0.000424378 -1.28473e-05 0)
(0.00041937 1.79761e-05 0)
(0.000401932 4.57145e-05 0)
(0.000369945 7.21915e-05 0)
(0.000327719 9.39122e-05 0)
(0.000274171 0.000113579 0)
(0.00021421 0.000128837 0)
(0.000146798 0.000142178 0)
(7.58993e-05 0.000151532 0)
(4.20684e-07 0.00015896 0)
(-7.56537e-05 0.000163237 0)
(-0.000152562 0.000166602 0)
(-0.000226763 0.000168405 0)
(-0.000299226 0.000170319 0)
(-0.000368174 0.000171608 0)
(-0.000435294 0.000173326 0)
(-0.000499305 0.000174663 0)
(-0.000561176 0.000176275 0)
(-0.000619377 0.000177537 0)
(-0.000674106 0.000178974 0)
(-0.000723796 0.000180205 0)
(-0.000768685 0.000181664 0)
(-0.000807997 0.000182912 0)
(-0.000842404 0.000184056 0)
(-0.000871816 0.000184567 0)
(-0.000896668 0.000184402 0)
(-0.000916894 0.000183345 0)
(-0.000932765 0.000181509 0)
(-0.000944279 0.00017895 0)
(-0.000951524 0.000175882 0)
(-0.000954317 0.000172258 0)
(-0.000952277 0.000168234 0)
(-0.000945307 0.00016394 0)
(-0.000933074 0.000159459 0)
(-0.000915729 0.000154657 0)
(-0.000893533 0.000149904 0)
(-0.000867369 0.000145157 0)
(-0.000837792 0.000140474 0)
(-0.000805713 0.000135523 0)
(-0.000771258 0.000130712 0)
(-0.000734991 0.000126031 0)
(-0.000696567 0.000122075 0)
(-0.000656557 0.000118485 0)
(-0.000614901 0.000116063 0)
(-0.000573042 0.000114387 0)
(-0.000531325 0.000113696 0)
(-0.000491549 0.000112806 0)
(-0.000453693 0.000112331 0)
(-0.00041869 0.000111536 0)
(-0.000385496 0.000111021 0)
(-0.000354951 0.000109489 0)
(-0.000325899 0.000107564 0)
(-0.000299296 0.000103824 0)
(-0.000273499 9.90262e-05 0)
(-0.000248866 9.20766e-05 0)
(-0.000223366 8.40628e-05 0)
(-0.000197776 7.42749e-05 0)
(-0.000170794 6.39309e-05 0)
(-0.000143546 5.30534e-05 0)
(-0.000114672 4.32937e-05 0)
(-8.54282e-05 3.5335e-05 0)
(-5.54002e-05 3.03904e-05 0)
(-2.67313e-05 2.89304e-05 0)
(1.7508e-07 3.14135e-05 0)
(2.24033e-05 3.79778e-05 0)
(3.8212e-05 4.82301e-05 0)
(4.46048e-05 6.25662e-05 0)
(3.90628e-05 7.72587e-05 0)
(1.72034e-05 6.03058e-05 0)
(-1.78025e-06 -1.66238e-05 0)
(1.33291e-05 -6.42848e-05 0)
(5.03357e-05 -0.000114129 0)
(0.000103296 -0.000155035 0)
(0.000168059 -0.000184044 0)
(0.000236537 -0.000196365 0)
(0.000306376 -0.000194975 0)
(0.000370704 -0.000177979 0)
(0.000428266 -0.000151076 0)
(0.000471616 -0.000113066 0)
(0.000501395 -7.11896e-05 0)
(0.000512712 -2.45621e-05 0)
(0.000509401 1.98984e-05 0)
(0.000488193 6.40901e-05 0)
(0.000453943 0.000102601 0)
(0.000404418 0.000138036 0)
(0.000345495 0.000166443 0)
(0.000275755 0.000190926 0)
(0.000200506 0.000208783 0)
(0.000118022 0.000223162 0)
(3.31524e-05 0.000232499 0)
(-5.4993e-05 0.000239961 0)
(-0.000141507 0.000244592 0)
(-0.000227311 0.000248839 0)
(-0.000309318 0.00025161 0)
(-0.00038958 0.000254424 0)
(-0.000466335 0.000256224 0)
(-0.000541276 0.000258108 0)
(-0.000612525 0.000259331 0)
(-0.000680837 0.000260784 0)
(-0.000744268 0.000261914 0)
(-0.000803118 0.000263316 0)
(-0.000856053 0.000264443 0)
(-0.000903736 0.00026549 0)
(-0.000945742 0.000265857 0)
(-0.000982866 0.000265554 0)
(-0.00101476 0.000264052 0)
(-0.00104183 0.000261465 0)
(-0.00106373 0.000257701 0)
(-0.0010809 0.000253219 0)
(-0.00109297 0.000247766 0)
(-0.00109973 0.000241476 0)
(-0.00110107 0.000234656 0)
(-0.00109682 0.000227646 0)
(-0.00108681 0.000220275 0)
(-0.0010708 0.000212433 0)
(-0.00104951 0.000204307 0)
(-0.00102347 0.000196216 0)
(-0.000993776 0.000187913 0)
(-0.000960773 0.000179634 0)
(-0.000925281 0.000171399 0)
(-0.000886917 0.000164057 0)
(-0.000846332 0.000157265 0)
(-0.000803109 0.000151628 0)
(-0.000758449 0.000146995 0)
(-0.000712681 0.000143977 0)
(-0.000667871 0.000141306 0)
(-0.000624172 0.000139315 0)
(-0.00058326 0.000137034 0)
(-0.000544023 0.000135542 0)
(-0.000507538 0.000133225 0)
(-0.00047245 0.000130794 0)
(-0.00044006 0.000126477 0)
(-0.000408734 0.000121027 0)
(-0.000379304 0.000112814 0)
(-0.000349321 0.000102954 0)
(-0.000319461 9.03195e-05 0)
(-0.000287711 7.62782e-05 0)
(-0.000255359 6.05077e-05 0)
(-0.000220623 4.49365e-05 0)
(-0.000184839 3.04424e-05 0)
(-0.00014691 1.90049e-05 0)
(-0.000109175 1.17432e-05 0)
(-7.16045e-05 9.87781e-06 0)
(-3.68742e-05 1.41607e-05 0)
(-5.97773e-06 2.43738e-05 0)
(1.761e-05 4.05159e-05 0)
(3.24373e-05 6.25861e-05 0)
(3.37745e-05 8.6292e-05 0)
(1.64733e-05 7.13094e-05 0)
(-1.20602e-06 -3.29138e-05 0)
(1.80625e-05 -0.000105228 0)
(6.0833e-05 -0.000172888 0)
(0.000122592 -0.000228453 0)
(0.00019475 -0.000264553 0)
(0.000272952 -0.000281507 0)
(0.000348779 -0.00027564 0)
(0.000421276 -0.000253059 0)
(0.000482364 -0.0002124 0)
(0.000531731 -0.000162273 0)
(0.000561936 -0.000102034 0)
(0.000576163 -4.05647e-05 0)
(0.000570114 2.33352e-05 0)
(0.000549183 8.19889e-05 0)
(0.000509644 0.000137722 0)
(0.000457701 0.000184566 0)
(0.000391225 0.000225689 0)
(0.000317074 0.000257171 0)
(0.000233066 0.000283041 0)
(0.000145046 0.000301144 0)
(5.12929e-05 0.000315652 0)
(-4.23588e-05 0.000325304 0)
(-0.000137213 0.000333491 0)
(-0.000228725 0.000338902 0)
(-0.000319136 0.000343712 0)
(-0.000405731 0.000346571 0)
(-0.000490826 0.000349054 0)
(-0.000572085 0.000350252 0)
(-0.00065087 0.000351507 0)
(-0.000724888 0.000352185 0)
(-0.000794933 0.000353177 0)
(-0.000859174 0.000353817 0)
(-0.000918277 0.000354467 0)
(-0.000971341 0.000354395 0)
(-0.0010194 0.000353735 0)
(-0.00106179 0.000351713 0)
(-0.00109904 0.000348409 0)
(-0.00113076 0.000343571 0)
(-0.00115726 0.000337496 0)
(-0.00117828 0.000330199 0)
(-0.00119384 0.000321823 0)
(-0.00120359 0.000312304 0)
(-0.0012076 0.00030233 0)
(-0.00120554 0.000291728 0)
(-0.0011971 0.000280646 0)
(-0.00118248 0.0002689 0)
(-0.00116206 0.000256978 0)
(-0.0011368 0.000244876 0)
(-0.00110719 0.000232999 0)
(-0.00107434 0.000220878 0)
(-0.00103813 0.000209257 0)
(-0.000999191 0.000198386 0)
(-0.000956962 0.000188821 0)
(-0.000912622 0.000180015 0)
(-0.00086582 0.000173357 0)
(-0.000818563 0.000167865 0)
(-0.000771233 0.000163707 0)
(-0.000726183 0.000159348 0)
(-0.000682563 0.000156028 0)
(-0.000641765 0.000152272 0)
(-0.000602193 0.00014889 0)
(-0.000565392 0.000143856 0)
(-0.000529707 0.000137957 0)
(-0.000496554 0.000129093 0)
(-0.000463422 0.00011831 0)
(-0.000431112 0.000103988 0)
(-0.00039695 8.7526e-05 0)
(-0.000362233 6.80908e-05 0)
(-0.000324691 4.75622e-05 0)
(-0.000285728 2.65257e-05 0)
(-0.000243461 7.46565e-06 0)
(-0.000200096 -7.96261e-06 0)
(-0.000155033 -1.77227e-05 0)
(-0.000111189 -1.99242e-05 0)
(-6.88264e-05 -1.38173e-05 0)
(-3.13512e-05 1.12562e-06 0)
(-1.38032e-07 2.41421e-05 0)
(2.14872e-05 5.58116e-05 0)
(2.90154e-05 8.98528e-05 0)
(1.55588e-05 7.95589e-05 0)
(-6.28307e-07 -5.21774e-05 0)
(2.06475e-05 -0.000151268 0)
(6.81655e-05 -0.000239728 0)
(0.00013412 -0.000308161 0)
(0.000213009 -0.000353964 0)
(0.000295071 -0.000371175 0)
(0.000377298 -0.000363739 0)
(0.000451345 -0.000330105 0)
(0.000517031 -0.000279384 0)
(0.000565563 -0.000211428 0)
(0.000598843 -0.000136763 0)
(0.000610574 -5.45589e-05 0)
(0.000606225 2.51676e-05 0)
(0.000581116 0.000103816 0)
(0.000541435 0.000173035 0)
(0.000483589 0.000235771 0)
(0.000415524 0.000286365 0)
(0.000334889 0.000329239 0)
(0.000248828 0.000361235 0)
(0.000154632 0.000387254 0)
(5.90037e-05 0.000405344 0)
(-4.00409e-05 0.000419903 0)
(-0.000136764 0.000429502 0)
(-0.000233633 0.000437391 0)
(-0.00032676 0.000442145 0)
(-0.000418875 0.000445937 0)
(-0.000506939 0.000447623 0)
(-0.000593042 0.000449001 0)
(-0.000674444 0.000449312 0)
(-0.000752444 0.000449854 0)
(-0.000824854 0.000449858 0)
(-0.000892839 0.000449949 0)
(-0.000954635 0.000449218 0)
(-0.00101146 0.000448006 0)
(-0.00106249 0.00044545 0)
(-0.0011083 0.000441443 0)
(-0.00114831 0.000435612 0)
(-0.00118305 0.000428285 0)
(-0.00121205 0.000419306 0)
(-0.00123554 0.000408967 0)
(-0.0012532 0.000397135 0)
(-0.00126501 0.000384202 0)
(-0.00127082 0.000370493 0)
(-0.00127016 0.00035599 0)
(-0.001263 0.000340593 0)
(-0.00124941 0.000324646 0)
(-0.00123015 0.000308146 0)
(-0.00120569 0.00029181 0)
(-0.00117719 0.000275751 0)
(-0.0011447 0.000259883 0)
(-0.00110911 0.000244161 0)
(-0.00106983 0.00022992 0)
(-0.00102774 0.000216794 0)
(-0.00098259 0.000205313 0)
(-0.000936076 0.000195342 0)
(-0.0008879 0.00018782 0)
(-0.000840776 0.000180877 0)
(-0.000794595 0.000175134 0)
(-0.000751185 0.000169259 0)
(-0.000708863 0.000164304 0)
(-0.000669257 0.000158171 0)
(-0.000630573 0.000151703 0)
(-0.000594724 0.000142435 0)
(-0.000559367 0.000131313 0)
(-0.000525725 0.00011619 0)
(-0.000490694 9.84321e-05 0)
(-0.000455566 7.66948e-05 0)
(-0.000417639 5.27363e-05 0)
(-0.000378442 2.65234e-05 0)
(-0.000335358 4.6369e-07 0)
(-0.000290246 -2.36944e-05 0)
(-0.000241697 -4.32437e-05 0)
(-0.000192582 -5.53667e-05 0)
(-0.000142614 -5.81836e-05 0)
(-9.52956e-05 -4.95524e-05 0)
(-5.13038e-05 -3.00369e-05 0)
(-1.47067e-05 9.90248e-07 0)
(1.27435e-05 4.24423e-05 0)
(2.4331e-05 8.82426e-05 0)
(1.45603e-05 8.51647e-05 0)
(-4.82804e-07 -7.2784e-05 0)
(2.22765e-05 -0.00020097 0)
(7.08712e-05 -0.000308921 0)
(0.00014034 -0.000392802 0)
(0.000220385 -0.000444615 0)
(0.00030652 -0.000465527 0)
(0.000388352 -0.000451432 0)
(0.000465027 -0.000411124 0)
(0.000527896 -0.000344377 0)
(0.00057818 -0.00026325 0)
(0.000607948 -0.000167722 0)
(0.000621671 -6.97173e-05 0)
(0.000613363 3.15412e-05 0)
(0.000589405 0.00012498 0)
(0.000544749 0.00021268 0)
(0.000487538 0.000286811 0)
(0.00041478 0.00035173 0)
(0.000335068 0.000402755 0)
(0.000244964 0.000445303 0)
(0.000152001 0.000476366 0)
(5.32536e-05 0.000500943 0)
(-4.43601e-05 0.000517378 0)
(-0.000143807 0.000530182 0)
(-0.000239937 0.000537931 0)
(-0.000335824 0.0005439 0)
(-0.000427449 0.000546758 0)
(-0.000517575 0.00054887 0)
(-0.000603063 0.00054929 0)
(-0.000685945 0.000549674 0)
(-0.000763289 0.000548995 0)
(-0.000836699 0.000548435 0)
(-0.00090442 0.000547131 0)
(-0.000967416 0.000545132 0)
(-0.00102444 0.000541781 0)
(-0.00107654 0.000537182 0)
(-0.00112283 0.000530587 0)
(-0.00116406 0.000522361 0)
(-0.00119956 0.000512214 0)
(-0.00122967 0.000500412 0)
(-0.00125398 0.000486781 0)
(-0.00127263 0.000471582 0)
(-0.00128533 0.000454902 0)
(-0.00129193 0.0004373 0)
(-0.00129209 0.000418498 0)
(-0.00128568 0.00039882 0)
(-0.00127317 0.000378279 0)
(-0.00125487 0.000357499 0)
(-0.00123186 0.000336641 0)
(-0.00120429 0.000316344 0)
(-0.00117315 0.0002959 0)
(-0.0011382 0.000276322 0)
(-0.00110025 0.000257923 0)
(-0.00105845 0.00024191 0)
(-0.00101444 0.000227183 0)
(-0.000968146 0.000214603 0)
(-0.000921788 0.000203482 0)
(-0.000875036 0.000194715 0)
(-0.000830566 0.000186271 0)
(-0.000787095 0.000179201 0)
(-0.000746329 0.000171552 0)
(-0.000706232 0.000164311 0)
(-0.000668959 0.000154807 0)
(-0.000632337 0.000143864 0)
(-0.000598192 0.000128791 0)
(-0.000563309 0.000110795 0)
(-0.000529026 8.80007e-05 0)
(-0.000492199 6.20887e-05 0)
(-0.000454642 3.24081e-05 0)
(-0.000413424 1.12943e-06 0)
(-0.000370158 -3.04794e-05 0)
(-0.000322252 -5.96564e-05 0)
(-0.00027216 -8.31105e-05 0)
(-0.000218881 -9.79986e-05 0)
(-0.000165968 -0.000100619 0)
(-0.000113803 -9.02556e-05 0)
(-6.6205e-05 -6.52499e-05 0)
(-2.49932e-05 -2.73056e-05 0)
(5.36132e-06 2.4626e-05 0)
(2.0216e-05 8.24748e-05 0)
(1.3285e-05 8.91127e-05 0)
(-2.52552e-07 -9.35703e-05 0)
(2.2229e-05 -0.000249762 0)
(7.13431e-05 -0.000378871 0)
(0.000139259 -0.000474996 0)
(0.000220178 -0.000536292 0)
(0.000303677 -0.000556416 0)
(0.000386368 -0.000540852 0)
(0.000458454 -0.000488199 0)
(0.000521171 -0.000410894 0)
(0.000565838 -0.000309779 0)
(0.000596174 -0.000198963 0)
(0.000604996 -7.86977e-05 0)
(0.000598326 3.78213e-05 0)
(0.000569684 0.000151641 0)
(0.000526945 0.000252116 0)
(0.000465942 0.000342913 0)
(0.000396307 0.000417315 0)
(0.00031414 0.000480882 0)
(0.000227816 0.000529333 0)
(0.000133478 0.000568257 0)
(3.87655e-05 0.000595288 0)
(-5.97203e-05 0.000616036 0)
(-0.000155171 0.000629099 0)
(-0.000251513 0.000638872 0)
(-0.000343585 0.000643914 0)
(-0.00043468 0.000647405 0)
(-0.000520885 0.000648349 0)
(-0.000605226 0.000649048 0)
(-0.000684302 0.000648148 0)
(-0.000760174 0.000646944 0)
(-0.000830379 0.000644603 0)
(-0.000896406 0.000641865 0)
(-0.00095664 0.000637688 0)
(-0.00101247 0.000632367 0)
(-0.00106256 0.000625064 0)
(-0.00110802 0.000616213 0)
(-0.00114802 0.000605392 0)
(-0.00118302 0.000592752 0)
(-0.00121237 0.000577996 0)
(-0.00123641 0.000561385 0)
(-0.00125477 0.000542816 0)
(-0.00126746 0.000522703 0)
(-0.00127414 0.000501103 0)
(-0.00127452 0.000478313 0)
(-0.00126874 0.000454315 0)
(-0.0012569 0.000429641 0)
(-0.00123986 0.000404343 0)
(-0.00121784 0.000379106 0)
(-0.00119191 0.000353943 0)
(-0.0011619 0.000329547 0)
(-0.00112887 0.000305794 0)
(-0.00109205 0.000283865 0)
(-0.00105249 0.000263742 0)
(-0.00100954 0.000246454 0)
(-0.000965637 0.000230586 0)
(-0.000920616 0.000217164 0)
(-0.00087702 0.000205043 0)
(-0.000833821 0.00019525 0)
(-0.000793257 0.00018557 0)
(-0.00075322 0.000177099 0)
(-0.000715883 0.000167189 0)
(-0.00067908 0.000156658 0)
(-0.000645217 0.000142365 0)
(-0.000611264 0.000125229 0)
(-0.000578785 0.000102738 0)
(-0.000544164 7.64191e-05 0)
(-0.0005093 4.50167e-05 0)
(-0.000471165 1.04732e-05 0)
(-0.000431716 -2.65726e-05 0)
(-0.000387716 -6.35496e-05 0)
(-0.000340906 -9.7393e-05 0)
(-0.000289008 -0.000124999 0)
(-0.000235204 -0.000141474 0)
(-0.000179353 -0.000145021 0)
(-0.000125752 -0.000131847 0)
(-7.51462e-05 -0.000103216 0)
(-3.26208e-05 -5.76519e-05 0)
(-1.12682e-07 3.49417e-06 0)
(1.64439e-05 7.49147e-05 0)
(1.20796e-05 9.20604e-05 0)
(-2.45914e-07 -0.000112511 0)
(2.20451e-05 -0.000296333 0)
(6.79516e-05 -0.000443766 0)
(0.000133698 -0.000554855 0)
(0.000209113 -0.000621538 0)
(0.00029062 -0.00064612 0)
(0.00036738 -0.000624186 0)
(0.000437943 -0.000565489 0)
(0.000493356 -0.000470985 0)
(0.000536614 -0.00035626 0)
(0.000559885 -0.000223132 0)
(0.000569196 -8.73171e-05 0)
(0.000557119 5.10455e-05 0)
(0.000530758 0.000178478 0)
(0.000484244 0.000297436 0)
(0.000427412 0.000398606 0)
(0.000355966 0.000487204 0)
(0.00027946 0.0005573 0)
(0.000192913 0.00061499 0)
(0.000104819 0.000656802 0)
(1.06825e-05 0.000689352 0)
(-8.11948e-05 0.000710742 0)
(-0.000174666 0.000726592 0)
(-0.000263781 0.00073574 0)
(-0.000352735 0.000742008 0)
(-0.000436758 0.00074426 0)
(-0.000519517 0.000745495 0)
(-0.000597 0.000744526 0)
(-0.00067208 0.000743052 0)
(-0.00074179 0.000740027 0)
(-0.00080825 0.000736496 0)
(-0.000868893 0.000731324 0)
(-0.000925715 0.000725443 0)
(-0.000977189 0.000717805 0)
(-0.00102456 0.000708601 0)
(-0.00106675 0.0006974 0)
(-0.0011045 0.000684416 0)
(-0.00113695 0.000669166 0)
(-0.00116458 0.000651854 0)
(-0.00118691 0.000632259 0)
(-0.00120415 0.000610682 0)
(-0.00121593 0.000587101 0)
(-0.00122204 0.000561918 0)
(-0.00122232 0.000535128 0)
(-0.00121667 0.000507203 0)
(-0.00120559 0.000478207 0)
(-0.00118927 0.000448783 0)
(-0.00116876 0.000418976 0)
(-0.00114408 0.000389676 0)
(-0.00111628 0.000360868 0)
(-0.00108477 0.000333586 0)
(-0.0010506 0.000307593 0)
(-0.00101281 0.000284244 0)
(-0.000973099 0.000263033 0)
(-0.000931088 0.000244874 0)
(-0.000889733 0.000228208 0)
(-0.000848284 0.000214377 0)
(-0.000809171 0.000201653 0)
(-0.00077041 0.000191118 0)
(-0.000734243 0.000180117 0)
(-0.000698356 0.000169558 0)
(-0.000665524 0.000156125 0)
(-0.000633059 0.000140498 0)
(-0.000603019 0.000119501 0)
(-0.000571499 9.43296e-05 0)
(-0.000540252 6.30442e-05 0)
(-0.000505941 2.73661e-05 0)
(-0.000470997 -1.28193e-05 0)
(-0.000432177 -5.52521e-05 0)
(-0.000391161 -9.74175e-05 0)
(-0.000344541 -0.000136324 0)
(-0.000294497 -0.000166732 0)
(-0.000239903 -0.000186088 0)
(-0.000185002 -0.000188819 0)
(-0.000130398 -0.000175099 0)
(-8.03871e-05 -0.000141386 0)
(-3.70608e-05 -9.03337e-05 0)
(-4.45516e-06 -1.82607e-05 0)
(1.38169e-05 6.58958e-05 0)
(1.08469e-05 9.43573e-05 0)
(1.73217e-07 -0.000129393 0)
(2.05599e-05 -0.000337546 0)
(6.27624e-05 -0.00050443 0)
(0.000120908 -0.000626459 0)
(0.000191059 -0.000702889 0)
(0.000264086 -0.000727025 0)
(0.000337308 -0.000704993 0)
(0.000399516 -0.000634453 0)
(0.000452074 -0.000530368 0)
(0.000486625 -0.000395346 0)
(0.000508541 -0.000247558 0)
(0.000510498 -8.91118e-05 0)
(0.000499571 6.3421e-05 0)
(0.000468308 0.000210852 0)
(0.000425902 0.00034087 0)
(0.000366946 0.000457793 0)
(0.000302056 0.000553498 0)
(0.000225725 0.000634122 0)
(0.000147213 0.000694976 0)
(6.10232e-05 0.000743385 0)
(-2.39484e-05 0.000776973 0)
(-0.000112021 0.000801985 0)
(-0.000195588 0.000817082 0)
(-0.000279489 0.000827635 0)
(-0.000358226 0.000832361 0)
(-0.000436511 0.000835024 0)
(-0.000509717 0.000834392 0)
(-0.000581366 0.000832832 0)
(-0.000647832 0.000829311 0)
(-0.000711924 0.000825316 0)
(-0.00077066 0.000819688 0)
(-0.000826167 0.000813197 0)
(-0.000876488 0.000805156 0)
(-0.000923341 0.000795895 0)
(-0.000965318 0.000784599 0)
(-0.00100358 0.00077156 0)
(-0.00103699 0.000756244 0)
(-0.00106625 0.000738797 0)
(-0.00109067 0.000718877 0)
(-0.00111066 0.000696674 0)
(-0.0011258 0.000672067 0)
(-0.00113609 0.000645404 0)
(-0.0011412 0.000616703 0)
(-0.0011409 0.000586413 0)
(-0.00113534 0.000554579 0)
(-0.00112453 0.000521812 0)
(-0.00110932 0.000488231 0)
(-0.00108985 0.00045464 0)
(-0.00106726 0.000421128 0)
(-0.00104114 0.000388738 0)
(-0.00101251 0.000357386 0)
(-0.000980385 0.000328251 0)
(-0.000946147 0.000300993 0)
(-0.000908879 0.000277024 0)
(-0.000871078 0.000255298 0)
(-0.000832278 0.000236875 0)
(-0.000795453 0.000220078 0)
(-0.00075891 0.000206259 0)
(-0.000724932 0.000193059 0)
(-0.000690999 0.000181483 0)
(-0.00065993 0.00016826 0)
(-0.000629283 0.000154033 0)
(-0.000601827 0.000135154 0)
(-0.000573811 0.000112446 0)
(-0.000546914 8.31762e-05 0)
(-0.000517157 4.86784e-05 0)
(-0.000487069 7.97796e-06 0)
(-0.00045362 -3.70524e-05 0)
(-0.000419058 -8.47392e-05 0)
(-0.000379597 -0.000132422 0)
(-0.000336675 -0.000175069 0)
(-0.000287645 -0.000209859 0)
(-0.000236045 -0.000230013 0)
(-0.000182134 -0.000234506 0)
(-0.000130328 -0.000217624 0)
(-8.11521e-05 -0.000181404 0)
(-3.95362e-05 -0.000122099 0)
(-6.63097e-06 -4.08423e-05 0)
(1.16225e-05 5.70413e-05 0)
(9.86319e-06 9.55984e-05 0)
(3.76128e-07 -0.000143307 0)
(1.8665e-05 -0.000374225 0)
(5.35619e-05 -0.000556536 0)
(0.000104139 -0.00069207 0)
(0.000163143 -0.000773107 0)
(0.00022905 -0.00080164 0)
(0.000291801 -0.000773077 0)
(0.000349885 -0.000698557 0)
(0.000392939 -0.00057895 0)
(0.000424825 -0.000432978 0)
(0.000437911 -0.000264131 0)
(0.000439387 -9.19773e-05 0)
(0.000421545 8.17505e-05 0)
(0.000392985 0.000240936 0)
(0.000347124 0.00038822 0)
(0.000294727 0.000513043 0)
(0.000229855 0.00062098 0)
(0.000162618 0.000705393 0)
(8.64614e-05 0.000773795 0)
(1.11279e-05 0.000822851 0)
(-6.85306e-05 0.000860254 0)
(-0.000143893 0.000884251 0)
(-0.000220744 0.000901248 0)
(-0.000292129 0.00090986 0)
(-0.000363705 0.000915128 0)
(-0.000430182 0.000915743 0)
(-0.000496118 0.000914873 0)
(-0.000557042 0.000911243 0)
(-0.000616496 0.000906973 0)
(-0.00067084 0.000900891 0)
(-0.000722756 0.000894145 0)
(-0.000769652 0.000885736 0)
(-0.000813758 0.000876354 0)
(-0.000853276 0.000865106 0)
(-0.000889801 0.000852234 0)
(-0.000922016 0.000837115 0)
(-0.00095088 0.000819892 0)
(-0.000975454 0.000800117 0)
(-0.000996348 0.000777931 0)
(-0.00101302 0.000753098 0)
(-0.0010257 0.00072588 0)
(-0.001034 0.000696231 0)
(-0.00103772 0.000664556 0)
(-0.00103672 0.000630923 0)
(-0.00103081 0.00059585 0)
(-0.00102054 0.000559482 0)
(-0.00100597 0.000522596 0)
(-0.00098821 0.000485285 0)
(-0.000967116 0.00044851 0)
(-0.000943804 0.000412316 0)
(-0.00091737 0.000377894 0)
(-0.000888931 0.000345034 0)
(-0.000857302 0.000315103 0)
(-0.000824464 0.000287514 0)
(-0.00078963 0.000263641 0)
(-0.000755859 0.000242048 0)
(-0.000722019 0.000223992 0)
(-0.000690784 0.000207387 0)
(-0.000659597 0.00019346 0)
(-0.000631062 0.000179228 0)
(-0.000602622 0.000165478 0)
(-0.000577579 0.000148424 0)
(-0.000552729 0.000128625 0)
(-0.000530189 0.000102656 0)
(-0.000505478 7.14414e-05 0)
(-0.000480775 3.29339e-05 0)
(-0.000452799 -1.15134e-05 0)
(-0.000424451 -6.1405e-05 0)
(-0.000392279 -0.000114546 0)
(-0.000357717 -0.000166613 0)
(-0.000317037 -0.000214717 0)
(-0.000272522 -0.000251586 0)
(-0.000223261 -0.000275556 0)
(-0.000173816 -0.000278488 0)
(-0.000124548 -0.000261552 0)
(-7.90008e-05 -0.000218762 0)
(-3.87175e-05 -0.000153698 0)
(-7.76323e-06 -6.08255e-05 0)
(9.97329e-06 4.79956e-05 0)
(8.66962e-06 9.68661e-05 0)
(6.41846e-07 -0.000154565 0)
(1.45773e-05 -0.000403296 0)
(4.2293e-05 -0.000601514 0)
(8.07441e-05 -0.000745851 0)
(0.000129869 -0.000835098 0)
(0.00018234 -0.000861465 0)
(0.000237361 -0.000832853 0)
(0.000284271 -0.000747691 0)
(0.000323402 -0.000622029 0)
(0.000345685 -0.000458963 0)
(0.000357374 -0.000279551 0)
(0.000350883 -8.74482e-05 0)
(0.00033449 9.73895e-05 0)
(0.000300731 0.00027478 0)
(0.000260349 0.000430434 0)
(0.000207005 0.000568886 0)
(0.000151706 0.000680944 0)
(8.70487e-05 0.000773965 0)
(2.31217e-05 0.00084313 0)
(-4.67128e-05 0.00089685 0)
(-0.000112526 0.000932826 0)
(-0.000180702 0.00095907 0)
(-0.000243293 0.000974041 0)
(-0.000306687 0.000983626 0)
(-0.000364696 0.000986693 0)
(-0.000422902 0.000987357 0)
(-0.000476157 0.000984323 0)
(-0.000528882 0.000980228 0)
(-0.000576776 0.000973934 0)
(-0.000623145 0.00096703 0)
(-0.000664686 0.000958439 0)
(-0.000704105 0.000948989 0)
(-0.000739195 0.000937806 0)
(-0.000772055 0.000925228 0)
(-0.000801075 0.00091048 0)
(-0.000827619 0.000893722 0)
(-0.00085048 0.00087444 0)
(-0.000870496 0.000852727 0)
(-0.00088691 0.000828267 0)
(-0.000900206 0.000801248 0)
(-0.000909901 0.000771553 0)
(-0.000916001 0.000739464 0)
(-0.00091817 0.000705007 0)
(-0.00091613 0.000668633 0)
(-0.000910053 0.000630542 0)
(-0.000899873 0.000591414 0)
(-0.000886498 0.000551389 0)
(-0.000869906 0.000511281 0)
(-0.000851319 0.00047118 0)
(-0.0008301 0.000432205 0)
(-0.000807292 0.000394339 0)
(-0.000781557 0.000358924 0)
(-0.000754379 0.000325603 0)
(-0.000724616 0.000295853 0)
(-0.000694999 0.000268703 0)
(-0.000664585 0.000245508 0)
(-0.000636447 0.00022447 0)
(-0.000608394 0.000206908 0)
(-0.000582958 0.000190235 0)
(-0.000557269 0.000175497 0)