/*--------------------------------*- C++ -*----------------------------------*\
| =========                 |                                                 |
| \\      /  F ield         | OpenFOAM: The Open Source CFD Toolbox           |
|  \\    /   O peration     | Version:  2412                                  |
|   \\  /    A nd           | Website:  www.openfoam.com                      |
|    \\/     M anipulation  |                                                 |
\*---------------------------------------------------------------------------*/
FoamFile
{
    version     2.0;
    format      ascii;
    arch        "LSB;label=32;scalar=64";
    class       volScalarField;
    location    "2.95";
    object      p;
}
// * * * * * * * * * * * * * * * * * * * * * * * * * * * * * * * * * * * * * //

dimensions      [1 -1 -2 0 0 0 0];

internalField   nonuniform List<scalar> 
6400
(
9676.38
9676.56
9676.85
9677.24
9677.72
9678.22
9678.71
9679.11
9679.38
9679.43
9679.2
9678.61
9677.59
9676.1
9674.07
9671.46
9668.23
9664.37
9659.85
9654.67
9648.84
9642.38
9635.33
9627.73
9619.69
9611.18
9602.34
9593.27
9584.09
9574.92
9565.9
9557.16
9548.85
9541.12
9534.09
9527.91
9522.68
9518.51
9515.47
9513.64
9513.04
9513.68
9515.55
9518.62
9522.82
9528.06
9534.24
9541.24
9548.92
9557.14
9565.74
9574.58
9583.52
9592.34
9601.06
9609.49
9617.51
9625.05
9632.01
9638.35
9643.99
9648.93
9653.12
9656.57
9659.27
9661.26
9662.56
9663.22
9663.31
9662.9
9662.06
9660.91
9659.53
9658.04
9656.52
9655.09
9653.83
9652.8
9652.08
9651.69
9185.64
9185.85
9186.17
9186.61
9187.14
9187.71
9188.27
9188.75
9189.09
9189.21
9189.04
9188.51
9187.56
9186.12
9184.13
9181.55
9178.35
9174.5
9169.99
9164.8
9158.95
9152.46
9145.37
9137.72
9129.59
9121.01
9112.06
9102.88
9093.57
9084.27
9075.1
9066.23
9057.78
9049.91
9042.76
9036.46
9031.13
9026.87
9023.77
9021.9
9021.29
9021.94
9023.86
9027
9031.28
9036.63
9042.92
9050.05
9057.88
9066.25
9074.99
9083.98
9093.04
9102.03
9110.86
9119.38
9127.5
9135.11
9142.14
9148.52
9154.2
9159.16
9163.35
9166.79
9169.48
9171.43
9172.69
9173.29
9173.3
9172.8
9171.88
9170.63
9169.15
9167.54
9165.92
9164.39
9163.04
9161.94
9161.17
9160.75
8694.65
8694.89
8695.29
8695.83
8696.48
8697.18
8697.89
8698.53
8699.02
8699.28
8699.26
8698.86
8698.02
8696.68
8694.77
8692.26
8689.1
8685.28
8680.77
8675.57
8669.68
8663.13
8655.95
8648.19
8639.94
8631.17
8622.02
8612.61
8603.05
8593.48
8584.03
8574.87
8566.13
8557.98
8550.57
8544.03
8538.49
8534.07
8530.85
8528.9
8528.26
8528.95
8530.95
8534.21
8538.67
8544.24
8550.78
8558.19
8566.3
8574.97
8584.02
8593.31
8602.64
8611.88
8620.94
8629.68
8637.98
8645.75
8652.9
8659.37
8665.13
8670.12
8674.34
8677.77
8680.41
8682.3
8683.46
8683.95
8683.82
8683.15
8682.04
8680.57
8678.87
8677.04
8675.2
8673.47
8671.94
8670.7
8669.82
8669.33
8203.34
8203.66
8204.17
8204.86
8205.7
8206.62
8207.56
8208.43
8209.16
8209.65
8209.85
8209.65
8208.98
8207.78
8205.99
8203.58
8200.49
8196.71
8192.21
8186.99
8181.05
8174.41
8167.1
8159.22
8150.72
8141.69
8132.23
8122.47
8112.53
8102.55
8092.68
8083.07
8073.89
8065.32
8057.5
8050.6
8044.75
8040.07
8036.66
8034.59
8033.92
8034.65
8036.77
8040.23
8044.96
8050.85
8057.79
8065.61
8074.17
8083.3
8092.81
8102.55
8112.35
8121.9
8131.35
8140.41
8148.99
8156.98
8164.32
8170.94
8176.79
8181.85
8186.09
8189.5
8192.09
8193.88
8194.91
8195.22
8194.87
8193.94
8192.53
8190.75
8188.71
8186.53
8184.35
8182.3
8180.48
8179.01
8177.97
8177.38
7711.64
7712.08
7712.75
7713.66
7714.76
7715.99
7717.25
7718.46
7719.53
7720.36
7720.83
7720.89
7720.45
7719.45
7717.82
7715.54
7712.55
7708.82
7704.35
7699.11
7693.1
7686.34
7678.81
7670.86
7662.01
7652.61
7642.74
7632.51
7622.05
7611.51
7601.05
7590.84
7581.06
7571.89
7563.52
7556.12
7549.83
7544.79
7541.12
7538.89
7538.17
7538.95
7541.24
7544.98
7550.08
7556.44
7563.9
7572.3
7581.48
7591.24
7601.38
7611.72
7622.08
7632.26
7642.15
7651.63
7660.56
7668.86
7676.45
7683.25
7689.24
7694.38
7698.65
7702.04
7704.55
7706.22
7707.06
7707.13
7706.48
7705.21
7703.39
7701.17
7698.66
7695.99
7693.34
7690.83
7688.61
7686.81
7685.52
7684.77
7219.42
7220.03
7220.94
7222.15
7223.61
7225.24
7226.94
7228.6
7230.1
7231.34
7232.2
7232.6
7232.45
7231.71
7230.29
7228.17
7225.3
7221.66
7217.22
7211.96
7205.88
7199
7191.36
7182.98
7173.81
7163.98
7153.6
7142.77
7131.65
7120.39
7109.17
7098.16
7087.6
7077.67
7068.58
7060.51
7053.66
7048.15
7044.14
7041.7
7040.9
7041.76
7044.27
7048.37
7053.96
7060.91
7069.06
7078.22
7088.21
7098.79
7109.74
7120.87
7131.98
7142.87
7153.38
7163.38
7172.77
7181.45
7189.33
7196.37
7202.52
7207.76
7212.06
7215.42
7217.85
7219.36
7219.97
7219.74
7218.71
7216.99
7214.65
7211.85
7208.72
7205.41
7202.11
7198.99
7196.22
7193.97
7192.33
7191.37
6726.5
6727.37
6728.61
6730.22
6732.16
6734.31
6736.58
6738.82
6740.88
6742.65
6743.99
6744.81
6745.03
6744.59
6743.43
6741.51
6738.79
6735.25
6730.86
6725.59
6719.44
6712.38
6704.63
6695.85
6686.25
6675.89
6664.88
6653.32
6641.37
6629.22
6617.06
6605.05
6593.5
6582.6
6572.6
6563.71
6556.12
6550.03
6545.57
6542.86
6541.96
6542.92
6545.71
6550.26
6556.47
6564.19
6573.22
6583.36
6594.34
6605.95
6617.93
6630.05
6642.08
6653.82
6665.11
6675.76
6685.69
6694.8
6703.04
6710.35
6716.7
6722.05
6726.39
6729.72
6732.04
6733.36
6733.7
6733.1
6731.63
6729.35
6726.38
6722.83
6718.9
6714.75
6710.61
6706.68
6703.2
6700.33
6698.22
6696.94
6232.62
6233.88
6235.59
6237.73
6240.28
6243.13
6246.13
6249.11
6251.88
6254.3
6256.22
6257.56
6258.22
6258.14
6257.27
6255.59
6253.05
6249.64
6245.32
6240.07
6233.86
6226.71
6218.62
6209.49
6199.41
6188.44
6176.68
6164.24
6151.3
6138.03
6124.67
6111.5
6098.73
6086.65
6075.51
6065.59
6057.1
6050.27
6045.25
6042.19
6041.18
6042.25
6045.38
6050.5
6057.48
6066.15
6076.27
6087.61
6099.86
6112.75
6125.98
6139.3
6152.45
6165.22
6177.41
6188.87
6199.41
6209.03
6217.66
6225.28
6231.84
6237.32
6241.71
6245
6247.2
6248.3
6248.33
6247.32
6245.3
6242.36
6238.59
6234.15
6229.21
6223.99
6218.76
6213.79
6209.35
6205.67
6202.9
6201.16
5737.39
5739.26
5741.63
5744.47
5747.81
5751.56
5755.52
5759.44
5763.1
5766.33
5768.96
5770.89
5772.05
5772.38
5771.86
5770.45
5768.12
5764.86
5760.64
5755.43
5749.18
5741.97
5733.57
5724.06
5713.44
5701.76
5689.12
5675.65
5661.51
5646.94
5632.18
5617.53
5603.27
5589.73
5577.22
5566.02
5556.43
5548.68
5542.98
5539.49
5538.31
5539.51
5543.06
5548.88
5556.81
5566.65
5578.12
5590.93
5604.73
5619.18
5633.95
5648.72
5663.21
5677.18
5690.43
5702.79
5714.15
5724.23
5733.28
5741.23
5748.02
5753.64
5758.08
5761.33
5763.4
5764.28
5763.96
5762.47
5759.84
5756.12
5751.41
5745.86
5739.67
5733.11
5726.48
5720.15
5714.46
5709.7
5706.02
5703.57
5240.23
5243.11
5246.4
5250.14
5254.52
5259.46
5264.67
5269.81
5274.58
5278.78
5282.24
5284.86
5286.59
5287.38
5287.23
5286.11
5284.03
5280.96
5276.88
5271.75
5265.56
5258.2
5249.57
5239.66
5228.46
5216
5202.36
5187.68
5172.14
5156
5139.56
5123.14
5107.1
5091.79
5077.59
5064.86
5053.91
5045.04
5038.49
5034.45
5033.07
5034.42
5038.47
5045.14
5054.24
5065.52
5078.65
5093.26
5108.96
5125.3
5141.9
5158.39
5174.47
5189.84
5204.3
5217.67
5229.84
5240.74
5249.96
5258.31
5265.34
5271.09
5275.57
5278.79
5280.73
5281.38
5280.7
5278.7
5275.37
5270.77
5264.96
5258.06
5250.35
5242.08
5233.65
5225.54
5218.22
5212.03
5207.09
5203.53
4740.3
4744.81
4749.38
4754.31
4760.08
4766.62
4773.5
4780.23
4786.39
4791.75
4796.16
4799.55
4801.89
4803.18
4803.41
4802.62
4800.79
4797.95
4794.05
4789.06
4783.02
4775.59
4766.78
4756.5
4744.69
4731.37
4716.6
4700.52
4683.36
4665.36
4646.91
4628.37
4610.17
4592.73
4576.5
4561.9
4549.31
4539.07
4531.48
4526.76
4525.11
4526.62
4531.27
4538.97
4549.5
4562.53
4577.7
4594.56
4612.56
4631.17
4649.96
4668.49
4686.41
4703.4
4719.23
4733.72
4746.75
4758.26
4768.17
4776.66
4783.88
4789.74
4794.27
4797.46
4799.28
4799.71
4798.67
4796.13
4792.07
4786.47
4779.4
4770.96
4761.34
4750.89
4740.12
4729.66
4720.18
4712.09
4705.4
4700.11
4235.72
4242.98
4249.47
4256.15
4263.99
4272.81
4281.93
4290.7
4298.6
4305.34
4310.83
4315.04
4318.02
4319.8
4320.44
4319.96
4318.42
4315.82
4312.17
4307.51
4301.59
4294.25
4285.35
4274.75
4262.34
4248.1
4232.07
4214.4
4195.31
4175.13
4154.3
4133.25
4112.46
4092.46
4073.77
4056.92
4042.34
4030.45
4021.6
4015.99
4014
4015.67
4021.03
4029.98
4042.25
4057.43
4075.04
4094.55
4115.42
4136.82
4158.22
4179.17
4199.25
4218.09
4235.47
4251.17
4265.12
4277.26
4287.66
4296.4
4303.71
4309.64
4314.2
4317.38
4319.13
4319.36
4318
4314.94
4310.11
4303.45
4294.95
4284.66
4272.75
4259.59
4245.79
4232.13
4219.55
4208.71
4199.44
4191.38
3725.69
3737.57
3745.83
3754.41
3765.26
3777.63
3790.06
3801.49
3811.45
3819.77
3826.39
3831.44
3835.03
3837.29
3838.29
3838.13
3836.86
3834.53
3831.11
3827.11
3821.4
3814.3
3805.48
3794.68
3781.72
3766.52
3749.1
3729.62
3708.22
3685.53
3661.9
3637.85
3613.95
3590.84
3569.21
3549.66
3532.71
3518.82
3508.45
3501.67
3499.23
3501.05
3507.24
3517.71
3532.11
3549.95
3570.67
3593.83
3618.09
3642.5
3666.99
3690.74
3713.3
3734.24
3753.32
3770.34
3785.2
3797.94
3808.67
3817.59
3824.86
3830.81
3835.39
3838.59
3840.32
3840.44
3838.81
3835.28
3829.71
3821.97
3811.94
3799.56
3784.97
3768.39
3750.41
3732.17
3715.3
3701.05
3688.88
3676.14
3216.35
3229.72
3235.23
3246.5
3262.85
3280.41
3297.32
3312.43
3325.16
3335.25
3343.02
3348.83
3352.98
3355.65
3356.97
3357.06
3356.04
3354.02
3351.15
3347.39
3342.38
3335.85
3327.39
3316.59
3303.16
3286.97
3268.04
3246.59
3222.47
3196.77
3169.83
3142.2
3114.59
3087.75
3062.59
3039.83
3020.05
3003.69
2991.35
2983.37
2980.17
2982.04
2989.24
3001.62
3018.63
3039.56
3063.6
3090.58
3119.03
3148.03
3176.23
3203.34
3228.84
3252.17
3273.14
3291.55
3307.32
3320.5
3331.35
3340.21
3347.42
3353.2
3357.77
3361.08
3362.91
3363.05
3361.26
3357.35
3351.12
3342.34
3330.73
3315.99
3297.92
3276.98
3253.66
3229.26
3205.65
3187.19
3176.32
3160.62
2710.86
2707.15
2703.98
2722.93
2755.06
2783.22
2806.12
2825.58
2841
2852.59
2861.14
2867.42
2871.91
2874.84
2876.35
2876.59
2875.73
2873.94
2871.68
2868.57
2864.56
2859.04
2851.34
2840.83
2827.09
2809.89
2789.24
2764.82
2738.16
2709.12
2678.34
2646.5
2614.44
2583.04
2553.63
2527.03
2503.88
2484.44
2469.85
2460.18
2455.91
2457.61
2465.95
2480.76
2501.38
2527.17
2556.71
2588.03
2620.76
2654.09
2686.62
2717.56
2746.42
2772.27
2795.36
2815.25
2831.85
2845.26
2855.89
2864.32
2871.11
2876.77
2881.11
2884.71
2886.86
2887.22
2885.49
2881.39
2874.71
2865.17
2852.28
2835.38
2813.89
2787.85
2757.74
2722.45
2682.73
2657.49
2654.29
2652.34
2186.31
2146.71
2140.86
2180.46
2236.2
2280.67
2313.97
2339.85
2358.72
2371.65
2380.51
2386.84
2391.48
2394.65
2396.36
2396.67
2395.83
2394.23
2392.36
2390.38
2388
2384.17
2377.82
2368.04
2354.18
2336.01
2313.92
2286.38
2256.09
2223.07
2187.75
2150.82
2113.42
2076.16
2041.61
2010.37
1983.32
1960.86
1943.46
1931.55
1925.66
1926.6
1936.18
1953.88
1978.06
2008.82
2044.12
2083.65
2122.77
2161.1
2198.59
2233.9
2266.01
2295.11
2320.65
2342.12
2359.48
2372.75
2382.62
2390.04
2395.9
2400.99
2405.56
2409.55
2412.25
2413.03
2411.42
2407.2
2400.3
2390.39
2376.54
2357.37
2331.42
2298.25
2257.79
2205.42
2142.55
2098.48
2097.97
2128.2
1644.02
1581.18
1586.44
1647.94
1724.51
1787.97
1832.65
1862.85
1882.2
1894.09
1901.72
1907.54
1912.28
1915.48
1916.94
1916.85
1915.68
1914.07
1913.02
1912.9
1913.32
1912.08
1907.9
1899.46
1885.65
1865.81
1840.06
1810.77
1776.83
1739.29
1698.63
1655.07
1610.54
1566.91
1526.22
1489.71
1458.41
1432.42
1412.07
1397.53
1389.29
1387.44
1398.43
1419.78
1447.03
1485.1
1528.75
1575.35
1623.37
1669.03
1712.49
1752.95
1789.39
1821.53
1849.1
1873.15
1891.33
1903.81
1912
1917.84
1922.18
1926.11
1930.45
1935.1
1938.97
1940.86
1939.87
1935.59
1928.33
1918.59
1905.35
1886.19
1858.42
1819.72
1767.18
1696.29
1612.42
1545.25
1529.8
1582.51
1090.96
1047.05
1072.37
1145.9
1233.5
1311.64
1364.51
1393.37
1411.56
1421.39
1425.29
1427.85
1430.7
1433.37
1435.32
1435.78
1434.69
1433.31
1433.65
1436.29
1440.09
1442.98
1442.35
1436.49
1423.83
1402.72
1374.57
1340.3
1301.47
1258.74
1211.62
1159.98
1106.38
1054.79
1007.73
966.175
932.166
905.837
887.144
873.155
867.794
872.433
882.262
899.953
929.012
967.315
1013.07
1064.46
1119.37
1175.96
1228.94
1275.86
1317.15
1353.25
1383.59
1410.44
1428.84
1438.69
1443.81
1447.1
1449.78
1452.48
1455.91
1460.73
1465.95
1469.19
1468.82
1464.97
1458.62
1450.97
1440.29
1421.95
1393.51
1354.5
1292.73
1206.46
1106.47
1018.05
975.257
1024.22
535.631
490.743
548.101
651.954
758.47
839.904
891.544
917.413
934.154
944.884
945.085
944.516
947.033
950.781
953.977
954.57
953.439
951.561
951.75
956.208
964.322
973.185
978.712
977.496
968.308
947.284
914.186
873.668
829.302
781.945
728.56
667.405
602.782
542.04
486.451
437.225
393.923
355.962
326.995
307.604
299.776
304.791
321.34
349.997
388.858
436.847
491.481
557.57
625.445
690.674
751.017
803.497
849.391
889.746
924.922
953.553
971.103
975.793
974.303
972.18
973.485
977.492
982.52
989.214
996.622
1002.07
1002.14
996.484
988.211
981.223
971.094
950.215
920.721
880.992
822.383
730.652
607.567
479.872
412.937
460.079
140.486
109.34
155.62
231.988
332.392
428.985
493.867
500.601
503.495
493.502
465.46
452.391
457.45
466.369
471.063
469.368
463.468
456.717
454.156
461.768
477.804
498.075
512.076
515.383
513.031
495.002
458.498
411.542
364.046
318.722
271.699
220.628
171.156
129.861
98.9693
75.1163
56.9886
43.0571
32.7513
26.4796
24.1899
25.0395
29.3949
38.1791
52.3356
72.3729
101.182
140.47
191.254
242.392
293.829
342.94
389.336
431.385
466.75
493.544
506.188
507.634
498.278
485.59
479.674
479.669
486.043
499.011
516.354
529.852
530.576
520.989
512.133
516.837
525.479
519.845
503.05
479.473
412.323
310.192
203.152
121.925
82.9378
101.769
33.2405
39.1342
52.8141
49.4606
71.5781
156.037
240.195
284.392
249.318
175.905
116.365
99.7625
109.625
116.928
114.65
106.821
96.8168
86.9084
81.7798
88.5343
105.466
128.485
143.752
149.714
149.359
140.571
120.711
93.3936
65.3743
39.8849
18.5223
2.93785
-6.41678
-8.06483
-8.14486
-8.0894
-8.0703
-8.08449
-8.10909
-8.12131
-8.13508
-8.15766
-8.17819
-8.19856
-8.24744
-8.38461
-8.59595
-8.17783
-2.56167
9.42226
27.118
51.7846
79.979
107.053
128.6
143.038
143.455
134.568
121.962
102.105
92.4925
92.4588
97.8599
109.118
127.481
146.552
153.402
148.686
145.971
166.007
204.725
246.745
287.253
234.574
146.427
62.0101
35.7371
40.5578
34.8085
30.0199
15.9912
22.6419
26.7552
15.7427
2.97692
7.00208
41.4644
60.8729
46.9189
17.8019
-0.0242007
-2.68593
-2.7547
-3.03438
-5.35085
-8.9286
-12.968
-15.8582
-12.5753
-1.7712
5.88504
-0.605606
-9.04467
-8.70291
-8.28477
-8.37249
-8.42976
-8.59913
-8.72161
-8.85949
-8.94821
-8.92004
-8.72598
-8.69625
-8.68261
-8.67751
-8.67672
-8.68753
-8.69746
-8.70891
-8.73544
-8.77478
-8.81792
-8.8758
-8.94319
-9.04111
-9.11938
-9.02682
-9.28274
-9.44762
-9.47772
-9.45384
-9.41596
-9.31836
-9.33189
-9.59358
-9.54721
-7.45944
-7.35356
-10.9979
-13.1806
-12.7326
-11.3007
-10.2046
-8.95184
-5.67551
-0.0428497
3.68502
6.00271
15.3758
38.069
57.6105
60.5226
36.9243
7.53064
0.457357
9.30631
20.29
23.5761
20.0829
4.92867
6.96243
4.08808
-3.5013
-7.66131
-9.37763
-9.55931
-9.73455
-9.95825
-9.25224
-8.36841
-8.84616
-9.402
-9.10169
-8.94692
-9.55923
-10.9285
-11.8351
-10.7156
-8.19162
-7.45791
-9.40029
-10.4224
-9.74883
-9.19509
-9.02346
-9.05287
-9.17702
-9.31966
-9.44067
-9.4811
-9.42823
-9.30309
-9.21619
-9.20506
-9.19521
-9.22597
-9.25973
-9.28006
-9.29401
-9.32573
-9.37216
-9.40441
-9.4226
-9.48447
-9.54979
-9.60758
-9.63832
-9.83311
-9.96591
-10.0549
-10.0744
-10.0517
-10.0564
-10.2409
-10.7007
-11.0874
-10.9987
-11.5922
-12.4975
-12.3485
-11.6326
-10.8602
-10.8588
-11.6994
-11.7192
-9.66526
-7.62269
-7.3866
-7.14655
-6.25857
-5.71688
-5.63404
-5.35768
-5.42678
-5.83829
-5.87091
-0.284588
8.97024
9.25545
-4.08583
-6.84056
-7.59317
-9.50217
-9.18231
-9.40871
-9.83102
-10.2832
-10.3531
-9.96668
-9.67918
-9.92786
-10.2073
-10.0354
-9.66513
-9.83846
-10.3809
-10.6596
-10.3489
-9.68284
-9.2946
-9.21124
-9.48554
-9.7585
-9.79865
-9.69536
-9.66302
-9.71255
-9.77912
-9.8598
-9.91611
-9.89746
-9.83917
-9.8004
-9.79366
-9.80573
-9.81703
-9.83964
-9.86112
-9.8807
-9.91363
-9.96135
-9.99443
-10.0148
-10.0543
-10.1129
-10.1606
-10.2063
-10.2938
-10.3939
-10.4745
-10.5343
-10.5748
-10.6191
-10.7614
-10.98
-11.1071
-11.4462
-12.232
-12.6391
-12.4937
-12.0838
-11.6029
-11.3613
-11.4352
-11.3673
-10.5643
-9.57186
-9.03418
-8.56176
-7.79015
-7.1681
-7.06569
-6.96348
-6.70461
-6.92876
-7.78893
-7.24079
-4.14841
-1.56154
-7.25614
-9.01454
-8.7889
-9.4856
-9.51091
-9.86061
-10.198
-10.4534
-10.5496
-10.427
-10.3506
-10.4807
-10.6122
-10.5078
-10.3023
-10.1171
-9.83523
-9.36848
-9.16305
-9.26427
-9.46419
-9.66966
-9.98192
-10.213
-10.235
-10.196
-10.2109
-10.2683
-10.334
-10.3917
-10.4199
-10.4147
-10.393
-10.3786
-10.3784
-10.3881
-10.4034
-10.4222
-10.4427
-10.4649
-10.4951
-10.5313
-10.5603
-10.5845
-10.6212
-10.6713
-10.724
-10.7815
-10.8594
-10.9322
-10.9923
-11.0375
-11.0719
-11.1109
-11.1855
-11.2813
-11.3549
-11.5587
-12.1016
-12.4662
-12.4397
-12.2299
-12.013
-11.9854
-12.1098
-12.0333
-11.4377
-10.6203
-10.0851
-9.66645
-9.11474
-8.83706
-8.81328
-8.45088
-7.69906
-6.86711
-6.27795
-6.94525
-8.97576
-7.59212
-8.00989
-8.25318
-8.75805
-9.43204
-9.68337
-10.1057
-10.4877
-10.7813
-10.9635
-11.0605
-11.1565
-11.2678
-11.3207
-11.3136
-11.3561
-11.3158
-10.5458
-9.05644
-8.60767
-9.33839
-10.1356
-10.5203
-10.6976
-10.788
-10.8071
-10.8091
-10.8315
-10.869
-10.9069
-10.9375
-10.9558
-10.9612
-10.9583
-10.9565
-10.9611
-10.9717
-10.9864
-11.0037
-11.0229
-11.0441
-11.0692
-11.0972
-11.1232
-11.1479
-11.1824
-11.228
-11.2778
-11.3309
-11.3902
-11.4487
-11.5015
-11.5449
-11.5815
-11.6222
-11.6778
-11.7391
-11.8109
-11.9602
-12.2633
-12.5116
-12.5443
-12.4448
-12.3315
-12.3523
-12.4665
-12.4191
-11.9934
-11.3089
-10.8639
-10.4988
-10.1255
-10.0007
-9.96385
-9.46308
-8.3007
-6.77014
-5.44679
-7.41719
-10.7464
-10.2794
-8.58593
-8.43171
-9.7028
-9.88474
-10.0912
-10.4706
-10.8441
-11.1829
-11.4665
-11.6994
-11.8892
-12.0149
-12.0812
-12.1361
-12.3162
-12.59
-12.4857
-11.0417
-9.90497
-10.4159
-11.3361
-11.5438
-11.5001
-11.4922
-11.4844
-11.4703
-11.4686
-11.4796
-11.496
-11.5123
-11.5248
-11.5317
-11.5344
-11.5372
-11.5434
-11.5533
-11.5664
-11.5821
-11.5997
-11.6194
-11.6414
-11.6651
-11.6879
-11.7128
-11.7446
-11.7839
-11.8277
-11.874
-11.9222
-11.9705
-12.0155
-12.0554
-12.0931
-12.1339
-12.1829
-12.2404
-12.3146
-12.4335
-12.6062
-12.7515
-12.7901
-12.7469
-12.6757
-12.663
-12.7129
-12.6842
-12.426
-11.9595
-11.5337
-11.1954
-10.8955
-10.7889
-10.6651
-10.0544
-8.79512
-7.19051
-6.29469
-10.3415
-12.0199
-11.5869
-9.47424
-9.638
-10.4101
-10.1621
-10.5025
-10.9163
-11.3021
-11.6727
-12.017
-12.3144
-12.5446
-12.6779
-12.7193
-12.749
-12.8843
-13.1559
-13.7201
-13.0502
-12.5163
-12.7448
-13.0778
-12.775
-12.4341
-12.2932
-12.2145
-12.1571
-12.1248
-12.1114
-12.1087
-12.1109
-12.1139
-12.1159
-12.1171
-12.1194
-12.1242
-12.1322
-12.1433
-12.1568
-12.1727
-12.1909
-12.2111
-12.2322
-12.2537
-12.2772
-12.3048
-12.3377
-12.3752
-12.4151
-12.4561
-12.4969
-12.5367
-12.5739
-12.6106
-12.6497
-12.6938
-12.7445
-12.8062
-12.8877
-12.9872
-13.0688
-13.0975
-13.08
-13.037
-13.005
-13.0075
-12.9922
-12.825
-12.4716
-12.0835
-11.7539
-11.4798
-11.3891
-11.2403
-10.8212
-9.68668
-9.01027
-10.1527
-12.1859
-12.7422
-12.5628
-10.3835
-10.5787
-10.6604
-10.1093
-10.8794
-11.3834
-11.7896
-12.1719
-12.5399
-12.8424
-13.0865
-13.2179
-13.2518
-13.2516
-13.3107
-13.8883
-15.0023
-15.3237
-15.9567
-16.1489
-15.1022
-14.0612
-13.4356
-13.1414
-12.9718
-12.8633
-12.7974
-12.7582
-12.7351
-12.7214
-12.713
-12.7074
-12.704
-12.7031
-12.7052
-12.7103
-12.7183
-12.7292
-12.7427
-12.7586
-12.7763
-12.7951
-12.8151
-12.8368
-12.861
-12.8891
-12.9211
-12.9558
-12.9913
-13.0267
-13.0621
-13.0965
-13.1307
-13.1663
-13.2045
-13.2458
-13.2911
-13.3417
-13.3942
-13.4334
-13.4446
-13.43
-13.3994
-13.3669
-13.3442
-13.3085
-13.1646
-12.8839
-12.5473
-12.2278
-11.9425
-11.897
-11.9059
-12.0657
-11.626
-11.2009
-12.5407
-13.504
-13.3491
-13.3169
-11.2297
-11.2622
-11.0542
-11.0402
-11.6095
-11.8776
-12.2102
-12.606
-12.9932
-13.2953
-13.4746
-13.5872
-13.5994
-13.7051
-14.2935
-15.1472
-16.2286
-17.2117
-18.1396
-17.9955
-16.4909
-15.1363
-14.3659
-13.9607
-13.7198
-13.5682
-13.4711
-13.4074
-13.3649
-13.336
-13.316
-13.302
-13.2925
-13.2869
-13.2849
-13.2864
-13.2911
-13.299
-13.3097
-13.3227
-13.3371
-13.353
-13.3714
-13.3921
-13.4147
-13.4392
-13.4667
-13.4968
-13.5277
-13.559
-13.5904
-13.6218
-13.653
-13.6844
-13.7162
-13.7482
-13.7796
-13.8086
-13.8314
-13.8407
-13.8312
-13.8063
-13.7729
-13.7391
-13.7039
-13.649
-13.5252
-13.3086
-13.0243
-12.7268
-12.4348
-12.3884
-12.6386
-13.3074
-14.4901
-14.0247
-14.336
-14.409
-14.0772
-13.9939
-12.1753
-12.1778
-12.2651
-12.7154
-12.2446
-12.1332
-12.398
-12.809
-13.2168
-13.4554
-13.6108
-13.7136
-13.9254
-14.2521
-15.0719
-16.0066
-17.1823
-18.1351
-18.701
-18.2705
-16.9643
-15.8247
-15.1127
-14.689
-14.4235
-14.2492
-14.1309
-14.0487
-13.9906
-13.9488
-13.9183
-13.8961
-13.8802
-13.8694
-13.8631
-13.8607
-13.8619
-13.8665
-13.8741
-13.8838
-13.8938
-13.9066
-13.9233
-13.9435
-13.9657
-13.9879
-14.0116
-14.0377
-14.0649
-14.0927
-14.1209
-14.1492
-14.1771
-14.2044
-14.2304
-14.2544
-14.2746
-14.2885
-14.2918
-14.28
-14.2509
-14.2137
-14.1773
-14.1494
-14.1239
-14.0816
-13.9875
-13.8094
-13.5536
-13.2609
-12.9702
-12.9387
-13.3913
-14.0013
-14.8891
-14.8816
-15.0797
-15.0343
-14.7886
-14.6669
-13.1298
-13.1438
-13.3551
-13.2565
-12.4286
-12.343
-12.6199
-13.0411
-13.2622
-13.3313
-13.565
-14.0796
-14.3945
-14.8511
-15.8254
-16.6626
-17.6983
-18.303
-18.3728
-17.9014
-16.9913
-16.1957
-15.6821
-15.3163
-15.0682
-14.8935
-14.7676
-14.6753
-14.6068
-14.5554
-14.5165
-14.4872
-14.4654
-14.4498
-14.4392
-14.433
-14.4306
-14.4321
-14.4364
-14.4437
-14.4496
-14.4608
-14.4763
-14.4955
-14.5161
-14.5353
-14.5555
-14.5784
-14.6026
-14.6275
-14.6528
-14.6782
-14.7031
-14.7266
-14.7479
-14.7655
-14.7773
-14.7803
-14.7707
-14.7436
-14.6958
-14.6477
-14.6107
-14.597
-14.5955
-14.5832
-14.5233
-14.3748
-14.1324
-13.8294
-13.5691
-13.5686
-14.2579
-14.899
-15.3751
-15.3929
-15.4427
-15.4941
-15.3656
-15.2634
-14.0082
-14.1361
-14.4023
-14.607
-13.8347
-13.9096
-14.0746
-14.1277
-14.0373
-14.1412
-14.3341
-14.788
-15.2711
-15.8052
-16.6426
-17.3087
-17.6901
-17.948
-17.8523
-17.4782
-16.9458
-16.4836
-16.1343
-15.8656
-15.6596
-15.5011
-15.3789
-15.2842
-15.2106
-15.1532
-15.1083
-15.0735
-15.0468
-15.0268
-15.0123
-15.0026
-14.9972
-14.996
-14.9975
-15.0047
-15.0106
-15.0197
-15.0345
-15.0522
-15.0679
-15.082
-15.099
-15.119
-15.1405
-15.1629
-15.1859
-15.2088
-15.231
-15.2516
-15.2694
-15.2826
-15.2888
-15.2851
-15.2678
-15.2296
-15.1622
-15.1031
-15.081
-15.0936
-15.1264
-15.1468
-15.1195
-15.0096
-14.7975
-14.5119
-14.2938
-14.3069
-15.178
-15.9463
-15.9527
-16.0367
-15.9159
-15.986
-15.916
-15.7933
-14.883
-15.0694
-15.2617
-15.3718
-15.6556
-15.87
-15.8233
-15.5748
-15.2202
-15.3253
-15.8199
-16.0864
-16.3254
-16.8531
-17.1869
-17.4677
-17.6347
-17.6722
-17.5491
-17.3149
-17.0356
-16.7839
-16.566
-16.3771
-16.2156
-16.08
-15.968
-15.8762
-15.8016
-15.7412
-15.6925
-15.6537
-15.6232
-15.5995
-15.5818
-15.5691
-15.561
-15.5576
-15.5569
-15.5634
-15.5707
-15.5786
-15.5928
-15.6078
-15.6175
-15.6275
-15.6418
-15.6593
-15.6785
-15.6988
-15.7198
-15.7408
-15.7611
-15.7798
-15.7957
-15.8068
-15.8107
-15.8044
-15.7868
-15.756
-15.6683
-15.6267
-15.6529
-15.7287
-15.8232
-15.8927
-15.904
-15.8311
-15.6548
-15.4144
-15.2181
-15.2363
-16.1283
-16.7989
-16.4344
-16.4607
-16.5316
-16.5109
-16.3966
-16.2703
-15.7525
-15.9358
-16.0449
-16.2628
-16.884
-17.2433
-17.2848
-17.1102
-16.9274
-16.889
-17.0733
-16.8843
-16.8938
-17.2182
-17.4577
-17.6269
-17.7093
-17.6774
-17.5565
-17.4047
-17.2632
-17.1353
-17.0066
-16.877
-16.753
-16.6399
-16.5399
-16.4537
-16.3806
-16.3194
-16.2688
-16.2273
-16.1939
-16.1674
-16.1469
-16.1317
-16.1212
-16.1155
-16.1128
-16.1157
-16.1208
-16.1285
-16.1418
-16.1535
-16.1606
-16.1697
-16.1827
-16.1984
-16.2159
-16.2347
-16.2542
-16.274
-16.2934
-16.3115
-16.3273
-16.3387
-16.3436
-16.3394
-16.3243
-16.2967
-16.2453
-16.268
-16.3797
-16.5069
-16.6226
-16.7189
-16.7855
-16.7724
-16.6471
-16.4655
-16.3283
-16.392
-17.1808
-18.2011
-17.8069
-17.598
-17.5491
-17.2136
-16.9332
-16.7914
-16.5637
-16.7245
-16.7816
-17.0834
-17.6283
-17.8728
-17.8795
-17.7709
-17.7638
-17.9498
-17.7088
-17.5219
-17.5759
-17.7498
-17.8841
-17.9389
-17.9166
-17.8493
-17.7592
-17.664
-17.5885
-17.5385
-17.4679
-17.3795
-17.2837
-17.1889
-17.1001
-17.0199
-16.9494
-16.8887
-16.8372
-16.7942
-16.7587
-16.73
-16.7074
-16.6899
-16.6773
-16.6692
-16.6644
-16.6632
-16.6654
-16.671
-16.6812
-16.6908
-16.6989
-16.7089
-16.7212
-16.7358
-16.7522
-16.77
-16.7888
-16.8082
-16.8278
-16.8467
-16.8642
-16.8784
-16.8874
-16.8938
-16.8885
-16.8036
-16.8501
-16.9836
-17.1084
-17.2245
-17.3403
-17.462
-17.5953
-17.6593
-17.6028
-17.4841
-17.4763
-17.6289
-18.409
-19.8949
-19.955
-19.4979
-19.145
-18.2481
-17.7018
-17.4391
-17.2788
-17.4209
-17.5683
-18.093
-18.7973
-18.9475
-18.8216
-18.7952
-18.5574
-18.5924
-18.5163
-18.3219
-18.3623
-18.4247
-18.4228
-18.3479
-18.2265
-18.1239
-18.0726
-18.0295
-17.9907
-17.9972
-17.9577
-17.893
-17.8152
-17.7331
-17.6526
-17.5774
-17.5096
-17.4499
-17.3983
-17.3544
-17.3176
-17.2873
-17.2629
-17.2436
-17.2292
-17.2189
-17.2127
-17.2084
-17.2097
-17.2136
-17.2199
-17.2276
-17.2358
-17.2456
-17.2574
-17.2713
-17.287
-17.3043
-17.3229
-17.3427
-17.3633
-17.3845
-17.4056
-17.4255
-17.4405
-17.4601
-17.4709
-17.3794
-17.4565
-17.6394
-17.7578
-17.8797
-18.0355
-18.2288
-18.4325
-18.5344
-18.49
-18.4268
-18.5585
-18.8243
-19.4896
-20.9958
-21.6494
-20.9293
-20.3532
-19.2492
-18.5709
-18.1799
-17.8336
-17.9456
-18.1947
-18.8902
-19.6768
-19.8777
-19.8251
-19.9389
-19.7632
-19.3431
-19.1545
-19.0321
-19.051
-19.0698
-19.0219
-18.8914
-18.7264
-18.5761
-18.5093
-18.4981
-18.4898
-18.4993
-18.479
-18.4237
-18.3525
-18.2764
-18.2006
-18.1287
-18.0629
-18.0041
-17.9526
-17.9083
-17.8707
-17.8392
-17.8135
-17.7929
-17.7771
-17.765
-17.7582
-17.7522
-17.7534
-17.7563
-17.7604
-17.7656
-17.7719
-17.7806
-17.7915
-17.8047
-17.8199
-17.837
-17.8559
-17.8765
-17.8989
-17.9233
-17.9499
-17.9794
-18.0032
-18.0492
-18.0797
-18.0589
-18.1137
-18.252
-18.3744
-18.5354
-18.7569
-19.0516
-19.3331
-19.4346
-19.3585
-19.3229
-19.5268
-19.8405
-20.1498
-21.0502
-21.6446
-21.2802
-20.6007
-19.8137
-19.267
-18.8831
-18.2485
-18.3343
-18.5734
-19.1459
-19.8487
-20.3083
-20.4428
-20.3895
-20.2703
-20.0053
-19.796
-19.6854
-19.6616
-19.6578
-19.6387
-19.5348
-19.3735
-19.226
-19.1364
-19.0945
-19.0764
-19.0456
-19.033
-18.9745
-18.8981
-18.8207
-18.7457
-18.675
-18.6102
-18.552
-18.5008
-18.4563
-18.4182
-18.386
-18.3594
-18.3376
-18.3209
-18.3077
-18.3007
-18.2961
-18.2956
-18.297
-18.3006
-18.3018
-18.3058
-18.3132
-18.3232
-18.3357
-18.3505
-18.3675
-18.3868
-18.4086
-18.4331
-18.461
-18.4934
-18.5322
-18.576
-18.6578
-18.7332
-18.7711
-18.8009
-18.882
-18.9955
-19.1793
-19.4499
-19.8234
-20.1445
-20.2155
-20.1056
-20.0678
-20.2879
-20.4708
-20.3522
-20.578
-20.9563
-21.039
-20.6212
-20.0945
-19.6975
-19.4196
-18.6859
-18.7825
-19.0329
-19.4683
-20.0187
-20.5411
-20.8619
-20.9354
-20.8369
-20.6277
-20.4254
-20.2951
-20.2307
-20.2077
-20.2121
-20.188
-20.0916
-19.98
-19.9148
-19.821
-19.7348
-19.6638
-19.6072
-19.5391
-19.4503
-19.3659
-19.2883
-19.2169
-19.1521
-19.0942
-19.0432
-18.9987
-18.9604
-18.9278
-18.9006
-18.878
-18.8604
-18.8464
-18.8377
-18.834
-18.8327
-18.8344
-18.837
-18.8341
-18.8368
-18.8431
-18.8523
-18.8642
-18.8786
-18.8955
-18.9151
-18.9378
-18.9642
-18.9954
-19.0334
-19.0823
-19.1457
-19.2531
-19.3835
-19.4655
-19.5028
-19.5451
-19.6153
-19.7732
-20.0359
-20.4095
-20.7028
-20.7139
-20.5648
-20.5238
-20.7023
-20.6539
-20.2934
-20.1844
-20.4214
-20.9039
-20.8211
-20.3121
-19.9571
-19.763
-19.2614
-19.3606
-19.6304
-20.1005
-20.689
-21.1975
-21.4987
-21.5625
-21.4546
-21.2455
-21.0257
-20.8766
-20.7982
-20.7644
-20.7687
-20.7893
-20.8002
-20.7665
-20.7709
-20.6806
-20.4815
-20.3162
-20.2019
-20.1119
-20.0039
-19.9092
-19.8272
-19.754
-19.6886
-19.6308
-19.58
-19.5358
-19.4976
-19.4648
-19.4372
-19.4141
-19.3955
-19.3807
-19.3685
-19.3626
-19.3645
-19.3677
-19.367
-19.3627
-19.3649
-19.3702
-19.3788
-19.39
-19.4039
-19.4205
-19.4402
-19.4633
-19.4908
-19.524
-19.5654
-19.6201
-19.6929
-19.8123
-19.977
-20.1155
-20.1893
-20.1979
-20.2138
-20.2979
-20.4989
-20.7736
-20.9484
-20.9269
-20.8232
-20.7827
-20.7689
-20.5813
-20.195
-20.093
-20.4567
-21.031
-20.9605
-20.4747
-20.1522
-19.9967
-19.9675
-20.0399
-20.3465
-20.8726
-21.4565
-21.8957
-22.1223
-22.1645
-22.0703
-21.8504
-21.6102
-21.4468
-21.3553
-21.3157
-21.3245
-21.3656
-21.4425
-21.5344
-21.6311
-21.5541
-21.2693
-20.9668
-20.8023
-20.6747
-20.551
-20.4469
-20.3601
-20.285
-20.2192
-20.1617
-20.1114
-20.0677
-20.0298
-19.9972
-19.9695
-19.9463
-19.9267
-19.912
-19.8955
-19.8903
-19.8936
-19.8953
-19.891
-19.8883
-19.8901
-19.8948
-19.9026
-19.9132
-19.9264
-19.9425
-19.9617
-19.9846
-20.0119
-20.0452
-20.0867
-20.1412
-20.2134
-20.3262
-20.4956
-20.6661
-20.7645
-20.7611
-20.7407
-20.7467
-20.8449
-20.9929
-21.0494
-21.0298
-21.0276
-20.9851
-20.7838
-20.447
-20.1765
-20.3063
-20.8412
-21.1149
-20.9515
-20.6282
-20.3773
-20.2526
-20.7384
-20.7685
-21.1046
-21.6381
-22.1581
-22.5103
-22.6805
-22.7225
-22.6339
-22.4048
-22.1416
-21.9674
-21.8721
-21.8287
-21.8434
-21.8997
-21.9976
-22.1764
-22.3467
-22.2753
-21.9218
-21.5703
-21.3672
-21.2166
-21.0839
-20.9743
-20.8847
-20.8088
-20.7434
-20.6867
-20.6374
-20.5946
-20.5573
-20.5254
-20.4978
-20.4752
-20.4544
-20.4415
-20.4218
-20.4204
-20.4211
-20.4178
-20.4131
-20.4114
-20.4127
-20.4169
-20.424
-20.4338
-20.4462
-20.4615
-20.4798
-20.5016
-20.5276
-20.559
-20.5976
-20.6467
-20.7097
-20.7998
-20.9333
-21.0819
-21.1775
-21.195
-21.1575
-21.1264
-21.1458
-21.2077
-21.2056
-21.1975
-21.3526
-21.4589
-21.1364
-20.7629
-20.5623
-20.7781
-21.1359
-21.2437
-21.208
-20.965
-20.7259
-20.6011
-21.4799
-21.4941
-21.7812
-22.2746
-22.7576
-23.0429
-23.163
-23.1844
-23.0855
-22.8531
-22.588
-22.4157
-22.3254
-22.2877
-22.3077
-22.3728
-22.4725
-22.6281
-22.7279
-22.635
-22.355