/*--------------------------------*- C++ -*----------------------------------*\
| =========                 |                                                 |
| \\      /  F ield         | OpenFOAM: The Open Source CFD Toolbox           |
|  \\    /   O peration     | Version:  2412                                  |
|   \\  /    A nd           | Website:  www.openfoam.com                      |
|    \\/     M anipulation  |                                                 |
\*---------------------------------------------------------------------------*/
FoamFile
{
    version     2.0;
    format      ascii;
    arch        "LSB;label=32;scalar=64";
    class       surfaceScalarField;
    location    "2.95";
    object      phi;
}
// * * * * * * * * * * * * * * * * * * * * * * * * * * * * * * * * * * * * * //

dimensions      [0 3 -1 0 0 0 0];

oriented        oriented;

internalField   nonuniform List<scalar> 
12640
(
3.00612e-05
-3.00612e-05
6.34099e-05
-3.33484e-05
9.32419e-05
-2.9832e-05
0.000119696
-2.64544e-05
0.0001425
-2.28036e-05
0.000161188
-1.86881e-05
0.000175442
-1.42544e-05
0.000185176
-9.73354e-06
0.00019043
-5.25424e-06
0.00019141
-9.7993e-07
0.000188523
2.88684e-06
0.000182209
6.31476e-06
0.000172933
9.27622e-06
0.000161092
1.18406e-05
0.000147225
1.3867e-05
0.00013176
1.54647e-05
0.000115325
1.64366e-05
9.83786e-05
1.69474e-05
8.1397e-05
1.69819e-05
6.47812e-05
1.66167e-05
4.88323e-05
1.59491e-05
3.38877e-05
1.49446e-05
2.0156e-05
1.37315e-05
7.69945e-06
1.24565e-05
-3.34705e-06
1.10462e-05
-1.28765e-05
9.52998e-06
-2.09909e-05
8.11525e-06
-2.75939e-05
6.60327e-06
-3.27025e-05
5.10859e-06
-3.62917e-05
3.58965e-06
-3.84431e-05
2.15129e-06
-3.94031e-05
9.5939e-07
-3.94666e-05
6.30537e-08
-3.85812e-05
-8.85447e-07
-3.65268e-05
-2.05379e-06
-3.32024e-05
-3.32464e-06
-2.86051e-05
-4.59782e-06
-2.29252e-05
-5.67952e-06
-1.64137e-05
-6.51065e-06
-9.48832e-06
-6.92488e-06
-2.62834e-06
-6.86007e-06
3.61336e-06
-6.24179e-06
8.78993e-06
-5.17653e-06
1.25719e-05
-3.78193e-06
1.48044e-05
-2.23243e-06
1.55047e-05
-7.00317e-07
1.4726e-05
7.78204e-07
1.27829e-05
1.94284e-06
9.96276e-06
2.82037e-06
6.38664e-06
3.57641e-06
1.83083e-06
4.55577e-06
-3.83217e-06
5.66281e-06
-1.04949e-05
6.66262e-06
-1.81862e-05
7.69134e-06
-2.67903e-05
8.60407e-06
-3.62996e-05
9.50933e-06
-4.66289e-05
1.03295e-05
-5.77688e-05
1.114e-05
-6.97099e-05
1.19412e-05
-8.22704e-05
1.25605e-05
-9.52598e-05
1.29893e-05
-0.000108472
1.32123e-05
-0.000121549
1.30769e-05
-0.000134189
1.26396e-05
-0.000145933
1.17434e-05
-0.00015644
1.05071e-05
-0.000165156
8.71588e-06
-0.000171753
6.59674e-06
-0.000175861
4.10859e-06
-0.000177095
1.23474e-06
-0.000175049
-2.04583e-06
-0.000169332
-5.71815e-06
-0.000159748
-9.58315e-06
-0.000146276
-1.34725e-05
-0.000128979
-1.72965e-05
-0.000108106
-2.08736e-05
-8.41017e-05
-2.40034e-05
-5.71798e-05
-2.69215e-05
-2.71097e-05
-3.00709e-05
-2.71094e-05
3.08319e-05
-6.08929e-05
6.49388e-05
-6.74553e-05
9.54274e-05
-6.03207e-05
0.000122394
-5.34206e-05
0.000145544
-4.59544e-05
0.000164395
-3.75394e-05
0.000178686
-2.85452e-05
0.000188374
-1.94208e-05
0.000193559
-1.04394e-05
0.00019449
-1.91068e-06
0.000191597
5.77889e-06
0.00018515
1.27622e-05
0.000175674
1.87524e-05
0.000163743
2.37715e-05
0.000149913
2.76992e-05
0.000134675
3.07035e-05
0.000118557
3.2555e-05
0.000101977
3.3529e-05
8.53908e-05
3.35689e-05
6.92119e-05
3.27955e-05
5.38292e-05
3.13323e-05
3.94921e-05
2.92817e-05
2.64412e-05
2.67816e-05
1.49633e-05
2.3934e-05
5.13874e-06
2.08718e-05
-3.05609e-06
1.77258e-05
-9.46731e-06
1.45268e-05
-1.4222e-05
1.13585e-05
-1.74724e-05
8.3593e-06
-1.94443e-05
5.56098e-06
-2.03255e-05
3.03157e-06
-2.01755e-05
8.09228e-07
-1.8957e-05
-1.15516e-06
-1.69953e-05
-2.84775e-06
-1.47992e-05
-4.25011e-06
-1.26655e-05
-5.4576e-06
-1.08546e-05
-6.40735e-06
-9.46878e-06
-7.06436e-06
-8.56644e-06
-7.41277e-06
-8.06685e-06
-7.42418e-06
-7.86518e-06
-7.06129e-06
-7.85619e-06
-6.25046e-06
-7.87805e-06
-5.15436e-06
-7.82713e-06
-3.8326e-06
-7.70156e-06
-2.35819e-06
-7.59582e-06
-8.06546e-07
-7.60172e-06
7.83937e-07
-8.08526e-06
2.42665e-06
-9.34774e-06
4.0831e-06
-1.15204e-05
5.74908e-06
-1.45345e-05
7.56973e-06
-1.83184e-05
9.44664e-06
-2.30651e-05
1.14091e-05
-2.87641e-05
1.33901e-05
-3.57044e-05
1.55442e-05
-4.37419e-05
1.75468e-05
-5.2923e-05
1.95105e-05
-6.31656e-05
2.13824e-05
-7.42526e-05
2.30282e-05
-8.61311e-05
2.44389e-05
-9.85263e-05
2.53843e-05
-0.000111196
2.58817e-05
-0.000123802
2.56821e-05
-0.000136085
2.49229e-05
-0.000147634
2.32928e-05
-0.00015809
2.09624e-05
-0.000167017
1.76419e-05
-0.000173892
1.34721e-05
-0.000178219
8.43719e-06
-0.000179558
2.57391e-06
-0.000177611
-3.99276e-06
-0.000171991
-1.1339e-05
-0.000162504
-1.90692e-05
-0.000149027
-2.69494e-05
-0.0001316
-3.47242e-05
-0.000110457
-4.20149e-05
-8.60242e-05
-4.84358e-05
-5.84779e-05
-5.4469e-05
-2.76879e-05
-6.086e-05
-5.47979e-05
3.28872e-05
-9.37801e-05
6.93975e-05
-0.000103966
0.000101861
-9.27841e-05
0.000130339
-8.18993e-05
0.000154557
-7.01722e-05
0.00017404
-5.7022e-05
0.000188544
-4.30502e-05
0.000198062
-2.89391e-05
0.000202746
-1.51247e-05
0.000202887
-2.05155e-06
0.000198947
9.71954e-06
0.000191397
2.03121e-05
0.000180758
2.93927e-05
0.000167586
3.69437e-05
0.000152442
4.28429e-05
0.000135924
4.72236e-05
0.000118474
5.00047e-05
0.000100692
5.1309e-05
8.30228e-05
5.1239e-05
6.58171e-05
5.00003e-05
4.95194e-05
4.76295e-05
3.44165e-05
4.43856e-05
2.07499e-05
4.04504e-05
8.65929e-06
3.60243e-05
-1.79797e-06
3.13271e-05
-1.04745e-05
2.64021e-05
-1.73933e-05
2.14456e-05
-2.26765e-05
1.66402e-05
-2.63943e-05
1.20762e-05
-2.87072e-05
7.87491e-06
-2.9606e-05
3.93164e-06
-2.94188e-05
6.22793e-07
-2.81286e-05
-2.44475e-06
-2.59427e-05
-5.03272e-06
-2.31698e-05
-7.02168e-06
-2.0017e-05
-8.61014e-06
-1.67856e-05
-9.63877e-06
-1.35968e-05
-1.02529e-05
-1.06284e-05
-1.03812e-05
-7.86242e-06
-1.01906e-05
-5.42013e-06
-9.50339e-06
-3.27553e-06
-8.39401e-06
-1.40907e-06
-7.02049e-06
1.3004e-07
-5.37225e-06
1.29989e-06
-3.52842e-06
2.0048e-06
-1.51144e-06
2.08702e-06
7.0173e-07
1.42462e-06
3.08895e-06
-1.19411e-07
5.62697e-06
-2.64754e-06
8.2768e-06
-6.0453e-06
1.09666e-05
-1.04817e-05
1.38819e-05
-1.58572e-05
1.67836e-05
-2.24432e-05
1.99755e-05
-2.99e-05
2.30006e-05
-3.85166e-05
2.61631e-05
-4.83052e-05
2.92988e-05
-5.90462e-05
3.21232e-05
-7.0908e-05
3.48901e-05
-8.3502e-05
3.70329e-05
-9.67316e-05
3.86136e-05
-0.000110319
3.94683e-05
-0.000123972
3.93355e-05
-0.00013733
3.82811e-05
-0.00015001
3.59722e-05
-0.000161525
3.24779e-05
-0.000171472
2.75886e-05
-0.000179326
2.13275e-05
-0.0001846
1.3712e-05
-0.000186795
4.76838e-06
-0.000185561
-5.22647e-06
-0.000180421
-1.64782e-05
-0.000171084
-2.84061e-05
-0.000157409
-4.06242e-05
-0.000139437
-5.26957e-05
-0.000117364
-6.40864e-05
-9.15733e-05
-7.42269e-05
-6.22674e-05
-8.37738e-05
-2.94081e-05
-9.37198e-05
-8.42047e-05
3.57682e-05
-0.000129548
7.58727e-05
-0.00014407
0.000111329
-0.000128241
0.000142022
-0.000112593
0.000167721
-9.58716e-05
0.000188047
-7.73483e-05
0.000202755
-5.7759e-05
0.00021192
-3.81047e-05
0.000215831
-1.90365e-05
0.000214915
-1.13575e-06
0.000209685
1.495e-05
0.00020072
2.92772e-05
0.00018853
4.15828e-05
0.000173744
5.17314e-05
0.000156961
5.96237e-05
0.00013883
6.53533e-05
0.000119872
6.89626e-05
0.000100676
7.05039e-05
8.1681e-05
7.02344e-05
6.34057e-05
6.82771e-05
4.60942e-05
6.49424e-05
3.01923e-05
6.02857e-05
1.58132e-05
5.48277e-05
3.33186e-06
4.85049e-05
-7.3394e-06
4.1998e-05
-1.6175e-05
3.52373e-05
-2.31471e-05
2.84185e-05
-2.83421e-05
2.18376e-05
-3.18641e-05
1.56012e-05
-3.3856e-05
9.86877e-06
-3.45351e-05
4.61092e-06
-3.40115e-05
9.85213e-08
-3.2499e-05
-3.95802e-06
-3.02329e-05
-7.29927e-06
-2.73076e-05
-9.94627e-06
-2.38268e-05
-1.20909e-05
-1.99769e-05
-1.34896e-05
-1.58218e-05
-1.44096e-05
-1.15207e-05
-1.46826e-05
-7.40585e-06
-1.43051e-05
-3.54095e-06
-1.33688e-05
-1.33694e-07
-1.18026e-05
2.69426e-06
-9.84958e-06
4.79205e-06
-7.47041e-06
6.16118e-06
-4.89771e-06
6.77156e-06
-2.12242e-06
6.65178e-06
8.20736e-07
5.77056e-06
3.96958e-06
4.08015e-06
7.31669e-06
1.50518e-06
1.08506e-05
-2.04349e-06
1.45138e-05
-6.43869e-06
1.82757e-05
-1.19793e-05
2.23235e-05
-1.84174e-05
2.64131e-05
-2.6121e-05
3.07036e-05
-3.49963e-05
3.50378e-05
-4.50471e-05
3.93491e-05
-5.64699e-05
4.35459e-05
-6.869e-05
4.71103e-05
-8.19909e-05
5.03338e-05
-9.59717e-05
5.25941e-05
-0.000110476
5.39721e-05
-0.000125231
5.40906e-05
-0.000139761
5.28111e-05
-0.000153757
4.99684e-05
-0.000166643
4.53643e-05
-0.000177958
3.89044e-05
-0.000187183
3.05533e-05
-0.000193756
2.02847e-05
-0.000197112
8.12419e-06
-0.000196833
-5.50579e-06
-0.000192374
-2.09358e-05
-0.000183353
-3.74277e-05
-0.000169536
-5.44404e-05
-0.000150859
-7.13709e-05
-0.000127479
-8.74668e-05
-9.97588e-05
-0.000101947
-6.78987e-05
-0.000115633
-3.18906e-05
-0.000129727
-0.000116094
3.98563e-05
-0.000169405
8.50716e-05
-0.000189286
0.000124794
-0.000167963
0.000158568
-0.000146366
0.000186301
-0.000123605
0.000207617
-9.86652e-05
0.00022246
-7.26031e-05
0.000231104
-4.67488e-05
0.000233841
-2.17734e-05
0.000231414
1.29023e-06
0.000224309
2.20552e-05
0.000213278
4.03074e-05
0.000198918
5.594e-05
0.000181974
6.8676e-05
0.000162986
7.8613e-05
0.000142673
8.5666e-05
0.00012173
8.99045e-05
0.000100636
9.15971e-05
7.99987e-05
9.08704e-05
6.02127e-05
8.80622e-05
4.18596e-05
8.32959e-05
2.50422e-05
7.71057e-05
1.02568e-05
6.96156e-05
-2.87973e-06
6.16428e-05
-1.37757e-05
5.28963e-05
-2.2558e-05
4.40228e-05
-2.92875e-05
3.51501e-05
-3.41187e-05
2.66687e-05
-3.71395e-05
1.86202e-05
-3.85607e-05
1.12876e-05
-3.85379e-05
4.58751e-06
-3.73387e-05
-1.09868e-06
-3.53015e-05
-5.99241e-06
-3.24524e-05
-1.01465e-05
-2.89202e-05
-1.34781e-05
-2.49288e-05
-1.60827e-05
-2.04885e-05
-1.793e-05
-1.58412e-05
-1.90572e-05
-1.10677e-05
-1.94578e-05
-6.44625e-06
-1.89288e-05
-2.11459e-06
-1.77017e-05
1.65893e-06
-1.55762e-05
4.78207e-06
-1.29726e-05
7.12035e-06
-9.80885e-06
8.6538e-06
-6.43155e-06
9.38211e-06
-2.85098e-06
9.33525e-06
8.67612e-07
8.57264e-06
4.73198e-06
7.02909e-06
8.85926e-06
4.68834e-06
1.31897e-05
1.43495e-06
1.77655e-05
-2.72788e-06
2.24374e-05
-7.95427e-06
2.75491e-05
-1.44395e-05
3.28976e-05
-2.21312e-05
3.83946e-05
-3.11084e-05
4.40145e-05
-4.14851e-05
4.97256e-05
-5.28816e-05
5.49427e-05
-6.57689e-05
5.99978e-05
-7.97844e-05
6.43493e-05
-9.47996e-05
6.7609e-05
-0.000110571
6.97439e-05
-0.000126741
7.02598e-05
-0.000142922
6.89928e-05
-0.000158605
6.56515e-05
-0.000173377
6.0136e-05
-0.000186588
5.2117e-05
-0.000197685
4.16496e-05
-0.000206055
2.86542e-05
-0.000211093
1.31623e-05
-0.000212231
-4.36736e-06
-0.000208857
-2.43091e-05
-0.000200407
-4.58774e-05
-0.000186514
-6.83326e-05
-0.000166969
-9.09167e-05
-0.000141838
-0.000112599
-0.000111427
-0.000132356
-7.58891e-05
-0.000151171
-3.54073e-05
-0.000170208
-0.000151502
4.53214e-05
-0.000214726
9.76402e-05
-0.000241605
0.000143197
-0.000213521
0.000181046
-0.000184216
0.000211262
-0.000153822
0.000233674
-0.000121077
0.000248426
-8.73549e-05
0.000256018
-5.43423e-05
0.00025701
-2.2765e-05
0.000252436
5.86232e-06
0.000242928
3.15621e-05
0.00022915
5.40854e-05
0.000211969
7.31214e-05
0.000192081
8.85631e-05
0.000170328
0.000100365
0.000147331
0.000108664
0.000123735
0.0001135
0.000100293
0.000115041
7.75558e-05
0.000113607
5.60894e-05
0.000109529
3.60845e-05
0.0001033
1.80962e-05
9.50947e-05
2.19376e-06
8.55198e-05
-1.12355e-05
7.50732e-05
-2.23133e-05
6.3975e-05
-3.0972e-05
5.26822e-05
-3.73494e-05
4.15273e-05
-4.15474e-05
3.08663e-05
-4.38369e-05
2.09111e-05
-4.44316e-05
1.18838e-05
-4.34989e-05
3.65543e-06
-4.15718e-05
-3.02606e-06
-3.86932e-05
-8.87273e-06
-3.50294e-05
-1.38122e-05
-3.07256e-05
-1.77839e-05
-2.60086e-05
-2.08013e-05
-2.08347e-05
-2.31053e-05
-1.55773e-05
-2.43153e-05
-1.01957e-05
-2.48394e-05
-5.04847e-06
-2.40756e-05
-2.25826e-07
-2.25236e-05
3.88561e-06
-1.96875e-05
7.26863e-06
-1.63561e-05
9.82904e-06
-1.23698e-05
1.15373e-05
-8.1401e-06
1.24305e-05
-3.74428e-06
1.25768e-05
7.2098e-07
1.19464e-05
5.36156e-06
1.06766e-05
1.01279e-05
8.62133e-06
1.52437e-05
5.72986e-06
2.06562e-05
1.86201e-06
2.63049e-05
-3.07814e-06
3.2489e-05
-9.22639e-06
3.90454e-05
-1.67258e-05
4.58935e-05
-2.57666e-05
5.30549e-05
-3.61972e-05
6.01562e-05
-4.83053e-05
6.7051e-05
-6.18607e-05
7.35531e-05
-7.68137e-05
7.9302e-05
-9.30746e-05
8.38696e-05
-0.000110393
8.70623e-05
-0.000128358
8.82248e-05
-0.000146542
8.71772e-05
-0.000164525
8.36342e-05
-0.000181621
7.72313e-05
-0.000197345
6.78414e-05
-0.000210946
5.525e-05
-0.000221774
3.94818e-05
-0.00022911
2.04989e-05
-0.000232133
-1.34451e-06
-0.0002304
-2.60434e-05
-0.000222899
-5.33787e-05
-0.000209106
-8.21258e-05
-0.000188629
-0.000111396
-0.000161353
-0.000139874
-0.000127401
-0.000166307
-8.67394e-05
-0.000191833
-4.01293e-05
-0.000216818
-0.000191631
5.24187e-05
-0.000267145
0.000114392
-0.000303579
0.000167809
-0.000266938
0.000210876
-0.000227282
0.000243941
-0.000186886
0.000267256
-0.000144393
0.000281531
-0.000101631
0.000287474
-6.02859e-05
0.000286099
-2.13916e-05
0.000278621
1.33396e-05
0.000265834
4.43495e-05
0.000248633
7.12857e-05
0.000227847
9.39086e-05
0.000204364
0.000112048
0.000178996
0.000125732
0.000152556
0.000135104
0.000125747
0.000140307
9.93872e-05
0.0001414
7.3948e-05
0.000139047
5.0167e-05
0.000133312
2.84219e-05
0.000125045
9.19399e-06
0.000114323
-7.72017e-06
0.000102434
-2.17865e-05
8.91393e-05
-3.30286e-05
7.52159e-05
-4.14864e-05
6.11385e-05
-4.73222e-05
4.73618e-05
-5.07487e-05
3.4292e-05
-5.20736e-05
2.22353e-05
-5.15027e-05
1.13121e-05
-4.96041e-05
1.75519e-06
-4.65398e-05
-6.09194e-06
-4.26112e-05
-1.28028e-05
-3.80612e-05
-1.83626e-05
-3.28748e-05
-2.29704e-05
-2.7277e-05
-2.63991e-05
-2.13786e-05
-2.90047e-05
-1.52587e-05
-3.04356e-05
-9.11121e-06
-3.09867e-05
-3.19816e-06
-2.99886e-05
2.26516e-06
-2.79873e-05
6.87806e-06
-2.4301e-05
1.06131e-05
-2.00914e-05
1.3379e-05
-1.51353e-05
1.52198e-05
-9.98052e-06
1.62327e-05
-4.75711e-06
1.64571e-05
4.96187e-07
1.59761e-05
5.84187e-06
1.48827e-05
1.12205e-05
1.3198e-05
1.69278e-05
1.07741e-05
2.30799e-05
7.39503e-06
2.96842e-05
2.89566e-06
3.69885e-05
-2.83818e-06
4.47791e-05
-1.01501e-05
5.3205e-05
-1.90961e-05
6.20007e-05
-2.97723e-05
7.08322e-05
-4.23682e-05
7.96467e-05
-5.66974e-05
8.78818e-05
-7.27071e-05
9.53112e-05
-9.05817e-05
0.000101744
-0.000109643
0.000106124
-0.000129829
0.000108411
-0.000150582
0.00010793
-0.000171294
0.000104346
-0.000191485
9.74225e-05
-0.000210358
8.67133e-05
-0.000227159
7.20504e-05
-0.000241135
5.34572e-05
-0.000251457
3.08216e-05
-0.000257165
4.36249e-06
-0.000257626
-2.55841e-05
-0.000251638
-5.93659e-05
-0.000238373
-9.53915e-05
-0.000217054
-0.000132715
-0.000187305
-0.000169621
-0.000148781
-0.000204833
-0.000101221
-0.000239393
-4.61688e-05
-0.00027187
-0.0002378
6.14169e-05
-0.000328562
0.00013649
-0.000378653
0.000200593
-0.000331041
0.000250218
-0.000276907
0.000286221
-0.00022289
0.000310046
-0.000168219
0.000322923
-0.000114508
0.000326338
-6.37001e-05
0.000321543
-1.65968e-05
0.000310212
2.46702e-05
0.000293273
6.12885e-05
0.000271719
9.28387e-05
0.000246563
0.000119064
0.000218698
0.000139914
0.000188985
0.000155445
0.000158373
0.000165718
0.000127677
0.000171006
9.76561e-05
0.000171422
6.91171e-05
0.000167586
4.26645e-05
0.000159764
1.8925e-05
0.000148786
-2.36904e-06
0.000135618
-2.03107e-05
0.000120375
-3.49716e-05
0.000103798
-4.62868e-05
8.65301e-05
-5.43776e-05
6.923e-05
-5.94361e-05
5.24212e-05
-6.17677e-05
3.66244e-05
-6.17301e-05
2.21973e-05
-5.97424e-05
9.32349e-06
-5.65302e-05
-1.45724e-06
-5.21602e-05
-1.04607e-05
-4.70517e-05
-1.79104e-05
-4.12451e-05
-2.41702e-05
-3.51844e-05
-2.90336e-05
-2.86198e-05
-3.29649e-05
-2.18135e-05
-3.58104e-05
-1.46756e-05
-3.75724e-05
-7.5909e-06
-3.8071e-05
-7.97215e-07
-3.67821e-05
5.47692e-06
-3.42613e-05
1.06449e-05
-2.94687e-05
1.46943e-05
-2.41405e-05
1.7663e-05
-1.8104e-05
1.95641e-05
-1.18819e-05
2.05599e-05
-5.75333e-06
2.08045e-05
2.51339e-07
2.04212e-05
6.22501e-06
1.95375e-05
1.2104e-05
1.82453e-05
1.82202e-05
1.6397e-05
2.49286e-05
1.36697e-05
3.24121e-05
9.95774e-06
4.07008e-05
4.83065e-06
4.99062e-05
-2.07532e-06
6.01107e-05
-1.08243e-05
7.07494e-05
-2.163e-05
8.16376e-05
-3.46089e-05
9.26251e-05
-4.98383e-05
0.000103111
-6.72808e-05
0.000112753
-8.66685e-05
0.000121132
-0.000108045
0.000127501
-0.000130898
0.000131264
-0.00015475
0.000131781
-0.000178944
0.00012854
-0.000202772
0.00012125
-0.000225537
0.000109478
-0.000246409
9.29219e-05
-0.000264315
7.13639e-05
-0.000278468
4.49744e-05
-0.000287789
1.36825e-05
-0.000291275
-2.20978e-05
-0.000287649
-6.29897e-05
-0.000275612
-0.000107429
-0.000253951
-0.000154376
-0.000221448
-0.000202126
-0.000177181
-0.000249101
-0.000120276
-0.000296299
-5.38362e-05
-0.000338309
-0.000291636
7.27799e-05
-0.000401342
0.000165838
-0.00047171
0.000244483
-0.000409686
0.000301985
-0.00033441
0.000340657
-0.000261564
0.000363716
-0.000191278
0.000373808
-0.000124599
0.000373255
-6.3147e-05
0.000363987
-7.32788e-06
0.000347713
4.09438e-05
0.000325585
8.34177e-05
0.000298737
0.000119687
0.000268244
0.000149559
0.000235017
0.00017314
0.000200144
0.000190318
0.00016451
0.000201349
0.000129089
0.000206428
9.47356e-05
0.000205777
6.23885e-05
0.000199938
3.28171e-05
0.000189337
6.28747e-06
0.000175314
-1.66957e-05
0.000158601
-3.58636e-05
0.000139545
-5.11165e-05
0.000119054
-6.24623e-05
9.78778e-05
-6.99412e-05
7.67086e-05
-7.38819e-05
5.636e-05
-7.47121e-05
3.74528e-05
-7.29466e-05
2.04316e-05
-6.91369e-05
5.51473e-06
-6.4053e-05
-6.54116e-06
-5.80298e-05
-1.64856e-05
-5.14229e-05
-2.45196e-05
-4.4501e-05
-3.10922e-05
-3.73803e-05
-3.61525e-05
-2.98075e-05
-4.05366e-05
-2.20104e-05
-4.36073e-05
-1.38702e-05
-4.57128e-05
-5.61274e-06
-4.63284e-05
2.351e-06
-4.47455e-05
9.65803e-06
-4.15681e-05
1.54521e-05
-3.52629e-05
1.97835e-05
-2.84722e-05
2.27125e-05
-2.10335e-05
2.44242e-05
-1.35938e-05
2.51795e-05
-6.50855e-06
2.52606e-05
1.70434e-07
2.49404e-05
6.54517e-06
2.43248e-05
1.27196e-05
2.34645e-05
1.90808e-05
2.23671e-05
2.60268e-05
2.06937e-05
3.40862e-05
1.8015e-05
4.33798e-05
1.38278e-05
5.40931e-05
7.73081e-06
6.62073e-05
-6.33407e-07
7.91132e-05
-1.16007e-05
9.26046e-05
-2.49274e-05
0.000105952
-4.10268e-05
0.00011921
-5.97797e-05
0.000131507
-8.12204e-05
0.000142573
-0.000105152
0.000151433
-0.000131155
0.000157267
-0.000158691
0.000159317
-0.000187076
0.000156925
-0.000215441
0.000149615
-0.000242873
0.000136909
-0.000268535
0.000118584
-0.000291473
9.43033e-05
-0.000310438
6.39398e-05
-0.000324409
2.76539e-05
-0.000332149
-1.43559e-05
-0.000332139
-6.30002e-05
-0.0003225
-0.00011707
-0.000301402
-0.000175474
-0.000266465
-0.000237062
-0.000215127
-0.000300437
-0.000145437
-0.000365987
-6.32502e-05
-0.000420497
-0.000354887
8.65948e-05
-0.000487937
0.000205227
-0.000590344
0.000304028
-0.000508489
0.000370674
-0.000401057
0.000410325
-0.000301215
0.000430378
-0.00021133
0.000435546
-0.000129767
0.000429016
-5.66178e-05
0.000413952
7.73642e-06
0.000391279
6.36168e-05
0.000362774
0.000111923
0.000329665
0.000152794
0.000292816
0.000186409
0.000253433
0.000212523
0.000212258
0.000231494
0.000170607
0.000243005
0.000129521
0.000247516
9.01271e-05
0.00024517
5.34133e-05
0.000236651
2.00638e-05
0.000222687
-9.33061e-06
0.000204711
-3.44449e-05
0.000183717
-5.49853e-05
0.000160084
-7.08939e-05
0.00013496
-8.20606e-05
0.000109044
-8.86149e-05
8.32633e-05
-9.09775e-05
5.87242e-05
-8.96583e-05
3.61357e-05
-8.54832e-05
1.6258e-05
-7.91577e-05
-8.1152e-07
-7.17955e-05
-1.3904e-05
-6.37881e-05
-2.44906e-05
-5.55847e-05
-3.27203e-05
-4.73184e-05
-3.93579e-05
-3.90624e-05
-4.44089e-05
-3.06087e-05
-4.89903e-05
-2.17748e-05
-5.24406e-05
-1.24949e-05
-5.49917e-05
-2.91657e-06
-5.59056e-05
6.43658e-06
-5.4098e-05
1.49286e-05
-5.006e-05
2.1267e-05
-4.16017e-05
2.57092e-05
-3.29148e-05
2.83842e-05
-2.37088e-05
2.9694e-05
-1.49038e-05
2.99797e-05
-6.79446e-06
2.95902e-05
5.59697e-07
2.90975e-05
7.03763e-06
2.87284e-05
1.30888e-05
2.85948e-05
1.92149e-05
2.85712e-05
2.60511e-05
2.83299e-05
3.43279e-05
2.71565e-05
4.45531e-05
2.44036e-05
5.68455e-05
1.95273e-05
7.10832e-05
1.17962e-05
8.68441e-05
9.62992e-07
0.000103438
-1.31995e-05
0.000120114
-3.00958e-05
0.000136107
-5.01527e-05
0.000151564
-7.35355e-05
0.000165957
-0.000100411
0.000178309
-0.000130181
0.000187037
-0.00016205
0.000191186
-0.000195427
0.000190303
-0.000229008
0.000183197
-0.000262181
0.000170083
-0.000293712
0.000150116
-0.000322662
0.000123254
-0.000347714
8.8992e-05
-0.000367648
4.75883e-05
-0.000380892
-1.11153e-06
-0.000386246
-5.76465e-05
-0.000380941
-0.000122373
-0.000362207
-0.000194206
-0.000326138
-0.00027313
-0.000266648
-0.000359929
-0.000178988
-0.000453648
-7.44086e-05
-0.000525076
-0.000429294
9.99588e-05
-0.000587896
0.000255903
-0.000746289
0.000384576
-0.000637163
0.000462135
-0.000478617
0.000499704
-0.000338785
0.000512335
-0.000223962
0.000509153
-0.000126586
0.000494405
-4.18697e-05
0.000471439
3.07037e-05
0.000441103
9.3953e-05
0.000405094
0.000147933
0.000364509
0.000193381
0.00032043
0.000230489
0.000273623
0.00025933
0.000225353
0.000279762
0.00017667
0.000291684
0.000128997
0.000295185
8.35209e-05
0.000290647
4.15079e-05
0.000278665
4.00135e-06
0.000260192
-2.88597e-05
0.000237571
-5.63306e-05
0.000211188
-7.83853e-05
0.00018214
-9.49005e-05
0.000151476
-0.000105558
0.000119702
-0.000110681
8.8389e-05
-0.000110787
5.88308e-05
-0.000106718
3.20653e-05
-9.95405e-05
9.08038e-06
-9.01099e-05
-1.02398e-05
-7.94516e-05
-2.45602e-05
-6.85394e-05
-3.54024e-05
-5.82208e-05
-4.30391e-05
-4.88342e-05
-4.87442e-05
-3.97585e-05
-5.34839e-05
-3.06214e-05
-5.81263e-05
-2.0874e-05
-6.21868e-05
-1.06818e-05
-6.5183e-05
3.74836e-07
-6.69618e-05
1.23451e-05
-6.60684e-05
2.32457e-05
-6.0961e-05
2.94423e-05
-4.77987e-05
3.28286e-05
-3.63014e-05
3.44336e-05
-2.53141e-05
3.49001e-05
-1.53707e-05
3.42874e-05
-6.18206e-06
3.29708e-05
1.87591e-06
3.18317e-05
8.17654e-06
3.18347e-05
1.30859e-05
3.32299e-05
1.78201e-05
3.45768e-05
2.47044e-05
3.60629e-05
3.28415e-05
3.70118e-05
4.36038e-05
3.63845e-05
5.74724e-05
3.30788e-05
7.43887e-05
2.64502e-05
9.3473e-05
1.62679e-05
0.00011362
2.48055e-06
0.000133902
-1.55073e-05
0.000154095
-3.70836e-05
0.000173142
-6.2985e-05
0.000191859
-9.32614e-05
0.000208586
-0.000127357
0.000221133
-0.000164563
0.000228393
-0.000203578
0.000229317
-0.00024359
0.000223209
-0.000283292
0.000209784
-0.000321776
0.0001886
-0.000357825
0.000159303
-0.000390299
0.000121466
-0.000417635
7.49252e-05
-0.000438232
1.94867e-05
-0.000451097
-4.47812e-05
-0.000452977
-0.000120493
-0.000440312
-0.000206873
-0.000405767
-0.000307674
-0.000336072
-0.000429624
-0.000221378
-0.000568342
-8.42531e-05
-0.000662201
-0.000513547
0.000119804
-0.0007077
0.000328213
-0.000954699
0.00049402
-0.00080297
0.000582335
-0.000566932
0.000612762
-0.000369213
0.000612309
-0.000223508
0.000595931
-0.000110209
0.000569474
-1.54125e-05
0.000536538
6.36387e-05
0.000497156
0.000133337
0.000452424
0.000192664
0.000403463
0.000242342
0.00035107
0.00028288
0.000296045
0.000314355
0.000239338
0.000336469
0.000182319
0.000348705
0.000126604
0.000350901
7.41472e-05
0.000343103
2.62412e-05
0.000326569
-1.62222e-05
0.000302655
-5.25739e-05
0.000273924
-8.27234e-05
0.000241339
-0.000106495
0.000205912
-0.000123387
0.000168369
-0.000133413
0.000129729
-0.000136584
9.15584e-05
-0.000133514
5.57591e-05
-0.000125533
2.40842e-05
-0.000113745
-2.70701e-06
-0.000100185
-2.38007e-05
-8.55816e-05
-3.9165e-05
-7.15557e-05
-4.94284e-05
-5.88661e-05
-5.57285e-05
-4.8022e-05
-5.95879e-05
-3.84582e-05
-6.30469e-05
-2.93756e-05
-6.72082e-05
-1.98021e-05
-7.17598e-05
-9.07495e-06
-7.59098e-05
4.06272e-06
-8.00995e-05
2.07943e-05
-8.28002e-05
3.5521e-05
-7.56878e-05
4.14152e-05
-5.36928e-05
4.22003e-05
-3.70867e-05
4.1361e-05
-2.44751e-05
3.95079e-05
-1.35179e-05
3.71703e-05
-3.84482e-06
3.48095e-05
4.23641e-06
3.31288e-05
9.85713e-06
3.27776e-05
1.3437e-05
3.4149e-05
1.64486e-05
3.83668e-05
2.04863e-05
4.331e-05
2.78979e-05
4.76912e-05
3.92223e-05
5.02028e-05
5.49609e-05
4.92141e-05
7.53779e-05
4.3959e-05
9.87285e-05
3.41539e-05
0.000123426
2.01708e-05
0.000147885
2.02524e-06
0.000172241
-2.09555e-05
0.000196123
-4.91476e-05
0.000220051
-8.29977e-05
0.000242436
-0.000122174
0.00026031
-0.00016557
0.00027179
-0.000211449
0.000275195
-0.000258724
0.000270483
-0.000306197
0.000257257
-0.000352792
0.000235195
-0.000397222
0.000203732
-0.00043833
0.000162575
-0.00047465
0.000111245
-0.000504464
4.92989e-05
-0.000527715
-2.15317e-05
-0.000541378
-0.00010683
-0.000539757
-0.000208492
-0.000510075
-0.000337356
-0.0004283
-0.000511399
-0.000277931
-0.00071871
-9.58678e-05
-0.000844263
-0.000609416
0.000217224
-0.000924925
0.000517496
-0.00125497
0.000687281
-0.000972755
0.000749634
-0.000629286
0.000750776
-0.000370355
0.000726591
-0.000199323
0.000693772
-7.73919e-05
0.000655276
2.30837e-05
0.000609926
0.000108988
0.00055956
0.000183702
0.000504841
0.000247382
0.000446465
0.000300718
0.000385062
0.000344284
0.000320689
0.000378728
0.000254241
0.00040292
0.000187356
0.00041559
0.000122284
0.000415974
6.11863e-05
0.000404202
6.53065e-06
0.000381227
-4.18976e-05
0.000351085
-8.24725e-05
0.0003145
-0.000115476
0.000274344
-0.000141025
0.000231462
-0.000158729
0.00018607
-0.000168262
0.00013926
-0.000169121
9.2418e-05
-0.00016202
4.86577e-05
-0.000148913
1.09761e-05
-0.000131246
-2.03758e-05
-0.000111403
-4.36438e-05
-9.05004e-05
-6.00666e-05
-7.07654e-05
-6.91631e-05
-5.46994e-05
-7.17946e-05
-4.3158e-05
-7.11292e-05
-3.53756e-05
-7.08292e-05
-2.85431e-05
-7.40406e-05
-2.03146e-05
-7.99884e-05
-8.9564e-06
-8.7268e-05
7.95032e-06
-9.70062e-05
3.12685e-05
-0.000106118
5.11538e-05
-9.55729e-05
5.82285e-05
-6.07673e-05
5.64459e-05
-3.53041e-05
5.12745e-05
-1.93038e-05
4.50774e-05
-7.32097e-06
3.80263e-05
3.20617e-06
3.15401e-05
1.07226e-05
2.92671e-05
1.213e-05
3.2135e-05
1.05688e-05
3.86931e-05
9.89015e-06
4.57572e-05
1.34218e-05
5.36446e-05
2.00102e-05
6.17597e-05
3.11074e-05
6.7841e-05
4.88798e-05
6.97827e-05
7.34363e-05
6.60404e-05
0.000102471
5.69395e-05
0.000132526
4.29528e-05
0.000161872
2.46545e-05
0.00019054
6.65067e-07
0.000220113
-3.05225e-05
0.000251238
-6.86955e-05
0.000280609
-0.000114019
0.000305634
-0.000164741
0.000322511
-0.000218671
0.000329124
-0.000274279
0.000326091
-0.000330496
0.000313475
-0.000386229
0.000290928
-0.000440581
0.000258083
-0.000492177
0.00021417
-0.000539364
0.000158431
-0.000581336
9.12703e-05
-0.000615602
1.2735e-05
-0.000643059
-7.93729e-05
-0.000660869
-0.000190683
-0.000654324
-0.000343901
-0.000591382
-0.000574342
-0.000435565
-0.000874528
-0.000173507
-0.00110632
-0.000782923
0.00047114
-0.00139606
0.000964501
-0.00174834
0.00107432
-0.00108257
0.00100858
-0.000563544
0.000925473
-0.000287251
0.000850729
-0.00012458
0.000786015
-1.26782e-05
0.000736
7.30962e-05
0.000683355
0.000161635
0.000623921
0.000243136
0.000559535
0.000311769
0.000491904
0.000368348
0.00042021
0.000415978
0.000344513
0.000454426
0.000265996
0.000481436
0.000187267
0.000494319
0.000111062
0.000492181
3.9473e-05
0.000475793
-2.43308e-05
0.000445031
-7.90371e-05
0.00040579
-0.000124154
0.000359617
-0.000160169
0.000310358
-0.000187365
0.000258657
-0.000205717
0.000204422
-0.000213859
0.000147402
-0.000210987
8.95455e-05
-0.000198168
3.58377e-05
-0.00017674
-1.04514e-05
-0.000151171
-4.59446e-05
-0.000121687
-7.31278e-05
-9.13849e-05
-9.03693e-05
-6.43575e-05
-9.61907e-05
-4.50757e-05
-9.10765e-05
-3.53037e-05
-8.09013e-05
-3.12272e-05
-7.49056e-05
-2.57728e-05
-7.9495e-05
-1.58681e-05
-8.9893e-05
-2.32887e-06
-0.000100807
1.67713e-05
-0.000116106
4.04142e-05
-0.000129761
6.1465e-05
-0.000116623
7.08792e-05
-7.01812e-05
6.91272e-05
-3.3552e-05
6.14763e-05
-1.16527e-05
5.17476e-05
2.40788e-06
4.09817e-05
1.39722e-05
2.96142e-05
2.20899e-05
2.25898e-05
1.91542e-05
2.22492e-05
1.0909e-05
2.9587e-05
2.55187e-06
4.3623e-05
-6.14476e-07
6.00293e-05
3.60367e-06
7.69203e-05
1.42164e-05
9.12301e-05
3.45702e-05
9.85725e-05
6.60938e-05
9.75075e-05
0.000103535
8.8965e-05
0.000141068
7.51385e-05
0.000175698
5.71423e-05
0.000208536
3.34236e-05
0.000243831
-2.71193e-07
0.000284933
-4.45577e-05
0.000324895
-9.82389e-05
0.000359315
-0.000158107
0.00038238
-0.000221645
0.000392661
-0.000287366
0.000391812
-0.000354287
0.000380396
-0.000420653
0.000357293
-0.000485716
0.000323146
-0.000548248
0.000276703
-0.000605165
0.000215348
-0.000653851
0.000139957
-0.000698734
5.7618e-05
-0.000754531
-2.35767e-05
-0.00081643
-0.000128784
-0.000885269
-0.000275062
-0.000947703
-0.000511908
-0.00085933
-0.0009629
-0.000412007
-0.00155364
-0.00119493
0.000710227
-0.00210629
0.00141057
-0.00244868
0.00154523
-0.00121723
0.00132268
-0.000340993
0.00111318
-7.77537e-05
0.000996572
-7.9693e-06
0.000916622
6.72719e-05
0.000841119
0.0001486
0.000766957
0.000235798
0.000690943
0.000319149
0.000611964
0.000390748
0.000530279
0.000450034
0.000446973
0.000499282
0.000359173
0.000542228
0.000267547
0.000573063
0.00017537
0.000586497
8.65351e-05
0.000581015
4.20036e-06
0.000558127
-6.86774e-05
0.000517909
-0.00012758
0.000464693
-0.000174321
0.000406358
-0.000212111
0.00034815
-0.000242464
0.000289011
-0.000261851
0.000223809
-0.000266405
0.000151956
-0.000255142
7.8283e-05
-0.000230936
1.16321e-05
-0.000201153
-4.02349e-05
-0.000166682
-8.04165e-05
-0.000129038
-0.000110772
-9.09848e-05
-0.000128422
-5.74366e-05
-0.000129738
-3.24026e-05
-0.00011611
-1.73776e-05
-9.59257e-05
-4.83465e-06
-8.74481e-05
1.21642e-05
-9.64936e-05
3.01291e-05
-0.000107858
4.09329e-05
-0.000111611
4.48862e-05
-0.000120059
4.55094e-05
-0.000130384
4.69029e-05
-0.000118016
4.47357e-05
-6.80135e-05
3.81151e-05
-2.69309e-05
3.05981e-05
-4.1354e-06
2.5465e-05
7.54129e-06
2.19119e-05
1.75256e-05
1.67157e-05
2.72863e-05
9.62301e-06
2.62468e-05
7.57703e-06
1.29546e-05
1.45249e-05
-4.39646e-06
2.81868e-05
-1.42768e-05
4.842e-05
-1.66297e-05
7.63979e-05
-1.37616e-05
0.000106152
4.81555e-06
0.000126498
4.5748e-05
0.000130923
9.91093e-05
0.000120499
0.000151492
0.000102965
0.000193231
8.74163e-05
0.000224085
7.18124e-05
0.000259434
4.27319e-05
0.000314013
-5.52782e-06
0.000373155
-6.75774e-05