/*--------------------------------*- C++ -*----------------------------------*\
| =========                 |                                                 |
| \\      /  F ield         | OpenFOAM: The Open Source CFD Toolbox           |
|  \\    /   O peration     | Version:  2412                                  |
|   \\  /    A nd           | Website:  www.openfoam.com                      |
|    \\/     M anipulation  |                                                 |
\*---------------------------------------------------------------------------*/
FoamFile
{
    version     2.0;
    format      ascii;
    arch        "LSB;label=32;scalar=64";
    class       volScalarField;
    location    "0.2";
    object      p;
}
// * * * * * * * * * * * * * * * * * * * * * * * * * * * * * * * * * * * * * //

dimensions      [1 -1 -2 0 0 0 0];

internalField   nonuniform List<scalar> 
6400
(
9555.87
9555.87
9555.88
9555.88
9555.88
9555.88
9555.88
9555.89
9555.89
9555.89
9555.9
9555.9
9555.91
9555.91
9555.92
9555.92
9555.93
9555.93
9555.94
9555.94
9555.95
9555.95
9555.96
9555.96
9555.97
9555.97
9555.97
9555.98
9555.98
9555.98
9555.99
9555.99
9555.99
9556
9556
9556
9556
9556
9556
9556
9556
9556
9556
9556
9556
9555.99
9555.99
9555.99
9555.99
9555.98
9555.98
9555.97
9555.97
9555.97
9555.96
9555.96
9555.95
9555.95
9555.94
9555.94
9555.93
9555.93
9555.92
9555.92
9555.91
9555.91
9555.9
9555.9
9555.9
9555.89
9555.89
9555.89
9555.89
9555.88
9555.88
9555.88
9555.88
9555.88
9555.88
9555.88
9065.37
9065.37
9065.38
9065.38
9065.38
9065.38
9065.38
9065.39
9065.39
9065.39
9065.4
9065.4
9065.41
9065.41
9065.42
9065.42
9065.42
9065.43
9065.43
9065.44
9065.45
9065.45
9065.46
9065.46
9065.47
9065.47
9065.47
9065.48
9065.48
9065.49
9065.49
9065.49
9065.49
9065.5
9065.5
9065.5
9065.5
9065.5
9065.5
9065.5
9065.5
9065.5
9065.5
9065.5
9065.5
9065.49
9065.49
9065.49
9065.49
9065.48
9065.48
9065.47
9065.47
9065.47
9065.46
9065.46
9065.45
9065.45
9065.44
9065.44
9065.43
9065.43
9065.42
9065.42
9065.41
9065.41
9065.4
9065.4
9065.4
9065.39
9065.39
9065.39
9065.38
9065.38
9065.38
9065.38
9065.38
9065.38
9065.38
9065.38
8574.87
8574.87
8574.87
8574.88
8574.88
8574.88
8574.88
8574.89
8574.89
8574.89
8574.9
8574.9
8574.91
8574.91
8574.91
8574.92
8574.92
8574.93
8574.93
8574.94
8574.95
8574.95
8574.96
8574.96
8574.97
8574.97
8574.97
8574.98
8574.98
8574.99
8574.99
8574.99
8574.99
8575
8575
8575
8575
8575
8575
8575
8575
8575
8575
8575
8575
8575
8574.99
8574.99
8574.99
8574.98
8574.98
8574.98
8574.97
8574.97
8574.96
8574.96
8574.95
8574.95
8574.94
8574.94
8574.93
8574.93
8574.92
8574.92
8574.91
8574.91
8574.9
8574.9
8574.9
8574.89
8574.89
8574.89
8574.88
8574.88
8574.88
8574.88
8574.88
8574.88
8574.88
8574.87
8084.37
8084.37
8084.37
8084.38
8084.38
8084.38
8084.38
8084.38
8084.39
8084.39
8084.4
8084.4
8084.4
8084.41
8084.41
8084.42
8084.42
8084.43
8084.43
8084.44
8084.44
8084.45
8084.46
8084.46
8084.47
8084.47
8084.47
8084.48
8084.48
8084.49
8084.49
8084.49
8084.5
8084.5
8084.5
8084.5
8084.5
8084.5
8084.5
8084.51
8084.5
8084.5
8084.5
8084.5
8084.5
8084.5
8084.49
8084.49
8084.49
8084.48
8084.48
8084.48
8084.47
8084.47
8084.46
8084.46
8084.45
8084.45
8084.44
8084.44
8084.43
8084.43
8084.42
8084.42
8084.41
8084.41
8084.4
8084.4
8084.4
8084.39
8084.39
8084.39
8084.38
8084.38
8084.38
8084.38
8084.38
8084.37
8084.37
8084.37
7593.87
7593.87
7593.87
7593.87
7593.88
7593.88
7593.88
7593.88
7593.89
7593.89
7593.89
7593.9
7593.9
7593.91
7593.91
7593.92
7593.92
7593.93
7593.93
7593.94
7593.94
7593.95
7593.96
7593.96
7593.97
7593.97
7593.98
7593.98
7593.98
7593.99
7593.99
7594
7594
7594
7594
7594
7594.01
7594.01
7594.01
7594.01
7594.01
7594.01
7594.01
7594
7594
7594
7594
7593.99
7593.99
7593.99
7593.98
7593.98
7593.97
7593.97
7593.96
7593.96
7593.95
7593.95
7593.94
7593.94
7593.93
7593.93
7593.92
7593.92
7593.91
7593.91
7593.9
7593.9
7593.89
7593.89
7593.89
7593.88
7593.88
7593.88
7593.88
7593.88
7593.87
7593.87
7593.87
7593.87
7103.37
7103.37
7103.37
7103.37
7103.37
7103.38
7103.38
7103.38
7103.39
7103.39
7103.39
7103.4
7103.4
7103.41
7103.41
7103.42
7103.42
7103.43
7103.43
7103.44
7103.44
7103.45
7103.46
7103.46
7103.47
7103.47
7103.48
7103.48
7103.49
7103.49
7103.49
7103.5
7103.5
7103.5
7103.51
7103.51
7103.51
7103.51
7103.51
7103.51
7103.51
7103.51
7103.51
7103.51
7103.5
7103.5
7103.5
7103.5
7103.49
7103.49
7103.48
7103.48
7103.47
7103.47
7103.46
7103.46
7103.45
7103.45
7103.44
7103.44
7103.43
7103.43
7103.42
7103.42
7103.41
7103.41
7103.4
7103.4
7103.39
7103.39
7103.39
7103.38
7103.38
7103.38
7103.38
7103.37
7103.37
7103.37
7103.37
7103.37
6612.87
6612.87
6612.87
6612.87
6612.87
6612.87
6612.88
6612.88
6612.88
6612.89
6612.89
6612.9
6612.9
6612.91
6612.91
6612.92
6612.92
6612.93
6612.93
6612.94
6612.94
6612.95
6612.96
6612.96
6612.97
6612.97
6612.98
6612.98
6612.99
6612.99
6613
6613
6613
6613.01
6613.01
6613.01
6613.01
6613.01
6613.01
6613.01
6613.01
6613.01
6613.01
6613.01
6613.01
6613.01
6613
6613
6613
6612.99
6612.99
6612.98
6612.98
6612.97
6612.97
6612.96
6612.95
6612.95
6612.94
6612.94
6612.93
6612.93
6612.92
6612.92
6612.91
6612.91
6612.9
6612.9
6612.89
6612.89
6612.88
6612.88
6612.88
6612.88
6612.87
6612.87
6612.87
6612.87
6612.87
6612.87
6122.36
6122.37
6122.37
6122.37
6122.37
6122.37
6122.37
6122.38
6122.38
6122.39
6122.39
6122.39
6122.4
6122.4
6122.41
6122.41
6122.42
6122.43
6122.43
6122.44
6122.44
6122.45
6122.46
6122.46
6122.47
6122.47
6122.48
6122.49
6122.49
6122.5
6122.5
6122.5
6122.51
6122.51
6122.51
6122.52
6122.52
6122.52
6122.52
6122.52
6122.52
6122.52
6122.52
6122.51
6122.51
6122.51
6122.51
6122.5
6122.5
6122.49
6122.49
6122.48
6122.48
6122.47
6122.47
6122.46
6122.46
6122.45
6122.44
6122.44
6122.43
6122.43
6122.42
6122.41
6122.41
6122.4
6122.4
6122.4
6122.39
6122.39
6122.38
6122.38
6122.38
6122.37
6122.37
6122.37
6122.37
6122.37
6122.36
6122.36
5631.86
5631.86
5631.86
5631.86
5631.87
5631.87
5631.87
5631.87
5631.88
5631.88
5631.89
5631.89
5631.9
5631.9
5631.91
5631.91
5631.92
5631.93
5631.93
5631.94
5631.94
5631.95
5631.96
5631.96
5631.97
5631.98
5631.98
5631.99
5631.99
5632
5632
5632.01
5632.01
5632.01
5632.02
5632.02
5632.02
5632.02
5632.02
5632.02
5632.02
5632.02
5632.02
5632.02
5632.02
5632.01
5632.01
5632.01
5632
5632
5631.99
5631.99
5631.98
5631.98
5631.97
5631.96
5631.96
5631.95
5631.94
5631.94
5631.93
5631.93
5631.92
5631.91
5631.91
5631.9
5631.9
5631.89
5631.89
5631.88
5631.88
5631.88
5631.87
5631.87
5631.87
5631.87
5631.86
5631.86
5631.86
5631.86
5141.36
5141.36
5141.36
5141.36
5141.36
5141.37
5141.37
5141.37
5141.38
5141.38
5141.38
5141.39
5141.39
5141.4
5141.41
5141.41
5141.42
5141.42
5141.43
5141.44
5141.44
5141.45
5141.46
5141.46
5141.47
5141.48
5141.48
5141.49
5141.5
5141.5
5141.51
5141.51
5141.52
5141.52
5141.52
5141.53
5141.53
5141.53
5141.53
5141.53
5141.53
5141.53
5141.53
5141.53
5141.52
5141.52
5141.52
5141.51
5141.51
5141.5
5141.5
5141.49
5141.48
5141.48
5141.47
5141.46
5141.46
5141.45
5141.45
5141.44
5141.43
5141.43
5141.42
5141.41
5141.41
5141.4
5141.4
5141.39
5141.39
5141.38
5141.38
5141.37
5141.37
5141.37
5141.37
5141.36
5141.36
5141.36
5141.36
5141.36
4650.85
4650.85
4650.86
4650.86
4650.86
4650.86
4650.87
4650.87
4650.87
4650.88
4650.88
4650.89
4650.89
4650.9
4650.9
4650.91
4650.92
4650.92
4650.93
4650.94
4650.94
4650.95
4650.96
4650.97
4650.97
4650.98
4650.99
4650.99
4651
4651.01
4651.01
4651.02
4651.02
4651.02
4651.03
4651.03
4651.03
4651.04
4651.04
4651.04
4651.04
4651.04
4651.03
4651.03
4651.03
4651.03
4651.02
4651.02
4651.01
4651.01
4651
4650.99
4650.99
4650.98
4650.97
4650.97
4650.96
4650.95
4650.95
4650.94
4650.93
4650.93
4650.92
4650.91
4650.91
4650.9
4650.89
4650.89
4650.88
4650.88
4650.88
4650.87
4650.87
4650.86
4650.86
4650.86
4650.86
4650.86
4650.86
4650.86
4160.35
4160.35
4160.35
4160.35
4160.36
4160.36
4160.36
4160.36
4160.37
4160.37
4160.38
4160.38
4160.39
4160.4
4160.4
4160.41
4160.42
4160.42
4160.43
4160.44
4160.44
4160.45
4160.46
4160.47
4160.47
4160.48
4160.49
4160.5
4160.5
4160.51
4160.52
4160.52
4160.53
4160.53
4160.53
4160.54
4160.54
4160.54
4160.54
4160.54
4160.54
4160.54
4160.54
4160.54
4160.54
4160.53
4160.53
4160.52
4160.52
4160.51
4160.5
4160.5
4160.49
4160.48
4160.48
4160.47
4160.46
4160.45
4160.45
4160.44
4160.43
4160.43
4160.42
4160.41
4160.41
4160.4
4160.39
4160.39
4160.38
4160.38
4160.37
4160.37
4160.36
4160.36
4160.36
4160.36
4160.35
4160.35
4160.35
4160.35
3669.85
3669.85
3669.85
3669.85
3669.85
3669.85
3669.86
3669.86
3669.86
3669.87
3669.87
3669.88
3669.89
3669.89
3669.9
3669.91
3669.91
3669.92
3669.93
3669.94
3669.94
3669.95
3669.96
3669.97
3669.98
3669.98
3669.99
3670
3670.01
3670.01
3670.02
3670.03
3670.03
3670.04
3670.04
3670.04
3670.05
3670.05
3670.05
3670.05
3670.05
3670.05
3670.05
3670.05
3670.04
3670.04
3670.03
3670.03
3670.02
3670.02
3670.01
3670
3670
3669.99
3669.98
3669.97
3669.96
3669.96
3669.95
3669.94
3669.93
3669.93
3669.92
3669.91
3669.9
3669.9
3669.89
3669.88
3669.88
3669.87
3669.87
3669.86
3669.86
3669.86
3669.85
3669.85
3669.85
3669.85
3669.85
3669.85
3179.34
3179.34
3179.34
3179.34
3179.35
3179.35
3179.35
3179.36
3179.36
3179.37
3179.37
3179.38
3179.38
3179.39
3179.4
3179.4
3179.41
3179.42
3179.43
3179.44
3179.44
3179.45
3179.46
3179.47
3179.48
3179.49
3179.5
3179.5
3179.51
3179.52
3179.53
3179.53
3179.54
3179.54
3179.55
3179.55
3179.56
3179.56
3179.56
3179.56
3179.56
3179.56
3179.56
3179.55
3179.55
3179.55
3179.54
3179.54
3179.53
3179.52
3179.52
3179.51
3179.5
3179.49
3179.48
3179.47
3179.47
3179.46
3179.45
3179.44
3179.43
3179.42
3179.42
3179.41
3179.4
3179.39
3179.39
3179.38
3179.38
3179.37
3179.37
3179.36
3179.36
3179.35
3179.35
3179.35
3179.35
3179.34
3179.34
3179.34
2688.83
2688.83
2688.84
2688.84
2688.84
2688.84
2688.85
2688.85
2688.86
2688.86
2688.87
2688.87
2688.88
2688.89
2688.89
2688.9
2688.91
2688.92
2688.93
2688.94
2688.94
2688.95
2688.96
2688.97
2688.98
2688.99
2689
2689.01
2689.02
2689.02
2689.03
2689.04
2689.05
2689.05
2689.06
2689.06
2689.06
2689.07
2689.07
2689.07
2689.07
2689.07
2689.07
2689.06
2689.06
2689.05
2689.05
2689.04
2689.04
2689.03
2689.02
2689.01
2689
2689
2688.99
2688.98
2688.97
2688.96
2688.95
2688.94
2688.93
2688.92
2688.92
2688.91
2688.9
2688.89
2688.89
2688.88
2688.87
2688.87
2688.86
2688.86
2688.85
2688.85
2688.85
2688.84
2688.84
2688.84
2688.84
2688.84
2198.33
2198.33
2198.33
2198.33
2198.33
2198.34
2198.34
2198.35
2198.35
2198.36
2198.36
2198.37
2198.38
2198.38
2198.39
2198.4
2198.41
2198.42
2198.43
2198.44
2198.44
2198.45
2198.46
2198.47
2198.48
2198.49
2198.5
2198.51
2198.52
2198.53
2198.54
2198.55
2198.55
2198.56
2198.57
2198.57
2198.57
2198.58
2198.58
2198.58
2198.58
2198.58
2198.58
2198.57
2198.57
2198.56
2198.56
2198.55
2198.54
2198.54
2198.53
2198.52
2198.51
2198.5
2198.49
2198.48
2198.47
2198.46
2198.45
2198.44
2198.43
2198.42
2198.41
2198.41
2198.4
2198.39
2198.38
2198.37
2198.37
2198.36
2198.36
2198.35
2198.35
2198.34
2198.34
2198.34
2198.33
2198.33
2198.33
2198.33
1707.82
1707.82
1707.82
1707.83
1707.83
1707.83
1707.84
1707.84
1707.84
1707.85
1707.86
1707.86
1707.87
1707.88
1707.89
1707.9
1707.91
1707.91
1707.92
1707.93
1707.94
1707.95
1707.96
1707.98
1707.99
1708
1708.01
1708.02
1708.03
1708.04
1708.05
1708.05
1708.06
1708.07
1708.07
1708.08
1708.08
1708.09
1708.09
1708.09
1708.09
1708.09
1708.09
1708.08
1708.08
1708.07
1708.07
1708.06
1708.05
1708.04
1708.03
1708.03
1708.02
1708
1707.99
1707.98
1707.97
1707.96
1707.95
1707.94
1707.93
1707.92
1707.91
1707.9
1707.89
1707.89
1707.88
1707.87
1707.86
1707.86
1707.85
1707.85
1707.84
1707.84
1707.83
1707.83
1707.83
1707.83
1707.83
1707.82
1217.31
1217.32
1217.32
1217.32
1217.32
1217.32
1217.33
1217.33
1217.34
1217.34
1217.35
1217.36
1217.37
1217.37
1217.38
1217.39
1217.4
1217.41
1217.42
1217.43
1217.44
1217.45
1217.47
1217.48
1217.49
1217.5
1217.51
1217.52
1217.53
1217.54
1217.55
1217.56
1217.57
1217.58
1217.59
1217.59
1217.6
1217.6
1217.6
1217.6
1217.6
1217.6
1217.6
1217.6
1217.59
1217.58
1217.58
1217.57
1217.56
1217.55
1217.54
1217.53
1217.52
1217.51
1217.5
1217.49
1217.48
1217.46
1217.45
1217.44
1217.43
1217.42
1217.41
1217.4
1217.39
1217.38
1217.37
1217.37
1217.36
1217.35
1217.35
1217.34
1217.34
1217.33
1217.33
1217.32
1217.32
1217.32
1217.32
1217.32
726.807
726.808
726.809
726.811
726.814
726.817
726.822
726.827
726.832
726.838
726.845
726.853
726.861
726.869
726.878
726.888
726.898
726.909
726.92
726.931
726.943
726.955
726.967
726.979
726.991
727.003
727.015
727.027
727.039
727.05
727.061
727.071
727.08
727.089
727.096
727.102
727.108
727.112
727.115
727.116
727.116
727.115
727.112
727.108
727.102
727.096
727.089
727.08
727.071
727.061
727.05
727.039
727.027
727.015
727.003
726.991
726.979
726.966
726.954
726.943
726.931
726.92
726.909
726.898
726.888
726.879
726.87
726.861
726.853
726.846
726.839
726.834
726.828
726.824
726.82
726.816
726.814
726.812
726.81
726.809
236.296
236.297
236.298
236.301
236.304
236.307
236.312
236.317
236.323
236.329
236.337
236.344
236.353
236.362
236.372
236.382
236.393
236.404
236.416
236.429
236.441
236.455
236.469
236.483
236.498
236.512
236.527
236.541
236.555
236.569
236.582
236.594
236.606
236.616
236.625
236.633
236.64
236.645
236.648
236.65
236.65
236.649
236.645
236.641
236.634
236.626
236.617
236.607
236.596
236.583
236.57
236.557
236.543
236.528
236.514
236.499
236.484
236.47
236.456
236.442
236.429
236.417
236.405
236.394
236.383
236.373
236.363
236.354
236.345
236.337
236.33
236.324
236.319
236.314
236.31
236.306
236.303
236.301
236.3
236.299
-9.21167
-9.2106
-9.20922
-9.20688
-9.20362
-9.19955
-9.19471
-9.18913
-9.18282
-9.1758
-9.16807
-9.15963
-9.15047
-9.14062
-9.13007
-9.11887
-9.10706
-9.09469
-9.0818
-9.06843
-9.05457
-9.04021
-9.02525
-9.00982
-8.99412
-8.97831
-8.96254
-8.94695
-8.93172
-8.91701
-8.90296
-8.88974
-8.87747
-8.8663
-8.85636
-8.84778
-8.84069
-8.83522
-8.83147
-8.82954
-8.82944
-8.83119
-8.83472
-8.83995
-8.84679
-8.85513
-8.86489
-8.87594
-8.88814
-8.90134
-8.91537
-8.93005
-8.94521
-8.96074
-8.97653
-8.99238
-9.00815
-9.02371
-9.03886
-9.05339
-9.06732
-9.08077
-9.09372
-9.10605
-9.11775
-9.12884
-9.13934
-9.14924
-9.1584
-9.16674
-9.17433
-9.18119
-9.18726
-9.19251
-9.19698
-9.20071
-9.20377
-9.20612
-9.20767
-9.20839
-9.71643
-9.71523
-9.7135
-9.71097
-9.70753
-9.70319
-9.69802
-9.69203
-9.68527
-9.67773
-9.66942
-9.66034
-9.65048
-9.63985
-9.62848
-9.61638
-9.60362
-9.59025
-9.57631
-9.56187
-9.54698
-9.53173
-9.51627
-9.50058
-9.4847
-9.46873
-9.4528
-9.43706
-9.42167
-9.40678
-9.39257
-9.37918
-9.36676
-9.35543
-9.34534
-9.33663
-9.32942
-9.32387
-9.32007
-9.31812
-9.31803
-9.31981
-9.32339
-9.32869
-9.33562
-9.34407
-9.35396
-9.36517
-9.37753
-9.39089
-9.40507
-9.41992
-9.43525
-9.45094
-9.46688
-9.48292
-9.49887
-9.51462
-9.53011
-9.54539
-9.56033
-9.57481
-9.5888
-9.60216
-9.61484
-9.62683
-9.63814
-9.64877
-9.65867
-9.66769
-9.67584
-9.68318
-9.6897
-9.69535
-9.70017
-9.70424
-9.70758
-9.71016
-9.71187
-9.71258
-10.2084
-10.2075
-10.2057
-10.2031
-10.1996
-10.1953
-10.1901
-10.1841
-10.1774
-10.1698
-10.1615
-10.1524
-10.1425
-10.1318
-10.1204
-10.1082
-10.0954
-10.082
-10.068
-10.0534
-10.0385
-10.0231
-10.0074
-9.99151
-9.97539
-9.95917
-9.94298
-9.92695
-9.91126
-9.89607
-9.88154
-9.86784
-9.85511
-9.8435
-9.83315
-9.8242
-9.8168
-9.8111
-9.80721
-9.8052
-9.80513
-9.80695
-9.81062
-9.81604
-9.82313
-9.8318
-9.84193
-9.85341
-9.86607
-9.87974
-9.89421
-9.90935
-9.925
-9.94099
-9.95721
-9.97351
-9.98974
-10.0057
-10.0214
-10.0369
-10.0519
-10.0665
-10.0806
-10.094
-10.1067
-10.1188
-10.1301
-10.1407
-10.1506
-10.1596
-10.1679
-10.1753
-10.1818
-10.1874
-10.1923
-10.1964
-10.1996
-10.202
-10.2038
-10.2046
-10.7013
-10.7004
-10.6987
-10.696
-10.6926
-10.6882
-10.6831
-10.6771
-10.6703
-10.6627
-10.6544
-10.6452
-10.6353
-10.6246
-10.6131
-10.6008
-10.5879
-10.5744
-10.5602
-10.5455
-10.5303
-10.5148
-10.4988
-10.4826
-10.4662
-10.4496
-10.433
-10.4165
-10.4004
-10.3847
-10.3697
-10.3555
-10.3423
-10.3303
-10.3195
-10.3102
-10.3025
-10.2966
-10.2926
-10.2905
-10.2904
-10.2923
-10.2961
-10.3017
-10.309
-10.318
-10.3285
-10.3405
-10.3536
-10.3677
-10.3827
-10.3982
-10.4143
-10.4308
-10.4474
-10.4641
-10.4807
-10.497
-10.5131
-10.5287
-10.544
-10.5588
-10.573
-10.5864
-10.5993
-10.6114
-10.6228
-10.6335
-10.6434
-10.6525
-10.6608
-10.6683
-10.6749
-10.6806
-10.6855
-10.6895
-10.6926
-10.695
-10.6967
-10.6975
-11.195
-11.1942
-11.1925
-11.1899
-11.1864
-11.1821
-11.1769
-11.1709
-11.1641
-11.1565
-11.1481
-11.1389
-11.1289
-11.1181
-11.1065
-11.0942
-11.0811
-11.0674
-11.053
-11.0381
-11.0227
-11.0068
-10.9905
-10.9739
-10.957
-10.9399
-10.9228
-10.9057
-10.889
-10.8727
-10.8571
-10.8422
-10.8284
-10.8158
-10.8044
-10.7947
-10.7866
-10.7803
-10.7761
-10.7738
-10.7737
-10.7757
-10.7796
-10.7855
-10.7932
-10.8027
-10.8138
-10.8263
-10.84
-10.8548
-10.8704
-10.8866
-10.9033
-10.9204
-10.9376
-10.9548
-10.9718
-10.9885
-11.005
-11.021
-11.0365
-11.0515
-11.0659
-11.0795
-11.0925
-11.1048
-11.1163
-11.1271
-11.1371
-11.1463
-11.1547
-11.1622
-11.1687
-11.1743
-11.1792
-11.1833
-11.1865
-11.1888
-11.1905
-11.1913
-11.6896
-11.6888
-11.6871
-11.6845
-11.681
-11.6767
-11.6716
-11.6656
-11.6588
-11.6512
-11.6428
-11.6335
-11.6234
-11.6125
-11.6008
-11.5883
-11.575
-11.5611
-11.5465
-11.5313
-11.5155
-11.4993
-11.4825
-11.4654
-11.4479
-11.4302
-11.4124
-11.3947
-11.3771
-11.3601
-11.3436
-11.3279
-11.3133
-11.2999
-11.2878
-11.2774
-11.2688
-11.2621
-11.2575
-11.2552
-11.255
-11.257
-11.2612
-11.2674
-11.2757
-11.2858
-11.2976
-11.3109
-11.3255
-11.341
-11.3574
-11.3745
-11.3919
-11.4097
-11.4276
-11.4455
-11.4631
-11.4803
-11.4972
-11.5137
-11.5296
-11.5448
-11.5593
-11.5732
-11.5866
-11.599
-11.6107
-11.6215
-11.6316
-11.6408
-11.6492
-11.6567
-11.6633
-11.669
-11.6739
-11.6779
-11.6811
-11.6835
-11.6852
-11.6861
-12.1851
-12.1842
-12.1825
-12.1799
-12.1765
-12.1722
-12.1671
-12.1612
-12.1544
-12.1468
-12.1383
-12.129
-12.1188
-12.1077
-12.0958
-12.0832
-12.0697
-12.0555
-12.0407
-12.0251
-12.009
-11.9922
-11.9749
-11.9572
-11.939
-11.9205
-11.9019
-11.8833
-11.8648
-11.8468
-11.8293
-11.8126
-11.797
-11.7826
-11.7696
-11.7584
-11.7491
-11.7419
-11.7369
-11.7343
-11.734
-11.7362
-11.7407
-11.7475
-11.7564
-11.7673
-11.78
-11.7942
-11.8098
-11.8264
-11.8438
-11.8618
-11.8803
-11.8989
-11.9176
-11.9362
-11.9546
-11.9724
-11.9898
-12.0068
-12.0231
-12.0388
-12.0536
-12.0677
-12.0812
-12.094
-12.1059
-12.1168
-12.1269
-12.1362
-12.1446
-12.1521
-12.1587
-12.1644
-12.1693
-12.1734
-12.1767
-12.1791
-12.1808
-12.1817
-12.6813
-12.6804
-12.6787
-12.6762
-12.6728
-12.6686
-12.6636
-12.6576
-12.6509
-12.6432
-12.6347
-12.6253
-12.615
-12.6038
-12.5918
-12.5789
-12.5652
-12.5508
-12.5356
-12.5196
-12.503
-12.4857
-12.4678
-12.4493
-12.4303
-12.4109
-12.3914
-12.3717
-12.3522
-12.3329
-12.3142
-12.2963
-12.2794
-12.2638
-12.2498
-12.2375
-12.2273
-12.2194
-12.2139
-12.2111
-12.2108
-12.2132
-12.2181
-12.2255
-12.2352
-12.2471
-12.2609
-12.2763
-12.2931
-12.3109
-12.3295
-12.3487
-12.3683
-12.388
-12.4077
-12.4271
-12.4462
-12.4649
-12.483
-12.5005
-12.5173
-12.5334
-12.5487
-12.5632
-12.5769
-12.5899
-12.6019
-12.6129
-12.6231
-12.6325
-12.6409
-12.6483
-12.6548
-12.6607
-12.6657
-12.6698
-12.6732
-12.6757
-12.6773
-12.6782
-13.1784
-13.1775
-13.1759
-13.1734
-13.17
-13.1659
-13.1608
-13.155
-13.1482
-13.1405
-13.132
-13.1225
-13.1121
-13.1007
-13.0885
-13.0755
-13.0616
-13.0468
-13.0313
-13.0149
-12.9977
-12.9798
-12.9611
-12.9418
-12.9219
-12.9015
-12.8808
-12.86
-12.8391
-12.8185
-12.7984
-12.779
-12.7606
-12.7435
-12.7281
-12.7146
-12.7033
-12.6946
-12.6885
-12.6853
-12.6851
-12.6877
-12.6931
-12.7013
-12.712
-12.7251
-12.7402
-12.7571
-12.7753
-12.7946
-12.8147
-12.8352
-12.8561
-12.877
-12.8978
-12.9184
-12.9384
-12.9578
-12.9767
-12.9949
-13.0123
-13.0289
-13.0446
-13.0594
-13.0733
-13.0865
-13.0988
-13.11
-13.1202
-13.1295
-13.1379
-13.1453
-13.152
-13.1579
-13.163
-13.1672
-13.1706
-13.1731
-13.1747
-13.1755
-13.6764
-13.6755
-13.6739
-13.6714
-13.6681
-13.664
-13.659
-13.6532
-13.6464
-13.6387
-13.6301
-13.6205
-13.61
-13.5986
-13.5862
-13.573
-13.5588
-13.5438
-13.5278
-13.511
-13.4932
-13.4746
-13.4551
-13.4349
-13.414
-13.3925
-13.3705
-13.3483
-13.3259
-13.3037
-13.2818
-13.2607
-13.2405
-13.2217
-13.2046
-13.1895
-13.177
-13.1672
-13.1604
-13.1568
-13.1565
-13.1594
-13.1655
-13.1747
-13.1867
-13.2012
-13.218
-13.2366
-13.2565
-13.2775
-13.2993
-13.3215
-13.3439
-13.3662
-13.3883
-13.4099
-13.4311
-13.4515
-13.4711
-13.49
-13.508
-13.5251
-13.5412
-13.5564
-13.5707
-13.5839
-13.5963
-13.6077
-13.6181
-13.6274
-13.6359
-13.6434
-13.6501
-13.6561
-13.6612
-13.6654
-13.6688
-13.6713
-13.6729
-13.6737
-14.1752
-14.1744
-14.1727
-14.1703
-14.1671
-14.163
-14.158
-14.1522
-14.1455
-14.1378
-14.1291
-14.1195
-14.1089
-14.0973
-14.0848
-14.0714
-14.057
-14.0416
-14.0253
-14.0079
-13.9895
-13.9702
-13.9498
-13.9286
-13.9066
-13.8838
-13.8605
-13.8366
-13.8126
-13.7885
-13.7647
-13.7414
-13.7191
-13.6982
-13.6791
-13.6622
-13.648
-13.637
-13.6293
-13.6252
-13.6248
-13.6281
-13.635
-13.6454
-13.659
-13.6753
-13.6941
-13.7147
-13.7368
-13.7599
-13.7836
-13.8077
-13.8318
-13.8558
-13.8792
-13.9021
-13.9243
-13.9457
-13.9663
-13.9858
-14.0045
-14.0222
-14.0387
-14.0542
-14.0689
-14.0824
-14.0948
-14.1063
-14.1169
-14.1263
-14.1348
-14.1424
-14.1492
-14.1551
-14.1602
-14.1645
-14.1677
-14.1702
-14.1718
-14.1726
-14.675
-14.6741
-14.6725
-14.6701
-14.6669
-14.6629
-14.6579
-14.6521
-14.6454
-14.6377
-14.629
-14.6194
-14.6087
-14.5971
-14.5845
-14.5709
-14.5562
-14.5405
-14.5237
-14.5059
-14.4868
-14.4667
-14.4455
-14.4232
-14.4
-14.3758
-14.3509
-14.3253
-14.2993
-14.273
-14.2469
-14.2213
-14.1965
-14.173
-14.1515
-14.1324
-14.1162
-14.1035
-14.0946
-14.0899
-14.0894
-14.0933
-14.1012
-14.1131
-14.1286
-14.1472
-14.1684
-14.1915
-14.2161
-14.2417
-14.2677
-14.294
-14.3201
-14.3458
-14.3708
-14.395
-14.4184
-14.4408
-14.4624
-14.4826
-14.5019
-14.5202
-14.5374
-14.5532
-14.568
-14.5818
-14.5945
-14.6061
-14.6166
-14.6262
-14.6347
-14.6423
-14.649
-14.655
-14.6601
-14.6643
-14.6676
-14.67
-14.6715
-14.6723
-15.1756
-15.1748
-15.1732
-15.1708
-15.1676
-15.1636
-15.1587
-15.1529
-15.1462
-15.1385
-15.1299
-15.1202
-15.1095
-15.0979
-15.0851
-15.0714
-15.0565
-15.0405
-15.0233
-15.0049
-14.9852
-14.9644
-14.9422
-14.9189
-14.8943
-14.8687
-14.842
-14.8145
-14.7863
-14.7576
-14.7288
-14.7003
-14.6726
-14.6462
-14.6216
-14.5997
-14.5811
-14.5664
-14.556
-14.5505
-14.5499
-14.5544
-14.5637
-14.5775
-14.5954
-14.6167
-14.6408
-14.6669
-14.6945
-14.7229
-14.7517
-14.7805
-14.8088
-14.8365
-14.8632
-14.8889
-14.9135
-14.937
-14.9595
-14.9806
-15.0005
-15.0191
-15.0368
-15.0532
-15.0683
-15.0822
-15.095
-15.1067
-15.1174
-15.127
-15.1355
-15.143
-15.1497
-15.1557
-15.1608
-15.165
-15.1682
-15.1706
-15.1721
-15.1728
-15.6771
-15.6763
-15.6748
-15.6724
-15.6692
-15.6652
-15.6604
-15.6546
-15.6479
-15.6402
-15.6316
-15.622
-15.6113
-15.5997
-15.5869
-15.573
-15.5579
-15.5416
-15.524
-15.5051
-15.4848
-15.4632
-15.4402
-15.4157
-15.3898
-15.3626
-15.3341
-15.3045
-15.2738
-15.2424
-15.2106
-15.1788
-15.1476
-15.1175
-15.0894
-15.064
-15.0423
-15.025
-15.0128
-15.0062
-15.0055
-15.0108
-15.0218
-15.038
-15.0588
-15.0835
-15.1112
-15.1409
-15.172
-15.2038
-15.2357
-15.2673
-15.2982
-15.3281
-15.3568
-15.384
-15.4099
-15.4344
-15.4577
-15.4796
-15.5002
-15.5194
-15.5374
-15.5542
-15.5696
-15.5837
-15.5966
-15.6084
-15.6191
-15.6286
-15.6371
-15.6447
-15.6514
-15.6573
-15.6623
-15.6664
-15.6696
-15.6719
-15.6734
-15.6741
-16.1795
-16.1787
-16.1772
-16.1748
-16.1717
-16.1677
-16.1629
-16.1571
-16.1505
-16.1429
-16.1343
-16.1248
-16.1142
-16.1025
-16.0897
-16.0757
-16.0604
-16.0439
-16.0259
-16.0066
-15.9858
-15.9635
-15.9395
-15.914
-15.8868
-15.8579
-15.8275
-15.7956
-15.7623
-15.7278
-15.6926
-15.6569
-15.6216
-15.5871
-15.5546
-15.5249
-15.4993
-15.4787
-15.4641
-15.4562
-15.4554
-15.4617
-15.4749
-15.4941
-15.5187
-15.5475
-15.5795
-15.6136
-15.6488
-15.6845
-15.7201
-15.7548
-15.7885
-15.8207
-15.8515
-15.8806
-15.9078
-15.9335
-15.9575
-15.98
-16.0012
-16.021
-16.0394
-16.0564
-16.072
-16.0862
-16.0992
-16.111
-16.1217
-16.1313
-16.1397
-16.1473
-16.1539
-16.1597
-16.1646
-16.1686
-16.1717
-16.174
-16.1755
-16.1762
-16.6826
-16.6819
-16.6803
-16.678
-16.6749
-16.671
-16.6662
-16.6605
-16.654
-16.6465
-16.638
-16.6286
-16.6181
-16.6065
-16.5937
-16.5796
-16.5642
-16.5475
-16.5293
-16.5096
-16.4883
-16.4653
-16.4406
-16.414
-16.3855
-16.355
-16.3227
-16.2883
-16.2521
-16.2143
-16.1751
-16.135
-16.0947
-16.055
-16.017
-15.982
-15.9515
-15.9267
-15.9091
-15.8995
-15.8985
-15.9062
-15.9221
-15.9453
-15.9746
-16.0085
-16.0458
-16.0852
-16.1253
-16.1656
-16.2051
-16.2435
-16.2802
-16.315
-16.3479
-16.3788
-16.4076
-16.4344
-16.4592
-16.4823
-16.5038
-16.5239
-16.5426
-16.5598
-16.5755
-16.5898
-16.6028
-16.6147
-16.6253
-16.6348
-16.6432
-16.6507
-16.6572
-16.6629
-16.6677
-16.6716
-16.6747
-16.6769
-16.6784
-16.6791
-17.1866
-17.1858
-17.1843
-17.182
-17.179
-17.1751
-17.1704
-17.1648
-17.1584
-17.151
-17.1427
-17.1334
-17.1231
-17.1116
-17.0988
-17.0848
-17.0694
-17.0525
-17.0342
-17.0142
-16.9925
-16.969
-16.9435
-16.916
-16.8863
-16.8543
-16.82
-16.7831
-16.7438
-16.7023
-16.6587
-16.6135
-16.5674
-16.5213
-16.4766
-16.435
-16.3981
-16.368
-16.3463
-16.3345
-16.3334
-16.3429
-16.3624
-16.3908
-16.4262
-16.4667
-16.5106
-16.5562
-16.6022
-16.6476
-16.6916
-16.7337
-16.7737
-16.8112
-16.8462
-16.8789
-16.9093
-16.9373
-16.9628
-16.9863
-17.0081
-17.0284
-17.0472
-17.0645
-17.0803
-17.0946
-17.1076
-17.1194
-17.13
-17.1394
-17.1477
-17.155
-17.1613
-17.1669
-17.1715
-17.1754
-17.1784
-17.1807
-17.1821
-17.1829
-17.6912
-17.6905
-17.689
-17.6868
-17.6838
-17.6801
-17.6754
-17.67
-17.6637
-17.6565
-17.6484
-17.6393
-17.6291
-17.6177
-17.6051
-17.5912
-17.5759
-17.5591
-17.5407
-17.5206
-17.4986
-17.4748
-17.4487
-17.4204
-17.3896
-17.3561
-17.3197
-17.2805
-17.2381
-17.1925
-17.144
-17.093
-17.0401
-16.9865
-16.9336
-16.8835
-16.8386
-16.8013
-16.7743
-16.7595
-16.7581
-16.7702
-16.7947
-16.8299
-16.8732
-16.9221
-16.9741
-17.0273
-17.0801
-17.1314
-17.1803
-17.2265
-17.2697
-17.3099
-17.3471
-17.3814
-17.4129
-17.442
-17.4684
-17.4924
-17.5143
-17.5345
-17.5533
-17.5706
-17.5864
-17.6006
-17.6135
-17.6252
-17.6357
-17.6449
-17.653
-17.6602
-17.6664
-17.6717
-17.6763
-17.6801
-17.683
-17.6852
-17.6866
-17.6873
-18.1966
-18.1959
-18.1945
-18.1923
-18.1894
-18.1858
-18.1813
-18.176
-18.1699
-18.1629
-18.155
-18.1462
-18.1362
-18.125
-18.1127
-18.099
-18.0839
-18.0672
-18.0489
-18.0289
-18.0069
-17.9828
-17.9565
-17.9276
-17.8959
-17.8611
-17.823
-17.7813
-17.7356
-17.6859
-17.632
-17.5744
-17.5138
-17.4511
-17.3882
-17.3275
-17.272
-17.2253
-17.1909
-17.1719
-17.1702
-17.1858
-17.2172
-17.2616
-17.3153
-17.3748
-17.437
-17.4993
-17.5599
-17.6178
-17.6722
-17.7227
-17.7691
-17.8116
-17.8508
-17.8867
-17.9194
-17.9491
-17.9761
-18.0004
-18.0223
-18.0424
-18.061
-18.0782
-18.0937
-18.1078
-18.1206
-18.132
-18.1423
-18.1513
-18.1593
-18.1662
-18.1723
-18.1775
-18.1819
-18.1856
-18.1884
-18.1905
-18.1919
-18.1925
-18.7026
-18.7019
-18.7006
-18.6985
-18.6957
-18.6922
-18.6879
-18.6828
-18.677
-18.6702
-18.6626
-18.654
-18.6443
-18.6335
-18.6215
-18.6081
-18.5934
-18.5771
-18.5591
-18.5393
-18.5175
-18.4935
-18.467
-18.4378
-18.4055
-18.3698
-18.3301
-18.2861
-18.2373
-18.1833
-18.1239
-18.0592
-17.9897
-17.9165
-17.8413
-17.767
-17.6976
-17.6379
-17.5932
-17.5683
-17.5661
-17.5867
-17.6278
-17.6847
-17.7522
-17.8254
-17.9001
-17.9733
-18.0431
-18.1081
-18.1682
-18.2231
-18.273
-18.3177
-18.3583
-18.3953
-18.4288
-18.4591
-18.4862
-18.5106
-18.5325
-18.5523
-18.5705
-18.5873
-18.6025
-18.6163
-18.6287
-18.6399
-18.6499
-18.6587
-18.6664
-18.6732
-18.679
-18.6841
-18.6883
-18.6918
-18.6945
-18.6965
-18.6978
-18.6984
-19.2092
-19.2086
-19.2073
-19.2054
-19.2027
-19.1993
-19.1952
-19.1904
-19.1848
-19.1784
-19.1711
-19.1628
-19.1536
-19.1432
-19.1316
-19.1187
-19.1045
-19.0887
-19.0712
-19.0519
-19.0305
-19.0069
-18.9807
-18.9515
-18.919
-18.8827
-18.8418
-18.7959
-18.7444
-18.6862
-18.6212
-18.5491
-18.4699
-18.3844
-18.2943
-18.2029
-18.1149
-18.0371
-17.9775
-17.9438
-17.9407
-17.9688
-18.0238
-18.0983
-18.1844
-18.275
-18.3651
-18.4512
-18.5311
-18.6041
-18.6698
-18.7287
-18.7814
-18.8284
-18.8702
-18.9078
-18.9417
-18.9722
-18.9993
-19.0233
-19.0448
-19.0642
-19.0818
-19.0979
-19.1126
-19.1259
-19.138
-19.1489
-19.1585
-19.1671
-19.1745
-19.181
-19.1866
-19.1914
-19.1954
-19.1987
-19.2013
-19.2031
-19.2043
-19.2049
-19.7165
-19.7159
-19.7147
-19.7128
-19.7103
-19.7071
-19.7032
-19.6987
-19.6935
-19.6874
-19.6805
-19.6727
-19.6639
-19.654
-19.643
-19.6308
-19.6172
-19.6021
-19.5854
-19.5668
-19.5461
-19.5232
-19.4976
-19.469
-19.4368
-19.4003
-19.3587
-19.3114
-19.2573
-19.196
-19.126
-19.0465
-18.9571
-18.8578
-18.75
-18.6367
-18.5238
-18.4204
-18.3386
-18.2912
-18.287
-18.3266
-18.4025
-18.5022
-18.6134
-18.7263
-18.8348
-18.9354
-19.0263
-19.1072
-19.1785
-19.2411
-19.2961
-19.3445
-19.387
-19.4246
-19.4583
-19.4884
-19.5151
-19.5385
-19.5593
-19.578
-19.5949
-19.6102
-19.6243
-19.637
-19.6485
-19.6589
-19.6681
-19.6763
-19.6834
-19.6895
-19.6948
-19.6993
-19.7031
-19.7063
-19.7087
-19.7104
-19.7115
-19.712
-20.2242
-20.2237
-20.2225
-20.2207
-20.2184
-20.2154
-20.2119
-20.2077
-20.2028
-20.1972
-20.1908
-20.1835
-20.1753
-20.1661
-20.1558
-20.1443
-20.1315
-20.1173
-20.1016
-20.084
-20.0644
-20.0426
-20.0181
-19.9905
-19.9591
-19.9231
-19.8817
-19.834
-19.7787
-19.7148
-19.6408
-19.5546
-19.4551
-19.3411
-19.2126
-19.072
-18.9256
-18.7853
-18.6695
-18.6004
-18.5947
-18.6533
-18.7613
-18.8976
-19.0428
-19.184
-19.3139
-19.4301
-19.532
-19.6203
-19.6962
-19.7614
-19.8178
-19.8668
-19.9092
-19.9462
-19.9789
-20.008
-20.0337
-20.0563
-20.0761
-20.0938
-20.1098
-20.1242
-20.1374
-20.1494
-20.1603
-20.17
-20.1787
-20.1863
-20.1929
-20.1987
-20.2036
-20.2079
-20.2115
-20.2144
-20.2166
-20.2182
-20.2192
-20.2197
-20.7324
-20.7319
-20.7308
-20.7292
-20.727
-20.7243
-20.7211
-20.7173
-20.7129
-20.7077
-20.7019
-20.6952
-20.6876
-20.6792
-20.6697
-20.6592
-20.6474
-20.6343
-20.6197
-20.6035
-20.5854
-20.565
-20.5421
-20.5161
-20.4862
-20.4516
-20.4114