/*--------------------------------*- C++ -*----------------------------------*\
| =========                 |                                                 |
| \\      /  F ield         | OpenFOAM: The Open Source CFD Toolbox           |
|  \\    /   O peration     | Version:  2412                                  |
|   \\  /    A nd           | Website:  www.openfoam.com                      |
|    \\/     M anipulation  |                                                 |
\*---------------------------------------------------------------------------*/
FoamFile
{
    version     2.0;
    format      ascii;
    arch        "LSB;label=32;scalar=64";
    class       surfaceScalarField;
    location    "0.05";
    object      phi;
}
// * * * * * * * * * * * * * * * * * * * * * * * * * * * * * * * * * * * * * //

dimensions      [0 3 -1 0 0 0 0];

oriented        oriented;

internalField   nonuniform List<scalar> 
12640
(
-2.44603e-13
3.57794e-13
3.83061e-13
-1.13622e-12
2.38373e-12
-2.34644e-12
4.78329e-12
-2.59955e-12
6.59101e-12
-2.06229e-12
7.30403e-12
-9.83733e-13
6.61749e-12
4.46521e-13
4.37467e-12
2.02675e-12
5.91681e-13
3.58509e-12
-4.51868e-12
4.93433e-12
-1.05971e-11
5.91899e-12
-1.71601e-11
6.42101e-12
-2.36857e-11
6.38913e-12
-2.96552e-11
5.83625e-12
-3.46251e-11
4.83112e-12
-3.82549e-11
3.4847e-12
-4.03369e-11
1.92786e-12
-4.07959e-11
2.97267e-13
-3.96865e-11
-1.27773e-12
-3.71716e-11
-2.68726e-12
-3.34993e-11
-3.84614e-12
-2.89718e-11
-4.70012e-12
-2.3912e-11
-5.22869e-12
-1.86318e-11
-5.44325e-12
-1.34075e-11
-5.3801e-12
-8.46164e-12
-5.09333e-12
-3.95447e-12
-4.64599e-12
1.60526e-14
-4.10079e-12
3.40715e-12
-3.51333e-12
6.21988e-12
-2.92766e-12
8.48657e-12
-2.37526e-12
1.02587e-11
-1.87532e-12
1.1597e-11
-1.43714e-12
1.25642e-11
-1.06278e-12
1.32208e-11
-7.49996e-13
1.36228e-11
-4.94248e-13
1.38208e-11
-2.90263e-13
1.38604e-11
-1.33009e-13
1.37828e-11
-1.83721e-14
1.36268e-11
5.64275e-14
1.34293e-11
9.27689e-14
1.32276e-11
9.05759e-14
1.30603e-11
4.83598e-14
1.29692e-11
-3.68855e-14
1.30007e-11
-1.69802e-13
1.32077e-11
-3.56713e-13
1.36513e-11
-6.05791e-13
1.44023e-11
-9.26602e-13
1.55423e-11
-1.32994e-12
1.71637e-11
-1.82628e-12
1.93686e-11
-2.42527e-12
2.22655e-11
-3.13345e-12
2.59665e-11
-3.9541e-12
3.05813e-11
-4.88464e-12
3.62105e-11
-5.91612e-12
4.29364e-11
-7.02983e-12
5.08114e-11
-8.19611e-12
5.98441e-11
-9.37084e-12
6.9983e-11
-1.04937e-11
8.10943e-11
-1.14833e-11
9.29399e-11
-1.22331e-11
1.05139e-10
-1.26032e-11
1.17145e-10
-1.2422e-11
1.28197e-10
-1.14805e-11
1.37341e-10
-9.56963e-12
1.43397e-10
-6.48052e-12
1.45145e-10
-2.14219e-12
1.41366e-10
3.41559e-12
1.3133e-10
9.73446e-12
1.14841e-10
1.62473e-11
9.29504e-11
2.17004e-11
6.75606e-11
2.52671e-11
4.18881e-11
2.55093e-11
1.91433e-11
2.2643e-11
2.46936e-12
1.64006e-11
-6.75781e-12
9.05321e-12
-8.80903e-12
1.64415e-12
-6.02878e-12
-3.02147e-12
-1.9845e-12
-4.48969e-12
-2.25913e-12
-7.71482e-13
1.32265e-12
3.53879e-13
-1.98418e-12
3.26014e-12
-5.20716e-12
6.62722e-12
-5.91077e-12
8.74952e-12
-4.19938e-12
8.5117e-12
-7.80346e-13
5.21208e-12
3.71624e-12
-1.51541e-12
8.72361e-12
-1.1615e-11
1.36693e-11
-2.46599e-11
1.79737e-11
-3.98301e-11
2.11137e-11
-5.60762e-11
2.27072e-11
-7.21962e-11
2.2574e-11
-8.70282e-11
2.07438e-11
-9.95312e-11
1.74243e-11
-1.08913e-10
1.29625e-11
-1.14662e-10
7.78161e-12
-1.16579e-10
2.32125e-12
-1.14758e-10
-2.98947e-12
-1.09552e-10
-7.78526e-12
-1.01512e-10
-1.17817e-11
-9.1321e-11
-1.47918e-11
-7.97208e-11
-1.67374e-11
-6.74378e-11
-1.76437e-11
-5.51251e-11
-1.76199e-11
-4.33209e-11
-1.68345e-11
-3.24264e-11
-1.54875e-11
-2.27019e-11
-1.37821e-11
-1.42801e-11
-1.19019e-11
-7.18801e-12
-9.99673e-12
-1.3746e-12
-8.17633e-12
3.26289e-12
-6.51197e-12
6.85614e-12
-5.04211e-12
9.54879e-12
-3.78099e-12
1.14848e-11
-2.72695e-12
1.2802e-11
-1.86941e-12
1.3629e-11
-1.19412e-12
1.40849e-11
-6.86756e-13
1.42809e-11
-3.35339e-13
1.43225e-11
-1.31551e-13
1.43127e-11
-7.14032e-14
1.43548e-11
-1.55428e-13
1.45561e-11
-3.88903e-13
1.50315e-11
-7.82079e-13
1.59068e-11
-1.35047e-12
1.73233e-11
-2.11513e-12
1.94407e-11
-3.10236e-12
2.24404e-11
-4.34293e-12
2.65263e-11
-5.86957e-12
3.19242e-11
-7.71407e-12
3.88768e-11
-9.90262e-12
4.76377e-11
-1.24521e-11
5.846e-11
-1.5365e-11
7.15827e-11
-1.86246e-11
8.7212e-11
-2.21888e-11
1.05498e-10
-2.59829e-11
1.26505e-10
-2.98918e-11
1.50177e-10
-3.37526e-11
1.76299e-10
-3.73446e-11
2.04447e-10
-4.03789e-11
2.33925e-10
-4.24799e-11
2.63715e-10
-4.31799e-11
2.92381e-10
-4.19035e-11
3.18082e-10
-3.80154e-11
3.38477e-10
-3.08427e-11
3.50974e-10
-1.98797e-11
3.52736e-10
-4.87532e-12
3.41458e-10
1.36869e-11
3.15488e-10
3.4617e-11
2.75219e-10
5.53925e-11
2.22772e-10
7.30034e-11
1.63338e-10
8.35354e-11
1.03314e-10
8.45056e-11
5.06155e-11
7.42714e-11
1.11585e-11
5.50775e-11
-1.13529e-11
3.06003e-11
-1.80258e-11
7.65847e-12
-1.354e-11
-8.49218e-12
-5.01753e-12
-1.36487e-11
-7.69111e-12
-1.2492e-12
2.105e-12
-8.82737e-13
-2.66471e-12
1.02402e-12
-7.49672e-12
3.06034e-12
-8.29408e-12
3.54209e-12
-5.05813e-12
1.21815e-12
1.18847e-12
-4.71948e-12
9.32888e-12
-1.46807e-11
1.84081e-11
-2.86514e-11
2.73772e-11
-4.61035e-11
3.52034e-11
-6.61128e-11
4.09054e-11
-8.7382e-11
4.37807e-11
-1.0848e-10
4.34668e-11
-1.27941e-10
4.00016e-11
-1.44487e-10
3.37498e-11
-1.57089e-10
2.53362e-11
-1.65084e-10
1.55356e-11
-1.68183e-10
5.17245e-12
-1.66469e-10
-4.95591e-12
-1.6035e-10
-1.41561e-11
-1.50493e-10
-2.18863e-11
-1.37737e-10
-2.77878e-11
-1.23005e-10
-3.17001e-11
-1.07214e-10
-3.36539e-11
-9.12002e-11
-3.38395e-11
-7.56684e-11
-3.25604e-11
-6.11564e-11
-3.01817e-11
-4.80305e-11
-2.70796e-11
-3.6496e-11
-2.35986e-11
-2.66224e-11
-2.00247e-11
-1.83747e-11
-1.65723e-11
-1.16447e-11
-1.33858e-11
-6.27906e-12
-1.05487e-11
-2.10174e-12
-8.09826e-12
1.07061e-12
-6.0401e-12
3.41888e-12
-4.3613e-12
5.11656e-12
-3.04033e-12
6.32825e-12
-2.05413e-12
7.21056e-12
-1.3828e-12
7.91446e-12
-1.01252e-12
8.58864e-12
-9.37e-13
9.38329e-12
-1.15832e-12
1.04543e-11
-1.68737e-12
1.19677e-11
-2.54435e-12
1.4104e-11
-3.75927e-12
1.7063e-11
-5.37204e-12
2.10673e-11
-7.43181e-12
2.63648e-11
-9.99428e-12
3.3229e-11
-1.31175e-11
4.19551e-11
-1.68547e-11
5.28537e-11
-2.12475e-11
6.62401e-11
-2.63169e-11
8.24192e-11
-3.20549e-11
1.01665e-10
-3.84139e-11
1.24197e-10
-4.52957e-11
1.50144e-10
-5.25366e-11
1.7951e-10
-5.98955e-11
2.12127e-10
-6.70373e-11
2.47604e-10
-7.35182e-11
2.8526e-10
-7.87605e-11
3.24069e-10
-8.20353e-11
3.62552e-10
-8.24342e-11
3.98772e-10
-7.88973e-11
4.30205e-10
-7.023e-11
4.53924e-10
-5.53016e-11
4.66518e-10
-3.31943e-11
4.64794e-10
-3.76553e-12
4.45803e-10
3.21047e-11
4.08337e-10
7.1648e-11
3.52773e-10
1.10538e-10
2.82975e-10
1.4246e-10
2.04912e-10
1.61217e-10
1.27707e-10
1.61261e-10
6.02081e-11
1.41305e-10
1.05475e-11
1.04075e-10
-1.76163e-11
5.82449e-11
-2.53801e-11
1.46105e-11
-1.86907e-11
-1.57299e-11
-7.17208e-12
-2.60646e-11
-1.50509e-11
-1.9188e-12
3.92834e-12
-3.29895e-12
-1.35759e-12
-3.79217e-12
-7.19189e-12
-4.3422e-12
-7.88999e-12
-6.42022e-12
-3.15825e-12
-1.09829e-11
5.553e-12
-1.87328e-11
1.69244e-11
-3.00369e-11
2.95536e-11
-4.48842e-11
4.21123e-11
-6.28746e-11
5.30791e-11
-8.31542e-11
6.11128e-11
-1.04593e-10
6.51448e-11
-1.25816e-10
6.46399e-11
-1.45465e-10
5.9594e-11
-1.6227e-10
5.05063e-11
-1.75233e-10
3.82446e-11
-1.8366e-10
2.39089e-11
-1.87233e-10
8.68692e-12
-1.85982e-10
-6.26628e-12
-1.80266e-10
-1.99336e-11
-1.70699e-10
-3.15147e-11
-1.58076e-10
-4.04719e-11
-1.43286e-10
-4.65516e-11
-1.27226e-10
-4.97748e-11
-1.10731e-10
-5.03952e-11
-9.45162e-11
-4.88352e-11
-7.9146e-11
-4.56118e-11
-6.50218e-11
-4.1264e-11
-5.23889e-11
-3.62928e-11
-4.13568e-11
-3.11201e-11
-3.19256e-11
-2.60696e-11
-2.40156e-11
-2.1366e-11
-1.74932e-11
-1.71463e-11
-1.21938e-11
-1.34793e-11
-7.93721e-12
-1.03862e-11
-4.53924e-12
-7.85823e-12
-1.81799e-12
-5.87179e-12
4.03336e-13
-4.3988e-12
2.29615e-12
-3.41419e-12
4.02818e-12
-2.90046e-12
5.76619e-12
-2.85046e-12
7.67956e-12
-3.26877e-12
9.94406e-12
-4.17262e-12
1.27462e-11
-5.59266e-12
1.62872e-11
-7.57347e-12
2.07871e-11
-1.01734e-11
2.64874e-11
-1.34626e-11
3.36516e-11
-1.75187e-11
4.25632e-11
-2.2419e-11
5.35201e-11
-2.82312e-11
6.68259e-11
-3.50018e-11
8.27765e-11
-4.27444e-11
1.01644e-10
-5.14261e-11
1.23653e-10
-6.0953e-11
1.48955e-10
-7.11521e-11
1.77594e-10
-8.17532e-11
2.09467e-10
-9.23689e-11
2.44283e-10
-1.02475e-10
2.81505e-10
-1.11383e-10
3.203e-10
-1.18219e-10
3.59457e-10
-1.21881e-10
3.97357e-10
-1.21042e-10
4.31861e-10
-1.14145e-10
4.60414e-10
-9.95369e-11
4.7992e-10
-7.56078e-11
4.87229e-10
-4.12851e-11
4.79058e-10
3.56892e-12
4.53221e-10
5.71777e-11
4.08467e-10
1.15583e-10
3.4646e-10
1.71855e-10
2.70831e-10
2.1734e-10
1.89013e-10
2.42414e-10
1.09454e-10
2.40145e-10
4.20321e-11
2.08086e-10
-6.09108e-12
1.5157e-10
-3.11429e-11
8.25651e-11
-3.48013e-11
1.77171e-11
-2.40732e-11
-2.72213e-11
-8.60347e-12
-4.20584e-11
-2.40047e-11
-2.88402e-12
6.71621e-12
-6.67184e-12
2.33533e-12
-1.02242e-11
-3.85287e-12
-1.40252e-11
-4.24734e-12
-1.88655e-11
1.46661e-12
-2.53701e-11
1.18647e-11
-3.38862e-11
2.52288e-11
-4.4689e-11
4.01979e-11
-5.78257e-11
5.50684e-11
-7.30535e-11
6.81799e-11
-8.98745e-11
7.77943e-11
-1.07464e-10
8.26359e-11
-1.24875e-10
8.19442e-11
-1.41038e-10
7.56716e-11
-1.54989e-10
6.43668e-11
-1.65894e-10
4.90684e-11
-1.73177e-10
3.11091e-11
-1.7652e-10
1.19521e-11
-1.75895e-10
-6.96799e-12
-1.71527e-10
-2.43751e-11
-1.6386e-10
-3.92533e-11
-1.53492e-10
-5.09095e-11
-1.4111e-10
-5.90006e-11
-1.2743e-10
-6.35221e-11
-1.13131e-10
-6.47603e-11
-9.88159e-11
-6.32162e-11
-8.49782e-11
-5.95156e-11
-7.19889e-11
-5.43201e-11
-6.00964e-11
-4.82532e-11
-4.94371e-11
-4.18491e-11
-4.00532e-11
-3.55258e-11
-3.19128e-11
-2.95819e-11
-2.49303e-11
-2.42085e-11
-1.8984e-11
-1.95108e-11
-1.39302e-11
-1.55317e-11
-9.61422e-12
-1.2274e-11
-5.87722e-12
-9.7183e-12
-2.56039e-12
-7.83668e-12
4.93685e-13
-6.60277e-12
3.44135e-12
-5.99819e-12
6.43962e-12
-6.01642e-12
9.64857e-12
-6.66516e-12
1.32345e-11
-7.96766e-12
1.7373e-11
-9.96382e-12
2.22523e-11
-1.27106e-11
2.80757e-11
-1.62809e-11
3.50619e-11
-2.07601e-11
4.34434e-11
-2.62393e-11
5.34621e-11
-3.28048e-11
6.53612e-11
-4.05252e-11
7.93751e-11
-4.94377e-11
9.57156e-11
-5.95331e-11
1.14555e-10
-7.07393e-11
1.36008e-10
-8.29022e-11
1.60102e-10
-9.57656e-11
1.86757e-10
-1.08948e-10
2.1575e-10
-1.21919e-10
2.46677e-10
-1.33977e-10
2.78922e-10
-1.4422e-10
3.11598e-10
-1.51505e-10
3.43525e-10
-1.5443e-10
3.73148e-10
-1.5131e-10
3.98586e-10
-1.40235e-10
4.17526e-10
-1.19164e-10
4.2751e-10
-8.62703e-11
4.25807e-10
-4.03201e-11
4.10244e-10
1.84353e-11
3.79004e-10
8.76319e-11
3.32212e-10
1.61686e-10
2.7128e-10
2.31984e-10
2.00877e-10
2.87093e-10
1.27014e-10
3.1551e-10
5.82451e-11
3.08304e-10
2.22883e-12
2.63414e-10
-3.45524e-11
1.87721e-10
-4.97345e-11
9.71374e-11
-4.57604e-11
1.30592e-11
-2.89936e-11
-4.44189e-11
-1.03374e-11
-6.15164e-11
-3.44715e-11
-3.97884e-12
1.05449e-11
-1.01773e-11
8.42518e-12
-1.69444e-11
2.68252e-12
-2.38671e-11
2.47405e-12
-3.12805e-11
8.67604e-12
-3.91399e-11
1.94769e-11
-4.75381e-11
3.34431e-11
-5.65372e-11
4.8977e-11
-6.62448e-11
6.46209e-11
-7.66917e-11
7.84411e-11
-8.77225e-11
8.86968e-11
-9.90648e-11
9.38295e-11
-1.10227e-10
9.29941e-11
-1.20685e-10
8.60043e-11
-1.2984e-10
7.34131e-11
-1.37187e-10
5.63015e-11
-1.42304e-10
3.61203e-11
-1.44937e-10
1.44794e-11
-1.44983e-10
-7.02244e-12
-1.42505e-10
-2.695e-11
-1.37708e-10
-4.41444e-11
-1.30906e-10
-5.78007e-11
-1.22494e-10
-6.74993e-11
-1.12904e-10
-7.31969e-11
-1.02571e-10
-7.5176e-11
-9.19031e-11
-7.39646e-11
-8.12599e-11
-7.02388e-11
-7.09336e-11
-6.4726e-11
-6.11443e-11
-5.81224e-11
-5.20392e-11
-5.10346e-11
-4.36985e-11
-4.39483e-11
-3.61439e-11
-3.72204e-11
-2.93497e-11
-3.10897e-11
-2.32536e-11
-2.56979e-11
-1.77676e-11
-2.1114e-11
-1.27869e-11
-1.73577e-11
-8.19692e-12
-1.44196e-11
-3.87795e-12
-1.22769e-11
2.91878e-13
-1.09059e-11
4.43583e-12
-1.02895e-11
8.67873e-12
-1.04228e-11
1.31484e-11
-1.13165e-11
1.79776e-11
-1.29988e-11
2.33062e-11
-1.55165e-11
2.92831e-11
-1.89353e-11
3.60666e-11
-2.33373e-11
4.38227e-11
-2.88153e-11
5.27207e-11
-3.54632e-11
6.29262e-11
-4.33632e-11
7.45911e-11
-5.257e-11
8.78422e-11
-6.30955e-11
1.02769e-10
-7.48922e-11
1.19408e-10
-8.78354e-11
1.37728e-10
-1.01703e-10
1.57614e-10
-1.16154e-10
1.78849e-10
-1.30706e-10
2.01097e-10
-1.44709e-10
2.23884e-10
-1.57322e-10
2.46572e-10
-1.67482e-10
2.68347e-10
-1.73868e-10
2.88182e-10
-1.7487e-10
3.04859e-10
-1.68597e-10
3.16905e-10
-1.52916e-10
3.22759e-10
-1.25644e-10
3.20651e-10
-8.48264e-11
3.09099e-10
-2.93963e-11
2.86694e-10
4.01419e-11
2.53155e-10
1.20555e-10
2.088e-10
2.05307e-10
1.56158e-10
2.84036e-10
9.86474e-11
3.43854e-10
4.21006e-11
3.71502e-10
-7.71175e-12
3.57398e-10
-4.45864e-11
2.99752e-10
-6.46529e-11
2.07142e-10
-6.69563e-11
9.88544e-11
-5.39764e-11
-4.67495e-13
-3.24951e-11
-6.64626e-11
-1.08803e-11
-8.36524e-11
-4.56193e-11
-4.80634e-12
1.52074e-11
-1.31188e-11
1.66138e-11
-2.24329e-11
1.17648e-11
-3.19732e-11
1.18368e-11
-4.12362e-11
1.76994e-11
-4.98758e-11
2.79214e-11
-5.74957e-11
4.08263e-11
-6.40635e-11
5.53849e-11
-6.97063e-11
7.00557e-11
-7.46632e-11
8.32645e-11
-7.92338e-11
9.30975e-11
-8.35713e-11
9.80528e-11
-8.78005e-11
9.70838e-11
-9.18475e-11
8.99432e-11
-9.56161e-11
7.70586e-11
-9.88925e-11
5.94697e-11
-1.01488e-10
3.86018e-11
-1.03199e-10
1.60833e-11
-1.03876e-10
-6.45098e-12
-1.03414e-10
-2.75137e-11
-1.0177e-10
-4.58868e-11
-9.89618e-11
-6.07038e-11
-9.50648e-11
-7.1488e-11
-9.02041e-11
-7.81465e-11
-8.45429e-11
-8.0924e-11
-7.82686e-11
-8.0324e-11
-7.15779e-11
-7.70135e-11
-6.46618e-11
-7.17254e-11
-5.76924e-11
-6.51749e-11
-5.08128e-11
-5.79977e-11
-4.41304e-11
-5.07152e-11
-3.7714e-11
-4.37228e-11
-3.15952e-11
-3.72968e-11
-2.57728e-11
-3.16122e-11
-2.02183e-11
-2.67649e-11
-1.48835e-11
-2.2795e-11
-9.70618e-12
-1.97068e-11
-4.61598e-12
-1.74864e-11
4.62244e-13
-1.61146e-11
5.60595e-12
-1.55769e-11
1.08942e-11
-1.58701e-11
1.6408e-11
-1.70068e-11
2.22318e-11
-1.90185e-11
2.84547e-11
-2.19566e-11
3.51711e-11
-2.58919e-11
4.24797e-11
-3.09102e-11
5.04792e-11
-3.71046e-11
5.9262e-11
-4.45618e-11
6.89041e-11
-5.33475e-11
7.9454e-11
-6.34886e-11
9.09204e-11
-7.49569e-11
1.03261e-10
-8.76532e-11
1.16371e-10
-1.0139e-10
1.30074e-10
-1.15875e-10
1.44116e-10
-1.30687e-10
1.58161e-10
-1.45261e-10
1.71788e-10
-1.58863e-10
1.8449e-10
-1.7057e-10
1.95682e-10
-1.79234e-10
2.04688e-10
-1.8345e-10
2.10773e-10
-1.8154e-10
2.13119e-10
-1.71548e-10
2.10928e-10
-1.51328e-10
2.0335e-10
-1.18699e-10
1.89769e-10
-7.18536e-11
1.69621e-10
-9.90483e-12
1.43012e-10
6.61607e-11
1.10267e-10
1.52619e-10
7.29915e-11
2.42027e-10
3.30777e-11
3.23244e-10
-5.99008e-12
3.82408e-10
-4.0882e-11
4.05683e-10
-6.74509e-11
3.8349e-10
-8.28114e-11
3.14443e-10
-8.52561e-11
2.09106e-10
-7.518e-11
8.81752e-11
-5.58623e-11
-2.03056e-11
-3.17315e-11
-9.09621e-11
-1.07181e-11
-1.0536e-10
-5.64481e-11
-5.33201e-12
2.03889e-11
-1.4837e-11
2.60003e-11
-2.58907e-11
2.25907e-11
-3.69531e-11
2.26925e-11
-4.7332e-11
2.78734e-11
-5.6053e-11
3.63864e-11
-6.25918e-11
4.71844e-11
-6.66784e-11
5.92349e-11
-6.84701e-11
7.16967e-11
-6.84325e-11
8.3023e-11
-6.71072e-11
9.16458e-11
-6.51726e-11
9.59518e-11
-6.3113e-11
9.49095e-11
-6.1402e-11
8.80912e-11
-6.02596e-11
7.58026e-11
-5.98368e-11
5.89197e-11
-6.00927e-11
3.87434e-11
-6.09242e-11
1.67961e-11
-6.21249e-11
-5.36231e-12
-6.34608e-11
-2.6289e-11
-6.46731e-11
-4.47814e-11
-6.5522e-11
-5.99592e-11
-6.58028e-11
-7.13082e-11
-6.53677e-11
-7.86802e-11
-6.41334e-11
-8.22544e-11
-6.20841e-11
-8.24677e-11
-5.92632e-11
-7.99271e-11
-5.57607e-11
-7.53196e-11
-5.16944e-11
-6.93321e-11
-4.71921e-11
-6.25905e-11
-4.23747e-11
-5.56233e-11
-3.73444e-11
-4.88447e-11
-3.21774e-11
-4.2557e-11
-2.6922e-11
-3.6963e-11
-2.16015e-11
-3.21845e-11
-1.62181e-11
-2.82824e-11
-1.07592e-11
-2.52762e-11
-5.20274e-12
-2.31614e-11
4.77993e-13
-2.19239e-11
6.31138e-12
-2.15509e-11
1.23261e-11
-2.20394e-11
1.85512e-11
-2.34026e-11
2.50174e-11
-2.56735e-11
3.17582e-11
-2.89061e-11
3.88102e-11
-3.3174e-11
4.62106e-11
-3.85636e-11
5.39919e-11
-4.51629e-11
6.21731e-11
-5.30447e-11
7.07476e-11
-6.22488e-11
7.96704e-11
-7.27633e-11
8.88457e-11
-8.4509e-11
9.8116e-11
-9.73246e-11
1.07255e-10
-1.10954e-10
1.15966e-10
-1.25032e-10
1.23882e-10
-1.39071e-10
1.30581e-10
-1.52446e-10
1.35594e-10
-1.6438e-10
1.38427e-10
-1.73923e-10
1.38582e-10
-1.79923e-10
1.35588e-10
-1.81001e-10
1.29016e-10
-1.7553e-10
1.18555e-10
-1.61655e-10
1.03996e-10
-1.37359e-10
8.5399e-11
-1.00681e-10
6.29827e-11
-5.00537e-11
3.74684e-11
1.50354e-11
9.72422e-12
9.32647e-11
-1.86379e-11
1.80438e-10
-4.6075e-11
2.68804e-10
-7.02606e-11
3.46937e-10
-8.94453e-11
4.00921e-10
-1.01517e-10
4.17317e-10
-1.05512e-10
3.86828e-10
-1.00953e-10
3.09482e-10
-8.85345e-11
1.96083e-10
-7.02609e-11
6.94642e-11
-4.83238e-11
-4.27612e-11
-2.65475e-11
-1.1311e-10
-8.53932e-12
-1.23873e-10
-6.51738e-11
-5.35008e-12
2.56116e-11
-1.53732e-11
3.58476e-11
-2.69381e-11
3.39397e-11
-3.86432e-11
3.41929e-11
-4.91653e-11
3.81479e-11
-5.75272e-11
4.45325e-11
-6.28394e-11
5.22346e-11
-6.47933e-11
6.10082e-11
-6.35591e-11
7.02184e-11
-5.9632e-11
7.89434e-11
-5.39004e-11
8.57064e-11
-4.71846e-11
8.91031e-11
-4.04505e-11
8.80015e-11
-3.43663e-11
8.18791e-11
-2.95538e-11
7.08376e-11
-2.63078e-11
5.55446e-11
-2.47972e-11
3.70926e-11
-2.49387e-11
1.68084e-11
-2.65294e-11
-3.90349e-12
-2.92246e-11
-2.372e-11
-3.26232e-11
-4.15075e-11
-3.62929e-11
-5.64103e-11
-3.98264e-11
-6.78929e-11
-4.28721e-11
-7.57496e-11
-4.5163e-11
-8.0076e-11
-4.65276e-11
-8.1213e-11
-4.68901e-11
-7.96724e-11
-4.62568e-11
-7.60586e-11
-4.46963e-11
-7.09965e-11
-4.23152e-11
-6.50741e-11
-3.92355e-11
-5.88045e-11
-3.55754e-11
-5.26058e-11
-3.14373e-11
-4.67963e-11
-2.69019e-11
-4.16009e-11
-2.20271e-11
-3.71639e-11
-1.6852e-11
-3.35654e-11
-1.14023e-11
-3.08388e-11
-5.69604e-12
-2.89871e-11
2.51154e-13
-2.79989e-11
6.42268e-12
-2.78604e-11
1.27996e-11
-2.85667e-11
1.93613e-11
-3.01289e-11
2.60872e-11
-3.25802e-11
3.29589e-11
-3.59766e-11
3.99605e-11
-4.03942e-11
4.70767e-11
-4.59194e-11
5.42858e-11
-5.26337e-11
6.15499e-11
-6.05933e-11
6.88011e-11
-6.98077e-11
7.59264e-11
-8.022e-11
8.27553e-11
-9.16924e-11
8.90488e-11
-1.03996e-10
9.44957e-11
-1.168e-10
9.87157e-11
-1.29672e-10
1.01272e-10
-1.42067e-10
1.01691e-10
-1.53323e-10
9.94956e-11
-1.62658e-10
9.42337e-11
-1.6915e-10
8.55259e-11
-1.71716e-10
7.31004e-11
-1.6909e-10
5.68622e-11
-1.59812e-10
3.69151e-11
-1.42244e-10
1.36785e-11
-1.14657e-10
-1.21576e-11
-7.54063e-11
-3.94287e-11
-2.33211e-11
-6.67387e-11
4.17587e-11
-9.21422e-11
1.18146e-10
-1.13798e-10
2.01486e-10
-1.29522e-10
2.8405e-10
-1.37958e-10
3.54754e-10
-1.3796e-10
4.00508e-10
-1.29887e-10
4.08629e-10
-1.1479e-10
3.71377e-10
-9.48946e-11
2.8901e-10
-7.29837e-11
1.73837e-10
-5.13685e-11
4.73165e-11
-3.24186e-11
-6.20903e-11
-1.65256e-11
-1.2932e-10
-5.45262e-12
-1.35473e-10
-7.07341e-11
-5.17287e-12
3.06194e-11
-1.47458e-11
4.52979e-11
-2.61423e-11
4.50709e-11
-3.74416e-11
4.52934e-11
-4.75493e-11
4.80159e-11
-5.51105e-11
5.18358e-11
-5.92723e-11
5.6186e-11
-5.96564e-11
6.11293e-11
-5.63331e-11
6.6716e-11
-5.00151e-11
7.23811e-11
-4.14849e-11
7.70236e-11
-3.19432e-11
7.93524e-11
-2.23167e-11
7.82345e-11
-1.36515e-11
7.30337e-11
-6.58224e-12
6.36278e-11
-1.65957e-12
5.04595e-11
9.42466e-13
3.43476e-11
1.20709e-12
1.63921e-11
-6.18098e-13
-2.22087e-12
-4.16069e-12
-2.03214e-11
-8.92256e-12
-3.68845e-11
-1.43716e-11
-5.10983e-11
-1.99789e-11
-6.24187e-11
-2.52766e-11
-7.0582e-11
-2.98878e-11
-7.55917e-11
-3.35473e-11
-7.76771e-11
-3.61036e-11
-7.72366e-11
-3.75075e-11
-7.47723e-11
-3.77898e-11
-7.08288e-11
-3.70356e-11
-6.59404e-11
-3.53576e-11
-6.05924e-11
-3.28746e-11
-5.5197e-11
-2.96963e-11
-5.00818e-11
-2.59152e-11
-4.54889e-11
-2.16055e-11
-4.15814e-11
-1.68258e-11
-3.84549e-11
-1.16253e-11
-3.61525e-11
-6.04977e-12
-3.46809e-11
-1.4691e-13
-3.40268e-11
6.03025e-12
-3.41713e-11
1.24227e-11
-3.51033e-11
1.8967e-11
-3.683e-11
2.55987e-11
-3.93832e-11
3.22562e-11
-4.28216e-11
3.88823e-11
-4.72255e-11
4.54229e-11
-5.26844e-11
5.18208e-11
-5.92764e-11
5.80044e-11
-6.70427e-11
6.38722e-11
-7.59629e-11
6.9277e-11
-8.5934e-11
7.40103e-11
-9.67568e-11
7.77926e-11
-1.0813e-10
8.02703e-11
-1.19651e-10
8.10231e-11
-1.30819e-10
7.95835e-11
-1.4104e-10
7.54681e-11
-1.49637e-10
6.82163e-11
-1.55852e-10
5.74412e-11
-1.58833e-10
4.28777e-11
-1.57623e-10
2.44521e-11
-1.51142e-10
2.32522e-12
-1.38176e-10
-2.30107e-11
-1.17399e-10
-5.07317e-11
-8.7444e-11
-7.95386e-11
-4.70946e-11
-1.078e-10
4.41253e-12
-1.33358e-10
6.68306e-11
-1.5402e-10
1.38262e-10
-1.67332e-10
2.14342e-10
-1.71596e-10
2.87754e-10
-1.6557e-10
3.4833e-10
-1.49769e-10
3.84149e-10
-1.25826e-10
3.84357e-10
-9.71494e-11
3.42168e-10
-6.78682e-11
2.59453e-10
-4.19397e-11
1.47424e-10
-2.2587e-11
2.76616e-11
-1.02315e-11
-7.48911e-11
-4.08196e-12
-1.35742e-10
-1.19045e-12
-1.38757e-10
-7.208e-11
-4.62086e-12
3.51373e-11
-1.36076e-11
5.40381e-11
-2.39973e-11
5.52996e-11
-3.45089e-11
5.55563e-11
-4.36425e-11
5.69494e-11
-5.02613e-11
5.82226e-11
-5.34549e-11
5.91437e-11
-5.27389e-11
6.02236e-11
-4.84049e-11
6.21362e-11
-4.08663e-11
6.46822e-11
-3.12641e-11
6.71951e-11
-2.04834e-11
6.84316e-11
-9.81435e-12
6.73702e-11
-8.12889e-14
6.31652e-11
7.8053e-12
5.55695e-11
1.34135e-11
4.47124e-11
1.64141e-11
3.11898e-11
1.68521e-11
1.58123e-11
1.49193e-11
-4.36196e-13
1.10317e-11
-1.65748e-11
5.69296e-12
-3.1687e-11
-5.21953e-13
-4.50202e-11
-7.05226e-12
-5.60229e-11
-1.33882e-11
-6.43767e-11
-1.91161e-11
-6.99912e-11
-2.39349e-11
-7.29821e-11
-2.76621e-11
-7.36296e-11
-3.02211e-11
-7.233e-11
-3.16203e-11
-6.95431e-11
-3.19256e-11
-6.57453e-11
-3.12345e-11
-6.13908e-11
-2.96536e-11
-5.68827e-11
-2.72835e-11
-5.25549e-11
-2.42114e-11
-4.86631e-11
-2.051e-11
-4.53849e-11
-1.62416e-11
-4.28266e-11
-1.1464e-11
-4.10359e-11
-6.2379e-12
-4.0017e-11
-6.3161e-13
-3.97488e-11
5.27561e-12
-4.02018e-11
1.13939e-11
-4.13545e-11
1.76262e-11
-4.32065e-11
2.38736e-11
-4.5788e-11
3.00415e-11
-4.91618e-11
3.6044e-11
-5.34167e-11
4.1804e-11
-5.8651e-11
4.72478e-11
-6.49457e-11
5.22938e-11
-7.23339e-11
5.68359e-11
-8.07705e-11
6.07253e-11
-9.01094e-11
6.37533e-11
-1.00092e-10
6.56394e-11
-1.10344e-10
6.60286e-11
-1.20388e-10
6.45009e-11
-1.29658e-10
6.05955e-11
-1.37519e-10
5.38472e-11
-1.43291e-10
4.38367e-11
-1.46257e-10
3.02434e-11
-1.45669e-10
1.29142e-11
-1.40733e-10
-8.08191e-12
-1.30597e-10
-3.2366e-11
-1.14345e-10
-5.92231e-11
-9.10074e-11
-8.74859e-11
-5.96393e-11
-1.15605e-10
-1.94536e-11
-1.41499e-10
2.98552e-11
-1.6289e-10
8.77301e-11
-1.7715e-10
1.52093e-10
-1.82135e-10
2.18826e-10
-1.76027e-10
2.81264e-10
-1.58666e-10
3.30467e-10
-1.31129e-10
3.56293e-10
-9.68216e-11
3.49566e-10
-6.03792e-11
3.05469e-10
-2.73378e-11
2.25972e-10
-2.69305e-12
1.2255e-10
1.10029e-11
1.35612e-11
1.36146e-11
-7.78098e-11
9.28952e-12
-1.31716e-10
2.80274e-12
-1.32635e-10
-6.93964e-11
-4.24332e-12
3.91838e-11
-1.20188e-11
6.17685e-11
-2.14515e-11
6.44289e-11
-3.072e-11
6.47079e-11
-3.87945e-11
6.47761e-11
-4.44585e-11
6.37259e-11
-4.67942e-11
6.1293e-11
-4.56246e-11
5.88633e-11
-4.08454e-11
5.72137e-11
-3.33424e-11
5.69766e-11
-2.36864e-11
5.74204e-11
-1.32067e-11
5.77668e-11
-2.68151e-12
5.67374e-11
6.73511e-12
5.35893e-11
1.44712e-11
4.77247e-11
1.98896e-11
3.91541e-11
2.28326e-11
2.81328e-11
2.32338e-11
1.52827e-11
2.13449e-11
1.33581e-12
1.75205e-11
-1.28717e-11
1.22669e-11
-2.65491e-11
6.11928e-12
-3.89879e-11
-3.79229e-13
-4.9636e-11
-6.74585e-12
-5.81194e-11
-1.2583e-11
-6.42601e-11
-1.76025e-11
-6.80655e-11
-2.16258e-11
-6.97059e-11
-2.45741e-11
-6.94782e-11
-2.64462e-11
-6.77643e-11
-2.72932e-11
-6.49885e-11
-2.71941e-11
-6.15775e-11
-2.62348e-11
-5.79274e-11
-2.44957e-11
-5.43778e-11
-2.20456e-11
-5.1196e-11
-1.89431e-11
-4.85703e-11
-1.52413e-11
-4.66127e-11
-1.09951e-11
-4.53688e-11
-6.26897e-12
-4.4834e-11
-1.14164e-12
-4.49727e-11
4.29104e-12
-4.57385e-11
9.91772e-12
-4.70944e-11
1.56166e-11
-4.90297e-11
2.12637e-11
-5.15722e-11
2.67414e-11
-5.47911e-11
3.19462e-11
-5.87891e-11
3.67914e-11
-6.36808e-11
4.12032e-11
-6.95604e-11
4.511e-11
-7.64626e-11
4.84253e-11
-8.43273e-11
5.10272e-11
-9.29726e-11
5.27381e-11
-1.02084e-10
5.33106e-11
-1.11218e-10
5.2423e-11
-1.19821e-10
4.96889e-11
-1.27264e-10
4.46836e-11
-1.32872e-10
3.69851e-11
-1.35967e-10
2.62255e-11
-1.35888e-10
1.2155e-11
-1.32001e-10
-5.29905e-12
-1.23694e-10
-2.59513e-11
-1.10365e-10
-4.93178e-11
-9.14093e-11
-7.45163e-11
-6.62366e-11
-1.00293e-10
-3.4304e-11
-1.24887e-10
4.71754e-12
-1.4625e-10
5.07688e-11
-1.61884e-10
1.02958e-10
-1.69481e-10
1.59235e-10
-1.66761e-10
2.15736e-10
-1.52714e-10
2.66763e-10
-1.27276e-10
3.04714e-10
-9.28295e-11
3.21408e-10
-5.32159e-11
3.09696e-10
-1.43449e-11
2.66192e-10
1.76844e-11
1.93727e-10
3.77688e-11
1.02116e-10
4.327e-11
7.81845e-12
3.60245e-11
-7.09179e-11
2.09694e-11
-1.16989e-10
6.58926e-12
-1.18496e-10
-6.30089e-11
-3.55226e-12
4.26934e-11
-1.06595e-11
6.85931e-11
-1.87342e-11
7.24903e-11
-2.69566e-11
7.2647e-11
-3.3952e-11
7.17021e-11
-3.86811e-11
6.82504e-11
-4.05824e-11
6.30879e-11
-3.90704e-11
5.72257e-11
-3.47191e-11
5.27247e-11
-2.76472e-11
4.98205e-11
-1.90846e-11
4.87097e-11
-9.54423e-12
4.81581e-11
-2.88489e-13
4.73485e-11
8.15599e-12
4.50789e-11
1.49168e-11
4.08523e-11
1.97236e-11
3.42765e-11
2.2246e-11
2.55146e-11
2.25693e-11
1.48832e-11
2.08351e-11
2.98321e-12
1.74154e-11
-9.53041e-12
1.27274e-11
-2.19422e-11
7.2606e-12
-3.35982e-11
1.4801e-12
-4.39319e-11
-4.1902e-12
-5.25227e-11
-9.41104e-12
-5.91108e-11
-1.39362e-11
-6.36093e-11
-1.76165e-11
-6.60922e-11
-2.03864e-11
-6.67724e-11
-2.22449e-11
-6.59676e-11
-2.32319e-11
-6.4061e-11
-2.34064e-11
-6.14606e-11
-2.28297e-11
-5.85602e-11
-2.15554e-11
-5.57071e-11
-1.96274e-11
-5.31789e-11
-1.70822e-11
-5.11711e-11
-1.39564e-11
-4.97959e-11
-1.02945e-11
-4.90911e-11
-6.15693e-12
-4.90366e-11
-1.6251e-12
-4.95757e-11
3.19664e-12
-5.06392e-11
8.18356e-12
-5.21697e-11
1.31975e-11
-5.41432e-11
1.80971e-11
-5.65841e-11
2.27501e-11
-5.95707e-11
2.70438e-11
-6.32251e-11
3.08911e-11
-6.76874e-11
3.42297e-11
-7.3076e-11
3.7012e-11
-7.94405e-11
3.9188e-11
-8.67179e-11
4.06828e-11
-9.47015e-11
4.13734e-11
-1.03028e-10
4.10707e-11
-1.11188e-10
3.95128e-11
-1.18556e-10
3.63732e-11
-1.24435e-10
3.12872e-11
-1.28115e-10
2.38928e-11
-1.28919e-10
1.3886e-11
-1.26242e-10
1.07706e-12
-1.19567e-10
-1.45357e-11
-1.08464e-10
-3.27191e-11
-9.25757e-11
-5.29176e-11
-7.16059e-11
-7.42555e-11
-4.53048e-11
-9.54182e-11
-1.35365e-11
-1.14786e-10
2.36726e-11
-1.30266e-10
6.58662e-11
-1.3975e-10
1.12026e-10
-1.40887e-10
1.60017e-10
-1.32139e-10
2.06574e-10
-1.12409e-10
2.46723e-10
-8.27137e-11
2.74618e-10
-4.52697e-11
2.83706e-10
-5.03844e-12
2.69092e-10
3.22776e-11
2.28655e-10
6.00776e-11
1.65604e-10
7.34819e-11
8.85008e-11
7.07222e-11
1.03086e-11
5.39167e-11
-5.44371e-11
3.03935e-11
-9.37566e-11
9.1042e-12
-9.75314e-11
-5.40178e-11
-3.30511e-12
4.578e-11
-9.11465e-12
7.45108e-11
-1.63678e-11
7.94491e-11
-2.3462e-11
7.97449e-11
-2.95279e-11
7.7493e-11
-3.36876e-11
7.23639e-11
-3.50585e-11
6.42908e-11
-3.39083e-11
5.59911e-11
-2.99147e-11
4.86472e-11
-2.41714e-11
4.39662e-11
-1.68013e-11
4.12907e-11
-9.08253e-12
4.03222e-11
-1.31527e-12
3.95387e-11
5.48344e-12
3.81776e-11
1.10773e-11
3.52122e-11
1.49155e-11
3.03546e-11
1.69825e-11
2.33951e-11
1.71953e-11
1.45994e-11
1.57848e-11
4.33706e-12
1.29964e-11
-6.80565e-12
9.21345e-12
-1.82167e-11
4.81319e-12
-2.92565e-11
1.82364e-13
-3.93564e-11
-4.34848e-12
-4.80459e-11
-8.51161e-12
-5.49993e-11
-1.21212e-11
-6.00493e-11
-1.50672e-11
-6.31935e-11
-1.73059e-11
-6.45788e-11
-1.88402e-11
-6.44762e-11
-1.97005e-11
-6.32418e-11
-1.99259e-11
-6.12746e-11
-1.95518e-11
-5.89722e-11
-1.86042e-11
-5.66918e-11
-1.70997e-11
-5.47203e-11
-1.50513e-11
-5.3257e-11
-1.24767e-11
-5.24098e-11
-9.407e-12
-5.2203e-11
-5.8948e-12
-5.25952e-11
-2.01902e-12
-5.35035e-11
2.11365e-12
-5.48312e-11
6.3721e-12
-5.64962e-11
1.06087e-11
-5.84582e-11
1.4672e-11
-6.07375e-11
1.84208e-11
-6.34229e-11
2.17387e-11
-6.66609e-11
2.45439e-11
-7.06259e-11
2.67906e-11
-7.54727e-11
2.84623e-11
-8.12793e-11
2.9554e-11
-8.79945e-11
3.00488e-11
-9.53991e-11
2.98915e-11
-1.03092e-10
2.89679e-11
-1.10504e-10
2.70942e-11
-1.16939e-10
2.4024e-11
-1.21639e-10
1.94711e-11
-1.23853e-10
1.31507e-11
-1.22904e-10
4.827e-12
-1.18238e-10
-5.62399e-12
-1.09447e-10
-1.81661e-11
-9.62652e-11
-3.25276e-11
-7.85618e-11
-4.81896e-11
-5.63019e-11
-6.42863e-11
-2.95607e-11
-7.96876e-11
1.4984e-12
-9.28364e-11
3.64759e-11
-1.02071e-10
7.47305e-11
-1.05351e-10
1.1498e-10
-1.01083e-10
1.55379e-10
-8.76449e-11
1.92845e-10
-6.49918e-11
2.23711e-10
-3.3681e-11
2.43064e-10
2.95432e-12
2.46739e-10
4.08606e-11
2.30978e-10
7.35606e-11
1.95663e-10
9.54696e-11
1.43493e-10
1.01754e-10
8.19996e-11
9.11667e-11
2.06595e-11
6.7072e-11
-3.05523e-11
3.65681e-11
-6.3702e-11
1.11352e-11
-7.21727e-11
-4.31434e-11
-2.53493e-12
4.83717e-11
-8.00743e-12
7.96422e-11
-1.40194e-11
8.56715e-11
-2.03492e-11
8.57771e-11
-2.57287e-11
8.28994e-11
-2.92115e-11
7.55974e-11
-3.07146e-11
6.57309e-11
-2.95893e-11
5.47168e-11
-2.67927e-11
4.57513e-11
-2.20672e-11
3.91701e-11
-1.66798e-11
3.5789e-11
-1.05894e-11
3.41864e-11
-4.88473e-12
3.37216e-11
3.83977e-13
3.28628e-11
4.51122e-12
3.0988e-11
7.49183e-12
2.73211e-11
9.04296e-12
2.17627e-11
9.29652e-12
1.42871e-11
8.30989e-12
5.25259e-12
6.34575e-12
-4.90271e-12
3.64861e-12
-1.55843e-11
5.24748e-13
-2.61926e-11
-2.75524e-12
-3.61359e-11
-5.94576e-12
-4.49117e-11
-8.86203e-12
-5.21372e-11
-1.13764e-11
-5.75862e-11
-1.342e-11
-6.11984e-11
-1.49688e-11
-6.30758e-11
-1.60291e-11
-6.34588e-11
-1.6621e-11
-6.26904e-11
-1.67641e-11
-6.11696e-11
-1.64697e-11
-5.93027e-11
-1.57383e-11
-5.74579e-11
-1.45627e-11
-5.59297e-11
-1.29355e-11
-5.49178e-11
-1.08583e-11
-5.45214e-11
-8.35036e-12
-5.47471e-11
-5.45588e-12
-5.55287e-11
-2.24881e-12
-5.67538e-11
1.16647e-12
-5.8295e-11
4.65842e-12
-6.00436e-11
8.07686e-12
-6.19402e-11
1.1266e-11
-6.39998e-11
1.40812e-11
-6.63219e-11
1.64058e-11
-6.90812e-11
1.81645e-11
-7.24933e-11
1.93289e-11
-7.67595e-11
1.99124e-11
-8.19999e-11
1.99547e-11
-8.8189e-11
1.94975e-11
-9.51094e-11
1.85569e-11