/*--------------------------------*- C++ -*----------------------------------*\
| =========                 |                                                 |
| \\      /  F ield         | OpenFOAM: The Open Source CFD Toolbox           |
|  \\    /   O peration     | Version:  2412                                  |
|   \\  /    A nd           | Website:  www.openfoam.com                      |
|    \\/     M anipulation  |                                                 |
\*---------------------------------------------------------------------------*/
FoamFile
{
    version     2.0;
    format      ascii;
    arch        "LSB;label=32;scalar=64";
    class       volScalarField;
    location    "6.75";
    object      alpha.oil;
}
// * * * * * * * * * * * * * * * * * * * * * * * * * * * * * * * * * * * * * //

dimensions      [0 0 0 0 0 0 0];

internalField   nonuniform List<scalar> 
6400
(
1
0.999996
0.999997
0.999997
0.999997
0.999999
1
0.999999
1
1
1
1
1
1
1
1
1.00001
1.00001
1
1
1
1
1
1
0.999999
0.999999
0.999998
0.999998
0.999998
0.999998
0.999998
0.999998
0.999997
0.999997
0.999998
0.999998
0.999998
0.999998
0.999998
0.999998
0.999999
0.999999
0.999999
0.999999
0.999999
0.999999
0.999998
0.999998
0.999998
0.999999
0.999999
0.999998
0.999998
0.999998
0.999998
0.999998
0.999998
0.999998
0.999998
0.999998
0.999999
0.999999
0.999999
1
1
1
1
1
1
1
1
1
1
1
1
1
1
1
1.00001
1.00001
0.999996
0.999994
0.999995
0.999997
0.999998
0.999999
0.999999
1
1
1
1
1
1
1.00001
1.00001
1.00001
1.00001
1.00001
1
1
1
1
1
1
0.999999
0.999998
0.999997
0.999997
0.999997
0.999997
0.999997
0.999997
0.999997
0.999997
0.999997
0.999998
0.999998
0.999998
0.999998
0.999998
0.999998
0.999999
0.999998
0.999998
0.999998
0.999997
0.999997
0.999997
0.999997
0.999997
0.999997
0.999996
0.999996
0.999996
0.999996
0.999996
0.999996
0.999997
0.999997
0.999998
0.999998
0.999998
0.999999
1
1
1
1
1
1
1
1
1
1
1
1
1.00001
1.00001
1.00001
1.00001
1
0.999996
0.999997
0.999997
0.999998
0.999998
0.999999
0.999999
1
1
1
1
1
1
0.999999
0.999999
1
1
1
1
1
1
1
1
1
1
1
1
1
1
1
1
1
1
1
1
1
1
1
1
1
0.999999
0.999999
0.999999
1
1
1
0.999999
0.999999
0.999999
0.999998
0.999998
0.999998
0.999998
0.999999
0.999999
0.999999
0.999999
0.999999
0.999998
0.999998
0.999998
0.999998
0.999998
0.999998
0.999998
0.999999
0.999999
0.999999
0.999999
0.999999
0.999999
0.999998
0.999998
0.999999
1
1
1
1
1
0.999997
0.999998
0.999998
0.999998
0.999999
0.999999
0.999999
0.999999
0.999998
0.999998
0.999998
0.999998
0.999997
0.999997
0.999996
0.999994
0.999994
0.999996
0.999997
0.999998
0.999999
0.999999
0.999999
0.999999
1
1
1
1
1
1
1
1
1
1
1
1
1
1
1
1
1
1
1
1
1
1
1
1
1
1
1
1
1
1
1
1
1
1
1
1
1
1
1
1
1
0.999999
0.999999
0.999998
0.999998
0.999997
0.999997
0.999997
0.999997
0.999997
0.999998
0.999998
0.999997
0.999997
0.999998
0.999996
0.999993
0.999999
0.999999
0.999999
0.999999
0.999998
0.999998
0.999998
0.999997
0.999997
0.999997
0.999996
0.999997
0.999997
0.999995
0.999993
0.999992
0.999992
0.999993
0.999994
0.999995
0.999995
0.999995
0.999996
0.999997
0.999998
0.999999
0.999999
1
1
1
1
1
1
1
1
1
1.00001
1.00001
1.00001
1.00001
1.00001
1.00001
1.00001
1.00001
1.00001
1.00001
1.00001
1.00001
1.00001
1.00001
1.00001
1.00001
1.00001
1.00001
1.00001
1
1
1
1
1
1
1
1
1
1
1
0.999999
0.999998
0.999997
0.999997
0.999997
0.999997
0.999997
0.999997
0.999996
0.999995
0.999994
0.999993
0.99999
0.999995
1
1
0.999999
0.999999
0.999998
0.999998
0.999998
0.999997
0.999998
0.999998
0.999997
0.999999
1
1
0.999998
0.999996
0.999994
0.999995
0.999995
0.999996
0.999996
0.999996
0.999997
0.999997
0.999998
0.999999
0.999999
1
1
1
1
1
1
1
1
1
1
1
1
1
1
1
1
1
1
1
1
1
1
1
1
1
1
1
1
1
1
1
1
1
1
1
1
1
1
0.999999
0.999998
0.999997
0.999997
0.999997
0.999997
0.999997
0.999998
0.999997
0.999997
0.999995
0.999994
0.999992
0.999992
1
1
1
0.999999
0.999999
0.999999
0.999999
0.999999
0.999999
1
1
0.999999
1
1
1.00001
1
1
1
1
1
1
1
1
1
1
1
1
1
1
1
1
1
1
1
1
1
1
1
1
0.999999
0.999999
0.999999
0.999999
0.999997
0.999997
0.999996
0.999996
0.999997
0.999998
0.999998
0.999998
0.999998
0.999999
0.999999
0.999999
0.999999
0.999999
0.999999
0.999998
0.999998
0.999998
0.999998
0.999999
0.999998
0.999998
0.999998
0.999997
0.999996
0.999996
0.999997
0.999998
0.999999
0.999999
0.999999
0.999999
0.999999
0.999998
0.999998
0.999997
1
1.00001
1
1
1
1
1
1
1
1
1
1
0.999998
0.999998
1
1
1
1
1
1
1
1
1
1
1
1
1
1
1
1
1
0.999999
0.999999
0.999999
0.999999
0.999999
0.999999
0.999998
0.999998
0.999997
0.999997
0.999997
0.999997
0.999997
0.999996
0.999995
0.999995
0.999995
0.999995
0.999995
0.999995
0.999995
0.999995
0.999995
0.999995
0.999995
0.999995
0.999995
0.999995
0.999995
0.999995
0.999996
0.999996
0.999996
0.999996
0.999996
0.999997
0.999997
0.999998
0.999998
0.999999
1
1
1
1
1
1
0.999999
0.999999
1
1.00001
1
1
1
1
1
1
1
1
1
1
1
0.999996
0.999993
0.999995
0.999998
0.999999
0.999999
0.999998
0.999998
0.999999
0.999999
0.999999
1
1
1
1
1
0.999999
0.999999
0.999999
0.999998
0.999998
0.999998
0.999999
0.999999
0.999999
0.999999
0.999999
0.999999
0.999999
0.999999
0.999999
1
1
1
1
1
1
1
1
0.999999
0.999999
0.999999
0.999999
0.999999
0.999999
0.999999
0.999999
0.999999
0.999998
0.999998
0.999998
0.999998
0.999998
0.999998
0.999999
0.999999
1
1
1
1
1
1
1
0.999999
0.999998
0.999998
0.999999
1
1
0.999991
1
1
1
1
1
1
1
1
1
1
0.999998
0.999993
0.999993
0.999995
0.999996
0.999996
0.999996
0.999996
0.999997
0.999997
0.999998
0.999998
0.999998
0.999999
0.999998
0.999998
0.999998
0.999998
0.999998
0.999997
0.999997
0.999997
0.999997
0.999998
0.999999
0.999999
1
1
1
1
1
1
1
1
1
1
1
1
1
1
1
1
1
1
1
1
1
1
1
1
1
0.999999
0.999998
0.999998
0.999998
0.999999
1
1
1
1
1
0.999999
0.999999
0.999998
0.999998
0.999998
1
1
0.999994
0.999992
1
1
1
1
1
1
1
0.999999
1
1
1
0.999999
0.999999
1
1
1
0.999999
0.999999
0.999999
0.999999
1
1
1
1
1
0.999999
0.999999
0.999998
0.999998
0.999998
0.999998
0.999998
0.999998
0.999998
0.999999
0.999999
0.999999
0.999998
0.999998
0.999998
0.999998
0.999998
0.999998
0.999999
0.999999
0.999998
0.999998
0.999998
0.999998
0.999998
0.999998
0.999998
0.999998
0.999998
0.999998
0.999998
0.999998
1
1
1
1
0.999999
0.999999
0.999998
0.999998
0.999998
0.999999
1
1
1
0.999999
0.999999
0.999999
0.999999
1
1
1
1
0.99999
1.00001
1
1
1
1
0.999997
1
0.999999
0.999998
1
1
1
1
1
1
1
1
1
1
1
1
1
1
1
1
1
1
1
1
1
1
1
1
1
1
1
1
1
0.999999
0.999999
0.999998
0.999998
0.999998
0.999997
0.999997
0.999997
0.999997
0.999996
0.999996
0.999996
0.999995
0.999995
0.999995
0.999995
0.999995
0.999996
0.999997
0.999998
0.999999
1
1
1
1
1
1
1
1
1
1
1
1
0.999999
0.999999
0.999999
1
1
1
1
0.999996
0.999999
1.00001
1
0.999999
0.999999
0.999998
0.999996
1
0.999996
0.999995
0.999999
0.999999
0.999997
0.999996
0.999996
0.999998
0.999998
0.999998
0.999998
0.999998
0.999998
0.999999
0.999999
1
1
1
1
1
1
1
1
1
1
1
1
1
1
1
1
1
1
1
1
1
1
1
1
1
1
1
1
1
1
1
1
1
1
1
1
1
1
1
1
1
1
1
1
1
1
1
1
0.999999
0.999998
0.999998
0.999998
0.999999
1
1
0.999996
0.999993
1.00001
0.999995
1
0.999997
0.999999
0.999995
0.999999
0.999999
0.999995
0.999995
0.999999
0.999999
0.999996
0.999996
0.999996
0.999997
0.999998
0.999998
0.999998
0.999998
0.999999
0.999999
0.999999
0.999999
0.999999
0.999999
1
1
1
1
1
1
1
1
1
1
1
1
1
1
1
1
1
1
1
1
1
1
1
1
1
1
1
1
1
1
1
1
1
0.999999
0.999999
0.999998
0.999998
0.999999
0.999999
1
1
1
1
1
1
0.999999
0.999999
0.999999
1
1
1
0.999997
0.999994
0.999999
1
0.999991
0.999999
0.999997
1
0.999995
1
1
0.999998
1
1
1
1
1
1
1
1
1
1
1
1
1
1
1
1
1
1
0.999999
0.999999
0.999998
0.999997
0.999996
0.999996
0.999996
0.999998
0.999999
0.999999
1
1
1
1
1
1
1
1
1
1
1
1
0.999999
0.999999
0.999999
0.999999
0.999998
0.999998
0.999998
0.999997
0.999996
0.999996
0.999996
0.999996
0.999997
0.999997
0.999997
0.999997
0.999998
0.999999
1
1
1
1
1
1
1
1
1
1
0.999998
0.999999
1.00001
0.999993
1
1
1
1.00001
1
1.00001
1
1
1
1
1
1
1
1
1
1
1
1
1
1
0.999999
1
0.999999
0.999999
0.999999
0.999999
0.999998
0.999997
0.999997
0.999997
0.999998
0.999998
0.999999
1
1
1
0.999999
0.999998
0.999998
0.999998
0.999998
0.999998
0.999998
0.999997
0.999997
0.999997
0.999997
0.999997
0.999997
0.999997
0.999997
0.999997
0.999996
0.999996
0.999996
0.999998
0.999998
0.999998
0.999998
0.999998
0.999997
0.999997
0.999997
0.999998
0.999999
0.999999
0.999999
0.999999
1
1
1
1
1
1
1
1
0.999998
1
1
0.999994
1.00001
1
1
1
1.00001
1
1
1
1
1
0.999999
0.999998
0.999997
0.999997
0.999997
0.999997
0.999997
0.999997
0.999997
0.999998
0.999997
0.999998
0.999999
1
0.999999
0.999999
0.999999
1
1
1
1
1
1
1
1
1
0.999999
0.999998
0.999998
0.999998
0.999999
0.999998
0.999998
0.999998
0.999998
0.999998
0.999999
0.999999
1
1
1
1
1
1
1
1
1
1
1
1
1
1
1
1
1
1
1
0.999999
0.999999
1
1
1
1
1
1
0.999998
0.999998
1
0.999996
1.00001
0.999999
1
1
1
1
1
1
1
1
1
1
0.999999
0.999999
0.999999
0.999999
0.999999
0.999999
0.999999
0.999999
0.999999
0.999999
0.999999
0.999999
1
1
1
1
1
1
1
1
1
1
0.999999
0.999999
1
0.999999
0.999999
0.999998
0.999998
0.999997
0.999997
0.999997
0.999997
0.999997
0.999998
0.999998
0.999999
0.999999
0.999999
0.999999
0.999999
0.999999
1
1
1
1
1
1
1
1
1
1
1
1
1
1
1
1
1
1
1
1
1
1
0.999999
0.999999
1
0.999999
1
0.999996
1
1
1
1
1
1
1
1
1
0.999999
0.999999
0.999999
0.999999
0.999999
0.999999
0.999999
0.999999
0.999999
1
1
1
1
1
1
1
1
1
1
1
1
1
1
1
1
1
1
1
1
1
1
1
1
1
1
1
1
1
1
1
1
1
1
1
1
1
1
1
1
1
1
1
1
1
1
1
1
1
1
1
1
1
1
1
1
0.999999
0.999999
1
0.999999
1
0.999998
0.918338
0.909267
0.904952
0.902482
0.900768
0.899429
0.898953
0.899616
0.900146
0.900362
0.900749
0.901307
0.90158
0.901529
0.901623
0.90213
0.903028
0.904146
0.905278
0.906261
0.90688
0.906853
0.905929
0.906074
0.909175
0.91196
0.912866
0.91323
0.913534
0.913532
0.913141
0.912293
0.911585
0.912833
0.915494
0.918024
0.920106
0.921607
0.922269
0.922827
0.923015
0.922254
0.921423
0.920467
0.918529
0.916369
0.913082
0.909992
0.909913
0.910863
0.911443
0.911543
0.911382
0.911173
0.910648
0.908117
0.904698
0.903556
0.904667
0.905323
0.904925
0.904012
0.902907
0.901892
0.901098
0.900133
0.899042
0.898921
0.899386
0.899566
0.899331
0.89908
0.898997
0.898613
0.898656
0.89988
0.901818
0.904382
0.908714
0.917783
0.184774
0.179951
0.176715
0.174285
0.173017
0.172562
0.17258
0.171793
0.171686
0.172131
0.172818
0.17369
0.174839
0.176665
0.177885
0.178827
0.17994
0.18097
0.182195
0.183732
0.185762
0.188449
0.191427
0.194232
0.193532
0.193882
0.195308
0.197368
0.199709
0.202169
0.205005
0.208275
0.211353
0.213913
0.213905
0.213158
0.212337
0.211712
0.211411
0.211126
0.210966
0.21115
0.2113
0.211445
0.211938
0.212504
0.213256
0.212467
0.208847
0.20547
0.20235
0.19963
0.197001
0.194701
0.192956
0.192484
0.193707
0.191343
0.188071
0.184902
0.182584
0.180959
0.179695
0.17858
0.177626
0.176826
0.176749
0.175792
0.174179
0.172739
0.171899
0.171387
0.17122
0.171573
0.172586
0.173187
0.174486
0.176937
0.180228
0.185155
4.59175e-06
4.59172e-06
4.59175e-06
4.59808e-06
4.65713e-06
4.74125e-06
4.76573e-06
4.76918e-06
5.59074e-06
8.03107e-06
1.05186e-05
1.22101e-05
1.39796e-05
1.58563e-05
1.67167e-05
1.74351e-05
2.14661e-05
2.53637e-05
2.68302e-05
2.8036e-05
3.44926e-05
5.88639e-05
0.000102313
0.000167491
0.000264145
0.000384413
0.000539994
0.000731535
0.000958116
0.00122332
0.00129871
0.000958998
0.000655718
0.000334539
1.86085e-05
3.22778e-06
9.5469e-07
7.7767e-07
7.56506e-07
7.47099e-07
7.51741e-07
7.47314e-07
7.45131e-07
8.77409e-07
1.99239e-06
5.38765e-06
5.254e-05
0.000475915
0.000864835
0.00122393
0.00120305
0.00095022
0.000734682
0.000550405
0.000398927
0.000274514
0.000158319
9.65429e-05
5.75436e-05
3.71449e-05
3.22687e-05
2.96542e-05
2.76639e-05
2.52842e-05
1.92336e-05
1.34803e-05
1.25293e-05
1.21459e-05
1.0928e-05
8.90196e-06
7.02199e-06
5.26975e-06
2.87981e-06
1.11957e-06
9.55819e-07
9.55659e-07
9.33325e-07
9.04974e-07
8.98799e-07
9.01271e-07
4.59171e-06
4.59175e-06
7.69481e-06
4.5523e-05
4.66833e-05
8.02748e-06
4.76918e-06
0.000957127
0.00142688
0.00142676
0.00137423
0.00139819
0.00139796
0.0006111
0.00172741
0.00326961
0.00329926
0.00329947
0.00329979
0.0032991
0.00329723
0.0032963
0.00329448
0.00200141
0.00414636
0.00415492
0.00415532
0.00408042
0.00372122
0.00359704
0.00360742
0.00360648
0.00304913
0.000388257
3.23496e-06
1.52518e-06
1.71263e-07
5.92207e-08
3.35336e-08
1.68364e-08
1.79244e-08
2.69172e-08
3.38132e-08
1.42656e-07
1.04097e-06
1.14247e-06
6.56952e-08
0.00171198
0.00408635
0.00409244
0.00407569
0.00419321
0.00464724
0.00464885
0.00464894
0.00448867
0.00128926
0.00340336
0.00396664
0.00396805
0.00396903
0.00396944
0.00396924
0.00396942
0.00394603
0.00376969
0.00174909
0.000450178
0.000718756
0.00126731
0.00126762
0.00126731
0.00126645
0.00111772
0.000236654
9.55819e-07
2.2758e-05
2.21221e-05
1.02384e-05
8.99554e-07
4.59215e-06
5.8603e-06
3.9533e-05
5.21113e-05
3.0614e-05
9.05031e-06
1.26987e-05
9.91854e-05
0.000216881
0.00033488
0.000454605
0.000594228
0.000693853
0.000685377
0.000646512
0.000120778
0.000159011
0.000219078
0.000276176
0.000323584
0.00035439
0.000360606
0.000333566
0.00061694
9.76939e-05
2.50789e-06
1.06133e-07
7.07089e-08
3.68428e-08
6.40199e-09
1.44643e-09
5.45071e-10
1.06958e-09
1.71044e-06
1.00517e-05
4.87157e-06
7.82828e-08
4.34731e-08
2.27646e-08
8.71008e-09
7.67402e-09
1.25481e-08
1.49489e-08
9.74461e-08
1.11071e-06
1.29163e-06
2.94555e-08
3.09396e-08
2.94327e-08
2.94095e-08
7.19377e-09
2.1187e-09
1.29136e-09
2.1187e-09
2.10482e-05
0.000296082
0.00097704
0.000588326
0.000306481
0.000339793
0.00030748
0.000240255
0.000151518
9.18779e-05
3.72979e-07
7.51967e-06
0.000607239
0.000697244
0.000699846
0.000434383
0.000305657
0.000193418
7.32415e-05
5.28823e-05
5.89058e-05
3.97888e-05
5.69141e-05
5.6854e-05
9.06722e-07
9.0276e-07
3.74857e-05
9.38199e-05
8.16488e-05
5.37609e-05
9.80995e-05
8.25541e-05
2.99932e-05
1.80437e-05
1.23237e-05
6.31122e-06
2.76084e-06
1.26806e-06
7.03702e-07
0.000123534
2.10338e-05
4.28334e-08
9.08173e-09
6.01353e-10
5.98988e-10
5.81878e-10
5.58082e-10
5.4903e-10
5.52523e-10
4.77415e-10
2.17398e-10
6.66901e-06
9.3939e-06
9.40475e-06
9.40194e-06
7.8852e-06
4.525e-07
2.03224e-11
5.45071e-10
1.40068e-06
1.00427e-05
2.56426e-06
1.4785e-07
2.71788e-07
3.39045e-07
7.67391e-09
7.49497e-09
1.18891e-08
1.26933e-08
6.66058e-08
1.28092e-06
1.67889e-06
5.43972e-08
1.70473e-07
1.44546e-06
1.44737e-06
1.44975e-06
9.74892e-07
6.60261e-10
8.67216e-09
7.73679e-09
6.94162e-09
6.78182e-09
3.63833e-09
3.51987e-10
3.51987e-10
3.51984e-10
3.52429e-10
3.69699e-10
8.80168e-10
3.0672e-07
9.31858e-07
1.66664e-05
7.52718e-05
1.7399e-05
2.59507e-07
2.5753e-07
5.08813e-06
4.25162e-05
5.57819e-05
5.58788e-05
4.42297e-05
5.34374e-05
5.65365e-05
2.67006e-05
9.06722e-07
0.000140296
0.000133331
8.63571e-05
0.000200414
0.00025365
0.000253544
0.000226347
5.11641e-05
6.30584e-06
2.75639e-06
1.26505e-06
7.03126e-07
3.97575e-07
1.24008e-07
3.35738e-08
1.35885e-08
3.77962e-09
2.9449e-09
2.94497e-09
2.6932e-09
1.82746e-09
6.6655e-10
2.5024e-09
4.34391e-09
3.65216e-11
2.09007e-11
2.06405e-11
2.06238e-11
2.03572e-11
1.99659e-11
1.9458e-11
1.99478e-11
2.46998e-09
5.57599e-06
7.35151e-06
1.9951e-07
2.38262e-07
6.80625e-07
6.84804e-07
3.0615e-07
7.4324e-09
1.73653e-08
2.39739e-08
3.20833e-08
1.23801e-06
1.73207e-06
4.78161e-07
3.43345e-11
3.43344e-11
3.72131e-11
3.95942e-11
3.03918e-11
2.91388e-11
3.4117e-09
8.20876e-08
1.21742e-07
1.22279e-07
1.1768e-07
1.20845e-08
3.51984e-10
4.22547e-10
1.21806e-09
2.63895e-09
1.02426e-08
2.1597e-08
2.30328e-08
3.18779e-08
4.92238e-08
1.58338e-07
2.5663e-07
1.64242e-06
7.62832e-06
7.61764e-06
1.20375e-06
7.15707e-08
5.08932e-08
3.90461e-08
2.98531e-05
7.58879e-05
7.60125e-05
0.000138371
0.000126188
0.000222349
0.00025365
0.00025365
0.000253665
0.000253544
0.000247123
5.36062e-05
4.19397e-06
1.29373e-06
3.96781e-07
1.23671e-07
3.10871e-08
1.27222e-08
1.02737e-08
9.86638e-09
1.68741e-08
1.85093e-08
9.98902e-09
2.08658e-09
6.64661e-10
2.74657e-10
8.55771e-11
2.21062e-11
2.06405e-11
2.06238e-11
2.06238e-11
2.20872e-11
2.17791e-11
1.91058e-11
1.9458e-11
1.07055e-06
5.55235e-06
6.14632e-07
1.85707e-07
2.19032e-07
6.57917e-07
6.84804e-07
5.52635e-07
7.46992e-09
9.36002e-09
2.54657e-08
1.09987e-08
6.67803e-07
1.73207e-06
8.61081e-07
3.43344e-11
1.5568e-10
2.37303e-10
1.34182e-10
3.05086e-11
2.91388e-11
2.91368e-11
2.92318e-11
3.01035e-11
9.37659e-11
1.02574e-10
1.29186e-10
4.95204e-10
2.02967e-09
6.04991e-09
9.10602e-09
9.29315e-09
9.71875e-09
1.234e-08
2.86799e-08
8.49885e-08
9.03802e-07
9.36915e-06
1.3185e-05
8.34635e-06
1.89971e-06
1.19512e-06
1.00412e-06
3.90461e-08
3.79996e-08
3.64126e-08
7.59241e-05
0.00013793
0.000116134
0.000162015
0.000253237
0.000253454
0.000253663
0.000253544
0.000253074
0.000230919
5.48392e-05
3.7844e-06
1.174e-06
3.52169e-07
1.02198e-07
3.12986e-08
1.56792e-08
1.21383e-08
1.23621e-08
2.4694e-08
2.52349e-08
1.89351e-08
2.58904e-09
4.21103e-10
4.40084e-10
3.32782e-10
1.43256e-10
3.8125e-11
2.49778e-11
3.47863e-11
6.35928e-11
4.33592e-11
1.582e-11
6.1015e-09
1.91668e-06
3.62577e-06
1.85707e-07
1.83207e-07
1.78521e-07
1.69608e-07
5.48764e-07
7.13075e-07
2.54529e-07
1.25287e-09
1.15e-08
7.91438e-09
1.3095e-07
1.73207e-06
5.35272e-07
3.77945e-11
5.09098e-11
7.16197e-11
5.77061e-11
3.43563e-11
4.36843e-11
1.09315e-10
2.08584e-10
2.81816e-10
3.3393e-10
3.9116e-10
4.96671e-10
7.67716e-10
1.60333e-09
3.64233e-09
6.49325e-09
9.20464e-09
1.21753e-08
2.51331e-08
3.06756e-07
7.84836e-06
1.31677e-05
1.3185e-05
1.26927e-05
7.31578e-06
2.73452e-06
1.89971e-06
4.20212e-06
6.76201e-08
3.65983e-08
3.65983e-08
2.48908e-05
0.000138018
0.000173206
0.000253208
0.000253223
0.000253237
0.000252026
0.000239772
0.000135269
1.405e-05
4.81196e-06
3.89038e-06
1.40243e-06
1.89154e-07
6.45297e-08
2.5925e-08
1.58659e-08
1.40511e-08
1.33009e-08
2.35522e-08
2.5237e-08
2.06091e-08
3.4232e-09
1.9327e-10
1.80049e-10
1.48686e-10
8.50791e-11
3.0786e-11
2.12593e-11
4.39272e-11
6.79966e-11
3.46331e-11
1.48068e-11
2.481e-07
1.90192e-06
2.94083e-07
2.16391e-07
6.40382e-07
2.43791e-07
1.51068e-07
4.00344e-07
7.13075e-07
4.76102e-07
1.25329e-09
3.47567e-09
4.94457e-09
1.49657e-08
2.82217e-07
6.34419e-08
1.60308e-08
5.21247e-11
5.21203e-11
5.12064e-11
2.9533e-11
2.91041e-11
8.14568e-11
2.5403e-10
4.68913e-10
5.8387e-10
6.10505e-10
6.09104e-10
6.08983e-10
7.87472e-10
1.68631e-09
4.92762e-09
1.66731e-08
5.2736e-08
8.35295e-07
8.88846e-06
1.12585e-05
1.09729e-05
9.91398e-06
1.09505e-05
1.81594e-05
8.70543e-05
7.81321e-05
1.08456e-05
1.3629e-07
4.28892e-08
3.6457e-08
1.29648e-05
0.00013789
0.000129086
0.000226086
0.000253208
0.000250584
0.000160043
3.29315e-06
6.0515e-08
5.72121e-09
5.79784e-09
1.08831e-07
3.63233e-07
1.4518e-06
1.5195e-06
1.80862e-07
2.21418e-08
1.51255e-08
1.40511e-08
2.35174e-08
2.43151e-08
9.33315e-09
5.55334e-10
2.48094e-10
1.91034e-10
1.18196e-10
5.64277e-11
2.03852e-11
1.40555e-11
2.57191e-11
6.04021e-11
1.80928e-11
1.39879e-11
3.85743e-07
1.88441e-06
3.02021e-07
4.0449e-07
8.40731e-07
6.58576e-07
1.51069e-07
2.02347e-07
7.13075e-07
2.26548e-07
1.25143e-09
3.06668e-09
4.19088e-09
3.73751e-09
2.3236e-09
6.96228e-10
5.9972e-09
5.69029e-10
5.29086e-11
3.21096e-11
1.77962e-11
1.42148e-11
4.4623e-11
1.8804e-10
3.75682e-10
4.54829e-10
4.56149e-10
4.35165e-10
4.45821e-10
5.014e-10
8.37798e-10
2.4227e-09
9.3306e-09
6.86468e-08
7.35134e-07
1.59622e-06
2.40471e-06
4.04655e-06
6.51788e-06
4.50892e-05
0.000165176
0.00025158
0.000254587
0.000163539
5.79513e-06
1.36083e-07
4.28442e-08
1.5094e-07
0.000121104
7.01762e-05
7.13432e-05
0.000249967
0.000130512
6.81219e-07
6.05089e-08
5.71688e-09
6.77159e-10
2.52892e-10
2.49112e-09
4.67722e-07
2.76108e-06
2.82076e-06
1.94275e-06
1.02831e-07
1.97991e-08
1.46982e-08
1.71387e-08
1.22383e-08
3.21109e-09
4.61303e-10
2.6341e-10
1.70181e-10
9.28979e-11
3.97972e-11
1.42514e-11
8.05905e-12
1.0531e-11
3.89175e-11
1.43377e-11
1.37161e-11
4.67914e-07
5.5251e-07
4.27301e-07
8.36995e-07
8.40974e-07
8.41151e-07
2.45905e-07
5.38384e-08
6.44204e-07
7.58661e-08
1.22465e-09
3.63033e-09
5.26122e-09
3.43487e-09
6.96228e-10
5.15917e-10
4.96599e-10
6.67859e-10
6.22521e-11
1.74729e-11
7.45972e-12
5.12104e-12
1.80791e-11
9.68386e-11
2.28407e-10
3.04083e-10
3.22669e-10
3.4908e-10
4.79071e-10
8.4764e-10
2.45397e-09
9.25208e-09
3.67297e-08
1.95131e-06
1.50263e-05
3.12076e-05
3.57699e-05
3.22357e-05
6.89387e-05
0.000170568
0.00025158
0.000254587
0.000255102
0.000255102
0.000100005
8.09432e-07
1.67364e-07
2.45322e-07
2.02174e-05
7.01729e-05
7.01771e-05
0.000213325
9.70005e-07
3.4743e-07
1.30823e-08
6.72965e-10
2.5286e-10
1.0963e-10
2.08646e-10
1.7576e-06
2.83177e-06
2.84736e-06
2.83158e-06
9.90086e-07
1.89602e-08
6.85542e-09
4.69354e-09
2.87419e-09
1.165e-09
4.31158e-10
2.29742e-10
1.3313e-10
6.97259e-11
2.81932e-11
9.98714e-12
4.84473e-12
4.78604e-12
1.47384e-11
1.37246e-11
1.36484e-11
3.04629e-07
2.03515e-07
2.92685e-07
4.50745e-07
8.41213e-07
8.40884e-07
2.63556e-07
2.91902e-08
5.66495e-07
1.01169e-07
1.1576e-09
3.83325e-09
5.42008e-09
3.81539e-09
6.621e-10
5.13717e-10
4.30862e-10
4.04153e-10
4.42821e-11
8.92546e-12
2.70945e-12
1.87489e-12
6.97856e-12
4.30416e-11
1.2533e-10
2.05004e-10
2.52603e-10
3.54428e-10
9.9003e-10
4.82503e-09
2.3565e-08
1.06438e-07
4.67902e-07
2.22601e-05
9.46866e-05
0.000103495
0.000117352
0.000129678
0.000135157
0.00013767
0.000131877
0.000253659
0.000255103
0.000255314
0.000231617
1.69964e-05
3.81903e-07
2.76432e-07
3.99572e-07
7.01771e-05
0.000205523
9.0693e-05
1.29453e-06
8.60145e-07
1.30429e-06
7.15506e-08
6.98675e-11
1.0963e-10
1.0963e-10
2.58382e-06
2.84817e-06
2.85089e-06
2.84852e-06
2.37999e-06
1.01917e-07
3.10713e-09
1.44292e-09
1.1375e-09
7.34622e-10
3.52362e-10
1.66495e-10
9.29554e-11
4.93967e-11
1.91971e-11
6.49043e-12
3.07862e-12
2.4581e-12
4.66453e-12
1.4738e-11
1.35787e-11
9.49498e-09
1.77768e-07
8.98442e-08
8.11346e-08
8.36411e-07
7.00747e-07
7.93807e-08
2.66365e-08
7.84151e-07
7.64997e-08
1.09316e-09
3.50153e-09
5.42008e-09
5.00005e-09
1.4434e-09
5.41483e-10
3.31682e-10
1.71144e-10
2.261e-11
4.20366e-12
1.11465e-12
8.94871e-13
3.50367e-12
2.24096e-11
7.55375e-11
1.41885e-10
1.78952e-10
2.01404e-10
7.15308e-10
4.24006e-09
2.54916e-08
1.40335e-07
7.88361e-07
4.19453e-05
9.43086e-05
9.96978e-05
6.47114e-05
5.00507e-05
4.30881e-05
4.5281e-05
4.60914e-05
0.000172519
0.000255162
0.000255526
0.000255521
7.60871e-05
5.99773e-07
3.99572e-07
9.76262e-07
7.05016e-05
0.000259515
0.0002028
4.70683e-06
1.29498e-06
1.3199e-05
1.59825e-07
2.70499e-11
6.99582e-11
6.08734e-09
1.77094e-06
2.84989e-06
2.84974e-06
2.8498e-06
1.56005e-06
5.25898e-08
1.32708e-09
6.88879e-10
7.45836e-10
5.26878e-10
2.37506e-10
1.00156e-10
5.77885e-11
3.17307e-11
1.18978e-11
3.69871e-12
1.70921e-12
1.31742e-12
2.07019e-12
1.35809e-11
1.35384e-11
1.35786e-11
9.48073e-08
8.23035e-10
7.68756e-08
1.97697e-07
8.25126e-08
3.82173e-09
1.96284e-08
7.92224e-07
1.15735e-07
1.06749e-09
2.05843e-09
5.05871e-09
5.03719e-09
2.57929e-09
5.2817e-10
1.97716e-10
6.45294e-11
9.96207e-12
1.83996e-12
5.37146e-13
5.00787e-13
2.13445e-12
1.40148e-11
5.10205e-11
9.67735e-11
1.12937e-10
9.35541e-11
2.01364e-10
8.97015e-10
5.62541e-09
3.40555e-08
1.96371e-07
8.30588e-06
2.71368e-05
4.70108e-05
3.53544e-05
3.53544e-05
3.81112e-05
4.47503e-05
4.6701e-05
0.000155934
0.000255025
0.00025552
0.000255526
0.000122545
7.3696e-07
6.0115e-07
3.33608e-05
7.06212e-05
0.000259515
0.000259515
0.000105421
3.44142e-06
1.39032e-05
1.37352e-08
2.13838e-11
2.70959e-11
3.36479e-10
4.35784e-07
1.9862e-06
2.21105e-06
1.17886e-06
2.094e-07
2.72535e-08
6.1971e-10
4.75552e-10
4.49116e-10
2.87941e-10
1.15046e-10
4.81174e-11
3.03501e-11
1.7366e-11
6.41196e-12
1.78738e-12
7.71053e-13
6.45822e-13
1.19104e-12
9.07612e-12
1.74747e-11
2.12459e-10
1.26979e-09
2.78588e-10
3.26353e-08
2.41945e-09
2.14854e-09
2.0351e-09
2.28705e-08
7.93878e-07
3.17345e-07
1.06465e-09
1.06983e-09
2.60023e-09
3.58906e-09
2.20357e-09
4.58968e-10
9.59134e-11
2.40625e-11
4.90729e-12
8.34877e-13
2.72594e-13
2.75602e-13
1.30688e-12
9.07903e-12
3.43099e-11
6.40025e-11
7.16347e-11
4.23546e-11
1.0779e-10
6.89434e-10
5.88239e-09
4.85203e-08
2.95551e-06
3.04837e-05
3.48362e-05
3.62111e-05
3.53544e-05
4.88714e-05
0.000162097
0.000191497
9.99396e-05
0.000116151
0.00025477
0.000255494
0.000255521
0.000152477
1.1691e-06
1.06917e-06
5.5253e-05
7.25879e-05
0.000259515
0.000259292
0.000250173
5.4087e-06
1.05005e-05
2.13839e-11
1.88627e-11
1.81433e-11
8.06849e-10
7.35558e-09
6.35336e-08
8.99173e-08
1.08187e-08
4.33994e-09
3.81315e-09
4.65843e-10
2.80059e-10
1.98285e-10
1.03022e-10
3.67834e-11
1.78996e-11
1.25713e-11
7.64063e-12
2.90664e-12
7.31973e-13
2.87761e-13
2.71578e-13
7.16719e-13
5.17773e-12
1.79471e-11
8.52687e-11
5.81255e-11
2.39285e-10
3.2047e-10
1.83839e-09
2.0219e-09
2.03179e-09
4.10018e-08
7.93878e-07
5.4777e-07
1.06473e-09
1.06465e-09
1.09809e-09
9.68807e-10
9.23133e-10
2.56642e-10
4.47814e-11
1.20282e-11
2.89e-12
4.35517e-13
1.34482e-13
1.34262e-13
7.10406e-13
5.3782e-12
2.06733e-11
3.78002e-11
4.10218e-11
1.21982e-11
2.98756e-11
2.38014e-10
2.65076e-09
2.99052e-08
3.17659e-07
5.848e-05
0.000150867
6.10952e-05
0.00011201
0.000211065
0.000211017
0.000211598
0.00021069
5.36261e-06
0.000205102
0.000255204
0.000255494
0.000131604
1.70035e-06
2.65457e-06
5.53392e-05
0.00014815
0.000260088
0.000258178
0.000253681
4.02199e-05
1.82603e-09
1.88627e-11
1.5829e-11
1.23812e-11
1.90366e-11
9.24244e-11
5.66644e-10
1.27503e-09
1.25275e-09
8.16506e-10
4.53763e-10
2.17983e-10
1.10278e-10
5.72928e-11
2.3061e-11
8.54611e-12
5.21853e-12
4.00788e-12
2.64845e-12
1.08911e-12
2.59811e-13
9.47914e-14
1.00214e-13
4.36548e-13
3.22202e-12
1.52347e-11
3.66331e-11
4.93193e-11
2.33059e-10
3.56159e-10
1.91547e-09
2.38079e-09
2.0351e-09
5.13633e-08
7.93878e-07
3.90707e-07
1.06465e-09
1.07e-09
1.29607e-09
3.53731e-10
1.59073e-10
8.55635e-11
2.61132e-11
8.29833e-12
1.91564e-12
2.59814e-13
6.24972e-14
5.58967e-14
3.14201e-13
2.63124e-12
1.03065e-11
1.8623e-11
1.99521e-11
5.21554e-12
3.40414e-12
3.59619e-11
5.69735e-10
9.66057e-09
1.56543e-07
5.25404e-05
0.000166478
0.000206117
0.000208607
0.000210373
0.000211663
0.00021069
0.000106368
1.84189e-06
5.08999e-05
0.000253316
0.000249369
4.32097e-05
1.39918e-06
7.53581e-06
5.53186e-05
0.000260988
0.000261126
0.000256054
0.000245806
0.00011002
1.3969e-08
8.19689e-11
1.23812e-11
1.23812e-11
1.23812e-11
1.90366e-11
7.65583e-11
1.46823e-10
2.68753e-10
4.19066e-10
2.49487e-10
7.64685e-11
2.80045e-11
1.09694e-11
3.99163e-12
1.82918e-12
1.29079e-12
1.05018e-12
7.56966e-13
3.42643e-13
8.21822e-14
2.88844e-14
3.68568e-14
2.74061e-13
2.18925e-12
1.07798e-11
2.80218e-11
5.80696e-11
2.44635e-10
1.03828e-09
2.91528e-09
2.91887e-09
2.03121e-09
2.36524e-08
7.93463e-07
8.32487e-08
1.06473e-09
1.52305e-09
1.78276e-09
4.85353e-10
8.55854e-11
4.24852e-11
1.9687e-11
6.46415e-12
1.34878e-12
1.6916e-13
2.8327e-14
2.05487e-14
1.05427e-13
9.72613e-13
3.91064e-12
7.16082e-12
7.81651e-12
2.79831e-12
2.44889e-13
2.67768e-12
5.61892e-11
2.40634e-09
3.25096e-06
5.35612e-05
2.97058e-05
0.000117448
0.000206117
0.000208607
0.000210373
0.000201021
1.65404e-06
1.22014e-06
1.65694e-05
0.000182726
6.35607e-05
1.34641e-06
1.16706e-06
6.73038e-06
3.68231e-05
0.000261128
0.00025191
0.000127403
0.000235386
0.000148834
1.11936e-07
1.74298e-09
1.26571e-11
1.23719e-11
2.97459e-11
5.90915e-11
6.27818e-11
6.15835e-11
1.74202e-10
2.57428e-10
8.99818e-11
1.81784e-11
5.02012e-12
1.81493e-12
7.65417e-13
4.16431e-13
3.04281e-13
2.54791e-13
1.95068e-13
9.52289e-14
2.37112e-14
8.38362e-15
1.59445e-14
1.7595e-13
1.48966e-12
7.36356e-12
2.34149e-11
6.44847e-11
2.78271e-10
1.58986e-09
3.16718e-09
2.20292e-09
5.20355e-09
5.62684e-09
4.69891e-07
4.23596e-10
1.07636e-09
2.07904e-09
2.03333e-09
6.72029e-10
9.26955e-11
3.5913e-11
1.64025e-11
5.10273e-12
9.71069e-13
1.16677e-13
1.42208e-14
7.28357e-15
2.58911e-14
2.58114e-13
1.08924e-12
2.09428e-12
2.41995e-12
1.12719e-12
3.81292e-14
2.44901e-13
2.67769e-12
5.61908e-11
5.80986e-06
3.39603e-05
9.29832e-06
4.40064e-06
8.5201e-05
0.000186899
0.000204263
8.84157e-05
1.22014e-06
1.06346e-06
1.02623e-06
9.13359e-07
3.40422e-06
1.06788e-06
1.11487e-06
1.82914e-06
1.97833e-06
0.000260975
5.81021e-05
6.9083e-07
0.000116508
0.000152374
5.34594e-06
3.14273e-08
4.36236e-11
9.31053e-12
1.26611e-11
5.46028e-11
5.13627e-11
3.94503e-11
4.9673e-11
5.73777e-11
1.70387e-11
3.00421e-12
8.20495e-13
3.51767e-13
1.75347e-13
9.86285e-14
7.11422e-14
6.01091e-14
4.74142e-14
2.41304e-14
6.24283e-15
2.45371e-15
8.67394e-15
1.11945e-13
9.65829e-13
5.07716e-12
1.97097e-11
7.20457e-11
3.01658e-10
1.43021e-09
3.05252e-09
1.48041e-09
5.44583e-08
6.58649e-07
5.22331e-09
1.46124e-10
1.42819e-09
2.09458e-09
1.93836e-09
6.72632e-10
1.02976e-10
3.30432e-11
1.38305e-11
3.91014e-12
6.98192e-13
8.4288e-14
8.82595e-15
2.75413e-15
5.02762e-15
5.18917e-14
2.37277e-13
4.91333e-13
6.10164e-13
3.36974e-13
9.79986e-15
4.6835e-14
4.35213e-13
5.2753e-12
3.76039e-07
3.07841e-06
3.52323e-05
3.46452e-06
6.39527e-07
1.13271e-05
7.60336e-05
3.89481e-05
1.15093e-06
9.08703e-07
9.08703e-07
9.07005e-07
9.13359e-07
9.96478e-07
1.06782e-06
2.18664e-06
2.13249e-05
0.000260567
6.94713e-07
5.69979e-08
4.58798e-06
0.000151301
4.02575e-05
4.22486e-06
1.65096e-08
-7.13297e-11
9.25254e-12
9.60831e-12
1.41612e-11
5.66659e-12
3.86742e-12
3.35201e-12
1.89205e-12
4.09075e-13
1.50973e-13
7.85435e-14
4.11666e-14
2.20755e-14
1.54318e-14
1.29488e-14
1.03411e-14
5.34935e-15
1.45358e-15
7.98722e-16
5.48069e-15
6.89248e-14
5.91363e-13
3.42308e-12
1.62258e-11
7.31644e-11
2.94623e-10
9.13239e-10
1.87254e-09
9.68561e-10
1.59099e-07
7.63647e-07
2.16868e-09
9.82759e-11
1.44634e-09
1.99366e-09
1.4309e-09
5.61786e-10
1.02828e-10
3.10458e-11
1.14176e-11
2.86322e-12
4.94801e-13
6.29005e-14
6.54321e-15
1.16286e-15
1.01724e-15
9.42939e-15
4.75607e-14
1.0476e-13
1.36981e-13
7.96499e-14
5.70611e-15
3.88028e-14
8.8135e-14
5.16621e-10
3.43402e-11
3.78288e-09
4.0339e-05
4.67634e-06
6.28329e-07
4.80321e-07
8.07846e-07
2.47175e-05
2.45883e-05
1.62671e-06
9.08703e-07
9.13359e-07
9.90439e-07
1.06179e-06
1.18849e-06
3.54334e-05
0.000242555
0.000253005
2.15404e-06
6.95761e-09
5.199e-08
3.09462e-05
0.00010853
9.4909e-05
1.05097e-06
1.68656e-08
-1.12985e-11
4.73257e-13
6.97184e-13
6.38431e-13
4.7195e-13
2.22942e-13
1.30307e-13
7.75451e-14
2.92447e-14
1.66281e-14
8.60043e-15
4.2913e-15
2.83818e-15
2.32134e-15
1.84742e-15
9.55871e-16