/*--------------------------------*- C++ -*----------------------------------*\
| =========                 |                                                 |
| \\      /  F ield         | OpenFOAM: The Open Source CFD Toolbox           |
|  \\    /   O peration     | Version:  2412                                  |
|   \\  /    A nd           | Website:  www.openfoam.com                      |
|    \\/     M anipulation  |                                                 |
\*---------------------------------------------------------------------------*/
FoamFile
{
    version     2.0;
    format      ascii;
    arch        "LSB;label=32;scalar=64";
    class       volVectorField;
    location    "1.3";
    object      U;
}
// * * * * * * * * * * * * * * * * * * * * * * * * * * * * * * * * * * * * * //

dimensions      [0 1 -1 0 0 0 0];

internalField   nonuniform List<vector> 
6400
(
(0.00079148 -0.000805123 0)
(0.00206056 -0.000763713 0)
(0.00324163 -0.000776862 0)
(0.00450596 -0.000828016 0)
(0.00590445 -0.000893044 0)
(0.00749767 -0.00097998 0)
(0.00931076 -0.0010777 0)
(0.0113578 -0.00118158 0)
(0.0136876 -0.00130012 0)
(0.016313 -0.0014121 0)
(0.0192336 -0.00153868 0)
(0.0224644 -0.0016509 0)
(0.0259802 -0.00175918 0)
(0.0297522 -0.00184579 0)
(0.0337769 -0.00191142 0)
(0.0380059 -0.00194858 0)
(0.0423712 -0.0019706 0)
(0.0468097 -0.00194847 0)
(0.0512391 -0.0018809 0)
(0.0555696 -0.00176956 0)
(0.0597035 -0.00161297 0)
(0.0635365 -0.00140616 0)
(0.0669594 -0.00115215 0)
(0.0698626 -0.000852989 0)
(0.0721393 -0.000511976 0)
(0.0736885 -0.000134608 0)
(0.0744188 0.000272581 0)
(0.074258 0.000701695 0)
(0.0731319 0.00113546 0)
(0.0710094 0.00156545 0)
(0.0678621 0.00198856 0)
(0.0636559 0.00238601 0)
(0.0584621 0.0027407 0)
(0.0523797 0.00302987 0)
(0.0455157 0.00324709 0)
(0.0380004 0.00339797 0)
(0.0299685 0.0034888 0)
(0.0215507 0.00353444 0)
(0.0128741 0.00355031 0)
(0.00406501 0.00354472 0)
(-0.0047715 0.00353087 0)
(-0.013542 0.0035112 0)
(-0.0221506 0.00347725 0)
(-0.030481 0.00341803 0)
(-0.0384104 0.00332032 0)
(-0.0458123 0.00316825 0)
(-0.0525616 0.0029508 0)
(-0.0585408 0.00267036 0)
(-0.0636442 0.0023286 0)
(-0.067776 0.00194073 0)
(-0.0708424 0.00152701 0)
(-0.0728922 0.00110298 0)
(-0.0739619 0.000674328 0)
(-0.0740861 0.000254509 0)
(-0.0733284 -0.000144902 0)
(-0.0717621 -0.000516265 0)
(-0.0694772 -0.000852359 0)
(-0.0665734 -0.00114765 0)
(-0.0631562 -0.0013982 0)
(-0.059333 -0.00160239 0)
(-0.0552117 -0.00175834 0)
(-0.0508974 -0.00186774 0)
(-0.0464867 -0.00193485 0)
(-0.0420635 -0.00195784 0)
(-0.0377177 -0.00193834 0)
(-0.0335181 -0.00190126 0)
(-0.029513 -0.00183152 0)
(-0.0257542 -0.0017427 0)
(-0.0222654 -0.00163761 0)
(-0.0190507 -0.00151999 0)
(-0.0161454 -0.00140739 0)
(-0.0135508 -0.00129077 0)
(-0.0112405 -0.00117482 0)
(-0.00920407 -0.00106575 0)
(-0.00740702 -0.000967075 0)
(-0.00583306 -0.000885633 0)
(-0.00444785 -0.00081833 0)
(-0.00319792 -0.000768592 0)
(-0.00203495 -0.000753215 0)
(-0.00078281 -0.000796236 0)
(0.000707676 -0.00203652 0)
(0.00149159 -0.00162681 0)
(0.00216303 -0.0016368 0)
(0.00294479 -0.0018246 0)
(0.0038956 -0.0020893 0)
(0.00508409 -0.00241577 0)
(0.006557 -0.00280185 0)
(0.00831865 -0.00323426 0)
(0.0104466 -0.00369691 0)
(0.012947 -0.00418886 0)
(0.0158345 -0.00469322 0)
(0.0191461 -0.00520525 0)
(0.0228475 -0.00569133 0)
(0.0269214 -0.0061369 0)
(0.0313707 -0.00651832 0)
(0.0361346 -0.00683243 0)
(0.0411635 -0.00705965 0)
(0.0464076 -0.00717333 0)
(0.0517474 -0.00714722 0)
(0.0570875 -0.00696836 0)
(0.0623278 -0.00663233 0)
(0.0673464 -0.00611841 0)
(0.0720102 -0.0054258 0)
(0.0761882 -0.0045552 0)
(0.0797454 -0.00351004 0)
(0.0825496 -0.00230053 0)
(0.0844739 -0.00094231 0)
(0.0853967 0.000541732 0)
(0.085215 0.00211724 0)
(0.083869 0.00375737 0)
(0.0812758 0.00543171 0)
(0.0774243 0.00709378 0)
(0.0723392 0.00868697 0)
(0.0659837 0.0101566 0)
(0.0583721 0.0114634 0)
(0.0495854 0.0125777 0)
(0.0397502 0.0134779 0)
(0.0290302 0.0141566 0)
(0.0176274 0.0145907 0)
(0.00581029 0.0147911 0)
(-0.00614011 0.0147691 0)
(-0.0179405 0.0145263 0)
(-0.0293272 0.0140552 0)
(-0.0400349 0.0133562 0)
(-0.0498467 0.0124412 0)
(-0.0585967 0.0113195 0)
(-0.0661615 0.0100113 0)
(-0.0724595 0.00855064 0)
(-0.0774749 0.00697301 0)
(-0.0812459 0.0053263 0)
(-0.0837879 0.00366908 0)
(-0.0850904 0.00204419 0)
(-0.0852306 0.000480446 0)
(-0.0842741 -0.000987817 0)
(-0.0823249 -0.00233118 0)
(-0.0795017 -0.00352816 0)
(-0.0759314 -0.00456272 0)
(-0.0717461 -0.00542438 0)
(-0.0670796 -0.00610865 0)
(-0.062064 -0.00661656 0)
(-0.0568265 -0.00695111 0)
(-0.0514917 -0.00712538 0)
(-0.0461642 -0.00715003 0)
(-0.0409279 -0.00703435 0)
(-0.0359087 -0.00680832 0)
(-0.0311636 -0.00649645 0)
(-0.0267227 -0.00610304 0)
(-0.0226592 -0.00565974 0)
(-0.01898 -0.0051749 0)
(-0.0156885 -0.0046643 0)
(-0.0128097 -0.00416729 0)
(-0.0103281 -0.00367486 0)
(-0.00821774 -0.00320944 0)
(-0.00645898 -0.00277655 0)
(-0.00500748 -0.00238972 0)
(-0.00383485 -0.00206548 0)
(-0.00289331 -0.00179913 0)
(-0.00212607 -0.00161274 0)
(-0.0014677 -0.00160164 0)
(-0.000698621 -0.0020132 0)
(0.000648014 -0.00302884 0)
(0.00122786 -0.00219596 0)
(0.00171413 -0.00222251 0)
(0.00230358 -0.00255872 0)
(0.00307976 -0.00304016 0)
(0.00409992 -0.00361725 0)
(0.00540767 -0.00430774 0)
(0.00704255 -0.00507984 0)
(0.00905235 -0.00591052 0)
(0.0114583 -0.00680458 0)
(0.0142711 -0.00771347 0)
(0.0175338 -0.00863463 0)
(0.0212355 -0.00952751 0)
(0.0253412 -0.0103734 0)
(0.0298493 -0.0111059 0)
(0.0347079 -0.011734 0)
(0.0398714 -0.012188 0)
(0.0452815 -0.0124662 0)
(0.050835 -0.0125211 0)
(0.0564134 -0.0123136 0)
(0.0619179 -0.0118215 0)
(0.0672259 -0.011031 0)
(0.0721893 -0.00992657 0)
(0.0766719 -0.0085057 0)
(0.0805319 -0.00677249 0)
(0.0836264 -0.00474187 0)
(0.085818 -0.00243905 0)
(0.086976 0.0001002 0)
(0.086986 0.00283754 0)
(0.0857789 0.00570588 0)
(0.0832631 0.00863067 0)
(0.0793855 0.0115618 0)
(0.0741707 0.0144265 0)
(0.0676279 0.0171494 0)
(0.0597965 0.0196562 0)
(0.0507711 0.0218719 0)
(0.0406905 0.0237361 0)
(0.0297033 0.0251736 0)
(0.0180244 0.0261396 0)
(0.00594631 0.0266191 0)
(-0.00626987 0.0265978 0)
(-0.0183366 0.0260762 0)
(-0.0299898 0.025058 0)
(-0.0409536 0.0235801 0)
(-0.0510088 0.0216983 0)
(-0.0599903 0.0194646 0)
(-0.0677683 0.016951 0)
(-0.0742538 0.0142281 0)
(-0.0794064 0.0113732 0)
(-0.0832207 0.00846094 0)
(-0.085687 0.00555745 0)
(-0.0868537 0.00271402 0)
(-0.0868055 6.30295e-06 0)
(-0.0856153 -0.00251011 0)
(-0.0834006 -0.00479211 0)
(-0.0802899 -0.00680428 0)
(-0.0764195 -0.00852209 0)
(-0.0719304 -0.00992997 0)
(-0.0669654 -0.0110239 0)
(-0.0616645 -0.0118063 0)
(-0.0561645 -0.0122878 0)
(-0.0505902 -0.0124939 0)
(-0.0450471 -0.0124365 0)
(-0.039644 -0.0121486 0)
(-0.034493 -0.0116965 0)
(-0.0296437 -0.0110664 0)
(-0.0251466 -0.010325 0)
(-0.0210564 -0.00949201 0)
(-0.0173769 -0.00859587 0)
(-0.0141296 -0.00767475 0)
(-0.0113227 -0.00676139 0)
(-0.0089349 -0.00587137 0)
(-0.00694239 -0.00503492 0)
(-0.00531677 -0.00426744 0)
(-0.00402308 -0.0035752 0)
(-0.00301891 -0.00299468 0)
(-0.00225474 -0.0025181 0)
(-0.00167944 -0.00218376 0)
(-0.00120507 -0.00215869 0)
(-0.000638793 -0.00299068 0)
(0.000584747 -0.00391262 0)
(0.000996208 -0.00262596 0)
(0.00132282 -0.00266451 0)
(0.00175017 -0.00316221 0)
(0.00238276 -0.00386343 0)
(0.00326638 -0.00471572 0)
(0.00445102 -0.00572062 0)
(0.00598445 -0.00685388 0)
(0.0079086 -0.00808651 0)
(0.0102559 -0.00940253 0)
(0.0130481 -0.0107614 0)
(0.0163158 -0.0121259 0)
(0.0200419 -0.0134732 0)
(0.0242355 -0.0147431 0)
(0.0288729 -0.0158852 0)
(0.0338973 -0.0168552 0)
(0.0392694 -0.0176018 0)
(0.0449192 -0.0180784 0)
(0.0507615 -0.0182471 0)
(0.0566757 -0.0180429 0)
(0.0625367 -0.0174161 0)
(0.0682149 -0.0163598 0)
(0.0735641 -0.0148443 0)
(0.0784332 -0.0128605 0)
(0.082668 -0.0104138 0)
(0.0861135 -0.00752225 0)
(0.0886204 -0.00422034 0)
(0.0900518 -0.000556053 0)
(0.0902663 0.0034064 0)
(0.0891735 0.00760241 0)
(0.0866986 0.0119088 0)
(0.082776 0.0162408 0)
(0.077407 0.0204912 0)
(0.0706102 0.0245538 0)
(0.0624386 0.028315 0)
(0.0530079 0.0316601 0)
(0.0424582 0.0344782 0)
(0.0309627 0.0366629 0)
(0.0187759 0.0381621 0)
(0.00617888 0.0389135 0)
(-0.00656104 0.0388841 0)
(-0.0191484 0.0380785 0)
(-0.0313121 0.0365219 0)
(-0.0427574 0.0342843 0)
(-0.0532609 0.031431 0)
(-0.062641 0.0280546 0)
(-0.0707458 0.0242844 0)
(-0.0774758 0.0202238 0)
(-0.0827768 0.0159866 0)
(-0.0866368 0.0116829 0)
(-0.0890595 0.00741065 0)
(-0.0901014 0.00325376 0)
(-0.089847 -0.000678909 0)
(-0.0883921 -0.00431323 0)
(-0.0858661 -0.00758808 0)
(-0.0824081 -0.0104552 0)
(-0.0781664 -0.0128818 0)
(-0.0732945 -0.0148486 0)
(-0.0679464 -0.0163518 0)
(-0.0622719 -0.0173968 0)
(-0.0564208 -0.0180084 0)
(-0.0505193 -0.0182122 0)
(-0.0446789 -0.0180383 0)
(-0.0390386 -0.0175518 0)
(-0.0336809 -0.0168072 0)
(-0.0286631 -0.0158301 0)
(-0.0240483 -0.0146902 0)
(-0.0198689 -0.0134212 0)
(-0.0161509 -0.0120743 0)
(-0.0129016 -0.0107028 0)
(-0.0101212 -0.00934426 0)
(-0.00779066 -0.00803048 0)
(-0.00588467 -0.00679517 0)
(-0.00435849 -0.00566389 0)
(-0.00318716 -0.00465951 0)
(-0.00232571 -0.00380476 0)
(-0.0017073 -0.00310742 0)
(-0.00129031 -0.00261627 0)
(-0.000974986 -0.00257447 0)
(-0.000576534 -0.00385505 0)
(0.000507142 -0.00462846 0)
(0.000706937 -0.00288166 0)
(0.000814649 -0.00294615 0)
(0.00103026 -0.00359473 0)
(0.00147668 -0.00451822 0)
(0.00218618 -0.00566192 0)
(0.00320348 -0.00699623 0)
(0.00460128 -0.00852554 0)
(0.00641945 -0.010176 0)
(0.0086908 -0.011956 0)
(0.0114474 -0.01379 0)
(0.0147144 -0.0156535 0)
(0.0185043 -0.017499 0)
(0.0228101 -0.0192391 0)
(0.0276135 -0.0208377 0)
(0.0328645 -0.0222079 0)
(0.0385186 -0.0232902 0)
(0.0445056 -0.0240238 0)
(0.050741 -0.0243391 0)
(0.0571161 -0.0241687 0)
(0.0634731 -0.0234474 0)
(0.0696714 -0.0221413 0)
(0.0755625 -0.0202207 0)
(0.0809769 -0.0176674 0)
(0.0857444 -0.0144862 0)
(0.0896933 -0.0106972 0)
(0.0926559 -0.00634357 0)
(0.0944726 -0.00148784 0)
(0.0950124 0.00378739 0)
(0.0941471 0.00939398 0)
(0.0917637 0.0151752 0)
(0.0878123 0.0210256 0)
(0.082291 0.0267846 0)
(0.0752151 0.0323057 0)
(0.0666272 0.0374284 0)
(0.0566383 0.0419856 0)
(0.0454112 0.0458243 0)
(0.0331468 0.0488199 0)
(0.0201131 0.0508823 0)
(0.00660911 0.0519136 0)
(-0.0070586 0.0518697 0)
(-0.0205462 0.0507638 0)
(-0.033545 0.048636 0)
(-0.0457552 0.0455803 0)
(-0.0569336 0.0416852 0)
(-0.0668491 0.0370916 0)
(-0.07535 0.0319536 0)
(-0.082348 0.0264439 0)
(-0.0877862 0.0207135 0)
(-0.0916598 0.0149005 0)
(-0.0939838 0.00915257 0)
(-0.0948135 0.00360283 0)
(-0.0942449 -0.00163894 0)
(-0.0923988 -0.00645613 0)
(-0.0894193 -0.0107744 0)
(-0.0854622 -0.0145332 0)
(-0.0806919 -0.01769 0)
(-0.0752785 -0.020224 0)
(-0.0693911 -0.0221298 0)
(-0.0631987 -0.0234199 0)
(-0.0568572 -0.0241329 0)
(-0.0504972 -0.0242927 0)
(-0.0442615 -0.0239688 0)
(-0.0382853 -0.0232331 0)
(-0.032645 -0.0221454 0)
(-0.0274031 -0.0207733 0)
(-0.0226187 -0.0191774 0)
(-0.0183269 -0.0174291 0)
(-0.0145511 -0.0155844 0)
(-0.0112995 -0.0137159 0)
(-0.00855725 -0.0118806 0)
(-0.00630061 -0.0101057 0)
(-0.00449989 -0.00845114 0)
(-0.00311532 -0.00693116 0)
(-0.00210801 -0.00560115 0)
(-0.00141733 -0.00445449 0)
(-0.000991528 -0.00352608 0)
(-0.000783665 -0.00287705 0)
(-0.000681779 -0.00281335 0)
(-0.000497927 -0.00455292 0)
(0.00039377 -0.00512432 0)
(0.000309092 -0.00288326 0)
(0.000165093 -0.00297845 0)
(0.00012683 -0.00379988 0)
(0.000310165 -0.00496461 0)
(0.000787086 -0.00641624 0)
(0.0015865 -0.0081183 0)
(0.00280376 -0.0100433 0)
(0.00447701 -0.0121568 0)
(0.00664074 -0.0144397 0)
(0.00934921 -0.0167988 0)
(0.0126051 -0.0192031 0)
(0.0164547 -0.0216054 0)
(0.0208958 -0.0238973 0)
(0.025904 -0.0260115 0)
(0.0314449 -0.0278608 0)
(0.0374546 -0.0293449 0)
(0.0438732 -0.030403 0)
(0.0506232 -0.030917 0)
(0.0575792 -0.030833 0)
(0.0645799 -0.0300619 0)
(0.0714613 -0.0285371 0)
(0.0780621 -0.0262246 0)
(0.0841964 -0.0230988 0)
(0.0896722 -0.0191594 0)
(0.0942963 -0.0144301 0)
(0.0978769 -0.00895976 0)
(0.100238 -0.00282544 0)
(0.101211 0.0038735 0)
(0.100632 0.0109957 0)
(0.0984069 0.018404 0)
(0.0944659 0.0259153 0)
(0.0887742 0.0333328 0)
(0.0813478 0.0404726 0)
(0.0722207 0.0471024 0)
(0.0615111 0.0530112 0)
(0.0494027 0.0580106 0)
(0.0361139 0.0619153 0)
(0.0219349 0.0646069 0)
(0.00719836 0.0659579 0)
(-0.00772717 0.0658993 0)
(-0.0224348 0.0644607 0)
(-0.0365726 0.0616859 0)
(-0.049804 0.0576918 0)
(-0.0618485 0.0526241 0)
(-0.0724651 0.0466842 0)
(-0.0814815 0.0400427 0)
(-0.0887994 0.0329169 0)
(-0.0943998 0.0255303 0)
(-0.0982752 0.0180592 0)
(-0.100429 0.0107079 0)
(-0.100959 0.00362059 0)
(-0.0999653 -0.00300698 0)
(-0.0975797 -0.0090859 0)
(-0.093989 -0.0145114 0)
(-0.0893643 -0.0192056 0)
(-0.0838928 -0.0231172 0)
(-0.077765 -0.0262242 0)
(-0.0711684 -0.0285208 0)
(-0.0642962 -0.0300307 0)
(-0.0573114 -0.030795 0)
(-0.050368 -0.0308588 0)
(-0.0436266 -0.030329 0)
(-0.0372173 -0.0292779 0)
(-0.0312202 -0.0277833 0)
(-0.0256941 -0.0259345 0)
(-0.0207028 -0.0238204 0)
(-0.0162747 -0.02153 0)
(-0.0124372 -0.0191155 0)
(-0.00919689 -0.0167101 0)
(-0.00650883 -0.0143533 0)
(-0.00435906 -0.0120704 0)
(-0.0027084 -0.00996021 0)
(-0.00150713 -0.00803643 0)
(-0.000708966 -0.00633877 0)
(-0.000244558 -0.00489011 0)
(-7.83165e-05 -0.0037279 0)
(-0.000134247 -0.0028977 0)
(-0.00029168 -0.00280371 0)
(-0.000387179 -0.00503838 0)
(0.000261503 -0.00535475 0)
(-0.000167288 -0.00257413 0)
(-0.000651367 -0.00269247 0)
(-0.00101633 -0.00370903 0)
(-0.00114284 -0.00514046 0)
(-0.000964777 -0.00692053 0)
(-0.000419633 -0.00901547 0)
(0.000567402 -0.0113811 0)
(0.0020282 -0.0140053 0)
(0.00405471 -0.0168139 0)
(0.00669088 -0.0197684 0)
(0.00991509 -0.0227845 0)
(0.0138187 -0.0258089 0)
(0.0184137 -0.0287323 0)
(0.0236612 -0.0314508 0)
(0.0295438 -0.0338641 0)
(0.0359906 -0.0358554 0)
(0.0429508 -0.0373158 0)
(0.0503335 -0.0381128 0)
(0.0580004 -0.0381845 0)
(0.0658047 -0.0374216 0)
(0.0735505 -0.0357274 0)
(0.08105 -0.0330416 0)
(0.0880993 -0.0293424 0)
(0.0944802 -0.0246168 0)
(0.099972 -0.0188954 0)
(0.104353 -0.0122293 0)
(0.107414 -0.00471414 0)
(0.108958 0.00352902 0)
(0.108816 0.0123635 0)
(0.106834 0.0215827 0)
(0.102898 0.0309536 0)
(0.0970128 0.0402448 0)
(0.0891626 0.0491912 0)
(0.0793616 0.0575139 0)
(0.0677526 0.0649662 0)
(0.0545223 0.0712941 0)
(0.0399192 0.0762457 0)
(0.0242793 0.0796585 0)
(0.00796108 0.0813674 0)
(-0.00858127 0.0812929 0)
(-0.0248541 0.0794681 0)
(-0.0404594 0.0759472 0)
(-0.0549971 0.0708788 0)
(-0.0681295 0.0644637 0)
(-0.0796147 0.0569657 0)
(-0.0892884 0.0486286 0)
(-0.0970167 0.0396973 0)
(-0.102792 0.0304435 0)
(-0.10663 0.021144 0)
(-0.108562 0.0120144 0)
(-0.108656 0.00325512 0)
(-0.107066 -0.00490534 0)
(-0.104003 -0.0123549 0)
(-0.0996268 -0.018968 0)
(-0.0941448 -0.0246508 0)
(-0.0877769 -0.0293472 0)
(-0.0807404 -0.0330317 0)
(-0.0732479 -0.035699 0)
(-0.065514 -0.0373811 0)
(-0.0577199 -0.0381326 0)
(-0.0500573 -0.0380483 0)
(-0.0426992 -0.037236 0)
(-0.0357541 -0.0357732 0)
(-0.0293128 -0.0337758 0)
(-0.0234503 -0.0313595 0)
(-0.0182238 -0.02864 0)
(-0.0136312 -0.0257224 0)
(-0.00973963 -0.02268 0)
(-0.00654433 -0.0196675 0)
(-0.00392282 -0.0167154 0)
(-0.00191191 -0.0139054 0)
(-0.000469474 -0.0112857 0)
(0.000503127 -0.00891551 0)
(0.00103635 -0.0068231 0)
(0.00119754 -0.00504968 0)
(0.00106144 -0.0036251 0)
(0.000688355 -0.00261239 0)
(0.000184668 -0.00249618 0)
(-0.000257531 -0.00525922 0)
(9.33307e-05 -0.00525006 0)
(-0.000746788 -0.0018828 0)
(-0.00162605 -0.0020443 0)
(-0.00239212 -0.00326234 0)
(-0.00290468 -0.00498273 0)
(-0.00308432 -0.00711622 0)
(-0.002869 -0.00963446 0)
(-0.00218048 -0.0124904 0)
(-0.00094935 -0.0156625 0)
(0.000885539 -0.0190628 0)
(0.00338829 -0.0226728 0)
(0.00657569 -0.0263788 0)
(0.0105199 -0.0301233 0)
(0.0152685 -0.0337668 0)
(0.0207884 -0.0371997 0)
(0.0270592 -0.0402892 0)
(0.0340256 -0.042902 0)
(0.0416425 -0.0448778 0)
(0.0497868 -0.0460825 0)
(0.0583111 -0.046389 0)
(0.0670863 -0.0456974 0)
(0.0759002 -0.0438994 0)
(0.0845173 -0.0408803 0)
(0.0927045 -0.0366072 0)
(0.100217 -0.0310686 0)
(0.1068 -0.0242947 0)
(0.112195 -0.0163374 0)
(0.116158 -0.00731092 0)
(0.118476 0.00265009 0)
(0.118897 0.013371 0)
(0.117227 0.0246163 0)
(0.113367 0.0360744 0)
(0.107257 0.0475283 0)
(0.0988849 0.0585605 0)
(0.0882817 0.0688438 0)
(0.0755776 0.0780897 0)
(0.0609556 0.0859697 0)
(0.0447093 0.0921406 0)
(0.0272221 0.0963722 0)
(0.00891503 0.0984968 0)
(-0.00965013 0.098402 0)
(-0.0278939 0.0961267 0)
(-0.0453417 0.091735 0)
(-0.0615176 0.0854091 0)
(-0.0760159 0.0774328 0)
(-0.0885572 0.0681238 0)
(-0.0989934 0.0578236 0)
(-0.107211 0.0468418 0)
(-0.113176 0.0354911 0)
(-0.116928 0.0241225 0)
(-0.118527 0.012995 0)
(-0.118067 0.00238378 0)
(-0.115742 -0.0074951 0)
(-0.111786 -0.0164457 0)
(-0.10641 -0.024345 0)
(-0.0998509 -0.0310817 0)
(-0.0923644 -0.0365901 0)
(-0.0841945 -0.0408515 0)
(-0.0755835 -0.0438487 0)
(-0.0667837 -0.0456458 0)
(-0.0580219 -0.0463258 0)
(-0.0495038 -0.0460123 0)
(-0.0413763 -0.0448003 0)
(-0.0337781 -0.0427968 0)
(-0.0268242 -0.0401847 0)
(-0.0205735 -0.0370908 0)
(-0.0150795 -0.0336561 0)
(-0.0103273 -0.030011 0)
(-0.00639303 -0.0262652 0)
(-0.00324123 -0.0225568 0)
(-0.000753766 -0.0189448 0)
(0.00106509 -0.0155437 0)
(0.00227715 -0.0123717 0)
(0.00295145 -0.00951182 0)
(0.00315436 -0.00699903 0)
(0.00295781 -0.00487145 0)
(0.00243019 -0.00315707 0)
(0.00164929 -0.00194899 0)
(0.000763732 -0.00179301 0)
(-8.35369e-05 -0.00514153 0)
(-0.000100074 -0.00474364 0)
(-0.00143234 -0.0007288 0)
(-0.00279499 -0.000944528 0)
(-0.00403565 -0.00238593 0)
(-0.00499994 -0.00441071 0)
(-0.00561192 -0.0069246 0)
(-0.00578761 -0.0098958 0)
(-0.00545377 -0.0132854 0)
(-0.00453615 -0.0170518 0)
(-0.0029454 -0.0211328 0)
(-0.000612415 -0.0254669 0)
(0.00248029 -0.0299702 0)
(0.0064489 -0.0345227 0)
(0.0113583 -0.0390145 0)
(0.0171628 -0.0432978 0)
(0.0238695 -0.0472059 0)
(0.0314364 -0.0505789 0)
(0.0398119 -0.0532135 0)
(0.0488705 -0.0549645 0)
(0.0584429 -0.055641 0)
(0.0683638 -0.0551114 0)
(0.0784508 -0.0532561 0)
(0.0884402 -0.0499654 0)
(0.0980291 -0.0451395 0)
(0.106933 -0.0387619 0)
(0.114871 -0.0308714 0)
(0.121536 -0.0215191 0)
(0.126639 -0.0108206 0)
(0.129916 0.00105154 0)
(0.131098 0.0138766 0)
(0.129888 0.0273875 0)
(0.126174 0.0413054 0)
(0.119867 0.0552344 0)
(0.110873 0.0687099 0)
(0.0993025 0.0813052 0)
(0.085278 0.0926643 0)
(0.0689508 0.102355 0)
(0.0506537 0.109948 0)
(0.0308785 0.115139 0)
(0.0101121 0.117763 0)
(-0.0109716 0.117638 0)
(-0.0316657 0.114838 0)
(-0.0514105 0.109431 0)
(-0.0696015 0.101637 0)
(-0.0857692 0.0918059 0)
(-0.0996019 0.080363 0)
(-0.110937 0.0677861 0)
(-0.119695 0.0543982 0)
(-0.125852 0.0405886 0)
(-0.129462 0.0268333 0)
(-0.130607 0.0134505 0)
(-0.129417 0.000761918 0)
(-0.12613 -0.0109899 0)
(-0.121052 -0.0215827 0)
(-0.114432 -0.030875 0)
(-0.106533 -0.0387399 0)
(-0.0976642 -0.0450912 0)
(-0.0880983 -0.049912 0)
(-0.0781238 -0.0531959 0)
(-0.0680572 -0.0550471 0)
(-0.05814 -0.0555707 0)
(-0.048576 -0.0548844 0)
(-0.0395207 -0.0531268 0)
(-0.0311685 -0.0504452 0)
(-0.023632 -0.0470789 0)
(-0.0169434 -0.0431693 0)
(-0.0111628 -0.038885 0)
(-0.00625679 -0.034387 0)
(-0.00229951 -0.0298499 0)
(0.000764881 -0.0253449 0)
(0.00308085 -0.0210069 0)
(0.00465395 -0.0169184 0)
(0.0055571 -0.0131481 0)
(0.00587088 -0.00975753 0)
(0.00567344 -0.00679019 0)
(0.00504379 -0.00428319 0)
(0.00406492 -0.00226785 0)
(0.00281462 -0.000833923 0)
(0.00144443 -0.000621009 0)
(0.000106008 -0.00462094 0)
(-0.000329472 -0.00377774 0)
(-0.00223299 0.000947115 0)
(-0.00415574 0.000674553 0)
(-0.00594826 -0.00100017 0)
(-0.00744602 -0.00335219 0)
(-0.00856355 -0.00627723 0)
(-0.00922222 -0.00974141 0)
(-0.00932775 -0.0137055 0)
(-0.00878621 -0.0181276 0)
(-0.00751604 -0.0229518 0)
(-0.0054317 -0.0281141 0)
(-0.00245755 -0.033521 0)
(0.00150169 -0.039006 0)
(0.00652371 -0.0444906 0)
(0.0126324 -0.0497802 0)
(0.0198198 -0.0546762 0)
(0.0280688 -0.0589759 0)
(0.0373188 -0.0624516 0)
(0.0474334 -0.0649036 0)
(0.0582504 -0.0661191 0)
(0.0695715 -0.0659017 0)
(0.081165 -0.0640816 0)
(0.0927747 -0.0605687 0)
(0.104075 -0.0552238 0)
(0.114685 -0.0479883 0)
(0.124285 -0.0389095 0)
(0.132536 -0.0280386 0)
(0.139073 -0.0154988 0)
(0.143581 -0.0014925 0)
(0.145702 0.0137556 0)
(0.14518 0.029921 0)
(0.14177 0.0466634 0)
(0.13523 0.0634664 0)
(0.125557 0.0798155 0)
(0.112852 0.0951575 0)
(0.0972197 0.109008 0)
(0.0788064 0.120843 0)
(0.0579911 0.130144 0)
(0.0353912 0.136495 0)
(0.0115868 0.139707 0)
(-0.0125989 0.139536 0)
(-0.0363189 0.136146 0)
(-0.0589148 0.12951 0)
(-0.0796068 0.119945 0)
(-0.0978134 0.107908 0)
(-0.113154 0.0939646 0)
(-0.125546 0.0786544 0)
(-0.134956 0.0624117 0)
(-0.141266 0.0457509 0)
(-0.14457 0.0292258 0)
(-0.145053 0.0132993 0)
(-0.1429 -0.00176702 0)
(-0.138417 -0.0156159 0)
(-0.131947 -0.0280298 0)
(-0.123795 -0.0388355 0)
(-0.114255 -0.0479108 0)
(-0.103687 -0.0551423 0)
(-0.0924254 -0.0604855 0)
(-0.0808224 -0.0640155 0)
(-0.0692454 -0.065831 0)
(-0.0579354 -0.0660389 0)
(-0.0471254 -0.0648104 0)
(-0.0369908 -0.0623449 0)
(-0.0277732 -0.0588226 0)
(-0.0195843 -0.0545243 0)
(-0.0124102 -0.0496278 0)
(-0.00632301 -0.0443396 0)
(-0.00131458 -0.0388518 0)
(0.00262928 -0.0333812 0)
(0.00558674 -0.0279766 0)
(0.00766073 -0.0228111 0)
(0.00891504 -0.0179768 0)
(0.00943106 -0.0135473 0)
(0.00930293 -0.00958193 0)
(0.00862388 -0.00612321 0)
(0.00748395 -0.003209 0)
(0.00596971 -0.000868434 0)
(0.00416666 0.00079302 0)
(0.00224108 0.00105582 0)
(0.000335099 -0.00365714 0)
(-0.000589374 -0.00225426 0)
(-0.00314828 0.00324194 0)
(-0.00572397 0.00289922 0)
(-0.0081607 0.000972024 0)
(-0.0102789 -0.00173097 0)
(-0.0119937 -0.00509589 0)
(-0.0132063 -0.00908811 0)
(-0.0138286 -0.0136693 0)
(-0.0137686 -0.0188109 0)
(-0.0129139 -0.0244571 0)
(-0.0111578 -0.0305366 0)
(-0.00838075 -0.0369406 0)
(-0.00448362 -0.0435395 0)
(0.000627333 -0.0501873 0)
(0.00702848 -0.0566743 0)
(0.0147351 -0.0627638 0)
(0.0237352 -0.068199 0)
(0.033975 -0.0727346 0)
(0.0453131 -0.0760891 0)
(0.0575753 -0.0780271 0)
(0.0705518 -0.0783008 0)
(0.0839571 -0.0766937 0)
(0.0975025 -0.0730246 0)
(0.110849 -0.0671845 0)
(0.123533 -0.0591 0)
(0.135171 -0.048737 0)
(0.145366 -0.0362065 0)
(0.153684 -0.0216456 0)
(0.159763 -0.00525785 0)
(0.163201 0.0127182 0)
(0.163584 0.032024 0)
(0.160584 0.0520275 0)
(0.15392 0.0722744 0)
(0.143519 0.0920535 0)
(0.129467 0.110654 0)
(0.111905 0.127464 0)
(0.0909736 0.141902 0)
(0.067056 0.153295 0)
(0.0409416 0.160968 0)
(0.0133874 0.16473 0)
(-0.0145686 0.164549 0)
(-0.0420339 0.16055 0)
(-0.0682153 0.152528 0)
(-0.0919783 0.14079 0)
(-0.112634 0.126037 0)
(-0.129798 0.109068 0)
(-0.143417 0.0905109 0)
(-0.153462 0.0709356 0)
(-0.159879 0.0509515 0)
(-0.162689 0.0312132 0)
(-0.162276 0.0122093 0)
(-0.158902 -0.00548279 0)
(-0.152864 -0.0216618 0)
(-0.144665 -0.0360857 0)
(-0.134635 -0.0485661 0)
(-0.123099 -0.0589309 0)
(-0.110451 -0.0670543 0)
(-0.097149 -0.0729192 0)
(-0.0836206 -0.0766257 0)
(-0.0702155 -0.0782411 0)
(-0.0572374 -0.0779465 0)
(-0.0449796 -0.0759826 0)
(-0.0336118 -0.0725977 0)
(-0.0234105 -0.0680238 0)
(-0.0144889 -0.0625796 0)
(-0.00680208 -0.0564913 0)
(-0.000423622 -0.0500127 0)
(0.00466937 -0.0433705 0)
(0.00854952 -0.0367811 0)
(0.0113161 -0.0303709 0)
(0.0130662 -0.0242882 0)
(0.0139065 -0.0186381 0)
(0.0139422 -0.0134835 0)
(0.0132862 -0.00890061 0)
(0.0120399 -0.00491854 0)
(0.0103017 -0.00156784 0)
(0.00816588 0.00111646 0)
(0.00571894 0.00302382 0)
(0.0031385 0.00335037 0)
(0.000585066 -0.00213419 0)
(-0.00089859 -8.98787e-05 0)
(-0.0042059 0.00624484 0)
(-0.00751717 0.00581947 0)
(-0.0106844 0.00362226 0)
(-0.0135148 0.00055054 0)
(-0.0159117 -0.00328025 0)
(-0.0177839 -0.00782648 0)
(-0.0190362 -0.0130838 0)
(-0.0195564 -0.0189898 0)
(-0.0192192 -0.0255204 0)
(-0.0178862 -0.032609 0)
(-0.0154224 -0.0401631 0)
(-0.0116937 -0.0480499 0)
(-0.00654861 -0.0560735 0)
(0.000129706 -0.063993 0)
(0.00838378 -0.0715234 0)
(0.0182056 -0.0783548 0)
(0.0295602 -0.0842073 0)
(0.0423007 -0.0887174 0)
(0.0562302 -0.0916114 0)
(0.0711318 -0.0925881 0)
(0.0867043 -0.0913776 0)
(0.102586 -0.0877192 0)
(0.118351 -0.0814379 0)
(0.133542 -0.0724874 0)
(0.147656 -0.0607845 0)
(0.160188 -0.0464842 0)
(0.170679 -0.0297083 0)
(0.178732 -0.0106648 0)
(0.183934 0.0103958 0)
(0.185627 0.0331856 0)
(0.183337 0.057199 0)
(0.176697 0.0816673 0)
(0.165488 0.105594 0)
(0.149873 0.128108 0)
(0.130029 0.148547 0)
(0.106054 0.166228 0)
(0.0782346 0.180232 0)
(0.0476633 0.189604 0)
(0.0155665 0.194035 0)
(-0.0170116 0.193759 0)
(-0.0489832 0.189189 0)
(-0.0796673 0.179354 0)
(-0.107356 0.164801 0)
(-0.130967 0.146628 0)
(-0.150208 0.125987 0)
(-0.165192 0.103554 0)
(-0.17593 0.0799216 0)
(-0.182302 0.0559473 0)
(-0.184455 0.0324701 0)
(-0.182691 0.00995508 0)
(-0.17753 -0.010772 0)
(-0.169635 -0.0295605 0)
(-0.159362 -0.0461888 0)
(-0.147078 -0.0604754 0)
(-0.133121 -0.0721956 0)
(-0.118001 -0.081259 0)
(-0.102278 -0.0876297 0)
(-0.0863969 -0.0913426 0)
(-0.0707865 -0.0925605 0)
(-0.0558575 -0.0915505 0)
(-0.0419234 -0.0886033 0)
(-0.02915 -0.0840377 0)
(-0.0178483 -0.0781485 0)
(-0.00812786 -0.0712983 0)
(9.24323e-05 -0.0637726 0)
(0.00674321 -0.0558689 0)
(0.0118718 -0.0478727 0)
(0.0155961 -0.0399998 0)
(0.0180558 -0.0324459 0)
(0.0193749 -0.0253472 0)
(0.0197044 -0.0188049 0)
(0.0191554 -0.012889 0)
(0.0178568 -0.00761632 0)
(0.0159491 -0.00307609 0)
(0.0135214 0.000736207 0)
(0.010668 0.00378087 0)
(0.00749129 0.00594818 0)
(0.00418303 0.00634981 0)
(0.000890976 3.05118e-05 0)
(-0.00125183 0.00278448 0)
(-0.00540478 0.010045 0)
(-0.00954864 0.00952806 0)
(-0.0135429 0.00704345 0)
(-0.0171813 0.00357731 0)
(-0.0203601 -0.000748266 0)
(-0.0229957 -0.00590316 0)
(-0.0249741 -0.011842 0)
(-0.0261834 -0.0185574 0)
(-0.0265057 -0.0260217 0)
(-0.0257656 -0.0342157 0)
(-0.0237751 -0.0430693 0)
(-0.0203285 -0.0524338 0)
(-0.015231 -0.0620765 0)
(-0.00831873 -0.0717177 0)
(0.000497221 -0.0810025 0)
(0.0112023 -0.0895361 0)
(0.0237984 -0.0970235 0)
(0.038138 -0.102991 0)
(0.053982 -0.107138 0)
(0.0711185 -0.109097 0)
(0.089218 -0.10852 0)
(0.107877 -0.105092 0)
(0.126542 -0.0985287 0)
(0.144677 -0.0886651 0)
(0.161703 -0.0755537 0)
(0.177084 -0.0593349 0)
(0.190318 -0.0401199 0)
(0.200907 -0.018155 0)
(0.208339 0.00636212 0)
(0.211953 0.0331425 0)
(0.210953 0.0618768 0)
(0.204523 0.0915138 0)
(0.192439 0.120556 0)
(0.175092 0.147781 0)
(0.152681 0.172739 0)
(0.125068 0.194607 0)
(0.0924753 0.21194 0)
(0.0564021 0.22298 0)
(0.0186192 0.227784 0)
(-0.0201545 0.227521 0)
(-0.0579349 0.222513 0)
(-0.0943058 0.210945 0)
(-0.126782 0.192876 0)
(-0.153883 0.17028 0)
(-0.175469 0.144965 0)
(-0.191933 0.117861 0)
(-0.203254 0.0893585 0)
(-0.209233 0.0603562 0)
(-0.210281 0.0322365 0)
(-0.206849 0.00611131 0)
(-0.199515 -0.0179448 0)
(-0.189131 -0.0395951 0)
(-0.176199 -0.0586982 0)
(-0.161144 -0.0749879 0)
(-0.144347 -0.0882288 0)
(-0.126334 -0.0983044 0)
(-0.107667 -0.10505 0)
(-0.0889474 -0.108562 0)
(-0.0707563 -0.109141 0)
(-0.0535517 -0.107122 0)
(-0.0376866 -0.102874 0)
(-0.0233337 -0.096797 0)
(-0.0108118 -0.0893091 0)
(-0.000227027 -0.0807283 0)
(0.00853332 -0.0714533 0)
(0.0154008 -0.0618429 0)
(0.0204797 -0.0522443 0)
(0.0239342 -0.0429087 0)
(0.0259373 -0.0340658 0)
(0.0266825 -0.025851 0)
(0.0263443 -0.0183482 0)
(0.0251138 -0.0116136 0)
(0.0230858 -0.00565804 0)
(0.0203833 -0.000500563 0)
(0.0171599 0.00379728 0)
(0.013492 0.00721976 0)
(0.00949019 0.00965635 0)
(0.00535953 0.0101351 0)
(0.00123727 0.00288159 0)
(-0.00165306 0.0064757 0)
(-0.00675428 0.0147439 0)
(-0.0118323 0.0141245 0)
(-0.0167555 0.0113362 0)
(-0.0213053 0.00745499 0)
(-0.0253795 0.00261062 0)
(-0.028861 -0.0031627 0)
(-0.0316688 -0.00981645 0)
(-0.0337092 -0.0173708 0)
(-0.0348433 -0.0258152 0)
(-0.0348901 -0.0351907 0)
(-0.0335838 -0.0454718 0)
(-0.0306231 -0.0565368 0)
(-0.0257259 -0.0681167 0)
(-0.0186575 -0.0798307 0)
(-0.00926204 -0.09125 0)
(0.0023948 -0.101899 0)
(0.0163644 -0.111323 0)
(0.0325048 -0.119139 0)
(0.0505069 -0.124926 0)
(0.0701911 -0.128217 0)
(0.0911932 -0.128588 0)
(0.113078 -0.125611 0)
(0.135298 -0.118871 0)
(0.157193 -0.108018 0)
(0.178117 -0.0931653 0)
(0.197539 -0.0746637 0)
(0.214666 -0.0527527 0)
(0.228708 -0.0276425 0)
(0.238918 0.00059512 0)
(0.244705 0.0319734 0)
(0.245109 0.0660999 0)
(0.23892 0.102183 0)
(0.225977 0.13765 0)
(0.206989 0.170227 0)
(0.181898 0.200025 0)
(0.149788 0.226682 0)
(0.110672 0.248442 0)
(0.0675769 0.262398 0)
(0.0227064 0.268327 0)
(-0.0250317 0.268165 0)
(-0.0698116 0.262192 0)
(-0.11303 0.24763 0)
(-0.152018 0.224621 0)
(-0.183536 0.196556 0)
(-0.207428 0.166013 0)
(-0.225037 0.133686 0)
(-0.237015 0.0992403 0)
(-0.242846 0.0643144 0)
(-0.242488 0.0311609 0)
(-0.237094 0.000724888 0)
(-0.227485 -0.0268029 0)
(-0.213917 -0.0515377 0)
(-0.197137 -0.0734118 0)
(-0.177959 -0.0920846 0)
(-0.15717 -0.107319 0)
(-0.13534 -0.1186 0)
(-0.113032 -0.125669 0)
(-0.0909752 -0.128791 0)
(-0.0697899 -0.12841 0)
(-0.0499722 -0.124997 0)
(-0.0319154 -0.119038 0)
(-0.0158414 -0.111047 0)
(-0.00198603 -0.101566 0)
(0.009561 -0.0908862 0)
(0.0188454 -0.079506 0)
(0.0258501 -0.0678643 0)
(0.0307304 -0.0563528 0)
(0.0337185 -0.0453379 0)
(0.0350708 -0.0350644 0)
(0.0350589 -0.0256505 0)
(0.0339151 -0.0171407 0)
(0.0318243 -0.00952187 0)
(0.0289532 -0.00284198 0)
(0.0253923 0.00292932 0)
(0.0212413 0.00772678 0)
(0.0166489 0.0115351 0)
(0.0117219 0.014245 0)
(0.00667361 0.0148023 0)
(0.0016274 0.00653095 0)
(-0.0021073 0.0110889 0)
(-0.00826518 0.0204473 0)
(-0.0143818 0.0197137 0)
(-0.0203392 0.0166066 0)
(-0.025904 0.0122878 0)
(-0.030962 0.00689607 0)
(-0.0354021 0.000486274 0)
(-0.0391555 -0.00691535 0)
(-0.0421483 -0.0152812 0)
(-0.0442829 -0.0247034 0)
(-0.0453673 -0.0352819 0)
(-0.0450502 -0.0471247 0)
(-0.0428762 -0.0601578 0)
(-0.0383871 -0.0740782 0)
(-0.0312644 -0.0883468 0)
(-0.0213298 -0.102343 0)
(-0.0085771 -0.115533 0)
(0.00690546 -0.127322 0)
(0.02494 -0.137384 0)
(0.0453622 -0.14516 0)
(0.0679636 -0.150146 0)
(0.0924415 -0.151839 0)
(0.118574 -0.149706 0)
(0.146043 -0.143106 0)
(0.174057 -0.131632 0)
(0.201305 -0.115586 0)
(0.226491 -0.0955355 0)