/*--------------------------------*- C++ -*----------------------------------*\
| =========                 |                                                 |
| \\      /  F ield         | OpenFOAM: The Open Source CFD Toolbox           |
|  \\    /   O peration     | Version:  2412                                  |
|   \\  /    A nd           | Website:  www.openfoam.com                      |
|    \\/     M anipulation  |                                                 |
\*---------------------------------------------------------------------------*/
FoamFile
{
    version     2.0;
    format      ascii;
    arch        "LSB;label=32;scalar=64";
    class       volScalarField;
    location    "5.5";
    object      p;
}
// * * * * * * * * * * * * * * * * * * * * * * * * * * * * * * * * * * * * * //

dimensions      [1 -1 -2 0 0 0 0];

internalField   nonuniform List<scalar> 
6400
(
7027.94
7028.41
7029.36
7030.81
7032.74
7035.15
7038.02
7041.34
7045.08
7049.21
7053.7
7058.48
7063.51
7068.74
7074.08
7079.46
7084.81
7090.04
7095.07
7099.81
7104.19
7108.15
7111.61
7114.55
7116.92
7118.71
7119.92
7120.58
7120.71
7120.38
7119.66
7118.62
7117.35
7115.95
7114.52
7113.14
7111.9
7110.88
7110.13
7109.69
7109.6
7109.85
7110.42
7111.28
7112.38
7113.63
7114.97
7116.3
7117.53
7118.56
7119.3
7119.67
7119.59
7119.01
7117.9
7116.22
7113.97
7111.16
7107.83
7104.02
7099.77
7095.17
7090.29
7085.2
7079.99
7074.74
7069.53
7064.43
7059.51
7054.84
7050.46
7046.42
7042.77
7039.53
7036.73
7034.38
7032.49
7031.08
7030.15
7029.69
6664.5
6664.96
6665.91
6667.36
6669.3
6671.72
6674.62
6677.96
6681.74
6685.91
6690.44
6695.27
6700.36
6705.65
6711.07
6716.53
6721.96
6727.27
6732.38
6737.19
6741.64
6745.66
6749.17
6752.13
6754.52
6756.31
6757.5
6758.12
6758.2
6757.8
6757
6755.87
6754.5
6753.01
6751.48
6750.02
6748.7
6747.62
6746.83
6746.37
6746.27
6746.54
6747.15
6748.07
6749.23
6750.57
6752
6753.43
6754.75
6755.87
6756.69
6757.13
6757.11
6756.57
6755.48
6753.8
6751.54
6748.71
6745.33
6741.46
6737.16
6732.48
6727.53
6722.35
6717.06
6711.73
6706.45
6701.29
6696.31
6691.59
6687.16
6683.08
6679.4
6676.14
6673.32
6670.95
6669.06
6667.64
6666.72
6666.26
6300.57
6301.03
6301.98
6303.44
6305.39
6307.84
6310.77
6314.16
6318.01
6322.25
6326.87
6331.81
6337.02
6342.45
6348.01
6353.63
6359.23
6364.7
6369.97
6374.94
6379.53
6383.66
6387.26
6390.29
6392.71
6394.49
6395.65
6396.19
6396.16
6395.62
6394.65
6393.34
6391.79
6390.1
6388.38
6386.74
6385.27
6384.07
6383.19
6382.68
6382.58
6382.88
6383.57
6384.6
6385.91
6387.42
6389.03
6390.65
6392.16
6393.47
6394.46
6395.04
6395.14
6394.68
6393.64
6391.97
6389.69
6386.79
6383.33
6379.34
6374.9
6370.08
6364.97
6359.63
6354.17
6348.69
6343.26
6337.96
6332.88
6328.05
6323.51
6319.34
6315.61
6312.31
6309.46
6307.06
6305.16
6303.72
6302.81
6302.35
5936.13
5936.59
5937.53
5939.02
5940.99
5943.47
5946.45
5949.92
5953.86
5958.23
5962.98
5968.08
5973.47
5979.11
5984.9
5990.76
5996.61
6002.34
6007.85
6013.06
6017.86
6022.18
6025.93
6029.06
6031.53
6033.31
6034.4
6034.83
6034.63
6033.88
6032.66
6031.06
6029.21
6027.21
6025.2
6023.29
6021.59
6020.19
6019.17
6018.59
6018.48
6018.84
6019.64
6020.85
6022.38
6024.15
6026.06
6027.97
6029.79
6031.38
6032.63
6033.44
6033.72
6033.39
6032.41
6030.76
6028.43
6025.45
6021.84
6017.68
6013.02
6007.96
6002.59
5997.01
5991.31
5985.58
5979.93
5974.44
5969.17
5964.2
5959.46
5955.22
5951.4
5948.04
5945.15
5942.75
5940.81
5939.38
5938.42
5937.96
5571.2
5571.67
5572.66
5574.12
5576.12
5578.63
5581.66
5585.21
5589.26
5593.82
5598.74
5604.05
5609.69
5615.6
5621.7
5627.9
5634.09
5640.18
5646.05
5651.59
5656.69
5661.27
5665.22
5668.5
5671.04
5672.81
5673.82
5674.09
5673.66
5672.61
5671.03
5669.04
5666.77
5664.35
5661.92
5659.63
5657.6
5655.93
5654.72
5654.04
5653.91
5654.35
5655.32
5656.77
5658.62
5660.76
5663.07
5665.41
5667.64
5669.63
5671.25
5672.37
5672.89
5672.74
5671.86
5670.23
5667.83
5664.72
5660.91
5656.5
5651.55
5646.16
5640.44
5634.51
5628.47
5622.41
5616.45
5610.67
5605.16
5599.95
5595.06
5590.67
5586.75
5583.3
5580.35
5577.9
5575.95
5574.49
5573.53
5573.06
5205.75
5206.22
5207.19
5208.69
5210.72
5213.27
5216.38
5220.02
5224.17
5228.99
5234.11
5239.68
5245.64
5251.91
5258.41
5265.04
5271.69
5278.24
5284.57
5290.54
5296.05
5300.96
5305.2
5308.67
5311.3
5313.08
5313.99
5314.05
5313.32
5311.87
5309.82
5307.3
5304.48
5301.49
5298.52
5295.72
5293.24
5291.21
5289.75
5288.93
5288.79
5289.33
5290.52
5292.3
5294.57
5297.2
5300.05
5302.95
5305.74
5308.26
5310.36
5311.89
5312.75
5312.82
5312.06
5310.44
5307.97
5304.67
5300.6
5295.84
5290.5
5284.69
5278.52
5272.13
5265.63
5259.14
5252.78
5246.64
5240.81
5235.34
5230.24
5225.67
5221.62
5218.08
5215.06
5212.56
5210.57
5209.09
5208.13
5207.66
4839.77
4840.23
4841.2
4842.72
4844.78
4847.4
4850.58
4854.32
4858.64
4863.62
4869.02
4874.92
4881.27
4887.99
4894.99
4902.17
4909.39
4916.53
4923.44
4929.97
4935.98
4941.35
4945.94
4949.66
4952.43
4954.22
4955
4954.8
4953.67
4951.72
4949.08
4945.89
4942.34
4938.63
4934.94
4931.48
4928.42
4925.94
4924.14
4923.14
4922.97
4923.65
4925.14
4927.35
4930.16
4933.43
4936.97
4940.6
4944.11
4947.31
4950.03
4952.09
4953.37
4953.73
4953.12
4951.52
4948.92
4945.38
4940.97
4935.78
4929.93
4923.57
4916.82
4909.85
4902.77
4895.74
4888.89
4882.3
4876.09
4870.3
4864.93
4860.17
4855.97
4852.33
4849.24
4846.7
4844.68
4843.18
4842.2
4841.74
4473.24
4473.68
4474.65
4476.19
4478.27
4480.93
4484.19
4488.06
4492.54
4497.71
4503.43
4509.71
4516.52
4523.78
4531.4
4539.24
4547.18
4555.05
4562.68
4569.91
4576.57
4582.5
4587.54
4591.6
4594.54
4596.35
4596.99
4596.46
4594.85
4592.28
4588.88
4584.85
4580.39
4575.74
4571.14
4566.84
4563.05
4559.96
4557.75
4556.51
4556.32
4557.18
4559.03
4561.79
4565.3
4569.38
4573.82
4578.37
4582.79
4586.86
4590.36
4593.09
4594.88
4595.62
4595.18
4593.58
4590.82
4586.97
4582.11
4576.37
4569.88
4562.82
4555.35
4547.62
4539.86
4532.17
4524.71
4517.59
4510.93
4504.78
4499.07
4494.1
4489.75
4486.01
4482.85
4480.28
4478.25
4476.72
4475.74
4475.29
4106.13
4106.52
4107.51
4109.07
4111.15
4113.81
4117.18
4121.15
4125.8
4131.2
4137.24
4143.96
4151.32
4159.22
4167.57
4176.22
4185.03
4193.79
4202.33
4210.42
4217.88
4224.52
4230.15
4234.63
4237.79
4239.65
4240.13
4239.2
4237
4233.65
4229.32
4224.23
4218.63
4212.8
4207.05
4201.68
4196.96
4193.13
4190.38
4188.85
4188.62
4189.7
4192.03
4195.48
4199.88
4204.99
4210.55
4216.27
4221.84
4227
4231.46
4235.01
4237.45
4238.67
4238.41
4236.78
4233.82
4229.56
4224.13
4217.69
4210.41
4202.48
4194.12
4185.51
4176.87
4168.38
4160.18
4152.43
4145.22
4138.64
4132.61
4127.41
4122.9
4119.07
4115.85
4113.28
4111.24
4109.68
4108.66
4108.24
3738.5
3738.86
3739.88
3741.38
3743.32
3746.13
3749.45
3753.51
3758.3
3763.96
3770.36
3777.57
3785.55
3794.21
3803.42
3813.06
3822.91
3832.77
3842.41
3851.57
3860.02
3867.54
3873.89
3878.9
3882.42
3884.35
3884.68
3883.21
3880.3
3876.01
3870.53
3864.12
3857.09
3849.79
3842.6
3835.89
3829.99
3825.21
3821.78
3819.88
3819.61
3820.97
3823.9
3828.23
3833.74
3840.15
3847.12
3854.31
3861.34
3867.85
3873.5
3878.08
3881.4
3883
3882.99
3881.33
3878.08
3873.3
3867.16
3859.85
3851.58
3842.59
3833.12
3823.43
3813.74
3804.27
3795.21
3786.7
3778.86
3771.78
3765.45
3759.98
3755.31
3751.38
3748.18
3745.56
3743.67
3742.16
3741.09
3740.67
3370.63
3370.9
3371.57
3372.34
3373.96
3376.76
3380.56
3384.92
3389.93
3395.82
3402.62
3410.38
3419.08
3428.62
3438.88
3449.67
3460.79
3471.97
3482.95
3493.43
3503.11
3511.71
3518.97
3524.66
3528.61
3530.65
3530.75
3528.88
3525.02
3519.57
3512.66
3504.62
3495.82
3486.68
3477.66
3469.28
3461.91
3455.94
3451.66
3449.29
3448.97
3450.69
3454.36
3459.8
3466.72
3474.75
3483.5
3492.53
3501.36
3509.54
3516.67
3522.64
3526.74
3528.95
3529.21
3527.48
3523.84
3518.4
3511.37
3502.96
3493.46
3483.16
3472.35
3461.33
3450.38
3439.75
3429.66
3420.27
3411.73
3404.09
3397.39
3391.63
3386.74
3382.46
3378.75
3376.18
3374.53
3373.84
3373.16
3372.86
3003.18
3002.55
3001
2999.64
3000.71
3004.7
3009.89
3015.05
3020.41
3026.6
3033.84
3042.21
3051.72
3062.28
3073.76
3085.94
3098.58
3111.37
3123.99
3136.07
3147.26
3157.21
3165.61
3172.16
3176.64
3178.87
3178.77
3176.32
3171.53
3164.59
3155.95
3145.89
3134.88
3123.45
3112.12
3101.67
3092.45
3084.96
3079.62
3076.67
3076.28
3078.45
3083.07
3089.9
3098.58
3108.66
3119.61
3130.96
3142.04
3152.32
3161.37
3168.72
3173.93
3176.85
3177.4
3175.55
3171.39
3165.1
3156.93
3147.16
3136.14
3124.22
3111.78
3099.15
3086.69
3074.68
3063.38
3052.99
3043.62
3035.37
3028.23
3022.13
3016.85
3011.69
3006.4
3002.25
3001.44
3003.1
3004.81
3005.47
2636.35
2634.23
2628.68
2624.53
2625.28
2630.65
2637.52
2643.65
2649.51
2656.06
2663.76
2672.82
2683.24
2694.98
2707.89
2721.73
2736.2
2750.94
2765.55
2779.59
2792.64
2804.27
2814.08
2821.72
2826.89
2829.43
2829.15
2826.03
2820.16
2811.38
2800.65
2788.12
2774.38
2760.11
2746.08
2732.82
2721.23
2711.86
2705.16
2701.48
2701.01
2703.75
2709.57
2718.15
2729.05
2741.71
2755.54
2769.68
2783.52
2796.38
2807.77
2816.85
2823.38
2827.13
2827.97
2825.9
2821.05
2813.67
2804.06
2792.6
2779.7
2765.8
2751.36
2736.8
2722.52
2708.89
2696.17
2684.61
2674.33
2665.39
2657.75
2651.25
2645.46
2639.25
2632.19
2626.67
2626.08
2630.6
2636.45
2638.75
2270.31
2266.94
2258.94
2253.04
2252.85
2257.78
2264.62
2270.99
2277.09
2283.93
2292.12
2301.91
2313.36
2326.46
2341.04
2356.83
2373.5
2390.6
2407.63
2424.08
2439.41
2453.11
2464.7
2473.74
2479.86
2482.79
2482.35
2478.47
2471.17
2460.58
2447.17
2431.55
2414.39
2396.52
2378.87
2362.32
2347.81
2336.06
2327.67
2323.06
2322.49
2325.96
2333.29
2344.08
2357.76
2373.62
2390.93
2408.68
2426.01
2442.16
2456.22
2467.47
2475.59
2480.29
2481.44
2479.01
2473.24
2464.44
2453.02
2439.45
2424.23
2407.91
2391.03
2374.12
2357.67
2342.11
2327.74
2314.87
2303.57
2293.88
2285.75
2278.94
2272.87
2266.45
2259.46
2254.42
2254.66
2260.97
2269.11
2272.73
1905.46
1901.48
1893.23
1886.56
1884.59
1887.07
1891.93
1897.21
1902.96
1909.91
1918.59
1929.17
1941.78
1956.42
1972.93
1991.05
2010.34
2030.28
2050.27
2069.64
2087.76
2104.02
2117.82
2128.64
2135.98
2139.5
2138.97
2134.28
2125.4
2112.52
2095.97
2076.54
2055.11
2032.71
2010.53
1989.76
1971.61
1956.9
1946.36
1940.59
1939.89
1944.29
1953.54
1967.12
1984.28
2004.11
2025.86
2048.1
2069.71
2090.09
2107.33
2121.2
2131.19
2136.97
2138.41
2135.43
2128.42
2117.8
2104.1
2087.91
2069.84
2050.55
2030.71
2010.96
1991.92
1974.09
1957.88
1943.48
1931.07
1920.57
1911.92
1904.98
1899.27
1894.03
1889.18
1886.67
1888.74
1895.41
1903.86
1908.04
1541.77
1537.57
1529.52
1522.26
1517.55
1516.76
1518.52
1521.81
1526.72
1533.68
1542.86
1554.25
1568.19
1584.48
1603.19
1624.02
1646.45
1669.84
1693.4
1716.32
1737.86
1757.26
1773.83
1786.94
1795.87
1800.2
1799.71
1794.2
1783.58
1767.94
1747.72
1723.57
1696.79
1668.69
1640.8
1614.63
1592.02
1573.6
1560.34
1553.08
1552.22
1557.81
1569.51
1586.62
1608.17
1633.1
1660.32
1688.18
1715.42
1740.35
1761.71
1778.75
1790.93
1797.95
1799.73
1795.84
1787.13
1774.18
1757.59
1738.13
1716.58
1693.66
1670.23
1647.07
1624.93
1604.47
1586.14
1570.09
1556.51
1545.14
1535.95
1528.99
1524.13
1520.96
1519.34
1520.13
1524.71
1532.13
1540.37
1544.7
1177.94
1173.32
1164.69
1155.5
1148.2
1143.92
1142.47
1143.58
1147.5
1154.52
1164.44
1176.74
1191.62
1209.64
1230.9
1255.04
1281.36
1308.97
1336.91
1364.18
1389.87
1413.11
1433.08
1448.97
1460.03
1465.57
1465.34
1459.16
1446.67
1427.89
1403.2
1373.33
1339.81
1304.52
1269.36
1236.26
1208.48
1185.45
1168.73
1159.56
1158.49
1165.58
1180.39
1201.95
1228.9
1260.51
1294.2
1329.07
1363.24
1394.08
1420.35
1441.06
1455.7
1464.03
1465.58
1460.77
1449.96
1433.99
1413.76
1390.28
1364.5
1337.1
1309.33
1281.96
1256
1232.4
1211.8
1194.29
1179.39
1167.12
1157.17
1150.15
1146.32
1145.35
1146.99
1151.44
1158.87
1168.2
1176.96
1181.58
813.759
808.911
799.234
787.603
776.757
768.163
762.71
760.994
763.67
770.986
781.929
794.433
810.265
830.1
854.45
882.799
914.115
947.112
980.556
1013.3
1044.22
1072.23
1096.4
1115.79
1129.8
1136.69
1136.87
1130.37
1115.96
1093.66
1063.73
1026.39
984.905
940.158
895.719
854.529
821.254
791.599
769.704
757.72
756.369
765.618
784.906
812.699
846.062
884.532
926.872
971.219
1013.81
1052.26
1084.44
1109.36
1126.68
1136.83
1138.6
1131.77
1118
1098.09
1073.22
1044.62
1013.46
980.628
947.275
914.516
883.701
856.26
833.138
814.208
798.551
785.48
774.17
766.867
764.431
766.275
771.89
780.785
792.044
803.943
813.642
818.473
448.354
442.749
431.04
416.583
401.836
387.958
377.315
372.472
374.325
382.809
393.834
406.269
422.528
443.796
472.052
506.167
544.349
584.45
624.917
664.607
702.062
735.857
765.089
788.89
807.189
814.738
815.309
809.695
793.436
767.303
730.606
685.011
633.49
576.81
520.558
474.225
428.007
387.572
358.896
343.993
342.647
354.252
378.884
415.763
460.416
506.413
559.22
615.657
668.889
716.521
756.183
785.736
805.318
818.567
821.41
810.463
792.372
767.274
736.69
702.018
664.32
624.541
584.018
543.981
506.198
473.292
447.439
427.942
412.005
398.172
385.766
377.14
375.968
381.356
392.271
406.962
422.842
437.71
449.117
454.406
135.301
131.77
123.189
113.221
102.351
90.974
82.1939
78.4635
78.5627
80.9126
85.5779
92.6233
101.587
114.044
136.006
163.586
196.72
234.432
275.799
320.284
365.181
405.596
440.286
466.943
480.677
491.136
497.338
496.985
482.024
451.839
406.591
349.274
286.472
224.446
167.691
123.117
92.499
72.3438
59.8782
53.9979
53.4452
57.7988
68.1369
85.5061
111.115
151.871
204.635
265.451
329.151
389.258
438.633
472.552
488.001
496.184
500.059
493.787
472.736
442.5
405.589
363.988
319.806
275.724
234.022
195.678
161.979
134.416
113.911
102.713
94.1414
87.2857
82.6088
80.3096
80.5834
84.8609
93.3223
105.048
117.341
128.475
137.64
140.992
-0.683983
-1.13329
-2.57996
-4.25705
-6.04431
-7.49754
-8.23757
-8.5306
-8.6115
-8.54975
-8.35625
-8.04224
-7.68797
-7.11014
-3.59358
3.40989
13.9605
29.075
48.9975
73.5828
100.801
129.853
157.35
182.94
203.81
218.519
227.142
224.836
210.06
180.093
138.217
92.1927
51.4333
23.4242
5.40013
-4.47527
-7.4116
-7.64906
-7.7552
-7.77796
-7.77777
-7.84983
-7.83341
-7.83942
-6.7285
0.646172
15.935
40.3589
78.8039
124.267
168.586
207.114
224.504
228.415
223.993
210.451
187.627
159.644
129.739
98.8676
72.4914
48.1275
28.0419
12.7989
2.2021
-4.65271
-8.5449
-9.12388
-9.03671
-8.93756
-8.82749
-8.67749
-8.44828
-8.01316
-7.14324
-5.64111
-3.59984
-1.40349
0.65549
1.03431
-9.68961
-9.78462
-9.85034
-9.77953
-9.60954
-9.42999
-9.30754
-9.2099
-9.14249
-9.06836
-8.92516
-8.69245
-8.42913
-8.22087
-8.27135
-8.33472
-8.48598
-8.71479
-8.99967
-9.39162
-9.05641
-3.68911
4.1888
14.4504
26.7496
39.1116
47.3666
46.5096
37.4368
21.0098
4.45729
-6.05751
-9.1386
-9.14782
-8.80321
-8.54318
-8.37976
-8.43635
-8.51048
-8.51789
-8.50641
-8.6101
-8.70203
-8.74924
-8.76999
-8.85981
-8.92569
-8.91235
-7.02458
1.43352
17.5818
36.6649
49.7343
52.7286
45.2124
31.3933
17.3239
5.38865
-3.68877
-9.54291
-10.1987
-10.1232
-10.0419
-9.91975
-9.76805
-9.62814
-9.49275
-9.53101
-9.52198
-9.49453
-9.42407
-9.3509
-9.29965
-9.27879
-9.26674
-9.26583
-9.28059
-9.32293
-9.38365
-9.38111
-10.341
-10.3969
-10.4509
-10.3504
-10.1379
-9.96602
-9.88803
-9.85096
-9.80612
-9.72135
-9.54983
-9.2974
-9.05851
-8.89374
-8.8344
-8.8591
-9.00452
-9.25698
-9.57537
-9.91453
-10.1094
-10.4558
-10.7168
-11.0443
-11.4726
-11.8583
-12.0976
-12.1832
-12.1435
-11.9387
-11.5911
-11.1818
-10.7253
-10.3458
-9.92739
-9.35265
-8.9893
-9.08537
-9.21152
-9.21446
-9.1591
-9.23381
-9.31901
-9.3619
-9.43643
-9.62604
-9.78884
-9.94561
-10.1409
-10.3348
-10.6081
-10.8959
-11.0749
-11.1306
-11.1216
-11.0189
-10.871
-10.7221
-10.6359
-10.5103
-10.5408
-10.4922
-10.4742
-10.4307
-10.3361
-10.2347
-10.1881
-10.2215
-10.2249
-10.1639
-10.0753
-9.9733
-9.88743
-9.83498
-9.79895
-9.78393
-9.80322
-9.83547
-9.88088
-9.88621
-10.9577
-11.0791
-11.1301
-10.9962
-10.7808
-10.6468
-10.6195
-10.6323
-10.6241
-10.5431
-10.3707
-10.1267
-9.86669
-9.65065
-9.52324
-9.51218
-9.64134
-9.90025
-10.2174
-10.5108
-10.7868
-11.1436
-11.481
-11.7713
-12.0501
-12.2882
-12.4291
-12.4861
-12.4475
-12.2961
-12.0457
-11.7339
-11.3893
-11.116
-10.8037
-10.3633
-9.92592
-9.82325
-9.85331
-9.8014
-9.68529
-9.72603
-9.8548
-9.98312
-10.1506
-10.3629
-10.5083
-10.5823
-10.7006
-10.9031
-11.1637
-11.3771
-11.4487
-11.4523
-11.4299
-11.4049
-11.3587
-11.2773
-11.1666
-11.0419
-10.999
-10.9764
-10.9392
-10.8636
-10.7606
-10.6963
-10.732
-10.8357
-10.8975
-10.8796
-10.8068
-10.6903
-10.5811
-10.529
-10.4903
-10.4279
-10.3731
-10.3557
-10.3982
-10.3934
-11.493
-11.6259
-11.6982
-11.6496
-11.554
-11.5216
-11.569
-11.6664
-11.7279
-11.6779
-11.5151
-11.2628
-10.9533
-10.664
-10.4623
-10.3998
-10.4988
-10.7371
-11.0379
-11.3334
-11.5973
-11.8426
-12.0741
-12.2861
-12.5067
-12.6893
-12.8071
-12.8504
-12.8169
-12.7086
-12.5299
-12.3128
-12.0986
-11.9008
-11.6692
-11.3695
-11.0133
-10.702
-10.4979
-10.3369
-10.2159
-10.2388
-10.422
-10.6603
-10.9015
-11.102
-11.2238
-11.2851
-11.3674
-11.571
-11.8081
-11.9155
-11.9266
-11.9063
-11.8889
-11.8942
-11.8882
-11.8129
-11.6648
-11.5173
-11.4658
-11.4466
-11.4181
-11.3582
-11.2848
-11.2342
-11.2517
-11.3365
-11.4018
-11.4097
-11.3842
-11.3262
-11.2288
-11.1747
-11.1523
-11.0943
-10.9846
-10.916
-10.9179
-10.9087
-11.9428
-12.0625
-12.17
-12.2674
-12.3758
-12.5284
-12.7582
-13.0147
-13.1871
-13.1875
-13.0094
-12.6657
-12.2458
-11.8669
-11.5954
-11.4881
-11.5631
-11.7719
-12.015
-12.2219
-12.3964
-12.563
-12.735
-12.9071
-13.0683
-13.1943
-13.2682
-13.2851
-13.2514
-13.1696
-13.0416
-12.8787
-12.7159
-12.5617
-12.3959
-12.1891
-11.9167
-11.5769
-11.2417
-11.0016
-10.8697
-10.8752
-11.0928
-11.3596
-11.5922
-11.7643
-11.8734
-11.9425
-12.0557
-12.2593
-12.4357
-12.4665
-12.4278
-12.3894
-12.369
-12.3755
-12.3755
-12.3063
-12.18
-12.0514
-11.969
-11.9165
-11.879
-11.8279
-11.7808
-11.7555
-11.7689
-11.8177
-11.8663
-11.8925
-11.9015
-11.878
-11.8035
-11.7337
-11.7114
-11.6753
-11.5981
-11.4881
-11.4124
-11.4194
-12.3821
-12.4913
-12.6601
-12.924
-13.2489
-13.6458
-14.0623
-14.4289
-14.6814
-14.7121
-14.5006
-14.0663
-13.5433
-13.0793
-12.757
-12.6188
-12.6625
-12.8021
-12.9371
-13.0377
-13.1297
-13.2423
-13.3745
-13.5146
-13.6456
-13.746
-13.7997
-13.8034
-13.7676
-13.6986
-13.5838
-13.4403
-13.2968
-13.1663
-13.0372
-12.8857
-12.6801
-12.4001
-12.0676
-11.7907
-11.6273
-11.6232
-11.8289
-12.0556
-12.2365
-12.3716
-12.457
-12.5188
-12.6294
-12.7874
-12.9108
-12.9464
-12.9238
-12.871
-12.8234
-12.8006
-12.7761
-12.723
-12.6446
-12.5598
-12.4843
-12.4196
-12.3662
-12.3202
-12.2883
-12.2806
-12.3032
-12.349
-12.3975
-12.4277
-12.4331
-12.4083
-12.3534
-12.2903
-12.2346
-12.1841
-12.1199
-12.0177
-11.9022
-11.9143
-12.8982
-12.9976
-13.253
-13.6765
-14.2012
-14.77
-15.2799
-15.6995
-15.9255
-15.9443
-15.7449
-15.3066
-14.724
-14.2039
-13.8451
-13.6729
-13.6387
-13.6689
-13.7076
-13.7508
-13.8083
-13.8908
-13.997
-14.1168
-14.2292
-14.31
-14.3433
-14.3273
-14.2854
-14.2259
-14.1286
-13.9965
-13.8644
-13.7485
-13.6401
-13.5243
-13.3751
-13.16
-12.8794
-12.6128
-12.4375
-12.4019
-12.5504
-12.7152
-12.8419
-12.9316
-12.9879
-13.0262
-13.0986
-13.2085
-13.3074
-13.3614
-13.3556
-13.3196
-13.2669
-13.2345
-13.2121
-13.1848
-13.1374
-13.0736
-13.0032
-12.934
-12.8738
-12.827
-12.8016
-12.8043
-12.8371
-12.8865
-12.9389
-12.9793
-12.997
-12.9862
-12.9369
-12.8659
-12.7836
-12.6979
-12.6046
-12.5154
-12.407
-12.3964
-13.5147
-13.6018
-13.9491
-14.4937
-15.156
-15.7871
-16.3202
-16.7174
-16.9024
-16.9175
-16.7104
-16.2926
-15.6957
-15.1658
-14.7767
-14.5513
-14.4389
-14.4025
-14.4012
-14.4188
-14.4552
-14.518
-14.6087
-14.7173
-14.8192
-14.8893
-14.9133
-14.8841
-14.8438
-14.7935
-14.7075
-14.5784
-14.4488
-14.3387
-14.24
-14.1438
-14.0319
-13.863
-13.6296
-13.3948
-13.2276
-13.1617
-13.2277
-13.3413
-13.4207
-13.471
-13.4976
-13.5217
-13.569
-13.6587
-13.7494
-13.7983
-13.7971
-13.768
-13.7377
-13.7208
-13.7087
-13.6875
-13.6483
-13.5933
-13.527
-13.4568
-13.3941
-13.3487
-13.3307
-13.345
-13.3862
-13.4431
-13.5063
-13.5601
-13.5864
-13.5816
-13.5408
-13.4666
-13.3617
-13.2442
-13.1198
-13.0041
-12.9204
-12.8754
-14.1883
-14.2836
-14.6802
-15.2822
-15.9978
-16.6462
-17.1658
-17.5135
-17.679
-17.6765
-17.4725
-17.0458
-16.4732
-15.9311
-15.5243
-15.2527
-15.1144
-15.0551
-15.0393
-15.0463
-15.0701
-15.1216
-15.2093
-15.32
-15.4258
-15.5009
-15.5338
-15.5236
-15.4873
-15.427
-15.3258
-15.1847
-15.0505
-14.9458
-14.8471
-14.7551
-14.6614
-14.5212
-14.3238
-14.1267
-13.9673
-13.8757
-13.8824
-13.949
-13.9878
-14.0106
-14.0245
-14.0368
-14.0751
-14.1574
-14.2426
-14.2858
-14.2847
-14.2619
-14.2395
-14.227
-14.2173
-14.1996
-14.1676
-14.1201
-14.0591
-13.9918
-13.9325
-13.8963
-13.8925
-13.9243
-13.9796
-14.0483
-14.1285
-14.2003
-14.2402
-14.2427
-14.208
-14.1137
-13.9709
-13.8304
-13.6849
-13.5417
-13.4358
-13.3841
-14.8306
-14.9622
-15.326
-15.9224
-16.6497
-17.2977
-17.7884
-18.1031
-18.2553
-18.2338
-18.0437
-17.6045
-17.0393
-16.5111
-16.1046
-15.8365
-15.6958
-15.6322
-15.6176
-15.6235
-15.645
-15.6988
-15.7961
-15.9206
-16.0449
-16.1401
-16.1933
-16.2234
-16.2018
-16.1477
-16.0357
-15.8823
-15.7247
-15.5932
-15.4768
-15.3727
-15.2785
-15.1541
-14.9925
-14.8246
-14.669
-14.5575
-14.5233
-14.5399
-14.5477
-14.5515
-14.5592
-14.5708
-14.6085
-14.6878
-14.7685
-14.8026
-14.7961
-14.775
-14.7542
-14.7414
-14.7332
-14.7207
-14.6977
-14.6602
-14.6066
-14.5456
-14.4964
-14.478
-14.5002
-14.5597
-14.6356
-14.7297
-14.8489
-14.9648
-15.0538
-15.0783
-15.044
-14.9262
-14.7356
-14.514
-14.3132
-14.1372
-14.0054
-13.9453
-15.3647
-15.5518
-15.8214
-16.3827
-17.0943
-17.745
-18.2075
-18.4967
-18.6373
-18.6287
-18.4257
-17.9833
-17.4405
-16.9448
-16.5668
-16.3267
-16.1993
-16.1453
-16.139
-16.1507
-16.1789
-16.2471
-16.3607
-16.5036
-16.6518
-16.7729
-16.8435
-16.8836
-16.8903
-16.8752
-16.8008
-16.6615
-16.4863
-16.3076
-16.144
-16.0089
-15.9038
-15.7972
-15.6654
-15.5078
-15.3459
-15.216
-15.1446
-15.121
-15.104
-15.0947
-15.1009
-15.1169
-15.1588
-15.24
-15.318
-15.3408
-15.3244
-15.3034
-15.2818
-15.2653
-15.2572
-15.2505
-15.2376
-15.2107
-15.1666
-15.1164
-15.0852
-15.0949
-15.1576
-15.2534
-15.3658
-15.5261
-15.7499
-15.9985
-16.2101
-16.305
-16.2599
-16.0891
-15.8109
-15.4455
-15.104
-14.8525
-14.6795
-14.6003
-15.7998
-16.0034
-16.2226
-16.7184
-17.3919
-18.0446
-18.4672
-18.7415
-18.8964
-18.9045
-18.676
-18.2347
-17.7228
-17.2774
-16.954
-16.7478
-16.6434
-16.6084
-16.6158
-16.6355
-16.6794
-16.7643
-16.8924
-17.0504
-17.2195
-17.368
-17.4618
-17.505
-17.5366
-17.5613
-17.5318
-17.4138
-17.2402
-17.0336
-16.8207
-16.6556
-16.5487
-16.4539
-16.3327
-16.1736
-15.9955
-15.8488
-15.7482
-15.6966
-15.6614
-15.6432
-15.6495
-15.6719
-15.7206
-15.8007
-15.8698
-15.875
-15.8476
-15.8332
-15.8165
-15.7983
-15.7897
-15.7873
-15.7825
-15.7653
-15.7322
-15.6973
-15.6919
-15.7421
-15.8574
-15.9999
-16.1967
-16.5226
-16.9229
-17.3402
-17.6751
-17.8362
-17.7917
-17.5318
-17.1135
-16.6159
-16.1223
-15.7361
-15.4909
-15.379
-16.1602
-16.3614
-16.5767
-17.0137
-17.6446
-18.2532
-18.6647
-18.9446
-19.1105
-19.0961
-18.8283
-18.3905
-17.9273
-17.5555
-17.2879
-17.1248
-17.0502
-17.0384
-17.0614
-17.0904
-17.1518
-17.2491
-17.385
-17.5505
-17.7335
-17.9062
-18.0319
-18.0969
-18.151
-18.2188
-18.2179
-18.1103
-17.9333
-17.6919
-17.4568
-17.292
-17.1878
-17.0889
-16.9626
-16.7927
-16.6038
-16.4507
-16.3387
-16.2723
-16.227
-16.2029
-16.2102
-16.2423
-16.2899
-16.3577
-16.4065
-16.3928
-16.3652
-16.3636
-16.3555
-16.3395
-16.3297
-16.328
-16.3277
-16.3182
-16.2964
-16.2801
-16.3066
-16.4077
-16.5778
-16.7857
-17.1558
-17.6769
-18.2006
-18.7027
-19.1033
-19.2794
-19.2074
-18.9136
-18.414
-17.8344
-17.255
-16.7522
-16.4169
-16.2639
-16.504
-16.6467
-16.8992
-17.3236
-17.8936
-18.4444
-18.8544
-19.1261
-19.2632
-19.1936
-18.8831
-18.461
-18.0858
-17.7959
-17.5947
-17.4829
-17.4399
-17.4527
-17.4878
-17.5288
-17.6018
-17.7053
-17.841
-18.0047
-18.1924
-18.3807
-18.5333
-18.6268
-18.7316
-18.8342
-18.8439
-18.7292
-18.5451
-18.2959
-18.0624
-17.9044
-17.785
-17.6677
-17.5238
-17.347
-17.1678
-17.025
-16.9206
-16.8542
-16.8068
-16.7784
-16.7851
-16.8251
-16.8623
-16.9097
-16.9308
-16.912
-16.9143
-16.9145
-16.9019
-16.8872
-16.8744
-16.8698
-16.8698
-16.8652
-16.853
-16.8549
-16.9153
-17.071
-17.294
-17.6084
-18.1638
-18.7716
-19.3407
-19.8872
-20.2535
-20.3531
-20.2529
-19.9743
-19.5089
-18.9176
-18.3113
-17.7565
-17.3537
-17.1635
-16.9151
-16.9787
-17.2063
-17.6051
-18.1105
-18.6067
-18.9843
-19.2258
-19.2761
-19.1192
-18.8081
-18.4774
-18.2199
-18.0302
-17.9067
-17.8463
-17.8332
-17.8659
-17.9078
-17.9608
-18.0379
-18.1409
-18.269
-18.4217
-18.6024
-18.7892
-18.9538
-19.0872
-19.234
-19.3474
-19.3577
-19.2501
-19.0673
-18.8389
-18.6175
-18.4504
-18.3084
-18.1692
-18.0163
-17.8531
-17.7004
-17.5816
-17.4981
-17.4429
-17.4019
-17.3749
-17.3822
-17.4184
-17.4408
-17.4647
-17.461
-17.4645
-17.5002
-17.4857
-17.4565
-17.4381
-17.42
-17.4105
-17.4078
-17.4047
-17.3986
-17.4142
-17.5049
-17.7042
-17.9799
-18.4243
-19.0716
-19.6862
-20.2629
-20.7895
-21.0599
-21.0917
-20.9728
-20.7035
-20.3012
-19.7729
-19.1931
-18.6118
-18.1836
-17.9552
-17.4224
-17.4352
-17.56
-17.8465
-18.2389
-18.6244
-18.9045
-19.0351
-19.0148
-18.8695
-18.6798
-18.5165
-18.3926
-18.3041
-18.2517
-18.2336
-18.2457
-18.2898
-18.3336
-18.3936
-18.4696
-18.5667
-18.683
-18.8202
-18.9801
-19.1462
-19.3036
-19.4527
-19.5978
-19.697
-19.7065
-19.6192
-19.4633
-19.2669
-19.0681
-18.9002
-18.7542
-18.6126
-18.4715
-18.3352
-18.216
-18.128
-18.0707
-18.0342
-18.0106
-18.0009
-18.0123
-18.0267
-18.0337
-18.039
-18.0189
-18.0504
-18.088
-18.0555
-18.0149
-17.9882
-17.9641
-17.9488
-17.9419
-17.9374
-17.9325
-17.9538
-18.0609
-18.2837
-18.6111
-19.1427
-19.8055
-20.4042
-20.9638
-21.4179
-21.6079
-21.6091
-21.4752
-21.2135
-20.8561
-20.4103
-19.8796
-19.2935
-18.8488
-18.5481
-17.9799
-17.9794
-18.0409
-18.196
-18.4033
-18.5988
-18.7328
-18.7791
-18.782
-18.7483
-18.7069
-18.6794
-18.659
-18.6439
-18.6415
-18.6508
-18.6806
-18.7286
-18.7708
-18.8312
-18.9028
-18.9912
-19.0949
-19.2161
-19.3463
-19.4808
-19.6115
-19.7403
-19.8559
-19.9317
-19.9401
-19.8771
-19.759
-19.6029
-19.4378
-19.2876
-19.154
-19.029
-18.9127
-18.8078
-18.7225
-18.6649
-18.6338
-18.62
-18.6255
-18.6559
-18.669
-18.6468
-18.6446
-18.6527
-18.6358
-18.6568
-18.6657
-18.6213
-18.5743
-18.5364
-18.5059
-18.4841
-18.472
-18.4639
-18.4563
-18.4734
-18.5769
-18.8011
-19.1608
-19.7196
-20.3643
-20.9464
-21.4707
-21.8465
-21.9828
-21.9537
-21.8145
-21.5881
-21.2877
-20.886
-20.3866
-19.8132
-19.3205
-18.9435
-18.5337
-18.5468
-18.593
-18.6753
-18.762
-18.8262
-18.8609
-18.8718
-18.885
-18.9126
-18.9503
-18.9868
-19.0189
-19.0452
-19.0706
-19.0948
-19.1343
-19.1773
-19.2196
-19.2749
-19.3396
-19.4175
-19.5081
-19.612
-19.7174
-19.8214
-19.9206
-20.0128
-20.0903
-20.1389
-20.1425
-20.1003
-20.0178
-19.9045
-19.7759
-19.6518
-19.5404
-19.4404
-19.3523
-19.2776
-19.2216
-19.1893
-19.1809
-19.19
-19.2267
-19.3049
-19.3321
-19.2645
-19.2527
-19.3036
-19.3007
-19.2802
-19.2448
-19.1941
-19.1366
-19.084
-19.0452
-19.0162
-18.9979
-18.9851
-18.9731
-18.9784
-19.0598
-19.2623
-19.6155
-20.1534
-20.7642
-21.3257
-21.8085
-22.141
-22.2524
-22.2234
-22.0999
-21.909
-21.6342
-21.2425
-20.7439
-20.1616
-19.617
-19.2354
-19.0789
-19.0937
-19.1296
-19.1822
-19.2277
-19.2421
-19.232
-19.2239
-19.2364
-19.2762
-19.3306
-19.388
-19.4435
-19.4901
-19.5269
-19.5571
-19.6001
-19.6342
-19.6755
-19.7237
-19.7801
-19.8464
-19.9231
-20.0094
-20.0989
-20.18
-20.2522
-20.3118
-20.355
-20.3765
-20.3736
-20.3449
-20.2913
-20.214
-20.1198
-20.0227
-19.9346
-19.8589
-19.7959
-19.7461
-19.7125
-19.6989
-19.7071
-19.7349
-19.7941
-19.9041
-19.9706
-19.8715
-19.8337
-19.9678
-20.012
-19.9431
-19.8457
-19.7797
-19.7027
-19.6307
-19.5807
-19.5443
-19.5196
-19.502
-19.4869
-19.4794
-19.5285
-19.6894
-19.998
-20.4711
-21.0326
-21.5607
-22.0019
-22.3056
-22.4361
-22.4318
-22.3407
-22.156
-21.8659
-21.465
-20.959
-20.3602
-19.8022
-19.5109
-19.6151
-19.6277
-19.6469
-19.6803
-19.7027
-19.705
-19.6918
-19.6803
-19.6898
-19.7276
-19.7834
-19.847
-19.909
-19.9594
-19.9977
-20.0314
-20.0656
-20.0973
-20.1348
-20.1763
-20.2241
-20.279
-20.3417
-20.4117
-20.4859
-20.5542
-20.6085
-20.6473
-20.6674
-20.6694
-20.6579
-20.6373
-20.6041
-20.5544
-20.4866
-20.4115
-20.3431
-20.287
-20.2436
-20.2125
-20.195
-20.1939
-20.2128
-20.253
-20.3217
-20.4353
-20.5426
-20.4725
-20.3926
-20.6221
-20.7915
-20.6693
-20.4764
-20.3732
-20.2678
-20.1729
-20.1102
-20.0667
-20.0367
-20.0158
-19.9999
-19.9865
-20.0056
-20.1131
-20.3506
-20.7321
-21.2144
-21.6857
-22.0803
-22.3488
-22.4782
-22.4929
-22.4163
-22.2258
-21.9224
-21.521
-21.0223
-20.4623
-19.9854
-19.8232
-20.1383
-20.15
-20.1563
-20.177
-20.1875
-20.1867
-20.1776
-20.1718
-20.184
-20.2206
-20.2738
-20.335
-20.3917
-20.4359
-20.4717
-20.5037
-20.5328
-20.5631
-20.5961
-20.6318
-20.6716
-20.7161
-20.7658
-20.8206
-20.8786
-20.9358
-20.9816
-21.0109
-21.0216
-21.0163
-21.0002
-20.9793
-20.9559
-20.9228
-20.874
-20.8168
-20.7642
-20.7232
-20.694
-20.6762
-20.6701
-20.6774
-20.7023
-20.7485
-20.8162
-20.9078
-21.012
-21.0148
-20.9505
-21.1937
-21.5013
-21.3943
-21.1201
-20.952
-20.8196
-20.7041
-20.6303
-20.5821
-20.5494
-20.5274
-20.5127
-20.5031
-20.5067
-20.5667
-20.7239
-20.9953
-21.3573
-21.7403
-22.0791
-22.3139
-22.429
-22.4321
-22.3219
-22.1129
-21.8197
-21.4448
-21.0052
-20.5769
-20.2933
-20.234
-20.6521
-20.6583
-20.6645
-20.6755
-20.6823
-20.6828
-20.679
-20.6794
-20.6954
-20.7309
-20.7786
-20.8301
-20.875
-20.9123
-20.9449
-20.9744
-21.0019
-21.03
-21.059
-21.0896
-21.1226
-21.1582
-21.1967
-21.2378
-21.281
-21.3236
-21.3619
-21.3873
-21.398
-21.393
-21.3758
-21.3531
-21.3338
-21.3103
-21.2757
-21.2337
-21.1944
-21.1648
-21.146
-21.1376
-21.1394
-21.1525
-21.1811
-21.2291
-21.289
-21.3544
-21.3964
-21.4773
-21.5192
-21.707
-22.0275
-22.0024
-21.7133
-21.4891
-21.3446
-21.2159
-21.1385
-21.0898
-21.0574
-21.0367
-21.0254
-21.0242
-21.0308
-21.0663
-21.1604
-21.3264
-21.5508
-21.7995
-22.021
-22.1785
-22.2535
-22.2354
-22.1243
-21.9309
-21.6659
-21.3474
-21.0333
-20.8092
-20.7305
-20.7261
-21.1594
-21.1634
-21.1688
-21.1767
-21.182
-21.1844
-21.186
-21.1932
-21.2111
-21.2433
-21.2825
-21.3215
-21.3567
-21.3891
-21.4188
-21.4463
-21.4723
-21.4978
-21.5233
-21.5495