/*--------------------------------*- C++ -*----------------------------------*\
| =========                 |                                                 |
| \\      /  F ield         | OpenFOAM: The Open Source CFD Toolbox           |
|  \\    /   O peration     | Version:  2412                                  |
|   \\  /    A nd           | Website:  www.openfoam.com                      |
|    \\/     M anipulation  |                                                 |
\*---------------------------------------------------------------------------*/
FoamFile
{
    version     2.0;
    format      ascii;
    arch        "LSB;label=32;scalar=64";
    class       volVectorField;
    location    "6.25";
    object      U;
}
// * * * * * * * * * * * * * * * * * * * * * * * * * * * * * * * * * * * * * //

dimensions      [0 1 -1 0 0 0 0];

internalField   nonuniform List<vector> 
6400
(
(0.00109188 -0.00115817 0)
(0.00365135 -0.00130684 0)
(0.00678488 -0.00134725 0)
(0.00997276 -0.00133141 0)
(0.0130194 -0.0012504 0)
(0.015763 -0.00113085 0)
(0.01813 -0.000989815 0)
(0.0200547 -0.000838137 0)
(0.0215173 -0.000663574 0)
(0.0225351 -0.000481214 0)
(0.0230948 -0.000293233 0)
(0.0232181 -9.78705e-05 0)
(0.0229125 9.75136e-05 0)
(0.0221911 0.000289299 0)
(0.0210768 0.000475489 0)
(0.019577 0.000660069 0)
(0.017745 0.000835438 0)
(0.0155721 0.000988065 0)
(0.0130849 0.00114128 0)
(0.0103725 0.00127701 0)
(0.00742621 0.00137748 0)
(0.00430828 0.00146023 0)
(0.00112132 0.00150566 0)
(-0.00208094 0.00150925 0)
(-0.00521521 0.00147176 0)
(-0.00819243 0.00139018 0)
(-0.0109264 0.00126565 0)
(-0.0133279 0.00110158 0)
(-0.015326 0.000897222 0)
(-0.0168525 0.00066909 0)
(-0.0178388 0.000416508 0)
(-0.0182479 0.000138261 0)
(-0.0180718 -0.000149324 0)
(-0.017302 -0.000430512 0)
(-0.0159517 -0.000698288 0)
(-0.0140705 -0.00093921 0)
(-0.0117189 -0.00114666 0)
(-0.00897899 -0.00131403 0)
(-0.00594369 -0.0014324 0)
(-0.00271888 -0.00149504 0)
(0.000577625 -0.00150045 0)
(0.0038176 -0.00144927 0)
(0.00688832 -0.00134058 0)
(0.00967898 -0.00118258 0)
(0.012096 -0.000979158 0)
(0.0140538 -0.000740813 0)
(0.0154935 -0.000476533 0)
(0.0163657 -0.000202134 0)
(0.0166452 7.7856e-05 0)
(0.0163363 0.00035464 0)
(0.0154524 0.000611594 0)
(0.0140304 0.000845099 0)
(0.0121296 0.00105094 0)
(0.00981627 0.00121859 0)
(0.00716219 0.00134944 0)
(0.00425878 0.00143902 0)
(0.0011919 0.00148339 0)
(-0.00195666 0.00148535 0)
(-0.0051059 0.00144865 0)
(-0.00817934 0.00137629 0)
(-0.0111084 0.00127471 0)
(-0.0138477 0.00114782 0)
(-0.0163182 0.00101152 0)
(-0.0184862 0.000848777 0)
(-0.0203609 0.00067869 0)
(-0.0218766 0.000495956 0)
(-0.0230107 0.000310322 0)
(-0.0237533 0.000116454 0)
(-0.0240858 -8.53854e-05 0)
(-0.0239706 -0.000280476 0)
(-0.0233893 -0.000478954 0)
(-0.0223536 -0.000665132 0)
(-0.0208408 -0.00084386 0)
(-0.0188529 -0.00101425 0)
(-0.0164055 -0.00116544 0)
(-0.0135445 -0.00129232 0)
(-0.0103673 -0.00137473 0)
(-0.00704532 -0.00138936 0)
(-0.00379398 -0.00133302 0)
(-0.00113089 -0.00119563 0)
(0.00104713 -0.00355874 0)
(0.00393513 -0.00445533 0)
(0.00789894 -0.00498539 0)
(0.0120086 -0.00497079 0)
(0.0159406 -0.00458169 0)
(0.0194168 -0.00399354 0)
(0.0223179 -0.00330426 0)
(0.0245875 -0.00257523 0)
(0.026211 -0.00182139 0)
(0.0272148 -0.00108278 0)
(0.0276371 -0.000369431 0)
(0.0275341 0.000312622 0)
(0.0269324 0.000961156 0)
(0.0258627 0.00158542 0)
(0.0243658 0.00217977 0)
(0.0224495 0.00274113 0)
(0.0201434 0.00326212 0)
(0.0174723 0.00373128 0)
(0.0144751 0.00415445 0)
(0.0112225 0.0045134 0)
(0.00775538 0.0047756 0)
(0.0041453 0.00494917 0)
(0.000484003 0.00500686 0)
(-0.0031498 0.00493914 0)
(-0.00666777 0.00474235 0)
(-0.00997671 0.00440991 0)
(-0.012989 0.0039436 0)
(-0.0156183 0.00335506 0)
(-0.0177748 0.00265271 0)
(-0.0193883 0.00185955 0)
(-0.0204089 0.000994662 0)
(-0.0207934 8.08946e-05 0)
(-0.0205308 -0.000850472 0)
(-0.0196173 -0.00177232 0)
(-0.0180714 -0.00264155 0)
(-0.0159497 -0.00342778 0)
(-0.0133223 -0.00410702 0)
(-0.0102766 -0.00465223 0)
(-0.00691012 -0.00503136 0)
(-0.00333732 -0.00523546 0)
(0.0003137 -0.0052487 0)
(0.00390417 -0.00507497 0)
(0.00730648 -0.00471958 0)
(0.0104032 -0.00419973 0)
(0.013095 -0.00354207 0)
(0.0152873 -0.0027651 0)
(0.0169134 -0.00190462 0)
(0.0179211 -0.000995812 0)
(0.0182838 -6.90476e-05 0)
(0.0180009 0.000844942 0)
(0.017085 0.00170593 0)
(0.0155736 0.00250516 0)
(0.0135163 0.00321635 0)
(0.0109824 0.00381426 0)
(0.00805601 0.00429059 0)
(0.00483003 0.00463572 0)
(0.00139207 0.00484691 0)
(-0.00217106 0.00492968 0)
(-0.00577226 0.00489018 0)
(-0.00932196 0.004734 0)
(-0.0127446 0.00448058 0)
(-0.0159782 0.00414359 0)
(-0.0189488 0.00374437 0)
(-0.0216004 0.00327146 0)
(-0.023909 0.00275468 0)
(-0.0258185 0.00220313 0)
(-0.0273097 0.00161256 0)
(-0.0283741 0.000983233 0)
(-0.0289682 0.00031582 0)
(-0.0290557 -0.000385232 0)
(-0.0285881 -0.00112385 0)
(-0.027527 -0.00188383 0)
(-0.0258239 -0.002666 0)
(-0.0234451 -0.00344603 0)
(-0.020399 -0.00417719 0)
(-0.0167391 -0.00479634 0)
(-0.0126078 -0.00519851 0)
(-0.00828521 -0.00520636 0)
(-0.00413214 -0.00464286 0)
(-0.00109266 -0.00371018 0)
(0.00109704 -0.00618545 0)
(0.0043596 -0.0081912 0)
(0.00890698 -0.00939458 0)
(0.0136842 -0.00943347 0)
(0.0182983 -0.0087073 0)
(0.0224019 -0.00756108 0)
(0.0258311 -0.00620881 0)
(0.028519 -0.00477534 0)
(0.030461 -0.00334169 0)
(0.0316973 -0.00195565 0)
(0.0322799 -0.000643675 0)
(0.0322692 0.000582714 0)
(0.0317111 0.00174215 0)
(0.0306347 0.00285021 0)
(0.0290773 0.00390805 0)
(0.0270698 0.00490166 0)
(0.0246607 0.00582597 0)
(0.0218621 0.00666037 0)
(0.0187065 0.00739789 0)
(0.0152722 0.00801437 0)
(0.011596 0.00847216 0)
(0.00775018 0.00875659 0)
(0.00382598 0.00884244 0)
(-9.2082e-05 0.00871364 0)
(-0.00391303 0.00835969 0)
(-0.00754121 0.00777979 0)
(-0.0108774 0.00697382 0)
(-0.0138301 0.0059549 0)
(-0.0163113 0.0047438 0)
(-0.0182388 0.00337139 0)
(-0.0195442 0.00188132 0)
(-0.0201803 0.000317184 0)
(-0.0201433 -0.00128206 0)
(-0.0194156 -0.00285762 0)
(-0.0180108 -0.00434918 0)
(-0.0159989 -0.00570048 0)
(-0.0134429 -0.00686999 0)
(-0.0104268 -0.00779204 0)
(-0.00707051 -0.00844465 0)
(-0.00349732 -0.00878516 0)
(0.000167567 -0.00880867 0)
(0.00376608 -0.00851317 0)
(0.00716283 -0.00791026 0)
(0.0102254 -0.00702024 0)
(0.0128556 -0.00588926 0)
(0.0149557 -0.00455929 0)
(0.0164493 -0.00309556 0)
(0.0172846 -0.00153377 0)
(0.0174318 5.8848e-05 0)
(0.01689 0.0016292 0)
(0.0156927 0.00312023 0)
(0.0138854 0.0044864 0)
(0.0115141 0.00571029 0)
(0.00866446 0.00674342 0)
(0.00542605 0.00756707 0)
(0.00189549 0.00816409 0)
(-0.00183595 0.0085369 0)
(-0.00567744 0.00869092 0)
(-0.0095391 0.00863262 0)
(-0.0133201 0.00837516 0)
(-0.0169395 0.00794249 0)
(-0.0203447 0.0073596 0)
(-0.0234687 0.00664525 0)
(-0.026254 0.00581904 0)
(-0.0286646 0.0049041 0)
(-0.0306594 0.00392596 0)
(-0.0322038 0.00287647 0)
(-0.0332629 0.00176153 0)
(-0.0338141 0.00057191 0)
(-0.0338116 -0.000696546 0)
(-0.0331857 -0.002043 0)
(-0.0318897 -0.00347872 0)
(-0.0298585 -0.00497646 0)
(-0.0270491 -0.00648447 0)
(-0.0234621 -0.0079144 0)
(-0.0191589 -0.00912107 0)
(-0.0143194 -0.00988402 0)
(-0.00930817 -0.00983361 0)
(-0.00454856 -0.00857684 0)
(-0.00113029 -0.0064539 0)
(0.00107778 -0.0089588 0)
(0.00449771 -0.0122835 0)
(0.00946279 -0.0142825 0)
(0.0147852 -0.014444 0)
(0.0199788 -0.0133592 0)
(0.0245789 -0.0115721 0)
(0.0283575 -0.00945355 0)
(0.0312538 -0.00722633 0)
(0.0333107 -0.00503038 0)
(0.0346126 -0.00293983 0)
(0.0352243 -0.000987639 0)
(0.03523 0.000824312 0)
(0.034684 0.0025346 0)
(0.0336099 0.00414926 0)
(0.0320431 0.00568322 0)
(0.0300129 0.00712687 0)
(0.0275472 0.0084736 0)
(0.0246646 0.00968893 0)
(0.0213967 0.0107721 0)
(0.0177973 0.0116762 0)
(0.0139195 0.0123612 0)
(0.00983607 0.012795 0)
(0.00563016 0.012946 0)
(0.00139439 0.0127832 0)
(-0.00276546 0.0122927 0)
(-0.00674406 0.0114782 0)
(-0.0104327 0.0103332 0)
(-0.0137256 0.00887519 0)
(-0.0165186 0.00713501 0)
(-0.0187183 0.005162 0)
(-0.0202576 0.00301319 0)
(-0.0210892 0.000742091 0)
(-0.0211842 -0.00159053 0)
(-0.0205224 -0.00388052 0)
(-0.0191226 -0.00605856 0)
(-0.0170483 -0.00803839 0)
(-0.0143517 -0.00973811 0)
(-0.0111401 -0.0110922 0)
(-0.00754461 -0.0120533 0)
(-0.00369788 -0.0125506 0)
(0.000243482 -0.0125824 0)
(0.00411871 -0.0121434 0)
(0.00776836 -0.0112566 0)
(0.0110408 -0.00995776 0)
(0.013816 -0.00830589 0)
(0.0159799 -0.00636375 0)
(0.0174784 -0.00423025 0)
(0.0182597 -0.00195816 0)
(0.0182834 0.000355676 0)
(0.0175614 0.00263263 0)
(0.0161177 0.00480215 0)
(0.0140357 0.00677343 0)
(0.0113692 0.00851541 0)
(0.00819333 0.00999056 0)
(0.00461346 0.0111614 0)
(0.000735243 0.0120018 0)
(-0.00332933 0.0125175 0)
(-0.00748107 0.0127131 0)
(-0.01162 0.0126036 0)
(-0.0156417 0.0122122 0)
(-0.0194654 0.0115659 0)
(-0.0230344 0.0107037 0)
(-0.0262805 0.00965921 0)
(-0.0291507 0.00845253 0)
(-0.0316146 0.00712516 0)
(-0.033638 0.00569442 0)
(-0.0351945 0.00416497 0)
(-0.0362633 0.00254447 0)
(-0.0368183 0.000804544 0)
(-0.0368031 -0.00105833 0)
(-0.0361628 -0.00307557 0)
(-0.0348191 -0.00524443 0)
(-0.0326721 -0.00753597 0)
(-0.0296528 -0.00987023 0)
(-0.0257114 -0.0121076 0)
(-0.0208983 -0.013997 0)
(-0.0154555 -0.0151418 0)
(-0.00987356 -0.0149513 0)
(-0.00468613 -0.0128556 0)
(-0.00111026 -0.00933579 0)
(0.00101881 -0.0117294 0)
(0.00447775 -0.0165982 0)
(0.00985856 -0.0196468 0)
(0.0158671 -0.0200591 0)
(0.0218148 -0.0185626 0)
(0.0269973 -0.0159758 0)
(0.0310986 -0.0129128 0)
(0.0340929 -0.00975951 0)
(0.0361016 -0.00671528 0)
(0.0372936 -0.00388702 0)
(0.0377801 -0.00128664 0)
(0.0376754 0.0011143 0)
(0.0370448 0.00336451 0)
(0.0358995 0.00548842 0)
(0.0342657 0.00750118 0)
(0.0321619 0.00940897 0)
(0.0296002 0.0111987 0)
(0.0265859 0.0128468 0)
(0.0231431 0.0143111 0)
(0.0193243 0.0155459 0)
(0.0151828 0.0165004 0)
(0.0107906 0.0171242 0)
(0.00623463 0.0173755 0)
(0.00161359 0.0172044 0)
(-0.00294655 0.0165957 0)
(-0.00733536 0.0155442 0)
(-0.0114295 0.0140474 0)
(-0.0150975 0.0121246 0)
(-0.0182208 0.00982218 0)
(-0.0206961 0.00720135 0)
(-0.0224498 0.00431512 0)
(-0.0234274 0.00126031 0)
(-0.023578 -0.00186136 0)
(-0.0228769 -0.0049451 0)
(-0.0213516 -0.00788045 0)
(-0.0190453 -0.010564 0)
(-0.0160311 -0.0128754 0)
(-0.012427 -0.0147288 0)
(-0.00835866 -0.0160337 0)
(-0.00400053 -0.016721 0)
(0.000465788 -0.0167628 0)
(0.00485118 -0.0161614 0)
(0.00896802 -0.0149458 0)
(0.012645 -0.013174 0)
(0.0157572 -0.0109298 0)
(0.0181636 -0.00830254 0)
(0.0198029 -0.00540961 0)
(0.0206318 -0.00234705 0)
(0.0206041 0.000766395 0)
(0.0197537 0.00381679 0)
(0.0181019 0.00670871 0)
(0.0157291 0.00935328 0)
(0.0127338 0.0116543 0)
(0.00919915 0.0135925 0)
(0.00522242 0.0151125 0)
(0.000940482 0.0162019 0)
(-0.00352001 0.0168478 0)
(-0.00804927 0.0170616 0)
(-0.0125327 0.0168663 0)
(-0.0168648 0.0162979 0)
(-0.0209576 0.0153972 0)
(-0.0247439 0.0142176 0)
(-0.0281697 0.0128041 0)
(-0.0311772 0.0111778 0)
(-0.033739 0.00941176 0)
(-0.0358525 0.00751896 0)
(-0.0374889 0.00549885 0)
(-0.0386445 0.00337364 0)
(-0.0393098 0.00110383 0)
(-0.03943 -0.00135383 0)
(-0.0389307 -0.00404964 0)
(-0.0377107 -0.00698487 0)
(-0.0356314 -0.0101594 0)
(-0.0325281 -0.013472 0)
(-0.0282579 -0.0167074 0)
(-0.0228314 -0.0194467 0)
(-0.016583 -0.0210164 0)
(-0.0102788 -0.0205533 0)
(-0.00467155 -0.0173639 0)
(-0.00105524 -0.0122213 0)
(0.000913937 -0.014427 0)
(0.00422043 -0.0211101 0)
(0.0099615 -0.0256062 0)
(0.0169436 -0.0265231 0)
(0.0241106 -0.0245654 0)
(0.0302033 -0.0208913 0)
(0.0347097 -0.0165569 0)
(0.0377172 -0.0122458 0)
(0.0395267 -0.00824527 0)
(0.0404527 -0.00464496 0)
(0.0406934 -0.00141308 0)
(0.0403857 0.00155004 0)
(0.0395997 0.00430821 0)
(0.0383337 0.00692213 0)
(0.0365956 0.00941109 0)
(0.0343841 0.0117991 0)
(0.0316938 0.0140624 0)
(0.0285065 0.0161832 0)
(0.0248352 0.0180771 0)
(0.020734 0.019697 0)
(0.0162527 0.0209687 0)
(0.0114682 0.0218328 0)
(0.00646395 0.0222241 0)
(0.00135533 0.0220749 0)
(-0.00370984 0.0213617 0)
(-0.00860627 0.0200658 0)
(-0.0131957 0.0181951 0)
(-0.0173238 0.0157715 0)
(-0.0208474 0.0128539 0)
(-0.0236679 0.00950006 0)
(-0.0256814 0.00579443 0)
(-0.0267912 0.00187012 0)
(-0.0269643 -0.00214877 0)
(-0.0261741 -0.00613851 0)
(-0.0244407 -0.00994249 0)
(-0.0218058 -0.0134306 0)
(-0.0183339 -0.0164556 0)
(-0.0141644 -0.0188834 0)
(-0.00945455 -0.0205982 0)
(-0.00440551 -0.0215102 0)
(0.000769222 -0.0215682 0)
(0.00585078 -0.0207827 0)
(0.0106197 -0.0191784 0)
(0.0148699 -0.0168568 0)
(0.0184481 -0.013909 0)
(0.0212027 -0.0104905 0)
(0.0230731 -0.00672291 0)
(0.0240084 -0.00276464 0)
(0.0239556 0.00125156 0)
(0.0229639 0.00517519 0)
(0.0210819 0.00887808 0)
(0.0183788 0.0122515 0)
(0.0149746 0.0151811 0)
(0.0109843 0.017617 0)
(0.00652348 0.0195154 0)
(0.00174357 0.0208588 0)
(-0.00321997 0.0216213 0)
(-0.00822802 0.0218253 0)
(-0.0131525 0.0215059 0)
(-0.0178791 0.0207152 0)
(-0.0223133 0.019509 0)
(-0.0263834 0.0179586 0)
(-0.0300467 0.0161232 0)
(-0.0332334 0.0140511 0)
(-0.035932 0.0118151 0)
(-0.0381805 0.00944722 0)
(-0.0399408 0.0069542 0)
(-0.0412283 0.00434155 0)
(-0.0420726 0.00156743 0)
(-0.0424212 -0.001457 0)
(-0.0421967 -0.00480403 0)
(-0.0412817 -0.00854828 0)
(-0.0394425 -0.0127248 0)
(-0.0363439 -0.0172649 0)
(-0.0316463 -0.0218575 0)
(-0.0252448 -0.0257502 0)
(-0.0176931 -0.0277998 0)
(-0.010371 -0.0267981 0)
(-0.00440581 -0.0220746 0)
(-0.000950248 -0.0150403 0)
(0.000724284 -0.0168117 0)
(0.00337011 -0.0255198 0)
(0.00930734 -0.0321904 0)
(0.0177783 -0.0343046 0)
(0.0269116 -0.0319099 0)
(0.034491 -0.0266113 0)
(0.0395807 -0.0204053 0)
(0.042461 -0.0145599 0)
(0.0438362 -0.00945744 0)
(0.0442846 -0.00506925 0)
(0.0441409 -0.00125609 0)
(0.0435569 0.00218832 0)
(0.0425755 0.00539781 0)
(0.0411777 0.00846122 0)
(0.0393395 0.0114265 0)
(0.0370234 0.0143144 0)
(0.0342005 0.0170945 0)
(0.0308195 0.019733 0)
(0.0268801 0.0221268 0)
(0.0224435 0.0241974 0)
(0.0175494 0.0258526 0)
(0.0122784 0.0270262 0)
(0.00671302 0.0275911 0)
(0.000993772 0.0275009 0)
(-0.00470678 0.026699 0)
(-0.0102466 0.0251576 0)
(-0.0154613 0.0228878 0)
(-0.0201693 0.0199044 0)
(-0.0242168 0.0162875 0)
(-0.0274755 0.0121181 0)
(-0.0297942 0.00749905 0)
(-0.0310829 0.00258082 0)
(-0.0313021 -0.00247846 0)
(-0.0303955 -0.00750799 0)
(-0.028387 -0.012332 0)
(-0.0253222 -0.0167586 0)
(-0.0212723 -0.0206188 0)
(-0.0163922 -0.0237304 0)
(-0.0108637 -0.0259372 0)
(-0.00492668 -0.0271226 0)
(0.00116265 -0.0272023 0)
(0.00714255 -0.0261743 0)
(0.0127386 -0.0241054 0)
(0.0177169 -0.0211234 0)
(0.0218934 -0.0173648 0)
(0.0250976 -0.0130208 0)
(0.0272588 -0.00823483 0)
(0.0283212 -0.00323586 0)
(0.0282434 0.0018136 0)
(0.0270795 0.00674777 0)
(0.024896 0.0113731 0)
(0.0217697 0.0155443 0)
(0.0178472 0.0191906 0)
(0.0132813 0.022181 0)
(0.00820822 0.0244888 0)
(0.00279092 0.0260821 0)
(-0.00280538 0.0269479 0)
(-0.00841214 0.0271077 0)
(-0.0138855 0.0266176 0)
(-0.0191033 0.0255453 0)
(-0.0239554 0.0239696 0)
(-0.0283638 0.0219809 0)
(-0.0322946 0.0196636 0)
(-0.0356879 0.0171018 0)
(-0.0385426 0.0143633 0)
(-0.040916 0.0115074 0)
(-0.0428022 0.00855091 0)
(-0.0442391 0.00549283 0)
(-0.0452958 0.00226314 0)
(-0.0459587 -0.00124847 0)
(-0.0461714 -0.00518701 0)
(-0.0457852 -0.00974319 0)
(-0.0444355 -0.015081 0)
(-0.0415062 -0.0212482 0)
(-0.0362126 -0.0278437 0)
(-0.0282558 -0.0334944 0)
(-0.0186308 -0.0360055 0)
(-0.00969286 -0.0336954 0)
(-0.00349609 -0.0266691 0)
(-0.000750642 -0.0175376 0)
(0.000372839 -0.018455 0)
(0.00198121 -0.0295575 0)
(0.00964771 -0.0399494 0)
(0.0214228 -0.0443835 0)
(0.0326954 -0.041414 0)
(0.0411675 -0.0334874 0)
(0.0463134 -0.0243985 0)
(0.048606 -0.0164528 0)
(0.0491314 -0.010069 0)
(0.0487935 -0.00496119 0)
(0.0480775 -0.000708793 0)
(0.0471458 0.00307939 0)
(0.0459674 0.00664291 0)
(0.0444718 0.0101072 0)
(0.0425807 0.0135394 0)
(0.040194 0.0169492 0)
(0.0372497 0.0202979 0)
(0.0336722 0.0235103 0)
(0.0294416 0.0264863 0)
(0.0246131 0.0291054 0)
(0.0192421 0.0312465 0)
(0.0133733 0.0327922 0)
(0.00711429 0.0336087 0)
(0.00065203 0.0336285 0)
(-0.00584798 0.0327654 0)
(-0.012195 0.0309744 0)
(-0.0182054 0.0282738 0)
(-0.0236538 0.0246765 0)
(-0.0283351 0.0202649 0)
(-0.0321317 0.0151579 0)
(-0.0348699 0.00949052 0)
(-0.0364054 0.00342832 0)
(-0.0366852 -0.00284249 0)
(-0.0356607 -0.00908804 0)
(-0.03333 -0.0150985 0)
(-0.0297398 -0.0206454 0)
(-0.0249768 -0.0255008 0)
(-0.0192039 -0.0294331 0)
(-0.0126521 -0.0322312 0)
(-0.00559092 -0.0337312 0)
(0.00168196 -0.033834 0)
(0.00880115 -0.0325233 0)
(0.015436 -0.0299119 0)
(0.0213148 -0.0261365 0)
(0.0262145 -0.0214112 0)
(0.0299758 -0.0159492 0)
(0.0324925 -0.00997437 0)
(0.0336909 -0.00375713 0)
(0.0335755 0.00249839 0)
(0.0321775 0.00857462 0)
(0.0295681 0.014253 0)
(0.0259231 0.0193772 0)
(0.0213634 0.0238174 0)
(0.0160497 0.0274254 0)
(0.0102019 0.0301729 0)
(0.00399393 0.0320207 0)
(-0.00238572 0.0329679 0)
(-0.00873577 0.03304 0)
(-0.0148839 0.03231 0)
(-0.0206923 0.0308783 0)
(-0.026037 0.0288463 0)
(-0.0308379 0.0263324 0)
(-0.0350608 0.0234584 0)
(-0.0386607 0.0203276 0)
(-0.0416554 0.0170391 0)
(-0.0441296 0.0136731 0)
(-0.0461027 0.0102665 0)
(-0.0476646 0.00682298 0)
(-0.0489422 0.00324455 0)
(-0.0499887 -0.000613521 0)
(-0.0508305 -0.00498841 0)
(-0.0513077 -0.0102744 0)
(-0.0508988 -0.016947 0)
(-0.0486687 -0.0253583 0)
(-0.0435073 -0.0350174 0)
(-0.0348446 -0.0434765 0)
(-0.0230186 -0.0466566 0)
(-0.0103925 -0.0419106 0)
(-0.002132 -0.0308756 0)
(-0.00039784 -0.0192355 0)
(-1.44791e-05 -0.0194659 0)
(0.00325076 -0.0350729 0)
(0.0199145 -0.0517173 0)
(0.0393376 -0.0572178 0)
(0.0515693 -0.0513185 0)
(0.0561391 -0.0397825 0)
(0.0570201 -0.0275401 0)
(0.0565832 -0.0173029 0)
(0.0553706 -0.00964994 0)
(0.0537974 -0.0040519 0)
(0.0523241 0.000346366 0)
(0.0510202 0.00423837 0)
(0.0497037 0.00799648 0)
(0.0481937 0.0117916 0)
(0.0463232 0.0156811 0)
(0.0439284 0.019652 0)
(0.0409009 0.0236401 0)
(0.0371479 0.0275298 0)
(0.0326317 0.0311984 0)
(0.0273812 0.0344855 0)
(0.0214303 0.0372346 0)
(0.0148475 0.0392601 0)
(0.00776907 0.0404384 0)
(0.000384512 0.0406334 0)
(-0.00710754 0.0397397 0)
(-0.0144587 0.0377027 0)
(-0.0214415 0.0345269 0)
(-0.0278116 0.0302479 0)
(-0.0333206 0.0249414 0)
(-0.037795 0.0187468 0)
(-0.04104 0.0118488 0)
(-0.0429136 0.00445103 0)
(-0.043306 -0.00322183 0)
(-0.042138 -0.0109099 0)
(-0.039432 -0.0183345 0)
(-0.0352218 -0.0252177 0)
(-0.0295945 -0.0312674 0)
(-0.0227332 -0.0362035 0)
(-0.0148915 -0.0397436 0)
(-0.0064069 -0.0416266 0)
(0.00234359 -0.0417476 0)
(0.0108819 -0.0400873 0)
(0.0188165 -0.0367858 0)
(0.0258182 -0.0320542 0)
(0.0316207 -0.0261501 0)
(0.0360405 -0.019354 0)
(0.0389469 -0.0119759 0)
(0.0402933 -0.00430823 0)
(0.0400872 0.00337636 0)
(0.038376 0.0107855 0)
(0.0352827 0.0177005 0)
(0.0309629 0.0239093 0)
(0.0255612 0.0292133 0)
(0.019329 0.0335178 0)
(0.0125193 0.0367465 0)
(0.00532866 0.0388482 0)
(-0.00201418 0.0398452 0)
(-0.00927596 0.0397657 0)
(-0.0162396 0.0387013 0)
(-0.0227489 0.0368098 0)
(-0.0286699 0.0341983 0)
(-0.0339037 0.0310444 0)
(-0.038437 0.0275061 0)
(-0.0422367 0.0237129 0)
(-0.045325 0.0198084 0)
(-0.04782 0.0158946 0)
(-0.0497889 0.0120583 0)
(-0.0513951 0.00828855 0)
(-0.0528559 0.00453057 0)
(-0.0543279 0.000594096 0)
(-0.0559855 -0.00389826 0)
(-0.0577739 -0.00965923 0)
(-0.0593042 -0.0176041 0)
(-0.0602395 -0.0282722 0)
(-0.0600152 -0.0411457 0)
(-0.0557448 -0.0535434 0)
(-0.0428278 -0.0602175 0)
(-0.0219057 -0.0546362 0)
(-0.00375411 -0.0369313 0)
(-2.6108e-05 -0.020387 0)
(-0.000235392 -0.0221748 0)
(0.0150754 -0.0487852 0)
(0.0493174 -0.0739272 0)
(0.0785942 -0.0742192 0)
(0.0916511 -0.0562713 0)
(0.0875921 -0.0374457 0)
(0.0762265 -0.0243239 0)
(0.0673497 -0.0148438 0)
(0.0622452 -0.00733485 0)
(0.0588747 -0.00198133 0)
(0.0565265 0.00199994 0)
(0.0549274 0.00561378 0)
(0.0536368 0.00936795 0)
(0.0522807 0.0134031 0)
(0.0505736 0.0177492 0)
(0.048286 0.022347 0)
(0.0452603 0.0270752 0)
(0.0413759 0.03178 0)
(0.036572 0.0362883 0)
(0.0308562 0.0404071 0)
(0.0242466 0.0439213 0)
(0.0168257 0.0465914 0)
(0.00875668 0.0482453 0)
(0.000245753 0.0487021 0)
(-0.00845711 0.0478107 0)
(-0.0170442 0.0455417 0)
(-0.0252366 0.0418499 0)
(-0.0327466 0.0367894 0)
(-0.0392816 0.0304608 0)
(-0.0446197 0.0230277 0)
(-0.0485206 0.0147094 0)
(-0.0507945 0.00572622 0)
(-0.051336 -0.00360237 0)
(-0.0500495 -0.0129931 0)
(-0.0469148 -0.0221059 0)
(-0.0419778 -0.0305903 0)
(-0.0353386 -0.0381115 0)
(-0.0271711 -0.0443002 0)
(-0.017721 -0.0487717 0)
(-0.00741345 -0.0511948 0)
(0.0032289 -0.0513335 0)
(0.0135703 -0.0491952 0)
(0.0230991 -0.0449861 0)
(0.0314404 -0.0390514 0)
(0.0383057 -0.0317163 0)
(0.0434855 -0.0233322 0)
(0.0468578 -0.0142727 0)
(0.0483691 -0.00488174 0)
(0.0480228 0.00448697 0)
(0.0459039 0.0135 0)
(0.0421497 0.021864 0)
(0.0369454 0.0292892 0)
(0.0305318 0.0356058 0)
(0.0231857 0.0406802 0)
(0.0151739 0.0444141 0)
(0.00677469 0.0467606 0)
(-0.0017448 0.0477595 0)
(-0.0101224 0.0474236 0)
(-0.0180579 0.0459448 0)
(-0.0253927 0.0434264 0)
(-0.0319769 0.040102 0)
(-0.0376824 0.0361487 0)
(-0.0425254 0.0317927 0)
(-0.0464766 0.0272126 0)
(-0.0495825 0.0225998 0)
(-0.0519846 0.0180777 0)
(-0.0538117 0.0138021 0)
(-0.0552937 0.00979334 0)
(-0.0567513 0.0060713 0)
(-0.0585545 0.00245691 0)
(-0.0611313 -0.00156451 0)
(-0.0648291 -0.00698589 0)
(-0.070601 -0.0144994 0)
(-0.0807529 -0.0239847 0)
(-0.0933844 -0.0378938 0)
(-0.0975958 -0.0587328 0)
(-0.0836703 -0.0786662 0)
(-0.0529837 -0.0786334 0)
(-0.0167377 -0.0519752 0)
(0.000206439 -0.0235428 0)
(0.00149186 -0.0337219 0)
(0.0420089 -0.0828194 0)
(0.0884228 -0.112528 0)
(0.120095 -0.100709 0)
(0.132842 -0.0608711 0)
(0.124583 -0.0238744 0)
(0.101483 -0.00702768 0)
(0.080149 -0.00339589 0)
(0.0686958 -0.00106099 0)
(0.0630141 0.00163758 0)
(0.0600187 0.00415544 0)
(0.0585083 0.00700532 0)
(0.0575799 0.0105101 0)
(0.0566434 0.0147268 0)
(0.0553267 0.0195771 0)
(0.0533132 0.0249018 0)
(0.0504051 0.0305135 0)
(0.0464592 0.0362168 0)
(0.0413963 0.0417674 0)
(0.0351932 0.046933 0)
(0.027832 0.0514175 0)
(0.0194264 0.0549398 0)
(0.010174 0.0572247 0)
(0.000289005 0.0580807 0)
(-0.00987864 0.0572624 0)
(-0.0199705 0.0547542 0)
(-0.0296674 0.0505012 0)
(-0.0385891 0.0445518 0)
(-0.0463942 0.03704 0)
(-0.0527881 0.0281581 0)
(-0.0575078 0.0181519 0)
(-0.0603122 0.00734733 0)
(-0.0610447 -0.00396279 0)
(-0.059626 -0.0153582 0)
(-0.0560224 -0.026471 0)
(-0.0502809 -0.0369057 0)
(-0.0424729 -0.046234 0)
(-0.0327208 -0.0540157 0)
(-0.0212971 -0.0596967 0)
(-0.0086953 -0.0628316 0)
(0.00439094 -0.0629832 0)
(0.017022 -0.060177 0)
(0.0285254 -0.0548132 0)
(0.0384532 -0.047365 0)
(0.0465441 -0.0382757 0)
(0.0525908 -0.0279773 0)
(0.056475 -0.0168969 0)
(0.0581463 -0.0054586 0)
(0.0576135 0.00590884 0)
(0.0549774 0.0168141 0)
(0.0503827 0.026875 0)
(0.0440931 0.0357513 0)
(0.0364136 0.0432322 0)
(0.0276642 0.0491557 0)
(0.0181808 0.0534135 0)
(0.00830966 0.0559923 0)
(-0.00165747 0.0569046 0)
(-0.011345 0.0562372 0)
(-0.0204462 0.0541651 0)
(-0.0287612 0.0508618 0)
(-0.0360791 0.0466222 0)
(-0.0423113 0.0416497 0)
(-0.047443 0.036289 0)
(-0.0514725 0.03074 0)
(-0.0544806 0.025276 0)
(-0.0566286 0.0200482 0)
(-0.0580842 0.0152845 0)
(-0.0591513 0.011103 0)
(-0.0602523 0.00763608 0)
(-0.0619928 0.00484759 0)
(-0.0652244 0.00237725 0)
(-0.0712652 -8.5126e-05 0)
(-0.0836038 -0.00185814 0)
(-0.106268 -0.00541517 0)
(-0.129981 -0.0240573 0)
(-0.138079 -0.06417 0)
(-0.125295 -0.106352 0)
(-0.0931777 -0.118977 0)
(-0.0450556 -0.0883586 0)
(-0.00188697 -0.0362944 0)
(0.0125702 -0.0630668 0)
(0.0663243 -0.138065 0)
(0.108111 -0.156876 0)
(0.130542 -0.125294 0)
(0.138555 -0.0646668 0)
(0.13177 -0.00836496 0)
(0.108805 0.0168703 0)
(0.084241 0.0161192 0)
(0.0703707 0.00965413 0)
(0.0641972 0.00649496 0)
(0.0618339 0.00625046 0)
(0.0612812 0.00787522 0)
(0.0613016 0.0110292 0)
(0.0612294 0.015484 0)
(0.0605954 0.0209536 0)
(0.0590635 0.0271718 0)
(0.05644 0.0338722 0)
(0.0525369 0.0407802 0)
(0.0472502 0.0476179 0)
(0.0405324 0.0541193 0)
(0.0323489 0.0598289 0)
(0.0227997 0.0644518 0)
(0.0121401 0.0676184 0)
(0.000604124 0.0690192 0)
(-0.0113867 0.0684011 0)
(-0.0233297 0.0656634 0)
(-0.0348605 0.0607885 0)
(-0.0455195 0.0538211 0)
(-0.0548814 0.0449356 0)
(-0.0625926 0.0343583 0)
(-0.0682788 0.0223556 0)
(-0.0717154 0.00936611 0)
(-0.0727245 -0.00426624 0)
(-0.0711682 -0.018034 0)
(-0.0670669 -0.0315067 0)
(-0.0603996 -0.0442696 0)
(-0.0511891 -0.0558467 0)
(-0.0395025 -0.065674 0)
(-0.0256402 -0.0730364 0)
(-0.0102496 -0.0771395 0)
(0.00579493 -0.0772883 0)
(0.021205 -0.0735407 0)
(0.0351273 -0.0666298 0)
(0.0470153 -0.0572202 0)
(0.0565716 -0.0459483 0)
(0.0636258 -0.0333389 0)
(0.0680985 -0.0198743 0)
(0.0699325 -0.00600987 0)
(0.069147 0.00775116 0)
(0.065857 0.0208987 0)
(0.0602195 0.0329305 0)
(0.0525721 0.0435306 0)
(0.0433249 0.0523475 0)
(0.0328619 0.0592316 0)
(0.0215855 0.0640489 0)
(0.00991055 0.0668483 0)
(-0.00177673 0.0676062 0)
(-0.0130581 0.0664578 0)
(-0.0235525 0.0635394 0)
(-0.0329822 0.0592378 0)
(-0.041169 0.0537882 0)
(-0.0479398 0.0475772 0)
(-0.0533168 0.040957 0)
(-0.0573289 0.0342268 0)
(-0.060077 0.0276947 0)
(-0.0617607 0.0216008 0)
(-0.0625525 0.0162149 0)
(-0.0627846 0.0118106 0)
(-0.0628973 0.00868954 0)
(-0.0636416 0.00714315 0)
(-0.0661586 0.00758856 0)
(-0.0724614 0.0112165 0)
(-0.0866598 0.0183549 0)
(-0.111543 0.0188269 0)
(-0.134496 -0.00846905 0)
(-0.141558 -0.0674896 0)
(-0.134514 -0.130417 0)
(-0.112508 -0.164035 0)
(-0.0697789 -0.145893 0)
(-0.0138954 -0.067779 0)
(0.0259986 -0.111351 0)
(0.0637694 -0.188479 0)
(0.0850777 -0.183147 0)
(0.0926834 -0.132817 0)
(0.0961518 -0.0599969 0)
(0.0942885 0.00463408 0)
(0.0825323 0.0340008 0)
(0.0696075 0.0314451 0)
(0.0629651 0.0188123 0)
(0.060821 0.0100633 0)
(0.0613649 0.00679462 0)
(0.0630793 0.00724926 0)
(0.0649221 0.0103062 0)
(0.066251 0.0152453 0)
(0.0666765 0.0215704 0)
(0.0659114 0.0289333 0)
(0.0637495 0.0369826 0)
(0.0600141 0.0453695 0)
(0.0546189 0.0538433 0)
(0.0473798 0.0619584 0)
(0.0382499 0.0692883 0)
(0.0274118 0.0753682 0)
(0.0150401 0.0797026 0)
(0.00146713 0.0818723 0)
(-0.0127441 0.0815791 0)
(-0.0269799 0.0786522 0)
(-0.0407477 0.073074 0)
(-0.053512 0.064933 0)
(-0.0647577 0.0544107 0)
(-0.0740854 0.0417834 0)
(-0.0810313 0.0274804 0)
(-0.0852763 0.0118671 0)
(-0.0866124 -0.0044935 0)
(-0.0848786 -0.0210729 0)
(-0.0801058 -0.0373369 0)
(-0.0722465 -0.0528884 0)
(-0.0612416 -0.0672694 0)
(-0.0472018 -0.0797292 0)
(-0.0305425 -0.0892505 0)
(-0.0120514 -0.0946014 0)
(0.00720522 -0.0947586 0)
(0.0257203 -0.0898131 0)
(0.0425139 -0.0808819 0)
(0.0568464 -0.0689971 0)
(0.0682859 -0.0550105 0)
(0.076641 -0.0395872 0)
(0.0818687 -0.0232763 0)
(0.0839377 -0.00652273 0)
(0.0828282 0.0100914 0)
(0.0786359 0.0258961 0)
(0.0716818 0.0403292 0)
(0.0623737 0.0529422 0)
(0.0511713 0.0632991 0)
(0.0386109 0.0712655 0)
(0.0251863 0.0767125 0)
(0.011359 0.0796899 0)
(-0.00245367 0.0801649 0)
(-0.0157162 0.0783143 0)
(-0.0278604 0.0743354 0)
(-0.0385937 0.068679 0)
(-0.0477081 0.0616628 0)
(-0.0550055 0.0538927 0)
(-0.060573 0.0456876 0)
(-0.0644307 0.037516 0)
(-0.0667288 0.0296241 0)
(-0.0676796 0.0224031 0)
(-0.0674383 0.0161484 0)
(-0.066279 0.0112632 0)
(-0.0645749 0.00824168 0)
(-0.0629509 0.00782159 0)
(-0.0624293 0.0112512 0)
(-0.064411 0.0203625 0)
(-0.0706566 0.033506 0)
(-0.083104 0.0357754 0)
(-0.0944849 0.00489135 0)
(-0.0968317 -0.0615729 0)
(-0.0947202 -0.136664 0)
(-0.0880877 -0.189925 0)
(-0.0665901 -0.197755 0)
(-0.0276007 -0.118686 0)
(0.0231723 -0.15128 0)
(0.0318264 -0.20661 0)
(0.0313401 -0.18231 0)
(0.0260977 -0.126363 0)
(0.0274315 -0.0552736 0)
(0.0347012 0.00741214 0)
(0.0394014 0.0369795 0)
(0.0432774 0.0342398 0)
(0.0484492 0.0198027 0)
(0.0538133 0.0086977 0)
(0.0595096 0.00396806 0)
(0.0649406 0.00412561 0)
(0.0695913 0.00764405 0)
(0.0730285 0.0135233 0)
(0.0750163 0.0210959 0)
(0.0753654 0.0299495 0)
(0.0739069 0.0396538 0)
(0.0705431 0.0498859 0)
(0.0650827 0.0602978 0)
(0.0573299 0.0704847 0)
(0.0472192 0.0799288 0)
(0.0347493 0.0879722 0)
(0.0202152 0.0938787 0)
(0.00408298 0.0971431 0)
(-0.0129146 0.0973022 0)
(-0.029957 0.0942004 0)
(-0.0464308 0.087808 0)
(-0.0617569 0.0782995 0)
(-0.0753756 0.0658672 0)
(-0.0867143 0.0508399 0)
(-0.0953041 0.0337457 0)
(-0.100713 0.0150385 0)
(-0.102511 -0.00464122 0)
(-0.100473 -0.0246449 0)
(-0.0946264 -0.0442965 0)
(-0.0850651 -0.0632701 0)
(-0.0718073 -0.0810481 0)
(-0.0550773 -0.0966124 0)
(-0.0354909 -0.108536 0)
(-0.0139828 -0.115254 0)
(0.00836284 -0.115433 0)
(0.0300305 -0.109217 0)
(0.0499023 -0.0980036 0)
(0.06709 -0.0832413 0)
(0.0809714 -0.06597 0)
(0.0911734 -0.0471052 0)
(0.0975747 -0.0272916 0)
(0.100037 -0.00699405 0)
(0.098441 0.0131192 0)
(0.0930112 0.0322084 0)
(0.0842171 0.0495113 0)
(0.072592 0.06439 0)
(0.0588931 0.0765108 0)
(0.0438081 0.08568 0)
(0.0278272 0.0918245 0)
(0.0113889 0.0949412 0)
(-0.00499101 0.0949207 0)
(-0.0206404 0.0921572 0)
(-0.034851 0.0867631 0)
(-0.0471995 0.0792784 0)
(-0.0573342 0.0703034 0)
(-0.0651217 0.0604815 0)
(-0.0707352 0.0503617 0)
(-0.0742643 0.0403936 0)
(-0.0758925 0.0308276 0)
(-0.0757593 0.0221439 0)
(-0.0740134 0.0146403 0)
(-0.0707974 0.00877538 0)
(-0.0663317 0.00525979 0)
(-0.0610127 0.00506821 0)
(-0.0553013 0.00975667 0)
(-0.0496967 0.0209097 0)
(-0.0439333 0.0355902 0)
(-0.0391957 0.0382456 0)
(-0.0339374 0.00777532 0)
(-0.0272085 -0.055877 0)
(-0.0270339 -0.128931 0)
(-0.0332575 -0.188148 0)
(-0.0336316 -0.216254 0)
(-0.0243971 -0.160603 0)
(0.00949298 -0.164577 0)
(-0.0058776 -0.196824 0)
(-0.0201136 -0.169992 0)
(-0.0321677 -0.11868 0)
(-0.0315922 -0.057073 0)
(-0.0193783 -0.00263115 0)
(-0.00213699 0.0243782 0)
(0.0165762 0.0223255 0)
(0.0333452 0.00969421 0)
(0.0473021 -8.38231e-05 0)
(0.0592016 -0.00398684 0)
(0.069254 -0.00273536 0)
(0.0775275 0.00221179 0)
(0.0837335 0.0096262 0)
(0.0877537 0.0189768 0)
(0.0895299 0.0298151 0)
(0.0890112 0.0415884 0)
(0.0861069 0.0540539 0)
(0.0806792 0.0668664 0)
(0.072436 0.0797576 0)
(0.0611023 0.0919807 0)
(0.0466244 0.102678 0)
(0.0293522 0.110718 0)
(0.00995078 0.11534 0)
(-0.0105408 0.116047 0)
(-0.0310317 0.112731 0)
(-0.0507829 0.105388 0)
(-0.0691814 0.0943736 0)
(-0.0856939 0.0798588 0)