/*--------------------------------*- C++ -*----------------------------------*\
| =========                 |                                                 |
| \\      /  F ield         | OpenFOAM: The Open Source CFD Toolbox           |
|  \\    /   O peration     | Version:  2412                                  |
|   \\  /    A nd           | Website:  www.openfoam.com                      |
|    \\/     M anipulation  |                                                 |
\*---------------------------------------------------------------------------*/
FoamFile
{
    version     2.0;
    format      ascii;
    arch        "LSB;label=32;scalar=64";
    class       volScalarField;
    location    "1.35";
    object      alpha.ethanol;
}
// * * * * * * * * * * * * * * * * * * * * * * * * * * * * * * * * * * * * * //

dimensions      [0 0 0 0 0 0 0];

internalField   nonuniform List<scalar> 
6400
(
1
1
1
0.999999
1
1
1
1
1
1
1
1
1
1
1
1
1
1
1
1
1
1
1
1
1
1
1
1
1
1
1
1
1
1
1
1
1
1
1
1
1
1
1
1
1
1
1
1
1
1
1
1
1
1
1
1
1
1
1
1
0.999999
1
1
1
1
1
1
1
1
1
1
1
1
1
1
1
1
1
1
1
0.999997
1
1
1
1
1
1
1
1
1
1
1
1
1
1
1
1
1
1
1
1
1
1
1
1
1
1
1
1
1
1
1
1
1
1
1
1
1
1
1
1
1
1
1
1
1
1
1
1
1
1
1
1
1
1
1
1
1
1
1
1
1
1
1
1
1
1
1
1
1
1
1
1
1
1
1
1
0.999999
0.999999
0.999999
1
1
1
1
1
1
1
1
1
1
1
1
1
1
1
1
1
1
1
1
1
1
1
1
1
1
1
1
1
1
1
1
1
1
1
1
1
1
1
1
1
1
1
1
1
1
1
1
1
1
1
1
1
1
1
1
1
1
1
1
1
1
1
1
0.999999
1
1
0.999999
1
1
1
1
1
1
1
1
0.999999
0.999999
0.999999
1
1
1
1
1
1
1
1
1
1
1
1
1
1
1
1
1
1
1
1
1
1
1
1
1
1
1
1
1
1
1
1
1
1
1
1
1
1
1
1
1
1
1
1
1
1
1
1
1
1
1
1
1
1
1
1
1
1
1
1
1
1
1
0.999999
0.999999
1
1
1
1
1
1
1
1
1
1
1
1
1
1
1
1
1
1
1
1
1
1
1
1
1
1
1
1
1
1
1
1
1
1
1
1
1
1
1
1
1
1
1
1
1
1
1
1
1
1
1
1
1
1
1
1
1
1
1
1
1
1
1
1
1
1
1
1
1
0.999999
1
1
1
1
1
1
1
1
1
1
1
1
1
1
1
1
1
1
1
1
1
1
1
1
1
1
1
1
1
1
1
1
1
1
1
1
1
1
1
1
1
1
1
1
1
1
1
1
1
1
1
1
1
1
1
1
1
1
1
1
1
1
1
1
1
1
1
1
1
1
1
1
1
1
1
1
1
1
1
1
1
1
1
1
1
1
1
1
1
1
1
1
1
1
1
1
1
1
1
1
1
1
1
1
1
1
1
1
1
1
1
1
1
1
1
1
1
1
1
1
1
1
1
1
1
1
1
1
1
1
1
1
1
1
1
1
1
1
1
1
1
1
1
1
1
1
1
1
1
1
1
1
1
1
1
1
1
1
1
1
1
1
1
1
1
1
1
1
1
1
1
1
1
1
1
1
1
1
1
1
1
1
1
1
1
1
1
1
1
1
1
1
1
1
1
1
1
1
1
1
1
1
1
1
1
1
1
1
1
1
1
1
1
1
1
1
1
1
1
1
1
1
1
1
1
1
1
1
1
1
1
1
1
1
1
1
1
1
1
1
1
1
1
1
1
1
1
1
1
1
1
1
1
1
1
1
1
1
1
1
1
1
1
1
1
1
1
1
1
1
1
1
1
1
1
1
1
1
1
1
1
1
0.999999
1
1
1
1
1
1
1
1
1
1
1
1
1
1
1
1
1
1
1
1
1
1
1
1
1
1
1
1
1
1
1
1
1
1
1
1
1
1
1
1
1
1
1
1
1
1
1
1
1
1
1
1
1
1
1
1
1
1
1
1
1
1
1
1
1
1
1
1
1
1
1
1
1
1
1
1
1
1
1
1
1
1
1
1
1
1
1
1
1
1
1
1
1
1
1
1
1
1
1
1
1
1
1
1
1
1
1
1
1
1
1
1
1
1
1
1
1
1
1
1
1
1
1
1
1
1
1
1
1
1
1
1
1
1
1
1
1
1
1
1
1
1
1
1
1
1
1
1
1
1
1
1
1
1
1
1
1
1
1
1
1
1
1
1
1
1
1
1
1
1
1
1
1
1
1
1
1
1
1
1
1
1
1
1
1
1
1
1
1
1
1
1
1
1
1
1
1
1
1
1
1
1
1
1
1
1
1
1
1
1
1
1
1
1
1
1
1
1
1
1
1
1
1
1
1
1
1
1
1
1
1
1
1
1
1
1
1
1
1
1
1
1
1
1
1
1
1
1
1
1
1
1
1
1
1
1
1
1
1
1
1
1
1
1
1
1
1
1
1
1
1
1
1
1
1
1
1
1
1
1
1
1
1
1
1
1
1
1
1
1
1
1
1
1
1
1
1
1
1
1
1
1
1
1
1
1
1
1
1
1
1
1
1
1
1
1
1
1
1
1
1
1
1
1
1
1
1
1
1
1
1
1
1
1
1
1
1
1
1
1
1
1
1
1
1
1
1
1
1
1
1
1
1
1
1
1
1
1
1
1
1
1
1
1
1
1
1
1
1
1
1
1
1
1
1
1
1
1
1
1
1
1
1
1
1
1
1
1
1
1
1
1
1
1
1
1
1
1
1
1
1
1
1
1
1
1
1
1
1
1
1
1
1
1
1
1
1
1
1
1
1
1
1
1
1
1
1
1
1
1
1
1
1
1
1
1
1
1
1
1
1
1
1
1
1
1
1
1
1
1
1
1
1
1
1
1
1
1
1
1
1
1
1
1
1
1
1
1
1
1
1
1
1
1
1
1
1
1
1
1
1
1
1
1
1
1
1
1
1
1
1
1
1
1
1
1
1
1
1
1
1
1
1
1
1
1
1
1
1
1
1
1
1
1
1
1
1
1
1
1
1
1
1
1
1
1
1
1
1
1
1
1
1
1
1
1
1
1
1
1
1
1
1
1
1
1
1
1
1
1
1
1
1
1
1
1
1
1
1
1
1
1
1
1
1
1
1
1
1
1
1
1
1
1
1
1
1
1
1
1
1
1
1
1
1
1
1
1
1
1
1
1
1
1
1
1
1
1
1
1
1
1
1
1
1
1
1
1
1
1
1
1
1
1
1
1
1
1
1
1
1
1
1
1
1
1
1
1
1
1
1
1
1
1
1
1
1
1
1
1
1
0.999999
0.999999
0.999998
0.999998
0.999996
0.999993
0.999992
0.999994
0.999994
0.999996
0.999998
1
1
1
1
1
1
1
1
1
1
1
1
1
1
1
1
1
1
1
1
1
1
1
0.999998
0.999994
0.999995
0.999993
0.999993
0.999996
0.999998
0.999998
0.999999
0.999999
1
1
1
1
1
1
1
1
1
1
1
1
1
1
1
1
1
1
1
1
1
1
1
1
1
1
1
1
1
1
1
1
0.999999
0.999999
0.999997
0.999993
0.999986
0.999975
0.999961
0.999944
0.999909
0.999836
0.99979
0.999807
0.990097
0.938828
0.856632
0.77695
0.721583
0.724831
0.795768
0.916803
1
1
1
1
1
1
1
1
1
1
1
1
0.940582
0.793747
0.69535
0.660447
0.702301
0.791322
0.90007
0.97945
0.999837
0.999824
0.999847
0.999915
0.999944
0.999959
0.999974
0.999986
0.999994
0.999997
0.999999
0.999999
1
1
1
1
1
1
1
1
1
1
1
1
1
1
1
1
1
1
1
1
1
1
1
1
1
0.999999
0.999997
0.99999
0.999981
0.999964
0.99993
0.99986
0.99973
0.99953
0.999298
0.996041
0.975453
0.909641
0.804623
0.678639
0.439537
0.222942
0.0907018
0.0319046
0.0170768
0.0276043
0.101903
0.30758
0.654479
0.906495
1
1
1
1
1
1
1
1
0.924546
0.691736
0.343299
0.118837
0.0257374
0.0055967
0.0103183
0.0416886
0.142879
0.36856
0.677955
0.823721
0.92028
0.982964
0.997852
0.999286
0.999522
0.999734
0.999866
0.999932
0.999964
0.999981
0.999991
0.999997
0.999999
1
1
1
1
1
1
1
1
1
1
1
1
1
1
1
1
1
1
1
1
0.999999
0.999971
0.999792
0.998696
0.997334
0.995598
0.988539
0.970397
0.934782
0.872529
0.778706
0.664274
0.524974
0.361418
0.173689
0.0495335
0.00012155
0.000270158
0.000682857
0.000473583
0.000484424
0.000736998
0.00160818
0.00417227
0.0139753
0.236213
0.737679
0.984644
1
1
1
1
1
0.99955
0.997103
0.804528
0.30085
0.0192824
0.00481714
0.00223703
0.000747257
0.000463848
0.000435236
0.000426705
0.000342579
0.00326767
0.0569241
0.188566
0.401345
0.560603
0.678941
0.783702
0.876291
0.936062
0.968853
0.986685
0.994908
0.997416
0.998848
0.999837
0.999979
0.999998
0.999999
1
1
1
1
1
1
1
1
0.651722
0.665863
0.676636
0.688122
0.691136
0.68597
0.678435
0.671924
0.670613
0.681199
0.698534
0.702178
0.689932
0.657444
0.582416
0.478537
0.356433
0.240049
0.131753
0.0445246
8.77012e-07
1.24831e-06
1.26764e-06
1.71482e-06
6.08167e-06
3.10378e-05
0.000186885
0.000102275
0.000107515
0.000141583
0.000258079
0.000614045
0.00128319
0.00345559
0.0112882
0.280627
0.930163
1
0.999999
0.999999
1
1
1
0.979758
0.430828
0.0181817
0.00471697
0.001623
0.000666556
0.000288475
0.000180447
0.000145795
0.000120202
0.000164733
6.84652e-05
1.65184e-05
4.12749e-06
2.62324e-06
2.43894e-06
0.00254532
0.0513275
0.139809
0.247337
0.357154
0.471456
0.576901
0.656323
0.687657
0.696815
0.691105
0.677119
0.67249
0.675624
0.683617
0.691451
0.69161
0.681764
0.669136
0.65966
0.646814
0.037024
0.0463468
0.074802
0.140621
0.185181
0.17794
0.137713
0.117497
0.113682
0.144528
0.233745
0.330806
0.346853
0.186635
0.0400932
0.000583079
7.82357e-08
9.15561e-08
1.15696e-07
1.96738e-07
4.88604e-07
8.9954e-07
1.52826e-06
3.29772e-06
9.60445e-06
7.18813e-05
0.000121927
3.87855e-05
3.9369e-05
6.67975e-05
0.0001365
0.000279296
0.000535282
0.00107275
0.00307152
0.0285961
0.562601
1
0.999999
0.999998
0.999999
1
1
0.837874
0.152193
0.00501903
0.00138046
0.000465634
0.000274903
0.000183859
0.000120624
8.83578e-05
6.27825e-05
5.51873e-05
3.41154e-05
2.81639e-05
9.43691e-06
2.76358e-06
2.14453e-06
1.89871e-06
1.35636e-06
8.65438e-07
6.95853e-07
6.75645e-07
0.00122753
0.0430736
0.190456
0.337126
0.310915
0.2072
0.131951
0.124747
0.143536
0.184578
0.200666
0.162619
0.0916975
0.0539393
0.0392346
0.0336332
0.00816803
0.021602
0.0140699
0.00125138
0.0082745
0.0322895
0.0345785
0.0150748
0.00319434
2.22113e-05
1.45734e-05
-1.17795e-06
-1.01215e-06
-2.16694e-07
-7.14054e-14
9.83231e-09
4.78904e-08
1.01255e-07
1.96738e-07
1.86276e-06
1.17849e-05
1.21969e-05
3.39535e-06
6.21024e-06
1.07313e-05
6.52005e-05
7.61308e-05
1.9689e-05
2.39479e-05
3.93601e-05
6.65253e-05
0.000156178
0.000295881
0.000338607
0.000573958
0.00189195
0.116586
0.781048
0.999999
0.999999
0.999999
1
0.927165
0.251177
0.00321949
0.000756647
0.000266984
0.000163142
0.000173226
0.000148512
0.000104248
7.8458e-05
5.20407e-05
3.21833e-05
1.96568e-05
1.17205e-05
5.65128e-06
3.72492e-06
2.76358e-06
5.12319e-06
1.43452e-05
1.25244e-05
3.22271e-06
4.26186e-07
1.40843e-07
3.86822e-08
1.2554e-08
1.02848e-08
-5.85308e-08
2.26695e-05
0.00195614
0.0119765
0.0263502
0.0259054
0.00954363
0.000702489
0.00713004
0.018781
0.0116568
0.00206706
0.00263952
0.0088524
0.00643374
0.000174351
1.47267e-06
1.5711e-07
9.10041e-08
4.86232e-08
5.39806e-08
3.44871e-08
6.31076e-09
5.57035e-09
6.0337e-10
-1.28383e-24
8.79614e-09
9.78951e-08
3.51489e-07
4.10087e-07
3.84507e-07
8.23848e-07
8.49974e-06
3.00861e-05
2.65145e-05
1.27509e-05
3.58104e-05
5.53223e-05
2.24503e-05
8.57978e-06
1.46332e-05
2.39351e-05
5.5504e-05
0.000197937
0.000235097
0.000219623
0.000156277
0.000122316
0.000147135
0.0279897
0.634234
0.949217
0.975625
0.779912
0.158914
0.000103468
5.43167e-05
8.03853e-05
9.81125e-05
0.000119221
0.000128917
0.00020078
0.000231146
0.000229065
0.000229107
0.000129146
1.77151e-05
9.96078e-06
7.34221e-06
5.6513e-06
6.13537e-06
1.69916e-05
1.6912e-05
1.65943e-05
1.26261e-05
1.28767e-06
1.04706e-07
1.74981e-08
4.94185e-09
4.67799e-09
7.70231e-09
1.54138e-08
4.72267e-08
6.55395e-08
8.25787e-08
1.24643e-07
1.09094e-06
8.39873e-05
0.00249451
0.0092486
0.00407987
0.00103256
0.00153309
0.00549019
0.00389862
3.89333e-05
1.58676e-07
7.4982e-08
4.86277e-08
4.87549e-08
4.57842e-08
2.62677e-08
6.69428e-09
3.4234e-09
2.34646e-09
6.57428e-10
1.04789e-09
1.41969e-07
3.14309e-07
1.77465e-07
6.22023e-08
3.13015e-07
4.04413e-06
3.03115e-05
4.08512e-05
4.33151e-05
4.38959e-05
4.4945e-05
5.93413e-06
5.01767e-06
7.27641e-06
1.65552e-05
0.000113353
0.000324006
0.000372765
0.000156877
0.000124189
7.81661e-05
3.4161e-05
1.3036e-05
-3.52326e-06
0.0739161
0.113804
-3.60419e-08
2.26383e-06
1.08739e-05
2.91954e-05
5.9405e-05
8.21179e-05
9.86484e-05
0.000119314
0.000218044
0.000236737
0.000232085
0.000229107
0.000171192
2.54341e-05
1.30776e-05
9.96098e-06
8.40487e-06
1.69635e-05
1.73824e-05
1.72297e-05
5.42835e-06
6.70353e-08
1.14218e-07
8.97903e-08
9.71583e-09
1.47552e-09
2.78667e-09
4.73049e-09
7.72112e-09
2.92297e-08
5.70918e-08
6.55445e-08
8.27573e-08
1.31512e-07
1.61734e-05
0.000891315
0.0068378
0.00231587
0.000622951
0.00113697
0.00407575
0.00361791
6.30821e-06
9.78364e-08
9.43999e-08
7.15457e-08
6.11015e-08
9.25682e-08
5.25371e-08
1.86095e-08
-1.40732e-09
1.07101e-09
1.04547e-09
1.04789e-09
9.6435e-10
9.18757e-10
1.62139e-09
9.01702e-09
6.22002e-08
4.50786e-07
1.7836e-05
3.9818e-05
4.15891e-05
4.33151e-05
2.65359e-05
5.01767e-06
4.16205e-06
4.38468e-06
6.37769e-06
1.74486e-05
0.000189348
0.000865697
0.000848285
0.000170485
3.4766e-05
1.4955e-05
2.48891e-06
1.17793e-06
1.02419e-06
1.17804e-06
1.28328e-06
1.41933e-06
3.42697e-06
1.27071e-05
2.93306e-05
0.000116144
0.000151738
0.000230375
0.000245169
0.000243528
0.000156949
2.78064e-05
1.01306e-05
2.09211e-05
2.48826e-05
2.08718e-05
2.00859e-05
1.91189e-05
1.36592e-05
1.61877e-06
5.02228e-08
6.71487e-09
1.37155e-09
1.37512e-09
1.4908e-09
1.58031e-09
1.61419e-09
1.49147e-09
2.22171e-08
5.72493e-08
1.2692e-07
8.27732e-08
1.29162e-07
1.45162e-07
2.35501e-06
0.000441095
0.00540618
0.00160047
0.00036563
0.000688358
0.00204373
0.00229786
6.14895e-05
1.03424e-07
9.47344e-08
9.43999e-08
2.28025e-07
4.03935e-07
3.6698e-07
2.35534e-06
1.74853e-07
5.5448e-09
1.59907e-09
1.06168e-09
9.41141e-10
8.73065e-10
7.21266e-10
1.56264e-09
9.41314e-09
7.22565e-08
1.61522e-06
2.43264e-05
3.9818e-05
4.15891e-05
3.79936e-05
5.6459e-06
4.16205e-06
3.57722e-06
2.47619e-06
6.27216e-06
0.000104315
0.00101462
0.00110223
0.00109106
0.0003449
2.77217e-05
1.93185e-05
1.01168e-06
8.91256e-07
1.15758e-06
1.16201e-06
1.2541e-06
9.49209e-06
2.83644e-05
0.00034212
0.000888275
0.000981589
0.000529995
2.39735e-05
3.53964e-06
8.22068e-07
1.9728e-06
2.99269e-06
1.37443e-05
2.39271e-05
2.16266e-05
2.03398e-05
1.42577e-05
1.88573e-06
4.93548e-08
5.54851e-09
1.06088e-09
6.60012e-10
1.22812e-09
1.43432e-09
1.45812e-09
6.9279e-09
1.2844e-07
1.2784e-06
1.2574e-06
1.03698e-06
3.74926e-07
1.43978e-07
2.11672e-07
6.75155e-07
0.000805019
0.00469004
0.00107771
0.000210304
0.000250614
0.000454403
0.000484375
0.000313078
9.50704e-08
9.5864e-08
9.47344e-08
2.97931e-07
8.2149e-06
1.79518e-05
5.43774e-06
3.16719e-07
3.90095e-08
2.02235e-09
7.6253e-10
1.08856e-09
8.99955e-10
6.30188e-10
6.27644e-10
1.40651e-09
1.11643e-08
9.21797e-08
1.77002e-06
2.14116e-05
3.86946e-05
3.60111e-05
1.99883e-05
1.25146e-05
7.7787e-06
1.84466e-06
1.46972e-06
8.11042e-05
0.00100803
0.00110221
0.00110224
0.000727803
0.000339672
0.000340987
1.34659e-05
7.71753e-07
1.04742e-06
1.04349e-06
8.29221e-07
0.000179567
0.000216965
0.000956326
0.000981589
0.000983263
0.000432168
2.88218e-06
8.98547e-08
4.77453e-07
3.63385e-06
8.97923e-06
1.54218e-05
2.0885e-05
1.96422e-05
1.05634e-05
1.37306e-06
4.20806e-08
5.13561e-09
8.70847e-10
6.21638e-10
6.1776e-10
1.50366e-09
1.34959e-09
1.35944e-09
2.12638e-08
2.93645e-08
1.55349e-05
3.31897e-05
8.04958e-06
2.78108e-07
2.11672e-07
3.32152e-07
4.30803e-07
0.00244199
0.00325529
0.000801838
0.000127789
0.000112872
0.000219381
0.000174952
0.000356212
0.000127848
3.89886e-05
1.58692e-05
3.59036e-05
5.84894e-05
3.61426e-05
2.94297e-06
2.5924e-08
1.86585e-09
3.99541e-10
2.34849e-10
2.44415e-10
2.79628e-10
5.70582e-10
5.45552e-10
3.24918e-10
1.49242e-09
1.27981e-08
8.36552e-08
9.0187e-07
7.46287e-06
9.05893e-06
8.17305e-06
7.0409e-06
6.24674e-06
1.70577e-06
9.00318e-08
0.000146548
0.00110189
0.00110225
0.00109957
0.00026456
0.000415758
0.000424101
7.94761e-05
6.6487e-07
8.2205e-07
8.83233e-07
9.67491e-05
0.000774261
0.000673853
0.000475142
0.000983932
0.000981589
0.000309682
8.98512e-08
1.43198e-08
5.69495e-07
2.80423e-06
4.0455e-06
4.47536e-06
6.3798e-06
3.08645e-06
3.09914e-07
3.13466e-08
4.02971e-09
4.99772e-10
5.12785e-10
6.04791e-10
2.96253e-10
2.27611e-10
2.37481e-10
1.52592e-09
2.41441e-09
2.94527e-08
2.03523e-05
4.76719e-05
4.7758e-05
3.21686e-06
3.32152e-07
1.30368e-05
0.000489329
0.00182786
0.00105724
0.000420467
5.98337e-05
4.31265e-05
9.73685e-05
8.10397e-05
9.39728e-05
0.000135558
0.00013344
0.000118981
8.41744e-05
5.42869e-05
1.11952e-05
3.13422e-07
3.55605e-08
2.63323e-09
3.67154e-10
1.95787e-10
1.85997e-10
2.06143e-10
2.17322e-10
2.05662e-10
1.8004e-10
2.16857e-10
1.22934e-09
1.05045e-08
6.66134e-08
2.15019e-07
2.66813e-07
1.76042e-07
1.78642e-07
4.37588e-07
2.56717e-07
1.23418e-08
9.11729e-05
0.00109616
0.00110189
0.00107088
0.000267503
0.000276542
0.000426635
7.33452e-05
5.72967e-07
6.49951e-07
6.99471e-07
0.000659369
0.000778193
0.000399479
0.00040398
0.000980036
0.000982162
0.000217585
1.43354e-08
2.46973e-09
1.08011e-07
1.38815e-07
3.94609e-08
6.48354e-08
9.78752e-08
5.90249e-08
1.935e-08
3.13909e-09
3.54329e-10
1.56629e-10
2.03031e-10
2.31102e-10
1.79751e-10
1.40021e-10
1.50959e-10
3.39562e-10
3.05843e-09
4.54157e-08
4.42866e-07
1.60608e-05
8.95907e-05
0.000149823
0.000194138
0.000412603
0.000545569
0.000232567
0.000151979
5.16177e-05
2.17035e-05
1.37794e-05
3.86299e-05
3.33383e-05
1.69418e-05
4.05321e-05
4.8964e-05
4.31305e-05
2.92065e-05
6.81912e-06
1.19684e-07
2.50088e-08
4.34673e-09
8.62329e-10
2.40649e-10
1.77273e-10
1.75727e-10
1.79863e-10
1.51917e-10
1.33786e-10
1.19584e-10
9.72014e-11
1.66202e-10
1.10623e-09
7.95294e-09
2.85661e-08
3.80681e-08
2.6299e-08
1.48865e-08
8.9316e-09
4.23032e-09
2.16857e-09
1.22753e-08
0.000813724
0.00109519
0.000859789
0.000266269
0.00032149
0.000425315
6.22952e-05
4.96254e-07
4.7899e-07
5.39668e-07
0.000772591
0.000778193
0.000393535
0.000524707
0.000971485
0.00098128
7.65588e-05
2.47029e-09
4.29625e-10
1.12327e-09
2.15711e-09
4.21415e-09
7.19008e-09
1.0544e-08
6.03481e-09
1.77765e-09
2.77155e-10
8.28448e-11
1.14782e-10
1.29539e-10
1.41675e-10
1.5342e-10
1.17802e-10
1.27412e-10
3.17767e-10
2.24107e-09
1.74586e-08
1.06771e-07
4.60486e-07
3.32645e-05
9.48794e-05
0.000143922
0.000181824
0.000182565
5.27855e-05
6.15615e-05
2.17078e-05
7.77158e-06
3.70516e-06
1.32526e-05
1.16149e-05
6.40297e-06
3.03612e-06
1.53694e-06
8.48579e-07
8.72614e-07
2.67966e-07
1.88986e-08
4.08298e-09
7.45194e-10
3.05872e-10
1.95932e-10
1.68712e-10
1.23486e-10
9.52677e-11
8.58353e-11
7.57333e-11
6.63308e-11
6.22888e-11
5.43911e-11
1.14753e-10
7.99309e-10
3.08209e-09
4.42137e-09
3.52362e-09
2.22194e-09
1.28118e-09
6.58251e-10
3.77332e-10
2.16836e-09
0.000439007
0.00105578
0.000250263
0.000361945
0.000425315
0.000426385
7.89517e-05
4.41089e-07
3.89501e-07
4.44124e-07
0.000290379
0.000778193
0.000394493
0.000936135
0.000957993
0.000481126
4.96051e-09
4.29555e-10
8.43691e-11
2.20566e-10
2.86387e-10
5.48201e-10
8.14606e-10
9.36092e-10
5.15392e-10
1.50264e-10
5.29997e-11
5.86272e-11
6.41431e-11
7.34976e-11
8.68163e-11
9.90115e-11
1.10501e-10
1.07009e-10
1.43358e-10
3.3449e-10
2.54701e-09
1.07922e-08
7.93565e-08
9.54488e-07
6.32777e-06
9.33849e-06
6.24585e-06
1.145e-05
2.01687e-05
2.21302e-05
7.77566e-06
2.34738e-06
8.55119e-07
3.70445e-06
3.24763e-06
2.20044e-06
9.13771e-07
4.07909e-07
1.63325e-07
8.66304e-08
5.38031e-08
7.73524e-09
9.4875e-10
4.84958e-10
3.88099e-10
2.85605e-10
1.36934e-10
6.10399e-11
4.60988e-11
4.08194e-11
3.45873e-11
2.84963e-11
2.79244e-11
3.21243e-11
3.25999e-11
8.19055e-11
2.79139e-10
4.41706e-10
4.61871e-10
3.97445e-10
2.39254e-10
1.23928e-10
7.12376e-11
3.88106e-10
7.21675e-05
0.000232256
1.67415e-05
0.000323175
0.000421565
0.000425315
3.69014e-05
2.88794e-07
3.18725e-07
1.78014e-06
3.4856e-05
0.000774066
0.000614578
0.000917379
0.00077371
5.15782e-05
-2.27805e-10
7.70245e-11
2.93607e-11
1.12654e-10
1.14868e-10
1.19913e-10
1.1704e-10
1.03046e-10
5.73169e-11
2.97433e-11
3.09145e-11
2.88439e-11
2.72664e-11
3.40953e-11
4.13133e-11
4.87663e-11
6.58899e-11
1.00051e-10
1.25401e-10
2.06234e-10
2.65793e-10
2.22101e-09
1.08781e-08
2.09921e-07
4.76473e-07
6.4566e-07
1.79633e-06
3.6549e-06
6.17657e-06
7.0606e-06
2.34925e-06
6.0333e-07
1.73007e-07
8.55222e-07
8.59439e-07
5.48949e-07
2.35253e-07
9.86763e-08
3.58824e-08
1.31697e-08
5.83331e-09
2.05877e-09
8.22555e-10
5.00966e-10
2.81131e-10
1.22272e-10
4.49282e-11
2.22499e-11
1.69992e-11
1.42844e-11
1.14368e-11
8.60497e-12
8.67226e-12
1.08551e-11
1.46379e-11
1.63775e-11
3.37087e-11
5.89171e-11
6.78584e-11
7.41565e-11
1.29385e-10
5.80907e-11
2.1279e-11
7.13941e-11
1.75391e-08
2.68027e-07
1.52765e-07
2.06508e-05
0.000391991
0.00029066
8.07796e-06
8.14839e-08
2.60131e-07
2.81436e-07
7.49235e-05
0.000753445
0.000698986
0.000452223
2.44819e-05
6.53222e-08
9.02251e-11
1.21572e-11
2.32962e-11
8.61443e-11
8.84534e-11
6.90527e-11
3.78054e-11
1.98776e-11
1.50347e-11
1.41999e-11
1.12903e-11
9.12552e-12
8.45187e-12
1.1491e-11
1.46704e-11
1.77821e-11
2.36426e-11
4.54645e-11
1.08174e-10
1.88484e-10
2.55478e-10
4.72488e-10
2.83255e-09
2.03916e-08
5.02787e-08
1.49671e-07
4.36633e-07
9.53435e-07
1.58978e-06
2.00373e-06
6.03878e-07
1.34452e-07
3.11876e-08
1.7306e-07
2.02007e-07
1.16825e-07
4.7469e-08
1.86716e-08
6.58592e-09
2.0202e-09
9.59715e-10
6.68665e-10
4.18994e-10
2.27839e-10
1.0164e-10
3.49871e-11
1.16099e-11
5.97939e-12
4.36064e-12
3.37037e-12
2.52446e-12
1.76009e-12
1.7646e-12
2.1614e-12
3.39765e-12
5.24592e-12
7.15777e-12
1.29042e-11
2.54689e-11
4.22443e-11
6.869e-11
5.7688e-11
1.24979e-11
1.98304e-11
1.72334e-09
5.98099e-07
1.33045e-07
1.19645e-08
1.58051e-05
4.50306e-10
1.26879e-06
3.54076e-09
6.76985e-08
1.02278e-07
3.4013e-05
0.000199243
0.000362926
3.70826e-09
9.02669e-09
6.82181e-09
1.41616e-11
5.71897e-12
1.97085e-11
4.62394e-11
4.7649e-11
3.03118e-11
1.61546e-11
9.32731e-12
5.57718e-12
3.57707e-12
2.3438e-12
1.86612e-12
1.77851e-12
2.58791e-12
3.52616e-12
4.61392e-12
6.54872e-12
1.33313e-11
3.85764e-11
1.01281e-10
1.94121e-10
2.79044e-10
5.04968e-10
1.64791e-09
6.00296e-09
2.42371e-08
7.6877e-08
1.94762e-07
3.61147e-07
5.0333e-07
1.3465e-07
2.65091e-08
5.07572e-09
3.11899e-08
4.16592e-08
2.20311e-08
8.73531e-09
3.37878e-09
1.25862e-09
6.09768e-10
4.53038e-10
3.00157e-10
1.61136e-10
7.10296e-11
2.43524e-11
6.6467e-12
2.07759e-12
1.08372e-12
7.50843e-13
5.44057e-13
3.8886e-13
2.62159e-13
2.36848e-13
2.74144e-13
4.17363e-13
7.94104e-13
1.47767e-12
3.02754e-12
6.49811e-12
1.34429e-11
2.82809e-11
2.85934e-11
1.10753e-11
8.59077e-12
1.09149e-10
6.55313e-08
7.20166e-08
5.83144e-09
3.60401e-10
1.22947e-10
2.63961e-08
1.55032e-09
3.03337e-09
8.69957e-13
3.83478e-07
1.01693e-10
2.58821e-10
2.66506e-09
1.05483e-08
2.74497e-10
4.54222e-12
4.89455e-12
1.42018e-11
1.98433e-11
1.68418e-11
7.33219e-12
3.45474e-12
1.79796e-12
8.8099e-13
4.60289e-13
3.02884e-13
2.60502e-13
2.6376e-13
4.09088e-13
5.82556e-13
8.17863e-13
1.23925e-12
2.71589e-12
9.6943e-12
3.35137e-11
8.40484e-11
1.51923e-10
2.07777e-10
2.8104e-10
9.3306e-10
3.61421e-09
1.21104e-08
3.52518e-08
7.29557e-08
1.11752e-07
2.65352e-08
4.71396e-09
7.57197e-10
5.07572e-09
7.59858e-09
3.89759e-09
1.59768e-09
6.62487e-10
3.46983e-10
2.80842e-10
1.8895e-10
9.77222e-11
4.2428e-11
1.48942e-11
4.07449e-12
9.49518e-13
2.78307e-13
1.40422e-13
9.51856e-14
6.79703e-14
4.77534e-14
3.20388e-14
2.4576e-14
2.59745e-14
3.4328e-14
6.08997e-14
1.34408e-13
3.1552e-13
7.67325e-13
2.17431e-12
8.24747e-12
1.24067e-11
9.36895e-12
5.81743e-12
5.65191e-12
3.96243e-09
4.37258e-09
2.20658e-09
3.36094e-11
5.60404e-11
3.15495e-10
5.56746e-10
8.65378e-13
0
8.70299e-13
1.40677e-11
3.15949e-10
3.31494e-09
3.83214e-09
9.62588e-12
2.47149e-12
4.70559e-12
7.28777e-12
7.08683e-12
2.97378e-12
9.67322e-13
3.71438e-13
1.57891e-13
7.09065e-14
3.92581e-14
2.94449e-14
2.77197e-14
3.31014e-14
5.19308e-14
7.49789e-14
1.08123e-13
1.71568e-13
4.06184e-13
1.68819e-12
7.51269e-12
2.48886e-11
5.96181e-11
1.02884e-10
1.28011e-10
2.00042e-10
5.91071e-10
2.026e-09
5.89182e-09
1.33073e-08
2.1975e-08
4.71396e-09
7.69981e-10
1.36015e-10
7.57197e-10
1.24434e-09
7.20349e-10
3.08967e-10
1.94517e-10
1.48186e-10
9.51327e-11
4.73224e-11
2.03054e-11
7.39828e-12
2.2119e-12
5.40696e-13
1.17845e-13
3.20012e-14
1.52625e-14
1.02833e-14
7.43044e-15
5.24825e-15
3.5463e-15
2.41563e-15
2.35145e-15
2.60106e-15
3.69508e-15
7.03073e-15
1.70234e-14
5.25996e-14
2.54981e-13
1.58082e-12
4.92219e-12
6.18269e-12
5.93724e-12
5.62141e-12
5.65191e-12
5.7473e-12
5.9044e-12
2.62282e-11
5.64603e-11
1.05355e-10
6.28722e-11
-1.46237e-12
-4.44881e-12
-1.61995e-14
4.49515e-12
2.67097e-10
5.89374e-10
4.44949e-10
7.06457e-12
2.26364e-12
3.49373e-12
3.7196e-12
1.72444e-12
2.91478e-13
6.9308e-14
2.21762e-14
9.10449e-15
4.59838e-15
3.11386e-15
2.76029e-15
2.7743e-15
3.84495e-15
5.93581e-15
8.54848e-15
1.22978e-14
2.00679e-14
5.20075e-14
2.37507e-13
1.19257e-12
4.82236e-12
1.47592e-11
3.53636e-11
6.61756e-11
9.34538e-11
1.32349e-10
3.47506e-10
1.07816e-09
2.34346e-09
3.85848e-09
7.69981e-10
1.51289e-10
2.81425e-11
1.35852e-10
2.31816e-10
1.35939e-10
9.73975e-11
6.71413e-11
3.90704e-11
1.81603e-11
7.64558e-12
2.88236e-12
9.4548e-13
2.6425e-13
6.24779e-14
1.32669e-14
3.38738e-15
1.52829e-15
1.02459e-15
7.51257e-16
5.37826e-16
3.66955e-16
2.3974e-16
2.16235e-16
2.201e-16
2.58052e-16
3.78537e-16
8.5508e-16
4.53968e-15
3.78639e-14
3.52587e-13
1.70295e-12
3.90243e-12
5.26658e-12
5.59244e-12
5.85628e-12
7.91989e-12
2.02609e-11
4.33712e-11
9.90197e-11
1.12487e-10
1.16234e-10
3.31893e-06
-1.38825e-11
-1.5517e-11
-1.13501e-12
1.84695e-11
4.61571e-11
2.84187e-11
2.36914e-12
1.95518e-12
2.33711e-12
1.86934e-12
5.18403e-13
4.56845e-14
4.67139e-15
1.13671e-15
5.38472e-16
3.44682e-16
2.77213e-16
2.65678e-16
2.82554e-16
4.17658e-16
6.32951e-16
9.03388e-16
1.29189e-15
2.16876e-15
6.11866e-15
2.94836e-14
1.52501e-13
6.6697e-13
2.37676e-12
7.03326e-12
1.80048e-11
3.91088e-11
6.71939e-11
9.9813e-11
2.03778e-10
4.44041e-10
6.23267e-10
1.53203e-10
3.55099e-11
5.46038e-12
2.70408e-11
4.48631e-11
4.04532e-11
2.55317e-11
1.28197e-11
5.68717e-12
2.38507e-12
9.28275e-13
3.2731e-13
1.02435e-13
2.78556e-14
6.49228e-15
1.36012e-15
3.3381e-16
1.43609e-16
9.50883e-17
7.01357e-17
5.06723e-17
3.47702e-17
2.27076e-17
1.89441e-17
1.89146e-17
2.05192e-17
2.91435e-17
1.14566e-16
1.28074e-15
1.20858e-14
1.44439e-13
8.67595e-13
2.61396e-12
4.71447e-12
5.81823e-12
6.82968e-12
1.00653e-11
1.96905e-11
7.04126e-11
3.97431e-10
1.28467e-10
1.41195e-10
1.53118e-05
-1.87021e-11
-1.6919e-11
-1.45856e-11
-6.58607e-12
9.78303e-13
1.18566e-12
1.32001e-12
1.37096e-12
1.31292e-12
7.45764e-13
1.79801e-13
1.95412e-14
9.50446e-16
1.15264e-16
4.12958e-17
2.88741e-17
2.50334e-17
2.44845e-17
2.76084e-17
4.14044e-17
6.19808e-17
8.77927e-17
1.25436e-16
2.17249e-16
6.57499e-16
3.285e-15
1.71643e-14
7.68373e-14
2.89785e-13
9.488e-13
2.78762e-12
7.62545e-12
1.91022e-11
3.82281e-11
6.42607e-11
8.15749e-11
1.16351e-10
3.27702e-11
7.36162e-12
6.68317e-13
1.18666e-11
1.11345e-11
7.67491e-12
3.49889e-12
1.50084e-12
6.38529e-13
2.59072e-13
9.72854e-14
3.31152e-14
1.00426e-14
2.66391e-15
6.11009e-16
1.26495e-16
3.01602e-17
1.2437e-17
8.08213e-18
5.94463e-18
4.30251e-18
2.95286e-18
1.93561e-18
1.51228e-18
1.48556e-18
1.67781e-18
4.44599e-18
4.66938e-17
6.64928e-16
6.22858e-15
7.54303e-14
4.8086e-13
1.673e-12
3.79568e-12
5.72149e-12
6.78618e-12
8.59643e-12
2.66559e-11
5.13403e-10
1.16006e-09
1.56137e-10
2.30251e-10
1.75253e-05
-2.02942e-12
3.21479e-12
3.73721e-12
1.96655e-12
1.9885e-12
1.46084e-12
1.20821e-12
1.02987e-12
6.72175e-13
2.96621e-13
7.50899e-14
1.01053e-14
4.32459e-16
3.5528e-17
4.69747e-18
2.33155e-18
2.05651e-18
2.04412e-18
2.43758e-18
3.67103e-18
5.46484e-18
7.71676e-18
1.1062e-17
1.97332e-17
6.32262e-17
3.26241e-16
1.73482e-15
7.94977e-15
3.09424e-14
1.05404e-13
3.25464e-13
9.40456e-13
2.62071e-12
7.02231e-12
1.56797e-11
2.39994e-11
2.60152e-11
1.89473e-11
9.90065e-13
6.22849e-14
2.30469e-12
1.59221e-12
8.27165e-13
3.56934e-13
1.52336e-13
6.38654e-14
2.53293e-14
9.2478e-15
3.05174e-15
8.97426e-16
2.31897e-16
5.22445e-17
1.06675e-17
2.47304e-18
9.78622e-19
6.22142e-19
4.54026e-19
3.27396e-19
2.23835e-19
1.45684e-19
1.08413e-19
1.10862e-19
2.22203e-19
2.08974e-18
3.15618e-17
4.44383e-16
4.11152e-15
4.54846e-14
2.95867e-13
1.18119e-12
3.38346e-12
6.09928e-12
6.83521e-12
6.67421e-12
2.30782e-10
1.50391e-09
1.71815e-09
1.67196e-10
9.33251e-08
1.78804e-05
0
1.0807e-11
1.62261e-11
3.47566e-12
2.91256e-12
2.3497e-12
1.58366e-12
9.5639e-13
5.0335e-13
1.65308e-13
3.69473e-14
4.85021e-15
2.7451e-16
2.19838e-17
1.53932e-18
2.35371e-19
1.5322e-19
1.51836e-19
1.91284e-19
2.89887e-19
4.3138e-19
6.0969e-19
8.78005e-19
1.60361e-18
5.38187e-18
2.87168e-17
1.56733e-16
7.41395e-16
2.9942e-15
1.05699e-14
3.36002e-14
9.90763e-14
2.78752e-13
7.66271e-13
1.99206e-12
4.12821e-12
5.01796e-12
4.96329e-12
1.02502e-13
5.38604e-15
1.92433e-13
1.50685e-13
7.79042e-14
3.35185e-14
1.41648e-14
5.82779e-15
2.25375e-15
7.99233e-16
2.55807e-16
7.30514e-17
1.8407e-17
4.07038e-18
8.17648e-19
1.83933e-19
6.97757e-20
4.33264e-20
3.12944e-20
2.24213e-20
1.51989e-20
9.45146e-21
7.67052e-21
1.20158e-20
1.00757e-19
1.59408e-18
2.46051e-17
3.3384e-16
3.06072e-15
3.29083e-14
2.28335e-13
1.05544e-12
3.71887e-12
6.32912e-12
6.57024e-12
6.54891e-12
5.89628e-10
1.87949e-09
1.8659e-09
1.13786e-10
5.56296e-06
1.80168e-05
7.34809e-13
1.34144e-11
3.09628e-11
6.2485e-12
3.85959e-12
3.37365e-12
2.42361e-12
1.31245e-12
5.12641e-13
1.3227e-13
2.13045e-14
2.34645e-15
2.02913e-16
1.6201e-17
1.04651e-18
7.04994e-20
1.31753e-20
1.04989e-20
1.31152e-20
2.04768e-20
3.05641e-20
4.33609e-20
6.27311e-20
1.16406e-19
4.05167e-19
2.23895e-18
1.26092e-17
6.18292e-17
2.60266e-16
9.58105e-16
3.15694e-15
9.54332e-15
2.71847e-14
7.4888e-14
1.95649e-13
4.15413e-13
5.99214e-13
4.38967e-13
9.73005e-15
4.27105e-16
1.76241e-14
1.34052e-14
6.76312e-15
2.87813e-15
1.19933e-15
4.83348e-16
1.82228e-16
6.28252e-17
1.95372e-17
5.42861e-18
1.33518e-18
2.89541e-19
5.70929e-20
1.2442e-20
4.51829e-21
2.73605e-21
1.95277e-21
1.39016e-21
9.0687e-22
5.65713e-22
6.78101e-22
4.29106e-21
7.44462e-20
1.24714e-18
1.89341e-17
2.50906e-16
2.26094e-15
2.41795e-14
1.80655e-13
8.85926e-13
2.84908e-12
5.77804e-12
6.09914e-12
8.64596e-12
5.18869e-10
1.77944e-09
1.19394e-09
9.57404e-11
1.48951e-05
1.80762e-05
5.26024e-12
1.3639e-11
4.28473e-11
1.33216e-11
4.24804e-12
3.6538e-12
2.81015e-12
1.53227e-12
5.69174e-13
1.27671e-13
1.6487e-14
1.32302e-15
1.4819e-16
1.15904e-17
7.67499e-19
4.54692e-20
2.89817e-21
8.03567e-22
7.84304e-22
1.28357e-21
1.95317e-21
2.78338e-21
4.04381e-21
7.56455e-21
2.70778e-20
1.55233e-19
9.0552e-19
4.61171e-18
2.02552e-17
7.79292e-17
2.67388e-16
8.34171e-16
2.42416e-15
6.75209e-15
1.78466e-14
3.84784e-14
5.58888e-14
4.36848e-14
8.43842e-16
3.09891e-17
1.48923e-15
1.0944e-15
5.3554e-16
2.24933e-16
9.23755e-17
3.64856e-17
1.34265e-17
4.50741e-18
1.36411e-18
3.69206e-19
8.86507e-20
1.88274e-20
3.63625e-21
7.66657e-22
2.66294e-22
1.56989e-22
1.10695e-22
7.77682e-23
4.57771e-23
3.98766e-23
1.38836e-22
2.60974e-21
5.02501e-20
8.33541e-19
1.25179e-17
1.65713e-16
1.4622e-15
1.49879e-14
1.07503e-13
5.00096e-13
1.71999e-12
3.81257e-12
5.40901e-12
2.79671e-11
8.39416e-11
4.76032e-10
2.1319e-10
5.84281e-11
1.71655e-05
1.81596e-05
1.18475e-11
1.41495e-11
4.58209e-11
2.31694e-11
4.51399e-12
3.23424e-12
2.49015e-12
1.37186e-12
4.95552e-13
1.05935e-13
1.22752e-14
7.32284e-16
9.13977e-17
6.96313e-18
4.72794e-19
2.84916e-20
1.46088e-21
9.97638e-23
4.97255e-23
6.87008e-23
1.12841e-22
1.61645e-22
2.35446e-22
4.40491e-22
1.61066e-21
9.60973e-21
5.83167e-20
3.0918e-19
1.41774e-18
5.70248e-18
2.04019e-17
6.58624e-17
1.95999e-16
5.54549e-16
1.48986e-15
3.28243e-15
4.85827e-15
4.03605e-15
6.67309e-17
2.06104e-18
1.1491e-16
8.15915e-17
3.8714e-17
1.60459e-17
6.49522e-18
2.51595e-18
9.04666e-19
2.96086e-19
8.72884e-20
2.30211e-20
5.39362e-21
1.11996e-21
2.11374e-22
4.30525e-23
1.42975e-23
8.19421e-24
5.71837e-24
3.83527e-24
2.31279e-24
3.5992e-24
5.39051e-23
1.2683e-21
2.43019e-20
4.03993e-19
6.10662e-18
8.27447e-17
7.67814e-16
6.72734e-15
4.67039e-14
2.42424e-13
8.86111e-13
2.16416e-12
5.0994e-12
8.61899e-12
1.92468e-11
1.92699e-11
1.92868e-11
1.93208e-11
1.3368e-05
1.86444e-05
1.47756e-11
1.44598e-11
4.57138e-11
2.64761e-11
5.97715e-12
2.7277e-12
1.44677e-12
6.30214e-13
2.07873e-13
4.24279e-14
4.91069e-15
3.40977e-16
4.20902e-17
3.07579e-18
2.09667e-19
1.281e-20
6.63988e-22
2.87403e-23
3.63243e-24
3.28865e-24
5.8106e-24
8.51916e-24
1.2391e-23
2.29973e-23
8.52835e-23
5.32013e-22
3.37849e-21
1.87128e-20
8.97148e-20
3.77443e-19
1.40897e-18
4.71351e-18
1.43931e-17
4.14409e-17
1.13302e-16
2.55445e-16
3.85971e-16
3.39458e-16
4.81943e-18
1.25878e-19
8.11586e-18
5.56686e-18
2.56273e-18
1.04817e-18
4.18223e-19
1.58962e-19
5.58896e-20
1.78462e-20
5.12749e-21
1.31757e-21
3.00933e-22
6.09765e-23
1.12182e-23
2.204e-24
6.99399e-25
3.90115e-25
2.67943e-25
1.59618e-25
1.44208e-25