/*--------------------------------*- C++ -*----------------------------------*\
| =========                 |                                                 |
| \\      /  F ield         | OpenFOAM: The Open Source CFD Toolbox           |
|  \\    /   O peration     | Version:  2412                                  |
|   \\  /    A nd           | Website:  www.openfoam.com                      |
|    \\/     M anipulation  |                                                 |
\*---------------------------------------------------------------------------*/
FoamFile
{
    version     2.0;
    format      ascii;
    arch        "LSB;label=32;scalar=64";
    class       surfaceScalarField;
    location    "6.55";
    object      alphaPhi0.molasses;
}
// * * * * * * * * * * * * * * * * * * * * * * * * * * * * * * * * * * * * * //

dimensions      [0 3 -1 0 0 0 0];

oriented        oriented;

internalField   nonuniform List<scalar> 
12640
(
-1.65932e-09
1.66048e-09
-4.66215e-09
3.70264e-09
-8.55956e-09
4.57327e-09
-1.2869e-08
4.94929e-09
-1.73303e-08
5.13721e-09
-2.19065e-08
5.26353e-09
-2.65839e-08
5.38674e-09
-3.13666e-08
5.52591e-09
-3.62919e-08
5.68661e-09
-4.13963e-08
5.87458e-09
-4.6719e-08
6.08835e-09
-5.23086e-08
6.31852e-09
-5.82121e-08
6.55512e-09
-6.44657e-08
6.79072e-09
-7.10941e-08
7.01802e-09
-7.81121e-08
7.22688e-09
-8.55198e-08
7.40382e-09
-9.32942e-08
7.533e-09
-1.01381e-07
7.59688e-09
-1.09689e-07
7.57604e-09
-1.18089e-07
7.4489e-09
-1.26411e-07
7.19196e-09
-1.34448e-07
6.78093e-09
-1.41953e-07
6.19233e-09
-1.48649e-07
5.4049e-09
-1.54234e-07
4.40051e-09
-1.58397e-07
3.16448e-09
-1.60823e-07
1.68586e-09
-1.61212e-07
-4.18164e-11
-1.59291e-07
-2.0179e-09
-1.54825e-07
-4.23163e-09
-1.47634e-07
-6.65671e-09
-1.37607e-07
-9.24676e-09
-1.24717e-07
-1.19319e-08
-1.09041e-07
-1.46179e-08
-9.07721e-08
-1.71896e-08
-7.02249e-08
-1.9518e-08
-4.78363e-08
-2.14708e-08
-2.41513e-08
-2.2926e-08
2.01994e-10
-2.37852e-08
2.45474e-08
-2.39863e-08
4.82035e-08
-2.35121e-08
7.05266e-08
-2.2391e-08
9.09497e-08
-2.06926e-08
1.09014e-07
-1.85206e-08
1.24389e-07
-1.59999e-08
1.36874e-07
-1.32542e-08
1.46403e-07
-1.03944e-08
1.53054e-07
-7.53422e-09
1.56995e-07
-4.77834e-09
1.5844e-07
-2.15419e-09
1.57714e-07
3.78869e-10
1.5532e-07
2.80414e-09
1.51774e-07
4.99953e-09
1.47446e-07
6.80927e-09
1.42527e-07
8.09114e-09
1.36972e-07
8.73871e-09
1.30569e-07
8.74692e-09
1.23122e-07
8.26457e-09
1.14627e-07
7.55152e-09
1.05357e-07
6.86795e-09
9.58025e-08
6.3797e-09
8.64982e-08
6.13015e-09
7.78454e-08
6.07163e-09
7.00248e-08
6.11786e-09
6.30211e-08
6.18471e-09
5.67054e-08
6.21113e-09
5.09177e-08
6.16789e-09
4.55177e-08
6.0583e-09
4.04015e-08
5.90968e-09
3.54949e-08
5.75674e-09
3.07419e-08
5.62473e-09
2.60985e-08
5.52076e-09
2.15353e-08
5.4355e-09
1.70433e-08
5.34939e-09
1.2642e-08
5.23654e-09
8.39754e-09
5.05292e-09
4.4806e-09
4.6974e-09
1.34307e-09
3.89614e-09
2.04733e-09
-3.46695e-09
5.85942e-09
-9.73745e-09
1.13432e-08
-1.74984e-08
1.36889e-08
-2.60473e-08
1.47953e-08
-3.49744e-08
1.54233e-08
-4.41757e-08
1.58771e-08
-5.36279e-08
1.6287e-08
-6.33337e-08
1.67177e-08
-7.33376e-08
1.71939e-08
-8.36994e-08
1.77162e-08
-9.44879e-08
1.82742e-08
-1.05777e-07
1.88539e-08
-1.17636e-07
1.94402e-08
-1.30117e-07
2.00152e-08
-1.43259e-07
2.05572e-08
-1.57075e-07
2.10399e-08
-1.71551e-07
2.1432e-08
-1.86623e-07
2.1698e-08
-2.02176e-07
2.17963e-08
-2.18034e-07
2.16796e-08
-2.33957e-07
2.1294e-08
-2.49641e-07
2.05802e-08
-2.64715e-07
1.94736e-08
-2.78749e-07
1.79061e-08
-2.91252e-07
1.58056e-08
-3.01688e-07
1.30982e-08
-3.09484e-07
9.71005e-09
-3.14052e-07
5.57293e-09
-3.14805e-07
6.33676e-10
-3.11185e-07
-5.13268e-09
-3.02693e-07
-1.1707e-08
-2.88922e-07
-1.90092e-08
-2.69602e-07
-2.68852e-08
-2.44637e-07
-3.50996e-08
-2.14145e-07
-4.33393e-08
-1.7849e-07
-5.12289e-08
-1.38286e-07
-5.83564e-08
-9.44021e-08
-6.43096e-08
-4.79213e-08
-6.87159e-08
-9.44555e-11
-7.12835e-08
4.77355e-08
-7.18365e-08
9.42192e-08
-7.03363e-08
1.38088e-07
-6.68842e-08
1.78231e-07
-6.17028e-08
2.13756e-07
-5.5105e-08
2.44022e-07
-4.74535e-08
2.68648e-07
-3.91177e-08
2.87523e-07
-3.04453e-08
3.00801e-07
-2.17415e-08
3.08841e-07
-1.32324e-08
3.12086e-07
-5.05972e-09
3.11085e-07
2.61499e-09
3.06599e-07
9.50751e-09
2.99428e-07
1.52421e-08
2.90203e-07
1.94697e-08
2.79384e-07
2.19967e-08
2.67235e-07
2.28851e-08
2.53819e-07
2.24895e-08
2.3912e-07
2.13854e-08
2.2324e-07
2.0181e-08
2.06524e-07
1.93108e-08
1.89532e-07
1.89312e-08
1.72874e-07
1.89578e-08
1.57032e-07
1.9186e-08
1.42267e-07
1.94091e-08
1.2862e-07
1.94874e-08
1.15983e-07
1.93657e-08
1.04182e-07
1.90585e-08
9.30426e-08
1.86224e-08
8.24301e-08
1.81268e-08
7.22484e-08
1.76313e-08
6.24279e-08
1.71729e-08
5.29117e-08
1.6763e-08
4.36535e-08
1.63913e-08
3.46276e-08
1.60271e-08
2.58541e-08
1.56087e-08
1.74458e-08
1.50051e-08
9.72477e-09
1.39138e-08
3.43914e-09
1.16094e-08
6.15188e-09
-4.20125e-09
1.07435e-08
-1.18751e-08
2.02625e-08
-2.12717e-08
2.43232e-08
-3.15638e-08
2.63111e-08
-4.23417e-08
2.74701e-08
-5.3481e-08
2.83238e-08
-6.49428e-08
2.91026e-08
-7.67361e-08
2.991e-08
-8.89166e-08
3.07844e-08
-1.01554e-07
3.1731e-08
-1.14722e-07
3.2739e-08
-1.28503e-07
3.37898e-08
-1.42971e-07
3.48584e-08
-1.58184e-07
3.59137e-08
-1.74184e-07
3.69178e-08
-1.90983e-07
3.78253e-08
-2.08556e-07
3.85833e-08
-2.26829e-07
3.91295e-08
-2.45665e-07
3.93916e-08
-2.64859e-07
3.92862e-08
-2.84133e-07
3.87182e-08
-3.03136e-07
3.75811e-08
-3.21439e-07
3.5756e-08
-3.38539e-07
3.31112e-08
-3.53866e-07
2.95022e-08
-3.66785e-07
2.47735e-08
-3.76613e-07
1.87664e-08
-3.82634e-07
1.13316e-08
-3.84117e-07
2.35086e-09
-3.80349e-07
-8.2346e-09
-3.70671e-07
-2.03919e-08
-3.54526e-07
-3.39642e-08
-3.31514e-07
-4.86463e-08
-3.01454e-07
-6.39745e-08
-2.64439e-07
-7.93366e-08
-2.20874e-07
-9.40051e-08
-1.71504e-07
-1.07192e-07
-1.17404e-07
-1.18116e-07
-5.99445e-08
-1.26084e-07
-7.19488e-10
-1.30561e-07
5.85504e-08
-1.31243e-07
1.16135e-07
-1.28086e-07
1.70413e-07
-1.21312e-07
2.1998e-07
-1.11368e-07
2.63729e-07
-9.88745e-08
3.00882e-07
-8.45438e-08
3.30988e-07
-6.90853e-08
3.53944e-07
-5.31796e-08
3.70009e-07
-3.74926e-08
3.79661e-07
-2.25762e-08
3.83382e-07
-8.73891e-09
3.81711e-07
3.82156e-09
3.75436e-07
1.48292e-08
3.65484e-07
2.39766e-08
3.52746e-07
3.10271e-08
3.38047e-07
3.58492e-08
3.22048e-07
3.8487e-08
3.05124e-07
3.92753e-08
2.87367e-07
3.88346e-08
2.68774e-07
3.78804e-08
2.49472e-07
3.69792e-08
2.29826e-07
3.64082e-08
2.10354e-07
3.61669e-08
1.91557e-07
3.60904e-08
1.73774e-07
3.59803e-08
1.57141e-07
3.56937e-08
1.41623e-07
3.51755e-08
1.27086e-07
3.44465e-08
1.13371e-07
3.35736e-08
1.00331e-07
3.26372e-08
8.78523e-08
3.17074e-08
7.58427e-08
3.08305e-08
6.42291e-08
3.00248e-08
5.29565e-08
2.92804e-08
4.19981e-08
2.85529e-08
3.13797e-08
2.7739e-08
2.12357e-08
2.66099e-08
1.19237e-08
2.46447e-08
4.27337e-09
2.06096e-08
1.10445e-08
-4.47674e-09
1.58718e-08
-1.27231e-08
2.97364e-08
-2.28212e-08
3.56108e-08
-3.38501e-08
3.8521e-08
-4.53966e-08
4.02505e-08
-5.73379e-08
4.15441e-08
-6.96394e-08
4.27305e-08
-8.23196e-08
4.39566e-08
-9.54416e-08
4.52798e-08
-1.0908e-07
4.6712e-08
-1.23316e-07
4.82423e-08
-1.38235e-07
4.9846e-08
-1.53918e-07
5.1489e-08
-1.70431e-07
5.31278e-08
-1.87819e-07
5.47088e-08
-2.06098e-07
5.6168e-08
-2.25247e-07
5.7429e-08
-2.45192e-07
5.8402e-08
-2.65796e-07
5.89816e-08
-2.8685e-07
5.90453e-08
-3.08066e-07
5.84521e-08
-3.29081e-07
5.70396e-08
-3.49449e-07
5.46214e-08
-3.68645e-07
5.09844e-08
-3.86068e-07
4.58881e-08
-4.01042e-07
3.9069e-08
-4.12824e-07
3.02535e-08
-4.20615e-07
1.91824e-08
-4.23574e-07
5.64768e-09
-4.20849e-07
-1.04594e-08
-4.11618e-07
-2.90942e-08
-3.95152e-07
-5.00064e-08
-3.7088e-07
-7.27011e-08
-3.3848e-07
-9.6425e-08
-2.9795e-07
-1.20188e-07
-2.49677e-07
-1.4282e-07
-1.94472e-07
-1.63067e-07
-1.33567e-07
-1.797e-07
-6.8578e-08
-1.91637e-07
-1.41851e-09
-1.98061e-07
6.58329e-08
-1.98528e-07
1.31087e-07
-1.93023e-07
1.924e-07
-1.81955e-07
2.48106e-07
-1.66083e-07
2.96938e-07
-1.46434e-07
3.38059e-07
-1.2419e-07
3.70984e-07
-1.00522e-07
3.95616e-07
-7.65096e-08
4.12358e-07
-5.32024e-08
4.21914e-07
-3.15096e-08
4.24874e-07
-1.19289e-08
4.2177e-07
5.37809e-09
4.13422e-07
2.031e-08
4.00849e-07
3.27898e-08
3.85084e-07
4.28049e-08
3.67194e-07
5.03502e-08
3.4819e-07
5.54191e-08
3.2877e-07
5.81601e-08
3.09156e-07
5.90134e-08
2.89233e-07
5.86452e-08
2.68874e-07
5.7726e-08
2.48181e-07
5.67276e-08
2.2751e-07
5.58503e-08
2.07327e-07
5.50785e-08
1.88035e-07
5.42948e-08
1.69872e-07
5.33827e-08
1.52888e-07
5.2283e-08
1.37003e-07
5.10037e-08
1.22068e-07
4.96014e-08
1.07926e-07
4.81532e-08
9.44341e-08
4.67309e-08
8.14767e-08
4.53849e-08
6.89639e-08
4.41373e-08
5.68339e-08
4.29764e-08
4.50589e-08
4.18412e-08
3.36646e-08
4.05846e-08
2.2789e-08
3.88817e-08
1.27988e-08
3.59852e-08
4.57175e-09
3.01127e-08
1.6196e-08
-4.52963e-09
2.1017e-08
-1.29539e-08
3.93212e-08
-2.32698e-08
4.70671e-08
-3.45359e-08
5.09147e-08
-4.63293e-08
5.32243e-08
-5.85308e-08
5.49719e-08
-7.11152e-08
5.6585e-08
-8.41101e-08
5.82556e-08
-9.75858e-08
6.00618e-08
-1.11623e-07
6.20226e-08
-1.26309e-07
6.41267e-08
-1.41736e-07
6.63452e-08
-1.57993e-07
6.86367e-08
-1.75156e-07
7.09477e-08
-1.93278e-07
7.32121e-08
-2.12387e-07
7.53489e-08
-2.32473e-07
7.72611e-08
-2.53471e-07
7.88332e-08
-2.75256e-07
7.99286e-08
-2.97629e-07
8.03858e-08
-3.20313e-07
8.00141e-08
-3.42956e-07
7.85877e-08
-3.65124e-07
7.58391e-08
-3.86301e-07
7.14531e-08
-4.05887e-07
6.50664e-08
-4.23193e-07
5.62739e-08
-4.37438e-07
4.46505e-08
-4.47744e-07
2.97891e-08
-4.53149e-07
1.13577e-08
-4.52629e-07
-1.08267e-08
-4.45143e-07
-3.67161e-08
-4.29711e-07
-6.59531e-08
-4.05511e-07
-9.78147e-08
-3.71994e-07
-1.31195e-07
-3.28997e-07
-1.64642e-07
-2.76845e-07
-1.96453e-07
-2.16402e-07
-2.24812e-07
-1.49079e-07
-2.47959e-07
-7.67957e-08
-2.64351e-07
-1.86603e-09
-2.72839e-07
7.31716e-08
-2.72817e-07
1.45779e-07
-2.64327e-07
2.13621e-07
-2.48037e-07
2.74725e-07
-2.25116e-07
3.27648e-07
-1.97094e-07
3.71546e-07
-1.65721e-07
4.05969e-07
-1.32705e-07
4.3083e-07
-9.9558e-08
4.46701e-07
-6.7716e-08
4.54684e-07
-3.84651e-08
4.55677e-07
-1.25352e-08
4.50307e-07
9.88714e-09
4.39454e-07
2.88249e-08
4.24203e-07
4.44438e-08
4.05609e-07
5.70405e-08
3.84779e-07
6.68705e-08
3.62916e-07
7.40224e-08
3.41031e-07
7.8547e-08
3.19586e-07
8.06897e-08
2.9848e-07
8.09746e-08
2.77394e-07
8.00749e-08
2.56165e-07
7.85989e-08
2.34937e-07
7.69437e-08
2.14083e-07
7.5275e-08
1.94021e-07
7.35997e-08
1.75052e-07
7.18622e-08
1.57299e-07
7.00178e-08
1.40726e-07
6.8065e-08
1.25204e-07
6.60449e-08
1.10566e-07
6.40214e-08
9.66535e-08
6.20593e-08
8.33299e-08
6.02071e-08
7.04901e-08
5.84876e-08
5.80627e-08
5.68866e-08
4.6014e-08
5.53267e-08
3.43655e-08
5.36153e-08
2.32498e-08
5.13276e-08
1.30395e-08
4.74801e-08
4.63104e-09
3.97225e-08
2.13606e-08
-4.46619e-09
2.60906e-08
-1.28521e-08
4.88063e-08
-2.31221e-08
5.84349e-08
-3.43454e-08
6.32224e-08
-4.60982e-08
6.61144e-08
-5.82665e-08
6.83231e-08
-7.08343e-08
7.03766e-08
-8.38381e-08
7.25125e-08
-9.73557e-08
7.48301e-08
-1.11475e-07
7.73567e-08
-1.26291e-07
8.00828e-08
-1.41903e-07
8.29772e-08
-1.58412e-07
8.59942e-08
-1.75904e-07
8.90736e-08
-1.94448e-07
9.21399e-08
-2.14087e-07
9.50996e-08
-2.34826e-07
9.78388e-08
-2.56621e-07
1.00221e-07
-2.79368e-07
1.0208e-07
-3.02891e-07
1.03216e-07
-3.26945e-07
1.03387e-07
-3.5121e-07
1.02295e-07
-3.75291e-07
9.95763e-08
-3.98711e-07
9.47922e-08
-4.20898e-07
8.74265e-08
-4.41171e-07
7.68962e-08
-4.58714e-07
6.25829e-08
-4.72563e-07
4.38879e-08
-4.81593e-07
2.03149e-08
-4.84542e-07
-8.42534e-09
-4.80062e-07
-4.22982e-08
-4.66811e-07
-8.08355e-08
-4.43599e-07
-1.23057e-07
-4.09547e-07
-1.67451e-07
-3.6426e-07
-2.12026e-07
-3.07966e-07
-2.54455e-07
-2.41598e-07
-2.92268e-07
-1.66808e-07
-3.2307e-07
-8.59204e-08
-3.4476e-07
-1.79993e-09
-3.55749e-07
8.23823e-08
-3.55205e-07
1.63479e-07
-3.43224e-07
2.38655e-07
-3.20807e-07
3.05547e-07
-2.89626e-07
3.62491e-07
-2.51816e-07
4.0869e-07
-2.09822e-07
4.4385e-07
-1.66017e-07
4.67917e-07
-1.22383e-07
4.81637e-07
-8.07222e-08
4.8665e-07
-4.27183e-08
4.84354e-07
-9.39562e-09
4.75603e-07
1.89641e-08
4.61452e-07
4.23867e-08
4.43121e-07
6.11548e-08
4.21629e-07
7.58623e-08
3.97933e-07
8.7163e-08
3.73214e-07
9.54762e-08
3.48686e-07
1.00984e-07
3.25088e-07
1.03866e-07
3.02477e-07
1.04505e-07
2.80482e-07
1.03492e-07
2.5874e-07
1.01469e-07
2.37171e-07
9.89556e-08
2.15994e-07
9.6272e-08
1.95566e-07
9.35549e-08
1.762e-07
9.0832e-08
1.58061e-07
8.80942e-08
1.41155e-07
8.53431e-08
1.25373e-07
8.26066e-08
1.10552e-07
7.99334e-08
9.65227e-08
7.73773e-08
8.31341e-08
7.49812e-08
7.02684e-08
7.2764e-08
5.78423e-08
7.07041e-08
4.58115e-08
6.8705e-08
3.41928e-08
6.65293e-08
2.31068e-08
6.36523e-08
1.29334e-08
5.88547e-08
4.56592e-09
4.92095e-08
2.64267e-08
-4.34538e-09
3.10182e-08
-1.25526e-08
5.80607e-08
-2.26221e-08
6.95403e-08
-3.36301e-08
7.52585e-08
-4.51652e-08
7.87324e-08
-5.71222e-08
8.14072e-08
-6.94938e-08
8.39119e-08
-8.23244e-08
8.65305e-08
-9.56993e-08
8.93846e-08
-1.09715e-07
9.25125e-08
-1.24474e-07
9.59085e-08
-1.40087e-07
9.95429e-08
-1.56664e-07
1.03368e-07
-1.74309e-07
1.07322e-07
-1.93105e-07
1.11324e-07
-2.13117e-07
1.15273e-07
-2.34373e-07
1.19044e-07
-2.56856e-07
1.22484e-07
-2.80492e-07
1.25404e-07
-3.05147e-07
1.27567e-07
-3.30627e-07
1.28675e-07
-3.56674e-07
1.28353e-07
-3.8296e-07
1.26126e-07
-4.0908e-07
1.21412e-07
-4.3452e-07
1.13512e-07
-4.58623e-07
1.01628e-07
-4.80543e-07
8.49061e-08
-4.99202e-07
6.25076e-08
-5.13262e-07
3.37227e-08
-5.21133e-07
-1.8912e-09
-5.21037e-07
-4.43546e-08
-5.11138e-07
-9.31179e-08
-4.8973e-07
-1.46953e-07
-4.55486e-07
-2.03919e-07
-4.07692e-07
-2.61429e-07
-3.46453e-07
-3.16439e-07
-2.72793e-07
-3.65705e-07
-1.88671e-07
-4.0606e-07
-9.69398e-08
-4.34649e-07
-1.20579e-09
-4.49222e-07
9.44809e-08
-4.4853e-07
1.86133e-07
-4.32672e-07
2.70269e-07
-4.03073e-07
3.44041e-07
-3.62073e-07
4.05459e-07
-3.1254e-07
4.53828e-07
-2.5779e-07
4.89202e-07
-2.01121e-07
5.11655e-07
-1.4519e-07
5.22053e-07
-9.21867e-08
5.22678e-07
-4.41471e-08
5.15635e-07
-2.3806e-09
5.02077e-07
3.27801e-08
4.8334e-07
6.13676e-08
4.60963e-07
8.36591e-08
4.36029e-07
1.0039e-07
4.09265e-07
1.1258e-07
3.81627e-07
1.21124e-07
3.54334e-07
1.26581e-07
3.28333e-07
1.29294e-07
3.03894e-07
1.29627e-07
2.80706e-07
1.28086e-07
2.58295e-07
1.25272e-07
2.36389e-07
1.21741e-07
2.15023e-07
1.17906e-07
1.94442e-07
1.14006e-07
1.74921e-07
1.1015e-07
1.56635e-07
1.06375e-07
1.39615e-07
1.02695e-07
1.23774e-07
9.91328e-08
1.08957e-07
9.57242e-08
9.49893e-08
9.25107e-08
8.17118e-08
8.95261e-08
6.89952e-08
8.6782e-08
5.67444e-08
8.42454e-08
4.49047e-08
8.17969e-08
3.34882e-08
7.91537e-08
2.26e-08
7.56899e-08
1.26221e-08
6.99559e-08
4.43092e-09
5.84557e-08
3.13442e-08
-4.1842e-09
3.57366e-08
-1.2124e-08
6.69691e-08
-2.18806e-08
8.0249e-08
-3.25503e-08
8.68811e-08
-4.37423e-08
9.09322e-08
-5.53621e-08
9.40741e-08
-6.74111e-08
9.70369e-08
-7.99398e-08
1.00152e-07
-9.30413e-08
1.03564e-07
-1.06821e-07
1.07326e-07
-1.2139e-07
1.11439e-07
-1.36871e-07
1.15878e-07
-1.53386e-07
1.206e-07
-1.71054e-07
1.25543e-07
-1.89982e-07
1.30628e-07
-2.10256e-07
1.35752e-07
-2.31932e-07
1.40788e-07
-2.55029e-07
1.45572e-07
-2.79519e-07
1.49896e-07
-3.05328e-07
1.53491e-07
-3.32337e-07
1.56005e-07
-3.60382e-07
1.56979e-07
-3.89242e-07
1.55819e-07
-4.1862e-07
1.51783e-07
-4.48093e-07
1.43965e-07
-4.7705e-07
1.31321e-07
-5.04618e-07
1.1272e-07
-5.29576e-07
8.70301e-08
-5.50312e-07
5.32621e-08
-5.64809e-07
1.07357e-08
-5.70727e-07
-4.07224e-08
-5.6557e-07
-1.00584e-07
-5.46952e-07
-1.67456e-07
-5.1294e-07
-2.39003e-07
-4.62395e-07
-3.11998e-07
-3.95241e-07
-3.82551e-07
-3.12589e-07
-4.46452e-07
-2.16743e-07
-4.9951e-07
-1.11182e-07
-5.37761e-07
-4.88195e-10
-5.57834e-07
1.10051e-07
-5.57686e-07
2.15233e-07
-5.37286e-07
3.10724e-07
-4.98702e-07
3.93095e-07
-4.45301e-07
4.59863e-07
-3.8097e-07
5.10399e-07
-3.10139e-07
5.45356e-07
-2.37397e-07
5.65219e-07
-1.66527e-07
5.70991e-07
-1.00309e-07
5.6564e-07
-4.10589e-08
5.52233e-07
9.73596e-09
5.32271e-07
5.1894e-08
5.07326e-07
8.57302e-08
4.79419e-07
1.11655e-07
4.49931e-07
1.30439e-07
4.19468e-07
1.43283e-07
3.88661e-07
1.51475e-07
3.58529e-07
1.56041e-07
3.30048e-07
1.57669e-07
3.03632e-07
1.56877e-07
2.79066e-07
1.54181e-07
2.5584e-07
1.50142e-07
2.33536e-07
1.45303e-07
2.12021e-07
1.40104e-07
1.91406e-07
1.34848e-07
1.71892e-07
1.297e-07
1.53631e-07
1.2474e-07
1.36662e-07
1.19999e-07
1.20914e-07
1.15501e-07
1.06241e-07
1.11271e-07
9.24686e-08
1.07336e-07
7.94299e-08
1.03718e-07
6.69865e-08
1.00416e-07
5.50326e-08
9.73835e-08
4.35054e-08
9.44764e-08
3.24122e-08
9.13653e-08
2.18435e-08
8.73245e-08
1.21751e-08
8.068e-08
4.25833e-09
6.73812e-08
3.60731e-08
-3.98612e-09
4.02242e-08
-1.15952e-08
7.54648e-08
-2.0946e-08
9.04817e-08
-3.11787e-08
9.80023e-08
-4.19275e-08
1.0262e-07
-5.31074e-08
1.06225e-07
-6.47292e-08
1.09648e-07
-7.68487e-08
1.13269e-07
-8.95653e-08
1.17259e-07
-1.02993e-07
1.21683e-07
-1.17254e-07
1.26557e-07
-1.3248e-07
1.31865e-07
-1.48809e-07
1.37569e-07
-1.66377e-07
1.43617e-07
-1.85313e-07
1.49935e-07
-2.05729e-07
1.56429e-07
-2.27715e-07
1.62973e-07
-2.51336e-07
1.69403e-07
-2.76624e-07
1.75502e-07
-3.03587e-07
1.80972e-07
-3.32213e-07
1.85414e-07
-3.62467e-07
1.88287e-07
-3.94279e-07
1.88879e-07
-4.27504e-07
1.8628e-07
-4.6185e-07
1.79368e-07
-4.96785e-07
1.66834e-07
-5.31413e-07
1.47227e-07
-5.64361e-07
1.19066e-07
-5.93687e-07
8.09768e-08
-6.16862e-07
3.18932e-08
-6.30849e-07
-2.87113e-08
-6.32313e-07
-1.00554e-07
-6.17978e-07
-1.82278e-07
-5.85082e-07
-2.71245e-07
-5.31869e-07
-3.63515e-07
-4.57955e-07
-4.54102e-07
-3.64461e-07
-5.37471e-07
-2.5397e-07
-6.07994e-07
-1.30645e-07
-6.59986e-07
-3.37341e-10
-6.88163e-07
1.29833e-07
-6.89024e-07
2.52778e-07
-6.6231e-07
3.62937e-07
-6.11235e-07
4.56254e-07
-5.40983e-07
5.296e-07
-4.57053e-07
5.82263e-07
-3.65325e-07
6.15684e-07
-2.71999e-07
6.31276e-07
-1.82532e-07
6.30472e-07
-1.0072e-07
6.16999e-07
-2.91182e-08
5.95222e-07
3.07785e-08
5.67131e-07
7.91745e-08
5.34373e-07
1.17108e-07
4.99351e-07
1.45615e-07
4.63907e-07
1.65729e-07
4.28739e-07
1.78726e-07
3.94225e-07
1.86077e-07
3.61069e-07
1.89143e-07
3.30087e-07
1.88972e-07
3.01694e-07
1.86332e-07
2.75716e-07
1.81846e-07
2.51624e-07
1.76084e-07
2.28902e-07
1.69569e-07
2.07275e-07
1.62741e-07
1.86719e-07
1.55922e-07
1.67344e-07
1.49314e-07
1.49261e-07
1.43023e-07
1.32497e-07
1.37098e-07
1.16987e-07
1.31562e-07
1.02589e-07
1.2643e-07
8.91312e-08
1.21714e-07
7.64437e-08
1.1742e-07
6.438e-08
1.13533e-07
5.28254e-08
1.09989e-07
4.17123e-08
1.06618e-07
3.10424e-08
1.03045e-07
2.0894e-08
9.84456e-08
1.16291e-08
9.0927e-08
4.0617e-09
7.59008e-08
4.05585e-08
-3.75899e-09
4.44477e-08
-1.09737e-08
8.34855e-08
-1.98386e-08
1.00159e-07
-2.95502e-08
1.0853e-07
-3.97679e-08
1.13694e-07
-5.04151e-08
1.17753e-07
-6.1512e-08
1.21632e-07
-7.31204e-08
1.25764e-07
-8.53438e-08
1.30345e-07
-9.83042e-08
1.35457e-07
-1.12134e-07
1.41131e-07
-1.26976e-07
1.47362e-07
-1.42983e-07
1.54129e-07
-1.60308e-07
1.61392e-07
-1.79102e-07
1.69091e-07
-1.99507e-07
1.77146e-07
-2.21654e-07
1.85444e-07
-2.4566e-07
1.93832e-07
-2.71636e-07
2.02089e-07
-2.99695e-07
2.09906e-07
-3.29965e-07
2.16845e-07
-3.62582e-07
2.223e-07
-3.97673e-07
2.25453e-07
-4.35296e-07
2.25239e-07
-4.75341e-07
2.2033e-07
-5.17396e-07
2.09141e-07
-5.60582e-07
1.8988e-07
-6.03387e-07
1.60626e-07
-6.43539e-07
1.19471e-07
-6.7795e-07
6.47055e-08
-7.02772e-07
-4.89885e-09
-7.13633e-07
-8.97066e-08
-7.06054e-07
-1.88738e-07
-6.76073e-07
-2.99198e-07
-6.20952e-07
-4.16242e-07
-5.39732e-07
-5.33269e-07
-4.3335e-07
-6.4279e-07
-3.04464e-07
-7.37205e-07
-1.57873e-07
-8.08282e-07
-1.18706e-09
-8.47535e-07
1.55612e-07
-8.49018e-07
3.02339e-07
-8.12292e-07
4.31541e-07
-7.42866e-07
5.38597e-07
-6.49149e-07
6.19799e-07
-5.39156e-07
6.74255e-07
-4.2061e-07
7.04216e-07
-3.01506e-07
7.12646e-07
-1.89267e-07
7.02117e-07
-8.91355e-08
6.7734e-07
-3.92546e-09
6.44353e-07
6.51239e-08
6.05988e-07
1.18718e-07
5.63878e-07
1.58869e-07
5.20457e-07
1.87782e-07
4.77855e-07
2.07298e-07
4.36971e-07
2.19025e-07
3.9808e-07
2.24545e-07
3.61594e-07
2.2536e-07
3.2806e-07
2.22732e-07
2.97748e-07
2.17631e-07
2.7043e-07
2.10802e-07
2.4553e-07
2.02853e-07
2.22447e-07
1.943e-07
2.00785e-07
1.8557e-07
1.80401e-07
1.76984e-07
1.61309e-07
1.68757e-07
1.43562e-07
1.61009e-07
1.27163e-07
1.53797e-07
1.12041e-07
1.47139e-07
9.80564e-08
1.4104e-07
8.5037e-08
1.35495e-07
7.28128e-08
1.30492e-07
6.12332e-08
1.26e-07
5.0177e-08
1.21937e-07
3.95742e-08
1.18106e-07
2.94206e-08
1.14085e-07
1.9783e-08
1.08951e-07
1.10013e-08
1.006e-07
3.83736e-09
8.3927e-08
4.47503e-08
-3.50568e-09
4.83696e-08
-1.02624e-08
9.09676e-08
-1.85714e-08
1.09198e-07
-2.76856e-08
1.18371e-07
-3.72897e-08
1.24055e-07
-4.73157e-08
1.28553e-07
-5.77902e-08
1.3288e-07
-6.87833e-08
1.3752e-07
-8.04017e-08
1.42698e-07
-9.27726e-08
1.48515e-07
-1.06037e-07
1.55019e-07
-1.2035e-07
1.62222e-07
-1.35876e-07
1.70121e-07
-1.52786e-07
1.78695e-07
-1.71252e-07
1.87908e-07
-1.91449e-07
1.97703e-07
-2.1355e-07
2.0799e-07
-2.37737e-07
2.18636e-07
-2.64214e-07
2.29436e-07
-2.93225e-07
2.40085e-07
-3.25066e-07
2.5013e-07
-3.6009e-07
2.58926e-07
-3.98666e-07
2.65584e-07
-4.41113e-07
2.68922e-07
-4.87567e-07
2.67438e-07
-5.37808e-07
2.59297e-07
-5.91053e-07
2.42334e-07
-6.4575e-07
2.14096e-07
-6.9938e-07
1.71907e-07
-7.48339e-07
1.13036e-07
-7.87904e-07
3.50111e-08
-8.12402e-07
-6.38013e-08
-8.15655e-07
-1.83335e-07
-7.91821e-07
-3.20812e-07
-7.36507e-07
-4.70072e-07
-6.47721e-07
-6.21948e-07
-5.25972e-07
-7.6603e-07
-3.73562e-07
-8.92432e-07
-1.95713e-07
-9.89561e-07
-2.62079e-09
-1.04367e-06
1.9099e-07
-1.04463e-06
3.69773e-07
-9.92109e-07
5.23392e-07
-8.9617e-07
6.46971e-07
-7.70675e-07
7.36768e-07
-6.26989e-07
7.91916e-07
-4.74729e-07
8.15472e-07
-3.2415e-07
8.12458e-07
-1.84822e-07
7.87616e-07
-6.35612e-08
7.47146e-07
3.64812e-08
6.99001e-07
1.14839e-07
6.47334e-07
1.72972e-07
5.93985e-07
2.13837e-07
5.41088e-07
2.40966e-07
4.9059e-07
2.57447e-07
4.43381e-07
2.65687e-07
3.99664e-07
2.67627e-07
3.59621e-07
2.64904e-07
3.23516e-07
2.58869e-07
2.91393e-07
2.50576e-07
2.62881e-07
2.40821e-07
2.37316e-07
2.30221e-07
2.14004e-07
2.1927e-07
1.92446e-07
2.08368e-07
1.72385e-07
1.97818e-07
1.53743e-07
1.87828e-07
1.36507e-07
1.78516e-07
1.20648e-07
1.69932e-07
1.06077e-07
1.62088e-07
9.26518e-08
1.54971e-07
8.02024e-08
1.48562e-07
6.85601e-08
1.42828e-07
5.75737e-08
1.37722e-07
4.71179e-08
1.33141e-07
3.71212e-08
1.28861e-07
2.75731e-08
1.24409e-07
1.85276e-08
1.18767e-07
1.02957e-08
1.09626e-07
3.57708e-09
9.13948e-08
4.86288e-08
-3.22331e-09
5.19641e-08
-9.46785e-09
9.78553e-08
-1.7158e-08
1.17528e-07
-2.56029e-08
1.27448e-07
-3.45127e-08
1.33621e-07
-4.38306e-08
1.38537e-07
-5.35847e-08
1.43299e-07
-6.38541e-08
1.48437e-07
-7.47487e-08
1.54208e-07
-8.63988e-08
1.60737e-07
-9.89521e-08
1.68087e-07
-1.12572e-07
1.76294e-07
-1.27434e-07
1.85375e-07
-1.43725e-07
1.95336e-07
-1.61637e-07
2.06171e-07
-1.81376e-07
2.17855e-07
-2.03161e-07
2.30333e-07
-2.27249e-07
2.43509e-07
-2.53947e-07
2.57211e-07
-2.83649e-07
2.71164e-07
-3.16851e-07
2.84936e-07
-3.54153e-07
2.97889e-07
-3.96217e-07
3.09119e-07
-4.43682e-07
3.17398e-07
-4.97011e-07
3.21124e-07
-5.56294e-07
3.18257e-07
-6.21011e-07
3.06265e-07
-6.8978e-07
2.82045e-07
-7.60079e-07
2.4188e-07
-8.27974e-07
1.81507e-07
-8.87869e-07
9.64634e-08
-9.32432e-07
-1.70672e-08
-9.52967e-07
-1.60753e-07
-9.40543e-07
-3.32151e-07
-8.87932e-07
-5.23133e-07
-7.91498e-07
-7.20372e-07
-6.5126e-07
-9.09177e-07
-4.68429e-07
-1.07814e-06
-2.47813e-07
-1.21212e-06
-3.53666e-09
-1.28819e-06
2.41549e-07
-1.28819e-06
4.63373e-07
-1.21192e-06
6.4761e-07
-1.07828e-06
7.90144e-07
-9.10571e-07
8.88356e-07
-7.23734e-07
9.41703e-07
-5.28043e-07
9.54391e-07
-3.37508e-07
9.34081e-07
-1.65349e-07
8.88738e-07
-1.9794e-08
8.27064e-07
9.57749e-08
7.58933e-07
1.8249e-07
6.90027e-07
2.43585e-07
6.22808e-07
2.83355e-07
5.59064e-07
3.06608e-07
5.00106e-07
3.17712e-07
4.46383e-07
3.20101e-07
3.97814e-07
3.16343e-07
3.54302e-07
3.08366e-07
3.15811e-07
2.97619e-07
2.8212e-07
2.85164e-07
2.52675e-07
2.71768e-07
2.26686e-07
2.5799e-07
2.03365e-07
2.44258e-07
1.82114e-07
2.30913e-07
1.62577e-07
2.18212e-07
1.44584e-07
2.06329e-07
1.28057e-07
1.95362e-07
1.12924e-07
1.85344e-07
9.90777e-08
1.76267e-07
8.63705e-08
1.68102e-07
7.46324e-08
1.60808e-07
6.36991e-08
1.54337e-07
5.34212e-08
1.48619e-07
4.36712e-08
1.43529e-07
3.43758e-08
1.38815e-07
2.55169e-08
1.3395e-07
1.71348e-08
1.27825e-07
9.50963e-09
1.17939e-07
3.28528e-09
9.8256e-08
5.21828e-08
-2.91219e-09
5.52085e-08
-8.59939e-09
1.04098e-07
-1.56132e-08
1.25093e-07
-2.33221e-08
1.35701e-07
-3.14591e-08
1.42324e-07
-3.99828e-08
1.47628e-07
-4.89199e-08
1.52803e-07
-5.83546e-08
1.58422e-07
-6.84008e-08
1.64773e-07
-7.91909e-08
1.72003e-07
-9.08755e-08
1.80198e-07
-1.03623e-07
1.89417e-07
-1.17618e-07
1.99703e-07
-1.33056e-07
2.11095e-07
-1.5015e-07
2.23621e-07
-1.69131e-07
2.37298e-07
-1.90271e-07
2.52121e-07
-2.13896e-07
2.68044e-07
-2.40429e-07
2.84955e-07
-2.70424e-07
3.0264e-07
-3.04592e-07
3.20738e-07
-3.43807e-07
3.38682e-07
-3.89063e-07
3.55641e-07
-4.4138e-07
3.70446e-07
-5.01654e-07
3.81507e-07
-5.70463e-07
3.86689e-07
-6.47829e-07
3.83134e-07
-7.32928e-07
3.67023e-07
-8.23697e-07
3.33324e-07
-9.16288e-07
2.75675e-07
-1.00437e-06
1.86678e-07
-1.07852e-06
5.90345e-08
-1.12623e-06
-1.12094e-07
-1.13346e-06
-3.25461e-07
-1.08815e-06
-5.70295e-07
-9.8433e-07
-8.26535e-07
-8.22309e-07
-1.07287e-06
-6.00717e-07
-1.29995e-06
-3.21214e-07
-1.49051e-06
-3.55716e-09
-1.60384e-06
3.14981e-07
-1.60449e-06
5.95015e-07
-1.49152e-06
8.17065e-07
-1.30137e-06
9.80713e-07
-1.0754e-06
1.08665e-06
-8.31578e-07
1.13374e-06
-5.77082e-07
1.128e-06
-3.32414e-07
1.08174e-06
-1.18767e-07
1.00709e-06
5.40232e-08
9.1692e-07
1.8393e-07
8.23208e-07
2.75111e-07
7.32747e-07
3.34324e-07
6.4862e-07
3.68618e-07
5.72311e-07
3.84487e-07
5.04251e-07
3.87398e-07
4.4403e-07
3.81577e-07
3.90945e-07
3.70122e-07
3.44429e-07
3.55249e-07
3.04051e-07
3.38502e-07
2.69277e-07
3.20919e-07
2.39338e-07
3.03175e-07
2.13308e-07
2.85715e-07
1.90306e-07
2.68855e-07
1.69647e-07
2.52834e-07
1.50888e-07
2.37831e-07
1.3378e-07
2.23965e-07
1.18181e-07
2.11289e-07
1.03977e-07
1.99806e-07
9.10409e-08
1.89483e-07
7.92181e-08
1.80266e-07
6.83408e-08
1.72094e-07
5.825e-08
1.64897e-07
4.87996e-08
1.58584e-07
3.98614e-08
1.53007e-07
3.13588e-08
1.4788e-07
2.32657e-08
1.42628e-07
1.56097e-08
1.36051e-07
8.64473e-09
1.25475e-07
2.97583e-09
1.04465e-07
5.53809e-08
-2.57769e-09
5.8077e-08
-7.66944e-09
1.09653e-07
-1.3957e-08
1.31844e-07
-2.08722e-08
1.4307e-07
-2.81658e-08
1.50098e-07
-3.58088e-08
1.55751e-07
-4.38336e-08
1.61305e-07
-5.23247e-08
1.67378e-07
-6.13972e-08
1.74282e-07
-7.11844e-08
1.8219e-07
-8.18374e-08
1.91208e-07
-9.35253e-08
2.01421e-07
-1.06434e-07
2.12902e-07
-1.20767e-07
2.25725e-07
-1.36748e-07
2.39961e-07
-1.54635e-07
2.55679e-07
-1.7474e-07
2.72932e-07
-1.97462e-07
2.91745e-07
-2.23336e-07
3.12091e-07
-2.53071e-07
3.3386e-07
-2.87596e-07
3.56816e-07
-3.28065e-07
3.80548e-07
-3.75825e-07
4.04411e-07
-4.32335e-07
4.27442e-07
-4.99054e-07
4.48232e-07
-5.77291e-07
4.64725e-07
-6.68017e-07
4.7389e-07
-7.71566e-07
4.71256e-07
-8.87099e-07
4.50359e-07
-1.01163e-06
4.02265e-07
-1.1386e-06
3.15582e-07
-1.25613e-06
1.77614e-07
-1.34617e-06
-2.23041e-08
-1.38642e-06
-2.86507e-07
-1.35658e-06
-6.01582e-07
-1.24721e-06
-9.36521e-07
-1.06166e-06
-1.25764e-06
-7.92937e-07
-1.56687e-06
-4.31313e-07
-1.85069e-06
-4.46882e-09
-2.03057e-06
4.23935e-07
-2.03396e-06
7.85782e-07
-1.85775e-06
1.05435e-06
-1.57496e-06
1.24048e-06
-1.26544e-06
1.35268e-06
-9.45625e-07
1.38577e-06
-6.10808e-07
1.34759e-06
-2.93206e-07
1.2606e-06
-2.7542e-08
1.14334e-06
1.73259e-07
1.01428e-06
3.12592e-07
8.88067e-07
4.01073e-07
7.71917e-07
4.50666e-07
6.68513e-07
4.72407e-07
5.78449e-07
4.75237e-07
5.00974e-07
4.6581e-07
4.34558e-07
4.48842e-07
3.77608e-07
4.27604e-07
3.28875e-07
4.04328e-07
2.87401e-07
3.80485e-07
2.5227e-07
3.5698e-07
2.22464e-07
3.34324e-07
1.9692e-07
3.12793e-07
1.7467e-07
2.92548e-07
1.54964e-07
2.73695e-07
1.3729e-07
2.56306e-07
1.21334e-07
2.40419e-07
1.06899e-07
2.26029e-07
9.38366e-08
2.13095e-07
8.20015e-08
2.01549e-07
7.12335e-08
1.9131e-07
6.13687e-08
1.82291e-07
5.22545e-08
1.744e-07
4.37495e-08
1.67524e-07
3.57252e-08
1.61489e-07
2.81009e-08
1.55981e-07
2.08428e-08
1.50374e-07
1.39686e-08
1.4339e-07
7.71657e-09
1.32193e-07
2.65058e-09
1.0999e-07
5.81973e-08
-2.22788e-09
6.05476e-08
-6.70082e-09
1.14497e-07
-1.22319e-08
1.37752e-07
-1.83033e-08
1.49507e-07
-2.46942e-08
1.56874e-07
-3.13747e-08
1.62826e-07
-3.83935e-08
1.68715e-07
-4.58369e-08
1.752e-07
-5.38175e-08
1.8262e-07
-6.24657e-08
1.91164e-07
-7.19289e-08
2.00962e-07
-8.23717e-08
2.12122e-07
-9.39766e-08
2.24751e-07
-1.06946e-07
2.3896e-07
-1.21509e-07
2.5487e-07
-1.37941e-07
2.72605e-07
-1.56587e-07
2.9229e-07
-1.77908e-07
3.14038e-07
-2.02531e-07
3.37935e-07
-2.31306e-07
3.64014e-07
-2.65356e-07
3.92232e-07
-3.06094e-07
4.2243e-07
-3.55214e-07
4.54281e-07
-4.14659e-07
4.87203e-07
-4.86582e-07
5.20202e-07
-5.73308e-07
5.51579e-07
-6.77269e-07
5.78463e-07
-8.00775e-07
5.96081e-07
-9.45345e-07
5.96805e-07
-1.11026e-06
5.69064e-07
-1.28998e-06
4.96505e-07
-1.47062e-06
3.58382e-07
-1.62697e-06
1.33364e-07
-1.72374e-06
-1.90361e-07
-1.72574e-06
-5.99359e-07
-1.61747e-06
-1.04371e-06
-1.41235e-06
-1.46163e-06
-1.08888e-06
-1.89019e-06
-6.08215e-07
-2.33327e-06
-8.91651e-09
-2.63326e-06
5.93966e-07
-2.63788e-06
1.07751e-06
-2.34254e-06
1.40301e-06
-1.90027e-06
1.60858e-06
-1.47205e-06
1.72074e-06
-1.05746e-06
1.72442e-06
-6.13445e-07
1.62897e-06
-1.99895e-07
1.47547e-06
1.28885e-07
1.29589e-06
3.56371e-07
1.11465e-06
4.95265e-07
9.47798e-07
5.68673e-07
8.01917e-07
5.97397e-07
6.77884e-07
5.97404e-07
5.7413e-07
5.80096e-07
4.87963e-07
5.53112e-07
4.16374e-07
5.2134e-07
3.56695e-07
4.87851e-07
3.06876e-07
4.54552e-07
2.65351e-07
4.22561e-07
2.30776e-07
3.92455e-07
2.01873e-07
3.64455e-07
1.77445e-07
3.38587e-07
1.56459e-07
3.14806e-07
1.38118e-07
2.9305e-07
1.21866e-07
2.73263e-07
1.07345e-07
2.5538e-07
9.4318e-08
2.39324e-07
8.26093e-08
2.24998e-07
7.20604e-08
2.12291e-07
6.25107e-08
2.01089e-07
5.38022e-08
1.91279e-07