/*--------------------------------*- C++ -*----------------------------------*\
| =========                 |                                                 |
| \\      /  F ield         | OpenFOAM: The Open Source CFD Toolbox           |
|  \\    /   O peration     | Version:  2412                                  |
|   \\  /    A nd           | Website:  www.openfoam.com                      |
|    \\/     M anipulation  |                                                 |
\*---------------------------------------------------------------------------*/
FoamFile
{
    version     2.0;
    format      ascii;
    arch        "LSB;label=32;scalar=64";
    class       volVectorField;
    location    "7.65";
    object      U;
}
// * * * * * * * * * * * * * * * * * * * * * * * * * * * * * * * * * * * * * //

dimensions      [0 1 -1 0 0 0 0];

internalField   nonuniform List<vector> 
6400
(
(2.55854e-06 -2.52356e-06 0)
(2.68172e-06 -8.46694e-07 0)
(-7.08418e-06 1.5733e-06 0)
(-2.63491e-05 3.40515e-06 0)
(-5.24746e-05 4.52776e-06 0)
(-8.26067e-05 5.07473e-06 0)
(-0.000114329 5.18588e-06 0)
(-0.000145879 5.01213e-06 0)
(-0.000176079 4.65444e-06 0)
(-0.000204179 4.19768e-06 0)
(-0.000229783 3.72233e-06 0)
(-0.000252749 3.25216e-06 0)
(-0.000273075 2.79857e-06 0)
(-0.000290847 2.38631e-06 0)
(-0.000306173 2.00733e-06 0)
(-0.000319113 1.64413e-06 0)
(-0.000329702 1.29787e-06 0)
(-0.000337985 9.7254e-07 0)
(-0.000344025 6.62952e-07 0)
(-0.000347875 3.64118e-07 0)
(-0.000349569 7.05138e-08 0)
(-0.000349122 -2.19293e-07 0)
(-0.000346545 -5.06929e-07 0)
(-0.000341851 -7.92597e-07 0)
(-0.000335064 -1.07418e-06 0)
(-0.00032621 -1.35305e-06 0)
(-0.000315308 -1.63251e-06 0)
(-0.000302364 -1.91568e-06 0)
(-0.000287375 -2.20086e-06 0)
(-0.000270344 -2.48639e-06 0)
(-0.000251287 -2.76952e-06 0)
(-0.000230235 -3.04977e-06 0)
(-0.000207239 -3.32629e-06 0)
(-0.000182372 -3.59552e-06 0)
(-0.000155742 -3.85161e-06 0)
(-0.0001275 -4.08304e-06 0)
(-9.78466e-05 -4.28262e-06 0)
(-6.70216e-05 -4.44605e-06 0)
(-3.53083e-05 -4.56528e-06 0)
(-3.03396e-06 -4.62878e-06 0)
(2.9445e-05 -4.63713e-06 0)
(6.17668e-05 -4.59338e-06 0)
(9.35706e-05 -4.49048e-06 0)
(0.000124518 -4.3436e-06 0)
(0.000154305 -4.15508e-06 0)
(0.000182655 -3.9212e-06 0)
(0.00020933 -3.65854e-06 0)
(0.000234147 -3.37563e-06 0)
(0.000256983 -3.08506e-06 0)
(0.000277761 -2.79398e-06 0)
(0.00029643 -2.49638e-06 0)
(0.000312951 -2.19641e-06 0)
(0.000327309 -1.90017e-06 0)
(0.000339496 -1.60135e-06 0)
(0.000349505 -1.30285e-06 0)
(0.000357332 -1.00411e-06 0)
(0.000362977 -7.03732e-07 0)
(0.000366432 -3.99041e-07 0)
(0.000367693 -8.79991e-08 0)
(0.000366759 2.24736e-07 0)
(0.000363634 5.40046e-07 0)
(0.00035832 8.61076e-07 0)
(0.000350814 1.18867e-06 0)
(0.000341104 1.52295e-06 0)
(0.000329172 1.86588e-06 0)
(0.000314978 2.2232e-06 0)
(0.000298462 2.60491e-06 0)
(0.000279544 3.00976e-06 0)
(0.000258154 3.4387e-06 0)
(0.000234243 3.88714e-06 0)
(0.000207824 4.33862e-06 0)
(0.000179044 4.76094e-06 0)
(0.000148275 5.09312e-06 0)
(0.000116242 5.24569e-06 0)
(8.41355e-05 5.09972e-06 0)
(5.3704e-05 4.51797e-06 0)
(2.72974e-05 3.35319e-06 0)
(7.7555e-06 1.47583e-06 0)
(-2.31365e-06 -9.87607e-07 0)
(-2.43765e-06 -2.54593e-06 0)
(1.06744e-06 -2.49077e-06 0)
(-1.17119e-05 1.2228e-05 0)
(-4.64737e-05 3.1094e-05 0)
(-0.000101554 4.65629e-05 0)
(-0.000171356 5.68233e-05 0)
(-0.000250025 6.21487e-05 0)
(-0.000332416 6.34727e-05 0)
(-0.000414521 6.19267e-05 0)
(-0.000493486 5.84634e-05 0)
(-0.000567452 5.38626e-05 0)
(-0.000635352 4.87437e-05 0)
(-0.000696675 4.34547e-05 0)
(-0.000751279 3.82183e-05 0)
(-0.000799265 3.31943e-05 0)
(-0.000840827 2.83724e-05 0)
(-0.000876114 2.3665e-05 0)
(-0.000905199 1.90473e-05 0)
(-0.000928141 1.45293e-05 0)
(-0.000945015 1.01021e-05 0)
(-0.000955902 5.74615e-06 0)
(-0.000960872 1.43057e-06 0)
(-0.000959965 -2.86495e-06 0)
(-0.000953201 -7.15102e-06 0)
(-0.000940595 -1.14242e-05 0)
(-0.00092217 -1.56698e-05 0)
(-0.000897963 -1.98854e-05 0)
(-0.000868012 -2.40807e-05 0)
(-0.000832346 -2.82673e-05 0)
(-0.000790993 -3.24413e-05 0)
(-0.000743986 -3.65885e-05 0)
(-0.00069138 -4.06822e-05 0)
(-0.000633274 -4.46911e-05 0)
(-0.000569822 -4.85714e-05 0)
(-0.000501255 -5.22633e-05 0)
(-0.000427898 -5.56898e-05 0)
(-0.000350185 -5.87542e-05 0)
(-0.000268666 -6.13678e-05 0)
(-0.00018401 -6.34508e-05 0)
(-9.69935e-05 -6.49205e-05 0)
(-8.49318e-06 -6.56964e-05 0)
(8.05408e-05 -6.5747e-05 0)
(0.000169131 -6.50772e-05 0)
(0.000256313 -6.36913e-05 0)
(0.000341178 -6.16664e-05 0)
(0.000422897 -5.90589e-05 0)
(0.000500731 -5.59184e-05 0)
(0.000574041 -5.23537e-05 0)
(0.000642316 -4.8467e-05 0)
(0.00070518 -4.43705e-05 0)
(0.000762382 -4.01462e-05 0)
(0.000813761 -3.58248e-05 0)
(0.000859212 -3.14443e-05 0)
(0.000898671 -2.70403e-05 0)
(0.000932105 -2.26184e-05 0)
(0.000959499 -1.81859e-05 0)
(0.000980839 -1.37461e-05 0)
(0.000996122 -9.30337e-06 0)
(0.00100535 -4.85339e-06 0)
(0.00100854 -3.95734e-07 0)
(0.00100572 4.04939e-06 0)
(0.000996899 8.48443e-06 0)
(0.000982118 1.292e-05 0)
(0.000961389 1.73676e-05 0)
(0.000934711 2.18381e-05 0)
(0.000902063 2.63563e-05 0)
(0.000863391 3.09611e-05 0)
(0.000818593 3.57039e-05 0)
(0.000767546 4.05845e-05 0)
(0.000710148 4.55745e-05 0)
(0.000646382 5.05824e-05 0)
(0.000576414 5.54113e-05 0)
(0.000500737 5.97079e-05 0)
(0.000420385 6.29017e-05 0)
(0.000337165 6.42069e-05 0)
(0.000253871 6.26405e-05 0)
(0.000174428 5.71251e-05 0)
(0.000103878 4.66984e-05 0)
(4.80509e-05 3.10503e-05 0)
(1.2519e-05 1.2009e-05 0)
(-8.47105e-07 -2.55033e-06 0)
(-1.29934e-06 7.49491e-06 0)
(-3.07462e-05 4.72378e-05 0)
(-9.07909e-05 9.09155e-05 0)
(-0.000177553 0.000126431 0)
(-0.000283174 0.000150346 0)
(-0.000400156 0.000162987 0)
(-0.000521869 0.00016626 0)
(-0.000643019 0.000162582 0)
(-0.000759726 0.000154136 0)
(-0.000869387 0.000142757 0)
(-0.000970438 0.000129862 0)
(-0.00106205 0.000116328 0)
(-0.00114391 0.000102769 0)
(-0.00121607 8.95863e-05 0)
(-0.00127873 7.68221e-05 0)
(-0.00133208 6.43201e-05 0)
(-0.00137623 5.19988e-05 0)
(-0.00141123 3.98498e-05 0)
(-0.00143713 2.78642e-05 0)
(-0.00145399 1.60152e-05 0)
(-0.00146188 4.247e-06 0)
(-0.00146083 -7.48638e-06 0)
(-0.00145087 -1.92097e-05 0)
(-0.001432 -3.0916e-05 0)
(-0.00140422 -4.25731e-05 0)
(-0.00136757 -5.41623e-05 0)
(-0.00132211 -6.56882e-05 0)
(-0.00126788 -7.71622e-05 0)
(-0.00120495 -8.85782e-05 0)
(-0.00113337 -9.99043e-05 0)
(-0.00105324 -0.000111075 0)
(-0.000964708 -0.000121997 0)
(-0.000868019 -0.000132536 0)
(-0.000763533 -0.000142527 0)
(-0.000651751 -0.000151764 0)
(-0.000533339 -0.000160009 0)
(-0.000409139 -0.000167026 0)
(-0.000280174 -0.00017259 0)
(-0.000147637 -0.000176491 0)
(-1.28631e-05 -0.000178541 0)
(0.000122713 -0.000178646 0)
(0.000257605 -0.0001768 0)
(0.000390345 -0.00017305 0)
(0.000519546 -0.00016756 0)
(0.000643936 -0.00016049 0)
(0.000762393 -0.000152016 0)
(0.00087396 -0.000142387 0)
(0.000977862 -0.000131864 0)
(0.00107352 -0.000120723 0)
(0.00116052 -0.000109186 0)
(0.00123862 -9.73798e-05 0)
(0.00130765 -8.54043e-05 0)
(0.00136752 -7.33361e-05 0)
(0.00141817 -6.12216e-05 0)
(0.00145957 -4.90787e-05 0)
(0.00149171 -3.69217e-05 0)
(0.00151461 -2.47694e-05 0)
(0.00152828 -1.263e-05 0)
(0.00153277 -5.14046e-07 0)
(0.00152812 1.15433e-05 0)
(0.0015144 2.35468e-05 0)
(0.00149167 3.55144e-05 0)
(0.00145997 4.74746e-05 0)
(0.00141934 5.94583e-05 0)
(0.00136977 7.15237e-05 0)
(0.00131122 8.3751e-05 0)
(0.00124361 9.62343e-05 0)
(0.00116683 0.000108966 0)
(0.0010808 0.000121842 0)
(0.000985603 0.000134598 0)
(0.000881566 0.000146723 0)
(0.000769482 0.000157336 0)
(0.00065086 0.000165086 0)
(0.000528206 0.000168163 0)
(0.000405275 0.00016436 0)
(0.000287224 0.000151328 0)
(0.000180552 0.000127094 0)
(9.27385e-05 9.12329e-05 0)
(3.16499e-05 4.7249e-05 0)
(1.49093e-06 7.45325e-06 0)
(-3.19638e-06 2.70562e-05 0)
(-4.73217e-05 0.000103094 0)
(-0.00012933 0.000178208 0)
(-0.000242589 0.000238019 0)
(-0.000376984 0.000278189 0)
(-0.000523804 0.000299406 0)
(-0.000675546 0.00030476 0)
(-0.000826185 0.000298145 0)
(-0.00097126 0.000283184 0)
(-0.00110774 0.000262991 0)
(-0.00123378 0.000239934 0)
(-0.00134833 0.00021553 0)
(-0.00145091 0.000190879 0)
(-0.00154147 0.00016671 0)
(-0.00162022 0.000143191 0)
(-0.0016874 0.000120128 0)
(-0.00174315 9.73613e-05 0)
(-0.00178753 7.48224e-05 0)
(-0.00182052 5.24912e-05 0)
(-0.00184215 3.03421e-05 0)
(-0.00185244 8.30162e-06 0)
(-0.00185143 -1.36945e-05 0)
(-0.00183911 -3.56825e-05 0)
(-0.00181548 -5.7651e-05 0)
(-0.00178055 -7.95503e-05 0)
(-0.00173436 -0.00010134 0)
(-0.00167695 -0.000123014 0)
(-0.00160839 -0.000144574 0)
(-0.00152877 -0.000166006 0)
(-0.00143817 -0.000187253 0)
(-0.00133671 -0.000208205 0)
(-0.00122458 -0.000228682 0)
(-0.00110206 -0.000248433 0)
(-0.000969587 -0.000267141 0)
(-0.000827787 -0.000284425 0)
(-0.00067749 -0.000299849 0)
(-0.00051977 -0.000312964 0)
(-0.000355944 -0.00032334 0)
(-0.000187544 -0.000330591 0)
(-1.6278e-05 -0.00033439 0)
(0.000156018 -0.00033456 0)
(0.000327444 -0.000331068 0)
(0.000496108 -0.000324015 0)
(0.000660208 -0.000313684 0)
(0.000818104 -0.000300386 0)
(0.000968366 -0.000284494 0)
(0.0011098 -0.000266454 0)
(0.00124143 -0.000246736 0)
(0.00136253 -0.000225829 0)
(0.0014726 -0.000204144 0)
(0.00157132 -0.000181955 0)
(0.00165849 -0.000159453 0)
(0.001734 -0.00013677 0)
(0.0017978 -0.000113994 0)
(0.00184986 -9.11773e-05 0)
(0.00189017 -6.83525e-05 0)
(0.00191875 -4.55538e-05 0)
(0.00193565 -2.28134e-05 0)
(0.00194093 -1.62218e-07 0)
(0.00193466 2.23549e-05 0)
(0.00191693 4.47382e-05 0)
(0.00188783 6.70127e-05 0)
(0.00184746 8.92241e-05 0)
(0.00179587 0.00011143 0)
(0.00173311 0.000133726 0)
(0.00165916 0.000156236 0)
(0.00157398 0.000179085 0)
(0.00147751 0.000202252 0)
(0.00136973 0.000225531 0)
(0.00125079 0.000248435 0)
(0.00112113 0.000270051 0)
(0.000981741 0.000288851 0)
(0.000834407 0.000302551 0)
(0.000682036 0.000308129 0)
(0.000528926 0.000301946 0)
(0.000380933 0.000280153 0)
(0.000245426 0.000239539 0)
(0.000131077 0.000179269 0)
(4.80435e-05 0.000103721 0)
(3.2862e-06 2.71897e-05 0)
(-4.52406e-06 5.4131e-05 0)
(-5.99234e-05 0.000175608 0)
(-0.000159328 0.00028719 0)
(-0.000293555 0.000373917 0)
(-0.000450379 0.000431533 0)
(-0.00062002 0.000461627 0)
(-0.000794351 0.00046873 0)
(-0.000966901 0.000458359 0)
(-0.00113288 0.0004357 0)
(-0.00128906 0.000405275 0)
(-0.00143346 0.000370469 0)
(-0.00156491 0.000333451 0)
(-0.00168282 0.000295832 0)
(-0.00178704 0.000258707 0)
(-0.00187773 0.00022244 0)
(-0.00195516 0.000186859 0)
(-0.00201953 0.00015171 0)
(-0.00207088 0.00011683 0)
(-0.00210918 8.21669e-05 0)
(-0.0021344 4.76972e-05 0)
(-0.00214652 1.3345e-05 0)
(-0.00214553 -2.09612e-05 0)
(-0.00213146 -5.52601e-05 0)
(-0.00210429 -8.95359e-05 0)
(-0.00206405 -0.000123724 0)
(-0.00201076 -0.000157763 0)
(-0.00194449 -0.000191629 0)
(-0.0018653 -0.000225308 0)
(-0.00177329 -0.000258766 0)
(-0.00166859 -0.000291923 0)
(-0.00155132 -0.000324628 0)
(-0.00142166 -0.000356613 0)
(-0.00127991 -0.000387493 0)
(-0.00112651 -0.000416769 0)
(-0.000962151 -0.000443839 0)
(-0.000787766 -0.000468013 0)
(-0.000604605 -0.000488563 0)
(-0.000414213 -0.000504806 0)
(-0.000218399 -0.000516144 0)
(-1.91777e-05 -0.000522082 0)
(0.000181281 -0.000522337 0)
(0.000380729 -0.000516843 0)
(0.000576916 -0.000505746 0)
(0.00076769 -0.000489471 0)
(0.000951097 -0.00046854 0)
(0.00112545 -0.000443584 0)
(0.00128936 -0.000415306 0)
(0.00144174 -0.000384433 0)
(0.00158178 -0.000351705 0)
(0.00170894 -0.000317756 0)
(0.00182286 -0.000283036 0)
(0.00192337 -0.000247854 0)
(0.00201038 -0.000212411 0)
(0.00208383 -0.000176834 0)
(0.00214371 -0.000141206 0)
(0.00219002 -0.000105584 0)
(0.00222276 -7.00189e-05 0)
(0.00224198 -3.45691e-05 0)
(0.00224774 7.08974e-07 0)
(0.00224014 3.57552e-05 0)
(0.00221928 7.05558e-05 0)
(0.00218528 0.000105138 0)
(0.00213827 0.000139562 0)
(0.00207834 0.000173912 0)
(0.00200559 0.000208316 0)
(0.00192005 0.000242939 0)
(0.00182175 0.000277933 0)
(0.00171067 0.000313264 0)
(0.00158683 0.000348615 0)
(0.00145043 0.000383255 0)
(0.00130198 0.000415841 0)
(0.00114255 0.000444144 0)
(0.000974067 0.000464875 0)
(0.000799662 0.000473706 0)
(0.000623948 0.000465447 0)
(0.000453222 0.000434591 0)
(0.00029547 0.00037644 0)
(0.000160384 0.000289216 0)
(6.02791e-05 0.000177043 0)
(4.49187e-06 5.4551e-05 0)
(-5.41492e-06 8.65563e-05 0)
(-6.8955e-05 0.000260632 0)
(-0.000181472 0.000412838 0)
(-0.000331767 0.000528509 0)
(-0.000505797 0.000604283 0)
(-0.000692812 0.0006432 0)
(-0.000884165 0.000651548 0)
(-0.00107306 0.000636623 0)
(-0.0012545 0.000605274 0)
(-0.00142517 0.000563534 0)
(-0.00158306 0.000515853 0)
(-0.00172698 0.000465041 0)
(-0.00185627 0.000413174 0)
(-0.00197068 0.000361706 0)
(-0.00207029 0.000311246 0)
(-0.00215535 0.000261699 0)
(-0.00222606 0.000212727 0)
(-0.00228252 0.000164064 0)
(-0.00232467 0.000115609 0)
(-0.00235246 6.73235e-05 0)
(-0.00236583 1.91477e-05 0)
(-0.00236476 -2.8983e-05 0)
(-0.00234928 -7.70999e-05 0)
(-0.00231939 -0.000125181 0)
(-0.00227513 -0.00017315 0)
(-0.00221655 -0.000220924 0)
(-0.0021437 -0.00026846 0)
(-0.00205669 -0.00031572 0)
(-0.00195564 -0.000362645 0)
(-0.00184068 -0.00040914 0)
(-0.00171194 -0.000455035 0)
(-0.00156958 -0.000499986 0)
(-0.00141384 -0.000543467 0)
(-0.00124515 -0.000584773 0)
(-0.00106417 -0.000623039 0)
(-0.000871908 -0.000657259 0)
(-0.00066971 -0.000686374 0)
(-0.000459296 -0.000709395 0)
(-0.000242699 -0.000725465 0)
(-2.22017e-05 -0.000733895 0)
(0.000199732 -0.000734275 0)
(0.000420547 -0.000726494 0)
(0.000637685 -0.000710748 0)
(0.000848697 -0.000687617 0)
(0.00105135 -0.00065788 0)
(0.00124374 -0.000622485 0)
(0.00142433 -0.000582471 0)
(0.00159194 -0.00053887 0)
(0.00174575 -0.000492721 0)
(0.00188524 -0.000444909 0)
(0.00201012 -0.000396079 0)
(0.00212026 -0.000346662 0)
(0.0022156 -0.000296929 0)
(0.00229611 -0.000247031 0)
(0.00236176 -0.000197073 0)
(0.00241254 -0.000147124 0)
(0.00244843 -9.72534e-05 0)
(0.00246946 -4.75421e-05 0)
(0.00247566 1.92003e-06 0)
(0.00246713 5.10451e-05 0)
(0.00244396 9.97951e-05 0)
(0.00240631 0.000148186 0)
(0.00235431 0.000196287 0)
(0.00228811 0.000244198 0)
(0.00220785 0.000292071 0)
(0.00211365 0.000340111 0)
(0.00200556 0.000388501 0)
(0.00188364 0.000437198 0)
(0.00174795 0.000485785 0)
(0.00159869 0.000533286 0)
(0.00143641 0.000577924 0)
(0.0012622 0.000616738 0)
(0.00107808 0.000645393 0)
(0.000887296 0.000658188 0)
(0.000694675 0.000648281 0)
(0.000506836 0.000608352 0)
(0.000332279 0.000531946 0)
(0.000181624 0.000415772 0)
(6.89778e-05 0.000262797 0)
(5.32096e-06 8.74006e-05 0)
(-5.99601e-06 0.000122682 0)
(-7.53725e-05 0.000354874 0)
(-0.000197769 0.000551152 0)
(-0.000360483 0.000697522 0)
(-0.000547996 0.000792056 0)
(-0.000748675 0.000839683 0)
(-0.000953393 0.000848787 0)
(-0.00115506 0.000828591 0)
(-0.00134851 0.000787696 0)
(-0.00153036 0.000733748 0)
(-0.00169863 0.000672321 0)
(-0.00185216 0.000606886 0)
(-0.0019903 0.000539889 0)
(-0.00211269 0.000473108 0)
(-0.0022193 0.000407399 0)
(-0.00231032 0.000342773 0)
(-0.00238594 0.000278847 0)
(-0.00244623 0.000215271 0)
(-0.00249119 0.000151886 0)
(-0.00252076 8.86365e-05 0)
(-0.00253486 2.54797e-05 0)
(-0.00253349 -3.76288e-05 0)
(-0.00251668 -0.000100706 0)
(-0.00248445 -0.000163716 0)
(-0.00243687 -0.000226568 0)
(-0.00237402 -0.000289158 0)
(-0.00229601 -0.000351415 0)
(-0.00220296 -0.00041328 0)
(-0.00209505 -0.000474673 0)
(-0.00197242 -0.000535497 0)
(-0.00183521 -0.000595595 0)
(-0.00168352 -0.000654575 0)
(-0.00151753 -0.000711782 0)
(-0.00133757 -0.000766293 0)
(-0.00114423 -0.000816936 0)
(-0.00093849 -0.000862332 0)
(-0.000721769 -0.000901029 0)
(-0.000495912 -0.000931666 0)
(-0.000263147 -0.000953081 0)
(-2.60088e-05 -0.000964345 0)
(0.000212766 -0.000964908 0)
(0.000450337 -0.000954609 0)
(0.000683867 -0.0009337 0)
(0.000910641 -0.000902932 0)
(0.00112818 -0.000863375 0)
(0.00133438 -0.000816346 0)
(0.00152755 -0.000763302 0)
(0.00170649 -0.000705673 0)
(0.00187044 -0.000644838 0)
(0.00201898 -0.000581966 0)
(0.00215191 -0.000517903 0)
(0.00226919 -0.000453188 0)
(0.00237084 -0.000388127 0)
(0.00245681 -0.000322875 0)
(0.00252707 -0.000257533 0)
(0.00258155 -0.000192172 0)
(0.00262019 -0.000126877 0)
(0.00264295 -6.17465e-05 0)
(0.00264983 3.08624e-06 0)
(0.00264088 6.74951e-05 0)
(0.0026162 0.000131405 0)
(0.00257592 0.000194802 0)
(0.00252019 0.000257745 0)
(0.00244921 0.000320332 0)
(0.00236315 0.000382729 0)
(0.00226221 0.000445177 0)
(0.00214653 0.00050789 0)
(0.00201621 0.000570833 0)
(0.00187134 0.000633519 0)
(0.00171213 0.000694738 0)
(0.00153912 0.00075226 0)
(0.00135345 0.000802379 0)
(0.00115719 0.000839677 0)
(0.000953715 0.000857022 0)
(0.000747998 0.000845837 0)
(0.000546933 0.000796836 0)
(0.000359493 0.000701518 0)
(0.000197118 0.000554603 0)
(7.52263e-05 0.00035747 0)
(5.94058e-06 0.000124055 0)
(-6.38474e-06 0.000161498 0)
(-8.02234e-05 0.000456167 0)
(-0.000210582 0.000699453 0)
(-0.00038361 0.000878148 0)
(-0.00058257 0.000992089 0)
(-0.000794994 0.00104838 0)
(-0.00101127 0.00105784 0)
(-0.00122402 0.00103175 0)
(-0.00142783 0.000980548 0)
(-0.00161927 0.000913582 0)
(-0.00179639 0.000837631 0)
(-0.0019581 0.000756872 0)
(-0.00210377 0.000674062 0)
(-0.00223301 0.00059123 0)
(-0.00234567 0.000509444 0)
(-0.00244182 0.000428828 0)
(-0.0025216 0.000348985 0)
(-0.00258505 0.000269516 0)
(-0.00263217 0.000190217 0)
(-0.00266292 0.000111032 0)
(-0.00267728 3.19369e-05 0)
(-0.00267525 -4.70884e-05 0)
(-0.00265688 -0.000126043 0)
(-0.00262224 -0.000204874 0)
(-0.00257144 -0.000283462 0)
(-0.00250461 -0.00036167 0)
(-0.00242193 -0.000439398 0)
(-0.00232361 -0.000516563 0)
(-0.00220987 -0.000593079 0)
(-0.00208093 -0.00066887 0)
(-0.00193691 -0.000743831 0)
(-0.00177788 -0.000817571 0)
(-0.0016039 -0.000889343 0)
(-0.00141514 -0.000958014 0)
(-0.00121206 -0.00102207 0)
(-0.000995535 -0.00107969 0)
(-0.000767002 -0.00112894 0)
(-0.000528415 -0.00116801 0)
(-0.000282199 -0.00119536 0)
(-3.11278e-05 -0.00120981 0)
(0.00022179 -0.00121062 0)
(0.000473434 -0.0011976 0)
(0.000720697 -0.00117106 0)
(0.000960605 -0.00113194 0)
(0.00119044 -0.00108162 0)
(0.0014079 -0.00102186 0)
(0.0016112 -0.000954616 0)
(0.00179913 -0.000881827 0)
(0.00197105 -0.00080529 0)
(0.0021267 -0.000726476 0)
(0.00226607 -0.000646421 0)
(0.00238925 -0.000565733 0)
(0.00249629 -0.000484703 0)
(0.00258717 -0.000403437 0)
(0.00266179 -0.000321997 0)
(0.00271997 -0.000240443 0)
(0.00276155 -0.000158871 0)
(0.00278642 -7.74134e-05 0)
(0.00279451 3.75187e-06 0)
(0.00278581 8.44509e-05 0)
(0.00276038 0.000164557 0)
(0.00271832 0.000244008 0)
(0.00265977 0.000322825 0)
(0.00258494 0.000401076 0)
(0.00249409 0.000478918 0)
(0.00238747 0.000556615 0)
(0.00226532 0.000634419 0)
(0.0021278 0.000712335 0)
(0.00197503 0.000789823 0)
(0.00180724 0.000865462 0)
(0.00162498 0.000936547 0)
(0.00142943 0.000998602 0)
(0.00122274 0.0010451 0)
(0.00100839 0.00106742 0)
(0.000791526 0.00105518 0)
(0.000579327 0.000996969 0)
(0.000381222 0.000881987 0)
(0.000209318 0.000702687 0)
(7.99508e-05 0.000458743 0)
(6.39651e-06 0.000163195 0)
(-6.69218e-06 0.000202521 0)
(-8.44975e-05 0.000563452 0)
(-0.000222231 0.000856477 0)
(-0.000405052 0.00106916 0)
(-0.000615115 0.00120329 0)
(-0.000839076 0.00126833 0)
(-0.00106679 0.00127782 0)
(-0.00129052 0.00124525 0)
(-0.00150458 0.00118303 0)
(-0.00170546 0.00110226 0)
(-0.00189121 0.00101098 0)
(-0.00206082 0.000914148 0)
(-0.00221371 0.000814843 0)
(-0.00234951 0.000715277 0)
(-0.00246801 0.000616646 0)
(-0.00256911 0.000519171 0)
(-0.00265282 0.000422466 0)
(-0.00271914 0.00032612 0)
(-0.00276805 0.000229918 0)
(-0.00279953 0.000133835 0)
(-0.00281361 3.78865e-05 0)
(-0.00281038 -5.79226e-05 0)
(-0.00278994 -0.000153578 0)
(-0.0027524 -0.000249013 0)
(-0.00269791 -0.000344065 0)
(-0.00262667 -0.00043855 0)
(-0.00253898 -0.000532311 0)
(-0.00243517 -0.000625245 0)
(-0.0023156 -0.000717274 0)
(-0.00218056 -0.00080838 0)
(-0.00203023 -0.000898559 0)
(-0.00186463 -0.000987503 0)
(-0.00168368 -0.00107444 0)
(-0.0014873 -0.00115808 0)
(-0.00127571 -0.0012365 0)
(-0.00104964 -0.00130737 0)
(-0.000810498 -0.00136815 0)
(-0.000560344 -0.00141648 0)
(-0.000301807 -0.00145039 0)
(-3.79133e-05 -0.00146836 0)
(0.000228056 -0.0014695 0)
(0.000492697 -0.00145354 0)
(0.000752622 -0.0014209 0)
(0.00100459 -0.00137271 0)
(0.00124564 -0.0013107 0)
(0.00147326 -0.00123713 0)
(0.00168558 -0.00115456 0)
(0.00188144 -0.00106557 0)
(0.00206037 -0.000972488 0)
(0.00222239 -0.000877101 0)
(0.00236773 -0.000780593 0)
(0.00249664 -0.000683573 0)
(0.00260922 -0.000586234 0)
(0.00270539 -0.000488563 0)
(0.00278494 -0.000390532 0)
(0.00284753 -0.000292162 0)
(0.00289284 -0.00019358 0)
(0.00292062 -9.49838e-05 0)
(0.00293074 3.39355e-06 0)
(0.00292311 0.000101329 0)
(0.00289771 0.000198632 0)
(0.0028546 0.000295176 0)
(0.00279387 0.000390913 0)
(0.00271574 0.000485837 0)
(0.00262051 0.000580062 0)
(0.00250856 0.000673849 0)
(0.00238021 0.000767503 0)
(0.00223572 0.00086109 0)
(0.00207526 0.000954047 0)
(0.00189907 0.00104476 0)
(0.00170772 0.00113002 0)
(0.00150243 0.00120458 0)
(0.00128544 0.00126073 0)
(0.00106036 0.00128834 0)
(0.00083258 0.0012751 0)
(0.000609588 0.00120735 0)
(0.000401273 0.00107182 0)
(0.000220317 0.000858583 0)
(8.38752e-05 0.000565473 0)
(6.67332e-06 0.000203925 0)
(-7.01651e-06 0.00024568 0)
(-8.90831e-05 0.000676687 0)
(-0.000234842 0.00102232 0)
(-0.000428415 0.00127085 0)
(-0.000650778 0.00142613 0)
(-0.000887589 0.0015001 0)
(-0.001128 0.00150932 0)
(-0.00136385 0.00146963 0)
(-0.00158917 0.00139565 0)
(-0.00180034 0.00130025 0)
(-0.00199544 0.0011928 0)
(-0.00217352 0.00107905 0)
(-0.0023341 0.000962465 0)
(-0.00247683 0.000845398 0)
(-0.00260145 0.000729087 0)
(-0.00270772 0.000613798 0)
(-0.00279549 0.000499167 0)
(-0.00286462 0.000384811 0)
(-0.00291503 0.000270562 0)
(-0.00294677 0.000156482 0)
(-0.00295996 4.26589e-05 0)
(-0.00295478 -7.08633e-05 0)
(-0.00293145 -0.000184076 0)
(-0.00289012 -0.000296918 0)
(-0.00283096 -0.000409181 0)
(-0.00275428 -0.000520589 0)
(-0.00266048 -0.000630891 0)
(-0.00255013 -0.000739936 0)
(-0.00242379 -0.000847675 0)
(-0.00228194 -0.000954202 0)
(-0.00212485 -0.00105969 0)
(-0.00195251 -0.00116403 0)
(-0.00176465 -0.00126656 0)
(-0.00156085 -0.00136586 0)
(-0.00134098 -0.00145961 0)
(-0.00110554 -0.0015448 0)
(-0.000855879 -0.00161813 0)
(-0.000594188 -0.0016766 0)
(-0.000323323 -0.00171769 0)
(-4.65865e-05 -0.00173956 0)
(0.000232464 -0.00174112 0)
(0.000510152 -0.00172204 0)
(0.000782811 -0.00168283 0)
(0.00104691 -0.00162483 0)
(0.00129922 -0.00155015 0)
(0.00153701 -0.00146164 0)
(0.00175828 -0.00136261 0)
(0.00196197 -0.00125643 0)
(0.00214789 -0.00114608 0)
(0.00231645 -0.0010337 0)
(0.00246819 -0.000920552 0)
(0.00260356 -0.000807117 0)
(0.00272268 -0.000693374 0)
(0.00282536 -0.000579092 0)
(0.00291118 -0.000464083 0)
(0.00297954 -0.000348308 0)
(0.00302988 -0.000231952 0)
(0.00306179 -0.000115349 0)
(0.00307502 1.18609e-06 0)
(0.00306943 0.000117371 0)
(0.00304493 0.000232964 0)
(0.00300146 0.000347766 0)
(0.00293906 0.00046162 0)
(0.00285791 0.000574394 0)
(0.00275838 0.000686092 0)
(0.00264095 0.000796942 0)
(0.00250613 0.000907298 0)
(0.00235428 0.00101733 0)
(0.00218564 0.0011265 0)
(0.00200044 0.001233 0)
(0.00179923 0.00133315 0)
(0.00158327 0.00142084 0)
(0.00135489 0.00148717 0)
(0.00111788 0.00152037 0)
(0.000877878 0.00150614 0)
(0.000642798 0.00142841 0)
(0.000423029 0.00127132 0)
(0.000231946 0.00102252 0)
(8.78214e-05 0.000677556 0)
(6.85877e-06 0.000246184 0)
(-7.44735e-06 0.000291275 0)
(-9.47698e-05 0.000796763 0)
(-0.000250326 0.00119836 0)
(-0.000456948 0.00148491 0)
(-0.000694152 0.00166248 0)
(-0.000946377 0.0017456 0)
(-0.00120184 0.00175406 0)
(-0.00145176 0.00170638 0)
(-0.00168992 0.00161967 0)
(-0.0019127 0.00150873 0)
(-0.00211831 0.0013842 0)
(-0.0023059 0.00125263 0)
(-0.00247506 0.0011179 0)
(-0.00262547 0.000982434 0)
(-0.00275679 0.000847473 0)
(-0.00286868 0.000713254 0)
(-0.00296076 0.000579427 0)
(-0.00303269 0.000445675 0)
(-0.00308432 0.000311974 0)
(-0.00311572 0.000178555 0)
(-0.00312717 4.56416e-05 0)
(-0.00311907 -8.66753e-05 0)
(-0.00309174 -0.000218431 0)
(-0.00304539 -0.000349618 0)
(-0.0029802 -0.000479982 0)
(-0.0028965 -0.000609087 0)
(-0.0027949 -0.000736496 0)
(-0.00267625 -0.000861965 0)
(-0.00254146 -0.000985475 0)
(-0.00239132 -0.00110731 0)
(-0.0022263 -0.00122793 0)
(-0.00204641 -0.0013476 0)
(-0.00185112 -0.00146596 0)
(-0.00163956 -0.00158158 0)
(-0.00141107 -0.00169166 0)
(-0.0011658 -0.00179233 0)
(-0.000905051 -0.00187936 0)
(-0.0006312 -0.00194891 0)
(-0.000347394 -0.00199785 0)
(-5.72342e-05 -0.00202401 0)
(0.000235464 -0.0020261 0)
(0.000526793 -0.00200375 0)
(0.000812846 -0.00195753 0)
(0.00108981 -0.00188899 0)
(0.00135414 -0.00180065 0)
(0.00160278 -0.00169601 0)
(0.00183359 -0.00157931 0)
(0.0020456 -0.00145494 0)
(0.00223906 -0.00132672 0)
(0.0024149 -0.00119717 0)
(0.00257413 -0.0010675 0)
(0.00271741 -0.000937866 0)
(0.00284481 -0.000807862 0)
(0.00295595 -0.0006769 0)
(0.00305004 -0.000544554 0)
(0.00312613 -0.00041071 0)
(0.00318329 -0.000275666 0)
(0.00322087 -0.000139983 0)
(0.00323856 -4.15253e-06 0)
(0.00323619 0.000131463 0)
(0.00321359 0.000266624 0)
(0.00317057 0.000401077 0)
(0.00310701 0.000534512 0)
(0.00302304 0.000666593 0)
(0.0029191 0.000797117 0)
(0.00279585 0.000926211 0)
(0.00265404 0.00105428 0)
(0.00249421 0.00118167 0)
(0.00231663 0.00130794 0)
(0.00212147 0.00143117 0)
(0.00190921 0.00154716 0)
(0.00168106 0.00164889 0)
(0.00143942 0.00172615 0)
(0.00118825 0.00176546 0)
(0.000933528 0.00175036 0)
(0.000683648 0.00166225 0)
(0.000449679 0.00148253 0)
(0.000246096 0.0011961 0)
(9.28422e-05 0.000795798 0)
(7.20018e-06 0.000290814 0)
(-8.05648e-06 0.000339968 0)
(-0.00010225 0.000925446 0)
(-0.00027044 0.00138716 0)
(-0.000493712 0.00171437 0)
(-0.000749493 0.00191538 0)
(-0.00102065 0.00200774 0)
(-0.0012942 0.00201453 0)
(-0.0015605 0.00195745 0)
(-0.00181313 0.00185653 0)
(-0.0020487 0.0017288 0)
(-0.00226578 0.00158617 0)
(-0.0024638 0.00143585 0)
(-0.0026424 0.00128203 0)
(-0.00280123 0.00112715 0)
(-0.00293987 0.000972418 0)
(-0.00305781 0.000817975 0)
(-0.00315443 0.000663437 0)
(-0.00322909 0.000508599 0)
(-0.00328146 0.000353713 0)
(-0.00331168 0.000199331 0)
(-0.00332031 4.59075e-05 0)
(-0.00330802 -0.00010643 0)
(-0.00327536 -0.000257853 0)
(-0.00322253 -0.000408497 0)
(-0.00314963 -0.00055807 0)
(-0.00305698 -0.000705854 0)
(-0.00294541 -0.000851077 0)
(-0.00281619 -0.000993299 0)
(-0.00267071 -0.00113251 0)
(-0.00251024 -0.00126926 0)
(-0.00233564 -0.00140446 0)
(-0.00214703 -0.00153902 0)
(-0.00194361 -0.00167319 0)
(-0.00172382 -0.00180569 0)
(-0.00148621 -0.00193319 0)
(-0.00123045 -0.00205066 0)
(-0.000957855 -0.00215261 0)
(-0.000671104 -0.00223416 0)
(-0.000373737 -0.00229157 0)
(-6.96612e-05 -0.00232235 0)
(0.000237113 -0.0023251 0)
(0.000542549 -0.00229938 0)
(0.000842604 -0.00224584 0)
(0.00113324 -0.00216613 0)
(0.00141053 -0.00206313 0)
(0.00167098 -0.00194109 0)
(0.00191213 -0.00180537 0)
(0.00213312 -0.00166179 0)
(0.0023348 -0.00151526 0)
(0.00251897 -0.0013687 0)
(0.00268722 -0.00122302 0)
(0.00284038 -0.00107779 0)
(0.00297841 -0.000931937 0)
(0.00310054 -0.000784362 0)
(0.00320547 -0.000634303 0)
(0.0032917 -0.00048157 0)
(0.00335783 -0.000326679 0)
(0.00340292 -0.000170579 0)
(0.00342662 -1.41032e-05 0)
(0.00342888 0.000142313 0)
(0.00340946 0.000298529 0)
(0.00336795 0.000454301 0)
(0.00330397 0.000609126 0)
(0.00321751 0.000762327 0)
(0.0031091 0.000913329 0)
(0.00297972 0.00106205 0)
(0.0028305 0.00120897 0)
(0.00266222 0.00135473 0)
(0.00247516 0.00149919 0)
(0.00226929 0.00164035 0)
(0.00204486 0.00177348 0)
(0.00180295 0.00189057 0)
(0.00154594 0.00198 0)
(0.00127791 0.00202638 0)
(0.00100517 0.00201091 0)
(0.000736706 0.00191221 0)
(0.000484567 0.00170867 0)
(0.000264891 0.00138186 0)
(9.9894e-05 0.000921864 0)
(7.86621e-06 0.000338749 0)
(-8.88717e-06 0.000392771 0)
(-0.000112197 0.00106541 0)
(-0.000297071 0.00159254 0)
(-0.000541975 0.00196355 0)
(-0.000821187 0.00218897 0)
(-0.00111541 0.00229013 0)
(-0.00141019 0.00229352 0)
(-0.00169486 0.00222472 0)
(-0.00196292 0.00210739 0)
(-0.00221161 0.00196112 0)
(-0.00244032 0.00179915 0)
(-0.00264897 0.00162908 0)
(-0.00283732 0.00145518 0)
(-0.00300487 0.00127979 0)
(-0.00315106 0.00110404 0)
(-0.00327521 0.000927923 0)
(-0.00337639 0.000750908 0)
(-0.00345348 0.000572931 0)
(-0.00350584 0.000394739 0)
(-0.00353371 0.000217472 0)
(-0.00353807 4.19598e-05 0)
(-0.00352009 -0.000131681 0)
(-0.00348061 -0.000303948 0)
(-0.00341978 -0.000475318 0)
(-0.00333739 -0.000645471 0)
(-0.00323366 -0.000813202 0)
(-0.00310969 -0.000977134 0)
(-0.00296729 -0.00113647 0)
(-0.00280853 -0.00129118 0)
(-0.00263533 -0.00144212 0)
(-0.00244919 -0.00159083 0)
(-0.0022506 -0.00173925 0)
(-0.00203846 -0.00188873 0)
(-0.00181026 -0.00203854 0)
(-0.00156331 -0.00218466 0)
(-0.00129663 -0.00232038 0)
(-0.00101168 -0.00243842 0)
(-0.00071173 -0.00253274 0)
(-0.00040084 -0.002599 0)
(-8.31887e-05 -0.00263458 0)
(0.000237171 -0.00263804 0)
(0.000556273 -0.00260898 0)
(0.000870149 -0.002548 0)
(0.00117468 -0.00245673 0)
(0.00146553 -0.00233822 0)
(0.00173854 -0.00219742 0)
(0.00199064 -0.00204117 0)
(0.00222099 -0.00187727 0)
(0.0024314 -0.00171224 0)
(0.00262491 -0.00154935 0)
(0.0028039 -0.00138875 0)
(0.00296929 -0.00122895 0)
(0.00312066 -0.00106797 0)
(0.00325669 -0.000903977 0)
(0.00337541 -0.000735777 0)
(0.00347453 -0.000563112 0)
(0.00355199 -0.00038689 0)
(0.00360655 -0.000208749 0)
(0.003638 -3.01075e-05 0)
(0.00364655 0.000148574 0)
(0.00363196 0.00032747 0)
(0.00359346 0.000506491 0)
(0.0035302 0.000684896 0)
(0.00344193 0.000861437 0)
(0.00332929 0.00103489 0)
(0.00319377 0.00120477 0)
(0.00303712 0.00137168 0)
(0.00286052 0.00153683 0)
(0.00266413 0.00170064 0)
(0.00244754 0.0018612 0)
(0.00221054 0.00201322 0)
(0.00195393 0.00214756 0)
(0.00167989 0.00225104 0)
(0.0013925 0.00230618 0)
(0.00109829 0.00229152 0)
(0.00080688 0.00218256 0)
(0.000531623 0.00195399 0)
(0.000290799 0.00158346 0)
(0.000109613 0.00105864 0)
(8.70959e-06 0.000390475 0)
(-9.98022e-06 0.000451085 0)