/*--------------------------------*- C++ -*----------------------------------*\
| =========                 |                                                 |
| \\      /  F ield         | OpenFOAM: The Open Source CFD Toolbox           |
|  \\    /   O peration     | Version:  2412                                  |
|   \\  /    A nd           | Website:  www.openfoam.com                      |
|    \\/     M anipulation  |                                                 |
\*---------------------------------------------------------------------------*/
FoamFile
{
    version     2.0;
    format      ascii;
    arch        "LSB;label=32;scalar=64";
    class       surfaceScalarField;
    location    "7.25";
    object      alphaPhi0.ethanol;
}
// * * * * * * * * * * * * * * * * * * * * * * * * * * * * * * * * * * * * * //

dimensions      [0 3 -1 0 0 0 0];

oriented        oriented;

internalField   nonuniform List<scalar> 
12640
(
-2.90362e-06
2.90363e-06
-4.46319e-06
1.57021e-06
-4.24935e-06
-2.13916e-07
-2.9943e-06
-1.25705e-06
-1.55638e-06
-1.43899e-06
-6.54837e-07
-9.01716e-07
-7.72058e-07
1.1728e-07
-2.12393e-06
1.35184e-06
-4.68008e-06
2.55604e-06
-8.33734e-06
3.65712e-06
-1.29096e-05
4.57202e-06
-1.82576e-05
5.34793e-06
-2.42774e-05
6.01959e-06
-3.08381e-05
6.56062e-06
-3.78857e-05
7.04704e-06
-4.53312e-05
7.44548e-06
-5.31195e-05
7.78805e-06
-6.1173e-05
8.05349e-06
-6.93904e-05
8.21744e-06
-7.76419e-05
8.25151e-06
-8.57585e-05
8.11673e-06
-9.36023e-05
7.8439e-06
-0.000100964
7.36132e-06
-0.000107611
6.64744e-06
-0.000113322
5.7112e-06
-0.000117859
4.53746e-06
-0.000121
3.14165e-06
-0.000122549
1.54943e-06
-0.000122316
-2.32592e-07
-0.000120157
-2.15847e-06
-0.000115965
-4.19219e-06
-0.000109689
-6.2759e-06
-0.000101321
-8.36778e-06
-9.09617e-05
-1.03594e-05
-7.87146e-05
-1.22468e-05
-6.47834e-05
-1.3931e-05
-4.94107e-05
-1.53725e-05
-3.29026e-05
-1.65081e-05
-1.56409e-05
-1.72616e-05
2.03133e-06
-1.76719e-05
1.97273e-05
-1.76961e-05
3.7049e-05
-1.73219e-05
5.36305e-05
-1.65814e-05
6.91241e-05
-1.54938e-05
8.32171e-05
-1.40932e-05
9.56375e-05
-1.2421e-05
0.000106237
-1.06003e-05
0.000114775
-8.53844e-06
0.000121252
-6.47701e-06
0.000125593
-4.34133e-06
0.000127856
-2.26386e-06
0.000128135
-2.79265e-07
0.000126603
1.53265e-06
0.000123415
3.18775e-06
0.000118769
4.64573e-06
0.000112871
5.898e-06
0.000105945
6.92544e-06
9.82435e-05
7.70083e-06
8.99613e-05
8.28228e-06
8.13409e-05
8.62089e-06
7.25708e-05
8.77105e-06
6.37639e-05
8.8081e-06
5.50733e-05
8.69177e-06
4.66107e-05
8.46352e-06
3.84719e-05
8.13946e-06
3.07644e-05
7.7081e-06
2.35963e-05
7.16842e-06
1.70295e-05
6.56669e-06
1.1216e-05
5.81288e-06
6.26688e-06
4.94906e-06
2.37119e-06
3.89585e-06
-3.0607e-07
2.67717e-06
-1.61444e-06
1.30826e-06
-1.60519e-06
-9.11132e-09
-4.879e-07
-1.11703e-06
1.28852e-06
-1.77625e-06
2.96883e-06
-1.68024e-06
3.63603e-06
-6.67028e-07
2.51393e-06
1.12238e-06
2.51423e-06
-2.16139e-06
5.0544e-06
-9.40361e-07
3.48988e-07
3.82049e-06
-4.97345e-06
1.06058e-05
-8.04181e-06
1.77811e-05
-8.61448e-06
2.40196e-05
-7.14058e-06
2.84218e-05
-4.28524e-06
3.06107e-05
-8.37329e-07
3.05795e-05
2.58706e-06
2.86083e-05
5.62822e-06
2.49983e-05
8.18166e-06
2.00874e-05
1.02585e-05
1.4141e-05
1.19655e-05
7.35827e-06
1.33432e-05
-7.92728e-08
1.44842e-05
-8.07434e-06
1.54404e-05
-1.65348e-05
1.62485e-05
-2.53833e-05
1.69021e-05
-3.45154e-05
1.73497e-05
-4.38188e-05
1.7555e-05
-5.31499e-05
1.7448e-05
-6.23193e-05
1.70136e-05
-7.11206e-05
1.61629e-05
-7.9338e-05
1.48651e-05
-8.67135e-05
1.30871e-05
-9.3009e-05
1.08333e-05
-9.79828e-05
8.11569e-06
-0.000101416
4.98279e-06
-0.00010302
1.3721e-06
-0.000102762
-2.41652e-06
-0.000100464
-6.49051e-06
-9.60525e-05
-1.06871e-05
-8.95594e-05
-1.48607e-05
-8.10083e-05
-1.89102e-05
-7.05605e-05
-2.26944e-05
-5.84166e-05
-2.60746e-05
-4.48593e-05
-2.89295e-05
-3.01736e-05
-3.11937e-05
-1.46369e-05
-3.27985e-05
1.31694e-06
-3.3626e-05
1.72866e-05
-3.36659e-05
3.28655e-05
-3.29012e-05
4.76699e-05
-3.13864e-05
6.13278e-05
-2.91526e-05
7.35535e-05
-2.63198e-05
8.4108e-05
-2.29758e-05
9.27385e-05
-1.92312e-05
9.94191e-05
-1.52194e-05
0.00010395
-1.10088e-05
0.000106361
-6.75185e-06
0.000106681
-2.58299e-06
0.000105071
1.331e-06
0.000101636
4.96761e-06
9.65841e-05
8.23888e-06
9.01458e-05
1.10838e-05
8.25662e-05
1.34778e-05
7.40764e-05
1.54159e-05
6.49173e-05
1.68612e-05
5.53429e-05
1.78582e-05
4.55528e-05
1.84126e-05
3.57265e-05
1.85986e-05
2.60351e-05
1.85001e-05
1.65861e-05
1.81407e-05
7.49816e-06
1.7551e-05
-1.12469e-06
1.67617e-05
-9.15702e-06
1.57396e-05
-1.64863e-05
1.44968e-05
-2.29084e-05
1.29882e-05
-2.82235e-05
1.11278e-05
-3.21167e-05
8.84238e-06
-3.42474e-05
6.02661e-06
-3.42598e-05
2.68977e-06
-3.19153e-05
-1.03599e-06
-2.71889e-05
-4.73521e-06
-2.04917e-05
-7.81403e-06
-1.27768e-05
-9.49113e-06
-5.38776e-06
-9.0695e-06
-2.90051e-08
-6.02618e-06
1.71077e-06
-6.17922e-07
4.22387e-06
-1.00995e-06
6.06426e-06
2.82964e-06
-3.49255e-06
1.12499e-05
-1.3394e-05
2.20132e-05
-1.8805e-05
3.32261e-05
-1.98273e-05
4.31223e-05
-1.70369e-05
5.05655e-05
-1.17286e-05
5.50911e-05
-5.36311e-06
5.67474e-05
9.30542e-07
5.58606e-05
6.51492e-06
5.28716e-05
1.11705e-05
4.81945e-05
1.49357e-05
4.21924e-05
1.79674e-05
3.51259e-05
2.04097e-05
2.71853e-05
2.24249e-05
1.84965e-05
2.41294e-05
9.1662e-06
2.55791e-05
-6.96187e-07
2.67645e-05
-1.09847e-05
2.76383e-05
-2.15761e-05
2.81465e-05
-3.23104e-05
2.81825e-05
-4.29793e-05
2.76826e-05
-5.33596e-05
2.65431e-05
-6.32333e-05
2.47385e-05
-7.22883e-05
2.21417e-05
-8.02785e-05
1.88232e-05
-8.69266e-05
1.47633e-05
-9.19072e-05
9.96279e-06
-9.52002e-05
4.66466e-06
-9.64124e-05
-1.20454e-06
-9.54448e-05
-7.45803e-06
-9.2272e-05
-1.38601e-05
-8.69069e-05
-2.02259e-05
-7.92963e-05
-2.65208e-05
-6.96452e-05
-3.23453e-05
-5.81577e-05
-3.75621e-05
-4.5062e-05
-4.20255e-05
-3.06949e-05
-4.55611e-05
-1.54302e-05
-4.80634e-05
2.67717e-07
-4.93244e-05
1.59965e-05
-4.93955e-05
3.12721e-05
-4.81775e-05
4.56657e-05
-4.57803e-05
5.88613e-05
-4.23479e-05
7.05151e-05
-3.7973e-05
8.03394e-05
-3.28e-05
8.81133e-05
-2.70052e-05
9.36304e-05
-2.07357e-05
9.69594e-05
-1.43371e-05
9.8058e-05
-7.85018e-06
9.69168e-05
-1.44149e-06
9.37419e-05
4.50643e-06
8.87243e-05
9.98663e-06
8.20476e-05
1.49176e-05
7.39729e-05
1.91608e-05
6.47557e-05
2.26968e-05
5.46673e-05
2.55053e-05
4.39702e-05
2.75582e-05
3.29393e-05
2.88879e-05
2.17929e-05
2.95567e-05
1.07245e-05
2.96641e-05
-8.86044e-08
2.93103e-05
-1.05015e-05
2.85512e-05
-2.03888e-05
2.74366e-05
-2.96424e-05
2.60142e-05
-3.81463e-05
2.42437e-05
-4.57384e-05
2.20893e-05
-5.21935e-05
1.94432e-05
-5.72229e-05
1.61568e-05
-6.04468e-05
1.20664e-05
-6.14198e-05
6.99983e-06
-5.96763e-05
9.46036e-07
-5.48836e-05
-5.82892e-06
-4.69988e-05
-1.26203e-05
-3.65067e-05
-1.83066e-05
-2.45998e-05
-2.13989e-05
-1.31103e-05
-2.05603e-05
-3.9818e-06
-1.5156e-05
4.60354e-07
-5.0593e-06
4.68428e-06
-3.86938e-07
6.45285e-06
5.28097e-06
-9.16159e-06
1.64277e-05
-2.45413e-05
3.05046e-05
-3.2882e-05
4.49023e-05
-3.4225e-05
5.74569e-05
-2.95917e-05
6.68392e-05
-2.1111e-05
7.26065e-05
-1.11304e-05
7.49627e-05
-1.42563e-06
7.44281e-05
7.04947e-06
7.15986e-05
1.40003e-05
6.70006e-05
1.95337e-05
6.09962e-05
2.3972e-05
5.38608e-05
2.75453e-05
4.57652e-05
3.05207e-05
3.68165e-05
3.3078e-05
2.71052e-05
3.52906e-05
1.671e-05
3.71598e-05
5.7305e-06
3.86176e-05
-5.70176e-06
3.95786e-05
-1.74219e-05
3.99026e-05
-2.9242e-05
3.95025e-05
-4.09204e-05
3.82212e-05
-5.21364e-05
3.59543e-05
-6.26479e-05
3.26528e-05
-7.21237e-05
2.82987e-05
-8.02454e-05
2.28845e-05
-8.67767e-05
1.64936e-05
-9.13363e-05
9.22393e-06
-9.37758e-05
1.2345e-06
-9.39852e-05
-7.24916e-06
-9.17214e-05
-1.61246e-05
-8.69839e-05
-2.49639e-05
-8.00581e-05
-3.34472e-05
-7.07806e-05
-4.16234e-05
-5.94456e-05
-4.88979e-05
-4.63282e-05
-5.51434e-05
-3.18025e-05
-6.00875e-05
-1.63188e-05
-6.35476e-05
-3.04474e-07
-6.53391e-05
1.56947e-05
-6.53948e-05
3.12373e-05
-6.372e-05
4.58498e-05
-6.03929e-05
5.90687e-05
-5.55674e-05
7.05453e-05
-4.94498e-05
8.00199e-05
-4.22742e-05
8.71319e-05
-3.41167e-05
9.20319e-05
-2.56352e-05
9.44479e-05
-1.67526e-05
9.43179e-05
-7.71962e-06
9.20754e-05
8.02029e-07
8.7615e-05
8.96784e-06
8.12009e-05
1.64014e-05
7.31016e-05
2.30168e-05
6.35933e-05
2.86683e-05
5.29609e-05
3.33276e-05
4.15468e-05
3.69172e-05
2.95959e-05
3.95069e-05
1.74555e-05
4.10264e-05
5.32127e-06
4.16898e-05
-6.57747e-06
4.15624e-05
-1.8055e-05
4.07881e-05
-2.89775e-05
3.94746e-05
-3.9246e-05
3.77065e-05
-4.87716e-05
3.55409e-05
-5.74613e-05
3.29336e-05
-6.51581e-05
2.97861e-05
-7.1647e-05
2.59319e-05
-7.66356e-05
2.11452e-05
-7.97106e-05
1.51412e-05
-8.03363e-05
7.62483e-06
-7.78898e-05
-1.50107e-06
-7.18233e-05
-1.18954e-05
-6.19168e-05
-2.2527e-05
-4.86513e-05
-3.15725e-05
-3.3434e-05
-3.66166e-05
-1.85175e-05
-3.54767e-05
-6.58416e-06
-2.70882e-05
-2.35576e-07
-1.14085e-05
4.44929e-06
-9.66817e-08
6.55021e-06
7.17893e-06
-1.64375e-05
2.1267e-05
-3.86297e-05
3.89083e-05
-5.05233e-05
5.65777e-05
-5.18943e-05
7.14431e-05
-4.44573e-05
8.19749e-05
-3.16429e-05
8.79321e-05
-1.70874e-05
8.98982e-05
-3.39151e-06
8.8769e-05
8.17881e-06
8.53838e-05
1.73858e-05
8.03522e-05
2.45652e-05
7.41433e-05
3.01814e-05
6.69008e-05
3.47875e-05
5.87462e-05
3.86754e-05
4.97257e-05
4.20986e-05
3.98545e-05
4.51617e-05
2.91866e-05
4.78276e-05
1.77783e-05
5.00258e-05
5.73704e-06
5.16196e-05
-6.80253e-06
5.24421e-05
-1.96014e-05
5.23014e-05
-3.24445e-05
5.10644e-05
-4.49686e-05
4.84786e-05
-5.68371e-05
4.45216e-05
-6.77511e-05
3.92128e-05
-7.73087e-05
3.24422e-05
-8.51255e-05
2.43104e-05
-9.0978e-05
1.50763e-05
-9.45444e-05
4.8006e-06
-9.56227e-05
-6.17139e-06
-9.4131e-05
-1.76171e-05
-8.99943e-05
-2.91014e-05
-8.31246e-05
-4.0318e-05
-7.38499e-05
-5.0899e-05
-6.23266e-05
-6.04221e-05
-4.8752e-05
-6.87191e-05
-3.36371e-05
-7.52031e-05
-1.74203e-05
-7.97648e-05
-6.23817e-07
-8.21357e-05
1.61914e-05
-8.22107e-05
3.24526e-05
-7.99821e-05
4.76864e-05
-7.56273e-05
6.13399e-05
-6.92208e-05
7.30469e-05
-6.11561e-05
8.24782e-05
-5.17054e-05
8.95753e-05
-4.12135e-05
9.39361e-05
-2.9996e-05
9.56625e-05
-1.84793e-05
9.48008e-05
-6.85844e-06
9.13875e-05
4.21433e-06
8.56969e-05
1.4657e-05
7.79938e-05
2.41027e-05
6.8483e-05
3.25261e-05
5.75784e-05
3.95718e-05
4.56616e-05
4.52438e-05
3.29544e-05
4.96243e-05
1.99205e-05
5.25416e-05
6.78352e-06
5.41643e-05
-6.15573e-06
5.46301e-05
-1.86753e-05
5.40831e-05
-3.06089e-05
5.27226e-05
-4.18477e-05
5.07135e-05
-5.23228e-05
4.81811e-05
-6.1979e-05
4.51967e-05
-7.07918e-05
4.17459e-05
-7.86757e-05
3.76695e-05
-8.54601e-05
3.27148e-05
-9.09519e-05
2.66356e-05
-9.46638e-05
1.88522e-05
-9.59533e-05
8.91384e-06
-9.39364e-05
-3.51784e-06
-8.76764e-05
-1.81552e-05
-7.65612e-05
-3.36424e-05
-6.08784e-05
-4.72553e-05
-4.22514e-05
-5.52433e-05
-2.36252e-05
-5.41033e-05
-8.63652e-06
-4.20755e-05
-5.76526e-07
-1.9468e-05
3.87327e-06
1.35753e-07
6.41432e-06
9.53333e-06
-2.5835e-05
2.7915e-05
-5.70114e-05
5.05481e-05
-7.31564e-05
7.22303e-05
-7.35765e-05
8.91456e-05
-6.13724e-05
9.97615e-05
-4.22587e-05
0.000104458
-2.17832e-05
0.00010458
-3.51377e-06
0.000101603
1.11559e-05
9.67339e-05
2.22549e-05
9.06432e-05
3.06558e-05
8.3764e-05
3.70609e-05
7.61707e-05
4.2381e-05
6.78332e-05
4.70127e-05
5.86977e-05
5.1234e-05
4.86527e-05
5.52067e-05
3.76961e-05
5.87842e-05
2.58269e-05
6.18951e-05
1.31107e-05
6.43361e-05
-3.04802e-07
6.58579e-05
-1.42049e-05
6.62019e-05
-2.83085e-05
6.51684e-05
-4.22625e-05
6.24331e-05
-5.57119e-05
5.79713e-05
-6.81301e-05
5.16312e-05
-7.91604e-05
4.34726e-05
-8.84357e-05
3.35859e-05
-9.55014e-05
2.21423e-05
-0.000100111
9.41002e-06
-0.000101951
-4.33116e-06
-0.000100949
-1.86192e-05
-9.69805e-05
-3.30711e-05
-8.99513e-05
-4.73482e-05
-8.02005e-05
-6.06508e-05
-6.78248e-05
-7.27985e-05
-5.32875e-05
-8.32567e-05
-3.68288e-05
-9.16622e-05
-1.91571e-05
-9.74372e-05
-8.36813e-07
-0.000100457
1.74831e-05
-0.000100532
3.52089e-05
-9.77083e-05
5.18392e-05
-9.22577e-05
6.65408e-05
-8.39222e-05
7.90794e-05
-7.36941e-05
8.90202e-05
-6.16457e-05
9.63184e-05
-4.85113e-05
0.000100529
-3.42067e-05
0.000101724
-1.96744e-05
0.000100237
-5.37143e-06
9.58587e-05
8.59173e-06
8.89918e-05
2.15234e-05
7.98861e-05
3.32078e-05
6.89943e-05
4.34176e-05
5.65745e-05
5.19918e-05
4.30975e-05
5.8721e-05
2.90693e-05
6.36529e-05
1.47487e-05
6.68627e-05
5.18331e-07
6.83949e-05
-1.3314e-05
6.8462e-05
-2.65394e-05
6.73074e-05
-3.89926e-05
6.51745e-05
-5.05936e-05
6.23135e-05
-6.13325e-05
5.89189e-05
-7.11825e-05
5.50459e-05
-8.02772e-05
5.08402e-05
-8.86194e-05
4.60121e-05
-9.62123e-05
4.03083e-05
-0.000102894
3.33184e-05
-0.000108252
2.42111e-05
-0.000111506
1.21689e-05
-0.000111426
-3.59764e-06
-0.00010647
-2.31111e-05
-9.52524e-05
-4.48607e-05
-7.74174e-05
-6.50905e-05
-5.45857e-05
-7.80747e-05
-3.07246e-05
-7.79638e-05
-1.12267e-05
-6.15739e-05
-8.80714e-07
-2.98133e-05
2.99255e-06
7.60153e-07
5.65387e-06
1.46188e-05
-3.96934e-05
4.07607e-05
-8.3153e-05
7.14272e-05
-0.000103823
9.81639e-05
-0.000100313
0.000116025
-7.92329e-05
0.000124344
-5.05775e-05
0.000125154
-2.25928e-05
0.000121208
4.31906e-07
0.000114802
1.75621e-05
0.000107322
2.97351e-05
9.95461e-05
3.84313e-05
9.16485e-05
4.49582e-05
8.35036e-05
5.05261e-05
7.48905e-05
5.56262e-05
6.55582e-05
6.05668e-05
5.53478e-05
6.54175e-05
4.40395e-05
7.00929e-05
3.15952e-05
7.43396e-05
1.80504e-05
7.78812e-05
3.53681e-06
8.03715e-05
-1.17175e-05
8.1456e-05
-2.7387e-05
8.08377e-05
-4.30746e-05
7.81206e-05
-5.83685e-05
7.32653e-05
-7.2642e-05
6.59051e-05
-8.54688e-05
5.62998e-05
-9.635e-05
4.44676e-05
-0.000104799
3.05921e-05
-0.000110493
1.51037e-05
-0.000113041
-1.7825e-06
-0.000112344
-1.93157e-05
-0.000108085
-3.73305e-05
-0.000100743
-5.46897e-05
-9.00322e-05
-7.13614e-05
-7.62696e-05
-8.6561e-05
-5.99037e-05
-9.96232e-05
-4.1427e-05
-0.000110139
-2.15987e-05
-0.000117265
-9.65935e-07
-0.000121089
1.97285e-05
-0.000121225
3.96756e-05
-0.000117654
5.81892e-05
-0.00011077
7.4739e-05
-0.000100472
8.87582e-05
-8.77135e-05
9.97359e-05
-7.26245e-05
0.000107334
-5.61105e-05
0.000111893
-3.87655e-05
0.000112975
-2.07576e-05
0.00011073
-3.1259e-06
0.000105299
1.40242e-05
9.71152e-05
2.97083e-05
8.64672e-05
4.38569e-05
7.38475e-05
5.6038e-05
5.96264e-05
6.62134e-05
4.44026e-05
7.39448e-05
2.85854e-05
7.94697e-05
1.26816e-05
8.27658e-05
-2.90874e-06
8.39842e-05
-1.78895e-05
8.34418e-05
-3.19935e-05
8.14109e-05
-4.50887e-05
7.82697e-05
-5.71367e-05
7.43619e-05
-6.81696e-05
6.99525e-05
-7.83724e-05
6.52497e-05
-8.78611e-05
6.033e-05
-9.69154e-05
5.50677e-05
-0.000105648
4.90411e-05
-0.000114222
4.18924e-05
-0.000122368
3.23565e-05
-0.0001293
1.91003e-05
-0.000133497
5.99318e-07
-0.000132612
-2.39962e-05
-0.000123799
-5.36739e-05
-0.000104954
-8.39351e-05
-7.67802e-05
-0.000106248
-4.44531e-05
-0.00011029
-1.67642e-05
-8.92625e-05
-1.73318e-06
-4.48438e-05
1.25947e-06
3.23743e-06
2.41635e-06
2.67298e-05
-6.31852e-05
6.7566e-05
-0.000123989
0.000110913
-0.000147169
0.000143206
-0.000132606
0.00015892
-9.49469e-05
0.000160126
-5.17826e-05
0.000152371
-1.48378e-05
0.000140884
1.19191e-05
0.000128834
2.96113e-05
0.000117689
4.08805e-05
0.000107731
4.83887e-05
9.86645e-05
5.40251e-05
9.00528e-05
5.9138e-05
8.1333e-05
6.43463e-05
7.19883e-05
6.99119e-05
6.15964e-05
7.58096e-05
4.99394e-05
8.17498e-05
3.68351e-05
8.7444e-05
2.2289e-05
9.24271e-05
6.42422e-06
9.62362e-05
-1.05083e-05
9.83885e-05
-2.81899e-05
9.85195e-05
-4.60485e-05
9.59796e-05
-6.3596e-05
9.08132e-05
-8.01599e-05
8.24691e-05
-9.51559e-05
7.12963e-05
-0.000107963
5.72753e-05
-0.00011811
4.07399e-05
-0.000124923
2.19178e-05
-0.000128387
1.68181e-06
-0.000127863
-1.98383e-05
-0.000123673
-4.15189e-05
-0.000115385
-6.29773e-05
-0.000103178
-8.35678e-05
-8.76008e-05
-0.000102137
-6.90108e-05
-0.000118212
-4.78624e-05
-0.000131287
-2.49416e-05
-0.000140185
-1.09247e-06
-0.000144937
2.27809e-05
-0.000145098
4.57879e-05
-0.000140662
6.71113e-05
-0.000132095
8.58692e-05
-0.00011923
0.000101737
-0.000103581
0.000114252
-8.51392e-05
0.00012289
-6.4748e-05
0.000127523
-4.33977e-05
0.00012839
-2.16242e-05
0.000125246
1.89857e-08
0.000118864
2.04065e-05
0.000109172
3.94003e-05
9.66263e-05
5.6402e-05
8.18473e-05
7.08166e-05
6.54042e-05
8.26559e-05
4.79178e-05
9.14304e-05
2.99419e-05
9.74448e-05
1.20714e-05
0.000100636
-5.26351e-06
0.000101318
-2.16384e-05
9.98162e-05
-3.68085e-05
9.6581e-05
-5.06411e-05
9.2103e-05
-6.3152e-05
8.68733e-05
-7.44883e-05
8.12889e-05
-8.48611e-05
7.5622e-05
-9.46473e-05
7.01161e-05
-0.000104346
6.47659e-05
-0.000114496
5.91907e-05
-0.000125463
5.28592e-05
-0.000137589
4.44829e-05
-0.00015049
3.20011e-05
-0.000162639
1.27483e-05
-0.000170735
-1.59006e-05
-0.000169328
-5.50806e-05
-0.000152624
-0.000100638
-0.000118513
-0.000140358
-7.28376e-05
-0.000155966
-2.97198e-05
-0.000132379
-4.4917e-06
-7.00718e-05
-3.23227e-06
9.84982e-06
-7.4332e-06
5.15843e-05
-0.000104919
0.000115082
-0.000187485
0.000174255
-0.000206342
0.00021051
-0.00016886
0.000219398
-0.000103835
0.000207528
-3.99117e-05
0.00018561
7.08005e-06
0.000162656
3.48734e-05
0.000142777
4.94897e-05
0.000126977
5.66808e-05
0.000114833
6.05326e-05
0.000104954
6.39039e-05
9.62808e-05
6.7811e-05
8.78856e-05
7.27413e-05
7.88556e-05
7.89417e-05
6.85418e-05
8.61233e-05
5.66176e-05
9.36741e-05
4.28546e-05
0.000101207
2.71762e-05
0.000108106
9.69492e-06
0.000113718
-9.31914e-06
0.000117403
-2.9419e-05
0.00011862
-4.99786e-05
0.000116539
-7.03828e-05
0.000111217
-8.98511e-05
0.000101938
-0.000107634
8.90791e-05
-0.000122924
7.2566e-05
-0.000135162
5.29793e-05
-0.000143623
3.03789e-05
-0.000147916
5.97579e-06
-0.000147812
-1.9942e-05
-0.000143106
-4.62236e-05
-0.000133517
-7.25662e-05
-0.000119889
-9.71942e-05
-0.000101964
-0.000120062
-8.033e-05
-0.000139845
-5.5789e-05
-0.000155827
-2.90455e-05
-0.000166929
-1.18396e-06
-0.000172799
2.66963e-05
-0.000172979
5.34668e-05
-0.000167432
7.81828e-05
-0.000156811
0.000100066
-0.000141113
0.000118289
-0.000121804
0.000132258
-9.9108e-05
0.000142257
-7.47469e-05
0.000147395
-4.8536e-05
0.000148047
-2.22775e-05
0.000144226
3.83935e-06
0.000136187
2.8445e-05
0.00012435
5.12368e-05
0.000109576
7.11765e-05
9.2131e-05
8.82629e-05
7.29267e-05
0.000101862
5.25964e-05
0.000111762
3.19276e-05
0.000118115
1.15558e-05
0.000121009
-7.85973e-06
0.000120736
-2.5897e-05
0.000117855
-4.22729e-05
0.000112957
-5.68631e-05
0.000106693
-6.97509e-05
9.97603e-05
-8.11468e-05
9.2684e-05
-9.13591e-05
8.5834e-05
-0.000101025
7.97821e-05
-0.000110988
7.47284e-05
-0.000122213
7.04164e-05
-0.000135754
6.64008e-05
-0.000152869
6.15994e-05
-0.000174056
5.3188e-05
-0.000198199
3.6892e-05
-0.000220968
6.86947e-06
-0.00023287
-4.31788e-05
-0.00022287
-0.000110637
-0.000184365
-0.000178862
-0.00012222
-0.000218111
-5.56968e-05
-0.000198902
-1.14363e-05
-0.000114332
-1.46683e-05
2.20404e-05
-2.9473e-05
8.98538e-05
-0.000172731
0.000176924
-0.000274555
0.000247137
-0.000276555
0.000282043
-0.000203766
0.000280684
-0.000102476
0.000253799
-1.30267e-05
0.000216538
4.43412e-05
0.000181007
7.04047e-05
0.0001531
7.73965e-05
0.000133271
7.65086e-05
0.000119683
7.41202e-05
0.000110026
7.35612e-05
0.000102418
7.54188e-05
9.49191e-05
8.02397e-05
8.66869e-05
8.71738e-05
7.69455e-05
9.58649e-05
6.50434e-05
0.000105577
5.06892e-05
0.000115562
3.37874e-05
0.000125008
1.44158e-05
0.00013309
-7.18948e-06
0.000139008
-3.02018e-05
0.000141632
-5.41602e-05
0.000140497
-7.81207e-05
0.000135178
-0.000101216
0.000125033
-0.000122467
0.000110329
-0.00014084
9.09393e-05
-0.000155426
6.7565e-05
-0.000166032
4.09843e-05
-0.00017147
1.14139e-05
-0.000171826
-1.95854e-05
-0.000166439
-5.16103e-05
-0.000156065
-8.29391e-05
-0.000140195
-0.000113064
-0.000119266
-0.000140991
-9.40389e-05
-0.000165073
-6.53563e-05
-0.000184511
-3.39872e-05
-0.000198299
-1.23607e-06
-0.000205551
3.15511e-05
-0.000205767
6.30601e-05
-0.000198942
9.18338e-05
-0.000185585
0.000117159
-0.000166438
0.000138336
-0.000142982
0.000154667
-0.00011544
0.000165556
-8.56368e-05
0.000171461
-5.44415e-05
0.00017164
-2.24562e-05
0.00016692
8.56062e-06
0.000157077
3.82886e-05
0.000142984
6.53319e-05
0.000125068
8.90952e-05
0.000104325
0.000109007
8.15747e-05
0.000124613
5.77238e-05
0.000135614
3.36386e-05
0.000142201
1.02361e-05
0.000144412
-1.17134e-05
0.000142685
-3.16936e-05
0.000137834
-4.93783e-05
0.000130641
-6.46613e-05
0.000121975
-7.76477e-05
0.000112746
-8.86221e-05
0.000103658
-9.81899e-05
9.54015e-05
-0.00010715
8.87431e-05
-0.000116349
8.39276e-05
-0.000127647
8.17142e-05
-0.000142884
8.1637e-05
-0.000164465
8.31805e-05
-0.000194091
8.28144e-05
-0.000231172
7.39734e-05
-0.00026932
4.50171e-05
-0.000295946
-1.65523e-05
-0.000295752
-0.000110831
-0.000258252
-0.000216362
-0.000184929
-0.000291432
-9.47445e-05
-0.000289087
-2.41241e-05
-0.000184952
-3.87919e-05
3.87573e-05
-6.82296e-05
0.000130018
-0.000263991
0.000226094
-0.00037063
0.000291636
-0.000342097
0.000316759
-0.000228888
0.000305847
-9.15632e-05
0.00027045
2.23702e-05
0.000225406
8.93846e-05
0.00018416
0.000111651
0.000153188
0.000108369
0.000132921
9.67763e-05
0.00012067
8.63716e-05
0.000113331
8.09009e-05
0.000107951
8.07991e-05
0.000102834
8.53566e-05
9.64046e-05
9.36028e-05
8.77233e-05
0.000104546
7.61704e-05
0.000117129
6.13462e-05
0.000130385
4.31328e-05
0.000143221
2.1469e-05
0.000154753
-2.95987e-06
0.000163436
-2.97513e-05
0.000168422
-5.79679e-05
0.000168713
-8.64186e-05
0.000163628
-0.000114144
0.000152758
-0.000139614
0.000135798
-0.000161966
0.000113291
-0.00018003
8.56282e-05
-0.000192914
5.38675e-05
-0.00019988
1.83793e-05
-0.000200551
-1.89151e-05
-0.000194961
-5.7201e-05
-0.00018274
-9.51612e-05
-0.000164103
-0.000131702
-0.000140092
-0.000165003
-0.000110612
-0.000194553
-7.68735e-05
-0.000218249
-3.99196e-05
-0.000235252
-1.26918e-06
-0.000244201
3.73928e-05
-0.000244428
7.42844e-05
-0.000235833
0.000108194
-0.000219495
0.000138001
-0.000196245
0.000162408
-0.000167388
0.00018132
-0.000134352
0.000194023
-9.83397e-05
0.000200217
-6.06362e-05
0.00020029
-2.25296e-05
0.000194051
1.48001e-05
0.000181855
5.04837e-05
0.000164628
8.25574e-05
0.000143024
0.000110698
0.000118087
0.000133942
9.093e-05
0.000151769
6.26454e-05
0.000163897
3.43384e-05
0.000170507
7.29672e-06
0.000171453
-1.77555e-05
0.000167737
-4.00278e-05
0.000160106
-5.91069e-05
0.00014972
-7.49473e-05
0.000137815
-8.76901e-05
0.000125489
-9.77642e-05
0.000113732
-0.000105708
0.000103346
-0.000112536
9.55702e-05
-0.0001198
9.11896e-05
-0.000129105
9.10186e-05
-0.00014321
9.57407e-05
-0.000165445
0.000105414
-0.000198216
0.000115585
-0.000240775
0.000116533
-0.000286133
9.03747e-05
-0.000320534
1.78489e-05
-0.000329379
-0.000101986
-0.000301599
-0.000244141
-0.00023334
-0.000359691
-0.000134764
-0.000387662
-4.11369e-05
-0.000278579
-7.99291e-05
5.35362e-05
-0.000121765
0.00014886
-0.000359315
0.000227203
-0.000448972
0.000268902
-0.000383795
0.000277215
-0.000237202
0.000260905
-7.52529e-05
0.00022865
5.46261e-05
0.000191734
0.0001263
0.000159177
0.000144208
0.000135823
0.000131724
0.00012227
0.000110329
0.000116117
9.25254e-05
0.000114047
8.29715e-05
0.000113391
8.14542e-05
0.00011211
8.66372e-05
0.000108483
9.7229e-05
0.000101679
0.000111349
9.09554e-05
0.000127852
7.58707e-05
0.000145469
5.61899e-05
0.000162901
3.21429e-05
0.000178799
3.99285e-06
0.000191586
-2.73925e-05
0.000199807
-6.08495e-05
0.00020217
-9.49498e-05
0.000197728
-0.00012836
0.000186168
-0.000159301
0.000166739
-0.000186488
0.000140478
-0.000208549
0.00010769
-0.000224135
6.94527e-05
-0.000233208
2.74523e-05
-0.000234453
-1.76706e-05
-0.000228086
-6.35684e-05
-0.000213832
-0.000109417
-0.000192695
-0.000152839
-0.000164451
-0.000193246
-0.000129748
-0.000229256
-9.00693e-05
-0.000257926
-4.66744e-05
-0.000278646
-1.25391e-06
-0.00028962
4.42211e-05
-0.000289901
8.7683e-05
-0.000279294
0.000127257
-0.000259068
0.000162167
-0.000231154
0.000190758
-0.00019598
0.000212498
-0.000156091
0.000227259
-0.0001131
0.000234244
-6.76207e-05
0.000233747
-2.20325e-05
0.000225515
2.30332e-05
0.000210879
6.51198e-05
0.00018981
0.000103627
0.000163535
0.000136972
0.000133392
0.000164085
0.000100736
0.000184424
6.68954e-05
0.000197737
3.34375e-05
0.000203964
1.77745e-06
0.000203112
-2.68989e-05
0.000196412
-5.1805e-05
0.000185012
-7.24296e-05
0.000170344
-8.86298e-05
0.000154016
-0.000100643
0.000137502
-0.000108949
0.000122037
-0.000114375
0.000108771
-0.000117761
9.89553e-05
-0.000120545
9.39737e-05
-0.000124796
9.52698e-05
-0.000133076
0.00010402
-0.000148612
0.00012095
-0.000173457
0.00014043
-0.000206767
0.000149842
-0.00024327
0.000126878
-0.00027422
4.87993e-05
-0.000288529
-8.76763e-05
-0.000277887
-0.000254781
-0.000233846
-0.000403731
-0.000153332
-0.000468176
-5.59309e-05
-0.000375978
-0.00013586
5.56479e-05
-0.000177413
0.000125369
-0.000429035
0.000162185
-0.000485789
0.000169515
-0.000391123
0.000160739
-0.000228426
0.000144972
-5.94855e-05
0.000128366
7.12333e-05
0.000113644
0.000141022
0.00010289
0.000154962
9.83034e-05
0.000136311
9.92951e-05
0.000109338
0.00010453
8.72902e-05
0.000111286
7.62157e-05
0.000117789
7.49516e-05
0.000121854
8.25718e-05
0.000122448
9.66347e-05
0.000118512
0.000115285
0.000109272
0.000137092
9.42667e-05
0.000160474
7.32425e-05
0.000183925
4.62437e-05
0.000205798
1.37543e-05
0.000224075
-2.3221e-05
0.000236783
-6.31701e-05
0.000242119
-0.000104266
0.000238824
-0.000144475
0.000226378
-0.000182139
0.000204403
-0.000215334
0.000173674
-0.000242437
0.000134792
-0.000261961
8.89749e-05
-0.000272847
3.83374e-05
-0.0002747
-1.58175e-05
-0.000267177
-7.1092e-05
-0.000250826
-0.000125767
-0.000225663
-0.000178001
-0.000192184
-0.000226725
-0.000151844
-0.000269595
-0.000105217
-0.000304552
-5.42231e-05
-0.00032964
-1.16936e-06
-0.000342674
5.18478e-05
-0.000342918
0.000102902
-0.000330348
0.00014956
-0.000305726
0.000190023
-0.000271616
0.000223534
-0.000229489
0.000249102
-0.000181657
0.00026577
-0.000129766
0.000274213
-7.60625e-05
0.000273264
-2.10827e-05
0.000263515
3.27824e-05
0.000245178
8.34567e-05
0.000219339
0.000129466
0.000187468
0.000168842
0.00015097
0.000200583
0.000111661
0.000223734
7.10348e-05
0.000238363
3.13518e-05
0.000243647
-5.93756e-06
0.000240402
-3.91502e-05
0.000229626
-6.70878e-05
0.00021295
-8.92041e-05
0.00019246
-0.00010542
0.000170231
-0.000116096
0.000148177
-0.000121801
0.000127742
-0.000123326
0.000110297
-0.000121557
9.71868e-05
-0.000117678
9.00949e-05
-0.000113346
9.09384e-05
-0.000110661
0.000101335
-0.000111634
0.000121923
-0.000117676
0.000146473
-0.000128793
0.000160959
-0.000143435
0.00014152
-0.000159121
6.44872e-05
-0.000173657
-7.31353e-05
-0.000180792
-0.000247642
-0.000171238
-0.000413285
-0.000131559
-0.000507854
-5.86882e-05
-0.000448849
-0.000194548
3.81209e-05
-0.000215534
5.59409e-05
-0.000446855
4.23701e-05
-0.000472218
1.94662e-05
-0.000368219
2.00588e-07
-0.00020916
-1.00636e-05
-4.92211e-05
-6.82211e-06
6.79919e-05
5.81336e-06
0.000128387
2.35378e-05
0.000137238
4.2992e-05
0.000116857
6.29292e-05
8.94009e-05
8.22245e-05
6.79951e-05
0.000100318
5.81228e-05
0.000115593
5.96772e-05
0.000127094
7.10711e-05
0.00013337
9.03595e-05
0.000133474
0.000115181
0.00012669
0.000143876
0.000112386
0.000174779
9.02039e-05
0.000206107
6.01231e-05
0.000235879
2.27062e-05
0.000261493
-2.07129e-05
0.000280202
-6.82043e-05
0.000289611
-0.000117357
0.000287977
-0.000165682
0.000274702
-0.000211048
0.000249768
-0.000251274
0.0002139
-0.00028424
0.000167758
-0.000307727
0.000112463
-0.000320568
5.11793e-05
-0.000322869
-1.35164e-05
-0.000313653
-8.03074e-05
-0.000294184
-0.000145237
-0.000264279
-0.000207906
-0.000225243
-0.000265762
-0.000177908
-0.000316931
-0.000123017
-0.000359443
-6.3528e-05
-0.000389129
-1.15674e-06
-0.000405044
6.11806e-05
-0.000405255
0.000120626
-0.000389792
0.000175394
-0.000360493
0.000222965
-0.000319186
0.000262203
-0.000268727
0.000292417
-0.000211871
0.000312548
-0.000149898
0.000322267
-8.57823e-05
0.000321199
-2.00162e-05
0.000309447
4.45325e-05
0.000287404
0.000105499
0.000256108
0.000160761
0.000217645
0.000207305
0.000174091
0.000244136
0.000127241
0.000270584
7.90941e-05
0.00028651
3.21342e-05
0.000290607
-1.15962e-05
0.000284133
-4.98185e-05
0.000267848
-8.10602e-05
0.000244191
-0.000104542
0.000215942
-0.000120281
0.000185972
-0.000128796
0.000156694
-0.000130867
0.000129814
-0.000127287
0.000106718
-0.000118857
8.87573e-05
-0.000106578
7.78163e-05
-9.16187e-05
7.59792e-05
-7.51848e-05
8.49014e-05
-5.75282e-05
0.000104266
-3.99493e-05
0.000128894
-2.36957e-05
0.000144706
-1.14998e-05
0.000129325
-8.58838e-06
6.15759e-05
-1.83864e-05
-6.33371e-05
-3.70376e-05
-0.000228991
-5.80299e-05
-0.00039229
-6.7292e-05
-0.000498592
-4.34065e-05
-0.000472734
-0.000237954
3.54213e-06
-0.000219076
-3.4241e-05
-0.000409072
-8.90422e-05
-0.000417416
-0.000136284
-0.000320977
-0.000163783
-0.000181662
-0.00016601
-4.69934e-05
-0.00014563
4.7612e-05
-0.000110384
9.31423e-05
-6.98891e-05
9.67429e-05
-3.06047e-05
7.75731e-05
5.36721e-06
5.34293e-05
3.76784e-05
3.56841e-05
6.68448e-05
2.89569e-05
9.24825e-05
3.40401e-05
0.000113187
5.03669e-05
0.000127247
7.63004e-05
0.000133494
0.000108935
0.00013064
0.000146731
0.000118131
0.000187288
9.54324e-05
0.000228806
6.25426e-05
0.000268769
2.00904e-05
0.000303945
-3.02101e-05
0.000330502
-8.57047e-05
0.000345105
-0.000143455
0.000345727
-0.000200391
0.000331638
-0.000253919
0.000303296
-0.000301249
0.000261231
-0.000339938
0.000206447
-0.000367925
0.00014045
-0.000382684
6.59388e-05
-0.000383123
-1.30766e-05
-0.000371879
-9.15513e-05
-0.000347685
-0.00016943
-0.000312254
-0.000243337
-0.000266033
-0.000311984
-0.000209849
-0.000373115
-0.000145881
-0.000423412
-7.53116e-05
-0.000459699
-1.29669e-06
-0.000479059
7.2704e-05
-0.000479256
0.000143445
-0.000460532
0.000207572
-0.000424621
0.000263616
-0.00037523
0.000310158
-0.00031527
0.000345374
-0.000247089
0.000370163
-0.000174689
0.00038242
-9.80401e-05
0.000383033
-2.06308e-05
0.000369744
5.78198e-05
0.0003438
0.000131441
0.000307572
0.00019699
0.00026275
0.000252127
0.000211937
0.00029495
0.00015726
0.000325262
0.000101614
0.000342156
4.70942e-05
0.000345127
-3.19822e-06
0.000334425
-4.63011e-05
0.000310952
-8.05458e-05
0.000278437
-0.000104862
0.000240259
-0.000119332
0.000200442
-0.000124672