/*--------------------------------*- C++ -*----------------------------------*\
| =========                 |                                                 |
| \\      /  F ield         | OpenFOAM: The Open Source CFD Toolbox           |
|  \\    /   O peration     | Version:  2412                                  |
|   \\  /    A nd           | Website:  www.openfoam.com                      |
|    \\/     M anipulation  |                                                 |
\*---------------------------------------------------------------------------*/
FoamFile
{
    version     2.0;
    format      ascii;
    arch        "LSB;label=32;scalar=64";
    class       surfaceScalarField;
    location    "5.95";
    object      alphaPhi0.soap;
}
// * * * * * * * * * * * * * * * * * * * * * * * * * * * * * * * * * * * * * //

dimensions      [0 3 -1 0 0 0 0];

oriented        oriented;

internalField   nonuniform List<scalar> 
12640
(
-1.2695e-05
1.2695e-05
-2.10182e-05
8.32343e-06
-3.06725e-05
9.65443e-06
-4.08702e-05
1.01975e-05
-5.10485e-05
1.01781e-05
-6.1006e-05
9.95729e-06
-7.07058e-05
9.69966e-06
-8.01441e-05
9.43795e-06
-8.93384e-05
9.19384e-06
-9.81419e-05
8.803e-06
-0.000106499
8.35631e-06
-0.000114351
7.85115e-06
-0.000121697
7.34582e-06
-0.000128535
6.83738e-06
-0.00013474
6.20365e-06
-0.000140187
5.44566e-06
-0.000144753
4.56492e-06
-0.000148351
3.59734e-06
-0.000150883
2.53091e-06
-0.000152318
1.4338e-06
-0.000152642
3.22585e-07
-0.000151838
-8.05427e-07
-0.00014998
-1.85859e-06
-0.000147156
-2.82463e-06
-0.000143464
-3.6923e-06
-0.000138985
-4.47925e-06
-0.000133738
-5.24667e-06
-0.000127585
-6.1525e-06
-0.000120567
-7.01814e-06
-0.00011273
-7.83792e-06
-0.000104137
-8.59251e-06
-9.49017e-05
-9.23587e-06
-8.51916e-05
-9.71086e-06
-7.48556e-05
-1.0337e-05
-6.36743e-05
-1.11814e-05
-5.14978e-05
-1.2176e-05
-3.83017e-05
-1.31958e-05
-2.43337e-05
-1.39679e-05
-9.77986e-06
-1.45538e-05
4.96477e-06
-1.47445e-05
1.95328e-05
-1.45679e-05
3.3489e-05
-1.3956e-05
4.64626e-05
-1.29731e-05
5.82355e-05
-1.17723e-05
6.84934e-05
-1.02569e-05
7.74128e-05
-8.91797e-06
8.49297e-05
-7.51568e-06
9.13711e-05
-6.44036e-06
9.72406e-05
-5.86846e-06
0.000102453
-5.21195e-06
0.000107099
-4.64611e-06
0.000111084
-3.98486e-06
0.000114383
-3.30033e-06
0.000117123
-2.74004e-06
0.000119355
-2.23284e-06
0.000121103
-1.74785e-06
0.00012231
-1.20837e-06
0.000122856
-5.46929e-07
0.000122676
1.7946e-07
0.000121715
9.6066e-07
0.000119963
1.75188e-06
0.000117429
2.53244e-06
0.000114165
3.26194e-06
0.000110235
3.92898e-06
0.000105773
4.46042e-06
0.000100913
4.85942e-06
9.57729e-05
5.14059e-06
9.03441e-05
5.42897e-06
8.45438e-05
5.80031e-06
7.83298e-05
6.21411e-06
7.17433e-05
6.58722e-06
6.48449e-05
6.90009e-06
5.76132e-05
7.23328e-06
5.00302e-05
7.58374e-06
4.20848e-05
7.94562e-06
3.38486e-05
8.23777e-06
2.54455e-05
8.40473e-06
1.73957e-05
8.04944e-06
1.06132e-05
6.78199e-06
1.06145e-05
-1.45076e-05
2.72027e-05
-2.43711e-05
1.81869e-05
-3.5476e-05
2.07591e-05
-4.67446e-05
2.14658e-05
-5.74506e-05
2.08839e-05
-6.74978e-05
2.0004e-05
-7.68661e-05
1.90675e-05
-8.55985e-05
1.81695e-05
-9.37273e-05
1.73217e-05
-0.000101399
1.64738e-05
-0.000108717
1.56731e-05
-0.000115693
1.48259e-05
-0.000122272
1.39231e-05
-0.000128324
1.28878e-05
-0.000133766
1.16436e-05
-0.000138537
1.02151e-05
-0.000142549
8.57424e-06
-0.000145627
6.67418e-06
-0.000147708
4.60918e-06
-0.000148718
2.44162e-06
-0.000148485
8.79594e-08
-0.000147022
-2.26963e-06
-0.00014424
-4.64147e-06
-0.000140163
-6.90271e-06
-0.000134785
-9.07171e-06
-0.000128223
-1.10413e-05
-0.000120525
-1.29454e-05
-0.000112061
-1.46168e-05
-0.000102904
-1.61753e-05
-9.32449e-05
-1.74965e-05
-8.3311e-05
-1.85265e-05
-7.30402e-05
-1.95066e-05
-6.24006e-05
-2.03498e-05
-5.15196e-05
-2.12171e-05
-4.08219e-05
-2.18786e-05
-3.05512e-05
-2.24465e-05
-2.07634e-05
-2.29833e-05
-1.14348e-05
-2.32958e-05
-2.65732e-06
-2.33305e-05
5.68915e-06
-2.30899e-05
1.36417e-05
-2.25192e-05
2.13717e-05
-2.16847e-05
2.89949e-05
-2.0595e-05
3.66332e-05
-1.94092e-05
4.4447e-05
-1.80697e-05
5.23423e-05
-1.68123e-05
6.03105e-05
-1.54835e-05
6.81759e-05
-1.43061e-05
7.53507e-05
-1.30441e-05
8.22999e-05
-1.21622e-05
8.87214e-05
-1.10692e-05
9.47341e-05
-9.99922e-06
0.000100373
-8.94085e-06
0.000105375
-7.74282e-06
0.000109638
-6.4975e-06
0.000113045
-5.15543e-06
0.000115515
-3.67961e-06
0.000117061
-2.094e-06
0.000117703
-4.6483e-07
0.000117476
1.18584e-06
0.000116425
2.80152e-06
0.00011462
4.33728e-06
0.00011213
5.75132e-06
0.000109028
7.03036e-06
0.000105433
8.05485e-06
0.000101339
8.95352e-06
9.68133e-05
9.66621e-06
9.18914e-05
1.03507e-05
8.67238e-05
1.09679e-05
8.1323e-05
1.16157e-05
7.5639e-05
1.22732e-05
6.95006e-05
1.30403e-05
6.28076e-05
1.39269e-05
5.54977e-05
1.48937e-05
4.75146e-05
1.593e-05
3.88219e-05
1.69322e-05
2.95268e-05
1.76991e-05
2.0317e-05
1.72577e-05
1.23058e-05
1.47947e-05
2.29201e-05
-1.39693e-05
4.11721e-05
-2.32408e-05
2.74584e-05
-3.38395e-05
3.13578e-05
-4.4847e-05
3.24733e-05
-5.54476e-05
3.14843e-05
-6.54773e-05
3.00336e-05
-7.49718e-05
2.85615e-05
-8.39577e-05
2.71546e-05
-9.25057e-05
2.58687e-05
-0.000100674
2.46409e-05
-0.000108484
2.34826e-05
-0.000115981
2.23218e-05
-0.000123073
2.10137e-05
-0.000129707
1.95202e-05
-0.000135731
1.76668e-05
-0.000141034
1.55167e-05
-0.000145509
1.30468e-05
-0.00014897
1.01341e-05
-0.000151349
6.98619e-06
-0.000152557
3.64744e-06
-0.000152509
3.79691e-08
-0.000151202
-3.57881e-06
-0.00014864
-7.20534e-06
-0.000144826
-1.07187e-05
-0.000139865
-1.40337e-05
-0.000133742
-1.7165e-05
-0.000126639
-2.00486e-05
-0.000118631
-2.2624e-05
-0.00010999
-2.4815e-05
-0.00010086
-2.66249e-05
-9.09324e-05
-2.84512e-05
-8.05941e-05
-2.9842e-05
-6.97891e-05
-3.11528e-05
-5.87499e-05
-3.2255e-05
-4.74843e-05
-3.31428e-05
-3.62766e-05
-3.36526e-05
-2.51998e-05
-3.40586e-05
-1.43263e-05
-3.41681e-05
-3.80476e-06
-3.38513e-05
6.33613e-06
-3.32308e-05
1.61269e-05
-3.23104e-05
2.56193e-05
-3.1178e-05
3.47851e-05
-2.97618e-05
4.36497e-05
-2.8275e-05
5.22548e-05
-2.66762e-05
6.05728e-05
-2.51319e-05
6.85795e-05
-2.34917e-05
7.60928e-05
-2.18211e-05
8.32271e-05
-2.01802e-05
8.95733e-05
-1.85096e-05
9.55096e-05
-1.7006e-05
0.000101143
-1.56331e-05
0.000106153
-1.39517e-05
0.000110624
-1.22142e-05
0.000114428
-1.03014e-05
0.00011748
-8.20865e-06
0.000119707
-5.90784e-06
0.000120993
-3.38029e-06
0.000121396
-8.67014e-07
0.000120897
1.68571e-06
0.000119504
4.1955e-06
0.000117308
6.53364e-06
0.000114335
8.72369e-06
0.000110725
1.06385e-05
0.000106548
1.22304e-05
0.000101952
1.35498e-05
9.6958e-05
1.46597e-05
9.17142e-05
1.55937e-05
8.62355e-05
1.64456e-05
8.05543e-05
1.72968e-05
7.45545e-05
1.82734e-05
6.81776e-05
1.94167e-05
6.13402e-05
2.07624e-05
5.39724e-05
2.22604e-05
4.60125e-05
2.38902e-05
3.74421e-05
2.55018e-05
2.83719e-05
2.67668e-05
1.95646e-05
2.60659e-05
1.20752e-05
2.2284e-05
3.49946e-05
-1.43627e-05
5.55349e-05
-2.34583e-05
3.65542e-05
-3.41339e-05
4.20337e-05
-4.53945e-05
4.37341e-05
-5.62229e-05
4.23128e-05
-6.63789e-05
4.01894e-05
-7.59402e-05
3.81222e-05
-8.48966e-05
3.61102e-05
-9.34098e-05
3.4381e-05
-0.000101606
3.28364e-05
-0.00010951
3.13854e-05
-0.000117162
2.99728e-05
-0.000124482
2.83335e-05
-0.000131398
2.64344e-05
-0.000137784
2.40514e-05
-0.000143528
2.12595e-05
-0.000148402
1.79194e-05
-0.000152273
1.40037e-05
-0.000154989
9.70048e-06
-0.000156456
5.11337e-06
-0.000156576
1.56437e-07
-0.000155325
-4.83139e-06
-0.00015274
-9.79277e-06
-0.000148937
-1.45227e-05
-0.000143887
-1.90847e-05
-0.000137785
-2.32672e-05
-0.000130702
-2.7131e-05
-0.000122872
-3.04541e-05
-0.000114132
-3.35529e-05
-0.000104777
-3.59773e-05
-9.4979e-05
-3.82476e-05
-8.47228e-05
-4.00959e-05
-7.4075e-05
-4.1799e-05
-6.31139e-05
-4.32154e-05
-5.18699e-05
-4.43871e-05
-4.02986e-05
-4.52248e-05
-2.85465e-05
-4.58119e-05
-1.67006e-05
-4.60153e-05
-4.79574e-06
-4.57571e-05
7.00824e-06
-4.5035e-05
1.8497e-05
-4.37988e-05
2.93132e-05
-4.19931e-05
3.96306e-05
-4.0078e-05
4.9177e-05
-3.78202e-05
5.80611e-05
-3.55591e-05
6.61726e-05
-3.32422e-05
7.37761e-05
-3.10945e-05
8.0836e-05
-2.88794e-05
8.74565e-05
-2.67988e-05
9.36618e-05
-2.47133e-05
9.94458e-05
-2.2789e-05
0.000104688
-2.08746e-05
0.000109494
-1.87564e-05
0.000113767
-1.64871e-05
0.00011746
-1.39949e-05
0.000120446
-1.11944e-05
0.000122606
-8.06892e-06
0.000123927
-4.70236e-06
0.000124244
-1.18565e-06
0.000123574
2.35424e-06
0.000121977
5.79143e-06
0.000119493
9.01619e-06
0.000116209
1.20063e-05
0.000112252
1.45959e-05
0.00010777
1.67126e-05
0.000102878
1.84423e-05
9.77328e-05
1.98048e-05
9.24201e-05
2.09062e-05
8.6949e-05
2.19171e-05
8.13119e-05
2.29351e-05
7.5416e-05
2.41701e-05
6.91735e-05
2.56591e-05
6.24292e-05
2.75074e-05
5.50839e-05
2.96081e-05
4.70193e-05
3.19568e-05
3.8215e-05
3.43064e-05
2.88789e-05
3.61054e-05
1.99914e-05
3.49554e-05
1.24338e-05
2.98441e-05
4.74303e-05
-1.51496e-05
7.06846e-05
-2.4202e-05
4.5607e-05
-3.51028e-05
5.29349e-05
-4.68118e-05
5.54434e-05
-5.79903e-05
5.34913e-05
-6.82459e-05
5.04448e-05
-7.75944e-05
4.74703e-05
-8.64452e-05
4.49605e-05
-9.48024e-05
4.27378e-05
-0.000102901
4.09344e-05
-0.000110828
3.93115e-05
-0.000118634
3.77777e-05
-0.000126266
3.59645e-05
-0.00013358
3.37475e-05
-0.000140447
3.0917e-05
-0.000146707
2.75188e-05
-0.000152076
2.32872e-05
-0.000156396
1.83229e-05
-0.000159441
1.27443e-05
-0.000161104
6.77541e-06
-0.000161296
3.47877e-07
-0.000160007
-6.1202e-06
-0.0001573
-1.25002e-05
-0.000153174
-1.86486e-05
-0.000147808
-2.44503e-05
-0.000141324
-2.97516e-05
-0.000133854
-3.46017e-05
-0.000125503
-3.88053e-05
-0.00011652
-4.25374e-05
-0.000106736
-4.57639e-05
-9.66056e-05
-4.83806e-05
-8.61063e-05
-5.05977e-05
-7.5211e-05
-5.26962e-05
-6.41275e-05
-5.42999e-05
-5.26974e-05
-5.58169e-05
-4.08882e-05
-5.70327e-05
-2.88514e-05
-5.78467e-05
-1.66179e-05
-5.82465e-05
-4.10298e-06
-5.82696e-05
8.17573e-06
-5.73115e-05
2.0098e-05
-5.57192e-05
3.1433e-05
-5.3327e-05
4.19053e-05
-5.05498e-05
5.15225e-05
-4.74374e-05
6.03199e-05
-4.43563e-05
6.83762e-05
-4.12976e-05
7.5789e-05
-3.8507e-05
8.26876e-05
-3.57783e-05
8.91891e-05
-3.33005e-05
9.5432e-05
-3.0956e-05
0.000101201
-2.85578e-05
0.000106498
-2.61715e-05
0.000111514
-2.37736e-05
0.000116108
-2.10834e-05
0.000120082
-1.79699e-05
0.000123317
-1.44309e-05
0.000125706
-1.04577e-05
0.000127111
-6.10674e-06
0.000127484
-1.55769e-06
0.000126798
3.0404e-06
0.000125012
7.57777e-06
0.000122262
1.17659e-05
0.000118615
1.56537e-05
0.000114271
1.89392e-05
0.00010935
2.16338e-05
0.000104128
2.36651e-05
9.87448e-05
2.51888e-05
9.33009e-05
2.63515e-05
8.78622e-05
2.7358e-05
8.23644e-05
2.84354e-05
7.67368e-05
2.97991e-05
7.07773e-05
3.16195e-05
6.43746e-05
3.39121e-05
5.71415e-05
3.68439e-05
4.89867e-05
4.01123e-05
3.9872e-05
4.34221e-05
3.01157e-05
4.58659e-05
2.08614e-05
4.42094e-05
1.30953e-05
3.7612e-05
6.05267e-05
-1.59988e-05
8.66836e-05
-2.51764e-05
5.47852e-05
-3.64425e-05
6.42015e-05
-4.88006e-05
6.78018e-05
-6.03849e-05
6.50757e-05
-7.07249e-05
6.07848e-05
-7.99076e-05
5.6653e-05
-8.83379e-05
5.33907e-05
-9.63597e-05
5.07593e-05
-0.000104193
4.87676e-05
-0.000112205
4.73226e-05
-0.000120225
4.5796e-05
-0.000128313
4.40518e-05
-0.000136213
4.16461e-05
-0.000143752
3.84556e-05
-0.000150736
3.45015e-05
-0.000156777
2.93278e-05
-0.000161694
2.3239e-05
-0.000165199
1.62487e-05
-0.000167112
8.6882e-06
-0.000167415
6.51363e-07
-0.000166034
-7.50137e-06
-0.00016308
-1.54537e-05
-0.000158555
-2.31737e-05
-0.0001527
-3.03059e-05
-0.000145668
-3.67853e-05
-0.000137652
-4.26193e-05
-0.000128645
-4.78146e-05
-0.000119063
-5.21223e-05
-0.000108916
-5.59124e-05
-9.85337e-05
-5.87628e-05
-8.75678e-05
-6.15612e-05
-7.63176e-05
-6.3943e-05
-6.48918e-05
-6.57225e-05
-5.31927e-05
-6.75134e-05
-4.11156e-05
-6.91082e-05
-2.85925e-05
-7.03689e-05
-1.57713e-05
-7.10675e-05
-2.84395e-06
-7.11974e-05
9.86025e-06
-7.00169e-05
2.21614e-05
-6.8022e-05
3.37944e-05
-6.49616e-05
4.44835e-05
-6.124e-05
5.41581e-05
-5.71134e-05
6.27441e-05
-5.29442e-05
7.06349e-05
-4.91902e-05
7.79063e-05
-4.57796e-05
8.47096e-05
-4.25825e-05
9.09822e-05
-3.95741e-05
9.70521e-05
-3.70269e-05
0.000102886
-3.43925e-05
0.000108507
-3.17929e-05
0.000113847
-2.91125e-05
0.000118795
-2.60291e-05
0.000123211
-2.23842e-05
0.000126865
-1.80831e-05
0.000129604
-1.31963e-05
0.000131272
-7.77416e-06
0.000131766
-2.05156e-06
0.000130993
3.81384e-06
0.000128988
9.58384e-06
0.000125807
1.49473e-05
0.000121594
1.98668e-05
0.000116683
2.38505e-05
0.000111247
2.70705e-05
0.000105528
2.9385e-05
9.98035e-05
3.09135e-05
9.42212e-05
3.19343e-05
8.8823e-05
3.27564e-05
8.35524e-05
3.37058e-05
7.83292e-05
3.50217e-05
7.29255e-05
3.70232e-05
6.69256e-05
3.99133e-05
5.99955e-05
4.37732e-05
5.1761e-05
4.83451e-05
4.21211e-05
5.30637e-05
3.17426e-05
5.62444e-05
2.20348e-05
5.39162e-05
1.40555e-05
4.55924e-05
7.45808e-05
-1.68267e-05
0.000103511
-2.61101e-05
6.4069e-05
-3.81136e-05
7.62054e-05
-5.14795e-05
8.1168e-05
-6.37479e-05
7.73442e-05
-7.40789e-05
7.1116e-05
-8.28435e-05
6.54178e-05
-9.05961e-05
6.11433e-05
-9.80909e-05
5.82539e-05
-0.000105668
5.63439e-05
-0.000113593
5.52473e-05
-0.00012193
5.41331e-05
-0.000130515
5.26364e-05
-0.000139154
5.02833e-05
-0.000147619
4.69199e-05
-0.000155506
4.23878e-05
-0.000162569
3.63895e-05
-0.000168335
2.90033e-05
-0.000172425
2.0338e-05
-0.000174715
1.09772e-05
-0.00017511
1.04548e-06
-0.000173615
-8.99721e-06
-0.000170271
-1.87978e-05
-0.00016529
-2.81553e-05
-0.000158781
-3.6815e-05
-0.000150955
-4.46109e-05
-0.000142106
-5.14664e-05
-0.000132413
-5.75053e-05
-0.000122105
-6.24264e-05
-0.000111594
-6.6421e-05
-0.000100342
-7.00136e-05
-8.90749e-05
-7.28282e-05
-7.77101e-05
-7.5309e-05
-6.59887e-05
-7.74457e-05
-5.40171e-05
-7.94869e-05
-4.15178e-05
-8.16095e-05
-2.85747e-05
-8.33138e-05
-1.52075e-05
-8.4436e-05
-1.56385e-06
-8.48418e-05
1.20242e-05
-8.36049e-05
2.51261e-05
-8.11233e-05
3.71264e-05
-7.69613e-05
4.79154e-05
-7.20283e-05
5.74896e-05
-6.66866e-05
6.59845e-05
-6.14378e-05
7.35603e-05
-5.67656e-05
8.05362e-05
-5.27551e-05
8.70383e-05
-4.90844e-05
9.32734e-05
-4.58083e-05
9.90616e-05
-4.28129e-05
0.000104876
-4.02041e-05
0.000110821
-3.7735e-05
0.000116543
-3.48332e-05
0.000121984
-3.14707e-05
0.000126925
-2.73254e-05
0.000131214
-2.23722e-05
0.000134504
-1.64871e-05
0.000136579
-9.84964e-06
0.000137215
-2.68889e-06
0.000136343
4.68527e-06
0.00013397
1.19563e-05
0.000130208
1.8708e-05
0.000125309
2.47651e-05
0.000119509
2.96497e-05
0.000113267
3.33119e-05
0.000106961
3.5689e-05
0.000100772
3.71012e-05
9.49897e-05
3.77162e-05
8.96081e-05
3.81373e-05
8.47022e-05
3.86108e-05
8.01059e-05
3.96175e-05
7.54917e-05
4.16385e-05
7.03204e-05
4.50859e-05
6.37941e-05
5.02989e-05
5.55182e-05
5.66224e-05
4.53824e-05
6.32038e-05
3.38189e-05
6.78062e-05
2.32629e-05
6.4476e-05
1.49968e-05
5.38602e-05
8.95782e-05
-1.73606e-05
0.000120872
-2.67165e-05
7.3425e-05
-3.9765e-05
8.92541e-05
-5.52782e-05
9.66814e-05
-6.83951e-05
9.04612e-05
-7.85641e-05
8.1285e-05
-8.65111e-05
7.33648e-05
-9.3148e-05
6.77801e-05
-9.95254e-05
6.46311e-05
-0.000106624
6.34424e-05
-0.00011453
6.31536e-05
-0.000123269
6.28718e-05
-0.000132594
6.19612e-05
-0.00014231
5.99974e-05
-0.00015201
5.66191e-05
-0.000161214
5.15898e-05
-0.000169571
4.47458e-05
-0.000176456
3.58863e-05
-0.000181323
2.52034e-05
-0.000184066
1.37198e-05
-0.000184563
1.5406e-06
-0.000182812
-1.07483e-05
-0.000178951
-2.26599e-05
-0.000173215
-3.38907e-05
-0.00016585
-4.41789e-05
-0.000157099
-5.33613e-05
-0.000147291
-6.12747e-05
-0.000136616
-6.81815e-05
-0.0001254
-7.3644e-05
-0.000113901
-7.79237e-05
-0.00010236
-8.1558e-05
-9.07796e-05
-8.44118e-05
-7.91306e-05
-8.69594e-05
-6.7329e-05
-8.92475e-05
-5.51096e-05
-9.17056e-05
-4.22421e-05
-9.4476e-05
-2.87307e-05
-9.6824e-05
-1.45027e-05
-9.86628e-05
2.5103e-07
-9.95945e-05
1.47852e-05
-9.81384e-05
2.8749e-05
-9.50865e-05
4.14393e-05
-8.96512e-05
5.25258e-05
-8.31148e-05
6.19874e-05
-7.61486e-05
7.01358e-05
-6.95857e-05
7.71912e-05
-6.38205e-05
8.35242e-05
-5.90874e-05
8.9392e-05
-5.49511e-05
9.51183e-05
-5.15341e-05
0.000100987
-4.86827e-05
0.000107028
-4.62457e-05
0.000112942
-4.36493e-05
0.000119145
-4.10367e-05
0.000125367
-3.76943e-05
0.000131259
-3.32178e-05
0.000136419
-2.7534e-05
0.000140504
-2.05732e-05
0.000143133
-1.24794e-05
0.000144064
-3.62097e-06
0.000143088
5.65963e-06
0.000140255
1.47889e-05
0.000135717
2.3244e-05
0.000129804
3.06771e-05
0.000122845
3.6607e-05
0.000115465
4.06914e-05
0.000108157
4.29964e-05
0.000101279
4.39789e-05
9.52137e-05
4.37808e-05
9.00405e-05
4.33103e-05
8.55956e-05
4.30559e-05
8.19406e-05
4.32736e-05
7.85825e-05
4.4998e-05
7.46309e-05
4.90372e-05
6.91794e-05
5.57503e-05
6.08604e-05
6.49435e-05
4.96326e-05
7.44318e-05
3.62511e-05
8.11866e-05
2.42614e-05
7.64689e-05
1.57505e-05
6.23699e-05
0.00010533
-1.82887e-05
0.00013916
-2.82881e-05
8.34243e-05
-4.18895e-05
0.000102855
-6.00952e-05
0.000114887
-7.50558e-05
0.000105422
-8.49744e-05
9.12035e-05
-9.13509e-05
7.9741e-05
-9.59987e-05
7.24278e-05
-0.000100798
6.94306e-05
-0.000106883
6.95274e-05
-0.000114713
7.09831e-05
-0.000124038
7.2197e-05
-0.000134353
7.22757e-05
-0.00014535
7.09933e-05
-0.000156787
6.80557e-05
-0.00016784
6.26424e-05
-0.000177849
5.47552e-05
-0.000186082
4.41189e-05
-0.000192109
3.12289e-05
-0.000195433
1.70427e-05
-0.000196003
2.11007e-06
-0.000193884
-1.28682e-05
-0.000189283
-2.72627e-05
-0.000182564
-4.06114e-05
-0.00017405
-5.26952e-05
-0.0001642
-6.32148e-05
-0.000153095
-7.2384e-05
-0.000141399
-7.98802e-05
-0.000129037
-8.60078e-05
-0.000116382
-9.05798e-05
-0.000104176
-9.37637e-05
-9.2266e-05
-9.63203e-05
-8.0583e-05
-9.86416e-05
-6.86805e-05
-0.00010115
-5.64053e-05
-0.000103981
-4.34932e-05
-0.000107389
-2.92777e-05
-0.00011104
-1.41352e-05
-0.000113806
1.94835e-06
-0.000115679
1.82406e-05
-0.000114432
3.3782e-05
-0.000110629
4.73414e-05
-0.000103211
5.86285e-05
-9.4402e-05
6.79086e-05
-8.54292e-05
7.53341e-05
-7.70116e-05
8.1331e-05
-6.98176e-05
8.66424e-05
-6.43996e-05
9.16764e-05
-5.99858e-05
9.68365e-05
-5.66943e-05
0.000102331
-5.41772e-05
0.000108226
-5.21416e-05
0.000114855
-5.02804e-05
0.000121738
-4.79199e-05
0.000128957
-4.49134e-05
0.000136086
-4.03461e-05
0.000142563
-3.40107e-05
0.000147795
-2.58038e-05
0.000151269
-1.59524e-05
0.000152573
-4.92468e-06
0.000151502
6.73112e-06
0.000148072
1.82196e-05
0.000142498
2.88179e-05
0.000135172
3.8003e-05
0.000126644
4.51352e-05
0.00011764
4.96957e-05
0.00010888
5.17564e-05
0.000101137
5.17211e-05
9.46367e-05
5.02802e-05
8.94459e-05
4.84998e-05
8.57524e-05
4.67485e-05
8.3472e-05
4.55538e-05
8.22053e-05
4.62646e-05
8.08037e-05
5.04373e-05
7.68198e-05
5.97349e-05
6.84067e-05
7.33583e-05
5.53751e-05
8.74609e-05
3.85376e-05
9.80273e-05
2.51084e-05
8.98971e-05
1.6154e-05
7.1324e-05
0.000121483
-1.97069e-05
0.000158867
-3.66133e-05
0.00010033
-4.95886e-05
0.00011583
-6.86621e-05
0.00013396
-8.4626e-05
0.000121385
-9.37452e-05
0.000100323
-9.75855e-05
8.35812e-05
-9.87782e-05
7.36204e-05
-0.000100782
7.14346e-05
-0.00010548
7.42246e-05
-0.000113157
7.866e-05
-0.000123227
8.22677e-05
-0.000134861
8.39091e-05
-0.000147613
8.37463e-05
-0.000161225
8.16679e-05
-0.000174823
7.624e-05
-0.000187304
6.72366e-05
-0.000197606
5.44206e-05
-0.000204962
3.85854e-05
-0.000208973
2.10525e-05
-0.000209536
2.67328e-06
-0.000206864
-1.55402e-05
-0.000201336
-3.27914e-05
-0.000193347
-4.8602e-05
-0.000183428
-6.2616e-05
-0.000171909
-7.47361e-05
-0.000159091
-8.52037e-05
-0.000145588
-9.3382e-05
-0.000131794
-9.98011e-05
-0.000118291
-0.000104083
-0.000105359
-0.000106698
-9.31336e-05
-0.000108547
-8.14034e-05
-0.000110374
-7.00688e-05
-0.000112486
-5.79706e-05
-0.00011608
-4.48811e-05
-0.000120479
-3.03904e-05
-0.000125531
-1.36495e-05
-0.000130548
4.22332e-06
-0.000133552
2.29846e-05
-0.000133193
4.06439e-05
-0.000128288
5.4877e-05
-0.000117444
6.62468e-05
-0.000105771
7.46719e-05
-9.38537e-05
8.09149e-05
-8.32545e-05
8.56462e-05
-7.45482e-05
8.97406e-05
-6.84929e-05
9.36661e-05
-6.39114e-05
9.79662e-05
-6.09955e-05
0.000102902
-5.91136e-05
0.000108828
-5.80661e-05
0.000115691
-5.71415e-05
0.000123787
-5.60146e-05
0.000132416
-5.35418e-05
0.000141325
-4.92568e-05
0.000149606
-4.22924e-05
0.000156452
-3.26499e-05
0.000161087
-2.05883e-05
0.000162933
-6.7712e-06
0.000161768
7.89633e-06
0.000157636
2.23525e-05
0.000150565
3.589e-05
0.000141297
4.7271e-05
0.00013033
5.61024e-05
0.00011884
6.11852e-05
0.00010823
6.23664e-05
9.9303e-05
6.06475e-05
9.24738e-05
5.71088e-05
8.77108e-05
5.32626e-05
8.49579e-05
4.95019e-05
8.44818e-05
4.60302e-05
8.63112e-05
4.44356e-05
8.88504e-05
4.78994e-05
8.76174e-05
6.09704e-05
7.89922e-05
8.19834e-05
6.31035e-05
0.000103348
4.29882e-05
0.000118145
2.91047e-05
0.000103778
1.78767e-05
8.25537e-05
0.000139359
-1.05714e-05
0.000169438
-5.13576e-05
0.000141116
-7.30011e-05
0.000137473
-8.97867e-05
0.000150745
-0.00010375
0.000135348
-0.000107808
0.00010438
-0.000105508
8.12812e-05
-0.000100368
6.84805e-05
-9.76963e-05
6.87624e-05
-0.000100659
7.71877e-05
-0.000108754
8.67539e-05
-0.000120475
9.39896e-05
-0.000134509
9.79423e-05
-0.000150059
9.9297e-05
-0.000166486
9.80948e-05
-0.000183111
9.28653e-05
-0.000198667
8.27928e-05
-0.000211299
6.7053e-05
-0.000220329
4.76165e-05
-0.000225061
2.5785e-05
-0.000225487
3.09967e-06
-0.000221919
-1.91088e-05
-0.000214966
-3.9745e-05
-0.000205242
-5.83254e-05
-0.000193426
-7.44298e-05
-0.000180021
-8.81404e-05
-0.000165237
-9.99871e-05
-0.000149535
-0.000109084
-0.000133814
-0.000115524
-0.000118866
-0.000119033
-0.000105202
-0.000120363
-9.28781e-05
-0.000120873
-8.1717e-05
-0.000121536
-7.08935e-05
-0.00012331
-5.98614e-05
-0.000127113
-4.70553e-05
-0.000133286
-3.22509e-05
-0.000140337
-1.50616e-05
-0.000147738
5.72328e-06
-0.000154337
2.98397e-05
-0.00015731
5.18846e-05
-0.000150333
6.72509e-05
-0.00013281
7.69309e-05
-0.000115452
8.32612e-05
-0.000100184
8.72915e-05
-8.72838e-05
9.00447e-05
-7.7301e-05
9.21567e-05
-7.06047e-05
9.45323e-05
-6.62858e-05
9.75154e-05
-6.39777e-05
0.000101816
-6.34141e-05
0.000107557
-6.38073e-05
0.000115094
-6.46795e-05
0.000124305
-6.52282e-05
0.000135035
-6.42725e-05
0.000146404
-6.06272e-05
0.000157352
-5.32413e-05
0.000166554
-4.18516e-05
0.000172885
-2.69198e-05
0.000175526
-9.41201e-06
0.000174169
9.25386e-06
0.000168908
2.76137e-05
0.000160272
4.45266e-05
0.000148648
5.88942e-05
0.000134957
6.97938e-05
0.000120558
7.55838e-05
0.000107207
7.57172e-05
9.65527e-05
7.13003e-05
8.89225e-05
6.47378e-05
8.37559e-05
5.84282e-05
8.16415e-05
5.16154e-05
8.34519e-05
4.42189e-05
9.03443e-05
3.75419e-05
0.000100005
3.82397e-05
0.00010397
5.70055e-05
9.65243e-05
8.94286e-05
7.87644e-05
0.000121112
5.6667e-05
0.000140241
4.17049e-05
0.000118741
1.69698e-05
0.000107288
0.000156328
1.67874e-05
0.000152597
-3.3434e-05
0.000191121
-0.000109938
0.000213976
-0.00014005
0.000180858
-0.000143907
0.000139205
-0.000137075
9.75486e-05
-0.000121469
6.56756e-05
-0.000102774
4.97854e-05
-9.21913e-05
5.81798e-05
-9.34516e-05
7.84481e-05
-0.000104359
9.7661e-05
-0.000120473
0.000110103
-0.000138633
0.000116102
-0.000158068
0.000118731
-0.000178617
0.000118644
-0.000199269
0.000113517
-0.000217687
0.000101211
-0.000232786
8.21519e-05
-0.000243153
5.79835e-05
-0.000248152
3.07839e-05
-0.000247764
2.71171e-06
-0.000242212
-2.46598e-05
-0.000232434
-4.95201e-05
-0.000219727
-7.103e-05
-0.000205221
-8.8935e-05
-0.000189346
-0.000104017
-0.000172322
-0.000117012
-0.000153926
-0.000127482
-0.000135375
-0.000134076
-0.000117983
-0.000136427
-0.000102883
-0.000135464
-9.05549e-05
-0.000133202
-8.02101e-05
-0.000131881
-7.11359e-05
-0.000132385
-6.20544e-05
-0.000136195
-5.20959e-05
-0.000143245
-3.94892e-05
-0.000152944
-2.13933e-05
-0.000165833
4.87081e-06
-0.000180601
3.8712e-05
-0.00019115
6.92247e-05
-0.000180846
8.69099e-05
-0.000150495
9.43008e-05
-0.000122841
9.59348e-05
-0.000101817
9.53743e-05
-8.67228e-05
9.39099e-05
-7.58362e-05
9.30999e-05
-6.97952e-05
9.32029e-05
-6.6389e-05
9.51461e-05
-6.5921e-05
9.90108e-05
-6.7279e-05
0.000104958
-6.97545e-05
0.000113365
-7.30864e-05
0.000124332
-7.61928e-05
0.000137666
-7.76055e-05
0.000152288
-7.52479e-05
0.000167129
-6.80812e-05
0.000180416
-5.51393e-05
0.000190004
-3.65081e-05
0.000194351
-1.3759e-05
0.000192951
1.06545e-05
0.000186545
3.40188e-05
0.000176258
5.48132e-05
0.000162548
7.2603e-05
0.000146099
8.6243e-05
0.000128022
9.36607e-05
0.000110949
9.27898e-05
9.76562e-05
8.45927e-05
8.86531e-05
7.37408e-05
8.27221e-05
6.43599e-05
7.95998e-05
5.47375e-05
8.30031e-05
4.08151e-05
9.78087e-05
2.27371e-05
0.000122963
1.30869e-05
0.000138678
4.12904e-05
0.000133175
9.49317e-05
0.000114743
0.000139546
9.1847e-05
0.000163134
5.48284e-05
0.000155762
1.18964e-06
0.000160926
0.00015752
3.70295e-05
0.000115447
7.0125e-05
0.000157035
-3.34219e-05
0.000316601
-0.000166925
0.000314362
-0.000200795
0.000173076
-0.000188794
8.55478e-05
-0.000156629
3.35106e-05
-0.000112188
5.34572e-06
-8.64839e-05
3.24756e-05
-8.74269e-05
7.93905e-05
-0.0001037
0.000113934
-0.000123939
0.000130341
-0.000142712
0.000134875
-0.000163343
0.000139361
-0.000190235
0.000145536
-0.000219853
0.000143135
-0.000246617
0.000127974
-0.000266589
0.000102122
-0.000279249
7.06429e-05
-0.000284748
3.62823e-05
-0.000282868
8.32186e-07
-0.000274045
-3.34831e-05
-0.000259756
-6.38113e-05
-0.000242326
-8.84623e-05
-0.000223814
-0.000107449
-0.00020495
-0.000122883
-0.000184803
-0.00013716
-0.000162787
-0.000149498
-0.000139815
-0.000157048
-0.000118251
-0.000157991
-0.000100197
-0.000153519
-8.65895e-05
-0.000146809
-7.72118e-05
-0.000141259
-7.15799e-05
-0.000138017
-6.74769e-05
-0.000140299
-6.28789e-05
-0.000147843
-5.32047e-05
-0.000162617
-3.19971e-05
-0.00018704
3.17067e-06
-0.000215769
4.74273e-05
-0.000235407
8.76788e-05
-0.000221097
0.000112064
-0.00017488
0.000119263
-0.00013004
0.000116121
-9.86752e-05
0.000107413
-7.80149e-05
9.82115e-05
-6.66344e-05
9.18891e-05
-6.34713e-05
8.99685e-05
-6.44671e-05
9.19249e-05
-6.78771e-05
9.67906e-05
-7.21446e-05
0.000104135
-7.70982e-05
0.000114086
-8.30372e-05
0.000127553
-8.96583e-05
0.000144477
-9.45296e-05
0.00016418
-9.49511e-05
0.000185167
-8.90681e-05
0.000204836
-7.48079e-05
0.000219619
-5.12909e-05
0.000226708
-2.08472e-05
0.000225561
1.18029e-05
0.000217821
4.176e-05
0.000204853
6.77818e-05
0.000186721
9.0736e-05
0.000162175
0.00011079
0.000132759
0.000123077
0.00010513
0.000120419
8.81289e-05
0.000101594
8.2459e-05
7.94109e-05
8.00487e-05
6.67697e-05
7.63103e-05
5.84754e-05
7.81295e-05
3.89956e-05
0.000103616
-2.74898e-06
0.000161866
-4.51647e-05
0.000206395
-3.24009e-06
0.000204604
9.6724e-05
0.000178917
0.000165232
0.000107207
0.000234846
-4.76048e-06
0.000267729
-3.93692e-05
0.00019501
0.000117845
0.000156901
-4.15726e-05
0.000276726
3.70992e-05
0.000234963
0.000357328
-2.01217e-05
0.000568234
-0.00019189
0.000344846
-0.000227975
0.000121634
-0.000184158
-1.03059e-05
-9.72621e-05
-8.15501e-05
-4.95368e-05
-1.52493e-05
-5.36646e-05
8.35179e-05
-7.43673e-05
0.000134637
-8.81595e-05
0.000144132
-9.48201e-05
0.000141536
-0.00011227
0.000156811
-0.000151037
0.000184301
-0.000204351
0.000196448
-0.000253894
0.000177516
-0.000289542
0.000137769
-0.000310028
9.11282e-05
-0.000317254
4.35067e-05
-0.000313984
-2.4415e-06
-0.000303026
-4.44443e-05
-0.000286882
-7.99572e-05
-0.00026729
-0.000108055
-0.000245897
-0.000128841
-0.000223113
-0.000145666
-0.000197178
-0.000163094
-0.000167176
-0.0001795
-0.000136675
-0.000187549
-0.000111285
-0.00018338
-9.34562e-05
-0.000171348
-8.2186e-05
-0.000158079
-7.61367e-05
-0.000147309
-7.51314e-05
-0.000139023
-7.64512e-05
-0.000138979
-7.44563e-05
-0.000149838
-6.04153e-05
-0.000176659
-2.88965e-05
-0.000218559
1.41923e-05
-0.000258857
6.03044e-05
-0.000281519
0.000100451
-0.000261243
0.000127032
-0.000201462
0.000137393
-0.000140401
0.000132675
-9.39577e-05
0.000119506
-6.48444e-05
0.000104158
-5.12859e-05
9.19422e-05
-5.12556e-05
8.53132e-05
-5.78388e-05
8.47602e-05
-6.73239e-05
8.80223e-05
-7.54062e-05
9.33763e-05
-8.24516e-05
0.000102372
-9.20337e-05
0.000118473
-0.000105759
0.000142807
-0.000118863
0.00017258
-0.000124722
0.00020272
-0.000119207
0.00022877
-0.000100857
0.00024673
-6.92509e-05
0.000255117
-2.9233e-05
0.000253722
1.31982e-05
0.000243934
5.15486e-05
0.000223188
8.85283e-05
0.000189369
0.000124555
0.00013908
0.000161081
7.86127e-05
0.000183545
2.77309e-05
0.000171301
6.16541e-06
0.000123159
1.36673e-05
7.19092e-05
2.6519e-05
5.39169e-05
2.31753e-05
6.18177e-05
1.34022e-05
4.87677e-05
4.58864e-05
-3.52341e-05
0.000159169
-0.000158445
0.000260715
-0.000104787
0.000268066
8.93752e-05
0.000182226
0.00025107
-3.21022e-05
0.000449174
-0.000186766
0.000421959
-0.000119601
0.00012701
-1.74113e-06
0.000428548
-0.000470248
0.000658347
-0.000192817
0.000579603
0.000435507
0.000262227
0.000879598
-6.07534e-05
0.000667428
-0.000199908
0.000260788
-0.000163644
-4.657e-05
-3.2965e-05
-0.000212231
5.12276e-05
-9.94427e-05
5.88395e-05
7.59049e-05
3.93131e-05
0.000154163
3.14589e-05
0.000151985
3.05293e-05
0.000142465
7.35233e-06
0.000179988
-5.04102e-05
0.000242064
-0.000129652
0.00027569
-0.000207197
0.000255061
-0.000263299
0.00019387
-0.000292526
0.000120354
-0.000300473
5.14536e-05
-0.000294262
-8.65279e-06
-0.000282296
-5.64084e-05
-0.000268834
-9.34186e-05
-0.000253298
-0.000123589
-0.000233367
-0.000148772
-0.000206005
-0.000173027
-0.000168569
-0.000200529
-0.000124245
-0.000223823
-8.30471e-05
-0.000228747
-5.66688e-05
-0.000209758
-4.9939e-05
-0.000178078
-5.64518e-05
-0.000151567
-6.61706e-05
-0.00013759
-7.2939e-05
-0.000132255
-7.29775e-05
-0.000138941
-5.96525e-05
-0.000163163
-2.77974e-05
-0.000208514
1.56904e-05
-0.000262048
5.84217e-05
-0.000301589
8.97651e-05
-0.000312863
0.000108914
-0.000280393
0.000120052
-0.0002126
0.000123769
-0.000144118
0.000121291
-9.14788e-05
0.000110523
-5.40767e-05
9.50374e-05
-3.58007e-05
7.82315e-05
-3.44493e-05
6.46762e-05
-4.42825e-05
5.22504e-05
-5.48977e-05
3.9083e-05
-6.22391e-05
2.76114e-05
-7.09816e-05
2.59497e-05
-9.03704e-05
4.2011e-05
-0.000121819
7.81035e-05
-0.000154955
0.000124868
-0.000171486
0.000167591
-0.00016193
0.000197409
-0.000130674
0.000212949
-8.47906e-05
0.000219676
-3.59605e-05
0.000219228
1.36456e-05
0.000206829