/*--------------------------------*- C++ -*----------------------------------*\
| =========                 |                                                 |
| \\      /  F ield         | OpenFOAM: The Open Source CFD Toolbox           |
|  \\    /   O peration     | Version:  2412                                  |
|   \\  /    A nd           | Website:  www.openfoam.com                      |
|    \\/     M anipulation  |                                                 |
\*---------------------------------------------------------------------------*/
FoamFile
{
    version     2.0;
    format      ascii;
    arch        "LSB;label=32;scalar=64";
    class       surfaceScalarField;
    location    "7.65";
    object      phi;
}
// * * * * * * * * * * * * * * * * * * * * * * * * * * * * * * * * * * * * * //

dimensions      [0 3 -1 0 0 0 0];

oriented        oriented;

internalField   nonuniform List<scalar> 
12640
(
-1.68977e-08
1.02112e-08
-3.26477e-08
4.9555e-08
-2.46165e-08
7.23635e-08
1.26098e-08
4.57628e-08
6.11806e-08
-3.1962e-08
8.34767e-08
-1.20206e-07
5.14689e-08
-1.56311e-07
-2.79691e-08
-9.7832e-08
-1.09954e-07
4.0213e-08
-1.37176e-07
1.83141e-07
-7.92987e-08
2.37384e-07
4.06268e-08
1.51853e-07
1.53622e-07
-4.05417e-08
1.85249e-07
-2.3279e-07
1.04881e-07
-3.04625e-07
-4.90662e-08
-1.98887e-07
-1.87253e-07
3.57272e-08
-2.22502e-07
2.66415e-07
-1.25526e-07
3.53255e-07
5.27535e-08
2.35646e-07
2.08501e-07
-2.61148e-08
2.46838e-07
-2.8228e-07
1.40591e-07
-3.81299e-07
-5.10201e-08
-2.61125e-07
-2.16335e-07
1.1769e-08
-2.57738e-07
2.80262e-07
-1.50217e-07
3.89009e-07
4.36617e-08
2.75813e-07
2.11183e-07
7.32446e-09
2.56285e-07
-2.61399e-07
1.55385e-07
-3.78171e-07
-3.06479e-08
-2.80995e-07
-1.94136e-07
-3.06896e-08
-2.43997e-07
2.28082e-07
-1.56895e-07
3.51832e-07
1.27769e-08
2.78482e-07
1.67509e-07
5.7567e-08
2.23477e-07
-1.83465e-07
1.55991e-07
-3.13756e-07
8.98649e-09
-2.70221e-07
-1.33862e-07
-8.66695e-08
-1.97221e-07
1.31405e-07
-1.53479e-07
2.68006e-07
-3.31532e-08
2.5798e-07
9.61548e-08
1.16403e-07
1.67847e-07
-7.58515e-08
1.49966e-07
-2.18409e-07
5.79415e-08
-2.43037e-07
-5.73779e-08
-1.44682e-07
-1.37632e-07
2.09111e-08
-1.45636e-07
1.68506e-07
-8.14345e-08
2.2626e-07
2.02591e-08
1.69391e-07
1.08378e-07
2.98777e-08
1.4027e-07
-1.20919e-07
1.01618e-07
-2.07724e-07
1.27554e-08
-1.88106e-07
-8.1406e-08
-7.31979e-08
-1.33352e-07
7.78081e-08
-1.1667e-07
1.87297e-07
-3.98437e-08
1.98849e-07
5.73797e-08
1.06798e-07
1.24103e-07
-4.01618e-08
1.25054e-07
-1.64212e-07
5.98317e-08
-1.99831e-07
-3.63576e-08
-1.2916e-07
-1.11605e-07
8.37313e-09
-1.25793e-07
1.37956e-07
-7.26642e-08
1.90718e-07
1.72505e-08
1.41118e-07
9.45611e-08
1.93501e-08
1.19182e-07
-1.07507e-07
8.20021e-08
-1.73627e-07
7.38498e-09
-1.49196e-07
-6.40363e-08
-5.27655e-08
-1.00351e-07
6.34684e-08
-9.54802e-08
1.44456e-07
-6.48915e-08
1.60435e-07
-2.79933e-08
1.17377e-07
3.61608e-08
1.1578e-08
-2.10232e-08
-2.81241e-08
1.94978e-08
-6.16686e-08
7.65284e-08
-5.55558e-08
9.50738e-08
4.18211e-09
4.53222e-08
8.48962e-08
-5.88409e-08
1.28157e-07
-1.57567e-07
9.03749e-08
-1.77508e-07
-2.06181e-08
-8.38769e-08
-1.41795e-07
8.54123e-08
-1.91164e-07
2.32414e-07
-1.23042e-07
2.56812e-07
3.49027e-08
1.23986e-07
1.91118e-07
-1.02694e-07
2.44426e-07
-2.91628e-07
1.5018e-07
-3.21161e-07
-4.537e-08
-1.58666e-07
-2.27795e-07
1.11312e-07
-2.83081e-07
3.31799e-07
-1.69936e-07
3.66799e-07
5.06485e-08
1.8646e-07
2.49186e-07
-1.10071e-07
3.05434e-07
-3.50577e-07
1.82403e-07
-3.91939e-07
-4.95962e-08
-2.06666e-07
-2.54366e-07
9.92955e-08
-3.11496e-07
3.4876e-07
-1.88257e-07
3.9797e-07
4.1856e-08
2.20608e-07
2.44191e-07
-7.86218e-08
3.03217e-07
-3.27358e-07
1.89277e-07
-3.86561e-07
-2.71961e-08
-2.28948e-07
-2.20224e-07
4.9724e-08
-2.82825e-07
2.90056e-07
-1.86671e-07
3.61502e-07
6.5767e-09
2.33455e-07
1.85429e-07
-1.38096e-08
2.53696e-07
-2.40228e-07
1.82075e-07
-3.2607e-07
1.87192e-08
-2.34825e-07
-1.43224e-07
-2.62357e-08
-2.19149e-07
1.82949e-07
-1.76587e-07
2.84619e-07
-4.69028e-08
2.34284e-07
9.71443e-08
6.81476e-08
1.82216e-07
-1.22196e-07
1.70738e-07
-2.40063e-07
7.5584e-08
-2.31556e-07
-5.10079e-08
-1.08319e-07
-1.45737e-07
6.29144e-08
-1.6472e-07
1.9586e-07
-1.0243e-07
2.26877e-07
7.97123e-09
1.44199e-07
1.11589e-07
-8.28463e-09
1.5795e-07
-1.53453e-07
1.24811e-07
-2.18836e-07
2.89876e-08
-1.72237e-07
-8.12764e-08
-3.79867e-08
-1.49716e-07
1.14772e-07
-1.40583e-07
2.06953e-07
-5.79372e-08
1.90544e-07
5.51952e-08
7.44141e-08
1.38755e-07
-7.96038e-08
1.47857e-07
-1.89372e-07
7.7768e-08
-1.96803e-07
-3.29174e-08
-9.95291e-08
-1.23554e-07
4.81197e-08
-1.45483e-07
1.65691e-07
-8.91188e-08
1.91357e-07
1.18689e-08
1.15218e-07
1.015e-07
-1.75319e-08
1.34243e-07
-1.34188e-07
9.91396e-08
-1.75716e-07
2.09878e-08
-1.27422e-07
-5.99796e-08
-2.28489e-08
-1.14224e-07
7.98433e-08
-1.28233e-07
1.34433e-07
-1.06045e-07
1.3052e-07
7.12239e-08
6.47439e-08
-4.44667e-08
2.64536e-08
-3.49935e-08
-4.81962e-08
2.85143e-08
-1.10952e-07
9.93815e-08
-1.03925e-07
1.25345e-07
-1.41055e-08
7.01543e-08
1.12e-07
-5.1715e-08
1.90416e-07
-1.7121e-07
1.54925e-07
-2.0416e-07
8.32912e-09
-1.09882e-07
-1.68579e-07
7.20689e-08
-2.62241e-07
2.36474e-07
-2.00031e-07
2.74634e-07
-3.99035e-09
1.46554e-07
2.14177e-07
-8.50762e-08
3.1834e-07
-2.85512e-07
2.34293e-07
-3.28194e-07
1.61205e-09
-1.75711e-07
-2.44788e-07
9.09145e-08
-3.54859e-07
3.16234e-07
-2.5645e-07
3.63112e-07
-2.49542e-09
1.97546e-07
2.58405e-07
-8.76778e-08
3.7097e-07
-3.26434e-07
2.67267e-07
-3.78055e-07
7.93227e-09
-2.11499e-07
-2.54545e-07
7.61826e-08
-3.67439e-07
3.17935e-07
-2.68031e-07
3.75595e-07
-1.8346e-08
2.19863e-07
2.34659e-07
-5.55235e-08
3.47222e-07
-2.91576e-07
2.61405e-07
-3.57342e-07
3.42092e-08
-2.23067e-07
-2.00867e-07
2.78684e-08
-3.13565e-07
2.51703e-07
-2.49471e-07
3.27762e-07
-5.48e-08
2.23489e-07
1.56623e-07
6.09089e-09
2.70728e-07
-2.01227e-07
2.34566e-07
-2.8967e-07
7.88913e-08
-2.2134e-07
-1.06006e-07
-4.30271e-08
-2.23029e-07
1.45573e-07
-2.18565e-07
2.47717e-07
-1.04866e-07
2.18221e-07
5.29651e-08
8.12096e-08
1.74142e-07
-8.80389e-08
2.02413e-07
-2.04108e-07
1.30238e-07
-2.13269e-07
-1.87892e-09
-1.16683e-07
-1.27603e-07
3.37099e-08
-1.8675e-07
1.62416e-07
-1.52686e-07
2.07028e-07
-4.37882e-08
1.47493e-07
8.56238e-08
1.50318e-08
1.71099e-07
-1.23301e-07
1.694e-07
-1.97535e-07
8.07079e-08
-1.69847e-07
-5.00249e-08
-5.44242e-08
-1.54892e-07
8.88092e-08
-1.78217e-07
1.84705e-07
-1.06918e-07
1.82576e-07
2.11226e-08
8.38728e-08
1.36712e-07
-5.79387e-08
1.77218e-07
-1.66221e-07
1.2158e-07
-1.8327e-07
2.04062e-09
-1.02032e-07
-1.14619e-07
3.07499e-08
-1.65438e-07
1.41757e-07
-1.26332e-07
1.72613e-07
-2.32756e-08
1.11459e-07
8.57317e-08
-3.27584e-09
1.44802e-07
-1.0768e-07
1.28682e-07
-1.49806e-07
5.00799e-08
-1.16973e-07
-5.40759e-08
-3.69237e-08
-1.30989e-07
4.72597e-08
-1.42496e-07
1.02609e-07
8.84909e-08
9.69747e-08
-3.82433e-08
9.25601e-08
-7.96486e-08
2.02904e-08
-5.73527e-08
-9.09177e-08
2.87481e-08
-1.67659e-07
1.33975e-07
-1.43296e-07
1.81757e-07
-9.26603e-09
1.17761e-07
1.6329e-07
-4.21663e-08
2.60548e-07
-2.09201e-07
2.0142e-07
-2.72096e-07
2.72702e-10
-1.71441e-07
-2.29752e-07
5.18918e-08
-3.41778e-07
2.70923e-07
-2.50228e-07
3.46517e-07
6.50267e-09
2.16954e-07
2.80528e-07
-5.52523e-08
4.0182e-07
-3.1337e-07
2.85488e-07
-3.98884e-07
-9.72461e-09
-2.50497e-07
-3.1163e-07
5.30603e-08
-4.37506e-07
3.35808e-07
-3.06664e-07
4.28921e-07
7.85248e-09
2.73313e-07
3.21485e-07
-4.29759e-08
4.48895e-07
-3.36115e-07
3.15314e-07
-4.35576e-07
5.73369e-10
-2.8489e-07
-3.1017e-07
2.63397e-08
-4.37626e-07
3.17228e-07
-3.13289e-07
4.22769e-07
-1.58198e-08
2.88582e-07
2.7997e-07
-1.8076e-09
4.07672e-07
-2.80158e-07
3.03772e-07
-3.92548e-07
3.79698e-08
-2.85041e-07
-2.34105e-07
-2.8062e-08
-3.63392e-07
2.30292e-07
-2.89284e-07
3.50705e-07
-6.58605e-08
2.77706e-07
1.76992e-07
6.30339e-08
3.09861e-07
-1.70647e-07
2.72259e-07
-3.0037e-07
9.75246e-08
-2.66892e-07
-1.13852e-07
-9.93832e-08
-2.52239e-07
1.07538e-07
-2.54632e-07
2.47275e-07
-1.30684e-07
2.55051e-07
4.9489e-08
1.35767e-07
1.94646e-07
-4.42592e-08
2.3709e-07
-1.93708e-07
1.6207e-07
-2.41205e-07
1.09048e-08
-1.67785e-07
-1.40969e-07
-1.33933e-08
-2.20002e-07
1.44017e-07
-1.88728e-07
2.26513e-07
-6.33648e-08
1.93842e-07
9.34302e-08
6.3223e-08
2.02425e-07
-9.86732e-08
2.07252e-07
-2.087e-07
1.04233e-07
-2.09708e-07
-5.37422e-08
-1.00974e-07
-1.83403e-07
6.02108e-08
-2.15165e-07
1.88147e-07
-1.31599e-07
2.14675e-07
2.18105e-08
1.2654e-07
1.61086e-07
-2.71269e-08
2.10509e-07
-1.621e-07
1.45101e-07
-2.06077e-07
3.95508e-09
-1.38543e-07
-1.3335e-07
-6.43622e-10
-1.92833e-07
1.30115e-07
-1.46962e-07
1.84658e-07
-2.6899e-08
1.39898e-07
9.86322e-08
2.77122e-08
1.62645e-07
-8.7773e-08
1.34292e-07
-1.48623e-07
3.17145e-08
-1.32374e-07
-7.7891e-08
-5.50408e-08
-1.23484e-07
4.11785e-08
7.82803e-08
7.14215e-08
6.52372e-09
1.19491e-07
-7.24178e-08
1.06469e-07
-1.2717e-07
1.08259e-08
-9.23963e-08
-1.27537e-07
3.22415e-08
-2.15743e-07
1.76646e-07
-1.73614e-07
2.39465e-07
-1.09338e-09
1.55959e-07
2.06452e-07
-4.78437e-08
3.12294e-07
-2.5772e-07
2.293e-07
-3.36537e-07
-1.31676e-08
-2.14378e-07
-2.75748e-07
5.60738e-08
-3.91205e-07
3.20417e-07
-2.72436e-07
4.12881e-07
2.43367e-08
2.61912e-07
3.25935e-07
-5.72306e-08
4.45806e-07
-3.60324e-07
3.01313e-07
-4.63079e-07
-3.00634e-08
-2.95153e-07
-3.53507e-07
5.23459e-08
-4.74124e-07
3.77653e-07
-3.16396e-07
4.88172e-07
2.85796e-08
3.1649e-07
3.57504e-07
-3.8489e-08
4.7725e-07
-3.70292e-07
3.20003e-07
-4.87421e-07
-1.84452e-08
-3.25503e-07
-3.38754e-07
1.75431e-08
-4.57752e-07
3.42323e-07
-3.14479e-07
4.66008e-07
-3.9895e-10
3.26377e-07
3.00242e-07
1.1989e-08
4.20272e-07
-2.95112e-07
3.03118e-07
-4.26397e-07
2.74397e-08
-3.19732e-07
-2.46141e-07
-4.6826e-08
-3.69872e-07
2.3525e-07
-2.88501e-07
3.75514e-07
-6.10123e-08
3.09603e-07
1.8147e-07
8.67153e-08
3.11837e-07
-1.66065e-07
2.72679e-07
-3.16641e-07
9.83738e-08
-2.95978e-07
-1.12151e-07
-1.27115e-07
-2.51533e-07
9.48874e-08
-2.57216e-07
2.56304e-07
-1.36631e-07
2.81624e-07
4.33566e-08
1.66606e-07
1.9291e-07
-2.51249e-08
2.42204e-07
-1.96609e-07
1.71884e-07
-2.65005e-07
1.94522e-08
-2.00016e-07
-1.39627e-07
-3.67082e-08
-2.27479e-07
1.42363e-07
-2.00753e-07
2.4745e-07
-7.23203e-08
2.25812e-07
9.34471e-08
8.86221e-08
2.11515e-07
-9.35633e-08
2.19525e-07
-2.26046e-07
1.11752e-07
-2.39183e-07
-5.56086e-08
-1.25985e-07
-1.92945e-07
5.29461e-08
-2.25714e-07
2.01362e-07
-1.36271e-07
2.3976e-07
2.54412e-08
1.49232e-07
1.69648e-07
-1.83606e-08
2.17612e-07
-1.70086e-07
1.46023e-07
-2.24539e-07
-1.16089e-09
-1.56828e-07
-1.39893e-07
-1.0125e-08
-1.95161e-07
1.31887e-07
-1.42554e-07
1.94029e-07
-1.90149e-08
1.50561e-07
1.01196e-07
3.50384e-08
1.50257e-07
-8.38029e-08
1.06325e-07
-1.42838e-07
1.35888e-08
-1.16447e-07
-5.34519e-08
-2.96856e-08
3.84825e-08
-1.50558e-08
6.54379e-08
7.01624e-08
-4.91682e-09
1.4593e-07
-1.22936e-07
1.37631e-07
-1.8258e-07
1.38574e-08
-1.25694e-07
-1.59997e-07
3.62296e-08
-2.64274e-07
2.14788e-07
-2.07881e-07
2.89753e-07
-3.06987e-10
1.89411e-07
2.41025e-07
-5.02237e-08
3.59099e-07
-2.93667e-07
2.60591e-07
-3.84238e-07
-1.43118e-08
-2.45977e-07
-3.0611e-07
5.78027e-08
-4.3095e-07
3.52514e-07
-2.98262e-07
4.55166e-07
2.52604e-08
2.89904e-07
3.49744e-07
-5.78632e-08
4.7629e-07
-3.86478e-07
3.20948e-07
-4.97722e-07
-2.99329e-08
-3.18471e-07
-3.69297e-07
5.15114e-08
-4.94396e-07
3.96757e-07
-3.29953e-07
5.14366e-07
2.65383e-08
3.35254e-07
3.64528e-07
-3.52839e-08
4.87318e-07
-3.81361e-07
3.28165e-07
-5.04747e-07
-1.38512e-08
-3.39938e-07
-3.37121e-07
1.15977e-08
-4.58569e-07
3.45432e-07
-3.18407e-07
4.75154e-07
-8.02119e-09
3.37386e-07
2.90629e-07
2.11557e-08
4.13287e-07
-2.90574e-07
3.04005e-07
-4.28227e-07
3.80583e-08
-3.27989e-07
-2.2997e-07
-5.89812e-08
-3.57073e-07
2.24317e-07
-2.87609e-07
3.71656e-07
-7.42957e-08
3.16121e-07
1.60489e-07
1.01624e-07
2.95248e-07
-1.50028e-07
2.70946e-07
-3.08508e-07
1.13498e-07
-3.01224e-07
-8.8464e-08
-1.43807e-07
-2.33196e-07
7.56932e-08
-2.55299e-07
2.45681e-07
-1.52456e-07
2.86154e-07
1.91341e-08
1.84136e-07
1.74594e-07
-4.5011e-09
2.40329e-07
-1.84766e-07
1.86977e-07
-2.68685e-07
4.20765e-08
-2.16823e-07
-1.22787e-07
-5.66675e-08
-2.2553e-07
1.30699e-07
-2.13581e-07
2.50223e-07
-9.14649e-08
2.4057e-07
7.90751e-08
1.06329e-07
2.09013e-07
-8.27894e-08
2.28553e-07
-2.2722e-07
1.25885e-07
-2.50191e-07
-4.42729e-08
-1.3974e-07
-1.89253e-07
4.38087e-08
-2.2966e-07
2.00433e-07
-1.44358e-07
2.45765e-07
1.7352e-08
1.57955e-07
1.64192e-07
-1.1008e-08
2.1555e-07
-1.66093e-07
1.47155e-07
-2.23882e-07
2.93301e-09
-1.58878e-07
-1.33024e-07
-1.47961e-08
-1.8651e-07
1.24337e-07
-1.35139e-07
1.84374e-07
-1.8297e-08
1.42098e-07
9.01519e-08
3.39807e-08
1.30729e-07
-7.03868e-08
9.76399e-08
-1.12354e-07
3.54506e-08
-8.05834e-08
-1.56878e-08
-1.19e-07
9.5954e-08
-4.36692e-08
8.58899e-08
9.42109e-08
-2.91667e-08
2.01556e-07
-1.63708e-07
1.78878e-07
-2.2892e-07
1.63175e-08
-1.58111e-07
-1.95392e-07
3.53817e-08
-3.14549e-07
2.46327e-07
-2.42856e-07
3.35962e-07
-3.40502e-10
2.24727e-07
2.74266e-07
-4.41346e-08
4.04901e-07
-3.1794e-07
2.92484e-07
-4.23458e-07
-1.28694e-08
-2.78118e-07
-3.33137e-07
4.87385e-08
-4.68875e-07
3.68616e-07
-3.25498e-07
4.85302e-07
2.18266e-08
3.17389e-07
3.6869e-07
-4.59042e-08
5.04613e-07
-3.93381e-07
3.42944e-07
-5.17478e-07
-2.39133e-08
-3.40415e-07
-3.79128e-07
3.69909e-08
-5.12484e-07
3.94519e-07
-3.46822e-07
5.23831e-07
1.73889e-08
3.51822e-07
3.64889e-07
-1.81686e-08
4.95362e-07
-3.70272e-07
3.40409e-07
-5.04414e-07
-1.37416e-09
-3.51367e-07
-3.28547e-07
-7.62385e-09
-4.57654e-07
3.26752e-07
-3.26932e-07
4.66511e-07
-2.38168e-08
3.44543e-07
2.74194e-07
4.21517e-08
4.04909e-07
-2.65674e-07
3.09678e-07
-4.12796e-07
5.66696e-08
-3.31462e-07
-2.07406e-07
-8.08296e-08
-3.43178e-07
1.9527e-07
-2.91332e-07
3.51534e-07
-9.4944e-08
3.16821e-07
1.33798e-07
1.23549e-07
2.77776e-07
-1.18731e-07
2.73322e-07
-2.85428e-07
1.35014e-07
-2.99532e-07
-5.98837e-08
-1.64502e-07
-2.14044e-07
4.44283e-08
-2.56679e-07
2.21586e-07
-1.73432e-07
2.82588e-07
-9.09283e-09
2.0252e-07
1.55396e-07
2.4884e-08
2.40716e-07
-1.60991e-07
2.05833e-07
-2.63168e-07
6.78309e-08
-2.31423e-07
-1.04866e-07
-8.21742e-08
-2.24676e-07
1.08636e-07
-2.28752e-07
2.42855e-07
-1.12931e-07
2.50348e-07
6.33431e-08
1.26612e-07
2.06434e-07
-6.31483e-08
2.38582e-07
-2.17613e-07
1.41609e-07
-2.5391e-07
-3.13326e-08
-1.53438e-07
-1.84481e-07
2.73685e-08
-2.33429e-07
1.88498e-07
-1.53246e-07
2.42686e-07
7.77666e-09
1.64214e-07
1.57101e-07
1.80509e-09
2.12216e-07
-1.5147e-07
1.47677e-07
-2.12777e-07
7.212e-09
-1.55846e-07
-1.25112e-07
-2.21723e-08
-1.76032e-07
1.07833e-07
-1.25345e-07
1.64481e-07
-1.36244e-08
1.28362e-07
8.95723e-08
3.59668e-08
1.29142e-07
-5.09634e-08
9.93907e-08
-8.77445e-08
-5.73375e-08
-1.71771e-07
6.7077e-08
-1.57242e-07
1.36509e-07
-3.29592e-08
1.03524e-07
1.44022e-07
-2.72919e-08
2.56441e-07
-1.90136e-07
2.13033e-07
-2.72078e-07
1.39898e-08
-1.9208e-07
-2.30058e-07
3.04681e-08
-3.59793e-07
2.72332e-07
-2.72372e-07
3.77316e-07
1.30935e-09
2.58677e-07
3.03483e-07
-3.44414e-08
4.42775e-07
-3.35043e-07
3.17204e-07
-4.5588e-07
-1.31898e-08
-3.0807e-07
-3.54944e-07
3.54772e-08
-4.97345e-07
3.76212e-07
-3.44615e-07
5.07543e-07
2.01683e-08
3.42431e-07
3.81782e-07
-2.92203e-08
5.22788e-07
-3.91007e-07
3.56488e-07
-5.28879e-07
-1.96359e-08
-3.59961e-07
-3.83001e-07
1.74152e-08
-5.20508e-07
3.82759e-07
-3.55463e-07
5.24967e-07
9.92812e-09
3.6615e-07
3.5967e-07
3.99665e-09
4.94068e-07
-3.49975e-07
3.45045e-07
-4.962e-07
9.40109e-09
-3.60749e-07
-3.15218e-07
-3.15474e-08
-4.4864e-07
2.99659e-07
-3.28723e-07
4.50742e-07
-3.77678e-08
3.49799e-07
2.54205e-07
6.71638e-08
3.90024e-07
-2.33539e-07
3.09609e-07
-3.91177e-07
7.31515e-08
-3.33078e-07
-1.82742e-07
-1.05729e-07
-3.24533e-07
1.60417e-07
-2.90282e-07
3.26225e-07
-1.13018e-07
3.15568e-07
1.06615e-07
1.4734e-07
2.57343e-07
-8.31977e-08
2.71799e-07
-2.5814e-07
1.53399e-07
-2.95658e-07
-3.24252e-08
-1.85756e-07
-1.93596e-07
1.05046e-08
-2.54871e-07
1.94166e-07
-1.90654e-07
2.76501e-07
-3.4686e-08
2.2013e-07
1.36349e-07
5.54276e-08
2.38453e-07
-1.34661e-07
2.20326e-07
-2.54749e-07
8.96567e-08
-2.44005e-07
-8.82605e-08
-1.07512e-07
-2.21564e-07
8.46567e-08
-2.39059e-07
2.32226e-07
-1.29478e-07
2.57037e-07
4.97988e-08
1.45602e-07
2.0191e-07
-4.21541e-08
2.43433e-07
-2.04508e-07
1.51724e-07
-2.53713e-07
-2.1274e-08
-1.64903e-07
-1.78147e-07
1.01635e-08
-2.31915e-07
1.73047e-07
-1.5593e-07
2.35085e-07
1.94312e-09
1.67281e-07
1.491e-07
1.4454e-08
2.03499e-07
-1.3381e-07
1.40932e-07
-1.9685e-07
6.24117e-09
-1.48438e-07
-1.16979e-07
-2.74203e-08
-1.58569e-07
9.09099e-08
-1.03021e-07
1.42784e-07
6.42583e-09
1.11696e-07
9.39977e-08
2.92378e-08
1.08661e-07
-5.07374e-08
-6.60273e-08
-1.26392e-07
-1.3718e-08
-1.91663e-07
1.02037e-07
-1.60856e-07
1.86466e-07
-1.51519e-08
1.47342e-07
1.80263e-07
-1.72379e-08
2.98805e-07
-2.14879e-07
2.39602e-07
-3.12624e-07
1.089e-08
-2.24043e-07
-2.58887e-07
2.32797e-08
-3.95908e-07
2.90995e-07
-2.95015e-07
4.09423e-07
2.74872e-09
2.86671e-07
3.24594e-07
-2.35088e-08
4.68894e-07
-3.43788e-07
3.33552e-07
-4.77209e-07
-1.30271e-08
-3.30512e-07
-3.67123e-07
2.16056e-08
-5.12438e-07
3.75146e-07
-3.54573e-07
5.17873e-07
1.7778e-08
3.59117e-07
3.84442e-07
-1.25169e-08
5.26894e-07
-3.80249e-07
3.60643e-07
-5.28366e-07
-1.45353e-08
-3.70865e-07
-3.76404e-07
-1.60051e-09
-5.14668e-07
3.63387e-07
-3.54958e-07
5.14844e-07
1.77192e-09
3.71961e-07
3.44677e-07
2.49519e-08
4.79876e-07
-3.23304e-07
3.41102e-07
-4.77929e-07
2.04793e-08
-3.62047e-07
-2.93441e-07
-5.35441e-08
-4.28266e-07
2.67769e-07
-3.22674e-07
4.2649e-07
-5.13422e-08
3.47586e-07
2.276e-07
8.94559e-08
3.65696e-07
-1.9842e-07
3.02482e-07
-3.62872e-07
8.83318e-08
-3.27934e-07
-1.53606e-07
-1.27084e-07
-2.98521e-07
1.24469e-07
-2.82887e-07
2.96073e-07
-1.28664e-07
3.08261e-07
7.72585e-08
1.66749e-07
2.31617e-07
-4.84362e-08
2.64525e-07
-2.27795e-07
1.68136e-07
-2.86406e-07
-5.05113e-09
-2.01854e-07
-1.69768e-07
-2.09393e-08
-2.4776e-07
1.65303e-07
-2.03019e-07
2.65649e-07
-5.81338e-08
2.31923e-07
1.15582e-07
8.20204e-08
2.31218e-07
-1.08293e-07
2.28892e-07
-2.42151e-07
1.07606e-07
-2.50311e-07
-7.1292e-08
-1.27757e-07
-2.13764e-07
6.17924e-08
-2.42639e-07
2.17995e-07
-1.40835e-07
2.57237e-07
3.69711e-08
1.58694e-07
1.93046e-07
-2.32275e-08
2.41109e-07
-1.88451e-07
1.5571e-07
-2.47099e-07
-1.28946e-08
-1.69953e-07
-1.68022e-07
-4.10467e-09
-2.23098e-07
1.55466e-07
-1.51702e-07
2.21418e-07
-1.14762e-09
1.63544e-07
1.38045e-07
2.30874e-08
1.87465e-07
-1.15357e-07
1.26794e-07
-1.7576e-07
2.74149e-09
-1.33997e-07
-1.03615e-07
-2.69531e-08
-1.29782e-07
7.57629e-08
-7.05958e-08
1.16825e-07
1.70364e-08
8.23138e-08
6.46265e-08
5.85344e-09
-4.10649e-08
3.77342e-09
-9.93651e-08
-1.10816e-07
-6.08195e-09
-2.03192e-07
1.55762e-07
-1.82009e-07
2.42937e-07
-1.6139e-08
1.82414e-07
2.05168e-07
-1.20934e-08
3.32825e-07
-2.35549e-07
2.61067e-07
-3.44718e-07
8.70544e-09
-2.50478e-07
-2.80167e-07
1.39615e-08
-4.21443e-07
3.00098e-07
-3.10323e-07
4.29498e-07
3.33544e-09
3.07053e-07
3.36543e-07
-1.10167e-08
4.82691e-07
-3.42212e-07
3.41842e-07
-4.85084e-07
-1.15618e-08
-3.44082e-07
-3.6916e-07
6.75524e-09
-5.14506e-07
3.63629e-07
-3.56422e-07
5.14191e-07
1.37093e-08
3.66249e-07
3.76673e-07
4.52434e-09
5.18094e-07
-3.59563e-07
3.57056e-07
-5.14117e-07
-7.61559e-09
-3.72049e-07
-3.59806e-07
-2.02288e-08
-4.96762e-07
3.3519e-07
-3.47353e-07
4.91952e-07
-8.02553e-09
3.68259e-07
3.20779e-07
4.46612e-08
4.5503e-07
-2.89424e-07
3.30834e-07
-4.48406e-07
3.26936e-08
-3.54313e-07
-2.64372e-07
-7.33344e-08
-3.99002e-07
2.3063e-07
-3.11058e-07
3.9284e-07
-6.52262e-08
3.36966e-07
1.95688e-07
1.08488e-07
3.34414e-07
-1.60229e-07
2.90447e-07
-3.27212e-07
1.02754e-07
-3.15082e-07
-1.21316e-07
-1.44109e-07
-2.67462e-07
8.76584e-08
-2.71063e-07
2.60607e-07
-1.4232e-07
2.93929e-07
4.69139e-08
1.80784e-07
2.02602e-07
-1.49312e-08
2.53125e-07
-1.94078e-07
1.7961e-07
-2.70794e-07
2.13083e-08
-2.11662e-07
-1.4415e-07
-4.92455e-08
-2.3667e-07
1.34791e-07
-2.10941e-07
2.49062e-07
-7.88634e-08
2.36699e-07
9.42176e-08
1.03913e-07
2.20065e-07
-8.1766e-08
2.3205e-07
-2.24466e-07
1.21524e-07
-2.49176e-07
-5.46229e-08
-1.42152e-07
-2.02123e-07
3.99876e-08
-2.4018e-07
1.99372e-07
-1.4727e-07
2.49908e-07
2.51257e-08
1.65186e-07
1.80557e-07
-6.38575e-09
2.3249e-07
-1.68841e-07
1.54213e-07
-2.33246e-07
-6.1201e-09
-1.67998e-07
-1.54707e-07
-1.53259e-08
-2.08057e-07
1.3545e-07
-1.41697e-07
2.01255e-07
-2.15854e-09
1.52733e-07
1.24318e-07
2.76849e-08
1.66035e-07
-9.60636e-08
1.08725e-07
-1.49776e-07
2.71324e-10
-1.13638e-07
-8.53249e-08
-2.33969e-08
-1.00273e-07
5.80066e-08
-5.5839e-08
8.28095e-08
-3.03395e-09
4.85109e-08
-8.83173e-10
1.46033e-07
-1.32554e-07
4.63962e-08
-1.21411e-07
-1.23847e-07
2.29451e-08
-2.48811e-07
1.88604e-07
-2.13917e-07
2.74101e-07
-1.81512e-08
2.04951e-07
2.26304e-07
-6.14035e-09
3.58778e-07
-2.46489e-07
2.75731e-07
-3.64931e-07
6.72768e-09
-2.69735e-07
-2.93091e-07
2.88076e-09
-4.34934e-07
2.99136e-07
-3.17127e-07
4.36664e-07
3.51519e-09
3.19045e-07
3.39127e-07
2.58349e-09
4.83607e-07
-3.30485e-07
3.41399e-07
-4.79523e-07
-9.47252e-09
-3.48669e-07
-3.6163e-07
-8.7302e-09
-5.0382e-07
3.42302e-07
-3.49876e-07
4.9726e-07
8.90034e-09
3.6429e-07
3.59781e-07
2.16417e-08
4.97408e-07
-3.3e-07
3.45776e-07
-4.87514e-07
-5.13684e-11
-3.64418e-07
-3.35129e-07
-3.82515e-08
-4.68418e-07
2.99549e-07
-3.32945e-07
4.58132e-07
-1.80851e-08
3.56269e-07
2.90376e-07
6.293e-08
4.21597e-07
-2.49939e-07
3.14704e-07
-4.09762e-07
4.45238e-08
-3.38964e-07
-2.30712e-07
-9.07464e-08
-3.63175e-07
1.89941e-07
-2.94438e-07
3.52043e-07
-7.78428e-08
3.19428e-07
1.61291e-07
1.24121e-07
2.98601e-07
-1.20639e-07
2.74117e-07
-2.86414e-07
1.14884e-07
-2.95997e-07
-8.86349e-08
-1.56725e-07
-2.3373e-07
5.15095e-08
-2.55453e-07
2.21875e-07
-1.52598e-07
2.73972e-07
1.81206e-08
1.89465e-07
1.72507e-07
1.60404e-08
2.38268e-07
-1.58774e-07
1.86686e-07
-2.50118e-07
4.44678e-08
-2.15346e-07
-1.1871e-07
-7.34718e-08
-2.2232e-07
1.04093e-07
-2.13628e-07
2.27928e-07
-9.51436e-08
2.34822e-07
7.39417e-08
1.20554e-07
2.05794e-07
-5.61899e-08
2.29429e-07
-2.02796e-07
1.30188e-07
-2.41202e-07
-3.96524e-08
-1.50567e-07
-1.87559e-07
2.00064e-08
-2.31762e-07
1.77402e-07
-1.48072e-07
2.35914e-07
1.53934e-08
1.65368e-07
1.6549e-07
7.92257e-09
2.18109e-07
-1.46707e-07
1.47058e-07
-2.13315e-07
-1.74364e-09
-1.5977e-07
-1.39314e-07
-2.33742e-08
-1.87854e-07
1.14054e-07
-1.26557e-07
1.76209e-07
-9.00416e-10
1.3633e-07
1.09327e-07
2.88083e-08
1.41722e-07
-7.69266e-08
8.87769e-08
-1.21779e-07
-3.40255e-09
-9.18407e-08
-7.33348e-08
-2.08385e-08
-8.70782e-08
3.93416e-08
-5.60452e-08
5.64739e-08
3.03161e-08
2.13009e-07
-8.63822e-08
1.86121e-07
-1.66352e-07
3.31467e-08
-1.27638e-07
-1.69419e-07
1.53549e-08
-2.87673e-07
1.93667e-07
-2.31954e-07
2.90911e-07
-1.4582e-08
2.22286e-07
2.41531e-07
3.15751e-09
3.7299e-07
-2.46851e-07
2.81452e-07
-3.72099e-07
4.75015e-09
-2.80269e-07
-2.9672e-07
-8.75613e-09
-4.35243e-07
2.8844e-07
-3.14701e-07
4.30327e-07
3.44953e-09
3.21442e-07
3.32119e-07
1.5962e-08
4.7128e-07
-3.09566e-07
3.31866e-07
-4.60729e-07
-7.10191e-09
-3.43565e-07
-3.44876e-07
-2.34253e-08
-4.8061e-07
3.12737e-07
-3.34836e-07
4.68032e-07
3.91564e-09
3.52977e-07
3.3465e-07
3.73294e-08
4.65585e-07
-2.93649e-07
3.26893e-07
-4.50129e-07
7.3646e-09
-3.4809e-07
-3.03726e-07
-5.41177e-08
-4.30782e-07
2.58939e-07
-3.11927e-07
4.15431e-07
-2.74051e-08
3.36405e-07
2.55168e-07
7.82173e-08
3.80984e-07
-2.07548e-07
2.92942e-07
-3.6435e-07
5.48092e-08
-3.16643e-07
-1.94374e-07
-1.04315e-07
-3.22317e-07
1.48465e-07
-2.73032e-07
3.06592e-07
-8.79441e-08
2.95782e-07
1.26389e-07
1.35039e-07
2.59792e-07
-8.2316e-08
2.5368e-07
-2.42966e-07
1.23473e-07
-2.71607e-07
-5.74767e-08
-1.63838e-07
-1.98767e-07
1.84541e-08
-2.36216e-07
1.82246e-07
-1.58348e-07
2.49409e-07
-7.39551e-09
1.91987e-07
1.42615e-07
4.23997e-08
2.20109e-07
-1.24042e-07
1.88402e-07
-2.25478e-07
6.29872e-08
-2.12459e-07
-9.45328e-08
-9.19831e-08
-2.049e-07
7.50954e-08
-2.10397e-07
2.03427e-07
-1.0589e-07
2.26245e-07
5.56305e-08
1.30813e-07
1.88682e-07
-3.31493e-08
2.20683e-07
-1.78404e-07
1.32906e-07
-2.26777e-07
-2.70578e-08
-1.52403e-07
-1.70465e-07
3.11485e-09
-2.17406e-07
1.53434e-07
-1.42948e-07
2.1609e-07
8.25222e-09
1.5919e-07
1.48359e-07
1.87668e-08
1.98382e-07
-1.23481e-07
1.34438e-07
-1.88623e-07
8.30354e-11
-1.45861e-07
-1.22421e-07
-2.777e-08
-1.63417e-07
9.27553e-08
-1.07185e-07
1.48234e-07
2.34036e-09
1.15899e-07
9.36417e-08
2.6674e-08
1.15018e-07
-5.97341e-08
6.49587e-08
-9.51666e-08
-1.44575e-08
-7.08997e-08
-6.85192e-08
-1.4938e-08
-7.04454e-08
3.30195e-08
3.81625e-08
1.61449e-07
1.38982e-08
2.2136e-07
-1.08171e-07
1.70537e-07
-1.96761e-07
6.26837e-09
-1.62356e-07
-1.92859e-07
-3.33553e-09
-3.0295e-07
1.92292e-07
-2.35587e-07
2.98869e-07
-9.69888e-09
2.32797e-07
2.47234e-07
1.37462e-08
3.73651e-07
-2.36921e-07
2.77692e-07
-3.65154e-07
2.80752e-09
-2.80769e-07
-2.90915e-07
-2.01779e-08
-4.22316e-07
2.68036e-07
-3.03014e-07
4.09959e-07
3.33409e-09
3.13485e-07
3.15995e-07
2.83964e-08
4.46328e-07
-2.7995e-07
3.13617e-07
-4.2881e-07
-4.71094e-09
-3.28385e-07
-3.19836e-07
-3.64962e-08
-4.46046e-07
2.75929e-07
-3.11975e-07
4.27181e-07
-8.72978e-10
3.32217e-07
3.02629e-07
5.06217e-08
4.24225e-07
-2.51941e-07
3.01264e-07
-4.03094e-07
1.41362e-08
-3.23184e-07
-2.67248e-07
-6.67495e-08
-3.85718e-07
2.15112e-07
-2.85236e-07
3.65295e-07
-3.5383e-08
3.08928e-07
2.16979e-07
8.93747e-08
3.3516e-07
-1.64197e-07
2.66479e-07
-3.13797e-07
6.28829e-08
-2.87696e-07
-1.57214e-07
-1.12882e-07
-2.78356e-07
1.08201e-07
-2.47705e-07
2.58167e-07
-9.48593e-08
2.66419e-07
9.27349e-08
1.40142e-07
2.19757e-07
-4.7183e-08
2.29905e-07
-1.98495e-07
1.27918e-07
-2.42336e-07
-2.93765e-08
-1.64486e-07
-1.64103e-07
-9.7786e-09
-2.14025e-07
1.43215e-07
-1.59107e-07
2.20696e-07
-2.84167e-08
1.87608e-07
1.14157e-07
6.27084e-08
1.99247e-07
-9.11904e-08
1.84512e-07
-1.97388e-07
7.60312e-08
-2.0255e-07
-7.25372e-08
-1.03708e-07
-1.84972e-07
4.88923e-08
-2.01269e-07
1.76157e-07
-1.10683e-07
2.10874e-07
3.99002e-08
1.34034e-07
1.69291e-07
-1.35116e-08
2.06142e-07
-1.52003e-07
1.29681e-07
-2.06203e-07
-1.71686e-08
-1.47455e-07
-1.5142e-07
-1.00492e-08
-1.97746e-07
1.28316e-07
-1.32324e-07
1.9117e-07
3.72657e-09
1.46938e-07
1.29736e-07
2.57775e-08
1.7428e-07
-1.00141e-07
1.17315e-07
-1.60406e-07
-2.11428e-10
-1.27197e-07
-1.0452e-07
-2.85759e-08
-1.36111e-07
7.25754e-08
-8.52956e-08
1.19088e-07
6.10487e-09
9.30465e-08
7.62212e-08
2.17679e-08
8.50637e-08
-4.51861e-08
3.77656e-08
-6.99407e-08
-2.12971e-08
-4.68602e-08
-4.78867e-08
-6.8842e-10
2.49174e-08
2.26108e-08
1.06091e-07
1.31869e-07
1.52888e-08
2.0448e-07
-1.41967e-07
1.66454e-07
-2.28602e-07
3.5316e-09
-1.81653e-07
-1.96184e-07
-1.42431e-08
-3.02034e-07
1.84766e-07
-2.29951e-07
2.93925e-07
-5.4838e-09
2.34028e-07
2.43107e-07
2.49893e-08
3.60681e-07
-2.16774e-07
2.64079e-07
-3.44444e-07
2.94878e-10
-2.7185e-07
-2.76279e-07
-3.17288e-08
-3.96501e-07
2.3833e-07
-2.81935e-07
3.76669e-07
3.87287e-09
2.96353e-07
2.91849e-07
4.03068e-08
4.09739e-07
-2.42399e-07
2.86929e-07
-3.85373e-07
-3.06469e-09
-3.0461e-07
-2.88068e-07
-4.8311e-08
-4.0167e-07
2.32963e-07
-2.81871e-07
3.76656e-07
-4.60279e-09
3.03643e-07
2.6566e-07
6.17964e-08
3.7527e-07
-2.06176e-07
2.6966e-07
-3.48526e-07
1.93171e-08
-2.91355e-07
-2.27883e-07
-7.6334e-08
-3.354e-07
1.69457e-07
-2.53737e-07
3.09835e-07
-4.10341e-08
2.75408e-07
1.78085e-07
9.65223e-08
2.86361e-07
-1.21228e-07
2.36201e-07
-2.6006e-07
6.77833e-08
-2.53537e-07
-1.21446e-07
-1.16544e-07
-2.33446e-07
7.03313e-08
-2.19316e-07
2.08464e-07
-9.77229e-08
2.32564e-07
6.2341e-08
1.39558e-07
1.80454e-07
-1.61629e-08
2.03606e-07
-1.54364e-07
1.27524e-07
-2.0922e-07
-6.02792e-09
-1.58893e-07
-1.3142e-07
-3.25968e-08
-1.89653e-07
1.0578e-07
-1.54433e-07
1.88711e-07
-4.36605e-08
1.76703e-07
8.84916e-08
7.67484e-08
1.76429e-07
-6.08624e-08
1.7488e-07
-1.66612e-07
8.27861e-08
-1.862e-07
-5.3738e-08
-1.08818e-07
-1.63281e-07
2.58028e-08
-1.86459e-07
1.46827e-07
-1.09202e-07
1.89527e-07
2.74259e-08
1.30764e-07
1.48381e-07
2.67731e-09
1.86383e-07
-1.24297e-07
1.20691e-07
-1.80553e-07
-1.03102e-08
-1.36618e-07
-1.31183e-07
-1.96624e-08
-1.73714e-07
1.02789e-07
-1.16901e-07
1.62506e-07
1.73323e-09
1.29865e-07
1.10336e-07
2.93618e-08
1.47121e-07
-7.74706e-08
9.70437e-08
-1.30333e-07
-1.98966e-09
-1.05479e-07
-8.62317e-08
-2.65685e-08
-1.07823e-07
5.41558e-08
-6.34327e-08
9.05385e-08
8.29398e-09
6.9828e-08
5.70948e-08
1.58529e-08
5.68023e-08
-3.15256e-08
2.24129e-08
-4.41457e-08
-9.55815e-09
-2.26337e-08
4.27627e-09
-1.19239e-07
1.33796e-07
-2.24545e-08
1.21567e-07
1.22091e-07
-8.26238e-09
2.16097e-07
-1.50295e-07
1.72875e-07
-2.26904e-07
4.83333e-09
-1.82198e-07
-1.90833e-07
-2.32305e-08
-2.88612e-07
1.67895e-07
-2.15094e-07
2.7641e-07
-1.36599e-09
2.26733e-07
2.29114e-07
3.58886e-08
3.33635e-07
-1.89247e-07
2.4029e-07
-3.13174e-07
-2.78873e-09
-2.55189e-07
-2.52667e-07
-4.2422e-08
-3.57748e-07
2.02608e-07
-2.51529e-07
3.34285e-07
5.09987e-09
2.72206e-07
2.60013e-07
5.0837e-08
3.62054e-07
-2.00428e-07
2.52165e-07
-3.34639e-07
-2.37513e-09
-2.74739e-07
-2.50405e-07
-5.81604e-08
-3.48495e-07
1.87394e-07
-2.45037e-07
3.20835e-07
-6.83163e-09
2.6995e-07
2.24992e-07
7.03402e-08
3.20053e-07
-1.59745e-07
2.32632e-07
-2.90724e-07
2.22463e-08
-2.55374e-07
-1.8717e-07
-8.26109e-08
-2.81319e-07
1.25009e-07
-2.17934e-07
2.53072e-07
-4.35298e-08
2.38594e-07
1.40163e-07
9.9707e-08
2.36088e-07
-8.11717e-08
2.02517e-07
-2.0673e-07
6.85903e-08
-2.16834e-07
-8.87364e-08
-1.15699e-07
-1.88979e-07
3.67701e-08
-1.88164e-07
1.60541e-07
-9.56164e-08
1.96759e-07
3.67268e-08
1.34065e-07
1.43072e-07
9.50733e-09
1.74981e-07
-1.13051e-07
1.21475e-07
-1.74662e-07
1.13114e-08
-1.48224e-07
-1.01657e-07
-4.94533e-08
-1.63241e-07
7.18312e-08
-1.43714e-07
1.55709e-07
-5.22255e-08
1.60806e-07
6.62773e-08
8.46316e-08
1.51789e-07
-3.4384e-08
1.59189e-07
-1.35255e-07
8.27684e-08
-1.65267e-07
-3.85185e-08
-1.08013e-07
-1.40011e-07
6.64174e-09
-1.66006e-07
1.17383e-07
-1.01411e-07
1.64312e-07
1.83294e-08
1.22199e-07
1.26232e-07