/*--------------------------------*- C++ -*----------------------------------*\
| =========                 |                                                 |
| \\      /  F ield         | OpenFOAM: The Open Source CFD Toolbox           |
|  \\    /   O peration     | Version:  2412                                  |
|   \\  /    A nd           | Website:  www.openfoam.com                      |
|    \\/     M anipulation  |                                                 |
\*---------------------------------------------------------------------------*/
FoamFile
{
    version     2.0;
    format      ascii;
    arch        "LSB;label=32;scalar=64";
    class       volScalarField;
    location    "9.65";
    object      p;
}
// * * * * * * * * * * * * * * * * * * * * * * * * * * * * * * * * * * * * * //

dimensions      [1 -1 -2 0 0 0 0];

internalField   nonuniform List<scalar> 
6400
(
13665
13664.8
13663.9
13662.2
13659.9
13657.2
13654.3
13651.3
13648.4
13645.6
13643
13640.7
13638.8
13637.3
13636.2
13635.5
13635.2
13635.4
13636
13637.1
13638.6
13640.5
13642.7
13645.4
13648.4
13651.7
13655.2
13659
13663
13667
13671
13674.9
13678.7
13682.2
13685.3
13688
13690.3
13692
13693.1
13693.7
13693.6
13692.9
13691.7
13689.9
13687.5
13684.8
13681.6
13678.1
13674.4
13670.5
13666.6
13662.7
13659
13655.4
13652
13648.9
13646.2
13643.8
13641.8
13640.1
13638.9
13638
13637.6
13637.6
13637.9
13638.7
13639.8
13641.3
13643.1
13645.2
13647.6
13650.1
13652.8
13655.6
13658.3
13660.7
13662.8
13664.4
13665.4
13665.7
12968.7
12968.5
12967.7
12966.1
12964.1
12961.7
12959.1
12956.5
12953.8
12951.3
12949
12946.9
12945.1
12943.7
12942.6
12942
12941.7
12941.8
12942.2
12943.1
12944.4
12946
12948
12950.2
12952.8
12955.7
12958.8
12962
12965.4
12968.9
12972.3
12975.7
12978.9
12981.9
12984.6
12986.9
12988.8
12990.2
12991.2
12991.7
12991.6
12991
12990
12988.4
12986.5
12984.1
12981.4
12978.4
12975.3
12972
12968.6
12965.3
12962.1
12959
12956.1
12953.4
12951.1
12949
12947.3
12945.9
12944.9
12944.2
12943.9
12943.9
12944.3
12945
12946.1
12947.5
12949.1
12951.1
12953.2
12955.5
12957.9
12960.4
12962.7
12964.9
12966.8
12968.2
12969
12969.1
12272.8
12272.5
12271.6
12270.2
12268.4
12266.2
12263.9
12261.5
12259.1
12256.8
12254.7
12252.8
12251.2
12249.9
12248.9
12248.2
12247.9
12247.9
12248.2
12248.9
12249.9
12251.2
12252.9
12254.8
12257
12259.4
12262
12264.7
12267.6
12270.5
12273.4
12276.2
12278.9
12281.4
12283.6
12285.5
12287.1
12288.3
12289.1
12289.5
12289.4
12289
12288.1
12286.8
12285.2
12283.2
12281
12278.6
12275.9
12273.2
12270.4
12267.6
12264.9
12262.3
12259.9
12257.7
12255.7
12254
12252.6
12251.5
12250.7
12250.2
12249.9
12250
12250.4
12251.1
12252.1
12253.3
12254.8
12256.6
12258.5
12260.5
12262.7
12264.8
12266.9
12268.9
12270.6
12271.9
12272.7
12272.8
11577.4
11577
11575.9
11574.5
11572.7
11570.7
11568.5
11566.3
11564.1
11562
11560
11558.3
11556.7
11555.5
11554.5
11553.8
11553.5
11553.4
11553.6
11554.1
11554.9
11556
11557.3
11558.9
11560.8
11562.8
11565
11567.3
11569.7
11572.2
11574.6
11577
11579.2
11581.3
11583.1
11584.7
11586
11587
11587.7
11588
11588
11587.6
11586.9
11585.9
11584.5
11582.9
11581.1
11579.1
11576.9
11574.6
11572.3
11570
11567.7
11565.6
11563.5
11561.7
11560
11558.6
11557.4
11556.5
11555.9
11555.5
11555.3
11555.5
11555.8
11556.5
11557.4
11558.6
11559.9
11561.5
11563.2
11565.1
11567.1
11569
11571
11572.8
11574.5
11575.8
11576.8
11577.1
10882.5
10881.7
10880.5
10879
10877.2
10875.2
10873.1
10871
10868.9
10866.9
10865.1
10863.4
10861.9
10860.7
10859.8
10859.1
10858.7
10858.5
10858.6
10859
10859.6
10860.4
10861.5
10862.8
10864.3
10866
10867.9
10869.8
10871.8
10873.9
10875.9
10877.9
10879.7
10881.4
10882.9
10884.2
10885.3
10886.1
10886.6
10886.9
10886.9
10886.6
10886.1
10885.3
10884.2
10882.9
10881.4
10879.8
10878
10876.1
10874.2
10872.3
10870.5
10868.7
10867
10865.5
10864.1
10862.9
10861.9
10861.1
10860.6
10860.3
10860.3
10860.4
10860.8
10861.4
10862.3
10863.3
10864.6
10866.1
10867.7
10869.4
10871.3
10873.2
10875
10876.8
10878.5
10880
10881.2
10881.8
10187.9
10186.8
10185.3
10183.6
10181.8
10179.7
10177.7
10175.6
10173.6
10171.7
10169.9
10168.3
10166.9
10165.7
10164.7
10164
10163.5
10163.3
10163.3
10163.5
10163.9
10164.6
10165.4
10166.5
10167.7
10169.1
10170.6
10172.2
10173.9
10175.6
10177.2
10178.8
10180.3
10181.7
10182.9
10184
10184.8
10185.4
10185.8
10186
10186
10185.9
10185.5
10184.9
10184.1
10183.1
10181.9
10180.6
10179.2
10177.7
10176.2
10174.6
10173.1
10171.7
10170.3
10169
10167.9
10166.9
10166.1
10165.5
10165.1
10164.9
10164.9
10165
10165.4
10166
10166.8
10167.9
10169
10170.4
10171.9
10173.6
10175.4
10177.2
10179.1
10181
10182.7
10184.4
10185.9
10186.9
9493.46
9492.06
9490.29
9488.39
9486.37
9484.29
9482.19
9480.12
9478.14
9476.27
9474.55
9473
9471.62
9470.44
9469.47
9468.71
9468.17
9467.84
9467.72
9467.79
9468.06
9468.53
9469.17
9469.99
9470.96
9472.06
9473.27
9474.56
9475.89
9477.25
9478.58
9479.86
9481.05
9482.13
9483.06
9483.83
9484.44
9484.89
9485.19
9485.34
9485.36
9485.24
9484.99
9484.59
9484.04
9483.33
9482.47
9481.48
9480.4
9479.24
9478.04
9476.81
9475.61
9474.46
9473.4
9472.42
9471.53
9470.74
9470.09
9469.6
9469.29
9469.15
9469.19
9469.41
9469.81
9470.4
9471.19
9472.15
9473.3
9474.62
9476.1
9477.73
9479.49
9481.35
9483.28
9485.22
9487.15
9489.03
9490.83
9492.19
8799.23
8797.47
8795.36
8793.21
8791.03
8788.83
8786.67
8784.57
8782.59
8780.73
8779.04
8777.52
8776.17
8775
8774.01
8773.21
8772.61
8772.19
8771.96
8771.9
8772.02
8772.31
8772.75
8773.34
8774.07
8774.9
8775.84
8776.83
8777.88
8778.92
8779.96
8780.94
8781.84
8782.63
8783.29
8783.81
8784.2
8784.46
8784.63
8784.72
8784.75
8784.73
8784.62
8784.43
8784.12
8783.68
8783.1
8782.41
8781.62
8780.77
8779.87
8778.94
8778.01
8777.12
8776.3
8775.57
8774.91
8774.33
8773.84
8773.49
8773.27
8773.21
8773.31
8773.57
8774
8774.6
8775.38
8776.33
8777.46
8778.76
8780.22
8781.85
8783.63
8785.54
8787.56
8789.64
8791.76
8793.89
8796.04
8797.78
8105.12
8102.98
8100.5
8098.08
8095.69
8093.35
8091.09
8088.94
8086.93
8085.08
8083.4
8081.89
8080.55
8079.39
8078.38
8077.55
8076.89
8076.39
8076.05
8075.87
8075.84
8075.96
8076.21
8076.59
8077.08
8077.67
8078.34
8079.07
8079.83
8080.6
8081.36
8082.07
8082.69
8083.22
8083.61
8083.88
8084.02
8084.08
8084.1
8084.12
8084.16
8084.22
8084.28
8084.3
8084.24
8084.07
8083.77
8083.34
8082.82
8082.24
8081.64
8080.99
8080.33
8079.67
8079.08
8078.55
8078.11
8077.72
8077.41
8077.18
8077.09
8077.11
8077.29
8077.6
8078.07
8078.69
8079.48
8080.44
8081.57
8082.88
8084.36
8086.01
8087.84
8089.83
8091.97
8094.23
8096.57
8098.98
8101.49
8103.65
7411.1
7408.54
7405.67
7402.94
7400.32
7397.81
7395.44
7393.22
7391.18
7389.32
7387.63
7386.12
7384.79
7383.62
7382.61
7381.74
7381.03
7380.45
7380.01
7379.71
7379.54
7379.49
7379.56
7379.73
7380.01
7380.36
7380.78
7381.25
7381.75
7382.26
7382.76
7383.21
7383.6
7383.87
7384.01
7384
7383.87
7383.69
7383.53
7383.46
7383.5
7383.67
7383.91
7384.17
7384.38
7384.49
7384.44
7384.27
7383.98
7383.65
7383.29
7382.93
7382.53
7382.12
7381.73
7381.42
7381.16
7380.97
7380.82
7380.76
7380.78
7380.91
7381.16
7381.55
7382.07
7382.73
7383.55
7384.54
7385.68
7387.01
7388.52
7390.22
7392.11
7394.2
7396.48
7398.94
7401.53
7404.25
7407.15
7409.76
6717.14
6714.13
6710.83
6707.76
6704.87
6702.16
6699.67
6697.38
6695.31
6693.43
6691.75
6690.25
6688.92
6687.75
6686.71
6685.82
6685.05
6684.4
6683.87
6683.45
6683.14
6682.94
6682.82
6682.8
6682.85
6682.98
6683.15
6683.37
6683.62
6683.89
6684.15
6684.38
6684.54
6684.59
6684.47
6684.17
6683.72
6683.23
6682.84
6682.64
6682.69
6682.98
6683.46
6684.02
6684.55
6684.94
6685.15
6685.19
6685.1
6684.95
6684.83
6684.71
6684.59
6684.43
6684.29
6684.17
6684.12
6684.11
6684.15
6684.23
6684.4
6684.64
6684.99
6685.45
6686.04
6686.75
6687.61
6688.62
6689.8
6691.16
6692.7
6694.45
6696.41
6698.61
6701.05
6703.71
6706.58
6709.64
6712.96
6716.06
6023.24
6019.72
6015.91
6012.45
6009.26
6006.35
6003.72
6001.38
5999.28
5997.41
5995.75
5994.26
5992.94
5991.77
5990.73
5989.81
5988.99
5988.27
5987.66
5987.13
5986.69
5986.32
5986.04
5985.81
5985.65
5985.53
5985.47
5985.43
5985.44
5985.47
5985.52
5985.56
5985.55
5985.4
5985.04
5984.4
5983.54
5982.64
5981.91
5981.53
5981.57
5982.04
5982.85
5983.82
5984.76
5985.48
5985.92
5986.15
5986.21
5986.22
5986.25
5986.36
5986.49
5986.62
5986.71
5986.84
5986.98
5987.17
5987.39
5987.65
5987.96
5988.33
5988.78
5989.33
5989.98
5990.76
5991.66
5992.7
5993.91
5995.29
5996.86
5998.65
6000.68
6002.98
6005.57
6008.45
6011.61
6015.06
6018.87
6022.51
5329.41
5325.27
5320.85
5316.93
5313.42
5310.3
5307.55
5305.15
5303.05
5301.21
5299.59
5298.14
5296.86
5295.7
5294.66
5293.72
5292.87
5292.09
5291.39
5290.76
5290.18
5289.67
5289.2
5288.79
5288.4
5288.05
5287.72
5287.44
5287.19
5287
5286.85
5286.75
5286.61
5286.36
5285.79
5284.75
5283.31
5281.81
5280.6
5279.93
5279.96
5280.69
5281.98
5283.55
5285.06
5286.16
5286.82
5287.16
5287.34
5287.45
5287.63
5287.91
5288.29
5288.67
5289.06
5289.42
5289.81
5290.19
5290.61
5291.04
5291.5
5292
5292.56
5293.19
5293.92
5294.74
5295.68
5296.74
5297.96
5299.34
5300.93
5302.73
5304.81
5307.19
5309.92
5313.01
5316.49
5320.38
5324.79
5329.08
4635.66
4630.73
4625.55
4621.09
4617.24
4613.92
4611.08
4608.67
4606.61
4604.83
4603.28
4601.9
4600.66
4599.54
4598.52
4597.57
4596.69
4595.86
4595.09
4594.35
4593.65
4592.98
4592.35
4591.72
4591.11
4590.5
4589.92
4589.35
4588.85
4588.41
4588.1
4587.9
4587.77
4587.53
4586.85
4585.34
4583.07
4580.66
4578.74
4577.67
4577.67
4578.76
4580.72
4583.18
4585.52
4587.11
4587.86
4588.21
4588.4
4588.62
4588.92
4589.39
4589.99
4590.66
4591.32
4591.98
4592.59
4593.21
4593.81
4594.43
4595.04
4595.68
4596.34
4597.06
4597.84
4598.7
4599.66
4600.73
4601.92
4603.28
4604.83
4606.62
4608.68
4611.09
4613.91
4617.21
4621.02
4625.43
4630.6
4635.7
3942
3936
3929.82
3924.74
3920.56
3917.1
3914.25
3911.9
3909.94
3908.28
3906.83
3905.56
3904.4
3903.34
3902.34
3901.4
3900.5
3899.63
3898.78
3897.96
3897.13
3896.32
3895.49
3894.66
3893.8
3892.94
3892.04
3891.17
3890.35
3889.66
3889.16
3888.94
3888.94
3888.97
3888.38
3886.36
3882.88
3879.24
3876.36
3874.75
3874.71
3876.26
3879.11
3882.78
3886.33
3888.44
3889.13
3889.21
3889.31
3889.57
3890.06
3890.75
3891.63
3892.58
3893.56
3894.49
3895.39
3896.23
3897.05
3897.84
3898.61
3899.37
3900.14
3900.93
3901.77
3902.65
3903.6
3904.64
3905.79
3907.07
3908.54
3910.22
3912.21
3914.56
3917.4
3920.84
3924.97
3929.98
3936.13
3942.29
3248.31
3240.86
3233.37
3227.6
3223.15
3219.66
3216.93
3214.76
3213.01
3211.54
3210.28
3209.15
3208.11
3207.13
3206.19
3205.27
3204.37
3203.46
3202.56
3201.64
3200.7
3199.73
3198.73
3197.67
3196.56
3195.37
3194.15
3192.89
3191.69
3190.65
3189.95
3189.71
3190.06
3190.76
3190.76
3188.19
3182.83
3177.15
3172.68
3170.13
3170.06
3172.47
3176.83
3182.47
3187.89
3190.59
3190.69
3190.11
3189.86
3190.17
3190.9
3191.94
3193.17
3194.49
3195.79
3197.05
3198.21
3199.32
3200.33
3201.3
3202.21
3203.1
3203.96
3204.82
3205.69
3206.58
3207.5
3208.49
3209.54
3210.7
3212
3213.51
3215.3
3217.48
3220.21
3223.67
3228.06
3233.74
3241.16
3248.75
2554.81
2545.31
2535.99
2529.43
2524.83
2521.51
2519.08
2517.25
2515.82
2514.65
2513.63
2512.69
2511.8
2510.93
2510.05
2509.17
2508.26
2507.33
2506.37
2505.37
2504.31
2503.2
2502.01
2500.74
2499.34
2497.85
2496.23
2494.54
2492.85
2491.38
2490.38
2490.26
2491.44
2494.14
2496.43
2493.21
2482.64
2471.08
2462.08
2457.01
2456.94
2461.86
2470.65
2482.07
2492.77
2496.19
2493.98
2491.31
2490.19
2490.38
2491.43
2492.93
2494.65
2496.38
2498.07
2499.62
2501.08
2502.4
2503.64
2504.76
2505.83
2506.82
2507.77
2508.68
2509.58
2510.46
2511.34
2512.24
2513.16
2514.14
2515.22
2516.45
2517.93
2519.78
2522.22
2525.53
2530.07
2536.52
2545.73
2555.32
1863.39
1849.75
1837.53
1830.14
1825.65
1822.78
1820.89
1819.58
1818.6
1817.77
1817.02
1816.28
1815.52
1814.72
1813.88
1812.99
1812.05
1811.06
1810.01
1808.9
1807.73
1806.46
1805.11
1803.62
1802
1800.21
1798.23
1796.06
1793.84
1791.8
1790.46
1790.64
1793.99
1802.5
1812.73
1808.97
1783.98
1758.83
1742.85
1735.21
1735.37
1743.07
1758.57
1783.32
1808.77
1813.08
1802.82
1794.03
1790.54
1790.35
1791.72
1793.8
1796.06
1798.26
1800.27
1802.11
1803.77
1805.32
1806.72
1808.02
1809.21
1810.34
1811.39
1812.39
1813.34
1814.25
1815.12
1815.95
1816.76
1817.56
1818.38
1819.28
1820.33
1821.68
1823.6
1826.46
1830.9
1838.16
1850.18
1863.85
1171.22
1148.18
1133.71
1127.01
1123.8
1122.23
1121.46
1121.04
1120.73
1120.42
1120.03
1119.55
1118.96
1118.27
1117.48
1116.6
1115.64
1114.62
1113.51
1112.33
1111.06
1109.7
1108.21
1106.58
1104.77
1102.75
1100.38
1097.61
1094.44
1091.16
1088.26
1087.14
1091.29
1106.93
1129.64
1128.79
1096.45
1085.09
1099.81
1113.26
1114.16
1101.75
1086.22
1096.43
1129.67
1131.55
1108.6
1092.06
1087.41
1088.36
1091.23
1094.54
1097.72
1100.49
1102.85
1104.86
1106.68
1108.33
1109.86
1111.24
1112.54
1113.73
1114.85
1115.89
1116.87
1117.77
1118.59
1119.32
1119.96
1120.5
1120.96
1121.35
1121.73
1122.21
1123.02
1124.59
1127.7
1134.18
1148.4
1171.39
431.303
411.187
406.62
407.27
409.005
410.961
412.807
414.405
415.732
416.8
417.64
418.277
418.739
419.042
419.208
419.238
419.145
418.916
418.549
418.012
417.284
416.308
415.042
413.4
411.318
408.673
405.471
401.634
397.129
391.883
385.995
380.015
376.343
380.559
395.501
427.856
529.109
686.756
817.569
874.023
875.648
822.111
692.657
533.211
430.15
396.411
381.094
376.536
380.006
385.951
391.876
397.176
401.716
405.584
408.854
411.569
413.68
415.336
416.609
417.59
418.317
418.849
419.206
419.427
419.512
419.478
419.313
419.014
418.561
417.939
417.12
416.078
414.781
413.208
411.365
409.359
407.485
406.595
410.885
430.852
6.64746
7.89402
11.629
14.9037
17.5453
19.7131
21.5216
23.0549
24.3771
25.5357
26.5647
27.4888
28.3236
29.079
29.7575
30.3576
30.8705
31.2841
31.5777
31.7271
31.6966
31.4474
30.9252
30.0708
28.8075
27.0625
24.9305
22.5161
19.7614
16.5604
12.7427
8.08987
2.42071
-4.50977
-10.0516
35.7297
242.784
471.938
625.983
694.345
696.112
630.647
479.004
250.044
39.5071
-10.0614
-4.78824
2.22386
7.94344
12.6665
16.5015
19.7046
22.4725
24.9019
27.0574
28.8309
30.1136
30.9816
31.5137
31.7699
31.8051
31.6584
31.3662
30.9533
30.4409
29.8412
29.1632
28.4083
27.5743
26.6514
25.6242
24.468
23.1492
21.6192
19.8107
17.6326
14.9664
11.6553
7.88426
6.66533
-10.5458
-10.5457
-10.5458
-10.5458
-10.5458
-10.5458
-10.5458
-10.5458
-10.5458
-10.5458
-10.5459
-10.5459
-10.546
-10.5461
-10.5462
-10.5464
-10.5467
-10.5472
-10.5478
-10.5487
-10.5501
-10.5521
-10.555
-10.5575
-10.5576
-10.5555
-10.5529
-10.5517
-10.5528
-10.5471
-10.5287
-10.5097
-10.529
-10.5219
-10.5353
-10.5261
49.3906
259.158
423.945
480.518
481.599
428.061
268.053
53.8823
-10.5374
-10.547
-10.5363
-10.539
-10.5065
-10.483
-10.518
-10.5537
-10.5561
-10.5563
-10.5592
-10.5606
-10.5577
-10.5532
-10.5496
-10.5474
-10.5462
-10.5456
-10.5453
-10.5451
-10.545
-10.5449
-10.5449
-10.5448
-10.5448
-10.5448
-10.5449
-10.5449
-10.5449
-10.545
-10.545
-10.545
-10.545
-10.545
-10.545
-10.5449
-11.0361
-11.0361
-11.0361
-11.0361
-11.0361
-11.0361
-11.0361
-11.0361
-11.0362
-11.0362
-11.0362
-11.0363
-11.0364
-11.0366
-11.0368
-11.037
-11.0374
-11.0378
-11.0385
-11.0394
-11.0407
-11.0424
-11.0441
-11.0452
-11.0455
-11.0445
-11.0427
-11.0415
-11.0415
-11.0414
-11.038
-11.0317
-11.0316
-11.034
-11.0364
-11.0409
2.14002
100.761
219.287
241.042
241.225
221.284
106.036
4.06926
-11.0381
-11.0432
-11.0386
-11.0307
-11.0262
-11.0288
-11.0398
-11.0443
-11.0442
-11.0442
-11.0466
-11.0481
-11.0475
-11.0449
-11.0417
-11.0391
-11.0374
-11.0364
-11.036
-11.0357
-11.0355
-11.0353
-11.0353
-11.0352
-11.0352
-11.0352
-11.0352
-11.0352
-11.0352
-11.0353
-11.0353
-11.0353
-11.0354
-11.0354
-11.0354
-11.0354
-11.5266
-11.5266
-11.5266
-11.5266
-11.5266
-11.5266
-11.5265
-11.5265
-11.5266
-11.5266
-11.5266
-11.5267
-11.5268
-11.5269
-11.527
-11.5272
-11.5276
-11.528
-11.5287
-11.5297
-11.5313
-11.5336
-11.5365
-11.5387
-11.5386
-11.5369
-11.5348
-11.533
-11.5337
-11.5354
-11.5369
-11.5365
-11.5336
-11.5284
-11.5234
-11.5282
-11.5424
12.6003
124.2
162.85
164.6
130.381
16.5487
-11.5219
-11.5238
-11.5221
-11.5204
-11.5292
-11.5355
-11.536
-11.5368
-11.5379
-11.5375
-11.5386
-11.5411
-11.542
-11.539
-11.5348
-11.5316
-11.5293
-11.5276
-11.5266
-11.5262
-11.5259
-11.5257
-11.5257
-11.5256
-11.5256
-11.5256
-11.5256
-11.5256
-11.5256
-11.5256
-11.5257
-11.5257
-11.5258
-11.5258
-11.5259
-11.5259
-11.5259
-12.0171
-12.0171
-12.017
-12.017
-12.017
-12.017
-12.017
-12.017
-12.017
-12.017
-12.0171
-12.0171
-12.0172
-12.0173
-12.0174
-12.0176
-12.0179
-12.0183
-12.0189
-12.0199
-12.0217
-12.0243
-12.0271
-12.0299
-12.0309
-12.0295
-12.0276
-12.0268
-12.0281
-12.0294
-12.028
-12.0242
-12.0197
-12.0102
-12.0078
-12.0135
-12.0051
-10.5354
26.5369
57.3738
58.6499
30.292
-9.95968
-12.0073
-12.0097
-12.0049
-12.0019
-12.0085
-12.019
-12.0267
-12.033
-12.0335
-12.031
-12.0312
-12.0325
-12.0323
-12.03
-12.0269
-12.0225
-12.0189
-12.0174
-12.0168
-12.0165
-12.0163
-12.0162
-12.0161
-12.0161
-12.016
-12.016
-12.016
-12.0161
-12.0161
-12.0161
-12.0162
-12.0162
-12.0163
-12.0163
-12.0163
-12.0164
-12.0164
-12.5075
-12.5075
-12.5075
-12.5075
-12.5075
-12.5075
-12.5075
-12.5075
-12.5075
-12.5075
-12.5075
-12.5075
-12.5076
-12.5076
-12.5077
-12.5078
-12.508
-12.5082
-12.5086
-12.5095
-12.5113
-12.5141
-12.5173
-12.5198
-12.5212
-12.5206
-12.5203
-12.5236
-12.5224
-12.5165
-12.5099
-12.5049
-12.5021
-12.4979
-12.4977
-12.5107
-12.53
-12.4875
-12.4819
-12.4727
-12.4674
-12.4804
-12.4772
-12.5071
-12.5021
-12.4954
-12.4894
-12.4886
-12.4974
-12.5169
-12.5339
-12.5359
-12.5296
-12.5238
-12.5222
-12.5203
-12.5176
-12.5157
-12.512
-12.5091
-12.5076
-12.5068
-12.5066
-12.5066
-12.5065
-12.5065
-12.5065
-12.5065
-12.5065
-12.5065
-12.5066
-12.5066
-12.5066
-12.5067
-12.5067
-12.5068
-12.5068
-12.5068
-12.5069
-12.5069
-12.998
-12.998
-12.998
-12.998
-12.998
-12.998
-12.998
-12.998
-12.998
-12.998
-12.998
-12.998
-12.998
-12.998
-12.998
-12.998
-12.9981
-12.9982
-12.9982
-12.9988
-13.0004
-13.0025
-13.0045
-13.0071
-13.0098
-13.0111
-13.0115
-13.0123
-13.0131
-13.0105
-13.0055
-13.0016
-13.0004
-13.0008
-13.0024
-13.0067
-13.0174
-12.9703
-12.9633
-12.965
-12.9646
-12.9621
-12.9714
-13.0031
-12.9946
-12.9888
-12.9894
-12.9938
-13.0013
-13.0083
-13.0109
-13.0118
-13.0133
-13.0142
-13.0133
-13.0088
-13.0048
-13.004
-13.0023
-12.9998
-12.9979
-12.9971
-12.997
-12.997
-12.997
-12.997
-12.997
-12.997
-12.997
-12.997
-12.9971
-12.9971
-12.9971
-12.9972
-12.9972
-12.9973
-12.9973
-12.9973
-12.9974
-12.9974
-13.4885
-13.4885
-13.4885
-13.4885
-13.4885
-13.4885
-13.4885
-13.4884
-13.4884
-13.4884
-13.4884
-13.4884
-13.4884
-13.4884
-13.4883
-13.4883
-13.4882
-13.4881
-13.4879
-13.4882
-13.4895
-13.4912
-13.4928
-13.4971
-13.5043
-13.5116
-13.517
-13.5185
-13.5154
-13.5086
-13.5009
-13.495
-13.4938
-13.4981
-13.4992
-13.4909
-13.475
-13.468
-13.4644
-13.4609
-13.4605
-13.4643
-13.4717
-13.4792
-13.481
-13.4824
-13.4855
-13.4897
-13.4949
-13.5009
-13.5071
-13.5119
-13.5149
-13.5148
-13.511
-13.5024
-13.494
-13.4907
-13.4909
-13.49
-13.4882
-13.4875
-13.4875
-13.4874
-13.4874
-13.4875
-13.4875
-13.4875
-13.4875
-13.4875
-13.4876
-13.4876
-13.4876
-13.4877
-13.4877
-13.4878
-13.4878
-13.4879
-13.4879
-13.4879
-13.979
-13.979
-13.979
-13.979
-13.979
-13.979
-13.9789
-13.9789
-13.9789
-13.9789
-13.9789
-13.9788
-13.9788
-13.9788
-13.9787
-13.9786
-13.9785
-13.9783
-13.978
-13.9781
-13.9795
-13.9818
-13.984
-13.9896
-14.0008
-14.0134
-14.0218
-14.0227
-14.0163
-14.006
-13.9956
-13.9874
-13.9823
-13.9794
-13.9776
-13.9763
-13.9727
-13.9667
-13.9639
-13.9606
-13.9597
-13.9622
-13.9651
-13.9685
-13.9719
-13.975
-13.9785
-13.9825
-13.9878
-13.9951
-14.0037
-14.0123
-14.0178
-14.0177
-14.0102
-13.997
-13.9856
-13.9812
-13.9805
-13.9799
-13.9786
-13.9781
-13.978
-13.978
-13.978
-13.978
-13.978
-13.978
-13.978
-13.9781
-13.9781
-13.9781
-13.9782
-13.9782
-13.9783
-13.9783
-13.9783
-13.9784
-13.9784
-13.9784
-14.4695
-14.4695
-14.4695
-14.4695
-14.4695
-14.4694
-14.4694
-14.4694
-14.4694
-14.4694
-14.4693
-14.4693
-14.4693
-14.4692
-14.4691
-14.469
-14.4689
-14.4687
-14.4686
-14.4685
-14.4699
-14.4733
-14.4775
-14.4837
-14.4953
-14.5093
-14.5181
-14.5179
-14.5101
-14.4985
-14.4876
-14.4796
-14.4743
-14.4699
-14.4661
-14.4646
-14.464
-14.4624
-14.4602
-14.4574
-14.456
-14.457
-14.4591
-14.4613
-14.4639
-14.4667
-14.4701
-14.4742
-14.4797
-14.4874
-14.4974
-14.5082
-14.5162
-14.5168
-14.5083
-14.4927
-14.4785
-14.4724
-14.4713
-14.4704
-14.4693
-14.4688
-14.4687
-14.4686
-14.4686
-14.4686
-14.4686
-14.4686
-14.4686
-14.4686
-14.4686
-14.4687
-14.4687
-14.4687
-14.4688
-14.4688
-14.4689
-14.4689
-14.4689
-14.4689
-14.96
-14.96
-14.96
-14.96
-14.96
-14.9599
-14.9599
-14.9599
-14.9599
-14.9599
-14.9598
-14.9598
-14.9598
-14.9597
-14.9596
-14.9596
-14.9595
-14.9594
-14.9594
-14.9595
-14.9605
-14.9638
-14.9693
-14.9763
-14.986
-14.9981
-15.0055
-15.0051
-14.9979
-14.9873
-14.9774
-14.9701
-14.9651
-14.9617
-14.9592
-14.9575
-14.9562
-14.955
-14.9532
-14.9512
-14.9499
-14.9498
-14.9514
-14.9533
-14.9557
-14.9584
-14.9615
-14.9652
-14.9703
-14.9774
-14.987
-14.9976
-15.0056
-15.0066
-14.9981
-14.9834
-14.9703
-14.9641
-14.9624
-14.9612
-14.9602
-14.9597
-14.9594
-14.9593
-14.9592
-14.9592
-14.9592
-14.9592
-14.9592
-14.9592
-14.9592
-14.9592
-14.9592
-14.9593
-14.9593
-14.9594
-14.9594
-14.9594
-14.9594
-14.9595
-15.4505
-15.4505
-15.4505
-15.4505
-15.4505
-15.4504
-15.4504
-15.4504
-15.4504
-15.4504
-15.4503
-15.4503
-15.4503
-15.4502
-15.4502
-15.4502
-15.4501
-15.4501
-15.4502
-15.4506
-15.4515
-15.4538
-15.4584
-15.4649
-15.4729
-15.481
-15.4858
-15.4856
-15.4805
-15.4728
-15.4655
-15.46
-15.456
-15.453
-15.4506
-15.4487
-15.4474
-15.4461
-15.4446
-15.4432
-15.4424
-15.4421
-15.4435
-15.4452
-15.4473
-15.4495
-15.4521
-15.4552
-15.4592
-15.4647
-15.472
-15.4799
-15.4854
-15.4857
-15.4797
-15.4694
-15.4604
-15.4555
-15.4533
-15.4519
-15.451
-15.4505
-15.4502
-15.45
-15.4499
-15.4498
-15.4498
-15.4498
-15.4497
-15.4497
-15.4497
-15.4498
-15.4498
-15.4498
-15.4499
-15.4499
-15.4499
-15.45
-15.45
-15.45
-15.941
-15.941
-15.941
-15.941
-15.941
-15.9409
-15.9409
-15.9409
-15.9409
-15.9409
-15.9409
-15.9408
-15.9408
-15.9408
-15.9408
-15.9408
-15.9408
-15.9409
-15.9411
-15.9415
-15.9424
-15.944
-15.947
-15.9516
-15.9571
-15.9622
-15.9651
-15.9652
-15.9623
-15.9577
-15.9531
-15.9493
-15.9462
-15.9438
-15.9418
-15.9401
-15.9387
-15.9373
-15.936
-15.935
-15.9344
-15.9342
-15.9352
-15.9367
-15.9385
-15.9403
-15.9425
-15.9449
-15.9479
-15.9517
-15.9563
-15.961
-15.9639
-15.9635
-15.9598
-15.9541
-15.9491
-15.9458
-15.9438
-15.9426
-15.9418
-15.9412
-15.9409
-15.9407
-15.9406
-15.9405
-15.9404
-15.9404
-15.9403
-15.9403
-15.9403
-15.9403
-15.9403
-15.9404
-15.9404
-15.9404
-15.9405
-15.9405
-15.9405
-15.9405
-16.4315
-16.4315
-16.4315
-16.4315
-16.4315
-16.4315
-16.4314
-16.4314
-16.4314
-16.4314
-16.4314
-16.4314
-16.4314
-16.4314
-16.4314
-16.4314
-16.4315
-16.4316
-16.4319
-16.4323
-16.4331
-16.4343
-16.4363
-16.439
-16.4423
-16.4453
-16.4471
-16.4477
-16.4464
-16.4439
-16.4411
-16.4385
-16.4363
-16.4343
-16.4326
-16.4312
-16.4298
-16.4286
-16.4274
-16.4266
-16.4261
-16.4261
-16.4268
-16.428
-16.4294
-16.431
-16.4327
-16.4347
-16.4369
-16.4395
-16.4423
-16.4448
-16.4461
-16.4456
-16.4435
-16.4405
-16.4378
-16.4357
-16.4342
-16.4331
-16.4324
-16.432
-16.4316
-16.4314
-16.4312
-16.4311
-16.431
-16.431
-16.4309
-16.4309
-16.4309
-16.4309
-16.4309
-16.4309
-16.431
-16.431
-16.431
-16.431
-16.4311
-16.4311
-16.922
-16.922
-16.922
-16.922
-16.922
-16.922
-16.922
-16.9219
-16.9219
-16.9219
-16.9219
-16.9219
-16.9219
-16.9219
-16.922
-16.922
-16.9221
-16.9223
-16.9226
-16.923
-16.9236
-16.9246
-16.926
-16.9277
-16.9297
-16.9317
-16.9332
-16.9335
-16.9328
-16.9314
-16.9297
-16.9279
-16.9262
-16.9246
-16.9233
-16.922
-16.9209
-16.9198
-16.9188
-16.918
-16.9177
-16.9177
-16.9182
-16.9191
-16.9202
-16.9215
-16.9229
-16.9245
-16.9262
-16.9281
-16.9298
-16.9313
-16.9319
-16.9316
-16.9304
-16.9286
-16.927
-16.9256
-16.9245
-16.9237
-16.923
-16.9226
-16.9223
-16.922
-16.9219
-16.9218
-16.9217
-16.9216
-16.9215
-16.9215
-16.9215
-16.9215
-16.9215
-16.9215
-16.9215
-16.9215
-16.9216
-16.9216
-16.9216
-16.9216
-17.4125
-17.4125
-17.4125
-17.4125
-17.4125
-17.4125
-17.4125
-17.4125
-17.4125
-17.4125
-17.4125
-17.4125
-17.4125
-17.4125
-17.4126
-17.4127
-17.4128
-17.4129
-17.4132
-17.4136
-17.4141
-17.4149
-17.4159
-17.4171
-17.4184
-17.4197
-17.4206
-17.4209
-17.4206
-17.4198
-17.4186
-17.4174
-17.4161
-17.4149
-17.4137
-17.4127
-17.4118
-17.4109
-17.41
-17.4094
-17.4091
-17.4091
-17.4095
-17.4102
-17.411
-17.412
-17.4132
-17.4144
-17.4158
-17.4171
-17.4183
-17.4192
-17.4196
-17.4194
-17.4187
-17.4177
-17.4166
-17.4156
-17.4148
-17.4141
-17.4136
-17.4132
-17.4129
-17.4127
-17.4125
-17.4124
-17.4123
-17.4122
-17.4121
-17.4121
-17.412
-17.412
-17.412
-17.412
-17.4121
-17.4121
-17.4121
-17.4121
-17.4121
-17.4121
-17.903
-17.903
-17.903
-17.903
-17.903
-17.903
-17.903
-17.903
-17.903
-17.903
-17.903
-17.903
-17.9031
-17.9031
-17.9032
-17.9032
-17.9034
-17.9035
-17.9038
-17.9041
-17.9046
-17.9052
-17.9059
-17.9068
-17.9077
-17.9085
-17.9091
-17.9093
-17.9092
-17.9086
-17.9079
-17.907
-17.906
-17.9051
-17.9042
-17.9034
-17.9026
-17.9018
-17.9011
-17.9005
-17.9003
-17.9003
-17.9006
-17.9011
-17.9018
-17.9026
-17.9035
-17.9045
-17.9055
-17.9065
-17.9073
-17.9079
-17.9082
-17.9081
-17.9077
-17.9071
-17.9064
-17.9057
-17.905
-17.9045
-17.9041
-17.9038
-17.9035
-17.9033
-17.9031
-17.903
-17.9029
-17.9028
-17.9027
-17.9027
-17.9026
-17.9026
-17.9026
-17.9026
-17.9026
-17.9026
-17.9027
-17.9027
-17.9027
-17.9027
-18.3935
-18.3935
-18.3935
-18.3935
-18.3935
-18.3935
-18.3935
-18.3935
-18.3935
-18.3935
-18.3935
-18.3936
-18.3936
-18.3937
-18.3937
-18.3938
-18.3939
-18.3941
-18.3943
-18.3946
-18.395
-18.3955
-18.396
-18.3966
-18.3973
-18.3978
-18.3982
-18.3984
-18.3983
-18.3979
-18.3974
-18.3967
-18.396
-18.3953
-18.3946
-18.3939
-18.3933
-18.3927
-18.3921
-18.3916
-18.3914
-18.3914
-18.3916
-18.392
-18.3925
-18.3932
-18.3939
-18.3947
-18.3955
-18.3962
-18.3968
-18.3972
-18.3975
-18.3974
-18.3972
-18.3968
-18.3963
-18.3958
-18.3953
-18.3949
-18.3946
-18.3943
-18.394
-18.3938
-18.3937
-18.3935
-18.3934
-18.3934
-18.3933
-18.3932
-18.3932
-18.3932
-18.3932
-18.3932
-18.3932
-18.3932
-18.3932
-18.3932
-18.3932
-18.3932
-18.8841
-18.8841
-18.8841
-18.884
-18.884
-18.884
-18.884
-18.884
-18.884
-18.8841
-18.8841
-18.8841
-18.8842
-18.8842
-18.8843
-18.8844
-18.8845
-18.8846
-18.8848
-18.8851
-18.8854
-18.8858
-18.8862
-18.8866
-18.8871
-18.8874
-18.8877
-18.8878
-18.8878
-18.8875
-18.8871
-18.8867
-18.8861
-18.8855
-18.885
-18.8845
-18.884
-18.8835
-18.883
-18.8826
-18.8823
-18.8824
-18.8826
-18.8829
-18.8833
-18.8838
-18.8844
-18.885
-18.8856
-18.8861
-18.8866
-18.8869
-18.8871
-18.8871
-18.8869
-18.8867
-18.8863
-18.886
-18.8856
-18.8853
-18.885
-18.8848
-18.8846
-18.8844
-18.8842
-18.8841
-18.884
-18.8839
-18.8839
-18.8838
-18.8838
-18.8837
-18.8837
-18.8837
-18.8837
-18.8837
-18.8837
-18.8837
-18.8838
-18.8838
-19.3746
-19.3746
-19.3746
-19.3746
-19.3746
-19.3746
-19.3746
-19.3746
-19.3746
-19.3746
-19.3746
-19.3747
-19.3747
-19.3748
-19.3748
-19.3749
-19.375
-19.3752
-19.3753
-19.3755
-19.3758
-19.3761
-19.3764
-19.3767
-19.377
-19.3773
-19.3775
-19.3775
-19.3775
-19.3773
-19.377
-19.3767
-19.3763
-19.3758
-19.3754
-19.375
-19.3746
-19.3742
-19.3738
-19.3734
-19.3733
-19.3733
-19.3734
-19.3737
-19.374
-19.3744
-19.3748
-19.3753
-19.3758
-19.3762
-19.3765
-19.3768
-19.3769
-19.377
-19.3769
-19.3767
-19.3765
-19.3762
-19.3759
-19.3757
-19.3755
-19.3752
-19.3751
-19.3749
-19.3748
-19.3747
-19.3746
-19.3745
-19.3744
-19.3744
-19.3743
-19.3743
-19.3743
-19.3743
-19.3743
-19.3743
-19.3743
-19.3743
-19.3743
-19.3743
-19.8651
-19.8651
-19.8651
-19.8651
-19.8651
-19.8651
-19.8651
-19.8651
-19.8651
-19.8651
-19.8652
-19.8652
-19.8652
-19.8653
-19.8654
-19.8654
-19.8655
-19.8657
-19.8658
-19.866
-19.8662
-19.8664
-19.8666
-19.8669
-19.8671
-19.8673
-19.8674
-19.8675
-19.8674
-19.8673
-19.8671
-19.8668
-19.8665
-19.8661
-19.8658
-19.8655
-19.8652
-19.8649
-19.8645
-19.8642
-19.8641
-19.8641
-19.8642
-19.8644
-19.8647
-19.865
-19.8653
-19.8657
-19.8661
-19.8664
-19.8667
-19.8669
-19.867
-19.867
-19.867
-19.8668
-19.8667
-19.8665
-19.8663
-19.8661
-19.8659
-19.8657
-19.8656
-19.8654
-19.8653
-19.8652
-19.8651
-19.8651
-19.865
-19.8649
-19.8649
-19.8649
-19.8649
-19.8648
-19.8648
-19.8648
-19.8648
-19.8648
-19.8648
-19.8648
-20.3556
-20.3556
-20.3556
-20.3556
-20.3556
-20.3556
-20.3556
-20.3556
-20.3556
-20.3556
-20.3557
-20.3557
-20.3558
-20.3558
-20.3559
-20.3559
-20.356
-20.3561
-20.3563
-20.3564
-20.3566
-20.3567
-20.3569
-20.3571
-20.3573
-20.3574
-20.3575
-20.3575
-20.3575
-20.3574
-20.3572
-20.357
-20.3567
-20.3565
-20.3562
-20.356
-20.3558
-20.3555
-20.3553
-20.355
-20.3549
-20.355
-20.355
-20.3552
-20.3554
-20.3556
-20.3559
-20.3561
-20.3564
-20.3567
-20.3569
-20.357
-20.3571
-20.3572
-20.3571
-20.3571
-20.3569
-20.3568
-20.3566
-20.3565
-20.3563
-20.3562
-20.356
-20.3559
-20.3558
-20.3557
-20.3557
-20.3556
-20.3555
-20.3555
-20.3555
-20.3554
-20.3554
-20.3554
-20.3554
-20.3554
-20.3554
-20.3554
-20.3554
-20.3554
-20.8461
-20.8461
-20.8461
-20.8461
-20.8461
-20.8461
-20.8461
-20.8461
-20.8461
-20.8462
-20.8462
-20.8462
-20.8463
-20.8463
-20.8464
-20.8464
-20.8465
-20.8466
-20.8467
-20.8468
-20.847
-20.8471
-20.8472
-20.8474
-20.8475
-20.8476
-20.8476
-20.8477
-20.8476
-20.8475
-20.8474
-20.8472
-20.847
-20.8468
-20.8467
-20.8465
-20.8463
-20.8461
-20.8459
-20.8457
-20.8457
-20.8459
-20.8458
-20.8459
-20.846
-20.8462
-20.8464
-20.8466
-20.8468
-20.847
-20.8472
-20.8473
-20.8474
-20.8474
-20.8474
-20.8473
-20.8472
-20.8471
-20.847
-20.8469
-20.8468
-20.8466
-20.8465
-20.8464
-20.8463
-20.8463
-20.8462
-20.8461
-20.8461
-20.8461
-20.846
-20.846
-20.846
-20.8459
-20.8459
-20.8459
-20.8459
-20.8459
-20.8459
-20.8459
-21.3366
-21.3366
-21.3366
-21.3366
-21.3366
-21.3366
-21.3366
-21.3366
-21.3367
-21.3367
-21.3367
-21.3368
-21.3368
-21.3368
-21.3369
-21.3369
-21.337
-21.3371
-21.3372
-21.3373
-21.3374
-21.3375
-21.3376
-21.3377
-21.3378
-21.3378
-21.3379
-21.3379
-21.3378
-21.3378
-21.3377
-21.3375
-21.3374
-21.3372
-21.3371
-21.337