/*--------------------------------*- C++ -*----------------------------------*\
| =========                 |                                                 |
| \\      /  F ield         | OpenFOAM: The Open Source CFD Toolbox           |
|  \\    /   O peration     | Version:  2412                                  |
|   \\  /    A nd           | Website:  www.openfoam.com                      |
|    \\/     M anipulation  |                                                 |
\*---------------------------------------------------------------------------*/
FoamFile
{
    version     2.0;
    format      ascii;
    arch        "LSB;label=32;scalar=64";
    class       volScalarField;
    location    "4.45";
    object      p_rgh;
}
// * * * * * * * * * * * * * * * * * * * * * * * * * * * * * * * * * * * * * //

dimensions      [1 -1 -2 0 0 0 0];

internalField   nonuniform List<scalar> 
6400
(
12451.6
12451.7
12451.4
12450.8
12449.8
12448.6
12447.1
12445.5
12443.9
12442.2
12440.4
12438.7
12437
12435.2
12433.5
12431.7
12429.9
12428
12426.1
12424.1
12422
12419.8
12417.5
12414.9
12412.2
12409.3
12406.3
12403
12399.5
12395.9
12392.2
12388.5
12384.7
12381.2
12377.8
12374.9
12372.4
12370.4
12369.1
12368.5
12368.7
12369.6
12371.2
12373.4
12376.1
12379.2
12382.6
12386.3
12390
12393.7
12397.3
12400.8
12404.2
12407.3
12410.3
12413
12415.6
12418
12420.3
12422.4
12424.4
12426.3
12428.1
12429.9
12431.7
12433.4
12435.1
12436.8
12438.6
12440.3
12442
12443.7
12445.4
12447
12448.4
12449.7
12450.7
12451.3
12451.6
12451.6
12451.6
12451.6
12451.4
12450.8
12449.9
12448.8
12447.4
12446
12444.4
12442.8
12441.1
12439.4
12437.6
12435.8
12434.1
12432.2
12430.3
12428.4
12426.4
12424.3
12422.1
12419.7
12417.2
12414.6
12411.7
12408.7
12405.6
12402.2
12398.8
12395.2
12391.5
12387.8
12384.2
12380.8
12377.6
12374.7
12372.4
12370.5
12369.3
12368.8
12368.9
12369.7
12371.2
12373.3
12375.9
12378.8
12382.1
12385.6
12389.3
12392.9
12396.5
12400
12403.4
12406.6
12409.7
12412.6
12415.3
12417.8
12420.2
12422.4
12424.6
12426.6
12428.5
12430.4
12432.2
12434
12435.8
12437.5
12439.2
12440.9
12442.6
12444.2
12445.8
12447.3
12448.6
12449.8
12450.7
12451.3
12451.5
12451.5
12451.9
12451.9
12451.6
12451.1
12450.2
12449.2
12447.9
12446.5
12445
12443.5
12441.8
12440.1
12438.4
12436.6
12434.8
12432.9
12430.9
12428.9
12426.8
12424.6
12422.2
12419.7
12417.1
12414.3
12411.3
12408.2
12404.9
12401.5
12398
12394.3
12390.7
12387
12383.4
12380
12376.9
12374.2
12371.9
12370.1
12368.9
12368.4
12368.5
12369.3
12370.7
12372.7
12375.2
12378.1
12381.4
12384.8
12388.4
12392
12395.7
12399.2
12402.7
12406
12409.2
12412.2
12415
12417.7
12420.2
12422.6
12424.9
12427
12429.1
12431
12432.9
12434.8
12436.6
12438.3
12440
12441.7
12443.3
12444.9
12446.4
12447.8
12449
12450.1
12450.9
12451.5
12451.8
12451.8
12452.5
12452.5
12452.2
12451.6
12450.8
12449.7
12448.5
12447.2
12445.7
12444.2
12442.6
12440.9
12439.2
12437.4
12435.6
12433.6
12431.6
12429.5
12427.3
12425
12422.5
12419.9
12417.1
12414.2
12411.1
12407.9
12404.5
12400.9
12397.3
12393.6
12389.8
12386.1
12382.5
12379
12375.9
12373.1
12370.8
12369
12367.8
12367.3
12367.4
12368.2
12369.6
12371.6
12374.1
12377.1
12380.3
12383.8
12387.5
12391.2
12394.9
12398.5
12402.1
12405.6
12408.9
12412
12415
12417.8
12420.4
12422.9
12425.3
12427.5
12429.7
12431.7
12433.7
12435.5
12437.4
12439.1
12440.8
12442.5
12444.1
12445.6
12447
12448.4
12449.6
12450.6
12451.5
12452.1
12452.4
12452.4
12453.6
12453.5
12453.1
12452.4
12451.5
12450.5
12449.3
12448
12446.5
12445
12443.5
12441.8
12440.1
12438.3
12436.4
12434.4
12432.4
12430.2
12427.9
12425.5
12422.9
12420.2
12417.3
12414.3
12411.1
12407.7
12404.2
12400.5
12396.7
12392.8
12388.9
12385.1
12381.3
12377.7
12374.5
12371.6
12369.2
12367.3
12366.1
12365.5
12365.6
12366.5
12367.9
12370
12372.6
12375.7
12379
12382.7
12386.4
12390.3
12394.1
12398
12401.7
12405.2
12408.7
12412
12415.1
12418
12420.8
12423.4
12425.8
12428.2
12430.4
12432.5
12434.5
12436.4
12438.2
12440
12441.7
12443.3
12444.9
12446.4
12447.8
12449.1
12450.3
12451.4
12452.3
12452.9
12453.3
12453.5
12455
12454.7
12454.2
12453.4
12452.5
12451.4
12450.2
12448.9
12447.4
12446
12444.4
12442.7
12441
12439.2
12437.3
12435.3
12433.2
12431
12428.7
12426.2
12423.5
12420.7
12417.7
12414.5
12411.2
12407.7
12404
12400.1
12396.1
12392.1
12388
12383.9
12379.9
12376.1
12372.6
12369.5
12366.9
12364.9
12363.6
12363
12363.1
12364
12365.6
12367.9
12370.6
12373.9
12377.5
12381.3
12385.3
12389.4
12393.4
12397.4
12401.3
12405.1
12408.7
12412.1
12415.3
12418.4
12421.2
12423.9
12426.5
12428.9
12431.2
12433.3
12435.4
12437.3
12439.1
12440.9
12442.6
12444.2
12445.8
12447.3
12448.7
12450
12451.2
12452.3
12453.3
12454
12454.6
12454.9
12456.8
12456.3
12455.5
12454.6
12453.6
12452.4
12451.2
12449.9
12448.4
12447
12445.4
12443.8
12442
12440.2
12438.3
12436.3
12434.2
12431.9
12429.5
12427
12424.3
12421.4
12418.3
12415
12411.5
12407.8
12403.9
12399.9
12395.7
12391.3
12387
12382.6
12378.3
12374.2
12370.4
12367
12364.1
12361.9
12360.4
12359.7
12359.9
12360.9
12362.6
12365.1
12368.2
12371.7
12375.7
12379.8
12384.1
12388.4
12392.8
12397
12401.1
12405
12408.8
12412.3
12415.7
12418.9
12421.9
12424.7
12427.3
12429.8
12432.1
12434.3
12436.3
12438.3
12440.1
12441.9
12443.6
12445.2
12446.8
12448.2
12449.6
12451
12452.2
12453.4
12454.4
12455.3
12456.1
12456.6
12458.7
12458
12457
12456
12454.8
12453.6
12452.3
12450.9
12449.5
12448
12446.5
12444.9
12443.2
12441.4
12439.5
12437.5
12435.3
12433
12430.6
12428
12425.2
12422.2
12419
12415.6
12411.9
12408.1
12404
12399.7
12395.3
12390.7
12386
12381.2
12376.5
12372
12367.8
12363.9
12360.7
12358.1
12356.4
12355.6
12355.8
12356.9
12359
12361.8
12365.2
12369.2
12373.6
12378.1
12382.8
12387.5
12392.1
12396.7
12401
12405.2
12409.1
12412.8
12416.3
12419.6
12422.7
12425.6
12428.3
12430.8
12433.2
12435.4
12437.4
12439.4
12441.3
12443
12444.7
12446.3
12447.8
12449.3
12450.7
12452.1
12453.4
12454.6
12455.8
12456.8
12457.8
12458.6
12460.9
12459.9
12458.7
12457.5
12456.2
12454.8
12453.5
12452.1
12450.7
12449.2
12447.7
12446.1
12444.4
12442.6
12440.7
12438.7
12436.6
12434.3
12431.8
12429.1
12426.3
12423.2
12419.9
12416.4
12412.6
12408.6
12404.3
12399.8
12395
12390.1
12385
12379.8
12374.6
12369.5
12364.7
12360.3
12356.5
12353.5
12351.5
12350.6
12350.8
12352.1
12354.5
12357.8
12361.8
12366.3
12371.2
12376.3
12381.5
12386.6
12391.6
12396.5
12401.1
12405.5
12409.6
12413.5
12417.2
12420.6
12423.7
12426.7
12429.4
12432
12434.4
12436.6
12438.7
12440.6
12442.5
12444.2
12445.8
12447.4
12448.9
12450.4
12451.8
12453.2
12454.6
12455.9
12457.2
12458.5
12459.7
12460.7
12463.3
12462
12460.5
12459
12457.6
12456.1
12454.7
12453.3
12451.9
12450.4
12448.9
12447.3
12445.7
12444
12442.1
12440.1
12438
12435.7
12433.2
12430.5
12427.6
12424.5
12421.1
12417.5
12413.6
12409.3
12404.8
12400.1
12395
12389.6
12384.1
12378.3
12372.5
12366.7
12361.1
12356
12351.5
12347.9
12345.5
12344.4
12344.6
12346.3
12349.1
12353
12357.7
12363
12368.7
12374.4
12380.2
12385.8
12391.3
12396.5
12401.4
12406.1
12410.4
12414.5
12418.3
12421.8
12425
12428
12430.8
12433.4
12435.8
12438
12440
12442
12443.8
12445.5
12447.1
12448.6
12450.1
12451.5
12453
12454.4
12455.8
12457.3
12458.7
12460.2
12461.7
12463
12465.8
12464.1
12462.3
12460.6
12459
12457.4
12456
12454.5
12453.1
12451.7
12450.2
12448.7
12447.1
12445.4
12443.6
12441.6
12439.5
12437.3
12434.8
12432.1
12429.2
12426
12422.6
12418.8
12414.8
12410.4
12405.7
12400.6
12395.2
12389.4
12383.3
12376.9
12370.4
12363.7
12357.2
12351
12345.6
12341.2
12338.3
12336.9
12337.2
12339.2
12342.7
12347.4
12353.1
12359.4
12365.9
12372.5
12379
12385.2
12391.2
12396.8
12402
12406.9
12411.5
12415.7
12419.6
12423.2
12426.5
12429.6
12432.4
12434.9
12437.3
12439.5
12441.6
12443.4
12445.2
12446.8
12448.4
12449.9
12451.3
12452.7
12454.1
12455.6
12457.1
12458.6
12460.2
12462
12463.8
12465.5
12468.4
12466.3
12464.1
12462.2
12460.4
12458.7
12457.2
12455.7
12454.4
12453
12451.6
12450.1
12448.6
12447
12445.2
12443.3
12441.3
12439
12436.6
12433.9
12431
12427.8
12424.3
12420.5
12416.3
12411.8
12406.8
12401.5
12395.7
12389.5
12382.8
12375.7
12368.2
12360.5
12352.7
12345.3
12338.6
12333.2
12329.4
12327.7
12328.1
12330.6
12335
12340.9
12347.9
12355.4
12363.1
12370.7
12378
12384.9
12391.4
12397.4
12403
12408.1
12412.9
12417.3
12421.3
12424.9
12428.3
12431.4
12434.2
12436.7
12439.1
12441.2
12443.2
12445.1
12446.7
12448.3
12449.8
12451.2
12452.6
12453.9
12455.3
12456.7
12458.3
12459.9
12461.7
12463.7
12465.9
12468
12471
12468.5
12465.8
12463.6
12461.6
12459.9
12458.4
12457
12455.6
12454.3
12453
12451.7
12450.3
12448.7
12447
12445.2
12443.2
12441
12438.6
12436
12433
12429.8
12426.3
12422.4
12418.2
12413.5
12408.4
12402.8
12396.7
12390
12382.7
12374.8
12366.3
12357.3
12348
12338.8
12330.4
12323.5
12318.7
12316.5
12317
12320.2
12325.8
12333.3
12342
12351.2
12360.4
12369.2
12377.4
12385
12392
12398.4
12404.3
12409.7
12414.6
12419.1
12423.2
12426.9
12430.3
12433.4
12436.2
12438.7
12441.1
12443.2
12445.1
12446.8
12448.4
12449.9
12451.3
12452.6
12453.9
12455.2
12456.5
12457.9
12459.4
12461.1
12463.1
12465.4
12468
12470.6
12473.6
12470.5
12467.4
12464.8
12462.7
12461
12459.5
12458.1
12456.9
12455.8
12454.6
12453.4
12452
12450.6
12449
12447.3
12445.4
12443.2
12440.9
12438.3
12435.4
12432.2
12428.7
12424.8
12420.5
12415.7
12410.4
12404.6
12398.1
12391
12383.1
12374.4
12364.8
12354.2
12342.9
12331.4
12320.7
12311.8
12305.6
12302.7
12303.3
12307.5
12314.9
12324.5
12335.6
12347
12358
12368.1
12377.3
12385.6
12393.1
12399.9
12406.1
12411.7
12416.8
12421.3
12425.5
12429.3
12432.6
12435.7
12438.5
12441
12443.2
12445.3
12447.1
12448.8
12450.3
12451.7
12452.9
12454.1
12455.3
12456.4
12457.6
12458.9
12460.4
12462.2
12464.3
12466.9
12470.1
12473.2
12476.2
12472.3
12468.5
12465.7
12463.5
12461.8
12460.4
12459.3
12458.2
12457.3
12456.2
12455.2
12454
12452.7
12451.2
12449.6
12447.8
12445.7
12443.4
12440.9
12438.1
12434.9
12431.4
12427.5
12423.2
12418.4
12413
12407
12400.2
12392.7
12384.3
12374.9
12364.1
12351.7
12337.9
12323.3
12309.4
12297.7
12289.5
12285.6
12286.5
12292.1
12301.8
12314.4
12328.7
12343
12356.2
12367.9
12378
12387
12394.9
12402.1
12408.4
12414.2
12419.3
12424
12428.2
12431.9
12435.3
12438.3
12441
12443.4
12445.6
12447.5
12449.3
12450.9
12452.3
12453.5
12454.7
12455.7
12456.7
12457.6
12458.6
12459.8
12461.2
12462.9
12465.1
12468
12471.9
12475.8
12478.4
12473.6
12469
12465.9
12463.7
12462.2
12461.1
12460.2
12459.5
12458.7
12458
12457.1
12456.1
12454.9
12453.6
12452.1
12450.4
12448.4
12446.3
12443.8
12441.1
12438.1
12434.6
12430.8
12426.5
12421.6
12416.2
12410.1
12403.2
12395.4
12386.6
12376.5
12364.6
12350.3
12333.2
12314.5
12296.1
12280.3
12269.1
12263.8
12264.9
12272.6
12285.7
12302.7
12321.4
12339.8
12355.7
12368.9
12379.9
12389.4
12397.7
12405
12411.5
12417.3
12422.5
12427.2
12431.3
12435
12438.3
12441.2
12443.8
12446.1
12448.2
12450
12451.7
12453.1
12454.4
12455.5
12456.5
12457.3
12458.1
12458.8
12459.5
12460.4
12461.6
12463.1
12465.3
12468.6
12473.2
12478
12480.2
12474.3
12468.7
12465.3
12463.3
12462.1
12461.4
12461
12460.6
12460.2
12459.7
12459
12458.2
12457.2
12456.1
12454.7
12453.1
12451.4
12449.3
12447
12444.4
12441.5
12438.2
12434.5
12430.3
12425.5
12420.1
12414
12407.1
12399.3
12390.5
12380.3
12368
12351.8
12330.2
12304.9
12279
12256.6
12240.9
12233
12234.6
12245.7
12264.3
12288.2
12314.3
12338.8
12358
12372.3
12383.5
12393.1
12401.5
12408.9
12415.4
12421.2
12426.3
12430.9
12434.9
12438.5
12441.7
12444.5
12446.9
12449.1
12451
12452.8
12454.2
12455.5
12456.7
12457.6
12458.4
12459
12459.5
12459.9
12460.2
12460.7
12461.4
12462.6
12464.7
12468.1
12473.7
12479.8
12482.3
12474.2
12467.2
12463.7
12462.2
12461.7
12461.6
12461.7
12461.7
12461.7
12461.4
12461
12460.4
12459.6
12458.6
12457.3
12455.9
12454.3
12452.4
12450.3
12447.9
12445.1
12442.1
12438.6
12434.6
12430.1
12424.9
12418.9
12412.3
12405
12396.9
12388.1
12377.8
12361.1
12332.2
12295
12256.5
12224.5
12203.5
12192.7
12194.7
12210.1
12235.9
12270
12308.9
12344.7
12367.9
12381.2
12390.5
12399
12406.8
12413.9
12420.1
12425.7
12430.6
12435.1
12438.9
12442.3
12445.3
12447.9
12450.1
12452.2
12454
12455.5
12456.9
12458.1
12459
12459.8
12460.4
12460.7
12460.9
12461
12460.9
12460.8
12460.9
12461.5
12463
12466.5
12473.6
12481.8
12482.5
12469.5
12462.1
12459.9
12459.8
12460.6
12461.5
12462.4
12463
12463.4
12463.5
12463.3
12462.9
12462.2
12461.3
12460.2
12459
12457.5
12455.8
12453.9
12451.8
12449.3
12446.6
12443.4
12439.9
12435.7
12430.8
12425.2
12418.8
12412
12405
12398.5
12392.4
12376.1
12338.6
12277.4
11996.4
11474.4
11000.3
10724.5
10758.1
11131.3
11659.9
12120.1
12307.2
12356.4
12382.9
12393.5
12399.4
12406.4
12413.6
12420.3
12426.1
12431.3
12436
12440.1
12443.7
12446.8
12449.4
12451.7
12453.8
12455.6
12457.2
12458.6
12459.8
12460.8
12461.7
12462.3
12462.6
12462.8
12462.6
12462.2
12461.5
12460.7
12459.7
12459
12459
12461.3
12468.8
12481.9
12450.7
12442.6
12444.2
12448.4
12452.5
12456
12458.9
12461.2
12462.9
12464.2
12465.1
12465.7
12466
12466.1
12465.9
12465.5
12464.9
12464
12462.5
12456.6
12444.9
12426.8
12401.6
12368.4
12326.3
12273.7
12208.1
12126.1
12022.6
11888
11705.2
11444.4
11048.4
10449.4
9071.02
7112.98
5259.53
3931.53
3411.59
3128.37
3152.92
3586.81
4381.45
5799.03
7620.17
9629.24
10623.1
11155.4
11512.9
11751.8
11921.7
12048.4
12146.3
12223.8
12286.1
12336.4
12376.5
12407.9
12431.3
12447.8
12458
12462.5
12463.6
12464.3
12464.9
12465.2
12465.3
12465.2
12464.8
12464.2
12463.2
12461.8
12460.1
12457.7
12454.9
12451.3
12447.3
12443.2
12441.7
12450
914.937
1323.38
1595.09
1800.66
1953.45
2070.22
2162.52
2237.64
2300.38
2353.98
2400.57
2441.47
2477.4
2508.58
2534.8
2555.48
2569.71
2576.22
2574.02
2565.21
2549.07
2523.76
2487.11
2436.8
2370.04
2283.97
2174.96
2039.33
1871.37
1664.3
1410.31
1097.02
693.968
243.671
199.776
516.447
1145.19
1261.9
1456.54
1446.9
1442.87
1422.52
1294.13
1053.87
383.88
70.5379
367.357
823.344
1193.75
1487.03
1725.31
1918.76
2075.27
2201.79
2303.53
2383.71
2444.87
2490.1
2522.14
2543.34
2555.92
2561.6
2560.29
2550.32
2533.13
2509.93
2481.6
2448.71
2411.41
2369.49
2322.2
2268.23
2205.46
2130.67
2039.12
1923.6
1772.73
1569.98
1302.22
900.134
0.000665255
-0.00110134
-0.00049077
-8.85676e-05
0.000159768
0.000232691
0.00012907
-0.000141796
-0.00057051
-0.00115296
-0.00188628
-0.00276824
-0.00379819
-0.0051444
-0.00678031
-0.00869088
-0.0110213
-0.0135188
-0.0154496
-0.0155457
-0.0157265
-0.0154194
-0.0180721
-0.0444369
-0.043725
0.0113991
0.168806
0.568839
0.720128
0.618273
0.490067
0.99753
3.54311
7.69724
238.685
2773.27
3823.38
3876.89
3908.58
3887.93
3893.6
3906.97
3871.54
3808.98
1848.73
17.376
5.53213
2.60666
0.971586
0.435852
0.272434
0.325124
0.541789
0.759337
0.744494
0.335776
0.0638479
-0.0125973
-0.00945525
-0.00580392
-0.00344769
-0.00463664
-0.00514201
-0.00348172
-0.00141393
0.000295198
0.001483
0.00237686
0.00299462
0.00348694
0.00387109
0.00415083
0.00432405
0.00438124
0.00430762
0.00408925
0.00372581
0.00323088
0.00257257
0.00436524
-0.00205816
-0.00206426
-0.0020997
-0.00217021
-0.00226971
-0.00239924
-0.00256344
-0.00277197
-0.00304048
-0.00339053
-0.0038492
-0.00444485
-0.0051786
-0.0061401
-0.00743983
-0.00906923
-0.0110866
-0.0132365
-0.0149755
-0.0152509
-0.0141755
-0.0176199
-0.026132
-0.0306854
-0.026328
-0.0135349
0.641158
2.46392
3.00936
1.67639
1.02893
3.14425
4.52129
5.13213
133.559
1524.46
2491.02
3630.44
3931.32
3924.34
3924.42
3930.75
3567.21
2450.24
1233.79
15.2599
3.25798
6.99094
5.38193
1.43565
0.782083
1.62786
3.32474
4.51874
3.84495
1.21803
0.00361702
-0.00723136
-0.00149779
-0.00089977
-0.00222471
-0.00397681
-0.00392064
-0.00298805
-0.00160101
-0.000347849
0.000489436
0.00099677
0.00126805
0.00145227
0.00155974
0.00161538
0.00164055
0.0016504
0.00165419
0.00165601
0.00165902
0.00166128
0.00165561
0.00164731
-0.00178879
-0.00182464
-0.00185354
-0.00194357
-0.00203828
-0.00215427
-0.00229775
-0.00247898
-0.00271089
-0.00301002
-0.00339859
-0.00391016
-0.00462034
-0.00556604
-0.00694563
-0.00869935
-0.0109864
-0.0134246
-0.0149699
-0.0153669
-0.0159406
0.00625872
0.0836558
0.0601474
-0.0407317
-0.0492988
0.373393
6.68372
7.82611
7.60581
2.52526
15.8653
56.1439
56.3224
40.9933
0.379208
0.431923
145.162
1917.45
1369.8
1376.86
1747.83
66.796
0.0749613
0.0799482
40.0201
57.8432
57.8236
17.5376
1.25014
1.20693
7.3903
7.56742
7.56183
7.44601
3.11008
-0.0193826
-0.0136154
-0.0090413
-0.00578
-0.00354373
-0.00415375
-0.00452271
-0.00349282
-0.00159436
-4.09785e-05
0.000876431
0.00139854
0.00169419
0.0018252
0.00187466
0.00188397
0.00187511
0.00185962
0.00184438
0.0018343
0.0018318
0.00184456
0.00183177
0.00185494
-0.0016802
-0.00167482
-0.00169142
-0.00174503
-0.00181666
-0.00191187
-0.00203477
-0.00219533
-0.00240831
-0.00269513
-0.00308646
-0.00362377
-0.00436355
-0.00536534
-0.00655291
-0.00820599
-0.0103918
-0.0133572
-0.0160364
-0.0171904
0.00868444
0.235174
0.269782
0.250964
0.202979
-0.0567551
-0.0542531
1.23469
5.91957
7.23536
7.19753
5.90627
3.88907
3.35395
0.0550164
0.450668
1.69884
0.0773672
0.0192903
0.066001
0.083794
0.0802264
0.0701222
0.0710161
0.0858112
0.0802746
1.06349
0.354361
2.97557
4.39024
4.39102
2.97861
5.05541
6.7353
3.51332
0.113071
0.019482
0.0600622
0.0890368
0.0452462
-0.00114964
-0.00434802
-0.00400866
-0.0025796
-0.000867629
0.000441513
0.0011931
0.00158044
0.00183738
0.00197959
0.00204036
0.00205172
0.00203664
0.00201029
0.00198224
0.00195807
0.00193873
0.00192792
0.00190063
0.00187074
-0.00148821
-0.00149447
-0.0015106
-0.00154629
-0.00159778
-0.00166901
-0.0017642
-0.00189151
-0.00206329
-0.00229701
-0.00261613
-0.00305192
-0.00364991
-0.00447239
-0.00557978
-0.00713906
-0.0094829
-0.0125207
-0.0155597
-0.0204095
0.057345
0.276098
0.278455
0.148458
-0.00506506
-0.0446875
-0.0499454
-0.038096
-0.00527207
0.034941
0.0520917
0.0610751
0.0614658
0.0570626
0.060817
0.811521
3.33738
2.89266
0.0633631
0.0695048
0.0705656
0.0716807
0.0699839
0.0704521
0.0779292
0.0824421
0.120679
0.112974
0.0262324
0.0139765
-0.0269782
-0.0531119
-0.0902642
-0.112022
-0.0924176
-0.0596116
0.0580579
0.255725
0.260666
0.25996
0.0429555
-0.00437742
-0.00302702
-0.00198694
-0.000256193
0.00119971
0.00183426
0.00206594
0.00217876
0.00221635
0.00220858
0.00217809
0.00213653
0.00209157
0.00204854
0.00201058
0.00197815
0.0019523
0.00192519
0.00190267
-0.00129581
-0.00130559
-0.00131807
-0.00134107
-0.00137471
-0.00142198
-0.00148697
-0.00157634
-0.00170022
-0.00187335
-0.00211678
-0.00246088
-0.00295243
-0.00365445
-0.00464817
-0.00614882
-0.0084862
-0.0115537
-0.0157748
-0.0196208
0.00572278
-0.0276438
-0.0512259
-0.0303807
-0.019983
-0.026281
-0.0424407
-0.0400202
-0.0124078
0.0181171
0.039204
0.0503757
0.0543733
0.0527641
0.0466129
0.0390911
0.0353488
0.0563141
0.0577069
0.0603578
0.0648779
0.0639959
0.0615888
0.0605126
0.0599141
0.0617268
0.0488749
0.0307379
0.0160727
-0.00229209
-0.0268078
-0.0482702
-0.0513686
-0.0410852
-0.0303694
-0.0105392
-0.00224506
0.12372
0.266148
0.265591
0.227769
0.0183033
-0.0025667
-0.00166577
-0.00023383
0.00137324
0.0020256
0.00222123
0.00230367
0.00230885
0.00227135
0.00221792
0.00215953
0.0021022
0.00204952
0.00200347
0.00196495
0.00193488
0.00191171
0.00190104
-0.00111329
-0.00111841
-0.00112429
-0.00113503
-0.00115126
-0.001175
-0.00120934
-0.00125935
-0.00133281
-0.00144143
-0.00160216
-0.0018397
-0.00219231
-0.00270653
-0.00345704
-0.00468847
-0.00646338
-0.00835885
-0.0127148
-0.0102231
0.01419
-0.0321342
-0.0720457
-0.0972293
-0.115027
-0.123839
-0.11077
-0.0739487
-0.0296626
0.00801979
0.0319942
0.0443256
0.0494592
0.0508858
0.0501609
0.0477272
0.0446484
0.0451584
0.0504566
0.0521541
0.0544019
0.0535585
0.0530373
0.0535909
0.0542754
0.0566818
0.0528349
0.0423615
0.0274523
0.00397796
-0.0302405
-0.0672625
-0.0977278
-0.108441
-0.0896999
-0.0477563
-0.0106595
0.002285
0.19458
0.271622
0.27862
0.154393
-0.00262391
-0.00162394
-0.000324572
0.00123035
0.00194271
0.00215515
0.00224048
0.00224913
0.00221439
0.00216221
0.00210403
0.00204634
0.00199297
0.00194608
0.00190699
0.00187687
0.00185566
0.00184671
-0.000936643
-0.000936847
-0.000935672
-0.000934684
-0.000934295
-0.000935431
-0.000939827
-0.000950565
-0.000972724
-0.00101415
-0.00108623
-0.00120558
-0.00139733
-0.00168626
-0.00212961
-0.00290796
-0.00378176
-0.00467581
-0.00945034
0.00110685
0.0221516
-0.0402196
-0.0923585
-0.164107
-0.208802
-0.215512
-0.188919
-0.134697
-0.0721193
-0.0207724
0.0118746
0.0290956
0.0370127
0.0403397
0.0418941
0.0429888
0.0439584
0.0447492
0.045142
0.0464482
0.046932
0.0464801
0.0464806
0.0465804
0.0466916
0.0472791
0.0440788
0.0343993
0.01619
-0.0146115
-0.0603847
-0.113653
-0.158388
-0.17807
-0.164382
-0.112934
-0.0442599
-0.0101789
0.0972867
0.286553
0.287244
0.183717
-0.00565536
-0.00282205
-0.000745408
0.000768946
0.00156497
0.00187158
0.00201179
0.00205911
0.00205257
0.00202014
0.0019759
0.00192819
0.00188205
0.00184044
0.0018052
0.00177777
0.00175875
0.00174953
-0.00076734
-0.000764211
-0.000756876
-0.000745618
-0.000730384
-0.000711079
-0.000688012
-0.000662252
-0.000636043
-0.000613224
-0.000599513
-0.000603288
-0.000636607
-0.000707333
-0.000851964
-0.00115521
-0.00132705
-0.00179383
-0.00486048
0.0106851
0.015933
-0.0488605
-0.132272
-0.233576
-0.292415
-0.298839
-0.265702
-0.19612
-0.115884
-0.0503324
-0.00840903
0.0144661
0.0260884
0.0320617
0.0352169
0.0368723
0.0376033
0.038395
0.0399038
0.0407403
0.0403487
0.0399314
0.0397263
0.039145
0.0380084
0.0359939
0.0307069
0.0192878
-0.00235619
-0.0408651
-0.100306
-0.17153
-0.231598
-0.258429
-0.246884
-0.187849
-0.0983999
-0.0389498
0.0568323
0.299017
0.301554
0.100728
-0.00956881
-0.00359263
-0.00136224
9.07589e-05
0.000986155
0.0014181
0.00164728
0.00175893
0.00179937
0.00180092
0.00178166
0.00175257
0.00172043
0.00168938
0.00166202
0.00164023
0.00162537
0.00161817
-0.00060916
-0.000603299
-0.000590824
-0.00057119
-0.000543732
-0.000507454
-0.000461418
-0.00040496
-0.000337914
-0.000260767
-0.000174618
-8.13545e-05
1.64412e-05
0.00012022
0.000209271
0.000263868
0.000488541
-4.91005e-05
0.00833315
0.0246857
0.00239423
-0.0607719
-0.168488
-0.286447
-0.352891
-0.363673
-0.320666
-0.238942
-0.146184
-0.0716282
-0.0243554
0.00176781
0.0157077
0.0236215
0.0283861
0.0312642
0.0329137
0.0338866
0.0347185
0.0351385
0.0344782
0.0339563
0.0333788
0.0320961
0.0296976
0.0255942
0.0181184
0.00430293
-0.0212882
-0.0674303
-0.139552
-0.226708
-0.300983
-0.337618
-0.323055
-0.257173
-0.152081
-0.0732202
-0.0381798
0.253824
0.246838
0.0236864
-0.0106262
-0.00436337
-0.00214395
-0.000685511
0.000303217
0.000857168
0.00118572
0.00137354
0.00147236
0.00151809
0.00153242
0.00152902
0.00151655
0.0015005
0.00148442
0.00147078
0.00146148
0.00145721
-0.000464114
-0.000456086
-0.000439719
-0.000413876
-0.000377371
-0.000328533
-0.00026553
-0.000186496
-8.96777e-05
2.65308e-05
0.000163669
0.000323164
0.000506004
0.000714246
0.000931997
0.00112193
0.00138075
0.000914983
0.00931634
0.0231215
0.010143
-0.0636325
-0.171474
-0.29376
-0.360882
-0.370096
-0.326579
-0.240357
-0.148949
-0.0763284
-0.0315835
-0.00623832
0.00790704
0.0166495
0.0221833
0.0256802
0.0277432
0.0287865
0.0295979
0.0297712
0.0291074
0.0284554
0.0275072
0.0256443
0.0222721
0.0167844
0.00786715
-0.00724857
-0.0342147
-0.0825922
-0.158349
-0.250506
-0.330166
-0.369201
-0.356314
-0.286971
-0.172329
-0.0833715
-0.0573608
-0.0196502
0.0183625
0.00837108
-0.0113821
-0.00564396
-0.00318471
-0.00154765
-0.000444499
0.000233039
0.000663306
0.000931341
0.00109395
0.00118965
0.00124303
0.00127008
0.00128124
0.00128334
0.00128094
0.00127712
0.00127423
0.00127312
-0.000333248
-0.000323859
-0.000305093
-0.000275427
-0.000233374
-0.000176897
-0.000103716
-1.14286e-05
0.000102321
0.000239739
0.000402741
0.000592548
0.000808378
0.00104516
0.00128215
0.00145251
0.00149219
0.00104165
0.00141781
0.0180439
0.00543686
-0.052063
-0.142499
-0.24666
-0.31078
-0.318853
-0.278758
-0.205205
-0.128766
-0.0697307
-0.0322312
-0.0100756
0.00196942
0.0109317
0.0167774
0.0206229
0.0229702
0.0240946
0.0247813
0.0248457
0.0242823
0.023486
0.0222245
0.0199239
0.015971
0.00984458
0.000542796
-0.0141595
-0.0390144
-0.0829155
-0.151363
-0.234909
-0.308271
-0.344353
-0.331231
-0.261924
-0.149761
-0.0690309
-0.0439713
-0.0349791
-0.0276295
-0.015424
-0.0129353
-0.00745505
-0.00441244
-0.00247025
-0.00122165
-0.000415614
0.000114192
0.000461384
0.000687994
0.000834975
0.00092931
0.000988875
0.00102561
0.00104753
0.00106011
0.00106707
0.00107116
0.0010735
-0.000217047
-0.000207136
-0.000187494
-0.000156406
-0.000112313
-5.31289e-05
2.34314e-05
0.000119668
0.000237631
0.000378821
0.000543669
0.000730491
0.00093318
0.0011366
0.00130581
0.00136096
0.00113317
0.000299139
-0.00219889
-0.00708154
-0.011804
-0.0432374
-0.0977311
-0.16385
-0.211937
-0.222554
-0.197862
-0.148696
-0.0969917
-0.0565638
-0.0294022
-0.0120907
-0.00107047
0.00678576
0.0123384
0.0161644
0.0186092
0.0198124
0.0204499
0.0204846
0.0200221
0.0190957
0.0176235
0.0150602
0.0108828
0.00465342
-0.00413877
-0.0171835
-0.0380247
-0.0730836
-0.126062
-0.189763
-0.244066
-0.267975
-0.251504
-0.191729
-0.109828
-0.0536033
-0.0354583
-0.0309154
-0.0281178
-0.0223563
-0.0137463
-0.00856029
-0.00534512
-0.00329397
-0.00194097
-0.00103565
-0.000423259
-6.49227e-06
0.000278217
0.000473262
0.00060699
0.000698465
0.000760708
0.000802642
0.000830473
0.000848471
0.000859776
0.000865729
-0.00011524
-0.000105641
-8.65025e-05
-5.61791e-05
-1.32418e-05
4.41875e-05
0.000118038
0.000210029
0.000321248
0.000451664
0.000599217
0.000758108
0.000915377
0.00104586
0.00110208
0.000988048
0.000507625
-0.00072363
-0.00341883
-0.00910555
-0.01987
-0.0364979
-0.0616919
-0.0965164
-0.12598
-0.136638
-0.126134
-0.0996945
-0.0694405
-0.0440374
-0.0253908
-0.0122517
-0.00296028
0.00386762
0.00888526
0.0124772
0.0148518
0.0161144
0.0167154
0.0167391
0.0163455
0.015326
0.0137671
0.0111372
0.00704862
0.00125893
-0.0066761
-0.0177576
-0.0341041
-0.0593315
-0.0957265
-0.138568
-0.172981
-0.183555
-0.166617
-0.125267
-0.0773128
-0.0462622
-0.0341763
-0.0292585
-0.024919
-0.0190829
-0.0129455
-0.00871092
-0.00583832
-0.00388857
-0.0025237
-0.00157666
-0.000912409
-0.000444748
-0.000113676
0.000122167
0.000290647
0.000411101
0.000497021
0.000557847
0.000600262
0.000628913
0.000647245
0.000656806
-2.68465e-05
-1.84777e-05
-9.27659e-07
2.68172e-05
6.59606e-05
0.000118002
0.000184282
0.000265672
0.00036198
0.000471309
0.000589012
0.00070582
0.000802389
0.000844558
0.000779314
0.000508327
-0.000159302
-0.0015406
-0.00417801
-0.00891208
-0.016533
-0.0276368
-0.0422005
-0.0607297
-0.077097
-0.0845147
-0.0804272
-0.066926
-0.0498333
-0.0340261
-0.0212456
-0.011377
-0.0038403
0.00192857
0.00630458
0.00953237
0.0117356
0.0129896
0.0135776
0.0136061
0.0132706
0.0122336
0.0106537
0.00808794
0.00431282
-0.000852327
-0.00770815
-0.0168171
-0.0292183
-0.0465069
-0.0696353
-0.0959953
-0.117177
-0.123472
-0.111959
-0.0871961
-0.0605564
-0.0431012
-0.0332392
-0.0267291
-0.021211
-0.0160664
-0.0117339
-0.00845723
-0.00602294
-0.00424448
-0.00295008
-0.00201159
-0.0013296
-0.000833562
-0.000470739
-0.000203886
-7.48532e-06
0.000137292
0.000243703
0.000321271
0.000376825
0.000415181
0.000439963
0.000453182
4.97535e-05
5.55623e-05
7.09924e-05
9.47943e-05
0.000128202
0.000172219
0.000227546
0.000294102
0.000370466
0.000452802
0.000533913
0.000604492
0.000638542
0.000601018
0.000435241
4.96394e-05
-0.000707459
-0.00206195
-0.00435322
-0.00807657
-0.0137352
-0.0215479
-0.0310484
-0.041641
-0.050669
-0.0548501
-0.053022
-0.045993
-0.0362158
-0.0262178
-0.0173642
-0.00999631
-0.00403116
0.000720523
0.00443602
0.00724896
0.00922674
0.0104179
0.0109961
0.0110396
0.0107258
0.00974231
0.00822039
0.00583225
0.0024611
-0.00201273
-0.00776724
-0.0150997
-0.0244383
-0.0362771
-0.0506002
-0.0656582
-0.0774213
-0.0815392
-0.0761435
-0.0632928
-0.0487023
-0.037532
-0.029384
-0.0233081
-0.0183466
-0.0141563
-0.0107699
-0.00809397
-0.00601905
-0.00443733
-0.00324193
-0.00234113
-0.0016675
-0.00116246
-0.000781751
-0.000494743
-0.000278351
-0.000114792
8.10599e-06
9.95803e-05
0.000166284
0.000212991
0.000243148
0.000260498
0.000116892
0.000117549
0.000131283
0.000150313
0.000176787
0.000211063
0.000253571
0.000303095
0.000357372
0.000411338
0.000456694
0.000480187
0.000458464
0.000356694
0.000122592
-0.000322107
-0.00109125
-0.00234163
-0.00429005
-0.00719272
-0.011293
-0.0166488
-0.0228272
-0.0291352
-0.0343027
-0.0369237
-0.0362464
-0.0324478
-0.0266175
-0.0201226
-0.0139278
-0.00845376
-0.00380598
3.42339e-05
0.00312314
0.00551658
0.00724685
0.00834548
0.00891
0.00897897
0.00866901
0.00776358
0.0063563
0.00420482
0.00126673
-0.00252746
-0.00726305
-0.0130757
-0.0201053
-0.0283974
-0.0375792
-0.0463718
-0.0526185
-0.0543806
-0.0512036
-0.0448066
-0.0370204
-0.030024
-0.0243441
-0.0197821
-0.0159304
-0.01264
-0.00989783
-0.00766911
-0.00589486
-0.00450182
-0.00341647
-0.00257525
-0.00192763
-0.00142831
-0.00104225
-0.000745009
-0.000516027
-0.000339444
-0.000204301
-0.00010216
-2.66463e-05
2.69367e-05
6.00974e-05
8.39158e-05
0.000173568
0.000171271
0.000182586
0.000196159
0.000215094
0.000239168
0.000268007
0.000300028
0.000332192
0.000358868
0.000371105
0.000354961
0.000288983
0.000141913
-0.000130785
-0.000592194
-0.00132625
-0.00244012
-0.00406445
-0.00632932
-0.0093104
-0.0129652
-0.0170161
-0.0209865
-0.0241832
-0.0258791
-0.0255751
-0.0233345
-0.0196908
-0.015377
-0.0110105
-0.00695191
-0.00336259
-0.00029935
0.0022271
0.00422522
0.00570883
0.00670276
0.00725212
0.00734793
0.00702855
0.00621504
0.00494597
0.00304997
0.000535399
-0.00263429
-0.00648428
-0.011051
-0.0163349
-0.0222268
-0.0283326
-0.0338208
-0.0375632
-0.0386109
-0.0366781
-0.0329988
-0.0284356
-0.0240155
-0.0201247
-0.0167584
-0.0138048
-0.0112255
-0.0090211
-0.0071816
-0.00567751
-0.00446348
-0.00349302
-0.00272251
-0.0021129
-0.00163154
-0.00125162
-0.000952654
-0.000717694
-0.000533485
-0.00039017
-0.000280463
-0.000198533
-0.000139776
-0.000104634
-7.50263e-05
0.000221958
0.000218717
0.000226347
0.000234691
0.000246096
0.000260082
0.000275734
0.00029117
0.000302987
0.000305476
0.000289736
0.000242575
0.00014494
-2.9762e-05
-0.000317597
-0.000766543
-0.00143642
-0.0023967
-0.00372071
-0.00547014
-0.00766014
-0.0102196
-0.0129493
-0.0155193
-0.0174669
-0.0185862
-0.018416