/*--------------------------------*- C++ -*----------------------------------*\
| =========                 |                                                 |
| \\      /  F ield         | OpenFOAM: The Open Source CFD Toolbox           |
|  \\    /   O peration     | Version:  2412                                  |
|   \\  /    A nd           | Website:  www.openfoam.com                      |
|    \\/     M anipulation  |                                                 |
\*---------------------------------------------------------------------------*/
FoamFile
{
    version     2.0;
    format      ascii;
    arch        "LSB;label=32;scalar=64";
    class       volVectorField;
    location    "0.9";
    object      U;
}
// * * * * * * * * * * * * * * * * * * * * * * * * * * * * * * * * * * * * * //

dimensions      [0 1 -1 0 0 0 0];

internalField   nonuniform List<vector> 
6400
(
(-7.22629e-08 1.00991e-07 0)
(-1.36439e-07 1.72821e-07 0)
(-1.37656e-07 2.64859e-07 0)
(7.82218e-08 2.78839e-07 0)
(3.07583e-07 1.64485e-07 0)
(4.25513e-07 1.20525e-07 0)
(5.36523e-07 9.41744e-08 0)
(6.32095e-07 6.54347e-08 0)
(7.66241e-07 6.4588e-08 0)
(9.29011e-07 8.64554e-08 0)
(1.06206e-06 9.78002e-08 0)
(1.13791e-06 8.94629e-08 0)
(1.1816e-06 8.40231e-08 0)
(1.23719e-06 1.03197e-07 0)
(1.34358e-06 1.38997e-07 0)
(1.49954e-06 1.67065e-07 0)
(1.66276e-06 1.80056e-07 0)
(1.80593e-06 1.89726e-07 0)
(1.94221e-06 2.07798e-07 0)
(2.10398e-06 2.3231e-07 0)
(2.30938e-06 2.53301e-07 0)
(2.55239e-06 2.65493e-07 0)
(2.81437e-06 2.71591e-07 0)
(3.07452e-06 2.76693e-07 0)
(3.31223e-06 2.83249e-07 0)
(3.50807e-06 2.9028e-07 0)
(3.646e-06 2.95099e-07 0)
(3.71483e-06 2.95239e-07 0)
(3.70908e-06 2.89726e-07 0)
(3.63012e-06 2.79552e-07 0)
(3.48649e-06 2.67284e-07 0)
(3.29182e-06 2.55981e-07 0)
(3.06066e-06 2.48074e-07 0)
(2.80418e-06 2.4476e-07 0)
(2.52818e-06 2.45968e-07 0)
(2.23396e-06 2.50682e-07 0)
(1.92145e-06 2.57399e-07 0)
(1.59238e-06 2.64553e-07 0)
(1.25194e-06 2.70725e-07 0)
(9.08043e-07 2.74684e-07 0)
(5.69326e-07 2.75502e-07 0)
(2.43188e-07 2.72858e-07 0)
(-6.54559e-08 2.673e-07 0)
(-3.55176e-07 2.60063e-07 0)
(-6.29092e-07 2.52366e-07 0)
(-8.95236e-07 2.44613e-07 0)
(-1.16486e-06 2.36169e-07 0)
(-1.44842e-06 2.25929e-07 0)
(-1.75083e-06 2.13252e-07 0)
(-2.06896e-06 1.98476e-07 0)
(-2.39295e-06 1.82654e-07 0)
(-2.71067e-06 1.66877e-07 0)
(-3.01216e-06 1.51899e-07 0)
(-3.29165e-06 1.38453e-07 0)
(-3.54629e-06 1.27804e-07 0)
(-3.77361e-06 1.21746e-07 0)
(-3.96977e-06 1.21677e-07 0)
(-4.12957e-06 1.27349e-07 0)
(-4.24758e-06 1.364e-07 0)
(-4.31879e-06 1.45301e-07 0)
(-4.33863e-06 1.51201e-07 0)
(-4.30282e-06 1.53493e-07 0)
(-4.20789e-06 1.54109e-07 0)
(-4.05262e-06 1.56723e-07 0)
(-3.83988e-06 1.65246e-07 0)
(-3.57847e-06 1.82046e-07 0)
(-3.28448e-06 2.05881e-07 0)
(-2.97975e-06 2.30982e-07 0)
(-2.68538e-06 2.4885e-07 0)
(-2.41075e-06 2.53564e-07 0)
(-2.14613e-06 2.46873e-07 0)
(-1.86741e-06 2.38383e-07 0)
(-1.5545e-06 2.38677e-07 0)
(-1.20808e-06 2.50961e-07 0)
(-8.50368e-07 2.6994e-07 0)
(-5.09723e-07 2.84947e-07 0)
(-2.07918e-07 2.78308e-07 0)
(2.29291e-08 2.47576e-07 0)
(1.39039e-07 2.3147e-07 0)
(1.01839e-07 1.98712e-07 0)
(-6.86839e-08 3.61727e-07 0)
(-7.9101e-08 6.07231e-07 0)
(-1.32189e-07 6.74313e-07 0)
(-2.34702e-09 7.13225e-07 0)
(3.54535e-07 5.49749e-07 0)
(6.5953e-07 4.70221e-07 0)
(8.43427e-07 4.22976e-07 0)
(1.01516e-06 3.94254e-07 0)
(1.26993e-06 4.00776e-07 0)
(1.53867e-06 4.22104e-07 0)
(1.73069e-06 4.17773e-07 0)
(1.84823e-06 3.92968e-07 0)
(1.95584e-06 3.83081e-07 0)
(2.09705e-06 4.18066e-07 0)
(2.2889e-06 4.87739e-07 0)
(2.52693e-06 5.53297e-07 0)
(2.77636e-06 5.95376e-07 0)
(3.0095e-06 6.22747e-07 0)
(3.23256e-06 6.52425e-07 0)
(3.47532e-06 6.90784e-07 0)
(3.7633e-06 7.32462e-07 0)
(4.09944e-06 7.71574e-07 0)
(4.46459e-06 8.06608e-07 0)
(4.82679e-06 8.37306e-07 0)
(5.15012e-06 8.61806e-07 0)
(5.40227e-06 8.77109e-07 0)
(5.55958e-06 8.80526e-07 0)
(5.60875e-06 8.7088e-07 0)
(5.54685e-06 8.4932e-07 0)
(5.38154e-06 8.19482e-07 0)
(5.12961e-06 7.86592e-07 0)
(4.81262e-06 7.55757e-07 0)
(4.45072e-06 7.30325e-07 0)
(4.05769e-06 7.11206e-07 0)
(3.63948e-06 6.97283e-07 0)
(3.19659e-06 6.86497e-07 0)
(2.72869e-06 6.76849e-07 0)
(2.23867e-06 6.66756e-07 0)
(1.73399e-06 6.54743e-07 0)
(1.22546e-06 6.3913e-07 0)
(7.24996e-07 6.18495e-07 0)
(2.43681e-07 5.92829e-07 0)
(-2.09973e-07 5.64308e-07 0)
(-6.32512e-07 5.36595e-07 0)
(-1.02825e-06 5.12765e-07 0)
(-1.40994e-06 4.93323e-07 0)
(-1.79524e-06 4.75948e-07 0)
(-2.19944e-06 4.5726e-07 0)
(-2.62844e-06 4.35263e-07 0)
(-3.0761e-06 4.10614e-07 0)
(-3.52781e-06 3.86016e-07 0)
(-3.9675e-06 3.64693e-07 0)
(-4.38322e-06 3.49485e-07 0)
(-4.76849e-06 3.43079e-07 0)
(-5.11979e-06 3.4841e-07 0)
(-5.43354e-06 3.67829e-07 0)
(-5.70501e-06 4.00956e-07 0)
(-5.92895e-06 4.42899e-07 0)
(-6.10011e-06 4.8502e-07 0)
(-6.21238e-06 5.18681e-07 0)
(-6.25754e-06 5.40005e-07 0)
(-6.22539e-06 5.52334e-07 0)
(-6.10596e-06 5.64945e-07 0)
(-5.89318e-06 5.88882e-07 0)
(-5.58923e-06 6.32422e-07 0)
(-5.20926e-06 6.9675e-07 0)
(-4.78323e-06 7.73084e-07 0)
(-4.35026e-06 8.43075e-07 0)
(-3.94183e-06 8.86918e-07 0)
(-3.56293e-06 8.95974e-07 0)
(-3.18599e-06 8.80859e-07 0)
(-2.76972e-06 8.63791e-07 0)
(-2.2892e-06 8.60977e-07 0)
(-1.75536e-06 8.73429e-07 0)
(-1.20891e-06 8.9712e-07 0)
(-7.08392e-07 9.34007e-07 0)
(-2.99151e-07 9.69135e-07 0)
(2.15513e-08 9.75986e-07 0)
(2.58843e-07 9.65869e-07 0)
(2.21501e-07 6.78074e-07 0)
(1.87163e-09 6.49009e-07 0)
(-2.98029e-08 9.43352e-07 0)
(-8.30212e-08 9.35839e-07 0)
(1.68552e-08 9.84099e-07 0)
(2.90418e-07 9.29859e-07 0)
(6.27471e-07 8.43463e-07 0)
(8.60664e-07 7.82437e-07 0)
(1.06502e-06 7.63341e-07 0)
(1.32341e-06 7.67536e-07 0)
(1.57347e-06 7.592e-07 0)
(1.74975e-06 7.34656e-07 0)
(1.87736e-06 7.25091e-07 0)
(2.01704e-06 7.59786e-07 0)
(2.19864e-06 8.3319e-07 0)
(2.42028e-06 9.2284e-07 0)
(2.66753e-06 9.97556e-07 0)
(2.91227e-06 1.04703e-06 0)
(3.13944e-06 1.08111e-06 0)
(3.36574e-06 1.11527e-06 0)
(3.62286e-06 1.15813e-06 0)
(3.92969e-06 1.20806e-06 0)
(4.28023e-06 1.25712e-06 0)
(4.64904e-06 1.29653e-06 0)
(5.00229e-06 1.31888e-06 0)
(5.3061e-06 1.31943e-06 0)
(5.53207e-06 1.29713e-06 0)
(5.66045e-06 1.25458e-06 0)
(5.68114e-06 1.19705e-06 0)
(5.59368e-06 1.13131e-06 0)
(5.40711e-06 1.06418e-06 0)
(5.13828e-06 1.00093e-06 0)
(4.80759e-06 9.44276e-07 0)
(4.4333e-06 8.94304e-07 0)
(4.02755e-06 8.49417e-07 0)
(3.59571e-06 8.07635e-07 0)
(3.13909e-06 7.67538e-07 0)
(2.659e-06 7.28383e-07 0)
(2.15987e-06 6.89489e-07 0)
(1.65003e-06 6.49574e-07 0)
(1.14078e-06 6.06867e-07 0)
(6.44715e-07 5.60224e-07 0)
(1.73906e-07 5.10444e-07 0)
(-2.62746e-07 4.60539e-07 0)
(-6.63031e-07 4.1438e-07 0)
(-1.03418e-06 3.74587e-07 0)
(-1.39215e-06 3.41317e-07 0)
(-1.75616e-06 3.12945e-07 0)
(-2.14066e-06 2.88034e-07 0)
(-2.54919e-06 2.66888e-07 0)
(-2.97394e-06 2.51472e-07 0)
(-3.40065e-06 2.44107e-07 0)
(-3.81524e-06 2.46546e-07 0)
(-4.20796e-06 2.60475e-07 0)
(-4.57349e-06 2.88746e-07 0)
(-4.9088e-06 3.35393e-07 0)
(-5.2115e-06 4.03284e-07 0)
(-5.47932e-06 4.90544e-07 0)
(-5.70955e-06 5.8883e-07 0)
(-5.89714e-06 6.85697e-07 0)
(-6.03227e-06 7.70487e-07 0)
(-6.10035e-06 8.3994e-07 0)
(-6.08509e-06 8.99933e-07 0)
(-5.97372e-06 9.61995e-07 0)
(-5.76118e-06 1.03741e-06 0)
(-5.45414e-06 1.13142e-06 0)
(-5.07449e-06 1.23987e-06 0)
(-4.65982e-06 1.34821e-06 0)
(-4.25228e-06 1.43629e-06 0)
(-3.87695e-06 1.48839e-06 0)
(-3.52337e-06 1.50529e-06 0)
(-3.15231e-06 1.5051e-06 0)
(-2.72516e-06 1.50927e-06 0)
(-2.23269e-06 1.52323e-06 0)
(-1.69224e-06 1.53501e-06 0)
(-1.13507e-06 1.53464e-06 0)
(-6.2129e-07 1.53283e-06 0)
(-2.28047e-07 1.5627e-06 0)
(5.51859e-08 1.63332e-06 0)
(2.56883e-07 1.66514e-06 0)
(2.01092e-07 1.1092e-06 0)
(-1.77402e-08 1.18137e-06 0)
(-3.57545e-08 1.57058e-06 0)
(-3.53424e-08 1.48781e-06 0)
(3.31704e-08 1.43852e-06 0)
(2.42742e-07 1.43175e-06 0)
(5.32584e-07 1.37052e-06 0)
(7.70237e-07 1.27293e-06 0)
(9.86372e-07 1.20045e-06 0)
(1.23343e-06 1.15445e-06 0)
(1.46102e-06 1.12025e-06 0)
(1.64062e-06 1.09448e-06 0)
(1.80332e-06 1.09926e-06 0)
(1.97875e-06 1.15001e-06 0)
(2.16552e-06 1.23429e-06 0)
(2.36026e-06 1.32531e-06 0)
(2.56955e-06 1.39875e-06 0)
(2.79196e-06 1.44905e-06 0)
(3.02006e-06 1.49023e-06 0)
(3.25928e-06 1.53631e-06 0)
(3.52586e-06 1.58933e-06 0)
(3.83058e-06 1.6395e-06 0)
(4.16819e-06 1.67378e-06 0)
(4.51793e-06 1.68224e-06 0)
(4.85029e-06 1.65959e-06 0)
(5.13493e-06 1.6045e-06 0)
(5.34671e-06 1.51952e-06 0)
(5.46883e-06 1.41083e-06 0)
(5.49315e-06 1.28708e-06 0)
(5.41947e-06 1.15769e-06 0)
(5.2549e-06 1.03085e-06 0)
(5.01247e-06 9.11801e-07 0)
(4.70812e-06 8.02302e-07 0)
(4.35669e-06 7.01618e-07 0)
(3.96894e-06 6.08314e-07 0)
(3.55079e-06 5.21601e-07 0)
(3.10511e-06 4.41507e-07 0)
(2.63477e-06 3.68056e-07 0)
(2.14517e-06 3.0035e-07 0)
(1.64531e-06 2.3639e-07 0)
(1.14721e-06 1.73932e-07 0)
(6.64437e-07 1.11798e-07 0)
(2.09681e-07 5.06294e-08 0)
(-2.08591e-07 -7.5718e-09 0)
(-5.89738e-07 -6.07912e-08 0)
(-9.42677e-07 -1.08092e-07 0)
(-1.28369e-06 -1.49443e-07 0)
(-1.63036e-06 -1.84412e-07 0)
(-1.9946e-06 -2.1096e-07 0)
(-2.37862e-06 -2.25582e-07 0)
(-2.77588e-06 -2.24781e-07 0)
(-3.17549e-06 -2.06486e-07 0)
(-3.5665e-06 -1.69937e-07 0)
(-3.93997e-06 -1.1401e-07 0)
(-4.28906e-06 -3.5783e-08 0)
(-4.6091e-06 6.86745e-08 0)
(-4.89836e-06 2.01009e-07 0)
(-5.15781e-06 3.57162e-07 0)
(-5.38831e-06 5.2694e-07 0)
(-5.5854e-06 6.97881e-07 0)
(-5.73592e-06 8.61008e-07 0)
(-5.8197e-06 1.01457e-06 0)
(-5.81634e-06 1.16306e-06 0)
(-5.71236e-06 1.31308e-06 0)
(-5.50567e-06 1.46844e-06 0)
(-5.20761e-06 1.62719e-06 0)
(-4.84506e-06 1.77998e-06 0)
(-4.45736e-06 1.9123e-06 0)
(-4.08252e-06 2.01071e-06 0)
(-3.73411e-06 2.07255e-06 0)
(-3.39065e-06 2.10943e-06 0)
(-3.01218e-06 2.14012e-06 0)
(-2.577e-06 2.17441e-06 0)
(-2.09692e-06 2.2043e-06 0)
(-1.6007e-06 2.21454e-06 0)
(-1.10784e-06 2.19437e-06 0)
(-6.39194e-07 2.13977e-06 0)
(-2.51034e-07 2.10822e-06 0)
(2.66907e-08 2.17342e-06 0)
(1.84932e-07 2.22635e-06 0)
(1.42508e-07 1.49412e-06 0)
(-1.44085e-07 1.69293e-06 0)
(-2.32413e-07 2.40485e-06 0)
(-1.38671e-07 2.27119e-06 0)
(1.87562e-08 2.14998e-06 0)
(2.18167e-07 2.10051e-06 0)
(4.28844e-07 2.00127e-06 0)
(6.21259e-07 1.86133e-06 0)
(8.45562e-07 1.73967e-06 0)
(1.10696e-06 1.65822e-06 0)
(1.33943e-06 1.6006e-06 0)
(1.51612e-06 1.56442e-06 0)
(1.68159e-06 1.54623e-06 0)
(1.86445e-06 1.55465e-06 0)
(2.05438e-06 1.58379e-06 0)
(2.23992e-06 1.62474e-06 0)
(2.428e-06 1.66465e-06 0)
(2.6283e-06 1.69593e-06 0)
(2.84476e-06 1.71935e-06 0)
(3.08242e-06 1.73917e-06 0)
(3.34971e-06 1.75386e-06 0)
(3.65076e-06 1.75652e-06 0)
(3.97918e-06 1.7388e-06 0)
(4.3168e-06 1.69495e-06 0)
(4.63752e-06 1.62226e-06 0)
(4.91431e-06 1.52098e-06 0)
(5.12512e-06 1.39434e-06 0)
(5.25536e-06 1.24848e-06 0)
(5.29745e-06 1.09114e-06 0)
(5.24976e-06 9.29941e-07 0)
(5.1161e-06 7.7067e-07 0)
(4.90539e-06 6.16383e-07 0)
(4.63009e-06 4.67754e-07 0)
(4.30344e-06 3.24503e-07 0)
(3.93635e-06 1.86877e-07 0)
(3.53566e-06 5.61722e-08 0)
(3.10488e-06 -6.58796e-08 0)
(2.64691e-06 -1.78217e-07 0)
(2.16708e-06 -2.81108e-07 0)
(1.67498e-06 -3.75833e-07 0)
(1.1841e-06 -4.63586e-07 0)
(7.09822e-07 -5.44357e-07 0)
(2.6583e-07 -6.16627e-07 0)
(-1.39904e-07 -6.78119e-07 0)
(-5.08369e-07 -7.27012e-07 0)
(-8.49938e-07 -7.62584e-07 0)
(-1.18094e-06 -7.84748e-07 0)
(-1.51753e-06 -7.9293e-07 0)
(-1.86989e-06 -7.85407e-07 0)
(-2.23973e-06 -7.59792e-07 0)
(-2.62165e-06 -7.14139e-07 0)
(-3.00639e-06 -6.4745e-07 0)
(-3.38358e-06 -5.58859e-07 0)
(-3.74338e-06 -4.46307e-07 0)
(-4.07801e-06 -3.0646e-07 0)
(-4.38388e-06 -1.36905e-07 0)
(-4.66295e-06 6.0518e-08 0)
(-4.92051e-06 2.77991e-07 0)
(-5.15881e-06 5.03902e-07 0)
(-5.37014e-06 7.28087e-07 0)
(-5.535e-06 9.46538e-07 0)
(-5.62803e-06 1.16157e-06 0)
(-5.62764e-06 1.37778e-06 0)
(-5.52339e-06 1.5969e-06 0)
(-5.31801e-06 1.8157e-06 0)
(-5.02813e-06 2.0259e-06 0)
(-4.6837e-06 2.21572e-06 0)
(-4.32263e-06 2.37252e-06 0)
(-3.97381e-06 2.4899e-06 0)
(-3.63942e-06 2.57328e-06 0)
(-3.29284e-06 2.63818e-06 0)
(-2.9041e-06 2.69656e-06 0)
(-2.46853e-06 2.7446e-06 0)
(-2.00866e-06 2.76646e-06 0)
(-1.55006e-06 2.75378e-06 0)
(-1.11918e-06 2.71701e-06 0)
(-7.15029e-07 2.65861e-06 0)
(-3.45334e-07 2.63227e-06 0)
(-4.69941e-08 2.70547e-06 0)
(1.11294e-07 2.78368e-06 0)
(9.46579e-08 1.89443e-06 0)
(-1.41466e-07 2.08855e-06 0)
(-2.56448e-07 3.14083e-06 0)
(-1.96269e-07 3.05424e-06 0)
(-3.61008e-08 2.89645e-06 0)
(1.22782e-07 2.75116e-06 0)
(2.84164e-07 2.58744e-06 0)
(4.74567e-07 2.42171e-06 0)
(7.22432e-07 2.29987e-06 0)
(1.00006e-06 2.2127e-06 0)
(1.23345e-06 2.14092e-06 0)
(1.40856e-06 2.07821e-06 0)
(1.57097e-06 2.03034e-06 0)
(1.75007e-06 2.0002e-06 0)
(1.92983e-06 1.98707e-06 0)
(2.10107e-06 1.98086e-06 0)
(2.27287e-06 1.97612e-06 0)
(2.45766e-06 1.96864e-06 0)
(2.66028e-06 1.95808e-06 0)
(2.88404e-06 1.94218e-06 0)
(3.13442e-06 1.91537e-06 0)
(3.41564e-06 1.86973e-06 0)
(3.72384e-06 1.79939e-06 0)
(4.04366e-06 1.70179e-06 0)
(4.3509e-06 1.57773e-06 0)
(4.61999e-06 1.43026e-06 0)
(4.83034e-06 1.26429e-06 0)
(4.96832e-06 1.08578e-06 0)
(5.02606e-06 9.00738e-07 0)
(5.00016e-06 7.13927e-07 0)
(4.89183e-06 5.28134e-07 0)
(4.70743e-06 3.44116e-07 0)
(4.45791e-06 1.61458e-07 0)
(4.15623e-06 -2.00651e-08 0)
(3.81375e-06 -1.99368e-07 0)
(3.43761e-06 -3.73838e-07 0)
(3.0309e-06 -5.40058e-07 0)
(2.59557e-06 -6.94933e-07 0)
(2.13611e-06 -8.3649e-07 0)
(1.66192e-06 -9.63822e-07 0)
(1.18725e-06 -1.07628e-06 0)
(7.28587e-07 -1.17252e-06 0)
(3.00448e-07 -1.25026e-06 0)
(-8.92991e-08 -1.3069e-06 0)
(-4.42457e-07 -1.34066e-06 0)
(-7.70143e-07 -1.351e-06 0)
(-1.08863e-06 -1.33817e-06 0)
(-1.4132e-06 -1.30217e-06 0)
(-1.75311e-06 -1.24234e-06 0)
(-2.10981e-06 -1.15784e-06 0)
(-2.47816e-06 -1.04851e-06 0)
(-2.84892e-06 -9.1501e-07 0)
(-3.2109e-06 -7.5792e-07 0)
(-3.55324e-06 -5.76872e-07 0)
(-3.86859e-06 -3.71066e-07 0)
(-4.15635e-06 -1.41471e-07 0)
(-4.42314e-06 1.06933e-07 0)
(-4.6776e-06 3.65401e-07 0)
(-4.92114e-06 6.25001e-07 0)
(-5.14081e-06 8.81495e-07 0)
(-5.31115e-06 1.13722e-06 0)
(-5.40432e-06 1.39797e-06 0)
(-5.40163e-06 1.66672e-06 0)
(-5.29792e-06 1.93975e-06 0)
(-5.10068e-06 2.20691e-06 0)
(-4.82835e-06 2.4553e-06 0)
(-4.5103e-06 2.6724e-06 0)
(-4.17915e-06 2.85038e-06 0)
(-3.85483e-06 2.99007e-06 0)
(-3.53089e-06 3.10237e-06 0)
(-3.18305e-06 3.19981e-06 0)
(-2.79562e-06 3.28308e-06 0)
(-2.38049e-06 3.33626e-06 0)
(-1.96019e-06 3.34161e-06 0)
(-1.54572e-06 3.30278e-06 0)
(-1.15671e-06 3.2477e-06 0)
(-7.85226e-07 3.20938e-06 0)
(-4.35095e-07 3.22951e-06 0)
(-1.29265e-07 3.34693e-06 0)
(5.06182e-08 3.45193e-06 0)
(7.6496e-08 2.37323e-06 0)
(-1.36899e-07 2.61889e-06 0)
(-2.70422e-07 3.88955e-06 0)
(-2.46936e-07 3.82527e-06 0)
(-1.2259e-07 3.60649e-06 0)
(-8.99766e-09 3.40833e-06 0)
(1.46995e-07 3.21674e-06 0)
(3.63494e-07 3.05288e-06 0)
(6.45909e-07 2.91315e-06 0)
(9.28111e-07 2.79988e-06 0)
(1.14621e-06 2.68812e-06 0)
(1.30203e-06 2.58298e-06 0)
(1.45217e-06 2.48657e-06 0)
(1.62268e-06 2.40664e-06 0)
(1.7922e-06 2.34178e-06 0)
(1.94661e-06 2.2888e-06 0)
(2.09926e-06 2.24081e-06 0)
(2.2656e-06 2.19589e-06 0)
(2.45144e-06 2.15163e-06 0)
(2.65684e-06 2.10516e-06 0)
(2.88462e-06 2.04988e-06 0)
(3.13892e-06 1.97866e-06 0)
(3.41892e-06 1.88527e-06 0)
(3.71317e-06 1.76645e-06 0)
(4.00096e-06 1.62213e-06 0)
(4.25889e-06 1.45552e-06 0)
(4.46717e-06 1.2719e-06 0)
(4.61162e-06 1.07719e-06 0)
(4.68273e-06 8.76417e-07 0)
(4.67486e-06 6.72795e-07 0)
(4.58683e-06 4.67423e-07 0)
(4.42317e-06 2.59715e-07 0)
(4.19405e-06 4.8458e-08 0)
(3.91291e-06 -1.66827e-07 0)
(3.59231e-06 -3.84767e-07 0)
(3.2405e-06 -6.01767e-07 0)
(2.86083e-06 -8.12543e-07 0)
(2.45439e-06 -1.01128e-06 0)
(2.02422e-06 -1.19274e-06 0)
(1.57864e-06 -1.3528e-06 0)
(1.13172e-06 -1.48807e-06 0)
(7.00532e-07 -1.59544e-06 0)
(3.0001e-07 -1.67215e-06 0)
(-6.23734e-08 -1.71647e-06 0)
(-3.89536e-07 -1.7284e-06 0)
(-6.93523e-07 -1.70926e-06 0)
(-9.90533e-07 -1.66029e-06 0)
(-1.29488e-06 -1.58118e-06 0)
(-1.61489e-06 -1.47024e-06 0)
(-1.95186e-06 -1.32598e-06 0)
(-2.30127e-06 -1.14925e-06 0)
(-2.6543e-06 -9.4391e-07 0)
(-2.9995e-06 -7.1557e-07 0)
(-3.3257e-06 -4.69659e-07 0)
(-3.62646e-06 -2.10544e-07 0)
(-3.9038e-06 5.76719e-08 0)
(-4.16706e-06 3.3015e-07 0)
(-4.42502e-06 6.02083e-07 0)
(-4.67498e-06 8.71589e-07 0)
(-4.89777e-06 1.142e-06 0)
(-5.06383e-06 1.42056e-06 0)
(-5.1473e-06 1.71283e-06 0)
(-5.13611e-06 2.01744e-06 0)
(-5.03268e-06 2.32478e-06 0)
(-4.84822e-06 2.62076e-06 0)
(-4.6007e-06 2.8909e-06 0)
(-4.31403e-06 3.12426e-06 0)
(-4.01213e-06 3.31667e-06 0)
(-3.70554e-06 3.47444e-06 0)
(-3.38625e-06 3.61182e-06 0)
(-3.0407e-06 3.74037e-06 0)
(-2.67134e-06 3.85555e-06 0)
(-2.2968e-06 3.9333e-06 0)
(-1.92641e-06 3.95312e-06 0)
(-1.5498e-06 3.91756e-06 0)
(-1.17852e-06 3.8585e-06 0)
(-8.18909e-07 3.83466e-06 0)
(-4.92083e-07 3.884e-06 0)
(-1.90327e-07 4.06538e-06 0)
(1.82553e-08 4.21273e-06 0)
(8.3557e-08 2.91462e-06 0)
(-1.56813e-07 3.10477e-06 0)
(-3.09095e-07 4.62486e-06 0)
(-3.06408e-07 4.56655e-06 0)
(-2.32869e-07 4.31254e-06 0)
(-1.32565e-07 4.09757e-06 0)
(3.05332e-08 3.9244e-06 0)
(2.60304e-07 3.76811e-06 0)
(5.4278e-07 3.60584e-06 0)
(8.2056e-07 3.43214e-06 0)
(1.02279e-06 3.26675e-06 0)
(1.16508e-06 3.11029e-06 0)
(1.30073e-06 2.97765e-06 0)
(1.45865e-06 2.86086e-06 0)
(1.61529e-06 2.75829e-06 0)
(1.7573e-06 2.66327e-06 0)
(1.89639e-06 2.57451e-06 0)
(2.04949e-06 2.48896e-06 0)
(2.22077e-06 2.40551e-06 0)
(2.40913e-06 2.31986e-06 0)
(2.61592e-06 2.22751e-06 0)
(2.84576e-06 2.12317e-06 0)
(3.09891e-06 2.00258e-06 0)
(3.36634e-06 1.86208e-06 0)
(3.63048e-06 1.70033e-06 0)
(3.8711e-06 1.51883e-06 0)
(4.07027e-06 1.32179e-06 0)
(4.21393e-06 1.11437e-06 0)
(4.29121e-06 9.01038e-07 0)
(4.29435e-06 6.84267e-07 0)
(4.22004e-06 4.64194e-07 0)
(4.07137e-06 2.3932e-07 0)
(3.85819e-06 7.9087e-09 0)
(3.59471e-06 -2.30567e-07 0)
(3.29493e-06 -4.74466e-07 0)
(2.96849e-06 -7.19804e-07 0)
(2.6194e-06 -9.60744e-07 0)
(2.24838e-06 -1.19046e-06 0)
(1.85732e-06 -1.40192e-06 0)
(1.45314e-06 -1.58833e-06 0)
(1.04863e-06 -1.74338e-06 0)
(6.59565e-07 -1.86171e-06 0)
(2.99159e-07 -1.93992e-06 0)
(-2.71465e-08 -1.97748e-06 0)
(-3.23622e-07 -1.97658e-06 0)
(-6.01794e-07 -1.94014e-06 0)
(-8.75306e-07 -1.86919e-06 0)
(-1.15532e-06 -1.76133e-06 0)
(-1.44869e-06 -1.61206e-06 0)
(-1.75827e-06 -1.41836e-06 0)
(-2.08329e-06 -1.18224e-06 0)
(-2.41856e-06 -9.11721e-07 0)
(-2.75409e-06 -6.18447e-07 0)
(-3.07761e-06 -3.13886e-07 0)
(-3.38051e-06 -6.59633e-09 0)
(-3.66284e-06 2.98198e-07 0)
(-3.93214e-06 5.97833e-07 0)
(-4.19432e-06 8.92258e-07 0)
(-4.44282e-06 1.18496e-06 0)
(-4.65572e-06 1.48274e-06 0)
(-4.80533e-06 1.79205e-06 0)
(-4.87228e-06 2.11409e-06 0)
(-4.8527e-06 2.44227e-06 0)
(-4.75354e-06 2.76518e-06 0)
(-4.58629e-06 3.07099e-06 0)
(-4.36529e-06 3.35039e-06 0)
(-4.10881e-06 3.59641e-06 0)
(-3.83185e-06 3.80632e-06 0)
(-3.53637e-06 3.98404e-06 0)
(-3.21218e-06 4.13965e-06 0)
(-2.85662e-06 4.28334e-06 0)
(-2.49355e-06 4.41377e-06 0)
(-2.15587e-06 4.51411e-06 0)
(-1.84618e-06 4.56016e-06 0)
(-1.5332e-06 4.54865e-06 0)
(-1.19678e-06 4.49041e-06 0)
(-8.48606e-07 4.46484e-06 0)
(-5.22184e-07 4.51837e-06 0)
(-2.08231e-07 4.76487e-06 0)
(1.531e-08 4.96271e-06 0)
(9.17278e-08 3.43468e-06 0)
(-1.43906e-07 3.52334e-06 0)
(-3.00153e-07 5.30597e-06 0)
(-3.49171e-07 5.24812e-06 0)
(-3.15955e-07 4.98981e-06 0)
(-2.17386e-07 4.80148e-06 0)
(-3.48322e-08 4.64716e-06 0)
(1.82955e-07 4.51307e-06 0)
(4.34086e-07 4.33799e-06 0)
(6.85539e-07 4.13373e-06 0)
(8.78533e-07 3.92518e-06 0)
(1.0148e-06 3.7363e-06 0)
(1.14637e-06 3.57072e-06 0)
(1.28807e-06 3.42808e-06 0)
(1.42221e-06 3.29174e-06 0)
(1.53782e-06 3.1571e-06 0)
(1.65243e-06 3.01839e-06 0)
(1.78251e-06 2.87675e-06 0)
(1.93235e-06 2.73077e-06 0)
(2.09872e-06 2.5801e-06 0)
(2.28321e-06 2.42245e-06 0)
(2.49039e-06 2.25659e-06 0)
(2.72114e-06 2.08071e-06 0)
(2.96723e-06 1.89348e-06 0)
(3.21331e-06 1.69435e-06 0)
(3.44177e-06 1.48508e-06 0)
(3.6366e-06 1.26926e-06 0)
(3.78391e-06 1.05117e-06 0)
(3.87131e-06 8.33903e-07 0)
(3.88845e-06 6.18098e-07 0)
(3.82955e-06 4.01682e-07 0)
(3.6963e-06 1.80916e-07 0)
(3.49866e-06 -4.78097e-08 0)
(3.252e-06 -2.86328e-07 0)
(2.97184e-06 -5.33896e-07 0)
(2.66904e-06 -7.87303e-07 0)
(2.34822e-06 -1.04145e-06 0)
(2.01024e-06 -1.28986e-06 0)
(1.65691e-06 -1.52492e-06 0)
(1.29491e-06 -1.73794e-06 0)
(9.36262e-07 -1.91979e-06 0)
(5.94868e-07 -2.06233e-06 0)
(2.80897e-07 -2.16037e-06 0)
(-3.3793e-09 -2.21275e-06 0)
(-2.63685e-07 -2.22133e-06 0)
(-5.10016e-07 -2.18791e-06 0)
(-7.52138e-07 -2.11115e-06 0)
(-9.97593e-07 -1.98576e-06 0)
(-1.25277e-06 -1.80538e-06 0)
(-1.52426e-06 -1.56741e-06 0)
(-1.81746e-06 -1.27667e-06 0)
(-2.13225e-06 -9.45157e-07 0)
(-2.46003e-06 -5.88287e-07 0)
(-2.78618e-06 -2.20069e-07 0)
(-3.0979e-06 1.49594e-07 0)
(-3.39143e-06 5.1469e-07 0)
(-3.67117e-06 8.71807e-07 0)
(-3.94001e-06 1.21992e-06 0)
(-4.18869e-06 1.56125e-06 0)
(-4.39521e-06 1.90048e-06 0)
(-4.53562e-06 2.24137e-06 0)
(-4.5969e-06 2.58289e-06 0)
(-4.57917e-06 2.91947e-06 0)
(-4.4894e-06 3.24441e-06 0)
(-4.3359e-06 3.55304e-06 0)
(-4.13094e-06 3.84143e-06 0)
(-3.89121e-06 4.10471e-06 0)
(-3.62962e-06 4.33759e-06 0)
(-3.34453e-06 4.53727e-06 0)
(-3.02358e-06 4.70512e-06 0)
(-2.66773e-06 4.84281e-06 0)
(-2.31101e-06 4.95167e-06 0)
(-2.00039e-06 5.02541e-06 0)
(-1.7386e-06 5.06046e-06 0)
(-1.49034e-06 5.05889e-06 0)
(-1.19991e-06 5.02599e-06 0)
(-8.69839e-07 5.01624e-06 0)
(-5.26501e-07 5.09185e-06 0)
(-1.89139e-07 5.3751e-06 0)
(1.49372e-08 5.61206e-06 0)
(7.4199e-08 3.86956e-06 0)
(-1.13833e-07 3.99653e-06 0)
(-2.74723e-07 6.01305e-06 0)
(-3.68662e-07 5.94411e-06 0)
(-3.52878e-07 5.70498e-06 0)
(-2.53924e-07 5.53599e-06 0)
(-7.09848e-08 5.40087e-06 0)
(1.31073e-07 5.25139e-06 0)
(3.30886e-07 5.07246e-06 0)
(5.46522e-07 4.83589e-06 0)
(7.19307e-07 4.59423e-06 0)
(8.47132e-07 4.35576e-06 0)
(9.65862e-07 4.13922e-06 0)
(1.08785e-06 3.93242e-06 0)
(1.19003e-06 3.73148e-06 0)
(1.27137e-06 3.52595e-06 0)
(1.35133e-06 3.31718e-06 0)
(1.45112e-06 3.10366e-06 0)
(1.57384e-06 2.88881e-06 0)
(1.71704e-06 2.67368e-06 0)
(1.8813e-06 2.46056e-06 0)
(2.07152e-06 2.24969e-06 0)
(2.28808e-06 2.04095e-06 0)
(2.52335e-06 1.83323e-06 0)
(2.76319e-06 1.62616e-06 0)
(2.99169e-06 1.42037e-06 0)
(3.19359e-06 1.21735e-06 0)
(3.35431e-06 1.01825e-06 0)
(3.45918e-06 8.22635e-07 0)
(3.49485e-06 6.2768e-07 0)
(3.45294e-06 4.28473e-07 0)
(3.33403e-06 2.19308e-07 0)
(3.14864e-06 -4.44858e-09 0)
(2.9139e-06 -2.44882e-07 0)
(2.64728e-06 -5.00985e-07 0)
(2.36118e-06 -7.68987e-07 0)
(2.06128e-06 -1.04298e-06 0)
(1.74939e-06 -1.31531e-06 0)
(1.42837e-06 -1.57655e-06 0)
(1.10566e-06 -1.81572e-06 0)
(7.92857e-07 -2.02134e-06 0)
(5.01436e-07 -2.18367e-06 0)
(2.37631e-07 -2.29694e-06 0)
(1.34446e-10 -2.35996e-06 0)
(-2.17727e-07 -2.37404e-06 0)
(-4.23434e-07 -2.33921e-06 0)
(-6.22489e-07 -2.25146e-06 0)
(-8.1987e-07 -2.10352e-06 0)
(-1.02384e-06 -1.8892e-06 0)
(-1.24714e-06 -1.60858e-06 0)
(-1.50245e-06 -1.27037e-06 0)
(-1.79416e-06 -8.89652e-07 0)
(-2.11345e-06 -4.82809e-07 0)
(-2.442e-06 -6.31205e-08 0)
(-2.76288e-06 3.60188e-07 0)
(-3.06951e-06 7.8008e-07 0)
(-3.36451e-06 1.19004e-06 0)
(-3.64825e-06 1.58504e-06 0)
(-3.90859e-06 1.96383e-06 0)
(-4.12212e-06 2.32928e-06 0)
(-4.26682e-06 2.68525e-06 0)
(-4.33242e-06 3.03353e-06 0)
(-4.32025e-06 3.37353e-06 0)
(-4.23577e-06 3.70426e-06 0)
(-4.08695e-06 4.02361e-06 0)
(-3.8877e-06 4.32615e-06 0)
(-3.6572e-06 4.60286e-06 0)
(-3.40843e-06 4.84531e-06 0)
(-3.13782e-06 5.05008e-06 0)
(-2.83276e-06 5.21645e-06 0)
(-2.49461e-06 5.34348e-06 0)
(-2.16006e-06 5.4226e-06 0)
(-1.87326e-06 5.45559e-06 0)
(-1.6355e-06 5.45489e-06 0)
(-1.4153e-06 5.45649e-06 0)
(-1.1552e-06 5.46197e-06 0)
(-8.43243e-07 5.49828e-06 0)
(-5.03518e-07 5.6102e-06 0)
(-1.60944e-07 5.90015e-06 0)
(-1.85821e-09 6.14623e-06 0)
(3.71894e-08 4.23752e-06 0)
(-1.03645e-07 4.45832e-06 0)
(-2.69503e-07 6.65771e-06 0)
(-3.72281e-07 6.61384e-06 0)
(-3.48341e-07 6.38032e-06 0)
(-2.6425e-07 6.22917e-06 0)
(-9.59865e-08 6.07596e-06 0)
(7.22232e-08 5.90723e-06 0)
(2.25197e-07 5.69512e-06 0)
(3.84853e-07 5.44753e-06 0)
(5.27884e-07 5.16226e-06 0)
(6.28771e-07 4.8818e-06 0)
(7.23806e-07 4.60181e-06 0)
(8.12261e-07 4.32944e-06 0)
(8.80751e-07 4.05272e-06 0)
(9.27313e-07 3.77764e-06 0)
(9.78764e-07 3.50251e-06 0)
(1.05488e-06 3.23219e-06 0)
(1.16186e-06 2.96747e-06 0)
(1.29551e-06 2.71346e-06 0)
(1.45604e-06 2.47279e-06 0)
(1.64569e-06 2.24732e-06 0)
(1.8639e-06 2.03565e-06 0)
(2.10244e-06 1.83577e-06 0)
(2.34787e-06 1.64538e-06 0)
(2.58468e-06 1.46291e-06 0)
(2.79745e-06 1.28661e-06 0)
(2.97032e-06 1.11388e-06 0)
(3.08672e-06 9.40586e-07 0)
(3.13139e-06 7.61123e-07 0)
(3.09493e-06 5.69187e-07 0)
(2.97836e-06 3.59174e-07 0)
(2.79403e-06 1.27586e-07 0)
(2.56158e-06 -1.26081e-07 0)
(2.30087e-06 -3.99221e-07 0)
(2.02611e-06 -6.86565e-07 0)
(1.74432e-06 -9.80724e-07 0)
(1.45848e-06 -1.27245e-06 0)
(1.17255e-06 -1.55075e-06 0)
(8.94274e-07 -1.80347e-06 0)
(6.33763e-07 -2.01891e-06 0)
(3.98816e-07 -2.18826e-06 0)
(1.90949e-07 -2.30726e-06 0)
(5.55921e-09 -2.37556e-06 0)
(-1.63824e-07 -2.3935e-06 0)
(-3.21165e-07 -2.35836e-06 0)
(-4.67986e-07 -2.26298e-06 0)
(-6.08552e-07 -2.09856e-06 0)
(-7.55401e-07 -1.86025e-06 0)
(-9.28793e-07 -1.55162e-06 0)
(-1.14792e-06 -1.18482e-06 0)
(-1.4193e-06 -7.76225e-07 0)
(-1.73158e-06 -3.40924e-07 0)
(-2.06228e-06 1.10073e-07 0)
(-2.39186e-06 5.68418e-07 0)
(-2.71353e-06 1.0253e-06 0)
(-3.02951e-06 1.47073e-06 0)
(-3.33737e-06 1.89652e-06 0)
(-3.61992e-06 2.30027e-06 0)
(-3.84997e-06 2.68576e-06 0)
(-4.00451e-06 3.05948e-06 0)
(-4.07466e-06 3.42659e-06 0)
(-4.06289e-06 3.78976e-06 0)
(-3.9771e-06 4.14797e-06 0)
(-3.82938e-06 4.4943e-06 0)
(-3.6384e-06 4.81463e-06 0)
(-3.42349e-06 5.09344e-06 0)
(-3.19243e-06 5.32395e-06 0)
(-2.93691e-06 5.51094e-06 0)
(-2.64512e-06 5.66602e-06 0)
(-2.32969e-06 5.78762e-06 0)
(-2.02815e-06 5.86139e-06 0)
(-1.77284e-06 5.87288e-06 0)
(-1.53949e-06 5.85672e-06 0)
(-1.31116e-06 5.85742e-06 0)
(-1.05248e-06 5.90357e-06 0)
(-7.61996e-07 5.9721e-06 0)
(-4.61406e-07 6.11289e-06 0)
(-1.51163e-07 6.39133e-06 0)
(-2.28423e-08 6.6362e-06 0)
(1.14211e-08 4.59782e-06 0)
(-1.06518e-07 4.77595e-06 0)
(-2.6064e-07 7.1269e-06 0)
(-3.30214e-07 7.10846e-06 0)
(-3.22132e-07 6.9075e-06 0)
(-2.66633e-07 6.74111e-06 0)
(-1.38004e-07 6.58812e-06 0)
(2.86683e-09 6.37494e-06 0)
(1.13691e-07 6.15015e-06 0)
(2.25847e-07 5.88744e-06 0)
(3.16222e-07 5.60457e-06 0)
(3.84585e-07 5.30094e-06 0)
(4.40835e-07 5.00571e-06 0)
(4.93309e-07 4.70454e-06 0)
(5.24196e-07 4.40614e-06 0)
(5.43652e-07 4.1077e-06 0)
(5.72713e-07 3.81866e-06 0)
(6.34361e-07 3.53672e-06 0)
(7.32514e-07 3.26468e-06 0)
(8.65558e-07 3.00338e-06 0)
(1.03078e-06 2.75695e-06 0)
(1.22855e-06 2.52605e-06 0)
(1.45547e-06 2.30982e-06 0)
(1.70303e-06 2.10536e-06 0)
(1.95774e-06 1.91015e-06 0)
(2.20433e-06 1.7217e-06 0)
(2.42668e-06 1.53745e-06 0)
(2.60773e-06 1.35378e-06 0)
(2.7296e-06 1.16589e-06 0)
(2.77634e-06 9.68268e-07 0)
(2.73888e-06 7.55828e-07 0)
(2.61967e-06 5.25065e-07 0)
(2.43321e-06 2.74844e-07 0)
(2.2014e-06 6.49114e-09 0)
(1.94607e-06 -2.76561e-07 0)
(1.68294e-06 -5.6923e-07 0)
(1.42027e-06 -8.64954e-07 0)
(1.16218e-06 -1.15557e-06 0)
(9.13318e-07 -1.43129e-06 0)
(6.8087e-07 -1.68154e-06 0)
(4.72396e-07 -1.89671e-06 0)
(2.91526e-07 -2.07028e-06 0)
(1.35858e-07 -2.1994e-06 0)
(-4.2496e-10 -2.28308e-06 0)
(-1.21239e-07 -2.31858e-06 0)
(-2.25926e-07 -2.29869e-06 0)
(-3.13107e-07 -2.21263e-06 0)
(-3.89067e-07 -2.0507e-06 0)
(-4.73297e-07 -1.80998e-06 0)
(-5.9439e-07 -1.49702e-06 0)
(-7.76677e-07 -1.12554e-06 0)
(-1.0264e-06 -7.10838e-07 0)
(-1.3284e-06 -2.65242e-07 0)
(-1.65683e-06 2.0226e-07 0)
(-1.99192e-06 6.82767e-07 0)
(-2.3283e-06 1.16478e-06 0)
(-2.66766e-06 1.63574e-06 0)
(-3.00256e-06 2.08731e-06 0)
(-3.30874e-06 2.51908e-06 0)
(-3.55375e-06 2.9373e-06 0)
(-3.71388e-06 3.34939e-06 0)
(-3.78235e-06 3.75992e-06 0)
(-3.76619e-06 4.16908e-06 0)
(-3.67983e-06 4.57146e-06 0)
(-3.54378e-06 4.9528e-06 0)
(-3.37994e-06 5.29122e-06 0)
(-3.20013e-06 5.56795e-06 0)
(-2.99726e-06 5.78071e-06 0)
(-2.75128e-06 5.94876e-06 0)
(-2.4584e-06 6.09432e-06 0)
(-2.1514e-06 6.22495e-06 0)
(-1.88547e-06 6.31156e-06 0)
(-1.66383e-06 6.33848e-06 0)
(-1.43516e-06 6.33067e-06 0)
(-1.17928e-06 6.34965e-06 0)
(-9.16538e-07 6.40859e-06 0)
(-6.52068e-07 6.49e-06 0)
(-4.1587e-07 6.61523e-06 0)
(-1.51446e-07 6.90455e-06 0)
(-2.94541e-08 7.16162e-06 0)
(9.21226e-09 4.98775e-06 0)
(-9.58681e-08 4.97648e-06 0)
(-2.14308e-07 7.46218e-06 0)
(-2.47998e-07 7.467e-06 0)
(-2.62095e-07 7.2596e-06 0)
(-2.66345e-07 7.11073e-06 0)
(-1.774e-07 6.93639e-06 0)
(-8.22955e-08 6.72972e-06 0)
(1.2135e-08 6.47132e-06 0)
(8.31058e-08 6.21925e-06 0)
(1.31991e-07 5.93473e-06 0)
(1.54268e-07 5.65434e-06 0)
(1.76902e-07 5.36781e-06 0)
(1.88442e-07 5.09207e-06 0)
(1.88613e-07 4.81468e-06 0)
(1.81315e-07 4.54822e-06 0)
(1.93199e-07 4.2894e-06 0)
(2.38988e-07 4.04098e-06 0)
(3.26575e-07 3.79737e-06 0)
(4.53129e-07 3.55974e-06 0)
(6.17573e-07 3.3281e-06 0)
(8.17105e-07 3.10383e-06 0)
(1.04723e-06 2.88536e-06 0)
(1.2982e-06 2.67074e-06 0)
(1.55703e-06 2.45753e-06 0)
(1.80837e-06 2.24394e-06 0)
(2.03571e-06 2.02802e-06 0)
(2.22098e-06 1.80744e-06 0)
(2.34557e-06 1.57913e-06 0)
(2.3935e-06 1.34012e-06 0)
(2.35679e-06 1.08854e-06 0)
(2.23955e-06 8.24537e-07 0)
(2.05787e-06 5.50221e-07 0)
(1.83471e-06 2.68976e-07 0)
(1.59237e-06 -1.55631e-08 0)
(1.34681e-06 -3.00005e-07 0)
(1.10682e-06 -5.80879e-07 0)
(8.7739e-07 -8.53726e-07 0)
(6.638e-07 -1.11243e-06 0)
(4.72717e-07 -1.34965e-06 0)
(3.09489e-07 -1.55831e-06 0)
(1.74698e-07 -1.73319e-06 0)
(6.40986e-08 -1.87093e-06 0)
(-2.69584e-08 -1.96801e-06 0)
(-9.84356e-08 -2.01811e-06 0)
(-1.45709e-07 -2.01123e-06 0)
(-1.67055e-07 -1.93636e-06 0)
(-1.73701e-07 -1.78631e-06 0)
(-1.93416e-07 -1.5616e-06 0)
(-2.61994e-07 -1.27019e-06 0)
(-4.06279e-07 -9.23412e-07 0)
(-6.30338e-07 -5.31273e-07 0)
(-9.15529e-07 -1.00867e-07 0)
(-1.23509e-06 3.60925e-07 0)
(-1.5713e-06 8.43529e-07 0)
(-1.9205e-06 1.33227e-06 0)
(-2.28136e-06 1.81342e-06 0)
(-2.639e-06 2.28079e-06 0)
(-2.96139e-06 2.73769e-06 0)
(-3.21326e-06 3.19168e-06 0)
(-3.37294e-06 3.64752e-06 0)
(-3.43831e-06 4.10405e-06 0)
(-3.42132e-06 4.55581e-06 0)