/*--------------------------------*- C++ -*----------------------------------*\
| =========                 |                                                 |
| \\      /  F ield         | OpenFOAM: The Open Source CFD Toolbox           |
|  \\    /   O peration     | Version:  2412                                  |
|   \\  /    A nd           | Website:  www.openfoam.com                      |
|    \\/     M anipulation  |                                                 |
\*---------------------------------------------------------------------------*/
FoamFile
{
    version     2.0;
    format      ascii;
    arch        "LSB;label=32;scalar=64";
    class       volScalarField;
    location    "9.76";
    object      p_rgh;
}
// * * * * * * * * * * * * * * * * * * * * * * * * * * * * * * * * * * * * * //

dimensions      [1 -1 -2 0 0 0 0];

internalField   nonuniform List<scalar> 
80000
(
26475.6
26476.2
26477.2
26478.7
26480.8
26483.4
26486.5
26490.1
26494.3
26498.9
26504.1
26509.9
26516.1
26522.9
26530.2
26538.1
26546.5
26555.4
26564.8
26574.8
26585.3
26596.4
26608
26620.1
26632.8
26646
26659.8
26674.1
26689
26704.4
26720.3
26736.8
26753.9
26771.5
26789.6
26808.3
26827.6
26847.4
26867.7
26888.6
26910.1
26932.1
26954.7
26977.8
27001.5
27025.7
27050.5
27075.8
27101.7
27128.2
27155.1
27182.7
27210.8
27239.4
27268.6
27298.4
27328.7
27359.5
27390.8
27422.8
27455.2
27488.2
27521.7
27555.7
27590.3
27625.4
27661
27697.1
27733.8
27770.9
27808.5
27846.7
27885.3
27924.4
27964
28004.1
28044.7
28085.7
28127.1
28169
28211.4
28254.2
28297.4
28341
28385
28429.4
28474.2
28519.4
28564.9
28610.8
28657
28703.6
28750.4
28797.6
28845.1
28892.8
28940.8
28989
29037.4
29086.1
29134.9
29184
29233.1
29282.5
29331.9
29381.5
29431.1
29480.8
29530.5
29580.2
29630
29679.7
29729.3
29778.9
29828.4
29877.8
29927
29976.1
30024.9
30073.6
30121.9
30170
30217.8
30265.3
30312.4
30359.1
30405.4
30451.3
30496.7
30541.5
30585.9
30629.7
30672.9
30715.4
30757.4
30798.6
30839.1
30878.9
30918
30956.2
30993.6
31030.2
31065.9
31100.7
31134.6
31167.5
31199.5
31230.4
31260.3
31289.2
31317.1
31343.8
31369.5
31394
31417.4
31439.7
31460.8
31480.7
31499.5
31517.1
31533.4
31548.6
31562.6
31575.4
31586.9
31597.3
31606.4
31614.3
31621.1
31626.6
31631
31634.2
31636.3
31637.1
31636.9
31635.6
31633.1
31629.6
31625
31619.4
31612.7
31605.1
31596.5
31586.9
31576.5
31565.1
31552.9
31539.9
31526.1
31511.5
31496.1
31480.1
31463.4
31446.1
31428.1
31409.6
31390.6
31371.1
31351
31330.6
31309.8
31288.6
31267.1
31245.3
31223.2
31200.9
31178.4
31155.7
31132.9
31110
31087.1
31064.1
31041.1
31018.2
30995.3
30972.5
30949.8
30927.2
30904.8
30882.6
30860.6
30838.9
30817.4
30796.3
30775.4
30754.9
30734.7
30715
30695.6
30676.6
30658.1
30640.1
30622.5
30605.4
30588.8
30572.8
30557.3
30542.4
30528
30514.3
30501.1
30488.6
30476.6
30465.4
30454.7
30444.8
30435.5
30426.8
30418.9
30411.7
30405.2
30399.3
30394.2
30389.8
30386.1
30383.1
30380.9
30379.3
30378.5
30378.4
30378.9
30380.2
30382.2
30384.9
30388.3
30392.4
30397.1
30402.5
30408.5
30415.2
30422.5
30430.4
30438.9
30447.9
30457.5
30467.7
30478.4
30489.5
30501.2
30513.3
30525.8
30538.7
30552
30565.6
30579.6
30593.8
30608.3
30623.1
30638
30653.1
30668.4
30683.8
30699.2
30714.7
30730.1
30745.6
30761
30776.2
30791.4
30806.3
30821.1
30835.5
30849.7
30863.6
30877.1
30890.1
30902.7
30914.9
30926.5
30937.5
30948
30957.8
30966.9
30975.4
30983.1
30990
30996.2
31001.5
31005.9
31009.5
31012.2
31013.9
31014.7
31014.5
31013.3
31011.2
31008
31003.8
30998.5
30992.3
30985
30976.6
30967.2
30956.7
30945.3
30932.8
30919.2
30904.7
30889.1
30872.6
30855.2
30836.7
30817.4
30797.2
30776.1
30754.2
30731.5
30708
30683.8
30658.9
30633.3
30607.1
30580.3
30553
30525.2
30497
30468.3
30439.3
30410
30380.4
30350.6
30320.7
30290.6
30260.5
30230.4
30200.3
30170.3
30140.5
30110.8
30081.4
30052.2
30023.4
29995
29966.9
29939.4
29912.3
29885.8
29859.8
29834.5
29809.8
29785.8
29762.5
29739.9
29718.2
29697.2
29677.1
29657.8
29639.3
29621.8
29605.1
29589.4
29574.6
29560.7
29547.7
29535.8
29524.7
29514.6
29505.5
29497.2
29490
29483.6
29478.2
29473.7
29470.1
29467.3
29465.4
29464.3
29464.1
29464.6
29465.9
29467.9
29470.7
29474.1
29478.1
29482.7
29487.9
29493.7
29499.9
29506.6
29513.7
29521.1
29528.9
29536.9
29545.2
29553.7
29562.3
29571
29579.8
29588.6
29597.3
29606
29614.6
29622.9
29631.1
29639.1
29646.8
29654.1
29661.1
29667.8
29674
29679.8
29685.2
29690.1
29694.5
29698.4
29701.7
29704.6
29706.9
29708.7
29709.9
29710.6
29710.8
29710.5
29709.6
29708.3
29706.5
29704.2
29701.6
29698.4
29694.9
29691.1
29686.8
29682.3
29677.5
29672.4
29667.1
29661.5
29655.8
29649.9
29643.9
29637.8
29631.7
29625.4
29619.2
29612.9
29606.6
29600.4
29594.2
29588
29582
29576
29570.1
29564.3
29558.6
29553.1
29547.7
29542.4
29537.3
29532.3
29527.4
29522.7
29518.1
29513.7
29509.5
29505.3
29501.4
29497.5
29493.8
29490.2
29486.8
29483.5
29480.3
29477.3
29474.3
29471.4
29468.7
29466.1
29463.5
29461
29458.6
29456.3
29454
29451.8
29449.6
29447.4
29445.3
29443.3
29441.2
29439.1
29437.1
29435.1
29433
29431
29428.9
29426.9
29424.8
29422.7
29420.7
29418.6
29416.5
29414.4
29412.3
29410.2
29408.1
29406.1
29404.1
29402.1
29400.2
29398.3
29396.6
29394.8
29393.2
29391.7
29390.3
29389
29387.9
29386.9
29386
29385.3
29384.8
29384.4
29384.2
29384.2
29384.4
29384.7
29385.3
29386
29386.8
29387.9
29389
29390.4
29391.9
29393.5
29395.2
29397.1
29399
29401
29403.1
29405.2
29407.3
29409.5
29411.6
29413.8
29415.9
29417.9
29419.9
29421.8
29423.6
29425.2
29426.8
29428.2
29429.5
29430.7
29431.6
29432.4
29433.1
29433.6
29433.9
29434
29433.9
29433.7
29433.3
29432.7
29432
29431.1
29430.1
29429
29427.7
29426.3
29424.8
29423.3
29421.6
29419.9
29418.2
29416.5
29414.7
29412.9
29411.2
29409.5
29407.8
29406.2
29404.7
29403.3
29402
29400.8
29399.7
29398.7
29397.9
29397.2
29396.7
29396.3
29396.1
29396.1
29396.2
29396.5
29396.9
29397.5
29398.2
29399.1
29400.1
29401.2
29402.4
29403.8
29405.2
29406.7
29408.3
29410
29411.7
29413.5
29415.3
29417.2
29419.1
29421.1
29423.1
29425.1
29427.1
29429.1
29431.2
29433.3
29435.5
29437.7
29440
29442.3
29444.7
29447.1
29449.7
29452.4
29455.2
29458.1
29461.2
29464.5
29467.9
29471.5
29475.3
29479.3
29483.6
29488.1
29492.8
29497.8
29503
29508.5
29514.2
29520.3
29526.5
29533.1
29539.8
29546.9
29554.1
29561.6
29569.3
29577.1
29585.2
29593.4
29601.7
29610.1
29618.6
29627.2
29635.7
29644.3
29652.8
29661.2
29669.6
29677.7
29685.7
29693.5
29701
29708.1
29715
29721.4
29727.5
29733
29738.1
29742.6
29746.6
29750
29752.7
29754.8
29756.2
29756.9
29756.9
29756.2
29754.7
29752.5
29749.5
29745.8
29741.3
29736.2
29730.3
29723.8
29716.7
29708.9
29700.6
29691.8
29682.5
29672.8
29662.8
29652.5
29642
29631.4
29620.7
29610
29599.5
29589.2
29579.1
29569.4
29560.2
29551.5
29543.4
29536.1
29529.6
29524
29519.3
29515.8
29513.3
29512
29512.1
29513.4
29516.2
29520.4
29526.1
29533.3
29542.1
29552.5
29564.5
29578.2
29593.5
29610.5
29629.2
29649.4
29671.3
29694.8
29719.9
29746.5
29774.5
29804
29834.8
29866.9
29900.2
29934.6
29970.1
30006.5
30043.8
30081.8
30120.5
30159.6
30199.2
30239.1
30279.2
30319.4
30359.4
30399.3
30438.9
30478.1
30516.7
30554.7
30591.9
30628.2
30663.5
30697.7
30730.7
30762.4
30792.6
30821.5
30848.7
30874.3
30898.3
30920.4
30940.8
30959.3
30975.9
30990.5
31003.3
31014
31022.8
31029.7
31034.5
31037.5
31038.5
31037.6
31034.9
31030.4
31024.1
31016.2
31006.6
30995.5
30982.9
30969
30953.8
30937.3
30919.8
30901.2
30881.7
30861.4
30840.4
30818.8
30796.7
30774.1
30751.3
30728.3
30705.1
30682
30659
30636.2
30613.7
30591.6
30570
30549
30528.7
30509.3
30490.6
30473
30456.4
30441
30426.8
30413.9
30402.3
30392.2
30383.5
30376.5
30371
30367.1
30365
30364.5
30365.8
30368.8
30373.7
30380.2
30388.6
30398.7
30410.7
30424.3
30439.7
30456.8
30475.6
30495.9
30517.9
30541.4
30566.4
30592.8
30620.5
30649.5
30679.8
30711.2
30743.6
30777.1
30811.4
30846.5
30882.2
30918.6
30955.5
30992.7
31030.2
31067.8
31105.4
31142.9
31180.1
31217
31253.4
31289.1
31324
31357.9
31390.8
31422.4
31452.6
31481.2
31508.2
31533.3
31556.5
31577.4
31596.2
31612.4
31626.2
31637.3
31645.5
31650.9
31653.2
31652.4
31648.5
31641.2
31630.6
31616.6
31599.1
31578.2
31553.8
31525.9
31494.5
31459.6
31421.2
31379.5
31334.4
31286
31234.4
31179.7
31122
31061.3
30997.8
30931.7
30862.9
30791.8
30718.3
30642.7
30565
30485.5
30404.2
30321.3
30237
30151.5
30064.7
29977
29888.4
29799
29709.1
29618.8
29528.1
29437.3
29346.3
29255.5
29164.8
29074.4
28984.5
28895
28806.2
28718
28630.7
28544.3
28458.8
28374.5
28291.3
28209.2
28128.5
28049.2
27971.3
27894.8
27819.9
27746.6
27674.9
27604.9
27536.6
27470.1
27405.4
27342.5
27281.5
27222.3
27165.1
27109.9
27056.6
27005.4
26956.1
26908.9
26863.7
26820.6
26779.5
26740.6
26703.7
26669
26636.4
26605.9
26577.5
26551.3
26527.3
26505.4
26485.7
26468.1
26452.8
26439.6
26428.6
26419.7
26413.1
26408.8
26406.6
26474.4
26474.9
26475.9
26477.5
26479.6
26482.2
26485.3
26488.9
26493.1
26497.8
26503
26508.7
26515
26521.7
26529.1
26536.9
26545.3
26554.2
26563.7
26573.7
26584.2
26595.2
26606.8
26619
26631.7
26644.9
26658.7
26673
26687.8
26703.2
26719.2
26735.7
26752.7
26770.3
26788.5
26807.2
26826.4
26846.2
26866.6
26887.5
26909
26931
26953.6
26976.7
27000.4
27024.6
27049.4
27074.7
27100.6
27127.1
27154.1
27181.6
27209.7
27238.4
27267.6
27297.3
27327.6
27358.5
27389.8
27421.7
27454.2
27487.2
27520.7
27554.8
27589.3
27624.4
27660.1
27696.2
27732.8
27770
27807.6
27845.8
27884.4
27923.6
27963.2
28003.3
28043.8
28084.9
28126.3
28168.3
28210.6
28253.4
28296.7
28340.3
28384.3
28428.8
28473.6
28518.8
28564.3
28610.2
28656.5
28703.1
28750
28797.1
28844.6
28892.4
28940.4
28988.6
29037.1
29085.8
29134.7
29183.7
29232.9
29282.3
29331.8
29381.4
29431
29480.7
29530.5
29580.3
29630.1
29679.8
29729.5
29779.2
29828.7
29878.1
29927.4
29976.5
30025.4
30074
30122.5
30170.6
30218.5
30266
30313.1
30359.9
30406.3
30452.2
30497.6
30542.5
30586.9
30630.8
30674
30716.6
30758.6
30799.9
30840.5
30880.3
30919.4
30957.7
30995.1
31031.7
31067.5
31102.3
31136.2
31169.2
31201.2
31232.2
31262.1
31291.1
31318.9
31345.7
31371.4
31395.9
31419.4
31441.7
31462.8
31482.7
31501.5
31519.1
31535.5
31550.6
31564.6
31577.4
31588.9
31599.2
31608.4
31616.3
31623
31628.5
31632.9
31636.1
31638.1
31638.9
31638.6
31637.3
31634.8
31631.2
31626.6
31620.9
31614.2
31606.5
31597.8
31588.3
31577.7
31566.3
31554.1
31541
31527.1
31512.5
31497.1
31481
31464.2
31446.9
31428.9
31410.3
31391.2
31371.6
31351.5
31331.1
31310.2
31288.9
31267.4
31245.5
31223.4
31201
31178.5
31155.8
31132.9
31110
31087
31064
31041
31018
30995
30972.2
30949.5
30926.9
30904.4
30882.2
30860.2
30838.4
30816.9
30795.7
30774.8
30754.3
30734.1
30714.3
30694.9
30675.9
30657.4
30639.3
30621.7
30604.6
30588
30572
30556.4
30541.5
30527.1
30513.3
30500.2
30487.6
30475.7
30464.4
30453.7
30443.8
30434.5
30425.8
30417.9
30410.6
30404.1
30398.3
30393.1
30388.7
30385
30382.1
30379.8
30378.2
30377.4
30377.3
30377.9
30379.2
30381.2
30383.9
30387.3
30391.4
30396.1
30401.5
30407.5
30414.2
30421.5
30429.5
30438
30447.1
30456.7
30466.9
30477.6
30488.8
30500.4
30512.6
30525.1
30538
30551.4
30565
30579
30593.3
30607.9
30622.6
30637.6
30652.8
30668.1
30683.5
30699
30714.5
30730
30745.5
30760.9
30776.2
30791.4
30806.4
30821.2
30835.7
30850
30863.9
30877.4
30890.5
30903.2
30915.4
30927.1
30938.2
30948.7
30958.5
30967.7
30976.2
30984
30991
30997.1
31002.5
31007
31010.6
31013.3
31015.1
31015.9
31015.7
31014.6
31012.4
31009.3
31005.1
30999.9
30993.6
30986.3
30977.9
30968.5
30958.1
30946.6
30934.1
30920.5
30906
30890.4
30873.9
30856.4
30837.9
30818.6
30798.3
30777.2
30755.2
30732.5
30708.9
30684.7
30659.7
30634.1
30607.8
30581
30553.6
30525.7
30497.4
30468.7
30439.6
30410.2
30380.6
30350.8
30320.8
30290.6
30260.5
30230.3
30200.2
30170.1
30140.2
30110.5
30081
30051.8
30022.9
29994.4
29966.3
29938.7
29911.6
29885
29859
29833.6
29808.9
29784.9
29761.5
29739
29717.2
29696.2
29676
29656.7
29638.2
29620.7
29604
29588.2
29573.4
29559.5
29546.6
29534.6
29523.6
29513.5
29504.3
29496.1
29488.9
29482.5
29477.1
29472.6
29469
29466.3
29464.4
29463.3
29463.1
29463.7
29465
29467.1
29469.8
29473.3
29477.3
29482
29487.3
29493.1
29499.3
29506.1
29513.2
29520.7
29528.5
29536.6
29544.9
29553.5
29562.1
29570.9
29579.7
29588.6
29597.4
29606.1
29614.7
29623.1
29631.4
29639.4
29647.1
29654.5
29661.5
29668.2
29674.5
29680.3
29685.7
29690.6
29695
29698.9
29702.3
29705.2
29707.5
29709.3
29710.5
29711.2
29711.4
29711
29710.2
29708.8
29707
29704.7
29702
29698.9
29695.3
29691.4
29687.2
29682.6
29677.8
29672.6
29667.3
29661.7
29656
29650.1
29644
29637.9
29631.7
29625.5
29619.2
29612.9
29606.6
29600.3
29594.1
29588
29581.9
29575.9
29570
29564.2
29558.5
29553
29547.5
29542.3
29537.1
29532.1
29527.3
29522.5
29518
29513.6
29509.3
29505.2
29501.2
29497.4
29493.7
29490.1
29486.7
29483.4
29480.2
29477.1
29474.2
29471.3
29468.6
29466
29463.4
29460.9
29458.5
29456.2
29453.9
29451.7
29449.5
29447.4
29445.3
29443.2
29441.2
29439.1
29437.1
29435.1
29433
29431
29429
29426.9
29424.8
29422.8
29420.7
29418.6
29416.5
29414.4
29412.3
29410.2
29408.1
29406.1
29404
29402.1
29400.1
29398.3
29396.5
29394.8
29393.1
29391.6
29390.2
29388.9
29387.8
29386.7
29385.9
29385.2
29384.6
29384.3
29384.1
29384.1
29384.2
29384.6
29385.1
29385.8
29386.7
29387.7
29388.9
29390.3
29391.8
29393.4
29395.1
29397
29398.9
29400.9
29403
29405.1
29407.3
29409.5
29411.6
29413.8
29415.9
29418
29419.9
29421.9
29423.7
29425.4
29426.9
29428.4
29429.7
29430.8
29431.8
29432.6
29433.3
29433.7
29434
29434.1
29434.1
29433.8
29433.4
29432.9
29432.1
29431.2
29430.2
29429.1
29427.8
29426.4
29424.9
29423.3
29421.7
29420
29418.2
29416.5
29414.7
29412.9
29411.2
29409.4
29407.8
29406.2
29404.6
29403.2
29401.9
29400.6
29399.5
29398.6
29397.8
29397.1
29396.6
29396.2
29396
29396
29396.1
29396.4
29396.8
29397.4
29398.1
29399
29400
29401.1
29402.3
29403.7
29405.1
29406.7
29408.3
29409.9
29411.7
29413.5
29415.3
29417.2
29419.1
29421.1
29423
29425
29427.1
29429.1
29431.2
29433.3
29435.5
29437.7
29439.9
29442.2
29444.6
29447.1
29449.6
29452.3
29455.1
29458
29461.1
29464.3
29467.7
29471.3
29475.1
29479.2
29483.4
29487.9
29492.6
29497.6
29502.8
29508.3
29514
29520
29526.3
29532.9
29539.6
29546.7
29553.9
29561.4
29569.1
29577
29585.1
29593.3
29601.6
29610.1
29618.6
29627.2
29635.8
29644.3
29652.9
29661.3
29669.7
29677.9
29685.9
29693.7
29701.2
29708.4
29715.3
29721.8
29727.8
29733.4
29738.5
29743.1
29747.1
29750.5
29753.3
29755.4
29756.8
29757.5
29757.5
29756.8
29755.3
29753
29750.1
29746.3
29741.9
29736.7
29730.8
29724.3
29717.1
29709.3
29700.9
29692.1
29682.7
29673
29662.9
29652.6
29642
29631.3
29620.6
29609.9
29599.3
29588.9
29578.8
29569
29559.7
29551
29542.8
29535.5
29528.9
29523.2
29518.5
29514.9
29512.4
29511.1
29511.1
29512.4
29515.1
29519.2
29524.9
29532.1
29540.9
29551.3
29563.3
29577
29592.3
29609.3
29628
29648.3
29670.2
29693.7
29718.8
29745.4
29773.5
29803
29833.8
29866
29899.4
29933.9
29969.4
30005.9
30043.2
30081.3
30120.1
30159.3
30199
30239
30279.2
30319.4
30359.6
30399.5
30439.2
30478.5
30517.2
30555.2
30592.5
30628.9
30664.3
30698.5
30731.6
30763.3
30793.7
30822.6
30849.9
30875.5
30899.5
30921.7
30942.1
30960.6
30977.2
30991.9
31004.6
31015.4
31024.1
31031
31035.8
31038.7
31039.7
31038.8
31036
31031.4
31025.1
31017.1
31007.5
30996.4
30983.7
30969.7
30954.4
30937.9
30920.3
30901.6
30882.1
30861.7
30840.6
30819
30796.8
30774.2
30751.3
30728.2
30705
30681.8
30658.7
30635.8
30613.3
30591.1
30569.5
30548.4
30528.1
30508.6
30489.9
30472.2
30455.6
30440.1
30425.9
30412.9
30401.3
30391.2
30382.5
30375.4
30369.9
30366
30363.8
30363.4
30364.7
30367.7
30372.5
30379.1
30387.5
30397.6
30409.6
30423.2
30438.6
30455.8
30474.5
30494.9
30516.9
30540.5
30565.5
30591.9
30619.7
30648.8
30679.1
30710.5
30743
30776.5
30810.8
30846
30881.8
30918.2
30955.1
30992.4
31030
31067.6
31105.3
31142.9
31180.2
31217.2
31253.6
31289.4
31324.4
31358.4
31391.4
31423
31453.3
31482.1
31509.1
31534.4
31557.6
31578.7
31597.5
31613.8
31627.6
31638.8
31647.1
31652.6
31655
31654.2
31650.3
31643.1
31632.5
31618.6
31601.1
31580.2
31555.8
31527.9
31496.5
31461.6
31423.2
31381.4
31336.3
31287.9
31236.2
31181.4
31123.6
31062.9
30999.4
30933.1
30864.3
30793.1
30719.5
30643.8
30566
30486.4
30405.1
30322.1
30237.7
30152.1
30065.2
29977.4
29888.7
29799.3
29709.3
29618.9
29528.2
29437.2
29346.3
29255.3
29164.6
29074.2
28984.1
28894.6
28805.7
28717.5
28630.2
28543.7
28458.2
28373.8
28290.6
28208.5
28127.8
28048.4
27970.4
27894
27819
27745.7
27673.9
27603.9
27535.6
27469.1
27404.3
27341.4
27280.4
27221.3
27164
27108.8
27055.5
27004.2
26955
26907.7
26862.5
26819.4
26778.4
26739.4
26702.5
26667.8
26635.2
26604.7
26576.3
26550.1
26526.1
26504.2
26484.5
26466.9
26451.5
26438.3
26427.3
26418.5
26411.9
26407.5
26405.4
26472.2
26472.7
26473.7
26475.2
26477.3
26479.9
26483
26486.6
26490.7
26495.4
26500.6
26506.4
26512.6
26519.4
26526.7
26534.6
26543
26551.9
26561.3
26571.3
26581.9
26592.9
26604.5
26616.7
26629.4
26642.6
26656.4
26670.7
26685.5
26700.9
26716.9
26733.4
26750.5
26768.1
26786.2
26804.9
26824.2
26844
26864.4
26885.3
26906.7
26928.8
26951.3
26974.5
26998.2
27022.4
27047.2
27072.6
27098.5
27124.9
27151.9
27179.5
27207.6
27236.3
27265.5
27295.3
27325.6
27356.4
27387.8
27419.7
27452.2
27485.2
27518.7
27552.8
27587.4
27622.5
27658.2
27694.3
27731
27768.2
27805.9
27844
27882.7
27921.9
27961.5
28001.6
28042.2
28083.3
28124.8
28166.7
28209.1
28252
28295.2
28338.9
28383
28427.5
28472.3
28517.6
28563.2
28609.1
28655.4
28702
28749
28796.2
28843.7
28891.5
28939.6
28987.9
29036.5
29085.2
29134.1
29183.3
29232.5
29282
29331.5
29381.2
29430.9
29480.7
29530.5
29580.4
29630.3
29680.1
29729.9
29779.6
29829.2
29878.7
29928.1
29977.3
30026.2
30075
30123.5
30171.8
30219.7
30267.3
30314.6
30361.5
30407.9
30453.9
30499.4
30544.5
30589
30632.9
30676.2
30718.9
30761
30802.4
30843.1
30883
30922.2
30960.6
30998.1
31034.8
31070.6
31105.6
31139.5
31172.6
31204.6
31235.7
31265.7
31294.7
31322.6
31349.5
31375.2
31399.8
31423.3
31445.6
31466.7
31486.7
31505.5
31523.1
31539.4
31554.6
31568.6
31581.3
31592.9
31603.2
31612.3
31620.1
31626.8
31632.3
31636.6
31639.7
31641.7
31642.5
31642.1
31640.7
31638.1
31634.4
31629.7
31623.9
31617.2
31609.4
31600.6
31590.9
31580.3
31568.8
31556.4
31543.2
31529.2
31514.5
31499
31482.8
31465.9
31448.4
31430.3
31411.6
31392.4
31372.7
31352.5
31332
31311
31289.6
31267.9
31246
31223.7
31201.3
31178.6
31155.8
31132.9
31109.9
31086.8
31063.7
31040.6
31017.5
30994.5
30971.6
30948.8
30926.1
30903.6
30881.3
30859.2
30837.4
30815.8
30794.6
30773.6
30753
30732.8
30712.9
30693.5
30674.5
30655.9
30637.8
30620.1
30603
30586.3
30570.2
30554.7
30539.7
30525.3
30511.5
30498.3
30485.7
30473.7
30462.4
30451.7
30441.7
30432.4
30423.8
30415.8
30408.6
30402
30396.2
30391
30386.6
30382.9
30379.9
30377.7
30376.1
30375.3
30375.2
30375.8
30377.1
30379.1
30381.8
30385.2
30389.3
30394.1
30399.5
30405.6
30412.3
30419.7
30427.6
30436.2
30445.3
30455
30465.2
30476
30487.2
30498.9
30511.1
30523.7
30536.7
30550.1
30563.8
30577.9
30592.3
30606.9
30621.7
30636.8
30652.1
30667.4
30682.9
30698.5
30714.1
30729.7
30745.3
30760.8
30776.2
30791.5
30806.6
30821.5
30836.2
30850.5
30864.5
30878.2
30891.4
30904.2
30916.5
30928.2
30939.4
30950.1
30960
30969.3
30977.9
30985.7
30992.8
30999.1
31004.5
31009.1
31012.8
31015.6
31017.4
31018.3
31018.2
31017.1
31015
31011.9
31007.7
31002.5
30996.3
30989
30980.6
30971.2
30960.8
30949.2
30936.7
30923.1
30908.5
30892.9
30876.3
30858.8
30840.3
30820.8
30800.5
30779.3
30757.3
30734.4
30710.8
30686.4
30661.3
30635.6
30609.2
30582.3
30554.8
30526.8
30498.3
30469.5
30440.3
30410.8
30381
30351
30320.9
30290.7
30260.4
30230.1
30199.8
30169.6
30139.6
30109.7
30080.1
30050.8
30021.8
29993.2
29965.1
29937.3
29910.1
29883.5
29857.4
29831.9
29807.1
29783
29759.6
29737
29715.1
29694.1
29673.9
29654.5
29636
29618.4
29601.7
29586
29571.1
29557.2
29544.3
29532.3
29521.3
29511.2
29502
29493.8
29486.6
29480.3
29474.9
29470.4
29466.9
29464.2
29462.4
29461.4
29461.2
29461.8
29463.2
29465.3
29468.2
29471.7
29475.8
29480.6
29485.9
29491.8
29498.2
29505
29512.2
29519.8
29527.8
29536
29544.4
29553
29561.8
29570.7
29579.6
29588.6
29597.5
29606.3
29615
29623.5
29631.8
29639.9
29647.7
29655.2
29662.3
29669.1
29675.4
29681.3
29686.7
29691.7
29696.1
29700.1
29703.5
29706.3
29708.7
29710.4
29711.7
29712.4
29712.5
29712.1
29711.3
29709.9
29708
29705.7
29702.9
29699.7
29696.1
29692.2
29687.9
29683.2
29678.3
29673.1
29667.7
29662.1
29656.3
29650.3
29644.3
29638.1
29631.8
29625.5
29619.2
29612.8
29606.5
29600.2
29594
29587.8
29581.7
29575.7
29569.7
29563.9
29558.2
29552.7
29547.2
29542
29536.8
29531.8
29526.9
29522.2
29517.7
29513.3
29509
29504.9
29500.9
29497.1
29493.4
29489.8
29486.4
29483.1
29479.9
29476.9
29474
29471.1
29468.4
29465.8
29463.2
29460.8
29458.4
29456.1
29453.8
29451.6
29449.5
29447.3
29445.3
29443.2
29441.2
29439.1
29437.1
29435.1
29433
29431
29429
29426.9
29424.9
29422.8
29420.7
29418.6
29416.5
29414.4
29412.2
29410.1
29408.1
29406
29404
29402
29400
29398.1
29396.3
29394.6
29392.9
29391.4
29390
29388.7
29387.5
29386.5
29385.6
29384.9
29384.3
29383.9
29383.7
29383.7
29383.9
29384.2
29384.8
29385.5
29386.3
29387.4
29388.6
29390
29391.5
29393.2
29394.9
29396.8
29398.8
29400.8
29402.9
29405.1
29407.3
29409.5
29411.7
29413.9
29416
29418.1
29420.1
29422
29423.9
29425.6
29427.2
29428.6
29429.9
29431.1
29432.1
29432.9
29433.6
29434
29434.3
29434.5
29434.4
29434.1
29433.7
29433.1
29432.4
29431.5
29430.5
29429.3
29428
29426.6
29425
29423.4
29421.8
29420
29418.3
29416.5
29414.7
29412.9
29411.1
29409.3
29407.7
29406
29404.5
29403
29401.7
29400.4
29399.3
29398.3
29397.5
29396.8
29396.3
29395.9
29395.7
29395.7
29395.8
29396.1
29396.5
29397.1
29397.8
29398.7
29399.7
29400.9
29402.1
29403.5
29405
29406.5
29408.1
29409.8
29411.6
29413.4
29415.2
29417.1
29419.1
29421
29423
29425
29427
29429.1
29431.1
29433.2
29435.4
29437.6
29439.8
29442.1
29444.5
29446.9
29449.4
29452.1
29454.9
29457.8
29460.8
29464
29467.4
29471
29474.8
29478.8
29483
29487.5
29492.2
29497.1
29502.4
29507.9
29513.6
29519.6
29525.9
29532.5
29539.3
29546.3
29553.6
29561.1
29568.8
29576.7
29584.8
29593.1
29601.5
29609.9
29618.5
29627.1
29635.8
29644.4
29653
29661.5
29669.9
29678.2
29686.3
29694.1
29701.7
29709
29715.9
29722.4
29728.5
29734.2
29739.4
29744
29748
29751.5
29754.3
29756.4
29757.9
29758.6
29758.6
29757.9
29756.4
29754.2
29751.2
29747.4
29742.9
29737.7
29731.8
29725.2
29717.9
29710.1
29701.6
29692.7
29683.3
29673.4
29663.2
29652.8
29642.1
29631.3
29620.4
29609.6
29598.9
29588.3
29578.1
29568.2
29558.8
29549.9
29541.7
29534.2
29527.5
29521.7
29516.9
29513.1
29510.5
29509.1
29509
29510.3
29512.9
29517
29522.6
29529.8
29538.6
29548.9
29560.9
29574.6
29589.9
29606.9
29625.6
29645.9
29667.9
29691.5
29716.6
29743.3
29771.4
29801
29832
29864.3
29897.7
29932.4
29968
30004.7
30042.2
30080.4
30119.3
30158.7
30198.6
30238.7
30279.1
30319.5
30359.8
30400
30439.8
30479.2
30518.1
30556.3
30593.8
30630.3
30665.8
30700.2
30733.4
30765.3
30795.8
30824.7
30852.1
30877.9
30901.9
30924.2
30944.6
30963.2
30979.8
30994.5
31007.2
31018
31026.8
31033.5
31038.3
31041.2
31042.1
31041.1
31038.3
31033.6
31027.2
31019.1
31009.3
30998
30985.3
30971.1
30955.7
30939
30921.3
30902.5
30882.8
30862.3
30841.1
30819.3
30796.9
30774.2
30751.2
30727.9
30704.6
30681.3
30658.1
30635.1
30612.4
30590.1
30568.4
30547.2
30526.8
30507.1
30488.4
30470.6
30453.9
30438.4
30424
30411
30399.3
30389.1
30380.4
30373.2
30367.7
30363.8
30361.6
30361.1
30362.4
30365.4
30370.2
30376.8
30385.2
30395.4
30407.4
30421.1
30436.5
30453.7
30472.5
30493
30515
30538.6
30563.7
30590.2
30618
30647.2
30677.6
30709.1
30741.7
30775.3
30809.7
30845
30880.9
30917.5
30954.5
30991.9
31029.6
31067.4
31105.2
31142.9
31180.4
31217.5
31254.1
31290.1
31325.2
31359.4
31392.5
31424.4
31454.9
31483.8
31511
31536.4
31559.8
31581.1
31600
31616.6
31630.6
31641.9
31650.4
31655.9
31658.4
31657.8
31654
31646.9
31636.4
31622.5
31605.1
31584.2
31559.8
31531.9
31500.5
31465.5
31427.1
31385.3
31340.1
31291.5
31239.8
31184.9
31127
31066.1
31002.4
30936
30867.1
30795.6
30721.9
30646
30568.1
30488.3
30406.8
30323.7
30239.1
30153.3
30066.3
29978.3
29889.5
29799.9
29709.8
29619.2
29528.3
29437.2
29346.1
29255
29164.2
29073.6
28983.5
28893.8
28804.8
28716.6
28629.1
28542.5
28457
28372.5
28289.2
28207
28126.2
28046.8
27968.7
27892.2
27817.2
27743.8
27672
27602
27533.6
27467
27402.3
27339.3
27278.2
27219.1
27161.9
27106.6
27053.3
27002
26952.7
26905.4
26860.2
26817.1
26776
26737
26700.2
26665.4
26632.8
26602.3
26573.9
26547.7
26523.6
26501.7
26482
26464.5
26449.1
26435.9
26424.9
26416
26409.4
26405
26402.9
26468.6
26469.1
26470.1
26471.7
26473.8
26476.3
26479.5
26483.1
26487.2
26491.9
26497.1
26502.9
26509.1
26515.9
26523.2
26531.1
26539.5
26548.4
26557.9
26567.9
26578.4
26589.5
26601.1
26613.2
26625.9
26639.1
26652.9
26667.2
26682.1
26697.5
26713.5
26730
26747.1
26764.7
26782.8
26801.5
26820.8
26840.6
26861
26881.9
26903.4
26925.4
26948
26971.2
26994.9
27019.1
27043.9
27069.3
27095.2
27121.7
27148.7
27176.3
27204.4
27233.1
27262.4
27292.1
27322.5
27353.3
27384.8
27416.7
27449.2
27482.2
27515.8
27549.9
27584.5
27619.7
27655.3
27691.5
27728.2
27765.4
27803.2
27841.4
27880.1
27919.3
27959
27999.1
28039.8
28080.9
28122.4
28164.4
28206.9
28249.8
28293.1
28336.8
28381
28425.5
28470.4
28515.7
28561.4
28607.4
28653.8
28700.5
28747.5
28794.8
28842.4
28890.3
28938.4
28986.8
29035.5
29084.3
29133.3
29182.6
29231.9
29281.5
29331.1
29380.9
29430.7
29480.6
29530.6
29580.6
29630.5
29680.5
29730.4
29780.2
29830
29879.6
29929.1
29978.4
30027.6
30076.5
30125.1
30173.5
30221.6
30269.4
30316.8
30363.8
30410.4
30456.5
30502.2
30547.4
30592
30636.1
30679.6
30722.4
30764.7
30806.2
30847
30887.1
30926.4
30964.9
31002.6
31039.4
31075.4
31110.4
31144.5
31177.7
31209.8
31241
31271.1
31300.2
31328.2
31355.1
31380.9
31405.6
31429.1
31451.5
31472.7
31492.7
31511.5
31529.1
31545.5
31560.6
31574.6
31587.3
31598.8
31609.1
31618.1
31626
31632.6
31638
31642.2
31645.2
31647.1
31647.8
31647.3
31645.8
31643.1
31639.3
31634.4
31628.5
31621.6
31613.7
31604.8
31594.9
31584.1
31572.5
31559.9
31546.6
31532.4
31517.5
31501.8
31485.4
31468.4
31450.7
31432.4
31413.6
31394.2
31374.4
31354
31333.3
31312.1
31290.6
31268.8
31246.6
31224.3
31201.7
31178.9
31156
31132.9
31109.8
31086.5
31063.3
31040.1
31016.9
30993.7
30970.7
30947.8
30925
30902.4
30880
30857.8
30835.9
30814.2
30792.9
30771.9
30751.2
30730.9
30710.9
30691.4
30672.3
30653.6
30635.5
30617.7
30600.5
30583.8
30567.7
30552.1
30537
30522.6
30508.7
30495.5
30482.8
30470.8
30459.5
30448.8
30438.7
30429.4
30420.7
30412.7
30405.4
30398.9
30393
30387.9
30383.4
30379.7
30376.7
30374.5
30372.9
30372.1
30372
30372.6
30374
30376
30378.7
30382.2
30386.3
30391.1
30396.6
30402.7
30409.5
30416.9
30424.9
30433.5
30442.7
30452.4
30462.7
30473.6
30484.9
30496.7
30508.9
30521.6
30534.7
30548.2
30562.1
30576.2
30590.7
30605.4
30620.4
30635.6
30650.9
30666.5
30682.1
30697.8
30713.5
30729.3
30745
30760.7
30776.2
30791.7
30806.9
30822
30836.8
30851.3
30865.4
30879.2
30892.6
30905.6
30918
30930
30941.4
30952.1
30962.2
30971.7
30980.4
30988.4
30995.6
31002
31007.6
31012.3
31016.1
31019
31020.9
31021.9
31021.9
31020.9
31018.8
31015.8
31011.7
31006.5
31000.3
30993
30984.7
30975.2
30964.8
30953.2
30940.6
30927
30912.4
30896.7
30880
30862.4
30843.8
30824.2
30803.8
30782.5
30760.3
30737.3
30713.5
30689
30663.8
30637.9
30611.3
30584.2
30556.5
30528.3
30499.7
30470.7
30441.3
30411.6
30381.6
30351.5
30321.1
30290.7
30260.2
30229.7
30199.3
30168.9
30138.7
30108.7
30078.9
30049.4
30020.3
29991.5
29963.2
29935.3
29907.9
29881.1
29854.9
29829.4
29804.5
29780.2
29756.8
29734
29712.1
29691
29670.7
29651.3
29632.7
29615.1
29598.4
29582.6
29567.7
29553.8
29540.8
29528.8
29517.8
29507.7
29498.6
29490.4
29483.2
29477
29471.6
29467.2
29463.7
29461.1
29459.3
29458.4
29458.3
29459
29460.5
29462.7
29465.7
29469.3
29473.6
29478.5
29484
29490
29496.5
29503.4
29510.8
29518.6
29526.6
29535
29543.6
29552.4
29561.3
29570.3
29579.4
29588.5
29597.6
29606.6
29615.4
29624.1
29632.5
29640.8
29648.7
29656.3
29663.5
29670.4
29676.8
29682.8
29688.3
29693.3
29697.8
29701.8
29705.2
29708.1
29710.4
29712.2
29713.4
29714.1
29714.2
29713.8
29712.9
29711.5
29709.5
29707.1
29704.3
29701
29697.3
29693.3
29688.9
29684.2
29679.2
29673.9
29668.4
29662.7
29656.8
29650.7
29644.6
29638.3
29632
29625.6
29619.2
29612.8
29606.4
29600.1
29593.8
29587.5
29581.4
29575.3
29569.4
29563.5
29557.8
29552.2
29546.8
29541.5
29536.3
29531.3
29526.5
29521.7
29517.2
29512.8
29508.5
29504.4
29500.4
29496.6
29492.9
29489.4
29486
29482.7
29479.6
29476.5
29473.6
29470.8
29468.1
29465.5
29463
29460.5
29458.2
29455.9
29453.6
29451.5
29449.3
29447.2
29445.2
29443.1
29441.1
29439.1
29437.1
29435.1
29433.1
29431
29429
29427
29424.9
29422.8
29420.7
29418.6
29416.5
29414.3
29412.2
29410.1
29408
29405.9
29403.8
29401.8
29399.8
29397.9
29396.1
29394.3
29392.6
29391
29389.6
29388.3
29387.1
29386
29385.1
29384.4
29383.8
29383.4
29383.2
29383.2
29383.4
29383.7
29384.3
29385
29385.9
29386.9
29388.2
29389.6
29391.1
29392.8
29394.6
29396.5
29398.6
29400.6
29402.8
29405
29407.2
29409.5
29411.7
29414
29416.1
29418.3
29420.3
29422.3
29424.2
29425.9
29427.5
29429
29430.4
29431.6
29432.6
29433.4
29434
29434.5
29434.8
29434.9
29434.9
29434.6
29434.2
29433.6
29432.8
29431.9
29430.8
29429.6
29428.3
29426.8
29425.3
29423.6
29421.9
29420.1
29418.3
29416.5
29414.7
29412.8
29411
29409.2
29407.5
29405.8
29404.2
29402.7
29401.4
29400.1
29399
29398
29397.1
29396.4
29395.9
29395.5
29395.3
29395.3
29395.4
29395.7
29396.1
29396.7
29397.5
29398.4
29399.4
29400.6
29401.9
29403.3
29404.7
29406.3
29408
29409.7
29411.5
29413.3
29415.1
29417
29419
29420.9
29422.9
29424.9
29426.9
29429
29431.1
29433.1
29435.3
29437.4
29439.6
29441.9
29444.3
29446.7
29449.2
29451.8
29454.5
29457.4
29460.4
29463.6
29466.9
29470.5
29474.3
29478.2
29482.4
29486.9
29491.6
29496.5
29501.7
29507.2
29513
29519
29525.3
29531.9
29538.7
29545.7
29553.1
29560.6
29568.4
29576.3
29584.5
29592.8
29601.2
29609.7
29618.4
29627.1
29635.8
29644.6
29653.2
29661.8
29670.3
29678.6
29686.8
29694.8
29702.4
29709.8
29716.8
29723.4
29729.6
29735.4
29740.7
29745.3
29749.5
29752.9
29755.8
29758
29759.5
29760.3
29760.3
29759.6
29758.1
29755.9
29752.8
29749.1
29744.5
29739.2
29733.2
29726.5
29719.2
29711.2
29702.7
29693.6
29684
29674
29663.7
29653