/*--------------------------------*- C++ -*----------------------------------*\
| =========                 |                                                 |
| \\      /  F ield         | OpenFOAM: The Open Source CFD Toolbox           |
|  \\    /   O peration     | Version:  2412                                  |
|   \\  /    A nd           | Website:  www.openfoam.com                      |
|    \\/     M anipulation  |                                                 |
\*---------------------------------------------------------------------------*/
FoamFile
{
    version     2.0;
    format      ascii;
    arch        "LSB;label=32;scalar=64";
    class       volScalarField;
    location    "5";
    object      p_rgh;
}
// * * * * * * * * * * * * * * * * * * * * * * * * * * * * * * * * * * * * * //

dimensions      [1 -1 -2 0 0 0 0];

internalField   nonuniform List<scalar> 
6400
(
8362.82
8362.7
8362.56
8362.47
8362.45
8362.52
8362.67
8362.9
8363.21
8363.6
8364.04
8364.55
8365.1
8365.7
8366.35
8367.04
8367.76
8368.52
8369.3
8370.11
8370.93
8371.77
8372.61
8373.45
8374.29
8375.11
8375.92
8376.7
8377.45
8378.16
8378.83
8379.46
8380.03
8380.55
8381
8381.38
8381.7
8381.94
8382.1
8382.18
8382.19
8382.11
8381.95
8381.72
8381.41
8381.04
8380.59
8380.09
8379.52
8378.91
8378.25
8377.55
8376.82
8376.06
8375.28
8374.49
8373.68
8372.87
8372.06
8371.26
8370.47
8369.7
8368.95
8368.23
8367.53
8366.87
8366.25
8365.67
8365.13
8364.64
8364.21
8363.83
8363.52
8363.29
8363.13
8363.06
8363.07
8363.15
8363.28
8363.39
8362.93
8362.81
8362.69
8362.62
8362.62
8362.69
8362.84
8363.07
8363.37
8363.74
8364.17
8364.66
8365.21
8365.8
8366.43
8367.11
8367.82
8368.56
8369.33
8370.13
8370.94
8371.76
8372.59
8373.42
8374.24
8375.05
8375.84
8376.61
8377.34
8378.05
8378.71
8379.32
8379.88
8380.39
8380.83
8381.21
8381.52
8381.75
8381.91
8381.99
8382
8381.92
8381.77
8381.54
8381.24
8380.87
8380.44
8379.94
8379.39
8378.79
8378.14
8377.45
8376.74
8375.99
8375.22
8374.44
8373.65
8372.85
8372.05
8371.26
8370.49
8369.73
8368.99
8368.28
8367.6
8366.95
8366.34
8365.77
8365.24
8364.77
8364.35
8363.99
8363.69
8363.46
8363.31
8363.23
8363.22
8363.28
8363.39
8363.51
8363.06
8362.92
8362.8
8362.74
8362.75
8362.83
8362.98
8363.2
8363.5
8363.86
8364.28
8364.76
8365.29
8365.87
8366.5
8367.16
8367.87
8368.6
8369.36
8370.14
8370.94
8371.75
8372.57
8373.38
8374.2
8374.99
8375.78
8376.53
8377.26
8377.95
8378.61
8379.21
8379.77
8380.26
8380.7
8381.07
8381.37
8381.6
8381.76
8381.84
8381.84
8381.77
8381.62
8381.4
8381.1
8380.74
8380.31
8379.82
8379.27
8378.68
8378.04
8377.37
8376.66
8375.92
8375.16
8374.39
8373.61
8372.82
8372.04
8371.26
8370.49
8369.74
8369.01
8368.31
8367.64
8367
8366.4
8365.85
8365.33
8364.87
8364.46
8364.11
8363.83
8363.6
8363.45
8363.37
8363.35
8363.41
8363.52
8363.65
8363.13
8362.97
8362.84
8362.78
8362.79
8362.87
8363.03
8363.25
8363.54
8363.9
8364.32
8364.8
8365.33
8365.9
8366.52
8367.18
8367.88
8368.61
8369.36
8370.14
8370.93
8371.73
8372.55
8373.36
8374.17
8374.96
8375.74
8376.49
8377.22
8377.91
8378.56
8379.16
8379.71
8380.21
8380.64
8381.01
8381.31
8381.54
8381.7
8381.78
8381.78
8381.71
8381.56
8381.33
8381.04
8380.68
8380.25
8379.76
8379.22
8378.63
8377.99
8377.32
8376.61
8375.88
8375.12
8374.36
8373.58
8372.79
8372.01
8371.24
8370.48
8369.73
8369.01
8368.31
8367.65
8367.02
8366.42
8365.87
8365.37
8364.91
8364.51
8364.17
8363.88
8363.67
8363.52
8363.43
8363.42
8363.47
8363.6
8363.75
8363.13
8362.95
8362.8
8362.74
8362.75
8362.84
8363
8363.22
8363.52
8363.88
8364.3
8364.77
8365.31
8365.88
8366.5
8367.16
8367.86
8368.59
8369.34
8370.11
8370.91
8371.71
8372.52
8373.34
8374.15
8374.95
8375.73
8376.49
8377.22
8377.91
8378.56
8379.17
8379.73
8380.22
8380.66
8381.03
8381.34
8381.57
8381.73
8381.8
8381.81
8381.73
8381.58
8381.36
8381.06
8380.69
8380.26
8379.77
8379.23
8378.63
8377.99
8377.31
8376.6
8375.87
8375.11
8374.34
8373.55
8372.77
8371.99
8371.21
8370.45
8369.71
8368.98
8368.29
8367.62
8366.99
8366.4
8365.84
8365.34
8364.89
8364.49
8364.15
8363.87
8363.65
8363.5
8363.42
8363.41
8363.47
8363.6
8363.78
8363.05
8362.85
8362.69
8362.62
8362.64
8362.73
8362.89
8363.12
8363.42
8363.79
8364.21
8364.69
8365.23
8365.81
8366.44
8367.1
8367.8
8368.53
8369.29
8370.07
8370.87
8371.68
8372.5
8373.32
8374.14
8374.95
8375.74
8376.51
8377.25
8377.95
8378.62
8379.23
8379.8
8380.31
8380.75
8381.13
8381.44
8381.67
8381.83
8381.91
8381.92
8381.84
8381.69
8381.46
8381.15
8380.78
8380.35
8379.85
8379.29
8378.69
8378.04
8377.35
8376.63
8375.89
8375.12
8374.34
8373.55
8372.75
8371.96
8371.18
8370.41
8369.66
8368.93
8368.22
8367.55
8366.92
8366.32
8365.77
8365.26
8364.81
8364.4
8364.06
8363.78
8363.56
8363.41
8363.33
8363.32
8363.38
8363.52
8363.72
8362.86
8362.66
8362.49
8362.42
8362.44
8362.54
8362.7
8362.94
8363.25
8363.63
8364.06
8364.55
8365.09
8365.69
8366.32
8367
8367.71
8368.45
8369.22
8370.01
8370.82
8371.65
8372.48
8373.32
8374.15
8374.97
8375.78
8376.57
8377.32
8378.04
8378.72
8379.35
8379.93
8380.45
8380.91
8381.3
8381.62
8381.86
8382.02
8382.11
8382.11
8382.03
8381.87
8381.64
8381.32
8380.94
8380.49
8379.98
8379.42
8378.8
8378.13
8377.43
8376.69
8375.93
8375.15
8374.35
8373.54
8372.73
8371.93
8371.13
8370.35
8369.58
8368.84
8368.13
8367.45
8366.8
8366.2
8365.64
8365.12
8364.66
8364.25
8363.91
8363.62
8363.4
8363.24
8363.16
8363.14
8363.2
8363.37
8363.56
8362.59
8362.38
8362.21
8362.14
8362.17
8362.27
8362.45
8362.69
8363.02
8363.4
8363.85
8364.34
8364.9
8365.51
8366.16
8366.85
8367.57
8368.33
8369.12
8369.93
8370.76
8371.61
8372.46
8373.32
8374.17
8375.02
8375.84
8376.65
8377.43
8378.17
8378.87
8379.53
8380.13
8380.67
8381.14
8381.55
8381.88
8382.13
8382.3
8382.39
8382.39
8382.31
8382.15
8381.9
8381.57
8381.18
8380.71
8380.18
8379.59
8378.95
8378.26
8377.54
8376.78
8375.99
8375.19
8374.37
8373.54
8372.71
8371.89
8371.07
8370.27
8369.49
8368.73
8368
8367.31
8366.65
8366.04
8365.46
8364.94
8364.46
8364.05
8363.69
8363.39
8363.16
8362.99
8362.9
8362.89
8362.95
8363.12
8363.31
8362.22
8362.01
8361.85
8361.78
8361.81
8361.93
8362.12
8362.37
8362.71
8363.12
8363.58
8364.09
8364.66
8365.29
8365.96
8366.66
8367.41
8368.19
8369
8369.83
8370.68
8371.55
8372.43
8373.32
8374.2
8375.07
8375.93
8376.77
8377.57
8378.34
8379.07
8379.75
8380.38
8380.94
8381.44
8381.87
8382.21
8382.48
8382.66
8382.75
8382.75
8382.67
8382.49
8382.24
8381.9
8381.48
8380.99
8380.43
8379.82
8379.15
8378.43
8377.68
8376.89
8376.08
8375.24
8374.4
8373.54
8372.69
8371.84
8371
8370.17
8369.37
8368.59
8367.85
8367.14
8366.46
8365.83
8365.24
8364.7
8364.21
8363.78
8363.4
8363.09
8362.85
8362.67
8362.57
8362.55
8362.62
8362.78
8362.96
8361.77
8361.56
8361.4
8361.34
8361.38
8361.51
8361.71
8361.99
8362.35
8362.77
8363.25
8363.79
8364.39
8365.04
8365.73
8366.46
8367.23
8368.03
8368.86
8369.72
8370.61
8371.5
8372.41
8373.33
8374.24
8375.15
8376.04
8376.91
8377.75
8378.56
8379.31
8380.03
8380.68
8381.28
8381.8
8382.25
8382.62
8382.9
8383.08
8383.18
8383.19
8383.1
8382.91
8382.64
8382.28
8381.84
8381.32
8380.73
8380.09
8379.38
8378.63
8377.84
8377.02
8376.17
8375.3
8374.42
8373.53
8372.65
8371.77
8370.9
8370.05
8369.22
8368.42
8367.65
8366.92
8366.23
8365.58
8364.97
8364.41
8363.9
8363.45
8363.06
8362.73
8362.47
8362.28
8362.17
8362.15
8362.21
8362.35
8362.56
8361.23
8361.02
8360.86
8360.81
8360.86
8361.01
8361.22
8361.52
8361.91
8362.36
8362.87
8363.44
8364.06
8364.74
8365.46
8366.21
8367.01
8367.84
8368.71
8369.6
8370.51
8371.45
8372.39
8373.35
8374.3
8375.25
8376.18
8377.09
8377.97
8378.81
8379.61
8380.36
8381.06
8381.69
8382.24
8382.72
8383.11
8383.41
8383.61
8383.71
8383.71
8383.61
8383.42
8383.12
8382.74
8382.27
8381.71
8381.09
8380.4
8379.66
8378.87
8378.04
8377.17
8376.28
8375.37
8374.45
8373.52
8372.6
8371.69
8370.79
8369.91
8369.05
8368.22
8367.42
8366.66
8365.95
8365.28
8364.65
8364.06
8363.53
8363.06
8362.64
8362.29
8362.01
8361.81
8361.69
8361.66
8361.71
8361.84
8362.08
8360.59
8360.38
8360.23
8360.18
8360.23
8360.41
8360.65
8360.98
8361.4
8361.88
8362.41
8363.01
8363.67
8364.37
8365.12
8365.91
8366.74
8367.61
8368.51
8369.43
8370.39
8371.37
8372.36
8373.35
8374.35
8375.35
8376.33
8377.29
8378.22
8379.11
8379.96
8380.76
8381.5
8382.17
8382.77
8383.28
8383.7
8384.02
8384.24
8384.35
8384.36
8384.25
8384.04
8383.72
8383.31
8382.8
8382.2
8381.53
8380.8
8380
8379.16
8378.28
8377.36
8376.42
8375.47
8374.5
8373.53
8372.56
8371.6
8370.67
8369.75
8368.86
8367.99
8367.17
8366.38
8365.64
8364.94
8364.28
8363.67
8363.11
8362.6
8362.16
8361.78
8361.47
8361.25
8361.11
8361.06
8361.09
8361.26
8361.46
8359.86
8359.64
8359.48
8359.46
8359.52
8359.72
8359.99
8360.36
8360.82
8361.33
8361.9
8362.53
8363.22
8363.96
8364.74
8365.56
8366.43
8367.33
8368.27
8369.24
8370.24
8371.27
8372.31
8373.36
8374.41
8375.46
8376.5
8377.52
8378.51
8379.46
8380.36
8381.22
8382.01
8382.73
8383.38
8383.94
8384.39
8384.74
8384.98
8385.1
8385.11
8384.99
8384.76
8384.42
8383.97
8383.41
8382.77
8382.04
8381.25
8380.4
8379.5
8378.57
8377.6
8376.6
8375.59
8374.57
8373.54
8372.52
8371.51
8370.52
8369.56
8368.62
8367.73
8366.87
8366.05
8365.27
8364.55
8363.86
8363.22
8362.62
8362.09
8361.61
8361.19
8360.86
8360.61
8360.44
8360.36
8360.39
8360.58
8360.74
8359.03
8358.79
8358.63
8358.62
8358.72
8358.94
8359.25
8359.66
8360.17
8360.73
8361.35
8362.02
8362.75
8363.52
8364.34
8365.19
8366.09
8367.04
8368.02
8369.04
8370.09
8371.16
8372.26
8373.37
8374.49
8375.6
8376.7
8377.78
8378.83
8379.84
8380.81
8381.72
8382.58
8383.36
8384.07
8384.68
8385.18
8385.56
8385.82
8385.95
8385.96
8385.83
8385.58
8385.2
8384.71
8384.1
8383.4
8382.6
8381.74
8380.82
8379.86
8378.87
8377.84
8376.78
8375.7
8374.61
8373.52
8372.43
8371.37
8370.33
8369.32
8368.34
8367.4
8366.51
8365.66
8364.86
8364.1
8363.39
8362.72
8362.09
8361.51
8361
8360.54
8360.17
8359.88
8359.68
8359.57
8359.62
8359.77
8359.99
8358.1
8357.85
8357.68
8357.66
8357.83
8358.08
8358.43
8358.9
8359.45
8360.07
8360.74
8361.46
8362.23
8363.04
8363.89
8364.78
8365.71
8366.7
8367.73
8368.8
8369.9
8371.03
8372.19
8373.37
8374.56
8375.75
8376.92
8378.07
8379.19
8380.26
8381.29
8382.27
8383.21
8384.08
8384.85
8385.52
8386.07
8386.49
8386.78
8386.92
8386.93
8386.79
8386.51
8386.09
8385.55
8384.88
8384.1
8383.23
8382.28
8381.29
8380.26
8379.19
8378.09
8376.96
8375.81
8374.65
8373.49
8372.34
8371.22
8370.12
8369.05
8368.03
8367.04
8366.11
8365.22
8364.4
8363.62
8362.88
8362.17
8361.5
8360.88
8360.32
8359.82
8359.4
8359.06
8358.81
8358.69
8358.74
8358.86
8359.16
8357.1
8356.82
8356.63
8356.59
8356.81
8357.11
8357.54
8358.07
8358.67
8359.34
8360.07
8360.85
8361.66
8362.51
8363.39
8364.31
8365.28
8366.31
8367.39
8368.51
8369.67
8370.87
8372.09
8373.35
8374.62
8375.89
8377.15
8378.38
8379.58
8380.73
8381.83
8382.89
8383.91
8384.87
8385.73
8386.47
8387.08
8387.55
8387.87
8388.03
8388.03
8387.88
8387.57
8387.11
8386.51
8385.77
8384.9
8383.93
8382.88
8381.81
8380.7
8379.55
8378.37
8377.16
8375.94
8374.71
8373.47
8372.24
8371.04
8369.88
8368.76
8367.68
8366.65
8365.67
8364.75
8363.9
8363.1
8362.34
8361.6
8360.88
8360.21
8359.59
8359.03
8358.54
8358.13
8357.83
8357.7
8357.71
8357.92
8358.23
8356.1
8355.68
8355.42
8355.41
8355.65
8356.05
8356.58
8357.19
8357.86
8358.6
8359.4
8360.23
8361.09
8361.98
8362.89
8363.82
8364.81
8365.89
8367.03
8368.22
8369.44
8370.7
8372
8373.33
8374.69
8376.05
8377.41
8378.74
8380.02
8381.23
8382.39
8383.52
8384.63
8385.7
8386.68
8387.51
8388.19
8388.71
8389.06
8389.23
8389.24
8389.06
8388.72
8388.21
8387.55
8386.72
8385.74
8384.64
8383.47
8382.29
8381.12
8379.92
8378.67
8377.38
8376.06
8374.74
8373.41
8372.1
8370.83
8369.61
8368.44
8367.31
8366.22
8365.19
8364.23
8363.38
8362.58
8361.8
8361.02
8360.25
8359.51
8358.82
8358.18
8357.62
8357.13
8356.77
8356.59
8356.58
8356.92
8357.31
8355.33
8354.47
8353.99
8353.98
8354.32
8354.88
8355.53
8356.23
8357
8357.84
8358.71
8359.61
8360.54
8361.47
8362.39
8363.31
8364.3
8365.42
8366.63
8367.89
8369.17
8370.48
8371.84
8373.27
8374.73
8376.2
8377.66
8379.09
8380.45
8381.73
8382.92
8384.11
8385.36
8386.6
8387.73
8388.67
8389.44
8390.02
8390.4
8390.6
8390.6
8390.4
8390.02
8389.47
8388.73
8387.81
8386.69
8385.38
8384.04
8382.75
8381.54
8380.29
8378.97
8377.58
8376.17
8374.75
8373.33
8371.92
8370.57
8369.29
8368.06
8366.87
8365.71
8364.62
8363.63
8362.8
8362.06
8361.29
8360.45
8359.6
8358.78
8357.99
8357.27
8356.62
8356.04
8355.56
8355.26
8355.3
8355.78
8356.61
8355.24
8352.91
8351.9
8351.95
8352.55
8353.39
8354.24
8355.03
8355.89
8356.85
8357.83
8358.81
8359.83
8360.85
8361.77
8362.61
8363.56
8364.77
8366.11
8367.47
8368.83
8370.19
8371.63
8373.18
8374.79
8376.41
8378.02
8379.59
8381.08
8382.4
8383.56
8384.77
8386.21
8387.76
8389.12
8390.19
8391.06
8391.72
8392.13
8392.35
8392.36
8392.1
8391.68
8391.1
8390.28
8389.28
8387.98
8386.3
8384.67
8383.26
8382.08
8380.83
8379.41
8377.89
8376.34
8374.8
8373.26
8371.7
8370.23
8368.88
8367.61
8366.34
8365.08
8363.85
8362.78
8362.04
8361.46
8360.73
8359.77
8358.79
8357.85
8356.94
8356.1
8355.37
8354.64
8353.9
8353.35
8353.32
8354.27
8356.51
7596.32
7475.95
7451.24
7454.94
7464.12
7473.12
7482.03
7491.9
7502.33
7512.97
7522.87
7532.16
7541.57
7548.66
7549.67
7548.72
7557.56
7576.44
7594.47
7609.97
7621.35
7626.96
7625.66
7635.36
7668.44
7700.55
7717.09
7727.52
7735.76
7736.49
7729.12
7718.25
7720.96
7752.48
7790.5
7819.43
7846.25
7866.93
7875.19
7883.51
7887.07
7875.77
7864.88
7854.29
7829.3
7806.72
7768.58
7715.29
7698.6
7704.1
7715.72
7718.49
7713.65
7704.83
7693.38
7666.59
7632.47
7612.92
7612.77
7612.54
7604.58
7591.36
7575.52
7559.08
7543.37
7535.81
7535.48
7536.74
7534.09
7527.56
7519.2
7510.4
7501.24
7491.99
7483.36
7475.56
7467.35
7463.36
7485.89
7600.12
1328.56
1323.36
1338.91
1358
1378.14
1397.21
1413.08
1416.5
1422.85
1428.93
1437.36
1447.73
1461.34
1478.62
1502.15
1525.18
1538.98
1551.65
1565.42
1584.53
1610.78
1645.15
1682.91
1719.92
1723.75
1737.86
1763.66
1798.39
1838.69
1883.76
1933.31
1984.52
2028.09
2039.62
2036.38
2031.06
2023.99
2018.74
2017.33
2014.52
2012.55
2015.44
2016.11
2014.58
2017.06
2018.89
2025.83
2032.11
2003.41
1950.94
1898.27
1849.49
1805.88
1768.08
1737.98
1720.09
1717.73
1692.73
1652.73
1615.73
1586.37
1565.34
1550.27
1539.55
1529.32
1518.46
1508.48
1490.16
1470.8
1456.51
1446.38
1438.59
1430.8
1426.77
1417.36
1398.39
1379.11
1360.53
1345.3
1349.12
0.385011
0.383175
0.389054
0.371973
0.360215
0.325223
1.70388
7.18405
11.5907
14.1645
14.3734
13.8028
11.6439
9.03248
6.79842
5.38104
4.32879
3.32735
2.52657
2.17109
2.16343
2.14143
2.00062
1.64665
2.25204
2.55871
2.66571
2.69826
2.52342
2.27481
2.0356
1.65414
0.850806
0.233415
0.12448
0.125957
0.121441
0.119919
0.120884
0.123059
0.122603
0.119219
0.119596
0.120912
0.124492
0.12851
0.133636
0.405714
1.42915
2.06809
2.38279
2.67577
2.91961
2.93431
2.8424
2.55512
1.84828
1.97756
2.40067
2.58326
2.69018
3.12242
3.96767
5.14061
6.51927
7.64169
5.55138
5.11332
8.81021
12.1919
13.3338
13.1317
10.3803
5.58461
0.44106
0.36569
0.36035
0.359934
0.345232
0.355294
0.369133
0.370613
0.375047
0.373552
0.371581
0.355396
2.81579
13.8038
14.9481
14.4862
14.3234
14.632
14.7014
12.7538
11.1895
22.4594
35.9368
36.0039
36.0335
36.053
36.0632
36.056
35.9836
17.1473
46.7064
50.1254
50.2068
50.1704
48.5156
44.7651
43.049
35.1364
12.1171
0.144786
0.13148
0.136829
0.130678
0.126475
0.123849
0.123095
0.122413
0.122094
0.124187
0.128167
0.133638
0.138488
0.129087
1.0074
26.7625
44.5887
48.5723
52.8922
55.6718
55.7842
55.8292
54.7889
19.6003
26.9168
45.1625
45.2205
45.2134
45.189
45.1519
45.1017
45.029
32.4579
5.16313
5.13262
11.961
13.8043
13.2918
13.6157
13.5964
7.61144
0.370316
0.361924
0.354441
0.350718
0.340075
0.341068
0.368103
0.369029
0.364296
0.352383
0.339969
0.321334
0.781261
0.247451
0.81805
2.05255
3.36874
4.63375
5.79933
7.01495
7.86473
7.0558
1.77398
3.88165
4.97414
5.70642
6.08248
5.69487
5.12917
7.92235
1.30772
0.403458
0.380898
0.120208
0.112956
0.108908
0.104081
0.101418
0.106609
0.294561
0.150211
0.126246
0.123617
0.12207
0.121538
0.121538
0.120883
0.120111
0.12131
0.122485
0.12468
0.127614
0.143537
0.249977
0.111508
0.108891
0.11415
0.120402
0.128163
0.137329
0.449605
2.32767
13.1109
11.2339
4.66335
5.66695
5.68752
4.98509
3.94055
2.36905
0.314371
3.90478
8.52807
8.53554
7.02756
4.76944
3.42713
1.9723
0.548984
1.44646
0.323799
0.345552
0.345727
0.343398
0.336917
0.337802
0.361072
0.351794
0.319484
0.285121
0.263691
0.250841
0.227203
0.230439
0.205471
0.199859
0.196573
0.194931
0.193292
0.190342
0.194189
0.182718
0.183265
0.175385
0.165484
0.159931
0.156366
0.152746
0.145469
0.344653
0.473677
0.439973
0.178917
0.123966
0.121979
0.120544
0.119252
0.118806
0.240977
0.204978
0.129362
0.118564
0.118253
0.12004
0.122079
0.119248
0.118113
0.117996
0.118741
0.118071
0.117914
0.121181
0.133025
0.183613
0.123869
0.125754
0.128877
0.131747
0.147963
0.21965
0.224027
0.17009
0.14479
0.153933
0.168963
0.174221
0.177281
0.181198
0.189596
0.202993
0.255009
0.206706
0.56198
0.461595
0.207727
0.204121
0.202649
0.214755
0.232435
0.233798
0.270614
0.288025
0.299834
0.315174
0.332048
0.339688
0.339028
0.342586
0.293283
0.21875
0.185059
0.175783
0.183479
0.200858
0.199382
0.196711
0.196963
0.196486
0.194322
0.191804
0.188344
0.184052
0.179717
0.172541
0.166544
0.161834
0.157274
0.152492
0.147689
0.14282
0.137109
0.132021
0.128309
0.124994
0.121761
0.11843
0.114816
0.114843
0.183199
0.113774
0.112962
0.110341
0.117056
0.117971
0.120803
0.119752
0.115695
0.115791
0.115127
0.111313
0.108935
0.112435
0.117249
0.146011
0.113474
0.119343
0.12544
0.130834
0.135373
0.140196
0.145691
0.150854
0.155849
0.161267
0.167545
0.173309
0.178549
0.183557
0.191108
0.198353
0.2045
0.204975
0.207869
0.210486
0.209139
0.20356
0.201401
0.204563
0.203588
0.196174
0.201105
0.21104
0.238889
0.270137
0.304013
0.323312
0.366966
1.20593
0.288667
0.1751
0.165652
0.164627
0.180235
0.193445
0.205814
0.207353
0.20464
0.200902
0.196532
0.192143
0.187705
0.1829
0.178036
0.172736
0.167052
0.161607
0.156495
0.151414
0.146473
0.141653
0.137242
0.13282
0.128828
0.125553
0.122635
0.11971
0.117642
0.122794
0.113535
0.10929
0.102383
0.103224
0.110727
0.110507
0.118141
0.12215
0.113944
0.114014
0.112122
0.105368
0.0997673
0.103392
0.111207
0.113924
0.117359
0.121122
0.127266
0.131952
0.135899
0.140218
0.145054
0.149968
0.155125
0.160927
0.166961
0.17284
0.178573
0.184426
0.190504
0.196274
0.201066
0.20515
0.208873
0.212542
0.21475
0.214898
0.213933
0.209551
0.193155
0.170533
0.156579
0.212662
0.257695
0.230391
0.269306
0.299522
1.36339
1.61692
0.215374
0.158737
0.16652
0.154324
0.179862
0.209985
0.216509
0.219122
0.2125
0.205626
0.19977
0.194427
0.189103
0.183679
0.178009
0.172153
0.166343
0.160984
0.156026
0.151201
0.1465
0.142024
0.137725
0.133598
0.129816
0.126401
0.123195
0.120041
0.12004
0.121847
0.114392
0.108256
0.0970818
0.100692
0.106662
0.106792
0.112919
0.122234
0.11496
0.113858
0.111471
0.103861
0.0970255
0.100022
0.110795
0.116183
0.118876
0.122605
0.128393
0.132864
0.137049
0.141488
0.146198
0.151067
0.156077
0.161411
0.167033
0.172685
0.178258
0.183945
0.189979
0.196157
0.201851
0.206978
0.211738
0.216167
0.220683
0.22574
0.228727
0.239706
0.312005
0.325223
0.30639
0.314675
0.245715
0.210403
0.303855
0.275282
1.69663
1.68204
0.197272
0.16958
0.175686
0.174928
0.199326
0.218995
0.224703
0.226082
0.218295
0.210017
0.202826
0.196024
0.189683
0.183564
0.177468
0.17155
0.165854
0.160413
0.15527
0.15044
0.145849
0.141453
0.137283
0.133356
0.129762
0.126492
0.123482
0.120591
0.119087
0.121433
0.115402
0.109918
0.0992191
0.103719
0.108356
0.107512
0.113511
0.123324
0.122944
0.114856
0.113139
0.107084
0.101432
0.104786
0.114326
0.119759
0.121962
0.125382
0.129519
0.133371
0.137242
0.141395
0.145867
0.150629
0.155705
0.161028
0.166597
0.172286
0.178092
0.184056
0.190144
0.196242
0.20229
0.208189
0.213832
0.219341
0.2254
0.232457
0.23694
0.265099
0.377371
0.337469
0.315471
0.326101
0.172167
0.212462
1.44354
0.313529
1.74176
1.29086
0.209499
0.196695
0.187703
0.207119
0.212663
0.221596
0.231051
0.228701
0.220948
0.212485
0.204286
0.196705
0.189846
0.183216
0.176732
0.170532
0.164686
0.159208
0.154098
0.149321
0.144825
0.140581
0.136583
0.132836
0.129373
0.126256
0.12341
0.120691
0.118036
0.119944
0.12009
0.114738
0.112929
0.11332
0.110179
0.110138
0.114891
0.124985
0.125805
0.115916
0.115339
0.112575
0.111326
0.113704
0.119995
0.123477
0.12485
0.126949
0.130196
0.133562
0.137231
0.141252
0.145635
0.150352
0.155371
0.16064
0.166106
0.171827
0.177748
0.183885
0.19024
0.196764
0.203369
0.209917
0.216226
0.222408
0.228741
0.235941
0.240757
0.246811
0.293047
0.357136
0.351382
0.271778
0.185853
0.274645
1.88432
1.31352
1.80973
0.264724
0.231071
0.224037
0.218657
0.217647
0.221916
0.230574
0.233925
0.229381
0.221632
0.212909
0.204317
0.196418
0.189083
0.182067
0.175342
0.169012
0.163114
0.15764
0.152569
0.147859
0.143461
0.139348
0.135511
0.131963
0.128741
0.125804
0.123207
0.120885
0.118738
0.118386
0.121688
0.120404
0.120371
0.116946
0.111611
0.112695
0.114122
0.125272
0.126427
0.116101
0.11627
0.115727
0.116487
0.119225
0.123133
0.125219
0.12606
0.127815
0.130339
0.133333
0.136832
0.140683
0.144908
0.149492
0.154414
0.159709
0.165273
0.171114
0.17722
0.183587
0.190207
0.197045
0.204022
0.210985
0.217813
0.224475
0.23096
0.237445
0.241809
0.238871
0.223753
0.223074
0.234449
0.204143
0.208538
0.344244
1.98146
1.9872
1.54486
0.270983
0.254636
0.246245
0.242662
0.241051
0.240115
0.239843
0.236663
0.230399
0.221932
0.21262
0.203543
0.195153
0.187388
0.180096
0.173251
0.166896
0.161025
0.155612
0.150621
0.146008
0.141726
0.137747
0.134057
0.130661
0.127573
0.124793
0.12232
0.120208
0.118518
0.117432
0.118115
0.117748
0.116262
0.113711
0.112768
0.113094
0.113783
0.123663
0.12624
0.115437
0.11584
0.116164
0.117632
0.120075
0.122687
0.124321
0.125394
0.127178
0.12952
0.132384
0.135681
0.139464
0.143659
0.14824
0.153189
0.158494
0.164138
0.17012
0.176433
0.183066
0.190006
0.197218
0.204621
0.21205
0.219293
0.226189
0.232613
0.238135
0.241584
0.240889
0.235125
0.226132
0.221274
0.221668
0.221683
0.310833
2.01581
2.04301
1.44147
0.480811
0.276604
0.263609
0.257443
0.253744
0.250717
0.246731
0.240689
0.232312
0.222273
0.211778
0.201876
0.192911
0.184782
0.177321
0.170461
0.164171
0.158404
0.153115
0.148254
0.143775
0.139636
0.135811
0.132284
0.129052
0.12612
0.123491
0.121175
0.119196
0.117617
0.116533
0.115861
0.115521
0.114532
0.113251
0.112398
0.11235
0.112735
0.125251
0.125345
0.11412
0.114564
0.115254
0.116729
0.118705
0.120737
0.122375
0.123894
0.125847
0.128234
0.13107
0.134328
0.138024
0.142135
0.146655
0.151579
0.156909
0.162643
0.168782
0.175324
0.182259
0.189565
0.197203
0.205075
0.213017
0.220783
0.228067
0.234608
0.239986
0.243361
0.243926
0.241363
0.236405
0.233237
0.239749
0.229615
0.232949
0.730803
2.11126
2.35731
0.862569
0.301291
0.281094
0.270863
0.265891
0.261021
0.254576
0.24578
0.234673
0.222301
0.210028
0.199133
0.189611
0.181227
0.173731
0.166966
0.160834
0.15525
0.15015
0.145473
0.141168
0.1372
0.133547
0.130182
0.127106
0.12432
0.121828
0.119639
0.117769
0.116239
0.115094
0.114214
0.113578
0.112714
0.11176
0.111034
0.111001
0.111327
0.124649
0.123993
0.11245
0.112843
0.113696
0.115081
0.11677
0.118537
0.120235
0.121991
0.12405
0.126467
0.129274
0.132486
0.136115
0.140164
0.144641
0.149552
0.154912
0.160736
0.167036
0.173819
0.181082
0.188805
0.196959
0.205406
0.213976
0.222471
0.230377
0.237357
0.243094
0.246984
0.248488
0.247478
0.244762
0.245628
0.251358
0.241998
0.242796
0.256191
2.00651
2.46346
1.03297
0.336084
0.304815
0.289552
0.281768
0.273875
0.264291
0.25199
0.237352
0.221742
0.206742
0.194974
0.185046
0.176605
0.169258
0.162734
0.156873
0.151562
0.146721
0.142284
0.138193
0.134418
0.130968
0.127772
0.124858
0.122222
0.119864
0.117787
0.115999
0.114508
0.113316
0.112342
0.111545
0.110745
0.109964
0.109352
0.109342
0.109777
0.123142
0.119945
0.110518
0.110974
0.111835
0.113102
0.114607
0.116239
0.117944
0.119788
0.121891
0.12431
0.127084
0.130239
0.133795
0.137772
0.14219
0.147072
0.152448
0.158348
0.164803
0.171833
0.179444
0.187611
0.196418
0.20558
0.214878
0.224578
0.233188
0.240878
0.247268
0.251929
0.254468
0.254932
0.253782
0.254039
0.255188
0.252552
0.262035
0.288792
0.820615
2.57593
0.875288
0.386886
0.353315
0.314419
0.301594
0.289453
0.275759
0.259156
0.239573
0.218953
0.202227
0.189036
0.17894
0.170764
0.163832
0.157755
0.152312
0.147374
0.142852
0.138693
0.134855
0.131314
0.128057
0.12506
0.122323
0.119844
0.117621
0.115656
0.113949
0.112497
0.111291
0.110284
0.109433
0.108677
0.108003
0.107519
0.107534
0.108151
0.121584
0.110379
0.10845
0.108943
0.109763
0.110915
0.11228
0.113807
0.115477
0.117326
0.119418
0.121802
0.124515
0.127589
0.131053
0.134935
0.13927
0.144096
0.149458
0.155407
0.161994
0.169267
0.177252
0.186111
0.195531
0.205568
0.215999
0.226569
0.236279
0.244865
0.25197
0.25737
0.260705
0.262303
0.262685
0.262278
0.262015
0.271817
0.284441
0.590657
1.44023
2.66553
0.71501
0.573004
0.544986
0.346186
0.322499
0.304701
0.289194
0.26904
0.242844
0.212765
0.194303
0.180334
0.170929
0.163557
0.157398
0.152016
0.147154
0.142693
0.138565
0.134737
0.131189
0.127903
0.124869
0.122078
0.119524
0.117206
0.115122
0.113271
0.11165
0.110254
0.109067
0.108062
0.107219
0.106503
0.105927
0.105556
0.105808
0.119121
0.112978
0.105955
0.106267
0.106753
0.107503
0.108554
0.109798
0.111224
0.112827
0.114625
0.116659
0.118967
0.121586
0.124548
0.127887
0.131642
0.135857
0.140582
0.145882
0.151827
0.1585
0.165992
0.17441
0.183713
0.19396
0.205069
0.216826
0.228829
0.240026
0.24977
0.257615
0.263405
0.266222
0.268764
0.270839
0.272549
0.275253
0.314786
0.312793
0.903903
1.81315
2.59426
0.767184
0.747905
1.68024
1.21453
0.798297
0.503968
0.29477
0.269158
0.234227
0.203049
0.181536
0.167892
0.160714
0.154916
0.15001
0.145601
0.141479
0.137591
0.13392
0.130465
0.127231
0.124219
0.121426
0.118849
0.116485
0.114334
0.112393
0.110662
0.109135
0.107807
0.106666
0.105695
0.104883
0.104208
0.103674
0.103404
0.103845
0.120457
0.103739
0.103686
0.103947
0.104388
0.105061
0.106022
0.107151
0.108475
0.109984
0.111693
0.11363
0.115826
0.118313
0.121127
0.124304
0.127887
0.131928
0.136492
0.141657
0.147517
0.154185
0.161793
0.170471
0.180327
0.191437
0.203802
0.217193
0.2315
0.24497
0.254734
0.262101
0.267567
0.270789
0.27211
0.277539
0.284091
0.292641
0.321242
0.346231
0.876829
1.88787
2.72465
0.791313
0.761516
1.5531
3.77928
3.6258
2.79694
1.38539
0.996221
0.432777
0.185568
0.162134
0.150191
0.147637
0.144934
0.141879
0.138692
0.135434
0.132181
0.129
0.125937
0.123033
0.120303
0.117757
0.115399
0.11323
0.11125
0.109457
0.10785
0.106426
0.105178
0.104099
0.103178
0.102408
0.101775
0.101296
0.101048
0.101401
0.11834
0.10144
0.10126
0.10146
0.101842
0.102458
0.103311
0.104337
0.105551
0.106946
0.108538
0.110346
0.112395
0.114716
0.117342
0.120311
0.123669
0.127473
0.131797
0.136732
0.142392
0.148924
0.156502
0.165318
0.175617
0.187547
0.201247
0.216565
0.232996
0.246204
0.252049
0.275241
0.500637
0.715757
1.00204
1.06703
0.680768
0.310922
0.339982
0.376851
0.586143
1.94469
3.12771
2.8772
2.43208
4.5464
4.4088
3.02
2.77409
3.11529
3.09608
2.37669
0.218541
0.138442
0.130939
0.132022
0.134358
0.133452
0.131585
0.129218
0.126594
0.123892
0.121219
0.118641
0.116192
0.113892
0.111754
0.109781
0.107975
0.106334
0.104858
0.103543
0.102384
0.101378
0.100516
0.099794
0.0992072
0.0987662
0.0984982
0.0987097
0.114794
0.0994424
0.0995981
0.0988753
0.0991365
0.0996887
0.100436
0.101359
0.102453
0.103721
0.105172
0.106824
0.108696
0.110815
0.113212
0.115924
0.118998
0.122492
0.126484
0.131071
0.136386
0.142598
0.149934
0.158637
0.169136
0.181746
0.196781
0.215724
0.229756
0.352878
0.574848
1.35687
2.25859
2.25995
2.26788
2.29961
2.14713
0.399023
0.524954
0.810817
0.664062
1.59478
3.2234
4.88194
4.84867
4.70125
4.17066
2.28976
3.0821
3.07915
3.06061
3.03662
2.24857
0.113422
0.113294
0.11748
0.124366
0.125418
0.124624
0.123074
0.120972
0.118681
0.11636
0.114095
0.111919
0.109862
0.107941
0.106164
0.104533
0.103047
0.101705
0.100505
0.0994428
0.0985158
0.0977191
0.0970482
0.0965032
0.0960906
0.0957906
0.0958258
0.0974467
0.0973513
0.0982641
0.0978857
0.0962707
0.0967537
0.0974078
0.0982213
0.0991909
0.100318
0.101611
0.103083
0.104751
0.106636
0.108765
0.111173
0.113901
0.117006
0.120563
0.12467
0.129462
0.135122
0.141936
0.150167
0.160353
0.173113
0.190137
0.210545
0.336635
1.47772
2.03406
2.15669
2.16596
2.17053
2.18988
2.1591
1.67237
2.59607
4.73017
0.994187
0.687732
1.37781
4.14714
4.8754
4.82447
4.74931
1.60136
0.699344
1.73135
2.44032
2.85998
2.84218
2.78687
1.50288
0.0975747
0.10901
0.115235
0.118526
0.118036
0.117179
0.115429
0.113416
0.111398
0.109433
0.10751
0.105687
0.103982
0.1024
0.100945
0.0996155
0.0984107
0.0973292
0.0963689
0.0955273
0.0948006
0.0941851
0.0936806
0.0932899
0.0929845
0.0929121
0.092849
0.0944014
0.0953849
0.095103
0.093253
0.0936684
0.0942355
0.0949386
0.0957778
0.0967544
0.0978754
0.0991492
0.100589
0.102212
0.104038
0.106095
0.10842
0.11106
0.114078
0.117563
0.121636
0.126471
0.132387
0.139708
0.148669
0.161294
0.186484
0.246265
1.62345
2.09612
2.29912
1.57918
0.819667
0.684037
0.704979
0.266715
0.643832
4.93191
5.05443
4.1925
4.26148
5.00903
4.85822
4.85421
4.81277
4.74946
0.379397
-0.0657464
-0.185167
-0.251467
-0.0933433
2.16052
2.74528
3.00465
0.0763658
0.107105
0.108996
0.112677
0.111969
0.110946
0.109525
0.107984
0.10633
0.10469
0.102983
0.101388
0.0998959
0.0985094
0.0972301
0.0960585
0.0949935
0.0940343
0.0931796
0.0924274
0.0917752
0.0912192
0.0907582
0.0903916
0.0901055
0.0899958
0.0899126
0.0907135
0.0923115
0.0904544
0.0901231
0.0904601
0.0909401
0.0915302
0.0922341
0.0930527
0.0939905
0.0950517
0.0962449
0.0975814
0.0990753
0.100745
0.102617
0.104724
0.107111
0.109841
0.113001
0.116711
0.121243
0.126937
0.133105
0.140678
0.1691
1.83213
2.47924
2.05521
2.48385
2.72354
0.307434
-0.0415776
-0.0363415
0.0441801
0.15163
4.2465
5.09419
5.19991
5.22384
5.20673
4.84936
4.85558
4.83448
4.77505
0.669677
-0.164009
-0.27924
-0.336717
-0.337167
-0.237263
2.50813
3.15586
1.3087
0.102293
0.106059
0.10692
0.106484
0.105295
0.104062
0.102642
0.10118
0.0996758
0.0983255
0.0969764
0.0957007
0.0945098
0.0934073
0.0923945
0.0914711
0.0906368
0.0898907
0.0892316
0.0886574
0.0881651
0.0877525
0.0874178