/*--------------------------------*- C++ -*----------------------------------*\
| =========                 |                                                 |
| \\      /  F ield         | OpenFOAM: The Open Source CFD Toolbox           |
|  \\    /   O peration     | Version:  2412                                  |
|   \\  /    A nd           | Website:  www.openfoam.com                      |
|    \\/     M anipulation  |                                                 |
\*---------------------------------------------------------------------------*/
FoamFile
{
    version     2.0;
    format      ascii;
    arch        "LSB;label=32;scalar=64";
    class       surfaceScalarField;
    location    "3.15";
    object      alphaPhi0.glycerin;
}
// * * * * * * * * * * * * * * * * * * * * * * * * * * * * * * * * * * * * * //

dimensions      [0 3 -1 0 0 0 0];

oriented        oriented;

internalField   nonuniform List<scalar> 
12640
(
1.974e-08
-1.97284e-08
3.13263e-08
-1.10167e-08
1.53337e-08
1.64209e-08
-3.18452e-08
4.7738e-08
-1.07995e-07
7.65968e-08
-2.08333e-07
1.00766e-07
-3.27625e-07
1.1978e-07
-4.61096e-07
1.34e-07
-6.04735e-07
1.44167e-07
-7.5536e-07
1.51141e-07
-9.10592e-07
1.55743e-07
-1.06875e-06
1.58673e-07
-1.2287e-06
1.60475e-07
-1.38971e-06
1.61534e-07
-1.55126e-06
1.62076e-07
-1.71292e-06
1.6218e-07
-1.8742e-06
1.61793e-07
-2.03444e-06
1.60738e-07
-2.19268e-06
1.58717e-07
-2.34754e-06
1.55328e-07
-2.49715e-06
1.5006e-07
-2.63905e-06
1.42324e-07
-2.7701e-06
1.31458e-07
-2.88654e-06
1.16804e-07
-2.98391e-06
9.77068e-08
-3.05732e-06
7.36735e-08
-3.10145e-06
4.43332e-08
-3.11104e-06
9.69787e-09
-3.08101e-06
-3.00139e-08
-3.00713e-06
-7.39878e-08
-2.88607e-06
-1.21281e-07
-2.7162e-06
-1.70247e-07
-2.49725e-06
-2.19446e-07
-2.23118e-06
-2.66744e-07
-1.92121e-06
-3.10753e-07
-1.57279e-06
-3.49387e-07
-1.192e-06
-3.8184e-07
-7.86795e-07
-4.06439e-07
-3.64937e-07
-4.23141e-07
6.43582e-08
-4.30734e-07
4.92707e-07
-4.298e-07
9.1067e-07
-4.19529e-07
1.31015e-06
-4.01001e-07
1.68249e-06
-3.73921e-07
2.02092e-06
-3.39891e-07
2.31882e-06
-2.99337e-07
2.57195e-06
-2.54379e-07
2.77695e-06
-2.06133e-07
2.93296e-06
-1.56926e-07
3.04035e-06
-1.08141e-07
3.10159e-06
-6.17686e-08
3.12012e-06
-1.88912e-08
3.10063e-06
1.93029e-08
3.0482e-06
5.23959e-08
2.96823e-06
8.00763e-08
2.8659e-06
1.02568e-07
2.74603e-06
1.20208e-07
2.61285e-06
1.33593e-07
2.46993e-06
1.4335e-07
2.3202e-06
1.50172e-07
2.16595e-06
1.54704e-07
2.00889e-06
1.57533e-07
1.85026e-06
1.59141e-07
1.6909e-06
1.59898e-07
1.5314e-06
1.60067e-07
1.37216e-06
1.59804e-07
1.21356e-06
1.59147e-07
1.05608e-06
1.58012e-07
9.00405e-07
1.56174e-07
7.47632e-07
1.5326e-07
5.99375e-07
1.48738e-07
4.57933e-07
1.41931e-07
3.26399e-07
1.32039e-07
2.08709e-07
1.18215e-07
1.09548e-07
9.97049e-08
3.39951e-08
7.61079e-08
-1.33058e-08
4.78575e-08
-2.98808e-08
1.71285e-08
-1.93847e-08
-9.93858e-09
-1.88528e-08
1.10344e-08
-3.03784e-08
-1.30805e-08
1.40785e-08
-1.0216e-07
1.06277e-07
-2.6292e-07
2.09372e-07
-4.91558e-07
3.06085e-07
-7.78927e-07
3.89019e-07
-1.11418e-06
4.55972e-07
-1.48678e-06
5.0755e-07
-1.88742e-06
5.45754e-07
-2.30844e-06
5.73107e-07
-2.74388e-06
5.92127e-07
-3.18928e-06
6.0503e-07
-3.64142e-06
6.13578e-07
-4.09794e-06
6.19017e-07
-4.55698e-06
6.2207e-07
-5.01682e-06
6.22959e-07
-5.47555e-06
6.21433e-07
-5.93071e-06
6.16795e-07
-6.37906e-06
6.07931e-07
-6.81622e-06
5.93334e-07
-7.23649e-06
5.71141e-07
-7.63259e-06
5.39199e-07
-7.99558e-06
4.95156e-07
-8.31475e-06
4.3662e-07
-8.57786e-06
3.61361e-07
-8.77133e-06
2.67566e-07
-8.8809e-06
1.5416e-07
-8.89216e-06
2.1047e-08
-8.79179e-06
-1.30531e-07
-8.56812e-06
-2.98016e-07
-8.2128e-06
-4.77249e-07
-7.72087e-06
-6.63048e-07
-7.09256e-06
-8.48965e-07
-6.33217e-06
-1.02855e-06
-5.44986e-06
-1.19483e-06
-4.45907e-06
-1.34213e-06
-3.37845e-06
-1.46475e-06
-2.22809e-06
-1.5592e-06
-1.03205e-06
-1.62188e-06
1.86142e-07
-1.65166e-06
1.40027e-06
-1.64687e-06
2.58631e-06
-1.60844e-06
3.71889e-06
-1.53654e-06
4.77634e-06
-1.43414e-06
5.73743e-06
-1.30369e-06
6.58612e-06
-1.15042e-06
7.30877e-06
-9.7921e-07
7.89792e-06
-7.97066e-07
8.34976e-06
-6.10246e-07
8.66642e-06
-4.25874e-07
8.85351e-06
-2.49625e-07
8.92099e-06
-8.67693e-08
8.88087e-06
5.92972e-08
8.74716e-06
1.86244e-07
8.53417e-06
2.93402e-07
8.25612e-06
3.8111e-07
7.92615e-06
4.50777e-07
7.5561e-06
5.04348e-07
7.15608e-06
5.44157e-07
6.73455e-06
5.72588e-07
6.29829e-06
5.91952e-07
5.85256e-06
6.04322e-07
5.40136e-06
6.11465e-07
4.94762e-06
6.14778e-07
4.49352e-06
6.15283e-07
4.04077e-06
6.1361e-07
3.59095e-06
6.09972e-07
3.14576e-06
6.0414e-07
2.70744e-06
5.95398e-07
2.27906e-06
5.82525e-07
1.8649e-06
5.63793e-07
1.47072e-06
5.37031e-07
1.10394e-06
4.99763e-07
7.73647e-07
4.49495e-07
4.90141e-07
3.84218e-07
2.64028e-07
3.0325e-07
1.04315e-07
2.08621e-07
1.50979e-08
1.07423e-07
-1.01808e-08
1.63981e-08
-2.86318e-08
-1.6849e-08
-1.30631e-08
-1.06815e-07
1.05027e-07
-2.92097e-07
2.92373e-07
-5.77264e-07
4.95459e-07
-9.56715e-07
6.86399e-07
-1.41888e-06
8.5204e-07
-1.94991e-06
9.87889e-07
-2.536e-06
1.09454e-06
-3.16468e-06
1.17533e-06
-3.82544e-06
1.23473e-06
-4.50984e-06
1.27739e-06
-5.21141e-06
1.30746e-06
-5.92523e-06
1.32827e-06
-6.64755e-06
1.34219e-06
-7.37519e-06
1.35056e-06
-8.10513e-06
1.35373e-06
-8.83396e-06
1.35107e-06
-9.55745e-06
1.34105e-06
-1.02701e-05
1.32129e-06
-1.09646e-05
1.28856e-06
-1.16317e-05
1.23894e-06
-1.22598e-05
1.16786e-06
-1.28344e-05
1.07037e-06
-1.33388e-05
9.41436e-07
-1.37535e-05
7.76367e-07
-1.40571e-05
5.71361e-07
-1.4227e-05
3.24133e-07
-1.42406e-05
3.45514e-08
-1.40766e-05
-2.94864e-07
-1.37167e-05
-6.58484e-07
-1.31469e-05
-1.04776e-06
-1.23599e-05
-1.45117e-06
-1.13546e-05
-1.85549e-06
-1.01387e-05
-2.24597e-06
-8.72665e-06
-2.60856e-06
-7.14136e-06
-2.92941e-06
-5.41048e-06
-3.1977e-06
-3.56846e-06
-3.40358e-06
-1.65143e-06
-3.54128e-06
2.99926e-07
-3.60563e-06
2.24618e-06
-3.59568e-06
4.14554e-06
-3.51053e-06
5.96012e-06
-3.35372e-06
7.65221e-06
-3.12891e-06
9.19062e-06
-2.84456e-06
1.05474e-05
-2.50958e-06
1.17032e-05
-2.13717e-06
1.26446e-05
-1.74044e-06
1.33677e-05
-1.33485e-06
1.38747e-05
-9.34155e-07
1.41759e-05
-5.51825e-07
1.42866e-05
-1.98082e-07
1.42264e-05
1.19076e-07
1.40171e-05
3.95301e-07
1.36817e-05
6.28803e-07
1.32424e-05
8.20612e-07
1.27201e-05
9.73504e-07
1.21333e-05
1.09168e-06
1.14983e-05
1.17996e-06
1.08285e-05
1.24336e-06
1.01348e-05
1.28673e-06
9.42578e-06
1.31444e-06
8.70813e-06
1.33025e-06
7.98686e-06
1.33716e-06
7.2658e-06
1.3374e-06
6.54804e-06
1.33236e-06
5.83635e-06
1.3226e-06
5.13363e-06
1.30775e-06
4.44343e-06
1.28645e-06
3.77042e-06
1.25638e-06
3.1208e-06
1.21426e-06
2.5027e-06
1.15601e-06
1.9263e-06
1.07706e-06
1.40373e-06
9.72963e-07
9.48475e-07
8.40373e-07
5.74059e-07
6.78548e-07
2.91886e-07
4.91671e-07
1.07852e-07
2.92355e-07
1.75338e-08
1.07535e-07
-1.07704e-08
-4.91353e-08
3.64067e-08
-2.13067e-07
2.69796e-07
-5.00995e-07
5.80965e-07
-9.11343e-07
9.06564e-07
-1.43513e-06
1.21089e-06
-2.05845e-06
1.47606e-06
-2.76546e-06
1.69562e-06
-3.54047e-06
1.87027e-06
-4.36918e-06
2.00475e-06
-5.23944e-06
2.10566e-06
-6.14134e-06
2.17996e-06
-7.06715e-06
2.23392e-06
-8.01085e-06
2.27262e-06
-8.96767e-06
2.29967e-06
-9.93351e-06
2.31705e-06
-1.09043e-05
2.32515e-06
-1.18754e-05
2.32283e-06
-1.28412e-05
2.30743e-06
-1.37941e-05
2.27486e-06
-1.47246e-05
2.21969e-06
-1.56204e-05
2.13523e-06
-1.64657e-05
2.01376e-06
-1.72417e-05
1.84682e-06
-1.79257e-05
1.62581e-06
-1.84916e-05
1.3426e-06
-1.89106e-05
9.9058e-07
-1.9152e-05
5.65594e-07
-1.91847e-05
6.71535e-08
-1.89791e-05
-5.00655e-07
-1.85095e-05
-1.12856e-06
-1.77561e-05
-1.80181e-06
-1.6707e-05
-2.50103e-06
-1.53607e-05
-3.20277e-06
-1.37256e-05
-3.88216e-06
-1.18222e-05
-4.51341e-06
-9.67941e-06
-5.07363e-06
-7.33714e-06
-5.54169e-06
-4.84007e-06
-5.90231e-06
-2.2408e-06
-6.14247e-06
4.07587e-07
-6.25584e-06
3.04729e-06
-6.23743e-06
5.62394e-06
-6.08909e-06
8.08177e-06
-5.81365e-06
1.03722e-05
-5.4213e-06
1.24493e-05
-4.92374e-06
1.42778e-05
-4.3401e-06
1.58295e-05
-3.69079e-06
1.70888e-05
-3.00157e-06
1.80496e-05
-2.29721e-06
1.87176e-05
-1.60357e-06
1.91069e-05
-9.42307e-07
1.924e-05
-3.32135e-07
1.91439e-05
2.14386e-07
1.88494e-05
6.8937e-07
1.83873e-05
1.09057e-06
1.77882e-05
1.41966e-06
1.708e-05
1.68183e-06
1.62877e-05
1.88423e-06
1.54329e-05
2.03526e-06
1.45335e-05
2.14345e-06
1.36039e-05
2.21706e-06
1.26557e-05
2.2635e-06
1.16976e-05
2.28915e-06
1.07366e-05
2.29911e-06
9.77765e-06
2.29718e-06
8.82508e-06
2.2858e-06
7.88254e-06
2.26598e-06
6.95382e-06
2.23726e-06
6.0434e-06
2.19765e-06
5.15695e-06
2.14359e-06
4.30188e-06
2.07009e-06
3.48769e-06
1.97095e-06
2.72617e-06
1.83935e-06
2.03116e-06
1.66875e-06
1.41797e-06
1.45435e-06
9.02069e-07
1.19523e-06
4.97129e-07
8.97387e-07
2.12331e-07
5.77926e-07
4.93039e-08
2.7125e-07
3.88675e-08
-7.94699e-08
1.16284e-07
-3.14493e-07
5.05628e-07
-7.00722e-07
9.67855e-07
-1.22882e-06
1.43539e-06
-1.88526e-06
1.868e-06
-2.65344e-06
2.2449e-06
-3.51576e-06
2.55861e-06
-4.45525e-06
2.81041e-06
-5.45662e-06
3.00674e-06
-6.50688e-06
3.1565e-06
-7.59547e-06
3.26909e-06
-8.71407e-06
3.35303e-06
-9.85618e-06
3.41523e-06
-1.10166e-05
3.46055e-06
-1.21907e-05
3.49162e-06
-1.33738e-05
3.50881e-06
-1.45608e-05
3.51027e-06
-1.57449e-05
3.49199e-06
-1.69175e-05
3.44785e-06
-1.80671e-05
3.36971e-06
-1.91791e-05
3.24752e-06
-2.02346e-05
3.06957e-06
-2.12106e-05
2.82303e-06
-2.20793e-05
2.49455e-06
-2.28082e-05
2.07151e-06
-2.33609e-05
1.54321e-06
-2.36983e-05
9.02729e-07
-2.378e-05
1.48456e-07
-2.3567e-05
-7.14141e-07
-2.30247e-05
-1.67152e-06
-2.21254e-05
-2.70174e-06
-2.08525e-05
-3.77489e-06
-1.92008e-05
-4.85537e-06
-1.71805e-05
-5.90348e-06
-1.48148e-05
-6.8801e-06
-1.21422e-05
-7.74736e-06
-9.21084e-06
-8.47408e-06
-6.08109e-06
-9.03323e-06
-2.81716e-06
-9.40734e-06
5.08453e-07
-9.58258e-06
3.82519e-06
-9.55506e-06
7.05834e-06
-9.32334e-06
1.01402e-05
-8.89643e-06
1.30037e-05
-8.28604e-06
1.55941e-05
-7.51523e-06
1.78628e-05
-6.61018e-06
1.97777e-05
-5.60707e-06
2.13177e-05
-4.54304e-06
2.2479e-05
-3.45988e-06
2.32694e-05
-2.39534e-06
2.37107e-05
-1.3848e-06
2.38325e-05
-4.55039e-07
2.36721e-05
3.73993e-07
2.32689e-05
1.09194e-06
2.26635e-05
1.69551e-06
2.18943e-05
2.18853e-06
2.09967e-05
2.57925e-06
2.00016e-05
2.87928e-06
1.89353e-05
3.10156e-06
1.78196e-05
3.25934e-06
1.66718e-05
3.36511e-06
1.55056e-05
3.4301e-06
1.43314e-05
3.46381e-06
1.31572e-05
3.47392e-06
1.19889e-05
3.4661e-06
1.08314e-05
3.44402e-06
9.68886e-06
3.4093e-06
8.56542e-06
3.36146e-06
7.46597e-06
3.29785e-06
6.39664e-06
3.21367e-06
5.36537e-06
3.10211e-06
4.38229e-06
2.95478e-06
3.45994e-06
2.76246e-06
2.61312e-06
2.51632e-06
1.85833e-06
2.20987e-06
1.21275e-06
1.84154e-06
6.9268e-07
1.41819e-06
3.11667e-07
9.59639e-07
7.90465e-08
5.04515e-07
1.18265e-07
-1.05464e-07
2.22161e-07
-4.03262e-07
8.04142e-07
-8.77267e-07
1.44247e-06
-1.51039e-06
2.06916e-06
-2.2841e-06
2.64233e-06
-3.17881e-06
3.1402e-06
-4.17513e-06
3.55551e-06
-5.25505e-06
3.89088e-06
-6.40273e-06
4.15493e-06
-7.60491e-06
4.35914e-06
-8.85098e-06
4.51553e-06
-1.01326e-05
4.635e-06
-1.14435e-05
4.72635e-06
-1.27784e-05
4.79573e-06
-1.41329e-05
4.84638e-06
-1.55024e-05
4.87861e-06
-1.68818e-05
4.88977e-06
-1.82639e-05
4.87432e-06
-1.96397e-05
4.82379e-06
-2.09969e-05
4.72692e-06
-2.2319e-05
4.56967e-06
-2.35852e-05
4.33559e-06
-2.47686e-05
4.00628e-06
-2.58369e-05
3.56251e-06
-2.67513e-05
2.98546e-06
-2.74676e-05
2.25898e-06
-2.79372e-05
1.3716e-06
-2.8109e-05
3.19589e-07
-2.7933e-05
-8.91055e-07
-2.7363e-05
-2.24234e-06
-2.6362e-05
-3.70379e-06
-2.49045e-05
-5.2332e-06
-2.29822e-05
-6.77861e-06
-2.06033e-05
-8.28308e-06
-1.77965e-05
-9.68765e-06
-1.46059e-05
-1.09384e-05
-1.10937e-05
-1.19867e-05
-7.33123e-06
-1.27958e-05
-3.40293e-06
-1.33358e-05
6.05634e-07
-1.35908e-05
4.60069e-06
-1.35499e-05
8.49436e-06
-1.32164e-05
1.21961e-05
-1.25978e-05
1.56278e-05
-1.17172e-05
1.87158e-05
-1.0603e-05
2.14054e-05
-9.29966e-06
2.36535e-05
-7.85552e-06
2.544e-05
-6.33003e-06
2.67599e-05
-4.78061e-06
2.76294e-05
-3.26557e-06
2.80768e-05
-1.83306e-06
2.81441e-05
-5.23097e-07
2.78787e-05
6.38685e-07
2.73323e-05
1.63773e-06
2.65553e-05
2.472e-06
2.55956e-05
3.14787e-06
2.44955e-05
3.67893e-06
2.32919e-05
4.08246e-06
2.20154e-05
4.37768e-06
2.06908e-05
4.58361e-06
1.93375e-05
4.7181e-06
1.79706e-05
4.79686e-06
1.66013e-05
4.83314e-06
1.52378e-05
4.83749e-06
1.38864e-05
4.81773e-06
1.25519e-05
4.7789e-06
1.12383e-05
4.72335e-06
9.9497e-06
4.65058e-06
8.69079e-06
4.5573e-06
7.46758e-06
4.43742e-06
6.28797e-06
4.28229e-06
5.16214e-06
4.0812e-06
4.10286e-06
3.82234e-06
3.12544e-06
3.49436e-06
2.24733e-06
3.08857e-06
1.48744e-06
2.60203e-06
8.64982e-07
2.04127e-06
3.98301e-07
1.42689e-06
1.04438e-07
7.98956e-07
2.2297e-07
-1.26477e-07
3.48971e-07
-4.76698e-07
1.15495e-06
-1.02532e-06
1.99159e-06
-1.74835e-06
2.79272e-06
-2.62239e-06
3.51688e-06
-3.62472e-06
4.14302e-06
-4.73414e-06
4.66539e-06
-5.93166e-06
5.08886e-06
-7.20114e-06
5.42483e-06
-8.52945e-06
5.6878e-06
-9.90637e-06
5.89269e-06
-1.13241e-05
6.05293e-06
-1.2777e-05
6.17932e-06
-1.42606e-05
6.27935e-06
-1.57712e-05
6.35694e-06
-1.7305e-05
6.41228e-06
-1.88572e-05
6.4419e-06
-2.04217e-05
6.43857e-06
-2.19895e-05
6.39133e-06
-2.35482e-05
6.28535e-06
-2.50811e-05
6.10207e-06
-2.65654e-05
5.8193e-06
-2.79719e-05
5.41203e-06
-2.92635e-05
4.85329e-06
-3.03955e-05
4.11648e-06
-3.1315e-05
3.17742e-06
-3.19629e-05
2.01838e-06
-3.22756e-05
6.31071e-07
-3.2189e-05
-9.78822e-07
-3.16431e-05
-2.78951e-06
-3.05871e-05
-4.76088e-06
-2.89857e-05
-6.83565e-06
-2.68225e-05
-8.94246e-06
-2.41056e-05
-1.10007e-05
-2.08647e-05
-1.29287e-05
-1.71552e-05
-1.4648e-05
-1.30487e-05
-1.60927e-05
-8.63679e-06
-1.7207e-05
-4.01742e-06
-1.79538e-05
6.97937e-07
-1.83049e-05
5.40104e-06
-1.82511e-05
9.9763e-06
-1.77899e-05
1.43198e-05
-1.6939e-05
1.83279e-05
-1.57234e-05
2.19175e-05
-1.41906e-05
2.50158e-05
-1.23964e-05
2.75778e-05
-1.04162e-05
2.95766e-05
-8.32823e-06
3.1015e-05
-6.21865e-06
3.19138e-05
-4.16447e-06
3.23162e-05
-2.23565e-06
3.22757e-05
-4.83067e-07
3.1856e-05
1.05791e-06
3.11213e-05
2.37189e-06
3.01352e-05
3.45773e-06
2.89547e-05
4.32785e-06
2.76307e-05
5.0025e-06
2.62051e-05
5.50734e-06
2.47127e-05
5.86937e-06
2.31804e-05
6.11515e-06
2.16289e-05
6.26881e-06
2.00737e-05
6.35144e-06
1.85257e-05
6.3805e-06
1.69931e-05
6.36976e-06
1.54812e-05
6.32933e-06
1.39942e-05
6.26574e-06
1.25354e-05
6.18205e-06
1.11083e-05
6.07778e-06
9.7167e-06
5.94897e-06
8.36608e-06
5.78819e-06
7.06375e-06
5.58482e-06
5.8195e-06
5.32569e-06
4.64597e-06
4.99616e-06
3.55873e-06
4.58191e-06
2.5761e-06
4.07151e-06
1.71877e-06
3.4597e-06
1.00897e-06
2.75146e-06
4.6972e-07
1.96651e-06
1.24866e-07
1.14422e-06
3.47914e-07
-1.42759e-07
4.91986e-07
-5.35186e-07
1.54785e-06
-1.14522e-06
2.60204e-06
-1.94317e-06
3.59106e-06
-2.9011e-06
4.47523e-06
-3.99325e-06
5.23557e-06
-5.19654e-06
5.86906e-06
-6.49111e-06
6.38379e-06
-7.86062e-06
6.79472e-06
-9.29241e-06
7.1199e-06
-1.0777e-05
7.3775e-06
-1.23078e-05
7.58375e-06
-1.38801e-05
7.75158e-06
-1.54908e-05
7.88995e-06
-1.71375e-05
8.00347e-06
-1.88179e-05
8.09234e-06
-2.05285e-05
8.15222e-06
-2.22646e-05
8.17424e-06
-2.40185e-05
8.14468e-06
-2.57788e-05
8.04496e-06
-2.75288e-05
7.85126e-06
-2.92453e-05
7.5349e-06
-3.08969e-05
7.06256e-06
-3.24429e-05
6.39807e-06
-3.38319e-05
5.50405e-06
-3.5002e-05
4.34622e-06
-3.5882e-05
2.89676e-06
-3.63933e-05
1.14098e-06
-3.64548e-05
-9.18819e-07
-3.59885e-05
-3.25709e-06
-3.49268e-05
-5.82388e-06
-3.32194e-05
-8.54386e-06
-3.08415e-05
-1.13211e-05
-2.77958e-05
-1.40465e-05
-2.4118e-05
-1.66065e-05
-1.98694e-05
-1.88957e-05
-1.5141e-05
-2.08203e-05
-1.00375e-05
-2.23088e-05
-4.68477e-06
-2.33049e-05
7.90024e-07
-2.37773e-05
6.24642e-06
-2.37053e-05
1.15532e-05
-2.30939e-05
1.65739e-05
-2.19571e-05
2.1192e-05
-2.03383e-05
2.52968e-05
-1.82928e-05
2.88095e-05
-1.59063e-05
3.16696e-05
-1.32742e-05
3.38552e-05
-1.05122e-05
3.53689e-05
-7.73156e-06
3.62478e-05
-5.0429e-06
3.65469e-05
-2.53476e-06
3.63409e-05
-2.77144e-07
3.5709e-05
1.68937e-06
3.47341e-05
3.34629e-06
3.34927e-05
4.69855e-06
3.20544e-05
5.76566e-06
3.04774e-05
6.57886e-06
2.881e-05
7.17406e-06
2.70896e-05
7.5889e-06
2.53449e-05
7.85883e-06
2.35969e-05
8.01581e-06
2.18604e-05
8.08697e-06
2.01455e-05
8.09454e-06
1.84588e-05
8.05571e-06
1.68044e-05
7.98301e-06
1.51852e-05
7.88446e-06
1.36031e-05
7.76379e-06
1.206e-05
7.6205e-06
1.05589e-05
7.44986e-06
9.10395e-06
7.24301e-06
7.70143e-06
6.98725e-06
6.36042e-06
6.66669e-06
5.09311e-06
6.26351e-06
3.91516e-06
5.75993e-06
2.84573e-06
5.14102e-06
1.9073e-06
4.39827e-06
1.1251e-06
3.53391e-06
5.26384e-07
2.56543e-06
1.40611e-07
1.5302e-06
4.88503e-07
-1.55058e-07
6.47257e-07
-5.80988e-07
1.97415e-06
-1.24111e-06
3.2625e-06
-2.10109e-06
4.45132e-06
-3.12884e-06
5.50332e-06
-4.2956e-06
6.40267e-06
-5.57648e-06
7.1502e-06
-6.95072e-06
7.75835e-06
-8.40207e-06
8.24645e-06
-9.91852e-06
8.63676e-06
-1.14919e-05
8.95115e-06
-1.31168e-05
9.20894e-06
-1.47906e-05
9.4254e-06
-1.65117e-05
9.61107e-06
-1.82797e-05
9.77141e-06
-2.00943e-05
9.90666e-06
-2.19541e-05
1.00118e-05
-2.38564e-05
1.00762e-05
-2.57956e-05
1.00835e-05
-2.77621e-05
1.00109e-05
-2.97406e-05
9.82905e-06
-3.17079e-05
9.50141e-06
-3.36316e-05
8.98531e-06
-3.54671e-05
8.23247e-06
-3.71569e-05
7.19279e-06
-3.86292e-05
5.81722e-06
-3.9799e-05
4.0654e-06
-4.05702e-05
1.91089e-06
-4.08413e-05
-6.48757e-07
-4.05119e-05
-3.58757e-06
-3.94927e-05
-6.8438e-06
-3.77152e-05
-1.0322e-05
-3.51408e-05
-1.38955e-05
-3.1769e-05
-1.74183e-05
-2.76359e-05
-2.07388e-05
-2.28183e-05
-2.37126e-05
-1.74191e-05
-2.62179e-05
-1.15716e-05
-2.81549e-05
-5.41824e-06
-2.94561e-05
8.78287e-07
-3.0072e-05
7.16027e-06
-2.99849e-05
1.32576e-05
-2.91894e-05
1.90178e-05
-2.77148e-05
2.42869e-05
-2.56054e-05
2.89433e-05
-2.29467e-05
3.28805e-05
-1.98415e-05
3.60383e-05
-1.64297e-05
3.8385e-05
-1.28575e-05
3.99383e-05
-9.28389e-06
4.07441e-05
-5.84845e-06
4.08827e-05
-2.67347e-06
4.04475e-05
1.57703e-07
3.95433e-05
2.59306e-06
3.82707e-05
4.61823e-06
3.67246e-05
6.244e-06
3.49862e-05
7.50361e-06
3.31233e-05
8.44128e-06
3.1189e-05
9.10781e-06
2.9224e-05
9.55334e-06
2.72573e-05
9.82478e-06
2.53094e-05
9.96292e-06
2.33936e-05
1.0002e-05
2.1518e-05
9.96935e-06
1.96872e-05
9.88581e-06
1.79034e-05
9.76631e-06
1.61671e-05
9.62031e-06
1.44785e-05
9.45212e-06
1.28377e-05
9.26107e-06
1.12458e-05
9.04161e-06
9.70543e-06
8.7833e-06
8.2215e-06
8.47117e-06
6.8019e-06
8.08634e-06
5.45812e-06
7.6074e-06
4.20573e-06
7.01246e-06
3.06467e-06
6.28223e-06
2.05918e-06
5.40395e-06
1.21742e-06
4.37596e-06
5.7052e-07
3.21254e-06
1.5246e-07
1.94841e-06
6.41101e-07
-1.64436e-07
8.11871e-07
-6.17641e-07
2.42762e-06
-1.31984e-06
3.96497e-06
-2.23271e-06
5.36434e-06
-3.32006e-06
6.59095e-06
-4.55011e-06
7.63299e-06
-5.89614e-06
8.4964e-06
-7.33669e-06
9.19912e-06
-8.85577e-06
9.76592e-06
-1.04425e-05
1.0224e-05
-1.20901e-05
1.05993e-05
-1.37955e-05
1.09148e-05
-1.55578e-05
1.11881e-05
-1.73779e-05
1.14315e-05
-1.92577e-05
1.16515e-05
-2.11993e-05
1.18484e-05
-2.3204e-05
1.20167e-05
-2.52718e-05
1.21441e-05
-2.73998e-05
1.22116e-05
-2.95809e-05
1.21921e-05
-3.18018e-05
1.20498e-05
-3.40406e-05
1.17401e-05
-3.62639e-05
1.12084e-05
-3.84246e-05
1.03929e-05
-4.04584e-05
9.22626e-06
-4.22837e-05
7.64215e-06
-4.37996e-05
5.5809e-06
-4.48908e-05
3.00194e-06
-4.5431e-05
-1.08895e-07
-4.52936e-05
-3.72489e-06
-4.43622e-05
-7.77534e-06
-4.25449e-05
-1.21388e-05
-3.97875e-05
-1.66526e-05
-3.60811e-05
-2.11238e-05
-3.1469e-05
-2.53502e-05
-2.60372e-05
-2.9143e-05
-1.99152e-05
-3.23389e-05
-1.32539e-05
-3.48146e-05
-6.23261e-06
-3.64764e-05
9.67699e-07
-3.72709e-05
8.14621e-06
-3.71629e-05
1.51152e-05
-3.61575e-05
2.16762e-05
-3.42759e-05
2.76602e-05
-3.15889e-05
3.29046e-05
-2.81909e-05
3.72962e-05
-2.42321e-05
4.07506e-05
-1.98834e-05
4.32464e-05
-1.53523e-05
4.48014e-05
-1.08386e-05
4.54887e-05
-6.53582e-06
4.54075e-05
-2.59283e-06
4.46841e-05
8.8051e-07
4.34463e-05
3.83018e-06
4.18211e-05
6.24266e-06
3.99203e-05
8.14421e-06
3.78403e-05
9.58325e-06
3.56574e-05
1.06242e-05
3.34303e-05
1.1335e-05
3.12014e-05
1.17824e-05
2.90001e-05
1.20262e-05
2.6845e-05
1.2118e-05
2.47473e-05
1.20997e-05
2.27126e-05
1.20041e-05
2.07426e-05
1.18558e-05
1.88368e-05
1.16722e-05
1.69933e-05
1.14639e-05
1.52099e-05
1.12358e-05
1.34844e-05
1.09868e-05
1.18157e-05
1.07106e-05
1.02044e-05
1.03949e-05
8.65352e-06
1.00224e-05
7.16948e-06
9.57079e-06
5.76266e-06
9.01465e-06
4.4483e-06
8.32724e-06
3.24696e-06
7.48397e-06
2.18469e-06
6.46664e-06
1.29255e-06
5.26854e-06
6.05517e-07
3.89991e-06
1.61483e-07
2.39274e-06
8.02936e-07
-1.72218e-07
9.8422e-07
-6.49823e-07
2.9054e-06
-1.39071e-06
4.7061e-06
-2.35245e-06
6.32612e-06
-3.49427e-06
7.73301e-06
-4.78107e-06
8.92004e-06
-6.18433e-06
9.89973e-06
-7.68217e-06
1.0697e-05
-9.2593e-06
1.13433e-05
-1.09064e-05
1.18715e-05
-1.26188e-05
1.23124e-05
-1.43957e-05
1.26923e-05
-1.62389e-05
1.30318e-05
-1.81519e-05
1.3345e-05
-2.01392e-05
1.36393e-05
-2.22056e-05
1.39154e-05
-2.43555e-05
1.41671e-05
-2.65917e-05
1.43809e-05
-2.89146e-05
1.4535e-05
-3.13199e-05
1.4598e-05
-3.3797e-05
1.45276e-05
-3.63254e-05
1.42691e-05
-3.88724e-05
1.3756e-05
-4.13876e-05
1.29088e-05
-4.38019e-05
1.16412e-05
-4.60219e-05
9.86276e-06
-4.79321e-05
7.49194e-06
-4.9394e-05
4.46456e-06
-5.02555e-05
7.53562e-07
-5.03575e-05
-3.62214e-06
-4.95528e-05
-8.57886e-06
-4.77204e-05
-1.39703e-05
-4.4786e-05
-1.95857e-05
-4.07338e-05
-2.5175e-05
-3.56101e-05
-3.04725e-05
-2.95223e-05
-3.52302e-05
-2.26178e-05
-3.92421e-05
-1.50843e-05
-4.23479e-05
-7.12002e-06
-4.44399e-05
1.04952e-06
-4.54407e-05
9.20616e-06
-4.53194e-05
1.71115e-05
-4.4064e-05
2.45501e-05
-4.17154e-05
3.13006e-05
-3.83411e-05
3.71874e-05
-3.40788e-05
4.20558e-05
-2.91017e-05
4.5823e-05
-2.36506e-05
4.84519e-05
-1.79812e-05
4.9985e-05
-1.23713e-05
5.05084e-05
-7.05953e-06
5.01606e-05
-2.24541e-06
4.90939e-05
1.94646e-06
4.74727e-05
5.45089e-06
4.54464e-05
8.26833e-06
4.31501e-05
1.044e-05
4.06929e-05
1.20404e-05
3.81614e-05
1.31561e-05
3.56184e-05
1.38788e-05
3.31081e-05
1.42936e-05
3.06589e-05
1.44765e-05
2.82876e-05
1.44904e-05
2.60024e-05
1.43859e-05
2.38059e-05
1.42015e-05
2.16967e-05
1.39659e-05
1.96714e-05
1.36983e-05
1.77252e-05
1.34108e-05
1.58533e-05
1.31085e-05
1.40509e-05
1.27901e-05
1.23143e-05
1.24479e-05
1.06418e-05
1.20682e-05
9.03409e-06
1.16308e-05
7.49542e-06
1.11101e-05
6.03471e-06
1.0476e-05
4.66641e-06
9.69612e-06
3.41148e-06
8.73941e-06
2.29773e-06
7.58086e-06
1.35945e-06
6.20728e-06
6.35826e-07
4.62387e-06
1.68902e-07
2.86008e-06
9.72085e-07
-1.80098e-07
1.16441e-06
-6.83691e-07
3.40912e-06
-1.46592e-06
5.48861e-06
-2.47894e-06
7.33909e-06
-3.67608e-06
8.93041e-06
-5.01838e-06
1.02626e-05
-6.47564e-06
1.1357e-05
-8.0261e-06
1.22473e-05
-9.65586e-06
1.2973e-05
-1.13578e-05
1.35736e-05
-1.31301e-05
1.4085e-05
-1.49746e-05
1.45374e-05
-1.68962e-05
1.49539e-05
-1.8901e-05
1.53503e-05
-2.09963e-05
1.57352e-05
-2.31898e-05
1.61094e-05
-2.54885e-05
1.64664e-05
-2.78983e-05
1.67914e-05
-3.04224e-05
1.70599e-05
-3.30597e-05
1.72361e-05
-3.5802e-05
1.72707e-05
-3.86313e-05
1.70994e-05
-4.15146e-05
1.66403e-05
-4.4401e-05
1.57964e-05
-4.72148e-05
1.44562e-05
-4.98544e-05
1.25037e-05
-5.21868e-05
9.82554e-06
-5.40533e-05
6.33254e-06
-5.52702e-05
1.97177e-06
-5.56468e-05
-3.24395e-06
-5.49966e-05
-9.22778e-06
-5.31673e-05
-1.57979e-05
-5.00588e-05
-2.26931e-05
-4.56466e-05
-2.95856e-05
-3.99863e-05
-3.61321e-05
-3.32025e-05
-4.20127e-05
-2.54775e-05
-4.69669e-05
-1.70199e-05
-5.08049e-05
-8.0708e-06
-5.33893e-05
1.1281e-06
-5.4639e-05
1.03077e-05
-5.44994e-05
1.92146e-05
-5.29707e-05
2.75748e-05
-5.00766e-05
3.51513e-05
-4.59184e-05
4.17114e-05
-4.06404e-05
4.70931e-05
-3.44842e-05
5.11763e-05
-2.77345e-05
5.39395e-05
-2.07439e-05
5.54242e-05
-1.38553e-05
5.57578e-05
-7.3923e-06
5.51038e-05
-1.5912e-06
5.36608e-05
3.38957e-06
5.16205e-05
7.491e-06
4.91659e-05
1.07229e-05
4.6449e-05
1.31568e-05
4.35955e-05
1.4894e-05
4.06987e-05
1.60535e-05
3.78265e-05
1.67519e-05
3.50232e-05
1.70981e-05
3.23166e-05
1.71846e-05
2.97208e-05
1.70877e-05
2.72414e-05
1.68668e-05
2.48777e-05
1.65667e-05
2.26255e-05
1.62194e-05
2.04784e-05
1.58466e-05
1.84291e-05
1.54613e-05
1.64698e-05
1.50689e-05
1.45931e-05
1.46677e-05
1.27928e-05
1.42491e-05
1.10642e-05
1.37976e-05
9.40526e-06
1.32905e-05
7.81757e-06
1.26985e-05
6.3078e-06
1.19863e-05
4.88901e-06
1.11154e-05
3.582e-06
1.00468e-05
2.41628e-06
8.74684e-06
1.42988e-06
7.19394e-06
6.67375e-07
5.38656e-06
1.762e-07
3.3516e-06
1.1482e-06
-1.90502e-07
1.35499e-06
-7.27884e-07
3.94664e-06
-1.56197e-06
6.32315e-06
-2.63636e-06
8.41334e-06
-3.89615e-06
1.01906e-05
-5.29788e-06
1.16649e-05
-6.81013e-06
1.28694e-05
-8.41222e-06
1.38493e-05
-1.00928e-05
1.46535e-05
-1.1848e-05
1.53288e-05
-1.36794e-05
1.59165e-05
-1.55922e-05
1.64504e-05
-1.75942e-05
1.6956e-05
-1.96943e-05
1.74507e-05
-2.19023e-05
1.79435e-05
-2.42282e-05
1.84356e-05
-2.66814e-05
1.89199e-05
-2.92698e-05
1.93802e-05
-3.19991e-05
1.97895e-05
-3.48702e-05
2.01077e-05
-3.78776e-05
2.02786e-05
-4.10044e-05
2.02267e-05
-4.42193e-05
1.98558e-05
-4.74691e-05
1.90468e-05
-5.06759e-05
1.76637e-05
-5.3728e-05
1.55564e-05
-5.64814e-05
1.25798e-05
-5.87535e-05
8.60537e-06
-6.03362e-05
3.55558e-06
-6.09991e-05
-2.58031e-06
-6.05201e-05
-9.70549e-06
-5.8704e-05
-1.76131e-05
-5.54257e-05
-2.597e-05
-5.0648e-05
-3.43627e-05
-4.4437e-05
-4.23418e-05
-3.69461e-05
-4.95033e-05
-2.83834e-05
-5.55285e-05
-1.89971e-05
-6.01913e-05
-9.04354e-06
-6.33419e-05
1.18858e-06
-6.48707e-05
1.14191e-05
-6.47279e-05
2.1336e-05
-6.28862e-05
3.06524e-05
-5.93907e-05
3.90653e-05
-5.433e-05
4.63307e-05
-4.79045e-05
5.22288e-05
-4.03821e-05
5.6643e-05
-3.21477e-05
5.95266e-05
-2.36263e-05
6.09571e-05
-1.52837e-05
6.10794e-05
-7.51278e-06
6.01106e-05
-6.20846e-07
5.82791e-05
5.22194e-06
5.58201e-05
9.95084e-06
5.29373e-05
1.36062e-05
4.98065e-05
1.6288e-05
4.6562e-05
1.81387e-05
4.3306e-05
1.93098e-05
4.01077e-05
1.99508e-05
3.70127e-05
2.01937e-05
3.4047e-05
2.01511e-05
3.12231e-05
1.99124e-05
2.8544e-05
1.95467e-05
2.6007e-05
1.91045e-05
2.36055e-05
1.86217e-05
2.13308e-05
1.81221e-05
1.91733e-05
1.76196e-05
1.7123e-05
1.71199e-05
1.51701e-05
1.66212e-05
1.33055e-05
1.61142e-05
1.15216e-05
1.55819e-05
9.81318e-06
1.49994e-05
8.17839e-06
1.43336e-05
6.62074e-06
1.35443e-05
5.15076e-06
1.25855e-05
3.78819e-06
1.14094e-05
2.56377e-06
9.97129e-06
1.51988e-06
8.23791e-06
7.08562e-07
6.19797e-06
1.85678e-07
3.87462e-06
1.33379e-06
-2.07487e-07
1.5626e-06
-7.95706e-07
4.53502e-06
-1.70251e-06
7.23071e-06
-2.85696e-06
9.56754e-06
-4.19281e-06
1.15269e-05
-5.66187e-06
1.31347e-05
-7.23278e-06
1.44408e-05
-8.88784e-06
1.55046e-05
-1.062e-05
1.63857e-05
-1.24297e-05
1.71387e-05
-1.43228e-05
1.78098e-05
-1.63082e-05
1.84359e-05
-1.83964e-05
1.90444e-05
-2.05989e-05
1.96533e-05
-2.29273e-05
2.02719e-05
-2.53928e-05
2.09011e-05
-2.80058e-05
2.15329e-05
-3.07754e-05
2.21496e-05
-3.37076e-05
2.27215e-05
-3.68047e-05
2.32045e-05
-4.00613e-05
2.35348e-05
-4.34622e-05
2.36271e-05
-4.69754e-05
2.33684e-05
-5.05491e-05
2.26199e-05
-5.4101e-05
2.12149e-05
-5.75176e-05
1.89723e-05
-6.06419e-05
1.57033e-05
-6.32807e-05
1.12437e-05
-6.51971e-05
5.47127e-06
-6.61343e-05
-1.64321e-06
-6.58232e-05
-1.0017e-05
-6.40325e-05
-1.94033e-05
-6.05962e-05
-2.94064e-05
-5.5469e-05
-3.9489e-05
-4.87267e-05
-4.9084e-05
-4.05532e-05
-5.76756e-05
-3.11932e-05
-6.48883e-05
-2.09121e-05
-7.0471e-05
-1.0003e-05
-7.42507e-05
1.23659e-06
-7.61082e-05
1.24722e-05
-7.59615e-05
2.33845e-05
-7.37947e-05
3.36163e-05
-6.96194e-05
4.28573e-05
-6.35671e-05
5.07933e-05
-5.58374e-05
5.72045e-05
-4.6791e-05
6.1923e-05
-3.68653e-05
6.49243e-05
-2.66262e-05
6.62846e-05
-1.66422e-05
6.62064e-05
-7.43231e-06
6.49349e-05
6.52273e-07
6.27509e-05
7.40706e-06
5.99118e-05
1.27907e-05
5.66508e-05
1.68675e-05
5.31523e-05
1.97864e-05
4.95621e-05
2.17285e-05
4.59832e-05
2.28881e-05
4.2488e-05
2.34454e-05
3.9121e-05
2.35601e-05
3.59083e-05
2.33633e-05
3.28611e-05
2.2959e-05
2.9982e-05
2.24252e-05
2.72672e-05
2.18188e-05
2.47092e-05
2.11791e-05
2.22987e-05
2.05322e-05
2.00247e-05
1.98932e-05
1.78759e-05
1.92684e-05
1.58406e-05
1.86563e-05
1.39074e-05
1.80473e-05
1.20657e-05
1.74236e-05
1.03065e-05
1.67585e-05
8.62403e-06
1.6016e-05
7.01733e-06
1.51509e-05
5.4928e-06
1.411e-05
4.06732e-06
1.28348e-05
2.77158e-06
1.1267e-05
1.65245e-06
9.35716e-06
7.72323e-07
7.07833e-06
2.01485e-07
4.4456e-06
1.53558e-06
-2.38909e-07
1.80173e-06
-9.09552e-07
5.20568e-06
-1.92338e-06
8.2456e-06
-3.18504e-06
1.08287e-05
-4.61417e-06
1.29562e-05
-6.15933e-06
1.46805e-05
-7.79234e-06
1.60743e-05
-9.50152e-06
1.7214e-05
-1.12864e-05
1.81707e-05
-1.31533e-05
1.90058e-05
-1.5113e-05
1.97696e-05
-1.71778e-05
2.05009e-05
-1.93608e-05
2.12276e-05
-2.16751e-05
2.19676e-05
-2.41326e-05
2.27294e-05
-2.67445e-05
2.35128e-05
-2.95203e-05
2.43085e-05
-3.24677e-05
2.50966e-05
-3.55914e-05
2.58447e-05
-3.88914e-05
2.65038e-05
-4.23616e-05
2.70042e-05
-4.59845e-05
2.7249e-05
-4.97292e-05
2.7112e-05
-5.35417e-05
2.64309e-05
-5.73428e-05
2.50147e-05
-6.10151e-05
2.2643e-05
-6.44047e-05
1.90916e-05
-6.73071e-05
1.41445e-05
-6.94807e-05
7.6439e-06
-7.06377e-05
-4.87455e-07
-7.04831e-05
-1.01718e-05
-6.87305e-05
-2.11565e-05
-6.51814e-05
-3.29549e-05
-5.97621e-05
-4.49084e-05
-5.25653e-05
-5.62797e-05
-4.3802e-05
-6.64386e-05
-3.37433e-05
-7.49452e-05
-2.26765e-05
-8.15376e-05
-1.0895e-05
-8.60316e-05
1.25492e-06
-8.82589e-05
1.34299e-05
-8.81357e-05
2.52402e-05
-8.56048e-05
3.63189e-05
-8.06965e-05
4.62804e-05
-7.35277e-05
5.48156e-05
-6.4371e-05
6.16488e-05
-5.36231e-05
6.66295e-05
-4.18458e-05
6.97004e-05
-2.96979e-05
7.09922e-05
-1.79338e-05
7.07304e-05
-7.16934e-06
6.92211e-05
2.16251e-06
6.67645e-05
9.86411e-06
6.36506e-05
1.59048e-05
6.01161e-05
2.04016e-05
5.63559e-05
2.35459e-05
5.25118e-05
2.55716e-05
4.86892e-05
2.67094e-05
4.49582e-05
2.7175e-05
4.13651e-05
2.71518e-05
3.79357e-05
2.67913e-05
3.46833e-05
2.62099e-05
3.16118e-05
2.54953e-05
2.87192e-05
2.47101e-05
2.59996e-05
2.38976e-05
2.34446e-05
2.30862e-05
2.10441e-05
2.22928e-05
1.87868e-05
2.15252e-05
1.666e-05
2.07825e-05
1.4651e-05
2.0056e-05
1.27463e-05
1.9328e-05