/*--------------------------------*- C++ -*----------------------------------*\
| =========                 |                                                 |
| \\      /  F ield         | OpenFOAM: The Open Source CFD Toolbox           |
|  \\    /   O peration     | Version:  2412                                  |
|   \\  /    A nd           | Website:  www.openfoam.com                      |
|    \\/     M anipulation  |                                                 |
\*---------------------------------------------------------------------------*/
FoamFile
{
    version     2.0;
    format      ascii;
    arch        "LSB;label=32;scalar=64";
    class       volVectorField;
    location    "3.15";
    object      U;
}
// * * * * * * * * * * * * * * * * * * * * * * * * * * * * * * * * * * * * * //

dimensions      [0 1 -1 0 0 0 0];

internalField   nonuniform List<vector> 
6400
(
(2.11235e-06 -2.10299e-06 0)
(6.21448e-06 -1.98272e-06 0)
(6.22801e-06 -8.05986e-07 0)
(4.65115e-07 4.93892e-07 0)
(-1.13549e-05 1.61507e-06 0)
(-2.85177e-05 2.50504e-06 0)
(-5.00081e-05 3.16848e-06 0)
(-7.48223e-05 3.63205e-06 0)
(-0.000102078 3.93413e-06 0)
(-0.000131054 4.11524e-06 0)
(-0.000161193 4.21171e-06 0)
(-0.000192086 4.25354e-06 0)
(-0.000223449 4.26351e-06 0)
(-0.000255093 4.25848e-06 0)
(-0.00028689 4.24879e-06 0)
(-0.000318749 4.24074e-06 0)
(-0.000350583 4.234e-06 0)
(-0.000382285 4.22667e-06 0)
(-0.000413705 4.20839e-06 0)
(-0.00044462 4.17117e-06 0)
(-0.000474726 4.09363e-06 0)
(-0.000503596 3.96482e-06 0)
(-0.000530694 3.75092e-06 0)
(-0.000555328 3.44538e-06 0)
(-0.000576706 3.00176e-06 0)
(-0.000593875 2.43257e-06 0)
(-0.000605846 1.67973e-06 0)
(-0.000611527 7.97097e-07 0)
(-0.000609926 -2.86471e-07 0)
(-0.00060005 -1.45103e-06 0)
(-0.000581203 -2.79165e-06 0)
(-0.000552796 -4.10446e-06 0)
(-0.000514725 -5.53335e-06 0)
(-0.000467035 -6.78721e-06 0)
(-0.000410356 -8.09131e-06 0)
(-0.000345411 -9.07663e-06 0)
(-0.000273482 -1.00711e-05 0)
(-0.000195818 -1.06418e-05 0)
(-0.000114126 -1.12121e-05 0)
(-2.99561e-05 -1.1302e-05 0)
(5.48041e-05 -1.13961e-05 0)
(0.000138504 -1.09961e-05 0)
(0.000219282 -1.06038e-05 0)
(0.000295566 -9.74712e-06 0)
(0.000365737 -8.90718e-06 0)
(0.000428524 -7.68575e-06 0)
(0.0004828 -6.51403e-06 0)
(0.000527845 -5.09549e-06 0)
(0.000563226 -3.78565e-06 0)
(0.000588915 -2.38505e-06 0)
(0.000605206 -1.1547e-06 0)
(0.000612701 3.45911e-08 0)
(0.000612231 1.02098e-06 0)
(0.000604775 1.89198e-06 0)
(0.000591391 2.56685e-06 0)
(0.00057313 3.10989e-06 0)
(0.000550989 3.49779e-06 0)
(0.000525858 3.77922e-06 0)
(0.000498508 3.95888e-06 0)
(0.000469572 4.07149e-06 0)
(0.000439555 4.13102e-06 0)
(0.00040884 4.16058e-06 0)
(0.000377708 4.17211e-06 0)
(0.000346354 4.17717e-06 0)
(0.000314915 4.18148e-06 0)
(0.000283484 4.18829e-06 0)
(0.00025214 4.19667e-06 0)
(0.000220966 4.20134e-06 0)
(0.00019008 4.19193e-06 0)
(0.000159661 4.15219e-06 0)
(0.000129983 4.05967e-06 0)
(0.00010144 3.8853e-06 0)
(7.4574e-05 3.59385e-06 0)
(5.00881e-05 3.14552e-06 0)
(2.88439e-05 2.50066e-06 0)
(1.18202e-05 1.62973e-06 0)
(1.06638e-08 5.28187e-07 0)
(-5.84807e-06 -7.52314e-07 0)
(-5.98877e-06 -1.92332e-06 0)
(-2.06013e-06 -2.07268e-06 0)
(2.02657e-06 -6.28767e-06 0)
(3.09895e-06 -3.17672e-06 0)
(-6.69837e-06 6.90056e-06 0)
(-3.02022e-05 1.86409e-05 0)
(-6.77454e-05 2.97045e-05 0)
(-0.000117996 3.91512e-05 0)
(-0.000178932 4.67146e-05 0)
(-0.000248408 5.24738e-05 0)
(-0.000324434 5.66724e-05 0)
(-0.000405311 5.96123e-05 0)
(-0.00048967 6.15936e-05 0)
(-0.000576463 6.28809e-05 0)
(-0.000664914 6.36874e-05 0)
(-0.000754463 6.41664e-05 0)
(-0.000844691 6.44141e-05 0)
(-0.000935253 6.44668e-05 0)
(-0.0010258 6.4311e-05 0)
(-0.00111593 6.38766e-05 0)
(-0.0012051 6.30545e-05 0)
(-0.0012926 6.16779e-05 0)
(-0.00137744 5.95582e-05 0)
(-0.00145839 5.64448e-05 0)
(-0.00153383 5.21048e-05 0)
(-0.00160187 4.62402e-05 0)
(-0.00166019 3.86527e-05 0)
(-0.00170629 2.90727e-05 0)
(-0.00173729 1.74682e-05 0)
(-0.00175046 3.70037e-06 0)
(-0.00174284 -1.19436e-05 0)
(-0.00171209 -2.94017e-05 0)
(-0.00165597 -4.79705e-05 0)
(-0.00157337 -6.7429e-05 0)
(-0.00146347 -8.66921e-05 0)
(-0.00132705 -0.000105562 0)
(-0.00116511 -0.000122735 0)
(-0.000980432 -0.000138274 0)
(-0.000775732 -0.000150838 0)
(-0.000555336 -0.000160896 0)
(-0.000323171 -0.000167174 0)
(-8.44402e-05 -0.000170517 0)
(0.000156333 -0.000169756 0)
(0.000393729 -0.000166002 0)
(0.00062318 -0.000158264 0)
(0.000839676 -0.00014783 0)
(0.0010392 -0.000134017 0)
(0.00121782 -0.000118241 0)
(0.00137275 -0.000100217 0)
(0.00150179 -8.13835e-05 0)
(0.00160389 -6.17875e-05 0)
(0.00167888 -4.26991e-05 0)
(0.00172759 -2.429e-05 0)
(0.00175161 -7.46484e-06 0)
(0.00175316 7.69128e-06 0)
(0.00173488 2.07237e-05 0)
(0.00169961 3.1722e-05 0)
(0.00165022 4.06145e-05 0)
(0.00158943 4.76423e-05 0)
(0.00151974 5.29659e-05 0)
(0.00144329 5.68807e-05 0)
(0.00136192 5.96228e-05 0)
(0.00127711 6.14604e-05 0)
(0.00119001 6.26099e-05 0)
(0.00110151 6.3267e-05 0)
(0.00101228 6.35763e-05 0)
(0.000922785 6.36427e-05 0)
(0.000833404 6.3524e-05 0)
(0.000744447 6.32314e-05 0)
(0.000656231 6.27249e-05 0)
(0.000569148 6.19102e-05 0)
(0.000483728 6.06355e-05 0)
(0.000400713 5.86926e-05 0)
(0.000321113 5.58225e-05 0)
(0.000246255 5.17303e-05 0)
(0.000177793 4.61171e-05 0)
(0.000117667 3.87371e-05 0)
(6.79754e-05 2.95021e-05 0)
(3.07049e-05 1.86589e-05 0)
(7.20681e-06 7.11191e-06 0)
(-2.7726e-06 -2.88207e-06 0)
(-1.96184e-06 -6.1106e-06 0)
(8.50945e-07 -6.39526e-06 0)
(-7.11372e-06 6.55236e-06 0)
(-3.23714e-05 3.19213e-05 0)
(-7.73566e-05 6.04875e-05 0)
(-0.000141815 8.76653e-05 0)
(-0.000224007 0.000111329 0)
(-0.000321392 0.00013073 0)
(-0.000431202 0.00014591 0)
(-0.000550802 0.000157333 0)
(-0.000677879 0.000165642 0)
(-0.000810528 0.000171509 0)
(-0.000947243 0.000175546 0)
(-0.00108688 0.000178252 0)
(-0.00122856 0.000179991 0)
(-0.00137161 0.000180982 0)
(-0.00151541 0.000181304 0)
(-0.00165937 0.000180892 0)
(-0.00180274 0.000179561 0)
(-0.00194463 0.000176985 0)
(-0.00208379 0.000172744 0)
(-0.00221865 0.000166282 0)
(-0.00234714 0.000157 0)
(-0.00246677 0.000144178 0)
(-0.0025744 0.000127178 0)
(-0.0026665 0.000105278 0)
(-0.00273892 7.80649e-05 0)
(-0.00278742 4.5079e-05 0)
(-0.00280726 6.50518e-06 0)
(-0.00279428 -3.75779e-05 0)
(-0.00274415 -8.60608e-05 0)
(-0.00265401 -0.000138227 0)
(-0.00252119 -0.000191975 0)
(-0.00234535 -0.000246209 0)
(-0.00212649 -0.000298137 0)
(-0.00186746 -0.000346847 0)
(-0.00157119 -0.000389379 0)
(-0.00124354 -0.000425555 0)
(-0.000889819 -0.000452657 0)
(-0.000517937 -0.000471446 0)
(-0.000134691 -0.000479601 0)
(0.0002511 -0.000478697 0)
(0.000632105 -0.000466885 0)
(0.00099967 -0.000446361 0)
(0.00134687 -0.00041594 0)
(0.0016663 -0.000378348 0)
(0.00195249 -0.000333281 0)
(0.0022004 -0.000283851 0)
(0.00240704 -0.000230601 0)
(0.00257051 -0.000176635 0)
(0.00269081 -0.000122911 0)
(0.00276918 -7.19672e-05 0)
(0.00280825 -2.45894e-05 0)
(0.00281155 1.76737e-05 0)
(0.00278327 5.45862e-05 0)
(0.00272792 8.56287e-05 0)
(0.00265 0.000111131 0)
(0.00255385 0.000131333 0)
(0.00244336 0.00014691 0)
(0.00232199 0.00015846 0)
(0.00219265 0.000166721 0)
(0.0020577 0.000172334 0)
(0.00191905 0.000175919 0)
(0.00177815 0.000177981 0)
(0.00163613 0.000178929 0)
(0.00149381 0.00017905 0)
(0.00135186 0.000178515 0)
(0.00121083 0.000177373 0)
(0.00107128 0.000175538 0)
(0.000933835 0.000172793 0)
(0.000799331 0.000168777 0)
(0.000668861 0.000163002 0)
(0.000543872 0.000154867 0)
(0.000426209 0.000143711 0)
(0.000318116 0.000128896 0)
(0.000222162 0.000109953 0)
(0.000141053 8.6817e-05 0)
(7.72819e-05 6.01888e-05 0)
(3.26043e-05 3.21081e-05 0)
(7.34358e-06 7.01472e-06 0)
(-7.93046e-07 -6.05807e-06 0)
(-4.90709e-07 -6.00123e-07 0)
(-1.92291e-05 3.02792e-05 0)
(-6.18068e-05 7.70044e-05 0)
(-0.000129378 0.000127604 0)
(-0.000220524 0.00017559 0)
(-0.000332967 0.000217697 0)
(-0.000463777 0.000252663 0)
(-0.000609804 0.000280469 0)
(-0.000768034 0.000301809 0)
(-0.000935804 0.000317704 0)
(-0.00111089 0.000329257 0)
(-0.0012915 0.000337486 0)
(-0.00147624 0.000343235 0)
(-0.00166405 0.000347113 0)
(-0.00185403 0.000349485 0)
(-0.0020454 0.000350458 0)
(-0.00223732 0.000349899 0)
(-0.00242882 0.000347424 0)
(-0.00261863 0.000342439 0)
(-0.00280514 0.000334102 0)
(-0.00298618 0.000321423 0)
(-0.0031591 0.000303181 0)
(-0.00332041 0.000278147 0)
(-0.00346611 0.000244929 0)
(-0.00359124 0.000202418 0)
(-0.00369053 0.000149465 0)
(-0.00375775 8.56903e-05 0)
(-0.00378706 1.07508e-05 0)
(-0.00377194 -7.43098e-05 0)
(-0.00370733 -0.000168582 0)
(-0.00358799 -0.000269177 0)
(-0.00341145 -0.000374011 0)
(-0.00317545 -0.000478569 0)
(-0.00288162 -0.000580383 0)
(-0.00253166 -0.000674178 0)
(-0.00213173 -0.000758245 0)
(-0.00168734 -0.00082754 0)
(-0.00120831 -0.000881918 0)
(-0.000702913 -0.000917122 0)
(-0.000183092 -0.000934674 0)
(0.000341468 -0.000931255 0)
(0.000858289 -0.000909769 0)
(0.00135757 -0.000868025 0)
(0.00182785 -0.000810103 0)
(0.00226061 -0.000735309 0)
(0.00264699 -0.000648753 0)
(0.00298128 -0.000551394 0)
(0.00325863 -0.000448875 0)
(0.00347728 -0.000343274 0)
(0.00363697 -0.000239787 0)
(0.00373991 -0.000140533 0)
(0.00378969 -4.92279e-05 0)
(0.0037914 3.29273e-05 0)
(0.0037508 0.000104168 0)
(0.00367412 0.000164524 0)
(0.0035675 0.000213913 0)
(0.00343679 0.000253309 0)
(0.00328727 0.000283641 0)
(0.00312353 0.000306281 0)
(0.00294948 0.000322472 0)
(0.00276827 0.000333519 0)
(0.00258243 0.000340534 0)
(0.00239392 0.000344503 0)
(0.00220424 0.000346188 0)
(0.00201452 0.000346153 0)
(0.00182564 0.000344733 0)
(0.00163837 0.000342042 0)
(0.00145343 0.000337956 0)
(0.00127164 0.000332112 0)
(0.00109403 0.000323905 0)
(0.000921911 0.000312507 0)
(0.000757006 0.000296919 0)
(0.000601462 0.000276053 0)
(0.000457861 0.000248896 0)
(0.000329135 0.000214744 0)
(0.000218357 0.000173575 0)
(0.000128405 0.000126572 0)
(6.15508e-05 7.68655e-05 0)
(1.92653e-05 3.07232e-05 0)
(5.26926e-07 -1.59348e-07 0)
(-1.68259e-06 1.15092e-05 0)
(-3.08827e-05 6.86051e-05 0)
(-9.03606e-05 0.000142278 0)
(-0.000179668 0.000219059 0)
(-0.00029592 0.000291196 0)
(-0.00043614 0.000354591 0)
(-0.000596995 0.000407606 0)
(-0.00077504 0.000450225 0)
(-0.00096703 0.000483398 0)
(-0.00117011 0.000508555 0)
(-0.00138189 0.000527255 0)
(-0.00160046 0.000540953 0)
(-0.00182432 0.000550851 0)
(-0.00205229 0.000557826 0)
(-0.0022834 0.000562382 0)
(-0.00251674 0.000564651 0)
(-0.0027514 0.000564382 0)
(-0.00298619 0.000560969 0)
(-0.0032197 0.000553426 0)
(-0.00344995 0.000540466 0)
(-0.00367445 0.000520426 0)
(-0.00388985 0.000491468 0)
(-0.00409216 0.000451444 0)
(-0.00427617 0.000398336 0)
(-0.00443612 0.000329988 0)
(-0.00456486 0.000244966 0)
(-0.00465521 0.000141929 0)
(-0.00469872 2.11301e-05 0)
(-0.00468805 -0.000117022 0)
(-0.004615 -0.000269566 0)
(-0.00447428 -0.000433892 0)
(-0.00426024 -0.000604068 0)
(-0.00397199 -0.000775925 0)
(-0.00360848 -0.000941483 0)
(-0.00317475 -0.0010967 0)
(-0.00267503 -0.00123324 0)
(-0.00212 -0.00134898 0)
(-0.00151832 -0.00143659 0)
(-0.000884605 -0.00149667 0)
(-0.000230253 -0.00152345 0)
(0.000428346 -0.00152004 0)
(0.00107878 -0.00148243 0)
(0.00170496 -0.00141582 0)
(0.00229519 -0.00131838 0)
(0.00283579 -0.00119728 0)
(0.00331774 -0.00105333 0)
(0.00373194 -0.000895181 0)
(0.0040739 -0.000725974 0)
(0.0043405 -0.000554558 0)
(0.00453265 -0.0003849 0)
(0.00465301 -0.000224217 0)
(0.00470699 -7.54871e-05 0)
(0.00470117 5.70271e-05 0)
(0.00464336 0.000172378 0)
(0.00454153 0.000269349 0)
(0.00440364 0.000348887 0)
(0.00423705 0.00041193 0)
(0.00404838 0.000460509 0)
(0.00384332 0.000496539 0)
(0.00362661 0.000522245 0)
(0.00340208 0.000539589 0)
(0.00317276 0.000550431 0)
(0.00294097 0.000556294 0)
(0.00270848 0.000558421 0)
(0.0024766 0.000557701 0)
(0.00224638 0.000554692 0)
(0.00201866 0.000549598 0)
(0.00179426 0.000542271 0)
(0.00157409 0.000532198 0)
(0.00135926 0.000518514 0)
(0.00115119 0.000500034 0)
(0.000951722 0.00047533 0)
(0.000763147 0.000442865 0)
(0.000588228 0.00040122 0)
(0.000430118 0.000349428 0)
(0.000292173 0.000287449 0)
(0.000177661 0.000216811 0)
(8.95322e-05 0.000141429 0)
(3.06907e-05 6.87738e-05 0)
(1.69784e-06 1.19516e-05 0)
(-2.6635e-06 2.93216e-05 0)
(-4.10851e-05 0.000120435 0)
(-0.000115803 0.000226321 0)
(-0.000224786 0.000332958 0)
(-0.00036363 0.000431949 0)
(-0.000528564 0.000518751 0)
(-0.000715804 0.000591575 0)
(-0.000921629 0.000650536 0)
(-0.00114263 0.000696922 0)
(-0.00137586 0.000732612 0)
(-0.00161888 0.000759654 0)
(-0.00186979 0.000779956 0)
(-0.00212707 0.000795101 0)
(-0.00238958 0.000806228 0)
(-0.00265637 0.000813989 0)
(-0.00292656 0.000818512 0)
(-0.00319919 0.000819424 0)
(-0.00347313 0.000815818 0)
(-0.0037468 0.000806312 0)
(-0.00401817 0.000788983 0)
(-0.00428438 0.000761517 0)
(-0.00454188 0.000721086 0)
(-0.00478578 0.000664729 0)
(-0.00501047 0.000589131 0)
(-0.00520853 0.000491453 0)
(-0.00537211 0.000368836 0)
(-0.00549138 0.000219963 0)
(-0.00555707 4.38475e-05 0)
(-0.00555814 -0.000157569 0)
(-0.00548608 -0.000382137 0)
(-0.00533116 -0.00062346 0)
(-0.00508879 -0.000876175 0)
(-0.00475363 -0.00112982 0)
(-0.00432794 -0.00137759 0)
(-0.00381286 -0.0016071 0)
(-0.00321851 -0.00181304 0)
(-0.00255244 -0.00198369 0)
(-0.00183119 -0.00211739 0)
(-0.00106689 -0.0022046 0)
(-0.000279795 -0.0022477 0)
(0.000515605 -0.00223968 0)
(0.00129814 -0.00218642 0)
(0.00205301 -0.00208382 0)
(0.0027608 -0.00194087 0)
(0.00340873 -0.00175723 0)
(0.00398195 -0.0015447 0)
(0.0044724 -0.00130688 0)
(0.00487234 -0.00105709 0)
(0.00518032 -0.000801349 0)
(0.00539659 -0.000551851 0)
(0.00552621 -0.000314211 0)
(0.0055758 -9.69049e-05 0)
(0.0055546 9.7148e-05 0)
(0.00547235 0.000264255 0)
(0.00533943 0.000404706 0)
(0.00516558 0.000518755 0)
(0.00495989 0.000608924 0)
(0.00473026 0.00067767 0)
(0.00448342 0.000728337 0)
(0.00422485 0.000763946 0)
(0.0039589 0.000787568 0)
(0.00368894 0.000801798 0)
(0.00341751 0.000808903 0)
(0.00314649 0.000810637 0)
(0.00287727 0.000808302 0)
(0.00261087 0.000802702 0)
(0.00234816 0.000794163 0)
(0.00208991 0.000782517 0)
(0.00183702 0.000767108 0)
(0.00159057 0.000746803 0)
(0.00135197 0.000720046 0)
(0.00112305 0.000684962 0)
(0.000906169 0.000639535 0)
(0.000704154 0.000581897 0)
(0.000520313 0.000510742 0)
(0.000358267 0.000425886 0)
(0.00022172 0.00032898 0)
(0.00011439 0.000224345 0)
(4.06643e-05 0.000120038 0)
(2.66126e-06 2.96449e-05 0)
(-3.42986e-06 5.18923e-05 0)
(-4.95221e-05 0.00018392 0)
(-0.000137297 0.000326837 0)
(-0.000263337 0.000466658 0)
(-0.000421823 0.000594826 0)
(-0.000608163 0.000706715 0)
(-0.000818088 0.000800647 0)
(-0.00104759 0.000877039 0)
(-0.00129313 0.000937627 0)
(-0.00155173 0.000984819 0)
(-0.00182101 0.00102119 0)
(-0.00209912 0.00104915 0)
(-0.0023847 0.00107065 0)
(-0.00267671 0.00108713 0)
(-0.00297437 0.00109937 0)
(-0.00327691 0.00110751 0)
(-0.00358355 0.001111 0)
(-0.00389323 0.00110865 0)
(-0.00420452 0.00109855 0)
(-0.0045153 0.00107818 0)
(-0.00482281 0.00104426 0)
(-0.00512299 0.000993075 0)
(-0.00541093 0.000920223 0)
(-0.0056797 0.000821373 0)
(-0.00592158 0.000691859 0)
(-0.00612623 0.000528191 0)
(-0.00628323 0.000327125 0)
(-0.00637931 8.83518e-05 0)
(-0.00640299 -0.000187795 0)
(-0.00634025 -0.000496018 0)
(-0.00618206 -0.000831039 0)
(-0.00591747 -0.00118102 0)
(-0.00554424 -0.00153674 0)
(-0.00505834 -0.00188163 0)
(-0.00446738 -0.00220619 0)
(-0.0037758 -0.00249301 0)
(-0.00300077 -0.00273643 0)
(-0.00215379 -0.00292146 0)
(-0.00125856 -0.00304825 0)
(-0.000330814 -0.0031053 0)
(0.000602879 -0.0030982 0)
(0.00152512 -0.00301923 0)
(0.00240978 -0.00287865 0)
(0.00324033 -0.00267352 0)
(0.00399462 -0.00241849 0)
(0.0046602 -0.00211641 0)
(0.0052226 -0.00178544 0)
(0.00567674 -0.00143326 0)
(0.00601834 -0.00107852 0)
(0.006251 -0.000730159 0)
(0.00638 -0.000403021 0)
(0.0064157 -0.000103262 0)
(0.00636925 0.000160902 0)
(0.00625379 0.000388056 0)
(0.00608186 0.000576493 0)
(0.00586567 0.000728804 0)
(0.00561595 0.000847537 0)
(0.00534204 0.000937261 0)
(0.00505158 0.00100218 0)
(0.0047507 0.00104697 0)
(0.00444413 0.00107565 0)
(0.00413541 0.00109194 0)
(0.00382711 0.00109883 0)
(0.00352108 0.00109872 0)
(0.00321858 0.00109335 0)
(0.00292055 0.0010838 0)
(0.00262768 0.00107054 0)
(0.00234063 0.00105338 0)
(0.00206014 0.00103151 0)
(0.00178716 0.00100354 0)
(0.001523 0.000967518 0)
(0.0012694 0.000921093 0)
(0.00102865 0.000861724 0)
(0.000803617 0.000787026 0)
(0.000597731 0.000695243 0)
(0.000414882 0.000585878 0)
(0.000259243 0.000460452 0)
(0.000135325 0.000323332 0)
(4.88882e-05 0.000182687 0)
(3.41338e-06 5.19892e-05 0)
(-4.00092e-06 7.82663e-05 0)
(-5.62467e-05 0.00025706 0)
(-0.00015487 0.000441279 0)
(-0.000295319 0.000617271 0)
(-0.000470524 0.000776647 0)
(-0.000675092 0.000915003 0)
(-0.000904245 0.00103102 0)
(-0.00115369 0.00112561 0)
(-0.00141976 0.00120111 0)
(-0.0016995 0.00126055 0)
(-0.00199065 0.00130712 0)
(-0.00229153 0.00134373 0)
(-0.002601 0.00137278 0)
(-0.00291827 0.00139599 0)
(-0.00324277 0.00141429 0)
(-0.00357407 0.00142782 0)
(-0.00391159 0.00143589 0)
(-0.0042546 0.00143694 0)
(-0.00460183 0.00142859 0)
(-0.0049515 0.00140748 0)
(-0.00530069 0.00136949 0)
(-0.00564567 0.00130946 0)
(-0.00598069 0.00122179 0)
(-0.00629894 0.00110008 0)
(-0.00659062 0.000938424 0)
(-0.00684522 0.000730784 0)
(-0.00704835 0.000473551 0)
(-0.00718648 0.00016384 0)
(-0.00724191 -0.00019607 0)
(-0.0072011 -0.000602941 0)
(-0.00704685 -0.00104567 0)
(-0.00677095 -0.00151406 0)
(-0.00636212 -0.0019884 0)
(-0.00582306 -0.00245474 0)
(-0.00515252 -0.00288914 0)
(-0.00436629 -0.00328013 0)
(-0.00347319 -0.00360522 0)
(-0.00249947 -0.00386023 0)
(-0.00146081 -0.0040272 0)
(-0.000389219 -0.00410992 0)
(0.00069617 -0.00409537 0)
(0.00176187 -0.00399415 0)
(0.00278805 -0.0037989 0)
(0.0037438 -0.00352647 0)
(0.00461196 -0.00317697 0)
(0.00536896 -0.00277321 0)
(0.00600472 -0.0023232 0)
(0.00650754 -0.00185305 0)
(0.00687791 -0.00137525 0)
(0.00711743 -0.000913442 0)
(0.00723666 -0.000478459 0)
(0.00724716 -8.58896e-05 0)
(0.00716508 0.000259545 0)
(0.00700592 0.000552013 0)
(0.00678599 0.000793291 0)
(0.00651959 0.000985029 0)
(0.00621972 0.00113295 0)
(0.00589692 0.00124237 0)
(0.00555987 0.00132 0)
(0.00521514 0.00137168 0)
(0.00486771 0.00140313 0)
(0.00452108 0.00141904 0)
(0.00417773 0.00142343 0)
(0.00383926 0.00141933 0)
(0.0035067 0.00140896 0)
(0.00318072 0.00139371 0)
(0.00286174 0.00137416 0)
(0.00255017 0.00135012 0)
(0.00224648 0.00132063 0)
(0.00195142 0.00128399 0)
(0.00166605 0.00123786 0)
(0.00139197 0.00117935 0)
(0.00113135 0.00110534 0)
(0.000887033 0.00101283 0)
(0.000662546 0.000899468 0)
(0.000462062 0.000764262 0)
(0.000290244 0.000608352 0)
(0.000152374 0.000435858 0)
(5.54218e-05 0.000254732 0)
(3.97185e-06 7.80395e-05 0)
(-4.41025e-06 0.0001076 0)
(-6.1527e-05 0.000338028 0)
(-0.000169113 0.000567291 0)
(-0.000321706 0.000782129 0)
(-0.000511136 0.000974504 0)
(-0.000731222 0.00114047 0)
(-0.000976669 0.0012793 0)
(-0.00124288 0.00139263 0)
(-0.00152612 0.00148354 0)
(-0.00182347 0.00155583 0)
(-0.00213287 0.00161337 0)
(-0.0024529 0.00165966 0)
(-0.00278272 0.00169756 0)
(-0.00312187 0.0017291 0)
(-0.00347019 0.00175538 0)
(-0.00382755 0.00177656 0)
(-0.00419386 0.00179178 0)
(-0.00456866 0.00179918 0)
(-0.00495123 0.00179574 0)
(-0.00533991 0.00177741 0)
(-0.0057324 0.00173879 0)
(-0.00612455 0.00167351 0)
(-0.00651117 0.00157387 0)
(-0.00688395 0.00143183 0)
(-0.00723345 0.00123852 0)
(-0.00754562 0.000986526 0)
(-0.00780627 0.000668709 0)
(-0.00799549 0.000282545 0)
(-0.00809614 -0.000173009 0)
(-0.0080852 -0.000690469 0)
(-0.00794786 -0.00126129 0)
(-0.0076641 -0.00186522 0)
(-0.00722926 -0.00248508 0)
(-0.00663338 -0.00309084 0)
(-0.0058879 -0.00366377 0)
(-0.00499616 -0.00417207 0)
(-0.0039852 -0.00460433 0)
(-0.0028688 -0.00493369 0)
(-0.00168398 -0.0051598 0)
(-0.000450277 -0.00526233 0)
(0.000791091 -0.00525078 0)
(0.00201812 -0.00511142 0)
(0.00319008 -0.00486217 0)
(0.00428556 -0.00449789 0)
(0.00526964 -0.00404505 0)
(0.00612639 -0.00350955 0)
(0.00683312 -0.00292503 0)
(0.00738514 -0.0023066 0)
(0.00777667 -0.00168893 0)
(0.00801669 -0.00108881 0)
(0.00811493 -0.000532893 0)
(0.00809016 -3.14183e-05 0)
(0.00796054 0.000402288 0)
(0.00774736 0.000767527 0)
(0.00746938 0.00106313 0)
(0.00714457 0.00129551 0)
(0.00678754 0.0014706 0)
(0.00641064 0.00159755 0)
(0.00602318 0.00168438 0)
(0.00563225 0.00173956 0)
(0.0052428 0.00177011 0)
(0.00485824 0.00178229 0)
(0.00448068 0.00178099 0)
(0.00411141 0.00177005 0)
(0.00375103 0.00175215 0)
(0.00339983 0.001729 0)
(0.00305786 0.00170129 0)
(0.00272514 0.00166881 0)
(0.00240182 0.00163042 0)
(0.0020883 0.00158412 0)
(0.00178535 0.00152709 0)
(0.00149432 0.00145591 0)
(0.00121719 0.00136677 0)
(0.000956745 0.00125592 0)
(0.00071659 0.00112028 0)
(0.000501177 0.000958133 0)
(0.000315675 0.000770017 0)
(0.000166117 0.000559571 0)
(6.05278e-05 0.000334355 0)
(4.36791e-06 0.000106959 0)
(-4.6984e-06 0.000139229 0)
(-6.5773e-05 0.000425396 0)
(-0.000181025 0.000703034 0)
(-0.000344217 0.000959145 0)
(-0.000546135 0.0011861 0)
(-0.00077979 0.0013806 0)
(-0.00103935 0.00154276 0)
(-0.00131992 0.00167514 0)
(-0.00161772 0.00178181 0)
(-0.00192996 0.00186745 0)
(-0.00225484 0.00193671 0)
(-0.00259129 0.00199377 0)
(-0.00293886 0.00204198 0)
(-0.00329754 0.0020837 0)
(-0.00366758 0.00212024 0)
(-0.00404937 0.00215177 0)
(-0.00444321 0.00217732 0)
(-0.00484929 0.00219465 0)
(-0.00526716 0.00220024 0)
(-0.00569596 0.00218905 0)
(-0.00613333 0.00215461 0)
(-0.00657601 0.00208867 0)
(-0.00701787 0.00198176 0)
(-0.00745149 0.00182279 0)
(-0.00786464 0.00160074 0)
(-0.00824411 0.00130399 0)
(-0.00856982 0.000924123 0)
(-0.00882289 0.000453942 0)
(-0.00897621 -0.000105675 0)
(-0.00900912 -0.000751286 0)
(-0.00889279 -0.00146617 0)
(-0.00861342 -0.00223316 0)
(-0.00814966 -0.00301873 0)
(-0.00750484 -0.0037971 0)
(-0.00667306 -0.00452618 0)
(-0.00567909 -0.00518422 0)
(-0.00453225 -0.00573249 0)
(-0.00327343 -0.00616306 0)
(-0.00192087 -0.00644575 0)
(-0.000523424 -0.0065868 0)
(0.000896389 -0.00656409 0)
(0.00228757 -0.0063952 0)
(0.00362596 -0.00606705 0)
(0.00486379 -0.00560815 0)
(0.00597941 -0.00501867 0)
(0.00693583 -0.00433849 0)
(0.00772121 -0.00358264 0)
(0.00831746 -0.00279781 0)
(0.00872909 -0.00200711 0)
(0.00895989 -0.00125232 0)
(0.00902978 -0.000551965 0)
(0.00895793 6.82708e-05 0)
(0.0087711 0.000602479 0)
(0.00849295 0.00104323 0)
(0.00814809 0.00139636 0)
(0.00775649 0.00166712 0)
(0.00733585 0.00186726 0)
(0.00689945 0.00200713 0)
(0.00645771 0.00209886 0)
(0.00601779 0.00215252 0)
(0.00558469 0.00217762 0)
(0.0051614 0.00218163 0)
(0.00474969 0.00217071 0)
(0.0043503 0.00214939 0)
(0.00396338 0.00212091 0)
(0.00358869 0.00208722 0)
(0.00322583 0.00204914 0)
(0.00287438 0.00200642 0)
(0.00253404 0.00195771 0)
(0.00220479 0.00190068 0)
(0.00188705 0.00183203 0)
(0.00158181 0.00174768 0)
(0.00129079 0.00164307 0)
(0.00101663 0.00151358 0)
(0.000763005 0.00135516 0)
(0.000534631 0.00116518 0)
(0.000337201 0.000943342 0)
(0.000177519 0.000692621 0)
(6.46013e-05 0.000420118 0)
(4.64418e-06 0.000138084 0)
(-4.91042e-06 0.000172718 0)
(-6.95224e-05 0.000518312 0)
(-0.00019198 0.000847466 0)
(-0.000365241 0.00114712 0)
(-0.000578951 0.00141004 0)
(-0.000825207 0.00163375 0)
(-0.0010976 0.00181949 0)
(-0.00139098 0.00197104 0)
(-0.00170157 0.00209363 0)
(-0.00202682 0.00219303 0)
(-0.0023653 0.0022748 0)
(-0.00271637 0.00234382 0)
(-0.00308008 0.00240398 0)
(-0.00345689 0.00245801 0)
(-0.00384759 0.00250742 0)
(-0.00425304 0.00255244 0)
(-0.00467415 0.00259196 0)
(-0.0051115 0.00262344 0)
(-0.00556543 0.00264273 0)
(-0.00603525 0.00264396 0)
(-0.00651963 0.00261919 0)
(-0.00701484 0.00255852 0)
(-0.00751603 0.00244971 0)
(-0.00801378 0.00227916 0)
(-0.00849736 0.00203146 0)
(-0.00894867 0.00169234 0)
(-0.00934943 0.00124768 0)
(-0.00967134 0.000689604 0)
(-0.00989014 1.31706e-05 0)
(-0.00997011 -0.000773256 0)
(-0.00988843 -0.00165749 0)
(-0.00961109 -0.00260791 0)
(-0.00912982 -0.00359474 0)
(-0.0084251 -0.00456723 0)
(-0.00751472 -0.00549109 0)
(-0.00639967 -0.0063127 0)
(-0.00512242 -0.00701169 0)
(-0.00369791 -0.00754475 0)
(-0.00218211 -0.00791147 0)
(-0.000596036 -0.00807929 0)
(0.000999089 -0.00806356 0)
(0.00257889 -0.00784112 0)
(0.0040823 -0.00744047 0)
(0.00548391 -0.00685202 0)
(0.00673003 -0.00611925 0)
(0.00780113 -0.00525221 0)
(0.00866167 -0.00430839 0)
(0.00930817 -0.00331504 0)
(0.00973218 -0.00233234 0)
(0.00995152 -0.00138965 0)
(0.0099826 -0.000531362 0)
(0.00985702 0.000227305 0)
(0.00960272 0.000867101 0)
(0.00925236 0.00139064 0)
(0.0088325 0.0017996 0)
(0.00836828 0.00210791 0)
(0.00787848 0.00232779 0)
(0.00737859 0.00247597 0)
(0.00687918 0.00256634 0)
(0.00638792 0.00261297 0)
(0.00590937 0.00262689 0)
(0.0054463 0.0026177 0)
(0.00499985 0.0025925 0)
(0.00457028 0.00255676 0)
(0.00415716 0.00251413 0)
(0.00375974 0.00246687 0)
(0.0033771 0.00241589 0)
(0.00300831 0.00236086 0)
(0.0026526 0.00230023 0)
(0.00230946 0.0022313 0)
(0.00197882 0.00215027 0)
(0.00166125 0.00205235 0)
(0.00135813 0.0019321 0)
(0.00107185 0.00178385 0)
(0.000806065 0.00160241 0)
(0.00056574 0.00138395 0)
(0.000357129 0.00112707 0)
(0.000187902 0.000833912 0)
(6.81561e-05 0.00051113 0)
(4.84767e-06 0.000170964 0)
(-5.09949e-06 0.000207929 0)
(-7.34921e-05 0.000616706 0)
(-0.000203815 0.00100062 0)
(-0.000387934 0.00134603 0)
(-0.000614014 0.00164605 0)
(-0.000873029 0.00189933 0)
(-0.00115794 0.00210855 0)
(-0.00146343 0.00227907 0)
(-0.00178586 0.00241759 0)
(-0.00212308 0.00253112 0)
(-0.00247411 0.00262622 0)
(-0.00283891 0.00270853 0)
(-0.00321805 0.0027825 0)
(-0.00361258 0.00285123 0)
(-0.00402375 0.00291643 0)
(-0.004453 0.00297837 0)
(-0.00490162 0.00303585 0)
(-0.0053709 0.003086 0)
(-0.00586139 0.00312412 0)
(-0.00637337 0.00314333 0)
(-0.00690528 0.00313437 0)
(-0.0074548 0.00308514 0)
(-0.00801574 0.00298095 0)
(-0.00858064 0.00280416 0)
(-0.00913502 0.00253596 0)
(-0.00966344 0.00215601 0)
(-0.0101396 0.00164722 0)
(-0.010539 0.000994413 0)
(-0.0108229 0.000193587 0)
(-0.0109621 -0.000753576 0)
(-0.0109116 -0.00182476 0)
(-0.01065 -0.00299289 0)
(-0.0101408 -0.00420451 0)
(-0.00938878 -0.00541393 0)
(-0.00838102 -0.00655143 0)
(-0.00715694 -0.00757832 0)
(-0.00572552 -0.00843353 0)
(-0.0041488 -0.00910468 0)
(-0.00244444 -0.00954634 0)
(-0.000683448 -0.00976892 0)
(0.00111248 -0.00973769 0)
(0.00286953 -0.00947944 0)
(0.0045622 -0.00897145 0)
(0.00611963 -0.00825743 0)
(0.00751654 -0.00733613 0)
(0.00869618 -0.00627186 0)
(0.00964495 -0.00509014 0)
(0.0103344 -0.0038695 0)
(0.0107752 -0.00265053 0)
(0.0109741 -0.00150317 0)
(0.0109649 -0.000457212 0)
(0.0107773 0.000448073 0)
(0.0104524 0.00120734 0)
(0.0100239 0.00181339 0)
(0.00952649 0.0022805 0)
(0.00898609 0.00262106 0)
(0.00842537 0.00285694 0)
(0.00785991 0.00300638 0)
(0.00730156 0.00308957 0)
(0.00675755 0.0031224 0)
(0.00623255 0.00311936 0)
(0.00572867 0.00309129 0)
(0.00524672 0.00304689 0)
(0.00478634 0.00299223 0)
(0.00434666 0.00293159 0)
(0.00392639 0.0028674 0)
(0.00352412 0.00280067 0)
(0.00313844 0.002731 0)
(0.00276805 0.00265663 0)
(0.00241192 0.0025745 0)
(0.00206945 0.00248026 0)
(0.00174064 0.00236841 0)
(0.00142639 0.00223251 0)
(0.00112873 0.00206568 0)
(0.000851149 0.00186132 0)
(0.000598791 0.00161406 0)
(0.000378512 0.00132106 0)
(0.000199041 0.000983383 0)
(7.18763e-05 0.000607253 0)
(5.02382e-06 0.000205419 0)
(-5.34679e-06 0.000245137 0)
(-7.87237e-05 0.000721583 0)
(-0.000219096 0.00116393 0)
(-0.000416512 0.00155728 0)
(-0.000656987 0.00189517 0)
(-0.000930054 0.0021778 0)
(-0.00122807 0.00240991 0)
(-0.00154569 0.00259886 0)
(-0.00187969 0.00275311 0)
(-0.00222848 0.00288108 0)
(-0.00259178 0.00299043 0)
(-0.0029702 0.00308756 0)
(-0.00336494 0.00317744 0)
(-0.00377755 0.00326351 0)
(-0.00420982 0.00334763 0)
(-0.00466351 0.00343011 0)
(-0.00514047 0.00350962 0)
(-0.00564209 0.00358299 0)
(-0.00616968 0.00364493 0)
(-0.00672329 0.00368763 0)
(-0.00730258 0.00370029 0)
(-0.00790425 0.00366877 0)
(-0.00852409 0.00357514 0)
(-0.00915193 0.00339829 0)
(-0.00977647 0.00311377 0)
(-0.010376 0.00269687 0)
(-0.0109291 0.00212261 0)
(-0.0113989 0.00137304 0)
(-0.0117544 0.000435433 0)
(-0.0119448 -0.00068434 0)
(-0.011938 -0.00197082 0)
(-0.011681 -0.00337849 0)
(-0.0111606 -0.00485781 0)
(-0.0103433 -0.00632698 0)
(-0.00925739 -0.00772514 0)
(-0.00790079 -0.00896756 0)
(-0.00633915 -0.0100212 0)
(-0.0045857 -0.0108239 0)
(-0.00272054 -0.0113772 0)
(-0.000760082 -0.0116335 0)
(0.00120984 -0.0116163 0)
(0.0031682 -0.0112883 0)
(0.00502811 -0.0106907 0)
(0.00676329 -0.00980509 0)
(0.00829486 -0.00869682 0)
(0.00960042 -0.00738056 0)
(0.0106256 -0.00594789 0)
(0.0113686 -0.00444533 0)
(0.0118164 -0.00297256 0)
(0.0119994 -0.00157898 0)
(0.0119433 -0.000334504 0)
(0.0116966 0.000740296 0)
(0.0112989 0.00162056 0)
(0.0107959 0.00231673 0)
(0.0102219 0.0028373 0)
(0.00960903 0.00320887 0)
(0.00897939 0.00345365 0)
(0.00835097 0.00359946 0)
(0.00773501 0.00366832 0)
(0.0071394 0.00368165 0)
(0.00656815 0.00365546 0)
(0.00602337 0.00360325 0)
(0.0055053 0.00353457 0)
(0.00501336 0.00345658 0)
(0.00454622 0.00337386 0)
(0.00410228 0.00328919 0)
(0.00367972 0.00320362 0)
(0.00327672 0.00311671 0)
(0.0028915 0.00302653 0)
(0.00252248 0.00292969 0)
(0.00216847 0.00282134 0)
(0.00182882 0.00269522 0)
(0.00150376 0.00254384 0)
(0.00119474 0.00235897 0)
(0.000904856 0.00213227 0)
(0.000639277 0.00185643 0)
(0.000405445 0.00152664 0)
(0.000213426 0.00114239 0)
(7.67659e-05 0.000709431 0)
(5.24034e-06 0.000241696 0)
(-5.82659e-06 0.000285275 0)
(-8.69243e-05 0.00083548 0)
(-0.000241661 0.00134071 0)
(-0.000456818 0.00178395 0)
(-0.000715169 0.00215971 0)
(-0.00100451 0.00247064 0)
(-0.00131676 0.00272431 0)
(-0.00164695 0.00293066 0)
(-0.0019926 0.00310025 0)
(-0.00235304 0.00324303 0)
(-0.00272887 0.00336773 0)
(-0.00312144 0.00348146 0)
(-0.00353256 0.00358961 0)
(-0.00396431 0.00369584 0)
(-0.00441875 0.00380212 0)
(-0.00489802 0.00390871 0)
(-0.00540392 0.00401411 0)
(-0.00593824 0.0041148 0)
(-0.00650191 0.00420492 0)
(-0.00709573 0.0042757 0)
(-0.00771838 0.00431486 0)