/*--------------------------------*- C++ -*----------------------------------*\
| =========                 |                                                 |
| \\      /  F ield         | OpenFOAM: The Open Source CFD Toolbox           |
|  \\    /   O peration     | Version:  2412                                  |
|   \\  /    A nd           | Website:  www.openfoam.com                      |
|    \\/     M anipulation  |                                                 |
\*---------------------------------------------------------------------------*/
FoamFile
{
    version     2.0;
    format      ascii;
    arch        "LSB;label=32;scalar=64";
    class       volVectorField;
    location    "1.8";
    object      U;
}
// * * * * * * * * * * * * * * * * * * * * * * * * * * * * * * * * * * * * * //

dimensions      [0 1 -1 0 0 0 0];

internalField   nonuniform List<vector> 
6400
(
(0.00427067 -0.00428103 0)
(0.0129922 -0.00446313 0)
(0.0216716 -0.00424216 0)
(0.0299526 -0.0040531 0)
(0.037824 -0.00382584 0)
(0.0451942 -0.00355195 0)
(0.0519657 -0.00322525 0)
(0.058058 -0.0028695 0)
(0.0633959 -0.00247241 0)
(0.0679105 -0.00204882 0)
(0.0715538 -0.00160248 0)
(0.0742961 -0.00114023 0)
(0.07611 -0.000673276 0)
(0.0769832 -0.000199623 0)
(0.076916 0.000264993 0)
(0.0759223 0.000725717 0)
(0.074055 0.00115307 0)
(0.0713683 0.00154841 0)
(0.0679448 0.0018903 0)
(0.0638771 0.00219121 0)
(0.0592696 0.00244162 0)
(0.054221 0.00263222 0)
(0.0488493 0.00276668 0)
(0.0432736 0.00284691 0)
(0.0376068 0.00287138 0)
(0.0319597 0.00284137 0)
(0.0264458 0.00275812 0)
(0.0211741 0.00261654 0)
(0.0162432 0.00241506 0)
(0.011759 0.00215989 0)
(0.00780179 0.00187502 0)
(0.00440772 0.00159667 0)
(0.00149198 0.00133 0)
(-0.000900534 0.00104755 0)
(-0.0026229 0.00072952 0)
(-0.00367827 0.000372502 0)
(-0.00407311 -2.78655e-05 0)
(-0.00386988 -0.000417114 0)
(-0.0032576 -0.000712062 0)
(-0.00227929 -0.000880515 0)
(-0.00116135 -0.000905462 0)
(-0.000119358 -0.000783071 0)
(0.000668376 -0.000546744 0)
(0.00097032 -0.000193519 0)
(0.000740063 0.000233313 0)
(-0.000155697 0.0006121 0)
(-0.00176323 0.000984211 0)
(-0.00398322 0.00130806 0)
(-0.00677945 0.00156558 0)
(-0.0100519 0.00179179 0)
(-0.0137713 0.0020305 0)
(-0.0179784 0.00226902 0)
(-0.0226024 0.00246215 0)
(-0.0275494 0.00259442 0)
(-0.032705 0.00266534 0)
(-0.0379632 0.00267713 0)
(-0.0432154 0.00263755 0)
(-0.0483559 0.00254942 0)
(-0.0532826 0.00241251 0)
(-0.0578972 0.00222649 0)
(-0.0620998 0.00199211 0)
(-0.06578 0.00171078 0)
(-0.0688459 0.0013826 0)
(-0.0712341 0.00101451 0)
(-0.0728593 0.000620125 0)
(-0.0736617 0.000189155 0)
(-0.073605 -0.000245536 0)
(-0.0726786 -0.000682556 0)
(-0.0708741 -0.00112183 0)
(-0.0682037 -0.00155572 0)
(-0.0646911 -0.00196813 0)
(-0.0603593 -0.00236938 0)
(-0.055258 -0.00274331 0)
(-0.0494448 -0.00308138 0)
(-0.0429875 -0.00338521 0)
(-0.0359716 -0.00364698 0)
(-0.0284849 -0.00385725 0)
(-0.0206073 -0.00402822 0)
(-0.0123574 -0.00423329 0)
(-0.00406519 -0.00408294 0)
(0.0043215 -0.0128769 0)
(0.0131335 -0.0133913 0)
(0.021896 -0.0127435 0)
(0.0302626 -0.0121823 0)
(0.0382117 -0.0114993 0)
(0.045658 -0.010668 0)
(0.0524887 -0.00969676 0)
(0.0586321 -0.00860623 0)
(0.064017 -0.00740939 0)
(0.0685617 -0.0061288 0)
(0.0722204 -0.0047806 0)
(0.0749532 -0.00338525 0)
(0.0767437 -0.00197758 0)
(0.077577 -0.00056368 0)
(0.0774692 0.000824387 0)
(0.0764823 0.00216985 0)
(0.0746615 0.00343392 0)
(0.0720587 0.0045923 0)
(0.0687489 0.00561677 0)
(0.0648298 0.00650558 0)
(0.0603669 0.00723572 0)
(0.0554649 0.00779187 0)
(0.0502537 0.00817618 0)
(0.0448521 0.00838653 0)
(0.0393779 0.008425 0)
(0.0339533 0.00829496 0)
(0.0286868 0.00800119 0)
(0.0236749 0.00755363 0)
(0.0190066 0.00696595 0)
(0.0147352 0.00625715 0)
(0.0109396 0.00546317 0)
(0.00766761 0.00461758 0)
(0.00499296 0.00375823 0)
(0.00293565 0.00289162 0)
(0.00143897 0.0020145 0)
(0.000329888 0.00116962 0)
(-0.000422261 0.000391 0)
(-0.000857282 -0.000261666 0)
(-0.0011619 -0.000746727 0)
(-0.00135479 -0.00101671 0)
(-0.00154571 -0.00106136 0)
(-0.00180705 -0.000837347 0)
(-0.00212823 -0.000404334 0)
(-0.00262076 0.000209415 0)
(-0.0033896 0.000989751 0)
(-0.00449419 0.00181815 0)
(-0.00595203 0.00270838 0)
(-0.00783092 0.00358199 0)
(-0.0102368 0.00440174 0)
(-0.0132439 0.0051641 0)
(-0.0168067 0.00588093 0)
(-0.0207989 0.00653388 0)
(-0.025153 0.00706891 0)
(-0.0297939 0.00746718 0)
(-0.0346528 0.00771454 0)
(-0.0396408 0.00780286 0)
(-0.0446631 0.00773622 0)
(-0.0496122 0.00751222 0)
(-0.0543735 0.00712925 0)
(-0.0588378 0.00659099 0)
(-0.0628998 0.00590269 0)
(-0.0664539 0.00507415 0)
(-0.0694143 0.00411176 0)
(-0.0717183 0.00302739 0)
(-0.0733116 0.00185744 0)
(-0.0741248 0.000608271 0)
(-0.0741088 -0.000690677 0)
(-0.0732246 -0.00200779 0)
(-0.0714538 -0.00332758 0)
(-0.0687914 -0.00463519 0)
(-0.065272 -0.0058957 0)
(-0.0609236 -0.00709528 0)
(-0.0557821 -0.0082234 0)
(-0.0499216 -0.00924324 0)
(-0.043412 -0.0101614 0)
(-0.0363279 -0.0109472 0)
(-0.0287653 -0.0115872 0)
(-0.0208139 -0.0121097 0)
(-0.012486 -0.0127211 0)
(-0.00410807 -0.0122625 0)
(0.0044465 -0.0216533 0)
(0.0135157 -0.0224849 0)
(0.0225315 -0.0214054 0)
(0.0311323 -0.0204647 0)
(0.0393018 -0.0193184 0)
(0.0469509 -0.0179146 0)
(0.0539724 -0.0162807 0)
(0.060283 -0.0144435 0)
(0.0658042 -0.01243 0)
(0.0704632 -0.0102691 0)
(0.0742118 -0.00800075 0)
(0.077 -0.00565585 0)
(0.0788163 -0.00327137 0)
(0.0796505 -0.000896182 0)
(0.0795018 0.00143685 0)
(0.0784062 0.00367588 0)
(0.0764077 0.0057821 0)
(0.0735666 0.0077127 0)
(0.0699785 0.00943581 0)
(0.0657398 0.0109141 0)
(0.0609329 0.0121214 0)
(0.0556769 0.0130495 0)
(0.0501055 0.0136837 0)
(0.0443417 0.0140163 0)
(0.0385078 0.0140539 0)
(0.0327235 0.0138035 0)
(0.0271101 0.0132807 0)
(0.0217801 0.0125103 0)
(0.0168287 0.0115206 0)
(0.0123371 0.0103464 0)
(0.00838034 0.00902477 0)
(0.005009 0.00758002 0)
(0.00225679 0.00607527 0)
(0.000132265 0.0045566 0)
(-0.0013228 0.00317143 0)
(-0.00220339 0.00190809 0)
(-0.00255981 0.000865894 0)
(-0.00251106 4.65851e-05 0)
(-0.00224244 -0.000526763 0)
(-0.00179216 -0.00083074 0)
(-0.0012796 -0.000856236 0)
(-0.000830406 -0.000585344 0)
(-0.000540773 -2.66373e-05 0)
(-0.000511625 0.000759425 0)
(-0.000849128 0.0017571 0)
(-0.00167693 0.00295607 0)
(-0.00304982 0.00430225 0)
(-0.00500376 0.00570575 0)
(-0.00757109 0.00712336 0)
(-0.0107457 0.00848444 0)
(-0.014466 0.00972183 0)
(-0.0186795 0.0107972 0)
(-0.0233195 0.0116839 0)
(-0.0282924 0.0123593 0)
(-0.033509 0.0127996 0)
(-0.038861 0.0129875 0)
(-0.0442414 0.0129075 0)
(-0.049541 0.0125551 0)
(-0.054641 0.011932 0)
(-0.0594305 0.0110423 0)
(-0.0638014 0.00989732 0)
(-0.0676426 0.00851453 0)
(-0.070865 0.00691314 0)
(-0.0733857 0.00510893 0)
(-0.0751302 0.00314668 0)
(-0.0760469 0.00107124 0)
(-0.076075 -0.00109856 0)
(-0.0751887 -0.00331907 0)
(-0.0733924 -0.00554523 0)
(-0.0706774 -0.00773897 0)
(-0.0670664 -0.00987186 0)
(-0.0626092 -0.0118984 0)
(-0.0573388 -0.0137922 0)
(-0.0513243 -0.0155253 0)
(-0.044644 -0.0170574 0)
(-0.0373636 -0.018382 0)
(-0.0295909 -0.0194662 0)
(-0.021414 -0.0203467 0)
(-0.0128442 -0.0213746 0)
(-0.00422396 -0.020595 0)
(0.00461898 -0.0307444 0)
(0.0140511 -0.0319106 0)
(0.0234366 -0.0303654 0)
(0.0323749 -0.0290296 0)
(0.0408574 -0.027404 0)
(0.0488028 -0.0254071 0)
(0.0560829 -0.0230845 0)
(0.0626217 -0.0204734 0)
(0.0683447 -0.0176138 0)
(0.0731582 -0.0145398 0)
(0.0770166 -0.0113124 0)
(0.0798824 -0.00797893 0)
(0.0817215 -0.00457935 0)
(0.0825232 -0.0011902 0)
(0.0822935 0.00213417 0)
(0.081059 0.00533401 0)
(0.0788748 0.00833959 0)
(0.0758063 0.0110914 0)
(0.0719423 0.0135521 0)
(0.0673895 0.0156549 0)
(0.0622516 0.0173693 0)
(0.056647 0.0186867 0)
(0.0507065 0.0195828 0)
(0.0445685 0.0200479 0)
(0.0383638 0.0200894 0)
(0.03222 0.0197194 0)
(0.0262643 0.0189619 0)
(0.020612 0.0178436 0)
(0.0153703 0.0164052 0)
(0.0106374 0.0146938 0)
(0.00649364 0.0127635 0)
(0.00299703 0.0106666 0)
(0.000149722 0.00846254 0)
(-0.00194791 0.00629315 0)
(-0.00331059 0.00430933 0)
(-0.00406827 0.00242038 0)
(-0.00420203 0.000875764 0)
(-0.00382042 -0.000421722 0)
(-0.00309282 -0.00132613 0)
(-0.00212813 -0.00180217 0)
(-0.00108202 -0.00181601 0)
(-0.000101687 -0.00139358 0)
(0.000677635 -0.000559723 0)
(0.00107631 0.000673658 0)
(0.000990821 0.00221338 0)
(0.000321903 0.00397574 0)
(-0.00100444 0.00593572 0)
(-0.00300053 0.00800085 0)
(-0.00565966 0.010056 0)
(-0.00897011 0.0120238 0)
(-0.0128807 0.0138273 0)
(-0.0173396 0.0153961 0)
(-0.0222648 0.0166888 0)
(-0.0275509 0.0176657 0)
(-0.0330937 0.0182966 0)
(-0.0387874 0.0185653 0)
(-0.0445146 0.0184571 0)
(-0.0501517 0.0179642 0)
(-0.0555825 0.0170828 0)
(-0.0606919 0.0158177 0)
(-0.0653627 0.0141907 0)
(-0.0694785 0.0122254 0)
(-0.0729508 0.00993874 0)
(-0.075689 0.00737606 0)
(-0.0776014 0.00458025 0)
(-0.0786378 0.00161387 0)
(-0.0787489 -0.00148088 0)
(-0.0778996 -0.00464533 0)
(-0.076084 -0.00781286 0)
(-0.0733094 -0.0109353 0)
(-0.0696026 -0.0139677 0)
(-0.0649993 -0.0168521 0)
(-0.05955 -0.0195391 0)
(-0.0533143 -0.0220058 0)
(-0.0463821 -0.0241889 0)
(-0.0388379 -0.0260693 0)
(-0.0307612 -0.0276122 0)
(-0.0222641 -0.0288747 0)
(-0.0133547 -0.0303287 0)
(-0.00438918 -0.0292207 0)
(0.00486087 -0.0402326 0)
(0.014791 -0.0417818 0)
(0.0246649 -0.0397391 0)
(0.0340541 -0.0379911 0)
(0.0429667 -0.0358419 0)
(0.0513099 -0.0332247 0)
(0.0589498 -0.0301781 0)
(0.0658016 -0.0267493 0)
(0.0717903 -0.0229975 0)
(0.0768199 -0.0189687 0)
(0.0808315 -0.0147264 0)
(0.0837948 -0.010339 0)
(0.0856677 -0.00587364 0)
(0.0864291 -0.00141035 0)
(0.0860914 0.00296797 0)
(0.0846773 0.00718191 0)
(0.0822338 0.0111478 0)
(0.0788511 0.0147818 0)
(0.0746155 0.0180131 0)
(0.0696333 0.0207772 0)
(0.0640418 0.0230306 0)
(0.0579657 0.0247468 0)
(0.0515366 0.0259063 0)
(0.0449089 0.026496 0)
(0.0382266 0.0265233 0)
(0.0316258 0.0260109 0)
(0.0252419 0.0249845 0)
(0.0192027 0.0234757 0)
(0.0136248 0.0215402 0)
(0.00861161 0.01924 0)
(0.00424904 0.0166416 0)
(0.000589746 0.0137805 0)
(-0.00226772 0.0108695 0)
(-0.00424193 0.00800468 0)
(-0.00549839 0.00527867 0)
(-0.00599468 0.00271966 0)
(-0.00577866 0.000586428 0)
(-0.00504905 -0.00113811 0)
(-0.00386383 -0.00238913 0)
(-0.002402 -0.00300928 0)
(-0.000840166 -0.00305151 0)
(0.000604269 -0.00243988 0)
(0.00182946 -0.00128306 0)
(0.00264154 0.000376448 0)
(0.00285684 0.00244963 0)
(0.00241108 0.00487218 0)
(0.00126394 0.00750332 0)
(-0.000684905 0.0102512 0)
(-0.00341633 0.0130682 0)
(-0.00687244 0.0157106 0)
(-0.0110062 0.0181258 0)
(-0.0157531 0.0202276 0)
(-0.0210181 0.021963 0)
(-0.026686 0.0232808 0)
(-0.0326351 0.0241411 0)
(-0.0387468 0.0245145 0)
(-0.044905 0.0243934 0)
(-0.0509869 0.0237641 0)
(-0.0568651 0.0226162 0)
(-0.0624044 0.0209615 0)
(-0.0674743 0.0188378 0)
(-0.0719686 0.0162601 0)
(-0.0757821 0.0132429 0)
(-0.0788097 0.00987206 0)
(-0.0809591 0.00619527 0)
(-0.0821737 0.00228829 0)
(-0.0823964 -0.00179593 0)
(-0.0815809 -0.0059543 0)
(-0.0797438 -0.0101163 0)
(-0.0768926 -0.0142264 0)
(-0.0730391 -0.0182049 0)
(-0.0682331 -0.0219872 0)
(-0.06254 -0.0255189 0)
(-0.0560186 -0.028746 0)
(-0.0487507 -0.0316212 0)
(-0.0408323 -0.034091 0)
(-0.0323604 -0.0361169 0)
(-0.0234225 -0.0377776 0)
(-0.0140425 -0.0396975 0)
(-0.00461728 -0.0382414 0)
(0.00516066 -0.0502637 0)
(0.0157291 -0.0522171 0)
(0.0262335 -0.0496583 0)
(0.0362157 -0.0474491 0)
(0.0456757 -0.0447417 0)
(0.054517 -0.0414615 0)
(0.0626131 -0.0376455 0)
(0.0698631 -0.033359 0)
(0.0761919 -0.028656 0)
(0.0815003 -0.023609 0)
(0.0857216 -0.0182931 0)
(0.0888147 -0.0127788 0)
(0.0907324 -0.00716356 0)
(0.0914498 -0.00154514 0)
(0.0909732 0.00397297 0)
(0.0893273 0.00928188 0)
(0.0865662 0.014281 0)
(0.0827675 0.0188607 0)
(0.0780388 0.0229261 0)
(0.0725122 0.0264062 0)
(0.0663326 0.0292325 0)
(0.0596407 0.0313672 0)
(0.05258 0.0327915 0)
(0.0453167 0.0334985 0)
(0.0380175 0.0334936 0)
(0.0308298 0.0328084 0)
(0.0238906 0.0314639 0)
(0.0173433 0.0295182 0)
(0.0113244 0.027023 0)
(0.00594226 0.0240536 0)
(0.00125078 0.0206524 0)
(-0.00255251 0.0169908 0)
(-0.00539708 0.0132812 0)
(-0.00730675 0.00956086 0)
(-0.00836789 0.00598059 0)
(-0.00853902 0.00271837 0)
(-0.00785388 -0.000132088 0)
(-0.00661241 -0.00235736 0)
(-0.00482998 -0.003977 0)
(-0.00272607 -0.00478292 0)
(-0.000531326 -0.00484387 0)
(0.00157024 -0.00402232 0)
(0.00335169 -0.00251515 0)
(0.00463438 -0.000301541 0)
(0.00529965 0.00241747 0)
(0.00518268 0.0055628 0)
(0.00418254 0.00897584 0)
(0.00236212 0.012539 0)
(-0.000404195 0.0161293 0)
(-0.00410559 0.0195863 0)
(-0.00854498 0.022709 0)
(-0.0136696 0.0254193 0)
(-0.0193693 0.0276523 0)
(-0.025522 0.0293521 0)
(-0.031999 0.0304714 0)
(-0.0386654 0.0309714 0)
(-0.0453909 0.0308349 0)
(-0.0520498 0.0300554 0)
(-0.0585007 0.0286395 0)
(-0.0645824 0.0265952 0)
(-0.0701705 0.0239366 0)
(-0.0751709 0.0206907 0)
(-0.0794308 0.0169075 0)
(-0.0828271 0.0126625 0)
(-0.085276 0.00803681 0)
(-0.0867165 0.00310945 0)
(-0.0870745 -0.00202423 0)
(-0.0863019 -0.00725435 0)
(-0.0844389 -0.0124915 0)
(-0.0814774 -0.0176488 0)
(-0.0774348 -0.0226366 0)
(-0.0723774 -0.0273807 0)
(-0.0663678 -0.0318093 0)
(-0.0594713 -0.0358532 0)
(-0.0517807 -0.03945 0)
(-0.0433905 -0.0425598 0)
(-0.0343992 -0.0451107 0)
(-0.0249108 -0.0471887 0)
(-0.0149413 -0.0496239 0)
(-0.00491113 -0.0477829 0)
(0.00554273 -0.0609924 0)
(0.0168919 -0.0633816 0)
(0.0281804 -0.0602373 0)
(0.0388939 -0.0575263 0)
(0.0490186 -0.0542431 0)
(0.0584694 -0.0502298 0)
(0.0671197 -0.045594 0)
(0.074867 -0.0403811 0)
(0.0816216 -0.0346621 0)
(0.0872721 -0.0285299 0)
(0.0917591 -0.0220483 0)
(0.0950277 -0.0153194 0)
(0.0970103 -0.00845791 0)
(0.0976788 -0.00157746 0)
(0.097035 0.00518934 0)
(0.0951047 0.0117068 0)
(0.0919378 0.0178307 0)
(0.0876274 0.0234481 0)
(0.0823012 0.0284363 0)
(0.0760876 0.0326883 0)
(0.0691571 0.0361306 0)
(0.0616863 0.0386926 0)
(0.0538376 0.0403859 0)
(0.0457895 0.0412012 0)
(0.0377249 0.041145 0)
(0.0297959 0.0402405 0)
(0.0221647 0.0385299 0)
(0.0149907 0.0360723 0)
(0.00840574 0.0329344 0)
(0.00250297 0.0291722 0)
(-0.00253773 0.0249112 0)
(-0.00650042 0.0203898 0)
(-0.00941443 0.0156839 0)
(-0.0112581 0.0109529 0)
(-0.0120546 0.00637155 0)
(-0.0118112 0.00227874 0)
(-0.0105758 -0.00137668 0)
(-0.00863747 -0.00423268 0)
(-0.00608965 -0.00627124 0)
(-0.00315327 -0.00730857 0)
(-9.67032e-05 -0.00734729 0)
(0.0028053 -0.00625893 0)
(0.00535441 -0.00431575 0)
(0.00733172 -0.00154102 0)
(0.00846663 0.00192993 0)
(0.00871721 0.00596121 0)
(0.00799052 0.0103218 0)
(0.00622054 0.0148375 0)
(0.00338308 0.0193414 0)
(-0.000535292 0.0236544 0)
(-0.00540601 0.0276556 0)
(-0.011029 0.0310858 0)
(-0.0172935 0.0338878 0)
(-0.0240627 0.035999 0)
(-0.0311994 0.0373849 0)
(-0.0385592 0.0380288 0)
(-0.0459928 0.0379055 0)
(-0.0533479 0.0369979 0)
(-0.0604837 0.0353064 0)
(-0.0672576 0.0328484 0)
(-0.0735214 0.0296242 0)
(-0.0791331 0.0256717 0)
(-0.08394 0.0210601 0)
(-0.0878054 0.0158589 0)
(-0.0906327 0.0101857 0)
(-0.0923492 0.00413317 0)
(-0.0928699 -0.00214246 0)
(-0.0921572 -0.00855066 0)
(-0.0902453 -0.0149547 0)
(-0.0871364 -0.0212388 0)
(-0.0828592 -0.0273181 0)
(-0.077486 -0.0330874 0)
(-0.0710872 -0.038473 0)
(-0.0637293 -0.0433933 0)
(-0.0555227 -0.0477823 0)
(-0.0465609 -0.0515722 0)
(-0.0369271 -0.0546892 0)
(-0.0267578 -0.0572577 0)
(-0.0160521 -0.0602232 0)
(-0.00526747 -0.0579753 0)
(0.00600505 -0.0725551 0)
(0.0183182 -0.0754377 0)
(0.0305499 -0.0716507 0)
(0.042114 -0.0683856 0)
(0.0530517 -0.0644368 0)
(0.0632413 -0.0596454 0)
(0.0725456 -0.0541101 0)
(0.0808874 -0.0479033 0)
(0.0881453 -0.0411015 0)
(0.0942269 -0.0337892 0)
(0.0990536 -0.026048 0)
(0.102538 -0.0179997 0)
(0.104616 -0.00976901 0)
(0.105244 -0.00149149 0)
(0.10441 0.0066635 0)
(0.102127 0.0145276 0)
(0.0984742 0.0219296 0)
(0.0935504 0.0287011 0)
(0.0874688 0.0346902 0)
(0.0804092 0.0397771 0)
(0.072549 0.0438678 0)
(0.0641159 0.0469059 0)
(0.055318 0.0488745 0)
(0.0463191 0.0497744 0)
(0.0373146 0.0496301 0)
(0.0284879 0.0484632 0)
(0.0200155 0.0463352 0)
(0.0120613 0.0432962 0)
(0.00475966 0.0394036 0)
(-0.00172506 0.0346903 0)
(-0.00716253 0.0295308 0)
(-0.0114054 0.0239248 0)
(-0.0144669 0.0180891 0)
(-0.0162564 0.0121655 0)
(-0.0166782 0.00641704 0)
(-0.0159278 0.00124384 0)
(-0.0140318 -0.00329457 0)
(-0.0111948 -0.00690423 0)
(-0.00765779 -0.00951998 0)
(-0.00366032 -0.0108029 0)
(0.000514678 -0.0108499 0)
(0.00447193 -0.0094511 0)
(0.0078734 -0.00691625 0)
(0.0106193 -0.00336565 0)
(0.0124966 0.00102957 0)
(0.0132628 0.0060495 0)
(0.0127513 0.011507 0)
(0.0110629 0.0171734 0)
(0.00807983 0.0227744 0)
(0.00387221 0.0281238 0)
(-0.00143661 0.0330009 0)
(-0.00774255 0.0372971 0)
(-0.0147449 0.0407214 0)
(-0.0222945 0.0433241 0)
(-0.030219 0.0450535 0)
(-0.0383824 0.0458756 0)
(-0.0466515 0.0457777 0)
(-0.0548683 0.0447436 0)
(-0.0628583 0.0427694 0)
(-0.0704627 0.0398652 0)
(-0.0775382 0.0360434 0)
(-0.0839154 0.0313325 0)
(-0.0894127 0.0258038 0)
(-0.0938637 0.019562 0)
(-0.0971577 0.0127264 0)
(-0.0991948 0.0054317 0)
(-0.0999015 -0.00212982 0)
(-0.0992538 -0.00983139 0)
(-0.0972597 -0.017517 0)
(-0.0939596 -0.0250477 0)
(-0.089392 -0.0323012 0)
(-0.0836335 -0.0391797 0)
(-0.0767683 -0.0456033 0)
(-0.0688661 -0.0514728 0)
(-0.0600386 -0.0567178 0)
(-0.0503796 -0.0612561 0)
(-0.0400005 -0.0649885 0)
(-0.0290034 -0.0680888 0)
(-0.0173903 -0.0716724 0)
(-0.00570736 -0.0689694 0)
(0.00655276 -0.085136 0)
(0.0200079 -0.0885717 0)
(0.0333778 -0.0840445 0)
(0.045986 -0.0801561 0)
(0.0578534 -0.0754627 0)
(0.06889 -0.069822 0)
(0.0789643 -0.0633047 0)
(0.0879903 -0.0560255 0)
(0.0958629 -0.0480498 0)
(0.102465 -0.0394582 0)
(0.107701 -0.0303649 0)
(0.111474 -0.0208669 0)
(0.113699 -0.0111194 0)
(0.114301 -0.00128089 0)
(0.113254 0.00843534 0)
(0.110583 0.017821 0)
(0.106335 0.0266748 0)
(0.100629 0.0347394 0)
(0.093634 0.0418488 0)
(0.08554 0.0478538 0)
(0.0765778 0.052649 0)
(0.0669953 0.0562033 0)
(0.0570209 0.058443 0)
(0.0468744 0.0593937 0)
(0.0367611 0.0591172 0)
(0.0268762 0.0576419 0)
(0.0174015 0.0550231 0)
(0.00849083 0.0513249 0)
(0.000266107 0.0464964 0)
(-0.00688226 0.0408523 0)
(-0.0128026 0.0345897 0)
(-0.0174306 0.0276262 0)
(-0.0206679 0.0204675 0)
(-0.0224217 0.0131615 0)
(-0.0224641 0.00611236 0)
(-0.0210485 -0.000451629 0)
(-0.018271 -0.00599492 0)
(-0.0144433 -0.0105768 0)
(-0.00964304 -0.0137769 0)
(-0.00429335 -0.0153668 0)
(0.00126693 -0.0154115 0)
(0.00657476 -0.0136764 0)
(0.0111796 -0.0105419 0)
(0.0149465 -0.00602135 0)
(0.0174935 -0.000525985 0)
(0.0187683 0.00573893 0)
(0.0186715 0.0125515 0)
(0.0170366 0.0195887 0)
(0.0138709 0.026454 0)
(0.00921838 0.0330932 0)
(0.00331918 0.0389343 0)
(-0.00372723 0.0441755 0)
(-0.0116589 0.0483507 0)
(-0.0201004 0.0514958 0)
(-0.0289909 0.0535925 0)
(-0.0381513 0.0546199 0)
(-0.047419 0.05456 0)
(-0.0566357 0.0534053 0)
(-0.0656315 0.0511546 0)
(-0.0742432 0.0477856 0)
(-0.0823032 0.0433119 0)
(-0.089606 0.0377881 0)
(-0.0959297 0.0312618 0)
(-0.101092 0.0238502 0)
(-0.104961 0.0157041 0)
(-0.107393 0.00702761 0)
(-0.108312 -0.00198472 0)
(-0.107716 -0.0111335 0)
(-0.10562 -0.0202345 0)
(-0.102064 -0.0291247 0)
(-0.0971245 -0.0376653 0)
(-0.090911 -0.0457574 0)
(-0.0834921 -0.0532948 0)
(-0.0749435 -0.0601843 0)
(-0.0653967 -0.0663477 0)
(-0.0549259 -0.0717083 0)
(-0.0436523 -0.0761502 0)
(-0.0316993 -0.0798438 0)
(-0.0190118 -0.0841217 0)
(-0.0062272 -0.0809235 0)
(0.00720681 -0.0989467 0)
(0.0220479 -0.102996 0)
(0.0367539 -0.0975845 0)
(0.0505485 -0.0929526 0)
(0.0634966 -0.0874396 0)
(0.0755097 -0.0808449 0)
(0.0864617 -0.073286 0)
(0.0962791 -0.064848 0)
(0.104867 -0.05561 0)
(0.112083 -0.0456525 0)
(0.117835 -0.0350762 0)
(0.12199 -0.0239852 0)
(0.124429 -0.0125556 0)
(0.125042 -0.000963297 0)
(0.123772 0.010542 0)
(0.120644 0.0216809 0)
(0.115689 0.0321588 0)
(0.109045 0.0417038 0)
(0.100927 0.05009 0)
(0.0915791 0.0571264 0)
(0.081296 0.0627074 0)
(0.0703257 0.0667482 0)
(0.0589369 0.0692564 0)
(0.0474379 0.0702528 0)
(0.036033 0.069776 0)
(0.0249 0.0679183 0)
(0.0142447 0.064742 0)
(0.00412238 0.0602406 0)
(-0.00508749 0.054457 0)
(-0.0129756 0.0477428 0)
(-0.0196999 0.0401031 0)
(-0.0248133 0.0316392 0)
(-0.028215 0.022874 0)
(-0.0298868 0.0139084 0)
(-0.029558 0.00528925 0)
(-0.0273478 -0.00287641 0)
(-0.0234929 -0.00983031 0)
(-0.0183844 -0.015556 0)
(-0.012003 -0.0195436 0)
(-0.00504967 -0.0215145 0)
(0.00221721 -0.0216957 0)
(0.00910094 -0.0192347 0)
(0.0151473 -0.0151856 0)
(0.020149 -0.00959341 0)
(0.0237178 -0.00280974 0)
(0.0257455 0.00498935 0)
(0.0259496 0.0134404 0)
(0.0242973 0.0220621 0)
(0.0209117 0.0305202 0)
(0.0156938 0.0385658 0)
(0.00901661 0.0457202 0)
(0.00107865 0.0518758 0)
(-0.0079743 0.0569974 0)
(-0.0175526 0.0607057 0)
(-0.0275473 0.0631802 0)
(-0.0378304 0.0644301 0)
(-0.0482529 0.0644438 0)
(-0.0586426 0.0631924 0)
(-0.0688379 0.0606481 0)
(-0.0786514 0.0567992 0)
(-0.0878603 0.0516404 0)
(-0.0962689 0.0452065 0)
(-0.103631 0.0375699 0)
(-0.109682 0.0288497 0)
(-0.114224 0.0192131 0)
(-0.117109 0.00894987 0)
(-0.118275 -0.00170189 0)
(-0.117706 -0.012486 0)
(-0.115438 -0.0231607 0)
(-0.111561 -0.0335449 0)
(-0.10618 -0.0434929 0)
(-0.0994056 -0.0528856 0)
(-0.0913246 -0.0616194 0)
(-0.0820336 -0.0696297 0)
(-0.0716652 -0.0768051 0)
(-0.0602852 -0.083069 0)
(-0.0479951 -0.0883189 0)
(-0.0348935 -0.0927096 0)
(-0.0209381 -0.0977977 0)
(-0.00686134 -0.0940206 0)
(0.00800429 -0.114166 0)
(0.0245059 -0.118968 0)
(0.0407951 -0.112489 0)
(0.0559456 -0.106956 0)
(0.0700896 -0.100494 0)
(0.083171 -0.0928538 0)
(0.095104 -0.0841585 0)
(0.105828 -0.0744815 0)
(0.115242 -0.0639117 0)
(0.123207 -0.0524974 0)
(0.1296 -0.0403064 0)
(0.134249 -0.0274752 0)
(0.137005 -0.0141497 0)
(0.13771 -0.000547443 0)
(0.136236 0.013013 0)
(0.132562 0.0261888 0)
(0.126754 0.0385803 0)
(0.118985 0.0498429 0)
(0.109515 0.0596716 0)
(0.0986569 0.0678565 0)
(0.0867376 0.0742476 0)
(0.0741122 0.0788193 0)
(0.0611154 0.0815745 0)
(0.0480062 0.0825479 0)
(0.0350663 0.0818137 0)
(0.0225246 0.0794878 0)
(0.0104649 0.0756636 0)
(-0.000992609 0.0702213 0)
(-0.011373 0.0634843 0)
(-0.0203272 0.0554172 0)
(-0.027951 0.0461831 0)
(-0.0336481 0.0360749 0)
(-0.037363 0.0253801 0)
(-0.0389399 0.014435 0)
(-0.0381844 0.00384231 0)
(-0.0351482 -0.0061315 0)
(-0.0300147 -0.014936 0)
(-0.0233384 -0.0220293 0)
(-0.015003 -0.0271601 0)
(-0.0059556 -0.0296538 0)
(0.00376772 -0.0294271 0)
(0.0127081 -0.0263922 0)
(0.0202703 -0.0212619 0)
(0.0266063 -0.0142213 0)
(0.0312538 -0.00580931 0)
(0.0341142 0.00375197 0)
(0.0347724 0.0140708 0)
(0.0331365 0.02464 0)
(0.0293884 0.0350174 0)
(0.023467 0.0447328 0)
(0.0157292 0.0534572 0)
(0.0067053 0.0607414 0)
(-0.00361648 0.0666987 0)
(-0.0146318 0.0710537 0)
(-0.0259018 0.0739602 0)
(-0.0374637 0.0754778 0)
(-0.0491985 0.0755873 0)
(-0.0609539 0.074245 0)
(-0.0725298 0.0714221 0)
(-0.0837276 0.0671069 0)
(-0.0943338 0.0612614 0)
(-0.104075 0.0538601 0)
(-0.112651 0.0449724 0)
(-0.119783 0.0347296 0)
(-0.125164 0.0233848 0)
(-0.128584 0.0112524 0)
(-0.130002 -0.00130949 0)
(-0.129411 -0.0139461 0)
(-0.126893 -0.0263756 0)
(-0.122592 -0.0384101 0)
(-0.116644 -0.0498696 0)
(-0.1092 -0.0606556 0)
(-0.10038 -0.0706812 0)
(-0.0902564 -0.0798994 0)
(-0.0789498 -0.0882101 0)
(-0.0665491 -0.0954905 0)
(-0.0531098 -0.101639 0)
(-0.0387026 -0.106861 0)
(-0.0232432 -0.112963 0)
(-0.00760157 -0.108496 0)
(0.00894364 -0.131122 0)
(0.0274635 -0.136819 0)
(0.0456459 -0.128967 0)
(0.0623123 -0.122308 0)
(0.0777494 -0.114747 0)
(0.0919928 -0.105949 0)
(0.105002 -0.0960226 0)
(0.116722 -0.085035 0)
(0.127075 -0.073044 0)
(0.135944 -0.0600828 0)
(0.143146 -0.0461846 0)
(0.148472 -0.0314449 0)
(0.151715 -0.0159912 0)
(0.152608 -9.70207e-05 0)
(0.150959 0.0158818 0)
(0.146699 0.0314751 0)
(0.139877 0.0461373 0)
(0.130722 0.0594267 0)
(0.119583 0.0709216 0)
(0.106852 0.0803528 0)
(0.0930048 0.0876201 0)
(0.0784557 0.0927085 0)
(0.0635264 0.0956652 0)
(0.0485744 0.0965305 0)
(0.0339037 0.0954346 0)
(0.0197352 0.0925406 0)
(0.0060271 0.0879731 0)
(-0.00692733 0.0815286 0)
(-0.0186653 0.0737115 0)
(-0.0289693 0.0640774 0)
(-0.0376436 0.0530893 0)
(-0.044122 0.0409648 0)
(-0.0483061 0.0279295 0)
(-0.0498041 0.0145911 0)
(-0.0485025 0.00129558 0)
(-0.0445364 -0.0108219 0)
(-0.0379851 -0.0216522 0)
(-0.0294092 -0.0303504 0)
(-0.0188397 -0.0366755 0)
(-0.00708897 -0.0402544 0)
(0.00613317 -0.0402555 0)
(0.0176112 -0.0354673 0)
(0.0267284 -0.0289986 0)
(0.0345407 -0.0204358 0)
(0.0403951 -0.0101676 0)
(0.0441544 0.00148341 0)
(0.0452909 0.0144164 0)
(0.0437062 0.0273811 0)
(0.0394827 0.0401739 0)
(0.0327027 0.0520245 0)
(0.0237115 0.0625094 0)
(0.0131326 0.0710196 0)
(0.00125412 0.0777817 0)
(-0.0112981 0.0828252 0)
(-0.0240623 0.0860825 0)
(-0.0370867 0.0878943 0)
(-0.0503236 0.0881462 0)
(-0.0636096 0.0867545 0)
(-0.0767305 0.0836975 0)
(-0.0895037 0.0789525 0)
(-0.10174 0.072432 0)
(-0.113133 0.0640387 0)
(-0.123277 0.0537556 0)
(-0.131731 0.0417278 0)
(-0.13811 0.0283252 0)
(-0.142171 0.0139713 0)
(-0.143806 -0.000834871 0)
(-0.143071 -0.0156208 0)
(-0.140167 -0.0300268 0)
(-0.135296 -0.0438498 0)
(-0.128641 -0.0569256 0)
(-0.120409 -0.0691939 0)
(-0.110735 -0.0805987 0)
(-0.0997032 -0.0910905 0)
(-0.0873798 -0.10061 0)
(-0.0738343 -0.109033 0)
(-0.0591338 -0.11623 0)
(-0.0432822 -0.122498 0)
(-0.0260381 -0.129868 0)
(-0.00848886 -0.124625 0)
(0.0101113 -0.150216 0)
(0.0311569 -0.156979 0)
(0.0515973 -0.147202 0)
(0.0698811 -0.139068 0)
(0.0866345 -0.130235 0)
(0.10208 -0.120181 0)
(0.116232 -0.108955 0)
(0.12906 -0.0966034 0)
(0.140486 -0.0831389 0)
(0.150403 -0.0685718 0)
(0.158622 -0.0528973 0)
(0.164875 -0.0360977 0)
(0.168828 -0.018273 0)
(0.170114 0.000283692 0)
(0.168401 0.0191461 0)
(0.163478 0.0376513 0)
(0.15543 0.0550822 0)
(0.144565 0.0707653 0)
(0.131318 0.0841853 0)
(0.116311 0.0950112 0)
(0.10013 0.103172 0)
(0.0832682 0.108735 0)
(0.0661174 0.111812 0)
(0.0490166 0.112495 0)
(0.0323431 0.110922 0)
(0.0163421 0.107349 0)
(0.000771678 0.10194 0)
(-0.0138502 0.0947094 0)
(-0.0273065 0.0857121 0)
(-0.0392693 0.0744348 0)
(-0.0491328 0.0614549 0)
(-0.0566298 0.0468353 0)
(-0.0613713 0.0312065 0)
(-0.0630843 0.0152988 0)
(-0.0611188 -0.000580778 0)
(-0.0556921 -0.0156987 0)
(-0.0474274 -0.0291286 0)
(-0.0366436 -0.0403024 0)
(-0.0236582 -0.0488377 0)
(-0.008155 -0.0542741 0)
(0.00894384 -0.0541544 0)
(0.0234927 -0.0467599 0)
(0.0346761 -0.0378968 0)
(0.0439954 -0.0269759 0)
(0.0511551 -0.0141438 0)
(0.0562814 9.94652e-05 0)
(0.0581949 0.0152358 0)
(0.0564958 0.0305935 0)
(0.0518035 0.0457834 0)
(0.0439606 0.0602264 0)
(0.0332968 0.0729319 0)
(0.0207691 0.0831463 0)
(0.00704896 0.0906648 0)
(-0.00746598 0.0961018 0)
(-0.0220024 0.0997691 0)
(-0.0365992 0.101933 0)
(-0.0515329 0.102397 0)
(-0.0665567 0.10097 0)
(-0.0814103 0.0976697 0)
(-0.0959853 0.0925638 0)
(-0.110152 0.0854495 0)
(-0.123571 0.07604 0)
(-0.135697 0.0642167 0)
(-0.145867 0.0501231 0)
(-0.153503 0.0342077 0)
(-0.158269 0.0171394 0)
(-0.160061 -0.000349398 0)
(-0.15902 -0.0176336 0)
(-0.155497 -0.0342715 0)
(-0.149829 -0.0500112 0)
(-0.142289 -0.0647806 0)
(-0.133138 -0.0785894 0)
(-0.122502 -0.0914404 0)
(-0.110455 -0.103298 0)
(-0.0970534 -0.114108 0)
(-0.0823236 -0.123786 0)
(-0.0662971 -0.132214 0)
(-0.0488692 -0.139832 0)
(-0.0295282 -0.148966 0)
(-0.0096138 -0.142771 0)
(0.0115164 -0.171659 0)
(0.0358832 -0.179853 0)
(0.0590268 -0.167347 0)
(0.078889 -0.157392 0)
(0.0968504 -0.147155 0)
(0.113473 -0.135769 0)
(0.128793 -0.12321 0)
(0.142776 -0.109474 0)
(0.155356 -0.0945576 0)
(0.16644 -0.078411 0)
(0.175884 -0.0609341 0)
(0.183369 -0.0419616 0)
(0.188386 -0.0214827 0)
(0.190365 0.00022311 0)
(0.188744 0.0226198 0)
(0.183149 0.0447532 0)
(0.173609 0.0655961 0)
(0.160544 0.0841799 0)
(0.14465 0.0997986 0)
(0.12676 0.112104 0)
(0.107723 0.121092 0)
(0.0881392 0.127039 0)
(0.0683561 0.130063 0)
(0.0487431 0.130196 0)
(0.0297601 0.127696 0)
(0.0116767 0.123121 0)
(-0.00569771 0.116675 0)
(-0.0221084 0.108705 0)
(-0.0376931 0.098131 0)
(-0.0516934 0.084866 0)
(-0.0632803 0.0693283 0)
(-0.0717877 0.051755 0)
(-0.0765428 0.0325955 0)
(-0.077695 0.012669 0)
(-0.0754495 -0.0075371 0)
(-0.0693321 -0.02547 0)
(-0.0593749 -0.0407601 0)
(-0.0465536 -0.0538304 0)
(-0.0303827 -0.0649357 0)
(-0.00964359 -0.0727299 0)
(0.0116884 -0.0716192 0)
(0.0311276 -0.0608991 0)
(0.0456944 -0.0491205 0)
(0.0565295 -0.0363421 0)
(0.0646366 -0.0221703 0)
(0.0700143 -0.00579185 0)
(0.0721147 0.0128179 0)
(0.0708175 0.0325091 0)
(0.066412 0.0516132 0)
(0.0579517 0.0695873 0)
(0.0451771 0.0848504 0)
(0.029534 0.0969648 0)
(0.0131025 0.105504 0)
(-0.00308384 0.110924 0)
(-0.0190554 0.114483 0)
(-0.0353055 0.116956 0)
(-0.0522172 0.117865 0)
(-0.069329 0.11667 0)
(-0.0861492 0.113324 0)
(-0.102717 0.108027 0)
(-0.119181 0.10057 0)
(-0.135176 0.0902609 0)
(-0.149882 0.0767544 0)
(-0.162314 0.0601735 0)
(-0.171574 0.0411543 0)
(-0.177125 0.0206651 0)
(-0.178903 -0.000183707 0)
(-0.17727 -0.0204277 0)
(-0.172803 -0.0395417 0)
(-0.166052 -0.0572975 0)
(-0.15746 -0.0737747 0)
(-0.147302 -0.0891208 0)
(-0.135658 -0.103426 0)
(-0.122565 -0.116699 0)
(-0.108055 -0.128902 0)
(-0.0921378 -0.139958 0)
(-0.0748363 -0.149778 0)
(-0.0558445 -0.159036 0)
(-0.0339916 -0.170619 0)
(-0.0109479 -0.163166 0)
(0.0130583 -0.1969 0)
(0.0416299 -0.206818 0)
(0.0678779 -0.189614 0)
(0.0891362 -0.177079 0)
(0.108135 -0.165303 0)
(0.125788 -0.152564 0)
(0.142158 -0.138626 0)
(0.157216 -0.123506 0)
(0.170919 -0.107209 0)
(0.183265 -0.089624 0)
(0.194213 -0.070441 0)
(0.203426 -0.0492709 0)
(0.210149 -0.0258858 0)
(0.213489 -0.00042464 0)
(0.212425 0.0265352 0)
(0.206204 0.0534283 0)
(0.194879 0.0786044 0)
(0.179061 0.100759 0)
(0.159774 0.118993 0)
(0.138366 0.13281 0)
(0.116048 0.142575 0)
(0.0933952 0.149158 0)
(0.0706147 0.152781 0)
(0.0483043 0.152898 0)
(0.0273171 0.149734 0)
(0.00762166 0.144132 0)
(-0.0111553 0.136849 0)
(-0.0295276 0.12796 0)
(-0.0477527 0.116204 0)
(-0.0642906 0.101519 0)
(-0.0782956 0.0832058 0)
(-0.0892011 0.0623976 0)
(-0.0960703 0.0403004 0)
(-0.0980048 0.0179257 0)
(-0.0931189 -0.00542817 0)
(-0.082579 -0.0283691 0)
(-0.0697121 -0.048947 0)
(-0.0549182 -0.067816 0)
(-0.0357636 -0.0853577 0)
(-0.0114181 -0.0967328 0)
(0.0127872 -0.095078 0)