/*--------------------------------*- C++ -*----------------------------------*\
| =========                 |                                                 |
| \\      /  F ield         | OpenFOAM: The Open Source CFD Toolbox           |
|  \\    /   O peration     | Version:  2412                                  |
|   \\  /    A nd           | Website:  www.openfoam.com                      |
|    \\/     M anipulation  |                                                 |
\*---------------------------------------------------------------------------*/
FoamFile
{
    version     2.0;
    format      ascii;
    arch        "LSB;label=32;scalar=64";
    class       surfaceScalarField;
    location    "1.3";
    object      phi;
}
// * * * * * * * * * * * * * * * * * * * * * * * * * * * * * * * * * * * * * //

dimensions      [0 3 -1 0 0 0 0];

oriented        oriented;

internalField   nonuniform List<scalar> 
12640
(
6.90094e-06
-6.90094e-06
1.25226e-05
-5.62145e-06
1.80799e-05
-5.5571e-06
2.41243e-05
-6.04419e-06
3.09476e-05
-6.82302e-06
3.87069e-05
-7.75904e-06
4.75891e-05
-8.88194e-06
5.77228e-05
-1.01335e-05
6.9283e-05
-1.156e-05
8.23296e-05
-1.30465e-05
9.69019e-05
-1.45723e-05
0.000113071
-1.61689e-05
0.000130771
-1.77e-05
0.000149867
-1.90964e-05
0.000170258
-2.03901e-05
0.000191702
-2.14444e-05
0.00021385
-2.21477e-05
0.000236408
-2.25572e-05
0.000258972
-2.25634e-05
0.000281001
-2.20286e-05
0.000301965
-2.09636e-05
0.000321282
-1.93171e-05
0.000338355
-1.70724e-05
0.000352581
-1.42251e-05
0.00036338
-1.07993e-05
0.000370218
-6.8373e-06
0.00037263
-2.41249e-06
0.000370291
2.33878e-06
0.000362826
7.46496e-06
0.000350066
1.27598e-05
0.000332055
1.80095e-05
0.000308873
2.31812e-05
0.00028099
2.78823e-05
0.000248967
3.20229e-05
0.00021344
3.55275e-05
0.000175044
3.83956e-05
0.000134408
4.06361e-05
9.21367e-05
4.22722e-05
4.87551e-05
4.33818e-05
4.75789e-06
4.39973e-05
-3.9435e-05
4.41928e-05
-8.3366e-05
4.39311e-05
-0.000126474
4.31077e-05
-0.00016815
4.16767e-05
-0.000207729
3.95787e-05
-0.000244445
3.6716e-05
-0.00027759
3.31455e-05
-0.000306493
2.89036e-05
-0.000330539
2.40457e-05
-0.000349405
1.88659e-05
-0.000362928
1.35239e-05
-0.000371126
8.19879e-06
-0.000374078
2.95343e-06
-0.0003722
-1.87752e-06
-0.00036584
-6.35907e-06
-0.000355473
-1.03667e-05
-0.00034164
-1.38333e-05
-0.000324919
-1.67213e-05
-0.00030591
-1.90097e-05
-0.000285208
-2.0701e-05
-0.000263377
-2.18299e-05
-0.00024096
-2.24174e-05
-0.00021848
-2.24793e-05
-0.000196331
-2.21495e-05
-0.000174813
-2.15184e-05
-0.000154279
-2.05343e-05
-0.000134934
-1.93445e-05
-0.000116995
-1.7938e-05
-0.000100492
-1.65028e-05
-8.55482e-05
-1.49443e-05
-7.21306e-05
-1.34177e-05
-6.02038e-05
-1.19269e-05
-4.96938e-05
-1.05102e-05
-4.04633e-05
-9.23071e-06
-3.23535e-05
-8.11029e-06
-2.52185e-05
-7.13565e-06
-1.88789e-05
-6.34012e-06
-1.30512e-05
-5.82774e-06
-7.13842e-06
-5.91264e-06
-7.13944e-06
5.17875e-06
-1.20794e-05
8.14384e-06
-8.58613e-06
1.09091e-05
-8.322e-06
1.43355e-05
-9.47019e-06
1.86729e-05
-1.116e-05
2.42469e-05
-1.33326e-05
3.12885e-05
-1.59232e-05
4.00081e-05
-1.88528e-05
5.05128e-05
-2.20645e-05
6.30338e-05
-2.55674e-05
7.77013e-05
-2.92396e-05
9.44791e-05
-3.29465e-05
0.000113478
-3.66988e-05
0.000134644
-4.02623e-05
0.000157801
-4.35461e-05
0.000182789
-4.64318e-05
0.000209317
-4.86752e-05
0.000236991
-5.02302e-05
0.000265256
-5.08281e-05
0.00029372
-5.04918e-05
0.000321693
-4.8936e-05
0.000348482
-4.61062e-05
0.000373345
-4.19348e-05
0.000395514
-3.63948e-05
0.000414215
-2.94996e-05
0.000428691
-2.13134e-05
0.000438241
-1.19628e-05
0.000442141
-1.56169e-06
0.00043988
9.72474e-06
0.000431134
2.15052e-05
0.000415696
3.34471e-05
0.000393495
4.53821e-05
0.000364413
5.6965e-05
0.000328523
6.7913e-05
0.000286137
7.79138e-05
0.000237792
8.67415e-05
0.000184291
9.41365e-05
0.000126673
9.98901e-05
6.61483e-05
0.000103907
4.10759e-06
0.000106038
-5.79726e-05
0.000106273
-0.000118639
0.000104597
-0.000176535
0.000101003
-0.000230438
9.55803e-05
-0.000279328
8.8469e-05
-0.000322399
7.97872e-05
-0.000359083
6.98294e-05
-0.000389035
5.88562e-05
-0.000412201
4.72132e-05
-0.000428493
3.51584e-05
-0.000438032
2.30637e-05
-0.000441046
1.12139e-05
-0.000437875
-2.17035e-07
-0.000429068
-1.06844e-05
-0.000415304
-2.01233e-05
-0.000397286
-2.83845e-05
-0.000375763
-3.53568e-05
-0.000351498
-4.09853e-05
-0.000325244
-4.52623e-05
-0.000297744
-4.82e-05
-0.000269668
-4.9905e-05
-0.000241659
-5.04273e-05
-0.000214198
-4.99406e-05
-0.000187739
-4.86083e-05
-0.00016276
-4.64971e-05
-0.000139464
-4.38301e-05
-0.000118119
-4.06888e-05
-9.87751e-05
-3.72817e-05
-8.16302e-05
-3.36478e-05
-6.65405e-05
-3.00343e-05
-5.35917e-05
-2.63668e-05
-4.26424e-05
-2.28766e-05
-3.35613e-05
-1.95916e-05
-2.61356e-05
-1.66567e-05
-2.01646e-05
-1.40817e-05
-1.54465e-05
-1.18543e-05
-1.17207e-05
-1.00661e-05
-8.66811e-06
-8.88021e-06
-5.44988e-06
-9.13169e-06
-1.25894e-05
4.3475e-06
-1.64267e-05
6.1167e-06
-1.0355e-05
7.75363e-06
-9.95861e-06
1.00425e-05
-1.17587e-05
1.33575e-05
-1.44746e-05
1.79334e-05
-1.79081e-05
2.40222e-05
-2.20116e-05
3.18311e-05
-2.66613e-05
4.16037e-05
-3.18368e-05
5.3489e-05
-3.74524e-05
6.76183e-05
-4.33686e-05
8.41418e-05
-4.94696e-05
0.000103008
-5.55646e-05
0.00012423
-6.14843e-05
0.000147732
-6.70481e-05
0.00017323
-7.19295e-05
0.000200518
-7.59638e-05
0.000229132
-7.88437e-05
0.000258709
-8.04055e-05
0.000288562
-8.03453e-05
0.00031814
-7.85145e-05
0.000346673
-7.46396e-05
0.000373379
-6.86402e-05
0.000397434
-6.04502e-05
0.000418
-5.00652e-05
0.000434254
-3.75674e-05
0.000445405
-2.31131e-05
0.000450762
-6.91821e-06
0.000449589
1.08989e-05
0.000441625
2.94705e-05
0.000426489
4.85839e-05
0.000404058
6.78142e-05
0.000374298
8.67251e-05
0.000337482
0.000104729
0.000293924
0.000121472
0.000244204
0.000136461
0.000189159
0.000149181
0.00012985
0.000159199
6.7585e-05
0.000166172
3.75604e-06
0.000169867
-6.01091e-05
0.000170138
-0.0001225
0.000166988
-0.000182067
0.00016057
-0.000237449
0.000150962
-0.00028765
0.000138671
-0.000331848
0.000123985
-0.000369378
0.00010736
-0.00039985
8.93289e-05
-0.000423019
7.03816e-05
-0.000438932
5.10715e-05
-0.00044764
3.17708e-05
-0.00044945
1.30219e-05
-0.000444846
-4.82187e-06
-0.000434407
-2.11236e-05
-0.000418862
-3.56676e-05
-0.00039899
-4.82548e-05
-0.000375604
-5.8741e-05
-0.000349536
-6.70528e-05
-0.000321595
-7.32026e-05
-0.000292512
-7.72833e-05
-0.000263046
-7.93704e-05
-0.000233841
-7.9633e-05
-0.000205396
-7.83852e-05
-0.00017825
-7.57545e-05
-0.000152711
-7.20355e-05
-0.000129105
-6.74367e-05
-0.000107644
-6.21501e-05
-8.84806e-05
-5.64446e-05
-7.16037e-05
-5.05248e-05
-5.71113e-05
-4.45267e-05
-4.48236e-05
-3.86543e-05
-3.45824e-05
-3.31172e-05
-2.62701e-05
-2.79033e-05
-1.97525e-05
-2.31737e-05
-1.47957e-05
-1.90381e-05
-1.11765e-05
-1.54727e-05
-8.57538e-06
-1.26658e-05
-6.63495e-06
-1.08196e-05
-4.56566e-06
-1.12018e-05
-1.71541e-05
3.66365e-06
-2.00902e-05
4.61487e-06
-1.13058e-05
5.42752e-06
-1.07709e-05
6.92381e-06
-1.32546e-05
9.46373e-06
-1.70141e-05
1.33468e-05
-2.17907e-05
1.87279e-05
-2.73922e-05
2.59452e-05
-3.38782e-05
3.52006e-05
-4.10917e-05
4.67089e-05
-4.89602e-05
6.06066e-05
-5.72658e-05
7.70474e-05
-6.59101e-05
9.60827e-05
-7.45997e-05
0.000117694
-8.30954e-05
0.000141712
-9.1066e-05
0.000168056
-9.82738e-05
0.000196416
-0.000104325
0.00022642
-0.000108848
0.000257595
-0.000111581
0.00028929
-0.000112041
0.000320845
-0.00011007
0.000351495
-0.00010529
0.000380382
-9.7527e-05
0.000406608
-8.6675e-05
0.000429254
-7.27103e-05
0.000447415
-5.57278e-05
0.000460229
-3.59262e-05
0.000466916
-1.36049e-05
0.000466773
1.10425e-05
0.000459201
3.70439e-05
0.000444005
6.37801e-05
0.000420909
9.09099e-05
0.000390108
0.000117526
0.000351697
0.00014314
0.00030619
0.000166978
0.000254279
0.000188372
0.000196903
0.000206556
0.000135187
0.000220915
7.04433e-05
0.000230915
4.12768e-06
0.000236182
-6.2281e-05
0.000236546
-0.000127247
0.000231955
-0.000189363
0.000222686
-0.000247266
0.000208865
-0.000299805
0.00019121
-0.000346079
0.000170258
-0.000385266
0.000146547
-0.000416878
0.00012094
-0.000440716
9.4219e-05
-0.000456619
6.69732e-05
-0.0004649
4.00517e-05
-0.000465769
1.38897e-05
-0.000459774
-1.08156e-05
-0.000447653
-3.32436e-05
-0.000430192
-5.31268e-05
-0.000408242
-7.02039e-05
-0.00038271
-8.4273e-05
-0.000354488
-9.52739e-05
-0.00032445
-0.000103241
-0.00029344
-0.000108294
-0.000262217
-0.000110594
-0.00023142
-0.000110429
-0.000201635
-0.00010817
-0.000173369
-0.00010402
-0.000146988
-9.84164e-05
-0.000122789
-9.16349e-05
-0.00010091
-8.40287e-05
-8.15797e-05
-7.57752e-05
-6.47246e-05
-6.73798e-05
-5.04339e-05
-5.88173e-05
-3.83858e-05
-5.07019e-05
-2.865e-05
-4.28523e-05
-2.09277e-05
-3.56245e-05
-1.50689e-05
-2.90312e-05
-1.08782e-05
-2.32273e-05
-7.95297e-06
-1.83965e-05
-6.14442e-06
-1.44732e-05
-5.05662e-06
-1.19078e-05
-3.8433e-06
-1.24159e-05
-2.09963e-05
2.78781e-06
-2.28778e-05
2.81101e-06
-1.13286e-05
2.58614e-06
-1.05457e-05
3.11439e-06
-1.37825e-05
4.70033e-06
-1.85996e-05
7.61302e-06
-2.47029e-05
1.21882e-05
-3.19669e-05
1.86883e-05
-4.03777e-05
2.73523e-05
-4.97551e-05
3.83611e-05
-5.99685e-05
5.19518e-05
-7.0856e-05
6.83013e-05
-8.22591e-05
8.7516e-05
-9.38141e-05
0.000109612
-0.000105192
0.000134501
-0.000115955
0.000162018
-0.000125791
0.00019192
-0.000134227
0.000223843
-0.000140772
0.000257177
-0.000144915
0.000291384
-0.000146248
0.000325735
-0.00014442
0.00035937
-0.000138924
0.000391333
-0.00012949
0.000420643
-0.000115984
0.00044628
-9.83465e-05
0.000467204
-7.66519e-05
0.000482466
-5.11881e-05
0.000491178
-2.23175e-05
0.00049248
9.74123e-06
0.000485681
4.3842e-05
0.000470666
7.87953e-05
0.000447068
0.000114507
0.000415003
0.00014959
0.000374646
0.000183497
0.000326496
0.000215128
0.000271431
0.000243437
0.000210364
0.000267623
0.000144551
0.000286728
7.54038e-05
0.000300062
4.54243e-06
0.000307044
-6.64594e-05
0.000307548
-0.000135912
0.000301408
-0.000202236
0.000289009
-0.000264027
0.000270656
-0.000319947
0.00024713
-0.000368915
0.000219226
-0.000410227
0.000187857
-0.000443204
0.000153917
-0.000467617
0.000118633
-0.000483376
8.27337e-05
-0.000490797
4.74734e-05
-0.000490166
1.32599e-05
-0.000482124
-1.88573e-05
-0.000467542
-4.78252e-05
-0.0004473
-7.33677e-05
-0.000422396
-9.51084e-05
-0.000393816
-0.000112854
-0.000362562
-0.000126528
-0.000329602
-0.000136202
-0.000295858
-0.000142037
-0.000262161
-0.00014429
-0.000229171
-0.000143419
-0.000197534
-0.000139807
-0.000167724
-0.000133829
-0.000140155
-0.000125986
-0.000115122
-0.000116667
-9.28227e-05
-0.000106328
-7.31308e-05
-9.54668e-05
-5.63523e-05
-8.41583e-05
-4.20712e-05
-7.30984e-05
-3.04419e-05
-6.23311e-05
-2.12457e-05
-5.20483e-05
-1.42863e-05
-4.25836e-05
-9.26986e-06
-3.40473e-05
-5.87933e-06
-2.66175e-05
-3.967e-06
-2.03085e-05
-3.15694e-06
-1.52835e-05
-3.11683e-06
-1.1949e-05
-2.97001e-06
-1.2562e-05
-2.39663e-05
1.70856e-06
-2.45862e-05
3.90892e-07
-1.00104e-05
-1.03349e-06
-9.12082e-06
-1.84669e-06
-1.29688e-05
-1.44122e-06
-1.90045e-05
2.95017e-07
-2.64387e-05
3.79635e-06
-3.54677e-05
9.29791e-06
-4.58788e-05
1.70847e-05
-5.75414e-05
2.74572e-05
-7.03405e-05
4.0639e-05
-8.40374e-05
5.68528e-05
-9.84724e-05
7.61787e-05
-0.00011314
9.88671e-05
-0.00012788
0.000124772
-0.000141859
0.000153745
-0.000154764
0.000185541
-0.000166022
0.000219801
-0.000175032
0.000256068
-0.000181181
0.000293608
-0.000183786
0.000331568
-0.00018238
0.000369118
-0.000176473
0.000405173
-0.000165545
0.000438615
-0.000149427
0.000468239
-0.000127971
0.000492925
-0.000101338
0.000511513
-6.97775e-05
0.000523001
-3.38059e-05
0.000526322
6.42031e-06
0.000520817
4.93469e-05
0.000506029
9.35832e-05
0.000481907
0.000138629
0.000448299
0.000183198
0.000405498
0.000226298
0.000354089
0.000266537
0.000294814
0.000302711
0.000228777
0.00033366
0.000157351
0.000358154
8.21623e-05
0.000375251
4.99699e-06
0.000384209
-7.22909e-05
0.000384837
-0.00014783
0.000376947
-0.000219888
0.000361067
-0.000286795
0.000337563
-0.000347188
0.000307524
-0.000399781
0.000271819
-0.000443665
0.000231742
-0.000478283
0.000188535
-0.000503369
0.00014372
-0.00051883
9.81968e-05
-0.000524869
5.35138e-05
-0.000522126
1.05165e-05
-0.000511265
-2.97185e-05
-0.000493316
-6.57742e-05
-0.000469346
-9.73383e-05
-0.000440454
-0.000124001
-0.000407805
-0.000145503
-0.00037254
-0.000161794
-0.000335754
-0.000172988
-0.000298477
-0.000179314
-0.000261523
-0.000181243
-0.000225705
-0.000179236
-0.000191676
-0.000173836
-0.000159969
-0.000165536
-0.000130959
-0.000154996
-0.000104874
-0.000142752
-8.18387e-05
-0.000129364
-6.19772e-05
-0.000115328
-4.51525e-05
-0.000100983
-3.13594e-05
-8.6892e-05
-2.04051e-05
-7.32858e-05
-1.19678e-05
-6.04858e-05
-5.80307e-06
-4.87488e-05
-1.76511e-06
-3.80858e-05
4.59979e-07
-2.88431e-05
1.13036e-06
-2.09794e-05
6.54835e-07
-1.48084e-05
-6.2562e-07
-1.06686e-05
-1.80316e-06
-1.13828e-05
-2.57705e-05
3.76921e-07
-2.49629e-05
-2.50514e-06
-7.1277e-06
-5.54057e-06
-6.08478e-06
-7.81366e-06
-1.06951e-05
-9.01322e-06
-1.78044e-05
-8.70226e-06
-2.67492e-05
-6.6204e-06
-3.75492e-05
-2.40889e-06
-5.00899e-05
4.29525e-06
-6.42451e-05
1.37909e-05
-7.98357e-05
2.63671e-05
-9.66132e-05
4.23036e-05
-0.000114408
6.18608e-05
-0.000132696
8.50122e-05
-0.000151031
0.000111973
-0.000168819
0.000142629
-0.00018542
0.00017677
-0.000200162
0.000213997
-0.000212258
0.000253772
-0.000220956
0.000295436
-0.00022545
0.000338032
-0.000224976
0.000380518
-0.00021896
0.00042182
-0.000206847
0.000460527
-0.000188135
0.000495328
-0.000162772
0.000524853
-0.000130864
0.000547789
-9.27135e-05
0.000562838
-4.88553e-05
0.000569146
1.1306e-07
0.000565376
5.3117e-05
0.000550992
0.000107968
0.000526156
0.000163466
0.000490676
0.000218677
0.000444815
0.000272159
0.000389121
0.000322231
0.00032447
0.000367362
0.000252131
0.000405999
0.000173607
0.000436679
9.07523e-05
0.000458106
5.62065e-06
0.000469341
-7.97419e-05
0.0004702
-0.000163088
0.000460294
-0.000242412
0.000440391
-0.000315948
0.000411099
-0.000381947
0.000373523
-0.000439112
0.000328985
-0.000486345
0.000278975
-0.000523027
0.000225217
-0.000548677
0.00016937
-0.000563657
0.000113177
-0.00056791
5.77676e-05
-0.000562223
4.82905e-06
-0.00054762
-4.43216e-05
-0.000525266
-8.81295e-05
-0.000496425
-0.000126179
-0.000462407
-0.000158018
-0.00042455
-0.000183359
-0.000384187
-0.000202156
-0.000342556
-0.000214619
-0.000300748
-0.000221122
-0.000259815
-0.000222176
-0.00022052
-0.00021853
-0.00018361
-0.000210747
-0.000149621
-0.000199526
-0.000118879
-0.000185738
-9.16073e-05
-0.000170024
-6.79031e-05
-0.000153068
-4.77779e-05
-0.000135454
-3.11265e-05
-0.000117635
-1.7775e-05
-0.000100244
-7.54416e-06
-8.35163e-05
-8.58151e-12
-6.80295e-05
4.92404e-06
-5.36725e-05
7.5396e-06
-4.07011e-05
8.30609e-06
-2.96098e-05
7.40457e-06
-2.00781e-05
5.34335e-06
-1.27467e-05
2.43453e-06
-7.75827e-06
-3.90668e-07
-8.55636e-06
-2.61612e-05
-1.16283e-06
-2.37997e-05
-5.91815e-06
-2.37148e-06
-1.0805e-05
-1.19719e-06
-1.49676e-05
-6.53185e-06
-1.7991e-05
-1.47805e-05
-1.95214e-05
-2.52183e-05
-1.91852e-05
-3.78851e-05
-1.65961e-05
-5.26787e-05
-1.13548e-05
-6.94861e-05
-3.02917e-06
-8.8161e-05
8.80925e-06
-0.000108451
2.41614e-05
-0.00012976
4.36651e-05
-0.0001522
6.7403e-05
-0.000174768
9.55554e-05
-0.000196971
0.00012811
-0.000217974
0.000164909
-0.000236961
0.00020564
-0.00025299
0.000249654
-0.00026497
0.000296304
-0.000272101
0.000344583
-0.000273256
0.00039328
-0.000267658
0.000441102
-0.00025467
0.000486518
-0.000233553
0.000527897
-0.000204151
0.000563644
-0.000166611
0.000592116
-0.000121185
0.000611893
-6.86322e-05
0.000621736
-9.72946e-06
0.000620214
5.46391e-05
0.000606815
0.000121367
0.000581069
0.000189212
0.000543348
0.000256398
0.000493733
0.000321775
0.000432847
0.000383117
0.000361644
0.000438565
0.000281398
0.000486247
0.000193879
0.000524198
0.000101409
0.000550577
6.35147e-06
0.000564399
-8.89279e-05
0.000565479
-0.00018205
0.000553417
-0.000270581
0.000528922
-0.000352374
0.000492893
-0.00042551
0.00044666
-0.000488344
0.000391819
-0.000539683
0.000330315
-0.000578758
0.000264291
-0.000605199
0.00019581
-0.000619007
0.000126984
-0.000620927
5.96881e-05
-0.000611343
-4.75496e-06
-0.000591906
-6.3759e-05
-0.000563895
-0.00011614
-0.000528852
-0.000161221
-0.000488355
-0.000198514
-0.000443995
-0.000227719
-0.000397226
-0.000248924
-0.00034962
-0.000262225
-0.000302329
-0.000268412
-0.000256468
-0.000268037
-0.000213023
-0.000261976
-0.000172706
-0.000251065
-0.000136065
-0.000236168
-0.000103365
-0.000218439
-7.48127e-05
-0.000198577
-5.04446e-05
-0.000177436
-3.01745e-05
-0.000155723
-1.37905e-05
-0.000134019
-1.05516e-06
-0.000112978
8.24902e-06
-9.2819e-05
1.43923e-05
-7.41711e-05
1.77816e-05
-5.70602e-05
1.87497e-05
-4.1668e-05
1.7701e-05
-2.85602e-05
1.49797e-05
-1.7356e-05
1.09689e-05
-8.7344e-06
6.08998e-06
-2.87716e-06
1.26762e-06
-3.73419e-06
-2.48919e-05
-2.97668e-06
-2.08225e-05
-9.87103e-06
4.52397e-06
-1.69555e-05
5.88814e-06
-2.3257e-05
-2.29581e-07
-2.84711e-05
-9.56593e-06
-3.22059e-05
-2.1483e-05
-3.4001e-05
-3.60897e-05
-3.34313e-05
-5.32482e-05
-3.0048e-05
-7.28692e-05
-2.33723e-05
-9.48364e-05
-1.29569e-05
-0.000118867
1.81754e-06
-0.000144534
2.11624e-05
-0.000171544
4.53853e-05
-0.000198991
7.47674e-05
-0.000226353
0.000109432
-0.000252639
0.000149269
-0.000276799
0.000193944
-0.000297664
0.00024305
-0.000314077
0.000295768
-0.00032482
0.000350944
-0.000328433
0.000407287
-0.000324
0.000463087
-0.00031047
0.000516775
-0.000287241
0.000566353
-0.00025373
0.000609882
-0.000210139
0.000645414
-0.000156717
0.000671191
-9.44091e-05
0.000685631
-2.41693e-05
0.000687024
5.3246e-05
0.000674955
0.000133436
0.000648668
0.000215499
0.000607964
0.000297102
0.000553822
0.000375918
0.000486543
0.000450397
0.000407168
0.000517941
0.00031722
0.000576194
0.000218767
0.000622652
0.000114433
0.000654911
7.27773e-06
0.000671554
-0.000100232
0.000672989
-0.000205265
0.00065845
-0.000305204
0.000628861
-0.000397263
0.000584952
-0.000479207
0.000528605
-0.000549087
0.000461699
-0.000605413
0.000386641
-0.000647308
0.000306185
-0.000674233
0.000222734
-0.000686778
0.00013953
-0.000685379
5.82898e-05
-0.000670725
-1.94083e-05
-0.000644983
-8.95006e-05
-0.000609768
-0.000151355
-0.000566945
-0.000204044
-0.000518369
-0.00024709
-0.000465934
-0.000280153
-0.000411482
-0.000303376
-0.000356463
-0.000317245
-0.000302452
-0.000322423
-0.000250823
-0.000319668
-0.000202538
-0.000310262
-0.000158376
-0.000295228
-0.000118605
-0.000275939
-8.37486e-05
-0.000253295
-5.38721e-05
-0.000228453
-2.88851e-05
-0.000202423
-8.60246e-06
-0.000176005
7.30865e-06
-0.000149929
1.90602e-05
-0.000124729
2.70007e-05
-0.000100758
3.15188e-05
-7.86878e-05
3.30417e-05
-5.8582e-05
3.19835e-05
-4.06086e-05
2.87694e-05
-2.53448e-05
2.38785e-05
-1.24634e-05
1.75755e-05
-2.4297e-06
1.03759e-05
4.32368e-06
3.24767e-06
3.39346e-06
-2.1643e-05
-5.02935e-06
-1.57925e-05
-1.43517e-05
1.38475e-05
-2.39066e-05
1.54439e-05
-3.27477e-05
8.61233e-06
-4.04583e-05
-1.85477e-06
-4.68333e-05
-1.51076e-05
-5.11839e-05
-3.17388e-05
-5.30935e-05
-5.13382e-05
-5.20523e-05
-7.39101e-05
-4.74626e-05
-9.94259e-05
-3.86754e-05
-0.000127654
-2.51008e-05
-0.000158109
-6.33644e-06
-0.000190309
1.8244e-05
-0.000223572
4.87697e-05
-0.000256879
8.56279e-05
-0.000289497
0.000128803
-0.000319973
0.000178046
-0.000346907
0.000233
-0.00036903
0.000292712
-0.000384532
0.0003562
-0.00039192
0.00042173
-0.00038953
0.000487543
-0.000376282
0.000551484
-0.000351182
0.000611293
-0.000313538
0.000664533
-0.000263378
0.000708893
-0.000201077
0.000742252
-0.000127769
0.000762695
-4.46128e-05
0.000768122
4.78184e-05
0.000757577
0.000143981
0.000730233
0.000242843
0.000686576
0.000340759
0.000626972
0.000435522
0.00055208
0.000525289
0.00046304
0.000606981
0.000361301
0.000677933
0.000249242
0.000734711
0.0001302
0.000773953
8.0918e-06
0.000793662
-0.000114167
0.000795248
-0.000233709
0.000777993
-0.000347475
0.000742627
-0.000452167
0.000689643
-0.000544943
0.00062138
-0.000623488
0.000540244
-0.000685946
0.000449099
-0.000731168
0.000351408
-0.00075862
0.000250186
-0.000768513
0.000149423
-0.000762825
5.26027e-05
-0.000741605
-4.06279e-05
-0.000707888
-0.000123218
-0.000663664
-0.000195579
-0.000611118
-0.00025659
-0.00055262
-0.000305587
-0.000490249
-0.000342525
-0.00042624
-0.000367386
-0.000362348
-0.000381137
-0.00030055
-0.000384222
-0.000241997
-0.000378222
-0.000188018
-0.00036424
-0.000139308
-0.000343938
-9.63276e-05
-0.000318919
-5.92152e-05
-0.000290406
-2.81298e-05
-0.000259538
-2.58993e-06
-0.000227962
1.75082e-05
-0.000196103
3.25591e-05
-0.00016498
4.29422e-05
-0.000135112
4.91906e-05
-0.000107006
5.16379e-05
-8.11348e-05
5.08516e-05
-5.77959e-05
4.74227e-05
-3.71794e-05
4.16405e-05
-1.95614e-05
3.41173e-05
-4.93846e-06
2.51757e-05
6.51296e-06
1.53092e-05
1.419e-05
5.52712e-06
1.31762e-05
-1.61158e-05
-7.30772e-06
-8.48406e-06
-1.9323e-05
2.58638e-05
-3.16517e-05
2.77736e-05
-4.33759e-05
2.03373e-05
-5.41096e-05
8.87958e-06
-6.32974e-05
-5.91922e-06
-7.07474e-05
-2.42881e-05
-7.57255e-05
-4.63597e-05
-7.76092e-05
-7.2026e-05
-7.56954e-05
-0.00010134
-6.91305e-05
-0.000134219
-5.72591e-05
-0.00016998
-3.94293e-05
-0.000208139
-1.49659e-05
-0.000248035
1.6765e-05
-0.00028861
5.55907e-05
-0.000328322
0.000102354
-0.000366737
0.000156651
-0.000401203
0.000218211
-0.00043059
0.000286238
-0.000452558
0.000359476
-0.000465158
0.000436283
-0.000466336
0.00051425
-0.000454249
0.000590752
-0.000427684
0.000663243
-0.000386029
0.000728565
-0.0003287
0.000783944
-0.000256455
0.000826807
-0.000170632
0.000854835
-7.26406e-05
0.000865616
3.70374e-05
0.000857101
0.000152496
0.000829486
0.000270458
0.000782118
0.000388128
0.000715946
0.000501694
0.000631927
0.000609308
0.000531045
0.000707863
0.000414673
0.000794305
0.000285357
0.000864027
0.000148124
0.000911186
8.85967e-06
0.000932927
-0.000130526
0.000934634
-0.000267938
0.000915406
-0.000398862
0.000873552
-0.00051911
0.000809891
-0.00062537
0.00072764
-0.000714605
0.000629479
-0.000784472
0.000518967
-0.000833353
0.000400291
-0.000860941
0.000277773
-0.000867671
0.000156153
-0.000855205
4.01362e-05
-0.000825611
-7.02218e-05
-0.000781816
-0.000167014
-0.000726339
-0.000251055
-0.000661801
-0.000321129
-0.000590963
-0.000376425
-0.000516634
-0.000416854
-0.000440981
-0.00044304
-0.000366592
-0.000455526
-0.00029527
-0.000455545
-0.000228827
-0.000444665
-0.000168369
-0.000424698
-0.00011473
-0.000397577
-6.8283e-05
-0.000365365
-2.92483e-05
-0.00032944
3.34556e-06
-0.000292131
2.90858e-05
-0.000253701
4.86287e-05
-0.000215645
6.24179e-05
-0.000178769
7.10544e-05
-0.000143749
7.50914e-05
-0.000111043
7.49958e-05
-8.10397e-05
7.14701e-05
-5.42708e-05
6.50879e-05
-3.07967e-05
5.63173e-05
-1.07895e-05
4.5754e-05
5.6258e-06
3.37685e-05
1.84983e-05
2.0879e-05
2.70791e-05
8.1177e-06
2.59393e-05
-7.99801e-06
-9.75374e-06
1.27038e-06
-2.47124e-05
4.08234e-05
-4.00838e-05
4.31457e-05
-5.49909e-05
3.52452e-05
-6.90628e-05
2.29521e-05
-8.18253e-05
6.84401e-06
-9.28576e-05
-1.32551e-05
-0.000101574
-3.76432e-05
-0.000107051
-6.65485e-05
-0.000108391
-9.99995e-05
-0.000104922
-0.000137687
-9.54169e-05
-0.000179485
-7.91021e-05
-0.000224454
-5.52573e-05
-0.00027188
-2.30296e-05
-0.000320838
1.8463e-05
-0.000369815
6.85074e-05
-0.000416782
0.000128203
-0.000460899
0.000197204
-0.000499591
0.000274798
-0.000530153
0.000359657
-0.000550018
0.000449775
-0.000556454
0.000542595
-0.00054707
0.000634826
-0.000519915
0.000722768
-0.000473971
0.000803051
-0.000408983
0.000872075
-0.000325479
0.000926671
-0.000225228
0.000964249
-0.000110218
0.000982224
1.90626e-05
0.000976996
0.000157725
0.000949483
0.000297971
0.000897969
0.000439642
0.000823997
0.000575666
0.000729312
0.000703992
0.000614526
0.000822648
0.000480531
0.0009283
0.000330246
0.00101431
0.00017041
0.00107102
9.01563e-06
0.00109432
-0.000151519
0.00109517
-0.000310069
0.00107396
-0.000461587
0.00102507
-0.000600859
0.000949164
-0.000723701
0.000850482
-0.000826246
0.000732024
-0.000905245
0.000597967
-0.000958075
0.000453121
-0.000984666
0.000304363
-0.000986844
0.000158331
-0.000964962
1.82533e-05
-0.000924535
-0.000110648
-0.000868006
-0.000223544
-0.000798529
-0.000320531
-0.000719261
-0.000400397
-0.000633595
-0.000462091
-0.000544413
-0.000506036
-0.000455053
-0.0005324
-0.00036808
-0.000542499
-0.000285786
-0.00053784
-0.000210017
-0.000520434
-0.000142211
-0.000492504
-8.31327e-05
-0.000456656
-3.32324e-05
-0.000415265
8.41913e-06
-0.000371092
4.1529e-05
-0.000325242
6.69498e-05
-0.000279123
8.54088e-05
-0.000234105
9.74199e-05
-0.000190781
0.000103786
-0.000150114
0.000104939
-0.000112195
0.000101891
-7.79915e-05
9.50563e-05
-4.74367e-05
8.51303e-05
-2.08706e-05
7.28977e-05
1.44395e-06
5.87853e-05
1.9738e-05
4.33416e-05
3.39416e-05
2.70562e-05
4.33656e-05
1.09259e-05
4.20711e-05
2.9284e-06
-1.23832e-05
1.36541e-05
-3.04289e-05
5.88699e-05
-4.90614e-05
6.17789e-05
-6.74552e-05
5.36397e-05
-8.52845e-05
4.07821e-05
-0.000102136
2.36962e-05
-0.000117423
2.0323e-06
-0.000130481
-2.45843e-05
-0.000140592
-5.64375e-05
-0.000146345
-9.42463e-05
-0.000146561
-0.00013747
-0.000140386
-0.000185661
-0.000126451
-0.000238388
-0.000103776
-0.000294556
-7.16033e-05
-0.000353012
-2.89075e-05
-0.000412511
2.5249e-05
-0.000470939
9.08749e-05
-0.000526525
0.000167955
-0.000576673
0.000256481
-0.000618679
0.000355036
-0.000648573
0.000461232
-0.000662649
0.000571823
-0.000657662
0.000682987
-0.000631079
0.000790291
-0.000581275
0.000889133
-0.000507825
0.000975357
-0.000411704
0.00104512
-0.000294989
0.00109515
-0.000160248
0.00112295
-8.74117e-06
0.00112271
0.000157965
0.00109446
0.000326227
0.00103838
0.000495718
0.00095516
0.000658886
0.000848223
0.000810929
0.000717661
0.000953211
0.000563691
0.00108227
0.000389063
0.00118894
0.000201514
0.00125857
1.02984e-05
0.00128554
-0.000178191
0.00128366
-0.000362678
0.00125844
-0.000539134
0.00120153
-0.000701521
0.00111155
-0.000845009
0.000993971
-0.000964249
0.000851264
-0.0010539
0.000687616
-0.00111105
0.000510271
-0.00113515
0.000328461
-0.00112853
0.000151717
-0.00109478
-1.5495e-05
-0.00104007
-0.00016536
-0.000967483
-0.000296132
-0.000880731
-0.000407284
-0.000783639
-0.000497489
-0.000679691
-0.000566039
-0.000573127
-0.000612601
-0.000467222
-0.000638305
-0.000365131
-0.00064459
-0.000269659
-0.000633312
-0.000183197
-0.000606896
-0.000107406
-0.000568295
-4.2866e-05
-0.000521196
1.0907e-05
-0.000469039
5.39428e-05
-0.000414129
8.72015e-05
-0.000358503
0.000111856
-0.000303779
0.000128555
-0.000250803
0.000138289
-0.000200515
0.000141473
-0.000153298
0.000139416
-0.000110138
0.000132469
-7.1045e-05
0.000121632
-3.65991e-05
0.000107688
-6.92635e-06
9.13053e-05
1.78267e-05
7.3164e-05
3.78785e-05
5.38375e-05
5.32685e-05
3.38196e-05
6.33857e-05
1.40899e-05
6.18018e-05
1.70179e-05
-1.50739e-05
2.87285e-05
-3.63034e-05
8.00999e-05
-5.83549e-05
8.38308e-05
-8.05001e-05
7.57855e-05
-0.000102497
6.27794e-05
-0.000123985
4.5185e-05
-0.00014438
2.24274e-05
-0.00016288
-6.08296e-06
-0.000178263
-4.10544e-05
-0.000189448
-8.30612e-05
-0.000194804
-0.000132114
-0.000193097
-0.000187367
-0.000182457
-0.000249028
-0.000162056
-0.000314957
-0.000130385
-0.000384683
-8.66607e-05
-0.000456236
-2.96392e-05
-0.000527961
4.15785e-05
-0.000597743
0.000127641
-0.000662735
0.000228578
-0.000719617
0.000343133
-0.000763129
0.000468467
-0.000787983
0.000600772
-0.000789968
0.000735986
-0.000766294
0.00086965
-0.000714939
0.000995345
-0.000633519
0.00110658
-0.000522942
0.00119751
-0.000385918
0.00126404
-0.000226781
0.00130315
-4.78524e-05
0.00130899
0.000152131
0.00128092
0.000354292
0.00121722
0.00055942
0.00112304
0.000753066
0.00100182
0.000932149
0.000851879
0.00110315
0.000672266
0.00126189
0.000468268
0.00139294
0.000248868
0.00147797
2.00257e-05
0.00151438
-0.000207538
0.00151122
-0.000427173
0.00147808
-0.000637623
0.00141198
-0.000830933
0.00130486
-0.00100002
0.00116305
-0.00113876
0.000990005
-0.00124106
0.000789922
-0.00130211
0.000571315
-0.00132173
0.000348088
-0.0013046
0.000134588
-0.00125487
-6.5232e-05
-0.00118112
-0.00023911
-0.00108736
-0.000389894
-0.000977629
-0.000517012
-0.00085645
-0.000618668
-0.000729255
-0.000693233
-0.000601085
-0.00074077
-0.000475647
-0.000763743
-0.000355947
-0.000764291
-0.000245121
-0.000744139
-0.000146277
-0.00070574
-6.15218e-05
-0.000653051
8.83444e-06
-0.000591553
6.52249e-05
-0.000525429
0.000109051
-0.000457956
0.000141704
-0.000391158
0.000164617
-0.000326692
0.000178852
-0.000265039
0.000185212
-0.000206874
0.000184886
-0.000152972
0.000178477
-0.000103729
0.000167028
-5.95986e-05
0.000151439
-2.10099e-05
0.000132671
1.18427e-05
0.000111481
3.90182e-05
8.87491e-05
6.06105e-05
6.51099e-05
7.69102e-05
4.10392e-05
8.74572e-05
1.74533e-05
8.53882e-05
3.44703e-05
-1.77121e-05
4.64409e-05
-4.21017e-05
0.00010449
-6.76272e-05
0.000109357
-9.37112e-05
0.00010187
-0.000120238
8.93069e-05
-0.000146936
7.18827e-05
-0.000173247
4.8739e-05
-0.000198158
1.88285e-05
-0.000220508
-1.87036e-05
-0.000238579
-6.49904e-05
-0.0002505
-0.000120192
-0.000254335
-0.000183533
-0.000248463
-0.0002549
-0.000231177
-0.000332243
-0.000201255
-0.000414604
-0.000157472
-0.000500019
-9.83861e-05
-0.000587047
-2.22504e-05
-0.000673879
7.28203e-05
-0.000757806
0.000187448
-0.000834246
0.000320927
-0.000896608
0.000470232
-0.000937288
0.000632031
-0.000951766
0.000803378
-0.00093764
0.000977432
-0.000888993
0.0011413
-0.000797392
0.00128368
-0.000665319
0.00139916
-0.000501391
0.00148645
-0.000314069
0.00154386
-0.000105269
0.00156094
0.000135051
0.00153481
0.000380421
0.00146222
0.000632015
0.00135047
0.000864816
0.0012118
0.00107082
0.00104159
0.00127336
0.00083356
0.00146991
0.00059115
0.00163535
0.000324948
0.00174417
3.91905e-05
0.00180014
-0.000254098
0.00180451
-0.000529036
0.00175302
-0.000777862
0.0016608
-0.000998353
0.00152535
-0.00119465
0.00135935
-0.00136382
0.00115917
-0.0014907
0.00091681
-0.00156129
0.000641904
-0.00157423
0.00036102
-0.0015391
9.94645e-05
-0.00146659
-0.000137741
-0.00136786
-0.000337846
-0.00124714
-0.000510617
-0.0011071
-0.000657049
-0.000952313
-0.000773453
-0.000790523
-0.000855023
-0.000631148
-0.000900145