/*--------------------------------*- C++ -*----------------------------------*\
| =========                 |                                                 |
| \\      /  F ield         | OpenFOAM: The Open Source CFD Toolbox           |
|  \\    /   O peration     | Version:  2412                                  |
|   \\  /    A nd           | Website:  www.openfoam.com                      |
|    \\/     M anipulation  |                                                 |
\*---------------------------------------------------------------------------*/
FoamFile
{
    version     2.0;
    format      ascii;
    arch        "LSB;label=32;scalar=64";
    class       volScalarField;
    location    "8";
    object      p;
}
// * * * * * * * * * * * * * * * * * * * * * * * * * * * * * * * * * * * * * //

dimensions      [1 -1 -2 0 0 0 0];

internalField   nonuniform List<scalar> 
6400
(
12104.6
12104.7
12104.9
12105.3
12105.8
12106.3
12106.9
12107.4
12108
12108.4
12108.8
12109.2
12109.5
12109.7
12109.8
12109.9
12109.9
12109.7
12109.5
12109.2
12108.8
12108.2
12107.5
12106.6
12105.5
12104.2
12102.7
12101.1
12099.2
12097.1
12094.9
12092.6
12090.2
12087.8
12085.6
12083.6
12081.8
12080.5
12079.5
12079.1
12079.2
12079.8
12080.8
12082.3
12084.1
12086.2
12088.5
12090.9
12093.3
12095.6
12097.8
12099.8
12101.7
12103.3
12104.8
12106
12107
12107.9
12108.6
12109.2
12109.6
12110
12110.2
12110.3
12110.3
12110.3
12110.2
12110
12109.7
12109.4
12108.9
12108.5
12108
12107.4
12106.9
12106.4
12105.9
12105.5
12105.3
12105.2
11486.5
11486.6
11486.8
11487.1
11487.6
11488
11488.5
11489
11489.5
11489.9
11490.3
11490.6
11490.8
11491
11491.2
11491.2
11491.2
11491
11490.8
11490.5
11490.1
11489.5
11488.8
11488
11486.9
11485.7
11484.4
11482.8
11481.1
11479.2
11477.2
11475.1
11472.9
11470.8
11468.9
11467.1
11465.5
11464.3
11463.5
11463.1
11463.2
11463.7
11464.6
11466
11467.6
11469.4
11471.5
11473.6
11475.7
11477.8
11479.8
11481.7
11483.4
11484.9
11486.3
11487.4
11488.4
11489.3
11490
11490.5
11490.9
11491.3
11491.5
11491.6
11491.7
11491.6
11491.5
11491.3
11491.1
11490.8
11490.4
11490
11489.5
11489.1
11488.6
11488.1
11487.7
11487.4
11487.2
11487.1
10868.3
10868.4
10868.6
10868.9
10869.3
10869.7
10870.1
10870.5
10870.9
10871.3
10871.6
10871.9
10872.2
10872.3
10872.5
10872.5
10872.5
10872.3
10872.1
10871.8
10871.4
10870.9
10870.2
10869.4
10868.5
10867.4
10866.1
10864.7
10863.1
10861.4
10859.5
10857.7
10855.8
10853.9
10852.1
10850.5
10849.2
10848.1
10847.4
10847.1
10847.1
10847.6
10848.4
10849.6
10851
10852.7
10854.5
10856.4
10858.3
10860.2
10862
10863.7
10865.2
10866.6
10867.9
10869
10869.9
10870.7
10871.3
10871.9
10872.3
10872.6
10872.8
10872.9
10873
10872.9
10872.8
10872.7
10872.4
10872.2
10871.8
10871.5
10871.1
10870.6
10870.2
10869.8
10869.4
10869.1
10868.9
10868.8
10249.9
10250
10250.3
10250.6
10250.9
10251.3
10251.7
10252.1
10252.5
10252.8
10253.1
10253.4
10253.6
10253.8
10253.9
10253.9
10253.9
10253.8
10253.6
10253.3
10252.9
10252.4
10251.8
10251.1
10250.2
10249.2
10248
10246.7
10245.2
10243.6
10242
10240.2
10238.5
10236.8
10235.1
10233.7
10232.4
10231.5
10230.8
10230.5
10230.5
10231
10231.7
10232.8
10234.1
10235.6
10237.3
10239
10240.8
10242.5
10244.2
10245.8
10247.2
10248.5
10249.7
10250.7
10251.5
10252.3
10252.9
10253.4
10253.7
10254
10254.2
10254.3
10254.4
10254.3
10254.2
10254.1
10253.9
10253.6
10253.3
10253
10252.6
10252.2
10251.9
10251.5
10251.1
10250.8
10250.6
10250.4
9631.34
9631.56
9631.86
9632.19
9632.55
9632.92
9633.3
9633.67
9634.02
9634.35
9634.64
9634.89
9635.1
9635.25
9635.35
9635.4
9635.38
9635.29
9635.13
9634.88
9634.54
9634.1
9633.54
9632.87
9632.07
9631.13
9630.05
9628.83
9627.48
9626.02
9624.45
9622.82
9621.17
9619.54
9617.99
9616.59
9615.39
9614.45
9613.82
9613.52
9613.57
9613.98
9614.71
9615.74
9617.01
9618.47
9620.05
9621.71
9623.38
9625.01
9626.57
9628.02
9629.36
9630.56
9631.62
9632.54
9633.33
9633.99
9634.54
9634.98
9635.32
9635.57
9635.74
9635.84
9635.86
9635.83
9635.74
9635.59
9635.4
9635.16
9634.88
9634.56
9634.21
9633.85
9633.48
9633.11
9632.75
9632.42
9632.13
9631.9
9012.76
9013.06
9013.42
9013.79
9014.16
9014.54
9014.91
9015.27
9015.61
9015.92
9016.2
9016.44
9016.64
9016.79
9016.9
9016.95
9016.95
9016.89
9016.75
9016.55
9016.26
9015.88
9015.39
9014.8
9014.08
9013.23
9012.24
9011.12
9009.86
9008.48
9007
9005.43
9003.82
9002.23
9000.7
8999.3
8998.1
8997.15
8996.5
8996.2
8996.26
8996.67
8997.41
8998.44
8999.72
9001.17
9002.74
9004.35
9005.97
9007.53
9009.01
9010.38
9011.62
9012.73
9013.7
9014.53
9015.24
9015.83
9016.31
9016.69
9016.99
9017.2
9017.34
9017.41
9017.42
9017.38
9017.28
9017.14
9016.95
9016.72
9016.45
9016.15
9015.82
9015.47
9015.1
9014.73
9014.36
9013.99
9013.64
9013.33
8394.16
8394.54
8394.97
8395.37
8395.77
8396.17
8396.54
8396.9
8397.23
8397.53
8397.8
8398.03
8398.22
8398.38
8398.49
8398.56
8398.58
8398.55
8398.46
8398.3
8398.07
8397.76
8397.35
8396.84
8396.21
8395.46
8394.57
8393.54
8392.37
8391.05
8389.61
8388.07
8386.47
8384.85
8383.27
8381.82
8380.55
8379.55
8378.86
8378.54
8378.6
8379.03
8379.82
8380.92
8382.25
8383.76
8385.36
8387
8388.6
8390.14
8391.56
8392.86
8394.02
8395.04
8395.91
8396.65
8397.27
8397.78
8398.18
8398.5
8398.73
8398.9
8399
8399.04
8399.03
8398.97
8398.87
8398.73
8398.54
8398.32
8398.06
8397.77
8397.45
8397.1
8396.73
8396.35
8395.95
8395.55
8395.12
8394.74
7775.55
7776.01
7776.51
7776.97
7777.4
7777.8
7778.19
7778.54
7778.87
7779.16
7779.42
7779.65
7779.85
7780.01
7780.13
7780.22
7780.27
7780.27
7780.23
7780.13
7779.97
7779.74
7779.42
7779
7778.48
7777.83
7777.04
7776.1
7775
7773.74
7772.33
7770.78
7769.12
7767.42
7765.73
7764.15
7762.76
7761.64
7760.88
7760.51
7760.57
7761.06
7761.94
7763.15
7764.61
7766.24
7767.95
7769.66
7771.31
7772.84
7774.24
7775.48
7776.56
7777.48
7778.25
7778.89
7779.41
7779.82
7780.14
7780.38
7780.55
7780.66
7780.72
7780.72
7780.69
7780.61
7780.5
7780.36
7780.17
7779.96
7779.71
7779.42
7779.11
7778.76
7778.38
7777.97
7777.55
7777.1
7776.6
7776.14
7156.97
7157.51
7158.07
7158.58
7159.04
7159.47
7159.86
7160.22
7160.54
7160.83
7161.08
7161.3
7161.5
7161.67
7161.8
7161.91
7161.99
7162.04
7162.05
7162.02
7161.94
7161.8
7161.58
7161.27
7160.87
7160.33
7159.66
7158.82
7157.8
7156.58
7155.17
7153.57
7151.82
7149.97
7148.09
7146.3
7144.7
7143.4
7142.51
7142.08
7142.15
7142.72
7143.74
7145.14
7146.82
7148.65
7150.55
7152.39
7154.12
7155.69
7157.06
7158.25
7159.24
7160.06
7160.73
7161.25
7161.66
7161.96
7162.19
7162.34
7162.43
7162.48
7162.48
7162.45
7162.39
7162.29
7162.17
7162.02
7161.84
7161.62
7161.38
7161.1
7160.79
7160.44
7160.05
7159.62
7159.16
7158.66
7158.1
7157.56
6538.43
6539.03
6539.67
6540.22
6540.72
6541.17
6541.57
6541.93
6542.24
6542.52
6542.77
6542.98
6543.18
6543.35
6543.5
6543.63
6543.75
6543.84
6543.92
6543.96
6543.96
6543.92
6543.82
6543.65
6543.37
6542.98
6542.43
6541.71
6540.78
6539.61
6538.19
6536.52
6534.61
6532.53
6530.37
6528.26
6526.35
6524.79
6523.7
6523.18
6523.26
6523.95
6525.18
6526.87
6528.86
6531.01
6533.18
6535.24
6537.1
6538.72
6540.09
6541.21
6542.11
6542.81
6543.34
6543.73
6544
6544.19
6544.3
6544.35
6544.36
6544.34
6544.29
6544.21
6544.11
6544
6543.86
6543.71
6543.53
6543.32
6543.09
6542.82
6542.51
6542.15
6541.75
6541.31
6540.81
6540.26
6539.63
6539.02
5919.93
5920.61
5921.32
5921.92
5922.45
5922.92
5923.33
5923.69
5923.99
5924.26
5924.49
5924.69
5924.88
5925.06
5925.22
5925.38
5925.53
5925.67
5925.81
5925.93
5926.04
5926.11
5926.15
5926.12
5926
5925.77
5925.38
5924.81
5923.99
5922.88
5921.45
5919.67
5917.55
5915.15
5912.58
5910.02
5907.66
5905.72
5904.36
5903.7
5903.8
5904.66
5906.21
5908.3
5910.75
5913.35
5915.91
5918.26
5920.31
5922.01
5923.36
5924.41
5925.18
5925.73
5926.09
5926.32
5926.44
5926.48
5926.47
5926.41
5926.33
5926.23
5926.11
5925.99
5925.86
5925.73
5925.58
5925.42
5925.25
5925.05
5924.83
5924.57
5924.27
5923.92
5923.51
5923.04
5922.51
5921.91
5921.21
5920.53
5301.51
5302.26
5303.03
5303.69
5304.26
5304.74
5305.16
5305.51
5305.79
5306.04
5306.25
5306.44
5306.61
5306.78
5306.96
5307.13
5307.32
5307.51
5307.72
5307.93
5308.14
5308.35
5308.53
5308.67
5308.74
5308.71
5308.53
5308.14
5307.47
5306.46
5305.04
5303.14
5300.75
5297.91
5294.76
5291.55
5288.55
5286.06
5284.31
5283.47
5283.6
5284.71
5286.69
5289.36
5292.46
5295.71
5298.81
5301.56
5303.83
5305.62
5306.94
5307.87
5308.47
5308.83
5308.99
5309.02
5308.96
5308.84
5308.68
5308.5
5308.31
5308.13
5307.95
5307.78
5307.62
5307.47
5307.32
5307.16
5307
5306.82
5306.62
5306.38
5306.09
5305.75
5305.34
5304.85
5304.29
5303.64
5302.87
5302.12
4683.15
4683.98
4684.83
4685.54
4686.14
4686.65
4687.06
4687.39
4687.66
4687.88
4688.06
4688.22
4688.38
4688.54
4688.71
4688.9
4689.12
4689.36
4689.64
4689.95
4690.28
4690.62
4690.98
4691.31
4691.6
4691.81
4691.88
4691.74
4691.3
4690.45
4689.07
4687.06
4684.33
4680.91
4676.96
4672.83
4668.91
4665.64
4663.34
4662.23
4662.41
4663.87
4666.47
4669.97
4673.99
4678.12
4681.97
4685.24
4687.79
4689.65
4690.89
4691.64
4692.02
4692.12
4692.03
4691.82
4691.54
4691.23
4690.91
4690.6
4690.3
4690.03
4689.79
4689.57
4689.38
4689.22
4689.07
4688.93
4688.78
4688.63
4688.46
4688.25
4687.99
4687.67
4687.26
4686.76
4686.17
4685.46
4684.62
4683.8
4064.86
4065.78
4066.71
4067.48
4068.12
4068.64
4069.04
4069.35
4069.58
4069.76
4069.9
4070.02
4070.15
4070.29
4070.46
4070.66
4070.91
4071.21
4071.56
4071.96
4072.41
4072.92
4073.46
4074.02
4074.57
4075.07
4075.47
4075.67
4075.55
4074.96
4073.73
4071.65
4068.54
4064.35
4059.29
4053.83
4048.61
4044.22
4041.15
4039.68
4039.93
4041.88
4045.36
4050.01
4055.34
4060.73
4065.59
4069.52
4072.37
4074.23
4075.31
4075.78
4075.84
4075.6
4075.2
4074.7
4074.17
4073.64
4073.15
4072.69
4072.28
4071.92
4071.61
4071.35
4071.14
4070.96
4070.82
4070.7
4070.59
4070.48
4070.35
4070.19
4069.97
4069.67
4069.28
4068.78
4068.15
4067.38
4066.45
4065.55
3446.63
3447.66
3448.7
3449.54
3450.2
3450.71
3451.09
3451.35
3451.53
3451.64
3451.73
3451.81
3451.9
3452.01
3452.17
3452.38
3452.65
3453
3453.42
3453.93
3454.51
3455.19
3455.94
3456.75
3457.61
3458.47
3459.28
3459.93
3460.28
3460.13
3459.21
3457.19
3453.7
3448.54
3441.95
3434.63
3427.53
3421.57
3417.45
3415.48
3415.84
3418.49
3423.18
3429.47
3436.64
3443.78
3450
3454.73
3457.83
3459.56
3460.3
3460.35
3459.94
3459.27
3458.47
3457.63
3456.81
3456.05
3455.36
3454.75
3454.22
3453.77
3453.39
3453.09
3452.85
3452.67
3452.55
3452.46
3452.39
3452.33
3452.26
3452.16
3452
3451.76
3451.39
3450.89
3450.23
3449.39
3448.36
3447.33
2828.45
2829.65
2830.82
2831.72
2832.4
2832.88
2833.19
2833.37
2833.46
2833.49
2833.5
2833.51
2833.55
2833.63
2833.77
2833.98
2834.28
2834.67
2835.16
2835.77
2836.5
2837.36
2838.34
2839.44
2840.64
2841.94
2843.27
2844.52
2845.54
2846.06
2845.74
2844.06
2840.29
2833.94
2825.27
2815.3
2805.54
2797.38
2791.81
2789.17
2789.67
2793.29
2799.69
2808.29
2818.09
2827.7
2835.73
2841.36
2844.54
2845.86
2845.98
2845.37
2844.33
2843.09
2841.8
2840.55
2839.4
2838.38
2837.49
2836.72
2836.07
2835.52
2835.08
2834.74
2834.48
2834.31
2834.2
2834.14
2834.13
2834.14
2834.15
2834.13
2834.06
2833.89
2833.58
2833.1
2832.41
2831.48
2830.3
2829.11
2210.26
2211.7
2213.06
2214.06
2214.74
2215.15
2215.35
2215.4
2215.36
2215.27
2215.17
2215.1
2215.07
2215.11
2215.22
2215.43
2215.74
2216.18
2216.75
2217.47
2218.35
2219.39
2220.62
2222.03
2223.63
2225.43
2227.4
2229.45
2231.4
2232.98
2233.76
2233
2229.27
2221.34
2209.53
2195.51
2181.74
2170.37
2162.81
2159.2
2159.86
2164.79
2173.57
2185.6
2199.46
2212.95
2223.73
2230.46
2233.27
2233.57
2232.61
2230.99
2229.06
2227.07
2225.17
2223.44
2221.92
2220.63
2219.53
2218.6
2217.81
2217.17
2216.66
2216.27
2216
2215.83
2215.74
2215.74
2215.78
2215.87
2215.98
2216.07
2216.11
2216.05
2215.83
2215.39
2214.68
2213.64
2212.26
2210.81
1591.76
1593.69
1595.38
1596.53
1597.23
1597.56
1597.61
1597.5
1597.3
1597.06
1596.84
1596.67
1596.57
1596.56
1596.65
1596.85
1597.19
1597.68
1598.33
1599.16
1600.2
1601.46
1602.96
1604.7
1606.73
1609.12
1611.92
1615.05
1618.37
1621.65
1624.63
1626.35
1623.65
1613.11
1595.51
1574.46
1554.33
1538.42
1528.5
1523.57
1524.24
1530.76
1542.59
1559.58
1580.12
1600.59
1616.58
1624.92
1626.05
1623.86
1620.85
1617.64
1614.44
1611.45
1608.76
1606.43
1604.48
1602.89
1601.59
1600.49
1599.55
1598.8
1598.21
1597.77
1597.47
1597.3
1597.24
1597.28
1597.4
1597.59
1597.81
1598.04
1598.23
1598.32
1598.22
1597.85
1597.09
1595.9
1594.18
1592.24
972.48
976.046
978.379
979.695
980.347
980.487
980.29
979.909
979.457
979.007
978.607
978.29
978.075
977.977
977.998
978.152
978.468
978.969
979.664
980.567
981.715
983.157
984.894
986.901
989.283
992.264
995.982
1000.41
1005.48
1011.18
1017.91
1025.06
1026.22
1013.75
988.102
957.569
930.315
910.17
899.938
893.73
894.08
901.958
915.86
937.475
965.509
995.858
1018.05
1026.71
1023.13
1015.92
1009.63
1004.28
999.508
995.345
991.778
988.813
986.464
984.683
983.273
982.054
981.005
980.168
979.539
979.089
978.805
978.675
978.685
978.817
979.055
979.384
979.787
980.23
980.664
981.015
981.17
980.974
980.258
978.879
976.498
972.924
355.508
365.778
371.33
374.162
375.59
376.108
376.088
375.785
375.351
374.874
374.408
373.989
373.641
373.381
373.211
373.146
373.224
373.471
373.892
374.498
375.328
376.447
377.834
379.443
381.359
383.799
387.024
391.059
395.943
401.833
410.019
421.475
430.722
439.925
453.684
463.905
466.754
467.819
469.451
467.944
467.583
469.19
469.265
468.374
463.649
448.12
434.229
428.344
418.255
407.624
400.321
394.896
390.306
386.504
383.4
380.904
379.009
377.659
376.574
375.604
374.784
374.192
373.812
373.602
373.543
373.623
373.824
374.12
374.491
374.923
375.394
375.871
376.296
376.58
376.572
376.013
374.532
371.639
366.032
355.742
19.8417
27.334
31.333
33.4738
34.5859
35.0766
35.2172
35.1654
35.0074
34.7914
34.5478
34.2959
34.0504
33.8234
33.6278
33.482
33.3671
33.2971
33.2884
33.3605
33.5201
33.7721
34.1425
34.7145
35.4995
36.1585
36.9444
38.0257
39.5524
41.6843
44.9728
49.407
56.8806
94.7844
171.094
228.768
263.268
286.405
299.089
303.093
302.398
297.013
282.713
257.825
218.719
149.837
79.5908
54.5216
48.3986
44.2993
41.2995
39.2941
37.8126
36.7113
36.0185
35.4772
35.0037
34.5098
33.9306
33.5898
33.4075
33.3192
33.3242
33.4036
33.5381
33.7167
33.9257
34.1595
34.4131
34.6709
34.9187
35.1363
35.2941
35.3424
35.1941
34.6921
33.5631
31.4005
27.3814
19.8776
-10.5405
-10.5405
-10.5405
-10.5405
-10.5405
-10.5405
-10.5406
-10.5407
-10.5409
-10.5412
-10.5416
-10.5419
-10.5427
-10.5437
-10.5365
-10.5053
-10.5017
-10.5205
-10.5452
-10.5538
-10.5512
-10.5516
-10.5358
-10.3609
-9.98952
-9.97268
-10.1074
-10.1951
-10.0557
-9.59593
-8.68028
-8.17498
-6.86068
8.49716
55.7604
110.609
142.749
163.619
175.447
174.805
174.106
173.367
161.284
139.314
100.539
41.3705
2.64434
-6.93291
-8.15448
-8.66732
-9.63481
-10.1112
-10.2515
-10.26
-9.9939
-9.81008
-9.77841
-10.001
-10.412
-10.5464
-10.5526
-10.5612
-10.5551
-10.5392
-10.5275
-10.5228
-10.5312
-10.5402
-10.5408
-10.5413
-10.5418
-10.5419
-10.5416
-10.5413
-10.5411
-10.5409
-10.5407
-10.5406
-10.5405
-10.5405
-11.0309
-11.031
-11.031
-11.031
-11.031
-11.0311
-11.0312
-11.0313
-11.0314
-11.0316
-11.0317
-11.0317
-11.0316
-11.0318
-11.0312
-11.028
-11.0243
-11.0292
-11.0383
-11.0413
-11.0405
-11.0417
-11.0402
-11.0177
-10.875
-10.7319
-10.6894
-10.6789
-10.6108
-10.3918
-9.95171
-9.56835
-9.24697
-8.84176
-0.920786
16.328
25.8677
33.3875
38.6142
32.8615
32.6254
37.1735
33.2138
26.0529
13.4726
-4.42544
-8.69637
-9.18773
-9.5379
-9.95341
-10.5
-10.6904
-10.7312
-10.715
-10.6513
-10.6159
-10.6863
-10.8953
-11.0308
-11.0388
-11.0377
-11.0424
-11.0423
-11.0379
-11.0327
-11.03
-11.0289
-11.0286
-11.03
-11.0314
-11.032
-11.0322
-11.032
-11.0318
-11.0316
-11.0314
-11.0313
-11.0311
-11.0311
-11.031
-11.5216
-11.5216
-11.5215
-11.5215
-11.5216
-11.5216
-11.5217
-11.5218
-11.5221
-11.5224
-11.5228
-11.5232
-11.5242
-11.525
-11.5239
-11.52
-11.519
-11.5239
-11.5303
-11.5325
-11.5322
-11.5327
-11.5334
-11.5304
-11.4888
-11.4162
-11.3301
-11.2896
-11.2706
-11.2625
-11.1271
-11.0011
-11.0185
-11.3296
-11.5681
-11.4242
-11.4737
-11.4993
-10.4843
-11.5204
-11.5217
-11.1415
-11.521
-11.5205
-11.52
-11.5473
-11.2361
-10.9726
-10.9542
-11.0797
-11.3107
-11.3286
-11.3117
-11.3092
-11.3093
-11.3408
-11.4188
-11.4958
-11.5315
-11.5312
-11.5339
-11.5383
-11.536
-11.5303
-11.5253
-11.5217
-11.5212
-11.5218
-11.5221
-11.5225
-11.523
-11.523
-11.5228
-11.5224
-11.5222
-11.522
-11.5218
-11.5217
-11.5216
-11.5216
-12.0121
-12.0121
-12.0121
-12.0121
-12.0121
-12.0121
-12.0122
-12.0123
-12.0125
-12.0128
-12.0132
-12.0137
-12.0149
-12.0165
-12.0167
-12.0138
-12.0138
-12.02
-12.0236
-12.0229
-12.0229
-12.0237
-12.0247
-12.0259
-12.027
-12.0182
-11.9801
-11.9679
-11.9703
-11.9962
-12.0019
-11.9865
-12.0298
-12.018
-12.0032
-11.9695
-11.9626
-11.9835
-12.0108
-12.0086
-12.0091
-12.0102
-12.0105
-12.0102
-12.0098
-12.0102
-12.042
-12.0214
-11.9812
-12.0065
-11.9818
-11.9612
-11.9553
-11.9649
-11.9477
-11.9716
-12.0142
-12.0214
-12.0209
-12.0205
-12.0242
-12.0297
-12.028
-12.0261
-12.0246
-12.0219
-12.0194
-12.0159
-12.0141
-12.0142
-12.0146
-12.014
-12.0134
-12.0131
-12.0128
-12.0125
-12.0123
-12.0122
-12.0121
-12.0121
-12.5027
-12.5027
-12.5027
-12.5027
-12.5027
-12.5027
-12.5027
-12.5028
-12.5029
-12.5032
-12.5036
-12.5041
-12.5053
-12.507
-12.5074
-12.5072
-12.509
-12.5151
-12.5141
-12.5122
-12.5132
-12.5146
-12.5162
-12.5187
-12.5218
-12.5224
-12.515
-12.5099
-12.5098
-12.5064
-12.5022
-12.5008
-12.5028
-12.5013
-12.4996
-12.4929
-12.4897
-12.4963
-12.5014
-12.5003
-12.5018
-12.5018
-12.5018
-12.5015
-12.501
-12.5
-12.5002
-12.5009
-12.4961
-12.4956
-12.4971
-12.5041
-12.5062
-12.5023
-12.5012
-12.5072
-12.5139
-12.5127
-12.5094
-12.5079
-12.5119
-12.522
-12.5266
-12.5267
-12.5238
-12.5204
-12.5169
-12.5124
-12.5075
-12.5058
-12.5064
-12.5054
-12.5043
-12.5037
-12.5034
-12.5031
-12.5029
-12.5028
-12.5027
-12.5027
-12.9934
-12.9934
-12.9933
-12.9933
-12.9933
-12.9933
-12.9933
-12.9933
-12.9934
-12.9936
-12.9939
-12.9943
-12.9952
-12.9963
-12.9973
-12.9992
-13.0017
-13.0036
-13.0052
-13.0062
-13.0076
-13.0087
-13.0094
-13.01
-13.0101
-13.0084
-13.0048
-13.0013
-12.9988
-12.9969
-12.9953
-12.9942
-12.9938
-12.9939
-12.9945
-12.9957
-12.9975
-12.9923
-12.9907
-12.9915
-12.9923
-12.9929
-12.9925
-12.992
-12.9913
-12.9903
-12.989
-12.9882
-12.9871
-12.986
-12.9849
-12.9894
-12.9982
-13.0004
-12.9996
-12.9998
-13.0021
-13.0033
-13.0022
-12.9998
-13.0007
-13.0113
-13.0203
-13.0216
-13.0198
-13.0164
-13.0116
-13.0076
-13.0011
-12.9986
-12.9979
-12.9966
-12.9952
-12.9945
-12.9941
-12.9938
-12.9936
-12.9934
-12.9934
-12.9933
-13.4841
-13.4841
-13.484
-13.484
-13.484
-13.4839
-13.4839
-13.4838
-13.4838
-13.4839
-13.484
-13.4842
-13.4845
-13.4847
-13.4857
-13.4882
-13.4931
-13.4971
-13.4999
-13.5029
-13.5051
-13.5061
-13.5059
-13.5049
-13.5029
-13.4996
-13.4957
-13.4925
-13.4897
-13.4874
-13.4857
-13.4849
-13.4847
-13.4845
-13.4843
-13.4846
-13.4855
-13.4857
-13.4835
-13.4832
-13.4833
-13.4832
-13.4829
-13.4825
-13.4818
-13.4807
-13.4799
-13.4797
-13.4786
-13.478
-13.4788
-13.4804
-13.4828
-13.4852
-13.4868
-13.4898
-13.4946
-13.4996
-13.5033
-13.506
-13.5085
-13.5137
-13.5169
-13.5145
-13.5093
-13.5018
-13.4974
-13.5
-13.4954
-13.4911
-13.4886
-13.4874
-13.4861
-13.4853
-13.4848
-13.4845
-13.4843
-13.4842
-13.4841
-13.4841
-13.9748
-13.9748
-13.9748
-13.9747
-13.9747
-13.9746
-13.9745
-13.9744
-13.9743
-13.9742
-13.9742
-13.9741
-13.9739
-13.9736
-13.9741
-13.9764
-13.9821
-13.9894
-13.9959
-14.0011
-14.0041
-14.0048
-14.0035
-14.0005
-13.9965
-13.992
-13.9877
-13.9841
-13.9812
-13.9789
-13.9772
-13.9761
-13.9756
-13.9754
-13.9753
-13.9753
-13.9754
-13.9753
-13.9751
-13.9744
-13.9739
-13.9737
-13.9735
-13.9732
-13.9725
-13.9715
-13.9708
-13.9702
-13.9696
-13.9692
-13.9693
-13.9703
-13.9728
-13.9763
-13.9801
-13.9851
-13.9923
-14.0012
-14.0099
-14.0165
-14.0203
-14.0206
-14.0161
-14.007
-13.9964
-13.9869
-13.9812
-13.9853
-13.9868
-13.9819
-13.9784
-13.9777
-13.9767
-13.976
-13.9755
-13.9753
-13.9751
-13.9749
-13.9749
-13.9748
-14.4656
-14.4656
-14.4655
-14.4655
-14.4654
-14.4653
-14.4652
-14.4651
-14.465
-14.4648
-14.4645
-14.4643
-14.4637
-14.4629
-14.4631
-14.4667
-14.4748
-14.4856
-14.4964
-14.5054
-14.5108
-14.5114
-14.5074
-14.5005
-14.4929
-14.486
-14.4805
-14.4761
-14.4728
-14.4703
-14.4685
-14.4673
-14.4665
-14.466
-14.4658
-14.4658
-14.466
-14.4663
-14.4661
-14.4653
-14.4645
-14.4643
-14.4641
-14.4638
-14.4633
-14.4626
-14.462
-14.4616
-14.4613
-14.4612
-14.4615
-14.4627
-14.4649
-14.4683
-14.4732
-14.4807
-14.4927
-14.5088
-14.5251
-14.5366
-14.5404
-14.5355
-14.523
-14.5055
-14.4874
-14.4721
-14.4651
-14.4709
-14.4761
-14.4715
-14.4676
-14.4675
-14.4671
-14.4666
-14.4663
-14.466
-14.4659
-14.4658
-14.4657
-14.4657
-14.9564
-14.9564
-14.9563
-14.9563
-14.9562
-14.9562
-14.956
-14.9559
-14.9557
-14.9555
-14.9552
-14.9548
-14.954
-14.9529
-14.9533
-14.9593
-14.9714
-14.9869
-15.0029
-15.0167
-15.0251
-15.0257
-15.0187
-15.0065
-14.9931
-14.982
-14.9741
-14.9687
-14.9647
-14.9618
-14.9598
-14.9584
-14.9575
-14.9568
-14.9564
-14.9562
-14.9562
-14.9564
-14.9566
-14.956
-14.9552
-14.955
-14.9548
-14.9546
-14.9542
-14.9538
-14.9534
-14.9532
-14.9531
-14.9532
-14.9537
-14.955
-14.9574
-14.9614
-14.968
-14.9794
-14.9985
-15.0247
-15.0509
-15.0682
-15.0716
-15.0606
-15.0385
-15.0109
-14.9841
-14.9618
-14.9511
-14.9574
-14.9655
-14.9611
-14.9575
-14.9574
-14.9575
-14.9572
-14.957
-14.9568
-14.9567
-14.9566
-14.9565
-14.9565
-15.4472
-15.4472
-15.4472
-15.4472
-15.4471
-15.447
-15.4469
-15.4468
-15.4466
-15.4464
-15.4461
-15.4457
-15.445
-15.4439
-15.4449
-15.4534
-15.47
-15.4911
-15.5134
-15.5338
-15.547
-15.5486
-15.5383
-15.5191
-15.4979
-15.4803
-15.4686
-15.4615
-15.4567
-15.4533
-15.4511
-15.4495
-15.4484
-15.4477
-15.4471
-15.4468
-15.4468
-15.4469
-15.4471
-15.4467
-15.446
-15.4458
-15.4457
-15.4455
-15.4453
-15.445
-15.4448
-15.4448
-15.4449
-15.4453
-15.4461
-15.4477
-15.4505
-15.4553
-15.4635
-15.479
-15.5059
-15.5424
-15.5781
-15.6005
-15.6038
-15.5875
-15.5564
-15.5194
-15.4844
-15.455
-15.441
-15.4506
-15.4573
-15.4514
-15.4483
-15.4479
-15.448
-15.4479
-15.4477
-15.4476
-15.4475
-15.4475
-15.4474
-15.4474
-15.9381
-15.9381
-15.9381
-15.938
-15.938
-15.938
-15.9379
-15.9378
-15.9377
-15.9375
-15.9373
-15.9371
-15.9366
-15.936
-15.9377
-15.948
-15.9687
-15.9953
-16.0241
-16.0518
-16.0712
-16.0751
-16.0621
-16.0355
-16.0054
-15.9802
-15.9636
-15.9542
-15.9485
-15.9447
-15.9422
-15.9405
-15.9393
-15.9385
-15.9379
-15.9375
-15.9374
-15.9374
-15.9376
-15.9374
-15.9369
-15.9367
-15.9366
-15.9365
-15.9363
-15.9363
-15.9363
-15.9364
-15.9367
-15.9373
-15.9384
-15.9403
-15.9435
-15.9488
-15.9581
-15.9765
-16.0087
-16.0521
-16.0936
-16.119
-16.1225
-16.1034
-16.0671
-16.0244
-15.9848
-15.9503
-15.9389
-15.9495
-15.9488
-15.9425
-15.9399
-15.939
-15.9389
-15.9387
-15.9386
-15.9385
-15.9384
-15.9383
-15.9383
-15.9383
-16.429
-16.429
-16.4289
-16.4289
-16.4289
-16.4289
-16.4289
-16.4289
-16.4288
-16.4288
-16.4288
-16.4288
-16.4287
-16.4288
-16.4311
-16.4422
-16.4651
-16.4959
-16.5294
-16.5623
-16.5866
-16.5933
-16.5793
-16.5475
-16.51
-16.4787
-16.4577
-16.4462
-16.4399
-16.4358
-16.4332
-16.4314
-16.4302
-16.4294
-16.4287
-16.4283
-16.4281
-16.4281
-16.4282
-16.4282
-16.4277
-16.4276
-16.4275
-16.4275
-16.4275
-16.4275
-16.4277
-16.4279
-16.4284
-16.4293
-16.4306
-16.4327
-16.436
-16.4414
-16.4505
-16.4689
-16.5014
-16.5461
-16.5887
-16.6145
-16.6182
-16.5992
-16.5628
-16.5201
-16.4814
-16.4495
-16.443
-16.4435
-16.4374
-16.4336
-16.4318
-16.4304
-16.43
-16.4297
-16.4296
-16.4294
-16.4293
-16.4293
-16.4292
-16.4292
-16.9198
-16.9198
-16.9198
-16.9199
-16.9199
-16.9199
-16.9199
-16.92
-16.9201
-16.9202
-16.9203
-16.9206
-16.921
-16.9217
-16.9246
-16.9349
-16.9573
-16.9892
-17.0242
-17.0582
-17.0837
-17.0926
-17.079
-17.0459
-17.0056
-16.9718
-16.9491
-16.9368
-16.9304
-16.9264
-16.9239
-16.9221
-16.921
-16.9201
-16.9196
-16.9191
-16.9189
-16.9188
-16.9189
-16.9189
-16.9186
-16.9185
-16.9185
-16.9185
-16.9186
-16.9187
-16.919
-16.9194
-16.92
-16.921
-16.9224
-16.9246
-16.928
-16.933
-16.9407
-16.9566
-16.9849
-17.0245
-17.0633
-17.0875
-17.0913
-17.0743
-17.0415
-17.0031
-16.9681
-16.9452
-16.9394
-16.9317
-16.927
-16.9251
-16.9232
-16.9219
-16.9212
-16.9208
-16.9206
-16.9204
-16.9203
-16.9202
-16.9201
-16.9201
-17.4107
-17.4107
-17.4107
-17.4108
-17.4108
-17.4109
-17.411
-17.4111
-17.4113
-17.4116
-17.4119
-17.4125
-17.4132
-17.4145
-17.4174
-17.4254
-17.444
-17.4731
-17.5064
-17.5382
-17.5618
-17.5696
-17.5587
-17.5283
-17.4902
-17.4581
-17.4371
-17.4258
-17.4202
-17.4166
-17.4143
-17.4127
-17.4116
-17.4109
-17.4103
-17.4099
-17.4097
-17.4096
-17.4096
-17.4096
-17.4095
-17.4094
-17.4094
-17.4095
-17.4096
-17.4099
-17.4102
-17.4107
-17.4115
-17.4125
-17.414
-17.4161
-17.4192
-17.4235
-17.4298
-17.4414
-17.4617
-17.4909
-17.5213
-17.5416
-17.5454
-17.5316
-17.5047
-17.4729
-17.445
-17.432
-17.4276
-17.4216
-17.418
-17.4167
-17.4146
-17.4132
-17.4124
-17.4119
-17.4116
-17.4113
-17.4112
-17.4111
-17.411
-17.411
-17.9016
-17.9016
-17.9016
-17.9017
-17.9018
-17.9019
-17.902
-17.9022
-17.9025
-17.9029
-17.9034
-17.9042
-17.9053
-17.9069
-17.9097
-17.9152
-17.9277
-17.9495
-17.977
-18.0038
-18.0237
-18.0304
-18.0208
-17.9956
-17.9648
-17.9391
-17.9226
-17.9137
-17.9093
-17.9064
-17.9045
-17.9032
-17.9022
-17.9016
-17.9011
-17.9007
-17.9005
-17.9004
-17.9004
-17.9004
-17.9003
-17.9003
-17.9003
-17.9005
-17.9007
-17.901
-17.9014
-17.9019
-17.9027
-17.9038
-17.9052
-17.9072
-17.91
-17.9137
-17.9187
-17.9264
-17.9385
-17.9555
-17.9739
-17.9868
-17.9889
-17.9796
-17.9613
-17.9401
-17.9236
-17.9177
-17.9148
-17.9124
-17.9103
-17.9079
-17.9057
-17.9043
-17.9035
-17.9029
-17.9025
-17.9022
-17.9021
-17.9019
-17.9019
-17.9018
-18.3924
-18.3925
-18.3925
-18.3926
-18.3927
-18.3928
-18.393
-18.3933
-18.3937
-18.3941
-18.3948
-18.3957
-18.397
-18.3987
-18.4013
-18.4051
-18.4124
-18.4256
-18.4436
-18.4623
-18.4761
-18.48
-18.4724
-18.4551
-18.4349
-18.4182
-18.4072
-18.4013
-18.3982
-18.3961
-18.3946
-18.3935
-18.3928
-18.3922
-18.3918
-18.3915
-18.3913
-18.3911
-18.3912
-18.3912
-18.3912
-18.3912
-18.3912
-18.3914
-18.3916
-18.392
-18.3924
-18.393
-18.3938
-18.3948
-18.3962
-18.398
-18.4004
-18.4035
-18.4076
-18.4129
-18.42
-18.4286
-18.4373
-18.4427
-18.4421
-18.4369
-18.4275
-18.417
-18.4094
-18.407
-18.405
-18.4029
-18.4005
-18.3982
-18.3964
-18.3952
-18.3944
-18.3938
-18.3934
-18.3931
-18.3929
-18.3928
-18.3927
-18.3926
-18.8833
-18.8833
-18.8833
-18.8834
-18.8836
-18.8837
-18.884
-18.8843
-18.8847
-18.8852
-18.8859
-18.8869
-18.8882
-18.8899
-18.8921
-18.895
-18.8991
-18.9056
-18.9146
-18.9243
-18.9314
-18.9328
-18.9283
-18.9194
-18.9086
-18.8992
-18.8928
-18.8893
-18.8873
-18.8858
-18.8847
-18.8839
-18.8833
-18.8828
-18.8825
-18.8822
-18.882
-18.8819
-18.8819
-18.8819
-18.882
-18.882
-18.8821
-18.8823
-18.8825
-18.8829
-18.8833
-18.8839
-18.8847
-18.8857
-18.8869
-18.8885
-18.8906
-18.8932
-18.8964
-18.9004
-18.9052
-18.9102
-18.9145
-18.9166
-18.9155
-18.9123
-18.9077
-18.9027
-18.8988
-18.8968
-18.8946
-18.8923
-18.8901
-18.8883
-18.8869
-18.8859
-18.8852
-18.8846
-18.8842
-18.8839
-18.8837
-18.8836
-18.8835
-18.8834
-19.3741
-19.3741
-19.3742
-19.3743
-19.3744
-19.3746
-19.3748
-19.3752
-19.3756
-19.3762
-19.3769
-19.3778
-19.3789
-19.3805
-19.3822
-19.3843
-19.3869
-19.3899
-19.3935
-19.397
-19.3996
-19.3999
-19.3979
-19.3941
-19.3885
-19.3833
-19.3799
-19.378
-19.3767
-19.3757
-19.3749
-19.3743
-19.3738
-19.3734
-19.3731
-19.3729
-19.3728
-19.3727
-19.3727
-19.3727
-19.3727
-19.3728
-19.3729
-19.3731
-19.3734
-19.3737
-19.3742
-19.3748
-19.3755
-19.3764
-19.3775
-19.3789
-19.3806
-19.3826
-19.3852
-19.3881
-19.3915
-19.3948
-19.3976
-19.3991
-19.3991
-19.397
-19.3939
-19.3906
-19.3879
-19.3857
-19.3836
-19.3816
-19.3799
-19.3785
-19.3774
-19.3765
-19.3759
-19.3753
-19.375
-19.3747
-19.3745
-19.3743
-19.3742
-19.3741
-19.8648
-19.8649
-19.8649
-19.865
-19.8652
-19.8654
-19.8656
-19.866
-19.8664
-19.8669
-19.8676
-19.8684
-19.8695
-19.8707
-19.8721
-19.8736
-19.8752
-19.8769
-19.8783
-19.8794
-19.88
-19.8798
-19.8782
-19.8754
-19.8726
-19.8702
-19.8686
-19.8674
-19.8665
-19.8657
-19.8651
-19.8647
-19.8643
-19.864
-19.8638
-19.8636
-19.8635
-19.8634
-19.8634
-19.8634
-19.8635
-19.8636
-19.8637
-19.8639
-19.8642
-19.8645
-19.865
-19.8655
-19.8662
-19.867
-19.868
-19.8691
-19.8705
-19.8722
-19.8741
-19.8762
-19.8785
-19.8807
-19.8824
-19.8834
-19.8833
-19.8823
-19.8805
-19.8783
-19.8762
-19.8744
-19.8727
-19.8713
-19.8699
-19.8688
-19.8678
-19.8671
-19.8665
-19.866
-19.8656
-19.8654
-19.8652
-19.865
-19.8649
-19.8649
-20.3556
-20.3556
-20.3557
-20.3558
-20.3559
-20.3561
-20.3564
-20.3567
-20.3571
-20.3576
-20.3582
-20.3589
-20.3598
-20.3608
-20.3618
-20.3629
-20.3639
-20.3649
-20.3656
-20.3657
-20.3654
-20.3645
-20.363
-20.3614
-20.3603
-20.3591
-20.358
-20.3572
-20.3565
-20.3559
-20.3555
-20.3551
-20.3548
-20.3546
-20.3544
-20.3543
-20.3542
-20.3541
-20.3541
-20.3541
-20.3542
-20.3543
-20.3544
-20.3547
-20.3549
-20.3553
-20.3557
-20.3562
-20.3568
-20.3575
-20.3583
-20.3593
-20.3605
-20.3618
-20.3633
-20.3648
-20.3664
-20.3679
-20.369
-20.3695
-20.3694
-20.3687
-20.3676
-20.3662
-20.3648
-20.3634
-20.3622
-20.361
-20.3599
-20.359
-20.3582
-20.3576
-20.357
-20.3566
-20.3563
-20.356
-20.3558
-20.3557
-20.3556
-20.3555
-20.8463
-20.8463
-20.8464
-20.8465
-20.8466
-20.8468
-20.8471
-20.8474
-20.8477
-20.8482
-20.8487
-20.8493
-20.85
-20.8508
-20.8516
-20.8524
-20.853
-20.8535
-20.8537
-20.8536
-20.8531
-20.8524
-20.8515
-20.8506
-20.8496
-20.8487
-20.8479
-20.8472
-20.8467
-20.8462
-20.8459
-20.8456
-20.8453
-20.8452
-20.845
-20.8449
-20.8448
-20.8448
-20.8448
-20.8448
-20.8449
-20.845
-20.8451
-20.8454
-20.8456
-20.8459
-20.8463
-20.8468
-20.8473
-20.8479
-20.8487
-20.8495
-20.8505
-20.8515
-20.8526
-20.8538
-20.8549
-20.8559
-20.8567
-20.857
-20.857
-20.8565
-20.8557
-20.8548
-20.8538
-20.8528
-20.8518
-20.8509
-20.85
-20.8492
-20.8486
-20.848
-20.8475
-20.8472
-20.8468
-20.8466
-20.8464
-20.8463
-20.8462
-20.8462
-21.3369
-21.337
-21.337
-21.3371
-21.3373
-21.3375
-21.3377
-21.338
-21.3383
-21.3387
-21.3391
-21.3397
-21.3402
-21.3408
-21.3414
-21.342
-21.3424
-21.3427
-21.3427
-21.3426
-21.3421
-21.3415
-21.3408
-21.34
-21.3392
-21.3385