/*--------------------------------*- C++ -*----------------------------------*\
| =========                 |                                                 |
| \\      /  F ield         | OpenFOAM: The Open Source CFD Toolbox           |
|  \\    /   O peration     | Version:  2412                                  |
|   \\  /    A nd           | Website:  www.openfoam.com                      |
|    \\/     M anipulation  |                                                 |
\*---------------------------------------------------------------------------*/
FoamFile
{
    version     2.0;
    format      ascii;
    arch        "LSB;label=32;scalar=64";
    class       volScalarField;
    location    "4.1";
    object      p_rgh;
}
// * * * * * * * * * * * * * * * * * * * * * * * * * * * * * * * * * * * * * //

dimensions      [1 -1 -2 0 0 0 0];

internalField   nonuniform List<scalar> 
6400
(
7721.39
7722.14
7723.61
7725.71
7728.38
7731.57
7735.18
7739.1
7743.21
7747.4
7751.56
7755.59
7759.38
7762.87
7765.99
7768.68
7770.94
7772.76
7774.14
7775.13
7775.75
7776.07
7776.13
7776
7775.74
7775.39
7775.01
7774.63
7774.29
7774
7773.78
7773.64
7773.56
7773.54
7773.57
7773.63
7773.7
7773.77
7773.83
7773.86
7773.86
7773.83
7773.76
7773.67
7773.57
7773.47
7773.38
7773.33
7773.33
7773.38
7773.5
7773.69
7773.92
7774.2
7774.49
7774.76
7774.96
7775.05
7774.96
7774.66
7774.07
7773.16
7771.87
7770.18
7768.08
7765.56
7762.64
7759.37
7755.8
7752
7748.07
7744.11
7740.22
7736.51
7733.09
7730.06
7727.53
7725.53
7724.14
7723.43
7720.64
7721.43
7722.91
7725.08
7727.87
7731.17
7734.89
7738.93
7743.17
7747.48
7751.76
7755.88
7759.77
7763.32
7766.48
7769.2
7771.47
7773.27
7774.62
7775.55
7776.12
7776.37
7776.36
7776.16
7775.83
7775.43
7774.99
7774.57
7774.19
7773.87
7773.63
7773.47
7773.39
7773.37
7773.4
7773.47
7773.55
7773.63
7773.69
7773.73
7773.73
7773.69
7773.62
7773.53
7773.42
7773.31
7773.23
7773.18
7773.18
7773.24
7773.38
7773.59
7773.86
7774.17
7774.51
7774.83
7775.1
7775.25
7775.24
7775
7774.47
7773.6
7772.35
7770.68
7768.57
7766.03
7763.07
7759.74
7756.09
7752.2
7748.16
7744.08
7740.07
7736.24
7732.71
7729.57
7726.92
7724.86
7723.46
7722.72
7719.11
7720.02
7721.59
7723.89
7726.84
7730.35
7734.3
7738.57
7743.05
7747.6
7752.1
7756.42
7760.47
7764.15
7767.41
7770.18
7772.45
7774.22
7775.51
7776.36
7776.81
7776.94
7776.8
7776.48
7776.02
7775.5
7774.96
7774.46
7774.02
7773.65
7773.38
7773.21
7773.12
7773.11
7773.15
7773.24
7773.34
7773.44
7773.51
7773.56
7773.56
7773.52
7773.45
7773.34
7773.22
7773.1
7773
7772.94
7772.94
7773.01
7773.17
7773.42
7773.74
7774.13
7774.56
7774.99
7775.37
7775.64
7775.75
7775.63
7775.21
7774.44
7773.25
7771.61
7769.5
7766.92
7763.88
7760.42
7756.61
7752.53
7748.29
7743.98
7739.74
7735.68
7731.94
7728.61
7725.8
7723.61
7722.1
7721.28
7716.79
7717.8
7719.52
7722.04
7725.26
7729.07
7733.37
7738
7742.85
7747.76
7752.59
7757.22
7761.52
7765.4
7768.79
7771.63
7773.92
7775.64
7776.83
7777.54
7777.83
7777.77
7777.44
7776.92
7776.28
7775.6
7774.92
7774.3
7773.77
7773.34
7773.04
7772.85
7772.77
7772.78
7772.86
7772.98
7773.11
7773.24
7773.35
7773.41
7773.42
7773.37
7773.28
7773.15
7773
7772.84
7772.71
7772.63
7772.62
7772.7
7772.88
7773.17
7773.57
7774.07
7774.62
7775.2
7775.75
7776.2
7776.5
7776.56
7776.3
7775.66
7774.58
7772.99
7770.88
7768.24
7765.08
7761.44
7757.39
7753.03
7748.46
7743.81
7739.22
7734.81
7730.74
7727.11
7724.05
7721.66
7720.03
7719.05
7713.61
7714.71
7716.66
7719.48
7723.07
7727.31
7732.08
7737.22
7742.58
7747.99
7753.29
7758.33
7762.98
7767.13
7770.7
7773.63
7775.92
7777.57
7778.62
7779.13
7779.18
7778.86
7778.26
7777.48
7776.59
7775.69
7774.82
7774.05
7773.41
7772.92
7772.58
7772.39
7772.33
7772.37
7772.5
7772.68
7772.87
7773.05
7773.19
7773.28
7773.3
7773.25
7773.13
7772.96
7772.76
7772.55
7772.37
7772.25
7772.21
7772.28
7772.48
7772.82
7773.31
7773.93
7774.65
7775.43
7776.21
7776.92
7777.47
7777.79
7777.77
7777.32
7776.38
7774.88
7772.77
7770.07
7766.74
7762.85
7758.47
7753.72
7748.71
7743.58
7738.5
7733.61
7729.08
7725.04
7721.62
7718.94
7717.09
7716.02
7709.43
7710.68
7712.91
7716.12
7720.2
7725.01
7730.41
7736.22
7742.25
7748.31
7754.23
7759.81
7764.92
7769.41
7773.21
7776.26
7778.54
7780.08
7780.92
7781.16
7780.89
7780.21
7779.26
7778.12
7776.92
7775.73
7774.63
7773.68
7772.91
7772.33
7771.96
7771.77
7771.75
7771.87
7772.08
7772.34
7772.62
7772.87
7773.07
7773.19
7773.22
7773.16
7773
7772.78
7772.51
7772.22
7771.96
7771.76
7771.67
7771.71
7771.93
7772.33
7772.92
7773.7
7774.63
7775.66
7776.74
7777.78
7778.68
7779.33
7779.63
7779.47
7778.74
7777.36
7775.28
7772.48
7768.94
7764.73
7759.93
7754.65
7749.05
7743.3
7737.57
7732.05
7726.91
7722.32
7718.44
7715.38
7713.26
7712.04
7704.11
7705.58
7708.16
7711.87
7716.57
7722.11
7728.31
7734.96
7741.86
7748.78
7755.48
7761.76
7767.44
7772.37
7776.45
7779.62
7781.87
7783.25
7783.81
7783.68
7782.97
7781.84
7780.41
7778.83
7777.22
7775.67
7774.28
7773.11
7772.18
7771.53
7771.13
7770.98
7771.03
7771.25
7771.58
7771.96
7772.36
7772.71
7772.99
7773.16
7773.21
7773.13
7772.92
7772.62
7772.24
7771.84
7771.46
7771.15
7770.97
7770.96
7771.17
7771.62
7772.33
7773.29
7774.48
7775.84
7777.3
7778.76
7780.11
7781.22
7781.95
7782.16
7781.72
7780.52
7778.49
7775.58
7771.79
7767.18
7761.83
7755.9
7749.55
7742.98
7736.41
7730.08
7724.17
7718.89
7714.4
7710.86
7708.39
7706.97
7697.49
7699.22
7702.26
7706.59
7712.07
7718.52
7725.72
7733.45
7741.44
7749.42
7757.12
7764.28
7770.68
7776.15
7780.57
7783.87
7786.06
7787.19
7787.37
7786.74
7785.47
7783.73
7781.7
7779.55
7777.43
7775.45
7773.71
7772.27
7771.18
7770.45
7770.05
7769.96
7770.13
7770.49
7770.99
7771.55
7772.11
7772.61
7772.99
7773.23
7773.3
7773.19
7772.91
7772.49
7771.98
7771.41
7770.86
7770.4
7770.08
7769.98
7770.15
7770.64
7771.48
7772.65
7774.14
7775.9
7777.83
7779.83
7781.76
7783.46
7784.75
7785.46
7785.42
7784.48
7782.55
7779.54
7775.45
7770.34
7764.31
7757.54
7750.23
7742.64
7735.02
7727.65
7720.77
7714.62
7709.39
7705.25
7702.35
7700.67
7689.3
7691.41
7694.99
7700.1
7706.54
7714.1
7722.56
7731.63
7740.99
7750.31
7759.25
7767.51
7774.81
7780.94
7785.76
7789.2
7791.24
7792.03
7791.69
7790.4
7788.39
7785.88
7783.09
7780.22
7777.47
7774.96
7772.81
7771.08
7769.81
7769.01
7768.64
7768.66
7769
7769.58
7770.31
7771.11
7771.89
7772.58
7773.11
7773.43
7773.52
7773.38
7773
7772.43
7771.72
7770.94
7770.16
7769.46
7768.95
7768.7
7768.8
7769.31
7770.26
7771.68
7773.52
7775.75
7778.27
7780.95
7783.61
7786.06
7788.09
7789.46
7789.97
7789.4
7787.63
7784.53
7780.09
7774.37
7767.5
7759.69
7751.18
7742.3
7733.36
7724.68
7716.6
7709.37
7703.22
7698.34
7694.92
7692.88
7679.27
7681.86
7686.13
7692.17
7699.78
7708.71
7718.71
7729.45
7740.53
7751.52
7762.02
7771.64
7780.05
7786.98
7792.26
7795.84
7797.63
7797.95
7796.9
7794.74
7791.76
7788.25
7784.5
7780.75
7777.23
7774.09
7771.45
7769.4
7767.95
7767.1
7766.81
7767.01
7767.61
7768.49
7769.55
7770.67
7771.74
7772.68
7773.39
7773.83
7773.96
7773.76
7773.26
7772.49
7771.52
7770.43
7769.33
7768.32
7767.53
7767.06
7767.02
7767.5
7768.57
7770.23
7772.49
7775.29
7778.52
7782.03
7785.62
7789.05
7792.03
7794.29
7795.52
7795.47
7793.96
7790.79
7785.95
7779.49
7771.58
7762.46
7752.46
7741.96
7731.36
7721.07
7711.49
7702.94
7695.67
7689.9
7685.84
7683.33
7667.04
7670.22
7675.33
7682.5
7691.51
7702.12
7714.03
7726.85
7740.07
7753.16
7765.6
7776.91
7786.67
7794.57
7800.39
7804.04
7805.54
7805.15
7803.13
7799.81
7795.57
7790.8
7785.84
7781
7776.54
7772.66
7769.47
7767.06
7765.45
7764.61
7764.47
7764.95
7765.9
7767.2
7768.69
7770.24
7771.7
7772.96
7773.92
7774.51
7774.68
7774.42
7773.74
7772.71
7771.4
7769.91
7768.38
7766.94
7765.75
7764.95
7764.69
7765.08
7766.22
7768.16
7770.88
7774.35
7778.44
7782.99
7787.74
7792.41
7796.63
7800.05
7802.27
7802.96
7801.82
7798.63
7793.33
7785.98
7776.78
7766.04
7754.18
7741.65
7728.97
7716.66
7705.23
7695.06
7686.46
7679.61
7674.76
7671.68
7652.19
7656.05
7662.17
7670.61
7681.27
7693.97
7708.27
7723.73
7739.64
7755.34
7770.2
7783.62
7795.06
7804.13
7810.55
7814.23
7815.23
7813.86
7810.53
7805.68
7799.81
7793.42
7786.96
7780.78
7775.21
7770.45
7766.65
7763.87
7762.12
7761.36
7761.49
7762.36
7763.82
7765.68
7767.76
7769.87
7771.84
7773.52
7774.79
7775.57
7775.8
7775.45
7774.55
7773.18
7771.42
7769.41
7767.3
7765.28
7763.54
7762.26
7761.66
7761.87
7763.04
7765.24
7768.48
7772.73
7777.85
7783.65
7789.86
7796.11
7801.95
7806.89
7810.45
7812.15
7811.58
7808.43
7802.61
7794.18
7783.4
7770.65
7756.44
7741.38
7726.09
7711.23
7697.46
7685.3
7675.12
7667.07
7661.25
7657.57
7634.33
7638.81
7645.82
7655.41
7668.09
7683.68
7701.19
7719.97
7739.26
7758.24
7776.12
7792.15
7805.67
7816.16
7823.27
7826.9
7827.15
7824.39
7819.28
7812.41
7804.43
7795.99
7787.64
7779.85
7772.96
7767.2
7762.71
7759.57
7757.74
7757.16
7757.69
7759.14
7761.29
7763.91
7766.76
7769.59
7772.22
7774.45
7776.12
7777.14
7777.43
7776.98
7775.81
7774
7771.67
7768.97
7766.11
7763.3
7760.8
7758.87
7757.74
7757.65
7758.76
7761.19
7765
7770.14
7776.48
7783.82
7791.83
7800.08
7808.01
7814.98
7820.32
7823.46
7823.72
7820.71
7814.3
7804.56
7791.8
7776.54
7759.43
7741.19
7722.62
7704.5
7687.56
7672.66
7660.55
7651.46
7644.84
7640.6
7613.21
7617.66
7624.67
7635.17
7650.62
7670.57
7692.21
7715.43
7739.03
7762.1
7783.73
7803
7819.09
7831.32
7839.22
7842.67
7841.83
7837.06
7829.58
7820.04
7809.33
7798.29
7787.62
7777.88
7769.44
7762.55
7757.32
7753.82
7752.01
7751.76
7752.88
7755.13
7758.22
7761.84
7765.69
7769.48
7772.94
7775.86
7778.05
7779.38
7779.77
7779.19
7777.67
7775.3
7772.23
7768.65
7764.79
7760.95
7757.43
7754.58
7752.71
7752.13
7753.07
7755.71
7760.09
7766.21
7773.97
7783.15
7793.41
7804.21
7814.85
7824.47
7832.2
7837.41
7838.84
7836.13
7829.05
7817.7
7802.5
7784.1
7763.36
7741.17
7718.45
7696.01
7674.69
7655.72
7641
7631.17
7624.74
7620.6
7588.45
7592.17
7598.37
7610.08
7628.92
7653.23
7681.27
7710.21
7739.13
7767.21
7793.45
7816.75
7836.04
7850.42
7859.24
7862.31
7860
7852.22
7841.66
7828.6
7814.35
7800.01
7786.49
7774.42
7764.2
7756.04
7750.05
7746.25
7744.57
7744.85
7746.83
7750.18
7754.52
7759.46
7764.6
7769.61
7774.14
7777.94
7780.78
7782.5
7783.01
7782.27
7780.32
7777.25
7773.24
7768.52
7763.38
7758.17
7753.3
7749.19
7746.27
7744.94
7745.52
7748.26
7753.25
7760.47
7769.85
7781.22
7794.24
7808.27
7822.43
7835.58
7846.43
7854.69
7857.72
7855.56
7847.72
7834.36
7816.08
7793.77
7768.52
7741.49
7713.7
7685.94
7658.94
7635.07
7616.75
7605.95
7600.58
7597.25
7559.26
7562.94
7569.4
7583.36
7606.24
7635.94
7669.76
7704.99
7740.07
7774.13
7806.01
7834.26
7857.52
7874.61
7884.51
7886.81
7882.08
7870.88
7855.84
7838.03
7819.15
7800.66
7783.66
7768.85
7756.62
7747.1
7740.33
7736.35
7735.02
7736.12
7739.31
7744.15
7750.14
7756.78
7763.59
7770.14
7776.02
7780.92
7784.57
7786.79
7787.46
7786.52
7784.02
7780.08
7774.89
7768.72
7761.94
7754.97
7748.31
7742.51
7738.12
7735.68
7735.65
7738.3
7743.87
7752.25
7763.43
7777.36
7793.74
7811.89
7830.66
7848.57
7863.97
7875.68
7881.34
7880.2
7871.51
7855.62
7833.49
7806.29
7775.45
7742.56
7708.83
7675.19
7642.77
7613.76
7591.12
7578.3
7573.13
7569.75
7524.04
7528.85
7539.13
7556.78
7583.49
7618.09
7657.54
7699.75
7741.69
7782.8
7821.76
7856.3
7884.66
7905.4
7916.79
7917.68
7909.36
7893.32
7872.06
7847.86
7822.98
7799.3
7778.09
7760.11
7745.68
7734.83
7727.48
7723.51
7722.8
7725.11
7729.98
7736.82
7744.99
7753.83
7762.77
7771.25
7778.83
7785.1
7789.77
7792.6
7793.46
7792.29
7789.12
7784.09
7777.43
7769.45
7760.58
7751.33
7742.32
7734.22
7727.8
7723.77
7722.75
7725.12
7731.05
7740.54
7753.62
7770.48
7790.94
7814.27
7839.05
7863.32
7884.9
7901.63
7911.14
7911.83
7902
7882.66
7855.55
7821.96
7783.95
7744.07
7703.52
7663.41
7625.55
7592.17
7566.28
7549.83
7540.69
7536.44
7478.66
7484.22
7501.39
7525.92
7558.74
7599.11
7644.67
7693.86
7744.29
7794.31
7843.03
7885.55
7920.34
7946.2
7959.75
7957.4
7943.61
7919.6
7889.4
7856.47
7823.88
7793.89
7767.74
7746.13
7729.55
7717.71
7710.34
7706.4
7706.61
7710.67
7717.9
7727.49
7738.57
7750.32
7761.99
7772.96
7782.68
7790.69
7796.62
7800.22
7801.33
7799.87
7795.89
7789.5
7780.98
7770.69
7759.13
7746.89
7734.72
7723.49
7714.19
7707.83
7705.33
7707.28
7713.35
7723.51
7738.12
7758.28
7783.66
7813.49
7846.05
7878.94
7909.28
7934.02
7949.31
7954.11
7942.57
7918.39
7885.21
7843.31
7795.06
7746.2
7697.44
7650.24
7606.7
7568.26
7537.16
7514.33
7498.56
7493.71
6734.4
6603
6860.54
7125.69
7381.28
7560.17
7628.87
7687.05
7746.99
7807.21
7865.16
7919.85
7967.02
8001.81
8018.03
8012.53
7988.41
7951.2
7907.59
7862.41
7819.95
7782.63
7750.9
7725.13
7706.91
7695.85
7684.96
7680.4
7682.16
7689.21
7700.34
7714.25
7729.69
7745.6
7761.1
7775.44
7788.01
7798.29
7805.86
7810.45
7811.88
7810.07
7805.04
7796.92
7785.97
7772.58
7757.31
7740.84
7724.06
7708.06
7694.2
7683.96
7678.89
7680.4
7689.16
7700.07
7715.26
7739.38
7770.43
7807.69
7849.9
7894.8
7938.08
7975.98
8002.37
8011.42
7998.2
7965.18
7920.77
7864.96
7807.3
7747.82
7689.32
7633.41
7572.5
7419.62
7191.96
6940.1
6688.91
6812.53
1277.36
1511.79
1881.13
2341.55
3023.74
4066.06
5233.11
6231.61
7077.01
7664.45
7902.25
7974.82
8029.99
8079.71
8100.67
8087.25
8043.94
7982.22
7915.96
7608.23
7285.94
6986.86
6639.54
6260.7
5949.86
5753.42
5660.13
5663.97
5769.47
5944.79
6169.27
6414.61
6656.74
6880.94
7076.5
7238.18
7364.77
7458.12
7521.21
7557.67
7570.15
7558.93
7522.69
7457.48
7358.72
7221.95
7044.85
6828.46
6579.07
6310.05
6045.1
5815.86
5652
5569.01
5601.77
5734.25
6019.12
6419.51
6820.31
7168.78
7514.02
7889.38
7963.47
8025.65
8072.94
8093.4
8077.09
8027.35
7973.89
7895.36
7596.75
7014.48
6198.26
5259.28
4179.45
3165.37
2485.83
2041.38
1674.02
1400.5
2.01
2.09254
2.02214
1.94686
1.61868
1.47533
49.6799
523.391
1249.89
2389.04
4280.25
6452.37
7699.29
8039.49
7959.17
7535.07
6562.46
5041.68
3414.09
2257.83
1477.39
961.817
625.92
423.95
318.778
264.147
241.186
261.792
322.409
422.176
564.521
749.527
971.928
1223.27
1493.25
1766.01
2023.31
2246.67
2418.88
2527.95
2565.65
2526.54
2412.95
2231.68
1995.3
1721.2
1430.91
1144.96
881.311
654.712
473.596
343.695
266.202
238.886
268.607
327.382
418.706
590.252
884.216
1355.52
2097.36
3185.17
4709.67
6214.12
7334.45
7882.82
8013.76
7587.17
6241.48
4154.74
2369.3
1240.76
530.145
69.4243
2.78536
2.91459
3.13525
3.0713
2.8747
2.90154
1.87115
1.85565
1.74652
1.60455
1.47298
1.31868
1.25094
1.03129
0.776819
0.475967
1.20796
490.236
1569.27
3259.37
4105.06
3364.61
1581.34
399.105
55.7754
16.2737
7.05365
3.24616
1.94793
1.76795
1.69131
1.6215
1.56046
1.4998
1.46053
1.4713
1.53123
1.59237
1.59231
1.51169
1.39249
1.27055
1.1677
1.08827
1.02914
0.98511
0.953158
0.932089
0.918994
0.909975
0.900725
0.887086
0.862766
0.822317
0.759473
0.664413
0.554257
0.411538
0.292854
0.362694
0.527198
0.963429
1.14845
1.65683
3.18945
5.65011
11.9995
41.1568
287.606
1128.49
2736.69
3882.98
3506.65
1694.49
511.577
4.23017
2.63488
2.53585
2.57455
2.61026
2.5513
2.68505
2.82283
2.82687
2.69013
2.76238
1.70405
1.69215
1.60953
1.55052
1.8261
1.98315
1.49538
0.980368
0.984178
0.834957
0.994682
0.886607
0.713037
0.320582
94.6305
64.7958
33.1372
18.0807
7.78281
3.71153
2.25498
1.89387
1.80558
1.73692
1.6508
1.5694
1.48424
1.40817
1.37898
1.42783
1.52408
1.59738
1.59144
1.51804
1.4157
1.31327
1.22462
1.15506
1.103
1.06559
1.03856
1.01978
1.00735
0.996558
0.981927
0.959314
0.922666
0.865456
0.775732
0.648347
0.520301
0.406427
0.540184
0.758876
0.850359
0.618743
0.531274
1.04884
1.96286
1.46949
1.49532
3.40659
7.03047
13.5951
19.1107
50.0833
7.29773
3.32201
3.66228
4.12993
15.5013
9.18502
2.49468
2.44149
4.27004
6.10635
4.68709
2.81374
2.62289
2.63444
1.55853
1.50093
1.73049
2.47839
2.36052
2.26086
1.83531
1.98876
1.77671
1.39115
0.853217
0.869607
0.829383
2.49062
6.44186
7.1908
6.04305
3.98254
2.66717
2.15688
1.99512
1.97106
1.8636
1.81544
1.82172
2.12552
2.0963
1.5326
1.23566
1.31155
1.483
1.72017
1.61073
1.52957
1.40304
1.2615
1.17866
1.12784
1.09314
1.0703
1.05563
1.04582
1.03824
1.03104
1.01854
0.996389
0.959839
0.910958
0.823682
0.688091
0.566742
0.955049
0.851111
0.716779
0.0729002
0.0135931
0.0296994
0.160635
0.405759
0.68631
0.950372
1.48197
1.29347
1.45868
1.61012
1.31494
3.33629
4.92305
5.00695
3.48341
2.99202
5.67944
5.75392
5.12556
4.52946
6.58563
7.01927
4.34408
2.5283
2.54635
1.46808
1.92623
2.12457
2.29283
2.29455
1.54014
2.08317
1.91896
1.42346
0.694164
0.754792
0.899581
2.85232
4.16982
2.17157
2.00541
2.02045
1.96095
2.08071
2.19577
2.19491
2.71788
3.3311
3.32882
3.36879
3.39569
3.22523
1.90555
0.999804
1.39709
4.78289
6.88953
5.26692
2.23195
1.35653
1.21666
1.14646
1.1005
1.07421
1.06127
1.05676
1.05839
1.06252
1.06236
1.0559
1.03984
1.02296
1.02499
0.908746
0.916777
1.27504
1.28859
0.249823
-0.144769
-0.335686
-0.392302
-0.299826
-0.0879409
0.212082
0.5087
0.787455
1.01917
1.24492
1.53818
1.58717
1.59084
1.12268
1.07177
1.2257
1.48381
1.67207
1.79182
2.0267
5.34222
6.55028
6.73486
7.08495
6.31668
2.58393
2.48281
1.47574
2.66287
3.17032
2.0886
1.47488
1.26151
1.12996
1.03023
0.65583
0.594531
0.923822
2.14005
2.24116
1.18407
1.15597
1.52458
1.6045
1.84376
2.13534
2.26047
3.90458
4.35111
4.22087
4.01365
3.72093
3.43448
3.13732
1.74156
1.14061
5.87301
9.26869
9.49533
9.81757
6.29563
1.65165
1.15254
1.05791
1.0305
1.01999
1.0196
1.02611
1.03739
1.05018
1.05892
1.06057
1.05401
1.06097
1.03347
0.988848
1.94314
4.21444
0.602038
-0.136037
-0.464471
-0.67185
-0.689922
-0.4939
-0.038757
0.155627
0.402047
0.660913
0.834632
0.972105
1.12112
1.32588
1.29636
1.00771
0.964912
1.03382
1.15869
1.27827
1.38078
1.46138
1.58865
3.39658
6.87716
7.29716
7.26128
2.81692
2.42808
1.29735
3.94948
7.76814
3.78113
1.15769
1.08218
0.984827
0.862538
0.738074
0.650357
1.04223
0.987763
0.651808
0.729698
0.911684
1.29679
2.20283
2.88212
2.71562
3.26057
5.07055
4.5993
3.23155
2.12166
2.1046
2.17302
1.46554
0.643443
0.305628
6.72098
8.71112
9.33496
9.68766
9.9114
4.55225
1.12688
0.954438
0.933423
0.941253
0.951685
0.966127
0.983846
1.00259
1.01782
1.02636
1.03178
1.07154
1.04964
1.4394
4.81268
4.95176
0.906198
-0.332972
-0.659955
-0.855884
-0.528736
0.186483
-0.0709391
-0.0301334
0.293508
0.495045
0.640744
0.728581
0.810437
0.88133
0.843958
0.796111
0.765646
0.796886
0.885132
0.953498
1.03918
1.13516
1.27168
1.49419
4.12507
7.29719
7.10017
2.91464
2.3314
0.928417
4.59652
7.74668
7.96689
3.5266
1.16939
1.0652
0.944599
0.815728
0.686107
0.578136
0.455052
0.386417
0.362949
0.809644
4.07184
4.69177
5.125
5.46285
5.56825
4.9327
3.40581
1.37732
1.27524
1.13274
0.956796
0.747739
0.45288
0.0880534
-0.0524174
2.82553
8.99553
9.60882
9.82207
8.21728
1.78305
0.820235
0.791503
0.823245
0.850151
0.874966
0.899396
0.922152
0.939879
0.950131
0.957365
1.05566
1.01656
2.37101
5.30638
5.02434
4.59578
1.27339
0.696379
2.54155
3.5973
2.21931
-0.259121
-0.150577
0.132206
0.334003
0.452858
0.604913
0.730676
0.641443
0.610949
0.542735
0.50932
0.525985
0.681333
0.675711
0.731324
0.855437
1.02729
1.26635
1.58674
6.51393
6.86553
2.88359
2.16469
0.658942
2.18283
7.68924
8.03994
8.1991
5.28145
1.07993
0.975371
0.848661
0.68992
0.491956
0.280383
0.10489
1.03243
3.89065
3.99204
4.31324
4.79301
5.19738
4.51751
2.12
1.25358
1.22312
1.11977
1.0441
0.892444
0.636994
0.280728
-0.0664053
-0.381222
-0.482363
0.706708
9.3121
9.87713
9.78777
3.27003
0.657393
0.618269
0.672462
0.719304
0.757321
0.789669
0.815946
0.833643
0.84115
0.84134
0.919863
0.902535
1.74324
5.42025
5.0088
4.63846
4.36092
4.14028
3.97617
4.02066
1.81366
-0.419655
-0.165327
0.0504662
0.201399
0.417815
0.576071
0.555972
0.408192
0.313642
0.245725
0.223235
0.297941
0.350956
0.336457
0.430953
0.579878
0.769672
1.02824
1.34056
5.09389
6.52024
2.85504
1.85128
0.517511
0.486902
0.932197
7.19544
8.27663
8.33698
1.41256
0.919534
0.808705
0.628447
0.366712
0.0689934
0.570054
3.64177
3.44768
3.51064
3.83033
4.35757
4.83408
1.3906
1.01313
1.0377
1.08527
1.21479
1.10817
0.932604
0.722352
0.375888
-0.221238
-0.454108
-0.514855
-0.440695
2.93616
9.6288
10.2195
4.62667
0.448863
0.415812
0.495813
0.565926
0.620098
0.662513
0.694184
0.713292
0.718662
0.711915
0.706454
0.698502
0.676145
1.89499
5.045
4.78249
4.51085
4.33661
4.32036
0.905105
-0.595348
-0.334173
-0.128231
0.0159591
0.11585
0.413906
0.388883
0.272087
0.12226
0.00218951
-0.0816411
0.902529
3.6802
3.11395
3.11012
2.81998
0.392152
0.480105
0.769324
1.11384
3.16932
6.04282
2.40016
1.51013
0.488203
0.423458
0.357289
0.538589
4.79549
8.26551
7.4025
2.27848
0.736199
0.479741
0.165489
-0.135071
2.52782
3.21807
3.03302
2.96401
1.34494
3.90344
4.36981
2.15394
0.98449
0.838715
0.899751
0.850473
0.742274
0.579024
0.360792
0.126841
-0.425318
-0.664969
-0.682082
-0.596084
0.0661804
8.10028
11.2687
5.50399
0.222742
0.184742
0.299236
0.397067
0.470789
0.5265
0.56735
0.592416
0.600622
0.594149
0.57084
0.525242
0.435924
0.269614
0.80497
2.12691
3.0323
2.01593
0.0562912
-0.507812
-0.338751
-0.17782
-0.0615662
0.0134621
0.217963
0.292904
0.171796
-0.0962384
-0.246161
0.387812
1.69979
5.73959
5.71936
5.77431
6.00661
6.37537
5.09716
0.289273
0.475007
0.860923
2.92746
2.8138
1.50127
1.19159
0.496875
0.440106
0.558911
0.763893
0.728919
3.21619
8.09918
8.08556
5.60967
0.705977
-0.0773728
0.0705066
3.32444
2.87584
2.73429
-0.436823
-0.126523
3.49997
3.24273
2.10819
0.96478
0.280902
0.0776177
0.200851
0.265955
0.130618
-0.223443
-0.6937
-0.875089
-0.968314
-0.957244
-0.864519
-0.739125
9.15558
12.411
6.23762
-0.0475203
-0.0716649
0.0892196
0.220016
0.317027
0.389515
0.443606
0.479473
0.496194
0.496828
0.482161
0.449264
0.390166
0.285255
0.143626
-0.0127561
-0.120258
-0.194063
-0.235135
-0.180876
-0.103339
-0.0323289
0.0136213
0.0451781
0.271516
0.185567
-0.222375
-0.451792
-0.298622
3.05543
4.70582
4.94309
5.06175
5.01926
5.21009
5.64497
6.21137
1.53079
0.140344
0.570867
4.91833
4.34554
1.13833
0.911312
0.558497
0.42477
0.8809
2.83868
1.38674
1.47176
8.09898
8.07487
7.85756
2.21216
-0.323767
0.722342
3.15177
2.72132
1.78717
-0.695779
-0.340144
1.20232
-0.613264
-0.527702
-0.252853
-0.278558
-0.346695
-0.412762
-0.532953
-0.685529
-0.86559
-1.06088
-1.22048
-1.2874
-1.26202
-1.17509
1.65339
12.8635
13.0736
6.05079
-0.473066
-0.34597
-0.124386
0.0437189
0.166518
0.257998
0.327934
0.37758
0.406314
0.417922
0.415576
0.399244
0.367668
0.313484
0.237523
0.153983
0.0830106
0.043428
0.0316187
0.0467146
0.0734437
0.0941662
0.100613
0.124423
0.247304
-0.0291078
-0.411837
-0.71988
3.18192
3.11066
1.09376
-1.98356
0.200104
4.43669
4.61698
5.03043
5.71293
4.38385
-0.216663
0.3118
6.14371
6.2419
0.950622
0.669877
6.68979
1.01599
1.04329
2.88124
2.65404
1.61408
8.12175
7.97915
7.81443
1.43474
-0.506672
0.102853
3.1542
2.77
-0.0477491
-0.704913
1.17765
-0.365978
-0.985057
-0.810119
-0.660032
-0.595918
-0.599309
-0.663622
-0.791554
-0.969395
-1.15546
-1.35791
-1.51941
-1.56051
-1.53464
-1.04092
11.1845
13.4843
13.2328
5.47469
-0.91202
-0.611207
-0.326685
-0.120426
0.0274881
0.137751
0.223629
0.287365
0.328827
0.352262
0.362333
0.360744
0.348237
0.323872
0.288961
0.250732
0.21872
0.199743
0.195686
0.201585
0.210375
0.211344
0.198121
0.160999
0.041263
-0.218351
-0.539131
0.591305
3.18143
2.04068
-2.2442
-2.69448
-2.76634
3.79652
4.22202
4.63821
5.3834
2.42408
-0.318908
0.473413
6.19139
6.33217
0.709491
0.468285
10.5259
2.95746
0.964593
2.53604
2.6783
1.63782
4.92676
8.00025
5.83377
-0.297109
-0.547111
0.418945
3.28655
2.95166
0.10486
-0.288962
1.37402
1.71415
0.466424
-0.906059
-0.793657
-0.744739
-0.756109
-0.835403
-0.981731
-1.07764
-1.0936
-1.59369
-1.77535
-1.79202
-0.0732794
12.3605
13.3363
13.3155
13.3551
3.66114
-1.19734
-0.820613
-0.49597
-0.259892
-0.0919154
0.0340853
0.133409
0.209122
0.261785
0.29589
0.316721
0.32722
0.329036
0.323521
0.313041
0.301917
0.295017
0.295063
0.30138
0.310054
0.320312
0.31539
0.294091
0.209109
0.0392711
-0.238916
-0.597838
3.79891
3.1081
-1.756
-2.38439
-2.88329
-1.25298
4.04786
4.07657
4.5619
4.63545
-1.02747
-0.246853
4.96223
6.22231
6.45037
0.332706
0.316142
10.7363
7.0035
0.953819
0.913599
2.29305
1.76386
2.21346
6.81596
0.156744
-0.147603
-0.450161
3.83479
3.50233
1.20422
0.191711
1.40154
1.65862
1.95249
0.81467
-0.900883
-0.834807
-0.804287
-0.832524
-0.936534
-1.1084
0.444576
0.753269
-1.51369
-1.98532
2.49026
13.3339
13.18
13.0005
13.0354
9.83231
-0.323065
-1.37218
-0.959175
-0.616979
-0.364262
-0.184811
-0.048662
0.0595068
0.143323
0.204118
0.246557
0.276006
0.296
0.308883
0.316788
0.322269
0.32821
0.3372
0.350438
0.366919
0.384061
0.399909
0.403917
0.374708
0.273527
0.0830213
-0.220926
-0.353015
3.74034
3.20656
-1.71223
-2.28848
-2.80918
-2.1217
4.10922
4.35414
4.88576
-0.793055
-0.298111
2.06132
6.03766
6.36685
5.69653
0.164703
0.216834
9.31227
4.65374
1.71529
1.19701
2.26343
2.30281
2.20969
1.73178
0.394656
0.133972
1.37458
3.84534
3.47271
0.601089
0.528875
1.88778
2.07834
2.11362
-0.575321
-0.864754
-0.804886
-0.794275
-0.84279
-0.968216
-1.00484
1.26642
0.932089
-0.272213
-2.04676
8.68132
13.0804
13.0728
12.9699
9.173
-1.74192
-2.14695
-1.5071
-1.02686
-0.674039
-0.426062
-0.246962
-0.108221
0.003112
0.0905168
0.155804
0.203604
0.23899
0.265612
0.286226
0.303243
0.31894
0.335448
0.354505
0.37701
0.40211
0.427057
0.451827
0.472378
0.43725
0.333925
0.135802
-0.171118
-0.184666
3.22014
2.97144
-1.44747
-1.95988
-2.42382
-2.72741
0.174367
5.12816
5.02253
-0.16428
0.588652
2.03276
6.08116
6.37949
0.705743
0.143293
0.179061
1.33029
1.35005
4.13261
1.58185
1.48547
2.28724
2.54207
1.80741
2.43406
2.58127
3.67527
3.52975
1.09786
0.999924
2.12862
2.43596
2.34231
-0.511882
-0.838056
-0.760906
-0.724852
-0.733189
-0.796853
-0.932606
-0.946785
1.32278
1.04845
0.739219
-0.0393525
-2.27726
3.34486
5.50981
0.105339
-2.46295
-2.5634
-1.97923
-1.4183
-0.986152
-0.674314
-0.448565
-0.279156
-0.144957
-0.035969
0.0505521
0.116643
0.166801
0.205532
0.236155
0.261457
0.283953
0.305689
0.328385
0.353466
0.381803
0.41295
0.445574
0.479454
0.506405
0.518735
0.391732
0.192966
-0.097688
-0.385456
0.350553
1.36914
-1.05989
-1.46975
-1.83694
-2.0524
-1.39322
3.52069
5.4209
1.7432
1.53112
4.41412
2.16081
0.946505
0.128885
0.181031
0.210042
2.12208
1.30779
0.514062
1.53594
1.55119
1.58944
1.59795
1.98967
3.28771
2.99919
2.47298
1.4956
1.4057
2.51181
2.92214
2.96777
-0.166511
-0.714338
-0.633927
-0.630812
-0.615987
-0.638207
-0.707359
-0.842338
-1.00193
-0.240469
1.22466
0.935988
0.0812938
-2.38796
-2.69404
-2.86216
-2.83035
-2.55551
-2.12701
-1.65501
-1.22936
-0.890868
-0.634403
-0.439589
-0.286981
-0.162391
-0.0597018
0.022257
0.0860578
0.135938
0.17572
0.208122
0.235721
0.260863
0.285415
0.310863
0.338475
0.36916
0.402779
0.439661
0.480864
0.650133
1.04998
0.562639
0.249148
-0.00892437
-0.065897
0.701261
1.07173
-0.616969
-0.904853
-1.16034
-1.3151
-1.21376
-0.710235
3.25347
6.87635
7.38109
7.74201
6.59633
4.03816
1.99469
0.460088
0.289361
2.69423
1.62589
0.294097
1.43707
1.56692
1.66435
1.64083
1.53441
2.28447
2.41735
1.89658
1.74255
3.0877
3.40011
3.38509
2.30121
1.03011
0.241933
-0.519055
-0.495889
-0.4965
-0.525015
-0.589855
-0.712303
-0.901118
-1.13477
0.371543
0.981562
-1.29063
-2.0126
-2.1849
-2.24721
-2.18766
-1.9776
-1.6725
-1.34063
-1.03489
-0.778801
-0.573977
-0.410524
-0.27688
-0.164781
-0.0714935
0.00345856
0.0627163
0.110623
0.149532
0.181732
0.209624
0.235204
0.26005
0.285472
0.312598
0.342287
0.374406
0.411167
0.453902
0.871619
1.17016
0.761667
0.296356
0.086327
0.47633
1.7866
1.53172
0.311753
-0.37091
-0.484744
-0.499591
-0.342438
0.469475
6.59938
7.72268
8.06301
8.23395
8.26656
8.10572
7.73868
0.365826
0.378944
1.80083
0.20579
0.230635
0.269651
3.82263
2.09376
1.69555
1.62381
1.46763
1.41353
2.17171
3.79524
3.90223
3.8541
1.62113
2.3189
2.6764
0.964781
-0.371488
-0.369434
-0.379795
-0.408105
-0.463279
-0.563358
-0.720353
-0.92386
-1.14356
-1.07507
-1.45057
-1.63288
-1.72553
-1.7447
-1.67634
-1.52412
-1.31487
-1.08474
-0.86415
-0.669737
-0.506073
-0.369823
-0.255091
-0.157226
-0.0754031
-0.00905891
0.0492453
0.0897473
0.126449
0.156925
0.183483
0.207783
0.231042
0.254326
0.27855
0.304343
0.331541
0.362117
0.407027
0.95217
1.14622
0.804132
0.323033
0.181088
0.231761
1.94502
1.77823
1.64428
0.779652
0.085827
0.165365
0.430251
5.18958
7.92313
8.17029
8.33389
8.3744
8.34178
8.29768
5.93695
0.289736
0.431289
0.231338
0.181449
0.16293
0.476435
5.9423
6.63361
1.6857
1.664
1.61132
2.76881
4.30723
4.26503
4.21406
1.66009
1.78369
2.97069
3.03796
0.131639
-0.246394
-0.252668
-0.274119
-0.299729
-0.344229
-0.41945
-0.536252
-0.692607
-0.868887
-1.03747
-1.17491
-1.27208
-1.33465
-1.34276
-1.2893
-1.18426
-1.04195
-0.881288
-0.719287
-0.568417
-0.435919
-0.323348
-0.228286
-0.0278141
0.11065
0.115367
0.0456411
0.0717586
0.105379
0.133342
0.157555
0.179395
0.199785
0.219448
0.23906
0.258808
0.278236
0.297698
0.330833
0.887914
1.07418
0.866979
0.519307
1.02615
0.460924
0.555103
1.52524
1.77801
1.62848
0.659186
0.975421
5.44118
8.16161
8.25891
8.33969
8.39507
8.40459
8.37248
4.26156
0.38151
0.366239
0.652384
0.2711
0.190244
0.0919133
0.028295
4.87712
6.6412
6.23856
1.76777
1.78335
4.49996
4.62571
4.55779
2.0862
1.62032
3.15654
3.66756
0.972057
-0.13823
-0.144322
-0.16525
-0.183006
-0.206574
-0.24319
-0.29911
-0.381595
-0.49189
-0.620903
-0.750147
-0.86334
-0.949654
-1.00055
-1.01171
-0.982785
-0.918507
-0.826461
-0.715671
-0.595164
-0.475526
-0.328095
-0.145158
-0.00510778
0.0739907
0.123292
0.175535
0.0265176
0.0553207
0.0858635
0.110898
0.13224
0.150966
0.167737
0.182976
0.196923
0.209367
0.219293
0.224799
0.226623
0.436979
0.842166
1.06205
2.3884
3.82109
2.90488
0.820539
0.721939
0.663344
0.424173
0.0882225
4.37009
7.87308
8.28209
7.74996
5.17472
5.43697
3.891
1.68232
0.214239
0.283921
0.467144
0.578023
0.424711
0.352745
0.0977447
0.10123
4.86966
6.56728
6.67214
6.77838
5.17997
2.33836
2.64585
1.5714
1.44872
2.64859
4.39986
4.07678
0.23838
-0.065967
-0.0774952
-0.0910439
-0.107506
-0.130266
-0.162532
-0.207101
-0.267621
-0.345155
-0.435438
-0.529398
-0.61682
-0.687582
-0.733706
-0.751794
-0.743413
-0.709657
-0.654083
-0.579682
-0.447927
-0.189268
-0.0713494
-0.00547965
0.0448609
0.087902
0.0912966
0.0149994
0.00898723
0.0407534
0.0678488
0.0898364
0.108139
0.123534
0.136429
0.146943
0.154922
0.15973
0.159847
0.151469
0.133296
0.281156
0.704412
0.829989
3.19341
3.77102
3.67121
3.52265
1.32842
0.963429
0.554157
0.109173
0.0140193
0.176421
0.211905
0.1649
0.226601
0.245182