/*--------------------------------*- C++ -*----------------------------------*\
| =========                 |                                                 |
| \\      /  F ield         | OpenFOAM: The Open Source CFD Toolbox           |
|  \\    /   O peration     | Version:  2412                                  |
|   \\  /    A nd           | Website:  www.openfoam.com                      |
|    \\/     M anipulation  |                                                 |
\*---------------------------------------------------------------------------*/
FoamFile
{
    version     2.0;
    format      ascii;
    arch        "LSB;label=32;scalar=64";
    class       volVectorField;
    location    "5.35";
    object      U;
}
// * * * * * * * * * * * * * * * * * * * * * * * * * * * * * * * * * * * * * //

dimensions      [0 1 -1 0 0 0 0];

internalField   nonuniform List<vector> 
6400
(
(3.58095e-11 -4.18361e-11 0)
(6.76667e-11 -1.21566e-11 0)
(-3.18455e-11 3.13821e-11 0)
(-3.13117e-10 7.91398e-11 0)
(-7.36383e-10 9.58987e-11 0)
(-1.25589e-09 1.12887e-10 0)
(-1.85633e-09 1.28116e-10 0)
(-2.51829e-09 1.35474e-10 0)
(-3.22376e-09 1.42757e-10 0)
(-3.96051e-09 1.47695e-10 0)
(-4.71923e-09 1.52784e-10 0)
(-5.48673e-09 1.53189e-10 0)
(-6.25035e-09 1.52171e-10 0)
(-6.9978e-09 1.48066e-10 0)
(-7.72171e-09 1.44172e-10 0)
(-8.41507e-09 1.3885e-10 0)
(-9.07258e-09 1.33275e-10 0)
(-9.68584e-09 1.25403e-10 0)
(-1.02464e-08 1.15881e-10 0)
(-1.07435e-08 1.03597e-10 0)
(-1.1168e-08 8.94975e-11 0)
(-1.15107e-08 7.34889e-11 0)
(-1.17652e-08 5.65305e-11 0)
(-1.19257e-08 3.85485e-11 0)
(-1.19887e-08 2.02093e-11 0)
(-1.19508e-08 1.39934e-12 0)
(-1.18104e-08 -1.74996e-11 0)
(-1.15654e-08 -3.66597e-11 0)
(-1.12153e-08 -5.57856e-11 0)
(-1.07588e-08 -7.50363e-11 0)
(-1.01963e-08 -9.421e-11 0)
(-9.52745e-09 -1.13455e-10 0)
(-8.75373e-09 -1.32527e-10 0)
(-7.87673e-09 -1.51398e-10 0)
(-6.90042e-09 -1.69627e-10 0)
(-5.83007e-09 -1.86918e-10 0)
(-4.67424e-09 -2.02596e-10 0)
(-3.44362e-09 -2.16163e-10 0)
(-2.15262e-09 -2.26861e-10 0)
(-8.17716e-10 -2.34226e-10 0)
(5.41445e-10 -2.37661e-10 0)
(1.90415e-09 -2.36943e-10 0)
(3.2479e-09 -2.31777e-10 0)
(4.55071e-09 -2.22286e-10 0)
(5.79052e-09 -2.0853e-10 0)
(6.94754e-09 -1.90996e-10 0)
(8.00353e-09 -1.70086e-10 0)
(8.94405e-09 -1.46599e-10 0)
(9.75747e-09 -1.21186e-10 0)
(1.04368e-08 -9.48089e-11 0)
(1.09782e-08 -6.81632e-11 0)
(1.13823e-08 -4.2133e-11 0)
(1.16525e-08 -1.72591e-11 0)
(1.17957e-08 5.79032e-12 0)
(1.18204e-08 2.67062e-11 0)
(1.17375e-08 4.51399e-11 0)
(1.15575e-08 6.11013e-11 0)
(1.12924e-08 7.46344e-11 0)
(1.09523e-08 8.59494e-11 0)
(1.05476e-08 9.53307e-11 0)
(1.00864e-08 1.02961e-10 0)
(9.57675e-09 1.09394e-10 0)
(9.02389e-09 1.14676e-10 0)
(8.43334e-09 1.19554e-10 0)
(7.80879e-09 1.23387e-10 0)
(7.15555e-09 1.26939e-10 0)
(6.47818e-09 1.28825e-10 0)
(5.78342e-09 1.30496e-10 0)
(5.07721e-09 1.30036e-10 0)
(4.36769e-09 1.29617e-10 0)
(3.66293e-09 1.26305e-10 0)
(2.97413e-09 1.22629e-10 0)
(2.31403e-09 1.14551e-10 0)
(1.69893e-09 1.04969e-10 0)
(1.14688e-09 8.98742e-11 0)
(6.78245e-10 7.23547e-11 0)
(3.13962e-10 4.7978e-11 0)
(6.97043e-11 2.17331e-11 0)
(-5.05873e-11 -6.30864e-13 0)
(-3.87579e-11 -1.2566e-11 0)
(3.5203e-12 1.58563e-11 0)
(-1.74479e-10 2.87978e-10 0)
(-6.83444e-10 6.08947e-10 0)
(-1.553e-09 9.19234e-10 0)
(-2.72442e-09 1.11708e-09 0)
(-4.13378e-09 1.28992e-09 0)
(-5.73948e-09 1.42236e-09 0)
(-7.50094e-09 1.51789e-09 0)
(-9.37543e-09 1.57926e-09 0)
(-1.13283e-08 1.62222e-09 0)
(-1.33243e-08 1.63715e-09 0)
(-1.53339e-08 1.62918e-09 0)
(-1.73248e-08 1.59394e-09 0)
(-1.92738e-08 1.54274e-09 0)
(-2.11563e-08 1.47499e-09 0)
(-2.29551e-08 1.39688e-09 0)
(-2.4648e-08 1.30364e-09 0)
(-2.62167e-08 1.19563e-09 0)
(-2.76368e-08 1.06877e-09 0)
(-2.88878e-08 9.24631e-10 0)
(-2.99459e-08 7.631e-10 0)
(-3.0793e-08 5.88444e-10 0)
(-3.14106e-08 4.02697e-10 0)
(-3.17863e-08 2.09392e-10 0)
(-3.19073e-08 1.00136e-11 0)
(-3.17662e-08 -1.93022e-10 0)
(-3.13544e-08 -3.99051e-10 0)
(-3.06682e-08 -6.06625e-10 0)
(-2.97026e-08 -8.15402e-10 0)
(-2.84565e-08 -1.02422e-09 0)
(-2.69282e-08 -1.23266e-09 0)
(-2.51203e-08 -1.43926e-09 0)
(-2.30358e-08 -1.64263e-09 0)
(-2.06835e-08 -1.8399e-09 0)
(-1.80744e-08 -2.02787e-09 0)
(-1.52275e-08 -2.20179e-09 0)
(-1.21657e-08 -2.35672e-09 0)
(-8.92113e-09 -2.48677e-09 0)
(-5.53053e-09 -2.58663e-09 0)
(-2.03913e-09 -2.65105e-09 0)
(1.50475e-09 -2.67628e-09 0)
(5.04691e-09 -2.65936e-09 0)
(8.53335e-09 -2.59941e-09 0)
(1.1908e-08 -2.49668e-09 0)
(1.51192e-08 -2.35363e-09 0)
(1.81171e-08 -2.17378e-09 0)
(2.08601e-08 -1.96265e-09 0)
(2.33119e-08 -1.72637e-09 0)
(2.5447e-08 -1.47243e-09 0)
(2.72466e-08 -1.2081e-09 0)
(2.87036e-08 -9.41019e-10 0)
(2.98172e-08 -6.77737e-10 0)
(3.05965e-08 -4.24465e-10 0)
(3.10553e-08 -1.85807e-10 0)
(3.12148e-08 3.44214e-11 0)
(3.10971e-08 2.34313e-10 0)
(3.07293e-08 4.13055e-10 0)
(3.01355e-08 5.71385e-10 0)
(2.93423e-08 7.10783e-10 0)
(2.83711e-08 8.33252e-10 0)
(2.72443e-08 9.41502e-10 0)
(2.59781e-08 1.03781e-09 0)
(2.45897e-08 1.12534e-09 0)
(2.30901e-08 1.20459e-09 0)
(2.14938e-08 1.27717e-09 0)
(1.98116e-08 1.34007e-09 0)
(1.80595e-08 1.39444e-09 0)
(1.62507e-08 1.43547e-09 0)
(1.4405e-08 1.46559e-09 0)
(1.25401e-08 1.47744e-09 0)
(1.06816e-08 1.47343e-09 0)
(8.85522e-09 1.44235e-09 0)
(7.09575e-09 1.38594e-09 0)
(5.44051e-09 1.29115e-09 0)
(3.9333e-09 1.1623e-09 0)
(2.61885e-09 9.89618e-10 0)
(1.53956e-09 7.8189e-10 0)
(7.30198e-10 5.46406e-10 0)
(2.13194e-10 3.11453e-10 0)
(3.73175e-12 7.27587e-11 0)
(-4.48458e-11 2.87588e-10 0)
(-5.0859e-10 9.83909e-10 0)
(-1.44268e-09 1.71777e-09 0)
(-2.84881e-09 2.3975e-09 0)
(-4.65618e-09 2.91326e-09 0)
(-6.80311e-09 3.34169e-09 0)
(-9.23605e-09 3.69111e-09 0)
(-1.18947e-08 3.93889e-09 0)
(-1.47209e-08 4.11436e-09 0)
(-1.76566e-08 4.21577e-09 0)
(-2.0656e-08 4.25849e-09 0)
(-2.36703e-08 4.23135e-09 0)
(-2.66621e-08 4.15119e-09 0)
(-2.95896e-08 4.01841e-09 0)
(-3.2423e-08 3.84825e-09 0)
(-3.51258e-08 3.63716e-09 0)
(-3.76706e-08 3.38954e-09 0)
(-4.00216e-08 3.0975e-09 0)
(-4.21503e-08 2.76291e-09 0)
(-4.40216e-08 2.38298e-09 0)
(-4.56083e-08 1.96321e-09 0)
(-4.68788e-08 1.50716e-09 0)
(-4.78102e-08 1.02282e-09 0)
(-4.83776e-08 5.14559e-10 0)
(-4.85645e-08 -1.13493e-11 0)
(-4.83523e-08 -5.51588e-10 0)
(-4.77307e-08 -1.10174e-09 0)
(-4.66866e-08 -1.65966e-09 0)
(-4.52149e-08 -2.22186e-09 0)
(-4.33084e-08 -2.78614e-09 0)
(-4.09679e-08 -3.34854e-09 0)
(-3.8194e-08 -3.90527e-09 0)
(-3.49963e-08 -4.44995e-09 0)
(-3.13871e-08 -4.97521e-09 0)
(-2.73899e-08 -5.47068e-09 0)
(-2.30332e-08 -5.9249e-09 0)
(-1.83589e-08 -6.32416e-09 0)
(-1.34151e-08 -6.65495e-09 0)
(-8.26304e-09 -6.9035e-09 0)
(-2.96902e-09 -7.05837e-09 0)
(2.39018e-09 -7.10998e-09 0)
(7.73675e-09 -7.05289e-09 0)
(1.29874e-08 -6.88477e-09 0)
(1.80635e-08 -6.60823e-09 0)
(2.28865e-08 -6.22918e-09 0)
(2.73885e-08 -5.75821e-09 0)
(3.15069e-08 -5.2085e-09 0)
(3.51938e-08 -4.59672e-09 0)
(3.84102e-08 -3.94039e-09 0)
(4.11336e-08 -3.2585e-09 0)
(4.33505e-08 -2.56865e-09 0)
(4.50635e-08 -1.88793e-09 0)
(4.62817e-08 -1.23044e-09 0)
(4.70279e-08 -6.08484e-10 0)
(4.73273e-08 -3.0406e-11 0)
(4.7215e-08 4.98174e-10 0)
(4.67236e-08 9.75635e-10 0)
(4.58916e-08 1.40276e-09 0)
(4.47516e-08 1.78267e-09 0)
(4.33392e-08 2.12003e-09 0)
(4.16816e-08 2.41998e-09 0)
(3.98085e-08 2.68911e-09 0)
(3.77403e-08 2.93141e-09 0)
(3.55013e-08 3.1516e-09 0)
(3.31085e-08 3.34765e-09 0)
(3.05859e-08 3.52091e-09 0)
(2.79514e-08 3.66403e-09 0)
(2.52326e-08 3.77867e-09 0)
(2.24524e-08 3.85336e-09 0)
(1.96446e-08 3.88994e-09 0)
(1.68408e-08 3.87059e-09 0)
(1.40848e-08 3.79563e-09 0)
(1.14213e-08 3.64124e-09 0)
(8.90575e-09 3.40895e-09 0)
(6.59577e-09 3.07824e-09 0)
(4.5526e-09 2.66104e-09 0)
(2.83166e-09 2.15311e-09 0)
(1.4793e-09 1.58997e-09 0)
(5.38513e-10 9.96679e-10 0)
(4.85293e-11 3.20243e-10 0)
(-7.64678e-11 7.22808e-10 0)
(-7.87139e-10 2.02603e-09 0)
(-2.08911e-09 3.28283e-09 0)
(-3.95362e-09 4.43213e-09 0)
(-6.29579e-09 5.34798e-09 0)
(-9.0521e-09 6.13168e-09 0)
(-1.21574e-08 6.75535e-09 0)
(-1.55424e-08 7.22629e-09 0)
(-1.91313e-08 7.5415e-09 0)
(-2.28615e-08 7.7403e-09 0)
(-2.66683e-08 7.81129e-09 0)
(-3.05032e-08 7.77793e-09 0)
(-3.43096e-08 7.63399e-09 0)
(-3.80464e-08 7.40692e-09 0)
(-4.1663e-08 7.09506e-09 0)
(-4.51235e-08 6.71288e-09 0)
(-4.83809e-08 6.2515e-09 0)
(-5.14001e-08 5.71457e-09 0)
(-5.41352e-08 5.09549e-09 0)
(-5.6552e-08 4.40007e-09 0)
(-5.86079e-08 3.62957e-09 0)
(-6.02711e-08 2.79463e-09 0)
(-6.15036e-08 1.90235e-09 0)
(-6.22786e-08 9.63864e-10 0)
(-6.25648e-08 -1.4005e-11 0)
(-6.23419e-08 -1.02235e-09 0)
(-6.15858e-08 -2.05576e-09 0)
(-6.02826e-08 -3.10709e-09 0)
(-5.84159e-08 -4.17121e-09 0)
(-5.598e-08 -5.24057e-09 0)
(-5.29683e-08 -6.30797e-09 0)
(-4.93865e-08 -7.36264e-09 0)
(-4.52428e-08 -8.39235e-09 0)
(-4.05599e-08 -9.3803e-09 0)
(-3.53661e-08 -1.03075e-08 0)
(-2.9707e-08 -1.11508e-08 0)
(-2.36353e-08 -1.18863e-08 0)
(-1.72219e-08 -1.24885e-08 0)
(-1.05445e-08 -1.29343e-08 0)
(-3.69611e-09 -1.3203e-08 0)
(3.22704e-09 -1.32795e-08 0)
(1.0119e-08 -1.31544e-08 0)
(1.68772e-08 -1.2826e-08 0)
(2.33967e-08 -1.22993e-08 0)
(2.95834e-08 -1.15875e-08 0)
(3.53477e-08 -1.07098e-08 0)
(4.06174e-08 -9.69187e-09 0)
(4.53294e-08 -8.56287e-09 0)
(4.94417e-08 -7.35568e-09 0)
(5.29229e-08 -6.10268e-09 0)
(5.57629e-08 -4.83639e-09 0)
(5.79605e-08 -3.58555e-09 0)
(5.95332e-08 -2.37634e-09 0)
(6.05037e-08 -1.22903e-09 0)
(6.09091e-08 -1.59476e-10 0)
(6.0786e-08 8.23381e-10 0)
(6.01808e-08 1.71542e-09 0)
(5.91343e-08 2.51793e-09 0)
(5.76935e-08 3.23547e-09 0)
(5.58962e-08 3.87512e-09 0)
(5.37842e-08 4.44638e-09 0)
(5.1388e-08 4.95767e-09 0)
(4.87432e-08 5.41856e-09 0)
(4.58738e-08 5.8314e-09 0)
(4.28123e-08 6.20039e-09 0)
(3.95811e-08 6.51832e-09 0)
(3.62139e-08 6.78636e-09 0)
(3.27364e-08 6.99008e-09 0)
(2.91879e-08 7.13065e-09 0)
(2.56015e-08 7.18558e-09 0)
(2.20253e-08 7.15421e-09 0)
(1.85049e-08 7.00354e-09 0)
(1.51013e-08 6.73183e-09 0)
(1.18747e-08 6.3036e-09 0)
(8.89548e-09 5.72617e-09 0)
(6.23323e-09 4.98049e-09 0)
(3.95664e-09 4.09782e-09 0)
(2.12661e-09 3.09909e-09 0)
(8.09485e-10 2.03142e-09 0)
(7.85466e-11 7.29549e-10 0)
(-9.18061e-11 1.27836e-09 0)
(-9.94182e-10 3.34742e-09 0)
(-2.60873e-09 5.23179e-09 0)
(-4.86343e-09 6.90709e-09 0)
(-7.65647e-09 8.30685e-09 0)
(-1.09181e-08 9.48527e-09 0)
(-1.45773e-08 1.04526e-08 0)
(-1.85509e-08 1.11646e-08 0)
(-2.27624e-08 1.16698e-08 0)
(-2.71314e-08 1.19673e-08 0)
(-3.15983e-08 1.20977e-08 0)
(-3.60951e-08 1.20478e-08 0)
(-4.05734e-08 1.18518e-08 0)
(-4.49707e-08 1.15075e-08 0)
(-4.92429e-08 1.10438e-08 0)
(-5.33324e-08 1.04539e-08 0)
(-5.71985e-08 9.74881e-09 0)
(-6.07864e-08 8.91767e-09 0)
(-6.40562e-08 7.96715e-09 0)
(-6.69555e-08 6.89451e-09 0)
(-6.94459e-08 5.71062e-09 0)
(-7.14784e-08 4.42153e-09 0)
(-7.30169e-08 3.04198e-09 0)
(-7.4017e-08 1.58181e-09 0)
(-7.44473e-08 5.47455e-11 0)
(-7.427e-08 -1.53004e-09 0)
(-7.34597e-08 -3.16083e-09 0)
(-7.19866e-08 -4.82881e-09 0)
(-6.98343e-08 -6.52205e-09 0)
(-6.6984e-08 -8.2293e-09 0)
(-6.34321e-08 -9.93472e-09 0)
(-5.91765e-08 -1.16207e-08 0)
(-5.42333e-08 -1.32637e-08 0)
(-4.86238e-08 -1.48364e-08 0)
(-4.23906e-08 -1.63058e-08 0)
(-3.5585e-08 -1.76361e-08 0)
(-2.82805e-08 -1.8788e-08 0)
(-2.05601e-08 -1.97236e-08 0)
(-1.25275e-08 -2.04063e-08 0)
(-4.29255e-09 -2.08067e-08 0)
(4.01978e-09 -2.09018e-08 0)
(1.22856e-08 -2.06802e-08 0)
(2.03742e-08 -2.01402e-08 0)
(2.81652e-08 -1.92931e-08 0)
(3.55406e-08 -1.816e-08 0)
(4.2401e-08 -1.67736e-08 0)
(4.86566e-08 -1.51734e-08 0)
(5.42419e-08 -1.34065e-08 0)
(5.91035e-08 -1.15219e-08 0)
(6.32142e-08 -9.5705e-09 0)
(6.65578e-08 -7.59989e-09 0)
(6.91422e-08 -5.65495e-09 0)
(7.09827e-08 -3.77324e-09 0)
(7.21142e-08 -1.98658e-09 0)
(7.25733e-08 -3.1712e-10 0)
(7.24111e-08 1.2204e-09 0)
(7.16737e-08 2.62046e-09 0)
(7.04176e-08 3.88356e-09 0)
(6.86892e-08 5.01595e-09 0)
(6.65424e-08 6.02797e-09 0)
(6.40176e-08 6.93148e-09 0)
(6.11618e-08 7.74087e-09 0)
(5.80078e-08 8.46492e-09 0)
(5.45969e-08 9.11359e-09 0)
(5.09569e-08 9.68396e-09 0)
(4.71276e-08 1.01792e-08 0)
(4.31366e-08 1.05845e-08 0)
(3.90274e-08 1.09006e-08 0)
(3.48328e-08 1.11022e-08 0)
(3.06032e-08 1.11895e-08 0)
(2.63813e-08 1.11232e-08 0)
(2.22295e-08 1.08993e-08 0)
(1.82068e-08 1.04684e-08 0)
(1.43877e-08 9.83272e-09 0)
(1.08428e-08 8.95214e-09 0)
(7.65262e-09 7.84735e-09 0)
(4.8977e-09 6.51017e-09 0)
(2.65444e-09 5.00949e-09 0)
(1.02245e-09 3.3462e-09 0)
(9.94382e-11 1.26498e-09 0)
(-1.00569e-10 1.91413e-09 0)
(-1.14969e-09 4.91018e-09 0)
(-3.02573e-09 7.48914e-09 0)
(-5.609e-09 9.77154e-09 0)
(-8.78321e-09 1.16845e-08 0)
(-1.24711e-08 1.3328e-08 0)
(-1.65895e-08 1.46467e-08 0)
(-2.10552e-08 1.56572e-08 0)
(-2.57752e-08 1.63465e-08 0)
(-3.06758e-08 1.6785e-08 0)
(-3.56772e-08 1.6962e-08 0)
(-4.07252e-08 1.69236e-08 0)
(-4.57496e-08 1.66588e-08 0)
(-5.07027e-08 1.6209e-08 0)
(-5.55173e-08 1.55696e-08 0)
(-6.01482e-08 1.47657e-08 0)
(-6.45317e-08 1.37852e-08 0)
(-6.86248e-08 1.26382e-08 0)
(-7.23672e-08 1.13164e-08 0)
(-7.57159e-08 9.83055e-09 0)
(-7.86127e-08 8.18265e-09 0)
(-8.10149e-08 6.38812e-09 0)
(-8.28667e-08 4.45661e-09 0)
(-8.41265e-08 2.40544e-09 0)
(-8.47424e-08 2.46544e-10 0)
(-8.46765e-08 -2.00395e-09 0)
(-8.38833e-08 -4.33379e-09 0)
(-8.23321e-08 -6.7266e-09 0)
(-7.99878e-08 -9.16711e-09 0)
(-7.68324e-08 -1.16344e-08 0)
(-7.28478e-08 -1.41054e-08 0)
(-6.80366e-08 -1.65495e-08 0)
(-6.24065e-08 -1.89315e-08 0)
(-5.59898e-08 -2.12078e-08 0)
(-4.88281e-08 -2.33301e-08 0)
(-4.09906e-08 -2.52438e-08 0)
(-3.2558e-08 -2.68937e-08 0)
(-2.36382e-08 -2.82238e-08 0)
(-1.43489e-08 -2.91844e-08 0)
(-4.82972e-09 -2.9733e-08 0)
(4.77655e-09 -2.98409e-08 0)
(1.43145e-08 -2.94924e-08 0)
(2.36364e-08 -2.86899e-08 0)
(3.25935e-08 -2.74505e-08 0)
(4.10559e-08 -2.58091e-08 0)
(4.89026e-08 -2.38126e-08 0)
(5.60398e-08 -2.15207e-08 0)
(6.23876e-08 -1.89991e-08 0)
(6.78968e-08 -1.6319e-08 0)
(7.25323e-08 -1.35498e-08 0)
(7.6288e-08 -1.07592e-08 0)
(7.91681e-08 -8.00715e-09 0)
(8.12022e-08 -5.34692e-09 0)
(8.24235e-08 -2.8199e-09 0)
(8.2885e-08 -4.57801e-10 0)
(8.26363e-08 1.72084e-09 0)
(8.17412e-08 3.70695e-09 0)
(8.02541e-08 5.50145e-09 0)
(7.82396e-08 7.11204e-09 0)
(7.57481e-08 8.55144e-09 0)
(7.28386e-08 9.837e-09 0)
(6.9553e-08 1.09838e-08 0)
(6.59432e-08 1.2009e-08 0)
(6.20431e-08 1.29175e-08 0)
(5.78999e-08 1.37183e-08 0)
(5.35437e-08 1.44002e-08 0)
(4.9022e-08 1.49654e-08 0)
(4.43664e-08 1.53885e-08 0)
(3.9629e-08 1.56703e-08 0)
(3.48483e-08 1.57699e-08 0)
(3.00855e-08 1.56836e-08 0)
(2.53938e-08 1.53513e-08 0)
(2.0849e-08 1.47686e-08 0)
(1.65211e-08 1.38766e-08 0)
(1.24936e-08 1.26898e-08 0)
(8.84933e-09 1.11637e-08 0)
(5.68241e-09 9.33913e-09 0)
(3.0874e-09 7.24684e-09 0)
(1.19219e-09 4.89405e-09 0)
(1.15776e-10 1.89473e-09 0)
(-1.09361e-10 2.61402e-09 0)
(-1.27432e-09 6.65178e-09 0)
(-3.35763e-09 1.00181e-08 0)
(-6.21705e-09 1.29413e-08 0)
(-9.71743e-09 1.54438e-08 0)
(-1.37663e-08 1.75527e-08 0)
(-1.82769e-08 1.92884e-08 0)
(-2.3152e-08 2.05828e-08 0)
(-2.8306e-08 2.15091e-08 0)
(-3.36433e-08 2.20661e-08 0)
(-3.90991e-08 2.23294e-08 0)
(-4.45963e-08 2.22812e-08 0)
(-5.00864e-08 2.19757e-08 0)
(-5.54976e-08 2.14017e-08 0)
(-6.07837e-08 2.06011e-08 0)
(-6.5874e-08 1.95625e-08 0)
(-7.07231e-08 1.83065e-08 0)
(-7.52639e-08 1.68195e-08 0)
(-7.94517e-08 1.51136e-08 0)
(-8.32214e-08 1.31841e-08 0)
(-8.65262e-08 1.10455e-08 0)
(-8.93014e-08 8.70362e-09 0)
(-9.14979e-08 6.17642e-09 0)
(-9.30514e-08 3.47565e-09 0)
(-9.39125e-08 6.20211e-10 0)
(-9.40195e-08 -2.37578e-09 0)
(-9.33263e-08 -5.49259e-09 0)
(-9.17786e-08 -8.71213e-09 0)
(-8.93403e-08 -1.20093e-08 0)
(-8.59722e-08 -1.53566e-08 0)
(-8.16578e-08 -1.87172e-08 0)
(-7.63836e-08 -2.20485e-08 0)
(-7.01638e-08 -2.52968e-08 0)
(-6.30222e-08 -2.84014e-08 0)
(-5.50145e-08 -3.12919e-08 0)
(-4.62104e-08 -3.38939e-08 0)
(-3.6713e-08 -3.61289e-08 0)
(-2.66401e-08 -3.79224e-08 0)
(-1.61397e-08 -3.92055e-08 0)
(-5.36851e-09 -3.99238e-08 0)
(5.49529e-09 -4.00384e-08 0)
(1.62766e-08 -3.95332e-08 0)
(2.6793e-08 -3.84127e-08 0)
(3.68797e-08 -3.67064e-08 0)
(4.63782e-08 -3.44629e-08 0)
(5.51601e-08 -3.17513e-08 0)
(6.31123e-08 -2.86522e-08 0)
(7.01575e-08 -2.52577e-08 0)
(7.62357e-08 -2.1661e-08 0)
(8.13225e-08 -1.79567e-08 0)
(8.54071e-08 -1.42314e-08 0)
(8.85099e-08 -1.05654e-08 0)
(9.06586e-08 -7.02537e-09 0)
(9.19055e-08 -3.66641e-09 0)
(9.23025e-08 -5.26886e-10 0)
(9.19194e-08 2.36785e-09 0)
(9.08178e-08 5.00752e-09 0)
(8.9073e-08 7.39222e-09 0)
(8.67454e-08 9.53165e-09 0)
(8.39065e-08 1.14428e-08 0)
(8.06086e-08 1.31451e-08 0)
(7.69149e-08 1.46619e-08 0)
(7.28679e-08 1.60077e-08 0)
(6.85231e-08 1.72001e-08 0)
(6.39149e-08 1.82367e-08 0)
(5.90957e-08 1.91247e-08 0)
(5.40969e-08 1.98421e-08 0)
(4.89722e-08 2.03915e-08 0)
(4.37557e-08 2.0733e-08 0)
(3.85073e-08 2.08662e-08 0)
(3.32715e-08 2.07269e-08 0)
(2.81206e-08 2.03074e-08 0)
(2.31183e-08 1.9527e-08 0)
(1.83516e-08 1.83931e-08 0)
(1.39015e-08 1.68415e-08 0)
(9.86414e-09 1.48916e-08 0)
(6.34036e-09 1.25044e-08 0)
(3.44314e-09 9.77421e-09 0)
(1.32828e-09 6.62222e-09 0)
(1.26999e-10 2.60177e-09 0)
(-1.17793e-10 3.36251e-09 0)
(-1.37162e-09 8.54014e-09 0)
(-3.62107e-09 1.27467e-08 0)
(-6.71431e-09 1.6399e-08 0)
(-1.04956e-08 1.94947e-08 0)
(-1.48602e-08 2.21411e-08 0)
(-1.97025e-08 2.42696e-08 0)
(-2.4933e-08 2.5914e-08 0)
(-3.04475e-08 2.70449e-08 0)
(-3.61657e-08 2.77719e-08 0)
(-4.1995e-08 2.80878e-08 0)
(-4.78832e-08 2.80707e-08 0)
(-5.37555e-08 2.77003e-08 0)
(-5.95695e-08 2.70334e-08 0)
(-6.52519e-08 2.60554e-08 0)
(-7.07589e-08 2.48021e-08 0)
(-7.60179e-08 2.32571e-08 0)
(-8.09844e-08 2.14382e-08 0)
(-8.55881e-08 1.93334e-08 0)
(-8.97816e-08 1.69561e-08 0)
(-9.34937e-08 1.43049e-08 0)
(-9.66716e-08 1.13961e-08 0)
(-9.92417e-08 8.23726e-09 0)
(-1.01146e-07 4.84696e-09 0)
(-1.02308e-07 1.23803e-09 0)
(-1.02667e-07 -2.56887e-09 0)
(-1.0215e-07 -6.5554e-09 0)
(-1.00701e-07 -1.06946e-08 0)
(-9.82554e-08 -1.49569e-08 0)
(-9.47738e-08 -1.93015e-08 0)
(-9.02153e-08 -2.36803e-08 0)
(-8.45685e-08 -2.80314e-08 0)
(-7.78304e-08 -3.22829e-08 0)
(-7.00335e-08 -3.63493e-08 0)
(-6.12258e-08 -4.01368e-08 0)
(-5.14949e-08 -4.35429e-08 0)
(-4.09477e-08 -4.64644e-08 0)
(-2.97305e-08 -4.88001e-08 0)
(-1.8006e-08 -5.04614e-08 0)
(-5.96903e-09 -5.13752e-08 0)
(6.18006e-09 -5.14946e-08 0)
(1.82242e-08 -5.07994e-08 0)
(2.99587e-08 -4.93021e-08 0)
(4.11813e-08 -4.70442e-08 0)
(5.17195e-08 -4.4097e-08 0)
(6.14179e-08 -4.05525e-08 0)
(7.01618e-08 -3.65222e-08 0)
(7.78584e-08 -3.21248e-08 0)
(8.44577e-08 -2.74847e-08 0)
(8.99288e-08 -2.27202e-08 0)
(9.42786e-08 -1.79444e-08 0)
(9.75262e-08 -1.32551e-08 0)
(9.97212e-08 -8.73764e-09 0)
(1.00916e-07 -4.45741e-09 0)
(1.01186e-07 -4.63374e-10 0)
(1.006e-07 3.21587e-09 0)
(9.92448e-08 6.56652e-09 0)
(9.7191e-08 9.59006e-09 0)
(9.45233e-08 1.22988e-08 0)
(9.13064e-08 1.47127e-08 0)
(8.76162e-08 1.68588e-08 0)
(8.35056e-08 1.87606e-08 0)
(7.90407e-08 2.04451e-08 0)
(7.42625e-08 2.19223e-08 0)
(6.92299e-08 2.32089e-08 0)
(6.39759e-08 2.42912e-08 0)
(5.85567e-08 2.51766e-08 0)
(5.30031e-08 2.58291e-08 0)
(4.73739e-08 2.62524e-08 0)
(4.17052e-08 2.63845e-08 0)
(3.60648e-08 2.6221e-08 0)
(3.05035e-08 2.56692e-08 0)
(2.5105e-08 2.47223e-08 0)
(1.99441e-08 2.32892e-08 0)
(1.51215e-08 2.13906e-08 0)
(1.07336e-08 1.89463e-08 0)
(6.89601e-09 1.59871e-08 0)
(3.7367e-09 1.25268e-08 0)
(1.43376e-09 8.51174e-09 0)
(1.34215e-10 3.36341e-09 0)
(-1.21768e-10 4.15406e-09 0)
(-1.44608e-09 1.05237e-08 0)
(-3.83559e-09 1.567e-08 0)
(-7.13311e-09 2.00668e-08 0)
(-1.11655e-08 2.38438e-08 0)
(-1.5807e-08 2.69971e-08 0)
(-2.09464e-08 2.95909e-08 0)
(-2.64736e-08 3.15408e-08 0)
(-3.23053e-08 3.2945e-08 0)
(-3.83354e-08 3.3796e-08 0)
(-4.4497e-08 3.42177e-08 0)
(-5.07044e-08 3.41933e-08 0)
(-5.69181e-08 3.38023e-08 0)
(-6.30652e-08 3.30209e-08 0)
(-6.91092e-08 3.19022e-08 0)
(-7.49762e-08 3.0425e-08 0)
(-8.06253e-08 2.86185e-08 0)
(-8.59831e-08 2.6464e-08 0)
(-9.10043e-08 2.39769e-08 0)
(-9.56143e-08 2.11466e-08 0)
(-9.97604e-08 1.79864e-08 0)
(-1.03363e-07 1.44958e-08 0)
(-1.0636e-07 1.06903e-08 0)
(-1.08664e-07 6.57696e-09 0)
(-1.10204e-07 2.17392e-09 0)
(-1.10889e-07 -2.50427e-09 0)
(-1.10644e-07 -7.43244e-09 0)
(-1.0938e-07 -1.25831e-08 0)
(-1.0703e-07 -1.79153e-08 0)
(-1.03523e-07 -2.33793e-08 0)
(-9.88161e-08 -2.89086e-08 0)
(-9.28707e-08 -3.44236e-08 0)
(-8.56865e-08 -3.98262e-08 0)
(-7.72784e-08 -4.50053e-08 0)
(-6.7706e-08 -4.98346e-08 0)
(-5.70517e-08 -5.4181e-08 0)
(-4.54463e-08 -5.79071e-08 0)
(-3.30451e-08 -6.08825e-08 0)
(-2.00489e-08 -6.2989e-08 0)
(-6.6752e-09 -6.41349e-08 0)
(6.82727e-09 -6.42585e-08 0)
(2.02124e-08 -6.33394e-08 0)
(3.32267e-08 -6.13967e-08 0)
(4.56442e-08 -5.84925e-08 0)
(5.72542e-08 -5.47222e-08 0)
(6.7892e-08 -5.02127e-08 0)
(7.74198e-08 -4.51079e-08 0)
(8.57514e-08 -3.95647e-08 0)
(9.28272e-08 -3.37383e-08 0)
(9.86346e-08 -2.77806e-08 0)
(1.03179e-07 -2.18281e-08 0)
(1.06505e-07 -1.60039e-08 0)
(1.08664e-07 -1.04078e-08 0)
(1.09736e-07 -5.12066e-09 0)
(1.09798e-07 -1.97346e-10 0)
(1.08947e-07 4.32686e-09 0)
(1.07267e-07 8.43859e-09 0)
(1.04858e-07 1.21399e-08 0)
(1.01799e-07 1.54469e-08 0)
(9.81797e-08 1.83862e-08 0)
(9.40663e-08 2.09874e-08 0)
(8.95378e-08 2.32859e-08 0)
(8.46448e-08 2.53052e-08 0)
(7.94551e-08 2.70743e-08 0)
(7.40063e-08 2.8594e-08 0)
(6.83586e-08 2.98804e-08 0)
(6.25413e-08 3.09062e-08 0)
(5.66129e-08 3.16805e-08 0)
(5.06021e-08 3.21475e-08 0)
(4.45727e-08 3.23095e-08 0)
(3.85625e-08 3.20741e-08 0)
(3.26473e-08 3.14318e-08 0)
(2.68861e-08 3.02622e-08 0)
(2.13762e-08 2.85702e-08 0)
(1.62091e-08 2.62535e-08 0)
(1.15031e-08 2.33326e-08 0)
(7.37915e-09 1.97162e-08 0)
(3.984e-09 1.54999e-08 0)
(1.51746e-09 1.05198e-08 0)
(1.37227e-10 4.17014e-09 0)
(-1.2346e-10 4.96875e-09 0)
(-1.50726e-09 1.26105e-08 0)
(-4.02818e-09 1.87297e-08 0)
(-7.51556e-09 2.3968e-08 0)
(-1.17766e-08 2.8406e-08 0)
(-1.66786e-08 3.21533e-08 0)
(-2.20796e-08 3.51477e-08 0)
(-2.78769e-08 3.74796e-08 0)
(-3.39645e-08 3.90954e-08 0)
(-4.02712e-08 4.01426e-08 0)
(-4.66964e-08 4.06163e-08 0)
(-5.31923e-08 4.06421e-08 0)
(-5.9681e-08 4.01942e-08 0)
(-6.61343e-08 3.93486e-08 0)
(-7.24811e-08 3.80751e-08 0)
(-7.86901e-08 3.64182e-08 0)
(-8.46878e-08 3.43514e-08 0)
(-9.04357e-08 3.18972e-08 0)
(-9.58577e-08 2.90351e-08 0)
(-1.00906e-07 2.57769e-08 0)
(-1.05498e-07 2.21114e-08 0)
(-1.09572e-07 1.80487e-08 0)
(-1.13037e-07 1.35864e-08 0)
(-1.15814e-07 8.73608e-09 0)
(-1.17801e-07 3.50376e-09 0)
(-1.18907e-07 -2.09202e-09 0)
(-1.19021e-07 -8.03131e-09 0)
(-1.18051e-07 -1.42784e-08 0)
(-1.15893e-07 -2.07885e-08 0)
(-1.12467e-07 -2.74958e-08 0)
(-1.07697e-07 -3.43192e-08 0)
(-1.01539e-07 -4.11533e-08 0)
(-9.39641e-08 -4.78744e-08 0)
(-8.49913e-08 -5.4336e-08 0)
(-7.46632e-08 -6.03771e-08 0)
(-6.30781e-08 -6.58234e-08 0)
(-5.03665e-08 -7.04987e-08 0)
(-3.67173e-08 -7.42315e-08 0)
(-2.23501e-08 -7.68707e-08 0)
(-7.53388e-09 -7.82947e-08 0)
(7.44798e-09 -7.8428e-08 0)
(2.22887e-08 -7.72453e-08 0)
(3.66988e-08 -7.47795e-08 0)
(5.03984e-08 -7.11144e-08 0)
(6.31553e-08 -6.63831e-08 0)
(7.47696e-08 -6.07507e-08 0)
(8.51028e-08 -5.44078e-08 0)
(9.40534e-08 -4.75515e-08 0)
(1.01579e-07 -4.03802e-08 0)
(1.07665e-07 -3.3078e-08 0)
(1.12344e-07 -2.58146e-08 0)
(1.15666e-07 -1.87339e-08 0)
(1.17713e-07 -1.19572e-08 0)
(1.18571e-07 -5.57517e-09 0)
(1.18349e-07 3.46652e-10 0)
(1.17148e-07 5.77193e-09 0)
(1.15082e-07 1.06856e-08 0)
(1.12249e-07 1.50942e-08 0)
(1.08756e-07 1.90191e-08 0)
(1.04685e-07 2.24921e-08 0)
(1.0013e-07 2.55541e-08 0)
(9.51556e-08 2.82408e-08 0)
(8.98408e-08 3.0594e-08 0)
(8.42313e-08 3.26327e-08 0)
(7.83945e-08 3.43865e-08 0)
(7.2361e-08 3.58437e-08 0)
(6.6191e-08 3.70217e-08 0)
(5.99072e-08 3.78751e-08 0)
(5.35701e-08 3.8414e-08 0)
(4.72052e-08 3.85541e-08 0)
(4.08807e-08 3.82934e-08 0)
(3.46366e-08 3.75017e-08 0)
(2.85586e-08 3.61679e-08 0)
(2.27195e-08 3.41482e-08 0)
(1.72364e-08 3.14609e-08 0)
(1.22245e-08 2.79771e-08 0)
(7.8285e-09 2.37147e-08 0)
(4.20893e-09 1.8641e-08 0)
(1.58913e-09 1.26501e-08 0)
(1.39223e-10 5.005e-09 0)
(-1.23847e-10 5.81066e-09 0)
(-1.56905e-09 1.47697e-08 0)
(-4.22575e-09 2.19658e-08 0)
(-7.90419e-09 2.80326e-08 0)
(-1.2392e-08 3.32343e-08 0)
(-1.7536e-08 3.75154e-08 0)
(-2.31939e-08 4.09938e-08 0)
(-2.92227e-08 4.36142e-08 0)
(-3.55443e-08 4.55229e-08 0)
(-4.20603e-08 4.66926e-08 0)
(-4.87194e-08 4.72954e-08 0)
(-5.54332e-08 4.73173e-08 0)
(-6.21739e-08 4.68768e-08 0)
(-6.88707e-08 4.59388e-08 0)
(-7.55045e-08 4.45688e-08 0)
(-8.20064e-08 4.27299e-08 0)
(-8.83491e-08 4.0456e-08 0)
(-9.44591e-08 3.77159e-08 0)
(-1.00297e-07 3.45238e-08 0)
(-1.05782e-07 3.08562e-08 0)
(-1.10858e-07 2.67185e-08 0)
(-1.15433e-07 2.20953e-08 0)
(-1.19431e-07 1.69896e-08 0)
(-1.22742e-07 1.1394e-08 0)
(-1.25267e-07 5.31553e-09 0)
(-1.26879e-07 -1.23954e-09 0)
(-1.27466e-07 -8.24786e-09 0)
(-1.26891e-07 -1.56769e-08 0)
(-1.25043e-07 -2.34704e-08 0)
(-1.21799e-07 -3.15539e-08 0)
(-1.17071e-07 -3.98234e-08 0)
(-1.10777e-07 -4.81508e-08 0)
(-1.02881e-07 -5.6377e-08 0)
(-9.33731e-08 -6.43192e-08 0)
(-8.23e-08 -7.17702e-08 0)
(-6.97468e-08 -7.85096e-08 0)
(-5.58679e-08 -8.43087e-08 0)
(-4.08612e-08 -8.8948e-08 0)
(-2.49947e-08 -9.22284e-08 0)
(-8.57287e-09 -9.39942e-08 0)
(8.051e-09 -9.41455e-08 0)
(2.45206e-08 -9.26557e-08 0)
(4.04737e-08 -8.95704e-08 0)
(5.55905e-08 -8.50092e-08 0)
(6.95853e-08 -7.91475e-08 0)
(8.22444e-08 -7.22066e-08 0)
(9.34036e-08 -6.4429e-08 0)
(1.02974e-07 -5.6068e-08 0)
(1.10908e-07 -4.73665e-08 0)
(1.17222e-07 -3.8553e-08 0)
(1.21955e-07 -2.98272e-08 0)
(1.25193e-07 -2.13626e-08 0)
(1.27029e-07 -1.3296e-08 0)
(1.27587e-07 -5.73398e-09 0)
(1.26983e-07 1.25435e-09 0)
(1.25354e-07 7.62825e-09 0)
(1.22817e-07 1.33772e-08 0)
(1.19501e-07 1.8512e-08 0)
(1.15509e-07 2.30618e-08 0)
(1.10953e-07 2.70689e-08 0)
(1.05914e-07 3.05788e-08 0)
(1.00487e-07 3.36446e-08 0)
(9.47279e-08 3.63038e-08 0)
(8.87156e-08 3.86027e-08 0)
(8.24864e-08 4.0551e-08 0)
(7.61049e-08 4.21798e-08 0)
(6.95917e-08 4.3461e-08 0)
(6.30053e-08 4.44142e-08 0)
(5.63603e-08 4.4968e-08 0)
(4.9718e-08 4.51318e-08 0)
(4.30997e-08 4.47821e-08 0)
(3.65784e-08 4.39097e-08 0)
(3.02001e-08 4.2342e-08 0)
(2.40658e-08 4.00714e-08 0)
(1.82713e-08 3.69322e-08 0)
(1.29623e-08 3.29342e-08 0)
(8.28771e-09 2.79261e-08 0)
(4.43839e-09 2.19857e-08 0)
(1.66231e-09 1.48717e-08 0)
(1.40595e-10 5.87367e-09 0)
(-1.25838e-10 6.67007e-09 0)
(-1.64072e-09 1.70427e-08 0)
(-4.45124e-09 2.5336e-08 0)
(-8.34543e-09 3.23394e-08 0)
(-1.30684e-08 3.82413e-08 0)
(-1.84606e-08 4.31638e-08 0)
(-2.43526e-08 4.70212e-08 0)
(-3.06129e-08 5.00115e-08 0)
(-3.71199e-08 5.20994e-08 0)
(-4.38257e-08 5.34785e-08 0)
(-5.06447e-08 5.41323e-08 0)
(-5.75518e-08 5.42336e-08 0)
(-6.44724e-08 5.37541e-08 0)
(-7.13967e-08 5.27968e-08 0)
(-7.82592e-08 5.13162e-08 0)
(-8.50485e-08 4.93633e-08 0)
(-9.16964e-08 4.68948e-08 0)
(-9.81773e-08 4.39314e-08 0)
(-1.04415e-07 4.04369e-08 0)
(-1.10366e-07 3.64141e-08 0)
(-1.1594e-07 3.18338e-08 0)
(-1.2107e-07 2.66897e-08 0)
(-1.25647e-07 2.09583e-08 0)
(-1.29573e-07 1.46319e-08 0)
(-1.32713e-07 7.69696e-09 0)
(-1.34943e-07 1.57917e-10 0)
(-1.36103e-07 -7.97392e-09 0)
(-1.36052e-07 -1.66618e-08 0)
(-1.34628e-07 -2.58489e-08 0)
(-1.31693e-07 -3.54443e-08 0)
(-1.27109e-07 -4.53276e-08 0)
(-1.20779e-07 -5.5339e-08 0)
(-1.12623e-07 -6.52853e-08 0)
(-1.02623e-07 -7.4936e-08 0)
(-9.07965e-08 -8.40335e-08 0)
(-7.72377e-08 -9.22968e-08 0)
(-6.20941e-08 -9.94366e-08 0)
(-4.5601e-08 -1.05167e-07 0)
(-2.8053e-08 -1.0923e-07 0)
(-9.82653e-09 -1.11418e-07 0)
(8.66564e-09 -1.11604e-07 0)
(2.69744e-08 -1.09752e-07 0)
(4.46739e-08 -1.05931e-07 0)
(6.13647e-08 -1.00304e-07 0)
(7.67251e-08 -9.31074e-08 0)
(9.04976e-08 -8.46296e-08 0)
(1.0252e-07 -7.51862e-08 0)
(1.12693e-07 -6.50918e-08 0)
(1.21e-07 -5.46502e-08 0)
(1.27464e-07 -4.41333e-08 0)
(1.3217e-07 -3.37817e-08 0)
(1.35217e-07 -2.37928e-08 0)
(1.36745e-07 -1.43265e-08 0)
(1.36888e-07 -5.49702e-09 0)
(1.35809e-07 2.61811e-09 0)
(1.3365e-07 9.98218e-09 0)
(1.30567e-07 1.6588e-08 0)
(1.26688e-07 2.24563e-08 0)
(1.2215e-07 2.76271e-08 0)
(1.17053e-07 3.21517e-08 0)
(1.11511e-07 3.60921e-08 0)
(1.05596e-07 3.95032e-08 0)
(9.94012e-08 4.24481e-08 0)
(9.29715e-08 4.49611e-08 0)
(8.63806e-08 4.70918e-08 0)
(7.96519e-08 4.88361e-08 0)
(7.28454e-08 5.02284e-08 0)
(6.59688e-08 5.12172e-08 0)
(5.90775e-08 5.18235e-08 0)
(5.21762e-08 5.19411e-08 0)
(4.53256e-08 5.15732e-08 0)
(3.85443e-08 5.05463e-08 0)
(3.19127e-08 4.88406e-08 0)
(2.54893e-08 4.62425e-08 0)
(1.94009e-08 4.27435e-08 0)
(1.37793e-08 3.81384e-08 0)
(8.80978e-09 3.24257e-08 0)
(4.7036e-09 2.54999e-08 0)
(1.74801e-09 1.72231e-08 0)
(1.43213e-10 6.76881e-09 0)
(-1.28824e-10 7.5683e-09 0)
(-1.73352e-09 1.94067e-08 0)
(-4.7318e-09 2.89308e-08 0)
(-8.88249e-09 3.68368e-08 0)
(-1.38835e-08 4.35381e-08 0)
(-1.95238e-08 4.89868e-08 0)
(-2.56526e-08 5.33262e-08 0)
(-3.21039e-08 5.65434e-08 0)
(-3.87926e-08 5.88961e-08 0)
(-4.56251e-08 6.03628e-08 0)
(-5.25864e-08 6.11617e-08 0)
(-5.96075e-08 6.12697e-08 0)
(-6.66895e-08 6.08424e-08 0)
(-7.377e-08 5.98342e-08 0)
(-8.08528e-08 5.83261e-08 0)
(-8.78765e-08 5.6263e-08 0)
(-9.48333e-08 5.36777e-08 0)
(-1.01654e-07 5.05203e-08 0)
(-1.08311e-07 4.67954e-08 0)
(-1.14723e-07 4.24591e-08 0)
(-1.20836e-07 3.74989e-08 0)
(-1.26547e-07 3.1874e-08 0)
(-1.31771e-07 2.55619e-08 0)
(-1.36375e-07 1.85262e-08 0)
(-1.40232e-07 1.07471e-08 0)
(-1.43173e-07 2.20694e-09 0)
(-1.45039e-07 -7.08724e-09 0)
(-1.45632e-07 -1.71092e-08 0)
(-1.44776e-07 -2.77952e-08 0)
(-1.42275e-07 -3.90477e-08 0)
(-1.3797e-07 -5.07227e-08 0)
(-1.31704e-07 -6.26335e-08 0)
(-1.23377e-07 -7.45425e-08 0)
(-1.12921e-07 -8.61695e-08 0)
(-1.00347e-07 -9.71924e-08 0)
(-8.57223e-08 -1.07262e-07 0)
(-6.92115e-08 -1.16008e-07 0)
(-5.10571e-08 -1.23064e-07 0)
(-3.16147e-08 -1.28089e-07 0)
(-1.13185e-08 -1.30807e-07 0)
(9.31131e-09 -1.31046e-07 0)
(2.97369e-08 -1.28766e-07 0)
(4.94189e-08 -1.24062e-07 0)
(6.78877e-08 -1.17157e-07 0)
(8.47477e-08 -1.08369e-07 0)
(9.97229e-08 -9.8079e-08 0)
(1.12628e-07 -8.66879e-08 0)
(1.23389e-07 -7.45951e-08 0)
(1.31999e-07 -6.21674e-08 0)
(1.38533e-07 -4.9735e-08 0)
(1.43095e-07 -3.75745e-08 0)
(1.4584e-07 -2.5916e-08 0)
(1.46926e-07 -1.49335e-08 0)
(1.46545e-07 -4.75546e-09 0)