/*--------------------------------*- C++ -*----------------------------------*\
| =========                 |                                                 |
| \\      /  F ield         | OpenFOAM: The Open Source CFD Toolbox           |
|  \\    /   O peration     | Version:  2412                                  |
|   \\  /    A nd           | Website:  www.openfoam.com                      |
|    \\/     M anipulation  |                                                 |
\*---------------------------------------------------------------------------*/
FoamFile
{
    version     2.0;
    format      ascii;
    arch        "LSB;label=32;scalar=64";
    class       volScalarField;
    location    "5.85";
    object      alpha.gasoline;
}
// * * * * * * * * * * * * * * * * * * * * * * * * * * * * * * * * * * * * * //

dimensions      [0 0 0 0 0 0 0];

internalField   nonuniform List<scalar> 
6400
(
1
1.00001
1
0.999998
0.999998
0.999998
0.999999
1
1
1
0.999999
0.999999
1
1
1
1
1
1
1
1
1
1
1
1
1
1
1
1
1
1
1
1
1
1
1
1
1
1
1
1
1
1
1
1
1
1
1
0.999999
1
1
1
1
1
1
1
1
1
1
1
0.999999
0.999999
0.999999
0.999998
0.999998
0.999999
1
1
1
0.999998
0.999998
1
1
1
1
0.999999
1
1
1
1
1
0.999989
0.999998
1
1
0.999999
0.999998
0.999998
0.999999
1
1
0.999999
0.999999
1
1
1
1
1
1
1
1
1
1
0.999999
0.999999
0.999999
0.999999
0.999999
1
1
1
1
1
1
1
1
1
1
1
1
1
0.999999
0.999999
0.999999
0.999999
0.999999
0.999999
1
1
1
1
1
1
1
1
1
1
1
1
1
0.999999
0.999998
0.999998
0.999999
1
1
1
0.999998
0.999998
0.999998
1
1
1
0.999999
0.999999
0.999999
0.999999
0.999999
1
0.999999
1
0.999998
0.999998
0.999999
0.999999
0.999999
0.999999
0.999999
1
0.999999
0.999999
1
1
1
1
1
0.999999
0.999999
1
1
0.999998
0.999998
0.999999
1
1
1
1
1
1
0.999999
1
1
1
1
1
1
1
0.999999
0.999999
1
1
0.999999
0.999999
0.999999
0.999999
0.999999
0.999999
0.999999
0.999999
1
1
1
1
1
1
1
1
1
1
1
1
1
1
1
1
0.999999
0.999998
0.999998
0.999999
1
1
1
0.999998
0.999998
0.999999
1
0.999999
1
1
0.999998
1
1
1
0.999999
0.999999
0.999999
1
1
1
1
0.999999
1
1
1
1
0.999999
0.999999
0.999999
1
1
1
1
1
1
1
1
1
1
1
1
1
0.999999
0.999999
0.999999
1
1
1
1
1
1
1
1
1
1
0.999999
0.999999
0.999999
1
1
1
1
1
1
1
1
1
1
1
1
1
1
0.999999
0.999998
0.999998
0.999998
0.999999
1
1
1
1
1
0.999999
1
1
1
1
1
1
1
1
1
1
1
1
0.999999
1
1
1
1
0.999999
0.999999
1
1
0.999999
0.999999
1
1
1
1
1
1
1
1
1
1
1
1
1
1
1
1
1
1
1
1
1
1
1
1
1
1
1
1
1
1
1
1
1
1
1
1
0.999999
0.999999
0.999999
0.999999
0.999999
0.999999
1
1
0.999999
1
1
1
0.999999
1
1
1
1
1
1
0.999999
1
1
1
1
1
1
1
1
1
1
1
1
1
1
1
1
1
1
0.999999
0.999999
0.999999
1
1
1
1
1
1
1
1
1
1
1
1
1
1
1
1
1
1
1
1
1
0.999999
0.999999
0.999999
1
1
1
1
1
0.999999
1
1
1
1
1
0.999999
0.999999
0.999999
0.999998
0.999998
0.999998
1
1
1
1
1
1
1
1
1
1
1
1
1
1
1
1
0.999998
0.999998
0.999999
1
1
1
1
1
1
1
1
1
1
1
1
1
1
1
1
0.999999
0.999999
1
1
1
0.999999
0.999998
0.999998
0.999998
1
1
1
1
1
1
1
1
1
1
1
1
1
1
1
1
1
1
1
1
1
0.999999
1
1
1
1
1
1
1
1
1
1
1
1
1
1
1
1
1
1
1
1
1
1
1
1
1
1
1
1
1
0.999999
0.999998
0.999999
1
1
1
1
1
1
1
1
1
1
1
1
1
1
1
1
0.999999
1
1
1
1
1
0.999998
0.999998
0.999999
1
1
1
1
1
1
1
1
1
1
1
1
1
1
1
1
1
1
1
1
0.999999
1
1
1
1
1
1
1
1
1
1
1
1
1
1
0.999999
1
1
1
1
1
1
1
1
1
1
1
1
1
1
1
1
1
0.999999
1
1
1
1
1
1
1
1
1
1
1
1
1
1
1
1
1
0.999999
1
1
1
1
1
0.999999
1
1
1
1
1
1
1
1
1
1
1
1
1
0.999999
0.999999
1
1
1
1
1
1
1
1
1
1
1
1
1
1
1
1
1
1
1
1
1
1
1
1
1
1
1
1
1
1
1
1
1
1
1
1
1
1
0.999999
0.999999
0.999999
1
0.999999
0.999999
1
1
0.999999
1
1
1
1
1
1
1
1
1
1
0.999999
0.999999
1
1
1
1
1
1
1
1
1
1
1
1
1
1
1
1
1
1
1
1
1
1
1
1
1
1
1
1
1
1
1
1
1
1
1
1
1
1
1
1
1
1
1
1
1
1
1
1
1
1
1
1
1
1
1
0.999999
1
1
1
1
1
1
1
1
1
1
1
1
1
1
1
1
1
1
1
1
1
1
1
0.999999
1
1
1
1
1
1
1
1
1
1
1
1
1
1
1
1
1
1
1
1
1
1
1
1
1
1
1
1
1
1
1
1
1
1
1
1
1
1
1
1
1
1
1
1
1
1
1
1
1
1
1
1
1
1
1
1
0.999999
0.999999
0.999999
0.999999
1
1
1
1
1
1
1
1
1
1
1
1
1
1
1
1
0.999984
1
1
1
1
1
0.999999
0.999999
0.999999
1
1
1
1
1
1
1
1
1
1
1
1
1
1
1
1
1
1
1
1
1
1
1
1
1
1
1
1
1
1
1
1
1
1
1
1
1
1
1
1
1
1
1
1
1
1
1
1
1
1
1
1
0.999999
0.999999
1
1
1
0.999999
0.999999
1
1
1
1
1
1
1
1
1
1
1
0.99992
0.999738
0.999864
0.999992
1
1
0.999999
1
1
1
1
1
1
1
1
1
1
1
1
1
1
1
1
1
1
1
1
1
1
1
1
1
1
1
1
1
1
1
1
1
1
1
1
1
1
1
1
1
1
1
1
1
1
1
1
1
1
1
1
1
1
1
1
1
1
1
0.999999
0.999999
0.999999
1
0.999999
0.999999
1
0.999884
0.999597
0.999938
1
1
1
0.999988
0.999715
0.999715
0.999715
0.999983
1
1
1
1
1
1
1
1
1
1
1
1
1
1
1
1
1
1
1
1
1
1
1
1
1
1
1
1
1
1
1
1
1
1
0.999999
0.999999
1
1
1
1
1
1
1
1
1
1
1
1
1
1
1
1
1
1
1
1
1
1
1
1
1
0.999999
0.999999
0.999999
1
1
0.999999
1
0.999949
0.999294
0.999218
0.999405
1
1
1
0.999956
0.999716
0.999715
0.999797
1
1
1
1
1
1
1
1
1
1
1
1
1
1
1
1
1
1
1
1
1
1
1
1
1
1
1
1
1
1
1
1
1
1
1
1
1
1
1
1
1
1
1
1
1
1
1
1
1
1
1
1
1
1
1
1
1
1
1
1
1
1
1
1
1
1
1
1
1
0.999786
0.999218
0.999218
0.999218
0.999964
1
1
0.999989
0.999887
0.999824
0.99999
1
1
1
1
1
1
1
1
1
1
1
1
1
1
1
1
1
1
1
1
1
1
1
1
1
1
0.999999
0.999999
0.999999
0.999999
1
1
1
1
1
1
1
1
1
1
1
1
1
1
1
1
1
1
1
1
1
1
1
1
1
1
1
1
1
1
1
1
1
1
1
1
1
1
1
0.999938
0.999665
0.999218
0.999759
1
1
0.999999
0.999994
1
0.999995
1
1
1
1
1
1
1
1
1
1
1
1
1
1
1
1
1
1
1
0.999999
0.999999
0.999999
0.999998
0.999998
0.999999
0.999999
1
0.999999
1
1
1
1
1
1
1
1
1
1
1
1
1
1
1
1
1
1
1
0.999999
0.999999
0.999998
0.999998
0.999999
0.999999
1
1
1
1
1
1
1
1
1
1
1
1
1
1
1
1
1
1
1
0.999975
1
1
1
1
1
1
1
1
1
1
1
1
1
1
1
1
1
1
1
1
1
1
0.999999
0.999997
0.999994
0.999987
0.99998
0.99997
0.999963
0.999961
0.999963
0.999971
0.999981
0.99999
0.999996
0.999999
1
1
1
1
1
1
1
1
1
1
1
1
1
1
1
0.999998
0.999992
0.999983
0.999971
0.999961
0.999957
0.999959
0.999966
0.999977
0.999987
0.999993
0.999997
0.999999
1
1
1
1
1
1
1
1
1
1
1
1
1
1
1
1
1
1
0.999999
1
1
1
1
1
1
1
1
1
1
1
1
1
1
1
1
1
0.999999
0.999975
0.999948
0.999852
0.999722
0.999607
0.999446
0.999324
0.999229
0.999194
0.999233
0.999355
0.999535
0.999721
0.999868
0.999954
0.999992
1
1
1
1
1
1
1
1
1
1
1
1
0.999997
0.999969
0.999896
0.99975
0.999544
0.999326
0.998936
0.998358
0.9982
0.99842
0.99897
0.999578
0.999708
0.999842
0.99994
0.999989
0.999999
1
1
1
1
1
1
1
1
1
1
1
1
1
1
1
1
1
1
1
0.992291
0.988622
0.99007
0.991599
0.990433
0.986379
0.978288
0.965042
0.947586
0.927655
0.905978
0.882281
0.855662
0.824324
0.785276
0.740808
0.702701
0.672041
0.6522
0.642282
0.638772
0.638468
0.640248
0.644061
0.651359
0.66578
0.693018
0.733027
0.782154
0.836257
0.891451
0.937884
0.970516
0.996781
1
1
1
1
1
1
1
1
0.999466
0.978736
0.94529
0.896668
0.831095
0.763943
0.699838
0.64598
0.606429
0.581673
0.572031
0.574392
0.585554
0.602483
0.622835
0.646384
0.676784
0.715538
0.758698
0.808807
0.851728
0.883816
0.9057
0.924527
0.943393
0.960973
0.975252
0.985177
0.991268
0.994128
0.994021
0.991481
0.988257
0.988052
0.99106
0.988273
0.417335
0.418774
0.422874
0.436227
0.451601
0.455512
0.446279
0.423817
0.382746
0.327319
0.272885
0.225134
0.183094
0.145456
0.110798
0.076768
0.0450657
0.022232
0.011374
0.00519274
0.00221331
0.00131989
0.00206026
0.00389058
0.00628096
0.00901012
0.0124718
0.0178456
0.0277979
0.0444364
0.068653
0.102981
0.149349
0.211917
0.301572
0.421454
0.55513
0.669146
0.75421
0.809961
0.818937
0.773182
0.687191
0.577335
0.444324
0.315452
0.211363
0.140917
0.0910853
0.0539414
0.0277702
0.00974776
7.49104e-05
5.46351e-06
5.03909e-06
5.03909e-06
5.05165e-06
5.11191e-06
5.32439e-06
0.0039194
0.0132074
0.0262329
0.0433501
0.0724919
0.111867
0.152588
0.191002
0.23054
0.273273
0.318434
0.362814
0.401746
0.429186
0.442919
0.443293
0.430387
0.409398
0.3908
0.379394
0.372461
0.000551236
0.000656146
0.00141805
0.00324599
0.00481096
0.00496233
0.00389279
0.00233259
0.000977911
0.000621931
0.000417832
0.000251296
0.000138627
3.60823e-05
8.67086e-06
6.04124e-06
3.45238e-05
4.66572e-05
2.93973e-05
4.07369e-05
4.43529e-05
4.29159e-05
3.23617e-05
2.47312e-05
1.60796e-05
8.50953e-06
2.70501e-06
0
-1.45848e-06
-1.25625e-06
-1.8526e-08
6.52058e-31
2.86862e-08
6.65349e-08
3.11505e-06
0.00111064
0.0137016
0.0465075
0.0979379
0.150282
0.162964
0.119959
0.0597826
0.0186292
0.00196977
3.28189e-05
5.49948e-05
4.27999e-05
2.4107e-05
1.12628e-05
7.27734e-06
6.26482e-06
5.46351e-06
5.03909e-06
5.03909e-06
5.03718e-06
5.03909e-06
5.05165e-06
5.11191e-06
5.34339e-06
6.45456e-06
1.21824e-05
4.28922e-05
0.000143861
0.000192598
0.000331478
0.000497833
0.000482789
0.000625936
0.00078899
0.00096024
0.00131086
0.00187454
0.00237213
0.00220582
0.00123758
0.000478477
0.000203402
0.000101312
8.68974e-05
0.000278184
0.000217088
0.000149462
0.0002249
0.000372495
0.000537102
0.000601155
0.000348484
0.000160476
0.000120569
7.68641e-05
5.07279e-05
4.26858e-05
2.37218e-05
6.03875e-06
5.43838e-06
3.66584e-05
4.52147e-05
2.35851e-05
4.1429e-05
0.000195751
0.000264418
0.000271766
0.000274695
0.000275449
0.00027505
0.000248214
0.000109175
1.07263e-05
1.76664e-21
-1.10291e-22
1.10525e-07
4.14478e-07
1.36814e-05
0.000177387
1.32823e-05
0.000161631
0.000395782
0.00123014
0.0020006
0.00218722
0.00168568
0.0010059
0.000417418
6.38828e-05
6.24155e-06
6.01528e-05
0.000207306
0.000244384
0.000239045
0.000106808
2.20895e-05
1.79687e-05
1.92186e-05
5.0388e-06
5.03909e-06
5.05165e-06
5.11191e-06
5.36287e-06
6.35019e-06
7.69489e-06
0.000124197
0.000277751
0.000168456
0.0001414
0.000422916
0.000473895
0.000224182
0.000190089
0.000224024
0.000355941
0.000418958
0.000288403
9.92517e-05
6.89874e-05
0.000139468
0.000184148
9.37597e-05
1.52164e-05
1.26676e-05
0.00027684
0.000213429
0.000104913
0.000127818
0.000175835
0.000412834
0.000551359
0.000182379
0.000134369
0.000114637
6.67523e-05
2.55143e-05
1.47057e-05
8.45363e-06
5.84184e-06
5.02571e-06
5.02592e-06
5.01298e-06
1.75011e-05
2.30243e-05
1.72499e-05
3.52275e-05
0.000119329
0.000261033
0.000274667
0.000275741
0.000273734
0.000271054
0.000271054
0.000216798
2.90167e-05
6.24218e-07
6.90387e-07
1.42117e-06
6.29853e-07
8.14778e-07
8.34907e-05
7.68428e-05
0.000250563
0.000370696
0.000351061
0.000281219
0.000214393
9.74659e-05
7.5539e-06
2.34128e-06
9.03281e-05
0.000335518
0.000356486
0.000356384
0.000316682
2.29389e-05
5.28715e-05
9.97478e-05
2.37968e-05
5.08535e-06
5.09451e-06
5.18272e-06
5.38314e-06
8.11511e-06
1.26102e-05
1.14844e-05
9.14232e-06
9.14987e-06
3.92672e-05
0.000140118
0.000218698
0.000240402
0.000175629
0.000207107
0.000428623
0.00045009
0.000265627
5.90986e-05
4.87005e-05
0.000167192
0.000200475
8.99581e-05
5.03751e-06
4.95493e-06
0.000203834
0.000210087
9.74218e-05
0.000104901
0.000127964
0.000176637
0.000458466
0.000595089
0.000592194
0.00057999
0.000480674
0.000109791
7.00428e-05
1.28232e-05
6.22084e-06
5.08628e-06
4.97183e-06
5.04955e-06
5.12727e-06
5.63021e-06
6.83921e-06
7.5854e-06
6.65307e-06
4.24003e-06
4.17325e-05
0.000221228
0.000180039
3.7935e-05
2.57601e-05
3.07087e-05
2.26223e-05
6.32491e-06
6.89492e-07
3.25956e-07
2.15856e-07
3.61249e-07
1.50314e-06
1.10051e-05
8.05007e-05
0.000128722
9.43238e-05
6.96432e-05
5.90186e-05
1.67908e-05
2.47124e-06
2.08241e-06
2.23159e-05
2.45762e-06
0.000241635
0.000348784
5.58362e-05
2.67735e-05
9.97478e-05
9.97478e-05
8.48894e-05
5.12807e-06
5.18272e-06
6.80655e-06
1.8119e-05
2.31143e-05
2.27308e-05
1.85544e-05
7.81893e-06
8.80964e-06
8.32221e-06
3.05388e-06
3.03306e-06
3.05388e-06
3.31257e-06
4.62677e-06
6.46431e-06
0.000121291
0.000280324
2.6086e-05
2.48685e-05
0.000143265
0.000190966
0.000135296
4.46092e-06
4.40695e-06
0.000193174
0.000131024
9.07993e-05
9.57758e-05
0.000108797
0.000396521
0.000595089
0.000595089
0.000595089
0.000592194
0.000578442
0.000560338
0.000522529
0.000189063
1.06294e-05
5.8695e-06
5.08784e-06
5.12727e-06
9.20747e-06
1.92257e-05
3.07969e-05
2.57943e-05
1.47929e-05
2.5769e-06
5.13151e-07
2.65932e-07
2.09486e-07
1.83246e-07
1.55476e-07
1.57921e-07
1.01011e-06
8.72752e-07
4.67114e-07
1.57058e-07
1.42821e-07
1.68694e-07
3.64665e-07
1.36765e-06
6.57519e-05
8.13295e-05
5.75559e-05
2.43702e-05
1.79872e-05
2.84546e-06
1.6328e-06
1.60631e-06
1.61769e-06
1.58988e-06
1.7413e-06
1.77715e-05
1.91368e-05
1.90108e-05
1.87328e-05
1.31533e-05
1.24467e-05
1.18574e-05
2.0964e-05
2.40204e-05
2.40451e-05
2.37755e-05
1.50715e-05
7.39386e-06
5.95219e-06
4.25429e-06
6.18654e-06
3.12067e-06
3.05388e-06
3.03148e-06
3.16071e-06
3.29373e-06
3.29373e-06
1.82139e-05
6.07027e-05
2.59262e-05
1.0887e-05
1.06224e-05
6.01199e-05
0.000111268
4.40732e-06
4.35149e-06
0.000194128
8.88227e-05
9.10689e-05
8.97125e-05
0.000176931
0.000579497
0.000588156
0.000595089
0.000328791
0.000405479
0.000560338
0.000538065
0.000524018
0.000519732
0.000225067
3.43472e-05
5.63322e-06
6.50741e-06
3.47046e-05
3.47046e-05
3.47267e-05
3.47046e-05
3.4406e-05
2.36685e-05
1.11747e-06
3.12466e-07
1.84141e-07
1.55174e-07
1.46007e-07
1.35794e-07
1.33919e-07
1.35054e-07
1.33038e-07
1.28809e-07
1.24381e-07
1.29302e-07
1.68164e-07
4.20596e-07
3.33891e-05
7.03846e-05
5.51108e-05
1.11871e-05
4.46481e-06
1.76102e-06
1.60651e-06
1.6069e-06
1.58567e-06
9.75163e-07
2.7022e-05
4.61256e-05
4.70044e-05
3.61859e-05
1.31295e-05
1.31295e-05
1.31304e-05
2.11646e-05
2.3948e-05
2.40204e-05
1.74706e-05
1.30697e-06
8.31895e-07
8.31887e-07
8.37797e-07
8.89203e-07
1.11639e-06
2.68437e-06
3.56285e-06
3.36609e-06
3.30914e-06
3.29001e-06
6.07199e-06
3.14178e-05
5.94099e-05
4.89263e-05
1.20719e-05
1.00103e-05
1.01697e-05
1.79922e-05
9.79254e-05
4.35149e-06
0.000193746
8.9241e-05
8.95019e-05
9.11958e-05
0.000209838
0.000566669
0.000579456
0.000441287
0.000181455
0.000181434
0.000335179
0.000522736
0.000519732
0.000513966
0.000506522
9.44092e-05
7.18122e-06
2.23181e-05
3.46517e-05
3.47268e-05
3.47046e-05
3.17785e-05
2.07579e-05
5.7909e-06
9.77318e-07
4.91202e-07
2.45186e-07
1.55772e-07
1.36237e-07
1.35566e-07
1.35635e-07
1.33065e-07
1.28815e-07
1.23976e-07
1.21577e-07
1.21937e-07
1.28881e-07
1.97744e-07
8.74164e-07
2.34533e-05
3.29498e-05
2.87892e-05
3.11057e-06
2.00267e-06
1.82079e-06
2.74308e-06
3.54726e-06
1.09321e-07
5.7317e-06
3.85101e-05
4.61256e-05
2.74489e-05
1.32383e-05
1.39034e-05
2.33841e-05
2.3412e-05
2.24378e-05
2.72635e-06
8.65434e-07
8.33681e-07
8.29983e-07
8.33681e-07
8.65982e-07
1.08718e-06
2.16555e-06
5.97485e-06
1.09723e-05
1.79125e-05
1.42342e-05
7.9858e-06
8.31163e-06
1.19062e-05
1.32011e-05
3.1124e-05
3.22232e-05
2.80908e-05
1.00103e-05
1.22793e-05
9.80654e-05
4.35149e-06
0.000192491
8.85657e-05
8.83796e-05
8.9645e-05
0.00017226
0.000553656
0.000565178
0.000186565
0.000181429
0.000181452
0.000181452
0.000352949
0.000514064
0.000506471
0.000499503
0.000128652
1.16844e-05
2.55197e-05
3.41483e-05
3.46517e-05
2.20871e-05
1.90413e-07
5.23697e-07
7.55053e-07
1.33205e-06
9.76366e-07
1.2809e-06
8.77549e-07
1.55884e-07
1.84064e-07
1.03687e-06
1.315e-07
1.23964e-07
1.21554e-07
1.21937e-07
1.21499e-07
1.21937e-07
1.37092e-07
2.0672e-07
2.59627e-06
2.24044e-05
8.39258e-05
4.56675e-06
2.34948e-06
4.62111e-06
2.60617e-05
1.43283e-05
6.82508e-08
8.63339e-08
1.33286e-06
6.38162e-06
1.0724e-05
1.3622e-05
1.37305e-05
5.51227e-06
2.05319e-06
1.66541e-06
1.8378e-06
2.61125e-06
1.26608e-06
8.33681e-07
8.50521e-07
1.4571e-06
1.94505e-06
1.2935e-05
0.000139572
0.000250412
0.000340259
0.000341052
0.000236695
4.06465e-05
1.27012e-05
1.47743e-05
1.68947e-05
3.15529e-05
3.13602e-05
1.90056e-05
1.45937e-05
9.73917e-05
1.13109e-05
0.000129602
8.77855e-05
8.80476e-05
8.86282e-05
0.000306216
0.000549819
0.000464357
0.000181918
0.000181455
0.000181432
0.000181519
0.000182933
0.000489029
0.000502235
0.000495225
0.00012097
1.5613e-05
1.86775e-05
3.32474e-05
2.65567e-05
1.90267e-07
8.52907e-08
1.90278e-07
5.23038e-07
2.84574e-05
2.37022e-05
1.2561e-05
1.99972e-06
2.55954e-07
1.99848e-07
2.38968e-07
3.39323e-05
1.39632e-07
1.21586e-07
1.21626e-07
1.21937e-07
1.32165e-07
1.41953e-07
1.6049e-07
6.48943e-06
2.00493e-05
8.98415e-05
2.25577e-05
2.57278e-06
1.18152e-05
3.81383e-05
2.83699e-05
6.93877e-08
6.82493e-08
7.23369e-08
9.79076e-08
2.28087e-07
8.48621e-07
6.42888e-07
3.32609e-07
4.74485e-07
1.10811e-06
5.64621e-06
5.48601e-06
2.96231e-06
8.50521e-07
9.49825e-07
8.92767e-06
1.25199e-05
0.00025175
0.000433589
0.000435643
0.000436365
0.000436503
0.000436365
0.000436365
0.000125639
1.69034e-05
1.71573e-05
2.45234e-05
3.12909e-05
1.82882e-05
1.2535e-05
9.44677e-05
1.21859e-05
8.78103e-05
8.77454e-05
8.78102e-05
8.80466e-05
0.000531281
0.000544969
0.000510905
0.000186289
0.000181918
0.000181519
0.000182933
0.000339659
0.000489907
0.000501292
0.000490062
5.56714e-05
1.93753e-05
1.86184e-05
3.17136e-05
2.83309e-06
8.50278e-08
5.58389e-08
8.42823e-08
3.82353e-05
8.88229e-05
8.90912e-05
2.59869e-05
7.61113e-07
3.19652e-07
2.38934e-07
2.38118e-07
4.45539e-05
0.000175375
3.95989e-05
2.34845e-07
1.27201e-07
1.40706e-07
1.60567e-07
1.83081e-07
1.21703e-05
6.45105e-05
9.10087e-05
7.68693e-05
2.40805e-06
1.13735e-05
3.81383e-05
3.04912e-05
6.83251e-08
1.30003e-07
9.79076e-08
5.71542e-08
2.40883e-08
8.50869e-09
2.4082e-08
9.99199e-08
3.3451e-06
6.06519e-06
6.02207e-06
4.74801e-06
1.00848e-06
9.01118e-07
1.05143e-06
1.12309e-05
0.000111611
0.000433434
0.000434894
0.000434981
0.000435643
0.000436365
0.000436574
0.000435736
0.000435171
0.000251345
2.05396e-05
1.864e-05
1.68787e-05
1.12437e-05
1.10688e-05
6.61786e-05
4.3151e-05
8.77454e-05
8.7735e-05
8.77454e-05
0.000111168
0.000526207
0.000536966
0.000526194
0.0005148
0.000257179
0.000183356
0.000206105
0.000479717
0.000492293
0.000490568
0.000352345
3.13675e-05
2.16714e-05
2.12423e-05
1.97677e-05
3.00127e-06
5.54617e-08
3.7507e-08
9.24722e-06
8.88276e-05
8.90912e-05
8.91116e-05
3.42203e-05
5.94619e-07
2.86143e-07
2.38118e-07
2.32749e-07
9.38939e-06
0.000360001
0.000258203
1.29679e-05
4.05844e-07
1.72895e-07
1.83051e-07
2.11871e-07
1.69437e-05
9.10087e-05
9.12925e-05
9.00806e-05
2.30454e-06
4.79421e-06
3.81383e-05
2.77115e-05
9.3373e-08
2.65663e-06
4.09676e-05
7.12755e-05
4.70513e-07
2.92552e-09
8.52433e-09
6.63294e-07
6.06519e-06
6.06519e-06
6.05834e-06
1.33687e-06
1.04745e-06
1.15903e-06
1.93366e-06
7.13993e-06
0.000177081
0.000431391
0.000434415
0.000434887
0.000434686
0.000434727
0.000435736
0.000435392
0.000433458
0.000431598
0.000243553
1.73945e-05
1.19741e-05
1.10689e-05
1.10696e-05
1.17174e-05
4.28777e-05
8.77394e-05
8.77433e-05
8.77359e-05
0.000208134
0.000515252
0.000526269
0.000515468
0.000508697
0.000476038
0.000197709
0.000416876
0.000472591
0.000479896
0.000490162
0.00018903
2.09581e-05
2.62601e-05
2.77763e-05
1.49386e-05
3.68163e-07
2.94126e-08
2.94697e-08
6.54597e-05
8.90884e-05
8.91192e-05
8.91116e-05
2.7424e-05
3.79166e-07
2.446e-07
2.32768e-07
2.3523e-07
1.54273e-06
0.000379206
0.000428607
4.92569e-05
7.16096e-07
2.45404e-07
2.11796e-07
2.65657e-07
6.37482e-05
9.12925e-05
9.12925e-05
9.03234e-05
2.28662e-06
2.30114e-06
3.58164e-05
4.45214e-05
6.54619e-07
1.23971e-05
0.000195377
0.000240713
0.000120725
1.59442e-09
2.81987e-09
4.75042e-08
2.61751e-06
6.06519e-06
4.39514e-06
9.73826e-07
2.08602e-06
5.48438e-06
5.55038e-06
3.52612e-06
7.05937e-05
0.000426665
0.000433072
0.000434455
0.000433141
0.000357362
0.000251674
0.000415134
0.000431598
0.00042932
0.000427138
0.000162267
1.3495e-05
1.11759e-05
1.10696e-05
1.14228e-05
4.27832e-05
0.000247044
8.7743e-05
8.77525e-05
8.81119e-05
0.00026175
0.000517135
0.000508169
0.00050556
0.000341523
0.000235958
0.000429627
0.00045753
0.000472591
0.000473058
8.39386e-05
1.01167e-05
2.20508e-05
2.73823e-05
1.3154e-05
5.21033e-08
1.00956e-08
2.16801e-08
6.61383e-05
8.91164e-05
8.91174e-05
8.91196e-05
1.70945e-05
1.95981e-06
3.34173e-07
2.37326e-07
2.33199e-07
9.10873e-05
0.000429912
0.000434361
0.000278691
6.2741e-06
3.58297e-07
2.66342e-07
2.94096e-07
8.98921e-05
9.10476e-05
9.12925e-05
6.10178e-05
2.29639e-06
2.29639e-06
3.71899e-05
8.69109e-05
7.45613e-06
4.87839e-05
0.000240713
0.000240713
0.000201979
1.40099e-09
1.48877e-09
7.61959e-09
2.29936e-07
8.13179e-07
3.22397e-07
1.37334e-06
6.03732e-06
5.93974e-06
3.07273e-06
2.04758e-06
7.90835e-06
0.000175137
0.000432884
0.000433261
0.000330921
7.28356e-05
7.17459e-05
6.84852e-05
0.000407177
0.000426634
0.000425874
0.000422835
5.05748e-05
1.18164e-05
1.11759e-05
1.2289e-05
4.27015e-05
0.000387698
0.000322983
9.29678e-05
0.000101653
0.000113984
0.000147879
0.000457093
0.000382869
0.000233655
0.000252148
0.000323376
0.000442914
0.000459581
0.00019424
1.01165e-05
5.10744e-06
1.42974e-05
2.66376e-05
5.50961e-06
7.65546e-09
4.70577e-09
1.01403e-08
1.22189e-05
8.90711e-05
8.91147e-05
8.90721e-05
6.96172e-06
1.8127e-05
9.89184e-05
0.000218293
0.000326251
0.000435458
0.000435791
0.000436027
0.000434471
6.26979e-05
5.05459e-07
3.49764e-07
3.34617e-07
9.07534e-05
9.08027e-05
8.31921e-05
5.10627e-06
2.2866e-06
2.29639e-06
4.3934e-05
0.000141774
1.60351e-05
5.66212e-05
0.000234585
0.000235611
3.00417e-05
1.39651e-09
1.40099e-09
1.49037e-09
2.1211e-09
5.26065e-09
2.32273e-08
2.54681e-06
6.03732e-06
4.72552e-06
3.23325e-07
5.13348e-07
1.4737e-06
1.8937e-05
0.000438535
0.000430095
0.000181587
7.20217e-05
6.84852e-05
6.84852e-05
6.84852e-05
0.00041476
0.000423058
0.000427812
0.000348132
2.45937e-05
1.18162e-05
1.24786e-05
4.21991e-05
0.000294823
0.000374716
0.000374716
0.000320587
0.000136122
0.000168689
0.000181636
0.000200231
0.000228143
0.00035458
0.000406345
0.000426186
0.000343593
4.16946e-05
5.10732e-06
2.86824e-06
7.81781e-06
1.29477e-05
6.81963e-07
1.94021e-10
4.01262e-09
4.73884e-09
1.56502e-05
8.8642e-05
8.90695e-05
8.86596e-05
4.66382e-06
3.60953e-05
0.000435671
0.000436116
0.000436391
0.000436218
0.000436109
0.000436191
0.000435946
0.00015319
6.34712e-07
5.38082e-07
1.49317e-06
9.04347e-05
9.08027e-05
3.58952e-05
2.35262e-06
2.29639e-06
2.35934e-06
6.44988e-05
0.000143144
2.70973e-05
7.08219e-05
0.00022293
2.35662e-05
1.38144e-09
1.36898e-09
1.95638e-09
2.5869e-09
1.97765e-09
2.27991e-09
5.26065e-09
2.09181e-06
5.89885e-06
1.95819e-07
1.59739e-07
3.23323e-07
1.06516e-06
1.9304e-05
0.000183262
0.000427285
0.000409447
0.000178012
7.0202e-05
6.84852e-05
6.93396e-05
0.000126577
0.000427246
0.000430709
0.000427977
0.000127427
1.27946e-05
1.24942e-05
1.57181e-05
2.79444e-05
0.000148939
0.000344958
0.00033743
0.000315915
0.000378268
0.000404608
0.000407282
0.000407282
0.000407282
0.000407033
0.000309942
9.38154e-06
5.10732e-06
3.61864e-06
2.0336e-06
5.58337e-07
6.37033e-10
2.18628e-11
1.66718e-10
2.04267e-09
4.77178e-09
2.54443e-05
8.88674e-05
8.87751e-05
5.27526e-05
3.22142e-06
1.79087e-05
0.000319209
0.000436391
0.000436448
0.000436407
0.000436249
0.000436118
0.000436146
0.0001017
8.29993e-07
6.35071e-07
1.43526e-06
8.22113e-05
9.04347e-05
1.53309e-05
2.52987e-06
2.35934e-06
2.64688e-06
9.95964e-05
0.000141774
3.94926e-05
0.000148094
0.000152753
1.38144e-09
1.36898e-09
1.41327e-09
2.32832e-09
2.58173e-09
1.74735e-09
4.73361e-10
4.39359e-08
7.05551e-07
2.20411e-07
5.924e-08
7.87484e-08
1.59739e-07
5.76669e-07
2.43721e-06
3.3609e-05
0.000419101
0.0004036
0.000400081
0.00024174
7.0202e-05
6.96836e-05
7.12102e-05
0.000403447
0.000431758
0.000430676
0.000422145
2.75799e-05
1.30257e-05
1.5662e-05
2.5392e-05
5.05509e-06
2.83494e-05
0.000141296
0.000136364
0.000148522
0.000144757
0.00018205
0.00039162
0.000374657
8.25646e-05
6.15973e-06
5.9599e-06
4.98745e-06
3.87026e-06
4.4112e-06
5.77537e-08
6.98967e-12
1.24157e-11
2.96576e-11
1.30509e-10
6.15267e-09
1.24825e-05
8.92592e-05
8.80877e-05
3.20813e-05
2.07829e-06
2.39565e-06
0.000178335
0.000436437
0.000436437
0.000436445
0.000436407
0.000436353
0.000182288
6.92046e-06
8.20178e-07
7.05666e-07
8.20164e-07
3.16605e-05
8.93226e-05
2.04366e-05
2.63351e-06
2.53261e-06
2.72689e-06
7.231e-05
0.000121874
7.47423e-05
0.000244877
0.000119286
1.46328e-09
1.16507e-09
9.38863e-10
8.65495e-10
1.12296e-09
4.02784e-10
3.02566e-11
2.5537e-08
9.49221e-08
2.69766e-09
4.75281e-08
8.94082e-08
2.56544e-07
5.76097e-07
1.57689e-06
6.13477e-06
0.000148582
0.00040007
0.000409547
0.000419112
0.000243042
7.12102e-05
8.43082e-05
0.000223409
0.000432054
0.000431721
0.000429113
0.00021946
1.4784e-05
2.27258e-05
1.63238e-10
9.72956e-11
6.76475e-06
4.37449e-08
5.58723e-07
5.37975e-06
2.44971e-05
6.1995e-06
4.73214e-06
5.15236e-06
5.27714e-06
5.42427e-06
1.2176e-05
9.87844e-06
3.05726e-06
5.93208e-06
1.41523e-07
6.81225e-12
7.12654e-12
1.61662e-11
2.36642e-10
7.02743e-09
1.82834e-06
5.89931e-05
8.55305e-05
3.28062e-05
1.25252e-06
4.77138e-07
2.31932e-05
0.000368273
0.000436444
0.000436407
0.000436037
0.0002808
2.26293e-05
1.2327e-05
2.05976e-05
1.41608e-05
2.23326e-06
8.88411e-06
8.76887e-05
2.6825e-05
2.64197e-06
2.63419e-06
2.8466e-06
6.7162e-05
0.000132835
7.46847e-05
0.000277812
0.000221407
1.0988e-08
3.00829e-09
7.71102e-10
1.36705e-10
9.19315e-11
9.75772e-11
2.74479e-11
1.25386e-12
1.23915e-12
1.28505e-09
3.50982e-07
1.44875e-06
1.8482e-06
1.2017e-06
1.63446e-06
3.1297e-06
2.70857e-05
0.000344499
0.000419079
0.000426329
0.0004313
0.00034222
0.000118872
0.000417861
0.000432123
0.000432054
0.000430826
0.000423731
4.08132e-05
1.94751e-05
2.15608e-10
8.93357e-11
8.97724e-11
8.97724e-11
3.25457e-07
1.46169e-05
1.94881e-05
4.43653e-06
4.50364e-06
4.8285e-06
7.31043e-06
1.73729e-05
1.69462e-05
6.24038e-06
1.84669e-07
5.84761e-06
6.81225e-12
6.3419e-12
6.81225e-12
2.92889e-11
3.24833e-10
6.4335e-09
1.18362e-07
2.98521e-05
8.23027e-05
5.17354e-05
4.77138e-07
1.12917e-07
2.67268e-07
2.41725e-06
9.94058e-05
0.000160271
0.000118146
6.00654e-05
5.53592e-05
6.93721e-05
8.72707e-05
8.3326e-05
5.19885e-05
4.20729e-05
5.34922e-05
3.1307e-05
2.64306e-06
2.71262e-06
1.34611e-05
0.000138118
0.000213238
8.16586e-05
0.00028628
0.000415012
7.56357e-06
8.36665e-08
7.30617e-09
4.14254e-10
2.71476e-11
2.03667e-11
1.81742e-11
1.26847e-12
1.20909e-12
1.21987e-12
3.33795e-07
2.16098e-06
2.16098e-06
1.61739e-06
1.58952e-06
1.85592e-06
3.92945e-06
2.29746e-05
0.000393531
0.000432898
0.000432048
0.000431965
0.000430105
0.000432128
0.000432123
0.000432123
0.000431287
0.000426058
7.32893e-05
1.76823e-06
1.64352e-08
4.67597e-10
8.92639e-11
3.16675e-08
2.21034e-08
1.56419e-08
1.56546e-08
2.26765e-07
6.37705e-06
2.1668e-05
2.1668e-05
2.1668e-05
7.18807e-06
2.36962e-10
9.67602e-08
8.46936e-09
1.72951e-09
5.65098e-12
6.16597e-12
3.0439e-11
3.43396e-10
4.70403e-09
9.39701e-08
1.87191e-05
7.92702e-05
7.23606e-05
3.38207e-06
7.57533e-08
7.97575e-08
8.69213e-07
3.30562e-06
3.14238e-06
1.01518e-05
4.77427e-05
9.02972e-05
9.00773e-05
8.95297e-05
8.72707e-05
8.3326e-05
4.71584e-05
7.0108e-06
2.2228e-05
2.71262e-06
2.96934e-06
2.90684e-05
0.000343136
0.000404211
0.000432725
0.000441489
0.000445771
0.000398397
2.07961e-05
6.55662e-08
2.79256e-09
3.06627e-10
4.13241e-11
4.04668e-11
1.69176e-11
2.7305e-12
1.1489e-12
7.86862e-13
9.20548e-07
2.16098e-06
1.97557e-06
1.64231e-06
1.68967e-06
1.77052e-06
3.98627e-06
3.61948e-05
0.000420772
0.000434151
0.000431363
0.000431517
0.00043182
0.000432123
0.00043178
0.000429461
0.000358181
5.0053e-06
1.13567e-06
1.63973e-08
1.18144e-09
3.55481e-10
1.50072e-07
1.3177e-07
3.55596e-08
1.56419e-08
1.13989e-05
2.16482e-05
2.16594e-05
2.07742e-05
5.20561e-06
2.27899e-10
2.23352e-10
2.36962e-10
6.1457e-10
1.24423e-08
5.61706e-12
4.13776e-12
1.56019e-11
1.27354e-10
1.69653e-09
2.4691e-08
6.13174e-07
3.64987e-05
6.86604e-05
2.32865e-05
6.58265e-08
3.72105e-08
7.96804e-08
2.8763e-07
8.85349e-07
4.86846e-06
6.13808e-05
9.02972e-05
9.03574e-05
9.00773e-05
8.95297e-05
7.23243e-05
1.86073e-05
2.86097e-06
3.30567e-06
2.99723e-06
3.21091e-06
5.20974e-05
0.000325842
0.000314322
0.000241581
0.000445771
0.000445771
0.000446367
0.00043862
1.9697e-05
2.38561e-08
1.79235e-08
2.72059e-09
2.72101e-10
3.47632e-11
9.07656e-12
1.70006e-12
6.9905e-13
6.83335e-13
1.71552e-06
2.60658e-06
1.86389e-06
1.56634e-06
1.27876e-06
9.66292e-07
2.2762e-06
4.75369e-05
0.000405537
0.000432142
0.000431363
0.000431517
0.00043178
0.000429592
0.000333636
3.23501e-05
6.43127e-07
1.02627e-06
3.10038e-13
3.10038e-13
1.59236e-09
1.48569e-07
1.59676e-07
1.60583e-07
1.96619e-08
1.53678e-05
2.16508e-05
1.65405e-05
8.78826e-08
1.07376e-10
5.01105e-10
8.41359e-10
6.32741e-10
3.96415e-09
7.7943e-09
6.41268e-13
8.73488e-13
7.29957e-12
2.10131e-11
-1.72029e-10
6.30052e-10
9.60589e-09
9.31304e-06
4.89966e-05
2.4222e-05
3.72241e-08
2.28699e-08
3.28464e-08
1.15219e-07
4.20707e-07
1.52961e-06
2.95264e-05
8.24595e-05
9.00773e-05
8.95297e-05
5.3742e-05
1.69321e-05
2.4262e-06
1.23999e-06
1.24052e-06
2.41491e-06
1.25178e-05
0.000248074
0.000301963
5.13389e-05
6.50313e-05
9.04821e-05
0.000110925
0.000444987
0.000429721
0.000187942
5.11903e-06
1.14188e-07
8.18815e-09
6.06559e-10
5.22433e-11
1.28028e-11
3.18825e-12
6.93601e-13
6.60345e-13
2.41654e-07
2.60526e-06
3.11459e-06
2.73371e-06
1.15361e-06
4.67303e-07
1.14383e-07
4.85532e-08
1.83669e-06
0.000284891
0.000427761
0.000316441
0.000192804
0.000149123
3.18307e-05
7.63676e-07
4.31337e-08
1.01808e-06
3.10038e-13
2.673e-10
2.71515e-09
1.50444e-08
5.11081e-08
1.73666e-07
1.13551e-06
6.39204e-14
6.56904e-06
1.70366e-13
7.26048e-13
2.12764e-10
1.18259e-09
1.33654e-09
8.17788e-10
3.76028e-14
3.75615e-14
5.84306e-13
2.50214e-12
6.73292e-12
9.4556e-12
8.2056e-12
2.6315e-11
1.58212e-11
1.17717e-10
2.56236e-09
5.31948e-06
4.2072e-06
1.88927e-08
8.56877e-09
3.41724e-08
1.38533e-07
1.61114e-06
4.6407e-06
1.64153e-05
3.07896e-05
1.8113e-05
5.22147e-06
1.94285e-06
9.01314e-07
4.73082e-07
5.35949e-07
1.70794e-06
3.93129e-05
0.000247039
0.000223985
2.09959e-05
8.02636e-05
0.000260523
0.000326279
0.000324719
0.000182333
0.000108263
1.02343e-05
1.90952e-08
1.04053e-09
2.8236e-10
4.24662e-11
1.29948e-11
3.55268e-12
1.0346e-12
6.39776e-13
3.34537e-13
7.07328e-07
3.21169e-06
3.28713e-06
3.26651e-06
4.98922e-07
5.76373e-08
8.77331e-09
3.84506e-09
1.93652e-08
1.19477e-07
6.41718e-06
1.49866e-06
1.7595e-06
8.76324e-07
3.92073e-08
2.48238e-10
6.46909e-11
5.63264e-12
5.30929e-10
2.52368e-10
1.78453e-10
1.76094e-10
8.92173e-08
7.03422e-09
6.39534e-14
6.41223e-14
6.61879e-14
2.81321e-12
2.36681e-10
7.46744e-10
9.42196e-10
3.47679e-10
3.64065e-14
3.23192e-14
3.08514e-13
2.54206e-12
9.6762e-12
1.75256e-11
1.86072e-11
1.94973e-11
2.72201e-11
8.51036e-11
4.53099e-10
2.0479e-09
1.1603e-07
6.95394e-08
2.36401e-09
7.20119e-09
5.80181e-08
2.58639e-07
2.64917e-07
5.78935e-07
9.68177e-07
1.10904e-06
9.09034e-07
6.22008e-07
3.13337e-07
1.73913e-07
2.43108e-07
9.97641e-07
3.9787e-05
0.000239757
5.67997e-05
1.82471e-05
0.000302345
0.000325108
0.000325341
0.00032411
0.000198965
8.49507e-05
7.93671e-06
3.62313e-08