/*--------------------------------*- C++ -*----------------------------------*\
| =========                 |                                                 |
| \\      /  F ield         | OpenFOAM: The Open Source CFD Toolbox           |
|  \\    /   O peration     | Version:  2412                                  |
|   \\  /    A nd           | Website:  www.openfoam.com                      |
|    \\/     M anipulation  |                                                 |
\*---------------------------------------------------------------------------*/
FoamFile
{
    version     2.0;
    format      ascii;
    arch        "LSB;label=32;scalar=64";
    class       volScalarField;
    location    "3.85";
    object      alpha.water;
}
// * * * * * * * * * * * * * * * * * * * * * * * * * * * * * * * * * * * * * //

dimensions      [0 0 0 0 0 0 0];

internalField   nonuniform List<scalar> 
6400
(
1
1
1
1
1
1
1
1
1
1
1
0.999999
1
0.999999
1
1
1
1
1
1
1
1
1
1
1
1
1
1
1
1
1
1
1
1
1
1
1
1
1
1
1
1
1
1
1
1
1
1
1
1
1
1
1
1
1
1
1
1
1
1
1
1
1
1
1
1
1
1
1
1
1
1
1
1
0.999999
1
1
0.999999
0.999999
1
0.999996
1
1
1
1
1
1
1
1
1
1
0.999999
1
0.999999
1
1
1
1
1
1
1
1
1
1
1
1
1
1
1
1
1
1
1
1
1
1
1
1
1
1
1
1
1
1
1
1
1
1
1
1
1
1
1
1
1
1
1
1
1
1
1
1
1
1
1
1
1
1
1
1
1
1
1
1
0.999999
0.999999
0.999999
1
1
0.999998
1
1
1
1
1
1
1
1
1
1
1
0.999999
1
1
1
1
1
1
1
1
1
1
1
1
1
1
1
1
1
1
1
1
1
1
1
1
1
1
1
1
1
1
1
1
1
1
1
1
1
1
1
1
1
1
1
1
1
1
1
1
1
1
1
1
1
1
1
1
1
1
1
1
1
1
1
1
1
1
1
1
1
1
1
1
1
1
1
1
1
1
1
1
1
1
1
1
1
1
1
1
1
1
1
1
1
1
1
1
1
1
1
1
1
1
1
1
1
1
1
1
1
1
1
1
1
1
1
1
1
1
1
1
1
1
1
1
1
1
1
1
1
1
1
1
1
1
1
1
1
1
1
1
1
1
1
1
1
1
1
1
1
1
1
1
1
1
1
1
1
1
1
1
1
1
1
1
1
1
1
1
1
1
1
1
1
1
1
1
1
1
1
1
1
1
1
1
1
1
1
1
1
1
1
1
1
1
1
1
1
1
1
1
1
1
1
1
1
1
1
1
1
1
1
1
1
1
1
1
1
1
1
1
1
1
1
1
1
1
1
1
1
1
1
1
0.999999
0.999999
1
1
1
1
1
1
1
1
1
0.999999
0.999999
1
1
1
1
1
1
1
1
1
1
1
1
1
1
1
1
1
1
1
1
1
1
1
1
1
1
1
1
1
1
1
1
1
1
1
1
1
1
1
1
1
1
1
1
1
1
1
1
1
1
1
1
1
1
1
1
1
1
1
1
1
1
1
1
1
1
0.999999
1
1
1
1
0.999999
0.999999
1
1
1
1
1
1
1
1
1
0.999999
0.999998
0.999999
1
1
1
0.999999
0.999999
1
1
1
1
0.999999
1
1
1
1
1
1
1
1
1
1
1
1
1
1
1
1
1
1
1
1
1
1
1
1
1
1
1
1
1
1
1
1
1
1
1
1
1
1
1
1
1
1
1
1
1
1
1
0.999999
1
1
0.999999
1
1
1
0.999999
0.999999
1
1
1
1
1
1
1
1
1
0.999999
1
1
1
0.999999
0.999999
0.999999
1
1
1
1
0.999999
0.999999
1
1
1
1
1
1
1
1
1
1
1
1
1
1
1
1
1
1
1
1
1
1
1
1
1
1
1
1
1
1
1
1
1
1
1
1
1
1
1
1
1
1
1
1
1
1
1
1
1
1
1
1
1
1
1
1
1
0.999999
1
1
1
1
0.999999
1
1
1
1
1
1
1
1
1
1
1
1
1
1
1
1
1
1
1
1
1
1
1
1
1
1
1
1
1
1
1
1
1
1
1
1
1
1
1
0.999999
0.999999
1
1
1
1
1
1
1
1
1
1
1
1
1
1
1
1
1
1
1
1
1
1
1
1
1
1
1
1
1
1
1
1
1
1
1
1
1
1
1
1
1
1
1
1
1
1
1
1
1
1
1
1
1
0.999999
0.999999
1
1
1
1
1
1
1
1
1
1
1
1
1
1
1
1
1
1
1
1
1
0.999999
0.999999
1
1
1
1
1
1
1
1
1
1
1
1
1
1
1
1
1
1
1
1
1
1
1
1
1
1
1
1
1
1
1
1
1
1
1
1
1
1
1
1
1
1
1
1
1
1
1
1
1
1
1
1
1
0.999999
0.999999
1
1
1
1
1
1
1
1
1
1
1
1
1
1
1
1
0.999999
0.999999
0.999999
1
1
1
1
1
1
1
1
1
1
1
1
1
1
1
1
1
1
1
1
1
1
1
1
1
1
1
1
1
1
1
1
1
1
1
0.999999
1
1
1
1
1
1
1
1
1
1
1
1
1
1
1
0.999999
1
1
1
1
1
1
1
1
1
1
1
1
1
1
0.999999
0.999999
1
1
1
1
1
1
1
1
1
1
1
1
1
1
1
1
1
1
1
1
1
1
1
1
1
1
1
1
1
1
1
1
1
1
1
1
1
1
1
1
1
1
1
1
1
1
0.999344
0.988085
0.996263
0.999775
0.999996
1
1
1
1
1
1
1
1
1
1
1
1
1
1
1
1
1
1
1
1
1
1
1
1
1
1
1
1
1
1
1
1
1
1
1
1
1
1
1
1
1
1
0.999999
0.999999
0.999999
1
1
1
1
1
1
1
1
1
1
1
1
1
1
1
1
1
1
1
1
1
1
1
1
1
1
0.999999
0.999267
0.995317
0.999636
0.973863
0.938744
0.938777
0.97437
0.999985
1
1
1
1
1
1
1
1
1
1
1
1
1
1
1
1
1
1
1
1
1
1
1
1
1
1
1
1
1
1
1
1
1
1
1
1
1
1
1
1
1
0.999999
0.999999
0.999999
1
1
1
1
1
1
1
1
1
1
1
1
1
1
1
1
1
1
1
1
1
1
1
1
1
1
0.999996
0.989939
0.944455
0.943125
0.978226
0.966372
0.954601
0.938743
0.951861
0.995481
0.999995
1
1
1
1
1
1
1
1
1
1
1
1
1
1
1
1
1
1
1
1
1
1
1
1
1
1
1
1
1
1
1
1
1
1
1
1
1
1
1
0.999999
0.999999
0.999999
1
1
1
1
1
1
1
1
1
1
1
1
1
1
1
1
1
1
1
1
1
1
1
1
1
1
0.999996
0.994644
0.949039
0.938301
0.951365
0.969199
0.999485
0.99949
0.949247
0.93734
0.971831
0.999979
0.999999
1
1
1
1
1
1
1
1
1
1
1
1
1
1
1
1
1
1
1
1
1
1
1
1
1
1
1
1
1
1
1
1
1
1
1
1
1
0.999999
0.999999
0.999999
0.999999
1
1
1
1
1
1
1
1
1
1
1
1
1
1
1
1
1
1
1
1
1
1
1
1
1
0.999999
0.999751
0.963492
0.932276
0.952761
0.998957
0.99895
0.99949
0.999071
0.940024
0.937353
0.967279
0.999913
0.999998
1
1
1
1
1
1
1
1
1
1
1
1
1
1
1
1
1
1
1
1
1
1
1
1
1
1
1
1
1
1
1
1
1
1
1
0.999999
0.999999
0.999999
0.999999
1
1
1
0.999999
0.999998
0.999998
1
1
1
1
1
1
1
1
1
1
1
1
1
1
1
1
1
1
1
1
1
0.999995
0.998671
0.951375
0.932276
0.934417
0.998771
0.998957
0.99948
0.995511
0.977225
0.962376
0.99056
0.999943
0.99999
0.999999
1
1
1
1
1
1
1
1
1
1
1
1
1
1
1
1
1
1
1
1
1
1
1
1
1
1
1
1
1
1
1
1
1
1
1
0.999999
0.999999
0.999999
1
1
1
0.999999
0.999998
0.999998
1
1
1
1
1
1
1
1
1
1
1
1
1
1
1
1
1
1
1
1
0.999999
0.999982
0.999884
0.974351
0.932394
0.960742
0.994504
0.998943
0.999353
0.997793
0.996641
0.997248
0.998429
0.999662
0.999943
0.99999
0.999999
1
1
1
1
0.992312
0.968276
0.945169
0.938197
0.948278
0.955744
0.958801
0.966869
0.990792
0.999996
1
1
1
0.999999
0.999999
0.999999
0.999998
0.999997
0.999998
0.999998
0.999999
0.999999
0.999999
0.999999
0.999999
0.999999
0.999999
0.999999
0.999999
0.999999
0.999999
0.999999
0.999999
0.999999
0.999999
0.999999
0.999998
0.999995
0.999992
0.999993
0.999991
0.999994
0.999999
0.999999
0.999978
0.995491
0.986666
0.994081
0.99264
0.985
0.973017
0.977827
0.999333
1
1
1
1
1
0.999999
0.999982
0.999884
0.999134
0.996799
0.994206
0.993688
0.996776
0.998743
0.995331
0.990838
0.989953
0.989469
0.985256
0.979751
0.949819
0.874787
0.803526
0.764523
0.700534
0.622067
0.543476
0.465344
0.39516
0.329793
0.271163
0.222664
0.184303
0.168307
0.247739
0.492635
0.713502
0.865759
0.948029
0.979858
0.99519
0.99992
0.999911
0.999888
0.999868
0.999877
0.999907
0.999932
0.999938
0.999932
0.999904
0.999523
0.998976
0.998568
0.998486
0.998576
0.998773
0.999053
0.999168
0.999181
0.999535
0.999876
0.9999
0.999739
0.999429
0.999116
0.997939
0.985645
0.950576
0.954525
0.945922
0.848504
0.51305
0.207856
0.204613
0.238289
0.264947
0.309635
0.390496
0.499007
0.631691
0.728959
0.783135
0.8216
0.848643
0.86387
0.895942
0.925208
0.936389
0.937884
0.945572
0.945999
0.947854
0.96469
0.523764
0.472456
0.448576
0.432976
0.404569
0.367435
0.344694
0.336877
0.311327
0.247215
0.159258
0.0786579
0.0250348
0.00597734
0.00273545
0.00224731
0.0017751
0.00155147
0.00119799
0.00186527
0.00260101
0.00663305
0.0403846
0.0965375
0.17923
0.306037
0.469145
0.612145
0.691023
0.720191
0.721498
0.707625
0.696806
0.684984
0.663843
0.634902
0.596989
0.565607
0.54368
0.533901
0.53312
0.5335
0.5358
0.54199
0.549124
0.551505
0.563498
0.590951
0.603079
0.595556
0.588132
0.580367
0.538077
0.399441
0.234704
0.173069
0.19442
0.111644
0.0105711
0.00235183
0.00210385
0.0016453
0.0012525
0.00121114
0.00151004
0.0111972
0.0480848
0.10797
0.180492
0.253691
0.301908
0.311849
0.284519
0.250716
0.233848
0.236908
0.250213
0.260007
0.282727
0.328986
7.6203e-05
5.70984e-05
5.54552e-05
5.54968e-05
5.54552e-05
5.62908e-05
6.20007e-05
5.13209e-05
5.22951e-05
4.79653e-05
4.46168e-05
6.81496e-05
0.000210943
0.00074741
0.00153104
0.001345
0.000752471
0.000425509
0.000321218
0.00132778
0.00249583
0.000977342
0.000558785
0.000546238
0.00464439
0.000553044
0.000343538
0.000264219
0.0204381
0.0357062
0.0437545
0.0475456
0.0462227
0.0366723
0.0213987
0.00258875
8.27383e-06
5.95941e-06
5.15605e-06
5.04647e-06
5.39104e-06
5.8432e-06
6.34746e-06
7.01302e-06
7.63143e-06
8.26219e-06
8.18305e-05
0.00375849
0.0161918
0.0290623
0.0404802
0.0379945
0.00195439
0.0011384
0.00124269
0.00250428
0.00097268
0.00146421
0.00186481
0.0017852
0.00148878
0.000933611
0.000609702
0.00053911
0.000535659
0.000521705
0.000533992
0.000361163
0.000141741
0.000127342
0.000128588
0.000128582
0.000128582
0.000128582
0.00012858
0.000128584
0.000128637
0.000129085
0.000132009
0.000146216
0.000201425
0.00011571
5.81461e-05
5.54968e-05
0.000108642
0.000598934
0.000598338
0.000398204
5.01303e-05
4.91108e-05
4.10615e-05
3.35954e-05
7.3438e-05
0.00082506
0.00153047
0.00120314
0.000532326
0.000294956
0.000238431
0.000116902
0.000356598
0.00106113
0.000389717
7.38202e-05
0.000123537
0.000614216
0.000212792
7.96515e-05
3.66952e-05
2.50626e-05
3.60407e-05
3.5401e-05
2.90585e-05
2.15989e-05
1.35788e-05
8.26554e-06
4.17775e-06
5.15517e-06
4.8351e-06
4.68125e-06
5.04689e-06
5.39366e-06
5.8456e-06
6.34992e-06
7.37811e-06
8.46864e-05
0.000105691
5.50404e-05
5.58495e-05
6.89574e-05
0.000134435
0.000376314
0.000750583
0.0012724
0.00152209
0.00117259
0.000412691
0.00129432
0.00190527
0.00202667
0.00171894
0.00079671
0.000547588
0.00053911
0.000583208
0.000417081
0.000285551
0.00016104
0.00014388
0.000130489
0.000128672
0.000128594
0.000128582
0.00012858
0.000128579
0.00012858
0.000128695
0.00013044
0.000161801
0.000275212
0.00161552
0.00129459
0.000107472
0.000100478
0.000733043
0.000728592
0.000506462
0.000122078
0.00012928
0.000262631
0.000174559
2.62579e-05
1.21902e-05
0.000271537
0.000410521
0.000269214
4.67872e-05
4.8211e-06
1.08158e-05
1.56805e-05
1.59074e-05
1.6431e-05
1.72758e-05
2.4536e-05
4.32828e-05
0.000502014
0.000337958
4.76295e-05
2.50515e-05
1.34159e-05
3.2934e-05
8.6383e-05
9.58617e-05
9.67567e-05
9.61464e-05
5.71453e-05
9.89178e-07
3.40878e-06
4.46958e-06
4.43491e-06
6.84365e-06
3.32384e-05
3.70198e-05
8.78898e-06
7.63142e-06
0.000302356
0.000556256
5.58044e-05
4.82774e-05
0.000125923
0.000422426
0.000485202
0.00106474
0.00114933
0.00113461
0.00035836
0.00016195
0.000922085
0.00193727
0.00195136
0.00134922
0.00124308
0.0012684
0.00124843
0.000793423
0.000370121
0.000389215
0.000470866
0.000528616
0.000267995
0.000130555
0.000128664
0.000128606
0.000128579
0.000128579
0.000128579
0.000128591
0.000236521
0.00147256
0.00182394
0.00162395
0.00141368
0.000143083
0.000227644
0.000734961
0.000676861
0.000118828
0.000117961
0.000262332
0.000262631
0.000262631
8.67227e-05
8.67007e-06
4.0648e-06
2.22373e-06
7.98242e-07
1.26978e-06
3.31377e-06
7.49804e-06
1.08158e-05
1.64244e-05
1.74166e-05
1.86371e-05
1.91971e-05
2.51039e-05
0.000177495
0.000309558
0.000224782
2.58121e-05
4.1809e-06
1.33013e-06
4.42247e-07
1.49707e-07
7.97457e-08
5.90771e-08
1.08957e-07
2.41268e-07
3.69472e-06
4.12282e-06
4.43537e-06
4.43537e-06
3.67927e-05
3.74379e-05
1.77294e-05
9.31667e-06
0.000336579
0.000716224
0.000154899
4.0491e-05
6.61498e-05
0.000214707
0.000458146
0.00109459
0.00113922
0.00109459
0.000326386
6.73862e-05
0.000165616
0.000404997
0.000293412
0.000174375
0.000176273
0.000316906
0.000222248
7.37966e-05
0.000323181
0.000675793
0.000684968
0.000684968
0.000684968
0.000537341
0.000129321
0.000128675
0.000128654
0.000128579
0.00012859
0.000199206
0.00133112
0.00182394
0.00182394
0.00162395
0.000102854
0.000120661
0.000211939
0.000734961
0.000622527
0.000120727
0.000119568
0.000260919
0.000262631
0.000262509
0.000171362
7.0953e-06
3.2369e-06
1.54552e-06
4.93277e-07
5.66876e-07
1.60457e-05
0.000130258
7.49381e-05
1.82165e-05
1.86371e-05
2.01073e-05
2.09459e-05
2.33961e-05
4.67001e-05
0.000300712
0.000271466
4.66992e-05
2.64156e-06
5.43963e-07
1.17628e-07
4.80945e-08
1.75377e-08
4.06879e-08
5.90745e-08
7.71614e-06
6.34443e-05
6.15371e-05
9.61249e-06
6.362e-06
1.17377e-05
1.80238e-05
1.87438e-05
1.38069e-05
0.000117259
0.000716682
0.000467013
3.8009e-05
3.53983e-05
4.51249e-05
0.000285328
0.0010221
0.00109539
0.00106809
0.000833447
1.27072e-05
3.50069e-06
2.34711e-08
2.34711e-08
2.14475e-08
2.37722e-08
3.18847e-08
7.32503e-08
2.22526e-07
9.53855e-07
5.01156e-06
0.000200169
0.000556728
0.000675222
0.000656145
0.00058353
0.000129393
0.000130315
0.00041324
0.000597568
0.00128496
0.00170253
0.00178614
0.00182394
0.00153779
7.72597e-06
1.92238e-05
8.76278e-05
0.000395898
0.000856506
0.000120397
0.000122518
0.00025923
0.000235387
0.000158323
0.000150561
1.95045e-05
1.34249e-05
2.03558e-06
3.85076e-07
4.94025e-07
2.55439e-05
0.000187183
0.000200165
5.03317e-05
3.40284e-05
4.35847e-05
3.35792e-05
3.78305e-05
0.000135006
0.000244342
0.000107148
2.21257e-06
3.30557e-07
5.0526e-08
1.33323e-08
2.60601e-08
1.05032e-08
2.11201e-08
2.08126e-06
5.88649e-05
6.94137e-05
6.86641e-05
4.73285e-05
9.62075e-06
1.20439e-05
1.90135e-05
2.12194e-05
1.87057e-05
2.15765e-05
0.000690086
0.000203285
3.54015e-05
3.46089e-05
3.02187e-05
6.11152e-05
0.000446495
0.000775364
0.000535449
0.000207907
6.85088e-05
9.85864e-06
4.18738e-07
2.14475e-08
1.94962e-08
6.14433e-08
4.81309e-07
5.15047e-07
4.30293e-07
6.53893e-07
1.68005e-06
7.08094e-06
2.64115e-05
7.65268e-05
0.000646815
0.000604746
0.000217614
0.000211806
0.00126056
0.00126056
0.00127603
0.000690626
0.000226926
0.0013694
0.000317113
7.27448e-06
7.72597e-06
6.75025e-05
0.000764697
0.000869009
0.000212603
0.000193763
0.000223003
2.96946e-05
1.55816e-05
2.48404e-05
4.56422e-05
1.14521e-05
3.8083e-07
3.25644e-07
1.70498e-06
2.45518e-07
0.000161492
0.000211521
0.000153451
3.86888e-05
6.06645e-05
0.000114785
0.000125524
0.000131441
6.68904e-05
6.06735e-06
2.64149e-07
3.44307e-08
5.61425e-09
6.50851e-09
1.3905e-08
6.8491e-09
6.99982e-08
9.19529e-08
2.00874e-06
4.57011e-05
6.93488e-05
6.74517e-05
1.64712e-05
3.36251e-05
7.45979e-05
5.62092e-05
2.15883e-05
2.52338e-05
5.82276e-05
0.000438276
0.000103234
3.02136e-05
2.71046e-05
2.32845e-05
2.9001e-05
4.61868e-05
8.66047e-06
7.37843e-07
1.39214e-05
1.26891e-06
2.18728e-07
1.94962e-08
1.94962e-08
1.94834e-08
1.96218e-08
2.81494e-08
1.2179e-07
9.03346e-07
4.03615e-05
0.000269148
0.000345255
0.000253008
0.000281692
0.00041545
0.000422026
0.000253017
0.000527143
0.000719048
0.000310244
6.19392e-05
6.78082e-05
6.94605e-05
7.2745e-06
7.18273e-06
7.2745e-06
5.14909e-05
0.000765086
0.000646229
0.000157124
0.000203908
5.96467e-05
2.01806e-05
1.02631e-05
7.52209e-06
2.49098e-05
9.79917e-06
3.01094e-07
2.49855e-07
2.44139e-07
2.45498e-07
2.70362e-05
0.000212475
0.000218873
0.000115692
5.26164e-05
6.68355e-05
9.3963e-05
5.12018e-05
4.66479e-06
2.4157e-07
3.12491e-08
6.56603e-09
1.79121e-09
1.2781e-09
1.33017e-09
4.74283e-09
6.75868e-08
1.49994e-07
1.1185e-07
1.09895e-07
6.39296e-06
2.87898e-05
1.08563e-05
1.55719e-05
9.51791e-05
0.000110691
5.89285e-05
3.10658e-05
3.63494e-05
0.00101693
0.000222374
2.70992e-05
2.32417e-05
1.72978e-05
1.14602e-05
5.25468e-06
9.85906e-07
2.45125e-07
9.65568e-06
1.69859e-05
1.39606e-05
1.31364e-06
2.45459e-08
1.96168e-08
1.97917e-08
3.37665e-08
2.527e-07
1.50686e-05
0.000305753
0.000439988
0.000441508
0.00043411
0.000125212
1.89321e-05
0.00039617
0.000394666
0.000280933
6.47795e-05
6.19392e-05
6.19392e-05
6.19392e-05
6.58239e-05
3.36815e-05
7.26773e-06
7.18942e-06
1.64634e-05
0.000599851
0.000140635
0.000127325
0.000205007
7.72095e-05
0.000154426
0.000124511
8.99354e-06
6.1999e-07
3.06692e-07
2.60982e-07
2.51015e-07
2.45498e-07
2.43578e-07
2.45498e-07
5.50948e-05
0.00022082
0.00022082
0.000121073
1.12319e-05
5.59626e-06
8.18332e-07
3.42939e-07
5.39521e-08
4.29519e-09
1.97921e-08
1.25334e-08
7.92046e-10
7.42766e-10
7.31681e-09
2.22336e-07
2.61707e-07
2.26792e-07
1.07423e-07
4.83462e-07
1.32053e-06
2.05022e-06
3.14524e-06
1.75333e-05
7.01459e-05
0.00014441
9.00742e-05
0.000129094
0.00145359
0.00153873
0.000174831
1.73081e-05
1.1469e-05
5.21489e-06
1.71728e-06
3.63782e-07
7.91659e-08
1.67684e-08
1.49613e-05
1.78761e-05
1.0697e-05
6.87152e-08
1.97917e-08
2.13452e-08
4.29603e-08
4.81862e-07
0.00014891
0.000444164
0.00044642
0.000410333
0.000176743
2.19221e-05
1.31546e-05
0.000139446
0.000393631
0.000392755
0.000266365
6.40817e-05
6.19392e-05
0.000199805
7.24914e-05
0.000159392
1.33964e-05
7.21278e-06
2.69029e-05
3.37876e-05
2.84735e-05
0.000144909
0.000199498
0.000205612
0.000266722
0.000266502
0.000161523
1.12402e-05
4.72204e-07
3.06654e-07
2.60992e-07
2.51015e-07
2.45498e-07
2.43906e-07
2.57522e-07
7.00046e-05
0.00022082
0.000175513
1.18376e-05
7.20256e-07
1.76048e-07
3.13528e-08
4.93304e-09
8.46699e-10
1.94611e-08
9.16911e-09
4.44079e-10
6.34237e-10
1.49169e-08
1.51399e-07
1.9621e-07
5.60947e-08
3.627e-08
6.20426e-08
2.63813e-06
2.88456e-06
3.2712e-06
4.18726e-06
7.4755e-06
3.23425e-05
0.000136677
0.0010132
0.00156317
0.00161326
0.000375876
1.32132e-05
5.0593e-06
2.28492e-06
5.65744e-07
1.05025e-07
1.6768e-08
6.32128e-09
1.61194e-06
1.44052e-05
8.68507e-06
1.20636e-07
2.21847e-08
3.03453e-08
5.77958e-08
4.39183e-05
0.00032897
0.00044642
0.000387086
3.23027e-05
1.72584e-07
1.72584e-07
1.72584e-07
5.91072e-06
0.000143036
0.00039339
0.000378225
7.68579e-05
0.000129357
0.000600102
0.000592158
0.000402197
0.000680175
7.24216e-06
8.75559e-06
8.19939e-06
0.000130272
0.000186592
0.000185685
0.000265195
0.000266233
0.000267059
0.000265633
5.78562e-05
8.17524e-07
4.72755e-07
3.22677e-07
3.0936e-07
2.92329e-07
4.11003e-07
2.60148e-07
2.86328e-07
9.8886e-05
0.000113034
1.25212e-05
1.75984e-07
3.19306e-08
4.87519e-09
9.02167e-10
3.72235e-10
3.28242e-10
3.26702e-10
3.29676e-10
1.07445e-09
1.16268e-08
4.86122e-10
5.37362e-10
9.20829e-10
4.6623e-09
3.30374e-08
2.31518e-06
6.81054e-06
9.03296e-06
6.84843e-06
8.16376e-06
9.84824e-06
0.000417468
0.0015698
0.00162727
0.00163433
0.00137596
7.79207e-05
2.66313e-06
6.87181e-07
1.87433e-07
3.62474e-08
6.32083e-09
2.83121e-09
1.88247e-09
4.45208e-07
1.57481e-06
4.71893e-07
3.03455e-08
1.17618e-05
8.71909e-05
0.000108146
0.000352275
0.00042394
1.72826e-05
1.75129e-07
1.72723e-07
1.7258e-07
1.14412e-05
0.000133236
5.48713e-05
0.000268382
0.000386155
0.000121673
0.000258066
0.000619581
0.000760941
0.000226375
0.000648615
7.171e-06
7.15859e-06
7.45431e-06
0.000208093
0.000180324
0.000242421
0.000264582
0.000265195
0.000265633
0.000260706
5.34022e-05
1.64676e-06
8.21269e-07
7.6492e-06
1.1188e-05
7.71165e-06
2.01e-06
2.92943e-07
2.94641e-07
3.37235e-07
0.00012192
8.77832e-05
3.75398e-06
3.87741e-08
3.57715e-09
6.64411e-10
3.4696e-10
3.17002e-10
3.25268e-10
4.209e-10
4.43702e-10
4.43716e-10
4.45894e-10
4.86122e-10
1.09445e-09
7.65978e-09
7.11856e-08
2.43314e-06
8.68892e-06
1.82258e-05
6.88335e-05
0.000184924
0.000701806
0.00159427
0.0016339
0.00164365
0.00163791
0.00145201
5.58838e-05
2.11614e-06
2.93176e-07
6.25735e-08
1.29313e-08
2.8783e-09
1.52781e-09
5.36778e-10
1.24273e-09
3.60999e-09
3.31062e-08
3.30618e-05
0.000135056
0.0001364
5.5549e-05
0.000189771
3.02023e-05
2.49233e-07
1.79871e-07
1.73304e-07
1.72723e-07
0.000164908
0.000256967
5.00602e-05
2.91574e-05
0.000355743
0.000355229
0.000236824
0.000188445
0.000761015
6.85845e-05
0.000127613
0.000433151
7.45431e-06
0.000130436
0.00021451
0.000184016
0.000258127
0.000262084
0.0002594
0.000210682
7.38917e-05
4.65822e-06
2.77755e-06
1.1211e-05
3.10958e-05
3.05401e-05
1.61135e-05
1.76515e-06
5.36113e-07
3.67088e-07
3.60094e-07
0.000196593
0.000184746
1.40374e-05
6.49729e-08
4.76158e-09
5.51281e-10
3.18565e-10
2.89026e-10
3.78143e-10
4.88994e-10
5.07595e-10
4.98891e-10
5.45728e-10
6.01676e-10
1.3607e-09
1.01794e-08
1.11679e-07
6.92019e-07
3.0494e-06
4.95218e-05
0.00095247
0.00150229
0.00160677
0.00163669
0.00164724
0.00163895
0.00164141
0.00062603
5.75865e-05
2.75708e-06
1.29187e-07
2.44785e-08
5.50321e-09
1.65431e-09
8.47664e-10
3.69546e-10
1.79623e-10
4.34294e-10
1.44464e-06
0.000113103
0.000133601
6.54599e-05
1.59297e-06
1.64124e-05
1.11209e-06
4.36828e-07
4.7084e-07
1.74685e-07
1.73304e-07
0.000254066
0.000256967
6.33945e-05
2.85781e-05
0.00020493
0.00034917
0.000108095
0.000123682
0.000760911
6.48245e-05
0.000386225
0.000510061
0.000321973
0.000286018
0.000144548
0.000256687
0.000257196
0.000199341
4.80768e-05
4.45388e-07
7.67624e-08
7.11503e-07
4.07571e-06
3.18071e-05
3.14514e-05
3.10958e-05
7.47687e-06
2.3591e-06
6.10252e-05
0.000111622
3.18554e-05
0.000359457
0.000216154
4.91699e-06
3.82755e-08
2.16978e-09
3.2363e-10
2.39775e-10
2.4613e-10
2.91699e-10
3.38458e-10
4.04833e-10
7.27306e-10
1.63024e-09
1.83442e-09
2.36463e-09
8.87166e-09
6.90228e-08
5.0257e-07
2.98584e-06
1.49536e-05
0.000463292
0.00151495
0.00162718
0.00162718
0.00163669
0.00163895
0.000788058
1.89693e-05
2.43674e-05
2.54552e-06
6.61005e-08
1.14005e-08
3.39892e-09
1.58947e-09
8.9076e-10
3.0276e-10
6.97933e-11
9.13117e-11
7.0687e-05
0.000124081
4.3244e-05
1.76167e-06
1.53068e-06
1.59297e-06
1.90888e-06
5.46786e-06
1.05851e-06
1.77121e-07
1.74685e-07
9.16675e-05
0.000256967
3.69659e-05
2.8556e-05
2.96811e-05
0.000206423
3.14724e-05
4.09832e-05
0.000760346
6.46197e-05
0.000505152
0.000510061
0.000430809
4.83966e-05
0.000146797
0.00025758
0.000224062
3.8741e-06
3.08796e-09
1.16716e-08
1.71936e-08
3.02554e-06
2.8844e-05
3.20651e-05
3.18071e-05
9.41786e-06
9.32246e-07
1.53696e-06
0.000252974
0.000375869
0.000376725
0.000376767
0.000343604
1.69184e-05
1.13933e-08
5.41596e-10
2.1035e-10
2.22387e-10
1.8928e-10
2.10649e-10
2.31775e-10
2.64787e-10
6.58552e-10
2.88338e-09
5.04264e-09
4.99004e-09
6.8094e-09
2.43952e-08
1.56861e-07
8.49425e-07
4.01839e-06
7.05189e-05
0.000404204
0.00103562
0.00130153
0.000907149
0.000407002
5.28835e-05
6.44609e-06
8.5066e-07
2.94129e-07
3.48155e-08
5.96902e-09
2.56765e-09
1.80891e-09
9.74649e-10
2.63713e-10
4.6348e-11
4.07108e-11
9.13073e-05
0.000106341
5.14167e-06
1.53338e-06
1.53338e-06
4.04452e-06
3.019e-05
1.97279e-05
4.08842e-07
1.7968e-07
1.70681e-07
9.38725e-07
0.00025609
2.92406e-05
2.85363e-05
2.87229e-05
2.93303e-05
2.90973e-05
2.87061e-05
0.000757851
6.46477e-05
0.000486273
0.000436226
6.22256e-05
2.22004e-05
7.12166e-05
0.00025758
1.08636e-05
3.08799e-09
2.39868e-09
3.08799e-09
1.02832e-08
1.05692e-05
3.23231e-05
3.23231e-05
7.42098e-06
3.69642e-07
5.25696e-07
9.37571e-05
0.000375869
0.000376725
0.000376778
0.000376755
0.000254895
5.66486e-06
1.27562e-09
1.34447e-10
1.84607e-10
1.4781e-10
1.25733e-10
1.30595e-10
1.41992e-10
1.9202e-10
7.12353e-10
2.89382e-09
4.70229e-09
4.31412e-09
4.00359e-09
6.94048e-09
2.68108e-08
1.17129e-07
8.13157e-07
1.46215e-05
3.59434e-05
6.03312e-05
0.000108947
7.51939e-05
4.148e-05
1.9399e-05
2.63996e-06
6.72856e-07
5.31425e-08
1.16155e-08
3.32576e-09
1.83879e-09
1.55257e-09
8.95536e-10
2.47052e-10
3.31744e-11
1.50127e-11
9.48929e-05
1.83259e-05
1.61117e-06
1.57043e-06
1.53338e-06
9.80788e-05
0.000110483
1.76729e-05
2.22604e-07
1.50199e-07
1.65107e-07
9.6772e-06
0.000253817
3.53037e-05
2.85363e-05
2.85212e-05
2.86923e-05
2.87036e-05
2.86699e-05
0.000715919
0.00041289
0.000449069
2.95318e-05
1.06147e-05
2.14612e-05
0.000122963
0.000129779
6.79915e-07
2.61862e-09
1.86933e-09
2.39868e-09
1.24024e-08
1.37966e-05
3.23231e-05
2.19615e-05
1.5949e-07
1.84154e-07
2.40216e-06
0.000211768
0.000374801
0.000375986
0.000376725
0.000356512
6.37866e-06
1.83497e-07
1.02443e-10
3.83465e-11
1.07742e-10
7.85186e-11
6.93585e-11
6.71569e-11
7.79092e-11
1.46662e-10
4.47686e-10
9.57246e-10
1.32543e-09
1.68201e-09
2.39657e-09
6.84245e-09
2.12413e-08
4.17673e-08
1.33976e-07
8.2369e-07
2.55842e-06
5.78809e-06
1.03462e-05
1.28352e-05
1.20522e-05
6.06113e-06
9.12924e-07
5.27367e-07
2.54279e-08
4.42654e-09
1.6259e-09
1.03536e-09
9.38102e-10
6.31589e-10
2.01932e-10
2.24557e-11
0
9.70447e-05
0.000104328
1.02072e-05
1.61117e-06
9.85234e-05
0.000136992
0.000117403
6.11186e-06
1.29942e-07
6.25046e-08
1.22453e-07
2.04956e-05
0.000250607
0.000161831
2.85212e-05
2.85037e-05
2.85276e-05
2.86098e-05
2.86726e-05
0.000674752
0.000412296
0.000280196
1.00023e-05
9.33136e-06
2.50389e-05
0.000178258
4.78576e-07
5.59026e-09
1.47452e-09
9.20333e-10
2.23025e-09
1.01507e-08
7.09988e-06
3.18258e-05
4.16508e-06
1.17435e-07
1.65212e-07
4.30427e-07
7.06278e-05
0.000316432
0.00034704
7.42333e-05
2.35551e-05
6.1806e-08
6.69081e-10
4.37175e-12
1.52139e-11
4.60575e-11
3.35068e-11
2.89804e-11
2.71893e-11
3.53738e-11
6.41013e-11
1.15768e-10
1.54907e-10
3.75657e-10
2.15522e-09
3.72365e-07
1.34066e-06
1.57269e-06
1.82555e-07
2.61325e-07
3.33151e-07
6.6805e-07
1.7456e-06
2.65273e-06
3.21586e-06
3.15167e-06
1.66564e-06
3.78634e-07
8.44475e-08
8.13436e-09
1.73055e-09
7.07154e-10
4.7631e-10
4.08179e-10
3.19836e-10
1.40249e-10
1.52435e-11
-2.10846e-11
7.64895e-05
0.00013137
0.000135937
0.000134153
0.000139897
0.000139897
2.87164e-05
2.98485e-07
4.29466e-08
1.87769e-08
5.18047e-08
1.91661e-05
0.000247377
0.000232544
2.85037e-05
2.85037e-05
2.85037e-05
2.85476e-05
2.86127e-05
0.000724631
0.00039929
5.79697e-05
9.17618e-06
8.98357e-06
1.44957e-05
0.000178352
4.10513e-05
1.83487e-08
5.03303e-10
2.17295e-10
7.21133e-09
7.14413e-09
1.38086e-06
1.21184e-05
5.36012e-06
9.86093e-08
3.5724e-07
4.9437e-07
9.42571e-10
3.98274e-09
3.81438e-06
7.80414e-08
9.75385e-08
5.90867e-09
-1.89943e-10
4.36617e-12
1.46261e-11
1.3597e-11
1.00501e-11
8.48476e-12
7.99159e-12
1.29793e-11
2.64239e-11
4.30939e-11
2.22386e-10
1.97427e-09
2.09852e-08
1.94314e-06
1.763e-05
2.12126e-05
1.96038e-05
3.82037e-06
1.74402e-06
1.17671e-06
1.26155e-06
1.17782e-06
7.3506e-07
7.45973e-07
4.21346e-07
1.61849e-07
5.96798e-08
1.48398e-08
1.02505e-09
2.33056e-10
1.79859e-10
1.4464e-10
1.23918e-10
7.4035e-11
9.12118e-12
-6.63302e-11
1.45096e-06
0.000101185
0.000139527
0.000139712
0.000139897
6.76319e-05
2.79862e-07
4.04375e-08
4.71724e-09
8.21204e-09
2.01201e-08
9.18777e-06
0.000139152
0.000222792
2.85756e-05
2.85037e-05
2.85123e-05
2.87299e-05
0.000309594
0.000731315
0.000353966
9.17618e-06
8.9796e-06
8.8907e-06
7.85979e-05
0.00017817
6.6116e-05
1.50261e-07
8.73126e-08
1.18451e-11
1.08529e-09
1.29134e-09
9.28771e-09
1.47145e-06
8.64366e-06
9.33065e-08
4.30246e-10
3.29969e-10
3.34406e-10
9.07926e-10
1.85686e-09
1.24311e-09
2.56644e-09
8.8819e-11
4.37754e-12
-2.61176e-13
6.41611e-12
2.56028e-12
1.96582e-12
1.74721e-12
2.17235e-12
6.79746e-12
1.63596e-11
6.82518e-11
4.99379e-10
6.06832e-09
2.16901e-07
1.2493e-05
2.12247e-05
2.12267e-05
2.12126e-05
2.02421e-05
5.28486e-06
3.33921e-06
1.35373e-06
7.23102e-07
1.61244e-07
1.60294e-07
9.0304e-08
8.78722e-08
1.1646e-07
5.24501e-08
3.03541e-09
1.08655e-10
6.53488e-11
5.19246e-11
4.29101e-11
2.95914e-11
4.87754e-12
-5.04845e-11
-8.34673e-10
4.66665e-06
4.20442e-05
4.82973e-05
1.77428e-05
8.16973e-09
4.21849e-10
-7.50395e-10
4.94784e-11
3.24995e-11
4.6699e-06
7.78616e-06
8.2875e-06
0.000214441
6.06447e-05
2.85123e-05
2.85117e-05
3.90302e-05
0.000731315
0.000731315
0.000376033
1.99137e-05
8.86683e-06
8.89539e-06
0.00012485
0.000176795
4.73186e-05
2.1668e-07
4.16893e-07
4.74116e-13
7.77393e-12
8.20756e-11
2.46019e-09
3.49372e-06
8.64073e-06
5.39442e-08
1.76687e-09
2.88314e-10
2.45737e-10
1.18186e-09
1.74116e-09
1.19482e-11
1.57618e-11
1.27166e-11
-1.35221e-12
7.85917e-13
7.42913e-13
3.29537e-13
2.90775e-13
3.19699e-13
1.37142e-12
6.30259e-12
1.42416e-11
8.43754e-11
6.58103e-10
8.26226e-09
1.14951e-06
1.83685e-05
2.12258e-05
2.12247e-05
2.11951e-05
1.38817e-05
4.92459e-06
8.39352e-06
8.81579e-06
2.5299e-06
3.63425e-08
3.21305e-08
1.81282e-08
3.1406e-08
7.18084e-08
5.27295e-08
6.95148e-09
9.69127e-11
6.16245e-11
2.88534e-11
1.70055e-11
1.0176e-11
1.5465e-12
-1.04523e-11
-1.32954e-12
2.75874e-08
3.0555e-08
1.17439e-07
2.08941e-09
2.18804e-10
5.86999e-11
1.85131e-11
2.68888e-11
3.08179e-11
7.49497e-06
1.09832e-05
1.04978e-05
0.000136089
0.000261263
3.07348e-05
2.86084e-05
2.86958e-05
0.000458058
0.000731315
0.000376033
5.09645e-05
8.89619e-06
8.87795e-06
0.000100343
0.000173502
1.46697e-05
1.95733e-07
5.47581e-07
2.56966e-13
3.68171e-13
5.19497e-12
1.39633e-10
2.41071e-09
2.86161e-07
2.42858e-06
1.54511e-07
2.26928e-10
2.07382e-10
1.23293e-10
1.84559e-11
1.16378e-11
6.1705e-13
3.45634e-13
5.16203e-14
1.56888e-13
3.69763e-14
3.47608e-14
3.81116e-14
1.48223e-13
1.13181e-12
7.79123e-12
2.7172e-11
5.66345e-11
3.16614e-10
3.38721e-09
2.13547e-07
1.14262e-05
2.12247e-05
2.11951e-05
2.11516e-05
1.61088e-05
4.2613e-06
6.88054e-06
8.91612e-06
6.9658e-06
1.1939e-08
6.42475e-09
3.72077e-09
2.62785e-09
7.96521e-09
1.47547e-08
5.64282e-09
6.75411e-10
1.07539e-10
2.89443e-11
1.0212e-11
4.06537e-12
6.81245e-13
-2.97363e-13
4.95501e-25
1.26844e-09
8.38705e-10
9.96124e-09
1.21591e-09
2.94276e-11
3.913e-12
1.41672e-11
2.3927e-11
2.90406e-11
2.46568e-06
1.12572e-05
1.11244e-05
1.9403e-05
0.000263384
0.000206274
2.86958e-05
2.90499e-05
2.94133e-05
0.000719037
0.000209052
9.59361e-05
9.73019e-06
1.71532e-05
0.000103665
7.07939e-05
2.7313e-06
6.6558e-08
2.92207e-07
6.61534e-14
4.26592e-14
-4.49894e-14
-9.63609e-12
3.90363e-11
7.32446e-07
1.42947e-06
9.00754e-10
3.17671e-10
7.66613e-10
4.74732e-10
3.2629e-11
8.64697e-13
3.87708e-13
3.56142e-14
1.12816e-14
7.21497e-15
4.42726e-15
5.72315e-15
1.88874e-14
1.19777e-13
9.01564e-13
6.07302e-12
2.84084e-11
7.64561e-11
1.23613e-10
1.25463e-09
2.83724e-08
1.22184e-07
4.978e-06
2.06679e-05
2.10456e-05
2.09598e-05
3.62419e-06
1.0781e-06
7.72531e-06
2.65425e-06
6.42475e-09
1.65826e-09
1.10435e-09
5.32394e-10
3.9666e-10
3.20366e-10
1.55269e-09
6.39038e-10
1.53363e-10
3.11019e-11
7.69007e-12
2.28123e-12
3.91083e-13
1.38911e-13
1.48821e-12
4.55359e-11
5.38003e-11
2.14353e-10
1.82481e-10
2.62608e-11
3.19321e-12
1.49638e-11
8.8028e-11
4.02955e-11
4.96338e-11
8.29962e-06
1.21024e-05
1.20334e-05
0.00012263
0.000281526
0.00024466
3.03656e-05
3.55115e-05
0.000524614
4.94681e-07
4.1349e-05
1.2739e-05
1.35397e-05
0.000101048
2.40754e-05
6.28447e-08
1.48652e-08
2.83827e-08
4.26592e-14
3.47315e-14
3.03001e-14
2.0715e-13
1.47764e-12
3.85368e-11
3.98158e-10
3.63447e-08
1.80616e-08
6.05804e-10
9.22305e-10
2.58878e-10
9.13204e-13
3.38054e-12
1.25831e-12
1.21287e-14
4.7731e-15
4.06038e-15
4.18105e-15
1.27291e-14
1.00883e-13
6.75094e-13
3.54928e-12
1.31666e-11
2.94951e-11
3.40715e-11
9.46788e-11
7.48815e-10
7.80356e-09
3.1197e-06
1.03128e-05
1.79703e-05
1.65761e-05
9.12228e-07
2.31315e-08
4.54764e-07
2.88056e-08
3.49732e-08
7.75067e-10
5.80867e-10
2.74242e-10
1.73695e-10
1.43784e-10
2.30241e-10
2.40252e-10
1.00835e-10
2.47967e-11
5.18666e-12
1.26902e-12
2.15393e-13
1.01827e-13
4.22969e-13
2.48953e-12
2.63601e-11
3.6188e-11
2.6148e-11
1.28993e-11
2.4096e-12
6.42431e-11
3.82344e-10
3.24295e-10
9.60611e-11
4.55509e-08
1.21755e-05
1.22819e-05
6.54098e-06
1.22367e-05
0.000170176
0.000170117
0.000113575
0.000341349
4.79976e-07
1.72268e-08
1.11838e-05
3.57639e-05
3.38404e-05
7.95088e-06
1.11344e-08
2.85485e-10
2.2954e-13
3.38469e-14
2.72429e-14
3.6225e-14
5.81957e-14
1.79756e-12
6.37809e-10
2.26297e-08
3.64e-08
2.90725e-08
4.88543e-10
4.72663e-10
2.3419e-10
1.30883e-12
2.68459e-12
9.7323e-13
1.4178e-14
5.81139e-15
4.06038e-15
4.07921e-15