/*--------------------------------*- C++ -*----------------------------------*\
| =========                 |                                                 |
| \\      /  F ield         | OpenFOAM: The Open Source CFD Toolbox           |
|  \\    /   O peration     | Version:  2412                                  |
|   \\  /    A nd           | Website:  www.openfoam.com                      |
|    \\/     M anipulation  |                                                 |
\*---------------------------------------------------------------------------*/
FoamFile
{
    version     2.0;
    format      ascii;
    arch        "LSB;label=32;scalar=64";
    class       surfaceScalarField;
    location    "7.2";
    object      alphaPhi0.soap;
}
// * * * * * * * * * * * * * * * * * * * * * * * * * * * * * * * * * * * * * //

dimensions      [0 3 -1 0 0 0 0];

oriented        oriented;

internalField   nonuniform List<scalar> 
12640
(
6.59416e-08
-6.59413e-08
4.51767e-06
-4.45303e-06
7.73919e-06
-3.2225e-06
1.03467e-05
-2.60823e-06
1.29484e-05
-2.6023e-06
1.56319e-05
-2.68403e-06
1.83572e-05
-2.7257e-06
2.09185e-05
-2.56165e-06
2.31105e-05
-2.19227e-06
2.47639e-05
-1.65361e-06
2.56134e-05
-8.49614e-07
2.55917e-05
2.15799e-08
2.43677e-05
1.22392e-06
2.17231e-05
2.64466e-06
1.7658e-05
4.06518e-06
1.21695e-05
5.48877e-06
5.42748e-06
6.74221e-06
-2.51976e-06
7.94743e-06
-1.14142e-05
8.89453e-06
-2.1046e-05
9.63198e-06
-3.11656e-05
1.01199e-05
-4.14177e-05
1.02524e-05
-5.15491e-05
1.01317e-05
-6.12766e-05
9.72788e-06
-7.03172e-05
9.04081e-06
-7.83868e-05
8.06979e-06
-8.51339e-05
6.7471e-06
-9.01583e-05
5.02426e-06
-9.31951e-05
3.03655e-06
-9.38275e-05
6.31905e-07
-9.18972e-05
-1.93067e-06
-8.75517e-05
-4.3457e-06
-8.08733e-05
-6.67856e-06
-7.17885e-05
-9.08519e-06
-6.02653e-05
-1.15236e-05
-4.63817e-05
-1.38841e-05
-3.03976e-05
-1.59844e-05
-1.27836e-05
-1.76143e-05
5.86291e-06
-1.86466e-05
2.48744e-05
-1.90115e-05
4.35122e-05
-1.86374e-05
6.1069e-05
-1.75565e-05
7.68237e-05
-1.57544e-05
9.02299e-05
-1.34056e-05
0.000100723
-1.04922e-05
0.000108057
-7.33364e-06
0.000112112
-4.05377e-06
0.000112999
-8.86473e-07
0.000111005
1.99373e-06
0.000106453
4.55257e-06
9.95354e-05
6.91761e-06
9.05359e-05
8.99953e-06
7.9831e-05
1.07049e-05
6.7907e-05
1.1924e-05
5.52646e-05
1.26424e-05
4.23332e-05
1.29316e-05
2.94309e-05
1.29027e-05
1.68276e-05
1.26036e-05
4.78539e-06
1.20423e-05
-6.43502e-06
1.12206e-05
-1.6605e-05
1.01705e-05
-2.55383e-05
8.93447e-06
-3.31006e-05
7.56349e-06
-3.91513e-05
6.05158e-06
-4.35296e-05
4.37864e-06
-4.61972e-05
2.66778e-06
-4.71454e-05
9.48854e-07
-4.66282e-05
-5.16861e-07
-4.48419e-05
-1.78634e-06
-4.20204e-05
-2.82116e-06
-3.83888e-05
-3.63099e-06
-3.41836e-05
-4.20371e-06
-2.9634e-05
-4.54751e-06
-2.49622e-05
-4.67055e-06
-2.0415e-05
-4.54744e-06
-1.613e-05
-4.28532e-06
-1.19649e-05
-4.16483e-06
-7.34482e-06
-4.62028e-06
-1.65587e-06
-5.68934e-06
-1.65663e-06
-1.65456e-06
1.58742e-06
1.31037e-06
-7.41971e-06
3.11723e-06
-5.03067e-06
4.75836e-06
-4.25039e-06
6.89551e-06
-4.74028e-06
9.6046e-06
-5.39387e-06
1.27836e-05
-5.90532e-06
1.62151e-05
-5.99368e-06
1.95939e-05
-5.57146e-06
2.25489e-05
-4.6089e-06
2.47234e-05
-3.02436e-06
2.57353e-05
-9.90417e-07
2.54509e-05
1.50838e-06
2.37457e-05
4.35007e-06
2.05466e-05
7.26452e-06
1.57769e-05
1.02589e-05
9.4567e-06
1.30628e-05
1.853e-06
1.55516e-05
-6.90043e-06
1.76484e-05
-1.65112e-05
1.92432e-05
-2.65772e-05
2.01863e-05
-3.67209e-05
2.03968e-05
-4.65107e-05
1.99221e-05
-5.55048e-05
1.87226e-05
-6.32638e-05
1.68002e-05
-6.94424e-05
1.42485e-05
-7.37776e-05
1.10821e-05
-7.61038e-05
7.35026e-06
-7.63003e-05
3.23281e-06
-7.47258e-05
-9.42679e-07
-7.11314e-05
-5.52515e-06
-6.54762e-05
-1.00013e-05
-5.79427e-05
-1.42124e-05
-4.85754e-05
-1.8453e-05
-3.77446e-05
-2.23548e-05
-2.58458e-05
-2.57833e-05
-1.32024e-05
-2.8628e-05
-1.6647e-07
-3.06501e-05
1.29691e-05
-3.17818e-05
2.58844e-05
-3.19266e-05
3.82502e-05
-3.10029e-05
4.98064e-05
-2.91121e-05
6.03014e-05
-2.62486e-05
6.95483e-05
-2.2652e-05
7.73087e-05
-1.82524e-05
8.34426e-05
-1.34675e-05
8.76953e-05
-8.30646e-06
8.97608e-05
-2.95184e-06
8.96171e-05
2.13752e-06
8.71376e-05
7.03203e-06
8.24956e-05
1.15596e-05
7.58956e-05
1.55996e-05
6.75559e-05
1.90449e-05
5.76891e-05
2.17912e-05
4.65935e-05
2.37386e-05
3.46385e-05
2.48871e-05
2.22556e-05
2.5286e-05
9.92259e-06
2.4937e-05
-1.90247e-06
2.38681e-05
-1.28613e-05
2.21803e-05
-2.26741e-05
1.99843e-05
-3.10322e-05
1.72935e-05
-3.77773e-05
1.43092e-05
-4.27997e-05
1.10743e-05
-4.6112e-05
7.69096e-06
-4.77737e-05
4.32937e-06
-4.79494e-05
1.12495e-06
-4.66289e-05
-1.83621e-06
-4.39672e-05
-4.44681e-06
-4.01695e-05
-6.61723e-06
-3.55348e-05
-8.26416e-06
-3.04116e-05
-9.32654e-06
-2.51552e-05
-9.80525e-06
-2.01065e-05
-9.72126e-06
-1.55251e-05
-9.12974e-06
-1.15591e-05
-8.25149e-06
-8.17322e-06
-7.55159e-06
-4.65555e-06
-8.13931e-06
-2.37647e-08
-1.03223e-05
-1.68054e-06
-1.15056e-06
2.73703e-06
2.34465e-06
-1.09163e-05
4.58264e-06
-7.26967e-06
6.51879e-06
-6.1874e-06
8.94807e-06
-7.17035e-06
1.19855e-05
-8.43206e-06
1.54506e-05
-9.37108e-06
1.91053e-05
-9.6489e-06
2.26356e-05
-9.10215e-06
2.56861e-05
-7.65981e-06
2.79473e-05
-5.28597e-06
2.89724e-05
-2.01557e-06
2.86198e-05
1.86098e-06
2.67187e-05
6.2516e-06
2.31529e-05
1.08308e-05
1.79648e-05
1.54475e-05
1.11734e-05
1.98547e-05
2.97455e-06
2.37509e-05
-6.39046e-06
2.7014e-05
-1.66402e-05
2.94936e-05
-2.74214e-05
3.09683e-05
-3.83409e-05
3.13172e-05
-4.89923e-05
3.05743e-05
-5.89756e-05
2.87067e-05
-6.78409e-05
2.56662e-05
-7.52801e-05
2.16883e-05
-8.09447e-05
1.67474e-05
-8.46314e-05
1.10377e-05
-8.62392e-05
4.84109e-06
-8.5506e-05
-1.67577e-06
-8.2366e-05
-8.66497e-06
-7.68781e-05
-1.5489e-05
-6.89217e-05
-2.21687e-05
-5.88514e-05
-2.85232e-05
-4.68971e-05
-3.4309e-05
-3.3519e-05
-3.91613e-05
-1.90816e-05
-4.30653e-05
-3.92146e-06
-4.58105e-05
1.15231e-05
-4.72266e-05
2.68229e-05
-4.72264e-05
4.1604e-05
-4.57841e-05
5.54741e-05
-4.29829e-05
6.80697e-05
-3.88455e-05
7.90057e-05
-3.35891e-05
8.80923e-05
-2.73397e-05
9.50384e-05
-2.04143e-05
9.94838e-05
-1.27524e-05
0.000101571
-5.03946e-06
0.000100757
2.95104e-06
9.73392e-05
1.045e-05
9.13913e-05
1.75077e-05
8.33713e-05
2.36197e-05
7.3613e-05
2.88033e-05
6.24097e-05
3.29945e-05
5.00742e-05
3.60742e-05
3.7097e-05
3.78647e-05
2.38524e-05
3.8531e-05
1.07531e-05
3.80362e-05
-1.77736e-06
3.63982e-05
-1.33667e-05
3.37693e-05
-2.37071e-05
3.03242e-05
-3.2647e-05
2.62329e-05
-3.99248e-05
2.15864e-05
-4.54572e-05
1.66059e-05
-4.91988e-05
1.14326e-05
-5.11812e-05
6.31353e-06
-5.14681e-05
1.41419e-06
-5.01192e-05
-3.18404e-06
-4.73101e-05
-7.25669e-06
-4.33112e-05
-1.06187e-05
-3.84798e-05
-1.30996e-05
-3.30774e-05
-1.47327e-05
-2.74561e-05
-1.54284e-05
-2.20049e-05
-1.51728e-05
-1.70337e-05
-1.41011e-05
-1.27446e-05
-1.25417e-05
-9.03939e-06
-1.12578e-05
-5.09657e-06
-1.20825e-05
-1.17313e-07
-1.53031e-05
-1.79849e-06
-1.62068e-06
4.35686e-06
1.94785e-06
-1.44859e-05
4.23585e-06
-9.55856e-06
6.00371e-06
-7.95607e-06
8.38912e-06
-9.55655e-06
1.16294e-05
-1.16731e-05
1.55961e-05
-1.33384e-05
1.99981e-05
-1.40516e-05
2.44084e-05
-1.35129e-05
2.83214e-05
-1.15733e-05
3.13038e-05
-8.26871e-06
3.2964e-05
-3.67581e-06
3.31075e-05
1.71783e-06
3.14139e-05
7.9456e-06
2.78228e-05
1.44226e-05
2.2307e-05
2.09639e-05
1.49929e-05
2.71696e-05
6.02901e-06
3.27154e-05
-4.28665e-06
3.73303e-05
-1.55893e-05
4.07969e-05
-2.7539e-05
4.29188e-05
-3.96641e-05
4.34431e-05
-5.15324e-05
4.24435e-05
-6.27137e-05
3.98887e-05
-7.28469e-05
3.58002e-05
-8.1458e-05
3.02999e-05
-8.83282e-05
2.3618e-05
-9.30219e-05
1.57317e-05
-9.53056e-05
7.12513e-06
-9.501e-05
-1.97104e-06
-9.22333e-05
-1.14413e-05
-8.68311e-05
-2.08908e-05
-7.88427e-05
-3.01568e-05
-6.8437e-05
-3.89285e-05
-5.59485e-05
-4.67971e-05
-4.1457e-05
-5.36524e-05
-2.5346e-05
-5.91759e-05
-8.07212e-06
-6.30836e-05
9.8966e-06
-6.51946e-05
2.79778e-05
-6.5307e-05
4.55792e-05
-6.3385e-05
6.20639e-05
-5.94672e-05
7.6833e-05
-5.36144e-05
8.94856e-05
-4.62418e-05
9.96383e-05
-3.7493e-05
0.00010694
-2.77162e-05
0.00011154
-1.73536e-05
0.000112964
-6.46347e-06
0.000111622
4.29216e-06
0.000107246
1.48267e-05
0.000100393
2.43601e-05
9.10803e-05
3.29321e-05
7.97783e-05
4.01054e-05
6.69704e-05
4.58033e-05
5.30578e-05
4.99881e-05
3.85695e-05
5.23544e-05
2.39641e-05
5.31375e-05
9.61505e-06
5.2386e-05
-4.01771e-06
5.00315e-05
-1.65629e-05
4.6315e-05
-2.77128e-05
4.14748e-05
-3.72059e-05
3.5727e-05
-4.489e-05
2.92725e-05
-5.06464e-05
2.23653e-05
-5.44235e-05
1.5212e-05
-5.62924e-05
8.18394e-06
-5.62051e-05
1.32756e-06
-5.42979e-05
-5.09189e-06
-5.08386e-05
-1.07167e-05
-4.61595e-05
-1.52972e-05
-4.04013e-05
-1.88559e-05
-3.40696e-05
-2.10626e-05
-2.76135e-05
-2.18831e-05
-2.1529e-05
-2.12561e-05
-1.61775e-05
-1.94522e-05
-1.17629e-05
-1.69566e-05
-8.15837e-06
-1.48625e-05
-4.33169e-06
-1.59098e-05
4.08415e-07
-2.00435e-05
-1.39061e-06
-2.40537e-06
6.76151e-06
9.48209e-07
-1.78404e-05
2.89406e-06
-1.15052e-05
4.25778e-06
-9.3205e-06
6.61756e-06
-1.1917e-05
1.02695e-05
-1.53258e-05
1.51023e-05
-1.81717e-05
2.07156e-05
-1.96653e-05
2.64807e-05
-1.92786e-05
3.17836e-05
-1.68765e-05
3.59719e-05
-1.24571e-05
3.86429e-05
-6.34673e-06
3.93764e-05
9.84715e-07
3.80855e-05
9.23708e-06
3.45142e-05
1.79945e-05
2.86917e-05
2.6787e-05
2.07239e-05
3.51378e-05
1.08196e-05
4.26202e-05
-6.58907e-07
4.88095e-05
-1.33156e-05
5.34543e-05
-2.67929e-05
5.63967e-05
-4.04834e-05
5.71342e-05
-5.39559e-05
5.59165e-05
-6.67393e-05
5.26727e-05
-7.82668e-05
4.73283e-05
-8.81258e-05
4.01593e-05
-9.5952e-05
3.14447e-05
-0.000101443
2.1223e-05
-0.000104198
9.88063e-06
-0.00010429
-1.87779e-06
-0.000101545
-1.41859e-05
-9.59189e-05
-2.65165e-05
-8.75047e-05
-3.85704e-05
-7.64756e-05
-4.99569e-05
-6.2947e-05
-6.03249e-05
-4.72376e-05
-6.93609e-05
-2.9596e-05
-7.68165e-05
-1.04918e-05
-8.21869e-05
9.54132e-06
-8.52268e-05
2.97744e-05
-8.5539e-05
4.95257e-05
-8.31354e-05
6.79671e-05
-7.79082e-05
8.45061e-05
-7.01532e-05
9.85405e-05
-6.0276e-05
0.000109705
-4.86573e-05
0.000117729
-3.57406e-05
0.000122453
-2.20776e-05
0.000123849
-7.85864e-06
0.000121927
6.21466e-06
0.000116875
1.98797e-05
0.000108797
3.24399e-05
9.82123e-05
4.35186e-05
8.54334e-05
5.28866e-05
7.09754e-05
6.0264e-05
5.54279e-05
6.5538e-05
3.92296e-05
6.85552e-05
2.29173e-05
6.94518e-05
7.042e-06
6.82632e-05
-7.9484e-06
6.5024e-05
-2.16011e-05
5.99701e-05
-3.3667e-05
5.35431e-05
-4.38427e-05
4.59043e-05
-5.19732e-05
3.74034e-05
-5.79294e-05
2.83211e-05
-6.17427e-05
1.90247e-05
-6.329e-05
9.73111e-06
-6.2647e-05
6.85367e-07
-6.00047e-05
-7.73148e-06
-5.55892e-05
-1.51276e-05
-4.97619e-05
-2.11199e-05
-4.27331e-05
-2.58821e-05
-3.49938e-05
-2.88012e-05
-2.71976e-05
-2.96786e-05
-2.0044e-05
-2.84093e-05
-1.40928e-05
-2.54038e-05
-9.62668e-06
-2.14227e-05
-6.33091e-06
-1.81578e-05
-2.92282e-06
-1.93187e-05
1.41112e-06
-2.43766e-05
2.13266e-08
-3.3504e-06
1.01113e-05
-5.85298e-07
-2.0606e-05
7.80271e-07
-1.28712e-05
1.57693e-06
-1.01176e-05
3.82797e-06
-1.41685e-05
8.04918e-06
-1.95474e-05
1.40882e-05
-2.4211e-05
2.14233e-05
-2.70007e-05
2.91038e-05
-2.69593e-05
3.6274e-05
-2.40469e-05
4.20991e-05
-1.82822e-05
4.61782e-05
-1.04257e-05
4.78101e-05
-6.46962e-07
4.69366e-05
1.01108e-05
4.34292e-05
2.15022e-05
3.71839e-05
3.30327e-05
2.83673e-05
4.39547e-05
1.72549e-05
5.37329e-05
4.22046e-06
6.18443e-05
-1.02688e-05
6.79439e-05
-2.55984e-05
7.17268e-05
-4.13637e-05
7.29e-05
-5.68851e-05
7.14383e-05
-7.16529e-05
6.7441e-05
-8.50091e-05
6.06852e-05
-9.64978e-05
5.16487e-05
-0.00010566
4.06082e-05
-0.000112036
2.75994e-05
-0.000115683
1.35284e-05
-0.000116101
-1.45965e-06
-0.00011332
-1.69661e-05
-0.000107309
-3.25271e-05
-9.81984e-05
-4.76805e-05
-8.61191e-05
-6.20355e-05
-7.12642e-05
-7.51793e-05
-5.3796e-05
-8.6829e-05
-3.42188e-05
-9.63942e-05
-1.29429e-05
-0.000103464
9.50173e-06
-0.000107672
3.22169e-05
-0.000108255
5.44394e-05
-0.000105358
7.51586e-05
-9.86274e-05
9.37018e-05
-8.86967e-05
0.000109412
-7.59864e-05
0.000121784
-6.10295e-05
0.000130715
-4.46708e-05
0.000135828
-2.71892e-05
0.000137252
-9.28083e-06
0.000134867
8.6015e-06
0.000128778
2.59702e-05
0.000119425
4.17942e-05
0.000107133
5.58118e-05
9.24557e-05
6.75648e-05
7.58666e-05
7.68545e-05
5.81115e-05
8.32944e-05
3.9694e-05
8.69735e-05
2.12345e-05
8.7912e-05
3.42486e-06
8.60735e-05
-1.32375e-05
8.16871e-05
-2.84166e-05
7.51492e-05
-4.16583e-05
6.67838e-05
-5.27073e-05
5.69516e-05
-6.13986e-05
4.60933e-05
-6.75948e-05
3.45169e-05
-7.12835e-05
2.27143e-05
-7.24254e-05
1.08754e-05
-7.11162e-05
-6.21587e-07
-6.7542e-05
-1.13049e-05
-6.20477e-05
-2.06223e-05
-5.45814e-05
-2.85876e-05
-4.57634e-05
-3.47021e-05
-3.60397e-05
-3.8526e-05
-2.63175e-05
-3.94008e-05
-1.75691e-05
-3.71579e-05
-1.07906e-05
-3.21832e-05
-6.2966e-06
-2.59176e-05
-3.5792e-06
-2.08756e-05
-7.19785e-07
-2.21788e-05
2.80993e-06
-2.79076e-05
2.83063e-06
-4.24232e-06
1.43533e-05
-2.39391e-06
-2.24545e-05
-2.06982e-06
-1.31952e-05
-2.57522e-06
-9.6123e-06
-7.07304e-07
-1.60366e-05
4.22175e-06
-2.44764e-05
1.1961e-05
-3.19503e-05
2.18197e-05
-3.68595e-05
3.2282e-05
-3.74216e-05
4.20776e-05
-3.38425e-05
5.0239e-05
-2.64438e-05
5.5968e-05
-1.61548e-05
5.88427e-05
-3.52165e-06
5.86081e-05
1.03454e-05
5.50586e-05
2.50517e-05
4.82475e-05
3.98438e-05
3.83063e-05
5.38959e-05
2.56316e-05
6.64075e-05
1.06131e-05
7.68628e-05
-6.15018e-06
8.47071e-05
-2.40398e-05
8.96164e-05
-4.24722e-05
9.13326e-05
-6.06557e-05
8.96223e-05
-7.78538e-05
8.46398e-05
-9.3609e-05
7.64413e-05
-0.000107166
6.52063e-05
-0.000118055
5.14977e-05
-0.000125777
3.53217e-05
-0.000130137
1.78892e-05
-0.000130952
-6.44284e-07
-0.000128111
-1.98065e-05
-0.000121618
-3.90198e-05
-0.000111668
-5.76304e-05
-9.84579e-05
-7.52465e-05
-8.20814e-05
-9.15571e-05
-6.26276e-05
-0.000106284
-4.05758e-05
-0.000118447
-1.64399e-05
-0.0001276
9.09954e-06
-0.000133212
3.51991e-05
-0.000134354
6.07501e-05
-0.000130909
8.44879e-05
-0.000122365
0.000105577
-0.000109785
0.000123336
-9.37454e-05
0.000137501
-7.51933e-05
0.000147482
-5.46521e-05
0.000153112
-3.28187e-05
0.000154354
-1.05218e-05
0.000151109
1.18462e-05
0.000143981
3.30973e-05
0.000132892
5.28835e-05
0.000118418
7.02848e-05
0.000101212
8.47704e-05
8.19347e-05
9.61306e-05
6.12749e-05
0.000103953
4.00608e-05
0.000108187
1.88636e-05
0.000109109
-1.404e-06
0.000106341
-2.02778e-05
0.000100561
-3.72484e-05
9.21197e-05
-5.19299e-05
8.14654e-05
-6.40273e-05
6.90501e-05
-7.33588e-05
5.54274e-05
-7.98794e-05
4.10403e-05
-8.34087e-05
2.62438e-05
-8.40265e-05
1.14906e-05
-8.18599e-05
-2.7923e-06
-7.71191e-05
-1.60493e-05
-7.00911e-05
-2.76518e-05
-6.07599e-05
-3.79187e-05
-4.95848e-05
-4.58765e-05
-3.72045e-05
-5.09056e-05
-2.45728e-05
-5.20327e-05
-1.3501e-05
-4.82308e-05
-5.69352e-06
-3.99908e-05
-1.06334e-06
-3.05477e-05
6.23985e-07
-2.25635e-05
2.23509e-06
-2.37883e-05
4.48736e-06
-3.01592e-05
7.31845e-06
-4.67412e-06
1.90274e-05
-4.28294e-06
-2.28452e-05
-5.71173e-06
-1.17661e-05
-8.67702e-06
-6.6467e-06
-7.72454e-06
-1.69888e-05
-2.12403e-06
-3.00766e-05
7.93447e-06
-4.20084e-05
2.15457e-05
-5.04707e-05
3.60753e-05
-5.19513e-05
4.95092e-05
-4.72765e-05
6.06123e-05
-3.7547e-05
6.85652e-05
-2.41077e-05
7.30623e-05
-8.01902e-06
7.35036e-05
9.90368e-06
7.00242e-05
2.85305e-05
6.2516e-05
4.73515e-05
5.11579e-05
6.52534e-05
3.64033e-05
8.11616e-05
1.88526e-05
9.44132e-05
-8.1047e-07
0.00010437
-2.18457e-05
0.000110652
-4.36669e-05
0.000113154
-6.51103e-05
0.000111066
-8.54668e-05
0.000104997
-0.000104143
9.51175e-05
-0.00012021
8.12741e-05
-0.000133024
6.43126e-05
-0.000142489
4.47869e-05
-0.000147889
2.32906e-05
-0.000149102
5.68508e-07
-0.000146343
-2.25647e-05
-0.000139564
-4.57987e-05
-0.000128774
-6.84201e-05
-0.000114047
-8.99725e-05
-9.55753e-05
-0.000110027
-7.38197e-05
-0.000128038
-4.87882e-05
-0.000143477
-2.11014e-05
-0.000155286
8.49395e-06
-0.000162806
3.87831e-05
-0.000164642
6.85253e-05
-0.00016065
9.62611e-05
-0.0001501
0.000120726
-0.000134249
0.000141226
-0.000114244
0.000157246
-9.12118e-05
0.000168315
-6.57202e-05
0.00017467
-3.91734e-05
0.000175762
-1.16129e-05
0.000171802
1.58076e-05
0.000162916
4.19827e-05
0.000149606
6.61947e-05
0.000132361
8.75304e-05
0.000111879
0.000105253
8.9104e-05
0.000118906
6.48833e-05
0.000128174
4.00601e-05
0.000133011
1.56239e-05
0.000133546
-7.71713e-06
0.000129683
-2.92565e-05
0.000122102
-4.84423e-05
0.000111308
-6.48613e-05
9.78861e-05
-7.82215e-05
8.24108e-05
-8.83285e-05
6.55335e-05
-9.50862e-05
4.7796e-05
-9.85077e-05
2.96638e-05
-9.84583e-05
1.14411e-05
-9.53692e-05
-5.8804e-06
-8.93069e-05
-2.21095e-05
-8.0273e-05
-3.66837e-05
-6.86911e-05
-4.94998e-05
-5.45965e-05
-5.99713e-05
-3.84268e-05
-6.70753e-05
-2.15664e-05
-6.88933e-05
-6.92145e-06
-6.2876e-05
2.66315e-06
-4.95755e-05
6.77464e-06
-3.46588e-05
6.20036e-06
-2.19896e-05
5.92176e-06
-2.35096e-05
6.21504e-06
-3.04517e-05
1.3534e-05
-5.46366e-06
2.44914e-05
-8.21526e-06
-2.00927e-05
-1.12099e-05
-8.77077e-06
-1.73795e-05
-4.76529e-07
-1.83179e-05
-1.60499e-05
-1.21166e-05
-3.62774e-05
1.25853e-06
-5.53832e-05
2.04923e-05
-6.97043e-05
4.0769e-05
-7.22281e-05
5.92497e-05
-6.57575e-05
7.42152e-05
-5.25129e-05
8.49521e-05
-3.48451e-05
9.12773e-05
-1.43445e-05
9.27981e-05
8.38258e-06
8.92841e-05
3.20441e-05
8.08144e-05
5.58208e-05
6.76465e-05
7.8421e-05
5.02863e-05
9.85217e-05
2.95e-05
0.000115199
6.14239e-06
0.000127728
-1.89403e-05
0.000135734
-4.47333e-05
0.000138946
-7.04055e-05
0.000136738
-9.4779e-05
0.00012937
-0.000116898
0.000117236
-0.000136322
0.000100699
-0.000151791
7.97826e-05
-0.00016297
5.59656e-05
-0.000169396
2.97177e-05
-0.000171297
2.46983e-06
-0.000168595
-2.52646e-05
-0.000161202
-5.31892e-05
-0.000149363
-8.02567e-05
-0.000133119
-0.000106214
-0.000112592
-0.000130553
-8.7782e-05
-0.000152846
-5.92351e-05
-0.000172022
-2.71888e-05
-0.00018733
7.3369e-06
-0.00019733
4.31259e-05
-0.000200429
7.83177e-05
-0.00019584
0.000110827
-0.000182607
0.000139369
-0.000162789
0.00016305
-0.000137923
0.000181231
-0.000109392
0.000194126
-7.86126e-05
0.000201001
-4.60474e-05
0.000201717
-1.23266e-05
0.000196759
2.07676e-05
0.000186003
5.27408e-05
0.000169851
8.23491e-05
0.00014919
0.000108192
0.000124715
0.00012973
9.75802e-05
0.000146041
6.88605e-05
0.000156895
3.96724e-05
0.0001622
1.11254e-05
0.000162094
-1.59712e-05
0.00015678
-4.07771e-05
0.000146908
-6.26301e-05
0.000133161
-8.10539e-05
0.000116309
-9.57834e-05
9.71404e-05
-0.000106699
7.64509e-05
-0.00011377
5.48693e-05
-0.000117004
3.29005e-05
-0.000116462
1.0903e-05
-0.000112114
-1.02262e-05
-0.000104362
-2.98618e-05
-9.32859e-05
-4.77605e-05
-7.90168e-05
-6.37697e-05
-6.13361e-05
-7.76522e-05
-4.01168e-05
-8.82946e-05
-1.67603e-05
-9.22499e-05
3.53955e-06
-8.31751e-05
1.51495e-05
-6.11856e-05
1.80979e-05
-3.76068e-05
1.3858e-05
-1.77481e-05
1.16645e-05
-2.13159e-05
8.88448e-06
-2.76709e-05
2.24184e-05
-5.47691e-06
2.99689e-05
-1.9251e-05
-6.31758e-06
-2.46745e-05
-3.34663e-06
-3.20171e-05
6.86671e-06
-3.49627e-05
-1.31036e-05
-2.78058e-05
-4.34339e-05
-9.4894e-06
-7.36995e-05
1.83284e-05
-9.75222e-05
4.70602e-05
-0.00010096
7.24015e-05
-9.10987e-05
9.22651e-05
-7.23763e-05
0.000106305
-4.88852e-05
0.000114644
-2.26831e-05
0.000117477
5.54846e-06
0.000113939
3.55819e-05
0.000104364
6.53958e-05
8.89361e-05
9.38488e-05
6.8261e-05
0.000119197
4.34811e-05
0.000139979
1.5534e-05
0.000155675
-1.45463e-05
0.000165814
-4.55006e-05
0.0001699
-7.6449e-05
0.000167686
-0.000105789
0.00015871
-0.000132428
0.000143876
-0.000155525
0.000123796
-0.000174048
9.8305e-05
-0.000187548
6.94659e-05
-0.000195432
3.76025e-05
-0.000197808
4.84725e-06
-0.000194875
-2.81963e-05
-0.000186823
-6.12412e-05
-0.000173829
-9.32511e-05
-0.000155885
-0.000124158
-0.000132948
-0.000153489
-0.000105133
-0.00018066
-7.25489e-05
-0.000204607
-3.56556e-05
-0.000224224
5.0154e-06
-0.000238001
4.86228e-05
-0.000244036
9.1464e-05
-0.00023868
0.000129797
-0.000220938
0.000162492
-0.000195483
0.000189604
-0.000165034
0.000210706
-0.000130492
0.000225218
-9.31225e-05
0.000232526
-5.33542e-05
0.000233397
-1.31962e-05
0.000227127
2.70383e-05
0.000214002
6.58662e-05
0.000194415
0.000101936
0.000169313
0.000133295
0.0001398
0.000159243
0.000107219
0.000178623
7.30208e-05
0.000191093
3.8342e-05
0.000196878
4.68119e-06
0.000195754
-2.70308e-05
0.000188492
-5.57875e-05
0.000175665
-8.0775e-05
0.000158149
-0.000101498
0.000137033
-0.000117798
0.00011344
-0.00012962
8.8273e-05
-0.000137015
6.22647e-05
-0.000139898
3.57838e-05
-0.000138418
9.42199e-06
-0.000132608
-1.60372e-05
-0.00012277
-3.97006e-05
-0.000109398
-6.11326e-05
-9.21901e-05
-8.09765e-05
-7.0002e-05
-9.98391e-05
-4.19495e-05
-0.000116346
-8.45557e-06
-0.000125743
2.02344e-05
-0.000111863
3.46421e-05
-7.55925e-05
3.57379e-05
-3.87017e-05
2.86968e-05
-1.07056e-05
2.51657e-05
-1.77831e-05
1.38836e-05
-1.6388e-05
3.6302e-05
6.86251e-06
2.3107e-05
-3.58537e-05
3.63995e-05
-5.55267e-05
1.6327e-05
-6.2019e-05
1.33596e-05
-6.54887e-05
-9.63341e-06
-5.65192e-05
-5.24031e-05
-2.98869e-05
-0.000100332
1.36585e-05
-0.000141067
5.58112e-05
-0.000143113
8.90084e-05
-0.000124296
0.000113854
-9.72217e-05
0.000130891
-6.5922e-05
0.000141048
-3.28401e-05
0.000144932
1.66467e-06
0.000142132
3.83823e-05
0.000131629
7.58983e-05
0.000114154
0.000111325
9.03397e-05
0.000143011
6.10816e-05
0.000169237
2.76149e-05
0.000189141
-8.50683e-06
0.000201936
-4.58462e-05
0.000207239
-8.31292e-05
0.000204968
-0.000118531
0.000194111
-0.000150749
0.000176094
-0.000178336
0.000151382
-0.000200695
0.000120663
-0.000216588
8.53588e-05
-0.000226021
4.7035e-05
-0.000228793
7.61796e-06
-0.000225514
-3.14763e-05
-0.000216323
-7.0433e-05
-0.00020165
-0.000107925
-0.000181843
-0.000143966
-0.000156791
-0.000178542
-0.000126718
-0.000210734
-9.13222e-05
-0.000240002
-4.9823e-05
-0.000265722
-9.23756e-07
-0.000286899
5.50375e-05
-0.000299996
0.000109983
-0.000293624
0.000156184
-0.000267139
0.000193032
-0.00023233
0.000222492
-0.000194494
0.000245538
-0.000153538
0.00026154
-0.000109125
0.00027053
-6.23443e-05
0.000271079
-1.37449e-05
0.0002633
3.4817e-05
0.000247024
8.21427e-05
0.00022357
0.00012539
0.000193138
0.000163727
0.000157179
0.000195203
0.000117826
0.000217976
7.67335e-05
0.000232186
3.53402e-05
0.000238272
-4.50524e-06
0.0002356
-4.18013e-05
0.000225788
-7.52908e-05
0.000209154
-0.00010392
0.000186777
-0.000127082
0.000160194
-0.000144574
0.000130932
-0.000156529
0.000100226
-0.000163103
6.88363e-05
-0.000164974
3.76529e-05
-0.000161981
6.42769e-06
-0.000153569
-2.44483e-05
-0.00014149
-5.17792e-05
-0.000126143
-7.64792e-05
-0.000107633
-9.94867e-05
-8.37433e-05
-0.000123728
-4.75737e-05
-0.000152515
7.30312e-06
-0.000180619
5.50757e-05
-0.000159636
7.2147e-05
-9.26626e-05
6.92091e-05
-3.57619e-05
6.18795e-05
-3.37576e-06
5.10021e-05
-6.90462e-06
1.6835e-05
1.77796e-05
5.31379e-05
2.42425e-05
-1.14058e-06
-2.45612e-05
8.51168e-05
-9.81182e-05
8.98845e-05
-0.000118002
3.32445e-05
-0.000121841
-5.79404e-06
-0.000112937
-6.13072e-05
-7.03942e-05
-0.000142874
4.72526e-06
-0.000216186
7.15858e-05
-0.000209972
0.00011284
-0.00016555
0.00013841
-0.000122791
0.000155785
-8.32961e-05
0.000167523
-4.45778e-05
0.000173152
-3.96422e-06
0.000170675
4.08595e-05
0.000159353
8.72204e-05
0.00013921
0.000131468
0.00011192
0.0001703
7.80142e-05
0.000203143
3.84491e-05
0.000228706
-4.64035e-06
0.000245025
-4.91784e-05
0.000251777
-9.30381e-05
0.000248827
-0.000135223
0.000236295
-0.000173619
0.00021449
-0.000207054
0.000184816
-0.00023384
0.000147449
-0.000252762
0.000104279
-0.00026327
5.75432e-05
-0.000265432
9.77954e-06
-0.000260699
-3.62088e-05
-0.000250367
-8.07642e-05
-0.000234523
-0.000123768
-0.000213379
-0.000165108
-0.000187501
-0.000204418
-0.000156703
-0.00024153
-0.000119264
-0.00027744
-7.12601e-05
-0.000313726
-1.00607e-05
-0.000348099
6.19471e-05
-0.000372005
0.000132756
-0.000364434
0.000191002
-0.000325386
0.000234024
-0.000275353
0.000265177
-0.000225647
0.000288392
-0.000176753
0.000305391
-0.000126125
0.000314878
-7.18305e-05
0.000315502
-1.43687e-05
0.000306136
4.4183e-05
0.000287605
0.000100675
0.000259175
0.000153821
0.000222109
0.000200794
0.00017848
0.000238832
0.00013044
0.000266017
8.0767e-05
0.00028186
3.19126e-05
0.000287127
-1.47919e-05
0.000282305
-5.80237e-05
0.000269019
-9.66717e-05
0.000247802
-0.00012926
0.000219366
-0.000154435
0.000185369
-0.000171902
0.000148397
-0.000182625
0.000110949
-0.000187734
7.3946e-05
-0.000188717
3.86379e-05
-0.00018437
2.08249e-06
-0.000174225
-3.45922e-05
-0.000160279
-6.57249e-05
-0.000146775
-8.99826e-05
-0.000135318
-0.000110943
-0.000119782
-0.000139264
-7.63591e-05
-0.000195936
1.64517e-05
-0.000273419
0.000111806
-0.000254984
0.000143488
-0.000124344
0.000131049
-2.33218e-05
0.000114704
1.29709e-05
7.45099e-05
3.32905e-05
1.04381e-05
8.18522e-05
6.35762e-05
3.46991e-05
-3.58554e-05
4.70194e-05
7.25353e-05
-7.13551e-05
0.00020762
-0.00017349
0.00013538
-0.000196885
1.76012e-05
-0.000195133
-6.30578e-05
-0.000136165
-0.000201842
-2.00364e-05
-0.000332315
9.29089e-05
-0.000322917
0.000158105
-0.000230745
0.000186993
-0.000151679
0.000204234
-0.000100536
0.000219408
-5.9752e-05
0.000228779
-1.3335e-05
0.000223571
4.60672e-05
0.000203828
0.000106964
0.000173322
0.000161973
0.000135895
0.000207727
9.32876e-05
0.00024575
4.56815e-05
0.000276312
-6.29933e-06
0.000297005
-5.9624e-05
0.000305101
-0.000111734
0.000300937
-0.000161444
0.000286005
-0.000206978
0.000260024
-0.000247151
0.000224989
-0.000279486
0.000179785
-0.000301656
0.000126449
-0.0003117
6.75874e-05
-0.000312325
1.04054e-05
-0.000305229
-4.33027e-05
-0.000291635
-9.43575e-05
-0.000273425
-0.000141977
-0.000251646
-0.000186887
-0.000226204
-0.000229859
-0.000193863
-0.000273872
-0.000149795
-0.000321508
-8.88322e-05
-0.000374688
-1.21414e-05
-0.00042479
7.23383e-05
-0.000456484
0.000155118
-0.000447213
0.000226504
-0.000396771
0.000280537
-0.000329386
0.000317393
-0.000262502
0.000341909
-0.000201268
0.000358164
-0.000142379
0.000367324
-8.09898e-05
0.000367857
-1.49009e-05
0.000359257
5.27839e-05
0.000338903
0.00012103
0.000306362
0.000186362
0.000262111
0.000245045
0.000208929
0.000292014
0.000150134
0.000324813
9.00892e-05
0.000341904
3.2364e-05
0.000344852
-2.16446e-05
0.000336313
-7.14014e-05
0.000318777
-0.000115843
0.000292246
-0.000152882
0.000256406
-0.000180514
0.000213003
-0.000199268
0.000167154
-0.000212386
0.000124069
-0.000223583
8.5145e-05
-0.000232574
4.76295e-05
-0.000234979
4.48853e-06
-0.000226672
-4.28997e-05
-0.000210621
-8.1776e-05
-0.000195969
-0.000104635
-0.000186253
-0.000120659
-0.000165138
-0.000160379
-0.000100738
-0.000260338
1.73827e-05
-0.00039153
0.000156063
-0.000393598
0.000224757
-0.000193001
0.0002103
-8.8645e-06
0.000150129
7.31416e-05
3.70965e-05
0.000146197
-1.43325e-05
0.0001326
4.91222e-05
0.000147056
-0.000182922
0.000235457
-1.60214e-05
0.000121496
0.000320814
-0.000107751
0.000364029
-0.00023026
0.000140111
-0.000269296
-2.40216e-05
-0.000229577
-0.00024156
-0.000105407
-0.000456484
5.83788e-05
-0.000486703
0.000192136
-0.000364502
0.000269016
-0.000228559
0.000314392
-0.000145913
0.000346932
-9.22916e-05
0.000361943
-2.83454e-05
0.00035052
5.74895e-05
0.000310842
0.000146642
0.000254306
0.000218509
0.000192788
0.000269245
0.000131479
0.000307059
6.96632e-05
0.000338127
5.04549e-06
0.000361622
-6.17597e-05
0.000371906
-0.000128145
0.000367322
-0.000190479
0.000348339
-0.000247569
0.000317114
-0.000296005
0.000273425
-0.000333627
0.000217407
-0.00035657
0.000149393
-0.000366456
7.74732e-05
-0.000364705
8.65413e-06
-0.000355367
-5.26418e-05
-0.000340166
-0.00010956
-0.000320579
-0.000161565
-0.00029722
-0.000210247
-0.00026739
-0.00025969
-0.00022519
-0.000316072
-0.000163538
-0.000383161
-8.46506e-05
-0.000453575
2.40045e-06
-0.00051184
8.89951e-05
-0.000543078
0.000171749
-0.000529966
0.000248789
-0.000473809
0.000314064
-0.00039466
0.000363011
-0.000311448
0.000396561
-0.000234817
0.000418284
-0.000164101
0.000430153
-9.28578e-05
0.000433042
-1.77892e-05
0.000424858
6.09683e-05
0.000403182
0.000142706
0.000365091
0.000224453
0.000310294
0.000299841
0.0002422
0.000360107
0.000168199
0.000398812
9.45363e-05
0.000415567
2.42545e-05
0.000415135
-4.17613e-05
0.00040233
-0.000102344
0.00037936
-0.000155056
0.000344958
-0.00019765
0.000299
-0.000230656
0.000246011
-0.000258333
0.000194832
-0.000287043
0.00015278
-0.000318763
0.000116865
-0.000345624
7.44909e-05
-0.000356655
1.55193e-05
-0.000345973
-5.35808e-05
-0.000311762
-0.000115987
-0.000257841
-0.000158556
-0.00018935
-0.000189151
-9.84994e-05
-0.000251229
1.43386e-05
-0.000373175
0.000116114
-0.000493331
0.000213953
-0.000491492
0.000271381
-0.000250372
0.000223186
3.9333e-05
5.46703e-05
0.000241595
-0.000115923
0.000316377
-9.25414e-05
0.000109343
-4.3525e-05
0.000259064
-0.000441627
0.00042258
-0.000179129
0.000329108
0.000413965
7.64297e-05
0.000616515
-0.000161451
0.000378016
-0.000289879
0.000104406
-0.000317944
-0.000213492
-0.000234132
-0.000540297
-6.33206e-05
-0.000657514
0.000121886
-0.000549708
0.000279189
-0.000385861
0.000399425
-0.000266149
0.000481957
-0.000174823
0.000519572
-6.59606e-05
0.000514933
6.2129e-05
0.000465607
0.000195969
0.000390223
0.000293893
0.000306346
0.000353122
0.000225156
0.000388249
0.000147259
0.000416024
6.77335e-05
0.000441148
-1.71555e-05
0.000456795
-0.000104989
0.000455156
-0.000189707
0.000433057
-0.000265003
0.00039241
-0.000325805
0.000334228
-0.000366822
0.000258423
-0.000387143
0.000169713
-0.000390273
8.06019e-05
-0.000386202
4.58201e-06
-0.000381447
-5.73975e-05
-0.000373329
-0.000117679
-0.000358565
-0.000176329
-0.00033381
-0.000235002
-0.000294113
-0.000299386
-0.000234504
-0.00037568
-0.000156037
-0.000461627
-6.70648e-05
-0.000542545
2.27278e-05
-0.000601631
0.000107906
-0.000628255
0.000183184
-0.000605242
0.000252859
-0.000543483
0.000319241
-0.00046104
0.000379024
-0.000371229
0.000428785
-0.000284576
0.000467647
-0.000202961
0.000492721
-0.000117931
0.000503183
-2.82505e-05
0.000494701
6.94503e-05
0.000463963
0.000173444
0.00040849
0.000279926
0.000330651
0.00037768
0.000239615
0.000451143
0.000145416
0.000493011
5.25179e-05
0.000508465
-3.81025e-05
0.000505755
-0.000125166
0.000489392
-0.000203338
0.000457532
-0.000267184