/*--------------------------------*- C++ -*----------------------------------*\
| =========                 |                                                 |
| \\      /  F ield         | OpenFOAM: The Open Source CFD Toolbox           |
|  \\    /   O peration     | Version:  2412                                  |
|   \\  /    A nd           | Website:  www.openfoam.com                      |
|    \\/     M anipulation  |                                                 |
\*---------------------------------------------------------------------------*/
FoamFile
{
    version     2.0;
    format      ascii;
    arch        "LSB;label=32;scalar=64";
    class       volVectorField;
    location    "7.05";
    object      U;
}
// * * * * * * * * * * * * * * * * * * * * * * * * * * * * * * * * * * * * * //

dimensions      [0 1 -1 0 0 0 0];

internalField   nonuniform List<vector> 
6400
(
(-0.000618572 0.000128222 0)
(-0.000288244 -0.000334041 0)
(0.000244075 -0.000239967 0)
(0.000301189 -0.000165803 0)
(0.000562654 -0.000174501 0)
(0.000877985 -0.000202526 0)
(0.00133993 -0.000241343 0)
(0.00190084 -0.000274731 0)
(0.00257061 -0.000296204 0)
(0.00333466 -0.000319758 0)
(0.00413511 -0.000325081 0)
(0.00494379 -0.000330552 0)
(0.00571588 -0.000312137 0)
(0.00642126 -0.000251251 0)
(0.00700668 -0.000194059 0)
(0.00743626 -0.00012534 0)
(0.00772899 -5.82554e-05 0)
(0.00787447 1.62945e-05 0)
(0.00786819 8.70722e-05 0)
(0.00771374 0.000158633 0)
(0.00741848 0.000230863 0)
(0.00699309 0.000305817 0)
(0.00643798 0.000384059 0)
(0.00576473 0.000469444 0)
(0.00499244 0.000561573 0)
(0.00412647 0.000640669 0)
(0.00320525 0.000684589 0)
(0.00227757 0.000672617 0)
(0.0014109 0.000608955 0)
(0.000642203 0.000500959 0)
(1.14343e-05 0.000379563 0)
(-0.000453946 0.000274194 0)
(-0.000783946 0.000171535 0)
(-0.000942813 2.57926e-05 0)
(-0.000889141 -0.000183629 0)
(-0.000606393 -0.000413651 0)
(-8.59752e-05 -0.000655397 0)
(0.000631219 -0.000851598 0)
(0.00150354 -0.000990627 0)
(0.00245371 -0.00105419 0)
(0.00338824 -0.00103538 0)
(0.00419918 -0.000926169 0)
(0.00480802 -0.000727533 0)
(0.00512625 -0.000461598 0)
(0.00509279 -0.000162248 0)
(0.00470691 0.000164967 0)
(0.00394926 0.000457237 0)
(0.00285943 0.000679343 0)
(0.0015326 0.000817934 0)
(4.545e-05 0.000906412 0)
(-0.00155429 0.000976177 0)
(-0.00321911 0.0010356 0)
(-0.00490893 0.00105146 0)
(-0.00655049 0.00100765 0)
(-0.0080488 0.000893856 0)
(-0.00935306 0.000741347 0)
(-0.0104233 0.000583616 0)
(-0.0112599 0.000438682 0)
(-0.0118586 0.000306358 0)
(-0.0122307 0.000183289 0)
(-0.012388 7.51715e-05 0)
(-0.0123116 -2.42309e-05 0)
(-0.0120207 -0.000123839 0)
(-0.0115372 -0.000214924 0)
(-0.0108713 -0.000308344 0)
(-0.0100444 -0.000393193 0)
(-0.00906336 -0.000472959 0)
(-0.00796076 -0.000527851 0)
(-0.00679625 -0.000541925 0)
(-0.00561678 -0.000529593 0)
(-0.00446997 -0.000504374 0)
(-0.00338756 -0.000468148 0)
(-0.0024067 -0.000416085 0)
(-0.00159106 -0.000355141 0)
(-0.000962733 -0.000278068 0)
(-0.000522902 -0.000213406 0)
(-0.000208083 -0.00016657 0)
(-0.000137624 -0.00019742 0)
(0.000340197 -0.000279004 0)
(0.000589689 0.000159801 0)
(-0.000838981 0.000834634 0)
(-0.000759207 -0.00057388 0)
(-0.000573544 -0.000280909 0)
(-0.000767949 -0.00020313 0)
(-0.000672333 -0.000361129 0)
(-0.000425991 -0.000577685 0)
(5.55411e-05 -0.000804329 0)
(0.000730044 -0.00099767 0)
(0.00158007 -0.0011467 0)
(0.00258338 -0.00125001 0)
(0.00363253 -0.00129478 0)
(0.00465842 -0.00126727 0)
(0.00563805 -0.00118317 0)
(0.00653611 -0.00103196 0)
(0.00731631 -0.000856918 0)
(0.00794052 -0.00063665 0)
(0.00840066 -0.000401637 0)
(0.00867141 -0.000162081 0)
(0.00874695 8.03709e-05 0)
(0.00865645 0.000309118 0)
(0.00841387 0.000520215 0)
(0.00804795 0.000716288 0)
(0.00757975 0.000874651 0)
(0.00704883 0.00100882 0)
(0.00650549 0.00110757 0)
(0.00598947 0.00116827 0)
(0.00552905 0.00117217 0)
(0.00513552 0.00112375 0)
(0.00481168 0.00102264 0)
(0.00453674 0.000864617 0)
(0.00429815 0.00067951 0)
(0.00411001 0.00048895 0)
(0.00399222 0.00030173 0)
(0.00395518 9.72824e-05 0)
(0.0039478 -0.000145578 0)
(0.00392019 -0.00037846 0)
(0.00384893 -0.000597533 0)
(0.00372368 -0.00074817 0)
(0.00350912 -0.000825105 0)
(0.00321407 -0.00082313 0)
(0.00282472 -0.000713418 0)
(0.00233457 -0.000496382 0)
(0.00175697 -0.000192491 0)
(0.00107625 0.000191038 0)
(0.000327133 0.000599057 0)
(-0.000481923 0.00102757 0)
(-0.00135953 0.00142162 0)
(-0.00230805 0.00175038 0)
(-0.00335367 0.00199386 0)
(-0.00447951 0.00216546 0)
(-0.00565222 0.00227486 0)
(-0.0068352 0.00232034 0)
(-0.00800897 0.00227867 0)
(-0.00914102 0.00215977 0)
(-0.0102113 0.00194972 0)
(-0.0112006 0.00167611 0)
(-0.0120651 0.00136153 0)
(-0.0127667 0.00102961 0)
(-0.0132721 0.000684775 0)
(-0.0135547 0.0003366 0)
(-0.0136003 -7.31152e-06 0)
(-0.0133905 -0.00034434 0)
(-0.0129274 -0.000675072 0)
(-0.0122412 -0.000974284 0)
(-0.0113452 -0.00124108 0)
(-0.0102805 -0.00147049 0)
(-0.00909456 -0.00164942 0)
(-0.00782295 -0.00177388 0)
(-0.00650026 -0.00182868 0)
(-0.00513986 -0.00181454 0)
(-0.0037907 -0.00174173 0)
(-0.00252332 -0.00158937 0)
(-0.00142032 -0.00137403 0)
(-0.000524355 -0.00110357 0)
(0.000129249 -0.000805773 0)
(0.00050761 -0.000507593 0)
(0.000681327 -0.00026186 0)
(0.000546497 -0.000259636 0)
(0.000777694 -0.000506423 0)
(0.000818855 0.000854569 0)
(-0.000820306 0.00168745 0)
(-0.000673976 -0.000708516 0)
(-0.000411414 -0.000210233 0)
(-0.000590895 -0.000155466 0)
(-0.00048888 -0.000502964 0)
(-0.000227987 -0.000955161 0)
(0.000281716 -0.00140802 0)
(0.000983158 -0.00180819 0)
(0.00184554 -0.00211259 0)
(0.00283796 -0.00229102 0)
(0.00388961 -0.00237198 0)
(0.00493939 -0.00231553 0)
(0.00592336 -0.00214475 0)
(0.00680569 -0.00189415 0)
(0.00756091 -0.00157676 0)
(0.00815564 -0.00119171 0)
(0.0085763 -0.000764006 0)
(0.00881678 -0.000349669 0)
(0.0088692 8.19326e-05 0)
(0.00874455 0.000481977 0)
(0.00846593 0.000842559 0)
(0.00804556 0.00115466 0)
(0.00750855 0.00140021 0)
(0.00688926 0.00157392 0)
(0.00621894 0.00166642 0)
(0.00553137 0.00168059 0)
(0.00486572 0.0016205 0)
(0.00424733 0.00150405 0)
(0.00368817 0.00133654 0)
(0.00320404 0.00112545 0)
(0.00281239 0.000884211 0)
(0.00254161 0.000611678 0)
(0.00240837 0.000318478 0)
(0.00240858 3.75817e-05 0)
(0.00251473 -0.000215521 0)
(0.00266834 -0.000419988 0)
(0.00284361 -0.000553199 0)
(0.00302717 -0.000614766 0)
(0.00315814 -0.000587496 0)
(0.00323044 -0.000476195 0)
(0.00322345 -0.000256234 0)
(0.00309231 5.42695e-05 0)
(0.00285225 0.000437147 0)
(0.00245819 0.00086896 0)
(0.00191273 0.00133739 0)
(0.00123793 0.001803 0)
(0.000409062 0.00228156 0)
(-0.000573507 0.00270874 0)
(-0.00171842 0.00306868 0)
(-0.00301769 0.0033474 0)
(-0.00442378 0.00350232 0)
(-0.00587461 0.00354116 0)
(-0.0073062 0.00346893 0)
(-0.00867734 0.00329083 0)
(-0.0099506 0.00300742 0)
(-0.0110926 0.00262882 0)
(-0.0120643 0.00216732 0)
(-0.0128382 0.00164342 0)
(-0.0133862 0.0010822 0)
(-0.0136881 0.000492922 0)
(-0.0137394 -0.000109947 0)
(-0.0135369 -0.000706637 0)
(-0.0130952 -0.0012785 0)
(-0.0124359 -0.00179785 0)
(-0.0115783 -0.0022452 0)
(-0.0105427 -0.0026218 0)
(-0.00936454 -0.00290939 0)
(-0.008083 -0.00311003 0)
(-0.00672504 -0.00320859 0)
(-0.00533137 -0.00319645 0)
(-0.0039517 -0.00307722 0)
(-0.00265764 -0.00280114 0)
(-0.00151943 -0.00241144 0)
(-0.000579904 -0.00190651 0)
(0.000108861 -0.00134789 0)
(0.000504437 -0.000763658 0)
(0.000675719 -0.00028493 0)
(0.000551008 -0.00025353 0)
(0.000800835 -0.000635 0)
(0.000830445 0.00173217 0)
(-0.000942833 0.0024504 0)
(-0.000862874 -0.000954862 0)
(-0.000626665 -0.00023596 0)
(-0.000902384 -0.000143018 0)
(-0.000879324 -0.00066183 0)
(-0.000659317 -0.00135178 0)
(-0.000143752 -0.00203169 0)
(0.000625738 -0.00262753 0)
(0.00161309 -0.00306669 0)
(0.002733 -0.00333265 0)
(0.0039064 -0.00342195 0)
(0.00510133 -0.00334168 0)
(0.00621461 -0.00310309 0)
(0.00718699 -0.00272216 0)
(0.00800667 -0.00224217 0)
(0.00864879 -0.0016825 0)
(0.00907485 -0.00107999 0)
(0.00929748 -0.000461932 0)
(0.00932019 0.000148867 0)
(0.00913416 0.00072755 0)
(0.00877813 0.00125326 0)
(0.00827356 0.00170046 0)
(0.00764085 0.00206681 0)
(0.00691111 0.00232845 0)
(0.0061179 0.00248763 0)
(0.00529283 0.00252968 0)
(0.00447406 0.00246828 0)
(0.00368993 0.002297 0)
(0.00298232 0.00203441 0)
(0.00238225 0.00170353 0)
(0.00190234 0.00132007 0)
(0.00155737 0.000891148 0)
(0.0013603 0.000432212 0)
(0.00130807 -2.64717e-06 0)
(0.00139432 -0.000386964 0)
(0.00161258 -0.000714932 0)
(0.00193861 -0.000941697 0)
(0.00235498 -0.00105456 0)
(0.00281635 -0.0010353 0)
(0.00326515 -0.000871107 0)
(0.00365375 -0.000550902 0)
(0.0039094 -9.27052e-05 0)
(0.00398069 0.000481472 0)
(0.00381694 0.00113125 0)
(0.00340264 0.00183592 0)
(0.00275397 0.00254758 0)
(0.00183839 0.00324611 0)
(0.000676412 0.0038965 0)
(-0.000639392 0.00444383 0)
(-0.00212039 0.0048727 0)
(-0.00372871 0.00512876 0)
(-0.00538463 0.00521195 0)
(-0.00704482 0.00511393 0)
(-0.00864929 0.00483488 0)
(-0.010124 0.00440275 0)
(-0.0114289 0.00382619 0)
(-0.0125315 0.00314268 0)
(-0.0133994 0.0023772 0)
(-0.0140102 0.00155866 0)
(-0.0143492 0.000700719 0)
(-0.0144074 -0.000168021 0)
(-0.0141951 -0.00102071 0)
(-0.01373 -0.00182668 0)
(-0.0130281 -0.00255598 0)
(-0.012107 -0.00320005 0)
(-0.0109915 -0.0037459 0)
(-0.00971583 -0.00417588 0)
(-0.0083095 -0.00446934 0)
(-0.00680919 -0.00461933 0)
(-0.00527704 -0.00461688 0)
(-0.00374746 -0.00443523 0)
(-0.00231244 -0.00405319 0)
(-0.0010504 -0.00349318 0)
(-9.45051e-06 -0.00275651 0)
(0.000715983 -0.00190556 0)
(0.00108039 -0.00101929 0)
(0.0011576 -0.00031671 0)
(0.000914888 -0.000271925 0)
(0.00108496 -0.000782271 0)
(0.000975202 0.00262031 0)
(-0.00113588 0.00348937 0)
(-0.00118197 -0.00106148 0)
(-0.00104558 -0.000110508 0)
(-0.00148622 3.29843e-05 0)
(-0.0016009 -0.00071429 0)
(-0.00143736 -0.00173349 0)
(-0.000875065 -0.00272856 0)
(3.48457e-05 -0.00358761 0)
(0.00120766 -0.00421488 0)
(0.00254108 -0.00459729 0)
(0.003939 -0.00469772 0)
(0.00532147 -0.00457321 0)
(0.00660776 -0.0042232 0)
(0.00773084 -0.00369935 0)
(0.00865091 -0.00302189 0)
(0.00935278 -0.00224412 0)
(0.00982248 -0.00142402 0)
(0.0100497 -0.000568787 0)
(0.0100397 0.000243497 0)
(0.00980869 0.00102168 0)
(0.00937427 0.00172429 0)
(0.00877266 0.00232501 0)
(0.00802859 0.00280484 0)
(0.00717443 0.00315144 0)
(0.00625313 0.00335468 0)
(0.0053049 0.0033997 0)
(0.00437147 0.00330016 0)
(0.00348177 0.00306596 0)
(0.00268797 0.00272227 0)
(0.00202128 0.00227537 0)
(0.00148708 0.00174817 0)
(0.00109793 0.0011723 0)
(0.000883664 0.000574944 0)
(0.000839153 -1.43606e-05 0)
(0.000943878 -0.000554935 0)
(0.00121305 -0.00102135 0)
(0.00164787 -0.00137231 0)
(0.00221144 -0.00156485 0)
(0.0028523 -0.00159185 0)
(0.00350235 -0.00140203 0)
(0.00410409 -0.000984466 0)
(0.00454557 -0.000333321 0)
(0.00476361 0.000469964 0)
(0.00469497 0.00139714 0)
(0.00431411 0.00238237 0)
(0.00362762 0.00339125 0)
(0.0026401 0.00432086 0)
(0.00136894 0.00521055 0)
(-0.000115238 0.0059507 0)
(-0.00177623 0.0065107 0)
(-0.00357285 0.0068612 0)
(-0.00543246 0.00697153 0)
(-0.00729289 0.00682537 0)
(-0.00907223 0.00646699 0)
(-0.0107204 0.00587631 0)
(-0.0121865 0.0051062 0)
(-0.0134146 0.00418295 0)
(-0.0143761 0.00315353 0)
(-0.015043 0.00204616 0)
(-0.015396 0.000892399 0)
(-0.0154395 -0.000269754 0)
(-0.0151892 -0.00140232 0)
(-0.014656 -0.0024677 0)
(-0.0138653 -0.00343495 0)
(-0.012842 -0.00429392 0)
(-0.0116026 -0.00503149 0)
(-0.0101774 -0.00560416 0)
(-0.00860807 -0.00600702 0)
(-0.00693051 -0.00622754 0)
(-0.00518904 -0.00624644 0)
(-0.00343963 -0.00600127 0)
(-0.00178321 -0.00551755 0)
(-0.000301641 -0.00474141 0)
(0.000903506 -0.00369562 0)
(0.00169544 -0.00246175 0)
(0.00202256 -0.00117799 0)
(0.00196547 -0.000163819 0)
(0.00150937 -8.02598e-05 0)
(0.00150185 -0.000741606 0)
(0.00119552 0.00383335 0)
(-0.00137751 0.00481596 0)
(-0.00158974 -0.00102686 0)
(-0.00161469 0.000162727 0)
(-0.00229236 0.000386837 0)
(-0.00262751 -0.000668582 0)
(-0.00254397 -0.00212136 0)
(-0.00191439 -0.00353374 0)
(-0.000804596 -0.00474876 0)
(0.000658059 -0.00561524 0)
(0.0023086 -0.00610697 0)
(0.00399628 -0.00622203 0)
(0.00564835 -0.00599997 0)
(0.00716276 -0.00550724 0)
(0.00846225 -0.00479338 0)
(0.00952053 -0.00389536 0)
(0.0103033 -0.00287024 0)
(0.0108224 -0.0017773 0)
(0.0110477 -0.000685308 0)
(0.0109999 0.000381833 0)
(0.0107072 0.00140036 0)
(0.0101752 0.00230759 0)
(0.00945062 0.00308388 0)
(0.00856892 0.00370099 0)
(0.00756599 0.00414237 0)
(0.00647684 0.00439488 0)
(0.00535904 0.00444294 0)
(0.00426649 0.00431184 0)
(0.00323914 0.00399801 0)
(0.00233038 0.00353752 0)
(0.00156562 0.00294155 0)
(0.000966399 0.00223732 0)
(0.000553122 0.00148236 0)
(0.000337093 0.000699406 0)
(0.0003204 -7.36152e-05 0)
(0.000501465 -0.000808016 0)
(0.00088066 -0.00145388 0)
(0.00145034 -0.0019533 0)
(0.00216803 -0.00226658 0)
(0.00299391 -0.00235867 0)
(0.00385792 -0.00213537 0)
(0.00468123 -0.00161765 0)
(0.00530673 -0.000759881 0)
(0.00564584 0.000326975 0)
(0.00566603 0.00156671 0)
(0.00534371 0.00290619 0)
(0.00462962 0.00423172 0)
(0.00356122 0.00549823 0)
(0.00216697 0.00665342 0)
(0.00048824 0.00763906 0)
(-0.00138448 0.00837828 0)
(-0.00341957 0.00884106 0)
(-0.00554188 0.0089948 0)
(-0.00764915 0.00882392 0)
(-0.00969041 0.00834098 0)
(-0.011582 0.00756983 0)
(-0.013238 0.00657023 0)
(-0.0146221 0.00536777 0)
(-0.0156856 0.00402107 0)
(-0.0164103 0.00257827 0)
(-0.0167775 0.00108853 0)
(-0.0167956 -0.000404829 0)
(-0.0164848 -0.00184147 0)
(-0.0158594 -0.00319394 0)
(-0.0149487 -0.00443143 0)
(-0.0137916 -0.0055242 0)
(-0.0123931 -0.00645405 0)
(-0.0107871 -0.00720132 0)
(-0.00902016 -0.00774266 0)
(-0.00711271 -0.00805029 0)
(-0.00510101 -0.00809362 0)
(-0.00306866 -0.0078342 0)
(-0.00109952 -0.00724352 0)
(0.000716267 -0.00622547 0)
(0.00217776 -0.00478241 0)
(0.00308957 -0.00304263 0)
(0.00336209 -0.00124167 0)
(0.00307165 0.000173276 0)
(0.00231444 0.000326066 0)
(0.00206846 -0.000476668 0)
(0.00149468 0.00542115 0)
(-0.00163811 0.00646542 0)
(-0.00201416 -0.000742802 0)
(-0.00233462 0.000640165 0)
(-0.00338609 0.00103505 0)
(-0.00407986 -0.000453133 0)
(-0.00411437 -0.00247963 0)
(-0.00338633 -0.00448326 0)
(-0.00197363 -0.00620401 0)
(-7.34841e-05 -0.00738419 0)
(0.00202757 -0.0079878 0)
(0.0041448 -0.00807949 0)
(0.00612836 -0.00770249 0)
(0.00790743 -0.00702864 0)
(0.0094379 -0.00605454 0)
(0.0106505 -0.00487968 0)
(0.0115394 -0.00356007 0)
(0.0120953 -0.00216678 0)
(0.0123156 -0.000785188 0)
(0.0122383 0.000573096 0)
(0.0118554 0.00185801 0)
(0.0111948 0.00300773 0)
(0.0103158 0.00398933 0)
(0.00924518 0.00476389 0)
(0.00803372 0.00531234 0)
(0.00672307 0.00562026 0)
(0.0053941 0.00568047 0)
(0.00410183 0.0054911 0)
(0.0028887 0.00507889 0)
(0.00183415 0.0044602 0)
(0.000957537 0.00368396 0)
(0.000285548 0.00278818 0)
(-0.000171731 0.00181099 0)
(-0.000398658 0.000799465 0)
(-0.000384399 -0.000198124 0)
(-0.000132737 -0.00115326 0)
(0.000375308 -0.00201237 0)
(0.00111228 -0.00271029 0)
(0.00204138 -0.00318661 0)
(0.00314991 -0.00335993 0)
(0.00430819 -0.003122 0)
(0.00540958 -0.00247729 0)
(0.00631897 -0.00135998 0)
(0.00685714 6.00059e-05 0)
(0.00700334 0.00169399 0)
(0.00671531 0.00342358 0)
(0.00596664 0.0051373 0)
(0.00480113 0.00680034 0)
(0.00323007 0.0082753 0)
(0.00131676 0.00955553 0)
(-0.000853552 0.0105231 0)
(-0.00320205 0.0111162 0)
(-0.00565465 0.0113132 0)
(-0.00812194 0.0111067 0)
(-0.0104938 0.0104908 0)
(-0.0126643 0.00951005 0)
(-0.0145703 0.00822468 0)
(-0.0161508 0.00669099 0)
(-0.0173499 0.00497883 0)
(-0.018146 0.00314967 0)
(-0.0185329 0.00127291 0)
(-0.0185119 -0.000581838 0)
(-0.0181133 -0.00236597 0)
(-0.0173746 -0.00404136 0)
(-0.0163158 -0.00556877 0)
(-0.0149789 -0.00691914 0)
(-0.0133914 -0.00807319 0)
(-0.0115736 -0.00900711 0)
(-0.00955841 -0.00970225 0)
(-0.00737378 -0.0101336 0)
(-0.00505816 -0.0102451 0)
(-0.00266523 -0.0100349 0)
(-0.000243161 -0.00935296 0)
(0.00207039 -0.00806461 0)
(0.00395405 -0.00611726 0)
(0.00505596 -0.0036657 0)
(0.00523205 -0.00113511 0)
(0.00459505 0.000841059 0)
(0.00339905 0.00103263 0)
(0.00273046 0.000152728 0)
(0.00183818 0.00747106 0)
(-0.00181804 0.00844489 0)
(-0.00247269 -0.000110681 0)
(-0.00311275 0.00150656 0)
(-0.00474023 0.00219761 0)
(-0.00610155 5.63393e-05 0)
(-0.00634391 -0.00280008 0)
(-0.00550582 -0.00568721 0)
(-0.00361278 -0.00812854 0)
(-0.00102278 -0.00969041 0)
(0.00173964 -0.010389 0)
(0.00441493 -0.0103686 0)
(0.00681918 -0.00977467 0)
(0.00892234 -0.0087987 0)
(0.0107248 -0.00753075 0)
(0.0121167 -0.00600458 0)
(0.013107 -0.00431623 0)
(0.0137021 -0.0025669 0)
(0.0139114 -0.000822733 0)
(0.0137734 0.000858006 0)
(0.0132821 0.00243687 0)
(0.0124728 0.00386908 0)
(0.0113963 0.0050845 0)
(0.0100879 0.00604715 0)
(0.00862157 0.00671696 0)
(0.0070446 0.00708519 0)
(0.00543366 0.00715199 0)
(0.00387965 0.00689307 0)
(0.00243999 0.00633932 0)
(0.00119163 0.00554485 0)
(0.000181479 0.00454735 0)
(-0.000594503 0.00341192 0)
(-0.00111406 0.00217208 0)
(-0.00135604 0.000894016 0)
(-0.00131863 -0.000378781 0)
(-0.000987734 -0.00160889 0)
(-0.000348013 -0.00273692 0)
(0.000584148 -0.00370069 0)
(0.00180202 -0.00439033 0)
(0.00327388 -0.00469995 0)
(0.0048352 -0.00447258 0)
(0.00635353 -0.00368582 0)
(0.00763906 -0.00224935 0)
(0.00846363 -0.000412152 0)
(0.00876265 0.00170804 0)
(0.00851175 0.00391391 0)
(0.00772828 0.00615205 0)
(0.00640871 0.00824679 0)
(0.00460819 0.0101514 0)
(0.00240477 0.0117681 0)
(-0.000145904 0.0130018 0)
(-0.00292068 0.0137791 0)
(-0.00580756 0.0140425 0)
(-0.00870628 0.0137848 0)
(-0.0115114 0.013015 0)
(-0.0140704 0.0117637 0)
(-0.0162794 0.0101255 0)
(-0.0180844 0.00819387 0)
(-0.019434 0.00605068 0)
(-0.0203129 0.00376516 0)
(-0.0207021 0.00144649 0)
(-0.0206208 -0.000831357 0)
(-0.0201106 -0.00301719 0)
(-0.0192104 -0.00504881 0)
(-0.0179701 -0.0068883 0)
(-0.0164424 -0.00851933 0)
(-0.0146234 -0.00991493 0)
(-0.0125455 -0.0110679 0)
(-0.0102678 -0.0119491 0)
(-0.00777908 -0.012526 0)
(-0.00512269 -0.0127845 0)
(-0.0022864 -0.0126852 0)
(0.000765649 -0.01201 0)
(0.00383596 -0.0104825 0)
(0.00642419 -0.00784614 0)
(0.00784867 -0.00435184 0)
(0.00786246 -0.000769987 0)
(0.00658104 0.00207532 0)
(0.00468518 0.00222538 0)
(0.00350828 0.0012703 0)
(0.00217027 0.010047 0)
(-0.00177111 0.0107618 0)
(-0.00346241 0.000968088 0)
(-0.00430613 0.00283526 0)
(-0.00643451 0.00420622 0)
(-0.00889814 0.0010655 0)
(-0.00950684 -0.00301098 0)
(-0.0085171 -0.00725605 0)
(-0.00583238 -0.0107974 0)
(-0.00218723 -0.0127856 0)
(0.00151503 -0.0134888 0)
(0.00492704 -0.0132032 0)
(0.0078618 -0.0122646 0)
(0.0103243 -0.0108909 0)
(0.0124116 -0.00922059 0)
(0.0140352 -0.00728986 0)
(0.0151355 -0.00516228 0)
(0.0157476 -0.00298407 0)
(0.0159098 -0.000830246 0)
(0.0156765 0.00123675 0)
(0.0150546 0.00316635 0)
(0.0140523 0.00492466 0)
(0.0127313 0.00642307 0)
(0.011132 0.00762055 0)
(0.00933566 0.00844935 0)
(0.00742539 0.00888729 0)
(0.00547577 0.0089413 0)
(0.00358765 0.00858408 0)
(0.00187478 0.00784428 0)
(0.000407176 0.00682285 0)
(-0.000779828 0.00555793 0)
(-0.00167731 0.00412672 0)
(-0.00227582 0.00259232 0)
(-0.00254605 0.000998201 0)
(-0.00249127 -0.000596577 0)
(-0.00208741 -0.00217023 0)
(-0.00130867 -0.00364397 0)
(-0.000132607 -0.00495622 0)
(0.00144488 -0.00595819 0)
(0.00337016 -0.00647871 0)
(0.00545899 -0.00629317 0)
(0.00755144 -0.00536293 0)
(0.00931979 -0.00352603 0)
(0.0104989 -0.00113623 0)
(0.0109994 0.00159523 0)
(0.0108242 0.00444782 0)
(0.00994452 0.00726027 0)
(0.00841983 0.00989569 0)
(0.00634666 0.0123409 0)
(0.00374942 0.0143665 0)
(0.000746578 0.0159399 0)
(-0.00254957 0.0169377 0)
(-0.00600795 0.0172841 0)
(-0.00948163 0.0169484 0)
(-0.0128196 0.0159672 0)
(-0.0158396 0.0144126 0)
(-0.0184127 0.0123572 0)
(-0.0204855 0.00994196 0)
(-0.0220275 0.00727019 0)
(-0.0229891 0.00443575 0)
(-0.0233628 0.00159269 0)
(-0.023197 -0.00119297 0)
(-0.0225285 -0.0038285 0)
(-0.0214292 -0.00625571 0)
(-0.0199748 -0.00843921 0)
(-0.0181981 -0.0103652 0)
(-0.0161189 -0.0120192 0)
(-0.0137729 -0.0134082 0)
(-0.0111863 -0.0144872 0)
(-0.00839016 -0.0152333 0)
(-0.0053928 -0.01575 0)
(-0.00203897 -0.0159081 0)
(0.00183933 -0.0154346 0)
(0.00608148 -0.013832 0)
(0.00981893 -0.0102411 0)
(0.0117477 -0.00508612 0)
(0.0115034 6.47092e-05 0)
(0.00913992 0.00422522 0)
(0.00644815 0.00404962 0)
(0.00490207 0.00305546 0)
(0.00237338 0.0132498 0)
(-0.000925112 0.0134587 0)
(-0.00511937 0.00303786 0)
(-0.0077014 0.00421845 0)
(-0.00917963 0.00701942 0)
(-0.0130248 0.00294168 0)
(-0.0140135 -0.00295664 0)
(-0.0128026 -0.00938648 0)
(-0.00885031 -0.0146793 0)
(-0.00352775 -0.0170742 0)
(0.00152597 -0.0175324 0)
(0.00590651 -0.0167399 0)
(0.00944058 -0.0152547 0)
(0.0123037 -0.0133644 0)
(0.0146747 -0.0111685 0)
(0.0165243 -0.00872466 0)
(0.0177559 -0.00608262 0)
(0.0183744 -0.00338443 0)
(0.0184725 -0.000759528 0)
(0.0181071 0.00174496 0)
(0.0173086 0.00407948 0)
(0.0160821 0.00621815 0)
(0.0144671 0.00805871 0)
(0.0125 0.00952011 0)
(0.010271 0.0105602 0)
(0.00791726 0.0111049 0)
(0.00552723 0.0111385 0)
(0.00321985 0.0106279 0)
(0.00116179 0.00965842 0)
(-0.000582101 0.00831947 0)
(-0.00197498 0.00671627 0)
(-0.0029975 0.00494102 0)
(-0.00367204 0.00305097 0)
(-0.00397873 0.00107284 0)
(-0.00391884 -0.000881047 0)
(-0.00344186 -0.00283931 0)
(-0.0025019 -0.00475456 0)
(-0.00108239 -0.00655012 0)
(0.000839797 -0.00798694 0)
(0.00325773 -0.00879837 0)
(0.00613322 -0.00877585 0)
(0.00929266 -0.00766683 0)
(0.011705 -0.00527553 0)
(0.013164 -0.00217201 0)
(0.0138081 0.00134336 0)
(0.0136424 0.00498391 0)
(0.0126572 0.00850673 0)
(0.010957 0.011855 0)
(0.00852087 0.0148507 0)
(0.00542967 0.0174099 0)
(0.00185842 0.0194284 0)
(-0.00211878 0.020709 0)
(-0.00631093 0.0211663 0)
(-0.0105003 0.0207558 0)
(-0.0144731 0.0195 0)
(-0.0180667 0.0175134 0)
(-0.0211166 0.0149424 0)
(-0.0235356 0.011932 0)
(-0.0253055 0.00862648 0)
(-0.0263522 0.00515421 0)
(-0.0266844 0.0016745 0)
(-0.0263799 -0.0017008 0)
(-0.025497 -0.00484244 0)
(-0.0241472 -0.00769516 0)
(-0.0224124 -0.0102312 0)
(-0.0203391 -0.0124648 0)
(-0.0179557 -0.0144134 0)
(-0.0152957 -0.0160425 0)
(-0.0123919 -0.017303 0)
(-0.00933888 -0.0183172 0)
(-0.00602567 -0.0191759 0)
(-0.0020608 -0.0198352 0)
(0.00287396 -0.0200331 0)
(0.008997 -0.0187147 0)
(0.0147595 -0.0138268 0)
(0.0174048 -0.00589065 0)
(0.0168268 0.00169407 0)
(0.012942 0.00739244 0)
(0.0103759 0.0062477 0)
(0.00738016 0.00597397 0)
(0.00205075 0.0172844 0)
(0.00181869 0.0167278 0)
(-0.00419078 0.00870376 0)
(-0.0142101 0.00606087 0)
(-0.0149087 0.00965043 0)
(-0.0199885 0.00542776 0)
(-0.0215345 -0.00292425 0)
(-0.0199115 -0.0124434 0)
(-0.0133273 -0.0203772 0)
(-0.00475558 -0.0232219 0)
(0.00196284 -0.0229677 0)
(0.00729124 -0.0211963 0)
(0.0113715 -0.0188205 0)
(0.0145226 -0.0162073 0)
(0.0170952 -0.0133977 0)
(0.0191537 -0.0102983 0)
(0.0206171 -0.00703589 0)
(0.0213978 -0.00371869 0)
(0.021534 -0.00056642 0)
(0.0211 0.00242961 0)
(0.0201434 0.00522461 0)
(0.0186614 0.0078068 0)
(0.0166777 0.0100674 0)
(0.0142829 0.0118853 0)
(0.0115514 0.0131735 0)
(0.00862159 0.0138294 0)
(0.00564046 0.0138213 0)
(0.00280281 0.0131359 0)
(0.000312711 0.0118494 0)
(-0.00177057 0.0100926 0)
(-0.00337376 0.00804831 0)
(-0.00452456 0.00587627 0)
(-0.00530191 0.00354655 0)
(-0.00561969 0.00120973 0)
(-0.00550228 -0.00117775 0)
(-0.00498573 -0.00361702 0)
(-0.00403956 -0.00608161 0)
(-0.00261908 -0.00840156 0)
(-0.000550311 -0.0104081 0)
(0.0024125 -0.0119056 0)
(0.00664267 -0.0124391 0)
(0.0117617 -0.0110388 0)
(0.0153481 -0.00754745 0)
(0.0170837 -0.00337715 0)
(0.0175478 0.00105638 0)
(0.0171369 0.00555374 0)
(0.0159569 0.0099798 0)
(0.0139461 0.0141174 0)
(0.0110867 0.0178251 0)
(0.00749398 0.0211038 0)
(0.00321276 0.0236791 0)
(-0.00161548 0.0253177 0)
(-0.00673075 0.0259217 0)
(-0.011876 0.0253978 0)
(-0.0167324 0.0237661 0)
(-0.0210248 0.0212122 0)
(-0.0246099 0.0179755 0)
(-0.0274192 0.0142255 0)
(-0.029413 0.0101435 0)
(-0.0305366 0.00588287 0)
(-0.0308107 0.00163467 0)
(-0.0302963 -0.00242341 0)
(-0.0290694 -0.00614315 0)
(-0.0272828 -0.00944721 0)
(-0.0250642 -0.0123505 0)
(-0.0225223 -0.0149076 0)
(-0.0197178 -0.0171492 0)
(-0.0166551 -0.0190144 0)
(-0.0134413 -0.0204799 0)
(-0.0101909 -0.0217697 0)
(-0.00672074 -0.0231332 0)
(-0.00271373 -0.0246938 0)
(0.00286137 -0.0262855 0)
(0.0124517 -0.0259981 0)
(0.0235436 -0.0190427 0)
(0.0273269 -0.006903 0)
(0.0257476 0.00420283 0)
(0.0201675 0.0109337 0)
(0.0182339 0.00920314 0)
(0.00845024 0.0124647 0)
(0.000548704 0.0225737 0)
(0.000616707 0.0158314 0)
(0.0041274 0.0216578 0)
(-0.0155957 0.0148921 0)
(-0.0252136 0.0145568 0)
(-0.0311729 0.00951827 0)
(-0.0348272 -0.0022951 0)
(-0.0327363 -0.0172047 0)
(-0.0205631 -0.0300409 0)
(-0.00499148 -0.0321751 0)
(0.00413284 -0.0296417 0)
(0.00924277 -0.0263715 0)
(0.0129046 -0.0228004 0)
(0.0159624 -0.0193086 0)
(0.0187118 -0.015904 0)
(0.020997 -0.0122245 0)
(0.0226532 -0.0082578 0)
(0.023668 -0.00426761 0)
(0.0240812 -0.000486755 0)
(0.0238546 0.00313371 0)
(0.0228725 0.00654835 0)
(0.0211671 0.00968025 0)
(0.018839 0.0125149 0)
(0.0160354 0.0148098 0)
(0.0128072 0.0164062 0)
(0.00927063 0.0171856 0)
(0.0055951 0.0171054 0)
(0.00204219 0.0161555 0)
(-0.0010648 0.0144156 0)
(-0.00351853 0.0121262 0)
(-0.00523176 0.00947778 0)
(-0.00639837 0.00681245 0)
(-0.00708606 0.00409624 0)
(-0.00731339 0.00136455 0)
(-0.00724909 -0.00147737 0)
(-0.00691446 -0.00438513 0)
(-0.00636066 -0.00728847 0)
(-0.00542988 -0.0101088 0)
(-0.00342416 -0.0130928 0)
(0.000651491 -0.0162195 0)
(0.00711888 -0.0182826 0)
(0.014727 -0.0165461 0)
(0.020304 -0.0107562 0)
(0.0228244 -0.00451797 0)
(0.0229885 0.00121796 0)
(0.0218567 0.00654729 0)
(0.0199646 0.0117075 0)
(0.0174151 0.0166724 0)
(0.0141613 0.0213071 0)
(0.0100149 0.0254653 0)
(0.00492097 0.0286787 0)
(-0.000873953 0.0308407 0)
(-0.00708391 0.0316744 0)
(-0.0133987 0.0310567 0)
(-0.0193615 0.028986 0)
(-0.0245678 0.0257091 0)
(-0.0287862 0.0215546 0)
(-0.0319016 0.0168307 0)
(-0.0339428 0.0117813 0)
(-0.0349892 0.00658164 0)
(-0.0350996 0.00141254 0)
(-0.0342659 -0.00350109 0)
(-0.0324477 -0.00796979 0)
(-0.0298283 -0.0118453 0)
(-0.026737 -0.0151306 0)
(-0.0235137 -0.0179261 0)
(-0.0202488 -0.0203581 0)
(-0.016808 -0.0223659 0)
(-0.0132747 -0.0239228 0)
(-0.010187 -0.0252159 0)
(-0.00796688 -0.0267493 0)
(-0.00643995 -0.0290122 0)
(-0.00175608 -0.0335666 0)
(0.0136753 -0.0386715 0)
(0.0363893 -0.0284819 0)
(0.0451674 -0.00729627 0)
(0.0408589 0.00892906 0)
(0.0329572 0.0163943 0)
(0.0247269 0.0179732 0)
(0.00272713 0.0259599 0)
(-0.00021514 0.0264226 0)
(0.00449323 0.0105964 0)
(0.020973 0.0256873 0)
(0.00426727 0.0358584 0)
(-0.0327004 0.0254159 0)
(-0.0461019 0.0153331 0)
(-0.0545649 -4.92701e-05 0)
(-0.0526479 -0.0262691 0)
(-0.0340188 -0.0480259 0)
(-0.00738442 -0.046348 0)
(0.00977415 -0.0358975 0)
(0.0152561 -0.0296981 0)
(0.0173707 -0.0258009 0)
(0.0199824 -0.022337 0)
(0.0231739 -0.0186901 0)
(0.0256085 -0.014489 0)
(0.026435 -0.00983899 0)
(0.0262369 -0.00527477 0)
(0.0259616 -0.00076158 0)
(0.0255787 0.0036687 0)
(0.0245043 0.00802642 0)
(0.0226675 0.0119315 0)
(0.0201042 0.0153759 0)
(0.0168917 0.0181741 0)
(0.0131501 0.0202278 0)
(0.00894183 0.0213036 0)
(0.00439518 0.0212175 0)
(-0.000112468 0.0199052 0)
(-0.00396462 0.0174509 0)
(-0.00681487 0.0142609 0)
(-0.00844304 0.0109684 0)
(-0.00916659 0.0077234 0)
(-0.0094637 0.00459652 0)
(-0.00946482 0.00146767 0)
(-0.00946685 -0.00159693 0)
(-0.00967261 -0.00462601 0)
(-0.00986947 -0.00773792 0)
(-0.0091241 -0.0115722 0)
(-0.00596999 -0.0167462 0)
(0.000336009 -0.0226452 0)
(0.00886501 -0.0268158 0)
(0.0178444 -0.0246185 0)
(0.0252765 -0.0159066 0)
(0.0293396 -0.00620257 0)
(0.0299513 0.00195018 0)
(0.0281238 0.0085356 0)
(0.0251462 0.0142474 0)
(0.0217081 0.0197955 0)
(0.0179063 0.0253529 0)
(0.013237 0.0304341 0)
(0.00752144 0.0345906 0)
(0.000930676 0.0374977 0)
(-0.00642663 0.0386969 0)
(-0.0141723 0.037969 0)
(-0.0216395 0.0353347 0)
(-0.028045 0.0310385 0)
(-0.0329439 0.0255671 0)
(-0.0362221 0.0194492 0)
(-0.038092 0.0132808 0)
(-0.0388702 0.00712094 0)
(-0.0386457 0.000987148 0)
(-0.0373175 -0.00508353 0)
(-0.0347802 -0.010669 0)
(-0.0314282 -0.0153638 0)
(-0.0281023 -0.019003 0)
(-0.0253779 -0.021833 0)
(-0.022766 -0.0242652 0)
(-0.0193666 -0.0263461 0)
(-0.0154852 -0.0274246 0)
(-0.0127787 -0.0273724 0)
(-0.0130306 -0.0270215 0)
(-0.0140134 -0.0301019 0)
(-0.00599984 -0.0446765 0)
(0.0181756 -0.0641113 0)
(0.0478507 -0.0516526 0)
(0.0658422 -0.0106559 0)
(0.060602 0.0172245 0)
(0.0466491 0.0273904 0)
(0.0137847 0.0396848 0)
(-0.0145811 0.039703 0)
(-0.00444428 0.0241029 0)
(0.0216783 -0.00737277 0)
(0.0556584 0.0279287 0)
(0.0507938 0.074632 0)
(-0.00753232 0.0660097 0)
(-0.0546948 0.0336323 0)
(-0.0731138 0.00811327 0)
(-0.0770266 -0.0369465 0)
(-0.059124 -0.0756028 0)
(-0.0265874 -0.0758293 0)
(0.00680453 -0.0515245 0)
(0.024308 -0.0333094 0)
(0.0312419 -0.0271853 0)
(0.0364459 -0.0250364 0)
(0.0412649 -0.0212423 0)
(0.04331 -0.0151497 0)
(0.0413262 -0.00893954 0)
(0.0368612 -0.00409949 0)
(0.0327576 0.000157978 0)
(0.0302226 0.00472677 0)
(0.028521 0.00961987 0)
(0.0267075 0.0143457 0)
(0.0240655 0.0185089 0)
(0.0201026 0.0220307 0)
(0.0149877 0.0247089 0)
(0.00916219 0.0264474 0)
(0.00319326 0.0266574 0)
(-0.00230607 0.0249016 0)
(-0.0067196 0.0212907 0)
(-0.0096739 0.0165133 0)
(-0.0113872 0.0119312 0)
(-0.0122785 0.00793287 0)
(-0.0125735 0.00442818 0)
(-0.0125243 0.00140273 0)
(-0.0126421 -0.00134785 0)
(-0.0130676 -0.00418946 0)
(-0.0128573 -0.00802765 0)
(-0.0102026 -0.0142188 0)
(-0.00394412 -0.0228004 0)
(0.00458763 -0.0311542 0)
(0.0133974 -0.0361448 0)
(0.0211821 -0.0332502 0)
(0.0281783 -0.0224944 0)
(0.0333938 -0.00936677 0)
(0.0354521 0.00225368 0)
(0.0342811 0.011213 0)
(0.0310852 0.0180834 0)
(0.0272242 0.024085 0)
(0.022889 0.0301051 0)
(0.0176458 0.0358345 0)
(0.0112272 0.041176 0)
(0.00318563 0.0451569 0)
(-0.00648976 0.0471714 0)
(-0.0168988 0.0467036 0)
(-0.0265914 0.043504 0)
(-0.0343822 0.0377702 0)
(-0.0400733 0.0302861 0)
(-0.043823 0.0223251 0)
(-0.045968 0.0146496 0)
(-0.0466825 0.0073022 0)
(-0.0458342 -3.7955e-05 0)
(-0.0436009 -0.00743385 0)