/*--------------------------------*- C++ -*----------------------------------*\
| =========                 |                                                 |
| \\      /  F ield         | OpenFOAM: The Open Source CFD Toolbox           |
|  \\    /   O peration     | Version:  2412                                  |
|   \\  /    A nd           | Website:  www.openfoam.com                      |
|    \\/     M anipulation  |                                                 |
\*---------------------------------------------------------------------------*/
FoamFile
{
    version     2.0;
    format      ascii;
    arch        "LSB;label=32;scalar=64";
    class       surfaceScalarField;
    location    "7.8";
    object      phi;
}
// * * * * * * * * * * * * * * * * * * * * * * * * * * * * * * * * * * * * * //

dimensions      [0 3 -1 0 0 0 0];

oriented        oriented;

internalField   nonuniform List<scalar> 
12640
(
-1.55429e-05
1.55429e-05
-2.65516e-05
1.10088e-05
-3.82735e-05
1.17219e-05
-4.9834e-05
1.15606e-05
-6.03748e-05
1.05409e-05
-6.95015e-05
9.12695e-06
-7.70627e-05
7.56142e-06
-8.28737e-05
5.81134e-06
-8.6826e-05
3.95265e-06
-8.89905e-05
2.16501e-06
-8.94257e-05
4.35816e-07
-8.80685e-05
-1.35676e-06
-8.51784e-05
-2.88948e-06
-8.08883e-05
-4.28951e-06
-7.53505e-05
-5.53726e-06
-6.87008e-05
-6.64944e-06
-6.10784e-05
-7.62215e-06
-5.2677e-05
-8.40112e-06
-4.36877e-05
-8.98923e-06
-3.43533e-05
-9.33465e-06
-2.49117e-05
-9.44174e-06
-1.55812e-05
-9.33064e-06
-6.64834e-06
-8.93312e-06
1.61425e-06
-8.26305e-06
8.97794e-06
-7.36426e-06
1.52715e-05
-6.29387e-06
2.04352e-05
-5.16391e-06
2.46003e-05
-4.16532e-06
2.77308e-05
-3.13071e-06
2.99901e-05
-2.2594e-06
3.13132e-05
-1.32315e-06
3.1517e-05
-2.03974e-07
3.07526e-05
7.64308e-07
2.92505e-05
1.50182e-06
2.73453e-05
1.90487e-06
2.52524e-05
2.09277e-06
2.31988e-05
2.05385e-06
2.11972e-05
2.00205e-06
1.9323e-05
1.87495e-06
1.75043e-05
1.81964e-06
1.57035e-05
1.80178e-06
1.38892e-05
1.81543e-06
1.19777e-05
1.91263e-06
9.97838e-06
2.00055e-06
7.89692e-06
2.08275e-06
5.75307e-06
2.14518e-06
3.6835e-06
2.07091e-06
1.87592e-06
1.80878e-06
7.05303e-07
1.17166e-06
3.30489e-07
3.75808e-07
8.41971e-07
-5.10722e-07
2.26919e-06
-1.42697e-06
4.56069e-06
-2.29156e-06
7.81741e-06
-3.25689e-06
1.20513e-05
-4.23439e-06
1.72085e-05
-5.15813e-06
2.31012e-05
-5.89374e-06
2.94226e-05
-6.32213e-06
3.58713e-05
-6.44884e-06
4.21687e-05
-6.29729e-06
4.80578e-05
-5.88923e-06
5.33149e-05
-5.25744e-06
5.77552e-05
-4.44058e-06
6.12706e-05
-3.51548e-06
6.38668e-05
-2.59587e-06
6.55466e-05
-1.67926e-06
6.63492e-05
-8.0228e-07
6.61758e-05
1.73496e-07
6.49811e-05
1.19517e-06
6.28195e-05
2.16285e-06
5.97704e-05
3.0509e-06
5.58225e-05
3.94943e-06
5.10914e-05
4.73197e-06
4.54723e-05
5.6199e-06
3.90973e-05
6.37632e-06
3.19423e-05
7.15614e-06
2.43413e-05
7.6016e-06
1.70014e-05
7.34022e-06
1.05673e-05
6.43445e-06
1.05673e-05
-1.75374e-05
3.30805e-05
-3.0384e-05
2.38554e-05
-4.38842e-05
2.52221e-05
-5.67724e-05
2.44489e-05
-6.80821e-05
2.18511e-05
-7.75336e-05
1.85789e-05
-8.47773e-05
1.48057e-05
-8.99887e-05
1.10235e-05
-9.31528e-05
7.11756e-06
-9.42699e-05
3.28288e-06
-9.35172e-05
-3.15964e-07
-9.12111e-05
-3.66206e-06
-8.7384e-05
-6.71591e-06
-8.22436e-05
-9.42936e-06
-7.58395e-05
-1.19406e-05
-6.84404e-05
-1.40482e-05
-6.02015e-05
-1.5861e-05
-5.12627e-05
-1.734e-05
-4.18186e-05
-1.84333e-05
-3.20313e-05
-1.9122e-05
-2.2015e-05
-1.94582e-05
-1.19278e-05
-1.94181e-05
-1.90002e-06
-1.8961e-05
7.94749e-06
-1.81104e-05
1.74743e-05
-1.68909e-05
2.64904e-05
-1.531e-05
3.4748e-05
-1.34216e-05
4.19358e-05
-1.13529e-05
4.78097e-05
-9.00424e-06
5.21188e-05
-6.56792e-06
5.46894e-05
-3.89326e-06
5.59654e-05
-1.47955e-06
5.56343e-05
1.09595e-06
5.39473e-05
3.18974e-06
5.07716e-05
5.08163e-06
4.62679e-05
6.59767e-06
4.05044e-05
7.81868e-06
3.37922e-05
8.71563e-06
2.63036e-05
9.36514e-06
1.84403e-05
9.68448e-06
1.04341e-05
9.80946e-06
2.60306e-06
9.64792e-06
-4.69048e-06
9.20759e-06
-1.11902e-05
8.5017e-06
-1.65718e-05
7.46583e-06
-2.0581e-05
6.15583e-06
-2.30803e-05
4.5715e-06
-2.40682e-05
2.79781e-06
-2.3765e-05
8.69457e-07
-2.21003e-05
-1.28819e-06
-1.89613e-05
-3.64912e-06
-1.46824e-05
-5.70538e-06
-9.22464e-06
-7.74904e-06
-2.95817e-06
-9.52343e-06
3.88209e-06
-1.10747e-05
1.103e-05
-1.23056e-05
1.83015e-05
-1.31643e-05
2.55664e-05
-1.3586e-05
3.27017e-05
-1.35834e-05
3.95515e-05
-1.31468e-05
4.59457e-05
-1.22834e-05
5.1768e-05
-1.10796e-05
5.68971e-05
-9.569e-06
6.1218e-05
-7.83559e-06
6.45999e-05
-5.97709e-06
6.70036e-05
-4.08269e-06
6.82819e-05
-2.08039e-06
6.85648e-05
-1.0871e-07
6.79465e-05
1.81527e-06
6.64647e-05
3.64674e-06
6.40784e-05
5.43856e-06
6.07627e-05
7.26572e-06
5.63799e-05
9.11542e-06
5.10046e-05
1.09967e-05
4.44339e-05
1.29487e-05
3.67975e-05
1.47929e-05
2.83221e-05
1.6077e-05
1.97975e-05
1.58656e-05
1.22114e-05
1.40209e-05
2.27804e-05
-1.75788e-05
5.06594e-05
-3.04336e-05
3.671e-05
-4.39797e-05
3.87682e-05
-5.70734e-05
3.75428e-05
-6.86731e-05
3.34511e-05
-7.83018e-05
2.8208e-05
-8.59339e-05
2.24381e-05
-9.13968e-05
1.64866e-05
-9.47469e-05
1.04681e-05
-9.61068e-05
4.64295e-06
-9.55796e-05
-8.42959e-07
-9.33489e-05
-5.89258e-06
-8.95635e-05
-1.05011e-05
-8.43386e-05
-1.46541e-05
-7.78647e-05
-1.8414e-05
-7.02391e-05
-2.16733e-05
-6.17624e-05
-2.43374e-05
-5.25127e-05
-2.65889e-05
-4.26896e-05
-2.82557e-05
-3.24924e-05
-2.93186e-05
-2.21066e-05
-2.98431e-05
-1.17172e-05
-2.9806e-05
-1.52236e-06
-2.91546e-05
8.27662e-06
-2.79084e-05
1.74998e-05
-2.6113e-05
2.59212e-05
-2.37299e-05
3.3412e-05
-2.09108e-05
3.97334e-05
-1.76728e-05
4.47636e-05
-1.40331e-05
4.83259e-05
-1.0129e-05
5.06434e-05
-6.20948e-06
5.14741e-05
-2.30873e-06
5.11091e-05
1.46265e-06
4.94129e-05
4.88746e-06
4.65221e-05
7.97345e-06
4.24289e-05
1.06915e-05
3.74003e-05
1.28477e-05
3.15736e-05
1.45425e-05
2.51842e-05
1.57546e-05
1.8467e-05
1.64015e-05
1.16597e-05
1.66165e-05
4.98318e-06
1.63243e-05
-1.28782e-06
1.54785e-05
-7.00358e-06
1.42173e-05
-1.18607e-05
1.2323e-05
-1.56434e-05
9.93875e-06
-1.82233e-05
7.15189e-06
-1.95175e-05
4.09255e-06
-1.96293e-05
9.82264e-07
-1.85349e-05
-2.38071e-06
-1.64364e-05
-5.74547e-06
-1.2982e-05
-9.15755e-06
-8.38864e-06
-1.23396e-05
-2.73082e-06
-1.51777e-05
3.73783e-06
-1.75397e-05
1.0817e-05
-1.93818e-05
1.82807e-05
-2.06261e-05
2.58781e-05
-2.11821e-05
3.34065e-05
-2.11109e-05
4.06598e-05
-2.03992e-05
4.7448e-05
-1.90707e-05
5.35256e-05
-1.71564e-05
5.88142e-05
-1.48571e-05
6.31565e-05
-1.21777e-05
6.64315e-05
-9.25206e-06
6.85398e-05
-6.19099e-06
6.95668e-05
-3.10755e-06
6.95728e-05
-1.14826e-07
6.86408e-05
2.74711e-06
6.68128e-05
5.47441e-06
6.40711e-05
8.17933e-06
6.04644e-05
1.08717e-05
5.59418e-05
1.36383e-05
5.04996e-05
1.64396e-05
4.39709e-05
1.94772e-05
3.63423e-05
2.24211e-05
2.79011e-05
2.45192e-05
1.96635e-05
2.41041e-05
1.23421e-05
2.13433e-05
3.51224e-05
-1.86651e-05
6.93243e-05
-3.22131e-05
5.02577e-05
-4.65339e-05
5.3089e-05
-6.06307e-05
5.16399e-05
-7.30787e-05
4.58993e-05
-8.34424e-05
3.85718e-05
-9.1419e-05
3.04149e-05
-9.6963e-05
2.20304e-05
-0.000100177
1.3682e-05
-0.000101275
5.74081e-06
-0.000100481
-1.63727e-06
-9.78273e-05
-8.54624e-06
-9.3653e-05
-1.46753e-05
-8.79735e-05
-2.03337e-05
-8.10616e-05
-2.53254e-05
-7.3105e-05
-2.96297e-05
-6.4141e-05
-3.33012e-05
-5.44608e-05
-3.62689e-05
-4.41795e-05
-3.85365e-05
-3.34773e-05
-4.00202e-05
-2.25795e-05
-4.07406e-05
-1.16826e-05
-4.07025e-05
-1.00191e-06
-3.98349e-05
9.22859e-06
-3.81384e-05
1.87899e-05
-3.56739e-05
2.73997e-05
-3.23395e-05
3.49072e-05
-2.84189e-05
4.1182e-05
-2.39483e-05
4.61304e-05
-1.8982e-05
4.95887e-05
-1.35874e-05
5.16592e-05
-8.28014e-06
5.21772e-05
-2.82697e-06
5.11722e-05
2.46736e-06
4.89069e-05
7.15253e-06
4.54485e-05
1.14318e-05
4.09878e-05
1.51522e-05
3.59174e-05
1.79181e-05
3.03092e-05
2.01508e-05
2.44268e-05
2.16372e-05
1.83427e-05
2.2486e-05
1.22603e-05
2.26995e-05
6.22604e-06
2.23593e-05
3.33755e-07
2.13716e-05
-5.18291e-06
1.97348e-05
-1.00345e-05
1.71751e-05
-1.41931e-05
1.40976e-05
-1.72728e-05
1.02321e-05
-1.91873e-05
6.00759e-06
-1.9678e-05
1.4734e-06
-1.88841e-05
-3.17395e-06
-1.69327e-05
-7.69583e-06
-1.35752e-05
-1.25139e-05
-9.052e-06
-1.6862e-05
-3.39141e-06
-2.08381e-05
3.22483e-06
-2.41561e-05
1.05962e-05
-2.67535e-05
1.84689e-05
-2.84989e-05
2.65673e-05
-2.92802e-05
3.46156e-05
-2.91585e-05
4.23796e-05
-2.81625e-05
4.96181e-05
-2.63086e-05
5.61384e-05
-2.36759e-05
6.16889e-05
-2.04061e-05
6.61145e-05
-1.66016e-05
6.93781e-05
-1.25145e-05
7.1413e-05
-8.22523e-06
7.23615e-05
-4.05538e-06
7.22572e-05
-9.61493e-09
7.11969e-05
3.80837e-06
6.92343e-05
7.43752e-06
6.64616e-05
1.09523e-05
6.2889e-05
1.44446e-05
5.85359e-05
1.79921e-05
5.29122e-05
2.2064e-05
4.62061e-05
2.61835e-05
3.8307e-05
3.03207e-05
2.93686e-05
3.3458e-05
2.08739e-05
3.25984e-05
1.30402e-05
2.91772e-05
4.81611e-05
-2.04373e-05
8.97614e-05
-3.51889e-05
6.50093e-05
-5.08309e-05
6.87313e-05
-6.64984e-05
6.73076e-05
-8.02089e-05
5.96097e-05
-9.13332e-05
4.96959e-05
-9.9682e-05
3.87636e-05
-0.000105126
2.74746e-05
-0.000107977
1.65321e-05
-0.000108547
6.31069e-06
-0.00010711
-3.07391e-06
-0.00010397
-1.1687e-05
-9.9078e-05
-1.95673e-05
-9.27762e-05
-2.66358e-05
-8.52153e-05
-3.28866e-05
-7.65471e-05
-3.82981e-05
-6.69457e-05
-4.2903e-05
-5.65511e-05
-4.6664e-05
-4.55325e-05
-4.95561e-05
-3.40448e-05
-5.15091e-05
-2.23567e-05
-5.24297e-05
-1.06492e-05
-5.24107e-05
8.13805e-07
-5.12983e-05
1.17651e-05
-4.90901e-05
2.1957e-05
-4.58661e-05
3.14001e-05
-4.17825e-05
3.96271e-05
-3.66451e-05
4.64427e-05
-3.07631e-05
5.17512e-05
-2.42896e-05
5.54462e-05
-1.7282e-05
5.73632e-05
-1.01973e-05
5.75281e-05
-2.99202e-06
5.61673e-05
3.82838e-06
5.3223e-05
1.00972e-05
4.89466e-05
1.57086e-05
4.38559e-05
2.02433e-05
3.7999e-05
2.37754e-05
3.16569e-05
2.64935e-05
2.51296e-05
2.8165e-05
1.84704e-05
2.9146e-05
1.18446e-05
2.93262e-05
5.20933e-06
2.89954e-05
-1.29237e-06
2.78738e-05
-7.39195e-06
2.58347e-05
-1.31557e-05
2.29389e-05
-1.78591e-05
1.88008e-05
-2.14903e-05
1.38628e-05
-2.38089e-05
8.32539e-06
-2.46794e-05
2.34305e-06
-2.3936e-05
-3.91836e-06
-2.15334e-05
-1.01e-05
-1.80506e-05
-1.59991e-05
-1.29576e-05
-2.19577e-05
-6.76268e-06
-2.70355e-05
6.15179e-07
-3.15356e-05
8.77794e-06
-3.49169e-05
1.7468e-05
-3.71888e-05
2.64521e-05
-3.82639e-05
3.53831e-05
-3.80892e-05
4.40109e-05
-3.67899e-05
5.20087e-05
-3.43058e-05
5.91406e-05
-3.08069e-05
6.51829e-05
-2.64473e-05
6.99851e-05
-2.14027e-05
7.33963e-05
-1.59244e-05
7.54999e-05
-1.03273e-05
7.63323e-05
-4.88582e-06
7.60903e-05
2.34644e-07
7.48476e-05
5.05289e-06
7.26611e-05
9.62483e-06
6.98894e-05
1.37244e-05
6.6466e-05
1.78689e-05
6.22552e-05
2.22033e-05
5.69517e-05
2.73669e-05
4.99768e-05
3.31577e-05
4.13976e-05
3.89003e-05
3.18004e-05
4.30553e-05
2.25105e-05
4.18874e-05
1.41161e-05
3.7572e-05
6.22774e-05
-2.24455e-05
0.000112207
-3.90469e-05
8.16111e-05
-5.6587e-05
8.62716e-05
-7.42725e-05
8.49932e-05
-8.96524e-05
7.49897e-05
-0.000101845
6.18885e-05
-0.000110523
4.74412e-05
-0.000115788
3.27399e-05
-0.000118216
1.89596e-05
-0.000118043
6.13793e-06
-0.000115752
-5.36527e-06
-0.000111596
-1.58438e-05
-0.000105979
-2.51846e-05
-9.89147e-05
-3.37003e-05
-9.05638e-05
-4.12381e-05
-8.10736e-05
-4.77893e-05
-7.05587e-05
-5.34187e-05
-5.91827e-05
-5.80402e-05
-4.71877e-05
-6.15504e-05
-3.47057e-05
-6.39898e-05
-2.1918e-05
-6.52157e-05
-9.14069e-06
-6.51865e-05
3.4079e-06
-6.38455e-05
1.54516e-05
-6.11324e-05
2.67655e-05
-5.71786e-05
3.69578e-05
-5.19735e-05
4.59199e-05
-4.56066e-05
5.3485e-05
-3.83278e-05
5.91759e-05
-2.99799e-05
6.31244e-05
-2.12297e-05
6.49963e-05
-1.20684e-05
6.50564e-05
-3.05149e-06
6.31747e-05
5.71057e-06
5.93772e-05
1.3895e-05
5.43047e-05
2.07812e-05
4.82244e-05
2.63235e-05
4.12801e-05
3.07198e-05
3.38838e-05
3.38899e-05
2.63666e-05
3.56824e-05
1.87486e-05
3.6764e-05
1.11962e-05
3.68785e-05
3.5477e-06
3.66438e-05
-4.01517e-06
3.54367e-05
-1.12475e-05
3.30671e-05
-1.79761e-05
2.96677e-05
-2.35339e-05
2.43592e-05
-2.78472e-05
1.81768e-05
-3.05e-05
1.09784e-05
-3.14192e-05
3.26217e-06
-3.08507e-05
-4.48709e-06
-2.84611e-05
-1.24898e-05
-2.41454e-05
-2.03149e-05
-1.86201e-05
-2.74827e-05
-1.14921e-05
-3.41628e-05
-3.23354e-06
-3.97931e-05
6.02559e-06
-4.41748e-05
1.58789e-05
-4.70409e-05
2.61238e-05
-4.8508e-05
3.62931e-05
-4.8258e-05
4.60537e-05
-4.65504e-05
5.50916e-05
-4.33437e-05
6.3088e-05
-3.88028e-05
6.97751e-05
-3.31335e-05
7.49871e-05
-2.66135e-05
7.86003e-05
-1.95366e-05
8.06653e-05
-1.23915e-05
8.13287e-05
-5.54857e-06
8.0706e-05
8.57433e-07
7.9e-05
6.75841e-06
7.67055e-05
1.19185e-05
7.39827e-05
1.64467e-05
7.09901e-05
2.08611e-05
6.71405e-05
2.6052e-05
6.2063e-05
3.24437e-05
5.50291e-05
4.01918e-05
4.58072e-05
4.81219e-05
3.50894e-05
5.37724e-05
2.49272e-05
5.20501e-05
1.557e-05
4.69299e-05
7.78482e-05
-2.45786e-05
0.000136786
-4.35943e-05
0.000100627
-6.35953e-05
0.000106273
-8.43239e-05
0.000105722
-0.00010199
9.26557e-05
-0.000115544
7.5443e-05
-0.000124606
5.65035e-05
-0.000129322
3.74559e-05
-0.000130644
2.02821e-05
-0.000129336
4.82928e-06
-0.000125995
-8.70688e-06
-0.000121017
-2.08221e-05
-0.000114263
-3.19391e-05
-0.000106182
-4.17812e-05
-9.68522e-05
-5.05671e-05
-8.63577e-05
-5.82825e-05
-7.48602e-05
-6.49142e-05
-6.24346e-05
-7.04636e-05
-4.92717e-05
-7.47114e-05
-3.55283e-05
-7.7732e-05
-2.14679e-05
-7.92754e-05
-7.36946e-06
-7.92846e-05
6.51222e-06
-7.77274e-05
1.99157e-05
-7.45363e-05
3.24628e-05
-6.97261e-05
4.38681e-05
-6.33789e-05
5.38537e-05
-5.55922e-05
6.20952e-05
-4.65692e-05
6.86678e-05
-3.65522e-05
7.27967e-05
-2.53585e-05
7.48884e-05
-1.41602e-05
7.44268e-05
-2.59006e-06
7.17317e-05
8.40549e-06
6.72016e-05
1.84249e-05
6.09267e-05
2.70562e-05
5.32882e-05
3.39621e-05
4.48995e-05
3.91085e-05
3.63885e-05
4.24006e-05
2.78185e-05
4.42521e-05
1.92633e-05
4.53189e-05
1.054e-05
4.56018e-05
1.70663e-06
4.54776e-05
-7.15834e-06
4.43028e-05
-1.5783e-05
4.16933e-05
-2.3381e-05
3.72672e-05
-3.01012e-05
3.10809e-05
-3.53199e-05
2.33971e-05
-3.88436e-05
1.4504e-05
-4.036e-05
4.78095e-06
-3.95957e-05
-5.24826e-06
-3.68791e-05
-1.5203e-05
-3.23278e-05
-2.48629e-05
-2.57766e-05
-3.40314e-05
-1.76758e-05
-4.22617e-05
-8.16629e-06
-4.93011e-05
2.50026e-06
-5.48401e-05
1.39076e-05
-5.84472e-05
2.56406e-05
-6.024e-05
3.7415e-05
-6.00314e-05
4.87012e-05
-5.78356e-05
5.90906e-05
-5.3732e-05
6.81946e-05
-4.79054e-05
7.57308e-05
-4.06684e-05
8.14591e-05
-3.23412e-05
8.53257e-05
-2.34034e-05
8.73276e-05
-1.43939e-05
8.75696e-05
-5.79096e-06
8.63094e-05
2.11722e-06
8.39724e-05
9.09509e-06
8.12135e-05
1.46774e-05
7.84488e-05
1.9212e-05
7.59296e-05
2.33801e-05
7.34134e-05
2.8567e-05
6.92227e-05
3.66335e-05
6.19611e-05
4.74534e-05
5.17448e-05
5.83376e-05
3.91969e-05
6.63196e-05
2.77425e-05
6.35062e-05
1.70513e-05
5.7621e-05
9.48995e-05
-2.63509e-05
0.000163137
-4.83107e-05
0.000122588
-7.17913e-05
0.000129754
-9.69763e-05
0.000130907
-0.000117874
0.000113554
-0.000133468
9.10372e-05
-0.000142889
6.59253e-05
-0.000146368
4.09347e-05
-0.000145932
1.98452e-05
-0.000143079
1.97585e-06
-0.000138239
-1.35469e-05
-0.000131757
-2.73027e-05
-0.000124006
-3.96898e-05
-0.000114847
-5.09386e-05
-0.000104352
-6.10618e-05
-9.27063e-05
-6.99276e-05
-8.00136e-05
-7.76076e-05
-6.63467e-05
-8.4132e-05
-5.17746e-05
-8.92852e-05
-3.65462e-05
-9.29621e-05
-2.09093e-05
-9.49137e-05
-5.22082e-06
-9.49737e-05
1.03282e-05
-9.32763e-05
2.53261e-05
-8.95336e-05
3.94255e-05
-8.38247e-05
5.23802e-05
-7.63329e-05
6.38299e-05
-6.70417e-05
7.32817e-05
-5.60209e-05
8.02541e-05
-4.35244e-05
8.51243e-05
-3.02286e-05
8.6825e-05
-1.58607e-05
8.61419e-05
-1.90661e-06
8.25154e-05
1.20325e-05
7.65943e-05
2.43464e-05
6.8678e-05
3.49726e-05
5.93799e-05
4.32602e-05
4.93824e-05
4.91062e-05
3.92784e-05
5.25049e-05
2.92918e-05
5.42392e-05
1.95935e-05
5.5018e-05
9.9227e-06
5.52735e-05
-2.45469e-07
5.56467e-05
-1.08093e-05
5.48674e-05
-2.11658e-05
5.20506e-05
-3.07089e-05
4.68109e-05
-3.90515e-05
3.94243e-05
-4.53681e-05
2.97151e-05
-4.94615e-05
1.85991e-05
-5.11752e-05
6.49658e-06
-5.05317e-05
-5.88987e-06
-4.75302e-05
-1.82029e-05
-4.21885e-05
-3.02038e-05
-3.48142e-05
-4.14055e-05
-2.55003e-05
-5.15758e-05
-1.43466e-05
-6.04549e-05
-2.01481e-06
-6.71717e-05
1.13531e-05
-7.18146e-05
2.51356e-05
-7.40217e-05
3.89203e-05
-7.38157e-05
5.21237e-05
-7.10389e-05
6.42106e-05
-6.58192e-05
7.47292e-05
-5.84245e-05
8.33425e-05
-4.92822e-05
8.97603e-05
-3.87594e-05
9.38373e-05
-2.74807e-05
9.55988e-05
-1.61552e-05
9.51216e-05
-5.31295e-06
9.28398e-05
4.40013e-06
8.94769e-05
1.24593e-05
8.57859e-05
1.83694e-05
8.27597e-05
2.2239e-05
8.11485e-05
2.4991e-05
8.05144e-05
2.92006e-05
7.83071e-05
3.88416e-05
7.13048e-05
5.44562e-05
5.9647e-05
6.99961e-05
4.43202e-05
8.1647e-05
3.07168e-05
7.71118e-05
1.8403e-05
6.99339e-05
0.000113302
-2.81465e-05
0.000191284
-5.49143e-05
0.000149357
-8.17134e-05
0.000156554
-0.000112647
0.000161842
-0.000138395
0.000139302
-0.000156594
0.000109236
-0.000165947
7.52784e-05
-0.000167159
4.21468e-05
-0.000163863
1.65504e-05
-0.000158358
-3.52916e-06
-0.000151573
-2.03313e-05
-0.000143769
-3.5107e-05
-0.000134623
-4.88364e-05
-0.000124258
-6.13054e-05
-0.000112689
-7.26326e-05
-9.98542e-05
-8.27644e-05
-8.58591e-05
-9.16038e-05
-7.07765e-05
-9.92147e-05
-5.4622e-05
-0.000105439
-3.76754e-05
-0.000109908
-2.0224e-05
-0.000112364
-2.56187e-06
-0.000112636
1.48932e-05
-0.000110732
3.19491e-05
-0.00010659
4.8087e-05
-9.99634e-05
6.27634e-05
-9.10099e-05
7.57834e-05
-8.00623e-05
8.67239e-05
-6.69618e-05
9.52031e-05
-5.20033e-05
0.000100248
-3.5273e-05
0.000102359
-1.79717e-05
0.000100664
-2.1013e-07
9.57451e-05
1.69516e-05
8.79671e-05
3.21253e-05
7.79847e-05
4.49563e-05
6.66713e-05
5.45751e-05
5.44639e-05
6.13151e-05
4.22582e-05
6.4712e-05
3.0642e-05
6.58565e-05
2.01417e-05
6.55191e-05
9.61966e-06
6.5796e-05
-1.99816e-06
6.72645e-05
-1.47203e-05
6.75893e-05
-2.77034e-05
6.50331e-05
-3.96974e-05
5.88042e-05
-4.98441e-05
4.95703e-05
-5.76209e-05
3.7491e-05
-6.2525e-05
2.35021e-05
-6.48929e-05
8.86303e-06
-6.4208e-05
-6.57651e-06
-6.0661e-05
-2.17519e-05
-5.4553e-05
-3.63135e-05
-4.59423e-05
-5.00171e-05
-3.49178e-05
-6.26005e-05
-2.22574e-05
-7.31151e-05
-7.68931e-06
-8.17393e-05
8.16219e-06
-8.76659e-05
2.45143e-05
-9.03739e-05
4.07572e-05
-9.0059e-05
5.63533e-05
-8.66356e-05
7.06539e-05
-8.012e-05
8.30952e-05
-7.08657e-05
9.30604e-05
-5.9247e-05
0.000100257
-4.59551e-05
0.000104522
-3.17449e-05
0.000105714
-1.73463e-05
0.000104153
-3.75137e-06
0.000100288
8.26508e-06
9.50692e-05
1.7679e-05
8.97752e-05
2.3664e-05
8.62145e-05
2.58004e-05
8.61897e-05
2.50167e-05
8.91934e-05
2.61989e-05
9.05736e-05
3.74636e-05
8.40578e-05
6.09721e-05
6.97379e-05
8.43151e-05
5.02786e-05
0.000101105
3.54232e-05
9.19654e-05
2.02912e-05
8.50664e-05
0.000133595
-2.90444e-05
0.000220329
-6.76301e-05
0.000187943
-9.87314e-05
0.000187656
-0.000133791
0.000196902
-0.000165391
0.000170903
-0.000187104
0.00013095
-0.000195689
8.38633e-05
-0.000192513
3.89712e-05
-0.000184605
8.64239e-06
-0.000175294
-1.28411e-05
-0.000166115
-2.95105e-05
-0.000156457
-4.47658e-05
-0.000146179
-5.9115e-05
-0.000134508
-7.29761e-05
-0.000121616
-8.55238e-05
-0.000107456
-9.69233e-05
-9.20442e-05
-0.000107015
-7.5381e-05
-0.000115878
-5.74842e-05
-0.000123337
-3.85801e-05
-0.000128813
-1.90135e-05
-0.000131932
8.85021e-07
-0.000132535
2.06674e-05
-0.000130515
4.00101e-05
-0.000125934
5.84719e-05
-0.000118426
7.54464e-05
-0.000107985
9.0673e-05
-9.52891e-05
0.000103519
-7.9808e-05
0.000113154
-6.16374e-05
0.000119516
-4.16347e-05
0.000121454
-1.99091e-05
0.000119394
1.8508e-06
0.000113025
2.33209e-05
0.000103134
4.2017e-05
9.02897e-05
5.78019e-05
7.52611e-05
6.96046e-05
5.91437e-05
7.74332e-05
4.34028e-05
8.04535e-05
3.01985e-05
7.90614e-05
2.10361e-05
7.46819e-05
1.17735e-05
7.50587e-05
-1.23297e-06
8.02709e-05
-1.78162e-05
8.41725e-05
-3.49242e-05
8.21406e-05
-5.08236e-05
7.47031e-05
-6.36036e-05
6.23497e-05
-7.29585e-05
4.68452e-05
-7.91881e-05
2.97307e-05
-8.20286e-05
1.17027e-05
-8.09613e-05
-7.64395e-06
-7.71199e-05
-2.55925e-05
-6.99523e-05
-4.34794e-05
-6.00241e-05
-5.99435e-05
-4.75418e-05
-7.50812e-05
-3.23153e-05
-8.83403e-05
-1.48548e-05
-9.91988e-05
3.85388e-06
-0.000106374
2.33808e-05
-0.0001099
4.28087e-05
-0.000109486
6.13447e-05
-0.000105171
7.8405e-05
-9.71796e-05
9.31257e-05
-8.55858e-05
0.000104838
-7.0959e-05
0.00011305
-5.41669e-05
0.000117426
-3.61217e-05
0.000118015
-1.79355e-05
0.000114918
-6.54929e-07
0.000108748
1.44343e-05
0.000100709
2.57188e-05
9.27304e-05
3.16425e-05
8.80226e-05
3.05083e-05
9.07419e-05
2.22971e-05
0.000100941
1.6e-05
0.000109464
2.89393e-05
0.000103401
6.70349e-05
8.55484e-05
0.000102169
6.38822e-05
0.000122775
4.76343e-05
0.000108213
2.35153e-05
0.000109187
0.000157109
-1.70764e-05
0.000237406
-8.45311e-05
0.000255398
-0.000131165
0.00023429
-0.000168718
0.000234455
-0.000206318
0.000208504
-0.000231935
0.000156566
-0.000237642
8.95702e-05
-0.000223631
2.49611e-05
-0.000206847
-8.14199e-06
-0.000193954
-2.5733e-05
-0.000182555
-4.09098e-05
-0.000171906
-5.54138e-05
-0.000160747
-7.02738e-05
-0.000148193
-8.55307e-05
-0.00013364
-0.000100077
-0.000117489
-0.000113076
-9.98093e-05
-0.000124695
-8.07868e-05
-0.000134901
-6.05284e-05
-0.000143595
-3.92503e-05
-0.000150091
-1.71945e-05
-0.000153988
5.30082e-06
-0.000155031
2.77786e-05
-0.000152993
4.9863e-05
-0.000148018
7.0784e-05
-0.000139346
9.0641e-05
-0.000127841
0.000108412
-0.00011306
0.000123709
-9.51051e-05
0.000135952
-7.38804e-05
0.000143623
-4.93051e-05
0.000146045
-2.23315e-05
0.000142584
5.3114e-06
0.000134463
3.1441e-05
0.000121378
5.51017e-05
0.000104052
7.51274e-05
8.25732e-05
9.10829e-05
6.00026e-05
0.000100004
4.06334e-05
9.98229e-05
2.77308e-05
9.19643e-05
2.18325e-05
8.05807e-05
1.61864e-05
8.07055e-05
3.62906e-06
9.28291e-05
-1.72446e-05
0.000105047
-4.16144e-05
0.000106512
-6.33038e-05
9.63942e-05
-8.10681e-05
8.01156e-05
-9.34805e-05
5.92597e-05
-0.000100681
3.6934e-05
-0.000103303
1.43275e-05
-0.000102393
-8.55182e-06
-9.72041e-05
-3.07791e-05
-8.92e-05
-5.14822e-05
-7.7851e-05
-7.12921e-05
-6.29298e-05
-9.00026e-05
-4.48392e-05
-0.000106431
-2.45342e-05
-0.000119504
-2.09519e-06
-0.000128813
2.13081e-05
-0.000133304
4.46306e-05
-0.000132809
6.69597e-05
-0.0001275
8.73444e-05
-0.000117565
0.000105286
-0.000103528
0.000119602
-8.52763e-05
0.000129768
-6.43328e-05
0.000135136
-4.14913e-05
0.000135471
-1.82711e-05
0.000130821
3.99437e-06
0.000121517
2.37371e-05
0.000108726
3.85085e-05
9.36643e-05
4.67045e-05
8.09496e-05
4.32232e-05
8.44816e-05
1.87657e-05
0.00011507
-1.45866e-05
0.000146677
-2.66704e-06
0.000142663
7.10506e-05
0.000116839
0.000127992
9.42567e-05
0.000145358
6.8779e-05
0.00013369
2.26732e-05
0.000155293
0.000179781
-6.70337e-06
0.000244109
-7.54948e-05
0.000324189
-0.000168583
0.000327379
-0.000224203
0.000290074
-0.000271294
0.000255595
-0.000305869
0.000191141
-0.000302641
8.63419e-05
-0.000263646
-1.40339e-05
-0.000225913
-4.58749e-05
-0.000209972
-4.16738e-05
-0.000202672
-4.82103e-05
-0.00019438
-6.37055e-05
-0.000183692
-8.09623e-05
-0.000170336
-9.88861e-05
-0.000154113
-0.0001163
-0.000135223
-0.000131966
-0.000114171
-0.000145747
-9.1436e-05
-0.000157636
-6.77832e-05
-0.000167249
-4.33479e-05
-0.000174528
-1.80798e-05
-0.000179257
7.97907e-06
-0.00018109
3.44624e-05
-0.000179477
6.02245e-05
-0.000173781
8.48331e-05
-0.000163955
0.000107496
-0.000150504
0.000128235
-0.000133799
0.000146693
-0.000113563
0.000161693
-8.88805e-05
0.000171732
-5.93433e-05
0.000176087
-2.66871e-05
0.000172449
8.94955e-06
0.000161734
4.21562e-05
0.000143504
7.33314e-05
0.000118454
0.000100177
8.95108e-05
0.000120026
6.2687e-05
0.000126827
4.24067e-05
0.000120103
3.09805e-05
0.000103391
2.48951e-05
8.66666e-05
1.85464e-05
8.70549e-05
5.12814e-06
0.000106248
-1.74658e-05
0.000127642
-4.72894e-05
0.000136337
-7.77632e-05
0.000126869
-0.00010244
0.000104793
-0.000119197
7.60188e-05
-0.000128271
4.60084e-05
-0.000130897
1.69531e-05
-0.000128093
-1.13559e-05
-0.000121852
-3.70204e-05
-0.000111867
-6.1467e-05
-9.84418e-05
-8.47176e-05
-8.17304e-05
-0.000106714
-6.09891e-05
-0.000127172
-3.62391e-05
-0.000144254
-8.68229e-06
-0.00015637
2.00081e-05
-0.000161994
4.84635e-05
-0.000161264
7.54442e-05
-0.000154481
0.000100539
-0.00014266
0.000122951
-0.00012594
0.000142114
-0.000104439
0.000156273
-7.8492e-05
0.000163917
-4.91346e-05
0.000164403
-1.87572e-05
0.000157174
1.12247e-05
0.000141742
3.91694e-05
0.000115742
6.45089e-05
7.86229e-05
8.38231e-05
4.51207e-05
7.67251e-05
5.17333e-05
1.21526e-05
0.000112092
-7.49465e-05
0.00018904
-7.96174e-05
0.000208242
5.18502e-05
0.000173072
0.000163164
0.000136832
0.000181597
7.79749e-05
0.00019255
1.15996e-05
0.000221667
0.000191383
4.64155e-06
0.000239468
-1.58415e-05
0.000344672
-0.000157637
0.000469175
-0.000288477
0.000420914
-0.00035731
0.000324427
-0.000409096
0.000242928
-0.000407547
8.47924e-05
-0.00034562
-7.59607e-05
-0.00026321
-0.000128286
-0.000216946
-8.79374e-05
-0.00020719
-5.79667e-05
-0.000205711
-6.51841e-05
-0.000198186
-8.84884e-05
-0.000185509
-0.000111565
-0.000170972
-0.000130839
-0.000154484
-0.000148455
-0.000134074
-0.000166159
-0.000109923
-0.000181787
-8.32239e-05
-0.000193948
-5.53095e-05
-0.000202441
-2.62684e-05
-0.000208297
4.19888e-06
-0.000211556
3.57538e-05
-0.000211031
6.63619e-05
-0.000204388
9.50906e-05
-0.000192683
0.000121356
-0.000176769
0.000145919
-0.000158361
0.00016916
-0.000136803
0.00018963
-0.00010935
0.000204146
-7.3859e-05
0.000209748
-3.22893e-05
0.000206431
1.22675e-05
0.000192317
5.62702e-05
0.000168462
9.71876e-05
0.000138228
0.000130411
0.000108327
0.000149927
8.39474e-05
0.000151207
6.67828e-05
0.000137267
5.13576e-05
0.000118815
3.42838e-05
0.00010374
1.32492e-05
0.000108088
-9.59002e-06
0.000129086
-3.61261e-05
0.000154177
-6.7994e-05
0.000168204
-0.000101753
0.000160627
-0.000131094
0.000134133
-0.000151149
9.60716e-05
-0.000161262
5.61203e-05
-0.000162644
1.83339e-05
-0.000157043
-1.69574e-05
-0.000146897
-4.71663e-05
-0.000134173
-7.41906e-05
-0.000118913
-9.99777e-05
-9.96401e-05
-0.000125986
-7.53628e-05
-0.000151449
-4.54063e-05
-0.00017421
-1.10652e-05
-0.00019071
2.53849e-05
-0.000198443
6.0415e-05
-0.000196293
9.33137e-05
-0.000187378
0.000123973
-0.000173318
0.000152285
-0.00015425
0.000176461
-0.000128615
0.000192811
-9.48397e-05
0.000198357
-5.468e-05
0.00019281
-1.3209e-05
0.000177781
2.62547e-05
0.000150685
6.6265e-05
0.000109224
0.00010597
6.29522e-05
0.000130095
4.16962e-05
9.79808e-05
7.36143e-05
-1.97654e-05
0.000135784
-0.000137115
0.000212008
-0.00015584
0.000255483
8.37416e-06
0.000224891
0.000193756
0.000139477
0.00026701
1.80403e-05
0.000313987
-2.3827e-05
0.000263536
0.000167555
9.6938e-05
0.00014253
0.000157216
0.000284395
3.74609e-06
0.000622644
-0.000251409
0.000676069
-0.000415007
0.000488024
-0.000511799
0.000339719
-0.000557952
0.000130945
-0.000515466
-0.000118447
-0.000397228
-0.000246523
-0.000276688
-0.000208479
-0.000205275
-0.000129381
-0.000173908
-9.65532e-05
-0.000156979
-0.000105418
-0.000146466
-0.000122079
-0.000142411
-0.000134896
-0.000141195
-0.00014967
-0.000134893
-0.00017246
-0.000118909
-0.00019777
-9.38455e-05
-0.000219011
-6.36482e-05
-0.000232637
-3.06337e-05
-0.00024131
4.07477e-06
-0.000246264
3.93547e-05
-0.00024631
7.44707e-05
-0.000239503
0.000108101
-0.000226313
0.000141529
-0.000210196
0.000175544
-0.000192376
0.000210092
-0.000171352
0.000239502
-0.00013876
0.000258138
-9.24946e-05
0.000262724
-3.68745e-05
0.000254491
2.05005e-05
0.000235206
7.55551e-05
0.000208561
0.000123833
0.000179884
0.000159087
0.000154617
0.000175194
0.000133624
0.000172199
0.000111619
0.000159271
8.54674e-05
0.000144967
5.01082e-05
0.000139098
3.79955e-06
0.000154397
-4.53382e-05
0.000178224
-8.942e-05
0.000198258
-0.000127681
0.000206464
-0.000161499
0.000194444
-0.000186746
0.000159378
-0.000201565
0.000110891
-0.000205694
6.02493e-05
-0.000201738
1.43777e-05
-0.000192175
-2.65206e-05
-0.00017862
-6.07206e-05
-0.000163406
-8.94042e-05
-0.000146605
-0.000116779
-0.000125507
-0.000147083
-9.69798e-05
-0.000179976
-6.01287e-05
-0.000211061
-1.63329e-05
-0.000234505
2.90996e-05
-0.000243875
7.33883e-05
-0.000240581
0.000113954
-0.000227943
0.000150988
-0.000210352
0.000182403
-0.000185663
0.000203933
-0.000150144
0.000210204
-0.000101109
0.000200085
-4.45612e-05
0.000177962
8.91512e-06
0.000151736
5.248e-05
0.000129323
8.86781e-05
0.000121453
0.000113839
0.000143715
0.000107834
0.000202566
3.913e-05
0.000266077
-8.32758e-05
0.000299138
-0.000170178
0.000294571
-0.000151271
0.000272677
3.02673e-05
0.000189331
0.000277103
3.37348e-07
0.000456005
-0.000154233
0.000468555
-0.000105913
0.000215217
6.16418e-05
0.000184259
-4.17292e-05
0.000299927
0.000168726
0.000173979
0.000748592
-0.000113184
0.000963232
-0.000379816
0.000754656
-0.000558994
0.000518897
-0.000681182
0.000253134
-0.000697443
-0.000102188
-0.000602976
-0.000340991
-0.000448125
-0.000363332
-0.000297299
-0.000280207
-0.000179131
-0.000214721
-0.000101557
-0.000182992
-6.63802e-05
-0.000157255
-6.28199e-05
-0.000138455
-7.77243e-05
-0.000134766
-9.1887e-05
-0.000158297
-9.04235e-05
-0.000199234
-7.02969e-05
-0.000239137
-3.6744e-05
-0.00026619
1.55254e-06
-0.000279607
3.98098e-05
-0.000284521
7.69168e-05
-0.000283417
0.000114249
-0.000276836
0.000154065
-0.00026613
0.000198188
-0.000254321
0.000248201
-0.000242389
0.00029806
-0.000221212
0.000339194
-0.000179895
0.00036212
-0.000115421
0.000362401
-3.71555e-05
0.000343363
3.95375e-05
0.000314067
0.000104851
0.00028199
0.00015591
0.000252116
0.000188962
0.000224301
0.000203009
0.000193622
0.000202879
0.00015843
0.000194464
0.000121495
0.000181903
7.49e-05
0.000185694
2.98527e-06
0.000226312
-8.45884e-05
0.000265798
-0.000165389
0.000279061
-0.000228501
0.000269577
-0.000269899
0.000235844
-0.000288989
0.00017847
-0.000289865
0.000111768
-0.000281358
5.17429e-05
-0.0002698
2.82125e-06
-0.000258083
-3.8237e-05
-0.000246056
-7.27471e-05
-0.000234302
-0.000101158
-0.000220067
-0.000131013
-0.000198414
-0.000168736
-0.000164241
-0.000214149
-0.000117417
-0.000257884
-6.38001e-05
-0.000288122
-7.642e-06
-0.000300033
4.72301e-05
-0.000295453
9.91626e-05
-0.000279876
0.00014498
-0.000256171
0.000177367
-0.00021805