/*--------------------------------*- C++ -*----------------------------------*\
| =========                 |                                                 |
| \\      /  F ield         | OpenFOAM: The Open Source CFD Toolbox           |
|  \\    /   O peration     | Version:  2412                                  |
|   \\  /    A nd           | Website:  www.openfoam.com                      |
|    \\/     M anipulation  |                                                 |
\*---------------------------------------------------------------------------*/
FoamFile
{
    version     2.0;
    format      ascii;
    arch        "LSB;label=32;scalar=64";
    class       surfaceScalarField;
    location    "4.4";
    object      alphaPhi0.water;
}
// * * * * * * * * * * * * * * * * * * * * * * * * * * * * * * * * * * * * * //

dimensions      [0 3 -1 0 0 0 0];

oriented        oriented;

internalField   nonuniform List<scalar> 
12640
(
-2.8152e-05
2.81519e-05
-5.08908e-05
2.27388e-05
-7.37449e-05
2.28541e-05
-9.52647e-05
2.152e-05
-0.000114385
1.912e-05
-0.000130569
1.61848e-05
-0.000143567
1.29979e-05
-0.000153259
9.6922e-06
-0.000159668
6.40947e-06
-0.000162864
3.19552e-06
-0.000162958
9.42389e-08
-0.000160188
-2.77084e-06
-0.000154828
-5.36022e-06
-0.000147473
-7.3557e-06
-0.000138447
-9.02483e-06
-0.000128366
-1.00814e-05
-0.000117558
-1.0808e-05
-0.00010649
-1.10682e-05
-9.55915e-05
-1.08981e-05
-8.51992e-05
-1.03921e-05
-7.56417e-05
-9.55721e-06
-6.71698e-05
-8.47189e-06
-5.99699e-05
-7.20042e-06
-5.41595e-05
-5.81118e-06
-4.97732e-05
-4.38696e-06
-4.67467e-05
-3.02728e-06
-4.48578e-05
-1.88962e-06
-4.37883e-05
-1.07021e-06
-4.3246e-05
-5.42995e-07
-4.29639e-05
-2.82169e-07
-4.27324e-05
-2.3128e-07
-4.24629e-05
-2.69213e-07
-4.20293e-05
-4.32967e-07
-4.10744e-05
-9.54474e-07
-3.92129e-05
-1.86149e-06
-3.61688e-05
-3.04406e-06
-3.18037e-05
-4.36539e-06
-2.62148e-05
-5.58985e-06
-1.95809e-05
-6.63471e-06
-1.22244e-05
-7.3567e-06
-4.61222e-06
-7.61205e-06
2.76135e-06
-7.37325e-06
9.46321e-06
-6.70122e-06
1.51856e-05
-5.72179e-06
1.97872e-05
-4.60131e-06
2.32513e-05
-3.46384e-06
2.57138e-05
-2.46198e-06
2.75006e-05
-1.78627e-06
2.90295e-05
-1.52861e-06
3.05489e-05
-1.51925e-06
3.21537e-05
-1.6046e-06
3.39054e-05
-1.75154e-06
3.60049e-05
-2.0995e-06
3.87381e-05
-2.73315e-06
4.24165e-05
-3.67841e-06
4.73332e-05
-4.91668e-06
5.35289e-05
-6.19571e-06
6.08864e-05
-7.35743e-06
6.93188e-05
-8.43233e-06
7.86771e-05
-9.35823e-06
8.87207e-05
-1.00435e-05
9.91736e-05
-1.04531e-05
0.000109728
-1.05546e-05
0.000120059
-1.03313e-05
0.00012975
-9.69162e-06
0.000138372
-8.62165e-06
0.000145479
-7.10678e-06
0.000150652
-5.17264e-06
0.000153484
-2.8312e-06
0.000153582
-9.75896e-08
0.0001507
2.88314e-06
0.00014474
5.96136e-06
0.000135683
9.05883e-06
0.000123453
1.22305e-05
0.00010817
1.52831e-05
9.01184e-05
1.8052e-05
6.97238e-05
2.03947e-05
4.79703e-05
2.17534e-05
2.63301e-05
2.16409e-05
2.6331e-05
-2.94768e-05
5.76281e-05
-5.33321e-05
4.65943e-05
-7.72994e-05
4.6822e-05
-9.96707e-05
4.38918e-05
-0.000119401
3.88506e-05
-0.000135959
3.27434e-05
-0.000149025
2.60636e-05
-0.00015852
1.91878e-05
-0.000164423
1.23123e-05
-0.000166863
5.6346e-06
-0.000166103
-6.65929e-07
-0.000162593
-6.28046e-06
-0.000156639
-1.13139e-05
-0.000148602
-1.53931e-05
-0.000138967
-1.86592e-05
-0.000128187
-2.08614e-05
-0.000116678
-2.23178e-05
-0.000104877
-2.28688e-05
-9.31637e-05
-2.26121e-05
-8.18677e-05
-2.16886e-05
-7.13045e-05
-2.01211e-05
-6.16569e-05
-1.81203e-05
-5.30631e-05
-1.57951e-05
-4.55932e-05
-1.32818e-05
-3.92054e-05
-1.07756e-05
-3.38783e-05
-8.35527e-06
-2.95733e-05
-6.19518e-06
-2.62705e-05
-4.37305e-06
-2.38788e-05
-2.93443e-06
-2.22289e-05
-1.93167e-06
-2.10764e-05
-1.38312e-06
-2.01154e-05
-1.23e-06
-1.90712e-05
-1.4771e-06
-1.79273e-05
-2.0982e-06
-1.67795e-05
-3.00965e-06
-1.56985e-05
-4.12548e-06
-1.46828e-05
-5.38118e-06
-1.37791e-05
-6.49302e-06
-1.29171e-05
-7.49596e-06
-1.20212e-05
-8.25162e-06
-1.10271e-05
-8.60507e-06
-9.85487e-06
-8.54484e-06
-8.41395e-06
-8.14184e-06
-6.65957e-06
-7.47577e-06
-4.56821e-06
-6.69219e-06
-2.15012e-06
-5.88176e-06
5.0253e-07
-5.11474e-06
3.27157e-06
-4.55533e-06
6.03705e-06
-4.2938e-06
8.88511e-06
-4.3669e-06
1.20623e-05
-4.78146e-06
1.58314e-05
-5.52038e-06
2.03591e-05
-6.62708e-06
2.57165e-05
-8.09042e-06
3.18993e-05
-9.86119e-06
3.89017e-05
-1.19191e-05
4.6783e-05
-1.40772e-05
5.56087e-05
-1.61832e-05
6.53222e-05
-1.81459e-05
7.57522e-05
-1.97886e-05
8.67667e-05
-2.10587e-05
9.80828e-05
-2.17698e-05
0.000109485
-2.19572e-05
0.000120515
-2.13612e-05
0.00013083
-2.00061e-05
0.000139995
-1.77854e-05
0.000147663
-1.47744e-05
0.000153404
-1.09122e-05
0.000156771
-6.19734e-06
0.000157497
-8.21232e-07
0.000155297
5.0842e-06
0.0001498
1.14591e-05
0.000140946
1.79142e-05
0.000128602
2.45749e-05
0.000112976
3.09099e-05
9.43274e-05
3.67015e-05
7.31153e-05
4.16076e-05
5.03691e-05
4.45012e-05
2.77013e-05
4.431e-05
5.40321e-05
-3.07626e-05
8.83909e-05
-5.55029e-05
7.13355e-05
-8.03927e-05
7.17125e-05
-0.000103752
6.72512e-05
-0.000124234
5.93334e-05
-0.000141305
4.98144e-05
-0.000154695
3.94544e-05
-0.000164298
2.87908e-05
-0.000170216
1.82302e-05
-0.000172492
7.91102e-06
-0.000171383
-1.77357e-06
-0.000167317
-1.03463e-05
-0.000160677
-1.79542e-05
-0.000151808
-2.42621e-05
-0.000141294
-2.91748e-05
-0.000129647
-3.25094e-05
-0.000117317
-3.46486e-05
-0.000104766
-3.54208e-05
-9.24411e-05
-3.49381e-05
-8.07608e-05
-3.33695e-05
-6.99986e-05
-3.08833e-05
-6.04226e-05
-2.76961e-05
-5.21796e-05
-2.40379e-05
-4.53372e-05
-2.01242e-05
-3.98943e-05
-1.62183e-05
-3.57255e-05
-1.25237e-05
-3.26981e-05
-9.22246e-06
-3.06417e-05
-6.4292e-06
-2.93837e-05
-4.1924e-06
-2.86478e-05
-2.66776e-06
-2.82109e-05
-1.82042e-06
-2.7753e-05
-1.68788e-06
-2.70061e-05
-2.22351e-06
-2.58808e-05
-3.22239e-06
-2.4395e-05
-4.49362e-06
-2.25002e-05
-6.01798e-06
-2.03297e-05
-7.54972e-06
-1.78264e-05
-8.99518e-06
-1.50862e-05
-1.02357e-05
-1.21904e-05
-1.11477e-05
-9.19014e-06
-1.16061e-05
-6.08904e-06
-1.16464e-05
-2.92006e-06
-1.13108e-05
2.54434e-07
-1.06505e-05
3.35845e-06
-9.79689e-06
6.30317e-06
-8.8269e-06
9.08628e-06
-7.89763e-06
1.16224e-05
-7.09102e-06
1.39159e-05
-6.5869e-06
1.60757e-05
-6.52653e-06
1.8354e-05
-7.05948e-06
2.09987e-05
-8.16481e-06
2.42376e-05
-9.86581e-06
2.83041e-05
-1.21568e-05
3.3315e-05
-1.48721e-05
3.93721e-05
-1.79763e-05
4.65637e-05
-2.12689e-05
5.49555e-05
-2.45752e-05
6.44603e-05
-2.7651e-05
7.49603e-05
-3.02887e-05
8.62243e-05
-3.2323e-05
9.80621e-05
-3.36076e-05
0.000110045
-3.39402e-05
0.00012178
-3.30949e-05
0.000132827
-3.1052e-05
0.000142838
-2.7796e-05
0.000151267
-2.32026e-05
0.00015762
-1.72658e-05
0.000161622
-1.02003e-05
0.000162742
-1.94181e-06
0.000160654
7.17318e-06
0.000155246
1.68684e-05
0.000146187
2.69745e-05
0.00013362
3.71427e-05
0.000117559
4.69728e-05
9.82337e-05
5.6028e-05
7.61387e-05
6.37041e-05
5.25854e-05
6.8055e-05
2.8984e-05
6.79122e-05
8.30164e-05
-3.34599e-05
0.000121851
-6.00016e-05
9.78785e-05
-8.65632e-05
9.82748e-05
-0.000111566
9.22544e-05
-0.000133386
8.11534e-05
-0.000151327
6.77559e-05
-0.000165135
5.32637e-05
-0.000174738
3.83949e-05
-0.000180247
2.37394e-05
-0.000181924
9.5889e-06
-0.000179988
-3.70958e-06
-0.000174697
-1.56374e-05
-0.000166688
-2.59636e-05
-0.000156543
-3.44072e-05
-0.000144743
-4.09763e-05
-0.000131729
-4.55233e-05
-0.00011811
-4.8268e-05
-0.000104404
-4.91276e-05
-9.10816e-05
-4.82606e-05
-7.85524e-05
-4.58992e-05
-6.71693e-05
-4.22669e-05
-5.71906e-05
-3.76754e-05
-4.87759e-05
-3.24533e-05
-4.20321e-05
-2.68685e-05
-3.69354e-05
-2.13152e-05
-3.33627e-05
-1.60964e-05
-3.11e-05
-1.14852e-05
-2.99475e-05
-7.58214e-06
-2.96038e-05
-4.53656e-06
-2.97998e-05
-2.47182e-06
-3.02151e-05
-1.4052e-06
-3.05618e-05
-1.34075e-06
-3.06349e-05
-2.14969e-06
-3.02467e-05
-3.61039e-06
-2.9182e-05
-5.55846e-06
-2.73668e-05
-7.83341e-06
-2.47437e-05
-1.01735e-05
-2.13404e-05
-1.23993e-05
-1.73013e-05
-1.42752e-05
-1.28442e-05
-1.56043e-05
-8.18548e-06
-1.62643e-05
-3.59747e-06
-1.62344e-05
7.17939e-07
-1.56262e-05
4.57333e-06
-1.45054e-05
7.86721e-06
-1.309e-05
1.06427e-05
-1.16017e-05
1.28788e-05
-1.01333e-05
1.46822e-05
-8.89426e-06
1.61681e-05
-8.07245e-06
1.75191e-05
-7.877e-06
1.89422e-05
-8.48179e-06
2.07435e-05
-9.96541e-06
2.31656e-05
-1.22873e-05
2.64483e-05
-1.54389e-05
3.08173e-05
-1.92406e-05
3.65232e-05
-2.3682e-05
4.35855e-05
-2.83312e-05
5.20823e-05
-3.30722e-05
6.19535e-05
-3.75223e-05
7.30167e-05
-4.1352e-05
8.50796e-05
-4.43856e-05
9.78063e-05
-4.6334e-05
0.000110821
-4.69543e-05
0.000123708
-4.59817e-05
0.00013602
-4.33636e-05
0.00014726
-3.90367e-05
0.000156881
-3.28246e-05
0.00016452
-2.49051e-05
0.000169556
-1.52355e-05
0.00017158
-3.96336e-06
0.000170227
8.52756e-06
0.000165072
2.20233e-05
0.000156162
3.58858e-05
0.000143197
5.01094e-05
0.000126276
6.38948e-05
0.000105633
7.66721e-05
8.19783e-05
8.73608e-05
5.66587e-05
9.33756e-05
3.14492e-05
9.31233e-05
0.000114467
-3.7179e-05
0.000159031
-6.608e-05
0.000126781
-9.52218e-05
0.000127417
-0.000122665
0.000119698
-0.000146382
0.000104871
-0.000165505
8.68797e-05
-0.000179804
6.75639e-05
-0.000189278
4.78696e-05
-0.000194207
2.86686e-05
-0.000194854
1.02362e-05
-0.000191511
-7.05371e-06
-0.000184691
-2.2456e-05
-0.000175099
-3.55566e-05
-0.000163021
-4.64843e-05
-0.000149238
-5.47589e-05
-0.000134245
-6.05165e-05
-0.00011873
-6.37828e-05
-0.000103313
-6.45445e-05
-8.8462e-05
-6.31117e-05
-7.46716e-05
-5.96902e-05
-6.23059e-05
-5.46332e-05
-5.16487e-05
-4.83332e-05
-4.29173e-05
-4.11851e-05
-3.61439e-05
-3.3642e-05
-3.13548e-05
-2.61044e-05
-2.8291e-05
-1.91607e-05
-2.67594e-05
-1.30173e-05
-2.64806e-05
-7.86122e-06
-2.71112e-05
-3.9063e-06
-2.82793e-05
-1.30361e-06
-2.96454e-05
-3.96497e-08
-3.08645e-05
-1.22308e-07
-3.16996e-05
-1.3152e-06
-3.18902e-05
-3.42059e-06
-3.12082e-05
-6.24102e-06
-2.9565e-05
-9.47676e-06
-2.6853e-05
-1.2885e-05
-2.31584e-05
-1.60932e-05
-1.8625e-05
-1.88082e-05
-1.35379e-05
-2.06913e-05
-8.20992e-06
-2.15923e-05
-3.03258e-06
-2.14112e-05
1.77634e-06
-2.04338e-05
5.92427e-06
-1.86517e-05
9.35212e-06
-1.65166e-05
1.19745e-05
-1.42231e-05
1.38464e-05
-1.20043e-05
1.51047e-05
-1.01517e-05
1.59089e-05
-8.87595e-06
1.64788e-05
-8.44642e-06
1.70704e-05
-9.07304e-06
1.79943e-05
-1.08891e-05
1.96317e-05
-1.39245e-05
2.22575e-05
-1.80646e-05
2.6138e-05
-2.31211e-05
3.1519e-05
-2.90632e-05
3.86183e-05
-3.54306e-05
4.73478e-05
-4.18019e-05
5.77517e-05
-4.79261e-05
6.9748e-05
-5.33484e-05
8.29425e-05
-5.758e-05
9.70099e-05
-6.04011e-05
0.00011153
-6.14747e-05
0.000126128
-6.05796e-05
0.000140263
-5.7498e-05
0.000153245
-5.20184e-05
0.00016474
-4.43169e-05
0.000173972
-3.41351e-05
0.000180491
-2.17536e-05
0.000183887
-7.35758e-06
0.000183424
8.99054e-06
0.000178969
2.64782e-05
0.000170074
4.47812e-05
0.00015663
6.35541e-05
0.000138594
8.19316e-05
0.000116196
9.9071e-05
9.02423e-05
0.000113315
6.24298e-05
0.000121188
3.48505e-05
0.000120704
0.000149317
-4.19815e-05
0.000201014
-7.42248e-05
0.000159025
-0.0001067
0.000159893
-0.000137479
0.000150479
-0.000163737
0.00013113
-0.000184338
0.000107482
-0.000199136
8.23622e-05
-0.000208407
5.71404e-05
-0.000212447
3.27082e-05
-0.000211687
9.47612e-06
-0.000206587
-1.2153e-05
-0.000197706
-3.13366e-05
-0.000185736
-4.75268e-05
-0.000171153
-6.1067e-05
-0.000154636
-7.12754e-05
-0.000137143
-7.80101e-05
-0.000119267
-8.16583e-05
-0.000101579
-8.22311e-05
-8.47104e-05
-7.99802e-05
-6.92288e-05
-7.51716e-05
-5.55871e-05
-6.82746e-05
-4.40782e-05
-5.98417e-05
-3.49227e-05
-5.03405e-05
-2.82014e-05
-4.03633e-05
-2.38362e-05
-3.04694e-05
-2.15838e-05
-2.14128e-05
-2.10854e-05
-1.35153e-05
-2.19782e-05
-6.96761e-06
-2.38718e-05
-2.01166e-06
-2.6305e-05
1.13083e-06
-2.8976e-05
2.63248e-06
-3.12872e-05
2.18944e-06
-3.30155e-05
4.13468e-07
-3.38874e-05
-2.54884e-06
-3.36313e-05
-6.49721e-06
-3.2076e-05
-1.1032e-05
-2.92402e-05
-1.57206e-05
-2.52237e-05
-2.01092e-05
-2.0131e-05
-2.38996e-05
-1.43851e-05
-2.64351e-05
-8.29651e-06
-2.7679e-05
-2.46305e-06
-2.72434e-05
2.86836e-06
-2.57644e-05
7.40911e-06
-2.3192e-05
1.09797e-05
-2.0087e-05
1.3518e-05
-1.67612e-05
1.50476e-05
-1.35336e-05
1.56954e-05
-1.07991e-05
1.56694e-05
-8.8496e-06
1.52379e-05
-8.01441e-06
1.47298e-05
-8.56436e-06
1.45393e-05
-1.06981e-05
1.50802e-05
-1.4465e-05
1.67235e-05
-1.97075e-05
1.98297e-05
-2.6227e-05
2.47863e-05
-3.40196e-05
3.17616e-05
-4.24058e-05
4.08964e-05
-5.09367e-05
5.20902e-05
-5.91199e-05
6.51677e-05
-6.64261e-05
7.98199e-05
-7.22326e-05
9.56707e-05
-7.62523e-05
0.000112249
-7.80523e-05
0.000129022
-7.73523e-05
0.000145421
-7.38954e-05
0.000160874
-6.74713e-05
0.000174651
-5.80933e-05
0.000186126
-4.56099e-05
0.000194643
-3.02714e-05
0.00019976
-1.2475e-05
0.000200687
8.06209e-06
0.000197097
3.00683e-05
0.000188493
5.33862e-05
0.000174586
7.74615e-05
0.000155138
0.00010138
0.000130356
0.000123853
0.000101144
0.000142528
7.00877e-05
0.000152246
3.93035e-05
0.000151489
0.000188621
-4.78537e-05
0.000248868
-8.45437e-05
0.000195716
-0.000121601
0.000196951
-0.00015701
0.00018589
-0.000186476
0.000160596
-0.000208741
0.000129747
-0.00022396
9.75812e-05
-0.000232611
6.57911e-05
-0.000235357
3.54543e-05
-0.000232693
6.812e-06
-0.000225232
-1.96145e-05
-0.000213812
-4.27572e-05
-0.000198709
-6.26302e-05
-0.000180941
-7.88357e-05
-0.000161332
-9.08845e-05
-0.0001405
-9.88428e-05
-0.000119443
-0.000102716
-9.88478e-05
-0.000102827
-7.94702e-05
-9.93579e-05
-6.18717e-05
-9.277e-05
-4.66002e-05
-8.35459e-05
-3.40567e-05
-7.23849e-05
-2.4471e-05
-5.99261e-05
-1.78301e-05
-4.70043e-05
-1.40713e-05
-3.42283e-05
-1.28857e-05
-2.2598e-05
-1.38152e-05
-1.25851e-05
-1.63358e-05
-4.44627e-06
-2.00159e-05
1.6694e-06
-2.41641e-05
5.27907e-06
-2.83165e-05
6.78458e-06
-3.20899e-05
5.96238e-06
-3.50978e-05
3.42072e-06
-3.68715e-05
-7.75825e-07
-3.72024e-05
-6.16648e-06
-3.5886e-05
-1.23481e-05
-3.28705e-05
-1.87356e-05
-2.82234e-05
-2.4756e-05
-2.22519e-05
-2.98714e-05
-1.54183e-05
-3.32693e-05
-8.22192e-06
-3.48766e-05
-1.35982e-06
-3.41069e-05
4.75897e-06
-3.18843e-05
9.84679e-06
-2.82805e-05
1.3639e-05
-2.38794e-05
1.6057e-05
-1.9179e-05
1.70844e-05
-1.45606e-05
1.69034e-05
-1.06177e-05
1.57497e-05
-7.69544e-06
1.39375e-05
-6.2018e-06
1.19224e-05
-6.54891e-06
1.01737e-05
-8.9491e-06
9.17804e-06
-1.34691e-05
9.46065e-06
-1.99898e-05
1.1604e-05
-2.83701e-05
1.59188e-05
-3.83341e-05
2.27811e-05
-4.9268e-05
3.22158e-05
-6.03714e-05
4.43399e-05
-7.12443e-05
5.88006e-05
-8.0887e-05
7.53599e-05
-8.87919e-05
9.34415e-05
-9.43338e-05
0.000112628
-9.72391e-05
0.000132192
-9.69173e-05
0.000151615
-9.3319e-05
0.000170129
-8.59859e-05
0.000186866
-7.48319e-05
0.000201116
-5.986e-05
0.000212298
-4.14533e-05
0.000219644
-1.98205e-05
0.000222532
5.17521e-06
0.000220206
3.23968e-05
0.000212166
6.14279e-05
0.000197861
9.17665e-05
0.000176766
0.000122476
0.000148859
0.000151761
0.000115248
0.000176141
7.973e-05
0.000187766
4.46619e-05
0.000186558
0.000233284
-5.44491e-05
0.000303318
-9.68246e-05
0.000238092
-0.000140084
0.00024021
-0.000182319
0.000228126
-0.000216128
0.000194405
-0.00024019
0.00015381
-0.000255335
0.000112726
-0.000262713
7.31691e-05
-0.000263519
3.62601e-05
-0.000258368
1.65994e-06
-0.000248016
-2.99668e-05
-0.000233209
-5.75665e-05
-0.000214363
-8.14779e-05
-0.000192741
-0.00010046
-0.000168868
-0.000114759
-0.000143943
-0.000123769
-0.000118985
-0.000127675
-9.48067e-05
-0.000127005
-7.22205e-05
-0.000121944
-5.19994e-05
-0.000112991
-3.47088e-05
-0.000100837
-2.09131e-05
-8.61809e-05
-1.08252e-05
-7.00142e-05
-4.38549e-06
-5.34442e-05
-1.60674e-06
-3.70071e-05
-1.87678e-06
-2.23283e-05
-4.76921e-06
-9.69332e-06
-9.58898e-06
3.71919e-07
-1.52677e-05
7.34711e-06
-2.14803e-05
1.14899e-05
-2.77688e-05
1.30717e-05
-3.34822e-05
1.16756e-05
-3.80892e-05
8.02823e-06
-4.10947e-05
2.23054e-06
-4.21604e-05
-5.10027e-06
-4.10816e-05
-1.34274e-05
-3.77387e-05
-2.20803e-05
-3.22761e-05
-3.02212e-05
-2.50306e-05
-3.71192e-05
-1.67224e-05
-4.15791e-05
-7.89847e-06
-4.37014e-05
3.89464e-07
-4.2395e-05
7.64842e-06
-3.91428e-05
1.34274e-05
-3.40591e-05
1.74567e-05
-2.79084e-05
1.96967e-05
-2.1419e-05
2.01268e-05
-1.49909e-05
1.88764e-05
-9.36763e-06
1.62348e-05
-5.05402e-06
1.26201e-05
-2.58742e-06
8.61239e-06
-2.54136e-06
4.78056e-06
-5.1173e-06
1.79532e-06
-1.04836e-05
2.22133e-07
-1.84163e-05
9.9296e-07
-2.91407e-05
4.33651e-06
-4.16775e-05
1.09918e-05
-5.59231e-05
2.09643e-05
-7.03437e-05
3.41358e-05
-8.44156e-05
5.03812e-05
-9.7132e-05
6.92444e-05
-0.000107655
9.01573e-05
-0.000115247
0.000112463
-0.000119545
0.00013549
-0.000119945
0.000158587
-0.000116416
0.000180765
-0.000108163
0.000201298
-9.53641e-05
0.000219238
-7.7798e-05
0.000233713
-5.59271e-05
0.000243892
-2.99976e-05
0.000249285
-2.16151e-07
0.000248933
3.2749e-05
0.000242115
6.82469e-05
0.000227759
0.000106122
0.000204856
0.00014538
0.000172896
0.000183722
0.000132855
0.000216181
9.12121e-05
0.00022941
5.08989e-05
0.000226871
0.000284182
-6.1556e-05
0.000364874
-0.000112033
0.000288569
-0.000163535
0.000291713
-0.000215497
0.000280088
-0.000254759
0.000233666
-0.00028014
0.000179191
-0.000294283
0.000126869
-0.000299597
7.84829e-05
-0.000297583
3.4245e-05
-0.000289096
-6.82768e-06
-0.000275249
-4.38148e-05
-0.000256291
-7.65252e-05
-0.000233103
-0.000104666
-0.000206453
-0.00012711
-0.000177512
-0.0001437
-0.000147562
-0.000153719
-0.000117603
-0.000157633
-8.89629e-05
-0.000155645
-6.2421e-05
-0.000148486
-3.89533e-05
-0.000136458
-1.92389e-05
-0.00012055
-3.8646e-06
-0.000101555
6.34615e-06
-8.02245e-05
1.18207e-05
-5.89186e-05
1.33857e-05
-3.85725e-05
1.12887e-05
-2.02318e-05
6.18561e-06
-4.59097e-06
-9.34719e-07
7.49125e-06
-9.48672e-06
1.5899e-05
-1.86335e-05
2.06374e-05
-2.74305e-05
2.18696e-05
-3.55044e-05
1.97505e-05
-4.22055e-05
1.4729e-05
-4.68001e-05
6.82356e-06
-4.88585e-05
-3.04366e-06
-4.81015e-05
-1.41857e-05
-4.43656e-05
-2.58165e-05
-3.77324e-05
-3.68538e-05
-2.87352e-05
-4.61151e-05
-1.83126e-05
-5.20002e-05
-7.2461e-06
-5.47669e-05
2.96926e-06
-5.26102e-05
1.17047e-05
-4.78786e-05
1.84637e-05
-4.08185e-05
2.29221e-05
-3.23671e-05
2.49296e-05
-2.34267e-05
2.44928e-05
-1.45542e-05
2.1875e-05
-6.74985e-06
1.73237e-05
-5.02727e-07
1.12957e-05
3.44063e-06
4.72094e-06
4.03348e-06
-1.81666e-06
1.42039e-06
-7.23968e-06
-5.06054e-06
-1.08904e-05
-1.47656e-05
-1.19329e-05
-2.80982e-05
-9.63435e-06
-4.3976e-05
-3.84454e-06
-6.17127e-05
6.21796e-06
-8.04055e-05
2.07211e-05
-9.89178e-05
3.91335e-05
-0.000115544
6.08488e-05
-0.000129369
8.52895e-05
-0.000139687
0.000111525
-0.00014578
0.000138911
-0.000147329
0.000166381
-0.000143884
0.000193329
-0.00013511
0.000218441
-0.000120474
0.000240741
-0.000100098
0.000259209
-7.43952e-05
0.000273135
-4.39258e-05
0.000281839
-8.92087e-06
0.000284299
3.02878e-05
0.000279513
7.30326e-05
0.000265854
0.000119782
0.000241348
0.000169886
0.000204402
0.000220668
0.000154927
0.000265657
0.00010455
0.000279786
5.71155e-05
0.000274308
0.000341298
-7.05016e-05
0.000435375
-0.000135584
0.000353651
-0.000197221
0.00035335
-0.000260562
0.000343429
-0.000305691
0.000278794
-0.000331073
0.000204572
-0.000342351
0.000138147
-0.000343884
8.00155e-05
-0.000337869
2.82309e-05
-0.000325604
-1.90928e-05
-0.000307451
-6.19673e-05
-0.00028363
-0.000100345
-0.000254954
-0.000133343
-0.00022201
-0.000160053
-0.000186739
-0.000178971
-0.000150616
-0.00018984
-0.000114979
-0.00019327
-8.07878e-05
-0.000189836
-4.93729e-05
-0.0001799
-2.18139e-05
-0.000164017
7.83454e-07
-0.000143148
1.77569e-05
-0.000118528
2.89579e-05
-9.14251e-05
3.41861e-05
-6.41463e-05
3.36632e-05
-3.8049e-05
2.85062e-05
-1.50741e-05
2.01756e-05
3.73981e-06
9.38566e-06
1.8282e-05
-2.83296e-06
2.81173e-05
-1.53073e-05
3.31102e-05
-2.73642e-05
3.39237e-05
-3.85144e-05
3.08979e-05
-4.7484e-05
2.36968e-05
-5.41049e-05
1.34441e-05
-5.75317e-05
3.84294e-07
-5.72272e-05
-1.44879e-05
-5.29271e-05
-3.01146e-05
-4.48387e-05
-4.49413e-05
-3.3583e-05
-5.73709e-05
-1.99726e-05
-6.56114e-05
-5.7368e-06
-6.90037e-05
6.76889e-06
-6.51168e-05
1.72029e-05
-5.83134e-05
2.51417e-05
-4.87579e-05
3.01676e-05
-3.73937e-05
3.19866e-05
-2.52462e-05
3.05664e-05
-1.31346e-05
2.62279e-05
-2.41173e-06
1.90155e-05
6.70936e-06
1.02228e-05
1.2233e-05
2.43554e-07
1.40126e-05
-9.73757e-06
1.14014e-05
-1.87386e-05
3.94035e-06
-2.54674e-05
-8.03693e-06
-2.924e-05
-2.43255e-05
-2.8785e-05
-4.44307e-05
-2.32332e-05
-6.72639e-05
-1.2624e-05
-9.10138e-05
3.29665e-06
-0.000114838
2.43597e-05
-0.000136606
4.96721e-05
-0.000154681
7.82825e-05
-0.000168296
0.000109349
-0.000176847
0.000141771
-0.00017975
0.000174933
-0.000177045
0.000207436
-0.000167614
0.000238253
-0.000151293
0.000266036
-0.000127883
0.000289438
-9.77986e-05
0.000307813
-6.23001e-05
0.000320651
-2.17581e-05
0.000327139
2.37996e-05
0.000325883
7.429e-05
0.000314587
0.00013108
0.000289104
0.000195371
0.000245811
0.000263961
0.00018414
0.000327329
0.000122858
0.000341069
6.47068e-05
0.000332458
0.000406006
-6.74536e-05
0.000502828
-0.000161955
0.000448153
-0.000251009
0.000442405
-0.00033178
0.000424199
-0.000379487
0.0003265
-0.000395886
0.000220971
-0.000399989
0.000142251
-0.000395408
7.5435e-05
-0.000384296
1.71184e-05
-0.000367424
-3.59646e-05
-0.000344724
-8.46684e-05
-0.000315281
-0.000129788
-0.00027973
-0.000168894
-0.00023956
-0.000200224
-0.000196722
-0.000221809
-0.000152718
-0.000233846
-0.000110005
-0.000235984
-6.91041e-05
-0.000230737
-3.18425e-05
-0.000217162
5.5029e-07
-0.00019641
2.67044e-05
-0.000169301
4.58506e-05
-0.000137673
5.76036e-05
-0.000103177
6.11596e-05
-6.77015e-05
5.84639e-05
-3.53532e-05
4.9771e-05
-6.38079e-06
3.72676e-05
1.62422e-05
2.19868e-05
3.35624e-05
5.42926e-06
4.46748e-05
-1.15743e-05
5.01144e-05
-2.76034e-05
4.99543e-05
-4.22042e-05
4.55003e-05
-5.43334e-05
3.58276e-05
-6.35955e-05
2.27072e-05
-6.87115e-05
5.50031e-06
-6.91293e-05
-1.4071e-05
-6.46017e-05
-3.46438e-05
-5.49379e-05
-5.46067e-05
-4.03016e-05
-7.20083e-05
-2.11222e-05
-8.47912e-05
-1.65784e-06
-8.84684e-05
1.34541e-05
-8.02289e-05
2.50552e-05
-6.99149e-05
3.39252e-05
-5.76283e-05
3.95097e-05
-4.29786e-05
4.10816e-05
-2.68186e-05
3.84717e-05
-1.05251e-05
3.17312e-05
4.3285e-06
2.19218e-05
1.65185e-05
9.34528e-06
2.48094e-05
-5.07649e-06
2.84342e-05
-1.94834e-05
2.58083e-05
-3.28543e-05
1.73113e-05
-4.35579e-05
2.66686e-06
-5.07971e-05
-1.7086e-05
-5.27261e-05
-4.25015e-05
-4.84461e-05
-7.15435e-05
-3.71475e-05
-0.000102312
-1.93297e-05
-0.000132655
4.88902e-06
-0.000160825
3.45661e-05
-0.000184358
6.84113e-05
-0.000202142
0.000105162
-0.000213598
0.0001437
-0.000218288
0.000183131
-0.000216478
0.000222684
-0.000207166
0.000260524
-0.000189132
0.00029492
-0.000162277
0.000324176
-0.000127053
0.000347759
-8.58816e-05
0.0003656
-3.95988e-05
0.000377605
1.17938e-05
0.000382362
6.95336e-05
0.000376991
0.00013645
0.000356588
0.000215775
0.00030918
0.000311368
0.000229303
0.000407207
0.000149285
0.00042109
6.95224e-05
0.000412221
0.000475528
-5.7611e-06
0.000508589
-0.000112573
0.000554964
-0.00030231
0.000632142
-0.00044793
0.000569818
-0.00049046
0.000369029
-0.00048013
0.000210642
-0.0004674
0.000129521
-0.00045523
6.3264e-05
-0.000438374
2.62277e-07
-0.000416383
-5.79571e-05
-0.000387879
-0.000113173
-0.000352232
-0.000165436
-0.000309226
-0.0002119
-0.000260248
-0.000249202
-0.000207488
-0.000274569
-0.000154653
-0.000286679
-0.000102648
-0.000287988
-5.34729e-05
-0.000279911
-8.66674e-06
-0.000261968
2.97223e-05
-0.000234799
6.10342e-05
-0.000200613
8.2916e-05
-0.000159555
9.47998e-05
-0.000115061
9.7603e-05
-7.05045e-05
9.00874e-05
-2.78375e-05
7.66052e-05
7.10235e-06
5.81212e-05
3.47278e-05
3.70302e-05
5.46554e-05
1.48972e-05
6.68096e-05
-7.13306e-06
7.21451e-05
-2.79631e-05
7.07841e-05
-4.66495e-05
6.41861e-05
-6.27226e-05
5.18993e-05
-7.48608e-05
3.48436e-05
-8.31162e-05
1.37539e-05
-8.58947e-05
-1.12933e-05
-8.22032e-05
-3.8335e-05
-7.06534e-05
-6.6156e-05
-5.01587e-05
-9.25025e-05
-2.15975e-05
-0.000113352
6.58774e-06
-0.000116653
2.56248e-05
-9.92658e-05
3.82145e-05
-8.25045e-05
4.69488e-05
-6.63623e-05
5.20756e-05
-4.81054e-05
5.29498e-05
-2.76929e-05
4.88782e-05
-6.45357e-06
3.98536e-05
1.3353e-05
2.63515e-05
3.00205e-05
8.84809e-06
4.23128e-05
-1.07726e-05
4.80549e-05
-3.12726e-05
4.63086e-05
-5.03488e-05
3.63877e-05
-6.65404e-05
1.88588e-05
-7.85734e-05
-5.05286e-06
-8.38641e-05
-3.72105e-05
-8.13534e-05
-7.40541e-05
-6.98861e-05
-0.00011378
-4.87772e-05
-0.000153764
-2.00805e-05
-0.000189521
1.48624e-05
-0.000219301
5.53459e-05
-0.000242625
9.95227e-05
-0.000257775
0.000145945
-0.00026471
0.000193315
-0.000263846
0.00024079
-0.000254641
0.000286573
-0.000234915
0.000328449
-0.000204153
0.000364482
-0.000163084
0.000394141
-0.000115541
0.000418198
-6.36553e-05
0.000436905
-6.91324e-06
0.00044963
5.68088e-05
0.000455952
0.000130128
0.000454153
0.000217574
0.000413174
0.000352349
0.000304498
0.000515882
0.00015074
0.000574849
2.8642e-05
0.000534319
0.000504171
8.17207e-05
0.000423404
0.000160571
0.000460313
-9.21951e-05
0.000876803
-0.000484342
0.000961964
-0.000637184
0.000521871
-0.000597774
0.000171231
-0.000548967
8.07135e-05
-0.000516869
3.1166e-05
-0.000492713
-2.38936e-05
-0.000468395
-8.22754e-05
-0.000439271
-0.000142297
-0.000401333
-0.000203374
-0.000351988
-0.000261244
-0.000292659
-0.00030853
-0.000228899
-0.000338329
-0.000163341
-0.000352237
-9.8831e-05
-0.000352498
-3.80118e-05
-0.000340731
1.66251e-05
-0.000316605
6.41444e-05
-0.000282318
0.000102036
-0.000238505
0.000128873
-0.000186392
0.000142517
-0.000128706
0.00014116
-6.91481e-05
0.000128824
-1.55005e-05
0.000108097
2.78292e-05
8.16067e-05
6.12181e-05
5.25944e-05
8.36659e-05
2.34084e-05
9.59938e-05
-4.09357e-06
9.9646e-05
-2.98875e-05
9.65769e-05
-5.2586e-05
8.68832e-05
-7.32058e-05
7.25179e-05
-9.06745e-05
5.23116e-05
-0.000104074
2.71532e-05
-0.000111191
-4.17626e-06
-0.000107872
-4.16527e-05
-9.19141e-05
-8.21141e-05
-6.30036e-05
-0.000121413
-2.37767e-05
-0.000152578
1.4861e-05
-0.00015529
4.16989e-05
-0.000126103
5.82027e-05
-9.90078e-05
6.7862e-05
-7.60212e-05
7.17469e-05
-5.199e-05
6.97505e-05
-2.56963e-05
6.25302e-05
7.66674e-07
5.07124e-05
2.51707e-05
3.43183e-05
4.64145e-05
1.30598e-05
6.35715e-05
-1.30289e-05
7.41439e-05
-4.11175e-05
7.43975e-05
-6.91107e-05
6.43814e-05
-9.38791e-05
4.36278e-05
-0.000112509
1.35774e-05
-0.000122823
-2.68951e-05
-0.000121995
-7.48817e-05
-0.000108381
-0.000127392
-8.27721e-05
-0.000179372
-4.72851e-05
-0.000225008
-4.10312e-06
-0.000262482
4.52458e-05
-0.000291973
9.97314e-05
-0.00031226
0.000156368
-0.000321347
0.000213652
-0.000321129
0.000270742
-0.000311731
0.000325374
-0.000289548
0.000373089
-0.000251869
0.000412424
-0.00020242
0.000444755
-0.000147873
0.000472793
-9.16951e-05
0.00050055
-3.46695e-05
0.000532675
2.46832e-05
0.000572922
8.98814e-05
0.000615662
0.000174833
0.000549324
0.000418688
0.000255402
0.000809806
-4.02877e-05
0.000865805
-7.22147e-05
0.000561983
0.000428975
0.000214123
0.000206087
0.000525279
0.000153414
0.000408685
0.000974929
-0.000163643
0.00150533
-0.000576068
0.000931728
-0.000656528
0.000251692
-0.000627893
5.20792e-05
-0.000590961
-5.76503e-06
-0.000563057
-5.17967e-05
-0.000540068
-0.000105263
-0.000513296
-0.000169068
-0.000471494
-0.000245174
-0.000407834
-0.000324903
-0.000329357
-0.000387007
-0.000250294
-0.000417391
-0.000175414
-0.000427117
-0.000100591
-0.000427322
-2.72931e-05
-0.000414028
4.00947e-05
-0.000383993
9.89899e-05
-0.000341214
0.000147757
-0.000287274
0.000182039
-0.000220675
0.000197201
-0.000143867
0.000193964
-6.59118e-05
0.000173829
4.63382e-06
0.000141799
5.9857e-05
0.000103752
9.92631e-05
6.55239e-05
0.000121893
2.93119e-05
0.000132206
-4.48309e-06
0.000133441
-3.54693e-05
0.000127563
-6.44685e-05
0.000115883
-9.09167e-05
9.89667e-05
-0.000114449
7.58442e-05
-0.000131936
4.46397e-05
-0.000138085
1.97349e-06
-0.000128387
-5.13506e-05
-0.000104142
-0.000106358
-7.05198e-05
-0.000155035
-3.07257e-05
-0.000192372
1.00876e-05
-0.000196103
4.37926e-05
-0.000159807
6.902e-05
-0.000124234
8.67129e-05
-9.37134e-05
9.59737e-05
-6.12504e-05
9.50647e-05
-2.47872e-05
8.48382e-05
1.09931e-05
6.80761e-05
4.19326e-05
4.59946e-05
6.84959e-05
1.75365e-05
9.20294e-05
-1.68203e-05
0.000108501
-5.37025e-05
0.00011128
-8.96509e-05
0.00010033
-0.000123005
7.69828e-05
-0.000150274
4.08467e-05
-0.000167765
-9.40322e-06
-0.000169742
-7.29029e-05
-0.000154276
-0.000142857
-0.000120921
-0.000212728
-7.46226e-05
-0.000271305
-2.06542e-05
-0.00031645
3.91199e-05
-0.000351747
0.000101324
-0.000374464
0.000162143
-0.000382167
0.000223319
-0.000382306
0.000293557
-0.00038197
0.000369893
-0.000365886
0.000436096
-0.000318072
0.000482424
-0.000248749
0.000514762
-0.000180211
0.000544703
-0.000121636
0.000581758
-7.17245e-05
0.000633441
-2.70002e-05
0.000692933
3.03908e-05
0.00067611
0.000191657
0.000380083
0.000714715
-0.000193315
0.00138481
-0.000402248
0.00106025
-0.000174823
0.000320066
0.000253932
0.000391197
-0.00018435
0.000631775
-8.62882e-05
0.000521533
0.00108305
8.72809e-05
0.00188117
-0.00040912
0.00140526
-0.000622133
0.000464703
-0.000660712
9.06591e-05
-0.000644737
-2.17402e-05
-0.000629863
-6.66707e-05
-0.00061623
-0.000118897
-0.000585303
-0.000199995
-0.000518148
-0.000312329
-0.000413783
-0.000429268
-0.000297209
-0.000503581
-0.000200485
-0.000514115
-0.000126431
-0.000501171
-5.82008e-05
-0.000495552
1.34697e-05
-0.000485699
8.61196e-05
-0.000456643
0.000156395
-0.00041149
0.000216167
-0.000347046
0.000256316
-0.000260824
0.000271489
-0.000159041
0.000259626
-5.40494e-05
0.000229295
3.49629e-05
0.000186192
0.000102961
0.00014039
0.000145067
9.50887e-05
0.000167195
5.11482e-05
0.000176146
7.82769e-06
0.000176762
-3.45962e-05
0.000169987
-7.33086e-05
0.000154596
-0.000105519
0.000131178
-0.000127577
9.79025e-05
-0.000136199
5.32627e-05
-0.000127594
-6.63177e-06
-0.000103592
-7.53527e-05
-7.51293e-05
-0.00013482
-5.20485e-05
-0.000178115
-3.43325e-05
-0.000210087
-1.50381e-05
-0.000215397
8.12497e-06
-0.00018297
3.41791e-05
-0.000150288
6.36078e-05
-0.000123142
9.16909e-05
-8.93334e-05
0.000109095
-4.21909e-05
0.000107907
1.21808e-05
8.87744e-05
6.10645e-05
5.58031e-05
0.000101467
1.09497e-05
0.000136882
-4.25033e-05
0.000161953
-9.39636e-05