/*--------------------------------*- C++ -*----------------------------------*\
| =========                 |                                                 |
| \\      /  F ield         | OpenFOAM: The Open Source CFD Toolbox           |
|  \\    /   O peration     | Version:  2412                                  |
|   \\  /    A nd           | Website:  www.openfoam.com                      |
|    \\/     M anipulation  |                                                 |
\*---------------------------------------------------------------------------*/
FoamFile
{
    version     2.0;
    format      ascii;
    arch        "LSB;label=32;scalar=64";
    class       volScalarField;
    location    "4.4";
    object      alpha.water;
}
// * * * * * * * * * * * * * * * * * * * * * * * * * * * * * * * * * * * * * //

dimensions      [0 0 0 0 0 0 0];

internalField   nonuniform List<scalar> 
6400
(
1
1
1
1
1
1
1
1
1
1
1
1
1
1
1
1
1
1
1
1
1
1
1
1
1
1
1
1
1
1
1
1
1
1
1
1
1
1
1
1
1
1
1
1
1
1
1
1
1
1
1
1
1
1
1
1
0.999999
0.999999
1
1
1
1
1
1
1
1
1
1
1
1
1
1
1
1
0.999999
1
1
1
1
1
0.999996
1
1
1
1
1
1
1
1
1
1
0.999999
1
1
1
1
1
1
1
1
1
1
1
1
1
1
1
1
1
1
1
1
1
1
1
1
1
1
1
1
1
1
1
1
1
1
1
1
1
1
1
1
1
1
0.999999
0.999999
1
1
1
1
1
1
1
1
1
1
1
1
1
1
1
1
1
1
1
1
1
1
1
0.999999
1
1
1
1
1
1
1
1
1
1
1
1
1
1
1
1
1
1
1
1
1
1
1
1
1
1
1
1
1
1
1
1
1
1
1
1
1
0.999999
0.999999
1
1
1
1
1
1
1
1
0.999999
0.999999
0.999999
1
1
1
1
1
1
1
1
1
1
0.999999
1
1
1
1
1
1
1
1
1
1
1
1
0.999999
1
1
1
0.999999
1
0.999999
1
1
1
1
1
1
1
1
1
1
1
1
1
1
1
1
1
1
1
1
1
1
1
1
1
0.999999
1
1
1
1
1
1
1
1
1
1
1
1
1
1
1
1
1
1
1
1
1
1
1
1
1
1
1
1
1
1
1
1
1
1
1
1
1
1
1
1
1
1
1
1
1
1
1
1
1
1
1
1
1
1
1
1
1
1
1
1
1
1
1
1
1
1
1
1
1
1
1
1
1
1
1
1
1
1
1
1
1
1
1
1
1
1
1
1
1
1
1
1
1
1
1
1
1
1
1
1
1
1
1
1
1
1
1
1
1
1
1
1
1
1
1
1
1
1
1
1
1
0.999999
0.999999
1
1
1
1
1
1
1
1
1
1
1
1
1
1
1
0.999999
1
1
1
1
1
1
1
1
1
1
0.999999
0.999999
1
1
1
1
1
1
1
1
1
1
1
1
1
1
1
1
1
1
1
1
1
1
1
1
1
1
1
1
1
1
1
1
1
1
1
1
1
1
1
1
1
1
1
1
1
1
1
1
1
1
1
1
1
1
1
1
1
1
1
1
1
1
1
1
1
0.999999
0.999999
1
1
1
1
1
1
1
1
1
1
1
1
1
1
1
0.999999
0.999999
1
1
1
1
0.999999
0.999999
0.999999
0.999999
0.999999
0.999999
0.999999
1
1
1
1
1
1
1
1
1
1
1
1
1
1
1
1
1
1
1
1
1
1
1
1
1
1
1
1
1
1
1
1
1
1
1
1
1
1
1
1
1
1
1
1
1
1
1
0.999999
1
1
0.999999
0.999999
1
1
0.999999
0.999999
1
1
1
1
1
1
1
1
1
1
1
1
0.999999
0.999999
0.999999
0.999999
1
1
1
0.999999
1
1
1
1
1
1
1
1
1
1
1
1
1
1
1
1
1
1
1
1
1
1
1
1
1
1
1
1
1
1
1
1
1
1
1
1
1
1
1
1
1
1
1
1
1
1
1
1
1
1
1
1
1
1
1
1
1
1
1
0.999999
1
1
1
1
1
1
1
1
1
0.999999
0.999999
0.999999
0.999999
1
1
1
1
1
1
1
1
1
1
1
1
1
1
1
1
1
1
1
1
1
1
1
1
1
1
1
1
1
1
1
0.999999
0.999999
1
1
1
1
1
1
1
1
1
1
1
0.999999
1
1
1
1
1
1
1
1
1
1
1
1
1
1
1
1
1
1
1
1
1
1
1
1
1
1
1
1
1
1
1
1
1
1
1
1
1
1
1
1
1
0.999999
0.999999
1
1
1
1
1
1
1
1
1
1
1
1
1
1
1
1
1
1
1
1
1
1
1
1
1
1
1
1
1
1
1
1
1
1
1
1
1
1
1
1
1
1
1
1
1
1
1
1
1
1
1
1
1
1
1
1
1
1
1
1
1
1
1
1
1
1
1
1
1
1
1
1
1
1
1
0.999999
0.999999
0.999999
1
1
1
1
1
1
1
1
1
1
1
1
1
1
1
1
1
1
1
1
1
1
1
1
1
1
1
1
1
1
1
1
1
1
1
1
1
1
1
1
1
0.999999
1
1
1
1
1
1
1
1
1
0.999999
0.999999
1
1
1
1
1
1
1
1
1
1
1
1
1
1
1
1
1
0.999999
1
1
1
1
1
1
1
1
1
1
1
1
1
1
1
1
1
1
1
1
1
1
1
1
1
1
1
1
1
1
1
1
1
1
1
1
1
1
1
1
1
1
1
1
1
1
1
1
1
0.999999
0.999999
1
1
1
1
1
1
0.999999
1
1
1
1
0.99582
0.985738
0.98941
1
1
0.999999
1
1
1
1
1
1
1
1
1
1
0.999999
0.999999
1
1
1
1
1
1
1
1
1
1
1
1
1
1
1
1
1
1
1
1
1
1
1
1
1
1
1
1
1
1
1
1
1
1
1
1
1
1
1
1
1
1
1
1
1
1
1
1
1
1
1
1
1
1
1
0.999999
1
1
1
0.997869
0.992503
0.997111
0.993034
0.971047
0.971106
0.99901
0.999384
1
1
1
1
1
1
1
1
1
1
1
1
1
1
1
1
1
1
1
1
1
1
1
1
1
1
1
1
1
1
1
1
1
1
1
1
1
1
1
1
1
1
0.999999
1
1
1
1
1
1
1
1
1
1
1
1
1
1
1
1
1
1
1
1
1
1
1
1
0.999999
0.999999
1
1
0.999825
0.972929
0.972929
0.992205
0.998895
0.998882
0.99124
0.950849
0.997023
1
1
1
1
1
1
1
1
1
1
1
1
1
1
1
1
1
1
1
1
1
1
1
1
1
1
1
1
1
1
1
1
1
1
1
1
1
1
1
1
1
0.999999
0.999999
1
1
1
1
1
1
1
1
1
1
1
1
1
1
1
1
1
0.999999
0.999999
0.999999
0.999999
0.999999
0.999999
1
1
1
1
1
0.997334
0.98996
0.996013
0.997388
0.999007
0.997716
0.982454
0.941722
0.960241
1
1
1
1
1
1
1
1
1
1
1
1
1
1
1
1
1
1
1
1
1
1
1
1
1
1
1
1
1
1
1
1
1
1
1
1
1
1
1
1
0.999999
0.999999
1
1
1
1
1
1
1
1
1
1
1
1
1
1
1
0.999999
0.999999
0.999999
0.999999
1
1
1
0.999999
1
1
1
1
1
0.987713
0.943007
0.997418
0.997441
0.998409
0.999007
0.979955
0.941722
0.941722
0.941722
0.993093
1
1
1
1
1
1
1
1
1
1
1
1
1
1
1
1
1
1
1
1
1
1
1
1
1
1
1
1
1
1
1
1
1
1
1
1
1
1
1
1
1
1
1
1
1
1
1
1
1
1
1
1
1
1
1
1
0.999999
0.999999
0.999999
0.999999
1
1
1
1
1
1
1
1
0.9912
0.939647
0.939647
0.947359
0.983207
0.998409
0.998964
0.996387
0.96278
0.949096
0.975841
0.998929
1
0.999994
0.999994
1
1
1
1
0.999999
0.999999
0.999999
0.999999
0.999999
0.999999
1
1
1
1
1
1
1
1
1
1
1
1
1
1
1
1
1
1
1
1
1
1
1
1
0.999999
0.999999
0.999999
1
1
1
1
1
1
1
1
1
1
1
1
1
1
0.999999
0.999999
0.999998
0.999998
0.999998
0.999998
0.999999
1
1
1
1
0.999999
1
1
0.998073
0.971934
0.939647
0.946395
0.987065
0.998372
0.998917
0.998921
0.998822
0.999126
0.999986
1
1
1
0.999999
0.999999
0.999998
0.999995
0.999989
0.99998
0.999976
0.999976
0.999976
0.999978
0.999984
0.999989
0.999993
0.999998
1
1
1
1
1
1
1
1
1
1
0.998672
0.997018
0.996892
0.996455
0.995729
0.994935
0.9942
0.993432
0.992501
0.991452
0.990557
0.989937
0.988396
0.990105
0.994743
0.998323
1
1
1
1
1
1
1
1
1
1
0.999996
0.999988
0.999979
0.99997
0.999965
0.999961
0.999959
0.999965
0.999978
0.999991
0.999997
0.999999
1
1
1
1
1
0.999984
0.995955
0.997907
0.998266
0.998294
0.848121
0.814874
0.791593
0.811271
0.857625
0.891436
0.932835
0.964537
0.981446
0.98108
0.973371
0.971644
0.973327
0.979844
0.990494
0.997254
0.999079
0.999429
0.999566
0.999671
0.999759
0.999879
0.999981
0.999999
1
0.968415
0.913988
0.836843
0.744692
0.648436
0.571407
0.530104
0.516256
0.513238
0.507472
0.496382
0.482737
0.469377
0.458044
0.448824
0.441332
0.437292
0.440195
0.448074
0.448492
0.462733
0.507135
0.556878
0.605581
0.661388
0.723548
0.793024
0.868035
0.934619
0.978439
1
0.999999
0.999987
0.99982
0.999483
0.997815
0.993387
0.988299
0.981203
0.967034
0.953781
0.94822
0.95032
0.95733
0.970434
0.987828
0.987211
0.960123
0.90932
0.879112
0.903607
0.910375
0.899399
0.909495
0.933372
0.183913
0.156768
0.142824
0.163174
0.207212
0.241339
0.252051
0.242686
0.23133
0.248722
0.279059
0.308206
0.337239
0.373516
0.441566
0.529315
0.59593
0.665985
0.740053
0.767137
0.746594
0.70015
0.654016
0.586373
0.480265
0.356661
0.239742
0.14736
0.0817259
0.0395807
0.0169912
0.00761726
0.00405801
0.00124432
1.05886e-05
6.34975e-06
2.23731e-06
4.36789e-07
6.60618e-08
1.89296e-08
1.54036e-08
1.52656e-08
1.5707e-08
2.97474e-07
1.15511e-05
0.000484517
0.00217162
0.0119883
0.0276588
0.0499815
0.0816384
0.134515
0.227122
0.361271
0.498201
0.591106
0.633554
0.646492
0.64224
0.601839
0.536406
0.470639
0.4266
0.379266
0.315079
0.278279
0.265449
0.254209
0.240642
0.229934
0.222185
0.234307
0.26457
0.294708
0.293982
0.274362
0.24948
0.23682
0.261934
0.29949
0.00153937
0.00147747
0.00100229
0.000676587
0.000402092
0.000237148
0.000141701
5.23528e-05
4.92563e-05
4.46097e-05
3.91446e-05
3.44349e-05
3.23357e-05
3.17433e-05
2.63816e-05
2.13561e-05
1.7652e-05
0.00185346
0.0312104
0.06098
0.0794202
0.107792
0.126626
0.119362
0.0828992
0.0378676
0.0140526
0.00570933
0.00220996
0.000541336
0.000101344
3.6472e-05
1.44757e-05
7.64363e-06
1.00442e-05
3.49335e-06
1.21619e-06
8.48359e-08
1.89296e-08
1.54036e-08
1.52669e-08
1.5272e-08
1.52688e-08
6.00764e-08
7.34856e-06
1.75461e-05
3.99275e-05
2.36474e-05
1.44477e-05
8.27277e-05
0.00442537
0.0107107
0.020596
0.0504784
0.091261
0.116014
0.117409
0.0688065
0.016933
3.10473e-05
3.02814e-05
2.92894e-05
3.02813e-05
3.07983e-05
3.08552e-05
3.0905e-05
3.0928e-05
3.11351e-05
3.24249e-05
3.78518e-05
5.6354e-05
0.000100866
0.000117493
0.00013143
0.000221635
0.000497378
0.000655856
0.00102784
0.00143689
0.00149631
0.00018387
0.000407516
0.000247245
0.000171684
0.000103681
9.86759e-05
0.000178775
0.000188363
0.000178016
0.000154446
0.000159465
0.000160111
0.000155637
0.000107389
9.44143e-05
6.53086e-05
2.43482e-05
3.44032e-06
1.91039e-06
1.53838e-06
1.46719e-06
1.45182e-06
1.45869e-06
1.45855e-06
1.49051e-06
1.5489e-06
3.74571e-06
2.41346e-05
0.000193367
0.000322956
0.000188824
2.42719e-05
7.64354e-06
5.59687e-06
7.52006e-06
5.21679e-06
1.65524e-06
6.14091e-07
2.19317e-07
1.75582e-08
2.32877e-08
1.16925e-06
6.03917e-08
1.1832e-06
2.52737e-05
2.67358e-05
1.30582e-05
2.61262e-06
2.13779e-06
3.40758e-06
3.79653e-06
3.78712e-06
4.04917e-06
4.9675e-06
6.89243e-06
9.71045e-06
1.29953e-05
1.84343e-05
2.66431e-05
3.13334e-05
2.8912e-05
2.87827e-05
2.92894e-05
3.03381e-05
3.07618e-05
3.13977e-05
0.000101272
0.000128926
0.000129336
0.000102634
7.73154e-05
8.41203e-05
8.8474e-05
0.000100542
0.000136511
0.000618182
0.000250909
0.000232808
0.000249752
0.000252901
6.47078e-05
0.000342338
0.000115713
7.53247e-05
6.30419e-05
7.83507e-05
0.000191707
0.000225565
0.000226385
0.0002255
0.000179933
8.8141e-05
8.03691e-05
0.000181533
0.000187494
0.000187901
0.000187494
0.000108674
6.03973e-06
1.80426e-06
1.23776e-06
1.22978e-06
1.45182e-06
1.38702e-05
5.52999e-05
5.76284e-05
8.09234e-05
0.000105284
0.000153048
0.000284263
0.000252699
8.91759e-05
3.82509e-06
1.36391e-06
1.04523e-06
1.02007e-06
1.23649e-06
1.22002e-06
4.68365e-07
1.17745e-08
1.01932e-08
9.55144e-07
2.18456e-06
2.22914e-06
8.57222e-05
0.000195778
2.9358e-05
1.14517e-06
1.00541e-06
2.12746e-06
3.39627e-06
5.3505e-05
0.000258289
0.000279251
0.000189959
7.1512e-05
0.000185661
0.000259706
0.000254164
0.000195472
3.98483e-05
2.79867e-05
2.96816e-05
3.01608e-05
2.98413e-05
7.72051e-05
0.000128926
0.000129413
0.000117603
8.89417e-05
8.41202e-05
8.84725e-05
0.000101552
0.000286083
0.000669454
0.00037805
0.000226206
0.0001768
0.000145482
0.000134586
5.94923e-05
0.000480841
7.90598e-05
5.97592e-05
5.78453e-05
7.71861e-05
0.000225444
0.000226385
0.000225565
8.47802e-05
2.79642e-07
9.55784e-08
8.41063e-08
1.03646e-05
0.000169188
0.000187494
0.000188088
0.000175522
2.39469e-05
1.05685e-06
5.42924e-07
1.04977e-06
2.2197e-06
3.84825e-06
1.45225e-06
8.49222e-06
9.3158e-05
0.00019641
0.000243492
0.0002611
0.00021821
3.70599e-05
1.36391e-06
7.05339e-07
5.25048e-07
4.10952e-07
3.46979e-07
3.87263e-07
2.11676e-07
1.42556e-08
9.51276e-09
1.06682e-08
1.30818e-05
4.78975e-06
0.00019139
0.000738428
0.000157474
7.8673e-07
7.48208e-07
1.00541e-06
2.11487e-06
4.79412e-05
0.000273262
0.000279251
0.000279402
0.000278672
0.000276477
0.000272432
0.000186646
4.69029e-06
3.74188e-06
3.26462e-05
4.16611e-05
4.23608e-05
2.79007e-05
2.68715e-05
2.78465e-05
3.98714e-05
0.000103406
0.000209822
0.000166156
0.00019204
0.000370831
0.000675078
0.000683958
0.000687274
0.00067918
0.000161541
0.000140391
0.000123913
5.83224e-05
0.000153137
5.62006e-05
5.64311e-05
5.66964e-05
5.71664e-05
8.0937e-05
0.000190344
6.29876e-05
2.79647e-07
9.55784e-08
8.41063e-08
8.41063e-08
8.41063e-08
2.1062e-05
0.000175988
0.000180209
3.95183e-05
6.14517e-07
4.42245e-07
3.95446e-07
4.90904e-07
6.89318e-07
2.04619e-06
1.15109e-06
3.4432e-07
4.03712e-07
2.59746e-05
0.000201498
0.000243947
0.000193696
2.44732e-05
7.43733e-07
6.41712e-07
6.26812e-07
7.10445e-07
2.99771e-07
1.73927e-08
1.1157e-08
1.01335e-08
9.36492e-09
9.51276e-09
9.90985e-06
7.92471e-06
0.000370193
0.000743702
0.000620205
6.94019e-07
6.87124e-07
7.48208e-07
1.39045e-06
1.88915e-05
4.69618e-05
5.06059e-05
5.87214e-05
0.000222874
0.000272432
0.000260695
3.7993e-05
2.93584e-06
2.77614e-06
2.70553e-06
2.47883e-06
1.45979e-06
8.47484e-06
2.83518e-05
2.30187e-05
5.63739e-06
3.90098e-05
0.000267683
0.000276364
0.000276673
0.000262726
0.000206294
0.000456241
0.000689334
0.000689243
0.000689243
0.000471736
0.000123293
5.52272e-05
5.52272e-05
5.54138e-05
5.57088e-05
5.61066e-05
5.41478e-05
5.24319e-05
2.21168e-05
2.87404e-06
5.52618e-07
1.18652e-07
9.55784e-08
8.41063e-08
1.00185e-07
2.46734e-07
3.69136e-05
2.0871e-05
1.71e-06
3.62382e-07
3.03123e-07
2.93437e-07
2.92083e-07
2.91888e-07
2.99972e-07
2.9818e-07
3.10201e-07
3.4432e-07
5.02943e-07
0.00013004
0.000220968
0.000219353
0.000172919
9.63076e-05
6.68559e-05
5.29451e-05
6.32158e-06
2.31757e-08
1.09525e-08
9.50056e-09
9.25994e-09
9.33569e-09
9.36492e-09
6.46927e-07
6.31381e-06
0.000455299
0.000743698
0.0007324
6.77031e-07
6.77771e-07
6.87124e-07
7.59597e-07
2.52257e-06
4.06613e-06
5.58507e-06
4.01962e-06
8.15704e-06
0.000109089
0.000213149
9.0121e-05
3.36947e-06
7.52887e-06
2.84249e-06
1.33538e-06
9.1889e-07
7.41881e-07
6.33474e-07
4.20607e-07
1.29603e-07
1.13866e-06
3.37694e-05
8.60553e-05
5.78695e-05
1.23214e-05
4.2492e-05
7.38121e-05
0.000596955
0.000689446
0.000686599
0.000539249
0.000123393
5.52272e-05
5.53894e-05
5.55512e-05
5.55756e-05
0.000267475
5.6149e-05
0.000192561
0.000428257
0.000166494
1.89938e-06
1.6445e-07
1.18652e-07
1.02253e-07
1.14481e-06
1.34454e-06
1.60247e-06
1.88859e-06
2.36826e-06
4.35299e-07
2.93437e-07
2.9157e-07
2.91198e-07
2.91113e-07
2.91091e-07
2.9107e-07
2.86282e-06
6.97939e-06
1.58891e-06
4.37039e-05
0.000201528
0.000216075
0.00021554
0.000215006
0.000213033
0.000102538
3.31219e-08
2.47632e-08
1.35834e-08
9.30704e-09
9.19499e-09
9.27937e-09
9.34311e-09
3.3681e-08
2.92115e-07
0.000384819
0.000743702
0.000595125
6.77065e-07
6.7688e-07
6.77771e-07
8.44255e-07
4.12352e-06
7.719e-06
6.97963e-06
3.25687e-06
1.34464e-06
5.10585e-07
5.59734e-07
2.48842e-05
6.80883e-05
6.91284e-05
6.92058e-05
1.64877e-05
6.99827e-06
9.1889e-07
5.35096e-07
1.29603e-07
5.52407e-08
5.43115e-08
5.31201e-08
5.4317e-08
8.11186e-08
5.12606e-06
6.27942e-05
6.89773e-05
0.000587013
0.000686599
0.000517829
0.000279681
0.000334973
0.000150028
5.57688e-05
5.55756e-05
0.000324905
0.000713892
0.000683519
0.000719509
0.000718924
0.000359128
1.4562e-06
2.29173e-07
1.64504e-07
1.6511e-06
1.2259e-05
1.26464e-05
5.2336e-06
1.56311e-06
1.03403e-06
2.94672e-07
2.9157e-07
2.91198e-07
2.91113e-07
2.91068e-07
2.91043e-07
2.9104e-07
1.10708e-05
1.2915e-05
5.76588e-06
2.98088e-06
7.7735e-05
0.000125466
0.0001416
0.000140896
9.13577e-05
2.99317e-05
9.87679e-09
1.74744e-08
1.00984e-08
9.63111e-09
8.90838e-09
8.52837e-09
5.26323e-06
4.69275e-06
1.32665e-06
0.000179193
0.000741558
0.000554223
6.76941e-07
6.775e-07
9.24977e-07
5.43657e-06
6.54573e-06
6.68682e-06
6.44205e-06
5.95636e-06
2.42158e-06
4.56015e-07
4.8689e-07
2.22913e-07
1.74199e-06
5.36019e-05
0.000101958
0.000106625
9.88238e-05
1.80635e-05
1.36162e-05
2.19459e-06
6.49675e-08
5.31079e-08
5.26812e-08
5.31201e-08
7.28999e-08
3.22417e-05
0.000130676
5.49083e-05
0.000326176
0.000672107
0.000336955
0.000279681
0.000279681
0.000442742
5.76794e-05
0.00010339
0.000713968
0.000718409
0.000719509
0.000719509
0.000719509
0.000393642
2.68243e-06
1.61661e-07
9.77458e-08
6.06177e-06
1.39937e-05
1.40013e-05
1.4001e-05
1.21999e-05
3.94662e-06
3.10541e-07
2.93008e-07
2.91262e-07
2.91068e-07
2.91043e-07
2.91039e-07
2.9104e-07
4.84958e-06
1.2915e-05
5.6547e-06
4.10842e-08
2.45164e-08
7.51962e-07
3.07039e-06
2.51858e-06
2.80753e-07
9.94826e-09
1.59146e-09
8.21073e-09
2.22707e-09
8.30531e-09
8.4862e-09
7.98949e-09
7.22664e-06
8.04016e-06
2.21538e-06
3.78428e-06
0.000736598
0.000733389
6.775e-07
6.85934e-07
1.3882e-06
5.96415e-06
6.28543e-06
1.99125e-06
4.86649e-07
5.73061e-07
3.42674e-07
3.83606e-07
5.37672e-07
1.92368e-07
9.92843e-08
1.39349e-07
1.34325e-05
0.000110439
0.000110447
0.000110439
0.000110036
6.07896e-05
3.65126e-06
5.26228e-08
5.26812e-08
5.26812e-08
1.39373e-07
1.16295e-05
0.000131159
5.31263e-05
3.4119e-05
0.000607996
0.000601401
0.000332138
0.000276257
0.000362778
5.99517e-05
6.26031e-05
0.000395135
0.000714971
0.000718748
0.000719509
0.000718748
0.00018343
8.91698e-07
9.46895e-08
4.39699e-08
3.13748e-06
1.35387e-05
1.39937e-05
1.4001e-05
1.32937e-05
9.69651e-06
1.62583e-06
2.31197e-06
2.54757e-06
4.15056e-06
7.22413e-06
6.27709e-06
3.21623e-06
4.42199e-07
4.15284e-07
3.71797e-07
1.30618e-07
2.17682e-08
2.42005e-09
6.43901e-09
1.59681e-08
2.19561e-08
1.64185e-09
7.42044e-10
1.12636e-09
1.19115e-09
2.12134e-09
2.29246e-09
5.69271e-09
4.44348e-07
7.85551e-06
2.47254e-06
2.86673e-06
0.000195682
0.000768273
0.000530058
5.95814e-06
3.64471e-06
5.83111e-06
5.55171e-06
3.40802e-07
3.39385e-07
3.39392e-07
3.56475e-07
3.35374e-07
1.56653e-07
9.92767e-08
9.92843e-08
9.92843e-08
3.11242e-07
5.64277e-05
0.000110439
0.00011045
0.000110237
0.000107326
6.91172e-05
5.40518e-08
5.26812e-08
5.41531e-08
1.52603e-06
6.73982e-06
0.000116697
0.000111815
2.82519e-05
4.06698e-05
0.00039179
0.000423716
0.000321567
0.000179012
0.000298532
9.70792e-05
5.7552e-05
0.000441747
0.000714871
0.000718748
0.000528421
1.76202e-05
2.64415e-07
3.37295e-08
3.27426e-08
2.50026e-08
2.92434e-06
4.2887e-06
2.25692e-06
3.93594e-06
4.43976e-06
2.21034e-06
1.43549e-05
2.28585e-05
2.3092e-05
2.31271e-05
2.29064e-05
1.42005e-05
3.28358e-07
2.64991e-07
2.56047e-07
2.58777e-07
2.71897e-08
1.04333e-09
7.58297e-10
1.45137e-09
2.104e-09
8.17174e-10
6.65306e-10
7.54606e-10
1.00674e-09
7.96542e-07
3.95348e-05
6.49623e-05
6.61449e-07
2.6171e-06
2.86837e-06
3.19072e-06
1.118e-05
0.000783113
0.00079954
4.75391e-05
2.62634e-06
5.80702e-06
1.85421e-06
3.45618e-07
3.40988e-07
4.03932e-07
1.32026e-06
9.55019e-07
4.77748e-07
1.55994e-07
9.92767e-08
9.80139e-08
8.17427e-06
0.000110399
0.00011045
0.000110399
3.36935e-05
0.000104114
0.00010263
1.52602e-06
5.4153e-08
6.33948e-08
1.94581e-06
1.45659e-05
1.47218e-05
5.56852e-05
2.63823e-05
2.65484e-05
0.00015696
0.000371753
0.000355962
0.000179012
0.000362864
0.000358632
4.73524e-05
4.2576e-05
0.000467585
0.000469297
8.29595e-05
4.06348e-07
2.69842e-08
1.29096e-08
2.37337e-08
1.19216e-08
6.092e-09
4.6253e-09
6.092e-09
8.2084e-09
1.20203e-05
1.48872e-05
1.51473e-05
2.18134e-05
2.31144e-05
2.3092e-05
2.30994e-05
5.47358e-06
3.47586e-06
2.86366e-05
2.15182e-05
3.73284e-07
9.46188e-10
7.42945e-10
3.74624e-10
4.65016e-10
6.00926e-10
6.65306e-10
6.65306e-10
6.65306e-10
8.89092e-10
2.69715e-08
0.000122646
0.000545642
0.000336011
3.05766e-06
3.1911e-06
3.70763e-06
4.32689e-06
0.000745887
0.00079954
2.30827e-05
1.62984e-06
1.45933e-06
3.51973e-07
3.28391e-07
3.52545e-07
4.87738e-06
0.000106934
0.000275901
4.35892e-05
1.04578e-06
9.78086e-08
3.40086e-08
3.40463e-08
0.000102082
0.000110399
5.28816e-05
6.25973e-06
8.7679e-05
9.98903e-05
5.63843e-05
6.33945e-08
7.54161e-08
1.51041e-06
1.4155e-05
1.36272e-05
2.07475e-05
2.25652e-05
2.64921e-05
7.5746e-05
9.13308e-05
0.000325458
0.000181621
0.000363147
0.000125182
2.77967e-05
3.02025e-05
5.08611e-05
7.82845e-05
2.37407e-05
1.15469e-08
1.34525e-09
1.06897e-08
4.38218e-08
4.46605e-07
4.6253e-09
3.87298e-09
6.35567e-09
4.81661e-08
3.49859e-05
0.000175602
5.98031e-05
5.96696e-06
5.9806e-06
6.08343e-06
3.30906e-06
2.07116e-06
4.9866e-05
0.00014268
3.65489e-05
1.73754e-08
5.47625e-10
3.80919e-10
3.33156e-10
3.72458e-10
4.65064e-10
6.57045e-10
7.52608e-10
7.09208e-10
2.68774e-09
1.3586e-07
8.28886e-05
0.000553736
0.000609064
0.000237559
3.70692e-06
4.32714e-06
5.06812e-06
0.000191628
0.00079954
0.000583251
1.70687e-05
4.52028e-07
3.28239e-07
3.28401e-07
3.28342e-07
4.11987e-05
0.000655928
0.000777955
0.000644628
0.000133991
9.86362e-07
9.79178e-08
3.40463e-08
2.59174e-05
9.86874e-05
2.64133e-05
4.89697e-06
5.26605e-06
9.71206e-05
9.16834e-05
3.54119e-07
7.80371e-08
4.10963e-07
2.40764e-06
3.28003e-05
0.000163558
6.16751e-05
3.07547e-05
3.1175e-05
4.49567e-05
7.42108e-05
0.000184879
0.000363142
9.57792e-05
2.63032e-05
3.174e-05
8.49949e-05
2.34568e-05
1.1811e-08
1.42055e-09
1.23282e-09
1.34594e-08
9.37829e-07
1.36206e-06
4.51588e-07
9.1467e-10
2.85353e-09
1.51807e-08
3.88699e-05
0.000242862
0.000241028
8.22182e-05
2.92113e-05
2.12673e-06
2.07116e-06
2.08591e-06
0.000237678
0.000192365
1.46173e-05
5.54596e-09
3.3203e-10
2.75531e-10
3.28876e-10
3.65717e-10
4.47689e-10
8.57635e-10
2.30933e-09
1.78151e-09
7.11804e-10
8.72721e-10
6.5335e-06
6.97602e-05
0.000612612
0.000753815
0.000113716
5.06868e-06
6.91835e-06
8.17759e-06
0.000772589
0.000729202
3.90213e-05
6.60948e-07
3.42149e-07
3.28401e-07
3.42154e-07
1.96668e-05
0.000777955
0.000778738
0.000777955
0.000768346
0.000133757
8.3401e-07
1.06826e-07
1.39907e-05
4.97441e-06
4.89697e-06
4.89697e-06
4.89697e-06
9.4279e-05
5.71805e-05
1.0849e-06
4.47613e-08
3.15458e-08
3.26724e-08
6.26361e-05
0.000207633
0.00020784
3.12124e-05
3.17973e-05
5.37251e-05
3.90398e-05
0.000330592
0.000358103
4.34169e-05
2.43136e-05
5.11811e-05
6.26287e-05
2.73826e-08
2.68515e-08
6.80982e-08
1.14845e-09
7.7988e-08
1.36206e-06
1.36206e-06
1.26797e-06
7.17292e-10
8.34843e-10
7.22172e-09
3.28668e-06
0.000102856
0.000341312
0.000351039
0.000350734
0.000267948
3.4998e-05
0.000154945
0.000343268
0.00021094
1.62906e-06
9.13821e-09
8.86672e-10
2.702e-10
3.15792e-10
3.18371e-10
5.13988e-10
2.33651e-09
3.01673e-09
2.08419e-09
6.45185e-10
6.71048e-10
2.86406e-09
9.02995e-08
5.7241e-06
0.000743562
0.000716754
3.75085e-05
8.17759e-06
1.21335e-05
0.000515002
0.000701284
0.000262769
1.49526e-06
4.45605e-07
3.42153e-07
4.08081e-07
5.86301e-06
0.000659912
0.000777955
0.000778738
0.000775299
0.000651325
5.87191e-05
8.43081e-07
1.36182e-05
9.3258e-06
4.97441e-06
4.89697e-06
3.05155e-05
9.27421e-05
4.09739e-05
3.20416e-08
4.48467e-09
2.76201e-09
1.87645e-09
4.39163e-05
0.000208353
0.00020908
6.60381e-05
3.24963e-05
0.000111011
3.88986e-05
0.000402132
0.000367553
2.43136e-05
2.33386e-05
1.80625e-05
2.73826e-08
2.64545e-08
3.11319e-08
7.39932e-08
1.08659e-10
7.77185e-08
1.22795e-06
1.36206e-06
1.00909e-06
6.37466e-10
5.53756e-10
7.73666e-10
1.03967e-08
1.84556e-07
8.72233e-05
0.000344071
0.000351039
0.000349954
0.000345334
0.00034516
0.000341448
0.000116318
6.43174e-09
2.55514e-10
2.30452e-10
2.54645e-10
2.71023e-10
3.19e-10
1.09348e-09
2.51614e-09
2.06316e-09
7.44322e-10
6.4841e-10
6.43221e-10
7.66753e-10
2.29654e-08
3.88767e-08
0.000142849
0.000708629
0.000539759
1.49779e-05
2.18279e-05
5.28202e-05
0.000698685
0.000682668
4.42026e-05
3.19581e-05
4.45478e-07
4.59594e-07
8.89276e-06
0.000119856
0.00031306
0.000732346
0.000772698
0.00076477
0.000255566
5.01606e-06
8.12937e-06
1.20118e-05
6.61614e-06
5.08641e-06
8.11354e-05
9.07865e-05
3.81885e-05
4.30664e-08
2.76201e-09
1.20824e-09
8.65355e-11
5.64459e-06
0.000108844
0.000209087
0.000209087
0.000110195
0.000137118
4.00619e-05
0.000402132
0.000373347
2.52915e-05
2.57096e-05
1.40475e-05
2.42431e-08
2.06283e-08
1.84603e-08
4.06613e-08
4.32061e-12
4.66359e-12
6.04346e-08
9.97989e-07
6.40085e-08
5.53756e-10
4.50509e-10
5.82221e-12
1.3704e-10
1.51446e-09
1.81823e-08
3.16491e-05
0.000309336
0.000348613
0.000345652
0.000228871
0.000110918
8.92499e-07
6.374e-10
1.09449e-10
1.65772e-10
2.20267e-10
2.17867e-10
3.53614e-10
7.87553e-10
7.66282e-10
7.02081e-10
7.20737e-10
4.52579e-06
4.68368e-06
1.34108e-06
3.88767e-08
2.82192e-08
2.88196e-08
0.000510723
0.000846162
0.000268784
2.9343e-05
4.91117e-05
0.000644127
0.000689205
0.000669827
0.000702539
0.000580709
2.23356e-05
1.96618e-05
4.19676e-05
4.25262e-05
6.73001e-05
0.000739647
0.0007651
0.000346788
4.42721e-06
2.36353e-06
3.06236e-06
5.29371e-08
6.32302e-05
8.6506e-05
8.98438e-05
1.25843e-05
2.88025e-08
1.13262e-09
8.65356e-11
5.76312e-11
1.06583e-06
1.23637e-06
0.000180275
0.000209089
0.000209087
0.000208961
4.3123e-05
0.000272676
0.00040948
4.42255e-05
2.55822e-05
1.9444e-05
2.7522e-08
1.37282e-08
6.67323e-12
4.32061e-12
4.32061e-12
4.32061e-12
4.66359e-12
1.405e-11
3.69142e-10
5.33877e-09
4.28154e-10
1.08144e-11
6.46564e-12
1.11992e-12
5.9852e-11
4.43378e-10
4.08361e-09
2.22541e-05
3.76318e-05
4.3975e-06
2.62486e-07
3.88226e-09
-3.06766e-11
3.89035e-11
1.47206e-10
1.60077e-10
1.61272e-10
2.12619e-10
2.11204e-10
2.63955e-10
4.98465e-07
1.68164e-05
2.0987e-05
2.09886e-05
1.77832e-05
3.75135e-06
3.88767e-08
2.80831e-08
0.000509206
0.000860042
0.000874211
7.27276e-05
7.41047e-05
0.000167812
0.000721904
0.000749592
0.000768754
0.000772971
0.000679361
0.000105318
4.25262e-05
4.85983e-05
5.01744e-05
0.000601181
0.000753509
0.00026668
1.96049e-06
2.71611e-07
5.2937e-08
1.98123e-08
3.88298e-05
8.279e-05
2.52651e-05
5.79579e-08
4.68473e-09
3.24764e-10
5.76281e-11
4.90909e-11
5.76312e-11
2.71458e-06
1.07331e-05
0.00010688
0.000205703
5.47097e-05
3.15975e-05
9.85135e-06
0.00041915
0.000363395
2.15429e-05
1.50812e-05
4.79489e-08
6.19685e-07
1.47911e-07
4.39148e-12
4.32061e-12
4.59329e-12
1.33671e-11
5.76692e-10
1.46277e-08
3.61351e-08
6.19222e-09
1.07684e-11
1.00126e-11
1.88875e-12
5.09282e-13
-7.41745e-12
2.9366e-11
2.00268e-10
2.47485e-09
1.01391e-08
1.2112e-08
3.28674e-10
4.3186e-12
3.31642e-11
9.46715e-11
8.66324e-11
8.17175e-11
7.92391e-11
2.03807e-10
1.23267e-06
1.78508e-05
2.0987e-05
2.09886e-05
2.09886e-05
2.09887e-05
1.47236e-05
2.50967e-07
4.76377e-08
0.00033821
0.00087446
0.000875807
0.000483789
8.13525e-05
6.86477e-05
0.00054649
0.000768754
0.000772971
0.000772971
0.000772971
0.000352448
5.27413e-05
5.01744e-05
0.000142054
0.000642141
0.000677286
0.000104791
1.14492e-06
1.4077e-07
1.98122e-08
3.40659e-09
1.10996e-09
1.18423e-06
-2.16778e-10
-6.89e-11
3.17183e-11
3.66553e-11
4.48527e-11
4.90909e-11
4.90909e-11
3.34108e-09
1.60094e-05
4.17622e-05
4.28853e-05
3.15975e-05
3.15975e-05
9.35685e-06
0.000418986
0.00041915
7.62755e-05
2.70621e-05
1.85713e-06
1.30339e-05
1.66101e-06
5.0048e-12
4.39148e-12
4.86974e-12
8.10448e-12
8.16212e-09
3.72933e-08
3.73067e-08
1.38045e-08
1.08829e-11
1.50888e-11
2.2166e-12
6.81583e-13
3.61225e-13
3.7239e-13
8.56225e-12
4.64636e-10
1.75313e-10
3.84826e-10
-1.90124e-11
7.21105e-12
3.34535e-11
3.42936e-11
2.99832e-11
2.37206e-11
4.29459e-11
9.00843e-10
7.10056e-06
2.08966e-05
2.09475e-05
2.09875e-05
2.09896e-05
2.09872e-05
1.40593e-05
2.98531e-07
1.17166e-07
4.21179e-05
0.000857914
0.000875796
0.000558298
6.90243e-05
4.62605e-05
7.22646e-05
0.000559115
0.000771561
0.000772971
0.000771561
0.000257983
5.66621e-05
5.43174e-05
0.000365377
0.000603439
0.000445874
3.02042e-05
6.22848e-07
7.38946e-08
8.86959e-09
1.10996e-09
1.70622e-10
5.3569e-11
3.57896e-11
3.3614e-11
3.36321e-11
3.62099e-11
5.29499e-11
4.90909e-11
7.5107e-08
4.99161e-08
6.58278e-07
5.00417e-05
6.00494e-05
3.18128e-05
3.15975e-05
9.10727e-06
0.000183843
0.000414088
0.000123934
1.37811e-05
4.63187e-06
1.78518e-05
3.88242e-06
1.06855e-11
6.33283e-12
2.42035e-12
4.92711e-12
9.59853e-09
3.71738e-08
3.6142e-08
5.40117e-09
1.24947e-11
6.48951e-11
5.60899e-12
8.87387e-13
2.9572e-13
2.75307e-13
8.05737e-12
6.16716e-11
3.09051e-12
3.97075e-12
2.16103e-12
7.89797e-12
1.30504e-11
1.11778e-11
1.23405e-11
1.28698e-11
1.79573e-11
1.31168e-09
4.2131e-06
1.45962e-05
1.42629e-05
1.71934e-05
2.0986e-05
2.09876e-05
1.0007e-05
7.09725e-07
1.83548e-07
0.000120068
0.000850951
0.000597646
0.000150493
3.72923e-05
3.47913e-05
4.22221e-05
6.46417e-05
0.00033376
0.000643261
0.000395372
5.44709e-05
5.04448e-05
5.66621e-05
0.000520297
0.000590554
0.000271906
3.69256e-06
3.11188e-07
3.59622e-08
4.24715e-09
6.08355e-10
1.93691e-10
1.40197e-10
1.38008e-10
5.63864e-11
3.35182e-11
8.90678e-11
1.05181e-10
7.35258e-11
1.27834e-07
1.05738e-07
9.60849e-08
2.36101e-05
6.646e-05
5.09149e-05
4.98069e-05
1.06103e-05
2.81461e-05
0.000172025
7.56248e-05
1.09308e-05
1.04274e-05
1.81503e-05
3.87092e-06
6.16094e-11
9.07951e-11
1.91186e-12
2.38369e-11
1.99343e-09
7.7064e-09
8.36429e-09
4.56298e-10
4.61396e-10
1.17024e-10
1.00051e-11
2.44098e-12
3.0285e-13
2.66548e-13
4.59214e-13
6.93146e-13
6.0748e-13
2.87773e-13
6.64837e-13
2.80678e-12
5.55571e-12
1.08849e-11
1.59377e-11
1.97504e-11
2.05638e-11
5.88135e-09
3.31192e-07
2.15089e-07
1.18723e-07
1.18723e-07
2.01399e-05
2.0985e-05
7.51893e-06
1.29644e-06
2.18496e-07
0.000154656
0.000837914
0.000713957
3.72123e-05
3.17218e-05
3.02869e-05
3.28032e-05
3.76368e-05
4.38126e-05
5.32663e-05
4.58438e-05
4.41244e-05
5.00094e-05
0.000334069
0.000516214
0.000492855
7.22806e-05
1.00423e-06
1.16508e-07
1.31377e-08
1.58066e-09
3.58374e-10
2.16902e-10
2.86292e-10
2.17778e-10
6.95661e-11
3.63721e-11
1.01862e-10
1.26002e-10
5.62825e-11
8.02103e-08
1.02813e-07
9.41506e-08
9.61296e-08
3.41315e-05
9.42984e-05
0.000164082
8.94407e-06
4.82017e-05
1.5512e-05
1.2867e-05
1.20094e-05
3.174e-05
1.81809e-05
1.33962e-07
1.37359e-10
1.29976e-12
1.89493e-12
7.08392e-11
7.61852e-11
8.10051e-11
8.95977e-11
9.41871e-10
1.01287e-09
1.7541e-10
1.69376e-11
3.38945e-12
2.55127e-13
7.19701e-14
2.44974e-14
1.74328e-14
5.20369e-14
1.04092e-13
3.77065e-13
1.71571e-12
6.13231e-12
1.51747e-11
2.59239e-11
3.50102e-11
1.61228e-10
3.07513e-09
4.63208e-10
7.48266e-09
2.24356e-07
1.20957e-07
1.29211e-05
2.09538e-05
1.25161e-05
1.63853e-06
8.56496e-07
3.16913e-05
0.000676469
0.000713391
0.000123303
3.02869e-05
2.92371e-05
2.98027e-05
3.15076e-05
3.4151e-05
3.61496e-05
4.03841e-05
4.50664e-05
0.000255849
0.00050917
0.00050852
0.000216965
3.17893e-06
2.64987e-07
2.97024e-08
3.17703e-09
3.3701e-10
4.85783e-11
7.53777e-12
3.36555e-12
3.18959e-12
3.93679e-12
1.55407e-11
1.02038e-10
1.36493e-10
5.60444e-11
3.57523e-11
4.27023e-11
6.38104e-08
9.50275e-08
1.03324e-07
0.000105451
0.000164085
1.03848e-06
3.1301e-05
2.98607e-05
2.30439e-05
4.18305e-05
4.22345e-05
1.10759e-05
9.22136e-09
1.22877e-10
3.25785e-13
1.31416e-13
4.55115e-13
5.38943e-12
1.71562e-10
6.54546e-10
1.07128e-09
9.66841e-10
1.6484e-10
3.42863e-11
3.54664e-12
3.31424e-13
1.11711e-13
2.94185e-14
9.7902e-15
9.58558e-15
3.4922e-14
2.26118e-13
1.24691e-12
5.30403e-12
1.4626e-11
2.76035e-11
4.36757e-11
1.08164e-10
3.48004e-10
3.77587e-10
7.75528e-08
6.44029e-06
7.01496e-06
2.36364e-06
1.94567e-05
8.17603e-06
1.71661e-06
1.25107e-06
1.21609e-06
0.000166443
0.000710083
0.000696207
5.28508e-05
2.95777e-05
2.93997e-05
2.98027e-05
3.15076e-05
3.41511e-05
3.61496e-05
0.000317656
0.000494835
0.00049596
0.000271125
1.04977e-05
3.40994e-07
3.85858e-08
4.15773e-09
4.46333e-10
6.3665e-11
9.79054e-12
3.49829e-12
2.93636e-12
2.32144e-12
2.54949e-12
9.93574e-12
5.62267e-11
1.16653e-10
2.48259e-11
1.53903e-11
1.54903e-06
3.51855e-06
7.45023e-07
1.08329e-07
6.70616e-05
0.000164081
1.72522e-09
5.45488e-09
3.38798e-05
4.27562e-05
4.27562e-05
4.27562e-05
5.6536e-06
2.53605e-09
3.65456e-11
8.36771e-14
1.08471e-14
3.99076e-13
1.64104e-11
2.24745e-10
4.89866e-10
5.11503e-10
2.47902e-10
9.65456e-11
4.95932e-11
3.35587e-12
2.5279e-13
5.95294e-14
1.4208e-14
8.61661e-15
8.6324e-15