/*--------------------------------*- C++ -*----------------------------------*\
| =========                 |                                                 |
| \\      /  F ield         | OpenFOAM: The Open Source CFD Toolbox           |
|  \\    /   O peration     | Version:  2412                                  |
|   \\  /    A nd           | Website:  www.openfoam.com                      |
|    \\/     M anipulation  |                                                 |
\*---------------------------------------------------------------------------*/
FoamFile
{
    version     2.0;
    format      ascii;
    arch        "LSB;label=32;scalar=64";
    class       volScalarField;
    location    "1.5";
    object      alpha.molasses;
}
// * * * * * * * * * * * * * * * * * * * * * * * * * * * * * * * * * * * * * //

dimensions      [0 0 0 0 0 0 0];

internalField   nonuniform List<scalar> 
6400
(
1
1
1
1
1
1
1
1
1
1
1
1
1
1
1
1
1
1
1
1
1
1
1
1
1
1
1
1
1
1
1
1
1
1
1
1
1
1
1
1
1
1
1
1
1
1
1
1
1
1
1
1
1
1
1
1
1
1
1
1
1
1
1
1
1
1
1
1
1
1
1
1
1
1
1
1
1
1
1
1
1
1
1
1
1
1
1
1
1
1
1
1
1
1
1
1
1
1
1
1
1
1
1
1
1
1
1
1
1
1
1
1
1
1
1
1
1
1
1
1
1
1
1
1
1
1
1
1
1
1
1
1
1
1
1
1
1
1
1
1
1
1
1
1
1
1
1
1
1
1
1
1
1
1
1
1
1
1
1
1
1
1
1
1
1
1
1
1
1
1
1
1
1
1
1
1
1
1
1
1
1
1
1
1
1
1
1
1
1
1
1
1
1
1
1
1
1
1
1
1
1
1
1
1
1
1
1
1
1
1
1
1
1
1
1
1
1
1
1
1
1
1
1
1
1
1
1
1
1
1
1
1
1
1
1
1
1
1
1
1
1
1
1
1
1
1
1
1
1
1
1
1
1
1
1
1
1
1
1
1
1
1
1
1
1
1
1
1
1
1
1
1
1
1
1
1
1
1
1
1
1
1
1
1
1
1
1
1
1
1
1
1
1
1
1
1
1
1
1
1
1
1
1
1
1
1
1
1
1
1
1
1
1
1
1
1
1
1
1
1
1
1
1
1
1
1
1
1
1
1
1
1
1
1
1
1
1
1
1
1
1
1
1
1
1
1
1
1
1
1
1
1
1
1
1
1
1
1
1
1
1
1
1
1
1
1
1
1
1
1
1
1
1
1
1
1
1
1
1
1
1
1
1
1
1
1
1
1
1
1
1
1
1
1
1
1
1
1
1
1
1
1
1
1
1
1
1
1
1
1
1
1
1
1
1
1
1
1
1
1
1
1
1
1
1
1
1
1
1
1
1
1
1
1
1
1
1
1
1
1
1
1
1
1
1
1
1
1
1
1
1
1
1
1
1
1
1
1
1
1
1
1
1
1
1
1
1
1
1
1
1
1
1
1
1
1
1
1
1
1
1
1
1
1
1
1
1
1
1
1
1
1
1
1
1
1
1
1
1
1
1
1
1
1
1
1
1
1
1
1
1
1
1
1
1
1
1
1
1
1
1
1
1
1
1
1
1
1
1
1
1
1
1
1
1
1
1
1
1
1
1
1
1
1
1
1
1
1
1
1
1
1
1
1
1
1
1
1
1
1
1
1
1
1
1
1
1
1
1
1
1
1
1
1
1
1
1
1
1
1
1
1
1
1
1
1
1
1
1
1
1
1
1
1
1
1
1
1
1
1
1
1
1
1
1
1
1
1
1
1
1
1
1
1
1
1
1
1
1
1
1
1
1
1
1
1
1
1
1
1
1
1
1
1
1
1
1
1
1
1
1
1
1
1
1
1
1
1
1
1
1
1
1
1
1
1
1
1
1
1
1
1
1
1
1
1
1
1
1
1
1
1
1
1
1
1
1
1
1
1
1
1
1
1
1
1
1
1
1
1
1
1
1
1
1
1
1
1
1
1
1
1
1
1
1
1
1
1
1
1
1
1
1
1
1
1
1
1
1
1
1
1
1
1
1
1
1
1
1
1
1
1
1
1
1
1
1
1
1
1
1
1
1
1
1
1
1
1
1
1
1
1
1
1
1
1
1
1
1
1
1
1
1
1
1
1
1
1
1
1
1
1
1
1
1
1
1
1
1
1
1
1
1
1
1
1
1
1
1
1
1
1
1
1
1
1
1
1
1
1
1
1
1
1
1
1
1
1
1
1
1
1
1
1
1
1
1
1
1
1
1
1
1
1
1
1
1
1
1
1
1
1
1
1
1
1
1
1
1
1
1
1
1
1
1
1
1
1
1
1
1
1
1
1
1
1
1
1
1
1
1
1
1
1
1
1
1
1
1
1
1
1
1
1
1
1
1
1
1
1
1
1
1
1
1
1
1
1
1
1
1
1
1
1
1
1
1
1
1
1
1
1
1
1
1
1
1
1
1
1
1
1
1
1
1
1
1
1
1
1
1
1
1
1
1
1
1
1
1
1
1
1
1
1
1
1
1
1
1
1
1
1
1
1
1
1
1
1
1
1
1
1
1
1
1
1
1
1
1
1
1
1
1
1
1
1
1
1
1
1
1
1
1
1
1
1
1
1
1
1
1
1
1
1
1
1
1
1
1
1
1
1
1
1
1
1
1
1
1
1
1
1
1
1
1
1
1
1
1
1
1
1
1
1
1
1
1
1
1
1
1
1
1
1
1
1
1
1
1
1
1
1
1
1
1
1
1
1
1
1
1
1
1
1
1
1
1
1
1
1
1
1
1
1
1
1
1
1
1
1
1
1
1
1
1
1
1
1
1
1
1
1
1
1
1
1
1
1
1
1
1
1
1
1
1
1
1
1
1
1
1
1
1
1
1
1
1
1
1
1
1
1
1
1
1
1
1
1
1
1
1
1
1
1
1
1
1
1
1
1
1
1
1
1
1
1
1
1
1
1
1
1
1
1
1
1
1
1
1
1
1
1
1
1
1
1
1
1
1
1
1
1
1
1
1
1
1
1
1
1
1
1
1
1
1
1
1
1
1
1
1
1
1
1
1
1
1
1
1
1
1
1
1
1
1
1
1
1
1
1
1
1
1
1
1
1
1
1
1
1
1
1
1
1
1
1
1
1
1
1
1
1
1
1
1
1
1
1
1
1
1
1
1
1
1
1
1
1
1
1
1
1
1
1
1
1
1
1
1
1
1
1
1
1
1
1
1
1
1
1
1
1
1
1
1
1
1
1
1
1
1
1
1
1
1
1
1
1
1
1
1
1
1
1
1
1
1
1
1
1
1
1
1
1
1
1
1
1
1
1
1
1
1
1
1
1
1
1
1
1
1
1
1
1
1
1
1
1
1
1
1
1
1
1
1
1
1
1
1
1
1
1
1
1
1
1
1
1
1
1
1
1
1
1
1
1
1
1
1
1
1
1
1
1
1
1
1
1
1
1
1
1
1
1
1
1
1
1
1
1
1
1
1
1
1
1
1
1
1
1
1
1
1
1
1
1
1
1
1
1
1
1
1
1
1
1
1
1
1
1
1
1
1
1
1
1
1
1
1
1
1
1
1
1
1
1
1
1
1
1
1
1
1
1
1
1
1
1
1
1
1
1
1
1
1
1
1
1
1
1
1
1
1
1
1
1
1
1
1
1
1
1
1
1
1
1
1
1
1
1
1
1
1
1
1
1
1
1
1
1
1
1
1
1
1
1
1
1
1
1
1
1
1
1
1
1
1
1
1
1
1
1
1
1
1
1
1
1
1
1
1
1
1
1
1
1
1
1
1
1
1
1
1
1
1
1
1
1
1
1
1
1
1
1
1
1
1
1
1
1
0.999999
0.999999
0.999999
0.999999
0.999999
0.999999
0.999999
0.999999
0.999999
0.999999
0.999999
0.999999
0.999999
0.999999
0.999999
0.999999
0.999999
0.999999
0.999998
0.999998
0.999998
0.999998
0.999998
0.999998
0.999998
0.999998
0.999998
0.999998
0.999998
0.999998
0.999998
0.999998
0.999998
0.999998
0.999998
0.999998
0.999998
0.999998
0.999999
0.999999
0.999999
0.999999
0.999999
0.999999
0.999998
0.999998
0.999998
0.999998
0.999998
0.999998
0.999998
0.999998
0.999998
0.999998
0.999998
0.999998
0.999998
0.999998
0.999998
0.999998
0.999998
0.999998
0.999999
0.999999
0.999999
0.999999
0.999999
0.999999
0.999999
0.999999
0.999999
0.999999
0.999999
0.999999
0.999999
0.999999
0.999998
0.999998
0.999998
0.999998
3.2281e-06
3.63439e-06
3.41307e-06
3.27098e-06
3.15929e-06
3.04048e-06
2.92287e-06
2.8085e-06
2.68311e-06
2.54228e-06
2.38472e-06
2.229e-06
2.10452e-06
2.03041e-06
1.9688e-06
1.8903e-06
1.82374e-06
1.74814e-06
1.66137e-06
1.56239e-06
1.47259e-06
1.38308e-06
1.30662e-06
1.24198e-06
1.20467e-06
1.25201e-06
1.29427e-06
1.33363e-06
1.36772e-06
1.38702e-06
1.39633e-06
1.40232e-06
1.39994e-06
1.39191e-06
1.36722e-06
1.32514e-06
1.26604e-06
1.20928e-06
1.1441e-06
1.12728e-06
1.1044e-06
1.0778e-06
1.0668e-06
1.07635e-06
1.08042e-06
1.08098e-06
1.09871e-06
1.10806e-06
1.10953e-06
1.10767e-06
1.09591e-06
1.08794e-06
1.07209e-06
1.06288e-06
1.04826e-06
1.02824e-06
1.0039e-06
9.70585e-07
9.34128e-07
9.09963e-07
8.81572e-07
8.48762e-07
8.10574e-07
7.61975e-07
7.08862e-07
6.97979e-07
7.62056e-07
8.19145e-07
8.79911e-07
9.27657e-07
9.57941e-07
9.77416e-07
9.79547e-07
9.76717e-07
9.87516e-07
1.00247e-06
9.7757e-07
9.40691e-07
9.01297e-07
4.85671e-07
2.96409e-19
2.61573e-19
3.54284e-19
4.12476e-19
4.33165e-19
4.47539e-19
4.55048e-19
4.65712e-19
4.7961e-19
4.92673e-19
4.8438e-19
4.38187e-19
3.58502e-19
2.88624e-19
2.46301e-19
2.09665e-19
1.75085e-19
1.4582e-19
1.16794e-19
8.30845e-20
4.72754e-20
1.67887e-20
-5.40257e-32
-2.40952e-36
-4.13501e-27
-3.68426e-30
-1.49192e-29
-2.51945e-30
-2.15206e-31
-1.85948e-31
-2.52366e-30
-1.21455e-31
-1.4013e-46
0
0
0
-4.68904e-73
3.15544e-31
-1.2621e-30
0
-5.52807e-34
-4.83076e-33
-1.98768e-32
-2.52367e-30
2.39636e-30
2.28239e-30
-4.10606e-31
1.89372e-30
-5.04871e-30
-5.04627e-30
1.01365e-30
-1.81747e-30
-2.08935e-30
-2.32389e-30
-2.48303e-30
-2.5485e-30
-5.04871e-30
-5.04871e-30
-5.0483e-30
-2.96835e-30
-2.5943e-30
-9.34721e-31
-5.46431e-31
1.87167e-20
4.6744e-20
7.98362e-20
8.12726e-20
4.25985e-20
5.25232e-23
5.32922e-24
3.20057e-24
1.77143e-24
1.66418e-24
1.47658e-24
1.25077e-24
1.13873e-24
1.09136e-24
1.1417e-24
1.95318e-24
2.49756e-24
2.82242e-23
2.35339e-23
2.95265e-23
3.39345e-23
3.52971e-23
2.62689e-23
2.33152e-23
3.39052e-23
3.56274e-23
3.22233e-23
2.89217e-23
2.37315e-23
1.58407e-23
9.61056e-24
5.8377e-24
2.67951e-24
4.18875e-25
-1.28222e-24
-2.59571e-24
-3.13704e-24
-2.75057e-24
-1.93816e-24
-5.65224e-24
-4.00523e-24
-9.79098e-25
-2.17045e-26
-1.14707e-24
-2.13942e-48
1.09352e-98
2.00233e-97
4.96023e-95
7.96085e-95
3.73472e-92
1.00156e-89
2.20591e-87
3.79797e-85
3.87815e-83
4.88753e-81
2.75291e-79
4.56455e-78
2.57585e-78
2.37752e-81
1.25829e-84
-2.08486e-84
4.62272e-91
1.86468e-94
4.98212e-98
1.00722e-101
-5.46622e-101
-5.16601e-106
7.66993e-112
8.47788e-115
8.47788e-115
6.19254e-114
1.88132e-83
-2.315e-62
-4.07262e-24
-1.15059e-25
-1.64067e-27
-1.51819e-29
-8.67432e-32
-2.85872e-34
-2.10491e-50
-1.37609e-23
-3.25586e-25
5.72792e-24
6.82344e-24
4.00621e-24
1.51067e-23
9.93921e-24
6.04784e-24
7.13645e-24
1.90743e-24
1.63753e-24
2.43482e-24
1.18609e-24
1.09134e-24
1.05798e-23
4.76047e-24
2.49747e-24
1.49408e-24
2.35795e-24
1.15311e-24
8.51648e-25
6.25874e-25
4.05618e-25
2.74413e-25
1.65244e-25
6.69479e-26
9.90876e-27
5.25764e-27
4.48456e-27
3.37116e-27
2.44609e-27
1.48639e-27
8.5416e-28
5.69122e-28
3.4389e-28
1.35202e-28
-7.91583e-30
-7.24501e-29
-6.92091e-29
-1.79537e-28
-3.37835e-29
-8.27337e-43
-1.75255e-42
0
5.28294e-98
2.9653e-98
1.21714e-95
4.34688e-93
1.31586e-90
3.1546e-88
6.4141e-86
1.02742e-83
1.2731e-81
1.18368e-79
1.11465e-77
5.46074e-77
6.45908e-77
5.22646e-77
1.04407e-77
2.37878e-81
1.25906e-84
7.72365e-88
4.62272e-91
1.86468e-94
4.98313e-98
1.00722e-101
2.05402e-105
9.53293e-109
7.66993e-112
1.69558e-114
1.06895e-113
3.91668e-62
7.88231e-63
-2.85021e-40
4.69005e-28
2.73746e-27
6.34585e-27
2.09487e-26
3.80303e-26
5.79669e-26
6.54085e-26
7.28291e-26
1.00845e-25
2.37095e-25
3.4342e-25
3.97552e-25
4.21684e-25
4.09383e-25
3.90235e-25
3.8532e-25
3.98083e-25
4.27187e-25
4.69457e-25
5.15288e-25
5.52889e-25
6.17131e-25
2.14824e-25
6.28696e-28
9.41155e-28
4.31187e-28
1.7517e-28
1.15216e-28
8.83357e-29
1.18569e-28
2.37114e-29
7.10564e-30
1.18471e-30
1.09085e-30
8.99967e-31
6.49297e-31
4.48212e-31
2.63812e-31
1.63765e-31
1.0156e-31
5.68465e-32
2.266e-32
2.97449e-33
-3.89047e-33
-3.01891e-33
-5.35143e-33
-2.26076e-34
-1.96591e-39
-1.85179e-47
0
1.17323e-97
1.30579e-94
5.3548e-92
1.89305e-89
5.68212e-87
1.41972e-84
2.88489e-82
4.62012e-80
5.59978e-78
5.25475e-76
4.49894e-74
2.97246e-73
4.67418e-73
4.05287e-73
6.02603e-74
1.4623e-77
8.02212e-81
5.16619e-84
3.29215e-87
1.4317e-90
4.16138e-94
9.14558e-98
2.12461e-101
7.61508e-105
4.43088e-108
3.44691e-111
1.06895e-113
7.46257e-68
2.20887e-68
0
7.63379e-32
1.37137e-30
4.09631e-30
1.27332e-29
2.06596e-29
2.79401e-29
1.51038e-29
2.41544e-29
4.42837e-29
9.19565e-29
7.83673e-29
6.22013e-29
6.59064e-29
8.64469e-29
1.2044e-28
1.03017e-28
1.44338e-28
1.23726e-28
2.81229e-28
1.89789e-28
1.54626e-28
1.51947e-28
6.49102e-29
1.88294e-32
2.29998e-32
1.48418e-32
1.16195e-32
8.52791e-33
6.48125e-33
4.41695e-33
2.46412e-33
8.93956e-34
3.34392e-34
2.99623e-34
2.3911e-34
1.65659e-34
1.07815e-34
6.32421e-35
3.79863e-35
2.16991e-35
1.10175e-35
4.04252e-36
6.3632e-37
-2.81355e-37
-1.73553e-37
-1.81435e-37
-3.68104e-40
-1.86072e-42
-2.7134e-52
0
3.67429e-94
4.00074e-91
1.62291e-88
5.67317e-86
1.68352e-83
4.15934e-81
8.3461e-79
1.31724e-76
1.57223e-74
1.44005e-72
1.16879e-70
8.4915e-70
1.41523e-69
1.23108e-69
1.8364e-70
5.0443e-74
2.86524e-77
1.93507e-80
1.31017e-83
6.13306e-87
1.67052e-90
4.63365e-94
1.19243e-97
4.51774e-101
2.70967e-104
2.16564e-107
2.01471e-110
7.05893e-73
3.40849e-73
-1.26591e-70
6.74983e-38
3.41211e-38
1.68021e-36
1.31298e-35
5.30846e-35
1.26115e-34
1.76819e-34
2.16546e-34
5.82417e-34
2.64605e-33
4.94301e-33
6.10912e-33
6.70561e-33
6.68386e-33
6.49435e-33
6.2161e-33
6.42761e-33
6.93574e-33
7.75832e-33
8.2545e-33
8.84213e-33
8.64898e-33
3.70783e-33
3.54532e-36
4.09052e-36
2.92724e-36
2.35667e-36
1.78281e-36
1.33794e-36
9.1742e-37
5.01221e-37
2.22598e-37
1.17933e-37
1.02879e-37
7.94754e-38
5.29318e-38
3.20602e-38
1.88199e-38
1.07222e-38
5.64782e-39
2.6021e-39
8.6656e-40
1.4056e-40
-2.18041e-41
-1.2539e-41
-7.55531e-42
-6.01288e-46
-5.88884e-49
-5.08017e-57
7.94886e-91
2.07465e-90
9.5083e-88
3.79809e-85
1.3068e-82
3.81387e-80
9.26181e-78
1.82628e-75
2.83247e-73
3.32192e-71
2.97112e-69
2.29983e-67
1.7877e-66
3.08053e-66
2.68136e-66
4.02674e-67
1.20005e-70
7.05991e-74
5.00178e-77
3.59935e-80
1.54257e-83
4.53467e-87
1.37872e-90
4.63392e-94
1.85127e-97
1.13809e-100
9.2913e-104
8.84323e-107
8.45701e-78
8.55988e-78
-5.12681e-67
2.06032e-42
6.10913e-43
1.3463e-42
1.60724e-41
1.48427e-39
7.26369e-39
8.95036e-39
7.30847e-39
5.60191e-38
4.43779e-37
9.36116e-37
1.23056e-36
1.37515e-36
1.41287e-36
1.38455e-36
1.34811e-36
1.3929e-36
1.51393e-36
1.67721e-36
1.79379e-36
1.8974e-36
1.75676e-36
8.19777e-37
9.03746e-40
1.03117e-39
7.81178e-40
6.33503e-40
4.8468e-40
3.59461e-40
2.43285e-40
1.25464e-40
7.09879e-41
5.00816e-41
4.25766e-41
3.18767e-41
2.04409e-41
1.17069e-41
6.71621e-42
3.62406e-42
1.76586e-42
7.40946e-43
2.24228e-43
3.58009e-44
-1.09205e-45
-1.12088e-45
-4.05696e-46
-3.11394e-51
-6.77633e-61
-1.15741e-61
6.57308e-88
4.05726e-87
1.82807e-84
7.17381e-82
2.42279e-79
6.93588e-77
1.65147e-74
3.19244e-72
4.85484e-70
5.58379e-68
4.87682e-66
3.61658e-64
2.94837e-63
5.17923e-63
4.5067e-63
6.82192e-64
1.96349e-67
1.31783e-70
9.80349e-74
7.36665e-77
3.05092e-80
9.93018e-84
3.32529e-87
1.37872e-90
5.83379e-94
3.68553e-97
3.07521e-100
2.99768e-103
1.21614e-82
5.34482e-83
-1.11152e-63
7.2018e-47
5.42858e-47
1.63918e-46
1.90253e-45
1.77894e-44
2.95058e-43
2.5918e-43
1.14298e-42
5.16522e-42
9.67926e-41
2.27669e-40
3.16019e-40
3.62096e-40
3.82118e-40
3.83618e-40
3.78985e-40
3.94857e-40
4.30052e-40
4.75125e-40
5.06593e-40
5.31219e-40
4.70249e-40
2.31753e-40
2.96235e-43
3.42496e-43
2.67323e-43
2.16617e-43
1.65511e-43
1.20698e-43
7.98722e-44
4.77699e-44
3.00754e-44
2.49643e-44
2.07102e-44
1.50513e-44
9.20399e-45
5.11046e-45
2.82419e-45
1.44358e-45
6.53218e-46
2.50886e-46
6.92071e-47
1.06236e-47
2.51844e-49
-1.23235e-49
-2.85548e-50
-4.19485e-56
-2.74176e-65
-3.10631e-66
5.17949e-87
6.64316e-84
2.93685e-81
1.1296e-78
3.73618e-76
1.04686e-73
2.4388e-71
4.61245e-69
6.86455e-67
7.72987e-65
6.59117e-63
4.69888e-61
3.95746e-60
7.02408e-60
6.107e-60
9.37319e-61
2.41278e-64
1.96361e-67
1.53587e-70
1.10332e-73
5.02316e-77
1.81698e-80
6.74048e-84
3.28412e-87
1.50249e-90
9.82856e-94
8.42215e-97
8.44169e-100
1.9642e-87
5.19113e-87
-5.87701e-65
2.74161e-51
9.3977e-52
2.65006e-50
3.98407e-49
2.37734e-48
1.76807e-47
6.87119e-47
3.9959e-46
1.62659e-45
2.64208e-44
6.84672e-44
9.97626e-44
1.17269e-43
1.27042e-43
1.30879e-43
1.31505e-43
1.38283e-43
1.51123e-43
1.66814e-43
1.77355e-43
1.8503e-43
1.58559e-43
8.04145e-44
1.21701e-46
1.43738e-46
1.13776e-46
9.24798e-47
6.97435e-47
5.00344e-47
3.36375e-47
2.30204e-47
1.63613e-47
1.43383e-47
1.16258e-47
8.20677e-48
4.83656e-48
2.60422e-48
1.38172e-48
6.68833e-49
2.82275e-49
9.9772e-50
2.51872e-50
3.65742e-51
1.64632e-52
-1.6554e-53
-2.64338e-54
-1.23398e-60
-1.29978e-69
-9.6059e-71
8.08899e-84
9.30078e-81
4.02578e-78
1.51468e-75
4.89684e-73
1.34037e-70
3.04959e-68
5.63295e-66
8.19068e-64
9.0166e-62
7.50319e-60
5.15602e-58
4.43376e-57
7.90297e-57
6.86148e-57
1.08898e-57
2.49758e-61
2.17143e-64
1.98744e-67
1.40289e-70
7.0468e-74
2.84519e-77
1.17671e-80
6.24647e-84
3.28424e-87
2.24735e-90
1.99203e-93
2.06449e-96
3.62806e-92
1.16306e-91
-1.15417e-68
1.11479e-55
1.04405e-55
5.36874e-54
1.01985e-52
6.91356e-52
4.13094e-51
2.60417e-50
1.67488e-49
7.05218e-49
8.83473e-48
2.48311e-47
3.76285e-47
4.5549e-47
5.04278e-47
5.34098e-47
5.45375e-47
5.79051e-47
6.36185e-47
7.03546e-47
7.46315e-47
7.772e-47
6.51649e-47
3.33726e-47
6.21061e-50
7.49218e-50
6.00221e-50
4.89633e-50
3.67813e-50
2.61969e-50
1.98447e-50
1.43085e-50
1.08205e-50
9.35569e-51
7.42797e-51
5.09699e-51
2.92263e-51
1.52241e-51
7.76272e-52
3.56678e-52
1.41058e-52
4.61258e-53
1.07137e-53
1.45467e-54
7.45336e-56
-2.70128e-57
-3.19503e-58
-4.67251e-62
-8.51815e-74
-3.37466e-75
1.00268e-80
1.12882e-77
4.77568e-75
1.75462e-72
5.53516e-70
1.47764e-67
3.27802e-65
5.90434e-63
8.37561e-61
9.00136e-59
7.30793e-57
4.85039e-55
4.21799e-54
7.51773e-54
6.51892e-54
1.06189e-54
2.21019e-58
2.03276e-61
2.03762e-64
1.53862e-67
8.563e-71
3.8787e-74
1.80061e-77
1.05241e-80
6.24647e-84
4.52227e-87
4.18185e-90
4.50863e-93
1.45152e-95
-2.66114e-111
-2.40111e-72
4.66905e-60
1.8755e-59
1.34306e-57
3.15143e-56
2.43089e-55
1.47544e-54
1.16711e-53
8.17019e-53
3.62877e-52
3.55836e-51
1.06401e-50
1.67138e-50
2.06706e-50
2.34782e-50
2.54826e-50
2.64687e-50
2.84089e-50
3.13979e-50
3.4929e-50
3.69914e-50
3.85588e-50
3.19027e-50
1.62969e-50
3.90989e-53
4.7987e-53
3.90861e-53
3.22573e-53
2.46044e-53
1.86918e-53
1.48261e-53
1.14525e-53
8.72431e-54
6.85892e-54
5.34032e-54
3.58277e-54
2.00387e-54
1.0116e-54
4.95842e-55
2.17105e-55
8.08557e-56
2.46047e-56
5.28446e-57
6.65953e-58
3.38814e-59
-5.306e-61
-4.97852e-62
-1.93364e-65
-8.52482e-78
1.858e-80
2.538e-77
1.19943e-74
4.9498e-72
1.77317e-69
5.45006e-67
1.41688e-64
3.06041e-62
5.36787e-60
7.41868e-58
7.77422e-56
6.15484e-54
3.95175e-52
3.44826e-51
6.1246e-51
5.30478e-51
8.83646e-52
1.68885e-55
1.64762e-58
1.77992e-61
1.4722e-64
9.12186e-68
4.66138e-71
2.44624e-74
1.59045e-77
1.05241e-80
8.16208e-84
7.95637e-87
8.99415e-90
1.11193e-92
3.71769e-117
-6.67685e-76
1.76208e-64
4.23941e-63
4.10236e-61
1.16449e-59
1.01577e-58
6.27891e-58
6.10833e-57
4.58853e-56
2.14408e-55
1.70259e-54
5.31789e-54
8.62576e-54
1.08519e-53
1.26144e-53
1.41037e-53
1.48827e-53
1.62143e-53
1.80854e-53
2.03652e-53
2.15537e-53
2.25631e-53
1.85051e-53
9.36008e-54
2.90678e-56
3.6142e-56
2.99664e-56
2.5074e-56
1.95085e-56
1.56457e-56
1.28545e-56
1.01439e-56
7.88586e-57
5.83003e-57
4.28662e-57
2.82046e-57
1.54117e-57
7.56477e-58
3.57685e-58
1.498e-58
5.28117e-59
1.50474e-59
3.0035e-60
3.50358e-61
1.67875e-62
2.27357e-64
-9.84993e-66
-7.24615e-69
3.06591e-80
4.68463e-77
2.44148e-74
1.12154e-71
4.51076e-69
1.57344e-66
4.70579e-64
1.18985e-61
2.49914e-59
4.26317e-57
5.73337e-55
5.8518e-53
4.51573e-51
2.808e-49
2.44197e-48
4.31089e-48
3.73005e-48
6.32413e-49
1.12193e-52
1.16467e-55
1.36134e-58
1.23917e-61
8.59477e-65
4.98524e-68
2.97865e-71
2.17471e-74
1.59045e-77
1.33795e-80
1.39045e-83
1.66323e-86
2.16764e-89
1.1162e-104
-2.92018e-79
1.06439e-69
7.18312e-67
1.51578e-64
5.10733e-63
5.00522e-62
3.20506e-61
3.66873e-60
2.94156e-59
1.44295e-58
9.90521e-58
3.11407e-57
5.16175e-57
6.61322e-57
7.94208e-57
9.11288e-57
9.76346e-57
1.07849e-56
1.211e-56
1.37967e-56
1.45713e-56
1.53175e-56
1.24915e-56
6.22296e-57
2.4764e-59
3.1085e-59
2.62428e-59
2.22945e-59
1.77184e-59
1.46675e-59
1.23184e-59
9.8345e-60
7.74987e-60
5.80713e-60
3.83392e-60
2.46626e-60
1.32017e-60
6.32161e-61
2.89911e-61
1.16497e-61
3.90904e-62
1.04935e-62
1.95742e-63
2.11602e-64
1.60001e-65
1.36496e-67
-2.4827e-69
-2.99773e-72
2.70507e-77
4.07085e-74
2.07019e-71
9.2675e-69
3.62842e-66
1.23098e-63
3.57822e-61
8.78939e-59
1.79315e-56
2.97164e-54
3.88462e-52
3.85767e-50
2.90034e-48
1.74815e-46
1.50619e-45
2.63675e-45
2.27941e-45
3.91989e-46
6.50917e-50
7.21598e-53
9.167e-56
9.23238e-59
7.212e-62
4.77983e-65
3.27516e-68
2.70907e-71
2.17471e-74
2.00708e-77
2.24751e-80
2.86981e-83
3.97228e-86
0
-1.75203e-82
8.48828e-77
1.47355e-70
6.71983e-68
2.63932e-66
2.87104e-65
1.92979e-64
2.51815e-63
2.13914e-62
1.0978e-61
7.1354e-61
2.18834e-60
3.60792e-60
4.6626e-60
5.71923e-60
6.68553e-60
7.26302e-60
8.12158e-60
9.17414e-60
1.0589e-59
1.11657e-59
1.17956e-59
9.59256e-60
4.70942e-60
2.36224e-62
2.98211e-62
2.56218e-62
2.21031e-62
1.79176e-62
1.521e-62
1.28602e-62
1.03559e-62
8.23457e-63
6.21581e-63
4.11285e-63
2.38066e-63
1.25216e-63
5.86942e-64
2.62156e-64
1.01801e-64
3.26321e-65
8.306e-66
1.45684e-66
1.60806e-67
1.25249e-68
6.7172e-71
-7.79079e-73
0
5.7303e-74
3.14131e-71
1.55566e-68
6.77989e-66
2.58147e-63
8.50955e-61
2.40177e-58
5.72572e-56
1.1335e-53
1.8231e-51
2.31425e-49
2.23394e-47
1.63569e-45
9.56265e-44
8.11835e-43
1.40652e-42
1.21493e-42
2.11344e-43
3.30771e-47
3.93195e-50
5.45685e-53
6.11756e-56
5.41907e-59
4.13342e-62
3.27185e-65
3.09161e-68
2.70907e-71
2.77179e-74
3.378e-77
4.64316e-80
6.87701e-83
1.13887e-85
-9.07916e-101
5.58299e-85
3.91136e-74
3.54893e-71
1.59623e-69
1.90557e-68
1.33878e-67
1.96617e-66
1.75837e-65
9.45295e-65
5.92796e-64
1.7582e-63
2.84707e-63
3.69774e-63
4.60735e-63
5.48849e-63
6.02854e-63
6.82306e-63
7.75439e-63
9.07806e-63
9.5556e-63
1.01428e-62
8.24104e-63
3.99407e-63
2.48207e-65
3.14458e-65
2.7472e-65
2.40517e-65
1.98504e-65
1.70879e-65
1.45304e-65
1.17821e-65
9.42827e-66
7.15499e-66
4.77475e-66
2.52373e-66
1.30824e-66
6.02345e-67
2.63064e-67
9.92798e-68
3.0591e-68
7.43209e-69
1.23397e-69
1.68379e-70
8.52566e-72
2.01865e-73
1.51957e-73
7.01832e-74
4.34255e-71
2.17584e-68
1.03568e-65
4.39236e-63
1.6252e-60
5.20128e-58
1.42429e-55
3.29276e-53
6.32019e-51
9.85745e-49
1.21406e-46
1.13819e-44
8.11326e-43
4.60243e-41
3.83059e-40
6.55605e-40
5.65903e-40
9.93843e-41
1.47471e-44
1.88858e-47
2.88022e-50
3.61902e-53
3.66308e-56
3.2405e-59
2.98491e-62
3.24687e-65
3.09161e-68
3.54046e-71
4.73977e-74
7.06856e-77
1.12682e-79
1.37108e-81
2.28339e-84
1.03168e-81
1.30452e-77
2.21847e-74
1.12311e-72
1.45613e-71
1.07314e-70
1.74237e-69
1.62042e-68
9.0366e-68
5.51805e-67
1.58394e-66
2.50112e-66
3.25176e-66
4.10482e-66
4.9766e-66
5.51151e-66
6.31202e-66
7.21377e-66
8.57005e-66
9.0027e-66
9.59845e-66
7.80217e-66
3.73803e-66
2.83529e-68
3.60353e-68
3.19716e-68
2.83778e-68
2.3795e-68
2.06712e-68
1.76735e-68
1.44226e-68
1.16077e-68
8.85368e-69
5.95232e-69
3.16436e-69
1.49899e-69
6.80487e-70
2.91865e-70
1.07602e-70
3.21426e-71
7.4895e-72
1.24434e-72
2.28486e-73
2.26375e-73
3.06311e-73
2.21055e-73
6.05908e-71
2.89005e-68
1.34047e-65
6.10346e-63
2.51748e-60
9.04695e-58
2.80943e-55
7.45959e-53
1.67139e-50
3.10854e-48
4.69837e-46
5.6103e-44
5.10443e-42
3.54137e-40
1.94975e-38
1.58313e-37
2.67204e-37
2.30509e-37
4.08026e-38
5.77324e-42
8.00812e-45
1.35116e-47
1.91771e-50
2.23676e-53
2.31382e-56
2.4978e-59
2.98491e-62
3.24687e-65
4.19795e-68
6.22611e-71
1.01478e-73
1.75059e-76
4.02718e-78
4.40469e-81
1.241e-80
2.09451e-80
1.62465e-77
9.1501e-76
1.27598e-74
9.80934e-74
1.73242e-72
1.6679e-71
9.57525e-71
5.73138e-70
1.58582e-69
2.42892e-69
3.14808e-69
4.01717e-69
4.94525e-69
5.5141e-69
6.38394e-69
7.33177e-69
8.83964e-69
9.26289e-69
9.91502e-69
8.07036e-69
3.82525e-69
3.49173e-71
4.45311e-71
4.00854e-71
3.60426e-71
3.06859e-71
2.68058e-71
2.30497e-71
1.89343e-71
1.53309e-71
1.17605e-71
7.96774e-72
4.30994e-72
1.87581e-72
8.42773e-73
3.5654e-73
1.29054e-73
3.76889e-74
8.79338e-75
5.64556e-75
1.15663e-73
2.06785e-73
2.26375e-73
7.89891e-71
3.79728e-68
1.71809e-65
7.4016e-63
3.19244e-60
1.27358e-57
4.44448e-55
1.3388e-52
3.44564e-50
7.47962e-48
1.34738e-45
1.97258e-43
2.28243e-41
2.0141e-39
1.35985e-37
7.26692e-36
5.72855e-35
9.51881e-35
8.20802e-35
1.46203e-35
1.98482e-39
3.00052e-42
5.64475e-45
9.13008e-48
1.23867e-50
1.51129e-53
1.9249e-56
2.4978e-59
3.14969e-62
4.63274e-65
7.66944e-68
1.37597e-70
2.84364e-73
7.726e-75
1.81586e-77
2.27804e-80
1.06378e-79
1.88105e-79
8.89236e-79
1.27467e-77
1.01539e-76
1.92111e-75
1.91571e-74
1.12061e-73
6.61768e-73
1.7552e-72
2.59509e-72
3.33938e-72
4.29782e-72
5.35958e-72
6.00708e-72
7.02102e-72
8.09651e-72
9.90199e-72
1.03432e-71
1.11076e-71
9.05835e-72
4.25033e-72
4.60537e-74
5.89696e-74
5.38152e-74
4.89874e-74
4.24117e-74
3.71118e-74
3.21143e-74
2.65728e-74
2.16641e-74
1.67344e-74
1.14378e-74
6.28929e-75
2.7043e-75
1.13994e-75
4.77952e-76
1.71582e-76
1.60162e-76
3.39075e-76
4.17825e-75
5.69931e-75
1.72384e-73
9.42371e-71
4.65383e-68
2.1425e-65
9.24192e-63
3.75949e-60
1.48999e-57
5.66548e-55
1.92132e-52
5.61381e-50
1.40038e-47
2.94485e-45
5.13748e-43
7.28361e-41
8.16358e-39
6.98381e-37
4.58895e-35
2.38007e-33
1.8126e-32
2.96021e-32
2.55194e-32
4.56752e-33
5.98982e-37
9.93883e-40
2.10364e-42
3.9168e-45
6.24513e-48
9.06752e-51
1.37095e-53
1.9249e-56
2.83075e-59
4.76723e-62
8.86597e-65
1.76429e-67
4.14162e-69
1.34688e-71
3.05966e-74
6.50788e-77
1.88105e-79
1.95308e-79
1.23738e-79
3.2942e-80
1.17025e-79
2.36824e-78
2.42978e-77
1.44085e-76
8.4336e-76
2.13807e-75
3.03793e-75
3.86542e-75
5.00527e-75
6.30746e-75
7.09294e-75
8.35633e-75
9.66522e-75
1.19801e-74
1.24632e-74
1.34172e-74
1.09663e-74
5.09578e-75
6.4691e-77
8.3226e-77
7.69537e-77
7.08875e-77
6.22859e-77
5.46458e-77
4.76292e-77
3.97365e-77
3.26592e-77
2.54428e-77
1.7572e-77
9.82491e-78
4.32883e-78
1.68022e-78
9.73495e-79
1.54468e-78
1.10982e-76
1.60646e-76
3.39208e-76
1.65413e-73
9.49977e-71
4.9641e-68
2.38353e-65
1.05812e-62
4.36659e-60
1.6833e-57
6.12116e-55
2.21319e-52
7.27696e-50
2.06382e-47
4.99147e-45
1.01708e-42
1.71866e-40
2.35977e-38
2.5617e-36
2.12403e-34
1.35868e-32
6.8376e-31
5.00521e-30
8.01988e-30
6.91372e-30
1.24191e-30
1.58505e-34
2.91021e-37
7.00315e-40
1.51834e-42
2.8777e-45
5.01767e-48
9.05147e-51
1.37095e-53
2.36244e-56
4.57882e-59
9.61904e-62
2.24585e-64
7.4219e-66
2.10932e-68
4.90068e-71
1.09402e-73
2.26487e-76
4.02513e-79
3.2942e-80
2.09687e-80
5.14803e-81
5.67945e-81
3.39001e-80
2.02885e-79
1.17971e-78
2.8539e-78
3.88155e-78
4.86362e-78
6.32025e-78
8.0272e-78
9.03816e-78
1.07147e-77
1.24132e-77
1.55759e-77
1.61223e-77
1.73831e-77
1.42416e-77
6.55465e-78
9.63117e-80
1.24586e-79
1.16665e-79
1.08722e-79
9.68325e-80
8.54159e-80
7.49333e-80
6.31073e-80
5.23645e-80
4.12158e-80
2.88187e-80
1.63805e-80
7.40602e-81
8.21209e-81
2.74398e-79
9.80416e-79
1.54553e-78
2.39492e-76
1.32789e-73
7.81745e-71
4.48587e-68
2.31766e-65
1.08902e-62
4.68652e-60
1.85801e-57
6.81952e-55
2.33253e-52
7.68754e-50
2.4019e-47
6.62111e-45
1.55376e-42
3.06961e-40
5.02688e-38
6.68705e-36
7.03243e-34
5.65149e-32
3.52143e-30
1.71881e-28
1.2028e-27
1.88745e-27
1.62756e-27
2.9315e-28
3.67138e-32
7.52693e-35
2.08446e-37
5.33157e-40
1.21625e-42
2.56998e-45
5.01767e-48
9.05147e-51
1.83343e-53
4.10493e-56
9.80027e-59
2.99948e-60
1.09747e-62
2.9142e-65
7.28096e-68
1.68515e-70
3.58243e-73
6.94939e-76
1.2112e-78
5.14803e-81
5.14803e-81
3.00142e-81
1.30189e-82
3.15646e-82
1.80186e-81
4.15592e-81
5.39216e-81
6.62727e-81
8.62e-81
1.10037e-80
1.23774e-80
1.47377e-80
1.70755e-80
2.16595e-80
2.22822e-80
2.40391e-80
1.97411e-80
8.99885e-81
1.51319e-82
1.96959e-82
1.86726e-82
1.7602e-82
1.58796e-82
1.41635e-82
1.2463e-82
1.0609e-82
8.90145e-83
7.09112e-83
5.02828e-83
5.21762e-83
1.98567e-82
5.23929e-81
8.21381e-81
2.73087e-79
1.81467e-76
1.11393e-73
6.25659e-71
3.22751e-68
1.7654e-65
9.12721e-63
4.23585e-60
1.78094e-57
6.82621e-55
2.39898e-52
7.76514e-50
2.33636e-47
6.90127e-45
1.84064e-42
4.20123e-40
8.05621e-38
1.27976e-35
1.65073e-33
1.68272e-31
1.31114e-29
7.96639e-28
3.76871e-26
2.50638e-25
3.84426e-25
3.317e-25
5.98812e-26
7.42264e-30
1.71606e-32
5.5461e-35
1.69857e-37
4.72883e-40
1.21625e-42
2.56998e-45
5.55431e-48
1.3238e-50
3.43338e-53
9.76358e-56
4.06693e-57
1.38869e-59
3.7747e-62
9.82603e-65
2.34094e-67
5.07034e-70
9.90475e-73
1.72432e-75
2.62061e-78
3.26574e-81
1.30189e-82
8.45e-83
2.33994e-83
2.92524e-84
6.525e-84
8.11264e-84
9.74322e-84
1.26505e-83
1.61845e-83
1.81441e-83
2.16561e-83
2.50515e-83
3.2072e-83
3.27552e-83
3.53248e-83
2.90736e-83
1.31235e-83
2.49901e-85
3.27521e-85
3.14292e-85
2.9968e-85
2.73757e-85
2.47027e-85
2.18396e-85
1.88162e-85
1.59732e-85
1.29724e-85
1.99559e-85
3.20046e-83
5.21766e-83
1.92401e-82
1.44692e-79
1.0737e-76
7.23662e-74
4.43909e-71
2.4825e-68
1.26677e-65
5.941e-63
3.06389e-60
1.42318e-57
5.90566e-55
2.20779e-52
7.48315e-50
2.31102e-47
6.54358e-45
1.745e-42
4.4146e-40
9.79992e-38
1.82728e-35
2.81971e-33
3.53115e-31
3.49295e-29
2.6411e-27
1.56739e-25
7.17932e-24
4.50782e-23
6.74353e-23
5.82496e-23
1.05429e-23
1.3042e-27
3.43389e-30
1.31595e-32
4.90804e-35
1.69355e-37
4.72883e-40
1.22277e-42
3.17512e-45
8.88547e-48
2.68095e-50
1.11566e-51
4.77477e-54
1.49399e-56
4.39862e-59
1.18136e-61
2.87061e-64
6.26379e-67
1.21415e-69
2.05227e-72
2.91353e-75
3.46673e-78
6.11464e-81
2.27215e-83
2.92524e-84
1.77773e-84
5.33435e-86
1.10309e-86
1.53415e-86
1.99032e-86
2.54431e-86
2.83585e-86
3.38606e-86
3.90378e-86
5.03566e-86
5.09986e-86
5.49265e-86
4.52964e-86
2.02405e-86
4.32207e-88
5.70727e-88
5.5428e-88
5.3462e-88
4.94478e-88
4.51706e-88
4.02939e-88
3.50576e-88
4.05188e-88
1.13282e-86
9.50548e-86
2.04685e-85
5.97987e-83
5.51381e-80
4.59092e-77
3.45184e-74
2.34978e-71
1.45085e-68
8.1353e-66
4.14561e-63
1.92008e-60
8.29951e-58
3.93927e-55
1.63832e-52
6.04787e-50
1.99743e-47
5.93769e-45
1.596e-42
3.91161e-40
9.15962e-38
1.95117e-35
3.55315e-33
5.33725e-31
6.50151e-29
6.25152e-27
4.59459e-25
2.67018e-23
1.18232e-21
6.95531e-21
1.01237e-20
8.7615e-21
1.59063e-21
1.97789e-25
5.97745e-28
2.76479e-30
1.27982e-32
4.90804e-35
1.69355e-37
5.4246e-40
1.69731e-42
5.5353e-45
1.41899e-46
1.18023e-48
4.53075e-51
1.48787e-53
4.53141e-56
1.24168e-58
3.0377e-61
6.56807e-64
1.23359e-66
1.94356e-69
2.56094e-72
4.95861e-75
8.93844e-78
1.47068e-80
2.34305e-83
5.41112e-86
3.02276e-87
1.90762e-87
6.68947e-89
2.67186e-89
4.25706e-89
4.70739e-89
5.61126e-89
6.4358e-89
8.34996e-89
8.37616e-89
9.00096e-89
7.43533e-89
3.28778e-89
7.80065e-91
1.03846e-90
1.02061e-90
9.95911e-91
9.32742e-91
8.62184e-91
7.75469e-91
1.51764e-90
2.2848e-88
4.05188e-88
1.12798e-86
1.3179e-83
1.39976e-80
1.32921e-77
1.13337e-74
8.70469e-72
6.03532e-69
3.78289e-66
2.14515e-63
1.10082e-60
5.11045e-58
2.14552e-55
8.66282e-53
3.69917e-50
1.37266e-47
4.48307e-45
1.2986e-42
3.35608e-40
7.77625e-38
1.63402e-35
3.30219e-33
5.8451e-31
8.59376e-29
1.02116e-26
9.56998e-25
6.8564e-23
3.91456e-21
1.67167e-19
9.20924e-19
1.30206e-18
1.12818e-18
2.09619e-19
2.55731e-23
8.86631e-26
5.03825e-28
2.76479e-30
1.27982e-32
5.58626e-35
2.25913e-37
8.61002e-40
3.20631e-42
2.42345e-43
1.21728e-45
4.39096e-48
1.52745e-50
4.7468e-53
1.30728e-55
3.1595e-58
6.58918e-61
1.14587e-63
1.51741e-66
3.13518e-69
6.22098e-72
1.123e-74
1.84411e-77
2.75154e-80
3.72436e-83
5.10196e-86
6.38767e-89
9.6409e-90
6.33621e-90
6.96109e-92
8.00231e-92
9.81771e-92
1.11814e-91
1.45651e-91
1.44564e-91
1.5486e-91
1.28092e-91
5.60261e-92
1.46422e-93
1.96618e-93
1.95545e-93
1.93071e-93
1.82851e-93
1.8482e-93
4.35636e-92
4.90744e-91
1.41546e-90
9.78822e-88
1.50367e-84
2.04653e-81
2.40758e-78
2.44029e-75
2.15102e-72
1.70382e-69
1.215e-66
7.80782e-64
4.52293e-61
2.36117e-58
1.11006e-55
4.6936e-53
1.7832e-50
6.62878e-48
2.54496e-45
8.39704e-43
2.41268e-40
6.08359e-38
1.35371e-35
2.67474e-33
4.81265e-31
8.08166e-29
1.15903e-26
1.35159e-24
1.23964e-22
8.70099e-21
4.89411e-19
2.04416e-17
1.09714e-16
1.49573e-16
1.297e-16
3.23038e-17
2.67645e-21
1.00181e-23
6.94818e-26
5.03825e-28
2.96217e-30
1.6832e-32
8.95562e-35
4.4404e-37
2.8737e-38
1.65877e-40
7.0157e-43
2.80716e-45
9.94286e-48
3.09288e-50
8.36916e-53
1.93698e-55
3.69995e-58
7.48266e-61
1.80058e-63
3.93385e-66
7.78657e-69
1.39732e-71
2.27268e-74
3.04239e-77
3.56181e-80
3.7402e-83
3.51125e-86
2.93672e-89
4.95234e-92
1.55436e-92
2.40062e-93
1.46993e-94
2.03832e-94
2.66263e-94
2.61195e-94
2.78695e-94
2.30732e-94
9.97837e-95
2.84891e-96
3.86073e-96
3.88483e-96
3.87753e-96
4.12358e-96
9.64348e-94
1.81134e-93
-2.29264e-92
-2.29183e-89
-4.44468e-87
3.27454e-83
9.38421e-80
1.55044e-76
2.05573e-73
2.32258e-70
2.20445e-67
1.75299e-64
1.19671e-61
7.16636e-59
3.85232e-56
1.85653e-53
8.00762e-51
3.08409e-48
1.05883e-45
3.55639e-43
1.22905e-40
3.59717e-38
9.04594e-36
1.97009e-33
3.73447e-31
6.21518e-29
9.44234e-27
1.29479e-24
1.47837e-22
1.33553e-20
9.28926e-19
5.67451e-17
2.60269e-15
7.82265e-15
1.00591e-14
8.81149e-15
1.57915e-15
2.22449e-19
7.31426e-22
5.57406e-24
4.88143e-26