/*--------------------------------*- C++ -*----------------------------------*\
| =========                 |                                                 |
| \\      /  F ield         | OpenFOAM: The Open Source CFD Toolbox           |
|  \\    /   O peration     | Version:  2412                                  |
|   \\  /    A nd           | Website:  www.openfoam.com                      |
|    \\/     M anipulation  |                                                 |
\*---------------------------------------------------------------------------*/
FoamFile
{
    version     2.0;
    format      ascii;
    arch        "LSB;label=32;scalar=64";
    class       surfaceScalarField;
    location    "8.25";
    object      phi;
}
// * * * * * * * * * * * * * * * * * * * * * * * * * * * * * * * * * * * * * //

dimensions      [0 3 -1 0 0 0 0];

oriented        oriented;

internalField   nonuniform List<scalar> 
12640
(
1.2338e-05
-1.2338e-05
2.58081e-05
-1.34906e-05
4.05125e-05
-1.47051e-05
5.61034e-05
-1.55879e-05
7.17492e-05
-1.56444e-05
8.66286e-05
-1.48795e-05
0.000100117
-1.34885e-05
0.000111932
-1.18155e-05
0.000122016
-1.00841e-05
0.000130511
-8.49474e-06
0.000137494
-6.98251e-06
0.000143162
-5.66836e-06
0.000147647
-4.48459e-06
0.000151052
-3.40503e-06
0.00015344
-2.38813e-06
0.000154832
-1.39197e-06
0.000155252
-4.20439e-07
0.000154718
5.33894e-07
0.000153233
1.48473e-06
0.000150831
2.40119e-06
0.000147491
3.34001e-06
0.000143295
4.19534e-06
0.000138267
5.02707e-06
0.000132479
5.78755e-06
0.000126013
6.46592e-06
0.000118939
7.07475e-06
0.000111346
7.59294e-06
0.000103343
8.00315e-06
9.49967e-05
8.3469e-06
8.63954e-05
8.60118e-06
7.763e-05
8.76505e-06
6.87461e-05
8.88378e-06
5.98248e-05
8.92122e-06
5.09158e-05
8.90895e-06
4.20634e-05
8.85242e-06
3.32796e-05
8.78373e-06
2.45775e-05
8.702e-06
1.59628e-05
8.6144e-06
7.41088e-06
8.55133e-06
-1.09699e-06
8.50702e-06
-9.58444e-06
8.48633e-06
-1.80843e-05
8.49866e-06
-2.66179e-05
8.53249e-06
-3.52123e-05
8.59327e-06
-4.38755e-05
8.66218e-06
-5.25733e-05
8.69698e-06
-6.13002e-05
8.72636e-06
-7.00286e-05
8.72807e-06
-7.87002e-05
8.67145e-06
-8.7292e-05
8.59174e-06
-9.57382e-05
8.44608e-06
-0.000103946
8.2079e-06
-0.000111842
7.89529e-06
-0.000119367
7.52445e-06
-0.000126419
7.05295e-06
-0.000132917
6.49804e-06
-0.000138781
5.86358e-06
-0.000143962
5.18051e-06
-0.000148377
4.41426e-06
-0.00015197
3.59235e-06
-0.000154711
2.74045e-06
-0.00015654
1.82955e-06
-0.000157455
9.1462e-07
-0.000157485
2.93629e-08
-0.000156552
-9.34461e-07
-0.000154622
-1.9299e-06
-0.000151605
-3.01614e-06
-0.000147434
-4.17086e-06
-0.000142025
-5.41053e-06
-0.000135204
-6.82278e-06
-0.000126778
-8.42609e-06
-0.000116583
-1.01949e-05
-0.000104513
-1.20704e-05
-9.06451e-05
-1.38703e-05
-7.52262e-05
-1.54199e-05
-5.89684e-05
-1.62577e-05
-4.26937e-05
-1.62753e-05
-2.72614e-05
-1.54327e-05
-1.30353e-05
-1.42261e-05
-1.3036e-05
1.33177e-05
-2.56369e-05
2.91127e-05
-2.92866e-05
4.7671e-05
-3.32669e-05
6.83017e-05
-3.62205e-05
8.94672e-05
-3.68103e-05
0.00010962
-3.50325e-05
0.000127614
-3.14819e-05
0.000142937
-2.71385e-05
0.000155516
-2.26632e-05
0.000165515
-1.84937e-05
0.000173341
-1.48081e-05
0.000179336
-1.16628e-05
0.000183812
-8.96088e-06
0.000187012
-6.60525e-06
0.000189081
-4.45751e-06
0.00019012
-2.43132e-06
0.000190162
-4.62928e-07
0.000189197
1.49869e-06
0.000187246
3.43506e-06
0.000184293
5.35265e-06
0.000180384
7.24833e-06
0.000175501
9.07851e-06
0.000169727
1.08019e-05
0.000163073
1.24419e-05
0.000155595
1.39447e-05
0.000147362
1.53083e-05
0.000138459
1.64962e-05
0.000128963
1.7498e-05
0.000118979
1.83306e-05
0.000108583
1.8996e-05
9.78674e-05
1.94802e-05
8.69834e-05
1.97672e-05
7.59549e-05
1.9949e-05
6.48343e-05
2.00287e-05
5.36963e-05
1.99895e-05
4.25945e-05
1.98845e-05
3.15856e-05
1.97097e-05
2.06415e-05
1.95572e-05
9.75916e-06
1.94322e-05
-1.0831e-06
1.93479e-05
-1.1923e-05
1.9325e-05
-2.27861e-05
1.93606e-05
-3.36982e-05
1.94436e-05
-4.46621e-05
1.95563e-05
-5.56619e-05
1.96614e-05
-6.66808e-05
1.97155e-05
-7.76539e-05
1.96992e-05
-8.85475e-05
1.96216e-05
-9.93566e-05
1.94805e-05
-0.000109946
1.91808e-05
-0.000120236
1.87359e-05
-0.000130138
1.81101e-05
-0.000139584
1.73407e-05
-0.000148456
1.63968e-05
-0.000156688
1.52854e-05
-0.000164222
1.40313e-05
-0.000170997
1.26385e-05
-0.000176948
1.11304e-05
-0.000182049
9.51397e-06
-0.000186231
7.77438e-06
-0.000189488
5.99728e-06
-0.000191827
4.1686e-06
-0.000193246
2.33183e-06
-0.000193679
4.61403e-07
-0.000193146
-1.46744e-06
-0.000191524
-3.55129e-06
-0.000188749
-5.79023e-06
-0.000184651
-8.26995e-06
-0.000178897
-1.11662e-05
-0.000171217
-1.45041e-05
-0.000161205
-1.84379e-05
-0.000148473
-2.29272e-05
-0.000132789
-2.77576e-05
-0.000114235
-3.24251e-05
-9.34531e-05
-3.62011e-05
-7.15226e-05
-3.81883e-05
-5.00836e-05
-3.77147e-05
-3.06758e-05
-3.48403e-05
-1.40657e-05
-3.08372e-05
-2.71014e-05
1.42733e-05
-3.99109e-05
3.22657e-05
-4.72768e-05
5.40826e-05
-5.50843e-05
7.86015e-05
-6.07403e-05
0.000103659
-6.18683e-05
0.000127315
-5.86889e-05
0.000148224
-5.23915e-05
0.000165642
-4.45559e-05
0.000179521
-3.65433e-05
0.000190196
-2.9169e-05
0.000198165
-2.27764e-05
0.000203922
-1.74208e-05
0.000207871
-1.291e-05
0.000210316
-9.04992e-06
0.000211498
-5.64039e-06
0.000211545
-2.47845e-06
0.000210511
5.71129e-07
0.000208423
3.58636e-06
0.000205302
6.55643e-06
0.000201157
9.49814e-06
0.000196008
1.23988e-05
0.000189883
1.52047e-05
0.000182821
1.78647e-05
0.000174882
2.03814e-05
0.000166118
2.27083e-05
0.000156644
2.47818e-05
0.000146523
2.66151e-05
0.00013586
2.81604e-05
0.000124764
2.94252e-05
0.000113347
3.04127e-05
0.000101717
3.11086e-05
8.99495e-05
3.15329e-05
7.81435e-05
3.17532e-05
6.63723e-05
3.17983e-05
5.47087e-05
3.16517e-05
4.31613e-05
3.14308e-05
3.17626e-05
3.11075e-05
2.05229e-05
3.07962e-05
9.40182e-06
3.05531e-05
-1.65989e-06
3.04096e-05
-1.27161e-05
3.03812e-05
-2.38189e-05
3.04635e-05
-3.50247e-05
3.06497e-05
-4.63484e-05
3.08801e-05
-5.77948e-05
3.11078e-05
-6.93548e-05
3.12759e-05
-8.10216e-05
3.13666e-05
-9.27147e-05
3.13155e-05
-0.000104345
3.11119e-05
-0.000115862
3.0698e-05
-0.00012717
3.00443e-05
-0.000138179
2.91189e-05
-0.000148762
2.79248e-05
-0.000158828
2.64629e-05
-0.000168293
2.4751e-05
-0.000177082
2.28213e-05
-0.000185102
2.06581e-05
-0.000192308
1.8336e-05
-0.000198625
1.58311e-05
-0.000204034
1.31846e-05
-0.000208503
1.04657e-05
-0.000211988
7.65418e-06
-0.000214499
4.84228e-06
-0.000215997
1.95895e-06
-0.000216407
-1.05722e-06
-0.000215689
-4.26817e-06
-0.0002137
-7.77846e-06
-0.000210115
-1.18562e-05
-0.000204651
-1.66298e-05
-0.000196825
-2.23285e-05
-0.000186125
-2.91373e-05
-0.000172012
-3.7041e-05
-0.000154158
-4.56115e-05
-0.000132633
-5.39487e-05
-0.000108182
-6.06514e-05
-8.21898e-05
-6.41806e-05
-5.6718e-05
-6.31856e-05
-3.39718e-05
-5.7587e-05
-1.51393e-05
-4.96701e-05
-4.22413e-05
1.51702e-05
-5.50849e-05
3.51674e-05
-6.72732e-05
6.0105e-05
-8.00218e-05
8.82816e-05
-8.89173e-05
0.000116978
-9.05653e-05
0.000143733
-8.5444e-05
0.000166876
-7.55355e-05
0.000185686
-6.33668e-05
0.000200301
-5.11581e-05
0.00021125
-4.01187e-05
0.000219228
-3.07551e-05
0.000224849
-2.30414e-05
0.000228619
-1.66807e-05
0.000230888
-1.13189e-05
0.000231804
-6.55676e-06
0.000231535
-2.20889e-06
0.000230121
1.98548e-06
0.000227582
6.12571e-06
0.000223915
1.02238e-05
0.000219135
1.42792e-05
0.000213266
1.82683e-05
0.000206331
2.21388e-05
0.000198366
2.58301e-05
0.000189449
2.92988e-05
0.000179661
3.24965e-05
0.000169086
3.53575e-05
0.000157838
3.78636e-05
0.000146028
3.99709e-05
0.000133774
4.16788e-05
0.000121253
4.29334e-05
0.000108511
4.38505e-05
9.569e-05
4.43532e-05
8.28836e-05
4.45592e-05
7.01573e-05
4.45238e-05
5.75746e-05
4.42332e-05
4.52471e-05
4.37569e-05
3.31334e-05
4.32198e-05
2.12165e-05
4.27117e-05
9.46492e-06
4.23032e-05
-2.20738e-06
4.20807e-05
-1.38701e-05
4.20431e-05
-2.56058e-05
4.21986e-05
-3.74839e-05
4.25275e-05
-4.95349e-05
4.29313e-05
-6.17712e-05
4.33447e-05
-7.42269e-05
4.37325e-05
-8.68242e-05
4.39648e-05
-9.95009e-05
4.39932e-05
-0.000112192
4.38036e-05
-0.000124807
4.33135e-05
-0.00013722
4.24582e-05
-0.000149328
4.12269e-05
-0.000161016
3.96136e-05
-0.000172162
3.76096e-05
-0.000182666
3.52552e-05
-0.000192422
3.25773e-05
-0.000201393
2.96289e-05
-0.000209471
2.64141e-05
-0.000216582
2.29415e-05
-0.000222695
1.92975e-05
-0.000227743
1.55139e-05
-0.000231751
1.16617e-05
-0.000234694
7.7844e-06
-0.000236552
3.81613e-06
-0.000237289
-3.19615e-07
-0.000236883
-4.67417e-06
-0.000235121
-9.54087e-06
-0.000231792
-1.5186e-05
-0.00022648
-2.19404e-05
-0.000218687
-3.01203e-05
-0.000207733
-4.00921e-05
-0.0001929
-5.18749e-05
-0.000173615
-6.4895e-05
-0.000149744
-7.78187e-05
-0.000122036
-8.83584e-05
-9.22869e-05
-9.39292e-05
-6.2985e-05
-9.24877e-05
-3.70552e-05
-8.35168e-05
-1.6091e-05
-7.06345e-05
-5.83317e-05
1.59707e-05
-7.10575e-05
3.81151e-05
-8.94181e-05
6.66606e-05
-0.000108568
9.91275e-05
-0.000121385
0.000131805
-0.000123243
0.000161358
-0.000114998
0.000185869
-0.000100048
0.000204884
-8.23826e-05
0.000218986
-6.52599e-05
0.000229154
-5.02871e-05
0.000236366
-3.7968e-05
0.000241406
-2.80815e-05
0.000244819
-2.00932e-05
0.000246853
-1.33536e-05
0.000247709
-7.41212e-06
0.00024742
-1.91996e-06
0.000245973
3.43202e-06
0.000243381
8.71792e-06
0.000239585
1.4019e-05
0.000234604
1.92591e-05
0.000228408
2.44641e-05
0.000221032
2.95145e-05
0.000212531
3.43318e-05
0.000202961
3.88689e-05
0.000192415
4.30437e-05
0.000181007
4.67658e-05
0.000168858
5.00129e-05
0.000156107
5.27221e-05
0.000142878
5.49086e-05
0.000129285
5.65267e-05
0.00011555
5.75865e-05
0.000101726
5.81782e-05
8.79271e-05
5.83577e-05
7.42903e-05
5.81604e-05
6.08551e-05
5.76682e-05
4.76926e-05
5.69187e-05
3.4808e-05
5.61035e-05
2.21565e-05
5.53622e-05
9.73585e-06
5.4723e-05
-2.55682e-06
5.43726e-05
-1.4843e-05
5.43285e-05
-2.72241e-05
5.45792e-05
-3.98115e-05
5.51145e-05
-5.26226e-05
5.57419e-05
-6.57115e-05
5.6433e-05
-7.90227e-05
5.70431e-05
-9.2534e-05
5.74757e-05
-0.000106182
5.76412e-05
-0.000119856
5.74761e-05
-0.000133449
5.69065e-05
-0.000146854
5.58626e-05
-0.000159933
5.43054e-05
-0.00017254
5.22194e-05
-0.000184526
4.95965e-05
-0.000195799
4.65279e-05
-0.000206288
4.3066e-05
-0.000215844
3.91848e-05
-0.0002244
3.49693e-05
-0.000231929
3.04709e-05
-0.00023833
2.56985e-05
-0.000243596
2.07796e-05
-0.000247733
1.57975e-05
-0.000250743
1.07941e-05
-0.000252662
5.73545e-06
-0.00025351
5.28671e-07
-0.000253225
-4.95954e-06
-0.000251764
-1.1003e-05
-0.000248907
-1.8042e-05
-0.000244295
-2.6552e-05
-0.000237358
-3.70581e-05
-0.000227282
-5.01697e-05
-0.000213026
-6.61302e-05
-0.000193558
-8.43618e-05
-0.000168256
-0.000103121
-0.000137615
-0.000118999
-0.000103671
-0.000127873
-6.99341e-05
-0.000126225
-4.02141e-05
-0.000113237
-1.69573e-05
-9.38909e-05
-7.52875e-05
1.71245e-05
-8.81824e-05
4.26063e-05
-0.000114901
7.68577e-05
-0.00014282
0.00011567
-0.000160197
0.000153338
-0.000160912
0.000185272
-0.000146932
0.000209619
-0.000124396
0.000226793
-9.9557e-05
0.000238435
-7.69019e-05
0.000246221
-5.8073e-05
0.000251504
-4.32515e-05
0.000255211
-3.17892e-05
0.000257764
-2.26466e-05
0.000259399
-1.49877e-05
0.00026011
-8.12383e-06
0.000259823
-1.63325e-06
0.000258474
4.7797e-06
0.000255986
1.12047e-05
0.000252243
1.7761e-05
0.000247247
2.42546e-05
0.0002409
3.08103e-05
0.000233254
3.71605e-05
0.000224359
4.32253e-05
0.000214264
4.89632e-05
0.000203121
5.4186e-05
0.000191005
5.88815e-05
0.000178081
6.2936e-05
0.000164478
6.63251e-05
0.000150392
6.89943e-05
0.000135949
7.09692e-05
0.000121254
7.22813e-05
0.000106503
7.2928e-05
9.18798e-05
7.29808e-05
7.7449e-05
7.25907e-05
6.33087e-05
7.18079e-05
4.94861e-05
7.07407e-05
3.59883e-05
6.96006e-05
2.28631e-05
6.84865e-05
9.96652e-06
6.76187e-05
-2.77027e-06
6.71086e-05
-1.54879e-05
6.70453e-05
-2.83445e-05
6.74348e-05
-4.14086e-05
6.81774e-05
-5.48098e-05
6.91419e-05
-6.85407e-05
7.01629e-05
-8.25621e-05
7.10636e-05
-9.68656e-05
7.17783e-05
-0.000111324
7.20984e-05
-0.000125862
7.20139e-05
-0.00014035
7.13934e-05
-0.000154624
7.01362e-05
-0.000168519
6.81992e-05
-0.000181878
6.5578e-05
-0.000194639
6.23577e-05
-0.000206583
5.84724e-05
-0.000217609
5.40916e-05
-0.000227629
4.92041e-05
-0.000236526
4.38665e-05
-0.000244256
3.8201e-05
-0.00025079
3.22319e-05
-0.000256107
2.60966e-05
-0.000260232
1.99218e-05
-0.00026321
1.37727e-05
-0.000265109
7.63475e-06
-0.000266014
1.43398e-06
-0.000266001
-4.97313e-06
-0.000265071
-1.19325e-05
-0.000263199
-1.99126e-05
-0.000260139
-2.96125e-05
-0.000255322
-4.1876e-05
-0.000247822
-5.76695e-05
-0.000236202
-7.77495e-05
-0.00021869
-0.000101874
-0.000193574
-0.000128238
-0.000160431
-0.000152142
-0.000121231
-0.000167075
-8.07898e-05
-0.000166666
-4.50384e-05
-0.000148988
-1.82539e-05
-0.000120675
-9.35431e-05
1.94641e-05
-0.000107647
5.16608e-05
-0.000147098
9.60286e-05
-0.000187188
0.000145033
-0.000209202
0.000189027
-0.000204907
0.000221997
-0.000179902
0.000243109
-0.000145509
0.00025496
-0.000111407
0.000261083
-8.3025e-05
0.000264265
-6.12557e-05
0.00026619
-4.51769e-05
0.000267652
-3.32513e-05
0.000268942
-2.39377e-05
0.000269949
-1.5995e-05
0.000270466
-8.64145e-06
0.000270224
-1.39203e-06
0.000269027
5.97647e-06
0.00026669
1.35407e-05
0.000263085
2.13655e-05
0.00025807
2.92691e-05
0.000251647
3.72314e-05
0.000243773
4.50332e-05
0.000234528
5.24675e-05
0.000223949
5.95411e-05
0.000212185
6.59484e-05
0.000199373
7.16911e-05
0.000185669
7.66379e-05
0.000171266
8.0727e-05
0.000156323
8.39356e-05
0.000140976
8.63138e-05
0.000125504
8.77518e-05
0.000109999
8.84312e-05
9.46132e-05
8.83654e-05
7.94639e-05
8.77384e-05
6.4704e-05
8.65661e-05
5.03542e-05
8.50886e-05
3.651e-05
8.34429e-05
2.30898e-05
8.19051e-05
1.00038e-05
8.07031e-05
-2.89788e-06
8.00089e-05
-1.57851e-05
7.99312e-05
-2.88363e-05
8.0485e-05
-4.21884e-05
8.15287e-05
-5.5937e-05
8.28898e-05
-7.01269e-05
8.4352e-05
-8.47753e-05
8.57112e-05
-9.97454e-05
8.67477e-05
-0.000114969
8.7321e-05
-0.000130278
8.73222e-05
-0.000145545
8.6659e-05
-0.000160629
8.52194e-05
-0.000175328
8.28975e-05
-0.000189464
7.97134e-05
-0.000202868
7.57613e-05
-0.000215448
7.10522e-05
-0.000227048
6.56914e-05
-0.000237489
5.96449e-05
-0.00024671
5.30871e-05
-0.000254647
4.61374e-05
-0.000261269
3.88544e-05
-0.000266577
3.14047e-05
-0.000270634
2.3979e-05
-0.000273539
1.66789e-05
-0.000275401
9.49717e-06
-0.000276392
2.42543e-06
-0.000276713
-4.65249e-06
-0.000276606
-1.20384e-05
-0.00027623
-2.02876e-05
-0.000275631
-3.02129e-05
-0.0002745
-4.30074e-05
-0.000271931
-6.02377e-05
-0.000266178
-8.3502e-05
-0.000254273
-0.000113781
-0.000232523
-0.000149988
-0.000198216
-0.000186451
-0.000152291
-0.000213001
-0.000101107
-0.000217851
-5.46982e-05
-0.000195398
-2.08415e-05
-0.000154532
-0.000114385
2.43937e-05
-0.00013204
6.92646e-05
-0.000191969
0.000130386
-0.00024831
0.000193555
-0.000272371
0.000244281
-0.000255633
0.000275608
-0.000211228
0.000289022
-0.000158923
0.000290873
-0.000113258
0.000287638
-7.97904e-05
0.000283601
-5.72197e-05
0.000280691
-4.22675e-05
0.00027928
-3.18412e-05
0.000279079
-2.37368e-05
0.000279472
-1.63889e-05
0.0002799
-9.07015e-06
0.00027984
-1.33231e-06
0.000278915
6.90098e-06
0.000276822
1.56327e-05
0.00027339
2.47969e-05
0.000268421
3.42372e-05
0.000261907
4.37446e-05
0.000253812
5.31262e-05
0.000244158
6.21204e-05
0.000233015
7.06818e-05
0.000220587
7.83758e-05
0.000207005
8.52722e-05
0.000192466
9.1177e-05
0.00017717
9.60231e-05
0.000161299
9.98078e-05
0.00014515
0.000102463
0.000128805
0.000104098
0.000112464
0.000104773
9.63103e-05
0.000104519
8.05799e-05
0.000103469
6.53076e-05
0.000101838
5.0631e-05
9.97646e-05
3.65273e-05
9.75456e-05
2.29927e-05
9.54384e-05
9.87538e-06
9.38191e-05
-2.96834e-06
9.28512e-05
-1.57884e-05
9.27497e-05
-2.88452e-05
9.35404e-05
-4.23055e-05
9.49875e-05
-5.63254e-05
9.6908e-05
-7.09082e-05
9.8933e-05
-8.60554e-05
0.000100857
-0.000101616
0.000102307
-0.00011752
0.000103223
-0.000133638
0.000103438
-0.000149737
0.000102756
-0.000165616
0.000101096
-0.000181147
9.84277e-05
-0.000196085
9.465e-05
-0.000210277
8.99532e-05
-0.000223555
8.43297e-05
-0.000235728
7.78636e-05
-0.00024665
7.0567e-05
-0.000256249
6.26852e-05
-0.000264417
5.43053e-05
-0.00027112
4.55586e-05
-0.000276387
3.66718e-05
-0.000280308
2.79006e-05
-0.000283062
1.94332e-05
-0.00028478
1.12137e-05
-0.000285748
3.3928e-06
-0.000286338
-4.06175e-06
-0.00028707
-1.13067e-05
-0.000288472
-1.88862e-05
-0.0002911
-2.75867e-05
-0.000295187
-3.89204e-05
-0.000300322
-5.51013e-05
-0.000304383
-7.94423e-05
-0.000302873
-0.000115293
-0.000288946
-0.000163914
-0.000256059
-0.000219339
-0.000202903
-0.000266158
-0.000136922
-0.000283832
-7.3189e-05
-0.000259132
-2.60974e-05
-0.000201625
-0.000140482
3.31592e-05
-0.0001652
9.7631e-05
-0.000256441
0.000179859
-0.000330537
0.000257159
-0.000349672
0.000311968
-0.000310441
0.000338401
-0.000237662
0.000340877
-0.000161399
0.00032974
-0.000102121
0.000314753
-6.4804e-05
0.000302035
-4.45034e-05
0.000293718
-3.39513e-05
0.000289516
-2.76396e-05
0.000288061
-2.22822e-05
0.000288322
-1.66509e-05
0.000289032
-9.78133e-06
0.000289477
-1.77808e-06
0.000289086
7.29181e-06
0.000287448
1.72702e-05
0.000284316
2.79295e-05
0.000279478
3.90748e-05
0.000272896
5.03271e-05
0.000264521
6.15021e-05
0.000254361
7.22822e-05
0.000242559
8.24849e-05
0.000229318
9.16184e-05
0.00021484
9.97511e-05
0.000199319
0.000106699
0.000183031
0.000112312
0.000166175
0.000116665
0.000148996
0.000119643
0.000131684
0.00012141
0.000114517
0.000121939
9.7646e-05
0.00012139
8.12053e-05
0.000119909
6.54093e-05
0.000117633
5.03532e-05
0.00011482
3.60374e-05
0.00011186
2.25096e-05
0.000108965
9.5948e-06
0.000106733
-2.99802e-06
0.000105443
-1.55821e-05
0.000105333
-2.84634e-05
0.00010642
-4.19215e-05
0.000108444
-5.61324e-05
0.000111117
-7.10694e-05
0.000113869
-8.67121e-05
0.000116498
-0.000102985
0.000118579
-0.000119664
0.000119902
-0.000136545
0.000120319
-0.000153549
0.00011976
-0.000170356
0.000117903
-0.000186779
0.00011485
-0.000202691
0.000110561
-0.000217788
0.00010505
-0.000231885
9.84274e-05
-0.000244792
9.07702e-05
-0.000256333
8.21079e-05
-0.000266341
7.26934e-05
-0.000274712
6.26759e-05
-0.000281481
5.23277e-05
-0.000286673
4.1864e-05
-0.000290351
3.15791e-05
-0.000292646
2.17273e-05
-0.00029402
1.25875e-05
-0.000294646
4.01845e-06
-0.000295179
-3.52898e-06
-0.000296334
-1.01517e-05
-0.000299202
-1.60202e-05
-0.000305042
-2.17464e-05
-0.000315026
-2.89352e-05
-0.000329298
-4.08288e-05
-0.00034555
-6.31912e-05
-0.000357168
-0.000103674
-0.000354024
-0.000167058
-0.00032568
-0.000247685
-0.000268063
-0.000323773
-0.000187606
-0.00036429
-0.000102312
-0.000344424
-3.52071e-05
-0.000268729
-0.000175691
4.587e-05
-0.00021107
0.000132436
-0.000343008
0.000231336
-0.000429437
0.000314201
-0.000432536
0.00036608
-0.000362321
0.000385001
-0.000256584
0.0003781
-0.000154499
0.000356882
-8.09043e-05
0.000333001
-4.09242e-05
0.000313974
-2.54766e-05
0.000302185
-2.2163e-05
0.000296596
-2.20511e-05
0.000295358
-2.1044e-05
0.000296401
-1.76946e-05
0.000298175
-1.15559e-05
0.000299702
-3.30523e-06
0.000300243
6.75119e-06
0.000299331
1.81829e-05
0.000296682
3.05801e-05
0.000292124
4.36346e-05
0.000285488
5.69651e-05
0.000276786
7.02049e-05
0.000266061
8.30065e-05
0.000253452
9.50932e-05
0.000239234
0.000105836
0.000223601
0.000115383
0.000206913
0.000123386
0.000189377
0.000129847
0.000171373
0.000134668
0.00015304
0.000137976
0.000134731
0.000139718
0.000116569
0.0001401
9.87702e-05
0.000139188
8.16433e-05
0.000137035
6.53268e-05
0.000133949
4.98661e-05
0.00013028
3.54832e-05
0.000126243
2.201e-05
0.000122438
9.29635e-06
0.000119446
-2.98131e-06
0.000117721
-1.52486e-05
0.0001176
-2.79368e-05
0.000119109
-4.13738e-05
0.000121882
-5.56871e-05
0.000125431
-7.10698e-05
0.000129252
-8.72274e-05
0.000132656
-0.000104199
0.000135551
-0.000121735
0.000137439
-0.000139628
0.000138212
-0.000157571
0.000137704
-0.000175497
0.000135828
-0.000193063
0.000132417
-0.000210044
0.000127542
-0.000226194
0.000121201
-0.000241265
0.000113498
-0.000255048
0.000104553
-0.000267283
9.43425e-05
-0.000277793
8.32037e-05
-0.000286464
7.13471e-05
-0.00029322
5.90849e-05
-0.000298183
4.68276e-05
-0.000301402
3.4798e-05
-0.0003031
2.34251e-05
-0.000303559
1.30467e-05
-0.000303302
3.76185e-06
-0.000303007
-3.82407e-06
-0.00030371
-9.45016e-06
-0.000306728
-1.3002e-05
-0.000314191
-1.42816e-05
-0.000328032
-1.50932e-05
-0.000348901
-1.99598e-05
-0.000374068
-3.80247e-05
-0.000395564
-8.21754e-05
-0.000401388
-0.000161235
-0.000380328
-0.000268744
-0.000325648
-0.000378452
-0.000239725
-0.000450214
-0.000137772
-0.000446378
-4.83098e-05
-0.000358193
-0.000224
5.97135e-05
-0.000270783
0.000160726
-0.00044402
0.000260393
-0.000529106
0.00033335
-0.000505494
0.00037351
-0.000402482
0.000384526
-0.000267602
0.000374164
-0.000144139
0.000352441
-5.91823e-05
0.000329313
-1.7797e-05
0.000311627
-7.78992e-06
0.000301878
-1.24146e-05
0.000298769
-1.89417e-05
0.000300048
-2.23212e-05
0.000303509
-2.11547e-05
0.000307519
-1.55658e-05
0.000310889
-6.67411e-06
0.000312924
4.71661e-06
0.00031309
1.80173e-05
0.000311179
3.24911e-05
0.000306985
4.78276e-05
0.00030035
6.35983e-05
0.000291289
7.92656e-05
0.000279851
9.4444e-05
0.00026628
0.000108664
0.00025087
0.000121246
0.000233912
0.000132341
0.000215788
0.00014151
0.000196851
0.000148784
0.000177416
0.000154104
0.000157795
0.000157596
0.000138254
0.000159259
0.00011901
0.000159344
0.000100335
0.000157863
8.23249e-05
0.000155044
6.52875e-05
0.000150986
4.94793e-05
0.000146088
3.49066e-05
0.000140815
2.15157e-05
0.000135829
9.02842e-06
0.000131934
-2.91862e-06
0.000129668
-1.48801e-05
0.000129562
-2.73841e-05
0.000131613
-4.07695e-05
0.000135267
-5.53143e-05
0.000139976
-7.09942e-05
0.000144931
-8.79163e-05
0.000149579
-0.000105714
0.000153349
-0.000124215
0.00015594
-0.000143165
0.000157162
-0.000162352
0.000156891
-0.00018146
0.000154935
-0.000200326
0.000151281
-0.000218598
0.000145815
-0.000236026
0.000138628
-0.00025225
0.000129723
-0.000267073
0.000119375
-0.000280133
0.000107402
-0.000291233
9.43036e-05
-0.000300187
8.03012e-05
-0.000306978
6.58765e-05
-0.000311524
5.13728e-05
-0.000314018
3.72924e-05
-0.000314667
2.4073e-05
-0.000313746
1.21259e-05
-0.000311832
1.84828e-06
-0.000309512
-6.14482e-06
-0.000308007
-1.09562e-05
-0.00030888
-1.21286e-05
-0.00031431
-8.85052e-06
-0.00032635
-3.05455e-06
-0.000345904
-4.0778e-07
-0.000370034
-1.3893e-05
-0.000391636
-6.0574e-05
-0.000400856
-0.000152018
-0.000387987
-0.00028161
-0.000345455
-0.000420987
-0.00026969
-0.000525977
-0.00016689
-0.000549177
-6.26546e-05
-0.000462429
-0.000286655
6.87732e-05
-0.000339557
0.000165807
-0.000541056
0.000245479
-0.00060878
0.000294657
-0.000554674
0.000317737
-0.000425563
0.000322988
-0.000272854
0.000317193
-0.000138345
0.000306476
-4.8466e-05
0.000296281
-7.60284e-06
0.000290362
-1.87031e-06
0.000289918
-1.1969e-05
0.000294209
-2.32315e-05
0.000301397
-2.95088e-05
0.000309479
-2.92353e-05
0.000317072
-2.31589e-05
0.000323173
-1.27752e-05
0.000327243
6.46729e-07
0.000328953
1.63067e-05
0.000328052
3.33919e-05
0.00032441
5.14692e-05
0.000317736
7.0273e-05
0.000308338
8.8664e-05
0.000296002
0.00010678
0.000281253
0.000123413
0.000264414
0.000138084
0.000245836
0.000150919
0.000226041
0.000161304
0.000205443
0.000169381
0.000184421
0.000175125
0.000163375
0.000178642
0.000142531
0.000180102
0.000122105
0.000179769
0.000102383
0.000177585
8.36092e-05
0.000173817
6.58906e-05
0.000168704
4.95899e-05
0.000162387
3.46627e-05
0.000155742
2.11973e-05
0.000149294
8.8901e-06
0.000144241
-2.80959e-06
0.000141368
-1.45144e-05
0.000141267
-2.68314e-05
0.00014393
-4.02829e-05
0.000148718
-5.51628e-05
0.000154855
-7.14463e-05
0.000161215
-8.90581e-05
0.00016719
-0.000107768
0.000172059
-0.000127346
0.000175519
-0.000147521
0.000177337
-0.000168007
0.000177376
-0.000188545
0.000175472
-0.000208846
0.000171582
-0.000228595
0.000165562
-0.000247482
0.000157515
-0.000265051
0.000147291
-0.000281032
0.000135355
-0.000295078
0.000121447
-0.000306893
0.000106118
-0.000316103
8.951e-05
-0.000322808
7.25813e-05
-0.000326778
5.53419e-05
-0.000328304
3.88178e-05
-0.000327531
2.32999e-05
-0.000324668
9.26275e-06
-0.000320198
-2.62199e-06
-0.000314708
-1.16369e-05
-0.00030882
-1.68445e-05
-0.000304292
-1.66567e-05
-0.000302395
-1.07483e-05
-0.000305203
-2.48316e-07
-0.000313085
7.47388e-06
-0.000324374
-2.60389e-06
-0.000335208
-4.97415e-05
-0.000340485
-0.000146741
-0.000334112
-0.000287983
-0.000309302
-0.000445798
-0.000257425
-0.000577856
-0.000173979
-0.000632625
-7.26803e-05
-0.000563726
-0.000359338
6.70394e-05
-0.000406597
0.000138736
-0.000612754
0.000183561
-0.000653606
0.000203756
-0.000574871
0.000211554
-0.000433362
0.000215412
-0.000276714
0.000220898
-0.000143832
0.000228612
-5.61812e-05
0.000239061
-1.8052e-05
0.000252086
-1.48953e-05
0.000267044
-2.69263e-05
0.000283075
-3.92633e-05
0.000298917
-4.53507e-05
0.000313317
-4.36358e-05
0.000325607
-3.54485e-05
0.000335208
-2.23758e-05
0.000341877
-6.02214e-06
0.000345513
1.26715e-05
0.000345986
3.29193e-05
0.00034296
5.44965e-05
0.000336705
7.65277e-05
0.000326759
9.86105e-05
0.000313585
0.000119954
0.000297542
0.000139456
0.000279109
0.000156518
0.000258725
0.000171302
0.000237083
0.000182946
0.000214651
0.000191814
0.000191991
0.000197784
0.000169407
0.000201226
0.00014722
0.000202289
0.000125719
0.000201268
0.000104983
0.00019832
8.53104e-05
0.000193489
6.69738e-05
0.00018704
5.00217e-05
0.000179339
3.48542e-05
0.000170908
2.12076e-05
0.000162939
8.88708e-06
0.00015656
-2.69478e-06
0.000152948
-1.42645e-05
0.000152836
-2.65561e-05
0.000156221
-4.01645e-05
0.000162326
-5.53213e-05
0.000170011
-7.22643e-05
0.000178157
-9.06422e-05
0.000185568
-0.000110334
0.000191751
-0.000131058
0.000196242
-0.000152424
0.000198703
-0.000174261
0.000199213
-0.000196261
0.000197471
-0.000218051
0.000193371
-0.000239386
0.000186897
-0.000259713
0.000177841
-0.000278669
0.000166246
-0.000295895
0.00015258
-0.000310951
0.0001365
-0.000323299
0.000118465
-0.000332952
9.91615e-05
-0.000339159
7.87868e-05
-0.000342576
5.87584e-05
-0.000342698
3.89387e-05
-0.000340072
2.06728e-05
-0.000334796
3.98537e-06
-0.000327113
-1.03067e-05
-0.000317242
-2.15093e-05
-0.000305688
-2.83986e-05
-0.000292866
-2.94786e-05
-0.00027999
-2.36262e-05
-0.000267706
-1.25337e-05
-0.000256781
-3.44955e-06
-0.000247838
-1.15494e-05
-0.000240723
-5.68579e-05
-0.000236073
-0.000151389
-0.000232061
-0.000292
-0.000223253
-0.000454604
-0.000200357
-0.000600754
-0.000150561
-0.000682424
-7.2646e-05
-0.000641642
-0.000431984
5.27505e-05
-0.000459349
8.51889e-05
-0.000645194
9.24605e-05
-0.000660879
8.87536e-05
-0.000571164
8.60061e-05
-0.000430615
9.24758e-05
-0.000283184
0.000110182
-0.000161539
0.000137974
-8.39736e-05
0.000170581
-5.06603e-05
0.000203859
-4.81748e-05
0.000235222
-5.82912e-05
0.000263702
-6.77444e-05
0.000288843
-7.04915e-05
0.000310296
-6.50894e-05
0.000327884
-5.30358e-05
0.000341614
-3.61052e-05
0.000351515
-1.59213e-05
0.00035766
6.52818e-06
0.000359894
3.0685e-05
0.000358202
5.61886e-05
0.000352382
8.23481e-05
0.000342451
0.000108542
0.000328691
0.000133715
0.000311485
0.000156662
0.00029157
0.000176433
0.000269582
0.00019329
0.000246172
0.000206356
0.000222123
0.000215863
0.000197881
0.000222026
0.000174091
0.000225015
0.00015096
0.000225421
0.000128553
0.000223676
0.000107067
0.000219807
8.66188e-05
0.000213937
6.75887e-05
0.000206071
5.02262e-05
0.000196702
3.45644e-05
0.000186571
2.07615e-05
0.000176742
8.55918e-06
0.000168762
-2.63226e-06
0.00016414
-1.3758e-05
0.000163961
-2.58156e-05
0.000168278
-3.95022e-05
0.000176012
-5.50933e-05
0.000185601
-7.25039e-05
0.000195567
-9.16995e-05
0.000204763
-0.000112369
0.000212421
-0.000134037
0.000217909
-0.000156476
0.000221142
-0.000179307
0.000222044
-0.000202441
0.000220605
-0.00022558
0.00021651
-0.000248117
0.000209434
-0.000269584
0.000199309
-0.000289565
0.000186228
-0.000307609
0.000170624
-0.000323221
0.000152112
-0.000335893
0.000131137
-0.000345168
0.000108436
-0.000350995
8.46131e-05
-0.000352938
6.07012e-05
-0.000351496
3.74955e-05
-0.000346592
1.57687e-05
-0.000338517
-4.09044e-06
-0.000327273
-2.15518e-05
-0.000312764
-3.60184e-05
-0.000294926
-4.62357e-05
-0.000273812
-5.05932e-05
-0.000249133
-4.83066e-05
-0.000221179
-4.04879e-05
-0.000190715
-3.39129e-05
-0.000160482
-4.17856e-05
-0.000135115
-8.22243e-05
-0.000117894
-0.00016861
-0.000112359
-0.000297538
-0.000114533
-0.000452431
-0.000115551
-0.000599739
-0.00010172
-0.000696251
-6.0639e-05
-0.000682724
-0.000492623
2.97423e-05
-0.000489092
2.35677e-05
-0.00063902
8.45282e-07
-0.000638157
-2.10175e-05
-0.000549301
-3.03028e-05
-0.00042133
-2.04318e-05
-0.000293056
8.67412e-06
-0.000190646
5.10972e-05
-0.000126398
9.9036e-05
-9.86007e-05
0.000146028
-9.51685e-05
0.000189055
-0.00010132
0.000227169
-0.000105859
0.000260332
-0.000103655
0.000288813
-9.35703e-05
0.000312451
-7.6673e-05
0.000331257
-5.49116e-05
0.000345397
-3.00607e-05
0.000354948
-3.02368e-06
0.000360056
2.55773e-05
0.000360459
5.57853e-05
0.000356064
8.67442e-05
0.000346995
0.000117611
0.000333411
0.0001473
0.00031579
0.000174283
0.000295027
0.000197198
0.000271967
0.00021635
0.000247473
0.000230849
0.000222291
0.000241046
0.000197232
0.000247085
0.00017287
0.000249378
0.000149542
0.00024875
0.000127204
0.000246016
0.000105609
0.000241404
8.49031e-05
0.000234645
6.54251e-05
0.000225551
4.76992e-05
0.000214429
3.19821e-05
0.000202289
1.85145e-05
0.000190211
7.23034e-06
0.000180047
-2.57958e-06
0.00017395
-1.22275e-05
0.000173609
-2.32128e-05
0.000179263
-3.63719e-05
0.000189171
-5.19492e-05
0.000201179
-6.97533e-05
0.000213371
-8.95463e-05
0.000224556
-0.00011076
0.000233634
-0.000132838
0.000239988
-0.000155368
0.000243674
-0.000178429
0.000245106
-0.000201888
0.000244066
-0.000225407
0.000240031
-0.000248445
0.000232473
-0.000270294
0.000221159
-0.000290398
0.000206334
-0.000308264
0.00018849
-0.000323403
0.000167253
-0.000335161
0.000142896
-0.000343198
0.000116474
-0.000347249
8.86638e-05
-0.000347205
6.06574e-05
-0.000343288
3.35788e-05
-0.000335499
7.97957e-06
-0.000324045
-1.55455e-05
-0.000308757
-3.68395e-05