/*--------------------------------*- C++ -*----------------------------------*\
| =========                 |                                                 |
| \\      /  F ield         | OpenFOAM: The Open Source CFD Toolbox           |
|  \\    /   O peration     | Version:  2412                                  |
|   \\  /    A nd           | Website:  www.openfoam.com                      |
|    \\/     M anipulation  |                                                 |
\*---------------------------------------------------------------------------*/
FoamFile
{
    version     2.0;
    format      ascii;
    arch        "LSB;label=32;scalar=64";
    class       surfaceScalarField;
    location    "2.6";
    object      alphaPhi0.oil;
}
// * * * * * * * * * * * * * * * * * * * * * * * * * * * * * * * * * * * * * //

dimensions      [0 3 -1 0 0 0 0];

oriented        oriented;

internalField   nonuniform List<scalar> 
12640
(
-2.4689e-07
2.46919e-07
-9.89299e-07
7.42265e-07
-2.00581e-06
1.01644e-06
-3.08852e-06
1.08263e-06
-4.11293e-06
1.02417e-06
-5.01893e-06
9.05793e-07
-5.78825e-06
7.69267e-07
-6.42745e-06
6.38861e-07
-6.95321e-06
5.25725e-07
-7.38549e-06
4.32437e-07
-7.74281e-06
3.57062e-07
-8.0382e-06
2.9542e-07
-8.28034e-06
2.42451e-07
-8.47386e-06
1.93527e-07
-8.61914e-06
1.45203e-07
-8.71413e-06
9.51809e-08
-8.75611e-06
4.22022e-08
-8.74216e-06
-1.39016e-08
-8.66964e-06
-7.24272e-08
-8.53702e-06
-1.32203e-07
-8.34469e-06
-1.91681e-07
-8.095e-06
-2.49069e-07
-7.79209e-06
-3.02535e-07
-7.44152e-06
-3.50454e-07
-7.05005e-06
-3.91596e-07
-6.62516e-06
-4.25179e-07
-6.17463e-06
-4.50906e-07
-5.70602e-06
-4.68972e-07
-5.22624e-06
-4.80047e-07
-4.74129e-06
-4.85155e-07
-4.25601e-06
-4.85529e-07
-3.7739e-06
-4.82481e-07
-3.29713e-06
-4.7728e-07
-2.82676e-06
-4.71013e-07
-2.36285e-06
-4.64573e-07
-1.90481e-06
-4.58609e-07
-1.45158e-06
-4.53643e-07
-1.00189e-06
-4.50041e-07
-5.54332e-07
-4.47944e-07
-1.07478e-07
-4.47276e-07
3.40178e-07
-4.48006e-07
7.90117e-07
-4.50102e-07
1.24361e-06
-4.53436e-07
1.7019e-06
-4.58072e-07
2.16595e-06
-4.63826e-07
2.63636e-06
-4.70271e-07
3.11347e-06
-4.77027e-07
3.5971e-06
-4.83471e-07
4.0863e-06
-4.88898e-07
4.57911e-06
-4.92465e-07
5.07227e-06
-4.92989e-07
5.56141e-06
-4.89261e-07
6.04116e-06
-4.80085e-07
6.50511e-06
-4.64312e-07
6.94612e-06
-4.41237e-07
7.35662e-06
-4.10613e-07
7.72907e-06
-3.7252e-07
8.05655e-06
-3.27558e-07
8.33319e-06
-2.76727e-07
8.55453e-06
-2.21421e-07
8.71777e-06
-1.63266e-07
8.82175e-06
-1.03935e-07
8.86683e-06
-4.49794e-08
8.8545e-06
1.23855e-08
8.78687e-06
6.75347e-08
8.66578e-06
1.20758e-07
8.49191e-06
1.73392e-07
8.26365e-06
2.27779e-07
7.97592e-06
2.8741e-07
7.61917e-06
3.5666e-07
7.17911e-06
4.40205e-07
6.63745e-06
5.41979e-07
5.97434e-06
6.63463e-07
5.17346e-06
8.01073e-07
4.23077e-06
9.42617e-07
3.16759e-06
1.06288e-06
2.04851e-06
1.11866e-06
1.0039e-06
1.0443e-06
2.47543e-07
7.56233e-07
2.47303e-07
-7.51758e-07
9.98496e-07
-2.44209e-06
2.43246e-06
-4.59357e-06
3.16776e-06
-6.83692e-06
3.32589e-06
-8.93491e-06
3.12205e-06
-1.07674e-05
2.73787e-06
-1.22968e-05
2.29877e-06
-1.3538e-05
1.88002e-06
-1.4531e-05
1.5185e-06
-1.53232e-05
1.22496e-06
-1.59597e-05
9.93744e-07
-1.64752e-05
8.10957e-07
-1.68931e-05
6.60448e-07
-1.72264e-05
5.26812e-07
-1.74786e-05
3.97377e-07
-1.76465e-05
2.63349e-07
-1.77235e-05
1.19759e-07
-1.77021e-05
-3.50369e-08
-1.75747e-05
-1.99717e-07
-1.73359e-05
-3.70962e-07
-1.69837e-05
-5.43813e-07
-1.65201e-05
-7.12596e-07
-1.5951e-05
-8.71621e-07
-1.52857e-05
-1.01579e-06
-1.45365e-05
-1.14109e-06
-1.37171e-05
-1.24491e-06
-1.28421e-05
-1.32622e-06
-1.19258e-05
-1.38557e-06
-1.09812e-05
-1.42491e-06
-1.00195e-05
-1.44723e-06
-9.04936e-06
-1.45611e-06
-8.07709e-06
-1.45535e-06
-7.1064e-06
-1.44857e-06
-6.13899e-06
-1.43894e-06
-5.17502e-06
-1.429e-06
-4.21361e-06
-1.42046e-06
-3.25339e-06
-1.41431e-06
-2.2929e-06
-1.41099e-06
-1.33082e-06
-1.41041e-06
-3.66101e-07
-1.41223e-06
6.02029e-07
-1.41619e-06
1.57417e-06
-1.42219e-06
2.55077e-06
-1.42999e-06
3.53232e-06
-1.43959e-06
4.51927e-06
-1.45066e-06
5.51178e-06
-1.46257e-06
6.50965e-06
-1.47463e-06
7.51195e-06
-1.48562e-06
8.51673e-06
-1.49371e-06
9.52039e-06
-1.49637e-06
1.05173e-05
-1.49026e-06
1.14994e-05
-1.47185e-06
1.24567e-05
-1.43782e-06
1.3377e-05
-1.38514e-06
1.4247e-05
-1.31168e-06
1.50525e-05
-1.21656e-06
1.57798e-05
-1.10022e-06
1.64165e-05
-9.64613e-07
1.69527e-05
-8.1313e-07
1.73816e-05
-6.50369e-07
1.76998e-05
-4.81515e-07
1.79075e-05
-3.11745e-07
1.80079e-05
-1.4554e-07
1.8006e-05
1.39405e-08
1.79074e-05
1.65674e-07
1.77164e-05
3.11477e-07
1.7433e-05
4.56606e-07
1.70511e-05
6.09773e-07
1.65558e-05
7.83237e-07
1.59212e-05
9.91872e-07
1.5111e-05
1.25115e-06
1.408e-05
1.57349e-06
1.27811e-05
1.96265e-06
1.11762e-05
2.40573e-06
9.25573e-06
2.86265e-06
7.06374e-06
3.25438e-06
4.73051e-06
3.45155e-06
2.50489e-06
3.26969e-06
7.669e-07
2.49379e-06
1.01355e-06
-1.05125e-06
2.0497e-06
-3.24471e-06
4.62611e-06
-5.92162e-06
5.84484e-06
-8.64033e-06
6.04449e-06
-1.1127e-05
5.60894e-06
-1.32463e-05
4.85719e-06
-1.49624e-05
4.01491e-06
-1.63031e-05
3.22074e-06
-1.73279e-05
2.54357e-06
-1.81065e-05
2.00373e-06
-1.87039e-05
1.59079e-06
-1.9171e-05
1.278e-06
-1.95436e-05
1.03318e-06
-1.98421e-05
8.2525e-07
-2.00733e-05
6.28234e-07
-2.02336e-05
4.23477e-07
-2.03141e-05
1.99934e-07
-2.03031e-05
-4.67494e-08
-2.01886e-05
-3.15108e-07
-1.99605e-05
-5.99742e-07
-1.96126e-05
-8.91989e-07
-1.91436e-05
-1.18154e-06
-1.85572e-05
-1.45777e-06
-1.78618e-05
-1.71105e-06
-1.7069e-05
-1.93372e-06
-1.61929e-05
-2.12082e-06
-1.52486e-05
-2.27034e-06
-1.42509e-05
-2.38319e-06
-1.32129e-05
-2.46279e-06
-1.21456e-05
-2.51446e-06
-1.10568e-05
-2.54459e-06
-9.95194e-06
-2.55986e-06
-8.83366e-06
-2.56649e-06
-7.70275e-06
-2.56957e-06
-6.55889e-06
-2.57273e-06
-5.40127e-06
-2.57799e-06
-4.22945e-06
-2.58601e-06
-3.04386e-06
-2.59639e-06
-1.846e-06
-2.60814e-06
-6.38356e-07
-2.61992e-06
5.75928e-07
-2.63068e-06
1.79335e-06
-2.63988e-06
3.01048e-06
-2.64734e-06
4.2243e-06
-2.65354e-06
5.43234e-06
-2.65881e-06
6.63277e-06
-2.66321e-06
7.82418e-06
-2.66645e-06
9.00525e-06
-2.66728e-06
1.01743e-05
-2.66335e-06
1.13284e-05
-2.65095e-06
1.24627e-05
-2.62495e-06
1.35699e-05
-2.57948e-06
1.46401e-05
-2.50864e-06
1.56612e-05
-2.40711e-06
1.66198e-05
-2.27107e-06
1.75014e-05
-2.09888e-06
1.82923e-05
-1.8916e-06
1.89805e-05
-1.65315e-06
1.95571e-05
-1.39002e-06
2.00173e-05
-1.1108e-06
2.03607e-05
-8.25033e-07
2.05909e-05
-5.42071e-07
2.07152e-05
-2.69751e-07
2.07426e-05
-1.31501e-08
2.06818e-05
2.27022e-07
2.05385e-05
4.5558e-07
2.03119e-05
6.84109e-07
1.99915e-05
9.31062e-07
1.95539e-05
1.22158e-06
1.89609e-05
1.58559e-06
1.81586e-05
2.05377e-06
1.70819e-05
2.65036e-06
1.56621e-05
3.38246e-06
1.38425e-05
4.2253e-06
1.16015e-05
5.1038e-06
8.98373e-06
5.87254e-06
6.13743e-06
6.29855e-06
3.35067e-06
6.05703e-06
1.07994e-06
4.76366e-06
2.09366e-06
-1.1572e-06
3.20701e-06
-3.50703e-06
6.97626e-06
-6.2897e-06
8.62804e-06
-9.0271e-06
8.78208e-06
-1.14432e-05
8.02519e-06
-1.34142e-05
6.82832e-06
-1.49223e-05
5.52341e-06
-1.60164e-05
4.31481e-06
-1.67767e-05
3.3039e-06
-1.72918e-05
2.51907e-06
-1.76433e-05
1.94195e-06
-1.78946e-05
1.52921e-06
-1.80903e-05
1.22893e-06
-1.82565e-05
9.90907e-07
-1.84017e-05
7.72824e-07
-1.85221e-05
5.43624e-07
-1.8606e-05
2.8403e-07
-1.86381e-05
-1.46008e-08
-1.86016e-05
-3.51883e-07
-1.84814e-05
-7.20529e-07
-1.82659e-05
-1.10817e-06
-1.79485e-05
-1.49955e-06
-1.7528e-05
-1.87879e-06
-1.70083e-05
-2.23134e-06
-1.63968e-05
-2.54567e-06
-1.57037e-05
-2.81433e-06
-1.49402e-05
-3.03433e-06
-1.41168e-05
-3.20705e-06
-1.32424e-05
-3.33756e-06
-1.23235e-05
-3.43364e-06
-1.13638e-05
-3.50447e-06
-1.03644e-05
-3.55924e-06
-9.32464e-06
-3.60608e-06
-8.24296e-06
-3.65098e-06
-7.11789e-06
-3.69745e-06
-5.94919e-06
-3.74624e-06
-4.73874e-06
-3.79589e-06
-3.49099e-06
-3.8435e-06
-2.21296e-06
-3.88556e-06
-9.13764e-07
-3.9186e-06
3.96138e-07
-3.94018e-06
1.7057e-06
-3.94911e-06
3.00417e-06
-3.94557e-06
4.28203e-06
-3.93128e-06
5.53159e-06
-3.90839e-06
6.74742e-06
-3.87916e-06
7.92615e-06
-3.84545e-06
9.0662e-06
-3.80777e-06
1.01671e-05
-3.76482e-06
1.12286e-05
-3.71295e-06
1.22492e-05
-3.64609e-06
1.32259e-05
-3.55659e-06
1.41531e-05
-3.43626e-06
1.50231e-05
-3.27756e-06
1.58266e-05
-3.07499e-06
1.65537e-05
-2.8262e-06
1.71946e-05
-2.53275e-06
1.77419e-05
-2.20058e-06
1.81914e-05
-1.83952e-06
1.85431e-05
-1.46244e-06
1.88018e-05
-1.08356e-06
1.89765e-05
-7.16567e-07
1.90794e-05
-3.7247e-07
1.91242e-05
-5.75613e-08
1.91229e-05
2.28757e-07
1.90829e-05
4.96013e-07
1.90033e-05
7.64096e-07
1.88708e-05
1.06383e-06
1.86562e-05
1.43635e-06
1.83117e-05
1.93016e-06
1.77705e-05
2.59474e-06
1.69511e-05
3.46954e-06
1.57657e-05
4.56764e-06
1.4137e-05
5.85382e-06
1.20233e-05
7.21752e-06
9.45217e-06
8.44397e-06
6.56131e-06
9.18989e-06
3.64329e-06
8.97522e-06
1.19569e-06
7.21095e-06
3.29004e-06
-1.14343e-06
4.35086e-06
-3.41004e-06
9.24326e-06
-6.00805e-06
1.12263e-05
-8.45507e-06
1.12293e-05
-1.04944e-05
1.00647e-05
-1.20307e-05
8.36474e-06
-1.3076e-05
6.56904e-06
-1.37059e-05
4.94471e-06
-1.40231e-05
3.62122e-06
-1.41341e-05
2.63026e-06
-1.41333e-05
1.94098e-06
-1.40934e-05
1.48933e-06
-1.40641e-05
1.20011e-06
-1.40742e-05
1.00104e-06
-1.41324e-05
8.31111e-07
-1.42331e-05
6.44819e-07
-1.43613e-05
4.13123e-07
-1.44971e-05
1.21893e-07
-1.46185e-05
-2.30387e-07
-1.47042e-05
-6.35245e-07
-1.4736e-05
-1.07705e-06
-1.47004e-05
-1.53594e-06
-1.45892e-05
-1.99085e-06
-1.43991e-05
-2.42232e-06
-1.41309e-05
-2.81489e-06
-1.37875e-05
-3.15868e-06
-1.33728e-05
-3.44999e-06
-1.289e-05
-3.69091e-06
-1.23404e-05
-3.88824e-06
-1.1723e-05
-4.05213e-06
-1.10342e-05
-4.19417e-06
-1.02689e-05
-4.32533e-06
-9.42123e-06
-4.45436e-06
-8.48613e-06
-4.58649e-06
-7.46099e-06
-4.72287e-06
-6.3469e-06
-4.86047e-06
-5.14971e-06
-4.99302e-06
-3.88033e-06
-5.1126e-06
-2.55438e-06
-5.2111e-06
-1.19116e-06
-5.28142e-06
1.87706e-07
-5.3187e-06
1.55981e-06
-5.3209e-06
2.90342e-06
-5.28893e-06
4.19917e-06
-5.22685e-06
5.43132e-06
-5.1404e-06
6.58872e-06
-5.03641e-06
7.66486e-06
-4.92147e-06
8.65755e-06
-4.80046e-06
9.56818e-06
-4.67557e-06
1.04004e-05
-4.54524e-06
1.11585e-05
-4.40404e-06
1.18459e-05
-4.24369e-06
1.24645e-05
-4.05448e-06
1.30144e-05
-3.82692e-06
1.34937e-05
-3.55385e-06
1.39e-05
-3.23199e-06
1.4231e-05
-2.86333e-06
1.44865e-05
-2.45567e-06
1.46696e-05
-2.02217e-06
1.47876e-05
-1.5801e-06
1.48527e-05
-1.14832e-06
1.48807e-05
-7.4455e-07
1.48905e-05
-3.82338e-07
1.4901e-05
-6.833e-08
1.49289e-05
2.00621e-07
1.49845e-05
4.40073e-07
1.50684e-05
6.79955e-07
1.51666e-05
9.65326e-07
1.5247e-05
1.35564e-06
1.52559e-05
1.9208e-06
1.51174e-05
2.73256e-06
1.47367e-05
3.84959e-06
1.40083e-05
5.29547e-06
1.28326e-05
7.02915e-06
1.11411e-05
8.90882e-06
8.93192e-06
1.0653e-05
6.315e-06
1.18067e-05
3.56545e-06
1.17244e-05
1.18845e-06
9.58843e-06
4.47864e-06
-1.06336e-06
5.41451e-06
-3.09671e-06
1.12767e-05
-5.31817e-06
1.34477e-05
-7.27018e-06
1.31813e-05
-8.73416e-06
1.15287e-05
-9.65719e-06
9.28771e-06
-1.00896e-05
7.00189e-06
-1.0139e-05
4.994e-06
-9.93097e-06
3.41355e-06
-9.58812e-06
2.28798e-06
-9.21503e-06
1.56783e-06
-8.88901e-06
1.16364e-06
-8.66145e-06
9.73362e-07
-8.56007e-06
9.0004e-07
-8.59129e-06
8.62317e-07
-8.7456e-06
7.99315e-07
-9.0031e-06
6.71158e-07
-9.33789e-06
4.57256e-07
-9.72112e-06
1.53223e-07
-1.01238e-05
-2.32374e-07
-1.05195e-05
-6.81347e-07
-1.08857e-05
-1.16972e-06
-1.12051e-05
-1.67143e-06
-1.14654e-05
-2.1621e-06
-1.16581e-05
-2.62239e-06
-1.1777e-05
-3.04014e-06
-1.1816e-05
-3.41121e-06
-1.17686e-05
-3.73865e-06
-1.16262e-05
-4.03108e-06
-1.13782e-05
-4.30077e-06
-1.10121e-05
-4.56105e-06
-1.05148e-05
-4.82349e-06
-9.87426e-06
-5.09576e-06
-9.08173e-06
-5.37993e-06
-8.13378e-06
-5.67179e-06
-7.03412e-06
-5.96112e-06
-5.79463e-06
-6.23338e-06
-4.43553e-06
-6.47237e-06
-2.98454e-06
-6.66267e-06
-1.4751e-06
-6.79142e-06
5.59279e-08
-6.85027e-06
1.5706e-06
-6.83602e-06
3.03228e-06
-6.75094e-06
4.40805e-06
-6.60285e-06
5.67085e-06
-6.40339e-06
6.80114e-06
-6.16675e-06
7.78752e-06
-5.90773e-06
8.62638e-06
-5.63911e-06
9.32092e-06
-5.36991e-06
9.87942e-06
-5.10351e-06
1.0313e-05
-4.83728e-06
1.06336e-05
-4.56378e-06
1.08524e-05
-4.27269e-06
1.09792e-05
-3.95313e-06
1.10222e-05
-3.59635e-06
1.09888e-05
-3.19808e-06
1.08864e-05
-2.76049e-06
1.07241e-05
-2.29314e-06
1.05146e-05
-1.81258e-06
1.02749e-05
-1.34039e-06
1.00265e-05
-9.00022e-07
9.7948e-06
-5.12936e-07
9.60667e-06
-1.94462e-07
9.48858e-06
4.94075e-08
9.46323e-06
2.25594e-07
9.54601e-06
3.56915e-07
9.74097e-06
4.84569e-07
1.00366e-05
6.69224e-07
1.04014e-05
9.90391e-07
1.078e-05
1.54162e-06
1.10915e-05
2.42047e-06
1.12311e-05
3.70942e-06
1.10775e-05
5.44871e-06
1.05077e-05
7.59892e-06
9.42146e-06
9.99501e-06
7.77838e-06
1.2296e-05
5.64641e-06
1.39383e-05
3.26373e-06
1.41068e-05
1.11232e-06
1.17406e-05
5.5908e-06
-9.48338e-07
6.3629e-06
-2.6565e-06
1.29845e-05
-4.3761e-06
1.51672e-05
-5.69878e-06
1.45038e-05
-6.46274e-06
1.22928e-05
-6.6704e-06
9.4954e-06
-6.41844e-06
6.75057e-06
-5.84946e-06
4.42495e-06
-5.11209e-06
2.67656e-06
-4.34217e-06
1.51871e-06
-3.65001e-06
8.75539e-07
-3.11344e-06
6.26985e-07
-2.78068e-06
6.40829e-07
-2.67431e-06
7.9353e-07
-2.79477e-06
9.82211e-07
-3.12589e-06
1.12998e-06
-3.64063e-06
1.18578e-06
-4.30504e-06
1.12177e-06
-5.08128e-06
9.29654e-07
-5.93038e-06
6.17027e-07
-6.81488e-06
2.03569e-07
-7.70103e-06
-2.83003e-07
-8.56005e-06
-8.11688e-07
-9.36843e-06
-1.35293e-06
-1.01067e-05
-1.88339e-06
-1.07575e-05
-2.38855e-06
-1.13039e-05
-2.86401e-06
-1.17278e-05
-3.31397e-06
-1.20094e-05
-3.74876e-06
-1.21275e-05
-4.18222e-06
-1.20599e-05
-4.62841e-06
-1.17853e-05
-5.09808e-06
-1.12854e-05
-5.59576e-06
-1.05482e-05
-6.11757e-06
-9.57019e-06
-6.65043e-06
-8.35948e-06
-7.17274e-06
-6.93651e-06
-7.65738e-06
-5.33396e-06
-8.07589e-06
-3.59527e-06
-8.40228e-06
-1.77193e-06
-8.61575e-06
7.98656e-08
-8.70315e-06
1.90261e-06
-8.65983e-06
3.6409e-06
-8.49014e-06
5.24455e-06
-8.2073e-06
6.67174e-06
-7.83133e-06
7.89149e-06
-7.38719e-06
8.88516e-06
-6.90196e-06
9.64637e-06
-6.40077e-06
1.01795e-05
-5.90353e-06
1.04974e-05
-5.4219e-06
1.06182e-05
-4.95867e-06
1.05629e-05
-4.50903e-06
1.03529e-05
-4.06324e-06
1.0009e-05
-3.60976e-06
9.55049e-06
-3.13842e-06
8.99584e-06
-2.64409e-06
8.36366e-06
-2.129e-06
7.67432e-06
-1.60453e-06
6.95191e-06
-1.09095e-06
6.22541e-06
-6.14638e-07
5.52865e-06
-2.03806e-07
4.89885e-06
1.16566e-07
4.37433e-06
3.29908e-07
3.99124e-06
4.3241e-07
3.78087e-06
4.35927e-07
3.76609e-06
3.7167e-07
3.95764e-06
2.92946e-07
4.34989e-06
2.76847e-07
4.91638e-06
4.23821e-07
5.60487e-06
8.53221e-07
6.33421e-06
1.69134e-06
6.99425e-06
3.0497e-06
7.45056e-06
4.9929e-06
7.557e-06
7.49312e-06
7.17855e-06
1.0374e-05
6.22806e-06
1.32466e-05
4.71832e-06
1.54479e-05
2.83116e-06
1.59946e-05
9.99511e-07
1.35726e-05
6.59057e-06
-8.12566e-07
7.17533e-06
-2.13149e-06
1.43029e-05
-3.25894e-06
1.62946e-05
-3.85852e-06
1.51033e-05
-3.84499e-06
1.22795e-05
-3.28916e-06
8.93963e-06
-2.34088e-06
5.80291e-06
-1.17929e-06
3.26301e-06
2.61679e-08
1.47102e-06
1.13059e-06
4.14271e-07
2.02382e-06
-1.82121e-08
2.63338e-06
1.69878e-08
2.91947e-06
3.54447e-07
2.86969e-06
8.42751e-07
2.49385e-06
1.35727e-06
1.81805e-06
1.80511e-06
8.79355e-07
2.12402e-06
-2.77649e-07
2.27841e-06
-1.60327e-06
2.25494e-06
-3.04525e-06
2.05876e-06
-4.55187e-06
1.71006e-06
-6.07479e-06
1.23992e-06
-7.57114e-06
6.84847e-07
-9.00409e-06
8.03674e-08
-1.0342e-05
-5.45135e-07
-1.15557e-05
-1.1745e-06
-1.26165e-05
-1.80282e-06
-1.34945e-05
-2.43535e-06
-1.41589e-05
-3.08375e-06
-1.4578e-05
-3.7625e-06
-1.47208e-05
-4.48499e-06
-1.45588e-05
-5.25953e-06
-1.40687e-05
-6.08535e-06
-1.32359e-05
-6.94994e-06
-1.20585e-05
-7.8275e-06
-1.0551e-05
-8.6803e-06
-8.74499e-06
-9.46361e-06
-6.6889e-06
-1.01322e-05
-4.44517e-06
-1.06463e-05
-2.08662e-06
-1.09747e-05
3.07975e-07
-1.10983e-05
2.65841e-06
-1.1011e-05
4.88726e-06
-1.07198e-05
6.92393e-06
-1.02448e-05
8.70858e-06
-9.61688e-06
1.01958e-05
-8.8754e-06
1.1357e-05
-8.0642e-06
1.21811e-05
-7.22591e-06
1.26725e-05
-6.39602e-06
1.28476e-05
-5.59814e-06
1.27309e-05
-4.8431e-06
1.23513e-05
-4.13069e-06
1.174e-05
-3.45314e-06
1.09284e-05
-2.79936e-06
9.9466e-06
-2.15785e-06
8.82474e-06
-1.52337e-06
7.5929e-06
-8.98195e-07
6.28356e-06
-2.96108e-07
4.93397e-06
2.57881e-07
3.58753e-06
7.31226e-07
2.29362e-06
1.08986e-06
1.10517e-06
1.30519e-06
7.51967e-08
1.36041e-06
-7.46665e-07
1.25501e-06
-1.31759e-06
1.00766e-06
-1.60421e-06
6.59102e-07
-1.5857e-06
2.75161e-07
-1.25749e-06
-5.07268e-08
-6.36167e-07
-1.9684e-07
2.35084e-07
-1.71673e-08
1.28122e-06
6.46211e-07
2.39246e-06
1.93948e-06
3.42628e-06
3.96008e-06
4.21586e-06
6.7044e-06
4.59e-06
1.00003e-05
4.40791e-06
1.34288e-05
3.61384e-06
1.6242e-05
2.31252e-06
1.72963e-05
8.65527e-07
1.50192e-05
7.45586e-06
-6.56637e-07
7.83176e-06
-1.5248e-06
1.51709e-05
-1.97726e-06
1.67474e-05
-1.7765e-06
1.49027e-05
-9.3603e-07
1.14393e-05
3.91688e-07
7.61166e-06
1.99885e-06
4.196e-06
3.67123e-06
1.58992e-06
5.22395e-06
-8.18302e-08
6.50989e-06
-8.72063e-07
7.42681e-06
-9.35723e-07
7.91518e-06
-4.7133e-07
7.95022e-06
3.19731e-07
7.53522e-06
1.25783e-06
6.69504e-06
2.1974e-06
5.46952e-06
3.03074e-06
3.90891e-06
3.68491e-06
2.07144e-06
4.11611e-06
2.20965e-08
4.30439e-06
-2.16958e-06
4.25047e-06
-4.43321e-06
3.97364e-06
-6.70187e-06
3.50839e-06
-8.91558e-06
2.89828e-06
-1.10227e-05
2.18719e-06
-1.29788e-05
1.41052e-06
-1.47435e-05
5.89416e-07
-1.62769e-05
-2.70234e-07
-1.75388e-05
-1.17417e-06
-1.84887e-05
-2.13445e-06
-1.9087e-05
-3.16469e-06
-1.92965e-05
-4.27587e-06
-1.90843e-05
-5.47194e-06
-1.84244e-05
-6.74527e-06
-1.73016e-05
-8.07251e-06
-1.57174e-05
-9.41141e-06
-1.36946e-05
-1.0703e-05
-1.12786e-05
-1.18796e-05
-8.53619e-06
-1.28746e-05
-5.55127e-06
-1.3631e-05
-2.41976e-06
-1.4106e-05
7.5561e-07
-1.42737e-05
3.87055e-06
-1.41261e-05
6.82425e-06
-1.36737e-05
9.52381e-06
-1.29445e-05
1.18889e-05
-1.19822e-05
1.38571e-05
-1.08438e-05
1.5387e-05
-9.59445e-06
1.64609e-05
-8.30002e-06
1.70812e-05
-7.01667e-06
1.72663e-05
-5.78346e-06
1.70442e-05
-4.6213e-06
1.64496e-05
-3.5363e-06
1.55205e-05
-2.52428e-06
1.42964e-05
-1.57546e-06
1.28175e-05
-6.79119e-07
1.11233e-05
1.70717e-07
9.2546e-06
9.70496e-07
7.25581e-06
1.70278e-06
5.17817e-06
2.3357e-06
3.08204e-06
2.82769e-06
1.03609e-06
3.13637e-06
-8.86406e-07
3.22853e-06
-2.61289e-06
3.08796e-06
-4.07637e-06
2.71965e-06
-5.21892e-06
2.1513e-06
-5.99346e-06
1.43459e-06
-6.36544e-06
6.47882e-07
-6.31553e-06
-1.00079e-07
-5.84445e-06
-6.67437e-07
-4.97942e-06
-8.8161e-07
-3.78153e-06
-5.51112e-07
-2.35161e-06
5.09893e-07
-8.32653e-07
2.44121e-06
5.93694e-07
5.27787e-06
1.72169e-06
8.87195e-06
2.3525e-06
1.27975e-05
2.34809e-06
1.62462e-05
1.71317e-06
1.79305e-05
7.11784e-07
1.60201e-05
8.16683e-06
-4.69756e-07
8.30158e-06
-8.06438e-07
1.55078e-05
-4.86313e-07
1.64276e-05
5.92424e-07
1.38241e-05
2.29134e-06
9.74041e-06
4.36414e-06
5.53838e-06
6.5443e-06
2.01584e-06
8.58887e-06
-4.55576e-07
1.03077e-05
-1.80019e-06
1.15623e-05
-2.12653e-06
1.22684e-05
-1.6421e-06
1.23885e-05
-5.91084e-07
1.19211e-05
7.88073e-07
1.08914e-05
2.28823e-06
9.34419e-06
3.74515e-06
7.33709e-06
5.03859e-06
4.93655e-06
6.0864e-06
2.2175e-06
6.83615e-06
-7.36093e-07
7.2589e-06
-3.8325e-06
7.34777e-06
-6.97723e-06
7.11917e-06
-1.00799e-05
6.61158e-06
-1.30605e-05
5.87904e-06
-1.58517e-05
4.97838e-06
-1.83973e-05
3.95598e-06
-2.06478e-05
2.83926e-06
-2.25551e-05
1.63615e-06
-2.40716e-05
3.41337e-07
-2.51512e-05
-1.05583e-06
-2.57509e-05
-2.56595e-06
-2.58327e-05
-4.19509e-06
-2.53643e-05
-5.94112e-06
-2.43214e-05
-7.78892e-06
-2.26909e-05
-9.70358e-06
-2.0479e-05
-1.16237e-05
-1.77187e-05
-1.34638e-05
-1.44715e-05
-1.51273e-05
-1.0824e-05
-1.65225e-05
-6.88237e-06
-1.7573e-05
-2.76487e-06
-1.82236e-05
1.40341e-06
-1.8442e-05
5.49611e-06
-1.82188e-05
9.39062e-06
-1.75681e-05
1.29722e-05
-1.65258e-05
1.61395e-05
-1.5149e-05
1.88104e-05
-1.35142e-05
2.09289e-05
-1.17124e-05
2.24679e-05
-9.83836e-06
2.34263e-05
-7.97447e-06
2.38212e-05
-6.17772e-06
2.36803e-05
-4.47975e-06
2.30384e-05
-2.89372e-06
2.19355e-05
-1.42066e-06
2.0415e-05
-5.42433e-08
1.85222e-05
1.21429e-06
1.63033e-05
2.39013e-06
1.38066e-05
3.46774e-06
1.10861e-05
4.42379e-06
8.20681e-06
5.21542e-06
5.24799e-06
5.78679e-06
2.30207e-06
6.08255e-06
-5.31706e-07
6.06259e-06
-3.15553e-06
5.71206e-06
-5.48042e-06
5.04469e-06
-7.42988e-06
4.10066e-06
-8.94018e-06
2.94453e-06
-9.9596e-06
1.66671e-06
-1.04493e-05
3.88848e-07
-1.03875e-05
-7.2995e-07
-9.77734e-06
-1.49244e-06
-8.65585e-06
-1.67326e-06
-7.1038e-06
-1.04308e-06
-5.25283e-06
5.89157e-07
-3.28861e-06
3.31258e-06
-1.44425e-06
7.02678e-06
2.26347e-08
1.13302e-05
8.79504e-07
1.53895e-05
1.00537e-06
1.7804e-05
5.27762e-07
1.64979e-05
8.69503e-06
-2.29402e-07
8.53131e-06
8.53505e-08
1.51931e-05
1.30736e-06
1.52058e-05
3.35019e-06
1.17811e-05
5.92017e-06
7.17034e-06
8.66893e-06
2.7893e-06
1.12784e-05
-5.93197e-07
1.34914e-05
-2.66957e-06
1.51282e-05
-3.43695e-06
1.60754e-05
-3.07351e-06
1.62793e-05
-1.8464e-06
1.57351e-05
-4.73174e-08
1.44732e-05
2.04969e-06
1.25481e-05
4.21289e-06
1.00297e-05
6.26304e-06
6.9966e-06
8.07126e-06
3.53398e-06
9.5488e-06
-2.64324e-07
1.06343e-05
-4.29172e-06
1.12862e-05
-8.42872e-06
1.14849e-05
-1.255e-05
1.12408e-05
-1.65363e-05
1.0598e-05
-2.0284e-05
9.62687e-06
-2.37111e-05
8.40566e-06
-2.67534e-05
6.99865e-06
-2.93569e-05
5.44291e-06
-3.14703e-05
3.74963e-06
-3.30441e-05
1.91523e-06
-3.40329e-05
-6.6911e-08
-3.43982e-05
-2.20065e-06
-3.41097e-05
-4.4838e-06
-3.31447e-05
-6.90651e-06
-3.14865e-05
-9.44764e-06
-2.9127e-05
-1.20635e-05
-2.60783e-05
-1.46728e-05
-2.23846e-05
-1.71578e-05
-1.81249e-05
-1.93875e-05
-1.34061e-05
-2.12416e-05
-8.35449e-06
-2.26248e-05
-3.10651e-06
-2.34715e-05
2.19666e-06
-2.37449e-05
7.41345e-06
-2.34353e-05
1.24056e-05
-2.25599e-05
1.70408e-05
-2.11605e-05
2.11979e-05
-1.93055e-05
2.47744e-05
-1.70902e-05
2.76967e-05
-1.46342e-05
2.99269e-05
-1.20681e-05
3.14591e-05
-9.50618e-06
3.23053e-05
-7.02341e-06
3.24857e-05
-4.65974e-06
3.20271e-05
-2.43467e-06
3.0963e-05
-3.56024e-07
2.9333e-05
1.57615e-06
2.71815e-05
3.36624e-06
2.4555e-05
5.01679e-06
2.15036e-05
6.51922e-06
1.80857e-05
7.84163e-06
1.43775e-05
8.92351e-06
1.04786e-05
9.68541e-06
6.50985e-06
1.00508e-05
2.60352e-06
9.96831e-06
-1.11078e-06
9.42575e-06
-4.51708e-06
8.45027e-06
-7.51748e-06
7.10016e-06
-1.00297e-05
5.45587e-06
-1.19823e-05
3.61838e-06
-1.33123e-05
1.71792e-06
-1.39686e-05
-7.43751e-08
-1.39206e-05
-1.54094e-06
-1.31696e-05
-2.42468e-06
-1.17619e-05
-2.45142e-06
-9.8013e-06
-1.37218e-06
-7.45989e-06
9.70733e-07
-4.98289e-06
4.54983e-06
-2.67887e-06
9.02663e-06
-8.8282e-07
1.35937e-05
1.28635e-07
1.67929e-05
2.92087e-07
1.63345e-05
8.98758e-06
1.00757e-07
8.43084e-06
1.24805e-06
1.40457e-05
3.54486e-06
1.29091e-05
6.64315e-06
8.6826e-06
1.0063e-05
3.7504e-06
1.33561e-05
-5.0422e-07
1.61733e-05
-3.40974e-06
1.82702e-05
-4.76723e-06
1.95013e-05
-4.66896e-06
1.97976e-05
-3.37104e-06
1.91523e-05
-1.20227e-06
1.76049e-05
1.49913e-06
1.52265e-05
4.42708e-06
1.21077e-05
7.33053e-06
8.34859e-06
1.0021e-05
4.05192e-06
1.23669e-05
-6.77795e-07
1.42776e-05
-5.72723e-06
1.56828e-05
-1.09648e-05
1.65228e-05
-1.62373e-05
1.67566e-05
-2.13803e-05
1.63835e-05
-2.6238e-05
1.54555e-05
-3.06814e-05
1.40699e-05
-3.46167e-05
1.23409e-05
-3.79791e-05
1.03617e-05
-4.07187e-05
8.18321e-06
-4.27887e-05
5.82019e-06
-4.4145e-05
3.27231e-06
-4.4752e-05
5.41018e-07
-4.45869e-05
-2.36504e-06
-4.36401e-05
-5.43012e-06
-4.19113e-05
-8.63494e-06
-3.94011e-05
-1.19578e-05
-3.6109e-05
-1.53554e-05
-3.20516e-05
-1.87298e-05
-2.72844e-05
-2.19246e-05
-2.19049e-05
-2.47665e-05
-1.60395e-05
-2.71066e-05
-9.82904e-06
-2.88348e-05
-3.41878e-06
-2.98811e-05
3.04632e-06
-3.02093e-05
9.42284e-06
-2.98115e-05
1.55693e-05
-2.87061e-05
2.13452e-05
-2.69364e-05
2.66139e-05
-2.45741e-05
3.12521e-05
-2.17283e-05
3.51656e-05
-1.85477e-05
3.83053e-05
-1.52077e-05
4.06607e-05
-1.18616e-05
4.22349e-05
-8.59753e-06
4.30304e-05
-5.4551e-06
4.30527e-05
-2.45669e-06
4.23163e-05
3.80664e-07
4.08466e-05
3.04603e-06
3.86778e-05
5.53516e-06
3.58488e-05
7.84592e-06
3.24017e-05
9.96626e-06
2.83903e-05
1.18528e-05
2.38957e-05
1.3418e-05
1.90374e-05
1.45435e-05
1.39707e-05
1.51172e-05
8.86898e-06
1.50698e-05
3.9015e-06
1.43932e-05
-7.84077e-07
1.31358e-05
-5.06721e-06
1.13832e-05
-8.84758e-06
9.23623e-06
-1.20328e-05
6.80376e-06
-1.45317e-05
4.21717e-06
-1.62571e-05
1.65144e-06
-1.71349e-05
-6.62705e-07
-1.71175e-05
-2.44173e-06
-1.61996e-05
-3.36911e-06
-1.44358e-05
-3.13586e-06
-1.19591e-05
-1.50573e-06
-8.99929e-06
1.59043e-06
-5.89447e-06
5.92198e-06
-3.0786e-06
1.07774e-05
-1.01565e-06
1.47297e-05
-3.28443e-08
1.53514e-05
8.95311e-06
5.81225e-07
7.84969e-06
2.82796e-06
1.17987e-05
6.41949e-06
9.31796e-06
1.06502e-05
4.4519e-06
1.48318e-05
-4.31339e-07
1.8441e-05
-4.11431e-06
2.11383e-05
-6.1078e-06
2.27353e-05
-6.36438e-06
2.31529e-05
-5.08665e-06
2.23895e-05
-2.60795e-06
2.05001e-05
6.86987e-07
1.758e-05
4.41964e-06
1.37492e-05
8.25832e-06
9.14085e-06
1.19394e-05
3.88973e-06
1.52725e-05
-1.87536e-06
1.81323e-05
-8.03192e-06
2.04345e-05
-1.44511e-05
2.21022e-05
-2.09755e-05
2.30471e-05
-2.74119e-05
2.31928e-05
-3.35468e-05
2.25185e-05
-3.91787e-05
2.10875e-05
-4.41506e-05
1.90418e-05
-4.83648e-05
1.65551e-05
-5.17697e-05
1.37671e-05
-5.43319e-05
1.07461e-05
-5.60186e-05
7.50727e-06
-5.68002e-05
4.05433e-06
-5.6662e-05
4.03388e-07
-5.56111e-05
-3.41551e-06
-5.36769e-05
-7.36417e-06
-5.09011e-05
-1.14105e-05
-4.73149e-05
-1.5544e-05
-4.2926e-05
-1.97444e-05
-3.77501e-05
-2.39058e-05
-3.18527e-05
-2.78219e-05
-2.53516e-05
-3.12675e-05
-1.83904e-05
-3.4068e-05
-1.11155e-05
-3.61102e-05
-3.66466e-06
-3.73326e-05
3.83308e-06
-3.77077e-05
1.12537e-05
-3.72328e-05
1.84727e-05
-3.5926e-05
2.53576e-05
-3.38218e-05
3.1764e-05
-3.0981e-05
3.75473e-05
-2.7512e-05
4.25882e-05
-2.3589e-05
4.68268e-05
-1.94466e-05
5.02544e-05
-1.52892e-05
5.28609e-05
-1.12039e-05
5.46153e-05
-7.20934e-06
5.54827e-05
-3.32383e-06
5.54422e-05
4.21525e-07
5.44915e-05
3.99697e-06
5.26441e-05
7.3826e-06
4.99208e-05
1.05692e-05
4.63432e-05
1.3544e-05
4.19449e-05
1.62514e-05
3.68003e-05
1.85629e-05
3.10467e-05
2.02974e-05
2.48798e-05
2.12842e-05
1.85248e-05
2.14248e-05
1.21998e-05
2.07182e-05
6.08797e-06
1.92476e-05
3.30609e-07
1.71405e-05
-4.95864e-06
1.45255e-05
-9.66773e-06
1.1513e-05
-1.36743e-05
8.22393e-06
-1.68482e-05
4.82549e-06
-1.90628e-05
1.55176e-06
-2.02087e-05
-1.29598e-06
-2.02119e-05
-3.3662e-06
-1.90528e-05
-4.29508e-06
-1.67911e-05
-3.76737e-06
-1.35988e-05
-1.60213e-06
-9.79966e-06
2.12198e-06
-5.90044e-06
6.87748e-06
-2.57458e-06
1.14029e-05
-5.08698e-07
1.32851e-05
8.44417e-06
1.31136e-06
6.53846e-06
5.04181e-06
8.06785e-06
1.0184e-05
4.17582e-06
1.55651e-05
-9.29482e-07
2.0298e-05
-5.16471e-06
2.38508e-05
-7.66655e-06
2.59649e-05
-8.22295e-06
2.65654e-05
-6.96471e-06
2.56788e-05
-4.19935e-06
2.33926e-05
-3.21174e-07
1.98361e-05
4.24408e-06
1.51678e-05
9.08848e-06
9.56227e-06
1.38642e-05
3.19965e-06
1.83021e-05
-3.74591e-06
2.22181e-05
-1.11182e-05
2.55045e-05
-1.87826e-05
2.80988e-05
-2.66029e-05
2.99225e-05
-3.44009e-05
3.08448e-05
-4.19368e-05
3.07285e-05
-4.89348e-05
2.95164e-05
-5.51358e-05
2.72886e-05
-6.03535e-05
2.42593e-05
-6.44997e-05
2.07012e-05
-6.75583e-05
1.68258e-05
-6.95306e-05
1.27187e-05
-7.04073e-05
8.38402e-06
-7.01812e-05
3.82831e-06
-6.88704e-05
-9.07303e-07
-6.65283e-05
-5.75743e-06
-6.32461e-05
-1.06463e-05
-5.91373e-05
-1.55194e-05
-5.42839e-05
-2.03974e-05
-4.86976e-05
-2.53309e-05
-4.23781e-05
-3.02259e-05
-3.53992e-05
-3.48016e-05
-2.79048e-05
-3.87626e-05
-2.00529e-05
-4.19208e-05
-1.19813e-05
-4.41827e-05
-3.79684e-06
-4.55181e-05
4.41583e-06
-4.59214e-05
1.25814e-05
-4.53994e-05
2.06222e-05
-4.39679e-05
2.84373e-05
-4.16379e-05
3.58877e-05
-3.84323e-05
4.28061e-05
-3.44311e-05
4.90363e-05
-2.98199e-05
5.45109e-05
-2.49217e-05
5.92399e-05
-2.00185e-05
6.31978e-05
-1.51619e-05
6.62953e-05
-1.03069e-05
6.84297e-05
-5.4582e-06
6.95242e-05
-6.7278e-07
6.95342e-05
3.9873e-06
6.84427e-05
8.47479e-06
6.62429e-05
1.27695e-05
6.29193e-05
1.68681e-05
5.84621e-05
2.07089e-05
5.29196e-05
2.41056e-05
4.64412e-05
2.67759e-05
3.92712e-05
2.84542e-05
3.16995e-05
2.89965e-05
2.40033e-05
2.84144e-05
1.64038e-05
2.68469e-05
9.05551e-06
2.44887e-05
2.07593e-06
2.15048e-05
-4.40961e-06
1.79983e-05
-1.02443e-05
1.40582e-05
-1.52488e-05
9.82944e-06
-1.92368e-05
5.539e-06
-2.20283e-05
1.49469e-06
-2.34657e-05
-1.92945e-06
-2.34317e-05
-4.32922e-06
-2.18737e-05
-5.32559e-06
-1.8846e-05
-4.63043e-06
-1.45842e-05
-2.14082e-06
-9.60101e-06
1.89448e-06
-4.76594e-06
6.56792e-06
-1.23549e-06
9.75392e-06
7.21089e-06
2.45903e-06
4.07971e-06
8.20737e-06
2.31878e-06
1.51492e-05
-2.76661e-06
2.15577e-05
-7.33846e-06
2.64309e-05
-1.00389e-05
2.9356e-05
-1.05902e-05
3.02659e-05
-9.13294e-06
2.92653e-05
-5.96444e-06
2.65238e-05
-1.45831e-06
2.22316e-05
3.97039e-06
1.65956e-05
9.87939e-06
9.83866e-06
1.58448e-05
2.19013e-06
2.1512e-05
-6.12052e-06
2.66122e-05
-1.48753e-05
3.09726e-05
-2.38884e-05
3.45175e-05
-3.30219e-05
3.72323e-05
-4.21515e-05
3.90522e-05
-5.10882e-05
3.97814e-05
-5.95405e-05
3.91807e-05
-6.71544e-05
3.71307e-05
-7.35972e-05
3.37323e-05
-7.86521e-05
2.93147e-05
-8.22627e-05
2.43123e-05
-8.4483e-05
1.90466e-05
-8.53718e-05
1.36076e-05
-8.49487e-05
7.96092e-06
-8.32324e-05
2.11226e-06
-8.02838e-05
-3.85539e-06
-7.62185e-05
-9.82221e-06
-7.1215e-05
-1.56492e-05
-6.55018e-05
-2.12322e-05
-5.92467e-05
-2.66524e-05
-5.24509e-05
-3.21268e-05
-4.50643e-05
-3.76127e-05
-3.71695e-05
-4.26968e-05
-2.8953e-05
-4.69797e-05
-2.05845e-05
-5.029e-05
-1.21732e-05
-5.25948e-05
-3.76161e-06
-5.39302e-05
4.64583e-06
-5.43295e-05
1.30583e-05
-5.38129e-05
2.1484e-05
-5.23946e-05
2.9888e-05
-5.00428e-05
3.81554e-05
-4.67005e-05
4.6093e-05
-4.23693e-05
5.34805e-05
-3.72077e-05
6.0247e-05
-3.16886e-05
6.64643e-05
-2.62358e-05
7.20897e-05
-2.07873e-05
7.69345e-05
-1.51515e-05
8.07901e-05
-9.31338e-06
8.35027e-05
-3.38428e-06
8.49717e-05
2.51932e-06
8.51429e-05
8.30453e-06
8.39793e-05
1.39337e-05
8.14108e-05
1.94371e-05
7.73508e-05
2.47695e-05
7.17909e-05
2.96663e-05