/*--------------------------------*- C++ -*----------------------------------*\
| =========                 |                                                 |
| \\      /  F ield         | OpenFOAM: The Open Source CFD Toolbox           |
|  \\    /   O peration     | Version:  2412                                  |
|   \\  /    A nd           | Website:  www.openfoam.com                      |
|    \\/     M anipulation  |                                                 |
\*---------------------------------------------------------------------------*/
FoamFile
{
    version     2.0;
    format      ascii;
    arch        "LSB;label=32;scalar=64";
    class       volVectorField;
    location    "4.05";
    object      U;
}
// * * * * * * * * * * * * * * * * * * * * * * * * * * * * * * * * * * * * * //

dimensions      [0 1 -1 0 0 0 0];

internalField   nonuniform List<vector> 
6400
(
(-1.41879e-08 1.21067e-08 0)
(-2.56494e-08 1.733e-08 0)
(-2.63884e-08 1.63926e-08 0)
(-2.87921e-08 1.6254e-08 0)
(-3.18237e-08 1.62601e-08 0)
(-3.3922e-08 1.62015e-08 0)
(-3.50048e-08 1.61274e-08 0)
(-3.52723e-08 1.60557e-08 0)
(-3.49433e-08 1.59792e-08 0)
(-3.41404e-08 1.58885e-08 0)
(-3.29171e-08 1.57786e-08 0)
(-3.12844e-08 1.56504e-08 0)
(-2.92323e-08 1.55071e-08 0)
(-2.67394e-08 1.53532e-08 0)
(-2.37837e-08 1.5193e-08 0)
(-2.03457e-08 1.503e-08 0)
(-1.6412e-08 1.48655e-08 0)
(-1.19734e-08 1.4702e-08 0)
(-7.02743e-09 1.45412e-08 0)
(-1.57549e-09 1.43851e-08 0)
(4.37419e-09 1.4234e-08 0)
(1.08086e-08 1.40883e-08 0)
(1.77078e-08 1.39463e-08 0)
(2.50487e-08 1.38066e-08 0)
(3.28036e-08 1.36673e-08 0)
(4.09432e-08 1.35291e-08 0)
(4.94332e-08 1.33929e-08 0)
(5.82353e-08 1.32605e-08 0)
(6.73035e-08 1.31331e-08 0)
(7.65835e-08 1.30117e-08 0)
(8.601e-08 1.2896e-08 0)
(9.5509e-08 1.27855e-08 0)
(1.04998e-07 1.26787e-08 0)
(1.14388e-07 1.25738e-08 0)
(1.23592e-07 1.24689e-08 0)
(1.32524e-07 1.23625e-08 0)
(1.41102e-07 1.22529e-08 0)
(1.49254e-07 1.2139e-08 0)
(1.56917e-07 1.20201e-08 0)
(1.64038e-07 1.18957e-08 0)
(1.70573e-07 1.17654e-08 0)
(1.76486e-07 1.16288e-08 0)
(1.81749e-07 1.14859e-08 0)
(1.86339e-07 1.13362e-08 0)
(1.90242e-07 1.11795e-08 0)
(1.93444e-07 1.10153e-08 0)
(1.95938e-07 1.08434e-08 0)
(1.9772e-07 1.06634e-08 0)
(1.9879e-07 1.04756e-08 0)
(1.99152e-07 1.02796e-08 0)
(1.98812e-07 1.00757e-08 0)
(1.97782e-07 9.86368e-09 0)
(1.96076e-07 9.64398e-09 0)
(1.93715e-07 9.41616e-09 0)
(1.90722e-07 9.18075e-09 0)
(1.87125e-07 8.93727e-09 0)
(1.82955e-07 8.68641e-09 0)
(1.78247e-07 8.42777e-09 0)
(1.73038e-07 8.16222e-09 0)
(1.67368e-07 7.8895e-09 0)
(1.61278e-07 7.61086e-09 0)
(1.54809e-07 7.32663e-09 0)
(1.48002e-07 7.03898e-09 0)
(1.40897e-07 6.74917e-09 0)
(1.33532e-07 6.4602e-09 0)
(1.25943e-07 6.17401e-09 0)
(1.18162e-07 5.89422e-09 0)
(1.10216e-07 5.62324e-09 0)
(1.02128e-07 5.3648e-09 0)
(9.39177e-08 5.12104e-09 0)
(8.55991e-08 4.8951e-09 0)
(7.71828e-08 4.68843e-09 0)
(6.86743e-08 4.50309e-09 0)
(6.00771e-08 4.33866e-09 0)
(5.13976e-08 4.19446e-09 0)
(4.26497e-08 4.07112e-09 0)
(3.38136e-08 3.97794e-09 0)
(2.47277e-08 3.98258e-09 0)
(1.47179e-08 4.24177e-09 0)
(4.8894e-09 3.29645e-09 0)
(-1.78576e-08 5.48885e-08 0)
(-2.92812e-08 7.42274e-08 0)
(-3.18434e-08 7.20686e-08 0)
(-3.48956e-08 7.25412e-08 0)
(-3.82108e-08 7.34767e-08 0)
(-4.06265e-08 7.38032e-08 0)
(-4.19752e-08 7.38925e-08 0)
(-4.24232e-08 7.39526e-08 0)
(-4.22084e-08 7.4015e-08 0)
(-4.14753e-08 7.40665e-08 0)
(-4.02857e-08 7.4095e-08 0)
(-3.86538e-08 7.40931e-08 0)
(-3.65616e-08 7.40609e-08 0)
(-3.39806e-08 7.39982e-08 0)
(-3.08742e-08 7.3906e-08 0)
(-2.72116e-08 7.37835e-08 0)
(-2.29644e-08 7.3632e-08 0)
(-1.81117e-08 7.34512e-08 0)
(-1.26318e-08 7.32433e-08 0)
(-6.5121e-09 7.30072e-08 0)
(2.55355e-10 7.2742e-08 0)
(7.66434e-09 7.2443e-08 0)
(1.57022e-08 7.21064e-08 0)
(2.43459e-08 7.17263e-08 0)
(3.35717e-08 7.13006e-08 0)
(4.33508e-08 7.08273e-08 0)
(5.36541e-08 7.03077e-08 0)
(6.44427e-08 6.97419e-08 0)
(7.56689e-08 6.91311e-08 0)
(8.72661e-08 6.84739e-08 0)
(9.91521e-08 6.7769e-08 0)
(1.11225e-07 6.70127e-08 0)
(1.23373e-07 6.62021e-08 0)
(1.35471e-07 6.53335e-08 0)
(1.47398e-07 6.44049e-08 0)
(1.59033e-07 6.34148e-08 0)
(1.70268e-07 6.23636e-08 0)
(1.81004e-07 6.12527e-08 0)
(1.91158e-07 6.00846e-08 0)
(2.0066e-07 5.88627e-08 0)
(2.09452e-07 5.75906e-08 0)
(2.17486e-07 5.62724e-08 0)
(2.24725e-07 5.49119e-08 0)
(2.31139e-07 5.35134e-08 0)
(2.36704e-07 5.20802e-08 0)
(2.41399e-07 5.06167e-08 0)
(2.45211e-07 4.9126e-08 0)
(2.48127e-07 4.76123e-08 0)
(2.50144e-07 4.60784e-08 0)
(2.51257e-07 4.45286e-08 0)
(2.51471e-07 4.29657e-08 0)
(2.50795e-07 4.13941e-08 0)
(2.49243e-07 3.98166e-08 0)
(2.46834e-07 3.82377e-08 0)
(2.43596e-07 3.666e-08 0)
(2.39559e-07 3.50883e-08 0)
(2.3476e-07 3.35252e-08 0)
(2.29239e-07 3.19757e-08 0)
(2.2304e-07 3.04424e-08 0)
(2.16209e-07 2.89304e-08 0)
(2.08794e-07 2.74423e-08 0)
(2.00843e-07 2.59841e-08 0)
(1.92407e-07 2.45596e-08 0)
(1.83533e-07 2.31756e-08 0)
(1.74268e-07 2.1836e-08 0)
(1.64656e-07 2.05475e-08 0)
(1.5474e-07 1.93141e-08 0)
(1.44555e-07 1.81426e-08 0)
(1.34137e-07 1.70365e-08 0)
(1.23513e-07 1.60011e-08 0)
(1.12712e-07 1.50381e-08 0)
(1.01755e-07 1.41511e-08 0)
(9.06618e-08 1.33383e-08 0)
(7.94494e-08 1.25933e-08 0)
(6.81378e-08 1.19019e-08 0)
(5.67528e-08 1.12697e-08 0)
(4.52196e-08 1.08355e-08 0)
(3.31864e-08 1.11442e-08 0)
(1.97399e-08 1.28217e-08 0)
(6.57744e-09 1.08896e-08 0)
(-1.70204e-08 1.13013e-07 0)
(-2.56596e-08 1.42473e-07 0)
(-2.81066e-08 1.36145e-07 0)
(-3.08821e-08 1.37546e-07 0)
(-3.3993e-08 1.39878e-07 0)
(-3.64786e-08 1.40936e-07 0)
(-3.80631e-08 1.41397e-07 0)
(-3.8847e-08 1.41718e-07 0)
(-3.90444e-08 1.42007e-07 0)
(-3.87772e-08 1.42269e-07 0)
(-3.81024e-08 1.42489e-07 0)
(-3.70255e-08 1.42661e-07 0)
(-3.55295e-08 1.42779e-07 0)
(-3.35792e-08 1.42843e-07 0)
(-3.11416e-08 1.42848e-07 0)
(-2.81782e-08 1.42793e-07 0)
(-2.46592e-08 1.42673e-07 0)
(-2.05515e-08 1.42489e-07 0)
(-1.58313e-08 1.42236e-07 0)
(-1.04741e-08 1.41913e-07 0)
(-4.47019e-09 1.41511e-07 0)
(2.18578e-09 1.41024e-07 0)
(9.48361e-09 1.40443e-07 0)
(1.74122e-08 1.39761e-07 0)
(2.59518e-08 1.38971e-07 0)
(3.50855e-08 1.3807e-07 0)
(4.47874e-08 1.37054e-07 0)
(5.50283e-08 1.35923e-07 0)
(6.57608e-08 1.34674e-07 0)
(7.69246e-08 1.33304e-07 0)
(8.84359e-08 1.31808e-07 0)
(1.00197e-07 1.30184e-07 0)
(1.12092e-07 1.28428e-07 0)
(1.24002e-07 1.26537e-07 0)
(1.35802e-07 1.24512e-07 0)
(1.47374e-07 1.22355e-07 0)
(1.58606e-07 1.20071e-07 0)
(1.69403e-07 1.17666e-07 0)
(1.79677e-07 1.15147e-07 0)
(1.89358e-07 1.12525e-07 0)
(1.98383e-07 1.09806e-07 0)
(2.06705e-07 1.07002e-07 0)
(2.14279e-07 1.0412e-07 0)
(2.21073e-07 1.0117e-07 0)
(2.27056e-07 9.81619e-08 0)
(2.32205e-07 9.51022e-08 0)
(2.36497e-07 9.20005e-08 0)
(2.39919e-07 8.8864e-08 0)
(2.42455e-07 8.57017e-08 0)
(2.44102e-07 8.252e-08 0)
(2.44854e-07 7.93283e-08 0)
(2.44718e-07 7.61329e-08 0)
(2.43701e-07 7.29432e-08 0)
(2.41821e-07 6.97651e-08 0)
(2.39098e-07 6.66078e-08 0)
(2.35562e-07 6.34772e-08 0)
(2.31242e-07 6.03827e-08 0)
(2.26179e-07 5.73301e-08 0)
(2.20409e-07 5.43288e-08 0)
(2.13978e-07 5.13837e-08 0)
(2.06928e-07 4.85047e-08 0)
(1.99308e-07 4.56975e-08 0)
(1.91162e-07 4.2973e-08 0)
(1.8254e-07 4.03374e-08 0)
(1.73485e-07 3.78008e-08 0)
(1.64045e-07 3.53688e-08 0)
(1.54257e-07 3.30512e-08 0)
(1.44167e-07 3.08531e-08 0)
(1.33805e-07 2.87825e-08 0)
(1.23211e-07 2.68416e-08 0)
(1.12413e-07 2.5035e-08 0)
(1.01443e-07 2.33611e-08 0)
(9.03261e-08 2.18159e-08 0)
(7.90892e-08 2.03802e-08 0)
(6.77621e-08 1.9028e-08 0)
(5.63667e-08 1.77915e-08 0)
(4.48165e-08 1.69761e-08 0)
(3.27222e-08 1.77038e-08 0)
(1.9312e-08 2.145e-08 0)
(6.38213e-09 1.94355e-08 0)
(-1.62015e-08 1.67412e-07 0)
(-2.41569e-08 2.0769e-07 0)
(-2.66795e-08 1.97979e-07 0)
(-2.95847e-08 2.00546e-07 0)
(-3.28485e-08 2.04435e-07 0)
(-3.55625e-08 2.06315e-07 0)
(-3.74161e-08 2.07216e-07 0)
(-3.85146e-08 2.07843e-07 0)
(-3.90498e-08 2.08391e-07 0)
(-3.91345e-08 2.08882e-07 0)
(-3.88087e-08 2.09309e-07 0)
(-3.80761e-08 2.09661e-07 0)
(-3.69084e-08 2.09933e-07 0)
(-3.52738e-08 2.10119e-07 0)
(-3.3129e-08 2.10216e-07 0)
(-3.0441e-08 2.10214e-07 0)
(-2.71707e-08 2.10113e-07 0)
(-2.329e-08 2.09903e-07 0)
(-1.87665e-08 2.09582e-07 0)
(-1.35827e-08 2.09139e-07 0)
(-7.72166e-09 2.08567e-07 0)
(-1.18455e-09 2.07851e-07 0)
(6.02737e-09 2.06983e-07 0)
(1.38992e-08 2.05951e-07 0)
(2.24202e-08 2.0475e-07 0)
(3.15694e-08 2.03371e-07 0)
(4.13275e-08 2.01812e-07 0)
(5.16591e-08 2.00068e-07 0)
(6.25209e-08 1.98135e-07 0)
(7.38456e-08 1.96008e-07 0)
(8.55525e-08 1.93684e-07 0)
(9.75376e-08 1.91159e-07 0)
(1.09689e-07 1.88431e-07 0)
(1.21881e-07 1.855e-07 0)
(1.33992e-07 1.8237e-07 0)
(1.459e-07 1.79046e-07 0)
(1.57494e-07 1.75538e-07 0)
(1.68671e-07 1.71856e-07 0)
(1.79346e-07 1.68013e-07 0)
(1.8944e-07 1.64023e-07 0)
(1.98889e-07 1.59899e-07 0)
(2.07637e-07 1.55656e-07 0)
(2.1564e-07 1.51309e-07 0)
(2.22854e-07 1.4687e-07 0)
(2.29249e-07 1.42354e-07 0)
(2.34792e-07 1.37773e-07 0)
(2.39461e-07 1.3314e-07 0)
(2.43234e-07 1.28468e-07 0)
(2.46097e-07 1.23767e-07 0)
(2.48036e-07 1.1905e-07 0)
(2.49053e-07 1.14327e-07 0)
(2.49142e-07 1.09612e-07 0)
(2.48318e-07 1.04913e-07 0)
(2.46589e-07 1.00244e-07 0)
(2.43983e-07 9.5614e-08 0)
(2.40521e-07 9.10358e-08 0)
(2.36241e-07 8.65181e-08 0)
(2.31174e-07 8.20746e-08 0)
(2.25366e-07 7.77129e-08 0)
(2.18856e-07 7.34461e-08 0)
(2.11696e-07 6.92819e-08 0)
(2.03928e-07 6.52342e-08 0)
(1.95606e-07 6.13112e-08 0)
(1.86773e-07 5.75267e-08 0)
(1.77485e-07 5.38874e-08 0)
(1.67782e-07 5.04059e-08 0)
(1.57715e-07 4.70883e-08 0)
(1.4732e-07 4.39454e-08 0)
(1.36643e-07 4.09808e-08 0)
(1.25717e-07 3.82011e-08 0)
(1.14582e-07 3.56057e-08 0)
(1.03265e-07 3.31951e-08 0)
(9.18012e-08 3.0957e-08 0)
(8.02158e-08 2.88637e-08 0)
(6.85417e-08 2.68779e-08 0)
(5.68028e-08 2.50521e-08 0)
(4.49027e-08 2.38558e-08 0)
(3.2489e-08 2.49194e-08 0)
(1.89478e-08 3.04134e-08 0)
(6.17463e-09 2.7845e-08 0)
(-1.5611e-08 2.18612e-07 0)
(-2.3386e-08 2.70419e-07 0)
(-2.61876e-08 2.57789e-07 0)
(-2.93057e-08 2.61504e-07 0)
(-3.27453e-08 2.66898e-07 0)
(-3.56204e-08 2.69604e-07 0)
(-3.76616e-08 2.70964e-07 0)
(-3.89714e-08 2.71922e-07 0)
(-3.97409e-08 2.72747e-07 0)
(-4.00658e-08 2.7348e-07 0)
(-3.99856e-08 2.74115e-07 0)
(-3.94898e-08 2.74646e-07 0)
(-3.85549e-08 2.75062e-07 0)
(-3.71377e-08 2.75361e-07 0)
(-3.52014e-08 2.75532e-07 0)
(-3.27007e-08 2.7557e-07 0)
(-2.96046e-08 2.75465e-07 0)
(-2.58751e-08 2.75212e-07 0)
(-2.14896e-08 2.74797e-07 0)
(-1.64215e-08 2.74212e-07 0)
(-1.06634e-08 2.73441e-07 0)
(-4.20676e-09 2.72471e-07 0)
(2.93944e-09 2.71289e-07 0)
(1.07711e-08 2.69884e-07 0)
(1.92709e-08 2.68244e-07 0)
(2.84274e-08 2.66364e-07 0)
(3.82136e-08 2.64237e-07 0)
(4.8601e-08 2.61858e-07 0)
(5.95375e-08 2.59221e-07 0)
(7.09613e-08 2.56324e-07 0)
(8.27836e-08 2.53159e-07 0)
(9.49058e-08 2.49728e-07 0)
(1.07209e-07 2.46028e-07 0)
(1.19574e-07 2.42064e-07 0)
(1.31873e-07 2.37841e-07 0)
(1.43988e-07 2.33369e-07 0)
(1.55804e-07 2.28662e-07 0)
(1.67219e-07 2.23736e-07 0)
(1.78142e-07 2.18607e-07 0)
(1.88495e-07 2.13295e-07 0)
(1.98208e-07 2.07818e-07 0)
(2.07224e-07 2.02195e-07 0)
(2.15491e-07 1.96445e-07 0)
(2.22967e-07 1.90586e-07 0)
(2.29612e-07 1.84636e-07 0)
(2.35396e-07 1.78612e-07 0)
(2.40288e-07 1.7253e-07 0)
(2.44269e-07 1.66406e-07 0)
(2.47317e-07 1.60255e-07 0)
(2.49425e-07 1.54091e-07 0)
(2.50583e-07 1.47931e-07 0)
(2.50795e-07 1.41786e-07 0)
(2.50065e-07 1.35674e-07 0)
(2.48412e-07 1.29606e-07 0)
(2.45852e-07 1.23598e-07 0)
(2.42419e-07 1.17662e-07 0)
(2.38139e-07 1.11816e-07 0)
(2.33056e-07 1.06069e-07 0)
(2.27206e-07 1.00439e-07 0)
(2.20642e-07 9.49341e-08 0)
(2.13402e-07 8.95724e-08 0)
(2.05545e-07 8.43631e-08 0)
(1.97114e-07 7.93235e-08 0)
(1.88167e-07 7.44623e-08 0)
(1.78748e-07 6.97947e-08 0)
(1.68912e-07 6.53279e-08 0)
(1.58699e-07 6.10752e-08 0)
(1.4816e-07 5.70415e-08 0)
(1.37329e-07 5.32366e-08 0)
(1.26253e-07 4.96612e-08 0)
(1.14962e-07 4.63192e-08 0)
(1.03495e-07 4.32042e-08 0)
(9.1879e-08 4.03038e-08 0)
(8.01474e-08 3.75782e-08 0)
(6.83282e-08 3.49838e-08 0)
(5.64459e-08 3.2598e-08 0)
(4.4416e-08 3.10267e-08 0)
(3.19073e-08 3.23726e-08 0)
(1.84251e-08 3.9385e-08 0)
(5.94138e-09 3.59818e-08 0)
(-1.50418e-08 2.67993e-07 0)
(-2.267e-08 3.31263e-07 0)
(-2.56773e-08 3.15859e-07 0)
(-2.89492e-08 3.2064e-07 0)
(-3.24915e-08 3.27497e-07 0)
(-3.54796e-08 3.31018e-07 0)
(-3.76585e-08 3.32851e-07 0)
(-3.91389e-08 3.34155e-07 0)
(-4.00964e-08 3.35272e-07 0)
(-4.06286e-08 3.36253e-07 0)
(-4.07611e-08 3.37101e-07 0)
(-4.04897e-08 3.37807e-07 0)
(-3.97775e-08 3.38365e-07 0)
(-3.85906e-08 3.38766e-07 0)
(-3.68798e-08 3.39005e-07 0)
(-3.46094e-08 3.3907e-07 0)
(-3.17353e-08 3.38954e-07 0)
(-2.82315e-08 3.38642e-07 0)
(-2.40639e-08 3.38123e-07 0)
(-1.9218e-08 3.37381e-07 0)
(-1.36745e-08 3.36401e-07 0)
(-7.43483e-09 3.35163e-07 0)
(-4.94877e-10 3.33655e-07 0)
(7.1328e-09 3.31861e-07 0)
(1.54439e-08 3.29773e-07 0)
(2.44185e-08 3.27379e-07 0)
(3.40405e-08 3.24674e-07 0)
(4.42721e-08 3.21649e-07 0)
(5.50704e-08 3.18301e-07 0)
(6.63645e-08 3.14623e-07 0)
(7.80744e-08 3.10615e-07 0)
(9.00947e-08 3.06273e-07 0)
(1.02316e-07 3.01602e-07 0)
(1.14612e-07 2.96607e-07 0)
(1.26865e-07 2.91299e-07 0)
(1.38952e-07 2.85691e-07 0)
(1.50763e-07 2.79802e-07 0)
(1.62194e-07 2.73652e-07 0)
(1.73155e-07 2.67264e-07 0)
(1.83563e-07 2.60661e-07 0)
(1.93351e-07 2.53867e-07 0)
(2.02455e-07 2.46905e-07 0)
(2.10825e-07 2.39798e-07 0)
(2.1841e-07 2.32569e-07 0)
(2.25175e-07 2.25238e-07 0)
(2.3108e-07 2.17828e-07 0)
(2.36099e-07 2.10357e-07 0)
(2.40202e-07 2.02844e-07 0)
(2.43377e-07 1.95305e-07 0)
(2.45604e-07 1.87761e-07 0)
(2.46883e-07 1.80226e-07 0)
(2.47207e-07 1.72721e-07 0)
(2.4659e-07 1.65259e-07 0)
(2.4504e-07 1.5786e-07 0)
(2.42585e-07 1.50537e-07 0)
(2.39245e-07 1.43312e-07 0)
(2.35062e-07 1.36197e-07 0)
(2.30064e-07 1.29213e-07 0)
(2.24304e-07 1.22372e-07 0)
(2.17818e-07 1.15693e-07 0)
(2.10664e-07 1.09188e-07 0)
(2.02883e-07 1.02877e-07 0)
(1.94537e-07 9.67704e-08 0)
(1.85666e-07 9.08876e-08 0)
(1.76334e-07 8.52366e-08 0)
(1.66578e-07 7.98339e-08 0)
(1.56455e-07 7.46852e-08 0)
(1.46001e-07 6.98033e-08 0)
(1.35266e-07 6.51905e-08 0)
(1.24281e-07 6.08544e-08 0)
(1.1309e-07 5.67913e-08 0)
(1.01719e-07 5.29989e-08 0)
(9.02082e-08 4.94549e-08 0)
(7.85811e-08 4.61164e-08 0)
(6.68742e-08 4.29301e-08 0)
(5.51091e-08 3.99935e-08 0)
(4.32119e-08 3.80484e-08 0)
(3.08834e-08 3.96158e-08 0)
(1.77e-08 4.79921e-08 0)
(5.67157e-09 4.37081e-08 0)
(-1.44e-08 3.1562e-07 0)
(-2.17969e-08 3.90082e-07 0)
(-2.49514e-08 3.72044e-07 0)
(-2.83257e-08 3.77876e-07 0)
(-3.19442e-08 3.86155e-07 0)
(-3.50273e-08 3.90484e-07 0)
(-3.73408e-08 3.92793e-07 0)
(-3.89835e-08 3.94455e-07 0)
(-4.01307e-08 3.95869e-07 0)
(-4.08631e-08 3.97106e-07 0)
(-4.12138e-08 3.98165e-07 0)
(-4.11649e-08 3.99046e-07 0)
(-4.06904e-08 3.9974e-07 0)
(-3.97421e-08 4.00242e-07 0)
(-3.82842e-08 4.00542e-07 0)
(-3.62671e-08 4.00633e-07 0)
(-3.36602e-08 4.00496e-07 0)
(-3.04235e-08 4.00123e-07 0)
(-2.65379e-08 3.99491e-07 0)
(-2.19749e-08 3.98587e-07 0)
(-1.67285e-08 3.97387e-07 0)
(-1.07849e-08 3.95877e-07 0)
(-4.15079e-09 3.94033e-07 0)
(3.17698e-09 3.91846e-07 0)
(1.11841e-08 3.893e-07 0)
(1.98647e-08 3.86386e-07 0)
(2.91926e-08 3.83093e-07 0)
(3.91422e-08 3.79418e-07 0)
(4.96605e-08 3.75351e-07 0)
(6.06883e-08 3.70891e-07 0)
(7.21374e-08 3.66034e-07 0)
(8.39142e-08 3.60783e-07 0)
(9.59029e-08 3.55142e-07 0)
(1.0799e-07 3.49123e-07 0)
(1.20052e-07 3.42737e-07 0)
(1.31976e-07 3.36006e-07 0)
(1.43648e-07 3.28952e-07 0)
(1.5497e-07 3.21601e-07 0)
(1.65847e-07 3.1398e-07 0)
(1.76202e-07 3.06118e-07 0)
(1.85959e-07 2.98042e-07 0)
(1.95059e-07 2.89781e-07 0)
(2.03443e-07 2.81361e-07 0)
(2.11066e-07 2.7281e-07 0)
(2.1788e-07 2.64151e-07 0)
(2.23854e-07 2.55408e-07 0)
(2.28949e-07 2.46605e-07 0)
(2.33146e-07 2.3776e-07 0)
(2.36417e-07 2.28896e-07 0)
(2.38755e-07 2.2003e-07 0)
(2.40146e-07 2.11186e-07 0)
(2.40596e-07 2.02378e-07 0)
(2.40105e-07 1.93631e-07 0)
(2.38694e-07 1.84959e-07 0)
(2.36377e-07 1.76386e-07 0)
(2.33189e-07 1.67927e-07 0)
(2.29155e-07 1.59606e-07 0)
(2.24322e-07 1.51438e-07 0)
(2.18722e-07 1.43447e-07 0)
(2.12413e-07 1.35644e-07 0)
(2.05432e-07 1.28053e-07 0)
(1.9784e-07 1.20687e-07 0)
(1.89679e-07 1.13569e-07 0)
(1.81012e-07 1.06707e-07 0)
(1.71879e-07 1.00124e-07 0)
(1.62339e-07 9.38246e-08 0)
(1.52429e-07 8.78256e-08 0)
(1.42202e-07 8.21307e-08 0)
(1.31689e-07 7.67506e-08 0)
(1.20939e-07 7.16837e-08 0)
(1.09978e-07 6.69331e-08 0)
(9.88481e-08 6.24873e-08 0)
(8.7573e-08 5.83259e-08 0)
(7.61923e-08 5.4393e-08 0)
(6.47326e-08 5.06306e-08 0)
(5.32283e-08 4.71518e-08 0)
(4.16103e-08 4.48197e-08 0)
(2.96117e-08 4.6556e-08 0)
(1.68664e-08 5.61611e-08 0)
(5.3736e-09 5.09948e-08 0)
(-1.36501e-08 3.61267e-07 0)
(-2.07166e-08 4.46565e-07 0)
(-2.39797e-08 4.26061e-07 0)
(-2.74322e-08 4.32923e-07 0)
(-3.11095e-08 4.42588e-07 0)
(-3.42876e-08 4.47712e-07 0)
(-3.67349e-08 4.505e-07 0)
(-3.85507e-08 4.52517e-07 0)
(-3.98881e-08 4.54229e-07 0)
(-4.08322e-08 4.55714e-07 0)
(-4.13991e-08 4.56983e-07 0)
(-4.15836e-08 4.5803e-07 0)
(-4.13456e-08 4.58855e-07 0)
(-4.06519e-08 4.5945e-07 0)
(-3.94515e-08 4.59808e-07 0)
(-3.77117e-08 4.59912e-07 0)
(-3.53869e-08 4.59753e-07 0)
(-3.2454e-08 4.59308e-07 0)
(-2.88781e-08 4.5856e-07 0)
(-2.46471e-08 4.57485e-07 0)
(-1.97381e-08 4.56063e-07 0)
(-1.41512e-08 4.54269e-07 0)
(-7.87511e-09 4.52088e-07 0)
(-9.18923e-10 4.49499e-07 0)
(6.72031e-09 4.46491e-07 0)
(1.5025e-08 4.43049e-07 0)
(2.39842e-08 4.39168e-07 0)
(3.35609e-08 4.34835e-07 0)
(4.3716e-08 4.3005e-07 0)
(5.43807e-08 4.24804e-07 0)
(6.54808e-08 4.19102e-07 0)
(7.69155e-08 4.12945e-07 0)
(8.85834e-08 4.06343e-07 0)
(1.00366e-07 3.99308e-07 0)
(1.12151e-07 3.91862e-07 0)
(1.23823e-07 3.84028e-07 0)
(1.35276e-07 3.75834e-07 0)
(1.46408e-07 3.67311e-07 0)
(1.57132e-07 3.58491e-07 0)
(1.67361e-07 3.49408e-07 0)
(1.77029e-07 3.40095e-07 0)
(1.86064e-07 3.30584e-07 0)
(1.94415e-07 3.20905e-07 0)
(2.02025e-07 3.11089e-07 0)
(2.08854e-07 3.01162e-07 0)
(2.14857e-07 2.91153e-07 0)
(2.20005e-07 2.81082e-07 0)
(2.24266e-07 2.70977e-07 0)
(2.27624e-07 2.60854e-07 0)
(2.30057e-07 2.50741e-07 0)
(2.31563e-07 2.40655e-07 0)
(2.32135e-07 2.3062e-07 0)
(2.31786e-07 2.20654e-07 0)
(2.30523e-07 2.10784e-07 0)
(2.28374e-07 2.01024e-07 0)
(2.25358e-07 1.91404e-07 0)
(2.21518e-07 1.81939e-07 0)
(2.16881e-07 1.72657e-07 0)
(2.115e-07 1.63572e-07 0)
(2.05409e-07 1.5471e-07 0)
(1.9867e-07 1.46087e-07 0)
(1.9132e-07 1.37728e-07 0)
(1.83424e-07 1.29647e-07 0)
(1.7502e-07 1.21866e-07 0)
(1.66172e-07 1.14395e-07 0)
(1.56915e-07 1.07253e-07 0)
(1.47307e-07 1.00446e-07 0)
(1.37378e-07 9.39879e-08 0)
(1.2718e-07 8.78787e-08 0)
(1.16738e-07 8.21248e-08 0)
(1.06098e-07 7.67192e-08 0)
(9.52823e-08 7.16565e-08 0)
(8.43329e-08 6.69043e-08 0)
(7.32733e-08 6.24043e-08 0)
(6.21491e-08 5.80826e-08 0)
(5.09869e-08 5.40702e-08 0)
(3.97408e-08 5.13401e-08 0)
(2.81645e-08 5.31852e-08 0)
(1.59493e-08 6.38876e-08 0)
(5.04705e-09 5.78327e-08 0)
(-1.27832e-08 4.04594e-07 0)
(-1.94074e-08 5.00288e-07 0)
(-2.276e-08 4.77507e-07 0)
(-2.62691e-08 4.85383e-07 0)
(-2.99985e-08 4.96392e-07 0)
(-3.32668e-08 5.02294e-07 0)
(-3.58577e-08 5.05552e-07 0)
(-3.78472e-08 5.07918e-07 0)
(-3.93864e-08 5.09914e-07 0)
(-4.05393e-08 5.11639e-07 0)
(-4.13333e-08 5.13102e-07 0)
(-4.17464e-08 5.14306e-07 0)
(-4.17557e-08 5.15248e-07 0)
(-4.13135e-08 5.15927e-07 0)
(-4.03879e-08 5.16329e-07 0)
(-3.89296e-08 5.16443e-07 0)
(-3.69135e-08 5.16248e-07 0)
(-3.42993e-08 5.15727e-07 0)
(-3.1071e-08 5.14852e-07 0)
(-2.71982e-08 5.13603e-07 0)
(-2.2675e-08 5.1195e-07 0)
(-1.74818e-08 5.09873e-07 0)
(-1.16222e-08 5.07346e-07 0)
(-5.08507e-09 5.04354e-07 0)
(2.1188e-09 5.00878e-07 0)
(9.99028e-09 4.9691e-07 0)
(1.85052e-08 4.92434e-07 0)
(2.76432e-08 4.87448e-07 0)
(3.73537e-08 4.81942e-07 0)
(4.7584e-08 4.75919e-07 0)
(5.82512e-08 4.69376e-07 0)
(6.92708e-08 4.62325e-07 0)
(8.05351e-08 4.54775e-07 0)
(9.19412e-08 4.46747e-07 0)
(1.03373e-07 4.38263e-07 0)
(1.14725e-07 4.29355e-07 0)
(1.2589e-07 4.20055e-07 0)
(1.36773e-07 4.10399e-07 0)
(1.4728e-07 4.00426e-07 0)
(1.57335e-07 3.90174e-07 0)
(1.66857e-07 3.7968e-07 0)
(1.75787e-07 3.6898e-07 0)
(1.84057e-07 3.58109e-07 0)
(1.91622e-07 3.47098e-07 0)
(1.98426e-07 3.35981e-07 0)
(2.04434e-07 3.24781e-07 0)
(2.09605e-07 3.13527e-07 0)
(2.13916e-07 3.02241e-07 0)
(2.17337e-07 2.90948e-07 0)
(2.19859e-07 2.79669e-07 0)
(2.21466e-07 2.6843e-07 0)
(2.22166e-07 2.57249e-07 0)
(2.21955e-07 2.46154e-07 0)
(2.20857e-07 2.35161e-07 0)
(2.18882e-07 2.24302e-07 0)
(2.16068e-07 2.13594e-07 0)
(2.12436e-07 2.03067e-07 0)
(2.08037e-07 1.92737e-07 0)
(2.029e-07 1.82636e-07 0)
(1.97082e-07 1.72778e-07 0)
(1.90619e-07 1.63194e-07 0)
(1.83574e-07 1.539e-07 0)
(1.75984e-07 1.44922e-07 0)
(1.67915e-07 1.36273e-07 0)
(1.594e-07 1.27977e-07 0)
(1.50502e-07 1.20042e-07 0)
(1.41249e-07 1.12485e-07 0)
(1.31698e-07 1.05309e-07 0)
(1.21871e-07 9.85243e-08 0)
(1.11817e-07 9.21251e-08 0)
(1.01556e-07 8.61119e-08 0)
(9.11329e-08 8.04678e-08 0)
(8.05675e-08 7.51636e-08 0)
(6.99053e-08 7.0123e-08 0)
(5.91776e-08 6.52673e-08 0)
(4.84327e-08 6.0732e-08 0)
(3.7626e-08 5.75944e-08 0)
(2.65518e-08 5.94921e-08 0)
(1.49435e-08 7.11518e-08 0)
(4.68784e-09 6.41994e-08 0)
(-1.17834e-08 4.45201e-07 0)
(-1.7843e-08 5.50762e-07 0)
(-2.12773e-08 5.25923e-07 0)
(-2.48441e-08 5.34804e-07 0)
(-2.86195e-08 5.4711e-07 0)
(-3.19866e-08 5.53765e-07 0)
(-3.47227e-08 5.57479e-07 0)
(-3.68995e-08 5.60177e-07 0)
(-3.86383e-08 5.62442e-07 0)
(-4.00102e-08 5.64384e-07 0)
(-4.10244e-08 5.66025e-07 0)
(-4.16767e-08 5.67368e-07 0)
(-4.19272e-08 5.68417e-07 0)
(-4.17502e-08 5.69162e-07 0)
(-4.10975e-08 5.696e-07 0)
(-3.99429e-08 5.69709e-07 0)
(-3.82429e-08 5.69474e-07 0)
(-3.59795e-08 5.68865e-07 0)
(-3.31169e-08 5.67862e-07 0)
(-2.96451e-08 5.6643e-07 0)
(-2.55368e-08 5.64547e-07 0)
(-2.07901e-08 5.62179e-07 0)
(-1.53863e-08 5.59308e-07 0)
(-9.33009e-09 5.55909e-07 0)
(-2.61066e-09 5.51969e-07 0)
(4.75803e-09 5.4747e-07 0)
(1.27712e-08 5.42407e-07 0)
(2.1395e-08 5.36768e-07 0)
(3.05972e-08 5.30553e-07 0)
(4.03144e-08 5.23759e-07 0)
(5.04823e-08 5.16393e-07 0)
(6.10085e-08 5.08464e-07 0)
(7.18038e-08 4.9999e-07 0)
(8.2759e-08 4.90993e-07 0)
(9.3775e-08 4.81505e-07 0)
(1.04741e-07 4.71559e-07 0)
(1.15562e-07 4.61197e-07 0)
(1.26136e-07 4.50458e-07 0)
(1.3638e-07 4.39387e-07 0)
(1.46207e-07 4.28028e-07 0)
(1.55546e-07 4.1642e-07 0)
(1.64324e-07 4.04606e-07 0)
(1.72484e-07 3.92621e-07 0)
(1.79963e-07 3.80503e-07 0)
(1.86719e-07 3.68281e-07 0)
(1.92701e-07 3.55986e-07 0)
(1.97878e-07 3.43642e-07 0)
(2.02212e-07 3.31276e-07 0)
(2.05688e-07 3.18909e-07 0)
(2.0828e-07 3.06567e-07 0)
(2.09989e-07 2.94271e-07 0)
(2.10804e-07 2.82047e-07 0)
(2.10742e-07 2.69914e-07 0)
(2.09804e-07 2.57902e-07 0)
(2.08025e-07 2.46029e-07 0)
(2.05419e-07 2.34329e-07 0)
(2.0203e-07 2.2282e-07 0)
(1.97884e-07 2.11534e-07 0)
(1.93035e-07 2.00489e-07 0)
(1.87513e-07 1.89717e-07 0)
(1.81382e-07 1.79238e-07 0)
(1.74674e-07 1.69083e-07 0)
(1.67457e-07 1.59267e-07 0)
(1.59761e-07 1.49821e-07 0)
(1.51652e-07 1.40755e-07 0)
(1.43159e-07 1.32092e-07 0)
(1.34338e-07 1.23838e-07 0)
(1.25213e-07 1.16006e-07 0)
(1.15834e-07 1.08595e-07 0)
(1.0622e-07 1.01608e-07 0)
(9.64158e-08 9.50329e-08 0)
(8.64378e-08 8.88584e-08 0)
(7.63305e-08 8.30402e-08 0)
(6.61187e-08 7.7498e-08 0)
(5.58575e-08 7.2134e-08 0)
(4.55849e-08 6.70947e-08 0)
(3.52862e-08 6.3543e-08 0)
(2.47758e-08 6.54398e-08 0)
(1.38492e-08 7.7911e-08 0)
(4.29187e-09 7.00541e-08 0)
(-1.0628e-08 4.8262e-07 0)
(-1.59824e-08 5.97421e-07 0)
(-1.95211e-08 5.7078e-07 0)
(-2.31635e-08 5.8066e-07 0)
(-2.70026e-08 5.94206e-07 0)
(-3.04741e-08 6.01579e-07 0)
(-3.33717e-08 6.05721e-07 0)
(-3.5737e-08 6.08729e-07 0)
(-3.76883e-08 6.11235e-07 0)
(-3.92728e-08 6.13372e-07 0)
(-4.05156e-08 6.15166e-07 0)
(-4.13971e-08 6.16629e-07 0)
(-4.19006e-08 6.17762e-07 0)
(-4.19828e-08 6.18565e-07 0)
(-4.1621e-08 6.19021e-07 0)
(-4.07708e-08 6.19119e-07 0)
(-3.94141e-08 6.18831e-07 0)
(-3.75122e-08 6.18134e-07 0)
(-3.50528e-08 6.16993e-07 0)
(-3.20032e-08 6.15381e-07 0)
(-2.83571e-08 6.13261e-07 0)
(-2.40885e-08 6.10608e-07 0)
(-1.91969e-08 6.0739e-07 0)
(-1.36628e-08 6.0359e-07 0)
(-7.49184e-09 5.99185e-07 0)
(-6.75613e-10 5.94166e-07 0)
(6.76577e-09 5.88519e-07 0)
(1.48191e-08 5.82241e-07 0)
(2.34392e-08 5.75327e-07 0)
(3.25833e-08 5.67782e-07 0)
(4.21773e-08 5.5961e-07 0)
(5.21499e-08 5.50829e-07 0)
(6.24047e-08 5.41459e-07 0)
(7.28525e-08 5.3153e-07 0)
(8.33874e-08 5.21076e-07 0)
(9.39161e-08 5.1014e-07 0)
(1.04335e-07 4.98767e-07 0)
(1.14557e-07 4.87005e-07 0)
(1.24489e-07 4.74903e-07 0)
(1.34053e-07 4.62509e-07 0)
(1.43166e-07 4.4987e-07 0)
(1.51765e-07 4.37028e-07 0)
(1.59777e-07 4.24025e-07 0)
(1.67152e-07 4.10896e-07 0)
(1.73828e-07 3.97676e-07 0)
(1.79768e-07 3.84392e-07 0)
(1.84925e-07 3.71072e-07 0)
(1.89274e-07 3.57737e-07 0)
(1.92783e-07 3.44414e-07 0)
(1.95444e-07 3.31122e-07 0)
(1.97237e-07 3.17889e-07 0)
(1.98174e-07 3.04732e-07 0)
(1.9825e-07 2.9168e-07 0)
(1.9749e-07 2.78752e-07 0)
(1.95904e-07 2.6598e-07 0)
(1.93532e-07 2.53385e-07 0)
(1.90392e-07 2.41e-07 0)
(1.86537e-07 2.28844e-07 0)
(1.8199e-07 2.16954e-07 0)
(1.76814e-07 2.05347e-07 0)
(1.71038e-07 1.9406e-07 0)
(1.64727e-07 1.83113e-07 0)
(1.57913e-07 1.7254e-07 0)
(1.50659e-07 1.62359e-07 0)
(1.42995e-07 1.52597e-07 0)
(1.34979e-07 1.43265e-07 0)
(1.26633e-07 1.34384e-07 0)
(1.18011e-07 1.25954e-07 0)
(1.09127e-07 1.17983e-07 0)
(1.00029e-07 1.10464e-07 0)
(9.0729e-08 1.0339e-07 0)
(8.12696e-08 9.67354e-08 0)
(7.16683e-08 9.04574e-08 0)
(6.19749e-08 8.44546e-08 0)
(5.22262e-08 7.8621e-08 0)
(4.24872e-08 7.30989e-08 0)
(3.27424e-08 6.91367e-08 0)
(2.28557e-08 7.09797e-08 0)
(1.26686e-08 8.41104e-08 0)
(3.86096e-09 7.5346e-08 0)
(-9.2876e-09 5.16294e-07 0)
(-1.37906e-08 6.39563e-07 0)
(-1.74786e-08 6.11413e-07 0)
(-2.12538e-08 6.22282e-07 0)
(-2.51844e-08 6.37e-07 0)
(-2.87865e-08 6.45035e-07 0)
(-3.18504e-08 6.49563e-07 0)
(-3.44184e-08 6.52839e-07 0)
(-3.65752e-08 6.55552e-07 0)
(-3.83809e-08 6.57851e-07 0)
(-3.98406e-08 6.59772e-07 0)
(-4.09581e-08 6.61327e-07 0)
(-4.17021e-08 6.62527e-07 0)
(-4.20569e-08 6.63364e-07 0)
(-4.19807e-08 6.63831e-07 0)
(-4.14571e-08 6.63903e-07 0)
(-4.04468e-08 6.63559e-07 0)
(-3.89377e-08 6.62764e-07 0)
(-3.68943e-08 6.61488e-07 0)
(-3.43077e-08 6.5969e-07 0)
(-3.11465e-08 6.57341e-07 0)
(-2.74058e-08 6.544e-07 0)
(-2.30589e-08 6.50846e-07 0)
(-1.81046e-08 6.46646e-07 0)
(-1.25231e-08 6.41789e-07 0)
(-6.32301e-09 6.36256e-07 0)
(4.98777e-10 6.30042e-07 0)
(7.91364e-09 6.23138e-07 0)
(1.5899e-08 6.15549e-07 0)
(2.44e-08 6.07273e-07 0)
(3.33659e-08 5.98327e-07 0)
(4.27168e-08 5.88725e-07 0)
(5.2379e-08 5.78499e-07 0)
(6.22565e-08 5.67679e-07 0)
(7.22639e-08 5.56311e-07 0)
(8.23001e-08 5.44441e-07 0)
(9.22787e-08 5.32122e-07 0)
(1.02102e-07 5.19408e-07 0)
(1.11689e-07 5.06355e-07 0)
(1.20951e-07 4.93015e-07 0)
(1.29816e-07 4.79439e-07 0)
(1.38202e-07 4.65674e-07 0)
(1.4605e-07 4.51763e-07 0)
(1.53291e-07 4.37743e-07 0)
(1.59876e-07 4.23646e-07 0)
(1.6575e-07 4.09504e-07 0)
(1.70879e-07 3.95337e-07 0)
(1.75221e-07 3.81172e-07 0)
(1.7876e-07 3.67026e-07 0)
(1.8147e-07 3.52926e-07 0)
(1.83352e-07 3.38887e-07 0)
(1.84395e-07 3.24937e-07 0)
(1.84621e-07 3.11092e-07 0)
(1.8403e-07 2.97384e-07 0)
(1.82658e-07 2.83832e-07 0)
(1.80519e-07 2.70472e-07 0)
(1.77659e-07 2.57321e-07 0)
(1.74099e-07 2.44416e-07 0)
(1.69897e-07 2.31778e-07 0)
(1.6508e-07 2.19443e-07 0)
(1.59711e-07 2.07434e-07 0)
(1.53819e-07 1.95792e-07 0)
(1.4747e-07 1.84538e-07 0)
(1.40689e-07 1.73709e-07 0)
(1.33538e-07 1.63321e-07 0)
(1.26037e-07 1.53402e-07 0)
(1.1824e-07 1.43959e-07 0)
(1.10162e-07 1.35009e-07 0)
(1.01849e-07 1.26544e-07 0)
(9.33099e-08 1.18566e-07 0)
(8.45875e-08 1.11056e-07 0)
(7.56907e-08 1.03992e-07 0)
(6.66637e-08 9.73111e-08 0)
(5.75298e-08 9.09071e-08 0)
(4.83522e-08 8.46478e-08 0)
(3.91815e-08 7.86791e-08 0)
(3.0038e-08 7.43141e-08 0)
(2.08113e-08 7.6055e-08 0)
(1.14156e-08 8.96857e-08 0)
(3.39824e-09 8.00171e-08 0)
(-7.73609e-09 5.45548e-07 0)
(-1.1255e-08 6.76299e-07 0)
(-1.5161e-08 6.46947e-07 0)
(-1.91555e-08 6.58781e-07 0)
(-2.32357e-08 6.74566e-07 0)
(-2.69909e-08 6.83184e-07 0)
(-3.02371e-08 6.88028e-07 0)
(-3.29989e-08 6.91517e-07 0)
(-3.5365e-08 6.94386e-07 0)
(-3.73724e-08 6.96806e-07 0)
(-3.90515e-08 6.98817e-07 0)
(-4.03882e-08 7.00439e-07 0)
(-4.13805e-08 7.01678e-07 0)
(-4.1995e-08 7.02534e-07 0)
(-4.22202e-08 7.02989e-07 0)
(-4.20182e-08 7.03028e-07 0)
(-4.13789e-08 7.02616e-07 0)
(-4.02663e-08 7.01723e-07 0)
(-3.8672e-08 7.00305e-07 0)
(-3.65613e-08 6.9833e-07 0)
(-3.39269e-08 6.9575e-07 0)
(-3.07364e-08 6.92535e-07 0)
(-2.6984e-08 6.88646e-07 0)
(-2.26406e-08 6.84064e-07 0)
(-1.77047e-08 6.78763e-07 0)
(-1.21587e-08 6.72736e-07 0)
(-6.01728e-09 6.65972e-07 0)
(7.15083e-10 6.58471e-07 0)
(8.0015e-09 6.5023e-07 0)
(1.58118e-08 6.41262e-07 0)
(2.40853e-08 6.31577e-07 0)
(3.27673e-08 6.21201e-07 0)
(4.17768e-08 6.10165e-07 0)
(5.10413e-08 5.98513e-07 0)
(6.0468e-08 5.86292e-07 0)
(6.99761e-08 5.7356e-07 0)
(7.94695e-08 5.60373e-07 0)
(8.88665e-08 5.46797e-07 0)
(9.80737e-08 5.3289e-07 0)
(1.07014e-07 5.18711e-07 0)
(1.15599e-07 5.04317e-07 0)
(1.2376e-07 4.89755e-07 0)
(1.31419e-07 4.75072e-07 0)
(1.38517e-07 4.60302e-07 0)
(1.44989e-07 4.45482e-07 0)
(1.50791e-07 4.30633e-07 0)
(1.5587e-07 4.15783e-07 0)
(1.60203e-07 4.00946e-07 0)
(1.63752e-07 3.86148e-07 0)
(1.66512e-07 3.71398e-07 0)
(1.68465e-07 3.56724e-07 0)
(1.69623e-07 3.42137e-07 0)
(1.69984e-07 3.27666e-07 0)
(1.69577e-07 3.13328e-07 0)
(1.68412e-07 2.99156e-07 0)
(1.6653e-07 2.85169e-07 0)
(1.63947e-07 2.71404e-07 0)
(1.60718e-07 2.57877e-07 0)
(1.56864e-07 2.44629e-07 0)
(1.52449e-07 2.31679e-07 0)
(1.47501e-07 2.19071e-07 0)
(1.42083e-07 2.06832e-07 0)
(1.3622e-07 1.95006e-07 0)
(1.29976e-07 1.83616e-07 0)
(1.23367e-07 1.72702e-07 0)
(1.16451e-07 1.62277e-07 0)
(1.09238e-07 1.52367e-07 0)
(1.01777e-07 1.42973e-07 0)
(9.4073e-08 1.34104e-07 0)
(8.61675e-08 1.25744e-07 0)
(7.80636e-08 1.17883e-07 0)
(6.98001e-08 1.10481e-07 0)
(6.13867e-08 1.03477e-07 0)
(5.28731e-08 9.6739e-08 0)
(4.42975e-08 9.01193e-08 0)
(3.57386e-08 8.37494e-08 0)
(2.7216e-08 7.90022e-08 0)