/*--------------------------------*- C++ -*----------------------------------*\
| =========                 |                                                 |
| \\      /  F ield         | OpenFOAM: The Open Source CFD Toolbox           |
|  \\    /   O peration     | Version:  2412                                  |
|   \\  /    A nd           | Website:  www.openfoam.com                      |
|    \\/     M anipulation  |                                                 |
\*---------------------------------------------------------------------------*/
FoamFile
{
    version     2.0;
    format      ascii;
    arch        "LSB;label=32;scalar=64";
    class       surfaceScalarField;
    location    "3.77";
    object      phi;
}
// * * * * * * * * * * * * * * * * * * * * * * * * * * * * * * * * * * * * * //

dimensions      [0 3 -1 0 0 0 0];

oriented        oriented;

internalField   nonuniform List<scalar> 
158920
(
-1.06064e-06
1.06064e-06
-1.96332e-06
8.90306e-07
-2.76657e-06
7.95773e-07
-3.57773e-06
8.10228e-07
-4.39275e-06
8.2065e-07
-5.20338e-06
8.22588e-07
-6.01009e-06
8.24555e-07
-6.81578e-06
8.2886e-07
-7.62358e-06
8.35619e-07
-8.43606e-06
8.44227e-07
-9.25505e-06
8.53919e-07
-1.00816e-05
8.63881e-07
-1.09159e-05
8.73381e-07
-1.1759e-05
8.83077e-07
-1.26109e-05
8.92176e-07
-1.34712e-05
9.00339e-07
-1.43397e-05
9.07698e-07
-1.52161e-05
9.14231e-07
-1.61e-05
9.20182e-07
-1.69907e-05
9.25097e-07
-1.78884e-05
9.29851e-07
-1.87927e-05
9.34196e-07
-1.97035e-05
9.38283e-07
-2.06206e-05
9.42236e-07
-2.15441e-05
9.46216e-07
-2.24742e-05
9.50545e-07
-2.34111e-05
9.5514e-07
-2.4355e-05
9.60092e-07
-2.53063e-05
9.65459e-07
-2.62652e-05
9.71302e-07
-2.72321e-05
9.77636e-07
-2.82073e-05
9.84503e-07
-2.91913e-05
9.91906e-07
-3.01844e-05
9.9986e-07
-3.11871e-05
1.00836e-06
-3.21997e-05
1.01741e-06
-3.32227e-05
1.02699e-06
-3.42565e-05
1.03709e-06
-3.53014e-05
1.0477e-06
-3.6358e-05
1.05879e-06
-3.74265e-05
1.07036e-06
-3.85074e-05
1.08238e-06
-3.96011e-05
1.09483e-06
-4.07079e-05
1.1077e-06
-4.18281e-05
1.12097e-06
-4.29622e-05
1.13465e-06
-4.41105e-05
1.14872e-06
-4.52734e-05
1.16317e-06
-4.64511e-05
1.17801e-06
-4.76442e-05
1.19322e-06
-4.88529e-05
1.20882e-06
-5.00777e-05
1.22479e-06
-5.13188e-05
1.24115e-06
-5.25767e-05
1.2579e-06
-5.38518e-05
1.27504e-06
-5.51445e-05
1.29259e-06
-5.64551e-05
1.31054e-06
-5.77841e-05
1.32891e-06
-5.91318e-05
1.34769e-06
-6.04989e-05
1.36691e-06
-6.18855e-05
1.38656e-06
-6.32923e-05
1.40665e-06
-6.47196e-05
1.42719e-06
-6.61679e-05
1.44819e-06
-6.76376e-05
1.46964e-06
-6.91293e-05
1.49155e-06
-7.06434e-05
1.51394e-06
-7.21803e-05
1.5368e-06
-7.37406e-05
1.56015e-06
-7.53247e-05
1.58399e-06
-7.69332e-05
1.60833e-06
-7.85665e-05
1.63317e-06
-8.02251e-05
1.65853e-06
-8.19097e-05
1.6844e-06
-8.36206e-05
1.71081e-06
-8.53585e-05
1.73775e-06
-8.71239e-05
1.76523e-06
-8.89173e-05
1.79328e-06
-9.07393e-05
1.82188e-06
-9.25905e-05
1.85105e-06
-9.44715e-05
1.88081e-06
-9.63828e-05
1.91114e-06
-9.8325e-05
1.94207e-06
-0.000100299
1.97361e-06
-0.000102305
2.00574e-06
-0.000104343
2.0385e-06
-0.000106415
2.07188e-06
-0.000108521
2.1059e-06
-0.000110662
2.14057e-06
-0.000112838
2.17589e-06
-0.00011505
2.21188e-06
-0.000117299
2.24854e-06
-0.000119585
2.28589e-06
-0.000121909
2.32394e-06
-0.000124272
2.36269e-06
-0.000126674
2.40215e-06
-0.000129117
2.44234e-06
-0.0001316
2.48326e-06
-0.000134125
2.52493e-06
-0.000136693
2.56735e-06
-0.000139304
2.61055e-06
-0.000141958
2.65452e-06
-0.000144658
2.69928e-06
-0.000147403
2.74485e-06
-0.000150194
2.79123e-06
-0.000153033
2.83844e-06
-0.00015592
2.88649e-06
-0.000158855
2.93538e-06
-0.000161841
2.98514e-06
-0.000164877
3.03576e-06
-0.000167964
3.08727e-06
-0.000171104
3.13968e-06
-0.000174297
3.193e-06
-0.000177545
3.24724e-06
-0.000180848
3.30241e-06
-0.000184206
3.35854e-06
-0.000187622
3.41563e-06
-0.000191096
3.4737e-06
-0.000194629
3.53276e-06
-0.000198222
3.59282e-06
-0.000201876
3.6539e-06
-0.000205593
3.71601e-06
-0.000209372
3.77917e-06
-0.000213216
3.84338e-06
-0.000217125
3.90866e-06
-0.0002211
3.97503e-06
-0.000225143
4.04251e-06
-0.000229254
4.1111e-06
-0.000233435
4.18082e-06
-0.000237687
4.2517e-06
-0.000242011
4.32374e-06
-0.000246409
4.39695e-06
-0.00025088
4.47136e-06
-0.000255427
4.54698e-06
-0.000260052
4.62382e-06
-0.000264754
4.70189e-06
-0.000269535
4.78122e-06
-0.000274397
4.86182e-06
-0.000279341
4.9437e-06
-0.000284369
5.02689e-06
-0.00028948
5.11139e-06
-0.000294678
5.19723e-06
-0.000299963
5.28442e-06
-0.000305336
5.37298e-06
-0.000310799
5.46291e-06
-0.000316354
5.55425e-06
-0.000322001
5.647e-06
-0.000327743
5.74119e-06
-0.00033358
5.83682e-06
-0.000339514
5.93392e-06
-0.000345547
6.03249e-06
-0.00035168
6.13256e-06
-0.000357915
6.23414e-06
-0.000364252
6.33725e-06
-0.000370695
6.4419e-06
-0.000377243
6.54811e-06
-0.0003839
6.65589e-06
-0.000390665
6.76527e-06
-0.000397542
6.87626e-06
-0.000404531
6.98887e-06
-0.000411635
7.10313e-06
-0.000418854
7.21905e-06
-0.000426191
7.33664e-06
-0.000433648
7.45592e-06
-0.000441225
7.5769e-06
-0.000448925
7.69959e-06
-0.00045675
7.82401e-06
-0.0004647
7.95016e-06
-0.000472779
8.07807e-06
-0.000480987
8.20776e-06
-0.000489327
8.33923e-06
-0.0004978
8.47249e-06
-0.000506408
8.60758e-06
-0.000515153
8.74449e-06
-0.000524037
8.88325e-06
-0.000533061
9.02385e-06
-0.000542228
9.16631e-06
-0.000551539
9.31063e-06
-0.000560996
9.45683e-06
-0.000570602
9.60492e-06
-0.000580357
9.75491e-06
-0.000590265
9.9068e-06
-0.000600326
1.00606e-05
-0.000610543
1.02163e-05
-0.000620917
1.0374e-05
-0.000631451
1.05336e-05
-0.000642147
1.06951e-05
-0.000653006
1.08586e-05
-0.000664031
1.1024e-05
-0.000675223
1.11913e-05
-0.000686584
1.13606e-05
-0.000698117
1.15319e-05
-0.000709822
1.17051e-05
-0.000721703
1.18803e-05
-0.000733761
1.20574e-05
-0.000745998
1.22364e-05
-0.000758416
1.24174e-05
-0.000771017
1.26003e-05
-0.000783803
1.27851e-05
-0.000796776
1.29719e-05
-0.000809937
1.31606e-05
-0.000823289
1.33511e-05
-0.000836833
1.35435e-05
-0.000850572
1.37378e-05
-0.000864506
1.3934e-05
-0.000878639
1.4132e-05
-0.000892971
1.43317e-05
-0.000907505
1.45333e-05
-0.000922243
1.47367e-05
-0.000937185
1.49418e-05
-0.000952335
1.51486e-05
-0.000967692
1.53571e-05
-0.00098326
1.55672e-05
-0.00099904
1.5779e-05
-0.00101503
1.59924e-05
-0.00103124
1.62074e-05
-0.00104767
1.64238e-05
-0.00106431
1.66417e-05
-0.00108117
1.68611e-05
-0.00109825
1.70818e-05
-0.00111556
1.73039e-05
-0.00113309
1.75273e-05
-0.00115084
1.77519e-05
-0.00116882
1.79776e-05
-0.00118702
1.82045e-05
-0.00120546
1.84324e-05
-0.00122412
1.86614e-05
-0.00124301
1.88912e-05
-0.00126213
1.91219e-05
-0.00128149
1.93534e-05
-0.00130107
1.95856e-05
-0.00132089
1.98184e-05
-0.00134095
2.00517e-05
-0.00136123
2.02854e-05
-0.00138175
2.05195e-05
-0.00140251
2.07539e-05
-0.0014235
2.09884e-05
-0.00144472
2.12229e-05
-0.00146618
2.14574e-05
-0.00148787
2.16918e-05
-0.0015098
2.19258e-05
-0.00153196
2.21595e-05
-0.00155435
2.23926e-05
-0.00157698
2.26251e-05
-0.00159984
2.28568e-05
-0.00162292
2.30876e-05
-0.00164624
2.33173e-05
-0.00166979
2.35457e-05
-0.00169356
2.37729e-05
-0.00171756
2.39984e-05
-0.00174179
2.42223e-05
-0.00176623
2.44443e-05
-0.0017909
2.46643e-05
-0.00181578
2.48821e-05
-0.00184088
2.50975e-05
-0.00186619
2.53103e-05
-0.00189171
2.55204e-05
-0.00191744
2.57275e-05
-0.00194337
2.59313e-05
-0.00196951
2.61319e-05
-0.00199584
2.63287e-05
-0.00202236
2.65218e-05
-0.00204907
2.67108e-05
-0.00207597
2.68955e-05
-0.00210304
2.70756e-05
-0.0021303
2.72509e-05
-0.00215772
2.74212e-05
-0.0021853
2.75861e-05
-0.00221305
2.77455e-05
-0.00224095
2.7899e-05
-0.002269
2.80463e-05
-0.00229719
2.81872e-05
-0.00232551
2.83214e-05
-0.00235396
2.84486e-05
-0.00238253
2.85684e-05
-0.00241121
2.86806e-05
-0.00243999
2.87848e-05
-0.00246888
2.88807e-05
-0.00249784
2.8968e-05
-0.00252689
2.90462e-05
-0.00255601
2.91151e-05
-0.00258518
2.91742e-05
-0.00261441
2.92232e-05
-0.00264367
2.92617e-05
-0.00267296
2.92893e-05
-0.00270226
2.93056e-05
-0.00273158
2.93101e-05
-0.00276088
2.93025e-05
-0.00279016
2.92823e-05
-0.00281941
2.92492e-05
-0.00284862
2.92025e-05
-0.00287776
2.9142e-05
-0.00290683
2.90671e-05
-0.00293581
2.89774e-05
-0.00296468
2.88723e-05
-0.00299343
2.87515e-05
-0.00302205
2.86144e-05
-0.00305051
2.84606e-05
-0.0030788
2.82894e-05
-0.0031069
2.81005e-05
-0.00313479
2.78932e-05
-0.00316246
2.76671e-05
-0.00318988
2.74215e-05
-0.00321704
2.7156e-05
-0.00324391
2.68699e-05
-0.00327047
2.65627e-05
-0.00329671
2.62337e-05
-0.00332259
2.58825e-05
-0.0033481
2.55082e-05
-0.00337321
2.51104e-05
-0.0033979
2.46884e-05
-0.00342214
2.42416e-05
-0.00344591
2.37694e-05
-0.00346918
2.32711e-05
-0.00349193
2.2746e-05
-0.00351412
2.21937e-05
-0.00353573
2.16134e-05
-0.00355674
2.10044e-05
-0.0035771
2.03662e-05
-0.0035968
1.96981e-05
-0.0036158
1.89994e-05
-0.00363407
1.82695e-05
-0.00365158
1.75076e-05
-0.00366829
1.67132e-05
-0.00368418
1.58855e-05
-0.0036992
1.50239e-05
-0.00371333
1.41277e-05
-0.00372653
1.31964e-05
-0.00373875
1.22292e-05
-0.00374998
1.12255e-05
-0.00376016
1.01848e-05
-0.00376927
9.10637e-06
-0.00377726
7.98975e-06
-0.00378409
6.83441e-06
-0.00378973
5.63991e-06
-0.00379413
4.40593e-06
-0.00379726
3.13232e-06
-0.00379908
1.81956e-06
-0.00379955
4.69812e-07
-0.0037986
-9.48277e-07
-0.00379622
-2.38398e-06
-0.00379236
-3.86335e-06
-0.00378698
-5.37986e-06
-0.00378004
-6.93246e-06
-0.00377151
-8.53531e-06
-0.00376132
-1.01866e-05
-0.00374946
-1.1859e-05
-0.00373587
-1.35813e-05
-0.00372052
-1.53496e-05
-0.00370337
-1.71482e-05
-0.00368439
-1.89819e-05
-0.00366353
-2.08555e-05
-0.00364076
-2.27723e-05
-0.00361604
-2.47113e-05
-0.00358936
-2.66844e-05
-0.00356067
-2.86881e-05
-0.00352994
-3.07255e-05
-0.00349716
-3.27783e-05
-0.00346231
-3.48531e-05
-0.00342536
-3.69482e-05
-0.00338629
-3.90646e-05
-0.0033451
-4.11907e-05
-0.00330178
-4.33199e-05
-0.00325632
-4.54587e-05
-0.00320872
-4.76019e-05
-0.00315896
-4.97484e-05
-0.00310708
-5.18845e-05
-0.00305306
-5.40134e-05
-0.00299693
-5.6132e-05
-0.00293869
-5.82366e-05
-0.00287836
-6.03252e-05
-0.00281598
-6.23861e-05
-0.00275155
-6.44209e-05
-0.00268513
-6.64267e-05
-0.00261672
-6.83998e-05
-0.00254638
-7.03392e-05
-0.00247415
-7.22359e-05
-0.00240006
-7.4087e-05
-0.00232416
-7.58952e-05
-0.0022465
-7.76578e-05
-0.00216713
-7.93726e-05
-0.00208609
-8.10352e-05
-0.00200345
-8.26423e-05
-0.00191925
-8.41975e-05
-0.00183355
-8.56989e-05
-0.0017464
-8.71454e-05
-0.00165787
-8.85373e-05
-0.001568
-8.9869e-05
-0.00147685
-9.11456e-05
-0.00138448
-9.23664e-05
-0.00129095
-9.35311e-05
-0.00119631
-9.46412e-05
-0.00110061
-9.56921e-05
-0.00100393
-9.66857e-05
-0.000906301
-9.76259e-05
-0.000807789
-9.85117e-05
-0.000708444
-9.93436e-05
-0.000608325
-0.000100118
-0.000507496
-0.000100829
-0.000406029
-0.000101467
-0.000303933
-0.000102096
-0.000201184
-0.000102748
-9.7842e-05
-0.000103342
6.00304e-06
-0.000103845
0.000110293
-0.000104289
0.000214989
-0.000104695
0.000320068
-0.000105078
0.000425514
-0.000105444
0.000531213
-0.000105698
0.000637053
-0.000105839
0.000742998
-0.000105944
0.000849012
-0.000106013
0.000955051
-0.000106037
0.00106106
-0.000106009
0.00116699
-0.000105931
0.0012728
-0.000105803
0.00137842
-0.000105622
0.00148381
-0.000105388
0.00158891
-0.000105095
0.00169365
-0.000104742
0.00179798
-0.000104331
0.00190184
-0.000103858
0.00200516
-0.000103322
0.00210788
-0.000102718
0.00220992
-0.000102045
0.00231122
-0.000101299
0.0024117
-0.000100479
0.00251128
-9.9576e-05
0.00260988
-9.85957e-05
0.00270741
-9.7534e-05
0.00280379
-9.63821e-05
0.00289891
-9.51154e-05
0.00299273
-9.38191e-05
0.00308513
-9.2409e-05
0.00317599
-9.08609e-05
0.00326522
-8.9226e-05
0.0033527
-8.74823e-05
0.00343833
-8.56335e-05
0.00352201
-8.36759e-05
0.00360361
-8.16046e-05
0.00368303
-7.94208e-05
0.00376015
-7.71224e-05
0.00383486
-7.47073e-05
0.00390703
-7.21631e-05
0.00397653
-6.95002e-05
0.00404325
-6.6721e-05
0.00410705
-6.38065e-05
0.00416785
-6.07891e-05
0.00422549
-5.76418e-05
0.00427988
-5.43852e-05
0.00433088
-5.10014e-05
0.00437836
-4.74863e-05
0.00442222
-4.38522e-05
0.0044623
-4.00782e-05
0.0044985
-3.61972e-05
0.00453074
-3.224e-05
0.00455885
-2.8116e-05
0.00458272
-2.38652e-05
0.00460225
-1.95259e-05
0.00461734
-1.50924e-05
0.00462789
-1.05556e-05
0.0046338
-5.90946e-06
0.00463499
-1.18302e-06
0.00463119
3.79779e-06
0.00462252
8.66664e-06
0.00460888
1.36455e-05
0.00459015
1.87251e-05
0.0045663
2.3852e-05
0.00453727
2.90285e-05
0.00450304
3.42262e-05
0.00446358
3.94675e-05
0.00441885
4.473e-05
0.00436886
4.99879e-05
0.00431362
5.52381e-05
0.00425316
6.04618e-05
0.00418753
6.56269e-05
0.00411678
7.07498e-05
0.00404101
7.577e-05
0.0039603
8.07111e-05
0.00387476
8.55453e-05
0.00378452
9.02367e-05
0.00368972
9.47968e-05
0.00359055
9.91711e-05
0.00348716
0.000103398
0.00337974
0.000107413
0.00326852
0.000111224
0.00315373
0.000114793
0.0030356
0.000118123
0.00291441
0.000121196
0.00279041
0.000123994
0.00266391
0.000126507
0.00253518
0.000128729
0.00240453
0.000130653
0.00227227
0.000132256
0.00213871
0.000133561
0.00200418
0.000134534
0.00186899
0.00013519
0.00173349
0.000135502
0.00159801
0.000135483
0.00146288
0.000135129
0.00132846
0.000134423
0.00119507
0.000133381
0.00106305
0.000132022
0.00093269
0.000130363
0.000804314
0.000128375
0.00067821
0.000126105
0.000554717
0.000123493
0.000434124
0.000120593
0.000316725
0.000117399
0.000202705
0.000114021
9.22609e-05
0.000110444
-1.43082e-05
0.00010657
-0.000116758
0.00010245
-0.000214966
9.82083e-05
-0.000308444
9.34784e-05
-0.000397324
8.88783e-05
-0.000481275
8.39498e-05
-0.000560114
7.88374e-05
-0.000633838
7.37223e-05
-0.000702067
6.82265e-05
-0.000764937
6.28675e-05
-0.000822392
5.74504e-05
-0.000874288
5.18926e-05
-0.000920562
4.62716e-05
-0.000961208
4.06458e-05
-0.000996302
3.50938e-05
-0.00102573
2.9425e-05
-0.00104962
2.38845e-05
-0.00106801
1.83874e-05
-0.00108096
1.29587e-05
-0.00108882
7.85934e-06
-0.00109158
2.76986e-06
-0.00108937
-2.20012e-06
-0.00108244
-6.93152e-06
-0.0010709
-1.15332e-05
-0.00105511
-1.57828e-05
-0.00103521
-1.98969e-05
-0.00101155
-2.36649e-05
-0.000984265
-2.7286e-05
-0.000953607
-3.06635e-05
-0.000919838
-3.37735e-05
-0.000883211
-3.66306e-05
-0.000843976
-3.92359e-05
-0.000802328
-4.16463e-05
-0.000758596
-4.37308e-05
-0.000713038
-4.55565e-05
-0.000665955
-4.70814e-05
-0.000617589
-4.83639e-05
-0.000568221
-4.93657e-05
-0.000518168
-5.00547e-05
-0.000467729
-5.0449e-05
-0.000417278
-5.04635e-05
-0.00036707
-5.02157e-05
-0.000317616
-4.94528e-05
-0.000269033
-4.85735e-05
-0.000221643
-4.73808e-05
-0.000175722
-4.59175e-05
-0.000131483
-4.42433e-05
-8.9186e-05
-4.23048e-05
-4.91299e-05
-4.00627e-05
-1.16112e-05
-3.75214e-05
2.32587e-05
-3.48694e-05
5.53284e-05
-3.20678e-05
8.44055e-05
-2.90751e-05
0.000110322
-2.59148e-05
0.000132967
-2.26429e-05
0.000152571
-1.96033e-05
0.000168888
-1.63172e-05
0.000181641
-1.27542e-05
0.000191165
-9.52692e-06
0.000197276
-6.11201e-06
0.000199965
-2.6887e-06
0.000199301
6.64669e-07
0.000195577
3.72416e-06
0.000188555
7.02219e-06
0.000178108
1.04449e-05
0.000164362
1.37449e-05
0.000146769
1.75915e-05
0.000125565
2.1203e-05
9.87299e-05
2.68353e-05
7.36235e-05
2.51072e-05
6.98966e-05
3.72774e-06
7.3443e-05
-3.54644e-06
5.35165e-05
1.99253e-05
2.36354e-05
2.98793e-05
-6.34094e-06
2.99747e-05
-2.90826e-05
2.27407e-05
-2.95586e-05
4.75625e-07
-3.31317e-05
3.57317e-06
-5.80435e-05
2.49127e-05
-8.75569e-05
2.95157e-05
-0.00011186
2.43063e-05
-0.000132463
2.06046e-05
-0.000149453
1.69896e-05
-0.00016311
1.36552e-05
-0.000173417
1.03048e-05
-0.00018021
6.79074e-06
-0.000183768
3.5558e-06
-0.000183494
-2.76752e-07
-0.00017943
-4.06637e-06
-0.000171797
-7.63394e-06
-0.00016058
-1.12159e-05
-0.000145647
-1.49301e-05
-0.000126986
-1.86582e-05
-0.000104387
-2.2598e-05
-7.79857e-05
-2.64002e-05
-4.84689e-05
-2.95169e-05
-1.54199e-05
-3.30496e-05
2.07272e-05
-3.61482e-05
6.00461e-05
-3.93211e-05
0.000102232
-4.21897e-05
0.000146835
-4.46054e-05
0.000193673
-4.68403e-05
0.000242385
-4.87129e-05
0.000292675
-5.02917e-05
0.000344247
-5.15731e-05
0.000396636
-5.23878e-05
0.000449628
-5.29891e-05
0.000502697
-5.30642e-05
0.000555475
-5.27754e-05
0.000607633
-5.2159e-05
0.000658801
-5.1169e-05
0.000708697
-4.98974e-05
0.000756863
-4.81657e-05
0.000803034
-4.61712e-05
0.000846789
-4.37549e-05
0.00088782
-4.10316e-05
0.000925888
-3.80687e-05
0.000960633
-3.4744e-05
0.000991792
-3.11555e-05
0.00101897
-2.71794e-05
0.001042
-2.30201e-05
0.00106051
-1.85124e-05
0.00107418
-1.36728e-05
0.0010828
-8.62267e-06
0.0010859
-3.09774e-06
0.00108342
2.48123e-06
0.00107504
8.37358e-06
0.00106053
1.45089e-05
0.00103962
2.09157e-05
0.00101249
2.71249e-05
0.000978702
3.37951e-05
0.000938267
4.04377e-05
0.000891568
4.67009e-05
0.000837924
5.36455e-05
0.000777843
6.0083e-05
0.000711053
6.67903e-05
0.000637963
7.3089e-05
0.000558544
7.94176e-05
0.000472445
8.60968e-05
0.000380777
9.16677e-05
0.00028303
9.7746e-05
0.000179576
0.000103454
7.06633e-05
0.000108913
-4.34823e-05
0.000114148
-0.000162582
0.000119102
-0.000286221
0.000123642
-0.0004141
0.000127882
-0.000546038
0.00013194
-0.000681736
0.0001357
-0.000820798
0.000139063
-0.00096282
0.000142022
-0.00110737
0.000144548
-0.00125404
0.000146675
-0.00140236
0.000148316
-0.00155189
0.000149532
-0.00170222
0.000150334
-0.00185292
0.0001507
-0.00200357
0.000150651
-0.00215363
0.000150062
-0.00230265
0.000149021
-0.00245016
0.000147508
-0.00259574
0.000145574
-0.00273889
0.000143154
-0.00287926
0.000140365
-0.00301633
0.00013707
-0.00314974
0.000133412
-0.00327905
0.000129306
-0.00340389
0.000124841
-0.00352389
0.000119999
-0.00363872
0.000114825
-0.00374807
0.000109352
-0.00385165
0.000103579
-0.00394917
9.75222e-05
-0.00404039
9.12227e-05
-0.00412507
8.46771e-05
-0.00420305
7.79821e-05
-0.00427418
7.1133e-05
-0.00433831
6.4129e-05
-0.0043953
5.69913e-05
-0.00444513
4.98327e-05
-0.0044877
4.25761e-05
-0.00452305
3.53474e-05
-0.00455114
2.80934e-05
-0.00457206
2.09154e-05
-0.00458591
1.38503e-05
-0.00459276
6.85442e-06
-0.0045925
-2.57156e-07
-0.00458541
-7.09394e-06
-0.00457161
-1.37954e-05
-0.00455134
-2.02766e-05
-0.00452472
-2.66151e-05
-0.00449194
-3.27822e-05
-0.00445318
-3.87614e-05
-0.00440862
-4.45556e-05
-0.00435844
-5.01822e-05
-0.00430288
-5.5558e-05
-0.00424214
-6.07448e-05
-0.00417645
-6.56874e-05
-0.00410601
-7.04418e-05
-0.00403109
-7.49205e-05
-0.00395184
-7.92501e-05
-0.00386844
-8.34018e-05
-0.00378106
-8.73813e-05
-0.00368993
-9.11219e-05
-0.00359529
-9.464e-05
-0.00349737
-9.79216e-05
-0.00339639
-0.000100985
-0.00329244
-0.000103946
-0.00318572
-0.000106721
-0.00307646
-0.000109255
-0.00296481
-0.000111642
-0.00285098
-0.000113834
-0.00273511
-0.000115864
-0.00261744
-0.000117674
-0.00249809
-0.000119352
-0.00237711
-0.000120974
-0.00225479
-0.000122317
-0.00213129
-0.000123499
-0.00200677
-0.000124523
-0.00188135
-0.000125421
-0.00175517
-0.000126179
-0.00162831
-0.000126853
-0.00150093
-0.000127379
-0.00137331
-0.00012762
-0.00124541
-0.000127906
-0.00111738
-0.000128021
-0.000989382
-0.000128004
-0.00086152
-0.000127863
-0.000733827
-0.000127694
-0.000606395
-0.000127433
-0.000479364
-0.000127032
-0.000352903
-0.000126462
-0.000227184
-0.000125721
-0.000102185
-0.000125
2.18599e-05
-0.000124046
0.000145099
-0.000123241
0.000267389
-0.000122291
0.00038858
-0.000121192
0.000508611
-0.000120034
0.000627547
-0.000118939
0.000745335
-0.000117789
0.000861885
-0.000116552
0.000977112
-0.000115228
0.00109092
-0.000113809
0.00120326
-0.000112341
0.00131407
-0.000110807
0.00142326
-0.000109195
0.00153079
-0.000107522
0.00163656
-0.000105775
0.00174049
-0.000103925
0.00184248
-0.000101993
0.00194246
-9.99793e-05
0.00204034
-9.78783e-05
0.00213604
-9.56997e-05
0.00222949
-9.34494e-05
0.00232061
-9.11138e-05
0.0024093
-8.86885e-05
0.00249549
-8.61924e-05
0.00257912
-8.3632e-05
0.0026601
-8.09777e-05
0.00273835
-7.82519e-05
0.00281381
-7.54523e-05
0.0028864
-7.25929e-05
0.00295607
-6.96745e-05
0.00302279
-6.67142e-05
0.00308648
-6.36924e-05
0.00314711
-6.06318e-05
0.00320467
-5.75518e-05
0.00325911
-5.44462e-05
0.00331043
-5.13152e-05
0.00335858
-4.81507e-05
0.00340357
-4.49878e-05
0.00344539
-4.18168e-05
0.00348404
-3.86555e-05
0.00351956
-3.55171e-05
0.00355194
-3.23765e-05
0.00358122
-2.92841e-05
0.00360745
-2.62266e-05
0.00363064
-2.31908e-05
0.00365086
-2.02126e-05
0.00366813
-1.72737e-05
0.00368253
-1.43973e-05
0.00369412
-1.15994e-05
0.00370296
-8.83317e-06
0.00370912
-6.16498e-06
0.0037127
-3.57534e-06
0.00371373
-1.02338e-06
0.00371229
1.43405e-06
0.00370849
3.80325e-06
0.0037024
6.0972e-06
0.00369409
8.30906e-06
0.00368365
1.04407e-05
0.00367116
1.24969e-05
0.00365668
1.44732e-05
0.00364032
1.63682e-05
0.00362213
1.81843e-05
0.00360221
1.99237e-05
0.00358062
2.1591e-05
0.00355743
2.31888e-05
0.00353271
2.4718e-05
0.00350653
2.61787e-05
0.00347895
2.75734e-05
0.00345005
2.89039e-05
0.00341988
3.01691e-05
0.00338851
3.1371e-05
0.003356
3.25079e-05
0.00332242
3.35798e-05
0.00328783
3.45915e-05
0.00325229
3.55418e-05
0.00321586
3.64308e-05
0.0031786
3.72591e-05
0.00314058
3.80274e-05
0.00310184
3.87353e-05
0.00306246
3.93847e-05
0.00302248
3.99771e-05
0.00298196
4.05136e-05
0.00294097
4.09949e-05
0.00289954
4.14215e-05
0.00285775
4.17934e-05
0.00281564
4.21118e-05
0.00277327
4.23778e-05
0.00273067
4.25941e-05
0.0026879
4.2764e-05
0.00264501
4.28901e-05
0.00260204
4.2974e-05
0.00255902
4.30157e-05
0.00251601
4.30159e-05
0.00247303
4.29764e-05
0.00243013
4.28993e-05
0.00238734
4.27882e-05
0.00234469
4.26449e-05
0.00230222
4.24712e-05
0.00225996
4.22675e-05
0.00221792
4.20352e-05
0.00217615
4.17765e-05
0.00213465
4.14934e-05
0.00209346
4.11873e-05
0.0020526
4.08596e-05
0.00201209
4.05121e-05
0.00197194
4.01468e-05
0.00193218
3.97645e-05
0.00189282
3.93656e-05
0.00185387
3.89503e-05
0.00181535
3.85202e-05
0.00177727
3.80777e-05
0.00173965
3.76248e-05
0.00170248
3.71624e-05
0.00166579
3.66912e-05
0.00162959
3.62113e-05
0.00159386
3.57234e-05
0.00155864
3.52278e-05
0.00152391
3.47255e-05
0.00148969
3.42179e-05
0.00145599
3.37063e-05
0.0014228
3.31918e-05
0.00139012
3.26747e-05
0.00135797
3.21551e-05
0.00132634
3.16333e-05
0.00129523
3.11098e-05
0.00126464
3.05855e-05
0.00123458
3.00612e-05
0.00120504
2.95379e-05
0.00117603
2.9016e-05
0.00114753
2.84955e-05
0.00111956
2.79766e-05
0.0010921
2.74595e-05
0.00106515
2.69447e-05
0.00103872
2.64328e-05
0.00101279
2.59243e-05
0.000987375
2.54195e-05
0.000962457
2.49187e-05
0.000938036
2.4422e-05
0.000914107
2.39296e-05
0.000890665
2.34418e-05
0.000867706
2.29587e-05
0.000845224
2.24807e-05
0.000823216
2.2008e-05
0.000801675
2.15409e-05
0.000780596
2.10794e-05
0.000759972
2.06236e-05
0.000739799
2.01738e-05
0.000720069
1.97298e-05
0.000700777
1.9292e-05
0.000681917
1.88603e-05
0.000663481
1.84349e-05
0.000645465
1.80158e-05
0.000627862
1.76031e-05
0.000610665
1.71969e-05
0.000593867
1.67974e-05
0.000577463
1.64044e-05
0.000561445
1.6018e-05
0.000545807
1.56381e-05
0.000530542
1.52648e-05
0.000515644
1.48981e-05
0.000501106
1.4538e-05
0.000486922
1.41844e-05
0.000473084
1.38374e-05
0.000459587
1.3497e-05
0.000446423
1.3163e-05
0.000433588
1.28355e-05
0.000421073
1.25145e-05
0.000408873
1.21998e-05
0.000396981
1.18915e-05
0.000385392
1.15895e-05
0.000374098
1.12937e-05
0.000363093
1.10041e-05
0.000352373
1.07206e-05
0.000341929
1.04432e-05
0.000331757
1.01718e-05
0.000321851
9.90625e-06
0.000312204
9.6466e-06
0.000302811
9.39273e-06
0.000293666
9.14457e-06
0.000284764
8.90206e-06
0.000276099
8.66509e-06
0.000267665
8.43361e-06
0.000259457
8.20753e-06
0.00025147
7.98679e-06
0.000243699
7.77131e-06
0.000236138
7.561e-06
0.000228782
7.35579e-06
0.000221626
7.15558e-06
0.000214666
6.96028e-06
0.000207896
6.76985e-06
0.000201311
6.58421e-06
0.000194908
6.40328e-06
0.000188681
6.22697e-06
0.000182625
6.05519e-06
0.000176737
5.88786e-06
0.000171012
5.72492e-06
0.000165446
5.56628e-06
0.000160034
5.41188e-06
0.000154772
5.26164e-06
0.000149657
5.11548e-06
0.000144683
4.97331e-06
0.000139848
4.83507e-06
0.000135147
4.7007e-06
0.000130577
4.57013e-06
0.000126133
4.44328e-06
0.000121813
4.32009e-06
0.000117613
4.20048e-06
0.000113528
4.08438e-06
0.000109556
3.97173e-06
0.000105694
3.86247e-06
0.000101937
3.75654e-06
9.82831e-05
3.65389e-06
9.47286e-05
3.55444e-06
9.12704e-05
3.45812e-06
8.79054e-05
3.36487e-06
8.46307e-05
3.27464e-06
8.14432e-05
3.18738e-06
7.83401e-05
3.10306e-06
7.53184e-05
3.0216e-06
7.23754e-05
2.94295e-06
6.95083e-05
2.86706e-06
6.67143e-05
2.79389e-06
6.39909e-05
2.72338e-06
6.13353e-05
2.65551e-06
5.8745e-05
2.59022e-06
5.62175e-05
2.52747e-06
5.37502e-05
2.4672e-06
5.13408e-05
2.40937e-06
4.89868e-05
2.35396e-06
4.66858e-05
2.30092e-06
4.44355e-05
2.25023e-06
4.22336e-05
2.20186e-06
4.00778e-05
2.15577e-06
3.79658e-05
2.11194e-06
3.58954e-05
2.07033e-06
3.38645e-05
2.03089e-06
3.18708e-05
1.99361e-06
2.99123e-05
1.95848e-06
2.79868e-05
1.92548e-06
2.60921e-05
1.89458e-06
2.42263e-05
1.86575e-06
2.23873e-05
1.83899e-06
2.0573e-05
1.81427e-06
1.87814e-05
1.79158e-06
1.70104e-05
1.77089e-06
1.52582e-05
1.75222e-06
1.35226e-05
1.73553e-06
1.18017e-05
1.72084e-06
1.00936e-05
1.70814e-06
8.39612e-06
1.6974e-06
6.70751e-06
1.68858e-06
5.02564e-06
1.68183e-06
3.34834e-06
1.67726e-06
1.67388e-06
1.67442e-06
1.67384e-06
-4.1913e-07
1.49159e-06
-1.3861e-06
1.86803e-06
-2.3909e-06
1.80163e-06
-3.32318e-06
1.7339e-06
-4.20877e-06
1.68789e-06
-5.06367e-06
1.64971e-06
-5.90407e-06
1.62843e-06
-6.73762e-06
1.61804e-06
-7.56959e-06
1.61648e-06
-8.40284e-06
1.62078e-06
-9.23898e-06
1.629e-06
-1.0079e-05
1.63969e-06
-1.09236e-05
1.65185e-06
-1.17731e-05
1.6655e-06
-1.26277e-05
1.67988e-06
-1.34878e-05
1.6947e-06
-1.43539e-05
1.70978e-06
-1.5226e-05
1.72489e-06
-1.61047e-05
1.74046e-06
-1.69898e-05
1.75527e-06
-1.78817e-05
1.77047e-06
-1.87805e-05
1.78551e-06
-1.96856e-05
1.8e-06
-2.05983e-05
1.81537e-06
-2.1518e-05
1.83029e-06
-2.2445e-05
1.84559e-06
-2.33795e-05
1.86118e-06
-2.43216e-05
1.87714e-06
-2.52717e-05
1.89351e-06
-2.62301e-05
1.91037e-06
-2.71969e-05
1.92775e-06
-2.81724e-05
1.9457e-06
-2.91571e-05
1.96424e-06
-3.01512e-05
1.98341e-06
-3.1155e-05
2.00324e-06
-3.21688e-05
2.02374e-06
-3.31931e-05
2.04494e-06
-3.42281e-05
2.06684e-06
-3.52743e-05
2.08944e-06
-3.63319e-05
2.11276e-06
-3.74014e-05
2.13681e-06
-3.84831e-05
2.16157e-06
-3.95774e-05
2.18705e-06
-4.06847e-05
2.21325e-06
-4.18053e-05
2.24016e-06
-4.29395e-05
2.26779e-06
-4.40879e-05
2.29613e-06
-4.52507e-05
2.32519e-06
-4.64284e-05
2.35497e-06
-4.76212e-05
2.38549e-06
-4.88296e-05
2.41675e-06
-5.0054e-05
2.44875e-06
-5.12948e-05
2.48151e-06
-5.25522e-05
2.51504e-06
-5.38268e-05
2.54935e-06
-5.5119e-05
2.58446e-06
-5.64291e-05
2.62038e-06
-5.77576e-05
2.65712e-06
-5.91048e-05
2.6947e-06
-6.04713e-05
2.73313e-06
-6.18574e-05
2.77243e-06
-6.32636e-05
2.81261e-06
-6.46903e-05
2.85369e-06
-6.6138e-05
2.89566e-06
-6.76071e-05
2.93856e-06
-6.90982e-05
2.98238e-06
-7.06116e-05
3.02714e-06
-7.21479e-05
3.07286e-06
-7.37076e-05
3.11955e-06
-7.5291e-05
3.16722e-06
-7.68988e-05
3.21589e-06
-7.85315e-05
3.26556e-06
-8.01895e-05
3.31627e-06
-8.18733e-05
3.36801e-06
-8.35836e-05
3.42081e-06
-8.53208e-05
3.47469e-06
-8.70855e-05
3.52966e-06
-8.88782e-05
3.58573e-06
-9.06995e-05
3.64293e-06
-9.255e-05
3.70127e-06
-9.44302e-05
3.76076e-06
-9.63408e-05
3.82142e-06
-9.82823e-05
3.88327e-06
-0.000100255
3.94631e-06
-0.00010226
4.01058e-06
-0.000104298
4.07608e-06
-0.00010637
4.14283e-06
-0.000108475
4.21086e-06
-0.000110615
4.28018e-06
-0.00011279
4.35081e-06
-0.000115001
4.42278e-06
-0.000117249
4.49609e-06
-0.000119534
4.57078e-06
-0.000121857
4.64685e-06
-0.000124219
4.72434e-06
-0.000126621
4.80325e-06
-0.000129063
4.88361e-06
-0.000131545
4.96544e-06
-0.000134069
5.04876e-06
-0.000136636
5.1336e-06
-0.000139246
5.21997e-06
-0.000141899
5.30791e-06
-0.000144598
5.39742e-06
-0.000147342
5.48854e-06
-0.000150132
5.58129e-06
-0.00015297
5.67569e-06
-0.000155856
5.77177e-06
-0.00015879
5.86954e-06
-0.000161775
5.96903e-06
-0.000164809
6.07027e-06
-0.000167896
6.17327e-06
-0.000171035
6.27807e-06
-0.000174227
6.38468e-06
-0.000177473
6.49315e-06
-0.000180775
6.60348e-06
-0.000184132
6.71572e-06
-0.000187547
6.82988e-06
-0.00019102
6.946e-06
-0.000194552
7.0641e-06
-0.000198143
7.18421e-06
-0.000201796
7.30635e-06
-0.000205511
7.43055e-06
-0.000209289
7.55684e-06
-0.000213132
7.68524e-06
-0.000217039
7.81579e-06
-0.000221013
7.94851e-06
-0.000225055
8.08344e-06
-0.000229165
8.2206e-06
-0.000233345
8.36004e-06
-0.000237595
8.50176e-06
-0.000241918
8.64582e-06
-0.000246314
8.79223e-06
-0.000250784
8.94102e-06
-0.00025533
9.09223e-06
-0.000259952
9.24588e-06
-0.000264653
9.40201e-06
-0.000269433
9.56064e-06
-0.000274294
9.72181e-06
-0.000279236
9.88555e-06
-0.000284262
1.00519e-05
-0.000289372
1.02209e-05
-0.000294568
1.03925e-05
-0.000299851
1.05669e-05
-0.000305222
1.0744e-05
-0.000310684
1.09238e-05
-0.000316237
1.11065e-05
-0.000321882
1.12919e-05
-0.000327622
1.14803e-05
-0.000333458
1.16715e-05
-0.00033939
1.18657e-05
-0.000345421
1.20628e-05
-0.000351552
1.22629e-05
-0.000357785
1.24661e-05
-0.000364121
1.26722e-05
-0.000370561
1.28815e-05
-0.000377107
1.30939e-05
-0.000383762
1.33094e-05
-0.000390525
1.35282e-05
-0.0003974
1.37501e-05
-0.000404387
1.39753e-05
-0.000411489
1.42038e-05
-0.000418706
1.44356e-05
-0.000426041
1.46708e-05
-0.000433495
1.49093e-05
-0.00044107
1.51512e-05
-0.000448768
1.53965e-05
-0.00045659
1.56453e-05
-0.000464539
1.58976e-05
-0.000472615
1.61534e-05
-0.000480821
1.64127e-05
-0.000489158
1.66756e-05
-0.000497628
1.69422e-05
-0.000506234
1.72123e-05
-0.000514977
1.74861e-05
-0.000523858
1.77635e-05
-0.00053288
1.80447e-05
-0.000542044
1.83296e-05
-0.000551352
1.86182e-05
-0.000560807
1.89106e-05
-0.00057041
1.92067e-05
-0.000580163
1.95066e-05
-0.000590067
1.98104e-05
-0.000600126
2.01179e-05
-0.00061034
2.04294e-05
-0.000620711
2.07446e-05
-0.000631243
2.10638e-05
-0.000641935
2.13868e-05
-0.000652792
2.17137e-05
-0.000663813
2.20445e-05
-0.000675002
2.23792e-05
-0.00068636
2.27177e-05
-0.00069789
2.30602e-05
-0.000709592
2.34066e-05
-0.00072147
2.37569e-05
-0.000733525
2.41111e-05
-0.000745759
2.44691e-05
-0.000758174
2.4831e-05
-0.000770771
2.51968e-05