/*--------------------------------*- C++ -*----------------------------------*\
| =========                 |                                                 |
| \\      /  F ield         | OpenFOAM: The Open Source CFD Toolbox           |
|  \\    /   O peration     | Version:  2412                                  |
|   \\  /    A nd           | Website:  www.openfoam.com                      |
|    \\/     M anipulation  |                                                 |
\*---------------------------------------------------------------------------*/
FoamFile
{
    version     2.0;
    format      ascii;
    arch        "LSB;label=32;scalar=64";
    class       volScalarField;
    location    "1.88";
    object      p;
}
// * * * * * * * * * * * * * * * * * * * * * * * * * * * * * * * * * * * * * //

dimensions      [1 -1 -2 0 0 0 0];

internalField   nonuniform List<scalar> 
80000
(
29032.9
29032.9
29032.9
29032.9
29032.9
29032.9
29032.9
29032.9
29032.9
29032.9
29032.9
29032.9
29032.9
29032.9
29032.9
29032.9
29032.9
29032.9
29032.9
29032.9
29032.9
29032.9
29032.9
29032.9
29032.9
29033
29033
29033
29033
29033
29033
29033
29033
29033
29033
29033
29033
29033
29033
29033
29033
29033
29033
29033
29033
29033
29033
29033.1
29033.1
29033.1
29033.1
29033.1
29033.1
29033.1
29033.1
29033.1
29033.1
29033.1
29033.1
29033.1
29033.2
29033.2
29033.2
29033.2
29033.2
29033.2
29033.2
29033.2
29033.2
29033.2
29033.3
29033.3
29033.3
29033.3
29033.3
29033.3
29033.3
29033.3
29033.4
29033.4
29033.4
29033.4
29033.4
29033.4
29033.5
29033.5
29033.5
29033.5
29033.5
29033.5
29033.6
29033.6
29033.6
29033.6
29033.6
29033.7
29033.7
29033.7
29033.7
29033.8
29033.8
29033.8
29033.8
29033.9
29033.9
29033.9
29033.9
29034
29034
29034
29034.1
29034.1
29034.1
29034.2
29034.2
29034.2
29034.3
29034.3
29034.3
29034.4
29034.4
29034.4
29034.5
29034.5
29034.6
29034.6
29034.7
29034.7
29034.8
29034.8
29034.9
29034.9
29035
29035
29035.1
29035.1
29035.2
29035.2
29035.3
29035.4
29035.4
29035.5
29035.6
29035.6
29035.7
29035.8
29035.8
29035.9
29036
29036.1
29036.1
29036.2
29036.3
29036.4
29036.5
29036.6
29036.7
29036.8
29036.9
29037
29037.1
29037.2
29037.3
29037.4
29037.5
29037.6
29037.7
29037.8
29038
29038.1
29038.2
29038.4
29038.5
29038.6
29038.8
29038.9
29039.1
29039.2
29039.4
29039.5
29039.7
29039.9
29040
29040.2
29040.4
29040.6
29040.8
29041
29041.2
29041.4
29041.6
29041.8
29042
29042.2
29042.5
29042.7
29042.9
29043.2
29043.4
29043.7
29044
29044.2
29044.5
29044.8
29045.1
29045.4
29045.7
29046
29046.3
29046.7
29047
29047.3
29047.7
29048.1
29048.4
29048.8
29049.2
29049.6
29050
29050.4
29050.8
29051.3
29051.7
29052.2
29052.7
29053.1
29053.6
29054.1
29054.7
29055.2
29055.7
29056.3
29056.9
29057.5
29058.1
29058.7
29059.3
29059.9
29060.6
29061.3
29062
29062.7
29063.4
29064.1
29064.9
29065.7
29066.5
29067.3
29068.1
29069
29069.8
29070.7
29071.7
29072.6
29073.6
29074.6
29075.6
29076.6
29077.7
29078.7
29079.9
29081
29082.2
29083.4
29084.6
29085.8
29087.1
29088.4
29089.8
29091.1
29092.5
29094
29095.5
29097
29098.5
29100.1
29101.7
29103.4
29105.1
29106.8
29108.6
29110.4
29112.3
29114.2
29116.2
29118.2
29120.2
29122.3
29124.5
29126.7
29128.9
29131.2
29133.6
29136
29138.5
29141
29143.6
29146.2
29148.9
29151.7
29154.5
29157.5
29160.4
29163.5
29166.6
29169.8
29173
29176.4
29179.8
29183.3
29186.8
29190.5
29194.2
29198
29202
29206
29210.1
29214.2
29218.5
29222.9
29227.4
29232
29236.7
29241.5
29246.4
29251.4
29256.5
29261.7
29267.1
29272.6
29278.2
29283.9
29289.8
29295.8
29301.9
29308.2
29314.6
29321.1
29327.8
29334.6
29341.6
29348.8
29356.1
29363.5
29371.1
29378.9
29386.9
29395
29403.3
29411.8
29420.5
29429.3
29438.3
29447.6
29457
29466.6
29476.4
29486.5
29496.7
29507.2
29517.8
29528.7
29539.9
29551.2
29562.8
29574.6
29586.7
29599
29611.5
29624.3
29637.4
29650.7
29664.2
29678.1
29692.2
29706.5
29721.2
29736.1
29751.4
29766.9
29782.7
29798.8
29815.2
29831.9
29848.9
29866.2
29883.8
29901.8
29920
29938.6
29957.4
29976.7
29996.2
30016.1
30036.3
30056.9
30077.7
30099
30120.5
30142.5
30164.7
30187.3
30210.2
30233.5
30257.1
30281
30305.3
30329.9
30354.9
30380.2
30405.8
30431.8
30458.1
30484.7
30511.7
30538.9
30566.4
30594.3
30622.4
30650.8
30679.5
30708.4
30737.6
30767
30796.6
30826.5
30856.6
30886.8
30917.3
30947.9
30978.6
31009.4
31040.3
31071.3
31102.4
31133.4
31164.5
31195.5
31226.5
31257.4
31288.2
31318.9
31349.4
31379.7
31409.9
31439.8
31469.4
31498.6
31527.6
31556.1
31584.2
31611.9
31639
31665.6
31691.7
31717.2
31742
31766.2
31789.6
31812.3
31834.3
31855.4
31875.7
31895.1
31913.5
31931
31947.5
31962.9
31977.3
31990.5
32002.6
32013.5
32023.2
32031.5
32038.6
32044.3
32048.5
32051.4
32052.8
32052.7
32051
32047.7
32042.8
32036.3
32028.1
32018.1
32006.4
31993
31977.7
31960.6
31941.6
31920.7
31898
31873.3
31846.7
31818.2
31787.7
31755.4
31721
31684.8
31646.7
31606.7
31564.9
31521.2
31475.7
31428.5
31379.4
31328.7
31276.4
31222.5
31167.1
31110.2
31051.9
30992.3
30931.5
30869.6
30806.7
30742.7
30677.7
30612.2
30546.2
30479.6
30412.7
30345.4
30278.1
30211.1
30144.4
30077.7
30011.6
29946.1
29881.4
29817.7
29755.2
29694
29634.3
29576.4
29520.4
29466.4
29414.8
29365.7
29319.2
29275.5
29234.8
29197.3
29163
29132.2
29104.9
29081.4
29061.7
29046
29034.2
29026.5
29022.9
29023.3
29027.8
29036.2
29048.6
29064.9
29084.9
29108.4
29135.3
29165.3
29198.3
29233.8
29271.6
29311.4
29352.8
29395.4
29438.9
29482.8
29526.8
29570.3
29612.9
29654.2
29693.8
29731.3
29766.2
29798.3
29827.1
29852.4
29873.8
29891.5
29905
29914.3
29919
29919
29914.3
29905.1
29891.5
29873.6
29851.9
29826.3
29797
29764.3
29728.6
29690.3
29649.8
29607.4
29563.7
29519
29473.9
29428.8
29384.1
29340.2
29297.7
29256.9
29218.3
29182.1
29148.7
29118.5
29091.7
29068.5
29049.3
29034.1
29023
29016.3
29013.9
29016
29022.6
29033.5
29048.9
29068.6
29092.5
29120.6
29152.8
29188.8
29228.6
29271.9
29318.6
29368.4
29421.3
29476.9
29535.1
29595.5
29658.1
29722.6
29788.8
29856.5
29925.4
29995.3
30066.1
30137.4
30208.9
30280.9
30353.3
30425.5
30497.3
30568.6
30639.3
30709.5
30779
30847.1
30914
30979.5
31043.7
31106.3
31167.3
31226.5
31283.9
31339.3
31392.8
31444.2
31493.5
31540.6
31585.6
31628.2
31668.6
31706.7
31742.4
31775.8
31806.9
31835.7
31862.1
31886.2
31908
31927.4
31944.7
31959.7
31972.5
31983.1
31991.6
31998
32002.4
32004.8
32005.3
32003.8
32000.5
31995.3
31988.4
31979.8
31969.6
31957.7
31944.2
31929.3
31912.8
31895
31875.8
31855.3
31833.5
31810.6
31786.4
31761.1
31734.7
31707.3
31679
31649.7
31619.5
31588.5
31556.8
31524.4
31491.2
31457.5
31423.2
31388.5
31353.2
31317.5
31281.5
31245.2
31208.6
31171.7
31134.8
31097.7
31060.5
31023.4
30986.2
30949
30912
30875.1
30838.3
30801.8
30765.4
30729.3
30693.5
30658
30622.8
30587.9
30553.5
30519.4
30485.7
30452.5
30419.7
30387.3
30355.5
30324.1
30293.1
30262.7
30232.7
30203.3
30174.3
30145.8
30117.9
30090.4
30063.5
30037
30011.1
29985.7
29960.8
29936.4
29912.5
29889.1
29866.2
29843.8
29821.8
29800.4
29779.4
29758.9
29738.8
29719.2
29700
29681.3
29663.1
29645.3
29627.9
29610.9
29594.4
29578.2
29562.5
29547.1
29532.1
29517.5
29503.3
29489.4
29475.9
29462.8
29449.9
29437.5
29425.3
29413.5
29402
29390.8
29379.9
29369.3
29359
29349
29339.3
29329.8
29320.6
29311.6
29302.9
29294.5
29286.2
29278.3
29270.5
29263
29255.7
29248.6
29241.7
29235
29228.5
29222.2
29216.1
29210.1
29204.4
29198.8
29193.4
29188.1
29183
29178.1
29173.3
29168.6
29164.1
29159.8
29155.5
29151.4
29147.5
29143.6
29139.9
29136.3
29132.8
29129.4
29126.2
29123
29119.9
29116.9
29114.1
29111.3
29108.6
29106
29103.4
29101
29098.6
29096.3
29094.1
29092
29089.9
29087.9
29086
29084.1
29082.3
29080.6
29078.9
29077.2
29075.7
29074.1
29072.7
29071.2
29069.9
29068.5
29067.3
29066
29064.8
29063.7
29062.5
29061.5
29060.4
29059.4
29058.5
29057.5
29056.6
29055.7
29054.9
29054.1
29053.3
29052.5
29051.8
29051.1
29050.4
29049.8
29049.1
29048.5
29047.9
29047.4
29046.8
29046.3
29045.8
29045.3
29044.8
29044.4
29043.9
29043.5
29043.1
29042.7
29042.3
29042
29041.6
29041.3
29040.9
29040.6
29040.3
29040
29039.8
29039.5
29039.2
29039
29038.7
29038.5
29038.3
29038.1
29037.8
29037.6
29037.5
29037.3
29037.1
29036.9
29036.8
29036.6
29036.4
29036.3
29036.2
29036
29035.9
29035.8
29035.6
29035.5
29035.4
29035.3
29035.2
29035.1
29035
29034.9
29034.8
29034.7
29034.7
29034.6
29034.5
29034.4
29034.4
29034.3
29034.2
29034.2
29034.1
29034.1
29034
29034
29033.9
29033.9
29033.8
29033.8
29033.7
29033.7
29033.6
29033.6
29033.6
29033.5
29033.5
29033.5
29033.4
29033.4
29033.4
29033.4
29033.3
29033.3
29033.3
29033.3
29033.2
29033.2
29033.2
29033.2
29033.2
29033.1
29033.1
29033.1
29033.1
29033.1
29033.1
29033.1
29033
29033
29033
29033
29033
29033
29033
29033
29033
29033
29033
29033
29032.9
29032.9
29032.9
29032.9
29032.9
29032.9
29032.9
29032.9
29032.9
29032.9
29032.9
29032.9
28297.2
28297.2
28297.2
28297.2
28297.2
28297.2
28297.2
28297.2
28297.2
28297.2
28297.2
28297.2
28297.2
28297.2
28297.2
28297.2
28297.2
28297.2
28297.2
28297.2
28297.2
28297.2
28297.2
28297.2
28297.2
28297.2
28297.2
28297.2
28297.2
28297.2
28297.2
28297.2
28297.2
28297.2
28297.2
28297.2
28297.2
28297.2
28297.3
28297.3
28297.3
28297.3
28297.3
28297.3
28297.3
28297.3
28297.3
28297.3
28297.3
28297.3
28297.3
28297.3
28297.3
28297.3
28297.4
28297.4
28297.4
28297.4
28297.4
28297.4
28297.4
28297.4
28297.4
28297.4
28297.4
28297.4
28297.5
28297.5
28297.5
28297.5
28297.5
28297.5
28297.5
28297.5
28297.6
28297.6
28297.6
28297.6
28297.6
28297.6
28297.6
28297.7
28297.7
28297.7
28297.7
28297.7
28297.7
28297.8
28297.8
28297.8
28297.8
28297.8
28297.8
28297.9
28297.9
28297.9
28297.9
28298
28298
28298
28298
28298.1
28298.1
28298.1
28298.1
28298.2
28298.2
28298.2
28298.2
28298.3
28298.3
28298.3
28298.4
28298.4
28298.4
28298.5
28298.5
28298.5
28298.6
28298.6
28298.7
28298.7
28298.7
28298.8
28298.8
28298.9
28298.9
28299
28299
28299.1
28299.1
28299.2
28299.2
28299.3
28299.3
28299.4
28299.4
28299.5
28299.5
28299.6
28299.7
28299.7
28299.8
28299.9
28299.9
28300
28300.1
28300.2
28300.2
28300.3
28300.4
28300.5
28300.6
28300.6
28300.7
28300.8
28300.9
28301
28301.1
28301.2
28301.3
28301.4
28301.5
28301.6
28301.7
28301.9
28302
28302.1
28302.2
28302.3
28302.5
28302.6
28302.7
28302.9
28303
28303.2
28303.3
28303.5
28303.6
28303.8
28303.9
28304.1
28304.3
28304.5
28304.6
28304.8
28305
28305.2
28305.4
28305.6
28305.8
28306
28306.3
28306.5
28306.7
28306.9
28307.2
28307.4
28307.7
28307.9
28308.2
28308.5
28308.8
28309
28309.3
28309.6
28309.9
28310.2
28310.6
28310.9
28311.2
28311.6
28311.9
28312.3
28312.7
28313
28313.4
28313.8
28314.2
28314.7
28315.1
28315.5
28316
28316.4
28316.9
28317.4
28317.9
28318.4
28318.9
28319.4
28320
28320.5
28321.1
28321.7
28322.3
28322.9
28323.5
28324.2
28324.8
28325.5
28326.2
28326.9
28327.6
28328.4
28329.1
28329.9
28330.7
28331.5
28332.3
28333.2
28334.1
28335
28335.9
28336.8
28337.8
28338.8
28339.8
28340.8
28341.9
28343
28344.1
28345.2
28346.4
28347.6
28348.8
28350
28351.3
28352.6
28354
28355.3
28356.7
28358.2
28359.7
28361.2
28362.7
28364.3
28365.9
28367.6
28369.3
28371
28372.8
28374.6
28376.5
28378.4
28380.3
28382.4
28384.4
28386.5
28388.6
28390.8
28393.1
28395.4
28397.8
28400.2
28402.6
28405.2
28407.7
28410.4
28413.1
28415.9
28418.7
28421.6
28424.6
28427.6
28430.7
28433.9
28437.2
28440.5
28443.9
28447.4
28451
28454.6
28458.4
28462.2
28466.1
28470.1
28474.2
28478.4
28482.6
28487
28491.5
28496.1
28500.8
28505.6
28510.5
28515.5
28520.6
28525.8
28531.2
28536.7
28542.3
28548
28553.9
28559.8
28566
28572.2
28578.6
28585.2
28591.9
28598.7
28605.7
28612.8
28620.1
28627.6
28635.2
28643
28650.9
28659
28667.3
28675.8
28684.5
28693.3
28702.3
28711.6
28721
28730.6
28740.4
28750.4
28760.7
28771.1
28781.8
28792.7
28803.8
28815.2
28826.7
28838.6
28850.6
28862.9
28875.4
28888.2
28901.3
28914.6
28928.1
28942
28956.1
28970.4
28985.1
29000
29015.3
29030.8
29046.6
29062.7
29079.1
29095.8
29112.8
29130.1
29147.7
29165.6
29183.8
29202.4
29221.3
29240.5
29260
29279.9
29300.1
29320.7
29341.6
29362.8
29384.4
29406.3
29428.5
29451.1
29474
29497.3
29520.9
29544.9
29569.1
29593.8
29618.7
29644
29669.7
29695.6
29721.9
29748.6
29775.5
29802.8
29830.3
29858.1
29886.3
29914.7
29943.4
29972.3
30001.5
30030.9
30060.6
30090.5
30120.6
30150.8
30181.3
30211.9
30242.6
30273.5
30304.4
30335.5
30366.5
30397.6
30428.7
30459.7
30490.8
30521.7
30552.5
30583.3
30613.8
30644.2
30674.4
30704.3
30733.9
30763.2
30792.2
30820.8
30848.9
30876.6
30903.8
30930.5
30956.6
30982.1
31006.9
31031.2
31054.7
31077.4
31099.4
31120.6
31140.9
31160.3
31178.8
31196.4
31212.9
31228.4
31242.8
31256.1
31268.2
31279.1
31288.8
31297.2
31304.3
31310
31314.3
31317.2
31318.7
31318.6
31316.9
31313.7
31308.9
31302.4
31294.2
31284.2
31272.6
31259.1
31243.8
31226.7
31207.7
31186.9
31164.1
31139.4
31112.8
31084.2
31053.8
31021.3
30987
30950.7
30912.5
30872.5
30830.6
30786.8
30741.2
30693.9
30644.8
30594
30541.5
30487.5
30431.9
30374.9
30316.5
30256.8
30195.9
30133.9
30070.7
30006.6
29941.6
29876
29809.7
29743
29675.9
29608.5
29541.1
29473.8
29406.8
29340
29273.7
29208.1
29143.3
29079.4
29016.7
28955.4
28895.6
28837.5
28781.3
28727.3
28675.6
28626.3
28579.7
28536
28495.2
28457.5
28423.2
28392.3
28365
28341.5
28321.8
28306.1
28294.3
28286.6
28283
28283.5
28288.1
28296.6
28309.1
28325.6
28345.7
28369.4
28396.5
28426.7
28459.8
28495.6
28533.6
28573.7
28615.3
28658.2
28702
28746.2
28790.4
28834.1
28877
28918.6
28958.4
28996.1
29031.2
29063.4
29092.4
29117.8
29139.5
29157.3
29170.8
29179.9
29184.5
29184.6
29180
29170.9
29157.3
29139.3
29117.4
29091.6
29062.1
29029.3
28993.4
28954.9
28914.1
28871.5
28827.5
28782.6
28737.2
28691.8
28646.8
28602.7
28560
28518.9
28480
28443.6
28410
28379.6
28352.6
28329.3
28309.9
28294.5
28283.4
28276.5
28274.1
28276.2
28282.7
28293.6
28309
28328.7
28352.7
28380.8
28413
28449.1
28488.9
28532.3
28579.1
28629.1
28682.1
28737.8
28796.1
28856.8
28919.5
28984.2
29050.5
29118.3
29187.4
29257.5
29328.4
29399.9
29471.8
29544
29616.5
29688.8
29760.7
29832.3
29903.2
29973.6
30043
30111.3
30178.4
30244.1
30308.4
30371.1
30432.2
30491.6
30549.1
30604.7
30658.2
30709.7
30759.1
30806.3
30851.3
30894
30934.5
30972.6
31008.4
31041.9
31073
31101.7
31128.1
31152.2
31174
31193.5
31210.7
31225.7
31238.5
31249.1
31257.5
31263.9
31268.3
31270.6
31271
31269.5
31266.2
31261
31254.1
31245.4
31235.1
31223.2
31209.7
31194.7
31178.2
31160.3
31141.1
31120.5
31098.7
31075.7
31051.5
31026.1
30999.7
30972.3
30943.8
30914.5
30884.3
30853.3
30821.5
30789
30755.9
30722.1
30687.8
30653
30617.7
30582
30545.9
30509.5
30472.9
30436
30399
30361.9
30324.7
30287.5
30250.3
30213.1
30176.1
30139.1
30102.3
30065.8
30029.4
29993.3
29957.4
29921.9
29886.7
29851.8
29817.3
29783.3
29749.6
29716.3
29683.5
29651.2
29619.3
29587.9
29556.9
29526.5
29496.5
29467.1
29438.1
29409.7
29381.7
29354.2
29327.3
29300.8
29274.9
29249.5
29224.6
29200.2
29176.3
29152.9
29130
29107.6
29085.7
29064.3
29043.3
29022.8
29002.7
28983.1
28964
28945.3
28927
28909.2
28891.8
28874.9
28858.3
28842.2
28826.4
28811.1
28796.1
28781.5
28767.3
28753.4
28739.9
28726.8
28713.9
28701.5
28689.3
28677.5
28666
28654.8
28644
28633.4
28623.1
28613.1
28603.3
28593.8
28584.6
28575.7
28567
28558.5
28550.3
28542.3
28534.6
28527.1
28519.8
28512.7
28505.8
28499.1
28492.6
28486.3
28480.2
28474.3
28468.5
28462.9
28457.5
28452.3
28447.2
28442.2
28437.4
28432.8
28428.3
28423.9
28419.7
28415.6
28411.6
28407.8
28404.1
28400.5
28397
28393.6
28390.3
28387.2
28384.1
28381.1
28378.2
28375.5
28372.8
28370.2
28367.6
28365.2
28362.8
28360.5
28358.3
28356.2
28354.1
28352.1
28350.2
28348.3
28346.5
28344.8
28343.1
28341.5
28339.9
28338.4
28336.9
28335.5
28334.1
28332.8
28331.5
28330.2
28329
28327.9
28326.8
28325.7
28324.7
28323.6
28322.7
28321.7
28320.8
28320
28319.1
28318.3
28317.5
28316.8
28316
28315.3
28314.7
28314
28313.4
28312.8
28312.2
28311.6
28311.1
28310.5
28310
28309.5
28309.1
28308.6
28308.2
28307.7
28307.3
28306.9
28306.6
28306.2
28305.8
28305.5
28305.2
28304.9
28304.6
28304.3
28304
28303.7
28303.5
28303.2
28303
28302.7
28302.5
28302.3
28302.1
28301.9
28301.7
28301.5
28301.3
28301.2
28301
28300.8
28300.7
28300.5
28300.4
28300.3
28300.1
28300
28299.9
28299.8
28299.7
28299.6
28299.4
28299.4
28299.3
28299.2
28299.1
28299
28298.9
28298.8
28298.8
28298.7
28298.6
28298.5
28298.5
28298.4
28298.4
28298.3
28298.3
28298.2
28298.1
28298.1
28298.1
28298
28298
28297.9
28297.9
28297.9
28297.8
28297.8
28297.7
28297.7
28297.7
28297.7
28297.6
28297.6
28297.6
28297.6
28297.5
28297.5
28297.5
28297.5
28297.4
28297.4
28297.4
28297.4
28297.4
28297.4
28297.3
28297.3
28297.3
28297.3
28297.3
28297.3
28297.3
28297.3
28297.3
28297.2
28297.2
28297.2
28297.2
28297.2
28297.2
28297.2
28297.2
28297.2
28297.2
28297.2
28297.2
28297.2
28297.2
28297.2
28297.2
28297.2
28297.2
28297.2
27561.4
27561.4
27561.4
27561.4
27561.4
27561.4
27561.4
27561.4
27561.4
27561.4
27561.4
27561.4
27561.4
27561.4
27561.4
27561.4
27561.4
27561.4
27561.4
27561.4
27561.4
27561.4
27561.4
27561.4
27561.4
27561.5
27561.5
27561.5
27561.5
27561.5
27561.5
27561.5
27561.5
27561.5
27561.5
27561.5
27561.5
27561.5
27561.5
27561.5
27561.5
27561.5
27561.5
27561.5
27561.5
27561.5
27561.5
27561.6
27561.6
27561.6
27561.6
27561.6
27561.6
27561.6
27561.6
27561.6
27561.6
27561.6
27561.6
27561.6
27561.6
27561.7
27561.7
27561.7
27561.7
27561.7
27561.7
27561.7
27561.7
27561.7
27561.8
27561.8
27561.8
27561.8
27561.8
27561.8
27561.8
27561.8
27561.9
27561.9
27561.9
27561.9
27561.9
27561.9
27561.9
27562
27562
27562
27562
27562
27562.1
27562.1
27562.1
27562.1
27562.1
27562.2
27562.2
27562.2
27562.2
27562.3
27562.3
27562.3
27562.3
27562.4
27562.4
27562.4
27562.4
27562.5
27562.5
27562.5
27562.6
27562.6
27562.6
27562.6
27562.7
27562.7
27562.8
27562.8
27562.8
27562.9
27562.9
27562.9
27563
27563
27563.1
27563.1
27563.2
27563.2
27563.3
27563.3
27563.3
27563.4
27563.5
27563.5
27563.6
27563.6
27563.7
27563.7
27563.8
27563.9
27563.9
27564
27564
27564.1
27564.2
27564.3
27564.3
27564.4
27564.5
27564.6
27564.6
27564.7
27564.8
27564.9
27565
27565.1
27565.2
27565.3
27565.3
27565.4
27565.5
27565.7
27565.8
27565.9
27566
27566.1
27566.2
27566.3
27566.5
27566.6
27566.7
27566.8
27567
27567.1
27567.3
27567.4
27567.6
27567.7
27567.9
27568
27568.2
27568.4
27568.5
27568.7
27568.9
27569.1
27569.3
27569.4
27569.6
27569.8
27570.1
27570.3
27570.5
27570.7
27570.9
27571.2
27571.4
27571.7
27571.9
27572.2
27572.4
27572.7
27573
27573.3
27573.6
27573.9
27574.2
27574.5
27574.8
27575.1
27575.5
27575.8
27576.2
27576.5
27576.9
27577.3
27577.7
27578.1
27578.5
27578.9
27579.3
27579.7
27580.2
27580.6
27581.1
27581.6
27582.1
27582.6
27583.1
27583.6
27584.2
27584.7
27585.3
27585.9
27586.5
27587.1
27587.7
27588.4
27589
27589.7
27590.4
27591.1
27591.8
27592.6
27593.3
27594.1
27594.9
27595.7
27596.5
27597.4
27598.3
27599.2
27600.1
27601
27602
27603
27604
27605
27606.1
27607.1
27608.2
27609.4
27610.5
27611.7
27612.9
27614.2
27615.5
27616.8
27618.1
27619.5
27620.9
27622.3
27623.8
27625.3
27626.9
27628.4
27630.1
27631.7
27633.4
27635.2
27636.9
27638.7
27640.6
27642.5
27644.5
27646.5
27648.5
27650.6
27652.8
27655
27657.2
27659.5
27661.9
27664.3
27666.7
27669.2
27671.8
27674.5
27677.2
27679.9
27682.8
27685.7
27688.6
27691.7
27694.8
27698
27701.2
27704.5
27708
27711.4
27715
27718.7
27722.4
27726.2
27730.1
27734.1
27738.2
27742.4
27746.6
27751
27755.5
27760.1
27764.7
27769.5
27774.4
27779.4
27784.5
27789.8
27795.1
27800.6
27806.2
27811.9
27817.8
27823.8
27829.9
27836.1
27842.5
27849
27855.7
27862.6
27869.5
27876.7
27883.9
27891.4
27899
27906.8
27914.7
27922.8
27931.1
27939.6
27948.3
27957.1
27966.1
27975.3
27984.7
27994.3
28004.2
28014.2
28024.4
28034.8
28045.5
28056.4
28067.5
28078.8
28090.4
28102.2
28114.2
28126.5
28139.1
28151.8
28164.9
28178.2
28191.7
28205.6
28219.6
28234
28248.7
28263.6
28278.8
28294.3
28310.1
28326.2
28342.6
28359.2
28376.2
28393.5
28411.1
28429.1
28447.3
28465.8
28484.7
28503.9
28523.5
28543.3
28563.5
28584.1
28605
28626.2
28647.8
28669.7
28691.9
28714.5
28737.4
28760.7
28784.3
28808.2
28832.5
28857.2
28882.1
28907.4
28933.1
28959.1
28985.4
29012
29039
29066.2
29093.8
29121.6
29149.8
29178.2
29206.9
29235.9
29265.1
29294.6
29324.2
29354.2
29384.3
29414.6
29445.1
29475.7
29506.5
29537.4
29568.4
29599.5
29630.6
29661.7
29692.9
29724
29755.1
29786.1
29817
29847.8
29878.4
29908.8
29939.1
29969.1
29998.8
30028.2
30057.2
30085.8
30114
30141.8
30169.1
30195.8
30222
30247.6
30272.6
30296.9
30320.5
30343.3
30365.4
30386.7
30407.1
30426.6
30445.2
30462.8
30479.4
30494.9
30509.4
30522.8
30535
30546
30555.8
30564.3
30571.4
30577.2
30581.7
30584.6
30586.1
30586.1
30584.6
30581.4
30576.6
30570.2
30562.1
30552.2
30540.5
30527.1
30511.8
30494.7
30475.7
30454.9
30432.1
30407.3
30380.7
30352.1
30321.5
30289.1
30254.6
30218.3
30180
30139.8
30097.7
30053.8
30008
29960.5
29911.2
29860.2
29807.6
29753.3
29697.5
29640.3
29581.6
29521.6
29460.4
29398.1
29334.6
29270.2
29205
29139.1
29072.5
29005.4
28938
28870.4
28802.6
28735
28667.6
28600.5
28533.9
28467.9
28402.7
28338.6
28275.6
28214
28153.9
28095.5
28039.2
27984.9
27932.9
27883.4
27836.6
27792.6
27751.6
27713.9
27679.4
27648.4
27621.1
27597.5
27577.8
27562
27550.3
27542.7
27539.2
27539.8
27544.5
27553.3
27566.1
27582.7
27603.1
27627.1
27654.6
27685.2
27718.7
27754.9
27793.4
27833.9
27876.1
27919.6
27963.8
28008.6
28053.3
28097.5
28140.9
28183
28223.2
28261.3
28296.8
28329.4
28358.7
28384.4
28406.4
28424.4
28438
28447.1
28451.8
28451.8
28447.2
28438.1
28424.4
28406.3
28384
28357.9
28328.1
28294.9
28258.6
28219.7
28178.4
28135.4
28090.9
28045.4
27999.5
27953.5
27908
27863.4
27820.1
27778.6
27739.2
27702.3
27668.4
27637.6
27610.2
27586.6
27566.9
27551.3
27539.9
27532.9
27530.3
27532.3
27538.7
27549.6
27565
27584.7
27608.7
27637
27669.3
27705.5
27745.5
27789.1
27836.1
27886.3
27939.5
27995.5
28054.1
28115
28178.1
28243
28309.7
28377.8
28447.2
28517.6
28588.9
28660.8
28733.1
28805.8
28878.5
28951.1
29023.5
29095.4
29166.7
29237.3
29307
29375.6
29442.9
29509
29573.6
29636.6
29697.9
29757.5
29815.3
29871.1
29924.9
29976.6
30026.1
30073.5
30118.6
30161.5
30202
30240.3
30276.1
30309.6
30340.8
30369.6
30396
30420.1
30441.9
30461.3
30478.5
30493.5
30506.2
30516.7
30525.2
30531.5
30535.8
30538
30538.4
30536.8
30533.3
30528
30521
30512.3
30501.9
30489.9
30476.3
30461.2
30444.7
30426.7
30407.4
30386.7
30364.8
30341.6
30317.3
30291.9
30265.4
30237.9
30209.4
30180
30149.7
30118.6
30086.7
30054.2
30020.9
29987.1
29952.7
29917.7
29882.3
29846.6
29810.4
29774
29737.3
29700.3
29663.3
29626.1
29588.8
29551.6
29514.3
29477.1
29439.9
29402.9
29366.1
29329.5
29293.1
29256.9
29221
29185.5
29150.2
29115.4
29080.9
29046.7
29013
28979.8
28946.9
28914.6
28882.7
28851.3
28820.4
28789.9
28759.9
28730.5
28701.5
28673.1
28645.1
28617.6
28590.7
28564.3
28538.3
28512.9
28488.1
28463.7
28439.8
28416.4
28393.5
28371.1
28349.2
28327.8
28306.8
28286.3
28266.2
28246.6
28227.5
28208.8
28190.6
28172.8
28155.4
28138.5
28121.9
28105.8
28090.1
28074.7
28059.8
28045.2
28031
28017.1
28003.6
27990.5
27977.7
27965.2
27953.1
27941.3
27929.8
27918.7
27907.8
27897.2
27886.9
27876.9
27867.2
27857.7
27848.5
27839.6
27830.9
27822.4
27814.2
27806.3
27798.5
27791
27783.7
27776.6
27769.7
27763.1
27756.6
27750.3
27744.2
27738.3
27732.5
27726.9
27721.5
27716.3
27711.2
27706.3
27701.5
27696.8
27692.4
27688
27683.8
27679.7
27675.7
27671.9
27668.2
27664.6
27661.1
27657.7
27654.4
27651.3
27648.2
27645.2
27642.4
27639.6
27636.9
27634.3
27631.8
27629.3
27627
27624.7
27622.5
27620.4
27618.3
27616.3
27614.4
27612.5
27610.7
27609
27607.3
27605.6
27604.1
27602.5
27601.1
27599.7
27598.3
27597
27595.7
27594.4
27593.2
27592.1
27591
27589.9
27588.9
27587.9
27586.9
27586
27585
27584.2
27583.3
27582.5
27581.7
27581
27580.3
27579.6
27578.9
27578.2
27577.6
27577
27576.4
27575.8
27575.3
27574.8
27574.3
27573.8
27573.3
27572.8
27572.4
27572
27571.6
27571.2
27570.8
27570.4
27570.1
27569.7
27569.4
27569.1
27568.8
27568.5
27568.2
27568
27567.7
27567.5
27567.2
27567
27566.8
27566.5
27566.3
27566.1
27565.9
27565.8
27565.6
27565.4
27565.2
27565.1
27564.9
27564.8
27564.6
27564.5
27564.4
27564.3
27564.1
27564
27563.9
27563.8
27563.7
27563.6
27563.5
27563.4
27563.3
27563.2
27563.2
27563.1
27563
27562.9
27562.9
27562.8
27562.7
27562.7
27562.6
27562.6
27562.5
27562.4
27562.4
27562.3
27562.3
27562.3
27562.2
27562.2
27562.1
27562.1
27562.1
27562
27562
27562
27561.9
27561.9
27561.9
27561.9
27561.8
27561.8
27561.8
27561.8
27561.7
27561.7
27561.7
27561.7
27561.7
27561.6
27561.6
27561.6
27561.6
27561.6
27561.6
27561.6
27561.5
27561.5
27561.5
27561.5
27561.5
27561.5
27561.5
27561.5
27561.5
27561.5
27561.5
27561.5
27561.4
27561.4
27561.4
27561.4
27561.4
27561.4
27561.4
27561.4
27561.4
27561.4
27561.4
27561.4
26825.7
26825.7
26825.7
26825.7
26825.7
26825.7
26825.7
26825.7
26825.7
26825.7
26825.7
26825.7
26825.7
26825.7
26825.7
26825.7
26825.7
26825.7
26825.7
26825.7
26825.7
26825.7
26825.7
26825.7
26825.7
26825.7
26825.7
26825.7
26825.7
26825.7
26825.7
26825.7
26825.7
26825.7
26825.7
26825.7
26825.7
26825.7
26825.7
26825.8
26825.8
26825.8
26825.8
26825.8
26825.8
26825.8
26825.8
26825.8
26825.8
26825.8
26825.8
26825.8
26825.8
26825.8
26825.8
26825.9
26825.9
26825.9
26825.9
26825.9
26825.9
26825.9
26825.9
26825.9
26825.9
26825.9
26826
26826
26826
26826
26826
26826
26826
26826
26826.1
26826.1
26826.1
26826.1
26826.1
26826.1
26826.1
26826.1
26826.2
26826.2
26826.2
26826.2
26826.2
26826.2
26826.3
26826.3
26826.3
26826.3
26826.3
26826.4
26826.4
26826.4
26826.4
26826.5
26826.5
26826.5
26826.5
26826.5
26826.6
26826.6
26826.6
26826.7
26826.7
26826.7
26826.7
26826.8
26826.8
26826.8
26826.9
26826.9
26826.9
26827
26827
26827
26827.1
26827.1
26827.1
26827.2
26827.2
26827.3
26827.3
26827.4
26827.4
26827.4
26827.5
26827.5
26827.6
26827.6
26827.7
26827.7
26827.8
26827.9
26827.9
26828
26828
26828.1
26828.2
26828.2
26828.3
26828.4
26828.4
26828.5
26828.6
26828.6
26828.7
26828.8
26828.9
26829
26829
26829.1
26829.2
26829.3
26829.4
26829.5
26829.6
26829.7
26829.8
26829.9
26830
26830.1
26830.2
26830.3
26830.4
26830.6
26830.7
26830.8
26830.9
26831.1
26831.2
26831.3
26831.5
26831.6
26831.8
26831.9
26832.1
26832.3
26832.4
26832.6
26832.8
26832.9
26833.1
26833.3
26833.5
26833.7
26833.9
26834.1
26834.3
26834.5
26834.7
26834.9
26835.2
26835.4
26835.6
26835.9
26836.1
26836.4
26836.7
26836.9
26837.2
26837.5
26837.8
26838.1
26838.4
26838.7
26839
26839.3
26839.7
26840
26840.4
26840.7
26841.1
26841.5
26841.9
26842.3
26842.7
26843.1
26843.5
26843.9
26844.4
26844.8
26845.3
26845.8
26846.3
26846.8
26847.3
26847.8
26848.4
26848.9
26849.5
26850.1
26850.7
26851.3
26851.9
26852.5
26853.2
26853.9
26854.6
26855.3
26856
26856.7
26857.5
26858.3
26859
26859.9
26860.7
26861.5
26862.4
26863.3
26864.2
26865.2
26866.1
26867.1
26868.1
26869.1
26870.2
26871.3
26872.4
26873.5
26874.7
26875.9
26877.1
26878.3
26879.6
26880.9
26882.2
26883.6
26885
26886.4
26887.9
26889.4
26891
26892.5
26894.2
26895.8
26897.5
26899.2
26901
26902.8
26904.7
26906.6
26908.5
26910.5
26912.6
26914.7
26916.8
26919
26921.2
26923.5
26925.9
26928.3
26930.7
26933.3
26935.8
26938.5
26941.2
26943.9
26946.8
26949.7
26952.6
26955.6
26958.8
26961.9
26965.2
26968.5
26971.9
26975.4
26978.9
26982.6
26986.3
26990.1
26994
26998
27002.1
27006.2
27010.5
27014.9
27019.3
27023.9
27028.6
27033.4
27038.2
27043.2
27048.3
27053.6
27058.9
27064.4
27070
27075.7
27081.5
27087.5
27093.6
27099.8
27106.2
27112.7
27119.4
27126.2
27133.2
27140.3
27147.6
27155
27162.6
27170.4
27178.3
27186.4
27194.7
27203.2
27211.8
27220.6
27229.6
27238.8
27248.2
27257.8
27267.6
27277.6
27287.8
27298.3
27308.9
27319.8
27330.9
27342.2
27353.8
27365.6
27377.6
27389.9
27402.4
27415.1
27428.2
27441.4
27455
27468.8
27482.9
27497.2
27511.9
27526.8
27542
27557.4
27573.2
27589.3
27605.7
27622.4
27639.3
27656.6
27674.2
27692.1
27710.3
27728.9
27747.8
27767
27786.5
27806.3
27826.5
27847.1
27868
27889.2
27910.7
27932.6
27954.9
27977.5
28000.4
28023.6
28047.3
28071.2
28095.5
28120.1
28145.1
28170.4
28196.1
28222.1
28248.4
28275
28302
28329.3
28356.9
28384.7
28412.9
28441.4
28470.1
28499.1
28528.4
28557.9
28587.6
28617.6
28647.7
28678.1
28708.6
28739.3
28770.2
28801.1
28832.2
28863.3
28894.5
28925.8
28957
28988.2
29019.4
29050.5
29081.5
29112.4
29143.1
29173.7
29204
29234.1
29263.9
29293.4
29322.5
29351.3
29379.6
29407.5
29434.9
29461.8
29488.1
29513.8
29538.9
29563.3
29587.1
29610
29632.2
29653.6
29674.2
29693.8
29712.5
29730.3
29747
29762.7
29777.3
29790.8
29803.1
29814.2
29824.1
29832.8
29840
29846
29850.5
29853.6
29855.2
29855.4
29853.9
29850.9
29846.2
29839.8
29831.8
29821.9
29810.4
29797
29781.7
29764.6
29745.6
29724.7
29701.9
29677.2
29650.4
29621.8
29591.1
29558.6
29524
29487.5
29449
29408.6
29366.3
29322.2
29276.2
29228.4
29178.8
29127.5
29074.5
29019.9
28963.7
28906.1
28847.1
28786.7
28725.1
28662.3
28598.4
28533.6
28467.9
28401.5
28334.5
28267
28199.1
28131
28062.8
27994.6
27926.7
27859
27791.9
27725.4
27659.8
27595.2
27531.8
27469.7
27409.3
27350.5
27293.7
27239.1
27186.7
27136.9
27089.7
27045.5
27004.2
26966.2
26931.6
26900.5
26873
26849.3
26829.6
26813.8
26802.1
26794.6
26791.2
26792
26797
26806
26819.1
26836.2
26857
26881.5
26909.5
26940.7
26974.8
27011.7
27050.9
27092.2
27135.1
27179.3
27224.4
27269.9
27315.4
27360.4
27404.6
27447.4
27488.3
27527
27563.2
27596.3
27626.1
27652.3
27674.6
27692.8
27706.6
27715.9
27720.6
27720.6
27716
27706.7
27692.8
27674.5
27651.9
27625.3
27595
27561.2
27524.4
27484.7
27442.8
27399
27353.7
27307.5
27260.7
27214
27167.6
27122.2
27078.2
27035.9
26995.8
26958.3
26923.7
26892.3
26864.4
26840.3
26820.2
26804.2
26792.5
26785.3
26782.5
26784.3
26790.6
26801.4
26816.8
26836.6
26860.7
26889.1
26921.6
26958
26998.3
27042.2
27089.5
27140
27193.6
27250
27308.9
27370.3
27433.8
27499.2
27566.4
27635
27704.9
27775.8
27847.6
27920
27992.9
28066.1
28139.4
28212.5
28285.4
28357.8
28429.6
28500.7
28570.8
28639.9
28707.7
28774.2
28839.2
28902.6
28964.4
29024.4
29082.5
29138.6
29192.7
29244.7
29294.5
29342.1
29387.5
29430.5
29471.2
29509.6
29545.6
29579.2
29610.4
29639.3
29665.7
29689.8
29711.6
29731
29748.1
29763
29775.7
29786.1
29794.5
29800.7
29804.9
29807
29807.2
29805.5
29801.9
29796.5
29789.3
29780.5
29770
29757.8
29744.1
29728.9
29712.2
29694.1
29674.6
29653.8
29631.7
29608.5
29584
29558.5
29531.8
29504.2
29475.6
29446
29415.6
29384.4
29352.4
29319.7
29286.3
29252.3
29217.8
29182.7
29147.2
29111.3
29075.1
29038.5
29001.7
28964.7
28927.5
28890.2
28852.9