/*--------------------------------*- C++ -*----------------------------------*\
| =========                 |                                                 |
| \\      /  F ield         | OpenFOAM: The Open Source CFD Toolbox           |
|  \\    /   O peration     | Version:  2412                                  |
|   \\  /    A nd           | Website:  www.openfoam.com                      |
|    \\/     M anipulation  |                                                 |
\*---------------------------------------------------------------------------*/
FoamFile
{
    version     2.0;
    format      ascii;
    arch        "LSB;label=32;scalar=64";
    class       volVectorField;
    location    "1.88";
    object      U;
}
// * * * * * * * * * * * * * * * * * * * * * * * * * * * * * * * * * * * * * //

dimensions      [0 1 -1 0 0 0 0];

internalField   nonuniform List<vector> 
80000
(
(-3.93659e-06 2.18798e-05 0)
(-1.15195e-05 2.20516e-06 0)
(-1.21734e-05 -2.03949e-06 0)
(-1.11496e-05 2.86414e-08 0)
(-1.22412e-05 8.42783e-07 0)
(-1.16001e-05 1.28585e-06 0)
(-1.13635e-05 1.21331e-06 0)
(-1.0543e-05 1.11369e-06 0)
(-9.76713e-06 9.4222e-07 0)
(-8.98308e-06 7.75847e-07 0)
(-8.32608e-06 6.33141e-07 0)
(-7.81204e-06 5.37032e-07 0)
(-7.49163e-06 4.74316e-07 0)
(-7.38985e-06 4.46048e-07 0)
(-7.4929e-06 4.57623e-07 0)
(-7.78298e-06 4.73812e-07 0)
(-8.26087e-06 4.91966e-07 0)
(-8.9014e-06 5.07665e-07 0)
(-9.67706e-06 5.15819e-07 0)
(-1.05553e-05 5.14085e-07 0)
(-1.15148e-05 4.99139e-07 0)
(-1.25231e-05 4.86104e-07 0)
(-1.3566e-05 5.1371e-07 0)
(-1.4616e-05 4.49919e-07 0)
(-1.56439e-05 4.34569e-07 0)
(-1.66518e-05 4.20635e-07 0)
(-1.76321e-05 4.05809e-07 0)
(-1.85773e-05 3.93198e-07 0)
(-1.9488e-05 3.83629e-07 0)
(-2.03617e-05 3.77123e-07 0)
(-2.12008e-05 3.73731e-07 0)
(-2.20109e-05 3.73671e-07 0)
(-2.27932e-05 3.76603e-07 0)
(-2.3554e-05 3.83013e-07 0)
(-2.42978e-05 3.92257e-07 0)
(-2.50312e-05 4.0423e-07 0)
(-2.57593e-05 4.18924e-07 0)
(-2.64885e-05 4.34861e-07 0)
(-2.72243e-05 4.53165e-07 0)
(-2.79702e-05 4.73016e-07 0)
(-2.87305e-05 4.93708e-07 0)
(-2.95097e-05 5.15175e-07 0)
(-3.03101e-05 5.36926e-07 0)
(-3.11342e-05 5.59162e-07 0)
(-3.19835e-05 5.81078e-07 0)
(-3.28595e-05 6.02944e-07 0)
(-3.37626e-05 6.24634e-07 0)
(-3.46932e-05 6.45508e-07 0)
(-3.56515e-05 6.66646e-07 0)
(-3.66368e-05 6.86672e-07 0)
(-3.76496e-05 7.06486e-07 0)
(-3.86892e-05 7.25806e-07 0)
(-3.97549e-05 7.44669e-07 0)
(-4.0847e-05 7.63082e-07 0)
(-4.1965e-05 7.8144e-07 0)
(-4.31086e-05 7.99599e-07 0)
(-4.42783e-05 8.17786e-07 0)
(-4.54741e-05 8.36026e-07 0)
(-4.66964e-05 8.54472e-07 0)
(-4.79456e-05 8.73154e-07 0)
(-4.92223e-05 8.92112e-07 0)
(-5.05271e-05 9.11383e-07 0)
(-5.18607e-05 9.31025e-07 0)
(-5.32236e-05 9.51084e-07 0)
(-5.46168e-05 9.71579e-07 0)
(-5.60408e-05 9.92488e-07 0)
(-5.74963e-05 1.01379e-06 0)
(-5.8984e-05 1.03551e-06 0)
(-6.05046e-05 1.05767e-06 0)
(-6.20589e-05 1.08033e-06 0)
(-6.36476e-05 1.10351e-06 0)
(-6.52715e-05 1.12723e-06 0)
(-6.69315e-05 1.15152e-06 0)
(-6.86284e-05 1.17639e-06 0)
(-7.03633e-05 1.20186e-06 0)
(-7.21371e-05 1.22799e-06 0)
(-7.39508e-05 1.25485e-06 0)
(-7.58056e-05 1.2825e-06 0)
(-7.77028e-05 1.31099e-06 0)
(-7.96437e-05 1.34033e-06 0)
(-8.16294e-05 1.37056e-06 0)
(-8.36614e-05 1.40154e-06 0)
(-8.57408e-05 1.43333e-06 0)
(-8.78688e-05 1.46583e-06 0)
(-9.00466e-05 1.49903e-06 0)
(-9.22751e-05 1.53294e-06 0)
(-9.45557e-05 1.56762e-06 0)
(-9.68896e-05 1.60313e-06 0)
(-9.92781e-05 1.63954e-06 0)
(-0.000101723 1.67689e-06 0)
(-0.000104225 1.71522e-06 0)
(-0.000106786 1.75454e-06 0)
(-0.000109408 1.79488e-06 0)
(-0.000112091 1.8362e-06 0)
(-0.000114839 1.87853e-06 0)
(-0.000117652 1.92185e-06 0)
(-0.000120532 1.96621e-06 0)
(-0.00012348 2.01161e-06 0)
(-0.000126499 2.0581e-06 0)
(-0.00012959 2.10572e-06 0)
(-0.000132754 2.15451e-06 0)
(-0.000135994 2.20452e-06 0)
(-0.000139312 2.25578e-06 0)
(-0.000142709 2.30834e-06 0)
(-0.000146188 2.36226e-06 0)
(-0.000149751 2.41756e-06 0)
(-0.000153399 2.47424e-06 0)
(-0.000157136 2.53235e-06 0)
(-0.000160964 2.59184e-06 0)
(-0.000164884 2.65273e-06 0)
(-0.000168898 2.71504e-06 0)
(-0.00017301 2.77881e-06 0)
(-0.000177222 2.84407e-06 0)
(-0.000181535 2.91089e-06 0)
(-0.000185953 2.97936e-06 0)
(-0.000190478 3.04955e-06 0)
(-0.000195113 3.12154e-06 0)
(-0.00019986 3.19537e-06 0)
(-0.000204724 3.27108e-06 0)
(-0.000209706 3.34865e-06 0)
(-0.00021481 3.42811e-06 0)
(-0.000220038 3.50944e-06 0)
(-0.000225394 3.59268e-06 0)
(-0.000230881 3.67786e-06 0)
(-0.000236502 3.76506e-06 0)
(-0.000242261 3.85436e-06 0)
(-0.00024816 3.94585e-06 0)
(-0.000254203 4.03961e-06 0)
(-0.000260394 4.13574e-06 0)
(-0.000266737 4.2343e-06 0)
(-0.000273236 4.33534e-06 0)
(-0.000279895 4.4389e-06 0)
(-0.000286717 4.54499e-06 0)
(-0.000293708 4.65364e-06 0)
(-0.00030087 4.76489e-06 0)
(-0.000308209 4.87878e-06 0)
(-0.000315729 4.99539e-06 0)
(-0.000323434 5.11481e-06 0)
(-0.000331328 5.23712e-06 0)
(-0.000339417 5.36243e-06 0)
(-0.000347705 5.49081e-06 0)
(-0.000356197 5.62236e-06 0)
(-0.000364899 5.75713e-06 0)
(-0.000373816 5.89521e-06 0)
(-0.000382953 6.03669e-06 0)
(-0.000392316 6.18163e-06 0)
(-0.00040191 6.33013e-06 0)
(-0.000411742 6.48227e-06 0)
(-0.000421817 6.63814e-06 0)
(-0.000432141 6.79783e-06 0)
(-0.000442721 6.96141e-06 0)
(-0.000453563 7.12896e-06 0)
(-0.000464674 7.30054e-06 0)
(-0.00047606 7.47622e-06 0)
(-0.000487728 7.65608e-06 0)
(-0.000499685 7.84022e-06 0)
(-0.000511938 8.0288e-06 0)
(-0.000524495 8.22197e-06 0)
(-0.000537363 8.41992e-06 0)
(-0.00055055 8.62285e-06 0)
(-0.000564064 8.83092e-06 0)
(-0.000577915 9.04426e-06 0)
(-0.00059211 9.26295e-06 0)
(-0.000606658 9.48705e-06 0)
(-0.000621569 9.7166e-06 0)
(-0.000636851 9.95163e-06 0)
(-0.000652514 1.01922e-05 0)
(-0.000668566 1.04385e-05 0)
(-0.000685017 1.06906e-05 0)
(-0.000701878 1.09487e-05 0)
(-0.000719157 1.12132e-05 0)
(-0.000736867 1.14842e-05 0)
(-0.000755017 1.17621e-05 0)
(-0.00077362 1.20469e-05 0)
(-0.000792686 1.23389e-05 0)
(-0.000812228 1.26381e-05 0)
(-0.000832259 1.29446e-05 0)
(-0.000852789 1.32586e-05 0)
(-0.000873832 1.35801e-05 0)
(-0.000895399 1.39094e-05 0)
(-0.000917506 1.42466e-05 0)
(-0.000940164 1.4592e-05 0)
(-0.000963387 1.49458e-05 0)
(-0.00098719 1.53082e-05 0)
(-0.00101159 1.56796e-05 0)
(-0.00103659 1.60602e-05 0)
(-0.00106222 1.64501e-05 0)
(-0.0010885 1.68496e-05 0)
(-0.00111543 1.72589e-05 0)
(-0.00114303 1.76781e-05 0)
(-0.00117132 1.81076e-05 0)
(-0.00120032 1.85475e-05 0)
(-0.00123004 1.89981e-05 0)
(-0.00126051 1.94598e-05 0)
(-0.00129174 1.99327e-05 0)
(-0.00132375 2.04172e-05 0)
(-0.00135656 2.09136e-05 0)
(-0.0013902 2.14221e-05 0)
(-0.00142467 2.19431e-05 0)
(-0.00146001 2.24769e-05 0)
(-0.00149623 2.30238e-05 0)
(-0.00153336 2.35841e-05 0)
(-0.00157142 2.41582e-05 0)
(-0.00161043 2.47464e-05 0)
(-0.00165043 2.53489e-05 0)
(-0.00169142 2.59661e-05 0)
(-0.00173344 2.65982e-05 0)
(-0.00177651 2.72458e-05 0)
(-0.00182066 2.79091e-05 0)
(-0.00186592 2.85886e-05 0)
(-0.00191231 2.92848e-05 0)
(-0.00195987 2.9998e-05 0)
(-0.00200862 3.07287e-05 0)
(-0.00205859 3.14772e-05 0)
(-0.00210981 3.22441e-05 0)
(-0.00216231 3.30296e-05 0)
(-0.00221614 3.38344e-05 0)
(-0.00227131 3.46587e-05 0)
(-0.00232787 3.55032e-05 0)
(-0.00238584 3.63683e-05 0)
(-0.00244527 3.72546e-05 0)
(-0.00250619 3.81626e-05 0)
(-0.00256863 3.90927e-05 0)
(-0.00263264 4.00455e-05 0)
(-0.00269826 4.10214e-05 0)
(-0.00276553 4.20211e-05 0)
(-0.00283448 4.30451e-05 0)
(-0.00290516 4.4094e-05 0)
(-0.00297761 4.51685e-05 0)
(-0.00305188 4.62692e-05 0)
(-0.00312801 4.73967e-05 0)
(-0.00320605 4.85517e-05 0)
(-0.00328605 4.97349e-05 0)
(-0.00336805 5.09469e-05 0)
(-0.00345211 5.21884e-05 0)
(-0.00353828 5.34601e-05 0)
(-0.00362661 5.47628e-05 0)
(-0.00371716 5.60971e-05 0)
(-0.00380997 5.74638e-05 0)
(-0.00390511 5.88637e-05 0)
(-0.00400264 6.02974e-05 0)
(-0.00410261 6.17659e-05 0)
(-0.00420509 6.32699e-05 0)
(-0.00431013 6.48103e-05 0)
(-0.00441781 6.63881e-05 0)
(-0.00452818 6.80043e-05 0)
(-0.00464132 6.96598e-05 0)
(-0.0047573 7.13554e-05 0)
(-0.00487618 7.30922e-05 0)
(-0.00499803 7.48708e-05 0)
(-0.00512294 7.66924e-05 0)
(-0.00525098 7.85578e-05 0)
(-0.00538222 8.04682e-05 0)
(-0.00551674 8.24247e-05 0)
(-0.00565463 8.44285e-05 0)
(-0.00579597 8.64809e-05 0)
(-0.00594085 8.85829e-05 0)
(-0.00608935 9.07356e-05 0)
(-0.00624156 9.294e-05 0)
(-0.00639758 9.51974e-05 0)
(-0.0065575 9.75088e-05 0)
(-0.00672141 9.98756e-05 0)
(-0.00688942 0.000102299 0)
(-0.00706162 0.000104781 0)
(-0.00723813 0.000107323 0)
(-0.00741904 0.000109926 0)
(-0.00760446 0.000112591 0)
(-0.00779451 0.00011532 0)
(-0.0079893 0.000118114 0)
(-0.00818895 0.000120975 0)
(-0.00839358 0.000123904 0)
(-0.0086033 0.000126903 0)
(-0.00881825 0.000129974 0)
(-0.00903855 0.000133118 0)
(-0.00926433 0.000136337 0)
(-0.00949573 0.000139632 0)
(-0.00973289 0.000143006 0)
(-0.00997594 0.00014646 0)
(-0.010225 0.000149995 0)
(-0.0104803 0.000153615 0)
(-0.0107419 0.00015732 0)
(-0.0110101 0.000161113 0)
(-0.0112848 0.000164996 0)
(-0.0115664 0.000168971 0)
(-0.011855 0.000173039 0)
(-0.0121507 0.000177203 0)
(-0.0124537 0.000181465 0)
(-0.0127643 0.000185827 0)
(-0.0130825 0.000190292 0)
(-0.0134086 0.000194862 0)
(-0.0137427 0.000199539 0)
(-0.0140851 0.000204326 0)
(-0.014436 0.000209225 0)
(-0.0147955 0.000214238 0)
(-0.0151639 0.000219367 0)
(-0.0155414 0.000224616 0)
(-0.0159281 0.000229988 0)
(-0.0163244 0.000235484 0)
(-0.0167304 0.000241108 0)
(-0.0171464 0.000246863 0)
(-0.0175726 0.000252751 0)
(-0.0180093 0.000258774 0)
(-0.0184567 0.000264937 0)
(-0.018915 0.000271241 0)
(-0.0193846 0.00027769 0)
(-0.0198657 0.000284288 0)
(-0.0203585 0.000291037 0)
(-0.0208634 0.000297942 0)
(-0.0213806 0.000305004 0)
(-0.0219104 0.000312227 0)
(-0.0224532 0.000319614 0)
(-0.0230091 0.00032717 0)
(-0.0235786 0.000334896 0)
(-0.024162 0.000342798 0)
(-0.0247595 0.000350879 0)
(-0.0253714 0.000359143 0)
(-0.0259983 0.000367592 0)
(-0.0266403 0.000376232 0)
(-0.0272978 0.000385065 0)
(-0.0279713 0.000394096 0)
(-0.028661 0.000403329 0)
(-0.0293673 0.000412768 0)
(-0.0300906 0.000422418 0)
(-0.0308314 0.000432281 0)
(-0.03159 0.000442363 0)
(-0.0323667 0.000452668 0)
(-0.0331622 0.000463199 0)
(-0.0339766 0.000473963 0)
(-0.0348106 0.000484962 0)
(-0.0356644 0.000496202 0)
(-0.0365387 0.000507688 0)
(-0.0374338 0.000519423 0)
(-0.0383502 0.000531412 0)
(-0.0392884 0.000543659 0)
(-0.0402488 0.000556171 0)
(-0.041232 0.000568951 0)
(-0.0422385 0.000582005 0)
(-0.0432687 0.000595338 0)
(-0.0443233 0.000608954 0)
(-0.0454027 0.000622858 0)
(-0.0465075 0.000637056 0)
(-0.0476381 0.000651552 0)
(-0.0487953 0.000666352 0)
(-0.0499796 0.000681461 0)
(-0.0511915 0.000696884 0)
(-0.0524316 0.000712626 0)
(-0.0537006 0.000728693 0)
(-0.054999 0.000745091 0)
(-0.0563275 0.000761824 0)
(-0.0576867 0.000778899 0)
(-0.0590773 0.00079632 0)
(-0.0605 0.000814093 0)
(-0.0619553 0.000832223 0)
(-0.063444 0.000850715 0)
(-0.0649668 0.000869573 0)
(-0.0665244 0.000888804 0)
(-0.0681175 0.000908411 0)
(-0.0697468 0.000928401 0)
(-0.071413 0.000948778 0)
(-0.073117 0.000969546 0)
(-0.0748593 0.00099071 0)
(-0.0766409 0.00101228 0)
(-0.0784624 0.00103425 0)
(-0.0803246 0.00105663 0)
(-0.0822284 0.00107943 0)
(-0.0841744 0.00110264 0)
(-0.0861636 0.00112629 0)
(-0.0881967 0.00115036 0)
(-0.0902746 0.00117486 0)
(-0.0923981 0.0011998 0)
(-0.094568 0.00122517 0)
(-0.0967852 0.00125099 0)
(-0.0990506 0.00127726 0)
(-0.101365 0.00130396 0)
(-0.103729 0.00133112 0)
(-0.106145 0.00135872 0)
(-0.108611 0.00138677 0)
(-0.111131 0.00141527 0)
(-0.113703 0.00144423 0)
(-0.11633 0.00147363 0)
(-0.119012 0.00150348 0)
(-0.121751 0.00153379 0)
(-0.124546 0.00156454 0)
(-0.127398 0.00159574 0)
(-0.13031 0.00162739 0)
(-0.133281 0.00165947 0)
(-0.136312 0.00169198 0)
(-0.139405 0.00172492 0)
(-0.14256 0.00175828 0)
(-0.145777 0.00179205 0)
(-0.149059 0.00182622 0)
(-0.152405 0.00186077 0)
(-0.155816 0.00189571 0)
(-0.159294 0.00193102 0)
(-0.162839 0.00196668 0)
(-0.166451 0.00200269 0)
(-0.170131 0.00203903 0)
(-0.173881 0.00207569 0)
(-0.1777 0.00211265 0)
(-0.181589 0.00214989 0)
(-0.185549 0.00218738 0)
(-0.189581 0.00222509 0)
(-0.193684 0.002263 0)
(-0.197859 0.00230107 0)
(-0.202107 0.00233926 0)
(-0.206428 0.00237754 0)
(-0.210822 0.00241586 0)
(-0.21529 0.00245419 0)
(-0.219831 0.00249248 0)
(-0.224445 0.00253069 0)
(-0.229133 0.00256877 0)
(-0.233894 0.00260666 0)
(-0.238727 0.00264433 0)
(-0.243633 0.0026817 0)
(-0.24861 0.00271871 0)
(-0.253659 0.00275529 0)
(-0.258778 0.00279136 0)
(-0.263967 0.00282686 0)
(-0.269224 0.00286169 0)
(-0.274549 0.00289576 0)
(-0.27994 0.00292898 0)
(-0.285395 0.00296127 0)
(-0.290913 0.00299251 0)
(-0.296491 0.0030226 0)
(-0.302129 0.00305145 0)
(-0.307822 0.00307893 0)
(-0.313569 0.00310494 0)
(-0.319368 0.00312937 0)
(-0.325214 0.00315208 0)
(-0.331105 0.00317297 0)
(-0.337037 0.00319191 0)
(-0.343007 0.00320877 0)
(-0.349011 0.00322342 0)
(-0.355044 0.00323571 0)
(-0.361102 0.00324553 0)
(-0.36718 0.00325271 0)
(-0.373274 0.00325714 0)
(-0.379378 0.00325867 0)
(-0.385487 0.00325718 0)
(-0.391595 0.00325254 0)
(-0.397696 0.00324465 0)
(-0.403784 0.00323338 0)
(-0.409853 0.00321864 0)
(-0.415895 0.00320033 0)
(-0.421905 0.00317838 0)
(-0.427874 0.00315267 0)
(-0.433796 0.00312309 0)
(-0.439663 0.00308956 0)
(-0.445468 0.00305201 0)
(-0.451203 0.00301033 0)
(-0.456859 0.00296446 0)
(-0.46243 0.00291432 0)
(-0.467907 0.00285987 0)
(-0.473281 0.00280104 0)
(-0.478545 0.00273773 0)
(-0.483689 0.00266991 0)
(-0.488705 0.00259757 0)
(-0.493584 0.00252067 0)
(-0.498318 0.00243907 0)
(-0.502897 0.00235265 0)
(-0.507312 0.00226135 0)
(-0.511552 0.00216515 0)
(-0.515608 0.00206397 0)
(-0.519471 0.00195764 0)
(-0.523131 0.00184601 0)
(-0.526577 0.00172896 0)
(-0.529797 0.00160634 0)
(-0.532782 0.001478 0)
(-0.535519 0.00134384 0)
(-0.537997 0.00120378 0)
(-0.540205 0.00105767 0)
(-0.54213 0.00090524 0)
(-0.543758 0.000746214 0)
(-0.545078 0.000580417 0)
(-0.546075 0.000407782 0)
(-0.546735 0.000228404 0)
(-0.547044 4.65485e-05 0)
(-0.546988 -0.000146823 0)
(-0.546547 -0.000353363 0)
(-0.545713 -0.000563595 0)
(-0.544467 -0.00078065 0)
(-0.542791 -0.00100681 0)
(-0.540672 -0.00124161 0)
(-0.538093 -0.00148429 0)
(-0.535035 -0.00173488 0)
(-0.531482 -0.00199331 0)
(-0.527419 -0.00225947 0)
(-0.52283 -0.00253358 0)
(-0.517697 -0.00281589 0)
(-0.512006 -0.00310597 0)
(-0.50574 -0.00340338 0)
(-0.498884 -0.00370708 0)
(-0.491427 -0.00401653 0)
(-0.483354 -0.00433144 0)
(-0.474655 -0.00465155 0)
(-0.465318 -0.00497653 0)
(-0.455334 -0.00530573 0)
(-0.444694 -0.00563853 0)
(-0.43339 -0.00597428 0)
(-0.421415 -0.00631211 0)
(-0.408766 -0.00665104 0)
(-0.395441 -0.00699043 0)
(-0.381438 -0.00732962 0)
(-0.366757 -0.00766776 0)
(-0.351399 -0.00800379 0)
(-0.335369 -0.00833657 0)
(-0.318673 -0.00866533 0)
(-0.301319 -0.0089898 0)
(-0.283317 -0.00930909 0)
(-0.264678 -0.00962188 0)
(-0.245413 -0.00992671 0)
(-0.225539 -0.0102228 0)
(-0.205072 -0.0105097 0)
(-0.184034 -0.0107867 0)
(-0.162447 -0.011052 0)
(-0.140337 -0.0113022 0)
(-0.117716 -0.0115305 0)
(-0.0946618 -0.0117418 0)
(-0.0712656 -0.0119676 0)
(-0.0472514 -0.0121988 0)
(-0.0228463 -0.012401 0)
(0.00193801 -0.0125772 0)
(0.0270521 -0.0127334 0)
(0.0524558 -0.0128721 0)
(0.0780581 -0.0130033 0)
(0.104039 -0.0131099 0)
(0.130135 -0.0131502 0)
(0.156205 -0.0131522 0)
(0.1823 -0.0131298 0)
(0.208322 -0.0130756 0)
(0.23421 -0.0129912 0)
(0.259912 -0.0128761 0)
(0.285367 -0.0127299 0)
(0.310521 -0.0125525 0)
(0.335306 -0.0123431 0)
(0.35966 -0.0121016 0)
(0.383518 -0.0118279 0)
(0.406816 -0.0115224 0)
(0.429493 -0.0111833 0)
(0.451475 -0.0108073 0)
(0.472685 -0.0103929 0)
(0.493061 -0.00994891 0)
(0.512544 -0.00947455 0)
(0.531073 -0.00896744 0)
(0.54858 -0.00842294 0)
(0.564982 -0.00783814 0)
(0.580218 -0.007228 0)
(0.594244 -0.00659781 0)
(0.607002 -0.0059466 0)
(0.618428 -0.00527441 0)
(0.62846 -0.00458038 0)
(0.637046 -0.00385374 0)
(0.644136 -0.00309321 0)
(0.649686 -0.00230801 0)
(0.653663 -0.00150162 0)
(0.65601 -0.000677559 0)
(0.656731 7.24308e-05 0)
(0.655699 0.00103552 0)
(0.652944 0.0018683 0)
(0.648456 0.00274368 0)
(0.642213 0.00363067 0)
(0.634172 0.00454093 0)
(0.624319 0.00544809 0)
(0.612653 0.00633425 0)
(0.599179 0.00720718 0)
(0.583898 0.00807247 0)
(0.566815 0.00892865 0)
(0.547953 0.00977497 0)
(0.527347 0.0106089 0)
(0.505032 0.0114231 0)
(0.481048 0.0122116 0)
(0.455447 0.0129741 0)
(0.428287 0.0137018 0)
(0.399645 0.0143962 0)
(0.369607 0.0150642 0)
(0.338236 0.0157139 0)
(0.305574 0.0163549 0)
(0.271667 0.0170133 0)
(0.236538 0.0176669 0)
(0.200172 0.0180673 0)
(0.162007 0.0176054 0)
(0.126892 0.0154078 0)
(0.0954822 0.0152023 0)
(0.0597601 0.0176939 0)
(0.0212789 0.0181038 0)
(-0.016481 0.018157 0)
(-0.0547127 0.017771 0)
(-0.0914379 0.0154414 0)
(-0.123003 0.0153724 0)
(-0.157869 0.0174666 0)
(-0.196173 0.0180034 0)
(-0.232963 0.0176761 0)
(-0.26851 0.0170445 0)
(-0.302832 0.0163812 0)
(-0.335938 0.0157295 0)
(-0.367791 0.0150728 0)
(-0.398301 0.0143946 0)
(-0.427396 0.0136838 0)
(-0.454998 0.0129408 0)
(-0.481018 0.0121647 0)
(-0.505384 0.011359 0)
(-0.528044 0.0105278 0)
(-0.548946 0.00967914 0)
(-0.568046 0.00881474 0)
(-0.585306 0.00793433 0)
(-0.600689 0.00704455 0)
(-0.614177 0.00614985 0)
(-0.625765 0.00524525 0)
(-0.63544 0.00431398 0)
(-0.6432 0.00335474 0)
(-0.64908 0.00242903 0)
(-0.653104 0.00157482 0)
(-0.655278 0.000658609 0)
(-0.65554 -0.000275776 0)
(-0.654008 -0.00107646 0)
(-0.650692 -0.00192715 0)
(-0.645623 -0.00276313 0)
(-0.63885 -0.00356775 0)
(-0.630417 -0.00433519 0)
(-0.620366 -0.00507397 0)
(-0.608746 -0.00578761 0)
(-0.595621 -0.00647905 0)
(-0.581057 -0.00714715 0)
(-0.565112 -0.0077903 0)
(-0.54785 -0.00840378 0)
(-0.529343 -0.00897988 0)
(-0.50966 -0.00951848 0)
(-0.48887 -0.010025 0)
(-0.467054 -0.0104893 0)
(-0.444285 -0.010916 0)
(-0.420638 -0.0113003 0)
(-0.396201 -0.0116477 0)
(-0.371049 -0.011958 0)
(-0.34526 -0.0122315 0)
(-0.31891 -0.0124685 0)
(-0.292072 -0.0126687 0)
(-0.264829 -0.0128333 0)
(-0.23725 -0.0129629 0)
(-0.209402 -0.0130566 0)
(-0.181355 -0.0131187 0)
(-0.153192 -0.0131448 0)
(-0.124982 -0.0131427 0)
(-0.0966595 -0.0130675 0)
(-0.0687109 -0.0129351 0)
(-0.0410002 -0.01279 0)
(-0.0135417 -0.0126303 0)
(0.0135855 -0.0124442 0)
(0.0403135 -0.0122293 0)
(0.0666133 -0.0119794 0)
(0.092309 -0.0117152 0)
(0.117421 -0.0114719 0)
(0.142164 -0.0112261 0)
(0.166308 -0.0109519 0)
(0.189848 -0.0106578 0)
(0.212746 -0.0103479 0)
(0.234971 -0.0100252 0)
(0.256492 -0.00969128 0)
(0.277284 -0.00934726 0)
(0.297326 -0.00899429 0)
(0.316597 -0.00863362 0)
(0.335081 -0.00826705 0)
(0.352764 -0.00789604 0)
(0.369637 -0.00752157 0)
(0.385691 -0.00714414 0)
(0.400921 -0.00676501 0)
(0.415321 -0.00638506 0)
(0.428891 -0.00600559 0)
(0.441631 -0.00562789 0)
(0.453548 -0.00525415 0)
(0.464654 -0.0048854 0)
(0.474957 -0.0045214 0)
(0.484467 -0.00416229 0)
(0.493194 -0.00380913 0)
(0.501154 -0.00346311 0)
(0.508365 -0.00312546 0)
(0.514844 -0.00279675 0)
(0.520611 -0.00247735 0)
(0.525685 -0.00216791 0)
(0.530088 -0.00186844 0)
(0.533842 -0.00157931 0)
(0.536971 -0.0013 0)
(0.539496 -0.00103195 0)
(0.541443 -0.000774657 0)
(0.542833 -0.000528134 0)
(0.543686 -0.000292504 0)
(0.544032 -5.69025e-05 0)
(0.543878 0.000151338 0)
(0.543257 0.000357279 0)
(0.542187 0.00055388 0)
(0.540689 0.000741486 0)
(0.538785 0.000920378 0)
(0.53649 0.00109095 0)
(0.533823 0.0012535 0)
(0.530802 0.00140814 0)
(0.527443 0.00155502 0)
(0.523763 0.00169377 0)
(0.519782 0.00182497 0)
(0.515513 0.00194948 0)
(0.510971 0.00206773 0)
(0.506169 0.00217954 0)
(0.501122 0.00228498 0)
(0.495844 0.00238422 0)
(0.490348 0.0024768 0)
(0.484648 0.00256327 0)
(0.478757 0.00264415 0)
(0.472688 0.00271952 0)
(0.466452 0.00278884 0)
(0.460062 0.00285268 0)
(0.453532 0.00291085 0)
(0.446873 0.00296321 0)
(0.440099 0.00301037 0)
(0.433219 0.00305255 0)
(0.426246 0.00308987 0)
(0.419191 0.00312187 0)
(0.412065 0.00314876 0)
(0.40488 0.00317068 0)
(0.397646 0.00318778 0)
(0.390375 0.00320014 0)
(0.383075 0.00320788 0)
(0.375759 0.00321132 0)
(0.368435 0.00321043 0)
(0.361113 0.00320555 0)
(0.353803 0.00319666 0)
(0.346512 0.00318415 0)
(0.33925 0.00316818 0)
(0.332023 0.00314874 0)
(0.324839 0.00312622 0)
(0.317705 0.00310068 0)
(0.310628 0.00307261 0)
(0.303614 0.00304193 0)
(0.296668 0.00300899 0)
(0.289797 0.00297387 0)
(0.283003 0.00293681 0)
(0.276292 0.00289794 0)
(0.269668 0.00285735 0)
(0.263135 0.00281524 0)
(0.256695 0.00277192 0)
(0.250352 0.00272761 0)
(0.244107 0.00268247 0)
(0.237962 0.00263658 0)
(0.23192 0.0025901 0)
(0.225982 0.00254317 0)
(0.22015 0.00249582 0)
(0.214424 0.00244799 0)
(0.208805 0.00239979 0)
(0.203294 0.00235151 0)
(0.19789 0.00230344 0)
(0.192594 0.00225558 0)
(0.187406 0.00220774 0)
(0.182325 0.00215986 0)
(0.177351 0.0021122 0)
(0.172484 0.00206504 0)
(0.167723 0.00201847 0)
(0.163067 0.00197235 0)
(0.158515 0.00192655 0)
(0.154067 0.00188114 0)
(0.14972 0.00183626 0)
(0.145474 0.00179201 0)
(0.141328 0.00174837 0)
(0.137281 0.00170532 0)
(0.133332 0.0016629 0)
(0.129478 0.00162116 0)
(0.125719 0.00158014 0)
(0.122052 0.00153982 0)
(0.118477 0.00150019 0)
(0.114992 0.00146126 0)
(0.111595 0.00142303 0)
(0.108285 0.00138553 0)
(0.10506 0.00134874 0)
(0.101919 0.00131264 0)
(0.0988601 0.00127725 0)
(0.0958815 0.00124259 0)
(0.092982 0.00120866 0)
(0.0901599 0.00117546 0)
(0.0874137 0.00114298 0)
(0.0847417 0.00111121 0)
(0.0821424 0.00108014 0)
(0.0796143 0.00104977 0)
(0.0771556 0.00102008 0)
(0.0747649 0.000991081 0)
(0.0724406 0.000962756 0)
(0.0701813 0.000935103 0)
(0.0679854 0.000908116 0)
(0.0658515 0.000881781 0)
(0.0637782 0.000856087 0)
(0.061764 0.000831019 0)
(0.0598075 0.000806569 0)
(0.0579074 0.000782732 0)
(0.0560622 0.0007595 0)
(0.0542706 0.000736866 0)
(0.0525314 0.000714818 0)
(0.0508431 0.000693344 0)
(0.0492046 0.000672431 0)
(0.0476144 0.000652065 0)
(0.0460713 0.000632235 0)
(0.0445742 0.000612929 0)
(0.0431219 0.000594141 0)
(0.0417131 0.000575862 0)
(0.0403468 0.000558083 0)
(0.0390219 0.000540793 0)
(0.0377371 0.00052398 0)
(0.0364915 0.000507631 0)
(0.035284 0.000491736 0)
(0.0341135 0.000476285 0)
(0.0329791 0.000461267 0)
(0.0318797 0.000446674 0)
(0.0308143 0.000432497 0)
(0.0297821 0.000418726 0)
(0.0287822 0.000405352 0)
(0.0278135 0.000392367 0)
(0.0268753 0.00037976 0)
(0.0259667 0.000367521 0)
(0.0250868 0.00035564 0)
(0.0242347 0.000344109 0)
(0.0234097 0.000332918 0)
(0.0226111 0.000322059 0)
(0.0218379 0.000311524 0)
(0.0210896 0.000301303 0)
(0.0203653 0.000291389 0)
(0.0196644 0.000281775 0)
(0.0189862 0.000272452 0)
(0.01833 0.000263413 0)
(0.0176951 0.000254651 0)
(0.017081 0.000246159 0)
(0.016487 0.000237928 0)
(0.0159124 0.000229951 0)
(0.0153568 0.000222222 0)
(0.0148195 0.000214734 0)
(0.0142999 0.000207481 0)
(0.0137976 0.000200455 0)
(0.013312 0.00019365 0)
(0.0128425 0.00018706 0)
(0.0123888 0.000180679 0)
(0.0119502 0.0001745 0)
(0.0115263 0.00016852 0)
(0.0111167 0.00016273 0)
(0.0107209 0.000157126 0)
(0.0103385 0.000151702 0)
(0.00996902 0.000146455 0)
(0.0096121 0.000141377 0)
(0.00926733 0.000136465 0)
(0.00893432 0.000131711 0)
(0.0086127 0.000127113 0)
(0.00830211 0.000122667 0)
(0.00800218 0.000118367 0)
(0.00771257 0.000114209 0)
(0.00743295 0.000110188 0)
(0.007163 0.000106301 0)
(0.0069024 0.000102542 0)
(0.00665084 9.89098e-05 0)
(0.00640804 9.53988e-05 0)
(0.00617371 9.20053e-05 0)
(0.00594756 8.87256e-05 0)
(0.00572932 8.55565e-05 0)
(0.00551875 8.2495e-05 0)
(0.00531557 7.95373e-05 0)
(0.00511955 7.668e-05 0)
(0.00493045 7.39195e-05 0)
(0.00474803 7.12532e-05 0)
(0.00457208 6.86783e-05 0)
(0.00440237 6.61921e-05 0)
(0.0042387 6.37914e-05 0)
(0.00408086 6.14733e-05 0)
(0.00392865 5.92351e-05 0)
(0.00378189 5.70744e-05 0)
(0.00364039 5.49888e-05 0)
(0.00350397 5.29759e-05 0)
(0.00337246 5.10331e-05 0)
(0.00324569 4.91581e-05 0)
(0.00312349 4.73487e-05 0)
(0.00300571 4.5603e-05 0)
(0.0028922 4.39187e-05 0)
(0.00278281 4.22936e-05 0)
(0.0026774 4.07258e-05 0)
(0.00257583 3.92135e-05 0)
(0.00247796 3.77552e-05 0)
(0.00238368 3.63489e-05 0)
(0.00229284 3.49925e-05 0)
(0.00220533 3.36844e-05 0)
(0.00212105 3.2423e-05 0)
(0.00203986 3.12069e-05 0)
(0.00196167 3.00348e-05 0)
(0.00188636 2.89049e-05 0)
(0.00181384 2.78155e-05 0)
(0.001744 2.67651e-05 0)
(0.00167676 2.57527e-05 0)
(0.00161202 2.47774e-05 0)
(0.00154969 2.38377e-05 0)
(0.00148968 2.29322e-05 0)
(0.00143191 2.20595e-05 0)
(0.00137631 2.12183e-05 0)
(0.00132279 2.04079e-05 0)
(0.00127128 1.96276e-05 0)
(0.00122171 1.88765e-05 0)
(0.001174 1.81531e-05 0)
(0.00112809 1.74561e-05 0)
(0.00108391 1.67843e-05 0)
(0.00104141 1.61373e-05 0)
(0.00100051 1.55146e-05 0)
(0.000961173 1.49152e-05 0)
(0.000923325 1.43382e-05 0)
(0.000886918 1.37826e-05 0)
(0.000851898 1.32474e-05 0)
(0.000818216 1.27323e-05 0)
(0.000785822 1.22367e-05 0)
(0.000754668 1.176e-05 0)
(0.000724707 1.13012e-05 0)
(0.000695896 1.08595e-05 0)
(0.000668193 1.04342e-05 0)
(0.000641558 1.00249e-05 0)
(0.00061595 9.63139e-06 0)
(0.00059133 9.2531e-06 0)
(0.000567661 8.88924e-06 0)
(0.000544909 8.53898e-06 0)
(0.000523038 8.20174e-06 0)
(0.000502018 7.87723e-06 0)
(0.000481815 7.56529e-06 0)
(0.000462399 7.26559e-06 0)
(0.00044374 6.97758e-06 0)
(0.000425808 6.7006e-06 0)
(0.000408577 6.43415e-06 0)
(0.00039202 6.1779e-06 0)
(0.000376112 5.93163e-06 0)
(0.000360828 5.69502e-06 0)
(0.000346143 5.46761e-06 0)
(0.000332035 5.2489e-06 0)
(0.000318483 5.03854e-06 0)
(0.000305465 4.83636e-06 0)
(0.000292961 4.64224e-06 0)
(0.000280951 4.45597e-06 0)
(0.000269414 4.27708e-06 0)
(0.000258334 4.10506e-06 0)
(0.000247692 3.93949e-06 0)
(0.000237473 3.78027e-06 0)
(0.00022766 3.62741e-06 0)
(0.000218237 3.48091e-06 0)
(0.000209188 3.34055e-06 0)
(0.000200498 3.20588e-06 0)
(0.000192153 3.07642e-06 0)
(0.000184139 2.95192e-06 0)
(0.000176445 2.8323e-06 0)
(0.000169057 2.71757e-06 0)
(0.000161964 2.60761e-06 0)
(0.000155153 2.50214e-06 0)
(0.000148613 2.40081e-06 0)
(0.000142333 2.30339e-06 0)
(0.000136304 2.2098e-06 0)
(0.000130517 2.12009e-06 0)
(0.00012496 2.03423e-06 0)
(0.000119624 1.95206e-06 0)
(0.0001145 1.87331e-06 0)
(0.000109579 1.7977e-06 0)
(0.000104854 1.72505e-06 0)
(0.000100316 1.65536e-06 0)
(9.59587e-05 1.58872e-06 0)
(9.17732e-05 1.52515e-06 0)
(8.77518e-05 1.46452e-06 0)
(8.38873e-05 1.40647e-06 0)
(8.01736e-05 1.35066e-06 0)
(7.66049e-05 1.29691e-06 0)
(7.31759e-05 1.24531e-06 0)
(6.98807e-05 1.196e-06 0)
(6.67131e-05 1.14904e-06 0)
(6.36673e-05 1.10429e-06 0)
(6.07376e-05 1.06153e-06 0)
(5.79193e-05 1.0206e-06 0)
(5.52074e-05 9.81509e-07 0)
(5.25973e-05 9.44213e-07 0)
(5.00839e-05 9.0884e-07 0)
(4.76623e-05 8.75321e-07 0)
(4.53278e-05 8.43404e-07 0)
(4.30767e-05 8.12849e-07 0)
(4.09055e-05 7.83437e-07 0)
(3.88109e-05 7.55458e-07 0)
(3.67893e-05 7.28761e-07 0)
(3.48369e-05 7.03644e-07 0)
(3.29501e-05 6.79666e-07 0)
(3.1125e-05 6.5745e-07 0)
(2.93576e-05 6.36448e-07 0)
(2.76446e-05 6.16769e-07 0)
(2.59834e-05 5.97719e-07 0)
(2.43716e-05 5.79791e-07 0)
(2.28062e-05 5.63128e-07 0)
(2.12836e-05 5.47705e-07 0)
(1.98009e-05 5.33281e-07 0)
(1.83553e-05 5.19928e-07 0)
(1.69438e-05 5.07661e-07 0)
(1.55638e-05 4.96305e-07 0)
(1.42132e-05 4.85693e-07 0)
(1.28896e-05 4.75944e-07 0)
(1.15906e-05 4.67117e-07 0)
(1.03139e-05 4.59169e-07 0)
(9.05676e-06 4.52219e-07 0)
(7.81663e-06 4.4623e-07 0)
(6.59101e-06 4.41133e-07 0)
(5.3774e-06 4.36887e-07 0)
(4.17343e-06 4.33618e-07 0)
(2.97647e-06 4.31222e-07 0)
(1.78387e-06 4.29743e-07 0)
(5.9415e-07 4.28609e-07 0)
(1.20617e-05 3.60793e-06 0)
(1.21934e-05 8.91342e-06 0)
(1.70227e-06 3.54948e-06 0)
(-1.32253e-06 7.94901e-07 0)
(-5.60726e-06 -6.31035e-08 0)
(-6.72887e-06 -1.30949e-06 0)
(-8.05749e-06 -1.90909e-06 0)
(-8.36676e-06 -2.24076e-06 0)
(-8.75093e-06 -2.26944e-06 0)
(-8.95382e-06 -2.10443e-06 0)
(-9.12949e-06 -1.78014e-06 0)
(-9.256e-06 -1.36065e-06 0)
(-9.37337e-06 -8.82707e-07 0)
(-9.50052e-06 -3.82422e-07 0)
(-9.67561e-06 1.37704e-07 0)
(-9.91551e-06 6.35139e-07 0)
(-1.02104e-05 1.09346e-06 0)
(-1.05762e-05 1.49133e-06 0)
(-1.1021e-05 1.82107e-06 0)
(-1.15451e-05 2.07723e-06 0)
(-1.21345e-05 2.26324e-06 0)
(-1.27911e-05 2.3783e-06 0)
(-1.34729e-05 2.43568e-06 0)
(-1.41932e-05 2.4473e-06 0)
(-1.4976e-05 2.4203e-06 0)
(-1.57731e-05 2.36599e-06 0)
(-1.65852e-05 2.29303e-06 0)
(-1.74043e-05 2.20978e-06 0)
(-1.82306e-05 2.11926e-06 0)
(-1.90586e-05 2.03206e-06 0)
(-1.98863e-05 1.94481e-06 0)
(-2.07153e-05 1.86718e-06 0)
(-2.15418e-05 1.79758e-06 0)
(-2.23672e-05 1.73938e-06 0)
(-2.3192e-05 1.69302e-06 0)
(-2.40169e-05 1.65965e-06 0)
(-2.48438e-05 1.63907e-06 0)
(-2.56736e-05 1.63096e-06 0)
(-2.65073e-05 1.63488e-06 0)
(-2.73481e-05 1.64978e-06 0)
(-2.81975e-05 1.67391e-06 0)
(-2.90582e-05 1.70618e-06 0)
(-2.99313e-05 1.7452e-06 0)
(-3.08195e-05 1.78934e-06 0)
(-3.1724e-05 1.83737e-06 0)
(-3.2646e-05 1.88787e-06 0)
(-3.35877e-05 1.94024e-06 0)
(-3.45491e-05 1.9933e-06 0)
(-3.5532e-05 2.04698e-06 0)
(-3.65371e-05 2.1003e-06 0)
(-3.75643e-05 2.15333e-06 0)
(-3.86149e-05 2.20559e-06 0)
(-3.9689e-05 2.25728e-06 0)
(-4.0787e-05 2.3085e-06 0)
(-4.19092e-05 2.3598e-06 0)
(-4.3056e-05 2.41114e-06 0)
(-4.42278e-05 2.46285e-06 0)
(-4.54251e-05 2.51515e-06 0)
(-4.66483e-05 2.56831e-06 0)
(-4.78981e-05 2.62256e-06 0)
(-4.91749e-05 2.67805e-06 0)
(-5.04796e-05 2.73487e-06 0)
(-5.18126e-05 2.79307e-06 0)
(-5.31747e-05 2.85269e-06 0)
(-5.45667e-05 2.91371e-06 0)
(-5.59892e-05 2.97609e-06 0)
(-5.74431e-05 3.0398e-06 0)
(-5.89291e-05 3.10488e-06 0)
(-6.0448e-05 3.17135e-06 0)
(-6.20005e-05 3.23931e-06 0)
(-6.35874e-05 3.30881e-06 0)
(-6.52095e-05 3.37993e-06 0)
(-6.68678e-05 3.45276e-06 0)
(-6.85631e-05 3.52738e-06 0)
(-7.02964e-05 3.60389e-06 0)
(-7.20688e-05 3.68241e-06 0)
(-7.38814e-05 3.76312e-06 0)
(-7.57352e-05 3.84617e-06 0)
(-7.76316e-05 3.93167e-06 0)
(-7.95714e-05 4.01964e-06 0)
(-8.15562e-05 4.11008e-06 0)
(-8.35868e-05 4.20287e-06 0)
(-8.56646e-05 4.29798e-06 0)
(-8.77907e-05 4.3953e-06 0)
(-8.99664e-05 4.49481e-06 0)
(-9.21927e-05 4.59654e-06 0)
(-9.44711e-05 4.70062e-06 0)
(-9.68028e-05 4.80722e-06 0)
(-9.91892e-05 4.9165e-06 0)
(-0.000101632 5.02857e-06 0)
(-0.000104131 5.14355e-06 0)
(-0.00010669 5.26146e-06 0)
(-0.00010931 5.38238e-06 0)
(-0.000111991 5.50628e-06 0)