/*--------------------------------*- C++ -*----------------------------------*\
| =========                 |                                                 |
| \\      /  F ield         | OpenFOAM: The Open Source CFD Toolbox           |
|  \\    /   O peration     | Version:  2412                                  |
|   \\  /    A nd           | Website:  www.openfoam.com                      |
|    \\/     M anipulation  |                                                 |
\*---------------------------------------------------------------------------*/
FoamFile
{
    version     2.0;
    format      ascii;
    arch        "LSB;label=32;scalar=64";
    class       surfaceScalarField;
    location    "7.16";
    object      phi;
}
// * * * * * * * * * * * * * * * * * * * * * * * * * * * * * * * * * * * * * //

dimensions      [0 3 -1 0 0 0 0];

oriented        oriented;

internalField   nonuniform List<scalar> 
158920
(
-2.35604e-05
2.35604e-05
-4.59308e-05
2.24958e-05
-6.80903e-05
2.22685e-05
-8.94568e-05
2.1449e-05
-0.000110768
2.13712e-05
-0.000132132
2.14075e-05
-0.000153499
2.13964e-05
-0.00017484
2.1362e-05
-0.000196117
2.12919e-05
-0.00021736
2.12527e-05
-0.000238549
2.11959e-05
-0.000259663
2.11184e-05
-0.000280695
2.1036e-05
-0.000301643
2.09498e-05
-0.0003225
2.08588e-05
-0.000343248
2.07492e-05
-0.000363873
2.06264e-05
-0.00038437
2.0498e-05
-0.000404727
2.03568e-05
-0.000424932
2.02057e-05
-0.000444978
2.00462e-05
-0.000464853
1.98752e-05
-0.000484549
1.96959e-05
-0.000504056
1.95068e-05
-0.000523364
1.93085e-05
-0.000542466
1.91015e-05
-0.000561351
1.88843e-05
-0.000580009
1.86583e-05
-0.000598434
1.84248e-05
-0.000616618
1.8183e-05
-0.00063455
1.79319e-05
-0.000652224
1.76733e-05
-0.00066963
1.74059e-05
-0.000686761
1.71304e-05
-0.000703609
1.68467e-05
-0.000720164
1.65548e-05
-0.000736419
1.62547e-05
-0.000752366
1.59464e-05
-0.000767997
1.56299e-05
-0.000783303
1.53054e-05
-0.000798277
1.4973e-05
-0.00081291
1.46328e-05
-0.000827196
1.42847e-05
-0.000841125
1.39288e-05
-0.000854691
1.35652e-05
-0.000867886
1.31939e-05
-0.000880702
1.28152e-05
-0.000893132
1.2429e-05
-0.000905168
1.20355e-05
-0.000916804
1.16346e-05
-0.000928031
1.12264e-05
-0.000938843
1.0811e-05
-0.000949232
1.03886e-05
-0.000959192
9.95934e-06
-0.000968717
9.52338e-06
-0.000977798
9.08079e-06
-0.000986431
8.63163e-06
-0.000994608
8.17597e-06
-0.00100232
7.71391e-06
-0.00100957
7.24561e-06
-0.00101634
6.77125e-06
-0.00102263
6.29097e-06
-0.00102844
5.80491e-06
-0.00103375
5.31314e-06
-0.00103857
4.81573e-06
-0.00104288
4.31276e-06
-0.00104669
3.80436e-06
-0.00104998
3.2907e-06
-0.00105275
2.772e-06
-0.001055
2.2485e-06
-0.00105672
1.72048e-06
-0.00105791
1.18823e-06
-0.00105856
6.52109e-07
-0.00105868
1.12431e-07
-0.00105822
-4.5137e-07
-0.00105723
-9.92219e-07
-0.00105569
-1.54175e-06
-0.00105359
-2.09974e-06
-0.00105093
-2.66547e-06
-0.0010477
-3.23079e-06
-0.0010439
-3.7978e-06
-0.00103953
-4.36852e-06
-0.00103459
-4.94235e-06
-0.00102907
-5.51895e-06
-0.00102297
-6.09809e-06
-0.00101629
-6.68005e-06
-0.00100903
-7.26233e-06
-0.00100118
-7.84642e-06
-0.000992748
-8.43394e-06
-0.000983725
-9.0236e-06
-0.000974108
-9.61606e-06
-0.000963898
-1.02098e-05
-0.000953098
-1.08e-05
-0.000941705
-1.13933e-05
-0.000929716
-1.19882e-05
-0.00091713
-1.25858e-05
-0.00090395
-1.31798e-05
-0.000890176
-1.37737e-05
-0.000875807
-1.43686e-05
-0.000860841
-1.49655e-05
-0.00084528
-1.55602e-05
-0.000829128
-1.61519e-05
-0.000812383
-1.67442e-05
-0.000795047
-1.7336e-05
-0.000777119
-1.79276e-05
-0.000758601
-1.85171e-05
-0.000739498
-1.9103e-05
-0.000719809
-1.96879e-05
-0.000699537
-2.02715e-05
-0.000678684
-2.08526e-05
-0.000657252
-2.14315e-05
-0.000635244
-2.20078e-05
-0.000612663
-2.25805e-05
-0.000589512
-2.31504e-05
-0.000565795
-2.37172e-05
-0.000541514
-2.42804e-05
-0.000516674
-2.48398e-05
-0.000491278
-2.53954e-05
-0.000465331
-2.59469e-05
-0.000438837
-2.64936e-05
-0.000411801
-2.70358e-05
-0.000384228
-2.75736e-05
-0.000356122
-2.81058e-05
-0.000327488
-2.86333e-05
-0.000298333
-2.91555e-05
-0.00026866
-2.96722e-05
-0.000238477
-3.01838e-05
-0.000207787
-3.06892e-05
-0.000176601
-3.11867e-05
-0.000144923
-3.16775e-05
-0.000112761
-3.21621e-05
-8.01174e-05
-3.2644e-05
-4.69984e-05
-3.31191e-05
-1.34133e-05
-3.35852e-05
2.06314e-05
-3.40448e-05
5.51272e-05
-3.44958e-05
9.00695e-05
-3.49423e-05
0.000125449
-3.53796e-05
0.000161261
-3.58115e-05
0.000197489
-3.62285e-05
0.000234126
-3.66363e-05
0.000271161
-3.70357e-05
0.000308586
-3.74245e-05
0.000346394
-3.78081e-05
0.000384571
-3.81772e-05
0.000423113
-3.85413e-05
0.000462005
-3.8892e-05
0.00050124
-3.92354e-05
0.000540807
-3.95656e-05
0.000580692
-3.98852e-05
0.000620887
-4.01944e-05
0.000661379
-4.04906e-05
0.000702161
-4.07818e-05
0.000743217
-4.10549e-05
0.000784535
-4.13171e-05
0.000826106
-4.15701e-05
0.000867915
-4.18075e-05
0.000909946
-4.20296e-05
0.0009522
-4.22531e-05
0.000994652
-4.24503e-05
0.00103729
-4.26374e-05
0.0010801
-4.28094e-05
0.00112307
-4.29726e-05
0.00116619
-4.31184e-05
0.00120945
-4.32504e-05
0.00125281
-4.3368e-05
0.00129629
-4.34707e-05
0.00133985
-4.35625e-05
0.00138349
-4.36349e-05
0.00142718
-4.3692e-05
0.00147092
-4.3735e-05
0.00151468
-4.37603e-05
0.00155845
-4.37708e-05
0.00160222
-4.37654e-05
0.00164596
-4.37421e-05
0.00168966
-4.37015e-05
0.00173331
-4.36471e-05
0.00177688
-4.35755e-05
0.00182037
-4.34837e-05
0.00186374
-4.33709e-05
0.00190698
-4.32405e-05
0.00195009
-4.31061e-05
0.00199302
-4.29378e-05
0.00203578
-4.27518e-05
0.00207832
-4.25488e-05
0.00212065
-4.23266e-05
0.00216273
-4.20837e-05
0.00220455
-4.18205e-05
0.00224609
-4.15381e-05
0.00228732
-4.12335e-05
0.00232823
-4.09081e-05
0.00236879
-4.0563e-05
0.00240899
-4.01963e-05
0.0024488
-3.98064e-05
0.00248819
-3.93947e-05
0.00252715
-3.89601e-05
0.00256565
-3.85031e-05
0.00260368
-3.80231e-05
0.0026412
-3.7522e-05
0.00267819
-3.6995e-05
0.00271463
-3.64425e-05
0.0027505
-3.58684e-05
0.00278577
-3.52722e-05
0.00282042
-3.46465e-05
0.00285441
-3.39969e-05
0.00288773
-3.33229e-05
0.00292036
-3.2624e-05
0.00295225
-3.18977e-05
0.0029834
-3.11461e-05
0.00301377
-3.03702e-05
0.00304333
-2.95642e-05
0.00307207
-2.87324e-05
0.00309994
-2.78743e-05
0.00312693
-2.69903e-05
0.00315301
-2.60756e-05
0.00317815
-2.51373e-05
0.00320232
-2.41713e-05
0.00322549
-2.31732e-05
0.00324764
-2.21485e-05
0.00326873
-2.10975e-05
0.00328875
-2.00166e-05
0.00330766
-1.89091e-05
0.00332543
-1.77681e-05
0.00334203
-1.66077e-05
0.00335744
-1.54084e-05
0.00337163
-1.41889e-05
0.00338457
-1.29407e-05
0.00339623
-1.1659e-05
0.00340658
-1.03487e-05
0.00341559
-9.01405e-06
0.00342324
-7.65156e-06
0.0034295
-6.25995e-06
0.00343435
-4.84288e-06
0.00343775
-3.40003e-06
0.00343968
-1.93383e-06
0.00344012
-4.43204e-07
0.00343898
1.1404e-06
0.00343632
2.65467e-06
0.00343207
4.24896e-06
0.00342626
5.81388e-06
0.00341882
7.43666e-06
0.00340973
9.0891e-06
0.003399
1.07323e-05
0.00338657
1.2433e-05
0.00337246
1.41161e-05
0.00335662
1.58325e-05
0.00333905
1.75729e-05
0.00331974
1.93055e-05
0.00329867
2.10712e-05
0.00327584
2.28248e-05
0.00325123
2.4606e-05
0.00322484
2.63923e-05
0.00319666
2.81708e-05
0.00316669
2.99684e-05
0.00313495
3.17431e-05
0.00310142
3.35283e-05
0.00306611
3.53143e-05
0.00302903
3.70763e-05
0.0029902
3.88369e-05
0.00294962
4.05822e-05
0.00290733
4.22922e-05
0.00286333
4.39986e-05
0.00281764
4.56858e-05
0.00277032
4.73251e-05
0.00272138
4.89379e-05
0.00267085
5.05204e-05
0.00261879
5.20627e-05
0.00256522
5.35567e-05
0.00251021
5.50094e-05
0.00245379
5.64154e-05
0.00239603
5.77622e-05
0.00233698
5.90438e-05
0.00227672
6.02696e-05
0.00221528
6.14384e-05
0.00215275
6.25359e-05
0.00208919
6.3556e-05
0.0020247
6.44932e-05
0.00195934
6.53599e-05
0.0018932
6.61436e-05
0.00182634
6.6855e-05
0.00175887
6.7463e-05
0.00169089
6.79758e-05
0.00162247
6.84208e-05
0.00155369
6.87662e-05
0.00148467
6.90253e-05
0.00141549
6.91754e-05
0.00134625
6.92327e-05
0.00127706
6.91951e-05
0.00120798
6.90721e-05
0.00113913
6.88595e-05
0.00107059
6.85368e-05
0.00100248
6.81086e-05
0.000934893
6.75857e-05
0.000867902
6.69897e-05
0.000801583
6.63168e-05
0.000736039
6.55408e-05
0.000671382
6.46526e-05
0.000607688
6.36912e-05
0.000545028
6.26568e-05
0.000483467
6.15592e-05
0.000423065
6.04007e-05
0.000363921
5.91427e-05
0.000306134
5.77865e-05
0.000249761
5.63723e-05
0.000194838
5.49237e-05
0.000141422
5.34169e-05
8.95617e-05
5.18597e-05
3.93018e-05
5.02567e-05
-9.30396e-06
4.86016e-05
-5.62043e-05
4.68976e-05
-0.000101234
4.50294e-05
-0.000144556
4.33217e-05
-0.000186052
4.14927e-05
-0.000225659
3.96008e-05
-0.000263363
3.76992e-05
-0.000299134
3.57704e-05
-0.000332971
3.38407e-05
-0.000364882
3.19123e-05
-0.000394838
2.99495e-05
-0.000422785
2.79371e-05
-0.000448734
2.59429e-05
-0.000472718
2.39883e-05
-0.00049465
2.19395e-05
-0.00051463
1.99821e-05
-0.000532673
1.80352e-05
-0.000548643
1.59599e-05
-0.000562619
1.39727e-05
-0.000574617
1.20032e-05
-0.000584627
1.00175e-05
-0.000592626
8.00066e-06
-0.000598626
5.99314e-06
-0.000602655
4.02087e-06
-0.000604722
2.06546e-06
-0.000604812
9.98557e-08
-0.000602935
-1.86461e-06
-0.000599068
-3.86131e-06
-0.000593208
-5.86601e-06
-0.000585429
-7.79249e-06
-0.000575758
-9.68255e-06
-0.000564121
-1.16391e-05
-0.00055049
-1.36216e-05
-0.000534933
-1.55415e-05
-0.000517466
-1.74502e-05
-0.000498122
-1.93367e-05
-0.000476907
-2.12186e-05
-0.000453842
-2.30803e-05
-0.000428933
-2.493e-05
-0.000402146
-2.6804e-05
-0.00037354
-2.86115e-05
-0.000343194
-3.0338e-05
-0.000311183
-3.19975e-05
-0.000277506
-3.36681e-05
-0.000242139
-3.53695e-05
-0.000205132
-3.70217e-05
-0.000166596
-3.85521e-05
-0.000126565
-4.00412e-05
-8.50573e-05
-4.15055e-05
-4.21418e-05
-4.29054e-05
2.08284e-06
-4.4215e-05
4.76155e-05
-4.55306e-05
9.43718e-05
-4.67629e-05
0.000142228
-4.78657e-05
0.000191114
-4.8892e-05
0.000240961
-4.98459e-05
0.000291734
-5.07695e-05
0.000343345
-5.16096e-05
0.000395644
-5.23002e-05
0.000448497
-5.28549e-05
0.000501886
-5.33876e-05
0.000555767
-5.3876e-05
0.000609993
-5.42218e-05
0.000664434
-5.44401e-05
0.000719056
-5.46233e-05
0.000773657
-5.46034e-05
0.000828267
-5.46102e-05
0.000882838
-5.45696e-05
0.000937248
-5.4409e-05
0.000991326
-5.40781e-05
0.00104495
-5.36216e-05
0.00109802
-5.30752e-05
0.00115059
-5.25664e-05
0.00120253
-5.19405e-05
0.00125369
-5.11531e-05
0.00130392
-5.02391e-05
0.00135323
-4.9314e-05
0.00140151
-4.82974e-05
0.0014487
-4.71886e-05
0.00149463
-4.59327e-05
0.00153926
-4.46148e-05
0.00158249
-4.32303e-05
0.00162426
-4.17685e-05
0.00166442
-4.01561e-05
0.00170285
-3.84372e-05
0.00173951
-3.66668e-05
0.00177443
-3.49222e-05
0.00180741
-3.29873e-05
0.0018384
-3.09921e-05
0.00186732
-2.89185e-05
0.00189405
-2.67328e-05
0.00191857
-2.45241e-05
0.00194085
-2.22777e-05
0.00196086
-2.00113e-05
0.00197841
-1.75495e-05
0.00199346
-1.50518e-05
0.00200602
-1.25625e-05
0.00201604
-1.00115e-05
0.00202352
-7.48701e-06
0.00202837
-4.84924e-06
0.00203058
-2.2065e-06
0.00203009
4.92198e-07
0.00202699
3.0941e-06
0.0020212
5.79367e-06
0.00201269
8.50089e-06
0.00200156
1.11359e-05
0.00198782
1.37353e-05
0.00197147
1.63537e-05
0.00195251
1.89599e-05
0.00193106
2.14488e-05
0.00190709
2.3968e-05
0.00188063
2.64612e-05
0.00185178
2.88476e-05
0.00182054
3.12438e-05
0.00178706
3.34827e-05
0.00175136
3.56968e-05
0.00171345
3.79066e-05
0.00167347
3.99729e-05
0.00163146
4.20185e-05
0.0015876
4.38602e-05
0.00154195
4.56488e-05
0.00149453
4.7417e-05
0.00144552
4.90167e-05
0.00139488
5.06327e-05
0.00134287
5.20134e-05
0.00128952
5.33519e-05
0.00123496
5.45565e-05
0.00117933
5.56323e-05
0.00112263
5.66988e-05
0.00106508
5.75534e-05
0.00100668
5.84017e-05
0.000947692
5.89846e-05
0.000888166
5.95247e-05
0.00082825
5.99153e-05
0.000768089
6.01595e-05
0.000707858
6.02303e-05
0.000647576
6.02814e-05
0.000587441
6.01342e-05
0.000527471
5.99698e-05
0.000467939
5.95317e-05
0.000408929
5.90105e-05
0.000350627
5.83022e-05
0.000293188
5.74382e-05
0.000236673
5.65155e-05
0.00018127
5.54035e-05
0.000127057
5.42128e-05
7.41717e-05
5.28853e-05
2.27346e-05
5.14372e-05
-2.70459e-05
4.97804e-05
-7.50245e-05
4.79786e-05
-0.000121271
4.62461e-05
-0.000165565
4.42943e-05
-0.000207664
4.20992e-05
-0.000247588
3.99239e-05
-0.000285254
3.76657e-05
-0.000320584
3.53302e-05
-0.000353379
3.27953e-05
-0.000383628
3.02481e-05
-0.000411257
2.76287e-05
-0.000436317
2.50591e-05
-0.000458683
2.23661e-05
-0.000478328
1.96448e-05
-0.000495241
1.69134e-05
-0.000509385
1.41426e-05
-0.000520716
1.13299e-05
-0.000529331
8.6149e-06
-0.000535279
5.94668e-06
-0.000538583
3.30419e-06
-0.000539275
6.91063e-07
-0.000537452
-1.82247e-06
-0.000533124
-4.329e-06
-0.000526405
-6.71936e-06
-0.000517431
-8.97531e-06
-0.000506287
-1.11455e-05
-0.000493033
-1.32537e-05
-0.00047782
-1.52126e-05
-0.000460758
-1.70619e-05
-0.000441961
-1.87963e-05
-0.000421715
-2.02466e-05
-0.000400074
-2.16412e-05
-0.00037707
-2.3004e-05
-0.000353007
-2.40619e-05
-0.000327914
-2.5092e-05
-0.000302012
-2.59016e-05
-0.000275422
-2.65896e-05
-0.000248323
-2.70988e-05
-0.000220829
-2.7493e-05
-0.00019314
-2.7686e-05
-0.000165377
-2.77603e-05
-0.000137644
-2.77311e-05
-0.000110144
-2.74998e-05
-8.29395e-05
-2.72052e-05
-5.62434e-05
-2.6696e-05
-3.0096e-05
-2.61464e-05
-4.61909e-06
-2.54752e-05
2.00972e-05
-2.47149e-05
4.38534e-05
-2.37561e-05
6.66163e-05
-2.27641e-05
8.84531e-05
-2.18386e-05
0.000109155
-2.07039e-05
0.000128749
-1.95953e-05
0.000147146
-1.83971e-05
0.000164186
-1.70416e-05
0.000180056
-1.58716e-05
0.000194598
-1.45432e-05
0.000207944
-1.33486e-05
0.000219932
-1.19887e-05
0.000230661
-1.07303e-05
0.000240192
-9.53134e-06
0.000248529
-8.33822e-06
0.000255844
-7.31528e-06
0.000262065
-6.22175e-06
0.000267312
-5.24839e-06
0.000271677
-4.36449e-06
0.000275242
-3.56574e-06
0.000278061
-2.81911e-06
0.000280285
-2.22432e-06
0.000281992
-1.70692e-06
0.000283154
-1.16178e-06
0.00028405
-8.9556e-07
0.000284579
-5.27553e-07
0.000284937
-3.57593e-07
0.000285141
-2.04583e-07
0.000285246
-1.05786e-07
0.000285369
-1.23282e-07
0.000285425
-5.65421e-08
0.000285623
-1.97956e-07
0.000285808
-1.84497e-07
0.000286023
-2.14626e-07
0.000286324
-3.01015e-07
0.000286631
-3.07088e-07
0.000286981
-3.51165e-07
0.000287428
-4.47234e-07
0.000287921
-4.9234e-07
0.000288584
-6.63856e-07
0.000289318
-7.33552e-07
0.000290189
-8.72205e-07
0.000291091
-9.01439e-07
0.00029206
-9.69624e-07
0.000292984
-9.24244e-07
0.000294013
-1.02939e-06
0.0002951
-1.08788e-06
0.000296215
-1.11555e-06
0.000297301
-1.08697e-06
0.000298327
-1.0262e-06
0.00029924
-9.13703e-07
0.000299879
-6.39986e-07
0.000300164
-2.85365e-07
0.000300053
1.10646e-07
0.000299663
3.89599e-07
0.000299027
6.35159e-07
0.000298039
9.87672e-07
0.00029666
1.37837e-06
0.000294787
1.87255e-06
0.000292268
2.51905e-06
0.000289193
3.07475e-06
0.000285499
3.69343e-06
0.000281132
4.36803e-06
0.000276034
5.09722e-06
0.000270301
5.73355e-06
0.000263823
6.47757e-06
0.000256499
7.32457e-06
0.000248316
8.18272e-06
0.000239231
9.08566e-06
0.000229097
1.01345e-05
0.000217955
1.11421e-05
0.000205801
1.21543e-05
0.000192347
1.34534e-05
0.000177418
1.49297e-05
0.000160239
1.7179e-05
0.000141646
1.85934e-05
0.000119843
2.18032e-05
9.47565e-05
2.50868e-05
8.13863e-05
1.33705e-05
8.60678e-05
-4.68124e-06
8.10463e-05
5.02177e-06
6.08644e-05
2.01821e-05
3.47367e-05
2.61279e-05
1.87701e-05
1.59668e-05
2.24913e-05
-3.7209e-06
1.70212e-05
5.47051e-06
-7.51717e-06
2.45388e-05
-3.35884e-05
2.60716e-05
-5.6473e-05
2.28848e-05
-7.78795e-05
2.14067e-05
-9.76316e-05
1.97523e-05
-0.000116111
1.84796e-05
-0.000133518
1.74069e-05
-0.000149994
1.64765e-05
-0.000165703
1.57089e-05
-0.000180695
1.4992e-05
-0.000195032
1.43367e-05
-0.000208739
1.37065e-05
-0.00022172
1.29816e-05
-0.000233946
1.22253e-05
-0.000245448
1.15029e-05
-0.00025605
1.06015e-05
-0.000266005
9.95525e-06
-0.000275121
9.11647e-06
-0.000283353
8.23181e-06
-0.000290769
7.416e-06
-0.000297291
6.522e-06
-0.00030303
5.73915e-06
-0.000308022
4.99179e-06
-0.000312234
4.21248e-06
-0.000315726
3.49176e-06
-0.000318416
2.68946e-06
-0.000320406
1.99046e-06
-0.000321862
1.45544e-06
-0.000322799
9.37219e-07
-0.000323241
4.4136e-07
-0.000323131
-1.09961e-07
-0.000322461
-6.70198e-07
-0.000321378
-1.08293e-06
-0.000319966
-1.4127e-06
-0.000318437
-1.5289e-06
-0.000316557
-1.88042e-06
-0.000314288
-2.26824e-06
-0.000311668
-2.62069e-06
-0.000308845
-2.82329e-06
-0.000305822
-3.02271e-06
-0.000302566
-3.25618e-06
-0.000299155
-3.41194e-06
-0.000295494
-3.66086e-06
-0.000291763
-3.73078e-06
-0.000287915
-3.84781e-06
-0.000283976
-3.9394e-06
-0.000279941
-4.03504e-06
-0.000275868
-4.07282e-06
-0.000271613
-4.25469e-06
-0.000267541
-4.07192e-06
-0.000263465
-4.07657e-06
-0.000258988
-4.47716e-06
-0.000254292
-4.69638e-06
-0.000249109
-5.18331e-06
-0.000243443
-5.66554e-06
-0.00023729
-6.15345e-06
-0.000230549
-6.74127e-06
-0.00022314
-7.40921e-06
-0.000214943
-8.19694e-06
-0.000206032
-8.91137e-06
-0.000196054
-9.97773e-06
-0.000185053
-1.10019e-05
-0.000172988
-1.20654e-05
-0.000160006
-1.29821e-05
-0.000145912
-1.40946e-05
-0.000130703
-1.52088e-05
-0.000114388
-1.63154e-05
-9.66833e-05
-1.77051e-05
-7.76017e-05
-1.90819e-05
-5.7463e-05
-2.0139e-05
-3.62845e-05
-2.11788e-05
-1.42587e-05
-2.20261e-05
8.57651e-06
-2.28355e-05
3.25194e-05
-2.39433e-05
5.75964e-05
-2.50775e-05
8.35863e-05
-2.59904e-05
0.000110175
-2.65892e-05
0.000137164
-2.69892e-05
0.000164405
-2.72417e-05
0.000191871
-2.74667e-05
0.000219588
-2.77178e-05
0.000247181
-2.75931e-05
0.000274645
-2.74641e-05
0.000301469
-2.6824e-05
0.00032763
-2.6161e-05
0.000352871
-2.5242e-05
0.000376944
-2.4073e-05
0.000399993
-2.30487e-05
0.000421525
-2.15324e-05
0.000441201
-1.96766e-05
0.000458797
-1.75963e-05
0.00047426
-1.54632e-05
0.000487213
-1.2953e-05
0.000497513
-1.02992e-05
0.000505074
-7.56155e-06
0.000509719
-4.64473e-06
0.000511169
-1.44921e-06
0.000509304
1.86544e-06
0.000504201
5.10335e-06
0.00049514
9.06136e-06
0.000482565
1.25759e-05
0.000466106
1.646e-05
0.000445813
2.02936e-05
0.000421947
2.38667e-05
0.000394393
2.75546e-05
0.000362955
3.14382e-05
0.00032777
3.51855e-05
0.000288873
3.88981e-05
0.000246264
4.2609e-05
0.000200455
4.58096e-05
0.000151387
4.90681e-05
9.92174e-05
5.21699e-05
4.40379e-05
5.51799e-05
-1.39931e-05
5.80315e-05
-7.45604e-05
6.05678e-05
-0.000137551
6.29906e-05
-0.000202706
6.51556e-05
-0.000269334
6.66276e-05
-0.000337515
6.81819e-05
-0.000407279
6.97646e-05
-0.000478237
7.09591e-05
-0.000550016
7.17796e-05
-0.000622297
7.22825e-05
-0.000694953
7.26576e-05
-0.000767581
7.26305e-05
-0.000840066
7.24864e-05
-0.000912127
7.20633e-05
-0.000983478
7.1355e-05
-0.00105388
7.04031e-05
-0.00112298
6.9102e-05
-0.0011905
6.75297e-05
-0.00125629
6.57891e-05
-0.00132033
6.40408e-05
-0.00138243
6.21005e-05
-0.00144228
5.98488e-05
-0.00149956
5.72794e-05
-0.00155423
5.46695e-05
-0.00160603
5.18007e-05
-0.00165495
4.89211e-05
-0.00170084
4.58885e-05
-0.00174366
4.28209e-05
-0.00178333
3.96651e-05
-0.00181964
3.63104e-05
-0.00185243
3.27872e-05
-0.00188156
2.91311e-05
-0.00190717
2.56096e-05
-0.00192922
2.20503e-05
-0.00194782
1.86017e-05
-0.00196286
1.50378e-05
-0.00197416
1.13016e-05
-0.00198201
7.84684e-06
-0.00198617
4.15499e-06
-0.00198666
4.93409e-07
-0.00198349
-3.17219e-06
-0.00197685
-6.63836e-06
-0.00196684
-1.00121e-05
-0.00195343
-1.34031e-05
-0.00193661
-1.68191e-05
-0.00191656
-2.00477e-05
-0.00189321
-2.33493e-05
-0.00186675
-2.64567e-05
-0.00183734
-2.94107e-05
-0.00180481
-3.25313e-05
-0.00176936
-3.54511e-05
-0.00173116
-3.82048e-05
-0.00169027
-4.08834e-05
-0.00164686
-4.34131e-05
-0.00160105
-4.58126e-05
-0.00155286
-4.81842e-05
-0.00150251
-5.03562e-05
-0.00145005
-5.24574e-05
-0.00139558
-5.44691e-05
-0.00133928
-5.63031e-05
-0.00128124
-5.80402e-05
-0.00122163
-5.96053e-05
-0.00116065
-6.09809e-05
-0.00109832
-6.23392e-05
-0.00103483
-6.3491e-05
-0.000970371
-6.44585e-05
-0.00090519
-6.51817e-05
-0.000839458
-6.57331e-05
-0.000773277
-6.61812e-05
-0.000706861
-6.64158e-05
-0.000640457
-6.6405e-05
-0.00057426
-6.61976e-05
-0.000508301
-6.59611e-05
-0.000442767
-6.55373e-05
-0.000378012
-6.47581e-05
-0.000314239
-6.3776e-05
-0.000251613
-6.2629e-05
-0.000190292
-6.13245e-05
-0.000130521
-5.97727e-05
-7.24679e-05
-5.80547e-05
-1.62101e-05
-5.62589e-05
3.80297e-05
-5.42406e-05
9.01776e-05
-5.21488e-05
0.000140101
-4.99243e-05
0.00018758
-4.74814e-05
0.000232543
-4.49654e-05
0.000274882
-4.23409e-05
0.000314477
-3.95982e-05
0.000351219
-3.67445e-05
0.000384972
-3.37552e-05
0.000415668
-3.06972e-05
0.000443268
-2.75997e-05
0.000467626
-2.43575e-05
0.000488647
-2.10209e-05
0.000506231
-1.75829e-05
0.000520298
-1.40674e-05
0.000530747
-1.04499e-05
0.000537514
-6.76736e-06
0.000540537
-3.02294e-06
0.000539755
7.80859e-07
0.000535182
4.57294e-06
0.000526682
8.50137e-06
0.000514285
1.23988e-05
0.000497861
1.64268e-05
0.000477419
2.04455e-05
0.000452873
2.45484e-05
0.000424123
2.87525e-05
0.00039125
3.28746e-05
0.000354241
3.70097e-05
0.000313079
4.11622e-05
0.000267767
4.53115e-05
0.000218345
4.94221e-05
0.000164863
5.34814e-05
0.000107409
5.74549e-05
4.61024e-05
6.13083e-05
-1.85662e-05
6.46715e-05
-8.6978e-05
6.84153e-05
-0.000158832
7.18573e-05
-0.000233924
7.50938e-05
-0.0003121
7.81767e-05
-0.000393219
8.11176e-05
-0.000477047
8.38271e-05
-0.00056334
8.62918e-05
-0.000651849
8.85069e-05
-0.000742318
9.0466e-05
-0.00083449
9.21715e-05
-0.000928129
9.36414e-05
-0.00102298
9.48575e-05
-0.00111878
9.57924e-05
-0.00121522
9.64422e-05
-0.00131203
9.68194e-05
-0.00140895
9.69185e-05
-0.00150568
9.67383e-05
-0.00160196
9.62786e-05
-0.00169754
9.55742e-05
-0.00179216
9.4624e-05
-0.00188556
9.34046e-05
-0.00197751
9.19503e-05
-0.00206777
9.02621e-05
-0.00215612
8.83416e-05
-0.00224234
8.62149e-05
-0.00232621
8.38738e-05
-0.00240757
8.13565e-05
-0.00248623
7.86631e-05
-0.00256204
7.57987e-05
-0.00263479
7.27567e-05
-0.00270437
6.95726e-05
-0.00277064
6.6273e-05
-0.00283352
6.28777e-05
-0.00289292
5.93998e-05
-0.00294876
5.58416e-05
-0.00300096
5.22006e-05
-0.00304946
4.85e-05
-0.0030942
4.47441e-05
-0.00313517
4.09682e-05
-0.00317239
3.72174e-05
-0.00320589
3.35033e-05
-0.00323565
2.97594e-05
-0.00326172
2.60733e-05
-0.00328413
2.24041e-05
-0.00330293
1.88029e-05
-0.0033182
1.52709e-05
-0.00332997
1.17804e-05
-0.00333834
8.36394e-06
-0.00334334
5.00291e-06
-0.00334505
1.71583e-06
-0.00334351
-1.5461e-06
-0.00333886
-4.64802e-06
-0.00333118
-7.68096e-06
-0.00332053
-1.06482e-05
-0.00330694
-1.35918e-05
-0.00329042
-1.65116e-05
-0.00327106
-1.93671e-05
-0.00324893
-2.2132e-05
-0.00322414
-2.47885e-05
-0.00319674
-2.73949e-05
-0.00316676
-2.99821e-05
-0.00313424
-3.25155e-05
-0.00309926
-3.49833e-05
-0.00306186
-3.73934e-05
-0.00302213
-3.97387e-05
-0.00298013
-4.19903e-05
-0.00293601
-4.41261e-05
-0.00288974
-4.62713e-05
-0.00284138
-4.83539e-05
-0.00279103
-5.03539e-05
-0.00273875
-5.22818e-05
-0.00268461
-5.41376e-05
-0.00262876
-5.58487e-05
-0.00257125
-5.75038e-05
-0.00251219
-5.90641e-05
-0.00245163
-6.05626e-05
-0.00238964
-6.19855e-05
-0.00232636
-6.32779e-05
-0.00226187
-6.44911e-05
-0.00219624
-6.56287e-05
-0.00212955
-6.66946e-05
-0.00206185
-6.76952e-05
-0.0019933
-6.85519e-05
-0.00192397
-6.93305e-05
-0.00185396
-7.00109e-05
-0.00178337
-7.05934e-05
-0.00171226
-7.11058e-05
-0.00164071
-7.15543e-05
-0.00156876
-7.19491e-05
-0.00149659
-7.21721e-05
-0.00142426
-7.23266e-05
-0.0013518
-7.24591e-05
-0.00127932
-7.24855e-05
-0.00120691
-7.24105e-05
-0.00113466
-7.22499e-05
-0.00106262
-7.20388e-05
-0.000990847
-7.17744e-05
-0.000919425
-7.14229e-05
-0.000848452
-7.09746e-05
-0.000778074
-7.03792e-05
-0.000708264
-6.98109e-05
-0.000639065
-6.92004e-05
-0.000570556
-6.85103e-05
-0.000502862
-6.76964e-05
-0.00043599
-6.68737e-05
-0.000370116
-6.58755e-05
-0.000305185
-6.49324e-05
-0.000241272
-6.39155e-05
-0.000178457
-6.28164e-05
-0.000116835
-6.16243e-05
-5.6404e-05
-6.04326e-05
2.70756e-06
-5.91133e-05
6.05492e-05
-5.78434e-05
0.000117035
-5.64881e-05
0.000172097
-5.50627e-05
0.000225695
-5.36e-05
0.000277804
-5.21106e-05
0.000328397
-5.05944e-05
0.000377415
-4.9019e-05
0.000424815
-4.74e-05
0.000470564
-4.57505e-05
0.000514633
-4.40699e-05
0.000556986
-4.23539e-05
0.000597578
-4.05924e-05
0.000636389
-3.88119e-05
0.000673414
-3.70253e-05
0.000708614
-3.51999e-05
0.000741959
-3.33456e-05
0.000773432
-3.14726e-05
0.000803005
-2.95733e-05
0.000830674
-2.76699e-05
0.000856429
-2.57554e-05
0.000880249
-2.38194e-05
0.000902122
-2.18734e-05
0.000922037
-1.9915e-05
0.000940006
-1.79683e-05
0.000956013
-1.60069e-05
0.000970058
-1.40459e-05
0.000982141
-1.20824e-05
0.000992269
-1.01285e-05
0.00100045
-8.1788e-06
0.00100668
-6.23159e-06
0.00101098
-4.29969e-06
0.00101336
-2.38171e-06
0.00101383
-4.71541e-07
0.00101241
1.41873e-06
0.00100912
3.29237e-06
0.00100399
5.13303e-06
0.000997023
6.96452e-06
0.000988256
8.76648e-06
0.000977714
1.05416e-05
0.000965426
1.22875e-05
0.000951425
1.4001e-05
0.000935741
1.56843e-05
0.000918407
1.73334e-05
0.000899465
1.89426e-05
0.000878962
2.05024e-05
0.000856926
2.20364e-05
0.000833401
2.35247e-05
0.000808433
2.49682e-05
0.000782068
2.6365e-05
0.000754355
2.77134e-05
0.000725338
2.90167e-05
0.000695075
3.02635e-05
0.000663617
3.14593e-05
0.000631031
3.25864e-05
0.000597352
3.36787e-05
0.000562642
3.471e-05
0.000526964
3.56784e-05
0.000490378
3.65864e-05
0.000452945
3.74341e-05
0.000414723
3.82227e-05
0.00037578
3.89438e-05
0.000336191
3.95893e-05
0.000296033
4.01599e-05
0.000255376
4.06581e-05
0.000214348
4.10296e-05
0.000173328
4.10195e-05
0.000132099
4.12284e-05
8.86101e-05
4.34892e-05
4.39788e-05
4.46325e-05
4.39807e-05
-2.03098e-05
4.3751e-05
-4.2659e-05
4.46712e-05
-6.49084e-05
4.43826e-05
-8.69903e-05
4.34271e-05
-0.000108816
4.31192e-05
-0.000130403
4.29375e-05
-0.000151863
4.28158e-05
-0.00017328
4.27494e-05
-0.000194671
4.26628e-05
-0.000215981
4.25484e-05
-0.000237215
4.24208e-05
-0.00025838
4.22765e-05
-0.000279469
4.21207e-05
-0.000300466
4.1944e-05
-0.000321363
4.17534e-05
-0.00034215
4.15349e-05
-0.00036282
4.12965e-05
-0.000383361
4.10377e-05
-0.000403761
4.07567e-05
-0.000424012
4.04561e-05
-0.000444105
4.01386e-05
-0.000464029
3.97996e-05
-0.000483776
3.94421e-05
-0.000503334
3.90645e-05
-0.000522693
3.8668e-05
-0.000541847
3.82546e-05
-0.000560784
3.78209e-05
-0.000579496
3.73701e-05
-0.000597975
3.69037e-05
-0.000616214
3.64211e-05
-0.000634202
3.592e-05
-0.000651933
3.54034e-05
-0.000669397
3.48692e-05
-0.000686585
3.43185e-05
-0.00070349
3.37511e-05
-0.000720103
3.31673e-05
-0.000736416
3.25671e-05
-0.000752421
3.19506e-05
-0.000768109
3.13178e-05
-0.000783473
3.06689e-05
-0.000798505
3.00041e-05
-0.000813196
2.93237e-05
-0.00082754
2.86278e-05
-0.000841528
2.79163e-05
-0.000855153
2.71894e-05
-0.000868407
2.64469e-05
-0.000881281
2.56893e-05
-0.00089377
2.49168e-05
-0.000905864
2.41295e-05
-0.000917558
2.33276e-05
-0.000928843
2.25113e-05
-0.000939713
2.16806e-05
-0.000950161
2.08359e-05
-0.000960179
1.99774e-05
-0.000969762
1.91053e-05
-0.000978902
1.82199e-05
-0.000987592
1.73213e-05
-0.000995826
1.64098e-05
-0.0010036
1.54855e-05
-0.0010109
1.45488e-05
-0.00101773
1.35999e-05
-0.00102408
1.2639e-05
-0.00102994
1.16665e-05
-0.00103531
1.06824e-05
-0.00104018
9.68709e-06
-0.00104455
8.68065e-06
-0.00104841
7.66337e-06
-0.00105175
6.63557e-06
-0.00105458
5.59762e-06
-0.00105688
4.54988e-06
-0.00105865
3.49274e-06
-0.00105989
2.42649e-06
-0.00106059
1.35138e-06
-0.00106075
2.67381e-07
-0.00106036
-8.35912e-07
-0.00105943
-1.92906e-06
-0.00105793
-3.03755e-06
-0.00105588
-4.15395e-06
-0.00105326
-5.28106e-06
-0.00105008
-6.41088e-06
-0.00104633
-7.5471e-06
-0.00104201
-8.69013e-06
-0.00103711
-9.83876e-06
-0.00103164
-1.09927e-05
-0.00102558
-1.21517e-05
-0.00101894
-1.33181e-05
-0.00101172
-1.4485e-05
-0.00100391
-1.56546e-05
-0.000995516
-1.68311e-05
-0.000986528
-1.8011e-05
-0.000976949
-1.9194e-05
-0.000966777
-2.0382e-05
-0.000956009
-2.15669e-05
-0.000944647
-2.27548e-05
-0.000932689
-2.3945e-05
-0.000920137
-2.51372e-05
-0.000906986
-2.63306e-05
-0.000893239
-2.75195e-05
-0.000878896
-2.87107e-05
-0.000863959
-2.9902e-05
-0.000848419
-3.10991e-05
-0.000832291
-3.22799e-05
-0.000815567
-3.34668e-05
-0.000798251
-3.4652e-05
-0.000780343
-3.58345e-05
-0.000761839
-3.70202e-05
-0.000742753
-3.81887e-05
-0.000723078
-3.93613e-05
-0.000702819
-4.05298e-05
-0.000681978
-4.16932e-05
-0.000660556
-4.28521e-05
-0.000638557
-4.4006e-05
-0.000615983
-4.51538e-05
-0.000592836
-4.62965e-05
-0.000569121
-4.74322e-05
-0.000544842
-4.85587e-05
-0.000520003
-4.96784e-05
-0.000494607
-5.07907e-05
-0.000468657
-5.18959e-05
-0.000442161
-5.29891e-05
-0.000415121
-5.40758e-05
-0.00038754
-5.51536e-05
-0.000359425
-5.62204e-05
-0.000330781
-5.72768e-05
-0.000301613
-5.83227e-05
-0.000271927
-5.93574e-05
-0.000241728
-6.03824e-05
-0.000211022
-6.13945e-05
-0.000179817
-6.23918e-05
-0.000148117
-6.33776e-05
-0.000115928
-6.43499e-05
-8.32543e-05
-6.53177e-05
-5.01157e-05
-6.62574e-05
-1.65102e-05
-6.71902e-05
1.75547e-05
-6.81092e-05
5.20677e-05
-6.90083e-05
8.70286e-05
-6.99027e-05
0.000122422
-7.07723e-05
0.000158237
-7.16259e-05
0.000194469
-7.24596e-05
0.000231114
-7.32815e-05
0.000268159
-7.40798e-05
0.000305596
-7.48606e-05
0.000343415
-7.5627e-05
0.000381604
-7.63653e-05
0.000420159
-7.7095e-05
0.000459059
-7.77914e-05
0.000498311
-7.8487e-05
0.000537888
-7.9141e-05
0.000577788
-7.97845e-05
0.000617995
-8.04003e-05
0.000658504
-8.09975e-05
0.000699294
-8.15713e-05
0.000740368
-8.21276e-05
0.0007817
-8.26472e-05
0.000823285
-8.31538e-05
0.000865109
-8.36301e-05
0.000907168
-8.40878e-05
0.000949423
-8.45065e-05
0.000991885
-8.49106e-05
0.00103454
-8.5288e-05
0.00107736
-8.56349e-05
0.00112035
-8.59611e-05
0.00116349
-8.62495e-05
0.00120675
-8.65158e-05
0.00125014
-8.67531e-05
0.00129363
-8.69606e-05
0.00133721
-8.71401e-05
0.00138086
-8.7285e-05
0.00142457
-8.73998e-05
0.00146833
-8.7492e-05
0.00151211
-8.75391e-05
0.0015559
-8.75621e-05
0.00159969
-8.75526e-05
0.00164345
-8.75056e-05
0.00168718
-8.74252e-05
0.00173086
-8.73333e-05
0.00177446
-8.71753e-05
0.00181797
-8.69894e-05
0.00186137
-8.67725e-05
0.00190465
-8.65241e-05
0.00194776
-8.62092e-05
0.00199071
-8.58918e-05
0.00203349
-8.55282e-05
0.00207606
-8.51228e-05