/*--------------------------------*- C++ -*----------------------------------*\
| =========                 |                                                 |
| \\      /  F ield         | OpenFOAM: The Open Source CFD Toolbox           |
|  \\    /   O peration     | Version:  2412                                  |
|   \\  /    A nd           | Website:  www.openfoam.com                      |
|    \\/     M anipulation  |                                                 |
\*---------------------------------------------------------------------------*/
FoamFile
{
    version     2.0;
    format      ascii;
    arch        "LSB;label=32;scalar=64";
    class       surfaceScalarField;
    location    "0.2";
    object      phi;
}
// * * * * * * * * * * * * * * * * * * * * * * * * * * * * * * * * * * * * * //

dimensions      [0 3 -1 0 0 0 0];

oriented        oriented;

internalField   nonuniform List<scalar> 
12640
(
-8.14216e-11
8.14225e-11
-4.49349e-10
3.18131e-10
-1.00679e-09
5.1136e-10
-1.67979e-09
6.275e-10
-2.40719e-09
6.80502e-10
-3.14362e-09
6.88891e-10
-3.85985e-09
6.69361e-10
-4.53923e-09
6.34531e-10
-5.17401e-09
5.92851e-10
-5.76191e-09
5.49136e-10
-6.30299e-09
5.04935e-10
-6.79876e-09
4.60901e-10
-7.2503e-09
4.16306e-10
-7.65801e-09
3.70491e-10
-8.02083e-09
3.22529e-10
-8.33714e-09
2.7245e-10
-8.60397e-09
2.19944e-10
-8.81841e-09
1.65808e-10
-8.97681e-09
1.10012e-10
-9.07569e-09
5.28524e-11
-9.11263e-09
-4.80965e-12
-9.08613e-09
-6.24294e-11
-8.99557e-09
-1.19908e-10
-8.84141e-09
-1.77164e-10
-8.6253e-09
-2.33919e-10
-8.34974e-09
-2.90167e-10
-8.01777e-09
-3.45903e-10
-7.63293e-09
-4.00804e-10
-7.19899e-09
-4.54454e-10
-6.71956e-09
-5.06442e-10
-6.19796e-09
-5.5614e-10
-5.63726e-09
-6.02661e-10
-5.04019e-09
-6.45135e-10
-4.40912e-09
-6.82862e-10
-3.74617e-09
-7.15249e-10
-3.05373e-09
-7.41733e-10
-2.33483e-09
-7.61864e-10
-1.5936e-09
-7.75398e-10
-8.35528e-10
-7.82304e-10
-6.76343e-11
-7.82739e-10
7.01821e-10
-7.77094e-10
1.46399e-09
-7.6604e-10
2.21042e-09
-7.50455e-10
2.93401e-09
-7.31202e-10
3.62974e-09
-7.08868e-10
4.29484e-09
-6.83587e-10
4.92831e-09
-6.55001e-10
5.52975e-09
-6.22387e-10
6.0978e-09
-5.84938e-10
6.6288e-09
-5.42186e-10
7.11637e-09
-4.94438e-10
7.55234e-09
-4.42993e-10
7.92908e-09
-3.89876e-10
8.24201e-09
-3.37043e-10
8.4912e-09
-2.8534e-10
8.68073e-09
-2.33853e-10
8.81568e-09
-1.80263e-10
8.89835e-09
-1.22332e-10
8.92579e-09
-5.98418e-11
8.8909e-09
4.36783e-12
8.78681e-09
6.54315e-11
8.6126e-09
1.19579e-10
8.3768e-09
1.66886e-10
8.09493e-09
2.11378e-10
7.78036e-09
2.58309e-10
7.43456e-09
3.10548e-10
7.04677e-09
3.65598e-10
6.60489e-09
4.15617e-10
6.10718e-09
4.54071e-10
5.56403e-09
4.85786e-10
4.9892e-09
5.26331e-10
4.38628e-09
5.83868e-10
3.74198e-09
6.42709e-10
3.04248e-09
6.74838e-10
2.307e-09
6.71263e-10
1.59628e-09
6.49026e-10
9.70592e-10
6.11035e-10
4.55725e-10
5.08147e-10
9.64192e-11
2.83857e-10
8.14222e-12
-3.31125e-10
3.63563e-10
-1.21522e-09
1.1059e-09
-2.47007e-09
1.67473e-09
-3.95705e-09
2.02374e-09
-5.55418e-09
2.18634e-09
-7.16741e-09
2.21218e-09
-8.73415e-09
2.14981e-09
-1.02183e-08
2.03762e-09
-1.16024e-08
1.90141e-09
-1.2881e-08
1.75636e-09
-1.40541e-08
1.60863e-09
-1.51237e-08
1.46032e-09
-1.60916e-08
1.31054e-09
-1.69583e-08
1.1582e-09
-1.7722e-08
1.00197e-09
-1.83797e-08
8.41569e-10
-1.89268e-08
6.76703e-10
-1.9358e-08
5.07933e-10
-1.96678e-08
3.35791e-10
-1.98512e-08
1.60375e-10
-1.99042e-08
-1.74575e-11
-1.98245e-08
-1.96796e-10
-1.96114e-08
-3.77455e-10
-1.92657e-08
-5.59273e-10
-1.87901e-08
-7.41589e-10
-1.81882e-08
-9.23692e-10
-1.74651e-08
-1.10462e-09
-1.66265e-08
-1.28281e-09
-1.56784e-08
-1.45636e-09
-1.46274e-08
-1.62304e-09
-1.348e-08
-1.7802e-09
-1.2243e-08
-1.92494e-09
-1.09233e-08
-2.05476e-09
-9.52762e-09
-2.16781e-09
-8.06314e-09
-2.26294e-09
-6.53747e-09
-2.33958e-09
-4.95926e-09
-2.39774e-09
-3.33868e-09
-2.43794e-09
-1.68778e-09
-2.4609e-09
-2.06076e-11
-2.46734e-09
1.64726e-09
-2.4579e-09
3.29966e-09
-2.43318e-09
4.92106e-09
-2.39364e-09
6.49791e-09
-2.33949e-09
8.01952e-09
-2.27068e-09
9.47826e-09
-2.18705e-09
1.08689e-08
-2.08863e-09
1.21868e-08
-1.97583e-09
1.34261e-08
-1.84962e-09
1.4578e-08
-1.71154e-09
1.56305e-08
-1.56365e-09
1.65706e-08
-1.40833e-09
1.7387e-08
-1.24777e-09
1.80737e-08
-1.08333e-09
1.86312e-08
-9.14936e-10
1.90649e-08
-7.41302e-10
1.93799e-08
-5.61111e-10
1.95763e-08
-3.74805e-10
1.96473e-08
-1.85637e-10
1.95819e-08
1.06169e-12
1.93732e-08
1.80388e-10
1.90256e-08
3.50939e-10
1.85559e-08
5.15704e-10
1.79867e-08
6.79478e-10
1.73334e-08
8.44057e-10
1.65918e-08
1.00579e-09
1.57426e-08
1.15829e-09
1.47726e-08
1.29828e-09
1.36925e-08
1.43073e-09
1.25266e-08
1.56889e-09
1.12835e-08
1.72437e-09
9.94425e-09
1.89051e-09
8.48599e-09
2.03729e-09
6.92474e-09
2.13235e-09
5.33189e-09
2.16512e-09
3.79768e-09
2.12854e-09
2.3819e-09
1.96865e-09
1.15044e-09
1.59397e-09
2.78926e-10
9.8767e-10
3.0132e-10
-5.3286e-10
8.50339e-10
-1.81621e-09
2.29424e-09
-3.56754e-09
3.33507e-09
-5.59832e-09
3.96481e-09
-7.75189e-09
4.25094e-09
-9.9091e-09
4.28296e-09
-1.19912e-08
4.14976e-09
-1.39541e-08
3.92335e-09
-1.57776e-08
3.65254e-09
-1.74563e-08
3.3659e-09
-1.89916e-08
3.07594e-09
-2.03867e-08
2.78632e-09
-2.16437e-08
2.49583e-09
-2.27631e-08
2.20227e-09
-2.37434e-08
1.90382e-09
-2.45808e-08
1.59912e-09
-2.52708e-08
1.28737e-09
-2.58074e-08
9.68105e-10
-2.61847e-08
6.41817e-10
-2.63978e-08
3.09013e-10
-2.64427e-08
-2.93383e-11
-2.63167e-08
-3.71983e-10
-2.60189e-08
-7.17923e-10
-2.55501e-08
-1.06589e-09
-2.49128e-08
-1.41403e-09
-2.4111e-08
-1.76033e-09
-2.315e-08
-2.10249e-09
-2.20361e-08
-2.43758e-09
-2.07764e-08
-2.76217e-09
-1.93789e-08
-3.07244e-09
-1.78523e-08
-3.3641e-09
-1.62057e-08
-3.63277e-09
-1.44488e-08
-3.87458e-09
-1.25917e-08
-4.0867e-09
-1.06449e-08
-4.26736e-09
-8.61952e-09
-4.41573e-09
-6.52787e-09
-4.53176e-09
-4.38386e-09
-4.61591e-09
-2.20335e-09
-4.66876e-09
-4.08033e-12
-4.69074e-09
2.19478e-09
-4.68208e-09
4.37361e-09
-4.64276e-09
6.51358e-09
-4.57257e-09
8.59795e-09
-4.47116e-09
1.06129e-08
-4.33825e-09
1.25478e-08
-4.17413e-09
1.43941e-08
-3.97996e-09
1.61438e-08
-3.75804e-09
1.77874e-08
-3.51161e-09
1.93128e-08
-3.24451e-09
2.07051e-08
-2.96067e-09
2.19495e-08
-2.66362e-09
2.30342e-08
-2.35599e-09
2.39535e-08
-2.03909e-09
2.47082e-08
-1.71293e-09
2.53032e-08
-1.37698e-09
2.57419e-08
-1.03185e-09
2.60217e-08
-6.80803e-10
2.61331e-08
-3.29723e-10
2.60653e-08
1.50449e-11
2.58143e-08
3.49746e-10
2.53902e-08
6.74983e-10
2.48138e-08
9.94379e-10
2.41066e-08
1.31046e-09
2.32772e-08
1.62076e-09
2.23158e-08
1.9185e-09
2.12037e-08
2.19861e-09
1.99358e-08
2.46458e-09
1.85324e-08
2.7306e-09
1.70178e-08
3.01446e-09
1.53862e-08
3.32104e-09
1.36017e-08
3.62831e-09
1.16473e-08
3.89653e-09
9.56965e-09
4.09598e-09
7.46086e-09
4.20674e-09
5.39172e-09
4.16862e-09
3.41251e-09
3.85883e-09
1.68049e-09
3.18202e-09
4.92332e-10
2.16655e-09
8.07928e-10
-6.73336e-10
1.47643e-09
-2.2604e-09
3.78241e-09
-4.3886e-09
5.36893e-09
-6.81509e-09
6.29938e-09
-9.35148e-09
6.69741e-09
-1.18618e-08
6.70688e-09
-1.42614e-08
6.46732e-09
-1.65065e-08
6.09104e-09
-1.85809e-08
5.65343e-09
-2.04833e-08
5.19719e-09
-2.22183e-08
4.74066e-09
-2.37908e-08
4.28821e-09
-2.52039e-08
3.83748e-09
-2.64579e-08
3.38419e-09
-2.7551e-08
2.92487e-09
-2.84798e-08
2.45698e-09
-2.92391e-08
1.9785e-09
-2.98235e-08
1.48788e-09
-3.02275e-08
9.85118e-10
-3.04465e-08
4.71403e-10
-3.04767e-08
-5.17301e-11
-3.03153e-08
-5.82477e-10
-2.99608e-08
-1.11834e-09
-2.94136e-08
-1.65617e-09
-2.86755e-08
-2.19254e-09
-2.77498e-08
-2.7239e-09
-2.66416e-08
-3.24638e-09
-2.53573e-08
-3.75573e-09
-2.39049e-08
-4.24744e-09
-2.22932e-08
-4.71664e-09
-2.05325e-08
-5.15793e-09
-1.86339e-08
-5.56579e-09
-1.66089e-08
-5.93532e-09
-1.44698e-08
-6.26274e-09
-1.22292e-08
-6.54534e-09
-9.9003e-09
-6.78142e-09
-7.49775e-09
-6.97002e-09
-5.03756e-09
-7.11067e-09
-2.53765e-09
-7.20303e-09
-1.76865e-11
-7.24666e-09
2.5014e-09
-7.24096e-09
4.99833e-09
-7.18522e-09
7.45266e-09
-7.07873e-09
9.84598e-09
-6.92102e-09
1.21627e-08
-6.71221e-09
1.43899e-08
-6.4536e-09
1.65168e-08
-6.1481e-09
1.85328e-08
-5.80021e-09
2.04259e-08
-5.41564e-09
2.21816e-08
-5.00046e-09
2.3784e-08
-4.56036e-09
2.52175e-08
-4.1e-09
2.64709e-08
-3.62267e-09
2.7539e-08
-3.13016e-09
2.84227e-08
-2.62325e-09
2.91257e-08
-2.10293e-09
2.96492e-08
-1.57212e-09
2.99887e-08
-1.03658e-09
3.01343e-08
-5.03836e-10
3.00767e-08
1.98106e-11
2.98166e-08
5.31887e-10
2.93678e-08
1.03386e-09
2.87517e-08
1.52853e-09
2.79844e-08
2.01545e-09
2.70669e-08
2.48827e-09
2.59869e-08
2.93879e-09
2.47316e-08
3.36675e-09
2.33065e-08
3.78524e-09
2.17368e-08
4.21447e-09
2.00376e-08
4.66792e-09
1.81836e-08
5.14098e-09
1.61309e-08
5.60955e-09
1.38813e-08
6.04129e-09
1.15031e-08
6.4024e-09
9.06674e-09
6.63027e-09
6.59915e-09
6.59564e-09
4.19164e-09
6.14069e-09
2.13412e-09
5.18139e-09
6.63728e-10
3.65171e-09
1.41612e-09
-7.7753e-10
2.20261e-09
-2.60576e-09
5.50579e-09
-5.03828e-09
7.70265e-09
-7.7761e-09
8.94225e-09
-1.05965e-08
9.42597e-09
-1.33486e-08
9.37131e-09
-1.59471e-08
8.98238e-09
-1.83551e-08
8.41962e-09
-2.05656e-08
7.78759e-09
-2.2585e-08
7.14233e-09
-2.44227e-08
6.50552e-09
-2.60865e-08
5.88009e-09
-2.75798e-08
5.26053e-09
-2.89032e-08
4.63965e-09
-3.00542e-08
4.01093e-09
-3.10287e-08
3.36982e-09
-3.18217e-08
2.71316e-09
-3.24279e-08
2.03866e-09
-3.28423e-08
1.34592e-09
-3.30605e-08
6.36797e-10
-3.30786e-08
-8.61046e-11
-3.28934e-08
-8.19641e-10
-3.25029e-08
-1.55942e-09
-3.19064e-08
-2.30035e-09
-3.11048e-08
-3.03728e-09
-3.01005e-08
-3.76505e-09
-2.88984e-08
-4.47839e-09
-2.7505e-08
-5.17215e-09
-2.59286e-08
-5.84119e-09
-2.41792e-08
-6.47984e-09
-2.22682e-08
-7.08177e-09
-2.0208e-08
-7.64046e-09
-1.80116e-08
-8.14991e-09
-1.56924e-08
-8.60499e-09
-1.32644e-08
-9.00148e-09
-1.07422e-08
-9.33605e-09
-8.1417e-09
-9.60618e-09
-5.4802e-09
-9.80998e-09
-2.77676e-09
-9.94591e-09
-5.2085e-11
-1.00126e-08
2.67203e-09
-1.00088e-08
5.37348e-09
-9.93351e-09
8.03095e-09
-9.78612e-09
1.06249e-08
-9.56653e-09
1.31383e-08
-9.27572e-09
1.55565e-08
-8.91638e-09
1.78665e-08
-8.49325e-09
2.00555e-08
-8.01299e-09
2.21099e-08
-7.48339e-09
2.4014e-08
-6.9123e-09
2.57516e-08
-6.30672e-09
2.73079e-08
-5.67216e-09
2.86722e-08
-5.01261e-09
2.98398e-08
-4.33077e-09
3.08111e-08
-3.62884e-09
3.15878e-08
-2.90997e-09
3.21692e-08
-2.17964e-09
3.25498e-08
-1.44588e-09
3.27209e-08
-7.17194e-10
3.26771e-08
7.16041e-13
3.24228e-08
7.06686e-10
3.19742e-08
1.40155e-09
3.13498e-08
2.08543e-09
3.05581e-08
2.75472e-09
2.95944e-08
3.40143e-09
2.84501e-08
4.01813e-09
2.71237e-08
4.60927e-09
2.56274e-08
5.19633e-09
2.39812e-08
5.80416e-09
2.21877e-08
6.43983e-09
2.02114e-08
7.0893e-09
1.80115e-08
7.73459e-09
1.56025e-08
8.36142e-09
1.30453e-08
8.92748e-09
1.03669e-08
9.31004e-09
7.58072e-09
9.30969e-09
4.86068e-09
8.74661e-09
2.53187e-09
7.49295e-09
7.653e-10
5.33826e-09
2.10414e-09
-8.66987e-10
3.01445e-09
-2.9087e-09
7.43867e-09
-5.61207e-09
1.03047e-08
-8.61927e-09
1.18533e-08
-1.16703e-08
1.23848e-08
-1.46001e-08
1.22132e-08
-1.73262e-08
1.16248e-08
-1.98243e-08
1.08373e-08
-2.2101e-08
9.98644e-09
-2.41733e-08
9.13936e-09
-2.60574e-08
8.31684e-09
-2.77641e-08
7.51685e-09
-2.92979e-08
6.72798e-09
-3.0658e-08
5.93819e-09
-3.18414e-08
5.13741e-09
-3.2843e-08
4.31827e-09
-3.36572e-08
3.47663e-09
-3.42784e-08
2.61003e-09
-3.47015e-08
1.71841e-09
-3.49216e-08
8.04635e-10
-3.49344e-08
-1.27216e-10
-3.47361e-08
-1.07223e-09
-3.43236e-08
-2.02413e-09
-3.36955e-08
-2.97604e-09
-3.28516e-08
-3.92123e-09
-3.17942e-08
-4.8532e-09
-3.05277e-08
-5.76576e-09
-2.90588e-08
-6.65315e-09
-2.73963e-08
-7.5095e-09
-2.55509e-08
-8.32821e-09
-2.35347e-08
-9.10178e-09
-2.1361e-08
-9.82231e-09
-1.90434e-08
-1.04821e-08
-1.6596e-08
-1.10741e-08
-1.40339e-08
-1.1592e-08
-1.13726e-08
-1.20304e-08
-8.62911e-09
-1.23852e-08
-5.82164e-09
-1.26531e-08
-2.97019e-09
-1.28318e-08
-9.61801e-11
-1.29195e-08
2.77801e-09
-1.29149e-08
5.62974e-09
-1.28176e-08
8.43699e-09
-1.26272e-08
1.11792e-08
-1.23444e-08
1.38377e-08
-1.19712e-08
1.63961e-08
-1.15113e-08
1.88392e-08
-1.0971e-08
2.11528e-08
-1.03584e-08
2.33218e-08
-9.68271e-09
2.53306e-08
-8.95281e-09
2.71635e-08
-8.17646e-09
2.88067e-08
-7.35992e-09
3.02505e-08
-6.50812e-09
3.149e-08
-5.62527e-09
3.2524e-08
-4.71583e-09
3.33522e-08
-3.78571e-09
3.39721e-08
-2.84311e-09
3.43787e-08
-1.89807e-09
3.45664e-08
-9.59819e-10
3.4534e-08
-3.37235e-11
3.42887e-08
8.7989e-10
3.38462e-08
1.78e-09
3.3221e-08
2.66251e-09
3.24151e-08
3.52011e-09
3.1421e-08
4.34569e-09
3.02386e-08
5.13636e-09
2.88811e-08
5.90099e-09
2.73634e-08
6.66362e-09
2.56903e-08
7.4488e-09
2.38492e-08
8.26072e-09
2.18095e-08
9.08793e-09
1.95472e-08
9.92877e-09
1.70731e-08
1.07828e-08
1.44023e-08
1.15853e-08
1.1516e-08
1.21561e-08
8.46753e-09
1.22482e-08
5.49902e-09
1.16448e-08
2.88041e-09
1.0094e-08
8.28652e-10
7.23818e-09
2.91972e-09
-9.57455e-10
3.91435e-09
-3.21283e-09
9.58459e-09
-6.18377e-09
1.31748e-08
-9.44769e-09
1.50223e-08
-1.27039e-08
1.55504e-08
-1.57743e-08
1.51974e-08
-1.85839e-08
1.43523e-08
-2.11257e-08
1.33004e-08
-2.34245e-08
1.22093e-08
-2.55113e-08
1.11532e-08
-2.74096e-08
1.01465e-08
-2.91339e-08
9.1768e-09
-3.06893e-08
8.2236e-09
-3.20737e-08
7.26786e-09
-3.32821e-08
6.2954e-09
-3.43078e-08
5.29628e-09
-3.51439e-08
4.26543e-09
-3.57835e-08
3.20106e-09
-3.62206e-08
2.10451e-09
-3.64493e-08
9.79991e-10
-3.64643e-08
-1.66803e-10
-3.62609e-08
-1.32905e-09
-3.58353e-08
-2.49884e-09
-3.51854e-08
-3.66795e-09
-3.43108e-08
-4.82856e-09
-3.32135e-08
-5.97326e-09
-3.18979e-08
-7.09512e-09
-3.03708e-08
-8.18747e-09
-2.86412e-08
-9.24325e-09
-2.672e-08
-1.02543e-08
-2.46196e-08
-1.12111e-08
-2.23533e-08
-1.21038e-08
-1.9935e-08
-1.29223e-08
-1.73797e-08
-1.36571e-08
-1.47032e-08
-1.42997e-08
-1.19221e-08
-1.48431e-08
-9.05472e-09
-1.52819e-08
-6.1205e-09
-1.56121e-08
-3.14044e-09
-1.58313e-08
-1.36677e-10
-1.59381e-08
2.86788e-09
-1.59317e-08
5.85012e-09
-1.58121e-08
8.7873e-09
-1.55797e-08
1.16577e-08
-1.52355e-08
1.4441e-08
-1.47818e-08
1.71187e-08
-1.42233e-08
1.9674e-08
-1.35668e-08
2.2091e-08
-1.28213e-08
2.43541e-08
-1.19967e-08
2.64482e-08
-1.11025e-08
2.83587e-08
-1.01472e-08
3.0073e-08
-9.13814e-09
3.15817e-08
-8.08188e-09
3.28787e-08
-6.98499e-09
3.3961e-08
-5.85503e-09
3.48261e-08
-4.70122e-09
3.54705e-08
-3.53449e-09
3.58909e-08
-2.36641e-09
3.60863e-08
-1.20688e-09
3.60597e-08
-6.14423e-11
3.58189e-08
1.06849e-09
3.53761e-08
2.18001e-09
3.47423e-08
3.26432e-09
3.39175e-08
4.31062e-09
3.2896e-08
5.31422e-09
3.16869e-08
6.2791e-09
3.03162e-08
7.21771e-09
2.87985e-08
8.15097e-09
2.71207e-08
9.0994e-09
2.52588e-08
1.0071e-08
2.31984e-08
1.10713e-08
2.09345e-08
1.21218e-08
1.84502e-08
1.32277e-08
1.56925e-08
1.42985e-08
1.26258e-08
1.51164e-08
9.36847e-09
1.54054e-08
6.16219e-09
1.48484e-08
3.20496e-09
1.30011e-08
9.17729e-10
9.4082e-09
3.88038e-09
-1.05955e-09
4.91578e-09
-3.54779e-09
1.19663e-08
-6.80287e-09
1.63324e-08
-1.03287e-08
1.84571e-08
-1.37806e-08
1.8916e-08
-1.69695e-08
1.83043e-08
-1.98332e-08
1.71385e-08
-2.23876e-08
1.57816e-08
-2.46803e-08
1.44323e-08
-2.67587e-08
1.31655e-08
-2.86552e-08
1.19818e-08
-3.0387e-08
1.08524e-08
-3.1959e-08
9.74351e-09
-3.33676e-08
8.62737e-09
-3.46043e-08
7.4851e-09
-3.56601e-08
6.30529e-09
-3.65254e-08
5.08259e-09
-3.71916e-08
3.81662e-09
-3.76508e-08
2.51075e-09
-3.78956e-08
1.17087e-09
-3.79192e-08
-1.95595e-10
-3.77165e-08
-1.5802e-09
-3.72833e-08
-2.97392e-09
-3.66172e-08
-4.36784e-09
-3.57178e-08
-5.75335e-09
-3.45872e-08
-7.12217e-09
-3.32298e-08
-8.46624e-09
-3.1652e-08
-9.77732e-09
-2.98627e-08
-1.10462e-08
-2.78722e-08
-1.22622e-08
-2.56926e-08
-1.34133e-08
-2.3337e-08
-1.44867e-08
-2.08199e-08
-1.54699e-08
-1.81569e-08
-1.63512e-08
-1.53651e-08
-1.71202e-08
-1.2463e-08
-1.77691e-08
-9.47048e-09
-1.82917e-08
-6.40856e-09
-1.86843e-08
-3.29942e-09
-1.89446e-08
-1.65911e-10
-1.90715e-08
2.96863e-09
-1.9065e-08
6.08068e-09
-1.8925e-08
9.14677e-09
-1.8652e-08
1.21439e-08
-1.82469e-08
1.50501e-08
-1.7712e-08
1.78448e-08
-1.70519e-08
2.05092e-08
-1.62743e-08
2.30262e-08
-1.53887e-08
2.53799e-08
-1.44056e-08
2.75559e-08
-1.33355e-08
2.95408e-08
-1.21882e-08
3.13228e-08
-1.09727e-08
3.28918e-08
-9.69831e-09
3.42401e-08
-8.37468e-09
3.53621e-08
-7.01289e-09
3.62538e-08
-5.62559e-09
3.69123e-08
-4.2261e-09
3.7337e-08
-2.8269e-09
3.75316e-08
-1.43819e-09
3.75028e-08
-6.67627e-11
3.72571e-08
1.28348e-09
3.68009e-08
2.60707e-09
3.61425e-08
3.8917e-09
3.52866e-08
5.12418e-09
3.42344e-08
6.30276e-09
3.30014e-08
7.43827e-09
3.16198e-08
8.54435e-09
3.01029e-08
9.63417e-09
2.84245e-08
1.07241e-08
2.65584e-08
1.18363e-08
2.45118e-08
1.30058e-08
2.22875e-08
1.42767e-08
1.98189e-08
1.56536e-08
1.69911e-08
1.7032e-08
1.37885e-08
1.81833e-08
1.03609e-08
1.8788e-08
6.87533e-09
1.83486e-08
3.55119e-09
1.62162e-08
1.05988e-09
1.18665e-08
4.94203e-09
-1.17824e-09
6.03727e-09
-3.9271e-09
1.4615e-08
-7.49063e-09
1.98046e-08
-1.12901e-08
2.2172e-08
-1.49343e-08
2.24808e-08
-1.82268e-08
2.15222e-08
-2.11244e-08
1.99663e-08
-2.36715e-08
1.82645e-08
-2.59418e-08
1.66435e-08
-2.80017e-08
1.51696e-08
-2.9893e-08
1.38212e-08
-3.16344e-08
1.25459e-08
-3.3229e-08
1.12924e-08
-3.46702e-08
1.00227e-08
-3.59458e-08
8.71355e-09
-3.70428e-08
7.35291e-09
-3.79483e-08
5.93652e-09
-3.8651e-08
4.46601e-09
-3.91407e-08
2.94698e-09
-3.94084e-08
1.38718e-09
-3.94466e-08
-2.04396e-10
-3.92494e-08
-1.81815e-09
-3.88128e-08
-3.4445e-09
-3.81344e-08
-5.07397e-09
-3.7214e-08
-6.69707e-09
-3.60535e-08
-8.30411e-09
-3.46566e-08
-9.88514e-09
-3.30294e-08
-1.14294e-08
-3.11796e-08
-1.29246e-08
-2.91168e-08
-1.4357e-08
-2.68524e-08
-1.57116e-08
-2.43997e-08
-1.6973e-08
-2.17738e-08
-1.81264e-08
-1.89918e-08
-1.91585e-08
-1.6073e-08
-2.00581e-08
-1.30378e-08
-2.08166e-08
-9.90832e-09
-2.14278e-08
-6.70736e-09
-2.18877e-08
-3.45817e-09
-2.21939e-08
-1.84212e-10
-2.23453e-08
3.09095e-09
-2.23413e-08
6.34345e-09
-2.21816e-08
9.54909e-09
-2.18659e-08
1.26835e-08
-2.13948e-08
1.57226e-08
-2.07708e-08
1.86437e-08
-1.9999e-08
2.14259e-08
-1.9088e-08
2.40508e-08
-1.80485e-08
2.65024e-08
-1.68923e-08
2.87667e-08
-1.56314e-08
3.08309e-08
-1.42775e-08
3.26835e-08
-1.28423e-08
3.43132e-08
-1.13383e-08
3.57099e-08
-9.77851e-09
3.68658e-08
-8.17722e-09
3.77768e-08
-6.54982e-09
3.84419e-08
-4.91139e-09
3.88638e-08
-3.27466e-09
3.90496e-08
-1.64992e-09
3.90088e-08
-4.61045e-11
3.87458e-08
1.5286e-09
3.82604e-08
3.0658e-09
3.75595e-08
4.55167e-09
3.66578e-08
5.97205e-09
3.55679e-08
7.32662e-09
3.43069e-08
8.63016e-09
3.29045e-08
9.89516e-09
3.13735e-08
1.11259e-08
2.96883e-08
1.23376e-08
2.78308e-08
1.35746e-08
2.58235e-08
1.49066e-08
2.36567e-08
1.63975e-08
2.12085e-08
1.80546e-08
1.83364e-08
1.97819e-08
1.50492e-08
2.13595e-08
1.14498e-08
2.23762e-08
7.63215e-09
2.21114e-08
3.9586e-09
1.97399e-08
1.22004e-09
1.45971e-08
6.07569e-09
-1.31217e-09
7.29587e-09
-4.34577e-09
1.75577e-08
-8.2366e-09
2.36127e-08
-1.23168e-08
2.61762e-08
-1.61487e-08
2.6243e-08
-1.95327e-08
2.48425e-08
-2.24517e-08
2.28263e-08
-2.49836e-08
2.07432e-08
-2.72294e-08
1.88428e-08
-2.92745e-08
1.71712e-08
-3.11702e-08
1.56742e-08
-3.29352e-08
1.42688e-08
-3.45685e-08
1.2883e-08
-3.60584e-08
1.14673e-08
-3.73886e-08
9.99455e-09
-3.85412e-08
8.45311e-09
-3.94998e-08
6.84101e-09
-4.02498e-08
5.16251e-09
-4.07788e-08
3.42544e-09
-4.10766e-08
1.63932e-09
-4.11353e-08
-1.85496e-10
-4.0949e-08
-2.03862e-09
-4.05136e-08
-3.90989e-09
-3.98268e-08
-5.78892e-09
-3.88881e-08
-7.66465e-09
-3.76987e-08
-9.52522e-09
-3.62614e-08
-1.13579e-08
-3.45809e-08
-1.31486e-08
-3.26639e-08
-1.48817e-08
-3.05191e-08
-1.65405e-08
-2.81577e-08
-1.81073e-08
-2.55935e-08
-1.95647e-08
-2.28429e-08
-2.08965e-08
-1.99254e-08
-2.20883e-08
-1.68623e-08
-2.31281e-08
-1.36769e-08
-2.40064e-08
-1.03933e-08
-2.47163e-08
-7.03593e-09
-2.52526e-08
-3.629e-09
-2.5612e-08
-1.9637e-10
-2.5792e-08
3.23815e-09
-2.5791e-08
6.65022e-09
-2.5608e-08
1.00146e-08
-2.52423e-08
1.33051e-08
-2.46949e-08
1.64953e-08
-2.39689e-08
1.95599e-08
-2.30713e-08
2.24757e-08
-2.20122e-08
2.52228e-08
-2.08042e-08
2.7785e-08
-1.9461e-08
3.01482e-08
-1.79965e-08
3.23001e-08
-1.64245e-08
3.42285e-08
-1.47596e-08
3.59209e-08
-1.30174e-08
3.73649e-08
-1.12139e-08
3.85512e-08
-9.36565e-09
3.94765e-08
-7.48976e-09
4.01436e-08
-5.60249e-09
4.05583e-08
-3.71693e-09
4.0729e-08
-1.84368e-09
4.06657e-08
5.18234e-12
4.03717e-08
1.81557e-09
3.98417e-08
3.5751e-09
3.90816e-08
5.2707e-09
3.81191e-08
6.88889e-09
3.69806e-08
8.42744e-09
3.56802e-08
9.89926e-09
3.42365e-08
1.13138e-08
3.26655e-08
1.26701e-08
3.09589e-08
1.39875e-08
2.91143e-08
1.53348e-08
2.71532e-08
1.68124e-08
2.50339e-08
1.8504e-08
2.25974e-08
2.04373e-08
1.97106e-08
2.25529e-08
1.63716e-08
2.46398e-08
1.25687e-08
2.61451e-08
8.41268e-09
2.61342e-08
4.42515e-09
2.36038e-08
1.35058e-09
1.76022e-08
7.33185e-09
-1.45381e-09
8.70075e-09
-4.78008e-09
2.08047e-08
-8.9984e-09
2.77598e-08
-1.33517e-08
3.04643e-08
-1.73605e-08
3.01934e-08
-2.08269e-08
2.82586e-08
-2.37642e-08
2.57183e-08
-2.62884e-08
2.32252e-08
-2.85262e-08
2.1045e-08
-3.05787e-08
1.91908e-08
-3.25036e-08
1.7564e-08
-3.43187e-08
1.60449e-08
-3.60167e-08
1.4538e-08
-3.75794e-08
1.29829e-08
-3.89848e-08
1.13492e-08
-4.02106e-08
9.62616e-09
-4.12368e-08
7.81493e-09
-4.2046e-08
5.92279e-09
-4.26243e-08
3.95985e-09
-4.29609e-08
1.93745e-09
-4.30477e-08
-1.32776e-10
-4.28787e-08
-2.23942e-09
-4.24498e-08
-4.37117e-09
-4.17583e-08
-6.5159e-09
-4.08028e-08
-8.66018e-09
-3.95833e-08
-1.07892e-08
-3.81012e-08
-1.2887e-08
-3.63598e-08
-1.49363e-08
-3.43647e-08
-1.69184e-08
-3.21243e-08
-1.88141e-08
-2.96502e-08
-2.06042e-08
-2.69572e-08
-2.22697e-08
-2.40638e-08
-2.37933e-08
-2.09916e-08
-2.51593e-08
-1.77646e-08
-2.63543e-08
-1.44084e-08
-2.7367e-08
-1.0949e-08
-2.81883e-08
-7.4122e-09
-2.88108e-08
-3.82316e-09
-2.92292e-08
-2.06337e-10
-2.94393e-08
3.41379e-09
-2.94388e-08
7.01182e-09
-2.9226e-08
1.05608e-08
-2.88011e-08
1.40321e-08
-2.81664e-08
1.73966e-08
-2.73271e-08
2.06259e-08
-2.62923e-08
2.36945e-08
-2.50743e-08
2.65812e-08
-2.36877e-08
2.92688e-08
-2.21476e-08
3.17435e-08
-2.04697e-08
3.39927e-08
-1.86698e-08
3.60035e-08
-1.67651e-08
3.77621e-08
-1.47738e-08
3.92547e-08
-1.27145e-08
4.04711e-08
-1.06053e-08
4.14097e-08
-8.46408e-09
4.20776e-08
-6.30858e-09
4.24839e-08
-4.15358e-09
4.26351e-08
-2.01125e-09
4.2539e-08
1.02662e-10
4.21995e-08
2.16709e-09
4.16107e-08
4.16439e-09
4.07778e-08
6.08335e-09
3.97386e-08
7.91276e-09
3.85335e-08
9.64524e-09
3.71716e-08
1.12852e-08
3.56564e-08
1.28379e-08
3.40113e-08
1.43036e-08
3.22583e-08
1.57118e-08
3.04118e-08
1.71518e-08
2.84724e-08
1.8747e-08
2.63623e-08
2.06067e-08
2.39231e-08
2.28062e-08
2.10421e-08
2.53505e-08
1.76479e-08
2.80136e-08
1.36237e-08
3.00837e-08
9.18759e-09
3.04467e-08
4.89599e-09
2.78338e-08
1.45537e-09
2.09085e-08
8.78239e-09
-1.59021e-09
1.02479e-08
-5.19022e-09
2.43392e-08
-9.70745e-09
3.22199e-08
-1.43043e-08
3.50092e-08
-1.84705e-08
3.43129e-08
-2.20159e-08
3.17668e-08
-2.49835e-08
2.86556e-08
-2.75272e-08
2.57371e-08
-2.9797e-08
2.3285e-08
-3.19021e-08
2.12677e-08
-3.39005e-08
1.95308e-08
-3.58063e-08
1.79126e-08
-3.76054e-08
1.6293e-08
-3.92723e-08
1.46017e-08
-4.0779e-08
1.28064e-08
-4.20991e-08
1.08981e-08
-4.321e-08
8.88116e-09
-4.40927e-08
6.76581e-09
-4.47326e-08
4.56482e-09
-4.51186e-08
2.29164e-09
-4.52426e-08
-4.03201e-11
-4.50984e-08
-2.4179e-09
-4.46815e-08
-4.82769e-09
-4.39881e-08
-7.25509e-09
-4.30154e-08
-9.68378e-09
-4.17619e-08
-1.20959e-08
-4.02275e-08
-1.44724e-08
-3.84145e-08
-1.67934e-08
-3.6328e-08
-1.9038e-08
-3.39767e-08
-2.11856e-08
-3.13728e-08
-2.32152e-08
-2.85327e-08
-2.51067e-08
-2.54767e-08
-2.68407e-08
-2.22286e-08
-2.83996e-08
-1.88145e-08
-2.9767e-08
-1.52618e-08
-3.09289e-08
-1.15986e-08
-3.18729e-08
-7.85221e-09
-3.25891e-08
-4.04902e-09
-3.30699e-08
-2.14896e-10
-3.33101e-08
3.62407e-09
-3.33069e-08
7.4405e-09
-3.30597e-08
1.12049e-08
-3.257e-08
1.48858e-08
-3.18422e-08
1.84509e-08
-3.08839e-08
2.18689e-08
-2.97061e-08
2.51121e-08
-2.83229e-08
2.81577e-08
-2.67496e-08
3.09881e-08
-2.50029e-08
3.35893e-08
-2.30995e-08
3.59484e-08
-2.10575e-08
3.80513e-08
-1.88963e-08
3.9883e-08
-1.66368e-08
4.14294e-08
-1.43004e-08
4.26805e-08
-1.19069e-08
4.36358e-08
-9.47519e-09
4.43065e-08
-7.02485e-09
4.47047e-08
-4.57466e-09
4.48334e-08
-2.14054e-09
4.46943e-08
2.58394e-10
4.4294e-08
2.59504e-09
4.36322e-08
4.84583e-09
4.27138e-08
7.00068e-09
4.15798e-08
9.05142e-09
4.02808e-08
1.09841e-08
3.8823e-08
1.27906e-08
3.7197e-08
1.44714e-08
3.54373e-08
1.60344e-08
3.35998e-08
1.75226e-08
3.17075e-08
1.90384e-08
2.9729e-08
2.07221e-08
2.75687e-08
2.27201e-08
2.51059e-08
2.51806e-08
2.22277e-08
2.81846e-08
1.87449e-08
3.14676e-08
1.45314e-08
3.41816e-08
9.89475e-09
3.50442e-08
5.29685e-09
3.23864e-08
1.57959e-09
2.45163e-08
1.04132e-08
-1.70384e-09
1.19161e-08
-5.52509e-09
2.81099e-08
-1.02799e-08
3.69331e-08
-1.50673e-08
3.97609e-08
-1.93628e-08
3.85733e-08
-2.29937e-08
3.53687e-08
-2.60262e-08
3.16698e-08
-2.86432e-08
2.83318e-08
-3.10123e-08
2.56256e-08
-3.32412e-08
2.34657e-08
-3.53797e-08
2.16353e-08
-3.74333e-08
1.99271e-08
-3.9381e-08
1.81971e-08
-4.1191e-08
1.63666e-08
-4.28305e-08
1.44029e-08
-4.42705e-08
1.22998e-08
-4.54869e-08
1.00649e-08
-4.64607e-08
7.71152e-09
-4.71772e-08
5.25531e-09
-4.76253e-08
2.71248e-09
-4.77968e-08
9.91264e-11
-4.76851e-08
-2.56877e-09
-4.72846e-08
-5.27508e-09
-4.65902e-08
-8.00253e-09
-4.55975e-08
-1.07322e-08
-4.43034e-08
-1.34437e-08
-4.27069e-08
-1.61157e-08
-4.08099e-08
-1.87263e-08
-3.86173e-08
-2.12532e-08
-3.61383e-08
-2.36739e-08
-3.33859e-08
-2.59656e-08
-3.03778e-08
-2.81056e-08
-2.71357e-08
-3.00717e-08
-2.3685e-08
-3.18427e-08
-2.00535e-08
-3.33989e-08
-1.62709e-08
-3.47225e-08
-1.23672e-08
-3.57984e-08
-8.37206e-09
-3.66142e-08
-4.31425e-09
-3.71609e-08
-2.22137e-10
-3.74331e-08
3.87554e-09
-3.74284e-08
7.94853e-09
-3.71471e-08
1.19643e-08
-3.65926e-08
1.58882e-08
-3.57706e-08
1.96848e-08
-3.46904e-08
2.33202e-08
-3.3364e-08
2.67647e-08
-3.18063e-08
2.9994e-08
-3.00335e-08
3.299e-08
-2.80631e-08
3.57384e-08
-2.59139e-08
3.82251e-08
-2.36068e-08
4.04348e-08
-2.11641e-08
4.23512e-08
-1.861e-08
4.39611e-08
-1.59691e-08
4.52556e-08
-1.32644e-08
4.62348e-08
-1.05162e-08
4.69116e-08
-7.74628e-09
4.73012e-08
-4.97886e-09
4.74034e-08
-2.23575e-09
4.72117e-08
4.61604e-10
4.67349e-08
3.08358e-09
4.59844e-08
5.60157e-09
4.49669e-08
8.00411e-09
4.37176e-08
1.02851e-08
4.22898e-08
1.24248e-08
4.06916e-08
1.44024e-08
3.89086e-08
1.62147e-08
3.6988e-08
1.78797e-08
3.50117e-08
1.94511e-08
3.29984e-08
2.10365e-08
3.0888e-08
2.27904e-08
2.86027e-08
2.49093e-08
2.60757e-08
2.76305e-08
2.31568e-08
3.10955e-08
1.9549e-08
3.50038e-08
1.52192e-08
3.8424e-08
1.0429e-08
3.98551e-08
5.58099e-09
3.71583e-08
1.73001e-09
2.83629e-08
1.21285e-08
-1.77316e-09
1.36625e-08
-5.72661e-09
3.20282e-08
-1.06276e-08
4.18067e-08
-1.55356e-08
4.46511e-08
-1.99289e-08
4.29456e-08
-2.36666e-08
3.90789e-08
-2.68296e-08
3.48166e-08
-2.96099e-08
3.10949e-08
-3.21771e-08
2.8165e-08
-3.46283e-08
2.58804e-08
-3.6996e-08
2.39628e-08
-3.92723e-08
2.2162e-08
-4.14285e-08
2.03127e-08
-4.34287e-08
1.83296e-08
-4.52386e-08
1.61814e-08
-4.6829e-08
1.38657e-08
-4.81765e-08
1.13933e-08
-4.92628e-08
8.78093e-09
-5.00738e-08
6.0475e-09
-5.05983e-08
3.21252e-09
-5.08278e-08
2.95834e-10
-5.07552e-08
-2.68294e-09
-5.03739e-08
-5.7051e-09
-4.96772e-08
-8.75168e-09
-4.86594e-08
-1.18021e-08
-4.73162e-08
-1.48344e-08
-4.56459e-08
-1.78254e-08
-4.36502e-08
-2.07514e-08
-4.13341e-08
-2.3588e-08
-3.87069e-08
-2.63099e-08
-3.57822e-08
-2.8891e-08
-3.25783e-08
-3.13049e-08
-2.91178e-08
-3.35254e-08
-2.54276e-08
-3.55272e-08
-2.15376e-08
-3.72872e-08
-1.748e-08
-3.87847e-08
-1.32879e-08
-4.00023e-08
-8.99438e-09
-4.09262e-08
-4.63163e-09
-4.15464e-08
-2.31563e-10
-4.18572e-08
4.17361e-09
-4.18563e-08
8.55022e-09
-4.15444e-08
1.28623e-08
-4.09252e-08
1.70721e-08
-4.00052e-08
2.1141e-08
-3.87943e-08
2.50326e-08
-3.73055e-08
2.87151e-08
-3.55544e-08
3.2163e-08
-3.35589e-08
3.53565e-08
-3.13386e-08
3.82803e-08
-2.89157e-08
4.09193e-08
-2.6315e-08
4.32562e-08
-2.35631e-08
4.52736e-08
-2.06874e-08
4.69596e-08
-1.77163e-08
4.83086e-08
-1.46766e-08
4.93206e-08
-1.15911e-08
5.00069e-08
-8.4832e-09
5.03855e-08
-5.38224e-09
5.04561e-08
-2.31682e-09
5.02038e-08
6.90304e-10
4.96372e-08
3.61163e-09
4.87827e-08
6.41572e-09
4.76513e-08
9.08631e-09
4.62646e-08
1.16159e-08
4.46704e-08
1.3981e-08
4.28833e-08
1.61517e-08
4.08939e-08
1.81227e-08
3.87584e-08
1.99193e-08
3.65684e-08
2.15981e-08
3.43292e-08
2.32632e-08
3.19707e-08
2.50846e-08
2.94654e-08
2.7319e-08
2.67931e-08
3.0291e-08
2.37413e-08
3.41769e-08
1.99874e-08
3.86688e-08
1.56054e-08
4.28057e-08
1.06788e-08
4.47834e-08
5.73177e-09
4.20551e-08
1.83494e-09
3.23376e-08
1.38588e-08
-1.77396e-09
1.54197e-08
-5.73262e-09
3.59687e-08
-1.06647e-08
4.67199e-08
-1.56213e-08
4.9603e-08
-2.00919e-08
4.74144e-08
-2.39812e-08
4.29415e-08
-2.73785e-08
3.81879e-08
-3.04567e-08
3.41504e-08
-3.33608e-08
3.10397e-08
-3.61623e-08
2.8643e-08
-3.88704e-08
2.66276e-08
-4.14609e-08
2.47112e-08
-4.3898e-08
2.27147e-08
-4.61449e-08
2.05502e-08
-4.817e-08
1.81889e-08
-4.99472e-08
1.56323e-08
-5.14562e-08
1.2895e-08
-5.26804e-08
9.99695e-09
-5.36064e-08
6.96002e-09
-5.42228e-08
3.8074e-09
-5.45205e-08
5.63259e-10
-5.44924e-08
-2.74867e-09
-5.41315e-08
-6.10847e-09
-5.34298e-08
-9.49759e-09
-5.23799e-08
-1.28952e-08
-5.09767e-08
-1.62778e-08
-4.92176e-08
-1.96203e-08
-4.71039e-08
-2.28961e-08
-4.46402e-08
-2.6077e-08
-4.18355e-08
-2.91336e-08
-3.87033e-08
-3.2035e-08
-3.52623e-08
-3.47501e-08
-3.15364e-08
-3.72485e-08
-2.75543e-08
-3.95018e-08
-2.3349e-08
-4.14838e-08
-1.89562e-08
-4.31719e-08
-1.4413e-08
-4.45466e-08
-9.7567e-09
-4.55926e-08
-5.02381e-09
-4.62984e-08
-2.50398e-10
-4.66568e-08
4.52727e-09
-4.66641e-08
9.27154e-09
-4.63204e-08
1.39426e-08
-4.5629e-08
1.84987e-08
-4.45971e-08
2.28981e-08
-4.32355e-08
2.71012e-08
-4.15593e-08
3.1074e-08
-3.95866e-08
3.47886e-08
-3.73384e-08
3.82233e-08
-3.48381e-08
4.13603e-08
-3.2112e-08
4.41834e-08
-2.91897e-08
4.66741e-08
-2.61021e-08
4.8814e-08
-2.28801e-08
5.05925e-08
-1.95546e-08
5.20091e-08
-1.61568e-08
5.30646e-08
-1.27132e-08
5.37655e-08
-9.24851e-09
5.41305e-08
-5.79508e-09
5.41646e-08
-2.3877e-09