/*--------------------------------*- C++ -*----------------------------------*\
| =========                 |                                                 |
| \\      /  F ield         | OpenFOAM: The Open Source CFD Toolbox           |
|  \\    /   O peration     | Version:  2412                                  |
|   \\  /    A nd           | Website:  www.openfoam.com                      |
|    \\/     M anipulation  |                                                 |
\*---------------------------------------------------------------------------*/
FoamFile
{
    version     2.0;
    format      ascii;
    arch        "LSB;label=32;scalar=64";
    class       volScalarField;
    location    "6.7";
    object      p_rgh;
}
// * * * * * * * * * * * * * * * * * * * * * * * * * * * * * * * * * * * * * //

dimensions      [1 -1 -2 0 0 0 0];

internalField   nonuniform List<scalar> 
6400
(
9842.63
9843.03
9843.82
9844.99
9846.52
9848.4
9850.58
9853.03
9855.7
9858.56
9861.55
9864.61
9867.69
9870.73
9873.67
9876.46
9879.06
9881.42
9883.51
9885.29
9886.77
9887.91
9888.74
9889.25
9889.47
9889.42
9889.12
9888.61
9887.91
9887.06
9886.1
9885.06
9883.97
9882.86
9881.76
9880.7
9879.71
9878.82
9878.04
9877.39
9876.91
9876.61
9876.49
9876.56
9876.83
9877.29
9877.93
9878.71
9879.61
9880.59
9881.59
9882.56
9883.44
9884.16
9884.66
9884.9
9884.81
9884.35
9883.49
9882.21
9880.5
9878.37
9875.83
9872.93
9869.7
9866.21
9862.51
9858.68
9854.78
9850.9
9847.1
9843.45
9840.03
9836.89
9834.1
9831.69
9829.72
9828.21
9827.19
9826.67
9842.23
9842.63
9843.44
9844.63
9846.19
9848.09
9850.3
9852.8
9855.52
9858.43
9861.47
9864.59
9867.72
9870.82
9873.81
9876.65
9879.29
9881.68
9883.79
9885.6
9887.08
9888.23
9889.04
9889.54
9889.74
9889.66
9889.32
9888.78
9888.04
9887.16
9886.17
9885.09
9883.97
9882.83
9881.7
9880.61
9879.59
9878.67
9877.87
9877.21
9876.71
9876.39
9876.27
9876.34
9876.62
9877.1
9877.76
9878.58
9879.52
9880.54
9881.6
9882.63
9883.58
9884.36
9884.93
9885.22
9885.17
9884.75
9883.91
9882.63
9880.92
9878.76
9876.19
9873.25
9869.97
9866.41
9862.64
9858.74
9854.77
9850.81
9846.94
9843.23
9839.74
9836.55
9833.7
9831.26
9829.25
9827.71
9826.68
9826.15
9841.43
9841.84
9842.66
9843.9
9845.5
9847.47
9849.76
9852.33
9855.15
9858.16
9861.31
9864.54
9867.79
9870.99
9874.09
9877.03
9879.75
9882.21
9884.38
9886.21
9887.71
9888.85
9889.65
9890.12
9890.27
9890.14
9889.75
9889.14
9888.33
9887.37
9886.31
9885.16
9883.96
9882.75
9881.56
9880.41
9879.33
9878.35
9877.5
9876.79
9876.26
9875.92
9875.79
9875.88
9876.18
9876.7
9877.41
9878.3
9879.34
9880.47
9881.64
9882.8
9883.89
9884.79
9885.47
9885.87
9885.91
9885.55
9884.75
9883.49
9881.76
9879.57
9876.93
9873.89
9870.5
9866.82
9862.91
9858.86
9854.74
9850.63
9846.62
9842.77
9839.16
9835.86
9832.91
9830.38
9828.31
9826.72
9825.65
9825.11
9840.21
9840.64
9841.5
9842.79
9844.46
9846.52
9848.92
9851.62
9854.58
9857.75
9861.07
9864.47
9867.89
9871.26
9874.53
9877.61
9880.46
9883.02
9885.27
9887.15
9888.67
9889.81
9890.58
9891
9891.08
9890.87
9890.38
9889.67
9888.76
9887.7
9886.52
9885.26
9883.96
9882.65
9881.35
9880.1
9878.92
9877.86
9876.92
9876.15
9875.57
9875.2
9875.05
9875.15
9875.49
9876.06
9876.87
9877.88
9879.05
9880.34
9881.7
9883.04
9884.29
9885.42
9886.3
9886.86
9887.04
9886.78
9886.05
9884.81
9883.06
9880.8
9878.06
9874.88
9871.32
9867.44
9863.31
9859.03
9854.69
9850.35
9846.12
9842.07
9838.27
9834.79
9831.7
9829.05
9826.87
9825.21
9824.09
9823.52
9838.56
9839.01
9839.91
9841.28
9843.04
9845.23
9847.77
9850.65
9853.8
9857.18
9860.73
9864.37
9868.03
9871.64
9875.13
9878.41
9881.44
9884.15
9886.49
9888.45
9890
9891.13
9891.86
9892.2
9892.19
9891.85
9891.24
9890.38
9889.33
9888.12
9886.79
9885.39
9883.94
9882.48
9881.05
9879.66
9878.36
9877.17
9876.13
9875.27
9874.61
9874.19
9874.03
9874.13
9874.52
9875.18
9876.1
9877.27
9878.63
9880.15
9881.75
9883.37
9884.9
9886.29
9887.42
9888.21
9888.59
9888.48
9887.84
9886.64
9884.86
9882.51
9879.63
9876.25
9872.45
9868.29
9863.87
9859.28
9854.62
9849.97
9845.44
9841.11
9837.05
9833.35
9830.06
9827.24
9824.92
9823.16
9821.97
9821.37
9836.46
9836.94
9837.9
9839.34
9841.23
9843.56
9846.29
9849.38
9852.79
9856.45
9860.29
9864.24
9868.21
9872.13
9875.91
9879.46
9882.72
9885.61
9888.1
9890.14
9891.72
9892.83
9893.5
9893.74
9893.6
9893.1
9892.31
9891.27
9890.03
9888.64
9887.12
9885.53
9883.9
9882.26
9880.65
9879.09
9877.62
9876.28
9875.1
9874.12
9873.36
9872.88
9872.68
9872.79
9873.23
9873.98
9875.06
9876.42
9878.04
9879.85
9881.79
9883.76
9885.67
9887.41
9888.89
9889.99
9890.62
9890.71
9890.19
9889.03
9887.22
9884.76
9881.68
9878.05
9873.93
9869.41
9864.61
9859.61
9854.53
9849.48
9844.56
9839.87
9835.48
9831.49
9827.94
9824.9
9822.42
9820.53
9819.26
9818.62
9833.87
9834.38
9835.41
9836.94
9838.98
9841.48
9844.44
9847.79
9851.52
9855.52
9859.73
9864.07
9868.44
9872.76
9876.91
9880.8
9884.34
9887.47
9890.12
9892.26
9893.88
9894.96
9895.54
9895.65
9895.33
9894.63
9893.62
9892.35
9890.88
9889.25
9887.5
9885.68
9883.82
9881.96
9880.13
9878.36
9876.69
9875.15
9873.8
9872.66
9871.78
9871.2
9870.95
9871.06
9871.55
9872.43
9873.68
9875.3
9877.22
9879.41
9881.76
9884.19
9886.58
9888.79
9890.71
9892.21
9893.18
9893.52
9893.16
9892.07
9890.21
9887.6
9884.29
9880.32
9875.8
9870.83
9865.53
9860.01
9854.41
9848.85
9843.45
9838.31
9833.52
9829.17
9825.31
9822.01
9819.32
9817.28
9815.9
9815.22
9830.77
9831.31
9832.41
9834.06
9836.24
9838.96
9842.18
9845.86
9849.94
9854.36
9859.03
9863.85
9868.73
9873.53
9878.15
9882.46
9886.37
9889.78
9892.64
9894.9
9896.54
9897.57
9898.03
9897.95
9897.41
9896.45
9895.17
9893.61
9891.85
9889.93
9887.9
9885.81
9883.68
9881.56
9879.47
9877.45
9875.53
9873.76
9872.18
9870.84
9869.8
9869.1
9868.78
9868.88
9869.42
9870.42
9871.88
9873.79
9876.1
9878.74
9881.62
9884.63
9887.61
9890.43
9892.92
9894.94
9896.33
9897.01
9896.86
9895.85
9893.94
9891.15
9887.52
9883.15
9878.13
9872.59
9866.66
9860.5
9854.25
9848.06
9842.07
9836.4
9831.13
9826.34
9822.11
9818.51
9815.58
9813.37
9811.86
9811.12
9827.12
9827.67
9828.88
9830.64
9832.99
9835.93
9839.45
9843.51
9848.03
9852.94
9858.17
9863.58
9869.06
9874.48
9879.67
9884.51
9888.87
9892.63
9895.73
9898.12
9899.78
9900.73
9901.01
9900.69
9899.85
9898.56
9896.93
9895.02
9892.91
9890.65
9888.29
9885.88
9883.45
9881.03
9878.64
9876.32
9874.11
9872.05
9870.2
9868.62
9867.37
9866.51
9866.09
9866.14
9866.72
9867.85
9869.55
9871.8
9874.57
9877.77
9881.3
9885.02
9888.77
9892.35
9895.57
9898.25
9900.21
9901.3
9901.42
9900.51
9898.54
9895.52
9891.52
9886.63
9880.98
9874.72
9868.02
9861.06
9854.03
9847.08
9840.38
9834.06
9828.23
9822.96
9818.29
9814.33
9811.11
9808.73
9807.07
9806.28
9822.88
9823.43
9824.7
9826.61
9829.15
9832.3
9836.18
9840.67
9845.7
9851.19
9857.1
9863.23
9869.46
9875.64
9881.55
9887.04
9891.93
9896.11
9899.5
9902.03
9903.68
9904.5
9904.54
9903.89
9902.66
9900.96
9898.89
9896.56
9894.04
9891.38
9888.65
9885.87
9883.09
9880.32
9877.6
9874.94
9872.39
9869.99
9867.81
9865.93
9864.41
9863.34
9862.76
9862.74
9863.33
9864.59
9866.54
9869.19
9872.51
9876.39
9880.73
9885.35
9890.04
9894.59
9898.73
9902.24
9904.9
9906.53
9907
9906.22
9904.17
9900.87
9896.4
9890.86
9884.43
9877.29
9869.65
9861.72
9853.72
9845.85
9838.3
9831.22
9824.76
9818.95
9813.75
9809.4
9805.82
9803.33
9801.44
9800.61
9818.07
9818.5
9819.94
9821.94
9824.62
9827.94
9832.25
9837.26
9842.88
9849.08
9855.75
9862.76
9869.92
9877.03
9883.84
9890.12
9895.68
9900.37
9904.08
9906.75
9908.36
9908.98
9908.68
9907.59
9905.86
9903.62
9901.03
9898.17
9895.16
9892.05
9888.89
9885.72
9882.54
9879.4
9876.3
9873.26
9870.31
9867.52
9864.95
9862.69
9860.83
9859.48
9858.68
9858.53
9859.09
9860.46
9862.68
9865.78
9869.73
9874.44
9879.76
9885.49
9891.37
9897.12
9902.43
9907
9910.56
9912.87
9913.77
9913.17
9911.03
9907.39
9902.33
9896
9888.6
9880.38
9871.58
9862.46
9853.29
9844.3
9835.72
9827.76
9820.58
9814.27
9808.41
9803.65
9799.54
9797.22
9794.91
9794.01
9811.39
9805.11
9814.42
9816.6
9819.39
9822.88
9827.63
9833.18
9839.46
9846.46
9854.05
9862.14
9870.43
9878.72
9886.65
9893.9
9900.27
9905.57
9909.66
9912.45
9913.96
9914.26
9913.49
9911.81
9909.41
9906.5
9903.24
9899.78
9896.2
9892.58
9888.94
9885.31
9881.72
9878.17
9874.67
9871.2
9867.82
9864.58
9861.56
9858.86
9856.59
9854.83
9853.71
9853.32
9853.78
9855.2
9857.69
9861.28
9865.98
9871.67
9878.19
9885.29
9892.67
9899.95
9906.74
9912.66
9917.36
9920.53
9921.99
9921.61
9919.36
9915.28
9909.5
9902.19
9893.6
9884.04
9873.82
9863.26
9852.68
9842.35
9832.55
9823.54
9815.47
9808.81
9802.24
9796.91
9792.77
9789.83
9785.95
9786.32
9800.53
9782.31
9783.88
9809.7
9813.29
9817.25
9821.96
9828.1
9835.25
9843.27
9851.94
9861.33
9870.97
9880.73
9890.1
9898.5
9905.86
9911.91
9916.43
9919.34
9920.64
9920.47
9919.02
9916.54
9913.28
9909.5
9905.44
9901.24
9897.02
9892.82
9888.65
9884.53
9880.49
9876.51
9872.59
9868.68
9864.83
9861.11
9857.62
9854.44
9851.63
9849.32
9847.68
9846.89
9847.12
9848.53
9851.25
9855.39
9860.94
9867.82
9875.81
9884.61
9893.84
9903.05
9911.73
9919.37
9925.5
9929.76
9931.91
9931.81
9929.43
9924.82
9918.14
9909.62
9899.55
9888.35
9876.43
9864.12
9851.86
9839.93
9828.64
9818.3
9809.04
9801.84
9794.61
9789.01
9784.81
9778.29
9759.86
9771.29
9794.43
9792.1
9775.31
9787.05
9805.69
9809.21
9814.19
9821.33
9829.74
9839.1
9849.46
9860.5
9871.86
9883.25
9894.15
9904.08
9912.71
9919.67
9924.68
9927.63
9928.58
9927.71
9925.31
9921.73
9917.35
9912.49
9907.45
9902.42
9897.46
9892.56
9887.81
9883.16
9878.65
9874.25
9869.92
9865.58
9861.28
9857.09
9853.11
9849.38
9845.9
9842.83
9840.43
9839
9838.8
9840.07
9842.97
9847.66
9854.21
9862.5
9872.28
9883.18
9894.74
9906.39
9917.46
9927.26
9935.22
9940.84
9943.85
9944.12
9941.58
9936.29
9928.52
9918.57
9906.65
9893.4
9879.43
9865.02
9850.78
9836.75
9823.2
9810.95
9800.2
9791.22
9784.82
9779.23
9774.42
9754.96
9750.58
9754.81
9780.13
9773.41
9764.09
9781.42
9796.06
9799.45
9803.83
9812
9822.11
9833.36
9845.86
9859.32
9872.99
9886.42
9899.25
9911.06
9921.3
9929.34
9934.87
9937.76
9938.12
9936.22
9932.46
9927.36
9921.46
9915.19
9908.92
9902.9
9897.14
9891.37
9886.02
9880.8
9875.83
9871.07
9866.41
9861.75
9857.08
9852.47
9847.94
9843.54
9839.15
9835.09
9831.56
9829.09
9828.16
9829.13
9832.17
9837.47
9845.14
9855.1
9867.02
9880.49
9894.97
9909.73
9923.89
9936.52
9946.81
9954.17
9958.28
9958.98
9956.27
9950.09
9941.2
9929.65
9915.57
9899.57
9882.77
9865.87
9849.32
9832.64
9816.44
9801.97
9790.95
9779.9
9772.69
9767.3
9761.64
9752.29
9741.36
9739.95
9741.85
9679.14
9708.16
9772.94
9784.16
9787.25
9788.95
9799.22
9812.27
9826.34
9841.36
9857.69
9874.13
9890.06
9905.28
9919.61
9932.13
9941.68
9947.78
9950.36
9949.66
9946.14
9940.39
9933.12
9925.1
9916.92
9909.07
9901.82
9895.14
9888.91
9882.49
9876.6
9871.25
9866.38
9861.76
9857.11
9852.29
9847.29
9842.09
9836.74
9831.19
9825.72
9820.57
9816.45
9814.2
9814.45
9817.48
9823.54
9832.67
9844.59
9858.93
9875.42
9893.52
9912.31
9930.6
9947.11
9960.65
9970.42
9975.98
9977.19
9974.17
9967.15
9956.59
9942.55
9925.27
9905.48
9885
9865.41
9847.24
9828.13
9809.67
9793.39
9780.31
9767.71
9757.34
9753.27
9740.46
9692
9679.91
9720.25
9724.5
9656.52
9655.37
9712.37
9765.18
9772.66
9771.04
9783.54
9801.4
9819.26
9837.05
9856.13
9875.65
9894.56
9912.74
9930.1
9945.44
9957.1
9964.06
9966.17
9963.88
9958.09
9949.53
9939.24
9928.25
9917.37
9907.44
9898.82
9890.91
9883.15
9875.82
9869.31
9863.8
9859.3
9855.29
9851.02
9846.1
9840.66
9834.76
9828.21
9820.79
9812.99
9805.45
9799.18
9795.4
9794.99
9798.18
9805.03
9815.71
9829.77
9846.8
9866.94
9889.76
9913.99
9937.96
9959.86
9977.89
9990.77
9997.99
9999.66
9996.1
9987.77
9975.07
9958.03
9937.12
9913.52
9889.77
9867.2
9845.72
9824.29
9803.56
9784.43
9767.27
9753.27
9737.4
9735.62
9704.66
9616.8
9651.8
9700.42
9717.89
9703.51
9650.14
9679.13
9715.23
9752.55
9758.77
9769.16
9791.14
9812.35
9832.45
9854.37
9877.68
9900.59
9922.2
9942.57
9960.76
9974.71
9982.69
9984.19
9979.77
9971.08
9958.63
9944.14
9929.29
9915.57
9903.84
9894.43
9886.35
9878.02
9869.07
9860.71
9854.32
9850.34
9847.62
9844.2
9839.35
9833.74
9827.48
9819.39
9809.11
9797.75
9786.7
9777.53
9771.64
9770.32
9773.87
9782.14
9795.04
9811.57
9831.39
9855.27
9883.53
9914.4
9945.43
9974.26
9998.08
10014.8
10023.9
10025.7
10021
10010.6
9995.26
9975.38
9951.36
9924.58
9897.17
9870.51
9844.84
9819.88
9796.08
9772.83
9750.07
9733.56
9717.99
9695.55
9647.81
9599.53
9671.98
9684.82
9709.29
9708.78
9730.07
9747.08
9766.77
9759.56
9754.75
9764.27
9783.07
9806.11
9829.46
9854.52
9880.9
9907.72
9932.99
9956.21
9976.84
9992.41
10000.7
10001
9993.88
9980.81
9963.28
9943.06
9923.2
9907.69
9896.72
9888.49
9880.05
9869.56
9858.11
9848.1
9841.75
9839.42
9839.25
9837.63
9833.06
9827.82
9821.73
9811.99
9797.87
9780.88
9764.43
9751.86
9744.18
9741.64
9744.31
9752.88
9768.81
9788.46
9810.59
9837.38
9871.75
9910.57
9950.12
9987.55
10018.3
10039.1
10049.8
10051.4
10045.1
10032.4
10014.7
9992.46
9966.08
9936.74
9906.61
9876.95
9848.89
9822.9
9797.02
9769.64
9743.5
9720.22
9711.65
9688.6
9649.73
9635.74
9658.49
9665.27
7579.79
7415.97
7790.67
8226.23
8378.66
8156.63
7705.05
7457.8
7709.6
8150.45
8598.92
9028.88
9408.46
9753.26
9938.88
9929.32
9942.46
9982.01
10012.7
10016
9999.2
9951.61
9852.86
9660.05
9379.81
9196.21
9142.67
9214.24
9278.19
9197.96
8851.82
8420.35
8268.25
8271.28
8301.61
8302.37
8260.25
8248.05
8256.81
8204.63
8038.41
7712.49
7313.98
7008.45
6808.62
6727.47
6851.75
7145.37
7478.14
7765.72
7984.63
8300.31
8855.62
9408.21
9784.26
9975.23
10047.6
10072.7
10083.6
10082.7
10072.5
10051
10028.6
10013.6
9987.4
9899.66
9600.31
9245.71
8874.41
8485.67
8064.75
7650.6
7362.26
7281.77
7493.11
7696.25
7713.38
7136.99
6540.53
6640.48
954.296
962.91
903.316
852.741
785.522
711.832
767.534
909.833
1040.55
1158.3
1331.54
1626.9
2072.49
2657.34
3282.68
4019.25
4748.84
5313.97
5656.03
5755.79
5592.22
5125.57
4392.11
3513.63
2722.24
2344.13
2295.24
2300.36
2154.92
1875.17
1703.47
1792.9
1841.36
1914.96
2054.99
1984.27
1714.92
1579.75
1555.84
1510.99
1336.26
1041.62
771.194
591.928
467.54
402.455
401.855
465.152
621.694
808.133
953.146
1159.75
1779.84
2826.52
4095.52
5347.14
6390.25
6944.65
7084.93
6924.58
6558.24
6091.08
5537.3
4918.33
4188.38
3338.76
2703.9
2172.83
1732.67
1377.5
1063.63
766.22
506.063
273.337
86.6305
82.3222
178.468
352.359
562.129
510.031
1.25715
1.25025
1.24036
1.50043
2.58238
2.45628
1.57938
1.02485
0.649073
0.581724
0.588784
0.825105
2.0123
2.62979
40.4195
38.0322
14.9385
4.14927
0.436069
0.598449
0.65106
0.677323
0.724146
0.817365
0.958418
1.14124
1.30128
1.42264
1.54423
1.66649
1.99987
10.7059
17.0238
18.3996
24.9051
29.6143
27.4425
21.539
17.2016
16.4939
17.0098
16.6959
15.1469
12.3977
9.4832
6.24222
3.19264
1.93091
1.75623
1.60724
1.63089
1.75043
1.74695
1.66909
1.59151
1.2826
0.579576
115.199
239.689
277.915
288.085
280.223
234.64
95.2113
10.6181
4.6917
3.66421
3.20602
3.20588
3.36354
3.68902
2.90762
2.24989
2.07744
2.17188
1.97241
1.84128
1.86276
1.9149
1.95769
1.23193
1.22705
1.23011
1.24288
1.29928
1.40798
1.32003
1.14639
0.578951
0.482062
0.4421
0.439516
0.377399
0.257112
-0.138071
-0.184815
0.0275225
0.18934
0.30645
0.420619
0.527025
0.617777
0.683125
0.764304
0.911952
1.3035
1.69127
1.55119
1.60193
1.7317
1.84736
3.74038
4.5329
5.09396
6.37412
6.22877
5.52735
4.36128
4.08086
5.40485
4.96432
3.91123
3.5384
3.078
2.81274
2.34942
1.63818
1.47139
1.4668
1.43995
1.37543
1.30336
1.20179
1.04031
0.943812
0.800886
0.53736
0.238313
0.192947
0.325105
0.415753
0.598018
1.01718
2.24593
2.97209
3.17785
3.03423
2.97806
3.10275
3.25326
3.46007
3.4606
2.12617
2.04937
2.07912
2.5304
2.21635
1.80492
1.84034
1.89668
1.34092
1.55836
1.24102
1.21501
1.15389
1.03867
1.82635
1.72136
1.62421
0.931621
0.279159
0.320262
0.336858
0.247843
0.120976
0.0877781
0.157859
0.250529
0.334195
0.419966
0.501984
0.574642
0.633887
0.95697
2.0271
3.46618
3.65465
3.3205
2.41931
1.78971
3.30692
2.20992
1.9417
1.81607
1.83292
1.79879
1.57676
1.41366
1.63538
2.07849
2.12442
1.93372
1.90895
1.91631
2.2078
2.62138
2.41109
1.55599
1.13593
1.3211
2.05444
1.90363
1.74154
0.890283
0.758909
0.652902
0.512601
0.414221
0.414093
0.424026
0.393854
0.904928
3.53841
3.29457
2.97113
3.22022
3.59152
4.55221
4.67074
4.06111
4.74173
5.10784
4.65325
2.10859
2.022
2.43662
2.47538
2.09573
1.75488
1.81633
1.318
3.44463
2.4983
1.266
1.1866
1.01661
1.178
1.69017
0.708767
0.172295
0.178072
0.205741
0.245054
0.265399
0.229297
0.196557
0.216796
0.276469
0.35017
0.420507
0.480882
0.527277
0.565985
1.58341
3.30522
3.49258
3.64087
3.77985
1.88749
1.88716
2.25573
1.52795
1.33956
1.22323
1.15853
1.09496
1.02741
0.99651
1.12537
1.34117
1.51699
1.63829
1.70767
1.67489
1.85814
2.65529
2.55285
2.22906
0.633106
0.500478
1.30719
1.21099
1.17533
1.14364
0.73246
0.626732
0.833024
0.832577
0.843851
0.703454
0.327602
0.622047
1.92742
3.43112
3.81073
3.9919
4.12633
4.20247
3.73851
4.85921
5.01488
5.11357
5.15344
5.11759
3.06869
2.18119
2.0249
1.75052
1.66776
1.73399
2.73007
3.44893
3.45598
3.40704
1.86196
1.02948
1.8738
1.50876
0.278284
0.119627
0.0926225
0.126859
0.199781
0.351454
0.294075
0.259143
0.267515
0.304232
0.381515
0.436838
0.45634
0.475035
0.565083
0.986467
1.28844
3.19671
3.63226
3.37288
1.62155
1.54733
1.41792
1.25051
1.12577
1.05878
1.01939
0.988142
0.952831
0.934668
0.99634
1.1571
1.36186
1.57082
1.63659
1.40008
2.55533
2.69538
2.34582
0.951458
-0.118789
-0.376266
-0.515852
-0.529124
0.0291606
0.522204
0.584332
0.71656
0.844322
0.920509
0.94235
0.479196
0.302314
0.649541
1.23006
1.24295
1.39069
1.6066
2.11295
1.64933
1.17152
2.1406
4.9384
5.05123
5.09477
5.09314
4.87874
2.06488
1.49138
1.51498
1.56754
2.74691
3.16632
2.83027
1.75273
1.69625
2.05666
2.17422
2.04153
1.90583
1.81552
0.902228
0.116609
0.13505
0.422687
0.738211
0.511265
0.307909
0.307331
0.326745
0.926141
1.04339
0.583506
0.500035
0.624254
0.646136
0.704863
0.903517
3.48357
3.6282
1.64445
1.36328
1.1884
1.02706
0.944292
0.922541
0.923806
0.922208
0.915278
0.906148
0.923625
1.32251
1.59787
2.56899
1.81988
1.03314
2.57858
2.59018
2.07138
-0.204333
-0.594795
-0.899698
-1.09792
-1.13687
-0.154891
0.0184311
0.217323
0.456783
0.652666
0.113936
-0.422201
-0.321776
-0.0476664
0.744458
1.20606
1.21927
1.19743
1.21549
1.07151
1.01377
1.06659
2.20148
4.93426
5.0383
5.06926
5.05074
4.90426
1.81327
1.38551
1.41947
1.60309
3.08885
2.00321
0.822379
0.785674
0.754988
0.715156
0.643181
1.72817
1.94596
1.86227
1.86397
1.54524
0.403766
0.609632
0.860438
0.615456
0.348138
0.336736
0.654566
1.21726
1.22804
1.08767
0.548763
0.576723
0.594321
0.619824
1.30651
3.48057
3.52814
1.64033
1.11306
0.960387
0.830984
0.783172
0.796198
0.836277
0.86673
0.881242
1.0084
2.97662
3.72512
3.67447
3.49224
2.82053
0.620884
1.68767
2.5482
1.92355
-0.394672
-0.96482
-1.30839
-1.53757
-1.29032
-0.506813
-0.355294
-0.107942
0.183064
0.0787958
-0.865158
-0.609643
-0.384429
-0.155868
0.519945
1.1972
1.39971
1.5441
1.05087
0.835859
0.771537
1.04479
4.59943
4.9148
5.05107
5.08936
5.06336
3.05326
1.40235
1.29991
1.34011
2.80228
3.04166
1.14881
0.875809
0.69531
0.701038
0.847818
0.641774
0.534429
0.498469
1.73821
1.93816
2.04785
2.18355
1.89812
0.829185
0.386557
0.375729
0.356334
1.04513
1.23241
1.21475
1.19112
0.544595
0.545598
0.532948
1.21108
3.81022
3.59663
2.30897
1.05433
0.858292
0.780603
0.699175
0.689575
0.723188
0.78225
0.829679
0.859332
2.33407
3.90562
3.83152
3.69794
3.52346
2.91496
0.236233
0.642796
2.51955
2.05132
-0.411447
-1.2289
-1.56909
-1.79984
-1.90543
-1.43955
-0.596257
-0.374497
-0.0644395
-0.836554
-1.00859
-0.71183
-0.458122
-0.151094
0.369504
0.929274
1.17116
0.822263
0.634918
0.681855
0.693516
1.19599
1.87004
2.75457
4.76223
5.1197
4.55897
2.03764
1.60323
1.24426
1.27682
2.94745
2.99126
2.01916
1.9711
0.683943
1.16004
1.15272
0.767098
0.421633
0.31182
0.483227
1.96097
2.10695
2.26548
2.38032
1.70444
0.432457
0.384957
0.3636
1.11433
1.24425
1.2118
0.74166
0.469635
0.870411
2.53617
3.81542
3.65589
3.10861
0.499934
0.55479
0.788567
0.705218
0.790333
2.29876
0.824665
0.767268
0.809176
0.825646
2.54905
3.98216
3.89805
3.74553
3.54108
1.41896
-0.0881038
0.427379
2.47938
2.00711
-0.878538
-1.38326
-1.69647
-1.90684
-2.00443
-2.00425
-1.7916
-0.714987
-0.536471
-1.35152
-1.16577
-0.833192
-0.551195
0.14021
0.406475
0.220219
0.332386
0.481801
0.59021
0.57392
0.646988
0.57567
0.571854
0.600758
1.00949
4.8353
5.05916
3.23293
1.64954
1.4395
1.21947
1.87664
2.95373
1.96751
1.89667
0.567565
0.549717
1.10669
1.01135
0.341766
0.241265
0.771448
1.99847
2.12947
2.29795
2.42711
1.42904
0.396988
0.380023
0.368925
0.509352
1.25208
1.12461
0.402178
0.408542
2.57649
3.92123
3.74961
3.56118
0.717901
0.211296
0.410145
1.02969
1.91661
3.07661
3.47402
2.85057
0.773921
0.789993
0.784931
3.15754
4.03387
3.94388
3.77888
3.55608
-0.0897472
-0.363136
0.35911
2.46355
2.1541
-1.04368
-1.44715
-1.72253
-1.90989
-1.98743
-2.01984
-2.03698
-1.94424
-1.79737
-1.59765
-1.30609
-0.955664
-0.657925
-0.274451
0.329513
0.52697
0.489276
0.511858
0.476705
0.442028
0.474194
0.481383
0.494701
0.520372
0.539672
1.43658
5.09881
5.21712
2.00927
1.39234
1.18839
1.22034
2.92372
1.92522
1.55381
0.282428
0.268664
1.09061
1.00324
0.330665
0.237723
1.03493
2.06644
2.1735
2.32696
1.87226
0.462884
0.365147
0.372498
0.374398
0.359016
1.22456
0.460737
0.40924
0.482886
1.44541
3.95674
3.78242
1.21516
0.0824374
0.190047
0.39439
0.604417
1.53329
3.59439
3.60808
3.60453
1.23315
0.75169
0.741648
4.08895
4.06277
3.96596
3.79042
2.32844
-0.391167
-0.584512
0.867074
2.47131
2.22899
0.629571
-1.46071
-1.6984
-1.8609
0.29021
0.207857
-1.14087
-2.13371
-2.10046
-1.74301
-1.40239
-1.05333
-0.748671
-0.494729
0.251649
0.425825
0.289215
0.260152
0.240052
0.314363
0.358673
0.384932
0.406962
0.43081
0.441648
0.443468
3.49222
5.21749
3.63607
1.22014
1.16113
1.19126
2.8896
1.84041
0.254086
0.228449
0.230829
0.743493
1.02304
0.906984
0.325381
0.707662
2.13955
1.91962
1.24283
0.317821
0.30663
0.343228
0.362172
0.371953
0.378635
1.18394
0.428056
0.418909
0.861056
0.768921
2.69006
3.89004
0.591666
0.18358
0.285773
0.462525
0.634107
2.1959
3.71169
3.68682
3.66565
1.30747
0.708081
0.703116
4.07514
4.07196
3.96581
2.915
-0.0328844
-0.488114
-0.701681
0.967107
2.5205
2.29681
2.08031
0.288226
-0.390799
1.43753
1.37472
1.33625
1.41871
0.739869
-0.757985
-1.71076
-1.4422
-1.11189
-0.816338
-0.531364
-0.120534
-0.209804
-0.132018
-0.000690218
0.106741
0.185414
0.240257
0.280812
0.307163
0.325569
0.332065
0.330896
0.837476
5.18003
5.63832
1.46377
1.11836
1.14923
2.83448
0.530344
0.227097
0.219697
0.198451
0.158974
0.831718
1.07977
1.03886
1.01681
0.761541
0.253997
0.155132
0.230325
0.2889
0.325708
0.348035
0.359702
0.56408
0.797933
0.454778
0.696212
0.7768
1.30487
4.23416
4.07989
1.11717
0.31449
0.403936
0.547262
1.75458
3.77739
3.76542
3.72762
3.40436
0.669442
0.67797
2.78366
4.13862
4.07083
3.96568
0.293889
-0.31868
-0.539897
-0.773137
0.22639
2.63195
2.38105
2.17486
1.97396
1.7743
1.58083
1.45148
1.42025
1.51578
1.75015
1.42325
-1.60506
-1.42505
-1.12733
-0.849166
-0.558291
-0.510098
-0.363246
-0.23174
-0.117641
-0.0238615
0.0506833
0.111902
0.157761
0.18126
0.191689
0.193192
0.197217
0.2619
4.96333
5.67082
2.46926
1.05482
1.04308
1.47971
0.242821
0.235489
0.221815
0.201151
0.169611
0.127207
0.347075
0.638411
0.315048
0.0701216
0.114002
0.176853
0.233901
0.278934
0.310312
0.330903
0.344825
0.603998
0.465779
0.645694
1.33633
0.811359
2.58892
4.33681
4.25603
4.10053
1.02811
1.24102
3.08328
3.70577
3.80197
3.78071
3.2519
1.27939
0.73154
2.61644
4.1917
4.12408
4.08192
1.871
-0.190069
-0.326189
-0.505611
-0.761702
-1.021
1.63016
2.54415
2.3108
2.11096
1.91325
1.72953
1.62108
1.60892
1.72327
1.94226
-0.285776
-1.53699
-1.31371
-1.0934
-0.861182
-0.576066
-0.548204
-0.42798
-0.320023
-0.22817
-0.154295
-0.0908417
-0.026413
0.0211107
0.0331194
0.0216458
0.0113853
0.0278218
0.623527
5.29814
5.69156
4.88217
1.00431
0.895056
0.885544
0.249524
0.241447
0.226857
0.209441
0.186853
0.159534
0.133042
0.11341
0.109552
0.125189
0.159158
0.20006
0.238941
0.271269
0.296173
0.314287
0.340414
0.47122
0.456164
0.883747
1.36606
1.16815
1.7044
4.47361
4.38855
4.36658
4.33568
2.37122
2.05357
2.58785
1.90463
1.25954
0.569888
0.827542
3.51555
4.21633
4.173
4.14232
3.18417
-0.126861
-0.183528
-0.279326
-0.420673
-0.64297
-0.942098
-1.11167
1.15166
2.58278
2.36749
2.16392
2.00247
1.92075
1.9394
2.05899
0.929714
-1.70098
-1.35154
-1.0262
-0.830532
-0.830727
-0.699114
-0.574134
-0.477085
-0.394737
-0.330089
-0.28195
-0.237189
0.191344
0.705495
0.368259
-0.199768
-0.231524
-0.198837
1.67385
5.41712
5.63663
5.81369
1.2825
0.696392
0.730153
0.255089
0.25536
0.230266
0.215808
0.199854
0.182168
0.165585
0.15607
0.156815
0.169209
0.189477
0.214538
0.240385
0.263567
0.283183
0.298334
0.310798
0.44019
0.50099
0.783814
1.40347
1.3235
0.489185
2.1012
4.14094
2.52733
0.752591
0.386291
0.306695
0.370965
0.387032
0.396079
0.428115
1.57732
4.18193
4.16207
4.20238
2.18752
0.14419
-0.0965909
-0.0968976
-0.180844
-0.315647
-0.495732
-0.738468
-1.01611
-1.22818
-0.418753
0.863863
0.903486
2.44806
2.39352
2.2148
-0.362176
-1.79677
-1.52145
-1.15366
-0.859364
-0.680486
-0.759533
-0.676323
-0.581715
-0.509514
-0.454037
-0.420011
-0.399771
-0.224649
1.4519
1.45485
0.756846
-0.471911
-0.517708
-0.43788
3.74826
5.28854
5.43504
5.60861
1.92771
0.567806
0.503062
0.263501
0.272404
0.237588
0.219979
0.207782
0.195729
0.185569
0.180013
0.181068
0.189213
0.202957
0.220339
0.238563
0.25578
0.271156
0.283389
0.305678
0.630078
0.762965
0.805013
1.43678
1.156
0.489776
0.370413
0.350608
0.24411
0.242207
0.26543
0.303906
0.359299
0.404211
0.416649
0.40705
0.66828
2.59478
2.56889
0.732879
-0.0109358
-0.0391665
-0.0485925
-0.0541097
-0.0987452
-0.219078
-0.359462
-0.543081
-0.762645
-0.996418
-1.22228
-1.39066
-1.53164
-1.48314
-1.57847
-1.71019
-1.59091
-1.4187
-1.23601
-0.835568
-0.669584
-0.666296
-0.720324
-0.638451
-0.572646
-0.525923
-0.496464
-0.491578
-0.497665
1.33398
1.5458
1.35963
-0.0130853
-0.725316
-0.791745
0.973099
5.03853
4.96644
5.10677
5.2676
2.30027
0.386296
0.217404
0.260893
0.270585
0.255746
0.222068
0.213082
0.204739
0.198244
0.194955
0.195891
0.201277
0.210447
0.222293
0.235351
0.248273
0.260243
0.270072
0.274772
0.411555
0.693873
1.1102
1.41788
1.32063
0.559042
0.449284
0.381725
0.340688
0.319994
0.316439
0.329648
0.362252
0.596343
1.88622
1.17221
0.540058
0.35449
0.148775
0.0505463
0.0148931
0.00691676
0.00321186
-0.0200532
-0.0678549
-0.142979
-0.250828
-0.387498
-0.547665
-0.720674
-0.891725
-1.04643
-1.16984
-1.24662
-1.28462
-1.26236
-1.194
-1.09523
-0.776218
-0.566096
-0.489704
-0.697083
-0.651239
-0.593894
-0.553277
-0.528808
-0.522655
-0.538947
-0.440126
1.83332
1.60199
0.634341
-0.661451
-0.838599
-0.66623
4.20643
4.66256
4.64192
4.77513
4.94674
3.14847
0.0319005
0.125025
0.246405
0.267287
0.257815
0.222009
0.215472
0.209522
0.205076
0.202901
0.203612
0.207368
0.213742
0.222084
0.231568
0.241344
0.250708
0.258682
0.263337
0.266089
0.456829
1.14611
1.39615
1.38169
1.17891
0.525963
0.566983
0.482718
0.389811
0.359917
0.360599
2.24812
2.96402
2.94959
2.92139
2.37817
1.42423
1.03908
0.437638
0.436834
0.0792246
0.0402501
0.0169146
-0.0241872
-0.0840673
-0.167407
-0.270929
-0.388193
-0.511897
-0.633189
-0.742942
-0.831765
-0.892493
-0.923128
-0.920145
-0.88671
-0.595574
-0.399274
-0.36478
-0.64566
-0.627885
-0.581994
-0.548221
-0.528306
-0.522284
-0.53618
-0.566606
1.19802
1.85536
0.307716
0.300369
1.14608
-0.934937
1.42461
4.62378
4.45815
4.42359
4.53811
4.69908
4.78757
-0.455237
-0.0916415
0.235694
0.239674
0.236074
0.220335
0.21564
0.211348
0.208169
0.206627
0.207067
0.209648
0.214132
0.220102
0.227063
0.234523
0.241881
0.248377
0.253271
0.308882
0.947439
1.12643
1.05823
0.667729
1.35689
1.98928
2.06283
1.14393
0.43805
0.401891
1.68047
2.99501
3.00965
3.00079
2.98027
2.94333
2.86365
2.09167
1.56493
1.69153
1.64742
1.10809
0.287717
0.0122251
-0.0330807
-0.098604
-0.179485
-0.268825
-0.360567
-0.449305
-0.53024
-0.597539
-0.646918
-0.655847
-0.643276
-0.28555
-0.22132
-0.206848
-0.523521
-0.57809
-0.545052
-0.519794
-0.504188
-0.500629
-0.509908
-0.540152
-0.582578
1.96722
1.89221
0.288187
1.03225
1.88419
-0.980879
0.0457104
4.59669
4.39754
4.34069
4.4184
4.56348
3.69661
-0.818999
-0.219565
0.228346
0.225453
0.221237
0.217383
0.213946
0.210792
0.208401
0.207225
0.207455
0.209215
0.212398
0.216725
0.221851
0.22748
0.233142
0.238273
0.242712
0.271161
0.855971
1.08876
0.7755
0.559769
0.749699
2.14015
2.13734
2.09948
0.811231
0.532441
0.659004
2.79548
3.04496
3.05065
3.02563
1.93521
0.410709
0.353061
1.54542
1.67553
1.72797
1.7141
1.30234
0.627873
0.495814
0.335356
0.164451
-0.00889093
-0.158384
-0.22058
-0.302626
-0.428562
-0.376307
-0.00877705
-0.0278207
-0.0340918
-0.0585883
-0.482316
-0.514346
-0.492387
-0.475288
-0.464844
-0.462483
-0.471162
-0.492906
-0.534969
-0.590078
1.5955
1.94087
0.302465
2.09192
1.94607
0.522837
-0.662754
4.68159
4.46113
4.3807
4.4236
4.56908
0.859799
-0.99099
-0.247272
0.221619
0.219476
0.216226
0.213363
0.210766
0.208416
0.206596
0.205639
0.20571
0.206878
0.209111
0.212232
0.215999
0.220206
0.224484
0.228375
0.2318
0.234325
0.392933
1.03833
1.20923
0.556781
0.534196
1.23925
2.16418
2.15672
2.11052
1.28363
0.806058
1.11107
2.3369
1.95748
0.608712
-0.0169573
-0.0527462
-0.065639
0.0885219
0.272155
0.174599
0.149875
0.30362
0.497905
0.60776
0.560445
0.506658
0.445317
0.383933
0.322206
0.104527
0.142674
0.103909
0.0907518
0.0625054
-0.279694
-0.45618
-0.444812
-0.432563
-0.42265
-0.416637
-0.41601
-0.422774
-0.440001
-0.470632
-0.520053
-0.586362
-0.302656
1.99617
0.573216
1.86825
2.03696
1.8552
-1.18883
1.0836
4.68576
4.56666
4.58879
2.8031
-1.41479
-1.10076
-0.406702
0.214595
0.21298
0.210526
0.208373
0.206408
0.204602
0.20318
0.202342
0.202266
0.202992
0.204508
0.206692
0.209408
0.212444
0.21557
0.218414
0.220798
0.22248
0.227559
0.769048
1.27062
0.978275
0.535861
0.50155
1.63107
2.17469
2.15861
2.10428
1.99754
1.93925
0.79234
0.0609257
0.00973023
-0.0291806
-0.0605592
-0.0924502
-0.120699
-0.123785
-0.0835663
-0.0126859
0.0443915
0.0622801
0.107285
0.223265
0.234011
0.191811
0.2562
0.362769
0.159067
-0.144669
-0.205327
-0.337566
-0.374562
-0.378837
-0.376873
-0.372587
-0.368381
-0.365889
-0.366412
-0.371788
-0.384352
-0.40703
-0.442687
-0.49627
-0.570416
-0.563341
2.04546
1.92992
1.26969