/*--------------------------------*- C++ -*----------------------------------*\
| =========                 |                                                 |
| \\      /  F ield         | OpenFOAM: The Open Source CFD Toolbox           |
|  \\    /   O peration     | Version:  2412                                  |
|   \\  /    A nd           | Website:  www.openfoam.com                      |
|    \\/     M anipulation  |                                                 |
\*---------------------------------------------------------------------------*/
FoamFile
{
    version     2.0;
    format      ascii;
    arch        "LSB;label=32;scalar=64";
    class       volScalarField;
    location    "9.1";
    object      p_rgh;
}
// * * * * * * * * * * * * * * * * * * * * * * * * * * * * * * * * * * * * * //

dimensions      [1 -1 -2 0 0 0 0];

internalField   nonuniform List<scalar> 
6400
(
8367.9
8367.92
8367.97
8368.04
8368.12
8368.21
8368.31
8368.4
8368.49
8368.59
8368.68
8368.78
8368.88
8368.98
8369.09
8369.2
8369.32
8369.43
8369.56
8369.68
8369.81
8369.94
8370.07
8370.2
8370.34
8370.47
8370.6
8370.73
8370.85
8370.97
8371.09
8371.2
8371.3
8371.39
8371.48
8371.55
8371.61
8371.66
8371.7
8371.72
8371.73
8371.73
8371.71
8371.68
8371.64
8371.59
8371.52
8371.45
8371.37
8371.28
8371.18
8371.08
8370.97
8370.85
8370.74
8370.62
8370.5
8370.38
8370.26
8370.14
8370.02
8369.9
8369.78
8369.67
8369.56
8369.46
8369.36
8369.26
8369.16
8369.07
8368.98
8368.89
8368.8
8368.71
8368.62
8368.54
8368.45
8368.39
8368.34
8368.31
8367.88
8367.9
8367.95
8368.01
8368.09
8368.17
8368.26
8368.35
8368.45
8368.54
8368.64
8368.74
8368.85
8368.96
8369.07
8369.18
8369.3
8369.43
8369.55
8369.68
8369.81
8369.95
8370.08
8370.22
8370.36
8370.49
8370.62
8370.75
8370.88
8371
8371.12
8371.23
8371.33
8371.43
8371.51
8371.58
8371.65
8371.7
8371.73
8371.76
8371.77
8371.77
8371.75
8371.72
8371.68
8371.63
8371.56
8371.49
8371.4
8371.31
8371.21
8371.11
8371
8370.88
8370.76
8370.64
8370.52
8370.39
8370.27
8370.14
8370.02
8369.9
8369.78
8369.66
8369.55
8369.44
8369.33
8369.23
8369.13
8369.03
8368.93
8368.84
8368.75
8368.66
8368.58
8368.5
8368.42
8368.36
8368.31
8368.29
8367.84
8367.86
8367.91
8367.97
8368.04
8368.12
8368.21
8368.3
8368.39
8368.49
8368.59
8368.69
8368.8
8368.91
8369.03
8369.15
8369.28
8369.41
8369.54
8369.68
8369.82
8369.96
8370.1
8370.24
8370.38
8370.52
8370.66
8370.79
8370.92
8371.05
8371.16
8371.28
8371.38
8371.48
8371.56
8371.64
8371.7
8371.75
8371.79
8371.81
8371.82
8371.82
8371.8
8371.77
8371.73
8371.68
8371.61
8371.54
8371.45
8371.36
8371.26
8371.15
8371.04
8370.92
8370.8
8370.67
8370.54
8370.41
8370.28
8370.15
8370.02
8369.89
8369.77
8369.64
8369.52
8369.41
8369.3
8369.19
8369.08
8368.98
8368.88
8368.78
8368.69
8368.6
8368.52
8368.44
8368.37
8368.31
8368.26
8368.23
8367.78
8367.81
8367.86
8367.92
8367.99
8368.07
8368.15
8368.24
8368.34
8368.43
8368.54
8368.64
8368.76
8368.87
8368.99
8369.12
8369.25
8369.39
8369.53
8369.67
8369.81
8369.96
8370.11
8370.25
8370.4
8370.54
8370.69
8370.82
8370.96
8371.09
8371.21
8371.33
8371.43
8371.53
8371.62
8371.69
8371.76
8371.81
8371.85
8371.87
8371.88
8371.88
8371.86
8371.84
8371.79
8371.74
8371.67
8371.6
8371.51
8371.41
8371.31
8371.2
8371.08
8370.96
8370.83
8370.7
8370.57
8370.43
8370.3
8370.16
8370.03
8369.89
8369.76
8369.63
8369.5
8369.38
8369.26
8369.15
8369.04
8368.93
8368.83
8368.73
8368.63
8368.54
8368.46
8368.38
8368.3
8368.24
8368.19
8368.15
8367.7
8367.74
8367.8
8367.86
8367.93
8368.01
8368.09
8368.18
8368.28
8368.38
8368.49
8368.6
8368.71
8368.83
8368.95
8369.08
8369.22
8369.36
8369.51
8369.65
8369.8
8369.96
8370.11
8370.26
8370.42
8370.57
8370.72
8370.86
8371
8371.13
8371.26
8371.38
8371.49
8371.59
8371.68
8371.76
8371.82
8371.88
8371.92
8371.94
8371.95
8371.95
8371.93
8371.9
8371.86
8371.81
8371.74
8371.66
8371.57
8371.47
8371.36
8371.25
8371.13
8371
8370.87
8370.74
8370.6
8370.46
8370.32
8370.17
8370.03
8369.89
8369.75
8369.62
8369.48
8369.36
8369.23
8369.11
8368.99
8368.88
8368.78
8368.67
8368.58
8368.48
8368.4
8368.31
8368.24
8368.17
8368.11
8368.08
8367.62
8367.68
8367.74
8367.8
8367.88
8367.96
8368.04
8368.13
8368.23
8368.34
8368.44
8368.56
8368.68
8368.81
8368.93
8369.06
8369.2
8369.34
8369.5
8369.65
8369.81
8369.96
8370.12
8370.28
8370.44
8370.59
8370.75
8370.89
8371.04
8371.17
8371.3
8371.43
8371.54
8371.64
8371.74
8371.82
8371.89
8371.94
8371.98
8372.01
8372.02
8372.01
8371.99
8371.96
8371.92
8371.86
8371.79
8371.71
8371.62
8371.52
8371.41
8371.29
8371.17
8371.03
8370.9
8370.76
8370.62
8370.47
8370.33
8370.18
8370.03
8369.89
8369.74
8369.6
8369.46
8369.33
8369.2
8369.07
8368.95
8368.84
8368.73
8368.63
8368.53
8368.43
8368.34
8368.26
8368.18
8368.1
8368.04
8368.02
8367.54
8367.61
8367.67
8367.75
8367.82
8367.91
8368
8368.09
8368.2
8368.3
8368.41
8368.53
8368.66
8368.79
8368.92
8369.05
8369.19
8369.34
8369.5
8369.66
8369.82
8369.98
8370.14
8370.3
8370.47
8370.62
8370.78
8370.93
8371.08
8371.22
8371.35
8371.47
8371.59
8371.7
8371.79
8371.87
8371.94
8372
8372.04
8372.06
8372.07
8372.07
8372.05
8372.01
8371.96
8371.9
8371.83
8371.75
8371.65
8371.55
8371.43
8371.31
8371.18
8371.05
8370.91
8370.76
8370.62
8370.47
8370.32
8370.16
8370.01
8369.86
8369.72
8369.57
8369.43
8369.29
8369.16
8369.03
8368.91
8368.8
8368.69
8368.59
8368.49
8368.39
8368.3
8368.21
8368.13
8368.06
8368.01
8367.97
8367.47
8367.54
8367.62
8367.7
8367.78
8367.87
8367.96
8368.05
8368.16
8368.27
8368.37
8368.49
8368.62
8368.76
8368.9
8369.04
8369.18
8369.34
8369.5
8369.66
8369.82
8369.99
8370.16
8370.33
8370.49
8370.65
8370.81
8370.97
8371.12
8371.26
8371.39
8371.52
8371.64
8371.75
8371.85
8371.93
8372
8372.06
8372.1
8372.13
8372.14
8372.14
8372.11
8372.07
8372.02
8371.96
8371.88
8371.79
8371.69
8371.58
8371.46
8371.33
8371.2
8371.06
8370.91
8370.77
8370.62
8370.46
8370.3
8370.15
8369.99
8369.84
8369.69
8369.54
8369.4
8369.26
8369.13
8369
8368.88
8368.77
8368.66
8368.55
8368.45
8368.35
8368.26
8368.17
8368.09
8368.03
8367.98
8367.89
8367.39
8367.48
8367.56
8367.65
8367.74
8367.83
8367.92
8368.01
8368.12
8368.22
8368.32
8368.43
8368.56
8368.71
8368.85
8369
8369.15
8369.3
8369.47
8369.64
8369.81
8369.99
8370.16
8370.33
8370.51
8370.68
8370.84
8371
8371.16
8371.3
8371.45
8371.58
8371.71
8371.82
8371.92
8372.01
8372.09
8372.15
8372.19
8372.22
8372.24
8372.23
8372.21
8372.17
8372.12
8372.05
8371.97
8371.87
8371.77
8371.65
8371.52
8371.39
8371.25
8371.1
8370.95
8370.8
8370.64
8370.47
8370.31
8370.15
8369.99
8369.83
8369.67
8369.52
8369.37
8369.23
8369.09
8368.96
8368.84
8368.73
8368.61
8368.5
8368.4
8368.3
8368.21
8368.12
8368.05
8367.98
8367.91
8367.78
8367.32
8367.42
8367.51
8367.6
8367.69
8367.78
8367.86
8367.95
8368.06
8368.16
8368.26
8368.37
8368.5
8368.64
8368.79
8368.94
8369.09
8369.26
8369.43
8369.61
8369.79
8369.97
8370.16
8370.34
8370.52
8370.7
8370.87
8371.04
8371.21
8371.36
8371.51
8371.65
8371.78
8371.91
8372.02
8372.12
8372.2
8372.27
8372.31
8372.35
8372.36
8372.36
8372.33
8372.3
8372.24
8372.16
8372.08
8371.97
8371.86
8371.74
8371.61
8371.47
8371.32
8371.17
8371.01
8370.84
8370.67
8370.5
8370.33
8370.16
8369.98
8369.81
8369.65
8369.48
8369.33
8369.19
8369.05
8368.91
8368.79
8368.66
8368.55
8368.44
8368.34
8368.24
8368.15
8368.06
8367.99
8367.92
8367.79
8367.68
8367.24
8367.35
8367.45
8367.54
8367.61
8367.72
8367.79
8367.87
8367.98
8368.09
8368.19
8368.31
8368.44
8368.58
8368.73
8368.88
8369.05
8369.22
8369.4
8369.59
8369.78
8369.97
8370.16
8370.36
8370.55
8370.74
8370.92
8371.1
8371.27
8371.44
8371.6
8371.75
8371.89
8372.03
8372.14
8372.25
8372.34
8372.4
8372.46
8372.49
8372.5
8372.49
8372.47
8372.42
8372.36
8372.28
8372.18
8372.07
8371.95
8371.82
8371.68
8371.54
8371.38
8371.22
8371.05
8370.88
8370.7
8370.52
8370.34
8370.16
8369.98
8369.8
8369.62
8369.45
8369.29
8369.13
8368.98
8368.85
8368.71
8368.59
8368.47
8368.36
8368.26
8368.17
8368.08
8368.01
8367.93
8367.83
8367.67
8367.62
8367.16
8367.27
8367.37
8367.46
8367.52
8367.63
8367.71
8367.79
8367.9
8368
8368.11
8368.23
8368.36
8368.51
8368.67
8368.83
8369
8369.17
8369.36
8369.56
8369.76
8369.97
8370.18
8370.38
8370.59
8370.79
8370.98
8371.17
8371.36
8371.54
8371.71
8371.87
8372.02
8372.16
8372.29
8372.4
8372.49
8372.57
8372.62
8372.65
8372.67
8372.66
8372.63
8372.57
8372.5
8372.41
8372.31
8372.19
8372.05
8371.91
8371.76
8371.61
8371.44
8371.27
8371.1
8370.92
8370.73
8370.55
8370.36
8370.16
8369.97
8369.78
8369.59
8369.41
8369.24
8369.07
8368.92
8368.77
8368.64
8368.51
8368.39
8368.28
8368.18
8368.1
8368.02
8367.95
8367.86
8367.72
8367.61
8367.56
8367.07
8367.17
8367.28
8367.38
8367.44
8367.54
8367.61
8367.7
8367.81
8367.91
8368.01
8368.12
8368.26
8368.42
8368.58
8368.75
8368.93
8369.12
8369.32
8369.53
8369.75
8369.97
8370.18
8370.4
8370.62
8370.84
8371.05
8371.25
8371.45
8371.64
8371.82
8371.99
8372.15
8372.3
8372.44
8372.56
8372.66
8372.75
8372.81
8372.85
8372.86
8372.85
8372.82
8372.76
8372.68
8372.58
8372.46
8372.33
8372.19
8372.04
8371.88
8371.71
8371.54
8371.36
8371.17
8370.97
8370.77
8370.57
8370.36
8370.16
8369.95
8369.75
8369.55
8369.36
8369.18
8369
8368.84
8368.69
8368.55
8368.42
8368.3
8368.2
8368.1
8368.03
8367.95
8367.88
8367.76
8367.63
8367.58
8367.43
8366.97
8367.08
8367.2
8367.32
8367.4
8367.46
8367.53
8367.61
8367.72
8367.81
8367.91
8368.02
8368.16
8368.32
8368.49
8368.67
8368.86
8369.06
8369.27
8369.5
8369.73
8369.96
8370.19
8370.43
8370.66
8370.89
8371.12
8371.33
8371.54
8371.73
8371.92
8372.1
8372.27
8372.44
8372.59
8372.73
8372.85
8372.95
8373.02
8373.06
8373.08
8373.07
8373.03
8372.96
8372.87
8372.76
8372.63
8372.48
8372.33
8372.17
8372
8371.82
8371.64
8371.44
8371.24
8371.02
8370.8
8370.58
8370.36
8370.14
8369.92
8369.7
8369.5
8369.29
8369.1
8368.92
8368.75
8368.6
8368.45
8368.32
8368.21
8368.11
8368.03
8367.96
8367.89
8367.8
8367.69
8367.61
8367.52
8367.32
8366.89
8367.04
8367.18
8367.28
8367.37
8367.4
8367.45
8367.54
8367.63
8367.72
8367.82
8367.94
8368.08
8368.23
8368.4
8368.58
8368.79
8369
8369.23
8369.46
8369.71
8369.95
8370.2
8370.45
8370.7
8370.95
8371.19
8371.41
8371.62
8371.82
8372.02
8372.21
8372.4
8372.59
8372.76
8372.92
8373.05
8373.16
8373.24
8373.28
8373.3
8373.29
8373.24
8373.17
8373.06
8372.93
8372.78
8372.62
8372.45
8372.28
8372.1
8371.91
8371.71
8371.51
8371.29
8371.05
8370.82
8370.58
8370.35
8370.12
8369.89
8369.65
8369.43
8369.22
8369.02
8368.83
8368.65
8368.49
8368.35
8368.22
8368.11
8368.02
8367.95
8367.89
8367.82
8367.73
8367.66
8367.62
8367.43
8367.29
8366.85
8367.05
8367.2
8367.28
8367.34
8367.36
8367.38
8367.45
8367.52
8367.6
8367.69
8367.81
8367.95
8368.1
8368.27
8368.46
8368.68
8368.92
8369.16
8369.41
8369.67
8369.94
8370.2
8370.47
8370.74
8371.01
8371.26
8371.5
8371.73
8371.94
8372.15
8372.36
8372.56
8372.76
8372.95
8373.13
8373.28
8373.4
8373.48
8373.53
8373.55
8373.53
8373.47
8373.39
8373.27
8373.12
8372.94
8372.76
8372.57
8372.38
8372.2
8372.01
8371.81
8371.6
8371.38
8371.13
8370.88
8370.62
8370.37
8370.11
8369.86
8369.61
8369.37
8369.14
8368.92
8368.72
8368.53
8368.37
8368.22
8368.1
8367.99
8367.91
8367.85
8367.8
8367.73
8367.68
8367.68
8367.62
8367.42
8367.31
8366.89
8367.1
8367.24
8367.31
8367.3
8367.27
8367.28
8367.32
8367.37
8367.44
8367.53
8367.65
8367.8
8367.95
8368.12
8368.31
8368.54
8368.81
8369.08
8369.35
8369.63
8369.92
8370.21
8370.5
8370.8
8371.09
8371.38
8371.63
8371.87
8372.09
8372.31
8372.52
8372.73
8372.94
8373.16
8373.37
8373.54
8373.67
8373.77
8373.82
8373.84
8373.82
8373.76
8373.66
8373.53
8373.35
8373.14
8372.92
8372.71
8372.52
8372.34
8372.16
8371.96
8371.74
8371.5
8371.23
8370.94
8370.66
8370.39
8370.12
8369.86
8369.58
8369.31
8369.05
8368.81
8368.59
8368.4
8368.23
8368.08
8367.95
8367.85
8367.77
8367.71
8367.67
8367.63
8367.64
8367.7
8367.64
8367.53
8367.34
8367.02
8367.22
8367.34
8367.29
8367.22
8367.15
8367.12
8367.13
8367.19
8367.26
8367.35
8367.47
8367.63
8367.79
8367.95
8368.14
8368.39
8368.68
8368.99
8369.29
8369.59
8369.89
8370.2
8370.52
8370.87
8371.21
8371.52
8371.78
8372.02
8372.24
8372.46
8372.68
8372.9
8373.14
8373.42
8373.69
8373.91
8374.06
8374.16
8374.22
8374.23
8374.2
8374.14
8374.04
8373.88
8373.66
8373.39
8373.11
8372.87
8372.67
8372.49
8372.31
8372.12
8371.89
8371.63
8371.32
8370.99
8370.67
8370.39
8370.12
8369.83
8369.53
8369.22
8368.92
8368.65
8368.43
8368.24
8368.06
8367.9
8367.76
8367.65
8367.57
8367.52
8367.51
8367.52
8367.59
8367.69
8367.75
8367.67
8367.47
8367.53
8367.67
8367.59
8367.42
8367.22
8367.04
8366.94
8366.95
8367.02
8367.08
8367.15
8367.27
8367.46
8367.63
8367.74
8367.9
8368.18
8368.54
8368.9
8369.24
8369.57
8369.87
8370.16
8370.51
8370.94
8371.35
8371.68
8371.95
8372.17
8372.37
8372.59
8372.81
8373.02
8373.29
8373.67
8374.04
8374.31
8374.47
8374.57
8374.63
8374.65
8374.62
8374.55
8374.45
8374.28
8374
8373.61
8373.23
8372.95
8372.75
8372.62
8372.48
8372.29
8372.07
8371.8
8371.45
8371.01
8370.65
8370.38
8370.13
8369.83
8369.48
8369.1
8368.75
8368.46
8368.24
8368.05
8367.87
8367.71
8367.56
8367.45
8367.37
8367.34
8367.34
8367.38
8367.53
8367.8
8368.07
8368.19
8368.02
7713.78
7674.6
7657.81
7648.87
7641.19
7635.15
7631.85
7631.39
7629.23
7627.72
7630.7
7634.47
7632.98
7625.6
7624.61
7632.38
7636.33
7636.07
7636.71
7637.91
7637.76
7634.36
7624.32
7620.05
7638.09
7652.32
7653.81
7652.92
7651.62
7648.56
7644.52
7641.19
7638.17
7637.55
7641.88
7651.47
7663.84
7673.43
7678.05
7681.28
7682.41
7679.12
7674.84
7668.83
7657.12
7645.69
7636.5
7631.79
7636.06
7641.17
7645.37
7648.32
7650.74
7653.36
7653.83
7638.66
7617.1
7620.67
7634.05
7640.19
7640.9
7639.15
7636.82
7636.15
7636.79
7632.51
7621.13
7617.24
7624.37
7630.99
7632.56
7632.37
7632.9
7632.99
7631.95
7635.69
7644.69
7656.2
7674.33
7712.4
1642.63
1629.9
1618.01
1607.1
1601.17
1598.76
1597.31
1596.58
1598.46
1600.71
1597.42
1597.69
1601.07
1611.16
1614.31
1607.28
1608.69
1613.36
1619.25
1625.95
1634.73
1647.21
1661.91
1675.51
1663.87
1658.74
1661.62
1668.42
1676.58
1685.99
1698.75
1711.06
1722.49
1732.01
1738.53
1738.76
1731.3
1724.6
1720.7
1718.36
1717.99
1720.57
1724.49
1729.89
1737.9
1744.7
1741.39
1735.58
1722.19
1706.55
1696.47
1687.47
1679.01
1671.59
1668.22
1675.58
1691.97
1676.54
1659.93
1644.84
1635.23
1628.78
1623.35
1618.08
1613.83
1615.39
1624.46
1625.43
1615.82
1606.45
1600.78
1598.89
1598.15
1599.75
1603.94
1609.48
1616.55
1626.82
1637.95
1649.35
0.354508
0.4314
0.41751
0.385794
0.41868
0.484439
0.517104
0.560892
0.509735
0.620939
0.931644
1.06281
1.11852
1.01785
1.36522
1.86926
1.95406
1.96903
1.9702
1.97871
1.97364
2.01893
2.09966
2.20533
2.94826
3.62263
4.38705
5.29112
6.33525
7.45154
8.50515
8.76216
6.98847
5.02455
2.72375
0.362712
0.117535
0.109361
0.107303
0.10611
0.106056
0.103131
0.0955326
0.0942977
0.120858
0.746548
3.1878
5.4513
7.54448
9.28567
8.23545
7.00584
5.90045
4.90376
3.99314
3.06743
2.14588
2.19317
2.13184
2.05665
2.05469
2.05505
2.05658
2.03514
1.96252
1.61838
1.15614
0.928165
1.01777
1.0469
1.0355
0.965373
0.907379
0.878537
0.867064
0.837256
0.718447
0.607065
0.566449
0.58056
1.00713
2.29881
2.29115
1.77312
2.13565
3.51823
3.84644
3.88527
1.72459
4.12767
12.9731
13.0821
12.5983
3.74554
9.92185
26.7963
28.9488
31.6425
31.6654
31.6841
31.6887
31.6698
31.6008
21.9329
35.7707
35.7475
35.7031
35.3592
35.3344
35.2834
31.7802
23.9322
22.6927
16.7247
6.83204
0.115622
0.108822
0.112165
0.108719
0.10687
0.106751
0.10382
0.0962373
0.090994
0.0819226
0.686765
10.8715
20.4619
31.278
37.1998
37.2776
37.2777
38.1241
38.2109
38.2443
35.4616
18.7527
36.0932
36.1964
36.2272
36.2885
36.2938
36.3025
36.2972
36.1311
24.6646
11.3736
6.47402
11.3948
11.4238
11.1859
9.44272
8.32793
8.28414
8.20423
6.54646
2.2175
0.583416
0.59788
0.61191
0.776444
2.31702
1.88161
0.512557
0.523747
0.666401
1.02021
2.83832
3.85806
3.97984
4.11328
5.30128
9.44261
12.9554
14.1013
13.3476
6.34699
5.5755
7.19319
7.72163
7.55719
6.83172
5.52173
6.47765
3.9598
1.99509
1.01731
0.310045
0.0785942
0.0782967
0.0774101
0.0790064
0.0760677
0.0779421
0.0834569
0.0995837
0.129206
0.105912
0.104562
0.103566
0.104269
0.101894
0.0940347
0.0904313
0.0867981
0.0835565
0.0669279
0.0385606
0.0057526
-0.0223422
-0.0394047
-0.00747251
0.277525
0.864063
1.31199
3.9378
6.19623
2.54454
2.92542
2.74286
2.18865
1.76493
1.40784
0.905618
0.618147
4.31376
7.96658
4.95198
1.8389
1.53627
1.50176
1.50038
1.48054
1.28627
1.24859
1.36302
2.7037
2.73829
2.32066
0.607367
0.45519
0.412839
0.252712
0.268416
0.487853
0.514506
0.432139
0.43266
0.475669
0.753466
0.933366
2.89511
2.44578
1.82837
3.2109
2.30694
5.66276
2.39324
0.189412
0.112228
0.101407
0.0902088
0.0823554
0.0784028
0.0790364
0.078312
0.0764517
0.0777595
0.0973792
0.107176
0.108761
0.110205
0.10931
0.0865838
0.0881343
0.122438
0.127747
0.0984554
0.101874
0.102626
0.103274
0.0971457
0.093408
0.0877628
0.0819125
0.0741326
0.0580037
0.0318865
-0.00252085
-0.0332671
-0.0472693
-0.0421604
-0.0295274
-0.0218179
-0.0254976
0.000986915
0.00730714
0.0553479
0.151438
0.774437
1.22745
0.663228
0.514812
0.515562
0.544804
0.627947
0.607401
0.65811
0.679831
1.13736
1.67717
1.68979
1.37782
1.26177
1.24506
1.24247
2.57009
2.7597
2.78579
0.98664
0.183669
0.17072
0.233853
0.700525
0.727607
0.744616
0.753846
0.747367
0.347441
0.136506
0.115987
0.0916888
0.0565489
1.56116
0.959957
0.427994
0.375292
1.7878
1.82775
0.66055
0.124136
0.0869986
0.0892741
0.08604
0.0810057
0.0784549
0.0773762
0.0770531
0.0771656
0.0777868
0.0786265
0.079554
0.0801906
0.0808251
0.113859
0.122827
0.115489
0.094197
0.0968967
0.100374
0.0946767
0.0906286
0.0871519
0.084217
0.0801853
0.074002
0.085662
0.129518
0.076678
-0.0287856
-0.0463261
-0.044953
-0.0345285
0.116423
0.486081
0.467318
0.0243802
0.0512106
0.0746437
0.112149
0.175583
0.517854
1.85535
2.09856
1.89917
0.659388
0.930013
1.07851
0.92123
0.930767
0.951985
0.983514
1.47916
1.34953
1.21057
2.64459
2.76945
2.75476
2.76231
1.23112
0.185418
0.167462
0.352796
0.698024
0.71806
0.731763
0.738021
0.446351
0.156297
0.119095
0.101949
0.0777547
0.0564667
0.0443882
0.14006
0.465511
0.288935
0.144703
0.661894
0.98083
1.00941
0.486297
0.10096
0.0839692
0.0804201
0.0784445
0.0778722
0.0778021
0.0781707
0.0790133
0.0799743
0.080712
0.0805267
0.0908337
0.1223
0.121836
0.0842246
0.0880062
0.0907444
0.0953325
0.0877036
0.0857449
0.0848731
0.0827729
0.0786709
0.119451
0.566118
0.844043
0.749762
0.0374342
-0.0437975
0.128184
0.842855
0.839845
0.840441
0.846925
0.827527
0.230347
0.063074
0.211258
1.73924
2.06303
2.07741
2.09374
2.10509
2.11826
2.13913
2.16938
2.17777
0.927519
1.37503
2.08415
2.09331
2.06208
1.82356
2.64708
2.74787
2.57134
2.45477
0.706989
0.198041
0.183679
0.160344
0.478618
0.507636
0.574604
0.457065
0.171738
0.124942
0.109316
0.0968442
0.0766788
0.0550868
0.0331436
0.0180261
0.0351661
0.0722538
0.0663614
0.0316491
0.198937
1.02107
1.06265
0.885641
0.175537
0.0787913
0.076585
0.0772194
0.0776891
0.0777672
0.0782195
0.0788106
0.0792398
0.0820223
0.117749
0.120416
0.0843667
0.0797336
0.0815204
0.0871429
0.0887684
0.0839212
0.080897
0.0796808
0.0763487
0.235683
0.91563
0.890921
0.864832
0.828276
0.256346
-0.0468215
-0.0195829
0.168153
0.259223
0.588366
0.842367
0.854789
0.655571
0.284645
1.67212
2.0261
2.06648
2.00404
0.93675
0.820933
1.73625
2.12174
2.13124
2.00331
1.97311
2.0091
2.05828
2.08261
2.04502
1.17804
0.391281
1.09304
0.279552
0.324115
0.246382
0.290466
0.456272
0.505075
0.322588
0.0738668
0.0710829
0.434579
0.578893
0.431659
0.201998
0.0931874
0.0721638
0.0512541
0.0285752
0.0120691
0.0039248
0.00285643
0.00911074
0.0178993
0.026527
0.105063
1.06408
1.1024
0.971979
0.153323
0.0723957
0.0740415
0.0754592
0.0756526
0.0759886
0.0764548
0.0769536
0.0858743
0.115874
0.0962908
0.0744631
0.0748983
0.0753544
0.0819637
0.0823864
0.0816604
0.0749603
0.0732605
0.0683854
0.325918
0.909917
0.908016
0.586453
-0.0240429
-0.0373133
-0.0492505
-0.0649295
-0.0821699
-0.0925417
-0.0804026
0.289773
0.794122
0.767794
0.413907
0.223896
0.283888
0.00569573
-0.0617924
-0.041692
-0.0236207
-0.00876336
0.038548
0.353956
0.315899
0.343779
1.06269
1.60697
1.48294
0.432534
0.155181
0.151518
0.148026
0.167612
0.210569
0.271831
2.33337
1.84559
0.400575
0.0559857
0.0510405
0.0455475
0.33634
0.580214
0.590761
0.605512
0.415491
0.104495
0.0380453
0.0151051
-0.00199979
-0.0119872
-0.0153445
-0.0120438
-0.00153351
0.0162767
0.0299218
0.527513
1.13128
1.12997
0.395105
0.0656276
0.0684047
0.0709371
0.0716762
0.0722555
0.0728096
0.0733783
0.0888585
0.11322
0.0709626
0.0697928
0.0695469
0.0691956
0.0727779
0.0758727
0.0759853
0.0698809
0.0668539
0.0600126
0.187992
0.904322
0.854472
0.0465785
-0.0218126
-0.0401097
-0.0568829
-0.0747968
-0.0924066
-0.106537
-0.117246
-0.112962
-0.0437787
-0.00666651
-0.0726612
-0.105524
-0.0965123
-0.0834551
-0.0685676
-0.0517979
-0.0357449
-0.0206173
-0.00555618
0.00922223
0.0240904
0.0356858
0.0434489
0.0514193
0.0621522
0.0941736
0.170704
0.185399
0.19748
0.213025
0.607706
1.3068
2.94507
2.69667
0.201391
0.0473359
0.0438494
0.033929
0.0238104
0.279053
0.584324
0.594796
0.596096
0.518391
0.0853958
-0.00463591
-0.0233669
-0.0329723
-0.0200623
-0.0188964
-0.0226425
-0.00169238
0.0235633
0.224107
1.14796
1.15549
0.497898
0.0567485
0.061171
0.0645969
0.0659626
0.0669781
0.0677164
0.0688639
0.0970525
0.104851
0.0660456
0.0657017
0.0668134
0.0630511
0.0623364
0.068665
0.0688748
0.0645754
0.0604811
0.0522829
0.155938
0.836115
0.788937
0.0250613
-0.0182958
-0.0401085
-0.0608407
-0.0812788
-0.101363
-0.117948
-0.130766
-0.138599
-0.141526
-0.137562
-0.128402
-0.118322
-0.107839
-0.0951716
-0.0803414
-0.0646603
-0.0496965
-0.0356772
-0.0219489
-0.00818466
0.00493302
0.0161275
0.0257632
0.0358545
0.124068
0.542839
0.580238
0.219954
0.231802
0.503955
1.33692
1.33095
3.02129
1.96947
0.0882223
0.0483538
0.0466806
0.0336015
0.0188719
0.00884905
0.116509
0.560074
0.586529
0.580311
0.423237
0.000473033
-0.0481485
-0.0526763
-0.0301315
-0.0255343
-0.0334348
-0.0232673
0.0104829
0.104832
1.11385
1.1784
0.531842
0.0472376
0.0530188
0.0569161
0.0588004
0.0603047
0.0612935
0.0658504
0.0913011
0.0688203
0.0601236
0.0642272
0.0636618
0.058435
0.0556718
0.0560096
0.061341
0.0588762
0.0529374
0.0429463
0.126723
0.753714
0.783115
0.0650348
-0.0196697
-0.0403103
-0.0317591
-0.0641838
-0.113619
-0.135615
-0.152324
-0.150795
0.00269207
0.0501957
-0.121616
-0.141658
-0.128679
-0.112271
-0.085794
-0.0643009
-0.0562865
-0.0511015
-0.0377568
-0.0247688
-0.0124782
-0.00124282
0.00934863
0.020783
0.184766
0.772614
0.828323
0.87207
0.474519
0.487835
1.05902
1.21436
3.10308
0.90555
0.0441242
0.0487061
0.0461189
0.0330328
0.0163899
0.00220622
-0.0095779
0.0563451
0.571274
0.574106
0.551471
0.0748667
-0.0707708
-0.0772489
-0.057668
-0.0484065
-0.0376926
-0.0432525
-0.00607458
0.0590434
1.1269
1.19399
0.665885
0.0388394
0.0441096
0.0482521
0.0505974
0.0526017
0.0539194
0.0619893
0.0846671
0.0540661
0.0525864
0.0576282
0.0569542
0.0563346
0.0499602
0.0473423
0.0504131
0.0506306
0.0439185
0.0306008
0.0764865
0.66691
0.753261
0.202764
-0.0252054
-0.0106287
0.151018
0.125379
-0.080416
-0.156759
-0.162994
-0.00138676
0.0349973
0.0390332
0.0498306
0.041869
-0.105265
-0.108309
-0.0414708
0.0663776
0.046853
-0.0670091
-0.0545467
-0.0419089
-0.0297475
-0.0180032
-0.00632821
0.00602302
0.0180477
0.0567793
0.727282
1.02258
1.0416
0.948993
0.487503
0.481892
3.1866
0.354365
0.041791
0.0443939
0.0395457
0.0265772
0.0106221
-0.00425964
-0.0176383
-0.0303424
0.177957
0.563501
0.520779
0.00113352
-0.0982597
-0.101308
-0.0778512
-0.0699144
-0.0553878
-0.051543
-0.0211909
0.0091281
1.07387
1.20566
0.720163
0.0284804
0.0345142
0.0388899
0.0417933
0.044296
0.0459803
0.0555154
0.0687944
0.046599
0.0450772
0.0454845
0.0499929
0.0494525
0.0482546
0.0400936
0.0382494
0.0413371
0.0347745
0.0167994
0.0135231
0.536725
0.768835
0.56636
-0.0294153
0.00959899
0.142306
0.116053
0.0833427
0.00994188
0.0271467
0.00916679
0.00155695
0.00527014
0.0178183
0.0345806
0.0530562
0.0724078
0.0910179
0.105269
0.116679
0.0279732
-0.0699548
-0.0588236
-0.0475329
-0.0358879
-0.0232606
-0.00940204
0.0048188
0.0181437
0.0284525
0.214301
0.91465
1.11825
1.06828
0.482138
2.34025
0.102959
0.0352158
0.036082
0.0295259
0.0165646
0.00160011
-0.0126848
-0.0256028
-0.0374573
-0.0452942
0.276796
0.0343632
-0.111818
-0.120732
-0.101026
-0.0948725
-0.0857282
-0.0684417
-0.0602669
-0.0296003
-0.000395329
0.862301
1.21874
0.606302
0.0147583
0.0246838
0.0292555
0.0328563
0.0358088
0.0378619
0.0475791
0.0476338
0.0391324
0.0374692
0.0364118
0.0373977
0.0400224
0.038249
0.0327476
0.0285115
0.0309606
0.023898
0.00426902
-0.0141907
0.30311
0.773201
0.766417
0.216346
0.00504185
0.0192389
0.101274
0.0675439
0.0286818
-0.0892564
-0.0902739
-0.117428
-0.253744
-0.252252
-0.176079
-0.0680687
0.0102799
0.0637177
0.0860189
0.0994025
0.115587
0.0817838
-0.0465679
-0.0630706
-0.0531913
-0.0408149
-0.0257844
-0.00938468
0.0059653
0.0188771
0.0283781
0.0336266
0.600539
1.61858
1.66114
0.00979357
0.0325172
0.0261969
0.0246342
0.0174295
0.00491086
-0.0093309
-0.0228673
-0.0344809
-0.0433195
-0.0532838
-0.0735348
-0.0977789
-0.120112
-0.127945
-0.106479
-0.10361
-0.0911957
-0.0849369
-0.0684132
-0.0272193
-0.0061517
0.984324
1.22808
0.276388
0.00571213
0.0149205
0.0199877
0.024271
0.0275635
0.0298924
0.0386255
0.0521603
0.0316824
0.0295467
0.0285178
0.0281389
0.0278436
0.026904
0.0254959
0.0198662
0.0158314
0.0119483
-0.00781669
-0.0257265
0.0299788
0.708737
0.760837
0.743397
0.0598947
0.00222118
-0.0175754
0.0472831
-0.157552
-0.298818
-0.324869
-0.334086
-0.328341
-0.306001
-0.274271
-0.238844
-0.20469
-0.137734
0.015319
0.0926618
0.110117
0.124681
0.137569
0.0279111
-0.0601278
-0.0570663
-0.0425156
-0.0241956
-0.00616951
0.00869553
0.0194457
0.0257523
0.0281004
0.44512
1.88652
0.00830154
0.0181533
0.0174697
0.0126085
0.00418476
-0.00787989
-0.0217387
-0.0345891
-0.0443753
-0.04908
-0.0555416
-0.0728123
-0.0947112
-0.115878
-0.120808
-0.125755
-0.120991
-0.107901
-0.0852751
-0.0541828
-0.0217025
0.703213
1.24808
0.705305
0.0229031
-0.000414809
0.00568183
0.0116919
0.0164258
0.0199549
0.0225184
0.0281174
0.0459896
0.0410629
0.0235884
0.0298206
0.0205617
0.0203053
0.0193991
0.017375
0.0116321
0.00443005
-0.00443244
-0.0184792
-0.0354976
-0.0583245
0.156507
0.756296
0.74488
0.714121
0.050959
-0.130203
-0.182206
-0.281882
-0.324503
-0.353047
-0.362262
-0.35237
-0.326491
-0.289748
-0.248932
-0.210279
-0.177751
-0.152731
-0.0805317
0.105031
0.122932
0.13385
0.142134
0.0510913
-0.0450186
-0.0578819
-0.0386486
-0.0179386
-0.000360799
0.0119652
0.0189061
0.0246689
0.0330049
1.03565
0.00365292
0.00669069
0.00743957
0.0013523
-0.0080254
-0.0206399
-0.0349362
-0.0472185
-0.0546624
-0.0551968
-0.0585785
-0.0712554
-0.0868761
-0.10133
-0.108175
-0.111204
-0.101375
-0.0808089
-0.0578158
-0.0373356
0.604217
1.44306
1.28501
0.0776574
-0.0226872
-0.00878418
-0.00154217
0.00471929
0.00960094
0.0132615
0.0159664
0.0183517
0.0372935
0.0319323
0.0262271
0.0246515
0.0219373
0.0129744
0.0121665
0.00884717
0.00384715
-0.00355108
-0.0137364
-0.026657
-0.0425239
-0.063883
-0.0889182
0.233122
0.743507
0.721327
0.695567
0.00425247
-0.237069
-0.286656
-0.328781
-0.356628
-0.365342
-0.354367
-0.327083
-0.288914
-0.247109
-0.20807
-0.175591
-0.150677
-0.132817
-0.107337
0.0744532
0.134527
0.138438
0.0717518
-0.0245757
-0.0694703
-0.0499924
-0.0281552
-0.00838484
0.00567171
0.0140906
0.021437
0.0310049
0.0229859
0.0021555
0.00176896
-0.000980558
-0.00774221
-0.0174911
-0.0317532
-0.0471681
-0.058762
-0.0634479
-0.060848
-0.0629643
-0.0711245
-0.081187
-0.0907075
-0.0978897
-0.100434
0.467285
1.23349
1.11159
1.18509
1.52828
1.45453
0.42398
-0.0452538
-0.0264344
-0.0152858
-0.00731409
-0.00104888
0.00390127
0.00759125
0.0103786
0.0121495
0.0144956
0.0122455
0.0211057
0.0186951
0.0183941
0.00676964
0.00776475
0.00231869
-0.00276394
-0.00994874
-0.0197056
-0.0319511
-0.0461988
-0.0643082
-0.0877482
-0.111048
0.0638393
0.525372
0.698735
0.485072
-0.190976
-0.273715
-0.311311
-0.33631
-0.344218
-0.333041
-0.307106
-0.271563
-0.233306
-0.198073
-0.168868
-0.146407
-0.130007
-0.118572
-0.111508
0.0865603
-0.00630596
-0.0887155
-0.07709
-0.068175
-0.0544602
-0.0347063
-0.0141978
0.000870516
0.0101088
0.016821
0.0219878
0.0246327
0.00302803
0.000155254
-0.00612712
-0.0135421
-0.0231153
-0.039797
-0.0557267
-0.0659718
-0.0679131
-0.0642221
-0.0656183
-0.0708964
-0.0778537
-0.0839275
-0.0893936
-0.0899647
0.866035
1.59778
1.60001
1.58974
1.55932
0.582096
-0.0691776
-0.0468728
-0.0297774
-0.0196485
-0.0117395
-0.00558393
-0.000708252
0.00292286
0.00568787
0.00737699
0.00820248
0.00710299
0.0178259
0.0152722
0.0142732
0.00197326
0.0039283
-1.62759e-05
-0.00759662
-0.0143652
-0.0233241
-0.0346535
-0.0472052
-0.0619752
-0.0809547
-0.103917
-0.127058
-0.116714
0.0743457
0.0539113
-0.0856897
-0.219228
-0.275864
-0.29488
-0.298816
-0.290805
-0.269565
-0.240841
-0.210343
-0.182285
-0.15873
-0.140014
-0.125679
-0.115001
-0.107464
-0.101764
-0.073387
-0.0884604
-0.0845076
-0.0678212
-0.0540461
-0.0361857
-0.0167089
-0.00187498
0.0071219
0.0132784
0.0168837
0.0206178
0.0020595
-0.0030408
-0.00965353
0.00734716
0.0106402
-0.0409942
-0.0581558
-0.0665866
-0.0661904
-0.063441
-0.0583348
-0.0662673
-0.0745329
-0.0794365
-0.0832139
-0.0631165
0.198459
0.566984
1.0502
0.734013
0.159516
-0.0839254
-0.0660202
-0.0450269
-0.0314123
-0.0221529
-0.0148171
-0.0089511
-0.00432242
-0.000831391
0.00179933
0.00339836
0.00406546
0.0033586
0.00958716
0.0139269
0.00781085
-0.00159836
0.000613628
0.00232969
-0.0106465
-0.0168216
-0.0249077
-0.0353089
-0.0465396
-0.0586755
-0.0732588
-0.0914101
-0.112379
-0.133975
-0.154955
-0.174763
-0.167791
-0.187411
-0.217103
-0.240448
-0.247149
-0.241495
-0.226663
-0.206367
-0.184675
-0.164295
-0.146506
-0.131611
-0.119439
-0.109604
-0.101703
-0.0956215
-0.0897882
-0.0832108
-0.0761495
-0.0658308
-0.050961
-0.0331086
-0.0160695
-0.00288596
0.0053268
0.010668
0.0126608
0.0169808
-0.0015197
-0.00774095
-0.0128084
0.0534921
0.274933
0.107319
-0.0545531
-0.0607964
-0.0609229
-0.058394
-0.0549306
-0.0589955
-0.0696043
-0.0736324
-0.0685271
-0.0703069
-0.088276
-0.0924406
-0.0867317
-0.101906
-0.0926765
-0.0755773
-0.0564113
-0.0413967
-0.0312868
-0.0232455
-0.016674
-0.0113139
-0.00705183
-0.0037769
-0.00135014
0.000194453
0.000547711
0.000283672
0.000207883
0.00904044
-0.000952964
-0.00342765
-0.00131569
0.000426241
-0.0123337
-0.01778