/*--------------------------------*- C++ -*----------------------------------*\
| =========                 |                                                 |
| \\      /  F ield         | OpenFOAM: The Open Source CFD Toolbox           |
|  \\    /   O peration     | Version:  2412                                  |
|   \\  /    A nd           | Website:  www.openfoam.com                      |
|    \\/     M anipulation  |                                                 |
\*---------------------------------------------------------------------------*/
FoamFile
{
    version     2.0;
    format      ascii;
    arch        "LSB;label=32;scalar=64";
    class       volScalarField;
    location    "4.25";
    object      p;
}
// * * * * * * * * * * * * * * * * * * * * * * * * * * * * * * * * * * * * * //

dimensions      [1 -1 -2 0 0 0 0];

internalField   nonuniform List<scalar> 
6400
(
23741.9
24350
25053.3
25187.8
24256.7
22517.7
21055.7
21082
23006.7
25959.1
28176.6
28090.4
25418.1
21507.4
18629.1
18608.8
21649.2
26113
29444.4
29686.2
26662.5
22096.9
18593.2
18104
20813
25086.1
28480.9
29176.4
26966.6
23269
20209.8
19383.7
21020.1
23992.4
26578.1
27460.4
26387.3
24166
22089.8
21191.8
21753.6
23285.6
24902
25820.4
25710.3
24758.3
23491.3
22499.3
22194.9
22679.9
23729.3
24876.8
25586.3
25475.8
24520.9
23129
21999.8
21790.4
22732.5
24428
25988
26492.2
25535.9
23534.5
21561.7
20768.5
21700
23925.2
26232.7
27308.4
26504.5
24232.5
21733.4
20357
20796.6
22752
25228.4
27221.8
28263.4
28597.7
22068.7
21996.9
22674.6
23785.2
24501.5
24015.5
22325.2
20380.5
19524.7
20570.6
23140.7
25773
26787.5
25378.8
22213.3
19103.6
17929
19467.8
22884.7
26207.4
27505.6
26045
22709.4
19447.1
18100.7
19341
22335.2
25308.9
26618.3
25673.3
23185
20651.9
19448.2
20076.2
21988.4
24014.8
25077.4
24756.1
23413.3
21880.2
20949.4
20980.5
21804.6
22911.8
23757.5
24008.9
23635.5
22856.6
22020.2
21474.3
21456.1
22003.9
22912.8
23776.1
24142
23744.1
22692.8
21488.9
20802.2
21098.5
22324.6
23865.5
24845.9
24633.9
23251.6
21421.7
20185.7
20295.6
21746.9
23750.6
25182
25238
23900
21913.8
20319.3
19861.2
20680.3
22428.8
24485.4
26800.3
21355.7
20216.6
20140.4
21296
23133.8
24316.4
23739.9
21404.3
18587
17116.7
18169
21387.4
24966.5
26710.1
25416.8
21698.7
17680
15734.3
17040.5
20855.8
24961.3
26995
25849.2
22283.9
18414.9
16427.2
17314.4
20385.5
23777.7
25602.5
25010
22564.2
19782.7
18192.5
18492.2
20279.1
22419
23758.9
23736.8
22574.1
21023.2
19891.6
19640.4
20242.9
21304.3
22310.1
22849.8
22740.5
22051.4
21066.4
20201.1
19865.6
20285.5
21347.9
22579.3
23327.3
23100
21890.1
20267.8
19131
19205.8
20579.6
22569.3
24055.1
24121.3
22630.9
20363.3
18598.1
18371.1
19850.5
22223.2
24169.4
24628.8
23385.8
21133.9
19044
18170.1
19011.1
21188.2
24310.8
21263.3
19336.4
18106.2
18246.7
20083.8
22624.4
24124.1
23266.6
20190.8
16603.7
14793.3
16138.7
20107.1
24449
26529.4
24973.7
20575.2
15868.3
13612.1
15125.5
19501.2
24173.8
26470.2
25178.2
21193.1
16897.2
14704.6
15679.6
19031.7
22714.5
24689
24061.7
21457.5
18500.8
16802.2
17086.9
18930.7
21159.8
22588.2
22632.2
21494.8
19911.3
18686.9
18311.7
18819.8
19881.6
21006.5
21737.3
21785
21111.8
19965.7
18835.1
18282.5
18677.8
19948.8
21519.4
22540.6
22345.4
20886.3
18864.5
17409.5
17442.5
19086.1
21506.3
23333.6
23455
21705.9
19021.2
16920.5
16619.7
18307.9
21035.6
23277.3
23812.7
22396.1
19855.7
17637.5
17053.5
18373.2
21159.4
21000.8
19401.5
17443
15993.3
16355.7
18772.8
21950.6
23780.4
22758
19134.7
14947.3
12819.9
14276.8
18675.3
23493.8
25838.4
24231.9
19553.5
14528.8
12086.6
13603.1
18112.6
22941.3
25335.7
24069.4
20070.7
15756.1
13543.8
14478.2
17758.1
21361.5
23301.2
22724.1
20245.6
17423.5
15783.3
16004
17691.8
19767.2
21144.2
21276.8
20314.8
18879.5
17675.3
17173.3
17487.5
18417.6
19567.6
20474.2
20739.4
20181.3
18962.3
17604.3
16807.1
17097.5
18479.4
20318.9
21607.5
21514.4
19926.7
17619.8
15891.4
15820.8
17584
20267.5
22345.4
22569.8
20738.6
17856.8
15565.3
15174.7
16891.8
19710.6
22019.7
22548.4
21096.4
18643.1
16773.9
16544.6
17886.4
19598.8
19629.1
18150.1
15690
13885.3
14384.1
17365.8
21204.5
23415.6
22304.2
18205.7
13439.9
10935.4
12378.2
17081
22327.9
25005.6
23505.4
18705.6
13430.1
10733
12084
16555.2
21464
24020.3
22944.5
19101.1
14844.1
12555.8
13299.5
16353.6
19808
21760.8
21363.7
19142.5
16514.3
14892.4
14941.4
16364.4
18237.5
19595.4
19904.1
19206
17960
16752
16053.6
16100.2
16860.6
18049.7
19185.6
19731.1
19328.1
18036.2
16413.9
15317.8
15457.2
16931.6
19057
20658
20721.6
19046
16461.4
14427.1
14191.6
16010
18921.1
21263.9
21653.1
19822.1
16806.8
14339.1
13817.6
15483.9
18303
20612
21132.5
19736.2
17489.4
15848.2
15301.1
16753.8
18901.4
19099.2
17133.2
13937.2
11757.5
12418
15955.7
20405.6
22953.2
21758.3
17250.3
11998.4
9181.31
10605.7
15538.5
21109.5
24044.2
22644
17788.5
12360.5
9485.09
10686
15070.5
19979.7
22632.4
21727.8
18069.4
13924.7
11607.7
12177.7
14991.9
18267.1
20206.7
19978.9
18019.3
15595.4
13999.5
13878.6
15036.7
16709.9
18055.1
18546.2
18112.4
17047.1
15821.2
14914.8
14692.4
15293
16536.6
17913.2
18739.6
18482.5
17106.2
15214.9
13825.1
13822.9
15393.9
17796.9
19693.3
19900.5
18141.1
15304.2
12998.7
12620.4
14485.1
17581.6
20132.4
20645.4
18817
15721.8
13164.9
12593.1
14236.8
17007.4
19205.9
19587.9
18121.1
15964.1
13989
13242.9
16603.5
18731.6
18703
16025.1
12190.5
9730.18
10548.1
14541.1
19471.9
22283
21045.2
16271.2
10704.4
7675.75
9050.31
14061.4
19766.8
22836
21548.2
16774.2
11377.3
8451.73
9509.38
13697.6
18448.9
21079.3
20325.6
16929.6
13020
10772.2
11194.9
13721.2
16732
18586
18502.1
16829.3
14662.4
13140.2
12869.9
13752.8
15197.7
16501.8
17160
16991.8
16120.1
14893.1
13792.5
13306.9
13743.3
15027.3
16625.7
17718.2
17606.4
16164.5
14036.4
12381.9
12244.1
13883.7
16511.8
18653.6
18989.2
17182.9
14169.9
11670
11180.3
13052.3
16237.4
18888.1
19464.1
17663.7
14598.4
12099.8
11589.5
13220.7
15827
17703.6
17727.1
16175
13884.2
10543.7
13197.8
16204.5
18422.5
18075.6
14887.7
10578
7889.03
8798.72
13101.3
18367
21381.9
20170.4
15296.1
9585.14
6422.2
7684.94
12607.9
18271.9
21388.9
20260.6
15716.7
10512.4
7621.68
8504.56
12376.6
16836.1
19370.3
18785.9
15740.5
12166.3
10044.9
10310.8
12490.2
15168.6
16897.7
16962.1
15612.4
13744.2
12319.8
11898.6
12486.3
13679.4
14927.5
15751
15856.6
15191.7
13976.4
12690.4
11943.4
12207.5
13514.1
15312.9
16657.7
16696.5
15217.1
12892.6
11003.8
10728.6
12396.1
15185.6
17521.1
17978.9
16176.6
13074.3
10456.9
9878.02
11705.6
14874.3
17518.7
18108.4
16376.8
13460.8
11159.9
10787.8
12355.7
14620.4
15982.8
15738
14276.2
9837.91
10038
12128.9
15411.9
17820.1
17353.9
13814.9
9139.44
6257.32
7191.21
11654.2
17101.7
20251.8
19124.3
14302.3
8607.42
5388.07
6494.18
11192.6
16668.1
19756.8
18818.1
14613.4
9721.9
6930.79
7621.08
11098.6
15179.1
17569.5
17163.9
14518.8
11335
9369.57
9473.89
11278.9
13596.2
15186.1
15401.7
14386.9
12828.1
11506.1
10933.2
11224
12164.3
13355.1
14339.8
14713.5
14252.5
13054.2
11596.2
10601.7
10696.8
12011.7
13982.7
15554
15739.4
14249.2
11775.7
9694.47
9289.84
10947.2
13830
16297.5
16860.5
15105.5
11999.5
9347.82
8713.1
10456.9
13513.2
16048.2
16599.4
14969.9
12304.9
10303.9
10090.8
11509.4
13336
14325.3
14263.1
11087.8
8471.46
8275.98
10646.1
14450
17099.7
16553.9
12767.9
7861.21
4855.91
5760.17
10228.8
15689.8
18888.3
17886.4
13259.1
7740.77
4555.63
5482.44
9842.62
14994.6
17972.4
17229.7
13443.4
8964.5
6338.54
6840.7
9877.24
13516
15717.9
15481.3
13256.5
10494.1
8709.52
8663.12
10092.5
12040.8
13481.5
13837.6
13147.8
11892.7
10675.3
9962.67
9972.99
10672.1
11803.4
12932.5
13552.1
13282.4
12109.2
10506.5
9295.06
9233.73
10538.2
12638.4
14393.1
14711.1
13239.7
10679
8464.99
7950.73
9560.58
12457.6
14979
15615.9
13946
10926.3
8335.4
7691.63
9321.87
12173.9
14497.8
14958.6
13456.2
11115.7
9470.49
9418.65
10690.7
12197.5
13300.1
12910.3
8854.24
6385.64
6378.58
9288.06
13442.1
16186
15576.8
11699.9
6742.28
3703.9
4527.97
8844.46
14145.3
17298.3
16453.5
12151.9
6962.71
3903.22
4639.6
8566.08
13275.5
16064.4
15513.7
12204.5
8218.17
5815.26
6142.43
8711.47
11864.9
13841.8
13757.4
11955.5
9629.19
8044.13
7864.43
8930.77
10514.4
11798.8
12277.7
11891.5
10926.1
9816.44
8984.43
8741.51
9216.45
10282.3
11527.8
12359.5
12264.3
11130.7
9423.89
8038.91
7837.98
9106.95
11279.1
13160.3
13591
12173.1
9599.6
7325.7
6729.09
8252.61
11076.5
13563.5
14235.6
12685.7
9843.93
7411.49
6807.77
8297.97
10862
12886.1
13214.6
11857.8
9892.04
8653.53
8819.32
9982.34
11465
13424.9
10225.1
6922.26
4583.58
4907.89
8032.12
12251.5
14983.8
14386.2
10601.2
5777.05
2795.66
3495.48
7514.73
12493.6
15509.3
14841.2
10974.1
6244.87
3393.3
3938.29
7361.07
11536.4
14072.6
13702.4
10904.5
7462.98
5325.35
5495.16
7590.93
10240
11969.3
12017.6
10625.1
8730.77
7353.41
7060.3
7788.27
9024.37
10151.3
10731.6
10618.2
9920.43
8920.1
7995.2
7534.95
7807.73
8799.8
10125.4
11126.4
11185
10109.5
8349.23
6844.01
6524.62
7729.04
9906.23
11847.3
12365.6
11037.4
8531.74
6278.45
5632.22
7032.83
9696
12058.4
12723.9
11324.2
8744.34
6559.03
6038.27
7365.1
9573.28
11232.8
11406.8
10223.4
8690.01
7912.03
8237.35
9296.86
11520.9
10929.8
8712.98
5548.39
3305.13
3666.19
6738.79
10848.2
13510
12992
9457.64
4934.21
2101.29
2651.74
6255.78
10772.6
13563.1
13074
9719.09
5551.45
2979.26
3345.71
6226.02
9807.12
12041.2
11830.4
9550.25
6676.4
4831.39
4868.01
6507.13
8656.9
10129
10285.7
9272.28
7787.55
6617.15
6234.72
6661.89
7580.36
8553.34
9208.56
9326.34
8865.31
7974.73
6990.2
6358.69
6458.24
7367.42
8728.58
9845.64
10030.6
9032.75
7277.73
5715.95
5306.45
6418.02
8527.99
10453.7
11027
9820.57
7463.96
5315.65
4658.65
5906.87
8328.44
10480.5
11097.2
9870.14
7621.15
5753.76
5346.95
6490.54
8297.67
9564.2
9598.25
8634.6
7557.24
7120.12
7377.8
7630.98
9773.26
9777.53
7683.24
4483.27
2252.36
2567.05
5453.59
9299.21
11802.3
11394.5
8241.08
4173.95
1587.45
1985.1
5083.8
9019.47
11500.4
11175.4
8380.75
4849.82
2619.04
2832.66
5159.54
8113.51
10007.9
9926.24
8146.7
5839.56
4303.56
4237.75
5455.32
7129.51
8342.5
8577.75
7898.6
6788.04
5819.8
5378.74
5554.63
6194.46
7017.34
7712.41
8008.19
7746.09
6968.07
5967.69
5223.38
5185.31
5999.23
7340.03
8506.53
8783.03
7884.44
6203.52
4661.49
4198.81
5190.07
7154.4
8980.22
9567.76
8510.74
6383.52
4426.84
3802.65
4876.29
6984.76
8849.88
9379.2
8340.35
6472.33
4969.1
4690.46
5636.23
7029.58
7921.12
7855.99
7116.86
6377.51
5976.28
3426.49
6856.31
8756.38
8726.26
6543.36
3486.94
1419.35
1677.72
4231.47
7638.42
9883.41
9606.64
6948.89
3474.89
1221.04
1466.65
3990.45
7252.76
9357.86
9180.47
6973.17
4125.67
2278.71
2365.09
4145.89
6465.01
7999.63
8017.8
6707.66
4947.02
3723.46
3585.55
4426.63
5661.35
6620.51
6902.88
6506.26
5728.08
4956.22
4491.58
4471.36
4873.29
5545.76
6238.02
6652.99
6552.8
5897.81
4935.51
4143.15
4001.29
4698.55
5952.13
7095.28
7430.18
6660.66
5131.62
3689.97
3209.1
4047.37
5783.84
7425.69
7989.95
7111.45
5290.01
3602.98
3047.93
3926.28
5663.54
7185.03
7603.07
6764.94
5304.76
4179.98
4024.43
4768.07
5769.98
6330.54
6181.64
5608.76
4977.39
636.474
3461.5
5866.46
7437.07
7220.18
5264.46
2618.97
812.745
964.675
3060.46
5907.02
7832.04
7700.34
5604.39
2797.49
921.29
1019.26
2944.29
5502.15
7207
7161.49
5530.61
3360.15
1901.47
1882.25
3152.66
4870.73
6056.48
6150.79
5260.37
3997
3066.65
2880.82
3400.45
4249.46
4974.91
5278.78
5109.45
4613.19
4023.23
3564.72
3402.38
3609.59
4136.08
4788.55
5268.64
5294.94
4770.22
3892.49
3108.54
2892.63
3455.66
4566.28
5625.9
5992.14
5375.5
4059.67
2780.9
2308.55
2969.67
4418.73
5817.19
6332.15
5650.87
4183.03
2812.12
2346.49
3019.21
4359.94
5518.65
5821.72
5187.19
4127.66
3359.09
3306.29
3855.39
4505.58
4775.18
4566.07
4079.94
-141.441
1061.51
2635.21
4451.37
5635.97
5467.72
3913.76
1782.49
305.445
384.664
2010.06
4240.73
5769.94
5717.38
4150.97
2022.39
573.216
592.763
1981.45
3863.69
5147.83
5169.59
4033.89
2482.01
1407.52
1338.36
2187.19
3379.85
4238.06
4363.19
3804.91
2957.32
2289.67
2092.38
2371.99
2914.65
3439.03
3733.53
3717.2
3429.57
2991.5
2568.22
2332.8
2412.26
2818.09
3400.4
3878.84
3968.97
3553.43
2792.96
2084.06
1854.93
2302.91
3237.18
4147.29
4484.74
4000.79
2928.05
1873.54
1467.43
1974.74
3115.89
4221.64
4637.47
4127.21
3017.9
1989.85
1645.67
2138.2
3098.26
3901.69
4086.68
3635.38
2936.82
2478.36
2501.28
2866.66
3210.25
3269.88
3055.42
289.495
265.651
645.982
1596.47
2791.29
3569.7
3408.46
2323.31
909.959
-4.68279
128.238
1236.37
2667.87
3588.65
3483.39
2450.95
1122.1
265.156
332.183
1218.79
2365.27
3113.71
3090.23
2387.81
1464.06
843.918
820.86
1326.87
2021.37
2516.51
2591.1
2276.73
1793.54
1401.36
1264.91
1399.61
1702.47
2025.1
2239.47
2272.6
2116.21
1826.13
1514.43
1321.65
1361.1
1651.15
2077.01
2422.78
2477.48
2165.25
1618.2
1130.1
998.674
1340.91
1998.2
2604.82
2794.82
2428.28
1693.93
1012.52
789.234
1164.17
1919.41
2607.6
2825.84
2462.75
1760.84
1154.7
992.504
1324.23
1892.81
2325
2383.29
2104.14
1736.47
1539.69
1597.51
1781.82
1896.95
1864.83
458.648
309.529
238.878
327.232
604.238
922.846
1078.15
959.828
627.669
275.019
110.79
231.828
564.186
910.424
1070.11
958.928
653.675
338.732
192.465
284.53
543.819
811.244
938.349
870.261
666.403
453.627
347.178
388.958
535.35
694.34
782.806
768.525
676.762
565.304
488.792
474.121
516.191
589.211
661.862
707.746
710.337
666.276
588.979
509.067
465.923
489.183
578.278
694.286
774.379
765.736
660.632
509.116
396.517
394.856
516.007
697.733
835.4
843.554
710.474
509.844
359.218
349.152
486.408
688.516
834.424
839.669
708.177
526.957
407.79
415.519
530.188
667.219
738.926
712.863
626.838
553.017
540.174
577.919
613.826
612.706
-10.0004
-10.0373
-10.064
-10.0605
-10.0147
-9.90876
-9.86312
-9.96077
-9.99384
-10.0423
-10.096
-10.0727
-10.0296
-9.92897
-9.8794
-9.96577
-10.0113
-10.0362
-10.0725
-10.062
-10.0357
-9.97493
-9.93988
-9.97988
-10.0183
-10.0274
-10.0447
-10.0454
-10.0349
-10.0062
-9.98546
-9.99296
-10.0134
-10.0194
-10.0262
-10.0303
-10.0302
-10.0241
-10.0121
-10.0039
-10.0056
-10.0164
-10.0222
-10.0269
-10.0334
-10.0367
-10.0296
-10.008
-9.99035
-9.99991
-10.0177
-10.0229
-10.0383
-10.0462
-10.0387
-10.0047
-9.96936
-9.98113
-10.0133
-10.0168
-10.0394
-10.0496
-10.0378
-9.99283
-9.94534
-9.95577
-9.99962
-10.0104
-10.0303
-10.0368
-10.0289
-9.9991
-9.98074
-9.99679
-10.0206
-10.0248
-10.0276
-10.0287
-10.0234
-10.0283
-10.5455
-10.5456
-10.5459
-10.546
-10.546
-10.5457
-10.5454
-10.5452
-10.5453
-10.5456
-10.5459
-10.5461
-10.546
-10.5457
-10.5454
-10.5453
-10.5454
-10.5456
-10.5458
-10.546
-10.5459
-10.5457
-10.5455
-10.5454
-10.5454
-10.5456
-10.5457
-10.5458
-10.5458
-10.5457
-10.5456
-10.5455
-10.5455
-10.5456
-10.5456
-10.5457
-10.5457
-10.5457
-10.5456
-10.5456
-10.5455
-10.5455
-10.5455
-10.5456
-10.5457
-10.5457
-10.5457
-10.5457
-10.5456
-10.5455
-10.5455
-10.5456
-10.5457
-10.5458
-10.5458
-10.5457
-10.5456
-10.5454
-10.5454
-10.5455
-10.5457
-10.5458
-10.5459
-10.5458
-10.5456
-10.5455
-10.5455
-10.5456
-10.5457
-10.5458
-10.5458
-10.5457
-10.5456
-10.5456
-10.5456
-10.5457
-10.5457
-10.5457
-10.5457
-10.5457
-11.0361
-11.0361
-11.0362
-11.0363
-11.0363
-11.0362
-11.0361
-11.036
-11.036
-11.0361
-11.0362
-11.0363
-11.0363
-11.0362
-11.0361
-11.036
-11.036
-11.0361
-11.0362
-11.0362
-11.0362
-11.0362
-11.0361
-11.0361
-11.0361
-11.0361
-11.0362
-11.0362
-11.0362
-11.0362
-11.0361
-11.0361
-11.0361
-11.0361
-11.0361
-11.0361
-11.0361
-11.0361
-11.0361
-11.0361
-11.0361
-11.0361
-11.0361
-11.0361
-11.0361
-11.0362
-11.0362
-11.0361
-11.0361
-11.0361
-11.0361
-11.0361
-11.0361
-11.0362
-11.0362
-11.0362
-11.0361
-11.0361
-11.0361
-11.0361
-11.0362
-11.0362
-11.0362
-11.0362
-11.0361
-11.0361
-11.0361
-11.0361
-11.0362
-11.0362
-11.0362
-11.0362
-11.0361
-11.0361
-11.0361
-11.0362
-11.0362
-11.0362
-11.0362
-11.0362
-11.5266
-11.5266
-11.5266
-11.5267
-11.5267
-11.5267
-11.5267
-11.5267
-11.5266
-11.5266
-11.5266
-11.5266
-11.5267
-11.5267
-11.5267
-11.5266
-11.5266
-11.5266
-11.5266
-11.5266
-11.5267
-11.5267
-11.5267
-11.5266
-11.5266
-11.5266
-11.5266
-11.5266
-11.5266
-11.5266
-11.5266
-11.5266
-11.5266
-11.5266
-11.5266
-11.5266
-11.5266
-11.5266
-11.5266
-11.5266
-11.5266
-11.5266
-11.5266
-11.5266
-11.5266
-11.5266
-11.5266
-11.5266
-11.5267
-11.5266
-11.5266
-11.5266
-11.5266
-11.5266
-11.5266
-11.5267
-11.5267
-11.5267
-11.5266
-11.5266
-11.5266
-11.5266
-11.5267
-11.5267
-11.5267
-11.5267
-11.5266
-11.5266
-11.5266
-11.5266
-11.5267
-11.5267
-11.5267
-11.5267
-11.5267
-11.5267
-11.5267
-11.5267
-11.5267
-11.5267
-12.0172
-12.0171
-12.0171
-12.0171
-12.0171
-12.0172
-12.0172
-12.0172
-12.0172
-12.0171
-12.0171
-12.0171
-12.0171
-12.0172
-12.0172
-12.0172
-12.0172
-12.0171
-12.0171
-12.0171
-12.0171
-12.0171
-12.0172
-12.0172
-12.0171
-12.0171
-12.0171
-12.0171
-12.0171
-12.0171
-12.0171
-12.0171
-12.0171
-12.0171
-12.0171
-12.0171
-12.0171
-12.0171
-12.0171
-12.0171
-12.0171
-12.0171
-12.0171
-12.0171
-12.0171
-12.0171
-12.0171
-12.0171
-12.0171
-12.0171
-12.0171
-12.0171
-12.0171
-12.0171
-12.0171
-12.0171
-12.0172
-12.0172
-12.0172
-12.0171
-12.0171
-12.0171
-12.0171
-12.0172
-12.0172
-12.0172
-12.0172
-12.0172
-12.0171
-12.0171
-12.0172
-12.0172
-12.0172
-12.0172
-12.0172
-12.0172
-12.0172
-12.0172
-12.0172
-12.0172
-12.5077
-12.5077
-12.5077
-12.5076
-12.5076
-12.5076
-12.5076
-12.5077
-12.5077
-12.5077
-12.5077
-12.5076
-12.5076
-12.5076
-12.5076
-12.5077
-12.5077
-12.5077
-12.5076
-12.5076
-12.5076
-12.5076
-12.5076
-12.5076
-12.5076
-12.5076
-12.5076
-12.5076
-12.5076
-12.5076
-12.5076
-12.5076
-12.5076
-12.5076
-12.5076
-12.5076
-12.5076
-12.5076
-12.5076
-12.5076
-12.5076
-12.5076
-12.5076
-12.5076
-12.5076
-12.5076
-12.5076
-12.5076
-12.5076
-12.5076
-12.5076
-12.5076
-12.5076
-12.5076
-12.5076
-12.5076
-12.5076
-12.5076
-12.5076
-12.5077
-12.5077
-12.5076
-12.5076
-12.5076
-12.5076
-12.5077
-12.5077
-12.5077
-12.5077
-12.5077
-12.5077
-12.5077
-12.5077
-12.5077
-12.5077
-12.5077
-12.5077
-12.5077
-12.5077
-12.5077
-12.9982
-12.9982
-12.9982
-12.9982
-12.9982
-12.9981
-12.9981
-12.9981
-12.9982
-12.9982
-12.9982
-12.9982
-12.9981
-12.9981
-12.9981
-12.9981
-12.9981
-12.9981
-12.9981
-12.9981
-12.9981
-12.9981
-12.9981
-12.9981
-12.9981
-12.9981
-12.9981
-12.9981
-12.9981
-12.9981
-12.9981
-12.9981
-12.9981
-12.9981
-12.9981
-12.9981
-12.9981
-12.9981
-12.9981
-12.9981
-12.9981
-12.9981
-12.9981
-12.9981
-12.9981
-12.9981
-12.9981
-12.9981
-12.9981
-12.9981
-12.9981
-12.9981
-12.9981
-12.9981
-12.9981
-12.9981
-12.9981
-12.9981
-12.9981
-12.9981
-12.9981
-12.9982
-12.9982
-12.9981
-12.9981
-12.9982
-12.9982
-12.9982
-12.9982
-12.9982
-12.9982
-12.9982
-12.9982
-12.9982
-12.9982
-12.9982
-12.9982
-12.9982
-12.9982
-12.9982
-13.4886
-13.4887
-13.4887
-13.4887
-13.4887
-13.4887
-13.4887
-13.4886
-13.4886
-13.4886
-13.4886
-13.4887
-13.4887
-13.4886
-13.4886
-13.4886
-13.4886
-13.4886
-13.4886
-13.4886
-13.4886
-13.4886
-13.4886
-13.4886
-13.4886
-13.4886
-13.4886
-13.4886
-13.4886
-13.4886
-13.4886
-13.4886
-13.4886
-13.4886
-13.4886
-13.4886
-13.4886
-13.4886
-13.4886
-13.4886
-13.4886
-13.4886
-13.4886
-13.4886
-13.4886
-13.4886
-13.4886
-13.4886
-13.4886
-13.4886
-13.4886
-13.4886
-13.4886
-13.4886
-13.4886
-13.4886
-13.4886
-13.4886
-13.4886
-13.4886
-13.4886
-13.4886
-13.4887
-13.4887
-13.4887
-13.4887
-13.4887
-13.4887
-13.4887
-13.4887
-13.4887
-13.4887
-13.4887
-13.4887
-13.4887
-13.4887
-13.4887
-13.4887
-13.4887
-13.4887
-13.9792
-13.9792
-13.9792
-13.9792
-13.9792
-13.9792
-13.9792
-13.9792
-13.9792
-13.9791
-13.9791
-13.9791
-13.9791
-13.9791
-13.9791
-13.9791
-13.9791
-13.9791
-13.9791
-13.9791
-13.9791
-13.9791
-13.9791
-13.9791
-13.9791
-13.9791
-13.9791
-13.9791
-13.9791
-13.9791
-13.9791
-13.9791
-13.9791
-13.9791
-13.9791
-13.9791
-13.9791
-13.9791
-13.9791
-13.9791
-13.9791
-13.9791
-13.9791
-13.9791
-13.9791
-13.9791
-13.9791
-13.9791
-13.9791
-13.9791
-13.9791
-13.9791
-13.9791
-13.9791
-13.9791
-13.9791
-13.9791
-13.9791
-13.9791
-13.9791
-13.9791
-13.9791
-13.9791
-13.9792
-13.9792
-13.9792
-13.9792
-13.9792
-13.9792
-13.9792
-13.9792
-13.9792
-13.9792
-13.9792
-13.9792
-13.9792
-13.9792
-13.9792
-13.9792
-13.9792
-14.4697
-14.4697
-14.4697
-14.4697
-14.4697
-14.4697
-14.4697
-14.4697
-14.4697
-14.4697
-14.4696
-14.4696
-14.4696
-14.4696
-14.4696
-14.4696
-14.4696
-14.4696
-14.4696
-14.4696
-14.4696
-14.4696
-14.4696
-14.4696
-14.4696
-14.4696
-14.4696
-14.4696
-14.4696
-14.4696
-14.4696
-14.4696
-14.4696
-14.4696
-14.4696
-14.4696
-14.4696
-14.4696
-14.4696
-14.4696
-14.4696
-14.4696
-14.4696
-14.4696
-14.4696
-14.4696
-14.4696
-14.4696
-14.4696
-14.4696
-14.4696
-14.4696
-14.4696
-14.4696
-14.4696
-14.4696
-14.4696
-14.4696
-14.4696
-14.4696
-14.4696
-14.4696
-14.4696
-14.4696
-14.4697
-14.4697
-14.4697
-14.4697
-14.4697
-14.4697
-14.4697
-14.4697
-14.4697
-14.4697
-14.4697
-14.4697
-14.4697
-14.4697
-14.4697
-14.4697
-14.9602
-14.9602
-14.9602
-14.9602
-14.9602
-14.9602
-14.9602
-14.9602
-14.9602
-14.9602
-14.9601
-14.9601
-14.9601
-14.9601
-14.9601
-14.9601
-14.9601
-14.9601
-14.9601
-14.9601
-14.9601
-14.9601
-14.9601
-14.9601
-14.9601
-14.9601
-14.9601
-14.9601
-14.9601
-14.9601
-14.9601
-14.9601
-14.9601
-14.9601
-14.9601
-14.9601
-14.9601
-14.9601
-14.9601
-14.9601
-14.9601
-14.9601
-14.9601
-14.9601
-14.9601
-14.9601
-14.9601
-14.9601
-14.9601
-14.9601
-14.9601
-14.9601
-14.9601
-14.9601
-14.9601
-14.9601
-14.9601
-14.9601
-14.9601
-14.9601
-14.9601
-14.9601
-14.9601
-14.9601
-14.9602
-14.9602
-14.9602
-14.9602
-14.9602
-14.9602
-14.9602
-14.9602
-14.9602
-14.9602
-14.9602
-14.9602
-14.9602
-14.9602
-14.9602
-14.9602
-15.4507
-15.4507
-15.4507
-15.4507
-15.4507
-15.4507
-15.4507
-15.4507
-15.4507
-15.4507
-15.4507
-15.4506
-15.4506
-15.4506
-15.4506
-15.4506
-15.4506
-15.4506
-15.4506
-15.4506
-15.4506
-15.4506
-15.4506
-15.4506
-15.4506
-15.4506
-15.4506
-15.4506
-15.4506
-15.4506
-15.4506
-15.4506
-15.4506
-15.4506
-15.4506
-15.4506
-15.4506
-15.4506
-15.4506
-15.4506
-15.4506
-15.4506
-15.4506
-15.4506
-15.4506
-15.4506
-15.4506
-15.4506
-15.4506
-15.4506
-15.4506
-15.4506
-15.4506
-15.4506
-15.4506
-15.4506
-15.4506
-15.4506
-15.4506
-15.4506
-15.4506
-15.4506
-15.4506
-15.4506
-15.4507
-15.4507
-15.4507
-15.4507
-15.4507
-15.4507
-15.4507
-15.4507
-15.4507
-15.4507
-15.4507
-15.4507
-15.4507
-15.4507
-15.4507
-15.4507
-15.9412
-15.9412
-15.9412
-15.9412
-15.9412
-15.9412
-15.9412
-15.9412
-15.9412
-15.9412
-15.9412
-15.9411
-15.9411
-15.9411
-15.9411
-15.9411
-15.9411
-15.9411
-15.9411
-15.9411
-15.9411
-15.9411
-15.9411
-15.9411
-15.9411
-15.9411
-15.9411
-15.9411
-15.9411
-15.9411
-15.9411
-15.9411
-15.9411
-15.9411
-15.9411
-15.9411
-15.9411
-15.9411
-15.9411
-15.9411
-15.9411
-15.9411
-15.9411
-15.9411
-15.9411
-15.9411
-15.9411
-15.9411
-15.9411
-15.9411
-15.9411
-15.9411
-15.9411
-15.9411
-15.9411
-15.9411
-15.9411
-15.9411
-15.9411
-15.9411
-15.9411
-15.9411
-15.9411
-15.9411
-15.9412
-15.9412
-15.9412
-15.9412
-15.9412
-15.9412
-15.9412
-15.9412
-15.9412
-15.9412
-15.9412
-15.9412
-15.9412
-15.9412
-15.9412
-15.9412
-16.4317
-16.4317
-16.4317
-16.4317
-16.4317
-16.4317
-16.4317
-16.4317
-16.4317
-16.4317
-16.4317
-16.4316
-16.4316
-16.4316
-16.4316
-16.4316
-16.4316
-16.4316
-16.4316
-16.4316
-16.4316
-16.4316
-16.4316
-16.4316
-16.4316
-16.4316
-16.4316
-16.4316
-16.4316
-16.4316
-16.4316
-16.4316
-16.4316
-16.4316
-16.4316
-16.4316
-16.4316
-16.4316
-16.4316
-16.4316
-16.4316
-16.4316
-16.4316
-16.4316
-16.4316
-16.4316
-16.4316
-16.4316
-16.4316
-16.4316
-16.4316
-16.4316
-16.4316
-16.4316
-16.4316
-16.4316
-16.4316
-16.4316
-16.4316
-16.4316
-16.4316
-16.4316
-16.4316
-16.4316
-16.4317
-16.4317
-16.4317
-16.4317
-16.4317
-16.4317
-16.4317
-16.4317
-16.4317
-16.4317
-16.4317
-16.4317
-16.4317
-16.4317
-16.4317
-16.4317
-16.9222
-16.9222
-16.9222
-16.9222
-16.9222
-16.9222
-16.9222
-16.9222
-16.9222
-16.9222
-16.9222
-16.9221
-16.9221
-16.9221
-16.9221
-16.9221
-16.9221
-16.9221
-16.9221
-16.9221
-16.9221
-16.9221
-16.9221
-16.9221
-16.9221
-16.9221
-16.9221
-16.9221
-16.9221
-16.9221
-16.9221
-16.9221
-16.9221
-16.9221
-16.9221
-16.9221
-16.9221
-16.9221
-16.9221
-16.9221
-16.9221
-16.9221
-16.9221
-16.9221
-16.9221
-16.9221
-16.9221
-16.9221
-16.9221
-16.9221
-16.9221
-16.9221
-16.9221
-16.9221
-16.9221
-16.9221
-16.9221
-16.9221
-16.9221
-16.9221
-16.9221
-16.9221
-16.9221
-16.9221
-16.9222
-16.9222
-16.9222
-16.9222
-16.9222
-16.9222
-16.9222
-16.9222
-16.9222
-16.9222
-16.9222
-16.9222
-16.9222
-16.9222
-16.9222
-16.9222
-17.4127
-17.4127
-17.4127
-17.4127
-17.4127
-17.4127
-17.4127
-17.4127
-17.4127
-17.4127
-17.4127
-17.4127
-17.4126
-17.4126
-17.4126
-17.4126
-17.4126
-17.4126
-17.4126
-17.4126
-17.4126
-17.4126
-17.4126
-17.4126
-17.4126
-17.4126
-17.4126
-17.4126
-17.4126
-17.4126
-17.4126
-17.4126
-17.4126
-17.4126
-17.4126
-17.4126
-17.4126
-17.4126
-17.4126
-17.4126
-17.4126
-17.4126
-17.4126
-17.4126
-17.4126
-17.4126
-17.4126
-17.4126
-17.4126
-17.4126
-17.4126
-17.4126
-17.4126
-17.4126
-17.4126
-17.4126
-17.4126
-17.4126
-17.4126
-17.4126
-17.4126
-17.4126
-17.4126
-17.4126
-17.4127
-17.4127
-17.4127
-17.4127
-17.4127
-17.4127
-17.4127
-17.4127
-17.4127
-17.4127
-17.4127
-17.4127
-17.4127
-17.4127
-17.4127
-17.4127
-17.9032
-17.9032
-17.9032
-17.9032
-17.9032
-17.9032
-17.9032
-17.9032
-17.9032
-17.9032
-17.9032
-17.9032
-17.9031
-17.9031
-17.9031
-17.9031
-17.9031
-17.9031
-17.9031
-17.9031
-17.9031
-17.9031
-17.9031
-17.9031
-17.9031
-17.9031
-17.9031
-17.9031
-17.9031
-17.9031
-17.9031
-17.9031
-17.9031
-17.9031
-17.9031
-17.9031
-17.9031
-17.9031
-17.9031
-17.9031
-17.9031
-17.9031
-17.9031
-17.9031
-17.9031
-17.9031
-17.9031
-17.9031
-17.9031
-17.9031
-17.9031
-17.9031
-17.9031
-17.9031
-17.9031
-17.9031
-17.9031
-17.9031
-17.9031
-17.9031
-17.9031
-17.9031
-17.9031
-17.9031
-17.9032
-17.9032
-17.9032
-17.9032
-17.9032
-17.9032
-17.9032
-17.9032
-17.9032
-17.9032
-17.9032
-17.9032
-17.9032
-17.9032
-17.9032
-17.9032
-18.3937
-18.3937
-18.3937
-18.3937
-18.3937
-18.3937
-18.3937
-18.3937
-18.3937
-18.3937
-18.3937
-18.3937
-18.3936
-18.3936
-18.3936
-18.3936
-18.3936
-18.3936
-18.3936
-18.3936
-18.3936
-18.3936
-18.3936
-18.3936
-18.3936
-18.3936
-18.3936
-18.3936
-18.3936
-18.3936
-18.3936
-18.3936
-18.3936
-18.3936
-18.3936
-18.3936
-18.3936
-18.3936
-18.3936
-18.3936
-18.3936
-18.3936
-18.3936
-18.3936
-18.3936
-18.3936
-18.3936
-18.3936
-18.3936
-18.3936
-18.3936
-18.3936
-18.3936
-18.3936
-18.3936
-18.3936
-18.3936
-18.3936
-18.3936
-18.3936
-18.3936
-18.3936
-18.3936
-18.3936
-18.3937
-18.3937
-18.3937
-18.3937
-18.3937
-18.3937
-18.3937
-18.3937
-18.3937
-18.3937
-18.3937
-18.3937
-18.3937
-18.3937
-18.3937
-18.3937
-18.8842
-18.8842
-18.8842
-18.8842
-18.8842
-18.8842
-18.8842
-18.8842
-18.8842
-18.8842
-18.8842
-18.8842
-18.8842
-18.8841
-18.8841
-18.8841
-18.8841
-18.8841
-18.8841
-18.8841
-18.8841
-18.8841
-18.8841
-18.8841
-18.8841
-18.8841
-18.8841
-18.8841
-18.8841
-18.8841
-18.8841
-18.8841
-18.8841
-18.8841
-18.8841
-18.8841
-18.8841
-18.8841
-18.8841
-18.8841
-18.8841
-18.8841
-18.8841
-18.8841
-18.8841
-18.8841
-18.8841
-18.8841
-18.8841
-18.8841
-18.8841
-18.8841
-18.8841
-18.8841
-18.8841
-18.8841
-18.8841
-18.8841
-18.8841
-18.8841
-18.8841
-18.8841
-18.8841
-18.8841
-18.8842
-18.8842
-18.8842
-18.8842
-18.8842
-18.8842
-18.8842
-18.8842
-18.8842
-18.8842
-18.8842
-18.8842
-18.8842
-18.8842
-18.8842
-18.8842
-19.3747
-19.3747
-19.3747
-19.3747
-19.3747
-19.3747
-19.3747
-19.3747
-19.3747
-19.3747
-19.3747
-19.3747
-19.3747
-19.3746
-19.3746
-19.3746
-19.3746
-19.3746
-19.3746
-19.3746
-19.3746
-19.3746
-19.3746
-19.3746
-19.3746
-19.3746
-19.3746
-19.3746
-19.3746
-19.3746
-19.3746
-19.3746
-19.3746
-19.3746
-19.3746
-19.3746
-19.3746
-19.3746
-19.3745
-19.3745
-19.3745
-19.3746
-19.3746
-19.3746
-19.3746
-19.3746
-19.3746
-19.3746
-19.3746
-19.3746
-19.3746
-19.3746
-19.3746
-19.3746
-19.3746
-19.3746
-19.3746
-19.3746
-19.3746
-19.3746
-19.3746
-19.3746
-19.3746
-19.3746
-19.3747
-19.3747
-19.3747
-19.3747
-19.3747
-19.3747
-19.3747
-19.3747
-19.3747
-19.3747
-19.3747
-19.3747
-19.3747
-19.3747
-19.3747
-19.3747
-19.8652
-19.8652
-19.8652
-19.8652
-19.8652
-19.8652
-19.8652
-19.8652
-19.8652
-19.8652
-19.8652
-19.8652
-19.8652
-19.8652
-19.8651
-19.8651
-19.8651
-19.8651
-19.8651
-19.8651
-19.8651
-19.8651
-19.8651
-19.8651
-19.8651
-19.8651
-19.8651
-19.8651
-19.8651
-19.8651
-19.8651
-19.8651
-19.8651
-19.8651
-19.8651
-19.8651
-19.865
-19.865
-19.865
-19.865
-19.865
-19.865
-19.865
-19.865
-19.8651
-19.8651
-19.8651
-19.8651
-19.8651
-19.8651
-19.8651
-19.8651
-19.8651
-19.8651
-19.8651
-19.8651
-19.8651
-19.8651
-19.8651
-19.8651
-19.8651
-19.8651
-19.8651
-19.8651
-19.8652
-19.8652
-19.8652
-19.8652
-19.8652
-19.8652
-19.8652
-19.8652
-19.8652
-19.8652
-19.8652
-19.8652
-19.8652
-19.8652
-19.8652
-19.8652
-20.3557
-20.3557
-20.3557
-20.3557
-20.3557
-20.3557
-20.3557
-20.3557
-20.3557
-20.3557
-20.3557
-20.3557
-20.3557
-20.3557
-20.3556
-20.3556
-20.3556
-20.3556
-20.3556
-20.3556
-20.3556
-20.3556
-20.3556
-20.3556
-20.3556
-20.3556
-20.3556
-20.3556
-20.3556
-20.3556
-20.3556
-20.3556
-20.3556
-20.3556
-20.3556
-20.3555
-20.3555
-20.3555
-20.3555
-20.3555
-20.3555
-20.3555
-20.3555
-20.3555
-20.3555
-20.3556
-20.3556
-20.3556
-20.3556
-20.3556
-20.3556
-20.3556
-20.3556
-20.3556
-20.3556
-20.3556
-20.3556
-20.3556
-20.3556
-20.3556
-20.3556
-20.3556
-20.3556
-20.3557
-20.3557
-20.3557
-20.3557
-20.3557
-20.3557
-20.3557
-20.3557
-20.3557
-20.3557
-20.3557
-20.3557
-20.3557
-20.3557
-20.3557
-20.3557
-20.3557
-20.8462
-20.8462
-20.8462
-20.8462
-20.8462
-20.8462
-20.8462
-20.8462
-20.8462
-20.8462
-20.8462
-20.8462
-20.8462
-20.8462
-20.8462
-20.8461
-20.8461
-20.8461
-20.8461
-20.8461
-20.8461
-20.8461
-20.8461
-20.8461
-20.8461
-20.8461
-20.8461
-20.8461
-20.8461
-20.8461
-20.8461
-20.8461
-20.8461
-20.8461
-20.846
-20.846
-20.846
-20.846
-20.846
-20.846
-20.846
-20.846
-20.846
-20.846
-20.846
-20.846
-20.8461
-20.8461
-20.8461
-20.8461
-20.8461
-20.8461
-20.8461
-20.8461
-20.8461
-20.8461
-20.8461
-20.8461
-20.8461
-20.8461
-20.8461
-20.8461
-20.8461
-20.8462
-20.8462
-20.8462
-20.8462
-20.8462
-20.8462
-20.8462
-20.8462
-20.8462
-20.8462
-20.8462
-20.8462
-20.8462
-20.8462
-20.8462
-20.8462
-20.8462
-21.3367
-21.3367
-21.3367
-21.3367
-21.3367