/*--------------------------------*- C++ -*----------------------------------*\
| =========                 |                                                 |
| \\      /  F ield         | OpenFOAM: The Open Source CFD Toolbox           |
|  \\    /   O peration     | Version:  2412                                  |
|   \\  /    A nd           | Website:  www.openfoam.com                      |
|    \\/     M anipulation  |                                                 |
\*---------------------------------------------------------------------------*/
FoamFile
{
    version     2.0;
    format      ascii;
    arch        "LSB;label=32;scalar=64";
    class       surfaceScalarField;
    location    "3.85";
    object      phi;
}
// * * * * * * * * * * * * * * * * * * * * * * * * * * * * * * * * * * * * * //

dimensions      [0 3 -1 0 0 0 0];

oriented        oriented;

internalField   nonuniform List<scalar> 
12640
(
1.70579e-08
-1.70158e-08
4.66e-08
-2.86852e-08
7.16898e-08
-2.42047e-08
8.28375e-08
-1.03541e-08
7.61363e-08
7.45287e-09
5.08821e-08
2.60076e-08
8.18396e-09
4.34597e-08
-4.9875e-08
5.88228e-08
-1.20806e-07
7.16909e-08
-2.02059e-07
8.20052e-08
-2.91241e-07
8.99227e-08
-3.86222e-07
9.57047e-08
-4.85167e-07
9.96462e-08
-5.86513e-07
1.02018e-07
-6.88921e-07
1.03039e-07
-7.91187e-07
1.02845e-07
-8.92163e-07
1.01493e-07
-9.90657e-07
9.89386e-08
-1.08537e-06
9.50777e-08
-1.17483e-06
8.97239e-08
-1.25734e-06
8.26855e-08
-1.33101e-06
7.37324e-08
-1.39377e-06
6.27193e-08
-1.44344e-06
4.95117e-08
-1.47789e-06
3.41672e-08
-1.49506e-06
1.67806e-08
-1.49329e-06
-2.26625e-09
-1.4713e-06
-2.25898e-08
-1.42851e-06
-4.3473e-08
-1.36494e-06
-6.43292e-08
-1.28151e-06
-8.42614e-08
-1.17965e-06
-1.02731e-07
-1.06162e-06
-1.18952e-07
-9.29818e-07
-1.32753e-07
-7.87071e-07
-1.43724e-07
-6.35829e-07
-1.52231e-07
-4.78588e-07
-1.58255e-07
-3.17082e-07
-1.6253e-07
-1.53012e-07
-1.65123e-07
1.26434e-08
-1.66723e-07
1.78625e-07
-1.67087e-07
3.44029e-07
-1.66526e-07
5.0723e-07
-1.64365e-07
6.66624e-07
-1.60573e-07
8.19713e-07
-1.543e-07
9.64032e-07
-1.45533e-07
1.0965e-06
-1.3369e-07
1.21443e-06
-1.19135e-07
1.31507e-06
-1.01819e-07
1.3965e-06
-8.25498e-08
1.45717e-06
-6.17402e-08
1.49659e-06
-4.04104e-08
1.51481e-06
-1.91183e-08
1.51278e-06
1.23214e-09
1.49189e-06
2.02081e-08
1.4541e-06
3.72384e-08
1.4015e-06
5.21847e-08
1.33637e-06
6.48473e-08
1.26089e-06
7.53436e-08
1.17715e-06
8.37415e-08
1.08699e-06
9.03002e-08
9.92041e-07
9.52114e-08
8.93686e-07
9.87317e-08
7.9315e-07
1.01012e-07
6.9152e-07
1.02187e-07
5.8987e-07
1.02275e-07
4.89313e-07
1.01232e-07
3.91121e-07
9.89079e-08
2.96781e-07
9.50833e-08
2.08069e-07
8.94721e-08
1.27064e-07
8.17745e-08
5.61215e-08
7.17166e-08
-2.23596e-09
5.91327e-08
-4.55183e-08
4.40598e-08
-7.16221e-08
2.68856e-08
-7.9386e-08
8.55247e-09
-6.94537e-08
-9.13548e-09
-4.56233e-08
-2.30231e-08
-1.70957e-08
-2.77117e-08
-1.63395e-08
2.9458e-08
-4.56582e-08
7.22895e-08
-7.00127e-08
9.77636e-08
-4.81299e-08
8.84277e-08
5.01429e-10
3.59308e-08
6.14733e-08
-6.17558e-08
1.25244e-07
-2.02586e-07
1.85861e-07
-3.82108e-07
2.39928e-07
-5.94662e-07
2.85831e-07
-8.34224e-07
3.23147e-07
-1.09493e-06
3.52198e-07
-1.37139e-06
3.73703e-07
-1.65876e-06
3.8853e-07
-1.95278e-06
3.97504e-07
-2.24963e-06
4.01285e-07
-2.54573e-06
4.00274e-07
-2.83759e-06
3.94591e-07
-3.12157e-06
3.84056e-07
-3.39372e-06
3.68233e-07
-3.64963e-06
3.46488e-07
-3.88433e-06
3.18085e-07
-4.09238e-06
2.823e-07
-4.26788e-06
2.38538e-07
-4.40477e-06
1.86499e-07
-4.49699e-06
1.26253e-07
-4.53901e-06
5.84171e-08
-4.52603e-06
-1.5886e-08
-4.45465e-06
-9.48792e-08
-4.32292e-06
-1.76391e-07
-4.13095e-06
-2.57745e-07
-3.88064e-06
-3.36298e-07
-3.57603e-06
-4.09306e-07
-3.2225e-06
-4.74694e-07
-2.82696e-06
-5.30723e-07
-2.39648e-06
-5.76831e-07
-1.93862e-06
-6.1287e-07
-1.45993e-06
-6.39869e-07
-9.66715e-07
-6.58757e-07
-4.63798e-07
-6.71114e-07
4.40112e-08
-6.77613e-07
5.52883e-07
-6.79024e-07
1.0581e-06
-6.74734e-07
1.55503e-06
-6.64202e-07
2.03743e-06
-6.45733e-07
2.49879e-06
-6.18267e-07
2.93114e-06
-5.80298e-07
3.32686e-06
-5.31634e-07
3.67796e-06
-4.72226e-07
3.97791e-06
-4.03545e-07
4.22107e-06
-3.27255e-07
4.40416e-06
-2.46159e-07
4.52551e-06
-1.62858e-07
4.5859e-06
-8.04e-08
4.58766e-06
-1.19103e-09
4.53498e-06
7.24414e-08
4.43293e-06
1.39047e-07
4.28757e-06
1.9753e-07
4.10503e-06
2.47585e-07
3.89156e-06
2.89213e-07
3.65298e-06
3.22928e-07
3.3947e-06
3.4938e-07
3.12146e-06
3.69427e-07
2.83749e-06
3.83829e-07
2.5465e-06
3.93269e-07
2.2519e-06
3.98162e-07
1.95693e-06
3.9869e-07
1.66497e-06
3.94711e-07
1.37963e-06
3.8581e-07
1.10499e-06
3.713e-07
8.45736e-07
3.50328e-07
6.07119e-07
3.21991e-07
3.94901e-07
2.85529e-07
2.15046e-07
2.40573e-07
7.31952e-08
1.87481e-07
-2.61449e-08
1.27777e-07
-8.08074e-08
6.47418e-08
-9.26226e-08
4.18256e-09
-6.96179e-08
-4.45247e-08
-2.86714e-08
-6.71477e-08
-4.43e-08
2.58068e-08
-7.05737e-08
5.18495e-08
-9.46452e-08
4.4191e-08
-3.90181e-08
-1.6883e-08
6.29835e-08
-1.40977e-07
1.86951e-07
-3.3028e-07
3.15935e-07
-5.81873e-07
4.3885e-07
-8.8963e-07
5.49081e-07
-1.2457e-06
6.43291e-07
-1.64159e-06
7.20421e-07
-2.06892e-06
7.80877e-07
-2.51978e-06
8.2589e-07
-2.98696e-06
8.57003e-07
-3.46394e-06
8.75714e-07
-3.94468e-06
8.8319e-07
-4.42346e-06
8.80122e-07
-4.89451e-06
8.66617e-07
-5.35183e-06
8.42223e-07
-5.78887e-06
8.05962e-07
-6.19835e-06
7.565e-07
-6.5722e-06
6.92289e-07
-6.90159e-06
6.11851e-07
-7.17709e-06
5.13997e-07
-7.38899e-06
3.98144e-07
-7.52775e-06
2.64545e-07
-7.58451e-06
1.14513e-07
-7.55184e-06
-4.94393e-08
-7.42415e-06
-2.23631e-07
-7.19853e-06
-4.03266e-07
-6.87482e-06
-5.82861e-07
-6.4562e-06
-7.5649e-07
-5.9486e-06
-9.18609e-07
-5.36084e-06
-1.06428e-06
-4.70332e-06
-1.19017e-06
-3.98789e-06
-1.29429e-06
-3.22608e-06
-1.37678e-06
-2.42931e-06
-1.43883e-06
-1.60728e-06
-1.48303e-06
-7.69082e-07
-1.51162e-06
7.7853e-08
-1.52688e-06
9.25787e-07
-1.52934e-06
1.76748e-06
-1.51882e-06
2.59398e-06
-1.49311e-06
3.39581e-06
-1.44994e-06
4.16129e-06
-1.38611e-06
4.8785e-06
-1.29979e-06
5.53435e-06
-1.18971e-06
6.11703e-06
-1.05701e-06
6.61552e-06
-9.0402e-07
7.02176e-06
-7.35317e-07
7.33004e-06
-5.56088e-07
7.5384e-06
-3.72671e-07
7.64763e-06
-1.90894e-07
7.66189e-06
-1.64868e-08
7.58739e-06
1.46123e-07
7.43247e-06
2.9337e-07
7.20638e-06
4.23242e-07
6.91911e-06
5.34712e-07
6.58042e-06
6.2797e-07
6.19979e-06
7.03835e-07
5.78587e-06
7.63785e-07
5.34652e-06
8.09455e-07
4.88866e-06
8.42539e-07
4.41852e-06
8.64413e-07
3.94173e-06
8.76074e-07
3.4637e-06
8.77945e-07
2.98982e-06
8.69889e-07
2.52582e-06
8.51173e-07
2.07794e-06
8.20577e-07
1.65314e-06
7.76542e-07
1.25912e-06
7.1745e-07
9.04104e-07
6.41988e-07
5.96481e-07
5.49645e-07
3.44071e-07
4.41344e-07
1.53056e-07
3.20247e-07
2.65119e-08
1.92744e-07
-3.74908e-08
6.96469e-08
-4.8139e-08
-3.24065e-08
-2.45212e-08
-8.93618e-08
-6.8152e-08
1.25517e-08
-8.23191e-08
3.37338e-09
-8.42423e-08
-5.92511e-08
2.49104e-08
-1.93862e-07
1.98862e-07
-4.08962e-07
4.03287e-07
-7.05497e-07
6.13703e-07
-1.07907e-06
8.13663e-07
-1.52185e-06
9.931e-07
-2.02412e-06
1.14679e-06
-2.57543e-06
1.27296e-06
-3.16543e-06
1.3721e-06
-3.78432e-06
1.44597e-06
-4.42301e-06
1.49686e-06
-5.07313e-06
1.52695e-06
-5.72682e-06
1.53793e-06
-6.3764e-06
1.53069e-06
-7.01413e-06
1.50523e-06
-7.63174e-06
1.46061e-06
-8.22025e-06
1.39512e-06
-8.76969e-06
1.30642e-06
-9.26902e-06
1.19195e-06
-9.70622e-06
1.04919e-06
-1.00685e-05
8.7626e-07
-1.03428e-05
6.72204e-07
-1.05162e-05
4.37577e-07
-1.0577e-05
1.74681e-07
-1.05151e-05
-1.12136e-07
-1.03231e-05
-4.16509e-07
-9.99716e-06
-7.30266e-07
-9.53736e-06
-1.04387e-06
-8.9479e-06
-1.34727e-06
-8.23729e-06
-1.63065e-06
-7.41739e-06
-1.88571e-06
-6.50298e-06
-2.1062e-06
-5.50992e-06
-2.28904e-06
-4.45464e-06
-2.43383e-06
-3.35214e-06
-2.54316e-06
-2.21632e-06
-2.62074e-06
-1.05864e-06
-2.67124e-06
1.10185e-07
-2.69771e-06
1.2808e-06
-2.702e-06
2.4427e-06
-2.6828e-06
3.58486e-06
-2.63737e-06
4.69352e-06
-2.56072e-06
5.75374e-06
-2.44845e-06
6.74824e-06
-2.29639e-06
7.65997e-06
-2.10348e-06
8.4718e-06
-1.87082e-06
9.16937e-06
-1.60346e-06
9.74082e-06
-1.30852e-06
1.01789e-05
-9.95801e-07
1.04804e-05
-6.75502e-07
1.06466e-05
-3.58322e-07
1.06825e-05
-5.35086e-08
1.0597e-05
2.30832e-07
1.04007e-05
4.88999e-07
1.01064e-05
7.17112e-07
9.72728e-06
9.13636e-07
9.27666e-06
1.07855e-06
8.76727e-06
1.21338e-06
8.21101e-06
1.32039e-06
7.61854e-06
1.40244e-06
6.99947e-06
1.46228e-06
6.36234e-06
1.50238e-06
5.71492e-06
1.52445e-06
5.06451e-06
1.5294e-06
4.41834e-06
1.51719e-06
3.78386e-06
1.48684e-06
3.16909e-06
1.43659e-06
2.58277e-06
1.36412e-06
2.03445e-06
1.26706e-06
1.53425e-06
1.14348e-06
1.09248e-06
9.92727e-07
7.18786e-07
8.16356e-07
4.21044e-07
6.19314e-07
2.03797e-07
4.11321e-07
6.63712e-08
2.08413e-07
7.16318e-10
3.46036e-08
-1.10619e-08
-7.63177e-08
-7.86034e-08
-5.60252e-09
-7.59417e-08
-6.13275e-08
-2.74483e-08
-1.93523e-07
1.58276e-07
-4.17144e-07
4.23628e-07
-7.37783e-07
7.2503e-07
-1.15384e-06
1.03085e-06
-1.65863e-06
1.31954e-06
-2.24225e-06
1.5778e-06
-2.89305e-06
1.79868e-06
-3.59886e-06
1.97985e-06
-4.3477e-06
2.12201e-06
-5.12826e-06
2.22759e-06
-5.93001e-06
2.29964e-06
-6.74314e-06
2.34107e-06
-7.55827e-06
2.35401e-06
-8.36615e-06
2.33947e-06
-9.15723e-06
2.29713e-06
-9.92129e-06
2.22539e-06
-1.06471e-05
2.1215e-06
-1.13221e-05
1.98192e-06
-1.19325e-05
1.80271e-06
-1.24634e-05
1.58021e-06
-1.28987e-05
1.31156e-06
-1.32221e-05
9.95506e-07
-1.34178e-05
6.32919e-07
-1.34711e-05
2.27456e-07
-1.33696e-05
-2.14263e-07
-1.31045e-05
-6.8245e-07
-1.2671e-05
-1.1646e-06
-1.20699e-05
-1.64612e-06
-1.13068e-05
-2.11146e-06
-1.03932e-05
-2.5456e-06
-9.34476e-06
-2.9355e-06
-8.18064e-06
-3.27178e-06
-6.92184e-06
-3.54938e-06
-5.58893e-06
-3.76834e-06
-4.20133e-06
-3.93243e-06
-2.77528e-06
-4.0485e-06
-1.3249e-06
-4.12337e-06
1.38594e-07
-4.16299e-06
1.60416e-06
-4.16939e-06
3.06106e-06
-4.14154e-06
4.49574e-06
-4.07393e-06
5.89274e-06
-3.9596e-06
7.23262e-06
-3.79021e-06
8.49449e-06
-3.56011e-06
9.65544e-06
-3.26625e-06
1.06942e-05
-2.91128e-06
1.1591e-05
-2.50193e-06
1.23311e-05
-2.05018e-06
1.29042e-05
-1.57026e-06
1.33061e-05
-1.07867e-06
1.35378e-05
-5.91122e-07
1.36059e-05
-1.22423e-07
1.35204e-05
3.15606e-07
1.32951e-05
7.13756e-07
1.29454e-05
1.06646e-06
1.24879e-05
1.37093e-06
1.19391e-05
1.62732e-06
1.1315e-05
1.83761e-06
1.06304e-05
2.00533e-06
9.89866e-06
2.13459e-06
9.13185e-06
2.22966e-06
8.34069e-06
2.29423e-06
7.53482e-06
2.33111e-06
6.72326e-06
2.34186e-06
5.91472e-06
2.32671e-06
5.11808e-06
2.28452e-06
4.3427e-06
2.21303e-06
3.59874e-06
2.10919e-06
2.89716e-06
1.96976e-06
2.24966e-06
1.79212e-06
1.66823e-06
1.5753e-06
1.1644e-06
1.32135e-06
7.48066e-07
1.03681e-06
4.26038e-07
7.34513e-07
2.00165e-07
4.35459e-07
6.53066e-08
1.7064e-07
7.13769e-09
-1.70911e-08
-7.09953e-08
-2.61895e-08
-4.90299e-08
-1.35313e-07
8.25323e-08
-3.46924e-07
3.70848e-07
-6.70723e-07
7.48365e-07
-1.1079e-06
1.16309e-06
-1.65309e-06
1.5769e-06
-2.29645e-06
1.96373e-06
-3.02543e-06
2.3076e-06
-3.82629e-06
2.60034e-06
-4.68512e-06
2.83947e-06
-5.58852e-06
3.0262e-06
-6.52398e-06
3.16382e-06
-7.47987e-06
3.25629e-06
-8.44528e-06
3.30721e-06
-9.40972e-06
3.31914e-06
-1.03626e-05
3.293e-06
-1.12929e-05
3.22804e-06
-1.21887e-05
3.12168e-06
-1.30367e-05
2.96992e-06
-1.38221e-05
2.76762e-06
-1.45285e-05
2.50932e-06
-1.51381e-05
2.18983e-06
-1.56319e-05
1.80533e-06
-1.59906e-05
1.35405e-06
-1.61954e-05
8.37444e-07
-1.6229e-05
2.60638e-07
-1.6077e-05
-3.66791e-07
-1.57291e-05
-1.03102e-06
-1.51803e-05
-1.71413e-06
-1.4432e-05
-2.39529e-06
-1.34922e-05
-3.05216e-06
-1.23757e-05
-3.66306e-06
-1.1103e-05
-4.2093e-06
-9.69859e-06
-4.67727e-06
-8.18876e-06
-5.06035e-06
-6.5994e-06
-5.35889e-06
-4.95308e-06
-5.57995e-06
-3.2688e-06
-5.734e-06
-1.56054e-06
-5.83286e-06
1.60359e-07
-5.88513e-06
1.8849e-06
-5.89518e-06
3.60242e-06
-5.86033e-06
5.30034e-06
-5.77312e-06
6.96076e-06
-5.62132e-06
8.56217e-06
-5.39293e-06
1.00781e-05
-5.0774e-06
1.14813e-05
-4.67066e-06
1.27435e-05
-4.17479e-06
1.38407e-05
-3.60038e-06
1.47529e-05
-2.96351e-06
1.54673e-05
-2.28571e-06
1.59775e-05
-1.58975e-06
1.62845e-05
-8.98955e-07
1.63952e-05
-2.33755e-07
1.63219e-05
3.8842e-07
1.60802e-05
9.55003e-07
1.56888e-05
1.4576e-06
1.51671e-05
1.89255e-06
1.45347e-05
2.25964e-06
1.38107e-05
2.56179e-06
1.30125e-05
2.80369e-06
1.21562e-05
2.99121e-06
1.1256e-05
3.13025e-06
1.03245e-05
3.22617e-06
9.37315e-06
3.28304e-06
8.41227e-06
3.30339e-06
7.45183e-06
3.28786e-06
6.50176e-06
3.23535e-06
5.57246e-06
3.14313e-06
4.67509e-06
3.00738e-06
3.82179e-06
2.8239e-06
3.02561e-06
2.58914e-06
2.30021e-06
2.30156e-06
1.65917e-06
1.96325e-06
1.11496e-06
1.58187e-06
6.77509e-07
1.17283e-06
3.52377e-07
7.61465e-07
1.38802e-07
3.85087e-07
2.76483e-08
9.47808e-08
-4.30997e-08
-4.80316e-08
-3.88643e-10
-2.14983e-07
2.50045e-07
-5.13105e-07
6.6962e-07
-9.45652e-07
1.18154e-06
-1.5081e-06
1.7261e-06
-2.19016e-06
2.25945e-06
-2.97789e-06
2.75191e-06
-3.85554e-06
3.18566e-06
-4.80693e-06
3.55211e-06
-5.81638e-06
3.84928e-06
-6.86922e-06
4.07939e-06
-7.95198e-06
4.24691e-06
-9.05223e-06
4.35686e-06
-1.01583e-05
4.41362e-06
-1.1259e-05
4.42003e-06
-1.23426e-05
4.37689e-06
-1.3397e-05
4.28263e-06
-1.44087e-05
4.13357e-06
-1.53627e-05
3.92401e-06
-1.62422e-05
3.64709e-06
-1.70283e-05
3.29536e-06
-1.77006e-05
2.86205e-06
-1.82374e-05
2.34197e-06
-1.86167e-05
1.73303e-06
-1.88167e-05
1.03711e-06
-1.88177e-05
2.61365e-07
-1.86035e-05
-5.81438e-07
-1.81626e-05
-1.47238e-06
-1.74899e-05
-2.38729e-06
-1.65881e-05
-3.29759e-06
-1.5468e-05
-4.17273e-06
-1.41488e-05
-4.98281e-06
-1.26566e-05
-5.70201e-06
-1.10224e-05
-6.31193e-06
-9.27931e-06
-6.80395e-06
-7.45823e-06
-7.18042e-06
-5.58588e-06
-7.45269e-06
-3.6818e-06
-7.63843e-06
-1.75941e-06
-7.75556e-06
1.73873e-07
-7.81867e-06
2.11208e-06
-7.83362e-06
4.04913e-06
-7.79761e-06
5.97361e-06
-7.69784e-06
7.86868e-06
-7.51667e-06
9.70923e-06
-7.23381e-06
1.14652e-05
-6.83371e-06
1.31016e-05
-6.30759e-06
1.45848e-05
-5.65846e-06
1.58831e-05
-4.89916e-06
1.6972e-05
-4.05292e-06
1.78341e-05
-3.14826e-06
1.84614e-05
-2.21748e-06
1.88536e-05
-1.29158e-06
1.90187e-05
-3.99144e-07
1.897e-05
4.3689e-07
1.87258e-05
1.19896e-06
1.83071e-05
1.87622e-06
1.77363e-05
2.46325e-06
1.70359e-05
2.95999e-06
1.62278e-05
3.36996e-06
1.5332e-05
3.69957e-06
1.43669e-05
3.95645e-06
1.33486e-05
4.14863e-06
1.22917e-05
4.28331e-06
1.12087e-05
4.36625e-06
1.01113e-05
4.4011e-06
9.01021e-06
4.38923e-06
7.91625e-06
4.32966e-06
6.84045e-06
4.21931e-06
5.79471e-06
4.05351e-06
4.79207e-06
3.82695e-06
3.84679e-06
3.53483e-06
2.97425e-06
3.17452e-06
2.19039e-06
2.74753e-06
1.51083e-06
2.26185e-06
9.49486e-07
1.7346e-06
5.16797e-07
1.19459e-06
2.17656e-07
6.84654e-07
4.92819e-08
2.63402e-07
6.15749e-09
-7.07587e-08
7.08103e-08
-2.99124e-07
4.78616e-07
-6.89843e-07
1.06062e-06
-1.23868e-06
1.73064e-06
-1.93412e-06
2.4217e-06
-2.75972e-06
3.08512e-06
-3.69652e-06
3.68872e-06
-4.72497e-06
4.21405e-06
-5.82617e-06
4.6532e-06
-6.98264e-06
5.00558e-06
-8.17858e-06
5.27513e-06
-9.39979e-06
5.4679e-06
-1.06334e-05
5.59023e-06
-1.18673e-05
5.6473e-06
-1.30897e-05
5.64221e-06
-1.42884e-05
5.57533e-06
-1.54503e-05
5.44423e-06
-1.65607e-05
5.24363e-06
-1.76031e-05
4.96606e-06
-1.85587e-05
4.60237e-06
-1.94068e-05
4.14308e-06
-2.01244e-05
3.57931e-06
-2.06875e-05
2.90467e-06
-2.10711e-05
2.11631e-06
-2.12514e-05
1.21699e-06
-2.12061e-05
2.1578e-07
-2.09174e-05
-8.70439e-07
-2.03727e-05
-2.01729e-06
-1.95674e-05
-3.19282e-06
-1.85055e-05
-4.3596e-06
-1.72014e-05
-5.47685e-06
-1.56794e-05
-6.50473e-06
-1.39727e-05
-7.40856e-06
-1.21204e-05
-8.16395e-06
-1.01634e-05
-8.76065e-06
-8.13934e-06
-9.20393e-06
-6.07825e-06
-9.51313e-06
-4.00027e-06
-9.71563e-06
-1.91456e-06
-9.84036e-06
1.76755e-07
-9.90897e-06
2.27609e-06
-9.93185e-06
4.38321e-06
-9.90359e-06
6.4927e-06
-9.8062e-06
8.58822e-06
-9.61112e-06
1.06439e-05
-9.28849e-06
1.26231e-05
-8.81207e-06
1.44847e-05
-8.16848e-06
1.61853e-05
-7.35845e-06
1.76864e-05
-6.39982e-06
1.89561e-05
-5.32225e-06
1.99732e-05
-4.1651e-06
2.07263e-05
-2.9703e-06
2.12147e-05
-1.77982e-06
2.14461e-05
-6.30371e-07
2.14358e-05
4.47353e-07
2.12036e-05
1.43118e-06
2.07734e-05
2.30648e-06
2.017e-05
3.06668e-06
1.94188e-05
3.71121e-06
1.85439e-05
4.24483e-06
1.75679e-05
4.67545e-06
1.65112e-05
5.01307e-06
1.53918e-05
5.2679e-06
1.42255e-05
5.44949e-06
1.30262e-05
5.56543e-06
1.18062e-05
5.62092e-06
1.05771e-05
5.61822e-06
9.34992e-06
5.55667e-06
8.13621e-06
5.43288e-06
6.94826e-06
5.24132e-06
5.79977e-06
4.97532e-06
4.70609e-06
4.62839e-06
3.68432e-06
4.19617e-06
2.75306e-06
3.67867e-06
1.93163e-06
3.08315e-06
1.23889e-06
2.42722e-06
6.91304e-07
1.74206e-06
3.0069e-07
1.07515e-06
7.16515e-08
4.9213e-07
7.75107e-08
-9.45735e-08
1.65615e-07
-3.88362e-07
7.72251e-07
-8.78273e-07
1.55044e-06
-1.55135e-06
2.40361e-06
-2.38758e-06
3.25772e-06
-3.36307e-06
4.06031e-06
-4.4529e-06
4.77816e-06
-5.63316e-06
5.39383e-06
-6.88207e-06
5.90152e-06
-8.18039e-06
6.30324e-06
-9.51141e-06
6.60542e-06
-1.08605e-05
6.81628e-06
-1.22147e-05
6.94366e-06
-1.35618e-05
6.99364e-06
-1.48899e-05
6.96943e-06
-1.61862e-05
6.87091e-06
-1.74371e-05
6.69433e-06
-1.8627e-05
6.43275e-06
-1.9738e-05
6.07635e-06
-2.07501e-05
5.6137e-06
-2.16403e-05
5.03267e-06
-2.23841e-05
4.32243e-06
-2.29548e-05
3.47476e-06
-2.33255e-05
2.4865e-06
-2.34697e-05
1.36081e-06
-2.33637e-05
1.09465e-07
-2.29876e-05
-1.24667e-06
-2.23286e-05
-2.67639e-06
-2.13819e-05
-4.13946e-06
-2.01537e-05
-5.58751e-06
-1.86621e-05
-6.96805e-06
-1.69377e-05
-8.22863e-06
-1.50217e-05
-9.32372e-06
-1.29634e-05
-1.02213e-05
-1.08136e-05
-1.09093e-05
-8.61787e-06
-1.13982e-05
-6.41058e-06
-1.17187e-05
-4.21013e-06
-1.19141e-05
-2.02026e-06
-1.2028e-05
1.6774e-07
-1.20946e-05
2.36684e-06
-1.21284e-05
4.5889e-06
-1.21231e-05
6.83529e-06
-1.205e-05
9.09456e-06
-1.18679e-05
1.13379e-05
-1.15295e-05
1.3524e-05
-1.0996e-05
1.5601e-05
-1.02435e-05
1.75163e-05
-9.27209e-06
1.92207e-05
-8.10279e-06
2.06758e-05
-6.77609e-06
2.18541e-05
-5.34233e-06
2.2742e-05
-3.85731e-06
2.3337e-05
-2.37404e-06
2.36477e-05
-9.40356e-07
2.369e-05
4.05703e-07
2.34861e-05
1.63551e-06
2.30616e-05
2.73136e-06
2.2444e-05
3.68447e-06
2.16608e-05
4.49451e-06
2.07386e-05
5.16701e-06
1.97019e-05
5.71206e-06
1.85728e-05
6.14187e-06
1.73709e-05
6.46945e-06
1.61133e-05
6.70674e-06
1.48145e-05
6.86368e-06
1.34877e-05
6.94717e-06
1.21446e-05
6.96069e-06
1.07967e-05
6.90405e-06
9.45523e-06
6.77367e-06
8.13281e-06
6.5631e-06
6.84343e-06
6.26404e-06
5.60332e-06
5.86784e-06
4.43127e-06
5.36755e-06
3.34869e-06
4.76058e-06
2.37916e-06
4.052e-06
1.54737e-06
3.25835e-06
8.77117e-07
2.41167e-06
3.88577e-07
1.56303e-06
9.497e-08
7.84871e-07
1.71963e-07
-1.20142e-07
2.85776e-07
-4.8491e-07
1.13658e-06
-1.08251e-06
2.1477e-06
-1.88945e-06
3.2102e-06
-2.87531e-06
4.24314e-06
-4.00722e-06
5.1917e-06
-5.2534e-06
6.02375e-06
-6.58517e-06
6.72492e-06
-7.97788e-06
7.29343e-06
-9.41081e-06
7.73525e-06
-1.08667e-05
8.06031e-06
-1.2331e-05
8.27946e-06
-1.37908e-05
8.40238e-06
-1.52342e-05
8.43598e-06
-1.66495e-05
8.38352e-06
-1.80237e-05
8.24403e-06
-1.93429e-05
8.01238e-06
-2.05906e-05
7.67943e-06
-2.17483e-05
7.23302e-06
-2.27945e-05
6.65883e-06
-2.3705e-05
5.94225e-06
-2.44532e-05
5.06982e-06
-2.50111e-05
4.03192e-06
-2.53495e-05
2.82438e-06
-2.54407e-05
1.45151e-06
-2.52588e-05
-7.27723e-08
-2.47832e-05
-1.72245e-06
-2.39998e-05
-3.45973e-06
-2.29048e-05
-5.23428e-06
-2.15058e-05
-6.98612e-06
-1.9825e-05
-8.64822e-06
-1.78993e-05
-1.01534e-05
-1.57801e-05
-1.14418e-05
-1.35284e-05
-1.24716e-05
-1.12076e-05
-1.32282e-05
-8.87392e-06
-1.37298e-05
-6.566e-06
-1.40241e-05
-4.30045e-06
-1.41768e-05
-2.07092e-06
-1.42545e-05
1.44685e-07
-1.43069e-05
2.37693e-06
-1.43572e-05
4.65202e-06
-1.43946e-05
6.98438e-06
-1.43788e-05
9.36673e-06
-1.42468e-05
1.17705e-05
-1.393e-05
1.41451e-05
-1.33676e-05
1.64284e-05
-1.25241e-05
1.85536e-05
-1.13949e-05
2.04614e-05
-1.00086e-05
2.21036e-05
-8.41652e-06
2.34483e-05
-6.68559e-06
2.44779e-05
-4.88571e-06
2.51899e-05
-3.08488e-06
2.55922e-05
-1.34158e-06
2.57024e-05
2.96389e-07
2.55438e-05
1.79483e-06
2.51443e-05
3.13151e-06
2.45328e-05
4.29635e-06
2.37391e-05
5.28847e-06
2.27913e-05
6.1149e-06
2.17158e-05
6.78753e-06
2.0536e-05
7.32144e-06
1.92727e-05
7.73232e-06
1.79438e-05
8.03505e-06
1.65648e-05
8.24201e-06
1.51491e-05
8.36221e-06
1.37084e-05
8.40052e-06
1.2254e-05
8.35754e-06
1.07972e-05
8.22956e-06
9.35009e-06
8.00922e-06
7.92675e-06
7.68639e-06
6.54389e-06
7.2497e-06
5.22172e-06
6.6887e-06
3.98447e-06
5.9968e-06
2.86036e-06
5.17506e-06
1.88081e-06
4.23685e-06
1.07843e-06
3.21303e-06
4.83607e-07
2.15681e-06
1.19961e-07
1.14726e-06
2.91353e-07
-1.48609e-07
4.34235e-07
-5.92651e-07
1.58006e-06
-1.30974e-06
2.86439e-06
-2.26297e-06
4.16308e-06
-3.40895e-06
5.3887e-06
-4.70413e-06
6.48643e-06
-6.10901e-06
7.42818e-06
-7.59011e-06
8.20555e-06
-9.12023e-06
8.82298e-06
-1.06777e-05
9.29208e-06
-1.22454e-05
9.62718e-06
-1.38092e-05
9.84234e-06
-1.53569e-05
9.94911e-06
-1.68771e-05
9.95527e-06
-1.83585e-05
9.86381e-06
-1.97883e-05
9.67281e-06
-2.11521e-05
9.37526e-06
-2.24335e-05
8.95984e-06
-2.3613e-05
8.41149e-06
-2.46682e-05
7.71319e-06
-2.5574e-05
6.84721e-06
-2.63028e-05
5.79792e-06
-2.68251e-05
4.55354e-06
-2.71109e-05
3.10968e-06
-2.71308e-05
1.47097e-06
-2.68585e-05
-3.45422e-07
-2.62719e-05
-2.30918e-06
-2.53573e-05
-4.37445e-06
-2.41102e-05
-6.48128e-06
-2.25402e-05
-8.55585e-06
-2.06723e-05
-1.05156e-05
-1.85503e-05
-1.22746e-05
-1.62356e-05
-1.37554e-05
-1.38038e-05
-1.4902e-05
-1.13345e-05
-1.56958e-05
-8.89697e-06
-1.61651e-05
-6.53638e-06
-1.63822e-05
-4.26513e-06
-1.64452e-05
-2.06474e-06
-1.64517e-05
1.06979e-07
-1.64752e-05
2.30129e-06
-1.65479e-05
4.56632e-06
-1.66559e-05
6.93052e-06
-1.67393e-05
9.39592e-06
-1.67086e-05
1.19309e-05
-1.64616e-05
1.44768e-05
-1.59105e-05
1.69548e-05
-1.49994e-05
1.92837e-05
-1.37215e-05
2.13898e-05
-1.21128e-05
2.32175e-05
-1.02427e-05
2.47287e-05
-8.1956e-06
2.59045e-05
-6.06063e-06
2.67407e-05
-3.92026e-06
2.72464e-05
-1.84659e-06
2.74395e-05
1.0403e-07
2.73449e-05
1.89007e-06
2.6991e-05
3.48597e-06
2.64086e-05
4.8792e-06
2.56283e-05
6.06918e-06
2.46796e-05
7.06377e-06
2.35899e-05
7.87732e-06
2.23838e-05
8.52743e-06
2.10828e-05
9.033e-06
1.97057e-05
9.41179e-06
1.82682e-05
9.67902e-06
1.67839e-05
9.84596e-06
1.52645e-05
9.91924e-06
1.37209e-05
9.90041e-06
1.21637e-05
9.78593e-06
1.06045e-05
9.56756e-06
9.05678e-06
9.23323e-06
7.53721e-06
8.76837e-06
6.06688e-06
8.15811e-06
4.67249e-06
7.39025e-06
3.38697e-06
6.45962e-06
2.24927e-06
5.3736e-06
1.30247e-06
4.15889e-06
5.89733e-07
2.86856e-06
1.4786e-07
1.58793e-06
4.38937e-07
-1.81776e-07
6.15798e-07
-7.17621e-07
2.11544e-06
-1.57088e-06
3.71743e-06
-2.68662e-06
5.27877e-06
-4.00503e-06
6.70703e-06
-5.47007e-06
7.95141e-06
-7.03413e-06
8.99228e-06
-8.65935e-06
9.83091e-06
-1.03169e-05
1.04807e-05
-1.19852e-05
1.09605e-05
-1.36478e-05
1.12899e-05
-1.52919e-05
1.14864e-05
-1.69065e-05
1.15635e-05
-1.84808e-05
1.15295e-05
-2.00042e-05
1.13869e-05
-2.14641e-05
1.11324e-05
-2.28463e-05
1.07572e-05
-2.41339e-05
1.02471e-05
-2.53073e-05
9.58455e-06
-2.63435e-05
8.74911e-06
-2.72171e-05
7.72055e-06
-2.78998e-05
6.48036e-06
-2.83619e-05
5.01551e-06
-2.8573e-05
3.3205e-06
-2.85037e-05
1.4015e-06
-2.81271e-05
-7.22202e-07
-2.74218e-05
-3.01463e-06
-2.63731e-05
-5.42329e-06
-2.49774e-05
-7.87717e-06
-2.32437e-05
-1.02896e-05
-2.11995e-05
-1.25597e-05
-1.88928e-05
-1.45811e-05
-1.63956e-05
-1.62522e-05
-1.37994e-05
-1.74974e-05
-1.12039e-05
-1.82901e-05
-8.69607e-06
-1.86715e-05
-6.329e-06
-1.87474e-05
-4.11052e-06
-1.86615e-05
-2.00468e-06
-1.85551e-05
5.36352e-08
-1.8531e-05
2.14366e-06
-1.86354e-05
4.33724e-06
-1.88469e-05
6.68338e-06
-1.90828e-05
9.19202e-06
-1.92146e-05
1.18316e-05
-1.90988e-05
1.45292e-05
-1.86058e-05
1.71882e-05
-1.76565e-05
1.97069e-05
-1.62386e-05
2.19996e-05
-1.44044e-05
2.40014e-05
-1.22439e-05
2.56724e-05
-9.86629e-06
2.69915e-05
-7.3798e-06
2.79558e-05
-4.88471e-06
2.85738e-05
-2.4648e-06
2.88645e-05
-1.86859e-07
2.88527e-05
1.90197e-06
2.85673e-05
3.77145e-06
2.80389e-05
5.40772e-06
2.72989e-05
6.80947e-06
2.63768e-05
7.98602e-06
2.53008e-05
8.95351e-06
2.40959e-05
9.73253e-06
2.27841e-05
1.03448e-05
2.13845e-05
1.08114e-05
1.99132e-05
1.11504e-05
1.83836e-05
1.13755e-05
1.68074e-05
1.14954e-05
1.51948e-05
1.15129e-05
1.35558e-05
1.14249e-05
1.19006e-05
1.12226e-05
1.02418e-05
1.08919e-05
8.595e-06
1.0415e-05
6.98138e-06
9.77155e-06
5.42917e-06
8.94225e-06
3.97556e-06
7.91301e-06
2.66741e-06
6.68151e-06
1.5601e-06
5.26598e-06
7.12993e-07
3.71537e-06
1.80535e-07
2.11986e-06
6.19906e-07
-2.22592e-07
8.3826e-07
-8.69223e-07
2.76192e-06
-1.88207e-06
4.73042e-06
-3.18101e-06
6.57819e-06
-4.68536e-06
8.2119e-06
-6.32513e-06
9.59172e-06
-8.04506e-06
1.07129e-05
-9.80437e-06
1.15912e-05
-1.15742e-05
1.22517e-05
-1.33344e-05
1.27219e-05
-1.50707e-05
1.30272e-05
-1.67718e-05
1.31886e-05
-1.84283e-05
1.3221e-05
-2.00308e-05
1.31329e-05
-2.15688e-05
1.29258e-05
-2.30304e-05
1.2595e-05
-2.44014e-05
1.2129e-05
-2.56649e-05
1.15114e-05
-2.6801e-05
1.07214e-05
-2.77873e-05
9.73606e-06
-2.8598e-05
8.53191e-06
-2.92058e-05
7.08865e-06
-2.95811e-05
5.39127e-06
-2.96949e-05
3.43457e-06
-2.95184e-05
1.22522e-06
-2.90268e-05
-1.21379e-06
-2.81991e-05
-3.84247e-06
-2.70222e-05
-6.60049e-06
-2.54914e-05
-9.40841e-06
-2.36157e-05
-1.21659e-05
-2.14203e-05
-1.47557e-05
-1.89551e-05
-1.70467e-05
-1.62985e-05
-1.8909e-05
-1.35594e-05
-2.02364e-05
-1.08613e-05
-2.09879e-05
-8.31405e-06
-2.12183e-05
-5.98142e-06
-2.10793e-05
-3.86397e-06
-2.0778e-05
-1.90565e-06
-2.05124e-05
-1.33399e-08
-2.04223e-05
1.9204e-06
-2.05682e-05
3.99649e-06
-2.09222e-05
6.28294e-06
-2.13684e-05
8.80243e-06
-2.17333e-05
1.15196e-05
-2.18152e-05
1.43479e-05
-2.14334e-05
1.71646e-05
-2.04725e-05
1.98483e-05
-1.89218e-05
2.2299e-05
-1.68549e-05
2.44498e-05
-1.43948e-05
2.62597e-05
-1.16765e-05
2.77104e-05
-8.83137e-06
2.87988e-05
-5.9742e-06
2.95347e-05
-3.20192e-06
2.99357e-05
-5.88884e-07
3.00261e-05
1.81087e-06
2.9833e-05
3.96408e-06
2.93862e-05
5.85421e-06
2.87158e-05
7.47991e-06
2.78511e-05
8.85085e-06
2.68197e-05
9.98529e-06
2.56466e-05
1.09061e-05
2.43538e-05
1.16381e-05
2.29606e-05
1.22052e-05
2.14831e-05
1.26286e-05
1.99348e-05
1.29245e-05
1.8327e-05
1.31039e-05
1.66694e-05
1.31712e-05
1.49709e-05
1.31242e-05
1.32405e-05
1.29539e-05
1.14886e-05
1.26447e-05
9.72919e-06
1.21753e-05
7.98183e-06
1.15198e-05
6.27476e-06
1.06502e-05
4.64796e-06
9.54066e-06
3.15578e-06
8.17455e-06
1.86737e-06
6.55524e-06
8.627e-07
4.72081e-06
2.20923e-07
2.76222e-06
8.41989e-07
-2.76337e-07
1.11468e-06
-1.0628e-06
3.5487e-06
-2.26767e-06
5.93573e-06
-3.77485e-06
8.0863e-06
-5.47782e-06
9.91598e-06
-7.29244e-06
1.14074e-05
-9.15808e-06
1.25797e-05
-1.10339e-05
1.34684e-05
-1.28937e-05
1.41131e-05
-1.47207e-05
1.45507e-05
-1.65037e-05
1.4812e-05
-1.82339e-05
1.49207e-05
-1.99037e-05
1.48926e-05
-2.15047e-05
1.47356e-05
-2.3027e-05
1.44498e-05
-2.44588e-05
1.40284e-05
-2.57862e-05
1.34579e-05
-2.69921e-05
1.27189e-05
-2.80574e-05
1.17881e-05
-2.89598e-05
1.06397e-05
-2.96749e-05
9.24819e-06
-3.01764e-05
7.59107e-06
-3.04373e-05
5.65294e-06
-3.04303e-05
3.42817e-06
-3.01308e-05
9.25934e-07
-2.95162e-05
-1.82834e-06
-2.85701e-05
-4.78889e-06
-2.72808e-05
-7.89031e-06
-2.56453e-05
-1.10446e-05
-2.3669e-05
-1.4143e-05
-2.13729e-05
-1.70527e-05
-1.87998e-05
-1.96207e-05
-1.60289e-05
-2.16806e-05
-1.31823e-05
-2.30835e-05
-1.04111e-05
-2.37594e-05
-7.85255e-06
-2.3777e-05
-5.58287e-06
-2.33491e-05
-3.59274e-06
-2.27683e-05
-1.80101e-06
-2.23044e-05
-8.99726e-08
-2.21338e-05
1.67515e-06
-2.2334e-05
3.61816e-06
-2.28661e-05
5.8269e-06
-2.35782e-05
8.33292e-06
-2.42402e-05
1.11022e-05
-2.45851e-05
1.40294e-05
-2.43612e-05
1.69646e-05
-2.34081e-05
1.97623e-05
-2.172e-05
2.23179e-05
-1.94112e-05
2.45668e-05
-1.66443e-05
2.64763e-05
-1.35867e-05
2.80315e-05
-1.03873e-05
2.92317e-05
-7.17562e-06
3.00848e-05
-4.05639e-06
3.06069e-05
-1.11217e-06
3.08179e-05
1.59885e-06
3.07424e-05
4.03896e-06
3.04063e-05
6.18987e-06
2.98377e-05
8.04852e-06
2.90637e-05
9.62511e-06
2.81108e-05
1.09388e-05
2.70029e-05
1.20146e-05
2.5762e-05
1.28799e-05
2.44069e-05
1.35614e-05
2.29539e-05
1.40828e-05
2.14164e-05
1.44633e-05
1.98056e-05
1.4716e-05
1.81309e-05
1.48475e-05
1.63999e-05
1.48567e-05
1.46201e-05
1.47353e-05
1.27996e-05
1.44669e-05
1.0949e-05
1.40275e-05
9.0848e-06
1.33857e-05
7.23248e-06
1.25041e-05
5.43199e-06
1.13427e-05
3.74291e-06
9.86514e-06
2.24845e-06
8.05121e-06
1.05407e-06
5.91668e-06
2.74189e-07
3.54345e-06
1.11729e-06
-3.53411e-07
1.4684e-06
-1.32487e-06
4.52098e-06
-2.76539e-06
7.37669e-06
-4.50809e-06
9.8299e-06
-6.41689e-06
1.1826e-05
-8.39651e-06
1.33882e-05
-1.03863e-05
1.45706e-05
-1.23502e-05
1.54337e-05
-1.42683e-05
1.60326e-05
-1.61293e-05
1.64132e-05
-1.7926e-05
1.66104e-05
-1.96528e-05
1.66492e-05
-2.13035e-05
1.65449e-05
-2.28703e-05
1.6304e-05
-2.43437e-05
1.59248e-05
-2.57119e-05
1.53981e-05
-2.69607e-05
1.4708e-05
-2.80736e-05
1.38331e-05
-2.90317e-05
1.27473e-05
-2.98143e-05
1.14233e-05
-3.03985e-05
9.83335e-06
-3.07613e-05
7.95455e-06
-3.08787e-05
5.77076e-06
-3.07286e-05
3.27832e-06
-3.0291e-05
4.88247e-07
-2.95509e-05
-2.56885e-06
-2.84972e-05
-5.84313e-06
-2.71258e-05
-9.26254e-06
-2.54355e-05
-1.27358e-05
-2.34308e-05
-1.61486e-05
-2.11213e-05
-1.9363e-05
-1.85345e-05
-2.22081e-05
-1.57343e-05
-2.44812e-05
-1.28482e-05
-2.59698e-05
-1.00512e-05
-2.65563e-05
-7.51002e-06
-2.63179e-05
-5.31182e-06
-2.55472e-05
-3.43065e-06
-2.46496e-05
-1.75875e-06
-2.39769e-05
-1.64755e-07
-2.3729e-05
1.49428e-06
-2.39946e-05
3.35384e-06
-2.47276e-05
5.50515e-06
-2.57318e-05
7.98984e-06
-2.67271e-05
1.07755e-05
-2.73727e-05
1.37479e-05
-2.7335e-05
1.67233e-05
-2.63844e-05
1.95427e-05
-2.45401e-05
2.21055e-05
-2.19754e-05
2.43674e-05
-1.89076e-05
2.63093e-05
-1.55293e-05
2.79247e-05
-1.20033e-05
2.92119e-05
-8.46344e-06
3.0176e-05
-5.02117e-06
3.08258e-05
-1.76277e-06
3.11759e-05
1.24823e-06
3.12433e-05
3.97125e-06
3.1049e-05
6.38404e-06
3.0616e-05
8.48173e-06
2.99685e-05
1.02731e-05
2.91303e-05
1.17778e-05
2.81239e-05
1.30219e-05
2.697e-05
1.40348e-05
2.56873e-05
1.48453e-05
2.42918e-05
1.54795e-05
2.27973e-05