/*--------------------------------*- C++ -*----------------------------------*\
| =========                 |                                                 |
| \\      /  F ield         | OpenFOAM: The Open Source CFD Toolbox           |
|  \\    /   O peration     | Version:  2412                                  |
|   \\  /    A nd           | Website:  www.openfoam.com                      |
|    \\/     M anipulation  |                                                 |
\*---------------------------------------------------------------------------*/
FoamFile
{
    version     2.0;
    format      ascii;
    arch        "LSB;label=32;scalar=64";
    class       surfaceScalarField;
    location    "0.5";
    object      alphaPhi0.soap;
}
// * * * * * * * * * * * * * * * * * * * * * * * * * * * * * * * * * * * * * //

dimensions      [0 3 -1 0 0 0 0];

oriented        oriented;

internalField   nonuniform List<scalar> 
12640
(
-4.96238e-08
4.96236e-08
-8.97334e-08
4.03439e-08
-1.33093e-07
4.35745e-08
-1.76949e-07
4.41071e-08
-2.20396e-07
4.37345e-08
-2.63237e-07
4.31353e-08
-3.05482e-07
4.25068e-08
-3.47067e-07
4.17852e-08
-3.8784e-07
4.09036e-08
-4.27606e-07
3.98408e-08
-4.66152e-07
3.85948e-08
-5.03265e-07
3.71625e-08
-5.38727e-07
3.55282e-08
-5.72314e-07
3.3668e-08
-6.03783e-07
3.15475e-08
-6.32874e-07
2.91449e-08
-6.59298e-07
2.64344e-08
-6.82745e-07
2.34038e-08
-7.0287e-07
2.0034e-08
-7.19319e-07
1.63239e-08
-7.31729e-07
1.22724e-08
-7.39729e-07
7.86635e-09
-7.42926e-07
3.07767e-09
-7.40896e-07
-2.13438e-09
-7.33279e-07
-7.71229e-09
-7.19713e-07
-1.36601e-08
-6.99861e-07
-1.99509e-08
-6.73427e-07
-2.65377e-08
-6.40183e-07
-3.3352e-08
-5.99987e-07
-4.03078e-08
-5.52802e-07
-4.73034e-08
-4.98715e-07
-5.42214e-08
-4.37948e-07
-6.09261e-08
-3.70869e-07
-6.72655e-08
-2.98001e-07
-7.30772e-08
-2.20024e-07
-7.8196e-08
-1.37774e-07
-8.24634e-08
-5.22353e-08
-8.57367e-08
3.54822e-08
-8.78967e-08
1.24172e-07
-8.8856e-08
2.12572e-07
-8.85649e-08
2.99413e-07
-8.70168e-08
3.83466e-07
-8.42467e-08
4.63594e-07
-8.03362e-08
5.38785e-07
-7.5409e-08
6.08168e-07
-6.96109e-08
6.71063e-07
-6.31042e-08
7.26975e-07
-5.60747e-08
7.7555e-07
-4.87015e-08
8.16593e-07
-4.11338e-08
8.50072e-07
-3.35163e-08
8.76045e-07
-2.59875e-08
8.94701e-07
-1.86736e-08
9.06342e-07
-1.16754e-08
9.11304e-07
-5.04013e-09
9.10001e-07
1.21547e-09
9.02925e-07
6.99389e-09
8.90508e-07
1.23143e-08
8.73136e-07
1.72792e-08
8.51272e-07
2.18141e-08
8.25267e-07
2.58617e-08
7.95977e-07
2.93115e-08
7.63591e-07
3.21802e-08
7.28806e-07
3.46631e-08
6.91908e-07
3.68445e-08
6.5279e-07
3.8956e-08
6.11589e-07
4.10951e-08
5.6872e-07
4.28975e-08
5.247e-07
4.40456e-08
4.79833e-07
4.48306e-08
4.34099e-07
4.57222e-08
3.87482e-07
4.66952e-08
3.40197e-07
4.74054e-08
2.9251e-07
4.77844e-08
2.44479e-07
4.81269e-08
1.96016e-07
4.85886e-08
1.47167e-07
4.8949e-08
9.81729e-08
4.90363e-08
4.91924e-08
4.89983e-08
4.92408e-08
-4.34472e-08
9.33421e-08
-8.98827e-08
8.7205e-08
-1.33733e-07
8.78634e-08
-1.77202e-07
8.80544e-08
-2.2061e-07
8.762e-08
-2.63711e-07
8.66568e-08
-3.06231e-07
8.53509e-08
-3.48017e-07
8.37896e-08
-3.88939e-07
8.19658e-08
-4.28838e-07
7.98436e-08
-4.67523e-07
7.73866e-08
-5.04791e-07
7.45555e-08
-5.40431e-07
7.13019e-08
-5.74224e-07
6.7576e-08
-6.0594e-07
6.33251e-08
-6.35317e-07
5.85068e-08
-6.62073e-07
5.30941e-08
-6.85873e-07
4.70417e-08
-7.064e-07
4.03593e-08
-7.23293e-07
3.30049e-08
-7.36149e-07
2.49291e-08
-7.44589e-07
1.6126e-08
-7.48242e-07
6.56403e-09
-7.46642e-07
-3.89833e-09
-7.39426e-07
-1.51029e-08
-7.26205e-07
-2.70677e-08
-7.06627e-07
-3.97276e-08
-6.80384e-07
-5.2987e-08
-6.47235e-07
-6.67132e-08
-6.0703e-07
-8.07412e-08
-5.59719e-07
-9.48707e-08
-5.05376e-07
-1.08859e-07
-4.4421e-07
-1.22425e-07
-3.76582e-07
-1.35256e-07
-3.03011e-07
-1.47019e-07
-2.24184e-07
-1.57383e-07
-1.40957e-07
-1.66032e-07
-5.43377e-08
-1.7268e-07
3.45339e-08
-1.77083e-07
1.2442e-07
-1.79058e-07
2.14027e-07
-1.78496e-07
3.02053e-07
-1.75377e-07
3.8723e-07
-1.69773e-07
4.68384e-07
-1.61844e-07
5.4448e-07
-1.51837e-07
6.14627e-07
-1.40066e-07
6.7811e-07
-1.2687e-07
7.34436e-07
-1.12606e-07
7.83263e-07
-9.76465e-08
8.24378e-07
-8.23337e-08
8.57768e-07
-6.6961e-08
8.8352e-07
-5.17945e-08
9.01829e-07
-3.70739e-08
9.13043e-07
-2.29992e-08
9.17543e-07
-9.70154e-09
9.15691e-07
2.86337e-09
9.08113e-07
1.44021e-08
8.9515e-07
2.513e-08
8.77289e-07
3.49671e-08
8.55036e-07
4.40006e-08
8.28694e-07
5.19096e-08
7.99149e-07
5.87322e-08
7.66604e-07
6.44706e-08
7.31436e-07
6.95494e-08
6.93967e-07
7.42192e-08
6.54322e-07
7.85502e-08
6.12796e-07
8.25107e-08
5.69834e-07
8.57674e-08
5.25804e-07
8.80916e-08
4.80847e-07
8.99198e-08
4.34915e-07
9.18306e-08
3.88081e-07
9.36923e-08
3.40664e-07
9.49721e-08
2.92917e-07
9.57029e-08
2.44791e-07
9.64473e-08
1.96188e-07
9.73478e-08
1.47237e-07
9.80001e-08
9.82589e-08
9.8095e-08
4.9235e-08
9.80726e-08
9.84679e-08
-4.15878e-08
1.35145e-07
-8.88434e-08
1.34795e-07
-1.33959e-07
1.33321e-07
-1.78106e-07
1.32564e-07
-2.21744e-07
1.31607e-07
-2.64981e-07
1.30192e-07
-3.07714e-07
1.28313e-07
-3.49772e-07
1.26014e-07
-3.90982e-07
1.23303e-07
-4.31175e-07
1.20152e-07
-4.70176e-07
1.16506e-07
-5.07801e-07
1.12298e-07
-5.43858e-07
1.07457e-07
-5.78133e-07
1.01908e-07
-6.10395e-07
9.55919e-08
-6.40376e-07
8.84411e-08
-6.67784e-07
8.04202e-08
-6.92299e-07
7.1458e-08
-7.13573e-07
6.1536e-08
-7.31235e-07
5.0576e-08
-7.44913e-07
3.85162e-08
-7.5419e-07
2.53001e-08
-7.58713e-07
1.09592e-08
-7.57932e-07
-4.83615e-09
-7.51477e-07
-2.17372e-08
-7.38938e-07
-3.97993e-08
-7.1993e-07
-5.89289e-08
-6.94121e-07
-7.89879e-08
-6.61243e-07
-9.97878e-08
-6.21109e-07
-1.21086e-07
-5.73634e-07
-1.42578e-07
-5.18854e-07
-1.63896e-07
-4.56945e-07
-1.84607e-07
-3.88249e-07
-2.04234e-07
-3.13286e-07
-2.22269e-07
-2.32761e-07
-2.38199e-07
-1.4756e-07
-2.51526e-07
-5.87364e-08
-2.61793e-07
3.25134e-08
-2.68612e-07
1.24884e-07
-2.71689e-07
2.17004e-07
-2.70849e-07
3.07488e-07
-2.66069e-07
3.94983e-07
-2.57471e-07
4.7823e-07
-2.45308e-07
5.56132e-07
-2.29958e-07
6.27768e-07
-2.11905e-07
6.92385e-07
-1.91688e-07
7.49466e-07
-1.69857e-07
7.98698e-07
-1.46979e-07
8.39888e-07
-1.236e-07
8.73037e-07
-1.00189e-07
8.98306e-07
-7.71521e-08
9.15933e-07
-5.48396e-08
9.26307e-07
-3.35281e-08
9.29888e-07
-1.34391e-08
9.27055e-07
5.51334e-09
9.18461e-07
2.28297e-08
9.0453e-07
3.89204e-08
8.85752e-07
5.36003e-08
8.62626e-07
6.69617e-08
8.35678e-07
7.86736e-08
8.05405e-07
8.88366e-08
7.72139e-07
9.75437e-08
7.36189e-07
1.05297e-07
6.97856e-07
1.12414e-07
6.57487e-07
1.18845e-07
6.15512e-07
1.2444e-07
5.72329e-07
1.28957e-07
5.28078e-07
1.32432e-07
4.82695e-07
1.35454e-07
4.36254e-07
1.38406e-07
3.89133e-07
1.40895e-07
3.41647e-07
1.42537e-07
2.9373e-07
1.43756e-07
2.45266e-07
1.45078e-07
1.96437e-07
1.4631e-07
1.47498e-07
1.47031e-07
9.85152e-08
1.47074e-07
4.91812e-08
1.47571e-07
1.47691e-07
-4.40062e-08
1.79338e-07
-8.91637e-08
1.80208e-07
-1.34404e-07
1.78818e-07
-1.79081e-07
1.77506e-07
-2.23208e-07
1.75981e-07
-2.66841e-07
1.74037e-07
-3.09938e-07
1.71585e-07
-3.52377e-07
1.68602e-07
-3.94003e-07
1.65068e-07
-4.34656e-07
1.60938e-07
-4.74174e-07
1.56145e-07
-5.12394e-07
1.50608e-07
-5.49129e-07
1.44238e-07
-5.84166e-07
1.36943e-07
-6.17261e-07
1.28648e-07
-6.48154e-07
1.19283e-07
-6.76527e-07
1.08751e-07
-7.02075e-07
9.69842e-08
-7.2444e-07
8.38946e-08
-7.43259e-07
6.93829e-08
-7.58137e-07
5.3351e-08
-7.68669e-07
3.57405e-08
-7.74347e-07
1.64963e-08
-7.74794e-07
-4.56621e-09
-7.69489e-07
-2.7237e-08
-7.57997e-07
-5.14851e-08
-7.39905e-07
-7.72101e-08
-7.14836e-07
-1.04245e-07
-6.8247e-07
-1.32353e-07
-6.42554e-07
-1.61215e-07
-5.94931e-07
-1.90424e-07
-5.39571e-07
-2.19483e-07
-4.76599e-07
-2.47807e-07
-4.06325e-07
-2.74738e-07
-3.29261e-07
-2.99573e-07
-2.46133e-07
-3.21584e-07
-1.57873e-07
-3.40055e-07
-6.5607e-08
-3.54325e-07
2.93729e-08
-3.63831e-07
1.25642e-07
-3.68161e-07
2.21686e-07
-3.67063e-07
3.15979e-07
-3.6051e-07
4.07039e-07
-3.48676e-07
4.93486e-07
-3.31925e-07
5.7412e-07
-3.10783e-07
6.47967e-07
-2.85927e-07
7.14245e-07
-2.58129e-07
7.72407e-07
-2.28184e-07
8.22165e-07
-1.96872e-07
8.63396e-07
-1.64951e-07
8.96146e-07
-1.3308e-07
9.20654e-07
-1.01807e-07
9.37256e-07
-7.16037e-08
9.46385e-07
-4.28381e-08
9.48537e-07
-1.57555e-08
9.44352e-07
9.55215e-09
9.34231e-07
3.28106e-08
9.18771e-07
5.41978e-08
8.9868e-07
7.36782e-08
8.74189e-07
9.12213e-08
8.46096e-07
1.06646e-07
8.14629e-07
1.20085e-07
7.80201e-07
1.31835e-07
7.43135e-07
1.42306e-07
7.03719e-07
1.51703e-07
6.62507e-07
1.59949e-07
6.19941e-07
1.66994e-07
5.76173e-07
1.72767e-07
5.31232e-07
1.77412e-07
4.85206e-07
1.81488e-07
4.38328e-07
1.8528e-07
3.90901e-07
1.88396e-07
3.43057e-07
1.90566e-07
2.94742e-07
1.92232e-07
2.46012e-07
1.93858e-07
1.97037e-07
1.95348e-07
1.48002e-07
1.96143e-07
9.88804e-08
1.96428e-07
4.93153e-08
1.97209e-07
1.97143e-07
-4.54533e-08
2.24936e-07
-9.02814e-08
2.25187e-07
-1.35472e-07
2.24161e-07
-1.80467e-07
2.22654e-07
-2.25067e-07
2.20725e-07
-2.69197e-07
2.18303e-07
-3.12792e-07
2.15311e-07
-3.55747e-07
2.11695e-07
-3.97938e-07
2.074e-07
-4.39226e-07
2.02355e-07
-4.79468e-07
1.96483e-07
-5.18512e-07
1.89696e-07
-5.56171e-07
1.81886e-07
-5.92235e-07
1.72959e-07
-6.2645e-07
1.62808e-07
-6.5854e-07
1.5134e-07
-6.88204e-07
1.3842e-07
-7.15121e-07
1.23934e-07
-7.3894e-07
1.07749e-07
-7.59284e-07
8.97312e-08
-7.75741e-07
6.97569e-08
-7.87872e-07
4.77614e-08
-7.95252e-07
2.37247e-08
-7.97301e-07
-2.68687e-09
-7.93559e-07
-3.11467e-08
-7.83541e-07
-6.16621e-08
-7.66779e-07
-9.41321e-08
-7.42827e-07
-1.28369e-07
-7.11275e-07
-1.64093e-07
-6.71771e-07
-2.00916e-07
-6.24057e-07
-2.38332e-07
-5.68007e-07
-2.75712e-07
-5.03669e-07
-3.1231e-07
-4.31304e-07
-3.4727e-07
-3.51403e-07
-3.79654e-07
-2.64711e-07
-4.08476e-07
-1.72223e-07
-4.32758e-07
-7.51724e-08
-4.51592e-07
2.49996e-08
-4.64209e-07
1.26695e-07
-4.70049e-07
2.28192e-07
-4.68747e-07
3.27764e-07
-4.60264e-07
4.23744e-07
-4.44826e-07
5.14586e-07
-4.22936e-07
5.98948e-07
-3.95324e-07
6.7576e-07
-3.6291e-07
7.44215e-07
-3.26744e-07
8.03758e-07
-2.87909e-07
8.54131e-07
-2.47438e-07
8.95314e-07
-2.06305e-07
9.27453e-07
-1.65388e-07
9.50864e-07
-1.25392e-07
9.66014e-07
-8.69021e-08
9.73448e-07
-5.04109e-08
9.73728e-07
-1.62049e-08
9.67482e-07
1.56665e-08
9.55339e-07
4.48926e-08
9.37868e-07
7.14542e-08
9.15918e-07
9.56474e-08
8.89612e-07
1.17281e-07
8.59862e-07
1.36404e-07
8.26752e-07
1.53006e-07
7.90715e-07
1.67594e-07
7.52196e-07
1.80749e-07
7.11517e-07
1.92368e-07
6.69232e-07
2.02135e-07
6.25782e-07
2.10278e-07
5.81169e-07
2.17259e-07
5.35294e-07
2.23306e-07
4.88416e-07
2.28487e-07
4.41016e-07
2.32811e-07
3.93276e-07
2.36295e-07
3.44984e-07
2.39069e-07
2.96088e-07
2.41308e-07
2.46962e-07
2.43126e-07
1.97903e-07
2.44621e-07
1.48739e-07
2.45514e-07
9.9327e-08
2.46167e-07
4.96232e-08
2.47011e-07
2.46924e-07
-4.5952e-08
2.7097e-07
-9.13948e-08
2.70671e-07
-1.36871e-07
2.69685e-07
-1.82231e-07
2.68066e-07
-2.27314e-07
2.65865e-07
-2.72003e-07
2.63063e-07
-3.16203e-07
2.59602e-07
-3.59811e-07
2.55415e-07
-4.02725e-07
2.50431e-07
-4.44832e-07
2.44558e-07
-4.86001e-07
2.37702e-07
-5.26085e-07
2.29774e-07
-5.64904e-07
2.20653e-07
-6.02236e-07
2.10221e-07
-6.37838e-07
1.98355e-07
-6.71419e-07
1.84901e-07
-7.0269e-07
1.69704e-07
-7.31324e-07
1.52592e-07
-7.56967e-07
1.33396e-07
-7.79229e-07
1.11954e-07
-7.97687e-07
8.81269e-08
-8.11902e-07
6.18574e-08
-8.21315e-07
3.30133e-08
-8.25505e-07
1.38992e-09
-8.23834e-07
-3.29168e-08
-8.158e-07
-6.97944e-08
-8.00862e-07
-1.09187e-07
-7.78474e-07
-1.50901e-07
-7.48104e-07
-1.94625e-07
-7.0927e-07
-2.39912e-07
-6.6158e-07
-2.86166e-07
-6.04782e-07
-3.32629e-07
-5.38815e-07
-3.78375e-07
-4.63856e-07
-4.22319e-07
-3.8036e-07
-4.63247e-07
-2.89086e-07
-4.99869e-07
-1.9111e-07
-5.30888e-07
-8.78121e-08
-5.55089e-07
1.91642e-08
-5.71426e-07
1.27997e-07
-5.79145e-07
2.36681e-07
-5.77695e-07
3.43202e-07
-5.67027e-07
4.4563e-07
-5.47451e-07
5.42187e-07
-5.19655e-07
6.31344e-07
-4.84644e-07
7.11908e-07
-4.43651e-07
7.83039e-07
-3.98055e-07
8.44222e-07
-3.49282e-07
8.95251e-07
-2.98677e-07
9.36216e-07
-2.47466e-07
9.67434e-07
-1.96758e-07
9.89334e-07
-1.47461e-07
1.0025e-06
-1.00249e-07
1.00764e-06
-5.56701e-08
1.0054e-06
-1.41026e-08
9.96527e-07
2.43866e-08
9.81841e-07
5.94829e-08
9.61808e-07
9.13369e-08
9.37369e-07
1.20089e-07
9.08794e-07
1.45572e-07
8.76753e-07
1.68267e-07
8.41563e-07
1.8813e-07
8.03607e-07
2.05434e-07
7.63306e-07
2.20849e-07
7.21106e-07
2.34378e-07
6.77523e-07
2.45636e-07
6.32875e-07
2.54921e-07
5.87132e-07
2.63033e-07
5.4025e-07
2.70281e-07
4.92518e-07
2.76334e-07
4.4439e-07
2.81029e-07
3.96017e-07
2.84805e-07
3.47188e-07
2.88091e-07
2.97873e-07
2.90795e-07
2.48339e-07
2.92859e-07
1.98975e-07
2.9406e-07
1.49383e-07
2.95284e-07
9.97352e-08
2.96064e-07
4.99611e-08
2.97007e-07
2.96966e-07
-4.62735e-08
3.17257e-07
-9.24092e-08
3.1676e-07
-1.38398e-07
3.15644e-07
-1.84251e-07
3.13898e-07
-2.29886e-07
3.11492e-07
-2.75204e-07
3.08395e-07
-3.2011e-07
3.04548e-07
-3.64507e-07
2.9987e-07
-4.08302e-07
2.94284e-07
-4.51401e-07
2.87692e-07
-4.93691e-07
2.79987e-07
-5.35016e-07
2.71051e-07
-5.75202e-07
2.60766e-07
-6.14038e-07
2.48981e-07
-6.51276e-07
2.35532e-07
-6.86642e-07
2.20224e-07
-7.19839e-07
2.02864e-07
-7.50541e-07
1.83243e-07
-7.78389e-07
1.61166e-07
-8.02978e-07
1.36442e-07
-8.2387e-07
1.08911e-07
-8.40593e-07
7.84909e-08
-8.52664e-07
4.50257e-08
-8.59537e-07
8.23154e-09
-8.60507e-07
-3.1972e-08
-8.55049e-07
-7.52972e-08
-8.42509e-07
-1.21805e-07
-8.2221e-07
-1.71307e-07
-7.93475e-07
-2.23482e-07
-7.55661e-07
-2.77842e-07
-7.08206e-07
-3.33714e-07
-6.50691e-07
-3.90206e-07
-5.82898e-07
-4.46198e-07
-5.04885e-07
-5.00345e-07
-4.17039e-07
-5.51116e-07
-3.20122e-07
-5.96855e-07
-2.15297e-07
-6.35862e-07
-1.04117e-07
-6.6651e-07
1.15138e-08
-6.87365e-07
1.29488e-07
-6.97442e-07
2.47389e-07
-6.95883e-07
3.62809e-07
-6.82678e-07
4.73439e-07
-6.58254e-07
5.77189e-07
-6.23545e-07
6.72302e-07
-5.79904e-07
7.57448e-07
-5.28969e-07
8.3175e-07
-4.72544e-07
8.94759e-07
-4.12471e-07
9.46389e-07
-3.50497e-07
9.86851e-07
-2.88156e-07
1.01666e-06
-2.26768e-07
1.03649e-06
-1.67439e-07
1.04704e-06
-1.10992e-07
1.04918e-06
-5.79752e-08
1.04374e-06
-8.78843e-09
1.0316e-06
3.64703e-08
1.01356e-06
7.73546e-08
9.90427e-07
1.14336e-07
9.62819e-07
1.47538e-07
9.31516e-07
1.76881e-07
8.9675e-07
2.02845e-07
8.58924e-07
2.25719e-07
8.18636e-07
2.45657e-07
7.76317e-07
2.63074e-07
7.32407e-07
2.78074e-07
6.87288e-07
2.90528e-07
6.41124e-07
3.00928e-07
5.93932e-07
3.10109e-07
5.45872e-07
3.18231e-07
4.97251e-07
3.24799e-07
4.48333e-07
3.29824e-07
3.99163e-07
3.34047e-07
3.49659e-07
3.37769e-07
2.99879e-07
3.40676e-07
2.49932e-07
3.4285e-07
2.00108e-07
3.43931e-07
1.50066e-07
3.45501e-07
1.00163e-07
3.46066e-07
5.0233e-08
3.4713e-07
3.47201e-07
-4.67298e-08
3.63947e-07
-9.34315e-08
3.63375e-07
-1.39998e-07
3.62145e-07
-1.86439e-07
3.60278e-07
-2.32709e-07
3.57704e-07
-2.78739e-07
3.54378e-07
-3.24455e-07
3.50229e-07
-3.69769e-07
3.45158e-07
-4.14593e-07
3.3908e-07
-4.58844e-07
3.31902e-07
-5.0242e-07
3.23502e-07
-5.45172e-07
3.13726e-07
-5.86922e-07
3.0243e-07
-6.27479e-07
2.89448e-07
-6.66601e-07
2.74558e-07
-7.04029e-07
2.57544e-07
-7.39469e-07
2.38175e-07
-7.72592e-07
2.16219e-07
-8.03033e-07
1.91455e-07
-8.30387e-07
1.63664e-07
-8.54207e-07
1.32644e-07
-8.74032e-07
9.82807e-08
-8.89246e-07
6.02465e-08
-8.99424e-07
1.84332e-08
-9.03742e-07
-2.76428e-08
-9.01538e-07
-7.75179e-08
-8.92058e-07
-1.31334e-07
-8.74482e-07
-1.88956e-07
-8.47961e-07
-2.50083e-07
-8.11661e-07
-3.14216e-07
-7.64807e-07
-3.80619e-07
-7.06753e-07
-4.48275e-07
-6.37072e-07
-5.15861e-07
-5.5564e-07
-5.81751e-07
-4.62725e-07
-6.4404e-07
-3.59057e-07
-7.00613e-07
-2.45866e-07
-7.49244e-07
-1.24898e-07
-7.87746e-07
1.58285e-09
-8.14143e-07
1.31108e-07
-8.27233e-07
2.60646e-07
-8.25628e-07
3.87269e-07
-8.09464e-07
5.08155e-07
-7.79277e-07
6.20804e-07
-7.36319e-07
7.23171e-07
-6.82406e-07
8.13779e-07
-6.1973e-07
8.91716e-07
-5.50667e-07
9.56617e-07
-4.77587e-07
1.0086e-06
-4.02698e-07
1.04811e-06
-3.27907e-07
1.07587e-06
-2.54777e-07
1.09282e-06
-1.84562e-07
1.09997e-06
-1.18242e-07
1.09832e-06
-5.64165e-08
1.08876e-06
5.79987e-10
1.07263e-06
5.25591e-08
1.05054e-06
9.92858e-08
1.02364e-06
1.41345e-07
9.9228e-07
1.78625e-07
9.57501e-07
2.11647e-07
9.19537e-07
2.40721e-07
8.78717e-07
2.66272e-07
8.35705e-07
2.88455e-07
7.91037e-07
3.0758e-07
7.45152e-07
3.23836e-07
6.98195e-07
3.37334e-07
6.50206e-07
3.48719e-07
6.01367e-07
3.58745e-07
5.52054e-07
3.67441e-07
5.02482e-07
3.74309e-07
4.52644e-07
3.79578e-07
4.02527e-07
3.84102e-07
3.52298e-07
3.87966e-07
3.02003e-07
3.91042e-07
2.51728e-07
3.93102e-07
2.01265e-07
3.9451e-07
1.50917e-07
3.95972e-07
1.00605e-07
3.96442e-07
5.04896e-08
3.97302e-07
3.97688e-07
-4.7307e-08
4.11191e-07
-9.45135e-08
4.10503e-07
-1.41667e-07
4.09232e-07
-1.8875e-07
4.07277e-07
-2.35732e-07
4.04579e-07
-2.82558e-07
4.01079e-07
-3.29177e-07
3.96715e-07
-3.75524e-07
3.91371e-07
-4.21506e-07
3.84935e-07
-4.67047e-07
3.77326e-07
-5.1205e-07
3.68396e-07
-5.56384e-07
3.57956e-07
-5.9989e-07
3.45828e-07
-6.42373e-07
3.31805e-07
-6.83618e-07
3.1565e-07
-7.23377e-07
2.97118e-07
-7.61366e-07
2.75958e-07
-7.97261e-07
2.51909e-07
-8.30698e-07
2.24721e-07
-8.6128e-07
1.94131e-07
-8.8856e-07
1.5987e-07
-9.11998e-07
1.21715e-07
-9.31042e-07
7.93086e-08
-9.45339e-07
3.27461e-08
-9.5366e-07
-1.93214e-08
-9.55455e-07
-7.57386e-08
-9.49808e-07
-1.37011e-07
-9.35736e-07
-2.03067e-07
-9.12199e-07
-2.73665e-07
-8.78125e-07
-3.48331e-07
-8.32468e-07
-4.26299e-07
-7.7429e-07
-5.06451e-07
-7.02867e-07
-5.87271e-07
-6.17807e-07
-6.66821e-07
-5.19166e-07
-7.42747e-07
-4.07563e-07
-8.12353e-07
-2.8426e-07
-8.72731e-07
-1.51208e-07
-9.2099e-07
-1.09785e-08
-9.54543e-07
1.3277e-07
-9.71117e-07
2.7686e-07
-9.6983e-07
4.17485e-07
-9.50205e-07
5.51107e-07
-9.13022e-07
6.74675e-07
-8.60003e-07
7.85766e-07
-7.9363e-07
8.82723e-07
-7.16856e-07
9.64659e-07
-6.32811e-07
1.03136e-06
-5.44543e-07
1.08322e-06
-4.54811e-07
1.12105e-06
-3.65953e-07
1.1459e-06
-2.79835e-07
1.15899e-06
-1.97859e-07
1.16166e-06
-1.21052e-07
1.15521e-06
-5.00314e-08
1.14071e-06
1.50261e-08
1.11953e-06
7.36983e-08
1.09264e-06
1.25975e-07
1.06117e-06
1.72797e-07
1.02551e-06
2.14137e-07
9.86593e-07
2.50524e-07
9.44805e-07
2.82521e-07
9.00643e-07
3.10532e-07
8.54633e-07
3.34547e-07
8.07284e-07
3.54824e-07
7.59036e-07
3.71916e-07
7.09893e-07
3.86324e-07
6.59859e-07
3.98597e-07
6.0929e-07
4.09132e-07
5.58642e-07
4.17931e-07
5.07974e-07
4.2482e-07
4.57067e-07
4.30319e-07
4.05984e-07
4.35037e-07
3.55035e-07
4.38816e-07
3.04202e-07
4.41903e-07
2.53574e-07
4.43665e-07
2.02471e-07
4.45694e-07
1.51992e-07
4.46448e-07
1.01061e-07
4.47401e-07
5.07889e-08
4.47538e-07
4.48468e-07
-4.79141e-08
4.59055e-07
-9.5644e-08
4.58184e-07
-1.43399e-07
4.56927e-07
-1.91163e-07
4.54931e-07
-2.3892e-07
4.52167e-07
-2.86615e-07
4.48558e-07
-3.34211e-07
4.4407e-07
-3.81673e-07
4.38595e-07
-4.28916e-07
4.31961e-07
-4.75857e-07
4.24084e-07
-5.22408e-07
4.14793e-07
-5.68465e-07
4.03872e-07
-6.1389e-07
3.91104e-07
-6.58501e-07
3.76241e-07
-7.02098e-07
3.59042e-07
-7.44451e-07
3.39245e-07
-7.85292e-07
3.16578e-07
-8.24314e-07
2.90743e-07
-8.61167e-07
2.61438e-07
-8.95464e-07
2.28344e-07
-9.26748e-07
1.91103e-07
-9.54479e-07
1.49408e-07
-9.78181e-07
1.02969e-07
-9.96931e-07
5.14525e-08
-1.0102e-06
-6.09221e-09
-1.01687e-06
-6.90797e-08
-1.01599e-06
-1.37897e-07
-1.00642e-06
-2.12645e-07
-9.86896e-07
-2.93201e-07
-9.56063e-07
-3.7918e-07
-9.12533e-07
-4.69848e-07
-8.54978e-07
-5.64034e-07
-7.82259e-07
-6.60044e-07
-6.93572e-07
-7.55599e-07
-5.88624e-07
-8.47814e-07
-4.6782e-07
-9.33273e-07
-3.32428e-07
-1.00821e-06
-1.84692e-07
-1.06877e-06
-2.78646e-08
-1.11141e-06
1.34096e-07
-1.13314e-06
2.96521e-07
-1.13234e-06
4.5469e-07
-1.10847e-06
6.04118e-07
-1.06257e-06
7.41005e-07
-9.97017e-07
8.62463e-07
-9.15236e-07
9.6665e-07
-8.21238e-07
1.05278e-06
-7.19159e-07
1.12093e-06
-6.12928e-07
1.1719e-06
-5.06012e-07
1.20694e-06
-4.01232e-07
1.22765e-06
-3.00732e-07
1.23562e-06
-2.06041e-07
1.23256e-06
-1.18165e-07
1.21999e-06
-3.7661e-08
1.19947e-06
3.54995e-08
1.17225e-06
1.00803e-07
1.13982e-06
1.58482e-07
1.10279e-06
2.09715e-07
1.0621e-06
2.54827e-07
1.0185e-06
2.94178e-07
9.72361e-07
3.28512e-07
9.24343e-07
3.58419e-07
8.74953e-07
3.8385e-07
8.24623e-07
4.05015e-07
7.73687e-07
4.22726e-07
7.22092e-07
4.37822e-07
6.69894e-07
4.50666e-07
6.1755e-07
4.61292e-07
5.65457e-07
4.69828e-07
5.1352e-07
4.76558e-07
4.61462e-07
4.82158e-07
4.09487e-07
4.86774e-07
3.578e-07
4.90349e-07
3.06385e-07
4.93161e-07
2.55267e-07
4.94668e-07
2.03772e-07
4.97115e-07
1.53103e-07
4.97049e-07
1.01621e-07
4.98787e-07
5.10684e-08
4.98023e-07
4.99472e-07
-4.84919e-08
5.07527e-07
-9.67958e-08
5.06451e-07
-1.45188e-07
5.05238e-07
-1.93662e-07
5.0324e-07
-2.42234e-07
5.0049e-07
-2.90858e-07
4.96873e-07
-3.39481e-07
4.92361e-07
-3.88092e-07
4.86891e-07
-4.36654e-07
4.80247e-07
-4.85082e-07
4.7228e-07
-5.33287e-07
4.62797e-07
-5.81196e-07
4.5159e-07
-6.28687e-07
4.38396e-07
-6.7561e-07
4.22951e-07
-7.21781e-07
4.04995e-07
-7.66989e-07
3.84252e-07
-8.1099e-07
3.60414e-07
-8.53505e-07
3.33134e-07
-8.94208e-07
3.02047e-07
-9.32712e-07
2.66758e-07
-9.68552e-07
2.26836e-07
-1.00119e-06
1.81921e-07
-1.03007e-06
1.31711e-07
-1.05426e-06
7.55366e-08
-1.07326e-06
1.28525e-08
-1.08579e-06
-5.6565e-08
-1.0908e-06
-1.32864e-07
-1.08698e-06
-2.16432e-07
-1.07283e-06
-3.0734e-07
-1.04664e-06
-4.05378e-07
-1.0066e-06
-5.09939e-07
-9.50851e-07
-6.19875e-07
-8.77675e-07
-7.33351e-07
-7.85662e-07
-8.47742e-07
-6.73984e-07
-9.59577e-07
-5.42686e-07
-1.06459e-06
-3.92952e-07
-1.15792e-06
-2.27301e-07
-1.2344e-06
-4.96484e-08
-1.28909e-06
1.34929e-07
-1.31779e-06
3.20423e-07
-1.31791e-06
5.00621e-07
-1.28875e-06
6.69673e-07
-1.23174e-06
8.22753e-07
-1.15024e-06
9.56404e-07
-1.04903e-06
1.06864e-06
-9.33622e-07
1.15888e-06
-8.09565e-07
1.2277e-06
-6.81939e-07
1.27651e-06
-5.55047e-07
1.30723e-06
-4.3222e-07
1.3221e-06
-3.15811e-07
1.32331e-06
-2.07391e-07
1.31295e-06
-1.07881e-07
1.29286e-06
-1.77173e-08
1.26484e-06
6.34321e-08
1.23066e-06
1.34656e-07
1.19141e-06
1.97663e-07
1.14812e-06
2.52757e-07
1.10167e-06
3.01089e-07
1.05263e-06
3.43086e-07
1.00167e-06
3.79376e-07
9.49458e-07
4.1062e-07
8.96374e-07
4.36898e-07
8.42762e-07
4.58553e-07
7.88814e-07
4.76579e-07
7.34532e-07
4.91996e-07
6.80076e-07
5.04929e-07
6.25942e-07
5.15193e-07
5.72336e-07
5.2319e-07
5.18962e-07
5.29666e-07
4.65717e-07
5.35117e-07
4.12864e-07
5.39341e-07
3.60465e-07
5.42599e-07
3.08472e-07
5.44859e-07
2.56683e-07
5.46343e-07
2.05118e-07
5.48483e-07
1.53914e-07
5.48195e-07
1.02362e-07
5.50181e-07
5.12355e-08
5.49051e-07
5.50628e-07
-4.90209e-08
5.56551e-07
-9.79508e-08
5.55298e-07
-1.47025e-07
5.54164e-07
-1.96231e-07
5.52199e-07
-2.45623e-07
5.49551e-07
-2.95191e-07
5.46065e-07
-3.44869e-07
5.41664e-07
-3.94643e-07
5.36322e-07
-4.44538e-07
5.29842e-07
-4.94497e-07
5.21974e-07
-5.44451e-07
5.12505e-07
-5.94324e-07
5.01221e-07
-6.44024e-07
4.87857e-07
-6.93429e-07
4.72137e-07
-7.42384e-07
4.53772e-07
-7.90708e-07
4.32451e-07
-8.38186e-07
4.07812e-07
-8.84568e-07
3.79452e-07
-9.29545e-07
3.46934e-07
-9.7273e-07
3.09801e-07
-1.01367e-06
2.67578e-07
-1.05178e-06
2.19819e-07
-1.08638e-06
1.66116e-07
-1.1169e-06
1.05939e-07
-1.14253e-06
3.84332e-08
-1.16205e-06
-3.70231e-08
-1.17431e-06
-1.20562e-07
-1.17781e-06
-2.12883e-07
-1.17078e-06
-3.1436e-07
-1.15111e-06
-4.25083e-07
-1.11644e-06
-5.44702e-07
-1.06425e-06
-6.72209e-07
-9.92004e-07
-8.05731e-07
-8.97453e-07
-9.42364e-07
-7.78978e-07
-1.07804e-06
-6.36007e-07
-1.20752e-06
-4.69438e-07
-1.32447e-06
-2.81979e-07
-1.42187e-06
-7.83563e-08
-1.49274e-06
1.34832e-07
-1.53104e-06
3.49622e-07
-1.53278e-06
5.57665e-07
-1.49687e-06
7.51185e-07
-1.42537e-06
9.23942e-07
-1.32313e-06
1.07178e-06
-1.19697e-06
1.19264e-06
-1.05457e-06
1.28641e-06
-9.03452e-07
1.35446e-06
-7.50143e-07
1.39918e-06
-5.99891e-07
1.42344e-06
-4.56584e-07
1.43026e-06
-3.22764e-07
1.42257e-06
-1.99858e-07
1.40293e-06
-8.84681e-08
1.37364e-06
1.13951e-08
1.33653e-06
1.00318e-07
1.29407e-06
1.77028e-07
1.24704e-06
2.44511e-07
1.19658e-06
3.03073e-07
1.14361e-06
3.54052e-07
1.08863e-06
3.97964e-07
1.03237e-06
4.35544e-07
9.75567e-07
4.67429e-07
9.18441e-07
4.93946e-07
8.61237e-07
5.15652e-07
8.04023e-07
5.33613e-07
7.46937e-07
5.48881e-07
6.90197e-07
5.61379e-07
6.34225e-07
5.70909e-07
5.79005e-07
5.78226e-07
5.24121e-07
5.84315e-07
4.69712e-07
5.89208e-07
4.15979e-07
5.92807e-07
3.62861e-07
5.95605e-07
3.10304e-07
5.97139e-07
2.57787e-07
5.98749e-07
2.06305e-07
5.99761e-07
1.54292e-07
6.00064e-07
1.03128e-07
6.01213e-07
5.12979e-08
6.00709e-07
6.01863e-07
-4.95103e-08
6.06049e-07
-9.90947e-08
6.04686e-07
-1.48885e-07
6.03695e-07
-1.98833e-07
6.01806e-07
-2.49005e-07
5.99333e-07
-2.99485e-07
5.96153e-07
-3.50212e-07
5.9203e-07
-4.0116e-07
5.86952e-07
-4.52379e-07
5.80772e-07
-5.03881e-07
5.73195e-07
-5.55635e-07
5.63973e-07
-6.07571e-07
5.52874e-07
-6.59609e-07
5.39643e-07
-7.11658e-07
5.23994e-07
-7.63603e-07
5.05604e-07
-8.15299e-07
4.841e-07
-8.66567e-07
4.59057e-07
-9.17176e-07
4.30009e-07
-9.6682e-07
3.96454e-07
-1.01511e-06
3.57889e-07
-1.06157e-06
3.1379e-07
-1.10567e-06
2.63688e-07
-1.14683e-06
2.0711e-07
-1.1843e-06
1.43324e-07
-1.21757e-06
7.1684e-08
-1.24542e-06
-9.13041e-09
-1.26649e-06
-9.94443e-08
-1.27918e-06
-2.00165e-07
-1.28142e-06
-3.12133e-07
-1.27068e-06
-4.35898e-07
-1.24393e-06
-5.7156e-07
-1.19777e-06
-7.18458e-07
-1.12865e-06
-8.74887e-07
-1.03316e-06
-1.03783e-06
-9.08485e-07
-1.20267e-06
-7.52981e-07
-1.363e-06
-5.66856e-07
-1.51062e-06
-3.52835e-07
-1.63593e-06
-1.16623e-07
-1.72896e-06
1.33124e-07
-1.7808e-06
3.85563e-07
-1.78529e-06
6.29189e-07
-1.74057e-06
8.53433e-07
-1.64967e-06
1.05009e-06
-1.51987e-06
1.21414e-06
-1.36111e-06
1.34374e-06
-1.18423e-06
1.43967e-06
-9.99425e-07
1.5046e-06
-8.15154e-07
1.54232e-06
-6.37742e-07
1.55703e-06
-4.71457e-07
1.55286e-06
-3.18767e-07
1.53363e-06
-1.80696e-07
1.5024e-06
-5.74182e-08
1.46165e-06
5.21816e-08
1.41429e-06
1.47318e-07
1.36205e-06
2.29204e-07
1.30611e-06
3.00286e-07
1.24754e-06
3.61503e-07
1.18732e-06
4.1426e-07
1.12587e-06
4.59355e-07
1.06392e-06
4.9742e-07
1.00212e-06
5.29167e-07
9.40604e-07
5.55276e-07
8.7955e-07
5.76571e-07
8.18914e-07
5.94056e-07
7.58964e-07
6.08659e-07
6.99974e-07
6.20133e-07
6.4213e-07
6.2854e-07
5.85151e-07
6.35106e-07
5.28769e-07
6.40543e-07
4.73213e-07
6.44462e-07
4.18637e-07
6.4716e-07
3.64822e-07
6.49291e-07
3.11685e-07
6.50101e-07
2.58609e-07
6.51636e-07
2.07036e-07
6.5118e-07
1.54445e-07
6.52342e-07
1.03517e-07
6.51961e-07
5.13786e-08
6.52639e-07
6.53131e-07
-4.99843e-08
6.55957e-07
-1.00206e-07
6.5455e-07
-1.50692e-07
6.53798e-07
-2.01393e-07
6.52096e-07
-2.52296e-07
6.4984e-07
-3.03593e-07
6.47107e-07
-3.55306e-07
6.43456e-07
-4.07418e-07
6.38811e-07
-4.59963e-07
6.3306e-07
-5.13011e-07
6.25959e-07
-5.66581e-07
6.17234e-07
-6.20636e-07
6.0663e-07
-6.75118e-07
5.93884e-07
-7.29964e-07
5.78689e-07
-7.85096e-07
5.60673e-07
-8.40408e-07
5.39398e-07
-8.95751e-07
5.14377e-07
-9.50905e-07
4.85081e-07
-1.00556e-06
4.50956e-07
-1.05932e-06
4.11446e-07
-1.11174e-06
3.66e-07
-1.16233e-06
3.14122e-07
-1.21061e-06
2.553e-07
-1.25597e-06
1.88646e-07
-1.29784e-06
1.13571e-07
-1.33545e-06
2.85058e-08
-1.36704e-06
-6.78357e-08
-1.39104e-06
-1.76175e-07
-1.40513e-06
-2.98088e-07
-1.40633e-06
-4.34771e-07
-1.39084e-06
-5.87081e-07
-1.35424e-06
-7.55036e-07
-1.29163e-06
-9.37414e-07
-1.19804e-06
-1.13135e-06
-1.06884e-06
-1.33185e-06
-9.00594e-07
-1.53126e-06
-6.92133e-07
-1.71908e-06
-4.45806e-07
-1.88223e-06
-1.68393e-07
-2.00633e-06
1.28669e-07
-2.07786e-06
4.30284e-07
-2.08697e-06
7.20068e-07
-2.03046e-06
9.83217e-07
-1.9129e-06
1.20882e-06
-1.74556e-06
1.39097e-06
-1.54339e-06
1.5285e-06
-1.3219e-06
1.62389e-06
-1.09493e-06
1.68189e-06
-8.73271e-07
1.70839e-06
-6.64395e-07
1.70943e-06
-4.72697e-07
1.69057e-06
-3.00119e-07
1.65651e-06
-1.46767e-07
1.61082e-06
-1.19833e-08
1.55653e-06
1.06339e-07
1.49726e-06
2.06429e-07
1.43385e-06
2.92397e-07
1.36778e-06
3.66182e-07
1.30027e-06
4.28982e-07
1.23204e-06
4.82422e-07
1.16364e-06
5.2767e-07
1.09562e-06
5.65384e-07
1.02844e-06
5.96269e-07
9.62226e-07
6.21367e-07
8.9713e-07
6.41651e-07
8.33076e-07
6.58047e-07
7.70251e-07
6.71391e-07
7.08964e-07
6.81275e-07
6.49169e-07
6.88133e-07
5.9038e-07
6.93725e-07
5.32589e-07
6.98149e-07
4.75986e-07
7.0079e-07
4.2062e-07
7.02352e-07
3.66203e-07
7.03499e-07
3.12453e-07
7.03728e-07
2.59133e-07
7.0467e-07
2.07072e-07
7.03079e-07
1.54562e-07
7.0452e-07
1.03258e-07
7.02972e-07
5.1428e-08
7.04307e-07
7.04425e-07
-5.04609e-08
7.06239e-07
-1.01268e-07
7.04844e-07
-1.52333e-07
7.0439e-07
-2.03751e-07
7.03088e-07
-2.55369e-07
7.01118e-07
-3.07376e-07
6.98868e-07
-3.59961e-07
6.95857e-07
-4.13171e-07
6.91843e-07
-4.67038e-07
6.86709e-07
-5.21635e-07
6.80281e-07
-5.77023e-07
6.72317e-07
-6.33222e-07
6.62543e-07
-6.90216e-07
6.50662e-07
-7.47978e-07
6.36323e-07
-8.06464e-07
6.19098e-07
-8.656e-07
5.98497e-07
-9.25257e-07
5.73975e-07
-9.85225e-07
5.4495e-07
-1.0452e-06
5.10809e-07
-1.10481e-06
4.70933e-07
-1.16362e-06
4.24723e-07
-1.22115e-06
3.71607e-07
-1.27709e-06
3.1122e-07
-1.33108e-06
2.42633e-07
-1.38267e-06
1.6516e-07
-1.43121e-06
7.70249e-08
-1.47522e-06
-2.38471e-08
-1.51287e-06
-1.38573e-07
-1.54177e-06
-2.69228e-07
-1.55862e-06
-4.17922e-07
-1.55878e-06
-5.86836e-07
-1.5366e-06
-7.77099e-07
-1.48556e-06
-9.88367e-07
-1.39852e-06
-1.21838e-06
-1.26821e-06
-1.46216e-06
-1.08832e-06
-1.71111e-06
-8.55164e-07
-1.95214e-06
-5.69766e-07
-2.16756e-06
-2.39789e-07
-2.33629e-06
1.1958e-07
-2.43724e-06
4.86772e-07
-2.45424e-06
8.37539e-07
-2.3814e-06
1.15045e-06
-2.22602e-06
1.41088e-06
-2.00615e-06
1.61232e-06
-1.74495e-06
1.75536e-06
-1.46506e-06
1.84543e-06
-1.18518e-06
1.8906e-06
-9.18681e-07
1.89985e-06
-6.7386e-07
1.88172e-06
-4.54771e-07
1.84356e-06
-2.62131e-07
1.79083e-06
-9.42361e-08
1.72761e-06
5.11752e-08
1.65747e-06
1.76096e-07
1.58415e-06
2.79717e-07
1.50808e-06
3.68349e-07
1.43085e-06
4.43287e-07
1.35372e-06
5.06114e-07
1.27694e-06
5.59147e-07
1.20113e-06
6.03492e-07
1.12668e-06
6.39869e-07
1.05387e-06
6.69089e-07
9.82695e-07
6.92553e-07
9.1331e-07
7.11093e-07