/*--------------------------------*- C++ -*----------------------------------*\
| =========                 |                                                 |
| \\      /  F ield         | OpenFOAM: The Open Source CFD Toolbox           |
|  \\    /   O peration     | Version:  2412                                  |
|   \\  /    A nd           | Website:  www.openfoam.com                      |
|    \\/     M anipulation  |                                                 |
\*---------------------------------------------------------------------------*/
FoamFile
{
    version     2.0;
    format      ascii;
    arch        "LSB;label=32;scalar=64";
    class       surfaceScalarField;
    location    "5.75";
    object      phi;
}
// * * * * * * * * * * * * * * * * * * * * * * * * * * * * * * * * * * * * * //

dimensions      [0 3 -1 0 0 0 0];

oriented        oriented;

internalField   nonuniform List<scalar> 
12640
(
-6.08938e-10
6.08255e-10
7.29768e-09
-7.06274e-09
2.36909e-08
-1.56249e-08
4.68551e-08
-2.24831e-08
7.51109e-08
-2.76342e-08
1.07279e-07
-3.1607e-08
1.42743e-07
-3.49646e-08
1.8136e-07
-3.81749e-08
2.23324e-07
-4.15767e-08
2.69048e-07
-4.53864e-08
3.19057e-07
-4.97177e-08
3.7391e-07
-5.46034e-08
4.34136e-07
-6.00123e-08
5.00183e-07
-6.58624e-08
5.72372e-07
-7.20283e-08
6.50862e-07
-7.83461e-08
7.35607e-07
-8.46135e-08
8.26319e-07
-9.05899e-08
9.22426e-07
-9.59925e-08
1.02303e-06
-1.00496e-07
1.12686e-06
-1.03731e-07
1.23224e-06
-1.05285e-07
1.33704e-06
-1.04706e-07
1.43863e-06
-1.01515e-07
1.53391e-06
-9.52205e-08
1.61931e-06
-8.53437e-08
1.6908e-06
-7.14523e-08
1.74402e-06
-5.3211e-08
1.77445e-06
-3.04306e-08
1.77756e-06
-3.14091e-09
1.74915e-06
2.83554e-08
1.68566e-06
6.34138e-08
1.58452e-06
1.01026e-07
1.44458e-06
1.39806e-07
1.26636e-06
1.78051e-07
1.05234e-06
2.13828e-07
8.06998e-07
2.45136e-07
5.36704e-07
2.7007e-07
2.49437e-07
2.87032e-07
-4.56973e-08
2.94888e-07
-3.39059e-07
2.93109e-07
-6.21139e-07
2.81817e-07
-8.83195e-07
2.61787e-07
-1.11781e-06
2.34342e-07
-1.3193e-06
2.01222e-07
-1.48394e-06
1.64383e-07
-1.60999e-06
1.25819e-07
-1.69756e-06
8.73802e-08
-1.74836e-06
5.06571e-08
-1.76536e-06
1.68847e-08
-1.75239e-06
-1.3067e-08
-1.71379e-06
-3.86915e-08
-1.65411e-06
-5.9779e-08
-1.57783e-06
-7.6386e-08
-1.48918e-06
-8.87591e-08
-1.39201e-06
-9.72712e-08
-1.28973e-06
-1.02365e-07
-1.18525e-06
-1.04528e-07
-1.08103e-06
-1.04247e-07
-9.79018e-07
-1.01998e-07
-8.80769e-07
-9.82161e-08
-7.87427e-07
-9.32938e-08
-6.99787e-07
-8.75803e-08
-6.18327e-07
-8.13896e-08
-5.43251e-07
-7.49911e-08
-4.74532e-07
-6.86163e-08
-4.11949e-07
-6.24561e-08
-3.55124e-07
-5.66682e-08
-3.03558e-07
-5.1373e-08
-2.56671e-07
-4.66525e-08
-2.13852e-07
-4.25375e-08
-1.7452e-07
-3.89964e-08
-1.38213e-07
-3.59152e-08
-1.04682e-07
-3.30777e-08
-7.40232e-08
-3.01422e-08
-4.68101e-08
-2.66333e-08
-2.42056e-08
-2.19651e-08
-7.96668e-09
-1.55499e-08
-1.27718e-11
-7.23943e-09
6.13352e-10
7.99765e-09
-6.73034e-09
3.53429e-08
-3.29808e-08
8.07055e-08
-5.96499e-08
1.41181e-07
-8.16951e-08
2.13899e-07
-9.91221e-08
2.96816e-07
-1.13329e-07
3.88914e-07
-1.25908e-07
4.90089e-07
-1.38242e-07
6.00934e-07
-1.51367e-07
7.22503e-07
-1.65959e-07
8.56094e-07
-1.82376e-07
1.00307e-06
-2.00709e-07
1.16468e-06
-2.20831e-07
1.34198e-06
-2.42431e-07
1.53565e-06
-2.65043e-07
1.74595e-06
-2.88054e-07
1.97258e-06
-3.10713e-07
2.21457e-06
-3.32124e-07
2.4702e-06
-3.51246e-07
2.7369e-06
-3.66885e-07
3.01111e-06
-3.77696e-07
3.28818e-06
-3.82193e-07
3.56232e-06
-3.78769e-07
3.82655e-06
-3.6573e-07
4.07262e-06
-3.41366e-07
4.29116e-06
-3.04031e-07
4.47175e-06
-2.52274e-07
4.60323e-06
-1.84999e-07
4.67408e-06
-1.01657e-07
4.67295e-06
-2.46314e-09
4.5894e-06
1.1138e-07
4.41472e-06
2.37507e-07
4.14284e-06
3.72264e-07
3.77121e-06
5.10733e-07
3.30164e-06
6.46887e-07
2.74074e-06
7.73957e-07
2.10014e-06
8.84928e-07
1.39621e-06
9.73187e-07
6.49238e-07
1.03316e-06
-1.17647e-07
1.06093e-06
-8.80029e-07
1.05464e-06
-1.6138e-06
1.01473e-06
-2.29675e-06
9.43888e-07
-2.90996e-06
8.46714e-07
-3.43879e-06
7.29243e-07
-3.87348e-06
5.98309e-07
-4.20924e-06
4.60875e-07
-4.44595e-06
3.23461e-07
-4.58753e-06
1.91684e-07
-4.64111e-06
6.99867e-08
-4.61612e-06
-3.84772e-08
-4.52338e-06
-1.31787e-07
-4.37437e-06
-2.09114e-07
-4.18049e-06
-2.70525e-07
-3.95266e-06
-3.16797e-07
-3.70089e-06
-3.49162e-07
-3.43414e-06
-3.69144e-07
-3.1602e-06
-3.78406e-07
-2.88562e-06
-3.7866e-07
-2.61579e-06
-3.7157e-07
-2.35498e-06
-3.58697e-07
-2.1064e-06
-3.41458e-07
-1.87236e-06
-3.21135e-07
-1.65434e-06
-2.9887e-07
-1.45305e-06
-2.75666e-07
-1.26861e-06
-2.52383e-07
-1.10058e-06
-2.29744e-07
-9.48113e-07
-2.08334e-07
-8.10019e-07
-1.88604e-07
-6.84893e-07
-1.70857e-07
-5.71239e-07
-1.55216e-07
-4.67623e-07
-1.41587e-07
-3.72856e-07
-1.29612e-07
-2.86219e-07
-1.18604e-07
-2.07704e-07
-1.07512e-07
-1.38245e-07
-9.49151e-08
-7.98572e-08
-7.91418e-08
-3.55156e-08
-5.86423e-08
-8.36142e-09
-3.3147e-08
-7.2238e-09
1.73103e-08
-2.33881e-08
6.34554e-08
-7.77648e-08
1.33477e-07
-1.28395e-07
2.23509e-07
-1.70531e-07
3.30439e-07
-2.04899e-07
4.52255e-07
-2.34038e-07
5.88167e-07
-2.60762e-07
7.38454e-07
-2.87525e-07
9.04218e-07
-3.16182e-07
1.0871e-06
-3.47947e-07
1.28899e-06
-3.83447e-07
1.51185e-06
-4.228e-07
1.75742e-06
-4.65701e-07
2.02709e-06
-5.11475e-07
2.32174e-06
-5.59126e-07
2.64155e-06
-6.07358e-07
2.98586e-06
-6.54582e-07
3.35303e-06
-6.98915e-07
3.74028e-06
-7.38173e-07
4.14352e-06
-7.69867e-07
4.55722e-06
-7.91203e-07
4.97427e-06
-7.99114e-07
5.38587e-06
-7.90294e-07
5.78142e-06
-7.6129e-07
6.14861e-06
-7.08622e-07
6.47341e-06
-6.28974e-07
6.74037e-06
-5.19444e-07
6.93296e-06
-3.77867e-07
7.03416e-06
-2.03209e-07
7.02728e-06
3.99309e-09
6.89698e-06
2.41196e-07
6.63048e-06
5.03465e-07
6.21889e-06
7.83249e-07
5.65858e-06
1.07039e-06
4.95229e-06
1.35249e-06
4.10995e-06
1.61558e-06
3.1489e-06
1.84524e-06
2.09352e-06
2.02782e-06
9.74069e-07
2.15187e-06
-1.75032e-07
2.2093e-06
-1.3174e-06
2.1963e-06
-2.41712e-06
2.11377e-06
-3.44112e-06
1.96723e-06
-4.36121e-06
1.76616e-06
-5.15559e-06
1.523e-06
-5.80969e-06
1.25181e-06
-6.31632e-06
9.66951e-07
-6.67521e-06
6.8186e-07
-6.89207e-06
4.08125e-07
-6.97732e-06
1.5491e-07
-6.9448e-06
-7.12415e-08
-6.81043e-06
-2.6633e-07
-6.5911e-06
-4.28574e-07
-6.30368e-06
-5.5804e-07
-5.96434e-06
-6.56207e-07
-5.58801e-06
-7.25533e-07
-5.18809e-06
-7.69069e-07
-4.77627e-06
-7.9018e-07
-4.3625e-06
-7.92329e-07
-3.95498e-06
-7.78921e-07
-3.56028e-06
-7.53163e-07
-3.18343e-06
-7.18008e-07
-2.82809e-06
-6.7612e-07
-2.49666e-06
-6.29889e-07
-2.19044e-06
-5.81417e-07
-1.90977e-06
-5.32518e-07
-1.65421e-06
-4.8472e-07
-1.42263e-06
-4.39266e-07
-1.2134e-06
-3.97117e-07
-1.02455e-06
-3.58925e-07
-8.53938e-07
-3.24985e-07
-6.99451e-07
-2.95171e-07
-5.59255e-07
-2.68845e-07
-4.32071e-07
-2.44771e-07
-3.17464e-07
-2.21052e-07
-2.16114e-07
-1.95153e-07
-1.29992e-07
-1.64111e-07
-6.23119e-08
-1.2513e-07
-1.72024e-08
-7.70727e-08
-2.39271e-08
2.44035e-08
-4.71329e-08
8.52264e-08
-1.37241e-07
1.74049e-07
-2.15937e-07
2.85901e-07
-2.81182e-07
4.17674e-07
-3.35516e-07
5.67797e-07
-3.83056e-07
7.36077e-07
-4.27991e-07
9.23429e-07
-4.73882e-07
1.13157e-06
-5.23384e-07
1.36271e-06
-5.78205e-07
1.61926e-06
-6.39173e-07
1.90358e-06
-7.06352e-07
2.21772e-06
-7.79148e-07
2.56326e-06
-8.56393e-07
2.9411e-06
-9.36402e-07
3.35125e-06
-1.017e-06
3.79265e-06
-1.09556e-06
4.26304e-06
-1.16893e-06
4.75868e-06
-1.23351e-06
5.27426e-06
-1.28519e-06
5.80263e-06
-1.31939e-06
6.3347e-06
-1.33106e-06
6.85929e-06
-1.31482e-06
7.36302e-06
-1.26503e-06
7.83034e-06
-1.17602e-06
8.24362e-06
-1.0424e-06
8.58341e-06
-8.59451e-07
8.82888e-06
-6.23634e-07
8.95855e-06
-3.33248e-07
8.95124e-06
1.08678e-08
8.78734e-06
4.04592e-07
8.45035e-06
8.3988e-07
7.92862e-06
1.30435e-06
7.21708e-06
1.78125e-06
6.31879e-06
2.25005e-06
5.24606e-06
2.68753e-06
4.02084e-06
3.06964e-06
2.67427e-06
3.37358e-06
1.24518e-06
3.58015e-06
-2.22093e-07
3.67579e-06
-1.68065e-06
3.65412e-06
-3.08422e-06
3.51665e-06
-4.39024e-06
3.27261e-06
-5.56261e-06
2.93792e-06
-6.57356e-06
2.53336e-06
-7.4048e-06
2.08247e-06
-8.04755e-06
1.60915e-06
-8.50193e-06
1.13574e-06
-8.7756e-06
6.81374e-07
-8.88215e-06
2.61153e-07
-8.83934e-06
-1.14233e-07
-8.66747e-06
-4.3828e-07
-8.38789e-06
-7.08144e-07
-8.02192e-06
-9.2396e-07
-7.58991e-06
-1.08815e-06
-7.11066e-06
-1.20471e-06
-6.60105e-06
-1.2786e-06
-6.07582e-06
-1.31531e-06
-5.54758e-06
-1.32045e-06
-5.02676e-06
-1.29956e-06
-4.52178e-06
-1.25791e-06
-4.03917e-06
-1.20033e-06
-3.58371e-06
-1.13124e-06
-3.15864e-06
-1.05457e-06
-2.7658e-06
-9.73811e-07
-2.40585e-06
-8.91965e-07
-2.07844e-06
-8.11583e-07
-1.78234e-06
-7.34752e-07
-1.5157e-06
-6.63096e-07
-1.27615e-06
-5.97743e-07
-1.06108e-06
-5.39266e-07
-8.67809e-07
-4.87583e-07
-6.93896e-07
-4.41841e-07
-5.37399e-07
-4.00293e-07
-3.97211e-07
-3.60209e-07
-2.73383e-07
-3.17898e-07
-1.67419e-07
-2.68947e-07
-8.25034e-08
-2.0888e-07
-2.38121e-08
-1.34605e-07
-4.72139e-08
2.88899e-08
-7.53141e-08
9.90939e-08
-2.06079e-07
1.99871e-07
-3.15397e-07
3.25488e-07
-4.05559e-07
4.73067e-07
-4.81903e-07
6.41723e-07
-5.50572e-07
8.32076e-07
-6.17259e-07
1.04582e-06
-6.86596e-07
1.28534e-06
-7.61929e-07
1.55339e-06
-8.45323e-07
1.85278e-06
-9.37678e-07
2.18612e-06
-1.03887e-06
2.55565e-06
-1.14791e-06
2.96296e-06
-1.263e-06
3.40884e-06
-1.38164e-06
3.89306e-06
-1.50065e-06
4.41419e-06
-1.61617e-06
4.96937e-06
-1.72366e-06
5.55412e-06
-1.81787e-06
6.16212e-06
-1.89287e-06
6.78503e-06
-1.94204e-06
7.41227e-06
-1.95811e-06
8.03088e-06
-1.93331e-06
8.62542e-06
-1.85952e-06
9.17795e-06
-1.72857e-06
9.66808e-06
-1.53264e-06
1.00733e-05
-1.26481e-06
1.03692e-05
-9.19825e-07
1.05306e-05
-4.94991e-07
1.05322e-05
8.77277e-09
1.03504e-05
5.85827e-07
9.96492e-06
1.22479e-06
9.36074e-06
1.90783e-06
8.53066e-06
2.61055e-06
7.47717e-06
3.30268e-06
6.21401e-06
3.94976e-06
4.76684e-06
4.51581e-06
3.17275e-06
4.96662e-06
1.47856e-06
5.27327e-06
-2.61999e-07
5.41528e-06
-1.99193e-06
5.38303e-06
-3.65502e-06
5.17879e-06
-5.19979e-06
4.81652e-06
-6.58287e-06
4.3202e-06
-7.77141e-06
3.72114e-06
-8.74428e-06
3.0546e-06
-9.49212e-06
2.35626e-06
-1.00163e-05
1.65918e-06
-1.0327e-05
9.91479e-07
-1.04414e-05
3.75051e-07
-1.03811e-05
-1.74795e-07
-1.01706e-05
-6.48962e-07
-9.83506e-06
-1.04367e-06
-9.39951e-06
-1.3594e-06
-8.88764e-06
-1.59986e-06
-8.32123e-06
-1.77093e-06
-7.71979e-06
-1.87985e-06
-7.10034e-06
-1.93454e-06
-6.47744e-06
-1.94311e-06
-5.86321e-06
-1.91352e-06
-5.26745e-06
-1.85334e-06
-4.69782e-06
-1.76958e-06
-4.16003e-06
-1.66861e-06
-3.65799e-06
-1.55613e-06
-3.19408e-06
-1.43719e-06
-2.76929e-06
-1.31618e-06
-2.38344e-06
-1.19681e-06
-2.03536e-06
-1.08215e-06
-1.72311e-06
-9.74615e-07
-1.44413e-06
-8.75933e-07
-1.19548e-06
-7.87069e-07
-9.74046e-07
-7.08112e-07
-7.76797e-07
-6.38126e-07
-6.01084e-07
-5.74985e-07
-4.44983e-07
-5.15235e-07
-3.0769e-07
-4.54067e-07
-1.8998e-07
-3.85492e-07
-9.47457e-08
-3.02922e-07
-2.78206e-08
-2.00356e-07
-7.44541e-08
3.09018e-08
-1.05444e-07
1.05058e-07
-2.7884e-07
2.10708e-07
-4.19684e-07
3.42034e-07
-5.35596e-07
4.9678e-07
-6.35409e-07
6.74999e-07
-7.27605e-07
8.78286e-07
-8.19418e-07
1.10919e-06
-9.16421e-07
1.37074e-06
-1.02246e-06
1.66615e-06
-1.13974e-06
1.9985e-06
-1.26907e-06
2.37052e-06
-1.40998e-06
2.78442e-06
-1.56094e-06
3.24169e-06
-1.71944e-06
3.7429e-06
-1.88208e-06
4.28754e-06
-2.04457e-06
4.87377e-06
-2.20175e-06
5.49825e-06
-2.34755e-06
6.15592e-06
-2.47501e-06
6.83973e-06
-2.57623e-06
7.54051e-06
-2.64241e-06
8.24668e-06
-2.66394e-06
8.9441e-06
-2.63048e-06
9.61597e-06
-2.53121e-06
1.02427e-05
-2.35519e-06
1.08019e-05
-2.09186e-06
1.12688e-05
-1.73175e-06
1.16162e-05
-1.26741e-06
1.18155e-05
-6.94666e-07
1.18379e-05
-1.40114e-08
1.16554e-05
7.67786e-07
1.12434e-05
1.63617e-06
1.05829e-05
2.56761e-06
9.66334e-06
3.52923e-06
8.48549e-06
4.47951e-06
7.06347e-06
5.37064e-06
5.42584e-06
6.15218e-06
3.61525e-06
6.77583e-06
1.68644e-06
7.2006e-06
-2.97201e-07
7.39741e-06
-2.26822e-06
7.35255e-06
-4.16013e-06
7.06927e-06
-5.91238e-06
6.56744e-06
-7.47452e-06
5.88113e-06
-8.80916e-06
5.05466e-06
-9.89328e-06
4.13764e-06
-1.0718e-05
3.17996e-06
-1.12872e-05
2.22728e-06
-1.16146e-05
1.31793e-06
-1.17217e-05
4.81215e-07
-1.16343e-05
-2.62863e-07
-1.13808e-05
-9.0287e-07
-1.09901e-05
-1.43455e-06
-1.04903e-05
-1.85926e-06
-9.90756e-06
-2.18244e-06
-9.26594e-06
-2.4123e-06
-8.58677e-06
-2.55873e-06
-7.88863e-06
-2.63235e-06
-7.18738e-06
-2.64398e-06
-6.49626e-06
-2.60421e-06
-5.82603e-06
-2.5231e-06
-5.18514e-06
-2.40992e-06
-4.57998e-06
-2.27317e-06
-4.01503e-06
-2.12043e-06
-3.4931e-06
-1.95842e-06
-3.01554e-06
-1.79298e-06
-2.58244e-06
-1.62911e-06
-2.19281e-06
-1.47094e-06
-1.84477e-06
-1.32176e-06
-1.53575e-06
-1.18401e-06
-1.26265e-06
-1.05918e-06
-1.02205e-06
-9.47669e-07
-8.10432e-07
-8.48652e-07
-6.24448e-07
-7.59829e-07
-4.61277e-07
-6.77223e-07
-3.19086e-07
-5.95034e-07
-1.97646e-07
-5.05678e-07
-9.91484e-08
-4.00156e-07
-2.93867e-08
-2.68891e-07
-1.0317e-07
3.0667e-08
-1.35269e-07
1.03591e-07
-3.50337e-07
2.07244e-07
-5.21922e-07
3.36568e-07
-6.63577e-07
4.90471e-07
-7.88016e-07
6.70257e-07
-9.06155e-07
8.78643e-07
-1.02663e-06
1.11904e-06
-1.1557e-06
1.39506e-06
-1.29741e-06
1.71021e-06
-1.45386e-06
2.06766e-06
-1.62551e-06
2.47008e-06
-1.81141e-06
2.91946e-06
-2.00937e-06
3.41704e-06
-2.21609e-06
3.96306e-06
-2.42722e-06
4.55664e-06
-2.63731e-06
5.19558e-06
-2.8399e-06
5.87613e-06
-3.02736e-06
6.59279e-06
-3.19099e-06
7.33808e-06
-3.3209e-06
8.10232e-06
-3.40611e-06
8.8734e-06
-3.43455e-06
9.63659e-06
-3.39327e-06
1.03744e-05
-3.26865e-06
1.10662e-05
-3.0468e-06
1.16886e-05
-2.71415e-06
1.22151e-05
-2.25825e-06
1.26166e-05
-1.66895e-06
1.28616e-05
-9.39883e-07
1.29176e-05
-7.03146e-08
1.27522e-05
9.32682e-07
1.23357e-05
2.052e-06
1.1644e-05
3.25861e-06
1.06617e-05
4.51058e-06
9.38636e-06
5.75375e-06
7.83118e-06
6.92455e-06
6.02687e-06
7.95504e-06
4.02146e-06
8.77962e-06
1.87801e-06
9.34226e-06
-3.29593e-07
9.60311e-06
-2.52236e-06
9.54336e-06
-4.62252e-06
9.16751e-06
-6.55973e-06
8.50286e-06
-8.27631e-06
7.59608e-06
-9.73071e-06
6.50759e-06
-1.0899e-05
5.30459e-06
-1.17743e-05
4.05391e-06
-1.23643e-05
2.81588e-06
-1.26879e-05
1.64013e-06
-1.27716e-05
5.6359e-07
-1.26463e-05
-3.8941e-07
-1.23442e-05
-1.20582e-06
-1.18976e-05
-1.88172e-06
-1.13371e-05
-2.42011e-06
-1.06907e-05
-2.82885e-06
-9.9839e-06
-3.11896e-06
-9.23907e-06
-3.30328e-06
-8.47564e-06
-3.3954e-06
-7.71017e-06
-3.40899e-06
-6.95647e-06
-3.35737e-06
-6.22585e-06
-3.2531e-06
-5.52725e-06
-3.10783e-06
-4.86749e-06
-2.93216e-06
-4.25149e-06
-2.73559e-06
-3.68245e-06
-2.52656e-06
-3.16209e-06
-2.31239e-06
-2.69084e-06
-2.09937e-06
-2.26801e-06
-1.89273e-06
-1.89197e-06
-1.69672e-06
-1.56032e-06
-1.51454e-06
-1.27001e-06
-1.34832e-06
-1.0175e-06
-1.19896e-06
-7.98926e-07
-1.06597e-06
-6.10319e-07
-9.47143e-07
-4.47933e-07
-8.38277e-07
-3.0875e-07
-7.32853e-07
-1.91207e-07
-6.21837e-07
-9.62404e-08
-4.93743e-07
-2.87514e-08
-3.35054e-07
-1.31129e-07
2.83914e-08
-1.62747e-07
9.52304e-08
-4.15713e-07
1.90418e-07
-6.15634e-07
3.10611e-07
-7.82364e-07
4.56528e-07
-9.32579e-07
6.31089e-07
-1.07943e-06
8.38259e-07
-1.2326e-06
1.08226e-06
-1.39858e-06
1.36713e-06
-1.58122e-06
1.69645e-06
-1.78217e-06
2.07323e-06
-2.00131e-06
2.49981e-06
-2.23703e-06
2.97779e-06
-2.48642e-06
3.50796e-06
-2.74535e-06
4.09011e-06
-3.00849e-06
4.72295e-06
-3.26931e-06
5.40389e-06
-3.52003e-06
6.12883e-06
-3.75156e-06
6.892e-06
-3.95348e-06
7.68571e-06
-4.11398e-06
8.5001e-06
-4.21994e-06
9.32296e-06
-4.25693e-06
1.01395e-05
-4.20941e-06
1.09321e-05
-4.06093e-06
1.16801e-05
-3.79458e-06
1.23597e-05
-3.39358e-06
1.29436e-05
-2.84215e-06
1.34014e-05
-2.12681e-06
1.36994e-05
-1.23811e-06
1.38017e-05
-1.72944e-07
1.36714e-05
1.06261e-06
1.32726e-05
2.45013e-06
1.25746e-05
3.95588e-06
1.15555e-05
5.52878e-06
1.02076e-05
7.10061e-06
8.54169e-06
8.58933e-06
6.58964e-06
9.90578e-06
4.40487e-06
1.09629e-05
2.05954e-06
1.16859e-05
-3.60586e-07
1.20214e-05
-2.76331e-06
1.19441e-05
-5.05799e-06
1.14602e-05
-7.16333e-06
1.06063e-05
-9.01392e-06
9.44498e-06
-1.05645e-05
8.0567e-06
-1.17914e-05
6.53023e-06
-1.26915e-05
4.95271e-06
-1.32782e-05
3.4013e-06
-1.35773e-05
1.93778e-06
-1.36216e-05
6.06485e-07
-1.34476e-05
-5.64936e-07
-1.30916e-05
-1.56307e-06
-1.25888e-05
-2.38559e-06
-1.19714e-05
-3.0382e-06
-1.12687e-05
-3.53194e-06
-1.05066e-05
-3.88118e-06
-9.70778e-06
-4.10201e-06
-8.89181e-06
-4.21113e-06
-8.07531e-06
-4.22512e-06
-7.27223e-06
-4.15997e-06
-6.49401e-06
-4.03075e-06
-5.74979e-06
-3.85137e-06
-5.04665e-06
-3.63452e-06
-4.3898e-06
-3.39158e-06
-3.78281e-06
-3.13261e-06
-3.22778e-06
-2.86641e-06
-2.72557e-06
-2.60051e-06
-2.27592e-06
-2.34125e-06
-1.87765e-06
-2.09382e-06
-1.52874e-06
-1.86223e-06
-1.22644e-06
-1.64935e-06
-9.67343e-07
-1.45675e-06
-7.47463e-07
-1.2845e-06
-5.62361e-07
-1.13085e-06
-4.07411e-07
-9.91788e-07
-2.78264e-07
-8.60524e-07
-1.71645e-07
-7.26953e-07
-8.65757e-08
-5.77311e-07
-2.6118e-08
-3.94074e-07
-1.56337e-07
2.41981e-08
-1.85955e-07
8.03554e-08
-4.70368e-07
1.61036e-07
-6.94773e-07
2.65678e-07
-8.85531e-07
3.97546e-07
-1.06303e-06
5.6155e-07
-1.24211e-06
7.62973e-07
-1.4328e-06
1.00671e-06
-1.64121e-06
1.29695e-06
-1.87044e-06
1.63702e-06
-2.12132e-06
2.02944e-06
-2.39289e-06
2.47595e-06
-2.68277e-06
2.97751e-06
-2.98724e-06
3.53424e-06
-3.30139e-06
4.14538e-06
-3.61897e-06
4.80912e-06
-3.93244e-06
5.52247e-06
-4.23282e-06
6.28104e-06
-4.50964e-06
7.0789e-06
-4.75091e-06
7.9083e-06
-4.94304e-06
8.75955e-06
-5.07091e-06
9.62069e-06
-5.11788e-06
1.04774e-05
-5.06596e-06
1.13125e-05
-4.89603e-06
1.21061e-05
-4.58819e-06
1.28347e-05
-4.12238e-06
1.34716e-05
-3.4792e-06
1.39857e-05
-2.64124e-06
1.43422e-05
-1.59496e-06
1.45021e-05
-3.33397e-07
1.44239e-05
1.14025e-06
1.40651e-05
2.80827e-06
1.33865e-05
4.63384e-06
1.23573e-05
6.55728e-06
1.09621e-05
8.49511e-06
9.20706e-06
1.03436e-05
7.12436e-06
1.19879e-05
4.77266e-06
1.3314e-05
2.23435e-06
1.42235e-05
-3.91111e-07
1.4646e-05
-2.99612e-06
1.4548e-05
-5.47504e-06
1.39379e-05
-7.73413e-06
1.28642e-05
-9.69961e-06
1.14094e-05
-1.1323e-05
9.67929e-06
-1.25824e-05
7.78916e-06
-1.34805e-05
5.85052e-06
-1.40394e-05
3.95974e-06
-1.42935e-05
2.19121e-06
-1.42836e-05
5.95617e-07
-1.40519e-05
-7.97855e-07
-1.36388e-05
-1.9774e-06
-1.30816e-05
-2.94399e-06
-1.24135e-05
-3.70731e-06
-1.16637e-05
-4.28245e-06
-1.08578e-05
-4.68758e-06
-1.00178e-05
-4.94227e-06
-9.1627e-06
-5.06633e-06
-8.30868e-06
-5.07912e-06
-7.46931e-06
-4.9992e-06
-6.65586e-06
-4.84395e-06
-5.87742e-06
-4.62945e-06
-5.14116e-06
-4.37031e-06
-4.45253e-06
-4.07965e-06
-3.8154e-06
-3.76907e-06
-3.23231e-06
-3.44874e-06
-2.70464e-06
-3.12736e-06
-2.23271e-06
-2.81227e-06
-1.81598e-06
-2.50956e-06
-1.45309e-06
-2.22407e-06
-1.14188e-06
-1.95944e-06
-8.79398e-07
-1.71805e-06
-6.61855e-07
-1.50079e-06
-4.84612e-07
-1.30677e-06
-3.42291e-07
-1.13272e-06
-2.29129e-07
-9.72226e-07
-1.39752e-07
-8.14812e-07
-7.0521e-08
-6.45e-07
-2.15966e-08
-4.41512e-07
-1.76969e-07
1.80779e-08
-2.02962e-07
5.90321e-08
-5.0978e-07
1.19506e-07
-7.53636e-07
2.02955e-07
-9.67433e-07
3.15996e-07
-1.17459e-06
4.65858e-07
-1.39059e-06
6.59093e-07
-1.62478e-06
9.0098e-07
-1.882e-06
1.19542e-06
-2.16395e-06
1.54507e-06
-2.47019e-06
1.95157e-06
-2.79875e-06
2.41569e-06
-3.14636e-06
2.93745e-06
-3.50859e-06
3.51614e-06
-3.87976e-06
4.15027e-06
-4.25286e-06
4.83744e-06
-4.61946e-06
5.57422e-06
-4.96952e-06
6.35595e-06
-5.29139e-06
7.17659e-06
-5.57165e-06
8.02852e-06
-5.79517e-06
8.90237e-06
-5.94505e-06
9.7868e-06
-6.00269e-06
1.06683e-05
-5.94793e-06
1.15309e-05
-5.75923e-06
1.23561e-05
-5.41394e-06
1.31218e-05
-4.88884e-06
1.38027e-05
-4.16084e-06
1.43688e-05
-3.20812e-06
1.47851e-05
-2.01204e-06
1.50108e-05
-5.60032e-07
1.50002e-05
1.15008e-06
1.47033e-05
3.10428e-06
1.40709e-05
5.26554e-06
1.30605e-05
7.5672e-06
1.16457e-05
9.90966e-06
9.8255e-06
1.21639e-05
7.63053e-06
1.41833e-05
5.12488e-06
1.58204e-05
2.40239e-06
1.69469e-05
-4.21553e-07
1.74708e-05
-3.22134e-06
1.73484e-05
-5.87391e-06
1.65907e-05
-8.27125e-06
1.52616e-05
-1.03306e-05
1.34689e-05
-1.20009e-05
1.135e-05
-1.32641e-05
9.05327e-06
-1.41319e-05
6.71949e-06
-1.46377e-05
4.46671e-06
-1.48274e-05
2.38171e-06
-1.47506e-05
5.19296e-07
-1.44558e-05
-1.09278e-06
-1.39867e-05
-2.44708e-06
-1.33814e-05
-3.55004e-06
-1.26728e-05
-4.41673e-06
-1.1889e-05
-5.06708e-06
-1.10539e-05
-5.52341e-06
-1.0188e-05
-5.80871e-06
-9.30917e-06
-5.94571e-06
-8.43243e-06
-5.95632e-06
-7.57067e-06
-5.86133e-06
-6.7347e-06
-5.68023e-06
-5.93342e-06
-5.43097e-06
-5.17397e-06
-5.1299e-06
-4.46195e-06
-4.7917e-06
-3.80158e-06
-4.42938e-06
-3.19587e-06
-4.05429e-06
-2.6468e-06
-3.67616e-06
-2.15547e-06
-3.30324e-06
-1.72217e-06
-2.94239e-06
-1.34646e-06
-2.59921e-06
-1.02715e-06
-2.27808e-06
-7.62154e-07
-1.98227e-06
-5.48309e-07
-1.71375e-06
-3.81187e-07
-1.47289e-06
-2.54944e-07
-1.25783e-06
-1.62444e-07
-1.06347e-06
-9.58659e-08
-8.80024e-07
-4.80995e-08
-6.91332e-07
-1.51646e-08
-4.73049e-07
-1.91221e-07
9.83305e-09
-2.11639e-07
3.08576e-08
-5.2923e-07
6.56188e-08
-7.86724e-07
1.23082e-07
-1.02328e-06
2.14065e-07
-1.26401e-06
3.48312e-07
-1.52338e-06
5.33373e-07
-1.80852e-06
7.74385e-07
-2.12186e-06
1.07438e-06
-2.46298e-06
1.43476e-06
-2.82981e-06
1.8558e-06
-3.21922e-06
2.33691e-06
-3.6271e-06
2.87691e-06
-4.04838e-06
3.47405e-06
-4.47684e-06
4.12595e-06
-4.90484e-06
4.82955e-06
-5.32325e-06
5.58091e-06
-5.7212e-06
6.37508e-06
-6.086e-06
7.20596e-06
-6.40308e-06
8.06609e-06
-6.65599e-06
8.94659e-06
-6.82634e-06
9.83693e-06
-6.89393e-06
1.07248e-05
-6.8368e-06
1.15959e-05
-6.63142e-06
1.24336e-05
-6.25285e-06
1.32186e-05
-5.67512e-06
1.39282e-05
-4.87167e-06
1.45349e-05
-3.81617e-06
1.50055e-05
-2.48406e-06
1.52996e-05
-8.5537e-07
1.53679e-05
1.08047e-06
1.51538e-05
3.31735e-06
1.45959e-05
5.82262e-06
1.36366e-05
8.52597e-06
1.22346e-05
1.13116e-05
1.03781e-05
1.4021e-05
8.09429e-06
1.64682e-05
5.45242e-06
1.84641e-05
2.55924e-06
1.98424e-05
-4.51621e-07
2.0484e-05
-3.43382e-06
2.03327e-05
-6.2443e-06
1.94028e-05
-8.75904e-06
1.77774e-05
-1.08857e-05
1.55965e-05
-1.25718e-05
1.30372e-05
-1.38059e-05
1.0289e-05
-1.46122e-05
7.52805e-06
-1.50395e-05
4.8966e-06
-1.51476e-05
2.49228e-06
-1.49963e-05
3.69999e-07
-1.46392e-05
-1.44845e-06
-1.41219e-05
-2.96368e-06
-1.34818e-05
-4.19003e-06
-1.27494e-05
-5.14932e-06
-1.195e-05
-5.86685e-06
-1.1105e-05
-6.36902e-06
-1.02323e-05
-6.68194e-06
-9.34785e-06
-6.8308e-06
-8.46531e-06
-6.83953e-06
-7.59656e-06
-6.73077e-06
-6.75179e-06
-6.52569e-06
-5.93957e-06
-6.24386e-06
-5.16699e-06
-5.90311e-06
-4.4398e-06
-5.51946e-06
-3.76257e-06
-5.1071e-06
-3.13886e-06
-4.6784e-06
-2.57136e-06
-4.24397e-06
-2.06204e-06
-3.81275e-06
-1.61229e-06
-3.39223e-06
-1.22289e-06
-2.98857e-06
-8.93961e-07
-2.60685e-06
-6.24778e-07
-2.25115e-06
-4.13395e-07
-1.92467e-06
-2.56188e-07
-1.62947e-06
-1.47365e-07
-1.36586e-06
-7.86763e-08
-1.1312e-06
-3.9646e-08
-9.1794e-07
-1.88345e-08
-7.10938e-07
-6.61335e-09
-4.84099e-07
-1.9706e-07
-1.02248e-09
-2.09374e-07
-5.24201e-09
-5.23428e-07
-1.66635e-09
-7.88594e-07
2.60357e-08
-1.04934e-06
9.36863e-08
-1.33003e-06
2.13458e-07
-1.64156e-06
3.93263e-07
-1.98682e-06
6.37263e-07
-2.36445e-06
9.46798e-07
-2.77124e-06
1.32134e-06
-3.20324e-06
1.75923e-06
-3.65618e-06
2.25819e-06
-4.12531e-06
2.81555e-06
-4.60518e-06
3.42833e-06
-5.08922e-06
4.09317e-06
-5.56944e-06
4.80624e-06
-6.0362e-06
5.56304e-06
-6.478e-06
6.35827e-06
-6.88136e-06
7.18573e-06
-7.23078e-06
8.03813e-06
-7.50876e-06
8.90708e-06
-7.69579e-06
9.78295e-06
-7.77042e-06
1.06548e-05
-7.7094e-06
1.15103e-05
-7.48777e-06
1.23354e-05
-7.07898e-06
1.31142e-05
-6.45506e-06
1.3828e-05
-5.58674e-06
1.44541e-05
-4.44362e-06
1.49637e-05
-2.99504e-06
1.53189e-05
-1.21215e-06
1.54706e-05
9.27309e-07
1.5356e-05
3.43058e-06
1.4901e-05
6.27639e-06
1.40291e-05
9.39685e-06
1.26788e-05
1.26613e-05
1.0823e-05
1.58763e-05
8.48322e-06
1.88081e-05
5.73329e-06
2.12146e-05
2.69423e-06
2.28826e-05
-4.80099e-07
2.36598e-05
-3.62034e-06
2.34741e-05
-6.56135e-06
2.23442e-05
-9.16173e-06
2.03774e-05
-1.13196e-05
1.77534e-05
-1.29822e-05
1.4699e-05
-1.41484e-05
1.1455e-05
-1.48597e-05
8.24024e-06
-1.51846e-05
5.22347e-06
-1.51996e-05
2.50976e-06
-1.49743e-05
1.47248e-07
-1.45659e-05
-1.85474e-06
-1.40186e-05
-3.50932e-06
-1.33663e-05
-4.84116e-06
-1.26352e-05
-5.87973e-06
-1.1846e-05
-6.65562e-06
-1.1016e-05
-7.19879e-06
-1.01602e-05
-7.53769e-06
-9.29186e-06
-7.69912e-06
-8.42312e-06
-7.70835e-06
-7.56476e-06
-7.58928e-06
-6.72632e-06
-7.36435e-06
-5.91604e-06
-7.0544e-06
-5.14097e-06
-6.67845e-06
-4.40704e-06
-6.25365e-06
-3.71924e-06
-5.79515e-06
-3.08171e-06
-5.31613e-06
-2.49796e-06
-4.82786e-06
-1.97099e-06
-4.3398e-06
-1.50341e-06
-3.85981e-06
-1.0975e-06
-3.39439e-06
-7.55102e-07
-2.94904e-06
-4.77381e-07
-2.52856e-06
-2.64299e-07
-2.13731e-06
-1.13867e-07
-1.77931e-06
-2.1192e-08
-1.45778e-06
2.2464e-08
-1.17395e-06
3.01472e-08
-9.24606e-07
1.84538e-08
-6.98196e-07
4.5544e-09
-4.69256e-07
-1.91832e-07
-1.54369e-08
-1.92614e-07
-5.13283e-08
-4.85997e-07
-8.44556e-08
-7.53775e-07
-8.88618e-08
-1.04329e-06
-4.31569e-08
-1.37404e-06
6.6609e-08
-1.74956e-06
2.47528e-07
-2.16589e-06
5.01542e-07
-2.61653e-06
8.27266e-07
-3.09497e-06
1.22146e-06
-3.59542e-06
1.68007e-06
-4.11279e-06
2.19876e-06
-4.64206e-06
2.7732e-06
-5.17776e-06
3.39909e-06
-5.7133e-06
4.072e-06
-6.24061e-06
4.78725e-06
-6.74976e-06
5.53971e-06
-7.22882e-06
6.32367e-06
-7.66373e-06
7.13269e-06
-8.0383e-06
7.95958e-06
-8.33423e-06
8.79633e-06
-8.53122e-06
9.63412e-06
-8.60702e-06
1.04633e-05
-8.53757e-06
1.12736e-05
-8.29717e-06
1.20537e-05
-7.85852e-06
1.27918e-05
-7.19278e-06
1.34744e-05
-6.26929e-06
1.40854e-05
-5.05499e-06
1.46037e-05
-3.51394e-06
1.49986e-05
-1.60798e-06
1.52249e-05
6.9967e-07
1.52179e-05
3.43597e-06
1.48911e-05
6.60119e-06
1.41453e-05
1.01403e-05
1.28924e-05
1.3911e-05
1.10856e-05
1.76791e-05
8.73737e-06
2.11517e-05
5.92585e-06
2.40212e-05
2.78704e-06
2.60167e-05
-5.04375e-07
2.69471e-05
-3.75544e-06
2.67212e-05
-6.7783e-06
2.53626e-05
-9.41431e-06
2.3008e-05
-1.15525e-05
1.98853e-05
-1.31422e-05
1.62822e-05
-1.4196e-05
1.25028e-05
-1.47782e-05
8.81812e-06
-1.49826e-05
5.42533e-06
-1.49038e-05
2.43024e-06
-1.46193e-05
-1.36821e-07
-1.41853e-05
-2.28775e-06
-1.36405e-05
-4.05294e-06
-1.30114e-05
-5.46897e-06
-1.2317e-05
-6.57277e-06
-1.15721e-05
-7.39926e-06
-1.07887e-05
-7.98068e-06
-9.97832e-06
-8.34656e-06
-9.15167e-06
-8.52413e-06
-8.31925e-06
-8.53909e-06
-7.49088e-06
-8.41596e-06
-6.67555e-06
-8.17799e-06
-5.88132e-06
-7.84697e-06
-5.11527e-06
-7.44287e-06
-4.38361e-06
-6.9837e-06
-3.69179e-06
-6.48539e-06
-3.04464e-06
-5.96175e-06
-2.44653e-06
-5.42447e-06
-1.90154e-06
-4.88331e-06
-1.41366e-06
-4.34624e-06
-9.8683e-07
-3.81979e-06
-6.24953e-07
-3.3095e-06
-3.31598e-07
-2.82049e-06
-1.09424e-07
-2.35804e-06
4.08599e-08
-1.92813e-06
1.21992e-07
-1.53744e-06
1.42e-07
-1.19249e-06
1.15868e-07
-8.97066e-07
6.59488e-08
-6.47035e-07
1.93148e-08
-4.21668e-07
-1.71726e-07
-3.51683e-08
-1.56054e-07
-1.10951e-07
-4.08793e-07
-1.86157e-07
-6.76929e-07
-2.22666e-07
-1.0052e-06
-1.93698e-07
-1.4013e-06
-8.51469e-08
-1.85616e-06
1.07289e-07
-2.35607e-06
3.81659e-07
-2.8883e-06
7.32667e-07
-3.443e-06
1.15366e-06
-4.0131e-06
1.63777e-06
-4.59331e-06
2.17848e-06
-5.17898e-06
2.76976e-06
-5.76507e-06
3.40595e-06
-6.34538e-06
4.08155e-06
-6.91197e-06
4.79101e-06
-7.45486e-06
5.52848e-06
-7.96185e-06
6.28772e-06
-8.41844e-06
7.06191e-06
-8.80793e-06
7.84373e-06
-9.1115e-06
8.62533e-06
-9.30832e-06
9.3984e-06
-9.37571e-06
1.01543e-05
-9.28933e-06
1.08844e-05
-9.02333e-06
1.158e-05
-8.5506e-06
1.22331e-05
-7.84279e-06
1.28361e-05
-6.86983e-06
1.33813e-05
-5.59846e-06
1.38583e-05
-3.98993e-06
1.4249e-05
-1.99838e-06
1.45196e-05
4.28443e-07
1.46105e-05
3.34339e-06
1.44266e-05
6.78201e-06
1.38427e-05
1.07193e-05
1.27379e-05
1.50084e-05
1.10414e-05
1.93653e-05
8.754e-06
2.3426e-05
5.95742e-06
2.68028e-05
2.80218e-06
2.91566e-05
-5.19373e-07
3.02546e-05
-3.79396e-06
2.99831e-05
-6.81403e-06
2.83705e-05
-9.40684e-06
2.55882e-05
-1.14546e-05
2.19194e-05
-1.29107e-05
1.77238e-05
-1.38048e-05
1.33828e-05
-1.42298e-05
9.23031e-06
-1.43089e-05
5.49434e-06
-1.41557e-05
2.26994e-06
-1.38494e-05
-4.47648e-07
-1.34373e-05
-2.70235e-06
-1.29459e-05
-4.54527e-06
-1.23904e-05
-6.0244e-06
-1.178e-05
-7.18207e-06
-1.11221e-05
-8.05528e-06
-1.04235e-05
-8.67658e-06
-9.69199e-06
-9.0748e-06
-8.93613e-06
-9.27618e-06
-8.16522e-06
-9.30578e-06
-7.38851e-06
-9.18814e-06
-6.61477e-06
-8.94703e-06
-5.85203e-06
-8.60489e-06
-5.10759e-06
-8.18244e-06
-4.38807e-06
-7.69837e-06
-3.69947e-06
-7.16919e-06
-3.04736e-06
-6.60917e-06
-2.43699e-06
-6.03028e-06
-1.87356e-06
-5.44234e-06
-1.36241e-06
-4.85316e-06
-9.09236e-07
-4.26893e-06
-5.20141e-07
-3.69476e-06
-2.01514e-07
-3.13548e-06
4.05421e-08
-2.59667e-06
2.01391e-07
-2.08575e-06
2.799e-07
-1.61295e-06
2.81398e-07
-1.19127e-06
2.21197e-07
-8.34503e-07
1.27321e-07
-5.5126e-07
3.94751e-08
-3.32468e-07
-1.31028e-07
-6.34389e-08
-9.11423e-08
-1.89884e-07
-2.81122e-07
-3.11542e-07
-5.53635e-07
-3.75969e-07
-9.39208e-07
-3.52884e-07
-1.4227e-06
-2.31231e-07
-1.97583e-06
-1.24039e-08
-2.57247e-06
2.9575e-07
-3.19348e-06
6.82921e-07
-3.82659e-06
1.13857e-06
-4.46456e-06
1.65299e-06
-5.10299e-06
2.21756e-06
-5.73834e-06
2.82469e-06
-6.36659e-06
3.46749e-06
-6.98222e-06
4.13946e-06
-7.57768e-06
4.83418e-06
-8.14304e-06
5.54501e-06
-8.66591e-06
6.26499e-06
-9.13148e-06
6.98676e-06
-9.52264e-06
7.70257e-06
-9.82018e-06
8.40434e-06
-1.0003e-05
9.08387e-06
-1.00483e-05
9.73295e-06
-9.93167e-06
1.03437e-05
-9.62771e-06
1.09091e-05
-9.11016e-06
1.1424e-05
-8.35243e-06
1.1886e-05
-7.32738e-06
1.22961e-05
-6.00506e-06
1.26571e-05
-4.34838e-06
1.29685e-05
-2.30849e-06
1.32179e-05
1.79008e-07
1.33637e-05
3.19586e-06
1.33117e-05
6.8298e-06
1.29104e-05
1.11132e-05
1.20011e-05
1.59059e-05
1.04894e-05
2.08604e-05
8.36309e-06
2.55309e-05
5.70606e-06
2.94348e-05
2.68045e-06
3.21561e-05
-5.15214e-07
3.3427e-05
-3.65852e-06
3.31072e-05
-6.5321e-06
3.12278e-05
-8.9589e-06
2.79997e-05
-1.08194e-05
2.37637e-05
-1.20726e-05
1.89589e-05
-1.27669e-05
1.40583e-05
-1.30253e-05
9.4703e-06
-1.30036e-05