/*--------------------------------*- C++ -*----------------------------------*\
| =========                 |                                                 |
| \\      /  F ield         | OpenFOAM: The Open Source CFD Toolbox           |
|  \\    /   O peration     | Version:  2412                                  |
|   \\  /    A nd           | Website:  www.openfoam.com                      |
|    \\/     M anipulation  |                                                 |
\*---------------------------------------------------------------------------*/
FoamFile
{
    version     2.0;
    format      ascii;
    arch        "LSB;label=32;scalar=64";
    class       volScalarField;
    location    "2.2";
    object      p;
}
// * * * * * * * * * * * * * * * * * * * * * * * * * * * * * * * * * * * * * //

dimensions      [1 -1 -2 0 0 0 0];

internalField   nonuniform List<scalar> 
6400
(
8129.85
8130.15
8130.8
8131.71
8132.75
8133.85
8134.95
8136.04
8137.13
8138.22
8139.33
8140.48
8141.69
8142.98
8144.36
8145.84
8147.44
8149.14
8150.95
8152.86
8154.86
8156.94
8159.07
8161.24
8163.42
8165.6
8167.75
8169.85
8171.88
8173.81
8175.63
8177.32
8178.86
8180.24
8181.45
8182.48
8183.32
8183.97
8184.41
8184.66
8184.7
8184.54
8184.18
8183.61
8182.85
8181.9
8180.76
8179.44
8177.96
8176.32
8174.55
8172.65
8170.64
8168.55
8166.4
8164.2
8161.98
8159.77
8157.58
8155.43
8153.34
8151.34
8149.42
8147.6
8145.88
8144.27
8142.75
8141.33
8139.98
8138.69
8137.45
8136.23
8135.03
8133.82
8132.61
8131.43
8130.31
8129.35
8128.68
8128.38
7712.63
7712.93
7713.52
7714.34
7715.29
7716.32
7717.38
7718.46
7719.56
7720.68
7721.83
7723.03
7724.3
7725.66
7727.1
7728.65
7730.3
7732.06
7733.93
7735.89
7737.94
7740.06
7742.24
7744.46
7746.68
7748.91
7751.1
7753.24
7755.31
7757.29
7759.15
7760.88
7762.46
7763.88
7765.12
7766.18
7767.05
7767.71
7768.17
7768.43
7768.47
7768.3
7767.93
7767.34
7766.56
7765.57
7764.4
7763.05
7761.53
7759.85
7758.03
7756.09
7754.04
7751.9
7749.7
7747.46
7745.2
7742.94
7740.7
7738.51
7736.37
7734.31
7732.34
7730.46
7728.68
7727
7725.42
7723.93
7722.52
7721.18
7719.9
7718.65
7717.44
7716.24
7715.08
7713.97
7712.95
7712.08
7711.47
7711.17
7295.06
7295.43
7296.03
7296.81
7297.7
7298.68
7299.71
7300.78
7301.89
7303.03
7304.22
7305.48
7306.8
7308.22
7309.73
7311.34
7313.06
7314.88
7316.81
7318.84
7320.96
7323.15
7325.39
7327.67
7329.96
7332.25
7334.51
7336.72
7338.86
7340.9
7342.82
7344.61
7346.25
7347.73
7349.02
7350.12
7351.02
7351.72
7352.2
7352.46
7352.5
7352.33
7351.93
7351.32
7350.5
7349.48
7348.26
7346.85
7345.28
7343.54
7341.66
7339.65
7337.53
7335.33
7333.07
7330.76
7328.43
7326.1
7323.8
7321.53
7319.33
7317.2
7315.16
7313.21
7311.37
7309.62
7307.97
7306.42
7304.96
7303.56
7302.24
7300.97
7299.74
7298.56
7297.43
7296.37
7295.4
7294.58
7293.96
7293.59
6877.22
6877.7
6878.38
6879.17
6880.06
6881.03
6882.05
6883.11
6884.22
6885.38
6886.59
6887.88
6889.24
6890.7
6892.26
6893.93
6895.71
6897.6
6899.6
6901.7
6903.89
6906.15
6908.48
6910.84
6913.23
6915.6
6917.95
6920.25
6922.47
6924.6
6926.61
6928.47
6930.19
6931.73
6933.08
6934.24
6935.18
6935.91
6936.42
6936.69
6936.74
6936.55
6936.14
6935.5
6934.64
6933.56
6932.29
6930.82
6929.16
6927.35
6925.39
6923.29
6921.09
6918.8
6916.45
6914.05
6911.63
6909.22
6906.83
6904.48
6902.2
6900
6897.88
6895.87
6893.96
6892.15
6890.45
6888.85
6887.34
6885.92
6884.56
6883.28
6882.04
6880.87
6879.75
6878.7
6877.75
6876.91
6876.21
6875.72
6459.22
6459.84
6460.62
6461.46
6462.37
6463.34
6464.36
6465.42
6466.53
6467.69
6468.91
6470.21
6471.6
6473.09
6474.69
6476.41
6478.24
6480.2
6482.27
6484.45
6486.73
6489.09
6491.51
6493.98
6496.47
6498.96
6501.42
6503.83
6506.16
6508.39
6510.5
6512.47
6514.27
6515.9
6517.33
6518.55
6519.55
6520.32
6520.86
6521.15
6521.2
6521.01
6520.57
6519.89
6518.98
6517.85
6516.5
6514.95
6513.21
6511.3
6509.23
6507.03
6504.72
6502.32
6499.85
6497.34
6494.81
6492.29
6489.8
6487.35
6484.98
6482.69
6480.5
6478.41
6476.44
6474.58
6472.83
6471.19
6469.65
6468.21
6466.84
6465.54
6464.31
6463.14
6462.02
6460.97
6460
6459.11
6458.31
6457.69
6041.15
6041.9
6042.79
6043.7
6044.64
6045.62
6046.64
6047.69
6048.79
6049.95
6051.17
6052.47
6053.87
6055.38
6057.01
6058.77
6060.66
6062.68
6064.83
6067.1
6069.48
6071.94
6074.48
6077.08
6079.69
6082.31
6084.91
6087.45
6089.91
6092.28
6094.51
6096.6
6098.52
6100.25
6101.77
6103.07
6104.14
6104.96
6105.53
6105.85
6105.9
6105.7
6105.24
6104.52
6103.55
6102.34
6100.91
6099.26
6097.41
6095.38
6093.19
6090.86
6088.41
6085.87
6083.27
6080.62
6077.96
6075.31
6072.69
6070.13
6067.65
6065.26
6062.99
6060.83
6058.79
6056.88
6055.1
6053.43
6051.87
6050.42
6049.05
6047.76
6046.54
6045.37
6044.26
6043.19
6042.19
6041.24
6040.33
6039.57
5623.07
5623.94
5624.94
5625.92
5626.89
5627.89
5628.9
5629.94
5631.02
5632.15
5633.35
5634.65
5636.05
5637.57
5639.22
5641.01
5642.95
5645.04
5647.27
5649.64
5652.12
5654.71
5657.39
5660.12
5662.89
5665.67
5668.42
5671.12
5673.74
5676.26
5678.65
5680.87
5682.92
5684.77
5686.4
5687.8
5688.95
5689.83
5690.45
5690.79
5690.86
5690.64
5690.15
5689.38
5688.35
5687.06
5685.53
5683.76
5681.79
5679.62
5677.28
5674.79
5672.18
5669.48
5666.7
5663.89
5661.07
5658.26
5655.5
5652.8
5650.2
5647.71
5645.34
5643.1
5641
5639.05
5637.23
5635.55
5633.99
5632.54
5631.19
5629.92
5628.72
5627.57
5626.46
5625.38
5624.35
5623.33
5622.3
5621.41
5204.99
5205.99
5207.1
5208.14
5209.15
5210.14
5211.14
5212.15
5213.19
5214.29
5215.46
5216.72
5218.1
5219.62
5221.28
5223.11
5225.1
5227.25
5229.57
5232.04
5234.66
5237.39
5240.22
5243.12
5246.07
5249.02
5251.96
5254.85
5257.66
5260.35
5262.91
5265.3
5267.5
5269.49
5271.25
5272.76
5273.99
5274.95
5275.63
5276
5276.07
5275.85
5275.32
5274.5
5273.39
5272.01
5270.36
5268.46
5266.34
5264.01
5261.5
5258.83
5256.03
5253.13
5250.16
5247.15
5244.14
5241.15
5238.22
5235.37
5232.63
5230.01
5227.54
5225.22
5223.07
5221.07
5219.23
5217.55
5216
5214.57
5213.25
5212.02
5210.85
5209.73
5208.64
5207.56
5206.49
5205.4
5204.26
5203.24
4786.95
4788.07
4789.29
4790.39
4791.42
4792.41
4793.37
4794.33
4795.31
4796.34
4797.45
4798.67
4800.02
4801.52
4803.18
4805.03
4807.07
4809.3
4811.71
4814.31
4817.06
4819.96
4822.97
4826.07
4829.22
4832.39
4835.55
4838.65
4841.68
4844.58
4847.34
4849.91
4852.29
4854.44
4856.34
4857.96
4859.31
4860.35
4861.08
4861.49
4861.57
4861.33
4860.77
4859.88
4858.69
4857.19
4855.42
4853.37
4851.08
4848.57
4845.86
4842.98
4839.97
4836.84
4833.65
4830.42
4827.19
4823.99
4820.86
4817.83
4814.93
4812.17
4809.59
4807.18
4804.96
4802.93
4801.08
4799.4
4797.88
4796.49
4795.23
4794.05
4792.94
4791.87
4790.8
4789.73
4788.63
4787.48
4786.22
4785.07
4368.96
4370.21
4371.54
4372.69
4373.73
4374.69
4375.59
4376.47
4377.36
4378.3
4379.32
4380.47
4381.76
4383.22
4384.88
4386.75
4388.84
4391.15
4393.67
4396.4
4399.32
4402.41
4405.64
4408.97
4412.36
4415.78
4419.19
4422.55
4425.81
4428.96
4431.94
4434.73
4437.31
4439.63
4441.69
4443.46
4444.91
4446.04
4446.84
4447.28
4447.38
4447.12
4446.51
4445.55
4444.26
4442.64
4440.72
4438.5
4436.02
4433.31
4430.38
4427.27
4424
4420.63
4417.18
4413.7
4410.21
4406.77
4403.41
4400.17
4397.09
4394.18
4391.47
4388.97
4386.68
4384.61
4382.76
4381.1
4379.62
4378.3
4377.11
4376.01
4374.98
4373.98
4372.97
4371.92
4370.8
4369.58
4368.19
4366.9
3951.03
3952.43
3953.88
3955.08
3956.11
3957.01
3957.82
3958.58
3959.34
3960.15
3961.06
3962.1
3963.31
3964.72
3966.36
3968.24
3970.37
3972.77
3975.41
3978.3
3981.41
3984.73
3988.2
3991.8
3995.48
3999.19
4002.89
4006.53
4010.09
4013.5
4016.74
4019.78
4022.57
4025.1
4027.34
4029.26
4030.84
4032.07
4032.93
4033.42
4033.52
4033.24
4032.58
4031.54
4030.13
4028.38
4026.28
4023.88
4021.19
4018.25
4015.07
4011.69
4008.16
4004.5
4000.76
3996.98
3993.21
3989.49
3985.86
3982.38
3979.08
3976
3973.15
3970.54
3968.19
3966.09
3964.23
3962.61
3961.19
3959.96
3958.88
3957.9
3956.99
3956.09
3955.16
3954.16
3953.04
3951.75
3950.23
3948.77
3533.2
3534.79
3536.38
3537.62
3538.61
3539.42
3540.09
3540.69
3541.28
3541.91
3542.65
3543.55
3544.65
3545.99
3547.59
3549.47
3551.65
3554.13
3556.91
3559.97
3563.31
3566.88
3570.64
3574.56
3578.56
3582.6
3586.64
3590.61
3594.49
3598.21
3601.75
3605.06
3608.1
3610.85
3613.29
3615.39
3617.11
3618.46
3619.39
3619.92
3620.03
3619.73
3619.01
3617.88
3616.35
3614.43
3612.15
3609.53
3606.61
3603.4
3599.95
3596.27
3592.42
3588.44
3584.37
3580.25
3576.15
3572.11
3568.18
3564.42
3560.88
3557.59
3554.58
3551.87
3549.45
3547.32
3545.48
3543.91
3542.58
3541.47
3540.53
3539.72
3538.97
3538.23
3537.42
3536.5
3535.4
3534.06
3532.39
3530.74
3115.53
3117.35
3119.1
3120.38
3121.3
3121.96
3122.44
3122.81
3123.16
3123.57
3124.1
3124.81
3125.76
3126.99
3128.53
3130.41
3132.63
3135.2
3138.12
3141.38
3144.96
3148.83
3152.94
3157.21
3161.59
3166.01
3170.43
3174.78
3179.02
3183.09
3186.96
3190.57
3193.89
3196.9
3199.57
3201.86
3203.76
3205.22
3206.25
3206.83
3206.95
3206.62
3205.83
3204.6
3202.93
3200.84
3198.34
3195.48
3192.29
3188.8
3185.03
3181.01
3176.81
3172.45
3168
3163.51
3159.02
3154.6
3150.31
3146.23
3142.41
3138.89
3135.72
3132.88
3130.4
3128.25
3126.44
3124.95
3123.75
3122.8
3122.06
3121.46
3120.93
3120.41
3119.79
3119.01
3117.98
3116.6
3114.75
3112.86
2698.1
2700.22
2702.17
2703.46
2704.24
2704.68
2704.87
2704.95
2704.99
2705.1
2705.35
2705.83
2706.59
2707.68
2709.15
2711
2713.27
2715.93
2719
2722.47
2726.34
2730.55
2735.05
2739.75
2744.56
2749.41
2754.25
2759.03
2763.68
2768.15
2772.38
2776.33
2779.95
2783.25
2786.18
2788.72
2790.8
2792.41
2793.54
2794.17
2794.31
2793.95
2793.1
2791.75
2789.93
2787.63
2784.89
2781.75
2778.27
2774.45
2770.32
2765.93
2761.32
2756.54
2751.66
2746.72
2741.8
2736.94
2732.23
2727.77
2723.62
2719.86
2716.5
2713.55
2711
2708.84
2707.07
2705.69
2704.65
2703.91
2703.42
2703.11
2702.89
2702.66
2702.32
2701.77
2700.87
2699.48
2697.43
2695.2
2281.05
2283.58
2285.74
2286.96
2287.51
2287.61
2287.42
2287.08
2286.72
2286.45
2286.37
2286.54
2287.06
2287.98
2289.35
2291.18
2293.48
2296.24
2299.47
2303.17
2307.36
2311.98
2316.96
2322.15
2327.46
2332.81
2338.13
2343.39
2348.5
2353.41
2358.06
2362.38
2366.33
2369.94
2373.18
2375.99
2378.29
2380.06
2381.3
2381.99
2382.14
2381.75
2380.82
2379.36
2377.37
2374.84
2371.81
2368.35
2364.55
2360.39
2355.87
2351.04
2345.96
2340.71
2335.34
2329.92
2324.49
2319.11
2313.9
2308.98
2304.47
2300.42
2296.87
2293.8
2291.19
2289.03
2287.32
2286.06
2285.23
2284.76
2284.59
2284.64
2284.81
2284.99
2285.05
2284.83
2284.18
2282.85
2280.55
2277.9
1864.64
1867.65
1870.02
1871.06
1871.2
1870.79
1870.06
1869.18
1868.31
1867.57
1867.06
1866.87
1867.1
1867.81
1869.06
1870.86
1873.2
1876.06
1879.45
1883.41
1887.97
1893.08
1898.63
1904.44
1910.33
1916.22
1922.09
1927.89
1933.53
1938.95
1944.07
1948.79
1953.07
1957
1960.61
1963.74
1966.28
1968.22
1969.56
1970.32
1970.48
1970.06
1969.05
1967.47
1965.29
1962.51
1959.13
1955.29
1951.17
1946.65
1941.69
1936.38
1930.79
1925
1919.08
1913.11
1907.11
1901.12
1895.3
1889.83
1884.88
1880.53
1876.78
1873.59
1870.92
1868.75
1867.11
1866.01
1865.42
1865.28
1865.51
1866.01
1866.69
1867.4
1868
1868.3
1868.05
1866.91
1864.38
1861.21
1449.16
1452.7
1455.22
1455.86
1455.35
1454.22
1452.76
1451.2
1449.7
1448.4
1447.38
1446.76
1446.65
1447.12
1448.25
1450.05
1452.46
1455.42
1458.97
1463.19
1468.17
1473.89
1480.17
1486.72
1493.26
1499.74
1506.18
1512.58
1518.81
1524.8
1530.45
1535.59
1540.16
1544.41
1548.46
1551.98
1554.78
1556.89
1558.33
1559.14
1559.31
1558.84
1557.76
1556.06
1553.72
1550.66
1546.84
1542.55
1538.12
1533.28
1527.85
1521.99
1515.84
1509.47
1502.96
1496.42
1489.8
1483.08
1476.48
1470.33
1464.86
1460.17
1456.24
1452.95
1450.21
1448.01
1446.42
1445.48
1445.16
1445.41
1446.11
1447.16
1448.45
1449.85
1451.18
1452.22
1452.63
1451.88
1449.18
1445.45
1034.67
1039.1
1041.64
1041.54
1040.04
1037.88
1035.47
1033.06
1030.84
1028.89
1027.29
1026.15
1025.64
1025.87
1026.93
1028.84
1031.42
1034.52
1038.11
1042.5
1047.96
1054.48
1061.82
1069.37
1076.59
1083.54
1090.49
1097.51
1104.37
1110.99
1117.25
1122.76
1127.43
1131.94
1136.62
1140.7
1143.79
1146.02
1147.52
1148.36
1148.52
1148.01
1146.87
1145.11
1142.66
1139.31
1134.83
1129.89
1125.32
1120.31
1114.39
1107.92
1101.17
1094.18
1087.11
1080.11
1072.92
1065.29
1057.57
1050.44
1044.32
1039.33
1035.35
1032.03
1029.21
1026.85
1025.19
1024.37
1024.36
1025.05
1026.31
1028.01
1030.03
1032.28
1034.58
1036.66
1038.1
1038.12
1035.41
1030.76
623.156
629.787
631.434
629.436
626.121
622.381
618.621
615.091
611.929
609.144
606.708
604.759
603.567
603.305
604.149
606.228
609.021
611.985
615.219
619.431
625.341
632.979
642.039
651.273
659.35
666.718
674.255
682.164
689.921
697.433
704.75
710.733
714.936
719.509
725.45
730.505
733.889
736.148
737.608
738.473
738.653
738.027
736.871
735.19
732.774
729.176
723.469
717.125
712.999
708.195
701.471
694.003
686.417
678.532
670.694
663.298
655.503
646.405
636.798
628.179
621.281
616.152
612.537
609.651
606.864
604.229
602.532
602.026
602.567
603.996
606.108
608.692
611.683
615.082
618.776
622.512
625.866
627.909
626.209
619.327
236.171
246.877
246.243
241.905
237.245
232.791
228.678
224.995
221.796
219.013
216.525
214.382
212.857
212.088
212.307
213.972
216.012
218.462
221.003
224.169
229.09
235.761
244.334
253.541
261.016
267.68
274.894
283.126
291.174
299.642
309.28
316.583
318.999
320.82
326.781
331.461
333.002
334.084
335.04
335.459
335.468
335.35
334.734
333.538
332.488
330.374
324.937
319.585
318.46
314.195
305.246
296.092
288.027
279.841
271.745
265.017
258.015
249.133
239.889
232.155
226.254
222.057
219.393
217.063
214.953
212.577
211.449
211.565
212.582
214.347
216.638
219.314
222.389
225.971
230.058
234.563
239.359
243.921
244.761
233.873
25.105
29.1777
27.5541
24.9446
22.5718
20.5124
18.7126
17.1427
15.7958
14.722
14.0563
13.568
13.1616
12.8309
12.5536
12.3906
12.6805
14.1948
16.6078
18.6906
20.8149
22.6632
24.5241
27.0272
31.2625
36.4806
41.11
45.5974
49.5103
53.5794
58.7016
63.4167
66.5838
67.3444
67.7034
64.906
63.8605
64.0671
64.4676
64.4673
64.3554
64.6366
64.5682
63.9691
63.9411
64.8901
67.5175
67.2711
66.1331
62.1395
56.6242
52.1258
48.2772
44.1627
39.4156
34.5402
29.5476
26.5282
24.5921
22.8817
20.7599
18.4243
16.2209
13.7086
12.3358
12.2157
12.3901
12.6501
13.0118
13.5269
14.1269
15.0853
16.3715
17.8961
19.6822
21.7653
24.2126
26.9667
28.8018
24.8129
-10.3589
-10.3096
-10.3263
-10.3509
-10.3845
-10.4254
-10.4731
-10.508
-10.5158
-10.4037
-9.8372
-9.1893
-8.72212
-8.49017
-8.59268
-9.07865
-9.58475
-8.77757
-6.80327
-5.54207
-5.04762
-5.74815
-7.46373
-9.28452
-7.62196
-4.21013
-2.41032
-1.9417
-2.29152
-3.25441
-5.60902
-6.31402
-3.60809
-2.2733
-4.77229
-10.2878
-10.3267
-10.3321
-10.3088
-10.2568
-10.221
-10.2614
-10.306
-10.3211
-10.314
-10.2024
-4.11342
-2.45209
-4.49082
-6.18032
-4.40284
-2.54025
-1.92676
-1.79636
-2.70333
-5.37453
-8.55139
-7.56122
-5.43126
-4.02914
-4.05319
-5.13369
-6.82567
-9.01982
-9.68877
-9.18935
-8.83406
-8.8996
-9.21862
-9.66011
-10.2417
-10.4802
-10.476
-10.4463
-10.4011
-10.3609
-10.3265
-10.3
-10.2814
-10.3308
-10.7946
-10.8056
-10.8231
-10.8484
-10.8803
-10.9181
-10.9608
-10.9938
-11.0025
-11.0256
-10.8423
-10.3134
-9.84017
-9.62408
-9.69861
-10.022
-10.2625
-10.1603
-9.46205
-8.41229
-7.96936
-8.58933
-9.7122
-10.2919
-9.84843
-8.51351
-7.52079
-7.42113
-7.74032
-8.55889
-10.1521
-10.7933
-10.8401
-10.8378
-10.8233
-10.7973
-10.7964
-10.7968
-10.7892
-10.7697
-10.7548
-10.7681
-10.784
-10.7909
-10.7915
-10.7994
-10.829
-10.8295
-10.8267
-10.7517
-9.41397
-7.95686
-7.44898
-7.18278
-7.53844
-8.97092
-10.0327
-9.6572
-8.54766
-7.35482
-7.40909
-8.48489
-9.63755
-10.2915
-10.3144
-10.0869
-9.84888
-9.91789
-10.2211
-10.6573
-10.9608
-10.9865
-10.9676
-10.935
-10.893
-10.856
-10.8238
-10.7976
-10.7789
-10.7669
-11.2906
-11.2917
-11.3082
-11.3351
-11.3708
-11.4162
-11.4682
-11.5133
-11.5333
-11.5248
-11.5473
-11.3999
-11.1212
-10.9174
-10.8383
-10.9124
-10.9196
-10.9176
-10.8978
-10.6232
-10.3449
-10.6107
-11.0602
-11.076
-11.0547
-11.0534
-11.0265
-11.0684
-11.0936
-11.1782
-11.2863
-11.3131
-11.3107
-11.3026
-11.2982
-11.3009
-11.3124
-11.3177
-11.3044
-11.2795
-11.2643
-11.2779
-11.2968
-11.3051
-11.3003
-11.2959
-11.2977
-11.3031
-11.3053
-11.2992
-11.2765
-11.1201
-11.076
-11.0165
-10.9943
-10.9881
-11.0587
-11.0534
-10.7671
-10.1545
-10.3081
-10.8103
-10.9552
-10.982
-10.9826
-10.9389
-10.9358
-11.112
-11.3434
-11.5284
-11.5176
-11.4978
-11.489
-11.4447
-11.3945
-11.3492
-11.3117
-11.2832
-11.2647
-11.2613
-11.7514
-11.7619
-11.7802
-11.809
-11.8467
-11.8973
-11.9715
-12.0678
-12.1535
-12.1798
-12.1833
-12.1555
-12.1124
-11.9395
-11.6624
-11.3975
-11.2716
-11.3091
-11.4384
-11.6331
-11.7467
-11.6816
-11.6298
-11.6233
-11.6409
-11.6453
-11.6825
-11.7436
-11.7604
-11.7312
-11.7439
-11.7715
-11.7915
-11.8076
-11.8077
-11.8113
-11.8247
-11.8305
-11.823
-11.8028
-11.7902
-11.8036
-11.8176
-11.8207
-11.8121
-11.802
-11.8032
-11.7962
-11.7733
-11.7489
-11.7325
-11.7297
-11.7633
-11.7277
-11.636
-11.6594
-11.6553
-11.6515
-11.6707
-11.7492
-11.7064
-11.57
-11.4269
-11.3399
-11.3927
-11.5994
-11.8731
-12.0972
-12.2003
-12.2197
-12.2026
-12.1444
-12.0555
-11.9556
-11.8782
-11.8239
-11.7858
-11.7555
-11.7358
-11.7257
-12.2252
-12.23
-12.246
-12.274
-12.3111
-12.3689
-12.4745
-12.6419
-12.8184
-12.8387
-12.73
-12.593
-12.505
-12.4573
-12.3772
-12.1808
-11.9499
-11.8727
-11.9385
-12.0593
-12.1663
-12.1988
-12.1645
-12.127
-12.1272
-12.1503
-12.179
-12.2082
-12.2283
-12.2413
-12.2533
-12.2631
-12.2703
-12.2807
-12.2939
-12.3108
-12.3263
-12.3281
-12.3216
-12.3084
-12.3001
-12.3106
-12.3187
-12.3212
-12.3146
-12.2982
-12.2825
-12.2688
-12.2574
-12.2506
-12.2454
-12.2335
-12.2204
-12.1975
-12.1667
-12.1451
-12.1287
-12.1592
-12.1984
-12.1919
-12.1138
-12.0096
-11.919
-11.8471
-11.9772
-12.2605
-12.4885
-12.6161
-12.6959
-12.7536
-12.7857
-12.7583
-12.6292
-12.4634
-12.3521
-12.2889
-12.2507
-12.2205
-12.2026
-12.1973
-12.6898
-12.6923
-12.7024
-12.722
-12.7587
-12.8154
-12.9399
-13.1354
-13.3438
-13.4563
-13.4306
-13.3725
-13.3761
-13.4147
-13.3616
-13.1563
-12.8868
-12.6903
-12.6109
-12.6167
-12.6708
-12.6805
-12.6703
-12.6558
-12.6509
-12.6593
-12.6766
-12.6939
-12.7067
-12.7186
-12.7311
-12.7404
-12.7476
-12.7578
-12.7749
-12.7957
-12.8064
-12.8078
-12.8048
-12.8004
-12.7964
-12.8013
-12.8024
-12.802
-12.7965
-12.783
-12.7641
-12.7493
-12.7399
-12.7313
-12.7213
-12.709
-12.6977
-12.6845
-12.6663
-12.6536
-12.6557
-12.6748
-12.6867
-12.6739
-12.625
-12.5774
-12.5987
-12.6913
-12.9047
-13.1811
-13.3681
-13.4239
-13.4346
-13.425
-13.3956
-13.2924
-13.1072
-12.9312
-12.8033
-12.7344
-12.6962
-12.6744
-12.662
-12.6587
-13.1587
-13.1583
-13.1612
-13.1677
-13.1791
-13.2321
-13.354
-13.5469
-13.7823
-14.0242
-14.2462
-14.435
-14.5795
-14.6464
-14.5826
-14.3575
-14.0396
-13.7102
-13.4298
-13.2703
-13.2604
-13.2459
-13.2072
-13.1819
-13.1705
-13.1699
-13.1788
-13.1913
-13.203
-13.2138
-13.2243
-13.2331
-13.2409
-13.2497
-13.2618
-13.2752
-13.2849
-13.2892
-13.2895
-13.2886
-13.2874
-13.2882
-13.2873
-13.285
-13.278
-13.2665
-13.2536
-13.2425
-13.2333
-13.2247
-13.2153
-13.2051
-13.1948
-13.1842
-13.1743
-13.1725
-13.1849
-13.208
-13.2354
-13.2497
-13.2358
-13.2662
-13.4526
-13.7387
-14.0777
-14.3825
-14.5557
-14.5752
-14.4597
-14.257
-14.027
-13.7763
-13.5377
-13.3487
-13.2249
-13.1629
-13.1411
-13.1309
-13.1254
-13.1248
-13.6393
-13.6365
-13.6332
-13.6304
-13.6321
-13.6614
-13.7621
-13.9764
-14.2931
-14.6608
-15.0309
-15.3598
-15.6024
-15.6908
-15.6258
-15.4164
-15.08
-14.6789
-14.254
-13.9487
-13.8476
-13.7967
-13.7378
-13.7073
-13.6917
-13.684
-13.6852
-13.6925
-13.7017
-13.7113
-13.7204
-13.7284
-13.7359
-13.7444
-13.7543
-13.765
-13.773
-13.777
-13.7784
-13.7781
-13.7777
-13.7773
-13.7762
-13.7737
-13.7679
-13.7589
-13.7477
-13.738
-13.7295
-13.7216
-13.7132
-13.7042
-13.6956
-13.6887
-13.6862
-13.6941
-13.7149
-13.7444
-13.7871
-13.8395
-13.8691
-14.0124
-14.367
-14.7806
-15.1691
-15.4665
-15.5999
-15.5518
-15.3573
-15.0832
-14.7528
-14.3878
-14.0384
-13.784
-13.6553
-13.6109
-13.6013
-13.6005
-13.6016
-13.6037
-14.1372
-14.1336
-14.1281
-14.1224
-14.1216
-14.1461
-14.2546
-14.5182
-14.921
-15.3729
-15.7881
-16.1195
-16.3481
-16.4433
-16.4068
-16.2598
-15.9739
-15.5307
-15.0223
-14.6437
-14.4596
-14.3511
-14.2755
-14.2374
-14.2154
-14.2022
-14.1976
-14.2003
-14.2062
-14.2133
-14.2206
-14.2276
-14.2346
-14.242
-14.25
-14.2584
-14.2647
-14.2685
-14.2701
-14.2696
-14.2696
-14.2691
-14.2683
-14.2659
-14.261
-14.2534
-14.245
-14.237
-14.2294
-14.2223
-14.2152
-14.2085
-14.2028
-14.1999
-14.2031
-14.2179
-14.2439
-14.2787
-14.334
-14.4303
-14.5383
-14.7263
-15.1438
-15.6451
-16.0513
-16.2817
-16.3655
-16.3192
-16.1487
-15.8861
-15.5371
-15.1063
-14.6573
-14.3132
-14.1474
-14.1
-14.0932
-14.0955
-14.0992
-14.1022
-14.6538
-14.6515
-14.6483
-14.6471
-14.6546
-14.6919
-14.8239
-15.1317
-15.5899
-16.0909
-16.5264
-16.8462
-17.037
-17.1043
-17.0539
-16.9205
-16.7052
-16.3147
-15.7841
-15.31
-15.055
-14.9189
-14.832
-14.7789
-14.7456
-14.7252
-14.7148
-14.7126
-14.715
-14.7193
-14.7244
-14.73
-14.7357
-14.7418
-14.7481
-14.7543
-14.7593
-14.7625
-14.764
-14.7633
-14.7638
-14.7635
-14.7628
-14.7607
-14.7566
-14.7509
-14.7445
-14.7381
-14.732
-14.7263
-14.7212
-14.717
-14.7146
-14.7157
-14.724
-14.7441
-14.7753
-14.8177
-14.8841
-15.0023
-15.1554
-15.3937
-15.8794
-16.4284
-16.796
-16.9814
-17.0584
-17.0453
-16.9193
-16.6795
-16.3146
-15.8351
-15.3276
-14.9175
-14.7078
-14.6399
-14.6233
-14.6204
-14.6214
-14.623
-15.1857
-15.186
-15.1881
-15.196
-15.2176
-15.2737
-15.4222
-15.7435
-16.2289
-16.7517
-17.1874
-17.4982
-17.678
-17.7272
-17.6448
-17.4702
-17.2711
-16.9726
-16.4703
-15.972
-15.6811
-15.505
-15.4011
-15.3282
-15.2806
-15.2516
-15.2353
-15.2283
-15.2268
-15.228
-15.2308
-15.2344
-15.2386
-15.2432
-15.2478
-15.2522
-15.2562
-15.2585
-15.2597
-15.2593
-15.2599
-15.2598
-15.2593
-15.2576
-15.2542
-15.2501
-15.2454
-15.2407
-15.2363
-15.2325
-15.2296
-15.2283
-15.2294
-15.2347
-15.2479
-15.2734
-15.3121
-15.3678
-15.4511
-15.5739
-15.7544
-16.0538
-16.5835
-17.1224
-17.4367
-17.6142
-17.7237
-17.744
-17.6436
-17.4045
-17.0294
-16.5236
-15.9735
-15.5378
-15.3066
-15.216
-15.1829
-15.1695
-15.1642
-15.1627
-15.7261
-15.7295
-15.7377
-15.7551
-15.7903
-15.8618
-16.0148
-16.3184
-16.7844
-17.2873
-17.7051
-18.0068
-18.1819
-18.2154
-18.1102
-17.9044
-17.6952
-17.4745
-17.0476
-16.6061
-16.2967
-16.0868
-15.9639
-15.874
-15.815
-15.7785
-15.757
-15.7457
-15.7404
-15.7385
-15.7387
-15.7403
-15.7428
-15.7457
-15.7488
-15.7517
-15.7545
-15.7561
-15.757
-15.7569
-15.7576
-15.7576
-15.7571
-15.7558
-15.7534
-15.7506
-15.7475
-15.7444
-15.7418
-15.74
-15.7395
-15.741
-15.7457
-15.7552
-15.773
-15.8037
-15.8507
-15.92
-16.0223
-16.1588
-16.3747
-16.6847
-17.194
-17.7224
-17.9825
-18.1408
-18.2884
-18.3415
-18.2486
-17.9981
-17.6103
-17.0931
-16.5488
-16.1437
-15.9115
-15.8043
-15.7557
-15.7309
-15.7185
-15.7134
-16.2679
-16.274
-16.2872
-16.3119
-16.3562
-16.435
-16.5803
-16.8409
-17.2433
-17.6827
-18.0608
-18.3456
-18.5132
-18.5435
-18.4495
-18.2611
-18.0451
-17.8546
-17.5487
-17.1722
-16.8495
-16.6411
-16.507
-16.4087
-16.3438
-16.3031
-16.278
-16.263
-16.2544
-16.2496
-16.2474
-16.2469
-16.2476
-16.249
-16.2506
-16.2523
-16.2541
-16.2551
-16.2557
-16.2557
-16.2563
-16.2564
-16.256
-16.2551
-16.2535
-16.2519
-16.2502
-16.2487
-16.2478
-16.248
-16.2499
-16.2542
-16.262
-16.2752
-16.2969
-16.3315
-16.3842
-16.4627
-16.5775
-16.7271
-16.9539
-17.2687
-17.716
-18.2035
-18.3958
-18.5451
-18.723
-18.773
-18.6683
-18.4132
-18.0223
-17.5313
-17.0596
-16.7137
-16.496
-16.3852
-16.3261
-16.2924
-16.2743
-16.2659
-16.8049
-16.8139
-16.8299
-16.8585
-16.9063
-16.9834
-17.1116
-17.3195
-17.6287
-17.9838
-18.3093
-18.5624
-18.7119
-18.7449
-18.6805
-18.5411
-18.361
-18.1779
-17.9559
-17.6448
-17.3517
-17.1571
-17.0259
-16.9291
-16.8645
-16.8236
-16.7966
-16.7791
-16.7677
-16.7604
-16.7561
-16.7537
-16.7527
-16.7526
-16.753
-16.7536
-16.7544
-16.7549
-16.7553
-16.7553
-16.7557
-16.7559
-16.7556
-16.755
-16.7543
-16.7537
-16.7533
-16.7532
-16.754
-16.7561
-16.76
-16.7666
-16.7772
-16.7932
-16.8176
-16.8542
-16.908
-16.9891
-17.1066
-17.2603
-17.475
-17.8018
-18.1998
-18.5738
-18.7204
-18.8566
-18.991
-19.0212
-18.9126
-18.6738
-18.3205
-17.9004
-17.5188
-17.2348
-17.0508
-16.9467
-16.8834
-16.8454
-16.824
-16.8124
-17.3341
-17.346
-17.3626
-17.3918
-17.4381
-17.5089
-17.6154
-17.7734
-17.9966
-18.2671
-18.5303
-18.7397
-18.8703
-18.9115
-18.8739
-18.7747
-18.6343
-18.4727
-18.2885
-18.0448
-17.8125
-17.6428
-17.5239
-17.4376
-17.3773
-17.3405
-17.3123
-17.2929
-17.2795
-17.2703
-17.2642
-17.2601
-17.2576
-17.2562
-17.2555
-17.2551
-17.2551
-17.2552
-17.2552
-17.2553
-17.2556
-17.2559
-17.2556
-17.2555
-17.2555
-17.2558
-17.2565
-17.2577
-17.2599
-17.2636
-17.2692
-17.2778
-17.2903
-17.3083
-17.3341
-17.3714
-17.4208
-17.4985
-17.6088
-17.7576
-17.9624
-18.2572
-18.5997
-18.8658
-18.9879
-19.0929
-19.1682
-19.1587
-19.052
-18.8491
-18.5643
-18.2416
-17.944
-17.7218
-17.5776
-17.484
-17.4236
-17.3854
-17.3638
-17.3486
-17.8558
-17.8686
-17.8848
-17.9125
-17.9547
-18.0159
-18.1021
-18.2212
-18.3795
-18.574
-18.7728
-18.9369
-19.0464
-19.0916
-19.0747
-19.0045
-18.8945
-18.7569
-18.601
-18.4249
-18.251
-18.1129
-18.0129
-17.9401
-17.8876
-17.851
-17.824
-17.8039
-17.7893
-17.7788
-17.7713
-17.7659
-17.7621
-17.7596
-17.7579
-17.7567
-17.756
-17.7556
-17.7554
-17.7554
-17.7558
-17.756
-17.7559
-17.7561
-17.7568
-17.7579
-17.7594
-17.7618
-17.7652
-17.7701
-17.7772
-17.7871
-17.8008
-17.8197
-17.8456
-17.8804
-17.9277
-17.9956
-18.0905
-18.2193
-18.3933
-18.6275
-18.8947
-19.0928
-19.2013
-19.2795
-19.3171
-19.2901
-19.1933
-19.0299
-18.8108
-18.5739
-18.3583
-18.1943
-18.0814
-18.0017
-17.9477
-17.9121
-17.8913
-17.8747
-18.3707
-18.3825
-18.3977
-18.4229
-18.4598
-18.5111
-18.5801
-18.67
-18.7822
-18.9151
-19.0541
-19.1773
-19.2654
-19.3093
-19.3048
-19.256
-19.1731
-19.0664
-18.9449
-18.8141
-18.6872
-18.5814
-18.5005
-18.4394
-18.3932
-18.3586
-18.3323
-18.3121
-18.2967
-18.2858
-18.2771
-18.2707
-18.2659
-18.2625
-18.26
-18.2582
-18.2569
-18.2561
-18.2557
-18.2554
-18.2559
-18.2562
-18.2561
-18.2568
-18.258
-18.2597
-18.262
-18.2652
-18.2696
-18.2755
-18.2836
-18.2944
-18.3087
-18.3277
-18.3528
-18.3856
-18.4286
-18.4864
-18.5637
-18.6657
-18.8002
-18.9732
-19.159
-19.306
-19.4054
-19.4707
-19.4969
-19.4738
-19.3899
-19.2576
-19.0964
-18.929
-18.7789
-18.6599
-18.571
-18.5053
-18.4586
-18.4268
-18.4076
-18.3922
-18.8796
-18.8894
-18.9033
-18.9254
-18.9568
-18.9992
-19.054
-19.1223
-19.2033
-19.2947
-19.3891
-19.4741
-19.5377
-19.5722
-19.5738
-19.545
-19.4887
-19.411
-19.3207
-19.2251
-19.1325
-19.0519
-18.9868
-18.9353
-18.8945
-18.8625
-18.8374
-18.8177
-18.8024
-18.7906
-18.7814
-18.7743
-18.7689
-18.7648
-18.7617
-18.7593
-18.7576
-18.7565
-18.7559
-18.7554
-18.7558
-18.756
-18.7563
-18.7573
-18.7589
-18.7612
-18.7641
-18.7681
-18.7729
-18.7796
-18.7883
-18.7995
-18.814
-18.8327
-18.8566
-18.887
-18.9256
-18.9748
-19.0375
-19.1167
-19.2164
-19.337
-19.4641
-19.5742
-19.6573
-19.7093
-19.7264
-19.7036
-19.6411
-19.5466
-19.4338
-19.317
-19.2105
-19.1221
-19.0526
-18.9992
-18.9599
-18.9323
-18.9149
-18.9022
-19.3834
-19.391
-19.4033
-19.4223
-19.4487
-19.4833
-19.5268
-19.5791
-19.639
-19.704
-19.7695
-19.8282
-19.8729
-19.8982
-19.9015
-19.8828
-19.8439
-19.7891
-19.7239
-19.6542
-19.5857
-19.5238
-19.4712
-19.4277
-19.392
-19.363
-19.3395
-19.3207
-19.3057
-19.2938
-19.2843
-19.2768
-19.2709
-19.2663
-19.2628
-19.26
-19.258
-19.2565
-19.2558
-19.255
-19.2552
-19.2557
-19.2563
-19.2576
-19.2595
-19.2621
-19.2655
-19.2698
-19.2753
-19.2824
-19.2914
-19.3027
-19.317
-19.3349
-19.3573
-19.385
-19.4193
-19.4614
-19.5129
-19.5752
-19.6498
-19.7353
-19.8233
-19.9022
-19.9635
-19.9996
-20.0133
-19.9963
-19.9522
-19.8869
-19.8088
-19.7271
-19.6506
-19.5845
-19.5302
-19.4871
-19.4545
-19.4311
-19.4158
-19.4061
-19.8832
-19.8887
-19.8995
-19.9155
-19.9374
-19.9656
-20.0001
-20.0405
-20.0856
-20.1332
-20.1802
-20.2219
-20.2538
-20.2723
-20.2756
-20.2625
-20.2352
-20.1961
-20.1486
-20.0969
-20.0451
-19.9969
-19.9542
-19.9175
-19.8865
-19.8605
-19.8391
-19.8214
-19.807
-19.7953
-19.7858
-19.7781
-19.772
-19.7671
-19.7632
-19.7601
-19.7578
-19.7562
-19.7553
-19.7543
-19.7545
-19.7551
-19.7559
-19.7574
-19.7596
-19.7625
-19.7661
-19.7708
-19.7766
-19.7839
-19.7929
-19.8041
-19.8178
-19.8347
-19.8553
-19.8803
-19.9104
-19.9464
-19.9889
-20.0385
-20.0953
-20.1575
-20.22
-20.2765
-20.3213
-20.3502
-20.3569
-20.3442
-20.3131
-20.2675
-20.2125
-20.1544
-20.0986
-20.0486
-20.0062
-19.9717
-19.945
-19.9254
-19.9122
-19.9052
-20.3799
-20.3838
-20.3928
-20.4063
-20.4243
-20.4472
-20.4746
-20.506
-20.5404
-20.576
-20.6104
-20.6407
-20.6639
-20.6775
-20.68
-20.6708
-20.6511
-20.6226
-20.5874
-20.5486
-20.509
-20.471
-20.4362
-20.4054
-20.3787
-20.3558
-20.3364
-20.3201
-20.3065
-20.2952
-20.2859
-20.2782
-20.272
-20.267
-20.2629
-20.2597
-20.2572
-20.2554
-20.2543
-20.2532
-20.2534
-20.2541
-20.2551
-20.2568
-20.2591
-20.2622
-20.266
-20.2708
-20.2768
-20.2841
-20.2929
-20.3037
-20.3168
-20.3324
-20.3512
-20.3735
-20.3997
-20.4303
-20.4656
-20.5054
-20.5495
-20.5959
-20.6416
-20.6826
-20.7151
-20.7364
-20.7409
-20.7315
-20.7094
-20.6768
-20.6374
-20.5951
-20.5535
-20.5154
-20.4821
-20.4545
-20.4328
-20.4165
-20.4055
-20.4008
-20.8743
-20.8769
-20.8844
-20.8956
-20.9104
-20.9288
-20.9506
-20.9752
-21.0017
-21.0286
-21.0542
-21.0766
-21.0936
-21.1036
-21.1055
-21.0988
-21.0844
-21.0632
-21.0368
-21.0072
-20.9765
-20.9463
-20.918
-20.8922
-20.8693
-20.8493
-20.8319
-20.817
-20.8044
-20.7937
-20.7847
-20.7773
-20.7711
-20.766
-20.7619
-20.7586
-20.756
-20.7541
-20.7528
-20.7518
-20.7519
-20.7528
-20.7539
-20.7557
-20.7581
-20.7613
-20.7652
-20.77
-20.7759
-20.783
-20.7916
-20.8019
-20.814
-20.8285
-20.8454
-20.8651
-20.8878
-20.9138
-20.9429
-20.9751
-21.0096
-21.045
-21.0791
-21.1093
-21.1329
-21.1479
-21.1517
-21.1452
-21.1293
-21.1057
-21.0769
-21.0456
-21.0143
-20.9849
-20.9588
-20.9367
-20.9191
-20.9057
-20.8968
-20.8938
-21.367
-21.3686
-21.3747
-21.3839
-21.396
-21.411
-21.4284
-21.4477
-21.4681
-21.4887
-21.5081
-21.5248
-21.5374
-21.5448
-21.5461
-21.5412
-21.5304
-21.5144
-21.4943
-21.4714
-21.4473
-21.4232
-21.4
-21.3785
-21.3589