/*--------------------------------*- C++ -*----------------------------------*\
| =========                 |                                                 |
| \\      /  F ield         | OpenFOAM: The Open Source CFD Toolbox           |
|  \\    /   O peration     | Version:  2412                                  |
|   \\  /    A nd           | Website:  www.openfoam.com                      |
|    \\/     M anipulation  |                                                 |
\*---------------------------------------------------------------------------*/
FoamFile
{
    version     2.0;
    format      ascii;
    arch        "LSB;label=32;scalar=64";
    class       volScalarField;
    location    "6.45";
    object      alpha.honey;
}
// * * * * * * * * * * * * * * * * * * * * * * * * * * * * * * * * * * * * * //

dimensions      [0 0 0 0 0 0 0];

internalField   nonuniform List<scalar> 
6400
(
1
1
1
1
1
1
1
1
1
1
1
1
1
1
1
1
1
1
1
1
1
1
1
1
1
1
1
1
1
1
1
1
1
1
1
1
1
1
1
1
1
1
1
1
1
1
1
1
1
1
1
1
1
1
1
1
1
1
1
1
1
1
1
1
1
1
1
1
1
1
1
1
1
1
1
1
1
1
1
1
1
1
1
1
1
1
1
1
1
1
1
1
1
1
1
1
1
1
1
1
1
1
1
1
1
1
1
1
1
1
1
1
1
1
1
1
1
1
1
1
1
1
1
1
1
1
1
1
1
1
1
1
1
1
1
1
1
1
1
1
1
1
1
1
1
1
1
1
1
1
1
1
1
1
1
1
1
1
1
1
1
1
1
1
1
1
1
1
1
1
1
1
1
1
1
1
1
1
1
1
1
1
1
1
1
1
1
1
1
1
1
1
1
1
1
1
1
1
1
1
1
1
1
1
1
1
1
1
1
1
1
1
1
1
1
1
1
1
1
1
1
1
1
1
1
1
1
1
1
1
1
1
1
1
1
1
1
1
1
1
1
1
1
1
1
1
1
1
1
1
1
1
1
1
1
1
1
1
1
1
1
1
1
1
1
1
1
1
1
1
1
1
1
1
1
1
1
1
1
1
1
1
1
1
1
1
1
1
1
1
1
1
1
1
1
1
1
1
1
1
1
1
1
1
1
1
1
1
1
1
1
1
1
1
1
1
1
1
1
1
1
1
1
1
1
1
1
1
1
1
1
1
1
1
1
1
1
1
1
1
1
1
1
1
1
1
1
1
1
1
1
1
1
1
1
1
1
1
1
1
1
1
1
1
1
1
1
1
1
1
1
1
1
1
1
1
1
1
1
1
1
1
1
1
1
1
1
1
1
1
1
1
1
1
1
1
1
1
1
1
1
1
1
1
1
1
1
1
1
1
1
1
1
1
1
1
1
1
1
1
1
1
1
1
1
1
1
1
1
1
1
1
1
1
1
1
1
1
1
1
1
1
1
1
1
1
1
1
1
1
1
1
1
1
1
1
1
1
1
1
1
1
1
1
1
1
1
1
1
1
1
1
1
1
1
1
1
1
1
1
1
1
1
1
1
1
1
1
1
1
1
1
1
1
1
1
1
1
1
1
1
1
1
1
1
1
1
1
1
1
1
1
1
1
1
1
1
1
1
1
1
1
1
1
1
1
1
1
1
1
1
1
1
1
1
1
1
1
1
1
1
1
1
1
1
1
1
1
1
1
1
1
1
1
1
1
1
1
1
1
1
1
1
1
1
1
1
1
1
1
1
1
1
1
1
1
1
1
1
1
1
1
1
1
1
1
1
1
1
1
1
1
1
1
1
1
1
1
1
1
1
1
1
1
1
1
1
1
1
1
1
1
1
1
1
1
1
1
1
1
1
1
1
1
1
1
1
1
1
1
1
1
1
1
1
1
1
1
1
1
1
1
1
1
1
1
1
1
1
1
1
1
1
1
1
1
1
1
1
1
1
1
1
1
1
1
1
1
1
1
1
1
1
1
1
1
1
1
1
1
1
1
1
1
1
1
1
1
1
1
1
1
1
1
1
1
1
1
1
1
1
1
1
1
1
1
1
1
1
1
1
1
1
1
1
1
1
1
1
1
1
1
1
1
1
1
1
1
1
1
1
1
1
1
1
1
1
1
1
1
1
1
1
1
1
1
1
1
1
1
1
1
1
1
1
1
1
1
1
1
1
1
1
1
1
1
1
1
1
1
1
1
1
1
1
1
1
1
1
1
1
1
1
1
1
1
1
1
1
1
1
1
1
1
1
1
1
1
1
1
1
1
1
1
1
1
1
1
1
1
1
1
1
1
1
1
1
1
1
1
1
1
1
1
1
1
1
1
1
1
1
1
1
1
1
1
1
1
1
1
1
1
1
1
1
1
1
1
1
1
1
1
1
1
1
1
1
1
1
1
1
1
1
1
1
1
1
1
1
1
1
1
1
1
1
1
1
1
1
1
1
1
1
1
1
1
1
1
1
1
1
1
1
1
1
1
1
1
1
1
1
1
1
1
1
1
1
1
1
1
1
1
1
1
1
1
1
1
1
1
1
1
1
1
1
1
1
1
1
1
1
1
1
1
1
1
1
1
1
1
1
1
1
1
1
1
1
1
1
1
1
1
1
1
1
1
1
1
1
1
1
1
1
1
1
1
1
1
1
1
1
1
1
1
1
1
1
1
1
1
1
1
1
1
1
1
1
1
1
1
1
1
1
1
1
1
1
1
1
1
1
1
1
1
1
1
1
1
1
1
1
1
1
1
1
1
1
1
1
1
1
1
1
1
1
1
1
1
1
1
1
1
1
1
1
1
1
1
1
1
1
1
1
1
1
1
1
1
1
1
1
1
1
1
1
1
1
1
1
1
1
1
1
1
1
1
1
1
1
1
1
1
1
1
1
1
1
1
1
1
1
1
1
1
1
1
1
1
1
1
1
1
1
1
1
1
1
1
1
1
1
1
1
1
1
1
1
1
1
1
1
1
1
1
1
1
1
1
1
1
1
1
1
1
1
1
1
1
1
1
1
1
1
1
1
1
1
1
1
1
1
1
1
1
1
1
1
1
1
1
1
1
1
1
1
1
1
1
1
1
1
1
1
1
1
1
1
1
1
1
1
1
1
1
1
1
1
1
1
1
1
1
1
1
1
1
1
1
1
1
1
1
1
1
1
1
1
1
1
1
1
1
1
1
1
1
1
1
1
1
1
1
1
1
1
1
1
1
1
1
1
1
1
1
1
1
1
1
1
1
1
1
1
1
1
1
1
1
1
1
1
1
1
1
1
1
1
1
1
1
1
1
1
1
1
1
1
1
1
1
1
1
1
1
1
1
1
1
1
1
1
1
1
1
1
1
1
1
1
1
1
1
1
1
1
1
1
1
1
1
1
1
1
1
1
1
1
1
1
1
1
1
1
1
1
1
1
1
1
1
1
1
1
1
1
1
1
1
1
1
1
1
1
1
1
1
1
1
1
1
1
1
1
1
1
1
1
1
1
1
1
1
1
1
1
1
1
1
1
1
1
1
1
1
1
1
1
1
1
1
1
1
1
1
1
1
1
1
1
1
1
1
1
1
1
1
1
1
1
1
1
1
1
1
1
1
1
1
1
1
1
1
1
1
1
1
1
1
1
1
1
1
1
1
1
1
1
1
1
1
1
1
1
1
1
1
1
1
1
1
1
1
1
1
1
1
1
1
1
1
1
1
1
1
1
1
1
1
1
1
1
1
1
1
1
1
1
1
1
1
1
1
1
1
1
1
1
1
1
1
1
1
1
1
1
1
1
1
1
1
1
1
1
1
1
1
1
1
1
1
1
1
1
1
1
1
1
1
1
1
1
1
1
1
1
1
1
1
1
1
1
1
1
1
1
1
1
1
1
1
1
1
1
1
1
1
1
1
1
1
1
1
1
1
1
1
1
1
1
1
1
1
1
1
1
1
1
1
1
1
1
1
1
1
1
1
1
1
1
1
1
1
1
1
1
1
0.999995
0.999144
0.999399
0.999363
0.999371
0.999416
0.999198
1
1
1
1
1
1
1
1
1
1
1
1
1
1
1
1
1
1
1
1
1
1
1
1
1
1
1
1
1
1
1
1
1
1
1
1
1
6.36202e-06
9.82807e-06
1.19395e-05
1.33973e-05
1.44595e-05
1.53097e-05
1.60528e-05
1.67493e-05
1.74394e-05
1.81528e-05
1.8913e-05
1.97402e-05
2.06533e-05
2.16712e-05
2.28138e-05
2.41042e-05
2.55694e-05
2.7244e-05
2.91713e-05
3.14074e-05
3.40256e-05
3.71237e-05
4.08322e-05
4.53245e-05
5.08337e-05
5.76727e-05
6.62542e-05
7.7104e-05
9.08524e-05
0.000108191
0.000129742
0.000155446
0.0001844
0.000207964
0.000222941
0.000186245
4.97211e-05
2.41658e-07
2.41658e-07
2.41658e-07
2.45656e-07
2.49654e-07
2.49654e-07
6.76608e-05
0.000191075
0.00022706
0.000205095
0.000178403
0.000148779
0.000122749
0.000101418
8.46052e-05
7.15088e-05
6.12992e-05
5.32797e-05
4.69173e-05
4.18214e-05
3.76984e-05
3.43264e-05
3.15407e-05
2.92169e-05
2.72598e-05
2.5594e-05
2.41617e-05
2.29195e-05
2.18322e-05
2.08699e-05
2.00068e-05
1.92229e-05
1.84984e-05
1.78161e-05
1.71592e-05
1.6507e-05
1.58366e-05
1.51125e-05
1.42772e-05
1.32351e-05
1.1812e-05
9.74107e-06
6.34392e-06
1.10224e-22
1.43392e-20
9.53249e-18
3.99041e-17
6.38255e-17
7.15098e-17
7.20501e-17
7.20554e-17
7.07565e-17
6.08934e-17
3.95364e-17
2.17825e-17
2.81858e-18
8.92115e-23
8.94079e-23
1.0166e-22
7.67745e-22
3.29998e-20
1.42108e-18
5.35852e-17
6.32839e-16
1.59354e-15
2.70335e-15
4.47881e-15
3.93689e-15
4.19094e-14
8.07091e-13
1.36853e-11
1.95405e-10
1.81914e-09
4.34752e-09
1.25655e-08
1.75205e-07
3.5904e-07
2.90444e-06
4.25248e-05
0.0007315
0.000666595
2.41658e-07
3.50388e-07
3.5084e-07
2.49654e-07
0.00052922
0.000632684
2.55079e-05
2.8565e-06
7.05836e-07
1.99587e-07
2.77544e-08
4.30311e-09
2.22535e-09
6.24883e-10
5.91188e-11
5.20507e-12
2.90581e-13
1.43747e-14
6.46161e-16
2.65082e-17
9.92663e-19
3.79178e-20
4.86681e-21
2.93638e-21
1.96254e-21
1.34351e-21
9.41796e-22
6.81958e-22
4.40561e-22
2.835e-22
2.62918e-22
2.62492e-22
2.6247e-22
2.62454e-22
2.6247e-22
2.62475e-22
2.62475e-22
2.62475e-22
2.62475e-22
2.62473e-22
2.62473e-22
2.62473e-22
1.10224e-22
1.10224e-22
7.56361e-21
3.23284e-20
5.36098e-20
4.87542e-20
1.8808e-20
-9.64282e-21
3.64381e-20
6.73196e-20
5.05226e-20
3.06611e-20
-2.0309e-22
8.9227e-23
8.92256e-23
8.94204e-23
1.01665e-22
7.67741e-22
3.29996e-20
3.51851e-19
3.44434e-18
2.36912e-17
3.29887e-16
2.27648e-15
3.93689e-15
3.93689e-15
9.847e-14
6.15472e-12
2.6279e-11
3.17112e-10
2.89945e-09
1.63605e-08
1.45162e-07
1.40265e-06
7.53384e-06
3.55537e-05
0.000939431
0.00484291
0.00105188
0.000894771
0.000893972
0.00107548
0.0048817
0.000897288
3.44736e-05
7.74569e-06
1.48946e-06
1.53148e-07
2.51947e-08
4.69418e-09
9.00343e-10
1.13162e-10
1.98213e-11
3.53594e-12
1.43738e-14
6.4613e-16
2.65079e-17
9.92663e-19
3.79179e-20
4.86683e-21
2.93639e-21
2.30868e-21
1.58155e-21
1.09284e-21
7.83856e-22
5.7636e-22
3.01827e-22
2.62913e-22
2.62486e-22
2.62478e-22
2.62477e-22
2.62476e-22
2.62476e-22
2.62476e-22
2.62475e-22
2.62475e-22
2.62475e-22
2.62475e-22
2.62474e-22
2.62475e-22
1.67769e-22
2.07555e-22
1.46275e-22
3.10846e-22
3.82706e-22
4.2944e-22
5.76994e-22
7.99337e-22
9.09552e-22
8.2956e-22
1.29321e-21
1.81517e-21
3.1147e-21
4.99549e-21
8.1962e-21
1.34918e-20
2.16206e-20
3.42271e-20
5.70834e-20
1.20242e-19
4.60945e-19
4.9067e-18
1.0796e-16
2.34035e-15
4.5672e-14
8.1675e-13
7.95741e-12
3.28583e-11
1.7463e-10
1.06015e-09
7.72953e-09
4.81849e-08
2.35505e-07
1.43223e-06
7.43439e-06
9.4476e-06
4.48991e-05
0.00494382
0.0604277
0.0245407
0.0239659
0.0583112
0.00687904
5.74258e-05
1.49758e-05
6.86364e-06
1.2973e-06
3.27301e-07
6.50017e-08
1.14324e-08
1.66405e-09
2.8604e-10
4.10483e-11
1.18962e-11
1.57099e-12
9.87759e-14
5.34027e-15
2.57407e-16
1.14927e-17
8.63507e-19
2.90586e-19
1.57086e-19
8.35646e-20
5.24713e-20
4.14196e-20
3.02851e-20
1.79834e-20
9.48243e-21
5.27181e-21
3.3409e-21
2.27077e-21
1.56323e-21
1.0789e-21
7.75744e-22
5.75176e-22
4.27381e-22
3.20093e-22
2.62876e-22
3.05357e-22
2.82871e-22
5.82059e-24
8.44586e-24
3.36843e-24
5.03633e-24
6.9381e-24
9.60423e-24
1.40556e-23
2.0668e-23
2.7507e-23
3.7145e-23
6.18222e-23
1.00756e-22
1.67175e-22
3.02072e-22
5.54867e-22
1.01981e-21
1.83699e-21
3.3083e-21
6.42023e-21
1.56466e-20
1.2053e-19
2.84345e-18
7.30203e-17
1.68048e-15
3.3194e-14
5.6473e-13
7.34165e-12
4.76374e-11
1.53261e-10
9.09838e-10
1.4141e-08
5.47583e-08
8.80326e-08
8.56743e-08
1.77974e-07
1.37914e-07
4.84642e-06
0.00252557
0.367951
0.305419
0.303983
0.364867
0.00641148
1.24928e-05
5.32431e-07
9.45853e-08
6.63284e-08
1.38281e-07
1.3976e-07
3.17013e-08
1.00545e-09
1.91583e-10
6.98175e-11
1.31015e-11
1.16487e-12
7.31897e-14
3.96743e-15
1.85088e-16
7.58039e-18
3.26415e-19
4.11135e-20
1.68509e-20
7.72966e-21
3.99944e-21
2.80087e-21
1.9272e-21
1.08417e-21
5.06922e-22
2.39804e-22
1.32917e-22
8.17981e-23
5.17191e-23
3.32416e-23
2.25235e-23
1.62116e-23
1.22024e-23
9.83762e-24
8.44341e-24
1.00146e-23
6.53306e-24
5.54522e-27
1.00023e-26
4.16394e-27
6.12506e-27
8.87533e-27
1.29151e-26
1.93095e-26
2.94905e-26
4.2758e-26
6.39879e-26
1.20987e-25
2.24138e-25
4.21061e-25
9.4091e-25
2.12647e-24
4.79046e-24
1.06346e-23
2.49592e-23
7.87491e-23
7.62123e-22
2.29471e-20
7.71819e-19
2.19864e-17
5.24063e-16
1.05844e-14
1.81785e-13
2.6138e-12
2.44722e-11
1.16364e-10
5.94682e-10
2.77957e-09
3.40049e-09
2.25967e-09
9.3503e-10
1.94671e-10
3.38721e-09
1.37852e-07
0.0015251
0.410539
0.41054
0.410539
0.410539
0.00597068
5.32456e-07
3.02521e-08
1.95175e-09
1.09236e-09
3.1355e-09
2.67799e-08
1.77492e-08
2.80975e-09
2.10381e-10
4.43698e-11
5.71356e-12
4.45021e-13
2.7673e-14
1.45025e-15
6.46675e-17
2.47476e-18
8.08274e-20
2.57219e-21
2.17836e-22
6.13602e-23
2.36171e-23
1.26838e-23
7.54267e-24
3.84175e-24
1.5083e-24
5.50782e-25
2.40511e-25
1.24553e-25
6.85547e-26
3.90308e-26
2.37081e-26
1.57075e-26
1.13103e-26
9.18457e-27
7.92428e-27
1.00444e-26
4.98969e-27
8.62382e-30
1.0565e-29
8.04318e-30
1.41428e-29
2.24567e-29
3.38048e-29
5.4211e-29
9.02516e-29
1.42432e-28
2.2553e-28
4.08522e-28
8.02054e-28
1.70502e-27
4.05803e-27
1.01519e-26
2.50748e-26
6.04061e-26
1.82799e-25
1.8573e-24
7.18396e-23
3.09377e-21
1.08988e-19
3.23336e-18
8.18368e-17
1.7562e-15
3.20441e-14
4.98493e-13
5.33052e-12
2.72599e-11
6.37103e-11
1.60775e-10
3.9801e-10
3.69304e-10
8.28935e-11
2.65124e-12
4.4699e-12
3.17586e-09
0.00135528
0.410291
0.410539
0.41054
0.410334
0.00511778
2.99178e-08
1.95175e-09
1.66528e-10
2.86505e-10
6.2831e-10
1.01755e-09
2.52478e-09
1.10249e-09
1.48441e-10
1.45304e-11
1.29759e-12
9.44396e-14
5.61912e-15
2.80866e-16
1.19997e-17
4.42148e-19
1.39606e-20
3.6725e-22
9.7962e-24
6.94341e-25
1.91651e-25
8.42112e-26
4.16201e-26
1.90297e-26
7.21155e-27
2.50176e-27
9.93729e-28
4.71802e-28
2.42801e-28
1.29312e-28
7.29497e-29
4.40048e-29
2.79315e-29
1.88959e-29
1.43136e-29
1.59691e-29
1.28915e-29
4.44108e-32
5.48996e-32
4.29839e-32
7.51054e-32
1.24674e-31
1.9755e-31
3.3571e-31
5.99273e-31
1.03316e-30
1.79826e-30
3.53298e-30
7.61337e-30
1.78348e-29
4.67986e-29
1.29087e-28
3.41008e-28
9.03286e-28
3.35052e-27
1.03445e-25
5.99792e-24
2.9993e-22
1.21308e-20
4.1417e-19
1.20242e-17
2.9406e-16
5.988e-15
9.99343e-14
1.23722e-12
9.12633e-12
3.63068e-11
9.30834e-11
1.83758e-10
1.6506e-10
1.01371e-10
2.67998e-12
1.98733e-13
8.01961e-12
0.00128803
0.407949
0.409448
0.40946
0.408201
0.00359572
2.36638e-09
1.54392e-10
1.04955e-10
2.53029e-10
3.54377e-10
4.91542e-10
4.23404e-10
2.26218e-10
3.48868e-11
2.90855e-12
2.25996e-13
1.51959e-14
8.57159e-16
4.10464e-17
1.68959e-18
6.02884e-20
1.87299e-21
5.01479e-23
1.13936e-24
3.19122e-26
3.76861e-27
1.3449e-27
5.84252e-28
2.3621e-28
8.10247e-29
2.5797e-29
9.32892e-30
4.0345e-30
1.91216e-30
9.4762e-31
5.0115e-31
2.8516e-31
1.72026e-31
1.11518e-31
8.1645e-32
8.82121e-32
7.1079e-32
2.68825e-34
3.42934e-34
2.70052e-34
4.68088e-34
8.04753e-34
1.34309e-33
2.41753e-33
4.61566e-33
8.64782e-33
1.6474e-32
3.53246e-32
8.36457e-32
2.16121e-31
6.26652e-31
1.86999e-30
5.14514e-30
1.10664e-29
9.6377e-29
6.04494e-27
3.52658e-25
2.09571e-23
1.16316e-21
5.11782e-20
1.812e-18
5.24284e-17
1.23398e-15
2.33987e-14
3.51759e-13
3.81699e-12
2.48727e-11
8.35806e-11
1.7055e-10
2.06163e-10
1.62022e-10
2.27321e-11
1.17966e-12
1.15727e-12
0.00117711
0.296941
0.381123
0.381565
0.305893
0.00183034
-2.47216e-10
6.19045e-11
1.04955e-10
3.67787e-10
4.56948e-10
4.05585e-10
1.88304e-10
4.58849e-11
5.68693e-12
4.8662e-13
3.53395e-14
2.19781e-15
1.16345e-16
5.27589e-18
2.06661e-19
7.04337e-21
2.10052e-22
5.48804e-24
1.23718e-25
2.52277e-27
1.07666e-28
2.48499e-29
9.45287e-30
3.44161e-30
1.06275e-30
3.07794e-31
1.01268e-31
3.99578e-32
1.74551e-32
8.05711e-33
4.00178e-33
2.15475e-33
1.24112e-33
7.75482e-34
5.51339e-34
5.87004e-34
4.56717e-34
1.82356e-36
2.38552e-36
1.90669e-36
3.28916e-36
5.81859e-36
1.01987e-35
1.94425e-35
3.9621e-35
8.02621e-35
1.66453e-34
3.8814e-34
1.00591e-33
2.85757e-33
9.05296e-33
2.87742e-32
7.29683e-32
1.0712e-31
2.68655e-30
2.54273e-28
1.88702e-26
1.14027e-24
9.15557e-23
5.86749e-21
2.59654e-19
8.90507e-18
2.43389e-16
5.3563e-15
9.59801e-14
1.33133e-12
1.17726e-11
5.48078e-11
1.34748e-10
1.88151e-10
1.49975e-10
3.78418e-11
1.7584e-12
1.70859e-12
0.00123732
0.0116681
0.0559882
0.0563844
0.0146904
0.00068589
-5.11921e-10
4.37047e-11
1.15557e-10
3.49025e-10
4.05759e-10
2.46732e-10
7.16066e-11
1.10847e-11
1.12571e-12
8.72104e-14
5.68403e-15
3.19099e-16
1.54497e-17
6.47219e-19
2.36031e-20
7.53766e-22
2.11723e-23
5.24139e-25
1.13818e-26
2.15197e-28
4.7911e-30
5.13275e-31
1.61468e-31
5.39021e-32
1.52198e-32
4.02153e-33
1.20887e-33
4.37336e-34
1.76758e-34
7.62162e-35
3.56403e-35
1.81969e-35
1.00204e-35
6.03638e-36
4.1696e-36
4.362e-36
3.29547e-36
1.37008e-38
1.83945e-38
1.49483e-38
2.56847e-38
4.65678e-38
8.54216e-38
1.72104e-37
3.73527e-37
8.14326e-37
1.82881e-36
4.61999e-36
1.30553e-35
4.05678e-35
1.38223e-34
4.24009e-34
4.51605e-34
3.75829e-33
1.0712e-31
6.36188e-30
6.36914e-28
6.27092e-26
7.94883e-24
7.17563e-22
3.77962e-20
1.48761e-18
4.6318e-17
1.16968e-15
2.4433e-14
4.08493e-13
4.6116e-12
2.83257e-11
8.70275e-11
1.41088e-10
1.19684e-10
4.07544e-11
2.1467e-12
2.6137e-12
0.000615357
5.47243e-12
5.55297e-12
5.55297e-12
5.4372e-12
0.000154438
3.58898e-07
3.27737e-11
1.2328e-10
2.70127e-10
2.8402e-10
1.21815e-10
2.70204e-11
3.3544e-12
2.80875e-13
1.85322e-14
1.04427e-15
5.13769e-17
2.20707e-18
8.29383e-20
2.74137e-21
8.01051e-23
2.07607e-24
4.77617e-26
9.71564e-28
1.72778e-29
2.90113e-31
1.29564e-32
2.90858e-33
8.82531e-34
2.33076e-34
5.65951e-35
1.56072e-35
5.20208e-36
1.9529e-36
7.89132e-37
3.48466e-37
1.69168e-37
8.92652e-38
5.19435e-38
3.49216e-38
3.58758e-38
2.63226e-38
1.11999e-40
1.54643e-40
1.27807e-40
2.18998e-40
4.05889e-40
7.76506e-40
1.64792e-39
3.79731e-39
8.86934e-39
2.14563e-38
5.84674e-38
1.79167e-37
6.05941e-37
2.24643e-36
6.13463e-36
2.05675e-36
9.62152e-35
3.75829e-33
2.64933e-31
1.8201e-29
3.50395e-27
1.30272e-24
1.11399e-22
6.19079e-21
2.64128e-19
9.06359e-18
2.55666e-16
6.07766e-15
1.20883e-13
1.72893e-12
1.34597e-11
5.06556e-11
9.88704e-11
9.0937e-11
3.87152e-11
2.66165e-12
3.67382e-09
5.14923e-12
5.1401e-12
5.44822e-12
5.43433e-12
5.57505e-12
6.71654e-12
1.07336e-07
3.17296e-11
1.12469e-10
1.9712e-10
1.76293e-10
5.90333e-11
1.11823e-11
1.1798e-12
8.17848e-14
4.55822e-15
2.21514e-16
9.49682e-18
3.56872e-19
1.17978e-20
3.45852e-22
9.04423e-24
2.11708e-25
4.43994e-27
8.30682e-29
1.36636e-30
1.98148e-32
4.35423e-34
5.64465e-35
1.48141e-35
3.71477e-36
8.40651e-37
2.13775e-37
6.59597e-38
2.30944e-38
8.77609e-39
3.67151e-39
1.6998e-39
8.61749e-40
4.85455e-40
3.18326e-40
3.21384e-40
2.2869e-40
9.80521e-43
1.39476e-42
1.17243e-42
2.00688e-42
3.79526e-42
7.54689e-42
1.68063e-41
4.09598e-41
1.02038e-40
2.64533e-40
7.73983e-40
2.55982e-39
9.27476e-39
3.44521e-38
8.31876e-38
4.40199e-38
2.05675e-36
1.14337e-34
9.67379e-33
8.06949e-31
2.26794e-27
2.81788e-25
2.06261e-23
1.14627e-21
5.13371e-20
1.89792e-18
5.90017e-17
1.57283e-15
3.69123e-14
6.56106e-13
6.33942e-12
2.87215e-11
6.92703e-11
6.87545e-11
3.60009e-11
3.31682e-12
1.19183e-08
5.14011e-12
5.27711e-12
8.41625e-12
5.99086e-12
1.14843e-11
7.41597e-12
1.03873e-11
3.10183e-11
9.35927e-11
1.42812e-10
1.00758e-10
2.90262e-11
4.86531e-12
4.44273e-13
2.6073e-14
1.23621e-15
5.25378e-17
1.97388e-18
6.51428e-20
1.89129e-21
4.87585e-23
1.12663e-24
2.345e-26
4.40833e-28
7.47097e-30
1.12488e-31
1.45885e-33
2.00452e-35
1.2192e-36
2.54684e-37
6.02153e-38
1.29245e-38
3.05501e-39
8.76803e-40
2.87542e-40
1.03145e-40
4.10222e-41
1.81685e-41
8.87343e-42
4.85043e-42
3.10904e-42
3.08711e-42
2.12782e-42
9.07047e-45
1.33137e-44
1.13795e-44
1.9491e-44
3.75589e-44
7.73763e-44
1.80094e-43
4.6231e-43
1.22284e-42
3.38018e-42
1.0558e-41
3.75972e-41
1.50201e-40
5.06641e-40
5.20709e-40
1.09417e-39
4.40199e-38
3.35662e-36
3.75828e-34
4.27133e-30
6.60853e-28
5.82169e-26
4.03117e-24
2.28645e-22
1.08751e-20
4.35831e-19
1.49197e-17
4.46755e-16
1.19431e-14
2.54415e-13
3.01091e-12
1.63115e-11
4.72875e-11
5.51462e-11
3.30635e-11
7.64484e-12
1.28688e-08
6.33742e-12
1.84556e-11
2.44154e-11
1.61498e-11
5.35135e-11
3.90123e-11
1.35128e-11
3.04455e-11
7.56367e-11
1.00595e-10
5.56214e-11
1.44241e-11
2.17129e-12
1.73663e-13
8.82107e-15
3.68272e-16
1.37715e-17
4.56781e-19
1.33037e-20
3.40614e-22
7.75505e-24
1.58045e-25
2.90423e-27
4.83899e-29
7.32723e-31
1.00051e-32
1.18358e-34
1.22194e-36
3.12095e-38
4.58014e-39
9.7919e-40
2.01908e-40
4.48943e-41
1.20526e-41
3.7181e-42
1.2639e-42
4.79581e-43
2.03841e-43
9.61737e-44
5.11319e-44
3.21134e-44
3.13789e-44
2.09267e-44
8.7634e-47
1.32942e-46
1.15456e-46
1.98147e-46
3.88626e-46
8.26848e-46
2.00342e-45
5.39422e-45
1.50817e-44
4.42356e-44
1.46871e-43
5.5731e-43
2.31912e-42
7.69067e-42
3.27817e-42
3.44694e-41
1.09417e-39
9.63482e-36
7.71689e-33
1.39252e-30
1.38311e-28
1.16918e-26
8.28501e-25
4.97574e-23
2.56213e-21
1.13356e-19
4.26653e-18
1.39415e-16
4.11543e-15
1.01449e-13
1.44157e-12
9.26873e-12
3.13624e-11
4.53821e-11
3.09568e-11
7.68649e-12
1.23708e-08
6.33718e-12
3.22716e-11
3.82202e-11
3.96414e-11
1.35745e-10
1.20338e-10
1.43523e-11
3.02819e-11
5.71933e-11
6.88584e-11
3.11104e-11
7.30136e-12
9.91652e-13
7.00021e-14
3.13508e-15
1.1806e-16
3.99628e-18
1.1839e-19
3.03771e-21
6.89055e-23
1.38803e-24
2.50474e-26
4.07342e-28
5.99628e-30
8.03755e-32
9.82818e-34
1.06988e-35
9.5466e-38
1.10358e-39
8.70737e-41
1.59432e-41
3.16425e-42
6.69673e-43
1.69317e-43
4.93559e-44
1.59626e-44
5.79996e-45
2.37353e-45
1.08484e-45
5.62319e-46
3.46825e-46
3.33743e-46
2.15133e-46
8.75309e-49
1.37449e-48
1.21172e-48
2.08555e-48
4.15868e-48
9.11028e-48
2.28893e-47
6.43712e-47
1.89405e-46
5.86624e-46
2.06196e-45
8.32266e-45
3.46328e-44
1.08309e-43
3.90437e-44
6.00369e-43
2.37896e-40
9.39146e-36
2.17582e-33
2.58901e-31
2.72149e-29
2.41747e-27
1.84505e-25
1.21737e-23
6.89083e-22
3.32961e-20
1.36245e-18
4.78295e-17
1.52106e-15
4.20699e-14
6.9756e-13
5.22557e-12
2.03061e-11
3.70744e-11
2.86255e-11
7.77472e-12
2.4924e-09
8.85433e-12
3.57715e-11
4.31465e-11
6.81489e-11
2.29797e-10
1.76976e-10
1.8874e-11
3.20521e-11
4.70298e-11
4.48284e-11
1.73129e-11
3.75406e-12
4.63899e-13
2.89903e-14
1.15597e-15
3.98959e-17
1.24332e-18
3.34726e-20
7.73475e-22
1.55654e-23
2.77146e-25
4.43486e-27
6.38152e-29
8.31432e-31
9.85572e-33
1.06782e-34
1.05562e-36
8.87286e-39
6.28545e-41
1.8264e-42
2.64062e-43
4.92879e-44
1.00242e-44
2.40602e-45
6.65944e-46
2.05749e-46
7.18522e-47
2.84032e-47
1.26115e-47
6.38849e-48
3.87774e-48
3.67829e-48
2.28955e-48
8.95751e-51
1.45815e-50
1.30336e-50
2.25075e-50
4.55778e-50
1.02503e-49
2.66038e-49
7.78228e-49
2.39946e-48
7.8135e-48
2.89273e-47
1.22822e-46
5.11899e-46
1.47258e-45
6.78492e-46
9.86127e-45
1.14704e-40
1.17092e-36
2.13642e-34
3.31907e-32
4.21177e-30
4.42156e-28
3.9051e-26
2.92562e-24
1.86499e-22
1.00334e-20
4.52159e-19
1.72475e-17
5.85822e-16
1.76009e-14
3.32316e-13
2.86046e-12
1.26952e-11
2.93964e-11
2.66352e-11
1.04452e-11
3.59088e-12
8.96534e-12
3.38205e-11
4.39239e-11
9.30096e-11
2.94148e-10
1.90208e-10
2.24344e-11
2.95341e-11
3.97268e-11
2.76721e-11
9.44446e-12
1.98128e-12
2.23296e-13
1.22344e-14
4.37795e-16
1.40512e-17
4.05395e-19
9.98886e-21
2.09454e-22
3.79217e-24
6.02352e-26
8.47708e-28
1.07112e-29
1.2293e-31
1.28182e-33
1.22232e-35
1.07516e-37
8.53507e-40
5.22704e-42
5.04853e-44
4.48238e-45
7.59697e-46
1.49297e-46
3.42738e-47
9.05423e-48
2.68344e-48
9.04049e-49
3.46334e-49
1.49808e-49
7.43372e-50
4.449e-50
4.16515e-50
2.50125e-50
9.31681e-53
1.57447e-52
1.42511e-52
2.46932e-52
5.0716e-52
1.16764e-51
3.11904e-51
9.45201e-51
3.04096e-50
1.03656e-49
4.01876e-49
1.77044e-48
7.47353e-48
2.09294e-47
1.49332e-47
4.81265e-46
4.38097e-42
2.13476e-38
7.81205e-36
1.93561e-33
3.44859e-31
4.85061e-29
5.53471e-27
5.18622e-25
3.97883e-23
2.51554e-21
1.30861e-19
5.69738e-18
2.1493e-16
6.79356e-15
1.41707e-13
1.41516e-12
7.27968e-12
2.1819e-11
2.24105e-11
1.37028e-11
3.58887e-12
6.35013e-12
2.24879e-11
4.08775e-11
1.05529e-10
3.16917e-10
1.84483e-10
2.74356e-11
2.61591e-11
3.18485e-11
2.25289e-11
6.02533e-12
1.13164e-12
1.08051e-13
5.00152e-15
1.63768e-16
4.92858e-18
1.30093e-19
2.89182e-21
5.43934e-23
8.78296e-25
1.23291e-26
1.52335e-28
1.68018e-30
1.66988e-32
1.51234e-34
1.26191e-36
9.74514e-39
7.03149e-41
4.29623e-43
2.17706e-45
7.8634e-47
1.16586e-47
2.19896e-48
4.85657e-49
1.23107e-49
3.51487e-50
1.14663e-50
4.27077e-51
1.80464e-51
8.79233e-52
5.1975e-52
4.80904e-52
2.7838e-52
9.77841e-55
1.71789e-54
1.57247e-54
2.73308e-54
5.68535e-54
1.3363e-53
3.66084e-53
1.14468e-52
3.82672e-52
1.35888e-51
5.48116e-51
2.4979e-50
1.09437e-49
3.33251e-49
9.60768e-49
1.12345e-46
1.23148e-43
2.08705e-40
1.1657e-37
4.1877e-35
1.08793e-32
2.20987e-30
3.60303e-28
4.84879e-26
5.10079e-24
4.16685e-22
2.69697e-20
1.46164e-18
7.11718e-17
2.42877e-15
4.8086e-14
5.47662e-13
3.39664e-12
1.35765e-11
1.68696e-11
1.29235e-11
3.92895e-12
2.97334e-12
1.21966e-11
3.43243e-11
1.08716e-10
3.18042e-10
1.8148e-10
3.17818e-11
2.73253e-11
3.01343e-11
1.99931e-11
4.45162e-12
6.85817e-13
4.83791e-14
1.74852e-15
5.2632e-17
1.4652e-18
3.44515e-20
6.73782e-22
1.11398e-23
1.58095e-25
1.95446e-27
2.1307e-29
2.06958e-31
1.81319e-33
1.44801e-35
1.05957e-37
7.16243e-40
4.56526e-42
2.71174e-44
1.21117e-46
1.52838e-48
1.78492e-49
3.18874e-50
6.80221e-51
1.66281e-51
4.59328e-52
1.45633e-52
5.29058e-53
2.18984e-53
1.04991e-53
6.14067e-54
5.62277e-54
3.13479e-54
1.02886e-56
1.88172e-56
1.73949e-56
3.03089e-56
6.37593e-56
1.52579e-55
4.2721e-55
1.37274e-54
4.74702e-54
1.74783e-53
7.30072e-53
3.44994e-52
1.58058e-51
5.52086e-51
3.76003e-50
1.13338e-47
6.51092e-45
4.05327e-42
1.75206e-39
5.91389e-37
1.67619e-34
4.15605e-32
9.1056e-30
1.8704e-27
3.23505e-25
4.05222e-23
3.7175e-21
2.82458e-19
2.31163e-17
1.0199e-15
1.531e-14
1.45432e-13
1.06395e-12
6.0806e-12
9.79198e-12
8.13987e-12
3.031e-12
1.56342e-12
6.88254e-12
2.8439e-11
1.05867e-10
3.19079e-10
1.79183e-10
3.32052e-11
2.73257e-11
2.85624e-11
1.56422e-11
3.06388e-12
3.819e-13
1.84597e-14
5.18322e-16
1.41878e-17
3.61292e-19
7.76412e-21
1.3978e-22
2.14416e-24
2.85302e-26
3.35551e-28
3.50917e-30
3.2704e-32
2.7315e-34
2.05227e-36
1.39319e-38
8.57632e-41
4.81698e-43
2.49579e-45
1.13768e-47
5.75181e-50
2.75206e-51
4.54061e-52
9.36353e-53
2.2181e-53
5.95377e-54
1.84138e-54
6.54493e-55
2.66069e-55
1.25809e-55
7.29243e-56
6.61646e-56
3.54956e-56
1.07996e-58
2.0556e-58
1.9196e-58
3.34569e-58
7.10767e-58
1.72737e-57
4.92794e-57
1.62067e-56
5.76939e-56
2.19156e-55
9.43169e-55
4.60387e-54
2.19454e-53
8.84675e-53
1.52701e-51
8.69259e-49
3.30763e-46
1.10069e-43
3.67677e-41
1.06109e-38
2.65565e-36
6.05113e-34
1.31295e-31
3.26263e-29
9.82251e-27
2.37444e-24
3.89192e-22
4.75925e-20
7.65594e-18
5.17858e-16
7.39931e-15
4.04405e-14
2.10605e-13
1.58522e-12
3.47201e-12
3.02992e-12
1.22812e-12
8.11431e-13
4.65636e-12
2.49967e-11
9.37308e-11
3.19888e-10
1.84183e-10
3.06665e-11
2.25925e-11
2.25133e-11
9.06649e-12
1.57338e-12
1.64302e-13
6.85685e-15
2.12676e-16
5.78566e-18
1.44053e-19
3.15768e-21
5.85004e-23
9.15611e-25
1.22831e-26
1.43035e-28
1.45967e-30
1.31503e-32
1.04904e-34
7.43388e-37
4.70024e-39
2.65853e-41
1.34923e-43
6.16592e-46
2.55698e-48
9.31796e-51
6.26726e-53
6.34665e-54
1.2604e-54
2.90596e-55
7.61322e-56
2.3053e-56
8.04196e-57
3.21945e-57
1.50453e-57
8.65695e-58
7.79241e-58
4.01868e-58
1.12486e-60
2.22778e-60
2.10178e-60
3.65619e-60
7.83228e-60
1.9282e-59
5.58681e-59
1.873e-58
6.83127e-58
2.66384e-57
1.17519e-56
5.88773e-56
2.89789e-55
1.3287e-54
5.17947e-53
3.18592e-50
1.02394e-47
2.76916e-45
8.04913e-43
2.14202e-40
4.94264e-38
2.50465e-36
3.82654e-34
1.10281e-31
9.15013e-29
6.19042e-26
2.55766e-23
6.00559e-21
2.08915e-18
2.4761e-16
4.18968e-15
2.35861e-14
6.33937e-14
2.53449e-13
6.37446e-13
5.96549e-13
3.63271e-13
5.03471e-13
3.9757e-12
2.37004e-11
7.92549e-11
3.20133e-10
1.97542e-10
2.76692e-11
1.48327e-11
1.20276e-11
3.3647e-12
5.57001e-13
5.88663e-14
3.48673e-15
1.38432e-16
3.90275e-18
9.69891e-20
2.11515e-21
3.86698e-23
5.91886e-25
7.68201e-27
8.52011e-29
8.17713e-31
6.87376e-33
5.083e-35
3.32025e-37
1.92443e-39
9.92863e-42
4.57109e-44
1.88069e-46
6.97573e-49
2.25256e-51
6.07523e-54
9.52674e-56
1.65681e-56
3.727e-57
9.56446e-58
2.84434e-58
9.76694e-59
3.8602e-59
1.78635e-59
1.02273e-59
9.13309e-60
4.53036e-60
1.15652e-62
2.38461e-62
2.2713e-62
3.93658e-62
8.48934e-62
2.11174e-61
6.19442e-61
2.10896e-60
7.84481e-60
3.12562e-59
1.40676e-58
7.19032e-58
3.62439e-57
1.86039e-56
1.36158e-54
6.52687e-52
1.99559e-49
5.54102e-47
1.54391e-44
3.97385e-42
7.66828e-40
9.00099e-35
1.30866e-32
1.1971e-30
1.14917e-28
1.39064e-26
1.68869e-24
3.6248e-22
4.05936e-19
9.64094e-17
2.15809e-15
1.6845e-14
5.84643e-14
1.34097e-13
2.25217e-13
2.48719e-13
2.55682e-13
4.80704e-13
3.90375e-12
2.35604e-11
6.45668e-11
3.20133e-10
2.12598e-10
2.71752e-11
9.75344e-12
6.1962e-12
1.20402e-12
2.13685e-13
2.83941e-14
2.18821e-15
9.42184e-17
2.69541e-18
6.59448e-20
1.38365e-21
2.40284e-23
3.46931e-25
4.21634e-27
4.33774e-29
3.82577e-31
2.93088e-33
1.96489e-35
1.15947e-37
6.05495e-40
2.81153e-42
1.16449e-44
4.31096e-47
1.43175e-49
4.25367e-52
9.6531e-55
2.74924e-57
2.13021e-58
4.66496e-59
1.17651e-59
3.44645e-60
1.168e-60
4.56785e-61
2.09676e-61
1.19708e-61
1.06053e-61
5.0616e-62
1.16807e-64
2.51073e-64
2.41118e-64
4.15777e-64
9.01073e-64
2.2593e-63
6.68901e-63
2.30458e-62
8.70776e-62
3.52976e-61
1.61313e-60
8.36834e-60
4.28158e-59
2.42805e-58
2.62488e-56
1.01775e-53
3.10431e-51
9.16894e-49
2.56644e-46
9.76488e-44
1.06737e-38
2.07729e-34
5.56473e-32
7.35229e-30
6.94552e-28
5.22302e-26
3.46794e-24
3.05274e-22
1.263e-19
3.42295e-17
1.15891e-15
1.23809e-14
6.04826e-14
1.63493e-13
2.56099e-13
3.06527e-13
4.47333e-13
9.83134e-13
4.89065e-12
2.50262e-11
4.98594e-11
3.20054e-10
2.24267e-10
3.79533e-11
6.87662e-12
4.72606e-12
7.2017e-13
1.15464e-13
1.66662e-14
1.25552e-15
5.12851e-17
1.44822e-18
3.43748e-20
6.75718e-22
1.08001e-23
1.42471e-25
1.57425e-27
1.46941e-29
1.17139e-31
8.0625e-34
4.83936e-36
2.55197e-38
1.19039e-40
4.9421e-43
1.83306e-45
6.09159e-48
1.81615e-50
4.90549e-53
1.14039e-55
1.91309e-58
2.82489e-60
5.67657e-61
1.41177e-61
4.08578e-62
1.37014e-62
5.3134e-63
2.4236e-63
1.38202e-63
1.21564e-63
5.57789e-64
1.15389e-66
2.59029e-66
2.50405e-66
4.29087e-66
9.32945e-66
2.35236e-65
7.01021e-65
2.43594e-64
9.3142e-64
3.825e-63
1.76705e-62
9.2583e-62
4.77045e-61
2.95868e-60
3.90198e-58
1.40589e-55
4.50665e-53
1.35731e-50
3.94359e-48
8.62035e-45
1.63272e-38
1.6837e-34
6.09205e-32
1.08993e-29
1.33639e-27
1.23132e-25
8.73292e-24
5.51664e-22
8.4526e-20
1.29337e-17
6.76454e-16
9.09569e-15
5.74938e-14
1.95338e-13
4.10374e-13
7.27956e-13
1.2215e-12
1.84151e-12
7.57349e-12
2.66232e-11
3.55808e-11
2.40792e-10
2.41491e-10
5.57215e-11
3.4316e-12
2.82098e-12
3.86643e-13
6.2025e-14
8.62014e-15
5.52392e-16
1.91196e-17
5.13175e-19
1.16306e-20
2.1133e-22
3.07652e-24
3.6739e-26
3.6621e-28
3.08966e-30
2.22775e-32
1.38458e-34
7.49113e-37
3.55886e-39
1.49492e-41
5.59106e-44
1.86948e-46
5.60749e-49
1.51173e-51
3.67796e-54
8.30473e-57
1.41242e-59
4.78275e-62
6.69468e-63
1.64715e-63
4.72323e-64
1.5711e-64
6.05437e-65
2.74865e-65
1.56764e-65
1.3708e-65
6.03755e-66
1.11061e-68
2.60909e-68
2.53455e-68
4.31134e-68
9.38895e-68
2.37547e-67
7.10692e-67
2.48299e-66
9.57285e-66
3.96645e-65
1.84422e-64
9.71066e-64
5.00802e-63
3.35898e-62
4.92974e-60
1.80866e-57
6.24291e-55
2.11486e-52
5.15648e-50
7.38245e-46
1.00477e-38
5.1414e-35
3.44545e-32
7.72979e-30
1.08563e-27
1.13282e-25
8.95125e-24
6.07497e-22
5.63824e-20
4.76925e-18
3.08254e-16
5.37829e-15
4.07595e-14
1.87473e-13
5.89711e-13
1.37618e-12
1.87901e-12
2.32692e-12
1.25266e-11
2.70091e-11
2.39897e-11
1.79059e-10
2.36761e-10
3.28576e-11
2.09087e-12
1.34534e-12
1.5852e-13
3.23319e-14
3.51485e-15
1.79831e-16
5.10137e-18
1.27465e-19
2.701e-21
4.53019e-23
6.07653e-25
6.66564e-27
6.07633e-29
4.67866e-31
3.07387e-33
1.7391e-35
8.55078e-38
3.69065e-40
1.40548e-42
4.75905e-45
1.44e-47
3.91271e-50
9.57426e-53
2.11037e-55
4.24776e-58
7.61371e-61
1.24552e-63
7.66016e-65
1.86293e-65
5.30748e-66
1.75541e-66
6.73532e-67
3.04845e-67
1.74106e-67
1.51562e-67
6.39562e-68
1.03789e-70
2.55714e-70
2.49189e-70
4.20368e-70
9.15398e-70
2.31929e-69
6.94858e-69
2.43369e-68
9.42707e-68
3.92554e-67
1.82912e-66
9.63171e-66
4.90405e-65
3.94628e-64
4.07609e-62
1.49315e-59
7.13051e-57
4.30978e-54
2.66469e-50
9.40954e-47
1.6226e-39
2.86144e-36
5.17222e-33
1.81049e-30
3.38087e-28
4.60858e-26
4.55441e-24
3.52526e-22
2.32009e-20
1.59409e-18
7.70318e-17
1.61702e-15
1.76752e-14
1.14645e-13
5.89644e-13
1.47592e-12
1.62455e-12
2.42872e-12
1.72031e-11
2.69389e-11
1.59971e-11
1.06533e-10
1.60753e-10
2.78417e-11
2.91253e-12
1.65141e-12
1.22716e-13
1.70798e-14
1.23415e-15
4.7313e-17
1.21933e-18
2.8647e-20
5.5164e-22
8.42479e-24
1.03715e-25
1.04522e-27
8.73445e-30
6.14484e-32
3.67782e-34
1.89444e-36
8.48877e-39
3.34604e-41
1.16616e-43
3.61763e-46
1.00336e-48
2.50427e-51
5.63806e-54
1.1442e-56
2.08516e-59
3.47375e-62
4.77131e-65
8.70669e-67
2.03662e-67
5.78163e-68
1.90565e-68
7.29391e-69
3.29626e-69
1.88738e-69
1.63797e-69
6.60879e-70
9.38776e-73
2.43094e-72
2.37235e-72
3.96529e-72
8.62066e-72
2.18303e-71
6.53425e-71
2.28765e-70
8.87338e-70
3.69955e-69
1.72019e-68
9.03886e-68
5.98627e-67
1.15614e-65
9.8365e-62
1.20912e-58
4.50933e-55
2.61377e-52
1.87506e-49
1.65194e-46
3.32504e-41