/*--------------------------------*- C++ -*----------------------------------*\
| =========                 |                                                 |
| \\      /  F ield         | OpenFOAM: The Open Source CFD Toolbox           |
|  \\    /   O peration     | Version:  2412                                  |
|   \\  /    A nd           | Website:  www.openfoam.com                      |
|    \\/     M anipulation  |                                                 |
\*---------------------------------------------------------------------------*/
FoamFile
{
    version     2.0;
    format      ascii;
    arch        "LSB;label=32;scalar=64";
    class       volScalarField;
    location    "7";
    object      alpha.ethanol;
}
// * * * * * * * * * * * * * * * * * * * * * * * * * * * * * * * * * * * * * //

dimensions      [0 0 0 0 0 0 0];

internalField   nonuniform List<scalar> 
6400
(
1
0.999996
1
1
0.999999
0.999999
1
1
1
1
1
1
1
1
1
1
1
1
1
1
1
1
1
1
1
1
1
1
1
1
1
1
1
1
1
1
1
1
0.999999
0.999999
0.999999
0.999999
0.999999
0.999999
0.999999
1
1
1
1
1
1
1
0.999999
1
1
1
1
1
0.999999
0.999999
0.999999
1
1
1
1
1
1
1
1
1
1
0.999999
0.999998
0.999999
1
1
1
1
0.999999
1
1
0.999998
0.999997
0.999998
1
1
1
0.999999
0.999999
0.999999
1
1
1
1
1
1
1
1
1
1
1
1
1
1
1
1
1
1
1
1
1
1
1
1
1
0.999999
0.999999
0.999998
0.999998
0.999998
0.999998
0.999999
0.999998
0.999998
0.999999
1
1
1
1
1
1
1
1
1
1
1
1
1
1
1
1
1
1
1
0.999999
0.999999
1
1
1
0.999999
0.999998
0.999999
1
1
1
0.999999
0.999999
0.999997
0.999998
0.999997
1
0.999999
0.999997
0.999999
1
1
0.999999
0.999999
0.999999
1
1
1
1
1
1
1
1
1
1
1
1
1
1
1
1
1
1
1
1
1
0.999999
0.999998
0.999998
0.999998
0.999998
0.999998
0.999998
0.999999
0.999999
0.999999
0.999999
0.999999
1
1
1
1
1
1
1
1
1
1
1
1
1
1
1
1
1
1
1
1
0.999997
0.999997
0.999997
1
1
1
1
1
1
1
0.999999
0.999998
0.999997
0.999997
0.999997
0.999996
0.999998
0.999998
0.999998
0.999999
1
1
1
0.999999
0.999999
0.999999
1
1
1
0.999999
0.999999
1
1
1
1
0.999999
1
1
1
1
1
1
1
1
1
1
0.999999
0.999998
0.999998
0.999998
0.999999
0.999997
0.999997
0.999997
0.999998
0.999999
1
1
1
1
0.999999
0.999999
0.999999
0.999998
0.999999
0.999998
0.999998
0.999998
0.999999
1
1
1
1
1
0.999999
0.999999
0.999999
1
1
1
1
1
1
1
1
1
1
0.999999
0.999999
1
0.999999
0.999997
0.999997
0.999999
0.999999
1
0.999998
1
0.999998
1
1
1
1
1
0.999999
1
1
1
1
0.999999
0.999999
0.999999
1
1
1
1
1
1
1
1
1
1
1
1
1
1
1
1
1
1
1
0.999998
0.999998
0.999999
1
1
1
1
0.999999
0.999999
0.999998
0.999998
0.999997
0.999997
0.999997
0.999999
1
0.999999
0.999999
0.999999
0.999999
1
1
1
0.999999
0.999998
0.999997
0.999998
0.999999
0.999999
0.999999
0.999998
0.999997
0.999995
0.999995
0.999996
1
1
1
0.999999
0.999999
0.999999
1
1
1
1
0.999999
1
0.999999
1
1
1
1
1
1
1
1
1
0.999999
0.999999
0.999999
1
1
1
0.999999
0.999999
0.999999
0.999999
1
1
1
1
1
1
1
1
1
1
1
1
1
0.999999
0.999999
0.999999
1
1
1
1
1
1
0.999999
0.999999
1
1
1
1
0.999999
1
1
1
1
1
1
1
0.999999
0.999999
0.999998
0.999999
1
1
1
1
0.999999
0.999998
0.999998
0.999998
0.999999
0.999999
1
1
1
1
1
0.999999
0.999999
0.999998
1
0.999999
1
1
1
1
1
1
1
1
1
1
1
1
1
0.999998
0.999998
0.999998
0.999999
1
1
1
1
1
1
1
1
1
1
1
1
1
0.999999
0.999999
1
1
1
1
1
1
1
1
1
1
1
1
1
1
1
1
1
1
1
0.999999
1
1
1
1
1
1
1
1
1
1
1
1
1
1
0.999999
0.999998
0.999998
0.999999
0.999999
0.999998
0.999998
1
0.999999
0.999999
1
1
1
1
1
1
1
1
1
1
1
1
1
1
0.999999
0.999999
1
1
0.999999
0.999999
1
1
1
1
1
1
1
1
0.999999
0.999999
0.999999
0.999999
0.999999
1
1
1
1
1
1
1
1
1
1
1
1
1
1
1
1
1
1
1
1
0.999998
0.999998
0.999998
0.999999
1
1
1
1
0.999999
0.999998
0.999998
0.999999
1
1
0.999999
0.999998
0.999997
0.999998
0.999999
0.999998
0.999998
0.999998
1
1
1
1
1
1
1
1
1
1
1
1
1
1
1
1
1
1
1
1
1
1
1
1
0.999998
0.999998
0.999998
0.999998
0.999998
0.999998
0.999999
0.999999
1
1
1
1
1
1
1
1
1
1
1
1
1
1
1
1
1
1
1
1
1
1
1
1
1
1
0.999998
0.999997
0.999997
1
1
1
1
0.999999
0.999999
0.999999
0.999998
0.999999
0.999999
0.999999
0.999997
0.999997
0.999997
0.999997
0.999999
0.999999
1
1
1
1
1
1
1
1
1
1
1
1
1
1
1
1
1
1
1
1
1
1
1
1
0.999999
0.999999
0.999999
0.999999
1
1
1
0.999999
0.999999
1
1
1
1
1
1
1
1
1
1
1
1
1
1
1
1
1
1
1
1
1
1
0.999999
0.999999
0.999999
0.999999
1
1
1
1
1
1
1
1
1
1
0.999999
0.999998
0.999997
0.999997
0.999997
0.999998
0.999998
1
1
1
1
1
1
1
1
1
1
1
1
1
1
1
1
1
1
1
1
1
1
1
1
1
1
1
1
1
1
1
1
1
1
1
1
1
1
1
1
1
1
1
1
1
1
1
1
1
1
1
1
1
1
1
1
1
1
1
1
1
1
1
1
1
1
1
1
1
1
1
1
1
1
0.999999
0.999999
0.999999
1
1
1
1
1
0.999999
0.999999
1
1
1
0.999999
1
1
1
1
1
1
1
1
1
1
1
1
1
1
1
1
1
1
1
1
1
1
1
1
1
1
1
1
1
1
1
1
1
1
1
1
1
1
1
1
1
1
1
1
1
1
1
1
1
1
1
1
1
1
1
1
1
1
1
1
1
1
1
1
1
1
1
1
1
1
1
1
0.999999
0.999999
0.999999
1
1
0.999999
0.999999
1
1
1
1
1
1
1
1
1
1
1
1
1
1
1
1
1
1
1
1
1
1
1
1
1
1
1
1
1
1
1
1
1
1
1
1
1
1
1
1
1
1
1
1
1
1
1
1
1
1
1
1
1
1
1
1
1
1
1
1
1
1
1
1
1
1
1
1
1
1
1
1
1
1
1
1
1
1
1
0.999999
0.999999
0.999992
0.999977
0.999985
1
1
1
1
1
1
1
1
1
1
1
1
1
1
1
1
1
1
1
1
1
1
1
1
1
1
1
1
1
1
1
1
1
1
1
1
1
1
1
1
1
1
1
1
1
1
1
0.999999
0.999999
0.999999
1
1
1
1
1
0.999998
0.999998
0.999999
1
1
1
1
1
1
1
1
1
1
1
1
1
1
1
1
1
1
0.999993
0.999968
0.999967
0.999967
0.999994
1
1
1
1
1
1
1
1
1
1
1
1
1
1
1
1
1
1
1
1
1
1
1
1
1
1
1
1
1
1
1
1
1
1
1
1
0.999999
0.999999
1
1
0.999999
0.999999
1
0.999999
0.999999
0.999999
0.999999
0.999999
0.999999
1
1
0.999999
0.999998
0.999998
0.999998
0.999999
1
1
1
1
1
1
1
1
1
1
1
1
1
1
1
1
1
1
1
0.999995
0.999968
0.999967
0.999967
0.999989
1
1
1
1
1
1
1
1
1
1
1
1
1
1
1
1
1
1
1
1
1
1
1
1
1
1
1
1
1
1
1
0.999999
0.999999
0.999999
0.999999
0.999999
1
1
1
1
1
1
1
0.999999
0.999999
0.999999
0.999999
0.999999
0.999999
0.999998
0.999998
0.999998
0.999999
0.999999
0.999998
0.999999
1
1
1
1
1
1
1
1
1
1
1
1
1
1
1
1
1
1
1
1
0.999996
0.999992
0.999994
0.999996
1
1
1
1
1
1
1
1
1
1
1
1
1
1
1
1
1
1
1
1
1
1
1
1
1
1
1
1
1
1
1
1
1
1
1
1
1
1
1
1
1
1
1
0.999999
0.999999
1
1
1
1
0.999999
0.999999
1
0.999999
0.999999
0.999999
1
1
1
1
1
1
1
1
1
1
1
1
1
1
1
1
1
1
1
1
0.999999
1
1
0.999999
0.999998
0.999999
1
1
1
1
1
1
1
1
1
1
1
1
1
1
1
1
0.999999
0.999999
0.999999
0.999998
0.999998
0.999998
0.999997
0.999998
0.999998
0.999999
0.999999
1
1
1
1
1
1
1
1
1
1
1
1
1
1
1
1
1
1
1
1
1
1
1
0.999999
1
1
1
1
1
1
1
0.999999
0.999998
0.999998
0.999997
0.999997
0.999997
0.999998
0.999998
0.999998
0.999999
0.999999
0.999999
1
1
1
1
1
1
0.999999
0.999999
0.999999
0.999999
1
1
1
1
1
1
1
1
1
1
1
0.999998
0.999993
0.999986
0.999977
0.999967
0.999956
0.999946
0.999936
0.999923
0.999908
0.999892
0.999879
0.999878
0.999891
0.999805
0.999818
0.999971
0.999994
1
1
1
1
1
1
1
1
1
1
1
1
1
1
1
1
1
1
1
1
1
1
1
1
1
1
0.999998
0.999967
0.999794
0.999717
0.99982
0.999869
0.999859
0.999863
0.999876
0.999893
0.999909
0.999923
0.999937
0.999952
0.999966
0.999979
0.999989
0.999996
0.999999
1
1
1
1
1
1
1
1
0.769412
0.769003
0.773935
0.78128
0.791633
0.808165
0.83024
0.854362
0.876249
0.894815
0.908092
0.915207
0.916606
0.912508
0.901972
0.882133
0.851561
0.813653
0.771441
0.727268
0.684234
0.64703
0.613304
0.590925
0.585391
0.599253
0.632052
0.673886
0.730882
0.802925
0.882964
0.954597
1
1
1
1
1
1
1
1
1
1
1
1
1
1
1
1
0.961272
0.891615
0.812582
0.739099
0.679274
0.635253
0.599427
0.581537
0.581577
0.599319
0.631423
0.666039
0.706361
0.748618
0.789115
0.825878
0.858106
0.883235
0.89829
0.904266
0.903651
0.89806
0.887694
0.872586
0.853746
0.832857
0.815153
0.804059
0.798177
0.793064
0.789854
0.789497
0.0834831
0.0886257
0.093959
0.100078
0.107561
0.117934
0.131252
0.146894
0.164746
0.181757
0.194172
0.1988
0.196305
0.183829
0.162617
0.136682
0.108566
0.080066
0.0539671
0.0322142
0.0151251
0.0024861
3.10271e-07
1.66098e-07
1.30322e-07
1.69625e-07
3.00118e-07
0.011304
0.0327212
0.0691118
0.133041
0.233095
0.377303
0.555853
0.709683
0.825309
0.900215
0.946827
0.97413
0.985945
0.9862
0.974907
0.946731
0.900334
0.830653
0.722672
0.574763
0.399463
0.249866
0.146441
0.0768736
0.035968
0.0127168
1.77382e-06
1.47499e-06
1.36056e-06
1.2975e-06
1.29723e-06
1.29778e-06
0.0106341
0.0261868
0.0456797
0.0682087
0.0919953
0.115358
0.137613
0.157869
0.171393
0.175454
0.172203
0.16225
0.149529
0.137671
0.128506
0.120988
0.114959
0.111522
0.109494
0.107268
0.103268
0.000385319
0.000375537
0.000320038
0.000278057
0.000240472
0.000214813
8.9252e-05
2.70721e-05
2.70812e-05
2.70348e-05
2.71534e-05
2.23318e-05
1.24486e-05
9.10534e-06
8.92173e-06
8.24781e-06
6.44258e-06
4.03838e-06
2.58079e-06
1.75045e-06
8.50376e-07
3.10272e-07
1.66098e-07
1.24244e-07
1.14417e-07
1.72969e-07
1.82677e-07
3.54654e-06
2.24366e-05
5.81851e-05
0.000145406
0.000308202
0.00103633
0.020759
0.0678058
0.135989
0.217405
0.295031
0.359336
0.397395
0.397769
0.360411
0.296027
0.219928
0.142047
0.0731964
0.0233169
0.00169307
0.000479995
0.000278378
5.5393e-05
5.30231e-06
5.09609e-06
2.46928e-06
2.49175e-06
1.3654e-06
1.29695e-06
1.29722e-06
1.29698e-06
1.29778e-06
1.30748e-06
1.38605e-06
1.92132e-06
4.25352e-06
7.71308e-06
7.51102e-06
6.7248e-06
6.16712e-06
5.96403e-06
6.02636e-06
5.96406e-06
6.34104e-06
7.03843e-06
0.000100292
0.000288425
0.000441614
0.000402722
0.00045584
0.000527925
0.000659039
0.000110696
0.000130616
0.000122729
0.000111747
0.00010163
0.000120171
5.65059e-05
4.39812e-05
4.47443e-05
3.13772e-05
2.80825e-05
0.000337703
0.000677205
0.000185002
9.10534e-06
8.92173e-06
2.80339e-05
4.78911e-05
2.47604e-05
1.1402e-05
1.52411e-05
1.37151e-05
3.63007e-06
4.71581e-08
4.63126e-08
1.23035e-07
1.8767e-07
3.03419e-06
2.69667e-05
3.60199e-05
5.82893e-05
0.000106656
0.000162779
0.000225199
0.000253977
0.000150502
0.000109728
7.7068e-05
6.65347e-05
0.000445896
0.000423117
7.82445e-05
6.05145e-05
7.30326e-05
7.57233e-05
0.000249741
0.000421146
0.000301315
0.000211441
0.000154015
3.70757e-05
3.59446e-05
7.01149e-05
7.0174e-05
5.70484e-05
1.35911e-05
1.297e-06
1.29689e-06
1.29774e-06
1.30749e-06
1.38603e-06
1.47039e-05
7.90831e-05
8.61211e-05
8.65075e-05
5.45595e-05
2.94286e-05
2.86667e-05
2.1418e-05
1.03945e-05
4.54682e-05
7.99642e-05
5.10834e-05
6.15952e-05
0.000173139
0.000327799
0.000253706
0.000208958
0.000131846
0.000150703
9.4145e-05
0.000110692
0.000113834
0.000102158
9.76463e-05
0.000115464
0.00010001
6.07693e-05
0.00013119
3.48182e-05
6.45573e-05
0.000577982
0.000699818
0.000653351
0.000181219
0.000183465
0.000256481
6.71987e-05
1.2477e-05
3.48442e-06
1.15579e-05
3.24538e-07
4.71581e-08
4.53253e-08
4.57076e-08
4.63126e-08
1.82116e-06
7.43816e-05
0.000100972
8.38377e-05
8.88455e-05
0.000110491
9.78095e-05
0.000106124
0.00014678
0.000152882
7.90831e-05
5.18453e-05
5.03273e-05
0.000226618
0.000175358
6.66266e-05
3.19864e-05
3.21108e-05
4.55131e-05
0.000294886
0.000576916
0.000366258
0.000182071
5.68098e-05
4.16598e-05
8.42787e-05
8.50174e-05
7.0447e-05
7.01595e-06
1.297e-06
1.29689e-06
1.297e-06
1.29918e-06
1.31785e-06
1.40636e-06
2.52068e-05
7.82854e-05
8.72985e-05
8.61775e-05
8.91091e-05
9.46492e-05
0.000102202
0.000102112
5.29719e-05
3.63332e-05
8.02187e-05
5.0448e-05
5.47608e-05
0.000248882
0.000364791
0.000252377
0.000192287
6.28521e-05
7.45319e-05
9.4145e-05
0.000144472
0.000163271
0.000162842
0.000100958
6.29695e-05
6.00383e-05
0.000169273
0.000172148
6.37381e-05
8.17387e-05
0.000575755
0.00070078
0.000700016
0.000695624
0.000683924
0.000181548
7.65904e-06
4.40291e-06
9.15049e-07
1.10324e-07
4.86604e-08
4.49527e-08
4.53253e-08
3.67714e-08
4.57076e-08
1.82807e-05
8.58748e-05
0.000104049
0.000104041
0.000108701
0.000107347
8.26685e-05
8.67938e-05
0.000133163
0.00016064
6.78151e-05
4.74525e-05
4.63715e-05
0.000197937
0.00012675
4.09559e-05
2.61273e-05
2.40008e-05
2.75962e-05
0.000203947
0.000466235
9.64659e-06
5.15352e-06
3.48879e-06
1.1597e-05
1.60304e-05
4.54363e-06
4.02723e-06
5.73113e-06
6.51221e-06
1.297e-06
1.29918e-06
1.30804e-06
1.3298e-06
1.37606e-06
1.44296e-06
1.50392e-06
9.72708e-06
2.32031e-05
1.18955e-05
2.5535e-06
3.60363e-05
9.869e-05
0.000105856
7.49169e-05
4.66509e-05
4.68523e-05
0.000152836
0.000286907
0.000263086
4.23586e-05
4.57023e-05
4.37837e-05
5.60428e-05
0.000162409
0.000162411
0.000162842
0.000163238
0.000161654
0.000106935
1.24265e-05
0.000171719
0.000172148
0.000172148
8.56379e-05
0.000308359
0.00070078
0.000701189
0.000700016
0.000362967
1.41486e-05
1.1371e-05
2.1837e-05
2.98368e-05
7.78538e-06
9.71318e-08
3.62041e-08
5.02968e-08
2.49418e-08
2.78452e-06
3.58047e-06
3.11256e-06
6.07008e-06
4.97424e-05
0.000107291
0.000108272
6.14318e-05
7.86032e-05
0.000127155
7.14267e-05
4.77948e-05
4.63715e-05
4.63462e-05
0.000189367
9.06198e-05
2.48146e-05
2.3944e-05
2.33959e-05
2.35618e-05
0.000140992
0.000411842
4.11455e-06
3.48879e-06
3.0681e-06
3.0534e-06
3.06083e-06
3.11498e-06
4.15923e-06
2.85937e-05
3.05672e-05
1.1816e-05
1.30804e-06
1.3298e-06
1.37578e-06
1.44229e-06
1.50384e-06
1.57542e-06
2.29653e-06
2.29618e-06
2.13935e-06
2.09268e-06
2.08132e-06
2.09247e-06
4.0386e-05
8.58724e-05
8.63405e-05
4.66552e-05
5.85494e-05
0.000287381
0.000264073
3.02501e-05
2.9994e-05
4.01776e-05
9.74244e-05
0.000162409
0.000116343
5.12439e-05
6.44589e-05
9.81567e-05
5.67277e-05
5.51461e-06
8.16174e-05
0.000172148
0.000172085
9.38993e-05
9.74332e-05
0.00070078
0.000700016
0.000601908
5.48527e-05
1.76174e-05
1.66946e-05
8.66882e-05
8.3407e-05
1.65884e-05
3.32082e-08
1.50549e-08
1.22348e-07
2.34849e-08
1.70558e-09
1.78716e-09
1.85047e-09
1.83587e-09
2.55721e-09
1.86052e-06
4.73248e-06
7.00744e-06
8.50927e-05
0.000117474
6.64028e-05
4.72695e-05
4.63325e-05
4.63715e-05
0.000179255
0.000145576
2.39435e-05
2.33984e-05
2.32578e-05
2.3116e-05
3.20799e-05
0.000176797
0.000290223
4.21442e-06
3.04036e-06
3.0423e-06
3.0534e-06
3.06084e-06
3.20362e-06
2.14271e-05
3.05672e-05
2.8679e-05
1.41696e-05
1.34789e-05
1.73973e-05
1.5536e-05
8.39031e-06
1.18173e-05
1.61674e-05
1.16552e-05
2.29618e-06
2.13935e-06
2.09268e-06
2.08002e-06
2.69279e-06
7.29251e-05
0.000106097
4.91884e-05
5.31546e-05
9.699e-05
0.000262751
8.46375e-05
3.2394e-05
0.000121654
0.000121654
6.24086e-05
3.42766e-06
3.29359e-06
3.28654e-06
3.3891e-06
3.73619e-06
4.21573e-06
5.46205e-06
6.1582e-05
0.00015062
0.000141166
0.000123663
0.000690551
0.000698624
0.000538829
4.67737e-05
2.17077e-05
2.65183e-05
8.93915e-05
8.66882e-05
1.53867e-05
1.23747e-08
2.16846e-09
3.26787e-09
1.67775e-09
1.67247e-09
1.70558e-09
1.78716e-09
8.83161e-09
8.68408e-09
1.0693e-07
1.89726e-07
3.67826e-07
4.12653e-05
0.000106874
0.000109011
9.46173e-05
4.70838e-05
4.63327e-05
8.30401e-05
0.000168037
0.000173858
3.16227e-05
2.31168e-05
2.31168e-05
2.30648e-05
2.54498e-05
0.000290314
8.593e-05
3.04082e-06
3.03829e-06
3.04856e-06
3.42959e-06
3.80066e-06
3.99839e-06
7.72439e-06
6.14736e-05
0.000104506
0.000106737
0.000102278
9.37319e-05
7.49996e-05
7.04336e-05
6.54682e-05
2.69252e-05
3.12824e-06
2.49933e-06
2.35215e-06
2.22204e-06
1.79247e-05
0.000343385
0.000413751
0.000212195
5.53671e-05
6.52822e-05
0.000229468
0.000209246
4.11767e-05
5.25642e-05
0.000121654
3.61933e-06
3.29479e-06
3.28654e-06
3.28059e-06
3.27338e-06
3.31825e-06
3.76957e-06
4.21612e-06
5.464e-06
9.02433e-06
0.000124106
0.00022511
0.000224407
0.000202867
7.62245e-05
2.74129e-05
2.66345e-05
7.62128e-05
9.02319e-05
7.1882e-05
2.46532e-06
3.70608e-09
6.82741e-10
1.35522e-09
1.6425e-09
1.69023e-09
1.89774e-09
2.19023e-09
7.0748e-08
5.98578e-08
1.45304e-07
3.67826e-07
6.86703e-07
8.03689e-07
9.1004e-05
0.000112413
0.00011417
8.70165e-05
4.70838e-05
4.9387e-05
0.000166504
0.000180602
7.72201e-05
2.32526e-05
2.30648e-05
2.30128e-05
2.31339e-05
0.000284942
0.000198611
4.55224e-06
3.0423e-06
1.11666e-05
3.5559e-05
1.29134e-05
8.79143e-06
7.9754e-05
0.000122004
0.000122199
0.000120644
9.18375e-05
6.43693e-05
6.84575e-05
6.29933e-05
4.24143e-05
1.01343e-05
5.07106e-06
4.76807e-06
5.89963e-06
9.3728e-06
5.91654e-05
0.000403041
0.000428771
0.000430345
0.000313966
7.52157e-05
6.95018e-05
0.000165583
5.45805e-05
4.0293e-06
3.23833e-05
8.50478e-05
4.22236e-06
3.28884e-06
3.27338e-06
3.27212e-06
3.27338e-06
4.93721e-06
4.77428e-06
5.03811e-06
5.92703e-06
3.96407e-05
7.3128e-05
3.14268e-05
2.81142e-05
2.74129e-05
2.74129e-05
2.74129e-05
9.79762e-05
9.36383e-05
8.61219e-06
2.27939e-08
6.82665e-10
1.67565e-10
2.32187e-09
1.87119e-09
2.29297e-09
3.31819e-09
1.0548e-08
1.94354e-08
2.02166e-05
2.38535e-05
6.6495e-06
8.03689e-07
1.34581e-06
3.71377e-05
0.000114169
0.000115407
0.000116645
6.83025e-05
4.75966e-05
7.64672e-05
0.00019289
0.000203172
3.67377e-05
2.30338e-05
2.3054e-05
2.30262e-05
0.000275683
0.000234996
1.02385e-05
3.236e-06
1.78389e-05
4.49279e-05
2.83381e-05
9.8045e-05
0.000122512
0.000122807
0.00011992
3.93269e-05
7.06e-06
6.87949e-06
6.59177e-06
6.0216e-06
5.27181e-06
5.6574e-06
6.25373e-06
0.000100241
0.000198079
0.000338976
0.000427173
0.000430472
0.000431599
0.000432042
0.000433081
0.000276506
3.97194e-05
2.32754e-05
2.6151e-05
2.94511e-06
1.05466e-05
0.000131138
4.0914e-06
3.3278e-06
3.27259e-06
3.27261e-06
3.27212e-06
3.27648e-06
0.00016468
0.00012759
1.99393e-05
2.13263e-05
2.64056e-05
2.88213e-05
4.35796e-05
2.81142e-05
2.74129e-05
6.92747e-05
0.000102181
7.36021e-05
3.12384e-06
6.79747e-09
1.65053e-10
3.35284e-11
4.92985e-09
4.29405e-09
5.61574e-09
1.14749e-08
9.78133e-08
6.43772e-08
5.09377e-05
9.54207e-05
7.28317e-05
6.34692e-06
1.89743e-06
2.56339e-06
0.000100735
0.000116645
0.000116645
0.000110733
4.27204e-05
4.32616e-05
0.000141438
0.000208606
7.71924e-05
2.41274e-05
5.55537e-05
0.000145831
0.000193362
0.000103569
6.48451e-06
3.61267e-06
9.45267e-06
4.50177e-05
5.82868e-05
0.00012208
0.000122807
0.000119905
2.20946e-05
7.16275e-06
6.89657e-06
6.70736e-06
6.6414e-06
6.03939e-06
4.65778e-06
5.11467e-06
2.79684e-05
0.000411868
0.000427592
0.000427173
0.000430472
0.000431599
0.000432042
0.000432042
0.000432089
0.000438861
0.000115202
7.093e-06
2.1403e-06
1.39781e-06
2.95578e-06
0.000131549
4.87611e-06
3.81488e-06
3.86757e-05
4.1848e-05
3.27648e-06
0.000109921
0.00027069
0.000250891
2.84876e-05
2.63218e-05
2.62942e-05
4.057e-05
6.83284e-05
4.30018e-05
7.59702e-05
0.000112716
0.000101395
3.63367e-06
1.81246e-08
3.60065e-10
6.52324e-12
1.18612e-11
5.34896e-09
9.24483e-08
2.12078e-08
4.32418e-08
9.98805e-08
1.47748e-07
2.45377e-05
9.82191e-05
9.82191e-05
7.13977e-05
5.30583e-06
3.90402e-06
1.7195e-05
0.000115756
0.000116645
6.14677e-05
4.07693e-05
4.23631e-05
0.000118665
0.00021438
7.22557e-05
2.69706e-05
0.000174156
0.000174677
4.00291e-05
5.35021e-06
4.36798e-06
3.81884e-06
2.38921e-05
2.79393e-05
2.96409e-05
5.76566e-05
0.000118254
3.45534e-05
7.85058e-06
7.20814e-06
6.76798e-06
6.4745e-06
6.14815e-06
7.92995e-06
4.27193e-06
4.63005e-06
5.67807e-05
0.00042371
0.000427378
0.000423864
0.000364317
0.000424723
0.000431817
0.000432045
0.000431883
0.000431835
0.000207502
5.59112e-06
1.39781e-06
1.15626e-06
2.95775e-06
0.000130914
5.73326e-06
7.30985e-05
0.000282834
0.000289858
0.000228746
0.00027069
0.00026885
7.39112e-05
2.63218e-05
2.62837e-05
2.63218e-05
3.65686e-05
6.34578e-05
0.000149508
0.000145044
0.000113401
1.54419e-06
7.99358e-09
2.59992e-10
4.10137e-12
8.94635e-12
1.09063e-11
2.80569e-09
1.7906e-07
2.27981e-07
7.1835e-07
1.91559e-07
3.29536e-07
4.48552e-07
1.96719e-05
8.18621e-05
0.00010181
0.000101602
1.54936e-05
1.58537e-05
2.08674e-05
4.05434e-05
4.07693e-05
4.07693e-05
4.07693e-05
0.000181656
0.000217501
0.000123849
6.02774e-05
0.000180898
0.000127183
7.79403e-06
6.30752e-06
5.35021e-06
2.71931e-05
0.000119132
2.96409e-05
2.96409e-05
2.97028e-05
8.89177e-06
8.56166e-06
8.16144e-06
7.74758e-06
7.11541e-06
5.90341e-06
5.88202e-06
7.96571e-06
4.24085e-06
4.12589e-06
4.70535e-06
0.000418682
0.000431139
0.000385738
0.000347514
0.000347117
0.000408354
0.000431886
0.000432073
0.000431845
0.000321084
8.42073e-06
1.15626e-06
1.15626e-06
5.97576e-05
0.000112927
2.38076e-05
0.000246691
0.000289027
0.000290292
0.000288968
0.000190759
3.79417e-05
2.74988e-05
2.7487e-05
2.63218e-05
0.000147029
0.000193116
0.000191755
0.000187951
7.24303e-05
5.03642e-09
1.65305e-10
5.1699e-13
-3.5494e-12
1.4566e-12
1.0555e-11
1.08284e-11
1.09063e-11
1.358e-07
3.69878e-06
7.04629e-06
9.82265e-07
4.48555e-07
4.49941e-07
4.49944e-07
5.3941e-07
2.59645e-05
9.3579e-05
0.000115412
9.53165e-05
7.74471e-05
5.07062e-05
4.17465e-05
4.07693e-05
0.00013468
0.000217501
0.000218312
0.000217501
0.000197353
0.000183598
2.92302e-05
7.97739e-06
7.79403e-06
1.67998e-05
0.000128386
0.000130046
0.000134642
0.00013931
9.97988e-05
9.00531e-06
8.83883e-06
1.36734e-05
4.80527e-05
4.61273e-05
5.22576e-06
4.36045e-06
4.55767e-06
3.70639e-06
3.99527e-06
0.000108364
0.000431438
0.000432087
0.000394086
0.000347117
0.000347117
0.000364537
0.000432073
0.000432146
0.000432073
0.000259046
6.33325e-06
1.31262e-06
1.93639e-06
6.51183e-05
7.58589e-05
7.47841e-05
0.000288565
0.000287748
0.000136649
4.01228e-05
3.78789e-05
3.68984e-05
3.24405e-05
0.000137697
0.000224971
0.000234391
0.000234391
0.000147788
2.41589e-09
1.21679e-09
1.66229e-10
4.98893e-12
5.28481e-13
4.31663e-13
2.25902e-12
9.8859e-12
9.80056e-12
1.0513e-11
1.42962e-07
7.00606e-06
8.30706e-06
6.52032e-06
4.53905e-07
4.47534e-07
4.53906e-07
4.67047e-07
5.70463e-07
4.31364e-06
0.000116434
0.00015924
0.000159572
0.000157098
0.000121446
0.000174116
0.000216389
0.000218352
0.000217772
0.000193896
0.000192763
0.000180788
4.57654e-06
5.23409e-06
3.18732e-05
0.000127103
0.000128301
0.000128386
8.97707e-05
0.000139746
0.000139746
9.32616e-05
1.73682e-05
2.44069e-05
7.45334e-05
7.43421e-05
2.32792e-05
3.5924e-06
3.33885e-06
3.2759e-06
6.83782e-06
0.00019826
0.000432108
0.000432212
0.000432478
0.000350117
0.000389843
0.000432704
0.00043224
0.000432136
0.000432136
8.55073e-05
1.44666e-06
1.40448e-06
2.03263e-06
4.00643e-05
7.5827e-05
0.000119434
0.000299383
0.000157115
5.11517e-05
4.31312e-05
0.000151044
0.000262668
0.00025434
0.000239163
0.00023025
0.000144114
1.29038e-05
2.41611e-09
1.64958e-09
8.90452e-10
4.8078e-10
8.57577e-12
4.31789e-13
4.32701e-13
2.75716e-12
9.41863e-12
9.42699e-12
1.3775e-11
1.40545e-07
7.09334e-06
8.30706e-06
8.30706e-06
3.08501e-06
4.53906e-07
4.33604e-07
1.07206e-06
1.08596e-06
1.29428e-06
5.16129e-06
5.71815e-05
0.000120181
0.000148987
0.000208946
0.000215201
0.000217134
0.000216832
0.000217772
5.71942e-05
0.000179829
0.000170206
3.6622e-06
3.31104e-06
4.52307e-05
0.000109072
0.000106741
4.03598e-05
3.20534e-05
3.20661e-05
6.01046e-05
9.86294e-05
8.29401e-05
3.64106e-05
7.45473e-05
7.4519e-05
7.2141e-05
3.3355e-06
2.93854e-06
2.58538e-06
2.93678e-06
0.000113514
0.000432639
0.000432541
0.000433099
0.000410791
0.000433153
0.000433166
0.000432704
0.00043224
0.000306599
2.10606e-06
1.41349e-06
1.41349e-06
2.16755e-06
3.20758e-05
9.95811e-05
0.000189399
0.00030038
0.000300504
0.000244046
0.000246286
0.000289126
0.00028439
0.000132303
5.7244e-05
1.54362e-05
3.8528e-08
4.00658e-09
3.90841e-09
1.83552e-08
1.89011e-08
7.19834e-09
6.47522e-11
3.28482e-12
4.19449e-13
2.81478e-12
9.61789e-12
9.57416e-12
1.4226e-11
8.33519e-10
3.30489e-06
8.30706e-06
8.30439e-06
8.30215e-06
1.81336e-06
4.6337e-07
3.95993e-06
4.3775e-06
2.21554e-06
2.17137e-06
2.0992e-06
5.72248e-06
2.15852e-05
4.38329e-05
8.98066e-05
0.000160484
0.000190917
8.77444e-05
1.51624e-05
0.000179684
0.00010101
3.26259e-06
2.76757e-06
1.46385e-05
1.04408e-05
7.19471e-06
9.27126e-06
0.000159184
0.000208998
6.56507e-05
6.28835e-05
8.18272e-05
6.00853e-05
7.45463e-05
7.45505e-05
7.43759e-05
3.08051e-05
2.36682e-06
1.76713e-06
2.36538e-06
2.81413e-05
0.000432034
0.000433098
0.000433182
0.000433153
0.000433182
0.000433153
0.000432455
0.000424264
7.94999e-06
2.15513e-06
1.80662e-06
1.41077e-06
1.80584e-05
0.000290841
0.000230866
0.000164404
0.000300572
0.000301008
0.000300752
0.000299422
0.000296988
0.000142657
8.39136e-07
7.79627e-08
3.71681e-08
6.14645e-07
3.10635e-07
2.86042e-09
6.64835e-09
1.32061e-08
7.79855e-10
1.02679e-10
1.25743e-11
3.77855e-13
2.82639e-12
1.1509e-11
1.1816e-11
1.70723e-11
3.11696e-10
1.06115e-06
8.30148e-06
8.30215e-06
8.29923e-06
7.8786e-06
2.24192e-07
1.00471e-06
4.51622e-06
4.63907e-06
2.54332e-06
2.0992e-06
2.0992e-06
2.32297e-06
3.46931e-06
4.97524e-06
1.50732e-05
2.84392e-05
8.87405e-06
7.2497e-06
0.000134106
3.62111e-05
2.30308e-06
2.10634e-06
2.03084e-06
2.0848e-06
2.32137e-06
6.20731e-05
0.000238362
0.000238688
0.000198451
6.34018e-05
5.68857e-05
5.70655e-05
7.45305e-05
7.45456e-05
7.45118e-05
7.27932e-05
1.76689e-06
1.20563e-06
1.76614e-06
1.66418e-05
0.000305202
0.000432363
0.000433098
0.000433182
0.000433153
0.000432455
0.000427956
7.49287e-05
4.74013e-06
3.05639e-06
2.21012e-06
2.65289e-06
0.000138677
0.000290841
0.000241578
3.69007e-05
0.000300847
0.000300847
0.000301007
0.000300752
0.000298544
0.000279639
5.04361e-05
2.8023e-08
3.54169e-08
7.07995e-07
4.0534e-07
2.69318e-09
7.71533e-11
8.14673e-11
1.8267e-10
1.79379e-10
1.93584e-11
2.84904e-13
2.65614e-12
1.3898e-11
5.82265e-11
4.15035e-11
2.57673e-10
7.00684e-08
4.86852e-06
8.29923e-06
8.23697e-06
3.46886e-06
1.88335e-07
2.24192e-07
5.13313e-07
4.73312e-06
5.31544e-06
5.31544e-06
5.31544e-06
4.59622e-06
3.40537e-06
3.49015e-06
4.5321e-06
4.9028e-06
4.74452e-06
5.86793e-06
1.42705e-05
7.30484e-06
2.27289e-06
1.94482e-06
1.86838e-06
1.83658e-06
2.08479e-06
0.000175376
0.000238688
0.000238688
0.000238688
0.000100833
3.45367e-05
5.65896e-05
7.45419e-05
7.45484e-05
7.45337e-05
7.3912e-05
6.43451e-06
7.78313e-07
1.20518e-06
3.15851e-06
6.76933e-05
0.000429274
0.000432363
0.000432751
0.000431963
0.000424734
8.59528e-05
7.29357e-06
4.84778e-06
4.64893e-06
3.05639e-06
3.64382e-05
0.000262869
0.000266423
0.000269115
2.23015e-05
8.74603e-05
0.00029073
0.000249298
7.3283e-05
0.000192653
0.000287079
0.000281451
1.75881e-08
1.63137e-08
4.28355e-07
9.03262e-11
7.71533e-11
7.71533e-11
1.10424e-10
2.97906e-10
1.94012e-10
1.31082e-11
2.52514e-13
2.52827e-12
1.44342e-11
1.35206e-10
2.3127e-09
3.45161e-09
4.72709e-09
1.33365e-07
5.87969e-06
4.18767e-06
1.12638e-07
1.52945e-07
1.73873e-07
1.18104e-07
7.50021e-08
5.65752e-07
3.30854e-06
5.16316e-06
4.5916e-06
3.26811e-06
3.17492e-06
3.76291e-06
3.42957e-06
3.31689e-06
4.0831e-06
5.06351e-06
3.6266e-06
1.94482e-06
1.86838e-06
1.83287e-06
1.80352e-06
6.12324e-06
0.000175226
0.000211128
0.000238688
0.000227673
4.94222e-05
3.28113e-05
7.23192e-05
7.45484e-05
7.4553e-05
7.45491e-05
5.8266e-05
2.44742e-06
4.74976e-07
7.69172e-07
2.24631e-06
5.21869e-05
0.000353413
0.000428734
0.000429198
0.000322421
4.12956e-05
6.34576e-06
3.57913e-06
3.6389e-06
4.83358e-06
1.66044e-05
0.000210309
0.0002597
5.83465e-05
0.000284661
2.27571e-05
2.24282e-05
3.72863e-05
2.40233e-05
1.46008e-05
3.14469e-05
0.000286939
0.000286267
2.93932e-05
3.54346e-09
1.3414e-09
1.19855e-09
1.05769e-10
7.71533e-11
1.20951e-10
2.92614e-10
1.80525e-10
1.02003e-11
2.47126e-13
2.9518e-12
1.44218e-11
3.18506e-11
9.5593e-09
4.00145e-08
3.09168e-08
2.61301e-08
2.60152e-08
2.82217e-08
6.50471e-08
1.50916e-07
2.66442e-07
1.07522e-07
2.92079e-08
2.8553e-08
2.64573e-08
2.44444e-07
7.86416e-07
1.25366e-06
2.57122e-06
2.8965e-06
2.36804e-06
2.31728e-06
3.66239e-06
4.63852e-06
7.22778e-06
4.24179e-06
1.83287e-06
1.80371e-06
1.81565e-06
6.68701e-05
0.000188779
8.67176e-05
5.24159e-05
0.000159569
4.43716e-05
3.14325e-05
7.08938e-05
7.45527e-05
7.45524e-05
7.45529e-05
1.57972e-05
4.65411e-07
2.82411e-07
4.54226e-07
6.26796e-06
1.44132e-05
1.70335e-05
0.000252283
0.000216027
7.01835e-06
3.17715e-06
2.50494e-06
2.05268e-06
2.44354e-06
3.57438e-06
3.14464e-05
0.000243653
0.000258433
5.82925e-05
0.000284663
0.000116603
1.99426e-05
1.59575e-05
1.46008e-05
1.47904e-05
0.000114347
0.000286267
0.000251931
1.51515e-05
1.73529e-08
6.80341e-08
5.74623e-09
1.5448e-10
8.75047e-11
6.68123e-11
1.97452e-10
1.23859e-10
5.60887e-12
2.36338e-13
5.0614e-12
2.62287e-11
2.9547e-11
1.29279e-08
4.86354e-08
4.86554e-08
2.58741e-08
2.63479e-08
3.62135e-08
1.36723e-07
6.37266e-07
2.80531e-06
3.32621e-06
1.98583e-07
2.64567e-08
2.43438e-08
2.43438e-08
2.43438e-08
3.63383e-08
2.10066e-07
2.65362e-07
2.67326e-07
1.06171e-06
5.72826e-06
7.14375e-06
7.22778e-06
7.12706e-06
2.28021e-06
1.83271e-06
2.58125e-05
0.000188779
0.000188779
8.75172e-05
2.37919e-05
8.12338e-05
5.4922e-05
3.03787e-05
3.70159e-05
7.43795e-05
7.4553e-05
7.43892e-05
1.19508e-05
2.82411e-07
1.85038e-07
2.51884e-07
1.17844e-05
1.97437e-05
3.93713e-06
1.99837e-06
6.60697e-06
6.31356e-06
1.63751e-06
1.62177e-06
1.58077e-06
1.82455e-06
2.44548e-06
2.35399e-05
9.15742e-05
8.73948e-05
5.94677e-05
0.000284646
0.000284193
7.95779e-05
2.28845e-05
1.59575e-05
0.000120882
0.00028523
0.000285336
0.000177498
2.92328e-06
6.16333e-08
9.702e-08
4.86088e-09
2.09394e-09
1.30822e-10
3.389e-11
9.76065e-11
6.03217e-11
2.09813e-12
2.08209e-13
7.98221e-12
8.25966e-11
6.74583e-11
4.89084e-09
4.26672e-08
4.81769e-08
2.29827e-08
2.6954e-08
1.01568e-07
4.48044e-06
4.60827e-05
0.00011684
0.00012271
1.26895e-05
7.0337e-08
2.64573e-08
2.43438e-08
3.63383e-08
8.26626e-08
1.21991e-07
1.42878e-07
1.92592e-07
2.67326e-07
1.66241e-06
6.85235e-06
7.12706e-06
7.10242e-06
3.70568e-06
1.86817e-06
9.48043e-06
0.000184501
0.000188779
0.000103571
1.76744e-05
2.59914e-05
4.63978e-05
3.02192e-05
3.02554e-05
6.78212e-05
7.43795e-05
7.4286e-05
3.49569e-05
1.16049e-06
1.6477e-07
1.13541e-07
4.25255e-06
2.05992e-05
5.82456e-06
1.46356e-06
1.34121e-06
1.32769e-06
1.35195e-06
1.40917e-06
1.46839e-06
1.59561e-06
1.84072e-06
5.37783e-06
8.3952e-05
4.00822e-05
6.23825e-05
0.000224639
0.000141651
7.19689e-05
3.85237e-05
0.000247138
0.000283798
0.00028457
0.000285212
0.000100434
7.87518e-08
2.70459e-09
8.5033e-11
9.48428e-09
3.99545e-09
6.33158e-11
1.23971e-11
4.12364e-11
2.27759e-11
5.03682e-13
1.48439e-13
8.30238e-12
2.02641e-10
6.14476e-10
6.20371e-10
2.17471e-09
1.7282e-08
9.53756e-09
1.78227e-08
1.53062e-07
4.7657e-05
0.000183984
0.000184817
0.000184814
6.5273e-05
6.13342e-07
7.03445e-08
1.81549e-07
5.63688e-05
0.000142391
6.97315e-05
1.92375e-07
2.67297e-07
4.56528e-07
7.42601e-07
1.3854e-06
7.10244e-06
7.07922e-06
6.84582e-06
1.56896e-06
1.75519e-06
6.23862e-05
0.000129417
5.96364e-05
1.11601e-05
1.36223e-05
2.24051e-05
4.79665e-05
2.91243e-05
2.59163e-05
7.35716e-05
7.42641e-05
6.21558e-05
2.84332e-06
1.09044e-07
2.00566e-08
1.8171e-07
1.94917e-05
3.99317e-05
6.09099e-06
1.32769e-06
1.29413e-06
1.30193e-06
1.34345e-06
1.40917e-06
1.46827e-06
1.62847e-06
5.51715e-05
0.00010852
3.92715e-05
6.23832e-05
8.8963e-06
1.1303e-06
1.23958e-05