/*--------------------------------*- C++ -*----------------------------------*\
| =========                 |                                                 |
| \\      /  F ield         | OpenFOAM: The Open Source CFD Toolbox           |
|  \\    /   O peration     | Version:  2412                                  |
|   \\  /    A nd           | Website:  www.openfoam.com                      |
|    \\/     M anipulation  |                                                 |
\*---------------------------------------------------------------------------*/
FoamFile
{
    version     2.0;
    format      ascii;
    arch        "LSB;label=32;scalar=64";
    class       volScalarField;
    location    "0.5";
    object      p;
}
// * * * * * * * * * * * * * * * * * * * * * * * * * * * * * * * * * * * * * //

dimensions      [1 -1 -2 0 0 0 0];

internalField   nonuniform List<scalar> 
6400
(
129443
129443
129443
129443
129443
129444
129444
129444
129444
129444
129445
129445
129445
129446
129446
129446
129447
129447
129448
129448
129449
129449
129450
129451
129452
129452
129453
129454
129455
129456
129456
129457
129458
129459
129459
129460
129460
129460
129461
129461
129461
129461
129460
129460
129459
129459
129458
129458
129457
129456
129455
129455
129454
129453
129453
129452
129451
129451
129450
129449
129449
129448
129448
129448
129447
129447
129446
129446
129446
129446
129445
129445
129445
129445
129445
129445
129444
129444
129444
129444
122805
122805
122805
122805
122805
122805
122805
122805
122806
122806
122806
122806
122807
122807
122807
122808
122808
122809
122809
122810
122810
122811
122812
122812
122813
122814
122815
122815
122816
122817
122818
122819
122819
122820
122821
122821
122822
122822
122822
122822
122822
122822
122822
122822
122821
122821
122820
122819
122819
122818
122817
122816
122816
122815
122814
122813
122813
122812
122812
122811
122810
122810
122809
122809
122809
122808
122808
122808
122807
122807
122807
122807
122807
122806
122806
122806
122806
122806
122806
122806
116166
116166
116166
116166
116167
116167
116167
116167
116167
116167
116168
116168
116168
116169
116169
116169
116170
116170
116171
116171
116172
116173
116173
116174
116175
116175
116176
116177
116178
116179
116180
116180
116181
116182
116183
116183
116184
116184
116184
116184
116184
116184
116184
116183
116183
116182
116182
116181
116180
116179
116179
116178
116177
116176
116176
116175
116174
116174
116173
116172
116172
116171
116171
116171
116170
116170
116169
116169
116169
116169
116168
116168
116168
116168
116168
116168
116168
116168
116167
116167
109528
109528
109528
109528
109528
109528
109528
109528
109529
109529
109529
109529
109530
109530
109530
109531
109531
109532
109532
109533
109533
109534
109535
109535
109536
109537
109538
109539
109539
109540
109541
109542
109543
109544
109544
109545
109545
109546
109546
109546
109546
109546
109546
109545
109545
109544
109543
109543
109542
109541
109540
109539
109539
109538
109537
109536
109536
109535
109535
109534
109533
109533
109532
109532
109532
109531
109531
109531
109530
109530
109530
109530
109530
109529
109529
109529
109529
109529
109529
109529
102889
102889
102889
102889
102890
102890
102890
102890
102890
102890
102891
102891
102891
102891
102892
102892
102893
102893
102894
102894
102895
102895
102896
102897
102898
102898
102899
102900
102901
102902
102903
102904
102905
102905
102906
102907
102907
102908
102908
102908
102908
102908
102908
102907
102907
102906
102905
102904
102904
102903
102902
102901
102900
102899
102899
102898
102897
102897
102896
102895
102895
102894
102894
102893
102893
102893
102892
102892
102892
102892
102891
102891
102891
102891
102891
102891
102891
102891
102890
102890
96250.8
96250.8
96250.8
96250.9
96251
96251.1
96251.2
96251.4
96251.6
96251.8
96252
96252.3
96252.6
96252.9
96253.2
96253.6
96254.1
96254.5
96255
96255.6
96256.2
96256.8
96257.5
96258.2
96259
96259.8
96260.7
96261.6
96262.6
96263.5
96264.5
96265.5
96266.5
96267.4
96268.2
96269
96269.6
96270.1
96270.4
96270.5
96270.5
96270.2
96269.8
96269.3
96268.6
96267.8
96267
96266.1
96265.2
96264.3
96263.4
96262.5
96261.6
96260.8
96260
96259.3
96258.6
96258
96257.3
96256.8
96256.3
96255.8
96255.3
96254.9
96254.5
96254.2
96253.8
96253.6
96253.3
96253.1
96252.8
96252.7
96252.5
96252.4
96252.2
96252.1
96252.1
96252
96252
96251.9
89612.2
89612.2
89612.3
89612.3
89612.4
89612.5
89612.7
89612.8
89613
89613.2
89613.4
89613.7
89613.9
89614.3
89614.6
89615
89615.4
89615.9
89616.4
89616.9
89617.5
89618.1
89618.8
89619.6
89620.4
89621.2
89622.1
89623.1
89624.1
89625.1
89626.2
89627.3
89628.3
89629.4
89630.3
89631.2
89631.9
89632.5
89632.8
89633
89632.9
89632.6
89632.1
89631.5
89630.7
89629.8
89628.9
89627.9
89626.9
89625.9
89624.9
89624
89623.1
89622.2
89621.4
89620.7
89620
89619.3
89618.7
89618.1
89617.6
89617.1
89616.7
89616.3
89615.9
89615.6
89615.2
89615
89614.7
89614.5
89614.3
89614.1
89613.9
89613.8
89613.7
89613.6
89613.5
89613.5
89613.4
89613.4
82973.6
82973.7
82973.7
82973.8
82973.8
82973.9
82974.1
82974.2
82974.4
82974.6
82974.8
82975
82975.3
82975.6
82975.9
82976.3
82976.7
82977.2
82977.7
82978.2
82978.8
82979.4
82980.1
82980.9
82981.7
82982.5
82983.5
82984.5
82985.6
82986.7
82987.8
82989
82990.2
82991.4
82992.5
82993.5
82994.4
82995
82995.5
82995.6
82995.5
82995.2
82994.6
82993.8
82992.9
82991.8
82990.8
82989.6
82988.5
82987.5
82986.4
82985.4
82984.5
82983.6
82982.8
82982
82981.3
82980.6
82980
82979.5
82978.9
82978.5
82978
82977.6
82977.3
82976.9
82976.6
82976.3
82976.1
82975.9
82975.7
82975.5
82975.3
82975.2
82975.1
82975
82974.9
82974.9
82974.8
82974.8
76335
76335.1
76335.1
76335.1
76335.2
76335.3
76335.4
76335.6
76335.7
76335.9
76336.1
76336.4
76336.6
76336.9
76337.2
76337.6
76338
76338.4
76338.9
76339.4
76340
76340.6
76341.3
76342.1
76342.9
76343.8
76344.8
76345.8
76347
76348.2
76349.5
76350.8
76352.1
76353.5
76354.8
76356
76357
76357.8
76358.3
76358.5
76358.4
76357.9
76357.2
76356.3
76355.1
76353.9
76352.7
76351.4
76350.2
76349
76347.9
76346.8
76345.8
76344.9
76344.1
76343.3
76342.6
76341.9
76341.3
76340.7
76340.2
76339.7
76339.3
76338.9
76338.6
76338.2
76338
76337.7
76337.5
76337.2
76337
76336.9
76336.7
76336.6
76336.5
76336.4
76336.3
76336.3
76336.3
76336.2
69696.4
69696.4
69696.5
69696.5
69696.6
69696.7
69696.8
69696.9
69697.1
69697.2
69697.4
69697.7
69697.9
69698.2
69698.5
69698.8
69699.2
69699.6
69700.1
69700.6
69701.2
69701.8
69702.5
69703.2
69704.1
69705
69706
69707.1
69708.3
69709.6
69711
69712.5
69714.1
69715.6
69717.2
69718.6
69719.9
69720.9
69721.5
69721.8
69721.6
69721
69720.1
69718.9
69717.5
69716.1
69714.6
69713.2
69711.8
69710.5
69709.3
69708.1
69707.1
69706.2
69705.3
69704.5
69703.8
69703.1
69702.5
69702
69701.5
69701
69700.6
69700.2
69699.9
69699.5
69699.3
69699
69698.8
69698.6
69698.4
69698.2
69698.1
69698
69697.9
69697.8
69697.7
69697.7
69697.7
69697.6
63057.8
63057.8
63057.8
63057.9
63057.9
63058
63058.1
63058.2
63058.4
63058.5
63058.7
63058.9
63059.2
63059.4
63059.7
63060.1
63060.4
63060.8
63061.3
63061.7
63062.3
63062.9
63063.6
63064.3
63065.2
63066.1
63067.1
63068.3
63069.5
63071
63072.5
63074.2
63075.9
63077.8
63079.7
63081.4
63083
63084.3
63085.1
63085.4
63085.2
63084.4
63083.2
63081.6
63080
63078.2
63076.5
63074.8
63073.3
63071.9
63070.6
63069.4
63068.3
63067.3
63066.4
63065.6
63064.9
63064.3
63063.7
63063.1
63062.6
63062.2
63061.8
63061.4
63061.1
63060.8
63060.6
63060.3
63060.1
63059.9
63059.7
63059.6
63059.5
63059.3
63059.3
63059.2
63059.1
63059.1
63059
63059
56419.1
56419.1
56419.2
56419.2
56419.3
56419.3
56419.4
56419.5
56419.7
56419.8
56420
56420.2
56420.4
56420.7
56420.9
56421.2
56421.6
56421.9
56422.4
56422.8
56423.3
56423.9
56424.6
56425.3
56426.1
56427.1
56428.1
56429.3
56430.7
56432.2
56433.8
56435.7
56437.7
56439.9
56442.2
56444.4
56446.5
56448.2
56449.3
56449.7
56449.3
56448.2
56446.6
56444.6
56442.5
56440.4
56438.3
56436.4
56434.7
56433.1
56431.7
56430.5
56429.4
56428.4
56427.5
56426.7
56426
56425.3
56424.8
56424.3
56423.8
56423.4
56423
56422.6
56422.3
56422.1
56421.8
56421.6
56421.4
56421.2
56421.1
56420.9
56420.8
56420.7
56420.6
56420.5
56420.5
56420.4
56420.4
56420.4
49780.5
49780.5
49780.5
49780.5
49780.6
49780.7
49780.7
49780.8
49781
49781.1
49781.2
49781.4
49781.6
49781.8
49782.1
49782.4
49782.7
49783
49783.4
49783.9
49784.3
49784.9
49785.5
49786.2
49787
49788
49789
49790.2
49791.6
49793.2
49795
49797.1
49799.4
49802
49804.8
49807.6
49810.3
49812.6
49814.1
49814.7
49814.1
49812.5
49810.3
49807.7
49805
49802.4
49800
49797.8
49795.9
49794.2
49792.7
49791.5
49790.3
49789.3
49788.4
49787.7
49787
49786.4
49785.8
49785.3
49784.9
49784.5
49784.1
49783.8
49783.5
49783.3
49783
49782.8
49782.7
49782.5
49782.3
49782.2
49782.1
49782
49781.9
49781.9
49781.8
49781.8
49781.7
49781.7
43141.8
43141.8
43141.8
43141.8
43141.9
43141.9
43142
43142.1
43142.2
43142.3
43142.5
43142.6
43142.8
43143
43143.2
43143.5
43143.8
43144.1
43144.4
43144.8
43145.3
43145.8
43146.4
43147
43147.8
43148.7
43149.7
43150.9
43152.3
43154
43155.9
43158.2
43160.8
43163.9
43167.3
43170.9
43174.6
43177.8
43180
43180.8
43179.9
43177.5
43174.4
43170.9
43167.4
43164.2
43161.4
43159
43156.9
43155.1
43153.6
43152.3
43151.1
43150.2
43149.3
43148.6
43147.9
43147.3
43146.8
43146.4
43145.9
43145.6
43145.3
43145
43144.7
43144.5
43144.3
43144.1
43143.9
43143.8
43143.6
43143.5
43143.4
43143.3
43143.2
43143.2
43143.1
43143.1
43143.1
43143.1
36503.1
36503.1
36503.1
36503.1
36503.2
36503.2
36503.3
36503.4
36503.4
36503.5
36503.7
36503.8
36504
36504.1
36504.3
36504.5
36504.8
36505.1
36505.4
36505.7
36506.1
36506.6
36507.1
36507.7
36508.5
36509.3
36510.3
36511.4
36512.8
36514.5
36516.5
36518.9
36521.8
36525.4
36529.5
36534.2
36539.3
36543.9
36547.3
36548.5
36547
36543.4
36538.8
36534
36529.6
36525.7
36522.5
36519.8
36517.6
36515.7
36514.2
36512.9
36511.8
36510.9
36510.1
36509.4
36508.8
36508.2
36507.8
36507.3
36507
36506.6
36506.3
36506.1
36505.8
36505.6
36505.4
36505.3
36505.1
36505
36504.9
36504.8
36504.7
36504.6
36504.5
36504.5
36504.5
36504.4
36504.4
36504.4
29864.3
29864.4
29864.4
29864.4
29864.4
29864.5
29864.5
29864.6
29864.7
29864.7
29864.8
29865
29865.1
29865.2
29865.4
29865.6
29865.8
29866
29866.3
29866.6
29867
29867.4
29867.8
29868.4
29869
29869.7
29870.6
29871.7
29873
29874.6
29876.6
29879.1
29882.2
29886.2
29891.2
29897.3
29904.3
29911.3
29916.9
29918.9
29916.3
29910.4
29903.4
29896.7
29891.1
29886.6
29883
29880.2
29877.9
29876.1
29874.6
29873.3
29872.3
29871.5
29870.7
29870.1
29869.5
29869.1
29868.6
29868.3
29867.9
29867.6
29867.4
29867.2
29867
29866.8
29866.6
29866.5
29866.3
29866.2
29866.1
29866
29866
29865.9
29865.8
29865.8
29865.8
29865.7
29865.7
29865.7
23225.6
23225.6
23225.6
23225.7
23225.7
23225.7
23225.8
23225.8
23225.9
23225.9
23226
23226.1
23226.2
23226.3
23226.5
23226.6
23226.8
23227
23227.2
23227.4
23227.7
23228.1
23228.4
23228.9
23229.4
23230
23230.8
23231.7
23232.9
23234.4
23236.2
23238.6
23241.8
23246.1
23251.8
23259.5
23269.2
23280.3
23289.9
23293.8
23288.8
23278.5
23267.5
23258.5
23251.6
23246.6
23242.8
23239.9
23237.7
23236
23234.7
23233.6
23232.7
23231.9
23231.3
23230.7
23230.2
23229.8
23229.5
23229.1
23228.9
23228.6
23228.4
23228.2
23228
23227.9
23227.8
23227.6
23227.5
23227.4
23227.4
23227.3
23227.2
23227.2
23227.1
23227.1
23227
23227
23227
23227
16586.9
16586.9
16586.9
16586.9
16586.9
16587
16587
16587
16587.1
16587.1
16587.2
16587.2
16587.3
16587.4
16587.5
16587.6
16587.7
16587.9
16588
16588.2
16588.4
16588.7
16589
16589.3
16589.7
16590.2
16590.8
16591.6
16592.5
16593.7
16595.3
16597.4
16600.3
16604.4
16610.5
16619.7
16632.9
16650.6
16668.5
16677.5
16666.6
16647.3
16629.9
16618
16610.4
16605.3
16601.7
16599.1
16597.1
16595.7
16594.5
16593.6
16592.9
16592.2
16591.7
16591.3
16590.9
16590.5
16590.3
16590
16589.8
16589.6
16589.4
16589.3
16589.1
16589
16588.9
16588.8
16588.7
16588.6
16588.6
16588.5
16588.5
16588.4
16588.4
16588.4
16588.3
16588.3
16588.3
16588.3
9948.13
9948.14
9948.15
9948.16
9948.17
9948.19
9948.21
9948.23
9948.26
9948.29
9948.33
9948.37
9948.42
9948.48
9948.54
9948.61
9948.69
9948.78
9948.88
9949
9949.14
9949.31
9949.5
9949.72
9949.98
9950.31
9950.7
9951.2
9951.85
9952.7
9953.85
9955.46
9957.77
9961.32
9966.79
9975.7
9992.12
10021
10056.1
10079
10052.9
10014.5
9986.66
9973.19
9966.51
9962.5
9959.74
9957.72
9956.18
9955.02
9954.16
9953.48
9952.94
9952.48
9952.1
9951.77
9951.48
9951.23
9951.01
9950.82
9950.66
9950.51
9950.39
9950.27
9950.18
9950.09
9950.01
9949.94
9949.88
9949.83
9949.78
9949.74
9949.71
9949.68
9949.65
9949.63
9949.61
9949.59
9949.58
9949.58
3309.34
3309.34
3309.35
3309.35
3309.36
3309.37
3309.38
3309.38
3309.39
3309.4
3309.41
3309.43
3309.44
3309.46
3309.48
3309.5
3309.53
3309.56
3309.6
3309.64
3309.68
3309.74
3309.8
3309.87
3309.95
3310.04
3310.16
3310.31
3310.52
3310.82
3311.26
3311.88
3312.75
3313.88
3315.39
3318.89
3334.42
3385.49
3485.67
3587.22
3481.4
3369.68
3322.89
3317.03
3317.7
3316.96
3315.9
3315.06
3314.4
3313.88
3313.44
3313.08
3312.77
3312.51
3312.28
3312.07
3311.91
3311.76
3311.63
3311.52
3311.42
3311.34
3311.27
3311.21
3311.15
3311.1
3311.06
3311.02
3310.99
3310.96
3310.93
3310.91
3310.89
3310.87
3310.86
3310.84
3310.83
3310.83
3310.82
3310.81
-10.4215
-10.4177
-10.4136
-10.4093
-10.404
-10.3975
-10.3908
-10.3837
-10.3757
-10.3658
-10.3537
-10.3392
-10.3225
-10.3036
-10.2823
-10.2582
-10.2303
-10.1975
-10.159
-10.1142
-10.0629
-10.0043
-9.93704
-9.8585
-9.76652
-9.65615
-9.51947
-9.34407
-9.10543
-8.76294
-8.28369
-7.60795
-6.67645
-5.46818
-3.88839
-0.382416
15.0524
66.326
168.04
258.958
163.571
50.171
3.35989
-2.13967
-1.39273
-2.19375
-3.32255
-4.21404
-4.90888
-5.47646
-5.94793
-6.34351
-6.68163
-6.97518
-7.2325
-7.45787
-7.64617
-7.80848
-7.95464
-8.08056
-8.18925
-8.28415
-8.36744
-8.4405
-8.50566
-8.56321
-8.61375
-8.65828
-8.69782
-8.73273
-8.76368
-8.79078
-8.81405
-8.83404
-8.85137
-8.86597
-8.87803
-8.88703
-8.89377
-8.89859
-11.2029
-11.2019
-11.1993
-11.1955
-11.191
-11.1859
-11.18
-11.1729
-11.1639
-11.1528
-11.1392
-11.1231
-11.1044
-11.0832
-11.059
-11.0311
-10.9983
-10.9594
-10.9134
-10.8594
-10.7964
-10.7232
-10.6379
-10.5369
-10.4152
-10.2649
-10.0747
-9.82752
-9.49712
-9.04279
-8.39971
-7.4704
-6.10575
-4.06894
-1.0941
3.60748
15.3565
46.4998
102.847
144.913
90.513
30.1652
6.26149
1.90018
0.288443
-1.67434
-3.25512
-4.35663
-5.17435
-5.8177
-6.33927
-6.77188
-7.13795
-7.45298
-7.72743
-7.96806
-8.18018
-8.3659
-8.53002
-8.6733
-8.79866
-8.90933
-9.00703
-9.09334
-9.16986
-9.23779
-9.29804
-9.35142
-9.39859
-9.44012
-9.47652
-9.50825
-9.53575
-9.55936
-9.57932
-9.59581
-9.60893
-9.61875
-9.62529
-9.62855
-11.6968
-11.6956
-11.693
-11.6895
-11.6854
-11.6808
-11.6754
-11.6686
-11.6601
-11.6493
-11.6363
-11.621
-11.6036
-11.5839
-11.5615
-11.5355
-11.5049
-11.4687
-11.4262
-11.3768
-11.3201
-11.2553
-11.181
-11.0947
-10.9928
-10.8701
-10.7191
-10.5288
-10.283
-9.95759
-9.51663
-8.90774
-8.06808
-7.05408
-6.18036
-4.39514
5.67253
32.655
67.5687
81.787
44.0592
9.253
-3.35466
-3.2926
-2.72893
-3.54399
-4.54495
-5.34156
-5.98664
-6.52876
-6.9875
-7.3805
-7.72034
-8.01763
-8.27947
-8.51054
-8.71544
-8.89534
-9.05391
-9.19325
-9.31523
-9.42264
-9.51779
-9.6021
-9.67675
-9.74294
-9.80176
-9.85399
-9.90021
-9.94092
-9.97659
-10.0077
-10.0346
-10.0577
-10.0773
-10.0934
-10.1063
-10.1159
-10.1223
-10.1255
-12.1895
-12.1883
-12.1859
-12.1828
-12.1792
-12.1749
-12.1697
-12.1632
-12.1548
-12.1446
-12.1323
-12.1182
-12.1022
-12.0841
-12.0633
-12.0392
-12.0111
-11.9782
-11.9402
-11.897
-11.8485
-11.7944
-11.7341
-11.6667
-11.591
-11.5056
-11.4088
-11.2987
-11.174
-11.0371
-10.8989
-10.7841
-10.7804
-11.2981
-13.3673
-16.3594
-12.4241
6.94798
31.0374
22.6009
-3.35518
-14.5326
-13.8686
-9.29462
-6.42034
-5.89699
-6.14569
-6.52498
-6.92864
-7.32705
-7.69704
-8.03334
-8.33593
-8.60749
-8.85065
-9.06832
-9.26216
-9.43421
-9.58555
-9.71907
-9.83686
-9.94059
-10.0323
-10.1139
-10.1863
-10.2506
-10.3078
-10.3586
-10.4035
-10.4431
-10.4779
-10.5083
-10.5346
-10.5573
-10.5764
-10.5921
-10.6047
-10.6141
-10.6204
-10.6235
-12.6839
-12.6829
-12.6809
-12.6784
-12.6753
-12.6715
-12.6666
-12.6604
-12.6527
-12.6434
-12.6326
-12.6203
-12.6064
-12.5905
-12.5722
-12.551
-12.5267
-12.4991
-12.4682
-12.4343
-12.3976
-12.3584
-12.3176
-12.276
-12.2354
-12.1985
-12.1701
-12.1579
-12.1766
-12.2553
-12.4504
-12.8578
-13.6868
-15.553
-19.6744
-25.5994
-28.7124
-19.9553
4.98018
-12.8969
-24.4393
-21.271
-16.5091
-12.1139
-9.12062
-7.97629
-7.71305
-7.75775
-7.94297
-8.19746
-8.47242
-8.74327
-8.99995
-9.23895
-9.45741
-9.65694
-9.83543
-9.99589
-10.1379
-10.2635
-10.3748
-10.4732
-10.5602
-10.6376
-10.7065
-10.7679
-10.8226
-10.8711
-10.9141
-10.9522
-10.9856
-11.0149
-11.0403
-11.0621
-11.0805
-11.0956
-11.1077
-11.1167
-11.1227
-11.1257
-13.18
-13.1792
-13.1777
-13.1758
-13.1732
-13.1698
-13.1654
-13.1598
-13.153
-13.1453
-13.1364
-13.1264
-13.1149
-13.1017
-13.0864
-13.0691
-13.0498
-13.029
-13.0069
-12.9842
-12.9614
-12.9399
-12.9216
-12.9095
-12.908
-12.9236
-12.9666
-13.0531
-13.2106
-13.4878
-13.9706
-14.795
-16.2093
-18.7905
-23.272
-28.9445
-35.146
-40.6622
-26.9361
-37.2654
-23.7112
-19.2038
-15.6093
-12.8513
-10.6556
-9.49604
-9.04011
-8.9037
-8.94315
-9.08593
-9.27761
-9.48692
-9.69727
-9.90113
-10.0919
-10.2703
-10.4315
-10.5773
-10.7079
-10.8238
-10.9266
-11.0181
-11.0995
-11.172
-11.2366
-11.2942
-11.3456
-11.3912
-11.4317
-11.4676
-11.4992
-11.527
-11.5511
-11.5717
-11.5891
-11.6035
-11.6149
-11.6235
-11.6291
-11.6319
-13.6775
-13.6769
-13.6759
-13.6745
-13.6724
-13.6695
-13.6657
-13.661
-13.6556
-13.6497
-13.6431
-13.6356
-13.6268
-13.6165
-13.6048
-13.5919
-13.5785
-13.5653
-13.5528
-13.5418
-13.5335
-13.5301
-13.5347
-13.5518
-13.5874
-13.6508
-13.7558
-13.9244
-14.1916
-14.6156
-15.2924
-16.3646
-18.0572
-20.7704
-24.617
-28.612
-31.4942
-36.7922
-79.1574
-51.7066
-15.9291
-14.9122
-13.9359
-12.7174
-11.3856
-10.5059
-10.0851
-9.904
-9.87611
-9.95147
-10.0831
-10.2424
-10.4122
-10.583
-10.7464
-10.9016
-11.0449
-11.1748
-11.2924
-11.3978
-11.4915
-11.5749
-11.6492
-11.7157
-11.7751
-11.8282
-11.8756
-11.9179
-11.9555
-11.9888
-12.0183
-12.0441
-12.0666
-12.0858
-12.102
-12.1154
-12.126
-12.1339
-12.1392
-12.1419
-14.1763
-14.1759
-14.1753
-14.1744
-14.1729
-14.1705
-14.1675
-14.164
-14.1604
-14.1565
-14.1523
-14.1474
-14.1414
-14.1344
-14.1266
-14.1187
-14.1116
-14.1061
-14.1031
-14.1036
-14.1094
-14.1233
-14.1491
-14.1918
-14.2585
-14.3595
-14.5103
-14.7353
-15.072
-15.5792
-16.3482
-17.5093
-19.2476
-21.7907
-24.9897
-27.853
-29.4135
-32.5356
-64.4919
-123.913
-11.4356
-12.1816
-12.7586
-12.4354
-11.7465
-11.2046
-10.9153
-10.7705
-10.7332
-10.779
-10.8749
-10.9984
-11.1351
-11.2763
-11.4153
-11.5478
-11.6728
-11.787
-11.8902
-11.9835
-12.0671
-12.1418
-12.2086
-12.2683
-12.3218
-12.3696
-12.4125
-12.4508
-12.485
-12.5155
-12.5424
-12.566
-12.5866
-12.6041
-12.6189
-12.6311
-12.6408
-12.6481
-12.6529
-12.6554
-14.6762
-14.676
-14.6758
-14.6753
-14.6743
-14.6727
-14.6708
-14.6688
-14.6669
-14.6653
-14.6634
-14.6611
-14.6581
-14.6546
-14.651
-14.6483
-14.6475
-14.6495
-14.6553
-14.6664
-14.685
-14.7141
-14.7577
-14.8206
-14.9098
-15.0355
-15.2131
-15.4663
-15.8312
-16.3614
-17.1352
-18.2639
-19.8925
-22.1257
-24.7444
-27.033
-28.4182
-30.2372
-35.9844
-93.7426
-15.7919
-12.218
-12.2782
-12.3787
-12.0463
-11.7664
-11.6192
-11.5433
-11.529
-11.5704
-11.6489
-11.7491
-11.8617
-11.9779
-12.0945
-12.2057
-12.3115
-12.4099
-12.4995
-12.5802
-12.6528
-12.718
-12.7764
-12.8288
-12.8758
-12.918
-12.9558
-12.9897
-13.02
-13.0471
-13.0712
-13.0923
-13.1106
-13.1263
-13.1395
-13.1504
-13.1591
-13.1657
-13.1701
-13.1723
-15.1771
-15.177
-15.1771
-15.1771
-15.1767
-15.176
-15.1753
-15.1749
-15.175
-15.1754
-15.1759
-15.1762
-15.1763
-15.1764
-15.1773
-15.1798
-15.1848
-15.1936
-15.2073
-15.2276
-15.257
-15.2984
-15.3553
-15.4318
-15.534
-15.671
-15.8567
-16.112
-16.4687
-16.972
-17.6857
-18.7
-20.1286
-22.016
-24.1578
-25.7855
-26.778
-26.5008
-27.4422
-86.3467
-13.7913
-11.783
-12.4021
-12.5122
-12.385
-12.2858
-12.2642
-12.2625
-12.2841
-12.3357
-12.409
-12.4946
-12.5886
-12.6844
-12.7807
-12.8734
-12.9608
-13.0426
-13.1177
-13.1858
-13.247
-13.3021
-13.3516
-13.3962
-13.4363
-13.4724
-13.5048
-13.5339
-13.5601
-13.5835
-13.6043
-13.6225
-13.6384
-13.6521
-13.6636
-13.6731
-13.6807
-13.6865
-13.6904
-13.6924
-15.6786
-15.6788
-15.6792
-15.6796
-15.6799
-15.6802
-15.6809
-15.6822
-15.6841
-15.6864
-15.6891
-15.6921
-15.6954
-15.6993
-15.7045
-15.7119
-15.7223
-15.737
-15.7574
-15.7855
-15.8234
-15.8737
-15.9389
-16.0224
-16.1288
-16.2654
-16.4432
-16.679
-16.9983
-17.4377
-18.0481
-18.9003
-20.0766
-21.6177
-23.5825
-24.7135
-25.0824
-24.3895
-24.3438
-54.1275
-14.5506
-12.384
-12.6773
-12.7071
-12.7538
-12.8112
-12.8956
-12.9618
-13.0204
-13.0872
-13.1611
-13.2379
-13.3174
-13.3961
-13.473
-13.5476
-13.6179
-13.6835
-13.7439
-13.7988
-13.8484
-13.893
-13.9333
-13.9696
-14.0023
-14.0319
-14.0586
-14.0827
-14.1044
-14.1238
-14.1411
-14.1563
-14.1696
-14.1811
-14.1908
-14.1989
-14.2054
-14.2103
-14.2137
-14.2154
-16.1808
-16.1811
-16.1818
-16.1827
-16.1838
-16.1852
-16.1873
-16.1902
-16.1937
-16.1979
-16.2027
-16.2084
-16.2149
-16.2226
-16.2319
-16.2436
-16.2588
-16.2786
-16.3046
-16.3387
-16.3828
-16.4385
-16.5078
-16.5926
-16.6963
-16.8232
-16.9808
-17.1811
-17.4425
-17.7923
-18.2705
-18.939
-19.8319
-21.0978
-22.6053
-23.5791
-23.8242
-23.2199
-22.7259
-32.1744
-29.3598
-13.4254
-12.7377
-12.9806
-13.1842
-13.3742
-13.5443
-13.6671
-13.7575
-13.8381
-13.9132
-13.9829
-14.0492
-14.1123
-14.172
-14.2286
-14.2816
-14.331
-14.3765
-14.418
-14.4556
-14.4896
-14.5203
-14.5481
-14.5732
-14.596
-14.6166
-14.6353
-14.6522
-14.6675
-14.6811
-14.6932
-14.7038
-14.713
-14.7209
-14.7274
-14.7327
-14.7367
-14.7395
-14.7409
-16.6833
-16.6838
-16.6848
-16.6862
-16.6881
-16.6908
-16.6942
-16.6985
-16.7035
-16.7094
-16.7163
-16.7246
-16.7342
-16.7455
-16.7586
-16.7743
-16.7937
-16.8179
-16.8485
-16.8871
-16.9351
-16.9935
-17.0632
-17.1454
-17.2412
-17.3525
-17.4827
-17.638
-17.8291
-18.072
-18.3892
-18.8187
-19.4208
-20.2585
-21.2823
-21.9865
-22.0747
-21.5886
-22.1205
-26.5148
-31.4457
-13.569
-12.8828
-13.4101
-13.7468
-14.009
-14.2358
-14.3983
-14.5113
-14.6003
-14.6737
-14.735
-14.7877
-14.8345
-14.8768
-14.9155
-14.9512
-14.9843
-15.0146
-15.0423
-15.0676
-15.0905
-15.1114
-15.1304
-15.1477
-15.1635
-15.1778
-15.191
-15.203
-15.2139
-15.2238
-15.2327
-15.2406
-15.2475
-15.2534
-15.2583
-15.2623
-15.2654
-15.2675
-15.2686
-17.1859
-17.1865
-17.1878
-17.1898
-17.1926
-17.1964
-17.2011
-17.2066
-17.213
-17.2205
-17.2296
-17.2404
-17.253
-17.2674
-17.2839
-17.3033
-17.3264
-17.3545
-17.3888
-17.4305
-17.4806
-17.5397
-17.6081
-17.6855
-17.7712
-17.8642
-17.9643
-18.0718
-18.1891
-18.3189
-18.468
-18.652
-18.893
-19.2165
-19.6503
-19.9252
-19.7005
-19.217
-19.5874
-25.6219
-38.2181
-15.3145
-13.4982
-14.1258
-14.4874
-14.7454
-14.9881
-15.171
-15.2945
-15.384
-15.4505
-15.4991
-15.5357
-15.5646
-15.5882
-15.6081
-15.6257
-15.6419
-15.6568
-15.6704
-15.683
-15.6946
-15.7054
-15.7153
-15.7246
-15.7333
-15.7413
-15.7489
-15.756
-15.7626
-15.7687
-15.7744
-15.7795
-15.784
-15.7878
-15.7911
-15.7938
-15.7959
-15.7974
-15.7982
-17.6883
-17.6891
-17.6907
-17.6933
-17.697
-17.7018
-17.7075
-17.7142
-17.7219
-17.7311
-17.7422
-17.7553
-17.7706
-17.7878
-17.8074
-17.83
-17.8566
-17.8882
-17.9255
-17.9695
-18.0208
-18.0796
-18.1456
-18.2177
-18.2933
-18.3693
-18.4419
-18.5063
-18.5569
-18.582
-18.5779
-18.5209
-18.3906
-18.1757
-17.9395
-17.7655
-17.2283
-16.8293
-15.7982
-14.9782
-35.1175
-14.8089
-14.4232
-15.1087
-15.376
-15.5709
-15.8058
-15.9951
-16.1178
-16.1978
-16.25
-16.28
-16.2957
-16.3033
-16.3059
-16.3057
-16.3044
-16.303
-16.3018
-16.301
-16.3007
-16.3007
-16.3011
-16.3019
-16.3031
-16.3046
-16.3063
-16.3083
-16.3105
-16.3128
-16.3152
-16.3176
-16.3199
-16.322
-16.3238
-16.3254
-16.3268
-16.3279
-16.3287
-16.3292
-18.1902
-18.1912
-18.1932
-18.1963
-18.2007
-18.2064
-18.2132
-18.221
-18.23
-18.2407
-18.2537
-18.269
-18.2865
-18.3062
-18.3286
-18.3543
-18.3843
-18.4188
-18.4587
-18.5045
-18.5567
-18.6154
-18.6795
-18.7473
-18.8151
-18.8783
-18.9305
-18.9629
-18.9627
-18.9119
-18.7828
-18.5254
-18.075
-17.3776
-16.5416
-15.8689
-15.354
-15.2172
-13.5122
-14.3949
-24.5504
-16.4576
-16.1843
-16.1048
-16.2711
-16.4449
-16.6838
-16.8771
-16.9887
-17.0484
-17.0762
-17.0803
-17.0698
-17.0519
-17.0302
-17.0077
-16.9861
-16.9661
-16.9482
-16.9325
-16.9189
-16.9073
-16.8974
-16.889
-16.8821
-16.8764
-16.8719
-16.8684
-16.8657
-16.8638
-16.8625
-16.8617
-16.8613
-16.861
-16.8608
-16.8607
-16.8608
-16.8609
-16.8611
-16.8613
-18.6913
-18.6925
-18.6948
-18.6985
-18.7036
-18.71
-18.7177
-18.7265
-18.7368
-18.7491
-18.7639
-18.781
-18.8003
-18.8222
-18.8471
-18.8758
-18.9088
-18.9462
-18.9885
-19.0363
-19.0898
-19.1489
-19.2125
-19.2783
-19.3426
-19.4
-19.4424
-19.4589
-19.4337
-19.3415
-19.1403
-18.7605
-18.0945
-17.0196
-15.6298
-14.5111
-13.91
-14.2686
-13.012
-20.9298
-7.5474
-18.7337
-17.6282
-16.6499
-16.9798
-17.3119
-17.6213
-17.8262
-17.9152
-17.9414
-17.933
-17.9016
-17.8579
-17.8092
-17.7601
-17.713
-17.6693
-17.6297
-17.5945
-17.5635
-17.5365
-17.5131
-17.4929
-17.4755
-17.4606
-17.448
-17.4373
-17.4284
-17.421
-17.415
-17.4101
-17.4062
-17.403
-17.4004
-17.3983
-17.3966
-17.3954
-17.3946
-17.3942
-17.3941
-19.1914
-19.1928
-19.1953
-19.1994
-19.2051
-19.2122
-19.2206
-19.2304
-19.242
-19.2559
-19.2722
-19.2909
-19.3118
-19.3356
-19.3629
-19.3944
-19.4302
-19.4703
-19.5152
-19.5653
-19.621
-19.6818
-19.7467
-19.8136
-19.8795
-19.939
-19.9837
-20.0026
-19.9829
-19.8918
-19.6879
-19.2998
-18.5935
-17.3732
-15.582
-13.5651
-13.1512
-13.8573
-12.0412
-9.18386
8.5967
-21.6835
-18.0524
-16.7404
-17.4651
-18.203
-18.6687
-18.8702
-18.9104
-18.882
-18.8219
-18.7437
-18.6585
-18.5738
-18.4933
-18.4191
-18.3519
-18.292
-18.239
-18.1926
-18.1522
-18.117
-18.0866
-18.0603
-18.0377
-18.0182
-18.0016
-17.9874
-17.9755
-17.9655
-17.9572
-17.9503
-17.9446
-17.9397
-17.9358
-17.9326
-17.9302
-17.9285
-17.9275
-17.9271
-19.69
-19.6916
-19.6944
-19.6988
-19.7049
-19.7125
-19.7216
-19.7324
-19.7454
-19.7607
-19.7784
-19.7983
-19.8207
-19.8463
-19.8759
-19.9099
-19.9483
-19.9911
-20.0388
-20.0918
-20.1504
-20.2141
-20.2823
-20.3539
-20.4267
-20.4962
-20.5552
-20.5985
-20.6065
-20.5611
-20.4236
-20.1604
-19.6469
-18.6939
-17.01
-14.8325
-13.5196
-13.2175
-11.9125
13.1616
23.7888
-20.7983
-18.5581
-17.1339
-18.0315
-19.381
-19.9698
-20.0587
-19.9907
-19.8752
-19.7424
-19.6036
-19.4683
-19.3421
-19.227
-19.1235
-19.0316
-18.9506
-18.8798
-18.818
-18.7643
-18.7178
-18.6774
-18.6425
-18.6123
-18.5863
-18.5639
-18.5448
-18.5285
-18.5148
-18.5032
-18.4935
-18.4853
-18.4785
-18.4728
-18.4682
-18.4647
-18.4622
-18.4607
-18.46
-20.187
-20.1887
-20.1917
-20.1963
-20.2027
-20.2107
-20.2205
-20.2323
-20.2464
-20.263
-20.2818
-20.3029
-20.3267
-20.354
-20.3857
-20.422
-20.4627
-20.5082
-20.559
-20.6155
-20.6777
-20.7455
-20.8191
-20.8984
-20.9825
-21.0689
-21.1535
-21.2316
-21.2943
-21.3328
-21.3376
-21.288
-21.1931
-21.2061
-21.0583
-19.9269
-16.8462
-15.2023
-16.3951
-13.8972
15.6376
-29.8013
-23.1406
-19.2782
-20.2664
-21.7846
-21.8198
-21.4544
-21.1649
-20.9162
-20.6862
-20.4735
-20.2807
-20.1088
-19.9567
-19.8227
-19.7055
-19.6034
-19.5148
-19.438
-19.3715
-19.3139
-19.2641
-19.2209
-19.1836
-19.1514
-19.1236
-19.0998
-19.0795
-19.0622
-19.0476
-19.0353
-19.0249
-19.0161
-19.0089
-19.003
-18.9986
-18.9954
-18.9933
-18.9923
-20.6821
-20.6839
-20.687
-20.6917
-20.6983
-20.7067
-20.7171
-20.7298
-20.745
-20.7626
-20.7824
-20.8046
-20.8298
-20.8587
-20.8923
-20.9306
-20.9737
-21.022
-21.076
-21.1362
-21.2026
-21.2754
-21.3558
-21.4448
-21.5427
-21.6495
-21.7645
-21.8868
-22.015
-22.1505
-22.3027
-22.4997
-22.8427
-23.7437
-25.3985
-27.7686
-31.3816
-25.131
-39.0024
-87.9398
-10.1711
-47.7465
-33.2682
-27.0725
-25.6395
-24.9525
-23.9108
-22.9617
-22.3838
-21.974
-21.6331
-21.3394
-21.0858
-20.8665
-20.6767
-20.5123
-20.3702
-20.2476
-20.1419
-20.0507
-19.972
-19.9041
-19.8454
-19.7945
-19.7506
-19.7126
-19.6799
-19.6518
-19.6277
-19.6073
-19.5899
-19.5752
-19.5628
-19.5523
-19.5437
-19.5367
-19.5313
-19.5274
-19.5249
-19.5236
-21.175
-21.1768
-21.1799
-21.1848
-21.1915
-21.2002
-21.2112
-21.2246
-21.2407
-21.2592
-21.2799
-21.3032
-21.3299
-21.3601
-21.3955
-21.4357
-21.4809
-21.5318
-21.5891
-21.653
-21.7237
-21.8021
-21.8901
-21.9896
-22.1021
-22.23
-22.3759
-22.5424
-22.733
-22.9558
-23.2327
-23.6086
-24.1823
-25.3421
-27.1688
-29.9419
-41.1138
-37.0628
-51.2194
-150.24
-42.4029
-57.4017
-38.5088
-30.9058
-27.9887
-26.672
-25.4976
-24.3242
-23.5408
-22.9952
-22.5537
-22.1838
-21.8718
-21.6068
-21.3807
-21.1873
-21.0218
-20.88
-20.7585
-20.6541
-20.5643
-20.487
-20.4202
-20.3624
-20.3125
-20.2694
-20.2323
-20.2003
-20.1729
-20.1496
-20.1298
-20.1129
-20.0987
-20.0867
-20.0768
-20.0687
-20.0625
-20.058
-20.0551
-20.0536
-21.6655
-21.6673
-21.6705
-21.6755
-21.6824
-21.6913
-21.7027
-21.7168
-21.7334
-21.7526
-21.7741
-21.7985
-21.8264
-21.8584
-21.8951
-21.9369
-21.9841
-22.0375
-22.0977
-22.1649
-22.2399
-22.3241
-22.4197
-22.5292
-22.6556
-22.803
-22.9764
-23.1807
-23.423
-23.7128
-24.0731
-24.5475
-25.0842
-26.0587
-27.1076
-28.3236
-40.6556
-41.7513
-42.9493
-46.3465
-18.5821
-49.7398
-37.8655
-32.4147
-27.5367
-27.1753
-26.5031
-25.416
-24.5683
-23.9399
-23.4226
-22.9894
-22.6264
-22.3208
-22.0623
-21.843
-21.6566
-21.4978
-21.3623
-21.2463
-21.1469
-21.0613
-20.9875
-20.9238
-20.8688
-20.8212
-20.7802
-20.7449
-20.7146
-20.6888
-20.6668
-20.6481
-20.6322
-20.6189
-20.6078
-20.5989
-20.592
-20.5869
-20.5835
-20.5817
-22.1536
-22.1554
-22.1586
-22.1637
-22.1709
-22.1802
-22.1919
-22.2063
-22.2234
-22.2429
-22.2651
-22.2904
-22.3195
-22.3529
-22.3909
-22.434
-22.4829
-22.5384
-22.601
-22.6713
-22.7503
-22.8398
-22.9423
-23.0606
-23.1988
-23.3625
-23.5577
-23.7912
-24.0718
-24.407
-24.8065
-25.2842
-25.7924
-26.3941
-26.6191
-26.4845
-34.6904
-39.7104
-32.9052
-21.2315
-5.93442
-36.4723
-36.9851
-30.3528
-27.4839
-27.732
-27.3383
-26.3366
-25.4754
-24.7979
-24.2259
-23.7437
-23.3396
-23.0006
-22.7153
-22.4745
-22.2708
-22.098
-21.951
-21.8256
-21.7182
-21.626
-21.5465
-21.4779
-21.4187
-21.3675
-21.3233