/*--------------------------------*- C++ -*----------------------------------*\
| =========                 |                                                 |
| \\      /  F ield         | OpenFOAM: The Open Source CFD Toolbox           |
|  \\    /   O peration     | Version:  2412                                  |
|   \\  /    A nd           | Website:  www.openfoam.com                      |
|    \\/     M anipulation  |                                                 |
\*---------------------------------------------------------------------------*/
FoamFile
{
    version     2.0;
    format      ascii;
    arch        "LSB;label=32;scalar=64";
    class       surfaceScalarField;
    location    "3.15";
    object      alphaPhi0.molasses;
}
// * * * * * * * * * * * * * * * * * * * * * * * * * * * * * * * * * * * * * //

dimensions      [0 3 -1 0 0 0 0];

oriented        oriented;

internalField   nonuniform List<scalar> 
12640
(
1.98281e-13
-1.98113e-13
2.74707e-13
2.41689e-14
-5.37306e-14
4.19898e-13
-8.03251e-13
8.32018e-13
-1.60371e-12
8.78385e-13
-2.46658e-12
9.35704e-13
-3.35512e-12
9.54858e-13
-4.21959e-12
9.22693e-13
-5.05235e-12
8.81722e-13
-5.85326e-12
8.39272e-13
-6.61085e-12
7.8444e-13
-7.29232e-12
6.95401e-13
-7.87263e-12
5.80428e-13
-8.33478e-12
4.47013e-13
-8.67994e-12
3.14029e-13
-8.90976e-12
1.81468e-13
-9.02697e-12
5.12684e-14
-9.02409e-12
-8.71668e-14
-8.89461e-12
-2.31895e-13
-8.62933e-12
-3.85932e-13
-8.22879e-12
-5.38581e-13
-7.70092e-12
-6.82693e-13
-7.0659e-12
-8.05102e-13
-6.34948e-12
-9.00483e-13
-5.58515e-12
-9.60314e-13
-4.80761e-12
-9.83597e-13
-4.05278e-12
-9.68513e-13
-3.3528e-12
-9.19048e-13
-2.73603e-12
-8.38552e-13
-2.22316e-12
-7.34959e-13
-1.82661e-12
-6.16242e-13
-1.54844e-12
-4.93054e-13
-1.38121e-12
-3.74766e-13
-1.30843e-12
-2.70749e-13
-1.30699e-12
-1.87617e-13
-1.34937e-12
-1.30113e-13
-1.40689e-12
-9.94815e-14
-1.45215e-12
-9.48326e-14
-1.46158e-12
-1.12486e-13
-1.41661e-12
-1.47787e-13
-1.30518e-12
-1.94466e-13
-1.12156e-12
-2.46527e-13
-8.67037e-13
-2.97231e-13
-5.4846e-13
-3.41312e-13
-1.78153e-13
-3.73562e-13
2.2877e-13
-3.91491e-13
6.5504e-13
-3.93173e-13
1.08471e-12
-3.80207e-13
1.50349e-12
-3.54419e-13
1.9018e-12
-3.20791e-13
2.27369e-12
-2.8305e-13
2.61876e-12
-2.46946e-13
2.93964e-12
-2.15615e-13
3.24336e-12
-1.93563e-13
3.53788e-12
-1.81757e-13
3.83252e-12
-1.81631e-13
4.13373e-12
-1.90286e-13
4.44545e-12
-2.05247e-13
4.76622e-12
-2.21e-13
5.09067e-12
-2.33601e-13
5.40779e-12
-2.37297e-13
5.70233e-12
-2.27709e-13
5.95446e-12
-2.00069e-13
6.14301e-12
-1.52873e-13
6.24875e-12
-8.77853e-14
6.25742e-12
-9.55181e-15
6.16054e-12
7.63793e-14
5.95346e-12
1.66501e-13
5.63526e-12
2.57471e-13
5.20814e-12
3.46553e-13
4.68062e-12
4.27824e-13
4.06771e-12
4.95227e-13
3.39316e-12
5.4035e-13
2.68463e-12
5.59569e-13
1.9724e-12
5.50432e-13
1.29431e-12
5.05315e-13
7.12357e-13
4.00095e-13
2.85747e-13
2.37636e-13
4.74518e-14
4.50128e-14
-1.37721e-13
1.23335e-13
-2.32713e-13
-1.4656e-13
4.69207e-13
-1.18008e-12
1.61045e-12
-2.85218e-12
2.6468e-12
-4.84501e-12
3.00293e-12
-7.00116e-12
3.21048e-12
-9.24405e-12
3.30025e-12
-1.15077e-11
3.27023e-12
-1.37312e-11
3.16781e-12
-1.58703e-11
3.01763e-12
-1.78662e-11
2.79368e-12
-1.96689e-11
2.48359e-12
-2.12273e-11
2.094e-12
-2.25182e-11
1.66091e-12
-2.35181e-11
1.20293e-12
-2.42208e-11
7.3803e-13
-2.46106e-11
2.5892e-13
-2.46777e-11
-2.38249e-13
-2.44054e-11
-7.58075e-13
-2.37913e-11
-1.28828e-12
-2.28388e-11
-1.81194e-12
-2.15755e-11
-2.29698e-12
-2.00422e-11
-2.71641e-12
-1.82996e-11
-3.04444e-12
-1.64157e-11
-3.26494e-12
-1.44684e-11
-3.36634e-12
-1.25341e-11
-3.34835e-12
-1.06865e-11
-3.21726e-12
-8.98748e-12
-2.98832e-12
-7.48549e-12
-2.68257e-12
-6.21017e-12
-2.32724e-12
-5.17199e-12
-1.95207e-12
-4.36127e-12
-1.58701e-12
-3.75111e-12
-1.25881e-12
-3.30055e-12
-9.88669e-13
-2.96001e-12
-7.90292e-13
-2.67622e-12
-6.69174e-13
-2.39777e-12
-6.23021e-13
-2.079e-12
-6.43016e-13
-1.68399e-12
-7.15286e-13
-1.18791e-12
-8.23083e-13
-5.79154e-13
-9.47741e-13
1.4207e-13
-1.07133e-12
9.63195e-13
-1.17674e-12
1.86346e-12
-1.25114e-12
2.81459e-12
-1.28502e-12
3.78729e-12
-1.27593e-12
4.75194e-12
-1.22558e-12
5.68555e-12
-1.1428e-12
6.57023e-12
-1.03803e-12
7.39861e-12
-9.25817e-13
8.1694e-12
-8.18231e-13
8.89135e-12
-7.28624e-13
9.57653e-12
-6.64956e-13
1.02426e-11
-6.33858e-13
1.09041e-11
-6.336e-13
1.15735e-11
-6.59404e-13
1.22539e-11
-6.98949e-13
1.29414e-11
-7.39782e-13
1.36201e-11
-7.65806e-13
1.42658e-11
-7.62563e-13
1.48431e-11
-7.14121e-13
1.53108e-11
-6.0956e-13
1.56253e-11
-4.44495e-13
1.57478e-11
-2.24919e-13
1.56482e-11
3.64514e-14
1.53056e-11
3.25632e-13
1.47091e-11
6.29666e-13
1.38568e-11
9.37234e-13
1.27596e-11
1.23342e-12
1.14401e-11
1.50148e-12
9.93778e-12
1.71895e-12
8.30484e-12
1.86538e-12
6.60653e-12
1.9244e-12
4.91211e-12
1.88966e-12
3.30558e-12
1.73943e-12
1.89378e-12
1.42806e-12
8.00504e-13
9.43364e-13
1.07715e-13
3.64017e-13
-2.04167e-13
-1.37362e-13
-5.49086e-15
-8.38686e-13
1.34036e-12
-2.43593e-12
3.36022e-12
-4.75584e-12
5.10607e-12
-7.55637e-12
5.9325e-12
-1.06554e-11
6.42592e-12
-1.39367e-11
6.68297e-12
-1.7281e-11
6.69811e-12
-2.05925e-11
6.5434e-12
-2.37817e-11
6.24863e-12
-2.67759e-11
5.80597e-12
-2.95017e-11
5.20105e-12
-3.19024e-11
4.45838e-12
-3.39279e-11
3.61978e-12
-3.55469e-11
2.72397e-12
-3.67259e-11
1.7861e-12
-3.74435e-11
8.12348e-13
-3.76754e-11
-2.04263e-13
-3.7412e-11
-1.2523e-12
-3.66503e-11
-2.31311e-12
-3.54078e-11
-3.34768e-12
-3.37168e-11
-4.30944e-12
-3.16342e-11
-5.14544e-12
-2.92333e-11
-5.81371e-12
-2.66037e-11
-6.28067e-12
-2.3842e-11
-6.52819e-12
-2.10475e-11
-6.55224e-12
-1.83136e-11
-6.3654e-12
-1.57221e-11
-5.99399e-12
-1.33375e-11
-5.47682e-12
-1.12028e-11
-4.86225e-12
-9.33814e-12
-4.20335e-12
-7.74023e-12
-3.55346e-12
-6.38573e-12
-2.95995e-12
-5.23443e-12
-2.46103e-12
-4.23549e-12
-2.08163e-12
-3.33248e-12
-1.8331e-12
-2.46986e-12
-1.71293e-12
-1.59756e-12
-1.70717e-12
-6.75098e-13
-1.79303e-12
3.25403e-13
-1.9416e-12
1.41857e-12
-2.12159e-12
2.60451e-12
-2.30101e-12
3.87178e-12
-2.45178e-12
5.19758e-12
-2.55016e-12
6.55405e-12
-2.58213e-12
7.90924e-12
-2.54153e-12
9.23507e-12
-2.43437e-12
1.05065e-11
-2.27295e-12
1.1709e-11
-2.07831e-12
1.28339e-11
-1.87154e-12
1.38849e-11
-1.67697e-12
1.48706e-11
-1.51314e-12
1.58087e-11
-1.39712e-12
1.67156e-11
-1.33461e-12
1.76092e-11
-1.32518e-12
1.84982e-11
-1.35472e-12
1.93851e-11
-1.40491e-12
2.02588e-11
-1.44924e-12
2.10986e-11
-1.46207e-12
2.18691e-11
-1.41379e-12
2.25259e-11
-1.27931e-12
2.30162e-11
-1.03897e-12
2.32881e-11
-6.88533e-13
2.32939e-11
-2.37992e-13
2.29952e-11
2.91348e-13
2.23654e-11
8.74258e-13
2.13904e-11
1.48612e-12
2.00719e-11
2.10029e-12
1.84258e-11
2.68869e-12
1.64886e-11
3.21463e-12
1.43136e-11
3.63939e-12
1.19741e-11
3.92314e-12
9.55339e-12
4.03948e-12
7.1527e-12
3.9644e-12
4.88387e-12
3.66562e-12
2.88439e-12
3.07333e-12
1.30916e-12
2.1576e-12
2.52259e-13
1.06464e-12
-1.17296e-13
-3.38869e-13
4.18026e-13
-1.3756e-12
2.53875e-12
-3.37948e-12
5.50951e-12
-6.16213e-12
8.02135e-12
-9.52489e-12
9.41758e-12
-1.32908e-11
1.03018e-11
-1.7306e-11
1.07933e-11
-2.14349e-11
1.09049e-11
-2.55447e-11
1.07119e-11
-2.95353e-11
1.02765e-11
-3.33096e-11
9.59416e-12
-3.6791e-11
8.67117e-12
-3.98999e-11
7.5286e-12
-4.25759e-11
6.22825e-12
-4.47631e-11
4.81304e-12
-4.64222e-11
3.3157e-12
-4.75128e-11
1.74119e-12
-4.80112e-11
1.00229e-13
-4.78999e-11
-1.58943e-12
-4.71835e-11
-3.28598e-12
-4.588e-11
-4.93679e-12
-4.40304e-11
-6.47142e-12
-4.16931e-11
-7.81931e-12
-3.89488e-11
-8.91539e-12
-3.58919e-11
-9.71214e-12
-3.2627e-11
-1.01807e-11
-2.92605e-11
-1.03154e-11
-2.5894e-11
-1.0133e-11
-2.26181e-11
-9.67101e-12
-1.95054e-11
-8.98587e-12
-1.66088e-11
-8.14621e-12
-1.39574e-11
-7.22876e-12
-1.15588e-11
-6.30859e-12
-9.39952e-12
-5.45449e-12
-7.45046e-12
-4.72065e-12
-5.67005e-12
-4.14478e-12
-4.01133e-12
-3.74419e-12
-2.42605e-12
-3.51798e-12
-8.70401e-13
-3.44837e-12
6.91504e-13
-3.50507e-12
2.28508e-12
-3.64929e-12
3.92299e-12
-3.83747e-12
5.60636e-12
-4.02661e-12
7.32381e-12
-4.17663e-12
9.05661e-12
-4.25693e-12
1.07787e-11
-4.24662e-12
1.24647e-11
-4.14066e-12
1.4089e-11
-3.94518e-12
1.5634e-11
-3.6809e-12
1.70862e-11
-3.37327e-12
1.84438e-11
-3.05527e-12
1.97094e-11
-2.75604e-12
2.08967e-11
-2.50517e-12
2.20197e-11
-2.32038e-12
2.30976e-11
-2.21234e-12
2.41417e-11
-2.17313e-12
2.51607e-11
-2.18576e-12
2.61498e-11
-2.21827e-12
2.70964e-11
-2.23647e-12
2.7972e-11
-2.19842e-12
2.87387e-11
-2.06487e-12
2.93454e-11
-1.79744e-12
2.9738e-11
-1.37276e-12
2.98605e-11
-7.84579e-13
2.96632e-11
-4.8407e-14
2.9105e-11
8.06126e-13
2.81577e-11
1.7417e-12
2.68099e-11
2.71757e-12
2.50646e-11
3.69337e-12
2.29449e-11
4.62174e-12
2.04922e-11
5.44839e-12
1.77747e-11
6.10834e-12
1.48742e-11
6.54867e-12
1.18895e-11
6.72625e-12
8.92906e-12
6.60705e-12
6.13355e-12
6.12715e-12
3.67649e-12
5.18526e-12
1.72357e-12
3.75928e-12
3.8061e-13
2.05957e-12
9.95293e-14
-4.07636e-13
9.07233e-13
-1.72879e-12
4.0158e-12
-4.02152e-12
7.94222e-12
-7.11636e-12
1.12437e-11
-1.08571e-11
1.32755e-11
-1.50637e-11
1.46133e-11
-1.95794e-11
1.53991e-11
-2.42474e-11
1.5646e-11
-2.89314e-11
1.54498e-11
-3.35053e-11
1.48834e-11
-3.78753e-11
1.39741e-11
-4.19447e-11
1.27254e-11
-4.56362e-11
1.11783e-11
-4.88641e-11
9.38572e-12
-5.15659e-11
7.41464e-12
-5.36812e-11
5.29979e-12
-5.51688e-11
3.06632e-12
-5.59934e-11
7.30601e-13
-5.61403e-11
-1.66765e-12
-5.5608e-11
-4.07362e-12
-5.44188e-11
-6.40949e-12
-5.26116e-11
-8.58843e-12
-5.02465e-11
-1.05176e-11
-4.74006e-11
-1.21148e-11
-4.41666e-11
-1.33162e-11
-4.06467e-11
-1.40836e-11
-3.69451e-11
-1.44083e-11
-3.31638e-11
-1.43099e-11
-2.93933e-11
-1.38369e-11
-2.57106e-11
-1.30592e-11
-2.21729e-11
-1.20654e-11
-1.88193e-11
-1.09507e-11
-1.56671e-11
-9.81165e-12
-1.27177e-11
-8.73389e-12
-9.95541e-12
-7.78839e-12
-7.35539e-12
-7.02289e-12
-4.88511e-12
-6.46252e-12
-2.51116e-12
-6.10787e-12
-2.01787e-13
-5.93991e-12
2.06894e-12
-5.9231e-12
4.3188e-12
-6.01092e-12
6.55656e-12
-6.15138e-12
8.78032e-12
-6.29128e-12
1.09807e-11
-6.3836e-12
1.314e-11
-6.38985e-12
1.52391e-11
-6.28819e-12
1.72559e-11
-6.07111e-12
1.91742e-11
-5.75077e-12
2.09789e-11
-5.34971e-12
2.26652e-11
-4.90373e-12
2.4231e-11
-4.44885e-12
2.56852e-11
-4.02552e-12
2.70377e-11
-3.66425e-12
2.83056e-11
-3.3905e-12
2.95008e-11
-3.20933e-12
3.06354e-11
-3.11354e-12
3.17097e-11
-3.07393e-12
3.27194e-11
-3.05411e-12
3.36449e-11
-3.00431e-12
3.4459e-11
-2.87481e-12
3.5119e-11
-2.61072e-12
3.55767e-11
-2.16793e-12
3.57771e-11
-1.51555e-12
3.56673e-11
-6.49338e-13
3.5198e-11
4.12236e-13
3.43298e-11
1.6301e-12
3.30378e-11
2.95324e-12
3.13118e-11
4.32679e-12
2.91603e-11
5.69241e-12
2.66077e-11
6.98763e-12
2.37058e-11
8.13164e-12
2.05268e-11
9.03932e-12
1.71679e-11
9.63348e-12
1.37277e-11
9.8695e-12
1.03181e-11
9.70015e-12
7.09487e-12
9.01764e-12
4.27101e-12
7.66554e-12
2.00986e-12
5.67078e-12
4.81541e-13
3.24171e-12
4.18638e-13
-4.14227e-13
1.40025e-12
-1.94448e-12
5.6962e-12
-4.41345e-12
1.05461e-11
-7.70187e-12
1.46547e-11
-1.16694e-11
1.73556e-11
-1.61522e-11
1.91967e-11
-2.09862e-11
2.03191e-11
-2.60199e-11
2.07491e-11
-3.10961e-11
2.05766e-11
-3.60914e-11
1.99086e-11
-4.08947e-11
1.87847e-11
-4.5417e-11
1.72306e-11
-4.95648e-11
1.52827e-11
-5.32563e-11
1.30062e-11
-5.64067e-11
1.04646e-11
-5.89518e-11
7.71465e-12
-6.08347e-11
4.78811e-12
-6.20219e-11
1.72618e-12
-6.24908e-11
-1.42078e-12
-6.22408e-11
-4.57456e-12
-6.12879e-11
-7.64101e-12
-5.96697e-11
-1.05106e-11
-5.744e-11
-1.30739e-11
-5.46698e-11
-1.52312e-11
-5.14439e-11
-1.69044e-11
-4.78552e-11
-1.80468e-11
-4.40017e-11
-1.86446e-11
-3.99768e-11
-1.87213e-11
-3.58691e-11
-1.83308e-11
-3.17526e-11
-1.75571e-11
-2.76895e-11
-1.65009e-11
-2.37238e-11
-1.52757e-11
-1.98857e-11
-1.3992e-11
-1.61883e-11
-1.27528e-11
-1.26345e-11
-1.16399e-11
-9.21563e-12
-1.07124e-11
-5.919e-12
-1.00004e-11
-2.72785e-12
-9.50877e-12
3.73133e-13
-9.2176e-12
3.39663e-12
-9.08907e-12
6.3501e-12
-9.07208e-12
9.23415e-12
-9.10819e-12
1.20437e-11
-9.13911e-12
1.47667e-11
-9.11114e-12
1.73891e-11
-8.98447e-12
1.9893e-11
-8.73384e-12
2.22648e-11
-8.35625e-12
2.44904e-11
-7.86397e-12
2.65642e-11
-7.28833e-12
2.84816e-11
-6.66634e-12
3.02483e-11
-6.04457e-12
3.18697e-11
-5.46362e-12
3.33605e-11
-4.96324e-12
3.47306e-11
-4.56449e-12
3.59942e-11
-4.27641e-12
3.71546e-11
-4.08123e-12
3.82142e-11
-3.94886e-12
3.91615e-11
-3.82881e-12
3.99808e-11
-3.66699e-12
4.06407e-11
-3.39783e-12
4.11046e-11
-2.96096e-12
4.13244e-11
-2.30073e-12
4.12523e-11
-1.38582e-12
4.08383e-11
-2.09503e-13
4.00387e-11
1.20373e-12
3.88193e-11
2.80632e-12
3.71584e-11
4.53495e-12
3.50506e-11
6.31943e-12
3.25042e-11
8.08829e-12
2.95517e-11
9.75575e-12
2.62453e-11
1.12219e-11
2.2669e-11
1.23706e-11
1.89228e-11
1.31088e-11
1.51155e-11
1.33835e-11
1.13534e-11
1.31495e-11
7.80555e-12
1.22368e-11
4.69704e-12
1.04343e-11
2.21872e-12
7.80325e-12
5.61288e-13
4.55625e-12
8.2014e-13
-4.44013e-13
1.92036e-12
-2.04737e-12
7.44382e-12
-4.60216e-12
1.32304e-11
-7.98301e-12
1.81534e-11
-1.20729e-11
2.15536e-11
-1.66964e-11
2.39166e-11
-2.17171e-11
2.54221e-11
-2.69738e-11
2.60718e-11
-3.23148e-11
2.59654e-11
-3.75939e-11
2.52153e-11
-4.27084e-11
2.39049e-11
-4.75588e-11
2.20627e-11
-5.20608e-11
1.9741e-11
-5.61208e-11
1.69954e-11
-5.96571e-11
1.3902e-11
-6.25884e-11
1.05176e-11
-6.48568e-11
6.89872e-12
-6.64175e-11
3.09909e-12
-6.72487e-11
-8.0629e-13
-6.73426e-11
-4.72576e-12
-6.67117e-11
-8.54345e-12
-6.5385e-11
-1.21334e-11
-6.34087e-11
-1.53681e-11
-6.08441e-11
-1.81325e-11
-5.77634e-11
-2.03373e-11
-5.42488e-11
-2.19253e-11
-5.03839e-11
-2.2881e-11
-4.62547e-11
-2.32257e-11
-4.19392e-11
-2.3021e-11
-3.75107e-11
-2.23555e-11
-3.30291e-11
-2.13434e-11
-2.85459e-11
-2.01068e-11
-2.40981e-11
-1.87712e-11
-1.97144e-11
-1.74475e-11
-1.54119e-11
-1.623e-11
-1.12024e-11
-1.51832e-11
-7.09085e-12
-1.43446e-11
-3.08075e-12
-1.37208e-11
8.26367e-13
-1.32943e-11
4.62726e-12
-1.30263e-11
8.31624e-12
-1.28635e-11
1.18848e-11
-1.27451e-11
1.532e-11
-1.26091e-11
1.86083e-11
-1.24014e-11
2.1733e-11
-1.20796e-11
2.46812e-11
-1.16227e-11
2.74392e-11
-1.10273e-11
3.00013e-11
-1.03139e-11
3.23614e-11
-9.51401e-12
3.45229e-11
-8.6743e-12
3.64881e-11
-7.84051e-12
3.82687e-11
-7.06292e-12
3.98725e-11
-6.37744e-12
4.13137e-11
-5.81164e-12
4.2597e-11
-5.36547e-12
4.37298e-11
-5.0235e-12
4.47068e-11
-4.74314e-12
4.55225e-11
-4.47353e-12
4.61566e-11
-4.14591e-12
4.65863e-11
-3.69158e-12
4.67748e-11
-3.03657e-12
4.66851e-11
-2.12405e-12
4.62729e-11
-9.15697e-13
4.54979e-11
5.92066e-13
4.43226e-11
2.3723e-12
4.27197e-11
4.36776e-12
4.0674e-11
6.50374e-12
3.81814e-11
8.69965e-12
3.52565e-11
1.0866e-11
3.19308e-11
1.29008e-11
2.82648e-11
1.46761e-11
2.43386e-11
1.60566e-11
2.02636e-11
1.69182e-11
1.61481e-11
1.72112e-11
1.21177e-11
1.68732e-11
8.3229e-12
1.57089e-11
5.00292e-12
1.34208e-11
2.36623e-12
1.01e-11
6.18309e-13
5.96727e-12
1.28279e-12
-4.72545e-13
2.4663e-12
-2.06281e-12
9.17183e-12
-4.62615e-12
1.59178e-11
-8.03076e-12
2.16709e-11
-1.21555e-11
2.57819e-11
-1.68298e-11
2.86832e-11
-2.19159e-11
3.0587e-11
-2.72884e-11
3.15074e-11
-3.27806e-11
3.15029e-11
-3.82483e-11
3.0709e-11
-4.35661e-11
2.92272e-11
-4.86496e-11
2.71278e-11
-5.34061e-11
2.44543e-11
-5.77545e-11
2.12747e-11
-6.16025e-11
1.76535e-11
-6.48734e-11
1.36639e-11
-6.74977e-11
9.36976e-12
-6.94301e-11
4.84979e-12
-7.06391e-11
1.92807e-13
-7.11139e-11
-4.48764e-12
-7.08587e-11
-9.06102e-12
-6.9894e-11
-1.33836e-11
-6.82559e-11
-1.73127e-11
-6.5992e-11
-2.0721e-11
-6.3162e-11
-2.35065e-11
-5.98306e-11
-2.56069e-11
-5.60701e-11
-2.6999e-11
-5.19502e-11
-2.77065e-11
-4.75427e-11
-2.77885e-11
-4.29111e-11
-2.73423e-11
-3.81173e-11
-2.64838e-11
-3.32119e-11
-2.53461e-11
-2.82428e-11
-2.40579e-11
-2.32474e-11
-2.27409e-11
-1.82605e-11
-2.14921e-11
-1.33092e-11
-2.03843e-11
-8.41906e-12
-1.94567e-11
-3.61099e-12
-1.87211e-11
1.09418e-12
-1.81605e-11
5.67695e-12
-1.77378e-11
1.01174e-11
-1.73998e-11
1.43945e-11
-1.70853e-11
1.84883e-11
-1.67335e-11
2.23779e-11
-1.62898e-11
2.60465e-11
-1.57167e-11
2.94779e-11
-1.49938e-11
3.26635e-11
-1.4126e-11
3.55948e-11
-1.31341e-11
3.82729e-11
-1.20593e-11
4.06968e-11
-1.0947e-11
4.28752e-11
-9.85257e-12
4.48131e-11
-8.82268e-12
4.65233e-11
-7.9015e-12
4.80108e-11
-7.10883e-12
4.92858e-11
-6.44976e-12
5.0347e-11
-5.89776e-12
5.11968e-11
-5.41346e-12
5.18243e-11
-4.93307e-12
5.22195e-11
-4.38831e-12
5.23584e-11
-3.69661e-12
5.22175e-11
-2.78398e-12
5.17635e-11
-1.58383e-12
5.09658e-11
-5.99242e-14
4.97905e-11
1.79474e-12
4.82106e-11
3.94711e-12
4.62057e-11
6.33365e-12
4.37652e-11
8.87068e-12
4.08918e-11
1.14648e-11
3.76009e-11
1.40145e-11
3.39315e-11
1.63953e-11
2.99379e-11
1.84642e-11
2.57063e-11
2.0055e-11
2.13361e-11
2.10305e-11
1.69562e-11
2.13119e-11
1.26929e-11
2.08385e-11
8.70586e-12
1.93827e-11
5.21632e-12
1.65863e-11
2.46154e-12
1.25248e-11
6.41753e-13
7.45957e-12
1.77551e-12
-4.74738e-13
3.01131e-12
-2.0179e-12
1.08458e-11
-4.55251e-12
1.85702e-11
-7.92061e-12
2.51467e-11
-1.203e-11
2.99901e-11
-1.66827e-11
3.34242e-11
-2.17509e-11
3.57305e-11
-2.71268e-11
3.69437e-11
-3.26768e-11
3.70963e-11
-3.82365e-11
3.62935e-11
-4.36816e-11
3.46767e-11
-4.89082e-11
3.23367e-11
-5.38414e-11
2.93463e-11
-5.83948e-11
2.57618e-11
-6.24891e-11
2.16557e-11
-6.60403e-11
1.70961e-11
-6.89839e-11
1.21672e-11
-7.1265e-11
6.9575e-12
-7.285e-11
1.57781e-12
-7.37192e-11
-3.84411e-12
-7.38697e-11
-9.16018e-12
-7.33127e-11
-1.42126e-11
-7.20704e-11
-1.88466e-11
-7.01782e-11
-2.29219e-11
-6.7677e-11
-2.633e-11
-6.46187e-11
-2.8998e-11
-6.10556e-11
-3.09016e-11
-5.70474e-11
-3.20572e-11
-5.26495e-11
-3.2528e-11
-4.79219e-11
-3.24068e-11
-4.29177e-11
-3.18162e-11
-3.76931e-11
-3.08868e-11
-3.22968e-11
-2.97545e-11
-2.67797e-11
-2.85395e-11
-2.11861e-11
-2.73454e-11
-1.55615e-11
-2.62442e-11
-9.94632e-12
-2.52805e-11
-4.38148e-12
-2.44661e-11
1.09554e-12
-2.37879e-11
6.44767e-12
-2.32095e-11
1.16397e-11
-2.26801e-11
1.66385e-11
-2.21411e-11
2.14127e-11
-2.15335e-11
2.59359e-11
-2.08087e-11
3.01841e-11
-1.99315e-11
3.41415e-11
-1.88905e-11
3.77941e-11
-1.76924e-11
4.11376e-11
-1.63683e-11
4.41666e-11
-1.49586e-11
4.68858e-11
-1.35188e-11
4.92958e-11
-1.21008e-11
5.14069e-11
-1.07608e-11
5.32224e-11
-9.53645e-12
5.47532e-11
-8.45507e-12
5.60002e-11
-7.51194e-12
5.69707e-11
-6.68683e-12
5.76605e-11
-5.92913e-12
5.80701e-11
-5.17952e-12
5.81872e-11
-4.35679e-12
5.8002e-11
-3.38086e-12
5.7494e-11
-2.16681e-12
5.66463e-11
-6.51327e-13
5.54352e-11
1.20877e-12
5.38414e-11
3.41678e-12
5.18454e-11
5.94006e-12
4.94342e-11
8.70914e-12
4.66029e-11
1.16329e-11
4.33568e-11
1.46083e-11
3.97199e-11
1.7516e-11
3.57269e-11
2.02215e-11
3.14374e-11
2.25577e-11
2.69243e-11
2.43452e-11
2.22918e-11
2.54166e-11
1.76635e-11
2.56729e-11
1.31852e-11
2.50319e-11
9.0149e-12
2.32531e-11
5.38114e-12
1.99101e-11
2.51763e-12
1.5072e-11
6.46971e-13
9.01682e-12
2.28222e-12
-4.56082e-13
3.53434e-12
-1.96871e-12
1.24814e-11
-4.45522e-12
2.11681e-11
-7.7579e-12
2.85512e-11
-1.18037e-11
3.41298e-11
-1.64063e-11
3.81107e-11
-2.13929e-11
4.0789e-11
-2.6692e-11
4.23006e-11
-3.21919e-11
4.26383e-11
-3.77572e-11
4.18831e-11
-4.32421e-11
4.01666e-11
-4.85449e-11
3.76238e-11
-5.35764e-11
3.43398e-11
-5.82672e-11
3.03912e-11
-6.2536e-11
2.58383e-11
-6.63115e-11
2.07604e-11
-6.9524e-11
1.52428e-11
-7.21214e-11
9.39269e-12
-7.40625e-11
3.33163e-12
-7.53227e-11
-2.79508e-12
-7.58905e-11
-8.82628e-12
-7.57647e-11
-1.45928e-11
-7.49568e-11
-1.99276e-11
-7.34834e-11
-2.46839e-11
-7.13732e-11
-2.87418e-11
-6.86561e-11
-3.20262e-11
-6.53727e-11
-3.45024e-11
-6.15613e-11
-3.61884e-11
-5.72698e-11
-3.71383e-11
-5.25425e-11
-3.74482e-11
-4.74322e-11
-3.72325e-11
-4.19879e-11
-3.66252e-11
-3.62665e-11
-3.57553e-11
-3.0321e-11
-3.47465e-11
-2.42101e-11
-3.36971e-11
-1.79889e-11
-3.2683e-11
-1.17161e-11
-3.17459e-11
-5.44688e-12
-3.0901e-11
7.62656e-13
-3.0135e-11
6.85948e-12
-2.94149e-11
1.27929e-11
-2.86926e-11
1.85154e-11
-2.79132e-11
2.39856e-11
-2.70243e-11
2.91659e-11
-2.59812e-11
3.40282e-11
-2.47587e-11
3.85478e-11
-2.33493e-11
4.2711e-11
-2.17711e-11
4.65046e-11
-2.0056e-11
4.99264e-11
-1.82552e-11
5.2971e-11
-1.64217e-11
5.56436e-11
-1.46182e-11
5.79437e-11
-1.28955e-11
5.98807e-11
-1.13007e-11
6.14549e-11
-9.85296e-12
6.26758e-11
-8.55621e-12
6.35427e-11
-7.38049e-12
6.40636e-11
-6.28349e-12
6.42349e-11
-5.19464e-12
6.40592e-11
-4.03871e-12
6.35284e-11
-2.72458e-12
6.264e-11
-1.17316e-12
6.13838e-11
6.87182e-13
5.97537e-11
2.8955e-12
5.77388e-11
5.46051e-12
5.53319e-11
8.34625e-12
5.25262e-11
1.14832e-11
4.93203e-11
1.47755e-11
4.57261e-11
1.81076e-11
4.17655e-11
2.13505e-11
3.74784e-11
2.43528e-11
3.29142e-11
2.69382e-11
2.8147e-11
2.89038e-11
2.32662e-11
3.00662e-11
1.84022e-11
3.02862e-11
1.36993e-11
2.94672e-11
9.34329e-12
2.73276e-11
5.54809e-12
2.34139e-11
2.57624e-12
1.7747e-11
6.49873e-13
1.06485e-11
2.80329e-12
-4.47852e-13
4.04524e-12
-1.94724e-12
1.40959e-11
-4.40792e-12
2.3733e-11
-7.62948e-12
3.18686e-11
-1.15852e-11
3.8174e-11
-1.61115e-11
4.27164e-11
-2.10106e-11
4.57564e-11
-2.61771e-11
4.75224e-11
-3.15535e-11
4.80554e-11
-3.70242e-11
4.73781e-11
-4.24683e-11
4.56172e-11
-4.77651e-11
4.29077e-11
-5.28321e-11
3.93732e-11
-5.75894e-11
3.5093e-11
-6.19726e-11
3.01434e-11
-6.59106e-11
2.45968e-11
-6.93434e-11
1.85504e-11
-7.22151e-11
1.21156e-11
-7.4484e-11
5.42873e-12
-7.61188e-11
-1.35434e-12
-7.70983e-11
-8.06151e-12
-7.74126e-11
-1.45125e-11
-7.70558e-11
-2.0535e-11
-7.60339e-11
-2.59711e-11
-7.43533e-11
-3.06993e-11
-7.20324e-11
-3.46328e-11
-6.90878e-11
-3.77381e-11
-6.55483e-11
-4.00213e-11
-6.14403e-11
-4.15384e-11
-5.68034e-11
-4.23728e-11
-5.16761e-11
-4.26396e-11
-4.611e-11
-4.24602e-11
-4.01563e-11
-4.19637e-11
-3.38775e-11
-4.12633e-11
-2.73353e-11
-4.0458e-11
-2.05994e-11
-3.96161e-11
-1.37382e-11
-3.87809e-11
-6.82428e-12
-3.79639e-11
7.21951e-14
-3.71543e-11
6.88121e-12
-3.63198e-11
1.35367e-11
-3.54167e-11
1.99779e-11
-3.43959e-11
2.61493e-11
-3.32102e-11
3.20052e-11
-3.18255e-11
3.75052e-11
-3.02222e-11
4.26211e-11
-2.84051e-11
4.73275e-11
-2.63956e-11
5.16111e-11
-2.42378e-11
5.54573e-11
-2.19821e-11
5.88634e-11
-1.96935e-11
6.18223e-11
-1.74306e-11
6.43387e-11
-1.52558e-11
6.64097e-11
-1.32094e-11
6.80439e-11
-1.13214e-11
6.92407e-11
-9.58726e-12
7.00116e-11
-7.98859e-12
7.03583e-11
-6.47378e-12
7.02928e-11
-4.9823e-12
6.98169e-11
-3.42869e-12
6.89417e-11
-1.73094e-12
6.76701e-11
1.98287e-13
6.60121e-11
2.42375e-12
6.39698e-11
4.99264e-12
6.15487e-11
7.91075e-12
5.87491e-11
1.11474e-11
5.55727e-11
1.46326e-11
5.20235e-11
1.82683e-11
4.81122e-11
2.1933e-11
4.38649e-11
2.54832e-11
3.93119e-11
2.87634e-11
3.45049e-11
3.15772e-11
2.95008e-11
3.37163e-11
2.43918e-11
3.4963e-11
1.9286e-11
3.51617e-11
1.43511e-11
3.41562e-11
9.77336e-12
3.16463e-11
5.78953e-12
2.71298e-11
2.67325e-12
2.05896e-11
6.80192e-13
1.23702e-11
3.36762e-12
-4.55502e-13
4.55981e-12
-1.96338e-12
1.57103e-11
-4.42223e-12
2.62891e-11
-7.60543e-12
3.51411e-11
-1.14498e-11
4.21011e-11
-1.58879e-11
4.72291e-11
-2.06977e-11
5.06308e-11
-2.57431e-11
5.26206e-11
-3.09536e-11
5.33054e-11
-3.62702e-11
5.27192e-11
-4.15865e-11
5.09416e-11
-4.68068e-11
4.81183e-11
-5.18349e-11
4.43726e-11
-5.6602e-11
3.98115e-11
-6.10387e-11
3.45107e-11
-6.50884e-11
2.85558e-11
-6.86909e-11
2.20405e-11
-7.17957e-11
1.50867e-11
-7.43579e-11
7.83617e-12
-7.6341e-11
4.53971e-13
-7.77173e-11
-6.87898e-12
-7.84623e-11
-1.39784e-11
-7.85615e-11
-2.06621e-11
-7.79995e-11
-2.67723e-11
-7.67728e-11
-3.21758e-11
-7.48753e-11
-3.67877e-11
-7.2314e-11
-4.05617e-11
-6.90931e-11
-4.35062e-11
-6.52319e-11
-4.56624e-11
-6.07496e-11
-4.71134e-11
-5.56829e-11
-4.79574e-11
-5.00706e-11
-4.83131e-11
-4.39687e-11
-4.82934e-11
-3.74357e-11
-4.80086e-11
-3.05435e-11
-4.75447e-11
-2.33657e-11
-4.69685e-11
-1.59851e-11
-4.63148e-11
-8.48416e-12
-4.55952e-11
-9.49623e-13
-4.47954e-11
6.53448e-12
-4.3886e-11
1.38869e-11
-4.28265e-11
2.10321e-11
-4.15736e-11
2.7903e-11
-4.00894e-11
3.44395e-11
-3.83467e-11
4.05942e-11
-3.6339e-11
4.63248e-11
-3.40766e-11
5.16024e-11
-3.15945e-11
5.63992e-11
-2.89382e-11
6.07007e-11
-2.61716e-11
6.449e-11
-2.33576e-11
6.77638e-11
-2.05681e-11
7.05128e-11
-1.78604e-11
7.27413e-11
-1.52878e-11
7.44456e-11
-1.28728e-11
7.56364e-11
-1.06252e-11
7.63165e-11
-8.51888e-12
7.65034e-11
-6.51656e-12
7.62054e-11
-4.54903e-12
7.54441e-11
-2.54344e-12
7.42327e-11
-4.1008e-13
7.25965e-11
1.92729e-12
7.05521e-11
4.54161e-12
6.81216e-11
7.47511e-12
6.53187e-11
1.07423e-11
6.21569e-11
1.4313e-11
5.86443e-11
1.81229e-11
5.47893e-11
2.20745e-11
5.06051e-11
2.60415e-11
4.61081e-11
2.98783e-11
4.1332e-11
3.34126e-11
3.63088e-11
3.645e-11
3.10986e-11
3.87548e-11
2.57667e-11
4.01044e-11
2.04258e-11
4.02957e-11
1.52282e-11
3.91325e-11
1.03912e-11
3.62502e-11
6.15812e-12
3.11214e-11
2.85161e-12
2.36498e-11
7.365e-13
1.42407e-11
4.00257e-12
-4.83366e-13
5.09778e-12
-1.99463e-12
1.73199e-11
-4.48363e-12
2.88675e-11
-7.69311e-12
3.84333e-11
-1.14815e-11
4.59661e-11
-1.58065e-11
5.16234e-11
-2.05257e-11
5.54103e-11
-2.54602e-11
5.76049e-11
-3.05267e-11
5.84095e-11
-3.56622e-11
5.7879e-11
-4.08107e-11
5.60995e-11
-4.5887e-11
5.3188e-11
-5.08207e-11
4.92826e-11
-5.55372e-11
4.44862e-11
-5.99808e-11
3.88939e-11
-6.40929e-11
3.25881e-11
-6.78233e-11
2.56718e-11
-7.11212e-11
1.82661e-11
-7.39418e-11
1.05196e-11
-7.62453e-11
2.60214e-12
-7.79932e-11
-5.30312e-12
-7.91544e-11
-1.30047e-11
-7.96951e-11
-2.03225e-11
-7.95916e-11
-2.70884e-11
-7.88169e-11
-3.31723e-11
-7.7357e-11
-3.84761e-11
-7.51937e-11
-4.29575e-11
-7.23236e-11
-4.66103e-11
-6.87415e-11
-4.94769e-11
-6.44621e-11
-5.16211e-11
-5.95032e-11
-5.31376e-11
-5.39048e-11
-5.41234e-11
-4.77125e-11
-5.46856e-11
-4.09913e-11
-5.49155e-11
-3.38108e-11
-5.48946e-11
-2.62555e-11
-5.46754e-11
-1.84125e-11
-5.42898e-11
-1.03788e-11
-5.37405e-11
-2.25169e-12
-5.30126e-11
5.86928e-12
-5.20752e-11
1.38888e-11
-5.08921e-11
2.17181e-11
-4.94268e-11
2.92753e-11
-4.76489e-11
3.64903e-11
-4.55431e-11
4.33002e-11
-4.31104e-11
4.96561e-11
-4.03754e-11
5.55132e-11
-3.73772e-11
6.0841e-11
-3.41761e-11
6.56093e-11
-3.08366e-11
6.9803e-11
-2.74363e-11
7.34036e-11
-2.40444e-11
7.64073e-11
-2.07327e-11
7.88039e-11
-1.75485e-11
8.05995e-11
-1.45301e-11
8.17935e-11
-1.16813e-11
8.24039e-11
-8.9941e-12
8.24419e-11
-6.42476e-12
8.19353e-11
-3.92047e-12
8.09048e-11
-1.40123e-12
7.93861e-11
1.2076e-12
7.74083e-11
3.98911e-12
7.50104e-11
7.00649e-12
7.22222e-11
1.03112e-11
6.90757e-11
1.39161e-11
6.55917e-11
1.78022e-11
6.1786e-11
2.19106e-11
5.76715e-11
2.61474e-11
5.32586e-11
3.03889e-11
4.85632e-11
3.44849e-11
4.36032e-11
3.82614e-11
3.84101e-11
4.15113e-11
3.30176e-11
4.39964e-11
2.74867e-11
4.54678e-11
2.19027e-11
4.56975e-11
1.64272e-11
4.44131e-11
1.12692e-11
4.12025e-11
6.7212e-12
3.54564e-11
3.12837e-12
2.70249e-11
8.14313e-13
1.63388e-11
4.72929e-12
-5.11358e-13
5.65949e-12
-2.05692e-12
1.89554e-11
-4.59605e-12
3.1489e-11
-7.90768e-12
4.18207e-11
-1.17442e-11
4.9873e-11
-1.60005e-11
5.59432e-11
-2.05979e-11
6.00631e-11
-2.54187e-11
6.24715e-11
-3.03415e-11
6.33676e-11
-3.53104e-11
6.28711e-11
-4.02693e-11
6.10684e-11
-4.51748e-11
5.80892e-11
-4.99647e-11
5.40529e-11
-5.45904e-11
4.90761e-11
-5.89955e-11
4.32464e-11
-6.31339e-11
3.66568e-11
-6.69554e-11
2.94064e-11
-7.04143e-11
2.1621e-11
-7.34648e-11
1.34493e-11
-7.60605e-11
5.06129e-12
-7.8159e-11
-3.35613e-12
-7.97128e-11
-1.16159e-11
-8.06814e-11
-1.95308e-11
-8.10185e-11
-2.69383e-11
-8.06909e-11
-3.36949e-11
-7.96605e-11
-3.97072e-11
-7.79032e-11
-4.4919e-11
-7.53893e-11
-4.93291e-11
-7.21079e-11
-5.29618e-11
-6.805e-11
-5.58784e-11
-6.32318e-11
-5.81488e-11
-5.76774e-11
-5.9862e-11
-5.14366e-11
-6.11e-11
-4.45666e-11
-6.19461e-11
-3.71453e-11
-6.2462e-11
-2.9256e-11
-6.26948e-11
-2.09971e-11
-6.26614e-11
-1.24716e-11
-6.23605e-11
-3.79101e-12
-6.17686e-11
4.93299e-12
-6.08552e-11
1.35912e-11
-5.95868e-11
2.20808e-11
-5.79334e-11
3.03081e-11
-5.58744e-11
3.81875e-11
-5.34023e-11
4.56473e-11
-5.05326e-11
5.26218e-11
-4.72964e-11
5.9061e-11
-4.37479e-11
6.49178e-11
-3.99512e-11
7.01617e-11
-3.59872e-11
7.47618e-11
-3.19334e-11
7.87032e-11
-2.78749e-11
8.19664e-11
-2.38793e-11
8.45488e-11
-2.00105e-11
8.64428e-11
-1.63021e-11
8.76616e-11
-1.27785e-11
8.82143e-11
-9.42797e-12
8.81307e-11
-6.22718e-12
8.74347e-11
-3.11749e-12
8.61688e-11
-3.72773e-14
8.43693e-11
3.09395e-12
8.20884e-11
6.3439e-12
7.93706e-11
9.78336e-12
7.62679e-11
1.34565e-11
7.28206e-11
1.73879e-11
6.90633e-11
2.15649e-11
6.50158e-11
2.59435e-11
6.06913e-11
3.04366e-11
5.61034e-11
3.49209e-11
5.12591e-11
3.9253e-11
4.61734e-11
4.32515e-11
4.08553e-11
4.67155e-11
3.5331e-11
4.93905e-11
2.96262e-11
5.10275e-11
2.38207e-11
5.13454e-11
1.80433e-11
5.00214e-11
1.25197e-11
4.65479e-11
7.54847e-12
4.02426e-11
3.54972e-12
3.08352e-11
9.02402e-13
1.87989e-11
5.55776e-12
-5.3996e-13
6.24529e-12
-2.20428e-12
2.07025e-11
-4.90406e-12
3.42641e-11
-8.35376e-12
4.53402e-11
-1.23394e-11
5.3923e-11
-1.66044e-11
6.02662e-11
-2.10988e-11
6.46078e-11
-2.5759e-11
6.71735e-11
-3.05137e-11
6.81546e-11
-3.52888e-11
6.7668e-11
-4.00505e-11
6.58402e-11
-4.47558e-11
6.27918e-11
-4.93776e-11
5.86586e-11
-5.3875e-11
5.35429e-11
-5.82132e-11
4.75393e-11
-6.2347e-11
4.07301e-11
-6.62353e-11
3.32191e-11
-6.98328e-11
2.51277e-11
-7.30915e-11
1.66026e-11
-7.59631e-11
7.8134e-12
-7.83924e-11
-1.0592e-12
-8.03275e-11
-9.82516e-12
-8.17061e-11
-1.83068e-11
-8.24761e-11
-2.63317e-11
-8.258e-11
-3.37613e-11
-8.1977e-11
-4.04855e-11
-8.06173e-11
-4.64567e-11
-7.84657e-11
-5.16595e-11
-7.54842e-11
-5.61204e-11
-7.166e-11
-5.98761e-11
-6.69884e-11
-6.2988e-11
-6.14957e-11
-6.55146e-11
-5.52197e-11
-6.75262e-11
-4.82249e-11
-6.90799e-11
-4.05838e-11
-7.02292e-11
-3.23887e-11
-7.10019e-11
-2.37387e-11
-7.14081e-11
-1.4749e-11
-7.1431e-11
-5.5396e-12
-7.10421e-11
3.76301e-12
-7.02051e-11
1.30371e-11
-6.88912e-11
2.21678e-11
-6.70776e-11
3.10465e-11
-6.47503e-11
3.9577e-11
-6.19143e-11
4.76711e-11
-5.85934e-11
5.52565e-11
-5.48345e-11
6.22656e-11
-5.06972e-11
6.86492e-11
-4.62636e-11
7.43606e-11
-4.16178e-11
7.93713e-11
-3.6855e-11
8.36497e-11
-3.2058e-11
8.71824e-11
-2.73117e-11
8.99514e-11
-2.26763e-11
9.19605e-11
-1.82069e-11
9.32117e-11
-1.39261e-11