/*--------------------------------*- C++ -*----------------------------------*\
| =========                 |                                                 |
| \\      /  F ield         | OpenFOAM: The Open Source CFD Toolbox           |
|  \\    /   O peration     | Version:  2412                                  |
|   \\  /    A nd           | Website:  www.openfoam.com                      |
|    \\/     M anipulation  |                                                 |
\*---------------------------------------------------------------------------*/
FoamFile
{
    version     2.0;
    format      ascii;
    arch        "LSB;label=32;scalar=64";
    class       volScalarField;
    location    "7.33";
    object      p;
}
// * * * * * * * * * * * * * * * * * * * * * * * * * * * * * * * * * * * * * //

dimensions      [1 -1 -2 0 0 0 0];

internalField   nonuniform List<scalar> 
80000
(
33243.8
33243.6
33242.8
33241.7
33240.1
33238.2
33235.9
33233.2
33230.2
33226.7
33222.9
33218.7
33214.1
33209.2
33203.8
33198.1
33192
33185.5
33178.6
33171.3
33163.6
33155.6
33147.1
33138.3
33129.1
33119.5
33109.6
33099.2
33088.5
33077.3
33065.8
33053.9
33041.6
33029
33015.9
33002.5
32988.7
32974.5
32959.9
32945
32929.6
32913.9
32897.8
32881.4
32864.5
32847.3
32829.7
32811.8
32793.4
32774.7
32755.6
32736.2
32716.4
32696.2
32675.7
32654.8
32633.5
32611.9
32589.9
32567.6
32544.9
32521.8
32498.4
32474.7
32450.6
32426.1
32401.3
32376.2
32350.7
32324.9
32298.8
32272.3
32245.5
32218.3
32190.8
32163
32134.9
32106.5
32077.7
32048.6
32019.2
31989.5
31959.5
31929.2
31898.6
31867.7
31836.5
31805
31773.2
31741.1
31708.7
31676.1
31643.2
31610
31576.5
31542.8
31508.8
31474.6
31440.1
31405.4
31370.4
31335.1
31299.7
31264
31228
31191.9
31155.5
31118.9
31082.1
31045.1
31007.9
30970.5
30932.9
30895.1
30857.2
30819
30780.7
30742.2
30703.6
30664.8
30625.9
30586.8
30547.6
30508.2
30468.7
30429.1
30389.4
30349.6
30309.7
30269.7
30229.6
30189.4
30149.1
30108.8
30068.4
30028
29987.5
29947
29906.4
29865.8
29825.2
29784.6
29744
29703.4
29662.8
29622.3
29581.7
29541.3
29500.8
29460.4
29420.1
29379.9
29339.7
29299.7
29259.7
29219.9
29180.2
29140.6
29101.1
29061.8
29022.7
28983.7
28944.9
28906.4
28868
28829.8
28791.9
28754.2
28716.7
28679.5
28642.6
28605.9
28569.6
28533.6
28497.8
28462.4
28427.4
28392.7
28358.4
28324.4
28290.9
28257.7
28225
28192.7
28160.9
28129.5
28098.6
28068.2
28038.3
28009
27980.1
27951.8
27924.1
27896.9
27870.4
27844.4
27819.1
27794.4
27770.3
27746.9
27724.3
27702.3
27681
27660.4
27640.6
27621.6
27603.3
27585.9
27569.2
27553.4
27538.4
27524.3
27511
27498.6
27487.2
27476.6
27467
27458.3
27450.6
27443.8
27438.1
27433.4
27429.6
27426.9
27425.3
27424.7
27425.1
27426.7
27429.3
27433
27437.8
27443.8
27450.8
27459
27468.3
27478.7
27490.3
27503
27516.8
27531.8
27547.9
27565.1
27583.5
27603
27623.6
27645.3
27668.1
27691.9
27716.9
27742.8
27769.8
27797.8
27826.8
27856.7
27887.5
27919.3
27951.9
27985.3
28019.6
28054.6
28090.3
28126.7
28163.7
28201.3
28239.4
28278.1
28317.2
28356.6
28396.4
28436.5
28476.8
28517.3
28557.9
28598.5
28639.1
28679.7
28720.2
28760.4
28800.5
28840.2
28879.6
28918.6
28957.1
28995.1
29032.6
29069.4
29105.5
29140.9
29175.6
29209.4
29242.4
29274.5
29305.7
29335.9
29365.1
29393.2
29420.3
29446.3
29471.2
29495
29517.6
29539
29559.1
29578.1
29595.9
29612.4
29627.7
29641.8
29654.6
29666.2
29676.5
29685.6
29693.5
29700.1
29705.5
29709.7
29712.7
29714.4
29715
29714.5
29712.7
29709.9
29705.9
29700.8
29694.6
29687.3
29679
29669.6
29659.2
29647.8
29635.4
29622.1
29607.8
29592.6
29576.4
29559.4
29541.5
29522.8
29503.2
29482.9
29461.8
29439.9
29417.2
29393.9
29369.9
29345.2
29319.9
29294
29267.5
29240.4
29212.8
29184.7
29156.2
29127.2
29097.9
29068.1
29038.1
29007.7
28977.1
28946.3
28915.2
28884.1
28852.8
28821.5
28790.2
28758.9
28727.7
28696.6
28665.7
28635.1
28604.7
28574.6
28544.9
28515.7
28486.9
28458.7
28431
28404
28377.7
28352.1
28327.3
28303.4
28280.4
28258.3
28237.2
28217.2
28198.2
28180.4
28163.7
28148.2
28134
28121.1
28109.4
28099.2
28090.2
28082.7
28076.6
28071.8
28068.6
28066.8
28066.4
28067.5
28070.1
28074.1
28079.6
28086.6
28094.9
28104.7
28115.8
28128.3
28142.2
28157.3
28173.8
28191.4
28210.3
28230.3
28251.4
28273.5
28296.7
28320.8
28345.8
28371.7
28398.3
28425.7
28453.7
28482.3
28511.5
28541.1
28571.1
28601.5
28632.2
28663
28694
28725.1
28756.2
28787.3
28818.2
28849
28879.5
28909.7
28939.6
28969
28997.9
29026.3
29054.1
29081.2
29107.6
29133.2
29158.1
29182.1
29205.2
29227.3
29248.5
29268.7
29287.8
29305.9
29322.8
29338.7
29353.4
29366.9
29379.3
29390.4
29400.4
29409.2
29416.7
29423.1
29428.3
29432.3
29435.1
29436.8
29437.3
29436.7
29435
29432.2
29428.4
29423.6
29417.9
29411.2
29403.6
29395.1
29385.9
29375.9
29365.2
29353.9
29342
29329.5
29316.6
29303.3
29289.5
29275.5
29261.2
29246.8
29232.2
29217.6
29202.8
29188.2
29173.7
29159.3
29145.2
29131.3
29117.8
29104.5
29091.7
29079.2
29067.3
29055.8
29044.8
29034.3
29024.4
29015.1
29006.3
28998.1
28990.6
28983.6
28977.2
28971.4
28966.2
28961.6
28957.5
28954
28951
28948.6
28946.6
28945.1
28944.1
28943.6
28943.4
28943.7
28944.3
28945.3
28946.7
28948.4
28950.4
28952.7
28955.2
28958
28961
28964.2
28967.6
28971.2
28975
28978.9
28982.9
28987
28991.3
28995.6
28999.9
29004.4
29008.8
29013.3
29017.8
29022.2
29026.7
29031.1
29035.5
29039.8
29044.1
29048.2
29052.3
29056.3
29060.2
29064
29067.7
29071.3
29074.7
29078
29081.2
29084.2
29087.1
29089.8
29092.4
29094.8
29097.1
29099.2
29101.2
29103
29104.6
29106.1
29107.4
29108.6
29109.6
29110.3
29111
29111.4
29111.7
29111.7
29111.6
29111.3
29110.8
29110.2
29109.3
29108.3
29107
29105.6
29104
29102.2
29100.2
29098
29095.6
29093
29090.3
29087.3
29084.2
29081
29077.5
29073.9
29070.1
29066.2
29062.1
29057.9
29053.6
29049.1
29044.5
29039.8
29035
29030.1
29025.2
29020.2
29015.1
29010
29004.9
28999.9
28994.8
28989.8
28984.9
28980
28975.3
28970.6
28966.2
28961.9
28957.8
28953.9
28950.3
28946.9
28943.8
28941.1
28938.7
28936.7
28935
28933.8
28933.1
28932.8
28932.9
28933.6
28934.9
28936.6
28939
28941.9
28945.5
28949.7
28954.5
28959.9
28966.1
28972.8
28980.3
28988.4
28997.3
29006.7
29016.9
29027.6
29039
29051.1
29063.7
29076.8
29090.5
29104.7
29119.3
29134.3
29149.6
29165.2
29181.1
29197.1
29213.2
29229.2
29245.2
29261
29276.6
29291.8
29306.5
29320.8
29334.4
29347.3
29359.5
29370.8
29381
29390.3
29398.4
29405.3
29410.9
29415.1
29417.9
29419.2
29418.9
29417.1
29413.6
29408.4
29401.5
29392.8
29382.4
29370.2
29356.3
29340.5
29323
29303.7
29282.7
29260
29235.6
29209.6
29182.1
29153
29122.4
29090.6
29057.5
29023.1
28987.7
28951.3
28914.1
28876.1
28837.4
28798.3
28758.8
28719
28679.1
28639.3
28599.6
28560.3
28521.4
28483.2
28445.7
28409
28373.5
28339
28305.9
28274.2
28244
28215.4
28188.6
28163.6
28140.6
28119.6
28100.6
28083.8
28069.2
28056.8
28046.7
28038.9
28033.4
28030.3
28029.4
28030.8
28034.6
28040.6
28048.8
28059.2
28071.8
28086.5
28103.2
28121.8
28142.4
28164.8
28189
28214.8
28242.3
28271.3
28301.7
28333.4
28366.4
28400.5
28435.7
28471.9
28509
28546.9
28585.5
28624.7
28664.4
28704.5
28745
28785.7
28826.6
28867.5
28908.4
28949.2
28989.8
29030.1
29070
29109.5
29148.4
29186.6
29224
29260.7
29296.5
29331.2
29364.9
29397.4
29428.6
29458.5
29487
29514
29539.3
29563
29584.9
29605
29623.2
29639.4
29653.6
29665.7
29675.7
29683.4
29688.9
29692
29692.8
29691.1
29687
29680.5
29671.4
29659.8
29645.7
29629
29609.8
29588
29563.7
29536.9
29507.7
29476
29442
29405.6
29367
29326.3
29283.5
29238.7
29192.1
29143.9
29094
29042.6
28990
28936.2
28881.3
28825.6
28769.2
28712.3
28655
28597.5
28540
28482.7
28425.7
28369.1
28313.2
28258.2
28204
28151
28099.2
28048.9
28000
27952.8
27907.3
27863.7
27822
27782.4
27744.9
27709.6
27676.5
27645.8
27617.4
27591.3
27567.7
27546.5
27527.7
27511.4
27497.6
27486.2
27477.3
27470.8
27466.8
27465.1
27465.9
27469
27474.6
27482.4
27492.6
27505
27519.7
27536.7
27555.8
27577.1
27600.6
27626.1
27653.7
27683.3
27714.9
27748.5
27783.9
27821.3
27860.4
27901.3
27943.9
27988.2
28034.1
28081.5
28130.5
28181
28232.9
28286.1
28340.7
28396.6
28453.6
28511.8
28571.1
28631.5
28692.9
28755.2
28818.5
28882.6
28947.5
29013.1
29079.5
29146.4
29214.1
29282.2
29350.9
29420
29489.5
29559.4
29629.6
29700.1
29770.9
29841.8
29912.8
29984
30055.2
30126.4
30197.6
30268.7
30339.7
30410.6
30481.3
30551.8
30622
30691.9
30761.4
30830.6
30899.4
30967.8
31035.6
31103
31169.8
31236
31301.7
31366.7
31431
31494.7
31557.6
31619.8
31681.1
31741.7
31801.4
31860.3
31918.3
31975.3
32031.4
32086.6
32140.7
32193.8
32245.9
32296.9
32346.9
32395.7
32443.4
32489.9
32535.3
32579.5
32622.5
32664.2
32704.7
32744
32781.9
32818.6
32853.9
32887.9
32920.5
32951.8
32981.7
33010.2
33037.3
33063
33087.3
33110.1
33131.4
33151.3
33169.7
33186.6
33202
33215.9
33228.3
33239.2
33248.5
33256.3
33262.5
33267.2
33270.4
33271.9
32508.6
32508.2
32507.5
32506.4
32504.9
32503.1
32500.8
32498.1
32495.1
32491.7
32487.9
32483.7
32479.1
32474.2
32468.8
32463.1
32457
32450.5
32443.6
32436.3
32428.6
32420.6
32412.1
32403.3
32394.1
32384.5
32374.6
32364.2
32353.4
32342.3
32330.8
32318.9
32306.6
32293.9
32280.9
32267.5
32253.6
32239.5
32224.9
32209.9
32194.6
32178.9
32162.8
32146.3
32129.5
32112.3
32094.7
32076.7
32058.4
32039.7
32020.6
32001.1
31981.3
31961.1
31940.6
31919.7
31898.4
31876.8
31854.8
31832.5
31809.8
31786.7
31763.3
31739.6
31715.5
31691
31666.2
31641.1
31615.6
31589.8
31563.6
31537.1
31510.3
31483.1
31455.7
31427.9
31399.7
31371.3
31342.5
31313.4
31284
31254.3
31224.3
31194
31163.3
31132.4
31101.2
31069.7
31037.9
31005.8
30973.4
30940.8
30907.9
30874.7
30841.2
30807.5
30773.5
30739.2
30704.7
30670
30635
30599.8
30564.3
30528.6
30492.6
30456.5
30420.1
30383.5
30346.7
30309.7
30272.4
30235
30197.4
30159.6
30121.6
30083.5
30045.2
30006.7
29968
29929.2
29890.3
29851.2
29811.9
29772.6
29733.1
29693.5
29653.7
29613.9
29574
29533.9
29493.8
29453.6
29413.4
29373
29332.6
29292.2
29251.7
29211.1
29170.6
29130
29089.3
29048.7
29008.1
28967.5
28926.9
28886.3
28845.8
28805.3
28764.8
28724.4
28684.1
28643.9
28603.7
28563.6
28523.6
28483.8
28444
28404.4
28365
28325.7
28286.5
28247.5
28208.7
28170.1
28131.7
28093.6
28055.6
28017.9
27980.4
27943.2
27906.2
27869.6
27833.2
27797.2
27761.4
27726
27690.9
27656.2
27621.9
27587.9
27554.4
27521.2
27488.5
27456.2
27424.3
27392.9
27362
27331.6
27301.7
27272.3
27243.4
27215.1
27187.3
27160.1
27133.6
27107.6
27082.2
27057.5
27033.4
27010
26987.3
26965.3
26944
26923.5
26903.6
26884.6
26866.3
26848.8
26832.1
26816.3
26801.3
26787.1
26773.8
26761.5
26750
26739.4
26729.7
26721.1
26713.3
26706.6
26700.8
26696
26692.3
26689.6
26687.9
26687.3
26687.7
26689.3
26691.9
26695.6
26700.4
26706.3
26713.4
26721.5
26730.8
26741.2
26752.8
26765.5
26779.3
26794.3
26810.4
26827.7
26846.1
26865.6
26886.2
26907.9
26930.7
26954.6
26979.5
27005.5
27032.5
27060.5
27089.5
27119.5
27150.4
27182.2
27214.8
27248.3
27282.6
27317.6
27353.4
27389.9
27426.9
27464.6
27502.8
27541.5
27580.7
27620.2
27660.1
27700.2
27740.6
27781.2
27821.8
27862.6
27903.3
27943.9
27984.5
28024.8
28065
28104.8
28144.3
28183.3
28221.9
28260
28297.5
28334.4
28370.6
28406.1
28440.8
28474.7
28507.8
28539.9
28571.1
28601.4
28630.6
28658.8
28686
28712
28737
28760.8
28783.4
28804.8
28825
28844
28861.8
28878.3
28893.7
28907.7
28920.5
28932.1
28942.5
28951.5
28959.4
28966
28971.4
28975.6
28978.5
28980.3
28980.9
28980.3
28978.5
28975.6
28971.6
28966.5
28960.3
28953
28944.6
28935.2
28924.8
28913.3
28900.9
28887.5
28873.2
28858
28841.8
28824.7
28806.8
28788.1
28768.5
28748.1
28726.9
28705
28682.3
28659
28634.9
28610.2
28584.8
28558.9
28532.3
28505.2
28477.6
28449.5
28420.9
28391.9
28362.5
28332.7
28302.6
28272.1
28241.5
28210.6
28179.5
28148.3
28117
28085.6
28054.3
28022.9
27991.7
27960.5
27929.6
27898.8
27868.4
27838.3
27808.5
27779.2
27750.4
27722.1
27694.4
27667.3
27640.9
27615.3
27590.5
27566.5
27543.4
27521.3
27500.1
27480
27461
27443.1
27426.4
27410.9
27396.7
27383.7
27372
27361.7
27352.8
27345.2
27339.1
27334.4
27331.1
27329.3
27328.9
27330
27332.6
27336.7
27342.2
27349.1
27357.5
27367.3
27378.4
27391
27404.9
27420.1
27436.5
27454.2
27473.1
27493.2
27514.3
27536.6
27559.8
27584
27609
27634.9
27661.6
27689.1
27717.1
27745.8
27775.1
27804.8
27834.9
27865.3
27896.1
27927
27958.1
27989.3
28020.4
28051.6
28082.6
28113.4
28144
28174.3
28204.2
28233.7
28262.7
28291.1
28319
28346.1
28372.6
28398.3
28423.2
28447.3
28470.4
28492.6
28513.8
28534.1
28553.2
28571.3
28588.3
28604.2
28618.9
28632.4
28644.8
28656
28666
28674.7
28682.3
28688.7
28693.8
28697.8
28700.6
28702.3
28702.8
28702.1
28700.4
28697.6
28693.8
28688.9
28683.1
28676.3
28668.7
28660.2
28650.9
28640.9
28630.1
28618.8
28606.8
28594.3
28581.3
28567.8
28554.1
28540
28525.6
28511.1
28496.5
28481.8
28466.9
28452.3
28437.7
28423.3
28409.2
28395.2
28381.6
28368.3
28355.5
28343
28331
28319.5
28308.5
28298
28288.1
28278.7
28270
28261.8
28254.2
28247.2
28240.8
28235.1
28229.9
28225.2
28221.2
28217.7
28214.7
28212.3
28210.4
28208.9
28207.9
28207.4
28207.3
28207.5
28208.2
28209.2
28210.6
28212.3
28214.3
28216.6
28219.2
28222
28225
28228.3
28231.7
28235.3
28239.1
28243
28247.1
28251.2
28255.4
28259.8
28264.2
28268.6
28273.1
28277.5
28282
28286.5
28291
28295.4
28299.8
28304.1
28308.4
28312.6
28316.7
28320.7
28324.6
28328.4
28332.1
28335.6
28339.1
28342.4
28345.5
28348.6
28351.4
28354.2
28356.8
28359.2
28361.5
28363.6
28365.6
28367.4
28369
28370.5
28371.8
28373
28373.9
28374.7
28375.4
28375.8
28376.1
28376.2
28376.1
28375.8
28375.3
28374.6
28373.7
28372.7
28371.4
28370
28368.4
28366.6
28364.6
28362.4
28360
28357.4
28354.7
28351.8
28348.6
28345.4
28341.9
28338.3
28334.5
28330.6
28326.5
28322.3
28317.9
28313.4
28308.8
28304.1
28299.3
28294.4
28289.5
28284.4
28279.4
28274.3
28269.2
28264.1
28259
28254
28249.1
28244.2
28239.4
28234.8
28230.3
28226
28221.8
28217.9
28214.3
28210.9
28207.8
28205.1
28202.6
28200.6
28198.9
28197.7
28196.9
28196.6
28196.8
28197.4
28198.6
28200.4
28202.7
28205.7
28209.2
28213.4
28218.2
28223.6
28229.8
28236.5
28244
28252.1
28261
28270.4
28280.6
28291.4
28302.8
28314.8
28327.5
28340.6
28354.4
28368.6
28383.2
28398.2
28413.6
28429.3
28445.2
28461.3
28477.4
28493.6
28509.6
28525.4
28541.1
28556.3
28571.2
28585.5
28599.2
28612.2
28624.4
28635.8
28646.1
28655.4
28663.6
28670.5
28676.2
28680.5
28683.3
28684.7
28684.5
28682.6
28679.2
28674
28667.1
28658.5
28648.1
28635.9
28621.9
28606.1
28588.6
28569.3
28548.2
28525.5
28501
28475
28447.4
28418.2
28387.6
28355.7
28322.5
28288.1
28252.6
28216.1
28178.8
28140.7
28101.9
28062.7
28023.1
27983.2
27943.2
27903.3
27863.5
27824.1
27785.1
27746.7
27709.1
27672.4
27636.7
27602.2
27569
27537.2
27506.9
27478.3
27451.4
27426.4
27403.3
27382.2
27363.2
27346.4
27331.8
27319.4
27309.3
27301.5
27296
27292.8
27291.9
27293.4
27297.2
27303.2
27311.5
27321.9
27334.5
27349.2
27366
27384.7
27405.3
27427.8
27452
27477.9
27505.4
27534.4
27564.9
27596.7
27629.7
27663.9
27699.2
27735.5
27772.6
27810.6
27849.2
27888.5
27928.3
27968.5
28009
28049.8
28090.7
28131.7
28172.7
28213.5
28254.2
28294.6
28334.5
28374
28413
28451.3
28488.8
28525.5
28561.4
28596.2
28629.9
28662.5
28693.8
28723.7
28752.3
28779.3
28804.7
28828.4
28850.4
28870.5
28888.8
28905.1
28919.3
28931.4
28941.4
28949.2
28954.7
28957.9
28958.7
28957
28953
28946.4
28937.4
28925.8
28911.6
28894.9
28875.7
28853.9
28829.6
28802.7
28773.5
28741.7
28707.7
28671.2
28632.5
28591.7
28548.8
28504
28457.4
28409
28359
28307.5
28254.8
28200.8
28145.9
28090.1
28033.6
27976.5
27919.1
27861.6
27804
27746.5
27689.4
27632.7
27576.8
27521.6
27467.4
27414.3
27362.4
27312
27263
27215.8
27170.2
27126.6
27084.9
27045.2
27007.7
26972.3
26939.2
26908.5
26880
26854
26830.4
26809.2
26790.4
26774.1
26760.3
26748.9
26740
26733.5
26729.5
26727.9
26728.7
26731.8
26737.4
26745.2
26755.4
26767.9
26782.6
26799.6
26818.7
26840.1
26863.5
26889.1
26916.7
26946.4
26978
27011.6
27047
27084.4
27123.5
27164.5
27207.1
27251.4
27297.3
27344.8
27393.9
27444.4
27496.3
27549.6
27604.2
27660
27717.1
27775.4
27834.7
27895.1
27956.5
28018.9
28082.2
28146.3
28211.2
28276.9
28343.3
28410.3
28477.9
28546.1
28614.8
28683.9
28753.5
28823.4
28893.7
28964.2
29035
29105.9
29177
29248.1
29319.4
29390.6
29461.8
29533
29604
29674.9
29745.6
29816.1
29886.3
29956.3
30025.9
30095.1
30163.9
30232.2
30300.1
30367.5
30434.4
30500.6
30566.3
30631.3
30695.7
30759.3
30822.3
30884.4
30945.8
31006.4
31066.2
31125.1
31183
31240.1
31296.2
31351.4
31405.5
31458.7
31510.8
31561.8
31611.7
31660.6
31708.3
31754.8
31800.2
31844.4
31887.4
31929.2
31969.7
32008.9
32046.9
32083.5
32118.9
32152.9
32185.5
32216.8
32246.7
32275.3
32302.4
32328.1
32352.3
32375.1
32396.5
32416.4
32434.8
32451.7
32467.1
32481
32493.4
32504.2
32513.6
32521.3
32527.6
32532.3
32535.4
32537
31774.7
31774.3
31773.5
31772.3
31770.8
31768.9
31766.6
31764
31760.9
31757.5
31753.7
31749.5
31744.9
31739.9
31734.6
31728.9
31722.7
31716.2
31709.3
31702.1
31694.4
31686.3
31677.9
31669.1
31659.9
31650.3
31640.3
31629.9
31619.2
31608.1
31596.5
31584.6
31572.3
31559.7
31546.6
31533.2
31519.4
31505.2
31490.6
31475.6
31460.3
31444.6
31428.5
31412
31395.1
31377.9
31360.3
31342.3
31324
31305.3
31286.2
31266.8
31246.9
31226.7
31206.2
31185.3
31164
31142.4
31120.4
31098
31075.3
31052.3
31028.8
31005.1
30981
30956.5
30931.7
30906.5
30881.1
30855.2
30829.1
30802.5
30775.7
30748.5
30721
30693.2
30665.1
30636.6
30607.8
30578.7
30549.3
30519.6
30489.6
30459.2
30428.6
30397.7
30366.4
30334.9
30303.1
30271
30238.6
30205.9
30173
30139.8
30106.3
30072.6
30038.5
30004.3
29969.8
29935
29900
29864.7
29829.2
29793.5
29757.5
29721.3
29684.9
29648.3
29611.5
29574.5
29537.2
29499.8
29462.1
29424.3
29386.3
29348.2
29309.8
29271.3
29232.6
29193.8
29154.8
29115.7
29076.4
29037
28997.5
28957.9
28918.1
28878.3
28838.3
28798.3
28758.1
28717.9
28677.6
28637.2
28596.8
28556.3
28515.8
28475.2
28434.6
28394
28353.4
28312.7
28272.1
28231.4
28190.8
28150.2
28109.6
28069.1
28028.6
27988.2
27947.8
27907.5
27867.3
27827.2
27787.2
27747.3
27707.6
27667.9
27628.4
27589.1
27549.9
27510.9
27472.1
27433.4
27395
27356.8
27318.8
27281
27243.5
27206.3
27169.3
27132.6
27096.2
27060.1
27024.3
26988.9
26953.8
26919
26884.7
26850.7
26817.1
26783.9
26751.1
26718.8
26686.9
26655.4
26624.5
26594
26564.1
26534.6
26505.7
26477.4
26449.6
26422.3
26395.7
26369.7
26344.3
26319.6
26295.4
26272
26249.3
26227.2
26205.9
26185.3
26165.4
26146.3
26128
26110.5
26093.7
26077.9
26062.8
26048.6
26035.3
26022.9
26011.3
26000.7
25991
25982.3
25974.5
25967.8
25962
25957.2
25953.4
25950.6
25948.9
25948.3
25948.7
25950.2
25952.8
25956.5
25961.3
25967.2
25974.2
25982.3
25991.6
26002
26013.6
26026.3
26040.1
26055.1
26071.3
26088.5
26106.9
26126.4
26147.1
26168.8
26191.6
26215.6
26240.5
26266.6
26293.6
26321.7
26350.8
26380.8
26411.8
26443.7
26476.4
26510
26544.4
26579.5
26615.4
26652
26689.2
26727
26765.3
26804.2
26843.4
26883.1
26923.2
26963.5
27004
27044.7
27085.6
27126.4
27167.3
27208.1
27248.9
27289.4
27329.7
27369.7
27409.3
27448.5
27487.3
27525.5
27563.2
27600.2
27636.6
27672.2
27707
27741.1
27774.3
27806.5
27837.9
27868.2
27897.5
27925.8
27953
27979.2
28004.3
28028.1
28050.7
28072.2
28092.5
28111.5
28129.3
28145.9
28161.2
28175.3
28188.1
28199.7
28210
28219.1
28227
28233.5
28238.9
28243
28246
28247.7
28248.2
28247.6
28245.8
28242.9
28238.8
28233.6
28227.3
28220
28211.6
28202.1
28191.6
28180.1
28167.7
28154.2
28139.8
28124.5
28108.3
28091.2
28073.2
28054.4
28034.7
28014.3
27993
27971
27948.3
27924.8
27900.7
27875.9
27850.4
27824.4
27797.8
27770.6
27742.9
27714.7
27686
27656.9
27627.4
27597.5
27567.3
27536.8
27506
27475
27443.8
27412.5
27381.1
27349.6
27318.1
27286.6
27255.3
27224
27192.9
27162.1
27131.5
27101.3
27071.4
27042
27013
26984.6
26956.8
26929.6
26903.1
26877.4
26852.4
26828.3
26805.2
26782.9
26761.7
26741.5
26722.4
26704.4
26687.7
26672.1
26657.8
26644.7
26633
26622.6
26613.6
26606
26599.9
26595.1
26591.9
26590
26589.7
26590.8
26593.4
26597.5
26603
26610
26618.4
26628.2
26639.5
26652.1
26666
26681.3
26697.8
26715.6
26734.6
26754.8
26776
26798.4
26821.7
26846
26871.2
26897.2
26924.1
26951.6
26979.8
27008.7
27038
27067.9
27098.1
27128.7
27159.6
27190.7
27221.9
27253.2
27284.6
27315.8
27347
27378
27408.7
27439.1
27469.2
27498.8
27527.9
27556.5
27584.5
27611.8
27638.4
27664.2
27689.2
27713.4
27736.6
27758.9
27780.2
27800.5
27819.8
27837.9
27855
27870.9
27885.7
27899.2
27911.6
27922.8
27932.8
27941.6
27949.2
27955.5
27960.7
27964.6
27967.4
27969
27969.4
27968.7
27966.9
27964.1
27960.2
27955.2
27949.3
27942.5
27934.7
27926.1
27916.7
27906.5
27895.7
27884.2
27872.1
27859.4
27846.3
27832.8
27818.8
27804.6
27790.2
27775.5
27760.8
27746
27730.9
27716.2
27701.6
27687.1
27672.8
27658.8
27645.1
27631.7
27618.8
27606.2
27594.2
27582.6
27571.6
27561.1
27551.1
27541.8
27533
27524.8
27517.2
27510.2
27503.9
27498.1
27492.9
27488.3
27484.3
27480.9
27477.9
27475.5
27473.6
27472.2
27471.3
27470.8
27470.7
27471
27471.7
27472.8
27474.2
27476
27478
27480.4
27483
27485.8
27488.9
27492.1
27495.6
27499.3
27503.1
27507
27511.1
27515.3
27519.5
27523.9
27528.3
27532.8
27537.3
27541.8
27546.3
27550.8
27555.3
27559.7
27564.2
27568.5
27572.8
27577
27581.1
27585.1
27589.1
27592.9
27596.6
27600.1
27603.6
27606.9
27610.1
27613.1
27616
27618.7
27621.3
27623.7
27626
27628.2
27630.1
27631.9
27633.6
27635.1
27636.4
27637.5
27638.5
27639.3
27639.9
27640.4
27640.7
27640.7
27640.6
27640.3
27639.9
27639.2
27638.3
27637.3
27636
27634.6
27633
27631.1
27629.1
27626.9
27624.6
27622
27619.2
27616.3
27613.2
27609.9
27606.5
27602.8
27599
27595.1
27591
27586.8
27582.4
27577.9
27573.3
27568.5
27563.7
27558.8
27553.8
27548.8
27543.7
27538.5
27533.4
27528.3
27523.2
27518.1
27513.1
27508.2
27503.4
27498.7
27494.2
27489.9
27485.7
27481.8
27478.1
27474.6
27471.5
27468.7
27466.2
27464.2
27462.5
27461.2
27460.4
27460
27460.1
27460.8
27462
27463.7
27466
27468.9
27472.4
27476.5
27481.3
27486.8
27492.9
27499.7
27507.1
27515.3
27524.1
27533.6
27543.8
27554.6
27566
27578.1
27590.8
27604
27617.8
27632.1
27646.8
27661.9
27677.4
27693.1
27709.1
27725.4
27741.7
27757.9
27774.1
27790.1
27805.8
27821.2
27836.2
27850.7
27864.6
27877.7
27890.1
27901.6
27912.1
27921.5
27929.8
27936.9
27942.6
27947
27950
27951.4
27951.3
27949.5
27946.1
27941
27934.1
27925.5
27915.1
27902.9
27888.9
27873.1
27855.5
27836.1
27815
27792.2
27767.7
27741.5
27713.8
27684.5
27653.8
27621.7
27588.3
27553.8
27518.1
27481.5
27443.9
27405.6
27366.7
27327.2
27287.4
27247.3
27207.1
27167
27127
27087.3
27048.1
27009.6
26971.8
26934.9
26899
26864.3
26830.9
26798.9
26768.5
26739.7
26712.7
26687.6
26664.4
26643.3
26624.2
26607.3
26592.6
26580.2
26570.1
26562.3
26556.8
26553.6
26552.8
26554.3
26558.1
26564.2
26572.5
26583
26595.7
26610.5
26627.4
26646.2
26666.9
26689.5
26713.8
26739.8
26767.4
26796.5
26827.1
26859
26892.2
26926.5
26961.9
26998.3
27035.6
27073.7
27112.4
27151.8
27191.7
27232.1
27272.7
27313.6
27354.7
27395.8
27436.9
27477.9
27518.7
27559.2
27599.3
27638.9
27678
27716.4
27754.1
27791
27826.9
27861.9
27895.7
27928.4
27959.8
27989.9
28018.5
28045.7
28071.2
28095
28117.1
28137.3
28155.7
28172.1
28186.4
28198.6
28208.7
28216.5
28222.1
28225.3
28226.2
28224.6
28220.6
28214
28205
28193.4
28179.2
28162.5
28143.2
28121.4
28097
28070.1
28040.8
28009
27974.8
27938.2
27899.3
27858.4
27815.3
27770.3
27723.5
27674.9
27624.7
27573.1
27520.1
27466
27410.8
27354.8
27298
27240.8
27183.1
27125.3
27067.5
27009.9
26952.5
26895.7
26839.5
26784.1
26729.8
26676.5
26624.5
26573.9
26524.9
26477.5
26431.8
26388.1
26346.3
26306.5
26268.9
26233.5
26200.4
26169.6
26141.2
26115.1
26091.5
26070.3
26051.5
26035.2
26021.4
26010.1
26001.2
25994.7
25990.7
25989.1
25990
25993.2
25998.7
26006.6
26016.9
26029.4
26044.1
26061.1
26080.3
26101.7
26125.2
26150.8
26178.5
26208.2
26239.9
26273.5
26309
26346.4
26385.6
26426.6
26469.3
26513.6
26559.6
26607.2
26656.3
26706.8
26758.8
26812.2
26866.8
26922.7
26979.9
27038.2
27097.6
27158.1
27219.5
27282
27345.3
27409.5
27474.4
27540.2
27606.6
27673.7
27741.4
27809.6
27878.4
27947.6
28017.2
28087.2
28157.5
28228.1
28298.9
28369.9
28441
28512.2
28583.5
28654.8
28726.1
28797.3
28868.4
28939.3
29010.1
29080.6
29150.9
29220.8
29290.5
29359.7
29428.6
29497
29564.9
29632.4
29699.2
29765.5
29831.2
29896.3
29960.7
30024.4
30087.4
30149.6
30211
30271.6
30331.4
30390.3
30448.3
30505.4
30561.6
30616.7
30670.9
30724.1
30776.2
30827.3
30877.2
30926.1
30973.8
31020.4
31065.8
31110
31153
31194.8
31235.3
31274.6
31312.5
31349.2
31384.6
31418.6
31451.3
31482.6
31512.5
31541
31568.1
31593.8
31618.1
31640.9
31662.3
31682.2
31700.6
31717.5
31732.9
31746.8
31759.2
31770.1
31779.4
31787.2
31793.4
31798.1
31801.3
31802.8
31041.1
31040.8
31040
31038.9
31037.4
31035.5
31033.2
31030.5
31027.5
31024
31020.2
31016
31011.5
31006.5
31001.1
30995.4
30989.3
30982.8
30975.9
30968.6
30960.9
30952.9
30944.4
30935.6
30926.4
30916.8
30906.8
30896.4
30885.7
30874.5
30863
30851.1
30838.8
30826.1
30813.1
30799.6
30785.8
30771.6
30757
30742
30726.7
30711
30694.8
30678.4
30661.5
30644.3
30626.7
30608.7
30590.3
30571.6
30552.5
30533.1
30513.2
30493
30472.5
30451.5
30430.2
30408.6
30386.6
30364.2
30341.5
30318.4
30295
30271.2
30247.1
30222.6
30197.8
30172.6
30147.1
30121.3
30095.1
30068.6
30041.7
30014.5
29987
29959.2
29931
29902.5
29873.7
29844.6
29815.2
29785.4
29755.4
29725
29694.3
29663.4
29632.1
29600.6
29568.7
29536.6
29504.2
29471.5
29438.6
29405.3
29371.8
29338
29304
29269.7
29235.2
29200.4
29165.3
29130
29094.5
29058.7
29022.7
28986.5
28950.1
28913.5
28876.6
28839.5
28802.3
28764.8
28727.1
28689.3
28651.2
28613
28574.6
28536.1
28497.4
28458.5
28419.5
28380.4
28341.1
28301.6
28262.1
28222.4
28182.6
28142.7
28102.7
28062.6
28022.4
27982.2
27941.8
27901.4
27861
27820.4
27779.9
27739.3
27698.6
27657.9
27617.3
27576.6
27535.9
27495.2
27454.5
27413.9
27373.3
27332.7
27292.2
27251.7
27211.3
27171
27130.7
27090.6
27050.5
27010.6
26970.7
26931.1
26891.5
26852.1
26812.9
26773.8
26735
26696.3
26657.8
26619.5
26581.5
26543.7
26506.1
26468.8
26431.8
26395
26358.6
26322.4
26286.6
26251.1
26215.9
26181.1
26146.7
26112.6
26079
26045.7
26012.9
25980.5
25948.6
25917.1
25886.1
25855.6
25825.5
25796
25767.1
25738.7
25710.8
25683.5
25656.8
25630.8
25605.3
25580.5
25556.3
25532.8
25510
25487.9
25466.5
25445.8
25425.9
25406.8
25388.4
25370.8
25354
25338.1
25323
25308.7
25295.3
25282.8
25271.3
25260.6
25250.9
25242.1
25234.3
25227.4
25221.6
25216.7
25212.9
25210.1
25208.4
25207.7
25208
25209.5
25212
25215.7
25220.5
25226.3
25233.3
25241.5
25250.7
25261.1
25272.7
25285.4
25299.2
25314.2
25330.3
25347.6
25366
25385.6
25406.3
25428
25450.9
25474.9
25500
25526.1
25553.2
25581.4
25610.5
25640.7
25671.8
25703.8
25736.6
25770.4
25804.9
25840.2
25876.2
25913
25950.4
25988.4
26026.9
26066
26105.5
26145.4
26185.6
26226.2
26267
26307.9
26349
26390.1
26431.2
26472.3
26513.3
26554
26594.6
26634.8
26674.7
26714.2
26753.2
26791.6
26829.5
26866.8
26903.4
26939.2
26974.3
27008.5
27041.9
27074.3
27105.8
27136.3
27165.8
27194.2
27221.5
27247.7
27273.1
27297
27319.7
27341.2
27361.5
27380.6
27398.5
27415.1
27430.5
27444.6
27457.4
27469
27479.3
27488.4
27496.2
27502.7
27508.1
27512.1
27515
27516.7
27517.2
27516.5
27514.6
27511.6
27507.5
27502.2
27495.9
27488.4
27479.9
27470.4
27459.8
27448.2
27435.7
27422.1
27407.6
27392.2
27375.9
27358.7
27340.6
27321.7
27301.9
27281.4
27260
27237.9
27215.1
27191.5
27167.2
27142.3
27116.8
27090.6
27063.9
27036.5
27008.7
26980.3
26951.5
26922.3
26892.6
26862.6
26832.2
26801.6
26770.6
26739.5
26708.1
26676.6
26645.1
26613.4
26581.8
26550.1
26518.6
26487.1
26455.9
26424.9
26394.1
26363.7
26333.6
26304
26274.9
26246.3
26218.3
26190.9
26164.3
26138.4
26113.3
26089
26065.7
26043.3
26021.9
26001.6
25982.3
25964.3
25947.4
25931.7
25917.2
25904.1
25892.3
25881.9
25872.8
25865.2
25858.9
25854.2
25850.8
25849
25848.7
25849.8
25852.4
25856.5
25862.1
25869.1
25877.6
25887.5
25898.8
25911.5
25925.6
25941
25957.7
25975.6
25994.7
26015
26036.4
26058.9
26082.4
26106.9
26132.3
26158.5
26185.5
26213.3
26241.7
26270.8
26300.3
26330.4
26360.9
26391.7
26422.8
26454.1
26485.5
26517.1
26548.6
26580.1
26611.5
26642.7
26673.7
26704.3
26734.6
26764.4
26793.7
26822.5
26850.7
26878.2
26904.9
26930.9
26956.1
26980.4
27003.8
27026.3
27047.7
27068.1
27087.5
27105.7
27122.9
27138.9
27153.7
27167.3
27179.8
27191
27201
27209.8
27217.4
27223.7
27228.8
27232.7
27235.4
27237
27237.3
27236.6
27234.7
27231.7
27227.6
27222.6
27216.5
27209.5
27201.6
27192.8
27183.3
27172.9
27161.9
27150.2
27137.9
27125.1
27111.7
27098
27083.9
27069.5
27054.9
27040
27025.1
27010.1
26994.9
26980
26965.2
26950.5
26936.1
26922
26908.2
26894.7
26881.6
26869
26856.9
26845.2
26834.1
26823.6
26813.6
26804.2
26795.4
26787.2
26779.6
26772.6
26766.3
26760.5
26755.4
26750.9
26746.9
26743.5
26740.6
26738.2
26736.4
26735
26734.2
26733.7
26733.7
26734.1
26734.9
26736
26737.5
26739.3
26741.4
26743.8
26746.5
26749.4
26752.5
26755.8
26759.4
26763.1
26766.9
26770.9
26775
26779.3
26783.6
26788
26792.4
26796.9
26801.5
26806
26810.6
26815.1
26819.6
26824.1
26828.6
26833
26837.3
26841.5
26845.6
26849.7
26853.6
26857.5
26861.2
26864.8
26868.2
26871.5
26874.7
26877.7
26880.6
26883.4
26886
26888.4
26890.7
26892.9
26894.8
26896.6
26898.3
26899.8
26901.1
26902.3
26903.2
26904
26904.7
26905.1
26905.4
26905.5
26905.4
26905.1
26904.6
26903.9
26903.1
26902
26900.8
26899.3
26897.7
26895.9
26893.9
26891.7
26889.3
26886.7
26884
26881
26877.9
26874.6
26871.1
26867.5
26863.7
26859.7
26855.6
26851.4
26847
26842.4
26837.8
26833
26828.2
26823.2
26818.2
26813.1
26808
26802.8
26797.7
26792.5
26787.3
26782.2
26777.2
26772.2
26767.3
26762.6
26758
26753.6
26749.4
26745.4
26741.6
26738.1
26734.9
26732.1
26729.5
26727.4
26725.6
26724.3
26723.4
26723
26723.1
26723.7
26724.8
26726.5
26728.7
26731.6
26735.1
26739.2
26743.9
26749.4
26755.5
26762.2
26769.7
26777.8
26786.7
26796.2
26806.4
26817.2
26828.7
26840.9
26853.6
26866.9
26880.8
26895.2
26910
26925.3
26940.9
26956.8
26972.9
26989.5
27005.9
27022.3
27038.7
27054.9
27070.8
27086.5
27101.7
27116.4
27130.5
27143.8
27156.4
27168.1
27178.8
27188.5
27197
27204.2
27210.2
27214.7
27217.8
27219.4
27219.4
27217.7
27214.4
27209.3
27202.5
27193.9
27183.5
27171.3
27157.3
27141.5
27123.8
27104.3
27083.1
27060.1
27035.5
27009.2
26981.3
26951.8
26920.9
26888.6
26855
26820.2
26784.2
26747.3
26709.5
26670.9
26631.7
26591.9
26551.7
26511.3
26470.8
26430.4
26390.1
26350.1
26310.6
26271.7
26233.6