/*--------------------------------*- C++ -*----------------------------------*\
| =========                 |                                                 |
| \\      /  F ield         | OpenFOAM: The Open Source CFD Toolbox           |
|  \\    /   O peration     | Version:  2412                                  |
|   \\  /    A nd           | Website:  www.openfoam.com                      |
|    \\/     M anipulation  |                                                 |
\*---------------------------------------------------------------------------*/
FoamFile
{
    version     2.0;
    format      ascii;
    arch        "LSB;label=32;scalar=64";
    class       surfaceScalarField;
    location    "8.7";
    object      alphaPhi0.lava;
}
// * * * * * * * * * * * * * * * * * * * * * * * * * * * * * * * * * * * * * //

dimensions      [0 3 -1 0 0 0 0];

oriented        oriented;

internalField   nonuniform List<scalar> 
12640
(
-1.35124e-08
1.02956e-08
-3.17669e-08
4.92169e-08
-2.6721e-08
7.06157e-08
8.61446e-09
4.20845e-08
5.62145e-08
-3.5307e-08
7.91685e-08
-1.19821e-07
4.99644e-08
-1.50398e-07
-2.52721e-08
-8.80379e-08
-1.03533e-07
4.88771e-08
-1.29614e-07
1.84764e-07
-7.4327e-08
2.29006e-07
4.00201e-08
1.36189e-07
1.47053e-07
-5.56993e-08
1.75581e-07
-2.38594e-07
9.69571e-08
-2.96498e-07
-5.10014e-08
-1.79774e-07
-1.81966e-07
5.63481e-08
-2.12573e-07
2.77395e-07
-1.15947e-07
3.47969e-07
5.72443e-08
2.15868e-07
2.0587e-07
-5.07765e-08
2.38595e-07
-2.99161e-07
1.30745e-07
-3.81203e-07
-5.80465e-08
-2.43217e-07
-2.17634e-07
3.92103e-08
-2.52931e-07
3.03634e-07
-1.41313e-07
3.96068e-07
5.30973e-08
2.61954e-07
2.17275e-07
-2.16139e-08
2.56125e-07
-2.91422e-07
1.48292e-07
-3.93689e-07
-4.23995e-08
-2.72848e-07
-2.05592e-07
-1.44243e-09
-2.49318e-07
2.64442e-07
-1.5226e-07
3.76357e-07
2.6551e-08
2.7708e-07
1.84361e-07
2.91164e-08
2.34495e-07
-2.25351e-07
1.54123e-07
-3.46978e-07
-6.45957e-09
-2.75851e-07
-1.55735e-07
-5.98213e-08
-2.13637e-07
1.77715e-07
-1.54316e-07
3.08938e-07
-1.63608e-08
2.70236e-07
1.22398e-07
9.16491e-08
1.8898e-07
-1.25307e-07
1.53218e-07
-2.65542e-07
4.01625e-08
-2.60959e-07
-8.7063e-08
-1.22194e-07
-1.62441e-07
7.2167e-08
-1.50729e-07
2.19947e-07
-6.29314e-08
2.48425e-07
5.23998e-08
1.49048e-07
1.35707e-07
-2.18948e-08
1.46577e-07
-1.74687e-07
8.26983e-08
-2.32594e-07
-2.07424e-08
-1.69726e-07
-1.10006e-07
-2.22412e-08
-1.40225e-07
1.31811e-07
-9.76886e-08
2.13243e-07
-6.13773e-09
1.82216e-07
8.60072e-08
5.79349e-08
1.30954e-07
-9.24614e-08
1.06416e-07
-1.89856e-07
2.70164e-08
-1.84977e-07
-6.39464e-08
-8.37803e-08
-1.18093e-07
5.71101e-08
-1.0807e-07
1.62118e-07
-4.183e-08
1.77814e-07
4.28557e-08
1.0054e-07
1.00211e-07
-2.4237e-08
1.0198e-07
-1.29202e-07
5.18812e-08
-1.62497e-07
-1.89808e-08
-1.13441e-07
-7.23692e-08
-1.33988e-08
-8.60969e-08
8.56991e-08
-6.59252e-08
1.40383e-07
-3.45976e-08
1.34923e-07
-9.23385e-09
8.5057e-08
1.74291e-08
1.73255e-08
-2.13189e-08
-2.55621e-08
1.64861e-08
-6.32405e-08
7.14352e-08
-5.93911e-08
9.11276e-08
-1.00997e-09
4.55602e-08
7.95935e-08
-5.35708e-08
1.25169e-07
-1.49475e-07
9.18384e-08
-1.70873e-07
-1.4638e-08
-8.26137e-08
-1.33807e-07
8.00444e-08
-1.85234e-07
2.22725e-07
-1.2265e-07
2.47652e-07
2.90561e-08
1.20129e-07
1.8191e-07
-9.92919e-08
2.36934e-07
-2.8299e-07
1.48725e-07
-3.12024e-07
-3.99742e-08
-1.5366e-07
-2.18836e-07
1.10319e-07
-2.75892e-07
3.26334e-07
-1.68499e-07
3.60292e-07
4.61796e-08
1.8184e-07
2.42285e-07
-1.11899e-07
3.00593e-07
-3.50336e-07
1.8203e-07
-3.9046e-07
-4.65768e-08
-2.03832e-07
-2.51198e-07
1.04154e-07
-3.10751e-07
3.55158e-07
-1.89756e-07
4.03122e-07
4.07221e-08
2.20362e-07
2.45932e-07
-8.68328e-08
3.07624e-07
-3.41436e-07
1.92977e-07
-3.99412e-07
-2.83781e-08
-2.31916e-07
-2.27631e-07
6.11482e-08
-2.92935e-07
3.11943e-07
-1.92648e-07
3.82173e-07
1.0341e-08
2.39706e-07
1.98745e-07
-2.8283e-08
2.69489e-07
-2.69517e-07
1.90148e-07
-3.54068e-07
1.23538e-08
-2.4417e-07
-1.6208e-07
-9.19822e-09
-2.39957e-07
2.18507e-07
-1.86163e-07
3.18641e-07
-3.7833e-08
2.45973e-07
1.21014e-07
4.88424e-08
2.07184e-07
-1.62773e-07
1.81228e-07
-2.78625e-07
6.39904e-08
-2.4482e-07
-7.89006e-08
-8.72862e-08
-1.73559e-07
1.06818e-07
-1.75256e-07
2.36989e-07
-8.83933e-08
2.40541e-07
3.89135e-08
1.21688e-07
1.41028e-07
-5.40819e-08
1.6783e-07
-1.955e-07
1.08657e-07
-2.3212e-07
-3.82048e-09
-1.48888e-07
-1.11009e-07
7.96134e-09
-1.5832e-07
1.55871e-07
-1.22786e-07
2.18924e-07
-2.45392e-08
1.66795e-07
8.39551e-08
2.96882e-08
1.456e-07
-1.18466e-07
1.2897e-07
-1.99743e-07
4.49224e-08
-1.73584e-07
-5.97955e-08
-5.76071e-08
-1.28616e-07
8.34824e-08
-1.26404e-07
1.74232e-07
-5.81033e-08
1.69552e-07
3.57591e-08
7.75154e-08
1.03722e-07
-4.80951e-08
1.13051e-07
-1.39877e-07
6.6387e-08
-1.53953e-07
-4.39454e-09
-9.11286e-08
-6.27902e-08
8.20783e-09
-9.2049e-08
9.01451e-08
-9.23878e-08
1.19245e-07
-7.41492e-08
9.70338e-08
4.30577e-08
6.76818e-08
-4.33051e-08
2.78127e-08
-3.83444e-08
-4.72837e-08
2.08063e-08
-1.08988e-07
9.29798e-08
-1.01812e-07
1.23954e-07
-1.41145e-08
7.41024e-08
1.08966e-07
-4.52341e-08
1.85554e-07
-1.66479e-07
1.50744e-07
-2.0423e-07
7.31755e-09
-1.1462e-07
-1.65372e-07
6.58403e-08
-2.56048e-07
2.32852e-07
-1.93916e-07
2.75903e-07
-1.1244e-09
1.5158e-07
2.12403e-07
-8.01861e-08
3.13054e-07
-2.84719e-07
2.28305e-07
-3.32511e-07
-2.38145e-09
-1.8213e-07
-2.45524e-07
8.76266e-08
-3.52645e-07
3.19667e-07
-2.52394e-07
3.72064e-07
2.33178e-09
2.06074e-07
2.62988e-07
-8.65732e-08
3.73886e-07
-3.35588e-07
2.66648e-07
-3.93193e-07
2.41408e-09
-2.23e-07
-2.64106e-07
7.72856e-08
-3.77049e-07
3.33359e-07
-2.71893e-07
3.97361e-07
-1.22183e-08
2.34318e-07
2.49808e-07
-5.92089e-08
3.64279e-07
-3.13643e-07
2.70168e-07
-3.85944e-07
2.75211e-08
-2.40588e-07
-2.21742e-07
3.3841e-08
-3.38074e-07
2.79797e-07
-2.63009e-07
3.62353e-07
-4.74577e-08
2.4347e-07
1.82996e-07
-2.15003e-09
3.0218e-07
-2.34623e-07
2.52419e-07
-3.29299e-07
7.09783e-08
-2.43305e-07
-1.37073e-07
-3.30536e-08
-2.60153e-07
1.82806e-07
-2.39637e-07
2.90643e-07
-9.60988e-08
2.41034e-07
8.79696e-08
6.95547e-08
2.15587e-07
-1.27971e-07
2.25631e-07
-2.48888e-07
1.20589e-07
-2.36173e-07
-3.96417e-08
-1.03868e-07
-1.71557e-07
7.46998e-08
-2.10671e-07
2.07094e-07
-1.41904e-07
2.28735e-07
-4.32297e-09
1.3347e-07
1.30415e-07
-2.60076e-08
1.94499e-07
-1.66632e-07
1.57494e-07
-2.17478e-07
4.07919e-08
-1.55195e-07
-9.39295e-08
-1.48165e-08
-1.76662e-07
1.29174e-07
-1.6539e-07
2.01954e-07
-6.7925e-08
1.67398e-07
6.24605e-08
4.65164e-08
1.5589e-07
-9.45457e-08
1.6372e-07
-1.80674e-07
8.46749e-08
-1.68296e-07
-3.5549e-08
-6.8084e-08
-1.30831e-07
6.27089e-08
-1.51955e-07
1.53288e-07
-9.28645e-08
1.58579e-07
9.00589e-09
8.22382e-08
9.7207e-08
-2.88678e-08
1.29214e-07
-1.1391e-07
9.69124e-08
-1.32918e-07
2.29641e-08
-8.6675e-08
-5.99946e-08
-1.05891e-08
-1.14235e-07
5.35448e-08
-1.17885e-07
8.34169e-08
6.29872e-08
9.1157e-08
-3.4152e-08
8.96853e-08
-7.94174e-08
2.40673e-08
-6.37031e-08
-8.13878e-08
1.96448e-08
-1.56177e-07
1.25846e-07
-1.36282e-07
1.77595e-07
-1.15762e-08
1.19213e-07
1.51852e-07
-3.60741e-08
2.45613e-07
-2.01834e-07
1.91366e-07
-2.67335e-07
1.55384e-09
-1.71465e-07
-2.16757e-07
4.7759e-08
-3.23637e-07
2.65585e-07
-2.36991e-07
3.43138e-07
7.2895e-09
2.16888e-07
2.68488e-07
-5.32195e-08
3.83954e-07
-3.11819e-07
2.71848e-07
-3.99429e-07
-1.21588e-08
-2.52279e-07
-3.02712e-07
5.28505e-08
-4.23242e-07
3.39344e-07
-2.94972e-07
4.35206e-07
1.1947e-08
2.77957e-07
3.1789e-07
-4.50425e-08
4.4115e-07
-3.46387e-07
3.07419e-07
-4.49547e-07
-5.32815e-09
-2.93719e-07
-3.13699e-07
3.03497e-08
-4.38524e-07
3.34627e-07
-3.1039e-07
4.44885e-07
-7.9143e-09
3.01703e-07
2.91707e-07
-8.01937e-09
4.18364e-07
-3.05015e-07
3.0641e-07
-4.23089e-07
2.79924e-08
-3.02717e-07
-2.54366e-07
-2.01709e-08
-3.83944e-07
2.61722e-07
-2.97265e-07
3.88538e-07
-5.36014e-08
2.99111e-07
2.05596e-07
5.33719e-08
3.39717e-07
-2.07895e-07
2.85049e-07
-3.44426e-07
8.30963e-08
-2.91432e-07
-1.49805e-07
-8.84997e-08
-2.89858e-07
1.48931e-07
-2.70962e-07
2.95438e-07
-1.13881e-07
2.81188e-07
9.17274e-08
1.23448e-07
2.38332e-07
-8.86933e-08
2.55757e-07
-2.44387e-07
1.43064e-07
-2.68009e-07
-3.59968e-08
-1.54518e-07
-1.88498e-07
3.22489e-08
-2.39464e-07
1.9489e-07
-1.67592e-07
2.52316e-07
-1.34256e-08
1.79359e-07
1.42673e-07
1.73854e-08
2.21425e-07
-1.48355e-07
1.84421e-07
-2.32841e-07
5.31259e-08
-1.9468e-07
-1.02569e-07
-5.67085e-08
-2.00921e-07
1.06729e-07
-1.91402e-07
2.09446e-07
-8.13928e-08
1.99172e-07
6.8146e-08
8.48105e-08
1.76307e-07
-6.95156e-08
1.86638e-07
-1.80427e-07
9.75884e-08
-1.91002e-07
-3.83907e-08
-1.00789e-07
-1.45989e-07
3.65368e-08
-1.69829e-07
1.45405e-07
-1.03637e-07
1.71095e-07
1.02993e-08
1.08025e-07
1.08588e-07
-1.76263e-09
1.42472e-07
-9.68483e-08
9.98527e-08
-1.32717e-07
4.87664e-09
-1.02687e-07
-8.54796e-08
-3.13468e-08
-1.17945e-07
4.37336e-08
6.67404e-08
5.55418e-08
1.11357e-08
1.09883e-07
-6.69208e-08
1.08812e-07
-1.25052e-07
2.32948e-08
-9.60467e-08
-1.09287e-07
2.22471e-08
-2.00245e-07
1.63598e-07
-1.69918e-07
2.30156e-07
-1.26692e-08
1.56428e-07
1.8492e-07
-3.67275e-08
2.92849e-07
-2.41334e-07
2.24055e-07
-3.23699e-07
3.14049e-10
-2.12238e-07
-2.50253e-07
4.64075e-08
-3.68357e-07
3.0467e-07
-2.66063e-07
4.00194e-07
1.00995e-08
2.59215e-07
2.9961e-07
-4.94429e-08
4.2335e-07
-3.47924e-07
2.96069e-07
-4.54056e-07
-1.58074e-08
-2.94273e-07
-3.29568e-07
4.63997e-08
-4.55637e-07
3.70522e-07
-3.13926e-07
4.85126e-07
1.5502e-08
3.18435e-07
3.39037e-07
-3.53765e-08
4.65686e-07
-3.7083e-07
3.2137e-07
-4.92842e-07
-7.74e-09
-3.31681e-07
-3.2818e-07
1.7239e-08
-4.55049e-07
3.51345e-07
-3.20033e-07
4.80587e-07
-7.56171e-09
3.36784e-07
2.99164e-07
8.83454e-09
4.27386e-07
-3.13377e-07
3.12702e-07
-4.50646e-07
3.02905e-08
-3.34599e-07
-2.55128e-07
-4.05793e-08
-3.86556e-07
2.61968e-07
-3.01284e-07
4.08218e-07
-5.8787e-08
3.27873e-07
2.00519e-07
7.70191e-08
3.37315e-07
-2.00646e-07
2.87733e-07
-3.56752e-07
9.09095e-08
-3.17004e-07
-1.40269e-07
-1.14523e-07
-2.84058e-07
1.35521e-07
-2.7307e-07
3.01474e-07
-1.23676e-07
3.03667e-07
7.93761e-08
1.50831e-07
2.30679e-07
-7.06631e-08
2.57677e-07
-2.45202e-07
1.53781e-07
-2.87218e-07
-2.26735e-08
-1.81807e-07
-1.80425e-07
1.15498e-08
-2.41303e-07
1.91793e-07
-1.77978e-07
2.68137e-07
-2.59834e-08
2.05098e-07
1.35233e-07
3.88999e-08
2.22867e-07
-1.42397e-07
1.9304e-07
-2.44826e-07
6.33286e-08
-2.17164e-07
-9.64861e-08
-7.70815e-08
-2.01437e-07
9.89921e-08
-1.96938e-07
2.17242e-07
-8.80929e-08
2.16953e-07
6.3649e-08
1.02493e-07
1.75178e-07
-6.06345e-08
1.88053e-07
-1.83354e-07
1.00175e-07
-2.02485e-07
-3.53484e-08
-1.14191e-07
-1.42441e-07
2.72134e-08
-1.65691e-07
1.42825e-07
-9.95824e-08
1.74368e-07
1.23034e-08
1.14322e-07
1.04986e-07
4.72499e-09
1.28879e-07
-9.16447e-08
7.54053e-08
-1.27306e-07
-1.23102e-08
-9.0745e-08
-6.91002e-08
-1.05508e-08
4.38269e-08
-3.40422e-08
6.5908e-08
5.5805e-08
2.6516e-09
1.41588e-07
-1.09776e-07
1.43914e-07
-1.72985e-07
3.02827e-08
-1.27481e-07
-1.39267e-07
2.20559e-08
-2.5014e-07
1.95798e-07
-2.0967e-07
2.77851e-07
-1.87647e-08
1.93213e-07
2.15647e-07
-3.12263e-08
3.42055e-07
-2.69517e-07
2.63345e-07
-3.68906e-07
7.97662e-09
-2.48893e-07
-2.77121e-07
3.79981e-08
-4.13176e-07
3.2756e-07
-3.0328e-07
4.40095e-07
1.90075e-10
2.93584e-07
3.20347e-07
-3.84662e-08
4.61263e-07
-3.64203e-07
3.29723e-07
-4.86711e-07
-3.52598e-09
-3.24951e-07
-3.42854e-07
3.31166e-08
-4.85107e-07
3.7952e-07
-3.43172e-07
5.09619e-07
7.19266e-10
3.44909e-07
3.44122e-07
-1.96846e-08
4.85988e-07
-3.72043e-07
3.45919e-07
-5.08657e-07
9.63232e-09
-3.53629e-07
-3.24942e-07
-6.52828e-10
-4.66258e-07
3.45061e-07
-3.40055e-07
4.88105e-07
-2.74758e-08
3.54458e-07
2.88051e-07
2.87714e-08
4.30162e-07
-3.00185e-07
3.28564e-07
-4.50551e-07
5.23701e-08
-3.48228e-07
-2.37247e-07
-6.1962e-08
-3.82139e-07
2.43159e-07
-3.13529e-07
4.01824e-07
-8.24012e-08
3.37985e-07
1.77395e-07
9.92039e-08
3.27198e-07
-1.77674e-07
2.96823e-07
-3.45395e-07
1.15077e-07
-3.23897e-07
-1.13821e-07
-1.36453e-07
-2.69946e-07
1.10269e-07
-2.79412e-07
2.86778e-07
-1.47219e-07
3.07735e-07
5.16496e-08
1.71452e-07
2.14198e-07
-4.49382e-08
2.61452e-07
-2.28557e-07
1.7531e-07
-2.88539e-07
4.22782e-09
-1.9981e-07
-1.63112e-07
-1.27242e-08
-2.42574e-07
1.74613e-07
-1.96125e-07
2.66834e-07
-5.01778e-08
2.19363e-07
1.18288e-07
6.01575e-08
2.2146e-07
-1.25663e-07
2.06446e-07
-2.4071e-07
8.31812e-08
-2.26477e-07
-8.08483e-08
-9.38445e-08
-1.97145e-07
8.36286e-08
-2.04539e-07
2.10252e-07
-1.02411e-07
2.20475e-07
4.99827e-08
1.13758e-07
1.67925e-07
-4.71541e-08
1.89229e-07
-1.7319e-07
1.08119e-07
-1.99198e-07
-2.43596e-08
-1.18661e-07
-1.32219e-07
1.65255e-08
-1.58886e-07
1.29152e-07
-9.78264e-08
1.61793e-07
7.34824e-09
1.06963e-07
9.20467e-08
6.19858e-09
1.11179e-07
-7.82384e-08
6.68263e-08
-1.00286e-07
6.85446e-09
-5.81987e-08
6.96303e-10
-1.28768e-07
8.91267e-08
-5.54209e-08
8.94777e-08
8.223e-08
-1.04232e-08
1.94329e-07
-1.41307e-07
1.82689e-07
-2.1605e-07
3.28955e-08
-1.62604e-07
-1.73661e-07
1.5649e-08
-3.00935e-07
2.23037e-07
-2.47289e-07
3.2387e-07
-2.20235e-08
2.32638e-07
2.47555e-07
-1.94309e-08
3.89802e-07
-2.90566e-07
2.99404e-07
-4.10157e-07
1.27511e-08
-2.87689e-07
-3.04569e-07
2.16308e-08
-4.55743e-07
3.40593e-07
-3.36691e-07
4.73891e-07
-6.68841e-09
3.29672e-07
3.41473e-07
-1.81695e-08
4.96664e-07
-3.68421e-07
3.59482e-07
-5.11535e-07
5.81547e-09
-3.56937e-07
-3.56422e-07
9.61064e-09
-5.12145e-07
3.74944e-07
-3.68819e-07
5.2501e-07
-1.144e-08
3.72236e-07
3.4943e-07
6.59767e-09
5.04185e-07
-3.58875e-07
3.67419e-07
-5.14574e-07
2.47796e-08
-3.75915e-07
-3.22007e-07
-2.89532e-08
-4.75942e-07
3.2429e-07
-3.57776e-07
4.85358e-07
-4.55882e-08
3.71858e-07
2.77453e-07
5.83835e-08
4.3216e-07
-2.73058e-07
3.42947e-07
-4.40188e-07
7.30164e-08
-3.6085e-07
-2.20216e-07
-9.17912e-08
-3.77782e-07
2.11515e-07
-3.25108e-07
3.85444e-07
-1.04855e-07
3.4624e-07
1.55551e-07
1.282e-07
3.17987e-07
-1.43403e-07
3.05968e-07
-3.24553e-07
1.38242e-07
-3.28005e-07
-8.91248e-08
-1.63285e-07
-2.5751e-07
7.55313e-08
-2.86382e-07
2.63232e-07
-1.69798e-07
3.08052e-07
2.61398e-08
1.94924e-07
2.00027e-07
-1.16894e-08
2.66245e-07
-2.03799e-07
1.95821e-07
-2.85183e-07
2.85147e-08
-2.1862e-07
-1.48544e-07
-4.25448e-08
-2.45065e-07
1.50107e-07
-2.13138e-07
2.60048e-07
-7.14685e-08
2.32531e-07
1.04321e-07
8.50603e-08
2.21322e-07
-1.02466e-07
2.18607e-07
-2.30521e-07
9.99884e-08
-2.33047e-07
-6.82595e-08
-1.12477e-07
-1.94096e-07
6.27699e-08
-2.10818e-07
1.9689e-07
-1.13561e-07
2.19879e-07
3.95522e-08
1.25123e-07
1.62106e-07
-2.94981e-08
1.89063e-07
-1.56872e-07
1.12427e-07
-1.90732e-07
-1.75082e-08
-1.21318e-07
-1.24439e-07
3.4458e-09
-1.51653e-07
1.09886e-07
-9.34019e-08
1.43024e-07
6.77241e-09
9.64907e-08
8.82608e-08
1.07858e-08
1.0788e-07
-5.74766e-08
7.26259e-08
-7.40791e-08
-3.97538e-08
-1.62537e-07
5.44706e-08
-1.57568e-07
1.31414e-07
-4.70799e-08
1.16373e-07
1.23772e-07
-2.91134e-09
2.41677e-07
-1.6602e-07
2.1445e-07
-2.6057e-07
3.26394e-08
-2.00298e-07
-2.05056e-07
6.16245e-09
-3.44663e-07
2.45803e-07
-2.78184e-07
3.64999e-07
-2.35856e-08
2.69282e-07
2.74111e-07
-6.21086e-09
4.27491e-07
-3.06106e-07
3.26456e-07
-4.445e-07
1.53942e-08
-3.22067e-07
-3.25153e-07
4.40661e-09
-4.85778e-07
3.47632e-07
-3.59054e-07
4.99761e-07
-1.07902e-08
3.60425e-07
3.54912e-07
2.57927e-09
5.17992e-07
-3.66515e-07
3.76856e-07
-5.27971e-07
1.18278e-08
-3.83101e-07
-3.62091e-07
-1.40046e-08
-5.24495e-07
3.64398e-07
-3.81475e-07
5.32029e-07
-1.98249e-08
3.93578e-07
3.47168e-07
3.26124e-08
5.07948e-07
-3.40271e-07
3.75922e-07
-5.12607e-07
3.57051e-08
-3.9232e-07
-3.124e-07
-5.65509e-08
-4.72163e-07
2.98928e-07
-3.6298e-07
4.75531e-07
-5.89823e-08
3.83666e-07
2.61583e-07
8.67792e-08
4.22293e-07
-2.42447e-07
3.4564e-07
-4.23832e-07
8.83694e-08
-3.68281e-07
-1.99699e-07
-1.19824e-07
-3.63579e-07
1.77659e-07
-3.2603e-07
3.64303e-07
-1.21367e-07
3.49753e-07
1.32252e-07
1.5477e-07
3.01181e-07
-1.08275e-07
3.05586e-07
-3.00237e-07
1.54783e-07
-3.27833e-07
-6.50794e-08
-1.87068e-07
-2.39769e-07
4.12618e-08
-2.8496e-07
2.37453e-07
-1.85098e-07
3.04534e-07
3.30043e-09
2.14774e-07
1.82724e-07
1.98765e-08
2.63735e-07
-1.77937e-07
2.08503e-07
-2.78418e-07
4.83575e-08
-2.33345e-07
-1.32778e-07
-6.96573e-08
-2.41277e-07
1.25483e-07
-2.21973e-07
2.50271e-07
-8.69097e-08
2.41309e-07
9.07884e-08
1.06456e-07
2.1591e-07
-7.99887e-08
2.22536e-07
-2.17791e-07
1.09957e-07
-2.35106e-07
-5.74841e-08
-1.27006e-07
-1.86872e-07
4.33981e-08
-2.09142e-07
1.81548e-07
-1.17142e-07
2.14806e-07
3.23694e-08
1.3181e-07
1.53492e-07
-1.43209e-08
1.81351e-07
-1.39537e-07
1.08065e-07
-1.78222e-07
-1.62583e-08
-1.18885e-07
-1.16505e-07
-5.86947e-09
-1.38494e-07
9.18374e-08
-7.87297e-08
1.23795e-07
1.96071e-08
8.52424e-08
9.03289e-08
1.14118e-08
9.63304e-08
-4.99773e-08
-5.53881e-08
-9.90221e-08
-2.5534e-08
-1.76665e-07
8.90251e-08
-1.6771e-07
1.83092e-07
-3.84252e-08
1.57918e-07
1.51592e-07
5.00701e-09
2.80209e-07
-1.91097e-07
2.42499e-07
-3.01566e-07
3.41663e-08
-2.34581e-07
-2.29343e-07
-4.80148e-09
-3.79107e-07
2.61251e-07
-3.02939e-07
3.9638e-07
-2.64787e-08
2.99362e-07
2.91695e-07
8.00675e-09
4.533e-07
-3.12814e-07
3.45853e-07
-4.66582e-07
1.97751e-08
-3.47581e-07
-3.34887e-07
-1.26926e-08
-5.01833e-07
3.45507e-07
-3.7261e-07
5.12027e-07
-1.68547e-08
3.80778e-07
3.56347e-07
2.21751e-08
5.24082e-07
-3.55655e-07
3.84746e-07
-5.30294e-07
1.98293e-08
-3.97958e-07
-3.55343e-07
-3.55183e-08
-5.21234e-07
3.45599e-07
-3.84431e-07
5.25165e-07
-2.99879e-08
4.03237e-07
3.32856e-07
5.55836e-08
4.96496e-07
-3.14606e-07
3.74836e-07
-4.97631e-07
4.78912e-08
-3.9711e-07
-2.91816e-07
-8.01574e-08
-4.54265e-07
2.681e-07
-3.58915e-07
4.54144e-07
-7.27977e-08
3.8427e-07
2.36415e-07
1.10231e-07
3.99868e-07
-2.08269e-07
3.39487e-07
-3.97731e-07
1.03026e-07
-3.65183e-07
-1.71989e-07
-1.41993e-07
-3.38678e-07
1.42282e-07
-3.18551e-07
3.35444e-07
-1.35862e-07
3.43574e-07
1.04114e-07
1.74623e-07
2.75672e-07
-7.36968e-08
2.97224e-07
-2.70316e-07
1.67897e-07
-3.18918e-07
-3.85933e-08
-2.03411e-07
-2.15277e-07
9.48293e-09
-2.75938e-07
2.081e-07
-1.95597e-07
2.93276e-07
-1.97163e-08
2.26652e-07
1.60485e-07
4.72542e-08
2.53989e-07
-1.50382e-07
2.15191e-07
-2.64961e-07
6.6407e-08
-2.39825e-07
-1.13678e-07
-9.12304e-08
-2.3066e-07
1.00814e-07
-2.23929e-07
2.34892e-07
-9.89773e-08
2.41869e-07
7.53264e-08
1.21345e-07
2.04224e-07
-5.88932e-08
2.19118e-07
-2.0063e-07
1.15357e-07
-2.29309e-07
-4.61085e-08
-1.34414e-07
-1.74221e-07
2.66993e-08
-2.00051e-07
1.63113e-07
-1.15173e-07
2.0257e-07
2.60023e-08
1.30981e-07
1.40443e-07
-3.22296e-09
1.66064e-07
-1.20924e-07
9.67999e-08
-1.59858e-07
-1.74474e-08
-1.0885e-07
-1.04618e-07
-8.92028e-09
-1.1586e-07
7.69284e-08
-5.33891e-08
1.03434e-07
2.8874e-08
6.56335e-08
7.01738e-08
-2.6078e-09
-4.02431e-08
3.57864e-08
-1.02188e-07
-8.59512e-08
-1.97837e-08
-1.95758e-07
1.35139e-07
-1.93585e-07
2.29685e-07
-4.362e-08
1.87474e-07
1.73548e-07
1.06261e-08
3.14226e-07
-2.08815e-07
2.67275e-07
-3.32217e-07
3.71457e-08
-2.62626e-07
-2.4639e-07
-1.77297e-08
-4.03825e-07
2.6721e-07
-3.21249e-07
4.15887e-07
-3.05951e-08
3.2208e-07
3.00492e-07
2.40791e-08
4.67651e-07
-3.08895e-07
3.57995e-07
-4.7494e-07
2.57431e-08
-3.64097e-07
-3.34803e-07
-3.09378e-08
-5.05512e-07
3.32415e-07
-3.78622e-07
5.0958e-07
-2.48077e-08
3.91059e-07
3.47496e-07
4.2166e-08
5.17569e-07
-3.34104e-07
3.85167e-07
-5.17721e-07
2.98232e-08
-4.02181e-07
-3.38478e-07
-5.66075e-08
-5.05813e-07
3.16959e-07
-3.80271e-07
5.03932e-07
-4.19749e-08
4.02107e-07
3.09217e-07
7.71886e-08
4.73882e-07
-2.80495e-07
3.67139e-07
-4.69422e-07
6.14278e-08
-3.91279e-07
-2.63217e-07
-1.01345e-07
-4.26588e-07
2.30639e-07
-3.48773e-07
4.21109e-07
-8.71888e-08
3.74643e-07
2.0494e-07
1.30122e-07
3.69282e-07
-1.69566e-07
3.27744e-07
-3.61874e-07
1.1725e-07
-3.52411e-07
-1.39902e-07
-1.59455e-07
-3.07294e-07
1.04599e-07
-3.05868e-07
2.98846e-07
-1.4877e-07
3.28366e-07
7.35905e-08
1.88672e-07
2.45289e-07
-3.90081e-08
2.83938e-07
-2.34675e-07
1.78242e-07
-3.01695e-07
-1.16052e-08
-2.13011e-07
-1.87363e-07
-2.04025e-08
-2.62185e-07
1.74942e-07
-2.02243e-07
2.74484e-07
-4.15925e-08
2.31081e-07
1.36045e-07
7.10332e-08
2.39673e-07
-1.20746e-07
2.17159e-07
-2.44821e-07
8.20161e-08
-2.38469e-07
-9.33676e-08
-1.0789e-07
-2.15691e-07
7.55754e-08
-2.20619e-07
2.13781e-07
-1.07674e-07
2.34579e-07
5.94916e-08
1.30412e-07
1.88582e-07
-3.85623e-08
2.10268e-07
-1.78863e-07
1.16756e-07
-2.16054e-07
-3.51839e-08
-1.35456e-07
-1.58266e-07
1.20267e-08
-1.8571e-07
1.41481e-07
-1.08851e-07
1.83744e-07
2.06765e-08
1.23637e-07
1.24505e-07
4.67116e-09
1.45726e-07
-1.00786e-07
8.17997e-08
-1.36198e-07
-1.79134e-08
-9.23629e-08
-8.75978e-08
-7.39282e-09
-8.92823e-08
6.18886e-08
-3.79872e-08
7.62772e-08
1.39811e-08
3.82387e-08
-7.30908e-09
1.63585e-07
-1.22249e-07
6.78497e-08
-1.26165e-07
-1.0348e-07
-4.04802e-09
-2.3875e-07
1.5592e-07
-2.2266e-07
2.5541e-07
-4.57217e-08
2.11439e-07
1.93388e-07
2.14548e-08
3.40534e-07
-2.1538e-07
2.85127e-07
-3.50981e-07
3.98582e-08
-2.83698e-07
-2.55925e-07
-3.229e-08
-4.17396e-07
2.63614e-07
-3.31479e-07
4.23088e-07
-3.47859e-08
3.36734e-07
3.00778e-07
4.11461e-08
4.69883e-07
-2.95226e-07
3.61529e-07
-4.70222e-07
3.17518e-08
-3.71699e-07
-3.26007e-07
-4.96036e-08
-4.96942e-07
3.09772e-07
-3.7604e-07
4.93935e-07
-3.27705e-08
3.92037e-07
3.3023e-07
6.19643e-08
4.99328e-07
-3.03718e-07
3.77386e-07
-4.92484e-07
3.96672e-08
-3.97106e-07
-3.14019e-07
-7.6802e-08
-4.79753e-07
2.80674e-07
-3.68546e-07
4.71112e-07
-5.34456e-08
3.91963e-07
2.79293e-07
9.70763e-08
4.42144e-07
-2.40333e-07
3.52636e-07
-4.31122e-07
7.38752e-08
-3.76912e-07
-2.29981e-07
-1.19898e-07
-3.91545e-07
1.88985e-07
-3.32582e-07
3.79723e-07
-9.97331e-08
3.57057e-07
1.70684e-07
1.46402e-07
3.33162e-07
-1.2867e-07
3.10647e-07
-3.19531e-07
1.28761e-07
-3.32321e-07
-1.06922e-07
-1.72357e-07
-2.72135e-07
6.6691e-08
-2.88416e-07
2.5759e-07
-1.58074e-07
3.06481e-07
4.39493e-08
1.97303e-07
2.12707e-07
-5.90917e-09
2.66361e-07
-1.96087e-07
1.84175e-07
-2.78468e-07
1.2978e-08
-2.16524e-07
-1.58562e-07
-4.71643e-08
-2.44538e-07
1.40339e-07
-2.03859e-07
2.50369e-07
-5.98944e-08
2.29015e-07
1.11739e-07
9.05083e-08
2.21842e-07
-9.0945e-08
2.13753e-07
-2.201e-07
9.3289e-08
-2.30534e-07
-7.39518e-08
-1.19471e-07
-1.97643e-07
5.12208e-08
-2.11937e-07
1.88933e-07
-1.11657e-07
2.2099e-07
4.51462e-08
1.34006e-07
1.70453e-07
-2.0019e-08
1.96396e-07
-1.54386e-07
1.13375e-07
-1.97175e-07
-2.62423e-08
-1.30986e-07
-1.40564e-07
-3.68472e-11
-1.67064e-07
1.18447e-07
-9.82367e-08
1.60548e-07
1.72269e-08
1.11437e-07
1.0744e-07
9.7344e-09
1.23017e-07
-8.03118e-08
6.58693e-08
-1.09875e-07
-1.76354e-08
-7.332e-08
-7.30039e-08
-6.03234e-09
-7.35782e-08
4.39814e-08
-3.85474e-08
5.04001e-08
2.19517e-08
2.03723e-07
-6.69117e-08
1.90731e-07
-1.57189e-07
5.5936e-08
-1.44428e-07
-1.40407e-07
-1.87041e-08
-2.69257e-07
1.59815e-07
-2.37983e-07
2.74973e-07
-4.40984e-08
2.33501e-07
2.06026e-07
3.55756e-08
3.54651e-07
-2.12612e-07
2.93811e-07
-3.57818e-07
4.20124e-08
-2.96389e-07
-2.57065e-07
-4.68549e-08
-4.18538e-07
2.51328e-07
-3.32582e-07
4.17616e-07
-3.85807e-08
3.41871e-07
2.92368e-07
5.72614e-08
4.59351e-07
-2.73379e-07
3.55668e-07
-4.52881e-07
3.71581e-08
-3.69401e-07
-3.08802e-07
-6.66224e-08
-4.75986e-07
2.79783e-07
-3.643e-07
4.66301e-07
-3.99069e-08
3.83193e-07
3.05341e-07
7.94413e-08
4.69712e-07
-2.67216e-07
3.61037e-07
-4.56444e-07
4.83301e-08
-3.82637e-07
-2.832e-07
-9.39687e-08
-4.4381e-07
2.39841e-07
-3.49027e-07
4.29079e-07
-6.31907e-08
3.73083e-07
2.44668e-07
1.13185e-07
4.02344e-07
-1.9744e-07
3.31189e-07
-3.85468e-07
8.38946e-08
-3.54616e-07
-1.9393e-07
-1.33918e-07
-3.50385e-07
1.46502e-07
-3.10269e-07
3.32931e-07
-1.09034e-07
3.32395e-07
1.35575e-07
1.57419e-07
2.92853e-07
-8.88203e-08
2.88174e-07
-2.73705e-07
1.3619e-07
-3.06032e-07
-7.49574e-08
-1.79375e-07
-2.34545e-07
3.15186e-08
-2.66219e-07
2.14608e-07
-1.62523e-07
2.79253e-07
1.696e-08
1.99591e-07
1.792e-07
2.3041e-08
2.44595e-07
-1.57302e-07
1.8465e-07
-2.50724e-07
3.3623e-08
-2.13477e-07
-1.30028e-07
-6.874e-08
-2.23195e-07
1.06781e-07
-1.99674e-07
2.22556e-07
-7.3397e-08
2.20452e-07
8.85847e-08
1.04173e-07
2.00824e-07
-6.31517e-08
2.04549e-07
-1.92538e-07
9.93483e-08
-2.16506e-07
-5.63003e-08
-1.25041e-07
-1.76997e-07
2.95824e-08
-1.97816e-07
1.62171e-07
-1.10409e-07
2.02046e-07
3.30009e-08
1.31783e-07
1.50448e-07
-4.7097e-09
1.778e-07
-1.29054e-07
1.05133e-07
-1.74076e-07
-1.9694e-08
-1.21314e-07
-1.21751e-07
-8.55502e-09
-1.44827e-07
9.58242e-08
-8.38346e-08
1.34955e-07
1.5858e-08
9.57135e-08
9.05251e-08
1.19428e-08
9.96414e-08
-6.13961e-08
4.84842e-08
-8.4698e-08
-2.2369e-08
-5.59439e-08
-6.48405e-08
-4.74365e-09
-6.10765e-08
3.28093e-08
3.23804e-08
1.28745e-07
3.16524e-08
2.04665e-07
-8.96255e-08
1.82165e-07
-1.92498e-07
3.9129e-08
-1.77092e-07
-1.54914e-07
-3.25408e-08
-2.81305e-07
1.62457e-07
-2.43931e-07
2.86073e-07
-4.35922e-08
2.46962e-07
2.08834e-07
4.85842e-08
3.55738e-07
-2.01677e-07
2.93262e-07
-3.51643e-07
4.36932e-08
-2.98723e-07
-2.49778e-07
-5.97531e-08
-4.07256e-07
2.30954e-07
-3.24459e-07
3.98826e-07
-4.1704e-08
3.35942e-07
2.75775e-07
7.07363e-08
4.36661e-07
-2.44435e-07
3.40743e-07
-4.22878e-07
4.1694e-08
-3.56062e-07
-2.8408e-07
-8.0252e-08
-4.43753e-07
2.43973e-07
-3.44057e-07
4.27217e-07
-4.59038e-08
3.63738e-07
2.74072e-07
9.27985e-08
4.3024e-07
-2.26527e-07
3.36996e-07
-4.10639e-07
5.54319e-08
-3.58302e-07
-2.47531e-07
-1.06294e-07
-3.99777e-07
1.96694e-07
-3.22712e-07
3.79268e-07
-7.07708e-08
3.45272e-07
2.07005e-07
1.23741e-07
3.56404e-07
-1.54225e-07
3.03838e-07
-3.34178e-07
9.10198e-08
-3.24441e-07
-1.56759e-07
-1.41742e-07
-3.05032e-07
1.05645e-07
-2.82857e-07
2.82614e-07
-1.14651e-07
3.00922e-07
1.01216e-07
1.61694e-07
2.50158e-07
-5.23846e-08
2.61296e-07
-2.2633e-07
1.39181e-07
-2.73999e-07
-4.54086e-08
-1.7929e-07
-1.96122e-07
1.24415e-09
-2.40199e-07
1.71792e-07
-1.61909e-07
2.47298e-07
-6.26999e-09
1.94638e-07
1.46099e-07
4.59899e-08
2.19488e-07
-1.20093e-07
1.79661e-07
-2.19244e-07
4.95751e-08
-2.03342e-07
-1.02806e-07
-8.36656e-08
-1.98968e-07
7.58586e-08
-1.89928e-07
1.91974e-07
-8.17257e-08
2.05272e-07
6.73415e-08
1.11004e-07
1.77417e-07
-3.87341e-08
1.90045e-07
-1.63195e-07
1.00196e-07
-1.96682e-07
-4.09071e-08
-1.24053e-07
-1.54541e-07
1.17718e-08
-1.79001e-07
1.34668e-07
-1.04299e-07
1.78488e-07
2.3261e-08
1.23718e-07
1.29306e-07
6.58878e-09
1.55475e-07
-1.04089e-07
9.28586e-08
-1.47926e-07
-1.52872e-08
-1.07055e-07
-1.02359e-07
-1.32673e-08
-1.20143e-07
7.47448e-08
-6.68335e-08
1.08551e-07
1.59483e-08
7.76896e-08
7.3644e-08
1.11817e-08
7.478e-08
-4.58798e-08
2.77301e-08
-6.26584e-08
-2.63529e-08
-3.8294e-08
-4.87794e-08
2.72714e-09
2.334e-08
-1.55486e-08
1.10817e-07
1.02361e-07
3.1016e-08
1.97556e-07
-1.19697e-07
1.84823e-07
-2.14708e-07
4.09107e-08
-1.87746e-07
-1.5737e-07
-3.92371e-08
-2.83388e-07
1.56114e-07
-2.43248e-07
2.81393e-07
-4.35888e-08
2.48274e-07
2.03385e-07
5.9619e-08
3.44771e-07
-1.82114e-07
2.83354e-07
-3.31566e-07
4.39146e-08
-2.89898e-07
-2.35307e-07
-7.05193e-08
-3.84382e-07
2.02605e-07
-3.07054e-07
3.66589e-07
-4.30813e-08
3.18696e-07
2.52685e-07
8.12247e-08
4.03255e-07
-2.08807e-07
3.17142e-07
-3.80573e-07
4.43254e-08
-3.3176e-07
-2.53879e-07
-9.01241e-08
-4.0221e-07
2.03094e-07
-3.16053e-07
3.77465e-07
-4.97321e-08
3.34011e-07
2.38757e-07
1.0163e-07
3.83267e-07
-1.8268e-07
3.0626e-07
-3.56177e-07
5.99662e-08
-3.24624e-07
-2.0951e-07
-1.13335e-07
-3.50233e-07
1.52451e-07
-2.90766e-07
3.22994e-07
-7.5247e-08
3.09161e-07
1.68817e-07
1.28284e-07
3.06967e-07
-1.12e-07
2.71843e-07
-2.78661e-07
9.44355e-08
-2.87072e-07
-1.20852e-07
-1.42935e-07
-2.58047e-07
6.77087e-08
-2.51649e-07
2.30166e-07
-1.15955e-07
2.63339e-07
6.97296e-08
1.58865e-07
2.07445e-07
-2.05377e-08
2.31324e-07
-1.787e-07
1.37349e-07
-2.36917e-07
-2.00281e-08
-1.71866e-07
-1.58952e-07
-2.31636e-08
-2.11647e-07
1.3027e-07
-1.56143e-07
2.11307e-07
-2.44351e-08
1.8239e-07
1.15151e-07
6.22455e-08
1.92318e-07
-8.53815e-08
1.69442e-07
-1.84722e-07
6.0017e-08
-1.86289e-07
-7.82783e-08
-9.1569e-08
-1.73109e-07
4.82769e-08
-1.75187e-07
1.59339e-07
-8.45541e-08
1.83905e-07
4.90268e-08
1.10978e-07
1.52842e-07
-1.8174e-08
1.71119e-07
-1.32826e-07
9.59796e-08
-1.71777e-07
-2.84164e-08
-1.1684e-07
-1.31423e-07
-1.95534e-09
-1.5664e-07
1.07223e-07
-9.39421e-08
1.51325e-07
1.61381e-08
1.10552e-07
1.0802e-07
1.39128e-08
1.30811e-07
-8.02876e-08
7.7742e-08
-1.20064e-07
-1.26057e-08
-8.9468e-08
-8.30432e-08
-1.46864e-08
-9.45902e-08
5.57547e-08
-4.92126e-08
8.26283e-08
1.57081e-08
5.85865e-08
5.57991e-08
8.01464e-09
4.99707e-08
-3.30986e-08
1.37705e-08
-4.12376e-08
-1.6996e-08
-1.90446e-08
5.80249e-09
-1.41691e-07
1.21314e-07
-4.79985e-08
1.22658e-07
1.01139e-07
1.67805e-08
2.10524e-07
-1.1647e-07
1.89563e-07
-2.05217e-07
3.94329e-08
-1.85579e-07
-1.56056e-07
-4.86939e-08
-2.74897e-07
1.37398e-07
-2.32612e-07
2.61502e-07
-4.10619e-08
2.38685e-07
1.91165e-07
6.90326e-08
3.21576e-07
-1.54652e-07
2.62806e-07
-2.9884e-07
4.11201e-08
-2.70868e-07
-2.14714e-07
-7.91184e-08
-3.50014e-07
1.67479e-07
-2.79457e-07
3.22743e-07
-4.11796e-08
2.91603e-07
2.2456e-07
8.88967e-08
3.59822e-07
-1.6786e-07
2.84345e-07
-3.28193e-07
4.34785e-08
-2.98318e-07
-2.20086e-07
-9.65349e-08
-3.52557e-07
1.58642e-07
-2.80072e-07
3.19532e-07
-4.97722e-08
2.96054e-07
2.01605e-07
1.06319e-07
3.30387e-07
-1.37209e-07
2.68855e-07
-2.95648e-07
6.03097e-08
-2.83744e-07
-1.71544e-07
-1.15559e-07
-2.9702e-07
1.08572e-07
-2.534e-07
2.62782e-07
-7.50576e-08
2.66885e-07
1.32565e-07
1.27374e-07
2.55994e-07
-7.20405e-08
2.35563e-07
-2.21245e-07
9.27156e-08
-2.44559e-07
-8.85811e-08
-1.38163e-07
-2.11396e-07
3.36914e-08
-2.17121e-07
1.77614e-07
-1.11729e-07
2.21549e-07
4.32697e-08
1.49731e-07
1.66577e-07
6.07268e-09
1.98837e-07
-1.32467e-07
1.29762e-07
-1.96526e-07
-6.45933e-10
-1.5805e-07
-1.24719e-07
-4.14507e-08
-1.81236e-07
9.12842e-08
-1.44631e-07
1.72836e-07
-3.61163e-08
1.63948e-07
8.78049e-08
7.19576e-08
1.63848e-07
-5.39986e-08
1.53787e-07
-1.48541e-07
6.39917e-08
-1.63587e-07
-5.762e-08
-9.29968e-08
-1.46464e-07
2.44755e-08
-1.55637e-07
1.25873e-07
-8.14099e-08
1.57773e-07
3.45179e-08
1.04994e-07