/*--------------------------------*- C++ -*----------------------------------*\
| =========                 |                                                 |
| \\      /  F ield         | OpenFOAM: The Open Source CFD Toolbox           |
|  \\    /   O peration     | Version:  2412                                  |
|   \\  /    A nd           | Website:  www.openfoam.com                      |
|    \\/     M anipulation  |                                                 |
\*---------------------------------------------------------------------------*/
FoamFile
{
    version     2.0;
    format      ascii;
    arch        "LSB;label=32;scalar=64";
    class       volScalarField;
    location    "8.45";
    object      p;
}
// * * * * * * * * * * * * * * * * * * * * * * * * * * * * * * * * * * * * * //

dimensions      [1 -1 -2 0 0 0 0];

internalField   nonuniform List<scalar> 
6400
(
13653.4
13653.5
13652.4
13650.1
13647
13643.2
13638.9
13634.4
13629.8
13625.3
13620.9
13616.9
13613.2
13610
13607.4
13605.5
13604.2
13603.8
13604.2
13605.6
13608.1
13611.6
13616.3
13622.1
13629.1
13637.2
13646.3
13656.3
13667.1
13678.4
13690.1
13701.8
13713.2
13724.1
13734.2
13743
13750.5
13756.2
13760.2
13762.1
13762.1
13760
13755.9
13750
13742.4
13733.4
13723.2
13712.2
13700.6
13688.8
13677
13665.6
13654.8
13644.7
13635.6
13627.6
13620.6
13614.9
13610.4
13606.9
13604.7
13603.4
13603.2
13603.8
13605.3
13607.5
13610.3
13613.7
13617.7
13622
13626.6
13631.4
13636.2
13641
13645.5
13649.5
13652.8
13655.2
13656.3
13656.5
12957.1
12957.2
12956.2
12954.2
12951.4
12948.1
12944.3
12940.3
12936.2
12932.1
12928.2
12924.6
12921.3
12918.5
12916.2
12914.5
12913.4
12913.1
12913.6
12914.9
12917.2
12920.5
12924.8
12930.1
12936.4
12943.6
12951.7
12960.6
12970.2
12980.1
12990.3
13000.6
13010.5
13020
13028.6
13036.3
13042.7
13047.7
13051.1
13052.7
13052.7
13050.8
13047.3
13042.2
13035.6
13027.8
13018.9
13009.3
12999.2
12988.9
12978.6
12968.6
12959
12950.1
12942
12934.8
12928.6
12923.4
12919.2
12916.1
12914
12912.8
12912.5
12913
12914.3
12916.3
12918.8
12921.9
12925.4
12929.3
12933.5
12937.8
12942.2
12946.4
12950.4
12954
12956.9
12959
12960
12960
12261.7
12261.6
12260.6
12258.8
12256.3
12253.4
12250
12246.5
12242.8
12239.2
12235.8
12232.5
12229.6
12227.1
12225.1
12223.6
12222.7
12222.5
12223
12224.2
12226.3
12229.3
12233.1
12237.8
12243.4
12249.7
12256.8
12264.5
12272.8
12281.3
12290.1
12298.8
12307.2
12315.3
12322.6
12329
12334.4
12338.6
12341.4
12342.8
12342.7
12341.2
12338.2
12333.8
12328.3
12321.7
12314.2
12306
12297.4
12288.6
12279.8
12271.2
12262.9
12255.2
12248.1
12241.8
12236.4
12231.8
12228.1
12225.3
12223.3
12222.2
12221.9
12222.3
12223.5
12225.2
12227.5
12230.2
12233.4
12236.8
12240.6
12244.4
12248.3
12252.1
12255.6
12258.8
12261.5
12263.4
12264.4
12264.5
11567.4
11567.1
11566
11564.2
11561.8
11559
11555.9
11552.6
11549.3
11546
11542.8
11539.9
11537.2
11535
11533.1
11531.7
11530.9
11530.7
11531.2
11532.3
11534.2
11536.9
11540.3
11544.4
11549.3
11554.9
11561.1
11567.9
11575
11582.4
11590
11597.5
11604.7
11611.6
11617.9
11623.4
11627.9
11631.5
11633.8
11635
11634.9
11633.6
11631
11627.3
11622.6
11616.9
11610.5
11603.5
11596.1
11588.5
11580.9
11573.4
11566.2
11559.5
11553.3
11547.8
11543
11538.9
11535.7
11533.2
11531.5
11530.5
11530.2
11530.6
11531.7
11533.2
11535.3
11537.8
11540.7
11543.9
11547.3
11550.9
11554.4
11557.9
11561.2
11564.2
11566.8
11568.7
11569.9
11570.2
10874.2
10873.6
10872.2
10870.2
10867.8
10865
10862
10858.9
10855.7
10852.6
10849.7
10846.9
10844.4
10842.3
10840.5
10839.3
10838.5
10838.2
10838.6
10839.6
10841.3
10843.6
10846.6
10850.2
10854.5
10859.4
10864.9
10870.7
10877
10883.4
10890
10896.4
10902.7
10908.6
10914
10918.7
10922.6
10925.6
10927.6
10928.6
10928.5
10927.4
10925.2
10922
10917.9
10913.1
10907.5
10901.5
10895.1
10888.5
10881.9
10875.4
10869.1
10863.3
10857.9
10853
10848.8
10845.3
10842.4
10840.3
10838.8
10838
10837.8
10838.2
10839.2
10840.7
10842.7
10845
10847.7
10850.7
10853.9
10857.3
10860.7
10864
10867.2
10870.1
10872.7
10874.8
10876.3
10877
10181.9
10180.8
10179
10176.7
10174.1
10171.3
10168.3
10165.2
10162.1
10159.1
10156.3
10153.6
10151.3
10149.2
10147.5
10146.3
10145.5
10145.2
10145.4
10146.2
10147.6
10149.6
10152.2
10155.4
10159.2
10163.4
10168.1
10173.3
10178.7
10184.3
10189.9
10195.6
10201
10206.1
10210.7
10214.7
10218.1
10220.7
10222.4
10223.2
10223.1
10222.2
10220.3
10217.5
10214
10209.8
10205
10199.8
10194.2
10188.5
10182.8
10177.1
10171.7
10166.6
10161.9
10157.7
10154
10151
10148.5
10146.7
10145.4
10144.8
10144.8
10145.3
10146.3
10147.7
10149.6
10151.9
10154.5
10157.4
10160.4
10163.7
10167
10170.2
10173.4
10176.5
10179.2
10181.5
10183.4
10184.6
9490.29
9488.59
9486.25
9483.64
9480.8
9477.8
9474.7
9471.58
9468.5
9465.54
9462.73
9460.14
9457.81
9455.79
9454.11
9452.83
9451.97
9451.57
9451.66
9452.26
9453.39
9455.06
9457.26
9459.99
9463.21
9466.89
9470.98
9475.42
9480.12
9484.99
9489.92
9494.81
9499.52
9503.95
9507.95
9511.44
9514.32
9516.52
9517.99
9518.69
9518.62
9517.76
9516.15
9513.79
9510.76
9507.11
9502.97
9498.4
9493.56
9488.56
9483.54
9478.6
9473.87
9469.43
9465.38
9461.75
9458.63
9456.02
9453.97
9452.46
9451.51
9451.09
9451.2
9451.8
9452.87
9454.35
9456.24
9458.47
9461.01
9463.82
9466.84
9470.02
9473.3
9476.61
9479.89
9483.07
9486.04
9488.76
9491.16
9492.9
8799.17
8796.86
8793.94
8790.89
8787.71
8784.45
8781.18
8777.94
8774.8
8771.8
8768.98
8766.39
8764.06
8762.02
8760.31
8758.97
8758.01
8757.48
8757.39
8757.76
8758.61
8759.93
8761.75
8764.03
8766.77
8769.91
8773.43
8777.26
8781.35
8785.59
8789.9
8794.17
8798.31
8802.17
8805.67
8808.7
8811.19
8813.07
8814.32
8814.92
8814.85
8814.12
8812.73
8810.72
8808.08
8804.91
8801.26
8797.27
8793
8788.63
8784.21
8779.91
8775.78
8771.94
8768.44
8765.36
8762.71
8760.55
8758.87
8757.71
8757.04
8756.86
8757.14
8757.88
8759.04
8760.59
8762.5
8764.74
8767.28
8770.07
8773.09
8776.29
8779.62
8783.04
8786.48
8789.89
8793.2
8796.36
8799.34
8801.68
8108.45
8105.49
8101.92
8098.35
8094.76
8091.18
8087.66
8084.26
8081
8077.92
8075.05
8072.42
8070.04
8067.95
8066.18
8064.73
8063.65
8062.95
8062.65
8062.77
8063.31
8064.3
8065.72
8067.58
8069.84
8072.5
8075.49
8078.8
8082.34
8086.05
8089.84
8093.63
8097.29
8100.72
8103.81
8106.47
8108.62
8110.23
8111.29
8111.79
8111.73
8111.12
8109.95
8108.21
8105.94
8103.14
8099.92
8096.35
8092.58
8088.67
8084.79
8080.99
8077.41
8074.08
8071.1
8068.49
8066.32
8064.57
8063.29
8062.46
8062.09
8062.15
8062.65
8063.55
8064.84
8066.48
8068.46
8070.74
8073.31
8076.13
8079.19
8082.45
8085.88
8089.46
8093.13
8096.85
8100.56
8104.23
8107.86
8110.85
7418.05
7414.38
7410.08
7405.92
7401.86
7397.9
7394.1
7390.48
7387.07
7383.88
7380.93
7378.23
7375.79
7373.62
7371.74
7370.17
7368.93
7368.03
7367.5
7367.34
7367.57
7368.2
7369.24
7370.66
7372.49
7374.66
7377.19
7380.01
7383.1
7386.35
7389.74
7393.13
7396.46
7399.56
7402.35
7404.7
7406.57
7407.94
7408.81
7409.22
7409.17
7408.68
7407.7
7406.25
7404.26
7401.79
7398.87
7395.65
7392.19
7388.7
7385.2
7381.87
7378.72
7375.88
7373.35
7371.21
7369.46
7368.14
7367.23
7366.76
7366.69
7367.04
7367.76
7368.86
7370.3
7372.07
7374.13
7376.49
7379.12
7382
7385.12
7388.48
7392.05
7395.81
7399.76
7403.85
7408.02
7412.27
7416.62
7420.33
6727.92
6723.45
6718.34
6713.51
6708.91
6704.53
6700.4
6696.55
6692.97
6689.66
6686.62
6683.84
6681.31
6679.04
6677.04
6675.32
6673.89
6672.77
6671.97
6671.52
6671.41
6671.67
6672.3
6673.31
6674.68
6676.42
6678.5
6680.9
6683.57
6686.49
6689.54
6692.68
6695.76
6698.68
6701.26
6703.39
6705
6706.13
6706.81
6707.12
6707.08
6706.7
6705.95
6704.75
6703.06
6700.82
6698.13
6695.08
6691.89
6688.62
6685.47
6682.46
6679.73
6677.28
6675.21
6673.49
6672.18
6671.26
6670.76
6670.64
6670.92
6671.55
6672.54
6673.85
6675.47
6677.38
6679.57
6682.01
6684.71
6687.66
6690.87
6694.32
6698.05
6702.03
6706.28
6710.78
6715.48
6720.39
6725.55
6730.04
6038.02
6032.64
6026.6
6021
6015.8
6010.95
6006.49
6002.4
5998.67
5995.25
5992.11
5989.25
5986.63
5984.26
5982.12
5980.23
5978.59
5977.22
5976.13
5975.34
5974.87
5974.73
5974.95
5975.51
5976.45
5977.75
5979.42
5981.42
5983.76
5986.37
5989.23
5992.2
5995.23
5998.07
6000.59
6002.55
6003.91
6004.75
6005.21
6005.4
6005.37
6005.14
6004.63
6003.75
6002.32
6000.29
5997.66
5994.7
5991.55
5988.46
5985.48
5982.79
5980.37
5978.33
5976.63
5975.36
5974.46
5973.99
5973.88
5974.16
5974.78
5975.74
5977.01
5978.57
5980.39
5982.47
5984.78
5987.32
5990.1
5993.12
5996.4
5999.96
6003.82
6008.03
6012.6
6017.54
6022.83
6028.5
6034.59
6039.99
5348.36
5341.89
5334.72
5328.25
5322.38
5317.06
5312.28
5307.98
5304.11
5300.61
5297.41
5294.48
5291.78
5289.3
5287.02
5284.94
5283.06
5281.41
5280
5278.85
5277.98
5277.42
5277.18
5277.3
5277.77
5278.64
5279.89
5281.54
5283.57
5285.98
5288.7
5291.7
5294.78
5297.81
5300.4
5302.29
5303.33
5303.78
5303.9
5303.91
5303.91
5303.88
5303.73
5303.23
5302.16
5300.21
5297.55
5294.42
5291.22
5288.09
5285.26
5282.73
5280.63
5278.91
5277.65
5276.78
5276.35
5276.29
5276.63
5277.31
5278.33
5279.64
5281.23
5283.05
5285.1
5287.36
5289.81
5292.45
5295.3
5298.37
5301.69
5305.32
5309.3
5313.7
5318.58
5323.99
5329.93
5336.47
5343.68
5350.17
4658.98
4651.12
4642.56
4635.06
4628.49
4622.7
4617.64
4613.19
4609.25
4605.72
4602.51
4599.55
4596.79
4594.2
4591.77
4589.48
4587.36
4585.39
4583.62
4582.06
4580.76
4579.72
4579.02
4578.64
4578.65
4579.05
4579.9
4581.18
4582.96
4585.19
4587.92
4591.04
4594.48
4597.9
4600.89
4602.77
4603.42
4603.26
4602.87
4602.61
4602.65
4602.95
4603.29
4603.4
4602.72
4600.83
4597.79
4594.28
4590.71
4587.47
4584.61
4582.28
4580.4
4579.06
4578.17
4577.77
4577.78
4578.22
4579.01
4580.16
4581.59
4583.3
4585.23
4587.36
4589.65
4592.1
4594.68
4597.42
4600.31
4603.4
4606.73
4610.37
4614.4
4618.94
4624.08
4629.94
4636.59
4644.14
4652.74
4660.63
3969.88
3960.15
3949.8
3941.12
3933.82
3927.64
3922.4
3917.92
3914.02
3910.55
3907.39
3904.45
3901.67
3899
3896.41
3893.91
3891.5
3889.2
3887.02
3885.02
3883.22
3881.69
3880.44
3879.55
3879.04
3878.97
3879.36
3880.31
3881.79
3883.93
3886.7
3890.17
3894.18
3898.48
3902.22
3904.34
3904.39
3903.42
3902.32
3901.67
3901.76
3902.51
3903.6
3904.52
3904.47
3902.36
3898.58
3894.16
3890.02
3886.41
3883.52
3881.26
3879.68
3878.66
3878.22
3878.26
3878.8
3879.73
3881.06
3882.69
3884.61
3886.74
3889.06
3891.51
3894.07
3896.72
3899.44
3902.24
3905.15
3908.2
3911.47
3915.03
3919.01
3923.57
3928.88
3935.12
3942.49
3951.22
3961.59
3971.35
3280.91
3268.67
3255.99
3245.95
3237.99
3231.57
3226.34
3222
3218.29
3215.01
3212.01
3209.16
3206.4
3203.67
3200.95
3198.23
3195.52
3192.84
3190.23
3187.74
3185.42
3183.31
3181.51
3180.03
3178.98
3178.37
3178.31
3178.82
3180.03
3181.99
3184.9
3188.79
3193.77
3199.46
3204.74
3207.26
3206.35
3203.92
3201.57
3200.09
3200.19
3201.82
3204.23
3206.74
3207.77
3205.31
3199.94
3194.08
3188.91
3184.85
3181.79
3179.7
3178.37
3177.78
3177.76
3178.34
3179.39
3180.91
3182.77
3184.96
3187.38
3189.99
3192.72
3195.53
3198.37
3201.22
3204.07
3206.92
3209.78
3212.73
3215.82
3219.18
3222.96
3227.36
3232.65
3239.13
3247.14
3257.2
3269.89
3282.18
2592.48
2576.8
2560.92
2549.37
2540.91
2534.52
2529.58
2525.62
2522.3
2519.35
2516.6
2513.92
2511.21
2508.44
2505.56
2502.59
2499.53
2496.41
2493.29
2490.23
2487.28
2484.55
2482.07
2479.96
2478.25
2477.08
2476.45
2476.51
2477.29
2479.05
2481.99
2486.51
2492.93
2501.56
2510.29
2513.44
2508.32
2500.65
2494.02
2490
2490
2494.04
2500.82
2508.8
2514.32
2511.37
2502.54
2493.67
2487
2482.25
2479.13
2477.21
2476.31
2476.15
2476.71
2477.82
2479.51
2481.62
2484.14
2486.93
2489.96
2493.11
2496.33
2499.55
2502.72
2505.8
2508.78
2511.65
2514.45
2517.21
2520.04
2523.04
2526.42
2530.42
2535.41
2541.84
2550.33
2561.88
2577.74
2593.52
1907.78
1885.39
1864.86
1851.86
1843.38
1837.53
1833.31
1830.06
1827.35
1824.88
1822.44
1819.92
1817.22
1814.29
1811.12
1807.71
1804.09
1800.29
1796.4
1792.49
1788.66
1784.98
1781.6
1778.58
1776.06
1774.09
1772.8
1772.22
1772.52
1773.88
1776.85
1782.14
1791.47
1807.1
1825.92
1830.63
1812.18
1790.3
1775.68
1768.05
1767.86
1775.17
1789.8
1812.09
1831.39
1827.32
1808.44
1792.47
1782.86
1777.36
1774.18
1772.66
1772.23
1772.74
1773.95
1775.87
1778.34
1781.34
1784.73
1788.43
1792.3
1796.28
1800.24
1804.12
1807.82
1811.32
1814.57
1817.57
1820.34
1822.93
1825.41
1827.94
1830.69
1833.96
1838.21
1844.08
1852.55
1865.53
1886.06
1908.62
1222.14
1184.46
1160.44
1148.52
1141.97
1138.05
1135.53
1133.67
1132.04
1130.38
1128.5
1126.31
1123.73
1120.73
1117.28
1113.42
1109.17
1104.62
1099.82
1094.92
1090
1085.24
1080.74
1076.67
1073.1
1070.22
1068.05
1066.72
1066.15
1066.61
1068.51
1073.24
1084.24
1109.09
1144.72
1156.71
1132.94
1120.61
1130.56
1140.28
1140.72
1131.48
1121.18
1132.72
1156.86
1145.71
1110.05
1084.68
1073.45
1068.62
1066.64
1066.11
1066.66
1067.97
1070.13
1072.99
1076.53
1080.58
1085.08
1089.85
1094.79
1099.73
1104.58
1109.19
1113.5
1117.42
1120.92
1123.98
1126.61
1128.85
1130.77
1132.47
1134.13
1136
1138.53
1142.45
1149.01
1160.95
1185.04
1222.91
459.237
424.252
413.959
412.083
412.278
413.232
414.376
415.419
416.231
416.747
416.929
416.743
416.17
415.19
413.801
412.002
409.821
407.285
404.457
401.391
398.183
394.899
391.649
388.479
385.483
382.645
380.005
377.506
375.324
373.344
371.632
370.531
372.512
383.965
406.116
446.99
560.789
725.453
859.843
916.955
919.063
866.162
734.395
567.927
450.274
407.438
384.869
372.812
370.565
371.587
373.269
375.215
377.333
379.764
382.369
385.215
388.231
391.429
394.707
398.028
401.273
404.382
407.252
409.832
412.055
413.895
415.322
416.339
416.945
417.161
417.006
416.513
415.719
414.691
413.557
412.613
412.433
414.351
424.749
459.896
3.21293
2.53693
5.40411
7.94406
10.0029
11.7335
13.2235
14.5351
15.715
16.7959
17.7988
18.7361
19.6129
20.429
21.1793
21.8567
22.4509
22.9524
23.3492
23.6321
23.7877
23.8055
23.6642
23.3407
22.7923
21.9658
20.7651
19.1548
17.3087
15.155
12.4727
8.98799
4.4716
-1.12512
-10.0652
33.5213
254.357
503.866
669.007
741.714
744.31
676.148
514.969
265.448
38.1484
-10.0705
-1.28373
4.36573
8.91656
12.4173
15.1086
17.2705
19.1171
20.7268
21.9364
22.7754
23.336
23.6701
23.8216
23.8128
23.666
23.3907
23.0011
22.5056
21.9167
21.2435
20.4968
19.6833
18.8085
17.8723
16.8699
15.7886
14.6075
13.2936
11.8003
10.0655
8.00139
5.4566
2.58965
3.27727
-10.5473
-10.5472
-10.5472
-10.5472
-10.5472
-10.5473
-10.5473
-10.5473
-10.5472
-10.5472
-10.5472
-10.5471
-10.5471
-10.547
-10.547
-10.547
-10.547
-10.547
-10.5472
-10.5475
-10.5481
-10.5491
-10.5507
-10.5534
-10.5571
-10.558
-10.5556
-10.5526
-10.5516
-10.5503
-10.5418
-10.5261
-10.5306
-10.5287
-10.5448
-10.5316
50.6764
281.083
475.985
544.455
546.372
482.183
291.918
55.5147
-10.5359
-10.5495
-10.5308
-10.5149
-10.4951
-10.5264
-10.5509
-10.5552
-10.5541
-10.5532
-10.5526
-10.551
-10.5487
-10.5463
-10.5446
-10.5438
-10.5435
-10.5433
-10.5433
-10.5434
-10.5435
-10.5437
-10.5438
-10.5439
-10.544
-10.5442
-10.5442
-10.5443
-10.5444
-10.5444
-10.5444
-10.5445
-10.5445
-10.5445
-10.5445
-10.5446
-11.0377
-11.0377
-11.0377
-11.0377
-11.0377
-11.0377
-11.0377
-11.0377
-11.0377
-11.0377
-11.0376
-11.0376
-11.0375
-11.0375
-11.0374
-11.0374
-11.0375
-11.0376
-11.0379
-11.0382
-11.0388
-11.0398
-11.0414
-11.0433
-11.0449
-11.0457
-11.0451
-11.0429
-11.0415
-11.0428
-11.0438
-11.0394
-11.0391
-11.0446
-11.0506
-11.0697
3.03766
115.381
251.833
278.805
279.475
254.975
121.465
4.87654
-11.0774
-11.0595
-11.051
-11.0392
-11.0361
-11.0442
-11.0457
-11.0444
-11.0437
-11.0441
-11.044
-11.042
-11.0394
-11.0372
-11.0355
-11.0345
-11.0341
-11.0339
-11.0339
-11.0339
-11.034
-11.0341
-11.0342
-11.0344
-11.0345
-11.0346
-11.0347
-11.0347
-11.0348
-11.0349
-11.0349
-11.0349
-11.0349
-11.035
-11.035
-11.035
-11.5281
-11.5281
-11.5281
-11.5282
-11.5282
-11.5282
-11.5282
-11.5282
-11.5281
-11.5281
-11.5281
-11.528
-11.528
-11.5279
-11.5278
-11.5278
-11.5278
-11.5279
-11.528
-11.5284
-11.5291
-11.5302
-11.5322
-11.5352
-11.5385
-11.5385
-11.5369
-11.5351
-11.533
-11.5351
-11.5388
-11.5446
-11.5495
-11.548
-11.5428
-11.544
-11.5704
21.8261
151.88
190.054
189.864
153.962
25.1817
-11.5901
-11.5513
-11.5482
-11.5541
-11.5533
-11.5463
-11.5395
-11.5371
-11.5366
-11.5366
-11.5353
-11.5337
-11.5321
-11.5303
-11.5278
-11.5258
-11.5248
-11.5243
-11.5242
-11.5242
-11.5243
-11.5244
-11.5245
-11.5247
-11.5248
-11.5249
-11.525
-11.5251
-11.5252
-11.5253
-11.5253
-11.5254
-11.5254
-11.5254
-11.5254
-11.5254
-11.5254
-12.0186
-12.0186
-12.0186
-12.0186
-12.0186
-12.0186
-12.0186
-12.0186
-12.0186
-12.0186
-12.0185
-12.0185
-12.0184
-12.0183
-12.0182
-12.0182
-12.0182
-12.0182
-12.0184
-12.0187
-12.0191
-12.0201
-12.0223
-12.0252
-12.0278
-12.0297
-12.0291
-12.0286
-12.0298
-12.0325
-12.0378
-12.0392
-12.0357
-12.0293
-12.0249
-12.0265
-12.0253
-9.29396
47.7899
85.2751
85.7893
50.533
-8.4565
-12.0314
-12.0323
-12.0199
-12.0168
-12.0307
-12.0388
-12.0418
-12.0374
-12.0338
-12.0302
-12.0272
-12.0253
-12.0229
-12.0191
-12.0165
-12.0152
-12.0147
-12.0146
-12.0146
-12.0146
-12.0147
-12.0149
-12.015
-12.0151
-12.0153
-12.0154
-12.0155
-12.0156
-12.0157
-12.0157
-12.0158
-12.0158
-12.0159
-12.0159
-12.0159
-12.0159
-12.0159
-12.5091
-12.5091
-12.5091
-12.5091
-12.5091
-12.5091
-12.5091
-12.5091
-12.5091
-12.509
-12.509
-12.5089
-12.5088
-12.5087
-12.5087
-12.5086
-12.5085
-12.5085
-12.5085
-12.5085
-12.5087
-12.5093
-12.5113
-12.5144
-12.5168
-12.5179
-12.5174
-12.5197
-12.5276
-12.5289
-12.521
-12.5136
-12.5112
-12.5115
-12.5126
-12.5199
-12.528
-12.4708
-12.46
-12.4478
-12.4402
-12.4556
-12.4449
-12.5347
-12.5265
-12.5084
-12.5005
-12.5046
-12.518
-12.5348
-12.5433
-12.5374
-12.5239
-12.5169
-12.516
-12.5129
-12.5089
-12.5063
-12.5048
-12.5045
-12.5046
-12.5048
-12.505
-12.5052
-12.5053
-12.5055
-12.5056
-12.5058
-12.5059
-12.506
-12.5061
-12.5062
-12.5062
-12.5063
-12.5063
-12.5064
-12.5064
-12.5064
-12.5064
-12.5064
-12.9996
-12.9996
-12.9996
-12.9996
-12.9996
-12.9996
-12.9996
-12.9996
-12.9995
-12.9995
-12.9994
-12.9994
-12.9993
-12.9992
-12.9991
-12.999
-12.9988
-12.9987
-12.9986
-12.9985
-12.9984
-12.9985
-13.0002
-13.0033
-13.0061
-13.007
-13.008
-13.0112
-13.0185
-13.0222
-13.0195
-13.0166
-13.0164
-13.0182
-13.0219
-13.0282
-13.0375
-12.9645
-12.943
-12.9357
-12.938
-12.9297
-12.9582
-13.0221
-13.0102
-13.0012
-13.0051
-13.0151
-13.0262
-13.0315
-13.029
-13.0182
-13.0047
-13.0005
-13.0036
-13.0038
-13.0004
-12.9968
-12.995
-12.9949
-12.9951
-12.9953
-12.9955
-12.9957
-12.9959
-12.996
-12.9962
-12.9963
-12.9964
-12.9965
-12.9966
-12.9967
-12.9967
-12.9968
-12.9968
-12.9969
-12.9969
-12.9969
-12.9969
-12.9969
-13.49
-13.49
-13.49
-13.49
-13.4901
-13.4901
-13.49
-13.49
-13.49
-13.49
-13.4899
-13.4898
-13.4898
-13.4897
-13.4895
-13.4894
-13.4892
-13.4891
-13.4889
-13.4887
-13.4884
-13.4882
-13.4896
-13.4935
-13.4982
-13.5033
-13.5136
-13.5253
-13.5299
-13.5271
-13.5205
-13.5147
-13.5129
-13.5156
-13.5224
-13.5231
-13.4907
-13.4395
-13.4321
-13.4305
-13.4303
-13.4414
-13.4662
-13.4907
-13.494
-13.4945
-13.5006
-13.5091
-13.5183
-13.5248
-13.5273
-13.5251
-13.5149
-13.5018
-13.4947
-13.4935
-13.4916
-13.4879
-13.486
-13.4858
-13.4858
-13.486
-13.4861
-13.4863
-13.4864
-13.4866
-13.4867
-13.4868
-13.487
-13.4871
-13.4871
-13.4872
-13.4873
-13.4873
-13.4873
-13.4874
-13.4874
-13.4874
-13.4874
-13.4874
-13.9805
-13.9805
-13.9805
-13.9805
-13.9805
-13.9805
-13.9805
-13.9805
-13.9805
-13.9805
-13.9804
-13.9803
-13.9802
-13.9801
-13.98
-13.9799
-13.9797
-13.9796
-13.9794
-13.9792
-13.979
-13.9788
-13.9798
-13.9845
-13.9917
-14.0007
-14.015
-14.0299
-14.0343
-14.0284
-14.0176
-14.0074
-14.001
-13.9981
-13.9974
-13.994
-13.9793
-13.9584
-13.9407
-13.934
-13.9377
-13.9506
-13.9666
-13.9823
-13.9926
-13.9967
-13.999
-14.003
-14.0109
-14.0216
-14.0302
-14.031
-14.02
-14.0013
-13.9896
-13.9859
-13.9829
-13.9792
-13.9774
-13.9769
-13.9768
-13.9768
-13.9769
-13.977
-13.9771
-13.9772
-13.9773
-13.9774
-13.9775
-13.9776
-13.9777
-13.9777
-13.9778
-13.9778
-13.9779
-13.9779
-13.9779
-13.9779
-13.9779
-13.9779
-14.471
-14.471
-14.471
-14.471
-14.471
-14.471
-14.471
-14.471
-14.471
-14.4709
-14.4709
-14.4708
-14.4708
-14.4707
-14.4705
-14.4704
-14.4703
-14.4701
-14.47
-14.4699
-14.4699
-14.4702
-14.4712
-14.4755
-14.4837
-14.4948
-14.5088
-14.5236
-14.5287
-14.5222
-14.5106
-14.4993
-14.4927
-14.4903
-14.4876
-14.482
-14.4727
-14.4627
-14.4524
-14.445
-14.4465
-14.4574
-14.4687
-14.4786
-14.4851
-14.4877
-14.489
-14.4932
-14.5019
-14.5137
-14.5238
-14.5258
-14.5152
-14.4961
-14.4832
-14.478
-14.4741
-14.4706
-14.4689
-14.4681
-14.4678
-14.4677
-14.4677
-14.4677
-14.4678
-14.4678
-14.4679
-14.468
-14.4681
-14.4682
-14.4682
-14.4683
-14.4683
-14.4684
-14.4684
-14.4684
-14.4684
-14.4685
-14.4685
-14.4685
-14.9615
-14.9615
-14.9615
-14.9615
-14.9615
-14.9615
-14.9615
-14.9615
-14.9615
-14.9614
-14.9614
-14.9614
-14.9613
-14.9612
-14.9611
-14.961
-14.9609
-14.9608
-14.9608
-14.9608
-14.9611
-14.9617
-14.9631
-14.9666
-14.9735
-14.9833
-14.9945
-15.0057
-15.01
-15.0057
-14.9962
-14.9873
-14.9816
-14.9789
-14.9775
-14.9759
-14.9717
-14.9648
-14.9564
-14.9491
-14.9483
-14.9547
-14.962
-14.9681
-14.9725
-14.9752
-14.9777
-14.9817
-14.9886
-14.9978
-15.0055
-15.0067
-14.9986
-14.9846
-14.9743
-14.9687
-14.9647
-14.9618
-14.9602
-14.9593
-14.9588
-14.9586
-14.9585
-14.9585
-14.9585
-14.9585
-14.9586
-14.9586
-14.9587
-14.9587
-14.9588
-14.9588
-14.9589
-14.9589
-14.9589
-14.959
-14.959
-14.959
-14.959
-14.959
-15.4519
-15.4519
-15.452
-15.452
-15.452
-15.452
-15.452
-15.452
-15.452
-15.4519
-15.4519
-15.4519
-15.4518
-15.4518
-15.4517
-15.4516
-15.4516
-15.4516
-15.4516
-15.4518
-15.4522
-15.4529
-15.4545
-15.4573
-15.4621
-15.4687
-15.476
-15.4829
-15.4861
-15.4847
-15.4798
-15.4742
-15.4699
-15.4674
-15.4661
-15.4646
-15.4621
-15.4576
-15.4516
-15.4452
-15.443
-15.4459
-15.4504
-15.4549
-15.4588
-15.462
-15.465
-15.4687
-15.4735
-15.4789
-15.4826
-15.4822
-15.477
-15.4691
-15.4626
-15.4581
-15.4549
-15.4526
-15.4512
-15.4503
-15.4498
-15.4495
-15.4493
-15.4492
-15.4492
-15.4492
-15.4492
-15.4492
-15.4493
-15.4493
-15.4494
-15.4494
-15.4494
-15.4495
-15.4495
-15.4495
-15.4495
-15.4495
-15.4495
-15.4495
-15.9424
-15.9424
-15.9424
-15.9424
-15.9425
-15.9425
-15.9425
-15.9425
-15.9425
-15.9425
-15.9424
-15.9424
-15.9424
-15.9423
-15.9423
-15.9423
-15.9422
-15.9423
-15.9424
-15.9427
-15.9431
-15.9439
-15.9453
-15.9474
-15.9506
-15.9547
-15.9592
-15.9633
-15.9657
-15.9658
-15.9637
-15.9608
-15.958
-15.9558
-15.9538
-15.9519
-15.9494
-15.9456
-15.9409
-15.9366
-15.9341
-15.9348
-15.9381
-15.942
-15.946
-15.9494
-15.9523
-15.9552
-15.9582
-15.9611
-15.9625
-15.9615
-15.9583
-15.9541
-15.9503
-15.9473
-15.9449
-15.9432
-15.942
-15.9412
-15.9407
-15.9403
-15.9401
-15.94
-15.9399
-15.9399
-15.9399
-15.9399
-15.9399
-15.9399
-15.9399
-15.94
-15.94
-15.94
-15.94
-15.94
-15.9401
-15.9401
-15.9401
-15.9401
-16.4329
-16.4329
-16.4329
-16.4329
-16.4329
-16.4329
-16.433
-16.433
-16.433
-16.433
-16.433
-16.4329
-16.4329
-16.4329
-16.4329
-16.4329
-16.4329
-16.433
-16.4332
-16.4334
-16.4339
-16.4347
-16.4358
-16.4375
-16.4397
-16.4424
-16.4453
-16.4479
-16.4497
-16.4501
-16.4492
-16.4476
-16.4457
-16.4437
-16.4417
-16.4393
-16.4365
-16.4332
-16.4294
-16.4262
-16.4241
-16.4241
-16.4268
-16.4304
-16.4341
-16.4373
-16.4399
-16.4422
-16.4443
-16.4458
-16.4464
-16.4457
-16.4437
-16.4412
-16.4388
-16.4367
-16.435
-16.4337
-16.4327
-16.432
-16.4314
-16.4311
-16.4308
-16.4307
-16.4306
-16.4305
-16.4305
-16.4305
-16.4305
-16.4305
-16.4305
-16.4305
-16.4306
-16.4306
-16.4306
-16.4306
-16.4306
-16.4306
-16.4306
-16.4306
-16.9234
-16.9234
-16.9234
-16.9234
-16.9234
-16.9234
-16.9234
-16.9235
-16.9235
-16.9235
-16.9235
-16.9235
-16.9235
-16.9235
-16.9235
-16.9235
-16.9236
-16.9237
-16.9238
-16.9241
-16.9246
-16.9253
-16.9262
-16.9275
-16.9291
-16.931
-16.933
-16.9347
-16.9359
-16.9363
-16.9359
-16.9349
-16.9335
-16.9318
-16.9299
-16.9277
-16.9249
-16.9218
-16.9185
-16.916
-16.9144
-16.9142
-16.9164
-16.9197
-16.9229
-16.9257
-16.9279
-16.9298
-16.9313
-16.9324
-16.9327
-16.9323
-16.9311
-16.9295
-16.9279
-16.9264
-16.9251
-16.9241
-16.9233
-16.9226
-16.9221
-16.9218
-16.9215
-16.9214
-16.9213
-16.9212
-16.9211
-16.9211
-16.9211
-16.9211
-16.9211
-16.9211
-16.9211
-16.9211
-16.9211
-16.9211
-16.9211
-16.9211
-16.9211
-16.9211
-17.4139
-17.4139
-17.4139
-17.4139
-17.4139
-17.4139
-17.4139
-17.414
-17.414
-17.414
-17.414
-17.414
-17.414
-17.414
-17.414
-17.4141
-17.4142
-17.4143
-17.4145
-17.4148
-17.4152
-17.4158
-17.4165
-17.4175
-17.4187
-17.42
-17.4214
-17.4226
-17.4233
-17.4237
-17.4234
-17.4227
-17.4216
-17.4202
-17.4185
-17.4165
-17.4141
-17.4113
-17.4085
-17.4063
-17.4051
-17.4049
-17.4068
-17.4096
-17.4123
-17.4146
-17.4165
-17.418
-17.4192
-17.42
-17.4203
-17.4201
-17.4194
-17.4184
-17.4173
-17.4162
-17.4153
-17.4144
-17.4137
-17.4132
-17.4128
-17.4124
-17.4122
-17.412
-17.4119
-17.4118
-17.4118
-17.4117
-17.4117
-17.4117
-17.4117
-17.4117
-17.4117
-17.4117
-17.4117
-17.4117
-17.4117
-17.4117
-17.4117
-17.4117
-17.9044
-17.9044
-17.9044
-17.9044
-17.9044
-17.9044
-17.9044
-17.9044
-17.9045
-17.9045
-17.9045
-17.9045
-17.9045
-17.9046
-17.9046
-17.9047
-17.9047
-17.9049
-17.9051
-17.9053
-17.9057
-17.9062
-17.9068
-17.9075
-17.9084
-17.9093
-17.9103
-17.9111
-17.9116
-17.9118
-17.9116
-17.911
-17.9101
-17.9089
-17.9075
-17.9058
-17.9037
-17.9014
-17.899
-17.8971
-17.8962
-17.896
-17.8976
-17.8999
-17.9021
-17.904
-17.9055
-17.9068
-17.9078
-17.9084
-17.9087
-17.9086
-17.9082
-17.9076
-17.9068
-17.9061
-17.9054
-17.9047
-17.9042
-17.9037
-17.9033
-17.903
-17.9028
-17.9027
-17.9025
-17.9024
-17.9024
-17.9023
-17.9023
-17.9023
-17.9023
-17.9023
-17.9022
-17.9022
-17.9022
-17.9022
-17.9022
-17.9022
-17.9022
-17.9022
-18.3949
-18.3949
-18.3949
-18.3949
-18.3949
-18.3949
-18.3949
-18.3949
-18.395
-18.395
-18.395
-18.395
-18.3951
-18.3951
-18.3951
-18.3952
-18.3953
-18.3954
-18.3956
-18.3958
-18.3961
-18.3965
-18.397
-18.3976
-18.3982
-18.3989
-18.3995
-18.4
-18.4003
-18.4004
-18.4002
-18.3997
-18.399
-18.398
-18.3968
-18.3954
-18.3937
-18.3917
-18.3897
-18.3882
-18.3874
-18.3873
-18.3886
-18.3904
-18.3922
-18.3937
-18.395
-18.396
-18.3968
-18.3974
-18.3977
-18.3977
-18.3975
-18.3971
-18.3966
-18.396
-18.3955
-18.395
-18.3946
-18.3942
-18.3939
-18.3936
-18.3934
-18.3932
-18.3931
-18.393
-18.393
-18.3929
-18.3929
-18.3928
-18.3928
-18.3928
-18.3928
-18.3928
-18.3928
-18.3928
-18.3928
-18.3928
-18.3928
-18.3928
-18.8853
-18.8853
-18.8854
-18.8854
-18.8854
-18.8854
-18.8854
-18.8854
-18.8855
-18.8855
-18.8855
-18.8855
-18.8856
-18.8856
-18.8857
-18.8857
-18.8858
-18.8859
-18.8861
-18.8863
-18.8865
-18.8869
-18.8872
-18.8876
-18.8881
-18.8886
-18.889
-18.8893
-18.8895
-18.8895
-18.8893
-18.8888
-18.8882
-18.8874
-18.8864
-18.8853
-18.8839
-18.8823
-18.8806
-18.8793
-18.8787
-18.8786
-18.8796
-18.8811
-18.8825
-18.8837
-18.8848
-18.8856
-18.8863
-18.8868
-18.8871
-18.8871
-18.887
-18.8868
-18.8864
-18.8861
-18.8857
-18.8853
-18.8849
-18.8846
-18.8844
-18.8842
-18.884
-18.8838
-18.8837
-18.8836
-18.8835
-18.8835
-18.8834
-18.8834
-18.8834
-18.8834
-18.8834
-18.8834
-18.8834
-18.8833
-18.8833
-18.8833
-18.8833
-18.8833
-19.3758
-19.3758
-19.3758
-19.3759
-19.3759
-19.3759
-19.3759
-19.3759
-19.3759
-19.376
-19.376
-19.376
-19.3761
-19.3761
-19.3762
-19.3762
-19.3763
-19.3764
-19.3766
-19.3767
-19.3769
-19.3772
-19.3775
-19.3778
-19.3781
-19.3784
-19.3787
-19.3789
-19.3789
-19.3789
-19.3787
-19.3783
-19.3777
-19.377
-19.3762
-19.3753
-19.3742
-19.3729
-19.3716
-19.3705
-19.3699
-19.3698
-19.3707
-19.3718
-19.373
-19.3739
-19.3748
-19.3755
-19.376
-19.3765
-19.3767
-19.3768
-19.3768
-19.3767
-19.3764
-19.3762
-19.3759
-19.3756
-19.3753
-19.3751
-19.3749
-19.3747
-19.3745
-19.3744
-19.3743
-19.3742
-19.3741
-19.3741
-19.374
-19.374
-19.374
-19.3739
-19.3739
-19.3739
-19.3739
-19.3739
-19.3739
-19.3739
-19.3739
-19.3739
-19.8663
-19.8663
-19.8663
-19.8663
-19.8664
-19.8664
-19.8664
-19.8664
-19.8664
-19.8664
-19.8665
-19.8665
-19.8665
-19.8666
-19.8667
-19.8667
-19.8668
-19.8669
-19.867
-19.8672
-19.8673
-19.8675
-19.8677
-19.8679
-19.8681
-19.8683
-19.8685
-19.8686
-19.8686
-19.8685
-19.8683
-19.8679
-19.8675
-19.8669
-19.8662
-19.8655
-19.8646
-19.8636
-19.8625
-19.8616
-19.8611
-19.8611
-19.8617
-19.8626
-19.8635
-19.8643
-19.865
-19.8655
-19.866
-19.8664
-19.8666
-19.8667
-19.8667
-19.8667
-19.8665
-19.8663
-19.8661
-19.8659
-19.8657
-19.8655
-19.8653
-19.8652
-19.865
-19.8649
-19.8648
-19.8647
-19.8647
-19.8646
-19.8646
-19.8645
-19.8645
-19.8645
-19.8645
-19.8645
-19.8645
-19.8644
-19.8644
-19.8644
-19.8644
-19.8644
-20.3568
-20.3568
-20.3568
-20.3568
-20.3568
-20.3568
-20.3569
-20.3569
-20.3569
-20.3569
-20.357
-20.357
-20.357
-20.3571
-20.3571
-20.3572
-20.3573
-20.3573
-20.3574
-20.3576
-20.3577
-20.3578
-20.358
-20.3581
-20.3583
-20.3584
-20.3585
-20.3585
-20.3585
-20.3583
-20.3581
-20.3578
-20.3574
-20.3569
-20.3564
-20.3558
-20.3551
-20.3542
-20.3534
-20.3526
-20.3523
-20.3523
-20.3528
-20.3535
-20.3542
-20.3548
-20.3553
-20.3557
-20.3561
-20.3564
-20.3566
-20.3568
-20.3568
-20.3568
-20.3567
-20.3566
-20.3564
-20.3563
-20.3561
-20.3559
-20.3558
-20.3557
-20.3555
-20.3554
-20.3553
-20.3553
-20.3552
-20.3552
-20.3551
-20.3551
-20.3551
-20.355
-20.355
-20.355
-20.355
-20.355
-20.355
-20.355
-20.355
-20.355
-20.8473
-20.8473
-20.8473
-20.8473
-20.8473
-20.8473
-20.8473
-20.8474
-20.8474
-20.8474
-20.8474
-20.8475
-20.8475
-20.8475
-20.8476
-20.8476
-20.8477
-20.8478
-20.8479
-20.848
-20.8481
-20.8482
-20.8483
-20.8484
-20.8485
-20.8485
-20.8486
-20.8485
-20.8485
-20.8483
-20.8481
-20.8478
-20.8475
-20.8471
-20.8466
-20.8461
-20.8456
-20.8449
-20.8442
-20.8436
-20.8435
-20.8436
-20.8438
-20.8443
-20.8448
-20.8453
-20.8457
-20.846
-20.8463
-20.8466
-20.8468
-20.8469
-20.847
-20.847
-20.8469
-20.8468
-20.8467
-20.8466
-20.8465
-20.8464
-20.8462
-20.8461
-20.846
-20.8459
-20.8459
-20.8458
-20.8458
-20.8457
-20.8457
-20.8456
-20.8456
-20.8456
-20.8456
-20.8456
-20.8455
-20.8455
-20.8455
-20.8455
-20.8455
-20.8455
-21.3378
-21.3378
-21.3378
-21.3378
-21.3378
-21.3378
-21.3378
-21.3378
-21.3379
-21.3379
-21.3379
-21.3379
-21.338
-21.338
-21.338
-21.3381
-21.3381
-21.3382
-21.3383
-21.3383
-21.3384
-21.3385
-21.3386
-21.3386
-21.3387
-21.3387
-21.3387
-21.3387
-21.3386
-21.3384
-21.3382
-21.338