/*--------------------------------*- C++ -*----------------------------------*\
| =========                 |                                                 |
| \\      /  F ield         | OpenFOAM: The Open Source CFD Toolbox           |
|  \\    /   O peration     | Version:  2412                                  |
|   \\  /    A nd           | Website:  www.openfoam.com                      |
|    \\/     M anipulation  |                                                 |
\*---------------------------------------------------------------------------*/
FoamFile
{
    version     2.0;
    format      ascii;
    arch        "LSB;label=32;scalar=64";
    class       volScalarField;
    location    "7.7";
    object      p;
}
// * * * * * * * * * * * * * * * * * * * * * * * * * * * * * * * * * * * * * //

dimensions      [1 -1 -2 0 0 0 0];

internalField   nonuniform List<scalar> 
6400
(
13672.7
13672.2
13670.3
13666.9
13662.5
13657.5
13652
13646.4
13640.8
13635.3
13630.1
13625.2
13620.8
13616.7
13613.1
13610.1
13607.8
13606.2
13605.5
13605.7
13607.2
13609.9
13614.1
13619.9
13627.5
13636.8
13648
13660.9
13675.4
13691.4
13708.4
13726.1
13743.9
13761.3
13777.8
13792.6
13805.3
13815.4
13822.4
13826
13826.1
13822.7
13815.9
13806.1
13793.5
13778.8
13762.4
13745
13727.1
13709.4
13692.3
13676.2
13661.6
13648.5
13637.3
13627.8
13620.2
13614.3
13610
13607.2
13605.7
13605.4
13606.1
13607.7
13610
13613
13616.6
13620.6
13625.1
13629.9
13635.1
13640.5
13646.1
13651.7
13657.1
13662.2
13666.6
13669.9
13671.8
13672.3
12976.7
12976.1
12974.4
12971.5
12967.6
12963.1
12958.3
12953.2
12948.1
12943.2
12938.4
12933.9
12929.8
12926.1
12922.8
12920.1
12918.1
12916.7
12916.2
12916.6
12918
12920.7
12924.7
12930.1
12937
12945.5
12955.5
12967
12979.8
12993.8
13008.7
13024
13039.4
13054.4
13068.5
13081.2
13092.1
13100.6
13106.6
13109.6
13109.7
13106.8
13101.1
13092.7
13082
13069.4
13055.4
13040.4
13025
13009.6
12994.7
12980.6
12967.7
12956
12945.9
12937.4
12930.4
12924.9
12920.8
12918.1
12916.6
12916.1
12916.6
12918
12920
12922.7
12925.9
12929.6
12933.8
12938.2
12943
12947.9
12952.9
12958
12962.8
12967.3
12971.1
12974.1
12975.8
12976.3
12282
12281.3
12279.6
12276.9
12273.4
12269.4
12265
12260.4
12255.9
12251.3
12247
12242.9
12239.1
12235.7
12232.8
12230.3
12228.5
12227.3
12226.9
12227.4
12228.8
12231.3
12234.9
12239.8
12246
12253.5
12262.4
12272.4
12283.5
12295.6
12308.3
12321.3
12334.3
12347
12358.8
12369.4
12378.5
12385.6
12390.5
12393.1
12393.2
12390.8
12386
12379
12370.1
12359.6
12347.8
12335.2
12322.2
12309.1
12296.4
12284.3
12273
12262.9
12254
12246.4
12240.1
12235.1
12231.4
12228.9
12227.4
12226.9
12227.3
12228.4
12230.2
12232.7
12235.6
12239
12242.8
12246.8
12251.2
12255.6
12260.2
12264.7
12269.1
12273.1
12276.5
12279.2
12280.9
12281.7
11588.8
11587.7
11585.7
11583
11579.6
11575.9
11571.8
11567.5
11563.3
11559.1
11555
11551.2
11547.7
11544.5
11541.8
11539.5
11537.8
11536.7
11536.3
11536.7
11538
11540.2
11543.5
11547.9
11553.3
11560
11567.7
11576.5
11586.2
11596.7
11607.6
11618.9
11630
11640.9
11651
11660
11667.7
11673.8
11677.9
11680.1
11680.2
11678.2
11674.1
11668.2
11660.7
11651.7
11641.7
11630.8
11619.7
11608.4
11597.4
11586.9
11577.1
11568.3
11560.4
11553.7
11548.1
11543.7
11540.4
11538.1
11536.8
11536.3
11536.7
11537.8
11539.5
11541.7
11544.4
11547.6
11551.1
11554.9
11558.9
11563.1
11567.3
11571.5
11575.6
11579.3
11582.7
11585.4
11587.3
11588.5
10896.6
10895
10892.6
10889.7
10886.3
10882.6
10878.6
10874.6
10870.6
10866.6
10862.8
10859.2
10855.8
10852.8
10850.2
10848
10846.4
10845.3
10844.8
10845.1
10846.1
10848
10850.8
10854.6
10859.4
10865.2
10872
10879.6
10888.1
10897.2
10906.8
10916.5
10926.2
10935.6
10944.3
10952.1
10958.8
10964
10967.6
10969.4
10969.5
10967.8
10964.3
10959.2
10952.7
10945
10936.3
10927
10917.3
10907.5
10897.9
10888.8
10880.2
10872.5
10865.7
10859.8
10854.9
10851.1
10848.2
10846.2
10845.1
10844.8
10845.3
10846.3
10848
10850.1
10852.7
10855.7
10859.1
10862.6
10866.4
10870.4
10874.4
10878.4
10882.3
10886
10889.4
10892.3
10894.6
10896.3
10205.1
10202.9
10200
10196.8
10193.2
10189.5
10185.6
10181.7
10177.7
10173.9
10170.3
10166.8
10163.6
10160.7
10158.2
10156
10154.3
10153.2
10152.6
10152.6
10153.3
10154.9
10157.2
10160.4
10164.5
10169.5
10175.3
10182
10189.4
10197.3
10205.6
10214.2
10222.7
10230.9
10238.5
10245.3
10251.1
10255.6
10258.8
10260.4
10260.5
10258.9
10255.9
10251.5
10245.8
10239.1
10231.5
10223.3
10214.9
10206.3
10198
10190
10182.6
10175.8
10169.9
10164.9
10160.7
10157.4
10155
10153.5
10152.7
10152.6
10153.2
10154.3
10156
10158.1
10160.6
10163.5
10166.7
10170.1
10173.8
10177.6
10181.5
10185.4
10189.3
10193
10196.5
10199.7
10202.6
10204.9
9514.11
9511.21
9507.76
9504.17
9500.41
9496.53
9492.59
9488.66
9484.81
9481.08
9477.52
9474.17
9471.05
9468.21
9465.69
9463.52
9461.76
9460.44
9459.64
9459.4
9459.79
9460.87
9462.68
9465.27
9468.68
9472.89
9477.9
9483.63
9490.05
9496.98
9504.32
9511.83
9519.35
9526.59
9533.37
9539.41
9544.53
9548.55
9551.32
9552.76
9552.81
9551.5
9548.81
9544.92
9539.87
9533.93
9527.2
9520.01
9512.49
9504.99
9497.62
9490.66
9484.18
9478.4
9473.31
9469.05
9465.58
9462.94
9461.07
9459.95
9459.51
9459.71
9460.48
9461.76
9463.5
9465.65
9468.15
9470.98
9474.08
9477.42
9480.97
9484.68
9488.52
9492.42
9496.35
9500.22
9503.96
9507.54
9510.99
9513.89
8823.35
8819.81
8815.76
8811.73
8807.67
8803.58
8799.53
8795.56
8791.72
8788.04
8784.54
8781.24
8778.17
8775.36
8772.81
8770.58
8768.69
8767.19
8766.12
8765.55
8765.53
8766.12
8767.36
8769.33
8772.02
8775.48
8779.67
8784.6
8790.14
8796.25
8802.72
8809.46
8816.19
8822.76
8828.87
8834.36
8838.98
8842.61
8845.12
8846.41
8846.48
8845.27
8842.89
8839.33
8834.82
8829.39
8823.36
8816.82
8810.13
8803.37
8796.89
8790.73
8785.15
8780.15
8775.91
8772.38
8769.64
8767.62
8766.33
8765.69
8765.68
8766.2
8767.23
8768.7
8770.56
8772.78
8775.3
8778.11
8781.16
8784.45
8787.94
8791.61
8795.44
8799.4
8803.44
8807.51
8811.57
8815.58
8819.64
8823.18
8132.72
8128.54
8123.85
8119.34
8114.92
8110.57
8106.36
8102.31
8098.44
8094.77
8091.31
8088.05
8085
8082.17
8079.58
8077.24
8075.18
8073.44
8072.07
8071.1
8070.62
8070.67
8071.31
8072.59
8074.59
8077.28
8080.72
8084.85
8089.67
8095.03
8100.87
8106.97
8113.19
8119.23
8124.95
8130.03
8134.35
8137.71
8140.02
8141.23
8141.27
8140.2
8137.96
8134.73
8130.48
8125.49
8119.82
8113.84
8107.62
8101.55
8095.67
8090.28
8085.4
8081.22
8077.7
8074.96
8072.91
8071.58
8070.88
8070.8
8071.24
8072.16
8073.5
8075.21
8077.23
8079.55
8082.13
8084.94
8087.98
8091.23
8094.69
8098.35
8102.21
8106.25
8110.46
8114.8
8119.22
8123.72
8128.42
8132.61
7442.17
7437.31
7431.94
7426.89
7422.05
7417.4
7412.99
7408.83
7404.93
7401.26
7397.83
7394.6
7391.56
7388.72
7386.05
7383.58
7381.32
7379.3
7377.56
7376.16
7375.14
7374.6
7374.57
7375.15
7376.37
7378.33
7380.99
7384.43
7388.54
7393.35
7398.64
7404.36
7410.2
7416.03
7421.5
7426.43
7430.54
7433.76
7435.95
7437.08
7437.17
7436.12
7434.07
7430.93
7426.93
7422.05
7416.67
7410.86
7405.07
7399.33
7394.04
7389.18
7385.02
7381.5
7378.78
7376.76
7375.48
7374.84
7374.82
7375.32
7376.3
7377.65
7379.36
7381.34
7383.58
7386.03
7388.68
7391.51
7394.54
7397.76
7401.19
7404.85
7408.75
7412.91
7417.32
7421.96
7426.8
7431.86
7437.24
7442.1
6751.65
6746.06
6739.93
6734.26
6728.95
6723.97
6719.34
6715.08
6711.14
6707.49
6704.1
6700.91
6697.9
6695.03
6692.29
6689.66
6687.17
6684.83
6682.69
6680.77
6679.18
6677.96
6677.21
6677
6677.45
6678.58
6680.52
6683.22
6686.78
6691.04
6696.02
6701.46
6707.26
6713.02
6718.56
6723.46
6727.59
6730.73
6732.86
6733.98
6734.03
6733.09
6731.04
6728.05
6723.99
6719.19
6713.68
6707.98
6702.18
6696.76
6691.74
6687.45
6683.82
6681.07
6679.04
6677.85
6677.33
6677.49
6678.18
6679.36
6680.91
6682.79
6684.9
6687.21
6689.67
6692.27
6695
6697.85
6700.86
6704.04
6707.44
6711.08
6715.02
6719.29
6723.91
6728.89
6734.21
6739.88
6746.03
6751.63
6061.2
6054.73
6047.71
6041.33
6035.49
6030.15
6025.32
6020.96
6017.03
6013.44
6010.12
6007.01
6004.05
6001.17
5998.36
5995.58
5992.84
5990.15
5987.53
5985.07
5982.79
5980.84
5979.26
5978.21
5977.76
5978.07
5979.18
5981.23
5984.16
5988.09
5992.8
5998.29
6004.17
6010.28
6016.06
6021.27
6025.47
6028.66
6030.77
6031.83
6031.94
6030.98
6029.07
6025.97
6021.91
6016.75
6011.04
6004.92
5999.06
5993.53
5988.81
5984.82
5981.84
5979.7
5978.54
5978.14
5978.53
5979.52
5981.05
5982.96
5985.2
5987.63
5990.22
5992.88
5995.6
5998.36
6001.16
6004.02
6006.98
6010.09
6013.4
6016.99
6020.93
6025.29
6030.13
6035.47
6041.32
6047.71
6054.76
6061.23
5370.86
5363.31
5355.17
5347.95
5341.51
5335.8
5330.78
5326.4
5322.53
5319.07
5315.9
5312.93
5310.06
5307.22
5304.35
5301.42
5298.42
5295.33
5292.21
5289.1
5286.09
5283.26
5280.78
5278.73
5277.33
5276.66
5276.95
5278.21
5280.67
5284.2
5288.94
5294.55
5300.99
5307.65
5314.19
5319.85
5324.38
5327.59
5329.69
5330.74
5330.81
5329.99
5328.05
5325.06
5320.63
5315.1
5308.55
5301.9
5295.38
5289.72
5284.9
5281.32
5278.78
5277.45
5277.07
5277.69
5279.01
5281.02
5283.45
5286.24
5289.22
5292.31
5295.4
5298.47
5301.45
5304.37
5307.22
5310.05
5312.92
5315.89
5319.06
5322.53
5326.4
5330.79
5335.82
5341.54
5347.99
5355.22
5363.38
5370.94
4680.73
4671.72
4662.14
4653.89
4646.79
4640.73
4635.6
4631.28
4627.59
4624.36
4621.43
4618.68
4615.98
4613.24
4610.35
4607.29
4604
4600.51
4596.81
4592.98
4589.1
4585.31
4581.74
4578.6
4576.03
4574.32
4573.57
4574.1
4575.91
4579.27
4584
4590.2
4597.4
4605.32
4612.93
4619.56
4624.4
4627.72
4629.73
4630.72
4630.87
4630.08
4628.41
4625.3
4620.71
4614.15
4606.58
4598.55
4591.27
4584.9
4580.06
4576.57
4574.68
4574.05
4574.72
4576.35
4578.86
4581.94
4585.49
4589.23
4593.09
4596.89
4600.57
4604.06
4607.33
4610.38
4613.25
4616
4618.7
4621.45
4624.37
4627.61
4631.31
4635.65
4640.78
4646.86
4653.97
4662.23
4671.83
4680.86
3990.85
3979.79
3968.3
3958.81
3951.03
3944.68
3939.58
3935.46
3932.1
3929.25
3926.71
3924.31
3921.88
3919.3
3916.46
3913.28
3909.73
3905.78
3901.46
3896.82
3891.97
3887.04
3882.25
3877.75
3873.9
3870.85
3869.01
3868.51
3869.76
3872.76
3877.83
3884.68
3893.36
3902.98
3912.64
3920.53
3926
3929.23
3931.16
3932.08
3932.23
3931.74
3930.15
3927.31
3922.06
3914.35
3904.66
3894.98
3886.09
3879.05
3873.77
3870.61
3869.19
3869.58
3871.29
3874.25
3878.02
3882.45
3887.19
3892.09
3896.91
3901.53
3905.83
3909.77
3913.31
3916.48
3919.31
3921.9
3924.33
3926.74
3929.28
3932.13
3935.51
3939.63
3944.75
3951.1
3958.89
3968.39
3979.91
3991
3301.07
3287.17
3273.11
3262.19
3253.78
3247.33
3242.46
3238.79
3235.98
3233.71
3231.73
3229.83
3227.8
3225.49
3222.78
3219.56
3215.75
3211.36
3206.35
3200.83
3194.87
3188.67
3182.41
3176.41
3170.93
3166.4
3163.08
3161.49
3161.82
3164.58
3169.79
3177.81
3188.23
3200.76
3213.24
3223.36
3229.1
3231.94
3233.24
3233.8
3234.07
3233.93
3233.13
3230.58
3225.18
3215.19
3202.77
3190.12
3179.54
3171.27
3165.86
3162.86
3162.36
3163.76
3166.94
3171.32
3176.71
3182.61
3188.82
3194.97
3200.9
3206.4
3211.39
3215.77
3219.57
3222.78
3225.5
3227.81
3229.84
3231.75
3233.73
3236.01
3238.83
3242.51
3247.38
3253.84
3262.25
3273.19
3287.29
3301.25
2612
2594.03
2576.36
2563.8
2554.98
2548.78
2544.51
2541.63
2539.68
2538.26
2537.08
2535.86
2534.4
2532.5
2530.01
2526.79
2522.76
2517.87
2512.12
2505.55
2498.3
2490.53
2482.54
2474.6
2467.19
2460.64
2455.56
2452.3
2451.55
2453.58
2459.11
2468.22
2481.57
2498.5
2516.64
2529.53
2533.27
2531.54
2529.23
2527.76
2528.02
2530.08
2532.65
2534.68
2531.22
2518.59
2500.4
2483.35
2469.8
2460.52
2454.76
2452.54
2453.09
2456.2
2461.12
2467.55
2474.85
2482.71
2490.63
2498.37
2505.58
2512.14
2517.88
2522.78
2526.8
2530.02
2532.52
2534.43
2535.9
2537.12
2538.31
2539.73
2541.7
2544.58
2548.85
2555.06
2563.89
2576.48
2594.24
2612.27
1927.47
1901.34
1878.24
1864.15
1855.53
1850.25
1847.22
1845.69
1845.06
1844.89
1844.82
1844.57
1843.88
1842.52
1840.3
1837.07
1832.69
1827.08
1820.22
1812.17
1803.01
1793.01
1782.42
1771.73
1761.33
1751.93
1744.01
1738.4
1735.62
1736.63
1741.94
1752.88
1770.7
1797.64
1828.35
1847.45
1841.13
1825.26
1813.88
1808.72
1809.22
1814.98
1826.47
1842.31
1849.35
1830.71
1799.78
1772.24
1754.05
1742.84
1737.33
1736.1
1738.75
1744.22
1752.07
1761.4
1771.75
1782.4
1792.98
1802.98
1812.15
1820.22
1827.11
1832.73
1837.13
1840.38
1842.61
1843.99
1844.69
1844.96
1845.03
1845.21
1845.85
1847.39
1850.42
1855.72
1864.37
1878.52
1901.73
1927.95
1241.75
1196.91
1169.42
1156.5
1150.12
1147.26
1146.57
1147.19
1148.5
1150.06
1151.53
1152.61
1153.02
1152.5
1150.84
1147.81
1143.26
1137.04
1129.09
1119.42
1108.17
1095.53
1081.91
1067.74
1053.76
1040.56
1029.13
1020.14
1014.75
1013.62
1018.15
1029.66
1052.87
1093.97
1146.79
1182.38
1180.51
1172.88
1181.72
1191.07
1192.59
1185.54
1176.89
1184.01
1186.6
1151.76
1098.12
1055.43
1031.18
1019.09
1014.1
1014.91
1020.04
1028.92
1040.29
1053.48
1067.48
1081.69
1095.35
1108.05
1119.35
1129.08
1137.07
1143.34
1147.93
1150.99
1152.68
1153.22
1152.83
1151.77
1150.31
1148.75
1147.45
1146.85
1147.55
1150.44
1156.86
1169.86
1197.48
1242.46
464.639
422.416
409.079
406.015
405.863
407.163
409.279
411.828
414.575
417.343
419.972
422.305
424.179
425.431
425.889
425.389
423.763
420.879
416.608
410.914
403.776
395.342
385.767
375.47
364.806
354.483
344.966
337.147
331.402
328.711
329.405
334.897
348.127
376.806
412.409
475.277
619.766
802.441
942.643
1001.8
1005.14
952.136
815.522
630.863
481.56
415.898
379.801
349.885
335.994
330.114
329.206
331.697
337.321
345.014
354.481
364.753
375.412
385.7
395.296
403.745
410.913
416.63
420.929
423.835
425.484
425.999
425.556
424.313
422.447
420.119
417.492
414.724
411.976
409.425
407.307
406.009
406.167
409.247
422.624
464.966
-2.39002
-3.20629
-1.37835
0.210128
1.51893
2.6782
3.75613
4.79682
5.83168
6.88133
7.95677
9.06043
10.1869
11.3226
12.4467
13.5298
14.5364
15.4234
16.1459
16.6551
16.9108
16.8768
16.5427
15.9085
15.0179
13.9158
12.6931
11.3967
10.0758
8.70388
7.44962
6.0644
4.47729
2.70056
-1.877
53.4259
298.232
576.847
759.536
840.668
844.029
769.232
591.406
312.451
59.34
-2.00196
2.76133
4.53215
6.11433
7.49871
8.73579
10.1108
11.4311
12.7267
13.9445
15.0475
15.9394
16.5789
16.9173
16.9572
16.7059
16.201
15.4814
14.5965
13.5909
12.5081
11.3835
10.2467
9.11866
8.01311
6.93552
5.88355
4.84619
3.80288
2.72209
1.55977
0.247634
-1.34499
-3.17796
-2.35266
-10.5524
-10.5525
-10.5525
-10.5526
-10.5527
-10.5528
-10.5529
-10.553
-10.5532
-10.5533
-10.5535
-10.5536
-10.5538
-10.554
-10.5542
-10.5543
-10.5545
-10.5546
-10.5548
-10.555
-10.5553
-10.5557
-10.5565
-10.5576
-10.5603
-10.5646
-10.5679
-10.5648
-10.5585
-10.5559
-10.5515
-10.5298
-10.4932
-10.5367
-10.4804
8.52665
71.5447
324.188
559.445
645.496
648.044
567.594
337.816
77.8239
9.60608
-10.4604
-10.5181
-10.465
-10.4974
-10.5261
-10.5464
-10.5465
-10.5476
-10.5499
-10.5492
-10.547
-10.545
-10.5439
-10.5435
-10.5433
-10.5433
-10.5433
-10.5434
-10.5435
-10.5436
-10.5436
-10.5436
-10.5436
-10.5436
-10.5436
-10.5435
-10.5435
-10.5435
-10.5434
-10.5434
-10.5434
-10.5434
-10.5434
-10.5434
-10.5432
-11.0431
-11.0431
-11.0431
-11.0432
-11.0433
-11.0433
-11.0435
-11.0436
-11.0437
-11.0438
-11.044
-11.0441
-11.0443
-11.0444
-11.0446
-11.0448
-11.0449
-11.0451
-11.0452
-11.0454
-11.0457
-11.0461
-11.0469
-11.0483
-11.0505
-11.0528
-11.0539
-11.0528
-11.0483
-11.0443
-11.0445
-11.0446
-11.0402
-11.0563
-11.0831
-11.1117
6.62139
145.455
310.718
343.125
343.787
315.087
153.464
8.94659
-11.1177
-11.0817
-11.0491
-11.0283
-11.0325
-11.0327
-11.0316
-11.0348
-11.0382
-11.0396
-11.0384
-11.0368
-11.0353
-11.0343
-11.0338
-11.0336
-11.0337
-11.0337
-11.0338
-11.0339
-11.034
-11.034
-11.034
-11.034
-11.034
-11.034
-11.034
-11.034
-11.034
-11.034
-11.034
-11.034
-11.0339
-11.0339
-11.0339
-11.034
-11.5335
-11.5335
-11.5336
-11.5336
-11.5337
-11.5338
-11.5339
-11.534
-11.5341
-11.5342
-11.5344
-11.5345
-11.5347
-11.5348
-11.5349
-11.5351
-11.5352
-11.5353
-11.5354
-11.5356
-11.5358
-11.5362
-11.5371
-11.5387
-11.542
-11.5462
-11.5482
-11.5459
-11.5417
-11.5375
-11.5419
-11.55
-11.5633
-11.5752
-11.5686
-11.5677
-11.6508
44.1431
205.026
241.522
241.994
209.482
49.478
-11.6645
-11.5633
-11.5662
-11.5727
-11.5574
-11.5393
-11.5294
-11.5287
-11.5294
-11.5294
-11.5301
-11.5299
-11.5281
-11.5259
-11.5246
-11.524
-11.5238
-11.5238
-11.5239
-11.5241
-11.5242
-11.5243
-11.5243
-11.5244
-11.5244
-11.5244
-11.5244
-11.5244
-11.5244
-11.5244
-11.5244
-11.5244
-11.5244
-11.5244
-11.5244
-11.5244
-11.5243
-12.024
-12.024
-12.024
-12.0241
-12.0242
-12.0242
-12.0243
-12.0244
-12.0246
-12.0247
-12.0248
-12.0249
-12.0251
-12.0252
-12.0253
-12.0254
-12.0255
-12.0257
-12.0258
-12.0259
-12.0262
-12.0266
-12.027
-12.0284
-12.0315
-12.0359
-12.0392
-12.039
-12.0389
-12.0431
-12.0493
-12.0547
-12.0549
-12.0473
-12.0329
-12.0347
-12.0371
-6.18927
74.8317
122.139
123.27
78.9834
-4.54601
-12.0339
-12.026
-12.0222
-12.0412
-12.0491
-12.0505
-12.0472
-12.039
-12.0271
-12.0223
-12.0212
-12.0194
-12.0167
-12.0149
-12.0143
-12.0142
-12.0142
-12.0143
-12.0144
-12.0145
-12.0146
-12.0147
-12.0148
-12.0148
-12.0149
-12.0149
-12.0149
-12.0149
-12.0149
-12.0149
-12.0149
-12.0149
-12.0149
-12.0149
-12.0149
-12.0149
-12.0149
-12.5145
-12.5145
-12.5145
-12.5146
-12.5146
-12.5147
-12.5148
-12.5149
-12.515
-12.5151
-12.5152
-12.5154
-12.5155
-12.5156
-12.5157
-12.5158
-12.5159
-12.516
-12.516
-12.516
-12.516
-12.516
-12.5162
-12.5169
-12.5194
-12.524
-12.5276
-12.5291
-12.5337
-12.5445
-12.5398
-12.5203
-12.5091
-12.5121
-12.5149
-12.5214
-12.5061
-12.2871
-9.82238
1.59097
2.06897
-8.47641
-12.3091
-12.5283
-12.5129
-12.4998
-12.4973
-12.4958
-12.5141
-12.5372
-12.5393
-12.5251
-12.5186
-12.515
-12.5108
-12.5067
-12.5045
-12.504
-12.5041
-12.5044
-12.5046
-12.5048
-12.505
-12.5051
-12.5052
-12.5053
-12.5053
-12.5054
-12.5054
-12.5054
-12.5054
-12.5054
-12.5054
-12.5054
-12.5054
-12.5054
-12.5054
-12.5054
-12.5054
-12.5054
-13.0049
-13.0049
-13.005
-13.005
-13.0051
-13.0052
-13.0052
-13.0053
-13.0054
-13.0056
-13.0057
-13.0058
-13.0059
-13.006
-13.0061
-13.0062
-13.0063
-13.0063
-13.0063
-13.0063
-13.0062
-13.0061
-13.0059
-13.0059
-13.0082
-13.0142
-13.02
-13.0222
-13.0257
-13.0333
-13.0355
-13.0271
-13.0224
-13.0228
-13.0319
-13.0562
-13.1021
-13.0836
-12.9175
-12.8719
-12.8591
-12.9122
-13.0249
-13.0294
-13.0225
-13.0175
-13.0113
-13.01
-13.0155
-13.0164
-13.0065
-13.0059
-13.0105
-13.0099
-13.0039
-12.998
-12.9951
-12.9947
-12.9947
-12.9949
-12.9951
-12.9953
-12.9955
-12.9956
-12.9957
-12.9958
-12.9958
-12.9959
-12.9959
-12.9959
-12.9959
-12.9959
-12.9959
-12.9959
-12.9959
-12.9959
-12.9959
-12.9959
-12.9959
-12.9959
-13.4954
-13.4954
-13.4954
-13.4955
-13.4955
-13.4956
-13.4957
-13.4958
-13.4959
-13.496
-13.4961
-13.4962
-13.4963
-13.4964
-13.4965
-13.4966
-13.4967
-13.4967
-13.4967
-13.4967
-13.4966
-13.4965
-13.4963
-13.4963
-13.4983
-13.5053
-13.5159
-13.5282
-13.5441
-13.5539
-13.5481
-13.5364
-13.5329
-13.5399
-13.5531
-13.5726
-13.5739
-13.399
-13.3757
-13.3825
-13.386
-13.4192
-13.4514
-13.4762
-13.5087
-13.5211
-13.5155
-13.5143
-13.522
-13.5303
-13.529
-13.5153
-13.504
-13.4999
-13.4952
-13.4894
-13.4865
-13.4859
-13.4857
-13.4858
-13.4859
-13.486
-13.4861
-13.4862
-13.4863
-13.4863
-13.4864
-13.4864
-13.4864
-13.4864
-13.4864
-13.4864
-13.4864
-13.4864
-13.4864
-13.4864
-13.4864
-13.4864
-13.4864
-13.4864
-13.9858
-13.9858
-13.9859
-13.9859
-13.986
-13.986
-13.9861
-13.9862
-13.9863
-13.9864
-13.9865
-13.9866
-13.9867
-13.9868
-13.9869
-13.987
-13.9871
-13.9872
-13.9872
-13.9872
-13.9872
-13.9873
-13.9875
-13.988
-13.9904
-13.9976
-14.0107
-14.0273
-14.0455
-14.0548
-14.0484
-14.0339
-14.0247
-14.0248
-14.0241
-14.0158
-13.9958
-13.9514
-13.9087
-13.8912
-13.8951
-13.9217
-13.9582
-13.9849
-14
-14.0057
-14.0081
-14.014
-14.0239
-14.0337
-14.0323
-14.0162
-14.0018
-13.9941
-13.9872
-13.9812
-13.9784
-13.9773
-13.9769
-13.9768
-13.9767
-13.9768
-13.9768
-13.9768
-13.9769
-13.9769
-13.9769
-13.9769
-13.9769
-13.977
-13.977
-13.977
-13.977
-13.977
-13.977
-13.977
-13.977
-13.977
-13.977
-13.977
-14.4763
-14.4763
-14.4763
-14.4763
-14.4764
-14.4765
-14.4765
-14.4766
-14.4767
-14.4768
-14.4769
-14.477
-14.4772
-14.4773
-14.4774
-14.4775
-14.4776
-14.4777
-14.4778
-14.4779
-14.4781
-14.4783
-14.4789
-14.4801
-14.4828
-14.4894
-14.5014
-14.5165
-14.5329
-14.5418
-14.5361
-14.5223
-14.5115
-14.5081
-14.5083
-14.5043
-14.4869
-14.4605
-14.4354
-14.4191
-14.4231
-14.447
-14.4727
-14.4894
-14.4968
-14.4996
-14.502
-14.5073
-14.516
-14.5244
-14.5226
-14.5083
-14.4952
-14.4861
-14.4784
-14.473
-14.4702
-14.4689
-14.4682
-14.4678
-14.4676
-14.4676
-14.4675
-14.4675
-14.4675
-14.4675
-14.4675
-14.4675
-14.4675
-14.4675
-14.4675
-14.4675
-14.4675
-14.4675
-14.4675
-14.4675
-14.4675
-14.4675
-14.4675
-14.4675
-14.9667
-14.9667
-14.9667
-14.9668
-14.9668
-14.9669
-14.967
-14.967
-14.9671
-14.9672
-14.9673
-14.9675
-14.9676
-14.9677
-14.9678
-14.9679
-14.9681
-14.9682
-14.9684
-14.9686
-14.9689
-14.9694
-14.9702
-14.9718
-14.9743
-14.9796
-14.9882
-14.999
-15.0102
-15.0163
-15.0143
-15.0067
-14.9996
-14.997
-14.9989
-15.0002
-14.9938
-14.9781
-14.9582
-14.9426
-14.9438
-14.9619
-14.98
-14.9907
-14.9932
-14.9911
-14.9907
-14.9933
-14.9981
-15.0013
-14.9997
-14.9914
-14.982
-14.9744
-14.9683
-14.9641
-14.9616
-14.9602
-14.9594
-14.9588
-14.9585
-14.9584
-14.9583
-14.9582
-14.9581
-14.9581
-14.9581
-14.9581
-14.958
-14.958
-14.958
-14.958
-14.958
-14.958
-14.958
-14.958
-14.958
-14.958
-14.958
-14.958
-15.4571
-15.4571
-15.4571
-15.4572
-15.4572
-15.4573
-15.4574
-15.4575
-15.4575
-15.4576
-15.4577
-15.4579
-15.458
-15.4581
-15.4582
-15.4584
-15.4585
-15.4587
-15.4589
-15.4592
-15.4596
-15.4603
-15.4612
-15.4627
-15.4651
-15.4688
-15.4743
-15.481
-15.4879
-15.4925
-15.4931
-15.4903
-15.4868
-15.4862
-15.4894
-15.4932
-15.4915
-15.4823
-15.4676
-15.4541
-15.4522
-15.4633
-15.4748
-15.4808
-15.481
-15.4787
-15.4778
-15.4788
-15.4804
-15.4805
-15.4778
-15.4725
-15.4668
-15.4618
-15.4577
-15.4547
-15.4526
-15.4513
-15.4504
-15.4498
-15.4494
-15.4492
-15.449
-15.4489
-15.4488
-15.4487
-15.4487
-15.4486
-15.4486
-15.4486
-15.4486
-15.4486
-15.4486
-15.4485
-15.4485
-15.4485
-15.4485
-15.4485
-15.4485
-15.4485
-15.9475
-15.9475
-15.9476
-15.9476
-15.9476
-15.9477
-15.9478
-15.9479
-15.9479
-15.948
-15.9481
-15.9483
-15.9484
-15.9485
-15.9486
-15.9488
-15.949
-15.9492
-15.9495
-15.9498
-15.9502
-15.9509
-15.9519
-15.9533
-15.9553
-15.9581
-15.9617
-15.9661
-15.9705
-15.9739
-15.9754
-15.9751
-15.9742
-15.9744
-15.9768
-15.9803
-15.9799
-15.9739
-15.963
-15.9516
-15.9477
-15.953
-15.9598
-15.9634
-15.964
-15.9635
-15.9635
-15.9639
-15.9641
-15.9631
-15.9608
-15.9572
-15.9535
-15.9502
-15.9473
-15.945
-15.9433
-15.9421
-15.9412
-15.9406
-15.9402
-15.9399
-15.9397
-15.9395
-15.9394
-15.9393
-15.9393
-15.9392
-15.9392
-15.9391
-15.9391
-15.9391
-15.9391
-15.9391
-15.9391
-15.9391
-15.9391
-15.9391
-15.9391
-15.9391
-16.4379
-16.4379
-16.438
-16.438
-16.438
-16.4381
-16.4382
-16.4382
-16.4383
-16.4384
-16.4385
-16.4386
-16.4388
-16.4389
-16.439
-16.4392
-16.4394
-16.4396
-16.4399
-16.4403
-16.4408
-16.4414
-16.4423
-16.4435
-16.4452
-16.4474
-16.45
-16.4531
-16.456
-16.4585
-16.4599
-16.4603
-16.4602
-16.4602
-16.4609
-16.4621
-16.4617
-16.4572
-16.4489
-16.4403
-16.4354
-16.4371
-16.4411
-16.4441
-16.446
-16.4473
-16.4484
-16.4491
-16.449
-16.4481
-16.4465
-16.4441
-16.4416
-16.4392
-16.437
-16.4352
-16.4338
-16.4328
-16.4319
-16.4314
-16.4309
-16.4306
-16.4303
-16.4302
-16.43
-16.4299
-16.4298
-16.4298
-16.4297
-16.4297
-16.4297
-16.4297
-16.4296
-16.4296
-16.4296
-16.4296
-16.4296
-16.4296
-16.4296
-16.4296
-16.9283
-16.9283
-16.9284
-16.9284
-16.9284
-16.9285
-16.9286
-16.9286
-16.9287
-16.9288
-16.9289
-16.929
-16.9291
-16.9293
-16.9294
-16.9296
-16.9298
-16.93
-16.9303
-16.9307
-16.9311
-16.9318
-16.9326
-16.9336
-16.9349
-16.9366
-16.9385
-16.9407
-16.9427
-16.9444
-16.9454
-16.9458
-16.9457
-16.9452
-16.9446
-16.9439
-16.9422
-16.9382
-16.9318
-16.9251
-16.9204
-16.9203
-16.9233
-16.9266
-16.9297
-16.932
-16.9337
-16.9346
-16.9348
-16.9344
-16.9333
-16.9318
-16.93
-16.9283
-16.9267
-16.9253
-16.9242
-16.9233
-16.9225
-16.922
-16.9216
-16.9212
-16.921
-16.9208
-16.9206
-16.9205
-16.9204
-16.9204
-16.9203
-16.9203
-16.9202
-16.9202
-16.9202
-16.9202
-16.9202
-16.9201
-16.9201
-16.9201
-16.9201
-16.9201
-17.4187
-17.4187
-17.4188
-17.4188
-17.4188
-17.4189
-17.4189
-17.419
-17.4191
-17.4192
-17.4193
-17.4194
-17.4195
-17.4196
-17.4198
-17.4199
-17.4201
-17.4204
-17.4206
-17.421
-17.4214
-17.422
-17.4226
-17.4235
-17.4246
-17.4258
-17.4272
-17.4286
-17.43
-17.4311
-17.4317
-17.4319
-17.4315
-17.4307
-17.4293
-17.4274
-17.4247
-17.4206
-17.4151
-17.4099
-17.4059
-17.4052
-17.4078
-17.4115
-17.4152
-17.4181
-17.42
-17.4211
-17.4216
-17.4215
-17.4209
-17.4199
-17.4187
-17.4175
-17.4164
-17.4153
-17.4144
-17.4136
-17.413
-17.4125
-17.4121
-17.4118
-17.4116
-17.4114
-17.4112
-17.4111
-17.411
-17.4109
-17.4109
-17.4108
-17.4108
-17.4107
-17.4107
-17.4107
-17.4107
-17.4107
-17.4107
-17.4107
-17.4107
-17.4107
-17.9091
-17.9091
-17.9092
-17.9092
-17.9092
-17.9093
-17.9093
-17.9094
-17.9095
-17.9095
-17.9096
-17.9097
-17.9098
-17.91
-17.9101
-17.9103
-17.9104
-17.9107
-17.9109
-17.9112
-17.9116
-17.9121
-17.9126
-17.9133
-17.9141
-17.915
-17.916
-17.917
-17.9178
-17.9184
-17.9187
-17.9186
-17.9179
-17.9167
-17.915
-17.9127
-17.9095
-17.9053
-17.9005
-17.8962
-17.893
-17.8924
-17.8948
-17.8986
-17.9023
-17.9052
-17.9072
-17.9085
-17.9091
-17.9093
-17.909
-17.9085
-17.9077
-17.9069
-17.9061
-17.9053
-17.9046
-17.904
-17.9034
-17.903
-17.9026
-17.9024
-17.9021
-17.9019
-17.9018
-17.9016
-17.9015
-17.9015
-17.9014
-17.9014
-17.9013
-17.9013
-17.9013
-17.9012
-17.9012
-17.9012
-17.9012
-17.9012
-17.9012
-17.9012
-18.3995
-18.3995
-18.3995
-18.3996
-18.3996
-18.3996
-18.3997
-18.3998
-18.3998
-18.3999
-18.4
-18.4001
-18.4002
-18.4003
-18.4004
-18.4006
-18.4007
-18.4009
-18.4011
-18.4014
-18.4017
-18.4021
-18.4026
-18.4031
-18.4037
-18.4043
-18.4049
-18.4055
-18.406
-18.4063
-18.4063
-18.4059
-18.4051
-18.4038
-18.4019
-18.3994
-18.3962
-18.3922
-18.388
-18.3843
-18.3817
-18.3813
-18.3836
-18.3871
-18.3906
-18.3933
-18.3952
-18.3965
-18.3973
-18.3976
-18.3976
-18.3974
-18.397
-18.3964
-18.3958
-18.3953
-18.3947
-18.3942
-18.3938
-18.3934
-18.3931
-18.3929
-18.3926
-18.3925
-18.3923
-18.3922
-18.3921
-18.392
-18.392
-18.3919
-18.3919
-18.3918
-18.3918
-18.3918
-18.3918
-18.3918
-18.3918
-18.3918
-18.3918
-18.3918
-18.8899
-18.8899
-18.8899
-18.8899
-18.89
-18.89
-18.8901
-18.8901
-18.8902
-18.8903
-18.8903
-18.8904
-18.8905
-18.8906
-18.8907
-18.8908
-18.891
-18.8912
-18.8913
-18.8916
-18.8918
-18.8921
-18.8925
-18.8928
-18.8932
-18.8937
-18.8941
-18.8944
-18.8946
-18.8946
-18.8944
-18.8938
-18.8929
-18.8915
-18.8897
-18.8873
-18.8843
-18.8807
-18.877
-18.8739
-18.8719
-18.8714
-18.8736
-18.8767
-18.8797
-18.8821
-18.8839
-18.8851
-18.886
-18.8865
-18.8866
-18.8866
-18.8864
-18.8861
-18.8857
-18.8853
-18.8849
-18.8845
-18.8841
-18.8838
-18.8836
-18.8833
-18.8831
-18.883
-18.8828
-18.8827
-18.8826
-18.8826
-18.8825
-18.8824
-18.8824
-18.8824
-18.8823
-18.8823
-18.8823
-18.8823
-18.8823
-18.8823
-18.8823
-18.8823
-19.3803
-19.3803
-19.3803
-19.3803
-19.3804
-19.3804
-19.3804
-19.3805
-19.3805
-19.3806
-19.3807
-19.3807
-19.3808
-19.3809
-19.381
-19.3811
-19.3812
-19.3814
-19.3815
-19.3817
-19.3819
-19.3821
-19.3824
-19.3826
-19.3829
-19.3831
-19.3833
-19.3834
-19.3834
-19.3833
-19.3829
-19.3822
-19.3812
-19.3799
-19.3782
-19.3761
-19.3734
-19.3702
-19.367
-19.3644
-19.3627
-19.3623
-19.3643
-19.3669
-19.3695
-19.3716
-19.3732
-19.3743
-19.3751
-19.3757
-19.376
-19.3761
-19.376
-19.3758
-19.3756
-19.3753
-19.375
-19.3747
-19.3745
-19.3742
-19.374
-19.3738
-19.3736
-19.3735
-19.3734
-19.3732
-19.3732
-19.3731
-19.373
-19.373
-19.3729
-19.3729
-19.3729
-19.3729
-19.3729
-19.3728
-19.3728
-19.3728
-19.3728
-19.3728
-19.8707
-19.8707
-19.8707
-19.8707
-19.8707
-19.8708
-19.8708
-19.8708
-19.8709
-19.8709
-19.871
-19.871
-19.8711
-19.8712
-19.8713
-19.8714
-19.8715
-19.8716
-19.8717
-19.8718
-19.872
-19.8721
-19.8723
-19.8724
-19.8726
-19.8727
-19.8727
-19.8727
-19.8725
-19.8722
-19.8717
-19.871
-19.8701
-19.8688
-19.8673
-19.8654
-19.8631
-19.8604
-19.8577
-19.8554
-19.8541
-19.8538
-19.8554
-19.8576
-19.8597
-19.8615
-19.8629
-19.8639
-19.8646
-19.8652
-19.8656
-19.8657
-19.8658
-19.8657
-19.8656
-19.8654
-19.8652
-19.865
-19.8648
-19.8646
-19.8644
-19.8643
-19.8641
-19.864
-19.8639
-19.8638
-19.8637
-19.8636
-19.8636
-19.8635
-19.8635
-19.8634
-19.8634
-19.8634
-19.8634
-19.8634
-19.8634
-19.8634
-19.8634
-19.8634
-20.361
-20.361
-20.361
-20.3611
-20.3611
-20.3611
-20.3611
-20.3612
-20.3612
-20.3613
-20.3613
-20.3614
-20.3614
-20.3615
-20.3615
-20.3616
-20.3617
-20.3618
-20.3618
-20.3619
-20.362
-20.3621
-20.3622
-20.3623
-20.3623
-20.3623
-20.3623
-20.3621
-20.3619
-20.3615
-20.3609
-20.3602
-20.3593
-20.3581
-20.3568
-20.3551
-20.3532
-20.3509
-20.3487
-20.3468
-20.3458
-20.3456
-20.3468
-20.3486
-20.3503
-20.3517
-20.3529
-20.3538
-20.3545
-20.355
-20.3554
-20.3556
-20.3557
-20.3557
-20.3557
-20.3556
-20.3554
-20.3553
-20.3551
-20.355
-20.3548
-20.3547
-20.3546
-20.3545
-20.3544
-20.3543
-20.3542
-20.3541
-20.3541
-20.354
-20.354
-20.354
-20.354
-20.3539
-20.3539
-20.3539
-20.3539
-20.3539
-20.3539
-20.3539
-20.8514
-20.8514
-20.8514
-20.8514
-20.8514
-20.8515
-20.8515
-20.8515
-20.8516
-20.8516
-20.8516
-20.8517
-20.8517
-20.8518
-20.8518
-20.8519
-20.8519
-20.852
-20.852
-20.8521
-20.8521
-20.8521
-20.8522
-20.8522
-20.8521
-20.8521
-20.8519
-20.8517
-20.8514
-20.851
-20.8504
-20.8497
-20.8488
-20.8477
-20.8465
-20.8452
-20.8435
-20.8417
-20.8398
-20.8383
-20.8376
-20.8376
-20.8385
-20.8398
-20.8411
-20.8422
-20.8431
-20.8439
-20.8445
-20.845
-20.8454
-20.8456
-20.8458
-20.8458
-20.8458
-20.8458
-20.8457
-20.8456
-20.8455
-20.8454
-20.8453
-20.8451
-20.845
-20.8449
-20.8449
-20.8448
-20.8447
-20.8447
-20.8446
-20.8446
-20.8445
-20.8445
-20.8445
-20.8445
-20.8445
-20.8444
-20.8444
-20.8444
-20.8444
-20.8444
-21.3418
-21.3418
-21.3418
-21.3418
-21.3418
-21.3418
-21.3418
-21.3419
-21.3419
-21.3419
-21.3419
-21.342
-21.342
-21.342
-21.3421
-21.3421
-21.3421
-21.3421
-21.3422
-21.3422
-21.3422
-21.3422
-21.3422
-21.3421
-21.342
-21.3419
-21.3417
-21.3414
-21.3411
-21.3406
-21.3401