/*--------------------------------*- C++ -*----------------------------------*\
| =========                 |                                                 |
| \\      /  F ield         | OpenFOAM: The Open Source CFD Toolbox           |
|  \\    /   O peration     | Version:  2412                                  |
|   \\  /    A nd           | Website:  www.openfoam.com                      |
|    \\/     M anipulation  |                                                 |
\*---------------------------------------------------------------------------*/
FoamFile
{
    version     2.0;
    format      ascii;
    arch        "LSB;label=32;scalar=64";
    class       surfaceScalarField;
    location    "0.25";
    object      alphaPhi0.glycerin;
}
// * * * * * * * * * * * * * * * * * * * * * * * * * * * * * * * * * * * * * //

dimensions      [0 3 -1 0 0 0 0];

oriented        oriented;

internalField   nonuniform List<scalar> 
12640
(
1.31763e-12
-1.29249e-12
1.8614e-12
-9.20949e-13
5.39236e-13
9.86372e-13
-3.20032e-12
3.38934e-12
-9.45105e-12
5.84996e-12
-1.80638e-11
8.20698e-12
-2.88449e-11
1.03612e-11
-4.15147e-11
1.22053e-11
-5.5655e-11
1.36452e-11
-7.07194e-11
1.45604e-11
-8.60865e-11
1.48645e-11
-1.0113e-10
1.45471e-11
-1.15142e-10
1.35251e-11
-1.27546e-10
1.19311e-11
-1.37801e-10
9.80362e-12
-1.4555e-10
7.32003e-12
-1.50597e-10
4.64263e-12
-1.52915e-10
1.93837e-12
-1.52638e-10
-6.35677e-13
-1.50034e-10
-2.94779e-12
-1.45463e-10
-4.90824e-12
-1.39334e-10
-6.46837e-12
-1.32063e-10
-7.62011e-12
-1.24045e-10
-8.38728e-12
-1.15616e-10
-8.82294e-12
-1.07044e-10
-8.99684e-12
-9.85215e-11
-8.97711e-12
-9.01783e-11
-8.82711e-12
-8.20803e-11
-8.60608e-12
-7.42435e-11
-8.3621e-12
-6.66504e-11
-8.12695e-12
-5.92644e-11
-7.91877e-12
-5.20403e-11
-7.74681e-12
-4.49309e-11
-7.61426e-12
-3.78926e-11
-7.5197e-12
-3.08902e-11
-7.45737e-12
-2.39008e-11
-7.41795e-12
-1.69142e-11
-7.39184e-12
-9.92749e-12
-7.37404e-12
-2.93813e-12
-7.36619e-12
4.06131e-12
-7.37407e-12
1.10842e-11
-7.40339e-12
1.81488e-11
-7.45793e-12
2.52786e-11
-7.54079e-12
3.25046e-11
-7.6571e-12
3.98692e-11
-7.81546e-12
4.74282e-11
-8.02723e-12
5.52503e-11
-8.30387e-12
6.3413e-11
-8.65376e-12
7.19963e-11
-9.08044e-12
8.10781e-11
-9.58362e-12
9.07317e-11
-1.01618e-11
1.01026e-10
-1.08135e-11
1.12021e-10
-1.15335e-11
1.23761e-10
-1.23057e-11
1.36257e-10
-1.30962e-11
1.49467e-10
-1.38495e-11
1.6328e-10
-1.4487e-11
1.77487e-10
-1.49046e-11
1.91753e-10
-1.49675e-11
2.05581e-10
-1.45102e-11
2.18287e-10
-1.33486e-11
2.29002e-10
-1.1305e-11
2.36704e-10
-8.2453e-12
2.40308e-10
-4.12261e-12
2.38801e-10
9.7528e-13
2.31408e-10
6.8088e-12
2.17773e-10
1.29763e-11
1.98092e-10
1.89596e-11
1.732e-10
2.41534e-11
1.44576e-10
2.79418e-11
1.14179e-10
2.98292e-11
8.41676e-11
2.95716e-11
5.65997e-11
2.71973e-11
3.32261e-11
2.29627e-11
1.52933e-11
1.73858e-11
3.42399e-12
1.11867e-11
-2.29051e-12
5.03347e-12
-2.47002e-12
-2.96211e-13
-2.68315e-12
1.88095e-13
-1.91167e-12
-2.46718e-12
9.41315e-13
-9.90104e-12
7.64313e-12
-2.28161e-11
1.55424e-11
-4.14017e-11
2.36204e-11
-6.54378e-11
3.13885e-11
-9.44672e-11
3.84953e-11
-1.27775e-10
4.45755e-11
-1.64328e-10
4.92476e-11
-2.02875e-10
5.21658e-11
-2.41946e-10
5.30132e-11
-2.79968e-10
5.16716e-11
-3.15357e-10
4.80461e-11
-3.46647e-10
4.23888e-11
-3.72627e-10
3.49915e-11
-3.92407e-10
2.63474e-11
-4.05493e-10
1.70115e-11
-4.11799e-10
7.55489e-12
-4.1162e-10
-1.48854e-12
-4.0556e-10
-9.67994e-12
-3.94452e-10
-1.67003e-11
-3.79261e-10
-2.23705e-11
-3.6098e-10
-2.66514e-11
-3.4055e-10
-2.96141e-11
-3.18803e-10
-3.14191e-11
-2.96417e-10
-3.2283e-11
-2.73903e-10
-3.24373e-11
-2.51608e-10
-3.21057e-11
-2.29729e-10
-3.14912e-11
-2.0835e-10
-3.07568e-11
-1.87467e-10
-3.00176e-11
-1.67027e-10
-2.93461e-11
-1.46945e-10
-2.87835e-11
-1.27124e-10
-2.83485e-11
-1.07473e-10
-2.8041e-11
-8.79122e-11
-2.7846e-11
-6.83843e-11
-2.77382e-11
-4.88508e-11
-2.76928e-11
-2.92853e-11
-2.76951e-11
-9.66387e-12
-2.77453e-11
1.0042e-11
-2.78532e-11
2.98707e-11
-2.80316e-11
4.98735e-11
-2.82936e-11
7.01184e-11
-2.86545e-11
9.06946e-11
-2.91361e-11
1.11717e-10
-2.97687e-11
1.33327e-10
-3.05886e-11
1.5569e-10
-3.16311e-11
1.7899e-10
-3.29226e-11
2.03413e-10
-3.44758e-11
2.29141e-10
-3.62907e-11
2.56344e-10
-3.83581e-11
2.85167e-10
-4.06577e-11
3.15717e-10
-4.31458e-11
3.48032e-10
-4.5737e-11
3.82048e-10
-4.82877e-11
4.17558e-10
-5.05863e-11
4.54159e-10
-5.23465e-11
4.91193e-10
-5.31974e-11
5.2768e-10
-5.26771e-11
5.62258e-10
-5.02444e-11
5.93156e-10
-4.53225e-11
6.18218e-10
-3.73757e-11
6.35008e-10
-2.60215e-11
6.41028e-10
-1.1171e-11
6.34034e-10
6.83736e-12
6.12415e-10
2.716e-11
5.75555e-10
4.84532e-11
5.2416e-10
6.89378e-11
4.60432e-10
8.65466e-11
3.87981e-10
9.9232e-11
3.11441e-10
1.05398e-10
2.35891e-10
1.04242e-10
1.66225e-10
9.59055e-11
1.06511e-10
8.14997e-11
5.95134e-11
6.29981e-11
2.65192e-11
4.28014e-11
7.3e-12
2.31794e-11
2.77493e-14
6.30941e-12
-3.23152e-12
-2.03891e-12
-2.20396e-13
-9.56849e-12
7.77558e-12
-2.41287e-11
2.14772e-11
-4.62255e-11
3.69215e-11
-7.59029e-11
5.25169e-11
-1.12778e-10
6.74574e-11
-1.56174e-10
8.10612e-11
-2.05074e-10
9.26205e-11
-2.58063e-10
1.01376e-10
-3.13425e-10
1.06677e-10
-3.69225e-10
1.07978e-10
-4.23314e-10
1.04938e-10
-4.73614e-10
9.7541e-11
-5.1816e-10
8.61475e-11
-5.55321e-10
7.13869e-11
-5.83904e-10
5.41835e-11
-6.03225e-10
3.56007e-11
-6.13114e-10
1.67234e-11
-6.13916e-10
-1.40258e-12
-6.06401e-10
-1.79122e-11
-5.91643e-10
-3.21843e-11
-5.70896e-10
-4.38589e-11
-5.45474e-10
-5.28332e-11
-5.1665e-10
-5.92219e-11
-4.85562e-10
-6.33149e-11
-4.53161e-10
-6.55156e-11
-4.20181e-10
-6.62699e-11
-3.8714e-10
-6.60155e-11
-3.54364e-10
-6.5146e-11
-3.22024e-10
-6.39808e-11
-2.90172e-10
-6.27524e-11
-2.58779e-10
-6.16151e-11
-2.27768e-10
-6.0661e-11
-1.97037e-10
-5.99342e-11
-1.66483e-10
-5.94409e-11
-1.36012e-10
-5.91576e-11
-1.05548e-10
-5.90438e-11
-7.50336e-11
-5.90577e-11
-4.44247e-11
-5.9172e-11
-1.36834e-11
-5.93804e-11
1.72319e-11
-5.96946e-11
4.83749e-11
-6.01371e-11
7.98188e-11
-6.07368e-11
1.11662e-10
-6.15303e-11
1.44031e-10
-6.25649e-11
1.77085e-10
-6.39002e-11
2.11012e-10
-6.56025e-11
2.4603e-10
-6.77336e-11
2.82367e-10
-7.03381e-11
3.20255e-10
-7.34352e-11
3.59917e-10
-7.70181e-11
4.01543e-10
-8.10551e-11
4.4528e-10
-8.54821e-11
4.91197e-10
-9.01818e-11
5.39257e-10
-9.49559e-11
5.89266e-10
-9.94988e-11
6.40823e-10
-1.03378e-10
6.93249e-10
-1.06017e-10
7.45505e-10
-1.06677e-10
7.96121e-10
-1.04458e-10
8.43132e-10
-9.83355e-11
8.84067e-10
-8.72423e-11
9.15998e-10
-7.02136e-11
9.35705e-10
-4.6601e-11
9.39971e-10
-1.6336e-11
9.25996e-10
1.98333e-11
8.91864e-10
6.0213e-11
8.37014e-10
1.02154e-10
7.62642e-10
1.42163e-10
6.71875e-10
1.76252e-10
5.69585e-10
2.00585e-10
4.619e-10
2.12219e-10
3.55559e-10
2.09651e-10
2.57049e-10
1.93256e-10
1.71687e-10
1.65413e-10
1.03116e-10
1.29958e-10
5.29915e-11
9.14342e-11
2.08502e-11
5.41546e-11
4.34011e-12
2.1725e-11
2.63854e-13
-4.39274e-12
3.80224e-12
-1.73078e-11
1.99469e-11
-3.91506e-11
4.25723e-11
-6.98901e-11
6.69478e-11
-1.09194e-10
9.10673e-11
-1.56369e-10
1.13888e-10
-2.10445e-10
1.344e-10
-2.70168e-10
1.51607e-10
-3.33951e-10
1.64437e-10
-3.99832e-10
1.71855e-10
-4.65703e-10
1.73162e-10
-5.29253e-10
1.67808e-10
-5.8824e-10
1.5585e-10
-6.40558e-10
1.37787e-10
-6.84445e-10
1.14587e-10
-7.18589e-10
8.76274e-11
-7.42225e-10
5.85208e-11
-7.55135e-10
2.88982e-11
-7.57626e-10
3.34468e-13
-7.50468e-10
-2.58388e-11
-7.34771e-10
-4.86621e-11
-7.1185e-10
-6.75673e-11
-6.83112e-10
-8.23611e-11
-6.49937e-10
-9.31861e-11
-6.13583e-10
-1.00455e-10
-5.75123e-10
-1.04755e-10
-5.35413e-10
-1.06752e-10
-4.95086e-10
-1.0711e-10
-4.5457e-10
-1.06425e-10
-4.14125e-10
-1.05188e-10
-3.73877e-10
-1.03764e-10
-3.33856e-10
-1.02406e-10
-2.94028e-10
-1.01269e-10
-2.54325e-10
-1.00433e-10
-2.14664e-10
-9.99164e-11
-1.74964e-10
-9.96951e-11
-1.35158e-10
-9.97155e-11
-9.51925e-11
-9.99195e-11
-5.50293e-11
-1.00265e-10
-1.46359e-11
-1.00738e-10
2.60242e-11
-1.01352e-10
6.70022e-11
-1.02141e-10
1.08372e-10
-1.03156e-10
1.50235e-10
-1.04458e-10
1.92725e-10
-1.06124e-10
2.36008e-10
-1.08245e-10
2.80278e-10
-1.10918e-10
3.25749e-10
-1.14225e-10
3.72643e-10
-1.18225e-10
4.21174e-10
-1.22931e-10
4.71532e-10
-1.28317e-10
5.23858e-10
-1.3431e-10
5.78223e-10
-1.40777e-10
6.34597e-10
-1.47499e-10
6.92814e-10
-1.5414e-10
7.52526e-10
-1.60204e-10
8.13141e-10
-1.65008e-10
8.73755e-10
-1.67648e-10
9.33067e-10
-1.66988e-10
9.89318e-10
-1.61668e-10
1.04024e-09
-1.50167e-10
1.08307e-09
-1.30927e-10
1.11459e-09
-1.02575e-10
1.13138e-09
-6.4248e-11
1.13009e-09
-1.59818e-11
1.10791e-09
4.09644e-11
1.06305e-09
1.03922e-10
9.95209e-10
1.68779e-10
9.0599e-10
2.30172e-10
7.99007e-10
2.82089e-10
6.79665e-10
3.18847e-10
5.54693e-10
3.36097e-10
4.31428e-10
3.31677e-10
3.16856e-10
3.06354e-10
2.16755e-10
2.63851e-10
1.35123e-10
2.09952e-10
7.37109e-11
1.51468e-10
3.20126e-11
9.46561e-11
7.91666e-12
4.44685e-11
7.30595e-12
-6.5851e-12
1.00241e-11
-2.4706e-11
3.73164e-11
-5.34234e-11
7.05401e-11
-9.18977e-11
1.04725e-10
-1.39211e-10
1.37657e-10
-1.94216e-10
1.68193e-10
-2.55638e-10
1.95141e-10
-3.21975e-10
2.17276e-10
-3.91562e-10
2.33373e-10
-4.62468e-10
2.42126e-10
-5.32633e-10
2.42696e-10
-5.99899e-10
2.34438e-10
-6.62166e-10
2.17464e-10
-7.17486e-10
1.9243e-10
-7.64215e-10
1.60609e-10
-8.01109e-10
1.23781e-10
-8.27403e-10
8.40395e-11
-8.42845e-10
4.35345e-11
-8.47659e-10
4.32118e-12
-8.42489e-10
-3.18471e-11
-8.28305e-10
-6.36837e-11
-8.06292e-10
-9.0406e-11
-7.7774e-10
-1.11716e-10
-7.43944e-10
-1.27757e-10
-7.06112e-10
-1.39031e-10
-6.65306e-10
-1.46276e-10
-6.22403e-10
-1.50346e-10
-5.78085e-10
-1.52103e-10
-5.32851e-10
-1.52329e-10
-4.8704e-10
-1.51674e-10
-4.40862e-10
-1.50637e-10
-3.94424e-10
-1.49567e-10
-3.47764e-10
-1.48689e-10
-3.00876e-10
-1.48126e-10
-2.53729e-10
-1.47919e-10
-2.06286e-10
-1.48045e-10
-1.58518e-10
-1.48441e-10
-1.10408e-10
-1.49035e-10
-6.19519e-11
-1.49772e-10
-1.31474e-11
-1.50631e-10
3.60119e-11
-1.51631e-10
8.55484e-11
-1.5282e-10
1.35508e-10
-1.5427e-10
1.85965e-10
-1.56071e-10
2.37023e-10
-1.58333e-10
2.88817e-10
-1.61173e-10
3.41499e-10
-1.64712e-10
3.95236e-10
-1.69048e-10
4.50189e-10
-1.74236e-10
5.06493e-10
-1.80273e-10
5.64243e-10
-1.87091e-10
6.23467e-10
-1.94554e-10
6.84103e-10
-2.0244e-10
7.45971e-10
-2.10414e-10
8.08748e-10
-2.17987e-10
8.71921e-10
-2.2447e-10
9.34737e-10
-2.28928e-10
9.96137e-10
-2.30149e-10
1.0547e-09
-2.26626e-10
1.10859e-09
-2.1659e-10
1.15553e-09
-1.98091e-10
1.19283e-09
-1.69157e-10
1.21745e-09
-1.28099e-10
1.22624e-09
-7.39422e-11
1.21623e-09
-6.91529e-12
1.18504e-09
7.11617e-11
1.13129e-09
1.56626e-10
1.0551e-09
2.43918e-10
9.58347e-10
3.25907e-10
8.44721e-10
3.94734e-10
7.19584e-10
4.43002e-10
5.89532e-10
4.65079e-10
4.61617e-10
4.58356e-10
3.42529e-10
4.24049e-10
2.37909e-10
3.67056e-10
1.51576e-10
2.95059e-10
8.5222e-11
2.16867e-10
3.84679e-11
1.40401e-10
9.93998e-12
7.16531e-11
1.66246e-11
-8.49659e-12
1.81305e-11
-3.12139e-11
5.92959e-11
-6.59755e-11
1.0457e-10
-1.10988e-10
1.49079e-10
-1.64622e-10
1.90628e-10
-2.25162e-10
2.28111e-10
-2.90997e-10
2.60386e-10
-3.60451e-10
2.86167e-10
-4.318e-10
3.04179e-10
-5.03315e-10
3.13105e-10
-5.73182e-10
3.1202e-10
-6.39632e-10
3.00323e-10
-7.00928e-10
2.78161e-10
-7.55495e-10
2.46356e-10
-8.01996e-10
2.06419e-10
-8.39401e-10
1.60442e-10
-8.6703e-10
1.10875e-10
-8.84604e-10
6.0273e-11
-8.92225e-10
1.10806e-11
-8.90328e-10
-3.46156e-11
-8.79615e-10
-7.5261e-11
-8.60987e-10
-1.09874e-10
-8.35467e-10
-1.3804e-10
-8.04115e-10
-1.59871e-10
-7.67956e-10
-1.75907e-10
-7.27927e-10
-1.86979e-10
-6.84844e-10
-1.94071e-10
-6.39377e-10
-1.98189e-10
-5.9206e-10
-2.00258e-10
-5.43294e-10
-2.01058e-10
-4.93369e-10
-2.01201e-10
-4.42482e-10
-2.01126e-10
-3.90759e-10
-2.01128e-10
-3.38275e-10
-2.01374e-10
-2.85077e-10
-2.01933e-10
-2.31201e-10
-2.02787e-10
-1.76686e-10
-2.03869e-10
-1.2158e-10
-2.05096e-10
-6.59375e-11
-2.06402e-10
-9.81543e-12
-2.07765e-10
4.67363e-11
-2.0921e-10
1.03683e-10
-2.108e-10
1.61014e-10
-2.12632e-10
2.18745e-10
-2.14824e-10
2.76918e-10
-2.17513e-10
3.35597e-10
-2.20842e-10
3.94859e-10
-2.24946e-10
4.5478e-10
-2.29924e-10
5.15413e-10
-2.35815e-10
5.76774e-10
-2.42577e-10
6.38815e-10
-2.50083e-10
7.01405e-10
-2.58113e-10
7.64312e-10
-2.66343e-10
8.27182e-10
-2.74313e-10
8.8952e-10
-2.81391e-10
9.50663e-10
-2.86709e-10
1.00973e-09
-2.89121e-10
1.06561e-09
-2.87157e-10
1.11687e-09
-2.79033e-10
1.16183e-09
-2.62676e-10
1.19845e-09
-2.35826e-10
1.22441e-09
-1.96229e-10
1.23721e-09
-1.42018e-10
1.23437e-09
-7.22282e-11
1.21365e-09
1.26573e-11
1.1734e-09
1.10266e-10
1.11289e-09
2.1602e-10
1.03267e-09
3.23088e-10
9.3472e-10
4.22872e-10
8.2251e-10
5.06005e-10
7.00891e-10
5.63671e-10
5.75697e-10
5.89258e-10
4.53053e-10
5.79924e-10
3.38842e-10
5.37219e-10
2.38004e-10
4.67048e-10
1.53867e-10
3.78636e-10
8.79872e-11
2.82296e-10
4.03085e-11
1.87311e-10
1.05073e-11
1.00379e-10
2.69112e-11
-1.00538e-11
2.77862e-11
-3.65647e-11
8.51149e-11
-7.62922e-11
1.43616e-10
-1.26507e-10
1.98698e-10
-1.8483e-10
2.48367e-10
-2.48973e-10
2.91718e-10
-3.16903e-10
3.27819e-10
-3.86819e-10
3.55614e-10
-4.57031e-10
3.73936e-10
-5.26055e-10
3.81669e-10
-5.92456e-10
3.77936e-10
-6.54977e-10
3.62323e-10
-7.12407e-10
3.35024e-10
-7.63669e-10
2.96998e-10
-8.07845e-10
2.49919e-10
-8.442e-10
1.96064e-10
-8.72209e-10
1.38099e-10
-8.91586e-10
7.88247e-11
-9.02284e-10
2.0929e-11
-9.04473e-10
-3.32839e-11
-8.98517e-10
-8.20635e-11
-8.84948e-10
-1.24264e-10
-8.64422e-10
-1.59351e-10
-8.37664e-10
-1.8737e-10
-8.0543e-10
-2.0884e-10
-7.68455e-10
-2.24613e-10
-7.27429e-10
-2.35726e-10
-6.82967e-10
-2.43257e-10
-6.35603e-10
-2.48218e-10
-5.85782e-10
-2.51477e-10
-5.33864e-10
-2.53728e-10
-4.80133e-10
-2.55487e-10
-4.24808e-10
-2.57109e-10
-3.68058e-10
-2.58809e-10
-3.10028e-10
-2.6068e-10
-2.50846e-10
-2.62715e-10
-1.90641e-10
-2.64845e-10
-1.29546e-10
-2.66981e-10
-6.7698e-11
-2.69054e-10
-5.23556e-12
-2.7104e-10
5.77109e-11
-2.7297e-10
1.21026e-10
-2.74927e-10
1.84616e-10
-2.77029e-10
2.48412e-10
-2.7942e-10
3.12367e-10
-2.82261e-10
3.76449e-10
-2.85714e-10
4.40629e-10
-2.8992e-10
5.04865e-10
-2.94965e-10
5.69079e-10
-3.00855e-10
6.33138e-10
-3.07492e-10
6.96829e-10
-3.14668e-10
7.59843e-10
-3.22065e-10
8.2176e-10
-3.29247e-10
8.82047e-10
-3.35637e-10
9.40047e-10
-3.40474e-10
9.94967e-10
-3.42752e-10
1.04586e-09
-3.41171e-10
1.09162e-09
-3.34105e-10
1.13098e-09
-3.19607e-10
1.16251e-09
-2.9545e-10
1.18462e-09
-2.59214e-10
1.19562e-09
-2.0853e-10
1.19378e-09
-1.41512e-10
1.17755e-09
-5.73218e-11
1.14562e-09
4.32731e-11
1.09725e-09
1.57403e-10
1.0324e-09
2.79734e-10
9.52004e-10
4.02471e-10
8.58005e-10
5.15951e-10
7.53409e-10
6.0972e-10
6.42192e-10
6.73991e-10
5.28952e-10
7.01586e-10
4.18532e-10
6.89502e-10
3.15623e-10
6.39497e-10
2.2409e-10
5.58255e-10
1.46644e-10
4.5597e-10
8.47511e-11
3.43925e-10
3.90197e-11
2.3238e-10
1.01758e-11
1.28554e-10
3.71759e-11
-1.12409e-11
3.86465e-11
-4.06706e-11
1.13932e-10
-8.42308e-11
1.86585e-10
-1.38369e-10
2.5233e-10
-1.99962e-10
3.09474e-10
-2.66202e-10
3.57514e-10
-3.34667e-10
3.95872e-10
-4.03375e-10
4.2393e-10
-4.70736e-10
4.40906e-10
-5.35535e-10
4.4605e-10
-5.96782e-10
4.38721e-10
-6.53741e-10
4.18768e-10
-7.05795e-10
3.86513e-10
-7.52425e-10
3.43011e-10
-7.93179e-10
2.90006e-10
-8.2765e-10
2.2982e-10
-8.55484e-10
1.65178e-10
-8.76403e-10
9.89587e-11
-8.90208e-10
3.39312e-11
-8.96792e-10
-2.75078e-11
-8.96163e-10
-8.34943e-11
-8.88452e-10
-1.32761e-10
-8.73907e-10
-1.74661e-10
-8.52884e-10
-2.09134e-10
-8.25821e-10
-2.36619e-10
-7.93214e-10
-2.57913e-10
-7.55589e-10
-2.74022e-10
-7.13478e-10
-2.86023e-10
-6.67389e-10
-2.94947e-10
-6.17793e-10
-3.01703e-10
-5.65105e-10
-3.07037e-10
-5.09686e-10
-3.1152e-10
-4.51847e-10
-3.15559e-10
-3.91857e-10
-3.19406e-10
-3.29963e-10
-3.2318e-10
-2.66395e-10
-3.26887e-10
-2.01383e-10
-3.30462e-10
-1.35159e-10
-3.33812e-10
-6.7956e-11
-3.36864e-10
-1.0885e-14
-3.39594e-10
6.84478e-11
-3.42041e-10
1.37205e-10
-3.44301e-10
2.06066e-10
-3.46513e-10
2.74858e-10
-3.48845e-10
3.43425e-10
-3.51478e-10
4.11624e-10
-3.54586e-10
4.79308e-10
-3.58309e-10
5.46309e-10
-3.62711e-10
6.12409e-10
-3.67751e-10
6.77323e-10
-3.73256e-10
7.4067e-10
-3.78924e-10
8.01962e-10
-3.84326e-10
8.60604e-10
-3.88911e-10
9.15895e-10
-3.91995e-10
9.67037e-10
-3.92717e-10
1.01314e-09
-3.89987e-10
1.05325e-09
-3.82433e-10
1.08635e-09
-3.68383e-10
1.11141e-09
-3.45873e-10
1.12738e-09
-3.12671e-10
1.13324e-09
-2.66372e-10
1.12804e-09
-2.04668e-10
1.11098e-09
-1.25811e-10
1.0815e-09
-2.91755e-11
1.03933e-09
8.41787e-11
9.8461e-10
2.10975e-10
9.1799e-10
3.45353e-10
8.40652e-10
4.78932e-10
7.54357e-10
6.01431e-10
6.61476e-10
7.01769e-10
5.64839e-10
7.69747e-10
4.67589e-10
7.97967e-10
3.73106e-10
7.83272e-10
2.84585e-10
7.27589e-10
2.04774e-10
6.379e-10
1.35807e-10
5.24784e-10
7.92222e-11
4.00002e-10
3.66266e-11
2.74272e-10
9.6332e-12
1.55228e-10
4.69235e-11
-1.20803e-11
5.03897e-11
-4.36028e-11
1.44966e-10
-8.9953e-11
2.32475e-10
-1.46938e-10
3.08931e-10
-2.10778e-10
3.7295e-10
-2.78128e-10
4.24529e-10
-3.4627e-10
4.63689e-10
-4.13059e-10
4.90397e-10
-4.7698e-10
5.04489e-10
-5.37065e-10
5.05752e-10
-5.92794e-10
4.94003e-10
-6.43914e-10
4.69379e-10
-6.90365e-10
4.32399e-10
-7.32158e-10
3.84192e-10
-7.69287e-10
3.26486e-10
-8.01671e-10
2.61522e-10
-8.29129e-10
1.91928e-10
-8.51395e-10
1.20496e-10
-8.6813e-10
4.99221e-11
-8.78969e-10
-1.74235e-11
-8.83581e-10
-7.96436e-11
-8.81716e-10
-1.35393e-10
-8.73233e-10
-1.83914e-10
-8.58121e-10
-2.25018e-10
-8.36505e-10
-2.59006e-10
-8.08638e-10
-2.86546e-10
-7.74879e-10
-3.08537e-10
-7.35659e-10
-3.25981e-10
-6.91448e-10
-3.39872e-10
-6.42721e-10
-3.51114e-10
-5.89935e-10
-3.60471e-10
-5.33518e-10
-3.68547e-10
-4.73864e-10
-3.75785e-10
-4.11337e-10
-3.8247e-10
-3.4628e-10
-3.88744e-10
-2.79026e-10
-3.94626e-10
-2.09904e-10
-4.00055e-10
-1.39247e-10
-4.04934e-10
-6.73947e-11
-4.09183e-10
5.31147e-12
-4.12776e-10
7.85335e-11
-4.15754e-10
1.51945e-10
-4.18223e-10
2.25237e-10
-4.2034e-10
2.98121e-10
-4.22294e-10
3.70329e-10
-4.24285e-10
4.41602e-10
-4.26501e-10
5.1168e-10
-4.29076e-10
5.80272e-10
-4.32047e-10
6.47036e-10
-4.35316e-10
7.11545e-10
-4.38626e-10
7.73269e-10
-4.41564e-10
8.31565e-10
-4.43584e-10
8.85685e-10
-4.44025e-10
9.34789e-10
-4.42112e-10
9.77976e-10
-4.36923e-10
1.01431e-09
-4.27338e-10
1.04286e-09
-4.12005e-10
1.06278e-09
-3.89327e-10
1.0733e-09
-3.57459e-10
1.07383e-09
-3.14316e-10
1.06395e-09
-2.57673e-10
1.04351e-09
-1.85445e-10
1.01261e-09
-9.61495e-11
9.71666e-10
1.05692e-11
9.21365e-10
1.33381e-10
8.62656e-10
2.6872e-10
7.96714e-10
4.10462e-10
7.24851e-10
5.50039e-10
6.48527e-10
6.76989e-10
5.69325e-10
7.80119e-10
4.88822e-10
8.49315e-10
4.08679e-10
8.77202e-10
3.30725e-10
8.60507e-10
2.56606e-10
8.01239e-10
1.88064e-10
7.06083e-10
1.2687e-10
5.85422e-10
7.49586e-11
4.50981e-10
3.50097e-11
3.13463e-10
9.43267e-12
1.80598e-10
5.62209e-11
-1.26145e-11
6.2732e-11
-4.55817e-11
1.77599e-10
-9.39402e-11
2.80527e-10
-1.52992e-10
3.67729e-10
-2.1844e-10
4.38155e-10
-2.86488e-10
4.92336e-10
-3.5411e-10
5.31058e-10
-4.19066e-10
5.55079e-10
-4.79885e-10
5.65001e-10
-5.35805e-10
5.61309e-10
-5.86689e-10
5.44455e-10
-6.32729e-10
5.14918e-10
-6.74333e-10
4.7345e-10
-7.11962e-10
4.21231e-10
-7.45986e-10
3.59893e-10
-7.76596e-10
2.91496e-10
-8.03767e-10
2.18445e-10
-8.27243e-10
1.43302e-10
-8.4657e-10
6.85601e-11
-8.61167e-10
-3.53621e-12
-8.70419e-10
-7.11269e-11
-8.73745e-10
-1.32829e-10
-8.70666e-10
-1.87782e-10
-8.60851e-10
-2.35645e-10
-8.44152e-10
-2.76533e-10
-8.20608e-10
-3.10923e-10
-7.90423e-10
-3.39546e-10
-7.53934e-10
-3.63272e-10
-7.11561e-10
-3.83007e-10
-6.63777e-10
-3.99612e-10
-6.11068e-10
-4.13838e-10
-5.53915e-10
-4.263e-10
-4.9278e-10
-4.37463e-10
-4.28108e-10
-4.47637e-10
-3.60327e-10
-4.56984e-10
-2.89857e-10
-4.65531e-10
-2.17122e-10
-4.73216e-10
-1.42552e-10
-4.79933e-10
-6.65899e-11
-4.85589e-10
1.0314e-11
-4.90147e-10
8.77077e-11
-4.93643e-10
1.65146e-10
-4.96189e-10
2.42202e-10
-4.97958e-10
3.18471e-10
-4.9916e-10
3.93573e-10
-5.00023e-10
4.67148e-10
-5.00751e-10
5.38833e-10
-5.01478e-10
6.08239e-10
-5.02215e-10
6.74917e-10
-5.028e-10
7.3833e-10
-5.02883e-10
7.97829e-10
-5.01937e-10
8.52655e-10
-4.99298e-10
9.01944e-10
-4.942e-10
9.44763e-10
-4.85798e-10
9.8015e-10
-4.73144e-10
1.00716e-09
-4.55153e-10
1.02495e-09
-4.30577e-10
1.03284e-09
-3.98002e-10
1.03038e-09
-3.55824e-10
1.01742e-09
-3.0224e-10
9.94136e-10
-2.35342e-10
9.61076e-10
-1.53403e-10
9.19177e-10
-5.52878e-11
8.69689e-10
5.90648e-11
8.14078e-10
1.88097e-10
7.53921e-10
3.28095e-10
6.90736e-10
4.72942e-10
6.2584e-10
6.14231e-10
5.60285e-10
7.41761e-10
4.94777e-10
8.44723e-10
4.2969e-10
9.13426e-10
3.65304e-10
9.40675e-10
3.0185e-10
9.23229e-10
2.39731e-10
8.62775e-10
1.7984e-10
7.65323e-10
1.23868e-10
6.40446e-10
7.45019e-11
4.99207e-10
3.54288e-11
3.51858e-10
9.84471e-12
2.05825e-10
6.56337e-11
-1.2938e-11
7.54812e-11
-4.69222e-11
2.11408e-10
-9.68487e-11
3.30292e-10
-1.57617e-10
4.28354e-10
-2.24463e-10
5.04849e-10
-2.93259e-10
5.60954e-10
-3.60718e-10
5.98296e-10
-4.24495e-10
6.1859e-10
-4.83163e-10
6.23358e-10
-5.36155e-10
6.13935e-10
-5.83584e-10
5.91456e-10
-6.25985e-10
5.56836e-10
-6.64129e-10
5.11068e-10
-6.9882e-10
4.55371e-10
-7.30718e-10
3.91223e-10
-7.60217e-10
3.20414e-10
-7.87394e-10
2.45027e-10
-8.11996e-10
1.6729e-10
-8.33485e-10
8.94077e-11
-8.51122e-10
1.34259e-11
-8.64071e-10
-5.88904e-11
-8.71499e-10
-1.26153e-10
-8.72664e-10
-1.87406e-10
-8.6699e-10
-2.42135e-10
-8.54119e-10
-2.90235e-10
-8.33918e-10
-3.31952e-10
-8.0647e-10
-3.67804e-10
-7.72027e-10
-3.98488e-10
-7.3097e-10
-4.24788e-10
-6.83763e-10
-4.47486e-10
-6.30911e-10
-4.67296e-10
-5.72932e-10
-4.84828e-10
-5.10341e-10
-5.00555e-10
-4.43639e-10
-5.14803e-10
-3.73323e-10
-5.27743e-10
-2.99886e-10
-5.39405e-10
-2.2383e-10
-5.49715e-10
-1.45675e-10
-5.58548e-10
-6.59601e-11
-5.65788e-10
1.4756e-11
-5.71375e-10
9.59059e-11
-5.75334e-10
1.76926e-10
-5.77777e-10
2.57271e-10
-5.78895e-10
3.36429e-10
-5.78932e-10
4.13922e-10
-5.78153e-10
4.89302e-10
-5.76791e-10
5.62128e-10
-5.74989e-10
6.31933e-10
-5.72731e-10
6.98194e-10
-5.69796e-10
7.603e-10
-5.65741e-10
8.17529e-10
-5.59924e-10
8.69046e-10
-5.51562e-10
9.13927e-10
-5.39798e-10
9.51191e-10
-5.23735e-10
9.79861e-10
-5.02434e-10
9.99033e-10
-4.74897e-10
1.00797e-09
-4.40058e-10
1.00619e-09
-3.96771e-10
9.93531e-10
-3.43765e-10
9.7024e-10
-2.79621e-10
9.36998e-10
-2.02857e-10
8.9496e-10
-1.1219e-10
8.45702e-10
-6.87727e-12
7.91106e-10
1.1285e-10
7.33207e-10
2.45263e-10
6.7397e-10
3.86668e-10
6.1506e-10
5.31197e-10
5.57668e-10
6.70899e-10
5.02373e-10
7.96218e-10
4.49022e-10
8.97143e-10
3.96938e-10
9.6458e-10
3.45124e-10
9.91673e-10
2.92432e-10
9.75255e-10
2.38309e-10
9.16256e-10
1.83163e-10
8.19654e-10
1.28866e-10
6.93715e-10
7.90308e-11
5.48127e-10
3.83062e-11
3.92126e-10
1.08345e-11
2.32696e-10
7.59519e-11
-1.31736e-11
8.85571e-11
-4.80612e-11
2.46254e-10
-9.94771e-11
3.81659e-10
-1.6203e-10
4.90831e-10
-2.30524e-10
5.7324e-10
-3.00505e-10
6.30778e-10
-3.68504e-10
6.66069e-10
-4.3208e-10
6.81878e-10
-4.89861e-10
6.80795e-10
-5.41435e-10
6.65117e-10
-5.87088e-10
6.36675e-10
-6.27593e-10
5.96871e-10
-6.63957e-10
5.46937e-10
-6.97198e-10
4.88103e-10
-7.28156e-10
4.21662e-10
-7.57352e-10
3.49081e-10
-7.84923e-10
2.7205e-10
-8.10608e-10
1.92403e-10
-8.33809e-10
1.12003e-10
-8.53677e-10
3.26531e-11
-8.69231e-10
-4.40149e-11
-8.79467e-10
-1.16626e-10
-8.83472e-10
-1.84131e-10
-8.80512e-10
-2.45834e-10
-8.70086e-10
-3.01392e-10
-8.51949e-10
-3.50797e-10
-8.26093e-10
-3.94328e-10
-7.92714e-10
-4.32486e-10
-7.52162e-10
-4.65905e-10
-7.0489e-10
-4.95268e-10
-6.51413e-10
-5.21236e-10
-5.9227e-10
-5.44394e-10
-5.28007e-10
-5.65217e-10
-4.59166e-10
-5.8403e-10
-3.86291e-10
-6.01006e-10
-3.09928e-10
-6.16166e-10
-2.30645e-10
-6.29411e-10
-1.4904e-10
-6.40585e-10
-6.57436e-11
-6.49533e-10
1.85814e-11
-6.56161e-10
1.03254e-10
-6.60474e-10
1.87597e-10
-6.62588e-10
2.70957e-10
-6.62723e-10
3.52727e-10
-6.61169e-10
4.32345e-10
-6.58241e-10
5.09293e-10
-6.54216e-10
5.8307e-10
-6.49256e-10
6.5316e-10
-6.43332e-10
7.19e-10
-6.36168e-10
7.79944e-10
-6.27234e-10
8.35241e-10
-6.15777e-10
8.84038e-10
-6.00906e-10
9.25396e-10
-5.81679e-10
9.5834e-10
-5.57163e-10
9.81924e-10
-5.26457e-10
9.95317e-10
-4.88693e-10
9.97908e-10
-4.4304e-10
9.89403e-10
-3.88679e-10
9.69899e-10
-3.24736e-10
9.39962e-10
-2.5024e-10
9.00673e-10
-1.64209e-10
8.5362e-10
-6.584e-11
8.00808e-10
4.52118e-11
7.44515e-10
1.68448e-10
6.87092e-10
3.02043e-10
6.30671e-10
4.4247e-10
5.76876e-10
5.84321e-10
5.26668e-10
7.20323e-10
4.80115e-10
8.4188e-10
4.36368e-10
9.39985e-10
3.93834e-10
1.00631e-09
3.50406e-10
1.03446e-09
3.03957e-10
1.02115e-09
2.53225e-10
9.66349e-10
1.98471e-10
8.73604e-10
1.42066e-10
7.49336e-10
8.85053e-11
6.01299e-10
4.3397e-11
4.36992e-10
1.22389e-11
2.63133e-10
8.78262e-11
-1.34394e-11
1.01977e-10
-4.94829e-11
2.82338e-10
-1.02808e-10
4.34999e-10
-1.67645e-10
5.55616e-10
-2.38367e-10
6.43874e-10
-3.10211e-10
7.02464e-10
-3.79549e-10
7.35173e-10
-4.43933e-10
7.45957e-10
-5.02094e-10
7.38593e-10
-5.53718e-10
7.16337e-10
-5.99215e-10
6.81737e-10
-6.39498e-10
6.36699e-10
-6.75708e-10
5.82679e-10
-7.0896e-10
5.20879e-10
-7.40159e-10
4.52376e-10
-7.69867e-10
3.78293e-10
-7.98231e-10
2.99898e-10
-8.24973e-10
2.18604e-10
-8.49453e-10
1.35917e-10
-8.70761e-10
5.3371e-11
-8.87838e-10
-2.75454e-11
-8.99595e-10
-1.05481e-10
-9.05035e-10
-1.79292e-10
-9.03343e-10
-2.48099e-10
-8.93949e-10
-3.11321e-10
-8.76545e-10
-3.68686e-10
-8.51075e-10
-4.20229e-10
-8.17699e-10
-4.66239e-10
-7.76744e-10
-5.0719e-10
-7.28654e-10
-5.43651e-10
-6.73942e-10
-5.76218e-10
-6.13156e-10
-6.05442e-10
-5.46856e-10
-6.3178e-10
-4.75607e-10
-6.55554e-10
-3.99979e-10
-6.76924e-10
-3.20561e-10
-6.95889e-10
-2.37973e-10
-7.12314e-10
-1.52882e-10
-7.25993e-10
-6.60069e-11
-7.36718e-10
2.18904e-11
-7.44352e-10
1.10023e-10
-7.48877e-10
1.97611e-10
-7.5042e-10
2.83905e-10
-7.49239e-10
3.68213e-10
-7.45682e-10
4.49905e-10
-7.40133e-10
5.28403e-10
-7.32923e-10
6.03163e-10
-7.24249e-10
6.73644e-10
-7.14082e-10
7.39276e-10
-7.0211e-10
7.99416e-10
-6.87726e-10
8.53332e-10
-6.70077e-10
9.00196e-10
-6.48171e-10
9.39108e-10
-6.20993e-10
9.69146e-10
-5.87589e-10
9.89434e-10
-5.47115e-10
9.99239e-10
-4.98858e-10
9.98087e-10
-4.42254e-10
9.85851e-10
-3.76846e-10
9.62837e-10
-3.02188e-10
9.29855e-10
-2.17798e-10
8.88253e-10
-1.23208e-10
8.39876e-10
-1.80963e-11
7.8694e-10
9.75138e-11
7.31875e-10
2.22902e-10
6.7711e-10
3.56226e-10
6.24744e-10
4.94247e-10
5.76247e-10
6.32148e-10
5.32254e-10
7.63519e-10
4.92374e-10
8.80891e-10
4.55183e-10
9.76375e-10
4.18395e-10
1.04249e-09
3.79034e-10
1.07336e-09
3.34382e-10
1.06532e-09
2.8272e-10
1.01737e-09
2.24401e-10
9.31204e-10
1.62404e-10
8.10885e-10
1.02122e-10
6.61631e-10
5.01626e-11
4.88739e-10
1.39478e-11
2.98724e-10
1.01587e-10
-1.39461e-11
1.1595e-10
-5.18282e-11
3.20291e-10
-1.08015e-10
4.91234e-10
-1.76071e-10
6.23628e-10
-2.49787e-10
7.17511e-10
-3.24162e-10
7.76705e-10
-3.95502e-10
8.06309e-10
-4.61467e-10
8.11649e-10
-5.20947e-10
7.97743e-10
-5.73747e-10
7.68768e-10
-6.20373e-10
7.27964e-10
-6.61799e-10
6.77704e-10
-6.99193e-10
6.19636e-10
-7.33663e-10
5.54896e-10
-7.66083e-10
4.84331e-10
-7.96982e-10
4.08711e-10
-8.26468e-10
3.28887e-10
-8.54235e-10
2.45859e-10
-8.79616e-10
1.60777e-10
-9.01677e-10
7.49134e-11
-9.19336e-10
-1.0388e-11
-9.31495e-10
-9.37925e-11
-9.37148e-10
-1.74064e-10
-9.35473e-10
-2.50145e-10
-9.25883e-10
-3.21221e-10
-9.08053e-10
-3.86769e-10
-8.81907e-10
-4.46578e-10
-8.47584e-10
-5.00727e-10
-8.05395e-10
-5.49523e-10
-7.5577e-10
-5.93417e-10
-6.99214e-10
-6.32926e-10
-6.36272e-10
-6.68557e-10
-5.67507e-10
-7.00747e-10
-4.93491e-10
-7.29799e-10
-4.14813e-10
-7.55854e-10
-3.32092e-10
-7.78875e-10
-2.45996e-10
-7.98675e-10
-1.57259e-10
-8.14982e-10
-6.66808e-11
-8.27523e-10
2.48843e-11
-8.36111e-10
1.16557e-10
-8.40709e-10
2.07466e-10
-8.41457e-10
2.96779e-10
-8.38657e-10
3.83728e-10
-8.32729e-10
4.67616e-10
-8.24129e-10
5.47813e-10
-8.1326e-10
6.23747e-10
-8.00371e-10
6.94872e-10
-7.85456e-10
7.6063e-10
-7.68186e-10
8.20417e-10
-7.47896e-10
8.73552e-10
-7.23649e-10
9.19275e-10
-6.94368e-10
9.56766e-10
-6.58976e-10
9.85195e-10
-6.16512e-10
1.00379e-09
-5.66198e-10
1.01194e-09
-5.07494e-10
1.00931e-09
-4.40116e-10
9.95935e-10
-3.63977e-10
9.72271e-10
-2.79069e-10
9.39287e-10
-1.85394e-10
8.98467e-10
-8.29774e-11
8.51741e-10
2.8064e-11
8.01344e-10
1.47384e-10
7.49652e-10
2.74096e-10
6.98965e-10
4.06426e-10
6.51216e-10
5.41491e-10
6.07638e-10
6.75149e-10
5.68524e-10
8.01956e-10
5.3311e-10
9.15594e-10
4.99524e-10
1.00936e-09
4.64935e-10
1.07665e-09
4.2596e-10
1.112e-09
3.79446e-10
1.11136e-09
3.23554e-10
1.07258e-09
2.58749e-10
9.95355e-10
1.885e-10
8.80869e-10
1.19035e-10
7.31192e-10
5.82872e-11
5.49097e-10
1.59543e-11
3.40642e-10
1.17382e-10
-1.50545e-11
1.31051e-10
-5.61601e-11
3.61471e-10
-1.16731e-10
5.51888e-10
-1.89173e-10
6.96066e-10
-2.66635e-10
7.94913e-10
-3.43916e-10
8.53887e-10
-4.17486e-10
8.79728e-10
-4.85305e-10
8.79251e-10
-5.46492e-10
8.58653e-10
-6.01029e-10
8.22982e-10
-6.49522e-10
7.76096e-10
-6.92954e-10
7.20741e-10
-7.32422e-10
6.58681e-10
-7.68927e-10
5.90955e-10
-8.03234e-10
5.18173e-10
-8.35772e-10
4.40771e-10
-8.66581e-10
3.59214e-10
-8.95311e-10
2.74115e-10
-9.21278e-10
1.86289e-10
-9.43549e-10
9.67665e-11
-9.61069e-10
6.76549e-12
-9.72787e-10
-8.23785e-11
-9.77755e-10
-1.69333e-10
-9.7519e-10
-2.5288e-10
-9.64528e-10
-3.31994e-10
-9.45447e-10
-4.05916e-10
-9.17864e-10
-4.74201e-10
-8.81905e-10
-5.36722e-10
-8.3786e-10
-5.93616e-10
-7.86145e-10
-6.45211e-10
-7.27248e-10
-6.9194e-10
-6.61705e-10
-7.34263e-10
-5.90071e-10
-7.72585e-10
-5.12923e-10
-8.07186e-10
-4.30864e-10
-8.38174e-10
-3.44546e-10
-8.65463e-10
-2.54686e-10
-8.88799e-10
-1.62084e-10
-9.07834e-10
-6.76121e-11
-9.22221e-10
2.77965e-11
-9.31721e-10
1.23184e-10
-9.36275e-10
2.17602e-10
-9.36039e-10
3.1014e-10
-9.3136e-10
3.99955e-10
-9.22725e-10
4.86283e-10
-9.10673e-10
5.68447e-10
-8.95694e-10
6.45847e-10
-8.78108e-10
7.17939e-10
-8.5796e-10
7.84196e-10
-8.3493e-10
8.44064e-10
-8.08319e-10
8.96938e-10
-7.77129e-10
9.42153e-10
-7.40218e-10
9.79001e-10
-6.96468e-10
1.00678e-09
-6.44921e-10
1.02485e-09
-5.8488e-10