/*--------------------------------*- C++ -*----------------------------------*\
| =========                 |                                                 |
| \\      /  F ield         | OpenFOAM: The Open Source CFD Toolbox           |
|  \\    /   O peration     | Version:  2412                                  |
|   \\  /    A nd           | Website:  www.openfoam.com                      |
|    \\/     M anipulation  |                                                 |
\*---------------------------------------------------------------------------*/
FoamFile
{
    version     2.0;
    format      ascii;
    arch        "LSB;label=32;scalar=64";
    class       surfaceScalarField;
    location    "4.7";
    object      alphaPhi0.water;
}
// * * * * * * * * * * * * * * * * * * * * * * * * * * * * * * * * * * * * * //

dimensions      [0 3 -1 0 0 0 0];

oriented        oriented;

internalField   nonuniform List<scalar> 
12640
(
-7.3112e-06
7.31116e-06
-1.00183e-05
2.70752e-06
-1.36934e-05
3.6754e-06
-1.7242e-05
3.54886e-06
-1.9987e-05
2.74504e-06
-2.1707e-05
1.72011e-06
-2.23611e-05
6.54232e-07
-2.18833e-05
-4.77693e-07
-2.03226e-05
-1.56064e-06
-1.76915e-05
-2.631e-06
-1.39968e-05
-3.69473e-06
-9.30265e-06
-4.6941e-06
-3.65308e-06
-5.64954e-06
2.66883e-06
-6.32183e-06
9.63836e-06
-6.96941e-06
1.70179e-05
-7.37942e-06
2.47969e-05
-7.77895e-06
3.28261e-05
-8.02925e-06
4.09325e-05
-8.10662e-06
4.89713e-05
-8.03895e-06
5.68581e-05
-7.88687e-06
6.42733e-05
-7.41524e-06
7.10869e-05
-6.8134e-06
7.69822e-05
-5.8953e-06
8.17402e-05
-4.75794e-06
8.51416e-05
-3.40131e-06
8.71345e-05
-1.99287e-06
8.77241e-05
-5.89678e-07
8.68386e-05
8.85539e-07
8.44067e-05
2.43183e-06
8.04665e-05
3.93989e-06
7.4931e-05
5.53503e-06
6.77818e-05
7.14876e-06
5.9329e-05
8.45259e-06
5.0007e-05
9.32185e-06
4.02435e-05
9.76356e-06
3.03593e-05
9.88432e-06
2.05832e-05
9.7759e-06
1.1039e-05
9.54429e-06
1.72284e-06
9.31584e-06
-7.41103e-06
9.1341e-06
-1.65034e-05
9.09231e-06
-2.55607e-05
9.05772e-06
-3.46052e-05
9.04466e-06
-4.34935e-05
8.88831e-06
-5.19957e-05
8.50218e-06
-5.98264e-05
7.83084e-06
-6.65733e-05
6.74701e-06
-7.18836e-05
5.31072e-06
-7.56164e-05
3.73315e-06
-7.78894e-05
2.27295e-06
-7.88291e-05
9.39861e-07
-7.85565e-05
-2.72848e-07
-7.72392e-05
-1.31704e-06
-7.47681e-05
-2.47063e-06
-7.12413e-05
-3.52626e-06
-6.68644e-05
-4.3768e-06
-6.1882e-05
-4.98202e-06
-5.64981e-05
-5.38358e-06
-5.09182e-05
-5.57972e-06
-4.5274e-05
-5.64444e-06
-3.96563e-05
-5.61771e-06
-3.41127e-05
-5.54341e-06
-2.86921e-05
-5.42101e-06
-2.34293e-05
-5.26317e-06
-1.8383e-05
-5.04665e-06
-1.35968e-05
-4.78627e-06
-9.13259e-06
-4.46454e-06
-5.1427e-06
-3.99021e-06
-1.71294e-06
-3.42966e-06
1.12232e-06
-2.83465e-06
3.34425e-06
-2.22133e-06
4.96674e-06
-1.62198e-06
5.8811e-06
-9.13795e-07
6.10192e-06
-2.20618e-07
5.67985e-06
4.22355e-07
4.7074e-06
9.73099e-07
3.73232e-06
9.75812e-07
3.81894e-06
-8.60277e-08
3.8197e-06
-8.62542e-06
1.59369e-05
-1.24347e-05
6.51727e-06
-1.7139e-05
8.38005e-06
-2.13648e-05
7.77485e-06
-2.44484e-05
5.82881e-06
-2.61757e-05
3.4476e-06
-2.64634e-05
9.42204e-07
-2.54473e-05
-1.49368e-06
-2.31916e-05
-3.81624e-06
-1.97247e-05
-6.09776e-06
-1.52849e-05
-8.13447e-06
-1.00662e-05
-9.91272e-06
-4.10746e-06
-1.16082e-05
2.5458e-06
-1.29749e-05
9.77722e-06
-1.42007e-05
1.752e-05
-1.51221e-05
2.56722e-05
-1.59313e-05
3.41419e-05
-1.64992e-05
4.28543e-05
-1.68192e-05
5.1718e-05
-1.69027e-05
6.05053e-05
-1.66741e-05
6.90459e-05
-1.59558e-05
7.73476e-05
-1.51148e-05
8.4968e-05
-1.35157e-05
9.19493e-05
-1.17393e-05
9.79976e-05
-9.44966e-06
0.000102818
-6.81303e-06
0.000106001
-3.77266e-06
0.00010731
-4.23713e-07
0.000106681
3.05946e-06
0.000103997
6.62354e-06
9.93205e-05
1.02113e-05
9.28476e-05
1.36212e-05
8.45735e-05
1.67265e-05
7.44205e-05
1.94748e-05
6.24645e-05
2.17192e-05
4.89261e-05
2.34226e-05
3.40268e-05
2.46747e-05
1.82404e-05
2.53307e-05
1.97258e-06
2.55833e-05
-1.43012e-05
2.54081e-05
-3.00414e-05
2.48324e-05
-4.47937e-05
2.381e-05
-5.81245e-05
2.23757e-05
-6.97095e-05
2.04736e-05
-7.93394e-05
1.81323e-05
-8.69611e-05
1.5453e-05
-9.26435e-05
1.24294e-05
-9.65423e-05
9.20948e-06
-9.86726e-05
5.86351e-06
-9.90061e-05
2.60643e-06
-9.75664e-05
-4.99357e-07
-9.45824e-05
-3.25645e-06
-9.02279e-05
-5.67096e-06
-8.4973e-05
-7.72518e-06
-7.90948e-05
-9.40386e-06
-7.28259e-05
-1.06452e-05
-6.6342e-05
-1.14658e-05
-5.9744e-05
-1.19819e-05
-5.31924e-05
-1.21311e-05
-4.67661e-05
-1.20706e-05
-4.05538e-05
-1.18303e-05
-3.45331e-05
-1.15639e-05
-2.8729e-05
-1.12249e-05
-2.31981e-05
-1.07938e-05
-1.7969e-05
-1.02756e-05
-1.30103e-05
-9.74461e-06
-8.36768e-06
-9.10679e-06
-4.01035e-06
-8.34691e-06
-3.0839e-08
-7.40845e-06
3.47492e-06
-6.33959e-06
6.3135e-06
-5.05913e-06
8.39645e-06
-3.70437e-06
9.575e-06
-2.09164e-06
9.81458e-06
-4.59228e-07
9.10837e-06
1.12984e-06
7.56629e-06
2.51664e-06
5.80015e-06
2.74338e-06
5.04057e-06
6.74961e-07
8.86095e-06
-8.77483e-06
2.47121e-05
-1.25295e-05
1.02723e-05
-1.72992e-05
1.31499e-05
-2.174e-05
1.22159e-05
-2.49841e-05
9.07309e-06
-2.68429e-05
5.30658e-06
-2.73154e-05
1.41494e-06
-2.6453e-05
-2.35592e-06
-2.43448e-05
-5.92431e-06
-2.10609e-05
-9.38149e-06
-1.67194e-05
-1.24759e-05
-1.14702e-05
-1.51618e-05
-5.43008e-06
-1.76482e-05
1.38175e-06
-1.97867e-05
8.76094e-06
-2.15798e-05
1.66776e-05
-2.30388e-05
2.5003e-05
-2.42567e-05
3.36563e-05
-2.51524e-05
4.25243e-05
-2.56872e-05
5.14746e-05
-2.58529e-05
6.02629e-05
-2.54623e-05
6.90278e-05
-2.47207e-05
7.70083e-05
-2.30954e-05
8.46244e-05
-2.11319e-05
9.12037e-05
-1.83186e-05
9.67442e-05
-1.49902e-05
0.000100875
-1.09439e-05
0.000103476
-6.37426e-06
0.000104428
-1.37556e-06
0.000103366
4.12118e-06
0.000100377
9.61162e-06
9.5487e-05
1.51014e-05
8.88456e-05
2.02624e-05
8.04785e-05
2.50932e-05
7.04011e-05
2.95518e-05
5.88302e-05
3.32894e-05
4.58618e-05
3.63903e-05
3.18593e-05
3.86764e-05
1.70898e-05
4.00994e-05
1.97302e-06
4.06996e-05
-1.31408e-05
4.05215e-05
-2.77852e-05
3.94767e-05
-4.15403e-05
3.7565e-05
-5.40833e-05
3.49185e-05
-6.51473e-05
3.15372e-05
-7.4531e-05
2.75156e-05
-8.21158e-05
2.30377e-05
-8.7909e-05
1.82231e-05
-9.19826e-05
1.32834e-05
-9.43806e-05
8.26169e-06
-9.50408e-05
3.26665e-06
-9.40779e-05
-1.46257e-06
-9.16721e-05
-5.66291e-06
-8.79432e-05
-9.39978e-06
-8.32394e-05
-1.24283e-05
-7.77804e-05
-1.48627e-05
-7.17829e-05
-1.66427e-05
-6.54614e-05
-1.77868e-05
-5.91012e-05
-1.83418e-05
-5.2642e-05
-1.85897e-05
-4.63117e-05
-1.84002e-05
-4.0109e-05
-1.80325e-05
-3.41204e-05
-1.75519e-05
-2.83975e-05
-1.6947e-05
-2.29083e-05
-1.62821e-05
-1.76474e-05
-1.55357e-05
-1.26458e-05
-1.47457e-05
-7.97052e-06
-1.3782e-05
-3.61464e-06
-1.27028e-05
2.79845e-07
-1.13026e-05
3.65601e-06
-9.71564e-06
6.41192e-06
-7.81518e-06
8.35845e-06
-5.65026e-06
9.50541e-06
-3.23747e-06
9.74271e-06
-6.95531e-07
9.00951e-06
1.864e-06
7.42837e-06
4.09888e-06
5.80627e-06
4.36655e-06
5.1369e-06
1.34506e-06
1.39979e-05
-9.98955e-06
3.47019e-05
-1.42872e-05
1.45701e-05
-1.95839e-05
1.84468e-05
-2.46e-05
1.72323e-05
-2.82623e-05
1.27356e-05
-3.03159e-05
7.36039e-06
-3.0797e-05
1.89633e-06
-2.97974e-05
-3.35536e-06
-2.74524e-05
-8.2691e-06
-2.39238e-05
-1.291e-05
-1.93387e-05
-1.70608e-05
-1.3707e-05
-2.07934e-05
-7.28685e-06
-2.40683e-05
-2.20746e-07
-2.68527e-05
7.46312e-06
-2.92635e-05
1.55324e-05
-3.11079e-05
2.40889e-05
-3.28129e-05
3.30086e-05
-3.40719e-05
4.22002e-05
-3.48786e-05
5.15131e-05
-3.51656e-05
6.0884e-05
-3.48332e-05
6.99432e-05
-3.37799e-05
7.87586e-05
-3.19107e-05
8.67816e-05
-2.91549e-05
9.39112e-05
-2.54484e-05
9.9849e-05
-2.09284e-05
0.00010431
-1.54052e-05
0.000107089
-9.15305e-06
0.000107942
-2.22905e-06
0.000106779
5.28417e-06
0.000103532
1.28595e-05
9.82432e-05
2.03904e-05
9.08696e-05
2.76359e-05
8.1578e-05
3.43843e-05
7.06793e-05
4.04499e-05
5.83609e-05
4.56073e-05
4.4997e-05
4.97537e-05
3.08893e-05
5.27839e-05
1.63122e-05
5.46757e-05
1.55568e-06
5.54556e-05
-1.30745e-05
5.51506e-05
-2.73623e-05
5.37635e-05
-4.10324e-05
5.12349e-05
-5.37845e-05
4.76711e-05
-6.53524e-05
4.31061e-05
-7.53971e-05
3.75612e-05
-8.3724e-05
3.13649e-05
-9.02434e-05
2.47421e-05
-9.4743e-05
1.77825e-05
-9.73135e-05
1.08315e-05
-9.79957e-05
3.94876e-06
-9.68809e-05
-2.5767e-06
-9.41341e-05
-8.4088e-06
-9.01468e-05
-1.33867e-05
-8.50064e-05
-1.75687e-05
-7.90956e-05
-2.07736e-05
-7.26682e-05
-2.30709e-05
-6.59395e-05
-2.45167e-05
-5.90884e-05
-2.51941e-05
-5.2377e-05
-2.53028e-05
-4.58372e-05
-2.49417e-05
-3.95538e-05
-2.43167e-05
-3.35624e-05
-2.35434e-05
-2.78589e-05
-2.26502e-05
-2.24223e-05
-2.17187e-05
-1.70827e-05
-2.08756e-05
-1.19858e-05
-1.98431e-05
-7.0753e-06
-1.86928e-05
-2.50573e-06
-1.72728e-05
1.66087e-06
-1.54696e-05
5.32503e-06
-1.33798e-05
8.26547e-06
-1.07553e-05
1.04805e-05
-7.86471e-06
1.17177e-05
-4.47434e-06
1.18768e-05
-8.53994e-07
1.08639e-05
2.8778e-06
8.92833e-06
6.03544e-06
6.87839e-06
6.41759e-06
5.98863e-06
2.23566e-06
1.99869e-05
-1.17246e-05
4.64267e-05
-1.67504e-05
1.9596e-05
-2.30245e-05
2.47211e-05
-2.89575e-05
2.31655e-05
-3.31905e-05
1.69689e-05
-3.54215e-05
9.59168e-06
-3.57916e-05
2.26661e-06
-3.4499e-05
-4.64776e-06
-3.17683e-05
-1.09996e-05
-2.78007e-05
-1.68774e-05
-2.26977e-05
-2.21636e-05
-1.66649e-05
-2.68261e-05
-9.94853e-06
-3.07846e-05
-2.47455e-06
-3.43266e-05
5.50767e-06
-3.72455e-05
1.40888e-05
-3.96887e-05
2.30707e-05
-4.17943e-05
3.24328e-05
-4.34335e-05
4.21627e-05
-4.46082e-05
5.21207e-05
-4.51233e-05
6.21708e-05
-4.48832e-05
7.20456e-05
-4.36547e-05
8.17377e-05
-4.1603e-05
9.0762e-05
-3.81795e-05
9.87822e-05
-3.34689e-05
0.000105507
-2.76532e-05
0.000110862
-2.07601e-05
0.000114277
-1.25685e-05
0.000115664
-3.61479e-06
0.000114811
6.13734e-06
0.000111564
1.61074e-05
0.000105911
2.60431e-05
9.80079e-05
3.5539e-05
8.78924e-05
4.44998e-05
7.60017e-05
5.23404e-05
6.2573e-05
5.90359e-05
4.80549e-05
6.4271e-05
3.27671e-05
6.80711e-05
1.70641e-05
7.03774e-05
1.20856e-06
7.13108e-05
-1.44936e-05
7.08533e-05
-2.9874e-05
6.91447e-05
-4.45808e-05
6.59424e-05
-5.83651e-05
6.14556e-05
-7.08276e-05
5.55683e-05
-8.16922e-05
4.84256e-05
-9.06682e-05
4.0341e-05
-9.74948e-05
3.15695e-05
-0.000102134
2.24229e-05
-0.000104531
1.32297e-05
-0.000104747
4.16567e-06
-0.000103031
-4.29325e-06
-9.95757e-05
-1.18653e-05
-9.46262e-05
-1.83375e-05
-8.85326e-05
-2.36639e-05
-8.16835e-05
-2.76245e-05
-7.43407e-05
-3.0415e-05
-6.68764e-05
-3.19829e-05
-5.94443e-05
-3.26273e-05
-5.22421e-05
-3.25049e-05
-4.53976e-05
-3.1786e-05
-3.8956e-05
-3.07576e-05
-3.29112e-05
-2.95874e-05
-2.71451e-05
-2.84158e-05
-2.15525e-05
-2.73111e-05
-1.62328e-05
-2.61947e-05
-1.09586e-05
-2.51164e-05
-5.8893e-06
-2.37608e-05
-1.03305e-06
-2.21274e-05
3.57869e-06
-2.00795e-05
7.63961e-06
-1.74393e-05
1.10573e-05
-1.41719e-05
1.35586e-05
-1.03649e-05
1.49916e-05
-5.90633e-06
1.51182e-05
-9.79482e-07
1.38014e-05
4.19555e-06
1.12799e-05
8.55753e-06
8.5546e-06
9.14289e-06
7.22126e-06
3.56882e-06
2.72082e-05
-1.39545e-05
6.03812e-05
-2.01673e-05
2.58089e-05
-2.77107e-05
3.22646e-05
-3.48844e-05
3.03394e-05
-3.98423e-05
2.1927e-05
-4.22314e-05
1.1981e-05
-4.23299e-05
2.3652e-06
-4.06093e-05
-6.36815e-06
-3.73095e-05
-1.42992e-05
-3.2677e-05
-2.15097e-05
-2.70013e-05
-2.78391e-05
-2.04184e-05
-3.34088e-05
-1.3152e-05
-3.80508e-05
-5.20363e-06
-4.22747e-05
3.34116e-06
-4.57899e-05
1.23027e-05
-4.86497e-05
2.16932e-05
-5.11842e-05
3.15939e-05
-5.33338e-05
4.19334e-05
-5.49473e-05
5.26913e-05
-5.58811e-05
6.36125e-05
-5.58045e-05
7.47133e-05
-5.47557e-05
8.54516e-05
-5.23415e-05
9.56513e-05
-4.83794e-05
0.000105061
-4.28786e-05
0.000113124
-3.57167e-05
0.000119438
-2.70739e-05
0.000123834
-1.69634e-05
0.000125924
-5.70463e-06
0.00012543
6.63144e-06
0.00012219
1.93473e-05
0.000116298
3.19349e-05
0.000107641
4.41964e-05
9.66693e-05
5.5471e-05
8.35391e-05
6.54702e-05
6.87073e-05
7.38675e-05
5.26561e-05
8.0322e-05
3.57263e-05
8.50011e-05
1.83625e-05
8.77417e-05
8.42869e-07
8.88307e-05
-1.64959e-05
8.8192e-05
-3.35097e-05
8.61582e-05
-4.97755e-05
8.22079e-05
-6.49405e-05
7.66207e-05
-7.86129e-05
6.92411e-05
-9.04356e-05
6.02489e-05
-0.000100088
4.99942e-05
-0.000107358
3.884e-05
-0.00011206
2.71242e-05
-0.000114133
1.53021e-05
-0.000113715
3.7471e-06
-0.000111058
-6.94889e-06
-0.000106426
-1.64968e-05
-0.000100189
-2.45736e-05
-9.28574e-05
-3.09937e-05
-8.47622e-05
-3.57183e-05
-7.63313e-05
-3.88438e-05
-6.78168e-05
-4.04952e-05
-5.95382e-05
-4.09042e-05
-5.18505e-05
-4.01911e-05
-4.46625e-05
-3.89727e-05
-3.80604e-05
-3.73591e-05
-3.19602e-05
-3.56866e-05
-2.62318e-05
-3.4143e-05
-2.07206e-05
-3.28208e-05
-1.52902e-05
-3.16237e-05
-9.90768e-06
-3.04977e-05
-4.53274e-06
-2.9135e-05
7.33898e-07
-2.73934e-05
5.86319e-06
-2.5208e-05
1.05369e-05
-2.21125e-05
1.46031e-05
-1.82376e-05
1.76379e-05
-1.33991e-05
1.94728e-05
-7.74066e-06
1.96348e-05
-1.14118e-06
1.78986e-05
5.93172e-06
1.44556e-05
1.20009e-05
1.08785e-05
1.27201e-05
8.83349e-06
5.61394e-06
3.60416e-05
-1.66664e-05
7.70476e-05
-2.46381e-05
3.37807e-05
-3.40732e-05
4.16999e-05
-4.30406e-05
3.93069e-05
-4.87728e-05
2.76594e-05
-5.10919e-05
1.43001e-05
-5.06653e-05
1.93874e-06
-4.81127e-05
-8.92044e-06
-4.39607e-05
-1.84509e-05
-3.85295e-05
-2.69405e-05
-3.20391e-05
-3.43292e-05
-2.48355e-05
-4.06121e-05
-1.68163e-05
-4.60698e-05
-8.2923e-06
-5.07982e-05
6.38602e-07
-5.47202e-05
1.00762e-05
-5.80867e-05
1.99359e-05
-6.10435e-05
3.04085e-05
-6.38061e-05
4.14464e-05
-6.59852e-05
5.30657e-05
-6.75004e-05
6.5195e-05
-6.79337e-05
7.753e-05
-6.70906e-05
8.98857e-05
-6.46974e-05
0.000101763
-6.02568e-05
0.000112783
-5.3899e-05
0.000122438
-4.53713e-05
0.000130257
-3.4893e-05
0.000135822
-2.25292e-05
0.000138833
-8.71594e-06
0.000138832
6.63256e-06
0.000135666
2.25131e-05
0.000129318
3.82827e-05
0.000119897
5.36169e-05
0.000107588
6.77799e-05
9.28096e-05
8.02489e-05
7.62141e-05
9.04633e-05
5.81729e-05
9.83642e-05
3.92583e-05
0.000103916
1.98943e-05
0.000107106
4.08029e-07
0.000108317
-1.89006e-05
0.0001075
-3.78594e-05
0.000105117
-5.6055e-05
0.000100403
-7.30079e-05
9.35739e-05
-8.82682e-05
8.45015e-05
-0.000101399
7.33799e-05
-0.000112061
6.06559e-05
-0.000119801
4.658e-05
-0.000124555
3.18792e-05
-0.000126256
1.70041e-05
-0.000124945
2.43656e-06
-0.000120973
-1.09198e-05
-0.000114824
-2.26452e-05
-0.000107031
-3.23646e-05
-9.79903e-05
-4.00324e-05
-8.81073e-05
-4.55991e-05
-7.81491e-05
-4.88006e-05
-6.86009e-05
-5.00419e-05
-5.94433e-05
-5.00605e-05
-5.10646e-05
-4.85691e-05
-4.34856e-05
-4.65511e-05
-3.68097e-05
-4.40344e-05
-3.07828e-05
-4.1713e-05
-2.52148e-05
-3.9711e-05
-1.98227e-05
-3.82133e-05
-1.43972e-05
-3.70499e-05
-8.86077e-06
-3.60348e-05
-3.17888e-06
-3.48172e-05
2.67661e-06
-3.32486e-05
8.49664e-06
-3.10271e-05
1.40481e-05
-2.7663e-05
1.89716e-05
-2.31605e-05
2.29685e-05
-1.73956e-05
2.54182e-05
-1.01898e-05
2.57835e-05
-1.50591e-06
2.3534e-05
8.18117e-06
1.87861e-05
1.67486e-05
1.38842e-05
1.76219e-05
1.0697e-05
8.80138e-06
4.67385e-05
-1.95653e-05
9.6613e-05
-3.00026e-05
4.4218e-05
-4.23364e-05
5.40338e-05
-5.40704e-05
5.10411e-05
-6.07478e-05
3.43369e-05
-6.26449e-05
1.61974e-05
-6.10744e-05
3.68475e-07
-5.71822e-05
-1.28123e-05
-5.18071e-05
-2.38256e-05
-4.52534e-05
-3.34938e-05
-3.78357e-05
-4.17466e-05
-2.97522e-05
-4.8695e-05
-2.09644e-05
-5.48571e-05
-1.18705e-05
-5.98915e-05
-2.30006e-06
-6.42903e-05
7.61271e-06
-6.79992e-05
1.79244e-05
-7.1355e-05
2.87784e-05
-7.46598e-05
4.05299e-05
-7.77363e-05
5.3189e-05
-8.01595e-05
6.66048e-05
-8.13498e-05
8.06356e-05
-8.11218e-05
9.47369e-05
-7.8799e-05
0.000108871
-7.43914e-05
0.000121919
-6.69472e-05
0.000133701
-5.71535e-05
0.000143456
-4.46485e-05
0.000150667
-2.97411e-05
0.000154888
-1.29373e-05
0.000155688
5.83235e-06
0.000152656
2.55442e-05
0.000145719
4.52197e-05
0.000135064
6.42719e-05
0.000121091
8.17533e-05
0.000104324
9.70163e-05
8.53446e-05
0.000109443
6.48449e-05
0.000118864
4.34644e-05
0.000125297
2.17457e-05
0.000128825
-1.43879e-07
0.000130207
-2.17439e-05
0.000129101
-4.30586e-05
0.000126433
-6.36229e-05
0.000120969
-8.28646e-05
0.000112815
-0.000100231
0.000101866
-0.000115095
8.8243e-05
-0.000126954
7.2515e-05
-0.000135471
5.50964e-05
-0.000140343
3.67507e-05
-0.000141594
1.82548e-05
-0.000139123
-3.5638e-08
-0.000133659
-1.63836e-05
-0.000125531
-3.07735e-05
-0.000115398
-4.24972e-05
-0.000104015
-5.14173e-05
-9.22304e-05
-5.73836e-05
-8.02374e-05
-6.07936e-05
-6.87606e-05
-6.15187e-05
-5.84995e-05
-6.03214e-05
-4.93359e-05
-5.77321e-05
-4.1557e-05
-5.43294e-05
-3.49471e-05
-5.06437e-05
-2.92476e-05
-4.74122e-05
-2.41742e-05
-4.47841e-05
-1.91108e-05
-4.32762e-05
-1.38442e-05
-4.23155e-05
-8.14477e-06
-4.17329e-05
-1.9723e-06
-4.09887e-05
4.56178e-06
-3.97816e-05
1.12349e-05
-3.76996e-05
1.7978e-05
-3.44056e-05
2.42721e-05
-2.94541e-05
2.97033e-05
-2.28262e-05
3.32788e-05
-1.37649e-05
3.4196e-05
-2.42309e-06
3.13605e-05
1.1017e-05
2.45074e-05
2.36017e-05
1.74597e-05
2.46695e-05
1.27642e-05
1.34967e-05
5.95028e-05
-2.229e-05
0.000118903
-3.68709e-05
5.8799e-05
-5.3478e-05
7.06411e-05
-6.93331e-05
6.68962e-05
-7.68309e-05
4.18348e-05
-7.73435e-05
1.67102e-05
-7.37375e-05
-3.23722e-06
-6.77985e-05
-1.87508e-05
-6.06489e-05
-3.09748e-05
-5.27142e-05
-4.1428e-05
-4.42339e-05
-5.02264e-05
-3.50942e-05
-5.78342e-05
-2.55011e-05
-6.44498e-05
-1.55752e-05
-6.98171e-05
-5.52414e-06
-7.43411e-05
4.61864e-06
-7.81417e-05
1.5185e-05
-8.19212e-05
2.65001e-05
-8.59749e-05
3.89176e-05
-9.01539e-05
5.25147e-05
-9.37568e-05
6.76401e-05
-9.64753e-05
8.37308e-05
-9.72127e-05
0.000100323
-9.53914e-05
0.000116695
-9.07638e-05
0.000132609
-8.28612e-05
0.000147093
-7.16383e-05
0.000159399
-5.69557e-05
0.000168911
-3.92537e-05
0.000174918
-1.89446e-05
0.000176668
4.08133e-06
0.000173847
2.83649e-05
0.000166249
5.28167e-05
0.000154064
7.64571e-05
0.000137878
9.79394e-05
0.000118349
0.000116545
9.6387e-05
0.000131406
7.28036e-05
0.000142448
4.84933e-05
0.000149608
2.3876e-05
0.000153442
-7.71831e-07
0.000154855
-2.50718e-05
0.000153401
-4.92647e-05
0.000150625
-7.27453e-05
0.000144448
-9.4885e-05
0.000134955
-0.000114909
0.000121892
-0.000132096
0.000105431
-0.000145656
8.60751e-05
-0.000155104
6.45436e-05
-0.000160162
4.1808e-05
-0.000160742
1.88339e-05
-0.000156766
-4.01238e-06
-0.000149075
-2.40751e-05
-0.000138324
-4.15265e-05
-0.000125271
-5.55512e-05
-0.00011083
-6.58587e-05
-9.59446e-05
-7.22694e-05
-8.16539e-05
-7.50845e-05
-6.83212e-05
-7.48514e-05
-5.65677e-05
-7.2075e-05
-4.66727e-05
-6.76274e-05
-3.86576e-05
-6.23452e-05
-3.23238e-05
-5.6978e-05
-2.73104e-05
-5.24259e-05
-2.28596e-05
-4.92344e-05
-1.85809e-05
-4.75539e-05
-1.36532e-05
-4.72422e-05
-7.87156e-06
-4.7514e-05
-1.20494e-06
-4.76549e-05
6.14457e-06
-4.71305e-05
1.40626e-05
-4.56169e-05
2.23014e-05
-4.26437e-05
3.05049e-05
-3.76569e-05
3.80333e-05
-3.0354e-05
4.37649e-05
-1.94958e-05
4.58269e-05
-4.48493e-06
4.25377e-05
1.43065e-05
3.22423e-05
3.38975e-05
2.15395e-05
3.53725e-05
1.41835e-05
2.08529e-05
7.36863e-05
-2.66058e-05
0.000145509
-5.00971e-05
8.22902e-05
-7.16132e-05
9.21572e-05
-9.13137e-05
8.65968e-05
-9.84565e-05
4.89777e-05
-9.59233e-05
1.41773e-05
-8.88453e-05
-1.03149e-05
-7.9841e-05
-2.77548e-05
-7.03672e-05
-4.04482e-05
-6.08198e-05
-5.0975e-05
-5.104e-05
-6.00057e-05
-4.0665e-05
-6.82087e-05
-2.98717e-05
-7.52429e-05
-1.88351e-05
-8.08535e-05
-8.2446e-06
-8.49315e-05
1.97789e-06
-8.83641e-05
1.23548e-05
-9.2298e-05
2.35995e-05
-9.72195e-05
3.64222e-05
-0.000102976
5.12215e-05
-0.000108556
6.78669e-05
-0.000113121
8.65544e-05
-0.0001159
0.000106256
-0.000115094
0.000126204
-0.000110712
0.000145462
-0.000102121
0.000163246
-8.94228e-05
0.000178896
-7.26063e-05
0.000191314
-5.16736e-05
0.000199467
-2.70986e-05
0.000202716
8.32084e-07
0.000200254
3.08271e-05
0.000191768
6.13017e-05
0.000177805
9.04202e-05
0.000158769
0.000116975
0.00013569
0.000139622
0.000109814
0.000157282
8.23934e-05
0.000169868
5.43327e-05
0.000177668
2.63154e-05
0.00018146
-1.22516e-06
0.000182396
-2.85318e-05
0.000180708
-5.6411e-05
0.000178505
-8.3765e-05
0.000171804
-0.000109648
0.000160839
-0.000133079
0.000145324
-0.000153077
0.00012543
-0.000168834
0.000101832
-0.000179519
7.52292e-05
-0.000184832
4.71218e-05
-0.00018443
1.84326e-05
-0.000178762
-9.67982e-06
-0.000168192
-3.46447e-05
-0.000153835
-5.58826e-05
-0.000136776
-7.26104e-05
-0.000118483
-8.41519e-05
-9.99997e-05
-9.07536e-05
-8.2374e-05
-9.27118e-05
-6.66599e-05
-9.05669e-05
-5.31485e-05
-8.55877e-05
-4.23875e-05
-7.83895e-05
-3.4471e-05
-7.02627e-05
-2.88764e-05
-6.25728e-05
-2.49934e-05
-5.63083e-05
-2.20759e-05
-5.21514e-05
-1.88801e-05
-5.07494e-05
-1.46532e-05
-5.14687e-05
-8.74379e-06
-5.34234e-05
-1.30161e-06
-5.50966e-05
7.18812e-06
-5.56198e-05
1.65799e-05
-5.50084e-05
2.6865e-05
-5.29284e-05
3.76719e-05
-4.84634e-05
4.84368e-05
-4.11185e-05
5.73489e-05
-2.84073e-05
6.16554e-05
-8.79097e-06
5.81139e-05
1.78484e-05
4.39586e-05
4.80529e-05
2.89458e-05
5.03854e-05
1.58195e-05
3.39794e-05
8.95057e-05
-2.75357e-05
0.000173045
-7.4393e-05
0.000129148
-0.00010579
0.000123554
-0.000128183
0.000108991
-0.000131227
5.20212e-05
-0.000119624
2.57471e-06
-0.000105621
-2.43177e-05
-9.17636e-05
-4.16117e-05
-7.94715e-05
-5.27399e-05
-6.84732e-05
-6.1973e-05
-5.7562e-05
-7.09166e-05
-4.57536e-05
-8.00168e-05
-3.34142e-05
-8.7582e-05
-2.14526e-05
-9.2815e-05
-1.05434e-05
-9.58405e-05
-4.00707e-07
-9.85068e-05
9.34512e-06
-0.000102044
2.02022e-05
-0.000108077
3.30453e-05
-0.00011582
4.86509e-05
-0.000124162
6.75939e-05
-0.000132064
8.8961e-05
-0.000137268
0.000112327
-0.00013846
0.000136142
-0.000134528
0.000159959
-0.000125939
0.000182214
-0.000111679
0.000202186
-9.2579e-05
0.000218569
-6.80571e-05
0.000229928
-3.84577e-05
0.00023522
-4.46115e-06
0.000233324
3.27228e-05
0.000223955
7.06693e-05
0.000207449
0.000106926
0.000184604
0.000139819
0.000156988
0.000167239
0.000126045
0.000188224
9.33356e-05
0.000202578
6.04762e-05
0.000210528
2.87341e-05
0.000213202
-8.31243e-07
0.000211962
-3.06219e-05
0.000210499
-6.34351e-05
0.000211319
-9.65229e-05
0.000204893
-0.000127647
0.000191964
-0.00015564
0.000173317
-0.000179534
0.000149325
-0.000198164
0.000120463
-0.000210566
8.76336e-05
-0.000215972
5.25296e-05
-0.000214437
1.6898e-05
-0.000206061
-1.8056e-05
-0.00019168
-4.90262e-05
-0.000172432
-7.51311e-05
-0.000150105
-9.49394e-05
-0.000126612
-0.000107647
-0.000103428
-0.000113939
-8.19788e-05
-0.000114162
-6.30956e-05
-0.00010945
-4.77778e-05
-0.000100905
-3.62186e-05
-8.9949e-05
-2.87589e-05
-7.77225e-05
-2.46001e-05
-6.67322e-05
-2.26639e-05
-5.82458e-05
-2.18221e-05
-5.29944e-05
-2.05709e-05
-5.20013e-05
-1.74877e-05
-5.45519e-05
-1.1629e-05
-5.92817e-05
-3.29692e-06
-6.34283e-05
6.65392e-06
-6.55705e-05
1.77957e-05
-6.615e-05
3.02771e-05
-6.54093e-05
4.47543e-05
-6.29401e-05
6.05899e-05
-5.69535e-05
7.5874e-05
-4.36908e-05
8.6599e-05
-1.95154e-05
8.55916e-05
1.88562e-05
6.54427e-05
6.82019e-05
4.48218e-05
7.10063e-05
1.79381e-05
6.08631e-05
0.000107444
1.58513e-05
0.000157193
-7.95435e-05
0.000224542
-0.000178286
0.000222296
-0.00020111
0.000131815
-0.000180576
3.14874e-05
-0.00014789
-3.01113e-05
-0.000122944
-4.92628e-05
-0.000104097
-6.04588e-05
-8.88461e-05
-6.79906e-05
-7.63118e-05
-7.4507e-05
-6.46746e-05
-8.25534e-05
-5.27053e-05
-9.19858e-05
-3.99393e-05
-0.000100348
-2.74047e-05
-0.00010535
-1.62376e-05
-0.000107008
-6.91008e-06
-0.000107834
2.52142e-06
-0.000111476
1.31689e-05
-0.000118725
2.58593e-05
-0.000128511
4.28511e-05
-0.000141154
6.44706e-05
-0.000153685
9.00558e-05
-0.000162854
0.000118285
-0.00016669
0.000148026
-0.000164269
0.000176804
-0.000154718
0.000204675
-0.00013955
0.000230249
-0.000118153
0.000251851
-8.96589e-05
0.000267674
-5.42811e-05
0.000275929
-1.27168e-05
0.000275085
3.35664e-05
0.000264708
8.10461e-05
0.000244944
0.000126691
0.000217268
0.000167494
0.000183022
0.000201485
0.000144329
0.000226916
0.00010391
0.000242997
6.48112e-05
0.000249627
3.0092e-05
0.000247921
8.12486e-07
0.000241242
-2.97412e-05
0.000241053
-6.7971e-05
0.000249549
-0.000108986
0.000245907
-0.000148202
0.00023118
-0.000183205
0.000208321
-0.000212515
0.000178635
-0.000234951
0.000142897
-0.000249356
0.000102037
-0.000255107
5.82778e-05
-0.000252006
1.3795e-05
-0.000240218
-2.98454e-05
-0.000220616
-6.86292e-05
-0.000194831
-0.000100918
-0.000165568
-0.000124202
-0.000135282
-0.000137932
-0.00010588
-0.000143341
-7.91911e-05
-0.000140851
-5.61805e-05
-0.000132461
-3.75768e-05
-0.000119509
-2.49941e-05
-0.000102532
-1.81633e-05
-8.45541e-05
-1.59498e-05
-6.89462e-05
-1.59357e-05
-5.82597e-05
-1.72443e-05
-5.16852e-05
-1.85945e-05
-5.06504e-05
-1.76548e-05
-5.54914e-05
-1.33463e-05
-6.35901e-05
-5.36666e-06
-7.14081e-05
5.15173e-06
-7.60891e-05
1.77662e-05
-7.87643e-05
3.3115e-05
-8.07577e-05
5.19781e-05
-8.18026e-05
7.39574e-05
-7.89322e-05
9.83408e-05
-6.8074e-05
0.000122262
-4.34363e-05
0.00013553
5.58809e-06
0.000121892
8.18405e-05
6.77321e-05
0.000125166
-5.74723e-06
0.000134343
0.000101697
0.000101127
5.55241e-05
6.88636e-05
0.000254613
-0.000143517
0.000432947
-0.000287527
0.000275825
-0.000271912
1.58727e-05
-0.000192431
-0.000109592
-0.000139098
-0.000102596
-0.000108932
-9.06248e-05
-9.32872e-05
-8.36351e-05
-8.49053e-05
-8.28887e-05
-7.87487e-05
-8.87099e-05
-6.90743e-05
-0.00010166
-5.37732e-05
-0.000115649
-3.77785e-05
-0.000121344
-2.73332e-05
-0.000117453
-2.10827e-05
-0.000114085
-1.47216e-05
-0.000117837
-5.98206e-06
-0.000127465
6.39578e-06
-0.000140889
2.49199e-05
-0.000159679
5.07533e-05
-0.000179518
8.34704e-05
-0.000195571
0.000120267
-0.000203486
0.000157427
-0.000201429
0.000193936
-0.000191227
0.000228726
-0.000174341
0.00026121
-0.000150637
0.000289763
-0.000118212
0.000311842
-7.63601e-05
0.000325145
-2.602e-05
0.000326703
3.20086e-05
0.000315979
9.177e-05
0.000292563
0.000150106
0.000257376
0.000202682
0.000212632
0.000246229
0.00016213
0.00027742
0.000111695
0.000293433
6.67913e-05
0.000294531
3.04525e-05
0.000284261
1.73107e-06
0.000269963
-2.90559e-05
0.00027184
-7.08603e-05
0.000291352
-0.000119523
0.000294569
-0.000168689
0.000280344
-0.000214189
0.000253818
-0.000252888
0.000217331
-0.000281657
0.000171664
-0.000298496
0.000118876
-0.000302869
6.26507e-05
-0.000295887
6.81442e-06
-0.000278972
-4.67599e-05
-0.000252391
-9.52093e-05
-0.000218474
-0.000134834
-0.000180201
-0.000162473
-0.000140972
-0.000177161
-0.000103283
-0.00018103
-6.87245e-05
-0.000175409
-3.86475e-05
-0.000162537
-1.49838e-05
-0.000143172
-5.80429e-07
-0.000116934
5.25761e-06
-9.03911e-05
5.68259e-06
-6.937e-05
1.72264e-06
-5.42993e-05
-5.76306e-06
-4.41994e-05
-1.37518e-05
-4.26616e-05
-1.66864e-05
-5.25568e-05
-1.09882e-05
-6.92883e-05
-1.04635e-06
-8.135e-05
8.32561e-06
-8.54609e-05
1.78914e-05
-8.83296e-05
3.15493e-05
-9.44155e-05
5.35732e-05
-0.000103826
8.78804e-05
-0.000113239
0.000136318
-0.000116511
0.000203195
-0.000110313
0.000242452
-3.3669e-05
0.000171107
0.000153187
-2.19023e-05
0.000318176
-9.52012e-05
0.000206753
6.35731e-06
0.00020253
-0.00014768
0.000386754
6.53821e-05
0.000215659
0.000599035
-0.000146402
0.000640602
-0.000266781
0.000136106
-0.000224371
-0.000152002
-0.000159968
-0.000166998
-0.000120722
-0.000129871
-0.000106387
-9.79704e-05
-0.000104758
-8.4517e-05
-9.90857e-05
-9.43822e-05
-7.53442e-05
-0.000125401
-3.67595e-05
-0.000154234
-4.79519e-06
-0.000153309
4.37948e-06
-0.000126628
-3.7366e-06
-0.00010597
-1.42666e-05
-0.000107308
-1.8891e-05
-0.000122841
-1.40538e-05
-0.000145727
1.33101e-06
-0.000175064
2.99601e-05
-0.000208147
6.90956e-05
-0.000234707
0.000114057
-0.000248448
0.000161405
-0.000248777
0.000207404
-0.000237225
0.000251017
-0.000217954
0.000292429
-0.000192049
0.000330985
-0.000156768
0.000362961
-0.000108337
0.000383303
-4.63614e-05
0.000389035
2.62753e-05
0.000377152
0.000103653
0.000347707
0.000179552
0.000302572
0.000247818
0.00024521
0.000303592
0.00018412
0.000338511
0.000127593
0.00034996
7.90279e-05
0.000343096
3.69497e-05
0.000326339
-1.08537e-06
0.000307997
-4.0492e-05
0.000311246
-8.75793e-05
0.000338439
-0.000141062
0.000348051
-0.000196617
0.0003359
-0.000250546
0.000307748
-0.000299237
0.000266024
-0.00033696
0.000209389
-0.00035838
0.000140298
-0.000363308
6.75806e-05
-0.000353374
-3.1182e-06
-0.000329632
-7.05014e-05
-0.00029237
-0.000132471
-0.000244557
-0.000182647
-0.000192008
-0.000215022
-0.000139759
-0.000229409
-9.18435e-05
-0.000228944
-5.03718e-05
-0.00021688
-1.72115e-05
-0.000195697
6.7034e-06
-0.000167086
2.16327e-05
-0.000131864
2.42739e-05
-9.30325e-05
1.54383e-05
-6.05348e-05
-4.31259e-06
-3.45488e-05
-3.27958e-05
-1.57165e-05
-6.03416e-05
-1.51161e-05
-6.93586e-05
-4.35396e-05
-4.98424e-05
-8.88044e-05
-1.44298e-05
-0.000116763
1.35606e-05
-0.000113451
2.74563e-05
-0.000102225
3.905e-05
-0.000106009
6.47051e-05
-0.000129481
0.000117312
-0.000165846
0.00019625
-0.000195448
0.000261935
-0.000175999
0.000210716
1.75511e-05
-7.18263e-05
0.00043599
-0.000295207
0.000537849
-0.000176078
8.36199e-05
-0.000170345
0.000451834
-0.000600539
0.000754242
-0.000240522
0.000642072
0.000714986
0.000166575
0.00111741
-0.000126119
0.0004288
-0.000163469
-0.000114652
-0.000128104
-0.000202364
-0.000102233
-0.000155742
-9.99003e-05
-0.000100303
-9.65486e-05
-8.78688e-05
-6.45149e-05
-0.000126416
1.06623e-06
-0.000190983
7.47217e-05
-0.00022789
0.000122208
-0.000200795
0.000128915
-0.000133335
0.000103787
-8.08426e-05
6.92606e-05
-7.27809e-05
4.00435e-05
-9.36237e-05
2.53456e-05
-0.000131029
3.13891e-05
-0.000181107
5.67994e-05
-0.000233557
9.32396e-05
-0.000271147
0.000134422
-0.000289631
0.000179047
-0.000293402
0.000228146
-0.000286325
0.000281413
-0.00027122
0.000338219
-0.000248856
0.000394036
-0.000212585
0.000440409
-0.00015471
0.000468926
-7.48786e-05
0.000474559
2.06427e-05
0.000456852
0.000121359
0.000419084
0.00021732
0.0003655
0.000301402
0.000303675
0.000365417
0.000242063
0.000400122
0.000186439
0.000405583
0.000131677
0.000397859
6.93717e-05
0.000388644
-4.95912e-07
0.000377865
-7.15945e-05
0.000382345
-0.000141351
0.000408197
-0.000207877
0.000414578
-0.000267449
0.000395474
-0.000319904
0.000360205
-0.000367198
0.00031332
-0.000408128
0.000250319
-0.000436042
0.000168212
-0.000446718
7.82564e-05
-0.000441934
-7.90323e-06
-0.000418794
-9.36418e-05
-0.000372465
-0.0001788
-0.000304215
-0.000250897