/*--------------------------------*- C++ -*----------------------------------*\
| =========                 |                                                 |
| \\      /  F ield         | OpenFOAM: The Open Source CFD Toolbox           |
|  \\    /   O peration     | Version:  2412                                  |
|   \\  /    A nd           | Website:  www.openfoam.com                      |
|    \\/     M anipulation  |                                                 |
\*---------------------------------------------------------------------------*/
FoamFile
{
    version     2.0;
    format      ascii;
    arch        "LSB;label=32;scalar=64";
    class       volScalarField;
    location    "5.2";
    object      p_rgh;
}
// * * * * * * * * * * * * * * * * * * * * * * * * * * * * * * * * * * * * * //

dimensions      [1 -1 -2 0 0 0 0];

internalField   nonuniform List<scalar> 
6400
(
13920.4
13920.4
13920.4
13920.4
13920.4
13920.4
13920.4
13920.4
13920.4
13920.4
13920.4
13920.4
13920.4
13920.4
13920.4
13920.4
13920.4
13920.4
13920.4
13920.4
13920.4
13920.4
13920.4
13920.4
13920.4
13920.4
13920.4
13920.4
13920.4
13920.4
13920.4
13920.4
13920.4
13920.4
13920.4
13920.4
13920.4
13920.4
13920.4
13920.4
13920.4
13920.4
13920.4
13920.4
13920.4
13920.4
13920.4
13920.4
13920.4
13920.4
13920.4
13920.4
13920.4
13920.4
13920.4
13920.4
13920.4
13920.4
13920.4
13920.4
13920.4
13920.4
13920.4
13920.4
13920.4
13920.4
13920.4
13920.4
13920.4
13920.4
13920.4
13920.4
13920.4
13920.4
13920.4
13920.4
13920.4
13920.4
13920.4
13920.4
13920.4
13920.4
13920.4
13920.4
13920.4
13920.4
13920.4
13920.4
13920.4
13920.4
13920.4
13920.4
13920.4
13920.4
13920.4
13920.4
13920.4
13920.4
13920.4
13920.4
13920.4
13920.4
13920.4
13920.4
13920.4
13920.4
13920.4
13920.4
13920.4
13920.4
13920.4
13920.4
13920.4
13920.4
13920.4
13920.4
13920.4
13920.4
13920.4
13920.4
13920.4
13920.4
13920.4
13920.4
13920.4
13920.4
13920.4
13920.4
13920.4
13920.4
13920.4
13920.4
13920.4
13920.4
13920.4
13920.4
13920.4
13920.4
13920.4
13920.4
13920.4
13920.4
13920.4
13920.4
13920.4
13920.4
13920.4
13920.4
13920.4
13920.4
13920.4
13920.4
13920.4
13920.4
13920.4
13920.4
13920.4
13920.4
13920.4
13920.4
13920.4
13920.4
13920.4
13920.4
13920.4
13920.4
13920.4
13920.4
13920.4
13920.4
13920.4
13920.4
13920.4
13920.4
13920.4
13920.4
13920.4
13920.4
13920.4
13920.4
13920.4
13920.4
13920.4
13920.4
13920.4
13920.4
13920.4
13920.4
13920.4
13920.4
13920.4
13920.4
13920.4
13920.4
13920.4
13920.4
13920.4
13920.4
13920.4
13920.4
13920.4
13920.4
13920.4
13920.4
13920.4
13920.4
13920.4
13920.4
13920.4
13920.4
13920.4
13920.4
13920.4
13920.4
13920.4
13920.4
13920.4
13920.4
13920.4
13920.4
13920.4
13920.4
13920.4
13920.4
13920.4
13920.4
13920.4
13920.4
13920.4
13920.4
13920.4
13920.4
13920.4
13920.4
13920.4
13920.4
13920.4
13920.4
13920.4
13920.4
13920.4
13920.4
13920.4
13920.4
13920.4
13920.4
13920.4
13920.4
13920.4
13920.4
13920.4
13920.4
13920.4
13920.4
13920.4
13920.4
13920.4
13920.4
13920.4
13920.4
13920.4
13920.4
13920.4
13920.4
13920.4
13920.4
13920.4
13920.4
13920.4
13920.4
13920.4
13920.4
13920.4
13920.4
13920.4
13920.4
13920.4
13920.4
13920.4
13920.4
13920.4
13920.4
13920.4
13920.4
13920.4
13920.4
13920.4
13920.4
13920.4
13920.4
13920.4
13920.4
13920.4
13920.4
13920.4
13920.4
13920.4
13920.4
13920.4
13920.4
13920.4
13920.4
13920.4
13920.4
13920.4
13920.4
13920.4
13920.4
13920.4
13920.4
13920.4
13920.4
13920.4
13920.4
13920.4
13920.4
13920.4
13920.4
13920.4
13920.4
13920.4
13920.4
13920.4
13920.4
13920.4
13920.4
13920.4
13920.4
13920.4
13920.4
13920.4
13920.4
13920.4
13920.4
13920.4
13920.4
13920.4
13920.4
13920.4
13920.4
13920.4
13920.4
13920.4
13920.4
13920.4
13920.4
13920.4
13920.4
13920.4
13920.4
13920.4
13920.4
13920.4
13920.4
13920.4
13920.4
13920.4
13920.4
13920.4
13920.4
13920.4
13920.4
13920.4
13920.4
13920.4
13920.4
13920.4
13920.4
13920.4
13920.4
13920.4
13920.4
13920.4
13920.4
13920.4
13920.4
13920.4
13920.4
13920.4
13920.4
13920.4
13920.4
13920.4
13920.4
13920.4
13920.4
13920.4
13920.4
13920.4
13920.4
13920.4
13920.4
13920.4
13920.4
13920.4
13920.4
13920.4
13920.4
13920.4
13920.4
13920.4
13920.4
13920.4
13920.4
13920.4
13920.4
13920.4
13920.4
13920.4
13920.4
13920.4
13920.4
13920.4
13920.4
13920.4
13920.4
13920.4
13920.4
13920.4
13920.4
13920.4
13920.4
13920.4
13920.4
13920.4
13920.4
13920.4
13920.4
13920.4
13920.4
13920.4
13920.4
13920.4
13920.4
13920.4
13920.4
13920.4
13920.4
13920.4
13920.4
13920.4
13920.4
13920.4
13920.4
13920.4
13920.4
13920.4
13920.4
13920.4
13920.4
13920.4
13920.4
13920.4
13920.4
13920.4
13920.4
13920.4
13920.4
13920.4
13920.4
13920.4
13920.4
13920.4
13920.4
13920.4
13920.4
13920.4
13920.4
13920.4
13920.4
13920.4
13920.4
13920.4
13920.4
13920.4
13920.4
13920.4
13920.4
13920.4
13920.4
13920.4
13920.4
13920.4
13920.4
13920.4
13920.4
13920.4
13920.4
13920.4
13920.4
13920.4
13920.4
13920.4
13920.4
13920.4
13920.4
13920.4
13920.4
13920.4
13920.4
13920.4
13920.4
13920.4
13920.4
13920.4
13920.4
13920.4
13920.4
13920.4
13920.4
13920.4
13920.4
13920.4
13920.4
13920.4
13920.4
13920.4
13920.4
13920.4
13920.4
13920.4
13920.4
13920.4
13920.4
13920.4
13920.4
13920.4
13920.4
13920.4
13920.4
13920.4
13920.4
13920.4
13920.4
13920.4
13920.4
13920.4
13920.4
13920.4
13920.4
13920.4
13920.4
13920.4
13920.4
13920.4
13920.4
13920.4
13920.4
13920.4
13920.4
13920.4
13920.4
13920.4
13920.4
13920.4
13920.4
13920.4
13920.4
13920.4
13920.4
13920.4
13920.4
13920.4
13920.4
13920.4
13920.4
13920.4
13920.4
13920.4
13920.4
13920.4
13920.4
13920.4
13920.4
13920.4
13920.4
13920.4
13920.4
13920.4
13920.4
13920.4
13920.4
13920.4
13920.4
13920.4
13920.4
13920.4
13920.4
13920.4
13920.4
13920.4
13920.4
13920.4
13920.4
13920.4
13920.4
13920.4
13920.4
13920.4
13920.4
13920.4
13920.4
13920.4
13920.4
13920.4
13920.4
13920.4
13920.4
13920.4
13920.4
13920.4
13920.4
13920.4
13920.4
13920.4
13920.4
13920.4
13920.4
13920.4
13920.4
13920.4
13920.4
13920.4
13920.4
13920.4
13920.4
13920.4
13920.4
13920.4
13920.4
13920.4
13920.4
13920.4
13920.4
13920.4
13920.4
13920.4
13920.4
13920.4
13920.4
13920.4
13920.4
13920.4
13920.4
13920.4
13920.4
13920.4
13920.4
13920.4
13920.4
13920.4
13920.4
13920.4
13920.4
13920.4
13920.4
13920.4
13920.4
13920.4
13920.4
13920.4
13920.4
13920.4
13920.4
13920.4
13920.4
13920.4
13920.4
13920.4
13920.4
13920.4
13920.4
13920.4
13920.4
13920.4
13920.4
13920.4
13920.4
13920.4
13920.4
13920.4
13920.4
13920.4
13920.4
13920.4
13920.4
13920.4
13920.4
13920.4
13920.4
13920.4
13920.4
13920.4
13920.4
13920.4
13920.4
13920.4
13920.4
13920.4
13920.4
13920.4
13920.4
13920.4
13920.4
13920.4
13920.4
13920.4
13920.4
13920.4
13920.4
13920.4
13920.4
13920.4
13920.4
13920.4
13920.4
13920.4
13920.4
13920.4
13920.4
13920.4
13920.4
13920.4
13920.4
13920.4
13920.4
13920.4
13920.4
13920.4
13920.4
13920.4
13920.4
13920.4
13920.4
13920.4
13920.4
13920.4
13920.4
13920.4
13920.4
13920.4
13920.4
13920.4
13920.4
13920.4
13920.4
13920.4
13920.4
13920.4
13920.4
13920.4
13920.4
13920.4
13920.4
13920.4
13920.4
13920.4
13920.4
13920.4
13920.4
13920.4
13920.4
13920.4
13920.4
13920.4
13920.4
13920.4
13920.4
13920.4
13920.4
13920.4
13920.4
13920.4
13920.4
13920.4
13920.4
13920.4
13920.4
13920.4
13920.4
13920.4
13920.4
13920.4
13920.4
13920.4
13920.4
13920.4
13920.4
13920.4
13920.4
13920.4
13920.4
13920.4
13920.4
13920.4
13920.4
13920.4
13920.4
13920.4
13920.4
13920.4
13920.4
13920.4
13920.4
13920.4
13920.4
13920.4
13920.4
13920.4
13920.4
13920.4
13920.4
13920.4
13920.4
13920.4
13920.4
13920.4
13920.4
13920.4
13920.4
13920.4
13920.4
13920.4
13920.4
13920.4
13920.4
13920.4
13920.4
13920.4
13920.4
13920.4
13920.4
13920.4
13920.4
13920.4
13920.4
13920.4
13920.4
13920.4
13920.4
13920.4
13920.4
13920.4
13920.4
13920.4
13920.4
13920.4
13920.4
13920.4
13920.4
13920.4
13920.4
13920.4
13920.4
13920.4
13920.4
13920.4
13920.4
13920.4
13920.4
13920.4
13920.4
13920.4
13920.4
13920.4
13920.4
13920.4
13920.4
13920.4
13920.4
13920.4
13920.4
13920.4
13920.4
13920.4
13920.4
13920.4
13920.4
13920.4
13920.4
13920.4
13920.4
13920.4
13920.4
13920.4
13920.4
13920.4
13920.4
13920.4
13920.4
13920.4
13920.4
13920.4
13920.4
13920.4
13920.4
13920.4
13920.4
13920.4
13920.4
13920.4
13920.4
13920.4
13920.4
13920.4
13920.4
13920.4
13920.4
13920.4
13920.4
13920.4
13920.4
13920.4
13920.4
13920.4
13920.4
13920.4
13920.4
13920.4
13920.4
13920.4
13920.4
13920.4
13920.4
13920.4
13920.4
13920.4
13920.4
13920.4
13920.4
13920.4
13920.4
13920.4
13920.4
13920.4
13920.4
13920.4
13920.4
13920.4
13920.4
13920.4
13920.4
13920.4
13920.4
13920.4
13920.4
13920.4
13920.4
13920.4
13920.4
13920.4
13920.4
13920.4
13920.4
13920.4
13920.4
13920.4
13920.4
13920.4
13920.4
13920.4
13920.4
13920.4
13920.4
13920.4
13920.4
13920.4
13920.4
13920.4
13920.4
13920.4
13920.4
13920.4
13920.4
13920.4
13920.4
13920.4
13920.4
13920.4
13920.4
13920.4
13920.4
13920.4
13920.4
13920.4
13920.4
13920.4
13920.4
13920.4
13920.4
13920.4
13920.4
13920.4
13920.4
13920.4
13920.4
13920.4
13920.4
13920.4
13920.4
13920.4
13920.4
13920.4
13920.4
13920.4
13920.4
13920.4
13920.4
13920.4
13920.4
13920.4
13920.4
13920.4
13920.4
13920.4
13920.4
13920.4
13920.4
13920.4
13920.4
13920.4
13920.4
13920.4
13920.4
13920.4
13920.4
13920.4
13920.4
13920.4
13920.4
13920.4
13920.4
13920.4
13920.4
13920.4
13920.4
13920.4
13920.4
13920.4
13920.4
13920.4
13920.4
13920.4
13920.4
13920.4
13920.4
13920.4
13920.4
13920.4
13920.4
13920.4
13920.4
13920.4
13920.4
13920.4
13920.4
13920.4
13920.4
13920.4
13920.4
13920.4
13920.4
13920.4
13920.4
13920.4
13920.4
13920.4
13920.4
13920.4
13920.4
13920.4
13920.4
13920.4
13920.4
13920.4
13920.4
13920.4
13920.4
13920.4
13920.4
13920.4
13920.4
13920.4
13920.4
13920.4
13920.4
13920.4
13920.4
13920.4
13920.4
13920.4
13920.4
13920.4
13920.4
13920.4
13920.4
13920.4
13920.4
13920.4
13920.4
13920.4
13920.4
13920.4
13920.4
13920.4
13920.4
13920.4
13920.4
13920.4
13920.4
13920.4
13920.4
13920.4
13920.4
13920.4
13920.4
13920.4
13920.4
13920.4
13920.4
13920.4
13920.4
13920.4
13920.4
13920.4
13920.4
13920.4
13920.4
13920.4
13920.4
13920.4
13920.4
13920.4
13920.4
13920.4
13920.4
13920.4
13920.4
13920.4
13920.4
13920.4
13920.4
13920.4
13920.4
13920.4
13920.4
13920.4
13920.4
13920.4
13920.4
13920.4
13920.4
13920.4
13920.4
13920.4
13920.4
13920.4
13920.4
13920.4
13920.4
13920.4
13920.4
13920.4
13920.4
13920.4
13920.4
13920.4
13920.4
13920.4
13920.4
13920.4
13920.4
13920.4
13920.4
13920.4
13920.4
13920.4
13920.4
13920.4
13920.4
13920.4
13920.4
13920.4
13920.4
13920.4
13920.4
13920.4
13920.4
13920.4
13920.4
13920.4
13920.4
13920.4
13920.4
13920.4
13920.4
13920.4
13920.4
13920.4
13920.4
13920.4
13920.4
13920.4
13920.4
13920.4
13920.4
13920.4
13920.4
13920.4
13920.4
13920.4
13920.4
13920.4
13920.4
13920.4
13920.4
13920.4
13920.4
13920.4
13920.4
13920.4
13920.4
13920.4
13920.4
13920.4
13920.4
13920.4
13920.4
13920.4
13920.4
13920.4
13920.4
13920.4
13920.4
13920.4
13920.4
13920.4
13920.4
13920.4
13920.5
13920.5
13920.4
13920.4
13920.4
13920.4
13920.4
13920.4
13920.4
13920.4
13920.4
13920.4
13920.4
13920.4
13920.4
13920.4
13920.4
13920.4
13920.4
13920.4
13920.4
13920.4
13920.4
13920.4
13920.4
13920.4
13920.4
13920.4
13920.4
13920.4
13920.4
13920.4
13920.4
13920.4
13920.4
13920.4
13920.4
13920.4
13920.4
13920.4
13920.4
13920.4
13920.4
13920.4
13920.4
13920.4
13920.4
13920.4
13920.4
13920.4
13920.4
13920.4
13920.4
13920.4
13920.4
13920.4
13920.4
13920.4
13920.4
13920.4
13920.4
13920.4
13920.4
13920.4
13920.4
13920.4
13920.4
13920.4
13920.4
13920.4
13920.4
13920.4
13920.4
13920.4
13920.4
13920.4
13920.4
13920.5
13920.5
13920.5
13920.5
13920.5
13920.5
13920.5
13920.5
13920.4
13920.4
13920.4
13920.4
13920.4
13920.4
13920.4
13920.4
13920.4
13920.4
13920.4
13920.4
13920.4
13920.4
13920.4
13920.4
13920.4
13920.4
13920.4
13920.4
13920.4
13920.4
13920.4
13920.4
13920.4
13920.4
13920.4
13920.4
13920.4
13920.4
13920.4
13920.4
13920.4
13920.4
13920.4
13920.4
13920.4
13920.4
13920.4
13920.4
13920.4
13920.4
13920.4
13920.4
13920.4
13920.4
13920.4
13920.4
13920.4
13920.4
13920.4
13920.4
13920.4
13920.4
13920.4
13920.4
13920.4
13920.4
13920.4
13920.4
13920.4
13920.4
13920.4
13920.4
13920.4
13920.4
13920.4
13920.4
13920.4
13920.4
13920.4
13920.5
13920.5
13920.5
13920.5
13920.5
13920.5
13920.5
13920.5
13920.5
13920.4
13920.4
13920.4
13920.4
13920.4
13920.4
13920.4
13920.4
13920.4
13920.4
13920.4
13920.4
13920.4
13920.4
13920.4
13920.4
13920.4
13920.4
13920.4
13920.4
13920.4
13920.4
13920.4
13920.4
13920.4
13920.4
13920.4
13920.4
13920.4
13920.4
13920.4
13920.4
13920.4
13920.4
13920.4
13920.4
13920.4
13920.4
13920.4
13920.4
13920.4
13920.4
13920.4
13920.4
13920.4
13920.4
13920.4
13920.4
13920.4
13920.4
13920.4
13920.4
13920.4
13920.4
13920.4
13920.4
13920.4
13920.4
13920.4
13920.4
13920.4
13920.4
13920.4
13920.4
13920.4
13920.4
13920.4
13920.4
13920.4
13920.4
13920.4
13920.5
13920.5
13920.5
13920.5
13920.5
13920.5
13920.5
13920.5
13920.5
13920.5
13920.4
13920.4
13920.4
13920.4
13920.4
13920.4
13920.4
13920.4
13920.4
13920.4
13920.4
13920.4
13920.4
13920.4
13920.4
13920.4
13920.4
13920.4
13920.4
13920.4
13920.4
13920.4
13920.4
13920.4
13920.4
13920.4
13920.4
13920.4
13920.4
13920.4
13920.4
13920.4
13920.4
13920.4
13920.4
13920.4
13920.4
13920.4
13920.4
13920.4
13920.4
13920.4
13920.4
13920.4
13920.4
13920.4
13920.4
13920.4
13920.4
13920.4
13920.4
13920.4
13920.4
13920.4
13920.4
13920.4
13920.4
13920.4
13920.4
13920.4
13920.4
13920.4
13920.4
13920.4
13920.4
13920.4
13920.4
13920.4
13920.4
13920.4
13920.4
13920.4
13920.4
13920.4
13920.4
13920.4
13920.4
13920.4
13920.4
13920.4
13920.4
13920.4
13920.4
13920.4
13920.4
13920.4
13920.4
13920.4
13920.4
13920.4
13920.4
13920.4
13920.4
13920.4
13920.4
13920.4
13920.4
13920.4
13920.4
13920.4
13920.4
13920.4
13920.4
13920.4
13920.4
13920.4
13920.4
13920.4
13920.4
13920.4
13920.4
13920.4
13920.4
13920.4
13920.4
0.0374369
0.0468636
0.0495943
0.0527078
0.0547783
0.0563424
0.0577719
0.0587563
0.0592747
0.0594048
0.0596744
0.0604937
0.0611286
0.0615073
0.0618969
0.0620466
0.0620552
0.0618212
0.0612978
0.0605034
0.0597395
0.0592943
0.058732
0.0581616
0.0578931
0.0581361
0.0585792
0.0595203
0.0614617
0.0640943
0.0680227
0.0729302
0.078267
0.0839101
0.0897378
0.0953657
0.100298
0.103956
0.105831
0.105975
0.104425
0.101435
0.0968675
0.0906944
0.0835186
0.0761699
0.0698379
0.0639545
0.05852
0.0536365
0.0492411
0.0453987
0.0421376
0.039301
0.0371206
0.035708
0.0346262
0.0341023
0.0340583
0.0340324
0.0340384
0.0340839
0.0350787
0.0361642
0.037979
0.0407845
0.043326
0.0455235
0.0473258
0.0486577
0.0494686
0.0497207
0.0493431
0.0483078
0.0468166
0.0453898
0.0430706
0.0400862
0.0371982
0.028271
0.00541055
0.00543595
0.00548126
0.00554691
0.00563442
0.00574532
0.00588174
0.00604629
0.00624202
0.00647244
0.00674177
0.00705631
0.00742365
0.00785157
0.00835034
0.00893319
0.0096168
0.010422
0.0113722
0.0124915
0.0138079
0.0153633
0.0172068
0.0193778
0.0219118
0.0248614
0.0282847
0.0322299
0.0367583
0.0419228
0.0477738
0.0543713
0.0616716
0.0694986
0.0775714
0.0852568
0.092047
0.0974535
0.101041
0.102566
0.102
0.0994819
0.0952268
0.0896235
0.083177
0.0764052
0.0694791
0.0623702
0.0554309
0.0488627
0.0428071
0.0373606
0.032543
0.0283393
0.0246977
0.0215193
0.0187312
0.0162845
0.0141256
0.0122448
0.0106402
0.0092869
0.00814271
0.00718076
0.00638367
0.00571415
0.00514517
0.00466423
0.00425768
0.00391314
0.00362054
0.00337207
0.00316202
0.00298649
0.00284213
0.00272488
0.00263211
0.00256289
0.00251614
0.00249337
0.00547467
0.00549798
0.00554235
0.00560939
0.00570005
0.00581554
0.00595746
0.00612804
0.00633027
0.00656804
0.00684624
0.00717097
0.00754984
0.00799216
0.00850904
0.00911359
0.00982119
0.0106498
0.01162
0.0127556
0.0140837
0.0156362
0.0174495
0.019563
0.0220208
0.0248744
0.028181
0.0319977
0.0363897
0.0414077
0.0470953
0.0534799
0.0605286
0.0680998
0.0760945
0.0841311
0.0915892
0.0977356
0.101964
0.103931
0.103577
0.100983
0.0963882
0.0902479
0.0831253
0.0755139
0.067831
0.0605517
0.053649
0.0472392
0.041416
0.0362246
0.0316542
0.0276616
0.0241814
0.0211394
0.0184718
0.0161301
0.0140832
0.0123056
0.0107725
0.00945736
0.00833293
0.00737664
0.00656627
0.00587962
0.00529833
0.00480607
0.00438838
0.00403332
0.00373134
0.00347483
0.00325782
0.00307568
0.00292493
0.0028028
0.00270705
0.00263618
0.00258924
0.00256542
0.00541358
0.00543606
0.00547937
0.00554466
0.00563266
0.0057445
0.00588181
0.00604676
0.00624216
0.00647161
0.00673977
0.00705264
0.00741755
0.0078434
0.00834107
0.00892371
0.00960699
0.0104091
0.0113509
0.0124556
0.0137503
0.0152658
0.0170353
0.0190945
0.0214831
0.0242464
0.0274362
0.0311143
0.0353475
0.0402062
0.045763
0.0520855
0.059215
0.0671304
0.0755183
0.0841106
0.0922982
0.0992577
0.104199
0.106611
0.106325
0.103394
0.0981018
0.0910545
0.0829982
0.0746304
0.066504
0.058861
0.0518567
0.0455029
0.0398181
0.0347983
0.0304062
0.026583
0.0232587
0.0203618
0.0178297
0.0156133
0.013675
0.0119845
0.0105168
0.00924928
0.00816007
0.00722768
0.00643314
0.00575879
0.00518724
0.0047027
0.00429154
0.00394247
0.00364616
0.00339503
0.00318299
0.00300526
0.0028581
0.00273869
0.00264505
0.0025758
0.00253001
0.00250697
0.00536106
0.00538301
0.00542498
0.00548808
0.00557297
0.00568065
0.00581256
0.00597064
0.0061575
0.00637654
0.00663214
0.0069298
0.00727641
0.0076804
0.00815202
0.0087036
0.00934973
0.0101074
0.0109959
0.012037
0.0132553
0.0146784
0.0163368
0.0182639
0.0204974
0.0230808
0.026066
0.0295157
0.0335046
0.0381206
0.0434665
0.0496519
0.0567777
0.0649115
0.0740158
0.0837644
0.0934289
0.101882
0.107975
0.111022
0.110821
0.107385
0.100998
0.0924678
0.0829065
0.0732915
0.0642901
0.0562311
0.0491266
0.0428594
0.0373584
0.0325691
0.0284237
0.0248459
0.021756
0.0190773
0.0167438
0.014704
0.0129192
0.0113598
0.0100025
0.00882608
0.00781094
0.00693889
0.00619314
0.00555758
0.00501676
0.00455684
0.00416599
0.0038338
0.00355142
0.0033116
0.00310865
0.00293814
0.00279668
0.00268169
0.00259129
0.00252417
0.00247952
0.00245675
0.00527111
0.00529163
0.00533099
0.00539031
0.00547014
0.00557132
0.00569503
0.00584295
0.00601737
0.00622131
0.00645872
0.0067346
0.00705523
0.00742832
0.00786322
0.00837111
0.0089651
0.00966034
0.010474
0.0114252
0.0125355
0.0138287
0.0153314
0.0170737
0.0190903
0.0214231
0.0241235
0.0272564
0.0309039
0.0351719
0.0401969
0.0461502
0.0532318
0.0616466
0.071597
0.0829887
0.0949447
0.105748
0.113592
0.117574
0.117507
0.113363
0.105331
0.0944914
0.0826169
0.0712243
0.0611184
0.0526297
0.0454425
0.0393202
0.034081
0.0296049
0.0257859
0.0225281
0.0197423
0.0173467
0.0152718
0.0134634
0.0118813
0.0104961
0.00928514
0.00822984
0.00731398
0.00652274
0.00584214
0.00525887
0.00476029
0.00433475
0.00397187
0.00366252
0.00339887
0.00317451
0.00298428
0.00282418
0.00269115
0.0025829
0.00249775
0.00243456
0.00239259
0.00237123
0.00515236
0.00517122
0.00520739
0.0052619
0.00533517
0.00542784
0.00554084
0.00567552
0.00583377
0.00601813
0.00623197
0.00647963
0.00676655
0.00709947
0.00748657
0.00793753
0.0084637
0.00907799
0.00979492
0.0106306
0.0116027
0.0127309
0.014037
0.0155462
0.0172888
0.0193021
0.0216343
0.0243482
0.027528
0.0312901
0.0357981
0.0412835
0.0480597
0.0565653
0.0673406
0.0809157
0.0963276
0.11102
0.121491
0.126717
0.126797
0.121674
0.111093
0.0966632
0.0814048
0.0676766
0.0563044
0.0476145
0.0405506
0.0347492
0.0299227
0.025889
0.022509
0.0196671
0.0172651
0.0152187
0.0134576
0.0119271
0.0105872
0.00940958
0.00837411
0.00746555
0.00667132
0.00598016
0.00538149
0.00486513
0.00442123
0.00404047
0.00371431
0.00343515
0.00319641
0.00299261
0.00281934
0.00267314
0.00255136
0.00245206
0.00237383
0.00231573
0.00227713
0.0022575
0.00500759
0.00502453
0.00505693
0.00510571
0.00517113
0.00525359
0.00535372
0.00547251
0.00561138
0.00577231
0.00595797
0.00617187
0.00641847
0.0067033
0.0070331
0.00741583
0.0078607
0.00837808
0.00897943
0.00967716
0.0104847
0.0114165
0.012489
0.0137209
0.0151355
0.0167627
0.018642
0.0208272
0.0233931
0.0264498
0.0301673
0.0348056
0.0407508
0.0486597
0.0597327
0.0759306
0.097154
0.118954
0.132856
0.139426
0.139709
0.133722
0.119468
0.098215
0.0775861
0.0612258
0.0495735
0.0406915
0.0341395
0.0290079
0.0248471
0.0214349
0.0186272
0.0163066
0.0143728
0.012742
0.0113467
0.0101355
0.00907158
0.00813028
0.00729518
0.00655503
0.00590133
0.00532679
0.00482451
0.00438759
0.00400911
0.00368223
0.00340049
0.003158
0.00294958
0.00277084
0.00261822
0.00248892
0.00238083
0.0022924
0.00222256
0.00217059
0.00213602
0.00211842
0.00483889
0.00485364
0.00488174
0.00492397
0.0049804
0.00505118
0.00513663
0.00523729
0.00535408
0.00548832
0.00564193
0.00581746
0.00601825
0.00624849
0.00651327
0.00681862
0.00717137
0.00757907
0.00804974
0.00859169
0.00921339
0.00992358
0.0107317
0.0116488
0.0126887
0.0138697
0.0152166
0.0167635
0.0185585
0.0206761
0.0232494
0.0265131
0.0308037
0.0367031
0.0463057
0.0641723
0.0919653
0.119924
0.140651
0.15153
0.153245
0.145456
0.126847
0.0971161
0.0677947
0.048969
0.0379302
0.0308102
0.025765
0.0219188
0.0188292
0.016293
0.0142176
0.012526
0.0111381
0.00998144
0.00899672
0.00813956
0.00737946
0.00669724
0.0060817
0.00552649
0.00502771
0.00458238
0.00418747
0.00383958
0.00353481
0.00326897
0.0030378
0.00283721
0.00266351
0.00251352
0.00238461
0.00227475
0.00218241
0.00210652
0.00204634
0.00200142
0.00197149
0.00195623
0.00464886
0.00466121
0.00468459
0.0047196
0.00476613
0.00482407
0.00489337
0.00497412
0.00506668
0.00517168
0.00529019
0.00542374
0.00557446
0.00574507
0.00593893
0.00615994
0.00641246
0.00670098
0.00702987
0.00740302
0.00782355
0.00829378
0.00881542
0.00939005
0.0100197
0.0107072
0.011456
0.0122694
0.0131484
0.0140947
0.0151409
0.0164038
0.0179184
0.0192416
0.021269
0.032409
0.0628506
0.102754
0.132701
0.1517
0.15635
0.14069
0.104193
0.0732032
0.0432512
0.0261306
0.0205635
0.0176964
0.0153141
0.0134461
0.0118961
0.0105344
0.00937473
0.00842385
0.00765234
0.00701675
0.00647568
0.00599694
0.00555933
0.00515122
0.00476783
0.00440846
0.00407426
0.00376676
0.00348694
0.00323494
0.00300998
0.00281051
0.00263453
0.00247983
0.00234427
0.00222591
0.00212315
0.00203474
0.00195981
0.00189776
0.00184828
0.00181116
0.00178637
0.00177369
0.00444043
0.00445021
0.00446854
0.00449585
0.00453182
0.00457606
0.00462814
0.0046877
0.00475449
0.00482844
0.0049097
0.00499878
0.00509651
0.00520409
0.00532307
0.00545523
0.00560233
0.00576578
0.00594621
0.00614296
0.00635361
0.00657372
0.00679661
0.00701342
0.00721263
0.00737861
0.00748836
0.00750556
0.00736881
0.00697445
0.00619154
0.00492072
0.00266052
-0.00322575
-0.0158841
-0.0225227
0.0231336
0.151729
0.172486
0.168442
0.169863
0.15876
0.106237
0.0286655
-0.00704737
-0.0124823
-0.00319532
0.00172151
0.003148
0.00388979
0.00427154
0.00432382
0.0042323
0.0041169
0.00401787
0.00393616
0.00385827
0.00377022
0.00366346
0.00353582
0.00338996
0.00323134
0.00306638
0.00290117
0.00274071
0.00258863
0.00244718
0.00231747
0.00219972
0.0020936
0.00199852
0.00191382
0.00183892
0.00177342
0.00171709
0.00166987
0.00163183
0.00160308
0.00158379
0.00157389
0.0042167
0.0042238
0.00423689
0.00425618
0.00428117
0.00431117
0.00434539
0.00438299
0.00442312
0.00446497
0.00450782
0.00455108
0.00459431
0.00463719
0.00467947
0.00472079
0.00476041
0.00479672
0.0048267
0.00484526
0.00484451
0.00481323
0.00473633
0.00459414
0.004361
0.0040018
0.00346542
0.00267386
0.00150006
-0.000271227
-0.0029341
-0.00677382
-0.0127329
-0.024468
-0.0441257
-0.0542528
-0.0161528
0.302892
0.489082
0.45114
0.398531
0.718795
0.859292
0.0172688
-0.0546641
-0.0542018
-0.0291045
-0.0152553
-0.00960161
-0.00599783
-0.00355719
-0.00202191
-0.000993932
-0.000238336
0.000355267
0.00083638
0.00122376
0.00152492
0.00174626
0.00189631
0.00198583
0.00202665
0.00203042
0.00200769
0.00196729
0.0019162
0.00185956
0.00180099
0.00174286
0.00168665
0.00163328
0.00158335
0.0015373
0.00149557
0.00145857
0.00142679
0.00140067
0.00138066
0.0013671
0.0013601
0.00398089
0.00398528
0.00399302
0.00400418
0.00401801
0.00403357
0.0040497
0.0040651
0.00407833
0.00408785
0.00409207
0.00408935
0.004078
0.00405624
0.00402209
0.00397318
0.0039064
0.00381735
0.00369965
0.00354409
0.00333772
0.003063
0.00269684
0.00220939
0.00156165
0.000700357
-0.000451177
-0.00200755
-0.00415083
-0.00718557
-0.0115197
-0.0175651
-0.0266465
-0.042856
-0.0655308
-0.0741296
-0.0515492
1.29282
1.79186
2.69239
2.49987
2.43056
3.41763
-0.00951061
-0.0908683
-0.0772199
-0.0472375
-0.0299661
-0.0212691
-0.0152426
-0.011009
-0.0081243
-0.00604442
-0.00445825
-0.00320038
-0.00217919
-0.0013462
-0.000672928
-0.000138098
0.000277563
0.000592789
0.000825573
0.000992511
0.00110825
0.00118515
0.00123324
0.00126031
0.00127229
0.00127353
0.00126722
0.00125571
0.00124077
0.00122384
0.00120614
0.00118875
0.00117263
0.00115864
0.00114751
0.00113981
0.00113577
0.0037363
0.00373799
0.00374042
0.00374348
0.00374623
0.00374748
0.00374571
0.00373918
0.00372588
0.00370361
0.00366994
0.00362223
0.00355762
0.00347296
0.0033647
0.00322865
0.0030596
0.00285068
0.0025926
0.0022726
0.00187338
0.00137188
0.000738068
-6.67353e-05
-0.0010928
-0.00240801
-0.00410858
-0.00633499
-0.00930474
-0.0133737
-0.0190062
-0.0266948
-0.0380921
-0.0575488
-0.0819416
-0.091067
-0.0771492
16.0382
8.7214
16.4142
16.2195
4.48234
5.58026
-0.059484
-0.106643
-0.0842871
-0.0579134
-0.0411501
-0.0307632
-0.0231379
-0.0176216
-0.0136565
-0.0106821
-0.00836871
-0.00651825
-0.00501001
-0.00377266
-0.00276009
-0.00193806
-0.00127786
-0.00075371
-0.000342187
-2.23809e-05
0.000223911
0.000412104
0.000554859
0.000662302
0.000742373
0.000801206
0.00084351
0.000872929
0.000892342
0.000904086
0.000910122
0.000912129
0.000911554
0.000909625
0.000907338
0.000905467
0.000904376
0.0034862
0.00348526
0.00348252
0.0034777
0.0034697
0.00345706
0.00343796
0.00341025
0.00337142
0.00331863
0.00324868
0.00315805
0.00304281
0.00289858
0.00272044
0.00250263
0.00223818
0.00191825
0.0015312
0.0010615
0.000488368
-0.000215572
-0.00108587
-0.00216814
-0.00352103
-0.00522226
-0.0073793
-0.0101449
-0.0137479
-0.0185526
-0.0250245
-0.0336832
-0.0461857
-0.0658018
-0.0877943
-0.0973791
-0.0855598
34.5458
730.642
200.623
199.844
636.648
4.39163
-0.0852229
-0.0986217
-0.0828459
-0.0637947
-0.0488158
-0.0377622
-0.029377
-0.0231098
-0.0183806
-0.0147229
-0.0118286
-0.00948838
-0.00756935
-0.00598624
-0.00468028
-0.0036074
-0.00273158
-0.00202151
-0.00144953
-0.000991312
-0.000625837
-0.000335258
-0.000104767
7.76715e-05
0.000221685
0.000334909
0.000423364
0.000491829
0.000544144
0.000583455
0.000612391
0.000633173
0.000647679
0.000657473
0.000663804
0.000667622
0.000669413
0.00323381
0.00323035
0.00322269
0.00321036
0.00319212
0.00316631
0.00313082
0.00308313
0.0030203
0.00293892
0.00283514
0.00270463
0.00254254
0.00234348
0.00210134
0.00180915
0.00145861
0.00103941
0.000538283
-6.22897e-05
-0.000785405
-0.0016614
-0.00272965
-0.00404058
-0.00565832
-0.00766568
-0.0101734
-0.0133334
-0.0173643
-0.022601
-0.0294697
-0.0384357
-0.0508652
-0.0688639
-0.0866258
-0.0934534
-0.0857301
40.917
8591.25
6238.4
6245.17
8366.05
2.06466
-0.0983353
-0.0925259
-0.0838979
-0.0687618
-0.0541062
-0.0426219
-0.0340132
-0.0273708
-0.0221639
-0.0180481
-0.0147375
-0.0120286
-0.00979045
-0.00793213
-0.00638789
-0.00510782
-0.00405121
-0.00318309
-0.00247296
-0.00189417
-0.00142374
-0.00104209
-0.000732839
-0.000482513
-0.000280171
-0.00011699
1.412e-05
0.000118876
0.000201927
0.00026711
0.000317626
0.000356165
0.000384981
0.00040593
0.000420478
0.00042973
0.000434279
0.00298217
0.00297637
0.0029641
0.00294478
0.00291703
0.002879
0.00282837
0.0027623
0.00267748
0.00257002
0.00243553
0.00226902
0.00206489
0.00181689
0.00151806
0.00116051
0.000735074
0.000230623
-0.000367027
-0.00107659
-0.00192229
-0.00293587
-0.00415871
-0.00564401
-0.00745871
-0.00968713
-0.0124376
-0.0158524
-0.0201271
-0.0255467
-0.0324837
-0.0412982
-0.0528245
-0.0692269
-0.0830386
-0.0889867
-0.0820633
48.6156
11426.6
11413.4
11412.5
11430.2
1.64495
-0.0924647
-0.0950876
-0.0889579
-0.074885
-0.0579713
-0.0458359
-0.0372345
-0.0304192
-0.0249716
-0.0206051
-0.0170383
-0.0140862
-0.0116285
-0.00957196
-0.00784972
-0.00641043
-0.00521162
-0.00421656
-0.00339336
-0.00271427
-0.00215525
-0.00169571
-0.00131828
-0.00100856
-0.000754686
-0.000546994
-0.000377589
-0.000240025
-0.000129013
-4.01621e-05
3.01947e-05
8.51339e-05
0.000127219
0.000158545
0.000180759
0.000195091
0.000202224
0.00273416
0.00272621
0.00270975
0.00268407
0.00264769
0.00259862
0.00253435
0.00245183
0.00234741
0.00221687
0.00205537
0.0018574
0.00161681
0.00132673
0.00097955
0.000566845
7.90673e-05
-0.00049504
-0.00116972
-0.00196458
-0.00290365
-0.0040184
-0.0053503
-0.00695359
-0.00889576
-0.0112599
-0.0141484
-0.0176869
-0.022053
-0.0274813
-0.0343071
-0.0429008
-0.0529191
-0.0689656
-0.0796957
-0.0851874
-0.0796668
57.1273
11731.6
11733.7
11732.5
11731.8
6.84054
-0.091168
-0.0978265
-0.09316
-0.0800783
-0.0602005
-0.0477533
-0.0391382
-0.0323108
-0.0268384
-0.0223967
-0.018714
-0.0156378
-0.0130618
-0.0108846
-0.00904542
-0.00749619
-0.00619544
-0.00510612
-0.00419644
-0.00343876
-0.00280892
-0.00228591
-0.00185199
-0.00149234
-0.00119463
-0.000948643
-0.000745969
-0.000579654
-0.000443945
-0.000334045
-0.00024593
-0.00017623
-0.000122142
-8.13897e-05
-5.21886e-05
-3.32143e-05
-2.3716e-05
0.00249237
0.00248253
0.00246234
0.00243102
0.00238701
0.00232824
0.00225207
0.00215525
0.00203396
0.00188369
0.00169929
0.00147493
0.00120405
0.000879385
0.000492914
3.59648e-05
-0.000500948
-0.00112837
-0.00185892
-0.00271491
-0.0037181
-0.00489776
-0.006293
-0.00795905
-0.00996222
-0.012382
-0.015315
-0.0188461
-0.0231669
-0.0284787
-0.035
-0.0431103
-0.0531297
-0.0664159
-0.0758914
-0.0815444
-0.0765863
61.5424
11985
12016.6
12013.8
11978.4
11.9411
-0.0907201
-0.0949262
-0.09107
-0.0797065
-0.0605295
-0.0482765
-0.03952
-0.0331372
-0.0278357
-0.0234533
-0.0197756
-0.0166811
-0.0140938
-0.0118661
-0.00996678
-0.00835536
-0.00699303
-0.0058422
-0.00487282
-0.00405868
-0.00337651
-0.00280511
-0.00232699
-0.00192747
-0.00159415
-0.00131662
-0.00108617
-0.000895572
-0.000738789
-0.000610764
-0.000507241
-0.000424638
-0.000359989
-0.000310896
-0.000275487
-0.000252375
-0.000240764
0.00225916
0.00224766
0.00222426
0.0021881
0.00213757
0.00207055
0.00198434
0.00187561
0.00174035
0.00157394
0.00137104