/*--------------------------------*- C++ -*----------------------------------*\
| =========                 |                                                 |
| \\      /  F ield         | OpenFOAM: The Open Source CFD Toolbox           |
|  \\    /   O peration     | Version:  2412                                  |
|   \\  /    A nd           | Website:  www.openfoam.com                      |
|    \\/     M anipulation  |                                                 |
\*---------------------------------------------------------------------------*/
FoamFile
{
    version     2.0;
    format      ascii;
    arch        "LSB;label=32;scalar=64";
    class       surfaceScalarField;
    location    "6.89";
    object      alphaPhi0.water;
}
// * * * * * * * * * * * * * * * * * * * * * * * * * * * * * * * * * * * * * //

dimensions      [0 3 -1 0 0 0 0];

oriented        oriented;

internalField   nonuniform List<scalar> 
158920
(
-3.17865e-05
3.17848e-05
-6.26993e-05
3.0763e-05
-9.33817e-05
3.05533e-05
-0.000123387
2.99082e-05
-0.000153324
2.9867e-05
-0.000183298
2.99239e-05
-0.000213279
2.99454e-05
-0.000243248
2.99442e-05
-0.000273169
2.99037e-05
-0.000303068
2.98873e-05
-0.000332928
2.98531e-05
-0.000362734
2.98003e-05
-0.00039248
2.97412e-05
-0.000422159
2.96762e-05
-0.000451767
2.96067e-05
-0.000481291
2.95222e-05
-0.000510717
2.94239e-05
-0.000540038
2.93199e-05
-0.000569243
2.92045e-05
-0.000598324
2.90794e-05
-0.000627272
2.89472e-05
-0.000656078
2.8805e-05
-0.000684733
2.86546e-05
-0.000713229
2.8495e-05
-0.000741556
2.8327e-05
-0.000769708
2.81514e-05
-0.000797675
2.79666e-05
-0.000825449
2.77731e-05
-0.000853022
2.75726e-05
-0.000880387
2.73649e-05
-0.000907536
2.71484e-05
-0.000934461
2.69248e-05
-0.000961155
2.66932e-05
-0.00098761
2.64539e-05
-0.00101382
2.62068e-05
-0.00103977
2.5952e-05
-0.00106546
2.56894e-05
-0.00109088
2.54189e-05
-0.00111602
2.51406e-05
-0.00114087
2.48545e-05
-0.00116544
2.45606e-05
-0.0011897
2.4259e-05
-0.00121365
2.39497e-05
-0.00123728
2.36328e-05
-0.00126059
2.33082e-05
-0.00128356
2.2976e-05
-0.0013062
2.26363e-05
-0.00132849
2.22889e-05
-0.00135042
2.1934e-05
-0.00137199
2.15715e-05
-0.0013932
2.12014e-05
-0.00141402
2.08237e-05
-0.00143446
2.04386e-05
-0.00145451
2.00462e-05
-0.00147415
1.96467e-05
-0.00149339
1.92401e-05
-0.00151222
1.88264e-05
-0.00153063
1.84054e-05
-0.0015486
1.79774e-05
-0.00156615
1.75422e-05
-0.00158325
1.71001e-05
-0.0015999
1.66511e-05
-0.00161609
1.61955e-05
-0.00163183
1.57332e-05
-0.00164709
1.52643e-05
-0.00166188
1.47887e-05
-0.00167619
1.43066e-05
-0.00169001
1.38179e-05
-0.00170333
1.33227e-05
-0.00171615
1.28212e-05
-0.00172846
1.23134e-05
-0.00174026
1.17996e-05
-0.00175154
1.12798e-05
-0.0017623
1.07542e-05
-0.00177252
1.02226e-05
-0.00178221
9.68516e-06
-0.00179135
9.14195e-06
-0.00179994
8.59303e-06
-0.00180798
8.03852e-06
-0.00181546
7.47853e-06
-0.00182237
6.91323e-06
-0.00182871
6.34276e-06
-0.00183448
5.76725e-06
-0.00183967
5.18684e-06
-0.00184427
4.60165e-06
-0.00184828
4.01176e-06
-0.0018517
3.41728e-06
-0.00185452
2.81832e-06
-0.00185673
2.21501e-06
-0.00185834
1.60753e-06
-0.00185934
9.96134e-07
-0.00185972
3.82155e-07
-0.00185947
-2.48982e-07
-0.0018586
-8.71322e-07
-0.00185711
-1.49639e-06
-0.00185497
-2.13199e-06
-0.00185221
-2.76202e-06
-0.00184882
-3.39586e-06
-0.00184478
-4.03647e-06
-0.0018401
-4.68466e-06
-0.00183477
-5.3308e-06
-0.00182879
-5.97492e-06
-0.00182216
-6.626e-06
-0.00181488
-7.28035e-06
-0.00180695
-7.93851e-06
-0.00179835
-8.59631e-06
-0.0017891
-9.2527e-06
-0.00177918
-9.91332e-06
-0.00176861
-1.05761e-05
-0.00175737
-1.12402e-05
-0.00174546
-1.19055e-05
-0.00173289
-1.2572e-05
-0.00171965
-1.32379e-05
-0.00170575
-1.39047e-05
-0.00169117
-1.45723e-05
-0.00167593
-1.52399e-05
-0.00166003
-1.59074e-05
-0.00164345
-1.65749e-05
-0.00162621
-1.72421e-05
-0.0016083
-1.79083e-05
-0.00158973
-1.85735e-05
-0.00157049
-1.92384e-05
-0.00155058
-1.99011e-05
-0.00153002
-2.05631e-05
-0.0015088
-2.12238e-05
-0.00148691
-2.18827e-05
-0.00146437
-2.25407e-05
-0.00144117
-2.31963e-05
-0.00141733
-2.38478e-05
-0.00139283
-2.44969e-05
-0.00136768
-2.51445e-05
-0.00134189
-2.57908e-05
-0.00131546
-2.64313e-05
-0.00128839
-2.70677e-05
-0.00126069
-2.77029e-05
-0.00123235
-2.8334e-05
-0.00120339
-2.89593e-05
-0.00117381
-2.95819e-05
-0.0011436
-3.02005e-05
-0.00111279
-3.08128e-05
-0.00108137
-3.14227e-05
-0.00104934
-3.20254e-05
-0.00101672
-3.26227e-05
-0.000983498
-3.32166e-05
-0.000949694
-3.38023e-05
-0.000915309
-3.43843e-05
-0.000880349
-3.49588e-05
-0.00084482
-3.55278e-05
-0.000808729
-3.60893e-05
-0.000772084
-3.6644e-05
-0.000734891
-3.71919e-05
-0.000697157
-3.77324e-05
-0.00065889
-3.8266e-05
-0.000620098
-3.87917e-05
-0.000580787
-3.93093e-05
-0.000540968
-3.98184e-05
-0.000500648
-4.03196e-05
-0.000459836
-4.08116e-05
-0.00041854
-4.12951e-05
-0.000376771
-4.17686e-05
-0.000334537
-4.2234e-05
-0.000291848
-4.26887e-05
-0.000248713
-4.31344e-05
-0.000205147
-4.35665e-05
-0.000161159
-4.39876e-05
-0.000116754
-4.44057e-05
-7.19353e-05
-4.4819e-05
-2.67156e-05
-4.52199e-05
1.88886e-05
-4.56045e-05
6.4867e-05
-4.59788e-05
0.00011121
-4.63436e-05
0.000157907
-4.66978e-05
0.00020495
-4.70437e-05
0.000252318
-4.73683e-05
0.000299989
-4.76717e-05
0.000347953
-4.79655e-05
0.0003962
-4.82478e-05
0.000444718
-4.8519e-05
0.000493493
-4.87757e-05
0.000542504
-4.90124e-05
0.000591734
-4.92302e-05
0.000641194
-4.94613e-05
0.000690846
-4.96525e-05
0.000740675
-4.98307e-05
0.00079067
-4.99961e-05
0.000840815
-5.01459e-05
0.000891093
-5.02785e-05
0.000941488
-5.03956e-05
0.000991984
-5.04965e-05
0.00104256
-5.05779e-05
0.0010932
-5.06434e-05
0.0011439
-5.06921e-05
0.00119462
-5.07234e-05
0.00124535
-5.07348e-05
0.00129608
-5.07278e-05
0.00134678
-5.07011e-05
0.00139744
-5.06554e-05
0.00144803
-5.05917e-05
0.00149854
-5.05098e-05
0.00154895
-5.04031e-05
0.00159922
-5.02768e-05
0.00164936
-5.0131e-05
0.00169933
-4.99678e-05
0.0017491
-4.97771e-05
0.00179867
-4.95665e-05
0.00184801
-4.93338e-05
0.00189709
-4.9079e-05
0.00194589
-4.88005e-05
0.00199439
-4.84992e-05
0.00204257
-4.81768e-05
0.00209039
-4.78264e-05
0.00213785
-4.74528e-05
0.00218491
-4.70562e-05
0.00223154
-4.66332e-05
0.00227773
-4.61832e-05
0.00232344
-4.57145e-05
0.00236866
-4.52147e-05
0.00241335
-4.46868e-05
0.00245749
-4.41356e-05
0.00250104
-4.35556e-05
0.002544
-4.29496e-05
0.00258631
-4.23153e-05
0.00262796
-4.16507e-05
0.00266893
-4.09621e-05
0.00270917
-4.02379e-05
0.00274866
-3.94965e-05
0.00278738
-3.87149e-05
0.00282529
-3.79094e-05
0.00286236
-3.70708e-05
0.00289856
-3.62011e-05
0.00293386
-3.53008e-05
0.00296823
-3.43708e-05
0.00300164
-3.34097e-05
0.00303406
-3.24165e-05
0.00306545
-3.1392e-05
0.00309579
-3.03351e-05
0.00312503
-2.92459e-05
0.00315316
-2.81244e-05
0.00318013
-2.69709e-05
0.00320591
-2.57846e-05
0.00323048
-2.45645e-05
0.00325379
-2.3313e-05
0.00327582
-2.20269e-05
0.00329653
-2.07092e-05
0.00331588
-1.93564e-05
0.00333385
-1.79718e-05
0.0033504
-1.65537e-05
0.00336551
-1.51085e-05
0.00337914
-1.3626e-05
0.00339125
-1.21077e-05
0.00340181
-1.05605e-05
0.00341079
-8.98216e-06
0.00341816
-7.37215e-06
0.00342389
-5.73222e-06
0.00342796
-4.06679e-06
0.00343032
-2.37037e-06
0.00343097
-6.45015e-07
0.00342981
1.15183e-06
0.00342688
2.93272e-06
0.00342213
4.75221e-06
0.00341557
6.55274e-06
0.00340716
8.41757e-06
0.00339684
1.03199e-05
0.00338464
1.22008e-05
0.00337052
1.41208e-05
0.00335446
1.60671e-05
0.00333643
1.80267e-05
0.00331645
1.99816e-05
0.00329449
2.19609e-05
0.00327054
2.39516e-05
0.00324459
2.59495e-05
0.00321665
2.79414e-05
0.00318671
2.99341e-05
0.00315478
3.19323e-05
0.00312085
3.39229e-05
0.00308494
3.59078e-05
0.00304707
3.78728e-05
0.00300724
3.98266e-05
0.00296548
4.17606e-05
0.00292181
4.36719e-05
0.00287627
4.5543e-05
0.00282888
4.7397e-05
0.00277966
4.92264e-05
0.00272866
5.09956e-05
0.00267594
5.2728e-05
0.00262154
5.43989e-05
0.00256551
5.60291e-05
0.00250792
5.7596e-05
0.0024488
5.91076e-05
0.00238825
6.05519e-05
0.00232633
6.19179e-05
0.00226312
6.32046e-05
0.00219869
6.44236e-05
0.00213312
6.55706e-05
0.00206649
6.66287e-05
0.00199891
6.75807e-05
0.00193048
6.84375e-05
0.00186127
6.92111e-05
0.00179138
6.98954e-05
0.00172089
7.04909e-05
0.00164992
7.09771e-05
0.00157858
7.13441e-05
0.00150699
7.15963e-05
0.00143524
7.17561e-05
0.0013634
7.18365e-05
0.0012916
7.17978e-05
0.00121995
7.16503e-05
0.00114855
7.13982e-05
0.00107751
7.10429e-05
0.00100693
7.05757e-05
0.000936915
7.00149e-05
0.000867548
6.93663e-05
0.000798949
6.85988e-05
0.000731204
6.77449e-05
0.000664397
6.68075e-05
0.000598607
6.57907e-05
0.000533896
6.47092e-05
0.000470358
6.35403e-05
0.000408097
6.22613e-05
0.000347183
6.0914e-05
0.000287672
5.95104e-05
0.000229612
5.80586e-05
0.000173053
5.65566e-05
0.000118038
5.50139e-05
6.46368e-05
5.34011e-05
1.2926e-05
5.17105e-05
-3.7083e-05
5.00073e-05
-8.53792e-05
4.82942e-05
-0.000131919
4.65392e-05
-0.000176628
4.47131e-05
-0.00021946
4.2839e-05
-0.000260422
4.0968e-05
-0.000299505
3.90843e-05
-0.000336683
3.71759e-05
-0.000371851
3.51669e-05
-0.000405054
3.32058e-05
-0.000436249
3.12036e-05
-0.00046546
2.92202e-05
-0.00049275
2.72947e-05
-0.000517997
2.52484e-05
-0.000541135
2.31374e-05
-0.000562179
2.10448e-05
-0.000581136
1.89605e-05
-0.000598
1.6869e-05
-0.000612755
1.476e-05
-0.000625394
1.26424e-05
-0.000635904
1.05105e-05
-0.000644215
8.31177e-06
-0.000650331
6.1192e-06
-0.000654275
3.94969e-06
-0.000656084
1.81338e-06
-0.000655738
-3.44971e-07
-0.000653164
-2.57426e-06
-0.000648353
-4.81458e-06
-0.000641356
-6.99782e-06
-0.000632171
-9.18266e-06
-0.000620777
-1.13898e-05
-0.000607189
-1.35882e-05
-0.000591458
-1.57352e-05
-0.000573529
-1.79345e-05
-0.000553432
-2.00995e-05
-0.000531231
-2.21985e-05
-0.000506947
-2.42783e-05
-0.000480626
-2.63177e-05
-0.000452238
-2.83887e-05
-0.000421797
-3.04441e-05
-0.00038941
-3.23874e-05
-0.000355171
-3.42356e-05
-0.000319061
-3.61021e-05
-0.000281092
-3.79616e-05
-0.000241365
-3.97252e-05
-0.000199955
-4.14111e-05
-0.000156935
-4.30271e-05
-0.000112387
-4.45535e-05
-6.62766e-05
-4.61153e-05
-1.86462e-05
-4.76305e-05
3.03934e-05
-4.9036e-05
8.06869e-05
-5.02883e-05
0.000132139
-5.14481e-05
0.000184708
-5.25667e-05
0.000238405
-5.36995e-05
0.00029307
-5.46684e-05
0.000348527
-5.54617e-05
0.000404665
-5.61391e-05
0.00046147
-5.68052e-05
0.000518814
-5.73436e-05
0.000576603
-5.7791e-05
0.000634669
-5.80698e-05
0.000692945
-5.82812e-05
0.00075134
-5.83983e-05
0.000809719
-5.83794e-05
0.000867894
-5.81742e-05
0.000925749
-5.78512e-05
0.00098322
-5.74668e-05
0.00104029
-5.70704e-05
0.00109667
-5.63769e-05
0.00115227
-5.55985e-05
0.00120698
-5.47172e-05
0.00126067
-5.36861e-05
0.00131329
-5.26122e-05
0.00136472
-5.14324e-05
0.00141485
-5.01281e-05
0.00146343
-4.85708e-05
0.00151042
-4.69958e-05
0.0015558
-4.53804e-05
0.00159944
-4.36467e-05
0.00164126
-4.18243e-05
0.00168107
-3.9816e-05
0.00171888
-3.78049e-05
0.00175461
-3.57191e-05
0.00178823
-3.36195e-05
0.00181955
-3.13097e-05
0.00184854
-2.89919e-05
0.00187518
-2.66413e-05
0.00189944
-2.42635e-05
0.00192124
-2.17959e-05
0.00194054
-1.93018e-05
0.00195739
-1.68516e-05
0.0019716
-1.42103e-05
0.00198319
-1.15891e-05
0.00199219
-9.00647e-06
0.00199854
-6.34938e-06
0.00200229
-3.7546e-06
0.00200333
-1.04396e-06
0.00200164
1.68246e-06
0.00199729
4.34906e-06
0.00199029
7.00523e-06
0.0019807
9.5908e-06
0.00196845
1.22509e-05
0.00195356
1.48999e-05
0.00193606
1.75019e-05
0.00191593
2.01257e-05
0.00189333
2.25993e-05
0.00186821
2.51203e-05
0.00184065
2.75587e-05
0.00181067
2.99815e-05
0.00177827
3.24018e-05
0.00174358
3.46804e-05
0.00170659
3.69976e-05
0.00166748
3.91072e-05
0.00162623
4.12421e-05
0.00158298
4.32512e-05
0.00153783
4.51476e-05
0.00149088
4.69587e-05
0.00144211
4.87658e-05
0.00139171
5.0407e-05
0.00133968
5.20262e-05
0.00128628
5.34003e-05
0.00123157
5.47111e-05
0.00117571
5.58566e-05
0.00111883
5.68809e-05
0.001061
5.78327e-05
0.0010024
5.86021e-05
0.000943126
5.92732e-05
0.000883331
5.97951e-05
0.000823146
6.01824e-05
0.000762764
6.03817e-05
0.000702386
6.03796e-05
0.000642169
6.02177e-05
0.000582135
6.00343e-05
0.000522568
5.95667e-05
0.000463503
5.90655e-05
0.000405097
5.84057e-05
0.000347481
5.76162e-05
0.00029091
5.65709e-05
0.000235464
5.54463e-05
0.000181274
5.41898e-05
0.000128453
5.28212e-05
7.71843e-05
5.12689e-05
2.75245e-05
4.96601e-05
-2.03925e-05
4.79173e-05
-6.65047e-05
4.61126e-05
-0.000110628
4.41238e-05
-0.000152724
4.20967e-05
-0.000192735
4.00109e-05
-0.000230605
3.78702e-05
-0.000266215
3.56108e-05
-0.000299494
3.32793e-05
-0.000330395
3.09019e-05
-0.000358898
2.85038e-05
-0.000385039
2.6141e-05
-0.000408763
2.37249e-05
-0.000429985
2.12229e-05
-0.000448717
1.87326e-05
-0.000464985
1.62686e-05
-0.00047876
1.37748e-05
-0.000490234
1.14746e-05
-0.000499331
9.09778e-06
-0.00050596
6.62948e-06
-0.000510305
4.34566e-06
-0.000512322
2.01723e-06
-0.000512113
-2.10201e-07
-0.000509708
-2.40518e-06
-0.000505204
-4.50474e-06
-0.000498629
-6.57413e-06
-0.00049012
-8.50891e-06
-0.00047974
-1.0379e-05
-0.000467534
-1.22062e-05
-0.000453663
-1.38737e-05
-0.000438167
-1.54982e-05
-0.000421255
-1.69153e-05
-0.00040295
-1.8306e-05
-0.000383375
-1.95771e-05
-0.000362619
-2.07583e-05
-0.00034091
-2.1711e-05
-0.000318363
-2.25488e-05
-0.000294998
-2.3367e-05
-0.000270982
-2.40173e-05
-0.000246376
-2.4606e-05
-0.000221334
-2.5041e-05
-0.000196168
-2.51656e-05
-0.000170791
-2.53765e-05
-0.000145369
-2.54202e-05
-0.000120042
-2.53253e-05
-9.49366e-05
-2.51033e-05
-7.00804e-05
-2.48545e-05
-4.56281e-05
-2.44509e-05
-2.1613e-05
-2.40136e-05
1.92368e-06
-2.3535e-05
2.48443e-05
-2.29189e-05
4.7158e-05
-2.23123e-05
6.88348e-05
-2.16759e-05
8.98461e-05
-2.10111e-05
0.00011012
-2.02736e-05
0.00012972
-1.96007e-05
0.00014863
-1.89094e-05
0.000166717
-1.80875e-05
0.000184198
-1.74814e-05
0.000200891
-1.66939e-05
0.000216912
-1.60221e-05
0.000232247
-1.53353e-05
0.000246873
-1.46273e-05
0.000260881
-1.40091e-05
0.000274099
-1.32199e-05
0.000286798
-1.2699e-05
0.000298714
-1.19171e-05
0.000309912
-1.11995e-05
0.000320466
-1.05549e-05
0.000330255
-9.79047e-06
0.000339343
-9.08924e-06
0.000347774
-8.43287e-06
0.000355532
-7.75854e-06
0.000362759
-7.22786e-06
0.000369355
-6.59587e-06
0.000375402
-6.04764e-06
0.000380823
-5.42159e-06
0.000385684
-4.8627e-06
0.000389873
-4.18969e-06
0.000393623
-3.75127e-06
0.000396862
-3.2393e-06
0.00039959
-2.72783e-06
0.000401786
-2.19545e-06
0.00040344
-1.65391e-06
0.00040452
-1.08006e-06
0.000404883
-3.63505e-07
0.000404507
3.75239e-07
0.000403357
1.1487e-06
0.000401598
1.75915e-06
0.000399266
2.33224e-06
0.000396272
2.99481e-06
0.000392603
3.66927e-06
0.000388174
4.42918e-06
0.000382865
5.30873e-06
0.000376804
6.06158e-06
0.000369935
6.86828e-06
0.000362214
7.72079e-06
0.000353622
8.59276e-06
0.000344262
9.36006e-06
0.000334027
1.02347e-05
0.000322835
1.11924e-05
0.000310691
1.2144e-05
0.000297552
1.3139e-05
0.000283286
1.42656e-05
0.00026795
1.5336e-05
0.000251533
1.64167e-05
0.000233743
1.77898e-05
0.000214394
1.93491e-05
0.000192775
2.16195e-05
0.000169665
2.31108e-05
0.000143156
2.6509e-05
0.000113634
2.95231e-05
9.6737e-05
1.68971e-05
9.73139e-05
-5.76513e-07
8.72097e-05
1.01046e-05
6.1942e-05
2.52683e-05
3.13136e-05
3.06291e-05
1.10125e-05
2.03018e-05
1.03715e-05
6.41747e-07
5.78089e-07
9.79407e-06
-2.82989e-05
2.88777e-05
-5.85985e-05
3.03004e-05
-8.56881e-05
2.70904e-05
-0.000111252
2.55645e-05
-0.000135099
2.38481e-05
-0.000157602
2.25035e-05
-0.00017896
2.13587e-05
-0.000199315
2.03554e-05
-0.000218825
1.95097e-05
-0.000237527
1.8703e-05
-0.000255481
1.79536e-05
-0.000272711
1.72305e-05
-0.000289118
1.6407e-05
-0.000304649
1.55305e-05
-0.000319347
1.46978e-05
-0.000332988
1.36406e-05
-0.00034583
1.28418e-05
-0.000357667
1.18373e-05
-0.000368423
1.07558e-05
-0.000378145
9.72186e-06
-0.000386727
8.58132e-06
-0.000394243
7.51646e-06
-0.000400719
6.47525e-06
-0.000406096
5.37751e-06
-0.000410403
4.3071e-06
-0.000413533
3.12996e-06
-0.000415541
2.00763e-06
-0.000416534
9.92107e-07
-0.000416538
3.68573e-09
-0.000415543
-9.94864e-07
-0.000413477
-2.06617e-06
-0.000410303
-3.17412e-06
-0.000406117
-4.1872e-06
-0.000400956
-5.16055e-06
-0.000395046
-5.91013e-06
-0.00038814
-6.90669e-06
-0.000380171
-7.96855e-06
-0.000371158
-9.01293e-06
-0.000361238
-9.91988e-06
-0.000350399
-1.08391e-05
-0.000338597
-1.18023e-05
-0.000325921
-1.26759e-05
-0.000312256
-1.36651e-05
-0.000297829
-1.44271e-05
-0.000282577
-1.52521e-05
-0.00026656
-1.60166e-05
-0.000249792
-1.67678e-05
-0.000232384
-1.74079e-05
-0.000214195
-1.81899e-05
-0.000195645
-1.85493e-05
-0.000176604
-1.90403e-05
-0.000156776
-1.98282e-05
-0.000136402
-2.0374e-05
-0.000115243
-2.11589e-05
-9.34128e-05
-2.183e-05
-7.0972e-05
-2.24409e-05
-4.79394e-05
-2.30327e-05
-2.43565e-05
-2.3583e-05
-2.2176e-07
-2.41347e-05
2.44475e-05
-2.46691e-05
4.97252e-05
-2.52776e-05
7.54333e-05
-2.57079e-05
0.000101431
-2.59979e-05
0.00012762
-2.61883e-05
0.000153903
-2.6283e-05
0.000180164
-2.62609e-05
0.000206443
-2.62788e-05
0.000232679
-2.62359e-05
0.000258681
-2.60019e-05
0.00028422
-2.55386e-05
0.000308972
-2.47534e-05
0.000332766
-2.3794e-05
0.000355427
-2.26601e-05
0.0003771
-2.16723e-05
0.000397738
-2.06386e-05
0.000417095
-1.93564e-05
0.000434798
-1.77025e-05
0.000450626
-1.58283e-05
0.000464424
-1.37994e-05
0.000476168
-1.17432e-05
0.00048587
-9.70242e-06
0.000493175
-7.30313e-06
0.000498181
-5.00696e-06
0.00050043
-2.2492e-06
0.000499994
4.34043e-07
0.000496718
3.27556e-06
0.000490469
6.24939e-06
0.000481549
8.92243e-06
0.00046954
1.20085e-05
0.000454322
1.52181e-05
0.000435807
1.8515e-05
0.000414237
2.15699e-05
0.000389268
2.49671e-05
0.000361027
2.82416e-05
0.00032961
3.14193e-05
0.000295055
3.45558e-05
0.000257264
3.77917e-05
0.00021626
4.10038e-05
0.000172419
4.38415e-05
0.000125123
4.72963e-05
7.51481e-05
4.99756e-05
2.22593e-05
5.28892e-05
-3.32359e-05
5.54958e-05
-9.10952e-05
5.78591e-05
-0.000151202
6.01069e-05
-0.000213514
6.23114e-05
-0.00027795
6.44377e-05
-0.000344387
6.64375e-05
-0.000412518
6.81307e-05
-0.000481819
6.92962e-05
-0.000552227
7.04079e-05
-0.000623482
7.12543e-05
-0.000695457
7.19742e-05
-0.000768053
7.25966e-05
-0.000840748
7.27005e-05
-0.000913439
7.26899e-05
-0.000985945
7.25057e-05
-0.00105755
7.15954e-05
-0.00112811
7.05633e-05
-0.00119776
6.96466e-05
-0.00126617
6.84138e-05
-0.00133303
6.68618e-05
-0.00139797
6.49478e-05
-0.00146094
6.29676e-05
-0.00152153
6.05985e-05
-0.00157967
5.8139e-05
-0.00163515
5.54764e-05
-0.00168773
5.25851e-05
-0.00173725
4.95238e-05
-0.0017835
4.62428e-05
-0.00182617
4.26709e-05
-0.00186508
3.89087e-05
-0.00190029
3.52065e-05
-0.00193174
3.1462e-05
-0.00195928
2.7551e-05
-0.00198263
2.33483e-05
-0.00200177
1.91344e-05
-0.00201654
1.47621e-05
-0.00202691
1.03695e-05
-0.00203289
5.97441e-06
-0.0020345
1.61771e-06
-0.00203173
-2.77987e-06
-0.0020246
-7.12444e-06
-0.00201303
-1.156e-05
-0.00199692
-1.61122e-05
-0.00197652
-2.04062e-05
-0.00195181
-2.47281e-05
-0.00192306
-2.87475e-05
-0.00189047
-3.25946e-05
-0.00185386
-3.66115e-05
-0.00181365
-4.02064e-05
-0.0017699
-4.37402e-05
-0.00172276
-4.71397e-05
-0.00167235
-5.04236e-05
-0.00161891
-5.34403e-05
-0.00156277
-5.61359e-05
-0.0015042
-5.85755e-05
-0.00144326
-6.09384e-05
-0.00138033
-6.2931e-05
-0.00131553
-6.48056e-05
-0.00124911
-6.64197e-05
-0.00118147
-6.76393e-05
-0.00111257
-6.88979e-05
-0.00104273
-6.9843e-05
-0.000972257
-7.04731e-05
-0.000901345
-7.09096e-05
-0.000830231
-7.11125e-05
-0.000759166
-7.10625e-05
-0.00068825
-7.09156e-05
-0.000617777
-7.04713e-05
-0.000547886
-6.98916e-05
-0.000478712
-6.91749e-05
-0.00041047
-6.82419e-05
-0.000343293
-6.71769e-05
-0.00027735
-6.59438e-05
-0.000212853
-6.44959e-05
-0.000149832
-6.30199e-05
-8.84644e-05
-6.13659e-05
-2.89341e-05
-5.95284e-05
2.85514e-05
-5.74838e-05
8.38637e-05
-5.53111e-05
0.000136959
-5.30943e-05
0.00018767
-5.07116e-05
0.000235847
-4.81779e-05
0.000281373
-4.55269e-05
0.000324256
-4.28827e-05
0.000364385
-4.013e-05
0.000401524
-3.71392e-05
0.000435548
-3.40247e-05
0.000466356
-3.08076e-05
0.000493882
-2.75254e-05
0.000518001
-2.41168e-05
0.000538614
-2.06117e-05
0.000555691
-1.70748e-05
0.000569102
-1.34124e-05
0.000578833
-9.72844e-06
0.000584797
-5.96532e-06
0.000586876
-2.08233e-06
0.000585102
1.77161e-06
0.000579374
5.72421e-06
0.000569658
9.71347e-06
0.000555924
1.37333e-05
0.000538142
1.7783e-05
0.000516337
2.18057e-05
0.0004905
2.58394e-05
0.000460618
2.98844e-05
0.000426711
3.39098e-05
0.00038879
3.79217e-05
0.000346896
4.18933e-05
0.000301059
4.58351e-05
0.000251338
4.97196e-05
0.000197789
5.35469e-05
0.000140477
5.73115e-05
7.96819e-05
6.07939e-05
1.54617e-05
6.42204e-05
-5.18937e-05
6.73576e-05
-0.000122674
7.07844e-05
-0.00019654
7.38696e-05
-0.000273289
7.67535e-05
-0.000352814
7.95294e-05
-0.000434949
8.21387e-05
-0.000519469
8.45225e-05
-0.000606157
8.66888e-05
-0.000694783
8.86272e-05
-0.000785121
9.03374e-05
-0.000876943
9.1822e-05
-0.000969995
9.305e-05
-0.00106401
9.40189e-05
-0.00115874
9.4729e-05
-0.00125391
9.51665e-05
-0.00134925
9.53396e-05
-0.00144451
9.52677e-05
-0.00153946
9.49521e-05
-0.00163387
9.44094e-05
-0.00172749
9.36241e-05
-0.00182008
9.25962e-05
-0.0019114
9.1328e-05
-0.00200124
8.98373e-05
-0.00208938
8.81338e-05
-0.00217562
8.62424e-05
-0.00225979
8.41758e-05
-0.00234171
8.19296e-05
-0.00242121
7.94984e-05
-0.00249811
7.68993e-05
-0.00257225
7.41368e-05
-0.00264348
7.12298e-05
-0.00271166
6.81826e-05
-0.00277667
6.50097e-05
-0.00283839
6.17268e-05
-0.00289672
5.83231e-05
-0.00295155
5.48291e-05
-0.0030028
5.12483e-05
-0.00305039
4.75798e-05
-0.00309424
4.38498e-05
-0.00313429
4.00488e-05
-0.00317048
3.61971e-05
-0.0032028
3.23251e-05
-0.00323124
2.84383e-05
-0.00325577
2.45287e-05
-0.00327636
2.0598e-05
-0.00329301
1.66509e-05
-0.00330577
1.27532e-05
-0.00331468
8.91349e-06
-0.00331982
5.14271e-06
-0.00332121
1.38834e-06
-0.0033189
-2.30404e-06
-0.00331297
-5.92218e-06
-0.0033035
-9.47062e-06
-0.00329056
-1.29454e-05
-0.00327431
-1.62587e-05
-0.00325479
-1.95145e-05
-0.00323213
-2.26597e-05
-0.00320641
-2.57209e-05
-0.00317771
-2.86874e-05
-0.00314616
-3.15514e-05
-0.00311185
-3.43111e-05
-0.00307488
-3.69692e-05
-0.00303532
-3.95601e-05
-0.00299323
-4.20929e-05
-0.00294868
-4.45493e-05
-0.00290179
-4.68956e-05
-0.00285263
-4.91605e-05
-0.0028013
-5.13298e-05
-0.00274786
-5.34337e-05
-0.00269235
-5.55186e-05
-0.00263477
-5.75815e-05
-0.0025752
-5.95628e-05
-0.00251379
-6.14128e-05
-0.00245059
-6.31974e-05
-0.00238568
-6.49202e-05
-0.00231909
-6.65839e-05
-0.00225093
-6.81685e-05
-0.00218123
-6.96933e-05
-0.00211007
-7.11605e-05
-0.00203755
-7.2524e-05
-0.00196386
-7.36859e-05
-0.00188901
-7.48586e-05
-0.00181304
-7.59657e-05
-0.00173607
-7.69774e-05
-0.00165816
-7.79074e-05
-0.00157939
-7.87725e-05
-0.00149992
-7.94679e-05
-0.00141982
-8.01067e-05
-0.00133919
-8.06273e-05
-0.00125812
-8.10751e-05
-0.00117665
-8.14648e-05
-0.00109493
-8.17224e-05
-0.00101304
-8.18913e-05
-0.00093106
-8.19803e-05
-0.000849068
-8.19927e-05
-0.000767106
-8.19625e-05
-0.000685315
-8.17917e-05
-0.000603763
-8.15533e-05
-0.000522543
-8.12204e-05
-0.000441752
-8.07911e-05
-0.00036143
-8.03222e-05
-0.000281643
-7.97866e-05
-0.000202479
-7.91646e-05
-0.000124126
-7.83527e-05
-4.65993e-05
-7.75264e-05
3.01048e-05
-7.67038e-05
0.000105901
-7.57959e-05
0.00018069
-7.47882e-05
0.000254377
-7.36861e-05
0.000326939
-7.25612e-05
0.00039837
-7.14311e-05
0.000468592
-7.02217e-05
0.000537524
-6.89311e-05
0.000605095
-6.75703e-05
0.000671271
-6.61754e-05
0.000736022
-6.47513e-05
0.000799292
-6.327e-05
0.000861013
-6.17205e-05
0.000921131
-6.0118e-05
0.000979605
-5.8474e-05
0.0010364
-5.6797e-05
0.00109148
-5.50802e-05
0.00114481
-5.33246e-05
0.00119633
-5.1526e-05
0.00124602
-4.96899e-05
0.00129385
-4.78344e-05
0.0013398
-4.5946e-05
0.00138381
-4.40153e-05
0.00142587
-4.20594e-05
0.00146595
-4.00784e-05
0.00150402
-3.80769e-05
0.00154008
-3.60594e-05
0.00157409
-3.40118e-05
0.00160604
-3.19506e-05
0.00163591
-2.98709e-05
0.00166369
-2.77808e-05
0.00168937
-2.56792e-05
0.00171293
-2.35551e-05
0.00173436
-2.14347e-05
0.00175367
-1.93141e-05
0.00177086
-1.71821e-05
0.0017859
-1.5043e-05
0.0017988
-1.29038e-05
0.00180956
-1.07638e-05
0.0018182
-8.63277e-06
0.00182471
-6.50998e-06
0.00182909
-4.38529e-06
0.00183137
-2.27293e-06
0.00183152
-1.57057e-07
0.0018296
1.92464e-06
0.00182559
4.00435e-06
0.00181953
6.06629e-06
0.00181142
8.11216e-06
0.00180128
1.01399e-05
0.00178913
1.21428e-05
0.001775
1.41301e-05
0.00175891
1.6091e-05
0.00174089
1.80266e-05
0.00172095
1.99355e-05
0.00169913
2.18176e-05
0.00167546
2.36707e-05
0.00164998
2.54862e-05
0.0016227
2.72773e-05
0.00159367
2.90321e-05
0.00156292
3.07517e-05
0.00153048
3.24348e-05
0.0014964
3.40794e-05
0.00146072
3.56877e-05
0.00142346
3.72538e-05
0.00138469
3.87776e-05
0.00134443
4.02513e-05
0.00130274
4.16921e-05
0.00125966
4.30849e-05
0.00121523
4.44307e-05
0.0011695
4.57288e-05
0.00112252
4.69787e-05
0.00107434
4.81814e-05
0.00102501
4.93294e-05
0.000974578
5.0427e-05
0.000923114
5.14637e-05
0.000870652
5.2462e-05
0.00081725
5.34008e-05
0.000762966
5.42831e-05
0.000707855
5.51094e-05
0.000651974
5.58798e-05
0.000595378
5.65951e-05
0.00053813
5.72472e-05
0.000480294
5.78351e-05
0.000421937
5.83566e-05
0.000363129
5.88082e-05
0.000303985
5.91432e-05
0.000244858
5.91258e-05
0.000185501
5.93549e-05
0.000124101
6.13979e-05
6.17475e-05
6.23511e-05
6.17463e-05
-2.89081e-05
6.08295e-05
-5.97188e-05
6.17724e-05
-9.04775e-05
6.14675e-05
-0.000121117
6.06625e-05
-0.00015153
6.03692e-05
-0.000181727
6.01862e-05
-0.000211813
6.00774e-05
-0.000241861
6.00258e-05
-0.000271896
5.99626e-05
-0.000301867
5.98746e-05
-0.00033178
5.9778e-05
-0.000361637
5.96663e-05
-0.000391435
5.95455e-05
-0.00042116
5.9406e-05
-0.000450805
5.92553e-05
-0.00048036
5.90804e-05
-0.000509821
5.88873e-05
-0.000539176
5.86762e-05
-0.000568415
5.84451e-05
-0.00059753
5.81956e-05
-0.000626513
5.79316e-05
-0.000655355
5.76483e-05
-0.000684049
5.73485e-05
-0.000712584
5.70306e-05
-0.000740952
5.66948e-05
-0.000769144
5.6344e-05
-0.000797152
5.59748e-05
-0.000824968
5.55889e-05
-0.000852584
5.51883e-05
-0.000879993
5.47738e-05
-0.000907187
5.43418e-05
-0.000934158
5.38952e-05
-0.000960897
5.34325e-05
-0.000987398
5.29541e-05
-0.00101365
5.24601e-05
-0.00103965
5.19504e-05
-0.00106539
5.14252e-05
-0.00109085
5.08844e-05
-0.00111604
5.03279e-05
-0.00114094
4.97558e-05
-0.00116555
4.91682e-05
-0.00118986
4.85652e-05
-0.00121386
4.7947e-05
-0.00123754
4.73136e-05
-0.00126089
4.66648e-05
-0.00128392
4.60005e-05
-0.0013066
4.53209e-05
-0.00132894
4.4626e-05
-0.00135092
4.39159e-05
-0.00137254
4.31907e-05
-0.00139379
4.24506e-05
-0.00141466
4.16957e-05
-0.00143515
4.0926e-05
-0.00145525
4.01417e-05
-0.00147495
3.93429e-05
-0.00149423
3.85297e-05
-0.00151311
3.77021e-05
-0.00153157
3.68602e-05
-0.00154959
3.60041e-05
-0.00156718
3.51339e-05
-0.00158434
3.42499e-05
-0.00160104
3.33521e-05
-0.00161728
3.24409e-05
-0.00163307
3.15163e-05
-0.00164838
3.05785e-05
-0.00166322
2.96273e-05
-0.00167758
2.86629e-05
-0.00169144
2.76855e-05
-0.00170482
2.66951e-05
-0.00171769
2.56921e-05
-0.00173005
2.46766e-05
-0.0017419
2.3649e-05
-0.00175323
2.26093e-05
-0.00176403
2.15577e-05
-0.00177431
2.04943e-05
-0.00178404
1.94193e-05
-0.00179323
1.83326e-05
-0.00180187
1.72346e-05
-0.00180996
1.61253e-05
-0.00181749
1.50052e-05
-0.00182445
1.38744e-05
-0.00183084
1.27333e-05
-0.00183665
1.1582e-05
-0.00184189
1.04209e-05
-0.00184654
9.25009e-06
-0.0018506
8.06979e-06
-0.00185406
6.88019e-06
-0.00185692
5.68148e-06
-0.00185918
4.47385e-06
-0.00186083
3.25756e-06
-0.00186187
2.03281e-06
-0.00186229
7.99717e-07
-0.00186209
-4.45397e-07
-0.00186127
-1.69302e-06
-0.00185982
-2.9483e-06
-0.00185774
-4.21173e-06
-0.00185502
-5.48186e-06
-0.00185166
-6.75384e-06
-0.00184766
-8.03519e-06
-0.00184302
-9.32334e-06
-0.00183773
-1.06237e-05
-0.00183179
-1.19135e-05
-0.0018252
-1.32168e-05
-0.00181795
-1.4525e-05
-0.00181005
-1.58377e-05
-0.00180149
-1.71605e-05
-0.00179227
-1.84721e-05
-0.00178239
-1.97953e-05
-0.00177184
-2.11214e-05
-0.00176063
-2.24498e-05
-0.00174876
-2.37804e-05
-0.00173621
-2.51134e-05
-0.001723
-2.64476e-05
-0.00170912
-2.77843e-05
-0.00169458
-2.91211e-05
-0.00167936
-3.04562e-05
-0.00166347
-3.17919e-05
-0.00164692
-3.31276e-05
-0.0016297
-3.44637e-05
-0.00161181
-3.57951e-05
-0.00159325
-3.71278e-05
-0.00157403
-3.84593e-05
-0.00155414
-3.97874e-05
-0.00153359
-4.11127e-05
-0.00151238
-4.2435e-05
-0.00149051
-4.37539e-05
-0.00146798
-4.50709e-05
-0.00144479
-4.63829e-05
-0.00142095
-4.76876e-05
-0.00139646
-4.89886e-05
-0.00137131
-5.02837e-05
-0.00134552
-5.15816e-05
-0.00131909
-5.28578e-05
-0.00129203
-5.41351e-05
-0.00126432
-5.54074e-05
-0.00123598
-5.66699e-05
-0.00120702
-5.7923e-05
-0.00117743
-5.91705e-05
-0.00114722
-6.04083e-05
-0.00111639
-6.16339e-05
-0.00108496
-6.28573e-05
-0.00105292
-6.40606e-05
-0.00102028
-6.52594e-05
-0.000987048
-6.64481e-05
-0.000953227
-6.76217e-05
-0.00091882
-6.87889e-05
-0.000883842
-6.99351e-05
-0.000848287
-7.10812e-05
-0.000812176
-7.21989e-05
-0.000775505
-7.33139e-05
-0.000738286
-7.44093e-05
-0.000700522
-7.5495e-05
-0.000662228
-7.6559e-05
-0.000623399
-7.76192e-05
-0.000584059
-7.8648e-05
-0.000544202
-7.96735e-05
-0.000503847
-8.06737e-05
-0.000462997
-8.16611e-05
-0.000421661
-8.26296e-05
-0.00037985
-8.35788e-05
-0.000337573
-8.45111e-05
-0.000294841
-8.54201e-05
-0.000251656
-8.63188e-05
-0.000208037
-8.7185e-05
-0.000163987
-8.80375e-05
-0.00011952
-8.88716e-05
-7.46559e-05
-8.96831e-05
-2.93974e-05
-9.04783e-05
1.6242e-05
-9.12437e-05
6.22505e-05
-9.19873e-05
0.000108624
-9.27168e-05
0.000155335
-9.3409e-05
0.000202375
-9.40847e-05
0.000249739
-9.47327e-05
0.000297415
-9.53478e-05
0.000345386
-9.59366e-05
0.000393659
-9.65218e-05
0.000442189
-9.7049e-05
0.000490968
-9.75551e-05
0.000539993
-9.80379e-05
0.000589259
-9.8496e-05
0.000638693
-9.88961e-05
0.000688341
-9.93004e-05
0.000738174
-9.96646e-05
0.000788175
-9.99968e-05
0.000838329
-0.000100299
0.000888615
-0.000100564
0.000939017
-0.000100797
0.000989527
-0.000101006
0.00104011
-0.000101164
0.00109077
-0.000101297
0.00114147
-0.000101397
0.0011922