/*--------------------------------*- C++ -*----------------------------------*\
| =========                 |                                                 |
| \\      /  F ield         | OpenFOAM: The Open Source CFD Toolbox           |
|  \\    /   O peration     | Version:  2412                                  |
|   \\  /    A nd           | Website:  www.openfoam.com                      |
|    \\/     M anipulation  |                                                 |
\*---------------------------------------------------------------------------*/
FoamFile
{
    version     2.0;
    format      ascii;
    arch        "LSB;label=32;scalar=64";
    class       surfaceScalarField;
    location    "6.89";
    object      phi;
}
// * * * * * * * * * * * * * * * * * * * * * * * * * * * * * * * * * * * * * //

dimensions      [0 3 -1 0 0 0 0];

oriented        oriented;

internalField   nonuniform List<scalar> 
158920
(
-3.17768e-05
3.17768e-05
-6.25254e-05
3.07982e-05
-9.30705e-05
3.0588e-05
-0.000122959
2.99205e-05
-0.000152791
2.98556e-05
-0.000182665
2.98906e-05
-0.000212547
2.98935e-05
-0.000242417
2.98777e-05
-0.000272239
2.98263e-05
-0.000302037
2.98017e-05
-0.000331797
2.97614e-05
-0.0003615
2.97041e-05
-0.000391141
2.96416e-05
-0.000420715
2.95741e-05
-0.000450218
2.95026e-05
-0.000479635
2.94164e-05
-0.000508953
2.93167e-05
-0.000538165
2.92116e-05
-0.000567261
2.90952e-05
-0.000596231
2.89692e-05
-0.000625068
2.88361e-05
-0.000653762
2.8693e-05
-0.000682304
2.85415e-05
-0.000710686
2.83811e-05
-0.000738899
2.82123e-05
-0.000766936
2.80358e-05
-0.000794787
2.78501e-05
-0.000822443
2.76557e-05
-0.000849898
2.74544e-05
-0.000877144
2.72457e-05
-0.000904173
2.70283e-05
-0.000930977
2.68037e-05
-0.000957548
2.65711e-05
-0.000983879
2.63308e-05
-0.00100996
2.60827e-05
-0.00103579
2.58268e-05
-0.00106135
2.5563e-05
-0.00108664
2.52914e-05
-0.00111166
2.50119e-05
-0.00113638
2.47246e-05
-0.00116081
2.44295e-05
-0.00118494
2.41267e-05
-0.00120875
2.38163e-05
-0.00123225
2.3498e-05
-0.00125542
2.31721e-05
-0.00127826
2.28384e-05
-0.00130076
2.24972e-05
-0.0013229
2.21484e-05
-0.0013447
2.1792e-05
-0.00136612
2.14281e-05
-0.00138718
2.10567e-05
-0.00140786
2.06778e-05
-0.00142815
2.02914e-05
-0.00144805
1.98978e-05
-0.00146754
1.94969e-05
-0.00148663
1.90889e-05
-0.00150531
1.86737e-05
-0.00152356
1.82513e-05
-0.00154138
1.78218e-05
-0.00155876
1.73853e-05
-0.00157571
1.69418e-05
-0.0015922
1.64915e-05
-0.00160823
1.60346e-05
-0.0016238
1.5571e-05
-0.0016389
1.51008e-05
-0.00165353
1.4624e-05
-0.00166767
1.41405e-05
-0.00168132
1.36504e-05
-0.00169447
1.31539e-05
-0.00170712
1.2651e-05
-0.00171926
1.2142e-05
-0.00173089
1.16269e-05
-0.00174199
1.11059e-05
-0.00175257
1.05791e-05
-0.00176262
1.00463e-05
-0.00177212
9.50776e-06
-0.00178109
8.96343e-06
-0.0017895
8.4134e-06
-0.00179736
7.85778e-06
-0.00180465
7.29673e-06
-0.00181138
6.7304e-06
-0.00181754
6.15894e-06
-0.00182312
5.5825e-06
-0.00182813
5.0012e-06
-0.00183254
4.41515e-06
-0.00183636
3.82443e-06
-0.00183959
3.22914e-06
-0.00184222
2.6294e-06
-0.00184425
2.02533e-06
-0.00184566
1.41713e-06
-0.00184647
8.04971e-07
-0.00184666
1.90122e-07
-0.00184621
-4.42581e-07
-0.00184515
-1.06315e-06
-0.00184346
-1.68909e-06
-0.00184113
-2.32515e-06
-0.00183818
-2.95576e-06
-0.00183459
-3.59011e-06
-0.00183035
-4.23108e-06
-0.00182547
-4.87948e-06
-0.00181995
-5.52587e-06
-0.00181378
-6.17024e-06
-0.00180695
-6.82138e-06
-0.00179948
-7.47569e-06
-0.00179134
-8.13369e-06
-0.00178255
-8.79132e-06
-0.0017731
-9.44754e-06
-0.00176299
-1.01079e-05
-0.00175222
-1.07703e-05
-0.00174079
-1.14341e-05
-0.00172869
-1.2099e-05
-0.00171592
-1.2765e-05
-0.00170249
-1.34303e-05
-0.0016884
-1.40966e-05
-0.00167363
-1.47634e-05
-0.0016582
-1.54303e-05
-0.0016421
-1.6097e-05
-0.00162534
-1.67636e-05
-0.00160791
-1.74297e-05
-0.00158982
-1.80949e-05
-0.00157106
-1.8759e-05
-0.00155163
-1.94226e-05
-0.00153155
-2.00841e-05
-0.0015108
-2.07447e-05
-0.0014894
-2.14039e-05
-0.00146734
-2.20613e-05
-0.00144462
-2.27177e-05
-0.00142125
-2.33716e-05
-0.00139723
-2.40214e-05
-0.00137256
-2.46687e-05
-0.00134725
-2.53144e-05
-0.00132129
-2.59586e-05
-0.00129469
-2.6597e-05
-0.00126746
-2.72313e-05
-0.00123959
-2.78642e-05
-0.0012111
-2.8493e-05
-0.00118199
-2.91159e-05
-0.00115225
-2.97359e-05
-0.0011219
-3.0352e-05
-0.00109094
-3.09615e-05
-0.00105937
-3.15686e-05
-0.0010272
-3.21685e-05
-0.000994437
-3.27628e-05
-0.000961083
-3.33537e-05
-0.000927147
-3.39363e-05
-0.000892632
-3.4515e-05
-0.000857546
-3.50862e-05
-0.000821894
-3.56518e-05
-0.000785684
-3.62097e-05
-0.000748923
-3.67608e-05
-0.000711618
-3.7305e-05
-0.000673776
-3.78417e-05
-0.000635404
-3.83714e-05
-0.00059651
-3.88931e-05
-0.000557103
-3.94067e-05
-0.000517191
-3.99116e-05
-0.000476782
-4.04085e-05
-0.000435885
-4.08961e-05
-0.000394509
-4.13753e-05
-0.000352664
-4.18442e-05
-0.000310358
-4.23049e-05
-0.000267603
-4.27547e-05
-0.000224406
-4.31951e-05
-0.000180784
-4.36209e-05
-0.000136743
-4.40395e-05
-9.22844e-05
-4.44574e-05
-4.74175e-05
-4.48654e-05
-2.15697e-06
-4.5259e-05
4.34824e-05
-4.56378e-05
8.94914e-05
-4.60075e-05
0.000135862
-4.63686e-05
0.000182583
-4.67199e-05
0.000229641
-4.70564e-05
0.000277013
-4.73705e-05
0.000324684
-4.76693e-05
0.000372644
-4.79582e-05
0.000420881
-4.82351e-05
0.000469383
-4.85006e-05
0.000518136
-4.87515e-05
0.000567119
-4.89823e-05
0.000616315
-4.91941e-05
0.000665735
-4.9419e-05
0.000715341
-4.9604e-05
0.000765118
-4.9776e-05
0.000815054
-4.9935e-05
0.000865134
-5.00784e-05
0.000915339
-5.02046e-05
0.000965656
-5.03152e-05
0.00101607
-5.04097e-05
0.00106655
-5.04846e-05
0.0011171
-5.05436e-05
0.00116768
-5.05856e-05
0.00121829
-5.061e-05
0.00126891
-5.06145e-05
0.00131951
-5.06007e-05
0.00137007
-5.0567e-05
0.00142059
-5.05143e-05
0.00147103
-5.04437e-05
0.00152139
-5.03547e-05
0.00157162
-5.02409e-05
0.00162173
-5.01071e-05
0.00167168
-4.99537e-05
0.00172147
-4.97826e-05
0.00177105
-4.95841e-05
0.00182041
-4.93655e-05
0.00186954
-4.9125e-05
0.0019184
-4.88622e-05
0.00196697
-4.85756e-05
0.00201524
-4.82662e-05
0.00206317
-4.79354e-05
0.00211075
-4.75766e-05
0.00215794
-4.71945e-05
0.00220473
-4.67894e-05
0.00225109
-4.6358e-05
0.00229699
-4.58996e-05
0.00234241
-4.54222e-05
0.00238732
-4.49137e-05
0.0024317
-4.43766e-05
0.00247551
-4.38162e-05
0.00251874
-4.3227e-05
0.00256135
-4.26116e-05
0.00260332
-4.19681e-05
0.00264461
-4.12942e-05
0.00268521
-4.05962e-05
0.00272507
-3.98625e-05
0.00276418
-3.91114e-05
0.0028025
-3.83202e-05
0.00284001
-3.75048e-05
0.00287667
-3.66566e-05
0.00291245
-3.57775e-05
0.00294731
-3.48677e-05
0.00298124
-3.39281e-05
0.0030142
-3.29575e-05
0.00304616
-3.19547e-05
0.00307708
-3.09206e-05
0.00310693
-2.98541e-05
0.00313569
-2.87554e-05
0.00316331
-2.76245e-05
0.00318978
-2.64614e-05
0.00321504
-2.52656e-05
0.00323908
-2.4036e-05
0.00326186
-2.27749e-05
0.00328334
-2.14793e-05
0.00330349
-2.01522e-05
0.00332228
-1.87902e-05
0.00333968
-1.73968e-05
0.00335565
-1.597e-05
0.00337016
-1.45163e-05
0.00338319
-1.30256e-05
0.00339469
-1.14992e-05
0.00340463
-9.94409e-06
0.00341299
-8.35824e-06
0.00341973
-6.741e-06
0.00342482
-5.09413e-06
0.00342825
-3.42203e-06
0.00342997
-1.7191e-06
0.00342995
2.24516e-08
0.00342812
1.82395e-06
0.00342452
3.59974e-06
0.0034191
5.42698e-06
0.00341187
7.23453e-06
0.00340276
9.10397e-06
0.00339175
1.10094e-05
0.00337886
1.28935e-05
0.00336404
1.48156e-05
0.00334728
1.67631e-05
0.00332855
1.87231e-05
0.00330787
2.06783e-05
0.00328521
2.26567e-05
0.00326057
2.46459e-05
0.00323392
2.66414e-05
0.00320529
2.86304e-05
0.00317468
3.06194e-05
0.00314206
3.26127e-05
0.00310747
3.45972e-05
0.0030709
3.65743e-05
0.00303237
3.85303e-05
0.0029919
4.04738e-05
0.0029495
4.2396e-05
0.00290521
4.42942e-05
0.00285905
4.61505e-05
0.00281106
4.79883e-05
0.00276126
4.98006e-05
0.00270971
5.15518e-05
0.00265644
5.32652e-05
0.00260152
5.4916e-05
0.00254499
5.65251e-05
0.00248692
5.80699e-05
0.00242737
5.95582e-05
0.00236639
6.0978e-05
0.00230408
6.23177e-05
0.0022405
6.35764e-05
0.00217574
6.47657e-05
0.00210986
6.58818e-05
0.00204295
6.6908e-05
0.00197513
6.7827e-05
0.00190648
6.86494e-05
0.00183709
6.93881e-05
0.00176705
7.00373e-05
0.00169645
7.05979e-05
0.00162539
7.10497e-05
0.00155401
7.13822e-05
0.00148241
7.16e-05
0.00141068
7.17257e-05
0.00133891
7.17726e-05
0.00126721
7.1701e-05
0.00119569
7.15208e-05
0.00112445
7.12362e-05
0.0010536
7.08485e-05
0.000983254
7.03493e-05
0.000913498
6.97569e-05
0.000844421
6.90776e-05
0.000776142
6.828e-05
0.000708746
6.73967e-05
0.000642315
6.64312e-05
0.000576928
6.53873e-05
0.000512649
6.42804e-05
0.000449563
6.30871e-05
0.00038778
6.17843e-05
0.000327367
6.04142e-05
0.000268379
5.89893e-05
0.000210864
5.7517e-05
0.000154869
5.59981e-05
0.000100429
5.44435e-05
4.76169e-05
5.2814e-05
-3.486e-06
5.11036e-05
-5.28689e-05
4.93838e-05
-0.000100526
4.76601e-05
-0.000146412
4.58891e-05
-0.000190454
4.40438e-05
-0.000232613
4.21561e-05
-0.000272896
4.02764e-05
-0.000311289
3.83876e-05
-0.000347765
3.64747e-05
-0.000382224
3.44594e-05
-0.000414715
3.24893e-05
-0.0004452
3.04779e-05
-0.000473697
2.84891e-05
-0.000500263
2.65613e-05
-0.000524778
2.45153e-05
-0.00054718
2.24045e-05
-0.000567489
2.03108e-05
-0.000585714
1.82244e-05
-0.000601849
1.61312e-05
-0.000615874
1.40221e-05
-0.000627781
1.19058e-05
-0.000637555
9.77526e-06
-0.000645133
7.57732e-06
-0.000650523
5.38624e-06
-0.000653752
3.22088e-06
-0.000654853
1.09304e-06
-0.000653803
-1.05235e-06
-0.00065052
-3.27778e-06
-0.000644998
-5.51177e-06
-0.0006373
-7.69153e-06
-0.000627427
-9.87273e-06
-0.00061536
-1.20716e-05
-0.000601109
-1.42563e-05
-0.000584721
-1.63875e-05
-0.000566144
-1.85728e-05
-0.000545415
-2.07267e-05
-0.000522602
-2.28156e-05
-0.000497726
-2.48827e-05
-0.000470825
-2.69054e-05
-0.000441866
-2.89576e-05
-0.000410863
-3.0995e-05
-0.000377933
-3.29236e-05
-0.000343174
-3.47588e-05
-0.000306573
-3.66103e-05
-0.000268136
-3.84493e-05
-0.000227958
-4.01865e-05
-0.000186119
-4.18418e-05
-0.000142685
-4.34314e-05
-9.77451e-05
-4.49362e-05
-5.12688e-05
-4.64739e-05
-3.30288e-06
-4.79661e-05
4.60459e-05
-4.93509e-05
9.66245e-05
-5.05816e-05
0.00014834
-5.17188e-05
0.00020115
-5.28113e-05
0.000255057
-5.39081e-05
0.000309899
-5.48417e-05
0.000365507
-5.56079e-05
0.000421765
-5.62589e-05
0.000478661
-5.68981e-05
0.000536066
-5.74083e-05
0.000593891
-5.78257e-05
0.000651967
-5.80737e-05
0.000710226
-5.8255e-05
0.000768574
-5.83439e-05
0.000826875
-5.8299e-05
0.000884942
-5.80684e-05
0.000942658
-5.77192e-05
0.000999961
-5.73071e-05
0.00105684
-5.68816e-05
0.001113
-5.61594e-05
0.00116835
-5.53522e-05
0.00122279
-5.44427e-05
0.00127618
-5.33851e-05
0.00132846
-5.2286e-05
0.00137955
-5.10822e-05
0.0014293
-4.97542e-05
0.00147746
-4.81715e-05
0.00152403
-4.65686e-05
0.00156896
-4.49253e-05
0.00161212
-4.31653e-05
0.00165345
-4.13199e-05
0.00169274
-3.92911e-05
0.00173
-3.72603e-05
0.00176515
-3.51557e-05
0.00179818
-3.30385e-05
0.00182889
-3.0711e-05
0.00185726
-2.83739e-05
0.00188327
-2.6005e-05
0.00190688
-2.36099e-05
0.00192802
-2.11273e-05
0.00194664
-1.86202e-05
0.0019628
-1.616e-05
0.00197631
-1.35106e-05
0.00198719
-1.08811e-05
0.00199548
-8.29141e-06
0.00200111
-5.62818e-06
0.00200414
-3.02923e-06
0.00200445
-3.12329e-07
0.00200203
2.41983e-06
0.00199696
5.07734e-06
0.00198922
7.73437e-06
0.00197891
1.03151e-05
0.00196594
1.29679e-05
0.00195033
1.56093e-05
0.00193213
1.82012e-05
0.00191131
2.08161e-05
0.00188804
2.32792e-05
0.00186225
2.57886e-05
0.00183404
2.82138e-05
0.00180342
3.06208e-05
0.0017704
3.30248e-05
0.00173511
3.52849e-05
0.00169753
3.75825e-05
0.00165786
3.96713e-05
0.00161607
4.17839e-05
0.0015723
4.37699e-05
0.00152666
4.56416e-05
0.00147923
4.74254e-05
0.00143003
4.92051e-05
0.00137921
5.08182e-05
0.0013268
5.24091e-05
0.00127304
5.37541e-05
0.00121801
5.50348e-05
0.00116186
5.61489e-05
0.00110472
5.71405e-05
0.00104666
5.80592e-05
0.000987865
5.87951e-05
0.000928433
5.94323e-05
0.000868513
5.99194e-05
0.000808242
6.02721e-05
0.000747805
6.04367e-05
0.000687406
6.0399e-05
0.000627205
6.02009e-05
0.000567224
5.99816e-05
0.000507745
5.94783e-05
0.000448804
5.89411e-05
0.000390558
5.82458e-05
0.000333137
5.74215e-05
0.000276796
5.63415e-05
0.000221614
5.51817e-05
0.000167723
5.38914e-05
0.000115229
5.24947e-05
6.43158e-05
5.09128e-05
1.50462e-05
4.92695e-05
-3.24527e-05
4.74987e-05
-7.81223e-05
4.56694e-05
-0.000121774
4.36519e-05
-0.00016337
4.15955e-05
-0.000202855
3.94847e-05
-0.000240177
3.73225e-05
-0.00027522
3.50432e-05
-0.000307914
3.2694e-05
-0.000338215
3.03007e-05
-0.000366105
2.78891e-05
-0.00039162
2.55148e-05
-0.00041471
2.30896e-05
-0.000435291
2.05812e-05
-0.000453378
1.80867e-05
-0.000468999
1.56209e-05
-0.000482127
1.3128e-05
-0.000492958
1.08306e-05
-0.000501418
8.45954e-06
-0.000507418
5.99967e-06
-0.000511145
3.72712e-06
-0.000512558
1.41223e-06
-0.000511761
-7.97559e-07
-0.000508785
-2.97575e-06
-0.00050373
-5.05482e-06
-0.000496629
-7.10187e-06
-0.000487617
-9.01218e-06
-0.000476762
-1.08554e-05
-0.000464109
-1.2653e-05
-0.000449818
-1.4289e-05
-0.000433935
-1.58811e-05
-0.000416668
-1.72652e-05
-0.000398044
-1.86224e-05
-0.000378183
-1.98591e-05
-0.000357176
-2.10047e-05
-0.000335252
-2.19214e-05
-0.000312525
-2.27237e-05
-0.000289015
-2.35067e-05
-0.000264891
-2.41227e-05
-0.000240212
-2.46775e-05
-0.000215132
-2.50792e-05
-0.00018996
-2.51718e-05
-0.000164608
-2.53515e-05
-0.000139244
-2.53652e-05
-0.000114003
-2.52416e-05
-8.90112e-05
-2.49934e-05
-6.42924e-05
-2.47205e-05
-4.00009e-05
-2.42929e-05
-1.61698e-05
-2.38325e-05
7.15592e-06
-2.3327e-05
2.9861e-05
-2.27065e-05
5.19412e-05
-2.20815e-05
7.33716e-05
-2.14313e-05
9.41254e-05
-2.07543e-05
0.000114133
-2.00075e-05
0.000133461
-1.93286e-05
0.000152095
-1.86333e-05
0.000169904
-1.78096e-05
0.000187107
-1.72031e-05
0.000203525
-1.64172e-05
0.000219274
-1.57488e-05
0.000234341
-1.50666e-05
0.000248707
-1.43649e-05
0.000262461
-1.3754e-05
0.000275436
-1.29742e-05
0.000287899
-1.24625e-05
0.00029959
-1.16917e-05
0.000310576
-1.09852e-05
0.000320927
-1.03517e-05
0.000330527
-9.59902e-06
0.000339437
-8.90957e-06
0.000347703
-8.26551e-06
0.000355307
-7.6034e-06
0.000362392
-7.08488e-06
0.000368857
-6.46514e-06
0.000374786
-5.9291e-06
0.0003801
-5.31453e-06
0.000384866
-4.76648e-06
0.00038897
-4.10423e-06
0.000392645
-3.67513e-06
0.000395819
-3.17341e-06
0.00039849
-2.67181e-06
0.000400638
-2.14852e-06
0.000402254
-1.61585e-06
0.000403303
-1.05028e-06
0.000403644
-3.4064e-07
0.000403253
3.90517e-07
0.000402096
1.15726e-06
0.000400333
1.76237e-06
0.000398003
2.3289e-06
0.000395017
2.98577e-06
0.000391362
3.65505e-06
0.000386952
4.40999e-06
0.000381667
5.28506e-06
0.000375632
6.03398e-06
0.000368795
6.83679e-06
0.000361109
7.68557e-06
0.000352555
8.5545e-06
0.000343235
9.31892e-06
0.000333045
1.01907e-05
0.000321899
1.11457e-05
0.000309805
1.20948e-05
0.000296717
1.30873e-05
0.000282506
1.42117e-05
0.000267226
1.52802e-05
0.000250867
1.63589e-05
0.000233138
1.77298e-05
0.000213852
1.92867e-05
0.000192296
2.15558e-05
0.000169252
2.30447e-05
0.000142814
2.64386e-05
0.000113356
2.94581e-05
9.65085e-05
1.68479e-05
9.71461e-05
-6.37328e-07
8.71215e-05
1.00249e-05
6.19325e-05
2.51893e-05
3.13714e-05
3.05613e-05
1.11356e-05
2.0236e-05
1.05588e-05
5.7693e-07
8.29207e-07
9.72968e-06
-2.7986e-05
2.88153e-05
-5.82254e-05
3.02394e-05
-8.52557e-05
2.70301e-05
-0.000110762
2.55062e-05
-0.000134554
2.37919e-05
-0.000157004
2.24497e-05
-0.000178311
2.13074e-05
-0.000198618
2.03066e-05
-0.000218082
1.94635e-05
-0.000236742
1.86595e-05
-0.000254655
1.79131e-05
-0.000271848
1.71928e-05
-0.00028822
1.63722e-05
-0.000303719
1.54989e-05
-0.000318388
1.46691e-05
-0.000332004
1.36158e-05
-0.000344824
1.28205e-05
-0.000356644
1.18196e-05
-0.000367386
1.07422e-05
-0.000377098
9.71245e-06
-0.000385675
8.5766e-06
-0.000393192
7.51697e-06
-0.000399673
6.48105e-06
-0.000405062
5.38888e-06
-0.000409387
4.32444e-06
-0.000412541
3.15352e-06
-0.000414578
2.03745e-06
-0.000415605
1.02684e-06
-0.000415663
5.68666e-08
-0.000414718
-9.44546e-07
-0.000412714
-2.00475e-06
-0.000409611
-3.10315e-06
-0.000405505
-4.10679e-06
-0.000400435
-5.07036e-06
-0.000394625
-5.81035e-06
-0.000387828
-6.7972e-06
-0.00037998
-7.84894e-06
-0.000371097
-8.88317e-06
-0.000361318
-9.77983e-06
-0.00035063
-1.06886e-05
-0.000338989
-1.16414e-05
-0.000326485
-1.25048e-05
-0.000313002
-1.34836e-05
-0.000298767
-1.42364e-05
-0.000283715
-1.50521e-05
-0.000267908
-1.58081e-05
-0.000251357
-1.65514e-05
-0.000234173
-1.71847e-05
-0.000216213
-1.79604e-05
-0.000197898
-1.83148e-05
-0.000179097
-1.8802e-05
-0.000159509
-1.95884e-05
-0.000139375
-2.01341e-05
-0.000118456
-2.09197e-05
-9.68618e-05
-2.15939e-05
-7.46497e-05
-2.2212e-05
-5.18332e-05
-2.28163e-05
-2.84424e-05
-2.33907e-05
-4.43492e-06
-2.40073e-05
1.99614e-05
-2.43961e-05
4.50374e-05
-2.50759e-05
7.05791e-05
-2.55415e-05
9.64373e-05
-2.5858e-05
0.000122509
-2.60713e-05
0.000148701
-2.61916e-05
0.000174899
-2.61979e-05
0.000201146
-2.62462e-05
0.000227382
-2.62359e-05
0.000253419
-2.60362e-05
0.000279028
-2.56092e-05
0.000303891
-2.48619e-05
0.000327832
-2.39409e-05
0.000350679
-2.28459e-05
0.000372578
-2.18987e-05
0.000393486
-2.09071e-05
0.000413153
-1.96663e-05
0.000431207
-1.80536e-05
0.000447428
-1.62198e-05
0.000461658
-1.42297e-05
0.00047387
-1.2211e-05
0.000484077
-1.02065e-05
0.00049192
-7.84196e-06
0.000497497
-5.57675e-06
0.000500347
-2.84919e-06
0.000500538
-1.89157e-07
0.000497911
2.6278e-06
0.00049233
5.58155e-06
0.000484092
8.23888e-06
0.000472781
1.1312e-05
0.000458268
1.45131e-05
0.000440464
1.78053e-05
0.000419603
2.08612e-05
0.000395342
2.42611e-05
0.000367799
2.75434e-05
0.000337068
3.07318e-05
0.000303183
3.38844e-05
0.000266045
3.7139e-05
0.000225671
4.03735e-05
0.000182433
4.32382e-05
0.00013571
4.67236e-05
8.62679e-05
4.94426e-05
3.38733e-05
5.23953e-05
-2.11643e-05
5.50385e-05
-7.86033e-05
5.74399e-05
-0.000138337
5.97347e-05
-0.000200317
6.19816e-05
-0.000264464
6.4149e-05
-0.00033066
6.61972e-05
-0.000398599
6.79399e-05
-0.000467752
6.91542e-05
-0.000538066
7.03156e-05
-0.000609277
7.12123e-05
-0.00068126
7.19833e-05
-0.000753914
7.26549e-05
-0.000826721
7.28082e-05
-0.000899568
7.28472e-05
-0.000972276
7.27091e-05
-0.00104412
7.18432e-05
-0.00111498
7.08582e-05
-0.00118496
6.99864e-05
-0.00125376
6.87954e-05
-0.00132104
6.7282e-05
-0.00138645
6.5406e-05
-0.00144991
6.34618e-05
-0.00151104
6.11273e-05
-0.00156974
5.87016e-05
-0.00162581
5.60695e-05
-0.00167902
5.32069e-05
-0.00172919
5.0172e-05
-0.0017761
4.69138e-05
-0.00181946
4.33629e-05
-0.00185909
3.9622e-05
-0.00189502
3.59385e-05
-0.00192723
3.22091e-05
-0.00195554
2.83089e-05
-0.00197966
2.41162e-05
-0.00199957
1.99117e-05
-0.00201511
1.55466e-05
-0.00202627
1.116e-05
-0.00203304
6.76707e-06
-0.00203546
2.41709e-06
-0.00203347
-1.98758e-06
-0.00202713
-6.33448e-06
-0.00201636
-1.0775e-05
-0.00200103
-1.53313e-05
-0.00198139
-1.96322e-05
-0.00195743
-2.39607e-05
-0.00192944
-2.79873e-05
-0.00189759
-3.18471e-05
-0.00186171
-3.58766e-05
-0.00182222
-3.94857e-05
-0.00177919
-4.30373e-05
-0.00173273
-4.64559e-05
-0.00168297
-4.97596e-05
-0.00163018
-5.27965e-05
-0.00157466
-5.55148e-05
-0.00151668
-5.79811e-05
-0.00145631
-6.03721e-05
-0.00139391
-6.23949e-05
-0.00132961
-6.43017e-05
-0.00126366
-6.59486e-05
-0.00119646
-6.72041e-05
-0.00112796
-6.85001e-05
-0.00105847
-6.9485e-05
-0.000988314
-7.01572e-05
-0.000917678
-7.06375e-05
-0.000846794
-7.08851e-05
-0.000775915
-7.0881e-05
-0.000705136
-7.07808e-05
-0.000634752
-7.03845e-05
-0.000564899
-6.98535e-05
-0.000495713
-6.9186e-05
-0.000427411
-6.83022e-05
-0.000360125
-6.72854e-05
-0.000294025
-6.61005e-05
-0.000229313
-6.47121e-05
-0.000166021
-6.32928e-05
-0.00010434
-6.16825e-05
-4.44513e-05
-5.98909e-05
1.3441e-05
-5.78943e-05
6.9208e-05
-5.57687e-05
0.000122807
-5.36003e-05
0.000174068
-5.12615e-05
0.000222831
-4.87634e-05
0.000268982
-4.61511e-05
0.000312532
-4.35492e-05
0.000353368
-4.08358e-05
0.00039125
-3.78821e-05
0.000426052
-3.48027e-05
0.00045767
-3.16188e-05
0.000486038
-2.83685e-05
0.000511026
-2.49897e-05
0.000532536
-2.15119e-05
0.000550535
-1.80002e-05
0.000564895
-1.43604e-05
0.000575592
-1.06975e-05
0.000582547
-6.95399e-06
0.000585639
-3.09144e-06
0.000584886
7.54856e-07
0.000580198
4.69089e-06
0.000571532
8.66794e-06
0.000558857
1.26776e-05
0.000542138
1.67197e-05
0.000521401
2.07374e-05
0.000496632
2.47689e-05
0.000467817
2.88146e-05
0.000434973
3.2844e-05
0.000398109
3.68638e-05
0.000357263
4.0847e-05
0.000312461
4.48035e-05
0.000263759
4.87054e-05
0.00021121
5.25513e-05
0.000154871
5.63423e-05
9.50146e-05
5.98583e-05
3.17016e-05
6.33144e-05
-3.479e-05
6.64919e-05
-0.000104746
6.99546e-05
-0.000177833
7.30856e-05
-0.000253844
7.60086e-05
-0.000332672
7.88254e-05
-0.000414164
8.14901e-05
-0.000498098
8.39329e-05
-0.000584258
8.616e-05
-0.000672419
8.81615e-05
-0.000762353
8.99366e-05
-0.000853838
9.14872e-05
-0.000946618
9.27816e-05
-0.00104043
9.38171e-05
-0.00113502
9.45935e-05
-0.00123012
9.50965e-05
-0.00132545
9.53345e-05
-0.00142078
9.53271e-05
-0.00151585
9.50748e-05
-0.00161044
9.45934e-05
-0.00170431
9.3867e-05
-0.00179721
9.28962e-05
-0.00188889
9.16842e-05
-0.00197914
9.02481e-05
-0.00206773
8.85963e-05
-0.00215448
8.67528e-05
-0.00223921
8.47295e-05
-0.00232174
8.25237e-05
-0.00240187
8.01322e-05
-0.00247944
7.75731e-05
-0.00255429
7.4848e-05
-0.00262626
7.19737e-05
-0.00269521
6.89534e-05
-0.00276101
6.58034e-05
-0.00282355
6.25428e-05
-0.00288272
5.91623e-05
-0.00293841
5.56925e-05
-0.00299054
5.21342e-05
-0.00303901
4.84828e-05
-0.00308376
4.47621e-05
-0.00312473
4.09656e-05
-0.00316185
3.71184e-05
-0.0031951
3.32531e-05
-0.00322447
2.9373e-05
-0.00324994
2.54669e-05
-0.00327147
2.15358e-05
-0.00328906
1.75871e-05
-0.00330274
1.36867e-05
-0.00331259
9.84216e-06
-0.00331865
6.0608e-06
-0.00332095
2.30723e-06
-0.00331955
-1.4074e-06
-0.00331452
-5.03409e-06
-0.00330593
-8.59022e-06
-0.00329385
-1.2074e-05
-0.00327845
-1.54011e-05
-0.00325977
-1.86747e-05
-0.00323793
-2.18386e-05
-0.00321301
-2.49176e-05
-0.00318512
-2.79001e-05
-0.00315434
-3.07787e-05
-0.00312078
-3.35533e-05
-0.00308455
-3.62274e-05
-0.00304572
-3.88351e-05
-0.00300433
-4.13843e-05
-0.00296048
-4.38563e-05
-0.00291426
-4.6218e-05
-0.00286576
-4.84983e-05
-0.00281508
-5.06837e-05
-0.00276227
-5.28051e-05
-0.00270736
-5.49075e-05
-0.00265038
-5.69871e-05
-0.00259139
-5.89843e-05
-0.00253054
-6.08506e-05
-0.00246789
-6.26514e-05
-0.0024035
-6.43912e-05
-0.00233742
-6.60723e-05
-0.00226975
-6.76746e-05
-0.00220053
-6.92173e-05
-0.00212983
-7.07023e-05
-0.00205775
-7.20837e-05
-0.00198448
-7.32651e-05
-0.00191003
-7.44574e-05
-0.00183444
-7.55841e-05
-0.00175783
-7.66155e-05
-0.00168026
-7.75651e-05
-0.00160181
-7.84494e-05
-0.00152265
-7.91645e-05
-0.00144283
-7.98226e-05
-0.00136247
-8.03629e-05
-0.00128164
-8.08307e-05
-0.0012004
-8.12401e-05
-0.00111888
-8.15174e-05
-0.00103718
-8.17057e-05
-0.000955363
-8.18139e-05
-0.000873519
-8.18455e-05
-0.000791686
-8.18341e-05
-0.000710006
-8.16819e-05
-0.000628545
-8.14617e-05
-0.0005474
-8.11466e-05
-0.000466668
-8.07339e-05
-0.000386394
-8.02763e-05
-0.000306628
-7.9768e-05
-0.000227452
-7.91777e-05
-0.000149076
-7.83775e-05
-7.15166e-05
-7.75617e-05
5.23498e-06
-7.67535e-05
8.10944e-05
-7.58614e-05
0.000155967
-7.48747e-05
0.000229758
-7.37931e-05
0.000302427
-7.26702e-05
0.00037397
-7.15451e-05
0.000444323
-7.03552e-05
0.000513402
-6.90799e-05
0.000581133
-6.77327e-05
0.000647481
-6.63503e-05
0.000712418
-6.49381e-05
0.000775886
-6.34686e-05
0.000837815
-6.19309e-05
0.000898154
-6.03395e-05
0.000956859
-5.87058e-05
0.0010139
-5.70387e-05
0.00106923
-5.53316e-05
0.00112281
-5.35854e-05
0.00117461
-5.17956e-05
0.00122458
-4.99677e-05
0.0012727
-4.81201e-05
0.00131894
-4.62395e-05
0.00136325
-4.43162e-05
0.00140562
-4.23668e-05
0.00144601
-4.03917e-05
0.00148441
-3.8396e-05
0.00152079
-3.63846e-05
0.00155514
-3.43426e-05
0.00158742
-3.2286e-05
0.00161763
-3.02103e-05
0.00164576
-2.81237e-05
0.00167179
-2.60254e-05
0.00169569
-2.39048e-05
0.00171748
-2.17876e-05
0.00173715
-1.96697e-05
0.00175469
-1.75394e-05
0.00177009
-1.54015e-05
0.00178336
-1.32635e-05
0.00179448
-1.11247e-05
0.00180348
-8.99444e-06
0.00181035
-6.87176e-06
0.0018151
-4.74675e-06
0.00181773
-2.6336e-06
0.00181825
-5.18437e-07
0.00181669
1.56587e-06
0.00181304
3.64692e-06
0.00180733
5.71053e-06
0.00179957
7.75823e-06
0.00178978
9.78803e-06
0.00177799
1.17934e-05
0.00176421
1.37835e-05
0.00174846
1.57473e-05
0.00173077
1.76861e-05
0.00171118
1.95985e-05
0.00168969
2.14842e-05
0.00166635
2.3341e-05
0.00164119
2.51602e-05
0.00161424
2.69552e-05
0.00158552
2.87141e-05
0.00155508
3.0438e-05
0.00152296
3.21254e-05
0.00148918
3.37742e-05
0.0014538
3.53869e-05
0.00141684
3.69574e-05
0.00137835
3.84858e-05
0.00133839
3.99639e-05
0.00129698
4.14091e-05
0.00125418
4.28063e-05
0.00121002
4.41567e-05
0.00116456
4.54592e-05
0.00111785
4.67134e-05
0.00106993
4.79203e-05
0.00102086
4.90721e-05
0.000970684
5.01735e-05
0.00091947
5.12138e-05
0.000867255
5.2216e-05
0.000814097
5.31586e-05
0.000760054
5.40443e-05
0.000705181
5.48739e-05
0.000649535
5.56472e-05
0.00059317
5.63653e-05
0.000536151
5.70199e-05
0.000478542
5.76097e-05
0.00042041
5.81329e-05
0.000361824
5.85859e-05
0.000302902
5.89221e-05
0.000243997
5.89055e-05
0.000184863
5.91357e-05
0.000123679
6.11863e-05
6.15369e-05
6.21445e-05
6.15379e-05
-2.87983e-05
6.0529e-05
-5.95458e-05
6.14774e-05
-9.02072e-05
6.11957e-05
-0.000120735
6.0407e-05
-0.000151039
6.01278e-05
-0.000181127
5.99552e-05
-0.000211103
5.98532e-05
-0.000241044
5.98061e-05
-0.000270972
5.9745e-05
-0.000300835
5.96588e-05
-0.000330642
5.95628e-05
-0.000360393
5.94511e-05
-0.000390085
5.933e-05
-0.000419703
5.91897e-05
-0.000449241
5.90382e-05
-0.000478689
5.88624e-05
-0.000508042
5.86682e-05
-0.000537288
5.84559e-05
-0.000566418
5.82237e-05
-0.000595423
5.7973e-05
-0.000624296
5.77077e-05
-0.000653028
5.74231e-05
-0.000681609
5.71219e-05
-0.000710032
5.68025e-05
-0.000738285
5.64651e-05
-0.000766363
5.61127e-05
-0.000794256
5.57418e-05
-0.000821955
5.53542e-05
-0.000849454
5.49519e-05
-0.000876744
5.45355e-05
-0.000903818
5.41016e-05
-0.000930668
5.36531e-05
-0.000957286
5.31885e-05
-0.000983664
5.2708e-05
-0.00100979
5.22118e-05
-0.00103567
5.16999e-05
-0.00106128
5.11724e-05
-0.00108662
5.06293e-05
-0.00111167
5.00704e-05
-0.00113645
4.94959e-05
-0.00116092
4.89058e-05
-0.0011851
4.83003e-05
-0.00120896
4.76795e-05
-0.00123251
4.70433e-05
-0.00125573
4.63916e-05
-0.00127861
4.57246e-05
-0.00130116
4.50422e-05
-0.00132335
4.43446e-05
-0.0013452
4.3632e-05
-0.00136667
4.29044e-05
-0.00138778
4.21618e-05
-0.0014085
4.14043e-05
-0.00142884
4.06319e-05
-0.00144879
3.98448e-05
-0.00146834
3.90431e-05
-0.00148748
3.82269e-05
-0.0015062
3.73965e-05
-0.0015245
3.65518e-05
-0.00154237
3.56929e-05
-0.00155981
3.48201e-05
-0.0015768
3.39335e-05
-0.00159334
3.30332e-05
-0.00160942
3.21194e-05
-0.00162504
3.11921e-05
-0.00164019
3.02515e-05
-0.00165487
2.92976e-05
-0.00166906
2.83305e-05
-0.00168276
2.73503e-05
-0.00169596
2.63573e-05
-0.00170866
2.53517e-05
-0.00172085
2.43337e-05
-0.00173253
2.33036e-05
-0.00174369
2.22615e-05
-0.00175431
2.12075e-05
-0.00176441
2.01418e-05
-0.00177396
1.90644e-05
-0.00178298
1.79755e-05
-0.00179144
1.68751e-05
-0.00179934
1.57637e-05
-0.00180669
1.46414e-05
-0.00181347
1.35086e-05
-0.00181967
1.23655e-05
-0.0018253
1.12124e-05
-0.00183035
1.00495e-05
-0.00183481
8.87694e-06
-0.00183868
7.69495e-06
-0.00184195
6.50371e-06
-0.00184463
5.30343e-06
-0.0018467
4.09431e-06
-0.00184816
2.8766e-06
-0.001849
1.65051e-06
-0.00184923
4.16054e-07
-0.00184884
-8.30209e-07
-0.00184782
-2.07842e-06
-0.00184618
-3.33465e-06
-0.0018439
-4.59906e-06
-0.00184099
-5.87013e-06
-0.00183743
-7.14297e-06
-0.00183324
-8.42501e-06
-0.0018284
-9.71369e-06
-0.00182291
-1.10144e-05
-0.00181678
-1.23045e-05
-0.00180999
-1.36078e-05
-0.00180255
-1.49159e-05
-0.00179446
-1.62284e-05
-0.0017857
-1.75509e-05
-0.00177628
-1.88622e-05
-0.0017662
-2.01849e-05
-0.00175546
-2.15104e-05
-0.00174406
-2.28381e-05
-0.00173199
-2.4168e-05
-0.00171925
-2.55e-05
-0.00170585
-2.68331e-05
-0.00169178
-2.81686e-05
-0.00167703
-2.95041e-05
-0.00166163
-3.08376e-05
-0.00164555
-3.21717e-05
-0.00162881
-3.35056e-05
-0.0016114
-3.48397e-05
-0.00159332
-3.6169e-05
-0.00157458
-3.74993e-05
-0.00155518
-3.88284e-05
-0.00153511
-4.01539e-05
-0.00151438
-4.14764e-05
-0.00149298
-4.27959e-05
-0.00147093
-4.41118e-05
-0.00144822
-4.54256e-05
-0.00142486
-4.67343e-05
-0.00140085
-4.80355e-05
-0.00137618
-4.93328e-05
-0.00135087
-5.06241e-05
-0.00132491
-5.1918e-05
-0.00129832
-5.319e-05
-0.00127109
-5.4463e-05
-0.00124322
-5.57308e-05
-0.00121473
-5.69885e-05
-0.0011856
-5.82368e-05
-0.00115586
-5.94792e-05
-0.0011255
-6.07118e-05
-0.00109453
-6.1932e-05
-0.00106295
-6.31498e-05
-0.00103077
-6.43474e-05
-0.000997991
-6.55403e-05
-0.000964622
-6.67229e-05
-0.000930668
-6.78902e-05
-0.000896131
-6.90508e-05
-0.000861027
-7.01903e-05
-0.000825349
-7.13295e-05
-0.000789118
-7.24401e-05
-0.00075233
-7.35479e-05
-0.000714998
-7.46358e-05
-0.000677125
-7.57139e-05
-0.000638726
-7.67702e-05
-0.000599796
-7.78224e-05
-0.000560358
-7.8843e-05
-0.000520409
-7.98603e-05
-0.000479964
-8.08519e-05
-0.000439029
-8.18306e-05
-0.000397612
-8.27903e-05
-0.000355725
-8.37303e-05
-0.000313375
-8.46534e-05
-0.000270575
-8.55528e-05
-0.000227327
-8.6442e-05
-0.000183648
-8.72985e-05
-0.000139543
-8.81423e-05
-9.50308e-05
-8.8968e-05
-5.01248e-05
-8.97698e-05
-4.82774e-06
-9.05544e-05
4.08454e-05
-9.13093e-05
8.68823e-05
-9.20427e-05
0.000133277
-9.27618e-05
0.000180002
-9.34434e-05
0.000227055
-9.41069e-05
0.000274428
-9.47422e-05
0.000322107
-9.53458e-05
0.000370074
-9.59233e-05
0.000418337
-9.64971e-05
0.000466851
-9.70128e-05
0.000515609
-9.75073e-05
0.000564606
-9.79782e-05
0.000613838
-9.84242e-05
0.000663233
-9.88121e-05
0.000712834
-9.9204e-05
0.000762616
-9.95558e-05
0.000812557
-9.98756e-05
0.000862646
-0.000100166
0.00091286
-0.000100418
0.000963184
-0.000100638
0.00101361
-0.000100834
0.0010641
-0.000100979
0.00111466
-0.000101098
0.00116526
-0.000101185
0.00121588