/*--------------------------------*- C++ -*----------------------------------*\
| =========                 |                                                 |
| \\      /  F ield         | OpenFOAM: The Open Source CFD Toolbox           |
|  \\    /   O peration     | Version:  2412                                  |
|   \\  /    A nd           | Website:  www.openfoam.com                      |
|    \\/     M anipulation  |                                                 |
\*---------------------------------------------------------------------------*/
FoamFile
{
    version     2.0;
    format      ascii;
    arch        "LSB;label=32;scalar=64";
    class       volScalarField;
    location    "7.1";
    object      p_rgh;
}
// * * * * * * * * * * * * * * * * * * * * * * * * * * * * * * * * * * * * * //

dimensions      [1 -1 -2 0 0 0 0];

internalField   nonuniform List<scalar> 
6400
(
12421.9
12422.1
12422.4
12422.9
12423.5
12424.1
12424.6
12425.2
12425.6
12425.9
12426.2
12426.3
12426.2
12426
12425.7
12425.2
12424.6
12423.8
12422.8
12421.7
12420.3
12418.7
12416.9
12414.9
12412.6
12410.1
12407.4
12404.4
12401.2
12397.8
12394.3
12390.8
12387.2
12383.8
12380.6
12377.8
12375.4
12373.5
12372.2
12371.6
12371.7
12372.5
12374
12376
12378.6
12381.6
12384.8
12388.3
12391.8
12395.4
12398.8
12402.2
12405.3
12408.2
12410.9
12413.4
12415.6
12417.6
12419.3
12420.9
12422.2
12423.3
12424.3
12425.1
12425.7
12426.2
12426.5
12426.7
12426.8
12426.7
12426.5
12426.1
12425.7
12425.2
12424.7
12424.1
12423.5
12423.1
12422.7
12422.6
12421.8
12421.9
12422.2
12422.6
12423.1
12423.6
12424.1
12424.5
12424.9
12425.2
12425.3
12425.4
12425.3
12425.1
12424.7
12424.2
12423.6
12422.8
12421.8
12420.7
12419.3
12417.8
12416.1
12414.1
12412
12409.6
12407
12404.2
12401.2
12398.1
12394.9
12391.7
12388.5
12385.4
12382.5
12379.9
12377.8
12376.1
12375
12374.5
12374.6
12375.3
12376.6
12378.4
12380.7
12383.3
12386.3
12389.4
12392.6
12395.9
12399.1
12402.1
12405.1
12407.8
12410.4
12412.7
12414.8
12416.7
12418.4
12419.9
12421.2
12422.3
12423.3
12424.1
12424.8
12425.2
12425.6
12425.8
12425.9
12425.9
12425.7
12425.5
12425.1
12424.7
12424.2
12423.8
12423.3
12422.9
12422.6
12422.5
12421.5
12421.7
12421.9
12422.3
12422.7
12423.1
12423.5
12423.9
12424.2
12424.4
12424.5
12424.5
12424.4
12424.1
12423.8
12423.2
12422.6
12421.8
12420.8
12419.7
12418.4
12416.9
12415.3
12413.4
12411.4
12409.1
12406.7
12404.1
12401.4
12398.5
12395.6
12392.6
12389.7
12386.9
12384.4
12382.1
12380.1
12378.6
12377.6
12377.2
12377.2
12377.9
12379
12380.7
12382.7
12385.1
12387.8
12390.6
12393.5
12396.5
12399.4
12402.2
12404.9
12407.5
12409.9
12412.1
12414.1
12415.9
12417.5
12419
12420.3
12421.4
12422.3
12423.1
12423.8
12424.3
12424.7
12424.9
12425
12425
12425
12424.8
12424.5
12424.1
12423.8
12423.4
12423
12422.6
12422.3
12422.1
12421
12421.2
12421.6
12421.9
12422.3
12422.7
12423.1
12423.4
12423.6
12423.8
12423.8
12423.8
12423.6
12423.4
12423
12422.5
12421.8
12421
12420.1
12419
12417.7
12416.3
12414.7
12412.9
12411
12408.9
12406.6
12404.2
12401.6
12399
12396.2
12393.5
12390.8
12388.2
12385.8
12383.7
12381.9
12380.5
12379.6
12379.1
12379.2
12379.8
12380.9
12382.4
12384.3
12386.5
12389
12391.6
12394.3
12397.1
12399.8
12402.4
12405
12407.4
12409.6
12411.7
12413.6
12415.3
12416.9
12418.3
12419.5
12420.6
12421.6
12422.3
12423
12423.5
12423.9
12424.2
12424.3
12424.4
12424.3
12424.2
12424
12423.7
12423.3
12423
12422.6
12422.2
12421.9
12421.7
12420.4
12420.7
12421.1
12421.5
12421.9
12422.3
12422.6
12422.9
12423.1
12423.2
12423.3
12423.2
12423
12422.7
12422.3
12421.8
12421.2
12420.4
12419.5
12418.4
12417.2
12415.9
12414.3
12412.7
12410.8
12408.8
12406.7
12404.4
12402
12399.5
12396.9
12394.3
12391.7
12389.3
12387
12384.9
12383.2
12381.9
12381
12380.6
12380.6
12381.2
12382.2
12383.7
12385.5
12387.6
12390
12392.5
12395.1
12397.7
12400.2
12402.7
12405.1
12407.4
12409.5
12411.5
12413.3
12415
12416.4
12417.8
12419
12420
12420.9
12421.7
12422.4
12422.9
12423.3
12423.6
12423.8
12423.8
12423.8
12423.7
12423.5
12423.3
12422.9
12422.6
12422.2
12421.8
12421.4
12421.1
12419.8
12420.2
12420.7
12421.2
12421.6
12421.9
12422.2
12422.5
12422.7
12422.8
12422.8
12422.7
12422.5
12422.2
12421.8
12421.3
12420.7
12419.9
12419
12418
12416.9
12415.6
12414.1
12412.6
12410.8
12408.9
12406.9
12404.7
12402.4
12400
12397.6
12395
12392.6
12390.2
12387.9
12385.9
12384.2
12382.8
12382
12381.5
12381.6
12382.2
12383.2
12384.7
12386.5
12388.6
12390.9
12393.3
12395.8
12398.3
12400.8
12403.2
12405.4
12407.6
12409.6
12411.5
12413.2
12414.7
12416.1
12417.4
12418.6
12419.6
12420.5
12421.2
12421.8
12422.4
12422.8
12423.1
12423.3
12423.4
12423.4
12423.3
12423.1
12422.9
12422.6
12422.2
12421.8
12421.4
12421
12420.5
12419.3
12419.8
12420.3
12420.8
12421.2
12421.6
12421.9
12422.2
12422.3
12422.4
12422.4
12422.3
12422.1
12421.8
12421.4
12420.9
12420.3
12419.5
12418.7
12417.7
12416.6
12415.4
12414.1
12412.6
12411
12409.2
12407.3
12405.2
12403
12400.7
12398.3
12395.8
12393.3
12390.9
12388.6
12386.5
12384.8
12383.4
12382.5
12382
12382.1
12382.7
12383.8
12385.3
12387.1
12389.3
12391.6
12394.1
12396.5
12399
12401.4
12403.7
12405.9
12407.9
12409.8
12411.6
12413.2
12414.6
12416
12417.2
12418.3
12419.2
12420.1
12420.8
12421.4
12422
12422.4
12422.7
12422.9
12423
12423
12423
12422.8
12422.6
12422.3
12421.9
12421.5
12421
12420.5
12420
12418.7
12419.3
12419.9
12420.5
12420.9
12421.3
12421.7
12421.9
12422.1
12422.1
12422.1
12422
12421.8
12421.5
12421.1
12420.6
12420
12419.3
12418.5
12417.6
12416.6
12415.4
12414.1
12412.8
12411.2
12409.6
12407.7
12405.8
12403.7
12401.4
12399
12396.5
12394
12391.5
12389.1
12386.9
12385
12383.5
12382.5
12382
12382.1
12382.7
12383.9
12385.5
12387.5
12389.8
12392.2
12394.8
12397.3
12399.8
12402.1
12404.4
12406.4
12408.4
12410.2
12411.8
12413.3
12414.7
12415.9
12417.1
12418.1
12419
12419.8
12420.5
12421.1
12421.7
12422.1
12422.4
12422.6
12422.7
12422.8
12422.7
12422.6
12422.3
12422
12421.6
12421.2
12420.7
12420.1
12419.5
12418.3
12418.9
12419.6
12420.2
12420.7
12421.1
12421.5
12421.7
12421.9
12422
12421.9
12421.8
12421.6
12421.3
12420.9
12420.4
12419.8
12419.2
12418.4
12417.5
12416.6
12415.5
12414.4
12413.1
12411.7
12410.1
12408.4
12406.5
12404.5
12402.2
12399.8
12397.3
12394.7
12392
12389.4
12386.9
12384.8
12383.1
12381.9
12381.4
12381.5
12382.2
12383.6
12385.4
12387.6
12390.1
12392.8
12395.4
12398.1
12400.6
12403
12405.1
12407.2
12409
12410.7
12412.2
12413.6
12414.9
12416.1
12417.1
12418.1
12418.9
12419.7
12420.4
12421
12421.5
12421.9
12422.2
12422.4
12422.6
12422.6
12422.5
12422.4
12422.2
12421.8
12421.4
12420.9
12420.4
12419.7
12419
12417.9
12418.6
12419.4
12420
12420.6
12421
12421.4
12421.7
12421.8
12421.9
12421.8
12421.7
12421.5
12421.2
12420.8
12420.3
12419.7
12419.1
12418.4
12417.6
12416.7
12415.8
12414.7
12413.5
12412.2
12410.8
12409.2
12407.4
12405.5
12403.3
12400.8
12398.2
12395.4
12392.4
12389.5
12386.7
12384.2
12382.2
12380.8
12380.1
12380.3
12381.2
12382.7
12384.9
12387.5
12390.3
12393.2
12396.1
12398.9
12401.5
12403.9
12406.1
12408
12409.8
12411.3
12412.8
12414
12415.2
12416.3
12417.2
12418.1
12418.9
12419.6
12420.3
12420.9
12421.4
12421.8
12422.1
12422.3
12422.5
12422.5
12422.5
12422.3
12422.1
12421.7
12421.3
12420.8
12420.1
12419.4
12418.7
12417.7
12418.4
12419.3
12419.9
12420.5
12421
12421.4
12421.7
12421.8
12421.9
12421.9
12421.7
12421.5
12421.2
12420.8
12420.3
12419.8
12419.2
12418.5
12417.8
12417
12416.1
12415.2
12414.1
12413
12411.7
12410.2
12408.6
12406.7
12404.5
12402
12399.2
12396.1
12392.8
12389.4
12386.1
12383.1
12380.6
12378.9
12378.1
12378.3
12379.4
12381.3
12384
12387
12390.4
12393.7
12396.9
12399.9
12402.6
12405.1
12407.2
12409
12410.7
12412.1
12413.4
12414.6
12415.6
12416.6
12417.4
12418.3
12419
12419.7
12420.3
12420.9
12421.4
12421.8
12422.1
12422.4
12422.5
12422.6
12422.5
12422.4
12422.1
12421.8
12421.3
12420.7
12420
12419.2
12418.5
12417.5
12418.3
12419.2
12420
12420.6
12421.1
12421.5
12421.8
12422
12422
12422
12421.8
12421.5
12421.2
12420.8
12420.3
12419.8
12419.2
12418.6
12418
12417.3
12416.5
12415.7
12414.8
12413.8
12412.7
12411.4
12409.9
12408.1
12406
12403.5
12400.5
12397.1
12393.3
12389.2
12385.2
12381.5
12378.4
12376.3
12375.3
12375.5
12376.9
12379.3
12382.6
12386.4
12390.4
12394.4
12398
12401.3
12404.1
12406.5
12408.6
12410.3
12411.8
12413
12414.2
12415.2
12416.1
12416.9
12417.7
12418.4
12419.1
12419.8
12420.4
12420.9
12421.4
12421.8
12422.2
12422.5
12422.6
12422.7
12422.7
12422.5
12422.3
12421.9
12421.4
12420.7
12420
12419.1
12418.3
12417.4
12418.3
12419.2
12420.1
12420.8
12421.3
12421.8
12422.1
12422.2
12422.2
12422.1
12421.9
12421.6
12421.3
12420.9
12420.4
12419.9
12419.3
12418.8
12418.2
12417.5
12416.9
12416.2
12415.5
12414.7
12413.8
12412.7
12411.5
12409.9
12407.9
12405.4
12402.2
12398.4
12394
12389.1
12384.1
12379.4
12375.5
12372.7
12371.4
12371.7
12373.5
12376.7
12380.9
12385.7
12390.7
12395.4
12399.6
12403.1
12406
12408.4
12410.3
12411.8
12413
12414.1
12415
12415.8
12416.6
12417.3
12417.9
12418.6
12419.2
12419.8
12420.4
12421
12421.5
12421.9
12422.3
12422.6
12422.8
12422.9
12422.9
12422.8
12422.5
12422.1
12421.5
12420.9
12420.1
12419.1
12418.3
12417.3
12418.3
12419.4
12420.3
12421.1
12421.7
12422.2
12422.4
12422.6
12422.5
12422.4
12422.1
12421.8
12421.4
12420.9
12420.4
12419.9
12419.4
12418.8
12418.3
12417.7
12417.2
12416.7
12416.2
12415.6
12415
12414.2
12413.2
12412
12410.2
12407.8
12404.6
12400.4
12395.1
12389.1
12382.8
12376.8
12371.7
12368.2
12366.4
12366.6
12369
12373.2
12378.7
12385
12391.4
12397.2
12402
12405.8
12408.7
12410.8
12412.4
12413.6
12414.5
12415.2
12415.9
12416.4
12417
12417.5
12418.1
12418.7
12419.2
12419.8
12420.4
12420.9
12421.5
12422
12422.4
12422.8
12423
12423.2
12423.2
12423.1
12422.9
12422.4
12421.8
12421.1
12420.2
12419.2
12418.3
12417.3
12418.4
12419.6
12420.6
12421.5
12422.2
12422.7
12423
12423
12423
12422.7
12422.4
12422
12421.5
12421
12420.4
12419.9
12419.4
12418.8
12418.4
12417.9
12417.5
12417.2
12416.9
12416.6
12416.3
12415.9
12415.4
12414.5
12413.1
12411
12407.8
12403.3
12397.1
12389.5
12381.3
12373.5
12366.8
12362.1
12359.6
12359.8
12362.8
12368.3
12375.7
12384.1
12392.4
12399.7
12405.4
12409.4
12412.2
12414
12415.1
12415.8
12416.3
12416.6
12416.8
12417.1
12417.4
12417.8
12418.2
12418.7
12419.2
12419.8
12420.3
12420.9
12421.5
12422
12422.5
12422.9
12423.3
12423.5
12423.6
12423.6
12423.3
12422.9
12422.2
12421.4
12420.4
12419.3
12418.2
12417.1
12418.5
12419.8
12421.1
12422.2
12422.9
12423.5
12423.7
12423.7
12423.6
12423.3
12422.8
12422.4
12421.8
12421.2
12420.7
12420.1
12419.6
12419.1
12418.7
12418.4
12418.1
12418
12417.9
12417.9
12418
12418.1
12418
12417.8
12417
12415.4
12412.5
12407.6
12400.2
12390.4
12379.5
12368.8
12359.7
12353.3
12349.9
12350
12353.9
12361.2
12371.2
12382.5
12393.5
12402.8
12409.6
12413.9
12416.3
12417.6
12418.2
12418.3
12418.3
12418.2
12418.1
12418.1
12418.2
12418.4
12418.7
12419
12419.5
12420
12420.6
12421.2
12421.8
12422.3
12422.9
12423.4
12423.8
12424.1
12424.3
12424.3
12424.1
12423.6
12422.8
12421.8
12420.6
12419.3
12418
12416.7
12418.5
12420.1
12421.6
12422.9
12423.8
12424.4
12424.6
12424.6
12424.4
12424
12423.5
12422.9
12422.3
12421.7
12421.1
12420.6
12420.1
12419.6
12419.3
12419.1
12419
12419.1
12419.3
12419.6
12420.1
12420.8
12421.4
12422
12422.1
12421.4
12419.3
12414.4
12405.1
12391.9
12376.4
12361
12348
12339.3
12334.9
12335.3
12340.9
12351
12364.9
12380.5
12395.3
12407.4
12415.3
12419.4
12421.2
12421.7
12421.5
12421
12420.4
12419.9
12419.5
12419.2
12419.1
12419.2
12419.4
12419.7
12420.1
12420.6
12421.2
12421.8
12422.4
12423
12423.7
12424.2
12424.7
12425.1
12425.4
12425.4
12425.2
12424.6
12423.8
12422.5
12421
12419.2
12417.5
12415.4
12418.2
12420.3
12422.2
12423.7
12424.8
12425.4
12425.6
12425.5
12425.1
12424.7
12424.1
12423.4
12422.8
12422.1
12421.5
12420.9
12420.4
12420.1
12419.8
12419.7
12419.8
12420.1
12420.7
12421.4
12422.4
12423.8
12425.4
12427.2
12429
12430.3
12430.6
12426.8
12414.8
12395.1
12371.6
12349
12331.1
12319.1
12312.9
12313.7
12322.2
12336.5
12355.9
12378.9
12400.7
12418.1
12427.3
12429.5
12428.9
12427.6
12426.1
12424.5
12423
12421.8
12420.9
12420.3
12420.1
12420
12420.1
12420.3
12420.6
12421.1
12421.6
12422.2
12422.9
12423.6
12424.3
12425
12425.6
12426.1
12426.4
12426.5
12426.3
12425.8
12424.7
12423.1
12421.1
12418.6
12416.2
12412
12417.3
12421.1
12423.8
12425.5
12426.6
12427
12427
12426.6
12426
12425.2
12424.4
12423.6
12422.7
12421.9
12421.2
12420.5
12419.9
12419.5
12419.2
12419.2
12419.4
12419.9
12420.7
12421.8
12423.4
12425.6
12428.5
12432
12436
12440.9
12446.3
12446.8
12433.1
12404.8
12372.5
12342.3
12319.7
12214.7
12117.9
12123.1
12247.2
12326.9
12351.7
12383.2
12414
12437.5
12447.2
12444.3
12439
12434.6
12430.9
12427.7
12425.1
12422.9
12421.3
12420.3
12419.9
12419.7
12419.6
12419.7
12420
12420.5
12421.1
12421.8
12422.6
12423.5
12424.3
12425.2
12426
12426.8
12427.3
12427.7
12427.8
12427.3
12426.3
12424.4
12421.7
12417.9
12412.8
12395.3
12357.8
12317.8
12277.6
12240.7
12207.4
12177.4
12150.3
12125.6
12102.7
12081.1
12060.4
12040.2
12020.2
12000.1
11979.8
11959.2
11938.3
11917.3
11896.6
11876.8
11858.5
11842.7
11830.3
11822.5
11819.7
11820.6
11823.9
11826.4
11821.6
11797.4
11728.1
11582.2
11256.1
10007.5
8366.2
6978.6
5742.2
5363.31
5081.11
5093.68
5426.58
6132.63
7398.81
8833.31
10580.7
11373
11598.9
11734.1
11791.8
11811.8
11816.8
11816.3
11815.8
11817.7
11822.6
11832.5
11847.4
11865.6
11886
11907.4
11929.3
11951.2
11972.8
11993.9
12014.5
12034.7
12054.7
12074.8
12095.3
12116.6
12139
12163.1
12189.5
12218.6
12250.7
12286.3
12324.8
12362.8
12397.6
1318.47
1706.26
1913.47
2033.9
2098.58
2129.61
2140.28
2137.98
2127.18
2110.41
2089.43
2065.44
2039.39
2012.07
1984.21
1956.48
1929.53
1903.91
1880.09
1858.42
1839.18
1822.4
1807.99
1795.77
1785.1
1775.67
1769.85
1767.76
1766.83
1763.14
1749.87
1694.56
1563.24
1523.07
1430.04
1416.01
1401.69
1384
1399.67
1405.61
1404.95
1397.61
1379.56
1349.41
1303.34
1223.27
1426.09
1594.63
1714.15
1751.65
1762.52
1765.8
1765.63
1767.2
1772.4
1782.07
1794.53
1808.55
1823.89
1841.43
1861.41
1883.67
1908.05
1934.22
1961.64
1989.75
2017.96
2045.52
2071.75
2095.83
2116.78
2133.36
2143.9
2145.73
2134.42
2102.61
2036.95
1915.38
1707.18
1318.31
0.00535851
0.00560683
0.00569255
0.0058099
0.00597962
0.00617217
0.006386
0.00661567
0.00685265
0.00711213
0.0074011
0.00771049
0.00813069
0.00874701
0.00959565
0.0118228
0.0256166
0.0475122
0.0316884
0.00467296
-0.00145792
0.000144576
-0.000653507
0.0493788
0.303825
0.73214
0.847889
1.0608
1.35096
1.6988
3.24373
4.60749
6.09868
20.8263
1759.02
3644.01
3684.48
3710.01
3726.59
3727.72
3728.1
3725.81
3709.92
3682.54
3623.74
918.425
16.3437
7.9404
5.82287
3.75934
1.88371
0.871521
0.742466
0.601974
0.692014
0.809877
0.762059
0.282688
0.0295186
-0.0160874
-0.0175176
-0.0153465
0.00326786
0.0180042
0.0144535
0.00640975
0.00661142
0.00603584
0.00509729
0.00476107
0.00482733
0.00505098
0.00523097
0.0053619
0.0054571
0.00551836
0.00555325
0.00556963
0.00557407
0.00537075
0.00573207
0.00573755
0.00579943
0.00591076
0.00607332
0.00625896
0.00647396
0.00671838
0.00698596
0.00728755
0.00766266
0.00814065
0.00883364
0.00998224
0.0119173
0.0144963
0.0166718
0.0356072
0.0540657
0.0189012
0.00131543
0.00181227
-0.000676646
0.00545256
0.894624
4.97364
5.59034
1.94535
1.37148
1.76339
3.38531
3.82877
4.31817
4.94356
694.637
1849.76
2637.97
3406.23
3748.65
3519.21
3529.27
3748.23
3350.09
2598.67
1697.2
341.199
6.96941
6.3454
5.85321
6.59761
3.32744
0.84064
0.842226
2.22124
6.73934
6.77944
5.90221
0.806457
0.000921239
-0.010274
-0.00631116
-0.00991005
-0.00473827
0.00154497
0.00656907
0.00869465
0.00719285
0.00575983
0.00511762
0.00496438
0.00499873
0.00509468
0.0052126
0.0053227
0.00542205
0.00550505
0.00556518
0.00561067
0.00565073
0.00569839
0.0055024
0.00559618
0.00569004
0.00580864
0.00594921
0.00612617
0.00633058
0.0065566
0.00680484
0.00707012
0.00733027
0.00761252
0.00799364
0.00839052
0.00902127
0.0110103
0.083037
0.270678
0.271777
0.189982
-0.000346516
2.76127e-05
-0.00119886
-0.00271979
1.68071
5.54158
5.63724
5.68761
2.05878
3.03763
35.1306
44.0652
44.1048
37.1988
18.6768
0.221712
0.169
0.152595
426.99
107.716
104.213
296.247
0.00948485
0.00991526
0.0107145
12.3553
38.3946
46.5087
46.4363
34.1362
1.52454
0.774428
4.29085
6.85701
6.86164
6.81775
6.56225
1.20178
-0.0149852
-0.0174732
-0.0036073
0.0779066
0.12983
0.124201
0.0573927
0.00709145
0.00603622
0.00574262
0.00496589
0.00461176
0.00470081
0.00496086
0.00516432
0.0053128
0.00542145
0.00549403
0.00553984
0.00556208
0.00556232
0.00551862
0.0054887
0.00553226
0.00560495
0.00570996
0.00584672
0.00601665
0.00621837
0.00644814
0.00670027
0.006961
0.00720555
0.00740625
0.00751061
0.0072447
0.00649589
0.0222788
0.246976
0.284611
0.279292
0.247474
0.000776132
0.000214687
-0.00199419
-0.00409817
-0.00607432
0.0181035
2.36197
5.56041
5.5489
4.20985
1.95223
3.26462
5.32802
3.53648
0.0617181
0.997474
1.61986
0.188923
0.00179603
0.0112697
0.0119383
0.00937533
0.0103208
0.0105326
0.0110148
0.010546
5.55275
5.76894
1.53208
1.21138
2.75877
2.80853
2.48812
3.14732
4.84965
3.10892
0.0312048
-0.0146483
-0.0115432
-0.0165756
0.0455283
0.197825
0.202662
0.207813
0.210732
0.127099
0.00964702
0.00435871
0.00390644
0.00400454
0.00447029
0.00481707
0.00504751
0.00522324
0.00535668
0.00544673
0.00550047
0.00553018
0.00554117
0.00552924
0.00531622
0.00535903
0.00542694
0.00552504
0.00565586
0.00581948
0.00601589
0.00624153
0.0064885
0.00674073
0.00695893
0.00710084
0.00709467
0.00645671
0.00462519
0.00286872
0.0612393
0.252308
0.231437
0.00456807
0.00286617
0.000960835
-0.00275334
-0.00560419
-0.0086766
-0.0112473
-0.0118884
-0.00139
0.00102363
0.00152869
0.00541003
0.00813591
0.00529569
0.0035424
0.0667743
1.18449
1.60087
0.896841
0.0103125
0.012696
0.0105854
0.0099839
0.00958967
0.00992421
0.0105611
0.0118628
0.0105273
0.0076199
0.0155623
0.0146145
0.166168
0.412626
0.128571
0.00372228
-0.000682368
-0.0118516
-0.0105832
-0.00922624
-0.0101225
-0.0147144
-0.00696136
-0.0115898
0.023181
0.155349
0.215536
0.216592
0.152429
0.00953861
0.00316635
0.00308952
0.0038859
0.00456351
0.00488334
0.00507108
0.00521104
0.00530245
0.00535479
0.00538349
0.00539435
0.00538385
0.00508927
0.00512356
0.00518302
0.00527021
0.00538741
0.00553541
0.00571524
0.00592541
0.0061618
0.00641641
0.00665771
0.00682751
0.00682635
0.00627162
0.00500771
0.00427857
0.00350127
0.000354796
-0.00111078
0.000699751
-0.00204412
-0.00479469
-0.00701797
-0.00806463
-0.00857702
-0.00819593
-0.00574443
-0.00205457
0.000867631
0.00276156
0.00411176
0.00512093
0.00537279
0.00495518
0.004596
0.00366443
0.00126488
0.00794554
0.010342
0.0104245
0.00968493
0.00864828
0.0087444
0.00948941
0.0103391
0.0114365
0.0127331
0.0136012
0.0148476
0.0171037
0.0174784
0.00548482
-0.00535896
-0.00753005
-0.00701457
-0.0092968
-0.0120229
-0.0130387
-0.0129674
-0.0135948
-0.0189918
-0.0213764
-0.0177361
-0.0143409
0.0879156
0.222561
0.2239
0.0739978
0.00176562
0.00197567
0.00304996
0.00408053
0.00454904
0.00478849
0.00495299
0.00505417
0.00511047
0.00514069
0.00515421
0.00515001
0.0048119
0.00483728
0.00488514
0.00495647
0.00505305
0.00517644
0.00532911
0.00551324
0.00573099
0.00598441
0.00625919
0.00651863
0.00671447
0.00673518
0.00688723
0.00854741
0.0103021
0.00462237
-0.00493354
-0.00797217
-0.0115359
-0.0146445
-0.0155638
-0.0148547
-0.012984
-0.0101434
-0.00629141
-0.00267087
9.58021e-05
0.00239597
0.00409588
0.00491391
0.00496201
0.00506022
0.00554732
0.00563259
0.00516061
0.00508176
0.00724357
0.00828233
0.00846524
0.00836085
0.00884326
0.00931385
0.0101297
0.0113871
0.0122068
0.0123897
0.013175
0.0132166
0.0112966
0.00767567
0.00256987
-0.00127092
-0.00517931
-0.0116527
-0.0193591
-0.0256361
-0.0298181
-0.0312592
-0.0307793
-0.0266165
-0.0186263
-0.00691627
-0.000296107
0.143487
0.230862
0.107186
-0.000363982
0.0011364
0.00231548
0.00347924
0.0040978
0.00440301
0.00459782
0.00471689
0.00478466
0.00482223
0.00484171
0.00484648
0.00448921
0.00450709
0.00454135
0.00459277
0.0046629
0.00475369
0.00486847
0.00501192
0.00519115
0.00541696
0.00569332
0.00601709
0.00642109
0.00700444
0.00819324
0.010558
0.0134148
0.00620828
-0.00771622
-0.0181051
-0.0244375
-0.0267938
-0.0273717
-0.0244649
-0.0189646
-0.0134141
-0.00845641
-0.00438666
-0.00122386
0.00118633
0.00292452
0.00400743
0.00453919
0.00483088
0.00502832
0.00523758
0.00547703
0.00564735
0.00599648
0.0071002
0.00783741
0.00811349
0.00850262
0.00896324
0.00973427
0.0107651
0.0115073
0.0118945
0.0122179
0.0121942
0.0112356
0.00817463
0.00275668
-0.00394984
-0.0117882
-0.0220682
-0.0345649
-0.0463444
-0.0540595
-0.0556888
-0.0499603
-0.0371724
-0.0198091
-0.00213843
0.00676747
0.067997
0.239067
0.0545779
-0.00173548
0.000816128
0.00184966
0.00296187
0.00362943
0.00396471
0.00417948
0.00431433
0.00439444
0.00444129
0.00446704
0.00447716
0.0041326
0.00414242
0.00416102
0.00418909
0.00422752
0.00427784
0.00434304
0.00442814
0.00454197
0.00469923
0.00491479
0.00521246
0.00569201
0.00655292
0.00815645
0.0101751
0.010208
-0.00139543
-0.0194959
-0.031733
-0.0419312
-0.0459759
-0.0425183
-0.039132
-0.0294031
-0.0195206
-0.01206
-0.0068404
-0.00298083
-0.000166034
0.00180769
0.00312619
0.00399712
0.00461427
0.00503447
0.00526543
0.00537147
0.00547289
0.00553767
0.00642503
0.00740099
0.00779638
0.00816941
0.00860352
0.00923106
0.0099459
0.0104589
0.0106766
0.0106294
0.0101326
0.00867227
0.00553813
0.00020192
-0.00763165
-0.0189046
-0.0353669
-0.0564538
-0.0767171
-0.0890982
-0.0899142
-0.0780287
-0.0561106
-0.0294826
-0.00384208
0.0112246
0.0594722
0.233479
0.0326997
-0.00029434
0.00133166
0.00177418
0.00262837
0.00320265
0.00351311
0.00372658
0.00386744
0.00395601
0.00401083
0.0040425
0.00405625
0.00375281
0.0037539
0.00375539
0.00375748
0.00375992
0.00376298
0.00376787
0.00377768
0.0037992
0.00384492
0.00393038
0.00408915
0.00445556
0.00522755
0.0070884
0.0101895
0.0036804
-0.0137869
-0.0370288
-0.0575014
-0.0745769
-0.0794443
-0.07241
-0.0566713
-0.0398681
-0.0287815
-0.0172055
-0.0101065
-0.0052273
-0.00181419
0.000548167
0.00217528
0.0033151
0.00415253
0.00477578
0.00520999
0.00545884
0.00542075
0.00535014
0.00602907
0.00698667
0.00737843
0.00770112
0.00804933
0.0084976
0.00891099
0.00915411
0.00914759
0.0088091
0.00793831
0.00610961
0.00260648
-0.00349123
-0.0134344
-0.0296274
-0.0548714
-0.0876518
-0.118504
-0.136152
-0.135362
-0.116094
-0.0840584
-0.0479916
-0.0134249
0.0096398
0.0708668
0.225776
0.098529
9.65522e-05
0.001889
0.00188815
0.00237504
0.0027932
0.00305305
0.00325013
0.00338946
0.00348331
0.00354478
0.00358225
0.00359966
0.00336071
0.00335301
0.00333687
0.00331167
0.00327568
0.0032271
0.00316412
0.00308563
0.00299255
0.00288879
0.00278021
0.00269083
0.00273065
0.00306099
0.00490093
0.00712699
-0.00493573
-0.0292603
-0.0575275
-0.0892009
-0.111957
-0.120244
-0.113526
-0.086935
-0.0586888
-0.0355219
-0.0234254
-0.0137635
-0.00761873
-0.00347709
-0.000676045
0.00126072
0.00262964
0.00363385
0.00439098
0.00492884
0.00521789
0.00525389
0.00521036
0.0056241
0.00649261
0.00684551
0.00710505
0.00737185
0.0076437
0.00780942
0.00780726
0.00755865
0.00692758
0.00568486
0.00340117
-0.000710315
-0.00781287
-0.0198943
-0.0410382
-0.0753038
-0.119622
-0.160054
-0.181967
-0.179737
-0.154077
-0.113284
-0.0691536
-0.0282571
-0.000730405
0.134721
0.222561
0.154216
0.00349541
0.00151563
0.00165222
0.00199287
0.00232151
0.002557
0.00274573
0.00288666
0.00298725
0.00305612
0.00309976
0.00312099
0.00296771
0.00295153
0.00291821
0.0028661
0.00279178
0.00269091
0.00255781
0.00238557
0.00216638
0.00189099
0.00154585
0.00112944
0.00069623
0.000272742
0.000545754
0.00097162
-0.0121298
-0.0439979
-0.0819483
-0.118671
-0.153162
-0.166042
-0.153525
-0.121161
-0.0776398
-0.0451397
-0.0295298
-0.0169874
-0.00971048
-0.00492706
-0.0017585
0.000423765
0.00196044
0.00307837
0.00392813
0.00455943
0.00493048
0.00503304
0.00499298
0.00524439
0.00594461
0.00625405
0.00644982
0.00662679
0.00672893
0.00668755
0.00647393
0.00600064
0.00510975
0.00356428
0.000946283
-0.00358276
-0.0113152
-0.0245747
-0.0487905
-0.0889306
-0.140696
-0.186432
-0.210115
-0.2069
-0.17782
-0.132447
-0.0841426
-0.0413274
-0.0171209
0.129224
0.224536
0.114118
-0.00115773
0.000355482
0.000955569
0.00138301
0.00174032
0.00200417
0.0022096
0.00236456
0.00247786
0.00255708
0.00260822
0.00263373
0.00258466
0.00256072
0.0025117
0.00243494
0.00232538
0.00217611
0.00197754
0.00171669
0.00137624
0.00093255
0.000348834
-0.000415008
-0.00134306
-0.00263109
-0.00433627
-0.00658025
-0.0178938
-0.0529854
-0.0999224
-0.144337
-0.179948
-0.19261
-0.178786
-0.14125
-0.0924058
-0.0519462
-0.0327097
-0.0188408
-0.0109863
-0.00589199
-0.0025358
-0.000234412
0.00138435
0.00255439
0.0034362
0.00410319
0.00452657
0.00469113
0.00470151
0.00486505
0.00538949
0.00562689
0.00577136
0.00585588
0.00581358
0.00561102
0.00522977
0.00457286
0.0034854
0.00174308
-0.00102667
-0.00563498
-0.0132369
-0.0258942
-0.0494016
-0.0890622
-0.14214
-0.188269
-0.211438
-0.20799
-0.178664
-0.133535
-0.0848665
-0.0412864
-0.023305
0.0264373
0.0470802
0.018718
-0.00239162
-0.00110398
-4.48742e-05
0.000609246
0.00107533
0.00140653
0.00165249
0.00183458
0.00196738
0.00206047
0.00212094
0.00215165
0.00222109
0.00219061
0.00212846
0.00203111
0.00189221
0.0017029
0.0014505
0.00111736
0.000678635
9.90679e-05
-0.000675474
-0.00171715
-0.00306116
-0.00461826
-0.00563551
-0.0097153
-0.0214823
-0.0532292
-0.0994743
-0.146505
-0.181573
-0.194819
-0.18163
-0.142532
-0.0940263
-0.0538032
-0.0322978
-0.0186942
-0.0111445
-0.00621413
-0.00292212
-0.000660569
0.000941083
0.00210337
0.00297442
0.00364304
0.00409694
0.00431716
0.00435266
0.00449012
0.00482725
0.00500576
0.00510616
0.00509817
0.00494105
0.00461933
0.00411277
0.00332072
0.00210983
0.000283779
-0.00244081
-0.00680568
-0.0135123
-0.0241206
-0.0439101
-0.0778472
-0.123621
-0.16506
-0.186244
-0.183311
-0.15709
-0.115784
-0.0694849
-0.0302403
-0.0174327
-0.0151689
-0.00969831
-0.00735605
-0.00472019
-0.0024567
-0.00106558
-0.000190566
0.000394213
0.000803568
0.00109956
0.00131488
0.00147084
0.00157981
0.00165056
0.00168788
0.00188493
0.00184944
0.00177764
0.00166509
0.00150494
0.00128731
0.000998032
0.000617407
0.00011756
-0.00054159
-0.00141852
-0.00259348
-0.00420558
-0.00590414
0.00216792
-0.00201457
-0.0195835
-0.0438104
-0.0831535
-0.125925
-0.158664
-0.171203
-0.158969
-0.124246
-0.078615
-0.0486542
-0.0284177
-0.0165918
-0.0101938
-0.00590426
-0.00292429
-0.000842359
0.00065373
0.00175277
0.00257029
0.00321003
0.00366642
0.00391671
0.00398172
0.00410244
0.00429973
0.00441569
0.00447601
0.00438607
0.00414296
0.00373765
0.00314649
0.00227114
0.000999584
-0.000857712
-0.00329994
-0.00722268
-0.0127455
-0.0209563
-0.0349819
-0.058466
-0.0907401
-0.121807
-0.138782
-0.136347
-0.115257
-0.0819759
-0.0460798
-0.0208866
-0.01533
-0.012987
-0.0111505
-0.0088841
-0.00576894
-0.00332428
-0.00185277
-0.000893247
-0.000228464
0.000241351
0.000580616
0.000825754
0.00100384
0.00112806
0.00120779
0.00125428
0.00158221
0.00154317
0.00146595
0.00134416
0.00117199
0.000939279
0.000632239
0.000232093
-0.000287089
-0.000961723
-0.00184153
-0.00299209
-0.0045516
-0.00635806
0.00107952
0.00182461
-0.00436113
-0.0313318
-0.057314
-0.0887526
-0.114541
-0.12454
-0.115475
-0.0884065
-0.0559785
-0.0349744
-0.022054
-0.0134736
-0.0085331
-0.00510221
-0.00261088
-0.000809003
0.000518764
0.00151916
0.00223117
0.00282885
0.00326602
0.00352491
0.00361065
0.00371649
0.00381917
0.00387638
0.00389678
0.00373956
0.00343649
0.002977
0.00233825
0.00143109
0.000185135
-0.00153605
-0.00387141
-0.00720203
-0.0117188
-0.0178914
-0.0269611
-0.0405241
-0.0583646
-0.0754825
-0.084663
-0.0823635
-0.0687363
-0.0483912
-0.0291128
-0.0169799
-0.0152844
-0.0130646
-0.0109455
-0.00828327
-0.00566348
-0.003728
-0.00237982
-0.00142778
-0.000744144
-0.00024664
0.0001205
0.000383339
0.000579336
0.000716173
0.000798681
0.000862279
0.00131702
0.00127494
0.00119778
0.00107195
0.000897183
0.000662124
0.000355261
-3.89725e-05
-0.000541313
-0.00117907
-0.00198699
-0.00300293
-0.00430439
-0.00589646
-0.00621559
0.00450424
0.000935504
-0.00813186
-0.0321445
-0.0504778
-0.0661627
-0.0727583
-0.0688027
-0.0484627
-0.0335804
-0.0246178
-0.0156432
-0.0101774
-0.00665934
-0.00406712
-0.00209979
-0.000620865
0.00049959
0.00135553
0.00200318
0.00252129
0.00291352
0.00315989
0.00325705
0.00334911
0.00338852
0.00339795
0.00337778
0.00316633
0.00282642
0.00233771
0.00168572
0.000791336
-0.000402166
-0.00198613
-0.00408261
-0.00689057
-0.010588
-0.0153997
-0.0216555
-0.0295692
-0.0384474
-0.0458456
-0.0488534
-0.0465342
-0.0395367
-0.0300499
-0.0219323
-0.0168576
-0.0147327
-0.0123114
-0.00977422
-0.00740646
-0.00541361
-0.00387481
-0.00269888
-0.00181369
-0.00114905
-0.000649904
-0.000275075
2.7862e-06
0.000206855
0.000350993
0.000437155
0.00050987
0.00109081
0.00104513
0.000976481
0.000847872
0.000680634
0.000453643
0.00016127
-0.000207572
-0.000667527
-0.00123577
-0.00193112
-0.00276954
-0.00376993
-0.00495345
-0.00614135
-0.0035544
0.00522195
0.00216075
-0.0029557
-0.0136115
-0.0286926
-0.0313305
-0.027601
-0.0229279
-0.0207764
-0.0154111
-0.0104932
-0.00724595
-0.004863
-0.00298635
-0.00150055
-0.000338617
0.0005701
0.00128102
0.0018355
0.00227722
0.00261592
0.0028359
0.0029335
0.00301349
0.00300629
0.00298255
0.00292117
0.00266807
0.00231295
0.00181741
0.00116865
0.000312306
-0.000798724
-0.00222878
-0.00405867
-0.00639463
-0.00936055
-0.0130992
-0.0177138
-0.023055
-0.0283623
-0.0323082
-0.0337105
-0.0322717
-0.0284364
-0.0234625
-0.0189405
-0.0158293
-0.0133385
-0.0109374
-0.00873632
-0.00682582
-0.00521883
-0.00391838
-0.00288562
-0.00207823
-0.00145153
-0.000968168
-0.00059807
-0.000318545
-0.000111692
3.57326e-05
0.000124428
0.000199303
0.000905646
0.000863133
0.000791209
0.000674285
0.000514958
0.000304918
3.84089e-05
-0.000292025
-0.000694795
-0.00117823
-0.00174868
-0.00240723
-0.00314503
-0.0039401
-0.00471253
-0.00540562
-0.00448213
-0.000495801
0.000287083
-0.00184486
-0.00507586
-0.00818503
-0.00898745
-0.0138228
-0.012387
-0.00926753
-0.00682606
-0.0048871
-0.00330168
-0.00198561
-0.000900605
-1.81009e-05
0.000694823
0.00126678
0.00172287
0.00208843
0.00237041
0.00255701
0.0026465
0.00271464
0.00267095
0.00262497
0.00252622
0.00224872