/*--------------------------------*- C++ -*----------------------------------*\
| =========                 |                                                 |
| \\      /  F ield         | OpenFOAM: The Open Source CFD Toolbox           |
|  \\    /   O peration     | Version:  2412                                  |
|   \\  /    A nd           | Website:  www.openfoam.com                      |
|    \\/     M anipulation  |                                                 |
\*---------------------------------------------------------------------------*/
FoamFile
{
    version     2.0;
    format      ascii;
    arch        "LSB;label=32;scalar=64";
    class       surfaceScalarField;
    location    "4.15";
    object      phi;
}
// * * * * * * * * * * * * * * * * * * * * * * * * * * * * * * * * * * * * * //

dimensions      [0 3 -1 0 0 0 0];

oriented        oriented;

internalField   nonuniform List<scalar> 
12640
(
-9.01191e-06
9.01191e-06
-1.3001e-05
3.98864e-06
-1.84382e-05
5.43689e-06
-2.45281e-05
6.08952e-06
-3.07052e-05
6.17676e-06
-3.6861e-05
6.15547e-06
-4.31018e-05
6.24045e-06
-4.95321e-05
6.42996e-06
-5.63e-05
6.76757e-06
-6.34772e-05
7.17688e-06
-7.11038e-05
7.62638e-06
-7.91655e-05
8.06146e-06
-8.75054e-05
8.33974e-06
-9.6362e-05
8.85655e-06
-0.000105508
9.14647e-06
-0.000114991
9.48233e-06
-0.000124564
9.57373e-06
-0.00013406
9.49582e-06
-0.0001433
9.2397e-06
-0.000152034
8.73396e-06
-0.000160038
8.00452e-06
-0.000167093
7.05551e-06
-0.000173022
5.92869e-06
-0.00017766
4.63792e-06
-0.000180852
3.19201e-06
-0.000182472
1.62018e-06
-0.000182208
-2.63771e-07
-0.00017997
-2.23761e-06
-0.000175617
-4.35354e-06
-0.000169109
-6.5076e-06
-0.000160484
-8.62568e-06
-0.00014995
-1.05344e-05
-0.00013771
-1.22401e-05
-0.000123705
-1.40048e-05
-0.000107822
-1.5883e-05
-9.00288e-05
-1.7793e-05
-7.03824e-05
-1.96459e-05
-4.91836e-05
-2.11992e-05
-2.67903e-05
-2.2394e-05
-3.69928e-06
-2.30914e-05
1.94423e-05
-2.31414e-05
4.1968e-05
-2.25254e-05
6.3274e-05
-2.13059e-05
8.29008e-05
-1.96267e-05
0.00010056
-1.76595e-05
0.000116082
-1.55217e-05
0.000129436
-1.33534e-05
0.000140767
-1.13311e-05
0.000150301
-9.53275e-06
0.000158052
-7.75166e-06
0.000163903
-5.85073e-06
0.000167731
-3.82812e-06
0.0001696
-1.86952e-06
0.000169715
-1.14701e-07
0.000168223
1.49301e-06
0.000165561
2.66211e-06
0.000161827
3.73466e-06
0.000157054
4.77294e-06
0.000151465
5.58942e-06
0.000145243
6.22184e-06
0.000138555
6.68885e-06
0.000131588
6.96641e-06
0.000124519
7.07002e-06
0.000117532
6.98701e-06
0.000110707
6.82513e-06
0.000104079
6.62786e-06
9.76174e-05
6.46144e-06
9.1297e-05
6.32014e-06
8.50492e-05
6.24826e-06
7.87419e-05
6.30789e-06
7.23406e-05
6.40151e-06
6.57438e-05
6.5965e-06
5.89294e-05
6.81429e-06
5.17004e-05
7.22869e-06
4.39887e-05
7.71082e-06
3.57989e-05
8.18902e-06
2.72132e-05
8.58569e-06
1.88423e-05
8.37194e-06
1.16395e-05
7.20372e-06
1.16379e-05
-9.36209e-06
1.83736e-05
-1.35059e-05
8.13182e-06
-1.9202e-05
1.11324e-05
-2.5423e-05
1.23099e-05
-3.16769e-05
1.243e-05
-3.78762e-05
1.23542e-05
-4.4024e-05
1.23876e-05
-5.02957e-05
1.27011e-05
-5.67542e-05
1.32256e-05
-6.34917e-05
1.39139e-05
-7.06047e-05
1.4739e-05
-7.8285e-05
1.57416e-05
-8.65624e-05
1.66171e-05
-9.52187e-05
1.75127e-05
-0.000104324
1.82521e-05
-0.000113725
1.88836e-05
-0.000123206
1.90545e-05
-0.000132594
1.88837e-05
-0.000141626
1.82723e-05
-0.000150023
1.71309e-05
-0.000157561
1.55429e-05
-0.000163922
1.34164e-05
-0.000168837
1.0844e-05
-0.000172068
7.8694e-06
-0.000173334
4.45835e-06
-0.00017256
8.45759e-07
-0.000169905
-2.91812e-06
-0.000165219
-6.92439e-06
-0.000158688
-1.08843e-05
-0.000150429
-1.47673e-05
-0.000140491
-1.85637e-05
-0.000128892
-2.21334e-05
-0.000115665
-2.54665e-05
-0.000101098
-2.85717e-05
-8.55782e-05
-3.14032e-05
-6.94542e-05
-3.39177e-05
-5.2957e-05
-3.61434e-05
-3.63639e-05
-3.77919e-05
-1.97687e-05
-3.89887e-05
-3.23516e-06
-3.96246e-05
1.31726e-05
-3.9549e-05
2.94175e-05
-3.87704e-05
4.54661e-05
-3.73546e-05
6.12315e-05
-3.53921e-05
7.6585e-05
-3.30128e-05
9.1339e-05
-3.02753e-05
0.000105196
-2.72106e-05
0.000117828
-2.39632e-05
0.000128889
-2.05934e-05
0.000138258
-1.71209e-05
0.000145968
-1.35612e-05
0.000152067
-9.92665e-06
0.000156531
-6.33259e-06
0.000159227
-2.81039e-06
0.00016029
4.30557e-07
0.000159574
3.37854e-06
0.000157255
6.05356e-06
0.000153682
8.34612e-06
0.000148962
1.031e-05
0.000143345
1.184e-05
0.000137147
1.28865e-05
0.000130533
1.35814e-05
0.000123815
1.37881e-05
0.000117021
1.3781e-05
0.000110325
1.35216e-05
0.000103761
1.31918e-05
9.74838e-05
1.27397e-05
9.13898e-05
1.24144e-05
8.53266e-05
1.23114e-05
7.93716e-05
1.22627e-05
7.33598e-05
1.2413e-05
6.70338e-05
1.29217e-05
6.03734e-05
1.34737e-05
5.31161e-05
1.44859e-05
4.53101e-05
1.55176e-05
3.69513e-05
1.65485e-05
2.81594e-05
1.73775e-05
1.95363e-05
1.69945e-05
1.21306e-05
1.46074e-05
2.37698e-05
-9.46467e-06
2.78379e-05
-1.32407e-05
1.19073e-05
-1.86788e-05
1.65699e-05
-2.48695e-05
1.85002e-05
-3.09958e-05
1.85558e-05
-3.7018e-05
1.83759e-05
-4.30221e-05
1.83912e-05
-4.91274e-05
1.8806e-05
-5.55513e-05
1.9649e-05
-6.2282e-05
2.06444e-05
-6.94864e-05
2.19431e-05
-7.73235e-05
2.35784e-05
-8.56668e-05
2.49602e-05
-9.45729e-05
2.64189e-05
-0.000103953
2.76325e-05
-0.000113673
2.86034e-05
-0.000123591
2.89722e-05
-0.00013347
2.87627e-05
-0.000143073
2.78761e-05
-0.000152169
2.62277e-05
-0.000160426
2.37999e-05
-0.000167596
2.05868e-05
-0.000173393
1.66414e-05
-0.000177576
1.20518e-05
-0.000180001
6.8837e-06
-0.000180444
1.28882e-06
-0.000178729
-4.63237e-06
-0.000174943
-1.07103e-05
-0.000169106
-1.6721e-05
-0.000161203
-2.26696e-05
-0.000151379
-2.83871e-05
-0.000139666
-3.38473e-05
-0.000126128
-3.90053e-05
-0.000111003
-4.36974e-05
-9.46259e-05
-4.77799e-05
-7.72088e-05
-5.1334e-05
-5.91594e-05
-5.41919e-05
-4.05949e-05
-5.6356e-05
-2.17898e-05
-5.77941e-05
-2.96904e-06
-5.84459e-05
1.57116e-05
-5.82303e-05
3.41579e-05
-5.7217e-05
5.22307e-05
-5.54278e-05
6.97396e-05
-5.29015e-05
8.64589e-05
-4.97326e-05
0.000102113
-4.59305e-05
0.000116511
-4.16095e-05
0.000129339
-3.67908e-05
0.000140367
-3.16214e-05
0.000149463
-2.62163e-05
0.000156642
-2.0739e-05
0.000161909
-1.51933e-05
0.000165281
-9.7042e-06
0.000166888
-4.41756e-06
0.000166668
6.49839e-07
0.000164786
5.26145e-06
0.00016145
9.38925e-06
0.000156854
1.29426e-05
0.000151267
1.58975e-05
0.000144922
1.81847e-05
0.000138038
1.9771e-05
0.000130973
2.06467e-05
0.00012381
2.09515e-05
0.000116724
2.0868e-05
0.000109837
2.04102e-05
0.000103263
1.97665e-05
9.69357e-05
1.9066e-05
9.08469e-05
1.85023e-05
8.50284e-05
1.81295e-05
7.91384e-05
1.81528e-05
7.31624e-05
1.83892e-05
6.70691e-05
1.90155e-05
6.04351e-05
2.01088e-05
5.33833e-05
2.15383e-05
4.57108e-05
2.3189e-05
3.73713e-05
2.48855e-05
2.84673e-05
2.62802e-05
1.99232e-05
2.55384e-05
1.25448e-05
2.19849e-05
3.63161e-05
-1.01273e-05
3.79649e-05
-1.36046e-05
1.53841e-05
-1.8726e-05
2.16908e-05
-2.4834e-05
2.46077e-05
-3.09041e-05
2.46253e-05
-3.67318e-05
2.42032e-05
-4.24562e-05
2.41151e-05
-4.82473e-05
2.45968e-05
-5.43059e-05
2.57072e-05
-6.0893e-05
2.72312e-05
-6.80689e-05
2.91187e-05
-7.56337e-05
3.11429e-05
-8.40432e-05
3.33695e-05
-9.31346e-05
3.551e-05
-0.000102961
3.74587e-05
-0.000113217
3.88598e-05
-0.000123784
3.954e-05
-0.000134439
3.94176e-05
-0.000144893
3.83306e-05
-0.000154831
3.61655e-05
-0.000163961
3.29307e-05
-0.00017194
2.85653e-05
-0.000178487
2.31888e-05
-0.00018335
1.69142e-05
-0.000186333
9.86694e-06
-0.000187237
2.19333e-06
-0.00018597
-5.89807e-06
-0.000182497
-1.41837e-05
-0.0001768
-2.24175e-05
-0.000168961
-3.05081e-05
-0.000159037
-3.83116e-05
-0.000147159
-4.57244e-05
-0.000133516
-5.26475e-05
-0.000118283
-5.89307e-05
-0.000101558
-6.45059e-05
-8.35527e-05
-6.93401e-05
-6.44416e-05
-7.33036e-05
-4.44333e-05
-7.63648e-05
-2.38292e-05
-7.83987e-05
-2.96558e-06
-7.931e-05
1.7838e-05
-7.90342e-05
3.82211e-05
-7.76003e-05
5.78851e-05
-7.50922e-05
7.6534e-05
-7.15507e-05
9.39238e-05
-6.71224e-05
0.000109953
-6.19593e-05
0.000124394
-5.6051e-05
0.00013713
-4.9527e-05
0.000148019
-4.251e-05
0.000156967
-3.51636e-05
0.000163889
-2.76612e-05
0.000168833
-2.01365e-05
0.000171771
-1.26423e-05
0.000172734
-5.38077e-06
0.000171889
1.49543e-06
0.00016935
7.80146e-06
0.000165325
1.34148e-05
0.000159983
1.82844e-05
0.000153659
2.22224e-05
0.000146565
2.52791e-05
0.000139044
2.72928e-05
0.000131311
2.83791e-05
0.00012361
2.86533e-05
0.000116123
2.83544e-05
0.000108996
2.75368e-05
0.000102372
2.63907e-05
9.6128e-05
2.53101e-05
9.02962e-05
2.43343e-05
8.46929e-05
2.37336e-05
7.92436e-05
2.36032e-05
7.37872e-05
2.38457e-05
6.79151e-05
2.48869e-05
6.17685e-05
2.62548e-05
5.48805e-05
2.84265e-05
4.71581e-05
3.09114e-05
3.85616e-05
3.34822e-05
2.94431e-05
3.53994e-05
2.06748e-05
3.43056e-05
1.33931e-05
2.92663e-05
4.97095e-05
-1.09758e-05
4.89404e-05
-1.38183e-05
1.82261e-05
-1.87814e-05
2.66534e-05
-2.4941e-05
3.07669e-05
-3.0986e-05
3.06699e-05
-3.65875e-05
2.98044e-05
-4.18812e-05
2.94084e-05
-4.71008e-05
2.98161e-05
-5.26661e-05
3.12722e-05
-5.8779e-05
3.33437e-05
-6.55504e-05
3.58898e-05
-7.3193e-05
3.87853e-05
-8.17281e-05
4.19047e-05
-9.12419e-05
4.50239e-05
-0.000101424
4.76411e-05
-0.000112275
4.97106e-05
-0.000123644
5.09091e-05
-0.000135248
5.10217e-05
-0.000146751
4.98337e-05
-0.000157782
4.71961e-05
-0.000167969
4.31177e-05
-0.000176969
3.75656e-05
-0.000184414
3.06338e-05
-0.000190055
2.25553e-05
-0.000193605
1.34169e-05
-0.000194892
3.48035e-06
-0.000193808
-6.9822e-06
-0.000190334
-1.76577e-05
-0.000184492
-2.82591e-05
-0.00017634
-3.86596e-05
-0.000165988
-4.86635e-05
-0.000153631
-5.80819e-05
-0.000139458
-6.68206e-05
-0.000123607
-7.4782e-05
-0.0001062
-8.19133e-05
-8.74461e-05
-8.80948e-05
-6.74451e-05
-9.33053e-05
-4.64629e-05
-9.73473e-05
-2.47687e-05
-0.000100093
-2.73517e-06
-0.000101343
1.92465e-05
-0.000101016
4.0731e-05
-9.90842e-05
6.14327e-05
-9.57936e-05
8.09616e-05
-9.10793e-05
9.91605e-05
-8.53208e-05
0.000115779
-7.85779e-05
0.000130685
-7.09571e-05
0.000143784
-6.26259e-05
0.000154949
-5.36753e-05
0.00016408
-4.42953e-05
0.000171083
-3.46638e-05
0.000175922
-2.49757e-05
0.000178664
-1.53836e-05
0.000179314
-6.03048e-06
0.0001779
2.90933e-06
0.000174662
1.10404e-05
0.000169797
1.82797e-05
0.000163592
2.449e-05
0.000156257
2.95576e-05
0.000148318
3.32181e-05
0.000139905
3.57057e-05
0.00013137
3.69138e-05
0.00012298
3.7043e-05
0.000115081
3.62544e-05
0.000107771
3.48472e-05
0.000101014
3.31485e-05
9.49584e-05
3.13661e-05
8.94637e-05
2.98293e-05
8.4336e-05
2.88613e-05
7.94928e-05
2.84464e-05
7.45507e-05
2.87873e-05
6.94536e-05
2.99835e-05
6.36737e-05
3.20348e-05
5.70513e-05
3.50494e-05
4.93377e-05
3.86251e-05
4.04644e-05
4.23559e-05
3.08775e-05
4.49862e-05
2.17917e-05
4.33899e-05
1.45035e-05
3.65555e-05
6.42121e-05
-1.19926e-05
6.09327e-05
-1.42667e-05
2.04997e-05
-1.88691e-05
3.12555e-05
-2.52737e-05
3.71712e-05
-3.13735e-05
3.67694e-05
-3.65806e-05
3.50112e-05
-4.11737e-05
3.40013e-05
-4.5718e-05
3.43602e-05
-5.05493e-05
3.61033e-05
-5.60549e-05
3.88491e-05
-6.24282e-05
4.22629e-05
-6.9898e-05
4.62549e-05
-7.86379e-05
5.06444e-05
-8.81517e-05
5.45377e-05
-9.89698e-05
5.84593e-05
-0.000110724
6.1465e-05
-0.000123199
6.33841e-05
-0.000136052
6.38743e-05
-0.000148944
6.27264e-05
-0.000161403
5.96545e-05
-0.000173041
5.47554e-05
-0.000183376
4.7901e-05
-0.000192045
3.93033e-05
-0.000198657
2.91675e-05
-0.000202995
1.77546e-05
-0.000204807
5.29243e-06
-0.000203941
-7.8486e-06
-0.000200397
-2.12022e-05
-0.000194262
-3.43952e-05
-0.000185642
-4.72796e-05
-0.000174702
-5.96037e-05
-0.000161651
-7.11327e-05
-0.000146665
-8.18061e-05
-0.000129951
-9.14951e-05
-0.000111604
-0.00010026
-9.17518e-05
-0.000107947
-7.06524e-05
-0.000114404
-4.85581e-05
-0.000119441
-2.56385e-05
-0.000123012
-2.37107e-06
-0.00012461
2.09201e-05
-0.000124306
4.36194e-05
-0.000121783
6.54585e-05
-0.000117633
8.60903e-05
-0.000111711
0.000105249
-0.00010448
0.000122738
-9.60664e-05
0.000138389
-8.66086e-05
0.000152079
-7.63156e-05
0.000163697
-6.52941e-05
0.000173138
-5.37363e-05
0.000180299
-4.18247e-05
0.000185136
-2.9813e-05
0.00018762
-1.78679e-05
0.000187759
-6.16949e-06
0.000185669
4.99944e-06
0.000181513
1.51959e-05
0.000175571
2.42218e-05
0.000168157
3.19049e-05
0.000159643
3.80716e-05
0.000150389
4.24719e-05
0.000140753
4.53423e-05
0.000131169
4.64978e-05
0.000121948
4.62649e-05
0.00011341
4.47924e-05
0.000105744
4.25133e-05
9.89759e-05
3.99167e-05
9.32099e-05
3.71321e-05
8.81592e-05
3.48795e-05
8.37341e-05
3.32862e-05
7.97249e-05
3.24556e-05
7.56647e-05
3.2847e-05
7.14097e-05
3.42378e-05
6.64196e-05
3.70246e-05
6.03072e-05
4.11618e-05
5.2604e-05
4.63282e-05
4.32332e-05
5.1727e-05
3.27206e-05
5.54988e-05
2.32672e-05
5.28424e-05
1.59198e-05
4.39042e-05
8.01313e-05
-1.30263e-05
7.39587e-05
-1.47398e-05
2.22127e-05
-1.92246e-05
3.57399e-05
-2.62804e-05
4.42267e-05
-3.23923e-05
4.2881e-05
-3.69744e-05
3.95931e-05
-4.05653e-05
3.7592e-05
-4.38543e-05
3.76488e-05
-4.76342e-05
3.98828e-05
-5.22242e-05
4.3439e-05
-5.81019e-05
4.81404e-05
-6.53797e-05
5.35324e-05
-7.39749e-05
5.92393e-05
-8.42116e-05
6.47742e-05
-9.56253e-05
6.98728e-05
-0.000108377
7.42164e-05
-0.00012223
7.72371e-05
-0.000136706
7.83505e-05
-0.000151401
7.74222e-05
-0.00016576
7.40135e-05
-0.000179249
6.82451e-05
-0.000191352
6.00049e-05
-0.000201549
4.95003e-05
-0.000209453
3.70714e-05
-0.000214742
2.30434e-05
-0.000217144
7.69473e-06
-0.000216516
-8.47732e-06
-0.000212921
-2.47974e-05
-0.000206403
-4.09127e-05
-0.000197144
-5.65384e-05
-0.000185418
-7.13296e-05
-0.000171466
-8.50847e-05
-0.00015554
-9.77324e-05
-0.000137775
-0.000109259
-0.000118354
-0.000119681
-9.73717e-05
-0.000128929
-7.49758e-05
-0.0001368
-5.13434e-05
-0.000143073
-2.68299e-05
-0.000147525
-1.86271e-06
-0.000149578
2.30836e-05
-0.000149253
4.73932e-05
-0.000146093
7.0685e-05
-0.000140925
9.26669e-05
-0.000133693
0.000113012
-0.000124825
0.000131533
-0.000114587
0.000148018
-0.000103093
0.000162401
-9.06987e-05
0.000174563
-7.74557e-05
0.000184361
-6.35338e-05
0.000191716
-4.91792e-05
0.000196529
-3.46259e-05
0.000198684
-2.00229e-05
0.000198255
-5.7405e-06
0.000195288
7.9671e-06
0.000189989
2.04945e-05
0.000182673
3.15387e-05
0.000173698
4.08801e-05
0.000163526
4.82439e-05
0.000152533
5.34661e-05
0.000141383
5.64924e-05
0.000130376
5.75056e-05
0.000120097
5.65441e-05
0.000110778
5.41119e-05
0.000102778
5.05128e-05
9.62027e-05
4.64923e-05
9.06806e-05
4.26544e-05
8.61917e-05
3.9368e-05
8.27125e-05
3.67656e-05
7.97728e-05
3.5396e-05
7.71342e-05
3.54861e-05
7.41321e-05
3.72398e-05
7.02971e-05
4.08597e-05
6.4969e-05
4.64901e-05
5.73771e-05
5.39205e-05
4.71632e-05
6.19412e-05
3.51817e-05
6.74801e-05
2.48813e-05
6.31426e-05
1.72861e-05
5.14993e-05
9.74177e-05
-1.35251e-05
8.74835e-05
-1.46365e-05
2.33236e-05
-1.91703e-05
4.02734e-05
-2.8326e-05
5.33821e-05
-3.49896e-05
4.95442e-05
-3.85437e-05
4.31468e-05
-4.02762e-05
3.93242e-05
-4.15611e-05
3.89335e-05
-4.37519e-05
4.20732e-05
-4.72852e-05
4.69721e-05
-5.24602e-05
5.33151e-05
-5.93299e-05
6.04019e-05
-6.79164e-05
6.78255e-05
-7.83639e-05
7.52213e-05
-9.08185e-05
8.23271e-05
-0.000104867
8.82647e-05
-0.000120401
9.27703e-05
-0.000136957
9.49069e-05
-0.000153933
9.43986e-05
-0.000170739
9.08201e-05
-0.000186607
8.41125e-05
-0.000200924
7.43226e-05
-0.000213096
6.16726e-05
-0.000222622
4.65975e-05
-0.000229105
2.95259e-05
-0.000232263
1.08539e-05
-0.000231871
-8.86915e-06
-0.000228063
-2.86055e-05
-0.000220947
-4.80288e-05
-0.000210846
-6.66402e-05
-0.000198121
-8.4055e-05
-0.000183084
-0.000100123
-0.000166051
-0.000114765
-0.000147106
-0.000128205
-0.00012642
-0.000140367
-0.000104074
-0.000151276
-8.01087e-05
-0.000160765
-5.47452e-05
-0.000168437
-2.8256e-05
-0.000174015
-1.25751e-06
-0.000176576
2.5822e-05
-0.000176333
5.21017e-05
-0.000172372
7.72125e-05
-0.000166035
0.000100731
-0.000157211
0.00012237
-0.000146463
0.000142047
-0.000134263
0.000159567
-0.000120612
0.00017477
-0.000105902
0.000187554
-9.02394e-05
0.000197841
-7.38201e-05
0.000205467
-5.68048e-05
0.00021029
-3.94478e-05
0.00021217
-2.1903e-05
0.00021104
-4.60986e-06
0.000207034
1.19741e-05
0.000200295
2.72345e-05
0.00019126
4.05738e-05
0.000180313
5.18284e-05
0.000168018
6.05397e-05
0.000154931
6.65536e-05
0.000141697
6.97278e-05
0.000128896
7.0307e-05
0.000117129
6.83114e-05
0.000106857
6.43846e-05
9.83236e-05
5.90465e-05
9.16158e-05
5.32008e-05
8.67381e-05
4.75329e-05
8.32908e-05
4.28154e-05
8.10016e-05
3.90553e-05
7.96066e-05
3.6792e-05
7.86121e-05
3.64811e-05
7.76237e-05
3.8228e-05
7.57872e-05
4.2696e-05
7.18264e-05
5.04513e-05
6.45131e-05
6.12342e-05
5.29492e-05
7.35047e-05
3.77842e-05
8.26441e-05
2.59867e-05
7.49403e-05
1.8324e-05
5.91605e-05
0.000115742
-1.3249e-05
0.000100732
-1.49486e-05
2.50227e-05
-1.99639e-05
4.52882e-05
-3.27316e-05
6.61494e-05
-4.00621e-05
5.68743e-05
-4.15134e-05
4.45977e-05
-4.01969e-05
3.80072e-05
-3.87378e-05
3.74742e-05
-3.85955e-05
4.19306e-05
-4.06247e-05
4.90011e-05
-4.48174e-05
5.75075e-05
-5.13225e-05
6.69068e-05
-6.00136e-05
7.65162e-05
-7.11364e-05
8.63438e-05
-8.42945e-05
9.5485e-05
-9.97889e-05
0.000103759
-0.000117397
0.000110378
-0.000136505
0.000114015
-0.00015639
0.000114283
-0.000176317
0.000110746
-0.000195234
0.000103029
-0.000212359
9.14479e-05
-0.00022699
7.63037e-05
-0.00023853
5.81376e-05
-0.000246454
3.74494e-05
-0.000250428
1.48281e-05
-0.000250255
-9.0419e-06
-0.000246058
-3.28027e-05
-0.00023811
-5.5977e-05
-0.000226863
-7.7887e-05
-0.000212782
-9.81364e-05
-0.000196343
-0.000116562
-0.000177979
-0.00013313
-0.000157753
-0.00014843
-0.000135795
-0.000162326
-0.000112008
-0.000175063
-8.63787e-05
-0.000186395
-5.89472e-05
-0.000195869
-3.00856e-05
-0.000202877
-5.38401e-07
-0.000206124
2.91553e-05
-0.000206026
5.78446e-05
-0.000201061
8.50485e-05
-0.000193239
0.000110405
-0.000182568
0.000133645
-0.000169704
0.000154592
-0.00015521
0.000173107
-0.000139127
0.000189227
-0.000122022
0.000202766
-0.000103779
0.000213647
-8.47009e-05
0.000221677
-6.48343e-05
0.000226636
-4.44072e-05
0.000228285
-2.35513e-05
0.000226445
-2.77003e-06
0.000221246
1.71737e-05
0.000212754
3.5727e-05
0.000201505
5.18224e-05
0.000188027
6.5307e-05
0.000173005
7.55617e-05
0.000157155
8.24033e-05
0.000141194
8.56891e-05
0.000126173
8.5329e-05
0.000112553
8.19314e-05
0.000101067
7.58716e-05
9.21453e-05
6.79677e-05
8.58721e-05
5.94745e-05
8.13926e-05
5.20126e-05
7.91499e-05
4.50574e-05
7.84784e-05
3.97266e-05
7.89127e-05
3.63581e-05
8.03848e-05
3.50089e-05
8.22234e-05
3.63885e-05
8.32932e-05
4.16254e-05
8.17277e-05
5.20168e-05
7.52852e-05
6.76768e-05
6.20123e-05
8.67773e-05
4.1064e-05
0.000103592
2.61961e-05
8.98088e-05
1.77702e-05
6.75861e-05
0.000133512
-1.29479e-05
0.00011368
-2.07068e-05
3.27811e-05
-2.70183e-05
5.15993e-05
-4.25388e-05
8.16696e-05
-4.92357e-05
6.35707e-05
-4.70016e-05
4.23632e-05
-4.05362e-05
3.15413e-05
-3.46497e-05
3.15873e-05
-3.14782e-05
3.87588e-05
-3.15364e-05
4.90592e-05
-3.48556e-05
6.08264e-05
-4.09827e-05
7.30336e-05
-4.97231e-05
8.52562e-05
-6.087e-05
9.74904e-05
-7.5217e-05
0.000109832
-9.25393e-05
0.000121081
-0.000112587
0.000130426
-0.000134995
0.000136422
-0.000158604
0.000137892
-0.000182361
0.000134503
-0.000205115
0.000125783
-0.000225788
0.000112121
-0.000243499
9.40148e-05
-0.000257536
7.21747e-05
-0.000267276
4.71893e-05
-0.000272218
1.97694e-05
-0.000272194
-9.0657e-06
-0.000267309
-3.76874e-05
-0.000258064
-6.52207e-05
-0.000245109
-9.08407e-05
-0.000229215
-0.00011403
-0.000211058
-0.000134719
-0.000191013
-0.000153174
-0.000169474
-0.00016997
-0.000146207
-0.000185592
-0.000120995
-0.000200275
-9.35184e-05
-0.000213871
-6.38347e-05
-0.000225552
-3.23406e-05
-0.00023437
4.22176e-07
-0.000238886
3.33571e-05
-0.00023896
6.47365e-05
-0.00023244
9.42753e-05
-0.000222778
0.000121626
-0.000209919
0.000146578
-0.000194657
0.000168955
-0.000177587
0.00018866
-0.000158833
0.000205732
-0.000139094
0.000220238
-0.000118286
0.000231899
-9.63625e-05
0.000240571
-7.35067e-05
0.00024592
-4.97571e-05
0.000247523
-2.51553e-05
0.000244878
-1.24942e-07
0.000238268
2.3783e-05
0.000227648
4.63462e-05
0.00021361
6.58594e-05
0.000196929
8.19868e-05
0.000178457
9.40334e-05
0.000159088
0.000101772
0.000139794
0.000104982
0.000121538
0.000103584
0.00010562
9.78492e-05
9.26909e-05
8.88009e-05
8.33417e-05
7.73161e-05
7.72212e-05
6.55954e-05
7.42021e-05
5.50317e-05
7.3461e-05
4.57975e-05
7.46816e-05
3.85055e-05
7.77542e-05
3.32857e-05
8.22302e-05
3.05327e-05
8.79243e-05
3.06939e-05
9.34909e-05
3.60588e-05
9.64671e-05
4.90412e-05
9.19288e-05
7.22147e-05
7.6127e-05
0.000102579
4.76209e-05
0.000132098
2.82419e-05
0.000109187
1.68204e-05
7.90086e-05
0.000150333
6.87252e-06
0.000106807
-1.42981e-05
5.39512e-05
-4.60669e-05
8.33676e-05
-7.47736e-05
0.000110376
-7.48689e-05
6.36656e-05
-5.64565e-05
2.39503e-05
-4.00528e-05
1.51375e-05
-2.75511e-05
1.90852e-05
-2.06098e-05
3.18172e-05
-1.90985e-05
4.75474e-05
-2.18855e-05
6.36131e-05
-2.76792e-05
7.88272e-05
-3.6149e-05
9.37259e-05
-4.75381e-05
0.00010888
-6.25554e-05
0.00012485
-8.1668e-05
0.000140193
-0.000105024
0.000153782
-0.000131414
0.000162812
-0.000159923
0.000166401
-0.000188718
0.000163298
-0.000216309
0.000153373
-0.000241433
0.000137246
-0.000263033
0.000115614
-0.000280224
8.93652e-05
-0.000292197
5.91619e-05
-0.000298204
2.57762e-05
-0.000298107
-9.1624e-06
-0.000292134
-4.36602e-05
-0.000280937
-7.64173e-05
-0.000265565
-0.000106213
-0.000247109
-0.000132485
-0.000226658
-0.000155171
-0.000204876
-0.000174956
-0.000181952
-0.000192894
-0.000157545
-0.000209998
-0.000131035
-0.000226785
-0.000102031
-0.000242875
-7.01285e-05
-0.000257454
-3.53971e-05
-0.000269101
2.20758e-06
-0.000276491
3.97864e-05
-0.000276539
7.38329e-05
-0.000266487
0.000105165
-0.00025411
0.000134394
-0.000239147
0.000161105
-0.000221369
0.000184872
-0.000201353
0.000205858
-0.000179819
0.000224066
-0.000157302
0.000239658
-0.000133877
0.000252505
-0.00010921
0.000262151
-8.31527e-05
0.000268267
-5.58741e-05
0.000270142
-2.70297e-05
0.000266772
3.24452e-06
0.000258604
3.19513e-05
0.000245314
5.96364e-05
0.000227694
8.34801e-05
0.000206906
0.000102775
0.000184022
0.000116917
0.000160147
0.000125647
0.000136484
0.000128645
0.00011439
0.000125678
9.52968e-05
0.000116942
8.03832e-05
0.000103714
7.04004e-05
8.72979e-05
6.52248e-05
7.07716e-05
6.39348e-05
5.6322e-05
6.54417e-05
4.42902e-05
6.89042e-05
3.50432e-05
7.44043e-05
2.77865e-05
8.24084e-05
2.25284e-05
9.33724e-05
1.97287e-05
0.000106116
2.33144e-05
0.000118105
3.70523e-05
0.000124288
6.60303e-05
0.000110447
0.00011642
6.67197e-05
0.000175825
2.92729e-05
0.000146633
7.04765e-06
0.000101234
0.00015738
9.61908e-05
1.0616e-05
0.000116424
3.37174e-05
-6.96767e-07
0.000200489
-0.000118977
0.000228656
-0.00012413
6.88186e-05
-7.63609e-05
-2.38196e-05
-3.73821e-05
-2.38416e-05
-1.67791e-05
-1.51833e-06
-7.07326e-06
2.21111e-05
-3.40014e-06
4.38737e-05
-4.98809e-06
6.52008e-05
-1.07904e-05
8.46295e-05
-1.89913e-05
0.000101927
-3.01995e-05
0.000120088
-4.56706e-05
0.000140321
-6.66646e-05
0.000161187
-9.35352e-05
0.000180652
-0.000125175
0.000194451
-0.000159735
0.000200961
-0.000195009
0.000198573
-0.000228752
0.000187116
-0.000259383
0.000167876
-0.000285783
0.000142014
-0.000306917
0.000110499
-0.000321622
7.38664e-05
-0.000328958
3.31125e-05
-0.000328606
-9.51435e-06
-0.000320795
-5.14726e-05
-0.000306612
-9.06005e-05
-0.000287641
-0.000125185
-0.000265637
-0.000154489
-0.000242177
-0.000178632
-0.000218206
-0.000198927
-0.000193995
-0.000217105
-0.000169106
-0.000234887
-0.000142678
-0.000253213
-0.00011331
-0.000272243
-7.96075e-05
-0.000291157
-4.01705e-05
-0.000308539
5.21694e-06
-0.000321879
5.00357e-05
-0.000321358
8.70828e-05
-0.000303533
0.000119462
-0.00028649
0.000149418
-0.000269103
0.000177119
-0.00024907
0.000202289
-0.000226523
0.000224458
-0.000201988
0.000243988
-0.000176831
0.000260852
-0.00015074
0.000275131
-0.000123488
0.000286443
-9.44642e-05
0.000293897
-6.3326e-05
0.0002964
-2.9532e-05
0.000292819
6.82699e-06
0.000282681
4.20903e-05
0.000266033
7.62849e-05
0.000243994
0.00010552
0.00021808
0.000128689
0.000189669
0.000145328
0.000159895
0.000155422
0.000130349
0.00015819
0.000103317
0.000152711
8.06098e-05
0.00013965
6.37939e-05
0.000120531
5.33032e-05
9.77884e-05
4.95157e-05
7.45597e-05
5.06113e-05
5.52265e-05
5.45886e-05
4.03125e-05
6.08034e-05
2.8828e-05
6.97506e-05
1.88391e-05
8.23699e-05
9.90845e-06
9.87994e-05
3.29887e-06
0.000120464
1.65034e-06
0.000150064
7.45381e-06
0.000186093
3.0002e-05
0.000177802
0.00012471
7.7246e-05
0.000276381
-3.89804e-05
0.000262859
-6.55827e-05
0.000127836
9.17969e-05
0.000212513
-0.000201897
0.000513063
-0.000266833
0.000403321
0.00031023
3.78441e-05
0.000594132
-0.000138183
0.000244845
-0.000100805
-6.11973e-05
-3.38787e-05
-9.07684e-05
5.29033e-06
-4.06877e-05
1.99145e-05
7.48659e-06
2.15382e-05
4.22496e-05
1.54382e-05
7.13005e-05
6.10152e-06
9.39658e-05
-4.33945e-06
0.000112367
-1.56691e-05
0.000131418
-3.06302e-05
0.000155281
-5.26596e-05
0.000183215
-8.2181e-05
0.000210174
-0.000118935
0.000231205
-0.000160852
0.000242878
-0.000204256
0.000241977
-0.000245385
0.000228244
-0.000282251
0.000204743
-0.00031406
0.000173824
-0.000340058
0.000136496
-0.000358553
9.23616e-05
-0.000367848
4.2407e-05
-0.000367273
-1.00904e-05
-0.000356859
-6.18875e-05
-0.000338018
-0.000109442
-0.000313148
-0.000150055
-0.000285101
-0.000182535
-0.000256601
-0.000207132
-0.000229737
-0.000225791
-0.000205201
-0.000241641
-0.000182307
-0.000257781
-0.000158618
-0.000276902
-0.000130125
-0.000300736
-9.37176e-05
-0.000327564
-4.7326e-05
-0.000354931
8.26488e-06
-0.00037747
6.26961e-05
-0.000375789
0.000105676
-0.000346513
0.000140075
-0.000320889
0.00017
-0.000299028
0.000196844
-0.000275913
0.000220972
-0.00025065
0.000243531
-0.000224547
0.000265108
-0.000198408
0.000285446
-0.000171078
0.000303307
-0.000141349
0.000317548
-0.000108705
0.000327295
-7.30727e-05
0.000330968
-3.32056e-05
0.000326584
1.12113e-05
0.000313747
5.49264e-05
0.000292884
9.71475e-05
0.000265576
0.000132829
0.00023395
0.000160316
0.000199361
0.000179916
0.000162705
0.000192079
0.000125993
0.000194902
9.27292e-05
0.000185975
6.61943e-05
0.000166185
4.80335e-05
0.000138691
3.87705e-05
0.000107052
3.71471e-05
7.61839e-05
3.99968e-05
5.23759e-05
4.43196e-05
3.59884e-05
4.99512e-05
2.31969e-05
5.86532e-05
1.01386e-05
7.32868e-05
-4.72438e-06
9.92515e-05
-2.26658e-05
0.000142441
-4.15394e-05
0.000210158
-6.02627e-05
0.000274968
-3.48071e-05
0.000163258
0.000236421
-0.000169386
0.000609025
-0.000375836
0.000469311
-0.000199967
-4.80337e-05
-0.00010817
0.000372982
-0.000574879
0.000870048
-0.000763899
0.000999128
0.00018115
0.000583752
0.00100951
0.000146567
0.00068203
-4.23716e-06
8.96068e-05
6.60774e-06
-0.000101614
3.04474e-05
-6.45276e-05
4.30879e-05
-5.15426e-06
3.91443e-05
4.61929e-05
2.55535e-05
8.48913e-05
1.0552e-05
0.000108967
1.83707e-06
0.000121082
-2.85783e-06
0.000136113
-1.44791e-05
0.000166903
-3.97301e-05
0.000208466
-7.47945e-05
0.000245238
-0.000118959
0.00027537
-0.000170289
0.000294209
-0.000223417
0.000295104
-0.000273054
0.000277881
-0.000316322
0.000248011
-0.000353583
0.000211084
-0.000384605
0.000167518
-0.000407683
0.000115439
-0.000419501
5.42249e-05
-0.000418194
-1.13972e-05
-0.000403189
-7.68923e-05
-0.000376778
-0.000135852
-0.000342978
-0.000183856
-0.000306423
-0.000219089
-0.000271799
-0.000241756
-0.000242244
-0.000255346
-0.00021867
-0.000265215
-0.000198886
-0.000277565
-0.000176876
-0.000298912
-0.000146114
-0.000331498
-0.000104038
-0.00036964
-5.21593e-05
-0.000406809
7.76394e-06
-0.000437394
6.79196e-05
-0.000435945
0.000118496
-0.00039709
0.000159441
-0.000361834
0.000193453
-0.00033304
0.000221787
-0.000304249
0.000245152
-0.000274016
0.00026634
-0.000245736
0.000288118
-0.000220187
0.000310621
-0.000193581
0.000331647
-0.000162375
0.000349967
-0.000127026
0.000364843
-8.79497e-05
0.000373566
-4.1929e-05
0.000371622
1.31543e-05
0.000356692
6.98559e-05
0.000330851
0.000122989
0.000296666
0.000167013
0.000257765
0.000199217
0.000216192
0.000221489
0.000172464
0.000235806
0.000126983
0.000240384
8.5907e-05
0.000227051
5.3124e-05
0.000198969
2.93486e-05
0.000162464
1.767e-05
0.000118729
2.29341e-05
7.09203e-05
3.73747e-05
3.79363e-05
4.74251e-05
2.59386e-05
5.08962e-05
1.97263e-05
5.55992e-05
5.43598e-06
7.05502e-05
-1.96755e-05
9.98749e-05
-5.19908e-05
0.000149657
-9.13222e-05
0.000203137
-0.000113743
0.000107327
6.10028e-05
-0.000311821
0.000655567
-0.000828647
0.00112585
-0.000811976
0.000452639
-0.000334539
-0.000525471
-0.000442708
0.000452312
-0.00102719
0.000794425
-0.00110601
0.000961771
1.38051e-05
0.000814289
0.00115699
0.00041352
0.0010828
0.00015937
0.000343757
8.41674e-05
-2.6411e-05
8.54467e-05
-6.58068e-05
8.01689e-05
1.23338e-07
6.04173e-05
6.59449e-05
3.85529e-05
0.000106756
3.14313e-05
0.000116089
4.62175e-05
0.000106295
6.68528e-05
0.000115478
6.41735e-05
0.000169582
2.71415e-05
0.000245498
-3.17569e-05
0.000304136
-9.75407e-05
0.000341153
-0.000169209
0.000365877
-0.000237903
0.000363797
-0.000298261
0.000338239
-0.00035097
0.00030072
-0.000398233
0.000258347
-0.000438187
0.000207472
-0.000466379
0.000143632
-0.000477304
6.51525e-05
-0.00047001
-1.86904e-05
-0.000445048
-0.000101854
-0.00040745
-0.00017345
-0.000363706
-0.0002276
-0.000320197
-0.000262598
-0.000281685
-0.000280268
-0.000250124
-0.000286907
-0.000224047
-0.000291293
-0.000199656
-0.000301956
-0.000169735
-0.000328832
-0.000129414
-0.000371819
-8.37961e-05
-0.000415258
-3.94714e-05
-0.000451134
3.61966e-06
-0.000480485
5.02524e-05
-0.000482578
9.79829e-05
-0.000444821
0.000144264
-0.000408115
0.000189207
-0.000377983
0.000230328
-0.000345369
0.000263989
-0.000307677
0.000289219
-0.000270965
0.000309987
-0.000240955
0.000328863
-0.000212456
0.000345113
-0.000178625
0.000361617
-0.00014353
0.000381945
-0.000108279
0.000401628
-6.16111e-05
0.000411398
3.38414e-06
0.000401757
7.94972e-05
0.000369573
0.000155172
0.000320717
0.00021587
0.000264287
0.000255648
0.000208801
0.000276976
0.000154219
0.000290388
9.70588e-05
0.000297544
4.1289e-05
0.000282819
-1.36006e-05
0.000253859
-6.3703e-05
0.000212568
-8.57385e-05
0.000140767
-6.24536e-05
4.76363e-05
-1.09878e-05