/*--------------------------------*- C++ -*----------------------------------*\
| =========                 |                                                 |
| \\      /  F ield         | OpenFOAM: The Open Source CFD Toolbox           |
|  \\    /   O peration     | Version:  2412                                  |
|   \\  /    A nd           | Website:  www.openfoam.com                      |
|    \\/     M anipulation  |                                                 |
\*---------------------------------------------------------------------------*/
FoamFile
{
    version     2.0;
    format      ascii;
    arch        "LSB;label=32;scalar=64";
    class       volScalarField;
    location    "6.8";
    object      p_rgh;
}
// * * * * * * * * * * * * * * * * * * * * * * * * * * * * * * * * * * * * * //

dimensions      [1 -1 -2 0 0 0 0];

internalField   nonuniform List<scalar> 
6400
(
7255.04
7255.56
7256.44
7257.74
7259.42
7261.45
7263.78
7266.4
7269.25
7272.3
7275.49
7278.79
7282.14
7285.52
7288.88
7292.19
7295.42
7298.56
7301.6
7304.52
7307.32
7310
7312.58
7315.05
7317.43
7319.72
7321.93
7324.06
7326.11
7328.08
7329.95
7331.71
7333.34
7334.82
7336.12
7337.22
7338.08
7338.7
7339.05
7339.12
7338.91
7338.42
7337.66
7336.65
7335.41
7333.97
7332.35
7330.58
7328.71
7326.74
7324.72
7322.64
7320.53
7318.38
7316.21
7314
7311.74
7309.43
7307.04
7304.56
7301.98
7299.3
7296.49
7293.57
7290.55
7287.43
7284.24
7281.01
7277.77
7274.56
7271.43
7268.43
7265.59
7262.98
7260.62
7258.58
7256.88
7255.56
7254.66
7254.1
7254.58
7255.09
7256.01
7257.34
7259.05
7261.11
7263.49
7266.15
7269.05
7272.14
7275.38
7278.72
7282.12
7285.53
7288.91
7292.25
7295.5
7298.65
7301.69
7304.61
7307.41
7310.09
7312.66
7315.12
7317.49
7319.78
7321.99
7324.13
7326.19
7328.18
7330.07
7331.85
7333.51
7335.02
7336.35
7337.47
7338.36
7339
7339.36
7339.44
7339.22
7338.72
7337.95
7336.91
7335.64
7334.16
7332.51
7330.71
7328.81
7326.81
7324.76
7322.67
7320.55
7318.4
7316.23
7314.03
7311.78
7309.48
7307.1
7304.63
7302.07
7299.38
7296.58
7293.66
7290.63
7287.49
7284.27
7281.01
7277.73
7274.48
7271.3
7268.24
7265.36
7262.69
7260.3
7258.21
7256.47
7255.11
7254.18
7253.63
7253.68
7254.2
7255.15
7256.53
7258.31
7260.44
7262.91
7265.65
7268.65
7271.83
7275.17
7278.6
7282.07
7285.56
7289
7292.38
7295.67
7298.85
7301.9
7304.81
7307.6
7310.27
7312.82
7315.27
7317.63
7319.91
7322.13
7324.27
7326.35
7328.36
7330.29
7332.13
7333.84
7335.4
7336.78
7337.95
7338.88
7339.55
7339.93
7340.02
7339.8
7339.28
7338.47
7337.39
7336.06
7334.53
7332.81
7330.96
7328.99
7326.95
7324.86
7322.73
7320.59
7318.44
7316.27
7314.08
7311.86
7309.58
7307.23
7304.8
7302.25
7299.58
7296.79
7293.86
7290.8
7287.62
7284.35
7281.02
7277.66
7274.32
7271.04
7267.88
7264.9
7262.14
7259.65
7257.47
7255.66
7254.24
7253.26
7252.71
7252.29
7252.84
7253.84
7255.31
7257.19
7259.44
7262.03
7264.91
7268.05
7271.38
7274.86
7278.42
7282.03
7285.62
7289.16
7292.61
7295.95
7299.16
7302.23
7305.15
7307.92
7310.57
7313.09
7315.51
7317.85
7320.11
7322.32
7324.47
7326.58
7328.63
7330.61
7332.5
7334.29
7335.93
7337.39
7338.64
7339.63
7340.35
7340.77
7340.87
7340.64
7340.09
7339.23
7338.08
7336.68
7335.05
7333.25
7331.3
7329.25
7327.13
7324.97
7322.81
7320.65
7318.49
7316.33
7314.17
7311.98
7309.75
7307.45
7305.06
7302.55
7299.91
7297.12
7294.17
7291.08
7287.85
7284.5
7281.06
7277.58
7274.09
7270.67
7267.35
7264.21
7261.3
7258.67
7256.36
7254.44
7252.93
7251.88
7251.28
7250.38
7250.98
7252.07
7253.65
7255.66
7258.07
7260.84
7263.91
7267.24
7270.78
7274.46
7278.22
7281.99
7285.74
7289.41
7292.96
7296.37
7299.62
7302.7
7305.62
7308.37
7310.97
7313.46
7315.83
7318.13
7320.36
7322.55
7324.71
7326.84
7328.94
7331
7332.98
7334.87
7336.62
7338.19
7339.54
7340.63
7341.42
7341.88
7342
7341.76
7341.17
7340.24
7339
7337.49
7335.73
7333.79
7331.71
7329.54
7327.32
7325.09
7322.87
7320.67
7318.52
7316.38
7314.27
7312.14
7309.98
7307.75
7305.43
7302.98
7300.37
7297.6
7294.64
7291.51
7288.19
7284.73
7281.15
7277.49
7273.81
7270.18
7266.64
7263.28
7260.16
7257.34
7254.85
7252.76
7251.12
7250
7249.3
7247.91
7248.59
7249.78
7251.51
7253.71
7256.33
7259.32
7262.63
7266.23
7270.04
7273.98
7277.99
7282
7285.94
7289.77
7293.44
7296.94
7300.24
7303.34
7306.24
7308.95
7311.5
7313.92
7316.23
7318.46
7320.65
7322.81
7324.97
7327.14
7329.3
7331.44
7333.54
7335.56
7337.46
7339.18
7340.67
7341.88
7342.77
7343.3
7343.44
7343.19
7342.54
7341.52
7340.15
7338.49
7336.57
7334.45
7332.2
7329.88
7327.52
7325.18
7322.89
7320.67
7318.52
7316.42
7314.37
7312.34
7310.27
7308.15
7305.92
7303.56
7301.01
7298.26
7295.29
7292.1
7288.68
7285.07
7281.3
7277.42
7273.49
7269.58
7265.76
7262.11
7258.71
7255.63
7252.91
7250.61
7248.79
7247.5
7246.81
7244.87
7245.57
7246.9
7248.84
7251.28
7254.16
7257.43
7261.06
7265.01
7269.16
7273.45
7277.77
7282.06
7286.24
7290.27
7294.1
7297.71
7301.06
7304.17
7307.04
7309.69
7312.16
7314.48
7316.69
7318.83
7320.95
7323.07
7325.22
7327.42
7329.65
7331.91
7334.16
7336.35
7338.44
7340.35
7342.02
7343.4
7344.42
7345.03
7345.22
7344.95
7344.23
7343.09
7341.56
7339.7
7337.56
7335.22
7332.74
7330.22
7327.69
7325.23
7322.85
7320.59
7318.45
7316.42
7314.46
7312.54
7310.62
7308.64
7306.55
7304.3
7301.84
7299.13
7296.16
7292.9
7289.37
7285.58
7281.57
7277.41
7273.15
7268.88
7264.69
7260.67
7256.92
7253.51
7250.48
7247.9
7245.88
7244.37
7243.66
7241.12
7241.89
7243.39
7245.58
7248.33
7251.53
7255.15
7259.16
7263.56
7268.16
7272.86
7277.58
7282.22
7286.71
7290.98
7295
7298.72
7302.13
7305.23
7308.05
7310.61
7312.96
7315.14
7317.21
7319.22
7321.23
7323.29
7325.42
7327.64
7329.96
7332.36
7334.79
7337.21
7339.54
7341.71
7343.63
7345.22
7346.41
7347.14
7347.37
7347.09
7346.28
7344.98
7343.24
7341.12
7338.69
7336.06
7333.3
7330.52
7327.78
7325.15
7322.67
7320.38
7318.26
7316.31
7314.49
7312.74
7311.02
7309.24
7307.34
7305.25
7302.91
7300.27
7297.3
7293.98
7290.31
7286.3
7282.01
7277.49
7272.82
7268.1
7263.44
7258.95
7254.74
7250.92
7247.51
7244.58
7242.24
7240.61
7239.77
7236.48
7237.54
7239.22
7241.65
7244.7
7248.27
7252.33
7256.81
7261.87
7267.03
7272.26
7277.46
7282.54
7287.39
7291.96
7296.18
7300.03
7303.49
7306.58
7309.31
7311.74
7313.91
7315.9
7317.77
7319.6
7321.46
7323.41
7325.49
7327.75
7330.16
7332.73
7335.4
7338.1
7340.75
7343.25
7345.49
7347.36
7348.78
7349.66
7349.96
7349.65
7348.73
7347.23
7345.21
7342.76
7339.96
7336.95
7333.83
7330.71
7327.7
7324.87
7322.28
7319.95
7317.89
7316.06
7314.43
7312.92
7311.45
7309.94
7308.3
7306.44
7304.27
7301.74
7298.79
7295.41
7291.57
7287.31
7282.67
7277.71
7272.53
7267.25
7261.99
7256.86
7252.02
7247.68
7243.83
7240.55
7237.94
7236.12
7234.96
7230.84
7232.3
7234.11
7236.38
7239.48
7243.66
7248.68
7254.32
7259.95
7265.78
7271.65
7277.46
7283.06
7288.35
7293.26
7297.72
7301.71
7305.22
7308.26
7310.86
7313.1
7315.03
7316.75
7318.35
7319.93
7321.57
7323.37
7325.38
7327.65
7330.18
7332.95
7335.91
7338.98
7342.03
7344.95
7347.6
7349.84
7351.56
7352.64
7353.03
7352.7
7351.63
7349.88
7347.5
7344.62
7341.35
7337.85
7334.27
7330.74
7327.39
7324.32
7321.59
7319.23
7317.25
7315.59
7314.22
7313.02
7311.91
7310.77
7309.47
7307.91
7305.99
7303.61
7300.72
7297.27
7293.26
7288.69
7283.63
7278.13
7272.32
7266.32
7260.26
7254.2
7248.34
7242.99
7238.43
7235.06
7232.66
7230.78
7229.37
7224.78
7226.04
7227.13
7228.17
7230.96
7236.42
7243.12
7250.44
7257.52
7264.35
7271.07
7277.62
7283.86
7289.67
7294.98
7299.72
7303.86
7307.39
7310.34
7312.76
7314.72
7316.33
7317.69
7318.92
7320.14
7321.49
7323.06
7324.95
7327.21
7329.87
7332.9
7336.23
7339.75
7343.33
7346.8
7349.99
7352.72
7354.82
7356.18
7356.69
7356.32
7355.07
7352.98
7350.15
7346.71
7342.84
7338.72
7334.54
7330.48
7326.71
7323.33
7320.43
7318.06
7316.19
7314.8
7313.77
7313.01
7312.37
7311.7
7310.87
7309.72
7308.13
7305.97
7303.18
7299.69
7295.48
7290.56
7284.99
7278.84
7272.25
7265.32
7258.14
7250.58
7242.79
7235.81
7229.59
7226.37
7225.37
7224.28
7223.03
7217.78
7218.38
7217.72
7217.27
7219.97
7226.07
7236.07
7245.77
7254.65
7262.77
7270.57
7278.03
7285.05
7291.48
7297.25
7302.29
7306.58
7310.11
7312.92
7315.07
7316.67
7317.83
7318.69
7319.42
7320.16
7321.09
7322.34
7324.05
7326.28
7329.08
7332.42
7336.21
7340.32
7344.58
7348.77
7352.66
7356.02
7358.65
7360.36
7361.05
7360.65
7359.16
7356.63
7353.2
7349.05
7344.38
7339.45
7334.51
7329.79
7325.48
7321.74
7318.66
7316.28
7314.6
7313.54
7312.99
7312.79
7312.77
7312.75
7312.53
7311.93
7310.78
7308.94
7306.3
7302.79
7298.37
7293.04
7286.88
7279.95
7272.39
7264.29
7255.67
7246.14
7235.72
7224.52
7216.35
7213.35
7215.32
7216.32
7215.74
7209.64
7209.56
7207.76
7207.88
7211.1
7218.16
7229.76
7241.2
7251.74
7261.19
7270.26
7278.82
7286.75
7293.92
7300.21
7305.58
7310.03
7313.51
7316.09
7317.87
7318.97
7319.53
7319.74
7319.78
7319.87
7320.23
7321.04
7322.47
7324.63
7327.58
7331.3
7335.67
7340.53
7345.66
7350.79
7355.61
7359.82
7363.14
7365.35
7366.27
7365.83
7364.03
7360.94
7356.73
7351.64
7345.94
7339.98
7334.06
7328.49
7323.51
7319.31
7316.01
7313.66
7312.23
7311.63
7311.71
7312.27
7313.08
7313.89
7314.48
7314.59
7314.04
7312.64
7310.24
7306.76
7302.12
7296.32
7289.46
7281.61
7272.88
7263.41
7253.22
7241.92
7229.74
7216.33
7207.44
7203.72
7203.65
7207.2
7207.26
7200.23
7200.22
7199.7
7200.47
7204.8
7213.3
7224.82
7237.21
7249.23
7259.7
7270.29
7280.14
7289.16
7297.17
7304.04
7309.72
7314.36
7317.71
7319.98
7321.26
7321.69
7321.47
7320.8
7319.93
7319.14
7318.7
7318.88
7319.91
7321.94
7325
7329.21
7334.31
7340.13
7346.39
7352.76
7358.82
7364.17
7368.44
7371.31
7372.56
7372.09
7369.9
7366.07
7360.84
7354.5
7347.47
7340.15
7332.97
7326.31
7320.49
7315.72
7312.17
7309.88
7308.81
7308.84
7309.77
7311.32
7313.21
7315.12
7316.75
7317.81
7318.05
7317.23
7315.17
7311.78
7306.93
7300.6
7292.95
7284.01
7273.94
7262.93
7251.07
7238.29
7225.03
7212.25
7200.82
7195.8
7196.29
7197.46
7197.43
7189.44
7189.92
7191.06
7194.14
7199.93
7208.78
7220.55
7233.53
7246.55
7259.01
7271.04
7282.3
7292.51
7301.47
7309.02
7315.09
7319.7
7322.85
7324.75
7325.36
7324.93
7323.68
7321.86
7319.77
7317.77
7316.23
7315.53
7315.97
7317.8
7321.14
7325.78
7331.75
7338.78
7346.51
7354.51
7362.23
7369.12
7374.65
7378.42
7380.14
7379.65
7376.95
7372.17
7365.59
7357.63
7348.81
7339.72
7330.91
7322.86
7315.97
7310.52
7306.67
7304.5
7303.94
7304.83
7306.89
7309.78
7313.1
7316.45
7319.43
7321.71
7322.97
7322.92
7321.39
7318.18
7313.13
7306.2
7297.66
7287.42
7275.77
7262.97
7249.33
7235.14
7221
7208.29
7197.99
7190.55
7188.14
7186.69
7186.09
7177.05
7178.25
7180.69
7185.25
7192.62
7203.02
7215.54
7229.56
7244.11
7258.55
7272.47
7285.43
7297.07
7307.12
7315.4
7321.83
7326.46
7329.33
7330.57
7330.36
7328.81
7326.23
7322.91
7319.2
7315.56
7312.49
7310.5
7310.08
7311.53
7314.97
7320.31
7327.4
7335.96
7345.6
7355.76
7365.73
7374.72
7382
7386.98
7389.3
7388.81
7385.48
7379.45
7371.07
7360.9
7349.7
7338.28
7327.36
7317.55
7309.33
7303.03
7298.87
7296.92
7297.09
7299.16
7302.78
7307.46
7312.67
7317.88
7322.61
7326.46
7329.05
7330.07
7329.24
7326.32
7321.16
7313.69
7303.98
7292.17
7278.58
7263.6
7247.75
7231.63
7216.02
7202.12
7190.64
7182.34
7177.09
7174.28
7172.88
7162.35
7164.27
7168
7174
7182.8
7194.53
7208.68
7224.63
7241.51
7258.48
7274.78
7289.8
7303.11
7314.39
7323.41
7330.17
7334.72
7337.16
7337.62
7336.31
7333.43
7329.26
7324.08
7318.31
7312.48
7307.27
7303.45
7301.73
7302.56
7306.06
7312.13
7320.49
7330.97
7343.09
7356.12
7369.07
7380.82
7390.35
7396.93
7400.08
7399.61
7395.47
7387.82
7377.1
7364.07
7349.74
7335.25
7321.61
7309.61
7299.85
7292.61
7288.19
7286.64
7287.85
7291.55
7297.27
7304.32
7311.97
7319.52
7326.38
7332.13
7336.38
7338.77
7338.92
7336.5
7331.29
7323.25
7312.26
7298.61
7282.64
7264.9
7246.1
7227.12
7208.96
7193.22
7180.28
7170.38
7163.54
7159.19
7156.82
7144.51
7147.26
7152.49
7160.14
7170.57
7184.03
7199.93
7218.32
7238.4
7258.65
7277.85
7295.28
7310.54
7323.28
7333.08
7339.99
7344.22
7345.97
7345.41
7342.77
7338.26
7332.08
7324.51
7316.02
7307.33
7299.37
7293.26
7289.98
7290.07
7293.69
7300.87
7310.64
7323.42
7338.49
7355.09
7372.01
7387.54
7400.18
7408.88
7413.1
7412.7
7407.55
7397.76
7383.86
7366.95
7348.52
7330.23
7313.39
7298.77
7287.19
7278.63
7273.92
7272.85
7275.21
7280.8
7289.09
7299.17
7309.98
7320.57
7330.2
7338.33
7344.62
7348.73
7350.24
7348.66
7343.57
7334.75
7322.47
7306.66
7287.8
7266.63
7244.04
7221.21
7199.2
7182.49
7167.68
7155.72
7146.86
7140.55
7136.72
7118.33
7122.48
7131.7
7142.15
7154.59
7170.94
7191.59
7212.16
7236.65
7261.12
7283.76
7303.69
7320.66
7334.44
7344.28
7351.11
7354.85
7355.53
7353.38
7348.82
7342.11
7333.35
7322.68
7310.46
7297.63
7285.69
7276.6
7271.95
7271.94
7275.89
7283.52
7295.22
7311.31
7331.02
7352.91
7375.29
7396.11
7413.13
7424.68
7430.22
7429.92
7423.59
7411.06
7392.8
7370.55
7346.5
7322.79
7301.14
7282.81
7268.77
7259.26
7254.35
7253.31
7256.21
7263.67
7275.36
7289.76
7305.04
7319.71
7332.9
7344.16
7353.27
7359.91
7363.41
7363
7358.21
7348.75
7336.33
7318.38
7296.24
7270.95
7243.71
7216.31
7193.18
7171.26
7151.93
7132.77
7113.69
7094.66
7089.77
4083.48
4174.74
4319.33
4460.04
4594
4785.31
5127.95
5577.34
6059.29
6465.45
6770.75
6993.42
7165.96
7302.75
7360.09
7363.43
7322.55
7253.23
7212.76
7188.68
7150.48
7088.89
6994.62
6858.09
6680.6
6479.43
6307.46
6223.3
6233.64
6297.62
6412.04
6521.06
6634.77
6750.07
6920.83
7108.85
7273.47
7393.24
7440.7
7447.28
7447.3
7440.12
7415.5
7300.6
7129.74
6928.82
6737.63
6592.66
6462.14
6305.02
6159.4
6085.1
6057.94
6087.26
6206.05
6399.15
6618.88
6818.54
6975.41
7088.02
7165.22
7216.79
7264.06
7317.81
7363.07
7376.84
7355.61
7252.87
7099.08
6886.52
6595.58
6212.09
5742.73
5253.92
4799.23
4427.07
4180.36
3987.08
3768.39
3631.25
2.11118
2.1976
42.7952
159.148
302.556
429.572
545.587
695.292
909.409
1173.32
1465.45
1746.74
2001.08
2226.67
2451.97
2601.67
2720.76
2789.75
2751.95
2666.5
2547.11
2370.22
2134.14
1838.78
1521.28
1228.9
1022.37
930.12
905.892
899.915
908.142
1000.35
1266.12
1698.62
2205.68
2757.76
3321.64
3784.76
4081.01
4201.07
4207.61
4092.23
3758.57
3260.93
2683.35
2130.75
1626.88
1167.31
832.397
688.445
681.907
712.352
751.842
809.976
934.213
1148.15
1439.77
1767.88
2086.02
2370.22
2600.14
2795.21
2984.93
3110.59
3114.05
3035.33
2832.99
2542.58
2167.3
1738.67
1309.78
923.121
597.052
377.839
250.187
167.28
88.7731
16.4739
5.76619
3.38868
1.86958
1.82258
1.72496
1.72003
1.69116
1.60977
2.2237
1.64605
1.0056
1.1166
1.47036
1.82248
2.01873
1.91956
1.567
1.16675
0.769648
0.393123
0.11861
-0.0222744
-0.0481222
-0.00261337
0.077801
0.187843
0.316084
0.441119
0.543945
0.616812
0.673337
0.713871
0.72985
0.751523
2.0018
6.66749
13.9066
25.0884
55.7525
110.177
156.093
169.71
165.701
142.877
89.7178
39.372
15.4093
9.08393
4.6738
1.96658
0.578217
0.541011
0.516177
0.515543
0.496729
0.417712
0.317468
0.214877
0.0884528
-0.0656739
-0.216915
-0.329939
-0.377933
-0.351409
-0.236245
-0.037026
0.0964097
1.54837
0.842406
1.2135
1.3717
1.33891
1.37497
1.74748
2.15513
2.53791
2.81492
3.01925
3.14742
3.12322
3.03218
3.09619
1.95532
1.62592
1.61637
1.63207
1.45423
1.20149
1.00038
0.876973
0.861288
1.00609
1.30799
1.5852
1.73912
1.70023
1.46768
1.13084
0.784533
0.483216
0.275525
0.162234
0.127326
0.149016
0.203206
0.283827
0.371918
0.447169
0.519261
0.594878
0.663068
0.738781
1.34365
1.50051
1.55283
1.66578
2.65927
4.21899
5.48514
6.59479
7.14502
7.23056
7.09295
6.06051
4.48899
2.86433
1.68627
1.09135
0.908831
1.2759
3.04456
2.50845
0.647899
0.580332
0.534205
0.387406
0.254893
0.187501
0.12855
0.0334682
-0.0925245
-0.218144
-0.270668
-0.241638
-0.127422
0.0388341
0.185154
0.304126
0.436509
0.571361
0.699139
0.852558
1.08329
1.4871
2.12762
2.86451
5.15803
5.6257
5.22505
3.09483
2.9558
3.02435
2.04603
1.53517
1.51115
1.59537
3.95244
4.29839
4.04777
3.8257
1.56658
1.43288
3.15309
3.93128
3.3683
2.83935
1.4494
1.04066
0.736064
0.495725
0.32401
0.207911
0.144572
0.128469
0.147373
0.213057
0.274871
0.342835
0.424865
0.550372
0.642401
0.713381
0.81212
1.61927
2.12508
1.40746
1.10887
1.2875
1.48117
1.45634
1.42161
1.55729
1.85213
1.43685
0.855841
0.618228
0.582217
0.763665
0.952024
0.986981
2.64603
2.19145
0.64558
0.674267
0.60415
0.475666
0.286343
0.198464
0.0770776
-0.0769972
-0.266376
-0.328594
-0.320375
-0.236711
-0.0921391
0.0822049
0.251947
0.405317
0.536375
0.635042
0.714018
0.793998
0.937521
1.20425
3.76809
4.89539
5.12674
5.29561
5.5072
5.73488
3.91392
3.12311
2.17815
1.65818
1.80611
4.51159
4.11312
3.69367
3.41246
3.31012
3.39061
3.59361
3.92053
4.39587
4.87767
5.21106
3.82756
1.28562
0.59007
0.401978
0.268995
0.179597
0.128937
0.110875
0.120854
0.157235
0.194575
0.247146
0.319407
0.402043
0.491814
0.56495
0.619865
0.877324
2.09057
1.38571
0.830291
0.660279
0.576184
0.485182
0.396604
0.666806
1.24081
0.882754
0.516216
0.509067
0.567725
0.859278
1.0139
0.992066
1.35692
1.23354
0.509238
0.561935
0.488214
0.365677
0.273402
0.111824
-0.146154
-0.296084
-0.387191
-0.418078
-0.381621
-0.275824
-0.119963
0.0616927
0.241294
0.400185
0.519921
0.597706
0.643099
0.682461
0.770901
1.93172
4.20801
4.35827
4.53579
4.6931
4.95635
5.34343
5.7714
3.44804
2.30198
2.10654
4.82153
4.21634
3.54839
3.08238
2.6089
0.666239
0.78836
2.3632
3.3569
3.87488
4.40162
4.84558
5.0656
2.06233
0.447
0.313958
0.224421
0.153713
0.112332
0.102736
0.200231
0.209653
0.202561
0.195622
0.228326
0.299686
0.524086
0.530257
0.507738
0.683671
1.83152
1.61659
0.677744
0.525661
0.405408
0.292629
0.199795
0.242353
1.25676
1.2172
0.487732
0.502088
0.576178
1.21747
0.789055
0.375469
0.38841
0.419139
0.399725
0.396837
0.330027
0.209652
0.0538364
-0.12947
-0.29283
-0.416155
-0.489506
-0.505678
-0.45302
-0.335239
-0.171183
0.0125343
0.187811
0.328463
0.432698
0.495967
0.519714
0.530659
0.576041
3.43261
3.94857
3.83404
2.70249
2.01048
4.32747
4.76347
5.30468
3.45593
2.18761
2.27748
4.75689
3.96973
3.24045
0.732208
-0.311
-0.314856
-0.191049
0.0284375
1.04223
3.56812
4.12255
4.60224
4.8956
2.09921
0.30833
0.222374
0.194058
0.154514
0.0978079
0.196431
0.211455
0.196514
0.229769
0.388461
0.433312
0.48622
0.540043
0.59111
0.56034
0.67333
0.885294
0.86925
0.527211
0.470128
0.3807
0.287608
0.209886
0.170511
0.854182
1.30211
1.36538
0.828648
0.669572
1.28559
0.533379
0.370139
0.335542
0.327259
0.323994
0.285409
0.204173
0.0793559
-0.0730708
-0.227432
-0.362609
-0.46756
-0.532497
-0.54365
-0.489861
-0.374127
-0.194786
-0.0219344
0.116331
0.217041
0.303751
0.349656
0.355323
0.345135
0.733883
3.80226
3.61418
3.46542
1.2774
1.23529
3.18318
4.24673
4.67145
3.80207
1.92986
4.76109
4.68565
3.87591
2.75821
-0.200769
-0.408446
-0.422115
-0.288282
-0.0407778
0.352296
2.87453
4.03057
4.51578
4.81092
0.86333
0.196446
0.146605
0.148994
0.134891
0.10356
0.0633392
0.122954
0.153786
0.120134
0.135049
0.195822
0.284502
0.367203
0.413407
0.391913
0.383552
0.392781
0.435297
0.474944
0.450302
0.384148
0.318154
0.269653
0.252056
0.29119
1.35288
1.45331
1.28399
0.783643
1.15782
0.464275
0.404918
0.355905
0.319176
0.278483
0.216888
0.127283
0.0100631
-0.123614
-0.256129
-0.37335
-0.466292
-0.524043
-0.533806
-0.486424
-0.36179
-0.216062
-0.0784421
0.0231271
0.0984243
0.160638
0.186358
0.172814
0.138819
2.50696
3.72268
3.40071
1.48346
0.736136
0.793495
1.06319
3.83256
3.85321
2.35975
1.7792
5.36265
4.744
3.98706
3.37344
0.473052
-0.305934
-0.214213
-0.189882
0.329174
2.95552
3.61455
4.11919
4.60529
2.81009
0.185055
0.105688
0.0816355
0.0706159
0.103606
0.0703341
0.0450023
0.0497809
0.0615727
0.0807851
0.107219
0.140065
0.177507
0.21789
0.255952
0.289035
0.319052
0.345716
0.477296
0.972252
0.806793
0.370394
0.322579
0.298612
0.308086
0.352246
1.19431
1.55813
1.57049
0.871141
0.859044
0.483543
0.414328
0.357091
0.307261
0.251494
0.180229
0.0901531
-0.0165863
-0.131407
-0.24334
-0.343035
-0.42344
-0.473745
-0.483974
-0.434443
-0.322777
-0.22175
-0.120517
-0.0707949
-0.0123226
0.0218699
0.023941
-0.0118077
-0.0746729
3.29659
3.6371
2.8757
0.560082
0.508977
0.554057
0.715216
3.68074
2.68741
1.65531
1.75336
4.03172
4.98874
4.31588
3.73025
3.37155
3.19328
3.14623
2.03304
3.24776
3.53791
3.89363
4.41346
4.75722
0.608364
0.0137171
0.0211249
0.0183412
0.0176647
0.0249345
0.0260739
0.0217815
0.0290991
0.0422886
0.0606716
0.0843037
0.113047
0.161832
0.252797
0.247845
0.310683
0.723964
0.975033
1.0271
1.04252
0.992309
0.532144
0.305025
0.296435
0.325066
0.385723
1.08406
1.60848
1.61553
1.02581
1.34817
0.487259
0.402056
0.375694
0.347351
0.233919
0.163102
0.078468
-0.0172151
-0.11486
-0.208308
-0.290872
-0.356625
-0.398197
-0.393186
-0.332941
-0.276381
-0.205595
-0.181844
-0.135195
-0.106823
-0.102958
-0.128904
-0.19101
-0.281291
3.0707
3.6403
2.09848
0.425241
0.402805
0.441953
0.627889
3.86565
3.91796
1.28165
1.78548
1.64905
5.36284
4.82774
4.30576
3.96136
3.7821
3.74296
3.80754
3.87961
4.00901
4.28126
4.60067
1.89535
-0.121081
-0.0848536
-0.0579096
-0.0412168
-0.0284017
-0.0200056
-0.0138439
-0.00674739
0.00266606
0.0148612
0.0301256
0.0501781
0.0716173
0.29956
0.706081
0.713525
0.723728
0.52132
0.899357
1.09112
1.02375
0.930742
0.90916
0.499311
0.274996
0.31669
0.389294
0.782361
1.59267
1.61428
1.54228
1.46744
0.561982
0.378696
0.471804
0.433237
0.31903
0.161281
0.0851998
0.00132807
-0.0826105
-0.160577
-0.227449
-0.274508
-0.276133
-0.269118
-0.250316
-0.212844
-0.202268
-0.190099
-0.175864
-0.182008
-0.211836
-0.27347
-0.368888
-0.476588
2.13113
3.73438
2.5426
0.356055
0.350735
0.65774
3.29374
3.84894
3.93774
1.13126
1.77962
1.7314
1.86867
5.08196
5.0283
4.74101
4.58799
4.45392
3.11488
4.07427
4.51351
4.46365
1.16309
-0.334275
-0.233762
-0.165854
-0.12054
-0.088545
-0.0677462
-0.0534461
-0.0436575
-0.0353366
-0.0267608
-0.0172754
0.00958299
0.0165161
0.300317
0.538012
0.568742
0.426231
0.12038
0.167037
0.723411
3.49204
3.62588
2.50812
1.42146
0.743979
0.237054
0.290968
0.371612
0.521118
1.52806
1.56439
1.21084
1.4644
1.02981
0.364195
0.352506
0.425311
0.385909
0.311112
0.119066
0.0370426
-0.0350934
-0.101292
-0.156713
-0.151093
-0.166141
-0.168795
-0.155859
-0.161643
-0.17626
-0.177032
-0.196834
-0.237646
-0.306872
-0.415312
-0.550168
-0.669184
2.34912
3.80559
2.94006
1.04162
3.10814
3.73143
3.7605
3.83822
3.97109
1.03997
2.444
2.44024
1.88507
1.32309
1.64812
2.74843
2.13373
0.593342
-0.0149878
0.174122
1.69469
-0.159786
-0.441394
-0.361893
-0.280117
-0.214451
-0.160683
-0.121979
-0.0982508
-0.0819151
-0.0710499
-0.0632649
-0.0570327
-0.0513787
0.0455564
0.113874
0.0720376
-0.0385225
-0.0676296
-0.0794496
-0.0786299
0.316991
3.4215
3.53789
3.53887
3.50826
3.47693
1.4178
0.162232
0.242986
0.337236
0.566764
1.62142
1.55549
0.624914
1.44737
0.807507
0.371971
0.339338
0.307222
0.385167
0.38351
0.343108
0.15289
0.030676
-0.0234488
-0.0669756
-0.0448495
-0.0558225
-0.0566053
-0.0738894
-0.107852
-0.119657
-0.148948
-0.199144
-0.274722
-0.390928
-0.557165
-0.728205
-0.851839
3.5667
3.76057
3.713
3.71813
3.70376
3.7106
3.77108
3.88723
4.12814
0.431196
2.37121
2.42258
2.40512
0.864002
0.899511
1.00867
0.971061
1.19761
0.342883
-0.182074
-0.328354
-0.400804
-0.401694
-0.348188
-0.286347
-0.229272
-0.182041
-0.146125
-0.121553
-0.105844
-0.0959999
-0.0900549
-0.0868326
-0.0851739
-0.0853563
-0.016705
-0.0901528
-0.108394
-0.126268
-0.139902
-0.155379
-0.192718
1.7057
3.42925
3.4233
3.3563
3.35402
1.80427
0.0533518
0.172756
0.293426
1.25887
1.63647
1.16971
0.562185
0.570744
0.438453
0.40995
0.372872
0.325271
0.288265
0.418976
0.395261
0.361414
0.232646
0.0794491
0.0488755
0.0698029
0.0642047
0.0300587
-0.00666923
-0.0249745
-0.0571083
-0.108864
-0.183565
-0.293647
-0.462792
-0.689127
-0.883561
2.57094
3.79196
3.64615
3.61411
3.6311
3.63366
3.6906
3.82292
4.05827
3.15378
0.0485558
0.181888
0.427966
0.824015
0.494189
1.0894
1.17943
1.09732
0.374821
-0.011904
0.049583
0.233269
0.24959
-0.261584
-0.306793
-0.265652
-0.223264
-0.186898
-0.158648
-0.138922
-0.12618
-0.11874
-0.115471
-0.115421
-0.117234
-0.119369
-0.12752
-0.138272
-0.159081
-0.181997
-0.203293
-0.221839
-0.244738
-0.195702
2.89097
2.8845
0.988869
1.48091
1.46953
0.248843
0.120525
0.300528
1.55996
1.63324
0.544504
0.579816
0.728686
1.20639
1.92521
2.29002
1.55578
0.340979
0.363046
0.452671
0.434943
0.399234
0.197668
0.156164
0.15516
0.128812
0.103908
0.0828124
0.0517181
0.00686789
-0.0589459
-0.15088
-0.29198
-0.50884
-0.733607
-0.87224
3.96676
3.69516
3.56931
3.56198
3.58801
3.63647
3.75992
3.96671
3.03641
0.0623629
0.128855
0.159915
0.161785
0.166642
0.166729
0.146928
0.171311
0.139345
-0.0284594
0.0305229
0.557823
0.496151
0.367276
-0.210495
-0.262683
-0.238241
-0.211003
-0.186276
-0.166571
-0.152492
-0.143661
-0.139455
-0.139296
-0.142351
-0.146463
-0.137383
-0.147948
-0.166739
-0.202531
-0.235506
-0.264241
-0.281723
-0.085634
2.34689
1.88034
-0.170992
-0.641032
-0.206478
0.808206
0.0594353
0.0968531
1.3024
1.53722
0.917686
0.555928
0.698932
1.82431
2.09261
2.46083
2.42106
2.3843
1.50819
0.352451
0.404489
0.450268
0.352108
0.265927
0.242887
0.224383
0.204847
0.182235
0.154284
0.118318
0.0688985
-0.00154188
-0.0780154
-0.102924
-0.369235
-0.34395
1.2253
3.93507
3.67778
3.58453
3.58659
3.64333
3.75765
3.94878
1.43935
-0.17943
0.0229764
0.214721
0.141932
0.139804
0.139673
0.133161
0.11485
0.080119
0.030135
-0.0196996
0.316385
0.176373
0.164887
-0.219714
-0.228999
-0.225108
-0.213727
-0.198731
-0.184028
-0.171844
-0.163289
-0.158717
-0.158127
-0.161229
-0.16728
-0.172542
-0.16687
-0.182782
-0.212979
-0.249838
-0.283302
-0.316799
-0.337359
1.57398
2.37158
1.85844
-0.531407
-0.71053
-0.571463
-0.246403
0.023893
0.87607
1.36296
1.51259
0.520771
0.574526
1.26904
1.23288
0.617538
1.7929
2.42759
2.38351
1.44745
0.32524
0.327249
0.338032
0.330956
0.320626
0.304289
0.2834
0.260101
0.23535
0.207567
0.173266
0.12599
0.0599957
0.115776
0.429755
0.200785
0.0824311
4.402
4.00539
3.78008
3.70947
3.74171
3.85262
3.48966
-0.292537
-0.497519
-0.118425
0.185208
0.260665
0.115867
0.114312
0.111609
0.102366
0.0843593
0.0553214
0.0172237
-0.00684992
0.0363174
-0.114139
-0.153014
-0.178075
-0.193598
-0.197026
-0.194612
-0.188351
-0.18138
-0.175551
-0.172138
-0.17182
-0.174876
-0.181159
-0.190065
-0.201275
-0.209325
-0.228855
-0.262079
-0.287343
-0.322789
-0.359647
-0.381652
2.34568
2.34019
0.544744
-0.748967
-0.708975
-0.608308
-0.439684
0.415274
1.17946
1.33127
0.853896
0.557015
1.09206
1.13635
0.368598
0.330292
0.520324
1.33236
1.19906
0.498036
0.311351
0.348372
0.363006
0.362463
0.351707
0.332778
0.310939
0.289434
0.267986
0.244475
0.215529
0.176368
0.123043
0.271476
0.583047
0.319332
0.373781
4.61429
4.23342
4.03145
3.98456
4.04507
1.59176
-0.841735
-0.598417
-0.21534
0.165794
0.357707
0.459537
0.0942714
0.0912863
0.0865652
0.0772593
0.0607489
0.0360129
0.00544646
-0.00168877
-0.0495483
-0.0855754
-0.11845
-0.148686
-0.169511
-0.177418
-0.180336
-0.179882
-0.178875
-0.178328
-0.179505
-0.18318
-0.189728
-0.19906
-0.210724
-0.224671
-0.242149
-0.264553
-0.292657
-0.319658
-0.350462
-0.390267
-0.358062
2.57785
1.50606
-0.669407
-0.716729
-0.667751
-0.571756
-0.36923
1.01977
1.16321
1.30856
0.233677
0.857974
1.01313
0.435179
0.318339
0.308315
0.263944
0.215178
0.208005
0.254649
0.315131
0.35274
0.368708
0.366167
0.35247
0.335866
0.318202
0.301035
0.284288
0.266606
0.245361
0.218026
0.178698
0.345945
0.496298
-0.0116813
-0.318729
1.86201
4.6394
4.43674
4.06496
-0.364976
-0.858894
-0.624037
-0.293017
0.0796108
0.381586
0.582678
0.546319
0.0757555
0.0718625
0.0655209
0.0555124
0.0414821
0.021411
-0.00440194
-0.00398472
-0.0332892
-0.0720673
-0.112509
-0.137127
-0.152253
-0.162579
-0.169232
-0.173195
-0.176678
-0.180474
-0.185644
-0.192952
-0.202791
-0.215085
-0.229492
-0.246037
-0.265994
-0.290225
-0.318826
-0.348792
-0.111642
-0.402092
-0.0947736
2.65238
-0.0371065
-0.64733
-0.648021
-0.604227
-0.457411
0.820152
1.03159
1.16702
0.219776
0.12643
0.617646
0.308174
0.252709
0.279456
0.287608
0.264886
0.230707
0.225337
0.262201
0.307698
0.339011
0.351306
0.348669
0.337937
0.325144
0.311826
0.299307
0.287685
0.276209
0.263309
0.248152
0.224951
0.267935
0.315574
0.128957
-0.162385
0.254115
3.71736
2.11742
-0.724961
-0.689696
-0.549451
-0.321172
-0.0399648
0.2359
0.447544
0.474135
0.208553
0.0593096
0.0553045
0.0480886
0.0380462
0.0246345
0.00893065
-0.0115658
-0.0360869
-0.0466305
-0.0843929
-0.106142
-0.124674
-0.139678
-0.151423
-0.160555
-0.167902
-0.174793
-0.182125
-0.190723
-0.201288
-0.21421
-0.229412
-0.246624
-0.265902
-0.288234
-0.313977
-0.342478
-0.368429
0.0169865
-0.323179
0.288962
2.73119
-0.543213
-0.572502
-0.575348
-0.535814
0.141923
0.912499
1.04469
0.479735
-0.0141964
0.0640103
0.136488
0.180706
0.195235
0.802729
4.7441
5.20167
1.5314
0.210641
0.249054
0.289161
0.314338
0.323817
0.322308
0.315196
0.305927
0.296522
0.288123
0.281125
0.275232
0.269756
0.264739
0.255971
0.246057
0.361953
0.349884
0.0810674
-0.14305
-0.335348
-0.379215
-0.437172
-0.366756
-0.269736
-0.123777
0.0411934
0.250655
0.213166
0.0845331
0.0663679
0.0443418
0.0402561
0.03332
0.0240269
0.0120362
-0.00268156
-0.0199727
-0.039456
-0.0597916
-0.0798353
-0.0987015
-0.115591
-0.130273
-0.14283
-0.153679
-0.163458
-0.173025
-0.183213
-0.194741
-0.208228
-0.224066
-0.24218
-0.262362
-0.284663
-0.309641
-0.337322
-0.366191
-0.390018
-0.0971018
0.530924
2.17786
2.48468
-0.507999
-0.512932
-0.512761
-0.288563
0.81258
0.912605
0.595304
-0.125405
-0.0465172
0.0302799
0.0835997
0.130792
1.42782
5.56437
5.54154
5.5355
5.52622
0.974048
0.227426
0.272283
0.290429
0.295215
0.292884
0.287518
0.280922
0.274762
0.269907
0.266837
0.265492
0.265674
0.267713
0.269272
0.263647
0.39173
0.468899
0.254391
0.114205
-0.0239122
-0.133896
-0.176624
-0.0199005
-0.0251045
0.0246549
-0.0851445
-0.124199
-0.0278768
0.0113643
0.0144917
0.0306814
0.0266121
0.0206664
0.0123883
0.00189352
-0.0109469
-0.0257104
-0.0419967
-0.0592181
-0.076462
-0.0931072
-0.108661
-0.12291
-0.135895
-0.147906
-0.159433
-0.171113
-0.183625
-0.197656
-0.213721
-0.232367
-0.253473
-0.276885
-0.302552
-0.330688
-0.361198
-0.384684
-0.413984
-0.394072
1.49239
3.26383
1.97208
-0.473127
-0.472518
-0.466688
0.133053
0.769288
0.569094
-0.199929
-0.139229
-0.0705951
-0.0144232
0.0411266
0.750621
5.53756
5.54185
5.5352
3.06424
0.831758
0.461526
0.205911
0.250835
0.262995
0.262927
0.259747
0.255604
0.251466
0.248277
0.246609
0.246811
0.248917
0.252869
0.258856
0.265648
0.268665
0.299223
0.409796
0.31935
0.30546
0.407018
0.363509