/*--------------------------------*- C++ -*----------------------------------*\
| =========                 |                                                 |
| \\      /  F ield         | OpenFOAM: The Open Source CFD Toolbox           |
|  \\    /   O peration     | Version:  2412                                  |
|   \\  /    A nd           | Website:  www.openfoam.com                      |
|    \\/     M anipulation  |                                                 |
\*---------------------------------------------------------------------------*/
FoamFile
{
    version     2.0;
    format      ascii;
    arch        "LSB;label=32;scalar=64";
    class       volScalarField;
    location    "5.75";
    object      p;
}
// * * * * * * * * * * * * * * * * * * * * * * * * * * * * * * * * * * * * * //

dimensions      [1 -1 -2 0 0 0 0];

internalField   nonuniform List<scalar> 
6400
(
7585.84
7585.7
7585.54
7585.36
7585.18
7584.99
7584.82
7584.69
7584.62
7584.63
7584.73
7584.96
7585.32
7585.83
7586.52
7587.37
7588.39
7589.58
7590.93
7592.42
7594.04
7595.74
7597.51
7599.32
7601.12
7602.9
7604.62
7606.24
7607.76
7609.16
7610.41
7611.52
7612.48
7613.29
7613.97
7614.47
7614.89
7615.19
7615.38
7615.47
7615.46
7615.35
7615.15
7614.85
7614.45
7613.94
7613.32
7612.58
7611.71
7610.72
7609.6
7608.37
7607.03
7605.6
7604.09
7602.54
7600.96
7599.38
7597.84
7596.34
7594.93
7593.62
7592.43
7591.38
7590.46
7589.69
7589.06
7588.57
7588.2
7587.94
7587.78
7587.71
7587.71
7587.75
7587.84
7587.94
7588.06
7588.19
7588.32
7588.43
7198.96
7198.82
7198.63
7198.44
7198.24
7198.03
7197.85
7197.7
7197.61
7197.59
7197.67
7197.87
7198.21
7198.7
7199.36
7200.2
7201.21
7202.4
7203.75
7205.25
7206.88
7208.6
7210.39
7212.22
7214.05
7215.85
7217.59
7219.25
7220.79
7222.21
7223.48
7224.6
7225.57
7226.39
7227.06
7227.59
7228
7228.3
7228.49
7228.57
7228.56
7228.45
7228.25
7227.95
7227.55
7227.04
7226.4
7225.66
7224.78
7223.77
7222.64
7221.38
7220.02
7218.56
7217.04
7215.46
7213.86
7212.26
7210.7
7209.19
7207.78
7206.46
7205.28
7204.22
7203.32
7202.56
7201.95
7201.48
7201.13
7200.9
7200.76
7200.71
7200.72
7200.78
7200.88
7200.99
7201.13
7201.26
7201.41
7201.52
6812.1
6811.95
6811.75
6811.54
6811.31
6811.08
6810.86
6810.67
6810.53
6810.47
6810.51
6810.66
6810.96
6811.42
6812.05
6812.87
6813.87
6815.06
6816.42
6817.94
6819.6
6821.36
6823.2
6825.08
6826.96
6828.82
6830.62
6832.32
6833.92
6835.37
6836.66
6837.81
6838.79
6839.62
6840.3
6840.83
6841.23
6841.52
6841.7
6841.78
6841.76
6841.66
6841.46
6841.16
6840.75
6840.24
6839.61
6838.84
6837.95
6836.92
6835.76
6834.47
6833.06
6831.56
6829.99
6828.36
6826.71
6825.08
6823.47
6821.94
6820.5
6819.17
6817.98
6816.93
6816.04
6815.31
6814.72
6814.28
6813.97
6813.77
6813.67
6813.66
6813.7
6813.79
6813.91
6814.05
6814.2
6814.35
6814.5
6814.62
6425.26
6425.11
6424.89
6424.64
6424.38
6424.1
6423.83
6423.58
6423.38
6423.25
6423.22
6423.31
6423.55
6423.96
6424.56
6425.36
6426.36
6427.55
6428.94
6430.5
6432.21
6434.04
6435.96
6437.92
6439.89
6441.83
6443.71
6445.5
6447.16
6448.68
6449.98
6451.17
6452.17
6453
6453.68
6454.2
6454.59
6454.85
6455.02
6455.08
6455.06
6454.95
6454.76
6454.47
6454.07
6453.56
6452.93
6452.16
6451.25
6450.19
6448.99
6447.65
6446.19
6444.62
6442.97
6441.27
6439.55
6437.84
6436.18
6434.59
6433.11
6431.75
6430.55
6429.49
6428.62
6427.9
6427.35
6426.95
6426.69
6426.54
6426.5
6426.53
6426.63
6426.76
6426.92
6427.09
6427.27
6427.44
6427.6
6427.73
6038.46
6038.3
6038.06
6037.77
6037.46
6037.11
6036.77
6036.43
6036.14
6035.92
6035.8
6035.81
6035.97
6036.32
6036.88
6037.65
6038.64
6039.86
6041.29
6042.91
6044.71
6046.63
6048.66
6050.74
6052.83
6054.9
6056.89
6058.78
6060.53
6062.11
6063.49
6064.7
6065.71
6066.54
6067.2
6067.69
6068.05
6068.29
6068.43
6068.48
6068.45
6068.34
6068.16
6067.88
6067.5
6067.01
6066.39
6065.62
6064.69
6063.6
6062.35
6060.94
6059.4
6057.74
6055.99
6054.19
6052.36
6050.56
6048.8
6047.14
6045.59
6044.19
6042.95
6041.9
6041.03
6040.34
6039.83
6039.48
6039.28
6039.21
6039.24
6039.34
6039.51
6039.7
6039.92
6040.13
6040.34
6040.53
6040.72
6040.85
5651.72
5651.54
5651.26
5650.94
5650.56
5650.13
5649.69
5649.24
5648.83
5648.49
5648.24
5648.14
5648.21
5648.48
5648.97
5649.71
5650.71
5651.95
5653.44
5655.15
5657.05
5659.11
5661.29
5663.53
5665.78
5668.01
5670.15
5672.18
5674.03
5675.7
5677.16
5678.4
5679.43
5680.24
5680.87
5681.32
5681.63
5681.83
5681.93
5681.95
5681.91
5681.81
5681.65
5681.4
5681.05
5680.58
5679.99
5679.22
5678.28
5677.15
5675.84
5674.36
5672.71
5670.93
5669.05
5667.11
5665.14
5663.2
5661.32
5659.55
5657.92
5656.45
5655.18
5654.11
5653.25
5652.59
5652.14
5651.86
5651.75
5651.77
5651.9
5652.1
5652.35
5652.63
5652.91
5653.18
5653.43
5653.65
5653.85
5653.99
5265.04
5264.85
5264.54
5264.15
5263.69
5263.17
5262.59
5262.01
5261.44
5260.94
5260.54
5260.29
5260.23
5260.39
5260.82
5261.52
5262.51
5263.79
5265.36
5267.18
5269.23
5271.46
5273.83
5276.28
5278.74
5281.17
5283.51
5285.71
5287.71
5289.49
5291.02
5292.3
5293.33
5294.12
5294.69
5295.08
5295.32
5295.45
5295.5
5295.49
5295.43
5295.34
5295.21
5295.01
5294.72
5294.31
5293.74
5292.99
5292.04
5290.88
5289.5
5287.91
5286.13
5284.2
5282.14
5280.02
5277.87
5275.75
5273.71
5271.8
5270.05
5268.51
5267.18
5266.09
5265.25
5264.64
5264.26
5264.08
5264.07
5264.21
5264.46
5264.79
5265.15
5265.54
5265.91
5266.24
5266.54
5266.8
5267.02
5267.17
4878.46
4878.24
4877.89
4877.44
4876.89
4876.23
4875.5
4874.73
4873.97
4873.26
4872.67
4872.23
4872
4872.04
4872.37
4873.02
4874.01
4875.34
4877
4878.97
4881.2
4883.65
4886.26
4888.97
4891.71
4894.4
4896.99
4899.39
4901.58
4903.49
4905.11
4906.43
4907.45
4908.19
4908.68
4908.97
4909.11
4909.14
4909.11
4909.05
4908.98
4908.91
4908.82
4908.69
4908.48
4908.15
4907.65
4906.95
4906
4904.8
4903.34
4901.62
4899.68
4897.55
4895.28
4892.92
4890.54
4888.2
4885.96
4883.86
4881.97
4880.32
4878.93
4877.82
4877
4876.44
4876.15
4876.09
4876.23
4876.52
4876.93
4877.41
4877.93
4878.44
4878.92
4879.34
4879.7
4879.98
4880.22
4880.39
4491.99
4491.75
4491.35
4490.83
4490.15
4489.32
4488.39
4487.4
4486.4
4485.44
4484.59
4483.92
4483.49
4483.36
4483.57
4484.15
4485.14
4486.53
4488.31
4490.46
4492.92
4495.65
4498.57
4501.61
4504.68
4507.71
4510.59
4513.27
4515.67
4517.75
4519.48
4520.83
4521.82
4522.48
4522.85
4522.99
4522.98
4522.87
4522.72
4522.6
4522.51
4522.47
4522.45
4522.43
4522.35
4522.14
4521.74
4521.11
4520.18
4518.95
4517.39
4515.53
4513.38
4511.01
4508.47
4505.82
4503.14
4500.52
4498.01
4495.7
4493.63
4491.85
4490.38
4489.25
4488.44
4487.97
4487.79
4487.88
4488.2
4488.68
4489.29
4489.96
4490.65
4491.32
4491.94
4492.48
4492.91
4493.23
4493.49
4493.66
4105.67
4105.41
4104.97
4104.33
4103.44
4102.39
4101.23
4099.99
4098.7
4097.44
4096.29
4095.33
4094.64
4094.29
4094.35
4094.85
4095.83
4097.29
4099.22
4101.58
4104.34
4107.41
4110.72
4114.17
4117.67
4121.1
4124.37
4127.38
4130.05
4132.33
4134.16
4135.54
4136.48
4137.01
4137.2
4137.14
4136.9
4136.59
4136.29
4136.06
4135.95
4135.95
4136.05
4136.19
4136.29
4136.26
4136.03
4135.5
4134.63
4133.37
4131.71
4129.66
4127.27
4124.6
4121.71
4118.7
4115.66
4112.68
4109.85
4107.25
4104.96
4103.02
4101.46
4100.3
4099.53
4099.15
4099.12
4099.41
4099.94
4100.66
4101.51
4102.41
4103.3
4104.14
4104.91
4105.6
4106.18
4106.57
4106.84
4107.01
3719.58
3719.3
3718.74
3717.81
3716.59
3715.27
3713.9
3712.41
3710.82
3709.21
3707.69
3706.37
3705.36
3704.75
3704.62
3705.02
3705.98
3707.52
3709.63
3712.27
3715.38
3718.88
3722.67
3726.63
3730.65
3734.59
3738.33
3741.76
3744.77
3747.28
3749.24
3750.64
3751.48
3751.83
3751.76
3751.38
3750.83
3750.24
3749.71
3749.35
3749.21
3749.28
3749.54
3749.91
3750.28
3750.52
3750.52
3750.17
3749.38
3748.1
3746.33
3744.07
3741.38
3738.33
3735.02
3731.56
3728.06
3724.64
3721.41
3718.47
3715.9
3713.76
3712.09
3710.9
3710.18
3709.93
3710.09
3710.61
3711.41
3712.42
3713.55
3714.71
3715.81
3716.78
3717.65
3718.52
3719.36
3719.98
3720.34
3720.5
3333.86
3333.52
3332.53
3330.92
3329.2
3327.66
3326.21
3324.57
3322.68
3320.68
3318.73
3316.98
3315.58
3314.64
3314.27
3314.53
3315.47
3317.1
3319.43
3322.4
3325.94
3329.97
3334.35
3338.95
3343.62
3348.19
3352.53
3356.47
3359.89
3362.69
3364.8
3366.19
3366.89
3366.96
3366.52
3365.71
3364.72
3363.72
3362.89
3362.34
3362.15
3362.32
3362.81
3363.51
3364.26
3364.9
3365.24
3365.14
3364.49
3363.22
3361.31
3358.79
3355.73
3352.22
3348.39
3344.37
3340.31
3336.34
3332.62
3329.25
3326.35
3323.97
3322.16
3320.95
3320.31
3320.21
3320.61
3321.42
3322.56
3323.92
3325.38
3326.8
3328.05
3329.03
3329.84
3330.81
3332.06
3333.3
3334.04
3334.24
2948.72
2948.14
2946.3
2943.61
2941.26
2939.58
2938.17
2936.45
2934.26
2931.82
2929.36
2927.08
2925.19
2923.84
2923.16
2923.24
2924.14
2925.88
2928.46
2931.84
2935.91
2940.58
2945.69
2951.06
2956.53
2961.88
2966.95
2971.53
2975.46
2978.62
2980.9
2982.28
2982.77
2982.46
2981.5
2980.08
2978.46
2976.9
2975.63
2974.82
2974.57
2974.89
2975.71
2976.89
2978.19
2979.37
2980.2
2980.46
2980.01
2978.77
2976.71
2973.88
2970.35
2966.27
2961.79
2957.08
2952.32
2947.69
2943.36
2939.48
2936.17
2933.51
2931.56
2930.32
2929.78
2929.9
2930.59
2931.78
2933.34
2935.11
2936.95
2938.65
2940.03
2940.92
2941.51
2942.48
2944.26
2946.5
2948.02
2948.43
2564.45
2563.47
2560.58
2556.73
2553.74
2551.79
2550.23
2548.26
2545.66
2542.65
2539.54
2536.61
2534.09
2532.21
2531.13
2530.97
2531.81
2533.66
2536.55
2540.4
2545.12
2550.56
2556.55
2562.87
2569.3
2575.61
2581.57
2586.94
2591.51
2595.11
2597.61
2598.95
2599.16
2598.33
2596.65
2594.39
2591.91
2589.57
2587.68
2586.51
2586.19
2586.73
2588.03
2589.88
2591.96
2593.93
2595.44
2596.21
2596.04
2594.84
2592.58
2589.35
2585.24
2580.44
2575.14
2569.58
2563.97
2558.53
2553.47
2548.97
2545.18
2542.2
2540.08
2538.85
2538.45
2538.84
2539.93
2541.6
2543.69
2546
2548.31
2550.39
2551.98
2552.93
2553.5
2554.58
2556.86
2560.1
2562.58
2563.34
2181.4
2180.03
2176.45
2171.62
2167.97
2165.33
2163.1
2160.43
2157.09
2153.26
2149.28
2145.48
2142.15
2139.57
2137.95
2137.47
2138.21
2140.19
2143.43
2147.85
2153.33
2159.71
2166.75
2174.21
2181.81
2189.27
2196.33
2202.67
2208.03
2212.17
2214.94
2216.25
2216.08
2214.56
2211.91
2208.5
2204.82
2201.4
2198.67
2197
2196.58
2197.45
2199.45
2202.26
2205.45
2208.53
2210.99
2212.44
2212.65
2211.49
2208.98
2205.21
2200.36
2194.64
2188.33
2181.71
2175.05
2168.63
2162.68
2157.45
2153.09
2149.75
2147.47
2146.27
2146.07
2146.83
2148.45
2150.78
2153.58
2156.6
2159.59
2162.26
2164.34
2165.74
2166.78
2168.36
2171.14
2175.09
2178.15
2179.23
1799.61
1798.03
1794
1788.89
1784.37
1780.63
1777.17
1773.28
1768.74
1763.71
1758.53
1753.55
1749.13
1745.57
1743.21
1742.26
1742.86
1744.99
1748.64
1753.73
1760.15
1767.67
1776.03
1784.89
1793.92
1802.77
1811.23
1818.75
1825.08
1829.9
1833
1834.25
1833.59
1831.14
1827.17
1822.16
1816.83
1811.89
1807.98
1805.62
1805.1
1806.46
1809.47
1813.67
1818.44
1823.09
1826.88
1829.26
1829.93
1828.82
1825.96
1821.51
1815.7
1808.84
1801.26
1793.32
1785.36
1777.7
1770.66
1764.5
1759.47
1755.7
1753.26
1752.12
1752.2
1753.49
1755.86
1759.09
1762.88
1766.9
1770.85
1774.44
1777.41
1779.72
1781.7
1784.12
1787.48
1791.58
1794.86
1796.09
1418.78
1417.21
1413.26
1408
1402.65
1397.59
1392.5
1386.91
1380.66
1373.92
1367.07
1360.49
1354.55
1349.62
1346.13
1344.46
1344.8
1347.12
1351.23
1357.15
1364.76
1373.78
1383.82
1394.47
1405.32
1415.96
1426.01
1435.14
1442.71
1448.41
1451.96
1453.17
1451.91
1448.18
1442.42
1435.17
1427.47
1420.35
1414.72
1411.35
1410.69
1412.81
1417.35
1423.59
1430.65
1437.54
1443.17
1446.81
1448.06
1446.94
1443.6
1438.25
1431.19
1422.83
1413.65
1404.06
1394.44
1385.2
1376.72
1369.35
1363.43
1359.16
1356.57
1355.53
1356.03
1358.11
1361.61
1366.16
1371.34
1376.76
1382.08
1387
1391.28
1394.87
1398.08
1401.46
1405.36
1409.39
1412.39
1413.55
1038.69
1037.19
1033.6
1028.45
1022.5
1016.1
1009.16
1001.41
992.795
983.615
974.372
965.574
957.565
950.675
945.461
942.582
942.58
945.23
949.692
956.468
965.518
976.363
988.409
1001.15
1014.16
1026.99
1039.12
1050.72
1060.1
1067.29
1071.7
1073.02
1071.17
1065.8
1057.67
1047.1
1035.98
1025.89
1017.93
1013.12
1012.27
1015.49
1022.14
1031.18
1041.52
1051.74
1060.01
1065.27
1067.04
1065.75
1061.56
1054.69
1045.64
1035.03
1023.65
1011.93
1000.32
989.243
979.105
970.313
963.343
958.598
956.069
955.183
956.196
959.53
964.731
971.193
978.343
985.739
993.05
999.92
1006.02
1011.24
1015.77
1020.02
1024.16
1027.81
1030.23
1031.08
657.78
656.934
654.041
649.483
643.47
636.149
627.506
617.349
605.742
593.266
580.858
569.306
558.813
549.367
541.5
536.325
535.748
538.333
542.128
549.628
560.652
574.001
588.581
603.855
619.542
635.247
650.461
664.873
677.261
686.874
692.992
694.844
692.013
683.497
673.129
658.184
642.229
627.855
616.24
609.029
607.911
613.08
623.154
636.322
651.33
666.083
677.537
685.21
687.975
686.257
680.374
671.023
659.006
645.05
630.582
616.018
601.863
588.538
576.334
565.594
557.155
552.055
550.552
550.914
552.347
557.962
565.832
574.909
584.574
594.487
604.436
613.917
622.301
629.222
634.793
639.378
643.147
645.946
647.471
647.517
286.115
285.398
284.375
281.79
276.948
270.167
261.709
251.222
238.693
225.075
211.912
200.198
189.725
179.921
170.826
163.982
161.719
164.626
169.95
177.935
188.754
201.441
214.964
229.136
244.107
259.627
275.162
290.709
304.648
315.499
322.637
325.534
323.891
316.954
300.026
281.661
263.263
246.702
232.033
222.399
221.363
228.722
241.738
257.173
274.365
292.125
307.611
316.285
318.432
315.722
308.731
298.127
284.777
269.168
254.558
240.171
226.663
214.309
202.968
192.588
184.047
178.267
174.99
173.817
176.924
184.169
193.306
203.113
213.34
223.834
234.698
245.449
255.04
262.609
268.22
272.304
274.923
276.026
276.169
276.133
47.8904
47.0856
47.3982
46.9243
44.8636
41.82
38.0957
33.4196
27.8094
21.8988
16.5882
12.2517
8.64666
5.46098
2.43306
0.405478
-0.153421
0.88175
2.52181
4.96671
8.45326
12.8904
17.9376
23.5758
30.0652
37.2404
44.6595
52.6545
59.9214
65.3443
68.3236
68.1658
64.7394
58.7449
50.9175
42.7244
35.6339
29.4034
23.5488
19.6863
19.3811
22.1981
27.2752
33.1088
39.5049
47.1366
54.838
60.5963
63.8201
64.1901
61.3156
56.0941
49.1165
41.4421
34.4383
27.8242
22.0257
17.1763
12.9613
9.18255
6.22114
4.31425
3.20263
2.48719
3.41253
5.83396
9.10532
12.6586
16.5725
20.7892
25.4166
30.3386
34.9306
38.4868
41.0447
42.9003
43.9685
43.9511
43.4915
43.8535
-9.50693
-9.62952
-9.57445
-9.53821
-9.48254
-9.4184
-9.45538
-9.52991
-9.58103
-9.5997
-9.59766
-9.5884
-9.59021
-9.60015
-9.58669
-9.55459
-9.49162
-9.42604
-9.37517
-9.34776
-9.33915
-9.35094
-9.37839
-9.41616
-9.45943
-9.50082
-9.53644
-9.57984
-9.62727
-9.69705
-9.77902
-9.8403
-9.85868
-9.65914
-9.93624
-9.70359
-9.35805
-9.0762
-8.91229
-8.80158
-8.82644
-9.01019
-9.2358
-9.53805
-9.86954
-10.1223
-10.0693
-10.1645
-10.1576
-10.0899
-9.97729
-9.88168
-9.83679
-9.83041
-9.85189
-9.88729
-9.9095
-9.92734
-9.96048
-10.0247
-10.1031
-10.1157
-10.011
-9.82254
-9.73031
-9.67515
-9.55743
-9.41303
-9.30228
-9.22437
-9.15552
-9.07765
-9.00762
-8.9787
-8.97444
-8.95681
-8.93609
-8.93605
-9.02629
-8.96691
-10.1659
-10.2002
-10.1742
-10.1598
-10.1611
-10.1536
-10.1759
-10.2378
-10.2815
-10.2818
-10.2543
-10.2264
-10.2064
-10.194
-10.1665
-10.1022
-10.0064
-9.92252
-9.86455
-9.8135
-9.78956
-9.79629
-9.81655
-9.84344
-9.87426
-9.90296
-9.92659
-9.94999
-9.97747
-10.026
-10.0899
-10.1626
-10.2367
-10.3366
-10.3923
-10.3533
-10.2689
-10.1703
-10.0959
-10.0177
-10.0035
-10.1448
-10.3065
-10.4598
-10.5763
-10.6349
-10.6122
-10.5286
-10.4693
-10.3944
-10.3117
-10.2482
-10.2211
-10.2231
-10.2424
-10.2645
-10.2852
-10.3272
-10.3867
-10.4491
-10.5041
-10.5261
-10.486
-10.3832
-10.2793
-10.1943
-10.0977
-10.0087
-9.93404
-9.86882
-9.81138
-9.75333
-9.69919
-9.65985
-9.63634
-9.61737
-9.59611
-9.57799
-9.58765
-9.56698
-10.7809
-10.7831
-10.735
-10.715
-10.7372
-10.7907
-10.8307
-10.8655
-10.891
-10.8797
-10.8286
-10.7735
-10.7236
-10.6707
-10.6072
-10.5344
-10.4817
-10.4202
-10.3432
-10.2896
-10.2712
-10.2758
-10.2949
-10.3296
-10.3754
-10.4211
-10.4581
-10.4867
-10.513
-10.5454
-10.5853
-10.6296
-10.6995
-10.7769
-10.7594
-10.7436
-10.698
-10.6711
-10.6793
-10.6718
-10.6445
-10.7158
-10.7984
-10.8835
-10.9463
-10.9821
-11.0115
-10.9873
-10.9299
-10.8612
-10.8079
-10.7718
-10.7485
-10.752
-10.7693
-10.7759
-10.7847
-10.8289
-10.8879
-10.9362
-10.9669
-10.9513
-10.8926
-10.8233
-10.7568
-10.683
-10.5981
-10.5165
-10.4444
-10.3867
-10.345
-10.3138
-10.2865
-10.2425
-10.2035
-10.1801
-10.1558
-10.1234
-10.1051
-10.0887
-11.4085
-11.3944
-11.3452
-11.327
-11.3886
-11.4915
-11.53
-11.5416
-11.5486
-11.514
-11.4248
-11.3346
-11.2601
-11.1958
-11.1357
-11.0828
-11.0161
-10.9381
-10.8506
-10.7878
-10.7619
-10.7572
-10.7661
-10.7968
-10.8455
-10.9001
-10.9495
-10.9911
-11.0273
-11.0611
-11.094
-11.1256
-11.1594
-11.1921
-11.1944
-11.1869
-11.1613
-11.1566
-11.1872
-11.2246
-11.2321
-11.2372
-11.2804
-11.3305
-11.3631
-11.3895
-11.4182
-11.4096
-11.3844
-11.3495
-11.336
-11.3252
-11.2947
-11.2842
-11.3186
-11.3146
-11.313
-11.3673
-11.4392
-11.4855
-11.499
-11.4757
-11.4025
-11.3133
-11.2368
-11.1686
-11.098
-11.0286
-10.9657
-10.913
-10.8745
-10.8538
-10.8406
-10.8155
-10.7721
-10.7329
-10.6902
-10.6398
-10.6071
-10.5894
-12.077
-12.0807
-12.0471
-12.0377
-12.1335
-12.2465
-12.2835
-12.2706
-12.2427
-12.1563
-12.0405
-11.9376
-11.8558
-11.7864
-11.7149
-11.6452
-11.5675
-11.4722
-11.3883
-11.322
-11.2823
-11.2599
-11.253
-11.2777
-11.3306
-11.3963
-11.4564
-11.5061
-11.5482
-11.5858
-11.6209
-11.6554
-11.6877
-11.7099
-11.7133
-11.7077
-11.6965
-11.6949
-11.7093
-11.7361
-11.7653
-11.7626
-11.7906
-11.8293
-11.8446
-11.8612
-11.8844
-11.9044
-11.8979
-11.8824
-11.8924
-11.9195
-11.8891
-11.852
-11.9001
-11.9024
-11.9028
-11.9508
-11.9942
-12.008
-11.9976
-11.9631
-11.8935
-11.8126
-11.741
-11.6789
-11.6192
-11.561
-11.5058
-11.4557
-11.4135
-11.3816
-11.3605
-11.3492
-11.3259
-11.3016
-11.238
-11.162
-11.1136
-11.0898
-12.6696
-12.7211
-12.7581
-12.8076
-12.939
-13.0199
-13.0005
-12.9531
-12.9025
-12.7922
-12.6711
-12.5697
-12.4871
-12.4151
-12.3455
-12.2622
-12.1741
-12.0804
-11.9924
-11.9242
-11.8729
-11.8337
-11.8127
-11.8177
-11.8533
-11.9139
-11.9842
-12.0409
-12.0851
-12.123
-12.1562
-12.1852
-12.2097
-12.2282
-12.2356
-12.2337
-12.2274
-12.2244
-12.2288
-12.2421
-12.271
-12.2912
-12.3124
-12.3496
-12.3773
-12.3895
-12.3979
-12.4139
-12.4139
-12.4131
-12.4364
-12.4807
-12.4727
-12.4153
-12.411
-12.4426
-12.4333
-12.459
-12.4978
-12.5136
-12.5139
-12.4755
-12.4047
-12.3287
-12.2633
-12.2073
-12.1558
-12.1063
-12.058
-12.0111
-11.9665
-11.927
-11.8958
-11.8748
-11.8614
-11.8587
-11.8074
-11.7097
-11.6232
-11.5905
-13.1518
-13.2341
-13.3841
-13.53
-13.6489
-13.653
-13.6023
-13.5565
-13.4964
-13.3946
-13.2795
-13.1876
-13.1209
-13.071
-13.0199
-12.9554
-12.8755
-12.7986
-12.7343
-12.6706
-12.6015
-12.5384
-12.4915
-12.4598
-12.4557
-12.4834
-12.5414
-12.6028
-12.6445
-12.6759
-12.7034
-12.7268
-12.7452
-12.7569
-12.7603
-12.7566
-12.749
-12.7429
-12.7417
-12.747
-12.7683
-12.8025
-12.8336
-12.8761
-12.9364
-12.9502
-12.9383
-12.9226
-12.9221
-12.9234
-12.9396
-12.9688
-12.9855
-12.9529
-12.8999
-12.9296
-12.9519
-12.9741
-13.004
-13.0286
-13.0418
-13.0026
-12.9306
-12.8596
-12.8024
-12.7545
-12.7111
-12.6701
-12.6298
-12.5882
-12.5444
-12.5003
-12.4606
-12.4309
-12.4129
-12.4062
-12.3646
-12.2522
-12.1406
-12.0929
-13.647
-13.7856
-13.9946
-14.1502
-14.1966
-14.1566
-14.1085
-14.0767
-14.0241
-13.9452
-13.8592
-13.7983
-13.7637
-13.7544
-13.7522
-13.7295
-13.6921
-13.6548
-13.6079
-13.5362
-13.4353
-13.3307
-13.2371
-13.1598
-13.12
-13.1172
-13.1468
-13.1992
-13.2365
-13.2541
-13.2681
-13.2821
-13.2924
-13.297
-13.2952
-13.2876
-13.277
-13.2669
-13.2603
-13.2586
-13.2684
-13.2967
-13.337
-13.389
-13.4694
-13.5066
-13.4928
-13.4514
-13.4276
-13.4199
-13.4209
-13.4306
-13.4436
-13.4455
-13.4126
-13.4178
-13.4801
-13.5348
-13.5908
-13.6111
-13.5874
-13.5344
-13.4637
-13.4027
-13.3576
-13.3216
-13.2907
-13.2629
-13.2353
-13.2036
-13.1643
-13.1175
-13.0686
-13.0258
-12.9951
-12.9734
-12.9132
-12.7908
-12.6648
-12.6022
-14.1879
-14.3851
-14.5382
-14.6224
-14.6205
-14.5872
-14.5634
-14.5442
-14.51
-14.4609
-14.4157
-14.3939
-14.4021
-14.4507
-14.5204
-14.574
-14.6033
-14.5864
-14.5151
-14.4069
-14.261
-14.1053
-13.974
-13.868
-13.7999
-13.7838
-13.8056
-13.8352
-13.8583
-13.8538
-13.8471
-13.8481
-13.8494
-13.8471
-13.8405
-13.8304
-13.8182
-13.8062
-13.7962
-13.7889
-13.7874
-13.8022
-13.839
-13.8927
-13.971
-14.0367
-14.0492
-14.0113
-13.9537
-13.9229
-13.9052
-13.8925
-13.8901
-13.9019
-13.9105
-13.9179
-13.9814
-14.0655
-14.1376
-14.1521
-14.0972
-14.0368
-13.9857
-13.9494
-13.9257
-13.9105
-13.9019
-13.8971
-13.89
-13.8734
-13.8412
-13.7923
-13.7327
-13.6715
-13.6171
-13.5656
-13.4773
-13.3372
-13.2012
-13.1288
-14.7051
-14.8753
-14.9597
-14.9953
-14.996
-14.9909
-14.9909
-14.9893
-14.9763
-14.9539
-14.9415
-14.9563
-15.0109
-15.1277
-15.2969
-15.4548
-15.5253
-15.4856
-15.3794
-15.2207
-15.0303
-14.8286
-14.6621
-14.5526
-14.4802
-14.4553
-14.4865
-14.5107
-14.5029
-14.4652
-14.4336
-14.4197
-14.4117
-14.4035
-14.3944
-14.384
-14.3729
-14.3624
-14.3522
-14.3406
-14.3285
-14.3297
-14.3584
-14.4096
-14.4751
-14.5386
-14.576
-14.5653
-14.5025
-14.4342
-14.3925
-14.3601
-14.3459
-14.3615
-14.3912
-14.4298
-14.4746
-14.5182
-14.539
-14.5472
-14.523
-14.4985
-14.4894
-14.4926
-14.5038
-14.5236
-14.5516
-14.5821
-14.6047
-14.6085
-14.5846
-14.5319
-14.4589
-14.3739
-14.2845
-14.1926
-14.07
-13.9098
-13.7662
-13.6874
-15.169
-15.2573
-15.3161
-15.3493
-15.3702
-15.3864
-15.4075
-15.4309
-15.4421
-15.437
-15.4427
-15.4859
-15.572
-15.7365
-15.9866
-16.2302
-16.3208
-16.2632
-16.1329
-15.946
-15.7308
-15.4985
-15.2928
-15.1754
-15.13
-15.1192
-15.1579
-15.188
-15.1463
-15.0718
-15.017
-14.9899
-14.974
-14.9627
-14.9535
-14.9446
-14.9368
-14.93
-14.9212
-14.9043
-14.8774
-14.8673
-14.8946
-14.9489
-15.006
-15.0492
-15.0735
-15.0758
-15.0313
-14.9517
-14.8848
-14.8393
-14.8204
-14.8317
-14.8602
-14.9034
-14.9366
-14.9275
-14.8965
-14.8901
-14.9139
-14.9456
-14.9852
-15.0346
-15.0935
-15.1633
-15.2423
-15.3202
-15.3807
-15.4097
-15.3952
-15.337
-15.2494
-15.1343
-14.9994
-14.8586
-14.6949
-14.5202
-14.374
-14.2884
-15.5876
-15.6423
-15.6888
-15.7284
-15.7579
-15.7877
-15.8348
-15.8934
-15.9324
-15.9476
-15.9701
-16.0058
-16.0821
-16.2406
-16.4879
-16.7903
-16.9204
-16.8831
-16.7413
-16.5499
-16.3332
-16.0997
-15.8866
-15.754
-15.716
-15.7334
-15.7884
-15.8089
-15.7459
-15.6532
-15.587
-15.5519
-15.5319
-15.5202
-15.5128
-15.5079
-15.5046
-15.5012
-15.4943
-15.4726
-15.4261
-15.4064
-15.4381
-15.5091
-15.5666
-15.5894
-15.5817
-15.5548
-15.5112
-15.441
-15.3682
-15.3137
-15.2874
-15.2887
-15.3069
-15.3383
-15.3524
-15.3193
-15.2804
-15.284
-15.3311
-15.4011
-15.4852
-15.5831
-15.6988
-15.8302
-15.975
-16.1109
-16.2172
-16.274
-16.2615
-16.1911
-16.0941
-15.9472
-15.7595
-15.564
-15.3579
-15.1717
-15.0225
-14.9228
-16.0091
-16.0505
-16.0912
-16.1336
-16.1681
-16.2118
-16.2926
-16.3953
-16.4704
-16.5267
-16.5587
-16.574
-16.6234
-16.7507
-16.9677
-17.2252
-17.375
-17.3586
-17.2311
-17.0598
-16.8691
-16.6603
-16.4721
-16.3411
-16.275
-16.2848
-16.3357
-16.3465
-16.2868
-16.2019
-16.1389
-16.1031
-16.0841
-16.0746
-16.0714
-16.072
-16.0734
-16.075
-16.079
-16.0665
-16.0398
-16.0192
-16.0391
-16.1052
-16.1606
-16.1599
-16.1167
-16.047
-15.9631
-15.8793
-15.8095
-15.7565
-15.7246
-15.7214
-15.7338
-15.7534
-15.7576
-15.74
-15.7253
-15.729
-15.7808
-15.8755
-15.9968
-16.144
-16.3213
-16.525
-16.7583
-16.9899
-17.1799
-17.2761
-17.2699
-17.1848
-17.0201
-16.8077
-16.5565
-16.302
-16.058
-15.8585
-15.7005
-15.5827
-16.4471
-16.4831
-16.5226
-16.5729
-16.6116
-16.6674
-16.7817
-16.9325
-17.0607
-17.1449
-17.1791
-17.1973
-17.2351
-17.3302
-17.4891
-17.6702
-17.771
-17.7606
-17.6821
-17.565
-17.4222
-17.2544
-17.0911
-16.9507
-16.8545
-16.8283
-16.8452
-16.8457
-16.7971
-16.7309
-16.6785
-16.647
-16.6318
-16.6271
-16.6297
-16.6369
-16.6447
-16.6565
-16.6834
-16.7068
-16.7202
-16.7093
-16.7198
-16.7579
-16.7849
-16.7483
-16.6714
-16.5673
-16.4396
-16.3132
-16.2238
-16.1696
-16.1495
-16.1553
-16.1704
-16.1893
-16.1997
-16.1935
-16.1849
-16.2051
-16.2633
-16.3708
-16.5211
-16.7153
-16.9572
-17.2573
-17.6414
-18.0408
-18.3508
-18.5071
-18.5171
-18.3825
-18.0955
-17.7254
-17.3738
-17.0507
-16.7726
-16.557
-16.3919
-16.2017
-16.9076
-16.9412
-16.9901
-17.0397
-17.0848
-17.144
-17.2782
-17.4727
-17.647
-17.737
-17.769
-17.7834
-17.8105
-17.8716
-17.9733
-18.0873
-18.1578
-18.155
-18.1391
-18.1027
-18.0068
-17.8671
-17.7115
-17.5609
-17.452
-17.3963
-17.3773
-17.3565
-17.3112
-17.2584
-17.216
-17.1897
-17.1786
-17.1797
-17.1892
-17.2044
-17.2219
-17.2449
-17.2906
-17.3645
-17.3964
-17.3758
-17.3674
-17.3897
-17.3816
-17.3141
-17.2175
-17.0992
-16.9482
-16.7826
-16.6585
-16.6015
-16.5886
-16.6023
-16.6246
-16.6492
-16.6626
-16.6692
-16.6631
-16.6898
-16.7586
-16.879
-17.0512
-17.2838
-17.5969
-18.0585
-18.6215
-19.1407
-19.5214
-19.7202
-19.7209
-19.5436
-19.1907
-18.6889
-18.1865
-17.7791
-17.4771
-17.231
-17.0143
-16.6827
-17.3939
-17.4231
-17.4786
-17.5165
-17.5602
-17.6153
-17.7466
-17.9572
-18.166
-18.2623
-18.2895
-18.2921
-18.3028
-18.3364
-18.3853
-18.4512
-18.5218
-18.5685
-18.612
-18.6241
-18.5671
-18.4458
-18.2922
-18.1537
-18.0471
-17.9717
-17.9233
-17.884
-17.8374
-17.7915
-17.7556
-17.7338
-17.7273
-17.7338
-17.7506
-17.7762
-17.8071
-17.8388
-17.8855
-17.9681
-18.0303
-18.0091
-17.9601
-17.941
-17.9109
-17.8331
-17.7319
-17.6213
-17.4739
-17.2874
-17.1318
-17.0604
-17.0507
-17.0534
-17.0726
-17.1019
-17.1275
-17.1367
-17.1504
-17.1832
-17.2602
-17.3855
-17.5714
-17.8339
-18.248
-18.8729
-19.4956
-20.029
-20.4374
-20.6595
-20.667
-20.4757
-20.109
-19.5829
-18.9744
-18.4901
-18.1516
-17.8252
-17.4546
-17.0888
-17.9104
-17.9353
-17.9748
-17.9981
-18.0137
-18.0619
-18.1657
-18.3456
-18.5488
-18.6758
-18.7104
-18.7098
-18.707
-18.7166
-18.7424
-18.7939
-18.8715
-18.978
-19.0666
-19.1011
-19.0714
-18.9758
-18.8521
-18.7307
-18.6248
-18.5366
-18.4713
-18.4174
-18.3689
-18.3273
-18.2963
-18.2795
-18.2777
-18.2886
-18.3131
-18.3513
-18.3976
-18.4367
-18.4733
-18.5344
-18.6069
-18.6091
-18.5389
-18.4679
-18.411
-18.3296
-18.2263
-18.1335
-18.0055
-17.8147
-17.6348
-17.5492
-17.5372
-17.5255
-17.5546
-17.5798
-17.6013
-17.6203
-17.6426
-17.6793
-17.758
-17.8821
-18.0717
-18.361
-18.8777
-19.5631
-20.1472
-20.6504
-21.0511
-21.286
-21.3135
-21.1454
-20.7856
-20.2693
-19.6746
-19.1481
-18.7274
-18.2769
-17.7927
-17.5414
-18.4526
-18.4765
-18.4957
-18.4995
-18.4866
-18.5005
-18.5598
-18.6727
-18.8161
-18.9389
-19.0029
-19.0293
-19.0421
-19.0523
-19.0908
-19.1628
-19.2546
-19.3719
-19.4749
-19.5271
-19.515
-19.4545
-19.3747
-19.2821
-19.1731
-19.077
-19.0033
-18.9456
-18.8989
-18.8618
-18.8366
-18.8259
-18.8281
-18.8434
-18.876
-18.9256
-18.9824
-19.0193
-19.0449
-19.0994
-19.17
-19.2136
-19.1708
-19.0645
-18.9696
-18.8699
-18.7345
-18.6529
-18.5427
-18.355
-18.1586
-18.0675
-18.0398
-18.033
-18.0509
-18.0664
-18.0879
-18.1122
-18.1381
-18.1776
-18.252
-18.3676
-18.5519
-18.8784
-19.446
-20.0672
-20.5847
-21.0276
-21.3851
-21.6065
-21.6446
-21.4924
-21.1634
-20.6955
-20.1433
-19.603
-19.1005
-18.5959
-18.2218
-18.1059
-19.0029
-19.0317
-19.0476
-19.0386
-19.0221
-19.0036
-19.0171
-19.0625
-19.1326
-19.2125
-19.2983
-19.3594
-19.3924
-19.4179
-19.4726
-19.5686
-19.6732
-19.7791
-19.8712
-19.9232
-19.9322
-19.9108
-19.8666
-19.7909
-19.6816
-19.5917
-19.5206
-19.4666
-19.4244
-19.3935
-19.3756
-19.371
-19.3773
-19.3984
-19.4396
-19.4993
-19.5641
-19.6003
-19.6329
-19.7224
-19.8494
-19.943
-19.9341
-19.8141
-19.6649
-19.512
-19.3201
-19.199
-19.0956
-18.9094
-18.709
-18.6241
-18.5705
-18.5702
-18.5667
-18.5688
-18.5827
-18.6154
-18.6468
-18.6847
-18.7476
-18.8449
-19.0171
-19.3598
-19.8958
-20.4389
-20.8805
-21.2554
-21.5578
-21.7278
-21.7513
-21.6079
-21.3114
-20.8722
-20.3485
-19.8062
-19.3015
-18.9134
-18.7485
-18.7275
-19.552
-19.5827
-19.6073
-19.6036
-19.5873
-19.5668
-19.5565
-19.5693
-19.5908
-19.624
-19.6912
-19.7653
-19.8037
-19.8399
-19.9162
-20.0204
-20.1167
-20.2053
-20.285
-20.3393
-20.3678
-20.3718
-20.3382
-20.2586
-20.1667
-20.0882
-20.027
-19.9802
-19.9448
-19.9216
-19.9115
-19.9123
-19.9241
-19.9535
-20.0047
-20.0787
-20.1592
-20.2245
-20.3321
-20.5181
-20.7372
-20.8672
-20.8589
-20.718
-20.474
-20.2248
-19.9924
-19.8063
-19.6775
-19.4774
-19.2906
-19.2121
-19.1492
-19.1316
-19.1115
-19.1026
-19.1236
-19.159
-19.1832
-19.21
-19.2509
-19.321
-19.4679
-19.7815
-20.2499
-20.7251
-21.1094
-21.4219
-21.6711
-21.8011
-21.7771
-21.6115
-21.3089
-20.8913
-20.4142
-19.9458
-19.5595
-19.3421
-19.2955
-19.3257
-20.0945
-20.1127
-20.146
-20.1484
-20.131
-20.1058
-20.0996
-20.1032
-20.1026
-20.1129
-20.165
-20.2293
-20.27
-20.3229
-20.4063
-20.5013
-20.5859
-20.6624
-20.7352
-20.7912
-20.8235
-20.8304
-20.7807
-20.7077
-20.6351
-20.574
-20.5253
-20.4874
-20.4604
-20.4451
-20.4416
-20.4478
-20.4663
-20.5051
-20.5691
-20.6633
-20.7752
-20.9224
-21.1428
-21.4272
-21.6969
-21.8359
-21.7821
-21.5785
-21.2562
-20.9168
-20.6842
-20.4717
-20.2987
-20.0544
-19.8996
-19.8162
-19.757
-19.7274
-19.7071
-19.7074
-19.7278
-19.7474
-19.7467
-19.7512
-19.7631
-19.8023
-19.9103
-20.1597
-20.5432
-20.964
-21.3176
-21.5874
-21.778
-21.8643
-21.8053
-21.6138
-21.3234
-20.9627
-20.5776
-20.2403
-20.0039
-19.8946
-19.8835
-19.8924
-20.6147
-20.6245
-20.6538
-20.6531
-20.6386
-20.6236
-20.6197
-20.6194
-20.6208
-20.6395
-20.6817
-20.7276
-20.7733
-20.8326
-20.9063
-20.9892
-21.0671
-21.1399
-21.2044
-21.2504
-21.2677
-21.2531
-21.2054
-21.1504
-21.0992
-21.0549
-21.0178
-20.989
-20.9702
-20.9623
-20.9641
-20.9754
-20.9998
-21.0473
-21.1252
-21.2425
-21.3983
-21.6203
-21.9111
-22.2377
-22.4855
-22.5766
-22.4767
-22.2433
-21.917
-21.568
-21.3551
-21.1548
-20.9187
-20.6626
-20.5265
-20.4378
-20.3788
-20.3573
-20.355
-20.3622
-20.3597
-20.3425
-20.3187
-20.2978
-20.2839
-20.2969
-20.3666
-20.5437
-20.8366
-21.1878
-21.5269
-21.7875
-21.9486
-22.0044
-21.9445
-21.7645
-21.5074
-21.2111
-20.9279
-20.7058
-20.563
-20.4974
-20.4793
-20.4675
-21.111
-21.1124
-21.1304
-21.1348
-21.1295
-21.1244
-21.13
-21.145
-21.16
-21.1776
-21.2056
-21.2399
-21.2863
-21.3365
-21.3984
-21.4689
-21.5398
-21.6033
-21.6509
-21.6803
-21.6825