/*--------------------------------*- C++ -*----------------------------------*\
| =========                 |                                                 |
| \\      /  F ield         | OpenFOAM: The Open Source CFD Toolbox           |
|  \\    /   O peration     | Version:  2412                                  |
|   \\  /    A nd           | Website:  www.openfoam.com                      |
|    \\/     M anipulation  |                                                 |
\*---------------------------------------------------------------------------*/
FoamFile
{
    version     2.0;
    format      ascii;
    arch        "LSB;label=32;scalar=64";
    class       volScalarField;
    location    "2.8";
    object      alpha.ethanol;
}
// * * * * * * * * * * * * * * * * * * * * * * * * * * * * * * * * * * * * * //

dimensions      [0 0 0 0 0 0 0];

internalField   nonuniform List<scalar> 
6400
(
1
1
1
1
0.999999
1
1
1
0.999999
0.999999
1
0.999999
0.999999
1
1
1
1
1
0.999999
1
1
1
1
1
1
1
1
1
1
1
1
1
1
1
1
1
1
1
1
1
1
1
1
1
1
1
1
1
1
1
1
1
1
1
1
1
1
1
1
1
1
1
1
1
1
1
1
1
1
1
1
1
1
1
0.999999
1
1
1
0.999999
0.999999
1
1
0.999999
0.999999
1
1
0.999999
0.999999
0.999999
0.999999
1
1
0.999999
1
1
1
1
1
0.999999
0.999999
1
1
1
0.999999
0.999999
1
1
1
1
1
1
1
1
1
1
1
1
1
1
1
1
1
1
1
1
1
1
1
1
1
1
1
1
1
1
1
1
1
1
1
1
1
1
1
1
1
1
1
1
1
1
1
1
1
1
1
0.999999
0.999998
0.999998
0.999999
1
0.999999
0.999999
0.999999
1
1
0.999999
0.999999
1
1
1
1
1
1
0.999999
1
1
1
1
0.999999
0.999999
0.999999
1
1
1
1
1
1
1
1
1
1
1
1
1
1
1
1
1
1
1
1
1
1
1
1
1
1
1
1
1
1
1
1
1
1
1
1
1
1
1
1
1
1
1
0.999999
0.999999
0.999999
1
1
1
1
1
1
0.999999
0.999999
0.999999
0.999999
0.999999
1
1
0.999999
0.999999
1
1
1
1
1
1
1
1
0.999999
1
1
1
1
1
1
1
1
1
1
1
1
1
1
1
1
0.999999
0.999999
1
1
1
1
1
1
1
1
1
1
1
1
1
1
1
1
1
1
1
1
1
1
1
1
1
1
1
1
1
1
1
0.999999
0.999999
1
1
0.999999
0.999999
0.999999
1
1
1
1
1
1
0.999999
0.999999
0.999999
1
1
1
0.999999
0.999999
1
1
1
1
1
1
1
1
1
1
0.999999
1
1
1
1
1
1
1
1
1
1
1
1
1
0.999999
1
1
1
1
0.999999
0.999999
1
1
1
1
1
1
1
1
1
1
1
1
1
1
1
1
1
1
1
1
1
1
1
1
1
1
1
1
1
1
1
1
1
1
1
0.999999
0.999999
1
1
1
1
1
1
1
1
1
1
0.999999
1
1
1
1
1
1
1
1
0.999999
0.999999
1
1
1
1
0.999999
0.999999
1
1
1
1
1
1
1
1
1
1
1
1
1
1
1
1
1
1
1
1
1
1
1
1
1
1
1
1
1
1
1
1
1
1
1
1
1
1
1
1
1
1
1
1
1
1
1
1
1
1
1
1
1
0.999999
0.999999
0.999999
1
1
1
1
1
1
1
1
1
1
1
1
1
1
1
1
1
1
0.999999
0.999999
0.999999
1
1
0.999999
0.999999
1
1
1
1
1
1
1
1
1
1
1
1
1
1
1
1
1
1
1
1
1
1
1
1
1
1
1
1
1
1
1
1
1
1
1
1
1
1
1
1
1
1
1
1
1
1
1
1
1
0.999999
0.999999
0.999999
0.999999
1
1
1
1
1
1
1
1
1
1
1
1
1
1
1
1
1
1
1
1
0.999999
1
0.999998
1
1
1
1
1
1
1
1
1
1
1
1
1
1
1
1
1
1
1
1
1
1
0.999999
1
1
1
1
1
1
1
1
1
1
1
1
1
1
0.999999
0.999999
0.999999
1
1
1
1
1
1
1
1
1
1
1
1
0.999999
0.999999
0.999999
1
1
1
1
1
1
1
1
1
1
1
1
1
1
1
1
1
1
1
1
1
1
1
1
1
1
0.999999
0.999999
0.999999
0.999999
1
1
1
1
1
1
1
1
1
1
1
1
1
1
1
1
1
1
1
1
1
1
1
1
1
1
1
1
1
1
1
1
1
1
1
1
1
1
1
1
1
1
1
1
1
1
1
0.999999
1
1
1
1
1
1
1
1
1
1
1
1
1
1
1
1
1
1
1
1
1
1
1
1
1
0.999999
0.999999
1
1
0.999999
0.999999
0.999999
1
1
1
1
1
1
1
1
1
1
1
1
1
1
1
1
1
1
1
1
1
1
1
1
1
1
1
1
1
1
1
1
1
1
1
1
1
1
1
1
1
1
1
1
1
1
1
1
1
1
1
1
1
1
1
1
1
1
1
1
1
1
1
1
1
1
1
1
1
0.999999
1
0.999999
1
1
1
0.999999
1
1
1
1
1
1
1
1
1
1
1
1
1
1
1
1
1
1
1
1
1
1
1
1
1
1
1
1
1
1
1
1
1
1
1
1
1
1
1
1
1
1
1
1
1
1
1
1
1
1
1
1
1
1
1
1
1
1
1
1
1
1
1
1
1
1
0.999999
1
1
1
1
1
1
1
1
1
1
1
1
1
1
1
1
1
1
1
1
1
1
1
1
1
1
1
1
1
1
1
1
1
1
1
1
1
1
1
1
1
1
1
1
1
1
1
1
1
1
1
1
1
1
1
1
1
1
1
1
1
1
1
1
1
1
1
1
1
1
1
1
1
1
1
1
1
1
1
0.999999
1
1
1
1
1
1
1
1
1
1
1
1
1
1
1
1
1
1
1
1
1
1
1
1
1
1
1
1
1
1
1
1
1
1
1
1
1
1
1
1
1
1
1
1
1
1
1
1
1
1
1
1
1
1
1
1
1
1
1
1
1
1
1
1
1
1
1
1
1
1
1
1
1
1
1
1
1
1
1
1
1
1
1
1
1
1
1
1
1
1
1
1
1
1
1
1
1
1
1
1
1
1
1
1
1
1
1
1
1
1
1
1
1
1
1
1
1
1
1
1
1
1
1
1
1
1
1
1
1
1
1
0.999999
0.999999
1
1
1
1
1
1
1
1
1
1
1
1
1
1
1
1
1
1
1
1
1
1
1
1
1
1
1
1
1
1
1
1
1
1
1
1
1
1
1
1
1
1
1
1
1
1
1
1
1
1
1
1
1
1
1
1
1
1
1
1
1
1
1
1
1
1
1
1
1
1
1
1
0.999999
0.999999
0.999999
0.999999
1
0.999999
0.999999
1
1
1
1
1
1
1
1
1
1
1
1
1
1
1
1
1
1
1
1
1
1
1
1
1
1
0.999998
0.999998
0.999999
0.999999
1
1
0.999999
1
1
1
1
1
1
1
1
1
1
1
1
1
1
1
1
1
1
1
1
1
1
1
1
1
1
1
1
1
1
1
1
1
1
1
1
1
1
1
1
0.999999
1
1
1
1
1
1
1
1
1
1
1
1
1
1
1
1
1
1
1
1
1
1
1
1
1
1
1
1
0.999998
0.999957
0.999993
0.999995
0.999967
0.999877
0.999714
0.999973
1
1
1
1
1
1
1
1
1
1
1
1
1
1
1
1
1
1
1
1
1
1
1
1
1
1
1
1
1
1
1
1
1
1
1
0.999999
0.999999
1
1
1
1
1
1
1
1
1
1
1
1
1
1
1
1
1
1
1
1
1
1
1
1
1
1
1
1
1
1
1
1
1
1
1
0.999999
0.999657
0.997833
0.998836
0.993244
0.993154
0.998778
0.999994
0.999999
1
1
1
1
1
1
1
1
1
1
1
1
1
1
1
1
1
1
1
1
1
1
1
1
1
1
1
1
1
0.999999
0.999997
0.999995
0.99999
0.999984
0.99998
0.999979
0.999983
0.999989
0.999995
0.999997
0.999999
1
1
1
1
1
1
1
1
1
1
1
1
1
1
1
1
1
1
1
1
1
1
1
1
1
1
1
1
1
1
0.999996
0.999897
0.990412
0.982149
0.974128
0.988801
0.999578
0.999969
0.999997
1
1
1
1
1
1
1
1
1
1
1
1
1
1
1
1
1
1
1
1
1
1
1
1
1
1
0.999998
0.999991
0.999974
0.999937
0.999872
0.99925
0.995349
0.989965
0.986055
0.985139
0.987407
0.992363
0.997439
0.999864
0.999935
0.999976
0.999994
0.999999
1
1
1
1
1
1
1
1
1
1
1
1
1
1
1
1
1
1
1
1
1
1
1
1
1
1
0.999997
0.999975
0.999645
0.992599
0.975419
0.972113
0.990281
0.998383
0.999708
0.99989
0.999998
1
0.937721
0.857996
0.807651
0.771328
0.730539
0.687577
0.647376
0.617345
0.604776
0.608314
0.63599
0.676502
0.727519
0.790438
0.855919
0.911109
0.951289
0.976797
0.990706
0.997254
0.999659
1
0.998841
0.985572
0.942694
0.878762
0.807425
0.731903
0.653394
0.562508
0.487429
0.436082
0.409507
0.403481
0.417429
0.454375
0.515161
0.595887
0.682706
0.761287
0.83829
0.909647
0.965098
0.98938
0.995119
0.996509
0.997614
0.995778
0.987148
0.967369
0.932779
0.880854
0.812993
0.741011
0.682181
0.642076
0.617568
0.616136
0.630131
0.663492
0.708423
0.754396
0.794022
0.826082
0.872946
0.949949
1
0.999999
0.999946
0.99984
0.998612
0.992483
0.978201
0.930288
0.884002
0.836293
0.721321
0.655581
0.534011
0.368805
0.231722
0.162066
0.124238
0.0903514
0.0614119
0.0407766
0.0275346
0.021093
0.0196773
0.0233264
0.0328128
0.0476471
0.0665129
0.0946384
0.141084
0.210545
0.298144
0.384944
0.442666
0.462074
0.452458
0.398751
0.324919
0.246305
0.173604
0.113569
0.0647829
0.0277806
0.00228018
4.75799e-10
3.93333e-10
3.91606e-10
3.91578e-10
3.91578e-10
3.91578e-10
3.91578e-10
3.91777e-10
3.9827e-10
0.00907324
0.0385795
0.0804734
0.134008
0.202036
0.280057
0.359165
0.42662
0.462055
0.453415
0.412299
0.334073
0.241282
0.159626
0.101945
0.0688009
0.0496863
0.0357669
0.0262715
0.0223901
0.0240395
0.0317239
0.0477577
0.0727882
0.106568
0.14339
0.182273
0.252679
0.391584
0.545799
0.665202
0.72474
0.825478
0.869374
0.956022
0.58159
0.276673
0.190065
0.214896
0.167152
0.0774493
0.0129575
0.00129254
0.000911083
0.000740904
0.000481827
0.000282446
0.000168958
0.00011139
8.85862e-05
9.21753e-05
0.000108298
0.000108579
8.36101e-05
5.19243e-05
3.56507e-05
3.19795e-05
3.89001e-05
5.22145e-05
0.000137133
0.000607912
0.00109199
0.000600715
5.43857e-05
1.92943e-06
1.57804e-06
9.05422e-07
2.76757e-07
4.06099e-08
2.43439e-08
1.01995e-08
2.52123e-09
3.1365e-09
3.93333e-10
3.91606e-10
3.91576e-10
3.91578e-10
3.91777e-10
4.21151e-10
5.33424e-10
7.78676e-10
1.02194e-09
1.02194e-09
1.3392e-07
3.5979e-07
4.42312e-07
2.31279e-05
0.000438307
0.00135164
0.00130382
0.00056823
8.80541e-05
1.13506e-05
4.76828e-06
7.72859e-06
3.09782e-05
7.55463e-05
0.000123964
0.000137316
0.000112183
9.95267e-05
0.000114549
0.000165911
0.000281809
0.000486534
0.000753699
0.000970345
0.00137426
0.013528
0.080806
0.174269
0.216191
0.17722
0.246092
0.565831
0.108225
0.00349662
5.12879e-05
6.61161e-05
0.00720889
0.00203744
0.000448074
0.000448923
0.000221453
0.000120982
6.58606e-05
3.1727e-05
1.54689e-05
8.21335e-06
5.37882e-06
4.81325e-06
5.01798e-06
4.58338e-06
2.98954e-06
1.91594e-06
7.53455e-06
1.31434e-05
3.06551e-05
4.8609e-05
4.63881e-05
1.58658e-05
1.66442e-05
2.33139e-05
3.29206e-05
3.42074e-05
3.15379e-05
3.11022e-05
2.3198e-05
7.98648e-06
4.06099e-08
2.99402e-07
2.84519e-07
2.3629e-08
4.22559e-10
4.19782e-10
4.23254e-10
4.19895e-10
4.69872e-10
4.23774e-09
1.04067e-08
9.19168e-09
1.02164e-09
7.62086e-06
1.7298e-05
4.01747e-06
3.64614e-06
5.91406e-06
1.46381e-05
1.73872e-05
2.23899e-05
2.80403e-06
8.75862e-08
1.25109e-05
4.62014e-06
2.72746e-08
4.64838e-07
2.2685e-06
5.23447e-06
6.58728e-06
6.13199e-06
7.85371e-06
9.12902e-06
1.21361e-05
2.54872e-05
5.67987e-05
0.000114133
0.000211592
0.000403276
0.000707958
0.00176689
0.00590616
0.00017246
0.000152022
0.000708809
0.0830642
0.0021438
0.00583444
4.79733e-05
5.12879e-05
5.72483e-05
5.40788e-05
0.000137207
0.000262183
5.4496e-05
2.01778e-05
9.9191e-06
3.93982e-06
1.45495e-06
5.77574e-07
2.90741e-07
2.18196e-07
2.01477e-07
1.5629e-07
7.7234e-08
3.38614e-07
6.00373e-06
1.02277e-05
3.28663e-05
5.94346e-05
4.91908e-05
1.53687e-05
1.60171e-05
2.67025e-05
3.63784e-05
4.90456e-05
4.92376e-05
4.90456e-05
2.9166e-05
5.02358e-06
4.8546e-07
7.22258e-07
4.52073e-07
9.39704e-09
1.77096e-09
1.06008e-09
9.9754e-10
1.01988e-09
8.48472e-10
1.04475e-08
2.26162e-08
2.26221e-08
1.44215e-08
1.50945e-08
2.15035e-06
4.11836e-06
3.85272e-06
4.64026e-06
1.47042e-05
1.86761e-05
2.7951e-05
6.18993e-06
8.69205e-11
1.89916e-10
1.2037e-09
1.86748e-09
9.37554e-09
4.41076e-08
1.36326e-07
2.1591e-07
6.56758e-07
2.98936e-06
2.69909e-06
9.38978e-07
2.33911e-06
7.22212e-06
1.96559e-05
5.79802e-05
0.000211453
0.000375869
0.000416955
0.000215699
0.000152022
0.000134652
0.00253159
0.00208568
0.0021438
0.00555399
3.43857e-05
5.77089e-05
1.83258e-05
1.36802e-05
7.67259e-05
3.50844e-05
6.23286e-06
3.07246e-06
1.65189e-06
6.04947e-07
1.71803e-07
4.83706e-08
1.75573e-08
1.54794e-08
2.07866e-08
1.68893e-08
6.96065e-09
5.48622e-10
1.46439e-08
1.38687e-08
2.77964e-08
3.48113e-09
7.61255e-08
3.02235e-06
1.63334e-05
2.42003e-05
2.45204e-05
1.45777e-05
8.6612e-06
4.87073e-06
7.84709e-06
8.56905e-06
5.75298e-07
7.35256e-09
4.48582e-09
1.28136e-08
7.65151e-09
1.85736e-09
1.84692e-09
2.04028e-09
1.43678e-09
6.99073e-09
1.75111e-08
1.62031e-08
1.33864e-08
2.28145e-08
4.06137e-06
3.06711e-05
3.50526e-05
3.50526e-05
2.90375e-05
7.93494e-06
6.50223e-11
6.8715e-11
1.34285e-10
1.85244e-10
1.91154e-09
1.15376e-08
1.34599e-08
1.31774e-08
1.05094e-08
5.49032e-09
1.76971e-07
1.72618e-06
1.6164e-06
1.02296e-07
2.19254e-07
9.42678e-07
3.45303e-06
1.87057e-05
0.000206474
0.000333015
0.000664971
0.000544828
0.000132743
0.000115454
0.00377624
0.00207223
0.00259075
0.00294817
2.35858e-05
7.05575e-05
8.89339e-06
6.02002e-07
7.92836e-07
7.25767e-07
5.33307e-07
3.98888e-07
4.46657e-07
2.00434e-07
4.86371e-08
9.55466e-09
2.96755e-09
6.52874e-09
1.58368e-08
1.7766e-08
7.03044e-09
2.83017e-10
2.29588e-10
1.17196e-09
2.98596e-09
2.82993e-09
1.68079e-09
4.83369e-10
1.18381e-10
9.75704e-11
9.37875e-11
8.48558e-11
7.77625e-11
7.45003e-11
7.77625e-11
8.53079e-11
2.18008e-07
1.4537e-08
4.43013e-09
4.70074e-09
6.97849e-09
2.0868e-09
2.21187e-09
2.50231e-09
1.82693e-09
2.7458e-10
9.39824e-12
7.38424e-12
7.14858e-12
4.20036e-07
9.36129e-06
1.20583e-05
7.76434e-06
5.07518e-06
7.45323e-08
6.33889e-11
6.36662e-11
6.42381e-11
1.46988e-10
5.65347e-11
3.62935e-09
1.20591e-08
1.44963e-08
1.44557e-08
9.86724e-09
1.65287e-09
1.67824e-09
1.15819e-08
8.90732e-09
8.86756e-09
2.69469e-08
1.27468e-07
5.69787e-07
7.41092e-06
9.80611e-05
0.000144885
0.000492766
0.000550342
0.000350241
5.4038e-05
0.00258882
0.00262427
0.00174521
0.00335772
1.68437e-05
6.44363e-05
7.27179e-06
9.96208e-08
7.98647e-08
7.84923e-08
6.87595e-08
5.28955e-08
3.38029e-07
6.45871e-07
1.28936e-07
2.7448e-09
1.76851e-09
6.10664e-09
1.48256e-08
1.56696e-08
4.19094e-09
4.20219e-10
1.96183e-10
1.81723e-10
1.15366e-08
3.02217e-08
3.01959e-08
3.02755e-08
1.85609e-08
8.33968e-10
9.75704e-11
2.30064e-10
2.3051e-10
7.23211e-11
1.28821e-10
1.81452e-10
1.85403e-10
6.31019e-09
4.46393e-09
4.13051e-09
4.11584e-09
1.95311e-09
2.20919e-09
2.50234e-09
1.82942e-09
2.21711e-10
7.95534e-12
7.2499e-12
6.85248e-12
7.14858e-12
8.95702e-12
1.62436e-11
2.88771e-11
4.18033e-11
5.23977e-11
6.46057e-11
7.11812e-11
1.49385e-10
1.49375e-10
5.70739e-11
2.34565e-11
9.97838e-10
4.8928e-09
5.35163e-09
2.54318e-09
1.6422e-09
1.63184e-09
1.59262e-09
1.56419e-09
3.60336e-09
9.11718e-09
2.42056e-08
8.74301e-08
8.03884e-07
1.6458e-06
1.7732e-06
1.40894e-06
0.000238334
0.000187722
3.82621e-05
0.00271209
0.00191433
0.000553314
0.00293015
8.69099e-06
1.00808e-05
1.25916e-05
4.23539e-08
2.26039e-08
1.97298e-08
1.6613e-08
9.73486e-09
4.02279e-08
1.79605e-07
1.02531e-07
1.54558e-09
1.48955e-09
4.29442e-09
3.07064e-09
2.73873e-10
2.42635e-10
1.96183e-10
1.73127e-10
1.72571e-10
9.29153e-11
2.83527e-09
1.44276e-08
1.66107e-08
6.80906e-09
1.85812e-09
9.83006e-11
2.94849e-10
2.94858e-10
6.39777e-11
3.29737e-10
8.99519e-10
7.3685e-10
4.32963e-09
4.70839e-09
5.80304e-09
6.26029e-09
2.06929e-09
1.45655e-09
2.22923e-09
9.41024e-10
2.60342e-10
4.56577e-11
7.63442e-12
6.12905e-12
3.8215e-11
1.77823e-10
2.92896e-10
2.89626e-10
2.3374e-10
1.63778e-10
1.49503e-10
1.0057e-10
4.68798e-11
1.67128e-11
1.44165e-11
1.68772e-11
9.14564e-11
9.17254e-10
3.69201e-09
2.33966e-09
1.63184e-09
1.59262e-09
1.56376e-09
1.56419e-09
3.52414e-09
1.3718e-08
1.23343e-08
2.17703e-08
7.5814e-08
2.30594e-07
4.56479e-07
5.35504e-07
3.3655e-05
2.08614e-05
1.2623e-05
0.00238921
0.000616999
0.000121889
0.000259939
7.87424e-06
7.6043e-07
4.76151e-07
2.26039e-08
1.97298e-08
1.6613e-08
9.746e-09
3.44732e-09
3.27639e-09
2.50587e-09
3.02783e-09
1.4896e-09
1.4896e-09
1.4896e-09
1.28794e-09
3.21461e-10
2.73873e-10
2.42635e-10
1.95627e-10
9.29153e-11
7.38314e-12
8.18898e-13
4.67868e-13
4.67892e-13
4.67892e-13
4.73551e-13
9.24822e-11
1.59016e-10
1.30402e-10
1.91598e-11
3.14093e-10
9.50661e-10
8.30537e-10
7.14256e-10
1.03691e-10
4.22496e-09
6.26042e-09
2.28011e-09
6.3025e-10
6.63919e-10
3.14184e-10
1.60708e-10
8.04548e-11
8.23083e-12
5.34413e-12
1.06425e-11
1.86967e-11
4.43736e-11
3.0554e-11
1.69138e-11
4.53135e-12
2.65639e-12
3.74728e-12
5.22989e-12
6.64793e-12
7.89935e-12
4.21361e-11
8.60157e-10
3.23143e-09
8.28951e-09
7.09212e-09
4.49327e-09
2.33461e-09
6.01337e-09
2.62273e-09
2.38351e-09
7.17285e-09
8.35849e-09
1.14474e-08
2.00793e-08
4.39838e-08
2.30661e-07
4.56545e-07
5.34862e-07
1.10582e-06
1.04455e-05
0.000288298
0.000217889
0.000118498
3.42595e-06
2.37371e-06
1.77898e-06
7.60072e-07
1.06614e-05
4.24813e-05
4.18807e-05
1.54867e-06
2.71045e-09
2.45706e-09
1.97182e-09
1.66892e-09
1.54571e-09
1.62497e-09
2.44665e-09
1.44875e-09
1.17135e-09
1.54031e-09
1.41096e-09
1.10001e-09
4.98338e-10
8.95537e-11
5.84119e-12
7.19279e-13
4.67617e-13
4.60906e-13
3.57772e-12
7.55206e-12
9.73213e-12
6.23526e-12
2.66295e-12
2.19278e-11
9.35491e-11
4.58363e-12
4.58333e-12
5.22359e-11
6.69817e-10
4.49773e-09
2.18205e-09
3.55461e-10
2.21901e-10
2.18417e-10
2.021e-10
1.23432e-10
3.10449e-12
1.60333e-12
1.54404e-12
5.88084e-13
1.54524e-13
1.41014e-13
1.3585e-13
1.44657e-13
2.66746e-13
7.27917e-13
1.17617e-12
1.68069e-12
1.60422e-11
4.65094e-10
1.21525e-08
4.33602e-08
8.38005e-08
9.52464e-08
8.1256e-08
3.83726e-08
1.06569e-07
3.86643e-08
2.99975e-09
6.43568e-09
1.21148e-08
1.30683e-08
1.37163e-08
2.28158e-08
1.20942e-06
1.99316e-06
1.10582e-06
1.75747e-06
2.42333e-06
4.2679e-06
0.000229864
0.000128363
6.37128e-06
2.73659e-06
2.37901e-06
2.35219e-06
1.92782e-05
0.000134082
0.000159602
5.20963e-05
2.70702e-09
2.70702e-09
2.45706e-09
1.95008e-09
1.65488e-09
5.32832e-09
1.53362e-08
1.03387e-08
1.72462e-08
2.85268e-08
2.35439e-08
1.40788e-08
6.26755e-09
1.14344e-09
6.58867e-11
3.90937e-12
4.97181e-13
1.83515e-13
8.76017e-14
4.67727e-14
6.36094e-14
1.21857e-13
2.72224e-13
4.79436e-13
4.82989e-13
4.58107e-12
4.69957e-11
1.98587e-10
1.91703e-10
2.86802e-10
6.81632e-10
3.16659e-10
2.24289e-10
2.22072e-10
2.85581e-09
1.76572e-10
1.0416e-12
9.72098e-13
5.01874e-13
2.96232e-13
3.36232e-13
2.10689e-13
1.14678e-13
5.21683e-14
7.56038e-14
2.29483e-13
6.02322e-13
6.18282e-12
2.11501e-10
5.55208e-09
1.59333e-07
5.17868e-07
1.01552e-06
1.24902e-06
5.74315e-06
7.49781e-06
4.74425e-06
1.0916e-06
2.01812e-08
1.14369e-08
1.28918e-08
1.37164e-08
1.74082e-08
1.99604e-08
8.28829e-08
8.28647e-05
0.00010653
2.00792e-05
4.34324e-06
7.99625e-06
0.000223588
0.000127858
4.80461e-06
2.68853e-06
2.73682e-06
3.33557e-06
1.6392e-05
0.000140727
0.00017419
0.000101866
2.71045e-09
2.70702e-09
2.73808e-09
3.04558e-09
3.83769e-09
2.1497e-07
4.35853e-07
2.25197e-07
3.67228e-07
3.47106e-07
3.01281e-07
1.75481e-07
7.03301e-08
1.11828e-08
6.32769e-10
3.71037e-11
2.53218e-12
8.01365e-13
6.6519e-14
2.82527e-14
5.53922e-14
8.92273e-14
1.47531e-13
7.25302e-13
1.84951e-12
6.23306e-12
7.06079e-11
2.72052e-10
2.72159e-10
7.63127e-11
1.27975e-10
1.30636e-10
2.12616e-10
2.71694e-10
1.05515e-08
1.7074e-10
9.6932e-13
9.70005e-13
3.89812e-13
1.15602e-13
5.10422e-14
5.68383e-15
3.34929e-15
5.98679e-15
1.25161e-13
3.12809e-12
7.20414e-12
1.29069e-10
2.58715e-09
5.64582e-08
1.49399e-06
1.93523e-05
8.84305e-05
0.000149527
0.000250913
0.000282212
0.000201645
7.65791e-05
1.23184e-05
1.87916e-06
4.02545e-08
2.01908e-08
1.99604e-08
2.18774e-08
1.0104e-05
0.000132259
0.000141892
6.89954e-05
8.24255e-06
1.35689e-05
0.000132114
4.74396e-05
2.70489e-06
2.64187e-06
2.69604e-06
2.99777e-06
5.93075e-06
0.000110922
0.00018204
0.000139557
2.53845e-07
4.95611e-09
1.28318e-08
6.21723e-06
6.83746e-05
9.69109e-05
0.000100255
9.06512e-05
9.17288e-05
5.31189e-05
1.75274e-05
2.60408e-06
6.66549e-07
9.74316e-08
6.57981e-09
4.12456e-10
2.4826e-11
4.64707e-12
6.22726e-13
1.354e-14
8.30509e-15
9.98462e-15
8.48621e-14
4.77647e-13
1.67031e-12
6.16021e-12
7.70363e-11
3.31877e-10
4.2671e-10
7.63131e-11
8.022e-11
1.4878e-10
3.09821e-10
9.33926e-08
1.39365e-08
7.02588e-11
9.75456e-13
1.01528e-12
3.48532e-13
7.44124e-14
1.0816e-14
1.97288e-15
2.36106e-15
6.0817e-14
2.09036e-12
1.86292e-11
1.10754e-10
1.86929e-09
3.0382e-08
5.10574e-07
0.000100648
0.000313293
0.000412487
0.000393119
0.000382892
0.000372926
0.000361341
0.000327151
0.000304044
0.000306589
0.000277735
4.36878e-05
1.77716e-07
5.77069e-08
7.24021e-05
0.000141892
0.0001429
9.77312e-05
1.64868e-05
1.66955e-05
1.84494e-05
2.86266e-06
2.64187e-06
2.63545e-06
2.64178e-06
2.75993e-06
3.59679e-06
6.72278e-05
0.00018365
0.000194727
7.55957e-05
6.90697e-07
1.0687e-05
0.000182614
0.000213298
0.000213298
0.000214129
0.000215621
0.000215848
0.000220981
0.000220393
0.000106193
2.74035e-05
7.46417e-07
5.62202e-08
3.89855e-09
2.29621e-10
2.24175e-11
6.39968e-12
2.84171e-13
8.30509e-15
8.39513e-15
5.92679e-14
4.01303e-13
1.52921e-12
5.4561e-12
7.54528e-11
3.28215e-10
4.19534e-10
8.022e-11
8.04015e-09
1.65116e-06
9.35686e-07
3.11618e-07
4.00635e-09
1.71244e-12
1.71795e-12
1.03903e-12
3.13446e-13
5.69059e-14
7.05543e-15
1.97288e-15
1.72202e-14
7.52352e-13
7.48279e-12
4.06564e-11
7.36457e-10
1.63701e-08
2.91294e-07
0.000104077
0.000428514
0.000425545
0.000422309
0.000410663
0.000334358
0.000241088
0.000168306
0.000262933
0.000306589
0.000306589
0.000306589
0.000305506
6.69049e-05
6.04181e-06
0.000137703
0.00014291
0.000142066
8.47063e-05
2.00225e-05
1.84497e-05
2.02194e-05
2.7273e-06
2.63765e-06
2.63804e-06
2.63791e-06
7.67352e-06
7.10338e-06
2.21223e-05
0.000185588
0.000198775
0.000197756
0.000146202
0.000167926
0.000209676
0.000211497
0.000205704
0.000182504
0.000213951
0.000220981
0.000233087
0.000239153
0.000249029
0.000240785
5.44092e-05
4.26771e-07
3.34906e-08
2.92036e-09
1.84989e-10
2.28932e-11
2.13112e-12
6.03e-14
8.48517e-15
3.9439e-14
3.06101e-13
1.35269e-12
4.31655e-12
4.19208e-11
1.9673e-10
1.92456e-10
2.20214e-10
4.09003e-07
1.55165e-05
9.62035e-06
3.17567e-07
9.7084e-12
1.91279e-12
2.11105e-12
1.03886e-12
2.68018e-13
4.28416e-14
5.26455e-15
3.67862e-15
1.63616e-13
2.39774e-12
8.09179e-12
2.08846e-10
5.60938e-09
1.22087e-07
3.11962e-05
0.000431525
0.000429811
0.000428585
0.000341483
8.11926e-05
2.50001e-05
2.41073e-05
2.35263e-05
2.38412e-05
2.68755e-05
0.000271681
0.000305506
0.000300388
0.000263154
4.85717e-05
5.12168e-05
0.000138809
0.000142537
6.76922e-05
2.19008e-05
2.03113e-05
2.19037e-05
0.00139395
0.000140731
2.63409e-06
2.75789e-06
5.07805e-05
9.71799e-06
9.71799e-06
9.11477e-05
0.000197786
0.000198836
0.000198836
0.000202116
0.000207793
7.87462e-05
5.19235e-05
5.07195e-05
5.03442e-05
6.39488e-05
9.90246e-05
0.000164001
0.000258905
0.000262894
0.000266882
3.01029e-05
2.96037e-07
2.04758e-08
1.2524e-09
6.54119e-11
6.65205e-12
8.81929e-13
2.19234e-14
3.13964e-14
2.1169e-13
1.0707e-12
3.394e-12
1.24849e-11
4.88553e-11
7.57794e-11
1.7566e-09
2.87834e-06
1.58155e-05
1.24884e-05
2.12772e-07
5.70196e-12
2.1346e-12
2.15297e-12
9.38936e-13
2.16913e-13
3.1727e-14
4.96962e-15
1.76013e-14
5.19459e-13
1.08228e-12
3.29166e-11
1.05561e-09
2.86059e-08
8.1251e-06
0.000259458
0.000431525
0.000431704
0.000429446
2.25548e-05
2.37657e-05
2.34769e-05
2.50001e-05
2.41073e-05
2.36232e-05
2.40667e-05
2.7595e-05
8.62799e-05
0.000163171
0.000117373
5.06324e-05
5.56551e-05
5.26014e-05
4.85707e-05
5.16249e-05
2.55492e-05
2.74855e-05
2.75805e-05
0.00173016
5.10997e-05
4.50418e-06
4.04802e-06
5.20339e-05
5.35642e-05
1.2439e-05
1.4912e-05
0.000121412
0.000198836
0.00019861
0.000198609
0.000198705
0.000193361
7.54241e-05
4.39576e-05
3.35681e-05
2.61318e-05
2.41094e-05
2.37431e-05
6.58991e-05
0.000266882
0.000269112
0.000231081
1.92764e-05
1.01123e-07
5.9983e-09
2.9249e-10
1.40131e-11
2.88469e-12
2.03681e-13
3.29302e-14
1.36988e-13
7.71932e-13
2.85811e-12
2.91869e-12
3.43706e-12
6.19664e-09
2.90011e-06
1.39616e-05
1.58164e-05
5.04171e-06
4.78735e-11
3.44243e-12
3.31501e-12
2.12479e-12
7.32406e-13
1.61624e-13
2.25005e-14
4.23254e-15
2.39968e-14
4.33596e-13
3.50899e-12
8.25686e-11
3.01535e-09
7.94087e-08
4.96151e-05
0.000430663
0.000431698
0.000430663
0.000360718
2.26464e-05
2.2437e-05
2.47704e-05
3.0725e-05
5.52273e-05
6.00821e-05
4.63155e-05
6.21761e-05
6.32117e-05
6.2859e-05
6.7055e-05
0.000132323
0.000135104
3.68159e-05
3.21951e-05
2.79072e-05
2.69068e-05
3.54844e-05
0.000644186
0.000232203
0.00107162
5.61831e-05
5.54323e-06
2.79716e-05
5.83444e-05
2.06479e-05
1.23925e-05
1.01146e-05
4.584e-05
6.85478e-05
5.79456e-05
2.65158e-05
2.88577e-05
5.63382e-05
7.26289e-05
9.44713e-05
8.16121e-05
2.37431e-05
2.24912e-05
2.27163e-05
7.56526e-05
0.000270869
0.000270869
0.000113497
3.89169e-07
2.45506e-08
1.25728e-09
5.33139e-11
2.99688e-12
7.04748e-13
4.98075e-14
9.06694e-14
5.32999e-13
2.44329e-12
2.39492e-12
2.53916e-12
2.53008e-07
1.18864e-05
1.58154e-05
1.58161e-05
1.44799e-06
5.3053e-12
7.16265e-12
7.32988e-12
1.89166e-12
5.29168e-13
1.10774e-13
1.47463e-14
2.33706e-15
1.648e-14
1.43841e-13
4.2609e-12
1.00019e-10
3.05219e-09
8.53748e-08
5.3874e-05
0.000426122
0.000430663
0.000426122
7.76495e-05
2.2457e-05
2.44898e-05
7.31106e-05
0.000437537
0.000746881
0.000798212
0.000695292
0.000635718
0.000342737
6.7685e-05
7.09129e-05
0.000425605
0.000292361
3.45768e-05
3.3508e-05
3.12316e-05
2.79072e-05
4.47233e-05
0.000715175
0.000479311
0.00172364
0.000324682
1.34135e-05
2.81583e-05
5.76014e-05
5.82666e-05
1.3879e-05
4.89336e-06
3.73869e-06
3.01867e-06
2.30526e-06
5.32768e-06
0.00010737
0.000467783
0.000318028
0.000324711
0.000168831
2.55255e-05
2.27163e-05
2.24901e-05
2.27163e-05
0.000208622
0.000271342
0.000203148
6.06205e-06
5.83873e-08
3.21293e-09
1.37426e-10
8.11378e-12
9.40553e-13
8.16613e-14
6.52976e-14
3.85189e-13
2.14268e-12
2.14372e-12
2.26854e-12
2.95614e-07
1.39104e-05
1.58158e-05
1.57917e-05
1.34092e-07
5.3053e-12
1.30246e-11
8.40308e-12
1.63022e-12
3.79446e-13
7.13229e-14
8.9545e-15
1.38392e-15
6.33296e-15
4.46789e-14
1.45822e-12
2.45318e-11
7.34048e-10
1.96445e-08
2.67353e-06
0.000191583
0.000426122
0.000363266
4.34324e-05
2.44898e-05
3.13369e-05
0.000495701
0.000891086
0.000891086
0.000893424
0.000891104
0.000888725
0.000888731
0.000795969
0.000704021
0.00050331
8.36377e-05
3.597e-05
3.44715e-05
3.3508e-05
3.50802e-05
0.000548963
0.000712282
3.75462e-05
0.00100185
0.00167356
4.64941e-05
3.49657e-05
3.85635e-05
3.08698e-05
5.19221e-06
3.61272e-06
2.58836e-06
2.15557e-06
2.00904e-06
8.72797e-05
0.00128136
0.00160256
0.00139003
0.000342541
3.60553e-05
2.48539e-05
2.28723e-05
2.26848e-05
2.28723e-05
0.000190412
0.00026937
0.000224838
1.0182e-05
8.44279e-08
4.64313e-09
2.26374e-10
1.20206e-11
4.70144e-13
7.84112e-14
5.15075e-14
3.0664e-13
1.91034e-12
7.84007e-12
2.79088e-12
1.41178e-09
5.29975e-06
1.58153e-05
7.97579e-06
3.19742e-12
5.94524e-12
1.81287e-11
8.56174e-12
1.54287e-12
2.83061e-13
4.66687e-14
5.43427e-15
8.8918e-16
1.90794e-15
2.2588e-14
4.30924e-13
1.28733e-11
1.88113e-10
5.68971e-09
1.4236e-07
6.05166e-05
0.000414373
0.000293724
4.12142e-05
3.13369e-05
5.26193e-05
0.000682159
0.000887659
0.00089343
0.000891086
0.000832586
0.00066611
0.000444542
0.000459193
0.000389043
0.000104167
4.12968e-05
3.7393e-05
3.5935e-05
0.000205696
0.000473475
0.00054247
0.000220745
8.37432e-06
7.11496e-07
0.00168185
0.00162122
8.10421e-05
1.81461e-05
6.74468e-06
3.57382e-06
2.57728e-06
2.15557e-06
2.00907e-06
2.0111e-06
0.000712533
0.00160256
0.00160256
0.00160256
0.000424667
3.40563e-05
2.4786e-05
2.29182e-05
2.28723e-05
2.29182e-05
0.000255919
0.00026474
0.00016434
3.23619e-06
6.61694e-08
3.88313e-09
1.85169e-10
1.05696e-11
4.10316e-13
6.56977e-14
4.16323e-14
2.6686e-13
1.82683e-12
1.09105e-11
1.1423e-11
2.07178e-12
2.47246e-06
1.58047e-05
6.03597e-06
3.13133e-12
6.98439e-12
1.84064e-11
9.17383e-12
1.72347e-12
2.31459e-13
3.40111e-14
3.6932e-15
6.26976e-16
1.04712e-15
1.63445e-14
1.20126e-13
3.74879e-12
6.66531e-11
1.60385e-09
4.48383e-08
1.37379e-05
0.000240317
0.000310695
5.00021e-05
4.12144e-05
4.80869e-05
0.000302778
0.000878424
0.000883115
0.000506351
0.000160474
0.000156611
0.000153668
0.000125468
9.38407e-05
7.305e-05
5.15019e-05
0.000108544
0.000397413
0.000442846
0.000465687
0.000330528
3.48398e-05
4.16181e-07
4.25221e-07
0.00110422
0.00175045
0.00149432
4.32899e-05
1.34924e-05
5.09464e-06
2.91002e-06
2.18813e-06
2.0111e-06
2.00965e-06
0.000677094
0.00164251
0.00160256
0.0011789
0.000114846
2.97037e-05
2.44591e-05
2.34527e-05
2.28923e-05
9.94277e-05
0.000269231
0.000262288
0.000105685
5.57727e-07
3.83114e-08
2.15309e-09
1.00267e-10
5.86409e-12
2.22564e-13
3.8089e-14
3.43611e-14
2.48397e-13
1.81579e-12
1.1073e-11
1.27086e-11
2.05926e-12
1.90062e-06
1.57871e-05
1.42435e-05
3.06654e-12
6.00958e-12
1.64379e-11
9.47855e-12
2.15346e-12
2.10028e-13
2.80732e-14
2.93048e-15
4.40614e-16
3.46014e-16
3.01909e-15
5.7613e-14
8.51838e-13
2.14867e-11
3.47147e-10
1.06921e-08
3.05538e-07
9.18284e-05
0.000306385
0.000129572
4.80862e-05
5.19939e-05
7.60145e-05
0.000644293
0.000839137
0.000542784
0.000156624
0.000155289
0.000150643
0.000147638
0.000124085
9.38565e-05
0.00040866
0.000530786
0.000478756
0.000454212
0.000217949
1.01893e-05
6.50641e-06
4.12671e-07
6.99347e-06
8.92249e-07
0.00172927
0.001972
0.00147553
4.31298e-05
1.39303e-05
5.3496e-06
2.91006e-06
2.18714e-06
2.0101e-06
0.00124256
0.00171446
0.00162425
0.000219256
3.71225e-05
2.64326e-05
2.49882e-05
2.45082e-05
2.34319e-05
0.000220283
0.000275757
0.000269231
4.66494e-05
2.27076e-07
1.38916e-08
7.18937e-10
3.7853e-11
1.88311e-12
7.51115e-14
1.04528e-14
2.7484e-14
2.4203e-13
1.82105e-12
1.10565e-11
1.34967e-11
2.03832e-12
9.66924e-07
1.57798e-05
1.57574e-05
3.02782e-12
4.28082e-12
1.18605e-11
9.85951e-12
2.36782e-12
2.04207e-13
2.51438e-14
2.59555e-15
2.82937e-16
5.39517e-17
4.19721e-16
1.52324e-14
1.9647e-13
6.12769e-12
1.16752e-10
3.21989e-09
1.10329e-07
5.0474e-05
0.000296694
0.000248266
5.1987e-05
5.39145e-05
5.08776e-05
0.000253182
0.000790214
0.000793859
0.000563836
0.000156624
0.000155289
0.000150643
0.000282905
0.000664334
0.000616311
0.00056207
0.000350072
0.000104516
2.83165e-05
2.35647e-05
1.01532e-06
2.67488e-07
4.71434e-06
5.66852e-07
0.000785512
0.00203617
0.00212021
0.00176098
6.40804e-05
1.51933e-05
5.90449e-06
3.15763e-06
0.000741454
0.00190851
0.00176221
0.000597984
5.19765e-05
3.20387e-05
2.83534e-05
2.65531e-05
2.50089e-05
9.8472e-05
0.000288746
0.000282252
0.000162684
4.07438e-06
4.44272e-08
2.27969e-09
1.12643e-10
7.31067e-12
2.67971e-13
1.77405e-14
3.52333e-15
2.31032e-14
2.39766e-13
1.7423e-12
1.07184e-11
1.34926e-11
2.01902e-12
2.13788e-07
1.57662e-05
1.38372e-05
2.92192e-12
3.6061e-12
9.90598e-12
9.87924e-12
2.39875e-12
2.05996e-13
2.34722e-14
2.41609e-15
2.21832e-16
3.18618e-17
8.64183e-17
3.71219e-15
6.97194e-14
6.45444e-13
1.69831e-11
3.35039e-10
1.26819e-08
1.74432e-06
0.0001438
0.000259797
0.000209686
4.98812e-05
4.2165e-05
5.8955e-05
0.000578887
0.000804094
0.000820177
0.000781118
0.000404083
0.000577218
0.000761072
0.00071767
0.000669644
0.000122506
5.09554e-05
2.32115e-05
1.96675e-05
2.78012e-06
3.43314e-11
3.65698e-12
3.66564e-12
4.43811e-07
9.206e-08
0.00182242
0.0021419
0.00215896
0.00209311
0.000880152
0.000193425
0.00105548
0.00198648
0.00196084
0.00132506
0.000132455
4.96597e-05
3.88433e-05
3.21995e-05
2.83588e-05
9.02887e-05
0.000297483
0.000293115
0.000269472
3.15145e-05
8.19247e-08
4.09222e-09
1.91409e-10
9.53474e-12
3.72801e-13
4.52227e-14
1.36902e-15
2.60818e-15
2.13044e-14
2.31393e-13
1.56083e-12
9.05304e-12
1.17373e-11
2.0126e-12
1.71076e-12
1.51264e-05
1.09827e-05
2.65878e-12
2.76562e-12
8.2917e-12
9.67433e-12
1.95557e-12
2.2362e-13
2.24869e-14
2.29127e-15
2.1181e-16
2.50045e-17
6.01529e-18
3.323e-16
1.26626e-14
1.07254e-13
3.5395e-12
7.09794e-11
2.46828e-09
1.07442e-07
6.71638e-05
0.000279924
0.000299391
8.04562e-05
4.0375e-05
3.85826e-05
8.04699e-05
0.000701324
0.00081758
0.000821864
0.000817272
0.000807151
0.000786461
0.000758654
0.000139316
2.23922e-05
5.07711e-05
0.000139461
7.18699e-06
3.43314e-11
3.43314e-11
3.65183e-12
1.40319e-08
5.81718e-07
1.07565e-09
0.000319686
0.00215896
0.0021611
0.00216251
0.0021524
0.00209772
0.00209816
0.00201419
0.00148963
0.000188431
0.000104411
8.37168e-05
0.000113879
0.000104926
0.000238454
0.000309543
0.000300998
0.000288286
3.37206e-05
4.14494e-08
2.62066e-09
1.19189e-10
7.62158e-12
2.58791e-13
5.86632e-14
2.53375e-15
2.99407e-16
1.93986e-15
1.94457e-14
2.11715e-13
1.30482e-12
6.6422e-12
6.93819e-12
1.37826e-12
1.40606e-12
1.22566e-05
1.24399e-05
2.47852e-12
2.44331e-12
6.00111e-12
8.00879e-12
1.80856e-12
2.40935e-13
2.21249e-14
2.18783e-15
2.06943e-16