/*--------------------------------*- C++ -*----------------------------------*\
| =========                 |                                                 |
| \\      /  F ield         | OpenFOAM: The Open Source CFD Toolbox           |
|  \\    /   O peration     | Version:  2412                                  |
|   \\  /    A nd           | Website:  www.openfoam.com                      |
|    \\/     M anipulation  |                                                 |
\*---------------------------------------------------------------------------*/
FoamFile
{
    version     2.0;
    format      ascii;
    arch        "LSB;label=32;scalar=64";
    class       volScalarField;
    location    "1.05";
    object      p_rgh;
}
// * * * * * * * * * * * * * * * * * * * * * * * * * * * * * * * * * * * * * //

dimensions      [1 -1 -2 0 0 0 0];

internalField   nonuniform List<scalar> 
6400
(
15684.6
15684.7
15684.7
15684.7
15684.8
15684.9
15685
15685.2
15685.3
15685.5
15685.6
15685.8
15685.9
15686.1
15686.2
15686.3
15686.4
15686.5
15686.6
15686.7
15686.7
15686.7
15686.7
15686.7
15686.7
15686.7
15686.7
15686.6
15686.6
15686.5
15686.5
15686.4
15686.4
15686.3
15686.3
15686.2
15686.2
15686.2
15686.2
15686.1
15686.1
15686.2
15686.2
15686.2
15686.3
15686.4
15686.4
15686.5
15686.6
15686.7
15686.8
15686.9
15687
15687.1
15687.2
15687.2
15687.3
15687.3
15687.3
15687.3
15687.3
15687.3
15687.2
15687.1
15687
15686.9
15686.8
15686.7
15686.6
15686.5
15686.3
15686.2
15686.1
15686
15685.9
15685.9
15685.8
15685.8
15685.8
15685.7
15684.7
15684.7
15684.7
15684.8
15684.8
15684.9
15685.1
15685.2
15685.3
15685.5
15685.6
15685.8
15685.9
15686.1
15686.2
15686.3
15686.4
15686.5
15686.6
15686.7
15686.7
15686.7
15686.7
15686.7
15686.7
15686.7
15686.7
15686.6
15686.6
15686.5
15686.5
15686.4
15686.4
15686.3
15686.3
15686.2
15686.2
15686.1
15686.1
15686.1
15686.1
15686.1
15686.2
15686.2
15686.3
15686.3
15686.4
15686.5
15686.6
15686.7
15686.8
15686.9
15687
15687.1
15687.2
15687.2
15687.3
15687.3
15687.3
15687.3
15687.3
15687.3
15687.2
15687.1
15687
15686.9
15686.8
15686.7
15686.6
15686.4
15686.3
15686.2
15686.1
15686
15685.9
15685.9
15685.8
15685.8
15685.7
15685.7
15684.7
15684.7
15684.8
15684.8
15684.9
15685
15685.1
15685.2
15685.4
15685.5
15685.7
15685.9
15686
15686.1
15686.3
15686.4
15686.5
15686.6
15686.6
15686.7
15686.7
15686.7
15686.8
15686.7
15686.7
15686.7
15686.6
15686.6
15686.5
15686.5
15686.4
15686.4
15686.3
15686.2
15686.2
15686.1
15686.1
15686.1
15686
15686
15686
15686.1
15686.1
15686.1
15686.2
15686.3
15686.3
15686.4
15686.5
15686.6
15686.7
15686.8
15687
15687
15687.1
15687.2
15687.2
15687.3
15687.3
15687.3
15687.3
15687.2
15687.2
15687.1
15687
15686.9
15686.8
15686.7
15686.5
15686.4
15686.3
15686.2
15686.1
15686
15685.9
15685.8
15685.8
15685.7
15685.7
15685.7
15684.8
15684.8
15684.8
15684.9
15685
15685.1
15685.2
15685.3
15685.5
15685.6
15685.8
15685.9
15686.1
15686.2
15686.3
15686.4
15686.5
15686.6
15686.7
15686.7
15686.7
15686.8
15686.7
15686.7
15686.7
15686.7
15686.6
15686.6
15686.5
15686.4
15686.4
15686.3
15686.2
15686.2
15686.1
15686
15686
15686
15685.9
15685.9
15685.9
15686
15686
15686
15686.1
15686.2
15686.3
15686.4
15686.5
15686.6
15686.7
15686.8
15686.9
15687
15687.1
15687.1
15687.2
15687.2
15687.3
15687.3
15687.2
15687.2
15687.1
15687.1
15687
15686.9
15686.7
15686.6
15686.5
15686.4
15686.3
15686.1
15686
15685.9
15685.9
15685.8
15685.7
15685.7
15685.7
15685.7
15684.9
15684.9
15685
15685
15685.1
15685.2
15685.3
15685.5
15685.6
15685.7
15685.9
15686
15686.2
15686.3
15686.4
15686.5
15686.6
15686.7
15686.7
15686.7
15686.8
15686.8
15686.7
15686.7
15686.7
15686.6
15686.6
15686.5
15686.4
15686.3
15686.3
15686.2
15686.1
15686.1
15686
15685.9
15685.9
15685.8
15685.8
15685.8
15685.8
15685.8
15685.9
15685.9
15686
15686.1
15686.1
15686.2
15686.4
15686.5
15686.6
15686.7
15686.8
15686.9
15687
15687.1
15687.1
15687.2
15687.2
15687.2
15687.2
15687.1
15687.1
15687
15686.9
15686.8
15686.7
15686.6
15686.5
15686.3
15686.2
15686.1
15686
15685.9
15685.8
15685.8
15685.7
15685.7
15685.6
15685.6
15685
15685.1
15685.1
15685.2
15685.3
15685.4
15685.5
15685.6
15685.7
15685.9
15686
15686.1
15686.3
15686.4
15686.5
15686.6
15686.6
15686.7
15686.7
15686.8
15686.8
15686.7
15686.7
15686.7
15686.6
15686.6
15686.5
15686.4
15686.3
15686.3
15686.2
15686.1
15686
15685.9
15685.9
15685.8
15685.8
15685.7
15685.7
15685.7
15685.7
15685.7
15685.7
15685.8
15685.9
15685.9
15686
15686.1
15686.2
15686.4
15686.5
15686.6
15686.7
15686.8
15686.9
15687
15687
15687.1
15687.1
15687.1
15687.1
15687
15687
15686.9
15686.8
15686.7
15686.6
15686.5
15686.4
15686.3
15686.2
15686.1
15686
15685.9
15685.8
15685.7
15685.7
15685.6
15685.6
15685.6
15685.2
15685.2
15685.3
15685.3
15685.4
15685.5
15685.6
15685.8
15685.9
15686
15686.1
15686.3
15686.4
15686.5
15686.6
15686.6
15686.7
15686.7
15686.8
15686.8
15686.8
15686.7
15686.7
15686.6
15686.6
15686.5
15686.4
15686.3
15686.2
15686.2
15686.1
15686
15685.9
15685.8
15685.7
15685.7
15685.6
15685.6
15685.6
15685.5
15685.5
15685.6
15685.6
15685.7
15685.7
15685.8
15685.9
15686
15686.1
15686.2
15686.3
15686.5
15686.6
15686.7
15686.8
15686.9
15686.9
15687
15687
15687
15687
15687
15686.9
15686.8
15686.8
15686.7
15686.6
15686.4
15686.3
15686.2
15686.1
15686
15685.9
15685.8
15685.8
15685.7
15685.6
15685.6
15685.6
15685.6
15685.4
15685.4
15685.5
15685.5
15685.6
15685.7
15685.8
15685.9
15686
15686.2
15686.3
15686.4
15686.5
15686.6
15686.7
15686.7
15686.8
15686.8
15686.8
15686.8
15686.8
15686.7
15686.7
15686.6
15686.5
15686.4
15686.3
15686.2
15686.2
15686.1
15686
15685.9
15685.8
15685.7
15685.6
15685.5
15685.5
15685.5
15685.4
15685.4
15685.4
15685.4
15685.5
15685.5
15685.6
15685.7
15685.8
15685.9
15686
15686.1
15686.2
15686.3
15686.4
15686.6
15686.6
15686.7
15686.8
15686.8
15686.9
15686.9
15686.9
15686.8
15686.8
15686.7
15686.7
15686.6
15686.5
15686.4
15686.3
15686.2
15686.1
15686
15685.9
15685.8
15685.7
15685.7
15685.6
15685.6
15685.6
15685.6
15685.6
15685.6
15685.6
15685.7
15685.8
15685.9
15686
15686.1
15686.2
15686.3
15686.4
15686.5
15686.6
15686.7
15686.7
15686.8
15686.8
15686.8
15686.8
15686.8
15686.7
15686.7
15686.6
15686.5
15686.5
15686.4
15686.3
15686.2
15686.1
15686
15685.9
15685.8
15685.7
15685.6
15685.5
15685.4
15685.4
15685.3
15685.3
15685.3
15685.3
15685.3
15685.3
15685.4
15685.5
15685.5
15685.6
15685.7
15685.9
15686
15686.1
15686.2
15686.3
15686.4
15686.5
15686.6
15686.7
15686.7
15686.8
15686.8
15686.8
15686.7
15686.7
15686.6
15686.6
15686.5
15686.4
15686.3
15686.2
15686.1
15686
15685.9
15685.8
15685.8
15685.7
15685.7
15685.6
15685.6
15685.6
15685.6
15685.8
15685.8
15685.8
15685.9
15685.9
15686
15686.1
15686.2
15686.3
15686.4
15686.5
15686.6
15686.7
15686.7
15686.8
15686.8
15686.8
15686.8
15686.8
15686.8
15686.7
15686.7
15686.6
15686.5
15686.4
15686.3
15686.2
15686.1
15686
15685.9
15685.8
15685.7
15685.6
15685.5
15685.4
15685.3
15685.3
15685.2
15685.2
15685.2
15685.2
15685.2
15685.2
15685.3
15685.4
15685.4
15685.5
15685.6
15685.7
15685.9
15686
15686.1
15686.2
15686.3
15686.4
15686.5
15686.5
15686.6
15686.6
15686.6
15686.6
15686.6
15686.6
15686.5
15686.5
15686.4
15686.3
15686.2
15686.2
15686.1
15686
15685.9
15685.8
15685.8
15685.7
15685.7
15685.6
15685.6
15685.6
15685.6
15685.9
15685.9
15686
15686
15686.1
15686.2
15686.3
15686.4
15686.4
15686.5
15686.6
15686.7
15686.7
15686.8
15686.8
15686.8
15686.8
15686.8
15686.8
15686.7
15686.7
15686.6
15686.5
15686.4
15686.3
15686.2
15686.1
15686
15685.9
15685.8
15685.7
15685.6
15685.5
15685.4
15685.3
15685.3
15685.2
15685.2
15685.1
15685.1
15685.1
15685.1
15685.2
15685.2
15685.3
15685.4
15685.4
15685.5
15685.6
15685.8
15685.9
15686
15686.1
15686.2
15686.3
15686.4
15686.4
15686.5
15686.5
15686.5
15686.5
15686.5
15686.5
15686.5
15686.4
15686.3
15686.3
15686.2
15686.1
15686
15685.9
15685.9
15685.8
15685.7
15685.7
15685.7
15685.6
15685.6
15685.6
15685.6
15686.1
15686.1
15686.1
15686.2
15686.2
15686.3
15686.4
15686.5
15686.5
15686.6
15686.7
15686.7
15686.8
15686.8
15686.8
15686.9
15686.8
15686.8
15686.8
15686.7
15686.7
15686.6
15686.5
15686.4
15686.3
15686.2
15686.1
15686
15685.9
15685.7
15685.6
15685.5
15685.4
15685.4
15685.3
15685.2
15685.2
15685.1
15685.1
15685.1
15685.1
15685.1
15685.1
15685.2
15685.2
15685.3
15685.4
15685.5
15685.6
15685.7
15685.8
15685.9
15686
15686.1
15686.2
15686.3
15686.3
15686.4
15686.4
15686.4
15686.4
15686.4
15686.4
15686.4
15686.3
15686.3
15686.2
15686.1
15686.1
15686
15685.9
15685.9
15685.8
15685.8
15685.7
15685.7
15685.7
15685.6
15685.6
15685.6
15686.2
15686.2
15686.2
15686.3
15686.3
15686.4
15686.5
15686.5
15686.6
15686.7
15686.7
15686.8
15686.8
15686.8
15686.8
15686.8
15686.8
15686.8
15686.7
15686.7
15686.6
15686.5
15686.4
15686.3
15686.2
15686.1
15686
15685.9
15685.8
15685.7
15685.6
15685.5
15685.4
15685.4
15685.3
15685.2
15685.2
15685.1
15685.1
15685.1
15685.1
15685.1
15685.1
15685.2
15685.2
15685.3
15685.4
15685.5
15685.5
15685.6
15685.7
15685.8
15685.9
15686
15686.1
15686.2
15686.2
15686.3
15686.3
15686.3
15686.4
15686.3
15686.3
15686.3
15686.3
15686.2
15686.2
15686.1
15686
15686
15685.9
15685.9
15685.8
15685.8
15685.7
15685.7
15685.7
15685.7
15685.7
15685.7
15686.3
15686.3
15686.3
15686.4
15686.4
15686.5
15686.5
15686.6
15686.6
15686.7
15686.7
15686.8
15686.8
15686.8
15686.8
15686.8
15686.8
15686.7
15686.7
15686.6
15686.6
15686.5
15686.4
15686.3
15686.2
15686.1
15686
15685.9
15685.8
15685.7
15685.6
15685.5
15685.4
15685.4
15685.3
15685.2
15685.2
15685.2
15685.1
15685.1
15685.1
15685.1
15685.2
15685.2
15685.3
15685.3
15685.4
15685.5
15685.5
15685.6
15685.7
15685.8
15685.9
15686
15686
15686.1
15686.2
15686.2
15686.3
15686.3
15686.3
15686.3
15686.3
15686.2
15686.2
15686.2
15686.1
15686.1
15686
15686
15685.9
15685.9
15685.8
15685.8
15685.8
15685.7
15685.7
15685.7
15685.7
15685.7
15686.3
15686.4
15686.4
15686.4
15686.5
15686.5
15686.5
15686.6
15686.6
15686.7
15686.7
15686.7
15686.8
15686.8
15686.8
15686.7
15686.7
15686.7
15686.6
15686.6
15686.5
15686.4
15686.4
15686.3
15686.2
15686.1
15686
15685.9
15685.8
15685.7
15685.7
15685.6
15685.5
15685.4
15685.4
15685.3
15685.3
15685.2
15685.2
15685.2
15685.2
15685.2
15685.2
15685.3
15685.3
15685.4
15685.4
15685.5
15685.6
15685.6
15685.7
15685.8
15685.9
15686
15686
15686.1
15686.1
15686.2
15686.2
15686.2
15686.2
15686.2
15686.2
15686.2
15686.2
15686.1
15686.1
15686.1
15686
15686
15685.9
15685.9
15685.9
15685.8
15685.8
15685.8
15685.8
15685.8
15685.8
15685.8
15686.4
15686.4
15686.4
15686.4
15686.5
15686.5
15686.5
15686.6
15686.6
15686.6
15686.7
15686.7
15686.7
15686.7
15686.7
15686.7
15686.6
15686.6
15686.6
15686.5
15686.5
15686.4
15686.3
15686.2
15686.2
15686.1
15686
15685.9
15685.9
15685.8
15685.7
15685.6
15685.6
15685.5
15685.5
15685.4
15685.4
15685.4
15685.3
15685.3
15685.3
15685.3
15685.4
15685.4
15685.4
15685.5
15685.5
15685.6
15685.6
15685.7
15685.8
15685.8
15685.9
15686
15686
15686.1
15686.1
15686.1
15686.2
15686.2
15686.2
15686.2
15686.2
15686.2
15686.2
15686.1
15686.1
15686.1
15686
15686
15686
15685.9
15685.9
15685.9
15685.9
15685.9
15685.9
15685.9
15685.8
15685.8
15686.4
15686.4
15686.4
15686.4
15686.4
15686.5
15686.5
15686.5
15686.5
15686.6
15686.6
15686.6
15686.6
15686.6
15686.6
15686.6
15686.6
15686.5
15686.5
15686.4
15686.4
15686.3
15686.3
15686.2
15686.2
15686.1
15686
15686
15685.9
15685.9
15685.8
15685.7
15685.7
15685.6
15685.6
15685.6
15685.5
15685.5
15685.5
15685.5
15685.5
15685.5
15685.5
15685.5
15685.6
15685.6
15685.6
15685.7
15685.7
15685.8
15685.8
15685.9
15685.9
15686
15686
15686.1
15686.1
15686.1
15686.1
15686.2
15686.2
15686.2
15686.2
15686.2
15686.1
15686.1
15686.1
15686.1
15686.1
15686
15686
15686
15686
15686
15685.9
15685.9
15685.9
15685.9
15685.9
15685.9
15686.3
15686.3
15686.3
15686.4
15686.4
15686.4
15686.4
15686.4
15686.5
15686.5
15686.5
15686.5
15686.5
15686.5
15686.5
15686.5
15686.5
15686.4
15686.4
15686.4
15686.3
15686.3
15686.3
15686.2
15686.2
15686.1
15686.1
15686
15686
15685.9
15685.9
15685.9
15685.8
15685.8
15685.8
15685.7
15685.7
15685.7
15685.7
15685.7
15685.7
15685.7
15685.7
15685.7
15685.7
15685.8
15685.8
15685.8
15685.9
15685.9
15685.9
15686
15686
15686
15686.1
15686.1
15686.1
15686.1
15686.1
15686.2
15686.2
15686.2
15686.2
15686.2
15686.2
15686.1
15686.1
15686.1
15686.1
15686.1
15686.1
15686.1
15686
15686
15686
15686
15686
15686
15686
15686
15686.3
15686.3
15686.3
15686.3
15686.3
15686.3
15686.3
15686.3
15686.3
15686.4
15686.4
15686.4
15686.4
15686.4
15686.4
15686.3
15686.3
15686.3
15686.3
15686.3
15686.3
15686.2
15686.2
15686.2
15686.2
15686.2
15686.1
15686.1
15686.1
15686.1
15686
15686
15686
15686
15686
15685.9
15685.9
15685.9
15685.9
15685.9
15685.9
15685.9
15685.9
15685.9
15685.9
15686
15686
15686
15686
15686
15686
15686.1
15686.1
15686.1
15686.1
15686.1
15686.1
15686.2
15686.2
15686.2
15686.2
15686.2
15686.2
15686.2
15686.2
15686.2
15686.2
15686.1
15686.1
15686.1
15686.1
15686.1
15686.1
15686.1
15686.1
15686.1
15686.1
15686.1
15686.1
15686.1
15686.2
15686.2
15686.2
15686.2
15686.2
15686.2
15686.2
15686.2
15686.2
15686.2
15686.2
15686.2
15686.2
15686.2
15686.2
15686.2
15686.2
15686.2
15686.2
15686.2
15686.2
15686.2
15686.2
15686.2
15686.2
15686.2
15686.2
15686.2
15686.1
15686.1
15686.1
15686.1
15686.1
15686.1
15686.1
15686.1
15686.1
15686.1
15686.1
15686.1
15686.1
15686.1
15686.1
15686.1
15686.1
15686.1
15686.1
15686.1
15686.1
15686.1
15686.1
15686.1
15686.1
15686.1
15686.2
15686.2
15686.2
15686.2
15686.2
15686.2
15686.2
15686.2
15686.2
15686.2
15686.2
15686.2
15686.2
15686.2
15686.2
15686.2
15686.2
15686.2
15686.2
15686.2
15686.2
15686.2
15686.2
15686.2
15686.1
15686.2
0.0564207
0.0627077
0.0589066
0.0566356
0.054794
0.0528099
0.0508504
0.0489741
0.0469668
0.0447422
0.04228
0.0398166
0.0378792
0.0367688
0.035884
0.0347169
0.0337049
0.0324828
0.0310773
0.0294822
0.0280333
0.0266148
0.02543
0.0244549
0.0238697
0.0245982
0.0252668
0.0258902
0.0263857
0.0266556
0.0267787
0.0268639
0.0267946
0.026607
0.0261419
0.0253766
0.0243412
0.0233208
0.0221428
0.0217762
0.0212877
0.0207308
0.0204452
0.0205131
0.0204985
0.0203564
0.0204692
0.0204508
0.0203186
0.0201531
0.019847
0.0196273
0.019301
0.0191076
0.0188468
0.0185131
0.0181265
0.0176086
0.0170419
0.0166752
0.0162512
0.0157678
0.01521
0.0144965
0.0137258
0.0136716
0.0148773
0.0159741
0.0170161
0.0178559
0.0184304
0.0188633
0.0190843
0.0192626
0.0196572
0.020161
0.0200201
0.0197026
0.0195032
0.0132474
0.00455993
0.00456375
0.00457441
0.00459045
0.00461218
0.00463951
0.00467232
0.00471052
0.00475398
0.00480243
0.00485546
0.00491245
0.00497296
0.00503712
0.00510501
0.00517606
0.00524986
0.00532616
0.00540442
0.00548412
0.00556505
0.00564683
0.00572896
0.00581099
0.00589234
0.00597411
0.00605757
0.00614117
0.00622403
0.00630503
0.0063831
0.00645754
0.00652758
0.00659234
0.00665081
0.00670186
0.00674453
0.0067784
0.00680339
0.00681992
0.00682821
0.00682816
0.00682015
0.00680443
0.00678138
0.00675188
0.00671644
0.00667554
0.0066303
0.00658161
0.00653051
0.00647774
0.00642395
0.00636967
0.00631505
0.00626054
0.00620664
0.00615396
0.00610333
0.00605509
0.00600848
0.00596412
0.0059225
0.00588443
0.00585096
0.00582074
0.00579031
0.00575854
0.00572723
0.00569733
0.00566955
0.00564408
0.00562108
0.00560077
0.00558296
0.0055674
0.00555455
0.00554489
0.00553835
0.005536
0.00457172
0.00457553
0.00458564
0.00460154
0.00462309
0.00465013
0.00468247
0.00471997
0.0047624
0.00480957
0.00486125
0.00491718
0.0049771
0.00504065
0.00510754
0.00517747
0.00525016
0.00532534
0.00540269
0.0054818
0.00556225
0.00564377
0.00572612
0.0058091
0.00589269
0.00597656
0.00606048
0.00614394
0.00622617
0.00630641
0.00638387
0.00645775
0.00652723
0.00659144
0.00664953
0.00670073
0.00674433
0.00677981
0.00680675
0.00682476
0.00683378
0.00683401
0.00682577
0.00680952
0.00678586
0.0067555
0.00671923
0.0066779
0.0066324
0.00658361
0.00653239
0.00647951
0.0064256
0.00637117
0.00631672
0.00626282
0.00620997
0.00615838
0.0061084
0.00605988
0.00601358
0.00596956
0.00592791
0.00588873
0.00585205
0.00581778
0.00578514
0.00575373
0.00572369
0.00569524
0.00566864
0.0056442
0.00562202
0.00560218
0.00558476
0.00556985
0.00555759
0.00554815
0.00554165
0.00553796
0.00456809
0.00457296
0.00458376
0.00460009
0.00462187
0.00464902
0.00468141
0.00471885
0.00476115
0.00480808
0.00485942
0.00491495
0.00497443
0.00503758
0.00510414
0.00517388
0.00524652
0.00532181
0.00539948
0.0054792
0.0055607
0.0056437
0.00572795
0.00581317
0.00589891
0.00598528
0.00607154
0.00615728
0.00624178
0.00632426
0.00640385
0.00647971
0.00655096
0.00661674
0.00667622
0.00672861
0.00677322
0.00680945
0.00683681
0.00685501
0.00686399
0.00686386
0.00685495
0.00683769
0.00681268
0.00678068
0.00674248
0.00669897
0.00665109
0.00659978
0.00654592
0.00649035
0.00643379
0.00637687
0.00632012
0.00626405
0.00620908
0.00615582
0.00610454
0.00605532
0.00600835
0.0059637
0.00592147
0.00588171
0.00584443
0.00580952
0.00577651
0.00574509
0.00571531
0.00568733
0.00566132
0.00563747
0.00561587
0.00559661
0.00557976
0.0055654
0.00555363
0.00554456
0.00553825
0.00553462
0.00456561
0.00457038
0.00458107
0.00459727
0.00461885
0.00464572
0.00467775
0.00471477
0.0047566
0.00480304
0.0048539
0.00490898
0.00496805
0.00503092
0.00509735
0.00516715
0.00524009
0.00531597
0.00539455
0.00547558
0.00555882
0.00564401
0.00573086
0.00581906
0.00590826
0.00599824
0.00608835
0.00617799
0.00626645
0.0063529
0.00643646
0.00651618
0.00659113
0.00666036
0.00672295
0.00677805
0.00682488
0.0068628
0.00689129
0.00691004
0.00691893
0.00691806
0.00690773
0.0068884
0.00686072
0.00682549
0.00678359
0.00673601
0.00668377
0.00662792
0.00656944
0.00650927
0.00644825
0.00638712
0.00632652
0.006267
0.00620905
0.00615304
0.00609925
0.00604792
0.00599918
0.00595307
0.00590963
0.00586887
0.00583071
0.00579503
0.00576157
0.00573015
0.00570072
0.00567332
0.00564803
0.00562494
0.00560411
0.00558561
0.00556948
0.00555579
0.00554459
0.00553595
0.00552989
0.00552636
0.0045605
0.00456522
0.00457575
0.0045917
0.00461294
0.00463938
0.0046709
0.00470735
0.00474858
0.00479443
0.00484473
0.00489933
0.00495805
0.00502073
0.00508722
0.00515736
0.00523099
0.00530795
0.00538806
0.00547113
0.00555693
0.00564524
0.00573577
0.00582818
0.0059221
0.00601711
0.00611259
0.00620785
0.0063021
0.00639443
0.00648386
0.00656936
0.00664986
0.00672428
0.00679161
0.00685085
0.00690113
0.0069417
0.00697199
0.00699161
0.00700041
0.00699844
0.00698601
0.00696362
0.00693197
0.00689196
0.00684459
0.00679098
0.0067323
0.00666975
0.00660448
0.00653759
0.00647005
0.00640275
0.00633643
0.00627172
0.00620912
0.00614904
0.00609172
0.00603737
0.00598607
0.00593787
0.00589273
0.00585062
0.00581141
0.00577497
0.00574111
0.00570967
0.00568056
0.00565374
0.0056292
0.00560696
0.00558702
0.00556941
0.00555413
0.0055412
0.00553065
0.00552249
0.00551672
0.0055133
0.0045526
0.00455729
0.00456762
0.00458323
0.00460402
0.00462991
0.00466079
0.00469655
0.00473708
0.00478225
0.00483195
0.00488607
0.0049445
0.00500714
0.0050739
0.0051447
0.00521943
0.005298
0.00538029
0.00546615
0.00555541
0.00564785
0.00574319
0.00584109
0.00594112
0.00604275
0.00614533
0.00624807
0.00635008
0.00645033
0.00654772
0.00664107
0.00672914
0.0068107
0.00688455
0.00694954
0.00700465
0.00704898
0.00708185
0.00710279
0.00711156
0.00710822
0.00709304
0.0070666
0.00702967
0.00698326
0.00692853
0.0068668
0.00679943
0.00672783
0.00665337
0.00657737
0.00650101
0.00642533
0.00635122
0.00627942
0.00621049
0.0061448
0.00608266
0.00602421
0.0059695
0.0059185
0.00587114
0.0058273
0.00578682
0.00574953
0.00571523
0.00568375
0.00565494
0.0056287
0.00560495
0.00558363
0.00556467
0.00554805
0.00553371
0.00552164
0.0055118
0.00550417
0.00549872
0.00549541
0.00454176
0.00454642
0.0045565
0.00457171
0.00459197
0.0046172
0.00464735
0.00468233
0.00472207
0.00476651
0.00481559
0.00486927
0.00492751
0.00499029
0.00505758
0.00512938
0.00520567
0.00528642
0.00537159
0.00546107
0.00555474
0.00565242
0.00575382
0.0058586
0.00596629
0.00607628
0.00618785
0.0063001
0.00641201
0.00652242
0.00663004
0.0067335
0.00683137
0.00692219
0.00700455
0.00707709
0.00713856
0.00718792
0.0072243
0.00724712
0.00725607
0.00725114
0.00723264
0.00720116
0.00715762
0.00710314
0.00703909
0.00696701
0.00688852
0.00680531
0.00671903
0.00663126
0.00654346
0.00645689
0.00637264
0.00629156
0.00621433
0.00614136
0.00607293
0.00600915
0.00595003
0.00589546
0.00584528
0.00579928
0.00575725
0.00571895
0.00568412
0.00565254
0.00562401
0.00559835
0.00557541
0.00555504
0.00553713
0.00552156
0.00550824
0.00549708
0.005488
0.00548094
0.00547584
0.00547263
0.00452778
0.00453242
0.00454221
0.00455696
0.00457661
0.00460112
0.00463045
0.00466459
0.0047035
0.0047472
0.0047957
0.00484901
0.0049072
0.00497032
0.00503845
0.00511165
0.00519
0.00527356
0.00536235
0.00545634
0.00555547
0.00565957
0.00576841
0.0058816
0.00599865
0.00611889
0.00624151
0.00636548
0.00648964
0.00661262
0.00673294
0.006849
0.0069591
0.00706152
0.00715456
0.0072366
0.00730616
0.00736193
0.00740289
0.00742828
0.0074377
0.00743108
0.00740873
0.00737132
0.00731984
0.00725562
0.00718024
0.0070955
0.00700334
0.00690577
0.0068048
0.00670234
0.00660019
0.00649991
0.00640283
0.00631001
0.00622223
0.00613999
0.00606358
0.00599307
0.00592838
0.00586932
0.00581562
0.00576697
0.00572303
0.00568347
0.00564796
0.0056162
0.00558789
0.00556279
0.00554066
0.00552127
0.00550444
0.00548997
0.0054777
0.00546749
0.0054592
0.00545273
0.00544798
0.00544488
0.00451046
0.00451506
0.00452455
0.00453879
0.00455778
0.00458151
0.00460999
0.00464324
0.00468132
0.0047243
0.00477227
0.00482534
0.00488366
0.00494738
0.00501668
0.00509173
0.00517269
0.00525973
0.00535295
0.00545242
0.00555812
0.00566996
0.0057877
0.00591097
0.00603922
0.00617179
0.00630768
0.00644577
0.00658468
0.00672285
0.00685854
0.00698985
0.00711478
0.00723128
0.00733732
0.00743096
0.00751041
0.00757411
0.00762079
0.00764953
0.0076598
0.00765146
0.00762483
0.00758063
0.00751998
0.0074444
0.00735572
0.00725602
0.0071476
0.00703285
0.00691418
0.00679393
0.00667429
0.00655719
0.0064443
0.00633692
0.00623604
0.00614226
0.00605589
0.00597698
0.00590537
0.00584075
0.0057827
0.00573077
0.00568448
0.00564336
0.00560696
0.00557488
0.00554672
0.00552213
0.00550078
0.00548237
0.00546662
0.00545327
0.00544207
0.00543283
0.00542535
0.00541947
0.00541508
0.00541207
0.00448957
0.00449412
0.00450327
0.00451699
0.00453529
0.00455821
0.00458581
0.00461819
0.00465546
0.00469777
0.00474531
0.00479829
0.00485695
0.00492157
0.00499242
0.00506979
0.00515397
0.00524522
0.00534374
0.00544972
0.0055632
0.00568414
0.00581238
0.00594752
0.00608901
0.00623605
0.00638759
0.00654232
0.00669865
0.00685476
0.0070086
0.00715793
0.00730037
0.00743349
0.00755489
0.00766223
0.0077534
0.00782652
0.00788007
0.00791293
0.00792444
0.00791441
0.00788314
0.00783142
0.00776051
0.00767211
0.0075683
0.0074515
0.00732436
0.00718969
0.00705034
0.00690914
0.00676875
0.00663155
0.00649962
0.00637462
0.00625779
0.00614988
0.00605129
0.00596206
0.00588194
0.00581047
0.00574707
0.00569111
0.00564192
0.00559886
0.00556131
0.00552873
0.00550059
0.00547644
0.00545582
0.00543836
0.00542368
0.00541143
0.00540131
0.00539303
0.00538635
0.00538107
0.00537703
0.0053741
0.00446487
0.00446936
0.00447817
0.00449134
0.00450894
0.00453104
0.00455778
0.0045893
0.0046258
0.00466754
0.00471478
0.00476786
0.00482712
0.00489295
0.00496577
0.00504598
0.005134
0.00523022
0.00533497
0.00544852
0.00557105
0.00570257
0.00584295
0.00599185
0.00614866
0.00631246
0.00648212
0.00665612
0.00683261
0.00700945
0.00718423
0.00735431
0.00751688
0.00766908
0.00780805
0.00793106
0.00803558
0.00811945
0.00818085
0.00821849
0.00823157
0.00821983
0.00818361
0.00812375
0.00804166
0.00793924
0.00781881
0.0076831
0.00753513
0.00737811
0.00721539
0.00705028
0.00688599
0.00672543
0.00657118
0.00642533
0.00628947
0.00616462
0.00605129
0.00594954
0.00585906
0.00577925
0.00570933
0.00564844
0.00559568
0.0055502
0.00551117
0.00547786
0.00544959
0.00542576
0.00540581
0.00538925
0.00537559
0.00536442
0.00535535
0.00534801
0.00534212
0.00533743
0.00533373
0.00533088
0.00443613
0.00444055
0.004449
0.00446162
0.00447852
0.00449982
0.00452571
0.00455643
0.00459225
0.00463352
0.00468063
0.004734
0.00479413
0.00486153
0.00493675
0.00502033
0.00511285
0.00521482
0.00532674
0.00544899
0.00558185
0.00572545
0.0058797
0.00604426
0.00621849
0.00640139
0.00659165
0.00678751
0.00698682
0.00718708
0.00738544
0.00757879
0.00776386
0.00793726
0.00809567
0.0082359
0.00835504
0.00845058
0.00852047
0.00856321
0.00857794
0.00856437
0.00852286
0.00845436
0.00836043
0.00824315
0.00810508
0.00794921
0.00777889
0.00759774
0.00740953
0.00721809
0.00702718
0.00684032
0.00666065
0.00649083
0.00633282
0.00618806
0.00605728
0.00594062
0.00583773
0.00574788
0.00567007
0.00560319
0.00554607
0.00549758
0.00545666
0.00542234
0.00539375
0.00537011
0.00535074
0.005335
0.00532232
0.00531218
0.00530411
0.0052977
0.00529257
0.00528843
0.00528506
0.00528228
0.0044031
0.00440744
0.00441554
0.00442762
0.00444383
0.00446436
0.00448946
0.00451944
0.00455467
0.00459561
0.00464275
0.00469665
0.00475792
0.00482724
0.00490528
0.00499278
0.00509044
0.00519896
0.00531898
0.00545104
0.00559554
0.0057527
0.00592251
0.00610463
0.00629836
0.00650259
0.00671579
0.00693593
0.00716049
0.00738652
0.00761071
0.00782941
0.00803879
0.00823494
0.00841402
0.00857239
0.00870674
0.00881425
0.00889266
0.00894036
0.00895642
0.00894061
0.00889337
0.0088158
0.00870961
0.00857706
0.00842093
0.00824443
0.00805116
0.00784502
0.00763017
0.0074109
0.00719149
0.00697607
0.00676841
0.0065718
0.0063888
0.00622129
0.00607035
0.00593629
0.0058188
0.00571704
0.00562983
0.00555576
0.00549337
0.0054412
0.0053979
0.00536222
0.00533307
0.00530947
0.00529055
0.00527555
0.00526378
0.00525462
0.00524752
0.00524198
0.00523758
0.00523398
0.00523092
0.00522822
0.00436557
0.00436983
0.00437758
0.00438913
0.00440469
0.00442448
0.00444884
0.00447816
0.00451292
0.00455366
0.004601
0.00465564
0.00471834
0.00478991
0.00487121
0.00496313
0.00506657
0.00518239
0.0053114
0.00545433
0.00561171
0.00578386
0.00597082
0.00617226
0.00638739
0.00661496
0.00685314
0.00709959
0.00735136
0.007605
0.00785661
0.00810199
0.00833671
0.0085563
0.00875639
0.00893289
0.00908215
0.00920108
0.00928727
0.00933907
0.0093556
0.00933675
0.00928312
0.00919603
0.00907737
0.00892962
0.0087557
0.00855899
0.00834322
0.00811248
0.00787116
0.00762387
0.00737534
0.00713025
0.00689301
0.00666762
0.00645733
0.0062646
0.00609099
0.00593713
0.00580283
0.00568725
0.00558901
0.00550646
0.00543778
0.00538117
0.00533494
0.00529752
0.00526754
0.00524379
0.0052252
0.00521084
0.00519991
0.00519167
0.00518548
0.00518077
0.00517707
0.00517399
0.00517122
0.00516858
0.00432334
0.0043275
0.00433491
0.00434596
0.00436089
0.00438
0.00440369
0.00443244
0.00446682
0.00450749
0.00455521
0.0046108
0.00467517
0.00474931
0.00483424
0.00493105
0.00504082
0.00516462
0.00530345
0.00545821
0.00562958
0.00581798
0.0060235
0.00624576
0.00648387
0.00673634
0.00700108
0.00727528
0.00755552
0.00783775
0.00811748
0.00838988
0.0086499
0.00889251
0.00911284
0.00930641
0.00946925
0.00959809
0.00969045
0.00974474
0.00976023
0.00973704
0.00967607
0.00957889
0.00944769
0.00928515
0.00909435
0.00887875
0.00864211
0.00838852
0.00812242
0.00784854
0.00757189
0.00729757
0.0070306
0.00677563
0.00653671
0.00631703
0.00611877
0.00594304
0.00578994
0.00565869
0.00554782
0.00545544
0.00537941
0.00531756
0.00526779
0.00522821
0.0051971
0.00517298
0.00515458
0.00514077
0.0051306
0.00512322
0.00511789
0.00511398
0.00511094
0.00510835
0.00510587
0.00510329
0.00427622
0.00428029
0.00428737
0.00429794
0.00431228
0.00433075
0.00435384
0.00438209
0.0044162
0.00445692
0.00450516
0.00456187
0.00462812
0.00470508
0.00479396
0.00489604
0.00501261
0.00514496
0.00529429
0.00546167
0.00564793
0.00585359
0.00607874
0.00632293
0.00658512
0.00686352
0.0071556
0.00745815
0.00776714
0.0080779
0.0083853
0.00868386
0.00896794
0.00923198
0.00947067
0.00967917
0.0098533
0.00998967
0.0100858
0.0101403
0.0101527
0.0101234
0.0100537
0.00994567
0.0098018
0.00962507
0.00941874
0.00918627
0.00893137
0.00865798
0.00837031
0.008073
0.00777105
0.00746977
0.00717466
0.00689087
0.00662334
0.00637609
0.00615207
0.00595305
0.00577956
0.00563107
0.00550612
0.00540265
0.00531823
0.00525031
0.0051964
0.0051542
0.00512165
0.00509697
0.00507861
0.00506525
0.00505577
0.00504919
0.00504468
0.00504152
0.00503912
0.005037
0.0050348
0.00503229
0.00422407
0.00422803
0.0042348
0.00424491
0.0042587
0.00427658
0.00429911
0.00432694
0.00436085
0.00440173
0.00445058
0.00450853
0.00457682
0.00465678
0.00474982
0.00485744
0.00498115
0.00512246
0.00528276
0.00546331
0.00566507
0.00588862
0.00613402
0.0064007
0.00668737
0.00699189
0.00731123
0.00764165
0.00797852
0.00831653
0.00864987
0.00897248
0.0092782
0.00956102
0.00981526
0.0100358
0.0102184
0.0103594
0.0104566
0.0105087
0.0105155
0.010478
0.0103979
0.0102779
0.0101209
0.00993046
0.00970994
0.0094629
0.00919292
0.00890361
0.0085988
0.00828269
0.00795999
0.00763589
0.00731601
0.00700609
0.00671166
0.00643765
0.00618793
0.00596508
0.00577032
0.00560349
0.00546334
0.00534772
0.00525399
0.00517925
0.00512061
0.00507537
0.00504109
0.00501563
0.00499717
0.00498417
0.00497531
0.00496949
0.00496577
0.00496334
0.00496155
0.00495988
0.00495796
0.00495553
0.00416677
0.00417062
0.00417708
0.00418675
0.00420002
0.00421735
0.00423937
0.00426683
0.00430058
0.00434166
0.00439119
0.00445044
0.00452083
0.00460386
0.00470117
0.00481446
0.00494546
0.0050959
0.00526739
0.00546133
0.0056788
0.00592038
0.00618607
0.00647508
0.00678579
0.00711563
0.00746105
0.00781767
0.00818027
0.00854291
0.00889925
0.00924273
0.00956678
0.0098651
0.0101318
0.0103615
0.0105497
0.0106929
0.0107887
0.0108359
0.0108348
0.0107868
0.0106943
0.0105607
0.0103897
0.0101853
0.00995144
0.00969174
0.00940967
0.00910852
0.00879152
0.00846216
0.0081245
0.00778326
0.00744387
0.00711219
0.00679429
0.00649592
0.00622195
0.00597593
0.00575991
0.00557436
0.00541837
0.00528991
0.00518618
0.00510402
0.00504017
0.00499152
0.00495523
0.00492882
0.00491015
0.00489744
0.00488916
0.00488407
0.0048811
0.00487938
0.0048782
0.00487699
0.00487534
0.004873
0.00410424
0.00410797
0.00411413
0.00412338
0.00413614
0.00415294
0.00417448
0.00420157
0.00423519
0.00427647