/*--------------------------------*- C++ -*----------------------------------*\
| =========                 |                                                 |
| \\      /  F ield         | OpenFOAM: The Open Source CFD Toolbox           |
|  \\    /   O peration     | Version:  2412                                  |
|   \\  /    A nd           | Website:  www.openfoam.com                      |
|    \\/     M anipulation  |                                                 |
\*---------------------------------------------------------------------------*/
FoamFile
{
    version     2.0;
    format      ascii;
    arch        "LSB;label=32;scalar=64";
    class       volScalarField;
    location    "3.95";
    object      p_rgh;
}
// * * * * * * * * * * * * * * * * * * * * * * * * * * * * * * * * * * * * * //

dimensions      [1 -1 -2 0 0 0 0];

internalField   nonuniform List<scalar> 
6400
(
7281.73
7282.04
7282.58
7283.34
7284.31
7285.46
7286.78
7288.24
7289.82
7291.5
7293.26
7295.08
7296.94
7298.83
7300.76
7302.72
7304.72
7306.76
7308.87
7311.05
7313.32
7315.66
7318.1
7320.61
7323.18
7325.79
7328.43
7331.06
7333.65
7336.16
7338.57
7340.83
7342.92
7344.8
7346.45
7347.83
7348.94
7349.74
7350.24
7350.42
7350.27
7349.8
7349.02
7347.94
7346.56
7344.9
7343
7340.87
7338.54
7336.05
7333.42
7330.7
7327.91
7325.09
7322.27
7319.47
7316.72
7314.04
7311.43
7308.9
7306.45
7304.08
7301.77
7299.51
7297.29
7295.1
7292.94
7290.8
7288.69
7286.62
7284.61
7282.68
7280.86
7279.18
7277.66
7276.33
7275.22
7274.34
7273.72
7273.38
7281.42
7281.74
7282.3
7283.09
7284.08
7285.27
7286.62
7288.11
7289.73
7291.44
7293.23
7295.06
7296.94
7298.84
7300.76
7302.71
7304.7
7306.73
7308.83
7311
7313.26
7315.6
7318.04
7320.55
7323.14
7325.77
7328.43
7331.09
7333.7
7336.24
7338.68
7340.97
7343.08
7344.98
7346.64
7348.04
7349.16
7349.97
7350.47
7350.65
7350.51
7350.04
7349.25
7348.15
7346.76
7345.09
7343.17
7341.01
7338.66
7336.15
7333.49
7330.74
7327.93
7325.09
7322.24
7319.43
7316.67
7313.98
7311.37
7308.85
7306.41
7304.05
7301.75
7299.51
7297.3
7295.11
7292.95
7290.8
7288.68
7286.58
7284.54
7282.58
7280.72
7279
7277.44
7276.08
7274.94
7274.03
7273.39
7273.04
7280.83
7281.16
7281.77
7282.61
7283.65
7284.89
7286.31
7287.86
7289.54
7291.3
7293.13
7295
7296.89
7298.79
7300.71
7302.65
7304.62
7306.63
7308.71
7310.86
7313.11
7315.46
7317.91
7320.45
7323.07
7325.75
7328.46
7331.16
7333.83
7336.43
7338.92
7341.26
7343.42
7345.36
7347.07
7348.5
7349.64
7350.48
7350.99
7351.18
7351.03
7350.55
7349.75
7348.63
7347.21
7345.5
7343.54
7341.34
7338.94
7336.37
7333.66
7330.85
7327.98
7325.09
7322.2
7319.35
7316.56
7313.85
7311.24
7308.72
7306.29
7303.95
7301.67
7299.45
7297.25
7295.08
7292.92
7290.76
7288.62
7286.49
7284.4
7282.37
7280.44
7278.65
7277.03
7275.59
7274.39
7273.43
7272.74
7272.36
7279.91
7280.29
7280.96
7281.87
7283
7284.34
7285.84
7287.49
7289.25
7291.09
7292.98
7294.89
7296.8
7298.71
7300.61
7302.52
7304.46
7306.43
7308.48
7310.61
7312.86
7315.21
7317.68
7320.27
7322.94
7325.69
7328.47
7331.27
7334.03
7336.72
7339.3
7341.73
7343.96
7345.98
7347.75
7349.23
7350.42
7351.28
7351.82
7352.01
7351.87
7351.37
7350.55
7349.39
7347.92
7346.16
7344.13
7341.86
7339.38
7336.72
7333.92
7331.02
7328.06
7325.09
7322.12
7319.21
7316.37
7313.63
7311
7308.48
7306.07
7303.75
7301.51
7299.34
7297.15
7295.02
7292.87
7290.7
7288.52
7286.34
7284.17
7282.05
7280.02
7278.13
7276.39
7274.86
7273.56
7272.51
7271.76
7271.34
7278.65
7279.09
7279.85
7280.87
7282.12
7283.57
7285.2
7286.98
7288.86
7290.81
7292.78
7294.75
7296.69
7298.6
7300.48
7302.34
7304.22
7306.14
7308.13
7310.23
7312.46
7314.82
7317.33
7319.98
7322.73
7325.58
7328.48
7331.4
7334.29
7337.12
7339.82
7342.37
7344.72
7346.84
7348.69
7350.25
7351.49
7352.4
7352.97
7353.18
7353.03
7352.52
7351.65
7350.45
7348.92
7347.08
7344.95
7342.58
7339.98
7337.19
7334.27
7331.24
7328.16
7325.06
7321.99
7318.99
7316.08
7313.29
7310.63
7308.11
7305.72
7303.45
7301.27
7299.15
7297.03
7294.93
7292.8
7290.63
7288.41
7286.15
7283.88
7281.64
7279.48
7277.43
7275.54
7273.86
7272.43
7271.26
7270.41
7269.92
7276.98
7277.51
7278.39
7279.57
7280.97
7282.59
7284.39
7286.33
7288.38
7290.48
7292.57
7294.61
7296.59
7298.48
7300.31
7302.1
7303.89
7305.72
7307.64
7309.69
7311.89
7314.27
7316.83
7319.55
7322.42
7325.4
7328.46
7331.55
7334.62
7337.61
7340.49
7343.19
7345.69
7347.94
7349.91
7351.56
7352.88
7353.85
7354.45
7354.68
7354.52
7353.99
7353.09
7351.82
7350.2
7348.26
7346.01
7343.5
7340.75
7337.8
7334.71
7331.51
7328.25
7325
7321.78
7318.65
7315.64
7312.79
7310.1
7307.59
7305.24
7303.03
7300.93
7298.91
7296.87
7294.84
7292.75
7290.57
7288.3
7285.95
7283.55
7281.13
7278.77
7276.52
7274.44
7272.57
7270.96
7269.62
7268.63
7268.05
7274.83
7275.48
7276.54
7277.92
7279.53
7281.35
7283.36
7285.54
7287.81
7290.1
7292.35
7294.5
7296.5
7298.38
7300.13
7301.81
7303.47
7305.17
7306.98
7308.95
7311.12
7313.51
7316.13
7318.96
7321.97
7325.13
7328.4
7331.7
7334.99
7338.21
7341.3
7344.21
7346.89
7349.31
7351.41
7353.19
7354.6
7355.64
7356.29
7356.53
7356.38
7355.82
7354.86
7353.51
7351.79
7349.72
7347.33
7344.64
7341.7
7338.55
7335.23
7331.81
7328.34
7324.88
7321.47
7318.18
7315.04
7312.1
7309.37
7306.87
7304.57
7302.45
7300.48
7298.58
7296.69
7294.76
7292.74
7290.57
7288.24
7285.76
7283.17
7280.53
7277.92
7275.39
7273.06
7270.95
7269.1
7267.54
7266.36
7265.65
7272.09
7272.91
7274.22
7275.86
7277.72
7279.79
7282.09
7284.57
7287.15
7289.71
7292.16
7294.44
7296.49
7298.32
7299.96
7301.47
7302.93
7304.44
7306.09
7307.95
7310.07
7312.47
7315.17
7318.14
7321.35
7324.74
7328.26
7331.84
7335.42
7338.91
7342.27
7345.43
7348.34
7350.95
7353.23
7355.15
7356.68
7357.8
7358.5
7358.77
7358.61
7358.02
7357
7355.56
7353.71
7351.49
7348.91
7346.02
7342.84
7339.43
7335.85
7332.15
7328.4
7324.67
7321.02
7317.52
7314.21
7311.16
7308.38
7305.89
7303.67
7301.68
7299.88
7298.18
7296.48
7294.72
7292.8
7290.66
7288.26
7285.63
7282.79
7279.84
7276.87
7274
7271.34
7268.93
7266.8
7264.95
7263.49
7262.61
7268.62
7269.67
7271.33
7273.31
7275.46
7277.84
7280.49
7283.38
7286.37
7289.31
7292.05
7294.5
7296.6
7298.35
7299.8
7301.06
7302.25
7303.49
7304.92
7306.62
7308.67
7311.09
7313.89
7317.04
7320.49
7324.18
7328.03
7331.96
7335.89
7339.73
7343.41
7346.87
7350.05
7352.9
7355.39
7357.47
7359.13
7360.35
7361.12
7361.42
7361.25
7360.62
7359.52
7357.98
7355.99
7353.59
7350.79
7347.65
7344.19
7340.47
7336.55
7332.51
7328.41
7324.35
7320.39
7316.61
7313.1
7309.9
7307.05
7304.58
7302.46
7300.65
7299.09
7297.67
7296.26
7294.74
7292.98
7290.9
7288.43
7285.59
7282.43
7279.05
7275.62
7272.28
7269.2
7266.43
7263.95
7261.72
7259.9
7258.77
7264.17
7265.57
7267.67
7270.1
7272.6
7275.32
7278.45
7281.89
7285.46
7288.93
7292.09
7294.77
7296.91
7298.52
7299.7
7300.58
7301.36
7302.23
7303.35
7304.84
7306.8
7309.24
7312.18
7315.56
7319.33
7323.4
7327.67
7332.03
7336.4
7340.66
7344.74
7348.56
7352.07
7355.2
7357.92
7360.19
7362
7363.33
7364.17
7364.5
7364.33
7363.65
7362.48
7360.81
7358.66
7356.05
7353.01
7349.56
7345.76
7341.67
7337.35
7332.89
7328.36
7323.87
7319.52
7315.4
7311.6
7308.21
7305.27
7302.82
7300.84
7299.28
7298.06
7297.02
7296.02
7294.85
7293.36
7291.38
7288.84
7285.73
7282.12
7278.16
7274.08
7270.11
7266.48
7263.28
7260.39
7257.67
7255.38
7253.87
7258.31
7260.31
7263.01
7265.99
7268.85
7271.99
7275.75
7280.02
7284.43
7288.65
7292.37
7295.36
7297.53
7298.92
7299.67
7300.01
7300.2
7300.54
7301.23
7302.45
7304.29
7306.77
7309.9
7313.6
7317.78
7322.34
7327.14
7332.05
7336.94
7341.72
7346.28
7350.53
7354.42
7357.87
7360.86
7363.35
7365.33
7366.78
7367.7
7368.06
7367.89
7367.16
7365.9
7364.1
7361.77
7358.92
7355.59
7351.8
7347.61
7343.07
7338.26
7333.27
7328.21
7323.2
7318.36
7313.78
7309.61
7305.96
7302.9
7300.47
7298.67
7297.44
7296.67
7296.18
7295.75
7295.11
7294.01
7292.22
7289.62
7286.16
7281.94
7277.17
7272.18
7267.3
7262.92
7259.2
7255.87
7252.56
7249.63
7247.48
7250.81
7253.66
7256.97
7260.32
7263.53
7267.32
7272.11
7277.6
7283.26
7288.56
7293.07
7296.47
7298.65
7299.66
7299.75
7299.28
7298.64
7298.23
7298.36
7299.23
7300.93
7303.5
7306.89
7311.01
7315.74
7320.93
7326.39
7331.97
7337.54
7342.94
7348.07
7352.83
7357.15
7360.98
7364.27
7367
7369.16
7370.74
7371.74
7372.14
7371.96
7371.19
7369.83
7367.89
7365.36
7362.26
7358.6
7354.42
7349.75
7344.68
7339.28
7333.66
7327.95
7322.26
7316.75
7311.63
7306.99
7302.99
7299.75
7297.33
7295.75
7294.94
7294.77
7295.03
7295.42
7295.56
7295.06
7293.59
7290.94
7287.03
7281.98
7276.07
7269.76
7263.55
7258.01
7253.5
7249.72
7246.01
7242.38
7239.36
7242.51
7245.18
7247.28
7250.04
7254.42
7260.17
7267
7274.51
7282.01
7288.86
7294.45
7298.38
7300.5
7300.9
7299.99
7298.32
7296.48
7295.04
7294.42
7294.85
7296.43
7299.14
7302.91
7307.61
7313.05
7319.03
7325.36
7331.8
7338.18
7344.34
7350.15
7355.51
7360.34
7364.58
7368.21
7371.2
7373.55
7375.26
7376.34
7376.78
7376.6
7375.78
7374.33
7372.24
7369.51
7366.13
7362.11
7357.47
7352.26
7346.56
7340.45
7334.07
7327.54
7321.03
7314.73
7308.84
7303.55
7299.08
7295.57
7293.13
7291.78
7291.5
7292.14
7293.43
7294.97
7296.25
7296.68
7295.75
7293.11
7288.63
7282.44
7274.95
7266.72
7258.39
7250.61
7243.95
7238.71
7235.53
7233.14
7230.29
7232.3
7231.33
7227.31
7228.73
7237.81
7248.99
7260.16
7270.82
7280.91
7289.86
7296.92
7301.53
7303.44
7302.87
7300.42
7296.94
7293.38
7290.55
7288.97
7288.91
7290.41
7293.39
7297.71
7303.19
7309.58
7316.62
7324.01
7331.51
7338.88
7345.94
7352.56
7358.61
7364.03
7368.75
7372.74
7376
7378.54
7380.38
7381.54
7382.02
7381.83
7380.98
7379.45
7377.23
7374.29
7370.62
7366.2
7361.05
7355.2
7348.75
7341.8
7334.48
7326.95
7319.41
7312.08
7305.21
7299.07
7293.93
7290.01
7287.47
7286.38
7286.72
7288.39
7291.08
7294.27
7297.25
7299.11
7299.08
7296.58
7291.39
7283.71
7274.06
7263.19
7251.64
7239.32
7225.21
7213.88
7213.91
7218.22
7219.01
7216.77
7207.78
7197.21
7199.04
7214.41
7235.05
7252.3
7266.95
7280.34
7292.01
7300.94
7306.33
7307.84
7305.73
7300.92
7294.8
7288.82
7284.12
7281.38
7280.85
7282.42
7285.88
7291
7297.53
7305.15
7313.53
7322.28
7331.08
7339.65
7347.8
7355.37
7362.24
7368.33
7373.58
7377.96
7381.49
7384.22
7386.18
7387.4
7387.91
7387.73
7386.85
7385.26
7382.92
7379.79
7375.83
7371
7365.27
7358.68
7351.34
7343.37
7334.91
7326.15
7317.31
7308.66
7300.56
7293.27
7287.21
7282.68
7279.9
7279
7280.03
7282.96
7287.51
7293.02
7298.47
7302.55
7303.99
7301.87
7295.88
7286.31
7273.89
7259.62
7243.95
7223.29
7200.5
7183.82
7183.03
7193.78
7202.34
7197.88
7182.99
7173.57
7180.14
7200.63
7225.11
7246.24
7264.57
7281.45
7296.19
7307.34
7313.67
7314.46
7309.95
7301.5
7291.47
7282.05
7274.93
7270.9
7270.06
7272.01
7276.25
7282.5
7290.46
7299.64
7309.78
7320.22
7330.6
7340.61
7350.03
7358.71
7366.51
7373.36
7379.2
7383.96
7387.76
7390.64
7392.68
7393.95
7394.49
7394.32
7393.44
7391.81
7389.4
7386.11
7381.86
7376.65
7370.28
7362.85
7354.47
7345.28
7335.46
7325.2
7314.74
7304.42
7294.62
7285.9
7278.59
7273.16
7269.94
7269.07
7270.74
7275.13
7282.09
7290.84
7299.95
7307.46
7311.24
7309.88
7303.01
7291.2
7275.64
7257.73
7238.2
7215.14
7186.82
7164.73
7160.25
7168.53
7182.23
7177.91
7166.46
7161.19
7169.85
7194.9
7218.7
7241.65
7263.24
7283.46
7301.8
7316.06
7323.89
7323.68
7315.47
7301.13
7285.19
7270.96
7260.87
7255.79
7255.35
7258.4
7263.96
7271.84
7281.78
7293.28
7305.55
7318.03
7330.28
7341.94
7352.8
7362.7
7371.56
7379.26
7385.74
7390.84
7394.88
7397.89
7399.97
7401.24
7401.78
7401.63
7400.79
7399.19
7396.75
7393.35
7388.81
7383.4
7376.25
7367.83
7358.22
7347.6
7336.19
7324.19
7311.83
7299.46
7287.56
7276.76
7267.7
7260.89
7256.87
7255.56
7257.37
7263.06
7272.92
7286.12
7300.67
7313.63
7321.09
7320.92
7312.73
7297.84
7278.56
7257.11
7234.23
7209.49
7183.37
7156.09
7146.81
7150.67
7160.38
7153.58
7149.37
7150.4
7161.9
7184.51
7209.71
7235.65
7262.17
7288.03
7312.21
7331.83
7342.51
7340.94
7326.78
7301.78
7276.39
7254.61
7240.11
7233.67
7234.33
7239.64
7247.5
7258
7270.71
7285.01
7299.98
7315.09
7329.64
7343.25
7355.76
7367.1
7377.22
7385.99
7393.23
7398.74
7403
7406.06
7408.1
7409.31
7409.81
7409.67
7408.94
7407.44
7405.1
7401.73
7397.13
7391.11
7383.29
7373.67
7362.48
7350.05
7336.67
7322.51
7307.77
7292.75
7278.2
7264.89
7253.5
7244.21
7238.67
7236.16
7237.67
7245.04
7259.09
7279.11
7302.29
7324.75
7338.45
7340.26
7329.73
7309.48
7284.31
7257.22
7229.25
7201.49
7172.07
7147.55
7134.88
7131.26
7133.41
7123.06
7108.22
7116.27
7140.33
7169.4
7201.31
7233.7
7266.32
7298.33
7333.54
7363.93
7380.06
7374.95
7347.7
7304.65
7259.17
7223.35
7202.26
7194.91
7198.93
7209.3
7221.88
7237.52
7253.46
7271.12
7290.15
7309.06
7326.74
7342.92
7357.66
7371.01
7382.93
7393.24
7401.76
7407.43
7412.04
7415.08
7416.98
7418.03
7418.45
7418.35
7417.75
7416.53
7414.46
7411.3
7406.69
7400.22
7391.46
7380.26
7366.9
7351.88
7335.64
7318.35
7300.08
7281.06
7262.41
7245.94
7232.74
7218.33
7209.1
7202.93
7202.52
7211.83
7232.6
7265.07
7305.72
7345.36
7372.14
7378.39
7363.69
7332.65
7295.54
7261.84
7228.16
7193.87
7159.06
7123.87
7085.9
7064.09
7090.23
4508.02
4062.06
4110.84
4460.53
4928.95
5395.87
5759.87
6075.36
6447.86
6905.89
7162.59
7227.81
7088.22
6731.38
6045.08
5311.5
4791.23
4528.08
4453.26
4645.48
5098.18
5574.68
5874.66
6081.81
6311.41
6550.42
6778.53
6964.08
7104.46
7210.59
7287.18
7339.57
7373.78
7394.6
7405.76
7411.11
7413.39
7413.67
7412.97
7412.04
7411.71
7412.1
7412.55
7412.19
7409.74
7404.35
7393.73
7374.2
7339.22
7281.37
7192.19
7065.55
6898.23
6688.88
6439.22
6177.54
5932.73
5745.63
5542.5
5166.19
4757.44
4607.84
4747.62
5039.12
5512.03
6147.09
6756.58
7124.96
7251.34
7201.51
6964.71
6536.07
6133.17
5774.81
5357.1
4846.63
4261.6
3803.57
3647.62
4001.56
1.69232
2.01457
1.71756
7.48345
153.287
491.701
1034.08
1673.2
2334.11
3092.33
3954.46
4510.2
4299.05
3133.47
1595.37
700.812
342.509
221.925
222.67
252.784
234.757
247.316
350.482
548.103
835.134
1192.3
1590.29
1986.27
2374.81
2759.53
3118.64
3430.63
3683.8
3857.99
3950.43
3981.18
3978.5
3958.9
3937.46
3921.66
3916.05
3920.79
3933.21
3947.22
3945.53
3914.25
3832.74
3670.15
3414.58
3076.61
2683.71
2266.24
1854.16
1459.71
1082.91
747.063
481.207
296.132
194.998
186.991
248.17
268.41
289.834
438.562
799.625
1602.45
3023.59
4306.97
4659.54
4165.55
3192.04
2337.9
1651.15
1032.7
497.514
133.905
1.70912
1.68095
1.87283
1.58453
1.51712
1.64838
1.57616
1.52048
1.37891
1.1934
1.03996
0.889593
0.811948
1.99254
27.6493
124.87
167.717
54.6046
25.6692
14.941
7.75094
4.42583
3.69613
3.70113
3.03392
1.47756
0.823407
0.807054
0.582377
0.47864
0.47512
0.524825
0.573173
0.584556
0.569005
0.551368
0.538753
0.529375
0.519793
0.509048
0.496318
0.488129
0.488425
0.495893
0.503226
0.503567
0.499833
0.50496
0.516637
0.527285
0.538343
0.553015
0.572971
0.601505
0.635933
0.668799
0.67296
0.651775
0.648617
0.687445
0.818056
0.844329
1.08104
2.77992
3.1683
3.00427
3.78453
6.72204
12.2119
20.9827
42.1039
171.995
173.195
45.1742
2.53784
0.606975
0.632529
0.783355
0.958497
1.148
1.38295
1.57625
1.71803
1.63845
1.42147
1.43763
1.35454
1.33463
1.40206
1.77239
2.02396
1.40226
0.705358
0.819792
0.853585
1.47601
3.67958
5.26684
4.57193
3.11255
2.19113
2.00112
1.93713
1.69763
1.32127
1.04247
1.32958
0.773516
0.564436
0.58362
0.609944
0.63779
0.664409
0.668237
0.649882
0.632265
0.620713
0.609115
0.593164
0.574113
0.556357
0.542924
0.535865
0.534471
0.537249
0.541454
0.547228
0.557998
0.572812
0.591057
0.612147
0.632965
0.652436
0.674431
0.702332
0.729055
0.736385
0.731426
0.726495
0.711461
0.799695
1.11439
0.869709
0.939868
0.848854
0.829532
1.17264
1.69302
2.26123
3.17035
3.92384
3.13148
1.60016
1.09952
0.998781
1.32075
1.29467
1.17538
0.702026
0.94152
1.08253
1.30614
1.46244
1.47135
1.31951
1.22099
1.12353
2.58667
2.54412
2.38618
2.27452
1.34938
0.731111
1.05901
0.803269
0.935619
1.29585
1.72041
1.96831
1.90858
1.73883
1.80004
2.1116
1.68742
1.22224
0.931659
0.856266
0.807144
0.725349
0.698407
0.673571
0.663104
0.666338
0.667263
0.648881
0.631497
0.619343
0.608215
0.594534
0.579698
0.566215
0.555745
0.548635
0.54597
0.549683
0.555705
0.563637
0.575408
0.588702
0.602593
0.617544
0.633528
0.650339
0.670551
0.697228
0.723071
0.740063
0.757043
0.782359
0.820828
0.863579
0.842608
0.753714
0.70636
0.620687
0.585129
0.906893
1.24377
1.44943
1.57288
1.38953
1.10432
0.962557
4.96577
2.35835
0.695468
1.03182
1.39971
1.47782
0.800568
0.729038
0.984185
1.19789
1.32535
1.23731
1.2094
2.30206
2.54836
2.39635
2.2269
0.775221
0.899715
1.10247
1.12165
0.850652
0.994213
1.19621
1.42875
1.69513
1.83845
1.78542
1.93101
2.3358
2.2801
1.90899
0.922023
0.731896
0.727611
0.725534
0.713172
0.700461
0.69331
0.686302
0.675835
0.65672
0.638377
0.624071
0.610542
0.595638
0.580393
0.566278
0.554775
0.548366
0.546577
0.549951
0.558607
0.57091
0.58327
0.595678
0.60863
0.623421
0.6402
0.658603
0.6799
0.705123
0.730466
0.753445
0.77252
0.791618
0.809657
0.815837
0.798421
0.751262
0.696854
0.676375
0.697388
1.0065
1.32794
1.45202
1.37788
1.16076
0.992643
0.856416
5.34175
5.95597
0.626705
0.388278
1.31894
1.2298
0.485503
0.564218
0.830823
1.04611
1.21449
1.24109
1.69211
2.79477
2.56984
2.27762
0.585248
0.560295
0.607045
0.845274
0.813576
0.956248
1.11765
1.29855
1.4659
1.74449
2.47223
2.47999
2.37843
2.26084
2.25682
2.10324
1.29005
0.710885
0.701655
0.709438
0.709358
0.701361
0.687811
0.672098
0.656732
0.645218
0.632027
0.618805
0.605005
0.590538
0.576545
0.564594
0.556252
0.551693
0.552016
0.555634
0.564122
0.57577
0.585539
0.595149
0.606835
0.621398
0.638636
0.65805
0.679791
0.703295
0.726443
0.750361
0.775966
0.797306
0.811757
0.815738
0.798428
0.745228
0.671233
0.765225
1.53461
1.68595
1.72638
1.70096
1.65382
1.15977
1.05578
0.93173
0.781123
5.683
5.47307
4.68805
1.78602
2.02865
1.1324
0.60969
0.832786
1.04986
1.18963
1.36901
2.03128
2.99599
2.64062
0.848707
0.688898
0.669848
0.694977
0.802703
0.991295
1.68013
2.11029
2.29295
2.4286
2.06164
1.93859
1.94666
1.71949
1.28494
1.0162
0.937987
0.866882
0.743253
0.683697
0.69323
0.694525
0.685684
0.672217
0.659054
0.647108
0.635081
0.621728
0.607529
0.593714
0.580344
0.568175
0.558141
0.550933
0.547162
0.547466
0.551678
0.559853
0.570094
0.579188
0.588216
0.599998
0.614964
0.632874
0.653367
0.676327
0.701224
0.727477
0.752392
0.777822
0.801061
0.81792
0.822126
0.801826
0.742718
0.662375
1.23411
1.67725
1.7069
1.74949
1.66833
1.71688
1.72398
1.53668
1.01065
0.841289
0.572174
4.18368
5.75173
5.71054
5.82734
3.34521
0.725437
0.941271
1.14301
1.25494
1.55929
1.80621
3.23715
1.68002
0.950466
0.818648
0.804628
2.1584
2.95345
3.06085
2.98904
1.08907
1.24816
1.35424
1.40569
1.40432
1.35097
1.25111
1.12892
0.989614
0.856899
0.7334
0.682875
0.670334
0.672413
0.669342
0.65937
0.646944
0.634671
0.622818
0.611052
0.599219
0.587286
0.575561
0.564438
0.554556
0.546578
0.54105
0.538412
0.53897
0.542745
0.549586
0.55837
0.566856
0.576276
0.588611
0.603828
0.621812
0.642468
0.665575
0.691049
0.718357
0.746911
0.775609
0.802302
0.823664
0.83279
0.816003
0.757355
0.667264
0.987901
1.5
1.25536
0.917209
0.772174
0.799854
0.911643
1.25953
1.2187
1.11737
0.626888
0.570732
0.790266
1.23457
4.02169
2.80835
0.917132
1.05303
1.22133
1.31998
1.68995
1.55658
2.10325
2.62861
1.39117
3.16001
3.83028
3.48446
0.793616
0.716219
0.864362
1.05563
1.96754
2.42854
1.9466
1.56305
1.36049
1.25886
1.13165
1.06984
0.989054
0.788436
0.671962
0.654875
0.647523
0.637627
0.625293
0.612804
0.60121
0.59074
0.581111
0.571721
0.562256
0.552953
0.544247
0.536641
0.530652
0.526771
0.525392
0.526384
0.529689
0.535199
0.542744
0.550688
0.560644
0.573555
0.589075
0.607262
0.628141
0.651722
0.677947
0.706654
0.737655
0.770011
0.801597
0.829105
0.845971
0.838921
0.791526
0.708098
0.654926
0.816049
0.683419
0.721657
0.760984
0.78443
0.785154
0.76111
0.720091
0.686764
0.539685
0.435845
0.395998
0.524312
1.88599
2.19972
1.38273
1.24289
1.24007
1.32807
1.69685
1.58114
1.8614
4.7421
4.58176
4.32015
4.01128
1.82386
0.446701
0.429919
0.541107
1.16721
3.09615
3.36324
3.46371
3.02636
2.73534
2.35158
1.38653
1.06839
0.971261
0.773069
0.664129
0.640119
0.620985
0.602404
0.586422
0.573535
0.563132
0.554631
0.547278
0.540298
0.533356
0.52656
0.520221
0.514743
0.510563
0.50821
0.508057
0.5095
0.512582
0.517264
0.523908
0.531646
0.542109
0.555389
0.571149
0.589503
0.610597
0.634675
0.661978
0.692654
0.726666
0.7634
0.801146
0.836695
0.863837
0.870684
0.841203
0.768973
0.678872
0.697218
0.687791
0.706595
0.729905
0.734293
0.719434
0.687902
0.637914
0.572648
0.504236
0.44582
0.433379
0.50524
1.09136
2.05629
2.24272
1.7978
1.22023
1.29275
1.60002
1.53051
3.2629
4.88334
4.62307
4.3312
3.98245
3.5812
1.69322
-0.0592952
0.151482
1.43034
2.62343
3.0715
3.12956
2.94066
3.15732
3.34944
3.47821
1.60965
0.840132
0.759377
0.673448
0.630526
0.594248
0.564259
0.543684
0.530287
0.521165
0.514707
0.509752
0.505359
0.501041
0.496742
0.492674
0.489165
0.486611
0.485663
0.486559
0.488625
0.491761
0.496154
0.502314
0.510456
0.520918
0.534394
0.550309
0.568785
0.590124
0.614785
0.643295
0.676202
0.713856
0.756049
0.801579
0.847606
0.888217
0.912153
0.904078
0.845089
0.767869
0.682841
0.657634
0.810258
0.792336
0.634538
0.578181
0.523706
0.457895
0.417825
0.535341
0.429883
0.366399
0.476283
0.746252
2.02112
2.23738
1.40489
1.16664
1.229
1.41934
1.38864
3.86021
4.83922
4.55713
4.16586
2.86667
1.04759
0.454593
0.395502
3.39409
4.78126
5.10631
2.59773
1.57876
1.61138
1.86022
2.99184
3.67756
3.79754
1.73694
0.755367
0.68698
0.621652
0.562651
0.519461
0.494561
0.481361
0.474123
0.470304
0.468313
0.466916
0.465443
0.463736
0.46194
0.460305
0.459238
0.459492
0.461479
0.464369
0.467854
0.472202
0.479278
0.487695
0.497009
0.510408
0.526274
0.54468
0.5661
0.591236
0.620919
0.656138
0.69783
0.746433
0.801515
0.860997
0.918805
0.961027
0.975387
0.923685
0.818652
0.706539
0.723027
1.00083
0.911628
0.605317
0.392015
0.307904
0.202706
0.363894
0.918607
0.901783
0.213669
0.33032
0.602655
1.69611
2.19445
1.35513
1.08691
1.1364
1.17638
1.11091
2.33237
4.7223
4.40144
3.74088
0.819513
0.400511
0.10049
2.26294
3.90462
4.08878
4.60801
5.33949
3.59953
1.07606
1.2412
1.36941
2.05679
4.11291
4.21711
1.60822
0.691297
0.59791
0.514797
0.460232
0.434283
0.423955
0.420425
0.420576
0.422549
0.42484
0.426666
0.42783
0.428436
0.428655
0.428959
0.430199
0.433334
0.439137
0.44151
0.450823
0.45674
0.460484
0.470213
0.483267
0.498738
0.516704
0.53782
0.563004
0.59342
0.630554
0.676033
0.73124
0.797199
0.873385
0.953092
1.01534
1.03509
0.96853
0.835695
0.703125
1.05173
0.926434
0.775942
0.445224
0.202345
0.645526
0.79329
4.99155
5.2279
2.39084
-0.119723
0.0458223
0.404664
1.04205
1.78339
1.1878
0.957693
1.00121
0.929483
0.862401
1.0658
3.80203
4.16412
3.09118
0.392704
-0.167367
-0.371195
3.3172
3.25322
3.55271
4.16697
4.94956
5.80713
4.9745
0.969623
1.16909
1.31961
1.54431
5.18729
5.28613
1.87186
0.541571
0.433962
0.375004
0.35676
0.354999
0.358474
0.36477
0.372199
0.379172
0.384954
0.389417
0.392669
0.394799
0.396374
0.398395
0.402719
0.419419
0.457956
0.422842
0.425299
0.430328
0.44052
0.452909
0.467446
0.484299
0.50431
0.528614
0.558725
0.596653
0.644734
0.705474
0.782049
0.87608
0.978694
1.05968
1.0762
0.976583
0.797263
1.0636
1.06187
0.84048
0.492525
0.284185
0.857559
5.15817
5.0789
4.7942
4.64363
4.71285
1.4911
-0.349882
0.0124258
0.357052
0.636797
0.804686
0.784156
0.81614
0.933636
1.9821
6.46257
2.78074
3.54042
0.714051
0.0851053
-0.561911
-1.0059
2.57486
2.73685
-0.26614
0.4111
4.60146
5.43925
6.15362
1.08125
0.937498
1.11367
1.21303
1.46248
6.0601
6.38566
1.26619
0.305377
0.251427
0.256024
0.271937
0.287163
0.302604
0.317425
0.330273
0.340769
0.349041
0.355275
0.359479
0.362322
0.364997
0.370333
0.395769
0.500019
0.389178
0.39168
0.398507
0.407964
0.419197
0.432094
0.446952
0.464741
0.486748
0.514766
0.551154
0.598747
0.661522
0.745773
0.856037
0.983311
1.09174
1.30324
1.1396
0.779837
1.12516
0.982043
0.663895
0.364292
0.0542502
3.59495
4.72489
4.39286
4.13998
4.02051
4.09955
3.91788
-0.392054
-0.486238
-0.0387865
0.260931
0.436144
0.542416
0.592725
2.29701
2.84108
6.61488
2.54169
1.08309
0.509322
-0.115024
-0.774143
-1.3889
1.54726
-1.61566
-1.73244
-1.34591
0.219052
5.16465
5.95644
1.17818
0.687369
0.852943
0.99764
1.13174
5.34782
6.4174
4.5586
0.228055
0.0838334
0.128876
0.174041
0.206742
0.234777
0.259038
0.278919
0.294825
0.307369
0.316947
0.323554
0.327975
0.33135
0.337779
0.362563
0.47203
0.354793
0.359129
0.364984
0.373038
0.382343
0.392654
0.40437
0.418451
0.436168
0.459409
0.490642
0.532751
0.590881
0.675404
0.796293
0.957219
3.20709
7.52329
7.23128
3.85292
0.885327
0.788443
0.364214
0.171866
-0.158903
2.22342
4.01258
2.67932
1.27328
3.42867
3.60089
3.98441
-0.785832
-0.94255
-0.417872
-0.0580745
0.161255
0.291414
0.357768
1.64661
1.83414
6.58996
6.51074
0.969643
0.391929
-0.211553
-0.832025
3.79527
-0.640642
-2.00046
-2.02851
-1.65081
0.215363
5.02705
4.05587
1.84697
0.698095
0.530582
0.940236
1.71584
6.14573
6.2303
6.29479
1.17276
-0.12727
-0.0206556
0.0641534
0.119697
0.163516
0.19879
0.226475
0.248167
0.2652
0.278374
0.287778
0.294133
0.299652
0.306928
0.317465
0.443528
0.35451
0.325817
0.33034
0.336214
0.34267
0.349356
0.356655
0.3653
0.376309
0.39129
0.412266
0.441293
0.483515
0.555702
0.689959
2.99529
10.7752
10.6467
10.3751
6.37456
0.352822
0.245784
0.103116
-0.135309
-0.386358
1.7751
3.21804
-1.29899
-1.72516
-1.80168
3.21167
0.770118
-1.93282
-1.27463
-0.720713
-0.335936
-0.0856614
0.0662412
0.143861
1.63072
1.39649
6.19614
6.66386
1.48154
0.348291
-0.230374
0.809682
5.88867
-1.14872
-2.03206
-2.09563
-1.68718
4.27919
5.05348
5.74999
5.9881
0.822642
-0.377414
3.62648
5.79946
5.85006
5.92311
6.02336
2.48281
-0.365389
-0.177703
-0.0498399
0.0315442
0.0927948
0.139457
0.174957
0.202205
0.223487
0.240127
0.252496
0.261515
0.269657
0.307399
0.288429
0.4144
0.419214
0.291281
0.294697
0.297757
0.300593
0.302739
0.304389
0.305833
0.307583
0.310432
0.315043
0.321335
0.33252
0.380862
1.48331
9.84523
11.0985
10.7845
9.29864
2.24132
0.0313234
0.00990852
0.470806
0.153151
2.81879
4.05174
-0.757946
-1.812
-2.15019
-2.14787
-1.74812
-0.635683
-0.728471
-0.514967
-0.877584
-0.519762
-0.271071
-0.110779
-0.0202565
2.72172
1.41309
2.54451
6.93006
1.52798
0.376937
-0.200724
6.20509
6.1566
5.5213
0.0284516
-1.91035
-1.14151
4.5855
5.30668
5.83712
6.15153
-0.356197
-0.938312
1.59915
5.40725
5.48121
5.58807
5.75066
3.2514
-0.567457
-0.319839
-0.155954
-0.0494243
0.0279472
0.0845888
0.126966
0.158614
0.183474
0.202818
0.217531
0.253962
0.399591
0.429215
0.416422
0.348947
0.336795
0.256626
0.258126
0.258107
0.256894
0.253899
0.248943
0.241681
0.231855
0.218904
0.201216
0.174929
0.140711
0.171302
5.33589
11.306
11.2371
9.17602
0.442189
-0.271578
-0.194469
-0.301211
1.02852
2.21498
4.65745
3.85227
0.0741899
-2.10082
-2.40726
-2.34137
-1.99971
4.47118
5.43998
5.75889
2.70329
-0.503781
-0.387294
-0.230062
-0.111728
2.65624
1.66742
6.31406
7.13239
3.83459
0.549999
1.89408
7.13576
6.50938
6.05364
5.80179
2.18729
2.42845
5.16805
5.72501
6.18775
0.463737
-1.37791
-1.49105
-1.66612
3.80044
5.19165
5.31774
5.54116
2.38091
-0.723357
-0.426506
-0.238554
-0.113547
-0.0256875
0.0377117
0.0846842
0.119989
0.146987
0.167895
0.183879
0.240145
0.391784
0.400478
0.405814
0.317377
0.223203
0.22271
0.221555
0.218436
0.21301
0.204607
0.192521
0.175657
0.152769
0.12157
0.0773565
0.0120551
-0.0753048
0.216542
8.49403
11.3016
10.7625
0.657727
-0.460043
-0.459941
-0.486877
-0.611508
-0.151824
1.84285
4.60245
3.87398
3.00846
-2.10911
-2.43356
-2.33602
-1.13221
5.01876
5.99568
6.3147
6.68565
-0.664336
-0.440609
-0.269372
-0.119254
1.68951
1.74121
7.44959
7.31862
7.08325
0.96582
1.44551
7.45724
6.9838
6.52796
6.36187
6.25576
5.66414
5.88863
6.51332
4.8743
-1.25959
-1.36273
-1.52743
-1.75254
0.387275
5.0922
5.2117
5.50191
0.0579889
-0.794723
-0.478917
-0.285134
-0.154822
-0.0639866
0.00189985
0.0508074
0.0876909
0.115803
0.137448
0.15402
0.186884
0.276525
0.362961
0.37885
0.323107
0.190042
0.190124
0.186565
0.180409
0.170818
0.157071
0.137882
0.111395
0.075305
0.0255446
-0.0460374
-0.151037
-0.291406
0.383668
10.0422
11.4215
8.43322
-0.615862
-0.634242
-0.633948
-0.66881
-0.784097
-0.999151
-1.01051
3.51025
4.09499
3.29705
-1.87446
-0.518854
3.80387
4.82541
5.30108
6.02031
6.797
4.10174
-0.563012
-0.430863
-0.247507
-0.0513951
-0.197068
-0.200491
5.7206
7.55768
7.31449
3.39271
2.31641
2.07691
7.59759
7.3401
5.12161
4.11445
6.27186
6.78092
7.18914
-0.483485
-0.9803
-1.06171
-1.28773
-1.57692
-0.628411
5.21408
5.42494
1.69269
-1.15481
-0.731226
-0.464665
-0.290888
-0.170738
-0.0848826
-0.0214018
0.0263761
0.0628465
0.0909108
0.112605
0.129385
0.142192
0.151791
0.243771
0.356821
0.250633
0.16241
0.160439
0.154546
0.145487
0.132071
0.113452
0.0878416
0.0527443
0.00485779
-0.0613172
-0.15688
-0.296246
-0.482956
0.565908
10.8985
11.5547
10.1623
-0.765901
-0.785724
-0.7717
-0.778316
-0.858411
-1.02451
-1.28008
-0.82639
4.6567
4.54124
-0.608754
4.98422
5.01734
5.32637
5.80996
6.45647
3.56389
3.18293
3.26006
2.51269
-0.145755
0.0499493
-0.196673
0.0465285
-0.281725
6.55244
7.52865
7.28063
4.20712
3.04445
3.15081
3.51231
3.47924
4.72817
7.42744
7.70362
7.75398
-0.12026
-0.561637
-0.663809
-0.88531
-1.16221
-0.916997
-0.305977
-0.957726
-1.21703
-0.8795
-0.590235
-0.398821
-0.263258
-0.164096
-0.0896654
-0.0328336
0.0110582
0.0452596
0.0720186
0.0929459
0.109306
0.121637
0.131893
0.237387
0.335946
0.142713
0.138254
0.134113
0.126276
0.114666
0.0981256
0.0755555
0.0448633
0.00311794
-0.0537874
-0.132246
-0.245086
-0.409504
-0.631072
0.202653
10.2038
11.656
11.7076
5.2218
-0.911203
-0.868362
-0.823359
-0.849652
-0.952872
-1.12841
-0.40323
5.79993
5.83142
1.6551
5.8983
5.86989
6.12198
6.57851
7.0972
5.52131
5.57559
5.47983
1.93434
-0.0219136
0.256979
-0.345797
-0.337858
-0.342961
-0.200867
3.20331
7.1913
6.53274
5.50944
4.11329
4.29993
4.40329
7.63847
8.37577
8.5654
2.27748
-0.192222
-0.202767
-0.303179
-0.475025
-0.683188
-0.869807
-0.960433
-0.915112
-0.769975
-0.586415
-0.431718
-0.312224
-0.217578
-0.142423
-0.0825108
-0.0347487
0.00341699
0.0339312
0.058282
0.0775908
0.0928291
0.104736
0.13226
0.256095
0.153032
0.118917
0.117052
0.111322
0.102066
0.0885593
0.0698783
0.0446813
0.0107315
-0.0350547
-0.0972837
-0.182774
-0.30427
-0.482048
-0.725358
-0.106285
9.99121
11.7638
11.7982
10.832
-1.01986
-0.919836
-0.804811
-0.769235
-0.811337
-0.919789
-0.833462