/*--------------------------------*- C++ -*----------------------------------*\
| =========                 |                                                 |
| \\      /  F ield         | OpenFOAM: The Open Source CFD Toolbox           |
|  \\    /   O peration     | Version:  2412                                  |
|   \\  /    A nd           | Website:  www.openfoam.com                      |
|    \\/     M anipulation  |                                                 |
\*---------------------------------------------------------------------------*/
FoamFile
{
    version     2.0;
    format      ascii;
    arch        "LSB;label=32;scalar=64";
    class       volScalarField;
    location    "0.37";
    object      p_rgh;
}
// * * * * * * * * * * * * * * * * * * * * * * * * * * * * * * * * * * * * * //

dimensions      [1 -1 -2 0 0 0 0];

internalField   nonuniform List<scalar> 
80000
(
29400.5
29400.4
29400.3
29400.3
29400.4
29400.4
29400.4
29400.5
29400.5
29400.5
29400.5
29400.5
29400.5
29400.5
29400.5
29400.5
29400.6
29400.6
29400.6
29400.6
29400.6
29400.6
29400.6
29400.6
29400.6
29400.6
29400.6
29400.6
29400.6
29400.6
29400.6
29400.6
29400.6
29400.6
29400.6
29400.6
29400.6
29400.6
29400.6
29400.6
29400.6
29400.6
29400.6
29400.6
29400.6
29400.6
29400.6
29400.6
29400.6
29400.6
29400.6
29400.6
29400.6
29400.6
29400.6
29400.6
29400.6
29400.6
29400.6
29400.6
29400.6
29400.6
29400.6
29400.6
29400.6
29400.6
29400.6
29400.6
29400.6
29400.6
29400.6
29400.6
29400.6
29400.6
29400.6
29400.6
29400.6
29400.6
29400.6
29400.6
29400.6
29400.6
29400.6
29400.6
29400.6
29400.6
29400.6
29400.6
29400.6
29400.6
29400.6
29400.6
29400.6
29400.6
29400.6
29400.6
29400.6
29400.6
29400.6
29400.6
29400.6
29400.6
29400.6
29400.6
29400.6
29400.6
29400.6
29400.6
29400.6
29400.6
29400.6
29400.6
29400.6
29400.6
29400.6
29400.6
29400.6
29400.6
29400.6
29400.6
29400.6
29400.6
29400.6
29400.6
29400.6
29400.6
29400.6
29400.6
29400.6
29400.6
29400.6
29400.6
29400.6
29400.6
29400.6
29400.6
29400.6
29400.6
29400.6
29400.6
29400.6
29400.6
29400.6
29400.6
29400.6
29400.6
29400.6
29400.6
29400.6
29400.6
29400.6
29400.6
29400.6
29400.6
29400.6
29400.6
29400.6
29400.6
29400.6
29400.6
29400.6
29400.6
29400.6
29400.6
29400.6
29400.6
29400.6
29400.6
29400.6
29400.6
29400.6
29400.6
29400.6
29400.6
29400.6
29400.6
29400.6
29400.6
29400.6
29400.6
29400.6
29400.6
29400.6
29400.6
29400.6
29400.6
29400.6
29400.6
29400.6
29400.6
29400.6
29400.6
29400.6
29400.6
29400.6
29400.6
29400.6
29400.6
29400.6
29400.6
29400.6
29400.6
29400.6
29400.6
29400.6
29400.6
29400.6
29400.6
29400.6
29400.6
29400.6
29400.6
29400.6
29400.6
29400.6
29400.6
29400.6
29400.6
29400.6
29400.6
29400.6
29400.6
29400.6
29400.6
29400.6
29400.6
29400.6
29400.7
29400.7
29400.7
29400.7
29400.7
29400.7
29400.7
29400.7
29400.7
29400.7
29400.7
29400.7
29400.7
29400.7
29400.7
29400.7
29400.7
29400.7
29400.7
29400.7
29400.7
29400.7
29400.7
29400.7
29400.7
29400.8
29400.8
29400.8
29400.8
29400.8
29400.8
29400.8
29400.8
29400.8
29400.8
29400.8
29400.8
29400.8
29400.8
29400.9
29400.9
29400.9
29400.9
29400.9
29400.9
29400.9
29400.9
29400.9
29400.9
29401
29401
29401
29401
29401
29401
29401
29401.1
29401.1
29401.1
29401.1
29401.1
29401.1
29401.2
29401.2
29401.2
29401.2
29401.2
29401.3
29401.3
29401.3
29401.3
29401.3
29401.4
29401.4
29401.4
29401.4
29401.5
29401.5
29401.5
29401.6
29401.6
29401.6
29401.7
29401.7
29401.7
29401.8
29401.8
29401.9
29401.9
29401.9
29402
29402
29402.1
29402.1
29402.2
29402.2
29402.3
29402.4
29402.4
29402.5
29402.5
29402.6
29402.7
29402.7
29402.8
29402.9
29403
29403.1
29403.1
29403.2
29403.3
29403.4
29403.5
29403.6
29403.7
29403.8
29403.9
29404
29404.1
29404.3
29404.4
29404.5
29404.7
29404.8
29405
29405.1
29405.3
29405.4
29405.6
29405.8
29405.9
29406.1
29406.3
29406.5
29406.7
29406.9
29407.2
29407.4
29407.6
29407.9
29408.1
29408.4
29408.7
29409
29409.3
29409.6
29409.9
29410.2
29410.6
29410.9
29411.3
29411.7
29412.1
29412.5
29412.9
29413.3
29413.8
29414.3
29414.7
29415.3
29415.8
29416.3
29416.9
29417.5
29418.1
29418.7
29419.4
29420.1
29420.8
29421.5
29422.3
29423.1
29423.9
29424.7
29425.6
29426.5
29427.5
29428.5
29429.5
29430.5
29431.6
29432.8
29434
29435.2
29436.4
29437.8
29439.1
29440.6
29442
29443.5
29445.1
29446.8
29448.5
29450.3
29452.1
29454
29456
29458
29460.1
29462.3
29464.6
29467
29469.5
29472
29474.7
29477.4
29480.3
29483.3
29486.3
29489.5
29492.8
29496.3
29499.9
29503.6
29507.4
29511.4
29515.5
29519.8
29524.3
29528.9
29533.7
29538.7
29543.9
29549.3
29554.9
29560.6
29566.7
29572.9
29579.4
29586.1
29593.1
29600.4
29607.9
29615.7
29623.9
29632.3
29641.1
29650.2
29659.6
29669.4
29679.6
29690.2
29701.2
29712.6
29724.5
29736.8
29749.6
29762.9
29776.8
29791.1
29806.1
29821.6
29837.7
29854.4
29871.8
29889.9
29908.7
29928.2
29948.5
29969.6
29991.5
30014.2
30037.9
30062.4
30087.9
30114.4
30141.9
30170.5
30200.1
30231
30263
30296.3
30330.8
30366.7
30404
30442.8
30483.1
30525
30568.4
30613.6
30660.6
30709.4
30760
30812.6
30867.3
30924.1
30983
31044.2
31107.8
31173.8
31242.4
31313.6
31387.4
31464.1
31543.7
31626.3
31711.9
31800.8
31892.8
31988.2
32087.1
32189.4
32295.4
32405.1
32518.5
32635.8
32757
32882.3
33011.7
33145.2
33283
33425
33571.4
33722
33877.1
34036.5
34200.1
34368.1
34540.2
34716.5
34896.7
35080.8
35268.6
35459.9
35654.5
35852.1
36052.5
36255.3
36460.2
36666.8
36874.7
37083.3
37292.3
37501
37708.9
37915.4
38119.8
38321.5
38519.9
38714.3
38903.9
39088
39266
39437.2
39600.8
39756.2
39902.7
40039.6
40166.3
40282.3
40386.9
40479.7
40560.3
40628.2
40682.9
40724.4
40752.6
40767.1
40767.8
40754.7
40727.8
40687.4
40633.6
40566.5
40486.3
40393.6
40288.6
40171.8
40043.8
39905.1
39756.2
39597.9
39430.8
39255.7
39073.2
38884
38689
38488.8
38284.1
38075.8
37864.5
37650.9
37435.7
37219.5
37002.9
36786.5
36570.9
36356.6
36144.1
35933.8
35726
35521
35319.4
35121.2
34926.8
34736.5
34550.3
34368.4
34190.9
34017.9
33849.6
33685.9
33527
33372.7
33223
33077.9
32937.4
32801.3
32669.7
32542.4
32419.6
32301
32186.5
32076.2
31969.9
31867.4
31768.6
31673.5
31581.9
31493.7
31408.9
31327.2
31248.6
31173.1
31100.5
31030.8
30963.8
30899.5
30837.7
30778.4
30721.4
30666.8
30614.4
30564
30515.7
30469.4
30424.9
30382.2
30341.3
30302
30264.3
30228.1
30193.4
30160.1
30128.2
30097.6
30068.3
30040.2
30013.2
29987.4
29962.6
29938.8
29916.1
29894.2
29873.3
29853.2
29834
29815.5
29797.9
29780.9
29764.7
29749.2
29734.3
29720
29706.4
29693.3
29680.8
29668.8
29657.4
29646.4
29635.9
29625.8
29616.1
29606.9
29598.1
29589.6
29581.5
29573.7
29566.3
29559.1
29552.3
29545.8
29539.5
29533.5
29527.8
29522.3
29517.1
29512
29507.2
29502.6
29498.2
29493.9
29489.9
29486
29482.3
29478.8
29475.4
29472.1
29469
29466
29463.2
29460.4
29457.8
29455.3
29452.9
29450.7
29448.5
29446.4
29444.4
29442.4
29440.6
29438.8
29437.2
29435.6
29434
29432.5
29431.1
29429.8
29428.5
29427.3
29426.1
29425
29423.9
29422.8
29421.9
29420.9
29420
29419.1
29418.3
29417.5
29416.8
29416
29415.4
29414.7
29414.1
29413.5
29412.9
29412.3
29411.8
29411.3
29410.8
29410.4
29409.9
29409.5
29409.1
29408.7
29408.3
29408
29407.7
29407.3
29407
29406.7
29406.5
29406.2
29405.9
29405.7
29405.5
29405.2
29405
29404.8
29404.6
29404.5
29404.3
29404.1
29403.9
29403.8
29403.6
29403.5
29403.4
29403.2
29403.1
29403
29402.9
29402.8
29402.7
29402.6
29402.5
29402.4
29402.3
29402.2
29402.2
29402.1
29402
29402
29401.9
29401.8
29401.8
29401.7
29401.7
29401.6
29401.6
29401.5
29401.5
29401.4
29401.4
29401.4
29401.3
29401.3
29401.3
29401.2
29401.2
29401.2
29401.1
29401.1
29401.1
29401.1
29401
29401
29401
29401
29401
29400.9
29400.9
29400.9
29400.9
29400.9
29400.9
29400.9
29400.8
29400.8
29400.8
29400.8
29400.8
29400.8
29400.8
29400.8
29400.8
29400.7
29400.7
29400.7
29400.7
29400.7
29400.7
29400.7
29400.7
29400.7
29400.7
29400.7
29400.7
29400.7
29400.7
29400.7
29400.7
29400.7
29400.7
29400.6
29400.6
29400.6
29400.6
29400.6
29400.6
29400.6
29400.6
29400.6
29400.6
29400.6
29400.6
29400.6
29400.6
29400.6
29400.6
29400.6
29400.6
29400.6
29400.6
29400.6
29400.6
29400.6
29400.6
29400.6
29400.6
29400.6
29400.6
29400.6
29400.6
29400.6
29400.6
29400.6
29400.6
29400.6
29400.6
29400.6
29400.6
29400.6
29400.6
29400.6
29400.6
29400.6
29400.6
29400.6
29400.6
29400.6
29400.6
29400.6
29400.6
29400.6
29400.6
29400.6
29400.6
29400.6
29400.6
29400.6
29400.6
29400.6
29400.6
29400.6
29400.6
29400.6
29400.6
29400.6
29400.6
29400.6
29400.6
29400.6
29400.6
29400.6
29400.6
29400.6
29400.6
29400.6
29400.6
29400.6
29400.6
29400.6
29400.6
29400.6
29400.6
29400.6
29400.6
29400.6
29400.6
29400.6
29400.6
29400.6
29400.6
29400.6
29400.6
29400.6
29400.6
29400.6
29400.6
29400.6
29400.6
29400.6
29400.6
29400.6
29400.6
29400.6
29400.6
29400.6
29400.6
29400.6
29400.6
29400.6
29400.6
29400.6
29400.6
29400.6
29400.6
29400.6
29400.6
29400.6
29400.6
29400.6
29400.6
29400.6
29400.6
29400.6
29400.6
29400.6
29400.6
29400.6
29400.6
29400.7
29400.7
29400.7
29400.6
29400.6
29400.6
29400.6
29400.6
29400.6
29400.6
29400.6
29400.6
29400.6
29400.6
29400.6
29400.6
29400.6
29400.6
29400.6
29400.6
29400.6
29400.6
29400.5
29400.5
29400.5
29400.5
29400.5
29400.5
29400.6
29400.6
29400.6
29400.6
29400.6
29400.6
29400.6
29400.6
29400.6
29400.6
29400.6
29400.6
29400.6
29400.6
29400.6
29400.6
29400.6
29400.6
29400.6
29400.6
29400.6
29400.6
29400.6
29400.6
29400.6
29400.6
29400.6
29400.6
29400.6
29400.6
29400.6
29400.6
29400.6
29400.6
29400.6
29400.6
29400.6
29400.6
29400.6
29400.6
29400.6
29400.6
29400.6
29400.6
29400.6
29400.6
29400.6
29400.6
29400.6
29400.6
29400.6
29400.6
29400.6
29400.6
29400.6
29400.6
29400.6
29400.6
29400.6
29400.6
29400.6
29400.6
29400.6
29400.6
29400.6
29400.6
29400.6
29400.6
29400.6
29400.6
29400.6
29400.6
29400.6
29400.6
29400.6
29400.6
29400.6
29400.6
29400.6
29400.6
29400.6
29400.6
29400.6
29400.6
29400.6
29400.6
29400.6
29400.6
29400.6
29400.6
29400.6
29400.6
29400.6
29400.6
29400.6
29400.6
29400.6
29400.6
29400.6
29400.6
29400.6
29400.6
29400.6
29400.6
29400.6
29400.6
29400.6
29400.6
29400.6
29400.6
29400.6
29400.6
29400.6
29400.6
29400.6
29400.6
29400.6
29400.6
29400.6
29400.6
29400.6
29400.6
29400.6
29400.6
29400.6
29400.6
29400.6
29400.6
29400.6
29400.6
29400.6
29400.6
29400.6
29400.6
29400.6
29400.6
29400.6
29400.6
29400.6
29400.6
29400.6
29400.6
29400.6
29400.6
29400.6
29400.6
29400.6
29400.6
29400.6
29400.6
29400.6
29400.6
29400.6
29400.6
29400.6
29400.6
29400.6
29400.6
29400.6
29400.6
29400.6
29400.6
29400.6
29400.6
29400.6
29400.6
29400.6
29400.6
29400.6
29400.6
29400.6
29400.6
29400.6
29400.6
29400.6
29400.6
29400.6
29400.6
29400.6
29400.6
29400.6
29400.6
29400.6
29400.6
29400.6
29400.6
29400.6
29400.6
29400.6
29400.6
29400.6
29400.6
29400.6
29400.6
29400.6
29400.6
29400.6
29400.6
29400.6
29400.7
29400.7
29400.7
29400.7
29400.7
29400.7
29400.7
29400.7
29400.7
29400.7
29400.7
29400.7
29400.7
29400.7
29400.7
29400.7
29400.7
29400.7
29400.7
29400.7
29400.7
29400.7
29400.7
29400.7
29400.7
29400.8
29400.8
29400.8
29400.8
29400.8
29400.8
29400.8
29400.8
29400.8
29400.8
29400.8
29400.8
29400.8
29400.8
29400.9
29400.9
29400.9
29400.9
29400.9
29400.9
29400.9
29400.9
29400.9
29400.9
29401
29401
29401
29401
29401
29401
29401
29401
29401.1
29401.1
29401.1
29401.1
29401.1
29401.2
29401.2
29401.2
29401.2
29401.2
29401.3
29401.3
29401.3
29401.3
29401.3
29401.4
29401.4
29401.4
29401.4
29401.5
29401.5
29401.5
29401.6
29401.6
29401.6
29401.7
29401.7
29401.7
29401.8
29401.8
29401.9
29401.9
29401.9
29402
29402
29402.1
29402.1
29402.2
29402.2
29402.3
29402.4
29402.4
29402.5
29402.5
29402.6
29402.7
29402.7
29402.8
29402.9
29403
29403
29403.1
29403.2
29403.3
29403.4
29403.5
29403.6
29403.7
29403.8
29403.9
29404
29404.1
29404.3
29404.4
29404.5
29404.7
29404.8
29404.9
29405.1
29405.2
29405.4
29405.6
29405.8
29405.9
29406.1
29406.3
29406.5
29406.7
29406.9
29407.2
29407.4
29407.6
29407.9
29408.1
29408.4
29408.7
29408.9
29409.2
29409.6
29409.9
29410.2
29410.5
29410.9
29411.3
29411.6
29412
29412.4
29412.9
29413.3
29413.8
29414.2
29414.7
29415.2
29415.8
29416.3
29416.9
29417.5
29418.1
29418.7
29419.4
29420
29420.8
29421.5
29422.2
29423
29423.8
29424.7
29425.6
29426.5
29427.4
29428.4
29429.4
29430.5
29431.6
29432.7
29433.9
29435.1
29436.4
29437.7
29439.1
29440.5
29442
29443.5
29445.1
29446.7
29448.4
29450.2
29452
29453.9
29455.9
29457.9
29460.1
29462.3
29464.5
29466.9
29469.4
29471.9
29474.6
29477.3
29480.2
29483.1
29486.2
29489.4
29492.7
29496.1
29499.7
29503.4
29507.2
29511.2
29515.4
29519.7
29524.1
29528.7
29533.5
29538.5
29543.7
29549
29554.6
29560.4
29566.4
29572.6
29579.1
29585.8
29592.8
29600.1
29607.6
29615.4
29623.5
29631.9
29640.7
29649.8
29659.2
29669
29679.2
29689.8
29700.8
29712.2
29724
29736.3
29749.1
29762.4
29776.2
29790.5
29805.5
29820.9
29837
29853.7
29871.1
29889.2
29907.9
29927.4
29947.7
29968.7
29990.6
30013.3
30036.9
30061.4
30086.9
30113.3
30140.8
30169.3
30199
30229.7
30261.7
30294.9
30329.4
30365.3
30402.6
30441.3
30481.5
30523.3
30566.7
30611.9
30658.7
30707.4
30758
30810.6
30865.2
30921.9
30980.7
31041.9
31105.4
31171.3
31239.8
31310.9
31384.7
31461.3
31540.8
31623.3
31708.8
31797.5
31889.5
31984.9
32083.6
32185.9
32291.8
32401.3
32514.7
32631.9
32753.1
32878.3
33007.6
33141.1
33278.8
33420.8
33567.2
33717.9
33872.9
34032.3
34196.1
34364.1
34536.3
34712.7
34893.1
35077.3
35265.3
35456.8
35651.7
35849.6
36050.3
36253.4
36458.7
36665.7
36874
37083.2
37292.7
37501.9
37710.4
37917.4
38122.5
38324.9
38523.9
38718.9
38909.1
39093.9
39272.6
39444.3
39608.6
39764.5
39911.6
40049
40176.2
40292.6
40397.7
40490.8
40571.7
40639.8
40694.9
40736.6
40764.8
40779.3
40780.1
40766.9
40740
40699.5
40645.4
40578
40497.5
40404.3
40298.9
40181.7
40053.2
39913.9
39764.5
39605.7
39438
39262.2
39079
38889.2
38693.5
38492.7
38287.3
38078.4
37866.4
37652.2
37436.4
37219.6
37002.5
36785.7
36569.6
36354.9
36142
35931.3
35723.1
35518
35316
35117.7
34923.2
34732.7
34546.4
34364.4
34186.8
34013.8
33845.4
33681.8
33522.8
33368.5
33218.9
33073.8
32933.3
32797.3
32665.8
32538.6
32415.8
32297.3
32183
32072.8
31966.5
31864.2
31765.5
31670.5
31579
31490.9
31406.1
31324.5
31246
31170.6
31098.1
31028.4
30961.5
30897.3
30835.6
30776.4
30719.5
30664.9
30612.6
30562.3
30514.1
30467.8
30423.4
30380.8
30339.9
30300.6
30263
30226.8
30192.2
30159
30127.1
30096.6
30067.3
30039.2
30012.3
29986.5
29961.8
29938
29915.3
29893.5
29872.6
29852.5
29833.3
29814.9
29797.3
29780.3
29764.1
29748.6
29733.8
29719.5
29705.9
29692.9
29680.4
29668.4
29657
29646
29635.5
29625.5
29615.8
29606.6
29597.8
29589.3
29581.2
29573.4
29566
29558.9
29552.1
29545.6
29539.3
29533.3
29527.6
29522.1
29516.9
29511.8
29507
29502.4
29498
29493.8
29489.8
29485.9
29482.2
29478.7
29475.3
29472
29468.9
29465.9
29463.1
29460.4
29457.8
29455.3
29452.9
29450.6
29448.4
29446.3
29444.3
29442.4
29440.5
29438.8
29437.1
29435.5
29434
29432.5
29431.1
29429.7
29428.5
29427.2
29426
29424.9
29423.8
29422.8
29421.8
29420.9
29420
29419.1
29418.3
29417.5
29416.7
29416
29415.3
29414.7
29414
29413.4
29412.9
29412.3
29411.8
29411.3
29410.8
29410.3
29409.9
29409.5
29409.1
29408.7
29408.3
29408
29407.6
29407.3
29407
29406.7
29406.5
29406.2
29405.9
29405.7
29405.5
29405.2
29405
29404.8
29404.6
29404.4
29404.3
29404.1
29403.9
29403.8
29403.6
29403.5
29403.4
29403.2
29403.1
29403
29402.9
29402.8
29402.7
29402.6
29402.5
29402.4
29402.3
29402.2
29402.2
29402.1
29402
29402
29401.9
29401.8
29401.8
29401.7
29401.7
29401.6
29401.6
29401.5
29401.5
29401.4
29401.4
29401.4
29401.3
29401.3
29401.3
29401.2
29401.2
29401.2
29401.1
29401.1
29401.1
29401.1
29401
29401
29401
29401
29401
29400.9
29400.9
29400.9
29400.9
29400.9
29400.9
29400.9
29400.8
29400.8
29400.8
29400.8
29400.8
29400.8
29400.8
29400.8
29400.8
29400.7
29400.7
29400.7
29400.7
29400.7
29400.7
29400.7
29400.7
29400.7
29400.7
29400.7
29400.7
29400.7
29400.7
29400.7
29400.7
29400.7
29400.7
29400.6
29400.6
29400.6
29400.6
29400.6
29400.6
29400.6
29400.6
29400.6
29400.6
29400.6
29400.6
29400.6
29400.6
29400.6
29400.6
29400.6
29400.6
29400.6
29400.6
29400.6
29400.6
29400.6
29400.6
29400.6
29400.6
29400.6
29400.6
29400.6
29400.6
29400.6
29400.6
29400.6
29400.6
29400.6
29400.6
29400.6
29400.6
29400.6
29400.6
29400.6
29400.6
29400.6
29400.6
29400.6
29400.6
29400.6
29400.6
29400.6
29400.6
29400.6
29400.6
29400.6
29400.6
29400.6
29400.6
29400.6
29400.6
29400.6
29400.6
29400.6
29400.6
29400.6
29400.6
29400.6
29400.6
29400.6
29400.6
29400.6
29400.6
29400.6
29400.6
29400.6
29400.6
29400.6
29400.6
29400.6
29400.6
29400.6
29400.6
29400.6
29400.6
29400.6
29400.6
29400.6
29400.6
29400.6
29400.6
29400.6
29400.6
29400.6
29400.6
29400.6
29400.6
29400.6
29400.6
29400.6
29400.6
29400.6
29400.6
29400.6
29400.6
29400.6
29400.6
29400.6
29400.6
29400.6
29400.6
29400.6
29400.6
29400.6
29400.6
29400.6
29400.6
29400.6
29400.6
29400.6
29400.6
29400.6
29400.6
29400.6
29400.6
29400.6
29400.6
29400.6
29400.6
29400.6
29400.6
29400.5
29400.6
29400.6
29400.6
29400.6
29400.6
29400.6
29400.6
29400.6
29400.6
29400.6
29400.6
29400.6
29400.6
29400.6
29400.6
29400.6
29400.6
29400.6
29400.6
29400.6
29400.6
29400.6
29400.6
29400.6
29400.6
29400.6
29400.6
29400.6
29400.6
29400.6
29400.6
29400.6
29400.6
29400.6
29400.6
29400.6
29400.6
29400.6
29400.6
29400.6
29400.6
29400.6
29400.6
29400.6
29400.6
29400.6
29400.6
29400.6
29400.6
29400.6
29400.6
29400.6
29400.6
29400.6
29400.6
29400.6
29400.6
29400.6
29400.6
29400.6
29400.6
29400.6
29400.6
29400.6
29400.6
29400.6
29400.6
29400.6
29400.6
29400.6
29400.6
29400.6
29400.6
29400.6
29400.6
29400.6
29400.6
29400.6
29400.6
29400.6
29400.6
29400.6
29400.6
29400.6
29400.6
29400.6
29400.6
29400.6
29400.6
29400.6
29400.6
29400.6
29400.6
29400.6
29400.6
29400.6
29400.6
29400.6
29400.6
29400.6
29400.6
29400.6
29400.6
29400.6
29400.6
29400.6
29400.6
29400.6
29400.6
29400.6
29400.6
29400.6
29400.6
29400.6
29400.6
29400.6
29400.6
29400.6
29400.6
29400.6
29400.6
29400.6
29400.6
29400.6
29400.6
29400.6
29400.6
29400.6
29400.6
29400.6
29400.6
29400.6
29400.6
29400.6
29400.6
29400.6
29400.6
29400.6
29400.6
29400.6
29400.6
29400.6
29400.6
29400.6
29400.6
29400.6
29400.6
29400.6
29400.6
29400.6
29400.6
29400.6
29400.6
29400.6
29400.6
29400.6
29400.6
29400.6
29400.6
29400.6
29400.6
29400.6
29400.6
29400.6
29400.6
29400.6
29400.6
29400.6
29400.6
29400.6
29400.6
29400.6
29400.6
29400.6
29400.6
29400.6
29400.6
29400.6
29400.6
29400.6
29400.6
29400.6
29400.6
29400.6
29400.6
29400.6
29400.6
29400.6
29400.6
29400.6
29400.6
29400.6
29400.6
29400.6
29400.6
29400.6
29400.6
29400.6
29400.6
29400.6
29400.6
29400.6
29400.6
29400.6
29400.6
29400.6
29400.6
29400.6
29400.6
29400.6
29400.6
29400.6
29400.6
29400.6
29400.6
29400.6
29400.6
29400.6
29400.6
29400.6
29400.6
29400.6
29400.6
29400.6
29400.6
29400.6
29400.7
29400.7
29400.7
29400.7
29400.7
29400.7
29400.7
29400.7
29400.7
29400.7
29400.7
29400.7
29400.7
29400.7
29400.7
29400.7
29400.7
29400.7
29400.7
29400.7
29400.7
29400.7
29400.7
29400.7
29400.7
29400.7
29400.8
29400.8
29400.8
29400.8
29400.8
29400.8
29400.8
29400.8
29400.8
29400.8
29400.8
29400.8
29400.8
29400.8
29400.9
29400.9
29400.9
29400.9
29400.9
29400.9
29400.9
29400.9
29400.9
29401
29401
29401
29401
29401
29401
29401
29401
29401.1
29401.1
29401.1
29401.1
29401.1
29401.1
29401.2
29401.2
29401.2
29401.2
29401.2
29401.3
29401.3
29401.3
29401.3
29401.4
29401.4
29401.4
29401.4
29401.5
29401.5
29401.5
29401.6
29401.6
29401.6
29401.7
29401.7
29401.7
29401.8
29401.8
29401.9
29401.9
29401.9
29402
29402
29402.1
29402.1
29402.2
29402.2
29402.3
29402.4
29402.4
29402.5
29402.5
29402.6
29402.7
29402.7
29402.8
29402.9
29403
29403
29403.1
29403.2
29403.3
29403.4
29403.5
29403.6
29403.7
29403.8
29403.9
29404
29404.1
29404.3
29404.4
29404.5
29404.6
29404.8
29404.9
29405.1
29405.2
29405.4
29405.6
29405.7
29405.9
29406.1
29406.3
29406.5
29406.7
29406.9
29407.1
29407.4
29407.6
29407.8
29408.1
29408.4
29408.6
29408.9
29409.2
29409.5
29409.8
29410.2
29410.5
29410.9
29411.2
29411.6
29412
29412.4
29412.8
29413.3
29413.7
29414.2
29414.7
29415.2
29415.7
29416.3
29416.8
29417.4
29418
29418.7
29419.3
29420
29420.7
29421.4
29422.2
29423
29423.8
29424.6
29425.5
29426.4
29427.4
29428.3
29429.3
29430.4
29431.5
29432.6
29433.8
29435
29436.3
29437.6
29439
29440.4
29441.8
29443.4
29444.9
29446.6
29448.3
29450
29451.9
29453.7
29455.7
29457.8
29459.9
29462.1
29464.3
29466.7
29469.2
29471.7
29474.4
29477.1
29479.9
29482.9
29486
29489.1
29492.4
29495.9
29499.4
29503.1
29506.9
29510.9
29515
29519.3
29523.7
29528.3
29533.1
29538.1
29543.2
29548.6
29554.2
29559.9
29565.9
29572.1
29578.6
29585.3
29592.2
29599.5
29607
29614.8
29622.8
29631.2
29640
29649
29658.4
29668.2
29678.3
29688.9
29699.8
29711.2
29723
29735.3
29748.1
29761.3
29775.1
29789.4
29804.2
29819.7
29835.7
29852.4
29869.7
29887.7
29906.4
29925.8
29946
29967
29988.8
30011.5
30035
30059.4
30084.8
30111.2
30138.6
30167
30196.6
30227.3
30259.1
30292.3
30326.7
30362.4
30399.6
30438.2
30478.3
30520
30563.3
30608.3
30655
30703.6
30754.1
30806.5
30860.9
30917.5
30976.2
31037.2
31100.5
31166.3
31234.6
31305.5
31379.2
31455.6
31534.9
31617.2
31702.6
31791.1
31882.9
31978.1
32076.7
32178.8
32284.5
32393.9
32507.1
32624.1
32745.2
32870.3
32999.5
33132.9
33270.5
33412.5
33558.8
33709.5
33864.6
34024
34187.9
34356
34528.4
34705
34885.7
35070.3
35258.6
35450.6
35645.9
35844.4
36045.8
36249.6
36455.7
36663.5
36872.7
37082.9
37293.4
37503.7
37713.3
37921.6
38127.8
38331.5
38531.8
38728.1
38919.6
39105.7
39285.7
39458.7
39624.1
39781.2
39929.4
40067.8
40196
40313.3
40419.1
40513
40594.5
40663.2
40718.7
40760.8
40789.3
40803.9
40804.7
40791.5
40764.4
40723.5
40668.9
40600.9
40519.8
40425.8
40319.6
40201.4
40071.9
39931.7
39781.2
39621.2
39452.3
39275.2
39090.7
38899.6
38702.6
38500.4
38293.7
38083.4
37870.1
37654.7
37437.7
37219.8
37001.7
36783.9
36566.9
36351.3
36137.6
35926.2
35717.5
35511.8
35309.5
35110.7
34915.9
34725.1
34538.6
34356.4
34178.7
34005.6
33837.1
33673.4
33514.4
33360.2
33210.6
33065.6
32925.2
32789.3
32657.9
32531
32408.4
32290
32175.9
32065.9
31959.9
31857.7
31759.2
31664.4
31573
31485.1
31400.5
31319.1
31240.8
31165.5
31093.2
31023.8
30957
30893
30831.4
30772.4
30715.7
30661.3
30609
30558.9
30510.8
30464.7
30420.4
30377.9
30337.1
30297.9
30260.4
30224.4
30189.8
30156.7
30125
30094.5
30065.3
30037.3
30010.5
29984.7
29960.1
29936.4
29913.7
29892
29871.2
29851.2
29832
29813.6
29796.1
29779.2
29763
29747.6
29732.8
29718.6
29705
29692
29679.5
29667.6
29656.2
29645.3
29634.8
29624.8
29615.2
29606
29597.2
29588.7
29580.6
29572.9
29565.5
29558.4
29551.6
29545.1
29538.9
29532.9
29527.2
29521.8
29516.5
29511.5
29506.7
29502.1
29497.7
29493.5
29489.5
29485.6
29481.9
29478.4
29475
29471.8
29468.7
29465.7
29462.9
29460.2
29457.6
29455.1
29452.7
29450.4
29448.2
29446.2
29444.2
29442.3
29440.4
29438.7
29437
29435.4
29433.9
29432.4
29431
29429.7
29428.4
29427.1
29426
29424.8
29423.8
29422.7
29421.8
29420.8
29419.9
29419.1
29418.2
29417.4
29416.7
29416
29415.3
29414.6
29414
29413.4
29412.8
29412.3
29411.8
29411.3
29410.8
29410.3
29409.9
29409.5
29409.1
29408.7
29408.3
29408
29407.6
29407.3
29407
29406.7
29406.4
29406.2
29405.9
29405.7
29405.4
29405.2
29405
29404.8
29404.6
29404.4
29404.3
29404.1
29403.9
29403.8
29403.6
29403.5
29403.4
29403.2
29403.1
29403
29402.9
29402.8
29402.7
29402.6
29402.5
29402.4
29402.3
29402.2
29402.2
29402.1
29402
29402
29401.9
29401.8
29401.8
29401.7
29401.7
29401.6
29401.6
29401.5
29401.5
29401.4
29401.4
29401.4
29401.3
29401.3
29401.3
29401.2
29401.2
29401.2
29401.1
29401.1
29401.1
29401.1
29401
29401
29401
29401
29401
29400.9
29400.9
29400.9
29400.9
29400.9
29400.9
29400.9
29400.8
29400.8
29400.8
29400.8
29400.8
29400.8
29400.8
29400.8
29400.8
29400.7
29400.7
29400.7
29400.7
29400.7
29400.7
29400.7
29400.7
29400.7
29400.7
29400.7
29400.7
29400.7
29400.7
29400.7
29400.7
29400.7
29400.7
29400.6
29400.6
29400.6
29400.6
29400.6
29400.6
29400.6
29400.6
29400.6
29400.6
29400.6
29400.6
29400.6
29400.6
29400.6
29400.6
29400.6
29400.6
29400.6
29400.6
29400.6
29400.6
29400.6
29400.6
29400.6
29400.6
29400.6
29400.6
29400.6
29400.6
29400.6
29400.6
29400.6
29400.6
29400.6
29400.6
29400.6
29400.6
29400.6
29400.6
29400.6
29400.6
29400.6
29400.6
29400.6
29400.6
29400.6
29400.6
29400.6
29400.6
29400.6
29400.6
29400.6
29400.6
29400.6
29400.6
29400.6
29400.6
29400.6
29400.6
29400.6
29400.6
29400.6
29400.6
29400.6
29400.6
29400.6
29400.6
29400.6
29400.6
29400.6
29400.6
29400.6
29400.6
29400.6
29400.6
29400.6
29400.6
29400.6
29400.6
29400.6
29400.6
29400.6
29400.6
29400.6
29400.6
29400.6
29400.6
29400.6
29400.6
29400.6
29400.6
29400.6
29400.6
29400.6
29400.6
29400.6
29400.6
29400.6
29400.6
29400.6
29400.6
29400.6
29400.6
29400.6
29400.6
29400.6
29400.6
29400.6
29400.6
29400.6
29400.6
29400.6
29400.6
29400.6
29400.6
29400.6
29400.6
29400.6
29400.6
29400.6
29400.6
29400.6
29400.6
29400.6
29400.6
29400.6
29400.6
29400.6
29400.6
29400.6
29400.6
29400.6
29400.6
29400.6
29400.6
29400.6
29400.6
29400.6
29400.6
29400.6
29400.6
29400.6
29400.6
29400.6
29400.6
29400.6
29400.6
29400.6
29400.6
29400.6
29400.6
29400.6
29400.6
29400.6
29400.6
29400.6
29400.6
29400.6
29400.6
29400.6
29400.6
29400.6
29400.6
29400.6
29400.6
29400.6
29400.6
29400.6
29400.6
29400.6
29400.6
29400.6
29400.6
29400.6
29400.6
29400.6
29400.6
29400.6
29400.6
29400.6
29400.6
29400.6
29400.6
29400.6
29400.6
29400.6
29400.6
29400.6
29400.6
29400.6
29400.6
29400.6
29400.6
29400.6
29400.6
29400.6
29400.6
29400.6
29400.6
29400.6
29400.6
29400.6
29400.6
29400.6
29400.6
29400.6
29400.6
29400.6
29400.6
29400.6
29400.6
29400.6
29400.6
29400.6
29400.6
29400.6
29400.6
29400.6
29400.6
29400.6
29400.6
29400.6
29400.6
29400.6
29400.6
29400.6
29400.6
29400.6
29400.6
29400.6
29400.6
29400.6
29400.6
29400.6
29400.6
29400.6
29400.6
29400.6
29400.6
29400.6
29400.6
29400.6
29400.6
29400.6
29400.6
29400.6
29400.6
29400.6
29400.6
29400.6
29400.6
29400.6
29400.6
29400.6
29400.6
29400.6
29400.6
29400.6
29400.6
29400.6
29400.6
29400.6
29400.6
29400.6
29400.6
29400.6
29400.6
29400.6
29400.6
29400.6
29400.6
29400.6
29400.6
29400.6
29400.6
29400.6
29400.6
29400.6
29400.6
29400.6
29400.6
29400.6
29400.6
29400.6
29400.6
29400.6
29400.6
29400.6
29400.6
29400.6
29400.6
29400.6
29400.6
29400.6
29400.6
29400.6
29400.6
29400.6
29400.6
29400.6
29400.6
29400.6
29400.6
29400.6
29400.6
29400.6
29400.6
29400.6
29400.6
29400.6
29400.6
29400.6
29400.6
29400.6
29400.6
29400.6
29400.6
29400.6
29400.6
29400.6
29400.6
29400.6
29400.6
29400.6
29400.6
29400.6
29400.6
29400.6
29400.6
29400.6
29400.6
29400.6
29400.6
29400.6
29400.6
29400.6
29400.6
29400.6
29400.6
29400.6
29400.6
29400.6
29400.6
29400.6
29400.6
29400.6
29400.6
29400.6
29400.6
29400.6
29400.6
29400.6
29400.6
29400.6
29400.7
29400.7
29400.7
29400.7
29400.7
29400.7
29400.7
29400.7
29400.7
29400.7
29400.7
29400.7
29400.7
29400.7
29400.7
29400.7
29400.7
29400.7
29400.7
29400.7
29400.7
29400.7
29400.7
29400.7
29400.7
29400.7
29400.8
29400.8
29400.8
29400.8
29400.8
29400.8
29400.8
29400.8
29400.8
29400.8
29400.8
29400.8
29400.8
29400.8
29400.9
29400.9
29400.9
29400.9
29400.9
29400.9
29400.9
29400.9
29400.9
29401
29401
29401
29401
29401
29401
29401
29401
29401.1
29401.1
29401.1
29401.1
29401.1
29401.1
29401.2
29401.2
29401.2
29401.2
29401.2
29401.3
29401.3
29401.3
29401.3
29401.4
29401.4
29401.4
29401.4
29401.5
29401.5
29401.5
29401.6
29401.6
29401.6
29401.7
29401.7
29401.7
29401.8
29401.8
29401.9
29401.9
29401.9
29402
29402
29402.1
29402.1
29402.2
29402.2
29402.3
29402.3
29402.4
29402.5
29402.5
29402.6
29402.7
29402.7
29402.8
29402.9
29403
29403
29403.1
29403.2
29403.3
29403.4
29403.5
29403.6
29403.7
29403.8
29403.9
29404
29404.1
29404.2
29404.4
29404.5
29404.6
29404.8
29404.9
29405.1
29405.2
29405.4
29405.5
29405.7
29405.9
29406.1
29406.3
29406.5
29406.7
29406.9
29407.1
29407.3
29407.6
29407.8
29408.1
29408.3
29408.6
29408.9
29409.2
29409.5
29409.8
29410.1
29410.5
29410.8
29411.2
29411.6
29411.9
29412.4
29412.8
29413.2
29413.7
29414.1
29414.6
29415.1
29415.6
29416.2
29416.8
29417.3
29417.9
29418.6
29419.2
29419.9
29420.6
29421.3
29422.1
29422.9
29423.7
29424.5
29425.4
29426.3
29427.2
29428.2
29429.2
29430.3
29431.4
29432.5
29433.6
29434.9
29436.1
29437.4
29438.8
29440.2
29441.6
29443.2
29444.7
29446.4
29448
29449.8
29451.6
29453.5
29455.5
29457.5
29459.6
29461.8
29464.1
29466.4
29468.9
29471.4
29474
29476.7
29479.6
29482.5
29485.6
29488.7
29492
29495.4
29499
29502.6
29506.4
29510.4
29514.5
29518.7
29523.2
29527.8
29532.5
29537.5
29542.6
29547.9
29553.5
29559.2
29565.2
29571.3
29577.8
29584.4
29591.4
29598.6
29606
29613.8
29621.8
29630.2
29638.9
29647.9
29657.3
29667
29677.1
29687.6
29698.5
29709.8
29721.6
29733.8
29746.5
29759.7
29773.4
29787.6
29802.4
29817.8
29833.7
29850.3
29867.6
29885.5
29904.1
29923.5
29943.6
29964.5
29986.2
30008.7
30032.1
30056.4
30081.7
30108
30135.2
30163.6
30193
30223.5
30255.3
30288.3
30322.5
30358.1
30395.1
30433.6
30473.5
30515
30558.2
30603
30649.5
30697.9
30748.1
30800.3
30854.6
30910.9
30969.4
31030.1
31093.3
31158.8
31226.8
31297.5
31370.9
31447.1
31526.1
31608.2
31693.3
31781.5
31873.1
31967.9
32066.2
32168.1
32273.5
32382.7
32495.6
32612.5
32733.3
32858.2
32987.3
33120.5
33258.1
33399.9
33546.2
33696.9
33852
34011.6
34175.5
34343.9
34516.6
34693.5
34874.6
35059.6
35248.6
35441.2
35637.3
35836.6
36038.9
36243.8
36451.1
36660.2
36870.7
37082.3
37294.3
37506.3
37717.6
37927.7
38135.8
38341.3
38543.6
38741.8
38935.4
39123.4
39305.3
39480.2
39647.5
39806.3
39956.1
40096.1
40225.8
40344.4
40451.4
40546.4
40628.9
40698.4
40754.6
40797.3
40826.1
40840.9
40841.7
40828.3
40800.9
40759.5
40704.2
40635.4
40553.3
40458.3
40350.8
40231.3
40100.3
39958.4
39806.2
39644.4
39473.6
39294.7
39108.2
38915.1
38716
38511.8
38303.2
38090.9
37875.7
37658.4
37439.7
37220.2
37000.5
36781.2
36562.8
36345.9
36131.1
35918.7
35709
35502.6
35299.5
35100.2
34904.8
34713.6
34526.7
34344.3
34166.4
33993.2
33824.6
33660.8
33501.8
33347.6
33198.1
33053.2
32913
32777.4
32646.2
32519.5
32397.2
32279.1
32165.3
32055.5
31949.8
31847.8
31749.7
31655.1
31564
31476.4
31392.1
31311
31233
31158
31086
31016.8
30950.3
30886.5
30825.2
30766.4
30709.9
30655.7
30603.7
30553.8
30505.9
30459.9
30415.8
30373.5
30332.9
30293.9
30256.5
30220.7
30186.3
30153.3
30121.7
30091.4
30062.3
30034.4
30007.7
29982.1
29957.5
29934
29911.4
29889.8
29869
29849.1
29830
29811.8
29794.2
29777.5
29761.4
29746
29731.3
29717.1
29703.6
29690.7