/*--------------------------------*- C++ -*----------------------------------*\
| =========                 |                                                 |
| \\      /  F ield         | OpenFOAM: The Open Source CFD Toolbox           |
|  \\    /   O peration     | Version:  2412                                  |
|   \\  /    A nd           | Website:  www.openfoam.com                      |
|    \\/     M anipulation  |                                                 |
\*---------------------------------------------------------------------------*/
FoamFile
{
    version     2.0;
    format      ascii;
    arch        "LSB;label=32;scalar=64";
    class       volScalarField;
    location    "2.1";
    object      alpha.ethanol;
}
// * * * * * * * * * * * * * * * * * * * * * * * * * * * * * * * * * * * * * //

dimensions      [0 0 0 0 0 0 0];

internalField   nonuniform List<scalar> 
6400
(
1
1
1
1
0.999999
1
1
1
1
0.999999
1
1
1
1
1
1
1
1
0.999999
1
1
1
1
1
1
1
0.999999
1
1
1
1
1
1
1
1
1
1
1
1
1
1
1
1
1
1
1
1
1
1
1
1
1
1
1
1
1
1
1
1
1
1
1
1
1
1
1
1
1
1
1
1
1
1
1
0.999999
0.999999
1
1
1
1
0.999999
0.999999
0.999999
1
1
1
0.999999
0.999999
0.999999
0.999999
0.999999
1
1
1
1
1
1
0.999999
0.999999
1
1
1
1
1
0.999999
1
1
1
1
1
1
1
1
1
1
1
1
1
1
1
1
1
1
1
1
1
1
1
1
1
1
1
1
1
1
1
1
1
1
1
1
1
1
1
1
1
1
1
1
1
1
1
1
1
1
1
0.999999
0.999998
0.999998
0.999999
1
0.999999
0.999999
1
1
1
0.999999
0.999999
1
1
1
1
1
1
1
1
1
1
0.999999
0.999999
0.999999
0.999999
1
1
1
1
1
1
1
1
1
1
1
1
1
1
1
1
1
1
1
1
1
1
1
1
1
1
1
1
1
1
1
1
1
1
1
1
1
1
1
1
1
1
1
0.999999
0.999999
0.999999
1
1
1
1
1
1
0.999999
0.999999
0.999999
0.999999
0.999999
1
1
1
0.999999
1
1
1
1
1
1
1
1
1
1
1
1
1
1
1
1
0.999999
0.999999
1
1
1
1
1
1
1
0.999999
1
1
1
1
1
1
1
1
1
1
1
1
1
1
1
1
1
1
1
1
1
1
1
1
1
1
1
1
1
1
1
1
0.999999
0.999999
0.999999
1
0.999999
0.999999
0.999999
0.999999
1
1
1
1
0.999999
0.999999
0.999999
0.999999
1
0.999999
1
1
1
1
1
1
1
1
1
1
1
1
1
1
1
1
1
1
1
1
1
1
1
1
1
1
1
1
1
1
1
1
1
1
1
1
1
1
1
1
1
1
1
1
1
1
1
1
1
1
1
1
1
1
1
1
1
1
1
1
1
1
1
1
1
1
1
1
1
0.999999
1
1
1
1
1
1
1
1
1
1
1
1
1
1
1
1
1
1
1
1
1
1
1
1
1
1
1
1
1
1
1
1
0.999999
1
1
1
1
1
1
1
1
1
1
1
1
1
1
1
1
1
1
1
1
1
1
1
1
1
1
1
1
1
1
1
1
1
1
1
1
1
1
1
1
1
1
1
1
1
1
1
1
0.999999
0.999999
1
1
1
1
1
1
1
1
1
1
1
1
1
1
1
1
1
1
1
0.999999
0.999999
0.999999
0.999999
0.999999
1
1
1
1
1
1
1
1
1
1
1
1
1
1
1
1
1
0.999999
1
1
1
1
1
1
1
1
1
1
1
1
1
1
1
1
1
1
1
1
1
1
1
1
1
1
1
1
1
1
1
1
1
1
0.999999
0.999999
1
1
1
1
1
1
1
1
1
1
1
1
1
1
1
1
1
1
1
1
1
1
0.999999
0.999999
1
1
1
1
1
0.999999
1
1
1
1
1
1
1
1
1
1
1
1
1
1
1
0.999999
0.999999
1
1
1
1
1
1
1
1
1
1
1
1
1
1
1
1
1
1
1
1
1
1
1
1
1
1
1
1
1
1
0.999999
1
1
1
1
1
1
1
1
1
1
1
1
1
1
1
1
1
1
1
1
1
1
1
0.999999
1
1
1
1
0.999999
0.999999
0.999999
1
1
1
1
1
1
1
1
1
1
1
1
1
1
1
1
1
1
1
1
1
1
1
1
1
1
1
1
1
1
1
1
1
1
1
1
1
1
1
1
1
1
1
1
1
1
1
0.999999
0.999999
1
1
1
1
1
1
1
1
1
1
1
1
1
1
1
1
1
1
1
1
1
1
1
1
1
1
0.999999
0.999999
0.999999
0.999999
1
1
1
1
1
1
1
1
1
1
1
1
1
1
1
1
1
1
1
1
1
1
1
1
1
1
1
1
1
1
1
1
1
1
1
1
1
1
1
1
1
1
1
1
1
1
0.999999
0.999999
1
1
1
1
1
1
1
1
1
1
1
1
1
1
1
1
1
1
1
1
1
1
1
1
1
1
1
1
1
1
1
1
1
1
1
1
1
1
1
1
1
1
1
1
1
1
1
1
1
1
1
1
1
1
1
1
1
1
1
1
1
1
1
1
1
1
1
1
1
1
1
1
1
1
1
1
1
1
1
1
1
1
1
1
1
1
1
1
1
1
0.999999
1
1
1
1
1
1
1
1
1
1
1
1
1
1
1
1
1
1
1
1
1
1
1
1
1
1
1
1
1
0.999999
0.999999
1
1
1
1
1
1
1
1
1
1
1
1
1
1
1
1
1
1
1
1
1
1
1
1
1
1
1
1
1
1
1
1
1
1
1
1
1
1
1
1
1
1
1
1
1
1
1
1
1
1
1
1
1
1
1
1
1
1
1
1
1
1
1
1
1
1
1
1
1
1
1
1
1
0.999999
1
1
1
1
1
1
1
1
1
1
1
1
1
1
1
1
1
1
1
1
1
1
1
1
1
1
1
1
1
1
1
1
1
1
1
1
1
1
1
1
1
1
1
1
1
1
1
1
1
0.999999
1
1
1
1
1
1
1
1
1
1
1
1
1
1
1
1
1
1
1
1
1
1
1
1
1
1
1
1
1
1
1
1
1
1
1
1
1
1
1
1
1
1
1
1
1
1
1
1
1
1
1
1
1
1
1
1
1
1
1
1
1
1
0.999999
0.999999
1
1
1
1
1
1
1
1
1
1
1
1
1
1
1
0.999999
1
1
1
0.999999
1
1
1
1
1
1
1
1
1
1
1
1
1
1
1
1
1
1
1
1
1
1
1
1
1
1
1
1
1
1
1
1
1
1
1
1
1
1
1
1
1
1
1
1
1
1
1
1
1
1
0.999999
0.999999
0.999999
1
1
1
1
1
1
1
1
1
1
1
1
1
1
1
1
1
1
1
1
1
1
1
1
1
1
1
1
1
1
0.999999
1
1
1
1
1
1
1
1
1
1
1
1
1
1
1
1
1
1
1
1
0.999999
0.999999
0.999999
0.999999
0.999999
0.999999
1
1
1
1
1
1
1
1
1
1
1
1
1
1
1
1
1
1
1
1
1
1
1
1
1
1
1
1
1
1
1
1
1
1
1
1
1
1
1
1
1
1
1
1
1
1
1
1
1
1
1
0.999999
0.999999
0.999999
1
0.999975
0.999983
0.999996
0.999999
1
1
1
1
1
1
1
1
1
1
1
1
1
1
1
0.999999
0.999999
0.999999
0.999999
0.999999
0.999999
1
1
1
1
1
1
1
1
1
1
1
1
1
1
1
1
1
1
1
1
1
1
1
1
1
1
0.999999
1
1
1
1
1
1
1
1
1
1
1
1
1
1
1
1
1
1
1
1
1
1
1
0.999997
0.999985
0.999974
0.999999
0.972224
0.947068
0.966431
0.990117
0.999259
0.999997
1
1
1
1
1
1
1
1
1
1
1
1
1
0.999999
0.999998
0.999998
0.999999
0.999998
0.999998
0.999984
0.999755
0.999768
0.999981
1
1
0.999981
0.999991
1
1
1
1
1
1
1
1
1
1
1
1
1
1
1
0.999999
1
1
0.999999
0.999882
0.999564
0.999575
0.999978
0.999999
0.999999
0.999999
0.999999
0.999999
1
1
1
1
1
1
1
1
1
1
1
1
1
0.999999
0.999768
0.993263
0.971836
0.952106
0.972041
0.312812
0.29872
0.358905
0.466531
0.581152
0.685369
0.773434
0.861347
0.938514
0.992507
1
1
1
1
1
0.999993
0.999999
0.999998
0.999688
0.997166
0.996421
0.998413
0.999975
0.999972
0.999966
0.999596
0.997202
0.996944
0.999956
0.999985
0.999993
0.998836
0.999663
1
1
1
1
1
1
1
1
1
1
1
1
1
1
0.999965
0.999805
0.999996
0.999989
0.999981
0.999699
0.995434
0.995216
0.999213
0.999965
0.999976
0.999146
0.99681
0.997193
0.999289
0.999998
0.999999
0.999978
1
1
1
1
1
0.997181
0.94921
0.87777
0.791935
0.704355
0.603271
0.487893
0.374242
0.313549
0.323122
3.73153e-05
3.73145e-05
0.000187087
0.00121339
0.0332998
0.0803516
0.129402
0.197259
0.322777
0.506522
0.696323
0.796478
0.850587
0.886354
0.918924
0.954706
0.982763
0.990899
0.945618
0.869823
0.864847
0.939773
0.988071
0.996103
0.994054
0.992756
0.992042
0.993226
0.994762
0.990984
0.989035
0.994925
0.997533
0.961967
0.879849
0.828908
0.76991
0.704239
0.648669
0.617023
0.618706
0.652815
0.711761
0.781759
0.848137
0.897202
0.955594
0.999513
0.997824
0.995535
0.996319
0.998099
0.997561
0.993222
0.990713
0.991343
0.993043
0.993586
0.960606
0.866764
0.838183
0.918174
0.990071
0.984399
0.953935
0.91186
0.874686
0.838362
0.787924
0.70048
0.526313
0.344183
0.21172
0.139185
0.0870082
0.033418
0.0012285
0.000191998
4.91607e-05
4.91607e-05
3.73153e-05
0.00011195
0.000669691
0.00800336
0.0248335
0.0244256
0.0315689
0.0475396
0.0576859
0.10633
0.492888
0.861705
0.938801
0.946356
0.949248
0.952231
0.952156
0.926696
0.880387
0.827695
0.756131
0.663417
0.567269
0.504156
0.48285
0.486553
0.50088
0.508643
0.484057
0.435749
0.411814
0.418022
0.343391
0.231815
0.177904
0.137981
0.0928089
0.0544914
0.0330661
0.0244325
0.0248284
0.0344746
0.0584401
0.103217
0.161663
0.215688
0.275596
0.376185
0.463312
0.470732
0.496975
0.539172
0.544884
0.530209
0.505807
0.477963
0.469709
0.499865
0.586946
0.703419
0.800453
0.867427
0.922832
0.95065
0.950056
0.946133
0.941988
0.93593
0.879653
0.558197
0.126192
0.0639724
0.0528219
0.038811
0.0322042
0.0227161
0.00299585
0.000571984
0.000111587
4.91607e-05
5.38179e-05
0.000106466
0.00232771
0.00954893
0.00818691
0.0053755
0.00567868
0.00598624
0.141471
0.305947
0.324913
0.285442
0.274004
0.299947
0.323916
0.318306
0.2513
0.185446
0.127238
0.075806
0.0324741
0.00593216
1.04475e-05
1.98628e-05
2.28619e-05
2.39655e-05
2.31617e-05
2.24189e-05
2.21368e-05
2.19848e-05
2.19422e-05
2.14274e-05
2.18463e-05
0.000168852
0.00013382
0.000199035
0.000262881
0.000254765
0.000214846
0.000188399
0.000191043
0.000236601
0.000306815
0.000354165
0.000330552
0.000250473
1.919e-05
2.17159e-05
1.98755e-05
2.2976e-05
2.59031e-05
2.81561e-05
1.69599e-05
6.81627e-06
2.69837e-06
1.29839e-06
6.92027e-07
4.00553e-07
6.33992e-07
0.0123606
0.0463141
0.0951551
0.151473
0.214918
0.293242
0.318247
0.296356
0.259826
0.267822
0.30458
0.293237
0.156803
0.0120992
0.00522676
0.00561492
0.0111079
0.0079892
0.000772972
0.000108178
6.85035e-05
3.93298e-05
0.000182164
0.00186294
0.00302858
0.00224266
0.00577529
0.00620657
0.00264436
3.93903e-05
3.69613e-05
3.28953e-05
2.58388e-05
1.8463e-05
1.2653e-05
8.47537e-06
5.69579e-06
3.99e-06
3.07798e-06
2.40615e-06
1.95136e-06
1.65173e-06
2.75258e-06
4.98147e-06
2.12601e-05
3.93739e-05
3.96043e-05
2.43528e-05
2.31617e-05
2.24189e-05
2.21368e-05
2.14274e-05
2.06032e-05
4.29413e-05
8.94838e-05
1.43181e-05
9.8546e-06
7.83995e-06
5.98324e-06
2.21339e-06
3.30688e-06
3.12634e-06
3.61106e-06
-2.65084e-06
1.42519e-05
1.32727e-05
1.50211e-05
8.47185e-06
1.78803e-05
1.79911e-05
2.24693e-05
3.11824e-05
6.00316e-05
4.40746e-05
1.86705e-05
5.31145e-06
6.86537e-07
4.70092e-07
2.1486e-07
4.05471e-07
6.33992e-07
1.4466e-06
2.59401e-06
3.59638e-06
4.70603e-06
5.97998e-06
7.30453e-06
8.11166e-06
8.28994e-06
8.28052e-06
8.28994e-06
8.37764e-06
8.47256e-06
0.00187016
0.00542523
0.00581234
0.00523244
0.00434071
0.000903211
0.000133721
8.9118e-05
3.59343e-05
0.000151396
0.000619345
0.000249144
0.000437598
0.00149076
0.00101209
0.0003061
7.10747e-05
3.79476e-05
2.68912e-05
4.86064e-05
7.89533e-05
7.89462e-05
7.9958e-05
7.89373e-05
7.51799e-05
1.62099e-05
1.55591e-06
8.01489e-07
4.33283e-07
6.40503e-06
6.41525e-05
7.77858e-05
7.97172e-05
7.9986e-05
7.81949e-05
8.69033e-05
6.19257e-05
2.82492e-05
2.06032e-05
2.04986e-05
2.05048e-05
2.17571e-05
2.03407e-05
6.96756e-06
2.15984e-06
5.19149e-09
1.69316e-09
-9.09628e-10
-1.34186e-09
-4.73112e-10
2.74285e-10
-4.56717e-07
2.83257e-07
4.66165e-07
8.71318e-07
5.19161e-06
1.45295e-05
5.53437e-05
0.000162172
0.000157706
0.00015245
0.000129962
2.35112e-05
3.94711e-08
1.79295e-08
7.23517e-08
2.1486e-07
2.22653e-05
4.33723e-05
4.43448e-05
4.4661e-05
4.43601e-05
4.42807e-05
2.12778e-05
8.29173e-06
8.28994e-06
8.28994e-06
8.37764e-06
8.47256e-06
8.83526e-06
0.000462453
0.00183449
0.00178414
0.000492277
0.000429658
0.000919193
0.000370744
9.43609e-05
3.59343e-05
5.43405e-05
7.51619e-05
9.74309e-05
7.64288e-05
0.000159903
0.000842735
0.000889788
0.000663768
2.68912e-05
2.11157e-05
2.82567e-05
2.46055e-05
8.97023e-06
1.57509e-05
2.57648e-05
1.75641e-05
4.3717e-06
1.35428e-06
7.59486e-07
2.50629e-07
3.44028e-08
5.74504e-09
1.87883e-06
3.19047e-05
7.84376e-05
0.000109808
0.000115548
0.000115548
0.000115548
8.13702e-05
3.14652e-05
2.45064e-05
1.54708e-05
1.90436e-05
1.82045e-05
2.85961e-06
1.78294e-09
1.34469e-09
5.52691e-10
5.53783e-10
6.69859e-10
7.10652e-10
6.75199e-10
5.91061e-10
1.37624e-08
2.37372e-07
8.18073e-07
0.000139153
0.000166336
0.000166336
0.000149896
2.29644e-05
7.26458e-09
1.42645e-08
1.79295e-08
1.24259e-08
1.79295e-08
7.23517e-08
1.10924e-05
3.27446e-05
1.57808e-05
9.97194e-06
9.47406e-06
9.42061e-06
9.41985e-06
1.26044e-05
6.86459e-05
6.40215e-05
9.12102e-06
8.83526e-06
0.000571895
0.00104506
0.000820602
0.00010225
9.34709e-05
0.000132038
9.784e-05
0.000270574
0.000102272
3.80949e-05
3.39474e-05
3.31399e-05
3.63334e-05
2.88349e-05
2.42258e-05
0.000196018
0.000858368
0.00084666
0.000445347
1.68428e-05
1.26753e-05
8.49533e-06
4.96704e-06
4.0557e-06
2.53474e-06
1.75716e-06
1.14815e-06
8.63101e-07
9.88657e-07
5.71252e-07
5.74504e-09
2.53241e-09
5.22474e-09
8.24689e-09
7.49734e-09
2.36932e-08
2.60811e-05
7.26671e-05
9.67845e-05
0.000105474
0.000105474
0.000103716
1.21837e-05
1.21314e-05
3.49072e-09
3.28808e-09
1.01496e-07
1.12608e-08
9.81775e-10
5.6946e-10
6.76529e-10
7.02994e-10
6.54258e-10
5.86293e-10
5.87505e-10
3.42731e-07
7.99065e-07
1.32962e-05
7.44036e-05
2.82298e-05
1.78409e-09
1.83555e-09
2.01463e-09
8.12522e-09
3.86912e-08
8.0715e-09
1.17013e-08
1.05483e-05
2.45803e-05
1.13962e-05
1.10248e-05
1.03765e-05
9.62568e-06
1.23839e-05
1.68227e-05
0.000186654
0.000202379
4.00465e-05
1.64401e-05
0.000191358
0.000615784
0.000511778
7.03181e-05
2.90842e-05
3.89102e-05
4.67401e-05
3.16786e-05
2.83826e-05
4.40528e-05
4.1445e-05
6.21808e-06
1.08827e-05
1.21525e-05
1.04691e-05
9.53065e-06
1.26222e-05
0.000235627
0.000806622
0.000559679
3.28549e-05
1.6842e-05
1.98571e-05
4.04278e-05
4.16397e-05
2.32668e-05
2.53474e-06
1.37861e-06
6.20175e-07
3.15606e-07
4.00788e-07
2.32897e-07
1.30722e-09
4.80955e-09
7.45624e-09
4.79855e-09
7.49734e-09
2.36932e-08
5.95103e-08
6.08783e-10
8.63078e-06
1.07298e-05
1.47889e-09
1.3534e-05
9.56495e-07
3.28797e-09
3.22617e-09
3.27074e-09
2.59308e-09
1.97666e-09
9.67456e-10
2.12589e-09
2.11138e-09
8.27263e-10
3.41089e-10
8.42362e-09
1.06559e-07
1.39725e-08
1.85223e-09
1.78409e-09
1.76065e-09
1.78409e-09
1.76078e-09
1.84306e-09
4.87625e-08
1.08049e-07
2.60049e-09
3.23134e-06
3.48842e-05
3.48842e-05
3.48842e-05
1.14042e-05
1.35857e-05
0.000109793
0.000225398
0.000230714
0.000226528
0.000213643
5.18308e-05
2.56005e-05
0.000144161
0.000131102
2.40853e-05
1.1735e-05
1.04065e-05
1.29469e-05
1.4832e-05
9.58177e-06
5.37079e-06
1.61154e-05
4.16596e-05
2.25008e-06
3.44352e-06
3.78516e-06
3.24365e-06
2.83886e-06
4.47445e-06
7.58847e-06
0.000135583
0.000316125
0.000126393
2.09943e-05
2.06761e-05
3.00665e-05
3.2106e-05
3.84077e-05
5.08408e-05
6.69108e-05
1.11457e-05
1.5261e-08
4.18623e-09
1.30722e-09
1.21081e-09
6.31543e-09
1.36847e-08
6.66619e-10
1.71919e-07
6.19487e-07
3.24043e-07
5.52231e-10
4.87297e-10
4.7975e-10
4.87297e-10
2.39901e-08
1.04281e-08
1.04816e-08
6.93414e-09
3.22617e-09
5.47519e-09
2.26755e-09
1.07362e-09
3.22171e-09
3.45621e-09
2.6757e-09
3.33508e-10
1.60061e-11
1.58577e-11
1.60061e-11
2.61518e-09
4.51553e-09
3.25192e-09
2.606e-09
3.43825e-09
2.11227e-09
7.33096e-08
1.10116e-07
1.00296e-09
3.88825e-06
2.05677e-05
3.38262e-05
2.02921e-05
1.37507e-05
8.04186e-05
0.000222476
0.000230955
0.000224163
0.000133185
0.000133926
0.000138044
7.36516e-05
2.10841e-05
5.56798e-06
5.79057e-06
4.4929e-06
3.50876e-06
3.73922e-06
4.28509e-06
2.69331e-06
1.87864e-06
3.30039e-05
4.17204e-05
1.42389e-06
1.14278e-06
1.11973e-06
9.56449e-07
8.87396e-07
1.26329e-06
2.32515e-06
4.29087e-06
7.23493e-06
2.86273e-05
0.000344811
0.00080057
0.000375508
0.000152759
0.000367651
0.000522384
0.000358118
1.75586e-05
6.26325e-08
2.82443e-08
4.08165e-09
7.91697e-10
3.21662e-11
8.83014e-11
5.80735e-12
3.50058e-08
6.32657e-07
3.6511e-07
6.08383e-10
5.52694e-09
4.79838e-10
4.20364e-10
5.73546e-09
2.05166e-08
2.47257e-08
1.52847e-08
6.58596e-09
8.42545e-09
2.26258e-09
7.12707e-10
2.64172e-09
3.45621e-09
3.37797e-09
8.08082e-10
2.52533e-11
1.56397e-11
9.97924e-11
2.70548e-09
4.53938e-09
2.47878e-09
2.43016e-09
5.54667e-10
1.28246e-10
1.89735e-08
4.80569e-08
7.4047e-10
1.45454e-12
8.39051e-12
1.42145e-07
3.67044e-09
2.91172e-06
9.2355e-07
4.75294e-05
0.000195853
0.000385803
0.000333166
0.000451403
0.00068857
0.000500191
1.85045e-05
3.48332e-06
2.67237e-06
1.77871e-06
1.18538e-06
1.06692e-06
1.18618e-06
7.61714e-07
9.71344e-07
4.00968e-05
4.17307e-05
1.17133e-06
4.08742e-07
3.3741e-07
2.8635e-07
2.79889e-07
4.01862e-07
8.47785e-07
1.36371e-06
1.58072e-06
6.82047e-06
0.000594694
0.000813486
0.000813611
0.000812933
0.000807742
0.000784195
0.000295778
4.29231e-07
4.32163e-08
2.91632e-07
1.51059e-07
1.42916e-09
4.87511e-12
4.19878e-12
5.53416e-12
5.77284e-12
5.9358e-12
5.22215e-12
1.53454e-09
6.93398e-09
5.14515e-10
2.46135e-10
1.0118e-08
2.15761e-08
2.16477e-08
5.98582e-09
8.45544e-09
8.45375e-09
1.94784e-09
3.58898e-10
8.98853e-10
2.1042e-09
1.46132e-09
4.49945e-10
3.89062e-11
1.55183e-11
1.45646e-10
3.08038e-12
2.92575e-12
2.84795e-12
2.88696e-12
2.95747e-12
1.23136e-10
4.40358e-09
1.072e-12
1.16945e-12
1.26238e-12
1.45454e-12
8.39051e-12
1.90139e-10
3.19102e-09
3.91053e-08
1.91915e-05
0.000197332
0.00067663
0.000687744
0.00068857
0.000689162
0.000688624
3.15878e-05
2.60098e-06
1.30085e-06
7.51542e-07
4.3962e-07
3.37417e-07
3.5508e-07
2.37047e-07
5.60549e-07
4.02121e-05
4.17263e-05
7.63595e-07
1.81156e-07
1.1594e-07
1.05394e-07
1.01692e-07
1.42686e-07
2.70599e-07
4.36997e-07
5.23625e-07
9.48709e-07
0.000374474
0.000813489
0.000812933
0.000734207
0.00044796
5.58424e-05
1.28735e-08
1.16445e-09
9.08486e-09
3.31416e-07
2.38028e-07
2.31362e-09
3.32087e-12
3.95109e-12
6.06939e-12
5.74195e-12
5.22215e-12
4.92846e-12
4.57096e-12
7.80901e-12
5.53241e-12
5.41818e-12
1.49161e-10
6.96495e-09
7.08639e-10
1.23752e-10
5.32796e-09
5.20721e-09
9.00362e-10
2.9159e-10
1.85756e-10
1.63085e-10
1.62394e-10
5.72174e-11
2.40179e-11
9.09333e-12
5.89155e-12
4.12374e-12
3.00071e-12
2.87142e-12
3.1283e-12
3.09584e-12
3.61277e-10
8.6079e-13
9.41901e-13
1.17495e-12
1.25638e-12
1.29152e-12
2.0905e-12
1.55678e-11
1.02796e-10
1.04953e-09
1.11833e-08
1.14428e-07
9.41907e-05
0.000558662
0.000688969
0.000688969
0.000689113
0.000558733
4.00166e-06
6.8334e-07
3.46157e-07
1.99406e-07
1.40902e-07
1.34276e-07
1.02016e-07
2.45992e-07
4.02121e-05
4.17265e-05
2.31588e-07
6.44932e-08
5.58507e-08
5.39421e-08
5.4263e-08
6.39792e-08
9.61391e-08
1.39408e-07
2.73738e-07
5.23656e-07
8.07875e-05
0.000414664
0.000256602
5.03514e-08
1.36687e-08
3.09129e-09
5.65853e-10
8.8804e-11
3.38356e-09
9.71402e-08
3.93453e-08
1.79476e-09
2.20563e-12
2.83666e-12
3.81554e-12
6.71315e-12
6.71315e-12
6.4954e-12
4.56285e-12
2.66944e-12
5.64369e-12
5.42426e-12
2.58548e-12
2.62889e-12
2.73322e-12
1.22957e-10
8.00998e-10
5.96425e-10
2.26948e-10
1.72715e-10
1.20901e-10
9.20447e-11
5.82459e-11
3.10299e-11
6.56916e-12
3.05236e-12
5.01738e-12
4.23322e-12
3.03736e-12
1.95816e-12
2.24178e-12
2.45719e-12
1.26009e-12
8.37058e-13
1.01376e-12
1.17811e-12
1.74555e-12
4.0818e-12
9.25188e-12
1.02402e-11
2.17653e-11
9.2899e-11
1.04799e-09
9.13661e-09
6.25282e-08
3.83676e-07
0.000238935
0.000666001
0.000688624
0.000688395
0.0001101
3.16482e-07
1.87285e-07
1.15119e-07
8.27321e-08
7.65464e-08
6.80493e-08
1.07059e-07
4.02121e-05
2.01646e-05
6.45161e-08
4.70485e-08
3.99773e-08
3.97422e-08
4.05806e-08
4.417e-08
5.41935e-08
6.91278e-08
1.98571e-07
1.31208e-06
7.47461e-07
3.42613e-07
5.03505e-08
1.36637e-08
3.09119e-09
5.61444e-10
9.34745e-11
2.04075e-11
8.35996e-12
3.26427e-12
2.40586e-12
2.20563e-12
2.18268e-12
2.2662e-12
1.67588e-12
3.39321e-12
3.36411e-12
2.82151e-12
1.27696e-12
1.91117e-12
1.51305e-12
2.01428e-12
2.5858e-12
2.77741e-12
1.36739e-11
9.95831e-11
1.07678e-10
5.79933e-11
5.8161e-11
5.78724e-11
1.27487e-10
3.44126e-10
1.29507e-10
2.30615e-11
3.2362e-12
1.2612e-12
1.68516e-12
7.29792e-13
3.93271e-13
2.21693e-13
3.49866e-13
7.98367e-13
1.06255e-12
8.5721e-13
7.48946e-13
7.19584e-13
1.93894e-12
9.93853e-12
3.98462e-11
9.17577e-11
1.09568e-10
1.2813e-10
2.55101e-10
1.44262e-09
9.97684e-09
6.28961e-08
3.82455e-07
4.15676e-05
0.000345521
0.000549323
0.000317995
6.24197e-06
1.15203e-07
8.27662e-08
6.52226e-08
6.16132e-08
6.14655e-08
6.21582e-08
2.09072e-05
3.51815e-06
3.1362e-06
3.99796e-08
3.59445e-08
3.59226e-08
3.65692e-08
3.86001e-08
4.22215e-08
4.93473e-08
1.89334e-07
1.29564e-06
3.5777e-07
3.94438e-07
2.00087e-07
4.99371e-08
1.24105e-08
2.09364e-09
3.32592e-10
9.64075e-11
7.44994e-11
2.63328e-11
7.85926e-12
3.48628e-12
1.87271e-12
7.69717e-13
2.8391e-13
2.51319e-13
4.35769e-13
2.53408e-13
1.95701e-13
1.85966e-13
2.98389e-13
5.58702e-13
1.41208e-12
2.91258e-12
8.59065e-12
4.7747e-11
1.65677e-10
5.88545e-11
5.47339e-11
5.47339e-11
3.2625e-10
8.62132e-09
2.62501e-10
6.74755e-12
1.85321e-12
8.65528e-13
4.37719e-13
1.88384e-13
6.8087e-14
3.70909e-14
5.44597e-14
1.15627e-13
1.75053e-13
3.25603e-13
1.99608e-13
3.17676e-13
1.9148e-12
1.32272e-11
6.30711e-11
1.92913e-10
3.54826e-10
3.79094e-10
8.0423e-10
4.64044e-09
3.37313e-08
2.27183e-07
1.07481e-06
2.31287e-06
2.84811e-06
2.62568e-05
0.000108672
1.96125e-05
8.97557e-08
6.19609e-08
5.98163e-08
5.79387e-08
6.07361e-08
6.14925e-08
1.55036e-07
3.26634e-06
5.39999e-06
1.5924e-06
3.51586e-08
3.51447e-08
3.53891e-08
3.65692e-08
3.86001e-08
4.22216e-08
4.93481e-08
7.84013e-08
1.89404e-07
3.5105e-07
4.85381e-07
2.10137e-07
5.55697e-08
1.2385e-08
1.59449e-09
2.9926e-10
1.62548e-10
8.15643e-11
2.18212e-11
3.74524e-12
5.66945e-13
9.57686e-14
2.60883e-14
1.98863e-14
2.04865e-14
2.29181e-14
2.54686e-14
3.03863e-14
7.36655e-14
3.04892e-13
1.22418e-12
2.74847e-12
7.34563e-12
1.08573e-10
4.48703e-10
9.22154e-11
5.47334e-11
1.39257e-06
9.49153e-07
2.44693e-08
4.13766e-12
1.56289e-12
1.5287e-12
7.61969e-13
3.05079e-13
9.08125e-14
2.12754e-14
6.74439e-15
3.94065e-15
5.18399e-15
1.55583e-14
2.48749e-14
2.35805e-14
1.95248e-13
2.01957e-12
1.58641e-11
7.53349e-11
2.13256e-10
3.81988e-10
6.50552e-10
2.91481e-09
4.34256e-08
1.82809e-07
1.03467e-06
1.08037e-05
5.13785e-06
5.63167e-06
7.46528e-06
4.82087e-06
2.93802e-06
7.5208e-08
5.95127e-08
5.79387e-08
5.74053e-08
2.1276e-06
1.15051e-06
5.21034e-07
2.57359e-06
5.19519e-06
5.30647e-06
3.51432e-08
3.51586e-08
3.51415e-08
3.53891e-08
3.79143e-08
4.70713e-08
7.84007e-08
4.02645e-05
0.000103659
8.73551e-05
3.05413e-05
1.34101e-06
4.58561e-07
7.63594e-08
5.08943e-09
6.64071e-10
1.60227e-10
1.00546e-10
3.13756e-11
4.54072e-12
4.59605e-13
4.34823e-14
5.57435e-15
2.87818e-15
2.89919e-15
2.87593e-15
2.97731e-15
7.77149e-15
4.63175e-14
2.64976e-13
1.21555e-12
2.74373e-12
9.57973e-12
2.29367e-10
5.85286e-10
1.12167e-10
5.81267e-11
1.43311e-05
2.80334e-06
2.07047e-10
4.09743e-12
1.56768e-12
1.52231e-12
7.34843e-13
2.4877e-13
5.89245e-14
9.80584e-15
1.55087e-15
5.64628e-16
4.26157e-16
5.22874e-16
1.264e-15
1.15681e-14
1.73428e-13
2.22531e-12
1.80527e-11
8.1471e-11
1.96157e-10
2.89904e-10
1.17788e-09
8.28393e-09
1.04107e-07
6.12933e-06
5.96282e-05
0.000290617
0.000277851
0.000402949
0.00038256
0.000158664
8.33419e-07
1.0608e-07
5.98703e-08
5.75213e-08
5.77924e-08
9.95528e-06
2.6809e-06
8.35519e-07
2.34993e-06
1.91867e-06
1.61772e-06
3.51586e-08
3.51586e-08
1.44728e-07
3.79141e-08
9.87416e-06
8.20405e-05
0.000221055
0.00028425
0.00028425
0.000285063
0.000265287
7.26496e-05
6.09126e-06
1.516e-07
1.49487e-08
1.81566e-09
2.43111e-10
9.98452e-11
3.99559e-11
6.90384e-12
6.16241e-13
4.06987e-14
2.62105e-15
3.74445e-16
2.55068e-16
2.4863e-16
6.55393e-16
5.31796e-15
4.24641e-14
2.59691e-13
1.32113e-12
2.89278e-12
1.38189e-11
3.00251e-10
6.1224e-10
1.32312e-10
5.69054e-09
1.57942e-05
3.31825e-06
1.98703e-10
3.93529e-12
1.79644e-12
1.77141e-12
7.75708e-13
2.3499e-13
4.98488e-14
7.30209e-15
7.77665e-16
9.48891e-17
4.4828e-17
5.62342e-17
4.694e-16
9.21161e-15
1.70261e-13
2.37189e-12
1.94349e-11
7.58218e-11
1.48748e-10
4.1734e-10
2.57447e-09
1.81262e-08
3.11416e-07
5.19703e-05
0.000354953
0.00042265
0.00043284
0.00043284
0.00043284
0.000430203
0.000254136
1.37055e-05
9.84401e-08
5.98703e-08
1.95154e-06
9.69796e-06
1.00755e-06
8.56347e-07
0.000108897
6.06227e-07
5.88349e-08
3.70084e-08
5.69852e-08
3.12181e-05
0.000133181
0.000196474
0.000225091
0.000225091
0.00019714
0.000221581
0.000285876
0.000285876
0.000274316
4.8164e-05
3.4564e-07
3.79052e-08
4.24369e-09
5.10654e-10
7.79147e-11
4.09667e-11
8.89341e-12
7.67846e-13
4.65108e-14
2.37988e-15
1.04699e-16
3.11047e-17
4.60557e-17
4.56926e-16
5.03368e-15
4.18104e-14
2.739e-13
1.36062e-12
2.97138e-12
1.53482e-11
3.1401e-10
5.8045e-10
5.23153e-10
4.81686e-08
1.57942e-05
2.55834e-06
1.12774e-10
3.45785e-12
2.39108e-12
1.98632e-12
8.77871e-13
2.35327e-13
4.71786e-14
6.50135e-15
6.27097e-16
4.86233e-17
9.86824e-18
1.76805e-17
3.28159e-16
7.83189e-15
1.56934e-13
2.3935e-12
1.95818e-11
6.4478e-11
1.23555e-10
7.97051e-10
6.32003e-09
5.14404e-08
7.55303e-07
0.000151607
0.000405486
0.000406938
0.000196698
0.000175891
0.000323269
0.000419415
0.000411263
9.08434e-05
1.61665e-07
1.11907e-07
1.40026e-06
2.22385e-06
1.10534e-06
0.000177732
0.000150066
0.000115712
6.06227e-07
5.88342e-08
3.26404e-07
2.70836e-05
0.000207251
0.000211678
0.00021827
0.000110085
2.56876e-05
2.56876e-05
7.91044e-05
0.000285876
0.00028416
0.000116697
7.9032e-07
8.83242e-08
9.8907e-09
9.93085e-10
1.24725e-10
3.30956e-11
8.7673e-12
8.71547e-13
4.85452e-14
2.33778e-15
7.33944e-17
2.85903e-17
3.76725e-17
4.44729e-16
5.02755e-15
4.25606e-14
2.7924e-13
1.33113e-12
2.96078e-12
1.55991e-11
2.22428e-10
2.08455e-10
2.22903e-07
3.90461e-06
1.57942e-05
1.44311e-06
4.03954e-11
5.29672e-12
5.42559e-12
2.05784e-12
9.13271e-13
2.50409e-13
4.64807e-14
6.13502e-15
5.61836e-16
3.89571e-17
5.71679e-18
1.2615e-17
2.61354e-16
6.48747e-15
1.37712e-13
2.19803e-12
1.57575e-11
4.49038e-11
1.90811e-10
1.51124e-09
1.4828e-08
1.17301e-07
1.11471e-06
0.000195605
0.000399339
9.46709e-05
1.76308e-05
1.7579e-05
5.13832e-05
0.000382469
0.00039295
8.0469e-05
2.83814e-07
1.6134e-07
2.7653e-07
1.294e-06
9.64855e-05
0.000433066
7.68716e-05
0.000132446
0.000124747
4.37461e-05
5.64939e-07
4.10382e-06
0.00010384
0.000207251
0.000211563
4.67594e-05
2.5869e-05
2.56603e-05
2.5869e-05
0.000200492
0.000282852
0.000133654
1.21003e-06
1.43405e-07
1.53111e-08
1.50931e-09
1.80484e-10
2.15817e-11
7.35182e-12
9.1655e-13
4.67669e-14
2.06598e-15
6.69998e-17
2.37592e-17
3.66554e-17
4.50076e-16
5.01183e-15
4.1826e-14
2.69798e-13
1.13959e-12
2.81982e-12
1.31692e-11
1.50899e-11
8.09194e-11
1.4668e-06
1.57278e-05
1.57941e-05
5.11274e-07
1.2814e-11
7.3024e-12
7.04906e-12
2.00902e-12
9.01255e-13
2.51502e-13
4.67352e-14
5.89014e-15
5.15289e-16
3.30881e-17
4.40498e-18
9.98458e-18
2.01642e-16
5.17896e-15
1.18406e-13
2.06363e-12
1.32113e-11
3.43135e-11
2.78389e-10
2.4208e-09
2.37338e-08
1.9804e-07
1.64105e-06
0.00014283
0.000357992
1.77594e-05
1.74437e-05
1.77594e-05
2.14575e-05
8.66271e-05
0.000124592
9.88167e-06
8.02772e-07
2.81291e-07
1.28785e-06
6.56771e-05
0.000401751
0.000313034
1.27819e-07
0.000112361
0.000128202
0.000128202
2.15193e-05
9.82953e-06
1.39232e-05
6.4072e-05
6.55933e-05
2.981e-05
2.60253e-05
2.5717e-05
2.60253e-05
0.000260452
0.000288916
9.57597e-05
1.29083e-06
1.67795e-07
1.90334e-08
1.91786e-09
2.20211e-10
2.458e-11
5.9681e-12
7.15403e-13
3.82362e-14
1.63421e-15
5.45916e-17
1.67017e-17
3.56541e-17
4.32688e-16
4.62799e-15
3.7007e-14
2.2288e-13
8.5894e-13
2.61183e-12
1.1754e-11
1.20017e-11
6.86729e-11
2.34508e-06
1.57747e-05
1.56972e-05
2.92489e-08
8.64528e-12
2.31367e-11
8.36315e-12
1.91399e-12
7.8985e-13
2.27439e-13
4.32158e-14
5.50816e-15
4.57925e-16
2.72188e-17
3.28851e-18
7.23522e-18
1.41863e-16
3.77629e-15
8.89838e-14
1.43863e-12
9.7602e-12
4.17735e-11
3.51897e-10
3.19924e-09
3.16893e-08
2.78192e-07
2.12916e-06
0.000118408
0.000270536
1.74995e-05
1.73138e-05
1.74439e-05
1.80016e-05
1.44973e-05
6.62542e-06
2.60734e-06
1.30167e-06
1.39198e-06
1.64247e-05
0.000414463
0.000407524
6.49215e-06
4.38574e-09
4.6307e-06
8.61983e-05
0.000120008
6.17879e-05
1.39232e-05
2.13108e-05
2.731e-05
2.93773e-05
2.65527e-05
2.57737e-05
2.60253e-05
3.02025e-05
0.000352536
0.000321532
5.44637e-05
1.33963e-06
1.75188e-07
2.05549e-08
2.08782e-09
2.24174e-10
2.4418e-11
4.11315e-12
4.3892e-13
2.30426e-14
9.36165e-16
3.18331e-17
9.83802e-18
3.07774e-17
3.58517e-16
3.55386e-15
2.70702e-14
1.56838e-13
6.86534e-13
2.52142e-12
1.09161e-11
1.15049e-11
2.98059e-11
1.62432e-06
1.5775e-05
1.40594e-05
8.20244e-12
8.59289e-12
2.32498e-11
9.41884e-12
1.86494e-12
6.1857e-13
1.67057e-13
3.20544e-14
4.18965e-15
3.52632e-16
2.08373e-17
2.26433e-18
4.35436e-18
7.73547e-17
2.13816e-15
5.25485e-14
8.54047e-13
6.21155e-12
4.23967e-11
3.59088e-10
3.63356e-09
3.57002e-08
3.07438e-07
2.28008e-06
0.000122311
0.000332999
0.000104515
1.74011e-05
1.73137e-05
1.72894e-05
1.59587e-05
1.12322e-05
6.62541e-06
2.60733e-06
2.8513e-05
0.000363936
0.000420141
0.00020748
7.82479e-09
1.72136e-10
4.40281e-09
2.31903e-06
5.57337e-06
6.26182e-05
0.000103521
0.000174874
5.1838e-05
3.37662e-05
2.83276e-05
2.62632e-05
2.59546e-05
0.000162809
0.000424634
0.000287158
1.60844e-05
1.03884e-06
1.38377e-07
1.58793e-08
1.60222e-09
1.65844e-10
1.70127e-11
1.84273e-12
1.68195e-13
8.49901e-15
3.23185e-16
1.16458e-17
4.65099e-18
2.29912e-17
2.54698e-16
2.4541e-15
1.94119e-14
1.21936e-13
6.2836e-13
2.53746e-12
1.10286e-11
2.0057e-11
1.55988e-11
7.05494e-07
1.57708e-05
1.45551e-05
7.34346e-12
7.56762e-12
2.26009e-11
1.06022e-11
2.10219e-12
5.19094e-13
1.15962e-13
2.00898e-14
2.58297e-15
2.3068e-16
1.54202e-17
1.52379e-18
2.27532e-18
3.04785e-17
8.77519e-16
2.2641e-14
3.85707e-13
3.24111e-12
3.07059e-11
2.73208e-10
2.70826e-09
2.6192e-08
2.21509e-07
1.61069e-06
6.99565e-05
0.000361027
0.000368391
1.73702e-05
1.74439e-05
1.80074e-05
1.8705e-05
2.15314e-05
0.000155987
0.000376906
0.00058344
0.00054229
0.000171737
4.83658e-10
3.73996e-11
6.24296e-11
1.70584e-10
2.20643e-08
1.37281e-07
5.71488e-05
0.000437389
0.000511333
0.000513061
0.000421378
8.6437e-05
2.83276e-05
0.000156168
0.000468975
0.000443427
0.000169674
4.34332e-06
5.37597e-07
6.89292e-08
7.71996e-09
7.64351e-10
8.25644e-11
7.48601e-12
5.44357e-13
3.59569e-14
1.64856e-15
7.36844e-17
4.78191e-18
2.13074e-18
1.79213e-17
2.02321e-16
1.99235e-15
1.66542e-14
1.13102e-13
6.21936e-13
3.09727e-12
1.36938e-11
2.13031e-11
5.44599e-12
2.53554e-07
1.52938e-05
1.56909e-05
6.88993e-12
6.79994e-12
1.78117e-11
1.27659e-11
3.27822e-12
4.93392e-13
9.66233e-14
1.46955e-14
1.77745e-15
1.69191e-16
1.28496e-17
1.14293e-18
1.24582e-18
8.13552e-18
2.12285e-16
5.94131e-15
1.174e-13
1.32308e-12
1.71498e-11
1.6649e-10
1.7192e-09
1.711e-08
1.49949e-07
1.14285e-06
1.62423e-05
0.000329963
0.000599525
0.000368823
1.9577e-05
0.000161119
0.000608846
0.000704369
0.000702603
0.000693657
0.000650632
0.000262973
4.35778e-07
7.53709e-11
2.34641e-11
5.26125e-11
3.71928e-11
5.34916e-10
8.87585e-09
0.0001395
0.000511333
0.000520109
0.00052164
0.000521267
0.000505182
0.000460744
0.000510573
0.000488344
0.000311977
2.31843e-05
1.0203e-06
1.41271e-07
1.74835e-08
1.88101e-09
1.80572e-10
2.04393e-11
1.61601e-12
1.06961e-13
6.27081e-15
3.27331e-16
1.53605e-17
1.5166e-18
1.50429e-18
1.67297e-17
1.91331e-16
1.90111e-15
1.6133e-14
1.12675e-13
7.27217e-13
3.96489e-12
1.5807e-11
2.08508e-11
5.43012e-12
2.02245e-07
1.59014e-05
1.57732e-05
6.73048e-12
6.6374e-12
1.2887e-11
1.40033e-11
4.70945e-12
5.28887e-13
9.28523e-14
1.3431e-14
1.59054e-15
1.55822e-16
1.24052e-17
1.00451e-18
2.95662e-19
2.19119e-18
5.00753e-17
1.06707e-15
2.01813e-14
3.41028e-13
5.00682e-12
5.80128e-11
5.33624e-10
5.48112e-09
5.01436e-08
4.05084e-07
2.8777e-06
0.000111699
0.000606269
0.000679855
0.000697169
0.00071212
0.000715094
0.000713715
0.000712283
0.000702578
0.000558713
1.09338e-06
1.53634e-08
-2.85196e-11
2.57323e-11
3.94188e-12
4.95755e-12
3.98102e-11
9.21376e-10
6.27249e-05
0.00048621
0.00052164
0.000522479
0.00052279
0.000521267
0.000517268
0.000512642
0.000320823
2.65932e-05
9.2731e-07
1.32638e-07
1.61817e-08
1.84205e-09
1.95193e-10
2.44568e-11
2.34266e-12
2.12032e-13
1.21854e-14
6.22741e-16
3.23108e-17
1.60975e-18
2.25999e-19
1.36662e-18
1.77021e-17