/*--------------------------------*- C++ -*----------------------------------*\
| =========                 |                                                 |
| \\      /  F ield         | OpenFOAM: The Open Source CFD Toolbox           |
|  \\    /   O peration     | Version:  2412                                  |
|   \\  /    A nd           | Website:  www.openfoam.com                      |
|    \\/     M anipulation  |                                                 |
\*---------------------------------------------------------------------------*/
FoamFile
{
    version     2.0;
    format      ascii;
    arch        "LSB;label=32;scalar=64";
    class       volScalarField;
    location    "98";
    object      p;
}
// * * * * * * * * * * * * * * * * * * * * * * * * * * * * * * * * * * * * * //

dimensions      [1 -1 -2 0 0 0 0];

internalField   nonuniform List<scalar> 
6400
(
19221.4
19219.2
19277
19392.6
19557
19759.6
19992.7
20243.3
20504.5
20769
21028.7
21274.9
21503.6
21711.5
21899.2
22066.3
22214.2
22344.2
22454.4
22531.6
22580.2
22613.4
22644.8
22674.3
22682.7
22647
22592.5
22544.9
22500.1
22441.3
22365.4
22289.1
22224.2
22168.7
22112.2
22023.7
21937.7
21875.2
21805.3
21753.4
21742.7
21754.6
21756.7
21754.9
21778.3
21820.5
21866.1
21919
21993.3
22080.8
22179.5
22286.6
22405.1
22528.7
22658.1
22792
22935
23080.1
23228.2
23374.4
23523.3
23668.2
23812.6
23948.7
24078.3
24191.1
24290.3
24373.8
24447.2
24504.5
24548.7
24578.1
24600
24613.1
24623
24628.2
24630.9
24628.2
24616.3
24597.8
17997.5
17988.5
18038.2
18145.9
18297.9
18484.5
18698.6
18930
19170.8
19416.8
19659.3
19891.9
20108.5
20308.4
20490.8
20656.3
20803.3
20933.2
21041.4
21124.2
21183
21231.4
21275.7
21311.6
21322.2
21303.3
21269.9
21244.4
21223.5
21190.8
21136.5
21071.5
21010.2
20969.1
20944.1
20896.3
20827
20769.3
20727.9
20706.1
20703.2
20721.9
20745.2
20762
20783.4
20827.3
20878.5
20941.1
21015.7
21101.6
21194.4
21300.1
21410.3
21526
21640.7
21766.8
21894.1
22025.7
22154.5
22288.6
22420.1
22555.9
22685.1
22811.9
22923.2
23026.2
23112.8
23190.6
23253.1
23306.4
23343.4
23372.4
23390
23404.1
23411.6
23416.9
23415.6
23408
23384.1
23355.6
16734
16723.3
16770.2
16871.9
17013.4
17184.9
17382.2
17594.8
17817.4
18046.4
18274.1
18491.9
18697.3
18889.9
19071.4
19235.6
19382.2
19508.9
19616.1
19704.2
19779.5
19846.7
19900.6
19931.2
19948.3
19959.7
19959.3
19950.6
19943
19929.2
19906.3
19865.1
19816.4
19779.1
19765
19756.1
19727.9
19692.3
19683
19685.9
19685.4
19693.8
19742.5
19792
19820.5
19853
19909.4
19982.1
20058
20135.8
20231.4
20333.5
20438.3
20536.6
20644.6
20757.1
20873.6
20983.1
21097
21210.6
21332.4
21451.7
21569.2
21674.5
21774
21861.2
21943.6
22009.7
22067.2
22111.2
22147.8
22171.7
22189.8
22199.9
22206.9
22207.5
22203.2
22189.3
22157.4
22117.1
15413.6
15415.2
15469.4
15572.6
15710.4
15875
16061.8
16262.7
16472.7
16690.2
16906
17111.5
17309.1
17501.4
17680.2
17840.7
17982.7
18107.7
18215.3
18314
18404
18483.1
18536.9
18569.1
18593.8
18626.9
18661.5
18678.4
18674.9
18666.3
18663.5
18655.2
18631.8
18606.5
18589.6
18601.8
18620
18630.5
18651.8
18662.7
18649.6
18647.6
18698.2
18785.9
18840.4
18879
18934.7
19008.2
19083.1
19163.9
19251.1
19345.4
19438.5
19534.6
19630.5
19732.2
19833.1
19936.3
20035.1
20139
20243.5
20349.2
20446.2
20540.3
20624.7
20703.5
20772
20833.5
20881.2
20923.1
20954.3
20979.4
20995.1
21006.4
21010.2
21008.6
20999.3
20981.8
20946.4
20903.1
14045.9
14070
14140.5
14251.5
14391.4
14553.6
14735.5
14929.7
15133.1
15340.6
15546.4
15744
15942.5
16133.2
16306.4
16458.1
16597.8
16725.6
16843.8
16951.6
17048.2
17127.5
17187.1
17229.1
17265.5
17306.5
17358.2
17399.8
17422.5
17418
17416.3
17431.9
17447.5
17451.2
17450.9
17474.4
17517.2
17542.7
17565.2
17584.9
17602.5
17619.6
17669.8
17751.5
17828.1
17890.5
17958.3
18026.8
18105.3
18186.2
18266.7
18345.9
18431.6
18521.3
18616.4
18703.5
18793.8
18884.4
18976.3
19064
19155.3
19241.3
19326.2
19403
19480.3
19546.8
19606.6
19656.7
19703.7
19740.1
19771.9
19794.6
19812.5
19822.9
19828.4
19825.8
19816.1
19797.7
19760.2
19720.9
12646.4
12698.5
12791.8
12915.5
13061.8
13226.3
13406.8
13598.3
13795.7
13995.7
14197.6
14396.3
14591.5
14775.9
14940.6
15086.1
15227.5
15368.1
15495
15605.6
15700.2
15781.6
15851.7
15912.9
15963.8
16011.9
16063.1
16119.6
16165.7
16181.1
16184.9
16216.9
16258.4
16293.1
16314.8
16349.7
16382.6
16407.8
16439.7
16488.1
16551.3
16610.4
16656.6
16718.5
16803.4
16888.2
16965.4
17042.9
17121.1
17202.9
17278.5
17359
17436.4
17520.9
17604.4
17685.1
17760.9
17839.1
17915.4
17990.4
18058.1
18134.3
18208
18276.7
18336.7
18397.5
18446.5
18492.5
18531.8
18568.9
18598.1
18622.7
18638.8
18649.9
18655
18655.3
18649.4
18633.3
18598.7
18564.7
11231.3
11314.2
11434.1
11573.9
11730.4
11900.2
12082.9
12273.1
12465.6
12660.6
12864.5
13063.5
13251.7
13428.2
13584.4
13730.9
13882.4
14025.5
14150.9
14262.3
14362.1
14449
14533.9
14614.4
14678.5
14726.5
14782.1
14850
14909.2
14949.7
14977.6
15019.9
15075.9
15122.4
15148.4
15184.2
15227.3
15281
15353.2
15425.1
15502.6
15578.1
15634.1
15698.4
15791.5
15881.9
15968
16049.2
16131.4
16210.4
16291.1
16371.6
16447.7
16513.7
16582.5
16654.3
16727.3
16788.2
16851.4
16912
16970
17024.3
17089.9
17149.7
17202.6
17248.4
17293.6
17331.3
17366.8
17398
17428.2
17451.9
17469.8
17480.1
17486.8
17490.9
17490.8
17481.8
17454.1
17429.6
9810.06
9925.04
10074.1
10233.8
10403.6
10583.1
10772.5
10965.3
11155.7
11350.4
11549.8
11743.4
11919.9
12089.7
12248.6
12406.8
12558
12687.1
12802.5
12919.7
13032.4
13135.2
13232.2
13324.1
13397.8
13453.9
13512
13593.1
13661.7
13719.9
13777.1
13837.7
13895.2
13941.7
13980.1
14018.7
14086.4
14192.8
14291.1
14371
14446.8
14529
14606
14690.9
14783.2
14875.8
14961.5
15047.5
15129.1
15210.6
15288.9
15371.6
15444.6
15498.1
15546.2
15614.3
15683.6
15743.3
15782.8
15831.4
15884.2
15933
15977.4
16028.8
16072.7
16112.5
16146.3
16178.9
16205.4
16231.8
16255.7
16278.7
16296.5
16310.1
16320.3
16329.6
16337.1
16338.2
16325.9
16311.1
8390.7
8539.4
8719.79
8902.26
9089.86
9285.65
9486.87
9685.94
9881.05
10077.7
10268
10445.6
10610.9
10776.4
10946.4
11107.8
11250
11364.4
11470.6
11590.9
11716.8
11829.2
11936.6
12032.4
12115.6
12200.1
12285.7
12369.1
12432.8
12501.5
12592.6
12659.5
12710.4
12773.5
12846.2
12901.4
12978.2
13107
13232.4
13317.2
13391.5
13478.8
13578.1
13674.1
13769.9
13860.5
13949.7
14033.5
14117.6
14195.9
14274.1
14348.4
14422.2
14472.7
14511.8
14561.7
14627.2
14687.3
14723.3
14748.2
14792.4
14838.8
14877.2
14910.4
14947.3
14978
15006.4
15029
15049.9
15067.4
15085.9
15103.7
15121.7
15138.5
15154.2
15170.6
15186.5
15203.2
15208.2
15211.4
6977.77
7162.24
7377.31
7584.76
7794.75
8009.75
8222.64
8429.95
8629.03
8823.92
9009.57
9180.59
9342.59
9501.97
9665.39
9823.83
9957.23
10075.7
10194.6
10316.7
10437.6
10548.9
10650.5
10747.2
10845.7
10967.2
11092.6
11172.9
11224
11308.2
11421.5
11498.5
11551.8
11628
11722
11814
11912.9
12031.4
12147.6
12244.2
12323.9
12428.9
12545.4
12653.5
12747.5
12839.3
12925.7
13011.8
13093.5
13173.1
13244.5
13314
13378.7
13440
13478.2
13512.3
13556.3
13614.4
13656
13678.5
13700
13740.5
13774.2
13802
13825.5
13849.9
13868.6
13885.3
13897.6
13909.6
13920.4
13933.1
13948.1
13966.4
13987.3
14010.2
14038.2
14070.6
14099.7
14125.1
5572.13
5796.5
6049.35
6286.37
6523.22
6752.95
6972.61
7181.56
7381.74
7575.54
7761.9
7933.44
8095
8251.98
8404.75
8549.59
8682.9
8819.51
8958.97
9083.2
9192.15
9297.61
9396.36
9496.02
9614.01
9745.14
9872.18
9963.6
10037.5
10128
10236.2
10337
10427.5
10506.3
10600.7
10718.6
10840.9
10942.5
11046.2
11157.3
11262.5
11381.2
11517.9
11630.8
11724
11811.2
11895.3
11976.6
12062.2
12140
12209.6
12269
12333.1
12392.3
12442.6
12470.6
12496.6
12533.7
12586
12613.1
12628.9
12650.1
12678.2
12698.7
12716.2
12728.6
12739.6
12746.3
12752.2
12755.6
12759.5
12765
12775.3
12792.3
12815.2
12845.8
12885.1
12937.5
12991.2
13049
4172.2
4444.03
4742.85
5016.86
5275.16
5515.4
5741.03
5952.12
6150.91
6339.9
6519.6
6689.49
6851.75
7009.4
7152.62
7285.07
7415.83
7548.92
7685.63
7814.99
7923.17
8032.23
8146.1
8262.07
8385.19
8504.08
8611.89
8722.48
8837.38
8948.31
9049.14
9159.75
9277.18
9385.32
9491.57
9614.42
9729.64
9829.92
9951.67
10101.9
10237
10346.8
10465.3
10593.1
10701.1
10786.4
10860.7
10943.5
11028.9
11108.5
11173
11235.4
11300
11363.6
11411.5
11448
11468.8
11490.9
11523.2
11554.2
11570
11581.6
11593.5
11606.7
11613.5
11618.3
11618.2
11616.3
11610.9
11604.5
11598.2
11595.3
11599
11611.3
11635.5
11671.6
11724.6
11794.8
11882.1
11971.7
2769.16
3099.41
3456.54
3767.06
4036.77
4287.75
4517.53
4726.72
4918.79
5097.15
5264.69
5423.76
5576.32
5721.57
5858.71
5986.18
6109.63
6234.24
6358.93
6480.35
6599.82
6720.03
6848.46
6980.22
7109.14
7233.14
7353.75
7477.36
7614.64
7750.09
7869.85
7986.78
8112.22
8241.69
8374.1
8500.05
8619.87
8738.9
8885.01
9050.6
9199.29
9305.75
9408.86
9534.23
9661.95
9767.17
9856.4
9934.77
10019.9
10103.6
10178.9
10237.6
10292.3
10347.9
10401.8
10438.6
10464.5
10475.3
10485.7
10499.3
10513
10516
10518.9
10519.8
10519.9
10515.3
10507.2
10493.3
10475.8
10455.7
10436.8
10422.6
10415.7
10421.5
10442.9
10485.4
10548.4
10641.9
10762.1
10890.2
1349.08
1747.66
2164.29
2504.47
2789.65
3041.74
3266.46
3466.82
3646.43
3809.89
3961.62
4105.86
4243.7
4375.96
4505.46
4632.85
4757.49
4880.46
5002.85
5128.57
5259.98
5394.08
5530.52
5673.25
5819.45
5965.88
6109.43
6251.17
6394.99
6541.13
6682.48
6821.97
6961.07
7103.14
7246.07
7385.53
7521.27
7664.71
7818.67
7976.72
8117.82
8239.17
8356.2
8485.22
8611.53
8736.67
8845.03
8933.07
9013.56
9101.96
9180.17
9239.27
9281.07
9328.83
9374.99
9412.35
9432.96
9442.24
9441.27
9445.74
9449.22
9450.22
9446.31
9442.33
9434.57
9423.45
9404.9
9379.58
9347.73
9312.51
9278.41
9248.75
9228.82
9222.57
9239.81
9282.01
9356.88
9471.35
9631.98
9799.6
-86.9533
395.862
874.255
1243.88
1544.08
1793.68
2005.71
2190.62
2355.15
2505.17
2645.17
2778.53
2906.71
3032.17
3157.67
3283.52
3411.33
3540.65
3671.07
3803.25
3941.4
4085.94
4235.02
4387.98
4545.3
4704.27
4864.9
5024.98
5185.76
5345.57
5503.9
5659.89
5815.79
5970.37
6125.33
6276.79
6428.18
6580.44
6736.45
6888.1
7031.7
7163.58
7294.03
7422.49
7550.09
7673.19
7785.84
7877.57
7964.95
8050.31
8127.06
8182.01
8228.5
8273.17
8317.67
8348.75
8370.48
8380.55
8386.02
8388.68
8392.67
8391.82
8388.36
8379.31
8366.33
8346.2
8318.05
8280.08
8233.34
8181.5
8128.61
8081.23
8042.37
8022.03
8026.74
8066.42
8146.36
8284.48
8482.7
8703.28
-1514.71
-927.057
-365.104
43.9729
349.943
588.233
781.586
945.064
1089.92
1223.34
1350.45
1474.24
1595.98
1715.91
1836.75
1959.92
2085.31
2214.04
2346.64
2484.17
2628.37
2780.18
2938.41
3102.94
3272.82
3447.39
3624.17
3802.37
3980.18
4157.62
4332.48
4506.18
4677.35
4847.04
5013.23
5177.41
5337.99
5498.28
5655.4
5809.62
5954.94
6094.04
6225.71
6354.51
6476.18
6594.45
6700.5
6796.66
6883.83
6968.89
7041.39
7103.47
7155.01
7205.1
7247.39
7283.12
7307.85
7327.26
7338.64
7348.52
7354.19
7357.01
7352.45
7341.44
7322.21
7294.93
7256.73
7206.21
7144.71
7074.62
7002.64
6932.36
6872.56
6829.23
6816.99
6842.88
6924.94
7076.6
7319.17
7594.62
-2958.23
-2220.07
-1543.57
-1100.48
-800.768
-586.562
-426.372
-296.264
-181.244
-71.9143
36.0961
145.447
256.522
369.685
485.582
605.447
729.664
859.741
996.685
1141.55
1295.37
1458.41
1630.25
1809.78
1996.48
2189.33
2386.41
2584.99
2783.9
2980.41
3174.2
3364.36
3552.51
3735.59
3914.81
4088.28
4258.43
4423.69
4586.09
4741.71
4891.63
5032.12
5167.06
5293.36
5414.62
5526.86
5632.77
5727.74
5817.94
5899.49
5974.82
6038.77
6098
6149.74
6197.82
6236.5
6269.63
6293.99
6314.01
6327.84
6339.11
6344.37
6343.73
6334.2
6316.92
6290.81
6252.1
6198.47
6127.43
6043
5947.45
5851.07
5759.23
5685.43
5639.71
5643
5708.89
5868.96
6155.53
6501.29
-4489.36
-3381.39
-2528.42
-2056.73
-1764.97
-1567.33
-1424.14
-1310.85
-1211.01
-1116.33
-1022.4
-927.9
-831.663
-733.978
-633.895
-530.765
-422.935
-308.927
-186.741
-55.3232
86.7326
240.238
405.48
582.205
769.316
966.123
1172.61
1386.83
1604.75
1822.42
2034.35
2241.27
2444.16
2641.95
2832.27
3016.75
3193.34
3365.02
3529.28
3688.33
3838.61
3982.63
4117.36
4246.16
4365.48
4479.21
4583.33
4681.93
4771.39
4856.14
4931.23
5000.95
5062.04
5119.67
5169.56
5214.88
5251.61
5283.68
5308.59
5330.63
5349.65
5368.35
5384.14
5393.89
5394.78
5387.12
5365.43
5315.2
5230.57
5110.16
4966.3
4814.91
4673.87
4550.96
4465.52
4430.75
4470.32
4622.88
4980.9
5479.21
-5435.53
-3437.05
-2381.63
-1900.48
-1601.08
-1389.06
-1232.09
-1109.5
-1010.26
-928.098
-859.17
-799.922
-747.949
-700.828
-657.126
-615.114
-573.451
-530.363
-484.351
-433.612
-376.509
-310.722
-233.891
-143.474
-38.086
84.3906
227.703
393.431
581.318
783.443
987.979
1187.54
1386.52
1582.06
1776.06
1964.94
2147.4
2322.04
2490.47
2650.04
2803.2
2946.53
3083.35
3210.43
3331.77
3443.99
3551.24
3649.6
3743.08
3827.59
3907.14
3977.73
4044.14
4103.06
4158.66
4207.44
4253.05
4293.94
4333.8
4372.08
4414.62
4462.12
4511.03
4539.09
4525.23
4461.1
4337.87
4136.35
3866.22
3576.54
3302.09
3071.18
2891.3
2766.9
2696.8
2690.27
2753.77
2944.19
3426.72
4339.53
-2765.41
-1188.49
-691.502
-490.264
-362.258
-276.574
-217.189
-174.974
-144.893
-123.84
-109.406
-99.7862
-93.6733
-89.8285
-87.6186
-86.6346
-86.4512
-86.9284
-87.7196
-88.3966
-88.4
-87.0095
-83.1882
-75.737
-62.8494
-42.262
-11.0332
34.1182
93.9697
168.479
262.522
369.342
491.506
640.228
812.482
988.904
1157.58
1323.02
1479.61
1635.12
1785.1
1929.37
2064.59
2193.54
2313.54
2428.05
2533.84
2634.81
2726.97
2814.64
2894.05
2969.3
3037.29
3102.83
3163.71
3224.69
3283.59
3346.13
3407.08
3458.74
3482.44
3469.74
3402.36
3216.39
2891.09
2498.81
2089.33
1695.04
1340.27
1065.41
872.669
739.133
658.772
619.97
617.903
649.918
719.605
851.189
1152.39
1969.89
-10.0553
-10.0548
-10.0544
-10.055
-10.0559
-10.0565
-10.0565
-10.0559
-10.0552
-10.0547
-10.0539
-10.055
-10.0553
-10.0527
-10.0522
-10.0538
-10.0545
-10.0546
-10.0547
-10.0547
-10.0547
-10.0547
-10.0547
-10.0548
-10.0547
-10.0547
-10.0543
-10.0545
-10.0547
-9.45203
2.0172
25.8852
63.4065
123.83
204.204
288.98
374.081
464.283
574.637
701.079
832.962
960.352
1085.63
1202.76
1319.99
1431.3
1539.22
1639.15
1734.17
1821.77
1906.51
1984.76
2061.08
2133.18
2204.11
2264.47
2309.83
2336.22
2319.14
2213.97
2010.85
1731.04
1383.49
994.083
635.642
364.813
163.756
59.775
7.29167
-10.033
-10.0352
-10.0364
-10.0372
-10.0377
-10.038
-10.0384
-8.84433
-3.81596
0.970838
49.0987
-10.5458
-10.5457
-10.5445
-10.5424
-10.5411
-10.5405
-10.54
-10.5399
-10.5407
-10.543
-10.5442
-10.5443
-10.5429
-10.5415
-10.543
-10.5448
-10.5451
-10.5451
-10.5452
-10.5452
-10.5452
-10.5452
-10.5453
-10.5454
-10.5454
-10.5453
-10.5452
-10.5452
-10.5453
-10.5458
-10.5446
-10.5415
-10.5438
-10.2509
-6.57036
5.97717
28.8715
60.3263
102.684
145.724
187.441
232.985
284.437
351.145
431.601
524.059
616.913
709.318
794.17
877.365
955.664
1028.52
1090.29
1138.59
1159.93
1151.24
1102.39
999.251
833.47
616.594
408.345
224.744
75.323
-6.86498
-10.5255
-10.5286
-10.5304
-10.5311
-10.5313
-10.5314
-10.5313
-10.5312
-10.5311
-10.531
-10.5309
-10.5308
-10.5308
-10.5308
-10.5308
-10.5294
-11.0363
-11.0362
-11.036
-11.0357
-11.0358
-11.0357
-11.0356
-11.0354
-11.0352
-11.0354
-11.0354
-11.0355
-11.0351
-11.0346
-11.0351
-11.0355
-11.0356
-11.0356
-11.0357
-11.0358
-11.0359
-11.0359
-11.036
-11.0362
-11.0362
-11.0362
-11.036
-11.0359
-11.0357
-11.0355
-11.0329
-11.0311
-11.0322
-11.0334
-11.0327
-11.0321
-11.0317
-11.0311
-11.8286
-13.3899
-10.7346
-3.1661
8.53919
25.3263
44.9077
67.7155
97.284
132.894
172.65
214.998
258.153
292.164
311.487
307.376
273.97
223.391
159.208
87.6537
22.4607
-10.7223
-11.0175
-11.0202
-11.0218
-11.0226
-11.0226
-11.0225
-11.0223
-11.0222
-11.022
-11.0219
-11.0218
-11.0217
-11.0216
-11.0215
-11.0214
-11.0214
-11.0213
-11.0213
-11.0212
-11.0211
-11.5267
-11.5267
-11.5266
-11.5266
-11.5265
-11.5264
-11.5263
-11.5262
-11.5261
-11.526
-11.5259
-11.5259
-11.5258
-11.5257
-11.5258
-11.5259
-11.526
-11.5261
-11.5262
-11.5263
-11.5263
-11.5264
-11.5264
-11.5265
-11.5266
-11.5266
-11.5265
-11.5263
-11.5262
-11.526
-11.5256
-11.525
-11.5236
-11.5232
-11.5229
-11.5226
-11.5222
-11.5216
-11.5211
-11.5204
-11.5196
-11.5192
-11.5192
-12.0842
-16.2561
-20.6189
-22.396
-20.9761
-17.2059
-12.3037
-7.67134
-5.17516
-5.81751
-8.92196
-11.4997
-11.5107
-11.5116
-11.5124
-11.5132
-11.5135
-11.5135
-11.5135
-11.5133
-11.5132
-11.5131
-11.513
-11.5129
-11.5127
-11.5126
-11.5125
-11.5123
-11.5122
-11.5121
-11.512
-11.5119
-11.5119
-11.5118
-11.5118
-11.5117
-11.5117
-12.0172
-12.0172
-12.0171
-12.0171
-12.017
-12.0169
-12.0168
-12.0167
-12.0166
-12.0165
-12.0164
-12.0164
-12.0164
-12.0163
-12.0164
-12.0164
-12.0165
-12.0166
-12.0167
-12.0167
-12.0168
-12.0169
-12.017
-12.017
-12.017
-12.017
-12.0169
-12.0168
-12.0166
-12.0164
-12.0161
-12.0158
-12.0147
-12.0139
-12.0135
-12.0131
-12.0126
-12.0121
-12.0116
-12.0109
-12.0099
-12.0092
-12.0086
-12.008
-12.0074
-12.0069
-12.0066
-12.0063
-12.006
-12.0056
-12.0052
-12.0048
-12.0045
-12.0043
-12.0043
-12.0043
-12.0042
-12.0042
-12.0042
-12.0041
-12.004
-12.004
-12.0039
-12.0038
-12.0037
-12.0035
-12.0034
-12.0033
-12.0031
-12.003
-12.0029
-12.0028
-12.0027
-12.0026
-12.0025
-12.0024
-12.0023
-12.0023
-12.0023
-12.0023
-12.5077
-12.5077
-12.5077
-12.5076
-12.5075
-12.5074
-12.5073
-12.5072
-12.5071
-12.507
-12.5069
-12.5069
-12.5068
-12.5068
-12.5068
-12.5069
-12.507
-12.507
-12.5071
-12.5072
-12.5073
-12.5074
-12.5075
-12.5075
-12.5075
-12.5074
-12.5074
-12.5073
-12.5071
-12.5068
-12.5064
-12.506
-12.5054
-12.5047
-12.5041
-12.5036
-12.503
-12.5024
-12.5018
-12.5011
-12.5003
-12.4997
-12.4991
-12.4985
-12.4978
-12.4971
-12.4966
-12.4961
-12.4958
-12.4955
-12.4952
-12.495
-12.4949
-12.4948
-12.4948
-12.4948
-12.4947
-12.4947
-12.4947
-12.4947
-12.4946
-12.4945
-12.4944
-12.4943
-12.4942
-12.4941
-12.494
-12.4938
-12.4937
-12.4936
-12.4934
-12.4933
-12.4932
-12.4931
-12.493
-12.4929
-12.4929
-12.4928
-12.4928
-12.4928
-12.9982
-12.9982
-12.9982
-12.9981
-12.998
-12.9979
-12.9978
-12.9977
-12.9976
-12.9975
-12.9974
-12.9974
-12.9973
-12.9973
-12.9973
-12.9974
-12.9974
-12.9975
-12.9976
-12.9977
-12.9978
-12.9979
-12.998
-12.998
-12.998
-12.998
-12.9979
-12.9977
-12.9975
-12.9973
-12.9969
-12.9964
-12.9959
-12.9953
-12.9947
-12.9941
-12.9935
-12.9928
-12.9921
-12.9914
-12.9907
-12.99
-12.9894
-12.9887
-12.9881
-12.9875
-12.9871
-12.9866
-12.9863
-12.986
-12.9857
-12.9855
-12.9854
-12.9853
-12.9853
-12.9853
-12.9853
-12.9853
-12.9852
-12.9852
-12.9851
-12.9851
-12.985
-12.9849
-12.9848
-12.9847
-12.9845
-12.9844
-12.9843
-12.9841
-12.984
-12.9839
-12.9838
-12.9837
-12.9836
-12.9835
-12.9835
-12.9834
-12.9834
-12.9834
-13.4888
-13.4888
-13.4887
-13.4886
-13.4886
-13.4885
-13.4883
-13.4882
-13.4881
-13.488
-13.4879
-13.4879
-13.4878
-13.4878
-13.4878
-13.4879
-13.4879
-13.488
-13.4881
-13.4882
-13.4883
-13.4884
-13.4884
-13.4885
-13.4885
-13.4884
-13.4884
-13.4882
-13.488
-13.4877
-13.4874
-13.4869
-13.4864
-13.4858
-13.4852
-13.4846
-13.4839
-13.4832
-13.4825
-13.4818
-13.4811
-13.4804
-13.4797
-13.4791
-13.4785
-13.478
-13.4775
-13.4771
-13.4767
-13.4764
-13.4762
-13.476
-13.4759
-13.4758
-13.4758
-13.4758
-13.4758
-13.4758
-13.4758
-13.4758
-13.4757
-13.4757
-13.4756
-13.4755
-13.4754
-13.4752
-13.4751
-13.475
-13.4749
-13.4747
-13.4746
-13.4745
-13.4744
-13.4743
-13.4742
-13.4741
-13.474
-13.474
-13.474
-13.474
-13.9793
-13.9793
-13.9792
-13.9792
-13.9791
-13.979
-13.9789
-13.9787
-13.9786
-13.9785
-13.9784
-13.9784
-13.9783
-13.9783
-13.9783
-13.9783
-13.9784
-13.9785
-13.9786
-13.9787
-13.9788
-13.9788
-13.9789
-13.979
-13.979
-13.9789
-13.9789
-13.9787
-13.9785
-13.9782
-13.9779
-13.9775
-13.977
-13.9764
-13.9758
-13.9751
-13.9744
-13.9737
-13.9729
-13.9722
-13.9715
-13.9708
-13.9701
-13.9695
-13.9689
-13.9684
-13.9679
-13.9675
-13.9672
-13.9669
-13.9667
-13.9666
-13.9665
-13.9664
-13.9664
-13.9663
-13.9663
-13.9663
-13.9663
-13.9663
-13.9663
-13.9662
-13.9662
-13.9661
-13.966
-13.9659
-13.9657
-13.9656
-13.9655
-13.9653
-13.9652
-13.9651
-13.965
-13.9649
-13.9648
-13.9647
-13.9646
-13.9646
-13.9646
-13.9646
-14.4698
-14.4698
-14.4698
-14.4697
-14.4696
-14.4695
-14.4694
-14.4693
-14.4691
-14.469
-14.4689
-14.4689
-14.4688
-14.4688
-14.4688
-14.4688
-14.4689
-14.469
-14.469
-14.4691
-14.4692
-14.4693
-14.4694
-14.4694
-14.4694
-14.4694
-14.4694
-14.4692
-14.469
-14.4688
-14.4684
-14.468
-14.4675
-14.467
-14.4663
-14.4656
-14.4649
-14.4641
-14.4634
-14.4626
-14.4618
-14.4611
-14.4604
-14.4598
-14.4593
-14.4587
-14.4583
-14.4579
-14.4576
-14.4574
-14.4572
-14.4571
-14.457
-14.4569
-14.4569
-14.4569
-14.4569
-14.4569
-14.4569
-14.4569
-14.4569
-14.4568
-14.4568
-14.4567
-14.4566
-14.4565
-14.4563
-14.4562
-14.4561
-14.456
-14.4558
-14.4557
-14.4556
-14.4555
-14.4554
-14.4553
-14.4552
-14.4552
-14.4552
-14.4552
-14.9604
-14.9603
-14.9603
-14.9602
-14.9601
-14.96
-14.9599
-14.9598
-14.9597
-14.9595
-14.9594
-14.9594
-14.9593
-14.9593
-14.9593
-14.9593
-14.9594
-14.9594
-14.9595
-14.9596
-14.9597
-14.9598
-14.9599
-14.9599
-14.9599
-14.9599
-14.9599
-14.9598
-14.9596
-14.9593
-14.959
-14.9586
-14.9581
-14.9576
-14.9569
-14.9562
-14.9554
-14.9546
-14.9538
-14.953
-14.9522
-14.9515
-14.9508
-14.9502
-14.9496
-14.9492
-14.9487
-14.9484
-14.9481
-14.9478
-14.9477
-14.9476
-14.9475
-14.9474
-14.9474
-14.9475
-14.9475
-14.9475
-14.9475
-14.9475
-14.9475
-14.9475
-14.9474
-14.9473
-14.9472
-14.9471
-14.947
-14.9469
-14.9467
-14.9466
-14.9465
-14.9463
-14.9462
-14.9461
-14.946
-14.9459
-14.9459
-14.9458
-14.9458
-14.9458
-15.4509
-15.4509
-15.4508
-15.4508
-15.4507
-15.4506
-15.4504
-15.4503
-15.4502
-15.4501
-15.45
-15.4499
-15.4498
-15.4498
-15.4498
-15.4498
-15.4498
-15.4499
-15.45
-15.4501
-15.4502
-15.4503
-15.4503
-15.4504
-15.4504
-15.4504
-15.4504
-15.4503
-15.4501
-15.4499
-15.4496
-15.4492
-15.4488
-15.4482
-15.4476
-15.4468
-15.446
-15.4452
-15.4443
-15.4434
-15.4426
-15.4419
-15.4412
-15.4406
-15.44
-15.4395
-15.4392
-15.4388
-15.4386
-15.4383
-15.4382
-15.4381
-15.438
-15.438
-15.438
-15.438
-15.4381
-15.4381
-15.4381
-15.4381
-15.4381
-15.4381
-15.438
-15.438
-15.4379
-15.4378
-15.4376
-15.4375
-15.4374
-15.4372
-15.4371
-15.437
-15.4369
-15.4368
-15.4367
-15.4366
-15.4365
-15.4364
-15.4364
-15.4364
-15.9415
-15.9414
-15.9414
-15.9413
-15.9412
-15.9411
-15.941
-15.9408
-15.9407
-15.9406
-15.9405
-15.9404
-15.9403
-15.9403
-15.9403
-15.9403
-15.9403
-15.9404
-15.9404
-15.9405
-15.9406
-15.9407
-15.9408
-15.9409
-15.9409
-15.9409
-15.9409
-15.9408
-15.9407
-15.9405
-15.9402
-15.9399
-15.9394
-15.9389
-15.9383
-15.9375
-15.9367
-15.9358
-15.9348
-15.9339
-15.933
-15.9322
-15.9315
-15.9309
-15.9304
-15.9299
-15.9296
-15.9293
-15.929
-15.9288
-15.9287
-15.9286
-15.9286
-15.9286
-15.9286
-15.9286
-15.9287
-15.9287
-15.9287
-15.9288
-15.9288
-15.9287
-15.9287
-15.9286
-15.9285
-15.9284
-15.9283
-15.9282
-15.928
-15.9279
-15.9278
-15.9276
-15.9275
-15.9274
-15.9273
-15.9272
-15.9271
-15.9271
-15.927
-15.927
-16.432
-16.432
-16.4319
-16.4318
-16.4317
-16.4316
-16.4315
-16.4314
-16.4312
-16.4311
-16.431
-16.4309
-16.4308
-16.4308
-16.4308
-16.4308
-16.4308
-16.4309
-16.4309
-16.431
-16.4311
-16.4312
-16.4313
-16.4313
-16.4314
-16.4314
-16.4314
-16.4314
-16.4313
-16.4311
-16.4309
-16.4306
-16.4302
-16.4297
-16.429
-16.4283
-16.4274
-16.4264
-16.4254
-16.4244
-16.4234
-16.4226
-16.4219
-16.4213
-16.4207
-16.4203
-16.42
-16.4197
-16.4195
-16.4194
-16.4192
-16.4192
-16.4192
-16.4192
-16.4192
-16.4192
-16.4193
-16.4193
-16.4194
-16.4194
-16.4194
-16.4194
-16.4194
-16.4193
-16.4192
-16.4191
-16.419
-16.4189
-16.4187
-16.4186
-16.4184
-16.4183
-16.4182
-16.4181
-16.4179
-16.4178
-16.4178
-16.4177
-16.4177
-16.4177
-16.9225
-16.9225
-16.9225
-16.9224
-16.9223
-16.9222
-16.922
-16.9219
-16.9218
-16.9216
-16.9215
-16.9214
-16.9213
-16.9213
-16.9213
-16.9213
-16.9213
-16.9213
-16.9214
-16.9215
-16.9216
-16.9217
-16.9217
-16.9218
-16.9219
-16.922
-16.922
-16.922
-16.9219
-16.9218
-16.9216
-16.9213
-16.921
-16.9205
-16.9199
-16.9192
-16.9184
-16.9173
-16.916
-16.9149
-16.9138
-16.9129
-16.9122
-16.9116
-16.9111
-16.9107
-16.9104
-16.9102
-16.91
-16.9099
-16.9098
-16.9097
-16.9097
-16.9098
-16.9098
-16.9098
-16.9099
-16.91
-16.91
-16.9101
-16.9101
-16.9101
-16.91
-16.91
-16.9099
-16.9098
-16.9097
-16.9095
-16.9094
-16.9093
-16.9091
-16.909
-16.9088
-16.9087
-16.9086
-16.9085
-16.9084
-16.9084
-16.9083
-16.9083
-17.4131
-17.4131
-17.413
-17.4129
-17.4128
-17.4127
-17.4126
-17.4124
-17.4123
-17.4122
-17.4121
-17.412
-17.4119
-17.4118
-17.4118
-17.4118
-17.4118
-17.4118
-17.4119
-17.4119
-17.412
-17.4121
-17.4122
-17.4123
-17.4124
-17.4125
-17.4125
-17.4126
-17.4125
-17.4125
-17.4123
-17.4121
-17.4118
-17.4114
-17.4109
-17.4103
-17.4095
-17.4085
-17.407
-17.4054
-17.404
-17.4031
-17.4024
-17.4019
-17.4015
-17.4011
-17.4009
-17.4007
-17.4005
-17.4004
-17.4004
-17.4003
-17.4003
-17.4004
-17.4004
-17.4005
-17.4005
-17.4006
-17.4007
-17.4007
-17.4007
-17.4007
-17.4007
-17.4007
-17.4006
-17.4005
-17.4004
-17.4002
-17.4001
-17.4
-17.3998
-17.3997
-17.3995
-17.3994
-17.3993
-17.3991
-17.3991
-17.399
-17.399
-17.3989
-17.9037
-17.9036
-17.9036
-17.9035
-17.9034
-17.9033
-17.9031
-17.903
-17.9029
-17.9027
-17.9026
-17.9025
-17.9024
-17.9023
-17.9023
-17.9023
-17.9023
-17.9023
-17.9024
-17.9024
-17.9025
-17.9026
-17.9027
-17.9028
-17.9029
-17.903
-17.9031
-17.9031
-17.9032
-17.9031
-17.903
-17.9029
-17.9026
-17.9023
-17.9019
-17.9014
-17.9008
-17.8999
-17.8984
-17.8961
-17.8942
-17.8932
-17.8926
-17.8922
-17.8919
-17.8916
-17.8913
-17.8912
-17.891
-17.891
-17.8909
-17.8909
-17.8909
-17.891
-17.891
-17.8911
-17.8912
-17.8913
-17.8913
-17.8914
-17.8914
-17.8914
-17.8914
-17.8914
-17.8913
-17.8912
-17.8911
-17.8909
-17.8908
-17.8906
-17.8905
-17.8903
-17.8902
-17.89
-17.8899
-17.8898
-17.8897
-17.8897
-17.8896
-17.8896
-18.3942
-18.3942
-18.3942
-18.3941
-18.394
-18.3938
-18.3937
-18.3936
-18.3934
-18.3933
-18.3932
-18.3931
-18.393
-18.3929
-18.3928
-18.3928
-18.3928
-18.3928
-18.3929
-18.3929
-18.393
-18.3931
-18.3932
-18.3933
-18.3934
-18.3936
-18.3937
-18.3937
-18.3938
-18.3938
-18.3937
-18.3936
-18.3934
-18.3932
-18.3929
-18.3924
-18.3919
-18.3913
-18.3894
-18.3874
-18.385
-18.3836
-18.3828
-18.3825
-18.3822
-18.382
-18.3818
-18.3817
-18.3816
-18.3815
-18.3815
-18.3815
-18.3816
-18.3816
-18.3817
-18.3818
-18.3819
-18.3819
-18.382
-18.3821
-18.3821
-18.3821
-18.3821
-18.3821
-18.382
-18.3819
-18.3818
-18.3816
-18.3815
-18.3813
-18.3812
-18.381
-18.3809
-18.3807
-18.3806
-18.3805
-18.3804
-18.3803
-18.3803
-18.3803
-18.8848
-18.8848
-18.8847
-18.8847
-18.8846
-18.8844
-18.8843
-18.8842
-18.884
-18.8839
-18.8837
-18.8836
-18.8835
-18.8834
-18.8834
-18.8833
-18.8833
-18.8833
-18.8834
-18.8834
-18.8835
-18.8836
-18.8837
-18.8838
-18.884
-18.8841
-18.8842
-18.8843
-18.8844
-18.8844
-18.8844
-18.8844
-18.8843
-18.8841
-18.8839
-18.8835
-18.8829
-18.8823
-18.8805
-18.884
-18.8795
-18.8759
-18.8731
-18.8729
-18.8726
-18.8724
-18.8723
-18.8722
-18.8722
-18.8721
-18.8721
-18.8722
-18.8722
-18.8723
-18.8724
-18.8725
-18.8725
-18.8726
-18.8727
-18.8728
-18.8728
-18.8728
-18.8728
-18.8728
-18.8727
-18.8726
-18.8725
-18.8723
-18.8722
-18.872
-18.8719
-18.8717
-18.8716
-18.8714
-18.8713
-18.8711
-18.871
-18.871
-18.8709
-18.8709
-19.3754
-19.3754
-19.3753
-19.3753
-19.3751
-19.375
-19.3749
-19.3747
-19.3746
-19.3745
-19.3743
-19.3742
-19.3741
-19.374
-19.3739
-19.3739
-19.3739
-19.3739
-19.3739
-19.3739
-19.374
-19.3741
-19.3742
-19.3743
-19.3745
-19.3746
-19.3748
-19.3749
-19.375
-19.3751
-19.3751
-19.3751
-19.3751
-19.375
-19.3748
-19.3746
-19.3739
-19.3746
-19.417
-19.4435
-19.4173
-19.3824
-19.3648
-19.3632
-19.363
-19.3629
-19.3628
-19.3628
-19.3628
-19.3628
-19.3628
-19.3628
-19.3629
-19.363
-19.363
-19.3631
-19.3632
-19.3633
-19.3634
-19.3635
-19.3635
-19.3635
-19.3635
-19.3635
-19.3634
-19.3633
-19.3632
-19.3631
-19.3629
-19.3627
-19.3626
-19.3624
-19.3622
-19.3621
-19.362
-19.3618
-19.3617
-19.3617
-19.3616
-19.3616
-19.866
-19.866
-19.8659
-19.8659
-19.8658
-19.8656
-19.8655
-19.8654
-19.8652
-19.8651
-19.8649
-19.8648
-19.8647
-19.8646
-19.8645
-19.8644
-19.8644
-19.8644
-19.8644
-19.8644
-19.8645
-19.8646
-19.8647
-19.8649
-19.865
-19.8652
-19.8653
-19.8655
-19.8656
-19.8657
-19.8658
-19.8658
-19.8658
-19.8658
-19.8658
-19.866
-19.8657
-19.9242
-20.2263
-20.4022
-20.449
-19.9273
-19.9075
-19.8535
-19.8535
-19.8534
-19.8534
-19.8534
-19.8534
-19.8534
-19.8534
-19.8535
-19.8536
-19.8536
-19.8537
-19.8538
-19.8539
-19.854
-19.8541
-19.8542
-19.8542
-19.8542
-19.8542
-19.8542
-19.8541
-19.854
-19.8539
-19.8538
-19.8536
-19.8535
-19.8533
-19.8531
-19.8529
-19.8528
-19.8526
-19.8525
-19.8524
-19.8524
-19.8523
-19.8523
-20.3566
-20.3566
-20.3566
-20.3565
-20.3564
-20.3563
-20.3561
-20.356
-20.3558
-20.3557
-20.3555
-20.3554
-20.3553
-20.3552
-20.3551
-20.355
-20.355
-20.3549
-20.3549
-20.355
-20.355
-20.3551
-20.3552
-20.3554
-20.3555
-20.3557
-20.3559
-20.356
-20.3561
-20.3563
-20.3564
-20.3565
-20.3565
-20.3565
-20.3564
-20.3565
-20.3583
-21.2392
-24.206
-28.1503
-28.5972
-26.1786
-20.6156
-20.344
-20.344
-20.344
-20.344
-20.344
-20.344
-20.3441
-20.3441
-20.3442
-20.3443
-20.3444
-20.3444
-20.3445
-20.3446
-20.3447
-20.3448
-20.3449
-20.3449
-20.3449
-20.3449
-20.3449
-20.3448
-20.3447
-20.3446
-20.3445
-20.3443
-20.3442
-20.344
-20.3438
-20.3437
-20.3435
-20.3434
-20.3432
-20.3431
-20.3431
-20.343
-20.343
-20.8473
-20.8472
-20.8472
-20.8471
-20.847
-20.8469
-20.8468
-20.8466
-20.8465
-20.8463
-20.8461
-20.846
-20.8459
-20.8457
-20.8456
-20.8456
-20.8455
-20.8455
-20.8455
-20.8455
-20.8456
-20.8457
-20.8458
-20.8459
-20.8461
-20.8462
-20.8464
-20.8465
-20.8467
-20.8468
-20.8469
-20.847
-20.8472
-20.8472
-20.847
-20.8464
-20.8458
-23.9085
-76.2544
-121.845
-127.368
-60.5545
-20.8569
-20.8346
-20.8346
-20.8346
-20.8346
-20.8347
-20.8347
-20.8348
-20.8348
-20.8349
-20.835
-20.8351
-20.8352
-20.8353
-20.8354
-20.8355
-20.8355
-20.8356
-20.8356
-20.8356
-20.8356
-20.8356
-20.8355
-20.8354
-20.8353
-20.8352
-20.8351
-20.8349
-20.8347
-20.8345
-20.8344
-20.8342
-20.8341
-20.834
-20.8339
-20.8338
-20.8337
-20.8337
-21.3379
-21.3379
-21.3378
-21.3378
-21.3377
-21.3375
-21.3374
-21.3372
-21.3371
-21.3369
-21.3368
-21.3366
-21.3365
-21.3363
-21.3362
-21.3362
-21.3361
-21.3361
-21.336
-21.3361
-21.3361
-21.3362