/*--------------------------------*- C++ -*----------------------------------*\
| =========                 |                                                 |
| \\      /  F ield         | OpenFOAM: The Open Source CFD Toolbox           |
|  \\    /   O peration     | Version:  2412                                  |
|   \\  /    A nd           | Website:  www.openfoam.com                      |
|    \\/     M anipulation  |                                                 |
\*---------------------------------------------------------------------------*/
FoamFile
{
    version     2.0;
    format      ascii;
    arch        "LSB;label=32;scalar=64";
    class       surfaceScalarField;
    location    "1.3";
    object      alphaPhi0.honey;
}
// * * * * * * * * * * * * * * * * * * * * * * * * * * * * * * * * * * * * * //

dimensions      [0 3 -1 0 0 0 0];

oriented        oriented;

internalField   nonuniform List<scalar> 
12640
(
1.10927e-12
-1.10397e-12
-9.00259e-13
-4.7718e-12
-1.15224e-12
-6.10973e-12
-1.05378e-12
-6.14214e-12
-1.10184e-12
-5.97243e-12
-1.23569e-12
-5.87543e-12
-1.41429e-12
-5.8287e-12
-1.64352e-12
-5.7878e-12
-1.93099e-12
-5.74895e-12
-2.2794e-12
-5.71011e-12
-2.67706e-12
-5.68292e-12
-3.10665e-12
-5.66812e-12
-3.54248e-12
-5.67296e-12
-3.96057e-12
-5.69291e-12
-4.33534e-12
-5.73004e-12
-4.65042e-12
-5.77534e-12
-4.89235e-12
-5.82902e-12
-5.05734e-12
-5.8843e-12
-5.14456e-12
-5.94198e-12
-5.15987e-12
-5.99814e-12
-5.10978e-12
-6.05429e-12
-5.00585e-12
-6.10655e-12
-4.85794e-12
-6.15675e-12
-4.67675e-12
-6.20374e-12
-4.47049e-12
-6.24872e-12
-4.2475e-12
-6.29045e-12
-4.01327e-12
-6.32993e-12
-3.77273e-12
-6.3665e-12
-3.52886e-12
-6.40045e-12
-3.28439e-12
-6.43113e-12
-3.04068e-12
-6.45881e-12
-2.7988e-12
-6.48332e-12
-2.55892e-12
-6.50503e-12
-2.32093e-12
-6.5241e-12
-2.08392e-12
-6.54106e-12
-1.8467e-12
-6.55627e-12
-1.60767e-12
-6.57003e-12
-1.36526e-12
-6.58238e-12
-1.11778e-12
-6.5934e-12
-8.63416e-13
-6.60325e-12
-6.00073e-13
-6.61217e-12
-3.25379e-13
-6.62048e-12
-3.69233e-14
-6.62819e-12
2.6768e-13
-6.63528e-12
5.90226e-13
-6.64119e-12
9.32074e-13
-6.64543e-12
1.29349e-12
-6.647e-12
1.67434e-12
-6.64546e-12
2.0732e-12
-6.63967e-12
2.48838e-12
-6.62934e-12
2.91606e-12
-6.61269e-12
3.35193e-12
-6.5893e-12
3.7886e-12
-6.55671e-12
4.2187e-12
-6.51529e-12
4.63143e-12
-6.46258e-12
5.01693e-12
-6.40022e-12
5.36097e-12
-6.32516e-12
5.65131e-12
-6.24041e-12
5.87151e-12
-6.14315e-12
6.01047e-12
-6.03973e-12
6.05409e-12
-5.9281e-12
5.99644e-12
-5.81685e-12
5.82835e-12
-5.70251e-12
5.55202e-12
-5.59589e-12
5.16879e-12
-5.49423e-12
4.69594e-12
-5.41199e-12
4.14957e-12
-5.34473e-12
3.55964e-12
-5.30498e-12
2.95038e-12
-5.28362e-12
2.3564e-12
-5.29161e-12
1.80162e-12
-5.31637e-12
1.31188e-12
-5.36344e-12
8.94797e-13
-5.41452e-12
5.60237e-13
-5.4781e-12
3.28975e-13
-5.56575e-12
2.83644e-13
-5.74611e-12
5.44677e-13
-6.05565e-12
1.07376e-12
-6.33357e-12
1.31982e-12
-6.04606e-12
-4.1483e-12
1.41244e-13
-8.03575e-12
-1.54257e-12
-1.60501e-11
-1.63669e-12
-1.82663e-11
-1.65428e-12
-1.80186e-11
-2.04007e-12
-1.74467e-11
-2.64268e-12
-1.7127e-11
-3.34634e-12
-1.69907e-11
-4.12214e-12
-1.69089e-11
-4.97714e-12
-1.6829e-11
-5.90369e-12
-1.67575e-11
-6.88324e-12
-1.6708e-11
-7.87629e-12
-1.66992e-11
-8.84599e-12
-1.67311e-11
-9.74891e-12
-1.68065e-11
-1.05518e-11
-1.69182e-11
-1.12221e-11
-1.70616e-11
-1.1746e-11
-1.72231e-11
-1.21112e-11
-1.74012e-11
-1.23218e-11
-1.75852e-11
-1.23816e-11
-1.77755e-11
-1.23054e-11
-1.79652e-11
-1.21061e-11
-1.81525e-11
-1.18043e-11
-1.83313e-11
-1.14152e-11
-1.85034e-11
-1.09571e-11
-1.86649e-11
-1.04434e-11
-1.88162e-11
-9.88903e-12
-1.89543e-11
-9.30425e-12
-1.90803e-11
-8.69955e-12
-1.91922e-11
-8.08173e-12
-1.92911e-11
-7.45749e-12
-1.93765e-11
-6.83057e-12
-1.94499e-11
-6.20407e-12
-1.95121e-11
-5.57848e-12
-1.95654e-11
-4.95332e-12
-1.96113e-11
-4.32612e-12
-1.96518e-11
-3.69372e-12
-1.96882e-11
-3.05178e-12
-1.97215e-11
-2.39539e-12
-1.97525e-11
-1.71883e-12
-1.97821e-11
-1.01568e-12
-1.98113e-11
-2.79288e-13
-1.98405e-11
4.97165e-13
-1.98701e-11
1.3194e-12
-1.98989e-11
2.19221e-12
-1.99254e-11
3.11768e-12
-1.99466e-11
4.09651e-12
-1.996e-11
5.12572e-12
-1.99619e-11
6.20116e-12
-1.995e-11
7.31371e-12
-1.99197e-11
8.45301e-12
-1.98682e-11
9.60196e-12
-1.97896e-11
1.07432e-11
-1.96819e-11
1.18519e-11
-1.95398e-11
1.29053e-11
-1.93644e-11
1.38721e-11
-1.91511e-11
1.47255e-11
-1.89033e-11
1.54292e-11
-1.86173e-11
1.59574e-11
-1.83022e-11
1.62767e-11
-1.79585e-11
1.63698e-11
-1.76011e-11
1.62123e-11
-1.72309e-11
1.58013e-11
-1.68647e-11
1.51284e-11
-1.65047e-11
1.42144e-11
-1.61743e-11
1.30766e-11
-1.58789e-11
1.1762e-11
-1.56412e-11
1.03094e-11
-1.54599e-11
8.78393e-12
-1.53527e-11
7.23692e-12
-1.53141e-11
5.73424e-12
-1.53519e-11
4.3136e-12
-1.54445e-11
3.01161e-12
-1.55824e-11
1.84697e-12
-1.57573e-11
8.83532e-13
-1.60333e-11
2.67217e-13
-1.65482e-11
2.04015e-13
-1.73849e-11
5.77578e-13
-1.80444e-11
1.43759e-13
-1.65826e-11
-9.09915e-12
-4.17417e-13
-1.39806e-11
-1.85537e-12
-2.6716e-11
-1.82903e-12
-2.97002e-11
-2.00723e-12
-2.89375e-11
-2.73408e-12
-2.77956e-11
-3.78003e-12
-2.71551e-11
-4.98123e-12
-2.6884e-11
-6.27552e-12
-2.67452e-11
-7.65048e-12
-2.66301e-11
-9.09563e-12
-2.65314e-11
-1.0576e-11
-2.64831e-11
-1.2051e-11
-2.65022e-11
-1.34644e-11
-2.66037e-11
-1.47745e-11
-2.67734e-11
-1.59351e-11
-2.70122e-11
-1.69188e-11
-2.73e-11
-1.76975e-11
-2.76301e-11
-1.8265e-11
-2.79849e-11
-1.86146e-11
-2.83594e-11
-1.87588e-11
-2.87391e-11
-1.87055e-11
-2.91233e-11
-1.84751e-11
-2.94989e-11
-1.80832e-11
-2.98634e-11
-1.75546e-11
-3.0208e-11
-1.69068e-11
-3.0533e-11
-1.61627e-11
-3.08315e-11
-1.53382e-11
-3.11038e-11
-1.44522e-11
-3.13463e-11
-1.35174e-11
-3.15607e-11
-1.25478e-11
-3.17455e-11
-1.15524e-11
-3.19037e-11
-1.05401e-11
-3.20364e-11
-9.51546e-12
-3.21483e-11
-8.48199e-12
-3.22423e-11
-7.43967e-12
-3.23234e-11
-6.38733e-12
-3.23949e-11
-5.32115e-12
-3.24606e-11
-4.23621e-12
-3.25229e-11
-3.12583e-12
-3.2584e-11
-1.9823e-12
-3.26462e-11
-7.96995e-13
-3.27112e-11
4.39282e-13
-3.27801e-11
1.73495e-12
-3.28525e-11
3.09771e-12
-3.29265e-11
4.53208e-12
-3.29974e-11
6.04078e-12
-3.30603e-11
7.62155e-12
-3.3108e-11
9.27028e-12
-3.31347e-11
1.0976e-11
-3.31319e-11
1.27262e-11
-3.3093e-11
1.44989e-11
-3.30072e-11
1.62717e-11
-3.28681e-11
1.80117e-11
-3.26648e-11
1.96883e-11
-3.23952e-11
2.12595e-11
-3.20511e-11
2.26886e-11
-3.16351e-11
2.39266e-11
-3.11407e-11
2.49358e-11
-3.05774e-11
2.56674e-11
-2.99456e-11
2.60922e-11
-2.92666e-11
2.61712e-11
-2.85465e-11
2.58912e-11
-2.78113e-11
2.52312e-11
-2.70686e-11
2.42043e-11
-2.63517e-11
2.28188e-11
-2.5675e-11
2.11196e-11
-2.50769e-11
1.9146e-11
-2.45683e-11
1.6971e-11
-2.41805e-11
1.46597e-11
-2.39184e-11
1.22994e-11
-2.38028e-11
9.95854e-12
-2.3821e-11
7.70595e-12
-2.39611e-11
5.5834e-12
-2.41877e-11
3.63818e-12
-2.45104e-11
1.9577e-12
-2.50329e-11
7.24642e-13
-2.59921e-11
1.89796e-13
-2.7516e-11
2.40984e-13
-2.87468e-11
-2.86543e-13
-2.63641e-11
-1.41402e-11
-6.02761e-13
-1.93656e-11
-2.14284e-12
-3.67345e-11
-2.26623e-12
-4.04935e-11
-2.69965e-12
-3.91336e-11
-3.75593e-12
-3.73504e-11
-5.18667e-12
-3.6342e-11
-6.80663e-12
-3.59055e-11
-8.5443e-12
-3.56917e-11
-1.03737e-11
-3.5533e-11
-1.22693e-11
-3.54164e-11
-1.41952e-11
-3.53764e-11
-1.60942e-11
-3.54486e-11
-1.79128e-11
-3.56399e-11
-1.95879e-11
-3.5947e-11
-2.10805e-11
-3.63473e-11
-2.2347e-11
-3.68309e-11
-2.33685e-11
-3.73715e-11
-2.41222e-11
-3.7961e-11
-2.46115e-11
-3.85737e-11
-2.48357e-11
-3.92028e-11
-2.48147e-11
-3.98297e-11
-2.45594e-11
-4.04499e-11
-2.40962e-11
-4.10458e-11
-2.34431e-11
-4.16142e-11
-2.2629e-11
-4.21428e-11
-2.16732e-11
-4.26309e-11
-2.06016e-11
-4.30705e-11
-1.94316e-11
-4.34633e-11
-1.81846e-11
-4.38056e-11
-1.68745e-11
-4.41014e-11
-1.5517e-11
-4.43514e-11
-1.41212e-11
-4.45621e-11
-1.26964e-11
-4.47377e-11
-1.12468e-11
-4.48863e-11
-9.77546e-12
-4.50137e-11
-8.28139e-12
-4.51274e-11
-6.76238e-12
-4.52324e-11
-5.21324e-12
-4.5334e-11
-3.62748e-12
-4.54362e-11
-1.99672e-12
-4.55428e-11
-3.11527e-13
-4.56567e-11
1.4376e-12
-4.57792e-11
3.25996e-12
-4.59096e-11
5.16209e-12
-4.60431e-11
7.1489e-12
-4.61734e-11
9.22e-12
-4.62904e-11
1.1373e-11
-4.63847e-11
1.3598e-11
-4.64432e-11
1.5883e-11
-4.64552e-11
1.82057e-11
-4.64043e-11
2.05424e-11
-4.62785e-11
2.28572e-11
-4.606e-11
2.5116e-11
-4.57405e-11
2.72706e-11
-4.53059e-11
2.92792e-11
-4.4755e-11
3.10836e-11
-4.40772e-11
3.2638e-11
-4.32794e-11
3.38808e-11
-4.23587e-11
3.47718e-11
-4.1338e-11
3.52569e-11
-4.0227e-11
3.53113e-11
-3.90609e-11
3.48981e-11
-3.7854e-11
3.40189e-11
-3.66497e-11
3.26666e-11
-3.54703e-11
3.08782e-11
-3.43696e-11
2.86824e-11
-3.33733e-11
2.61518e-11
-3.2532e-11
2.33516e-11
-3.18651e-11
2.03812e-11
-3.14117e-11
1.73247e-11
-3.11753e-11
1.4279e-11
-3.1162e-11
1.1316e-11
-3.1336e-11
8.5e-12
-3.16645e-11
5.8898e-12
-3.21543e-11
3.58312e-12
-3.29602e-11
1.77889e-12
-3.4411e-11
7.42814e-13
-3.66921e-11
4.14807e-13
-3.86121e-11
-2.84672e-13
-3.55406e-11
-1.9039e-11
-7.55512e-13
-2.44866e-11
-2.4893e-12
-4.62792e-11
-2.88553e-12
-5.07613e-11
-3.61302e-12
-4.87896e-11
-4.99123e-12
-4.63428e-11
-6.7598e-12
-4.49522e-11
-8.73624e-12
-4.43383e-11
-1.08456e-11
-4.4036e-11
-1.3054e-11
-4.38317e-11
-1.53286e-11
-4.36983e-11
-1.76201e-11
-4.36835e-11
-1.98736e-11
-4.38211e-11
-2.20206e-11
-4.41312e-11
-2.40043e-11
-4.4597e-11
-2.57643e-11
-4.52029e-11
-2.72694e-11
-4.59135e-11
-2.84815e-11
-4.67149e-11
-2.93932e-11
-4.75742e-11
-2.99894e-11
-4.84781e-11
-3.02836e-11
-4.93955e-11
-3.02803e-11
-5.03178e-11
-3.00062e-11
-5.12203e-11
-2.94755e-11
-5.20957e-11
-2.87196e-11
-5.29231e-11
-2.77582e-11
-5.36983e-11
-2.66228e-11
-5.44074e-11
-2.53334e-11
-5.50503e-11
-2.3918e-11
-5.56196e-11
-2.23943e-11
-5.61189e-11
-2.07845e-11
-5.65472e-11
-1.91021e-11
-5.6912e-11
-1.73627e-11
-5.72178e-11
-1.55749e-11
-5.7475e-11
-1.37472e-11
-5.76917e-11
-1.18825e-11
-5.78793e-11
-9.98284e-12
-5.80463e-11
-8.04607e-12
-5.82019e-11
-6.06866e-12
-5.8353e-11
-4.04411e-12
-5.85063e-11
-1.96443e-12
-5.86673e-11
1.79537e-13
-5.88403e-11
2.39739e-12
-5.90268e-11
4.69689e-12
-5.92243e-11
7.08467e-12
-5.94267e-11
9.56246e-12
-5.96231e-11
1.21302e-11
-5.98012e-11
1.47805e-11
-5.99444e-11
1.75038e-11
-6.00373e-11
2.02802e-11
-6.0059e-11
2.3088e-11
-5.99915e-11
2.5892e-11
-5.98099e-11
2.86583e-11
-5.94976e-11
3.1337e-11
-5.90325e-11
3.38844e-11
-5.84068e-11
3.62382e-11
-5.76036e-11
3.8348e-11
-5.66248e-11
4.01436e-11
-5.54614e-11
4.15763e-11
-5.41328e-11
4.25789e-11
-5.26468e-11
4.31158e-11
-5.10444e-11
4.31336e-11
-4.93456e-11
4.26206e-11
-4.76038e-11
4.15509e-11
-4.58481e-11
3.99484e-11
-4.41459e-11
3.78249e-11
-4.25356e-11
3.52435e-11
-4.10889e-11
3.22582e-11
-3.98427e-11
2.89692e-11
-3.88599e-11
2.54639e-11
-3.81637e-11
2.1856e-11
-3.7787e-11
1.82385e-11
-3.77149e-11
1.47043e-11
-3.792e-11
1.13248e-11
-3.83495e-11
8.16699e-12
-3.90191e-11
5.33617e-12
-4.01216e-11
3.02694e-12
-4.20807e-11
1.52808e-12
-4.51504e-11
7.73598e-13
-4.77942e-11
-1.93193e-13
-4.41925e-11
-2.37011e-11
-8.97428e-13
-2.93319e-11
-2.82211e-12
-5.52989e-11
-3.4764e-12
-6.0454e-11
-4.48806e-12
-5.78579e-11
-6.14697e-12
-5.47501e-11
-8.21011e-12
-5.29689e-11
-1.04864e-11
-5.21722e-11
-1.29033e-11
-5.17785e-11
-1.54229e-11
-5.15243e-11
-1.80029e-11
-5.13832e-11
-2.05935e-11
-5.13996e-11
-2.31236e-11
-5.16279e-11
-2.55341e-11
-5.2071e-11
-2.77517e-11
-5.27281e-11
-2.97298e-11
-5.35582e-11
-3.14134e-11
-5.45389e-11
-3.27827e-11
-5.5626e-11
-3.3809e-11
-5.68008e-11
-3.44975e-11
-5.80214e-11
-3.48406e-11
-5.92721e-11
-3.48612e-11
-6.05171e-11
-3.4568e-11
-6.17449e-11
-3.39928e-11
-6.29259e-11
-3.31521e-11
-6.40513e-11
-3.20806e-11
-6.5098e-11
-3.07988e-11
-6.60625e-11
-2.93394e-11
-6.69311e-11
-2.77225e-11
-6.77059e-11
-2.59759e-11
-6.83819e-11
-2.41167e-11
-6.89668e-11
-2.21664e-11
-6.94633e-11
-2.01377e-11
-6.98835e-11
-1.8045e-11
-7.02364e-11
-1.58953e-11
-7.05367e-11
-1.36959e-11
-7.07962e-11
-1.14482e-11
-7.10286e-11
-9.15311e-12
-7.12443e-11
-6.80712e-12
-7.14543e-11
-4.40522e-12
-7.16672e-11
-1.93993e-12
-7.1891e-11
5.97214e-13
-7.21308e-11
3.21411e-12
-7.23876e-11
5.91813e-12
-7.26584e-11
8.7127e-12
-7.29332e-11
1.15999e-11
-7.31994e-11
1.45749e-11
-7.34381e-11
1.76316e-11
-7.36307e-11
2.07536e-11
-7.37524e-11
2.39234e-11
-7.37801e-11
2.71092e-11
-7.36828e-11
3.02802e-11
-7.34358e-11
3.33884e-11
-7.30073e-11
3.63915e-11
-7.23803e-11
3.92269e-11
-7.15295e-11
4.18434e-11
-7.04497e-11
4.4167e-11
-6.91235e-11
4.6144e-11
-6.75628e-11
4.76983e-11
-6.57684e-11
4.87853e-11
-6.378e-11
4.93379e-11
-6.16195e-11
4.93316e-11
-5.93476e-11
4.87216e-11
-5.69992e-11
4.75162e-11
-5.46523e-11
4.57065e-11
-5.23556e-11
4.33412e-11
-5.01994e-11
4.04552e-11
-4.82375e-11
3.71393e-11
-4.65581e-11
3.34709e-11
-4.52067e-11
2.95681e-11
-4.42472e-11
2.55325e-11
-4.36943e-11
2.14802e-11
-4.35539e-11
1.75035e-11
-4.37752e-11
1.36841e-11
-4.43068e-11
1.00981e-11
-4.51595e-11
6.84241e-12
-4.65609e-11
4.13539e-12
-4.90456e-11
2.23364e-12
-5.28981e-11
1.13078e-12
-5.63118e-11
-1.01224e-13
-5.22757e-11
-2.80938e-11
-1.02963e-12
-3.38797e-11
-3.06858e-12
-6.3791e-11
-3.94713e-12
-6.95358e-11
-5.18962e-12
-6.6316e-11
-7.09045e-12
-6.25408e-11
-9.39205e-12
-6.03708e-11
-1.19215e-11
-5.93809e-11
-1.459e-11
-5.88951e-11
-1.73592e-11
-5.85958e-11
-2.01847e-11
-5.84492e-11
-2.30051e-11
-5.85148e-11
-2.57573e-11
-5.88408e-11
-2.8362e-11
-5.94473e-11
-3.07648e-11
-6.03067e-11
-3.28973e-11
-6.13951e-11
-3.47259e-11
-6.26588e-11
-3.62049e-11
-6.40707e-11
-3.73297e-11
-6.55761e-11
-3.80808e-11
-6.7152e-11
-3.84748e-11
-6.87511e-11
-3.85103e-11
-7.03557e-11
-3.8217e-11
-7.19254e-11
-3.76064e-11
-7.34466e-11
-3.67142e-11
-7.48863e-11
-3.55582e-11
-7.62354e-11
-3.41746e-11
-7.74716e-11
-3.25834e-11
-7.85933e-11
-3.08171e-11
-7.95895e-11
-2.88946e-11
-8.04662e-11
-2.68429e-11
-8.12225e-11
-2.46775e-11
-8.18707e-11
-2.24187e-11
-8.24188e-11
-2.00772e-11
-8.28838e-11
-1.76657e-11
-8.32794e-11
-1.519e-11
-8.36237e-11
-1.26556e-11
-8.39308e-11
-1.00631e-11
-8.42165e-11
-7.41145e-12
-8.44931e-11
-4.6962e-12
-8.47729e-11
-1.91146e-12
-8.50654e-11
9.49527e-13
-8.53766e-11
3.89355e-12
-8.57076e-11
6.92479e-12
-8.60525e-11
1.00465e-11
-8.64006e-11
1.32562e-11
-8.67334e-11
1.65507e-11
-8.70308e-11
1.99174e-11
-8.72657e-11
2.33435e-11
-8.74116e-11
2.68024e-11
-8.7433e-11
3.02681e-11
-8.72984e-11
3.36975e-11
-8.69673e-11
3.70517e-11
-8.64118e-11
4.02715e-11
-8.55966e-11
4.33081e-11
-8.45066e-11
4.60878e-11
-8.31153e-11
4.85562e-11
-8.14242e-11
5.06325e-11
-7.94234e-11
5.22667e-11
-7.71443e-11
5.3382e-11
-7.46043e-11
5.39436e-11
-7.18659e-11
5.38903e-11
-6.89667e-11
5.32152e-11
-6.59925e-11
5.18881e-11
-6.29983e-11
4.99406e-11
-6.00891e-11
4.73842e-11
-5.73327e-11
4.42948e-11
-5.4841e-11
4.07306e-11
-5.2681e-11
3.68033e-11
-5.0948e-11
3.2607e-11
-4.96866e-11
2.82698e-11
-4.89476e-11
2.38988e-11
-4.8716e-11
1.95985e-11
-4.89477e-11
1.54569e-11
-4.95752e-11
1.15432e-11
-5.06054e-11
7.98237e-12
-5.23199e-11
4.96208e-12
-5.53233e-11
2.77566e-12
-5.99787e-11
1.39437e-12
-6.41726e-11
-9.50383e-15
-5.98129e-11
-3.21889e-11
-1.12213e-12
-3.81286e-11
-3.24125e-12
-7.17124e-11
-4.28245e-12
-7.7985e-11
-5.72434e-12
-7.41212e-11
-7.80889e-12
-6.96904e-11
-1.03109e-11
-6.71188e-11
-1.30389e-11
-6.59338e-11
-1.59118e-11
-6.53526e-11
-1.88782e-11
-6.50121e-11
-2.18893e-11
-6.4873e-11
-2.48866e-11
-6.49944e-11
-2.77949e-11
-6.54407e-11
-3.055e-11
-6.62162e-11
-3.3075e-11
-6.73085e-11
-3.53265e-11
-6.8661e-11
-3.7245e-11
-7.02404e-11
-3.88142e-11
-7.19809e-11
-3.99997e-11
-7.38498e-11
-4.08105e-11
-7.57861e-11
-4.1234e-11
-7.77653e-11
-4.12958e-11
-7.97353e-11
-4.09991e-11
-8.16767e-11
-4.0379e-11
-8.3545e-11
-3.94486e-11
-8.53259e-11
-3.82454e-11
-8.69859e-11
-3.67871e-11
-8.85184e-11
-3.51093e-11
-8.99036e-11
-3.32309e-11
-9.11438e-11
-3.11831e-11
-9.22323e-11
-2.89834e-11
-9.31798e-11
-2.66566e-11
-9.39913e-11
-2.42168e-11
-9.46842e-11
-2.16817e-11
-9.52723e-11
-1.9061e-11
-9.57769e-11
-1.63654e-11
-9.62151e-11
-1.35994e-11
-9.66074e-11
-1.07671e-11
-9.69702e-11
-7.86779e-12
-9.73206e-11
-4.89936e-12
-9.76725e-11
-1.85755e-12
-9.80374e-11
1.26242e-12
-9.84221e-11
4.46425e-12
-9.88265e-11
7.75117e-12
-9.92443e-11
1.11221e-11
-9.96604e-11
1.45755e-11
-1.00055e-10
1.81025e-11
-1.00402e-10
2.16939e-11
-1.00673e-10
2.53289e-11
-1.0083e-10
2.89872e-11
-1.00837e-10
3.26319e-11
-1.00648e-10
3.62297e-11
-1.00224e-10
3.97269e-11
-9.952e-11
4.30793e-11
-9.85081e-11
4.62176e-11
-9.71517e-11
4.90896e-11
-9.54408e-11
5.16149e-11
-9.33531e-11
5.37417e-11
-9.09067e-11
5.53879e-11
-8.81078e-11
5.65124e-11
-8.50133e-11
5.70419e-11
-8.16583e-11
5.69568e-11
-7.81313e-11
5.62076e-11
-7.44903e-11
5.48092e-11
-7.085e-11
5.27491e-11
-6.72872e-11
5.00844e-11
-6.39325e-11
4.68488e-11
-6.08718e-11
4.31407e-11
-5.8231e-11
3.90368e-11
-5.60811e-11
3.46622e-11
-5.45146e-11
3.0124e-11
-5.35633e-11
2.5546e-11
-5.32345e-11
2.10317e-11
-5.34642e-11
1.66647e-11
-5.41771e-11
1.25383e-11
-5.53902e-11
8.75475e-12
-5.741e-11
5.5364e-12
-6.09493e-11
3.1352e-12
-6.63956e-11
1.58398e-12
-7.14082e-11
4.14004e-14
-6.67756e-11
-3.599e-11
-1.21036e-12
-4.20426e-11
-3.34176e-12
-7.90411e-11
-4.52583e-12
-8.57437e-11
-6.11333e-12
-8.12396e-11
-8.35597e-12
-7.61439e-11
-1.10057e-11
-7.31757e-11
-1.38925e-11
-7.17867e-11
-1.69179e-11
-7.1111e-11
-2.00302e-11
-7.0737e-11
-2.31772e-11
-7.06118e-11
-2.62914e-11
-7.08088e-11
-2.93097e-11
-7.13805e-11
-3.21512e-11
-7.23502e-11
-3.47637e-11
-7.36753e-11
-3.70763e-11
-7.53209e-11
-3.90622e-11
-7.72129e-11
-4.0674e-11
-7.93098e-11
-4.19118e-11
-8.15369e-11
-4.275e-11
-8.38607e-11
-4.32086e-11
-8.62158e-11
-4.32811e-11
-8.85762e-11
-4.3e-11
-9.08858e-11
-4.23714e-11
-9.31241e-11
-4.14328e-11
-9.52457e-11
-4.01975e-11
-9.72378e-11
-3.87027e-11
-9.90696e-11
-3.69652e-11
-1.00738e-10
-3.5019e-11
-1.02228e-10
-3.28813e-11
-1.03547e-10
-3.05812e-11
-1.04694e-10
-2.81342e-11
-1.05686e-10
-2.55629e-11
-1.06533e-10
-2.28796e-11
-1.07258e-10
-2.01002e-11
-1.0788e-10
-1.72331e-11
-1.08423e-10
-1.42873e-11
-1.08908e-10
-1.12663e-11
-1.09355e-10
-8.17271e-12
-1.09784e-10
-5.00578e-12
-1.10212e-10
-1.76406e-12
-1.10651e-10
1.55433e-12
-1.11107e-10
4.95121e-12
-1.11582e-10
8.42568e-12
-1.12066e-10
1.19767e-11
-1.12544e-10
1.55974e-11
-1.1299e-10
1.92816e-11
-1.13378e-10
2.30133e-11
-1.1367e-10
2.67774e-11
-1.13829e-10
3.05438e-11
-1.13805e-10
3.42856e-11
-1.13552e-10
3.79562e-11
-1.13015e-10
4.15173e-11
-1.12155e-10
4.49066e-11
-1.10924e-10
4.80768e-11
-1.09298e-10
5.0952e-11
-1.07243e-10
5.34822e-11
-1.04762e-10
5.55848e-11
-1.01846e-10
5.72162e-11
-9.85372e-11
5.82964e-11
-9.48624e-11
5.87969e-11
-9.09059e-11
5.86531e-11
-8.67238e-11
5.78653e-11
-8.2435e-11
5.63994e-11
-7.81208e-11
5.42939e-11
-7.39244e-11
5.15563e-11
-6.99437e-11
4.82667e-11
-6.63306e-11
4.44774e-11
-6.31804e-11
4.03026e-11
-6.06227e-11
3.58352e-11
-5.87269e-11
3.12038e-11
-5.75632e-11
2.65173e-11
-5.71192e-11
2.18834e-11
-5.73382e-11
1.73964e-11
-5.81317e-11
1.31377e-11
-5.9519e-11
9.23877e-12
-6.18548e-11
5.88179e-12
-6.59122e-11
3.37211e-12
-7.2174e-11
1.68412e-12
-7.79866e-11
9.50063e-14
-7.3181e-11
-3.94649e-11
-1.27255e-12
-4.55999e-11
-3.4119e-12
-8.57004e-11
-4.68591e-12
-9.27742e-11
-6.40896e-12
-8.76014e-11
-8.76249e-12
-8.1857e-11
-1.15339e-11
-7.84837e-11
-1.45284e-11
-7.68974e-11
-1.7663e-11
-7.6126e-11
-2.08717e-11
-7.57252e-11
-2.40996e-11
-7.56298e-11
-2.72865e-11
-7.59071e-11
-3.03542e-11
-7.6628e-11
-3.32453e-11
-7.77907e-11
-3.58836e-11
-7.9374e-11
-3.82324e-11
-8.1304e-11
-4.02324e-11
-8.35332e-11
-4.18748e-11
-8.59736e-11
-4.31227e-11
-8.85817e-11
-4.39892e-11
-9.12784e-11
-4.44566e-11
-9.403e-11
-4.45537e-11
-9.67673e-11
-4.42778e-11
-9.94636e-11
-4.36651e-11
-1.02061e-10
-4.27226e-11
-1.04541e-10
-4.14879e-11
-1.06859e-10
-3.99735e-11
-1.09007e-10
-3.82151e-11
-1.10958e-10
-3.62277e-11
-1.12714e-10
-3.40427e-11
-1.14267e-10
-3.16757e-11
-1.15629e-10
-2.91529e-11
-1.16807e-10
-2.64883e-11
-1.17822e-10
-2.37024e-11
-1.18692e-10
-2.08062e-11
-1.19444e-10
-1.78139e-11
-1.20099e-10
-1.47325e-11
-1.20684e-10
-1.157e-11
-1.21221e-10
-8.3295e-12
-1.21733e-10
-5.01399e-12
-1.22237e-10
-1.62451e-12
-1.22749e-10
1.83797e-12
-1.23274e-10
5.37133e-12
-1.23812e-10
8.97356e-12
-1.24355e-10
1.26387e-11
-1.24882e-10
1.63616e-11
-1.25369e-10
2.01297e-11
-1.25781e-10
2.39317e-11
-1.26083e-10
2.77441e-11
-1.26225e-10
3.15457e-11
-1.26158e-10
3.52977e-11
-1.25821e-10
3.89683e-11
-1.25164e-10
4.25036e-11
-1.24127e-10
4.5863e-11
-1.22675e-10
4.8978e-11
-1.2076e-10
5.18032e-11
-1.18369e-10
5.42601e-11
-1.15477e-10
5.63061e-11
-1.12108e-10
5.786e-11
-1.08274e-10
5.88892e-11
-1.04047e-10
5.93197e-11
-9.94735e-11
5.91409e-11
-9.46708e-11
5.83006e-11
-8.97192e-11
5.68214e-11
-8.47686e-11
5.46858e-11
-7.99228e-11
5.19553e-11
-7.53513e-11
4.86549e-11
-7.11678e-11
4.4882e-11
-6.75339e-11
4.07055e-11
-6.45493e-11
3.62491e-11
-6.23375e-11
3.16113e-11
-6.09429e-11
2.69119e-11
-6.03803e-11
2.22536e-11
-6.05753e-11
1.7725e-11
-6.14377e-11
1.3432e-11
-6.30028e-11
9.47317e-12
-6.56358e-11
6.07809e-12
-7.02278e-11
3.48555e-12
-7.72699e-11
1.74744e-12
-8.39114e-11
1.11769e-13
-7.89646e-11
-4.26102e-11
-1.33972e-12
-4.87539e-11
-3.43466e-12
-9.16541e-11
-4.80774e-12
-9.89918e-11
-6.6235e-12
-9.3162e-11
-9.08043e-12
-8.67583e-11
-1.19274e-11
-8.29985e-11
-1.5002e-11
-8.12106e-11
-1.81959e-11
-8.03558e-11
-2.14546e-11
-7.99364e-11
-2.47184e-11
-7.98785e-11
-2.79199e-11
-8.02572e-11
-3.0999e-11
-8.11276e-11
-3.38782e-11
-8.25073e-11
-3.65142e-11
-8.43388e-11
-3.88402e-11
-8.65753e-11
-4.08393e-11
-8.9122e-11
-4.24637e-11
-9.19251e-11
-4.37199e-11
-9.48911e-11
-4.45792e-11
-9.79776e-11
-4.50656e-11
-1.01102e-10
-4.51666e-11
-1.04231e-10
-4.49163e-11
-1.07293e-10
-4.43138e-11
-1.10263e-10
-4.33962e-11
-1.13085e-10
-4.21698e-11
-1.15742e-10
-4.06705e-11
-1.18197e-10
-3.89093e-11
-1.20443e-10
-3.69187e-11
-1.22463e-10
-3.47122e-11
-1.24264e-10
-3.23184e-11
-1.25844e-10
-2.97513e-11
-1.27221e-10
-2.70347e-11
-1.2841e-10
-2.41813e-11
-1.29436e-10
-2.12095e-11
-1.30323e-10
-1.81295e-11
-1.31099e-10
-1.4954e-11
-1.3179e-10
-1.16901e-11
-1.32422e-10
-8.34564e-12
-1.33019e-10
-4.92541e-12
-1.336e-10
-1.43428e-12
-1.34181e-10
2.12318e-12
-1.34768e-10
5.7426e-12
-1.35362e-10
9.41729e-12
-1.3595e-10
1.31416e-11
-1.36514e-10
1.69045e-11
-1.37024e-10
2.06969e-11
-1.37448e-10
2.44999e-11
-1.3774e-10
2.82971e-11
-1.37851e-10
3.2057e-11
-1.37719e-10
3.5754e-11
-1.37287e-10
3.93427e-11
-1.36488e-10
4.279e-11
-1.35271e-10
4.60367e-11
-1.3358e-10
4.90441e-11
-1.31384e-10
5.17409e-11
-1.28643e-10
5.40886e-11
-1.25361e-10
5.60096e-11
-1.21531e-10
5.74717e-11
-1.17206e-10
5.83978e-11
-1.1242e-10
5.8771e-11
-1.07276e-10
5.85276e-11
-1.0185e-10
5.76776e-11
-9.62894e-11
5.61827e-11
-9.06989e-11
5.40864e-11
-8.52571e-11
5.13875e-11
-8.00882e-11
4.81653e-11
-7.53795e-11
4.446e-11
-7.12517e-11
4.03809e-11
-6.78704e-11
3.60079e-11
-6.53288e-11
3.14591e-11
-6.3712e-11
2.68329e-11
-6.30152e-11
2.22302e-11
-6.31748e-11
1.77536e-11
-6.41018e-11
1.34783e-11
-6.5819e-11
9.55105e-12
-6.87598e-11
6.1405e-12
-7.38489e-11
3.54342e-12
-8.16785e-11
1.74785e-12
-8.91097e-11
1.43294e-13
-8.41258e-11
-4.53822e-11
-1.36999e-12
-5.14933e-11
-3.44028e-12
-9.68141e-11
-4.88139e-12
-1.04346e-10
-6.81064e-12
-9.78327e-11
-9.33199e-12
-9.08066e-11
-1.22455e-11
-8.66584e-11
-1.53549e-11
-8.46906e-11
-1.85745e-11
-8.37599e-11
-2.18357e-11
-8.33363e-11
-2.50835e-11
-8.33327e-11
-2.82583e-11
-8.38175e-11
-3.12877e-11
-8.48594e-11
-3.41241e-11
-8.64468e-11
-3.66968e-11
-8.85475e-11
-3.89825e-11
-9.10682e-11
-4.09262e-11
-9.39488e-11
-4.2528e-11
-9.70842e-11
-4.37492e-11
-1.00422e-10
-4.46087e-11
-1.03865e-10
-4.50844e-11
-1.07373e-10
-4.52072e-11
-1.10862e-10
-4.49675e-11
-1.14299e-10
-4.44011e-11
-1.17615e-10
-4.3507e-11
-1.20788e-10
-4.23204e-11
-1.23766e-10
-4.08461e-11
-1.26537e-10
-3.91168e-11
-1.29069e-10
-3.71416e-11
-1.31364e-10
-3.495e-11
-1.33409e-10
-3.25541e-11
-1.35219e-10
-2.99797e-11
-1.36798e-10
-2.72396e-11
-1.38172e-10
-2.43552e-11
-1.3936e-10
-2.13387e-11
-1.40392e-10
-1.82069e-11
-1.41295e-10
-1.49701e-11
-1.42098e-10
-1.1641e-11
-1.42828e-10
-8.22824e-12
-1.43511e-10
-4.74124e-12
-1.44167e-10
-1.18796e-12
-1.44812e-10
2.42359e-12
-1.45454e-10
6.08458e-12
-1.4609e-10
9.7872e-12
-1.46711e-10
1.35203e-11
-1.47295e-10
1.72747e-11
-1.47814e-10
2.10342e-11
-1.48227e-10
2.47851e-11
-1.48491e-10
2.85017e-11
-1.48547e-10
3.21635e-11
-1.48336e-10
3.57331e-11
-1.47786e-10
3.91841e-11
-1.46837e-10
4.24673e-11
-1.45421e-10
4.55515e-11
-1.43495e-10
4.83752e-11
-1.41004e-10
5.09058e-11
-1.37934e-10
5.30732e-11
-1.34256e-10
5.48491e-11
-1.30003e-10
5.61594e-11
-1.25188e-10
5.69861e-11
-1.19897e-10
5.72601e-11
-1.14189e-10
5.6984e-11
-1.08205e-10
5.6105e-11
-1.02044e-10
5.46527e-11
-9.58837e-11
5.26021e-11
-8.98514e-11
5.00152e-11
-8.41502e-11
4.69043e-11
-7.89171e-11
4.33617e-11
-7.43469e-11
3.94386e-11
-7.05635e-11
3.5244e-11
-6.77172e-11
3.08601e-11
-6.58666e-11
2.63891e-11
-6.50321e-11
2.19294e-11
-6.51457e-11
1.75612e-11
-6.61118e-11
1.3391e-11
-6.79775e-11
9.51385e-12
-7.11818e-11
6.15746e-12
-7.67688e-11
3.53707e-12
-8.53208e-11
1.74747e-12
-9.35675e-11
1.39618e-13
-8.8573e-11
-4.77834e-11
-1.39453e-12
-5.37877e-11
-3.39657e-12
-1.01161e-10
-4.95386e-12
-1.0874e-10
-6.98156e-12
-1.01568e-10
-9.59091e-12
-9.39299e-11
-1.2532e-11
-8.94434e-11
-1.56562e-11
-8.7308e-11
-1.88535e-11
-8.63279e-11
-2.20746e-11
-8.59151e-11
-2.52612e-11
-8.59785e-11
-2.83512e-11
-8.65906e-11
-3.12952e-11
-8.77996e-11
-3.40258e-11
-8.96139e-11
-3.65139e-11
-9.19612e-11
-3.87004e-11
-9.47807e-11
-4.05811e-11
-9.79604e-11
-4.21098e-11
-1.01439e-10
-4.33008e-11
-1.05107e-10
-4.41227e-11
-1.08914e-10
-4.46035e-11
-1.12764e-10
-4.47245e-11
-1.16618e-10
-4.45196e-11
-1.20393e-10
-4.39795e-11
-1.2406e-10
-4.31383e-11
-1.27556e-10
-4.19932e-11
-1.3086e-10
-4.05762e-11
-1.33928e-10
-3.889e-11
-1.36755e-10
-3.69639e-11
-1.39315e-10
-3.48053e-11
-1.41616e-10
-3.2441e-11
-1.43653e-10
-2.98815e-11
-1.45446e-10
-2.71502e-11
-1.47008e-10
-2.42592e-11
-1.48369e-10
-2.12287e-11
-1.49552e-10
-1.80707e-11
-1.5059e-10
-1.48024e-11
-1.5151e-10
-1.14354e-11
-1.52342e-10
-7.98417e-12
-1.5311e-10
-4.46027e-12
-1.53838e-10
-8.76218e-13
-1.54541e-10
2.75592e-12
-1.55227e-10
6.42474e-12
-1.55894e-10
1.01172e-11
-1.56532e-10
1.38221e-11
-1.57118e-10
1.75235e-11
-1.57623e-10
2.12085e-11
-1.58006e-10
2.48547e-11
-1.58217e-10
2.84448e-11
-1.58199e-10
3.19475e-11
-1.57881e-10
3.53421e-11
-1.57199e-10
3.85882e-11
-1.56078e-10
4.1662e-11
-1.54462e-10
4.45127e-11
-1.52285e-10
4.71148e-11
-1.49516e-10
4.94079e-11
-1.46108e-10
5.13702e-11
-1.4207e-10
5.29355e-11
-1.37396e-10
5.40895e-11
-1.32148e-10
5.47646e-11
-1.26364e-10
5.49608e-11
-1.20167e-10
5.46185e-11
-1.13643e-10
5.37581e-11
-1.06965e-10
5.23375e-11
-1.00253e-10
5.04043e-11
-9.37143e-11
4.79457e-11
-8.74943e-11
4.50362e-11
-8.18095e-11
4.16986e-11
-7.68028e-11
3.80279e-11
-7.26669e-11
3.40768e-11
-6.951e-11
2.99452e-11
-6.74402e-11
2.57106e-11
-6.64552e-11
2.14591e-11
-6.65039e-11
1.72814e-11
-6.74935e-11
1.32424e-11
-6.94596e-11
9.48452e-12
-7.29143e-11
6.15481e-12
-7.89184e-11
3.55566e-12
-8.8184e-11
1.71358e-12
-9.71877e-11
1.67905e-13
-9.23173e-11
-4.97761e-11
-1.35948e-12
-5.56596e-11
-3.34672e-12
-1.04621e-10
-5.02488e-12
-1.12134e-10
-7.2186e-12
-1.0428e-10
-9.9006e-12
-9.61158e-11
-1.28774e-11
-9.13311e-11
-1.59671e-11
-8.9089e-11
-1.91083e-11
-8.80794e-11
-2.2238e-11
-8.77027e-11
-2.53099e-11
-8.78528e-11
-2.82736e-11
-8.85961e-11
-3.10694e-11
-8.99914e-11
-3.36665e-11
-9.20141e-11
-3.60069e-11
-9.46208e-11
-3.80823e-11
-9.77022e-11
-3.98433e-11
-1.01189e-10
-4.13007e-11
-1.04964e-10
-4.24161e-11
-1.08966e-10
-4.32142e-11
-1.13088e-10
-4.36684e-11
-1.17281e-10
-4.38103e-11
-1.21453e-10
-4.36221e-11
-1.25566e-10
-4.31362e-11
-1.29545e-10
-4.23419e-11
-1.33365e-10
-4.12693e-11
-1.36967e-10
-3.99138e-11
-1.40339e-10
-3.83028e-11
-1.43441e-10
-3.64374e-11
-1.46275e-10
-3.43432e-11
-1.48824e-10
-3.20265e-11
-1.511e-10
-2.9511e-11
-1.53107e-10
-2.68068e-11
-1.5487e-10
-2.39355e-11
-1.56408e-10
-2.09098e-11
-1.57753e-10
-1.77496e-11
-1.58931e-10
-1.44691e-11
-1.59975e-10
-1.10867e-11
-1.60911e-10
-7.61762e-12
-1.61767e-10
-4.07902e-12
-1.62563e-10
-4.86875e-13
-1.63317e-10
3.14278e-12
-1.64036e-10
6.79353e-12
-1.6472e-10
1.04505e-11
-1.65357e-10
1.40961e-11
-1.65925e-10
1.77153e-11
-1.66393e-10
2.12868e-11
-1.66719e-10
2.47939e-11
-1.66853e-10
2.82094e-11
-1.6673e-10
3.15153e-11
-1.66286e-10
3.46786e-11
-1.65444e-10
3.76812e-11
-1.64142e-10
4.04824e-11
-1.62305e-10
4.3064e-11
-1.59885e-10
4.53764e-11
-1.56824e-10
4.74049e-11
-1.53108e-10
4.90945e-11
-1.48711e-10
5.04378e-11
-1.43671e-10
5.1375e-11
-1.38002e-10
5.19091e-11
-1.31804e-10
5.19811e-11
-1.25141e-10
5.16088e-11
-1.18172e-10
5.07406e-11
-1.11004e-10
4.9414e-11
-1.03841e-10
4.7597e-11
-9.68225e-11
4.53509e-11
-9.0179e-11
4.26702e-11
-8.40618e-11
3.96337e-11
-7.86922e-11
3.62668e-11
-7.42099e-11
3.26546e-11
-7.0782e-11
2.88483e-11
-6.84837e-11
2.49278e-11
-6.73457e-11
2.09673e-11
-6.73103e-11
1.70231e-11
-6.82774e-11
1.319e-11
-7.03177e-11
9.53633e-12
-7.3933e-11
6.27298e-12
-8.03129e-11
3.60664e-12
-9.01716e-11
1.72206e-12
-9.99521e-11
1.60755e-13
-9.52727e-11
-5.13969e-11
-1.30681e-12
-5.71132e-11
-3.27317e-12
-1.07212e-10
-5.19421e-12
-1.14435e-10
-7.57894e-12
-1.05961e-10
-1.03822e-11
-9.73463e-11
-1.33498e-11
-9.2389e-11
-1.63846e-11
-9.00896e-11
-1.94093e-11
-8.91032e-11
-2.23978e-11
-8.87839e-11
-2.53031e-11
-8.90366e-11
-2.80786e-11
-8.99287e-11
-3.06909e-11
-9.14994e-11
-3.30887e-11
-9.37435e-11
-3.52627e-11
-9.65747e-11
-3.71646e-11
-9.99242e-11
-3.88035e-11
-1.03668e-10
-4.01371e-11
-1.0774e-10
-4.11882e-11
-1.1202e-10
-4.19231e-11
-1.16453e-10
-4.23718e-11
-1.20933e-10
-4.25084e-11
-1.25418e-10
-4.2364e-11
-1.29821e-10
-4.1919e-11
-1.34111e-10
-4.12019e-11
-1.38216e-10
-4.01995e-11
-1.42118e-10
-3.89368e-11
-1.45765e-10
-3.74068e-11
-1.49151e-10
-3.56323e-11
-1.52245e-10
-3.3613e-11
-1.55052e-10
-3.13711e-11
-1.57563e-10
-2.89124e-11
-1.59797e-10
-2.62584e-11
-1.61764e-10
-2.342e-11
-1.63493e-10
-2.04184e-11
-1.65006e-10
-1.72686e-11
-1.66336e-10
-1.39919e-11
-1.67509e-10