/*--------------------------------*- C++ -*----------------------------------*\
| =========                 |                                                 |
| \\      /  F ield         | OpenFOAM: The Open Source CFD Toolbox           |
|  \\    /   O peration     | Version:  2412                                  |
|   \\  /    A nd           | Website:  www.openfoam.com                      |
|    \\/     M anipulation  |                                                 |
\*---------------------------------------------------------------------------*/
FoamFile
{
    version     2.0;
    format      ascii;
    arch        "LSB;label=32;scalar=64";
    class       volVectorField;
    location    "3.2";
    object      U;
}
// * * * * * * * * * * * * * * * * * * * * * * * * * * * * * * * * * * * * * //

dimensions      [0 1 -1 0 0 0 0];

internalField   nonuniform List<vector> 
6400
(
(1.84345e-05 -1.84267e-05 0)
(6.48301e-05 -2.06942e-05 0)
(8.93028e-05 -1.33878e-05 0)
(7.65778e-05 -4.46688e-06 0)
(2.53034e-05 2.85285e-06 0)
(-5.55541e-05 7.92649e-06 0)
(-0.000154441 1.07362e-05 0)
(-0.000260669 1.16424e-05 0)
(-0.000365432 1.11517e-05 0)
(-0.000462123 9.74285e-06 0)
(-0.000546373 7.81477e-06 0)
(-0.000615693 5.65603e-06 0)
(-0.000668995 3.50461e-06 0)
(-0.000706215 1.52269e-06 0)
(-0.000728038 -2.32177e-07 0)
(-0.000735653 -1.75112e-06 0)
(-0.000730533 -3.01123e-06 0)
(-0.000714282 -3.98688e-06 0)
(-0.000688542 -4.6687e-06 0)
(-0.000654944 -5.07579e-06 0)
(-0.000615086 -5.23692e-06 0)
(-0.000570524 -5.17866e-06 0)
(-0.000522767 -4.92719e-06 0)
(-0.000473245 -4.51123e-06 0)
(-0.000423274 -3.96186e-06 0)
(-0.000374006 -3.31062e-06 0)
(-0.000326397 -2.58951e-06 0)
(-0.000281187 -1.83051e-06 0)
(-0.000238898 -1.06549e-06 0)
(-0.000199847 -3.24098e-07 0)
(-0.000164162 3.67945e-07 0)
(-0.000131804 9.89425e-07 0)
(-0.000102592 1.52591e-06 0)
(-7.62368e-05 1.97256e-06 0)
(-5.23796e-05 2.32916e-06 0)
(-3.06345e-05 2.60641e-06 0)
(-1.0617e-05 2.81537e-06 0)
(8.04115e-06 2.96727e-06 0)
(2.5677e-05 3.0768e-06 0)
(4.25823e-05 3.16037e-06 0)
(5.90126e-05 3.21996e-06 0)
(7.52113e-05 3.25345e-06 0)
(9.14206e-05 3.2663e-06 0)
(0.000107904 3.2396e-06 0)
(0.00012496 3.16571e-06 0)
(0.000142907 3.04408e-06 0)
(0.000162089 2.85293e-06 0)
(0.000182878 2.58037e-06 0)
(0.000205643 2.21563e-06 0)
(0.000230719 1.75444e-06 0)
(0.000258358 1.21445e-06 0)
(0.00028869 6.06712e-07 0)
(0.000321707 -5.48082e-08 0)
(0.000357232 -7.37504e-07 0)
(0.000394897 -1.41234e-06 0)
(0.000434144 -2.05204e-06 0)
(0.000474226 -2.61967e-06 0)
(0.000514217 -3.08546e-06 0)
(0.000553027 -3.41858e-06 0)
(0.000589426 -3.59322e-06 0)
(0.000622067 -3.58351e-06 0)
(0.000649496 -3.36199e-06 0)
(0.000670166 -2.90235e-06 0)
(0.00068247 -2.18327e-06 0)
(0.000684774 -1.18995e-06 0)
(0.000675472 8.79909e-08 0)
(0.00065308 1.64223e-06 0)
(0.000616373 3.4281e-06 0)
(0.000564597 5.36374e-06 0)
(0.000497728 7.309e-06 0)
(0.000416803 9.04773e-06 0)
(0.000324311 1.02771e-05 0)
(0.000224576 1.05996e-05 0)
(0.000124067 9.54449e-06 0)
(3.14511e-05 6.63368e-06 0)
(-4.28035e-05 1.53517e-06 0)
(-8.76711e-05 -5.72431e-06 0)
(-9.48841e-05 -1.43681e-05 0)
(-6.65754e-05 -2.11244e-05 0)
(-1.84621e-05 -1.85188e-05 0)
(2.14172e-05 -6.50656e-05 0)
(6.53802e-05 -6.2904e-05 0)
(4.48458e-05 -1.3711e-07 0)
(-6.27481e-05 7.55424e-05 0)
(-0.000255148 0.000140734 0)
(-0.000512744 0.000186284 0)
(-0.000810157 0.00021053 0)
(-0.0011227 0.000215772 0)
(-0.00142936 0.000205938 0)
(-0.00171387 0.000185295 0)
(-0.00196486 0.000157759 0)
(-0.00217529 0.000126493 0)
(-0.00234165 9.40046e-05 0)
(-0.00246314 6.21343e-05 0)
(-0.00254094 3.20455e-05 0)
(-0.00257756 4.42838e-06 0)
(-0.00257637 -2.02519e-05 0)
(-0.00254131 -4.16813e-05 0)
(-0.00247657 -5.9716e-05 0)
(-0.0023865 -7.43805e-05 0)
(-0.00227543 -8.57971e-05 0)
(-0.00214762 -9.41281e-05 0)
(-0.00200722 -9.95625e-05 0)
(-0.00185817 -0.00010232 0)
(-0.00170415 -0.000102662 0)
(-0.00154844 -0.000100896 0)
(-0.00139391 -9.73799e-05 0)
(-0.00124289 -9.25111e-05 0)
(-0.00109721 -8.67047e-05 0)
(-0.000958121 -8.03644e-05 0)
(-0.000826365 -7.38621e-05 0)
(-0.000702208 -6.75223e-05 0)
(-0.000585506 -6.16042e-05 0)
(-0.000475792 -5.62912e-05 0)
(-0.00037237 -5.16962e-05 0)
(-0.000274402 -4.78543e-05 0)
(-0.00018099 -4.47553e-05 0)
(-9.12345e-05 -4.23575e-05 0)
(-4.27337e-06 -4.05915e-05 0)
(8.06942e-05 -3.93776e-05 0)
(0.000164407 -3.86803e-05 0)
(0.00024757 -3.84972e-05 0)
(0.000330889 -3.88245e-05 0)
(0.000415101 -3.97277e-05 0)
(0.000500988 -4.12457e-05 0)
(0.000589354 -4.3393e-05 0)
(0.000681017 -4.62219e-05 0)
(0.000776777 -4.97431e-05 0)
(0.000877368 -5.39243e-05 0)
(0.000983378 -5.86596e-05 0)
(0.00109515 -6.37271e-05 0)
(0.00121269 -6.88636e-05 0)
(0.00133556 -7.3763e-05 0)
(0.0014629 -7.80496e-05 0)
(0.00159332 -8.13382e-05 0)
(0.00172491 -8.32544e-05 0)
(0.00185532 -8.34262e-05 0)
(0.00198171 -8.15216e-05 0)
(0.00210087 -7.7243e-05 0)
(0.00220928 -7.03446e-05 0)
(0.00230314 -6.06121e-05 0)
(0.00237844 -4.78645e-05 0)
(0.00243102 -3.19632e-05 0)
(0.00245667 -1.28404e-05 0)
(0.00245122 9.4766e-06 0)
(0.00241073 3.48189e-05 0)
(0.00233171 6.27941e-05 0)
(0.00221149 9.26491e-05 0)
(0.00204876 0.00012318 0)
(0.00184416 0.000152597 0)
(0.00160109 0.000178411 0)
(0.00132647 0.000197395 0)
(0.00103156 0.000205663 0)
(0.000732429 0.000199014 0)
(0.000449819 0.000173665 0)
(0.000207856 0.000127618 0)
(3.09514e-05 6.29024e-05 0)
(-6.25166e-05 -1.07922e-05 0)
(-7.22791e-05 -6.99356e-05 0)
(-2.20878e-05 -6.79724e-05 0)
(1.51912e-05 -9.19386e-05 0)
(5.9846e-06 -4.37887e-05 0)
(-0.000109012 0.000114235 0)
(-0.000347342 0.000293465 0)
(-0.000698746 0.000446759 0)
(-0.0011355 0.000553618 0)
(-0.0016233 0.000609526 0)
(-0.0021284 0.000618989 0)
(-0.00262155 0.000590675 0)
(-0.00307963 0.000534518 0)
(-0.00348602 0.000459939 0)
(-0.00383006 0.000374824 0)
(-0.00410609 0.000285518 0)
(-0.00431233 0.000196816 0)
(-0.00444993 0.00011199 0)
(-0.00452211 3.31339e-05 0)
(-0.0045335 -3.83819e-05 0)
(-0.00448966 -0.000101657 0)
(-0.00439674 -0.000156214 0)
(-0.00426118 -0.000201941 0)
(-0.00408951 -0.000238975 0)
(-0.00388821 -0.000267596 0)
(-0.00366363 -0.000288191 0)
(-0.00342188 -0.000301264 0)
(-0.00316869 -0.000307445 0)
(-0.00290931 -0.000307513 0)
(-0.00264837 -0.000302392 0)
(-0.00238978 -0.000293119 0)
(-0.00213665 -0.000280787 0)
(-0.00189128 -0.000266478 0)
(-0.00165514 -0.000251206 0)
(-0.001429 -0.000235867 0)
(-0.00121296 -0.000221197 0)
(-0.00100661 -0.000207751 0)
(-0.000809142 -0.000195899 0)
(-0.000619483 -0.000185828 0)
(-0.000436428 -0.00017759 0)
(-0.000258726 -0.000171135 0)
(-8.51479e-05 -0.000166348 0)
(8.54854e-05 -0.000163086 0)
(0.00025429 -0.000161264 0)
(0.000422338 -0.000160862 0)
(0.000590692 -0.000161889 0)
(0.000760442 -0.000164449 0)
(0.000932709 -0.000168605 0)
(0.00110862 -0.000174377 0)
(0.0012893 -0.000181784 0)
(0.00147576 -0.000190759 0)
(0.00166887 -0.000201116 0)
(0.00186922 -0.000212488 0)
(0.00207702 -0.000224269 0)
(0.0022919 -0.0002357 0)
(0.00251284 -0.000245905 0)
(0.00273813 -0.000253899 0)
(0.00296525 -0.000258661 0)
(0.00319098 -0.000259193 0)
(0.00341134 -0.000254551 0)
(0.00362175 -0.000243897 0)
(0.00381707 -0.000226503 0)
(0.00399174 -0.000201775 0)
(0.00413984 -0.000169229 0)
(0.00425525 -0.000128498 0)
(0.00433168 -7.9348e-05 0)
(0.00436288 -2.17484e-05 0)
(0.00434278 4.40601e-05 0)
(0.00426575 0.000117426 0)
(0.00412698 0.000197097 0)
(0.00392299 0.00028092 0)
(0.0036524 0.000365589 0)
(0.00331674 0.000446373 0)
(0.00292149 0.000516914 0)
(0.00247715 0.000569199 0)
(0.00200015 0.000593876 0)
(0.00151338 0.000581187 0)
(0.00104574 0.000522778 0)
(0.000630337 0.000414791 0)
(0.000300378 0.000262599 0)
(8.20462e-05 8.77377e-05 0)
(-1.68386e-05 -6.2199e-05 0)
(-1.6166e-05 -9.95037e-05 0)
(7.29634e-06 -8.35755e-05 0)
(-6.98329e-05 6.20438e-05 0)
(-0.000295219 0.000353117 0)
(-0.000675503 0.000664669 0)
(-0.00118883 0.000926709 0)
(-0.0017993 0.0011073 0)
(-0.00246548 0.00119909 0)
(-0.00314705 0.00120934 0)
(-0.00380897 0.00115251 0)
(-0.00442337 0.0010455 0)
(-0.00496992 0.00090458 0)
(-0.00543531 0.000743657 0)
(-0.00581218 0.000574093 0)
(-0.00609797 0.000404633 0)
(-0.00629367 0.000241427 0)
(-0.00640289 8.85344e-05 0)
(-0.0064311 -5.13647e-05 0)
(-0.00638503 -0.000176506 0)
(-0.00627226 -0.000285867 0)
(-0.0061008 -0.000379027 0)
(-0.00587889 -0.000456011 0)
(-0.0056148 -0.000517143 0)
(-0.00531668 -0.000563003 0)
(-0.00499244 -0.00059443 0)
(-0.00464962 -0.000612531 0)
(-0.00429517 -0.000618706 0)
(-0.00393532 -0.000614627 0)
(-0.00357538 -0.000602183 0)
(-0.0032197 -0.000583389 0)
(-0.00287155 -0.000560263 0)
(-0.00253319 -0.000534717 0)
(-0.00220591 -0.000508456 0)
(-0.00189012 -0.000482906 0)
(-0.00158558 -0.000459168 0)
(-0.00129147 -0.000438006 0)
(-0.00100661 -0.000419861 0)
(-0.000729647 -0.000404902 0)
(-0.000459116 -0.000393105 0)
(-0.000193563 -0.000384323 0)
(6.84292e-05 -0.000378356 0)
(0.000328228 -0.000375068 0)
(0.000587148 -0.000374408 0)
(0.000846476 -0.000376393 0)
(0.00110751 -0.000381162 0)
(0.00137158 -0.000388788 0)
(0.00164 -0.000399281 0)
(0.00191405 -0.00041257 0)
(0.00219485 -0.000428415 0)
(0.00248328 -0.000446362 0)
(0.00277982 -0.000465633 0)
(0.00308439 -0.000485069 0)
(0.00339619 -0.000503214 0)
(0.00371359 -0.000518383 0)
(0.00403398 -0.000528735 0)
(0.0043538 -0.000532383 0)
(0.00466852 -0.000527486 0)
(0.00497273 -0.000512338 0)
(0.00526025 -0.000485442 0)
(0.00552426 -0.000445529 0)
(0.00575743 -0.000391595 0)
(0.00595209 -0.000322857 0)
(0.00610039 -0.00023878 0)
(0.00619438 -0.000139108 0)
(0.00622624 -2.39542e-05 0)
(0.00618849 0.000106036 0)
(0.00607429 0.000249444 0)
(0.00587791 0.000403736 0)
(0.00559541 0.000564778 0)
(0.00522545 0.000726393 0)
(0.00477029 0.000879938 0)
(0.00423704 0.00101402 0)
(0.00363879 0.00111451 0)
(0.00299565 0.00116523 0)
(0.00233528 0.00114957 0)
(0.00169239 0.00105362 0)
(0.00110667 0.000871123 0)
(0.000618489 0.000610801 0)
(0.000262049 0.000306258 0)
(5.6379e-05 2.86782e-05 0)
(-8.43676e-06 -9.73787e-05 0)
(4.43757e-07 -3.59701e-05 0)
(-0.000143042 0.000260763 0)
(-0.000477566 0.00072027 0)
(-0.000997097 0.00118697 0)
(-0.00166643 0.00157114 0)
(-0.00244083 0.00183128 0)
(-0.00327208 0.00195842 0)
(-0.00411435 0.0019636 0)
(-0.0049282 0.00186795 0)
(-0.0056823 0.00169628 0)
(-0.00635376 0.0014726 0)
(-0.00692739 0.00121766 0)
(-0.00739468 0.000948511 0)
(-0.00775251 0.000678486 0)
(-0.00800181 0.000417175 0)
(-0.00814649 0.000171067 0)
(-0.0081926 -5.55172e-05 0)
(-0.00814771 -0.000259725 0)
(-0.00802043 -0.000439815 0)
(-0.00781998 -0.000594918 0)
(-0.00755594 -0.000724824 0)
(-0.00723802 -0.000829819 0)
(-0.00687587 -0.000910632 0)
(-0.00647897 -0.000968436 0)
(-0.00605639 -0.00100486 0)
(-0.0056166 -0.001022 0)
(-0.00516723 -0.00102242 0)
(-0.00471489 -0.00100902 0)
(-0.00426504 -0.000984918 0)
(-0.00382189 -0.000953282 0)
(-0.00338841 -0.000917141 0)
(-0.00296637 -0.000879211 0)
(-0.00255652 -0.000841785 0)
(-0.00215877 -0.000806654 0)
(-0.00177232 -0.000775096 0)
(-0.00139597 -0.000747876 0)
(-0.00102825 -0.000725321 0)
(-0.000667589 -0.000707464 0)
(-0.000312396 -0.000694147 0)
(3.88868e-05 -0.000685119 0)
(0.000387772 -0.00068019 0)
(0.000735715 -0.000679267 0)
(0.00108413 -0.000682355 0)
(0.00143444 -0.000689614 0)
(0.00178807 -0.000701132 0)
(0.00214643 -0.000716893 0)
(0.0025109 -0.000736697 0)
(0.00288263 -0.000760054 0)
(0.00326245 -0.000786138 0)
(0.0036507 -0.000813634 0)
(0.00404704 -0.00084068 0)
(0.00445023 -0.000864949 0)
(0.00485801 -0.000883761 0)
(0.00526698 -0.00089421 0)
(0.00567256 -0.000893349 0)
(0.00606905 -0.000878326 0)
(0.0064497 -0.000846531 0)
(0.00680687 -0.000795708 0)
(0.00713223 -0.000724001 0)
(0.00741696 -0.000629981 0)
(0.00765192 -0.000512606 0)
(0.00782783 -0.000371241 0)
(0.00793545 -0.000205693 0)
(0.00796576 -1.63522e-05 0)
(0.00791021 0.000195561 0)
(0.00776106 0.000427635 0)
(0.00751192 0.000675741 0)
(0.00715847 0.00093336 0)
(0.00669934 0.00119093 0)
(0.00613732 0.00143526 0)
(0.00548058 0.00164916 0)
(0.00474401 0.00181156 0)
(0.0039503 0.00189851 0)
(0.00313061 0.00188564 0)
(0.00232417 0.00175251 0)
(0.00157626 0.00148951 0)
(0.000934088 0.00110752 0)
(0.000440605 0.000650471 0)
(0.000127905 0.000210195 0)
(-1.80531e-06 -5.69673e-05 0)
(-4.96973e-06 4.67824e-05 0)
(-0.000207774 0.000546147 0)
(-0.000643974 0.00120905 0)
(-0.0012951 0.00185258 0)
(-0.00211214 0.00237021 0)
(-0.0030408 0.00271329 0)
(-0.00402585 0.00287315 0)
(-0.00501619 0.00286607 0)
(-0.00596854 0.00272096 0)
(-0.00684888 0.00247143 0)
(-0.00763248 0.00215001 0)
(-0.00830289 0.00178488 0)
(-0.00885085 0.00139928 0)
(-0.00927292 0.00101151 0)
(-0.00957013 0.000634964 0)
(-0.0097467 0.000278927 0)
(-0.00980918 -5.03561e-05 0)
(-0.00976581 -0.000348747 0)
(-0.009626 -0.000613655 0)
(-0.00939994 -0.000843662 0)
(-0.00909831 -0.00103823 0)
(-0.00873203 -0.00119751 0)
(-0.00831208 -0.00132231 0)
(-0.00784931 -0.00141408 0)
(-0.00735423 -0.00147498 0)
(-0.00683669 -0.00150788 0)
(-0.00630567 -0.00151629 0)
(-0.00576897 -0.00150429 0)
(-0.00523311 -0.00147628 0)
(-0.00470314 -0.00143675 0)
(-0.0041827 -0.00139006 0)
(-0.003674 -0.00134013 0)
(-0.00317807 -0.00129028 0)
(-0.00269488 -0.00124312 0)
(-0.00222369 -0.00120053 0)
(-0.00176322 -0.00116365 0)
(-0.00131188 -0.00113301 0)
(-0.000868013 -0.0011087 0)
(-0.000429914 -0.00109057 0)
(4.06901e-06 -0.00107831 0)
(0.000435544 -0.00107168 0)
(0.000866063 -0.00107052 0)
(0.00129714 -0.00107482 0)
(0.00173026 -0.00108474 0)
(0.00216695 -0.00110039 0)
(0.00260868 -0.0011217 0)
(0.00305687 -0.00114835 0)
(0.00351273 -0.00117955 0)
(0.00397707 -0.00121401 0)
(0.00445013 -0.00124978 0)
(0.00493134 -0.00128414 0)
(0.0054191 -0.00131373 0)
(0.00591058 -0.00133469 0)
(0.00640163 -0.00134287 0)
(0.0068867 -0.00133407 0)
(0.00735895 -0.00130428 0)
(0.00781035 -0.00124986 0)
(0.00823189 -0.00116773 0)
(0.00861383 -0.00105544 0)
(0.00894597 -0.00091116 0)
(0.00921787 -0.00073367 0)
(0.00941907 -0.000522335 0)
(0.00953926 -0.000277137 0)
(0.00956846 1.13868e-06 0)
(0.00949726 0.00031056 0)
(0.0093172 0.000647558 0)
(0.0090213 0.00100621 0)
(0.00860483 0.00137733 0)
(0.0080663 0.00174764 0)
(0.0074087 0.00209894 0)
(0.00664082 0.00240773 0)
(0.00577874 0.00264533 0)
(0.00484705 0.00277926 0)
(0.0038797 0.00277639 0)
(0.00291986 0.00260864 0)
(0.0020182 0.00226157 0)
(0.00122905 0.00174637 0)
(0.000604869 0.00111495 0)
(0.000191431 0.000476998 0)
(3.26142e-06 1.78269e-05 0)
(-9.17376e-06 0.000159538 0)
(-0.000264897 0.000909921 0)
(-0.000796258 0.00181122 0)
(-0.00157308 0.00265369 0)
(-0.00253242 0.00331602 0)
(-0.00360971 0.00374475 0)
(-0.00474209 0.00393375 0)
(-0.005873 0.00390633 0)
(-0.0069554 0.00370064 0)
(-0.00795295 0.00336011 0)
(-0.00883956 0.00292653 0)
(-0.00959795 0.00243606 0)
(-0.0102184 0.00191851 0)
(-0.0106975 0.00139739 0)
(-0.0110364 0.00089017 0)
(-0.0112397 0.000409128 0)
(-0.0113146 -3.73517e-05 0)
(-0.01127 -0.00044368 0)
(-0.011116 -0.000806292 0)
(-0.0108636 -0.00112312 0)
(-0.0105245 -0.00139319 0)
(-0.0101108 -0.00161642 0)
(-0.00963467 -0.00179357 0)
(-0.00910833 -0.00192633 0)
(-0.00854368 -0.00201734 0)
(-0.00795202 -0.00207028 0)
(-0.00734365 -0.00208976 0)
(-0.00672759 -0.00208112 0)
(-0.00611139 -0.00205022 0)
(-0.00550093 -0.00200311 0)
(-0.00490045 -0.00194567 0)
(-0.00431255 -0.00188321 0)
(-0.00373842 -0.00182026 0)
(-0.00317808 -0.00176037 0)
(-0.00263068 -0.00170611 0)
(-0.00209479 -0.00165904 0)
(-0.00156867 -0.00161988 0)
(-0.00105047 -0.00158882 0)
(-0.000538365 -0.00156567 0)
(-3.05798e-05 -0.00155007 0)
(0.000474606 -0.00154171 0)
(0.000978865 -0.00154039 0)
(0.00148383 -0.00154607 0)
(0.00199113 -0.00155888 0)
(0.00250238 -0.00157894 0)
(0.00301917 -0.00160615 0)
(0.003543 -0.00164005 0)
(0.00407517 -0.00167954 0)
(0.0046166 -0.00172281 0)
(0.00516751 -0.00176716 0)
(0.00572721 -0.00180888 0)
(0.00629381 -0.0018434 0)
(0.00686398 -0.00186548 0)
(0.00743283 -0.00186952 0)
(0.00799387 -0.00184988 0)
(0.0085391 -0.00180121 0)
(0.00905917 -0.00171874 0)
(0.00954366 -0.0015985 0)
(0.0099814 -0.00143745 0)
(0.0103608 -0.00123346 0)
(0.0106702 -0.000985219 0)
(0.010898 -0.000692231 0)
(0.011033 -0.000354781 0)
(0.0110644 2.58486e-05 0)
(0.0109818 0.000446918 0)
(0.0107764 0.000903596 0)
(0.0104403 0.00138803 0)
(0.00996838 0.00188823 0)
(0.00935884 0.00238692 0)
(0.00861454 0.00286061 0)
(0.00774455 0.00327904 0)
(0.00676571 0.00360532 0)
(0.00570404 0.00379763 0)
(0.00459595 0.00381304 0)
(0.00348843 0.00361431 0)
(0.00243778 0.00318036 0)
(0.00150608 0.00252053 0)
(0.000756163 0.00169236 0)
(0.000247723 0.000821635 0)
(7.14131e-06 0.000122225 0)
(-1.26911e-05 0.000298991 0)
(-0.000318744 0.0013472 0)
(-0.000944068 0.0025227 0)
(-0.0018469 0.00358729 0)
(-0.00294976 0.00440597 0)
(-0.00417669 0.00492272 0)
(-0.00545639 0.00513634 0)
(-0.00672635 0.00507943 0)
(-0.00793568 0.00480102 0)
(-0.00904592 0.00435562 0)
(-0.0100299 0.00379506 0)
(-0.01087 0.00316406 0)
(-0.0115563 0.00249935 0)
(-0.0120854 0.00182986 0)
(-0.0124591 0.00117722 0)
(-0.0126824 0.000556869 0)
(-0.0127633 -2.05463e-05 0)
(-0.0127114 -0.000547857 0)
(-0.0125376 -0.00102042 0)
(-0.0122539 -0.00143539 0)
(-0.0118728 -0.00179126 0)
(-0.0114076 -0.00208756 0)
(-0.0108718 -0.00232487 0)
(-0.010279 -0.00250499 0)
(-0.00964282 -0.00263105 0)
(-0.00897597 -0.00270754 0)
(-0.00829025 -0.00274027 0)
(-0.00759598 -0.00273607 0)
(-0.00690177 -0.00270243 0)
(-0.00621434 -0.00264717 0)
(-0.0055385 -0.00257793 0)
(-0.00487716 -0.00250165 0)
(-0.00423159 -0.00242426 0)
(-0.00360168 -0.00235041 0)
(-0.00298632 -0.00228342 0)
(-0.0023838 -0.00222529 0)
(-0.00179208 -0.00217697 0)
(-0.00120907 -0.00213867 0)
(-0.000632688 -0.00211018 0)
(-6.09699e-05 -0.00209106 0)
(0.000508008 -0.00208095 0)
(0.00107613 -0.00207961 0)
(0.00164524 -0.00208696 0)
(0.0022172 -0.00210311 0)
(0.00279382 -0.00212816 0)
(0.00337689 -0.00216198 0)
(0.00396812 -0.00220396 0)
(0.00456901 -0.0022527 0)
(0.0051807 -0.00230587 0)
(0.00580357 -0.00235987 0)
(0.00643695 -0.00240989 0)
(0.00707876 -0.00244992 0)
(0.00772522 -0.00247311 0)
(0.00837075 -0.00247214 0)
(0.00900786 -0.00243973 0)
(0.00962733 -0.00236899 0)
(0.0102184 -0.00225386 0)
(0.0107689 -0.00208944 0)
(0.0112663 -0.00187211 0)
(0.0116974 -0.00159954 0)
(0.0120492 -0.00127052 0)
(0.0123091 -0.000884832 0)
(0.0124647 -0.000443207 0)
(0.0125044 5.24732e-05 0)
(0.0124173 0.000598606 0)
(0.0121936 0.00118905 0)
(0.0118247 0.00181397 0)
(0.0113048 0.00245844 0)
(0.0106314 0.00310106 0)
(0.00980709 0.00371277 0)
(0.0088408 0.00425614 0)
(0.00774977 0.00468552 0)
(0.00656114 0.00494885 0)
(0.00531357 0.00499208 0)
(0.00405795 0.0047671 0)
(0.00285668 0.00424393 0)
(0.00178053 0.00342762 0)
(0.000903943 0.00237927 0)
(0.000301276 0.00123993 0)
(1.05908e-05 0.000253292 0)
(-1.61951e-05 0.000464698 0)
(-0.000375412 0.00185916 0)
(-0.00110136 0.00334688 0)
(-0.00213947 0.00465826 0)
(-0.00339578 0.0056452 0)
(-0.00478128 0.00625139 0)
(-0.00621507 0.00648344 0)
(-0.0076282 0.00638583 0)
(-0.00896585 0.00602054 0)
(-0.0101876 0.0054546 0)
(-0.0112658 0.00475076 0)
(-0.0121825 0.00396284 0)
(-0.0129282 0.00313485 0)
(-0.0135 0.00230135 0)
(-0.0139002 0.00148825 0)
(-0.0141347 0.000714215 0)
(-0.0142123 -7.76824e-06 0)
(-0.0141436 -0.000668896 0)
(-0.0139406 -0.00126338 0)
(-0.0136161 -0.00178754 0)
(-0.0131838 -0.00223915 0)
(-0.0126582 -0.00261719 0)
(-0.0120543 -0.00292189 0)
(-0.0113875 -0.00315499 0)
(-0.0106731 -0.00332002 0)
(-0.00992561 -0.00342241 0)
(-0.00915858 -0.00346929 0)
(-0.00838372 -0.00346918 0)
(-0.00761077 -0.00343151 0)
(-0.00684731 -0.00336611 0)
(-0.00609867 -0.00328265 0)
(-0.00536798 -0.00318999 0)
(-0.00465643 -0.0030957 0)
(-0.00396357 -0.00300569 0)
(-0.00328786 -0.00292414 0)
(-0.00262709 -0.0028535 0)
(-0.00197878 -0.00279489 0)
(-0.00134044 -0.00274851 0)
(-0.000709639 -0.00271408 0)
(-8.40809e-05 -0.00269111 0)
(0.00053849 -0.00267918 0)
(0.00116029 -0.00267803 0)
(0.00178355 -0.00268755 0)
(0.00241045 -0.00270785 0)
(0.00304319 -0.00273894 0)
(0.00368387 -0.00278067 0)
(0.00433453 -0.00283228 0)
(0.00499706 -0.00289213 0)
(0.00567298 -0.00295731 0)
(0.00636308 -0.00302329 0)
(0.00706688 -0.00308389 0)
(0.00778224 -0.00313145 0)
(0.00850505 -0.00315723 0)
(0.00922904 -0.0031519 0)
(0.0099457 -0.00310619 0)
(0.0106444 -0.00301145 0)
(0.0113128 -0.00286014 0)
(0.011937 -0.00264631 0)
(0.0125023 -0.00236583 0)
(0.012994 -0.0020163 0)
(0.0133974 -0.00159681 0)
(0.0136986 -0.00110766 0)
(0.0138844 -0.000550173 0)
(0.0139422 7.30717e-05 0)
(0.0138602 0.000757602 0)
(0.0136275 0.00149599 0)
(0.0132348 0.00227641 0)
(0.012675 0.00308094 0)
(0.0119449 0.0038839 0)
(0.0110462 0.00465045 0)
(0.00998744 0.00533562 0)
(0.00878575 0.00588438 0)
(0.00746902 0.00623347 0)
(0.00607788 0.00631623 0)
(0.00466717 0.0060715 0)
(0.00330596 0.00545772 0)
(0.00207497 0.00447284 0)
(0.00106207 0.0031794 0)
(0.000358248 0.00173319 0)
(1.42979e-05 0.000410581 0)
(-2.04338e-05 0.000659625 0)
(-0.00044201 0.00245451 0)
(-0.00128465 0.00429657 0)
(-0.00247765 0.00588105 0)
(-0.00390688 0.00704753 0)
(-0.00546764 0.00774229 0)
(-0.00706806 0.00798332 0)
(-0.00863238 0.00783024 0)
(-0.0101021 0.00736057 0)
(-0.0114355 0.00665548 0)
(-0.0126046 0.00578955 0)
(-0.0135923 0.00482617 0)
(-0.0143897 0.00381696 0)
(-0.0149947 0.0028023 0)
(-0.0154106 0.00181254 0)
(-0.0156443 0.000869669 0)
(-0.0157059 -1.09528e-05 0)
(-0.0156074 -0.000818902 0)
(-0.0153618 -0.00154727 0)
(-0.0149832 -0.00219147 0)
(-0.0144866 -0.00274846 0)
(-0.0138878 -0.00321644 0)
(-0.0132036 -0.00359501 0)
(-0.0124514 -0.00388568 0)
(-0.0116487 -0.00409233 0)
(-0.0108122 -0.00422137 0)
(-0.00995728 -0.00428152 0)
(-0.00909721 -0.00428329 0)
(-0.00824297 -0.00423834 0)
(-0.00740295 -0.00415889 0)
(-0.00658293 -0.00405701 0)
(-0.00578609 -0.00394378 0)
(-0.00501333 -0.00382868 0)
(-0.00426366 -0.00371912 0)
(-0.00353476 -0.00362019 0)
(-0.00282374 -0.00353478 0)
(-0.00212751 -0.00346412 0)
(-0.00144301 -0.00340834 0)
(-0.000767377 -0.00336706 0)
(-9.78516e-05 -0.00333971 0)
(0.000568281 -0.00332584 0)
(0.00123374 -0.00332516 0)
(0.00190124 -0.00333761 0)
(0.00257354 -0.00336323 0)
(0.00325331 -0.003402 0)
(0.00394313 -0.00345366 0)
(0.0046455 -0.00351735 0)
(0.00536283 -0.00359122 0)
(0.00609731 -0.00367185 0)
(0.00685037 -0.00375364 0)
(0.00762202 -0.00382883 0)
(0.00841026 -0.0038878 0)
(0.00921079 -0.00391957 0)
(0.0100167 -0.00391244 0)
(0.0108185 -0.00385477 0)
(0.0116041 -0.00373576 0)
(0.0123591 -0.00354612 0)
(0.0130677 -0.00327872 0)
(0.0137128 -0.00292893 0)
(0.0142775 -0.00249448 0)
(0.0147453 -0.00197508 0)
(0.015101 -0.0013718 0)
(0.0153301 -0.00068677 0)
(0.015419 7.66808e-05 0)
(0.015355 0.000913253 0)
(0.0151258 0.00181433 0)
(0.0147209 0.00276618 0)
(0.0141317 0.00374785 0)
(0.0133536 0.00472925 0)
(0.0123872 0.00566954 0)
(0.0112399 0.00651588 0)
(0.00992826 0.00720329 0)
(0.00848026 0.00765629 0)
(0.00693785 0.00779385 0)
(0.00535957 0.00753916 0)
(0.0038216 0.00683576 0)
(0.00241605 0.00567087 0)
(0.00124682 0.00410564 0)
(0.000425373 0.00230975 0)
(1.86466e-05 0.000596739 0)
(-2.6248e-05 0.000890578 0)
(-0.000526625 0.00315052 0)
(-0.00151263 0.00539504 0)
(-0.0028912 0.00728025 0)
(-0.00452186 0.00863513 0)
(-0.00628069 0.00941297 0)
(-0.00806341 0.00964804 0)
(-0.00978755 0.00941936 0)
(-0.011392 0.00882314 0)
(-0.0128347 0.00795643 0)
(-0.0140889 0.00690646 0)
(-0.0151386 0.00574653 0)
(-0.0159763 0.00453596 0)
(-0.0166013 0.00332111 0)
(-0.017018 0.00213696 0)
(-0.0172351 0.00100896 0)
(-0.0172643 -4.50831e-05 0)
(-0.0171193 -0.00101321 0)
(-0.0168147 -0.0018875 0)
(-0.0163659 -0.00266249 0)
(-0.0157892 -0.00333419 0)
(-0.0151021 -0.00389972 0)
(-0.0143233 -0.00435777 0)
(-0.0134728 -0.00470932 0)
(-0.0125705 -0.00495855 0)
(-0.0116357 -0.00511306 0)
(-0.0106858 -0.00518347 0)
(-0.00973581 -0.00518267 0)
(-0.00879786 -0.00512497 0)
(-0.00788109 -0.00502543 0)
(-0.00699151 -0.00489891 0)
(-0.00613214 -0.00475912 0)
(-0.00530334 -0.00461779 0)
(-0.00450319 -0.00448405 0)
(-0.00372833 -0.00436399 0)
(-0.00297488 -0.00426084 0)
(-0.00223899 -0.00417581 0)
(-0.001517 -0.0041089 0)
(-0.000805497 -0.00405951 0)
(-0.000101235 -0.00402703 0)
(0.000599052 -0.004011 0)
(0.00129869 -0.00401116 0)
(0.00200108 -0.0040275 0)
(0.00270965 -0.00406003 0)
(0.00342771 -0.0041086 0)
(0.00415839 -0.00417285 0)
(0.0049047 -0.00425184 0)
(0.0056697 -0.00434365 0)
(0.00645652 -0.00444444 0)
(0.00726764 -0.00454749 0)
(0.00810387 -0.00464315 0)
(0.00896364 -0.0047195 0)
(0.0098427 -0.0047629 0)
(0.0107337 -0.00475881 0)
(0.0116262 -0.00469276 0)
(0.0125066 -0.0045513 0)
(0.0133586 -0.00432299 0)
(0.0141636 -0.00399924 0)
(0.014902 -0.00357492 0)
(0.0155541 -0.0030482 0)
(0.0161016 -0.00241976 0)
(0.0165273 -0.00169189 0)
(0.0168156 -0.000867726 0)
(0.016952 4.86157e-05 0)
(0.0169223 0.00105115 0)
(0.016713 0.00213032 0)
(0.0163114 0.00327064 0)
(0.0157071 0.00444815 0)
(0.0148936 0.00562824 0)
(0.0138697 0.00676386 0)
(0.0126411 0.00779408 0)
(0.0112229 0.00864353 0)
(0.00964195 0.00922351 0)
(0.00794033 0.00943676 0)
(0.0061793 0.00918768 0)
(0.00444198 0.00840055 0)
(0.00283327 0.00704685 0)
(0.00147655 0.00518172 0)
(0.000510204 0.00298695 0)
(2.41014e-05 0.000818634 0)
(-3.46732e-05 0.00116875 0)
(-0.000638999 0.00397415 0)
(-0.00180707 0.00667692 0)
(-0.0034131 0.00889037 0)
(-0.00528096 0.0104369 0)
(-0.00726324 0.0112842 0)
(-0.00924239 0.0114899 0)
(-0.0111305 0.011158 0)
(-0.0128661 0.010407 0)
(-0.0144093 0.00935177 0)
(-0.0157358 0.00809255 0)
(-0.0168323 0.0067125 0)
(-0.0176932 0.00527848 0)
(-0.0183194 0.0038428 0)
(-0.0187173 0.00244528 0)
(-0.0188976 0.0011151 0)
(-0.0188745 -0.000127457 0)
(-0.0186636 -0.00126904 0)
(-0.0182816 -0.00230097 0)
(-0.0177453 -0.00321704 0)
(-0.0170723 -0.00401215 0)
(-0.0162819 -0.00468206 0)
(-0.0153951 -0.00522402 0)
(-0.0144343 -0.00563817 0)
(-0.0134228 -0.00592893 0)
(-0.0123827 -0.00610543 0)
(-0.0113334 -0.00618072 0)
(-0.0102915 -0.00617057 0)
(-0.00927007 -0.00609241 0)
(-0.00827885 -0.00596463 0)
(-0.0073238 -0.00580542 0)
(-0.00640744 -0.00563152 0)
(-0.00552923 -0.0054573 0)
(-0.00468597 -0.00529391 0)
(-0.00387279 -0.00514844 0)
(-0.0030846 -0.00502422 0)
(-0.00231673 -0.00492224 0)
(-0.00156495 -0.00484219 0)
(-0.000825389 -0.00478323 0)
(-9.43337e-05 -0.00474469 0)
(0.000632014 -0.00472619 0)
(0.00135761 -0.00472753 0)
(0.0020866 -0.00474886 0)
(0.00282324 -0.00479009 0)
(0.00357152 -0.00485088 0)
(0.0043351 -0.00493071 0)
(0.00511737 -0.00502856 0)
(0.00592202 -0.00514273 0)
(0.00675345 -0.00526936 0)
(0.00761577 -0.00540047 0)
(0.00851097 -0.0055242 0)
(0.00943828 -0.00562592 0)
(0.0103938 -0.00568889 0)
(0.0113702 -0.00569516 0)
(0.0123561 -0.00562688 0)
(0.0133369 -0.00546735 0)
(0.0142939 -0.0052023 0)
(0.0152059 -0.00482127 0)
(0.01605 -0.0043186 0)
(0.0168036 -0.00369323 0)
(0.0174457 -0.00294744 0)
(0.0179577 -0.00208517 0)
(0.0183227 -0.00111089 0)
(0.0185251 -2.95028e-05 0)
(0.0185494 0.00115263 0)
(0.0183802 0.00242544 0)
(0.0180024 0.00377201 0)
(0.0174031 0.00516546 0)
(0.0165728 0.00656651 0)
(0.0155081 0.0079218 0)
(0.0142125 0.00916224 0)
(0.0126981 0.010202 0)
(0.0109891 0.0109384 0)
(0.00912526 0.0112562 0)
(0.00716835 0.0110374 0)
(0.00520702 0.0101812 0)
(0.00335955 0.00863597 0)
(0.00177306 0.00644317 0)
(0.000622626 0.00379296 0)
(3.19577e-05 0.00108802 0)
(-4.72045e-05 0.00151096 0)
(-0.00079217 0.00496416 0)
(-0.00219521 0.00818919 0)
(-0.00408132 0.0107546 0)
(-0.00622574 0.0124851 0)
(-0.00845339 0.0133747 0)
(-0.0106345 0.0135151 0)
(-0.0126791 0.0130423 0)
(-0.0145297 0.0121014 0)
(-0.0161523 0.0108261 0)
(-0.0175279 0.00932963 0)
(-0.0186467 0.00770414 0)
(-0.0195058 0.00602341 0)
(-0.0201082 0.00434559 0)
(-0.0204623 0.00271554 0)
(-0.0205818 0.0011665 0)
(-0.0204836 -0.00027864 0)
(-0.0201866 -0.00160552 0)
(-0.0197093 -0.00280525 0)
(-0.01907 -0.00387113 0)
(-0.0182875 -0.00479688 0)
(-0.0173825 -0.0055764 0)
(-0.0163782 -0.00620492 0)
(-0.0153003 -0.00668117 0)
(-0.0141755 -0.00700978 0)
(-0.0130288 -0.00720204 0)
(-0.0118817 -0.00727428 0)
(-0.0107517 -0.0072457 0)
(-0.00965249 -0.00713734 0)
(-0.00859395 -0.00697148 0)
(-0.00758156 -0.00677021 0)
(-0.00661689 -0.00655371 0)
(-0.00569823 -0.00633937 0)
(-0.00482065 -0.00614077 0)
(-0.00397724 -0.00596588 0)
(-0.00316151 -0.00581761 0)
(-0.00236817 -0.00569634 0)
(-0.00159261 -0.00560128 0)
(-0.000830735 -0.00553125 0)
(-7.85833e-05 -0.00548563 0)
(0.000668038 -0.00546417 0)
(0.00141355 -0.00546688 0)
(0.00216284 -0.0054942 0)
(0.00292103 -0.00554593 0)
(0.00369278 -0.00562129 0)
(0.00448208 -0.00571944 0)
(0.00529235 -0.00583927 0)
(0.00612749 -0.00597987 0)
(0.00699363 -0.00613824 0)
(0.00789725 -0.00630498 0)
(0.00884201 -0.00646552 0)
(0.00982818 -0.00660213 0)
(0.0108527 -0.00669452 0)
(0.0119087 -0.00672082 0)
(0.0129847 -0.00665912 0)
(0.0140651 -0.00648877 0)
(0.0151297 -0.00619177 0)
(0.0161542 -0.00575502 0)
(0.017112 -0.00517216 0)
(0.017977 -0.00444342 0)
(0.0187258 -0.00357345 0)
(0.0193382 -0.00256854 0)
(0.0197962 -0.00143482 0)
(0.0200834 -0.000177921 0)
(0.0201832 0.0011959 0)
(0.0200782 0.00267682 0)
(0.0197499 0.00424712 0)
(0.0191819 0.00587701 0)
(0.0183615 0.00752237 0)
(0.0172824 0.0091234 0)
(0.0159447 0.0106032 0)
(0.0143569 0.011866 0)
(0.0125375 0.0127955 0)
(0.0105207 0.0132569 0)
(0.00836412 0.0131058 0)
(0.00615817 0.0122092 0)
(0.00403312 0.0104813 0)
(0.00216435 0.00793748 0)
(0.000776745 0.00476761 0)
(4.44954e-05 0.0014218 0)
(-6.65617e-05 0.00194234 0)
(-0.00100599 0.00617467 0)
(-0.00271442 0.00999217 0)
(-0.00494226 0.0129216 0)
(-0.00739962 0.0148085 0)
(-0.00988158 0.0156925 0)
(-0.0122515 0.0157146 0)
(-0.0144245 0.0150516 0)
(-0.016354 0.0138787 0)
(-0.0180172 0.0123489 0)
(-0.0194037 0.0105862 0)
(-0.0205087 0.00869012 0)
(-0.0213323 0.00674006 0)
(-0.0218793 0.00479971 0)
(-0.0221605 0.00291938 0)
(-0.0221926 0.00113704 0)
(-0.0219967 -0.000521747 0)
(-0.0215951 -0.00204229 0)
(-0.0210087 -0.0034165 0)
(-0.0202566 -0.00463776 0)
(-0.0193583 -0.00569851 0)
(-0.0183355 -0.00659027 0)
(-0.0172133 -0.00730533 0)
(-0.0160205 -0.00784016 0)
(-0.0147879 -0.00819963 0)
(-0.0135436 -0.0083983 0)
(-0.0123101 -0.00845704 0)
(-0.0111048 -0.00839913 0)