/*--------------------------------*- C++ -*----------------------------------*\
| =========                 |                                                 |
| \\      /  F ield         | OpenFOAM: The Open Source CFD Toolbox           |
|  \\    /   O peration     | Version:  2412                                  |
|   \\  /    A nd           | Website:  www.openfoam.com                      |
|    \\/     M anipulation  |                                                 |
\*---------------------------------------------------------------------------*/
FoamFile
{
    version     2.0;
    format      ascii;
    arch        "LSB;label=32;scalar=64";
    class       volVectorField;
    location    "7.7";
    object      U;
}
// * * * * * * * * * * * * * * * * * * * * * * * * * * * * * * * * * * * * * //

dimensions      [0 1 -1 0 0 0 0];

internalField   nonuniform List<vector> 
6400
(
(-0.00161306 0.00112072 0)
(-0.00329672 0.000680311 0)
(-0.0048383 0.000802363 0)
(-0.00685174 0.000877784 0)
(-0.00869112 0.000885544 0)
(-0.0104889 0.00085821 0)
(-0.0121188 0.000814123 0)
(-0.0136148 0.000753337 0)
(-0.0149378 0.000679078 0)
(-0.0160912 0.000601629 0)
(-0.0170234 0.000505855 0)
(-0.0177522 0.000380086 0)
(-0.0182778 0.000275774 0)
(-0.0185986 0.00018002 0)
(-0.0187495 7.91342e-05 0)
(-0.0186857 -2.60161e-05 0)
(-0.0184204 -0.000137393 0)
(-0.0179659 -0.000239571 0)
(-0.0173102 -0.000334239 0)
(-0.0164896 -0.000413912 0)
(-0.0155334 -0.000473921 0)
(-0.01446 -0.0005089 0)
(-0.0133055 -0.000511375 0)
(-0.0121189 -0.000478113 0)
(-0.010942 -0.000412955 0)
(-0.00981776 -0.000333776 0)
(-0.00876109 -0.000265061 0)
(-0.00777682 -0.000240722 0)
(-0.00684141 -0.000248074 0)
(-0.00593124 -0.000288785 0)
(-0.00506609 -0.000314761 0)
(-0.00427929 -0.000312977 0)
(-0.00354815 -0.000310566 0)
(-0.00286453 -0.000351528 0)
(-0.00220321 -0.000457733 0)
(-0.00148358 -0.000602089 0)
(-0.000681539 -0.000766324 0)
(0.000208111 -0.000919199 0)
(0.00117756 -0.0010431 0)
(0.00224016 -0.00112045 0)
(0.00334954 -0.0011544 0)
(0.00446831 -0.00113919 0)
(0.00559208 -0.00106554 0)
(0.00667848 -0.000952286 0)
(0.00770427 -0.000798461 0)
(0.00865124 -0.000625974 0)
(0.00950795 -0.000458645 0)
(0.010289 -0.000331507 0)
(0.0110179 -0.000261955 0)
(0.0117404 -0.000225269 0)
(0.0124817 -0.000192339 0)
(0.0132129 -0.000151188 0)
(0.0139144 -0.000111817 0)
(0.0145825 -9.94729e-05 0)
(0.0152282 -0.000124362 0)
(0.0158557 -0.000157769 0)
(0.0164348 -0.000169075 0)
(0.0169242 -0.000138764 0)
(0.0172766 -7.41429e-05 0)
(0.01744 1.75907e-05 0)
(0.017392 0.000125487 0)
(0.0171209 0.000246518 0)
(0.0166172 0.000372005 0)
(0.0158937 0.000485196 0)
(0.0149784 0.000565644 0)
(0.0139189 0.000619439 0)
(0.0127778 0.000636981 0)
(0.0115807 0.00065122 0)
(0.0103462 0.000670013 0)
(0.00911421 0.00067437 0)
(0.00790729 0.000645897 0)
(0.00677208 0.000600921 0)
(0.00570967 0.000539121 0)
(0.00473833 0.000490151 0)
(0.00384683 0.000428855 0)
(0.00299182 0.000379391 0)
(0.00224775 0.000306092 0)
(0.00146708 0.00018867 0)
(0.00121845 5.04657e-05 0)
(0.000857551 0.000431039 0)
(-0.00184574 0.00387706 0)
(-0.00376555 0.00255159 0)
(-0.00567533 0.00288249 0)
(-0.00795891 0.00296722 0)
(-0.00996937 0.00282936 0)
(-0.0118592 0.00261669 0)
(-0.0134912 0.00236274 0)
(-0.0149171 0.00209575 0)
(-0.0160891 0.00179913 0)
(-0.0170363 0.0014955 0)
(-0.0177821 0.00119453 0)
(-0.0183436 0.000881617 0)
(-0.0187229 0.000578018 0)
(-0.018905 0.00029568 0)
(-0.018902 -1.15548e-05 0)
(-0.0187015 -0.000309037 0)
(-0.0183248 -0.000606156 0)
(-0.0177796 -0.00089138 0)
(-0.0170578 -0.00115708 0)
(-0.0161732 -0.00139188 0)
(-0.0151333 -0.00159534 0)
(-0.013943 -0.00175984 0)
(-0.012621 -0.00187481 0)
(-0.011183 -0.00193256 0)
(-0.00964307 -0.00193819 0)
(-0.00802645 -0.00189683 0)
(-0.00637503 -0.00182408 0)
(-0.00474774 -0.00173656 0)
(-0.00322265 -0.00162378 0)
(-0.0018331 -0.00150045 0)
(-0.000611524 -0.00136055 0)
(0.000409145 -0.0012076 0)
(0.00130182 -0.00103986 0)
(0.00202857 -0.000930903 0)
(0.00254946 -0.000867752 0)
(0.00290858 -0.000855725 0)
(0.0031001 -0.000884572 0)
(0.00315411 -0.000925252 0)
(0.00310024 -0.000975557 0)
(0.00300344 -0.00102755 0)
(0.00288484 -0.00106603 0)
(0.00278984 -0.00109802 0)
(0.00276931 -0.0011136 0)
(0.00286933 -0.0011239 0)
(0.00312773 -0.00112587 0)
(0.00357128 -0.00112958 0)
(0.00422034 -0.00113885 0)
(0.00506745 -0.00115791 0)
(0.00606731 -0.00121059 0)
(0.00718605 -0.00127252 0)
(0.00839798 -0.00131559 0)
(0.00969277 -0.00132695 0)
(0.0110322 -0.00131069 0)
(0.0123501 -0.00126588 0)
(0.0135863 -0.00120218 0)
(0.0146768 -0.00110293 0)
(0.0155756 -0.000948556 0)
(0.0162746 -0.000728867 0)
(0.0167614 -0.000458182 0)
(0.0170125 -0.000147213 0)
(0.017033 0.000189444 0)
(0.016835 0.000531752 0)
(0.0164138 0.000870289 0)
(0.0157845 0.00117828 0)
(0.0149932 0.0014312 0)
(0.0140477 0.00161587 0)
(0.0129769 0.00174518 0)
(0.0118326 0.00181977 0)
(0.0106618 0.00184449 0)
(0.00952952 0.00180642 0)
(0.00846008 0.0017245 0)
(0.00745199 0.00162747 0)
(0.00649876 0.00151296 0)
(0.00559029 0.00141621 0)
(0.00471435 0.00133328 0)
(0.00382683 0.0012763 0)
(0.00297881 0.00118456 0)
(0.00202639 0.000916234 0)
(0.00157294 0.000497247 0)
(0.00106873 0.00171205 0)
(-0.00181485 0.00673922 0)
(-0.00365599 0.00450185 0)
(-0.00547633 0.00504385 0)
(-0.00774099 0.00512931 0)
(-0.00975497 0.00483026 0)
(-0.0116632 0.00440558 0)
(-0.0133201 0.00390711 0)
(-0.0147889 0.00340944 0)
(-0.0160469 0.00288151 0)
(-0.0170775 0.00234948 0)
(-0.0178839 0.00184262 0)
(-0.0185138 0.00135239 0)
(-0.0189464 0.000855729 0)
(-0.0191885 0.000375172 0)
(-0.019247 -0.000127426 0)
(-0.0190777 -0.000617005 0)
(-0.0187182 -0.00108684 0)
(-0.0181672 -0.00155917 0)
(-0.0174231 -0.0020004 0)
(-0.0165007 -0.00239769 0)
(-0.0154153 -0.00275704 0)
(-0.0141847 -0.00306274 0)
(-0.0128345 -0.00330314 0)
(-0.0113964 -0.00347026 0)
(-0.00989813 -0.00356692 0)
(-0.00837649 -0.00357889 0)
(-0.00686718 -0.00352104 0)
(-0.00540458 -0.00337367 0)
(-0.00403492 -0.00314254 0)
(-0.00278515 -0.00283767 0)
(-0.00167709 -0.00252098 0)
(-0.000708637 -0.00218856 0)
(0.000143972 -0.00186881 0)
(0.000863714 -0.00160511 0)
(0.00144647 -0.0013587 0)
(0.00189356 -0.00115472 0)
(0.00222635 -0.00100233 0)
(0.00247466 -0.000901216 0)
(0.00265021 -0.000847724 0)
(0.00280865 -0.000863679 0)
(0.00297139 -0.000900208 0)
(0.00315754 -0.000982956 0)
(0.00339743 -0.00111708 0)
(0.00372328 -0.00128029 0)
(0.00415712 -0.00147966 0)
(0.0047254 -0.00171639 0)
(0.00544601 -0.00193576 0)
(0.00629976 -0.0021503 0)
(0.00724836 -0.00233122 0)
(0.00828288 -0.00250072 0)
(0.00937836 -0.0026271 0)
(0.0105209 -0.00270748 0)
(0.0117049 -0.0027103 0)
(0.0128885 -0.0026188 0)
(0.0140234 -0.00243199 0)
(0.0150663 -0.00216041 0)
(0.0159681 -0.00180285 0)
(0.0166959 -0.00137061 0)
(0.0172204 -0.000876585 0)
(0.0175086 -0.000332805 0)
(0.0175439 0.000245878 0)
(0.0173369 0.000829678 0)
(0.0168854 0.0013816 0)
(0.0161966 0.00188313 0)
(0.0152976 0.00231987 0)
(0.0142199 0.00265582 0)
(0.013012 0.00290455 0)
(0.0117306 0.00303242 0)
(0.0104372 0.00304413 0)
(0.0091894 0.00295014 0)
(0.00801508 0.00280242 0)
(0.00691751 0.00262924 0)
(0.00591949 0.00245088 0)
(0.00502026 0.00229495 0)
(0.0041747 0.00220162 0)
(0.0033429 0.00215423 0)
(0.00257261 0.00204068 0)
(0.00172111 0.00161969 0)
(0.00143612 0.0009143 0)
(0.00105139 0.00307678 0)
(-0.0018939 0.00945985 0)
(-0.00375407 0.00627223 0)
(-0.00558829 0.0070732 0)
(-0.00794332 0.00726774 0)
(-0.0100575 0.00684329 0)
(-0.012086 0.00623685 0)
(-0.0138214 0.00554187 0)
(-0.0153227 0.00481327 0)
(-0.0165961 0.0040686 0)
(-0.0176277 0.00334134 0)
(-0.0184375 0.00263266 0)
(-0.0190695 0.00192302 0)
(-0.0195061 0.00124151 0)
(-0.0197519 0.000545262 0)
(-0.019818 -0.000157035 0)
(-0.0196555 -0.000857353 0)
(-0.0193065 -0.00153916 0)
(-0.0187593 -0.00221316 0)
(-0.0179998 -0.00285092 0)
(-0.0170489 -0.00342886 0)
(-0.0159153 -0.00394623 0)
(-0.0146244 -0.00438403 0)
(-0.0132089 -0.00472178 0)
(-0.0117049 -0.00494187 0)
(-0.0101401 -0.00504539 0)
(-0.00857117 -0.00503001 0)
(-0.00703826 -0.00490061 0)
(-0.00556675 -0.00466382 0)
(-0.00420148 -0.00433896 0)
(-0.00297178 -0.00394102 0)
(-0.00187197 -0.00349576 0)
(-0.000921259 -0.00303276 0)
(-0.000147541 -0.00259441 0)
(0.000466107 -0.00220084 0)
(0.000958256 -0.00185411 0)
(0.0013508 -0.00157347 0)
(0.00166828 -0.00137867 0)
(0.00196733 -0.00126219 0)
(0.00226106 -0.00122133 0)
(0.00258182 -0.00124469 0)
(0.0029531 -0.00131416 0)
(0.00334158 -0.0014218 0)
(0.00376037 -0.00159582 0)
(0.00422037 -0.00181244 0)
(0.00472142 -0.00207539 0)
(0.0053181 -0.00237479 0)
(0.00600914 -0.00268654 0)
(0.00680915 -0.00299725 0)
(0.00772862 -0.00327326 0)
(0.00875578 -0.00350107 0)
(0.00986521 -0.00367571 0)
(0.0110256 -0.00377825 0)
(0.0122284 -0.00378947 0)
(0.0134236 -0.00369764 0)
(0.0145804 -0.00347639 0)
(0.0156682 -0.00312018 0)
(0.0166264 -0.00263043 0)
(0.0174004 -0.00201579 0)
(0.0179648 -0.00129688 0)
(0.0182834 -0.00050346 0)
(0.0183291 0.000334199 0)
(0.0180898 0.00119044 0)
(0.0175663 0.00200867 0)
(0.016788 0.00276157 0)
(0.0157672 0.00341155 0)
(0.0145382 0.00391943 0)
(0.0131773 0.00425534 0)
(0.0117592 0.00442321 0)
(0.0103418 0.00441804 0)
(0.00898854 0.0042675 0)
(0.00774409 0.00402291 0)
(0.00661901 0.0037236 0)
(0.00562993 0.00341347 0)
(0.0047673 0.00317982 0)
(0.00397126 0.00301499 0)
(0.00315536 0.00293531 0)
(0.00240114 0.00277885 0)
(0.00160811 0.00213951 0)
(0.00139772 0.00113714 0)
(0.00106644 0.00427213 0)
(-0.00203643 0.0124104 0)
(-0.00395425 0.00817617 0)
(-0.00584443 0.00926946 0)
(-0.00837245 0.00959794 0)
(-0.0106736 0.00902907 0)
(-0.0128177 0.00818802 0)
(-0.0146414 0.00722216 0)
(-0.0161699 0.00621365 0)
(-0.0174181 0.00521114 0)
(-0.0184162 0.00426221 0)
(-0.0192179 0.00335723 0)
(-0.019829 0.00246046 0)
(-0.0202576 0.00158249 0)
(-0.0205133 0.000686411 0)
(-0.0205722 -0.000213107 0)
(-0.0204134 -0.00111558 0)
(-0.0200511 -0.00201876 0)
(-0.0194759 -0.00290097 0)
(-0.0186761 -0.00375024 0)
(-0.0176598 -0.00453381 0)
(-0.0164427 -0.00522766 0)
(-0.0150507 -0.00581458 0)
(-0.0135123 -0.00627089 0)
(-0.0118759 -0.00657172 0)
(-0.0101834 -0.00671181 0)
(-0.00847334 -0.00669489 0)
(-0.00679042 -0.00651338 0)
(-0.00519176 -0.00618606 0)
(-0.00372722 -0.00573844 0)
(-0.00240999 -0.00516296 0)
(-0.00126835 -0.00451933 0)
(-0.000328053 -0.00386305 0)
(0.000403402 -0.00323975 0)
(0.000940351 -0.00267539 0)
(0.0013293 -0.00218642 0)
(0.00159816 -0.00183356 0)
(0.00180082 -0.00161324 0)
(0.00200354 -0.00148702 0)
(0.0022248 -0.00147795 0)
(0.00249263 -0.00152118 0)
(0.00282992 -0.00163534 0)
(0.00318831 -0.00177394 0)
(0.00356066 -0.00197166 0)
(0.0039704 -0.00223082 0)
(0.00443361 -0.00256409 0)
(0.00498132 -0.00295219 0)
(0.00564142 -0.00340235 0)
(0.00643282 -0.00383964 0)
(0.00737033 -0.00426309 0)
(0.00844965 -0.00461193 0)
(0.00964632 -0.00489156 0)
(0.0109282 -0.00505985 0)
(0.0122594 -0.00509835 0)
(0.0136024 -0.00498791 0)
(0.0149158 -0.00470146 0)
(0.0161503 -0.00423598 0)
(0.0172437 -0.00359099 0)
(0.0181419 -0.0027707 0)
(0.0188063 -0.00180097 0)
(0.0191907 -0.000733447 0)
(0.0192699 0.000404046 0)
(0.019028 0.00156131 0)
(0.0184537 0.00268266 0)
(0.0175668 0.00371898 0)
(0.0163882 0.00461067 0)
(0.0149704 0.00530446 0)
(0.0134234 0.00574933 0)
(0.0118187 0.00594531 0)
(0.0102036 0.00590194 0)
(0.00869498 0.00566729 0)
(0.007368 0.0052581 0)
(0.00622439 0.00478626 0)
(0.00529583 0.00431104 0)
(0.00451415 0.00399512 0)
(0.00378878 0.00380524 0)
(0.00303648 0.00372404 0)
(0.00228572 0.0035449 0)
(0.00149927 0.00264316 0)
(0.00137134 0.00136401 0)
(0.00111945 0.00552146 0)
(-0.00216225 0.0154957 0)
(-0.00413882 0.0101358 0)
(-0.00618711 0.0115646 0)
(-0.00892902 0.0121153 0)
(-0.0114665 0.0113916 0)
(-0.0138006 0.0102572 0)
(-0.0157295 0.00895187 0)
(-0.0172671 0.00760902 0)
(-0.0184723 0.00634587 0)
(-0.0194074 0.00516007 0)
(-0.0201646 0.0040689 0)
(-0.0207683 0.00299225 0)
(-0.0212068 0.00193802 0)
(-0.0214637 0.000846211 0)
(-0.0215291 -0.000261537 0)
(-0.0213809 -0.00138358 0)
(-0.0210077 -0.0025141 0)
(-0.0204009 -0.00363394 0)
(-0.0195485 -0.00471153 0)
(-0.0184416 -0.00572165 0)
(-0.0171037 -0.00661945 0)
(-0.0155701 -0.00737346 0)
(-0.0138678 -0.00795756 0)
(-0.0120515 -0.00834852 0)
(-0.0101691 -0.00851886 0)
(-0.00826391 -0.00847649 0)
(-0.00640243 -0.00823007 0)
(-0.00465878 -0.0077959 0)
(-0.00304183 -0.00717414 0)
(-0.00160429 -0.00640896 0)
(-0.000409421 -0.00555863 0)
(0.000535796 -0.00468093 0)
(0.00122386 -0.00383609 0)
(0.00169432 -0.00306285 0)
(0.00195717 -0.00243856 0)
(0.00205821 -0.0019953 0)
(0.00211239 -0.00171993 0)
(0.00216996 -0.00159768 0)
(0.00225646 -0.00163909 0)
(0.00241861 -0.00174759 0)
(0.0026537 -0.00191726 0)
(0.0029242 -0.00207888 0)
(0.00320135 -0.00230218 0)
(0.00350842 -0.00260587 0)
(0.00388324 -0.00300705 0)
(0.00436184 -0.00352123 0)
(0.00499125 -0.00410782 0)
(0.00579143 -0.00471497 0)
(0.00677566 -0.00529808 0)
(0.00793842 -0.00579347 0)
(0.00924431 -0.00618407 0)
(0.0106786 -0.00644075 0)
(0.0121936 -0.0065266 0)
(0.0137365 -0.00641879 0)
(0.0152549 -0.00608251 0)
(0.0166928 -0.00550586 0)
(0.0179817 -0.00468658 0)
(0.0190613 -0.00363656 0)
(0.0198757 -0.00240691 0)
(0.0203718 -0.00102725 0)
(0.0205119 0.000458019 0)
(0.0202595 0.00197413 0)
(0.0196113 0.00345681 0)
(0.018584 0.00482902 0)
(0.0172122 0.00600862 0)
(0.0155642 0.00691961 0)
(0.0137416 0.00749072 0)
(0.0118435 0.00771048 0)
(0.0099724 0.007613 0)
(0.00823617 0.00721944 0)
(0.00677393 0.00656672 0)
(0.00561272 0.00582064 0)
(0.0047838 0.00514835 0)
(0.0041876 0.00469176 0)
(0.00359365 0.00451965 0)
(0.0028892 0.0044879 0)
(0.00213297 0.00428965 0)
(0.00137771 0.00306102 0)
(0.00132885 0.00149116 0)
(0.00117744 0.00678449 0)
(-0.00224484 0.0187501 0)
(-0.00423409 0.0122598 0)
(-0.00651521 0.0140454 0)
(-0.00957746 0.0149588 0)
(-0.0125152 0.0140062 0)
(-0.0150917 0.0124757 0)
(-0.0171669 0.0107431 0)
(-0.0186736 0.00897912 0)
(-0.0197701 0.00742057 0)
(-0.0206061 0.00599593 0)
(-0.0212954 0.00473949 0)
(-0.0218601 0.00351974 0)
(-0.0223051 0.00230483 0)
(-0.0226026 0.00103576 0)
(-0.022695 -0.000279709 0)
(-0.0225743 -0.00164044 0)
(-0.0222026 -0.00302535 0)
(-0.0215613 -0.00441767 0)
(-0.0206444 -0.00575503 0)
(-0.0194382 -0.00702448 0)
(-0.0179571 -0.00815515 0)
(-0.0162457 -0.00910552 0)
(-0.0143395 -0.00984461 0)
(-0.0122872 -0.0103389 0)
(-0.0101557 -0.0105553 0)
(-0.00801087 -0.0105011 0)
(-0.00591401 -0.0101778 0)
(-0.00392631 -0.00961087 0)
(-0.00211609 -0.00877372 0)
(-0.000552265 -0.00777237 0)
(0.000717958 -0.00665325 0)
(0.00166091 -0.00546858 0)
(0.00229293 -0.00434994 0)
(0.00262328 -0.0033357 0)
(0.00269798 -0.00253244 0)
(0.00261166 -0.00196899 0)
(0.00246125 -0.00163469 0)
(0.0023136 -0.00154825 0)
(0.00223643 -0.00166121 0)
(0.00228647 -0.0018471 0)
(0.00243416 -0.0020791 0)
(0.00262179 -0.00225258 0)
(0.00279118 -0.00249218 0)
(0.00297838 -0.00284599 0)
(0.00322152 -0.00335983 0)
(0.00359299 -0.00402733 0)
(0.00416654 -0.0047953 0)
(0.00495886 -0.00561897 0)
(0.00599705 -0.00640095 0)
(0.00726731 -0.00709582 0)
(0.0087191 -0.00764995 0)
(0.0103422 -0.00802465 0)
(0.0120787 -0.00818618 0)
(0.0138669 -0.00810083 0)
(0.0156523 -0.00772163 0)
(0.0173592 -0.00702226 0)
(0.0189092 -0.0060173 0)
(0.0202197 -0.00471328 0)
(0.0212357 -0.00316917 0)
(0.0218915 -0.00141947 0)
(0.0221085 0.000476285 0)
(0.0218567 0.00243406 0)
(0.0211261 0.00435051 0)
(0.0199197 0.0061288 0)
(0.0182965 0.00765707 0)
(0.0163335 0.0088234 0)
(0.0141275 0.00955663 0)
(0.0118291 0.00982263 0)
(0.00957625 0.00963325 0)
(0.0075178 0.00896982 0)
(0.00586242 0.00795912 0)
(0.00470748 0.00679188 0)
(0.00406322 0.00578988 0)
(0.00376941 0.00520342 0)
(0.00341878 0.00510927 0)
(0.0028058 0.00521029 0)
(0.00198789 0.00505243 0)
(0.00118655 0.0034207 0)
(0.00118906 0.00152679 0)
(0.00123012 0.00804577 0)
(-0.00216121 0.021992 0)
(-0.00416116 0.0145561 0)
(-0.00668805 0.0168215 0)
(-0.0102553 0.018284 0)
(-0.0138878 0.0169881 0)
(-0.0168234 0.0149533 0)
(-0.0190735 0.012612 0)
(-0.0204798 0.0102538 0)
(-0.0213423 0.0083297 0)
(-0.0219714 0.00673621 0)
(-0.0225212 0.00535727 0)
(-0.0230764 0.00405778 0)
(-0.023562 0.00269612 0)
(-0.0239118 0.00126251 0)
(-0.0240792 -0.000270573 0)
(-0.0240148 -0.00187668 0)
(-0.0236681 -0.00354787 0)
(-0.0229958 -0.00524925 0)
(-0.0220038 -0.00689804 0)
(-0.0206756 -0.00847347 0)
(-0.0190141 -0.0098807 0)
(-0.0170849 -0.0110681 0)
(-0.0149172 -0.0119826 0)
(-0.012567 -0.0125974 0)
(-0.0101209 -0.0128736 0)
(-0.00765384 -0.0127955 0)
(-0.0052521 -0.0123789 0)
(-0.00297341 -0.0116263 0)
(-0.000910768 -0.0105612 0)
(0.00081913 -0.00925279 0)
(0.00220328 -0.00775946 0)
(0.00314462 -0.00622732 0)
(0.00365298 -0.00475558 0)
(0.00380612 -0.00343077 0)
(0.00362837 -0.00237437 0)
(0.00326206 -0.00165973 0)
(0.00283928 -0.00131376 0)
(0.00244771 -0.00131888 0)
(0.00218876 -0.0015445 0)
(0.00210514 -0.00183917 0)
(0.00216283 -0.00214694 0)
(0.0022583 -0.00233142 0)
(0.00230262 -0.0025478 0)
(0.00232189 -0.0029264 0)
(0.00239371 -0.00355943 0)
(0.00262448 -0.00440862 0)
(0.00309885 -0.00544043 0)
(0.00387217 -0.00653527 0)
(0.00495996 -0.00758459 0)
(0.00634342 -0.00854011 0)
(0.0079889 -0.00931177 0)
(0.00985479 -0.00984198 0)
(0.0118668 -0.0101118 0)
(0.013961 -0.0100594 0)
(0.0160802 -0.00964583 0)
(0.018128 -0.00884213 0)
(0.0200187 -0.007648 0)
(0.0216601 -0.00606323 0)
(0.0229538 -0.00414663 0)
(0.0238121 -0.00195837 0)
(0.0241507 0.00043673 0)
(0.023913 0.00293232 0)
(0.0230819 0.00537771 0)
(0.0216662 0.00766298 0)
(0.0197108 0.00963438 0)
(0.0173193 0.01115 0)
(0.0146059 0.0120972 0)
(0.0117557 0.0124215 0)
(0.00894996 0.0120791 0)
(0.00641261 0.0110462 0)
(0.00445673 0.00948276 0)
(0.00329913 0.00766645 0)
(0.00303854 0.00609676 0)
(0.00331837 0.00535129 0)
(0.00334695 0.00551129 0)
(0.00283432 0.00592028 0)
(0.0017785 0.00592212 0)
(0.000802347 0.00378916 0)
(0.000901902 0.00146662 0)
(0.00118064 0.0091514 0)
(-0.00168935 0.025075 0)
(-0.00427659 0.017009 0)
(-0.00692913 0.0199211 0)
(-0.0108912 0.0223741 0)
(-0.0156163 0.0205547 0)
(-0.0190792 0.017805 0)
(-0.0216315 0.0145364 0)
(-0.0228017 0.0112826 0)
(-0.023149 0.00894318 0)
(-0.0234165 0.00727024 0)
(-0.0237925 0.00588771 0)
(-0.0243305 0.00459206 0)
(-0.0249051 0.00316346 0)
(-0.0253757 0.0015884 0)
(-0.0256465 -0.00017399 0)
(-0.0256708 -0.00205934 0)
(-0.025391 -0.00405264 0)
(-0.0247115 -0.00611346 0)
(-0.0236476 -0.00815243 0)
(-0.0221835 -0.0100924 0)
(-0.0203101 -0.0118326 0)
(-0.0180995 -0.0133032 0)
(-0.0156065 -0.0144398 0)
(-0.0128989 -0.0152087 0)
(-0.010056 -0.0155537 0)
(-0.00719216 -0.015454 0)
(-0.00439115 -0.0149241 0)
(-0.00173248 -0.0139483 0)
(0.0006475 -0.0125855 0)
(0.00265455 -0.0108608 0)
(0.00415426 -0.00892887 0)
(0.0050681 -0.00691741 0)
(0.00547441 -0.0049687 0)
(0.00538322 -0.0032584 0)
(0.00486837 -0.00191387 0)
(0.00411167 -0.00105916 0)
(0.0032794 -0.000706277 0)
(0.00252106 -0.000844906 0)
(0.0019782 -0.00123732 0)
(0.00179058 -0.00170913 0)
(0.00195692 -0.0021194 0)
(0.00199197 -0.00227191 0)
(0.00179344 -0.00242851 0)
(0.00150235 -0.00280728 0)
(0.00130239 -0.00353471 0)
(0.00130924 -0.00463761 0)
(0.00164372 -0.00601071 0)
(0.00239338 -0.00745358 0)
(0.00354681 -0.00887538 0)
(0.00509071 -0.0101504 0)
(0.00699197 -0.011182 0)
(0.00915979 -0.0119276 0)
(0.0115112 -0.0123455 0)
(0.013988 -0.012369 0)
(0.016516 -0.0119546 0)
(0.0190024 -0.0110556 0)
(0.021349 -0.00964428 0)
(0.023418 -0.00775071 0)
(0.0250702 -0.00541025 0)
(0.0262083 -0.00268824 0)
(0.0267248 0.000307062 0)
(0.0265297 0.00344847 0)
(0.0256007 0.00657066 0)
(0.0239335 0.0095009 0)
(0.0215544 0.0120425 0)
(0.0185778 0.0140243 0)
(0.0151714 0.0152662 0)
(0.0115692 0.0156753 0)
(0.00796998 0.0151347 0)
(0.00472057 0.0136229 0)
(0.00230732 0.0112485 0)
(0.00117402 0.00836349 0)
(0.00155866 0.0058197 0)
(0.00280209 0.00481995 0)
(0.00348407 0.00563963 0)
(0.00305333 0.0067251 0)
(0.00147963 0.0071843 0)
(0.000405575 0.00410699 0)
(0.000877814 0.00127466 0)
(0.000853534 0.0100471 0)
(-0.000190879 0.027937 0)
(-0.00451975 0.0203723 0)
(-0.00885647 0.0231142 0)
(-0.012031 0.0272586 0)
(-0.0180416 0.0250756 0)
(-0.0221529 0.0212383 0)
(-0.0250692 0.0164556 0)
(-0.02576 0.0117679 0)
(-0.0251667 0.00905418 0)
(-0.0248119 0.0074374 0)
(-0.0248978 0.00634275 0)
(-0.0254379 0.00518374 0)
(-0.0261904 0.00378892 0)
(-0.0268806 0.00205505 0)
(-0.0273601 6.88357e-05 0)
(-0.0275208 -0.00214712 0)
(-0.0273358 -0.00451709 0)
(-0.0266921 -0.00701145 0)
(-0.0255637 -0.00952824 0)
(-0.0239336 -0.0119093 0)
(-0.0218082 -0.0140498 0)
(-0.0192737 -0.0158621 0)
(-0.0164015 -0.0172792 0)
(-0.0132612 -0.0182392 0)
(-0.00994015 -0.0186742 0)
(-0.00656959 -0.0185716 0)
(-0.00325103 -0.0179207 0)
(-0.000107668 -0.0167205 0)
(0.00272394 -0.0149525 0)
(0.00505017 -0.0127162 0)
(0.00674061 -0.0101854 0)
(0.00769885 -0.00754615 0)
(0.00789991 -0.00496457 0)
(0.0074734 -0.00276178 0)
(0.00651239 -0.00105097 0)
(0.00518697 -3.95774e-05 0)
(0.00363787 0.000362893 0)
(0.00212853 8.38385e-05 0)
(0.00114759 -0.00066459 0)
(0.0011273 -0.00166778 0)
(0.00197839 -0.00218279 0)
(0.002257 -0.00200386 0)
(0.00167999 -0.00191311 0)
(0.000715082 -0.0022842 0)
(-0.000125071 -0.00320415 0)
(-0.000531261 -0.00467363 0)
(-0.000351892 -0.00647308 0)
(0.000385776 -0.00840301 0)
(0.00163695 -0.0103106 0)
(0.00341372 -0.012014 0)
(0.00561893 -0.0133913 0)
(0.0081437 -0.0144178 0)
(0.0109127 -0.0150176 0)
(0.0138598 -0.015149 0)
(0.0169144 -0.0147453 0)
(0.0199759 -0.0137563 0)
(0.0228831 -0.0121418 0)
(0.0254771 -0.00989493 0)
(0.0276137 -0.00705431 0)
(0.0291283 -0.00369947 0)
(0.0298904 2.71797e-05 0)
(0.0297916 0.00397126 0)
(0.0287547 0.00795032 0)
(0.0267549 0.0117096 0)
(0.0238477 0.0150135 0)
(0.0201562 0.0176071 0)
(0.0158706 0.0192915 0)
(0.0112486 0.0198478 0)
(0.00656129 0.0191073 0)
(0.00230066 0.0169458 0)
(-0.000846271 0.013327 0)
(-0.00201418 0.00863341 0)
(-0.000415494 0.00430529 0)
(0.00293862 0.00296383 0)
(0.00445634 0.00536668 0)
(0.00401117 0.00778578 0)
(0.00166906 0.00878268 0)
(0.00166033 0.00391656 0)
(0.0016948 0.00118504 0)
(-0.000138807 0.0107973 0)
(0.00428248 0.0296128 0)
(-0.00200651 0.0260675 0)
(-0.0137346 0.0266772 0)
(-0.0155585 0.0318634 0)
(-0.0224829 0.0304127 0)
(-0.027437 0.0252375 0)
(-0.0308697 0.0182453 0)
(-0.0300761 0.0112906 0)
(-0.0270953 0.00814146 0)
(-0.0259388 0.00704453 0)
(-0.0259588 0.0066184 0)
(-0.0267279 0.00591927 0)
(-0.027891 0.00465659 0)
(-0.0290197 0.00276846 0)
(-0.0297754 0.00049925 0)
(-0.0300574 -0.00208401 0)
(-0.0298504 -0.00492724 0)
(-0.0291253 -0.00794255 0)
(-0.0278341 -0.011021 0)
(-0.0259662 -0.0139461 0)
(-0.0235336 -0.0165837 0)
(-0.0206045 -0.0188192 0)
(-0.0172665 -0.020578 0)
(-0.0135957 -0.0217572 0)
(-0.00969821 -0.0223324 0)
(-0.00571613 -0.0222394 0)
(-0.00176895 -0.0214682 0)
(0.00203222 -0.0199846 0)
(0.00545889 -0.0177493 0)
(0.00825616 -0.0148861 0)
(0.0102055 -0.0115195 0)
(0.0112187 -0.00805608 0)
(0.0112566 -0.0047058 0)
(0.0103714 -0.00181372 0)
(0.00863251 0.000413754 0)
(0.00618553 0.00186965 0)
(0.00331653 0.00238778 0)
(0.000726677 0.00181156 0)
(-0.000506653 1.50183e-05 0)
(0.000148724 -0.00231482 0)
(0.00207133 -0.00296821 0)
(0.00309933 -0.00170536 0)
(0.00240148 -0.000657519 0)
(0.00050592 -0.000817169 0)
(-0.00155193 -0.00220108 0)
(-0.00289409 -0.00430233 0)
(-0.00314512 -0.00677492 0)
(-0.00245616 -0.00936341 0)
(-0.00102007 -0.0118872 0)
(0.0010824 -0.014107 0)
(0.00369394 -0.0159355 0)
(0.00667715 -0.017308 0)
(0.00995804 -0.0181625 0)
(0.0134724 -0.0184578 0)
(0.0171576 -0.018139 0)
(0.0208845 -0.0171143 0)
(0.0245045 -0.0152862 0)
(0.0278086 -0.0126205 0)
(0.0305704 -0.00919252 0)
(0.0325921 -0.0050906 0)
(0.033708 -0.000461906 0)
(0.033788 0.00449469 0)
(0.0327181 0.00953826 0)
(0.0304676 0.0143522 0)
(0.0270671 0.0186516 0)
(0.0226216 0.0220619 0)
(0.0173208 0.0243403 0)
(0.011433 0.0252006 0)
(0.00526364 0.0242838 0)
(-0.000767085 0.02129 0)
(-0.00605445 0.0158272 0)
(-0.00862617 0.0081463 0)
(-0.00483247 0.00101269 0)
(0.00509087 -0.000199612 0)
(0.0093251 0.0050951 0)
(0.00770719 0.00938777 0)
(0.00430162 0.00978782 0)
(0.00652268 0.00353285 0)
(0.00174807 0.00343757 0)
(-0.00230501 0.0113188 0)
(0.00198417 0.0253123 0)
(0.00721794 0.0407468 0)
(-0.0135222 0.0365485 0)
(-0.0231383 0.037765 0)
(-0.0300054 0.0368316 0)
(-0.0375182 0.030444 0)
(-0.0417636 0.0194813 0)
(-0.0373113 0.00765746 0)
(-0.0284112 0.00491383 0)
(-0.0252857 0.00629803 0)
(-0.0265447 0.00705815 0)
(-0.0288785 0.00712899 0)
(-0.0310897 0.00614048 0)
(-0.0328468 0.00399371 0)
(-0.0339624 0.00115739 0)
(-0.0344083 -0.00203295 0)
(-0.0340838 -0.00548115 0)
(-0.0330184 -0.00912117 0)
(-0.0313195 -0.0127946 0)
(-0.0290461 -0.0163321 0)
(-0.0261771 -0.0195229 0)
(-0.0226901 -0.0222623 0)
(-0.0186361 -0.0244321 0)
(-0.0141971 -0.0258977 0)
(-0.00954912 -0.0266363 0)
(-0.00483388 -0.0265705 0)
(-0.000170028 -0.025687 0)
(0.00437974 -0.0238864 0)
(0.00858305 -0.0211459 0)
(0.012117 -0.0174739 0)
(0.0145917 -0.0131208 0)
(0.0157692 -0.00841953 0)
(0.0155922 -0.00402296 0)
(0.0139712 -8.04406e-05 0)
(0.0109551 0.00314158 0)
(0.00687434 0.00533323 0)
(0.0027483 0.00580304 0)
(-0.000115151 0.0039347 0)
(-0.000925168 6.88884e-05 0)
(0.000105542 -0.00407903 0)
(0.00178237 -0.00489333 0)
(0.00301181 -0.00206177 0)
(0.00259272 0.000971721 0)
(0.000270482 0.00187828 0)
(-0.00289022 0.00018559 0)
(-0.0054871 -0.00298101 0)
(-0.00668247 -0.00671475 0)
(-0.00633774 -0.0103645 0)
(-0.00467702 -0.01378 0)
(-0.00202999 -0.0166478 0)
(0.00120358 -0.0190037 0)
(0.00482676 -0.0207267 0)
(0.00874327 -0.0218664 0)
(0.0128957 -0.0224126 0)
(0.0172744 -0.022273 0)
(0.0218433 -0.0212689 0)
(0.0264408 -0.0192182 0)
(0.0307471 -0.0161105 0)
(0.0344103 -0.0119652 0)
(0.0371376 -0.00697668 0)
(0.0387657 -0.00128729 0)
(0.0392322 0.0048629 0)
(0.0384372 0.0111921 0)
(0.0362772 0.0173551 0)
(0.032552 0.0229351 0)
(0.0272252 0.0275009 0)
(0.0206251 0.030737 0)
(0.0129808 0.0322653 0)
(0.00417088 0.0316611 0)
(-0.00636436 0.028874 0)
(-0.0173851 0.0223287 0)
(-0.0221822 0.00872282 0)
(-0.0140249 -0.00780794 0)
(0.00394542 -0.011198 0)
(0.0178275 0.00377508 0)
(0.0160675 0.0129239 0)
(0.011 0.0106516 0)
(0.0103263 0.00622055 0)
(-0.00361028 0.011184 0)
(-0.00392263 0.00990202 0)
(0.000327061 0.0190965 0)
(0.019306 0.0400437 0)
(0.00678534 0.0578978 0)
(-0.0252585 0.0486927 0)
(-0.0400601 0.0447871 0)
(-0.0511276 0.0378869 0)
(-0.0576252 0.0186406 0)
(-0.0523293 -0.00223001 0)
(-0.0364948 -0.0038053 0)
(-0.023693 0.00552542 0)
(-0.023055 0.0104422 0)
(-0.0279059 0.010501 0)
(-0.0324506 0.00866652 0)
(-0.0352892 0.00586566 0)
(-0.0372743 0.00218241 0)
(-0.0388829 -0.00193414 0)
(-0.0395668 -0.00630172 0)
(-0.0388323 -0.0107333 0)
(-0.0369267 -0.0150774 0)
(-0.0342207 -0.0192236 0)
(-0.0307985 -0.0230529 0)
(-0.0265989 -0.0264567 0)
(-0.0215947 -0.0291654 0)
(-0.0160878 -0.0309864 0)
(-0.0104386 -0.0317701 0)
(-0.0048595 -0.0316668 0)
(0.000666677 -0.0306722 0)
(0.00625184 -0.0286842 0)
(0.0116839 -0.0254586 0)
(0.0164035 -0.0207896 0)
(0.0197971 -0.0151434 0)
(0.0212626 -0.00890247 0)
(0.0206624 -0.00278496 0)
(0.0181339 0.0029155 0)
(0.01387 0.00756057 0)
(0.0090377 0.0100846 0)
(0.00525061 0.00940582 0)
(0.00338239 0.0053291 0)
(0.00275494 -0.000241683 0)
(0.00231453 -0.00512334 0)
(0.0011626 -0.00593441 0)
(-7.7776e-05 -0.00251971 0)
(-0.00131469 0.00212058 0)
(-0.00356185 0.0046402 0)
(-0.00671972 0.0035835 0)
(-0.00967295 -0.000410784 0)
(-0.0113697 -0.00585029 0)
(-0.0112855 -0.0112472 0)
(-0.00929243 -0.0160203 0)
(-0.0057647 -0.0198368 0)
(-0.00143252 -0.0227682 0)
(0.0032872 -0.0248339 0)
(0.0080814 -0.0262069 0)
(0.0129818 -0.0269931 0)
(0.0181517 -0.0271465 0)
(0.0237356 -0.0263917 0)
(0.0296359 -0.0243207 0)
(0.0354449 -0.0207026 0)
(0.0404656 -0.0156909 0)
(0.044168 -0.00955662 0)
(0.0465008 -0.00268312 0)
(0.0475505 0.00475183 0)
(0.0471738 0.0124981 0)
(0.0447715 0.0203296 0)
(0.0396794 0.0277764 0)
(0.0320224 0.0342117 0)
(0.0225899 0.0389535 0)
(0.0117741 0.0419347 0)
(-0.000875461 0.0435215 0)
(-0.015665 0.0424299 0)
(-0.0277449 0.0316369 0)
(-0.0274654 0.00482017 0)
(-0.0143681 -0.0270627 0)
(0.000799674 -0.0357273 0)
(0.0187757 -0.00783944 0)
(0.0230858 0.0161862 0)
(0.0152151 0.0155313 0)
(-0.00330807 0.0174975 0)
(-0.0205773 0.017413 0)
(-0.00525792 0.00303973 0)
(0.0159368 0.0106902 0)
(0.0495929 0.0351187 0)
(0.0543198 0.087616 0)
(0.0104137 0.0898768 0)
(-0.0381106 0.0615007 0)
(-0.0584583 0.0492227 0)
(-0.0740167 0.0214666 0)
(-0.0780267 -0.0122396 0)
(-0.064095 -0.0235796 0)
(-0.0385913 -0.00734278 0)
(-0.0227994 0.0106435 0)
(-0.0203374 0.0163553 0)
(-0.0231284 0.013793 0)
(-0.0265814 0.00941219 0)
(-0.0307925 0.00536073 0)
(-0.0359359 0.000600276 0)
(-0.0406115 -0.0054165 0)
(-0.0428724 -0.0116552 0)
(-0.0422705 -0.0173524 0)
(-0.0396078 -0.022526 0)
(-0.035665 -0.0273247 0)
(-0.0307207 -0.0316775 0)
(-0.0249145 -0.0351482 0)
(-0.0184932 -0.0373254 0)
(-0.0118234 -0.0380557 0)
(-0.00495515 -0.0378154 0)
(0.00243807 -0.0369099 0)
(0.0104222 -0.0351333 0)
(0.0183698 -0.0315249 0)
(0.0248228 -0.0256301 0)
(0.0287342 -0.018032 0)
(0.0297719 -0.00966766 0)
(0.0282367 -0.00107525 0)
(0.0248023 0.00664534 0)
(0.0203419 0.0121487 0)
(0.0163945 0.0139497 0)
(0.0137612 0.0115928 0)
(0.0117489 0.00664005 0)
(0.00916018 0.00142959 0)
(0.00611355 -0.00243478 0)
(0.00107799 -0.00242677 0)
(-0.005779 0.000443603 0)
(-0.0113596 0.00438729 0)
(-0.0153657 0.00701017 0)
(-0.0183513 0.0063591 0)
(-0.0202861 0.00181605 0)
(-0.0205023 -0.00510178 0)
(-0.0188333 -0.0125216 0)
(-0.0154251 -0.0190898 0)
(-0.0105447 -0.0243753 0)
(-0.00481424 -0.0280946 0)
(0.00118833 -0.0304126 0)
(0.00693839 -0.0318001 0)
(0.0125322 -0.0327048 0)
(0.0185374 -0.03326 0)
(0.0254787 -0.0330045 0)
(0.033253 -0.0311939 0)
(0.0409927 -0.0271336 0)
(0.0477573 -0.0208695 0)
(0.0528964 -0.0131383 0)
(0.0562165 -0.00473368 0)
(0.0576129 0.0042245 0)
(0.0563272 0.0139872 0)
(0.0511264 0.0248686 0)
(0.0414197 0.0359178 0)
(0.0283261 0.0451965 0)
(0.0139586 0.0516515 0)
(0.000672698 0.0561745 0)
(-0.00955582 0.0581517 0)
(-0.0147791 0.0523796 0)
(-0.0109522 0.0312555 0)
(0.00279203 -0.00501547 0)
(0.0153365 -0.0386118 0)