/*--------------------------------*- C++ -*----------------------------------*\
| =========                 |                                                 |
| \\      /  F ield         | OpenFOAM: The Open Source CFD Toolbox           |
|  \\    /   O peration     | Version:  2412                                  |
|   \\  /    A nd           | Website:  www.openfoam.com                      |
|    \\/     M anipulation  |                                                 |
\*---------------------------------------------------------------------------*/
FoamFile
{
    version     2.0;
    format      ascii;
    arch        "LSB;label=32;scalar=64";
    class       volScalarField;
    location    "6";
    object      alpha.gasoline;
}
// * * * * * * * * * * * * * * * * * * * * * * * * * * * * * * * * * * * * * //

dimensions      [0 0 0 0 0 0 0];

internalField   nonuniform List<scalar> 
6400
(
1
1.00001
1
0.999998
0.999998
0.999998
1
1
1
1
0.999999
0.999999
1
1
1
1
1
1
1
1
1
1
1
1
1
1
1
1
1
1
1
1
1
1
1
1
1
1
1
1
1
1
1
1
1
1
1
1
1
1
1
1
1
1
1
1
1
1
1
1
0.999999
0.999999
0.999998
0.999998
0.999999
1
1
1
0.999998
0.999998
1
1
1
1
1
1
1
1
1
1
0.999987
0.999998
1
1
0.999999
0.999998
0.999998
0.999999
1
1
0.999999
0.999999
1
1
1
1
1
1
1
1
1
1
0.999999
0.999999
1
0.999999
0.999999
1
1
1
1
1
1
1
1
1
1
1
1
1
0.999999
0.999999
0.999999
0.999999
0.999999
0.999999
1
1
1
1
1
1
1
1
1
1
1
1
1
0.999999
0.999998
0.999998
0.999999
1
1
1
0.999998
0.999998
0.999998
1
1
1
0.999999
0.999999
0.999999
0.999999
0.999999
1
1
0.999999
0.999998
0.999998
1
0.999999
0.999999
0.999999
1
1
0.999999
0.999999
1
1
1
1
1
0.999999
0.999999
1
0.999999
0.999998
0.999998
0.999998
0.999999
0.999999
0.999999
1
1
1
1
1
1
1
1
1
1
1
0.999999
0.999999
1
1
0.999999
0.999999
0.999999
0.999999
0.999999
0.999999
0.999999
0.999999
1
1
1
1
1
1
1
1
1
1
1
1
1
1
1
0.999999
0.999999
0.999998
0.999998
0.999999
1
1
1
0.999998
0.999998
0.999999
0.999999
0.999999
0.999999
1
0.999998
0.999999
1
1
0.999999
0.999999
0.999999
1
1
1
1
0.999999
1
1
1
1
0.999999
0.999999
0.999999
1
1
1
1
1
1
1
1
1
1
1
1
1
0.999999
0.999999
0.999999
0.999999
1
1
1
1
1
1
1
1
1
1
1
1
1
1
1
1
1
1
1
1
1
1
1
1
1
1
0.999999
0.999999
0.999999
0.999999
0.999999
1
1
1
1
1
0.999999
1
1
1
1
1
1
1
1
1
1
1
1
0.999999
1
1
1
1
0.999999
0.999999
1
1
0.999999
0.999999
1
1
1
1
1
1
1
1
1
1
1
1
1
1
1
1
1
1
1
1
1
1
1
1
1
1
1
1
1
1
1
1
1
1
1
0.999999
0.999999
1
0.999999
0.999999
0.999999
0.999999
1
1
1
1
1
1
0.999999
1
1
1
1
1
1
1
1
1
1
1
1
1
1
1
1
1
1
1
1
1
1
1
1
1
0.999999
0.999999
0.999999
0.999999
1
1
1
1
1
1
1
1
1
1
1
1
1
1
1
1
1
1
1
1
1
0.999999
1
1
1
1
1
1
0.999999
0.999999
1
1
1
1
0.999999
0.999999
1
0.999999
0.999998
0.999998
1
1
1
1
1
1
1
1
1
1
1
1
1
1
1
0.999999
0.999998
0.999998
0.999999
1
1
0.999999
0.999999
1
1
1
1
1
1
1
1
1
1
1
1
0.999999
0.999999
1
1
1
0.999999
0.999998
0.999998
0.999998
1
1
1
1
1
1
1
1
1
1
1
1
1
1
1
1
1
1
1
1
0.999999
0.999999
0.999999
1
1
1
1
1
1
1
1
1
1
1
1
1
1
1
1
1
1
1
1
1
1
1
1
0.999999
1
1
1
0.999999
0.999998
0.999999
1
1
1
1
1
1
1
1
1
1
1
1
1
1
1
1
1
1
1
1
1
1
0.999998
0.999998
0.999999
1
1
1
1
1
1
1
1
1
1
1
1
1
1
1
1
1
1
1
1
1
1
1
1
1
1
1
1
1
1
1
1
1
1
1
0.999999
1
1
1
1
1
1
1
1
1
1
1
1
1
1
1
1
1
0.999999
1
1
1
0.999999
1
1
1
1
1
1
1
1
1
1
1
1
1
0.999999
1
1
1
1
1
0.999999
1
1
1
1
1
1
1
1
1
1
1
1
1
0.999999
0.999999
1
1
1
1
1
1
1
1
1
1
1
1
1
1
1
1
1
1
1
1
1
1
1
1
1
1
1
1
1
1
1
1
1
1
1
1
1
1
0.999999
0.999999
0.999999
1
1
0.999999
1
1
1
1
1
1
1
1
1
1
1
1
1
0.999999
0.999999
1
1
1
1
1
1
1
1
1
1
1
1
1
1
1
1
1
1
1
1
1
1
1
1
1
1
1
1
1
1
1
1
1
1
1
1
1
1
1
1
1
1
1
1
1
1
1
1
1
1
1
1
1
1
1
1
1
1
1
1
1
1
1
1
1
1
1
1
1
1
1
1
1
1
1
1
1
1
1
0.999999
1
1
1
1
1
1
1
1
1
1
1
1
1
1
1
1
1
1
1
1
1
1
1
1
1
1
1
1
1
1
1
1
1
1
1
1
1
1
1
1
1
1
1
1
1
1
1
1
1
1
1
1
1
1
1
1
0.999999
0.999999
0.999999
0.999999
1
1
1
1
1
1
1
1
1
1
1
1
1
1
1
1
0.999965
0.999994
1
1
1
1
0.999999
0.999999
0.999999
1
1
1
1
1
1
1
1
1
1
1
1
1
1
1
1
1
1
1
1
1
1
1
1
1
1
1
1
1
1
1
1
1
1
1
1
1
1
1
1
1
1
1
1
1
1
1
1
1
1
1
1
0.999999
0.999999
0.999999
1
1
1
0.999999
1
1
1
1
0.999999
0.999996
1
1
1
1
1
0.999898
0.999716
0.999825
0.999991
1
1
1
1
1
1
1
1
1
1
1
1
1
1
1
1
1
1
1
1
1
1
1
1
1
1
1
1
1
1
1
1
1
1
1
1
1
1
1
1
1
1
1
1
1
1
1
1
1
1
1
1
1
1
1
1
1
1
1
1
1
1
1
0.999999
0.999999
1
0.999999
1
1
0.99983
0.999505
0.999906
1
1
1
0.999985
0.999716
0.999716
0.999716
0.999973
1
1
1
1
1
1
1
1
1
1
1
1
1
1
1
1
1
1
1
1
1
1
1
1
1
1
1
1
1
1
1
1
1
1
0.999999
0.999999
1
1
1
1
1
1
1
1
1
1
1
1
1
1
1
1
1
1
1
1
1
1
1
1
1
0.999999
0.999999
0.999999
1
1
0.999999
1
0.999961
0.9993
0.999221
0.999314
1
1
1
0.999959
0.99972
0.999716
0.999811
1
1
1
1
1
1
1
1
1
1
1
1
1
1
1
1
1
1
1
1
1
1
1
1
1
1
1
1
1
1
1
1
1
1
1
1
1
1
1
1
1
1
1
1
1
1
1
1
1
1
1
1
1
1
1
1
1
1
1
1
1
1
1
0.999999
1
1
1
1
1
0.999888
0.999221
0.999221
0.999221
0.999958
1
1
0.99999
0.999933
0.999863
0.999997
1
1
1
1
1
1
1
1
1
1
1
1
1
1
1
1
1
1
1
1
1
1
1
1
1
1
1
0.999999
0.999999
0.999999
0.999999
1
1
1
1
1
1
1
1
1
1
1
1
1
1
1
1
1
1
1
1
1
1
1
1
1
1
1
1
1
1
1
1
1
1
1
1
1
1
0.999962
0.999721
0.999224
0.999793
1
1
0.999999
0.999998
1
1
1
1
1
1
1
1
1
1
1
1
1
1
1
1
1
1
1
1
1
1
1
1
1
1
1
1
1
1
0.999999
0.999999
0.999999
0.999999
1
1
1
1
1
1
1
1
1
1
1
1
1
1
1
1
1
1
1
1
1
1
1
1
1
1
1
1
1
1
1
1
1
1
1
1
1
1
1
1
1
1
1
0.999999
1
1
1
1
1
1
1
1
1
1
1
1
1
1
1
1
1
1
1
1
1
1
0.999999
0.999998
0.999994
0.999991
0.999989
0.999989
0.999992
0.999996
0.999998
0.999999
0.999999
0.999999
1
1
1
1
1
1
1
1
1
1
1
1
1
1
1
0.999999
0.999998
0.999997
0.999995
0.999995
0.999996
0.999997
0.999999
1
0.999999
1
1
1
1
1
1
1
1
1
1
1
1
1
1
1
1
1
1
1
1
0.999999
1
1
1
1
1
1
1
1
1
1
1
1
1
1
1
1
1
1
1
1
0.992408
0.979177
0.962665
0.946578
0.934628
0.929378
0.931572
0.94225
0.958598
0.977525
0.993424
0.999915
0.999978
0.999989
0.999999
1
1
1
1
1
1
1
1
1
1
1
0.999994
0.999987
0.999981
0.994394
0.978077
0.957274
0.939562
0.928153
0.925353
0.930654
0.943351
0.960412
0.977854
0.991732
1
1
1
1
1
1
1
1
1
1
1
1
1
1
1
1
1
1
1
1
1
1
1
1
1
1
1
1
1
1
1
1
1
0.994548
0.968027
0.93045
0.873229
0.789983
0.679712
0.552288
0.445518
0.366395
0.307107
0.265259
0.239185
0.229158
0.235858
0.25931
0.301712
0.368507
0.467984
0.601452
0.735847
0.871297
0.973116
0.999687
0.99999
0.999988
0.999987
0.999987
0.999986
0.999986
0.999987
0.999987
0.999585
0.99
0.90181
0.764849
0.617964
0.472925
0.367152
0.297269
0.254037
0.230234
0.223365
0.23175
0.255608
0.296479
0.35704
0.44104
0.55024
0.669368
0.779674
0.864991
0.923579
0.961994
0.986686
1
1
1
1
1
1
1
1
1
1
1
1
1
0.498908
0.513211
0.534001
0.553278
0.576274
0.608226
0.637227
0.654976
0.660417
0.645923
0.604521
0.537371
0.450621
0.354475
0.271168
0.194975
0.124858
0.0644542
0.0241951
0.00167875
3.10538e-05
8.78177e-06
4.65591e-06
3.46028e-06
2.10517e-06
9.35172e-07
3.22436e-07
1.8736e-07
1.9322e-07
1.92462e-07
1.40529e-06
6.42289e-05
0.0318112
0.102342
0.230729
0.431141
0.653787
0.835535
0.927338
0.960216
0.96153
0.934334
0.863878
0.709768
0.483649
0.265
0.115334
0.0322873
8.95995e-05
1.27721e-05
5.31433e-06
5.04358e-06
5.04369e-06
5.04395e-06
5.04385e-06
5.04395e-06
5.04544e-06
5.05252e-06
5.50415e-06
2.70646e-05
0.0020477
0.0258772
0.0670864
0.126446
0.194104
0.269364
0.35341
0.442237
0.527367
0.591256
0.632625
0.651889
0.650835
0.63547
0.609727
0.582904
0.562788
0.546317
0.529963
0.519945
0.00483241
0.00673296
0.0106339
0.0147365
0.0186477
0.0239686
0.0295768
0.0334464
0.0340698
0.0291821
0.01846
0.00728355
0.00109685
2.26617e-05
1.36196e-05
7.77046e-06
6.25536e-06
5.88078e-06
5.81255e-06
5.81256e-06
1.55739e-05
8.48703e-06
5.73944e-06
1.68764e-05
5.60853e-05
6.80931e-05
5.85831e-05
3.40504e-05
3.28523e-06
2.09314e-06
2.95575e-06
4.89784e-06
1.01697e-05
1.38039e-05
0.000106762
0.0147395
0.0571069
0.156774
0.280195
0.363187
0.370229
0.306144
0.192031
0.0802511
0.0221264
0.000142656
3.93514e-05
3.10561e-05
1.27722e-05
5.31441e-06
5.04365e-06
5.04366e-06
5.04358e-06
5.04369e-06
5.04395e-06
5.04589e-06
5.05274e-06
5.47872e-06
1.88027e-05
4.55265e-05
2.08321e-05
1.10817e-05
4.73491e-06
6.12492e-06
3.22741e-05
0.000120835
0.00029558
0.00172038
0.00903925
0.0182137
0.0252067
0.0286244
0.0281383
0.0249616
0.0202041
0.0157387
0.0124362
0.0100697
0.00771
0.00681369
0.00025414
0.000161576
0.000140681
0.000195121
0.000243267
0.000172157
0.000181774
0.000185662
0.000184606
0.000190144
0.000196113
0.000119199
2.13026e-05
1.36146e-05
7.78366e-06
6.25537e-06
5.8808e-06
5.81256e-06
5.80788e-06
5.81256e-06
5.80791e-06
5.84749e-06
5.99687e-06
6.19756e-06
0.000155937
0.000228755
0.00023024
0.000232728
0.000238962
0.000241524
0.00020881
2.58097e-05
1.38039e-05
1.61848e-05
2.73105e-05
4.86829e-06
3.61031e-06
2.76553e-06
3.61031e-06
4.1786e-06
6.86538e-06
2.47376e-05
3.12972e-05
2.06152e-05
8.00048e-06
2.48038e-05
7.7322e-05
0.000223867
0.000280385
0.000141133
5.04733e-06
5.04359e-06
5.0438e-06
5.04643e-06
5.0647e-06
5.17155e-06
5.68888e-06
1.24118e-05
8.1955e-05
0.000117266
0.000123101
3.9775e-05
1.58453e-06
2.54138e-06
7.48647e-06
0.000154119
0.00039526
0.000113131
0.000114858
0.000160755
0.00030176
0.000206458
3.99501e-05
3.72055e-05
3.45104e-05
6.15778e-05
0.000159632
8.16749e-05
3.06981e-05
3.72526e-05
0.000313558
0.00014071
0.000126284
0.000198799
0.000276836
0.000172157
0.000171864
0.000173326
0.000178077
0.000184906
0.000219112
0.000222848
0.000163657
0.000110374
2.38085e-05
7.69631e-06
6.18196e-06
5.8808e-06
5.81256e-06
5.81126e-06
5.90509e-06
1.1642e-05
1.60831e-05
7.57468e-06
5.16419e-06
3.85489e-06
9.23759e-05
0.000238962
0.000242773
0.000242773
0.000242773
0.000241657
0.000155464
1.81122e-05
2.10417e-05
1.67087e-05
9.38392e-06
1.95549e-06
1.04669e-05
9.18087e-05
8.34723e-05
7.58306e-05
5.22075e-05
2.35968e-05
2.35196e-06
2.85793e-06
0.00010511
0.000292235
0.000292235
0.000272184
6.33516e-06
5.04738e-06
1.80142e-05
8.05085e-06
5.22031e-06
5.24946e-06
5.36732e-06
9.92097e-06
2.51595e-05
1.62014e-05
1.49415e-06
1.07035e-06
1.32029e-06
3.06938e-06
8.02239e-06
7.16436e-06
8.64229e-06
0.00010991
0.000111408
0.000207021
0.000423179
0.000391672
0.00012465
3.59117e-05
3.20307e-05
0.000217043
0.000233958
9.4051e-05
7.35857e-06
8.42302e-06
0.000285039
0.000206802
0.000120767
0.000126231
0.000298175
0.000526403
0.000525617
0.000324574
0.000186693
0.000301976
0.000526745
0.000525608
0.000527565
0.000528178
0.000386982
4.10825e-05
6.8888e-06
6.18196e-06
5.93617e-06
7.40525e-06
2.97698e-05
3.18667e-05
3.18349e-05
2.40325e-05
5.31818e-06
2.50882e-06
1.69731e-06
1.94129e-05
6.90817e-05
8.52315e-05
0.00015723
0.000232187
0.000214979
0.000143894
2.3482e-05
3.79545e-06
1.86978e-06
1.60319e-06
1.81964e-06
6.93477e-05
5.53038e-05
2.30791e-05
2.38036e-05
1.04256e-05
1.91299e-06
2.06546e-06
2.85877e-06
8.537e-05
0.000292235
0.000248455
1.36801e-05
2.90543e-05
5.65659e-05
4.95021e-05
5.29075e-06
5.48025e-06
1.47903e-05
2.16877e-05
2.25816e-05
1.01389e-05
1.11378e-06
9.93804e-07
1.09442e-06
2.35112e-06
2.76341e-06
4.43657e-06
8.78354e-06
9.41694e-06
8.41508e-06
7.91608e-06
7.7178e-06
4.78476e-05
0.00016427
6.90561e-05
3.20307e-05
0.000140453
0.00010527
7.68999e-05
5.29965e-06
5.10871e-06
0.000139082
0.000119878
0.000112819
0.000128712
0.00053708
0.000536938
0.000535936
0.000533975
0.000531586
0.000530722
0.000527712
0.0005276
0.000528339
0.000528178
0.000528178
0.00028208
1.92906e-05
6.8957e-06
1.39954e-05
3.17591e-05
3.18668e-05
3.18667e-05
3.18667e-05
3.18349e-05
3.04554e-05
3.62642e-06
1.04495e-06
9.51465e-07
7.7523e-07
7.02463e-07
1.32786e-06
2.39756e-05
0.000111293
0.000133788
4.07305e-05
3.7476e-06
1.59902e-06
1.04259e-06
1.46096e-06
6.85156e-05
3.9265e-05
8.14949e-06
3.97614e-06
1.89843e-06
1.87659e-06
1.91299e-06
2.06461e-06
2.7396e-05
0.000123439
9.78807e-05
1.49304e-05
1.87532e-05
3.61405e-05
1.58229e-05
1.07417e-05
2.16134e-05
2.16252e-05
2.16134e-05
6.59538e-06
8.91131e-07
8.92105e-07
9.035e-07
1.04364e-06
1.48414e-06
3.10107e-06
8.13179e-06
2.23166e-05
2.66471e-05
1.55073e-05
8.66293e-06
7.69724e-06
8.90241e-06
5.76381e-05
6.88418e-05
4.34346e-05
1.69851e-05
1.55764e-05
4.20619e-05
5.14704e-06
4.74676e-06
0.000103657
9.84244e-05
0.00010186
0.000199088
0.000542417
0.000538469
0.000536941
0.000413896
0.000184286
0.000277412
0.000460594
0.000490508
0.000528015
0.000528301
0.000528015
0.000498254
3.67062e-05
8.14507e-06
3.10851e-05
3.15506e-05
3.17591e-05
3.18667e-05
3.17998e-05
2.87823e-05
1.39289e-05
1.99581e-06
1.15411e-06
7.7523e-07
7.02463e-07
7.02463e-07
7.02463e-07
8.96512e-07
2.11997e-06
1.36163e-05
2.51894e-05
1.0353e-05
1.03947e-06
5.57556e-07
3.16317e-07
6.02598e-05
5.94711e-05
7.743e-06
1.87994e-06
1.86577e-06
1.86944e-06
1.87659e-06
1.97374e-06
8.71881e-06
4.93836e-05
5.50226e-05
1.437e-05
1.40836e-05
1.42013e-05
1.59219e-05
2.15454e-05
2.16252e-05
2.05542e-05
1.50514e-06
8.91131e-07
8.87799e-07
8.91131e-07
9.26774e-07
5.38573e-06
1.31173e-05
3.40087e-05
0.000202895
0.000317441
0.000406585
0.000347302
0.00016692
8.90241e-06
1.02279e-05
1.43335e-05
4.91251e-05
4.56316e-05
1.96906e-05
1.51523e-05
1.83212e-05
7.46658e-05
4.74676e-06
0.000187506
9.69478e-05
9.34238e-05
0.000342601
0.000543779
0.000542417
0.000465836
0.000182671
0.000182623
0.000182671
0.000183018
0.00018492
0.00051477
0.000528015
0.000525376
0.000315689
3.91603e-05
1.40499e-05
3.11803e-05
3.13347e-05
3.15522e-05
1.76236e-05
1.64313e-07
8.01545e-07
1.38364e-06
3.28896e-06
1.11831e-05
7.23573e-06
2.79236e-06
7.02128e-07
7.83605e-07
8.64244e-07
8.68628e-07
7.854e-07
9.76659e-07
2.7685e-06
1.16871e-06
3.10781e-07
2.23108e-07
3.83717e-05
5.84401e-05
3.19264e-06
1.86577e-06
1.86577e-06
1.86577e-06
1.86944e-06
1.29525e-06
1.28093e-05
5.73516e-05
5.98263e-05
1.63876e-05
1.39097e-05
1.4461e-05
2.12154e-05
2.14871e-05
1.90388e-05
9.41044e-07
9.14164e-07
8.91131e-07
8.91131e-07
8.99603e-07
9.5301e-07
1.08909e-05
4.33821e-05
0.000307184
0.000427713
0.00042927
0.000429731
0.000429883
0.000429731
0.000368207
4.2783e-05
1.83793e-05
2.78932e-05
3.95424e-05
1.51443e-05
1.44585e-05
1.49443e-05
7.46932e-05
4.91623e-06
0.000189249
9.60647e-05
9.06084e-05
0.00030586
0.000543446
0.000544815
0.000392329
0.000182623
0.000182623
0.000182623
0.000183413
0.000184713
0.000268069
0.000525376
0.00052002
0.000164194
2.55261e-05
3.53263e-05
3.06736e-05
2.3432e-05
2.14671e-06
2.94377e-08
1.08899e-07
1.64313e-07
5.50912e-06
4.53004e-05
8.68326e-05
7.55976e-05
1.77832e-05
1.09079e-06
8.64021e-07
8.77762e-07
7.34498e-07
4.30975e-07
3.32742e-07
3.0269e-07
3.027e-07
2.17843e-07
1.85544e-07
3.12452e-06
5.60041e-05
1.89181e-06
1.87894e-06
1.86577e-06
1.86944e-06
3.81826e-06
5.85329e-07
7.37976e-06
1.70501e-05
1.93658e-05
1.98115e-05
1.34967e-05
1.21008e-05
1.55523e-05
9.06015e-06
3.10315e-06
1.31751e-06
1.70859e-06
1.79803e-06
8.99603e-07
9.22813e-07
1.00304e-06
8.76823e-06
5.79634e-05
0.000418594
0.000426456
0.000428164
0.00042927
0.000429731
0.00042995
0.000429206
0.000427759
0.000118281
2.31627e-05
1.69052e-05
1.45499e-05
1.40299e-05
1.40009e-05
7.41906e-05
1.11852e-05
0.000189041
0.000101346
8.89715e-05
0.000128168
0.00054452
0.00054452
0.000543326
0.000183603
0.000182623
0.000183413
0.000184713
0.00018731
0.000323863
0.000517529
0.000517961
0.000166251
1.42612e-05
1.6104e-05
8.59221e-06
9.25097e-08
2.94377e-08
2.37403e-08
2.94377e-08
2.78314e-07
7.83515e-05
8.72701e-05
8.70176e-05
8.69233e-05
5.02815e-05
2.62376e-06
1.11154e-06
2.45605e-06
5.46928e-07
3.01526e-07
2.37311e-07
2.18032e-07
2.00557e-07
1.82533e-07
1.71439e-07
1.85586e-07
1.59281e-05
1.98115e-06
1.89181e-06
3.81458e-06
2.38697e-05
1.19019e-05
4.82801e-07
4.7351e-07
4.46801e-07
3.79185e-07
1.71297e-06
3.55729e-06
2.89666e-06
1.03003e-06
1.11412e-06
1.63925e-06
4.88193e-06
4.65452e-06
3.41694e-06
9.21273e-07
1.00264e-06
1.66247e-06
2.11482e-06
3.39284e-05
0.000111101
0.000424947
0.000426457
0.000428164
0.000428216
0.000429206
0.000427759
0.000426599
0.000424954
8.71875e-05
1.8141e-05
1.4588e-05
1.39948e-05
1.40032e-05
7.13776e-05
1.32643e-05
0.000124506
8.84835e-05
8.83428e-05
8.87215e-05
0.000401837
0.000544207
0.000540672
0.000520819
0.000257156
0.000252077
0.000189192
0.000198363
0.000494648
0.000511178
0.000513159
7.43589e-05
6.98269e-06
6.64019e-06
5.91953e-06
6.9358e-07
2.37403e-08
1.62497e-08
2.37403e-08
6.1743e-05
8.72701e-05
8.73452e-05
8.72701e-05
8.71723e-05
2.69272e-05
8.69483e-07
5.74933e-07
3.39035e-06
1.11304e-06
2.38501e-07
2.18816e-07
2.00607e-07
1.82605e-07
1.71181e-07
1.68061e-07
1.71444e-07
2.5215e-06
1.5589e-05
2.04047e-06
1.00876e-05
2.43438e-05
1.94556e-05
4.7351e-07
4.46801e-07
3.79185e-07
3.2419e-07
1.99202e-07
7.56046e-08
5.63927e-08
2.74816e-07
8.9706e-07
5.47854e-06
5.45745e-06
4.17287e-06
1.5507e-06
2.21309e-06
3.59931e-06
6.36976e-07
8.63302e-07
3.21092e-06
6.28672e-06
0.000433172
0.000425385
0.000428335
0.00035824
0.000310301
0.000426599
0.000424954
0.000423015
0.000336353
3.60261e-05
1.47137e-05
1.40027e-05
1.3917e-05
6.78818e-05
1.82192e-05
8.81377e-05
8.81439e-05
8.81396e-05
8.83083e-05
9.21528e-05
0.000502769
0.000537137
0.000531063
0.000525067
0.000525067
0.000335063
0.000401619
0.000482283
0.000496102
0.000303918
2.33258e-05
3.02954e-06
1.10526e-05
1.37555e-05
3.63221e-06
1.55558e-08
6.56265e-09
5.50949e-07
8.68521e-05
8.73452e-05
8.73452e-05
8.73452e-05
3.25351e-05
8.69483e-07
4.63718e-07
4.11756e-07
1.03e-06
2.75724e-05
3.22826e-07
2.25053e-07
1.8913e-07
1.71238e-07
1.68137e-07
1.68144e-07
1.97671e-07
4.91966e-06
6.85743e-05
2.4243e-06
9.58765e-06
2.43278e-05
1.77814e-05
4.85101e-07
1.15855e-05
0.000119155
0.000144471
1.75496e-05
5.23175e-08
1.86266e-08
1.6993e-07
3.94246e-06
5.55076e-06
5.53289e-06
3.81627e-06
1.56917e-06
4.23459e-06
4.1854e-06
1.37603e-07
3.04684e-07
5.2806e-07
2.70704e-05
0.000440322
0.000429359
0.000341277
7.76425e-05
7.37511e-05
0.00026193
0.000423194
0.000420065
0.000421724
0.000126208
1.54169e-05
1.39228e-05
1.38187e-05
5.33693e-05
4.50462e-05
8.85901e-05
8.81379e-05
8.81394e-05
8.81386e-05
8.93422e-05
0.000381963
0.000527615
0.000525065
0.00052516
0.000525059
0.000523782
0.000506307
0.000474625
0.000485732
4.98374e-05
3.02953e-06
1.12999e-06
1.34903e-05
1.40045e-05
2.44411e-06
5.05729e-09
2.18955e-09
6.56263e-09
7.94832e-05
8.69805e-05
8.73452e-05
6.30437e-05
2.44723e-06
4.63718e-07
4.11756e-07
4.0229e-07
3.92842e-07
1.93052e-05
0.000174086
2.97141e-05
3.14456e-07
1.87178e-07
1.68138e-07
1.68131e-07
2.80617e-07
4.03809e-06
7.69457e-05
3.327e-06
6.03084e-06
1.54443e-05
1.6363e-05
2.08107e-06
6.83098e-05
0.000223644
0.00022386
0.000199237
1.86266e-08
6.45399e-09
4.27055e-08
3.51229e-06
5.54314e-06
5.5461e-06
3.92219e-06
2.40124e-06
4.25612e-06
1.36633e-06
8.11986e-08
1.35371e-07
3.44581e-07
1.72491e-05
0.000141763
0.000426496
0.000209714
7.37511e-05
7.1927e-05
7.18956e-05
0.000370097
0.000422159
0.0004273
0.000160494
1.5214e-05
1.38191e-05
1.37074e-05
1.42801e-05
4.43697e-05
0.000210757
8.81439e-05
8.81384e-05
8.82044e-05
8.85187e-05
0.000152914
0.000511463
0.000521346
0.000524139
0.000523782
0.00051526
0.000492195
0.000469808
0.000231331
2.98909e-05
1.04461e-06
2.48227e-07
1.0769e-05
4.38459e-06
1.12295e-10
5.36453e-10
1.51719e-09
2.18817e-09
6.82152e-05
8.63293e-05
8.69805e-05
1.22924e-05
6.94108e-06
1.37974e-06
7.98915e-07
3.92842e-07
3.92842e-07
3.92842e-07
0.00037313
0.000291614
1.68242e-05
2.4301e-07
1.7167e-07
1.68112e-07
3.74625e-07
9.85782e-06
7.81533e-05
3.85446e-05
7.08478e-06
7.13746e-06
2.50322e-05
6.69621e-06
6.69002e-05
0.000223812
0.000223172
0.000214142
5.21821e-06
2.61848e-09
6.44203e-09
8.63615e-07
3.31648e-06
2.9728e-06
8.48101e-07
4.36479e-06
4.1777e-06
4.42821e-08
4.7973e-08
8.11986e-08
2.61401e-07
1.37278e-06
8.94247e-05
0.000421808
0.000405069
0.000160874
7.18614e-05
7.1927e-05
0.000181319
0.0004274
0.000428488
0.000335968
2.82735e-05
1.37074e-05
1.36526e-05
1.37074e-05
3.80839e-05
0.000345458
0.000203127
8.81666e-05
8.84974e-05
8.8905e-05
8.94177e-05
0.000107474
0.000444384
0.000519747
0.000485556
0.000428392
0.000439597
0.000215692
9.11156e-06
1.40704e-06
2.46996e-07
8.74222e-08
3.44073e-09
1.25372e-10
5.73154e-11
4.02899e-10
5.92676e-10
4.36166e-06
8.53061e-05
8.58014e-05
6.54125e-05
2.67248e-06
1.01564e-05
0.000216029
0.000233082
3.76687e-05
3.92842e-07
1.95983e-05
0.000418649
0.0004327
6.4523e-05
3.49746e-07
1.77745e-07
1.71698e-07
1.21719e-06
6.79346e-05
7.8152e-05
7.70117e-05
7.0447e-06
9.00274e-06
4.16522e-05
3.64517e-05
4.34407e-05
0.000134798
0.000215981
2.91954e-05
2.61655e-09
1.87407e-09
2.65778e-09
4.9151e-09
3.24855e-08
1.71721e-08
2.65084e-07
4.12948e-06
3.43065e-06
4.22637e-08
4.47994e-08
6.88733e-08
2.33103e-07
1.12227e-06
7.03367e-05
0.000407729
0.000397755
0.000394244
7.22982e-05
7.18606e-05
7.23407e-05
0.000428488
0.000428756
0.000428488
6.10372e-05
1.36682e-05
1.36816e-05
1.36487e-05
3.74018e-05
0.000245055
0.000294129
0.000289728
0.000173386
8.94004e-05
9.65344e-05
0.000103402
0.000118597
0.000136917
0.00014397
0.000307532
0.00019755
4.20211e-05
2.75299e-06
5.95135e-07
1.34037e-07
6.38862e-08
1.25821e-10
3.75956e-11
5.3661e-11
6.97586e-10
7.59518e-10
1.83552e-05
8.49071e-05
8.56677e-05
1.41684e-06
1.24906e-06
4.23861e-06
0.000431456
0.000432835
0.000434225
0.000237752
0.000359674
0.00043257
0.000434944
9.69754e-05
4.07573e-07
2.15349e-07
1.95136e-07
1.68638e-06
7.9777e-05
7.8532e-05
4.77343e-05
7.14015e-06
1.55637e-05
0.000119965
6.8256e-05
4.60866e-05
6.31956e-05
3.05117e-05
3.12355e-08
1.87512e-09
1.80939e-09
1.8764e-09
1.81912e-09
8.53171e-10
3.58298e-10
3.10186e-08
2.04563e-06
9.22745e-07
3.63252e-08
4.4239e-08
2.03119e-07
3.55342e-07
9.13892e-07
4.0803e-05
0.000340566
0.000395128
0.000398586
0.00016196
7.21811e-05
0.000103304
0.000428756
0.000428756
0.000428756
5.51476e-05
1.41369e-05
1.44447e-05
1.36449e-05
3.87279e-05
1.42747e-05
0.000128579
0.000266059
0.000270576
0.000186031
0.000274123
0.000290488
0.000290948
0.000290969
0.000289173
0.000211492
7.7962e-05
4.2642e-06
1.39544e-06
9.45659e-07
3.26776e-06
3.95669e-07
4.83494e-11
1.19168e-11
4.81332e-11
5.06319e-10
7.73419e-10
1.5114e-05
8.37327e-05
7.87314e-05
1.11308e-06
1.04538e-06
5.87447e-06
0.000311622
0.000435192
0.000435788
0.000435194
0.000434484
0.000434795
0.000434753
0.000258861
8.0935e-07
4.7181e-07
4.41998e-07
7.04217e-06
8.06475e-05
7.9777e-05
1.11502e-05
7.84124e-06
4.08959e-05
0.000138111
0.000144039
9.16818e-05
6.18657e-05
7.7634e-09
2.89873e-09
1.80939e-09
1.79266e-09
2.01176e-09
1.85629e-09
3.90269e-10
2.42743e-11
4.86583e-08
4.26321e-07
7.63685e-09
6.62101e-09
5.92213e-07
1.74605e-06
1.24373e-06
1.37547e-06
2.45718e-06
5.04401e-05
0.0003987
0.000401725
0.000401714
7.59153e-05
9.17316e-05
0.000312366
0.000428756
0.000427324
4.10611e-05
1.12513e-05
1.44456e-05
1.37112e-05
3.87643e-05
1.3894e-05
3.21899e-08
2.79673e-05
0.000166377
0.000122906
0.000143706
0.000230904
0.000186423
6.80257e-05
6.05014e-05
2.10233e-05
6.45169e-06
7.41756e-06
4.00336e-06
5.78932e-07
3.87176e-06
4.11192e-07
5.05319e-12
9.76903e-12
1.33296e-11
3.26596e-11
1.13723e-09
5.04847e-06
8.29018e-05
5.79262e-05
1.00846e-06
8.53119e-07
1.00846e-06
0.000118546
0.000435772
0.000435772
0.000435772
0.000435645
0.000435382
0.000434802
0.000385813
1.71656e-06
5.67637e-07
2.40409e-06
6.43014e-05
8.06475e-05
8.06475e-05
7.38608e-06
8.67066e-06
4.38972e-05
0.000140007
0.000226957
0.000230839
1.76891e-05
4.2712e-09
2.97199e-09
1.40723e-09
5.40383e-10
4.89686e-10
4.06739e-10
1.50571e-10
2.10342e-11
1.75101e-08
3.2334e-08
4.33445e-09
8.74669e-13
1.26606e-06
2.34593e-06
2.439e-06
2.03985e-06
2.57604e-06
4.68973e-05
0.000401963
0.000410394
0.000419441
0.000258225
0.000109218
0.000291525
0.000428191
0.000426894
0.000116756
9.41303e-06
1.04313e-05
2.11156e-05
3.87587e-05
8.0064e-10
4.98399e-08
1.48726e-06
1.65035e-09
1.2816e-06
3.54834e-06
1.47036e-05
3.99831e-06
4.57196e-06
4.86495e-06
5.04151e-06
6.09787e-06
9.3545e-06
6.71841e-06
1.36906e-07
3.89497e-06
1.09886e-08
4.77226e-12
7.45482e-12
8.73265e-12
8.09267e-11
2.60812e-09
1.28714e-06
4.21337e-05
6.03321e-05
1.94323e-06
5.87392e-07
7.85171e-07
5.13858e-05
0.000401374
0.000435774
0.000435734
0.000435679
0.000435591
0.000435519
0.000190397
9.84765e-07
6.42995e-07
5.90964e-06
8.04403e-05
8.06475e-05
6.99585e-05
5.77299e-06
6.61428e-06
2.64896e-05
3.18504e-05
0.000132743
0.000372137
4.12278e-05
7.64622e-09
8.03454e-09
2.60681e-09
5.92857e-10
2.08532e-12
5.00588e-11
4.90305e-11
1.93834e-11
1.12203e-12
9.21899e-13
8.74615e-13
8.74669e-13
5.08234e-07
2.27121e-06
2.7254e-06
2.61199e-06
2.58668e-06
4.49929e-06
0.000173676
0.000419336
0.000423656
0.000428494
0.000323438
0.000394331
0.000426789
0.000427728
0.000311817
8.98117e-06
8.30971e-06
2.0114e-05
3.87593e-05
7.88692e-10
7.67911e-11
7.64871e-11
7.64871e-11
1.65035e-09
2.54601e-06
9.39895e-06
3.77899e-06
3.99831e-06
6.61747e-06
1.03855e-05
1.3515e-05
9.38683e-06
1.56067e-07
2.36877e-08
1.1809e-06
4.7723e-12
4.457e-12
5.848e-12
6.49949e-12
1.33648e-10
3.76921e-09
2.41772e-07
3.21685e-05
5.98903e-05
4.6057e-06
5.67799e-07
5.03846e-07
8.7807e-07
1.23647e-05
0.000375261
0.000435679
0.000435591
0.000435382
0.000249476
2.09951e-06
1.69465e-06
9.81046e-07
2.70686e-05
7.9219e-05
7.97084e-05
1.11933e-05
5.57197e-06
5.77392e-06
6.6533e-06
1.07169e-05
9.92489e-05
0.000427497
0.000214966
1.06762e-08
2.87786e-08
8.16688e-08
7.07235e-09
2.43908e-10
2.39225e-11
5.10535e-11
6.42203e-11
1.55609e-11
4.53695e-12
1.57172e-12
8.22298e-13
3.98713e-13
2.81305e-07
2.52016e-06
2.60778e-06
2.53044e-06
3.07761e-06
3.50429e-05
0.000409135
0.00042847
0.000428985
0.000429052
0.000429007
0.000427995
0.000427132
0.000425348
2.06908e-05
5.96323e-06
3.46102e-06
8.70096e-06
1.6279e-08
8.05853e-10
7.64834e-11
5.95857e-08
5.73844e-08
1.88764e-08
1.88855e-08
2.04101e-06
1.44018e-05
1.74578e-05
1.74578e-05
1.18415e-05
1.69661e-10
3.76511e-10
5.66053e-09
1.60235e-09
4.93444e-09
4.01853e-12
4.37889e-12
6.77477e-12
5.54971e-11
3.01679e-09
5.97982e-08
1.82447e-05
5.66255e-05
3.12307e-06
5.0292e-07
4.09218e-07
5.03773e-07
1.01551e-06
3.86815e-05
0.000177901
0.000237467
9.84114e-05
1.35835e-05
2.19245e-06
2.09964e-06
1.78748e-06
3.60207e-05
7.86604e-05
7.63421e-05
5.5551e-06
5.57198e-06
5.55162e-06
6.46129e-06
0.000104865
0.000427497
0.000428062
0.000427497
0.000417985
0.00015634
6.81144e-05
9.39347e-08
6.93256e-11
4.28469e-10
2.26309e-10
2.42297e-10
4.41027e-11
1.24938e-11
3.70567e-12
8.79585e-13
3.46706e-13
3.42481e-13
9.59456e-07
2.67506e-06
2.45842e-06
2.24711e-06
3.50314e-06
4.7455e-05
0.000427042
0.000429034
0.000429032
0.000429049
0.000429007
0.000427995
0.000423022
0.000290451
1.06961e-06
2.48215e-07
4.89312e-07
1.5057e-08
1.27775e-09
7.12188e-11
1.54237e-07
1.54428e-07
7.68211e-08
1.88764e-08
1.07855e-05
1.72789e-05
1.74578e-05
8.6565e-06
3.66548e-11
3.58473e-11
4.03152e-10
4.26258e-10
1.50342e-09
5.12192e-09
3.9917e-12
3.42178e-12
8.52997e-12
1.31911e-11
4.6103e-10
1.20449e-08
1.47274e-06
7.97772e-06
1.43594e-05
1.27725e-06
4.09191e-07
4.09161e-07
5.03725e-07
1.01705e-06
5.90774e-06
3.39937e-05
6.77079e-05
9.57888e-06
2.46261e-06
2.19247e-06
2.46254e-06
2.41698e-05
7.86918e-05
7.72939e-05
5.65298e-06
5.57255e-06
5.65357e-06
4.31686e-05
0.00042617
0.000428062
0.000427888
0.000416202
0.000416643
0.000411092
0.000412217
0.000114723
4.47476e-07
4.74782e-09
3.13993e-09
3.4102e-10
5.08364e-11
1.50395e-11
4.61774e-12
1.18406e-12
3.67488e-13
3.32735e-13
1.38995e-07
2.60107e-06
2.46098e-06
1.88371e-06
1.43384e-06
4.52802e-06
0.000201081
0.00042729
0.000429032
0.000429007
0.000428769
0.000427566
0.000435025
0.000274257
2.47726e-07
4.04852e-08
4.29043e-07
3.60797e-13
5.89248e-11
6.21798e-11
6.94774e-08
1.38599e-07
1.52671e-07
3.77904e-08
4.25482e-06
1.31715e-05
4.67283e-06
9.66906e-12
4.67166e-11
6.8517e-10
9.02281e-10
6.64312e-10
1.81655e-09
1.9804e-09
1.15914e-12
2.75952e-12
5.17098e-12
8.94482e-12
-5.30135e-11
-8.64497e-11
1.43113e-09
3.12499e-06
1.05681e-05
4.34812e-07
3.72315e-07
3.49005e-07
6.46403e-07
2.68972e-06
4.33821e-05
7.73281e-05
8.23645e-05
6.87289e-05
4.02455e-05
1.14681e-05
1.02443e-05
7.03692e-05
7.86869e-05
7.77441e-05
5.6818e-06
5.65357e-06
5.79742e-06
9.24657e-05
0.000413013
0.000415244
0.000154001
0.000132394
0.00014214
0.000412949
0.000410863
0.000297245
1.0362e-05
4.47337e-09
5.79565e-09
2.7537e-10
3.23655e-11
1.29897e-11
4.28672e-12
1.23847e-12
6.0401e-13
3.21709e-13
6.77117e-11
1.25773e-06
2.26762e-06
1.80803e-06
7.07078e-07
4.42372e-07
5.44397e-07
0.000148629
0.000426845
0.000428769
0.000427566
0.000426765
0.000154159
3.8748e-05
3.71981e-08
2.4367e-09
4.89903e-07
5.79765e-13
3.56475e-10
1.63393e-09
1.50188e-10
1.57269e-10
1.45705e-07
5.7935e-07
1.78698e-12
6.7476e-14
6.93623e-14
8.76385e-12
3.15717e-10
8.47216e-10
8.55526e-10
2.75101e-10
2.26288e-14
2.50717e-14
1.1041e-12
6.80105e-12
1.45233e-11
1.52801e-11
1.49022e-11
3.16229e-11
9.14135e-11
3.46331e-10
4.58143e-09
1.08828e-06
3.69019e-07
1.42721e-07
4.53195e-07
4.90461e-06
6.39101e-05
8.2562e-05
8.27304e-05
8.23645e-05
8.06603e-05
7.36762e-05
6.35005e-05
7.64816e-05
7.86869e-05
5.53792e-05
4.63601e-06
5.49535e-06
1.19172e-05
0.000313808
0.000402105
9.49157e-05
9.41151e-05
0.000157335
0.000399508
0.000406228
0.000397048
0.000110169
2.14693e-06
1.53645e-09
4.27356e-11
1.28116e-11
1.01566e-11
5.94454e-12
2.02989e-12
8.31911e-13
6.1919e-13
2.91345e-13
3.21314e-13
8.63418e-09
2.0421e-06
2.36612e-06
8.33863e-07
2.40948e-07
2.72648e-09
2.90841e-08
9.04929e-07
7.49397e-05
0.000123287
5.09556e-05
2.09367e-06
4.4005e-08
1.24569e-10
1.6877e-11
4.85173e-11
7.03479e-12
4.64762e-10
1.3691e-10
1.46878e-10
5.48068e-10
2.07444e-08
3.74069e-09
6.56271e-14
6.55424e-14
6.7476e-14
1.07227e-11
1.27827e-10
3.08379e-10
3.01707e-10
4.15502e-11
2.00784e-14
3.75081e-14
9.35283e-13
6.81497e-12
2.10149e-11
3.67574e-11
4.48218e-11
4.84794e-11
5.35858e-11
1.01934e-10
8.38403e-10
2.05896e-08
6.9057e-09
2.94329e-08
1.42646e-07
6.73118e-07
1.65621e-05
7.68432e-05
8.25493e-05
8.27234e-05
8.20638e-05
8.03596e-05
7.70845e-05
6.53637e-05
4.83116e-05
9.58228e-06
4.55858e-06
4.15508e-06
4.7275e-05
0.000308203
0.000294498
7.7512e-05
0.000301984
0.000315927
0.000318905
0.000396788
0.000223846
8.90047e-05
5.9842e-06
1.17419e-09
8.23803e-11
1.0907e-11
2.61656e-12
1.34325e-12
4.76103e-13
2.75898e-13
3.34308e-13
2.4111e-13
2.32888e-13
4.52923e-11
5.22401e-07
2.36612e-06
2.35593e-06
8.00458e-07
1.29834e-09
6.41489e-10
1.88585e-09
6.26346e-08
1.24756e-07
2.1219e-07
1.25013e-07
1.99681e-09
-2.1969e-10
5.46396e-11
4.72035e-11
8.46327e-12