/*--------------------------------*- C++ -*----------------------------------*\
| =========                 |                                                 |
| \\      /  F ield         | OpenFOAM: The Open Source CFD Toolbox           |
|  \\    /   O peration     | Version:  2412                                  |
|   \\  /    A nd           | Website:  www.openfoam.com                      |
|    \\/     M anipulation  |                                                 |
\*---------------------------------------------------------------------------*/
FoamFile
{
    version     2.0;
    format      ascii;
    arch        "LSB;label=32;scalar=64";
    class       surfaceScalarField;
    location    "2.35";
    object      phi;
}
// * * * * * * * * * * * * * * * * * * * * * * * * * * * * * * * * * * * * * //

dimensions      [0 3 -1 0 0 0 0];

oriented        oriented;

internalField   nonuniform List<scalar> 
12640
(
5.99113e-10
-5.01273e-10
8.00805e-10
-1.8002e-09
3.86867e-10
-2.25267e-09
-7.13066e-10
-1.17172e-09
-1.8847e-09
1.11577e-09
-2.16912e-09
3.31711e-09
-1.03347e-09
3.87203e-09
1.13234e-09
1.99265e-09
3.12078e-09
-1.63356e-09
3.62577e-09
-5.05308e-09
2.13565e-09
-6.16715e-09
-6.22967e-10
-4.07835e-09
-3.04078e-09
2.17869e-10
-3.60892e-09
4.33098e-09
-1.89468e-09
5.88667e-09
1.14165e-09
3.98263e-09
3.72396e-09
-2.62233e-10
4.35874e-09
-4.4011e-09
2.74376e-09
-6.15096e-09
-9.43828e-11
-4.71628e-09
-2.48648e-09
-1.15069e-09
-3.15635e-09
2.40657e-09
-1.93468e-09
4.05454e-09
2.57369e-10
3.17499e-09
2.07045e-09
6.05436e-10
2.55649e-09
-2.04015e-09
1.64707e-09
-3.3863e-09
4.74916e-11
-3.00233e-09
-1.29515e-09
-1.45223e-09
-1.76366e-09
2.17491e-10
-1.34157e-09
1.14488e-09
-4.88159e-10
1.06664e-09
2.25034e-10
3.04732e-10
4.53179e-10
-5.61196e-10
2.05463e-10
-1.07252e-09
-2.5812e-10
-1.09636e-09
-6.40617e-10
-7.92192e-10
-7.80662e-10
-4.29117e-10
-6.97125e-10
-2.03022e-10
-5.18051e-10
-1.5748e-10
-3.70051e-10
-2.20396e-10
-3.05448e-10
-2.95476e-10
-2.99343e-10
-3.33328e-10
-2.96941e-10
-3.42677e-10
-2.65486e-10
-3.53363e-10
-2.13893e-10
-3.7342e-10
-1.73253e-10
-3.77883e-10
-1.60296e-10
-3.36052e-10
-1.55789e-10
-2.51267e-10
-1.16858e-10
-1.75272e-10
-1.55191e-11
-1.77489e-10
1.26443e-10
-2.8537e-10
2.38239e-10
-4.41919e-10
2.45499e-10
-5.2366e-10
1.34525e-10
-4.2425e-10
-1.39542e-11
-1.53474e-10
-5.98594e-11
1.26718e-10
9.86812e-11
1.82372e-10
4.26341e-10
-1.24013e-10
7.30961e-10
-6.84012e-10
7.65991e-10
-1.14299e-09
4.10269e-10
-1.09625e-09
-1.9408e-10
-3.90749e-10
-6.68892e-10
6.74688e-10
-6.17728e-10
1.43249e-09
8.01074e-11
1.23311e-09
1.10576e-09
-7.83651e-11
1.82115e-09
-1.92035e-09
1.65107e-09
-3.20265e-09
4.99377e-10
-2.95498e-09
-1.0935e-09
-9.97615e-10
-2.21051e-09
1.80553e-09
-2.10869e-09
3.9354e-09
-7.1102e-10
4.07311e-09
1.3124e-09
1.90867e-09
2.9628e-09
-1.60459e-09
3.57066e-09
-4.74263e-09
3.00107e-09
-5.98491e-09
1.55905e-09
-4.90796e-09
-1.78274e-09
-2.60922e-10
3.01432e-10
7.37469e-10
-1.35806e-09
1.47918e-09
-3.02791e-09
1.06309e-09
-3.28367e-09
-5.99556e-10
-1.67369e-09
-2.45497e-09
1.07896e-09
-3.08552e-09
3.31649e-09
-1.68298e-09
3.37333e-09
1.25756e-09
7.45179e-10
4.09988e-09
-3.36893e-09
5.05385e-09
-6.62848e-09
3.38238e-09
-6.9695e-09
-1.7435e-11
-3.96598e-09
-3.09661e-09
7.79254e-10
-3.93938e-09
4.54654e-09
-1.99552e-09
5.14872e-09
1.55722e-09
2.27381e-09
4.57305e-09
-2.35364e-09
5.29524e-09
-6.06306e-09
3.41947e-09
-6.86433e-09
1.87353e-10
-4.56426e-09
-2.48064e-09
-7.30692e-10
-3.19572e-09
2.38458e-09
-1.86201e-09
3.20496e-09
4.2893e-10
1.63139e-09
2.20126e-09
-1.11925e-09
2.5072e-09
-3.40134e-09
1.38316e-09
-4.12346e-09
-3.49824e-10
-3.23898e-09
-1.70315e-09
-1.55678e-09
-2.11077e-09
-1.15456e-10
-1.64986e-09
4.28322e-10
-8.4418e-10
5.57432e-11
-2.60079e-10
-7.72982e-10
-1.80289e-10
-1.49722e-09
-5.24387e-10
-1.78384e-09
-9.97459e-10
-1.63429e-09
-1.3187e-09
-1.27471e-09
-1.37508e-09
-9.56349e-10
-1.23175e-09
-8.08516e-10
-1.03494e-09
-8.12645e-10
-8.96628e-10
-8.73681e-10
-8.3664e-10
-9.12737e-10
-8.02157e-10
-9.14233e-10
-7.31639e-10
-9.09106e-10
-6.09312e-10
-9.24326e-10
-4.7322e-10
-9.47057e-10
-3.76905e-10
-9.3347e-10
-3.37582e-10
-8.53711e-10
-3.12646e-10
-7.33944e-10
-2.26907e-10
-6.54693e-10
-3.57402e-11
-6.95809e-10
2.21423e-10
-8.62083e-10
4.25331e-10
-1.04973e-09
4.51559e-10
-1.09606e-09
2.74725e-10
-8.98171e-10
2.39631e-11
-5.22765e-10
-7.14137e-11
-2.12776e-10
1.62504e-10
-2.49287e-10
6.83559e-10
-7.35046e-10
1.19547e-09
-1.44823e-09
1.30246e-09
-1.90842e-09
7.89025e-10
-1.66631e-09
-1.579e-10
-6.59931e-10
-9.76254e-10
6.22004e-10
-1.04701e-09
1.34344e-09
-1.35643e-10
8.36772e-10
1.35112e-09
-8.79798e-10
2.51863e-09
-2.95536e-09
2.51793e-09
-4.11645e-09
1.13214e-09
-3.44193e-09
-9.90782e-10
-1.02922e-09
-2.66831e-09
1.92626e-09
-2.88802e-09
3.75992e-09
-1.41894e-09
3.33786e-09
1.11863e-09
7.99298e-10
3.703e-09
-2.48875e-09
5.04712e-09
-4.83544e-09
4.55915e-09
-5.27279e-09
-3.21364e-09
-1.93971e-09
1.01741e-09
-6.93581e-10
-1.29924e-10
1.37386e-09
-2.43547e-09
2.74525e-09
-4.39817e-09
2.13604e-09
-4.74358e-09
-3.06512e-10
-2.94053e-09
-3.12536e-09
2.18349e-10
-4.34509e-09
2.8512e-09
-2.78315e-09
3.10478e-09
1.01114e-09
4.45014e-10
4.937e-09
-3.82106e-09
6.61082e-09
-7.22376e-09
4.9307e-09
-7.65414e-09
8.57368e-10
-4.73443e-09
-3.14275e-09
-1.23958e-10
-4.65759e-09
3.48468e-09
-2.84632e-09
4.02318e-09
1.07661e-09
1.2956e-09
4.68346e-09
-2.97954e-09
5.88865e-09
-6.29941e-09
4.18593e-09
-6.91314e-09
8.03581e-10
-4.77614e-09
-2.2135e-09
-1.39639e-09
-3.31111e-09
1.22225e-09
-2.26472e-09
1.78947e-09
-1.03605e-10
3.51181e-10
1.69652e-09
-1.95937e-09
2.14244e-09
-3.74995e-09
1.19636e-09
-4.19193e-09
-4.02208e-10
-3.35839e-09
-1.72585e-09
-1.98277e-09
-2.2233e-09
-9.01847e-10
-1.93253e-09
-5.75156e-10
-1.30294e-09
-9.36042e-10
-8.28956e-10
-1.57507e-09
-7.58215e-10
-2.06292e-09
-1.02458e-09
-2.1905e-09
-1.38241e-09
-2.01268e-09
-1.60572e-09
-1.72867e-09
-1.61531e-09
-1.51806e-09
-1.47847e-09
-1.4435e-09
-1.31777e-09
-1.45801e-09
-1.21142e-09
-1.48018e-09
-1.15156e-09
-1.46752e-09
-1.07491e-09
-1.43739e-09
-9.30598e-10
-1.43228e-09
-7.30322e-10
-1.46685e-09
-5.43818e-10
-1.50356e-09
-4.42905e-10
-1.47921e-09
-4.35357e-10
-1.36387e-09
-4.41548e-10
-1.20486e-09
-3.41837e-10
-1.11229e-09
-7.21806e-11
-1.18256e-09
2.98652e-10
-1.40733e-09
5.80417e-10
-1.64166e-09
5.79084e-10
-1.67751e-09
2.57421e-10
-1.39654e-09
-1.80723e-10
-9.00864e-10
-3.75404e-10
-5.076e-10
-5.00211e-11
-5.66169e-10
7.41208e-10
-1.19023e-09
1.55198e-09
-2.09e-09
1.77316e-09
-2.66915e-09
1.05231e-09
-2.38515e-09
-3.68616e-10
-1.17143e-09
-1.6787e-09
3.85765e-10
-1.94973e-09
1.30439e-09
-7.73476e-10
8.10668e-10
1.35049e-09
-1.08075e-09
3.19738e-09
-3.42647e-09
3.53265e-09
-4.83316e-09
1.92451e-09
-4.30828e-09
-8.89894e-10
-1.94859e-09
-3.36701e-09
1.02931e-09
-4.03186e-09
2.99268e-09
-2.29804e-09
2.90641e-09
1.23162e-09
9.39411e-10
4.47011e-09
-1.82914e-09
5.40506e-09
-4.03981e-09
-3.66742e-09
-3.18416e-09
9.84452e-10
-2.67683e-09
1.0376e-09
-3.36477e-10
-6.61391e-10
2.57753e-09
-3.54009e-09
4.03698e-09
-6.16043e-09
2.85894e-09
-6.77614e-09
-5.61139e-10
-4.60074e-09
-4.18598e-09
-5.97349e-10
-5.51332e-09
2.90511e-09
-3.27061e-09
3.60971e-09
1.56487e-09
7.89619e-10
6.23021e-09
-4.10648e-09
7.89092e-09
-8.24642e-09
5.49506e-09
-9.15957e-09
4.92e-10
-6.29236e-09
-4.0762e-09
-1.36278e-09
-5.51369e-09
2.72744e-09
-3.13548e-09
3.68648e-09
1.40793e-09
1.17825e-09
5.29299e-09
-3.11113e-09
6.32449e-09
-6.6324e-09
4.18968e-09
-7.54669e-09
4.29567e-10
-5.70473e-09
-2.70582e-09
-2.51145e-09
-3.67295e-09
1.02123e-10
-2.41556e-09
8.53958e-10
-1.38192e-10
-2.83495e-10
1.62098e-09
-2.30762e-09
1.9336e-09
-3.95235e-09
8.77217e-10
-4.44444e-09
-7.3608e-10
-3.81307e-09
-1.99058e-09
-2.67597e-09
-2.40377e-09
-1.74871e-09
-2.07849e-09
-1.42775e-09
-1.48014e-09
-1.6662e-09
-1.06846e-09
-2.13382e-09
-1.03851e-09
-2.48908e-09
-1.29178e-09
-2.57358e-09
-1.58807e-09
-2.43878e-09
-1.73551e-09
-2.24032e-09
-1.69295e-09
-2.1047e-09
-1.54671e-09
-2.05941e-09
-1.41065e-09
-2.05291e-09
-1.33397e-09
-2.02543e-09
-1.27769e-09
-1.9671e-09
-1.16462e-09
-1.92091e-09
-9.5753e-10
-1.93475e-09
-7.03899e-10
-2.00547e-09
-5.10424e-10
-2.06422e-09
-4.60439e-10
-2.02251e-09
-5.32731e-10
-1.85062e-09
-5.89452e-10
-1.62773e-09
-4.60827e-10
-1.51154e-09
-8.33565e-11
-1.62894e-09
4.07438e-10
-1.95486e-09
7.21051e-10
-2.27805e-09
5.99664e-10
-2.31054e-09
4.12264e-11
-1.89858e-09
-6.13616e-10
-1.19499e-09
-8.43171e-10
-6.41674e-10
-3.01478e-10
-7.155e-10
8.57493e-10
-1.56786e-09
1.95203e-09
-2.80735e-09
2.14547e-09
-3.63577e-09
1.03341e-09
-3.32587e-09
-9.47617e-10
-1.77009e-09
-2.64187e-09
2.93604e-10
-2.84467e-09
1.61084e-09
-1.13924e-09
1.17185e-09
1.68082e-09
-1.06486e-09
3.96472e-09
-3.99552e-09
4.19522e-09
-5.94378e-09
2.00204e-09
-5.67072e-09
-1.48114e-09
-3.18209e-09
-4.2048e-09
2.30744e-10
-4.40322e-09
2.76404e-09
-1.71279e-09
3.1501e-09
2.03867e-09
1.24631e-09
4.09593e-09
-1.79411e-09
-3.04878e-09
-2.93781e-09
-1.45277e-10
-3.92293e-09
1.01936e-09
-2.83862e-09
1.05729e-09
2.3327e-10
-1.09098e-09
3.61801e-09
-4.79809e-09
5.12417e-09
-8.03262e-09
3.41816e-09
-8.65124e-09
-7.93352e-10
-5.86685e-09
-4.94331e-09
-1.00531e-09
-6.19897e-09
3.11321e-09
-3.3938e-09
3.87629e-09
2.04923e-09
5.98013e-10
6.92422e-09
-4.93482e-09
8.27828e-09
-9.49983e-09
5.32672e-09
-1.04331e-08
-5.65211e-11
-7.27041e-09
-4.57648e-09
-1.98789e-09
-5.63029e-09
2.28971e-09
-2.87366e-09
3.22137e-09
1.73178e-09
5.82641e-10
5.31315e-09
-3.79254e-09
5.90671e-09
-7.29443e-09
3.5201e-09
-8.1388e-09
-1.36921e-10
-6.2754e-09
-2.90761e-09
-3.15459e-09
-3.5159e-09
-6.59151e-10
-2.14612e-09
2.8751e-11
-5.57722e-11
-1.05082e-09
1.36522e-09
-2.91438e-09
1.41573e-09
-4.3881e-09
3.23034e-10
-4.79752e-09
-1.11013e-09
-4.21088e-09
-2.10355e-09
-3.20485e-09
-2.33088e-09
-2.40786e-09
-1.97479e-09
-2.14155e-09
-1.47365e-09
-2.33865e-09
-1.19327e-09
-2.70554e-09
-1.2376e-09
-2.9633e-09
-1.47103e-09
-3.00235e-09
-1.67823e-09
-2.88515e-09
-1.72561e-09
-2.74211e-09
-1.62394e-09
-2.65874e-09
-1.47813e-09
-2.6308e-09
-1.38339e-09
-2.60019e-09
-1.34919e-09
-2.52662e-09
-1.30096e-09
-2.43247e-09
-1.1516e-09
-2.38565e-09
-8.87071e-10
-2.43485e-09
-5.98982e-10
-2.55028e-09
-4.31221e-10
-2.62369e-09
-4.68282e-10
-2.54148e-09
-6.4385e-10
-2.28646e-09
-7.50677e-10
-1.98891e-09
-5.72485e-10
-1.86732e-09
-6.56771e-11
-2.07348e-09
5.43845e-10
-2.54007e-09
8.55218e-10
-2.95839e-09
5.61382e-10
-2.9469e-09
-2.72012e-10
-2.33552e-09
-1.14004e-09
-1.37259e-09
-1.36032e-09
-6.66235e-10
-5.50956e-10
-8.25874e-10
9.92246e-10
-1.99842e-09
2.33763e-09
-3.62572e-09
2.45302e-09
-4.66719e-09
9.41316e-10
-4.2319e-09
-1.53031e-09
-2.24835e-09
-3.49154e-09
3.12935e-10
-3.55382e-09
1.90617e-09
-1.38566e-09
1.35776e-09
1.91178e-09
-1.30251e-09
4.37127e-09
-4.71277e-09
4.38779e-09
-6.92335e-09
1.82089e-09
-6.58077e-09
-1.7963e-09
-3.79387e-09
-4.18104e-09
-9.48392e-11
-3.82965e-09
2.46632e-09
-1.27842e-09
2.51131e-09
1.15481e-09
3.47464e-10
-1.52442e-09
-8.75384e-10
-1.88057e-09
-3.28278e-09
-5.77454e-10
-4.52134e-09
1.26595e-09
-3.14958e-09
1.18807e-09
6.28402e-10
-1.58161e-09
4.67559e-09
-5.99183e-09
6.27223e-09
-9.65579e-09
4.02943e-09
-1.02082e-08
-9.50561e-10
-6.93008e-09
-5.59672e-09
-1.47026e-09
-6.82327e-09
2.99829e-09
-3.60402e-09
3.71744e-09
2.25798e-09
1.33742e-10
7.2466e-09
-5.69075e-09
8.388e-09
-1.03375e-08
5.13704e-09
-1.11567e-08
-3.60334e-10
-7.86047e-09
-4.73416e-09
-2.58989e-09
-5.54986e-09
1.5212e-09
-2.71679e-09
2.28245e-09
1.68603e-09
-3.53744e-10
4.9051e-09
-4.50356e-09
5.2392e-09
-7.68435e-09
2.89552e-09
-8.32437e-09
-4.31653e-10
-6.51475e-09
-2.80262e-09
-3.67369e-09
-3.20022e-09
-1.50329e-09
-1.93052e-09
-9.82706e-10
-1.645e-10
-1.97913e-09
9.2709e-10
-3.57496e-09
8.41674e-10
-4.76314e-09
-1.35428e-10
-5.02337e-09
-1.29759e-09
-4.47692e-09
-2.03164e-09
-3.63898e-09
-2.13859e-09
-3.01878e-09
-1.82417e-09
-2.83982e-09
-1.45563e-09
-3.00767e-09
-1.29508e-09
-3.27102e-09
-1.37521e-09
-3.42295e-09
-1.5523e-09
-3.40917e-09
-1.65504e-09
-3.30476e-09
-1.61051e-09
-3.21324e-09
-1.47185e-09
-3.17712e-09
-1.34984e-09
-3.1602e-09
-1.31173e-09
-3.10018e-09
-1.32364e-09
-2.98002e-09
-1.27713e-09
-2.85696e-09
-1.08163e-09
-2.82245e-09
-7.55555e-10
-2.91963e-09
-4.42876e-10
-3.0834e-09
-3.26012e-10
-3.16086e-09
-4.81381e-10
-3.01676e-09
-7.80622e-10
-2.65892e-09
-9.32583e-10
-2.28356e-09
-6.74197e-10
-2.17658e-09
1.74224e-13
-2.50598e-09
7.47009e-10
-3.14137e-09
1.03718e-09
-3.65689e-09
5.20939e-10
-3.57371e-09
-6.3842e-10
-2.72254e-09
-1.73743e-09
-1.47417e-09
-1.91915e-09
-6.19552e-10
-7.83454e-10
-8.93115e-10
1.19515e-09
-2.4113e-09
2.80701e-09
-4.42793e-09
2.82668e-09
-5.66616e-09
8.92931e-10
-5.10518e-09
-2.06872e-09
-2.74316e-09
-4.27529e-09
2.21026e-10
-4.18861e-09
2.00739e-09
-1.59868e-09
1.3607e-09
2.0915e-09
-1.5703e-09
4.66508e-09
-5.20314e-09
4.52166e-09
-7.43966e-09
1.77488e-09
-6.96945e-09
-1.81041e-09
-4.11152e-09
-4.07729e-09
-6.0686e-10
-3.86165e-09
1.54355e-09
-2.05355e-09
1.52962e-09
2.9456e-10
2.17485e-09
-3.20585e-09
-6.45211e-10
-3.15044e-09
-4.02573e-09
-7.71129e-10
-5.556e-09
1.30132e-09
-3.53948e-09
1.13852e-09
1.18715e-09
-2.00408e-09
5.8349e-09
-6.95272e-09
7.33741e-09
-1.09935e-08
4.44676e-09
-1.15356e-08
-1.26167e-09
-7.91566e-09
-6.26103e-09
-2.04549e-09
-7.33176e-09
2.65179e-09
-3.68426e-09
3.35661e-09
2.49525e-09
-3.54528e-10
7.4648e-09
-6.24653e-09
8.32996e-09
-1.08458e-08
4.82345e-09
-1.1602e-08
-6.83216e-10
-8.37215e-09
-4.83098e-09
-3.33579e-09
-5.40744e-09
5.01321e-10
-2.55905e-09
1.15672e-09
1.5825e-09
-1.2945e-09
4.4376e-09
-5.03968e-09
4.56772e-09
-7.82712e-09
2.33029e-09
-8.32139e-09
-6.49957e-10
-6.69599e-09
-2.66403e-09
-4.24589e-09
-2.91779e-09
-2.43171e-09
-1.7843e-09
-2.03038e-09
-3.17586e-10
-2.86473e-09
5.15776e-10
-4.13801e-09
3.65366e-10
-5.03578e-09
-4.68155e-10
-5.18029e-09
-1.38504e-09
-4.71399e-09
-1.91528e-09
-4.06409e-09
-1.94946e-09
-3.61444e-09
-1.69047e-09
-3.50244e-09
-1.43355e-09
-3.62382e-09
-1.35603e-09
-3.77984e-09
-1.44208e-09
-3.83473e-09
-1.55286e-09
-3.78137e-09
-1.56067e-09
-3.69893e-09
-1.44468e-09
-3.65963e-09
-1.2908e-09
-3.6636e-09
-1.20892e-09
-3.64669e-09
-1.23436e-09
-3.54787e-09
-1.28791e-09
-3.37836e-09
-1.22876e-09
-3.23288e-09
-9.69909e-10
-3.22429e-09
-5.74003e-10
-3.38304e-09
-2.474e-10
-3.59931e-09
-2.10591e-10
-3.66992e-09
-5.16948e-10
-3.44154e-09
-9.53242e-10
-2.9601e-09
-1.12936e-09
-2.50332e-09
-7.42263e-10
-2.43161e-09
1.46741e-10
-2.9209e-09
1.04282e-09
-3.75709e-09
1.27545e-09
-4.3773e-09
4.73532e-10
-4.20048e-09
-1.05709e-09
-3.07236e-09
-2.37774e-09
-1.50966e-09
-2.45844e-09
-5.01219e-10
-9.24083e-10
-9.0241e-10
1.5174e-09
-2.78164e-09
3.35597e-09
-5.19229e-09
3.20581e-09
-6.62904e-09
8.09489e-10
-5.96509e-09
-2.59932e-09
-3.28414e-09
-4.93925e-09
4.00256e-12
-4.59987e-09
1.93754e-09
-1.5779e-09
1.23583e-09
2.39941e-09
-1.82079e-09
4.93085e-09
-5.4896e-09
4.51086e-09
-7.64049e-09
1.48775e-09
-7.10726e-09
-2.28233e-09
-4.37751e-09
-4.42415e-09
-1.08521e-09
-4.03864e-09
1.20326e-09
1.5217e-09
4.52476e-09
-3.17491e-09
2.7416e-09
-5.29286e-09
-1.24446e-09
-4.33236e-09
-5.28159e-09
-1.52163e-09
-6.44783e-09
1.07822e-09
-3.62352e-09
1.12822e-09
1.88722e-09
-2.28185e-09
6.84553e-09
-7.70655e-09
8.05264e-09
-1.20612e-08
4.5319e-09
-1.25866e-08
-1.67868e-09
-8.72301e-09
-6.74312e-09
-2.61659e-09
-7.49639e-09
2.15389e-09
-3.48802e-09
2.8001e-09
2.76423e-09
-9.49468e-10
7.4572e-09
-6.75119e-09
7.93648e-09
-1.11803e-08
4.26347e-09
-1.18558e-08
-1.04435e-09
-8.77255e-09
-4.77949e-09
-4.07824e-09
-5.05326e-09
-5.75374e-10
-2.2546e-09
-1.05774e-11
1.50532e-09
-2.21613e-09
3.90665e-09
-5.50571e-09
3.81372e-09
-7.89333e-09
1.71662e-09
-8.27198e-09
-8.73625e-10
-6.86123e-09
-2.50906e-09
-4.80174e-09
-2.61757e-09
-3.31151e-09
-1.61951e-09
-2.99177e-09
-4.37967e-10
-3.65159e-09
1.59506e-10
-4.62588e-09
-4.29978e-11
-5.27723e-09
-7.42323e-10
-5.34195e-09
-1.44205e-09
-4.96285e-09
-1.79828e-09
-4.47862e-09
-1.77366e-09
-4.16462e-09
-1.56222e-09
-4.09317e-09
-1.39477e-09
-4.16224e-09
-1.37781e-09
-4.22419e-09
-1.4578e-09
-4.2037e-09
-1.50372e-09
-4.12911e-09
-1.42806e-09
-4.07671e-09
-1.2568e-09
-4.08649e-09
-1.10393e-09
-4.11939e-09
-1.07423e-09
-4.0886e-09
-1.1664e-09
-3.94035e-09
-1.25254e-09
-3.71959e-09
-1.16152e-09
-3.56085e-09
-8.19781e-10
-3.59508e-09
-3.482e-10
-3.83065e-09
-2.41474e-11
-4.10205e-09
-1.00238e-10
-4.15077e-09
-5.86113e-10
-3.81193e-09
-1.16042e-09
-3.18599e-09
-1.3262e-09
-2.64854e-09
-7.57958e-10
-2.6386e-09
3.81556e-10
-3.32653e-09
1.4192e-09
-4.39104e-09
1.54669e-09
-5.11518e-09
4.08087e-10
-4.81839e-09
-1.50417e-09
-3.38282e-09
-3.001e-09
-1.49443e-09
-2.91153e-09
-3.45251e-10
-9.45716e-10
-8.92924e-10
1.91521e-09
-3.1309e-09
3.88211e-09
-5.90366e-09
3.48781e-09
-7.50252e-09
6.6085e-10
-6.73985e-09
-3.04135e-09
-3.81336e-09
-5.31979e-09
-3.2306e-10
-4.62583e-09
1.65598e-09
-1.25767e-09
8.91195e-10
2.75101e-09
-2.18471e-09
4.93265e-09
-5.72688e-09
3.99163e-09
-7.66313e-09
5.88672e-10
-6.95967e-09
-2.80811e-09
-4.05608e-09
-3.98675e-09
-4.57949e-10
1.57728e-09
4.6235e-09
-1.59342e-09
4.89431e-09
-5.64998e-09
2.42094e-09
-7.51885e-09
-2.1391e-09
-6.08712e-09
-6.13259e-09
-2.35424e-09
-6.92679e-09
9.4711e-10
-3.49096e-09
1.14814e-09
2.51003e-09
-2.53042e-09
7.51689e-09
-8.3006e-09
8.34428e-09
-1.28119e-08
4.34903e-09
-1.32739e-08
-2.05427e-09
-9.29106e-09
-6.91351e-09
-3.1851e-09
-7.29005e-09
1.44497e-09
-3.10384e-09
1.96212e-09
2.92473e-09
-1.72596e-09
7.12653e-09
-7.2429e-09
7.21369e-09
-1.13334e-08
3.55647e-09
-1.18708e-08
-1.31831e-09
-8.99171e-09
-4.50301e-09
-4.74976e-09
-4.49469e-09
-1.66948e-09
-1.87587e-09
-1.22372e-09
1.36882e-09
-3.16281e-09
3.2612e-09
-5.96178e-09
2.97893e-09
-7.92613e-09
1.09541e-09
-8.17866e-09
-1.05167e-09
-6.97144e-09
-2.30169e-09
-5.28273e-09
-2.28928e-09
-4.09581e-09
-1.44873e-09
-3.85324e-09
-5.51277e-10
-4.36035e-09
-1.69757e-10
-5.07612e-09
-4.05585e-10
-5.51909e-09
-9.69456e-10
-5.51923e-09
-1.46884e-09
-5.21358e-09
-1.67313e-09
-4.86292e-09
-1.60256e-09
-4.65322e-09
-1.43633e-09
-4.60708e-09
-1.34523e-09
-4.62872e-09
-1.37414e-09
-4.615e-09
-1.43927e-09
-4.54013e-09
-1.42018e-09
-4.45899e-09
-1.26879e-09
-4.44106e-09
-1.05548e-09
-4.4945e-09
-9.18916e-10
-4.5442e-09
-9.53215e-10
-4.4856e-09
-1.1138e-09
-4.27849e-09
-1.22044e-09
-4.00724e-09
-1.07582e-09
-3.84781e-09
-6.32523e-10
-3.94387e-09
-8.42399e-11
-4.27047e-09
2.15351e-10
-4.59561e-09
-7.21662e-12
-4.60331e-09
-6.94433e-10
-4.12751e-09
-1.3971e-09
-3.34092e-09
-1.51227e-09
-2.72989e-09
-7.16926e-10
-2.80944e-09
6.91802e-10
-3.72636e-09
1.84771e-09
-5.03163e-09
1.82403e-09
-5.84793e-09
3.22259e-10
-5.41014e-09
-1.94697e-09
-3.66174e-09
-3.55491e-09
-1.46992e-09
-3.24326e-09
-2.13474e-10
-8.64675e-10
-9.15182e-10
2.31707e-09
-3.46597e-09
4.29599e-09
-6.51423e-09
3.62339e-09
-8.20474e-09
4.75927e-10
-7.35597e-09
-3.3036e-09
-4.30485e-09
-5.33232e-09
-7.94653e-10
-4.27115e-09
1.08527e-09
-7.74683e-10
2.39051e-10
2.90863e-09
-2.72797e-09
4.4459e-09
-5.91219e-09
2.99693e-09
-7.31785e-09
-1.9957e-11
-5.99146e-09
-2.1487e-09
-2.59453e-09
5.36189e-10
2.11502e-09
7.27517e-10
4.34694e-09
-3.89426e-09
4.82686e-09
-8.45583e-09
2.24516e-09
-9.88376e-09
-2.50082e-09
-7.49576e-09
-6.6063e-09
-2.93236e-09
-7.15391e-09
7.91239e-10
-3.28072e-09
1.00948e-09
2.96422e-09
-2.84509e-09
7.81937e-09
-8.73723e-09
8.25069e-09
-1.32167e-08
3.97758e-09
-1.35947e-08
-2.32754e-09
-9.66008e-09
-6.78418e-09
-3.80959e-09
-6.80189e-09
4.89397e-10
-2.64255e-09
8.54383e-10
2.92219e-09
-2.63442e-09
6.51763e-09
-7.66826e-09
6.28093e-09
-1.12803e-08
2.81982e-09
-1.16599e-08
-1.46443e-09
-9.06309e-09
-4.06056e-09
-5.3767e-09
-3.8496e-09
-2.78176e-09
-1.52649e-09
-2.45847e-09
1.13976e-09
-4.10013e-09
2.54572e-09
-6.37977e-09
2.14742e-09
-7.91193e-09
5.37823e-10
-8.04088e-09
-1.15952e-09
-7.03318e-09
-2.06432e-09
-5.69753e-09
-1.97786e-09
-4.79313e-09
-1.31085e-09
-4.62199e-09
-6.7422e-10
-4.9948e-09
-4.67057e-10
-5.48677e-09
-7.06306e-10
-5.7531e-09
-1.13339e-09
-5.70062e-09
-1.45517e-09
-5.45676e-09
-1.5363e-09
-5.21434e-09
-1.43764e-09
-5.08547e-09
-1.31742e-09
-5.05439e-09
-1.29109e-09
-5.03371e-09
-1.35121e-09
-4.95925e-09
-1.39134e-09
-4.84652e-09
-1.3053e-09
-4.77046e-09
-1.08501e-09
-4.79036e-09
-8.43751e-10
-4.88219e-09
-7.40419e-10
-4.93701e-09
-8.51078e-10
-4.8375e-09
-1.08001e-09
-4.56387e-09
-1.19197e-09
-4.24566e-09
-9.7063e-10
-4.10057e-09
-4.09913e-10
-4.27763e-09
2.09928e-10
-4.70658e-09
4.58214e-10
-5.08002e-09
5.71052e-11
-5.02615e-09
-8.44423e-10
-4.39074e-09
-1.65554e-09
-3.43468e-09
-1.67779e-09
-2.76163e-09
-6.21162e-10
-2.95327e-09
1.0549e-09
-4.11385e-09
2.29111e-09
-5.65424e-09
2.0759e-09
-6.54435e-09
2.12168e-10
-5.95919e-09
-2.35586e-09
-3.9249e-09
-3.9954e-09
-1.48425e-09
-3.42914e-09
-1.64695e-10
-7.00592e-10
-1.00684e-09
2.66541e-09
-3.78215e-09
4.5383e-09
-6.98177e-09
3.59107e-09
-8.68447e-09
2.78195e-10
-7.78518e-09
-3.35886e-09
-4.76524e-09
-5.01343e-09
-1.43511e-09
-3.67635e-09
2.19123e-10
-3.29372e-10
-6.70863e-10
2.77883e-09
-3.30496e-09
3.76105e-09
-5.75557e-09
2.4307e-09
-6.20738e-09
3.76512e-10
-4.17512e-09
-9.62303e-10
-1.78771e-09
2.39659e-09
1.18141e-09
-1.06618e-09
4.45441e-09
-6.60042e-09
5.35431e-09
-1.07191e-08
2.4657e-09
-1.14436e-08
-2.72098e-09
-8.44813e-09
-6.91192e-09
-3.46459e-09
-7.17398e-09
4.25255e-10
-2.99049e-09
6.25426e-10
3.25479e-09
-3.2476e-09
7.76897e-09
-9.02564e-09
7.80941e-09
-1.33089e-08
3.45731e-09
-1.36091e-08
-2.49482e-09
-9.88626e-09
-6.40688e-09
-4.50137e-09
-6.11427e-09
-6.60672e-10
-2.16074e-09
-4.29321e-10
2.77147e-09
-3.59062e-09
5.71425e-09
-7.99983e-09
5.23846e-09
-1.10624e-08
2.10429e-09
-1.13027e-08
-1.51447e-09
-9.05295e-09
-3.54449e-09
-5.97217e-09
-3.21151e-09
-3.86724e-09
-1.24594e-09
-3.63994e-09
8.48815e-10
-4.9632e-09
1.83305e-09
-6.73199e-09
1.38644e-09
-7.86276e-09
7.06065e-11
-7.89311e-09
-1.21455e-09
-7.08077e-09
-1.83574e-09
-6.06552e-09
-1.71465e-09
-5.40514e-09
-1.21346e-09
-5.28763e-09
-7.92781e-10
-5.54033e-09
-7.10259e-10
-5.84455e-09
-9.27999e-10
-5.97006e-09
-1.22717e-09
-5.88193e-09
-1.40172e-09
-5.69333e-09
-1.39072e-09
-5.53812e-09
-1.28047e-09
-5.46891e-09
-1.20522e-09
-5.44218e-09
-1.23145e-09
-5.38157e-09
-1.30842e-09
-5.25792e-09
-1.31393e-09
-5.12144e-09
-1.15972e-09
-5.06106e-09
-8.78958e-10
-5.12201e-09
-6.26117e-10
-5.24682e-09
-5.74628e-10
-5.29492e-09
-7.73293e-10
-5.14207e-09
-1.06722e-09
-4.79647e-09
-1.16596e-09
-4.43782e-09
-8.45028e-10
-4.32376e-09
-1.56494e-10
-4.59934e-09
5.22064e-10
-5.13741e-09
6.8874e-10
-5.54972e-09
8.28526e-11
-5.41486e-09
-1.03261e-09
-4.60489e-09
-1.92094e-09
-3.48073e-09
-1.80997e-09
-2.76153e-09
-4.76854e-10
-3.07952e-09
1.43839e-09
-4.47875e-09
2.70206e-09
-6.22858e-09
2.26599e-09
-7.16818e-09
7.5632e-11
-6.44504e-09
-2.69713e-09
-4.18289e-09
-4.27721e-09
-1.57654e-09
-3.44702e-09
-2.46494e-10
-4.73172e-10
-1.19995e-09
2.91185e-09
-4.0851e-09
4.56675e-09
-7.29478e-09
3.3785e-09
-8.93235e-09
6.92419e-11
-8.02977e-09
-3.24272e-09
-5.19341e-09
-4.47421e-09
-2.20208e-09
-2.98594e-09
-8.14348e-10
6.94767e-11
-1.59539e-09
2.70674e-09
-3.58455e-09
3.40769e-09
-5.02272e-09
2.30467e-09
-4.60102e-09
-2.1383e-09
-4.95657e-09
2.3231e-09
-2.89869e-09
1.02177e-09
1.44057e-09
-3.18937e-09
5.37969e-09
-8.23805e-09
5.90701e-09
-1.19869e-08
2.46715e-09
-1.24364e-08
-2.97633e-09
-9.17785e-09
-7.00137e-09
-4.04956e-09
-6.9208e-09
-1.70403e-10
-2.60199e-09
-1.09596e-12
3.37457e-09
-3.74544e-09
7.3768e-09
-9.20091e-09
7.06208e-09
-1.31498e-08
2.83107e-09
-1.338e-08
-2.55276e-09
-9.99651e-09
-5.83019e-09
-5.22606e-09
-5.29726e-09
-1.91822e-09
-1.69905e-09
-1.79205e-09
2.49278e-09
-4.53921e-09
4.78476e-09
-8.25109e-09
4.15565e-09
-1.07473e-08
1.43419e-09
-1.0875e-08
-1.50135e-09
-8.99837e-09
-3.01721e-09
-6.51548e-09
-2.62781e-09
-4.86419e-09
-1.03752e-09
-4.70267e-09
5.33098e-10
-5.71549e-09
1.17221e-09
-7.0211e-09
7.26898e-10
-7.80774e-09
-3.04893e-10
-7.76837e-09
-1.23447e-09
-7.13406e-09
-1.6324e-09
-6.38921e-09
-1.50067e-09
-5.92339e-09
-1.14205e-09
-5.83985e-09
-8.8734e-10
-5.99017e-09
-8.85805e-10
-6.14677e-09
-1.06746e-09
-6.16927e-09
-1.25452e-09
-6.06286e-09
-1.31271e-09
-5.92335e-09
-1.23684e-09
-5.83533e-09
-1.1278e-09
-5.80566e-09
-1.09543e-09
-5.77283e-09
-1.16338e-09
-5.67396e-09
-1.24495e-09
-5.51146e-09
-1.20798e-09
-5.36414e-09
-9.86216e-10
-5.32892e-09
-6.55847e-10
-5.43274e-09
-4.10286e-10
-5.58366e-09
-4.2982e-10
-5.61278e-09
-7.25403e-10
-5.3959e-09
-1.07616e-09
-4.97658e-09
-1.14025e-09
-4.58748e-09
-6.99731e-10
-4.52107e-09
1.18529e-10
-4.90763e-09
8.34609e-10
-5.55401e-09
8.89193e-10
-5.99173e-09
6.39172e-11
-5.76139e-09
-1.24743e-09
-4.77586e-09
-2.17119e-09
-3.50028e-09
-1.89483e-09
-2.75612e-09
-2.96289e-10
-3.20284e-09
1.80116e-09
-4.81035e-09
3.02929e-09
-6.71921e-09
2.36232e-09
-7.67611e-09
-8.08756e-11
-6.83996e-09
-2.93315e-09
-4.43856e-09
-4.36208e-09
-1.77698e-09
-3.28907e-09
-4.98572e-10
-2.11243e-10
-1.52566e-09
3.01482e-09
-4.39261e-09
4.35827e-09
-7.46662e-09
2.98614e-09
-8.96534e-09
-1.5853e-10
-8.09842e-09
-3.00562e-09
-5.55104e-09
-3.78471e-09
-2.95981e-09
-2.17154e-09
-1.75996e-09
6.50989e-10
-2.23415e-09
2.71237e-09
-3.45443e-09
2.85549e-09
-3.99143e-09
-2.52782e-09
-5.63843e-09
4.58191e-10
-5.58687e-09
9.73988e-10
-2.45098e-09
-4.70765e-10
2.39174e-09
-4.20583e-09
5.91895e-09
-9.11898e-09
5.94088e-09
-1.27624e-08
2.205e-09
-1.30268e-08
-3.14452e-09
-9.66755e-09
-6.78811e-09
-4.64127e-09
-6.39161e-09
-9.66258e-10
-2.15645e-09
-8.57888e-10
3.30295e-09
-4.34494e-09
6.67817e-09
-9.29462e-09
6.08246e-09
-1.27925e-08
2.15819e-09
-1.2958e-08
-2.50132e-09
-1.00067e-08
-5.11502e-09
-5.94685e-09
-4.43012e-09
-3.20749e-09
-1.30057e-09
-3.15814e-09
2.10599e-09
-5.44387e-09
3.79426e-09
-8.43879e-09
3.09736e-09
-1.03857e-08
8.35585e-10
-1.04244e-08
-1.44417e-09
-8.91473e-09
-2.51833e-09
-6.98525e-09
-2.12542e-09
-5.73319e-09
-8.98081e-10
-5.61488e-09
2.1912e-10
-6.34786e-09
5.92632e-10
-7.25828e-09
1.84785e-10
-7.76489e-09
-5.87831e-10
-7.6787e-09
-1.22326e-09
-7.19508e-09
-1.45172e-09
-6.66516e-09
-1.32342e-09
-6.34591e-09
-1.07999e-09
-6.28147e-09
-9.45898e-10
-6.35008e-09
-9.9099e-10
-6.39771e-09
-1.12926e-09
-6.35063e-09
-1.22143e-09
-6.23937e-09
-1.19068e-09
-6.14164e-09
-1.07293e-09
-6.10243e-09
-9.76002e-10
-6.095e-09
-9.85405e-10
-6.04777e-09
-1.08645e-09
-5.91308e-09
-1.16227e-09
-5.72152e-09
-1.0767e-09
-5.57472e-09
-7.9053e-10
-5.57176e-09
-4.24864e-10
-5.7176e-09
-2.07869e-10
-5.88617e-09
-3.16365e-10
-5.8851e-09
-7.12254e-10
-5.59766e-09
-1.10515e-09
-5.10813e-09
-1.11129e-09
-4.70083e-09
-5.37614e-10
-4.69455e-09
4.00276e-10
-5.19455e-09
1.12393e-09
-5.93854e-09
1.03952e-09
-6.38675e-09
-2.50617e-12
-6.05831e-09
-1.47069e-09
-4.91753e-09
-2.37927e-09
-3.52581e-09
-1.91864e-09
-2.78024e-09
-9.55444e-11
-3.33913e-09
2.10043e-09
-5.09299e-09
3.22661e-09
-7.08464e-09
2.34288e-09
-8.02239e-09
-2.44911e-10
-7.11775e-09
-3.03359e-09
-4.69565e-09
-4.23269e-09
-2.11081e-09
-2.97008e-09
-9.49487e-10
4.86505e-11
-2.00415e-09
2.94728e-09
-4.72004e-09
3.91793e-09
-7.51823e-09
2.44264e-09
-8.80671e-09
-3.80935e-10
-7.98507e-09
-2.63524e-09
-5.75308e-09
-2.91022e-09
-3.52255e-09
-1.19401e-09
-2.40552e-09
1.03651e-09
-2.53014e-09
2.07644e-09
-2.99969e-09
-2.18105e-09
-3.55221e-09
-2.12519e-09
-5.41697e-09
-1.23776e-09
-4.95729e-09
-2.0044e-10
-1.71891e-09
-1.33152e-09
2.74622e-09
-5.01772e-09
5.88108e-09
-9.74025e-09
5.5885e-09
-1.30625e-08
1.83409e-09
-1.31216e-08
-3.15655e-09
-9.87202e-09
-6.29686e-09
-5.234e-09
-5.65981e-09
-1.95327e-09
-1.71158e-09
-1.91844e-09
3.04545e-09
-5.02268e-09
5.7439e-09
-9.31451e-09
4.96194e-09
-1.22814e-08
1.49061e-09
-1.23988e-08
-2.36089e-09
-9.9451e-09
-4.33693e-09
-6.64233e-09
-3.59032e-09
-4.46706e-09
-9.94124e-10
-4.46049e-09
1.6449e-09
-6.2664e-09
2.81165e-09
-8.56637e-09
2.12281e-09
-1.00089e-08
3.2842e-10
-9.984e-09
-1.36016e-09
-8.81671e-09
-2.0767e-09
-7.37572e-09
-1.71845e-09
-6.45963e-09
-8.17815e-10
-6.36637e-09
-6.90317e-11
-6.85965e-09
1.16301e-10
-7.44821e-09
-2.29389e-10
-7.73715e-09
-7.76621e-10
-7.62232e-09
-1.17918e-09
-7.26035e-09
-1.28528e-09
-6.89368e-09
-1.16892e-09
-6.67955e-09
-1.01428e-09
-6.62356e-09
-9.6251e-10
-6.62981e-09
-1.02806e-09
-6.60108e-09
-1.12018e-09
-6.51086e-09
-1.1343e-09
-6.40389e-09
-1.03914e-09
-6.34045e-09
-9.00178e-10
-6.33448e-09
-8.25914e-10
-6.33548e-09
-8.7685e-10
-6.26815e-09
-1.00321e-09
-6.10103e-09
-1.0639e-09
-5.88959e-09
-9.25948e-10
-5.75263e-09
-5.82987e-10
-5.78602e-09
-2.01125e-10
-5.97028e-09
-3.52659e-11
-6.14743e-09
-2.45554e-10
-6.108e-09
-7.35206e-10
-5.74943e-09
-1.14732e-09
-5.19848e-09
-1.07328e-09
-4.78497e-09
-3.65404e-10
-4.8432e-09
6.64844e-10
-5.44641e-09
1.35713e-09
-6.26834e-09
1.1157e-09
-6.71538e-09
-1.15867e-10
-6.30359e-09
-1.67664e-09
-5.05128e-09
-2.51196e-09
-3.59371e-09
-1.866e-09
-2.8655e-09
1.08509e-10
-3.49615e-09
2.29543e-09
-5.30535e-09
3.25518e-09
-7.28748e-09
2.19374e-09
-8.17616e-09
-4.04601e-10
-7.26988e-09
-2.98314e-09
-4.96585e-09
-3.8962e-09
-2.59316e-09
-2.52395e-09
-1.60234e-09
2.70718e-10
-2.62703e-09
2.7068e-09
-5.063e-09
3.29297e-09
-7.4611e-09
1.82936e-09
-8.4708e-09
-5.1817e-10
-7.66931e-09
-2.10099e-09
-5.71845e-09
-1.9686e-09
-3.78362e-09
-5.79802e-10
-2.69296e-09
6.57161e-10
-2.33002e-09
-1.52131e-09
-2.96432e-11
-3.9036e-09
-2.67459e-09
-4.22254e-09
-4.7622e-09
-2.46411e-09
-4.51542e-09
-1.41939e-09
-1.46424e-09
-2.51133e-09
2.75466e-09
-5.80582e-09
5.51274e-09
-9.94575e-09
4.97316e-09
-1.27908e-08
1.38679e-09
-1.27509e-08
-3.04387e-09
-9.86743e-09
-5.59875e-09
-5.86641e-09
-4.80098e-09
-3.10213e-09
-1.30445e-09
-3.1128e-09
2.62919e-09
-5.72323e-09
4.65142e-09
-9.2605e-09
3.78034e-09
-1.16708e-08
8.60954e-10
-1.17726e-08
-2.16212e-09
-9.85017e-09
-3.56244e-09
-7.29527e-09
-2.83124e-09
-5.63678e-09
-7.84885e-10
-5.63255e-09
1.15156e-09
-6.96771e-09
1.89522e-09
-8.63351e-09
1.27159e-09
-9.64263e-09
-8.09619e-11
-9.58291e-09
-1.26486e-09
-8.72151e-09
-1.7064e-09
-7.69034e-09
-1.40352e-09
-7.04086e-09
-7.76896e-10
-6.95588e-09
-3.08247e-10
-7.25223e-09
-2.42932e-10
-7.59137e-09
-5.13693e-10
-7.72105e-09
-8.74334e-10
-7.5931e-09
-1.10132e-09
-7.32595e-09
-1.12461e-09
-7.07732e-09
-1.02473e-09
-6.93348e-09