/*--------------------------------*- C++ -*----------------------------------*\
| =========                 |                                                 |
| \\      /  F ield         | OpenFOAM: The Open Source CFD Toolbox           |
|  \\    /   O peration     | Version:  2412                                  |
|   \\  /    A nd           | Website:  www.openfoam.com                      |
|    \\/     M anipulation  |                                                 |
\*---------------------------------------------------------------------------*/
FoamFile
{
    version     2.0;
    format      ascii;
    arch        "LSB;label=32;scalar=64";
    class       volScalarField;
    location    "5.35";
    object      p;
}
// * * * * * * * * * * * * * * * * * * * * * * * * * * * * * * * * * * * * * //

dimensions      [1 -1 -2 0 0 0 0];

internalField   nonuniform List<scalar> 
6400
(
7024.19
7025.1
7026.75
7029.17
7032.33
7036.19
7040.71
7045.82
7051.47
7057.58
7064.07
7070.85
7077.84
7084.94
7092.06
7099.12
7106.03
7112.71
7119.07
7125.06
7130.62
7135.71
7140.29
7144.34
7147.85
7150.83
7153.3
7155.29
7156.82
7157.96
7158.74
7159.24
7159.5
7159.59
7159.55
7159.44
7159.31
7159.18
7159.09
7159.05
7159.08
7159.16
7159.3
7159.46
7159.63
7159.77
7159.82
7159.75
7159.48
7158.98
7158.18
7157.02
7155.45
7153.43
7150.92
7147.89
7144.34
7140.25
7135.65
7130.56
7125.01
7119.05
7112.74
7106.16
7099.37
7092.46
7085.51
7078.61
7071.85
7065.31
7059.08
7053.24
7047.85
7042.98
7038.69
7035.03
7032.04
7029.75
7028.19
7027.35
6660.34
6661.34
6662.99
6665.44
6668.64
6672.55
6677.13
6682.31
6688.03
6694.22
6700.79
6707.66
6714.75
6721.94
6729.16
6736.31
6743.3
6750.05
6756.48
6762.53
6768.14
6773.27
6777.87
6781.92
6785.43
6788.4
6790.84
6792.78
6794.27
6795.35
6796.07
6796.51
6796.7
6796.73
6796.64
6796.49
6796.31
6796.15
6796.04
6795.99
6796.01
6796.11
6796.27
6796.47
6796.68
6796.86
6796.98
6796.96
6796.77
6796.33
6795.58
6794.47
6792.95
6790.97
6788.48
6785.47
6781.92
6777.82
6773.19
6768.06
6762.46
6756.44
6750.06
6743.4
6736.52
6729.53
6722.49
6715.5
6708.65
6702.03
6695.72
6689.8
6684.34
6679.42
6675.08
6671.37
6668.35
6666.04
6664.47
6663.56
6295.7
6296.73
6298.43
6300.94
6304.23
6308.24
6312.93
6318.25
6324.13
6330.48
6337.23
6344.28
6351.55
6358.93
6366.32
6373.65
6380.8
6387.71
6394.27
6400.44
6406.14
6411.33
6415.98
6420.05
6423.55
6426.48
6428.86
6430.73
6432.12
6433.09
6433.7
6434.01
6434.09
6433.99
6433.79
6433.54
6433.28
6433.06
6432.9
6432.83
6432.86
6432.98
6433.18
6433.45
6433.74
6434.03
6434.25
6434.36
6434.29
6433.97
6433.34
6432.35
6430.91
6429
6426.57
6423.58
6420.03
6415.91
6411.23
6406.02
6400.32
6394.17
6387.66
6380.84
6373.8
6366.63
6359.42
6352.25
6345.23
6338.44
6331.97
6325.9
6320.31
6315.26
6310.82
6307.03
6303.93
6301.56
6299.96
6299.03
5930.2
5931.3
5933.06
5935.67
5939.08
5943.24
5948.11
5953.64
5959.74
5966.34
5973.35
5980.68
5988.22
5995.88
6003.56
6011.15
6018.55
6025.69
6032.46
6038.8
6044.65
6049.94
6054.65
6058.75
6062.23
6065.11
6067.4
6069.15
6070.39
6071.19
6071.62
6071.74
6071.63
6071.36
6071
6070.6
6070.22
6069.9
6069.68
6069.58
6069.6
6069.76
6070.03
6070.39
6070.82
6071.25
6071.64
6071.93
6072.05
6071.92
6071.48
6070.65
6069.33
6067.54
6065.2
6062.26
6058.71
6054.55
6049.79
6044.46
6038.61
6032.28
6025.55
6018.5
6011.21
6003.78
5996.3
5988.86
5981.57
5974.53
5967.81
5961.52
5955.73
5950.5
5945.9
5941.98
5938.77
5936.32
5934.65
5933.65
5563.8
5564.98
5566.83
5569.57
5573.15
5577.52
5582.64
5588.44
5594.85
5601.78
5609.15
5616.85
5624.78
5632.82
5640.88
5648.83
5656.58
5664.02
5671.07
5677.65
5683.69
5689.12
5693.92
5698.05
5701.51
5704.31
5706.48
5708.06
5709.1
5709.67
5709.85
5709.71
5709.34
5708.82
5708.23
5707.63
5707.09
5706.64
5706.33
5706.18
5706.21
5706.42
5706.78
5707.28
5707.87
5708.51
5709.14
5709.68
5710.05
5710.18
5709.99
5709.38
5708.28
5706.65
5704.41
5701.54
5697.99
5693.79
5688.92
5683.43
5677.37
5670.79
5663.76
5656.39
5648.76
5640.97
5633.12
5625.33
5617.67
5610.28
5603.24
5596.64
5590.57
5585.1
5580.29
5576.18
5572.83
5570.27
5568.54
5567.42
5196.54
5197.68
5199.68
5202.6
5206.4
5211.04
5216.46
5222.62
5229.43
5236.8
5244.63
5252.8
5261.22
5269.75
5278.29
5286.71
5294.89
5302.74
5310.16
5317.04
5323.32
5328.94
5333.84
5338.01
5341.44
5344.14
5346.14
5347.49
5348.26
5348.53
5348.38
5347.9
5347.2
5346.35
5345.47
5344.61
5343.85
5343.23
5342.81
5342.6
5342.64
5342.9
5343.38
5344.06
5344.88
5345.78
5346.71
5347.58
5348.29
5348.77
5348.9
5348.6
5347.77
5346.35
5344.26
5341.47
5337.94
5333.67
5328.67
5322.97
5316.63
5309.72
5302.33
5294.54
5286.46
5278.2
5269.89
5261.63
5253.51
5245.67
5238.21
5231.22
5224.8
5219.02
5213.95
5209.62
5206.08
5203.35
5201.48
5200.39
4828.44
4829.47
4831.6
4834.72
4838.78
4843.74
4849.55
4856.14
4863.45
4871.35
4879.75
4888.51
4897.53
4906.68
4915.81
4924.81
4933.54
4941.9
4949.76
4957.02
4963.61
4969.45
4974.49
4978.7
4982.08
4984.64
4986.43
4987.49
4987.92
4987.79
4987.22
4986.32
4985.19
4983.95
4982.68
4981.49
4980.44
4979.62
4979.05
4978.78
4978.81
4979.15
4979.79
4980.68
4981.78
4983.03
4984.34
4985.62
4986.77
4987.68
4988.23
4988.32
4987.84
4986.69
4984.8
4982.12
4978.61
4974.27
4969.1
4963.14
4956.47
4949.15
4941.28
4932.97
4924.33
4915.5
4906.6
4897.74
4889.06
4880.68
4872.7
4865.24
4858.39
4852.23
4846.83
4842.23
4838.46
4835.55
4833.53
4832.39
4459
4460.13
4462.46
4465.83
4470.21
4475.55
4481.82
4488.95
4496.85
4505.41
4514.49
4523.97
4533.72
4543.6
4553.47
4563.17
4572.57
4581.54
4589.94
4597.67
4604.63
4610.74
4615.95
4620.21
4623.52
4625.91
4627.42
4628.12
4628.1
4627.48
4626.39
4624.94
4623.28
4621.52
4619.79
4618.19
4616.81
4615.72
4614.98
4614.62
4614.66
4615.1
4615.91
4617.07
4618.52
4620.19
4621.98
4623.78
4625.48
4626.94
4628.02
4628.6
4628.55
4627.76
4626.13
4623.59
4620.11
4615.68
4610.3
4604.03
4596.94
4589.11
4580.66
4571.72
4562.4
4552.87
4543.24
4533.67
4524.32
4515.28
4506.68
4498.64
4491.27
4484.65
4478.87
4473.94
4469.91
4466.79
4464.65
4463.65
4088.3
4089.58
4092.12
4095.81
4100.56
4106.36
4113.2
4120.98
4129.6
4138.93
4148.83
4159.15
4169.77
4180.52
4191.27
4201.82
4212.02
4221.73
4230.79
4239.08
4246.49
4252.92
4258.32
4262.63
4265.86
4268.03
4269.19
4269.43
4268.86
4267.63
4265.88
4263.76
4261.43
4259.05
4256.75
4254.66
4252.86
4251.46
4250.51
4250.04
4250.08
4250.63
4251.67
4253.15
4255.03
4257.21
4259.58
4262.03
4264.4
4266.54
4268.29
4269.49
4269.98
4269.64
4268.33
4265.98
4262.55
4258.01
4252.38
4245.73
4238.13
4229.69
4220.54
4210.83
4200.7
4190.31
4179.84
4169.43
4159.25
4149.43
4140.1
4131.38
4123.37
4116.21
4109.96
4104.66
4100.32
4096.93
4094.58
4093.39
3716.23
3717.81
3720.66
3724.61
3729.68
3735.98
3743.54
3752.13
3761.62
3771.87
3782.74
3794.04
3805.68
3817.47
3829.26
3840.81
3851.97
3862.55
3872.39
3881.35
3889.29
3896.11
3901.74
3906.11
3909.23
3911.11
3911.83
3911.5
3910.25
3908.26
3905.69
3902.75
3899.61
3896.46
3893.47
3890.77
3888.49
3886.71
3885.5
3884.91
3884.95
3885.63
3886.93
3888.81
3891.2
3894
3897.09
3900.32
3903.52
3906.51
3909.08
3911.05
3912.22
3912.43
3911.54
3909.43
3906.06
3901.39
3895.47
3888.35
3880.14
3870.96
3860.97
3850.34
3839.24
3827.85
3816.36
3804.96
3793.82
3783.08
3772.89
3763.37
3754.59
3746.77
3739.91
3734.19
3729.63
3726.04
3723.38
3721.85
3342.88
3344.81
3347.67
3351.31
3356.63
3363.73
3372.58
3382.31
3392.83
3404.13
3416.18
3428.6
3441.43
3454.43
3467.4
3480.19
3492.47
3504.09
3514.86
3524.61
3533.19
3540.47
3546.36
3550.79
3553.76
3555.3
3555.47
3554.43
3552.34
3549.39
3545.82
3541.86
3537.74
3533.67
3529.84
3526.42
3523.54
3521.31
3519.81
3519.07
3519.12
3519.96
3521.57
3523.91
3526.91
3530.45
3534.4
3538.59
3542.81
3546.83
3550.43
3553.35
3555.37
3556.28
3555.9
3554.1
3550.8
3545.99
3539.71
3532.03
3523.09
3513.03
3502.04
3490.31
3478.05
3465.47
3452.79
3440.23
3427.97
3416.17
3405.01
3394.58
3385
3376.09
3368.05
3361.5
3356.79
3353.66
3351.08
3349.12
2969.14
2970.18
2971.13
2973.29
2979.29
2988.67
2999.68
3011.22
3023.1
3035.66
3048.94
3062.76
3077
3091.43
3105.82
3119.94
3133.59
3146.45
3158.32
3169.01
3178.33
3186.16
3192.36
3196.87
3199.65
3200.75
3200.25
3198.32
3195.18
3191.06
3186.26
3181.05
3175.73
3170.53
3165.69
3161.41
3157.84
3155.09
3153.24
3152.33
3152.38
3153.41
3155.38
3158.26
3161.98
3166.42
3171.41
3176.76
3182.22
3187.52
3192.38
3196.49
3199.56
3201.34
3201.61
3200.18
3196.98
3192
3185.28
3176.93
3167.11
3156
3143.82
3130.8
3117.17
3103.19
3089.12
3075.21
3061.66
3048.65
3036.33
3024.8
3013.98
3003.39
2992.99
2984.34
2979.13
2977.75
2977.38
2976.76
2594.4
2593.8
2591.12
2591.37
2598.05
2610.47
2624.83
2638.85
2652.32
2666.38
2681.06
2696.49
2712.34
2728.43
2744.5
2760.26
2775.45
2789.76
2802.92
2814.71
2824.92
2833.39
2839.96
2844.55
2847.11
2847.67
2846.33
2843.3
2838.85
2833.28
2826.96
2820.23
2813.44
2806.89
2800.85
2795.54
2791.15
2787.79
2785.53
2784.42
2784.48
2785.71
2788.11
2791.63
2796.2
2801.7
2807.94
2814.7
2821.67
2828.55
2834.96
2840.55
2844.94
2847.81
2848.88
2847.92
2844.84
2839.64
2832.38
2823.22
2812.35
2799.99
2786.4
2771.85
2756.58
2740.98
2725.3
2709.82
2694.79
2680.41
2666.77
2653.91
2641.74
2629.03
2615.21
2603.3
2597.67
2598.45
2601.94
2602.96
2218.48
2216.65
2212.17
2211.78
2218.59
2233.33
2249.8
2265.88
2280.34
2296.24
2312.64
2329.74
2347.41
2365.41
2383.43
2401.12
2418.13
2434.13
2448.81
2461.89
2473.14
2482.38
2489.42
2494.12
2496.41
2496.3
2493.92
2489.52
2483.43
2476.06
2467.86
2459.27
2450.7
2442.52
2435.03
2428.52
2423.17
2419.09
2416.37
2415.02
2415.08
2416.54
2419.42
2423.68
2429.25
2436.01
2443.75
2452.22
2461.05
2469.86
2478.21
2485.64
2491.69
2495.93
2498
2497.62
2494.68
2489.18
2481.26
2471.11
2458.98
2445.15
2429.88
2413.49
2396.36
2378.82
2361.24
2343.94
2327.23
2311.31
2296.2
2281.74
2268.82
2255.17
2238.81
2224.09
2219.06
2220.56
2225.98
2228.34
1841.32
1839.33
1835.95
1836.84
1844.39
1858.1
1874.66
1891.46
1907.99
1925.19
1943.31
1962.31
1982.06
2002.27
2022.57
2042.54
2061.71
2079.62
2096.12
2110.69
2123.16
2133.33
2140.95
2145.83
2147.83
2146.95
2143.3
2137.15
2129.03
2119.42
2108.91
2098.03
2087.3
2077.14
2067.92
2059.99
2053.52
2048.62
2045.36
2043.73
2043.78
2045.51
2048.93
2054.03
2060.75
2068.99
2078.53
2089.07
2100.17
2111.37
2122.13
2131.88
2140.02
2146.02
2149.33
2149.65
2146.84
2140.94
2132.16
2120.79
2107.16
2091.57
2074.33
2055.84
2036.46
2016.63
1996.8
1977.4
1958.78
1941.2
1924.59
1909.22
1894.63
1879.81
1864.54
1851.84
1845.74
1846.08
1850.47
1852.89
1462.46
1460.96
1459.43
1461.85
1470.11
1482.89
1498.91
1515.94
1533.99
1552.81
1572.73
1593.89
1616
1638.79
1661.8
1684.48
1706.27
1726.65
1745.07
1761.25
1775.11
1786.41
1794.82
1800.01
1801.74
1799.97
1794.8
1786.4
1775.75
1763.36
1749.98
1736.31
1722.96
1710.42
1699.15
1689.58
1681.86
1676.06
1672.2
1670.28
1670.31
1672.32
1676.31
1682.32
1690.33
1700.25
1711.9
1724.96
1738.83
1752.95
1766.7
1779.38
1790.18
1798.46
1803.33
1804.48
1801.74
1795.25
1785.32
1772.43
1757
1739.42
1719.88
1698.85
1676.79
1654.23
1631.75
1609.89
1589.09
1569.63
1551.64
1534.96
1519.33
1504.47
1490.48
1479.55
1473.02
1472.14
1474.7
1476.23
1080.3
1079.22
1079.61
1083.29
1091.45
1104.28
1120.56
1138.72
1157.66
1178.1
1200.16
1223.77
1248.71
1274.6
1300.89
1326.88
1351.75
1374.8
1395.46
1413.5
1428.98
1441.68
1451.17
1456.91
1458.49
1455.75
1448.89
1437.45
1423.76
1407.85
1390.88
1373.76
1357.21
1341.84
1328.22
1316.8
1307.72
1300.98
1296.52
1294.27
1294.24
1296.51
1301.1
1308.06
1317.48
1329.33
1343.37
1359.41
1376.62
1394.35
1411.87
1428.3
1442.51
1453.72
1460.5
1462.63
1459.82
1452.38
1440.88
1426.03
1408.45
1388.54
1366.47
1342.51
1317.25
1291.38
1265.68
1240.87
1217.51
1195.96
1176.3
1158.42
1142.05
1126.71
1113.02
1102.57
1097.06
1095.82
1096.69
1096.64
695.133
694.933
697.003
701.971
709.185
721.668
738.341
756.987
777.19
799.539
824.195
850.864
879.308
909.186
939.782
970.11
998.994
1025.37
1048.46
1068.36
1085.56
1099.92
1110.8
1117.37
1118.89
1114.96
1105.6
1091.17
1073.02
1052.4
1030.93
1009.71
989.325
970.482
954.104
940.232
929.369
921.449
916.278
913.655
913.565
916.105
921.33
929.421
940.603
955.021
972.533
991.818
1012.94
1034.95
1057.1
1078.48
1097.45
1112.33
1121.71
1125.14
1122.03
1113.18
1099.57
1082.31
1062.32
1040
1014.95
987.358
957.996
927.818
897.902
869.262
842.695
818.699
797.2
777.982
760.881
745.389
731.636
721.486
718.072
716.935
716.591
719.042
305.714
306.426
307.865
310.647
319.946
336.609
353.63
371.518
392.03
416.611
444.853
474.971
507.518
542.671
579.302
615.788
650.137
680.587
706.168
727.026
746.101
762.658
775.519
783.271
784.755
779.312
766.801
747.868
723.859
696.695
669.14
642.62
617.128
593.817
573.407
556.249
543.667
535.079
529.932
527.573
527.596
529.982
535.096
543.636
556.25
573.462
595.456
619.126
645.76
673.444
701.844
730.248
755.925
776.086
788.611
794.246
790.316
779.37
762.783
742.284
719.393
695.121
666.874
635.028
600.462
564.357
528.381
494.262
463.266
436.352
412.816
392.29
375.199
360.884
347.584
334.964
329.303
329.442
330.967
332.063
50.5898
52.6513
53.9558
54.8903
56.7613
61.7922
70.1589
80.3572
91.6648
104.731
121.784
143.551
168.529
198.305
232.408
269.968
307.974
342.739
370.395
389.882
410.838
430.506
446.248
455.505
456.547
448.52
431.106
405.17
372.626
337.916
304.475
274.163
246.689
223.693
205.699
192.168
184.351
179.526
177.125
176.3
176.528
177.596
179.944
184.849
193.087
205.807
224.611
247.372
275.454
306.642
341.526
379.669
415.728
444.217
462.324
469.589
465.459
451.926
431.238
406.418
380.914
356.471
325.379
290.639
254.338
218.521
185.382
156.485
132.414
113.562
100.99
90.6201
81.6162
73.7276
67.1904
63.2225
62.6111
63.7046
63.9984
63.0766
-8.40525
-8.52143
-8.66098
-8.75407
-8.79495
-8.78114
-8.70177
-8.58416
-8.4137
-8.18162
-7.09944
-2.13008
4.73208
14.6431
28.5583
46.8887
67.7193
87.5995
104.472
118.766
132.054
145.159
156.817
164.279
165.296
158.41
143.308
121.56
96.1585
71.941
52.5615
38.0129
26.3119
17.8448
14.1782
10.9495
8.81334
7.56236
7.04282
6.82102
6.74349
6.89221
7.32791
8.55067
10.7422
14.2038
18.6488
26.2346
37.9672
52.4261
71.9367
99.6692
130.246
155.945
172.98
178.875
174.626
162.873
146.715
129.01
111.592
93.7795
75.6647
56.8003
38.3798
22.2374
9.79649
1.10114
-4.93391
-8.92708
-9.28925
-8.95106
-8.79768
-8.65473
-8.51266
-8.38179
-8.30205
-8.26971
-8.24692
-8.18041
-9.16545
-9.26824
-9.41379
-9.48678
-9.42134
-9.2989
-9.19126
-9.08144
-8.94771
-8.84982
-8.84728
-9.02838
-9.0879
-9.0935
-9.06503
-8.983
-8.79747
-8.44604
-7.1288
-4.8183
-2.36733
0.918415
4.78844
7.8004
8.56121
6.65279
2.23413
-3.16509
-7.70832
-10.5016
-11.3375
-10.9448
-10.307
-9.93544
-9.752
-9.75598
-9.88995
-9.85816
-9.75377
-9.60423
-9.46789
-9.49557
-9.615
-9.75404
-9.84353
-9.79163
-9.77582
-9.87775
-9.9386
-9.91308
-9.14001
-6.21577
-0.186875
7.0923
12.7863
14.4492
12.003
6.799
1.06785
-3.58478
-6.76228
-9.10701
-9.74855
-9.8119
-9.82029
-9.79996
-9.74014
-9.61848
-9.47903
-9.41928
-9.53678
-9.44696
-9.32456
-9.19092
-9.06347
-8.96639
-8.91282
-8.89799
-8.88705
-8.86092
-9.8014
-9.9629
-10.1372
-10.1225
-9.96185
-9.80621
-9.69424
-9.61971
-9.55933
-9.5313
-9.56578
-9.60032
-9.58895
-9.54605
-9.48502
-9.41107
-9.32334
-9.23343
-9.28861
-9.35125
-9.45369
-9.62005
-9.9318
-10.3131
-10.7123
-11.1216
-11.5712
-11.9051
-11.9149
-11.8927
-11.8844
-11.6273
-11.1573
-10.7314
-10.4567
-10.383
-10.4099
-10.4092
-10.3325
-10.1527
-9.96706
-9.96093
-10.0804
-10.2045
-10.3104
-10.3702
-10.4281
-10.507
-10.5494
-10.5528
-10.4725
-10.4367
-10.4394
-10.4498
-10.4929
-10.5604
-10.5793
-10.499
-10.4124
-10.3967
-10.3662
-10.2881
-10.2815
-10.2843
-10.2925
-10.2787
-10.2376
-10.2026
-10.1865
-10.2174
-10.1789
-10.0509
-9.89182
-9.74135
-9.60122
-9.48596
-9.41829
-9.3943
-9.40556
-9.40516
-10.3495
-10.5479
-10.7271
-10.7381
-10.6295
-10.5284
-10.4487
-10.4027
-10.363
-10.3252
-10.2986
-10.2533
-10.1713
-10.0731
-9.97627
-9.90806
-9.8802
-9.87617
-9.91428
-10.0033
-10.1784
-10.4446
-10.7419
-11.0642
-11.4101
-11.7756
-12.1298
-12.3694
-12.4086
-12.326
-12.2521
-12.1197
-11.9381
-11.6625
-11.3458
-11.1137
-11.0176
-10.969
-10.811
-10.5585
-10.3262
-10.2937
-10.4454
-10.6218
-10.7735
-10.9221
-11.0508
-11.12
-11.1274
-11.0416
-10.9269
-10.9075
-10.9846
-11.0725
-11.1279
-11.137
-11.1127
-11.0822
-11.0357
-10.9721
-10.9031
-10.8371
-10.8214
-10.8385
-10.8278
-10.7669
-10.682
-10.6331
-10.7155
-10.8486
-10.8795
-10.7693
-10.5957
-10.4343
-10.2801
-10.1217
-10.0065
-9.95254
-9.96805
-9.95404
-10.8184
-10.9655
-11.1567
-11.2923
-11.3564
-11.3849
-11.3778
-11.3799
-11.3729
-11.3277
-11.2244
-11.0549
-10.8543
-10.6648
-10.5221
-10.4625
-10.4803
-10.5474
-10.6394
-10.7741
-10.9672
-11.2064
-11.4638
-11.7415
-12.0295
-12.3002
-12.5222
-12.677
-12.7514
-12.7802
-12.7495
-12.662
-12.5257
-12.3405
-12.1096
-11.856
-11.6341
-11.4193
-11.1653
-10.895
-10.6749
-10.6318
-10.7969
-11.0566
-11.3058
-11.4979
-11.6337
-11.7151
-11.7118
-11.6003
-11.4872
-11.4611
-11.4975
-11.5604
-11.6059
-11.6238
-11.6353
-11.6635
-11.6563
-11.5459
-11.4065
-11.33
-11.3168
-11.3324
-11.3296
-11.2922
-11.2408
-11.225
-11.2719
-11.3951
-11.4955
-11.4362
-11.2754
-11.1239
-10.9846
-10.8162
-10.6337
-10.5042
-10.516
-10.4965
-11.3182
-11.4611
-11.6664
-11.8905
-12.1132
-12.3089
-12.4703
-12.6232
-12.7211
-12.6934
-12.5149
-12.1956
-11.813
-11.4476
-11.1922
-11.0981
-11.143
-11.2597
-11.3906
-11.54
-11.726
-11.9385
-12.1594
-12.3829
-12.6008
-12.8034
-12.9781
-13.1044
-13.1713
-13.1944
-13.1812
-13.1334
-13.0494
-12.9302
-12.7644
-12.5362
-12.2533
-11.9482
-11.6577
-11.3906
-11.1852
-11.1595
-11.355
-11.644
-11.9102
-12.09
-12.2065
-12.2834
-12.279
-12.1911
-12.1293
-12.1403
-12.1514
-12.1406
-12.1279
-12.1128
-12.1112
-12.1307
-12.1276
-12.04
-11.9286
-11.8391
-11.8047
-11.8053
-11.8079
-11.7932
-11.7688
-11.7596
-11.7875
-11.8695
-11.9727
-11.9863
-11.8736
-11.7231
-11.5923
-11.4505
-11.2693
-11.0871
-11.0399
-11.0279
-11.9024
-12.0593
-12.323
-12.6403
-13.0064
-13.3932
-13.7947
-14.1063
-14.2574
-14.2393
-14.0171
-13.6056
-13.0719
-12.5298
-12.1018
-11.8844
-11.8949
-12.0312
-12.183
-12.331
-12.4973
-12.6782
-12.8663
-13.0521
-13.2265
-13.385
-13.5219
-13.6181
-13.6653
-13.6709
-13.6483
-13.6092
-13.5531
-13.473
-13.3544
-13.1657
-12.8953
-12.587
-12.3038
-12.0514
-11.8673
-11.8558
-12.0514
-12.3113
-12.528
-12.6628
-12.7512
-12.812
-12.8161
-12.7675
-12.7439
-12.7705
-12.7767
-12.7485
-12.6745
-12.5958
-12.5472
-12.5245
-12.495
-12.4588
-12.4028
-12.3471
-12.3112
-12.2979
-12.2985
-12.3031
-12.3084
-12.3193
-12.3434
-12.381
-12.4251
-12.4403
-12.3887
-12.2614
-12.1271
-11.9902
-11.8359
-11.6607
-11.5503
-11.5468
-12.5744
-12.7629
-13.0957
-13.5164
-14.0239
-14.598
-15.1597
-15.5625
-15.7335
-15.6825
-15.4258
-14.9704
-14.3572
-13.7348
-13.197
-12.8457
-12.7648
-12.8648
-12.993
-13.118
-13.2523
-13.3982
-13.5558
-13.7082
-13.8428
-13.9599
-14.0687
-14.1546
-14.1966
-14.1917
-14.1552
-14.1116
-14.0625
-13.997
-13.9061
-13.759
-13.5355
-13.2744
-13.0293
-12.8143
-12.6601
-12.6409
-12.7834
-12.9711
-13.1195
-13.2049
-13.2586
-13.2951
-13.2923
-13.2622
-13.2555
-13.2721
-13.2729
-13.2372
-13.1605
-13.0642
-12.9993
-12.9689
-12.9548
-12.9372
-12.9033
-12.8625
-12.8281
-12.8098
-12.812
-12.8303
-12.8559
-12.8807
-12.9029
-12.9236
-12.9448
-12.9481
-12.9054
-12.8028
-12.6621
-12.5004
-12.3351
-12.1909
-12.0707
-12.0514
-13.3094
-13.5315
-13.9145
-14.4151
-15.0367
-15.7413
-16.3575
-16.7473
-16.889
-16.8157
-16.5437
-16.0937
-15.4889
-14.8354
-14.258
-13.8518
-13.7019
-13.7253
-13.7896
-13.8742
-13.9754
-14.0971
-14.2325
-14.3599
-14.4653
-14.5528
-14.6508
-14.7323
-14.7723
-14.7504
-14.6993
-14.653
-14.5982
-14.5277
-14.4468
-14.3311
-14.1637
-13.9745
-13.7774
-13.5958
-13.4599
-13.421
-13.4815
-13.5893
-13.672
-13.7123
-13.7343
-13.7481
-13.7364
-13.7153
-13.718
-13.733
-13.7356
-13.6977
-13.6269
-13.5548
-13.5093
-13.4898
-13.4764
-13.4545
-13.4214
-13.3831
-13.3491
-13.3295
-13.335
-13.3637
-13.4036
-13.4423
-13.4709
-13.4885
-13.5018
-13.5005
-13.4689
-13.3778
-13.2256
-13.0311
-12.8447
-12.697
-12.5824
-12.5563
-14.0784
-14.3223
-14.7354
-15.2911
-15.9923
-16.7251
-17.2916
-17.6291
-17.757
-17.6854
-17.4068
-16.9504
-16.3743
-15.7452
-15.1798
-14.766
-14.5787
-14.5264
-14.5389
-14.5924
-14.6753
-14.7874
-14.9142
-15.0337
-15.1399
-15.2488
-15.3579
-15.4152
-15.4205
-15.3852
-15.3353
-15.2616
-15.1789
-15.0895
-15.0041
-14.9054
-14.793
-14.663
-14.5052
-14.337
-14.202
-14.1338
-14.1277
-14.1642
-14.1927
-14.1982
-14.1984
-14.2004
-14.1894
-14.1811
-14.198
-14.2324
-14.2428
-14.2082
-14.1466
-14.0873
-14.0506
-14.0308
-14.0127
-13.9859
-13.9495
-13.9094
-13.8744
-13.8551
-13.8645
-13.9052
-13.9638
-14.0249
-14.0762
-14.1127
-14.1421
-14.1452
-14.111
-14.0171
-13.8573
-13.6449
-13.4253
-13.2528
-13.1457
-13.1073
-14.8383
-15.1082
-15.537
-16.1286
-16.8367
-17.4899
-17.984
-18.2925
-18.4186
-18.3472
-18.0676
-17.6086
-17.0474
-16.4655
-15.9351
-15.545
-15.3321
-15.2424
-15.2325
-15.2725
-15.3497
-15.4666
-15.6026
-15.7398
-15.8922
-16.0586
-16.1795
-16.2391
-16.2132
-16.1632
-16.0956
-15.9719
-15.827
-15.697
-15.5866
-15.502
-15.4211
-15.3166
-15.174
-15.0103
-14.8721
-14.7786
-14.7309
-14.7174
-14.7067
-14.6889
-14.6767
-14.6757
-14.6751
-14.6843
-14.7186
-14.7722
-14.7866
-14.7529
-14.6952
-14.6399
-14.6039
-14.5823
-14.5612
-14.5318
-14.4935
-14.4523
-14.4186
-14.4056
-14.4265
-14.487
-14.5701
-14.6662
-14.7689
-14.8796
-14.9847
-15.0498
-15.0231
-14.8849
-14.6476
-14.3711
-14.1199
-13.9167
-13.7895
-13.7411
-15.4409
-15.8235
-16.2552
-16.8529
-17.5183
-18.0861
-18.4997
-18.771
-18.8901
-18.8168
-18.5423
-18.0905
-17.5482
-17.0094
-16.53
-16.1849
-15.9761
-15.8864
-15.872
-15.9043
-15.9812
-16.1109
-16.2695
-16.441
-16.6335
-16.8219
-16.9508
-17.0186
-17.0294
-16.9853
-16.8898
-16.7322
-16.5146
-16.3255
-16.1894
-16.1092
-16.028
-15.918
-15.7732
-15.6192
-15.4843
-15.3808
-15.3146
-15.2742
-15.2412
-15.2103
-15.1909
-15.1903
-15.2035
-15.2307
-15.2836
-15.3465
-15.3596
-15.3247
-15.2672
-15.2087
-15.1678
-15.1429
-15.1209
-15.0926
-15.0556
-15.0163
-14.9894
-14.9925
-15.0396
-15.133
-15.2487
-15.4096
-15.6467
-15.9362
-16.1857
-16.3314
-16.2967
-16.0808
-15.7194
-15.3132
-14.9684
-14.7071
-14.5468
-14.4826
-15.7944
-16.3225
-16.8279
-17.4369
-18.0647
-18.5857
-18.9349
-19.1673
-19.2597
-19.1521
-18.8507
-18.4
-17.8901
-17.4074
-17.0041
-16.7105
-16.5417
-16.4636
-16.4522
-16.4802
-16.558
-16.6982
-16.8787
-17.0819
-17.2921
-17.4824
-17.6336
-17.7239
-17.7514
-17.7278
-17.6354
-17.4613
-17.206
-16.9608
-16.8066
-16.7035
-16.5936
-16.4645
-16.3227
-16.1839
-16.0606
-15.9623
-15.895
-15.8469
-15.8066
-15.7721
-15.7504
-15.7501
-15.7721
-15.8063
-15.8703
-15.9348
-15.9403
-15.9024
-15.847
-15.7839
-15.7366
-15.7085
-15.6882
-15.6643
-15.6323
-15.6
-15.5876
-15.6191
-15.7117
-15.8504
-16.0177
-16.3176
-16.7703
-17.2517
-17.6176
-17.7943
-17.7268
-17.4375
-16.9951
-16.482
-15.9873
-15.6298
-15.4186
-15.3316
-16.0306
-16.5326
-17.2016
-17.8775
-18.5005
-18.9981
-19.3197
-19.4993
-19.5146
-19.3267
-18.9858
-18.5671
-18.1159
-17.7088
-17.386
-17.1618
-17.0391
-16.9801
-16.9741
-16.9999
-17.0823
-17.225
-17.4142
-17.632
-17.8536
-18.0516
-18.2155
-18.3319
-18.3875
-18.3845
-18.3001
-18.1155
-17.8422
-17.5848
-17.4073
-17.2589
-17.1149
-16.9772
-16.8457
-16.724
-16.6181
-16.5339
-16.4751
-16.4317
-16.3962
-16.3669
-16.3506
-16.3502
-16.3653
-16.3931
-16.4568
-16.5075
-16.4956
-16.4574
-16.4133
-16.3529
-16.3046
-16.2754
-16.2583
-16.2403
-16.2159
-16.1953
-16.2048
-16.2763
-16.4289
-16.6213
-16.8788
-17.3758
-17.9817
-18.5551
-18.9666
-19.1266
-19.0591
-18.7526
-18.261
-17.6941
-17.1125
-16.6465
-16.3586
-16.2457
-16.3558
-16.6673
-17.3744
-18.1256
-18.7625
-19.2425
-19.5217
-19.6177
-19.5381
-19.3137
-18.9772
-18.6214
-18.2731
-17.9542
-17.7101
-17.5639
-17.4826
-17.4482
-17.4525
-17.4782
-17.5659
-17.7039
-17.8872
-18.0988
-18.3169
-18.5176
-18.6846
-18.8109
-18.9008
-18.9195
-18.8335
-18.6289
-18.3652
-18.1339
-17.9383
-17.7597
-17.6054
-17.4722
-17.3543
-17.2512
-17.1642
-17.0967
-17.0508
-17.0188
-16.9953
-16.9817
-16.9826
-16.9802
-16.9689
-16.9752
-17.0248
-17.0442
-17.0107
-16.9834
-16.9594
-16.911
-16.8688
-16.8406
-16.826
-16.8141
-16.7985
-16.7918
-16.8281
-16.9459
-17.1593
-17.4126
-17.8051
-18.4415
-19.0939
-19.6707
-20.023
-20.1446
-20.0823
-19.8235
-19.3546
-18.7937
-18.196
-17.6558
-17.2982
-17.1491
-16.8545
-17.0057
-17.4981
-18.1554
-18.7441
-19.1659
-19.3867
-19.4179
-19.322
-19.1524
-18.9157
-18.6503
-18.4017
-18.1813
-18.0285
-17.9426
-17.8961
-17.8889
-17.9037
-17.9334
-18.0208
-18.1488
-18.3146
-18.5044
-18.7012
-18.8874
-19.047
-19.1712
-19.2584
-19.2711
-19.1785
-18.9924
-18.7745
-18.5798
-18.3901
-18.2183
-18.0746
-17.9545
-17.8536
-17.769
-17.7001
-17.6489
-17.6167
-17.5986
-17.5908
-17.6021
-17.6322
-17.6222
-17.5758
-17.5583
-17.5793
-17.5617
-17.5257
-17.5242
-17.5042
-17.4663
-17.4292
-17.402
-17.3879
-17.3803
-17.3727
-17.3792
-17.4419
-17.6043
-17.8691
-18.1872
-18.7051
-19.3829
-20.0153
-20.5281
-20.833
-20.9382
-20.8597
-20.6072
-20.2078
-19.6978
-19.1091
-18.5458
-18.1596
-17.9658
-17.465
-17.5377
-17.7909
-18.1886
-18.578
-18.8734
-19.0449
-19.0861
-19.052
-18.9792
-18.8787
-18.7249
-18.5651
-18.4453
-18.3654
-18.3257
-18.3075
-18.3215
-18.341
-18.3825
-18.4617
-18.5747
-18.7164
-18.8755
-19.038
-19.1923
-19.327
-19.4309
-19.4928
-19.49
-19.4086
-19.2697
-19.1108
-18.9546
-18.7975
-18.6546
-18.5313
-18.4287
-18.3454
-18.2778
-18.225
-18.1884
-18.1689
-18.1639
-18.1722
-18.2101
-18.2724
-18.2556
-18.1759
-18.1492
-18.1462
-18.1039
-18.0956
-18.1081
-18.0632
-18.0259
-17.986
-17.9571
-17.9414
-17.9355
-17.933
-17.9489
-18.0311
-18.2272
-18.5328
-18.9045
-19.4925
-20.1564
-20.7338
-21.1846
-21.487
-21.5786
-21.4743
-21.2087
-20.8726
-20.4039
-19.8202
-19.2324
-18.8758
-18.6029
-18.0727
-18.1433
-18.2688
-18.4258
-18.5833
-18.7224
-18.8269
-18.8926
-18.9278
-18.9368
-18.9202
-18.8696
-18.8113
-18.7651
-18.7391
-18.7306
-18.7352
-18.7617
-18.7832
-18.8296
-18.8995
-18.9952
-19.1118
-19.2403
-19.3685
-19.4868
-19.5879
-19.6619
-19.6997
-19.6903
-19.6287
-19.5287
-19.4156
-19.3009
-19.1884
-19.0812
-18.9816
-18.8971
-18.8298
-18.7772
-18.7384
-18.7141
-18.7053
-18.7112
-18.7327
-18.7882
-18.8682
-18.8487
-18.7589
-18.7495
-18.75
-18.703
-18.7041
-18.6962
-18.6335
-18.5852
-18.538
-18.5041
-18.4848
-18.4779
-18.4769
-18.4952
-18.584
-18.7931
-19.1174
-19.5445
-20.148
-20.7726
-21.2959
-21.726
-22.001
-22.0779
-21.9724
-21.7457
-21.4106
-20.9354
-20.3279
-19.7328
-19.3784
-19.0221
-18.6459
-18.7171
-18.7801
-18.8229
-18.8388
-18.8536
-18.8871
-18.9418
-19.003
-19.0587
-19.1012
-19.127
-19.1376
-19.1432
-19.1522
-19.1613
-19.182
-19.2135
-19.2355
-19.2806
-19.3403
-19.4188
-19.5128
-19.6159
-19.7188
-19.8104
-19.8827
-19.9291
-19.9497
-19.9371
-19.8897
-19.8155
-19.7317
-19.6532
-19.5793
-19.5037
-19.4269
-19.3597
-19.3067
-19.2673
-19.2403
-19.2262
-19.226
-19.2404
-19.2701
-19.3336
-19.4251
-19.3939
-19.3145
-19.3541
-19.4025
-19.3699
-19.3225
-19.2765
-19.2086
-19.1399
-19.0834
-19.042
-19.0169
-19.006
-19.0032
-19.0166
-19.0961
-19.2955
-19.6205
-20.0682
-20.6619
-21.2471
-21.7232
-22.1226
-22.3778
-22.4516
-22.3681
-22.1552
-21.804
-21.2881
-20.6415
-20.0543
-19.6672
-19.2734
-19.1778
-19.2219
-19.2537
-19.2567
-19.2249
-19.1841
-19.1677
-19.1998
-19.2649
-19.3448
-19.4226
-19.4876
-19.5361
-19.5708
-19.5979
-19.6158
-19.6455
-19.6716
-19.696
-19.7357
-19.7852
-19.8481
-19.9227
-20.005
-20.0889
-20.1651
-20.2211
-20.254
-20.2634
-20.2488
-20.2101
-20.1525
-20.0865
-20.0296
-19.9777
-19.9243
-19.8678
-19.8167
-19.7767
-19.7487
-19.7319
-19.7261
-19.7331
-19.7543
-19.7875
-19.8466
-19.9479
-19.9392
-19.8546
-19.9812
-20.1202
-20.1086
-19.9726
-19.8698
-19.7853
-19.6894
-19.6198
-19.5697
-19.5374
-19.5196
-19.5126
-19.5155
-19.5717
-19.7388
-20.0393
-20.476
-21.0457
-21.5929
-22.0279
-22.3633
-22.591
-22.6768
-22.6035
-22.392
-22.0114
-21.4641
-20.8329
-20.2617
-19.8027
-19.458
-19.6901
-19.7099
-19.7171
-19.7063
-19.6688
-19.6263
-19.6062
-19.6208
-19.6778
-19.7562
-19.8392
-19.9177
-19.9828
-20.0312
-20.0642
-20.0868
-20.1155
-20.1344
-20.16
-20.1933
-20.2338
-20.2831
-20.3407
-20.4046
-20.4711
-20.5343
-20.583
-20.612
-20.6196
-20.6072
-20.5774
-20.532
-20.478
-20.427
-20.3849
-20.3462
-20.3061
-20.2693
-20.2409
-20.2228
-20.2145
-20.2157
-20.2286
-20.2554
-20.2908
-20.3365
-20.4053
-20.4638
-20.4366
-20.6328
-20.9033
-20.8722
-20.6439
-20.4663
-20.3512
-20.2282
-20.144
-20.0861
-20.0468
-20.0216
-20.0082
-19.9989
-20.0234
-20.1399
-20.3872
-20.7764
-21.2913
-21.8138
-22.2317
-22.5195
-22.685
-22.7239
-22.6328
-22.4157
-22.0363
-21.5281
-20.9648
-20.4014
-19.9122
-19.6983
-20.1949
-20.1999
-20.1938
-20.1798
-20.1492
-20.1196
-20.1028
-20.1132
-20.157
-20.2247
-20.3041
-20.3849
-20.4541
-20.5039
-20.5355
-20.5613
-20.5827
-20.6002
-20.6244
-20.6523
-20.6853
-20.7237
-20.7673
-20.8149
-20.8645
-20.912
-20.9526
-20.98
-20.9906
-20.9836
-20.9604
-20.9235
-20.8777
-20.8317
-20.7979
-20.7708
-20.7438
-20.7189
-20.7003
-20.6906
-20.6896
-20.6967
-20.7146
-20.7471
-20.7828
-20.8171
-20.85
-20.9829
-21.0354
-21.2404
-21.6121
-21.5584
-21.2619
-21.034
-20.8898
-20.7451
-20.6533
-20.5911
-20.5472
-20.516
-20.4946
-20.4763
-20.4707
-20.5278
-20.6964
-21.0006
-21.4271
-21.9124
-22.3273
-22.6174
-22.7652
-22.7637
-22.6293
-22.3749
-22.0093
-21.5511
-21.039
-20.5298
-20.1724
-20.0879
-20.6903
-20.6905
-20.6817
-20.6696
-20.6493
-20.629
-20.6171
-20.6258
-20.6627
-20.7225
-20.7955
-20.8692
-20.9305
-20.9739
-21.004
-21.0282
-21.0465
-21.0659
-21.0881
-21.1121
-21.1391
-21.1692
-21.2021
-21.2369
-21.2718
-21.3047
-21.3329
-21.3536
-21.3634
-21.3589
-21.3398
-21.3096
-21.274
-21.2404
-21.2164
-21.1989
-21.1819
-21.1663
-21.1558
-21.153
-21.1583
-21.1706
-21.1929
-21.2355
-21.2808
-21.2821
-21.3793
-21.5506
-21.6188
-21.772
-22.0827
-22.0901
-21.79
-21.5451
-21.3824
-21.2454
-21.1499
-21.0865
-21.041
-21.0068
-20.9788
-20.956
-20.9322
-20.9378
-21.02
-21.2143
-21.5236
-21.9064
-22.2707
-22.5533
-22.7067
-22.7113
-22.5729
-22.3019
-21.9341
-21.5122
-21.0886
-20.7514
-20.6071
-20.5921
-21.1825
-21.1813
-21.1752
-21.167
-21.1549
-21.1427
-21.1377
-21.1487
-21.1806
-21.2321
-21.2944
-21.3553
-21.4033
-21.4398
-21.4681
-21.4911
-21.5109
-21.5311
-21.5516
-21.5727