/*--------------------------------*- C++ -*----------------------------------*\
| =========                 |                                                 |
| \\      /  F ield         | OpenFOAM: The Open Source CFD Toolbox           |
|  \\    /   O peration     | Version:  2412                                  |
|   \\  /    A nd           | Website:  www.openfoam.com                      |
|    \\/     M anipulation  |                                                 |
\*---------------------------------------------------------------------------*/
FoamFile
{
    version     2.0;
    format      ascii;
    arch        "LSB;label=32;scalar=64";
    class       volScalarField;
    location    "4.45";
    object      p_rgh;
}
// * * * * * * * * * * * * * * * * * * * * * * * * * * * * * * * * * * * * * //

dimensions      [1 -1 -2 0 0 0 0];

internalField   nonuniform List<scalar> 
6400
(
9955.8
9955.52
9954.98
9954.18
9953.12
9951.8
9950.24
9948.44
9946.39
9944.09
9941.54
9938.73
9935.65
9932.26
9928.56
9924.51
9920.1
9915.31
9910.12
9904.52
9898.51
9892.11
9885.33
9878.21
9870.78
9863.09
9855.29
9847.43
9839.6
9831.91
9824.46
9817.35
9810.67
9804.53
9799.01
9794.2
9790.15
9786.98
9784.68
9783.29
9782.82
9783.26
9784.61
9786.83
9789.86
9793.66
9798.18
9803.29
9808.9
9814.93
9821.28
9827.84
9834.51
9841.45
9848.11
9854.68
9861.09
9867.29
9873.25
9878.96
9884.4
9889.59
9894.53
9899.23
9903.71
9907.98
9912.05
9915.93
9919.61
9923.11
9926.39
9929.46
9932.28
9934.83
9937.09
9939.02
9940.61
9941.82
9942.65
9943.07
9956.04
9955.76
9955.21
9954.41
9953.35
9952.03
9950.47
9948.66
9946.62
9944.33
9941.8
9939
9935.94
9932.57
9928.89
9924.86
9920.47
9915.69
9910.5
9904.91
9898.89
9892.47
9885.66
9878.5
9871.03
9863.18
9855.33
9847.39
9839.48
9831.69
9824.14
9816.92
9810.14
9803.91
9798.31
9793.44
9789.37
9786.12
9783.78
9782.37
9781.9
9782.36
9783.75
9786.02
9789.14
9793.03
9797.6
9802.79
9808.49
9814.63
9821.08
9827.75
9834.54
9841.41
9848.18
9854.83
9861.29
9867.52
9873.49
9879.2
9884.64
9889.82
9894.75
9899.44
9903.91
9908.17
9912.23
9916.11
9919.8
9923.3
9926.6
9929.69
9932.53
9935.11
9937.39
9939.35
9940.96
9942.19
9943.03
9943.45
9956.48
9956.2
9955.65
9954.86
9953.8
9952.49
9950.93
9949.13
9947.1
9944.83
9942.31
9939.55
9936.51
9933.18
9929.54
9925.56
9921.2
9916.45
9911.29
9905.69
9899.67
9893.21
9886.34
9879.08
9871.46
9863.48
9855.47
9847.36
9839.24
9831.25
9823.48
9816.05
9809.07
9802.65
9796.89
9791.87
9787.67
9784.34
9781.93
9780.49
9780.02
9780.53
9781.98
9784.35
9787.6
9791.64
9796.39
9801.77
9807.67
9814.02
9820.68
9827.54
9834.51
9841.49
9848.38
9855.15
9861.7
9867.99
9873.99
9879.7
9885.13
9890.29
9895.19
9899.85
9904.3
9908.54
9912.6
9916.47
9920.18
9923.7
9927.04
9930.17
9933.06
9935.68
9938.01
9940.01
9941.65
9942.91
9943.77
9944.2
9957.14
9956.85
9956.31
9955.52
9954.47
9953.17
9951.62
9949.83
9947.81
9945.56
9943.07
9940.35
9937.36
9934.09
9930.52
9926.6
9922.3
9917.61
9912.48
9906.89
9900.85
9894.33
9887.37
9879.99
9872.08
9863.99
9855.71
9847.31
9838.88
9830.57
9822.47
9814.72
9807.44
9800.74
9794.72
9789.48
9785.1
9781.64
9779.15
9777.67
9777.2
9777.76
9779.31
9781.83
9785.26
9789.53
9794.56
9800.24
9806.47
9813.09
9820.06
9827.22
9834.46
9841.67
9848.75
9855.64
9862.37
9868.71
9874.75
9880.47
9885.88
9891
9895.86
9900.47
9904.87
9909.08
9913.12
9917
9920.72
9924.29
9927.68
9930.87
9933.83
9936.53
9938.94
9941
9942.7
9944
9944.88
9945.34
9957.99
9957.71
9957.17
9956.4
9955.35
9954.06
9952.51
9950.73
9948.73
9946.51
9944.06
9941.39
9938.48
9935.29
9931.81
9927.99
9923.79
9919.17
9914.09
9908.53
9902.47
9895.89
9888.79
9881.16
9873.11
9864.73
9856.1
9847.29
9838.43
9829.68
9821.13
9812.94
9805.23
9798.14
9791.78
9786.24
9781.61
9777.96
9775.35
9773.8
9773.35
9773.97
9775.67
9778.39
9782.09
9786.68
9792.07
9798.15
9804.8
9811.85
9819.26
9826.83
9834.43
9841.97
9849.33
9856.43
9863.25
9869.73
9875.82
9881.53
9886.9
9891.96
9896.74
9901.28
9905.61
9909.77
9913.79
9917.67
9921.42
9925.03
9928.5
9931.78
9934.85
9937.66
9940.17
9942.33
9944.11
9945.46
9946.38
9946.86
9959.02
9958.74
9958.22
9957.46
9956.44
9955.15
9953.61
9951.83
9949.84
9947.65
9945.25
9942.66
9939.84
9936.77
9933.41
9929.72
9925.65
9921.15
9916.17
9910.66
9904.58
9897.91
9890.63
9882.81
9874.49
9865.73
9856.64
9847.32
9837.93
9828.57
9819.43
9810.66
9802.4
9794.81
9788
9782.08
9777.14
9773.25
9770.48
9768.86
9768.41
9769.13
9771
9773.99
9778.03
9783.03
9788.89
9795.5
9802.71
9810.39
9818.3
9826.39
9834.48
9842.44
9850.15
9857.52
9864.5
9871.08
9877.22
9882.92
9888.22
9893.17
9897.83
9902.26
9906.5
9910.59
9914.57
9918.44
9922.23
9925.92
9929.48
9932.89
9936.1
9939.06
9941.71
9944
9945.87
9947.29
9948.27
9948.77
9960.2
9959.92
9959.43
9958.71
9957.71
9956.42
9954.87
9953.09
9951.1
9948.94
9946.61
9944.11
9941.41
9938.49
9935.31
9931.8
9927.91
9923.57
9918.72
9913.29
9907.23
9900.47
9893.04
9884.97
9876.28
9867.05
9857.38
9847.42
9837.31
9827.23
9817.35
9807.85
9798.92
9790.7
9783.33
9776.93
9771.6
9767.42
9764.46
9762.74
9762.3
9763.14
9765.23
9768.54
9773
9778.51
9784.97
9792.24
9800.15
9808.53
9817.19
9825.95
9834.66
9843.15
9851.3
9858.99
9866.18
9872.81
9879.04
9884.66
9889.84
9894.64
9899.14
9903.4
9907.5
9911.5
9915.41
9919.28
9923.11
9926.89
9930.58
9934.16
9937.56
9940.72
9943.56
9946.01
9948.01
9949.51
9950.54
9951.07
9961.46
9961.21
9960.76
9960.11
9959.15
9957.86
9956.29
9954.48
9952.49
9950.35
9948.09
9945.7
9943.16
9940.43
9937.47
9934.2
9930.56
9926.45
9921.81
9916.52
9910.52
9903.65
9896.09
9887.72
9878.59
9868.78
9858.42
9847.65
9836.67
9825.68
9814.89
9804.5
9794.73
9785.74
9777.7
9770.72
9764.92
9760.39
9757.18
9755.35
9754.91
9755.88
9758.23
9761.93
9766.91
9773.05
9780.25
9788.33
9797.11
9806.39
9815.95
9825.57
9835.05
9844.2
9852.87
9860.96
9868.38
9875.14
9881.26
9886.8
9891.81
9896.38
9900.63
9904.67
9908.58
9912.43
9916.27
9920.13
9924.01
9927.9
9931.76
9935.55
9939.2
9942.62
9945.72
9948.38
9950.54
9952.13
9953.2
9953.76
9962.73
9962.52
9962.17
9961.64
9960.73
9959.43
9957.8
9955.94
9953.93
9951.81
9949.62
9947.37
9945.01
9942.53
9939.85
9936.9
9933.59
9929.81
9925.45
9920.38
9914.46
9907.66
9899.92
9891.21
9881.55
9871.05
9859.83
9848.09
9836.04
9823.92
9812
9800.53
9789.74
9779.83
9770.98
9763.32
9756.97
9752.01
9748.52
9746.55
9746.12
9747.24
9749.9
9754.06
9759.64
9766.55
9774.63
9783.71
9793.57
9803.96
9814.63
9825.31
9835.75
9845.71
9855.03
9863.56
9871.24
9878.06
9884.07
9889.38
9894.15
9898.38
9902.28
9906
9909.65
9913.31
9917.05
9920.89
9924.84
9928.88
9932.95
9937.02
9940.98
9944.75
9948.18
9951.13
9953.47
9955.14
9956.23
9956.81
9963.87
9963.72
9963.56
9963.24
9962.45
9961.09
9959.35
9957.39
9955.32
9953.21
9951.11
9949.01
9946.9
9944.71
9942.4
9939.87
9937
9933.66
9929.7
9924.95
9919.27
9912.54
9904.65
9895.57
9885.32
9873.99
9861.74
9848.79
9835.42
9821.94
9808.65
9795.87
9783.86
9772.87
9763.07
9754.61
9747.61
9742.17
9738.35
9736.21
9735.78
9737.06
9740.06
9744.75
9751.05
9758.86
9768.02
9778.31
9789.49
9801.25
9813.29
9825.28
9836.9
9847.86
9857.93
9866.98
9874.91
9881.75
9887.56
9892.45
9896.96
9900.64
9904.05
9907.33
9910.63
9914.05
9917.65
9921.48
9925.5
9929.71
9934.06
9938.46
9942.83
9947.04
9950.92
9954.27
9956.84
9958.56
9959.6
9960.16
9964.72
9964.56
9964.84
9964.87
9964.2
9962.77
9960.86
9958.74
9956.57
9954.44
9952.43
9950.52
9948.7
9946.89
9945.03
9943.02
9940.73
9937.98
9934.6
9930.33
9925.02
9918.45
9910.48
9901.03
9890.09
9877.78
9864.28
9849.88
9834.91
9819.75
9804.79
9790.41
9776.95
9764.71
9753.81
9744.42
9736.68
9730.69
9726.5
9724.16
9723.71
9725.16
9728.54
9733.83
9740.95
9749.82
9760.26
9772.02
9784.81
9798.27
9812
9825.61
9838.67
9850.85
9861.83
9871.45
9879.62
9886.39
9891.88
9896.31
9899.99
9903.07
9905.85
9908.55
9911.38
9914.48
9917.93
9921.73
9925.86
9930.29
9934.96
9939.79
9944.67
9949.45
9953.9
9957.77
9960.63
9962.36
9963.18
9963.72
9965.23
9964.48
9965.44
9966.46
9966.04
9964.39
9962.17
9959.82
9957.49
9955.34
9953.42
9951.74
9950.26
9948.9
9947.59
9946.24
9944.7
9942.76
9940.15
9936.62
9931.87
9925.61
9917.65
9907.83
9896.14
9882.68
9867.68
9851.49
9834.54
9817.32
9800.32
9784.01
9768.79
9755.2
9743
9732.56
9723.99
9717.39
9712.79
9710.22
9709.73
9711.32
9715.1
9721.05
9729.13
9739.23
9751.17
9764.69
9779.44
9794.98
9810.82
9826.43
9841.31
9854.96
9867.03
9877.27
9885.64
9892.2
9897.15
9900.8
9903.52
9905.68
9907.56
9909.49
9911.72
9914.42
9917.68
9921.49
9925.76
9930.46
9935.51
9940.85
9946.33
9951.8
9957.04
9961.69
9965.03
9966.46
9966.54
9967.54
9944.5
9887.67
9913.15
9967.46
9967.21
9965.57
9963.09
9960.48
9957.94
9955.72
9953.89
9952.48
9951.39
9950.53
9949.85
9949.32
9948.77
9947.89
9946.38
9943.86
9939.95
9934.24
9926.43
9916.3
9903.78
9888.97
9872.15
9853.77
9834.37
9814.61
9795.12
9776.48
9759.12
9744.12
9730.39
9718.77
9709.31
9702.06
9696.99
9694.18
9693.62
9695.29
9699.49
9706.13
9715.25
9726.79
9740.51
9756.13
9773.27
9791.37
9809.83
9827.97
9845.1
9860.59
9873.95
9884.87
9893.32
9899.45
9903.55
9906.06
9907.49
9908.32
9909.01
9909.92
9911.35
9913.57
9916.67
9920.54
9925.03
9930.04
9935.53
9941.46
9947.66
9953.94
9960.11
9965.63
9969.59
9963.42
9929.53
9957.49
9922.24
9793.13
9791.36
9964.39
9965.01
9965.57
9963.31
9960.51
9957.73
9955.36
9953.59
9952.42
9951.76
9951.49
9951.57
9952.02
9952.7
9953.24
9953.2
9952.1
9949.41
9944.6
9937.19
9926.86
9913.46
9897.04
9878.02
9856.91
9834.46
9811.54
9789
9767.61
9747.99
9730.74
9715.57
9702.75
9692.35
9684.44
9678.86
9675.78
9675.16
9676.75
9681.36
9688.71
9698.89
9712.06
9727.98
9746.01
9766.11
9787.38
9809.12
9830.45
9850.46
9868.26
9883.17
9894.78
9903.14
9908.49
9911.29
9912.15
9911.79
9910.86
9909.95
9909.54
9910.01
9911.67
9914.59
9918.58
9923.37
9928.78
9934.81
9941.41
9948.4
9955.36
9961.93
9968.36
9970.06
9816.14
9817.32
9926.67
9955.93
9946.19
9887.68
9726.94
9969.24
9967.42
9964.17
9960.5
9956.86
9953.94
9952.02
9951.08
9950.97
9951.48
9952.53
9954.19
9956.44
9958.78
9960.73
9961.57
9960.63
9957.14
9950.44
9940.07
9925.79
9907.55
9885.77
9861.22
9834.89
9807.96
9781.62
9756.88
9734.5
9715.02
9698.27
9684.26
9672.83
9664
9658.15
9654.83
9653.95
9655.69
9660.45
9668.25
9679.54
9694.51
9712.95
9734.12
9757.68
9782.82
9808.68
9834.12
9857.88
9878.68
9895.52
9907.73
9915.66
9919.76
9920.69
9919.28
9916.47
9913.21
9910.21
9908.12
9907.31
9908.26
9911
9915.24
9920.42
9926.35
9933.05
9940.51
9948.49
9956.4
9963.71
9971.22
9970.82
9883.81
9939.48
9961.78
9942.35
9911.15
9816.3
9514.52
9786.88
9970.65
9965
9959.52
9954.54
9950.96
9949.03
9948.59
9949.08
9950.05
9951.97
9955.23
9959.74
9964.22
9968.53
9971.88
9973.37
9971.92
9966.49
9956.4
9941.33
9920.82
9895.71
9866.86
9835.57
9803.54
9772.42
9743.67
9718.19
9696.31
9678.22
9663.35
9650.9
9641.15
9635.08
9631.48
9630.09
9631.69
9636.62
9644.21
9656.56
9673.55
9695.18
9719.93
9747.59
9777.42
9808.46
9839.22
9867.86
9892.47
9911.32
9924.22
9931.28
9933.45
9931.64
9926.9
9920.76
9914.66
9909.42
9905.36
9902.53
9902.21
9905.01
9910.32
9916.42
9922.83
9930.24
9938.87
9948.26
9957.42
9966.4
9958.33
9662.02
9921.65
9934.83
9956.46
9955.55
9741.29
9444.32
9490.45
9514.97
9951.81
9965.82
9958.49
9951.91
9947.6
9945.88
9946.08
9946.7
9947.48
9950.08
9955.27
9961.96
9968.94
9975.83
9981.86
9985.96
9987.15
9984.01
9975.25
9960.81
9938.15
9908.81
9874.16
9836.14
9797.33
9760.18
9726.77
9698.25
9674.6
9655.29
9639.59
9626.32
9615.02
9609.69
9605.91
9603.19
9604.25
9609.64
9615.89
9629.18
9647.68
9673.92
9702.63
9734.96
9770.2
9807.55
9845.07
9880.42
9910.82
9934.38
9945.8
9950.4
9948.57
9941.98
9932.72
9922.8
9913.77
9906.3
9900.3
9895.75
9894.11
9897.1
9904.24
9912.17
9919.34
9927.28
9937.16
9948.78
9959.89
9943.29
9545.48
9514.03
9564.38
9796.33
9964.79
9994.25
9907.92
9564.77
9485.21
9786.59
9975.44
9967.14
9958.28
9949.41
9942.8
9940.19
9939.9
9939.45
9939.43
9942.65
9949.88
9959.59
9970.46
9981.43
9990.51
9996.67
10000.3
10000.7
9994.71
9979.38
9957.04
9924.34
9883.23
9837.1
9789.81
9744.85
9705.68
9673.94
9648.97
9629.36
9614.56
9603.35
9597.59
9590.28
9585.51
9584.53
9586.03
9590.18
9597.66
9609.74
9630.13
9652.44
9683.1
9720.05
9760.89
9806.1
9852.7
9897.27
9934.38
9957.91
9970.49
9972.1
9963.91
9950.99
9936.61
9922.05
9908.37
9896.66
9887.48
9881.15
9879.3
9883.63
9893.44
9904.51
9914.18
9924.1
9936.4
9950.67
9965.49
9977.66
9714.66
9511.4
9476.66
9803.06
9999.72
10027.6
9995.71
9976.29
9978.08
9989
9977.8
9965.93
9949.65
9935.47
9926.34
9921.22
9917.75
9915.14
9914.99
9920.47
9931.6
9945.8
9962.3
9980.79
9998.17
10012.9
10022.6
10026.1
10022.1
10008.9
9987.48
9949.37
9897.63
9837.9
9777.35
9720.21
9671.97
9636.52
9611.68
9570.38
9540.22
9509.87
9479.59
9455.31
9435.27
9417.53
9401.62
9387.01
9387.62
9391.56
9452.98
9553.71
9651.92
9695.62
9745.86
9802.89
9864.52
9925.1
9975.49
10005.4
10014.7
10010
9995.15
9974.24
9946.89
9919.37
9895.74
9876.43
9860.95
9850.55
9848.81
9855.4
9867.49
9882.08
9896.53
9910.11
9925.51
9944.18
9965.61
9988.03
10013.2
9904.56
9926.28
10023.2
10072.3
9859.3
9619
9426.16
9428.19
9521.18
9582.55
9725.93
9792.87
9770.05
9613.82
9432.69
9326.86
9271.58
9259.83
9331.99
9464.85
9552.39
9645.53
9794.18
9914.35
9996.76
10052.8
10077.5
10077.5
10061.8
10030.2
9719.27
9170.74
8435.9
7587.29
6737.07
6031.72
5542.4
5212.83
4981.01
4750.72
4502.54
4281.85
4104.71
3967.41
3872.8
3855.07
3926.42
4020.72
4027.73
4325.92
4946.79
5642.46
6391.04
7145.73
7917.51
8661.68
9333.03
9819.83
10058.6
10075.8
10074.1
10041.3
9921.87
9662.57
9385.55
9161.69
9020.61
8874.25
8722.46
8706.94
8799.18
8945.52
9155.05
9435.2
9736.97
9849.46
9763.04
9493.24
9368.48
9675.77
9908.05
9966.69
10060.1
10095.7
4955.79
4332.38
3782.52
3650.59
3676.66
3549.92
3172.93
2646.74
2290.69
2159.61
2178.89
2245.43
2364.85
2418.28
2515.19
2849.08
3114.51
3383.98
3933.57
4599.82
5213.28
5825.17
6158.66
6142.61
5779.01
5073.8
4045.9
2882.17
1858.61
1103.26
593.335
294.282
153.515
81.6534
21.8564
1.72972
2.24089
2.59229
2.73992
2.85118
2.99497
3.21353
3.51355
3.75892
10.008
54.9266
166.856
328.417
569.464
937.911
1572.68
2622.52
4054.46
5453.36
6272.92
6494.56
6307.94
5684.63
4484.31
3288.44
2555.21
2170.57
1953.74
1710.66
1550.22
1612.27
1724.77
1741.09
1765.67
1871.99
2036.7
2356.53
2846.88
3497.2
3987.32
4353.94
4780.18
5140.34
5565.7
6233.1
111.325
60.2168
29.9934
15.2464
7.4148
3.63385
2.39219
1.57308
1.70386
1.77933
1.7355
1.57731
1.36682
1.17257
0.997532
0.844681
0.752134
0.688019
0.701791
0.892031
1.18718
87.4976
472.895
842.99
945.413
809.299
500.837
223.737
89.3453
37.4035
19.5195
9.21118
1.21826
1.04175
1.36938
1.7725
2.05218
2.37075
2.59759
2.72925
2.82671
2.94822
3.10277
3.21669
3.29867
3.29886
2.851
1.91996
15.3142
92.1999
178.274
332.061
648.57
948.968
1079.8
953.262
368.378
7.33411
0.43938
0.494001
0.394526
0.253061
0.0638374
-0.0210796
0.103748
0.313126
0.481457
0.557449
0.625962
0.757689
1.05807
1.47428
1.99883
2.79832
4.12078
15.9253
44.9346
92.5134
176.117
293.37
5.53873
7.90872
4.9892
3.85664
2.34895
1.76572
2.66942
2.74637
2.75779
2.61323
2.68395
2.54076
2.35393
1.86038
1.63589
1.8182
1.82576
1.36506
0.681028
0.566198
0.62906
0.492453
0.497023
0.550228
0.547004
0.484556
0.504512
0.720211
1.43568
4.3437
5.25174
3.76411
1.07524
0.532055
0.856724
1.29827
1.69405
2.07288
2.35239
2.49866
2.60052
2.69993
2.74785
2.75243
2.67634
2.34336
1.60683
1.01712
0.77406
0.745062
0.672258
0.545429
0.393693
0.273678
0.223432
0.229356
0.350253
0.588146
0.615348
0.434131
0.304524
0.207065
0.0626939
0.0854194
0.502956
1.26564
1.34427
1.42387
0.980026
0.838724
1.14923
1.44281
1.85763
2.45775
3.09392
6.24527
4.78168
4.71168
5.96154
5.96274
1.83675
5.07276
2.86086
1.78397
1.45695
1.44049
2.84617
3.07694
3.2271
3.19263
1.83151
0.948687
0.754315
0.879431
2.37926
2.55185
2.41504
2.25813
2.02036
0.485777
0.455841
0.50397
0.493795
0.473126
0.906023
0.959824
1.18637
1.4135
1.63742
2.95305
4.82381
2.64108
0.304467
0.312595
0.631846
1.02522
1.44863
1.81544
2.06763
2.2272
2.35427
2.46037
2.48942
2.4942
2.58261
2.10882
1.45661
1.10779
0.949898
0.797535
1.79532
3.50267
3.289
1.87215
0.912891
2.28553
2.86158
2.78524
1.21215
0.113292
0.131183
0.119433
0.194013
0.994701
1.35456
1.40003
1.40418
1.5351
1.54263
1.1385
1.15954
1.88473
4.12897
7.71829
8.46043
5.00757
4.54404
3.52021
3.36027
3.00448
1.50854
5.18274
2.00286
1.30156
1.3107
1.32842
3.04667
3.04289
2.6586
0.64501
0.6814
0.666503
0.619578
0.559508
0.477894
1.97799
2.30182
2.13661
1.59118
0.216733
0.259733
0.402962
0.461139
0.512392
0.482875
0.386566
0.590262
1.11102
3.77432
3.88251
3.60328
0.896725
-0.0374903
0.0962303
0.429909
0.83421
1.23155
1.58082
1.82493
1.98771
2.11469
2.2058
2.30563
2.25538
3.87279
7.34371
1.44379
1.16264
0.974133
0.812601
2.31548
3.51684
3.28054
3.12463
3.06595
3.04525
2.95775
0.344377
-0.0748558
-0.0630338
0.175792
0.197862
0.171205
0.0782694
0.161313
0.193583
0.228428
1.64228
2.51099
2.68943
2.93078
4.43467
7.68845
8.96235
9.21166
9.33352
7.96174
3.43425
3.01481
2.71471
1.37448
2.37529
1.05776
1.15621
1.24453
1.14653
1.52256
1.69411
0.522915
0.557918
0.579176
0.559766
0.51772
0.464218
0.38044
0.354067
1.46163
0.747876
-0.117809
-0.0287683
0.136427
0.287437
0.364881
0.403579
0.394354
0.377816
0.425173
0.490971
1.08536
3.83802
2.84694
0.599366
-0.0472353
0.0738299
0.356839
0.72152
1.08784
1.40462
1.63721
1.7893
1.8979
1.97251
2.16038
2.06607
6.13808
10.5077
2.09214
1.04942
0.852587
0.621286
0.98425
1.43671
0.93042
0.660002
2.36366
2.87893
2.14234
-0.218702
-0.195222
-0.190435
-0.188957
-0.179042
-0.164302
-0.127714
0.0699995
0.12331
-0.0561541
0.0412961
1.58308
2.59567
1.67027
0.738634
0.60082
3.08294
9.37684
9.42481
9.40892
9.33487
4.65219
2.71887
1.41339
1.2581
1.13367
1.21122
1.25821
1.18644
1.14871
1.8521
1.57342
0.88841
0.508202
0.481255
0.439955
0.38908
0.316971
0.198911
0.0642421
-0.0293855
-0.0573056
-0.0119331
0.103326
0.223066
0.300458
0.34271
0.373239
0.412717
0.454994
0.508507
0.732335
3.10927
3.06438
2.80691
1.0772
0.269627
0.547273
0.736438
1.0196
1.29614
1.49467
1.62371
1.71147
1.76818
1.87273
1.9637
9.57698
10.6046
8.58373
0.825815
0.684106
0.435845
0.161558
-0.101228
-0.251661
-0.429343
-0.454229
0.326398
1.21815
0.591589
-0.310242
-0.206536
-0.145459
-0.265121
-0.24401
-0.202254
-0.152329
-0.104453
-0.0759552
-0.0658298
-0.0415561
0.0333724
0.174239
0.326646
0.581443
1.0084
5.63056
9.45738
9.40406
9.33561
3.713
2.81293
1.53947
1.49362
1.37356
1.33246
1.61707
1.2358
1.83583
9.76354
8.60965
1.4157
0.441657
0.416699
0.380924
0.412484
0.419996
0.242636
0.107635
0.0569176
0.0395916
0.0753549
0.143785
0.22112
0.283196
0.329508
0.370832
0.425125
0.549732
0.54727
0.639722
1.92745
3.31737
3.18349
3.13732
3.05808
1.06538
0.726658
0.989555
1.21428
1.37965
1.4892
1.56268
1.60464
1.61042
1.65838
10.0282
10.7475
9.8596
0.692044
0.556858
0.324218
0.0871277
-0.118948
-0.179457
-0.436044
-0.546735
-0.572145
-0.533442
-0.479892
0.176118
0.554485
0.630768
0.552101
-0.0518835
-0.159371
-0.22122
-0.163185
-0.108737
-0.0673562
-0.021307
0.0507665
0.14284
0.268157
0.820204
2.11067
3.07922
9.39861
9.22394
4.3197
2.69134
2.88198
4.03515
1.67395
1.5112
1.60643
9.36097
7.75856
10.2002
10.1479
10.2581
2.03448
0.384868
0.367888
0.361443
0.473421
0.416338
0.352246
0.239926
0.121486
0.0976773
0.13156
0.175528
0.222193
0.265026
0.308152
0.358102
0.50106
0.629717
0.650906
0.606107
0.93994
1.5197
2.59116
2.92397
1.94669
0.901469
0.758071
0.960187
1.13808
1.27933
1.38203
1.45374
1.51101
1.48604
1.37026
7.12119
10.9513
6.37533
0.652252
0.47938
0.262984
0.0752846
-0.0769176
-0.186486
-0.362328
-0.5075
-0.560879
-0.560722
-0.539038
-0.524093
-0.433552
0.605466
1.01124
1.10361
1.17887
0.35647
0.26899
-0.1209
-0.114151
-0.0471439
0.0303173
0.109489
0.196967
0.952045
2.23868
1.36322
5.35412
8.60482
4.58916
3.37438
3.46984
6.93891
1.6863
1.59671
7.27682
10.4537
10.3466
10.2148
10.2707
10.4979
1.17339
0.361182
0.34372
0.342185
0.449466
0.397602
0.336174
0.290443
0.222845
0.114014
0.134442
0.163798
0.194445
0.230911
0.278111
0.336975
0.431646
0.621933
0.659753
0.591261
0.611158
0.570835
0.601201
0.628857
0.556634
0.651438
0.771306
0.916029
1.05614
1.1838
1.28932
1.37661
1.47227
1.45049
1.30343
2.09885
11.1333
8.25043
0.671069
0.426385
0.208944
0.0784212
-0.120304
-0.360975
-0.520326
-0.616821
-0.645057
-0.627774
-0.591166
-0.559797
-0.55131
-0.563635
-0.0248965
1.1014
1.17467
1.18682
1.20311
0.86172
-0.144034
-0.10858
-0.0240612
0.0533812
0.122714
0.32736
2.04724
1.24386
0.488248
6.76201
7.19195
7.64493
6.75589
5.88173
1.9195
1.74807
2.1511
10.3839
10.6337
10.6442
10.7806
5.16388
0.401564
0.383374
0.35201
0.311341
0.306398
0.322737
0.254256
0.242111
0.187647
0.107478
0.125469
0.147699
0.169523
0.230481
0.300078
0.336796
0.387759
0.457818
0.513696
0.562276
0.595849
0.586576
0.566991
0.567937
0.603749
0.670091
0.756042
0.854631
0.964293
1.08361
1.20912
1.30774
1.34378
1.3692
1.25317
1.03088
10.6181
10.9271
0.731407
0.400639
0.158196
-0.0119857
-0.248966
-0.558778
-0.754675
-0.853307
-0.833174
-0.750805
-0.663366
-0.593089
-0.561392
-0.567102
-0.540551
0.833656
1.17434
1.18052
1.1439
1.16133
0.823994
-0.193215
-0.102198
-0.0243307
0.0526339
0.199887
0.513572
0.978839
0.358488
0.111359
3.18892
6.66676
6.94724
3.50277
6.12271
3.36369
2.24189
1.79117
9.87531
11.3892
11.436
2.31994
0.446643
0.41355
0.367558
0.317785
0.262215
0.196701
0.129685
0.0769457
0.142674
0.0912471
0.118728
0.346495
0.415343
0.463181
0.526824
0.557139
0.359114
0.412691
0.463239
0.513789
0.551086
0.556506
0.556358
0.571355
0.605702
0.653561
0.7099
0.777401
0.860371
0.975232
1.55175
2.41019
1.25534
1.2255
1.1785
1.01306
2.54273
11.2708
10.6263
0.860268
0.0629544
-0.155555
-0.493815
-0.852434
-1.11155
-1.19753
-0.931526
-0.508207
-0.74191
-0.631953
-0.573817
-0.565239
-0.434817
1.10715
1.16802
1.18197
-0.174882
1.0484
1.13391
-0.0319423
-0.184484
-0.109162
-0.0401448
0.161614
0.136132
0.39294
0.164628
0.136385
0.416114
4.1493
5.70842
3.43272
5.98351
5.83648
2.82712
0.742371
3.67109
9.57092
3.19122
0.480448
0.452433
0.416709
0.369318
0.319635
0.263394
0.199616
0.132053
0.0745397
0.470713
1.20694
0.276054
0.2346
0.334257
0.386358
0.457759
0.448834
0.319069
0.447657
0.581468
0.481442
0.487624
0.499939
0.512366
0.534384
0.566297
0.603154
0.641678
0.684893
0.737405
0.790522
4.35756
10.4178
5.97315
1.1034
1.09749
1.00449
0.759218
11.6671
11.6596
0.924539
-0.0426081
-0.37875
-0.809783
-1.2063
-1.54877
-1.37274
5.02956
9.12351
3.48092
-0.124825
-0.586813
-0.574115
-0.597655
0.418422
1.1748
0.109968
-0.509704
0.0264023
1.05254
1.01143
-0.25179
-0.179249
-0.130034
-0.0743594
0.396515
2.4864
0.0548466
0.0439745
0.55027
1.61634
0.994552
3.46713
5.92428
3.22071
0.510991
0.721901
1.16081
1.58171
0.758306
0.452622
0.434559
0.398928
0.357804
0.325989
0.257747
0.194997
0.127141
0.0680227
0.686677
3.81144
2.40369
0.0570963
0.0347216
0.0795051
0.159461
0.16068
0.306932
1.90411
1.22852
0.373113
0.416839
0.437608
0.457312
0.481606
0.509355
0.537326
0.562227
0.581996
0.597122
0.586181
3.32022
10.3575
10.7335
5.33058
1.03063
1.02626
0.814766
6.13817
11.7943
6.23153
-0.111282
-0.634083
-1.09177
-1.57153
-2.01599
0.902857
10.1633
10.5808
11.1198
9.15222
0.667596
-0.57875
-0.597585
-0.533189
0.242256
-0.269626
-0.495491
-0.518421
1.02336
1.12521
-0.278053
-0.221328
-0.178817
-0.167616
1.18764
2.88372
1.69797
0.0350603
0.36706
0.594622
0.77165
4.71687
6.00915
1.10994
0.558063
1.00752
1.59449
0.697993
0.420321
0.419031
0.398207
0.3659
0.348028
0.30744
0.255502
0.184211
0.118549
0.0558094
0.393785
3.79967
5.19495
2.68831
0.473569
-0.0314384
0.0166519
0.0978303
2.84538
4.17985
0.964875
0.294113
0.348906
0.377756
0.401286
0.425009
0.447679
0.467577
0.481834
0.483984
0.468059
0.416728
0.761568
2.19886
10.6396
12.2384
2.72436
1.10293
0.943921
0.590542
11.8879
11.1681
0.734805
-0.822714
-1.32917
-1.85651
-2.34028
-2.03771
9.89911
10.4093
10.9004
11.4095
10.4965
0.444316
-0.600106
-0.480797
-0.512558
-0.486221
-0.478754
-0.487804
0.955918
0.366533
-0.29405
-0.235556
-0.189873
-0.17209
1.08353
3.02805
2.87492
0.17483
0.396481
0.83177
0.675248
7.20708
6.14553
0.681867
0.625819
1.14168
1.05707
0.341912
0.3656
0.367702
0.351393
0.326531
0.315323
0.281547
0.241794
0.171281
0.111863
0.0466906
-0.0309335
0.179008
5.1896
5.81178
5.8421
4.17037
-0.0222949
0.960887
5.66081
4.83784
0.443218
0.224757
0.288348
0.325134
0.34845
0.369655
0.387579
0.40134
0.408275
0.402464
0.375888
0.320117
0.211815
0.103669
0.0725687
11.2116
12.1146
2.27698
1.08079
0.711009
8.00033
10.5989
3.0632
-0.952582
-1.44733
-1.94858
-2.40434
-2.82613
2.74167
9.95366
10.7026
11.4816
12.084
6.48129
-0.433503
-0.451248
-0.479049
-0.498161
-0.475621
-0.0663465
0.997524
0.419827
-0.304019
-0.229411
-0.178809
-0.150201
0.0924621
3.15771
3.11859
0.853746
0.478712
1.91086
0.711389
7.30975
6.05031
0.535002
0.506211
0.408701
0.25264
0.291692
0.310718
0.312667
0.301018
0.282932
0.271716
0.254185
0.203057
0.159187
0.109194
0.048054
-0.0318554
-0.139634
-0.02358
5.32797
5.85503
5.88636
4.79346
5.6744
5.64094
3.29078
0.0650044
0.168614
0.239106
0.27747
0.301154
0.318504
0.331714
0.340878
0.344493
0.33782
0.312402
0.26242
0.182769
0.0916409
0.030402
0.0824721
12.5481
13.2879
1.64918
0.896675
0.781366
10.5532
9.69582
-0.686833
-1.43563
-1.81357
-2.19179
-2.51731
-1.77657
-2.12443
-0.32463
11.0908
12.2854
11.6387
0.40099
-0.515151
-0.460857
-0.512183
-0.47786
0.8801
1.03676
0.413382
-0.288788
-0.212791
-0.1587
-0.120606
-0.108889
0.456789
3.34644
3.41709
1.8915
2.87665
0.804341
7.40038
6.00208
0.540769
0.585626
0.252792
0.200696
0.23112
0.249003
0.2546
0.250731
0.24011
0.224058
0.209267
0.1799
0.148797
0.109274
0.0588529
-0.00865316
-0.100319
-0.218099
-0.260239
4.81019
5.89324
5.93311
4.97097
2.76331
0.0264279
0.0289856
0.138642
0.203396
0.237554
0.257977
0.271143
0.27991
0.285609
0.28787
0.282446
0.269551
0.246633
0.134742
0.0446411
-0.03199
-0.109043
4.39473
14.3712
10.7517
0.907558
0.88445
9.29364
9.36252
0.0947164
-1.34597
-1.59091
-1.88637
-2.14125
-2.22066
-2.01252
-1.84663
2.13879
12.4422
12.2582
0.765678
-0.63211
-0.596769
-0.557149
0.0617225
0.988919
1.09913
-0.17289
-0.266311
-0.191968
-0.139888
-0.10189
-0.0752137
-0.0466465
2.3203
3.58212
3.53336
3.46851
0.855683
2.19838
7.11475
0.569104
0.540454
0.254187
0.113657
0.150118
0.179949
0.196317
0.202845
0.201791
0.194315
0.181542
0.163864
0.140629
0.110246
0.0720638
0.0228241
-0.0418117
-0.125863
-0.227933
-0.329274
0.153237
0.724861
0.0225554
-0.166879
-0.0683851
0.0523376
0.132822
0.179489
0.20498
0.219578
0.227383
0.230995
0.232299
0.232619
0.413701
0.576193
0.534493
0.431439
0.0739972
-0.1273
-0.23242
0.311336
14.5961
14.8167
4.70503
0.881163
2.22936
10.2883
11.0424
6.21291
6.1368
2.72193
-1.90602
-1.82172
-1.71555
-1.60924
1.55737
12.3249
7.98867
-0.295866
-0.629655
-0.579052
-0.530873
-0.428996
0.397387
-0.212513
-0.316118
-0.234506
-0.171262
-0.125871
-0.0914231
-0.0626118
-0.024031
0.0109675
1.99847
3.66609
1.1655
0.650182
0.445465
8.31683
3.53673
0.20739
0.144999
-0.0132097
0.0654919
0.111453
0.141159
0.161125
0.169858
0.170069
0.163699
0.152086
0.134932
0.111762
0.083316
0.0486802
0.00664728
-0.0443675
-0.102729
-0.153402
-0.173144
-0.155741
-0.116308
-0.0561557
0.0198922
0.0884936
0.134688
0.162779
0.178411
0.185813
0.18708
0.183607
0.189497
0.441852
0.556307
0.523141
0.464943
0.38061
0.281767
-0.170574
-0.348422
-0.471902
8.81701
14.3542
13.8407
1.20742
1.3619
10.4259
11.5049
11.9817
12.1006
12.2263
7.94148
-0.485662
-1.57509
-1.38109
4.52477
12.0003
5.08903
-0.62907
-0.59959
-0.543002
-0.487632
-0.439556
-0.394524
-0.335533
-0.267422
-0.204075
-0.154314
-0.11696
-0.0869278
-0.0601065
-0.0335648
0.128775
0.667027
1.12848
0.651875
0.689711
0.36207
8.46298
8.46882
0.5297
0.211946
-0.118428
0.197197
0.077012
0.0987039
0.130929
0.147235
0.152788
0.151222
0.14387
0.131476
0.114183
0.0931303
0.0682786
0.0397676
0.00813772
-0.0237135
-0.0471936
-0.0516195
-0.0341714
-0.00596994
0.0310172
0.0721789
0.107473
0.132806
0.148428
0.155826
0.156457
0.150826
0.138205
0.252508
0.512638
0.484833
0.443311
0.384311
0.299691
0.197617
-0.271045
-0.458348
-0.632887
5.67217
13.7702
12.9147
8.15617
-0.384691
4.94816
11.8772
11.9396
12.004
12.1638
12.2978
3.41216
-1.29712
-0.904805
7.71733
11.7856
2.66927
-0.600605
-0.552252
-0.494834
-0.438117
-0.386174
-0.336635
-0.283852
-0.229367
-0.180694
-0.141883
-0.111425
-0.0859086
-0.0613321
-0.0394108
-0.0143423
0.567395
1.10938
0.678274
0.704335
0.276953
3.60282
8.43119
2.81924
0.00895301
-0.145341
0.306331
0.0843437
0.0798492
0.115703
0.134844
0.142517
0.143252
0.138787
0.129593
0.116842
0.101555
0.0837651
0.0640606
0.0435839
0.0250956
0.0132112
0.0116125
0.0205153
0.0400845
0.0645721
0.0896852
0.11083
0.125904
0.134185
0.135912
0.131439
0.120026
0.0993291
0.169547
0.345702
0.260566
0.21555
0.310082
0.223158
0.0267619
-0.400061
-0.564663
-0.783655
10.4999
13.2857
12.1705
5.30208
-1.85221
-1.26436
8.8354
12.0958
12.1215
12.2615
12.0288
0.564863
-0.613013
3.95788
8.45267
8.29214
0.630234
-0.545823
-0.493391
-0.439255
-0.386539
-0.33733
-0.290361
-0.244232
-0.200461
-0.162466
-0.131669
-0.106839
-0.0859461
-0.0655817
-0.0472947
-0.0290655
0.0770367
1.06662
1.24914
1.58587
0.239899
0.353264
6.41275
3.40157
0.0137261
-0.00540833
0.356099
0.0943564
0.0856879
0.113844
0.130594
0.137571
0.138538
0.135015
0.128266
0.119001
0.107718
0.0948549
0.0810768
0.067491
0.0561188
0.0495238
0.0491865
0.0548284
0.0657448
0.080112
0.0950606
0.107738
0.116273
0.119699
0.117734
0.110038
0.0951627
0.0705257
0.0476711
-0.00100899
-0.0536622
-0.109538
0.143738
0.161302
-0.106909
-0.473276
-0.653651
-0.772682
14.3701
13.2836
0.514775
-2.58061
-2.34371
-1.61814
-0.786732
5.57071
12.7893
12.4271
2.10741
-0.175889
0.241279
6.87177
8.71475
5.62928
-0.284372
-0.471205
-0.425624
-0.379
-0.33355
-0.29067
-0.249895
-0.211297
-0.176179
-0.146058
-0.121426
-0.101532
-0.0854269
-0.0713277
-0.0576669
-0.0469369
-0.0338568
0.254117
2.06954
3.40362
0.11365
0.8726
0.616196
0.721071
0.207707
0.698382
0.448445
0.0647249
0.103253
0.120566
0.130704
0.135204
0.135477
0.132553
0.127206
0.120063
0.111513
0.101969
0.0920204
0.0825418
0.0748238
0.0702512
0.0696081
0.0727954
0.0791475
0.0871218
0.0951348
0.101563
0.105083
0.104789
0.100156
0.0905559
0.0746302
0.0509226
0.0155212
-0.0304771
-0.0785075
-0.149408
-0.0734014
0.117894
-0.106863