/*--------------------------------*- C++ -*----------------------------------*\
| =========                 |                                                 |
| \\      /  F ield         | OpenFOAM: The Open Source CFD Toolbox           |
|  \\    /   O peration     | Version:  2412                                  |
|   \\  /    A nd           | Website:  www.openfoam.com                      |
|    \\/     M anipulation  |                                                 |
\*---------------------------------------------------------------------------*/
FoamFile
{
    version     2.0;
    format      ascii;
    arch        "LSB;label=32;scalar=64";
    class       volScalarField;
    location    "9.2";
    object      alpha.water;
}
// * * * * * * * * * * * * * * * * * * * * * * * * * * * * * * * * * * * * * //

dimensions      [0 0 0 0 0 0 0];

internalField   nonuniform List<scalar> 
6400
(
1
1
1
1
0.999999
0.999999
1
1
1
1
0.999999
0.999999
1
1
0.999999
1
1
1
1
1
1
1
1
1
1
1
1
0.999999
0.999999
0.999999
0.999999
0.999999
0.999999
1
1
1
0.999999
0.999999
0.999999
0.999999
0.999999
1
1
1
1
1
1
1
1
1
1
1
1
1
1
1
1
1
1
1
1
1
1
1
1
1
1
1
0.999999
0.999999
0.999999
1
1
0.999999
0.999998
0.999998
1
1
1
1
0.999995
0.999999
1
1
0.999999
0.999999
1
0.999999
0.999999
0.999999
0.999999
0.999999
0.999999
1
1
1
1
1
1
1
1
1
1
1
0.999999
0.999999
0.999999
0.999999
1
1
1
1
1
1
1
1
0.999999
1
1
1
1
1
1
1
1
1
1
1
1
1
1
1
1
1
1
1
1
1
1
1
1
1
1
1
1
1
1
0.999999
0.999999
1
1
1
1
0.999998
0.999998
1
0.999999
0.999999
0.999998
0.999998
0.999998
0.999999
1
1
1
1
1
1
1
1
1
1
0.999999
0.999999
1
0.999999
0.999999
0.999999
0.999998
0.999998
0.999999
0.999999
0.999999
0.999999
1
1
1
1
1
1
1
1
1
1
1
1
1
1
1
1
1
1
1
1
1
0.999999
0.999999
0.999999
0.999999
0.999999
0.999998
0.999998
0.999999
1
1
1
1
0.999999
0.999998
0.999998
0.999998
1
1
1
1
1
1
1
1
1
1
1
0.999999
0.999998
0.999999
0.999999
0.999999
0.999999
0.999999
1
1
1
1
1
1
1
1
1
1
1
1
0.999999
1
0.999999
0.999999
0.999999
0.999999
0.999999
1
1
1
1
1
1
1
1
1
1
1
1
1
1
1
1
1
1
1
1
1
1
1
1
1
0.999999
0.999999
0.999999
1
1
1
1
1
1
1
1
1
1
1
1
1
1
1
1
1
1
1
1
0.999999
0.999999
1
1
1
0.999999
0.999999
1
1
0.999999
1
0.999999
1
1
1
1
1
1
1
1
1
1
1
1
1
0.999999
1
1
1
1
1
1
1
1
1
1
0.999999
0.999999
0.999999
0.999999
0.999999
0.999999
0.999999
1
1
1
1
1
0.999999
0.999999
1
1
1
1
1
1
1
1
1
1
1
1
1
1
1
1
1
1
1
1
1
1
1
1
1
1
1
1
1
1
1
1
1
1
1
1
1
1
1
1
1
1
1
0.999999
1
1
1
1
1
1
1
1
1
1
1
1
1
1
1
0.999999
0.999999
0.999999
0.999998
0.999998
0.999999
0.999999
0.999999
0.999999
1
1
1
1
1
1
1
1
1
1
1
1
1
1
1
1
1
1
1
1
1
1
1
1
1
1
1
1
1
1
1
1
1
1
0.999999
0.999998
0.999998
0.999999
0.999999
0.999999
1
1
1
1
1
1
1
1
1
1
1
1
1
1
1
1
1
1
1
1
1
1
0.999999
0.999999
0.999999
1
0.999999
0.999999
0.999998
0.999999
0.999998
0.999997
0.999997
0.999997
0.999997
0.999997
0.999998
1
1
1
1
1
1
1
1
1
1
1
1
1
1
1
1
1
1
1
1
1
1
1
1
1
1
1
1
1
0.999999
0.999999
0.999999
0.999999
0.999999
0.999999
0.999999
0.999999
0.999999
1
0.999999
0.999998
0.999998
0.999998
0.999998
0.999998
0.999998
0.999999
0.999999
0.999999
1
1
1
1
1
1
1
1
1
1
1
1
1
1
1
1
0.999999
0.999998
0.999998
0.999998
0.999999
0.999999
0.999999
0.999999
0.999999
0.999999
1
1
0.999999
0.999999
0.999999
0.999998
0.999999
0.999999
1
1
1
1
1
1
1
1
1
1
1
1
1
1
1
1
1
1
1
1
1
1
1
1
1
1
1
1
1
1
0.999999
1
1
1
1
1
1
0.999999
0.999999
0.999999
1
1
1
1
1
1
1
1
1
1
1
1
1
1
1
1
1
1
1
1
1
0.999998
0.999998
0.999999
0.999999
0.999999
1
1
1
1
1
1
1
1
1
0.999999
0.999997
0.999997
0.999997
0.999997
0.999998
0.999999
0.999999
1
1
1
1
1
1
1
1
1
1
1
1
1
1
1
1
1
1
1
1
1
1
1
1
1
1
1
1
1
1
1
1
1
1
1
1
1
1
1
1
1
1
1
1
1
0.999999
1
1
1
1
1
1
1
1
1
1
1
1
0.999999
0.999999
0.999999
1
1
1
1
1
1
1
1
1
1
0.999999
1
1
1
1
1
1
1
1
1
1
1
1
1
1
1
1
1
1
1
1
1
1
1
1
1
1
1
1
1
1
1
1
1
1
0.999999
0.999999
0.999999
1
1
1
1
1
1
1
1
1
1
1
1
1
1
1
1
1
1
1
1
1
1
1
0.999999
0.999997
0.999978
1
0.999999
0.999999
1
1
1
1
0.999999
0.999999
0.999998
0.999998
0.999999
1
1
1
1
1
1
1
1
1
1
1
1
1
1
1
1
1
1
1
1
1
1
1
1
1
1
1
1
1
1
1
1
0.999999
0.999999
0.999998
0.999998
0.999998
0.999998
0.999999
1
1
1
1
1
1
1
1
1
1
1
1
1
1
1
1
1
1
0.999999
0.999986
0.999972
0.999986
1
1
1
1
1
0.999988
0.999818
0.999993
1
1
1
0.999999
0.999998
0.999998
0.999999
1
1
1
1
1
1
1
1
1
1
1
1
0.999999
0.999999
0.999999
0.999999
0.999999
0.999999
0.999999
0.999999
0.999999
1
1
1
1
1
1
1
1
1
1
1
1
1
1
1
1
0.999999
0.999999
0.999999
0.999999
0.999999
1
1
1
1
1
1
1
1
1
1
1
1
1
1
1
1
1
1
1
1
0.999966
0.999956
0.999956
0.99998
1
1
0.999996
1
0.999988
0.999988
0.999926
0.999991
1
0.999999
0.999999
1
1
1
1
1
1
1
1
1
1
1
1
0.999999
0.999999
0.999999
0.999999
0.999999
0.999999
0.999999
1
1
0.999999
1
1
1
1
1
1
1
1
1
1
1
1
1
1
1
1
1
1
1
1
1
1
1
1
1
1
1
1
1
1
1
1
1
1
1
0.999999
1
1
1
0.999999
0.999999
0.999999
1
1
0.999995
0.999957
0.999957
0.999992
1
0.999999
1
0.999522
0.998878
0.999992
0.999992
1
1
0.999999
0.999999
1
0.999999
0.999999
1
1
1
1
1
1
1
1
1
1
1
1
1
1
1
1
1
1
0.999999
0.999999
0.999999
1
1
1
1
1
1
1
1
1
1
1
1
1
1
1
1
1
1
0.999999
1
0.999999
0.999999
0.999999
0.999999
0.999999
1
1
1
1
1
1
1
1
0.999999
0.999999
0.999999
1
1
1
1
1
1
0.999995
0.999975
0.999991
0.999968
1
1
0.995906
0.993966
0.999377
0.999999
0.999999
0.999993
0.999995
1
1
1
1
1
1
1
1
1
1
1
1
1
1
1
1
1
0.999999
0.999999
1
1
1
1
1
1
1
1
1
1
1
1
1
1
1
1
1
1
1
1
1
0.999999
0.999999
0.999999
0.999999
1
1
1
1
1
1
1
1
1
1
1
1
1
1
1
1
1
1
1
1
1
1
1
1
0.999999
0.999999
0.999999
0.996466
0.997693
0.996152
0.993921
0.994521
0.999999
0.999998
0.999986
0.999988
1
1
1
1
1
1
1
1
1
1
1
1
1
1
1
0.999999
0.999999
0.999999
0.999999
1
1
1
1
1
1
1
1
1
1
1
1
1
1
1
1
0.999999
0.999999
0.999999
0.999999
1
1
1
1
1
1
1
1
1
1
1
1
1
1
1
1
1
1
1
1
1
1
1
1
1
1
1
1
1
1
1
0.998616
0.993962
0.993958
0.997511
0.993923
0.993921
0.999667
1
0.999986
0.999989
1
1
1
1
1
1
1
1
1
1
1
1
1
1
1
0.999999
0.999999
0.999999
1
1
1
1
1
1
1
1
1
1
1
1
1
1
1
1
1
1
0.999999
1
1
1
1
1
1
1
1
1
1
1
1
1
1
1
1
1
1
1
1
1
1
1
1
1
1
1
1
1
1
1
1
1
0.994949
0.993958
0.993958
0.999607
0.997468
0.995839
0.999712
1
0.999994
0.999997
0.999999
1
1
1
1
1
1
1
1
0.999999
0.999999
0.999997
0.999997
0.999996
0.999997
0.999997
0.999998
0.999998
0.999999
1
1
1
1
1
1
1
1
1
1
1
1
1
1
1
1
1
1
1
1
1
1
1
1
1
1
1
1
1
0.999999
0.999998
0.999997
0.999995
0.999992
0.99999
0.999989
0.999989
0.999991
0.999994
0.999995
0.999996
0.999998
0.999999
1
1
0.999992
0.999997
1
1
1
1
0.997896
0.996116
0.99705
0.999875
0.99993
0.999933
0.999957
1
1
1
1
1
1
1
1
1
0.999002
0.998237
0.998453
0.999186
0.999759
0.999853
0.999835
0.999844
0.999874
0.99991
0.99994
0.99996
0.999976
0.999987
0.999993
0.999995
0.999997
0.999998
0.999999
0.999999
1
1
1
1
1
1
1
1
1
1
1
1
1
1
1
1
1
1
1
0.999999
0.999994
0.99998
0.999958
0.999923
0.999869
0.999802
0.999729
0.999569
0.998417
0.996218
0.9939
0.992468
0.992225
0.993463
0.996051
0.998813
0.999997
1
1
1
1
1
1
1
1
0.999923
0.999911
0.999982
0.99999
0.999998
1
1
1
0.98725
0.954533
0.907376
0.842167
0.7641
0.681873
0.601914
0.546178
0.52446
0.529825
0.554161
0.591668
0.641152
0.686069
0.733227
0.780912
0.826106
0.865702
0.899126
0.925603
0.943522
0.95314
0.955807
0.954829
0.953011
0.950658
0.950222
0.951148
0.952031
0.950656
0.947517
0.944846
0.944634
0.94831
0.958245
0.968805
0.976578
0.980724
0.982894
0.985006
0.987664
0.990563
0.993676
0.996391
0.997697
0.996786
0.990579
0.971656
0.935972
0.890141
0.839756
0.783801
0.725535
0.668105
0.6071
0.548733
0.503046
0.473145
0.45809
0.456725
0.47184
0.508978
0.572132
0.655499
0.766814
0.87079
0.942476
0.987198
1
1
1
1
0.999994
0.999984
0.740421
0.750741
0.729854
0.677839
0.598684
0.491476
0.376609
0.279452
0.19111
0.111812
0.0522657
0.018381
0.00266853
6.53488e-07
4.39465e-07
3.57343e-07
3.47951e-07
3.46708e-07
3.46664e-07
0.0159982
0.0375577
0.0640856
0.0969316
0.135869
0.179716
0.222521
0.257478
0.279794
0.289083
0.288984
0.28313
0.273292
0.261586
0.251384
0.24698
0.247541
0.252058
0.257489
0.26241
0.265175
0.265721
0.264062
0.268259
0.280764
0.298131
0.316407
0.332817
0.346018
0.356171
0.361593
0.359045
0.343222
0.308116
0.257384
0.202655
0.150969
0.103734
0.0630383
0.0313376
0.00837599
2.02527e-06
3.05807e-06
3.79998e-06
4.23639e-06
4.66785e-06
6.06589e-06
1.29044e-05
2.78119e-05
1.99004e-05
0.020649
0.0654632
0.137564
0.230855
0.346642
0.486693
0.616249
0.725116
0.806308
0.850383
0.864694
0.106594
0.0849652
0.0672646
0.043606
0.0203167
0.00502236
0.000690032
0.000408918
0.000322148
0.000202399
9.87156e-05
5.15705e-05
2.20637e-06
9.7158e-07
1.09868e-06
3.47951e-07
3.46708e-07
3.46607e-07
3.46667e-07
3.46631e-07
3.46667e-07
3.46827e-07
3.47733e-07
3.79177e-07
4.18261e-07
4.26722e-07
4.26722e-07
4.26722e-07
5.71645e-07
1.86737e-06
6.27387e-05
1.54733e-05
1.72409e-05
1.76133e-06
5.50005e-07
9.66877e-07
1.91508e-06
2.56161e-06
0.000166578
0.000336785
8.24406e-07
4.7898e-07
4.77663e-07
2.15649e-07
-3.24501e-06
-2.38808e-05
-2.25095e-05
-1.01789e-05
-3.29206e-06
-4.76234e-06
-1.21516e-05
-5.68643e-06
-2.71619e-07
7.05861e-24
4.03761e-08
1.5058e-07
2.88385e-07
4.03491e-07
5.06585e-07
7.14458e-07
1.20246e-06
2.7658e-06
3.58844e-06
3.97868e-06
4.50019e-06
6.01619e-06
7.68131e-06
1.38259e-05
1.31041e-05
6.50486e-06
5.41547e-06
1.15897e-05
6.14285e-05
0.00053582
0.00622828
0.0274299
0.0635828
0.112053
0.157983
0.185529
0.000877478
0.00034084
0.000207203
0.000210463
0.00020416
0.000154834
0.000102763
0.00010448
0.000142181
0.00013282
0.000114099
0.000133386
7.51727e-05
2.1572e-05
2.42717e-06
3.57292e-07
3.479e-07
3.46708e-07
3.46612e-07
3.46667e-07
3.46827e-07
3.47733e-07
3.69625e-07
9.8855e-06
4.37484e-07
3.06151e-06
1.37791e-06
1.06546e-06
6.40655e-07
1.22091e-06
1.80159e-06
1.52808e-06
1.50173e-06
4.87203e-07
4.35632e-07
5.40424e-07
1.45259e-06
2.40827e-06
1.44548e-06
8.24406e-07
6.70219e-07
4.76125e-07
4.77663e-07
4.77493e-07
4.87522e-07
5.75561e-07
5.13512e-07
3.55412e-07
2.0468e-07
1.88964e-07
2.32616e-07
4.97165e-06
6.87573e-06
6.85097e-06
4.17666e-06
5.27188e-06
4.01174e-06
2.53342e-06
3.41642e-06
9.55897e-06
1.365e-05
1.21643e-05
8.45864e-06
6.49747e-06
4.84617e-06
5.33591e-06
2.35918e-05
5.09151e-05
3.59025e-05
5.41566e-06
4.28846e-06
4.00942e-06
7.06341e-06
4.69873e-05
0.000140339
0.000114446
0.000134651
0.000322831
0.000543083
0.000672002
0.000356147
0.000142536
6.45827e-05
5.21563e-05
5.2155e-05
5.05225e-05
5.31243e-05
7.42357e-05
0.000147123
0.000166124
0.000166688
0.000164106
0.000144713
4.78824e-05
8.02031e-07
4.03757e-07
3.59258e-07
3.479e-07
3.47437e-07
3.75705e-07
3.52657e-07
7.34951e-07
3.18662e-05
7.32696e-05
5.29179e-05
6.84651e-08
2.29321e-08
1.06784e-07
1.83554e-07
2.83171e-07
3.45168e-07
5.95e-07
6.17555e-07
4.35629e-07
4.35612e-07
4.35589e-07
6.53255e-07
1.80867e-06
2.07283e-06
1.83552e-06
8.24406e-07
4.7898e-07
4.77663e-07
4.94661e-07
6.13601e-07
7.1099e-07
7.11645e-07
7.09635e-07
7.30252e-07
6.48338e-07
5.13645e-07
9.4107e-06
1.95935e-05
1.95935e-05
1.92991e-05
2.00121e-05
1.89192e-05
1.03328e-05
1.44773e-05
2.06355e-05
2.06409e-05
2.06189e-05
2.04779e-05
1.99902e-05
7.06811e-06
6.41684e-06
1.45808e-05
5.10939e-05
5.10939e-05
2.68889e-05
4.00945e-06
3.78414e-06
3.69082e-06
7.30503e-05
9.23136e-05
2.11382e-05
2.65685e-05
0.000156048
0.000196501
0.000171157
0.000122143
7.15714e-05
3.90578e-05
3.71506e-05
3.70853e-05
3.8226e-05
4.38398e-05
6.86145e-05
0.000165334
0.000166751
0.000164646
0.000161426
0.000158283
9.69959e-05
1.85349e-06
8.01699e-07
4.58362e-07
3.6037e-07
3.5909e-07
1.22624e-06
1.16262e-05
4.52428e-05
7.43336e-05
7.43336e-05
4.17984e-05
2.01971e-08
1.92385e-08
2.20709e-08
3.3696e-08
7.07361e-08
1.53693e-07
3.26652e-07
5.72171e-07
6.10534e-07
4.35187e-07
5.00827e-07
1.11726e-05
5.43089e-05
8.3031e-05
8.03381e-05
3.99771e-05
1.52652e-05
4.1688e-06
6.34563e-07
7.24909e-07
7.0599e-07
7.09649e-07
7.41265e-07
6.57611e-07
5.09966e-07
4.27995e-07
1.05267e-07
6.08785e-06
1.71881e-05
1.99945e-05
2.00261e-05
2.00101e-05
2.00165e-05
2.03287e-05
2.06392e-05
2.03195e-05
1.60324e-05
9.6464e-06
8.27242e-06
7.70843e-06
6.81232e-06
1.15232e-05
2.38013e-05
2.82936e-05
1.77457e-05
3.78414e-06
3.69543e-06
3.68855e-06
3.68997e-06
7.15898e-05
1.3041e-05
1.35155e-05
0.000150017
0.000169604
0.000123179
5.26395e-05
3.90578e-05
3.62609e-05
3.56363e-05
3.5407e-05
3.59726e-05
3.82571e-05
0.000100931
0.000162828
0.000164646
0.000161742
0.00015964
0.000156995
0.000155593
9.45106e-05
2.87739e-05
2.4843e-06
4.58845e-07
4.27457e-07
3.40302e-06
5.98539e-05
7.37263e-05
7.43336e-05
5.13163e-05
2.00199e-08
1.65435e-08
1.78903e-08
1.92369e-08
2.2046e-08
3.37608e-08
7.03602e-08
1.87665e-07
4.88763e-07
8.39974e-07
1.20479e-06
7.08647e-05
0.000177641
0.000177641
0.000177786
0.00017749
0.000178352
0.0001853
0.000102266
5.31722e-05
3.94283e-05
1.2987e-05
5.41612e-06
3.44766e-05
3.87221e-05
1.03838e-05
7.38436e-08
4.59069e-08
4.59069e-08
3.7701e-08
2.62101e-06
1.0955e-05
1.19707e-05
9.32497e-06
9.3601e-06
3.659e-06
1.60927e-06
1.80954e-06
2.18396e-06
6.93143e-06
2.66791e-05
3.35174e-05
1.96119e-05
1.06587e-05
1.45866e-05
1.36111e-05
3.98159e-06
3.70755e-06
3.68997e-06
3.68855e-06
3.9584e-06
3.85956e-06
4.29906e-06
0.000118799
0.000225134
0.000119899
3.99776e-05
3.62609e-05
3.56363e-05
3.5407e-05
3.52359e-05
3.5407e-05
3.59726e-05
8.62461e-05
0.000132238
0.000131874
0.000137825
0.000145778
0.000136387
0.000112421
0.000114436
0.000114244
5.81247e-05
9.43649e-07
1.92811e-07
1.11398e-06
2.21337e-05
3.67253e-05
1.30423e-05
9.4002e-07
1.42276e-08
1.65439e-08
1.65444e-08
1.8021e-08
2.5993e-08
5.75988e-08
1.67428e-07
4.80534e-07
1.41954e-06
1.71301e-05
0.000147042
0.000177392
0.000177641
0.0001778
0.000177641
0.000176897
0.000174908
0.000174753
0.0001696
0.000157039
0.000144905
9.32594e-05
3.94968e-05
9.07053e-05
9.07053e-05
9.01913e-05
1.1572e-05
7.38436e-08
3.7701e-08
2.15953e-08
8.7615e-09
3.03621e-09
2.15909e-09
2.1739e-09
2.1587e-09
2.42202e-09
1.0662e-08
3.39319e-06
3.8427e-05
6.81627e-05
8.57131e-05
8.3838e-05
7.52585e-05
9.15659e-06
4.3557e-06
4.16169e-06
3.9736e-06
3.82946e-06
4.67894e-06
3.68997e-06
3.77329e-06
3.89456e-06
3.98083e-06
4.50452e-06
0.000225102
0.000117794
4.10937e-05
3.89697e-05
3.60317e-05
3.53133e-05
3.53133e-05
3.53056e-05
5.4672e-05
3.26546e-05
1.75555e-05
2.47047e-05
2.81184e-05
9.31893e-06
8.61905e-06
2.57708e-06
3.42371e-05
7.82835e-05
8.97066e-05
5.90005e-05
5.39967e-09
3.40127e-09
5.39967e-09
5.59424e-08
1.77262e-08
1.36393e-08
1.08987e-08
1.4244e-08
1.6538e-08
2.24032e-08
5.08006e-08
1.63304e-07
5.96496e-07
2.05395e-06
2.34705e-05
0.000154935
0.000176812
0.000177024
0.000177392
0.000177641
0.000176897
0.000175053
0.000170286
6.95906e-05
1.95772e-05
1.381e-05
9.71691e-06
3.86406e-05
8.72995e-05
9.077e-05
9.03798e-05
9.11875e-05
8.60136e-05
1.18369e-06
7.86061e-08
3.86388e-08
2.1584e-08
8.59481e-09
2.97983e-09
2.17239e-09
2.42168e-09
4.96087e-09
4.98111e-07
7.08655e-05
9.13849e-05
9.08654e-05
8.91277e-05
8.57131e-05
7.29247e-05
9.11726e-06
4.91521e-06
4.70608e-06
1.3268e-05
5.45983e-06
1.40671e-05
5.74165e-05
5.84539e-05
1.19115e-05
4.10554e-06
5.25394e-06
0.000118689
0.000115113
4.39863e-05
5.73154e-05
8.36368e-05
8.16467e-05
5.42059e-05
6.14495e-05
6.15573e-05
1.29779e-05
2.01221e-07
8.18889e-07
2.90486e-06
2.8948e-06
2.266e-06
2.13103e-06
2.16138e-06
1.11317e-05
8.97066e-05
8.77762e-05
3.40127e-09
2.96935e-09
5.80761e-09
1.68687e-08
4.39842e-09
5.53257e-09
9.07655e-09
1.10566e-08
1.54977e-08
3.31181e-08
1.03891e-07
3.85607e-07
1.49312e-06
1.25474e-05
0.000130391
0.000175476
0.000176792
0.000176812
0.000177097
0.0001752
8.79732e-05
3.09268e-05
3.60849e-05
2.37985e-05
1.38096e-05
8.37726e-06
5.88536e-06
3.68452e-06
3.64355e-06
1.87117e-05
8.06762e-05
9.30965e-05
0.00010253
7.83509e-05
2.09297e-06
9.28864e-07
8.24726e-07
1.62054e-07
2.55644e-08
2.97723e-09
5.2091e-09
2.19294e-08
1.70938e-05
9.35057e-05
9.38234e-05
6.3123e-05
4.06977e-05
2.89039e-05
3.39339e-06
4.11262e-06
9.13796e-06
3.42186e-05
5.65808e-05
5.38259e-05
4.97935e-05
6.09523e-05
6.09709e-05
6.09709e-05
2.31508e-05
6.17481e-06
7.54867e-06
0.00012106
5.7803e-05
8.86706e-05
8.87786e-05
8.82467e-05
8.69243e-05
7.97862e-05
2.64611e-05
4.8201e-07
1.48181e-07
1.56978e-07
1.65654e-07
1.77426e-07
2.76772e-06
2.70967e-06
2.1433e-06
3.24961e-06
8.70956e-05
8.67422e-05
4.16165e-05
2.90564e-09
3.10723e-09
6.32886e-09
3.28285e-09
4.25916e-09
6.21176e-09
8.11428e-09
1.62565e-08
5.01109e-08
1.93131e-07
7.81067e-07
3.15551e-06
6.30762e-05
0.000174205
0.000174605
0.000175469
0.000176608
9.05272e-05
1.40612e-05
1.65e-05
1.85425e-05
2.15759e-05
8.14211e-05
0.00010048
3.40265e-05
3.68396e-06
2.213e-06
1.39139e-06
4.63753e-07
4.26938e-07
2.66794e-05
0.000101427
0.000119588
0.000125951
8.02204e-05
7.88281e-05
4.58626e-05
6.23839e-06
2.56806e-08
2.19297e-08
3.09815e-06
7.8911e-05
9.38234e-05
6.66458e-05
8.39129e-07
7.33855e-07
8.39129e-07
9.695e-07
4.97178e-06
3.95913e-05
4.35698e-05
4.19977e-05
8.55547e-05
3.58739e-05
3.53053e-05
4.10829e-05
5.8633e-05
5.62276e-05
1.27344e-05
1.0862e-05
0.000169885
6.33167e-05
8.91723e-05
8.90501e-05
8.87786e-05
8.82581e-05
2.11192e-05
3.69641e-07
1.48181e-07
1.48181e-07
1.48181e-07
4.5457e-07
3.44275e-05
8.09012e-05
7.8828e-05
1.54803e-05
3.53105e-06
1.9525e-05
8.57443e-05
6.58394e-05
2.9188e-09
2.88904e-09
2.91035e-09
3.03545e-09
3.28285e-09
3.98006e-09
6.77142e-09
1.89567e-08
7.24387e-08
3.21978e-07
1.414e-06
2.25708e-05
0.000170181
0.000175852
0.000174651
0.000174416
0.000112087
1.12183e-05
1.2103e-05
1.3717e-05
1.70914e-05
9.62249e-05
0.000151034
0.000150771
0.000149551
4.663e-05
1.07649e-06
5.98746e-07
3.82362e-07
1.52264e-07
2.86166e-07
4.06565e-06
0.000116355
0.000136856
0.000137171
0.000136856
0.000137116
0.000112333
1.21843e-05
8.33364e-08
1.34297e-05
9.24121e-05
9.35057e-05
7.66868e-06
7.33855e-07
6.31048e-07
1.45222e-06
1.4172e-06
5.54718e-06
1.20849e-05
6.53243e-06
8.66666e-06
7.99524e-05
0.000213709
5.95765e-05
2.10657e-05
4.24617e-05
4.74893e-05
1.24941e-05
1.23703e-05
0.000221566
6.49736e-05
8.92254e-05
8.91723e-05
8.9051e-05
2.85565e-05
2.85848e-06
2.51159e-06
2.81377e-06
1.48181e-07
1.60585e-07
1.98803e-05
0.000109311
0.000109392
0.000109373
9.70546e-05
6.35401e-06
5.54848e-06
7.71283e-05
7.69015e-05
1.42173e-05
2.89514e-09
2.88904e-09
2.91035e-09
3.03545e-09
3.677e-09
6.91554e-09
2.34051e-08
1.05255e-07
4.96426e-07
2.3544e-06
5.99444e-05
0.000179643
0.000178313
0.000177705
0.000148873
1.12185e-05
1.01806e-05
1.06103e-05
1.19001e-05
3.32854e-05
0.000150851
0.000150838
0.000150838
0.000150997
0.00014928
5.63557e-06
6.0043e-08
3.33522e-08
1.19009e-07
1.81799e-07
3.45464e-07
3.96796e-08
7.52373e-05
0.000136856
0.000137172
0.000137116
0.000136739
0.000123288
1.65199e-07
1.27192e-05
9.1793e-05
9.15169e-05
3.27342e-05
4.71739e-07
2.78041e-07
5.11937e-06
1.06283e-05
1.49128e-05
6.68545e-06
6.50283e-06
0.000129817
0.000122641
0.000288635
0.000243872
1.79964e-05
1.34647e-05
1.30642e-05
1.25919e-05
1.2494e-05
0.000230318
7.78999e-05
8.92254e-05
8.92254e-05
5.09582e-05
3.91714e-06
4.88362e-06
5.14008e-06
2.04904e-06
1.72877e-07
2.00696e-07
3.26037e-05
0.000108962
0.00010937
0.000109615
0.000109545
3.69893e-05
2.85083e-06
4.90142e-05
7.36043e-05
2.5189e-05
2.89061e-09
2.89514e-09
4.66493e-09
3.85733e-09
4.68417e-09
8.34433e-09
2.94094e-08
1.52219e-07
8.0215e-07
1.87535e-05
0.000177692
0.000178966
0.00017791
0.000180283
7.55481e-05
1.0181e-05
9.90914e-06
9.99133e-06
1.04096e-05
1.76816e-05
0.000117875
0.000150838
0.000150997
0.000151212
0.000150997
0.000104248
1.45885e-08
9.8794e-09
1.37871e-08
3.47118e-07
4.31113e-07
5.02468e-09
2.15546e-09
1.62132e-05
0.00010773
0.000136739
0.000137061
0.000135969
2.79161e-05
3.19433e-06
4.9545e-05
8.88483e-05
8.26972e-05
5.13091e-07
1.58065e-07
2.16366e-06
2.6441e-05
3.35547e-05
7.57974e-06
7.05072e-06
0.000211831
0.000166776
0.000288682
0.000288635
0.000130014
1.31088e-05
1.25919e-05
1.24882e-05
8.89662e-05
0.000231202
8.91675e-05
8.92254e-05
8.91675e-05
4.73171e-06
3.43595e-06
5.84049e-06
3.76931e-06
2.19716e-07
2.08731e-07
2.19716e-07
1.69326e-05
8.5054e-05
9.12816e-05
0.000109425
0.000109603
6.65707e-05
1.95171e-06
9.62589e-06
4.68129e-05
2.30737e-05
2.89514e-09
4.72475e-08
1.26567e-07
8.61469e-09
6.73626e-09
1.06906e-08
3.43048e-08
1.87155e-07
1.11047e-06
4.49009e-05
0.000178544
0.000179031
0.000178563
0.000177226
9.68405e-05
9.90867e-06
9.84595e-06
9.87858e-06
9.99133e-06
1.04158e-05
2.13148e-05
0.000135128
0.000151212
0.000151212
0.000151212
0.000140985
9.8794e-09
7.44903e-09
1.45073e-08
3.7879e-07
4.54487e-07
2.62374e-09
1.77436e-09
2.15546e-09
2.41369e-08
7.19381e-05
0.000135969
0.000133627
7.58019e-05
7.02712e-07
1.38505e-05
8.43186e-05
8.26921e-05
4.39305e-05
1.53091e-07
1.53988e-07
8.08034e-06
3.37199e-05
3.35084e-05
6.50489e-05
0.000216186
0.000146224
0.000288699
0.000288682
0.000265632
1.27475e-05
1.25242e-05
1.2558e-05
0.000202248
0.000202532
8.83799e-05
8.80688e-05
3.11956e-05
3.2511e-06
3.0558e-06
5.83646e-06
2.68166e-06
3.94074e-07
2.19716e-07
1.4627e-06
3.07884e-05
3.65443e-06
3.28789e-06
6.76351e-05
0.000109425
4.45983e-05
1.02813e-06
1.21393e-06
8.32437e-06
2.70119e-05
4.66891e-06
2.90126e-08
4.51201e-08
4.23985e-09
4.81186e-09
8.00968e-09
3.32814e-08
2.28512e-07
8.40479e-06
0.000140599
0.000179031
0.000179202
0.000179061
0.000178521
0.000176293
5.68705e-05
9.87858e-06
9.84595e-06
9.87858e-06
1.56587e-05
3.32702e-05
3.14255e-05
0.000120298
0.000151212
0.000150251
0.000140592
7.44903e-09
4.67331e-09
1.98421e-09
3.97075e-08
4.06045e-07
2.09886e-08
1.73821e-09
1.77436e-09
2.29469e-09
2.42762e-08
5.992e-05
0.000100837
5.41664e-06
7.02712e-07
8.66918e-07
1.12847e-05
7.87576e-05
4.70605e-05
1.53448e-07
1.5279e-07
1.53988e-07
1.47198e-05
1.41288e-05
0.0002072
0.000216773
0.000143226
0.000288673
0.000288719
0.000288365
0.000236487
0.000128161
0.00011431
0.000176249
0.000214681
8.76641e-05
8.33356e-05
3.31316e-06
3.03293e-06
2.97326e-06
4.79905e-06
8.67066e-06
3.56587e-05
9.20892e-06
3.81805e-06
3.66569e-05
3.49831e-06
2.9794e-06
2.31609e-06
3.31873e-05
3.50025e-06
9.91975e-07
1.02813e-06
3.99685e-06
2.70119e-05
2.48252e-05
7.13849e-09
4.23986e-09
4.11577e-09
4.23986e-09
5.81543e-09
2.15473e-08
1.67114e-07
1.50494e-05
0.000178962
0.000179202
0.000179234
0.000179213
0.000179092
0.000178651
0.000175173
4.21045e-05
9.87858e-06
9.89329e-06
4.54239e-05
5.7048e-05
2.86026e-05
1.64037e-05
0.000150251
0.000149291
0.000147991
6.84205e-09
1.98417e-09
1.5818e-09
9.53943e-10
9.19708e-10
4.96615e-09
1.70493e-09
5.5776e-09
5.1075e-09
9.01516e-09
3.26064e-08
5.76503e-07
9.57175e-07
7.02693e-07
7.62636e-07
8.2256e-07
1.7502e-05
2.78733e-06
1.53086e-07
1.53988e-07
1.69187e-07
1.68931e-06
4.37049e-06
0.00021666
0.000217245
0.000201478
0.000288682
0.000288539
0.000288516
0.000288112
0.000286191
0.000283331
0.000233632
0.000272531
8.75975e-05
8.71743e-05
8.28218e-06
2.97366e-06
2.97386e-06
2.97322e-06
1.10401e-05
3.81405e-05
3.45994e-05
4.37049e-06
3.66569e-05
3.31046e-06
2.31609e-06
1.90632e-06
1.13271e-06
9.91975e-07
9.87257e-07
9.91975e-07
1.0611e-06
1.34429e-05
4.64739e-05
5.42008e-05
1.90764e-05
4.19356e-09
4.11632e-09
4.49963e-09
9.99837e-09
1.52321e-07
8.93784e-06
0.000120518
0.000179221
0.000179221
0.000179223
0.000179213
0.000179092
0.000178726
0.000177138
1.39876e-05
1.03022e-05
1.07477e-05
5.65621e-05
5.45949e-05
1.39115e-05
0.000103708
0.000149291
0.000131087
5.7784e-06
1.82861e-09
1.36359e-09
9.19708e-10
9.14227e-10
9.06179e-10
1.38345e-09
2.71489e-08
5.5407e-08
3.59758e-08
5.1322e-08
1.37647e-05
4.34309e-05
1.43653e-06
8.22559e-07
5.84495e-07
2.47037e-07
1.67004e-07
1.54093e-07
1.57425e-07
1.63987e-07
3.31951e-05
8.91793e-05
0.000217245
0.000217548
0.000217245
5.81646e-05
0.00022617
0.000288169
0.000288553
0.000288219
0.000287111
0.000283293
0.000274282
8.04454e-05
8.64731e-05
7.38467e-05
3.01593e-06
2.97368e-06
3.01604e-06
8.78401e-06
3.81405e-05
3.81405e-05
7.2011e-06
9.2886e-06
3.74968e-06
2.87264e-06
4.91772e-06
2.27751e-05
2.03195e-05
9.91804e-07
9.87257e-07
1.00347e-06
1.19893e-06
1.61104e-05
0.000100258
0.000122003
1.04359e-05
4.24223e-09
5.75008e-09
7.77799e-09
1.97074e-07
4.51303e-06
1.45443e-05
8.95345e-05
0.000131862
0.000172154
0.000179092
0.000178726
0.000178734
0.000178597
0.000102941
1.07621e-05
1.0729e-05
2.94672e-05
1.89336e-05
1.038e-05
6.32154e-05
0.000148964
5.31923e-05
4.83657e-06
6.1311e-09
3.55915e-09
9.67529e-10
9.06179e-10
9.00799e-10
8.99344e-10
2.93533e-08
8.08371e-08
4.59964e-08
4.06445e-08
5.04858e-05
0.000140743
7.42673e-05
1.43361e-05
7.19154e-06
6.20233e-07
2.47002e-07
1.67003e-07
1.64406e-07
2.4095e-07
4.81267e-05
0.000202491
0.000213594
0.000217246
0.00017275
2.61462e-05
3.11235e-05
0.000152621
0.000288572
0.000288553
0.000288219
0.00028711
0.000179842
2.84377e-05
8.54859e-05
8.39689e-05
2.48217e-05
3.01676e-06
3.05852e-06
6.33781e-06
3.81405e-05
3.71029e-05
6.6453e-06
6.60187e-06
1.13813e-05
3.13904e-05
7.21946e-06
2.64185e-05
2.67486e-05
1.62304e-05
1.00347e-06
1.01029e-06
1.08011e-06
7.46325e-06
0.000106541
0.000124675
0.000116195
1.1021e-06
7.77492e-09
1.75184e-08
1.13471e-07
7.03738e-07
1.04416e-06
4.36011e-06
1.2735e-05
2.39525e-05
5.69308e-05
0.000147677
0.000178597
0.000177913
0.000177247
4.23107e-05
1.11273e-05
1.00137e-05
9.48117e-06
1.00137e-05
8.54262e-05
0.000146217
5.18982e-05
1.54825e-07
1.08239e-08
2.34761e-09
1.00669e-09
9.23264e-10
9.27705e-10
8.97357e-10
7.13402e-09
8.08559e-08
5.98219e-08
4.06448e-08
3.3843e-05
0.000142731
0.000143722
0.000143192
0.000116601
5.08208e-05
1.05385e-06
2.59748e-07
1.82835e-07
1.89283e-06
3.57198e-05
0.000129384
0.00013986
9.28286e-05
2.38404e-05
2.44382e-05
2.61462e-05
0.000204514
0.000288553
0.000288581
0.000288381
0.000276911
4.82815e-05
2.76505e-05
8.31355e-05
8.19895e-05
8.10898e-05
3.3195e-06
3.07998e-06
3.33294e-06
3.70237e-05
3.78168e-05
7.54872e-06
7.19063e-06
6.82036e-05
0.000115324
2.167e-05
2.54839e-06
2.04852e-05
2.61975e-05
1.79941e-05
3.9733e-06
1.86348e-06
2.06721e-05
0.000124675
0.000124675
0.000124675
7.51252e-06
1.69646e-08
2.37311e-08
2.71316e-08
4.33234e-08
2.39662e-07
1.04416e-06
4.92329e-05
0.000133964
6.73823e-05
7.16034e-05
0.000140738
0.000177247
0.000162208
4.02265e-05
1.70706e-05
9.48117e-06
8.51802e-06
9.48115e-06
9.39168e-05
0.000141296
5.45156e-05
2.45726e-07
1.8483e-08
2.26318e-09
1.02083e-09
9.53003e-10
9.58661e-10
8.9554e-10
8.95224e-10
4.03503e-08
7.01879e-08
4.01351e-08
3.78041e-08
9.91591e-05
0.000146912
0.000147589
0.000147062
0.000147787
4.17856e-05
6.01297e-07
2.69177e-07
4.4446e-06
1.12896e-05
1.32109e-05
6.15276e-05
1.79309e-05
1.83133e-05
2.09728e-05
0.000154699
0.000287874
0.000288581
0.000288381
0.000234141
5.3008e-05
4.68171e-05
3.7346e-05
4.11248e-05
8.12196e-05
7.98234e-05
5.94431e-05
3.33266e-06
4.03957e-06
2.98267e-05
3.78168e-05
8.75015e-06
1.267e-05
0.000110096
0.000119316
5.42505e-05
2.23872e-06
7.54116e-06
2.61129e-05
2.61975e-05
1.10263e-05
3.4731e-06
5.67387e-05
0.00012459
0.000124675
0.000124597
7.40088e-06
2.85287e-08
2.45478e-08
4.13044e-08
5.1699e-08
5.1398e-06
0.000123027
0.000190185
0.000181763
0.000171877
0.000160029
0.000166166
0.000136375
3.85548e-05
1.50685e-05
2.52598e-05
1.40208e-05
7.10852e-06
8.51797e-06
8.64357e-05
0.000137251
1.77384e-05
1.99079e-07
2.10979e-08
2.29744e-09
1.07908e-09
9.42613e-10
9.2833e-10
8.95813e-10
8.94891e-10
8.95047e-10
6.40175e-08
6.31257e-08
3.46185e-08
8.94679e-09
9.19208e-05
0.000147015
0.000147799
0.000147787
0.000140111
1.78565e-05
6.01841e-07
5.14042e-06
3.80454e-06
4.47951e-06
5.71181e-06
1.18218e-05
1.7271e-05
0.00012933
0.000281569
0.000285326
0.000288029
8.57296e-05
4.34334e-05
3.78359e-05
4.72286e-05
4.57271e-05
1.51093e-05
6.94649e-05
7.77355e-05
7.66469e-05
3.74231e-05
4.81368e-06
2.61499e-05
3.67522e-05
6.53305e-06
1.19925e-05
0.000113847
0.000122391
7.92383e-05
1.32205e-06
7.69895e-07
1.03516e-05
1.37215e-05
2.88659e-06
1.8074e-05
0.000123616
0.000124546
0.00012459
0.00012454
1.97161e-05
5.13211e-08
2.98001e-08
9.16626e-08
7.4719e-08
0.000118304
0.000193461
0.000191656
0.000178873
0.000173644
0.000169837
0.00016769
0.000103537
1.06247e-05
6.83284e-06
6.16014e-06
6.24593e-06
6.33305e-06
4.39781e-05
9.2208e-05
5.08723e-05
1.39813e-06
1.17421e-07
1.12932e-08
2.58462e-09
1.11951e-09
9.30601e-10
9.07564e-10
9.03029e-10
8.95047e-10
8.95011e-10
6.74751e-09
4.66194e-08
4.67135e-08
7.41659e-09
2.10096e-09
5.71855e-05
0.00014666
0.000147794
0.000146639
5.78085e-05
1.36528e-06
1.64468e-06
2.07803e-06
5.15108e-06
1.34788e-05
2.0585e-05
1.99832e-05
0.000142835
0.000272148
0.00012626
4.77925e-05
3.98885e-05
3.79145e-05
3.72399e-05
1.7899e-05
4.57296e-05
1.40331e-05
8.16362e-06
6.41647e-05
7.39435e-05
7.18509e-05
4.7082e-05
4.8749e-05
3.50871e-05
4.23584e-06
9.09893e-06
0.000111006
0.000123331
0.000122419
2.39984e-05
4.45473e-07
2.66583e-07
2.74927e-07
4.83019e-07
1.62518e-05
7.53956e-05
7.14297e-05
6.56953e-05
0.000123902
0.00011389
3.24848e-06
5.13221e-08
8.02829e-08
1.83519e-05
0.000193461
0.000193866
0.000179429
3.55003e-05
3.42789e-05
0.000132437
0.0001238
2.95778e-05
6.83786e-06
6.1588e-06
6.1588e-06
6.1588e-06
1.42485e-05
9.08099e-05
9.25429e-05
3.68205e-05
6.56369e-07
9.87278e-08
1.27367e-08
2.72824e-09
1.17053e-09
9.65783e-10
9.1922e-10
9.00655e-10
8.96016e-10
8.95047e-10
8.96016e-10
1.64636e-08
2.99331e-08
9.7404e-09
1.5184e-09
1.52477e-09
7.32132e-05
0.000146639
0.000144574
6.08829e-05
1.27725e-07
8.44049e-08
5.61074e-06
2.44785e-05
2.56933e-05
2.15635e-05
2.22397e-05
4.11175e-05
4.01344e-05
3.98109e-05
4.44658e-05
4.67478e-05
3.81512e-05
1.19738e-06
9.72842e-09
4.57311e-05
1.67857e-05
2.10059e-06
8.25325e-06
3.85869e-05
6.75973e-05
6.09235e-05
5.54401e-05
3.39973e-05
2.10011e-06
8.67521e-06
8.36651e-05
0.000123395
0.000123359
0.000121112
2.03543e-05
2.22193e-07
1.63115e-07
3.03993e-07
6.05508e-06
7.76904e-06
8.75463e-07
9.28032e-09
2.0384e-05
0.00011429
1.55826e-05
1.13438e-07
9.49882e-08
0.000104461
0.000193866
0.000193937
0.000193926
3.04865e-05
2.23767e-05
1.77384e-05
1.17738e-05
6.84505e-06
6.17318e-06
6.16599e-06
6.1588e-06
2.02607e-05
8.27719e-05
8.58764e-05
6.6078e-05
5.31673e-06
2.3328e-07
3.71468e-08
7.11328e-09
2.09032e-09
1.3251e-09
1.11338e-09
9.72006e-10
9.17784e-10
9.14339e-10
8.96117e-10
8.95415e-10
8.97178e-10
9.06721e-10
2.50949e-09
1.40009e-09
1.45122e-09
1.09791e-05
0.00010847
3.6569e-05
1.27758e-05
2.03006e-08
8.23064e-09
9.72202e-06
2.3463e-05
1.42157e-05