/*--------------------------------*- C++ -*----------------------------------*\
| =========                 |                                                 |
| \\      /  F ield         | OpenFOAM: The Open Source CFD Toolbox           |
|  \\    /   O peration     | Version:  2412                                  |
|   \\  /    A nd           | Website:  www.openfoam.com                      |
|    \\/     M anipulation  |                                                 |
\*---------------------------------------------------------------------------*/
FoamFile
{
    version     2.0;
    format      ascii;
    arch        "LSB;label=32;scalar=64";
    class       volVectorField;
    location    "15";
    object      U;
}
// * * * * * * * * * * * * * * * * * * * * * * * * * * * * * * * * * * * * * //

dimensions      [0 1 -1 0 0 0 0];

internalField   nonuniform List<vector> 
6400
(
(-1.20955e-08 6.01263e-08 0)
(2.39074e-09 5.54788e-08 0)
(1.62695e-08 4.26355e-08 0)
(1.0191e-07 4.22587e-08 0)
(2.55859e-07 3.05253e-08 0)
(4.08111e-07 2.14181e-08 0)
(5.78249e-07 1.22043e-08 0)
(7.50183e-07 -1.61525e-08 0)
(8.80815e-07 -3.79073e-08 0)
(1.00199e-06 -3.86322e-08 0)
(1.16767e-06 -3.70069e-08 0)
(1.34292e-06 -2.62533e-08 0)
(1.47308e-06 -3.44732e-09 0)
(1.55386e-06 1.21207e-08 0)
(1.61431e-06 1.32996e-08 0)
(1.67222e-06 2.40652e-08 0)
(1.74454e-06 5.9813e-08 0)
(1.83e-06 1.00335e-07 0)
(1.89447e-06 1.12615e-07 0)
(1.89729e-06 9.12901e-08 0)
(1.83472e-06 6.07295e-08 0)
(1.74321e-06 4.40133e-08 0)
(1.65492e-06 4.54381e-08 0)
(1.58283e-06 5.41652e-08 0)
(1.53468e-06 5.84099e-08 0)
(1.51884e-06 5.50037e-08 0)
(1.53452e-06 4.66617e-08 0)
(1.56384e-06 3.56874e-08 0)
(1.58125e-06 2.34074e-08 0)
(1.57253e-06 1.30055e-08 0)
(1.54173e-06 8.808e-09 0)
(1.49864e-06 1.15438e-08 0)
(1.44284e-06 1.58258e-08 0)
(1.36377e-06 1.40611e-08 0)
(1.25621e-06 3.18456e-09 0)
(1.13205e-06 -1.29409e-08 0)
(1.01384e-06 -2.76397e-08 0)
(9.16537e-07 -3.72551e-08 0)
(8.36019e-07 -4.30491e-08 0)
(7.54669e-07 -4.86001e-08 0)
(6.57006e-07 -5.64063e-08 0)
(5.40901e-07 -6.68222e-08 0)
(4.17224e-07 -7.91661e-08 0)
(3.01989e-07 -9.284e-08 0)
(2.09272e-07 -1.0696e-07 0)
(1.48857e-07 -1.19024e-07 0)
(1.26103e-07 -1.24568e-07 0)
(1.39926e-07 -1.19241e-07 0)
(1.79118e-07 -1.02265e-07 0)
(2.22277e-07 -7.81651e-08 0)
(2.45554e-07 -5.43541e-08 0)
(2.34897e-07 -3.59192e-08 0)
(1.92837e-07 -2.20714e-08 0)
(1.32524e-07 -7.64728e-09 0)
(6.26315e-08 1.15677e-08 0)
(-2.40422e-08 3.46178e-08 0)
(-1.47817e-07 5.5973e-08 0)
(-3.2686e-07 7.01402e-08 0)
(-5.6202e-07 7.57725e-08 0)
(-8.33902e-07 7.57725e-08 0)
(-1.11416e-06 7.37598e-08 0)
(-1.3809e-06 7.062e-08 0)
(-1.62529e-06 6.38608e-08 0)
(-1.84507e-06 5.04726e-08 0)
(-2.03288e-06 3.05657e-08 0)
(-2.17014e-06 9.09039e-09 0)
(-2.2346e-06 -5.47138e-09 0)
(-2.21819e-06 -6.19934e-09 0)
(-2.13995e-06 4.93839e-09 0)
(-2.03675e-06 1.66789e-08 0)
(-1.93424e-06 1.7589e-08 0)
(-1.82485e-06 6.88378e-09 0)
(-1.67763e-06 -6.63235e-09 0)
(-1.47231e-06 -1.66973e-08 0)
(-1.219e-06 -2.48035e-08 0)
(-9.41539e-07 -2.94431e-08 0)
(-6.55187e-07 -2.20851e-08 0)
(-3.7801e-07 -1.76131e-09 0)
(-1.58722e-07 1.97167e-08 0)
(-2.99198e-08 2.17e-08 0)
(-6.99283e-08 2.54134e-07 0)
(-7.125e-08 3.24679e-07 0)
(-4.37678e-08 2.6628e-07 0)
(6.02374e-08 2.38295e-07 0)
(2.61247e-07 2.1295e-07 0)
(4.7791e-07 1.84138e-07 0)
(7.0256e-07 1.47356e-07 0)
(9.35324e-07 7.57289e-08 0)
(1.14679e-06 1.12394e-08 0)
(1.35153e-06 1.16145e-08 0)
(1.61458e-06 3.26111e-08 0)
(1.89003e-06 5.3981e-08 0)
(2.07651e-06 8.14099e-08 0)
(2.17163e-06 1.14381e-07 0)
(2.25477e-06 1.5683e-07 0)
(2.36532e-06 2.1738e-07 0)
(2.48967e-06 2.87203e-07 0)
(2.58581e-06 3.32593e-07 0)
(2.61654e-06 3.22867e-07 0)
(2.57593e-06 2.67235e-07 0)
(2.4851e-06 2.12444e-07 0)
(2.37599e-06 1.90826e-07 0)
(2.26294e-06 1.97944e-07 0)
(2.15176e-06 2.08294e-07 0)
(2.06336e-06 2.01724e-07 0)
(2.02467e-06 1.76093e-07 0)
(2.03955e-06 1.39909e-07 0)
(2.07957e-06 1.0109e-07 0)
(2.1067e-06 6.55042e-08 0)
(2.10208e-06 3.97802e-08 0)
(2.06953e-06 2.82301e-08 0)
(2.01437e-06 2.60561e-08 0)
(1.92695e-06 1.94863e-08 0)
(1.79239e-06 -3.86791e-09 0)
(1.61373e-06 -4.42014e-08 0)
(1.41948e-06 -8.97005e-08 0)
(1.24488e-06 -1.27408e-07 0)
(1.10529e-06 -1.53576e-07 0)
(9.87345e-07 -1.74332e-07 0)
(8.63489e-07 -1.98261e-07 0)
(7.14353e-07 -2.29315e-07 0)
(5.40304e-07 -2.65726e-07 0)
(3.57551e-07 -3.03507e-07 0)
(1.87628e-07 -3.39374e-07 0)
(5.05102e-08 -3.69914e-07 0)
(-3.70897e-08 -3.88852e-07 0)
(-6.42629e-08 -3.87138e-07 0)
(-3.32566e-08 -3.58308e-07 0)
(3.37591e-08 -3.05428e-07 0)
(9.89468e-08 -2.42414e-07 0)
(1.26958e-07 -1.86258e-07 0)
(1.05089e-07 -1.45477e-07 0)
(4.75927e-08 -1.14862e-07 0)
(-2.21672e-08 -8.16786e-08 0)
(-9.79329e-08 -3.79135e-08 0)
(-2.02506e-07 1.22807e-08 0)
(-3.74037e-07 5.60887e-08 0)
(-6.37633e-07 8.23501e-08 0)
(-9.85311e-07 8.93697e-08 0)
(-1.37986e-06 8.37111e-08 0)
(-1.77756e-06 7.2689e-08 0)
(-2.15095e-06 5.80882e-08 0)
(-2.49275e-06 3.66502e-08 0)
(-2.80044e-06 5.79423e-09 0)
(-3.05709e-06 -2.92323e-08 0)
(-3.2276e-06 -5.38352e-08 0)
(-3.2779e-06 -5.07366e-08 0)
(-3.20764e-06 -1.41584e-08 0)
(-3.06359e-06 3.97338e-08 0)
(-2.90998e-06 8.07577e-08 0)
(-2.77258e-06 9.0688e-08 0)
(-2.61788e-06 7.91487e-08 0)
(-2.39389e-06 6.90893e-08 0)
(-2.08509e-06 6.86287e-08 0)
(-1.71269e-06 7.17661e-08 0)
(-1.29963e-06 8.383e-08 0)
(-8.67877e-07 1.18862e-07 0)
(-4.6794e-07 1.64428e-07 0)
(-1.78782e-07 1.79014e-07 0)
(-2.52179e-08 1.10274e-07 0)
(-1.06589e-07 4.93727e-07 0)
(-1.54476e-07 6.88254e-07 0)
(-1.41529e-07 5.93641e-07 0)
(-1.92369e-08 5.09448e-07 0)
(1.7197e-07 4.59576e-07 0)
(3.63936e-07 4.10117e-07 0)
(5.57211e-07 3.45082e-07 0)
(7.67421e-07 2.71787e-07 0)
(1.01055e-06 2.12395e-07 0)
(1.25852e-06 2.2907e-07 0)
(1.51782e-06 2.67268e-07 0)
(1.77404e-06 2.81782e-07 0)
(1.96064e-06 2.8469e-07 0)
(2.07551e-06 3.11607e-07 0)
(2.17312e-06 3.80635e-07 0)
(2.26573e-06 4.71861e-07 0)
(2.34089e-06 5.38794e-07 0)
(2.38076e-06 5.48995e-07 0)
(2.37275e-06 5.09125e-07 0)
(2.32517e-06 4.50302e-07 0)
(2.2531e-06 4.09621e-07 0)
(2.16261e-06 3.99175e-07 0)
(2.0478e-06 4.02156e-07 0)
(1.91428e-06 3.95583e-07 0)
(1.79717e-06 3.6763e-07 0)
(1.73737e-06 3.2006e-07 0)
(1.74311e-06 2.6136e-07 0)
(1.78343e-06 2.00812e-07 0)
(1.81694e-06 1.47178e-07 0)
(1.82075e-06 1.06888e-07 0)
(1.79192e-06 7.90191e-08 0)
(1.72938e-06 5.31269e-08 0)
(1.62415e-06 1.57273e-08 0)
(1.47036e-06 -3.88712e-08 0)
(1.28152e-06 -1.03875e-07 0)
(1.08963e-06 -1.66164e-07 0)
(9.24727e-07 -2.17132e-07 0)
(7.94409e-07 -2.58246e-07 0)
(6.81718e-07 -2.97613e-07 0)
(5.61361e-07 -3.42319e-07 0)
(4.18342e-07 -3.93683e-07 0)
(2.55122e-07 -4.48149e-07 0)
(8.67899e-08 -5.00771e-07 0)
(-6.67093e-08 -5.46657e-07 0)
(-1.84652e-07 -5.79193e-07 0)
(-2.48119e-07 -5.88636e-07 0)
(-2.46931e-07 -5.65508e-07 0)
(-1.90047e-07 -5.0821e-07 0)
(-1.09272e-07 -4.28191e-07 0)
(-4.69084e-08 -3.45871e-07 0)
(-3.18869e-08 -2.78478e-07 0)
(-6.26856e-08 -2.29324e-07 0)
(-1.13469e-07 -1.88071e-07 0)
(-1.60638e-07 -1.41785e-07 0)
(-2.08474e-07 -8.69168e-08 0)
(-2.91906e-07 -3.18539e-08 0)
(-4.53735e-07 1.07248e-08 0)
(-7.14193e-07 3.37308e-08 0)
(-1.05687e-06 3.88778e-08 0)
(-1.43967e-06 3.22275e-08 0)
(-1.82012e-06 1.72954e-08 0)
(-2.17437e-06 -6.62144e-09 0)
(-2.4965e-06 -4.05653e-08 0)
(-2.77999e-06 -7.97487e-08 0)
(-3.00085e-06 -1.10067e-07 0)
(-3.12009e-06 -1.10474e-07 0)
(-3.11222e-06 -6.63138e-08 0)
(-2.9981e-06 1.47986e-08 0)
(-2.84458e-06 9.89099e-08 0)
(-2.71281e-06 1.50088e-07 0)
(-2.60372e-06 1.63199e-07 0)
(-2.46239e-06 1.66146e-07 0)
(-2.24035e-06 1.84896e-07 0)
(-1.935e-06 2.20588e-07 0)
(-1.56664e-06 2.65537e-07 0)
(-1.15241e-06 3.22738e-07 0)
(-7.32082e-07 3.86033e-07 0)
(-3.77113e-07 4.20066e-07 0)
(-1.45889e-07 3.83435e-07 0)
(-2.42475e-08 2.18806e-07 0)
(-1.088e-07 7.98975e-07 0)
(-1.80305e-07 1.12668e-06 0)
(-1.98924e-07 1.04987e-06 0)
(-8.496e-08 9.43769e-07 0)
(1.06053e-07 8.56822e-07 0)
(2.78518e-07 7.80349e-07 0)
(4.57653e-07 6.99462e-07 0)
(6.73258e-07 6.46713e-07 0)
(9.45551e-07 6.15868e-07 0)
(1.21897e-06 6.21207e-07 0)
(1.45662e-06 6.29006e-07 0)
(1.67502e-06 6.24868e-07 0)
(1.84929e-06 6.30914e-07 0)
(1.98533e-06 6.61088e-07 0)
(2.10866e-06 7.03646e-07 0)
(2.19476e-06 7.38321e-07 0)
(2.22148e-06 7.53646e-07 0)
(2.20194e-06 7.44314e-07 0)
(2.15931e-06 7.21373e-07 0)
(2.11257e-06 6.97528e-07 0)
(2.06173e-06 6.81598e-07 0)
(1.98709e-06 6.70993e-07 0)
(1.86947e-06 6.54231e-07 0)
(1.71872e-06 6.22889e-07 0)
(1.579e-06 5.76213e-07 0)
(1.497e-06 5.1726e-07 0)
(1.48426e-06 4.50022e-07 0)
(1.51261e-06 3.79447e-07 0)
(1.54126e-06 3.11069e-07 0)
(1.54323e-06 2.4808e-07 0)
(1.50873e-06 1.88263e-07 0)
(1.43345e-06 1.25051e-07 0)
(1.31289e-06 5.31505e-08 0)
(1.15021e-06 -2.61183e-08 0)
(9.64909e-07 -1.05137e-07 0)
(7.87245e-07 -1.76015e-07 0)
(6.40186e-07 -2.36897e-07 0)
(5.25233e-07 -2.92993e-07 0)
(4.24779e-07 -3.51831e-07 0)
(3.17454e-07 -4.17304e-07 0)
(1.92474e-07 -4.87387e-07 0)
(5.35921e-08 -5.56266e-07 0)
(-8.51469e-08 -6.17396e-07 0)
(-2.04424e-07 -6.64019e-07 0)
(-2.82878e-07 -6.87786e-07 0)
(-3.02705e-07 -6.79605e-07 0)
(-2.60287e-07 -6.35105e-07 0)
(-1.75482e-07 -5.61139e-07 0)
(-8.79935e-08 -4.76053e-07 0)
(-3.73588e-08 -4.00663e-07 0)
(-3.89604e-08 -3.45748e-07 0)
(-7.61342e-08 -3.06589e-07 0)
(-1.17137e-07 -2.69383e-07 0)
(-1.44822e-07 -2.23938e-07 0)
(-1.75004e-07 -1.71538e-07 0)
(-2.49184e-07 -1.22435e-07 0)
(-4.07577e-07 -8.68457e-08 0)
(-6.63463e-07 -6.8778e-08 0)
(-9.9603e-07 -6.66495e-08 0)
(-1.36459e-06 -7.79552e-08 0)
(-1.73017e-06 -1.0154e-07 0)
(-2.06979e-06 -1.36147e-07 0)
(-2.37314e-06 -1.76333e-07 0)
(-2.62669e-06 -2.10755e-07 0)
(-2.80062e-06 -2.21958e-07 0)
(-2.86063e-06 -1.91966e-07 0)
(-2.80073e-06 -1.16084e-07 0)
(-2.66891e-06 -1.55468e-08 0)
(-2.54195e-06 7.23357e-08 0)
(-2.45908e-06 1.24189e-07 0)
(-2.38422e-06 1.54824e-07 0)
(-2.2506e-06 1.99534e-07 0)
(-2.02757e-06 2.76452e-07 0)
(-1.72976e-06 3.77475e-07 0)
(-1.37642e-06 4.90731e-07 0)
(-9.89598e-07 6.03035e-07 0)
(-6.24588e-07 6.83977e-07 0)
(-3.43835e-07 6.94217e-07 0)
(-1.56277e-07 6.1762e-07 0)
(-3.62179e-08 3.57058e-07 0)
(-1.13387e-07 1.15928e-06 0)
(-1.8203e-07 1.63029e-06 0)
(-1.95465e-07 1.54499e-06 0)
(-1.14416e-07 1.44364e-06 0)
(5.39818e-08 1.35244e-06 0)
(2.25086e-07 1.27715e-06 0)
(4.23306e-07 1.2092e-06 0)
(6.64532e-07 1.16499e-06 0)
(9.44146e-07 1.13893e-06 0)
(1.20744e-06 1.12515e-06 0)
(1.43483e-06 1.10677e-06 0)
(1.66802e-06 1.08344e-06 0)
(1.86947e-06 1.07472e-06 0)
(2.00374e-06 1.08978e-06 0)
(2.09141e-06 1.09639e-06 0)
(2.14488e-06 1.07344e-06 0)
(2.16709e-06 1.0393e-06 0)
(2.16344e-06 1.01504e-06 0)
(2.13852e-06 1.00411e-06 0)
(2.09714e-06 9.96113e-07 0)
(2.03817e-06 9.80502e-07 0)
(1.94663e-06 9.53962e-07 0)
(1.8096e-06 9.16782e-07 0)
(1.64177e-06 8.70885e-07 0)
(1.48826e-06 8.17925e-07 0)
(1.39393e-06 7.57655e-07 0)
(1.36922e-06 6.88605e-07 0)
(1.38603e-06 6.10412e-07 0)
(1.4033e-06 5.24715e-07 0)
(1.39286e-06 4.34038e-07 0)
(1.34443e-06 3.40239e-07 0)
(1.25576e-06 2.44389e-07 0)
(1.12674e-06 1.48357e-07 0)
(9.64408e-07 5.61513e-08 0)
(7.88292e-07 -2.73548e-08 0)
(6.24083e-07 -1.0022e-07 0)
(4.8871e-07 -1.66227e-07 0)
(3.80781e-07 -2.33215e-07 0)
(2.85042e-07 -3.07602e-07 0)
(1.855e-07 -3.89652e-07 0)
(7.555e-08 -4.73357e-07 0)
(-4.02059e-08 -5.50202e-07 0)
(-1.48792e-07 -6.12579e-07 0)
(-2.31568e-07 -6.54074e-07 0)
(-2.67962e-07 -6.68446e-07 0)
(-2.44365e-07 -6.51315e-07 0)
(-1.66419e-07 -6.05142e-07 0)
(-6.42221e-08 -5.4261e-07 0)
(1.91435e-08 -4.82793e-07 0)
(5.21203e-08 -4.40682e-07 0)
(3.42429e-08 -4.18142e-07 0)
(-6.31326e-09 -4.04258e-07 0)
(-3.73111e-08 -3.8508e-07 0)
(-5.03369e-08 -3.54161e-07 0)
(-7.08657e-08 -3.15729e-07 0)
(-1.43676e-07 -2.79542e-07 0)
(-3.06116e-07 -2.54052e-07 0)
(-5.67179e-07 -2.43521e-07 0)
(-9.04412e-07 -2.49681e-07 0)
(-1.27662e-06 -2.72561e-07 0)
(-1.64337e-06 -3.09293e-07 0)
(-1.9776e-06 -3.52551e-07 0)
(-2.26491e-06 -3.91791e-07 0)
(-2.48858e-06 -4.14206e-07 0)
(-2.61999e-06 -4.06864e-07 0)
(-2.63443e-06 -3.60259e-07 0)
(-2.54694e-06 -2.80411e-07 0)
(-2.4215e-06 -1.92819e-07 0)
(-2.32854e-06 -1.23332e-07 0)
(-2.27809e-06 -6.81264e-08 0)
(-2.21236e-06 6.05901e-09 0)
(-2.07015e-06 1.28322e-07 0)
(-1.84162e-06 2.94819e-07 0)
(-1.54936e-06 4.82783e-07 0)
(-1.21586e-06 6.72129e-07 0)
(-8.72761e-07 8.36647e-07 0)
(-5.76389e-07 9.39415e-07 0)
(-3.47832e-07 9.58602e-07 0)
(-1.66957e-07 8.81738e-07 0)
(-3.77778e-08 5.21683e-07 0)
(-1.21223e-07 1.51652e-06 0)
(-1.93015e-07 2.13916e-06 0)
(-1.92864e-07 2.01954e-06 0)
(-1.17295e-07 1.90718e-06 0)
(3.52707e-08 1.84313e-06 0)
(2.07237e-07 1.80318e-06 0)
(4.07872e-07 1.77999e-06 0)
(6.5782e-07 1.73854e-06 0)
(9.52717e-07 1.6886e-06 0)
(1.22669e-06 1.64372e-06 0)
(1.44879e-06 1.62411e-06 0)
(1.6727e-06 1.61541e-06 0)
(1.88319e-06 1.59215e-06 0)
(2.03397e-06 1.56055e-06 0)
(2.12e-06 1.52243e-06 0)
(2.16721e-06 1.47196e-06 0)
(2.19565e-06 1.42223e-06 0)
(2.20305e-06 1.38158e-06 0)
(2.18074e-06 1.34402e-06 0)
(2.13318e-06 1.30034e-06 0)
(2.06702e-06 1.25001e-06 0)
(1.97277e-06 1.19877e-06 0)
(1.83579e-06 1.15124e-06 0)
(1.66642e-06 1.10727e-06 0)
(1.50593e-06 1.06302e-06 0)
(1.39751e-06 1.01157e-06 0)
(1.35284e-06 9.44722e-07 0)
(1.34776e-06 8.56771e-07 0)
(1.34575e-06 7.48185e-07 0)
(1.32169e-06 6.25791e-07 0)
(1.26595e-06 4.99279e-07 0)
(1.17556e-06 3.77121e-07 0)
(1.04988e-06 2.64906e-07 0)
(8.95564e-07 1.65739e-07 0)
(7.30139e-07 8.00759e-08 0)
(5.75112e-07 4.33126e-09 0)
(4.4351e-07 -6.90884e-08 0)
(3.34003e-07 -1.48031e-07 0)
(2.36219e-07 -2.35162e-07 0)
(1.40503e-07 -3.25628e-07 0)
(4.36735e-08 -4.10134e-07 0)
(-5.04618e-08 -4.80448e-07 0)
(-1.3162e-07 -5.32299e-07 0)
(-1.83323e-07 -5.64051e-07 0)
(-1.87287e-07 -5.74552e-07 0)
(-1.34912e-07 -5.64312e-07 0)
(-3.95702e-08 -5.39382e-07 0)
(6.29037e-08 -5.12572e-07 0)
(1.31603e-07 -4.98024e-07 0)
(1.45596e-07 -5.02174e-07 0)
(1.16827e-07 -5.19025e-07 0)
(7.89231e-08 -5.34665e-07 0)
(5.98422e-08 -5.37323e-07 0)
(5.87486e-08 -5.2462e-07 0)
(4.34859e-08 -5.02968e-07 0)
(-3.19555e-08 -4.8229e-07 0)
(-2.02588e-07 -4.71344e-07 0)
(-4.75301e-07 -4.76352e-07 0)
(-8.25442e-07 -4.99988e-07 0)
(-1.20825e-06 -5.39602e-07 0)
(-1.57802e-06 -5.85557e-07 0)
(-1.90482e-06 -6.25283e-07 0)
(-2.17367e-06 -6.49026e-07 0)
(-2.36969e-06 -6.52095e-07 0)
(-2.46748e-06 -6.31797e-07 0)
(-2.45325e-06 -5.88597e-07 0)
(-2.35769e-06 -5.30165e-07 0)
(-2.25082e-06 -4.70863e-07 0)
(-2.18214e-06 -4.12102e-07 0)
(-2.13317e-06 -3.28941e-07 0)
(-2.04125e-06 -1.86122e-07 0)
(-1.87216e-06 2.67009e-08 0)
(-1.63929e-06 2.8704e-07 0)
(-1.36591e-06 5.59697e-07 0)
(-1.06873e-06 8.17778e-07 0)
(-7.80064e-07 1.03257e-06 0)
(-5.36835e-07 1.1763e-06 0)
(-3.28656e-07 1.24348e-06 0)
(-1.46349e-07 1.17748e-06 0)
(-2.41957e-08 7.00364e-07 0)
(-1.34249e-07 1.86803e-06 0)
(-2.09603e-07 2.63706e-06 0)
(-1.89238e-07 2.49918e-06 0)
(-1.00701e-07 2.37697e-06 0)
(5.35131e-08 2.33392e-06 0)
(2.3556e-07 2.31495e-06 0)
(4.24621e-07 2.32662e-06 0)
(6.37046e-07 2.31599e-06 0)
(9.14276e-07 2.2797e-06 0)
(1.21216e-06 2.22085e-06 0)
(1.48371e-06 2.16864e-06 0)
(1.7243e-06 2.14693e-06 0)
(1.9159e-06 2.11792e-06 0)
(2.04912e-06 2.06346e-06 0)
(2.13149e-06 1.98996e-06 0)
(2.1863e-06 1.91056e-06 0)
(2.23016e-06 1.83299e-06 0)
(2.24927e-06 1.7569e-06 0)
(2.23046e-06 1.67473e-06 0)
(2.18399e-06 1.58696e-06 0)
(2.12353e-06 1.50304e-06 0)
(2.0392e-06 1.43351e-06 0)
(1.91192e-06 1.38151e-06 0)
(1.7477e-06 1.34235e-06 0)
(1.58466e-06 1.30569e-06 0)
(1.46323e-06 1.25798e-06 0)
(1.39519e-06 1.18584e-06 0)
(1.36157e-06 1.0821e-06 0)
(1.33455e-06 9.50157e-07 0)
(1.29603e-06 8.02498e-07 0)
(1.23824e-06 6.54064e-07 0)
(1.15562e-06 5.16048e-07 0)
(1.04327e-06 3.93888e-07 0)
(9.03543e-07 2.88225e-07 0)
(7.49474e-07 1.95748e-07 0)
(5.98764e-07 1.09656e-07 0)
(4.63982e-07 2.21225e-08 0)
(3.48419e-07 -7.08398e-08 0)
(2.49117e-07 -1.65774e-07 0)
(1.61458e-07 -2.53471e-07 0)
(8.14731e-08 -3.25295e-07 0)
(7.92425e-09 -3.78685e-07 0)
(-5.35719e-08 -4.17098e-07 0)
(-8.80953e-08 -4.45335e-07 0)
(-7.76059e-08 -4.65904e-07 0)
(-1.58467e-08 -4.80406e-07 0)
(7.93167e-08 -4.93635e-07 0)
(1.69972e-07 -5.14217e-07 0)
(2.19871e-07 -5.49219e-07 0)
(2.18189e-07 -5.9733e-07 0)
(1.85451e-07 -6.47928e-07 0)
(1.56198e-07 -6.8777e-07 0)
(1.51595e-07 -7.09772e-07 0)
(1.62159e-07 -7.16432e-07 0)
(1.50236e-07 -7.16744e-07 0)
(6.87104e-08 -7.20816e-07 0)
(-1.16152e-07 -7.3703e-07 0)
(-4.07412e-07 -7.70181e-07 0)
(-7.73987e-07 -8.18909e-07 0)
(-1.16267e-06 -8.7321e-07 0)
(-1.52355e-06 -9.17918e-07 0)
(-1.82993e-06 -9.40676e-07 0)
(-2.07604e-06 -9.39603e-07 0)
(-2.25316e-06 -9.20211e-07 0)
(-2.33923e-06 -8.88897e-07 0)
(-2.32169e-06 -8.5023e-07 0)
(-2.23202e-06 -8.08852e-07 0)
(-2.13073e-06 -7.6086e-07 0)
(-2.05177e-06 -6.83651e-07 0)
(-1.9695e-06 -5.41306e-07 0)
(-1.83867e-06 -3.15359e-07 0)
(-1.64861e-06 -2.02352e-08 0)
(-1.42421e-06 3.11765e-07 0)
(-1.1807e-06 6.49144e-07 0)
(-9.25192e-07 9.64059e-07 0)
(-6.80955e-07 1.23557e-06 0)
(-4.65108e-07 1.44022e-06 0)
(-2.68045e-07 1.56644e-06 0)
(-1.07296e-07 1.49571e-06 0)
(-9.65948e-09 8.85265e-07 0)
(-1.47273e-07 2.22764e-06 0)
(-2.17729e-07 3.16543e-06 0)
(-1.70496e-07 3.02607e-06 0)
(-7.12571e-08 2.89401e-06 0)
(6.94379e-08 2.86644e-06 0)
(2.55799e-07 2.85524e-06 0)
(4.54104e-07 2.87606e-06 0)
(6.54763e-07 2.88264e-06 0)
(9.05625e-07 2.8741e-06 0)
(1.1742e-06 2.83969e-06 0)
(1.45006e-06 2.77381e-06 0)
(1.71863e-06 2.70167e-06 0)
(1.92059e-06 2.63319e-06 0)
(2.05153e-06 2.5497e-06 0)
(2.13615e-06 2.44757e-06 0)
(2.20059e-06 2.33873e-06 0)
(2.25111e-06 2.23131e-06 0)
(2.26991e-06 2.11917e-06 0)
(2.2494e-06 1.99781e-06 0)
(2.21115e-06 1.87443e-06 0)
(2.17224e-06 1.76567e-06 0)
(2.11699e-06 1.68405e-06 0)
(2.0157e-06 1.63136e-06 0)
(1.8653e-06 1.59763e-06 0)
(1.69824e-06 1.56489e-06 0)
(1.55472e-06 1.51251e-06 0)
(1.45289e-06 1.4249e-06 0)
(1.38558e-06 1.29851e-06 0)
(1.33626e-06 1.14346e-06 0)
(1.29172e-06 9.77574e-07 0)
(1.24146e-06 8.17116e-07 0)
(1.17341e-06 6.71026e-07 0)
(1.0767e-06 5.4088e-07 0)
(9.495e-07 4.2379e-07 0)
(8.02058e-07 3.14738e-07 0)
(6.5143e-07 2.08443e-07 0)
(5.13408e-07 1.02244e-07 0)
(3.97797e-07 -9.46466e-10 0)
(3.07163e-07 -9.30935e-08 0)
(2.36699e-07 -1.66274e-07 0)
(1.76185e-07 -2.19075e-07 0)
(1.16937e-07 -2.58346e-07 0)
(6.15265e-08 -2.94378e-07 0)
(2.71113e-08 -3.33994e-07 0)
(3.50091e-08 -3.78157e-07 0)
(9.14851e-08 -4.25855e-07 0)
(1.76201e-07 -4.79065e-07 0)
(2.51211e-07 -5.42426e-07 0)
(2.85796e-07 -6.17369e-07 0)
(2.77033e-07 -6.97342e-07 0)
(2.4915e-07 -7.7009e-07 0)
(2.32597e-07 -8.25772e-07 0)
(2.39908e-07 -8.63519e-07 0)
(2.54435e-07 -8.91437e-07 0)
(2.36613e-07 -9.21081e-07 0)
(1.41164e-07 -9.62024e-07 0)
(-6.15672e-08 -1.01878e-06 0)
(-3.68754e-07 -1.08926e-06 0)
(-7.41041e-07 -1.16239e-06 0)
(-1.12006e-06 -1.22006e-06 0)
(-1.45807e-06 -1.24597e-06 0)
(-1.73892e-06 -1.23695e-06 0)
(-1.96629e-06 -1.20339e-06 0)
(-2.13478e-06 -1.16004e-06 0)
(-2.2197e-06 -1.11426e-06 0)
(-2.20794e-06 -1.06674e-06 0)
(-2.1247e-06 -1.01308e-06 0)
(-2.01637e-06 -9.39078e-07 0)
(-1.9033e-06 -8.14247e-07 0)
(-1.77224e-06 -6.08702e-07 0)
(-1.60731e-06 -3.19043e-07 0)
(-1.41585e-06 2.7621e-08 0)
(-1.21353e-06 4.03333e-07 0)
(-1.00379e-06 7.88736e-07 0)
(-7.79954e-07 1.15803e-06 0)
(-5.59404e-07 1.49454e-06 0)
(-3.5355e-07 1.7642e-06 0)
(-1.79295e-07 1.93122e-06 0)
(-6.53419e-08 1.84387e-06 0)
(-2.15089e-09 1.09253e-06 0)
(-1.3562e-07 2.60016e-06 0)
(-1.8936e-07 3.73309e-06 0)
(-1.32178e-07 3.59829e-06 0)
(-3.10198e-08 3.45458e-06 0)
(9.87244e-08 3.42785e-06 0)
(2.75775e-07 3.42367e-06 0)
(4.66704e-07 3.43735e-06 0)
(6.45063e-07 3.45263e-06 0)
(8.84645e-07 3.43937e-06 0)
(1.13718e-06 3.4127e-06 0)
(1.39172e-06 3.36718e-06 0)
(1.65731e-06 3.2848e-06 0)
(1.86895e-06 3.17845e-06 0)
(2.00086e-06 3.05719e-06 0)
(2.08863e-06 2.9194e-06 0)
(2.16608e-06 2.77852e-06 0)
(2.23092e-06 2.63878e-06 0)
(2.25684e-06 2.49438e-06 0)
(2.24412e-06 2.34261e-06 0)
(2.22466e-06 2.19687e-06 0)
(2.21781e-06 2.07541e-06 0)
(2.1993e-06 1.98859e-06 0)
(2.12781e-06 1.93227e-06 0)
(1.9899e-06 1.89081e-06 0)
(1.81314e-06 1.84224e-06 0)
(1.64047e-06 1.76599e-06 0)
(1.50085e-06 1.65083e-06 0)
(1.40118e-06 1.49978e-06 0)
(1.33513e-06 1.32779e-06 0)
(1.29098e-06 1.15316e-06 0)
(1.2523e-06 9.88642e-07 0)
(1.19905e-06 8.37954e-07 0)
(1.11473e-06 6.98382e-07 0)
(9.95213e-07 5.65466e-07 0)
(8.51282e-07 4.36385e-07 0)
(7.03029e-07 3.1168e-07 0)
(5.71196e-07 1.96031e-07 0)
(4.69679e-07 9.71795e-08 0)
(4.00375e-07 2.1837e-08 0)
(3.5184e-07 -2.98258e-08 0)
(3.051e-07 -6.6595e-08 0)
(2.46973e-07 -1.02331e-07 0)
(1.82887e-07 -1.48023e-07 0)
(1.36917e-07 -2.06372e-07 0)
(1.34824e-07 -2.73642e-07 0)
(1.81813e-07 -3.46418e-07 0)
(2.54407e-07 -4.2593e-07 0)
(3.15358e-07 -5.15265e-07 0)
(3.39798e-07 -6.12847e-07 0)
(3.30816e-07 -7.09808e-07 0)
(3.12492e-07 -7.95012e-07 0)
(3.08248e-07 -8.63154e-07 0)
(3.21575e-07 -9.18772e-07 0)
(3.30812e-07 -9.73208e-07 0)
(2.97058e-07 -1.0384e-06 0)
(1.80402e-07 -1.12127e-06 0)
(-4.11218e-08 -1.22041e-06 0)
(-3.54956e-07 -1.32391e-06 0)
(-7.14033e-07 -1.41083e-06 0)
(-1.06006e-06 -1.45819e-06 0)
(-1.35837e-06 -1.45475e-06 0)
(-1.60951e-06 -1.40912e-06 0)
(-1.82654e-06 -1.34265e-06 0)
(-1.99903e-06 -1.27213e-06 0)
(-2.0929e-06 -1.20238e-06 0)
(-2.08655e-06 -1.12877e-06 0)
(-2.00028e-06 -1.04267e-06 0)
(-1.8723e-06 -9.25593e-07 0)
(-1.72431e-06 -7.52578e-07 0)
(-1.55823e-06 -5.06202e-07 0)
(-1.38151e-06 -1.91473e-07 0)
(-1.20292e-06 1.74404e-07 0)
(-1.02174e-06 5.77571e-07 0)
(-8.311e-07 1.00918e-06 0)
(-6.19695e-07 1.44082e-06 0)
(-4.07266e-07 1.84556e-06 0)
(-2.16389e-07 2.1661e-06 0)
(-7.73389e-08 2.34536e-06 0)
(-1.43617e-08 2.23711e-06 0)
(8.58554e-09 1.33758e-06 0)
(-1.04605e-07 2.99026e-06 0)
(-1.27941e-07 4.30592e-06 0)
(-7.91848e-08 4.1684e-06 0)
(2.31564e-09 4.01666e-06 0)
(1.05936e-07 3.98392e-06 0)
(2.66654e-07 3.96608e-06 0)
(4.61204e-07 3.93656e-06 0)
(6.25147e-07 3.93947e-06 0)
(8.33565e-07 3.93851e-06 0)
(1.08067e-06 3.90493e-06 0)
(1.32274e-06 3.87851e-06 0)
(1.56133e-06 3.81974e-06 0)
(1.76059e-06 3.71184e-06 0)
(1.89773e-06 3.56356e-06 0)
(1.9991e-06 3.39799e-06 0)
(2.09462e-06 3.23301e-06 0)
(2.17066e-06 3.07229e-06 0)
(2.20213e-06 2.90603e-06 0)
(2.20114e-06 2.73622e-06 0)
(2.21056e-06 2.57777e-06 0)
(2.2451e-06 2.44694e-06 0)
(2.26708e-06 2.34644e-06 0)
(2.2213e-06 2.26607e-06 0)
(2.08711e-06 2.1885e-06 0)
(1.89231e-06 2.09639e-06 0)
(1.68797e-06 1.97726e-06 0)
(1.51598e-06 1.8282e-06 0)
(1.39547e-06 1.65708e-06 0)
(1.32534e-06 1.47855e-06 0)
(1.29034e-06 1.30596e-06 0)
(1.26554e-06 1.14503e-06 0)
(1.22359e-06 9.9349e-07 0)
(1.14559e-06 8.45988e-07 0)
(1.02972e-06 6.99821e-07 0)
(8.91326e-07 5.5766e-07 0)
(7.54979e-07 4.26886e-07 0)
(6.4365e-07 3.16637e-07 0)
(5.69092e-07 2.33548e-07 0)
(5.26168e-07 1.77399e-07 0)
(4.94399e-07 1.39188e-07 0)
(4.49334e-07 1.04083e-07 0)
(3.79877e-07 5.8666e-08 0)
(2.99561e-07 -2.31865e-09 0)
(2.40105e-07 -7.52328e-08 0)
(2.2883e-07 -1.53543e-07 0)
(2.66985e-07 -2.34937e-07 0)
(3.27754e-07 -3.2262e-07 0)
(3.76099e-07 -4.19846e-07 0)
(3.93415e-07 -5.23752e-07 0)
(3.86548e-07 -6.25374e-07 0)
(3.76398e-07 -7.16047e-07 0)
(3.77991e-07 -7.94357e-07 0)
(3.87467e-07 -8.67593e-07 0)
(3.8104e-07 -9.47615e-07 0)
(3.2377e-07 -1.04454e-06 0)
(1.83924e-07 -1.16149e-06 0)
(-4.92061e-08 -1.29016e-06 0)
(-3.53189e-07 -1.40939e-06 0)
(-6.77638e-07 -1.4909e-06 0)
(-9.74045e-07 -1.51285e-06 0)
(-1.22656e-06 -1.47335e-06 0)
(-1.45224e-06 -1.3929e-06 0)
(-1.6639e-06 -1.29767e-06 0)
(-1.84114e-06 -1.20121e-06 0)
(-1.94007e-06 -1.10105e-06 0)
(-1.93734e-06 -9.9133e-07 0)
(-1.84819e-06 -8.66383e-07 0)
(-1.70717e-06 -7.14312e-07 0)
(-1.53901e-06 -5.15701e-07 0)
(-1.36107e-06 -2.59387e-07 0)
(-1.18632e-06 5.53813e-08 0)
(-1.01736e-06 4.30565e-07 0)
(-8.39797e-07 8.68588e-07 0)
(-6.4818e-07 1.35478e-06 0)
(-4.34633e-07 1.85253e-06 0)
(-2.34089e-07 2.30908e-06 0)
(-7.72218e-08 2.65234e-06 0)
(2.12936e-08 2.82081e-06 0)
(4.96626e-08 2.67956e-06 0)
(3.27079e-08 1.61244e-06 0)
(-7.90583e-08 3.36997e-06 0)
(-7.09457e-08 4.83711e-06 0)
(-1.962e-08 4.66947e-06 0)
(3.77214e-08 4.5075e-06 0)
(9.65333e-08 4.46489e-06 0)
(1.97864e-07 4.45032e-06 0)
(3.79545e-07 4.37409e-06 0)
(5.70266e-07 4.31846e-06 0)
(7.68328e-07 4.3156e-06 0)
(1.00371e-06 4.30284e-06 0)
(1.25501e-06 4.28316e-06 0)
(1.47208e-06 4.24595e-06 0)
(1.63379e-06 4.15477e-06 0)
(1.75007e-06 4.00945e-06 0)
(1.86191e-06 3.835e-06 0)
(1.98177e-06 3.66055e-06 0)
(2.07824e-06 3.4885e-06 0)
(2.12339e-06 3.31391e-06 0)
(2.14228e-06 3.1394e-06 0)
(2.18185e-06 2.97739e-06 0)
(2.2497e-06 2.8327e-06 0)
(2.29583e-06 2.69921e-06 0)
(2.25927e-06 2.56513e-06 0)
(2.11983e-06 2.42209e-06 0)
(1.9102e-06 2.2668e-06 0)
(1.68799e-06 2.09998e-06 0)
(1.50263e-06 1.92543e-06 0)
(1.37873e-06 1.74996e-06 0)
(1.31561e-06 1.58095e-06 0)
(1.29276e-06 1.422e-06 0)
(1.27829e-06 1.27055e-06 0)
(1.24126e-06 1.12034e-06 0)
(1.16488e-06 9.67263e-07 0)
(1.05315e-06 8.1361e-07 0)
(9.27001e-07 6.67867e-07 0)
(8.13008e-07 5.40668e-07 0)
(7.31129e-07 4.39638e-07 0)
(6.8581e-07 3.65508e-07 0)
(6.63171e-07 3.11012e-07 0)
(6.3697e-07 2.63362e-07 0)
(5.83612e-07 2.09835e-07 0)
(4.99272e-07 1.43788e-07 0)
(4.06228e-07 6.70115e-08 0)
(3.40167e-07 -1.37839e-08 0)
(3.25401e-07 -9.37914e-08 0)
(3.57335e-07 -1.74266e-07 0)
(4.06945e-07 -2.60264e-07 0)
(4.43141e-07 -3.54364e-07 0)
(4.53426e-07 -4.52911e-07 0)
(4.46891e-07 -5.4845e-07 0)
(4.40296e-07 -6.36001e-07 0)
(4.41353e-07 -7.17374e-07 0)
(4.40546e-07 -8.007e-07 0)
(4.13622e-07 -8.96006e-07 0)
(3.30682e-07 -1.00971e-06 0)
(1.70383e-07 -1.13969e-06 0)
(-6.4797e-08 -1.27148e-06 0)
(-3.423e-07 -1.3793e-06 0)
(-6.14362e-07 -1.43436e-06 0)
(-8.49288e-07 -1.42105e-06 0)
(-1.0551e-06 -1.34621e-06 0)
(-1.26104e-06 -1.23503e-06 0)
(-1.47426e-06 -1.11259e-06 0)
(-1.65733e-06 -9.87714e-07 0)
(-1.75929e-06 -8.56023e-07 0)
(-1.75872e-06 -7.11286e-07 0)
(-1.67437e-06 -5.52349e-07 0)
(-1.53535e-06 -3.73098e-07 0)
(-1.36796e-06 -1.60307e-07 0)
(-1.1929e-06 1.00457e-07 0)
(-1.02056e-06 4.21126e-07 0)
(-8.4197e-07 8.20438e-07 0)
(-6.48627e-07 1.30669e-06 0)
(-4.44919e-07 1.8493e-06 0)
(-2.35979e-07 2.39721e-06 0)
(-6.57473e-08 2.87212e-06 0)
(4.06725e-08 3.20624e-06 0)
(9.8246e-08 3.35041e-06 0)
(1.03536e-07 3.15768e-06 0)
(5.81292e-08 1.89909e-06 0)
(-6.35824e-08 3.69198e-06 0)
(-4.34943e-08 5.27685e-06 0)
(1.72639e-08 5.06568e-06 0)
(5.68666e-08 4.87759e-06 0)
(7.67347e-08 4.82196e-06 0)
(1.14464e-07 4.81605e-06 0)
(2.30937e-07 4.76488e-06 0)
(4.46521e-07 4.66219e-06 0)
(6.87961e-07 4.61542e-06 0)
(9.24214e-07 4.62076e-06 0)
(1.16379e-06 4.63191e-06 0)
(1.36565e-06 4.60893e-06 0)
(1.49973e-06 4.52998e-06 0)
(1.5994e-06 4.39527e-06 0)
(1.71672e-06 4.23599e-06 0)
(1.85603e-06 4.07025e-06 0)
(1.96864e-06 3.89899e-06 0)
(2.02902e-06 3.71628e-06 0)
(2.06723e-06 3.52933e-06 0)
(2.12874e-06 3.34503e-06 0)
(2.21065e-06 3.16131e-06 0)
(2.25914e-06 2.96793e-06 0)
(2.21744e-06 2.76025e-06 0)
(2.07375e-06 2.54394e-06 0)
(1.86531e-06 2.331e-06 0)
(1.65049e-06 2.13154e-06 0)
(1.47747e-06 1.95058e-06 0)
(1.3691e-06 1.78856e-06 0)
(1.32124e-06 1.6422e-06 0)
(1.30884e-06 1.50438e-06 0)
(1.29729e-06 1.36571e-06 0)
(1.25786e-06 1.21932e-06 0)
(1.18033e-06 1.06547e-06 0)
(1.07556e-06 9.12254e-07 0)
(9.67296e-07 7.71144e-07 0)
(8.79265e-07 6.50721e-07 0)
(8.24483e-07 5.52617e-07 0)
(7.9971e-07 4.71473e-07 0)
(7.86139e-07 3.98073e-07 0)
(7.57639e-07 3.23678e-07 0)
(6.95685e-07 2.43654e-07 0)
(6.0347e-07 1.58834e-07 0)
(5.07665e-07 7.36715e-08 0)
(4.42823e-07 -7.95415e-09 0)
(4.28167e-07 -8.62237e-08 0)
(4.55024e-07 -1.65037e-07 0)
(4.95266e-07 -2.47903e-07 0)
(5.22658e-07 -3.34048e-07 0)
(5.2878e-07 -4.18659e-07 0)
(5.22006e-07 -4.97347e-07 0)
(5.14193e-07 -5.70607e-07 0)
(5.07521e-07 -6.44665e-07 0)
(4.90152e-07 -7.28312e-07 0)
(4.40307e-07 -8.28178e-07 0)
(3.35365e-07 -9.44666e-07 0)
(1.64735e-07 -1.0683e-06 0)
(-5.85803e-08 -1.18057e-06 0)
(-2.97669e-07 -1.25593e-06 0)
(-5.12507e-07 -1.2742e-06 0)
(-6.90264e-07 -1.22864e-06 0)
(-8.56383e-07 -1.13224e-06 0)
(-1.04674e-06 -1.00591e-06 0)
(-1.25896e-06 -8.65838e-07 0)
(-1.44498e-06 -7.15695e-07 0)
(-1.54851e-06 -5.5288e-07 0)
(-1.55327e-06 -3.7714e-07 0)
(-1.47929e-06 -1.88231e-07 0)
(-1.35434e-06 1.80895e-08 0)
(-1.1987e-06 2.54204e-07 0)
(-1.03145e-06 5.36624e-07 0)
(-8.53799e-07 8.87259e-07 0)
(-6.5452e-07 1.32734e-06 0)
(-4.40566e-07 1.86053e-06 0)
(-2.34838e-07 2.44027e-06 0)
(-5.20693e-08 3.00689e-06 0)
(6.61039e-08 3.46915e-06 0)
(1.19757e-07 3.77417e-06 0)
(1.37975e-07 3.88418e-06 0)
(1.21564e-07 3.6307e-06 0)
(6.36456e-08 2.17665e-06 0)
(-5.46493e-08 3.928e-06 0)
(-3.94852e-08 5.60301e-06 0)
(3.08706e-08 5.35638e-06 0)
(5.66463e-08 5.13322e-06 0)
(4.44818e-08 5.06033e-06 0)
(5.11145e-08 5.04157e-06 0)
(9.41068e-08 5.03454e-06 0)
(2.62066e-07 4.99143e-06 0)
(5.54597e-07 4.9347e-06 0)
(8.52041e-07 4.93376e-06 0)
(1.09746e-06 4.95449e-06 0)
(1.26169e-06 4.94806e-06 0)
(1.35788e-06 4.88085e-06 0)
(1.44386e-06 4.76914e-06 0)
(1.57362e-06 4.63552e-06 0)
(1.72696e-06 4.489e-06 0)
(1.84646e-06 4.3167e-06 0)
(1.91046e-06 4.11599e-06 0)
(1.95676e-06 3.89454e-06 0)
(2.02407e-06 3.66177e-06 0)
(2.1034e-06 3.41596e-06 0)
(2.14311e-06 3.15425e-06 0)
(2.09864e-06 2.8824e-06 0)
(1.96699e-06 2.61716e-06 0)
(1.78559e-06 2.3764e-06 0)
(1.60536e-06 2.17046e-06 0)
(1.46623e-06 1.99961e-06 0)
(1.38469e-06 1.85665e-06 0)
(1.35263e-06 1.72969e-06 0)
(1.34362e-06 1.60487e-06 0)
(1.32616e-06 1.47065e-06 0)
(1.27911e-06 1.32316e-06 0)
(1.20078e-06 1.16835e-06 0)
(1.10647e-06 1.01809e-06 0)
(1.01765e-06 8.82532e-07 0)
(9.51063e-07 7.64318e-07 0)
(9.12671e-07 6.58554e-07 0)
(8.95967e-07 5.5766e-07 0)
(8.83534e-07 4.56703e-07 0)
(8.53514e-07 3.55536e-07 0)
(7.91663e-07 2.5729e-07 0)
(7.03017e-07 1.6522e-07 0)
(6.12687e-07 8.01558e-08 0)
(5.51546e-07 -1.19073e-10 0)
(5.36001e-07 -7.9251e-08 0)
(5.58068e-07 -1.59268e-07 0)
(5.93419e-07 -2.38365e-07 0)
(6.19379e-07 -3.11749e-07 0)
(6.27227e-07 -3.75622e-07 0)
(6.20941e-07 -4.31222e-07 0)
(6.06919e-07 -4.85681e-07 0)
(5.84805e-07 -5.48799e-07 0)
(5.4499e-07 -6.28001e-07 0)
(4.71786e-07 -7.24797e-07 0)
(3.5174e-07 -8.32156e-07 0)
(1.82456e-07 -9.36457e-07 0)
(-1.71932e-08 -1.01636e-06 0)
(-2.13195e-07 -1.05412e-06 0)
(-3.76347e-07 -1.0362e-06 0)
(-5.08703e-07 -9.67948e-07 0)