/*--------------------------------*- C++ -*----------------------------------*\
| =========                 |                                                 |
| \\      /  F ield         | OpenFOAM: The Open Source CFD Toolbox           |
|  \\    /   O peration     | Version:  2412                                  |
|   \\  /    A nd           | Website:  www.openfoam.com                      |
|    \\/     M anipulation  |                                                 |
\*---------------------------------------------------------------------------*/
FoamFile
{
    version     2.0;
    format      ascii;
    arch        "LSB;label=32;scalar=64";
    class       surfaceScalarField;
    location    "5.2";
    object      alphaPhi0.glycerin;
}
// * * * * * * * * * * * * * * * * * * * * * * * * * * * * * * * * * * * * * //

dimensions      [0 3 -1 0 0 0 0];

oriented        oriented;

internalField   nonuniform List<scalar> 
12640
(
5.04277e-09
-5.03962e-09
2.20911e-08
-1.6332e-08
4.57561e-08
-2.30121e-08
7.11703e-08
-2.4855e-08
9.52795e-08
-2.36231e-08
1.16571e-07
-2.08804e-08
1.34717e-07
-1.78129e-08
1.50229e-07
-1.52529e-08
1.64152e-07
-1.37368e-08
1.77841e-07
-1.35694e-08
1.92782e-07
-1.48861e-08
2.10476e-07
-1.76983e-08
2.32351e-07
-2.19319e-08
2.59697e-07
-2.74489e-08
2.93625e-07
-3.4067e-08
3.35024e-07
-4.15634e-08
3.84524e-07
-4.96832e-08
4.42465e-07
-5.81316e-08
5.0885e-07
-6.65777e-08
5.83308e-07
-7.46425e-08
6.65041e-07
-8.19055e-08
7.52785e-07
-8.78928e-08
8.44757e-07
-9.20944e-08
9.38629e-07
-9.39574e-08
1.0315e-06
-9.29212e-08
1.11993e-06
-8.84218e-08
1.19994e-06
-7.99523e-08
1.26714e-06
-6.70832e-08
1.31686e-06
-4.95511e-08
1.34438e-06
-2.729e-08
1.34522e-06
-5.37762e-10
1.31543e-06
3.01486e-08
1.25203e-06
6.38045e-08
1.1534e-06
9.9108e-08
1.01954e-06
1.34366e-07
8.52434e-07
1.67676e-07
6.5602e-07
1.97009e-07
4.36183e-07
2.20468e-07
2.00411e-07
2.36416e-07
-4.26585e-08
2.43726e-07
-2.83863e-07
2.41848e-07
-5.14168e-07
2.30939e-07
-7.25345e-07
2.11774e-07
-9.10511e-07
1.85731e-07
-1.06455e-06
1.54551e-07
-1.1843e-06
1.20232e-07
-1.26862e-06
8.47417e-08
-1.31816e-06
4.99324e-08
-1.33515e-06
1.73274e-08
-1.32299e-06
-1.18736e-08
-1.28588e-06
-3.6899e-08
-1.22843e-06
-5.73035e-08
-1.15538e-06
-7.29897e-08
-1.0713e-06
-8.40852e-08
-9.80415e-07
-9.09485e-08
-8.86502e-07
-9.40225e-08
-7.92798e-07
-9.385e-08
-7.01986e-07
-9.09779e-08
-6.16192e-07
-8.59773e-08
-5.3701e-07
-7.93736e-08
-4.65543e-07
-7.16686e-08
-4.0245e-07
-6.32961e-08
-3.47994e-07
-5.46617e-08
-3.02075e-07
-4.61169e-08
-2.64278e-07
-3.79837e-08
-2.33908e-07
-3.05346e-08
-2.10029e-07
-2.4016e-08
-1.91494e-07
-1.86343e-08
-1.76981e-07
-1.45693e-08
-1.65032e-07
-1.19523e-08
-1.54118e-07
-1.08601e-08
-1.42719e-07
-1.128e-08
-1.29448e-07
-1.30813e-08
-1.13222e-07
-1.59614e-08
-9.34909e-08
-1.93892e-08
-7.05391e-08
-2.25327e-08
-4.58509e-08
-2.41966e-08
-2.25232e-08
-2.27749e-08
-5.5479e-09
-1.63897e-08
-5.04704e-09
1.72516e-08
-2.17629e-08
5.70921e-08
-5.50016e-08
1.08249e-07
-7.30633e-08
1.61957e-07
-7.75319e-08
2.12392e-07
-7.30692e-08
2.56625e-07
-6.41696e-08
2.94157e-07
-5.44509e-08
3.26312e-07
-4.65702e-08
3.55666e-07
-4.23127e-08
3.85553e-07
-4.27433e-08
4.19679e-07
-4.83644e-08
4.61818e-07
-5.92572e-08
5.15591e-07
-7.51887e-08
5.84291e-07
-9.56952e-08
6.70754e-07
-1.2013e-07
7.7724e-07
-1.477e-07
9.05333e-07
-1.7747e-07
1.05583e-06
-2.08367e-07
1.22866e-06
-2.39168e-07
1.42271e-06
-2.68497e-07
1.63579e-06
-2.94808e-07
1.86444e-06
-3.16404e-07
2.10391e-06
-3.31434e-07
2.348e-06
-3.37953e-07
2.58913e-06
-3.3396e-07
2.81829e-06
-3.17518e-07
3.02525e-06
-2.86853e-07
3.19875e-06
-2.40552e-07
3.32697e-06
-1.77732e-07
3.398e-06
-9.82979e-08
3.40061e-06
-3.13048e-09
3.32509e-06
1.05669e-07
3.1642e-06
2.24708e-07
2.91406e-06
3.49242e-07
2.57504e-06
4.73396e-07
2.15228e-06
5.90444e-07
1.6559e-06
6.93406e-07
1.10076e-06
7.75616e-07
5.05712e-07
8.31485e-07
-1.07589e-07
8.5704e-07
-7.16165e-07
8.5045e-07
-1.2974e-06
8.12182e-07
-1.83062e-06
7.45009e-07
-2.29849e-06
6.53601e-07
-2.68802e-06
5.44093e-07
-2.9911e-06
4.23324e-07
-3.20458e-06
2.98254e-07
-3.32988e-06
1.7527e-07
-3.37232e-06
5.98362e-08
-3.34025e-06
-4.38751e-08
-3.24409e-06
-1.32979e-07
-3.09543e-06
-2.05907e-07
-2.90621e-06
-2.62154e-07
-2.68808e-06
-3.02159e-07
-2.45194e-06
-3.27024e-07
-2.20756e-06
-3.38333e-07
-1.96341e-06
-3.37908e-07
-1.72654e-06
-3.27715e-07
-1.50264e-06
-3.09718e-07
-1.29599e-06
-2.85831e-07
-1.10962e-06
-2.5782e-07
-9.45355e-07
-2.27306e-07
-8.03991e-07
-1.95737e-07
-6.85362e-07
-1.64426e-07
-5.88451e-07
-1.3453e-07
-5.11505e-07
-1.07075e-07
-4.52121e-07
-8.29437e-08
-4.07353e-07
-6.28965e-08
-3.7381e-07
-4.75488e-08
-3.47791e-07
-3.7354e-08
-3.2544e-07
-3.25368e-08
-3.02971e-07
-3.30206e-08
-2.76964e-07
-3.83066e-08
-2.44757e-07
-4.73392e-08
-2.04935e-07
-5.8337e-08
-1.57918e-07
-6.86366e-08
-1.06582e-07
-7.45785e-08
-5.67948e-08
-7.15653e-08
-1.74454e-08
-5.47336e-08
-2.20682e-08
2.48438e-08
-4.60672e-08
7.69478e-08
-1.05984e-07
1.40392e-07
-1.3545e-07
2.04672e-07
-1.40836e-07
2.63239e-07
-1.30716e-07
3.13088e-07
-1.13154e-07
3.5421e-07
-9.47714e-08
3.88911e-07
-8.05332e-08
4.21118e-07
-7.38458e-08
4.55764e-07
-7.67807e-08
4.98282e-07
-9.03387e-08
5.54192e-07
-1.14689e-07
6.28791e-07
-1.49374e-07
7.269e-07
-1.9345e-07
8.52661e-07
-2.45594e-07
1.00937e-06
-3.04158e-07
1.1993e-06
-3.67197e-07
1.42357e-06
-4.32463e-07
1.68194e-06
-4.97402e-07
1.9727e-06
-5.5913e-07
2.29243e-06
-6.14434e-07
2.63589e-06
-6.59775e-07
2.99587e-06
-6.9134e-07
3.36309e-06
-7.05105e-07
3.72618e-06
-6.96987e-07
4.07174e-06
-6.6301e-07
4.38455e-06
-5.99599e-07
4.64795e-06
-5.0388e-07
4.84441e-06
-3.74125e-07
4.95636e-06
-2.10165e-07
4.9672e-06
-1.38941e-08
4.86259e-06
2.10379e-07
4.63177e-06
4.5562e-07
4.26901e-06
7.12118e-07
3.77477e-06
9.67744e-07
3.15663e-06
1.20873e-06
2.42951e-06
1.42066e-06
1.61541e-06
1.58988e-06
7.42222e-07
1.70485e-06
-1.57959e-07
1.75742e-06
-1.05111e-06
1.74379e-06
-1.90369e-06
1.66498e-06
-2.6851e-06
1.52662e-06
-3.36969e-06
1.3384e-06
-3.93828e-06
1.11285e-06
-4.37893e-06
8.64136e-07
-4.68703e-06
6.06491e-07
-4.86474e-06
3.53131e-07
-4.91998e-06
1.15215e-07
-4.86509e-06
-9.86028e-08
-4.71548e-06
-2.82441e-07
-4.48827e-06
-4.32979e-07
-4.20111e-06
-5.49199e-07
-3.87128e-06
-6.31896e-07
-3.51494e-06
-6.83316e-07
-3.14663e-06
-7.0661e-07
-2.779e-06
-7.05531e-07
-2.42264e-06
-6.84061e-07
-2.08608e-06
-6.46255e-07
-1.77585e-06
-5.96029e-07
-1.49653e-06
-5.37075e-07
-1.25099e-06
-4.72748e-07
-1.04051e-06
-4.06102e-07
-8.64901e-07
-3.39864e-07
-7.22751e-07
-2.76474e-07
-6.11507e-07
-2.18061e-07
-5.27656e-07
-1.66483e-07
-4.66873e-07
-1.23304e-07
-4.2419e-07
-8.97945e-08
-3.94177e-07
-6.68594e-08
-3.71189e-07
-5.49476e-08
-3.49675e-07
-5.38866e-08
-3.2458e-07
-6.26858e-08
-2.91855e-07
-7.92812e-08
-2.49079e-07
-1.0027e-07
-1.96157e-07
-1.20661e-07
-1.36031e-07
-1.33757e-07
-7.52843e-08
-1.31322e-07
-2.45554e-08
-1.04474e-07
-4.61893e-08
2.71123e-08
-7.2616e-08
8.13277e-08
-1.59083e-07
1.44109e-07
-1.97161e-07
2.04259e-07
-1.99999e-07
2.55586e-07
-1.81114e-07
2.95924e-07
-1.52628e-07
3.26387e-07
-1.24438e-07
3.50571e-07
-1.03988e-07
3.73798e-07
-9.64079e-08
4.02441e-07
-1.04822e-07
4.43365e-07
-1.30722e-07
5.03471e-07
-1.74316e-07
5.89337e-07
-2.3482e-07
7.06924e-07
-3.10679e-07
8.61346e-07
-3.99711e-07
1.05664e-06
-4.99201e-07
1.29558e-06
-6.05928e-07
1.57946e-06
-7.16177e-07
1.90791e-06
-8.25711e-07
2.27865e-06
-9.29762e-07
2.68732e-06
-1.02301e-06
3.12725e-06
-1.09963e-06
3.5893e-06
-1.15332e-06
4.06173e-06
-1.17748e-06
4.53018e-06
-1.16539e-06
4.97773e-06
-1.11053e-06
5.38518e-06
-1.007e-06
5.73143e-06
-8.50099e-07
5.99426e-06
-6.369e-07
6.15121e-06
-3.67084e-07
6.18101e-06
-4.36347e-08
6.06501e-06
3.26426e-07
5.78906e-06
7.31633e-07
5.34527e-06
1.15596e-06
4.7337e-06
1.57939e-06
3.96351e-06
1.97899e-06
3.0535e-06
2.33076e-06
2.03165e-06
2.61182e-06
9.33747e-07
2.80286e-06
-1.98907e-07
2.8902e-06
-1.32244e-06
2.8675e-06
-2.39365e-06
2.73641e-06
-3.3732e-06
2.5064e-06
-4.22829e-06
2.19371e-06
-4.93461e-06
1.81937e-06
-5.47731e-06
1.407e-06
-5.85104e-06
9.80378e-07
-6.05914e-06
5.6137e-07
-6.11224e-06
1.68465e-07
-6.02648e-06
-1.84192e-07
-5.82176e-06
-4.8696e-07
-5.51999e-06
-7.34545e-07
-5.14367e-06
-9.25329e-07
-4.71467e-06
-1.06073e-06
-4.25343e-06
-1.14442e-06
-3.77835e-06
-1.18162e-06
-3.30537e-06
-1.17846e-06
-2.84789e-06
-1.14152e-06
-2.41671e-06
-1.07742e-06
-2.0201e-06
-9.92628e-07
-1.66394e-06
-8.93201e-07
-1.35191e-06
-7.84722e-07
-1.0857e-06
-6.72232e-07
-8.65176e-07
-5.60267e-07
-6.88637e-07
-4.5285e-07
-5.52968e-07
-3.53523e-07
-4.53843e-07
-2.65343e-07
-3.8592e-07
-1.90904e-07
-3.43035e-07
-1.32288e-07
-3.18439e-07
-9.09966e-08
-3.0507e-07
-6.77832e-08
-2.95913e-07
-6.24367e-08
-2.84446e-07
-7.34708e-08
-2.65203e-07
-9.77698e-08
-2.34448e-07
-1.30199e-07
-1.90948e-07
-1.6327e-07
-1.36785e-07
-1.86971e-07
-7.81624e-08
-1.88949e-07
-2.63563e-08
-1.55286e-07
-7.20665e-08
2.5202e-08
-9.71944e-08
7.25822e-08
-2.05326e-07
1.23177e-07
-2.46651e-07
1.66267e-07
-2.42065e-07
1.96881e-07
-2.10769e-07
2.14421e-07
-1.69278e-07
2.21652e-07
-1.30853e-07
2.23779e-07
-1.05371e-07
2.27625e-07
-9.95751e-08
2.40937e-07
-1.17512e-07
2.71813e-07
-1.61031e-07
3.28256e-07
-2.3024e-07
4.17802e-07
-3.23901e-07
5.47241e-07
-4.39702e-07
7.22349e-07
-5.74458e-07
9.47677e-07
-7.24212e-07
1.2263e-06
-8.84286e-07
1.55963e-06
-1.04927e-06
1.94713e-06
-1.21301e-06
2.38611e-06
-1.36856e-06
2.87145e-06
-1.50819e-06
3.39538e-06
-1.62342e-06
3.94729e-06
-1.70511e-06
4.51356e-06
-1.74364e-06
5.0775e-06
-1.72923e-06
5.61941e-06
-1.65235e-06
6.11682e-06
-1.50434e-06
6.54492e-06
-1.27814e-06
6.87736e-06
-9.6929e-07
7.08727e-06
-5.7696e-07
7.1488e-06
-1.05143e-07
7.03892e-06
4.3632e-07
6.73962e-06
1.03093e-06
6.24022e-06
1.65536e-06
5.53952e-06
2.28007e-06
4.64747e-06
2.871e-06
3.58598e-06
3.39219e-06
2.38849e-06
3.80925e-06
1.0983e-06
4.09297e-06
-2.34276e-07
4.22274e-06
-1.55567e-06
4.18888e-06
-2.81318e-06
3.99391e-06
-3.95896e-06
3.65225e-06
-4.95353e-06
3.18835e-06
-5.76806e-06
2.63399e-06
-6.38562e-06
2.02461e-06
-6.80096e-06
1.39572e-06
-7.01937e-06
7.79778e-07
-7.05474e-06
2.03847e-07
-6.92734e-06
-3.11513e-07
-6.66158e-06
-7.52611e-07
-6.28386e-06
-1.11207e-06
-5.821e-06
-1.38797e-06
-5.29885e-06
-1.58265e-06
-4.74138e-06
-1.70166e-06
-4.17008e-06
-1.75273e-06
-3.60351e-06
-1.74488e-06
-3.05724e-06
-1.68766e-06
-2.54381e-06
-1.59075e-06
-2.07283e-06
-1.4635e-06
-1.65117e-06
-1.31475e-06
-1.28316e-06
-1.15261e-06
-9.70814e-07
-9.84434e-07
-7.14082e-07
-8.16821e-07
-5.11089e-07
-6.55632e-07
-3.58352e-07
-5.06005e-07
-2.50993e-07
-3.72401e-07
-1.82953e-07
-2.58586e-07
-1.47211e-07
-1.67614e-07
-1.36019e-07
-1.01706e-07
-1.4119e-07
-6.20618e-08
-1.54447e-07
-4.85561e-08
-1.67873e-07
-5.93475e-08
-1.74479e-07
-9.03935e-08
-1.68897e-07
-1.34939e-07
-1.48216e-07
-1.83042e-07
-1.1292e-07
-2.21299e-07
-6.7947e-08
-2.32915e-07
-2.40043e-08
-1.98232e-07
-9.55524e-08
2.00579e-08
-1.16558e-07
5.30469e-08
-2.37153e-07
8.13474e-08
-2.73806e-07
9.59506e-08
-2.55606e-07
9.40144e-08
-2.07838e-07
7.71917e-08
-1.5154e-07
5.03967e-08
-1.03225e-07
2.07357e-08
-7.49568e-08
-3.35688e-09
-7.47961e-08
-1.28177e-08
-1.07422e-07
1.51945e-09
-1.74782e-07
4.85024e-08
-2.76678e-07
1.36352e-07
-4.11239e-07
2.72382e-07
-5.7526e-07
4.62784e-07
-7.64422e-07
7.12382e-07
-9.73411e-07
1.02442e-06
-1.19596e-06
1.40031e-06
-1.42483e-06
1.83938e-06
-1.65177e-06
2.33859e-06
-1.86749e-06
2.8923e-06
-2.06163e-06
3.49193e-06
-2.22281e-06
4.12583e-06
-2.33876e-06
4.77896e-06
-2.39655e-06
5.4329e-06
-2.38295e-06
6.06576e-06
-2.28503e-06
6.65244e-06
-2.09085e-06
7.16497e-06
-1.79053e-06
7.57326e-06
-1.37746e-06
7.84617e-06
-8.49797e-07
7.95316e-06
-2.12077e-07
7.86629e-06
5.23184e-07
7.56292e-06
1.33427e-06
7.02849e-06
2.18969e-06
6.25949e-06
3.04892e-06
5.26574e-06
3.86452e-06
4.07166e-06
4.58597e-06
2.71598e-06
5.16455e-06
1.24978e-06
5.55876e-06
-2.67047e-07
5.73912e-06
-1.77047e-06
5.69187e-06
-3.19756e-06
5.42062e-06
-4.49155e-06
4.9459e-06
-5.60614e-06
4.3027e-06
-6.50839e-06
3.53604e-06
-7.17998e-06
2.696e-06
-7.61682e-06
1.83232e-06
-7.82722e-06
9.89899e-07
-7.82933e-06
2.05704e-07
-7.64821e-06
-4.92826e-07
-7.31307e-06
-1.08783e-06
-6.85487e-06
-1.57024e-06
-6.30445e-06
-1.93823e-06
-5.69114e-06
-2.19571e-06
-5.04189e-06
-2.35061e-06
-4.38061e-06
-2.41369e-06
-3.72792e-06
-2.39726e-06
-3.10098e-06
-2.3143e-06
-2.51361e-06
-2.17782e-06
-1.97642e-06
-2.0004e-06
-1.49697e-06
-1.7939e-06
-1.08008e-06
-1.5692e-06
-7.28029e-07
-1.33616e-06
-4.40878e-07
-1.10364e-06
-2.16687e-07
-8.79462e-07
-5.17752e-08
-6.70529e-07
5.90515e-08
-4.82805e-07
1.22289e-07
-3.21362e-07
1.45521e-07
-1.90337e-07
1.37196e-07
-9.28215e-08
1.06375e-07
-3.06246e-08
6.24207e-08
-3.92601e-09
1.45925e-08
-1.07792e-08
-2.84846e-08
-4.65115e-08
-5.95119e-08
-1.03041e-07
-7.33961e-08
-1.68228e-07
-6.83243e-08
-2.25389e-07
-4.70486e-08
-2.53184e-07
-1.84639e-08
-2.25839e-07
-1.13465e-07
1.23277e-08
-1.28118e-07
2.45137e-08
-2.48148e-07
2.1678e-08
-2.69779e-07
-2.25641e-09
-2.3056e-07
-4.70448e-08
-1.6201e-07
-1.0806e-07
-8.95722e-08
-1.77763e-07
-3.26648e-08
-2.46885e-07
-5.06998e-09
-3.05321e-07
-1.56755e-08
-3.42771e-07
-6.93468e-08
-3.49205e-07
-1.67768e-07
-3.1518e-07
-3.10154e-07
-2.32091e-07
-4.93804e-07
-9.23676e-08
-7.14476e-07
1.10319e-07
-9.66624e-07
3.80873e-07
-1.2435e-06
7.22531e-07
-1.53717e-06
1.13664e-06
-1.83851e-06
1.62237e-06
-2.1371e-06
2.17646e-06
-2.42118e-06
2.79285e-06
-2.67765e-06
3.4625e-06
-2.89209e-06
4.17301e-06
-3.04891e-06
4.90844e-06
-3.13163e-06
5.64912e-06
-3.12331e-06
6.37159e-06
-3.0072e-06
7.04868e-06
-2.76766e-06
7.64975e-06
-2.39135e-06
8.14131e-06
-1.86882e-06
8.48806e-06
-1.19639e-06
8.65442e-06
-3.78347e-07
8.60687e-06
5.7077e-07
8.31693e-06
1.62416e-06
7.76483e-06
2.74167e-06
6.9433e-06
3.87022e-06
5.86091e-06
4.94658e-06
4.54399e-06
5.90242e-06
3.03669e-06
6.67128e-06
1.39861e-06
7.19613e-06
-2.99516e-07
7.43644e-06
-1.9817e-06
7.3732e-06
-3.57336e-06
7.01145e-06
-5.00773e-06
6.37955e-06
-6.23123e-06
5.52557e-06
-7.20697e-06
4.51124e-06
-7.91609e-06
3.40464e-06
-8.3569e-06
2.27263e-06
-8.54225e-06
1.1747e-06
-8.49584e-06
1.58717e-07
-8.2485e-06
-7.4069e-07
-7.83479e-06
-1.50195e-06
-7.29032e-06
-2.11496e-06
-6.64973e-06
-2.57887e-06
-5.94546e-06
-2.89985e-06
-5.20682e-06
-3.08898e-06
-4.4596e-06
-3.16055e-06
-3.72583e-06
-3.13059e-06
-3.02385e-06
-3.01583e-06
-2.3683e-06
-2.83288e-06
-1.77045e-06
-2.59775e-06
-1.23835e-06
-2.32549e-06
-7.77145e-07
-2.02987e-06
-3.89351e-07
-1.72341e-06
-7.51461e-08
-1.41728e-06
1.67362e-07
-1.1214e-06
3.41879e-07
-8.44459e-07
4.5369e-07
-5.94012e-07
5.09461e-07
-3.76504e-07
5.17039e-07
-1.9726e-07
4.85282e-07
-6.03759e-08
4.23862e-07
3.15216e-08
3.43031e-07
7.76748e-08
2.53307e-07
7.97622e-08
1.65019e-07
4.26448e-08
8.76648e-08
-2.47668e-08
2.90076e-08
-1.08602e-07
-6.1128e-09
-1.89264e-07
-1.72927e-08
-2.40993e-07
-1.03998e-08
-2.3177e-07
-1.23266e-07
2.40911e-09
-1.29687e-07
-1.18415e-08
-2.3267e-07
-5.36754e-08
-2.26689e-07
-1.25013e-07
-1.58038e-07
-2.21482e-07
-6.44242e-08
-3.34736e-07
2.47061e-08
-4.54148e-07
8.76673e-08
-5.68097e-07
1.0969e-07
-6.64822e-07
8.17635e-08
-7.32965e-07
-5.71353e-10
-7.61887e-07
-1.38272e-07
-7.41867e-07
-3.29642e-07
-6.64221e-07
-5.70937e-07
-5.21442e-07
-8.56761e-07
-3.07306e-07
-1.18027e-06
-1.70694e-08
-1.53326e-06
3.52361e-07
-1.90615e-06
8.02157e-07
-2.28787e-06
1.33133e-06
-2.66585e-06
1.93641e-06
-3.02585e-06
2.61114e-06
-3.35199e-06
3.34617e-06
-3.62674e-06
4.12875e-06
-3.83113e-06
4.94243e-06
-3.94497e-06
5.76685e-06
-3.94741e-06
6.57755e-06
-3.8176e-06
7.34591e-06
-3.53574e-06
8.0392e-06
-3.08441e-06
8.62102e-06
-2.45044e-06
9.05198e-06
-1.62721e-06
9.29125e-06
-6.17528e-07
9.29883e-06
5.63197e-07
9.03906e-06
1.88387e-06
8.48511e-06
3.29548e-06
7.6241e-06
4.731e-06
6.46187e-06
6.1085e-06
5.02601e-06
7.33787e-06
3.36628e-06
8.33045e-06
1.55201e-06
9.00969e-06
-3.33389e-07
9.32096e-06
-2.19984e-06
9.23867e-06
-3.95905e-06
8.76965e-06
-5.53269e-06
7.95222e-06
-6.8591e-06
6.85117e-06
-7.89762e-06
5.54911e-06
-8.62993e-06
4.13639e-06
-9.05843e-06
2.7006e-06
-9.20232e-06
1.31798e-06
-9.09259e-06
4.82771e-08
-8.76699e-06
-1.06706e-06
-8.26602e-06
-2.00365e-06
-7.62999e-06
-2.75158e-06
-6.89711e-06
-3.31215e-06
-6.1023e-06
-3.69484e-06
-5.27667e-06
-3.9146e-06
-4.44722e-06
-3.98981e-06
-3.63689e-06
-3.94061e-06
-2.8646e-06
-3.7877e-06
-2.14551e-06
-3.55146e-06
-1.49122e-06
-3.25148e-06
-9.10083e-07
-2.90601e-06
-4.07464e-07
-2.53184e-06
1.39233e-08
-2.14412e-06
3.53735e-07
-1.75639e-06
6.13704e-07
-1.38064e-06
7.97388e-07
-1.0274e-06
9.09935e-07
-7.05797e-07
9.57901e-07
-4.2369e-07
9.49095e-07
-1.87652e-07
8.92458e-07
-2.91403e-09
7.97962e-07
1.26871e-07
6.76488e-07
2.00034e-07
5.39647e-07
2.17528e-07
3.99462e-07
1.83796e-07
2.67829e-07
1.07876e-07
1.55651e-07
4.62382e-09
7.15537e-08
-1.04094e-07
2.01375e-08
-1.88514e-07
-2.11093e-10
-2.10425e-07
-1.22779e-07
-9.53052e-09
-1.19239e-07
-5.54696e-08
-1.85447e-07
-1.4356e-07
-1.37248e-07
-2.70209e-07
-3.00849e-08
-4.25787e-07
9.2403e-08
-5.97441e-07
1.9753e-07
-7.71068e-07
2.62357e-07
-9.32609e-07
2.72179e-07
-1.06881e-06
2.1879e-07
-1.16755e-06
9.88825e-08
-1.21795e-06
-8.72456e-08
-1.21041e-06
-3.3664e-07
-1.13653e-06
-6.44322e-07
-9.8918e-07
-1.00365e-06
-7.62552e-07
-1.40647e-06
-4.52259e-07
-1.84315e-06
-5.55499e-08
-2.30248e-06
4.28493e-07
-2.77157e-06
9.9865e-07
-3.23571e-06
1.6513e-06
-3.67824e-06
2.38007e-06
-4.08054e-06
3.17553e-06
-4.42202e-06
4.02485e-06
-4.68031e-06
4.91151e-06
-4.83152e-06
5.81497e-06
-4.8508e-06
6.71041e-06
-4.71301e-06
7.56851e-06
-4.39384e-06
8.35526e-06
-3.87119e-06
9.03196e-06
-3.12722e-06
9.55566e-06
-2.15102e-06
9.88017e-06
-9.42177e-07
9.95827e-06
4.84927e-07
9.74551e-06
2.09644e-06
9.20574e-06
3.83506e-06
8.31804e-06
5.61855e-06
7.08351e-06
7.34291e-06
5.53002e-06
8.89127e-06
3.71333e-06
1.01471e-05
1.71391e-06
1.10089e-05
-3.69782e-07
1.14043e-05
-2.43088e-06
1.12992e-05
-4.36481e-06
1.07029e-05
-6.0797e-06
9.6665e-06
-7.5049e-06
8.27584e-06
-8.59623e-06
6.64013e-06
-9.33733e-06
4.87738e-06
-9.73693e-06
3.10015e-06
-9.82312e-06
1.40398e-06
-9.63604e-06
-1.39198e-07
-9.22163e-06
-1.48207e-06
-8.62681e-06
-2.59923e-06
-7.89642e-06
-3.48275e-06
-7.07158e-06
-4.13768e-06
-6.18902e-06
-4.57795e-06
-5.2808e-06
-4.8232e-06
-4.37445e-06
-4.89636e-06
-3.49314e-06
-4.82196e-06
-2.65597e-06
-4.62478e-06
-1.87818e-06
-4.32905e-06
-1.17151e-06
-3.95785e-06
-5.44425e-07
-3.53271e-06
-2.4536e-09
-3.07334e-06
4.51502e-07
-2.59753e-06
8.16862e-07
-2.12115e-06
1.09508e-06
-1.65821e-06
1.28938e-06
-1.221e-06
1.40454e-06
-8.20209e-07
1.44672e-06
-4.65073e-07
1.42335e-06
-1.63443e-07
1.34308e-06
7.8234e-08
1.2158e-06
2.55074e-07
1.05265e-06
3.64154e-07
8.66049e-07
4.05159e-07
6.69552e-07
3.81374e-07
4.77547e-07
3.01017e-07
3.04483e-07
1.78873e-07
1.63562e-07
3.80462e-08
6.47223e-08
-8.84649e-08
1.19513e-08
-1.56518e-07
-1.09947e-07
-2.35522e-08
-9.4676e-08
-1.06509e-07
-1.01125e-07
-2.47934e-07
5.66161e-09
-4.3711e-07
1.60552e-07
-6.57841e-07
3.14575e-07
-8.92007e-07
4.33083e-07
-1.12174e-06
4.934e-07
-1.33069e-06
4.82316e-07
-1.50444e-06
3.93605e-07
-1.6306e-06
2.25965e-07
-1.69857e-06
-1.84881e-08
-1.69934e-06
-3.35226e-07
-1.62522e-06
-7.17889e-07
-1.46986e-06
-1.15857e-06
-1.2281e-06
-1.64785e-06
-8.962e-07
-2.17475e-06
-4.71893e-07
-2.72656e-06
4.53242e-08
-3.28865e-06
6.53966e-07
-3.84429e-06
1.35022e-06
-4.37454e-06
2.12768e-06
-4.85813e-06
2.97697e-06
-5.27153e-06
3.88545e-06
-5.58909e-06
4.83686e-06
-5.78333e-06
5.81105e-06
-5.82545e-06
6.78355e-06
-5.68604e-06
7.72523e-06
-5.3361e-06
8.60185e-06
-4.74843e-06
9.37358e-06
-3.8996e-06
9.9948e-06
-2.7729e-06
1.04144e-05
-1.36246e-06
1.05776e-05
3.21142e-07
1.04295e-05
2.24408e-06
9.92183e-06
4.3424e-06
9.02242e-06
6.51785e-06
7.72499e-06
8.64051e-06
6.0563e-06
1.05604e-05
4.07832e-06
1.21258e-05
1.88446e-06
1.32036e-05
-4.0915e-07
1.36987e-05
-2.6757e-06
1.35664e-05
-4.79138e-06
1.2819e-05
-6.64862e-06
1.15239e-05
-8.16674e-06
9.79425e-06
-9.29865e-06
7.77251e-06
-1.00319e-05
5.6114e-06
-1.03846e-05
3.45378e-06
-1.03967e-05
1.41685e-06
-1.01198e-05
-4.1555e-07
-9.60914e-06
-1.99259e-06
-8.91803e-06
-3.29058e-06
-8.09515e-06
-4.30619e-06
-7.18353e-06
-5.05004e-06
-6.2205e-06
-5.54178e-06
-5.2381e-06
-5.80636e-06
-4.26352e-06
-5.87164e-06
-3.31954e-06
-5.76655e-06
-2.42494e-06
-5.51991e-06
-1.59476e-06
-5.15965e-06
-8.4065e-07
-4.71228e-06
-1.71108e-07
-4.20246e-06
4.08207e-07
-3.65275e-06
8.94169e-07
-3.08347e-06
1.28588e-06
-2.51272e-06
1.58437e-06
-1.95645e-06
1.79234e-06
-1.42862e-06
1.91396e-06
-9.41365e-07
1.95469e-06
-5.05233e-07
1.9212e-06
-1.29295e-07
1.82145e-06
1.78743e-07
1.66476e-06
4.12631e-07
1.46201e-06
5.67861e-07
1.22594e-06
6.4229e-07
9.71304e-07
6.37174e-07
7.14865e-07
5.58724e-07
4.74903e-07
4.20197e-07
2.69978e-07
2.44406e-07
1.16674e-07
6.6293e-08
2.61991e-08
-6.46538e-08
-8.26261e-08
-4.00059e-08
-5.3545e-08
-1.65938e-07
2.6259e-08
-3.68102e-07
2.09433e-07
-6.26545e-07
4.20598e-07
-9.17014e-07
6.06656e-07
-1.21541e-06
7.33077e-07
-1.5001e-06
7.79642e-07
-1.75281e-06
7.36515e-07
-1.95868e-06
6.00843e-07
-2.10572e-06
3.7424e-07
-2.18431e-06
6.11519e-08
-2.18657e-06
-3.32088e-07
-2.10605e-06
-7.97701e-07
-1.93749e-06
-1.32657e-06
-1.67677e-06
-1.90816e-06
-1.32097e-06
-2.53027e-06
-8.68522e-07
-3.17885e-06
-3.19462e-07
-3.83769e-06
3.24324e-07
-4.48821e-06
1.05882e-06
-5.1093e-06
1.87754e-06
-5.67727e-06
2.77127e-06
-6.16582e-06
3.72769e-06
-6.54623e-06
4.73118e-06
-6.78765e-06
5.76238e-06
-6.85762e-06
6.79795e-06
-6.72268e-06
7.80999e-06
-6.34931e-06
8.76541e-06
-5.70508e-06
9.62492e-06
-4.76039e-06
1.0342e-05
-3.49125e-06
1.08621e-05
-1.88373e-06
1.11229e-05
5.92257e-08
1.10578e-05
2.30825e-06
1.06033e-05
4.79624e-06
9.71182e-06
7.40906e-06
8.36609e-06
9.98645e-06
6.58984e-06
1.23375e-05
4.45138e-06
1.42656e-05
2.05887e-06
1.55979e-05
-4.51087e-07
1.62106e-05
-2.92854e-06
1.60456e-05
-5.22744e-06
1.51192e-05
-7.22235e-06
1.35197e-05
-8.82184e-06
1.13945e-05
-9.97671e-06
8.92833e-06
-1.06813e-05
6.31731e-06
-1.09668e-05
3.74103e-06
-1.08888e-05
1.34075e-06
-1.05129e-05
-7.89712e-07
-9.90418e-06
-2.60006e-06
-9.12138e-06
-4.07268e-06
-8.21545e-06
-5.21198e-06
-7.2296e-06
-6.03623e-06
-6.2002e-06
-6.57179e-06
-5.158e-06
-6.84937e-06
-4.12892e-06
-6.90166e-06
-3.13469e-06
-6.76176e-06
-2.19338e-06
-6.46222e-06
-1.31961e-06
-6.0344e-06
-5.24834e-07
-5.50798e-06
1.82454e-07
-4.91059e-06
7.96433e-07
-4.26746e-06
1.31368e-06
-3.60133e-06
1.73287e-06
-2.93237e-06
2.05446e-06
-2.27835e-06
2.28044e-06
-1.65476e-06
2.41411e-06
-1.07504e-06
2.45993e-06
-5.5089e-07
2.42346e-06
-9.25043e-08
2.31145e-06
2.91234e-07
2.13208e-06
5.92654e-07
1.89532e-06
8.05435e-07
1.61352e-06
9.25076e-07
1.30198e-06
9.49878e-07
9.79414e-07
8.82623e-07
6.67966e-07
7.33141e-07
3.92281e-07
5.21726e-07
1.77095e-07
2.83178e-07
4.29499e-08
7.11378e-08
-3.83756e-08
-5.96665e-08
7.37491e-09
-2.3592e-07
2.0398e-07
-5.07118e-07
4.82254e-07
-8.41228e-07
7.5628e-07
-1.20423e-06
9.71228e-07
-1.56558e-06
1.096e-06
-1.90028e-06
1.11594e-06
-2.18909e-06
1.02691e-06
-2.41766e-06
8.3097e-07
-2.57544e-06
5.33485e-07
-2.65455e-06
1.41588e-07
-2.64896e-06
-3.36529e-07
-2.55389e-06
-8.91778e-07
-2.36561e-06
-1.51404e-06
-2.08127e-06
-2.19183e-06
-1.69902e-06
-2.91198e-06
-1.21819e-06
-3.65927e-06
-6.39522e-07
-4.41609e-06
3.45993e-08
-5.16219e-06
7.99794e-07
-5.87452e-06
1.64947e-06
-6.52712e-06
2.57449e-06
-7.09118e-06
3.56298e-06
-7.53521e-06
4.60003e-06
-7.82533e-06
5.66752e-06
-7.92587e-06
6.7438e-06
-7.79988e-06
7.80333e-06
-7.40989e-06
8.81581e-06
-6.71874e-06
9.74482e-06
-5.69069e-06
1.05457e-05
-4.29348e-06
1.11631e-05
-2.50249e-06
1.15292e-05
-3.0822e-07
1.1565e-05
2.27116e-06
1.11885e-05
5.17177e-06
1.03312e-05
8.26553e-06
8.96044e-06
1.13567e-05
7.09446e-06
1.42033e-05
4.80787e-06
1.65526e-05
2.22526e-06
1.81815e-05
-4.94005e-07
1.89312e-05
-3.17426e-06
1.87271e-05
-5.6448e-06
1.75904e-05
-7.7608e-06
1.56358e-05
-9.41965e-06
1.3053e-05
-1.05714e-05
1.00799e-05
-1.12206e-05
6.96683e-06
-1.14166e-05
3.93817e-06
-1.12352e-05
1.16105e-06
-1.07579e-05
-1.26497e-06
-1.00588e-05
-3.29718e-06
-9.19989e-06
-4.93e-06
-8.23143e-06
-6.17933e-06
-7.19421e-06
-7.07282e-06
-6.12171e-06
-7.64406e-06
-5.04193e-06
-7.92919e-06
-3.97859e-06
-7.96529e-06
-2.95187e-06
-7.78895e-06
-1.97885e-06
-7.43585e-06
-1.07367e-06
-6.94029e-06
-2.47589e-07
-6.33482e-06
4.90813e-07
-5.64976e-06
1.13548e-06
-4.91286e-06
1.68256e-06
-4.14908e-06
2.13016e-06
-3.38056e-06
2.47801e-06
-2.62668e-06
2.72721e-06
-1.90431e-06
2.87996e-06
-1.22801e-06
2.93945e-06
-6.10435e-07
2.90972e-06
-6.26825e-08
2.79586e-06
4.05363e-07
2.60422e-06
7.84727e-07
2.34307e-06
1.06721e-06
2.02336e-06
1.2456e-06
1.6599e-06
1.31436e-06
1.27248e-06
1.27128e-06
8.86702e-07
1.12038e-06
5.33761e-07
8.76295e-07
2.4829e-07
5.70375e-07
6.30417e-08
2.58036e-07
2.58775e-08
-8.40486e-08
9.27792e-08
-3.20456e-07
4.41689e-07
-6.70513e-07
8.33702e-07
-1.08619e-06
1.17315e-06
-1.52196e-06
1.40809e-06
-1.94094e-06
1.51604e-06
-2.31596e-06
1.49206e-06
-2.62832e-06
1.34047e-06
-2.86574e-06
1.06968e-06
-3.02028e-06
6.89382e-07
-3.08677e-06
2.09441e-07
-3.06165e-06
-3.60323e-07
-2.94232e-06
-1.00984e-06
-2.72684e-06
-1.72828e-06
-2.41391e-06
-2.50355e-06
-2.00293e-06
-3.32175e-06
-1.49432e-06
-4.16669e-06
-8.89654e-07
-5.01954e-06
-1.9206e-07
-5.85858e-06
5.936e-07
-6.65898e-06
1.46041e-06
-7.39276e-06
2.39921e-06
-8.02886e-06
3.39839e-06
-8.53334e-06
4.44377e-06
-8.86976e-06
5.51849e-06
-8.99977e-06
6.60302e-06
-8.88374e-06
7.67498e-06
-8.48137e-06
8.70862e-06
-7.7521e-06
9.67312e-06
-6.65517e-06
1.05297e-05
-5.15025e-06
1.12269e-05
-3.2002e-06
1.16956e-05
-7.77777e-07
1.18461e-05
2.11952e-06
1.15742e-05
5.44217e-06
1.07846e-05
9.05298e-06
9.42406e-06
1.27145e-05
7.50244e-06
1.61218e-05
5.10065e-06
1.89511e-05
2.3608e-06
2.09184e-05
-5.34524e-07
2.18241e-05
-3.38336e-06
2.15737e-05
-5.98987e-06
2.01942e-05
-8.19004e-06
1.78325e-05
-9.87057e-06
1.47294e-05
-1.09823e-05
1.11874e-05
-1.15437e-05
7.52477e-06
-1.16284e-05
4.02059e-06
-1.13371e-05
8.68917e-07
-1.07685e-05
-1.83328e-06
-1.00025e-05
-4.06203e-06
-9.09929e-06
-5.83153e-06
-8.1041e-06
-7.1727e-06
-7.05186e-06
-8.12327e-06
-5.97092e-06
-8.72328e-06
-4.88521e-06
-9.01331e-06
-3.81554e-06
-9.03347e-06
-2.78027e-06
-8.82284e-06
-1.79554e-06
-8.41934e-06
-8.7512e-07
-7.85962e-06
-3.0299e-08
-7.17868e-06
7.30113e-07
-6.40933e-06
1.39962e-06
-5.58163e-06
1.97381e-06
-4.72263e-06
2.45005e-06
-3.85622e-06
2.82717e-06
-3.0033e-06
3.10522e-06
-2.18188e-06
3.28511e-06
-1.40746e-06
3.3685e-06
-6.93397e-07
3.35764e-06
-5.13914e-08
3.25546e-06
5.08001e-07
3.06586e-06
9.74814e-07
2.79443e-06
1.3392e-06
2.44954e-06
1.59115e-06
2.04396e-06
1.72071e-06
1.59699e-06
1.71917e-06
1.13649e-06
1.58195e-06
7.00174e-07
1.31383e-06
3.34349e-07
9.37444e-07
8.7986e-08
5.05481e-07
1.14545e-07
-1.16042e-07
2.10194e-07
-4.26606e-07
7.53087e-07
-8.67425e-07
1.27538e-06
-1.36933e-06
1.67549e-06
-1.874e-06
1.91288e-06
-2.33952e-06
1.98153e-06
-2.73896e-06
1.89147e-06
-3.05659e-06
1.65825e-06
-3.28413e-06
1.29763e-06
-3.41767e-06
8.23638e-07
-3.45563e-06
2.48392e-07
-3.3975e-06
-4.17246e-07
-3.24313e-06
-1.16277e-06
-2.99264e-06
-1.97712e-06
-2.64638e-06
-2.84791e-06
-2.2052e-06
-3.76074e-06
-1.67068e-06
-4.69869e-06
-1.04552e-06
-5.6419e-06
-3.33703e-07
-6.56729e-06
4.59103e-07
-7.44841e-06
1.32544e-06
-8.25547e-06
2.2558e-06
-8.95541e-06
3.23857e-06
-9.51213e-06
4.2599e-06
-9.88705e-06
5.30391e-06
-1.00398e-05
6.35296e-06
-9.92888e-06
7.38815e-06
-9.51277e-06
8.38941e-06
-8.75005e-06
9.33432e-06
-7.59723e-06
1.01947e-05
-6.00845e-06
1.09305e-05
-3.93441e-06
1.14792e-05
-1.32589e-06
1.17455e-05
1.85262e-06
1.16012e-05
5.58422e-06
1.09177e-05
9.73229e-06
9.61649e-06
1.40092e-05
7.69704e-06
1.80325e-05
5.24686e-06
2.13909e-05
2.4252e-06
2.37293e-05
-5.66212e-07
2.48056e-05
-3.50337e-06
2.45021e-05
-6.16907e-06
2.28514e-05
-8.38432e-06
2.00387e-05
-1.00273e-05
1.63626e-05
-1.10506e-05
1.22006e-05
-1.14898e-05
7.95445e-06
-1.14485e-05
3.97122e-06
-1.10571e-05
4.71601e-07
-1.04296e-05
-2.46439e-06
-9.64449e-06
-4.84869e-06
-8.75192e-06
-6.72386e-06
-7.78562e-06
-8.13738e-06
-6.77098e-06
-9.13528e-06
-5.72928e-06
-9.76162e-06
-4.67964e-06
-1.0059e-05
-3.63977e-06
-1.0069e-05
-2.62646e-06
-9.83159e-06
-1.65529e-06
-9.38578e-06
-7.4013e-07
-8.77022e-06
1.07338e-07
-8.02175e-06
8.77762e-07
-7.17558e-06
1.56399e-06
-6.26396e-06
2.16082e-06
-5.31585e-06
2.66469e-06
-4.35683e-06
3.07339e-06
-3.40909e-06
3.38574e-06
-2.49166e-06
3.60125e-06
-1.62076e-06
3.71991e-06
-8.1019e-07
3.74196e-06
-7.1889e-08
3.66785e-06
5.83367e-07
3.4985e-06
1.14518e-06
3.23587e-06
1.60261e-06
2.88432e-06
1.94333e-06
2.45262e-06
2.15292e-06
1.9571e-06
2.21513e-06
1.42553e-06
2.11392e-06
9.00798e-07
1.83889e-06
4.4229e-07
1.39613e-06
1.20562e-07
8.2706e-07
2.34919e-07
-1.61252e-07
3.72727e-07
-5.66592e-07
1.15853e-06
-1.11221e-06
1.8213e-06
-1.70168e-06
2.26469e-06
-2.26442e-06
2.47476e-06
-2.75713e-06
2.47301e-06
-3.15722e-06
2.29023e-06
-3.45529e-06
1.95517e-06
-3.64931e-06
1.49089e-06
-3.74072e-06
9.148e-07
-3.7322e-06
2.40164e-07
-3.62652e-06
-5.22095e-07
-3.42614e-06
-1.36179e-06
-3.13321e-06
-2.26816e-06
-2.7498e-06
-3.22889e-06
-2.27824e-06
-4.22931e-06
-1.72149e-06
-5.25185e-06
-1.08345e-06
-6.27572e-06
-3.69327e-07
-7.27657e-06
4.14182e-07
-8.22649e-06
1.25865e-06
-9.09397e-06
2.15386e-06
-9.84416e-06
3.08761e-06
-1.04391e-05
4.04583e-06
-1.08382e-05
5.01272e-06
-1.09994e-05
5.97155e-06
-1.08806e-05
6.90593e-06
-1.04406e-05
7.80136e-06
-9.63911e-06
8.64535e-06
-8.43559e-06
9.42513e-06
-6.78352e-06
1.01207e-05
-4.62654e-06
1.069e-05
-1.89336e-06
1.10443e-05
1.49809e-06
1.10333e-05
5.59213e-06
1.04897e-05
1.02693e-05
9.3103e-06
1.51778e-05
7.48417e-06
1.98436e-05
5.10658e-06
2.37501e-05
2.35068e-06
2.64655e-05
-5.77043e-07
2.77154e-05
-3.44428e-06
2.73545e-05
-6.02454e-06
2.54193e-05
-8.13643e-06
2.21387e-05
-9.65492e-06
1.78685e-05
-1.05339e-05
1.3066e-05
-1.08254e-05
8.2322e-06
-1.06658e-05
3.79904e-06
-1.02168e-05
1.22357e-08
-9.6012e-06
-3.08791e-06
-8.88113e-06
-5.5736e-06
-8.08446e-06
-7.52265e-06
-7.22634e-06
-8.99516e-06
-6.31967e-06