/*--------------------------------*- C++ -*----------------------------------*\
| =========                 |                                                 |
| \\      /  F ield         | OpenFOAM: The Open Source CFD Toolbox           |
|  \\    /   O peration     | Version:  2412                                  |
|   \\  /    A nd           | Website:  www.openfoam.com                      |
|    \\/     M anipulation  |                                                 |
\*---------------------------------------------------------------------------*/
FoamFile
{
    version     2.0;
    format      ascii;
    arch        "LSB;label=32;scalar=64";
    class       volVectorField;
    location    "5.2";
    object      U;
}
// * * * * * * * * * * * * * * * * * * * * * * * * * * * * * * * * * * * * * //

dimensions      [0 1 -1 0 0 0 0];

internalField   nonuniform List<vector> 
6400
(
(1.38678e-07 -1.33411e-07 0)
(2.3505e-06 -6.70858e-07 0)
(6.44552e-06 -1.00909e-06 0)
(1.14613e-05 -1.10628e-06 0)
(1.65264e-05 -1.06586e-06 0)
(2.11846e-05 -9.59694e-07 0)
(2.52681e-05 -8.38527e-07 0)
(2.8805e-05 -7.35975e-07 0)
(3.19549e-05 -6.71802e-07 0)
(3.4959e-05 -6.55871e-07 0)
(3.80996e-05 -6.91566e-07 0)
(4.1673e-05 -7.77933e-07 0)
(4.59674e-05 -9.11417e-07 0)
(5.12506e-05 -1.08661e-06 0)
(5.77573e-05 -1.29714e-06 0)
(6.5683e-05 -1.53557e-06 0)
(7.51741e-05 -1.79388e-06 0)
(8.63236e-05 -2.06273e-06 0)
(9.916e-05 -2.33199e-06 0)
(0.000113643 -2.58952e-06 0)
(0.00012965 -2.82211e-06 0)
(0.000146971 -3.01402e-06 0)
(0.000165294 -3.14852e-06 0)
(0.000184206 -3.20629e-06 0)
(0.000203175 -3.16803e-06 0)
(0.000221562 -3.01278e-06 0)
(0.000238614 -2.72202e-06 0)
(0.000253488 -2.27804e-06 0)
(0.000265266 -1.6699e-06 0)
(0.000272997 -8.91655e-07 0)
(0.000275743 5.00518e-08 0)
(0.00027265 1.13896e-06 0)
(0.00026301 2.34117e-06 0)
(0.000246353 3.61132e-06 0)
(0.000222506 4.88676e-06 0)
(0.000191673 6.0988e-06 0)
(0.000154449 7.17011e-06 0)
(0.00011184 8.03084e-06 0)
(6.52062e-05 8.61698e-06 0)
(1.61979e-05 8.8875e-06 0)
(-3.3369e-05 8.81923e-06 0)
(-8.16316e-05 8.4202e-06 0)
(-0.000126829 7.71792e-06 0)
(-0.000167416 6.76695e-06 0)
(-0.00020217 5.63124e-06 0)
(-0.000230247 4.388e-06 0)
(-0.000251212 3.10816e-06 0)
(-0.000265017 1.8615e-06 0)
(-0.00027196 7.00415e-07 0)
(-0.000272614 -3.3152e-07 0)
(-0.000267756 -1.21096e-06 0)
(-0.000258278 -1.92281e-06 0)
(-0.000245131 -2.46762e-06 0)
(-0.000229255 -2.85049e-06 0)
(-0.000211545 -3.08806e-06 0)
(-0.000192806 -3.19582e-06 0)
(-0.000173748 -3.19513e-06 0)
(-0.000154969 -3.10445e-06 0)
(-0.000136956 -2.94509e-06 0)
(-0.000120087 -2.73415e-06 0)
(-0.000104636 -2.48922e-06 0)
(-9.07841e-05 -2.22327e-06 0)
(-7.86287e-05 -1.94981e-06 0)
(-6.81901e-05 -1.67927e-06 0)
(-5.94221e-05 -1.4223e-06 0)
(-5.2218e-05 -1.18682e-06 0)
(-4.64197e-05 -9.80991e-07 0)
(-4.18237e-05 -8.11215e-07 0)
(-3.81879e-05 -6.84165e-07 0)
(-3.52386e-05 -6.04778e-07 0)
(-3.2681e-05 -5.77e-07 0)
(-3.02128e-05 -6.01591e-07 0)
(-2.75447e-05 -6.75574e-07 0)
(-2.44284e-05 -7.89165e-07 0)
(-2.06959e-05 -9.23125e-07 0)
(-1.63106e-05 -1.04416e-06 0)
(-1.14325e-05 -1.10187e-06 0)
(-6.52148e-06 -1.02183e-06 0)
(-2.46482e-06 -6.89127e-07 0)
(-1.93226e-07 -1.35755e-07 0)
(7.68697e-07 -2.3084e-06 0)
(6.71129e-06 -6.38602e-06 0)
(1.59888e-05 -8.82075e-06 0)
(2.68327e-05 -9.58373e-06 0)
(3.76152e-05 -9.22596e-06 0)
(4.74727e-05 -8.30095e-06 0)
(5.60991e-05 -7.247e-06 0)
(6.35978e-05 -6.3793e-06 0)
(7.03696e-05 -5.90508e-06 0)
(7.70075e-05 -5.94525e-06 0)
(8.42134e-05 -6.555e-06 0)
(9.27269e-05 -7.74166e-06 0)
(0.000103279 -9.47757e-06 0)
(0.000116546 -1.17101e-05 0)
(0.000133131 -1.4367e-05 0)
(0.000153528 -1.73607e-05 0)
(0.000178109 -2.05881e-05 0)
(0.000207097 -2.39323e-05 0)
(0.000240552 -2.72587e-05 0)
(0.000278341 -3.04171e-05 0)
(0.000320123 -3.32368e-05 0)
(0.000365315 -3.55312e-05 0)
(0.000413086 -3.70944e-05 0)
(0.00046232 -3.77111e-05 0)
(0.000511628 -3.71563e-05 0)
(0.000559325 -3.52137e-05 0)
(0.000603472 -3.16811e-05 0)
(0.000641888 -2.63996e-05 0)
(0.00067224 -1.92644e-05 0)
(0.000692113 -1.02642e-05 0)
(0.000699166 5.08126e-07 0)
(0.000691256 1.28154e-05 0)
(0.000666661 2.62809e-05 0)
(0.000624228 4.03663e-05 0)
(0.0005636 5.4413e-05 0)
(0.000485318 6.76562e-05 0)
(0.000390943 7.93109e-05 0)
(0.000283013 8.8617e-05 0)
(0.000164984 9.49466e-05 0)
(4.09911e-05 9.78431e-05 0)
(-8.4388e-05 9.71058e-05 0)
(-0.000206494 9.27802e-05 0)
(-0.000320885 8.5187e-05 0)
(-0.000423683 7.48489e-05 0)
(-0.00051178 6.24674e-05 0)
(-0.000583034 4.88097e-05 0)
(-0.000636294 3.46694e-05 0)
(-0.0006714 2.07616e-05 0)
(-0.000689042 7.70856e-06 0)
(-0.000690624 -4.02664e-06 0)
(-0.000678054 -1.41154e-05 0)
(-0.000653576 -2.23894e-05 0)
(-0.000619573 -2.87886e-05 0)
(-0.000578444 -3.33705e-05 0)
(-0.000532466 -3.62573e-05 0)
(-0.000483734 -3.76329e-05 0)
(-0.000434088 -3.76981e-05 0)
(-0.000385103 -3.66775e-05 0)
(-0.000338067 -3.47871e-05 0)
(-0.000293995 -3.22432e-05 0)
(-0.000253628 -2.92382e-05 0)
(-0.000217469 -2.59528e-05 0)
(-0.000185792 -2.25436e-05 0)
(-0.000158674 -1.91568e-05 0)
(-0.00013601 -1.59172e-05 0)
(-0.000117537 -1.29388e-05 0)
(-0.000102852 -1.03169e-05 0)
(-9.14329e-05 -8.13683e-06 0)
(-8.26594e-05 -6.46637e-06 0)
(-7.58339e-05 -5.35813e-06 0)
(-7.021e-05 -4.83838e-06 0)
(-6.50304e-05 -4.90108e-06 0)
(-5.95768e-05 -5.49113e-06 0)
(-5.32378e-05 -6.4894e-06 0)
(-4.55948e-05 -7.6892e-06 0)
(-3.65255e-05 -8.77531e-06 0)
(-2.63217e-05 -9.30412e-06 0)
(-1.58468e-05 -8.70755e-06 0)
(-6.74731e-06 -6.40277e-06 0)
(-8.02132e-07 -2.35232e-06 0)
(1.18898e-06 -6.43726e-06 0)
(9.43982e-06 -1.55512e-05 0)
(2.1353e-05 -2.04757e-05 0)
(3.47236e-05 -2.18284e-05 0)
(4.76356e-05 -2.08132e-05 0)
(5.91567e-05 -1.8613e-05 0)
(6.90329e-05 -1.62024e-05 0)
(7.75209e-05 -1.43099e-05 0)
(8.52539e-05 -1.34327e-05 0)
(9.31215e-05 -1.38718e-05 0)
(0.000102153 -1.57723e-05 0)
(0.000113433 -1.91592e-05 0)
(0.000128026 -2.39685e-05 0)
(0.000146927 -3.0067e-05 0)
(0.000171009 -3.72691e-05 0)
(0.000200999 -4.53428e-05 0)
(0.000237427 -5.40162e-05 0)
(0.000280616 -6.29739e-05 0)
(0.000330628 -7.1859e-05 0)
(0.000387251 -8.02665e-05 0)
(0.000449942 -8.77472e-05 0)
(0.000517823 -9.38031e-05 0)
(0.000589618 -9.79004e-05 0)
(0.00066366 -9.94716e-05 0)
(0.00073785 -9.79444e-05 0)
(0.00080969 -9.27572e-05 0)
(0.000876273 -8.34105e-05 0)
(0.000934387 -6.94981e-05 0)
(0.000980554 -5.07846e-05 0)
(0.00101123 -2.72474e-05 0)
(0.00102292 8.33279e-07 0)
(0.0010125 3.28462e-05 0)
(0.000977382 6.7783e-05 0)
(0.000915889 0.000104272 0)
(0.000827452 0.000140589 0)
(0.000712893 0.000174797 0)
(0.000574483 0.000204854 0)
(0.000416008 0.000228848 0)
(0.000242552 0.000245142 0)
(6.02755e-05 0.000252604 0)
(-0.000124063 0.000250687 0)
(-0.000303522 0.000239544 0)
(-0.000471549 0.000219955 0)
(-0.000622367 0.000193294 0)
(-0.000751408 0.000161314 0)
(-0.000855483 0.000126019 0)
(-0.000932927 8.94067e-05 0)
(-0.00098349 5.33568e-05 0)
(-0.00100822 1.94395e-05 0)
(-0.00100919 -1.11038e-05 0)
(-0.000989233 -3.74435e-05 0)
(-0.000951647 -5.90916e-05 0)
(-0.000899972 -7.59056e-05 0)
(-0.000837741 -8.79825e-05 0)
(-0.000768345 -9.56442e-05 0)
(-0.000694886 -9.93253e-05 0)
(-0.000620117 -9.95603e-05 0)
(-0.000546388 -9.69023e-05 0)
(-0.00047564 -9.19286e-05 0)
(-0.000409398 -8.51845e-05 0)
(-0.000348801 -7.71927e-05 0)
(-0.000294615 -6.84193e-05 0)
(-0.000247275 -5.92955e-05 0)
(-0.000206912 -5.02002e-05 0)
(-0.00017339 -4.14779e-05 0)
(-0.00014633 -3.34247e-05 0)
(-0.000125148 -2.63032e-05 0)
(-0.000109081 -2.03309e-05 0)
(-9.72188e-05 -1.56884e-05 0)
(-8.85396e-05 -1.25021e-05 0)
(-8.19513e-05 -1.08365e-05 0)
(-7.63449e-05 -1.0665e-05 0)
(-7.06648e-05 -1.1845e-05 0)
(-6.39976e-05 -1.40763e-05 0)
(-5.56842e-05 -1.68629e-05 0)
(-4.54453e-05 -1.94724e-05 0)
(-3.35164e-05 -2.09182e-05 0)
(-2.08275e-05 -1.99886e-05 0)
(-9.30981e-06 -1.54267e-05 0)
(-1.1924e-06 -6.49983e-06 0)
(1.34663e-06 -1.1666e-05 0)
(1.03062e-05 -2.64263e-05 0)
(2.25708e-05 -3.36645e-05 0)
(3.56973e-05 -3.51562e-05 0)
(4.7733e-05 -3.29822e-05 0)
(5.78751e-05 -2.90763e-05 0)
(6.60743e-05 -2.50363e-05 0)
(7.28269e-05 -2.20709e-05 0)
(7.90354e-05 -2.10157e-05 0)
(8.58661e-05 -2.23828e-05 0)
(9.46346e-05 -2.642e-05 0)
(0.000106697 -3.31688e-05 0)
(0.000123383 -4.25104e-05 0)
(0.000145918 -5.42034e-05 0)
(0.000175385 -6.79058e-05 0)
(0.000212667 -8.3192e-05 0)
(0.000258423 -9.95561e-05 0)
(0.000313023 -0.000116416 0)
(0.000376539 -0.000133105 0)
(0.000448669 -0.000148876 0)
(0.00052873 -0.000162894 0)
(0.000615578 -0.000174246 0)
(0.000707613 -0.000181942 0)
(0.000802705 -0.000184952 0)
(0.000898223 -0.000182221 0)
(0.000990989 -0.000172736 0)
(0.00107737 -0.00015558 0)
(0.00115326 -0.00013003 0)
(0.0012143 -9.56475e-05 0)
(0.00125595 -5.2414e-05 0)
(0.00127377 -8.22351e-07 0)
(0.00126369 5.79846e-05 0)
(0.00122237 0.000122189 0)
(0.00114753 0.000189248 0)
(0.00103838 0.000256027 0)
(0.000895794 0.000318931 0)
(0.000722655 0.000374237 0)
(0.000523709 0.000418376 0)
(0.000305506 0.000448371 0)
(7.59203e-05 0.000462088 0)
(-0.000156293 0.000458559 0)
(-0.000382228 0.000438022 0)
(-0.000593401 0.000401964 0)
(-0.000782443 0.000352874 0)
(-0.000943492 0.000294036 0)
(-0.00107257 0.000229099 0)
(-0.00116762 0.000161789 0)
(-0.00122847 9.55129e-05 0)
(-0.00125654 3.31989e-05 0)
(-0.00125459 -2.29255e-05 0)
(-0.00122628 -7.13005e-05 0)
(-0.00117587 -0.000111076 0)
(-0.00110786 -0.000141951 0)
(-0.00102675 -0.000164136 0)
(-0.000936806 -0.000178176 0)
(-0.000841975 -0.000184888 0)
(-0.000745717 -0.000185215 0)
(-0.000651009 -0.000180194 0)
(-0.000560296 -0.000170851 0)
(-0.000475521 -0.00015821 0)
(-0.000398127 -0.000143213 0)
(-0.000329101 -0.000126741 0)
(-0.000269006 -0.000109579 0)
(-0.000218028 -9.24448e-05 0)
(-0.000176013 -7.59652e-05 0)
(-0.000142505 -6.07006e-05 0)
(-0.00011679 -4.71282e-05 0)
(-9.7927e-05 -3.56573e-05 0)
(-8.47922e-05 -2.66118e-05 0)
(-7.61188e-05 -2.02271e-05 0)
(-7.05462e-05 -1.66157e-05 0)
(-6.66831e-05 -1.57375e-05 0)
(-6.31848e-05 -1.73443e-05 0)
(-5.88531e-05 -2.09265e-05 0)
(-5.27571e-05 -2.56465e-05 0)
(-4.43719e-05 -3.02891e-05 0)
(-3.37267e-05 -3.3235e-05 0)
(-2.16162e-05 -3.25086e-05 0)
(-9.99735e-06 -2.59542e-05 0)
(-1.32904e-06 -1.16485e-05 0)
(1.33458e-06 -1.69613e-05 0)
(9.60773e-06 -3.69263e-05 0)
(2.01818e-05 -4.57218e-05 0)
(3.06061e-05 -4.65724e-05 0)
(3.91198e-05 -4.2615e-05 0)
(4.52096e-05 -3.66187e-05 0)
(4.91473e-05 -3.08396e-05 0)
(5.17562e-05 -2.6976e-05 0)
(5.42421e-05 -2.61993e-05 0)
(5.80569e-05 -2.92222e-05 0)
(6.47651e-05 -3.63813e-05 0)
(7.59558e-05 -4.77141e-05 0)
(9.31498e-05 -6.30257e-05 0)
(0.000117752 -8.1937e-05 0)
(0.000150981 -0.000103919 0)
(0.00019384 -0.000128312 0)
(0.00024705 -0.000154335 0)
(0.000311032 -0.000181081 0)
(0.000385831 -0.000207523 0)
(0.000471098 -0.000232499 0)
(0.000566007 -0.00025472 0)
(0.000669248 -0.00027277 0)
(0.000778934 -0.000285129 0)
(0.000892622 -0.000290197 0)
(0.00100723 -0.000286357 0)
(0.00111909 -0.000272033 0)
(0.00122392 -0.000245815 0)
(0.00131698 -0.000206558 0)
(0.00139307 -0.00015358 0)
(0.00144681 -8.6795e-05 0)
(0.00147284 -6.9506e-06 0)
(0.0014662 8.42563e-05 0)
(0.00142269 0.00018401 0)
(0.00133936 0.000288416 0)
(0.00121496 0.000392552 0)
(0.00105038 0.000490823 0)
(0.00084881 0.000577318 0)
(0.000615939 0.000646443 0)
(0.000359587 0.000693425 0)
(8.93783e-05 0.000714931 0)
(-0.00018406 0.000709368 0)
(-0.000449793 0.000677168 0)
(-0.00069754 0.000620639 0)
(-0.000918323 0.00054379 0)
(-0.00110518 0.000451763 0)
(-0.00125343 0.000350381 0)
(-0.00136085 0.000245447 0)
(-0.00142744 0.00014235 0)
(-0.00145522 4.5579e-05 0)
(-0.00144766 -4.13795e-05 0)
(-0.00140933 -0.000116202 0)
(-0.00134537 -0.000177569 0)
(-0.0012612 -0.000225104 0)
(-0.00116213 -0.000259121 0)
(-0.00105321 -0.000280516 0)
(-0.000939018 -0.000290525 0)
(-0.000823613 -0.000290643 0)
(-0.000710437 -0.000282437 0)
(-0.000602345 -0.00026752 0)
(-0.00050158 -0.000247441 0)
(-0.000409831 -0.000223681 0)
(-0.000328247 -0.000197584 0)
(-0.000257502 -0.000170387 0)
(-0.000197823 -0.000143184 0)
(-0.000149055 -0.000116963 0)
(-0.000110695 -9.25789e-05 0)
(-8.19425e-05 -7.07817e-05 0)
(-6.17359e-05 -5.21961e-05 0)
(-4.88009e-05 -3.73323e-05 0)
(-4.16907e-05 -2.65517e-05 0)
(-3.88401e-05 -2.0045e-05 0)
(-3.86252e-05 -1.77703e-05 0)
(-3.94428e-05 -1.93935e-05 0)
(-3.9808e-05 -2.42009e-05 0)
(-3.84788e-05 -3.10195e-05 0)
(-3.46012e-05 -3.81378e-05 0)
(-2.78758e-05 -4.32726e-05 0)
(-1.88021e-05 -4.36002e-05 0)
(-9.12641e-06 -3.58944e-05 0)
(-1.29887e-06 -1.67675e-05 0)
(1.20349e-06 -2.15696e-05 0)
(7.65507e-06 -4.53965e-05 0)
(1.47588e-05 -5.44871e-05 0)
(2.02995e-05 -5.36484e-05 0)
(2.29506e-05 -4.71851e-05 0)
(2.26407e-05 -3.87506e-05 0)
(2.00805e-05 -3.12574e-05 0)
(1.64895e-05 -2.68651e-05 0)
(1.34216e-05 -2.70394e-05 0)
(1.26078e-05 -3.26519e-05 0)
(1.58482e-05 -4.40871e-05 0)
(2.49072e-05 -6.1345e-05 0)
(4.14592e-05 -8.41225e-05 0)
(6.70129e-05 -0.000111876 0)
(0.000102885 -0.000143861 0)
(0.000150128 -0.000179155 0)
(0.000209517 -0.000216668 0)
(0.000281468 -0.000255141 0)
(0.000366025 -0.000293136 0)
(0.000462768 -0.000329039 0)
(0.000570802 -0.000361049 0)
(0.000688653 -0.000387196 0)
(0.000814277 -0.000405354 0)
(0.00094495 -0.000413298 0)
(0.00107731 -0.000408751 0)
(0.00120726 -0.000389512 0)
(0.0013301 -0.000353557 0)
(0.00144043 -0.000299258 0)
(0.00153243 -0.000225554 0)
(0.00159988 -0.000132255 0)
(0.00163656 -2.02639e-05 0)
(0.00163648 0.000108117 0)
(0.00159452 0.000249049 0)
(0.00150681 0.000397037 0)
(0.0013715 0.000545136 0)
(0.00118915 0.000685261 0)
(0.000963248 0.000808909 0)
(0.000700207 0.000907878 0)
(0.000409251 0.000975248 0)
(0.000101723 0.00100607 0)
(-0.000209623 0.000998079 0)
(-0.00051179 0.000951838 0)
(-0.00079246 0.000870805 0)
(-0.00104111 0.000760779 0)
(-0.00124959 0.000629341 0)
(-0.00141273 0.000484881 0)
(-0.00152825 0.000335846 0)
(-0.00159663 0.000189871 0)
(-0.00162061 5.33682e-05 0)
(-0.00160462 -6.88786e-05 0)
(-0.00155418 -0.000173641 0)
(-0.00147541 -0.000259243 0)
(-0.00137455 -0.000325218 0)
(-0.0012577 -0.00037215 0)
(-0.00113051 -0.000401308 0)
(-0.000998138 -0.000414511 0)
(-0.000865052 -0.000413827 0)
(-0.000735081 -0.000401495 0)
(-0.000611355 -0.000379737 0)
(-0.000496358 -0.000350743 0)
(-0.00039194 -0.00031655 0)
(-0.000299383 -0.000279059 0)
(-0.000219431 -0.000239974 0)
(-0.000152362 -0.000200841 0)
(-9.80216e-05 -0.00016302 0)
(-5.58923e-05 -0.000127718 0)
(-2.51238e-05 -9.59662e-05 0)
(-4.5883e-06 -6.86515e-05 0)
(7.08403e-06 -4.64819e-05 0)
(1.14575e-05 -2.99851e-05 0)
(1.02481e-05 -1.945e-05 0)
(5.26632e-06 -1.4876e-05 0)
(-1.64981e-06 -1.58759e-05 0)
(-8.72674e-06 -2.15801e-05 0)
(-1.43726e-05 -3.05163e-05 0)
(-1.73276e-05 -4.05103e-05 0)
(-1.68484e-05 -4.86145e-05 0)
(-1.29803e-05 -5.11149e-05 0)
(-7.01704e-06 -4.36072e-05 0)
(-1.15193e-06 -2.11195e-05 0)
(9.83657e-07 -2.49225e-05 0)
(4.67939e-06 -5.04732e-05 0)
(6.76339e-06 -5.81081e-05 0)
(5.49428e-06 -5.42809e-05 0)
(2.22028e-07 -4.45183e-05 0)
(-8.51147e-06 -3.33614e-05 0)
(-1.94484e-05 -2.43373e-05 0)
(-3.08963e-05 -1.99978e-05 0)
(-4.09335e-05 -2.20266e-05 0)
(-4.75446e-05 -3.13806e-05 0)
(-4.87384e-05 -4.84319e-05 0)
(-4.26063e-05 -7.30924e-05 0)
(-2.73954e-05 -0.000104914 0)
(-1.52913e-06 -0.00014316 0)
(3.6328e-05 -0.000186848 0)
(8.72614e-05 -0.000234774 0)
(0.00015203 -0.00028552 0)
(0.000231058 -0.000337449 0)
(0.000324342 -0.000388697 0)
(0.000431444 -0.00043716 0)
(0.000551376 -0.000480503 0)
(0.000682607 -0.000516154 0)
(0.000822934 -0.000541348 0)
(0.000969511 -0.000553162 0)
(0.00111872 -0.00054862 0)
(0.00126624 -0.000524787 0)
(0.00140695 -0.000478967 0)
(0.00153506 -0.000408893 0)
(0.00164408 -0.000313049 0)
(0.00172711 -0.000190954 0)
(0.00177693 -4.36014e-05 0)
(0.00178656 0.000126235 0)
(0.00174964 0.000313619 0)
(0.00166123 0.000511383 0)
(0.00151846 0.000710177 0)
(0.00132143 0.000899057 0)
(0.00107361 0.00106625 0)
(0.000782208 0.00120045 0)
(0.000457804 0.00129193 0)
(0.000113811 0.00133383 0)
(-0.000234749 0.0013229 0)
(-0.000572371 0.00126003 0)
(-0.000884586 0.00114997 0)
(-0.00115902 0.00100091 0)
(-0.00138645 0.000823343 0)
(-0.0015612 0.00062894 0)
(-0.00168126 0.000429204 0)
(-0.0017478 0.000234539 0)
(-0.00176464 5.33868e-05 0)
(-0.00173736 -0.000107964 0)
(-0.00167262 -0.000245526 0)
(-0.00157753 -0.000357253 0)
(-0.00145919 -0.000442822 0)
(-0.00132436 -0.000503119 0)
(-0.00117926 -0.000540005 0)
(-0.00102942 -0.000555895 0)
(-0.000879671 -0.000553599 0)
(-0.000734073 -0.000536027 0)
(-0.000595967 -0.000506133 0)
(-0.000467972 -0.000466739 0)
(-0.000352065 -0.000420533 0)
(-0.000249601 -0.000369962 0)
(-0.000161392 -0.000317269 0)
(-8.77462e-05 -0.000264444 0)
(-2.85384e-05 -0.000213272 0)
(1.67497e-05 -0.000165303 0)
(4.89702e-05 -0.000121898 0)
(6.92747e-05 -8.4199e-05 0)
(7.90672e-05 -5.31547e-05 0)
(7.99738e-05 -2.94715e-05 0)
(7.38016e-05 -1.35872e-05 0)
(6.25019e-05 -5.58112e-06 0)
(4.81151e-05 -5.08368e-06 0)
(3.27e-05 -1.11354e-05 0)
(1.82274e-05 -2.20477e-05 0)
(6.43489e-06 -3.52486e-05 0)
(-1.37445e-06 -4.71742e-05 0)
(-4.62271e-06 -5.32169e-05 0)
(-3.90473e-06 -4.77471e-05 0)
(-9.20541e-07 -2.41486e-05 0)
(6.93374e-07 -2.65541e-05 0)
(8.25579e-07 -5.09777e-05 0)
(-3.48841e-06 -5.49444e-05 0)
(-1.32858e-05 -4.66057e-05 0)
(-2.82803e-05 -3.27215e-05 0)
(-4.71428e-05 -1.86722e-05 0)
(-6.79461e-05 -8.50703e-06 0)
(-8.84732e-05 -5.05388e-06 0)
(-0.000106412 -1.00986e-05 0)
(-0.000119498 -2.45812e-05 0)
(-0.000125581 -4.87788e-05 0)
(-0.000122685 -8.24555e-05 0)
(-0.000109021 -0.000124977 0)
(-8.30309e-05 -0.000175386 0)
(-4.33881e-05 -0.000232446 0)
(1.09434e-05 -0.000294662 0)
(8.07091e-05 -0.000360279 0)
(0.000166275 -0.000427279 0)
(0.000267628 -0.000493356 0)
(0.000384261 -0.000555917 0)
(0.000515179 -0.000612064 0)
(0.000658762 -0.000658617 0)
(0.000812788 -0.00069213 0)
(0.00097428 -0.00070897 0)
(0.00113956 -0.000705382 0)
(0.00130409 -0.000677663 0)
(0.00146257 -0.000622315 0)
(0.00160882 -0.000536351 0)
(0.00173593 -0.000417587 0)
(0.00183624 -0.00026512 0)
(0.00190169 -7.97679e-05 0)
(0.00192404 0.000135327 0)
(0.00189561 0.000374287 0)
(0.00180991 0.000628113 0)
(0.00166282 0.000884843 0)
(0.00145345 0.00113004 0)
(0.00118518 0.00134808 0)
(0.000865815 0.00152362 0)
(0.000507603 0.00164358 0)
(0.000126162 0.00169854 0)
(-0.000260635 0.00168416 0)
(-0.000634508 0.00160155 0)
(-0.000978295 0.00145731 0)
(-0.00127769 0.00126249 0)
(-0.00152219 0.00103135 0)
(-0.00170588 0.000779465 0)
(-0.00182718 0.00052218 0)
(-0.00188846 0.000272954 0)
(-0.00189488 4.26077e-05 0)
(-0.00185354 -0.000161203 0)
(-0.00177238 -0.000333721 0)
(-0.00165958 -0.000472849 0)
(-0.00152305 -0.000578476 0)
(-0.00137014 -0.000652095 0)
(-0.00120748 -0.000696191 0)
(-0.0010409 -0.000713989 0)
(-0.000875406 -0.000709029 0)
(-0.000715222 -0.000685035 0)
(-0.000563774 -0.000645657 0)
(-0.00042378 -0.000594451 0)
(-0.000297267 -0.000534715 0)
(-0.000185652 -0.000469517 0)
(-8.97807e-05 -0.000401604 0)
(-1.00088e-05 -0.000333463 0)
(5.37611e-05 -0.000267276 0)
(0.000102007 -0.000204979 0)
(0.000135555 -0.000148235 0)
(0.00015552 -9.84819e-05 0)
(0.000163291 -5.69021e-05 0)
(0.000160486 -2.44266e-05 0)
(0.000148944 -1.66863e-06 0)
(0.000130694 1.11389e-05 0)
(0.000107935 1.4276e-05 0)
(8.29879e-05 8.68058e-06 0)
(5.82181e-05 -3.8527e-06 0)
(3.59015e-05 -2.04765e-05 0)
(1.80194e-05 -3.71015e-05 0)
(5.95385e-06 -4.82803e-05 0)
(6.46062e-08 -4.71477e-05 0)
(-6.24302e-07 -2.53951e-05 0)
(3.39757e-07 -2.60528e-05 0)
(-3.84339e-06 -4.58422e-05 0)
(-1.5843e-05 -4.35072e-05 0)
(-3.57356e-05 -2.89632e-05 0)
(-6.20228e-05 -1.01753e-05 0)
(-9.23882e-05 6.74524e-06 0)
(-0.000124132 1.7386e-05 0)
(-0.000154462 1.8814e-05 0)
(-0.000180703 9.30176e-06 0)
(-0.000200376 -1.19428e-05 0)
(-0.00021126 -4.50027e-05 0)
(-0.000211369 -8.94273e-05 0)
(-0.000198978 -0.000144354 0)
(-0.00017259 -0.000208586 0)
(-0.000130979 -0.000280622 0)
(-7.31699e-05 -0.000358677 0)
(1.48601e-06 -0.000440667 0)
(9.33201e-05 -0.000524191 0)
(0.000202239 -0.000606517 0)
(0.000327732 -0.000684555 0)
(0.000468739 -0.00075486 0)
(0.000623665 -0.000813628 0)
(0.000790227 -0.000856744 0)
(0.000965493 -0.000879824 0)
(0.00114571 -0.000878339 0)
(0.00132636 -0.00084773 0)
(0.001502 -0.000783655 0)
(0.00166633 -0.000682234 0)
(0.00181204 -0.000540481 0)
(0.00193098 -0.00035676 0)
(0.00201416 -0.000131491 0)
(0.00205215 0.000132194 0)
(0.00203557 0.000427608 0)
(0.00195613 0.000744039 0)
(0.00180778 0.00106653 0)
(0.00158837 0.00137664 0)
(0.00130067 0.00165388 0)
(0.000953208 0.00187805 0)
(0.000559877 0.0020316 0)
(0.000139107 0.00210205 0)
(-0.000288055 0.0020835 0)
(-0.000699809 0.00197757 0)
(-0.00107602 0.00179299 0)
(-0.00139997 0.00154463 0)
(-0.00165997 0.00125132 0)
(-0.00184989 0.000933683 0)
(-0.00196915 0.00061149 0)
(-0.00202163 0.0003019 0)
(-0.00201449 1.80918e-05 0)
(-0.00195652 -0.000230866 0)
(-0.0018572 -0.00043986 0)
(-0.00172576 -0.000606891 0)
(-0.00157085 -0.000732483 0)
(-0.00140024 -0.000818816 0)
(-0.00122084 -0.00086929 0)
(-0.00103858 -0.00088793 0)
(-0.000858544 -0.00087918 0)
(-0.000684971 -0.000847517 0)
(-0.000521324 -0.000797399 0)
(-0.000370321 -0.000733042 0)
(-0.000234025 -0.000658436 0)
(-0.000113868 -0.000577202 0)
(-1.07431e-05 -0.00049265 0)
(7.49625e-05 -0.00040771 0)
(0.000143284 -0.000325001 0)
(0.000194644 -0.0002468 0)
(0.000229788 -0.000175105 0)
(0.000249756 -0.00011162 0)
(0.000255848 -5.77951e-05 0)
(0.000249614 -1.47866e-05 0)
(0.000232839 1.65574e-05 0)
(0.000207559 3.5797e-05 0)
(0.00017606 4.30113e-05 0)
(0.000140876 3.89933e-05 0)
(0.000104753 2.54752e-05 0)
(7.05502e-05 5.41169e-06 0)
(4.1039e-05 -1.67476e-05 0)
(1.86016e-05 -3.4823e-05 0)
(4.83362e-06 -4.07449e-05 0)
(-2.69601e-07 -2.44454e-05 0)
(-8.02292e-08 -2.30176e-05 0)
(-9.35357e-06 -3.40318e-05 0)
(-3.03257e-05 -2.2388e-05 0)
(-6.18038e-05 1.42916e-07 0)
(-0.000100745 2.44678e-05 0)
(-0.000143644 4.39376e-05 0)
(-0.000186925 5.40187e-05 0)
(-0.000227226 5.19146e-05 0)
(-0.000261548 3.61616e-05 0)
(-0.00028731 6.27476e-06 0)
(-0.000302298 -3.75264e-05 0)
(-0.000304642 -9.4509e-05 0)
(-0.000292744 -0.000163549 0)
(-0.000265278 -0.000243195 0)
(-0.000221147 -0.000331688 0)
(-0.000159531 -0.000426963 0)
(-7.98677e-05 -0.000526619 0)
(1.80523e-05 -0.000627899 0)
(0.000134102 -0.000727654 0)
(0.000267688 -0.000822323 0)
(0.000417771 -0.000907921 0)
(0.000582713 -0.000980051 0)
(0.000760314 -0.00103392 0)
(0.000947636 -0.00106444 0)
(0.00114106 -0.00106626 0)
(0.0013361 -0.00103399 0)
(0.00152745 -0.000962345 0)
(0.00170876 -0.000846486 0)
(0.0018727 -0.000682377 0)
(0.00201072 -0.000467419 0)
(0.00211317 -0.000201155 0)
(0.00216932 0.000113666 0)
(0.00216804 0.000470058 0)
(0.00209861 0.000855683 0)
(0.00195263 0.00125248 0)
(0.00172581 0.00163716 0)
(0.00142011 0.0019834 0)
(0.00104443 0.00226469 0)
(0.000614756 0.00245801 0)
(0.000152562 0.00254678 0)
(-0.000317103 0.00252331 0)
(-0.000768509 0.00238964 0)
(-0.0011778 0.00215751 0)
(-0.00152571 0.00184641 0)
(-0.00179914 0.0014812 0)
(-0.00199219 0.00108853 0)
(-0.00210562 0.000693777 0)
(-0.00214569 0.000318093 0)
(-0.00212189 -2.27731e-05 0)
(-0.00204526 -0.000318825 0)
(-0.00192676 -0.000564858 0)
(-0.00177668 -0.000759573 0)
(-0.00160414 -0.000904321 0)
(-0.00141718 -0.00100237 0)
(-0.00122268 -0.00105805 0)
(-0.00102656 -0.0010764 0)
(-0.000833781 -0.00106268 0)
(-0.000648511 -0.00102225 0)
(-0.000474136 -0.000960255 0)
(-0.000313359 -0.000881658 0)
(-0.000168218 -0.000791039 0)
(-4.01743e-05 -0.000692637 0)
(6.98589e-05 -0.000590243 0)
(0.000161429 -0.000487272 0)
(0.000234506 -0.000386715 0)
(0.00028941 -0.000291218 0)
(0.000326777 -0.000203061 0)
(0.00034751 -0.000124238 0)
(0.000352763 -5.64357e-05 0)
(0.000343929 -1.07273e-06 0)
(0.000322659 4.07528e-05 0)
(0.000290888 6.83098e-05 0)
(0.00025089 8.13795e-05 0)
(0.000205323 8.04394e-05 0)
(0.000157262 6.69586e-05 0)
(0.000110152 4.37486e-05 0)
(6.76549e-05 1.53789e-05 0)
(3.33645e-05 -1.14368e-05 0)
(1.04398e-05 -2.74987e-05 0)
(1.51061e-07 -2.08917e-05 0)
(-5.82871e-07 -1.70099e-05 0)
(-1.58395e-05 -1.44522e-05 0)
(-4.71856e-05 9.8256e-06 0)
(-9.17336e-05 4.2085e-05 0)
(-0.000144499 7.22699e-05 0)
(-0.000200563 9.35099e-05 0)
(-0.000255424 0.000101508 0)
(-0.000305196 9.39249e-05 0)
(-0.00034669 6.9816e-05 0)
(-0.000377342 2.91785e-05 0)
(-0.000395111 -2.73557e-05 0)
(-0.000398342 -9.87165e-05 0)
(-0.000385698 -0.000183497 0)
(-0.000356073 -0.000279997 0)
(-0.000308604 -0.000386217 0)
(-0.000242634 -0.000499832 0)
(-0.000157782 -0.000618158 0)
(-5.39298e-05 -0.000738102 0)
(6.86679e-05 -0.000856131 0)
(0.0002094 -0.00096824 0)
(0.000367155 -0.00106994 0)
(0.00054036 -0.00115627 0)
(0.00072681 -0.0012218 0)
(0.000923732 -0.00126074 0)
(0.00112759 -0.00126701 0)
(0.00133418 -0.00123436 0)
(0.00153837 -0.00115659 0)
(0.00173418 -0.0010278 0)
(0.00191439 -0.000842796 0)
(0.00207056 -0.000597626 0)
(0.00219259 -0.00029054 0)
(0.00226882 7.68444e-05 0)
(0.00228609 0.00049784 0)
(0.00223098 0.00095907 0)
(0.00209169 0.00143915 0)
(0.00186124 0.00190927 0)
(0.0015399 0.00233568 0)
(0.00113704 0.00268409 0)
(0.000670706 0.00292431 0)
(0.000166143 0.0030348 0)
(-0.000347226 0.00300537 0)
(-0.000838847 0.00283888 0)
(-0.00128084 0.00255061 0)
(-0.00165087 0.00216624 0)
(-0.00193461 0.00171798 0)
(-0.00212658 0.0012403 0)
(-0.00222981 0.000765109 0)
(-0.00225353 0.00031827 0)
(-0.00221047 -8.2293e-05 0)
(-0.00211399 -0.000426059 0)
(-0.00197664 -0.000708623 0)
(-0.00180936 -0.000929781 0)
(-0.00162151 -0.00109229 0)
(-0.00142094 -0.0012006 0)
(-0.00121432 -0.00126022 0)
(-0.00100724 -0.00127712 0)
(-0.000804437 -0.00125748 0)
(-0.000609871 -0.00120738 0)
(-0.000426829 -0.00113273 0)
(-0.000257925 -0.0010391 0)
(-0.000105193 -0.000931714 0)
(2.99086e-05 -0.000815328 0)
(0.00014641 -0.000694259 0)
(0.0002438 -0.00057232 0)
(0.000321938 -0.000452903 0)
(0.000381026 -0.000338949 0)
(0.000421537 -0.000233042 0)
(0.00044419 -0.000137403 0)
(0.000449922 -5.39709e-05 0)
(0.000439891 1.56015e-05 0)
(0.000415502 6.99242e-05 0)
(0.000378472 0.000107936 0)
(0.00033092 0.000128995 0)
(0.000275486 0.000133096 0)
(0.000215453 0.000121177 0)
(0.000154805 9.55866e-05 0)
(9.81527e-05 6.06478e-05 0)
(5.05204e-05 2.32935e-05 0)
(1.70366e-05 -6.31139e-06 0)
(6.62369e-07 -1.42923e-05 0)
(-1.20469e-06 -7.48948e-06 0)
(-2.35985e-05 1.41671e-05 0)
(-6.69743e-05 5.46424e-05 0)
(-0.000126148 9.8135e-05 0)
(-0.000193682 0.000133953 0)
(-0.000263048 0.000155517 0)
(-0.000328832 0.000159274 0)
(-0.000386787 0.00014376 0)
(-0.000433724 0.000108838 0)
(-0.000467321 5.51681e-05 0)
(-0.000485868 -1.61185e-05 0)
(-0.000488094 -0.000103581 0)
(-0.000473005 -0.00020554 0)
(-0.000439835 -0.000320066 0)
(-0.000387978 -0.000444955 0)
(-0.000317035 -0.000577661 0)
(-0.00022679 -0.000715248 0)
(-0.000117314 -0.000854327 0)
(1.10571e-05 -0.000991014 0)
(0.000157583 -0.0011209 0)
(0.000321161 -0.00123903 0)
(0.000500161 -0.00133991 0)
(0.0006925 -0.00141755 0)
(0.000895456 -0.00146554 0)
(0.00110578 -0.00147708 0)
(0.00131947 -0.00144519 0)
(0.00153192 -0.0013628 0)
(0.00173759 -0.00122301 0)
(0.00192999 -0.00101933 0)
(0.00210112 -0.000746261 0)
(0.00224121 -0.000400113 0)
(0.00233795 1.94091e-05 0)
(0.00237657 0.000507115 0)
(0.00234031 0.0010494 0)
(0.00221325 0.00162186 0)
(0.00198435 0.00218902 0)
(0.00165178 0.00270816 0)
(0.00122483 0.00313489 0)
(0.000724091 0.00343022 0)
(0.000178734 0.00356615 0)
(-0.000376674 0.00352964 0)
(-0.000906505 0.00332431 0)
(-0.00137819 0.00297023 0)
(-0.00176634 0.00250059 0)
(-0.00205527 0.00195713 0)
(-0.00224061 0.00138389 0)
(-0.00232833 0.000820932 0)
(-0.0023319 0.000299065 0)
(-0.00226782 -0.00016194 0)
(-0.00215207 -0.000552332 0)
(-0.00199827 -0.000869304 0)
(-0.00181754 -0.00111468 0)
(-0.00161881 -0.00129285 0)
(-0.00140938 -0.00140977 0)
(-0.00119527 -0.00147204 0)
(-0.000981582 -0.00148661 0)
(-0.000772634 -0.0014604 0)
(-0.000572149 -0.00140021 0)
(-0.000383234 -0.00131255 0)
(-0.000208458 -0.00120363 0)
(-4.98184e-05 -0.00107918 0)
(9.11807e-05 -0.000944506 0)
(0.00021352 -0.000804353 0)
(0.000316581 -0.00066297 0)
(0.000400107 -0.000524059 0)
(0.00046413 -0.000390878 0)
(0.000508933 -0.000266229 0)
(0.000534996 -0.000152569 0)
(0.000542979 -5.20234e-05 0)
(0.000533721 3.35195e-05 0)
(0.000508272 0.000102406 0)
(0.000467981 0.000153193 0)
(0.000414634 0.00018474 0)
(0.000350646 0.000196362 0)
(0.000279305 0.00018818 0)
(0.000204979 0.00016165 0)
(0.000133209 0.000120337 0)
(7.0659e-05 7.08758e-05 0)
(2.49387e-05 2.40773e-05 0)
(1.31041e-06 -4.1234e-06 0)
(-2.0221e-06 6.29284e-06 0)
(-3.31955e-05 5.34414e-05 0)
(-9.06995e-05 0.000113779 0)
(-0.000166165 0.000169456 0)
(-0.000249088 0.000209786 0)
(-0.000331192 0.000229284 0)
(-0.000406336 0.000225852 0)
(-0.0004702 0.000199405 0)
(-0.000519929 0.000150919 0)
(-0.000553695 8.18608e-05 0)
(-0.000570355 -6.09011e-06 0)
(-0.000569147 -0.000111142 0)
(-0.000549558 -0.000231376 0)
(-0.000511196 -0.000364697 0)
(-0.000453808 -0.000508737 0)
(-0.000377242 -0.000660782 0)
(-0.000281544 -0.000817684 0)
(-0.000166937 -0.000975796 0)
(-3.3953e-05 -0.00113092 0)
(0.000116599 -0.00127829 0)
(0.000283482 -0.00141252 0)
(0.000465099 -0.00152765 0)
(0.000659328 -0.0016172 0)
(0.000863628 -0.00167418 0)
(0.00107486 -0.00169125 0)
(0.00128948 -0.00166078 0)
(0.0015033 -0.00157505 0)
(0.00171167 -0.00142628 0)
(0.00190906 -0.00120684 0)
(0.00208882 -0.000909461 0)
(0.00224217 -0.000528123 0)
(0.00235741 -5.94498e-05 0)
(0.00241857 0.000494362 0)
(0.00240561 0.00112127 0)
(0.00229713 0.00179428 0)
(0.00207706 0.00247035 0)
(0.00174031 0.00309536 0)
(0.00129619 0.00361245 0)
(0.0007677 0.00397146 0)
(0.000188417 0.00413685 0)
(-0.00040218 0.00409181 0)
(-0.000962977 0.00384119 0)
(-0.00145696 0.00341074 0)
(-0.0018555 0.00284315 0)
(-0.00214195 0.00219173 0)
(-0.00231331 0.00151274 0)
(-0.00237976 0.000855982 0)
(-0.00236006 0.000257735 0)
(-0.00227533 -0.000261783 0)
(-0.00214374 -0.000695102 0)
(-0.00197922 -0.00104265 0)
(-0.00179195 -0.00130883 0)
(-0.00158972 -0.00150017 0)
(-0.00137861 -0.00162398 0)
(-0.00116374 -0.00168797 0)
(-0.00094946 -0.00169979 0)
(-0.000739638 -0.00166701 0)
(-0.00053768 -0.00159692 0)