/*--------------------------------*- C++ -*----------------------------------*\
| =========                 |                                                 |
| \\      /  F ield         | OpenFOAM: The Open Source CFD Toolbox           |
|  \\    /   O peration     | Version:  2412                                  |
|   \\  /    A nd           | Website:  www.openfoam.com                      |
|    \\/     M anipulation  |                                                 |
\*---------------------------------------------------------------------------*/
FoamFile
{
    version     2.0;
    format      ascii;
    arch        "LSB;label=32;scalar=64";
    class       volScalarField;
    location    "4.1";
    object      p;
}
// * * * * * * * * * * * * * * * * * * * * * * * * * * * * * * * * * * * * * //

dimensions      [1 -1 -2 0 0 0 0];

internalField   nonuniform List<scalar> 
6400
(
12138.3
12138.3
12137.9
12137.1
12135.9
12134.4
12132.7
12131
12129.2
12127.4
12125.5
12123.8
12122
12120.3
12118.7
12117.1
12115.5
12113.9
12112.4
12110.9
12109.3
12107.8
12106.2
12104.6
12102.9
12101.2
12099.4
12097.5
12095.6
12093.5
12091.4
12089.2
12087.1
12085
12083
12081.2
12079.7
12078.5
12077.7
12077.4
12077.5
12078
12079
12080.4
12082
12083.9
12085.9
12088.1
12090.2
12092.3
12094.4
12096.4
12098.2
12100
12101.8
12103.4
12105
12106.5
12108
12109.5
12111
12112.4
12113.9
12115.4
12117
12118.5
12120.1
12121.8
12123.5
12125.2
12127
12128.8
12130.6
12132.3
12133.9
12135.4
12136.6
12137.4
12137.8
12137.8
11520.3
11520.3
11519.9
11519.2
11518.1
11516.8
11515.3
11513.7
11512
11510.2
11508.5
11506.8
11505.1
11503.4
11501.8
11500.1
11498.5
11496.9
11495.3
11493.6
11492
11490.3
11488.6
11486.8
11484.9
11483
11481
11479
11476.8
11474.6
11472.3
11470
11467.8
11465.6
11463.6
11461.8
11460.3
11459.1
11458.3
11457.9
11458
11458.6
11459.6
11460.9
11462.6
11464.5
11466.6
11468.7
11471
11473.2
11475.5
11477.6
11479.7
11481.7
11483.6
11485.4
11487.2
11488.9
11490.5
11492.1
11493.7
11495.3
11496.9
11498.4
11500
11501.6
11503.2
11504.9
11506.5
11508.2
11509.9
11511.6
11513.2
11514.8
11516.3
11517.6
11518.7
11519.5
11519.8
11519.8
10902.7
10902.6
10902.3
10901.6
10900.6
10899.3
10898
10896.5
10894.9
10893.3
10891.6
10889.9
10888.3
10886.6
10885
10883.3
10881.6
10879.9
10878.2
10876.5
10874.7
10872.9
10871
10869
10867
10864.9
10862.7
10860.4
10858
10855.6
10853.1
10850.7
10848.3
10846
10843.9
10842
10840.4
10839.2
10838.4
10838
10838.1
10838.7
10839.6
10841
10842.7
10844.7
10846.9
10849.2
10851.6
10854.1
10856.5
10858.8
10861.1
10863.3
10865.5
10867.5
10869.5
10871.3
10873.2
10874.9
10876.6
10878.3
10879.9
10881.6
10883.2
10884.8
10886.4
10888
10889.7
10891.3
10892.9
10894.5
10896
10897.5
10898.9
10900.1
10901.1
10901.8
10902.2
10902.2
10285.6
10285.4
10285
10284.3
10283.3
10282.1
10280.8
10279.4
10277.8
10276.3
10274.7
10273.1
10271.4
10269.8
10268.1
10266.4
10264.7
10263
10261.2
10259.4
10257.5
10255.5
10253.5
10251.3
10249.1
10246.8
10244.4
10241.9
10239.3
10236.6
10234
10231.3
10228.7
10226.2
10223.9
10221.9
10220.2
10218.9
10218
10217.6
10217.7
10218.3
10219.4
10220.8
10222.7
10224.8
10227.2
10229.7
10232.3
10234.9
10237.5
10240.1
10242.6
10245.1
10247.4
10249.7
10251.8
10253.8
10255.8
10257.7
10259.5
10261.3
10263
10264.7
10266.3
10268
10269.6
10271.2
10272.8
10274.3
10275.9
10277.4
10278.9
10280.3
10281.6
10282.8
10283.8
10284.5
10285
10285.1
9668.93
9668.62
9668.06
9667.25
9666.23
9665.04
9663.74
9662.33
9660.86
9659.33
9657.77
9656.18
9654.57
9652.93
9651.26
9649.56
9647.82
9646.03
9644.18
9642.26
9640.27
9638.18
9636
9633.71
9631.3
9628.79
9626.15
9623.42
9620.59
9617.7
9614.77
9611.85
9609
9606.27
9603.75
9601.51
9599.63
9598.17
9597.21
9596.77
9596.87
9597.52
9598.68
9600.3
9602.33
9604.67
9607.26
9610.02
9612.88
9615.78
9618.66
9621.5
9624.26
9626.92
9629.47
9631.9
9634.22
9636.42
9638.52
9640.53
9642.45
9644.29
9646.07
9647.79
9649.47
9651.11
9652.73
9654.32
9655.89
9657.43
9658.96
9660.45
9661.9
9663.28
9664.57
9665.74
9666.75
9667.56
9668.13
9668.45
9052.63
9052.13
9051.39
9050.45
9049.36
9048.13
9046.81
9045.41
9043.95
9042.45
9040.91
9039.35
9037.75
9036.13
9034.46
9032.75
9030.98
9029.15
9027.24
9025.25
9023.16
9020.96
9018.64
9016.19
9013.6
9010.88
9008.03
9005.04
9001.95
8998.77
8995.54
8992.3
8989.13
8986.08
8983.25
8980.73
8978.59
8976.94
8975.84
8975.34
8975.46
8976.19
8977.51
8979.35
8981.63
8984.27
8987.17
8990.24
8993.42
8996.63
8999.81
9002.93
9005.95
9008.85
9011.62
9014.25
9016.75
9019.11
9021.34
9023.45
9025.46
9027.37
9029.21
9030.97
9032.66
9034.31
9035.92
9037.5
9039.04
9040.57
9042.06
9043.52
9044.95
9046.32
9047.63
9048.84
9049.93
9050.86
9051.61
9052.12
8436.65
8435.9
8434.94
8433.85
8432.65
8431.35
8429.98
8428.56
8427.11
8425.62
8424.11
8422.56
8420.99
8419.38
8417.71
8416
8414.21
8412.35
8410.39
8408.33
8406.15
8403.85
8401.39
8398.79
8396.02
8393.09
8390
8386.75
8383.36
8379.85
8376.27
8372.66
8369.09
8365.65
8362.42
8359.52
8357.06
8355.15
8353.87
8353.28
8353.42
8354.27
8355.8
8357.93
8360.55
8363.57
8366.87
8370.34
8373.91
8377.48
8381
8384.44
8387.74
8390.9
8393.9
8396.73
8399.4
8401.91
8404.26
8406.48
8408.57
8410.55
8412.42
8414.21
8415.92
8417.57
8419.17
8420.73
8422.25
8423.75
8425.22
8426.66
8428.08
8429.47
8430.81
8432.1
8433.29
8434.38
8435.35
8436.1
7820.9
7819.9
7818.68
7817.4
7816.06
7814.67
7813.24
7811.8
7810.33
7808.86
7807.36
7805.84
7804.29
7802.69
7801.05
7799.33
7797.54
7795.65
7793.65
7791.53
7789.28
7786.87
7784.29
7781.53
7778.59
7775.44
7772.1
7768.57
7764.85
7760.98
7756.99
7752.94
7748.9
7744.95
7741.23
7737.85
7734.96
7732.7
7731.18
7730.48
7730.64
7731.66
7733.47
7735.98
7739.05
7742.56
7746.35
7750.32
7754.34
7758.34
7762.25
7766.03
7769.65
7773.08
7776.31
7779.35
7782.19
7784.85
7787.32
7789.64
7791.8
7793.83
7795.74
7797.55
7799.26
7800.91
7802.49
7804.02
7805.51
7806.98
7808.43
7809.86
7811.28
7812.7
7814.1
7815.47
7816.8
7818.08
7819.3
7820.32
7205.36
7204.06
7202.55
7201.06
7199.56
7198.06
7196.57
7195.09
7193.62
7192.15
7190.68
7189.19
7187.67
7186.1
7184.47
7182.77
7180.98
7179.08
7177.05
7174.88
7172.56
7170.05
7167.36
7164.45
7161.33
7157.97
7154.37
7150.53
7146.46
7142.18
7137.73
7133.16
7128.55
7123.99
7119.64
7115.65
7112.2
7109.47
7107.63
7106.78
7106.98
7108.21
7110.4
7113.41
7117.07
7121.2
7125.61
7130.17
7134.74
7139.23
7143.58
7147.74
7151.69
7155.41
7158.89
7162.13
7165.14
7167.94
7170.53
7172.93
7175.16
7177.23
7179.17
7180.99
7182.7
7184.32
7185.88
7187.38
7188.84
7190.27
7191.69
7193.11
7194.54
7195.99
7197.46
7198.94
7200.43
7201.92
7203.43
7204.75
6589.98
6588.34
6586.52
6584.78
6583.11
6581.49
6579.92
6578.42
6576.95
6575.5
6574.07
6572.62
6571.14
6569.61
6568.02
6566.34
6564.56
6562.65
6560.61
6558.41
6556.02
6553.44
6550.63
6547.58
6544.28
6540.7
6536.84
6532.68
6528.23
6523.5
6518.53
6513.36
6508.07
6502.77
6497.62
6492.84
6488.66
6485.32
6483.05
6482
6482.24
6483.76
6486.45
6490.12
6494.54
6499.46
6504.66
6509.93
6515.15
6520.2
6525.04
6529.62
6533.91
6537.92
6541.65
6545.1
6548.28
6551.21
6553.9
6556.38
6558.67
6560.78
6562.73
6564.55
6566.24
6567.84
6569.36
6570.82
6572.23
6573.62
6575.01
6576.41
6577.84
6579.31
6580.85
6582.46
6584.13
6585.86
6587.7
6589.35
5974.71
5972.7
5970.51
5968.5
5966.64
5964.9
5963.27
5961.75
5960.3
5958.89
5957.51
5956.12
5954.7
5953.23
5951.69
5950.05
5948.29
5946.4
5944.36
5942.13
5939.7
5937.05
5934.14
5930.97
5927.5
5923.7
5919.57
5915.09
5910.24
5905.03
5899.48
5893.62
5887.53
5881.32
5875.18
5869.37
5864.22
5860.07
5857.22
5855.9
5856.2
5858.11
5861.46
5866.01
5871.43
5877.37
5883.53
5889.68
5895.64
5901.34
5906.7
5911.72
5916.38
5920.69
5924.65
5928.29
5931.63
5934.68
5937.47
5940.01
5942.34
5944.47
5946.43
5948.23
5949.91
5951.47
5952.94
5954.34
5955.69
5957.02
5958.35
5959.71
5961.13
5962.63
5964.24
5965.97
5967.84
5969.85
5972.05
5974.07
5359.51
5357.07
5354.45
5352.14
5350.07
5348.21
5346.54
5345.02
5343.62
5342.29
5340.98
5339.68
5338.35
5336.95
5335.48
5333.9
5332.19
5330.33
5328.3
5326.07
5323.61
5320.91
5317.93
5314.65
5311.02
5307.04
5302.65
5297.84
5292.59
5286.88
5280.7
5274.08
5267.05
5259.74
5252.34
5245.2
5238.76
5233.51
5229.88
5228.18
5228.56
5231
5235.27
5240.99
5247.73
5254.98
5262.35
5269.53
5276.36
5282.75
5288.69
5294.16
5299.18
5303.77
5307.96
5311.78
5315.25
5318.4
5321.25
5323.85
5326.2
5328.33
5330.28
5332.06
5333.68
5335.19
5336.59
5337.92
5339.19
5340.44
5341.7
5343
5344.38
5345.88
5347.54
5349.4
5351.47
5353.78
5356.41
5358.87
4744.35
4741.37
4738.24
4735.59
4733.3
4731.34
4729.64
4728.17
4726.85
4725.62
4724.44
4723.25
4722.03
4720.75
4719.37
4717.87
4716.23
4714.42
4712.43
4710.22
4707.77
4705.04
4702.02
4698.66
4694.92
4690.77
4686.16
4681.06
4675.42
4669.21
4662.38
4654.93
4646.85
4638.21
4629.22
4620.32
4612.13
4605.37
4600.65
4598.44
4598.94
4602.11
4607.63
4614.97
4623.47
4632.43
4641.29
4649.69
4657.48
4664.64
4671.16
4677.08
4682.44
4687.29
4691.67
4695.63
4699.2
4702.42
4705.31
4707.92
4710.26
4712.38
4714.29
4716.01
4717.58
4719
4720.31
4721.54
4722.7
4723.84
4724.98
4726.18
4727.49
4728.95
4730.64
4732.61
4734.89
4737.55
4740.68
4743.67
4129.15
4125.5
4121.74
4118.69
4116.2
4114.15
4112.48
4111.1
4109.91
4108.84
4107.82
4106.79
4105.72
4104.57
4103.31
4101.92
4100.38
4098.65
4096.73
4094.57
4092.16
4089.46
4086.43
4083.04
4079.24
4074.97
4070.2
4064.85
4058.87
4052.19
4044.74
4036.44
4027.2
4016.98
4005.97
3994.73
3984.15
3975.29
3969.09
3966.17
3966.83
3971.04
3978.3
3987.85
3998.73
4009.94
4020.63
4030.43
4039.26
4047.18
4054.28
4060.62
4066.29
4071.35
4075.89
4079.94
4083.56
4086.8
4089.68
4092.26
4094.57
4096.63
4098.46
4100.11
4101.58
4102.89
4104.08
4105.17
4106.19
4107.17
4108.16
4109.21
4110.38
4111.75
4113.41
4115.45
4117.93
4120.98
4124.73
4128.37
3513.83
3509.29
3504.75
3501.26
3498.6
3496.54
3494.98
3493.76
3492.77
3491.92
3491.1
3490.28
3489.39
3488.41
3487.31
3486.06
3484.64
3483.03
3481.2
3479.14
3476.8
3474.17
3471.2
3467.83
3464.03
3459.72
3454.85
3449.32
3443.08
3436.01
3428
3418.88
3408.44
3396.41
3382.85
3368.48
3354.62
3342.86
3334.61
3330.7
3331.61
3337.27
3346.96
3359.56
3373.67
3387.81
3400.74
3412.08
3421.95
3430.59
3438.2
3444.9
3450.82
3456.04
3460.66
3464.76
3468.38
3471.58
3474.41
3476.91
3479.13
3481.09
3482.82
3484.35
3485.69
3486.87
3487.9
3488.81
3489.64
3490.42
3491.19
3492.02
3492.99
3494.18
3495.73
3497.76
3500.41
3503.87
3508.39
3512.9
2898.17
2892.49
2886.98
2883.07
2880.32
2878.4
2877.06
2876.13
2875.44
2874.87
2874.33
2873.75
2873.1
2872.32
2871.4
2870.32
2869.05
2867.58
2865.89
2863.96
2861.75
2859.24
2856.37
2853.1
2849.36
2845.08
2840.18
2834.56
2828.14
2820.79
2812.35
2802.56
2790.99
2776.96
2760.19
2741.57
2723.05
2707.07
2695.82
2690.45
2691.74
2699.61
2712.87
2729.85
2748.47
2766.51
2782.09
2795.01
2805.81
2815.03
2823.03
2829.99
2836.06
2841.37
2846.02
2850.09
2853.65
2856.76
2859.48
2861.87
2863.96
2865.79
2867.38
2868.76
2869.94
2870.95
2871.79
2872.49
2873.09
2873.61
2874.1
2874.63
2875.29
2876.19
2877.49
2879.39
2882.1
2885.98
2891.45
2897.11
2282.18
2275
2268.24
2263.94
2261.31
2259.72
2258.81
2258.32
2258.04
2257.84
2257.64
2257.35
2256.95
2256.4
2255.68
2254.78
2253.68
2252.37
2250.84
2249.05
2247
2244.64
2241.93
2238.81
2235.2
2231.02
2226.18
2220.57
2214.1
2206.66
2198.09
2188.1
2176.06
2160.26
2139.18
2113.9
2087.66
2064.75
2048.74
2040.95
2042.8
2054.25
2073.29
2097.47
2123.55
2147.65
2166.27
2180.22
2191.34
2200.75
2208.87
2215.9
2222
2227.29
2231.89
2235.88
2239.32
2242.29
2244.86
2247.09
2249.02
2250.7
2252.14
2253.36
2254.37
2255.19
2255.83
2256.3
2256.63
2256.86
2257.01
2257.16
2257.4
2257.86
2258.74
2260.29
2262.89
2267.16
2273.9
2281.06
1666.97
1656.95
1648.38
1643.85
1641.67
1640.74
1640.51
1640.64
1640.89
1641.13
1641.29
1641.3
1641.14
1640.79
1640.24
1639.47
1638.5
1637.3
1635.88
1634.22
1632.31
1630.12
1627.6
1624.68
1621.29
1617.34
1612.7
1607.28
1601.02
1593.92
1586.01
1577.31
1567.23
1551.19
1523.66
1486.44
1447.04
1414.08
1392.76
1382.17
1384.51
1400.4
1426.75
1461.61
1500.77
1536.05
1557.9
1570.54
1579.86
1588.3
1595.93
1602.65
1608.5
1613.57
1618
1621.84
1625.11
1627.89
1630.27
1632.34
1634.14
1635.7
1637.03
1638.14
1639.03
1639.7
1640.18
1640.45
1640.53
1640.45
1640.24
1639.94
1639.65
1639.49
1639.68
1640.58
1642.73
1647.26
1655.83
1665.83
1050.03
1033.81
1024.3
1020.97
1020.32
1020.82
1021.78
1022.84
1023.82
1024.63
1025.23
1025.58
1025.69
1025.55
1025.17
1024.54
1023.67
1022.58
1021.27
1019.75
1018.01
1016.04
1013.8
1011.2
1008.18
1004.63
1000.4
995.307
989.341
982.734
975.85
969.411
963.316
948.047
913.43
865.792
823.995
802.221
798.314
796.471
797.53
803.615
814.509
840.002
883.69
930.978
954.828
964.608
970.717
977.598
984.539
990.796
996.188
1000.85
1004.96
1008.54
1011.53
1013.99
1016.1
1017.95
1019.59
1021.02
1022.25
1023.26
1024.04
1024.58
1024.89
1024.94
1024.75
1024.32
1023.66
1022.79
1021.76
1020.66
1019.67
1019.16
1019.81
1023.16
1032.68
1048.87
396.01
383.835
383.593
386.956
390.675
394.169
397.27
399.945
402.226
404.16
405.789
407.144
408.244
409.101
409.721
410.107
410.259
410.173
409.846
409.268
408.425
407.29
405.899
404.19
402.097
399.488
396.159
391.798
386.264
379.755
372.622
365.417
357.937
343.766
352.828
390.441
428.411
459.984
487.848
500.399
499.977
487.435
460.848
425.329
381.958
349.379
347.604
359.465
367.038
374.569
381.702
387.732
392.544
396.425
399.702
402.377
404.409
405.928
407.136
408.129
408.852
409.323
409.55
409.538
409.293
408.816
408.109
407.171
405.996
404.574
402.887
400.905
398.59
395.896
392.791
389.314
385.634
382.334
382.652
394.885
14.9855
17.6709
22.5814
26.7974
30.1174
32.7757
34.958
36.7994
38.3982
39.8222
41.1166
42.3098
43.4173
44.4451
45.3915
46.2485
47.003
47.6372
48.1288
48.4514
48.5726
48.4606
48.1422
47.6065
46.7877
45.6368
44.0654
41.9348
39.0333
34.9939
29.7964
23.7846
17.6957
11.9988
67.6064
174.908
265.264
329.192
368.33
386.099
385.01
364.482
319.386
245.753
144.502
40.7479
13.0071
19.4929
25.6385
31.2872
35.9986
39.7688
42.7068
44.8867
46.3458
47.1427
47.7163
48.0929
48.3003
48.3116
48.101
47.6997
47.139
46.4441
45.636
44.7318
43.7445
42.682
41.5459
40.3305
39.0204
37.5879
35.9884
34.1552
31.9917
29.3651
26.0926
21.9418
17.1072
14.4833
-10.5458
-10.546
-10.5461
-10.5463
-10.5464
-10.5466
-10.5468
-10.547
-10.5473
-10.5476
-10.548
-10.5486
-10.5492
-10.5501
-10.5511
-10.5527
-10.5548
-10.5574
-10.5605
-10.5623
-10.5619
-10.5643
-10.5678
-10.577
-10.6017
-10.5882
-10.4865
-10.2451
-9.89388
-9.86844
-10.0442
-9.72246
-7.28577
-3.12248
8.19239
54.5017
131.422
192.385
227.44
240.125
239.166
224.397
184.282
114.147
34.6397
6.46146
-4.79057
-8.16614
-9.83944
-10.2072
-10.2864
-10.1812
-9.94158
-9.77646
-9.91898
-10.3686
-10.5358
-10.5631
-10.5582
-10.5534
-10.5529
-10.5534
-10.5517
-10.5488
-10.5466
-10.5451
-10.5443
-10.5437
-10.5433
-10.5431
-10.543
-10.5429
-10.5428
-10.5427
-10.5427
-10.5427
-10.5426
-10.5425
-10.5424
-10.5422
-11.0366
-11.0366
-11.0367
-11.0367
-11.0369
-11.037
-11.0372
-11.0374
-11.0377
-11.038
-11.0385
-11.039
-11.0398
-11.0407
-11.0418
-11.0434
-11.0454
-11.0477
-11.0503
-11.0523
-11.0525
-11.0511
-11.056
-11.0674
-11.0676
-11.0762
-11.054
-10.9554
-10.7346
-10.6431
-10.6483
-10.5077
-9.8867
-8.77303
-7.89691
4.6243
22.9905
45.4108
75.6908
78.6027
77.9923
73.4593
44.2721
22.9636
1.41551
-8.64756
-9.05801
-9.93713
-10.5995
-10.7466
-10.7525
-10.6952
-10.62
-10.64
-10.8381
-11.0122
-11.0441
-11.0444
-11.0412
-11.0419
-11.0426
-11.0426
-11.0412
-11.039
-11.0371
-11.0358
-11.0349
-11.0343
-11.0339
-11.0336
-11.0334
-11.0333
-11.0332
-11.0332
-11.0331
-11.0331
-11.033
-11.033
-11.033
-11.0331
-11.5268
-11.5269
-11.5269
-11.527
-11.5271
-11.5273
-11.5274
-11.5276
-11.5279
-11.5282
-11.5286
-11.529
-11.5297
-11.5305
-11.5317
-11.5333
-11.5354
-11.5381
-11.5411
-11.5427
-11.543
-11.5465
-11.5556
-11.571
-11.5824
-11.5895
-11.5895
-11.5602
-11.4326
-11.3773
-11.3579
-11.3661
-11.3187
-11.1509
-11.4356
-11.3427
-11.2385
-7.72955
12.9993
11.1484
10.8958
11.1246
-8.67666
-11.3959
-11.3906
-11.5715
-11.272
-11.1973
-11.3932
-11.377
-11.3521
-11.3428
-11.3152
-11.3517
-11.4808
-11.5534
-11.5514
-11.5438
-11.5391
-11.5345
-11.5335
-11.5337
-11.5324
-11.5295
-11.5272
-11.5257
-11.5247
-11.5242
-11.5238
-11.5237
-11.5236
-11.5235
-11.5235
-11.5234
-11.5234
-11.5234
-11.5234
-11.5233
-11.5233
-11.5232
-12.0172
-12.0172
-12.0173
-12.0174
-12.0174
-12.0176
-12.0177
-12.0179
-12.0181
-12.0184
-12.0187
-12.0192
-12.0198
-12.0206
-12.0217
-12.0231
-12.025
-12.0277
-12.0315
-12.0345
-12.0354
-12.0417
-12.0555
-12.071
-12.0949
-12.1047
-12.1167
-12.1038
-12.0151
-11.9807
-11.9818
-11.9802
-12.0157
-12.0339
-11.9178
-11.8422
-11.8264
-11.9537
-12.0207
-11.9048
-11.8793
-11.8832
-11.9057
-11.894
-11.8795
-11.8948
-12.0754
-11.9794
-12.02
-12.0339
-12.0375
-12.0654
-12.0297
-12.0121
-12.0546
-12.088
-12.0652
-12.0416
-12.0288
-12.0243
-12.0236
-12.0232
-12.0213
-12.0189
-12.0169
-12.0157
-12.0149
-12.0144
-12.0141
-12.014
-12.0139
-12.0138
-12.0138
-12.0138
-12.0138
-12.0138
-12.0138
-12.0138
-12.0138
-12.0138
-12.5076
-12.5076
-12.5076
-12.5077
-12.5078
-12.5079
-12.508
-12.5081
-12.5083
-12.5085
-12.5088
-12.5091
-12.5096
-12.5103
-12.5112
-12.5124
-12.5142
-12.517
-12.5208
-12.5248
-12.531
-12.5432
-12.5531
-12.5615
-12.6055
-12.6223
-12.6248
-12.6082
-12.5662
-12.5099
-12.4695
-12.4447
-12.4337
-12.4142
-12.4072
-12.41
-12.3876
-12.3581
-12.4017
-12.392
-12.3888
-12.3869
-12.3899
-12.3881
-12.3765
-12.3778
-12.4244
-12.4745
-12.5267
-12.6002
-12.6197
-12.6285
-12.6283
-12.6116
-12.5871
-12.5757
-12.5643
-12.5484
-12.5348
-12.5218
-12.514
-12.5123
-12.5107
-12.5081
-12.5061
-12.5052
-12.5047
-12.5045
-12.5043
-12.5042
-12.5042
-12.5042
-12.5042
-12.5042
-12.5042
-12.5042
-12.5042
-12.5042
-12.5042
-12.5043
-12.998
-12.998
-12.998
-12.9981
-12.9981
-12.9982
-12.9983
-12.9984
-12.9985
-12.9986
-12.9988
-12.9991
-12.9995
-13
-13.0007
-13.0017
-13.0034
-13.006
-13.0094
-13.0143
-13.0258
-13.0435
-13.0491
-13.0307
-13.017
-13.0409
-13.0794
-13.0982
-13.0793
-13.0323
-12.9864
-12.9534
-12.934
-12.9259
-12.9299
-12.9365
-12.9394
-12.8968
-12.8952
-12.8949
-12.8886
-12.8901
-12.8958
-12.9003
-12.8993
-12.9003
-12.9393
-12.9885
-13.0183
-13.0459
-13.0763
-13.0953
-13.0932
-13.0698
-13.0395
-13.0223
-13.0265
-13.0481
-13.044
-13.0258
-13.0095
-13.0016
-13.0003
-12.998
-12.9961
-12.9953
-12.9949
-12.9947
-12.9946
-12.9946
-12.9946
-12.9946
-12.9946
-12.9947
-12.9947
-12.9947
-12.9947
-12.9948
-12.9948
-12.9948
-13.4884
-13.4884
-13.4884
-13.4884
-13.4884
-13.4885
-13.4885
-13.4886
-13.4887
-13.4888
-13.4889
-13.4891
-13.4894
-13.4897
-13.4902
-13.4909
-13.4922
-13.494
-13.4956
-13.5
-13.513
-13.5211
-13.5261
-13.5537
-13.6006
-13.6495
-13.6753
-13.6578
-13.6061
-13.5433
-13.4879
-13.4496
-13.4269
-13.4158
-13.4127
-13.4132
-13.4154
-13.4126
-13.4037
-13.4009
-13.3986
-13.4014
-13.4043
-13.4058
-13.4067
-13.4068
-13.4219
-13.4511
-13.4874
-13.5342
-13.5903
-13.6344
-13.6435
-13.612
-13.5541
-13.4998
-13.4853
-13.5263
-13.5413
-13.5251
-13.5047
-13.4931
-13.4902
-13.4883
-13.4865
-13.4857
-13.4853
-13.4852
-13.4851
-13.4851
-13.4851
-13.4851
-13.4852
-13.4852
-13.4852
-13.4853
-13.4853
-13.4853
-13.4853
-13.4853
-13.9788
-13.9788
-13.9788
-13.9788
-13.9788
-13.9788
-13.9788
-13.9789
-13.9789
-13.979
-13.979
-13.9791
-13.9793
-13.9794
-13.9797
-13.9801
-13.9808
-13.9816
-13.9824
-13.9878
-13.9976
-13.9995
-14.0149
-14.0813
-14.1843
-14.2525
-14.265
-14.2307
-14.1621
-14.0814
-14.0123
-13.9657
-13.9391
-13.9255
-13.9182
-13.913
-13.9091
-13.9067
-13.9066
-13.904
-13.9041
-13.9065
-13.9081
-13.9095
-13.9112
-13.9131
-13.924
-13.9511
-13.9969
-14.06
-14.1326
-14.1947
-14.2191
-14.1858
-14.0995
-14.0139
-13.9858
-14.0091
-14.0282
-14.0157
-13.9976
-13.9875
-13.9813
-13.979
-13.9773
-13.9764
-13.976
-13.9758
-13.9757
-13.9757
-13.9757
-13.9757
-13.9758
-13.9758
-13.9758
-13.9758
-13.9759
-13.9759
-13.9759
-13.9759
-14.4692
-14.4692
-14.4692
-14.4692
-14.4692
-14.4692
-14.4692
-14.4692
-14.4692
-14.4692
-14.4692
-14.4692
-14.4692
-14.4692
-14.4693
-14.4694
-14.4696
-14.4697
-14.4702
-14.4748
-14.4815
-14.4857
-14.5178
-14.6176
-14.7485
-14.8249
-14.8337
-14.7918
-14.7104
-14.6148
-14.5337
-14.4796
-14.4485
-14.4315
-14.4219
-14.416
-14.4125
-14.4099
-14.4078
-14.4062
-14.4074
-14.4095
-14.4112
-14.4139
-14.418
-14.4245
-14.4388
-14.468
-14.5189
-14.5944
-14.685
-14.7638
-14.7987
-14.77
-14.6718
-14.5606
-14.5154
-14.5167
-14.5106
-14.5011
-14.4894
-14.4797
-14.4727
-14.4702
-14.4685
-14.4675
-14.4669
-14.4666
-14.4665
-14.4664
-14.4664
-14.4664
-14.4664
-14.4664
-14.4665
-14.4665
-14.4665
-14.4665
-14.4665
-14.4665
-14.9596
-14.9596
-14.9596
-14.9596
-14.9596
-14.9595
-14.9595
-14.9595
-14.9595
-14.9595
-14.9594
-14.9594
-14.9593
-14.9592
-14.9591
-14.959
-14.9589
-14.9587
-14.9591
-14.963
-14.9693
-14.9808
-15.025
-15.1399
-15.2807
-15.3596
-15.3685
-15.3207
-15.231
-15.1285
-15.0437
-14.9878
-14.9554
-14.9366
-14.9251
-14.9177
-14.9131
-14.9102
-14.9082
-14.9073
-14.909
-14.9109
-14.9134
-14.9174
-14.9237
-14.9336
-14.9511
-14.9828
-15.0381
-15.1225
-15.2266
-15.3174
-15.3586
-15.3297
-15.2262
-15.1019
-15.0459
-15.0286
-14.9953
-14.9849
-14.9811
-14.9711
-14.9639
-14.9615
-14.9597
-14.9586
-14.958
-14.9576
-14.9573
-14.9572
-14.9572
-14.9571
-14.9571
-14.9571
-14.9571
-14.9571
-14.9571
-14.9572
-14.9572
-14.9572
-15.45
-15.45
-15.45
-15.45
-15.45
-15.4499
-15.4499
-15.4499
-15.4498
-15.4498
-15.4497
-15.4496
-15.4495
-15.4494
-15.4493
-15.4491
-15.449
-15.4489
-15.4492
-15.4528
-15.4614
-15.4791
-15.5199
-15.6215
-15.7581
-15.8338
-15.8421
-15.7949
-15.7075
-15.6122
-15.5357
-15.4853
-15.4557
-15.4375
-15.4258
-15.418
-15.4131
-15.4101
-15.408
-15.4075
-15.4091
-15.411
-15.4142
-15.419
-15.4266
-15.4383
-15.457
-15.4884
-15.542
-15.6248
-15.7295
-15.8209
-15.8611
-15.8281
-15.7232
-15.6019
-15.5415
-15.5156
-15.4881
-15.4776
-15.4736
-15.4632
-15.456
-15.4531
-15.4511
-15.4499
-15.4491
-15.4486
-15.4483
-15.4481
-15.448
-15.4479
-15.4479
-15.4478
-15.4478
-15.4478
-15.4478
-15.4478
-15.4478
-15.4478
-15.9404
-15.9404
-15.9404
-15.9404
-15.9404
-15.9404
-15.9403
-15.9403
-15.9402
-15.9402
-15.9401
-15.94
-15.9399
-15.9398
-15.9397
-15.9397
-15.9397
-15.9401
-15.9412
-15.9447
-15.9543
-15.9725
-16.0021
-16.0751
-16.1788
-16.2461
-16.2561
-16.2176
-16.1475
-16.0737
-16.0151
-15.9757
-15.951
-15.935
-15.9241
-15.9165
-15.9115
-15.9086
-15.9067
-15.9064
-15.9078
-15.9097
-15.9132
-15.9185
-15.9265
-15.9382
-15.9559
-15.9839
-16.0299
-16.101
-16.1915
-16.2682
-16.2927
-16.2623
-16.1688
-16.068
-16.0122
-15.9888
-15.9774
-15.9733
-15.9663
-15.9548
-15.9482
-15.9447
-15.9425
-15.9411
-15.9402
-15.9396
-15.9392
-15.939
-15.9388
-15.9387
-15.9386
-15.9386
-15.9385
-15.9385
-15.9385
-15.9385
-15.9385
-15.9385
-16.4309
-16.4309
-16.4309
-16.4308
-16.4308
-16.4308
-16.4308
-16.4307
-16.4307
-16.4306
-16.4306
-16.4305
-16.4304
-16.4304
-16.4304
-16.4305
-16.4308
-16.4316
-16.4335
-16.4377
-16.4462
-16.4598
-16.4802
-16.5216
-16.5828
-16.6292
-16.6411
-16.6201
-16.5766
-16.5292
-16.4903
-16.4625
-16.4434
-16.43
-16.4203
-16.4134
-16.4087
-16.4058
-16.4042
-16.4039
-16.4051
-16.4071
-16.4105
-16.4158
-16.4235
-16.4345
-16.45
-16.4728
-16.5079
-16.5604
-16.6271
-16.6839
-16.6993
-16.6703
-16.6011
-16.5312
-16.4902
-16.4723
-16.4653
-16.4619
-16.4542
-16.445
-16.4395
-16.436
-16.4338
-16.4323
-16.4313
-16.4307
-16.4302
-16.4299
-16.4297
-16.4295
-16.4294
-16.4293
-16.4293
-16.4292
-16.4292
-16.4292
-16.4292
-16.4292
-16.9213
-16.9213
-16.9213
-16.9213
-16.9213
-16.9213
-16.9212
-16.9212
-16.9212
-16.9211
-16.9211
-16.9211
-16.9211
-16.9211
-16.9212
-16.9215
-16.922
-16.9231
-16.9252
-16.9291
-16.936
-16.9462
-16.9604
-16.9825
-17.0143
-17.0415
-17.0519
-17.0429
-17.0195
-16.992
-16.9676
-16.9484
-16.934
-16.9231
-16.9148
-16.9087
-16.9045
-16.9019
-16.9004
-16.9002
-16.9011
-16.9031
-16.9064
-16.9113
-16.9183
-16.928
-16.9409
-16.9586
-16.9834
-17.0178
-17.0601
-17.0967
-17.1085
-17.0893
-17.0467
-17.0039
-16.977
-16.9619
-16.9533
-16.9473
-16.9405
-16.9343
-16.93
-16.9269
-16.9249
-16.9234
-16.9224
-16.9217
-16.9211
-16.9208
-16.9205
-16.9203
-16.9202
-16.9201
-16.92
-16.92
-16.9199
-16.9199
-16.9199
-16.9199
-17.4118
-17.4118
-17.4118
-17.4118
-17.4118
-17.4118
-17.4117
-17.4117
-17.4117
-17.4117
-17.4117
-17.4117
-17.4117
-17.4118
-17.412
-17.4124
-17.4131
-17.4143
-17.4163
-17.4196
-17.4248
-17.4325
-17.4428
-17.4561
-17.4731
-17.4879
-17.4945
-17.4908
-17.4787
-17.463
-17.4476
-17.4344
-17.4235
-17.4148
-17.408
-17.4029
-17.3992
-17.3968
-17.3955
-17.3953
-17.396
-17.3979
-17.4009
-17.4054
-17.4115
-17.4197
-17.4302
-17.4436
-17.4608
-17.4823
-17.5063
-17.526
-17.5331
-17.5239
-17.5022
-17.4789
-17.4612
-17.4488
-17.4402
-17.4338
-17.4282
-17.4236
-17.4202
-17.4176
-17.4157
-17.4143
-17.4133
-17.4126
-17.412
-17.4116
-17.4113
-17.4111
-17.411
-17.4108
-17.4108
-17.4107
-17.4106
-17.4106
-17.4106
-17.4106
-17.9023
-17.9023
-17.9023
-17.9023
-17.9023
-17.9022
-17.9022
-17.9022
-17.9022
-17.9022
-17.9022
-17.9023
-17.9024
-17.9025
-17.9028
-17.9033
-17.9041
-17.9053
-17.9071
-17.9099
-17.9139
-17.9194
-17.9266
-17.9353
-17.9449
-17.9531
-17.9571
-17.9556
-17.9492
-17.9399
-17.93
-17.9207
-17.9126
-17.9058
-17.9003
-17.896
-17.8929
-17.8908
-17.8896
-17.8894
-17.89
-17.8918
-17.8944
-17.8983
-17.9035
-17.9102
-17.9185
-17.9287
-17.9407
-17.9545
-17.9681
-17.9782
-17.9809
-17.9751
-17.9645
-17.9521
-17.9414
-17.933
-17.9265
-17.9212
-17.9168
-17.9132
-17.9103
-17.9081
-17.9064
-17.9051
-17.9042
-17.9034
-17.9029
-17.9025
-17.9021
-17.9019
-17.9017
-17.9016
-17.9015
-17.9014
-17.9013
-17.9013
-17.9013
-17.9013
-18.3928
-18.3928
-18.3928
-18.3928
-18.3928
-18.3927
-18.3927
-18.3927
-18.3928
-18.3928
-18.3928
-18.3929
-18.393
-18.3933
-18.3936
-18.3941
-18.3949
-18.396
-18.3976
-18.3999
-18.403
-18.4071
-18.4121
-18.4177
-18.4235
-18.4284
-18.4309
-18.4302
-18.4265
-18.4207
-18.4141
-18.4075
-18.4015
-18.3963
-18.3919
-18.3884
-18.3858
-18.384
-18.383
-18.3828
-18.3832
-18.3848
-18.3871
-18.3904
-18.3948
-18.4001
-18.4067
-18.4143
-18.4228
-18.4319
-18.4401
-18.4458
-18.4472
-18.4443
-18.4376
-18.4303
-18.4235
-18.4179
-18.4132
-18.4091
-18.4057
-18.4027
-18.4004
-18.3985
-18.397
-18.3958
-18.3949
-18.3942
-18.3936
-18.3932
-18.3929
-18.3926
-18.3924
-18.3923
-18.3922
-18.3921
-18.392
-18.392
-18.392
-18.392
-18.8833
-18.8833
-18.8833
-18.8833
-18.8833
-18.8833
-18.8833
-18.8833
-18.8833
-18.8833
-18.8834
-18.8835
-18.8837
-18.8839
-18.8843
-18.8848
-18.8855
-18.8866
-18.888
-18.8898
-18.8923
-18.8953
-18.8987
-18.9025
-18.9062
-18.9092
-18.9107
-18.9102
-18.9079
-18.9042
-18.8997
-18.895
-18.8906
-18.8866
-18.8831
-18.8803
-18.8781
-18.8766
-18.8757
-18.8755
-18.8759
-18.8772
-18.8792
-18.882
-18.8855
-18.8898
-18.8949
-18.9006
-18.9067
-18.9128
-18.9181
-18.9215
-18.9224
-18.9208
-18.9172
-18.9127
-18.9082
-18.9041
-18.9006
-18.8974
-18.8947
-18.8923
-18.8904
-18.8888
-18.8874
-18.8864
-18.8856
-18.8849
-18.8844
-18.8839
-18.8836
-18.8834
-18.8832
-18.883
-18.8829
-18.8828
-18.8827
-18.8827
-18.8826
-18.8826
-19.3738
-19.3738
-19.3738
-19.3738
-19.3738
-19.3738
-19.3738
-19.3738
-19.3738
-19.3739
-19.374
-19.3741
-19.3743
-19.3746
-19.3749
-19.3754
-19.3761
-19.377
-19.3782
-19.3797
-19.3816
-19.3838
-19.3862
-19.3888
-19.3912
-19.393
-19.3939
-19.3936
-19.3921
-19.3896
-19.3865
-19.3831
-19.3798
-19.3767
-19.374
-19.3718
-19.37
-19.3687
-19.3679
-19.3676
-19.368
-19.3692
-19.3709
-19.3732
-19.376
-19.3795
-19.3834
-19.3877
-19.3921
-19.3963
-19.3999
-19.4022
-19.4028
-19.4019
-19.3998
-19.3971
-19.3941
-19.3912
-19.3885
-19.386
-19.3839
-19.382
-19.3803
-19.379
-19.3778
-19.3769
-19.3761
-19.3755
-19.375
-19.3746
-19.3743
-19.374
-19.3738
-19.3737
-19.3736
-19.3735
-19.3734
-19.3733
-19.3733
-19.3733
-19.8643
-19.8643
-19.8643
-19.8643
-19.8643
-19.8643
-19.8643
-19.8643
-19.8644
-19.8645
-19.8646
-19.8647
-19.8649
-19.8651
-19.8655
-19.8659
-19.8666
-19.8673
-19.8683
-19.8695
-19.871
-19.8726
-19.8744
-19.8761
-19.8777
-19.8789
-19.8794
-19.8791
-19.8781
-19.8763
-19.8741
-19.8716
-19.8692
-19.8668
-19.8648
-19.863
-19.8615
-19.8604
-19.8596
-19.8594
-19.8598
-19.8608
-19.8622
-19.8641
-19.8664
-19.8691
-19.8722
-19.8754
-19.8787
-19.8817
-19.8842
-19.8858
-19.8864
-19.8859
-19.8847
-19.8829
-19.8809
-19.8788
-19.8768
-19.8749
-19.8732
-19.8716
-19.8703
-19.8691
-19.8682
-19.8673
-19.8667
-19.8661
-19.8656
-19.8653
-19.8649
-19.8647
-19.8645
-19.8643
-19.8642
-19.8641
-19.864
-19.864
-19.864
-19.8639
-20.3548
-20.3548
-20.3548
-20.3548
-20.3548
-20.3548
-20.3548
-20.3549
-20.3549
-20.355
-20.3551
-20.3552
-20.3554
-20.3557
-20.356
-20.3564
-20.357
-20.3576
-20.3584
-20.3594
-20.3605
-20.3617
-20.363
-20.3642
-20.3653
-20.366
-20.3663
-20.3661
-20.3653
-20.364
-20.3624
-20.3606
-20.3588
-20.357
-20.3554
-20.354
-20.3528
-20.3519
-20.3511
-20.3509
-20.3513
-20.3522
-20.3534
-20.3549
-20.3568
-20.3589
-20.3613
-20.3637
-20.3662
-20.3684
-20.3702
-20.3714
-20.3719
-20.3717
-20.3709
-20.3698
-20.3684
-20.3669
-20.3654
-20.364
-20.3626
-20.3614
-20.3603
-20.3593
-20.3585
-20.3578
-20.3571
-20.3566
-20.3562
-20.3559
-20.3556
-20.3553
-20.3551
-20.355
-20.3548
-20.3547
-20.3547
-20.3546
-20.3546
-20.3546
-20.8453
-20.8453
-20.8453
-20.8453
-20.8453
-20.8453
-20.8454
-20.8454
-20.8455
-20.8455
-20.8456
-20.8458
-20.846
-20.8462
-20.8465
-20.8469
-20.8473
-20.8479
-20.8486
-20.8493
-20.8502
-20.8511
-20.852
-20.8528
-20.8536
-20.854
-20.8542
-20.854
-20.8534
-20.8524
-20.8512
-20.8499
-20.8485
-20.8471
-20.8459
-20.8448
-20.8439
-20.8431
-20.8424
-20.8422
-20.8426
-20.8433
-20.8444
-20.8457
-20.8471
-20.8488
-20.8506
-20.8525
-20.8544
-20.856
-20.8574
-20.8583
-20.8587
-20.8587
-20.8583
-20.8575
-20.8565
-20.8555
-20.8543
-20.8532
-20.8522
-20.8512
-20.8503
-20.8495
-20.8487
-20.8481
-20.8476
-20.8471
-20.8467
-20.8464
-20.8461
-20.8459
-20.8457
-20.8456
-20.8455
-20.8454
-20.8453
-20.8452
-20.8452
-20.8452
-21.3358
-21.3358
-21.3358
-21.3358
-21.3358
-21.3358
-21.3359
-21.3359
-21.336
-21.3361
-21.3362
-21.3363
-21.3365
-21.3367
-21.337
-21.3373
-21.3377
-21.3381
-21.3387
-21.3393
-21.3399
-21.3406
-21.3413
-21.3419
-21.3424
-21.3427
-21.3427
-21.3425
-21.3421
-21.3414
-21.3405
-21.3395