/*--------------------------------*- C++ -*----------------------------------*\
| =========                 |                                                 |
| \\      /  F ield         | OpenFOAM: The Open Source CFD Toolbox           |
|  \\    /   O peration     | Version:  2412                                  |
|   \\  /    A nd           | Website:  www.openfoam.com                      |
|    \\/     M anipulation  |                                                 |
\*---------------------------------------------------------------------------*/
FoamFile
{
    version     2.0;
    format      ascii;
    arch        "LSB;label=32;scalar=64";
    class       volVectorField;
    location    "0.75";
    object      U;
}
// * * * * * * * * * * * * * * * * * * * * * * * * * * * * * * * * * * * * * //

dimensions      [0 1 -1 0 0 0 0];

internalField   nonuniform List<vector> 
6400
(
(1.24864e-10 -1.37702e-10 0)
(8.73415e-11 5.9954e-12 0)
(-5.32506e-10 1.65287e-10 0)
(-1.75029e-09 2.88459e-10 0)
(-3.45677e-09 3.84164e-10 0)
(-5.5276e-09 4.54408e-10 0)
(-7.85465e-09 5.04211e-10 0)
(-1.03433e-08 5.37202e-10 0)
(-1.29123e-08 5.56468e-10 0)
(-1.54913e-08 5.62069e-10 0)
(-1.80207e-08 5.54947e-10 0)
(-2.04538e-08 5.40545e-10 0)
(-2.275e-08 5.11911e-10 0)
(-2.48766e-08 4.77571e-10 0)
(-2.68082e-08 4.3237e-10 0)
(-2.85227e-08 3.80097e-10 0)
(-3.00047e-08 3.21614e-10 0)
(-3.12419e-08 2.58019e-10 0)
(-3.22248e-08 1.90801e-10 0)
(-3.29467e-08 1.21759e-10 0)
(-3.3404e-08 5.26927e-11 0)
(-3.3595e-08 -1.45543e-11 0)
(-3.35205e-08 -7.83994e-11 0)
(-3.31833e-08 -1.37225e-10 0)
(-3.25884e-08 -1.90066e-10 0)
(-3.17418e-08 -2.36482e-10 0)
(-3.06514e-08 -2.75826e-10 0)
(-2.93271e-08 -3.07729e-10 0)
(-2.77807e-08 -3.32671e-10 0)
(-2.60251e-08 -3.5154e-10 0)
(-2.40742e-08 -3.65158e-10 0)
(-2.19435e-08 -3.74336e-10 0)
(-1.96496e-08 -3.80022e-10 0)
(-1.721e-08 -3.83252e-10 0)
(-1.46425e-08 -3.84985e-10 0)
(-1.19655e-08 -3.8588e-10 0)
(-9.19848e-09 -3.86165e-10 0)
(-6.36203e-09 -3.85774e-10 0)
(-3.47784e-09 -3.84681e-10 0)
(-5.67598e-10 -3.83078e-10 0)
(2.34781e-09 -3.81209e-10 0)
(5.24854e-09 -3.79074e-10 0)
(8.11543e-09 -3.7633e-10 0)
(1.09296e-08 -3.72459e-10 0)
(1.36727e-08 -3.67026e-10 0)
(1.63273e-08 -3.59842e-10 0)
(1.88779e-08 -3.50951e-10 0)
(2.13113e-08 -3.40465e-10 0)
(2.36163e-08 -3.28339e-10 0)
(2.57832e-08 -3.14242e-10 0)
(2.78029e-08 -2.97636e-10 0)
(2.96667e-08 -2.78017e-10 0)
(3.1366e-08 -2.55101e-10 0)
(3.28925e-08 -2.28712e-10 0)
(3.42374e-08 -1.98461e-10 0)
(3.53902e-08 -1.63537e-10 0)
(3.63371e-08 -1.22928e-10 0)
(3.70604e-08 -7.58554e-11 0)
(3.75397e-08 -2.20471e-11 0)
(3.77524e-08 3.84819e-11 0)
(3.76745e-08 1.05628e-10 0)
(3.72808e-08 1.79293e-10 0)
(3.6546e-08 2.58892e-10 0)
(3.54464e-08 3.43309e-10 0)
(3.39632e-08 4.3032e-10 0)
(3.20879e-08 5.16217e-10 0)
(2.98282e-08 5.95767e-10 0)
(2.72128e-08 6.64221e-10 0)
(2.42951e-08 7.18297e-10 0)
(2.11571e-08 7.55413e-10 0)
(1.79118e-08 7.72374e-10 0)
(1.46951e-08 7.69399e-10 0)
(1.16416e-08 7.52317e-10 0)
(8.85764e-09 7.25612e-10 0)
(6.40512e-09 6.80857e-10 0)
(4.3015e-09 6.00224e-10 0)
(2.5352e-09 4.58108e-10 0)
(1.1208e-09 2.19531e-10 0)
(1.86271e-10 -1.38217e-10 0)
(-9.94542e-11 -5.35015e-10 0)
(4.92334e-11 -9.46962e-11 0)
(-6.95591e-10 9.13796e-10 0)
(-2.71023e-09 2.08185e-09 0)
(-6.03398e-09 3.12679e-09 0)
(-1.04553e-08 3.99804e-09 0)
(-1.5744e-08 4.67346e-09 0)
(-2.16758e-08 5.16038e-09 0)
(-2.80366e-08 5.47399e-09 0)
(-3.46287e-08 5.6309e-09 0)
(-4.12764e-08 5.64591e-09 0)
(-4.78272e-08 5.5313e-09 0)
(-5.41485e-08 5.31018e-09 0)
(-6.01266e-08 4.97941e-09 0)
(-6.56665e-08 4.5679e-09 0)
(-7.06908e-08 4.07771e-09 0)
(-7.51363e-08 3.52693e-09 0)
(-7.89532e-08 2.92918e-09 0)
(-8.21043e-08 2.29815e-09 0)
(-8.45638e-08 1.64844e-09 0)
(-8.63162e-08 9.94054e-10 0)
(-8.73556e-08 3.48664e-10 0)
(-8.7685e-08 -2.75255e-10 0)
(-8.73146e-08 -8.67678e-10 0)
(-8.62607e-08 -1.42013e-09 0)
(-8.45452e-08 -1.9272e-09 0)
(-8.21944e-08 -2.38639e-09 0)
(-7.92383e-08 -2.796e-09 0)
(-7.57097e-08 -3.1562e-09 0)
(-7.16434e-08 -3.47001e-09 0)
(-6.70757e-08 -3.74179e-09 0)
(-6.20449e-08 -3.97576e-09 0)
(-5.65909e-08 -4.17608e-09 0)
(-5.07548e-08 -4.34725e-09 0)
(-4.45786e-08 -4.49391e-09 0)
(-3.81042e-08 -4.61995e-09 0)
(-3.13743e-08 -4.72769e-09 0)
(-2.44326e-08 -4.81754e-09 0)
(-1.73244e-08 -4.88884e-09 0)
(-1.0096e-08 -4.94119e-09 0)
(-2.79381e-09 -4.975e-09 0)
(4.53681e-09 -4.99086e-09 0)
(1.18515e-08 -4.9885e-09 0)
(1.91067e-08 -4.96647e-09 0)
(2.626e-08 -4.92275e-09 0)
(3.32697e-08 -4.85567e-09 0)
(4.00964e-08 -4.76454e-09 0)
(4.67032e-08 -4.64944e-09 0)
(5.30562e-08 -4.51047e-09 0)
(5.9124e-08 -4.34676e-09 0)
(6.48767e-08 -4.15595e-09 0)
(7.02848e-08 -3.93474e-09 0)
(7.53181e-08 -3.67987e-09 0)
(7.99461e-08 -3.38874e-09 0)
(8.41368e-08 -3.05885e-09 0)
(8.78553e-08 -2.68653e-09 0)
(9.10622e-08 -2.26672e-09 0)
(9.37119e-08 -1.79414e-09 0)
(9.57536e-08 -1.26533e-09 0)
(9.71318e-08 -6.79606e-10 0)
(9.77887e-08 -3.88004e-11 0)
(9.76656e-08 6.53286e-10 0)
(9.67057e-08 1.39032e-09 0)
(9.48574e-08 2.16286e-09 0)
(9.20779e-08 2.95718e-09 0)
(8.83399e-08 3.75404e-09 0)
(8.36415e-08 4.52704e-09 0)
(7.80156e-08 5.24625e-09 0)
(7.15365e-08 5.88382e-09 0)
(6.4327e-08 6.41573e-09 0)
(5.65673e-08 6.81466e-09 0)
(4.84955e-08 7.05099e-09 0)
(4.03879e-08 7.10289e-09 0)
(3.25246e-08 6.95889e-09 0)
(2.51523e-08 6.59688e-09 0)
(1.84538e-08 5.97103e-09 0)
(1.2538e-08 5.02424e-09 0)
(7.48485e-09 3.70911e-09 0)
(3.41935e-09 2.02058e-09 0)
(5.5218e-10 8.97565e-11 0)
(-2.97343e-10 -1.29645e-09 0)
(-8.08435e-11 5.53809e-10 0)
(-1.75932e-09 3.17043e-09 0)
(-5.24126e-09 5.91329e-09 0)
(-1.05068e-08 8.3816e-09 0)
(-1.72543e-08 1.04694e-08 0)
(-2.51906e-08 1.21148e-08 0)
(-3.40274e-08 1.3313e-08 0)
(-4.34778e-08 1.40864e-08 0)
(-5.32691e-08 1.44625e-08 0)
(-6.31499e-08 1.44794e-08 0)
(-7.28992e-08 1.41711e-08 0)
(-8.2318e-08 1.3575e-08 0)
(-9.12333e-08 1.27172e-08 0)
(-9.95004e-08 1.1644e-08 0)
(-1.06996e-07 1.03838e-08 0)
(-1.13622e-07 8.97589e-09 0)
(-1.19299e-07 7.45624e-09 0)
(-1.23969e-07 5.85898e-09 0)
(-1.2759e-07 4.22153e-09 0)
(-1.30138e-07 2.57807e-09 0)
(-1.31608e-07 9.59285e-10 0)
(-1.32006e-07 -6.07753e-10 0)
(-1.31348e-07 -2.10111e-09 0)
(-1.29663e-07 -3.5031e-09 0)
(-1.2699e-07 -4.8023e-09 0)
(-1.23371e-07 -5.99338e-09 0)
(-1.18857e-07 -7.07464e-09 0)
(-1.13497e-07 -8.04806e-09 0)
(-1.07346e-07 -8.91952e-09 0)
(-1.00461e-07 -9.69645e-09 0)
(-9.2899e-08 -1.03861e-08 0)
(-8.47203e-08 -1.09956e-08 0)
(-7.59855e-08 -1.15327e-08 0)
(-6.67558e-08 -1.20045e-08 0)
(-5.70924e-08 -1.2417e-08 0)
(-4.70567e-08 -1.27729e-08 0)
(-3.67112e-08 -1.3072e-08 0)
(-2.61196e-08 -1.33126e-08 0)
(-1.5346e-08 -1.34932e-08 0)
(-4.45563e-09 -1.36134e-08 0)
(6.48698e-09 -1.36734e-08 0)
(1.74178e-08 -1.36721e-08 0)
(2.82741e-08 -1.36075e-08 0)
(3.89945e-08 -1.34768e-08 0)
(4.95192e-08 -1.3278e-08 0)
(5.97909e-08 -1.30102e-08 0)
(6.97546e-08 -1.26739e-08 0)
(7.93585e-08 -1.22691e-08 0)
(8.85526e-08 -1.1794e-08 0)
(9.72885e-08 -1.12441e-08 0)
(1.05518e-07 -1.06131e-08 0)
(1.13191e-07 -9.89463e-09 0)
(1.20256e-07 -9.08276e-09 0)
(1.2666e-07 -8.17108e-09 0)
(1.32343e-07 -7.15143e-09 0)
(1.3724e-07 -6.0141e-09 0)
(1.41279e-07 -4.75028e-09 0)
(1.44383e-07 -3.35495e-09 0)
(1.4647e-07 -1.82856e-09 0)
(1.47456e-07 -1.77207e-10 0)
(1.47258e-07 1.58673e-09 0)
(1.458e-07 3.44429e-09 0)
(1.43015e-07 5.36917e-09 0)
(1.38853e-07 7.32686e-09 0)
(1.33286e-07 9.27095e-09 0)
(1.26327e-07 1.11441e-08 0)
(1.18033e-07 1.28855e-08 0)
(1.08514e-07 1.44398e-08 0)
(9.79469e-08 1.57519e-08 0)
(8.65818e-08 1.67584e-08 0)
(7.47345e-08 1.73926e-08 0)
(6.27598e-08 1.75943e-08 0)
(5.10238e-08 1.72952e-08 0)
(3.98659e-08 1.6414e-08 0)
(2.95552e-08 1.48663e-08 0)
(2.02956e-08 1.25805e-08 0)
(1.22858e-08 9.55595e-09 0)
(5.82308e-09 5.94794e-09 0)
(1.39891e-09 2.13522e-09 0)
(-2.34354e-10 -6.73923e-10 0)
(-1.93941e-10 1.77508e-09 0)
(-2.76389e-09 6.68983e-09 0)
(-7.61897e-09 1.14751e-08 0)
(-1.46405e-08 1.57343e-08 0)
(-2.34179e-08 1.93343e-08 0)
(-3.36005e-08 2.21817e-08 0)
(-4.48477e-08 2.42572e-08 0)
(-5.68197e-08 2.55918e-08 0)
(-6.91958e-08 2.62278e-08 0)
(-8.16732e-08 2.62197e-08 0)
(-9.39774e-08 2.56383e-08 0)
(-1.05864e-07 2.45345e-08 0)
(-1.17116e-07 2.29763e-08 0)
(-1.27552e-07 2.10311e-08 0)
(-1.37012e-07 1.87605e-08 0)
(-1.45371e-07 1.62327e-08 0)
(-1.52526e-07 1.35131e-08 0)
(-1.58401e-07 1.06596e-08 0)
(-1.62944e-07 7.73582e-09 0)
(-1.66124e-07 4.80126e-09 0)
(-1.67931e-07 1.90577e-09 0)
(-1.68375e-07 -9.07863e-10 0)
(-1.67477e-07 -3.60364e-09 0)
(-1.65276e-07 -6.15342e-09 0)
(-1.6182e-07 -8.539e-09 0)
(-1.57167e-07 -1.07514e-08 0)
(-1.51379e-07 -1.27883e-08 0)
(-1.44521e-07 -1.46522e-08 0)
(-1.36663e-07 -1.635e-08 0)
(-1.27875e-07 -1.78894e-08 0)
(-1.18232e-07 -1.92782e-08 0)
(-1.07809e-07 -2.05243e-08 0)
(-9.66815e-08 -2.16356e-08 0)
(-8.49264e-08 -2.26199e-08 0)
(-7.26201e-08 -2.34826e-08 0)
(-5.98397e-08 -2.42255e-08 0)
(-4.66627e-08 -2.4847e-08 0)
(-3.31682e-08 -2.53436e-08 0)
(-1.94365e-08 -2.5712e-08 0)
(-5.54915e-09 -2.59509e-08 0)
(8.41219e-09 -2.606e-08 0)
(2.23664e-08 -2.60388e-08 0)
(3.62339e-08 -2.58859e-08 0)
(4.99364e-08 -2.55999e-08 0)
(6.3398e-08 -2.51797e-08 0)
(7.65449e-08 -2.46263e-08 0)
(8.93062e-08 -2.39413e-08 0)
(1.01613e-07 -2.31257e-08 0)
(1.134e-07 -2.21776e-08 0)
(1.24601e-07 -2.10913e-08 0)
(1.35151e-07 -1.98584e-08 0)
(1.44983e-07 -1.84694e-08 0)
(1.54028e-07 -1.69146e-08 0)
(1.62212e-07 -1.51829e-08 0)
(1.69457e-07 -1.32614e-08 0)
(1.75678e-07 -1.11362e-08 0)
(1.80784e-07 -8.7958e-09 0)
(1.84678e-07 -6.234e-09 0)
(1.87259e-07 -3.45294e-09 0)
(1.88427e-07 -4.6521e-10 0)
(1.88083e-07 2.70506e-09 0)
(1.8614e-07 6.02184e-09 0)
(1.82525e-07 9.43807e-09 0)
(1.77187e-07 1.28919e-08 0)
(1.70108e-07 1.63037e-08 0)
(1.61314e-07 1.95786e-08 0)
(1.50885e-07 2.26214e-08 0)
(1.38965e-07 2.5341e-08 0)
(1.25772e-07 2.76437e-08 0)
(1.11602e-07 2.94264e-08 0)
(9.68119e-08 3.059e-08 0)
(8.18003e-08 3.10298e-08 0)
(6.69806e-08 3.06161e-08 0)
(5.27383e-08 2.92133e-08 0)
(3.9403e-08 2.67095e-08 0)
(2.7274e-08 2.30217e-08 0)
(1.6695e-08 1.82073e-08 0)
(8.1685e-09 1.2563e-08 0)
(2.43764e-09 6.58691e-09 0)
(-7.16505e-11 1.23576e-09 0)
(-2.81779e-10 3.51821e-09 0)
(-3.61766e-09 1.13702e-08 0)
(-9.69502e-09 1.85931e-08 0)
(-1.82779e-08 2.49117e-08 0)
(-2.88374e-08 3.02117e-08 0)
(-4.09549e-08 3.43912e-08 0)
(-5.42437e-08 3.7423e-08 0)
(-6.83193e-08 3.935e-08 0)
(-8.28194e-08 4.02407e-08 0)
(-9.74066e-08 4.01621e-08 0)
(-1.1177e-07 3.92248e-08 0)
(-1.25632e-07 3.75041e-08 0)
(-1.38746e-07 3.51098e-08 0)
(-1.50901e-07 3.21385e-08 0)
(-1.61918e-07 2.86865e-08 0)
(-1.71648e-07 2.48545e-08 0)
(-1.79971e-07 2.07405e-08 0)
(-1.86801e-07 1.64309e-08 0)
(-1.92075e-07 1.20151e-08 0)
(-1.95758e-07 7.57751e-09 0)
(-1.97838e-07 3.18775e-09 0)
(-1.98324e-07 -1.09499e-09 0)
(-1.97243e-07 -5.22044e-09 0)
(-1.94638e-07 -9.14988e-09 0)
(-1.90564e-07 -1.28579e-08 0)
(-1.85087e-07 -1.63306e-08 0)
(-1.78277e-07 -1.9563e-08 0)
(-1.70211e-07 -2.2556e-08 0)
(-1.60968e-07 -2.5314e-08 0)
(-1.5063e-07 -2.7842e-08 0)
(-1.39281e-07 -3.01448e-08 0)
(-1.27008e-07 -3.22275e-08 0)
(-1.13898e-07 -3.40955e-08 0)
(-1.0004e-07 -3.57539e-08 0)
(-8.55235e-08 -3.7206e-08 0)
(-7.04378e-08 -3.84512e-08 0)
(-5.48746e-08 -3.94855e-08 0)
(-3.89278e-08 -4.0303e-08 0)
(-2.26931e-08 -4.08991e-08 0)
(-6.2678e-09 -4.12718e-08 0)
(1.02505e-08 -4.14217e-08 0)
(2.67647e-08 -4.13504e-08 0)
(4.31791e-08 -4.10591e-08 0)
(5.94e-08 -4.0549e-08 0)
(7.53359e-08 -3.98222e-08 0)
(9.08978e-08 -3.88823e-08 0)
(1.05999e-07 -3.77334e-08 0)
(1.20557e-07 -3.63784e-08 0)
(1.34489e-07 -3.48159e-08 0)
(1.47715e-07 -3.30397e-08 0)
(1.60155e-07 -3.10397e-08 0)
(1.71726e-07 -2.88036e-08 0)
(1.82345e-07 -2.63175e-08 0)
(1.91922e-07 -2.35662e-08 0)
(2.00363e-07 -2.05326e-08 0)
(2.07571e-07 -1.71996e-08 0)
(2.1344e-07 -1.3553e-08 0)
(2.17861e-07 -9.58598e-09 0)
(2.20721e-07 -5.30352e-09 0)
(2.21911e-07 -7.26495e-10 0)
(2.21327e-07 4.10657e-09 0)
(2.18878e-07 9.14153e-09 0)
(2.14494e-07 1.43075e-08 0)
(2.0813e-07 1.9512e-08 0)
(1.99783e-07 2.4637e-08 0)
(1.89498e-07 2.95498e-08 0)
(1.7738e-07 3.41161e-08 0)
(1.63599e-07 3.8203e-08 0)
(1.48405e-07 4.16699e-08 0)
(1.32114e-07 4.4376e-08 0)
(1.15093e-07 4.61802e-08 0)
(9.77551e-08 4.6924e-08 0)
(8.05216e-08 4.64211e-08 0)
(6.37921e-08 4.44934e-08 0)
(4.79518e-08 4.0995e-08 0)
(3.34058e-08 3.58573e-08 0)
(2.06541e-08 2.92e-08 0)
(1.04069e-08 2.14001e-08 0)
(3.58181e-09 1.29046e-08 0)
(1.73677e-10 4.08477e-09 0)
(-3.48107e-10 5.71771e-09 0)
(-4.32176e-09 1.7086e-08 0)
(-1.1464e-08 2.71092e-08 0)
(-2.14293e-08 3.57176e-08 0)
(-3.35648e-08 4.28612e-08 0)
(-4.73772e-08 4.84499e-08 0)
(-6.24274e-08 5.24717e-08 0)
(-7.8294e-08 5.49839e-08 0)
(-9.45762e-08 5.60873e-08 0)
(-1.10907e-07 5.58779e-08 0)
(-1.2695e-07 5.44983e-08 0)
(-1.42406e-07 5.20633e-08 0)
(-1.57012e-07 4.87196e-08 0)
(-1.70536e-07 4.46013e-08 0)
(-1.82784e-07 3.98412e-08 0)
(-1.93597e-07 3.45725e-08 0)
(-2.02846e-07 2.89239e-08 0)
(-2.10433e-07 2.30133e-08 0)
(-2.16294e-07 1.69559e-08 0)
(-2.20389e-07 1.08577e-08 0)
(-2.22704e-07 4.80672e-09 0)
(-2.23246e-07 -1.12159e-09 0)
(-2.22044e-07 -6.86269e-09 0)
(-2.19142e-07 -1.23668e-08 0)
(-2.146e-07 -1.76e-08 0)
(-2.08486e-07 -2.25414e-08 0)
(-2.00874e-07 -2.71805e-08 0)
(-1.91846e-07 -3.15127e-08 0)
(-1.81486e-07 -3.55362e-08 0)
(-1.69882e-07 -3.92494e-08 0)
(-1.57125e-07 -4.26507e-08 0)
(-1.4331e-07 -4.5739e-08 0)
(-1.28533e-07 -4.85144e-08 0)
(-1.12892e-07 -5.09776e-08 0)
(-9.64864e-08 -5.31282e-08 0)
(-7.94201e-08 -5.49626e-08 0)
(-6.17984e-08 -5.64738e-08 0)
(-4.37304e-08 -5.76543e-08 0)
(-2.53277e-08 -5.8499e-08 0)
(-6.70337e-09 -5.9007e-08 0)
(1.20288e-08 -5.91815e-08 0)
(3.07559e-08 -5.90274e-08 0)
(4.93664e-08 -5.85502e-08 0)
(6.77511e-08 -5.77552e-08 0)
(8.58032e-08 -5.66483e-08 0)
(1.03419e-07 -5.52365e-08 0)
(1.20497e-07 -5.35269e-08 0)
(1.3694e-07 -5.15241e-08 0)
(1.52652e-07 -4.92277e-08 0)
(1.67537e-07 -4.66311e-08 0)
(1.81504e-07 -4.37225e-08 0)
(1.94456e-07 -4.04866e-08 0)
(2.06297e-07 -3.69059e-08 0)
(2.16926e-07 -3.29614e-08 0)
(2.2624e-07 -2.86325e-08 0)
(2.34131e-07 -2.38993e-08 0)
(2.40486e-07 -1.8745e-08 0)
(2.45189e-07 -1.31622e-08 0)
(2.48124e-07 -7.15973e-09 0)
(2.49179e-07 -7.68695e-10 0)
(2.48253e-07 5.95806e-09 0)
(2.45259e-07 1.29475e-08 0)
(2.40135e-07 2.01036e-08 0)
(2.32852e-07 2.72981e-08 0)
(2.23428e-07 3.43729e-08 0)
(2.1193e-07 4.11532e-08 0)
(1.98482e-07 4.74608e-08 0)
(1.83281e-07 5.31073e-08 0)
(1.66591e-07 5.79005e-08 0)
(1.48728e-07 6.16491e-08 0)
(1.30051e-07 6.41528e-08 0)
(1.10952e-07 6.51883e-08 0)
(9.1833e-08 6.45307e-08 0)
(7.31056e-08 6.19585e-08 0)
(5.52196e-08 5.73121e-08 0)
(3.86964e-08 5.05715e-08 0)
(2.41963e-08 4.19193e-08 0)
(1.25719e-08 3.17555e-08 0)
(4.78081e-09 2.03172e-08 0)
(4.578e-10 7.27382e-09 0)
(-3.98061e-10 8.30207e-09 0)
(-4.90337e-09 2.36967e-08 0)
(-1.29745e-08 3.68592e-08 0)
(-2.41669e-08 4.79712e-08 0)
(-3.77105e-08 5.70802e-08 0)
(-5.30339e-08 6.41306e-08 0)
(-6.9638e-08 6.9144e-08 0)
(-8.70576e-08 7.22116e-08 0)
(-1.04861e-07 7.34659e-08 0)
(-1.22657e-07 7.30514e-08 0)
(-1.40088e-07 7.11407e-08 0)
(-1.56841e-07 6.79016e-08 0)
(-1.72644e-07 6.35136e-08 0)
(-1.87257e-07 5.81521e-08 0)
(-2.00481e-07 5.19875e-08 0)
(-2.12149e-07 4.51849e-08 0)
(-2.2213e-07 3.79014e-08 0)
(-2.30325e-07 3.02838e-08 0)
(-2.36665e-07 2.24717e-08 0)
(-2.41111e-07 1.45894e-08 0)
(-2.43643e-07 6.74166e-09 0)
(-2.44268e-07 -9.79932e-10 0)
(-2.43012e-07 -8.49616e-09 0)
(-2.39918e-07 -1.57447e-08 0)
(-2.35044e-07 -2.26806e-08 0)
(-2.28455e-07 -2.92732e-08 0)
(-2.20227e-07 -3.5502e-08 0)
(-2.10439e-07 -4.13532e-08 0)
(-1.99177e-07 -4.68147e-08 0)
(-1.86532e-07 -5.18751e-08 0)
(-1.72597e-07 -5.65231e-08 0)
(-1.57473e-07 -6.07496e-08 0)
(-1.41261e-07 -6.45479e-08 0)
(-1.24069e-07 -6.79135e-08 0)
(-1.06009e-07 -7.08419e-08 0)
(-8.71971e-08 -7.33262e-08 0)
(-6.7754e-08 -7.53577e-08 0)
(-4.7805e-08 -7.69284e-08 0)
(-2.74785e-08 -7.80346e-08 0)
(-6.90412e-09 -7.86781e-08 0)
(1.37878e-08 -7.88658e-08 0)
(3.44679e-08 -7.8607e-08 0)
(5.50089e-08 -7.79119e-08 0)
(7.52859e-08 -7.67899e-08 0)
(9.5177e-08 -7.52506e-08 0)
(1.14563e-07 -7.33041e-08 0)
(1.33329e-07 -7.09597e-08 0)
(1.51362e-07 -6.82236e-08 0)
(1.68554e-07 -6.50959e-08 0)
(1.84798e-07 -6.15696e-08 0)
(1.99988e-07 -5.76311e-08 0)
(2.1402e-07 -5.32626e-08 0)
(2.26786e-07 -4.84434e-08 0)
(2.38178e-07 -4.31513e-08 0)
(2.48088e-07 -3.73635e-08 0)
(2.56401e-07 -3.1057e-08 0)
(2.63004e-07 -2.42128e-08 0)
(2.67778e-07 -1.68236e-08 0)
(2.70609e-07 -8.90373e-09 0)
(2.71392e-07 -4.94789e-10 0)
(2.70034e-07 8.33588e-09 0)
(2.66458e-07 1.74971e-08 0)
(2.60617e-07 2.68643e-08 0)
(2.52504e-07 3.62712e-08 0)
(2.4216e-07 4.5516e-08 0)
(2.29673e-07 5.43801e-08 0)
(2.15186e-07 6.26296e-08 0)
(1.98905e-07 7.00144e-08 0)
(1.81095e-07 7.62758e-08 0)
(1.62061e-07 8.11552e-08 0)
(1.4214e-07 8.4372e-08 0)
(1.21684e-07 8.56474e-08 0)
(1.01068e-07 8.47183e-08 0)
(8.07306e-08 8.13314e-08 0)
(6.12049e-08 7.53427e-08 0)
(4.31404e-08 6.67955e-08 0)
(2.73281e-08 5.59105e-08 0)
(1.46499e-08 4.30506e-08 0)
(5.92127e-09 2.81494e-08 0)
(7.03055e-10 1.03032e-08 0)
(-4.36853e-10 1.12115e-08 0)
(-5.39732e-09 3.10783e-08 0)
(-1.4296e-08 4.7698e-08 0)
(-2.66017e-08 6.15172e-08 0)
(-4.1429e-08 7.27026e-08 0)
(-5.81259e-08 8.12563e-08 0)
(-7.61317e-08 8.72464e-08 0)
(-9.49301e-08 9.08195e-08 0)
(-1.14056e-07 9.21529e-08 0)
(-1.33097e-07 9.14492e-08 0)
(-1.51685e-07 8.8919e-08 0)
(-1.69498e-07 8.47891e-08 0)
(-1.8626e-07 7.92751e-08 0)
(-2.01736e-07 7.25931e-08 0)
(-2.15727e-07 6.49499e-08 0)
(-2.28071e-07 5.65395e-08 0)
(-2.38637e-07 4.75453e-08 0)
(-2.47326e-07 3.8139e-08 0)
(-2.5407e-07 2.84805e-08 0)
(-2.58827e-07 1.87103e-08 0)
(-2.61575e-07 8.94935e-09 0)
(-2.62316e-07 -6.94117e-10 0)
(-2.61072e-07 -1.0125e-08 0)
(-2.5788e-07 -1.92661e-08 0)
(-2.52791e-07 -2.8058e-08 0)
(-2.45863e-07 -3.64562e-08 0)
(-2.37168e-07 -4.44268e-08 0)
(-2.26779e-07 -5.1942e-08 0)
(-2.1478e-07 -5.89771e-08 0)
(-2.01261e-07 -6.55084e-08 0)
(-1.86318e-07 -7.15144e-08 0)
(-1.70052e-07 -7.69772e-08 0)
(-1.52574e-07 -8.18836e-08 0)
(-1.33999e-07 -8.6224e-08 0)
(-1.14452e-07 -8.99901e-08 0)
(-9.40639e-08 -9.3173e-08 0)
(-7.29724e-08 -9.57633e-08 0)
(-5.13196e-08 -9.77543e-08 0)
(-2.92506e-08 -9.91443e-08 0)
(-6.91267e-09 -9.99383e-08 0)
(1.55472e-08 -1.00147e-07 0)
(3.79832e-08 -9.97836e-08 0)
(6.02516e-08 -9.88616e-08 0)
(8.22117e-08 -9.73935e-08 0)
(1.03726e-07 -9.5391e-08 0)
(1.2466e-07 -9.2866e-08 0)
(1.44884e-07 -8.9829e-08 0)
(1.64272e-07 -8.62876e-08 0)
(1.82704e-07 -8.22425e-08 0)
(2.00062e-07 -7.76864e-08 0)
(2.1623e-07 -7.26049e-08 0)
(2.31095e-07 -6.69784e-08 0)
(2.44544e-07 -6.07846e-08 0)
(2.56464e-07 -5.40003e-08 0)
(2.66743e-07 -4.66013e-08 0)
(2.75268e-07 -3.85633e-08 0)
(2.81924e-07 -2.98662e-08 0)
(2.86601e-07 -2.05051e-08 0)
(2.8919e-07 -1.05012e-08 0)
(2.89598e-07 9.24545e-11 0)
(2.87745e-07 1.11949e-08 0)
(2.8357e-07 2.26947e-08 0)
(2.77047e-07 3.44384e-08 0)
(2.68189e-07 4.62208e-08 0)
(2.57061e-07 5.77982e-08 0)
(2.43769e-07 6.89019e-08 0)
(2.2847e-07 7.92416e-08 0)
(2.11363e-07 8.85004e-08 0)
(1.92696e-07 9.63468e-08 0)
(1.72758e-07 1.02428e-07 0)
(1.51857e-07 1.06386e-07 0)
(1.30304e-07 1.07886e-07 0)
(1.08462e-07 1.06625e-07 0)
(8.68106e-08 1.02335e-07 0)
(6.59806e-08 9.49005e-08 0)
(4.67605e-08 8.43893e-08 0)
(3.00121e-08 7.10169e-08 0)
(1.65154e-08 5.50287e-08 0)
(6.81963e-09 3.60767e-08 0)
(8.25329e-10 1.30022e-08 0)
(-4.68678e-10 1.43993e-08 0)
(-5.83875e-09 3.91362e-08 0)
(-1.55079e-08 5.95141e-08 0)
(-2.88615e-08 7.62428e-08 0)
(-4.49041e-08 8.96101e-08 0)
(-6.28893e-08 9.9698e-08 0)
(-8.21887e-08 1.06641e-07 0)
(-1.02236e-07 1.10656e-07 0)
(-1.22531e-07 1.11987e-07 0)
(-1.42641e-07 1.10901e-07 0)
(-1.62195e-07 1.07665e-07 0)
(-1.80874e-07 1.0256e-07 0)
(-1.98406e-07 9.58459e-08 0)
(-2.14562e-07 8.77774e-08 0)
(-2.29155e-07 7.85945e-08 0)
(-2.42032e-07 6.85167e-08 0)
(-2.53067e-07 5.77496e-08 0)
(-2.62168e-07 4.64853e-08 0)
(-2.69265e-07 3.48999e-08 0)
(-2.74312e-07 2.31489e-08 0)
(-2.77285e-07 1.13709e-08 0)
(-2.78177e-07 -3.07718e-10 0)
(-2.77003e-07 -1.17741e-08 0)
(-2.7379e-07 -2.2933e-08 0)
(-2.68576e-07 -3.37073e-08 0)
(-2.61413e-07 -4.40351e-08 0)
(-2.5236e-07 -5.38656e-08 0)
(-2.41485e-07 -6.31551e-08 0)
(-2.28867e-07 -7.18649e-08 0)
(-2.14592e-07 -7.99598e-08 0)
(-1.98756e-07 -8.74085e-08 0)
(-1.81466e-07 -9.41856e-08 0)
(-1.62838e-07 -1.00272e-07 0)
(-1.43e-07 -1.05654e-07 0)
(-1.22089e-07 -1.10319e-07 0)
(-1.00252e-07 -1.14259e-07 0)
(-7.76428e-08 -1.17463e-07 0)
(-5.44199e-08 -1.19924e-07 0)
(-3.07463e-08 -1.21644e-07 0)
(-6.78606e-09 -1.22628e-07 0)
(1.72969e-08 -1.2289e-07 0)
(4.134e-08 -1.22442e-07 0)
(6.51828e-08 -1.21301e-07 0)
(8.86679e-08 -1.19478e-07 0)
(1.11641e-07 -1.16986e-07 0)
(1.33953e-07 -1.13838e-07 0)
(1.5546e-07 -1.10046e-07 0)
(1.76023e-07 -1.05618e-07 0)
(1.9551e-07 -1.00557e-07 0)
(2.13793e-07 -9.48584e-08 0)
(2.30748e-07 -8.85076e-08 0)
(2.46255e-07 -8.14863e-08 0)
(2.60197e-07 -7.37739e-08 0)
(2.72459e-07 -6.5349e-08 0)
(2.82931e-07 -5.61891e-08 0)
(2.91502e-07 -4.62713e-08 0)
(2.98066e-07 -3.55782e-08 0)
(3.02519e-07 -2.41101e-08 0)
(3.04768e-07 -1.18979e-08 0)
(3.04733e-07 9.93981e-10 0)
(3.02352e-07 1.44694e-08 0)
(2.97585e-07 2.8396e-08 0)
(2.90428e-07 4.25904e-08 0)
(2.80914e-07 5.68158e-08 0)
(2.69125e-07 7.07882e-08 0)
(2.55187e-07 8.41904e-08 0)
(2.39257e-07 9.66743e-08 0)
(2.21517e-07 1.0787e-07 0)
(2.02183e-07 1.17364e-07 0)
(1.81517e-07 1.24712e-07 0)
(1.59796e-07 1.29476e-07 0)
(1.37313e-07 1.31269e-07 0)
(1.14438e-07 1.29735e-07 0)
(9.1694e-08 1.24626e-07 0)
(6.98102e-08 1.15806e-07 0)
(4.96932e-08 1.03311e-07 0)
(3.22169e-08 8.72618e-08 0)
(1.7978e-08 6.77261e-08 0)
(7.29757e-09 4.41713e-08 0)
(7.75944e-10 1.55774e-08 0)
(-4.9631e-10 1.78301e-08 0)
(-6.26498e-09 4.78114e-08 0)
(-1.67024e-08 7.22446e-08 0)
(-3.10981e-08 9.20828e-08 0)
(-4.8337e-08 1.07738e-07 0)
(-6.75743e-08 1.19378e-07 0)
(-8.81012e-08 1.27237e-07 0)
(-1.09303e-07 1.3162e-07 0)
(-1.30645e-07 1.32853e-07 0)
(-1.51681e-07 1.31283e-07 0)
(-1.72042e-07 1.27253e-07 0)
(-1.91421e-07 1.21092e-07 0)
(-2.09561e-07 1.13108e-07 0)
(-2.26249e-07 1.03592e-07 0)
(-2.41313e-07 9.2814e-08 0)
(-2.54612e-07 8.10143e-08 0)
(-2.66033e-07 6.84178e-08 0)
(-2.75487e-07 5.5232e-08 0)
(-2.82904e-07 4.16458e-08 0)
(-2.88233e-07 2.78304e-08 0)
(-2.91442e-07 1.39436e-08 0)
(-2.92516e-07 1.32518e-10 0)
(-2.91455e-07 -1.34694e-08 0)
(-2.88274e-07 -2.67464e-08 0)
(-2.82998e-07 -3.96009e-08 0)
(-2.75666e-07 -5.19515e-08 0)
(-2.66327e-07 -6.37296e-08 0)
(-2.5504e-07 -7.48764e-08 0)
(-2.41877e-07 -8.53407e-08 0)
(-2.26923e-07 -9.50774e-08 0)
(-2.10274e-07 -1.04047e-07 0)
(-1.92041e-07 -1.12219e-07 0)
(-1.7235e-07 -1.19567e-07 0)
(-1.51338e-07 -1.26074e-07 0)
(-1.29158e-07 -1.31725e-07 0)
(-1.05969e-07 -1.36506e-07 0)
(-8.19419e-08 -1.40406e-07 0)
(-5.72511e-08 -1.43417e-07 0)
(-3.20758e-08 -1.45536e-07 0)
(-6.59662e-09 -1.46768e-07 0)
(1.90056e-08 -1.47122e-07 0)
(4.45508e-08 -1.46613e-07 0)
(6.98607e-08 -1.45251e-07 0)
(9.47603e-08 -1.43049e-07 0)
(1.19078e-07 -1.40018e-07 0)
(1.4265e-07 -1.36173e-07 0)
(1.65316e-07 -1.31528e-07 0)
(1.86925e-07 -1.26098e-07 0)
(2.07332e-07 -1.19888e-07 0)
(2.26402e-07 -1.12898e-07 0)
(2.44001e-07 -1.0512e-07 0)
(2.60006e-07 -9.65406e-08 0)
(2.74297e-07 -8.71447e-08 0)
(2.8676e-07 -7.69177e-08 0)
(2.9729e-07 -6.5843e-08 0)
(3.05782e-07 -5.39033e-08 0)
(3.12142e-07 -4.1088e-08 0)
(3.16282e-07 -2.74078e-08 0)
(3.18124e-07 -1.29042e-08 0)
(3.17606e-07 2.34623e-09 0)
(3.14685e-07 1.82311e-08 0)
(3.09348e-07 3.45929e-08 0)
(3.01613e-07 5.12231e-08 0)
(2.91532e-07 6.78589e-08 0)
(2.79199e-07 8.41859e-08 0)
(2.6475e-07 9.98375e-08 0)
(2.48345e-07 1.14419e-07 0)
(2.30139e-07 1.2751e-07 0)
(2.10302e-07 1.38639e-07 0)
(1.89045e-07 1.4728e-07 0)
(1.66624e-07 1.52932e-07 0)
(1.43343e-07 1.55128e-07 0)
(1.19593e-07 1.53489e-07 0)
(9.59336e-08 1.47765e-07 0)
(7.31658e-08 1.37773e-07 0)
(5.22471e-08 1.23415e-07 0)
(3.40144e-08 1.04628e-07 0)
(1.89233e-08 8.12623e-08 0)
(7.30953e-09 5.27345e-08 0)
(5.82716e-10 1.84443e-08 0)
(-5.24783e-10 2.14826e-08 0)
(-6.71628e-09 5.70895e-08 0)
(-1.79793e-08 8.58846e-08 0)
(-3.34776e-08 1.09034e-07 0)
(-5.19569e-08 1.27069e-07 0)
(-7.24528e-08 1.40268e-07 0)
(-9.41759e-08 1.48981e-07 0)
(-1.16458e-07 1.53639e-07 0)
(-1.38743e-07 1.54667e-07 0)
(-1.60576e-07 1.52506e-07 0)
(-1.81603e-07 1.47582e-07 0)
(-2.01538e-07 1.40281e-07 0)
(-2.20146e-07 1.30957e-07 0)
(-2.3724e-07 1.19938e-07 0)
(-2.52668e-07 1.07512e-07 0)
(-2.66308e-07 9.39397e-08 0)
(-2.78054e-07 7.94602e-08 0)
(-2.87822e-07 6.42934e-08 0)
(-2.95539e-07 4.86401e-08 0)
(-3.01146e-07 3.26881e-08 0)
(-3.046e-07 1.66166e-08 0)
(-3.05872e-07 5.95535e-10 0)
(-3.04947e-07 -1.52186e-08 0)
(-3.01825e-07 -3.06876e-08 0)
(-2.96519e-07 -4.56932e-08 0)
(-2.89054e-07 -6.01353e-08 0)
(-2.79468e-07 -7.39297e-08 0)
(-2.67811e-07 -8.70058e-08 0)
(-2.54151e-07 -9.93028e-08 0)
(-2.38569e-07 -1.10768e-07 0)
(-2.21164e-07 -1.21355e-07 0)
(-2.02051e-07 -1.31025e-07 0)
(-1.81364e-07 -1.39747e-07 0)
(-1.59252e-07 -1.47496e-07 0)
(-1.35876e-07 -1.54251e-07 0)
(-1.11412e-07 -1.59989e-07 0)
(-8.60415e-08 -1.64692e-07 0)
(-5.99548e-08 -1.68345e-07 0)
(-3.33461e-08 -1.70937e-07 0)
(-6.41268e-09 -1.72467e-07 0)
(2.06466e-08 -1.72939e-07 0)
(4.76326e-08 -1.7236e-07 0)
(7.43479e-08 -1.7074e-07 0)
(1.00598e-07 -1.68089e-07 0)
(1.26194e-07 -1.64421e-07 0)
(1.50953e-07 -1.59756e-07 0)
(1.74702e-07 -1.54114e-07 0)
(1.97274e-07 -1.47517e-07 0)
(2.18513e-07 -1.39981e-07 0)
(2.38272e-07 -1.31515e-07 0)
(2.56414e-07 -1.2212e-07 0)
(2.72808e-07 -1.11793e-07 0)
(2.87338e-07 -1.00532e-07 0)
(2.99893e-07 -8.83328e-08 0)
(3.10375e-07 -7.51891e-08 0)
(3.18693e-07 -6.10932e-08 0)
(3.24767e-07 -4.60461e-08 0)
(3.28528e-07 -3.00712e-08 0)
(3.29918e-07 -1.32223e-08 0)
(3.28892e-07 4.41355e-09 0)
(3.2543e-07 2.27049e-08 0)
(3.19547e-07 4.14678e-08 0)
(3.11288e-07 6.04667e-08 0)
(3.00723e-07 7.9423e-08 0)
(2.87949e-07 9.79971e-08 0)
(2.73111e-07 1.15785e-07 0)
(2.56366e-07 1.32342e-07 0)
(2.37846e-07 1.47212e-07 0)
(2.17666e-07 1.5988e-07 0)
(1.95965e-07 1.69788e-07 0)
(1.72978e-07 1.76362e-07 0)
(1.4904e-07 1.7907e-07 0)
(1.24578e-07 1.77505e-07 0)
(1.00177e-07 1.7139e-07 0)
(7.66393e-08 1.60451e-07 0)
(5.48761e-08 1.44411e-07 0)
(3.56571e-08 1.22928e-07 0)
(1.94598e-08 9.56491e-08 0)
(7.02734e-09 6.20363e-08 0)
(3.5033e-10 2.1933e-08 0)
(-5.58707e-10 2.53566e-08 0)
(-7.24769e-09 6.7006e-08 0)
(-1.94592e-08 1.00499e-07 0)
(-3.61962e-08 1.27159e-07 0)
(-5.60198e-08 1.4765e-07 0)
(-7.78312e-08 1.62378e-07 0)
(-1.00739e-07 1.71854e-07 0)
(-1.24036e-07 1.76655e-07 0)
(-1.47155e-07 1.77348e-07 0)
(-1.69657e-07 1.74476e-07 0)
(-1.9121e-07 1.68554e-07 0)
(-2.11561e-07 1.60025e-07 0)
(-2.30511e-07 1.49291e-07 0)
(-2.47902e-07 1.36711e-07 0)
(-2.63607e-07 1.2259e-07 0)
(-2.7752e-07 1.07201e-07 0)
(-2.89545e-07 9.07923e-08 0)
(-2.99599e-07 7.35945e-08 0)
(-3.07602e-07 5.58211e-08 0)
(-3.13482e-07 3.76776e-08 0)
(-3.17181e-07 1.93654e-08 0)
(-3.18652e-07 1.07929e-09 0)
(-3.17864e-07 -1.69995e-08 0)
(-3.14806e-07 -3.4711e-08 0)
(-3.09477e-07 -5.19189e-08 0)
(-3.01892e-07 -6.85092e-08 0)
(-2.92079e-07 -8.4387e-08 0)
(-2.80081e-07 -9.94737e-08 0)
(-2.65959e-07 -1.13701e-07 0)
(-2.49792e-07 -1.27009e-07 0)
(-2.3168e-07 -1.39343e-07 0)
(-2.11743e-07 -1.50654e-07 0)
(-1.90119e-07 -1.60898e-07 0)
(-1.66964e-07 -1.70038e-07 0)
(-1.42451e-07 -1.78038e-07 0)
(-1.16762e-07 -1.84861e-07 0)
(-9.00927e-08 -1.90476e-07 0)
(-6.26467e-08 -1.94852e-07 0)
(-3.46337e-08 -1.97968e-07 0)
(-6.2693e-09 -1.99813e-07 0)
(2.22275e-08 -2.00381e-07 0)
(5.06362e-08 -1.99676e-07 0)
(7.87376e-08 -1.97707e-07 0)
(1.06316e-07 -1.94488e-07 0)
(1.33164e-07 -1.9004e-07 0)
(1.59079e-07 -1.84389e-07 0)
(1.83871e-07 -1.77569e-07 0)
(2.07358e-07 -1.69614e-07 0)
(2.2937e-07 -1.60553e-07 0)
(2.49751e-07 -1.5041e-07 0)
(2.68357e-07 -1.39202e-07 0)
(2.85059e-07 -1.2694e-07 0)
(2.9974e-07 -1.13638e-07 0)
(3.123e-07 -9.93089e-08 0)
(3.22652e-07 -8.39586e-08 0)
(3.3072e-07 -6.75923e-08 0)
(3.36443e-07 -5.02241e-08 0)
(3.39775e-07 -3.18916e-08 0)
(3.40681e-07 -1.2659e-08 0)
(3.39136e-07 7.37621e-09 0)
(3.35138e-07 2.80657e-08 0)
(3.28732e-07 4.91947e-08 0)
(3.19995e-07 7.05009e-08 0)
(3.09018e-07 9.16869e-08 0)
(2.959e-07 1.12402e-07 0)
(2.80774e-07 1.32211e-07 0)
(2.63796e-07 1.50631e-07 0)
(2.45093e-07 1.67149e-07 0)
(2.24722e-07 1.81244e-07 0)
(2.02749e-07 1.92346e-07 0)
(1.7937e-07 1.99846e-07 0)
(1.54948e-07 2.03143e-07 0)
(1.29964e-07 2.01793e-07 0)
(1.05005e-07 1.95426e-07 0)
(8.07836e-08 1.83675e-07 0)
(5.80673e-08 1.66048e-07 0)
(3.75543e-08 1.41927e-07 0)
(1.99661e-08 1.10773e-07 0)
(6.81279e-09 7.21607e-08 0)
(2.16679e-10 2.60652e-08 0)
(-6.03359e-10 2.94803e-08 0)
(-7.92423e-09 7.76726e-08 0)
(-2.13166e-08 1.16237e-07 0)
(-3.95187e-08 1.46608e-07 0)
(-6.08582e-08 1.69575e-07 0)
(-8.40617e-08 1.85752e-07 0)
(-1.08149e-07 1.95837e-07 0)
(-1.32372e-07 2.00607e-07 0)
(-1.56195e-07 2.00796e-07 0)
(-1.79215e-07 1.97079e-07 0)
(-2.01141e-07 1.90045e-07 0)
(-2.21762e-07 1.80202e-07 0)
(-2.40926e-07 1.67992e-07 0)
(-2.5851e-07 1.53799e-07 0)
(-2.74413e-07 1.37943e-07 0)
(-2.88541e-07 1.20703e-07 0)
(-3.00806e-07 1.02334e-07 0)
(-3.1112e-07 8.30744e-08 0)
(-3.19392e-07 6.31491e-08 0)
(-3.25534e-07 4.27813e-08 0)
(-3.29466e-07 2.21946e-08 0)
(-3.3112e-07 1.60977e-09 0)
(-3.30455e-07 -1.87668e-08 0)
(-3.27449e-07 -3.87562e-08 0)
(-3.22095e-07 -5.82109e-08 0)
(-3.14399e-07 -7.701e-08 0)
(-3.04378e-07 -9.5054e-08 0)
(-2.92068e-07 -1.12258e-07 0)
(-2.77523e-07 -1.28547e-07 0)
(-2.60818e-07 -1.4385e-07 0)
(-2.4205e-07 -1.58096e-07 0)
(-2.21339e-07 -1.71221e-07 0)
(-1.98826e-07 -1.83158e-07 0)
(-1.74671e-07 -1.93849e-07 0)
(-1.4905e-07 -2.03234e-07 0)
(-1.22157e-07 -2.11257e-07 0)
(-9.4198e-08 -2.17864e-07 0)
(-6.53899e-08 -2.2301e-07 0)
(-3.59616e-08 -2.26659e-07 0)
(-6.15e-09 -2.28787e-07 0)
(2.38021e-08 -2.29386e-07 0)
(5.365e-08 -2.28459e-07 0)
(8.31508e-08 -2.26019e-07 0)
(1.12066e-07 -2.22089e-07 0)
(1.40166e-07 -2.16701e-07 0)
(1.67229e-07 -2.09896e-07 0)
(1.93045e-07 -2.01721e-07 0)
(2.17415e-07 -1.92227e-07 0)
(2.40157e-07 -1.81462e-07 0)
(2.61107e-07 -1.69467e-07 0)
(2.80116e-07 -1.56277e-07 0)
(2.97056e-07 -1.41925e-07 0)