/*--------------------------------*- C++ -*----------------------------------*\
| =========                 |                                                 |
| \\      /  F ield         | OpenFOAM: The Open Source CFD Toolbox           |
|  \\    /   O peration     | Version:  2412                                  |
|   \\  /    A nd           | Website:  www.openfoam.com                      |
|    \\/     M anipulation  |                                                 |
\*---------------------------------------------------------------------------*/
FoamFile
{
    version     2.0;
    format      ascii;
    arch        "LSB;label=32;scalar=64";
    class       volScalarField;
    location    "4.35";
    object      alpha.molasses;
}
// * * * * * * * * * * * * * * * * * * * * * * * * * * * * * * * * * * * * * //

dimensions      [0 0 0 0 0 0 0];

internalField   nonuniform List<scalar> 
6400
(
1
1
1
1
1
1
1
1
1
1
1
1
1
1
1
1
1
1
1
1
1
1
1
1
1
1
1
1
1
1
1
1
1
1
1
1
1
1
1
1
1
1
1
1
1
1
1
1
1
1
1
1
1
1
1
1
1
1
1
1
1
1
1
1
1
1
1
1
1
1
1
1
1
1
1
1
1
1
1
1
1
1
1
1
1
1
1
1
1
1
1
1
1
1
1
1
1
1
1
1
1
1
1
1
1
1
1
1
1
1
1
1
1
1
1
1
1
1
1
1
1
1
1
1
1
1
1
1
1
1
1
1
1
1
1
1
1
1
1
1
1
1
1
1
1
1
1
1
1
1
1
1
1
1
1
1
1
1
1
1
1
1
1
1
1
1
1
1
1
1
1
1
1
1
1
1
1
1
1
1
1
1
1
1
1
1
1
1
1
1
1
1
1
1
1
1
1
1
1
1
1
1
1
1
1
1
1
1
1
1
1
1
1
1
1
1
1
1
1
1
1
1
1
1
1
1
1
1
1
1
1
1
1
1
1
1
1
1
1
1
1
1
1
1
1
1
1
1
1
1
1
1
1
1
1
1
1
1
1
1
1
1
1
1
1
1
1
1
1
1
1
1
1
1
1
1
1
1
1
1
1
1
1
1
1
1
1
1
1
1
1
1
1
1
1
1
1
1
1
1
1
1
1
1
1
1
1
1
1
1
1
1
1
1
1
1
1
1
1
1
1
1
1
1
1
1
1
1
1
1
1
1
1
1
1
1
1
1
1
1
1
1
1
1
1
1
1
1
1
1
1
1
1
1
1
1
1
1
1
1
1
1
1
1
1
1
1
1
1
1
1
1
1
1
1
1
1
1
1
1
1
1
1
1
1
1
1
1
1
1
1
1
1
1
1
1
1
1
1
1
1
1
1
1
1
1
1
1
1
1
1
1
1
1
1
1
1
1
1
1
1
1
1
1
1
1
1
1
1
1
1
1
1
1
1
1
1
1
1
1
1
1
1
1
1
1
1
1
1
1
1
1
1
1
1
1
1
1
1
1
1
1
1
1
1
1
1
1
1
1
1
1
1
1
1
1
1
1
1
1
1
1
1
1
1
1
1
1
1
1
1
1
1
1
1
1
1
1
1
1
1
1
1
1
1
1
1
1
1
1
1
1
1
1
1
1
1
1
1
1
1
1
1
1
1
1
1
1
1
1
1
1
1
1
1
1
1
1
1
1
1
1
1
1
1
1
1
1
1
1
1
1
1
1
1
1
1
1
1
1
1
1
1
1
1
1
1
1
1
1
1
1
1
1
1
1
1
1
1
1
1
1
1
1
1
1
1
1
1
1
1
1
1
1
1
1
1
1
1
1
1
1
1
1
1
1
1
1
1
1
1
1
1
1
1
1
1
1
1
1
1
1
1
1
1
1
1
1
1
1
1
1
1
1
1
1
1
1
1
1
1
1
1
1
1
1
1
1
1
1
1
1
1
1
1
1
1
1
1
1
1
1
1
1
1
1
1
1
1
1
1
1
1
1
1
1
1
1
1
1
1
1
1
1
1
1
1
1
1
1
1
1
1
1
1
1
1
1
1
1
1
1
1
1
1
1
1
1
1
1
1
1
1
1
1
1
1
1
1
1
1
1
1
1
1
1
1
1
1
1
1
1
1
1
1
1
1
1
1
1
1
1
1
1
1
1
1
1
1
1
1
1
1
1
1
1
1
1
1
1
1
1
1
1
1
1
1
1
1
1
1
1
1
1
1
1
1
1
1
1
1
1
1
1
1
1
1
1
1
1
1
1
1
1
1
1
1
1
1
1
1
1
1
1
1
1
1
1
1
1
1
1
1
1
1
1
1
1
1
1
1
1
1
1
1
1
1
1
1
1
1
1
1
1
1
1
1
1
1
1
1
1
1
1
1
1
1
1
1
1
1
1
1
1
1
1
1
1
1
1
1
1
1
1
1
1
1
1
1
1
1
1
1
1
1
1
1
1
1
1
1
1
1
1
1
1
1
1
1
1
1
1
1
1
1
1
1
1
1
1
1
1
1
1
1
1
1
1
1
1
1
1
1
1
1
1
1
1
1
1
1
1
1
1
1
1
1
1
1
1
1
1
1
1
1
1
1
1
1
1
1
1
1
1
1
1
1
1
1
1
1
1
1
1
1
1
1
1
1
1
1
1
1
1
1
1
1
1
1
1
1
1
1
1
1
1
1
1
1
1
1
1
1
1
1
1
1
1
1
1
1
1
1
1
1
1
1
1
1
1
1
1
1
1
1
1
1
1
1
1
1
1
1
1
1
1
1
1
1
1
1
1
1
1
1
1
1
1
1
1
1
1
1
1
1
1
1
1
1
1
1
1
1
1
1
1
1
1
1
1
1
1
1
1
1
1
1
1
1
1
1
1
1
1
1
1
1
1
1
1
1
1
1
1
1
1
1
1
1
1
1
1
1
1
1
1
1
1
1
1
1
1
1
1
1
1
1
1
1
1
1
1
1
1
1
1
1
1
1
1
1
1
1
1
1
1
1
1
1
1
1
1
1
1
1
1
1
1
1
1
1
1
1
1
1
1
1
1
1
1
1
1
1
1
1
1
1
1
1
1
1
1
1
1
1
1
1
1
1
1
1
1
1
1
1
1
1
1
1
1
1
1
1
1
1
1
1
1
1
1
1
1
1
1
1
1
1
1
1
1
1
1
1
1
1
1
1
1
1
1
1
1
1
1
1
1
1
1
1
1
1
1
1
1
1
1
1
1
1
1
1
1
1
1
1
1
1
1
1
1
1
1
1
1
1
1
1
1
1
1
1
1
1
1
1
1
1
1
1
1
1
1
1
1
1
1
1
1
1
1
1
1
1
1
1
1
1
1
1
1
1
1
1
1
1
1
1
1
1
1
1
1
1
1
1
1
1
1
1
1
1
1
1
1
1
1
1
1
1
1
1
1
1
1
1
1
1
1
1
1
1
1
1
1
1
1
1
1
1
1
1
1
1
1
1
1
1
1
1
1
1
1
1
1
1
1
1
1
1
1
1
1
1
1
1
1
1
1
1
1
1
1
1
1
1
1
1
1
1
1
1
1
1
1
1
1
1
1
1
1
1
1
1
1
1
1
1
1
1
1
1
1
1
1
1
1
1
1
1
1
1
1
1
1
1
1
1
1
1
1
1
1
1
1
1
1
1
1
1
1
1
1
1
1
1
1
1
1
1
1
1
1
1
1
1
1
1
1
1
1
1
1
1
1
1
1
1
1
1
1
1
1
1
1
1
1
1
1
1
1
1
1
1
1
1
1
1
1
1
1
1
1
1
1
1
1
1
1
1
1
1
1
1
1
1
1
1
1
1
1
1
1
1
1
1
1
1
1
1
1
1
1
1
1
1
1
1
1
1
1
1
1
1
1
1
1
1
1
1
1
1
1
1
1
1
1
1
1
1
1
0.999999
0.999999
0.999999
0.999999
0.999999
0.999999
0.999999
0.999999
0.999999
0.999999
0.999999
0.999999
0.999999
0.999999
0.999999
0.999999
0.999999
0.999999
0.999999
0.999999
0.999998
0.999998
0.999998
0.999998
0.999998
0.999998
0.999998
0.999998
0.999997
0.999997
0.999997
0.999997
0.999997
0.999997
0.999997
0.999997
0.999997
0.999997
0.999997
0.999997
0.999997
0.999997
0.999997
0.999997
0.999997
0.999998
0.999998
0.999998
0.999998
0.999998
0.999998
0.999998
0.999998
0.999998
0.999998
0.999998
0.999998
0.999998
0.999998
0.999998
0.999998
0.999999
0.999999
0.999999
0.999999
0.999999
0.999999
0.999999
0.999999
0.999999
0.999999
0.999999
0.999999
0.999999
0.999999
0.999999
0.999999
0.999999
0.999998
0.999998
3.49123e-06
4.04224e-06
3.94367e-06
3.89782e-06
3.86209e-06
3.80258e-06
3.72889e-06
3.64285e-06
3.53133e-06
3.39117e-06
3.22143e-06
3.0415e-06
2.88156e-06
2.76193e-06
2.64571e-06
2.50422e-06
2.36741e-06
2.21521e-06
2.04683e-06
1.86294e-06
1.68914e-06
1.5162e-06
1.35944e-06
1.22605e-06
1.14045e-06
1.15124e-06
1.15878e-06
1.16437e-06
1.16565e-06
1.15337e-06
1.13271e-06
1.11071e-06
1.08263e-06
1.05154e-06
1.00687e-06
9.48236e-07
8.76415e-07
8.11032e-07
7.42171e-07
7.26027e-07
7.08915e-07
6.93246e-07
6.99162e-07
7.29807e-07
7.5894e-07
7.87649e-07
8.35773e-07
8.77216e-07
9.11915e-07
9.43905e-07
9.65939e-07
9.91029e-07
1.00754e-06
1.02961e-06
1.04586e-06
1.05957e-06
1.07704e-06
1.10192e-06
1.12654e-06
1.1624e-06
1.19145e-06
1.21359e-06
1.22772e-06
1.22875e-06
1.22274e-06
1.2562e-06
1.3612e-06
1.45695e-06
1.55378e-06
1.63386e-06
1.69204e-06
1.73382e-06
1.75237e-06
1.75739e-06
1.76494e-06
1.76186e-06
1.69809e-06
1.59076e-06
1.44534e-06
8.5883e-07
4.12857e-19
2.03518e-19
3.05442e-19
3.98845e-19
4.99351e-19
6.0413e-19
7.11838e-19
8.34779e-19
9.83224e-19
1.15246e-18
1.30961e-18
1.40001e-18
1.41811e-18
1.44956e-18
1.53364e-18
1.5955e-18
1.62661e-18
1.62494e-18
1.52411e-18
1.27302e-18
8.71804e-19
1.86391e-19
-7.55592e-28
-5.75476e-25
-2.15562e-22
-2.34782e-28
-6.3747e-28
-1.28812e-31
-2.0926e-32
-8.46087e-32
-1.30927e-31
-1.1471e-31
-3.12212e-31
-2.85854e-31
-1.6807e-32
-7.80967e-33
-1.84098e-32
-2.68105e-31
0
5.73989e-32
-8.0453e-74
-2.74665e-31
-1.25646e-32
-5.37552e-33
-3.64094e-34
-2.03786e-32
-3.59976e-32
-3.7111e-33
-1.67297e-32
-6.15095e-32
-7.74105e-32
-2.26831e-31
-2.57023e-31
-1.38398e-31
-1.17889e-30
-1.60332e-27
-4.23753e-43
-2.11191e-35
2.38139e-22
3.8566e-19
5.7189e-19
6.97549e-19
7.72498e-19
8.31113e-19
9.8122e-19
1.29934e-18
1.58121e-18
1.60091e-18
1.48208e-18
1.29762e-18
1.11584e-18
9.6355e-19
8.43345e-19
7.63668e-19
6.92769e-19
5.88234e-19
4.70074e-19
3.66788e-19
2.60709e-19
3.73722e-19
3.33772e-22
1.07779e-22
1.633e-22
2.15754e-22
2.74377e-22
2.68858e-22
2.833e-22
3.08825e-22
3.52616e-22
4.24984e-22
4.61502e-22
3.95946e-22
2.6981e-22
2.8746e-22
6.54755e-22
1.11125e-21
1.0528e-21
9.68768e-22
8.87428e-22
8.36613e-22
6.23264e-22
-1.41139e-22
-5.93674e-28
1.72203e-24
-1.68976e-22
-3.98334e-25
-5.91557e-25
-1.5525e-34
-1.87375e-35
-3.61481e-35
-8.75876e-36
8.4166e-40
8.4913e-38
3.27596e-36
1.02816e-34
2.54434e-33
5.38266e-32
7.6468e-31
9.43089e-31
8.68294e-31
5.48968e-31
2.01903e-32
-8.78548e-42
-3.64886e-49
-2.22107e-48
-1.49409e-55
-3.58419e-55
1.50418e-43
5.91561e-45
-7.9085e-36
-4.80514e-35
-2.7305e-34
-4.7646e-34
-3.60825e-34
-3.2065e-33
-5.90935e-31
3.43161e-22
7.16226e-22
4.4349e-22
7.92817e-22
1.10285e-21
1.29386e-21
1.23432e-21
1.16704e-21
1.06349e-21
1.66417e-22
4.5321e-22
6.67723e-22
7.3632e-22
7.24469e-22
5.88254e-22
3.9321e-22
3.37119e-22
3.52913e-22
3.60874e-22
3.51481e-22
2.76943e-22
2.1451e-22
1.51674e-22
2.89308e-22
7.46934e-24
1.2036e-25
1.727e-25
2.30746e-25
2.97859e-25
3.74406e-25
4.56807e-25
5.59557e-25
6.9337e-25
8.60923e-25
1.03947e-24
1.17476e-24
1.2486e-24
1.34039e-24
1.50337e-24
1.66689e-24
1.81667e-24
1.91839e-24
1.85958e-24
1.53474e-24
9.30448e-25
-3.50183e-25
-2.23141e-25
2.12466e-25
-4.95163e-25
-3.61671e-27
-3.54635e-27
-2.48247e-37
-7.62737e-39
1.14239e-40
1.66723e-38
8.95057e-37
4.04635e-35
1.54146e-33
4.78849e-32
1.17102e-30
2.34632e-29
3.28646e-28
6.24524e-28
6.74076e-28
4.50702e-28
3.36705e-29
1.67293e-32
9.97584e-35
5.60731e-37
2.77921e-39
1.2468e-41
1.10117e-43
3.01161e-45
4.97841e-61
0
-9.04607e-38
-6.77061e-37
-9.92905e-37
-1.32137e-35
-5.52418e-34
8.63785e-25
1.85412e-24
6.94482e-25
1.299e-24
4.17459e-24
1.34637e-23
1.86694e-23
1.86294e-23
4.72392e-24
3.15955e-24
2.47871e-23
4.60204e-23
5.79657e-23
5.22623e-23
4.24445e-23
3.39199e-23
2.73276e-23
2.27946e-23
2.07712e-23
1.94197e-23
1.61158e-23
1.27906e-23
8.89327e-24
8.46285e-24
1.20059e-26
7.3483e-27
2.73436e-28
3.67464e-28
4.8102e-28
6.15631e-28
7.75e-28
9.74172e-28
1.24483e-27
1.59678e-27
1.99544e-27
2.34079e-27
2.58815e-27
2.89089e-27
3.36347e-27
3.85209e-27
4.31746e-27
4.69147e-27
4.6953e-27
4.01839e-27
2.59759e-27
-4.93377e-28
-2.33209e-28
9.53518e-28
-1.38924e-27
-3.05595e-29
-1.96744e-29
1.99136e-57
7.42737e-40
7.48416e-38
4.41704e-36
2.29034e-34
1.02478e-32
3.85759e-31
1.18222e-29
2.8456e-28
5.51993e-27
7.52307e-26
1.66128e-25
1.82687e-25
1.25019e-25
1.08463e-26
6.02231e-30
4.02049e-32
2.61812e-34
1.55699e-36
8.58005e-39
4.82495e-41
3.35163e-43
3.01161e-45
0
-1.1711e-41
-9.64262e-40
-2.98244e-39
-6.3501e-38
-7.95096e-37
8.17996e-28
1.97519e-27
1.24266e-27
2.69773e-27
1.15553e-26
2.68416e-26
3.48406e-26
3.56277e-26
1.80045e-26
1.23901e-26
5.05277e-26
7.87043e-26
9.04485e-26
7.85594e-26
6.17885e-26
4.80981e-26
3.76471e-26
3.0779e-26
2.73861e-26
2.5092e-26
2.05472e-26
1.61532e-26
1.15118e-26
1.05074e-26
1.72649e-29
5.89538e-30
1.99774e-30
9.57883e-31
1.03013e-30
1.34016e-30
1.72253e-30
2.23215e-30
2.92845e-30
3.86664e-30
4.98615e-30
6.04627e-30
6.92015e-30
8.0015e-30
9.61997e-30
1.1352e-29
1.30636e-29
1.45561e-29
1.48825e-29
1.3001e-29
8.65224e-30
-5.33719e-31
9.98902e-31
2.44965e-30
-4.47633e-30
-2.69055e-31
-1.14659e-31
1.21693e-39
2.08485e-37
1.33333e-35
7.8055e-34
4.00782e-32
1.77128e-30
6.57099e-29
1.98049e-27
4.67803e-26
8.81985e-25
1.16779e-23
2.80878e-23
3.08795e-23
2.14016e-23
1.99834e-24
1.20002e-27
8.91707e-30
6.66097e-32
4.67022e-34
3.07712e-36
2.01594e-38
1.5134e-40
1.42796e-42
1.59678e-44
0
-1.57956e-42
-1.02096e-41
-3.47388e-40
-1.57958e-39
1.78563e-30
4.68197e-30
3.19698e-30
7.79627e-30
4.03935e-29
7.73643e-29
9.49333e-29
9.80622e-29
7.13777e-29
6.36016e-29
1.4059e-28
1.83111e-28
1.85617e-28
1.53545e-28
1.17695e-28
8.99291e-29
6.98529e-29
5.65181e-29
4.87208e-29
4.19073e-29
3.32958e-29
2.5699e-29
1.729e-29
1.79063e-29
4.29867e-32
1.62621e-32
1.62313e-32
5.97903e-33
3.9808e-33
3.88598e-33
4.75498e-33
6.30468e-33
8.52677e-33
1.15946e-32
1.53961e-32
1.92789e-32
2.28135e-32
2.72759e-32
3.38673e-32
4.11845e-32
4.86976e-32
5.56266e-32
5.80864e-32
5.16582e-32
3.49859e-32
3.18362e-33
1.20221e-32
9.10341e-33
-1.7107e-32
-2.56913e-33
-7.38827e-34
1.62576e-37
2.84453e-35
1.78998e-33
1.03834e-31
5.26611e-30
2.29276e-28
8.35845e-27
2.47006e-25
5.70825e-24
1.04712e-22
1.34593e-21
3.38723e-21
3.69067e-21
2.58266e-21
2.52312e-22
1.48456e-25
1.33859e-27
1.14736e-29
9.47207e-32
7.45645e-34
5.73459e-36
4.75772e-38
4.71586e-40
5.48961e-42
7.46655e-44
3.16882e-45
-2.24446e-44
-2.16491e-42
-4.43141e-42
5.03908e-33
1.42226e-32
1.04597e-32
3.18918e-32
1.54967e-31
2.70107e-31
3.21462e-31
3.30408e-31
2.76228e-31
2.70717e-31
4.60295e-31
5.51873e-31
5.22923e-31
4.19206e-31
3.14562e-31
2.36004e-31
1.80577e-31
1.44289e-31
1.21959e-31
1.0209e-31
7.99464e-32
6.1256e-32
4.08839e-32
4.2791e-32
1.27587e-34
5.84441e-35
6.94955e-35
5.07331e-35
1.97978e-35
1.86068e-35
1.9017e-35
2.1357e-35
2.94703e-35
4.13095e-35
5.6637e-35
7.31761e-35
8.94757e-35
1.10628e-34
1.41943e-34
1.78074e-34
2.16702e-34
2.54149e-34
2.71517e-34
2.46113e-34
1.69527e-34
3.97291e-35
5.3662e-35
4.06198e-35
-7.81309e-35
-2.60592e-35
0
4.67477e-35
3.19554e-33
1.91644e-31
1.08816e-29
5.44009e-28
2.3279e-26
8.32044e-25
2.40508e-23
5.42472e-22
9.6859e-21
1.20821e-19
3.09437e-19
3.3255e-19
2.34851e-19
2.36991e-20
1.27579e-23
1.46357e-25
1.46831e-27
1.43372e-29
1.35744e-31
1.24328e-33
1.16549e-35
1.22985e-37
1.50319e-39
5.41913e-41
4.92963e-42
6.63427e-44
0
-1.20681e-44
1.78284e-35
5.3581e-35
4.90204e-35
1.98925e-34
6.85746e-34
1.12154e-33
1.29895e-33
1.32006e-33
1.17694e-33
1.18304e-33
1.74807e-33
1.98118e-33
1.78007e-33
1.38431e-33
1.01529e-33
7.46184e-34
5.60526e-34
4.40887e-34
3.65617e-34
2.99413e-34
2.31293e-34
1.75801e-34
1.1674e-34
1.21608e-34
4.32112e-37
2.21361e-37
2.83578e-37
2.57004e-37
1.86528e-37
9.35372e-38
9.99465e-38
1.13983e-37
1.3459e-37
1.75868e-37
2.41168e-37
3.22048e-37
4.0718e-37
5.2067e-37
6.90909e-37
8.95636e-37
1.1242e-36
1.35701e-36
1.48751e-36
1.37863e-36
9.72846e-37
3.88859e-37
7.51618e-37
1.38422e-36
3.87578e-36
7.73014e-37
8.81326e-35
5.17842e-33
2.96009e-31
1.6691e-29
9.18816e-28
4.5254e-26
1.9002e-24
6.64836e-23
1.8768e-21
4.12483e-20
7.17106e-19
8.68215e-18
2.22976e-17
2.35482e-17
1.67724e-17
1.73262e-18
8.64578e-22
1.16653e-23
1.46484e-25
1.70562e-27
1.96423e-29
2.18514e-31
2.38337e-33
2.71771e-35
3.5005e-37
6.68192e-38
1.53319e-39
2.14658e-41
2.6948e-43
1.09603e-42
7.75112e-38
2.45148e-37
2.6736e-37
1.24614e-36
3.51712e-36
5.47607e-36
6.15376e-36
6.16395e-36
5.6718e-36
5.67718e-36
7.64171e-36
8.28383e-36
7.1019e-36
5.35749e-36
3.83401e-36
2.75483e-36
2.02756e-36
1.56645e-36
1.27419e-36
1.02255e-36
7.79121e-37
5.8694e-37
3.87506e-37
3.99877e-37
1.6502e-39
9.10909e-40
1.22279e-39
1.22887e-39
1.10391e-39
8.28262e-40
5.34026e-40
6.39576e-40
8.1738e-40
1.09491e-39
1.45025e-39
1.74629e-39
2.10651e-39
2.7906e-39
3.83594e-39
5.14664e-39
6.67676e-39
8.31916e-39
9.41718e-39
9.23534e-39
1.73117e-38
3.86414e-38
4.34199e-37
9.24575e-37
2.96218e-36
1.10167e-34
6.94598e-33
4.08251e-31
2.25911e-29
1.19305e-27
6.34365e-26
3.06508e-24
1.26225e-22
4.31976e-21
1.19014e-19
2.54684e-18
4.30804e-17
5.09918e-16
1.36957e-15
1.42192e-15
1.02322e-15
1.02552e-16
4.6218e-20
7.41844e-22
1.16653e-23
1.63812e-25
2.33139e-27
3.23707e-29
4.29846e-31
5.47969e-33
7.75062e-35
2.64441e-35
6.45259e-37
7.80999e-39
9.72762e-41
4.37469e-40
9.58099e-40
1.35414e-39
1.92858e-39
8.41283e-39
2.08049e-38
3.09651e-38
3.37296e-38
3.32177e-38
3.06772e-38
3.03912e-38
3.79937e-38
3.96056e-38
3.25106e-38
2.37748e-38
1.65765e-38
1.16267e-38
8.37151e-39
6.34322e-39
5.05967e-39
3.98266e-39
2.99283e-39
2.23346e-39
1.4658e-39
1.49332e-39
7.01309e-42
4.09903e-42
5.68349e-42
6.0891e-42
6.09101e-42
5.62531e-42
4.13997e-42
3.67028e-42
4.95886e-42
7.01712e-42
9.8695e-42
1.25692e-41
1.44583e-41
1.7951e-41
2.44279e-41
3.33078e-41
4.4827e-41
5.91283e-41
1.2938e-40
3.32931e-40
1.07143e-38
2.1609e-38
5.73116e-38
1.61789e-36
1.14393e-34
7.64634e-33
4.74802e-31
2.74277e-29
1.47507e-27
7.43825e-26
3.64786e-24
1.69321e-22
6.84672e-21
2.29224e-19
6.16072e-18
1.28613e-16
2.19776e-15
2.72516e-14
5.15367e-14
5.2397e-14
3.92795e-14
8.6206e-15
1.56847e-18
2.96825e-20
6.09517e-22
1.2742e-23
2.29155e-25
4.14032e-27
7.30867e-29
1.24376e-30
2.29451e-31
5.43436e-33
8.36382e-35
1.33673e-36
1.9231e-38
1.2319e-39
8.24972e-40
1.10188e-40
1.86232e-41
6.21277e-41
1.40669e-40
1.99908e-40
2.11519e-40
2.03837e-40
1.84001e-40
1.81825e-40
2.12199e-40
2.13185e-40
1.67808e-40
1.18848e-40
8.06198e-41
5.51241e-41
3.8781e-41
2.87862e-41
2.25082e-41
1.73856e-41
1.28832e-41
9.52059e-42
6.20986e-42
6.23246e-42
3.27591e-44
2.00751e-44
2.85307e-44
3.19889e-44
3.42791e-44
3.53847e-44
3.2622e-44
2.48167e-44
3.12092e-44
4.62105e-44
6.82389e-44
9.26277e-44
1.15189e-43
1.48742e-43
2.08786e-43
2.85702e-43
4.99711e-43
1.62081e-42
6.07205e-41
1.61095e-40
6.12936e-40
1.37858e-38
1.0737e-36
8.57505e-35
6.28459e-33
4.23715e-31
2.62922e-29
1.50186e-27
7.89846e-26
3.82358e-24
1.72651e-22
7.64592e-21
3.01543e-19
9.90482e-18
2.59514e-16
5.43848e-15
1.04238e-13
7.23099e-13
6.093e-13
5.98473e-13
4.1919e-13
6.936e-14
2.90994e-17
5.88475e-19
1.25159e-20
2.98733e-22
7.65809e-24
1.97476e-25
5.07062e-27
2.87793e-28
1.08631e-29
2.22412e-31
3.98682e-33
6.50481e-35
9.90494e-37
1.407e-38
2.19185e-40
2.37053e-41
1.40048e-41
9.1763e-43
7.8701e-43
1.44252e-42
1.50228e-42
1.40062e-42
1.22347e-42
1.20364e-42
1.31541e-42
1.27589e-42
9.6231e-43
6.59589e-43
4.34723e-43
2.89415e-43
1.98727e-43
1.44364e-43
1.1061e-43
8.38524e-44
6.12635e-44
4.48186e-44
2.9047e-44
2.86779e-44
1.6635e-46
1.06244e-46
1.5408e-46
1.79005e-46
2.01738e-46
2.24146e-46
2.34213e-46
2.22905e-46
2.23143e-46
3.21751e-46
4.9137e-46
7.04286e-46
9.33044e-46
1.27468e-45
1.90041e-45
5.31605e-45
1.60638e-43
7.20359e-43
2.92638e-42
6.30231e-41
5.61686e-39
4.92695e-37
4.38451e-35
3.64153e-33
2.75325e-31
1.89612e-29
1.1889e-27
6.78247e-26
3.517e-24
1.65564e-22
7.09963e-21
2.84417e-19
1.07257e-17
3.46334e-16
9.27348e-15
2.04221e-13
1.76525e-12
3.11311e-12
1.51213e-11
1.41711e-11
7.87106e-12
3.59764e-14
6.54314e-16
1.39195e-17
2.67399e-19
5.26533e-21
1.13101e-22
2.87024e-24
8.56069e-26
7.63303e-27
2.64835e-28
6.53761e-30
1.08263e-31
1.68698e-33
2.55633e-35
3.56653e-37
4.54218e-39
5.45154e-41
1.13273e-42
3.82581e-43
2.40271e-43
1.42899e-44
1.00075e-44
1.05462e-44
8.98836e-45
8.72568e-45
8.97491e-45
8.37641e-45
6.05893e-45
4.01478e-45
2.5676e-45
1.66249e-45
1.1131e-45
7.90689e-46
5.93409e-46
4.41525e-46
3.17991e-46
2.30238e-46
1.48248e-46
1.43804e-46
9.09401e-49
6.03061e-49
8.89995e-49
1.06507e-48
1.2499e-48
1.46762e-48
1.668e-48
1.82193e-48
1.92273e-48
2.52948e-48
3.8902e-48
5.61809e-48
7.80304e-48
1.38756e-47
1.71889e-46
2.49287e-45
8.01352e-45
1.2885e-43
1.51608e-41
1.82091e-39
1.95465e-37
1.77274e-35
1.46397e-33
1.12332e-31
8.98203e-30
6.44205e-28
4.15166e-26
2.40188e-24
1.24553e-22
5.77779e-21
2.3913e-19
8.89692e-18
3.08183e-16
1.00226e-14
2.90481e-13
3.21364e-12
8.475e-12
5.53584e-11
2.82596e-10
2.49282e-10
1.82859e-10
8.99833e-13
2.02649e-14
5.63745e-16
1.39195e-17
2.67399e-19
5.26533e-21
1.13101e-22
2.80117e-23
1.2673e-24
3.34774e-26
6.80175e-28
1.18664e-29
1.93256e-31
2.87907e-33
3.88492e-35
4.74775e-37
5.25083e-39
5.20973e-41
5.99135e-43
1.50954e-44
3.31861e-45
1.74167e-45
1.01278e-46
6.01449e-47
6.81655e-47
6.72117e-47
5.94481e-47
4.1441e-47
2.65213e-47
1.64379e-47
1.03408e-47
6.74513e-48
4.68185e-48
3.44041e-48
2.51227e-48
1.78328e-48
1.27761e-48
8.17151e-49
7.78104e-49
5.30603e-51
3.64463e-51
5.46359e-51
6.71013e-51
8.15137e-51
1.00144e-50
1.21294e-50
1.45365e-50
1.74972e-50
2.23954e-50
3.39082e-50
4.75161e-50
1.15386e-49
6.64613e-48
1.61697e-47
1.47772e-46
1.82374e-44
2.47789e-42
3.08276e-40
3.49551e-38
3.64332e-36
3.88558e-34
3.69782e-32
3.00173e-30
2.12223e-28
1.52825e-26
1.04109e-24
6.25211e-23
3.3108e-21
1.54305e-19
6.30901e-18
2.25617e-16
7.34094e-15
2.28005e-13
3.4037e-12
1.85452e-11
1.27627e-10
1.07064e-09
5.35076e-09
4.52573e-09
3.43573e-09
1.86239e-11
5.21861e-13
1.95686e-14
5.63746e-16
1.41134e-17
3.50654e-19
8.32791e-20
4.8378e-21
1.68512e-22
4.00049e-24
7.69352e-26
1.35646e-27
2.1845e-29
3.14651e-31
4.0396e-33
4.6172e-35
4.6679e-37
4.6653e-39
5.2984e-41
5.79544e-43
5.80614e-45
1.02672e-46
1.94269e-47
1.12042e-47
6.0832e-49
5.21309e-49
4.52757e-49
3.05198e-49
1.88382e-49
1.13023e-49
6.9017e-50
4.38247e-50
2.97048e-50
2.13654e-50
1.531e-50
1.0709e-50
7.59043e-51
4.82155e-51
4.50391e-51
3.27857e-53
2.32905e-53
3.54219e-53
4.45374e-53
5.57967e-53
7.12978e-53
9.10118e-53
1.17118e-52
1.5476e-52
2.17276e-52
2.87637e-52
1.11297e-51
4.09257e-50
1.70479e-49
7.95219e-48
1.37224e-45
2.20991e-43
3.23425e-41
4.30335e-39
5.20429e-37
5.71518e-35
5.68957e-33
5.12403e-31
4.56313e-29
3.93499e-27
2.62786e-25
1.7295e-23
1.11298e-21
6.17968e-20
2.96376e-18
1.22888e-16
4.5829e-15
1.29893e-13
1.72465e-12
1.44266e-11
1.83192e-10
1.60354e-08
4.79528e-08
7.9613e-08
6.45933e-08
5.09403e-08
3.10763e-10
1.01635e-11
5.21861e-13
1.95686e-14
6.69615e-16
1.64918e-16
1.22784e-17
5.40187e-19
1.6462e-20
3.57919e-22
6.73438e-24
1.17121e-25
1.80455e-27
2.42733e-29
2.83353e-31
3.40083e-33
4.50844e-35
5.26419e-37
5.34702e-39
4.88362e-41
4.0617e-43
3.08174e-45
2.19272e-47
4.34346e-49
1.01697e-49
1.91182e-50
3.22717e-51
2.36259e-51
1.42815e-51
8.27862e-52
4.90254e-52
3.02852e-52
2.00348e-52
1.41003e-52
9.91411e-53
6.83255e-53
4.79048e-53
3.02178e-53
2.76731e-53
2.13025e-55
1.56359e-55
2.41053e-55
3.09774e-55
3.9925e-55
5.28641e-55
7.06534e-55
9.64834e-55
1.36532e-54
1.82969e-54
3.37678e-54
2.01165e-52
1.17317e-51
1.36552e-49
3.00549e-47
6.16838e-45
1.14446e-42
1.86182e-40
2.76029e-38
3.74765e-36
4.57144e-34
4.66619e-32
4.38813e-30
3.79185e-28
3.07213e-26
3.12028e-24
2.17247e-22
1.38116e-20
7.66557e-19
3.69409e-17
1.58453e-15
5.42359e-14
9.11987e-13
8.67475e-12
1.00816e-10
1.41426e-09
1.46511e-07
1.0879e-06
9.11946e-07
7.08461e-07
5.80688e-07
3.92425e-09
1.12363e-10
7.24224e-12
5.22955e-13
6.86883e-14
1.05571e-14
8.43403e-16
3.70026e-17
9.3885e-19
1.83266e-20
3.3902e-22
5.58164e-24
7.83074e-26
9.21651e-28
1.19147e-29
1.52058e-31
1.76226e-33
1.84384e-35
1.74824e-37
1.50537e-39
1.17877e-41
8.39959e-44
5.44561e-46
3.21919e-48
1.9085e-50
9.3433e-52
3.70596e-52
2.07411e-53
1.1046e-53
6.40081e-54
3.6797e-54
2.20984e-54
1.42618e-54
9.819e-55
6.77346e-55
4.59885e-55
3.18918e-55
1.99757e-55
1.79231e-55
1.44607e-57
1.09609e-57
1.71186e-57
2.24582e-57
2.97278e-57
4.0687e-57
5.6708e-57
8.14434e-57
1.14866e-56
1.8022e-56
2.18435e-55
1.86921e-54
3.96105e-52
9.61053e-50
2.16546e-47
4.43837e-45
8.20139e-43
1.41928e-40
2.3219e-38
3.37567e-36
4.46168e-34
6.18735e-32
7.37053e-30
7.66293e-28
7.04007e-26
6.2474e-24
6.89248e-22
5.11533e-20
2.89661e-18
1.42537e-16
6.34999e-15
1.83118e-13
1.9468e-12
9.12547e-12
1.34841e-10
1.9803e-09
1.18482e-07
4.94644e-06
7.78169e-06
5.99896e-06
5.06206e-06
4.06866e-08
8.00145e-10
2.77768e-11
2.78624e-12
6.1881e-13
3.72796e-13
1.01573e-13
5.13967e-15
6.42312e-17
9.44136e-19
1.66307e-20
2.48532e-22
3.04637e-24
3.46263e-26
4.64405e-28
5.63048e-30
6.10402e-32
5.96432e-34
5.2681e-36
4.21689e-38
3.06441e-40
2.02373e-42
1.2149e-44
6.62694e-47
3.27998e-49
1.49552e-51
1.35426e-53
1.83472e-54
1.26825e-55
5.00154e-56
2.88509e-56
1.69132e-56
1.06448e-56
7.168e-57
4.85103e-57
3.24453e-57
2.2253e-57
1.38399e-57
1.21596e-57
1.01944e-59
7.97747e-60
1.26161e-59
1.68828e-59
2.2925e-59
3.23783e-59
4.69193e-59
7.00001e-59
1.02414e-58
6.17513e-59
3.66977e-57
1.00234e-55
2.82336e-53
8.22633e-51
2.16743e-48
5.17199e-46
1.11981e-43
2.30254e-41
7.25159e-39
1.5751e-36
2.73101e-34
3.51183e-32
4.05744e-30
4.21885e-28
3.96003e-26
3.39308e-24
2.72205e-22
3.12112e-20
2.45431e-18
1.59671e-16
8.82649e-15
2.37545e-13
1.72431e-12
7.15311e-12
1.04682e-10
1.79604e-09
1.87115e-07
1.10589e-05
3.24332e-05
4.25538e-05
3.7719e-05
3.61725e-07
9.96018e-09
5.71909e-10
2.77768e-11
3.82578e-12
2.55599e-12
5.79092e-13
3.69048e-14
8.5619e-16
1.44379e-17
2.42182e-19
3.63752e-21
4.76502e-23
5.48545e-25
5.6321e-27
5.16266e-29
4.35134e-31
3.36368e-33
2.64068e-35
1.97799e-37
1.36697e-39
8.70432e-42
5.09954e-44
2.74208e-46
1.35188e-48
6.13747e-51
1.97415e-53
1.45855e-55
8.47782e-57
5.21036e-58
2.29503e-58
1.34476e-58
8.2799e-59
5.45267e-59
3.62018e-59
2.38518e-59
1.61793e-59
9.99075e-60
8.59179e-60
7.42193e-62
5.99573e-62
9.59829e-62
1.30935e-61
1.82231e-61
2.65275e-61
3.98713e-61
6.10708e-61
8.82026e-61
4.77877e-61
4.07523e-59
3.66977e-57
1.31444e-54
4.40256e-52
1.33432e-49
3.66921e-47
9.16923e-45
2.08329e-42
4.30378e-40
8.07838e-38
1.37519e-35
2.11711e-33
2.93679e-31
3.65417e-29
4.05665e-27
3.99309e-25
4.74883e-23
1.06728e-20
1.85236e-18
1.8515e-16
1.2399e-14
2.70283e-13
1.19173e-12
2.65453e-12
4.28393e-11
7.40906e-10
9.1401e-07
0.000208619
0.000164526
0.000281612
0.000242201
2.92287e-06
1.61219e-06
4.44387e-09
2.05782e-10
1.75104e-11
3.61261e-12
1.43441e-12
1.6205e-13
5.2733e-15
1.05951e-16
1.95691e-18
3.36593e-20
5.14017e-22
6.90141e-24
8.06595e-26
8.34917e-28
7.76963e-30
6.52696e-32
4.95383e-34
3.41258e-36
2.1392e-38
1.22172e-40
6.363e-43
3.01439e-45
1.29676e-47
5.05889e-50
1.77917e-52
5.44879e-55
1.80432e-57
3.87856e-59
2.01797e-60
1.08542e-60
6.66642e-61
4.29801e-61
2.79955e-61
1.81706e-61
1.21906e-61
7.47402e-62
6.28863e-62
5.55104e-64
4.62977e-64
7.50038e-64
1.04251e-63
1.48614e-63
2.22764e-63
3.46858e-63
5.48895e-63
5.28291e-63
3.6104e-63
4.7474e-61
9.49243e-59
4.11671e-56
1.63207e-53
5.87262e-51
1.92388e-48
5.74962e-46
1.56895e-43
3.90925e-41
8.88553e-39
1.83885e-36
3.45501e-34
5.87184e-32
8.98523e-30
1.23128e-27
1.50158e-25
1.61819e-23
7.82426e-21
2.26754e-18
2.83991e-16
2.46224e-14
4.36289e-13
9.49225e-13
1.65401e-13
3.4228e-12
9.02507e-11
9.02733e-07
0.00092678
0.0016106
0.00183031
0.00158163
0.000588405
1.4652e-05
2.09033e-07
6.26447e-11
1.09321e-11
5.78889e-12
2.36342e-12
3.0062e-13
1.03571e-14
1.94254e-16
3.54171e-18
5.97412e-20
8.80831e-22
1.14495e-23
1.34718e-25
1.42226e-27
1.34085e-29
1.13468e-31
8.67884e-34
6.003e-36
3.76219e-38
2.14064e-40
1.10716e-42
5.2149e-45
2.23559e-47
8.70365e-50
3.07133e-52
9.78491e-55
2.67627e-57
3.67687e-60
3.49415e-62
9.28052e-63
5.48203e-63
3.49125e-63
2.23177e-63
1.42713e-63
9.47046e-64
5.76485e-64
4.74434e-64
4.24405e-66
3.65516e-66
5.99104e-66
8.48127e-66
1.23772e-65
1.90916e-65
3.07649e-65
4.93009e-65
3.25806e-65
2.44945e-65
4.51705e-64
2.13937e-61
1.22132e-58
6.54991e-56
3.30006e-53
1.56277e-50
6.95672e-48
2.91298e-45
1.15004e-42
3.41812e-40
9.13562e-38
2.23587e-35
4.99416e-33
1.01417e-30
1.86361e-28
3.07087e-26
4.51642e-24
1.36444e-21
2.06818e-18
3.62954e-16
3.98106e-14
6.66054e-13
1.55574e-12
6.47473e-14
1.34326e-13
3.41564e-12
2.92876e-10
0.00130647
0.230151
0.125099
0.126261
0.223141
1.26392e-05
1.74104e-12
1.71863e-12
3.32688e-11
1.24399e-11
3.10027e-12
3.13249e-13
1.00254e-14
1.88175e-16
3.5004e-18
5.9428e-20
8.72594e-22
1.11273e-23
1.23549e-25
1.20987e-27
1.05567e-29
8.24588e-32
5.78705e-34
3.66715e-36
2.1034e-38
1.09455e-40
5.18385e-43
2.22981e-45
8.71489e-48
3.09649e-50
9.98548e-53
2.91472e-55
7.63168e-58
1.35536e-60
1.73745e-63
8.54673e-65
4.63409e-65
2.90587e-65
1.82503e-65
1.15001e-65
7.54958e-66
4.56288e-66
3.67186e-66
3.30134e-68
2.9368e-68
4.86908e-68
7.01803e-68
1.04798e-67
1.66247e-67
2.77076e-67
4.55176e-67
3.9941e-67
2.26177e-67
1.99256e-66
4.51705e-64
2.13937e-61
1.22132e-58
6.12574e-56
2.59746e-53
1.01509e-50
3.59405e-48
1.16751e-45
3.57108e-43
1.04196e-40
2.9861e-38
8.91089e-36
3.0296e-33
1.25203e-30
6.48183e-28
2.66648e-25
5.84135e-23
7.7203e-19
2.80754e-16
2.89664e-14
5.47834e-13
1.51459e-12
5.54397e-14
2.59595e-15
1.46987e-13
1.11582e-10
0.00167541
0.481199
0.481665
0.481665
0.480923
2.19523e-05
1.71863e-12
1.71863e-12
3.19942e-11
1.32457e-11
2.94507e-12
2.84323e-13
8.65711e-15
1.47879e-16
2.56149e-18
4.05628e-20
5.49227e-22
6.40805e-24
6.50973e-26
5.82607e-28
4.62815e-30
3.28083e-32
2.08103e-34
1.18728e-36
6.11881e-39
2.85442e-41
1.20586e-43
4.63486e-46
1.61994e-48
5.14635e-51
1.48544e-53
3.8844e-56
9.177e-59
1.97411e-61
2.59354e-64
1.11318e-66
4.04448e-67
2.46216e-67
1.52372e-67
9.46445e-68
6.14772e-68
3.68947e-68
2.90229e-68
2.60108e-70
2.39078e-70
4.00859e-70
5.88063e-70
8.98142e-70
1.46422e-69
2.52175e-69
4.43629e-69
6.45707e-69
2.15402e-69
1.63253e-68
1.99256e-66
5.49676e-64
2.80533e-61
1.35219e-58
6.12704e-56
2.59746e-53
1.01509e-50
3.59405e-48
1.16751e-45
3.57108e-43
1.04196e-40
2.9861e-38
8.91089e-36
3.0296e-33
1.25203e-30
6.48183e-28
4.21484e-25
1.63078e-19
2.92719e-16
1.89541e-14
2.43365e-13
7.79682e-13
1.54368e-13
1.89461e-15
-4.37822e-14
6.09514e-11
0.0019967
0.481824
0.481333
0.481173
0.481505
0.000244556
1.72046e-12
1.71858e-12
2.40217e-11
1.2598e-11
2.54193e-12
2.01557e-13
5.79335e-15
9.87986e-17
1.58325e-18
2.30806e-20
2.8972e-22
3.13631e-24
2.96233e-26
2.46289e-28
1.81463e-30
1.19203e-32
7.00915e-35
3.70503e-37
1.76753e-39
7.62773e-42
2.97315e-44
1.04681e-46
3.33894e-49
9.65385e-52
2.51935e-54
5.92643e-57
1.25128e-59
2.38609e-62
3.93405e-65
4.4976e-68
3.63095e-69
2.11898e-69
1.29298e-69
7.92044e-70
5.0919e-70
3.03468e-70
2.33291e-70
2.06686e-72
1.96359e-72
3.32878e-72
4.96858e-72
7.75774e-72
1.29898e-71
2.31235e-71
4.28982e-71
7.64957e-71
3.87272e-71
1.44486e-70
1.63253e-68
3.69107e-66
1.92606e-63
9.59499e-61
4.5392e-58
2.03849e-55
8.53653e-53
3.21769e-50
1.09877e-47
3.51353e-45
1.06219e-42
3.17993e-40
9.20618e-38
2.7243e-35
8.32268e-33
2.30054e-30
8.52631e-28
2.56899e-19
2.44563e-16
1.29095e-14
7.63201e-14
1.27915e-13
1.01104e-13
1.66407e-15
-2.77865e-13
6.66157e-12
0.00209171
0.480613
0.480841
0.480836
0.480386
0.000527027
1.76169e-12
1.78995e-12
4.36814e-11
1.87207e-11
3.00266e-12
1.32103e-13
2.99699e-15
5.35719e-17
8.42832e-19
1.14889e-20
1.33928e-22
1.34458e-24
1.17434e-26
8.99861e-29
6.09106e-31
3.6661e-33
1.97519e-35
9.56847e-38
4.18096e-40
1.65307e-42
5.92242e-45
1.91723e-47
5.61673e-50
1.48788e-52
3.55125e-55
7.61071e-58
1.46104e-60
2.50322e-63
3.89226e-66
4.24427e-69
3.47769e-71
1.85352e-71
1.11028e-71
6.71216e-72
4.27213e-72
2.5289e-72
1.89933e-72
1.64966e-74
1.62039e-74
2.7768e-74
4.21546e-74
6.72537e-74
1.15589e-73
2.12476e-73
4.10192e-73
8.02505e-73
7.82531e-73
1.38268e-72
1.44486e-70
2.79498e-68
1.49769e-65
7.85122e-63
4.03942e-60
2.00093e-57
9.37287e-55
3.95585e-52
1.5124e-49
5.24328e-46
3.81435e-43
2.24173e-40
5.02895e-38
5.52452e-36
6.39603e-34
1.94338e-31
2.81215e-26
1.28822e-19
1.47856e-16
7.31625e-15
3.2709e-14
1.15824e-14
2.1002e-14
6.19656e-16
-1.54549e-13
5.18238e-12
0.00170832
0.322705
0.410803
0.410181
0.319629
0.000648981
2.04415e-12
2.28933e-12
6.02837e-11
2.98875e-11
3.20149e-12
8.99391e-14
1.58542e-15
2.67345e-17
3.92988e-19
4.87298e-21
5.112e-23
4.60084e-25
3.5916e-27
2.45336e-29
1.4798e-31
7.94386e-34
3.80993e-36
1.64202e-38
6.39964e-41
2.25924e-43
7.23554e-46
2.10159e-48
5.55053e-51
1.33053e-53
2.89301e-56
5.66311e-59
9.94759e-62
1.56558e-64
2.20212e-67
2.6449e-70
4.58661e-73
1.63793e-73
9.60915e-74
5.73741e-74
3.61671e-74
2.12688e-74
1.56018e-74
1.31733e-76
1.33826e-76
2.31764e-76
3.57703e-76
5.82805e-76
1.02742e-75
1.94735e-75
3.90264e-75
8.17161e-75
1.29791e-74
1.68814e-74
1.38268e-72
2.6932e-70
2.11942e-66
4.02231e-63
1.91037e-60
1.44276e-57
1.17213e-54
6.43721e-52
3.05846e-49
1.83951e-46
1.73235e-43
2.12553e-40
7.43896e-37
6.13489e-34
8.43005e-31
5.32645e-28
6.04082e-25
3.05074e-20
6.96135e-17
3.58604e-15
1.75511e-14
5.76776e-15
2.79788e-15
2.10447e-16
-4.5769e-15
4.10233e-08
0.000865432
2.35152e-08
0.0178047
0.0175501
5.12329e-08
0.000646061
2.55384e-12
2.7814e-12
5.93963e-11
2.80478e-11
2.65182e-12
5.75856e-14
9.32364e-16
1.40224e-17
1.86455e-19
2.12332e-21
2.05009e-23