/*--------------------------------*- C++ -*----------------------------------*\
| =========                 |                                                 |
| \\      /  F ield         | OpenFOAM: The Open Source CFD Toolbox           |
|  \\    /   O peration     | Version:  2412                                  |
|   \\  /    A nd           | Website:  www.openfoam.com                      |
|    \\/     M anipulation  |                                                 |
\*---------------------------------------------------------------------------*/
FoamFile
{
    version     2.0;
    format      ascii;
    arch        "LSB;label=32;scalar=64";
    class       volVectorField;
    location    "4.75";
    object      U;
}
// * * * * * * * * * * * * * * * * * * * * * * * * * * * * * * * * * * * * * //

dimensions      [0 1 -1 0 0 0 0];

internalField   nonuniform List<vector> 
6400
(
(0.000891785 -0.000966002 0)
(0.0031004 -0.00108817 0)
(0.00580121 -0.00108731 0)
(0.00836513 -0.00101103 0)
(0.0106794 -0.000887829 0)
(0.012651 -0.000749928 0)
(0.0142648 -0.000606416 0)
(0.0155121 -0.000470794 0)
(0.0164308 -0.00033917 0)
(0.0170657 -0.000234201 0)
(0.0174494 -0.00015261 0)
(0.0176542 -0.000101187 0)
(0.0177513 -7.68396e-05 0)
(0.0177864 -6.87574e-05 0)
(0.0178122 -8.26198e-05 0)
(0.0178815 -0.000112972 0)
(0.0180161 -0.000151091 0)
(0.0182358 -0.000198774 0)
(0.0185596 -0.000249204 0)
(0.0189886 -0.000294104 0)
(0.0195077 -0.000331083 0)
(0.020091 -0.000353441 0)
(0.0207272 -0.000351622 0)
(0.021342 -0.000343684 0)
(0.0218862 -0.000299048 0)
(0.022353 -0.000239515 0)
(0.0226969 -0.000160282 0)
(0.0228525 -6.082e-05 0)
(0.0227428 6.56221e-05 0)
(0.0223414 0.000216561 0)
(0.0216332 0.000384869 0)
(0.0205946 0.000560485 0)
(0.0192097 0.000737977 0)
(0.0174898 0.000909641 0)
(0.0154528 0.00106642 0)
(0.0131285 0.00120786 0)
(0.0105546 0.00132387 0)
(0.00777738 0.00141753 0)
(0.00485281 0.00148235 0)
(0.00183456 0.00151683 0)
(-0.00122677 0.00152312 0)
(-0.00427169 0.00150039 0)
(-0.00724321 0.00144975 0)
(-0.0100862 0.00136784 0)
(-0.0127485 0.0012585 0)
(-0.0151785 0.00112853 0)
(-0.0173325 0.000976348 0)
(-0.0191783 0.000806165 0)
(-0.0206878 0.000631139 0)
(-0.0218515 0.000453047 0)
(-0.0226756 0.000282406 0)
(-0.0231762 0.000127043 0)
(-0.0233756 -9.86436e-06 0)
(-0.0233099 -0.000124277 0)
(-0.0230461 -0.000208887 0)
(-0.022636 -0.00027298 0)
(-0.0221143 -0.000319083 0)
(-0.0215293 -0.000342567 0)
(-0.0209284 -0.000344972 0)
(-0.0203524 -0.000327249 0)
(-0.0198405 -0.00029324 0)
(-0.0194212 -0.00024804 0)
(-0.0191024 -0.000199679 0)
(-0.0188845 -0.000150068 0)
(-0.0187538 -0.000109341 0)
(-0.0186907 -8.27988e-05 0)
(-0.0186695 -7.14895e-05 0)
(-0.0186439 -7.50043e-05 0)
(-0.018533 -9.91839e-05 0)
(-0.0183073 -0.000170156 0)
(-0.0179097 -0.000254491 0)
(-0.0172442 -0.000364856 0)
(-0.0162754 -0.000489046 0)
(-0.014957 -0.000634691 0)
(-0.0132629 -0.000787264 0)
(-0.0111926 -0.000928031 0)
(-0.00876343 -0.00105092 0)
(-0.00607842 -0.00112841 0)
(-0.0032629 -0.00111962 0)
(-0.000938273 -0.00100532 0)
(0.000876615 -0.00304725 0)
(0.00350125 -0.00389473 0)
(0.0070425 -0.00419845 0)
(0.010438 -0.00393067 0)
(0.0135139 -0.00342743 0)
(0.0161342 -0.00285593 0)
(0.0182724 -0.00227266 0)
(0.0199352 -0.00170595 0)
(0.0211565 -0.00118062 0)
(0.0219851 -0.000738759 0)
(0.0224766 -0.000388659 0)
(0.022707 -0.000157748 0)
(0.0227659 -8.96578e-06 0)
(0.0227054 5.26439e-05 0)
(0.0225959 3.90815e-05 0)
(0.0225246 -4.66503e-05 0)
(0.0225127 -0.000179024 0)
(0.0225924 -0.000339804 0)
(0.0227982 -0.000514342 0)
(0.0231279 -0.000676168 0)
(0.0235678 -0.000810458 0)
(0.0240988 -0.000903059 0)
(0.0246849 -0.000935502 0)
(0.0252708 -0.000917564 0)
(0.0258008 -0.000805555 0)
(0.0262353 -0.000618304 0)
(0.0264977 -0.000359323 0)
(0.0265219 -3.30964e-05 0)
(0.026276 0.000364975 0)
(0.0257129 0.000830466 0)
(0.0248019 0.00133119 0)
(0.023529 0.00185434 0)
(0.021885 0.00237793 0)
(0.0198737 0.00288097 0)
(0.0175152 0.00334639 0)
(0.0148341 0.0037622 0)
(0.0118721 0.00410946 0)
(0.00867859 0.00438354 0)
(0.00530831 0.00457435 0)
(0.00183194 0.00468093 0)
(-0.0016892 0.00470121 0)
(-0.0051893 0.00463149 0)
(-0.00860542 0.00447388 0)
(-0.0118718 0.00422929 0)
(-0.0149219 0.00390643 0)
(-0.0177035 0.00351569 0)
(-0.0201777 0.00306325 0)
(-0.0223031 0.00256542 0)
(-0.0240623 0.00204261 0)
(-0.0254523 0.00151431 0)
(-0.026468 0.00100231 0)
(-0.0271251 0.000527902 0)
(-0.0274523 0.000104649 0)
(-0.0275036 -0.000254837 0)
(-0.0273113 -0.000535339 0)
(-0.02692 -0.000740344 0)
(-0.026408 -0.000865563 0)
(-0.0258429 -0.000910296 0)
(-0.0252738 -0.000879698 0)
(-0.0247432 -0.000805232 0)
(-0.0242966 -0.000669003 0)
(-0.023969 -0.000504153 0)
(-0.0237657 -0.000337433 0)
(-0.0236798 -0.000170182 0)
(-0.0236991 -3.84292e-05 0)
(-0.0237836 4.30242e-05 0)
(-0.0238905 6.02864e-05 0)
(-0.0239574 5.06446e-07 0)
(-0.0239027 -0.000152545 0)
(-0.0236525 -0.000432232 0)
(-0.023137 -0.000792885 0)
(-0.0222693 -0.00125355 0)
(-0.0209931 -0.0017941 0)
(-0.01925 -0.00239188 0)
(-0.0169969 -0.00301194 0)
(-0.0142408 -0.00360536 0)
(-0.0110113 -0.00412654 0)
(-0.00744055 -0.00440323 0)
(-0.00372196 -0.00408877 0)
(-0.000929837 -0.00321183 0)
(0.000954021 -0.00543262 0)
(0.00402022 -0.00734335 0)
(0.00812815 -0.00803051 0)
(0.0120648 -0.00755701 0)
(0.0156316 -0.00661111 0)
(0.0186564 -0.00553303 0)
(0.0211194 -0.00442395 0)
(0.0230312 -0.00334949 0)
(0.0244313 -0.00236305 0)
(0.0253843 -0.00152019 0)
(0.0259501 -0.000841821 0)
(0.0262508 -0.000359145 0)
(0.0263747 -3.37635e-05 0)
(0.0263567 0.00011773 0)
(0.0262879 0.000134552 0)
(0.0262505 1.39482e-05 0)
(0.0262858 -0.000197219 0)
(0.0264183 -0.000469627 0)
(0.0266708 -0.000767175 0)
(0.0270488 -0.00105002 0)
(0.0275364 -0.00128718 0)
(0.028102 -0.00145526 0)
(0.0287043 -0.00152443 0)
(0.0293012 -0.00147843 0)
(0.0298346 -0.00129206 0)
(0.0302407 -0.000953814 0)
(0.030455 -0.000476688 0)
(0.0304134 0.000140643 0)
(0.030064 0.000859513 0)
(0.0293449 0.0016733 0)
(0.0282317 0.00256068 0)
(0.0267255 0.00348392 0)
(0.0248098 0.00440361 0)
(0.0224926 0.00529183 0)
(0.019793 0.00612409 0)
(0.0167375 0.00687207 0)
(0.0133731 0.00750635 0)
(0.00975605 0.00800642 0)
(0.00594658 0.00835707 0)
(0.00201591 0.00855304 0)
(-0.00196821 0.00858712 0)
(-0.00592896 0.00845493 0)
(-0.00979226 0.0081587 0)
(-0.0134855 0.00770717 0)
(-0.0169425 0.00711557 0)
(-0.020105 0.00640212 0)
(-0.0229241 0.0055893 0)
(-0.0253612 0.00471011 0)
(-0.0273958 0.00378842 0)
(-0.0290216 0.00285681 0)
(-0.0302362 0.0019493 0)
(-0.0310512 0.00110223 0)
(-0.031492 0.000344815 0)
(-0.0316009 -0.000306373 0)
(-0.0314369 -0.000823928 0)
(-0.031061 -0.00119757 0)
(-0.0305442 -0.00141532 0)
(-0.0299568 -0.00149029 0)
(-0.029369 -0.00143416 0)
(-0.0287991 -0.00128934 0)
(-0.0282909 -0.00105247 0)
(-0.0279196 -0.00076991 0)
(-0.0276648 -0.000472528 0)
(-0.0275292 -0.000198422 0)
(-0.0275087 1.52567e-05 0)
(-0.0275499 0.000142949 0)
(-0.0276116 0.000134042 0)
(-0.027628 -3.01871e-05 0)
(-0.0275219 -0.000366978 0)
(-0.0272044 -0.000899504 0)
(-0.0266007 -0.0015975 0)
(-0.0256163 -0.00247884 0)
(-0.0241542 -0.00351446 0)
(-0.0221539 -0.00464165 0)
(-0.0195729 -0.00580628 0)
(-0.0164048 -0.00693953 0)
(-0.0126716 -0.00792361 0)
(-0.00854176 -0.00842194 0)
(-0.00423736 -0.00772757 0)
(-0.000997075 -0.00572972 0)
(0.000987784 -0.00803776 0)
(0.00434501 -0.0111692 0)
(0.00890501 -0.0122607 0)
(0.0132667 -0.0115358 0)
(0.0171801 -0.010077 0)
(0.020426 -0.00839685 0)
(0.0229874 -0.0066706 0)
(0.0248939 -0.00501301 0)
(0.0262231 -0.00351454 0)
(0.0270608 -0.0022454 0)
(0.0274827 -0.00123748 0)
(0.0276277 -0.000485241 0)
(0.0276003 -1.99654e-05 0)
(0.0274529 0.000213412 0)
(0.0272824 0.000209492 0)
(0.0271766 3.9849e-05 0)
(0.0271735 -0.000269666 0)
(0.0272983 -0.000670508 0)
(0.0275849 -0.00110438 0)
(0.0280288 -0.00151712 0)
(0.0286112 -0.00186311 0)
(0.0292967 -0.00210344 0)
(0.0300356 -0.00219555 0)
(0.0307753 -0.00210411 0)
(0.031452 -0.00181224 0)
(0.0319877 -0.0013067 0)
(0.0323294 -0.000596799 0)
(0.0323858 0.000306777 0)
(0.0320862 0.001383 0)
(0.0314033 0.00258435 0)
(0.0302875 0.00389545 0)
(0.0287143 0.00525277 0)
(0.0266807 0.00660896 0)
(0.0241985 0.00792124 0)
(0.0212915 0.00914529 0)
(0.0179956 0.0102387 0)
(0.0143697 0.0111688 0)
(0.0104814 0.0119003 0)
(0.00639399 0.0124101 0)
(0.00218335 0.0126911 0)
(-0.00207984 0.0127385 0)
(-0.0063203 0.0125476 0)
(-0.0104651 0.0121186 0)
(-0.0144375 0.0114608 0)
(-0.0181626 0.0105915 0)
(-0.0215762 0.00954104 0)
(-0.0246171 0.00834713 0)
(-0.0272352 0.00704725 0)
(-0.0294042 0.00568827 0)
(-0.0311082 0.00431355 0)
(-0.0323452 0.0029716 0)
(-0.0331358 0.00171484 0)
(-0.0335147 0.000583719 0)
(-0.0335247 -0.000373947 0)
(-0.0332368 -0.00114013 0)
(-0.0327236 -0.0016959 0)
(-0.0320588 -0.00203264 0)
(-0.0313232 -0.00215792 0)
(-0.0305924 -0.00209313 0)
(-0.029896 -0.00186178 0)
(-0.0292876 -0.00152879 0)
(-0.0288432 -0.0011167 0)
(-0.0285583 -0.000664705 0)
(-0.0284303 -0.000259836 0)
(-0.0284365 5.26945e-05 0)
(-0.0285528 0.000227448 0)
(-0.0287311 0.000220585 0)
(-0.0288792 -1.93439e-06 0)
(-0.0289323 -0.000510021 0)
(-0.0287756 -0.00128736 0)
(-0.0283219 -0.00235406 0)
(-0.0274682 -0.00369066 0)
(-0.0260781 -0.00526089 0)
(-0.0240786 -0.00699063 0)
(-0.0214024 -0.00879973 0)
(-0.0180075 -0.0105665 0)
(-0.0139154 -0.0120957 0)
(-0.0093517 -0.012855 0)
(-0.00458168 -0.0117427 0)
(-0.00103607 -0.00847153 0)
(0.00100675 -0.0108154 0)
(0.00466574 -0.0153789 0)
(0.00980091 -0.0169563 0)
(0.0147081 -0.0159278 0)
(0.0190426 -0.0138167 0)
(0.022509 -0.0113767 0)
(0.0251005 -0.00890859 0)
(0.0268853 -0.00657151 0)
(0.0279889 -0.0044906 0)
(0.0285456 -0.0027502 0)
(0.0286791 -0.00138622 0)
(0.0285093 -0.000394224 0)
(0.0281833 0.000217652 0)
(0.027766 0.000489351 0)
(0.027371 0.000456328 0)
(0.0271071 0.000183847 0)
(0.0269762 -0.000278889 0)
(0.0270397 -0.000854142 0)
(0.0273249 -0.00147165 0)
(0.0278246 -0.00206207 0)
(0.0285173 -0.0025598 0)
(0.0293584 -0.00290845 0)
(0.0302975 -0.00305006 0)
(0.0312669 -0.00294035 0)
(0.0321826 -0.00255747 0)
(0.0329562 -0.00186798 0)
(0.0335107 -0.000904624 0)
(0.0337757 0.000309919 0)
(0.0336585 0.00178388 0)
(0.0330941 0.00343419 0)
(0.0320428 0.00521465 0)
(0.0304766 0.00706598 0)
(0.0283938 0.00891586 0)
(0.0257999 0.0107014 0)
(0.0227239 0.0123564 0)
(0.0192233 0.0138294 0)
(0.0153641 0.0150735 0)
(0.0112163 0.0160466 0)
(0.00685975 0.0167227 0)
(0.00237546 0.0170946 0)
(-0.00216476 0.0171578 0)
(-0.00668304 0.0169072 0)
(-0.0111031 0.0163389 0)
(-0.0153439 0.0154648 0)
(-0.0193194 0.0143028 0)
(-0.0229514 0.0128876 0)
(-0.0261763 0.0112675 0)
(-0.0289324 0.00950069 0)
(-0.0311754 0.00764556 0)
(-0.03289 0.00576916 0)
(-0.0340754 0.00394222 0)
(-0.0347614 0.00222168 0)
(-0.0349752 0.000670221 0)
(-0.0347795 -0.000628852 0)
(-0.0342675 -0.00166739 0)
(-0.0335104 -0.00242408 0)
(-0.0325973 -0.00286847 0)
(-0.0316235 -0.00302272 0)
(-0.0306749 -0.00291127 0)
(-0.0298171 -0.00257844 0)
(-0.0291002 -0.00208529 0)
(-0.0285776 -0.00148472 0)
(-0.0282842 -0.000847557 0)
(-0.0282249 -0.000257012 0)
(-0.0283645 0.00020971 0)
(-0.0286549 0.000476809 0)
(-0.0290408 0.000494254 0)
(-0.0294819 0.000226261 0)
(-0.0298573 -0.000414288 0)
(-0.0300226 -0.00143434 0)
(-0.0298883 -0.00288195 0)
(-0.0293109 -0.0047097 0)
(-0.0281499 -0.00688096 0)
(-0.0262865 -0.00932949 0)
(-0.0235842 -0.0119197 0)
(-0.0199612 -0.0144797 0)
(-0.015432 -0.0166946 0)
(-0.0102941 -0.0177669 0)
(-0.00493677 -0.0161673 0)
(-0.00106841 -0.0114011 0)
(0.00101701 -0.0137918 0)
(0.00504127 -0.0200858 0)
(0.0109687 -0.0223035 0)
(0.0166805 -0.0209217 0)
(0.0216255 -0.0179403 0)
(0.0253653 -0.0144856 0)
(0.02793 -0.0110573 0)
(0.0294871 -0.00789661 0)
(0.0302434 -0.00514363 0)
(0.030386 -0.00289304 0)
(0.0300709 -0.00116581 0)
(0.0294681 4.1345e-05 0)
(0.0287266 0.000792453 0)
(0.0279478 0.001056 0)
(0.0272497 0.000942767 0)
(0.0267292 0.000528562 0)
(0.0264334 -0.000146798 0)
(0.026411 -0.000969405 0)
(0.02669 -0.00185533 0)
(0.0272607 -0.00270441 0)
(0.0280956 -0.003405 0)
(0.0291483 -0.00392451 0)
(0.0303553 -0.00415448 0)
(0.0316243 -0.00404726 0)
(0.0328768 -0.00357732 0)
(0.0339867 -0.0027217 0)
(0.0348481 -0.00148139 0)
(0.0354086 0.000110524 0)
(0.0355375 0.0020047 0)
(0.0351475 0.00415053 0)
(0.034215 0.00647131 0)
(0.0326918 0.00888532 0)
(0.0305661 0.0112941 0)
(0.0278512 0.0136128 0)
(0.0245869 0.0157609 0)
(0.0208403 0.017664 0)
(0.0166837 0.0192558 0)
(0.012204 0.0204935 0)
(0.00749221 0.0213515 0)
(0.00263854 0.0218223 0)
(-0.00227858 0.0219038 0)
(-0.00717336 0.0215891 0)
(-0.0119607 0.0208722 0)
(-0.0165494 0.0197596 0)
(-0.0208429 0.0182744 0)
(-0.0247505 0.0164548 0)
(-0.0281868 0.0143552 0)
(-0.0310869 0.0120561 0)
(-0.0334036 0.0096371 0)
(-0.0351001 0.00718567 0)
(-0.036191 0.00479597 0)
(-0.0367157 0.00255363 0)
(-0.0366859 0.000550667 0)
(-0.036197 -0.00114301 0)
(-0.0353781 -0.00249481 0)
(-0.0342793 -0.00343715 0)
(-0.0330168 -0.00398365 0)
(-0.0317227 -0.00414754 0)
(-0.0304968 -0.00395426 0)
(-0.0294099 -0.00345325 0)
(-0.0285266 -0.00275267 0)
(-0.0279312 -0.00189284 0)
(-0.0276397 -0.00099359 0)
(-0.0276592 -0.00014569 0)
(-0.027976 0.000549297 0)
(-0.0285396 0.000982885 0)
(-0.029251 0.00110657 0)
(-0.030053 0.000808788 0)
(-0.0308515 5.99378e-05 0)
(-0.0314805 -0.00120051 0)
(-0.0318031 -0.0030254 0)
(-0.0316564 -0.00539623 0)
(-0.0308825 -0.00826544 0)
(-0.0292659 -0.0115759 0)
(-0.0265775 -0.0151588 0)
(-0.0226682 -0.0187819 0)
(-0.0175049 -0.021904 0)
(-0.0115419 -0.0233452 0)
(-0.00535795 -0.021096 0)
(-0.00108364 -0.0145379 0)
(0.00101516 -0.0169755 0)
(0.00543889 -0.0254125 0)
(0.012412 -0.0285719 0)
(0.0193282 -0.0267877 0)
(0.0252011 -0.0226 0)
(0.0293101 -0.0177399 0)
(0.0317615 -0.0130553 0)
(0.0329162 -0.00886052 0)
(0.0331272 -0.00532983 0)
(0.0326681 -0.00252763 0)
(0.031753 -0.000449744 0)
(0.0305985 0.000989366 0)
(0.029327 0.00180278 0)
(0.0280568 0.00200573 0)
(0.0269959 0.00176269 0)
(0.0261681 0.00111118 0)
(0.025626 0.000128206 0)
(0.0254843 -0.00103488 0)
(0.0257519 -0.00226798 0)
(0.0264454 -0.00346174 0)
(0.0274749 -0.00446523 0)
(0.0287928 -0.00521487 0)
(0.0303645 -0.00559501 0)
(0.0320417 -0.005541 0)
(0.0337125 -0.00500252 0)
(0.0352643 -0.00395744 0)
(0.0365646 -0.00242432 0)
(0.0374934 -0.000419855 0)
(0.0379405 0.00196306 0)
(0.0378086 0.00468553 0)
(0.0370316 0.00763787 0)
(0.0355586 0.0106968 0)
(0.033381 0.0137611 0)
(0.0305201 0.0167017 0)
(0.0270173 0.0194177 0)
(0.0229476 0.0218087 0)
(0.0184053 0.0238005 0)
(0.0134934 0.0253403 0)
(0.00831835 0.0264047 0)
(0.00298344 0.0269875 0)
(-0.00242466 0.0270916 0)
(-0.00780953 0.026707 0)
(-0.0130775 0.025823 0)
(-0.0181224 0.0244399 0)
(-0.0228274 0.0225824 0)
(-0.0270875 0.0202974 0)
(-0.0308018 0.0176527 0)
(-0.0338882 0.0147352 0)
(-0.0362917 0.0116553 0)
(-0.0379722 0.0085381 0)
(-0.0389333 0.00548991 0)
(-0.0392181 0.00264209 0)
(-0.0388754 0.000115552 0)
(-0.0380279 -0.00203552 0)
(-0.0367639 -0.00370637 0)
(-0.0351991 -0.00485093 0)
(-0.0335034 -0.00549154 0)
(-0.0317828 -0.0056266 0)
(-0.030163 -0.00529271 0)
(-0.0287922 -0.00455282 0)
(-0.027712 -0.00355177 0)
(-0.0269823 -0.00234725 0)
(-0.0266847 -0.00106953 0)
(-0.0268165 0.000145491 0)
(-0.0273741 0.00115633 0)
(-0.0282475 0.00186166 0)
(-0.0293733 0.00214242 0)
(-0.0306901 0.0018815 0)
(-0.032023 0.00103782 0)
(-0.0332455 -0.000448388 0)
(-0.0342058 -0.00264215 0)
(-0.0346807 -0.00558901 0)
(-0.0344657 -0.00927233 0)
(-0.0332646 -0.0136389 0)
(-0.0307052 -0.0185382 0)
(-0.0264307 -0.0236316 0)
(-0.0202999 -0.0280234 0)
(-0.0130734 -0.0299008 0)
(-0.00580295 -0.0266957 0)
(-0.00109021 -0.0179116 0)
(0.000983677 -0.0203393 0)
(0.00559191 -0.0314661 0)
(0.0137903 -0.0361711 0)
(0.0226815 -0.0339651 0)
(0.0301106 -0.0280229 0)
(0.0347087 -0.0210882 0)
(0.0368749 -0.0146851 0)
(0.0373582 -0.00923939 0)
(0.0367398 -0.00486146 0)
(0.0354351 -0.00149392 0)
(0.033749 0.000949071 0)
(0.0318685 0.00255023 0)
(0.0298915 0.00338409 0)
(0.028075 0.00349472 0)
(0.0265403 0.00301647 0)
(0.0252768 0.00197848 0)
(0.0244611 0.000604231 0)
(0.0241985 -0.00102888 0)
(0.0244647 -0.00272852 0)
(0.0252837 -0.00437492 0)
(0.0265758 -0.00580595 0)
(0.0282598 -0.00687199 0)
(0.030278 -0.00747231 0)
(0.0324773 -0.00751999 0)
(0.0347317 -0.00691553 0)
(0.0368509 -0.00569237 0)
(0.0386865 -0.00382826 0)
(0.0401162 -0.00137189 0)
(0.0409855 0.00158719 0)
(0.0411832 0.0049843 0)
(0.0406024 0.00867667 0)
(0.0392012 0.0125101 0)
(0.0369603 0.0163377 0)
(0.0338947 0.0200179 0)
(0.0300762 0.0233953 0)
(0.0255951 0.0263563 0)
(0.0205631 0.02881 0)
(0.0151062 0.0306971 0)
(0.00935135 0.0319955 0)
(0.00341897 0.0327064 0)
(-0.00259483 0.0328384 0)
(-0.00859165 0.0323798 0)
(-0.0144643 0.0313087 0)
(-0.0200879 0.0296168 0)
(-0.0253212 0.027328 0)
(-0.0300339 0.0245004 0)
(-0.0341087 0.0212057 0)
(-0.037446 0.0175577 0)
(-0.0399609 0.0137095 0)
(-0.0416141 0.00979858 0)
(-0.0424128 0.00597797 0)
(-0.0423916 0.00241514 0)
(-0.0416482 -0.000738196 0)
(-0.0402948 -0.00339727 0)
(-0.0384607 -0.00542125 0)
(-0.0363217 -0.00679936 0)
(-0.0340381 -0.00750861 0)
(-0.0317592 -0.00757369 0)
(-0.0296509 -0.00702032 0)
(-0.0278895 -0.00596841 0)
(-0.026532 -0.00452523 0)
(-0.0256432 -0.00284783 0)
(-0.0253221 -0.0010754 0)
(-0.0255982 0.000622283 0)
(-0.0264299 0.00207868 0)
(-0.0277294 0.00312688 0)
(-0.0294101 0.00363928 0)
(-0.0313352 0.00352181 0)
(-0.0333474 0.00267054 0)
(-0.0353092 0.000998654 0)
(-0.0370893 -0.00156254 0)
(-0.0384472 -0.00507578 0)
(-0.0390896 -0.0096474 0)
(-0.0386018 -0.0153306 0)
(-0.0363692 -0.0220413 0)
(-0.0315947 -0.0292878 0)
(-0.0238531 -0.0355358 0)
(-0.0145665 -0.0378426 0)
(-0.0059952 -0.0331128 0)
(-0.00106016 -0.0215283 0)
(0.000859271 -0.0236381 0)
(0.00476316 -0.0380195 0)
(0.0145847 -0.045573 0)
(0.0268438 -0.0434485 0)
(0.0368699 -0.0347667 0)
(0.0421759 -0.0245223 0)
(0.0436491 -0.0156256 0)
(0.042934 -0.00867275 0)
(0.0410828 -0.00337894 0)
(0.0386851 0.000517709 0)
(0.0359949 0.00323118 0)
(0.0332221 0.0048877 0)
(0.0304665 0.00562536 0)
(0.0279057 0.00555646 0)
(0.0257096 0.00472022 0)
(0.0239826 0.00327954 0)
(0.0228412 0.00134644 0)
(0.0223901 -0.00090082 0)
(0.0226723 -0.00325108 0)
(0.0236626 -0.00551174 0)
(0.0252923 -0.00750863 0)
(0.027453 -0.0090082 0)
(0.0300548 -0.00990771 0)
(0.0329489 -0.0100921 0)
(0.0359067 -0.00948281 0)
(0.0387401 -0.00807189 0)
(0.0412975 -0.00583901 0)
(0.0433544 -0.00286548 0)
(0.0447741 0.000773864 0)
(0.0454007 0.00497751 0)
(0.0450789 0.00954381 0)
(0.0437531 0.0143048 0)
(0.0414255 0.0190606 0)
(0.0381121 0.0236158 0)
(0.0338853 0.0277842 0)
(0.0288765 0.0314178 0)
(0.0232229 0.034406 0)
(0.017085 0.0366901 0)
(0.0106161 0.0382491 0)
(0.00395958 0.0391002 0)
(-0.00278331 0.0392676 0)
(-0.00952645 0.0387365 0)
(-0.0161513 0.037464 0)
(-0.022502 0.0354231 0)
(-0.0284005 0.0326378 0)
(-0.0336981 0.0291611 0)
(-0.0382454 0.0250934 0)
(-0.0418872 0.0205816 0)
(-0.0445472 0.0157974 0)
(-0.0461829 0.0109345 0)
(-0.0467693 0.00619636 0)
(-0.0463576 0.00177487 0)
(-0.0450865 -0.002125 0)
(-0.0430892 -0.00535749 0)
(-0.0405266 -0.00782006 0)
(-0.037628 -0.00943003 0)
(-0.0345992 -0.0101702 0)
(-0.0316039 -0.0101198 0)
(-0.0288578 -0.00926094 0)
(-0.0265858 -0.00776924 0)
(-0.0248597 -0.00574287 0)
(-0.0237771 -0.00341199 0)
(-0.0234358 -0.000984555 0)
(-0.0238715 0.00137343 0)
(-0.0250783 0.00342393 0)
(-0.0268925 0.00495493 0)
(-0.0291795 0.00582714 0)
(-0.0318525 0.00592207 0)
(-0.0347284 0.00516 0)
(-0.0376548 0.00339902 0)
(-0.0404652 0.00054784 0)
(-0.0429622 -0.0035229 0)
(-0.0449004 -0.00905028 0)
(-0.0456834 -0.0163122 0)
(-0.0441758 -0.0255894 0)
(-0.0387025 -0.036309 0)
(-0.0282955 -0.0454232 0)
(-0.0155544 -0.0477212 0)
(-0.00523992 -0.0400751 0)
(-0.000932087 -0.025037 0)
(0.000578047 -0.0262094 0)
(0.00395189 -0.0450769 0)
(0.0187938 -0.0584804 0)
(0.0357 -0.0568238 0)
(0.0477803 -0.0434882 0)
(0.0528703 -0.0277321 0)
(0.0526145 -0.0152837 0)
(0.0498396 -0.00658197 0)
(0.0462002 -0.000451912 0)
(0.0422947 0.00381406 0)
(0.0383579 0.0066254 0)
(0.0344976 0.00823783 0)
(0.0308054 0.00875407 0)
(0.0274326 0.00837128 0)
(0.0245321 0.00710006 0)
(0.0221762 0.00510705 0)
(0.020563 0.00242419 0)
(0.01991 -0.000676013 0)
(0.0202028 -0.00387381 0)
(0.0214123 -0.00694879 0)
(0.0234928 -0.00966183 0)
(0.0262891 -0.0117467 0)
(0.0296383 -0.0130531 0)
(0.0333633 -0.0134625 0)
(0.0372388 -0.0128969 0)
(0.0410141 -0.0112735 0)
(0.0444509 -0.00863056 0)
(0.0473282 -0.00501684 0)
(0.0494667 -0.00054651 0)
(0.050625 0.00460022 0)
(0.0506301 0.0102287 0)
(0.049439 0.0161096 0)
(0.0470042 0.0219891 0)
(0.0433557 0.027592 0)
(0.0386092 0.0327063 0)
(0.0329198 0.0371318 0)
(0.0264768 0.0407411 0)
(0.0194852 0.0434687 0)
(0.0121381 0.0453065 0)
(0.00462183 0.0463019 0)
(-0.00297051 0.0465182 0)
(-0.0106116 0.045935 0)
(-0.0181724 0.0444554 0)
(-0.0254399 0.0420246 0)
(-0.0321967 0.0386596 0)
(-0.038243 0.0344201 0)
(-0.0433755 0.0294344 0)
(-0.04743 0.0238818 0)
(-0.050281 0.0179616 0)
(-0.0518628 0.0119383 0)
(-0.0521847 0.00607474 0)
(-0.0512849 0.000621672 0)
(-0.0493154 -0.00417716 0)
(-0.046492 -0.00811283 0)
(-0.0430065 -0.0110602 0)
(-0.0391178 -0.012923 0)
(-0.0351459 -0.0136829 0)
(-0.0312504 -0.013412 0)
(-0.0276854 -0.0121413 0)
(-0.0247373 -0.0100619 0)
(-0.0225097 -0.00729891 0)
(-0.0211856 -0.00411614 0)
(-0.020809 -0.000791195 0)
(-0.0214391 0.00243128 0)
(-0.023083 0.00522452 0)
(-0.0255475 0.00743158 0)
(-0.0286527 0.00880799 0)
(-0.0322014 0.00923629 0)
(-0.0360648 0.00865108 0)
(-0.0401196 0.0069417 0)
(-0.044222 0.00398323 0)
(-0.0482722 -0.000487001 0)
(-0.0520619 -0.00687429 0)
(-0.0549778 -0.0159037 0)
(-0.0553334 -0.0288174 0)
(-0.0502624 -0.0451963 0)
(-0.0380605 -0.0591691 0)
(-0.0206514 -0.061315 0)
(-0.0046913 -0.0476262 0)
(-0.000580727 -0.0278583 0)
(0.000708429 -0.0291557 0)
(0.0126786 -0.0568419 0)
(0.0430455 -0.0775117 0)
(0.0641126 -0.0724114 0)
(0.0713322 -0.0516318 0)
(0.0698255 -0.0290059 0)
(0.0643099 -0.012582 0)
(0.0579433 -0.00213438 0)
(0.0517979 0.00435882 0)
(0.0460473 0.00861146 0)
(0.0406839 0.0112914 0)
(0.0355994 0.0126856 0)
(0.0308415 0.0129361 0)
(0.0264958 0.0120664 0)
(0.0226907 0.0101602 0)
(0.0195671 0.0073611 0)
(0.0173566 0.00380307 0)
(0.0164433 -0.000304128 0)
(0.0168039 -0.0045785 0)
(0.018333 -0.00871876 0)
(0.0209992 -0.0123881 0)
(0.0246041 -0.0152701 0)
(0.0289104 -0.0171225 0)
(0.0337052 -0.0178543 0)
(0.038735 -0.017337 0)
(0.0436912 -0.0155166 0)
(0.0482851 -0.0124024 0)
(0.0522191 -0.00804874 0)
(0.0552225 -0.00260219 0)
(0.0570589 0.00370596 0)
(0.057525 0.0106607 0)
(0.0564978 0.0179238 0)
(0.0539268 0.025161 0)
(0.0498667 0.0320566 0)
(0.0444551 0.0383149 0)
(0.0378875 0.0436828 0)
(0.0304253 0.0480127 0)
(0.0223481 0.0512252 0)
(0.0139345 0.0533329 0)
(0.00543023 0.054447 0)
(-0.00311352 0.0547363 0)
(-0.0118112 0.0541661 0)
(-0.0205378 0.0525019 0)
(-0.0289858 0.0496365 0)
(-0.0368454 0.0455853 0)
(-0.043852 0.0404497 0)
(-0.0497456 0.0343498 0)
(-0.0543141 0.0275181 0)
(-0.0574104 0.0202257 0)
(-0.0589403 0.01278 0)
(-0.0588999 0.00552188 0)
(-0.0573658 -0.00120223 0)
(-0.0545237 -0.00710299 0)
(-0.0506274 -0.0118913 0)
(-0.0459498 -0.0153907 0)
(-0.0408279 -0.017534 0)
(-0.0356271 -0.0182858 0)
(-0.0305691 -0.0176783 0)
(-0.0259861 -0.0158762 0)
(-0.0221806 -0.0129915 0)
(-0.0193029 -0.00926573 0)
(-0.01761 -0.00498395 0)
(-0.0171822 -0.000492473 0)
(-0.0181036 0.00385447 0)
(-0.0202871 0.00768839 0)
(-0.0234895 0.0106838 0)
(-0.0275422 0.0126707 0)
(-0.0321677 0.013592 0)
(-0.0371867 0.0132861 0)
(-0.0425052 0.0117959 0)
(-0.0480987 0.00898497 0)
(-0.0540452 0.00453227 0)
(-0.0603713 -0.00223122 0)
(-0.066987 -0.0130161 0)
(-0.0729376 -0.02987 0)
(-0.0752026 -0.052997 0)
(-0.0686302 -0.0747558 0)
(-0.0468881 -0.0810596 0)
(-0.0145623 -0.06063 0)
(-0.000747034 -0.031248 0)
(0.00248711 -0.04049 0)
(0.0469606 -0.0849084 0)
(0.0975539 -0.104531 0)
(0.121117 -0.0832428 0)
(0.116167 -0.0475365 0)
(0.0974107 -0.0194179 0)
(0.079499 -0.00297911 0)
(0.0667652 0.00641029 0)
(0.0572037 0.011792 0)
(0.049461 0.0152417 0)
(0.0426048 0.017402 0)
(0.0362525 0.0184144 0)
(0.0302292 0.0181975 0)
(0.0246547 0.0168172 0)
(0.0198071 0.0141959 0)
(0.0158238 0.0104523 0)
(0.0129799 0.00579372 0)
(0.0116995 0.000281695 0)
(0.0120567 -0.00544052 0)
(0.0139852 -0.0110033 0)
(0.0174318 -0.015911 0)
(0.0221363 -0.0197736 0)
(0.0277159 -0.022373 0)
(0.0338768 -0.0235285 0)
(0.0403617 -0.023116 0)
(0.0467954 -0.0210747 0)
(0.0528268 -0.0174264 0)
(0.0581004 -0.0122128 0)
(0.062265 -0.00558606 0)
(0.0650159 0.00215188 0)
(0.0660735 0.010709 0)
(0.0652619 0.0196778 0)
(0.0625422 0.0286238 0)
(0.057963 0.0371332 0)
(0.0516747 0.0447969 0)
(0.0439566 0.0513231 0)
(0.0351774 0.0564905 0)
(0.0257376 0.0602031 0)
(0.0160466 0.0625004 0)
(0.00641608 0.0636485 0)
(-0.00319926 0.0640585 0)
(-0.0131279 0.0636501 0)
(-0.0232841 0.0618928 0)
(-0.0332364 0.0585695 0)
(-0.0425166 0.0537077 0)
(-0.0507729 0.0474454 0)
(-0.0576576 0.0399818 0)
(-0.0628763 0.0315725 0)
(-0.0662654 0.0225604 0)
(-0.067717 0.0133584 0)
(-0.0672185 0.00437179 0)
(-0.0648701 -0.00393214 0)
(-0.0608859 -0.0111733 0)
(-0.0555968 -0.0169879 0)
(-0.0494096 -0.0211475 0)
(-0.0427226 -0.0235647 0)
(-0.0359404 -0.024214 0)
(-0.0294202 -0.0231832 0)
(-0.0235077 -0.0206826 0)
(-0.0185446 -0.0167733 0)
(-0.0148199 -0.0117802 0)
(-0.0126292 -0.00599422 0)
(-0.0120962 3.40796e-05 0)
(-0.0132931 0.00591635 0)
(-0.0162047 0.0110104 0)
(-0.0204788 0.0149084 0)
(-0.0256546 0.0176782 0)
(-0.0315173 0.0190887 0)
(-0.0378475 0.0192382 0)
(-0.0444729 0.0181613 0)
(-0.0515978 0.0158469 0)
(-0.0595916 0.012203 0)
(-0.0693759 0.00659874 0)
(-0.0825348 -0.00297946 0)
(-0.101437 -0.0192898 0)
(-0.121575 -0.0477939 0)
(-0.127075 -0.0855749 0)
(-0.102625 -0.109633 0)
(-0.0502654 -0.0910156 0)
(-0.00242685 -0.0436816 0)
(0.0160863 -0.0758357 0)
(0.0956899 -0.147576 0)
(0.153172 -0.149295 0)
(0.173495 -0.0941058 0)
(0.160214 -0.0292658 0)
(0.125012 0.00748824 0)
(0.0921177 0.0185056 0)
(0.0728616 0.0206312 0)
(0.0607476 0.0218859 0)
(0.0516901 0.0233937 0)
(0.0438 0.0246941 0)
(0.0362732 0.0253109 0)
(0.0290596 0.0247289 0)
(0.0222791 0.0227762 0)
(0.0161275 0.0194655 0)
(0.0110092 0.0146066 0)
(0.00716458 0.00848052 0)
(0.00527198 0.00120173 0)
(0.00565819 -0.00654876 0)
(0.00815695 -0.0140256 0)
(0.0126792 -0.0204864 0)
(0.018741 -0.0255951 0)
(0.0258894 -0.0291003 0)
(0.0337975 -0.0308023 0)
(0.0421032 -0.0305392 0)
(0.0503819 -0.0283214 0)
(0.0582381 -0.0240623 0)
(0.0652512 -0.017815 0)
(0.070903 -0.00977069 0)
(0.0748112 -0.000244431 0)
(0.0766598 0.0103006 0)
(0.0761738 0.0214015 0)
(0.0732778 0.0324708 0)
(0.0680189 0.0430079 0)
(0.0606276 0.0524548 0)
(0.0514943 0.0603807 0)
(0.041117 0.0664858 0)
(0.0300494 0.0706456 0)
(0.0187939 0.0729838 0)
(0.0076839 0.0740417 0)
(-0.00341733 0.0746361 0)
(-0.0149419 0.0746015 0)
(-0.0268414 0.0729225 0)
(-0.0385949 0.0691657 0)
(-0.0496141 0.0633715 0)
(-0.0593919 0.0557345 0)
(-0.067491 0.046559 0)
(-0.0735612 0.0361742 0)
(-0.0773376 0.0250391 0)
(-0.078699 0.013637 0)
(-0.0776096 0.00250377 0)
(-0.0741802 -0.00778486 0)
(-0.0687076 -0.0166881 0)
(-0.0616122 -0.0237419 0)
(-0.0534471 -0.0286704 0)
(-0.044741 -0.0313739 0)
(-0.0360074 -0.031856 0)
(-0.0276895 -0.0302928 0)
(-0.0201028 -0.0268492 0)
(-0.0136561 -0.0217024 0)
(-0.00874261 -0.0151292 0)
(-0.00584895 -0.00733427 0)
(-0.00522138 0.000772042 0)
(-0.00695869 0.00853697 0)
(-0.0109826 0.015126 0)
(-0.0164559 0.0203924 0)
(-0.0229708 0.024049 0)
(-0.030238 0.0259967 0)
(-0.0378122 0.02647 0)
(-0.0456861 0.0257258 0)
(-0.0539343 0.0242607 0)
(-0.0632003 0.0224879 0)
(-0.0755159 0.0211171 0)
(-0.095091 0.01921 0)
(-0.128847 0.00880499 0)
(-0.164684 -0.0289681 0)
(-0.177537 -0.0973712 0)
(-0.156342 -0.156593 0)
(-0.0981247 -0.157052 0)
(-0.0175457 -0.0809889 0)
(0.0450173 -0.156456 0)
(0.115486 -0.233545 0)
(0.156891 -0.192566 0)
(0.166444 -0.0974683 0)
(0.149482 -0.00569009 0)
(0.114917 0.039775 0)
(0.0870778 0.0446927 0)
(0.071135 0.0375543 0)
(0.0606546 0.0332416 0)
(0.0525345 0.0325083 0)
(0.0450367 0.0332514 0)
(0.0373898 0.0334844 0)
(0.0294223 0.0325661 0)
(0.0215744 0.0299844 0)
(0.0141207 0.025774 0)
(0.00745787 0.0197473 0)
(0.00227792 0.0118302 0)
(-0.000765403 0.00233362 0)
(-0.000868281 -0.00793783 0)
(0.0021677 -0.0179264 0)
(0.00783782 -0.0264801 0)
(0.0153607 -0.03313 0)
(0.024223 -0.0376641 0)
(0.0340691 -0.0400055 0)
(0.0444591 -0.0400061 0)
(0.0549585 -0.037636 0)
(0.0651467 -0.0326889 0)
(0.0744023 -0.0252457 0)
(0.0820828 -0.0154779 0)
(0.0875597 -0.0037628 0)
(0.0903556 0.00927694 0)
(0.090163 0.0230381 0)
(0.086955 0.0367987 0)
(0.0808865 0.0498725 0)
(0.0722489 0.0615001 0)
(0.0616162 0.071044 0)
(0.0495785 0.0781829 0)
(0.0366225 0.0828361 0)
(0.023159 0.0852396 0)
(0.00952707 0.0862351 0)
(-0.00426244 0.0870546 0)
(-0.018357 0.0874471 0)
(-0.0326205 0.0858801 0)
(-0.0464784 0.0816461 0)
(-0.0593349 0.0747742 0)
(-0.0707024 0.0655493 0)
(-0.0801431 0.054287 0)
(-0.0872331 0.0414795 0)
(-0.0916212 0.0277078 0)
(-0.0930437 0.0135744 0)
(-0.0913204 -0.000265023 0)
(-0.0865202 -0.0130758 0)
(-0.0790167 -0.0240528 0)
(-0.0694834 -0.0325908 0)
(-0.0587557 -0.0383673 0)
(-0.0475378 -0.0413558 0)
(-0.0364793 -0.0416188 0)
(-0.0260682 -0.0393764 0)
(-0.0166291 -0.0347977 0)
(-0.00859585 -0.0281325 0)
(-0.00226792 -0.0194826 0)
(0.00140253 -0.00920228 0)
(0.00175514 0.00164198 0)
(-0.00101863 0.0119109 0)
(-0.00633694 0.0205661 0)
(-0.013433 0.0274146 0)
(-0.0216657 0.0318063 0)
(-0.0303212 0.0343898 0)
(-0.038853 0.035147 0)
(-0.0469817 0.0346136 0)
(-0.0549417 0.0336764 0)
(-0.0632588 0.0339782 0)
(-0.0737748 0.0382101 0)
(-0.0894506 0.0455569 0)
(-0.117277 0.0412038 0)
(-0.151382 -0.00557986 0)
(-0.166814 -0.101004 0)
(-0.156118 -0.199872 0)
(-0.114883 -0.243207 0)
(-0.0458933 -0.163317 0)
(0.0467482 -0.242023 0)
(0.0750875 -0.281302 0)
(0.0909259 -0.195672 0)
(0.0880383 -0.0762226 0)
(0.0810711 0.0181711 0)
(0.0709907 0.0595911 0)
(0.0648401 0.059252 0)
(0.0619174 0.0472664 0)
(0.0588404 0.0399761 0)
(0.054928 0.0383902 0)
(0.0496753 0.0394892 0)
(0.0428223 0.0406946 0)
(0.0345746 0.0405396 0)
(0.0255923 0.0383322 0)
(0.0166627 0.0336982 0)