/*--------------------------------*- C++ -*----------------------------------*\
| =========                 |                                                 |
| \\      /  F ield         | OpenFOAM: The Open Source CFD Toolbox           |
|  \\    /   O peration     | Version:  2412                                  |
|   \\  /    A nd           | Website:  www.openfoam.com                      |
|    \\/     M anipulation  |                                                 |
\*---------------------------------------------------------------------------*/
FoamFile
{
    version     2.0;
    format      ascii;
    arch        "LSB;label=32;scalar=64";
    class       surfaceScalarField;
    location    "3.84";
    object      alphaPhi0.water;
}
// * * * * * * * * * * * * * * * * * * * * * * * * * * * * * * * * * * * * * //

dimensions      [0 3 -1 0 0 0 0];

oriented        oriented;

internalField   nonuniform List<scalar> 
158920
(
-1.18997e-06
1.18991e-06
-2.22252e-06
1.00938e-06
-3.15119e-06
9.10995e-07
-4.08643e-06
9.25346e-07
-5.02534e-06
9.36352e-07
-5.95989e-06
9.3859e-07
-6.89067e-06
9.40589e-07
-7.82071e-06
9.44781e-07
-8.75322e-06
9.51393e-07
-9.69089e-06
9.59944e-07
-1.06357e-05
9.69714e-07
-1.15886e-05
9.79885e-07
-1.25499e-05
9.89688e-07
-1.35206e-05
9.99877e-07
-1.45009e-05
1.00969e-06
-1.54903e-05
1.01866e-06
-1.64885e-05
1.02695e-06
-1.74953e-05
1.03452e-06
-1.85104e-05
1.04166e-06
-1.9533e-05
1.04776e-06
-2.05632e-05
1.05383e-06
-2.16009e-05
1.05954e-06
-2.26458e-05
1.06504e-06
-2.36979e-05
1.07044e-06
-2.47571e-05
1.07588e-06
-2.58239e-05
1.0817e-06
-2.68984e-05
1.0878e-06
-2.79809e-05
1.09426e-06
-2.90717e-05
1.10113e-06
-3.01712e-05
1.10848e-06
-3.12797e-05
1.11631e-06
-3.23976e-05
1.12467e-06
-3.35254e-05
1.13357e-06
-3.46636e-05
1.14302e-06
-3.58125e-05
1.15302e-06
-3.69726e-05
1.16357e-06
-3.81444e-05
1.17467e-06
-3.93283e-05
1.18629e-06
-4.05248e-05
1.19843e-06
-4.17343e-05
1.21107e-06
-4.29572e-05
1.22421e-06
-4.4194e-05
1.23782e-06
-4.54451e-05
1.25189e-06
-4.67109e-05
1.2664e-06
-4.79917e-05
1.28135e-06
-4.92881e-05
1.29673e-06
-5.06004e-05
1.31253e-06
-5.19289e-05
1.32876e-06
-5.32742e-05
1.3454e-06
-5.46366e-05
1.36246e-06
-5.60165e-05
1.37993e-06
-5.74143e-05
1.39783e-06
-5.88304e-05
1.41614e-06
-6.02654e-05
1.43489e-06
-6.17195e-05
1.45408e-06
-6.31933e-05
1.47371e-06
-6.46872e-05
1.4938e-06
-6.62016e-05
1.51434e-06
-6.77371e-05
1.53535e-06
-6.9294e-05
1.55683e-06
-7.08729e-05
1.5788e-06
-7.24743e-05
1.60125e-06
-7.40986e-05
1.62419e-06
-7.57463e-05
1.64764e-06
-7.74181e-05
1.67159e-06
-7.91142e-05
1.69606e-06
-8.08354e-05
1.72105e-06
-8.25821e-05
1.74656e-06
-8.43548e-05
1.77261e-06
-8.61542e-05
1.7992e-06
-8.79807e-05
1.82634e-06
-8.98348e-05
1.85404e-06
-9.17173e-05
1.8823e-06
-9.36286e-05
1.91114e-06
-9.55693e-05
1.94056e-06
-9.754e-05
1.97056e-06
-9.95413e-05
2.00117e-06
-0.000101574
2.03239e-06
-0.000103638
2.06422e-06
-0.000105735
2.09668e-06
-0.000107865
2.12978e-06
-0.000110029
2.16351e-06
-0.000112227
2.1979e-06
-0.00011446
2.23294e-06
-0.000116729
2.26865e-06
-0.000119034
2.30504e-06
-0.000121376
2.34211e-06
-0.000123756
2.37988e-06
-0.000126175
2.41835e-06
-0.000128632
2.45754e-06
-0.00013113
2.49746e-06
-0.000133668
2.53812e-06
-0.000136248
2.57952e-06
-0.00013887
2.62168e-06
-0.000141535
2.66461e-06
-0.000144243
2.70831e-06
-0.000146996
2.75281e-06
-0.000149794
2.7981e-06
-0.000152639
2.8442e-06
-0.00015553
2.89113e-06
-0.000158469
2.93889e-06
-0.000161457
2.9875e-06
-0.000164494
3.03696e-06
-0.000167582
3.0873e-06
-0.00017072
3.13851e-06
-0.000173911
3.19063e-06
-0.000177155
3.24364e-06
-0.000180453
3.29758e-06
-0.000183805
3.35245e-06
-0.000187214
3.40825e-06
-0.000190679
3.46501e-06
-0.000194202
3.52274e-06
-0.000197784
3.58145e-06
-0.000201425
3.64115e-06
-0.000205127
3.70186e-06
-0.000208891
3.76359e-06
-0.000212718
3.82636e-06
-0.000216608
3.89018e-06
-0.000220563
3.95507e-06
-0.000224585
4.02103e-06
-0.000228673
4.08808e-06
-0.00023283
4.15624e-06
-0.000237055
4.22551e-06
-0.000241351
4.29591e-06
-0.000245719
4.36746e-06
-0.00025016
4.44017e-06
-0.000254674
4.51406e-06
-0.000259263
4.58914e-06
-0.000263929
4.66543e-06
-0.000268672
4.74294e-06
-0.000273494
4.82169e-06
-0.000278396
4.9017e-06
-0.00028338
4.98297e-06
-0.000288445
5.06552e-06
-0.000293595
5.14936e-06
-0.00029883
5.23452e-06
-0.000304151
5.321e-06
-0.00030956
5.40883e-06
-0.000315059
5.49801e-06
-0.000320648
5.58857e-06
-0.000326328
5.68052e-06
-0.000332103
5.77388e-06
-0.000337972
5.86865e-06
-0.000343937
5.96486e-06
-0.00035
6.06253e-06
-0.000356162
6.16166e-06
-0.000362424
6.26227e-06
-0.000368789
6.36439e-06
-0.000375257
6.46802e-06
-0.000381831
6.57317e-06
-0.000388511
6.67987e-06
-0.0003953
6.78813e-06
-0.000402198
6.89796e-06
-0.000409208
7.00938e-06
-0.000416331
7.1224e-06
-0.000423568
7.23703e-06
-0.000430922
7.35329e-06
-0.000438393
7.47121e-06
-0.000445984
7.59078e-06
-0.000453697
7.71203e-06
-0.000461532
7.83498e-06
-0.000469492
7.95963e-06
-0.000477579
8.08599e-06
-0.000485793
8.21409e-06
-0.000494138
8.34392e-06
-0.000502614
8.4755e-06
-0.000511223
8.60884e-06
-0.000519967
8.74396e-06
-0.000528849
8.88085e-06
-0.000537869
9.01954e-06
-0.000547029
9.16004e-06
-0.000556332
9.30236e-06
-0.000565779
9.4465e-06
-0.000575372
9.59249e-06
-0.000585113
9.74032e-06
-0.000595003
9.89e-06
-0.000605045
1.00415e-05
-0.000615241
1.01949e-05
-0.000625591
1.03502e-05
-0.000636099
1.05073e-05
-0.000646766
1.06664e-05
-0.000657594
1.08272e-05
-0.000668584
1.099e-05
-0.000679739
1.11547e-05
-0.000691061
1.13212e-05
-0.000702551
1.14896e-05
-0.000714212
1.16599e-05
-0.000726045
1.18321e-05
-0.000738051
1.20062e-05
-0.000750234
1.21822e-05
-0.000762595
1.236e-05
-0.000775135
1.25396e-05
-0.000787857
1.27212e-05
-0.000800762
1.29045e-05
-0.000813852
1.30897e-05
-0.000827129
1.32767e-05
-0.000840595
1.34655e-05
-0.000854252
1.36562e-05
-0.000868101
1.38485e-05
-0.000882145
1.40427e-05
-0.000896384
1.42386e-05
-0.000910821
1.44362e-05
-0.000925457
1.46355e-05
-0.000940294
1.48364e-05
-0.000955334
1.5039e-05
-0.000970577
1.52432e-05
-0.000986027
1.5449e-05
-0.00100168
1.56564e-05
-0.00101755
1.58653e-05
-0.00103363
1.60756e-05
-0.00104991
1.62874e-05
-0.00106642
1.65006e-05
-0.00108313
1.67151e-05
-0.00110006
1.6931e-05
-0.00111721
1.71481e-05
-0.00113458
1.73664e-05
-0.00115217
1.75859e-05
-0.00116997
1.78065e-05
-0.001188
1.80282e-05
-0.00120625
1.82508e-05
-0.00122473
1.84743e-05
-0.00124343
1.86987e-05
-0.00126235
1.89239e-05
-0.0012815
1.91498e-05
-0.00130088
1.93763e-05
-0.00132048
1.96034e-05
-0.00134032
1.98309e-05
-0.00136038
2.00589e-05
-0.00138066
2.02871e-05
-0.00140118
2.05156e-05
-0.00142192
2.07441e-05
-0.0014429
2.09727e-05
-0.0014641
2.12012e-05
-0.00148553
2.14294e-05
-0.00150719
2.16574e-05
-0.00152907
2.18849e-05
-0.00155119
2.21119e-05
-0.00157353
2.23382e-05
-0.00159609
2.25637e-05
-0.00161888
2.27882e-05
-0.00164189
2.30117e-05
-0.00166513
2.32339e-05
-0.00168858
2.34548e-05
-0.00171226
2.36742e-05
-0.00173615
2.38919e-05
-0.00176026
2.41078e-05
-0.00178458
2.43217e-05
-0.00180911
2.45334e-05
-0.00183386
2.47428e-05
-0.00185881
2.49496e-05
-0.00188396
2.51537e-05
-0.00190932
2.53549e-05
-0.00193487
2.5553e-05
-0.00196062
2.57478e-05
-0.00198656
2.59391e-05
-0.00201269
2.61266e-05
-0.002039
2.63103e-05
-0.00206549
2.64897e-05
-0.00209215
2.66647e-05
-0.00211899
2.68351e-05
-0.00214599
2.70006e-05
-0.00217315
2.7161e-05
-0.00220047
2.7316e-05
-0.00222794
2.74653e-05
-0.00225554
2.76087e-05
-0.00228329
2.77459e-05
-0.00231117
2.78767e-05
-0.00233917
2.80006e-05
-0.00236729
2.81176e-05
-0.00239551
2.82271e-05
-0.00242384
2.8329e-05
-0.00245227
2.84229e-05
-0.00248078
2.85085e-05
-0.00250936
2.85855e-05
-0.00253802
2.86535e-05
-0.00256673
2.87122e-05
-0.00259549
2.87613e-05
-0.00262429
2.88004e-05
-0.00265312
2.88291e-05
-0.00268197
2.88471e-05
-0.00271082
2.88539e-05
-0.00273967
2.88492e-05
-0.00276851
2.88326e-05
-0.00279731
2.88037e-05
-0.00282607
2.8762e-05
-0.00285478
2.87071e-05
-0.00288342
2.86387e-05
-0.00291198
2.85562e-05
-0.00294044
2.84593e-05
-0.00296878
2.83474e-05
-0.002997
2.82201e-05
-0.00302508
2.80769e-05
-0.003053
2.79174e-05
-0.00308074
2.77411e-05
-0.00310829
2.75476e-05
-0.00313563
2.73362e-05
-0.00316273
2.71065e-05
-0.00318959
2.68581e-05
-0.00321618
2.65903e-05
-0.00324248
2.63027e-05
-0.00326848
2.59947e-05
-0.00329415
2.56659e-05
-0.00331946
2.53156e-05
-0.00334441
2.49434e-05
-0.00336896
2.45486e-05
-0.00339309
2.41307e-05
-0.00341678
2.3689e-05
-0.00344
2.32231e-05
-0.00346273
2.27322e-05
-0.00348495
2.22158e-05
-0.00350662
2.16733e-05
-0.00352773
2.1104e-05
-0.00354823
2.05074e-05
-0.00356812
1.98829e-05
-0.00358735
1.92299e-05
-0.0036059
1.85477e-05
-0.00362373
1.78358e-05
-0.00364083
1.70936e-05
-0.00365715
1.63205e-05
-0.00367266
1.5516e-05
-0.00368734
1.46794e-05
-0.00370115
1.38101e-05
-0.00371406
1.29076e-05
-0.00372603
1.19712e-05
-0.00373703
1.10003e-05
-0.00374703
9.99436e-06
-0.00375598
8.95282e-06
-0.00376386
7.87513e-06
-0.00377062
6.76082e-06
-0.00377623
5.60945e-06
-0.00378065
4.4207e-06
-0.00378384
3.19441e-06
-0.00378577
1.93096e-06
-0.00378641
6.33556e-07
-0.00378568
-7.23074e-07
-0.00378355
-2.13055e-06
-0.00378003
-3.52626e-06
-0.00377504
-4.9862e-06
-0.00376854
-6.50031e-06
-0.00376051
-8.02843e-06
-0.0037509
-9.60777e-06
-0.00373967
-1.12316e-05
-0.00372678
-1.28905e-05
-0.0037122
-1.45808e-05
-0.00369588
-1.63142e-05
-0.00367779
-1.80917e-05
-0.0036579
-1.98905e-05
-0.00363617
-2.17304e-05
-0.00361256
-2.36107e-05
-0.00358704
-2.55179e-05
-0.00355959
-2.74524e-05
-0.00353017
-2.94196e-05
-0.00349875
-3.14211e-05
-0.00346531
-3.34388e-05
-0.00342983
-3.54799e-05
-0.00339228
-3.75429e-05
-0.00335265
-3.96283e-05
-0.00331093
-4.172e-05
-0.00326711
-4.38217e-05
-0.00322117
-4.59327e-05
-0.00317312
-4.80522e-05
-0.00312295
-5.01689e-05
-0.00307067
-5.22766e-05
-0.00301629
-5.43805e-05
-0.00295981
-5.64756e-05
-0.00290125
-5.85594e-05
-0.00284063
-6.062e-05
-0.00277797
-6.26597e-05
-0.00271329
-6.46753e-05
-0.00264663
-6.66633e-05
-0.00257801
-6.86215e-05
-0.00250746
-7.05396e-05
-0.00243504
-7.24194e-05
-0.00236078
-7.42582e-05
-0.00228473
-7.60528e-05
-0.00220693
-7.78023e-05
-0.00212743
-7.94989e-05
-0.00204628
-8.11407e-05
-0.00196355
-8.27308e-05
-0.00187928
-8.42669e-05
-0.00179353
-8.57474e-05
-0.00170636
-8.71691e-05
-0.00161783
-8.853e-05
-0.001528
-8.98339e-05
-0.00143692
-9.10794e-05
-0.00134465
-9.22665e-05
-0.00125125
-9.33958e-05
-0.00115679
-9.44632e-05
-0.00106131
-9.54739e-05
-0.000964881
-9.64275e-05
-0.000867555
-9.73243e-05
-0.000769388
-9.81654e-05
-0.000670439
-9.8946e-05
-0.00057077
-9.96657e-05
-0.000470448
-0.000100319
-0.000369536
-0.000100909
-0.000268021
-0.000101512
-0.000165903
-0.000102116
-6.32692e-05
-0.000102631
3.98036e-05
-0.000103071
0.000143269
-0.000103463
0.000247086
-0.000103815
0.000351246
-0.000104158
0.000455701
-0.000104453
0.000560323
-0.000104621
0.000665027
-0.000104702
0.000769783
-0.000104754
0.00087455
-0.000104766
0.000979279
-0.000104727
0.00108392
-0.00010464
0.00118842
-0.000104503
0.00129273
-0.000104312
0.0013968
-0.000104069
0.00150057
-0.000103768
0.00160398
-0.000103413
0.00170698
-0.000103002
0.00180952
-0.000102533
0.00191152
-0.000102008
0.00201294
-0.000101418
0.00211371
-0.000100765
0.00221376
-0.000100049
0.00231303
-9.92679e-05
0.00241144
-9.84177e-05
0.00250894
-9.74957e-05
0.00260544
-9.65009e-05
0.00270087
-9.54298e-05
0.00279515
-9.42824e-05
0.0028882
-9.30494e-05
0.00297994
-9.17345e-05
0.00307028
-9.03365e-05
0.00315913
-8.8851e-05
0.00324637
-8.72435e-05
0.00333197
-8.5602e-05
0.00341582
-8.38515e-05
0.00349778
-8.19596e-05
0.00357777
-7.99794e-05
0.00365566
-7.78916e-05
0.00373136
-7.56945e-05
0.00380475
-7.33878e-05
0.0038757
-7.09664e-05
0.00394414
-6.84309e-05
0.00400992
-6.57809e-05
0.00407294
-6.30149e-05
0.00413307
-6.01238e-05
0.00419018
-5.7109e-05
0.00424416
-5.39823e-05
0.00429488
-5.07227e-05
0.00434223
-4.73597e-05
0.00438611
-4.38786e-05
0.0044264
-4.02897e-05
0.00446299
-3.65855e-05
0.00449576
-3.27621e-05
0.00452459
-2.88339e-05
0.00454938
-2.47833e-05
0.00457001
-2.06356e-05
0.00458644
-1.64297e-05
0.00459854
-1.20951e-05
0.00460619
-7.6539e-06
0.00460934
-3.15471e-06
0.00460777
1.57527e-06
0.00460158
6.19682e-06
0.00459068
1.0902e-05
0.00457493
1.57437e-05
0.00455435
2.05824e-05
0.00452887
2.54797e-05
0.00449842
3.04446e-05
0.00446297
3.54526e-05
0.00442249
4.04761e-05
0.00437699
4.55116e-05
0.00432645
5.05414e-05
0.00427087
5.55762e-05
0.00421028
6.05995e-05
0.00414468
6.55907e-05
0.00407414
7.05438e-05
0.00399871
7.54325e-05
0.00391847
8.02456e-05
0.00383349
8.49804e-05
0.0037439
8.95899e-05
0.00364981
9.40895e-05
0.00355135
9.84575e-05
0.0034487
0.000102653
0.00334201
0.00010669
0.0032315
0.000110514
0.00311734
0.000114156
0.00299978
0.000117564
0.00287904
0.000120738
0.0027554
0.000123642
0.00262912
0.000126276
0.0025005
0.000128622
0.00236983
0.000130666
0.00223744
0.000132393
0.00210364
0.0001338
0.00196876
0.000134881
0.00183315
0.000135613
0.00169713
0.000136018
0.00156107
0.000136068
0.00142529
0.000135778
0.00129016
0.000135124
0.00115604
0.000134123
0.00102327
0.000132769
0.000892213
0.000131057
0.000763214
0.000128999
0.000636597
0.000126617
0.000512669
0.000123928
0.000391773
0.000120896
0.000274143
0.000117631
0.000160007
0.000114136
4.96238e-05
0.000110384
-5.67212e-05
0.000106344
-0.000158688
0.000101967
-0.000256293
9.76048e-05
-0.000349138
9.28453e-05
-0.000436986
8.78466e-05
-0.000519768
8.27799e-05
-0.0005971
7.73298e-05
-0.000669195
7.20936e-05
-0.00073583
6.66312e-05
-0.000796872
6.10387e-05
-0.000852369
5.54945e-05
-0.000902028
4.96576e-05
-0.000946027
4.39974e-05
-0.000984371
3.83406e-05
-0.001017
3.26218e-05
-0.0010439
2.69021e-05
-0.00106515
2.12373e-05
-0.00108086
1.57086e-05
-0.001091
1.01431e-05
-0.00109574
4.74179e-06
-0.00109521
-5.34414e-07
-0.00108959
-5.62902e-06
-0.0010791
-1.04861e-05
-0.00106394
-1.51664e-05
-0.00104411
-1.98154e-05
-0.00102005
-2.40593e-05
-0.000991893
-2.81518e-05
-0.00096002
-3.1867e-05
-0.000924604
-3.54103e-05
-0.000886025
-3.85762e-05
-0.000844458
-4.15685e-05
-0.000800176
-4.42871e-05
-0.000753465
-4.67168e-05
-0.000704596
-4.88743e-05
-0.000653845
-5.07545e-05
-0.000601431
-5.24168e-05
-0.000547694
-5.3738e-05
-0.000492907
-5.47835e-05
-0.000437382
-5.55186e-05
-0.00038137
-5.60054e-05
-0.000325168
-5.61984e-05
-0.000269106
-5.60656e-05
-0.000213485
-5.56277e-05
-0.000158672
-5.48176e-05
-0.000104916
-5.3755e-05
-5.27296e-05
-5.218e-05
-2.23865e-06
-5.04833e-05
4.62716e-05
-4.85057e-05
9.25979e-05
-4.63266e-05
0.00013616
-4.35664e-05
0.000177002
-4.08473e-05
0.000214871
-3.78729e-05
0.000249426
-3.45579e-05
0.00028043
-3.1005e-05
0.000307935
-2.75052e-05
0.0003317
-2.37652e-05
0.00035157
-1.987e-05
0.000367449
-1.58798e-05
0.000379557
-1.21105e-05
0.0003877
-8.14681e-06
0.000391617
-3.91985e-06
0.000391651
-3.39604e-08
0.000387617
4.03471e-06
0.000379567
8.05045e-06
0.000367628
1.19393e-05
0.000352148
1.54794e-05
0.000332892
1.92549e-05
0.000309759
2.31331e-05
0.000282896
2.68626e-05
0.00025181
3.1086e-05
0.000216795
3.50169e-05
0.000175863
4.09339e-05
0.000136182
3.96829e-05
0.000117619
1.8563e-05
0.000106173
1.14441e-05
7.16011e-05
3.45694e-05
2.67921e-05
4.48067e-05
-1.82324e-05
4.50228e-05
-5.58476e-05
3.76139e-05
-7.12609e-05
1.54127e-05
-8.97285e-05
1.84681e-05
-0.000129395
3.9669e-05
-0.000173284
4.38914e-05
-0.000211677
3.83964e-05
-0.000246087
3.44107e-05
-0.000276524
3.04357e-05
-0.000303225
2.66989e-05
-0.00032613
2.29018e-05
-0.000345043
1.89111e-05
-0.000360182
1.51376e-05
-0.000370997
1.0813e-05
-0.000377489
6.49089e-06
-0.000379767
2.27714e-06
-0.000377704
-2.06258e-06
-0.000371227
-6.47546e-06
-0.000360308
-1.09169e-05
-0.000344713
-1.55941e-05
-0.000324546
-2.01656e-05
-0.000300426
-2.41195e-05
-0.000271918
-2.85083e-05
-0.000239284
-3.26348e-05
-0.000202977
-3.63066e-05
-0.000162785
-4.01933e-05
-0.000119483
-4.33038e-05
-7.31614e-05
-4.63227e-05
-2.35691e-05
-4.9592e-05
2.82576e-05
-5.18251e-05
8.23282e-05
-5.40696e-05
0.000138159
-5.58318e-05
0.000195502
-5.7343e-05
0.000253845
-5.83409e-05
0.000312837
-5.89891e-05
0.000372146
-5.9308e-05
0.000431382
-5.92361e-05
0.000490257
-5.88756e-05
0.000548306
-5.80473e-05
0.000605245
-5.69386e-05
0.000660638
-5.53926e-05
0.000714159
-5.35216e-05
0.000765547
-5.13879e-05
0.000814419
-4.88709e-05
0.000860481
-4.60595e-05
0.00090332
-4.28372e-05
0.000942716
-3.93952e-05
0.000978284
-3.55687e-05
0.00100966
-3.13771e-05
0.00103659
-2.69249e-05
0.00105858
-2.19929e-05
0.00107541
-1.68341e-05
0.00108681
-1.13956e-05
0.00109244
-5.62967e-06
0.00109203
4.05574e-07
0.00108564
6.39438e-06
0.00107279
1.28571e-05
0.00105339
1.93981e-05
0.00102771
2.56838e-05
0.000995072
3.26361e-05
0.000955826
3.92463e-05
0.000909672
4.61544e-05
0.00085689
5.27822e-05
0.000797377
5.95134e-05
0.000730737
6.66407e-05
0.000657928
7.28114e-05
0.000578416
7.95144e-05
0.000492418
8.59994e-05
0.000400032
9.23885e-05
0.000301407
9.86261e-05
0.000196796
0.000104613
8.66695e-05
0.000110127
-2.90532e-05
0.000115723
-0.000149861
0.000120808
-0.000275476
0.000125615
-0.00040553
0.000130053
-0.000539759
0.000134227
-0.000677835
0.000138075
-0.000819346
0.000141511
-0.000963796
0.000144451
-0.00111077
0.000146973
-0.00125983
0.000149068
-0.00141055
0.000150716
-0.00156246
0.000151921
-0.00171502
0.00015256
-0.00186774
0.000152721
-0.00202011
0.000152373
-0.00217168
0.000151564
-0.00232191
0.00015023
-0.00247038
0.000148477
-0.00261655
0.00014617
-0.00276001
0.000143459
-0.00290026
0.000140241
-0.00303687
0.000136614
-0.00316944
0.00013257
-0.00329759
0.000128146
-0.00342096
0.000123367
-0.0035392
0.000118242
-0.00365197
0.000112783
-0.00375901
0.000107041
-0.00386003
0.000101009
-0.00395481
9.47788e-05
-0.00404316
8.8351e-05
-0.00412489
8.17247e-05
-0.00419982
7.49307e-05
-0.00426789
6.80708e-05
-0.00432897
6.10791e-05
-0.00438304
5.4078e-05
-0.00443003
4.70125e-05
-0.00447001
3.99784e-05
-0.00450302
3.30045e-05
-0.00452904
2.60084e-05
-0.00454809
1.90503e-05
-0.00456034
1.22468e-05
-0.00456582
5.47977e-06
-0.00456462
-1.17955e-06
-0.00455697
-7.64747e-06
-0.004543
-1.39767e-05
-0.00452285
-2.0156e-05
-0.00449666
-2.6203e-05
-0.00446456
-3.21001e-05
-0.00442678
-3.77822e-05
-0.00438347
-4.33067e-05
-0.00433485
-4.86261e-05
-0.00428105
-5.37824e-05
-0.00422235
-5.86972e-05
-0.00415885
-6.34962e-05
-0.00409072
-6.81403e-05
-0.0040181
-7.26232e-05
-0.00394124
-7.68581e-05
-0.00386035
-8.08917e-05
-0.00377563
-8.47155e-05
-0.00368729
-8.83445e-05
-0.00359543
-9.18591e-05
-0.00350023
-9.519e-05
-0.00340194
-9.82899e-05
-0.0033007
-0.000101235
-0.00319672
-0.000103987
-0.00309015
-0.000106572
-0.00298121
-0.000108934
-0.00287004
-0.000111176
-0.0027567
-0.000113339
-0.00264149
-0.000115208
-0.00252458
-0.000116912
-0.00240611
-0.000118459
-0.00228623
-0.000119874
-0.00216509
-0.000121141
-0.00204278
-0.000122308
-0.00191947
-0.00012331
-0.00179543
-0.000124043
-0.00167065
-0.000124782
-0.0015453
-0.00012535
-0.00141952
-0.000125776
-0.00129345
-0.000126067
-0.00116714
-0.000126312
-0.00104072
-0.000126417
-0.000914353
-0.000126369
-0.000788072
-0.000126284
-0.000661969
-0.000126103
-0.000536072
-0.000125897
-0.000410723
-0.000125349
-0.000285927
-0.000124795
-0.000161788
-0.000124141
-3.83228e-05
-0.000123466
8.43896e-05
-0.000122714
0.000206298
-0.000121909
0.000327256
-0.000120959
0.000447159
-0.000119903
0.000566026
-0.000118869
0.000683865
-0.000117841
0.000800592
-0.00011673
0.000916127
-0.000115534
0.00103037
-0.000114248
0.00114327
-0.000112896
0.00125474
-0.000111473
0.00136468
-0.000109941
0.001473
-0.000108323
0.00157962
-0.000106618
0.00168444
-0.000104823
0.00178738
-0.000102942
0.00188836
-0.000100986
0.0019873
-9.89399e-05
0.00208409
-9.67943e-05
0.00217866
-9.45658e-05
0.00227093
-9.22698e-05
0.00236081
-8.98723e-05
0.00244819
-8.73857e-05
0.00253301
-8.48152e-05
0.00261518
-8.21708e-05
0.00269463
-7.94495e-05
0.0027713
-7.66747e-05
0.00284512
-7.38248e-05
0.00291604
-7.09133e-05
0.002984
-6.79631e-05
0.00304899
-6.49761e-05
0.00311093
-6.19443e-05
0.00316979
-5.88586e-05
0.00322554
-5.57517e-05
0.00327816
-5.26163e-05
0.00332763
-4.94681e-05
0.00337395
-4.63226e-05
0.0034171
-4.3155e-05
0.00345711
-4.00113e-05
0.003494
-3.6884e-05
0.00352776
-3.37621e-05
0.00355844
-3.06727e-05
0.00358604
-2.76058e-05
0.00361063
-2.45827e-05
0.00363225
-2.16209e-05
0.00365093
-1.86834e-05
0.00366675
-1.58206e-05
0.00367977
-1.30204e-05
0.00369004
-1.02693e-05
0.00369765
-7.60421e-06
0.00370264
-4.99187e-06
0.00370512
-2.47469e-06
0.00370512
-1.58102e-09
0.00370275
2.3688e-06
0.00369809
4.6648e-06
0.0036912
6.88606e-06
0.00368217
9.02701e-06
0.00367108
1.10875e-05
0.00365802
1.30695e-05
0.00364304
1.49762e-05
0.00362623
1.68126e-05
0.00360765
1.8579e-05
0.00358737
2.02746e-05
0.00356547
2.19015e-05
0.00354201
2.34633e-05
0.00351705
2.49581e-05
0.00349067
2.63889e-05
0.00346291
2.77546e-05
0.00343386
2.90529e-05
0.00340357
3.02897e-05
0.00337211
3.14651e-05
0.00333953
3.25777e-05
0.0033059
3.36284e-05
0.00327128
3.46185e-05
0.00323573
3.55475e-05
0.00319932
3.64162e-05
0.00316209
3.72257e-05
0.00312412
3.79758e-05
0.00308545
3.86659e-05
0.00304616
3.9297e-05
0.00300629
3.98692e-05
0.0029659
4.03855e-05
0.00292505
4.08466e-05
0.0028838
4.12537e-05
0.00284219
4.16079e-05
0.00280029
4.19105e-05
0.00275813
4.21633e-05
0.00271576
4.23675e-05
0.00267324
4.25251e-05
0.0026306
4.26387e-05
0.00258789
4.271e-05
0.00254515
4.27413e-05
0.00250242
4.27329e-05
0.00245973
4.26863e-05
0.00241713
4.26031e-05
0.00237464
4.24865e-05
0.00233231
4.23388e-05
0.00229014
4.21618e-05
0.00224819
4.19562e-05
0.00220647
4.17234e-05
0.00216501
4.14648e-05
0.00212382
4.11821e-05
0.00208295
4.08767e-05
0.0020424
4.05504e-05
0.00200219
4.02049e-05
0.00196235
3.98417e-05
0.00192289
3.94618e-05
0.00188382
3.90661e-05
0.00184517
3.8656e-05
0.00180694
3.82326e-05
0.00176914
3.77969e-05
0.00173179
3.73496e-05
0.0016949
3.68915e-05
0.00165848
3.64241e-05
0.00162253
3.59485e-05
0.00158706
3.54658e-05
0.00155209
3.49764e-05
0.00151761
3.4481e-05
0.00148362
3.39804e-05
0.00145015
3.34753e-05
0.00141718
3.29667e-05
0.00138473
3.2455e-05
0.00135279
3.19408e-05
0.00132136
3.14247e-05
0.00129046
3.09076e-05
0.00126007
3.03901e-05
0.00123019
2.98727e-05
0.00120084
2.93558e-05
0.001172
2.88396e-05
0.00114367
2.83244e-05
0.00111586
2.78107e-05
0.00108856
2.72988e-05
0.00106177
2.67894e-05
0.00103549
2.6283e-05
0.00100971
2.578e-05
0.000984429
2.52806e-05
0.000959644
2.47851e-05
0.000935351
2.42934e-05
0.000911545
2.38059e-05
0.000888222
2.33228e-05
0.000865377
2.28443e-05
0.000843005
2.23709e-05
0.000821102
2.19028e-05
0.000799662
2.144e-05
0.000778679
2.09828e-05
0.000758148
2.05313e-05
0.000738062
2.00854e-05
0.000718417
1.96454e-05
0.000699205
1.92114e-05
0.000680421
1.87834e-05
0.000662059
1.83617e-05
0.000644112
1.79463e-05
0.000626575
1.75372e-05
0.00060944
1.71345e-05
0.000592702
1.67382e-05
0.000576354
1.63484e-05
0.000560388
1.5965e-05
0.0005448
1.55882e-05
0.000529582
1.52179e-05
0.000514728
1.48541e-05
0.000500231
1.44967e-05
0.000486085
1.41459e-05
0.000472284
1.38016e-05
0.00045882
1.34638e-05
0.000445687
1.31324e-05
0.00043288
1.28073e-05
0.000420391
1.24887e-05
0.000408214
1.21764e-05
0.000396344
1.18704e-05
0.000384773
1.15706e-05
0.000373496
1.1277e-05
0.000362506
1.09896e-05
0.000351798
1.07082e-05
0.000341365
1.04328e-05
0.000331201
1.01634e-05
0.000321301
9.89991e-06
0.000311659
9.6422e-06
0.000302269
9.39023e-06
0.000293125
9.14394e-06
0.000284222
8.90327e-06
0.000275553
8.66814e-06
0.000267115
8.43848e-06
0.000258901
8.21419e-06
0.000250905
7.99521e-06
0.000243124
7.78145e-06
0.000235551
7.57286e-06
0.000228181
7.36936e-06
0.000221011
7.17088e-06
0.000214033
6.97733e-06
0.000207244
6.78863e-06
0.00020064
6.6047e-06
0.000194214
6.42545e-06
0.000187963
6.25083e-06
0.000181882
6.08077e-06
0.000175967
5.91518e-06
0.000170213
5.75399e-06
0.000164616
5.5971e-06
0.000159172
5.44446e-06
0.000153875
5.29599e-06
0.000148724
5.15164e-06
0.000143712
5.01133e-06
0.000138837
4.87498e-06
0.000134095
4.74252e-06
0.000129481
4.61387e-06
0.000124992
4.48898e-06
0.000120624
4.36779e-06
0.000116374
4.25024e-06
0.000112238
4.13625e-06
0.000108212
4.02577e-06
0.000104293
3.91871e-06
0.000100478
3.81502e-06
9.67632e-05
3.71464e-06
9.31457e-05
3.61752e-06
8.9622e-05
3.52362e-06
8.61891e-05
3.43287e-06
8.28439e-05
3.34522e-06
7.95832e-05
3.26061e-06
7.64042e-05
3.17899e-06
7.33039e-05
3.10032e-06
7.02793e-05
3.02455e-06
6.73276e-05
2.95165e-06
6.4446e-05
2.88154e-06
6.16318e-05
2.8142e-06
5.88822e-05
2.74956e-06
5.61946e-05
2.68759e-06
5.35663e-05
2.62827e-06
5.09947e-05
2.57156e-06
4.84772e-05
2.51742e-06
4.60114e-05
2.46582e-06
4.35946e-05
2.41674e-06
4.12245e-05
2.37013e-06
3.88985e-05
2.32595e-06
3.66143e-05
2.28418e-06
3.43694e-05
2.24481e-06
3.21616e-05
2.20781e-06
2.99884e-05
2.17316e-06
2.78475e-05
2.14084e-06
2.57367e-05
2.11083e-06
2.36535e-05
2.08311e-06
2.15958e-05
2.05765e-06
1.95613e-05
2.03445e-06
1.75478e-05
2.0135e-06
1.5553e-05
1.99479e-06
1.35746e-05
1.97832e-06
1.16106e-05
1.96407e-06
9.6585e-06
1.95203e-06
7.71633e-06
1.94213e-06
5.78172e-06
1.93458e-06
3.85217e-06
1.92952e-06
1.92576e-06
1.92638e-06
1.92574e-06
-5.27297e-07
1.73899e-06
-1.6228e-06
2.13184e-06
-2.75881e-06
2.06277e-06
-3.82103e-06
1.99261e-06
-4.83418e-06
1.94449e-06
-5.8151e-06
1.90525e-06
-6.78084e-06
1.88386e-06
-7.73961e-06
1.87401e-06
-8.69703e-06
1.87335e-06
-9.65608e-06
1.87875e-06
-1.06185e-05
1.88815e-06
-1.15851e-05
1.90001e-06
-1.25569e-05
1.91327e-06
-1.35341e-05
1.92803e-06
-1.4517e-05
1.94356e-06
-1.5506e-05
1.95945e-06
-1.65016e-05
1.97559e-06
-1.75039e-05
1.99174e-06
-1.85136e-05
2.00837e-06
-1.95304e-05
2.02418e-06
-2.05547e-05
2.04048e-06
-2.15866e-05
2.05664e-06
-2.26257e-05
2.0723e-06
-2.36732e-05
2.08893e-06
-2.47287e-05
2.10517e-06
-2.57923e-05
2.12189e-06
-2.68643e-05
2.13898e-06
-2.7945e-05
2.15653e-06
-2.90346e-05
2.17459e-06
-3.01335e-05
2.19325e-06
-3.12419e-05
2.21252e-06
-3.23602e-05
2.23246e-06
-3.34888e-05
2.25309e-06
-3.46279e-05
2.27445e-06
-3.5778e-05
2.29656e-06
-3.69394e-05
2.31945e-06
-3.81126e-05
2.34312e-06
-3.92978e-05
2.36759e-06
-4.04955e-05
2.39286e-06
-4.1706e-05
2.41894e-06
-4.29299e-05
2.44583e-06
-4.41675e-05
2.47353e-06
-4.54192e-05
2.50204e-06
-4.66854e-05
2.53135e-06
-4.79666e-05
2.56145e-06
-4.92631e-05
2.59236e-06
-5.05754e-05
2.62408e-06
-5.19039e-05
2.6566e-06
-5.3249e-05
2.68993e-06
-5.46111e-05
2.72408e-06
-5.59907e-05
2.75906e-06
-5.73881e-05
2.79486e-06
-5.88038e-05
2.83152e-06
-6.02382e-05
2.86903e-06
-6.16919e-05
2.90741e-06
-6.31651e-05
2.94668e-06
-6.46584e-05
2.98685e-06
-6.61723e-05
3.02793e-06
-6.77071e-05
3.06995e-06
-6.92635e-05
3.11291e-06
-7.08418e-05
3.15683e-06
-7.24425e-05
3.20173e-06
-7.40662e-05
3.24761e-06
-7.57133e-05
3.29449e-06
-7.73843e-05
3.34239e-06
-7.90798e-05
3.39132e-06
-8.08003e-05
3.44128e-06
-8.25463e-05
3.4923e-06
-8.43184e-05
3.54439e-06
-8.6117e-05
3.59757e-06
-8.79427e-05
3.65184e-06
-8.97962e-05
3.70722e-06
-9.16779e-05
3.76374e-06
-9.35885e-05
3.8214e-06
-9.55284e-05
3.88023e-06
-9.74984e-05
3.94024e-06
-9.94989e-05
4.00145e-06
-0.000101531
4.06387e-06
-0.000103594
4.12753e-06
-0.00010569
4.19244e-06
-0.000107819
4.25861e-06
-0.000109982
4.32607e-06
-0.00011218
4.39482e-06
-0.000114412
4.4649e-06
-0.00011668
4.5363e-06
-0.000118984
4.60906e-06
-0.000121326
4.68319e-06
-0.000123705
4.75872e-06
-0.000126122
4.83565e-06
-0.000128579
4.91402e-06
-0.000131076
4.99385e-06
-0.000133613
5.07514e-06
-0.000136192
5.15793e-06
-0.000138813
5.24224e-06
-0.000141477
5.32808e-06
-0.000144184
5.41548e-06
-0.000146936
5.50445e-06
-0.000149734
5.59502e-06
-0.000152577
5.68722e-06
-0.000155467
5.78106e-06
-0.000158405
5.87656e-06
-0.000161392
5.97376e-06
-0.000164428
6.07267e-06
-0.000167515
6.17333e-06
-0.000170652
6.27575e-06
-0.000173842
6.37995e-06
-0.000177085
6.48597e-06
-0.000180381
6.59382e-06
-0.000183733
6.70354e-06
-0.00018714
6.81513e-06
-0.000190604
6.92864e-06
-0.000194126
7.04407e-06
-0.000197707
7.16147e-06
-0.000201347
7.28086e-06
-0.000205048
7.40226e-06
-0.00020881
7.52571e-06
-0.000212636
7.65123e-06
-0.000216525
7.77886e-06
-0.000220479
7.9086e-06
-0.000224499
8.0405e-06
-0.000228586
8.17459e-06
-0.000232741
8.31087e-06
-0.000236965
8.44939e-06
-0.00024126
8.59018e-06
-0.000245626
8.73326e-06
-0.000250065
8.87866e-06
-0.000254578
9.02642e-06
-0.000259166
9.17656e-06
-0.000263831
9.32911e-06
-0.000268572
9.48412e-06
-0.000273393
9.64159e-06
-0.000278293
9.80158e-06
-0.000283275
9.96409e-06
-0.000288339
1.01292e-05
-0.000293487
1.02968e-05
-0.00029872
1.04671e-05
-0.00030404
1.06401e-05
-0.000309448
1.08157e-05
-0.000314944
1.0994e-05
-0.000320531
1.11751e-05
-0.000326211
1.1359e-05
-0.000331983
1.15457e-05
-0.00033785
1.17352e-05
-0.000343814
1.19276e-05
-0.000349875
1.21229e-05
-0.000356035
1.23211e-05
-0.000362296
1.25223e-05
-0.000368659
1.27265e-05
-0.000375125
1.29338e-05
-0.000381697
1.3144e-05
-0.000388375
1.33574e-05
-0.000395161
1.35739e-05
-0.000402058
1.37935e-05
-0.000409065
1.40163e-05
-0.000416186
1.42423e-05
-0.000423421
1.44716e-05
-0.000430773
1.47041e-05
-0.000438243
1.49399e-05
-0.000445832
1.5179e-05
-0.000453542
1.54215e-05
-0.000461375
1.56673e-05
-0.000469333
1.59166e-05
-0.000477417
1.61693e-05
-0.000485629
1.64254e-05
-0.000493971
1.66851e-05
-0.000502445
1.69482e-05
-0.000511052
1.72148e-05
-0.000519794
1.7485e-05
-0.000528672
1.77588e-05
-0.00053769
1.80361e-05
-0.000546848
1.83171e-05
-0.000556148
1.86017e-05
-0.000565593
1.889e-05
-0.000575183
1.91819e-05
-0.000584921
1.94775e-05
-0.000594809
1.97769e-05
-0.000604848
2.00799e-05
-0.000615041
2.03867e-05
-0.000625389
2.06971e-05
-0.000635894
2.10114e-05
-0.000646558
2.13294e-05
-0.000657383
2.16511e-05
-0.000668371
2.19766e-05
-0.000679523
2.23059e-05
-0.000690842
2.26389e-05
-0.000702329
2.29758e-05
-0.000713987
2.33164e-05
-0.000725816
2.36607e-05
-0.00073782
2.40088e-05
-0.00075
2.43607e-05
-0.000762357
2.47163e-05
-0.000774894
2.50756e-05
-0.000787613
2.54386e-05
-0.000800514
2.58053e-05
-0.000813602
2.61756e-05
-0.000826876
2.65496e-05
-0.000840339
2.69272e-05
-0.000853992