/*--------------------------------*- C++ -*----------------------------------*\
| =========                 |                                                 |
| \\      /  F ield         | OpenFOAM: The Open Source CFD Toolbox           |
|  \\    /   O peration     | Version:  2412                                  |
|   \\  /    A nd           | Website:  www.openfoam.com                      |
|    \\/     M anipulation  |                                                 |
\*---------------------------------------------------------------------------*/
FoamFile
{
    version     2.0;
    format      ascii;
    arch        "LSB;label=32;scalar=64";
    class       volScalarField;
    location    "9.16";
    object      p_rgh;
}
// * * * * * * * * * * * * * * * * * * * * * * * * * * * * * * * * * * * * * //

dimensions      [1 -1 -2 0 0 0 0];

internalField   nonuniform List<scalar> 
80000
(
28662.7
28662.8
28663
28663.3
28663.7
28664.2
28664.8
28665.6
28666.4
28667.3
28668.4
28669.5
28670.8
28672.2
28673.7
28675.3
28677
28678.8
28680.8
28682.8
28685
28687.4
28689.8
28692.4
28695.1
28697.9
28700.9
28703.9
28707.2
28710.5
28714
28717.7
28721.5
28725.4
28729.5
28733.7
28738.1
28742.7
28747.4
28752.3
28757.4
28762.6
28768
28773.5
28779.3
28785.2
28791.3
28797.7
28804.2
28810.9
28817.8
28824.9
28832.2
28839.7
28847.4
28855.4
28863.6
28872
28880.6
28889.5
28898.6
28908
28917.6
28927.5
28937.6
28948
28958.6
28969.5
28980.7
28992.2
29003.9
29015.9
29028.2
29040.8
29053.7
29066.9
29080.4
29094.3
29108.4
29122.8
29137.6
29152.7
29168.1
29183.9
29199.9
29216.4
29233.1
29250.2
29267.7
29285.5
29303.7
29322.2
29341.1
29360.3
29379.9
29399.9
29420.3
29441
29462.1
29483.5
29505.4
29527.6
29550.1
29573.1
29596.4
29620.1
29644.2
29668.7
29693.5
29718.7
29744.2
29770.2
29796.5
29823.1
29850.1
29877.4
29905.1
29933.2
29961.5
29990.2
30019.2
30048.6
30078.2
30108.2
30138.4
30168.9
30199.7
30230.7
30262
30293.5
30325.2
30357.2
30389.3
30421.7
30454.2
30486.8
30519.6
30552.5
30585.5
30618.6
30651.7
30684.9
30718.1
30751.3
30784.5
30817.6
30850.6
30883.6
30916.4
30949.1
30981.7
31014
31046.1
31077.9
31109.5
31140.8
31171.7
31202.2
31232.4
31262.1
31291.3
31320.1
31348.4
31376
31403.1
31429.6
31455.5
31480.6
31505.1
31528.8
31551.7
31573.8
31595.1
31615.5
31635.1
31653.7
31671.4
31688.1
31703.8
31718.6
31732.2
31744.8
31756.4
31766.8
31776.1
31784.3
31791.4
31797.2
31802
31805.5
31807.9
31809
31809
31807.8
31805.3
31801.7
31796.9
31790.9
31783.7
31775.4
31765.9
31755.2
31743.4
31730.5
31716.5
31701.3
31685.1
31667.9
31649.6
31630.3
31610.1
31588.9
31566.8
31543.7
31519.8
31495.1
31469.5
31443.2
31416
31388.2
31359.7
31330.5
31300.7
31270.3
31239.4
31207.8
31175.8
31143.4
31110.5
31077.2
31043.5
31009.5
30975.2
30940.6
30905.7
30870.7
30835.4
30800
30764.5
30728.9
30693.2
30657.5
30621.7
30586
30550.4
30514.8
30479.3
30444
30408.8
30373.8
30339
30304.4
30270.1
30236.2
30202.5
30169.2
30136.3
30103.7
30071.6
30040
30008.8
29978.1
29948
29918.4
29889.5
29861.1
29833.3
29806.3
29779.9
29754.2
29729.2
29705
29681.6
29658.9
29637.1
29616.1
29595.9
29576.6
29558.2
29540.7
29524.1
29508.5
29493.7
29480
29467.1
29455.3
29444.4
29434.5
29425.6
29417.6
29410.7
29404.7
29399.8
29395.8
29392.9
29390.9
29389.9
29389.9
29390.9
29392.8
29395.7
29399.6
29404.3
29410
29416.6
29424.1
29432.5
29441.7
29451.7
29462.5
29474.1
29486.5
29499.6
29513.4
29527.9
29543.1
29558.8
29575.2
29592.1
29609.5
29627.4
29645.8
29664.5
29683.7
29703.2
29723
29743.1
29763.3
29783.8
29804.4
29825.1
29845.8
29866.6
29887.3
29907.9
29928.4
29948.7
29968.8
29988.7
30008.2
30027.3
30046.1
30064.4
30082.2
30099.4
30116.1
30132.1
30147.5
30162.1
30176
30189.1
30201.4
30212.8
30223.3
30232.9
30241.6
30249.3
30256
30261.7
30266.3
30269.9
30272.4
30273.8
30274.1
30273.3
30271.5
30268.5
30264.5
30259.3
30253.1
30245.8
30237.4
30228
30217.5
30206
30193.6
30180.2
30165.8
30150.6
30134.4
30117.5
30099.7
30081.1
30061.9
30041.9
30021.3
30000.1
29978.4
29956.2
29933.5
29910.4
29887
29863.2
29839.2
29815
29790.7
29766.3
29741.8
29717.4
29693
29668.8
29644.7
29620.8
29597.2
29573.9
29550.9
29528.4
29506.3
29484.8
29463.7
29443.3
29423.4
29404.2
29385.7
29367.9
29350.9
29334.6
29319.2
29304.5
29290.7
29277.8
29265.8
29254.7
29244.5
29235.3
29226.9
29219.5
29213.1
29207.6
29203
29199.3
29196.6
29194.8
29193.9
29193.9
29194.7
29196.3
29198.8
29202.1
29206.1
29210.8
29216.2
29222.2
29228.9
29236.1
29243.9
29252.1
29260.8
29269.9
29279.3
29289
29299
29309.2
29319.5
29329.9
29340.4
29350.9
29361.3
29371.8
29382
29392.2
29402.1
29411.8
29421.3
29430.5
29439.4
29447.9
29456.1
29463.9
29471.3
29478.2
29484.8
29490.9
29496.7
29501.9
29506.8
29511.2
29515.1
29518.7
29521.8
29524.5
29526.8
29528.8
29530.3
29531.5
29532.4
29532.9
29533.1
29533
29532.7
29532
29531.1
29530
29528.6
29527
29525.2
29523.3
29521.1
29518.8
29516.4
29513.8
29511.1
29508.3
29505.3
29502.3
29499.1
29495.9
29492.6
29489.3
29485.9
29482.4
29479
29475.5
29471.9
29468.4
29464.9
29461.4
29457.9
29454.5
29451.1
29447.7
29444.4
29441.2
29438
29435
29432
29429.1
29426.3
29423.7
29421.1
29418.6
29416.3
29414.1
29412
29410
29408.1
29406.4
29404.7
29403.2
29401.8
29400.5
29399.3
29398.2
29397.1
29396.2
29395.4
29394.6
29393.9
29393.2
29392.7
29392.1
29391.7
29391.3
29390.9
29390.5
29390.2
29390
29389.7
29389.5
29389.4
29389.2
29389.1
29389
29388.9
29388.9
29388.8
29388.8
29388.8
29388.9
29388.9
29389
29389.1
29389.2
29389.3
29389.5
29389.6
29389.8
29390
29390.2
29390.4
29390.6
29390.8
29391
29391.2
29391.4
29391.7
29391.9
29392.1
29392.3
29392.5
29392.8
29393
29393.2
29393.4
29393.6
29393.7
29393.9
29394.1
29394.3
29394.4
29394.6
29394.8
29394.9
29395.1
29395.3
29395.4
29395.6
29395.8
29396
29396.2
29396.5
29396.8
29397.1
29397.4
29397.8
29398.2
29398.6
29399.2
29399.7
29400.4
29401.1
29401.9
29402.7
29403.7
29404.7
29405.9
29407.1
29408.5
29410
29411.5
29413.2
29415.1
29417
29419.1
29421.3
29423.6
29426.1
29428.7
29431.4
29434.2
29437.1
29440.2
29443.4
29446.7
29450
29453.5
29457
29460.6
29464.3
29468
29471.8
29475.6
29479.4
29483.2
29487.1
29490.8
29494.6
29498.3
29501.9
29505.5
29508.9
29512.3
29515.5
29518.7
29521.6
29524.4
29527.1
29529.5
29531.8
29533.8
29535.7
29537.3
29538.6
29539.7
29540.5
29541.1
29541.4
29541.3
29541
29540.3
29539.2
29537.8
29536.1
29533.9
29531.4
29528.4
29525.1
29521.2
29517
29512.3
29507.1
29501.4
29495.3
29488.7
29481.7
29474.2
29466.3
29457.9
29449.1
29439.9
29430.4
29420.4
29410.2
29399.7
29389
29378.1
29367.2
29356.1
29345.1
29334.2
29323.4
29312.9
29302.7
29292.9
29283.6
29274.8
29266.8
29259.5
29253
29247.5
29242.9
29239.5
29237.2
29236.1
29236.3
29237.9
29240.9
29245.3
29251.2
29258.6
29267.5
29278
29290
29303.6
29318.7
29335.4
29353.4
29373
29393.9
29416.2
29439.7
29464.4
29490.3
29517.2
29545.1
29573.8
29603.2
29633.4
29664
29695.1
29726.5
29758
29789.7
29821.3
29852.7
29883.8
29914.6
29944.7
29974.3
30003
30030.9
30057.8
30083.6
30108.3
30131.6
30153.6
30174.1
30193.1
30210.4
30226.1
30240.1
30252.3
30262.7
30271.2
30277.8
30282.6
30285.4
30286.2
30285.1
30282.1
30277.2
30270.3
30261.7
30251.2
30238.9
30224.9
30209.2
30191.9
30173.1
30152.9
30131.3
30108.4
30084.4
30059.3
30033.3
30006.4
29978.8
29950.7
29922.1
29893.1
29863.9
29834.7
29805.4
29776.3
29747.5
29719
29691
29663.5
29636.8
29610.8
29585.8
29561.7
29538.6
29516.7
29496.1
29476.8
29458.8
29442.3
29427.4
29414.1
29402.5
29392.6
29384.6
29378.4
29374.2
29371.9
29371.7
29373.5
29377.5
29383.6
29391.8
29402.3
29414.9
29429.8
29446.9
29466.2
29487.7
29511.4
29537.2
29565.2
29595.2
29627.4
29661.5
29697.5
29735.5
29775.2
29816.7
29859.9
29904.7
29950.9
29998.6
30047.7
30097.9
30149.3
30201.8
30255.2
30309.5
30364.5
30420.2
30476.4
30533
30590
30647.1
30704.4
30761.6
30818.7
30875.6
30932
30988
31043.4
31098
31151.8
31204.5
31256.2
31306.6
31355.6
31403.1
31449
31493.1
31535.4
31575.6
31613.7
31649.6
31683.2
31714.2
31742.8
31768.6
31791.8
31812.1
31829.5
31843.9
31855.4
31863.7
31869
31871.1
31870.1
31865.9
31858.6
31848.1
31834.6
31818
31798.3
31775.8
31750.3
31722.1
31691.2
31657.6
31621.5
31583.1
31542.4
31499.5
31454.6
31407.9
31359.4
31309.2
31257.6
31204.6
31150.4
31095.2
31039
30982
30924.3
30866
30807.4
30748.4
30689.2
30629.9
30570.6
30511.5
30452.6
30393.9
30335.7
30277.9
30220.7
30164
30108.1
30052.9
29998.6
29945
29892.4
29840.7
29790
29740.3
29691.7
29644.2
29597.7
29552.4
29508.1
29465.1
29423.1
29382.4
29342.8
29304.3
29267.1
29230.9
29196
29162.1
29129.4
29097.9
29067.4
29038
29009.7
28982.5
28956.3
28931.2
28907
28883.8
28861.6
28840.4
28820.1
28800.7
28782.1
28764.5
28747.6
28731.6
28716.4
28702
28688.4
28675.5
28663.3
28651.8
28641
28630.9
28621.5
28612.7
28604.5
28596.9
28589.9
28583.5
28577.7
28572.4
28567.7
28563.5
28559.9
28556.9
28554.3
28552.1
28550.6
28549.7
28549.2
28662
28662
28662.2
28662.6
28663
28663.6
28664.2
28664.9
28665.8
28666.7
28667.8
28668.9
28670.2
28671.6
28673.1
28674.7
28676.4
28678.3
28680.2
28682.3
28684.5
28686.8
28689.2
28691.8
28694.5
28697.3
28700.3
28703.4
28706.6
28710
28713.5
28717.1
28720.9
28724.8
28728.9
28733.2
28737.6
28742.1
28746.8
28751.7
28756.8
28762
28767.4
28773
28778.7
28784.6
28790.7
28797.1
28803.6
28810.3
28817.2
28824.3
28831.6
28839.1
28846.8
28854.8
28863
28871.4
28880
28888.9
28898
28907.4
28917
28926.9
28937
28947.3
28958
28968.9
28980.1
28991.5
29003.3
29015.3
29027.6
29040.2
29053.1
29066.3
29079.8
29093.6
29107.7
29122.2
29137
29152
29167.5
29183.2
29199.3
29215.7
29232.5
29249.6
29267
29284.9
29303
29321.5
29340.4
29359.7
29379.3
29399.3
29419.6
29440.3
29461.4
29482.9
29504.7
29526.9
29549.5
29572.5
29595.8
29619.5
29643.6
29668
29692.9
29718.1
29743.6
29769.5
29795.8
29822.5
29849.5
29876.8
29904.5
29932.6
29961
29989.7
30018.7
30048
30077.7
30107.7
30137.9
30168.4
30199.2
30230.3
30261.6
30293.1
30324.9
30356.8
30389
30421.4
30453.9
30486.6
30519.4
30552.3
30585.3
30618.4
30651.6
30684.8
30718
30751.3
30784.5
30817.6
30850.7
30883.7
30916.6
30949.3
30981.9
31014.3
31046.4
31078.3
31109.9
31141.2
31172.2
31202.8
31233
31262.8
31292.1
31320.9
31349.2
31376.9
31404.1
31430.6
31456.5
31481.7
31506.2
31529.9
31552.9
31575.1
31596.4
31616.9
31636.5
31655.2
31672.9
31689.7
31705.4
31720.2
31733.9
31746.5
31758.1
31768.6
31777.9
31786.1
31793.2
31799.1
31803.8
31807.4
31809.7
31810.9
31810.9
31809.7
31807.2
31803.6
31798.8
31792.8
31785.6
31777.2
31767.7
31757
31745.1
31732.2
31718.1
31703
31686.8
31669.5
31651.2
31631.9
31611.6
31590.3
31568.1
31545
31521.1
31496.3
31470.7
31444.3
31417.1
31389.2
31360.7
31331.4
31301.6
31271.1
31240.1
31208.5
31176.5
31144
31111
31077.7
31043.9
31009.9
30975.5
30940.8
30906
30870.9
30835.6
30800.1
30764.6
30728.9
30693.2
30657.4
30621.6
30585.9
30550.2
30514.5
30479
30443.6
30408.4
30373.4
30338.5
30304
30269.6
30235.6
30201.9
30168.6
30135.6
30103
30070.9
30039.2
30008
29977.3
29947.1
29917.5
29888.5
29860.1
29832.4
29805.2
29778.8
29753.1
29728.1
29703.9
29680.4
29657.8
29635.9
29614.9
29594.7
29575.4
29557
29539.4
29522.8
29507.1
29492.4
29478.6
29465.8
29453.9
29443
29433.1
29424.1
29416.2
29409.3
29403.3
29398.4
29394.4
29391.5
29389.5
29388.5
29388.5
29389.5
29391.5
29394.4
29398.2
29403
29408.7
29415.3
29422.8
29431.2
29440.4
29450.5
29461.4
29473
29485.4
29498.6
29512.4
29526.9
29542.1
29557.9
29574.3
29591.2
29608.7
29626.6
29645
29663.9
29683.1
29702.6
29722.5
29742.6
29762.9
29783.4
29804.1
29824.8
29845.6
29866.5
29887.2
29907.9
29928.5
29948.9
29969
29988.9
30008.5
30027.7
30046.5
30064.9
30082.7
30100
30116.8
30132.9
30148.3
30163
30176.9
30190.1
30202.4
30213.9
30224.4
30234.1
30242.8
30250.5
30257.2
30263
30267.6
30271.2
30273.7
30275.1
30275.5
30274.7
30272.9
30269.9
30265.8
30260.7
30254.4
30247.1
30238.7
30229.2
30218.8
30207.3
30194.8
30181.3
30166.9
30151.6
30135.4
30118.4
30100.6
30082
30062.6
30042.6
30022
30000.7
29979
29956.7
29933.9
29910.8
29887.3
29863.5
29839.4
29815.1
29790.8
29766.3
29741.8
29717.2
29692.8
29668.5
29644.3
29620.4
29596.7
29573.4
29550.4
29527.8
29505.7
29484.1
29463
29442.5
29422.6
29403.4
29384.8
29367
29349.9
29333.6
29318.2
29303.5
29289.7
29276.8
29264.8
29253.6
29243.4
29234.2
29225.8
29218.4
29212
29206.5
29201.9
29198.3
29195.6
29193.8
29192.9
29192.9
29193.7
29195.4
29197.9
29201.2
29205.2
29210
29215.4
29221.5
29228.3
29235.5
29243.3
29251.6
29260.4
29269.5
29278.9
29288.7
29298.7
29308.9
29319.3
29329.8
29340.3
29350.9
29361.4
29371.8
29382.2
29392.4
29402.3
29412.1
29421.6
29430.8
29439.7
29448.3
29456.5
29464.3
29471.7
29478.7
29485.3
29491.4
29497.1
29502.4
29507.2
29511.6
29515.6
29519.1
29522.2
29524.9
29527.2
29529.2
29530.7
29531.9
29532.7
29533.2
29533.4
29533.3
29532.9
29532.3
29531.4
29530.2
29528.8
29527.2
29525.4
29523.5
29521.3
29519
29516.5
29513.9
29511.2
29508.4
29505.4
29502.4
29499.2
29496
29492.7
29489.3
29485.9
29482.5
29479
29475.5
29471.9
29468.4
29464.9
29461.4
29457.9
29454.4
29451
29447.7
29444.4
29441.1
29438
29434.9
29431.9
29429
29426.2
29423.5
29421
29418.5
29416.2
29414
29411.8
29409.9
29408
29406.3
29404.6
29403.1
29401.7
29400.4
29399.2
29398.1
29397.1
29396.1
29395.3
29394.5
29393.8
29393.2
29392.6
29392.1
29391.6
29391.2
29390.8
29390.5
29390.2
29389.9
29389.7
29389.5
29389.3
29389.2
29389.1
29389
29388.9
29388.8
29388.8
29388.8
29388.8
29388.9
29388.9
29389
29389.1
29389.2
29389.3
29389.4
29389.6
29389.8
29390
29390.1
29390.3
29390.6
29390.8
29391
29391.2
29391.4
29391.7
29391.9
29392.1
29392.3
29392.5
29392.8
29393
29393.2
29393.4
29393.5
29393.7
29393.9
29394.1
29394.3
29394.4
29394.6
29394.7
29394.9
29395.1
29395.2
29395.4
29395.6
29395.8
29396
29396.2
29396.5
29396.7
29397
29397.4
29397.7
29398.1
29398.6
29399.1
29399.7
29400.3
29401
29401.8
29402.7
29403.6
29404.6
29405.8
29407
29408.4
29409.9
29411.4
29413.1
29415
29416.9
29419
29421.2
29423.5
29426
29428.6
29431.3
29434.1
29437.1
29440.1
29443.3
29446.6
29450
29453.4
29457
29460.6
29464.3
29468
29471.8
29475.6
29479.4
29483.3
29487.1
29490.9
29494.6
29498.3
29502
29505.6
29509
29512.4
29515.6
29518.8
29521.8
29524.6
29527.2
29529.7
29531.9
29534
29535.8
29537.5
29538.8
29539.9
29540.8
29541.3
29541.6
29541.6
29541.2
29540.5
29539.5
29538.1
29536.4
29534.2
29531.7
29528.8
29525.4
29521.6
29517.3
29512.6
29507.4
29501.8
29495.7
29489.1
29482.1
29474.6
29466.6
29458.2
29449.4
29440.2
29430.6
29420.6
29410.4
29399.8
29389.1
29378.2
29367.1
29356.1
29345
29334
29323.2
29312.6
29302.3
29292.4
29283.1
29274.3
29266.2
29258.8
29252.3
29246.7
29242.1
29238.6
29236.2
29235.1
29235.3
29236.8
29239.8
29244.1
29250
29257.4
29266.3
29276.8
29288.9
29302.5
29317.6
29334.2
29352.4
29371.9
29392.9
29415.2
29438.8
29463.6
29489.5
29516.5
29544.4
29573.2
29602.7
29632.9
29663.7
29694.8
29726.3
29758
29789.7
29821.4
29852.9
29884.1
29914.9
29945.2
29974.8
30003.7
30031.6
30058.6
30084.5
30109.2
30132.6
30154.6
30175.2
30194.2
30211.6
30227.4
30241.4
30253.6
30264
30272.6
30279.2
30283.9
30286.7
30287.6
30286.4
30283.4
30278.4
30271.6
30262.9
30252.3
30240
30225.9
30210.2
30192.9
30174
30153.7
30132
30109
30084.9
30059.8
30033.6
30006.7
29979.1
29950.8
29922.1
29893.1
29863.8
29834.4
29805.1
29775.9
29747
29718.4
29690.4
29662.9
29636.1
29610.1
29584.9
29560.8
29537.7
29515.8
29495.1
29475.7
29457.7
29441.2
29426.2
29412.9
29401.2
29391.4
29383.3
29377.1
29372.8
29370.5
29370.3
29372.1
29376
29382.1
29390.4
29400.8
29413.5
29428.4
29445.4
29464.8
29486.3
29510
29535.8
29563.8
29593.9
29626.1
29660.2
29696.3
29734.3
29774.1
29815.7
29858.9
29903.7
29950
29997.8
30046.8
30097.2
30148.7
30201.2
30254.7
30309
30364.1
30419.8
30476.1
30532.8
30589.8
30647
30704.3
30761.7
30818.8
30875.8
30932.3
30988.4
31043.8
31098.5
31152.4
31205.2
31256.9
31307.4
31356.5
31404.1
31450.1
31494.3
31536.6
31576.9
31615.1
31651.1
31684.7
31715.8
31744.4
31770.3
31793.5
31813.9
31831.3
31845.8
31857.2
31865.6
31870.9
31873
31872
31867.8
31860.4
31849.9
31836.4
31819.7
31800
31777.4
31751.9
31723.6
31692.6
31659
31622.8
31584.3
31543.5
31500.6
31455.6
31408.8
31360.2
31309.9
31258.2
31205.2
31150.9
31095.6
31039.3
30982.2
30924.5
30866.2
30807.4
30748.4
30689.1
30629.8
30570.5
30511.3
30452.3
30393.6
30335.3
30277.5
30220.2
30163.6
30107.6
30052.4
29998
29944.5
29891.8
29840.1
29789.4
29739.7
29691.1
29643.5
29597.1
29551.7
29507.5
29464.4
29422.5
29381.7
29342.1
29303.7
29266.4
29230.3
29195.3
29161.5
29128.8
29097.2
29066.7
29037.3
29009.1
28981.8
28955.6
28930.5
28906.3
28883.2
28861
28839.7
28819.4
28800
28781.5
28763.8
28747
28731
28715.8
28701.4
28687.7
28674.8
28662.7
28651.2
28640.4
28630.3
28620.8
28612
28603.8
28596.3
28589.3
28582.9
28577.1
28571.8
28567.1
28562.9
28559.3
28556.2
28553.6
28551.5
28550
28549
28548.7
28661.1
28661.1
28661.3
28661.6
28662
28662.5
28663.1
28663.8
28664.7
28665.6
28666.7
28667.8
28669.1
28670.5
28672
28673.6
28675.3
28677.1
28679.1
28681.2
28683.4
28685.7
28688.1
28690.7
28693.4
28696.2
28699.2
28702.2
28705.5
28708.8
28712.3
28716
28719.8
28723.7
28727.8
28732
28736.4
28741
28745.7
28750.6
28755.6
28760.8
28766.2
28771.8
28777.5
28783.5
28789.6
28795.9
28802.4
28809.1
28816
28823.1
28830.4
28837.9
28845.6
28853.6
28861.8
28870.2
28878.8
28887.7
28896.8
28906.2
28915.8
28925.6
28935.7
28946.1
28956.7
28967.6
28978.8
28990.3
29002
29014
29026.3
29038.9
29051.8
29065
29078.5
29092.3
29106.5
29120.9
29135.7
29150.7
29166.2
29181.9
29198
29214.4
29231.2
29248.3
29265.7
29283.5
29301.7
29320.2
29339.1
29358.4
29378
29397.9
29418.3
29439
29460.1
29481.6
29503.4
29525.6
29548.2
29571.2
29594.5
29618.2
29642.3
29666.8
29691.6
29716.8
29742.4
29768.3
29794.6
29821.3
29848.3
29875.7
29903.4
29931.4
29959.8
29988.6
30017.6
30047
30076.7
30106.6
30136.9
30167.5
30198.3
30229.4
30260.7
30292.3
30324.1
30356.1
30388.3
30420.7
30453.3
30486
30518.9
30551.8
30584.9
30618.1
30651.3
30684.6
30717.9
30751.2
30784.5
30817.7
30850.9
30883.9
30916.9
30949.7
30982.4
31014.8
31047.1
31079
31110.7
31142.1
31173.2
31203.9
31234.2
31264.1
31293.5
31322.4
31350.8
31378.6
31405.9
31432.5
31458.5
31483.8
31508.4
31532.2
31555.3
31577.6
31599
31619.6
31639.3
31658.1
31675.9
31692.7
31708.6
31723.4
31737.2
31749.9
31761.5
31772.1
31781.5
31789.7
31796.8
31802.8
31807.5
31811.1
31813.5
31814.7
31814.7
31813.4
31811
31807.4
31802.5
31796.5
31789.3
31780.9
31771.3
31760.5
31748.6
31735.6
31721.5
31706.3
31690
31672.6
31654.3
31634.9
31614.5
31593.1
31570.9
31547.7
31523.6
31498.7
31473
31446.5
31419.2
31391.2
31362.6
31333.2
31303.3
31272.7
31241.6
31209.9
31177.7
31145.1
31112.1
31078.6
31044.8
31010.6
30976.2
30941.4
30906.4
30871.2
30835.8
30800.3
30764.6
30728.9
30693.1
30657.2
30621.4
30585.5
30549.8
30514
30478.5
30443
30407.7
30372.6
30337.7
30303
30268.6
30234.5
30200.7
30167.3
30134.3
30101.7
30069.4
30037.7
30006.4
29975.6
29945.4
29915.7
29886.7
29858.2
29830.4
29803.2
29776.7
29751
29725.9
29701.6
29678.1
29655.4
29633.5
29612.4
29592.2
29572.8
29554.4
29536.8
29520.2
29504.5
29489.7
29475.9
29463
29451.1
29440.2
29430.3
29421.3
29413.4
29406.4
29400.5
29395.5
29391.6
29388.6
29386.7
29385.7
29385.7
29386.7
29388.7
29391.7
29395.5
29400.4
29406.1
29412.8
29420.3
29428.7
29438
29448.1
29459
29470.7
29483.2
29496.4
29510.3
29524.9
29540.1
29556
29572.5
29589.5
29607.1
29625.1
29643.6
29662.5
29681.8
29701.5
29721.4
29741.6
29762.1
29782.7
29803.5
29824.3
29845.3
29866.2
29887.1
29907.9
29928.6
29949.1
29969.4
29989.4
30009.1
30028.5
30047.4
30065.9
30083.9
30101.3
30118.2
30134.4
30149.9
30164.7
30178.8
30192
30204.5
30216
30226.7
30236.4
30245.2
30253
30259.8
30265.5
30270.2
30273.9
30276.4
30277.9
30278.2
30277.5
30275.6
30272.6
30268.6
30263.4
30257.1
30249.7
30241.3
30231.8
30221.2
30209.7
30197.1
30183.6
30169.1
30153.7
30137.4
30120.3
30102.4
30083.7
30064.2
30044.1
30023.4
30002
29980.1
29957.6
29934.8
29911.5
29887.9
29863.9
29839.7
29815.4
29790.8
29766.2
29741.6
29716.9
29692.4
29667.9
29643.7
29619.6
29595.8
29572.4
29549.3
29526.6
29504.4
29482.7
29461.5
29440.9
29421
29401.7
29383
29365.2
29348
29331.7
29316.2
29301.5
29287.6
29274.7
29262.6
29251.5
29241.3
29232
29223.6
29216.2
29209.8
29204.3
29199.8
29196.2
29193.5
29191.7
29190.9
29190.9
29191.8
29193.5
29196.1
29199.4
29203.6
29208.4
29213.9
29220.1
29226.9
29234.3
29242.2
29250.6
29259.4
29268.6
29278.2
29288.1
29298.2
29308.5
29319
29329.6
29340.2
29350.9
29361.5
29372
29382.5
29392.7
29402.8
29412.6
29422.2
29431.5
29440.4
29449
29457.3
29465.1
29472.6
29479.6
29486.2
29492.3
29498.1
29503.3
29508.2
29512.6
29516.5
29520
29523.1
29525.8
29528.1
29530
29531.5
29532.6
29533.4
29533.9
29534.1
29533.9
29533.5
29532.8
29531.9
29530.7
29529.3
29527.6
29525.8
29523.8
29521.6
29519.3
29516.8
29514.2
29511.5
29508.6
29505.6
29502.5
29499.4
29496.1
29492.8
29489.4
29486
29482.5
29479
29475.5
29472
29468.4
29464.9
29461.3
29457.8
29454.3
29450.9
29447.5
29444.2
29441
29437.8
29434.7
29431.7
29428.8
29426
29423.3
29420.7
29418.3
29415.9
29413.7
29411.6
29409.6
29407.8
29406
29404.4
29402.9
29401.5
29400.2
29399
29397.9
29396.9
29396
29395.1
29394.4
29393.7
29393.1
29392.5
29392
29391.5
29391.1
29390.7
29390.4
29390.1
29389.9
29389.6
29389.4
29389.3
29389.1
29389
29388.9
29388.8
29388.8
29388.8
29388.8
29388.8
29388.8
29388.9
29388.9
29389
29389.1
29389.3
29389.4
29389.6
29389.7
29389.9
29390.1
29390.3
29390.5
29390.7
29391
29391.2
29391.4
29391.6
29391.9
29392.1
29392.3
29392.5
29392.7
29393
29393.2
29393.3
29393.5
29393.7
29393.9
29394.1
29394.2
29394.4
29394.6
29394.7
29394.9
29395.1
29395.2
29395.4
29395.6
29395.8
29396
29396.2
29396.4
29396.7
29397
29397.3
29397.7
29398.1
29398.5
29399
29399.6
29400.2
29400.9
29401.7
29402.5
29403.4
29404.5
29405.6
29406.8
29408.2
29409.6
29411.2
29412.9
29414.7
29416.7
29418.8
29421
29423.3
29425.8
29428.3
29431
29433.9
29436.9
29439.9
29443.1
29446.4
29449.8
29453.3
29456.8
29460.5
29464.2
29467.9
29471.7
29475.5
29479.4
29483.3
29487.1
29490.9
29494.7
29498.5
29502.1
29505.7
29509.2
29512.6
29515.9
29519
29522
29524.9
29527.5
29530
29532.3
29534.4
29536.2
29537.9
29539.2
29540.4
29541.2
29541.8
29542.1
29542.1
29541.7
29541.1
29540.1
29538.7
29537
29534.9
29532.3
29529.4
29526.1
29522.3
29518.1
29513.4
29508.1
29502.5
29496.4
29489.8
29482.7
29475.2
29467.3
29458.8
29450
29440.7
29431
29421
29410.7
29400.1
29389.3
29378.3
29367.1
29355.9
29344.7
29333.6
29322.7
29312
29301.6
29291.6
29282.1
29273.2
29264.9
29257.5
29250.8
29245.1
29240.4
29236.8
29234.3
29233.1
29233.2
29234.7
29237.6
29241.9
29247.7
29255.1
29264
29274.5
29286.5
29300.2
29315.3
29332
29350.2
29369.8
29390.9
29413.3
29437
29461.9
29487.9
29515
29543.1
29572
29601.7
29632.1
29663
29694.3
29725.9
29757.8
29789.7
29821.6
29853.3
29884.7
29915.7
29946.1
29975.9
30004.9
30033
30060.2
30086.2
30111
30134.6
30156.7
30177.4
30196.5
30214.1
30229.9
30243.9
30256.2
30266.7
30275.2
30281.9
30286.6
30289.4
30290.3
30289.1
30286
30281
30274.1
30265.3
30254.7
30242.2
30228.1
30212.2
30194.8
30175.7
30155.3
30133.4
30110.3
30086.1
30060.7
30034.4
30007.3
29979.5
29951.1
29922.2
29893
29863.5
29834
29804.5
29775.2
29746.1
29717.4
29689.2
29661.6
29634.7
29608.5
29583.3
29559
29535.9
29513.8
29493
29473.6
29455.5
29438.9
29423.9
29410.5
29398.8
29388.8
29380.7
29374.4
29370.1
29367.8
29367.5
29369.3
29373.2
29379.3
29387.5
29397.9
29410.6
29425.5
29442.6
29461.9
29483.4
29507.2
29533.1
29561.1
29591.3
29623.5
29657.7
29693.9
29732
29771.9
29813.5
29856.8
29901.7
29948.2
29996
30045.2
30095.7
30147.3
30199.9
30253.5
30308
30363.2
30419.1
30475.5
30532.3
30589.5
30646.8
30704.3
30761.8
30819.1
30876.2
30932.9
30989.1
31044.7
31099.5
31153.5
31206.5
31258.4
31309.1
31358.3
31406.1
31452.2
31496.6
31539.1
31579.5
31617.9
31654
31687.7
31719
31747.7
31773.7
31797
31817.4
31834.9
31849.4
31860.9
31869.3
31874.6
31876.7
31875.7
31871.5
31864.1
31853.6
31839.9
31823.2
31803.4
31780.7
31755
31726.6
31695.4
31661.7
31625.4
31586.7
31545.8
31502.6
31457.5
31410.5
31361.7
31311.3
31259.5
31206.3
31151.8
31096.4
31039.9
30982.7
30924.8
30866.4
30807.5
30748.4
30689
30629.6
30570.1
30510.8
30451.8
30393
30334.6
30276.7
30219.4
30162.7
30106.7
30051.4
29997
29943.4
29890.7
29839
29788.2
29738.5
29689.8
29642.3
29595.8
29550.4
29506.2
29463.1
29421.1
29380.4
29340.8
29302.3
29265
29228.9
29193.9
29160.1
29127.4
29095.8
29065.4
29036
29007.7
28980.5
28954.3
28929.1
28905
28881.8
28859.7
28838.4
28818.1
28798.7
28780.2
28762.5
28745.7
28729.7
28714.5
28700.1
28686.5
28673.6
28661.4
28649.9
28639.2
28629
28619.6
28610.8
28602.6
28595
28588
28581.6
28575.8
28570.6
28565.9
28561.7
28558.1
28555
28552.4
28550.3
28548.8
28547.8
28547.4
28659.3
28659.4
28659.6
28659.9
28660.3
28660.8
28661.4
28662.2
28663
28663.9
28665
28666.2
28667.4
28668.8
28670.3
28671.9
28673.6
28675.5
28677.4
28679.5
28681.7
28684
28686.4
28689
28691.7
28694.5
28697.5
28700.5
28703.8
28707.1
28710.6
28714.3
28718.1
28722
28726.1
28730.3
28734.7
28739.3
28744
28748.8
28753.9
28759.1
28764.5
28770
28775.8
28781.7
28787.8
28794.1
28800.6
28807.3
28814.2
28821.3
28828.6
28836.1
28843.9
28851.8
28860
28868.4
28877
28885.9
28895
28904.3
28913.9
28923.8
28933.9
28944.3
28954.9
28965.8
28977
28988.4
29000.1
29012.1
29024.4
29037
29049.9
29063.1
29076.6
29090.4
29104.5
29119
29133.7
29148.8
29164.2
29180
29196
29212.4
29229.2
29246.3
29263.8
29281.6
29299.7
29318.3
29337.1
29356.4
29376
29396
29416.3
29437
29458.1
29479.6
29501.4
29523.6
29546.2
29569.2
29592.5
29616.3
29640.4
29664.8
29689.7
29714.9
29740.5
29766.5
29792.8
29819.5
29846.5
29873.9
29901.6
29929.7
29958.2
29986.9
30016
30045.4
30075.1
30105.1
30135.4
30166
30196.9
30228.1
30259.4
30291.1
30322.9
30355
30387.3
30419.8
30452.4
30485.2
30518.1
30551.2
30584.4
30617.6
30650.9
30684.3
30717.7
30751.1
30784.5
30817.8
30851.1
30884.3
30917.3
30950.3
30983.1
31015.6
31048
31080.1
31112
31143.5
31174.7
31205.5
31236
31266
31295.6
31324.6
31353.2
31381.2
31408.6
31435.4
31461.5
31487
31511.7
31535.7
31559
31581.4
31603
31623.7
31643.5
31662.4
31680.4
31697.4
31713.3
31728.3
31742.2
31755
31766.7
31777.3
31786.8
31795.1
31802.3
31808.3
31813.1
31816.7
31819.1
31820.3
31820.3
31819.1
31816.7
31813
31808.1
31802.1
31794.8
31786.3
31776.7
31765.9
31753.9
31740.8
31726.6
31711.3
31694.9
31677.4
31658.9
31639.4
31618.8
31597.4
31574.9
31551.6
31527.4
31502.4
31476.5
31449.8
31422.4
31394.3
31365.4
31335.9
31305.8
31275.1
31243.8
31212
31179.6
31146.9
31113.7
31080
31046.1
31011.8
30977.1
30942.3
30907.1
30871.8
30836.3
30800.6
30764.8
30728.9
30693
30657
30621
30585.1
30549.1
30513.3
30477.6
30442
30406.6
30371.4
30336.3
30301.6
30267.1
30232.9
30199
30165.5
30132.3
30099.6
30067.2
30035.4
30004
29973.1
29942.8
29913
29883.9
29855.3
29827.4
29800.1
29773.6
29747.7
29722.6
29698.2
29674.6
29651.8
29629.9
29608.7
29588.4
29569
29550.5
29532.9
29516.2
29500.5
29485.6
29471.8
29458.9
29447
29436
29426.1
29417.1
29409.2
29402.2
29396.3
29391.3
29387.4
29384.4
29382.5
29381.5
29381.6
29382.6
29384.6
29387.6
29391.5
29396.4
29402.2
29408.9
29416.5
29425
29434.3
29444.5
29455.5
29467.3
29479.8
29493.1
29507.1
29521.8
29537.2
29553.2
29569.8
29586.9
29604.6
29622.8
29641.4
29660.4
29679.9
29699.7
29719.8
29740.2
29760.8
29781.6
29802.5
29823.6
29844.7
29865.8
29886.9
29907.9
29928.8
29949.5
29970
29990.2
30010.1
30029.6
30048.8
30067.4
30085.6
30103.2
30120.3
30136.6
30152.3
30167.3
30181.5
30195
30207.5
30219.2
30230
30239.9
30248.8
30256.7
30263.5
30269.4
30274.2
30277.8
30280.4
30281.9
30282.3
30281.6
30279.7
30276.7
30272.7
30267.4
30261.1
30253.7
30245.2
30235.6
30225
30213.3
30200.7
30187
30172.4
30156.9
30140.5
30123.2
30105.1
30086.2
30066.6
30046.3
30025.4
30003.8
29981.7
29959.1
29936.1
29912.6
29888.8
29864.6
29840.2
29815.7
29790.9
29766.1
29741.3
29716.5
29691.7
29667.1
29642.7
29618.4
29594.5
29570.9
29547.6
29524.8
29502.5
29480.6
29459.3
29438.6
29418.5
29399.1
29380.4
29362.4
29345.2
29328.8
29313.2
29298.4
29284.5
29271.5
29259.4
29248.2
29238
29228.7
29220.4
29213
29206.5
29201.1
29196.5
29193
29190.3
29188.6
29187.8
29187.9
29188.9
29190.7
29193.4
29196.8
29201.1
29206
29211.7
29218
29224.9
29232.4
29240.5
29249
29258
29267.4
29277.1
29287.2
29297.4
29307.9
29318.5
29329.3
29340.1
29350.9
29361.6
29372.3
29382.9
29393.3
29403.5
29413.4
29423.1
29432.5
29441.5
29450.2
29458.5
29466.4
29473.9
29480.9
29487.6
29493.7
29499.5
29504.8
29509.6
29513.9
29517.9
29521.4
29524.4
29527.1
29529.3
29531.2
29532.6
29533.7
29534.5
29534.9
29535
29534.8
29534.4
29533.6
29532.6
29531.4
29529.9
29528.3
29526.4
29524.4
29522.1
29519.8
29517.3
29514.6
29511.8
29508.9
29505.9
29502.8
29499.6
29496.3
29493
29489.6
29486.1
29482.6
29479.1
29475.5
29472
29468.4
29464.8
29461.2
29457.7
29454.2
29450.8
29447.4
29444
29440.7
29437.5
29434.4
29431.4
29428.5
29425.7
29423
29420.4
29417.9
29415.6
29413.3
29411.2
29409.3
29407.4
29405.7
29404
29402.5
29401.1
29399.9
29398.7
29397.6
29396.6
29395.7
29394.9
29394.1
29393.5
29392.9
29392.3
29391.8
29391.4
29391
29390.6
29390.3
29390
29389.8
29389.6
29389.4
29389.2
29389.1
29388.9
29388.9
29388.8
29388.7
29388.7
29388.7
29388.7
29388.8
29388.8
29388.9
29389
29389.1
29389.2
29389.4
29389.5
29389.7
29389.9
29390.1
29390.3
29390.5
29390.7
29390.9
29391.2
29391.4
29391.6
29391.8
29392.1
29392.3
29392.5
29392.7
29392.9
29393.1
29393.3
29393.5
29393.7
29393.9
29394.1
29394.2
29394.4
29394.6
29394.7
29394.9
29395
29395.2
29395.4
29395.5
29395.7
29395.9
29396.1
29396.4
29396.6
29396.9
29397.2
29397.6
29397.9
29398.4
29398.9
29399.4
29400
29400.7
29401.4
29402.3
29403.2
29404.2
29405.3
29406.6
29407.9
29409.3
29410.9
29412.6
29414.4
29416.3
29418.4
29420.6
29423
29425.4
29428
29430.7
29433.6
29436.6
29439.7
29442.9
29446.2
29449.6
29453.1
29456.7
29460.3
29464.1
29467.8
29471.7
29475.5
29479.3
29483.3
29487.2
29491
29494.9
29498.6
29502.3
29505.9
29509.5
29512.9
29516.2
29519.4
29522.4
29525.3
29528
29530.5
29532.8
29534.9
29536.8
29538.5
29539.9
29541
29541.9
29542.5
29542.8
29542.8
29542.5
29541.9
29540.9
29539.6
29537.9
29535.8
29533.3
29530.4
29527.1
29523.4
29519.2
29514.6
29509.1
29503.5
29497.4
29490.8
29483.8
29476.2
29468.2
29459.7
29450.8
29441.5
29431.7
29421.7
29411.2
29400.5
29389.5
29378.4
29367.1
29355.8
29344.4
29333.1
29322
29311.1
29300.5
29290.4
29280.7
29271.6
29263.1
29255.4
29248.6
29242.7
29237.9
29234.1
29231.5
29230.2
29230.1
29231.5
29234.2