/*--------------------------------*- C++ -*----------------------------------*\
| =========                 |                                                 |
| \\      /  F ield         | OpenFOAM: The Open Source CFD Toolbox           |
|  \\    /   O peration     | Version:  2412                                  |
|   \\  /    A nd           | Website:  www.openfoam.com                      |
|    \\/     M anipulation  |                                                 |
\*---------------------------------------------------------------------------*/
FoamFile
{
    version     2.0;
    format      ascii;
    arch        "LSB;label=32;scalar=64";
    class       volScalarField;
    location    "0.2";
    object      alpha.ethanol;
}
// * * * * * * * * * * * * * * * * * * * * * * * * * * * * * * * * * * * * * //

dimensions      [0 0 0 0 0 0 0];

internalField   nonuniform List<scalar> 
6400
(
1
0.999999
1
1
1
1
1
1
1
1
1
1
1
1
1
1
1
1
1
1
1
1
1
1
1
1
1
1
1
1
1
1
1
1
1
1
1
1
1
1
1
1
1
1
1
1
1
1
1
1
1
1
1
1
1
1
1
1
1
1
1
1
1
1
1
1
1
1
1
1
1
1
1
1
1
1
1
1
1
1
1
1
1
1
1
1
1
1
1
1
1
1
1
1
1
1
1
1
1
1
1
1
1
1
1
1
1
1
1
1
1
1
1
1
1
1
1
1
1
1
1
1
1
1
1
1
1
1
1
1
1
1
1
1
1
1
1
1
1
1
1
1
1
1
1
1
1
1
1
1
1
1
1
1
1
1
1
1
1
1
1
1
1
1
1
1
1
1
1
1
1
1
1
1
1
1
1
1
1
1
1
1
1
1
1
1
1
1
1
1
1
1
1
1
1
1
1
1
1
1
1
1
1
1
1
1
1
1
1
1
1
1
1
1
1
1
1
1
1
1
1
1
1
1
1
1
1
1
1
1
1
1
1
1
1
1
1
1
1
1
1
1
1
1
1
1
1
1
1
1
1
1
1
1
1
1
1
1
1
1
1
1
1
1
1
1
1
1
1
1
1
1
1
1
1
1
1
1
1
1
1
1
1
1
1
1
1
1
1
1
1
1
1
1
1
1
1
1
1
1
1
1
1
1
1
1
1
1
1
1
1
1
1
1
1
1
1
1
1
1
1
1
1
1
1
1
1
1
1
1
1
1
1
1
1
1
1
1
1
1
1
1
1
1
1
1
1
1
1
1
1
1
1
1
1
1
1
1
1
1
1
1
1
1
1
1
1
1
1
1
1
1
1
1
1
1
1
1
1
1
1
1
1
1
1
1
1
1
1
1
1
1
1
1
1
1
1
1
1
1
1
1
1
1
1
1
1
1
1
1
1
1
1
1
1
1
1
1
1
1
1
1
1
1
1
1
1
1
1
1
1
1
1
1
1
1
1
1
1
1
1
1
1
1
1
1
1
1
1
1
1
1
1
1
1
1
1
1
1
1
1
1
1
1
1
1
1
1
1
1
1
1
1
1
1
1
1
1
1
1
1
1
1
1
1
1
1
1
1
1
1
1
1
1
1
1
1
1
1
1
1
1
1
1
1
1
1
1
1
1
1
1
1
1
1
1
1
1
1
1
1
1
1
1
1
1
1
1
1
1
1
1
1
1
1
1
1
1
1
1
1
1
1
1
1
1
1
1
1
1
1
1
1
1
1
1
1
1
1
1
1
1
1
1
1
1
1
1
1
1
1
1
1
1
1
1
1
1
1
1
1
1
1
1
1
1
1
1
1
1
1
1
1
1
1
1
1
1
1
1
1
1
1
1
1
1
1
1
1
1
1
1
1
1
1
1
1
1
1
1
1
1
1
1
1
1
1
1
1
1
1
1
1
1
1
1
1
1
1
1
1
1
1
1
1
1
1
1
1
1
1
1
1
1
1
1
1
1
1
1
1
1
1
1
1
1
1
1
1
1
1
1
1
1
1
1
1
1
1
1
1
1
1
1
1
1
1
1
1
1
1
1
1
1
1
1
1
1
1
1
1
1
1
1
1
1
1
1
1
1
1
1
1
1
1
1
1
1
1
1
1
1
1
1
1
1
1
1
1
1
1
1
1
1
1
1
1
1
1
1
1
1
1
1
1
1
1
1
1
1
1
1
1
1
1
1
1
1
1
1
1
1
1
1
1
1
1
1
1
1
1
1
1
1
1
1
1
1
1
1
1
1
1
1
1
1
1
1
1
1
1
1
1
1
1
1
1
1
1
1
1
1
1
1
1
1
1
1
1
1
1
1
1
1
1
1
1
1
1
1
1
1
1
1
1
1
1
1
1
1
1
1
1
1
1
1
1
1
1
1
1
1
1
1
1
1
1
1
1
1
1
1
1
1
1
1
1
1
1
1
1
1
1
1
1
1
1
1
1
1
1
1
1
1
1
1
1
1
1
1
1
1
1
1
1
1
1
1
1
1
1
1
1
1
1
1
1
1
1
1
1
1
1
1
1
1
1
1
1
1
1
1
1
1
1
1
1
1
1
1
1
1
1
1
1
1
1
1
1
1
1
1
1
1
1
1
1
1
1
1
1
1
1
1
1
1
1
1
1
1
1
1
1
1
1
1
1
1
1
1
1
1
1
1
1
1
1
1
1
1
1
1
1
1
1
1
1
1
1
1
1
1
1
1
1
1
1
1
1
1
1
1
1
1
1
1
1
1
1
1
1
1
1
1
1
1
1
1
1
1
1
1
1
1
1
1
1
1
1
1
1
1
1
1
1
1
1
1
1
1
1
1
1
1
1
1
1
1
1
1
1
1
1
1
1
1
1
1
1
1
1
1
1
1
1
1
1
1
1
1
1
1
1
1
1
1
1
1
1
1
1
1
1
1
1
1
1
1
1
1
1
1
1
1
1
1
1
1
1
1
1
1
1
1
1
1
1
1
1
1
1
1
1
1
1
1
1
1
1
1
1
1
1
1
1
1
1
1
1
1
1
1
1
1
1
1
1
1
1
1
1
1
1
1
1
1
1
1
1
1
1
1
1
1
1
1
1
1
1
1
1
1
1
1
1
1
1
1
1
1
1
1
1
1
1
1
1
1
1
1
1
1
1
1
1
1
1
1
1
1
1
1
1
1
1
1
1
1
1
1
1
1
1
1
1
1
1
1
1
1
1
1
1
1
1
1
1
1
1
1
1
1
1
1
1
1
1
1
1
1
1
1
1
1
1
1
1
1
1
1
1
1
1
1
1
1
1
1
1
1
1
1
1
1
1
1
1
1
1
1
1
1
1
1
1
1
1
1
1
1
1
1
1
1
1
1
1
1
1
1
1
1
1
1
1
1
1
1
1
1
1
1
1
1
1
1
1
1
1
1
1
1
1
1
1
1
1
1
1
1
1
1
1
1
1
1
1
1
1
1
1
1
1
1
1
1
1
1
1
1
1
1
1
1
1
1
1
1
1
1
1
1
1
1
1
1
1
1
1
1
1
1
1
1
1
1
1
1
1
1
1
1
1
1
1
1
1
1
1
1
1
1
1
1
1
1
1
1
1
1
1
1
1
1
1
1
1
1
1
1
1
1
1
1
1
1
1
1
1
1
1
1
1
1
1
1
1
1
1
1
1
1
1
1
1
1
1
1
1
1
1
1
1
1
1
1
1
1
1
1
1
1
1
1
1
1
1
1
1
1
1
1
1
1
1
1
1
1
1
1
1
1
1
1
1
1
1
1
1
1
1
1
1
1
1
1
1
1
1
1
1
1
1
1
1
1
1
1
1
1
1
1
1
1
1
1
1
1
1
1
1
1
1
1
1
1
1
1
1
1
1
1
1
1
1
1
1
1
1
1
1
1
1
1
1
1
1
1
1
1
1
1
1
1
1
1
1
1
1
1
1
1
1
1
1
1
1
1
1
1
1
1
1
1
1
1
1
1
1
1
1
0.999999
0.999994
0.999988
0.999982
0.999976
0.99997
0.999964
0.999958
0.999952
0.999947
0.999942
0.999937
0.999932
0.999928
0.999925
0.999922
0.99992
0.999919
0.999918
0.999918
0.999919
0.99992
0.999922
0.999925
0.999929
0.999933
0.999937
0.999942
0.999947
0.999953
0.999958
0.999964
0.99997
0.999976
0.999982
0.999988
0.999994
0.999999
1
1
1
1
1
1
1
1
1
1
1
1
1
1
1
1
1
1
1
1
1
6.27408e-05
6.30352e-05
6.26832e-05
6.2076e-05
6.10505e-05
5.96324e-05
5.79105e-05
5.59584e-05
5.37386e-05
5.12257e-05
4.84204e-05
4.53238e-05
4.19324e-05
3.82549e-05
3.42959e-05
3.00619e-05
2.55701e-05
2.08444e-05
1.59379e-05
1.09132e-05
5.8434e-06
1.17491e-06
1.29061e-81
1.29061e-81
1.39119e-78
2.97256e-75
5.77092e-73
6.82751e-71
6.31609e-69
4.85727e-67
3.17324e-65
1.77421e-63
8.47323e-62
3.42429e-60
1.1518e-58
3.1527e-57
6.82732e-56
1.13e-54
1.36876e-53
1.1448e-52
1.27856e-52
1.52123e-53
5.87134e-55
1.07627e-56
1.33906e-58
1.25417e-60
9.49807e-63
6.25844e-65
3.89889e-67
2.43858e-69
1.53976e-71
9.72019e-74
6.17307e-76
3.73047e-78
0
-2.61903e-26
-9.51656e-29
-6.40207e-26
6.13399e-07
4.93124e-06
9.88747e-06
1.48492e-05
1.97657e-05
2.45004e-05
2.90268e-05
3.33328e-05
3.7357e-05
4.11387e-05
4.46411e-05
4.78681e-05
5.0786e-05
5.34296e-05
5.56609e-05
5.75375e-05
5.95187e-05
6.08814e-05
6.17517e-05
6.21896e-05
6.25424e-05
6.18949e-05
7.84726e-13
7.5906e-13
8.71908e-13
6.97713e-13
6.4754e-13
6.58797e-13
6.47314e-13
6.04149e-13
5.52339e-13
4.99033e-13
4.42876e-13
3.83741e-13
3.24177e-13
2.65226e-13
2.09275e-13
1.5796e-13
1.12581e-13
7.44458e-14
4.42049e-14
2.35978e-14
1.2068e-14
-6.26358e-20
1.28897e-81
9.48695e-74
1.67846e-71
1.39063e-69
1.03539e-67
6.91565e-66
4.11187e-64
2.15648e-62
9.86514e-61
3.88243e-59
1.29201e-57
3.55863e-56
7.89711e-55
1.3638e-53
1.74659e-52
1.57501e-51
1.30957e-50
1.81825e-50
1.86696e-50
1.28525e-50
1.68586e-51
5.87134e-55
1.07627e-56
1.33905e-58
1.25417e-60
9.49807e-63
6.25844e-65
3.89889e-67
2.43858e-69
1.53967e-71
9.72019e-74
6.17307e-76
3.73047e-78
0
-9.56644e-35
-1.12533e-30
-4.333e-20
9.59147e-15
2.1334e-14
4.03998e-14
7.07444e-14
1.10111e-13
1.59547e-13
2.25796e-13
2.8068e-13
3.30504e-13
4.0185e-13
4.67132e-13
5.24115e-13
5.76286e-13
5.88728e-13
5.82077e-13
5.89229e-13
7.22589e-13
8.2496e-13
8.68755e-13
7.36986e-13
9.38654e-13
1.13556e-15
1.06633e-15
1.18087e-15
9.88984e-16
9.19686e-16
9.05425e-16
8.63707e-16
7.89111e-16
7.06744e-16
6.22649e-16
5.36071e-16
4.48236e-16
3.62219e-16
2.80549e-16
2.07093e-16
1.44101e-16
9.29074e-17
5.43099e-17
2.79352e-17
1.23871e-17
4.90735e-18
2.40741e-33
8.68836e-74
1.09817e-70
1.88796e-68
1.55203e-66
1.15083e-64
7.64645e-63
4.51788e-61
2.35223e-59
1.06733e-57
4.16447e-56
1.37454e-54
3.76203e-53
8.32935e-52
1.44555e-50
1.88413e-49
1.75752e-48
1.43058e-47
3.03359e-47
3.15973e-47
1.4395e-47
1.90624e-48
9.33512e-51
1.8145e-52
2.42854e-54
2.48336e-56
2.08684e-58
1.55394e-60
1.11075e-62
8.14627e-65
6.34847e-67
5.2894e-69
4.68129e-71
4.3504e-73
4.1815e-75
1.15871e-75
-1.08233e-34
-1.31867e-20
3.55679e-18
1.03612e-17
2.44074e-17
5.03256e-17
8.82786e-17
1.40693e-16
2.15305e-16
2.86596e-16
3.6247e-16
4.58672e-16
5.52963e-16
6.53973e-16
7.48705e-16
7.81684e-16
7.95702e-16
8.25619e-16
9.69019e-16
1.10027e-15
1.17231e-15
1.00113e-15
1.2796e-15
2.89484e-18
2.72033e-18
3.02606e-18
2.49868e-18
2.29791e-18
2.24615e-18
2.11951e-18
1.90664e-18
1.67374e-18
1.43904e-18
1.20214e-18
9.68186e-19
7.48611e-19
5.50218e-19
3.8142e-19
2.46149e-19
1.44956e-19
7.56816e-20
3.33801e-20
1.21335e-20
3.62351e-21
1.12868e-34
9.81593e-71
6.32693e-68
1.10874e-65
9.10968e-64
6.70617e-62
4.41702e-60
2.58336e-58
1.32962e-56
5.95764e-55
2.29415e-53
7.47539e-52
2.02276e-50
4.4409e-49
7.68061e-48
1.00575e-46
9.5274e-46
7.62243e-45
1.95538e-44
2.04515e-44
7.8121e-45
1.04389e-45
8.26712e-48
1.66716e-49
2.32859e-51
2.49706e-53
2.20407e-55
1.71731e-57
1.27088e-59
9.51576e-62
7.4937e-64
6.27623e-66
5.5613e-68
5.16348e-70
4.95973e-72
-8.87075e-108
-1.66838e-38
2.5867e-37
2.51446e-21
9.71941e-21
2.79113e-20
6.71625e-20
1.33283e-19
2.34251e-19
3.86779e-19
5.56008e-19
7.45577e-19
9.86906e-19
1.23445e-18
1.50041e-18
1.75716e-18
1.87498e-18
1.94217e-18
2.04588e-18
2.45583e-18
2.79223e-18
3.00177e-18
2.57072e-18
3.28655e-18
1.48503e-20
1.43051e-20
1.4271e-20
1.19696e-20
1.14295e-20
1.0668e-20
9.26136e-21
7.66793e-21
6.171e-21
4.69056e-21
3.26969e-21
2.11044e-21
1.56115e-21
1.09066e-21
7.11247e-22
4.26275e-22
2.29362e-22
1.07113e-22
4.10613e-23
1.24425e-23
2.90437e-24
5.08178e-38
5.79834e-68
2.68393e-65
4.53904e-63
3.67678e-61
2.67759e-59
1.74187e-57
1.0047e-55
5.09313e-54
2.24563e-52
8.50614e-51
2.72743e-49
7.27173e-48
1.57684e-46
2.70399e-45
3.53159e-44
3.36299e-43
2.64531e-42
7.55684e-42
7.91624e-42
2.74364e-42
3.7044e-43
3.74784e-45
7.84575e-47
1.14457e-48
1.28928e-50
1.19911e-52
9.82861e-55
7.59694e-57
5.87335e-59
4.72274e-61
4.01117e-63
3.59016e-65
3.3564e-67
3.24565e-69
1.95989e-70
-3.4825e-42
-2.50129e-38
1.92413e-24
9.63655e-24
3.34328e-23
9.30779e-23
2.07556e-22
4.0062e-22
7.14353e-22
1.09269e-21
1.54237e-21
2.13595e-21
3.23309e-21
4.60187e-21
6.67729e-21
8.48237e-21
9.14083e-21
9.65018e-21
1.04415e-20
1.29376e-20
1.46306e-20
1.35888e-20
1.58725e-20
4.94917e-23
4.73174e-23
4.7992e-23
3.9682e-23
3.71644e-23
3.45482e-23
2.99398e-23
2.46142e-23
1.95793e-23
1.47358e-23
1.01925e-23
6.3893e-24
4.11871e-24
2.73916e-24
1.68295e-24
9.38429e-25
4.6235e-25
1.93657e-25
6.47499e-26
1.64391e-26
3.02322e-27
2.42624e-41
2.38377e-65
8.2045e-63
1.41139e-60
1.1349e-58
8.14737e-57
5.21646e-55
2.95719e-53
1.47175e-51
6.36652e-50
2.36557e-48
7.44371e-47
1.94987e-45
4.16261e-44
7.04931e-43
9.1351e-42
8.68483e-41
6.71856e-40
2.05107e-39
2.14989e-39
7.02561e-40
9.59068e-41
1.13436e-42
2.46703e-44
3.76287e-46
4.46004e-48
4.38397e-50
3.79863e-52
3.08939e-54
2.49151e-56
2.06878e-58
1.79999e-60
1.64303e-62
1.56148e-64
1.52752e-66
-3.33591e-83
-9.95225e-46
8.75812e-44
1.92514e-27
1.2405e-26
5.16106e-26
1.65212e-25
4.12668e-25
8.73682e-25
1.68112e-24
2.73045e-24
4.04155e-24
5.94717e-24
1.0134e-23
1.46581e-23
2.09299e-23
2.6427e-23
2.89951e-23
3.11131e-23
3.50025e-23
4.32678e-23
4.88757e-23
4.47913e-23
5.35672e-23
1.93425e-25
1.84623e-25
1.89401e-25
1.54535e-25
1.42563e-25
1.31891e-25
1.1379e-25
9.26918e-26
7.27335e-26
5.39702e-26
3.68758e-26
2.27052e-26
1.32202e-26
8.38243e-27
4.86157e-27
2.52784e-27
1.14353e-27
4.31059e-28
1.26271e-28
2.70326e-29
3.95555e-30
-2.28138e-45
2.1044e-60
2.17681e-60
3.59642e-58
2.83204e-56
1.99763e-54
1.25479e-52
6.97031e-51
3.39644e-49
1.43784e-47
5.22824e-46
1.61071e-44
4.13521e-43
8.66744e-42
1.44506e-40
1.85097e-39
1.7486e-38
1.33074e-37
4.23945e-37
4.44379e-37
1.39932e-37
1.9319e-38
2.55634e-40
5.78085e-42
9.22954e-44
1.15308e-45
1.2013e-47
1.10531e-49
9.51867e-52
8.07528e-54
6.99407e-56
6.29553e-58
5.9111e-60
5.75972e-62
5.75627e-64
-4.49028e-71
-3.79141e-49
-4.81077e-45
2.42391e-30
1.98886e-29
9.88933e-29
3.62808e-28
1.0091e-27
2.32814e-27
4.81755e-27
8.31514e-27
1.29065e-26
2.12593e-26
3.6633e-26
5.40828e-26
7.70654e-26
9.73942e-26
1.08522e-25
1.1822e-25
1.3721e-25
1.69968e-25
1.92011e-25
1.74277e-25
2.11904e-25
8.83283e-28
8.42332e-28
8.71145e-28
7.02696e-28
6.40253e-28
5.88995e-28
5.05034e-28
4.07118e-28
3.14831e-28
2.29824e-28
1.54424e-28
9.31553e-29
5.02638e-29
3.04431e-29
1.6705e-29
8.12177e-30
3.38465e-30
1.15298e-30
2.97497e-31
5.4109e-32
6.37102e-33
-5.95245e-47
7.64101e-60
4.70315e-58
7.64116e-56
5.90396e-54
4.0794e-52
2.50689e-50
1.3611e-48
6.47837e-47
2.67812e-45
9.50988e-44
2.86254e-42
7.18772e-41
1.47598e-39
2.41689e-38
3.05144e-37
2.85483e-36
2.13771e-35
6.99953e-35
7.33392e-35
2.25595e-35
3.15067e-36
4.54805e-38
1.07057e-39
1.79172e-41
2.36382e-43
2.61703e-45
2.56703e-47
2.35368e-49
2.1149e-51
1.92648e-53
1.81051e-55
1.76349e-57
1.77518e-59
1.8275e-61
7.36953e-77
-1.8717e-52
-5.81881e-48
3.77574e-33
3.88256e-32
2.28103e-31
9.54527e-31
2.95454e-30
7.42009e-30
1.64253e-29
2.99841e-29
4.88297e-29
8.78241e-29
1.52951e-28
2.30481e-28
3.30301e-28
4.20281e-28
4.76204e-28
5.26634e-28
6.26174e-28
7.7808e-28
8.8065e-28
7.941e-28
9.75364e-28
4.62783e-30
4.40795e-30
4.58609e-30
3.66297e-30
3.3025e-30
3.02087e-30
2.57309e-30
2.05246e-30
1.56446e-30
1.12316e-30
7.41148e-31
4.3856e-31
2.26214e-31
1.28757e-31
6.70282e-32
3.05682e-32
1.17804e-32
3.64374e-33
8.33222e-34
1.29835e-34
1.24522e-35
-8.94629e-48
1.51403e-57
8.64503e-56
1.38816e-53
1.04951e-51
7.0854e-50
4.24985e-48
2.25047e-46
1.0442e-44
4.20725e-43
1.45633e-41
4.27568e-40
1.04831e-38
2.10546e-37
3.38004e-36
4.19731e-35
3.879e-34
2.85813e-33
9.51938e-33
9.96792e-33
3.02347e-33
4.27225e-34
6.62215e-36
1.62466e-37
2.85477e-39
3.98478e-41
4.6993e-43
4.93042e-45
4.83608e-47
4.63063e-49
4.46734e-51
4.41891e-53
4.50435e-55
4.71752e-57
5.04068e-59
1.88657e-74
-1.21416e-55
-7.18565e-49
7.13251e-36
9.11427e-35
6.27759e-34
2.96886e-33
1.01444e-32
2.76641e-32
6.54643e-32
1.26058e-31
2.19848e-31
4.13257e-31
7.29981e-31
1.12528e-30
1.63271e-30
2.09579e-30
2.40605e-30
2.6952e-30
3.2689e-30
4.0759e-30
4.63056e-30
4.16695e-30
5.14351e-30
2.74269e-32
2.60952e-32
2.72681e-32
2.15926e-32
1.92932e-32
1.75525e-32
1.48522e-32
1.17268e-32
8.81595e-33
6.22736e-33
4.03577e-33
2.34167e-33
1.17386e-33
6.25354e-34
3.09775e-34
1.32986e-34
4.75971e-35
1.34383e-35
2.74171e-36
3.69294e-37
2.92235e-38
-3.61467e-49
8.52841e-56
2.35071e-53
2.18391e-51
1.61234e-49
1.06132e-47
6.20138e-46
3.19704e-44
1.44363e-42
5.66018e-41
1.90711e-39
5.45392e-38
1.30401e-36
2.55822e-35
4.02043e-34
4.9019e-33
4.46599e-32
3.23805e-31
1.08909e-30
1.13966e-30
3.43177e-31
4.90604e-32
8.08107e-34
2.0692e-35
3.82359e-37
5.65751e-39
7.12368e-41
8.01847e-43
8.44919e-45
8.67071e-47
8.91799e-49
9.3475e-51
1.00463e-52
1.10469e-54
1.23592e-56
1.47059e-58
6.21148e-59
-3.38319e-51
1.62162e-38
2.53442e-37
2.03089e-36
1.08104e-35
4.05232e-35
1.192e-34
3.00514e-34
6.08833e-34
1.12982e-33
2.20956e-33
3.96731e-33
6.23233e-33
9.15201e-33
1.18707e-32
1.3784e-32
1.56158e-32
1.92896e-32
2.41421e-32
2.75079e-32
2.47761e-32
3.07046e-32
1.81694e-34
1.72758e-34
1.81102e-34
1.42335e-34
1.26199e-34
1.14242e-34
9.60635e-35
7.51267e-35
5.57569e-35
3.87903e-35
2.47107e-35
1.4069e-35
6.89677e-36
3.45001e-36
1.63152e-36
6.61883e-37
2.21035e-37
5.72875e-38
1.05025e-38
1.23443e-39
8.1682e-41
-3.06141e-50
2.35325e-53
3.88533e-51
3.00282e-49
2.16012e-47
1.38395e-45
7.86498e-44
3.9416e-42
1.72975e-40
6.59153e-39
2.15943e-37
6.00919e-36
1.39968e-34
2.67916e-33
4.1167e-32
4.92112e-31
4.41322e-30
3.14893e-29
1.06386e-28
1.1125e-28
3.3421e-29
4.83303e-30
8.40052e-32
2.24829e-33
4.37659e-35
6.87846e-37
9.27068e-39
1.123e-40
1.27599e-42
1.41019e-44
1.55581e-46
1.73896e-48
1.98142e-50
2.30035e-52
2.70735e-54
3.47921e-56
1.32848e-57
-1.9814e-51
4.40817e-41
8.30257e-40
7.64697e-39
4.54784e-38
1.86304e-37
5.87993e-37
1.57156e-36
3.3408e-36
6.56957e-36
1.32732e-35
2.42491e-35
3.87451e-35
5.75011e-35
7.53811e-35
8.85494e-35
1.01295e-34
1.27225e-34
1.59972e-34
1.82537e-34
1.64451e-34
2.04682e-34
1.33234e-36
1.26653e-36
1.33101e-36
1.03935e-36
9.15457e-37
8.25052e-37
6.89832e-37
5.34832e-37
3.92348e-37
2.69207e-37
1.68818e-37
9.44522e-38
4.54588e-38
2.14312e-38
9.70935e-39
3.73766e-39
1.17037e-39
2.80134e-40
4.64968e-41
4.81602e-42
2.70082e-43
2.54802e-49
3.03493e-51
4.96685e-49
3.65159e-47
2.53867e-45
1.58097e-43
8.72756e-42
4.24708e-40
1.80955e-38
6.69602e-37
2.13117e-35
5.76601e-34
1.30719e-32
2.43895e-31
3.66029e-30
4.28505e-29
3.77805e-28
2.65316e-27
8.96593e-27
9.36832e-27
2.81835e-27
4.12196e-28
7.52399e-30
2.10838e-31
4.33237e-33
7.24847e-35
1.04836e-36
1.3709e-38
1.6857e-40
2.01422e-42
2.39501e-44
2.87212e-46
3.49084e-48
4.29806e-50
5.34444e-52
3.88483e-53
3.00248e-55
-3.94449e-53
1.41684e-43
3.17881e-42
3.33331e-41
2.19351e-40
9.76396e-40
3.29416e-39
9.29181e-39
2.06474e-38
4.28755e-38
8.89687e-38
1.65292e-37
2.68467e-37
4.02571e-37
5.3269e-37
6.32806e-37
7.29892e-37
9.29306e-37
1.17426e-36
1.3421e-36
1.20825e-36
1.50778e-36
1.07262e-38
1.01971e-38
1.07392e-38
8.34013e-39
7.30514e-39
6.55875e-39
5.45678e-39
4.19887e-39
3.04911e-39
2.06684e-39
1.27819e-39
7.04103e-40
3.33426e-40
1.48821e-40
6.48302e-41
2.37847e-41
7.01971e-42
1.56149e-42
2.36498e-43
2.17466e-44
1.06411e-45
2.9996e-47
3.52842e-49
5.69114e-47
3.93241e-45
2.62657e-43
1.58878e-41
8.51213e-40
4.01898e-38
1.66136e-36
5.9658e-35
1.84343e-33
4.84563e-32
1.0684e-30
1.94154e-29
2.84353e-28
3.25693e-27
2.82031e-26
1.9493e-25
6.56597e-25
6.85456e-25
2.07122e-25
3.07684e-26
5.85314e-28
1.72074e-29
3.74102e-31
6.67949e-33
1.03927e-34
1.47117e-36
1.96459e-38
2.5484e-40
3.27911e-42
4.23792e-44
5.52643e-46
7.26299e-48
9.60542e-50
7.42976e-51
5.80927e-53
4.15018e-51
4.70709e-46
1.41245e-44
1.67194e-43
1.20789e-42
5.79667e-42
2.0793e-41
6.16421e-41
1.42696e-40
3.12829e-40
6.62309e-40
1.24909e-39
2.05959e-39
3.11976e-39
4.15903e-39
4.98672e-39
5.79419e-39
7.45792e-39
9.46168e-39
1.08397e-38
9.76132e-39
1.21941e-38
9.41466e-41
8.95275e-41
9.44699e-41
7.30353e-41
6.36797e-41
5.69973e-41
4.72298e-41
3.61153e-41
2.60034e-41
1.74461e-41
1.06618e-41
5.79525e-42
2.70669e-42
1.14819e-42
4.82815e-43
1.69586e-43
4.74314e-44
9.86603e-45
1.36265e-45
1.69126e-46
1.12206e-46
8.58439e-47
3.63584e-47
5.76132e-45
3.74183e-43
2.39797e-41
1.40823e-39
7.31793e-38
3.35054e-36
1.3431e-34
4.67785e-33
1.40254e-31
3.57977e-30
7.67185e-29
1.35704e-27
1.9382e-26
2.17013e-25
1.84391e-24
1.25418e-23
4.19844e-23
4.37906e-23
1.33264e-23
2.01071e-24
3.97699e-26
1.2294e-27
2.83512e-29
5.41684e-31
9.09232e-33
1.39718e-34
2.03256e-36
2.87358e-38
4.01958e-40
5.62196e-42
7.89389e-44
1.11217e-45
1.6345e-47
1.3034e-48
9.2365e-51
7.30332e-49
2.1912e-48
7.2473e-47
9.58187e-46
7.54791e-45
3.88129e-44
1.47218e-43
4.56491e-43
1.09619e-42
2.53061e-42
5.45036e-42
1.04034e-41
1.73659e-41
2.65451e-41
3.56161e-41
4.29927e-41
5.02647e-41
6.52999e-41
8.30971e-41
9.53768e-41
8.59789e-41
1.07527e-40
8.95472e-43
8.51954e-43
9.00634e-43
6.93785e-43
6.02732e-43
5.38254e-43
4.44673e-43
3.38381e-43
2.41994e-43
1.61017e-43
9.74536e-44
5.2395e-44
2.42031e-44
9.79091e-45
3.99031e-45
1.34825e-45
3.56855e-46
7.10629e-47
2.16938e-47
9.4692e-47
1.39948e-46
1.12206e-46
8.16218e-45
5.21989e-43
3.1602e-41
1.93781e-39
1.1022e-37
5.55339e-36
2.46474e-34
9.57735e-33
3.23398e-31
9.40469e-30
2.32986e-28
4.85127e-27
8.34853e-26
1.16209e-24
1.27094e-23
1.05876e-22
7.08594e-22
2.35125e-21
2.45011e-21
7.52737e-22
1.15346e-22
2.36868e-24
7.7198e-26
1.89383e-27
3.88377e-29
7.05547e-31
1.18076e-32
1.87698e-34
2.90094e-36
4.42691e-38
6.72753e-40
1.02084e-41
1.54578e-43
6.00473e-45
2.12644e-46
1.88068e-48
2.19137e-48
2.50023e-48
1.03639e-48
6.42616e-48
5.30567e-47
2.91559e-46
1.16266e-45
3.75416e-45
9.3123e-45
2.25553e-44
4.93235e-44
9.50605e-44
1.60111e-43
2.46405e-43
3.32515e-43
4.03472e-43
4.73995e-43
6.2069e-43
7.91807e-43
9.09486e-43
8.20099e-43
1.02653e-42
9.18018e-45
8.74037e-45
9.25646e-45
7.11116e-45
6.1614e-45
5.49451e-45
4.53065e-45
3.43607e-45
2.44516e-45
1.61685e-45
9.71399e-46
5.17933e-46
2.37322e-46
9.18571e-47
3.64103e-47
1.17348e-47
5.80179e-48
5.93892e-48
1.38164e-47
2.16938e-47
1.63955e-46
1.11744e-44
7.11959e-43
4.28923e-41
2.46563e-39
1.40136e-37
7.61139e-36
3.72012e-34
1.60014e-32
6.02565e-31
1.97222e-29
5.56182e-28
1.33708e-26
2.70424e-25
4.52575e-24
6.13642e-23
6.551e-22
5.34708e-21
3.52083e-20
1.15519e-19
1.20246e-19
3.73792e-20
5.81746e-21
1.23922e-22
4.27147e-24
1.11857e-25
2.47053e-27
4.87348e-29
8.91168e-31
1.55299e-32
2.63179e-34
4.39391e-36
7.27621e-38
1.19718e-39
1.95558e-41
1.62607e-42
3.26267e-44
5.0864e-46
7.83907e-48
1.0364e-48
7.71171e-49
5.05937e-49
6.71676e-49
2.41024e-48
1.01881e-47
3.41231e-47
8.70765e-47
2.20443e-46
4.87762e-46
9.47365e-46
1.60642e-45
2.48299e-45
3.36556e-45
4.10137e-45
4.83549e-45
6.37221e-45
8.14353e-45
9.355e-45
8.43206e-45
1.05551e-44
1.00949e-46
9.62067e-47
1.02075e-46
7.82703e-47
6.76987e-47
6.03418e-47
4.97213e-47
3.76394e-47
2.67017e-47
1.75843e-47
1.05128e-47
5.57438e-48
2.54125e-48
9.35247e-49
3.9005e-49
3.04321e-49
2.98271e-48
5.80001e-48
5.93837e-48
1.8763e-46
1.34643e-44
8.80075e-43
5.38672e-41
3.10538e-39
1.69579e-37
8.93102e-36
4.63795e-34
2.1971e-32
9.15843e-31
3.34219e-29
1.06034e-27
2.89976e-26
6.76452e-25
1.32871e-23
2.16204e-22
2.85444e-21
2.97285e-20
2.37615e-19
1.53913e-18
4.98295e-18
5.18072e-18
1.63272e-18
2.58101e-19
5.70019e-21
2.0856e-22
5.85325e-24
1.39769e-25
3.00442e-27
6.02207e-29
1.15394e-30
2.15077e-32
3.9405e-34
7.12934e-36
1.27519e-37
2.34532e-39
2.06654e-40
4.25334e-42
6.89906e-44
1.12606e-45
1.68767e-47
5.05939e-49
5.05939e-49
2.82266e-49
5.85928e-50
1.09261e-49
3.37991e-49
8.92229e-49
2.35483e-48
5.24878e-48
1.0246e-47
1.74587e-47
2.70555e-47
3.67618e-47
4.49273e-47
5.30834e-47
7.02633e-47
8.98579e-47
1.03201e-46
9.29886e-47
1.16384e-46
1.18543e-48
1.13113e-48
1.20242e-48
9.21038e-49
7.95997e-49
7.09838e-49
5.85205e-49
4.42877e-49
3.13799e-49
2.06266e-49
1.23032e-49
6.49535e-50
2.84545e-50
2.11466e-50
4.96967e-50
1.91284e-49
3.04305e-49
2.98094e-48
1.87306e-46
1.41136e-44
9.68916e-43
6.14769e-41
3.63008e-39
2.00658e-37
1.04292e-35
5.13975e-34
2.50565e-32
1.14065e-30
4.61203e-29
1.63142e-27
5.01811e-26
1.33103e-24
3.01326e-23
5.74836e-22
9.09356e-21
1.16877e-19
1.18694e-18
9.28729e-18
5.92298e-17
1.90263e-16
1.97647e-16
6.27806e-17
1.00699e-17
2.30503e-19
8.98949e-21
2.71604e-22
7.04267e-24
1.65625e-25
3.65161e-27
7.71629e-29
1.58573e-30
3.19559e-32
6.33059e-34
1.23392e-35
1.07396e-36
2.56099e-38
4.64726e-40
8.39332e-42
1.42233e-43
2.24353e-45
3.2658e-47
4.37065e-49
5.85909e-50
4.23727e-50
1.6869e-50
7.58671e-51
9.97206e-51
2.69986e-50
6.12678e-50
1.19848e-49
2.04731e-49
3.17588e-49
4.317e-49
5.28076e-49
6.24309e-49
8.28569e-49
1.05921e-48
1.21553e-48
1.09487e-48
1.37012e-48
1.48037e-50
1.41459e-50
1.50683e-50
1.15394e-50
9.97416e-51
8.90788e-51
7.35694e-51
5.57489e-51
3.95296e-51
2.59981e-51
1.52742e-51
7.89867e-52
1.11822e-51
1.11468e-50
2.11462e-50
4.96424e-50
2.83893e-48
1.98123e-46
1.29069e-44
9.05163e-43
6.12324e-41
3.78892e-39
2.16607e-37
1.15124e-35
5.71732e-34
2.66863e-32
1.19656e-30
5.19505e-29
2.03744e-27
6.98972e-26
2.0853e-24
5.3664e-23
1.17929e-21
2.18531e-20
3.36112e-19
4.2051e-18
4.16394e-17
3.19911e-16
2.08352e-15
6.19895e-15
6.41429e-15
2.23409e-15
3.46417e-16
8.18516e-18
3.41904e-19
1.11788e-20
3.16334e-22
8.17507e-24
1.98992e-25
4.65041e-27
1.05596e-28
2.34407e-30
5.09201e-32
1.09609e-33
1.05757e-34
2.58906e-36
4.86095e-38
9.15042e-40
1.60289e-41
2.59397e-43
3.8485e-45
5.1731e-47
6.11759e-49
1.68465e-50
7.58659e-51
4.1303e-51
5.99071e-52
5.14875e-52
7.53941e-52
1.50961e-51
2.57957e-51
3.99737e-51
5.42593e-51
6.63176e-51
7.83428e-51
1.04113e-50
1.32942e-50
1.52357e-50
1.37138e-50
1.71519e-50
1.95822e-52
1.87422e-52
2.0009e-52
1.53321e-52
1.32671e-52
1.1879e-52
9.84102e-53
7.4792e-53
5.30957e-53
3.40905e-53
2.81946e-53
1.80385e-52
7.11017e-52
1.11756e-51
2.75913e-50
2.33843e-48
1.84466e-46
1.3381e-44
8.94617e-43
5.34018e-41
3.33765e-39
2.02816e-37
1.12811e-35
5.78994e-34
2.75734e-32
1.22315e-30
5.09872e-29
2.08133e-27
7.85707e-26
2.6189e-24
7.58221e-23
1.89405e-21
4.04199e-20
7.27803e-19
1.08858e-17
1.32647e-16
1.28763e-15
9.99988e-15
5.44143e-14
1.31446e-13
1.34575e-13
5.66814e-14
1.0742e-14
2.54723e-16
1.14621e-17
4.08032e-19
1.26718e-20
3.61584e-22
9.75407e-24
2.52812e-25
6.35518e-27
1.55567e-28
3.71065e-30
3.55907e-31
1.01349e-32
2.15018e-34
4.5135e-36
8.81009e-38
1.58613e-39
2.61722e-41
3.92017e-43
5.22085e-45
6.09892e-47
8.9186e-49
1.33648e-50
5.98495e-52
5.14873e-52
2.62355e-52
1.92279e-53
1.97646e-53
3.44069e-53
5.3726e-53
7.26792e-53
8.86148e-53
1.04476e-52
1.38862e-52
1.76993e-52
2.02467e-52
1.8204e-52
2.27443e-52
2.73342e-54
2.62079e-54
2.80489e-54
2.15237e-54
1.86634e-54
1.67715e-54
1.39568e-54
1.05329e-54
7.29745e-55
1.2189e-54
1.48993e-53
2.81917e-53
1.79806e-52
1.65113e-50
1.54845e-48
1.32318e-46
1.03327e-44
7.39632e-43
4.86574e-41
2.94837e-39
1.65003e-37
9.39735e-36
5.12441e-34
2.55428e-32
1.17191e-30
4.97289e-29
1.96189e-27
7.32829e-26
2.63911e-24
8.53826e-23
2.40086e-21
5.82528e-20
1.20795e-18
2.11464e-17
3.07929e-16
3.68519e-15
3.55219e-14
2.07818e-13
6.24168e-13
1.95242e-12
2.02134e-12
5.69353e-13
2.17633e-13
6.92713e-15
3.38048e-16
1.31949e-17
4.5264e-19
1.43383e-20
4.30429e-22
1.24085e-23
3.45879e-25
9.34337e-27
2.47068e-28
2.6705e-29
7.78901e-31
1.69956e-32
3.70842e-34
7.45561e-36
1.37067e-37
2.28694e-39
3.4001e-41
4.45629e-43
7.01801e-45
1.05388e-46
1.46099e-48
1.87537e-50
2.61417e-52
1.92227e-53
1.17001e-53
2.38686e-54
6.01458e-55
7.5226e-55
1.03304e-54
1.25607e-54
1.47587e-54
1.95905e-54
2.49007e-54
2.84133e-54
2.5507e-54
3.18246e-54
4.01182e-56
3.85383e-56
4.13613e-56
3.18113e-56
2.76681e-56
2.49839e-56
2.06167e-56
1.85053e-56
1.44701e-55
5.52386e-55
1.21669e-54
6.62366e-53
7.58259e-51
7.86829e-49
7.38488e-47
6.29511e-45
4.89036e-43
3.47182e-41
2.25751e-39
1.347e-37
7.38716e-36
3.75004e-34
1.99765e-32
9.74482e-31
4.33621e-29
1.76968e-27
6.64651e-26
2.3171e-24
7.74576e-23
2.40324e-21
6.57864e-20
1.55191e-18
3.12967e-17
5.33558e-16
7.65064e-15
8.95012e-14
6.03784e-13
1.95282e-12
1.03115e-11
3.93274e-11
4.07041e-11
1.09643e-11
2.03237e-12
1.64003e-13
8.74741e-15
3.77392e-16
1.44054e-17
5.09621e-19
1.71006e-20
5.49981e-22
1.70257e-23
5.08697e-25
5.6598e-26
1.93166e-27
4.79129e-29
1.17406e-30
2.64432e-32
5.43072e-34
1.01011e-35
1.6737e-37
2.45215e-39
4.32025e-41
7.16498e-43
1.09515e-44
1.53885e-46
1.98244e-48
2.25689e-50
2.18937e-52
2.37695e-54
6.01415e-55
3.14447e-55
2.18596e-56
1.50054e-56
1.86309e-56
2.20111e-56
2.91331e-56
3.6886e-56
4.19527e-56
3.75877e-56
4.68217e-56
6.16997e-58
5.93925e-58
6.39453e-58
4.93338e-58
4.30606e-58
3.79714e-58
4.79621e-58
9.53538e-57
1.85034e-56
1.44149e-55
1.90497e-53
2.48443e-51
2.89341e-49
3.02616e-47
2.85636e-45
2.4428e-43
1.89878e-41
1.34473e-39
8.69352e-38
5.13816e-36
2.7798e-34
1.37836e-32
6.48249e-31
3.13173e-29
1.36278e-27
5.38889e-26
1.94588e-24
6.43037e-23
1.96518e-21
5.81846e-20
1.54506e-18
3.55406e-17
6.98606e-16
1.17662e-14
1.61631e-13
1.27478e-12
5.22309e-12
3.32565e-11
1.83466e-10
7.2308e-10
7.46744e-10
1.98623e-10
3.74413e-11
3.36462e-12
1.97933e-13
9.52493e-15
4.07786e-16
1.62107e-17
6.10645e-19
2.19677e-20
7.56123e-22
7.32032e-23
3.39382e-24
1.00129e-25
2.75273e-27
6.97147e-29
1.60444e-30
3.33205e-32
6.15526e-34
1.0231e-35
2.03017e-37
3.72344e-39
6.2783e-41
9.71647e-43
1.32567e-44
1.55946e-46
1.66199e-48
1.59857e-50
1.38082e-52
1.07537e-54
2.18214e-56
1.06123e-56
2.63467e-57
3.26327e-58
3.39556e-58
4.55084e-58
5.73291e-58
6.49514e-58
5.8059e-58
7.21943e-58
9.91144e-60
9.56244e-60
1.03324e-59
7.99394e-60
6.7276e-60
1.61025e-59
2.09483e-58
4.79465e-58
2.21794e-56
3.75319e-54
5.63694e-52
7.48536e-50
8.85665e-48
9.39368e-46
8.97366e-44
7.74856e-42
6.06541e-40
4.31327e-38
2.79085e-36
1.64496e-34
8.83962e-33
4.33357e-31
1.94605e-29
8.49163e-28
3.66243e-26
1.41725e-24
4.95692e-23
1.57259e-21
4.54583e-20
1.22146e-18
3.09314e-17
6.92868e-16
1.35041e-14
2.13938e-13
1.98344e-12
1.03066e-11
7.84757e-11
5.43723e-10
2.91939e-09
1.13238e-08
1.16636e-08
3.15397e-09
6.10955e-10
5.94835e-11
3.89989e-12
2.11451e-13
1.02406e-14
4.6031e-16
1.95409e-17
7.87611e-19
4.16551e-20
4.06866e-21
1.57752e-22
4.70791e-24
1.34666e-25
3.48396e-27
8.09325e-29
1.66554e-30
3.26396e-32
7.19516e-34
1.46094e-35
2.71887e-37
4.3593e-39
6.16864e-41
7.93135e-43
9.24588e-45
9.74407e-47
9.24907e-49
7.86973e-51
5.96612e-53
4.00057e-55
2.62776e-57
3.26307e-58
1.67983e-58
8.63567e-60
7.2089e-60
9.31686e-60
1.05115e-59
9.37105e-60
1.16297e-59
1.65797e-61
1.60357e-61
1.73866e-61
1.3026e-61
5.52184e-61
4.00298e-60
1.60806e-59
2.25502e-57
4.59705e-55
8.10426e-53
1.24892e-50
1.69943e-48
2.05744e-46
2.22921e-44
2.17138e-42
1.90793e-40
1.51602e-38
1.09127e-36
7.12495e-35
4.22284e-33
2.27299e-31
1.11127e-29
4.94267e-28
2.00463e-26
8.05433e-25
3.09282e-23
1.05974e-21
3.25973e-20
9.02885e-19
2.26831e-17
5.29667e-16
1.15548e-14
2.06377e-13
2.2134e-12
1.56242e-11
1.36955e-10
1.1305e-09
7.53959e-09
3.92426e-08
1.49476e-07
1.53477e-07
4.22889e-08
8.45362e-09
9.00126e-10
6.65463e-11
4.11046e-12
2.27221e-13
1.16179e-14
5.57583e-16
2.52426e-17
3.58973e-18
1.72715e-19
5.71093e-21
1.85309e-22
5.40724e-24
1.40876e-25
3.22364e-27
7.70972e-29
1.89377e-30
4.20747e-32
7.87934e-34
1.3383e-35
2.06384e-37
2.88728e-39
3.66017e-41
4.19702e-43
4.34166e-45
4.03756e-47
3.36016e-49
2.48776e-51
1.62589e-53
9.28508e-56
4.6252e-58
8.6356e-60
4.04329e-60
3.06852e-61
1.51823e-61
1.77251e-61
1.57574e-61
1.95121e-61
2.87956e-63
2.79231e-63
2.94894e-63
1.19674e-62
7.90006e-62
5.19823e-61
1.22976e-58
3.14351e-56
6.76719e-54
1.24627e-51
1.98596e-49
2.79104e-47
3.48545e-45
3.88982e-43
3.89617e-41
3.5134e-39
2.85848e-37
2.10132e-35
1.39701e-33
8.40343e-32
4.5737e-30
2.25158e-28
1.00485e-26
4.04516e-25
1.48037e-23
5.43164e-22
1.85172e-20
5.59481e-19
1.50675e-17
3.62338e-16
7.97028e-15
1.47944e-13
1.71008e-12
1.68203e-11
1.8335e-10
1.74494e-09
1.37427e-08
8.76779e-08
4.40366e-07
1.64234e-06
1.68004e-06
4.73207e-07
9.80683e-08
1.15574e-08
9.76388e-10
6.95137e-11
4.4251e-12
2.58803e-13
1.40967e-14
2.17384e-15
1.24448e-16
4.75964e-18
1.76229e-19
5.82442e-21
1.70526e-22
4.3824e-24
1.31377e-25
3.35821e-27
7.5971e-29
1.55387e-30
2.87502e-32
4.81424e-34
7.29522e-36
9.99919e-38
1.23871e-39
1.3849e-41
1.39407e-43
1.2594e-45
1.01666e-47
7.29163e-50
4.61115e-52
2.54537e-54
1.21008e-56
4.82788e-59
3.02555e-61
8.76563e-62
9.20959e-63
3.00522e-63
2.75125e-63
3.39906e-63
5.17748e-65
4.99307e-65
1.34734e-64
1.64633e-63
1.19595e-62
3.70282e-60
1.17574e-57
3.0769e-55
6.80776e-53
1.297e-50
2.15566e-48
3.15631e-46
4.10226e-44
4.75908e-42
4.94794e-40
4.62314e-38
3.88928e-36
2.94942e-34
2.01746e-32
1.24481e-30
6.9255e-29
3.4714e-27
1.57034e-25
6.39622e-24
2.33056e-22
7.69013e-21
2.55882e-19
7.72555e-18
2.05393e-16
4.96765e-15
9.11498e-14
9.62727e-13
1.28677e-11
1.59615e-10
1.88096e-09
1.86678e-08
1.39313e-07
8.44656e-07
4.06887e-06
1.4791e-05
1.50665e-05
4.35897e-06
9.42404e-07
1.24604e-07
1.21974e-08
1.01233e-09
7.47978e-11
5.0259e-12
5.66629e-13
5.1445e-14
2.65063e-15
1.10558e-16
4.15557e-18
1.36699e-19
4.34725e-21
1.33324e-22
3.68435e-24
9.14896e-26
2.04257e-27
4.10493e-29
7.43388e-31
1.21413e-32
1.78901e-34
2.37817e-36
2.85067e-38
3.07759e-40
2.9864e-42
2.59695e-44
2.01544e-46
1.38817e-48
8.42293e-51