/*--------------------------------*- C++ -*----------------------------------*\
| =========                 |                                                 |
| \\      /  F ield         | OpenFOAM: The Open Source CFD Toolbox           |
|  \\    /   O peration     | Version:  2412                                  |
|   \\  /    A nd           | Website:  www.openfoam.com                      |
|    \\/     M anipulation  |                                                 |
\*---------------------------------------------------------------------------*/
FoamFile
{
    version     2.0;
    format      ascii;
    arch        "LSB;label=32;scalar=64";
    class       surfaceScalarField;
    location    "7.1";
    object      phi;
}
// * * * * * * * * * * * * * * * * * * * * * * * * * * * * * * * * * * * * * //

dimensions      [0 3 -1 0 0 0 0];

oriented        oriented;

internalField   nonuniform List<scalar> 
12640
(
7.80463e-09
-7.80221e-09
6.50181e-09
9.73652e-10
-1.03465e-08
1.68713e-08
-4.26983e-08
3.23742e-08
-8.79511e-08
4.52867e-08
-1.43119e-07
5.52701e-08
-2.05566e-07
6.26479e-08
-2.73239e-07
6.7987e-08
-3.44685e-07
7.18803e-08
-4.18959e-07
7.48385e-08
-4.95509e-07
7.72513e-08
-5.74057e-07
7.9387e-08
-6.5449e-07
8.14073e-08
-7.36778e-07
8.33869e-08
-8.20897e-07
8.53307e-08
-9.0678e-07
8.71866e-08
-9.94266e-07
8.88542e-08
-1.08305e-06
9.01884e-08
-1.17265e-06
9.09998e-08
-1.26235e-06
9.10532e-08
-1.35114e-06
9.00653e-08
-1.4377e-06
8.77054e-08
-1.52032e-06
8.35976e-08
-1.59688e-06
7.73348e-08
-1.66485e-06
6.84951e-08
-1.72127e-06
5.66804e-08
-1.76287e-06
4.15515e-08
-1.78614e-06
2.28961e-08
-1.78751e-06
6.70331e-10
-1.76363e-06
-2.49197e-08
-1.71161e-06
-5.34105e-08
-1.62931e-06
-8.40247e-08
-1.51561e-06
-1.1575e-07
-1.37066e-06
-1.47341e-07
-1.19587e-06
-1.77492e-07
-9.93994e-07
-2.04869e-07
-7.68953e-07
-2.28312e-07
-5.25661e-07
-2.46813e-07
-2.69726e-07
-2.59666e-07
-7.26774e-09
-2.66364e-07
2.55395e-07
-2.66689e-07
5.11898e-07
-2.60605e-07
7.56121e-07
-2.48342e-07
9.82373e-07
-2.30344e-07
1.1857e-06
-2.07329e-07
1.36207e-06
-1.8026e-07
1.50868e-06
-1.50313e-07
1.624e-06
-1.18799e-07
1.70784e-06
-8.70441e-08
1.76127e-06
-5.62911e-08
1.78639e-06
-2.75764e-08
1.78609e-06
-1.69193e-09
1.76374e-06
2.0869e-08
1.72292e-06
3.98726e-08
1.66712e-06
5.53296e-08
1.59961e-06
6.74282e-08
1.52331e-06
7.64938e-08
1.44074e-06
8.29288e-08
1.35401e-06
8.71723e-08
1.26488e-06
8.96559e-08
1.17475e-06
9.07751e-08
1.08472e-06
9.08703e-08
9.95551e-07
9.0221e-08
9.0777e-07
8.90496e-08
8.21671e-07
8.75309e-08
7.37392e-07
8.57987e-08
6.54969e-07
8.39491e-08
5.74401e-07
8.20352e-08
4.9571e-07
8.00566e-08
4.19013e-07
7.79435e-08
3.44594e-07
7.55378e-08
2.73017e-07
7.25736e-08
2.05233e-07
6.86619e-08
1.42708e-07
6.32927e-08
8.75042e-08
5.58738e-08
4.22525e-08
4.58391e-08
9.91086e-09
3.28701e-08
-6.91821e-09
1.73266e-08
-7.86706e-09
1.4303e-09
-7.4589e-09
-1.03354e-09
-6.42848e-09
-2.82833e-08
2.82448e-08
-9.05863e-08
7.95302e-08
-1.87592e-07
1.29812e-07
-3.14636e-07
1.72857e-07
-4.65909e-07
2.07221e-07
-6.35932e-07
2.33546e-07
-8.20201e-07
2.53356e-07
-1.01536e-06
2.68383e-07
-1.21909e-06
2.80186e-07
-1.42996e-06
2.9e-07
-1.64711e-06
2.98694e-07
-1.87011e-06
3.06799e-07
-2.09866e-06
3.14557e-07
-2.33251e-06
3.21965e-07
-2.57123e-06
3.28817e-07
-2.81414e-06
3.34734e-07
-3.06017e-06
3.39168e-07
-3.30773e-06
3.41412e-07
-3.5546e-06
3.40596e-07
-3.79782e-06
3.3568e-07
-4.03352e-06
3.25461e-07
-4.2569e-06
3.08589e-07
-4.46207e-06
2.83616e-07
-4.6421e-06
2.49066e-07
-4.78906e-06
2.0355e-07
-4.8942e-06
1.45932e-07
-4.94826e-06
7.5504e-08
-4.94197e-06
-7.78473e-09
-4.86662e-06
-1.03158e-07
-4.71479e-06
-2.08838e-07
-4.48108e-06
-3.22046e-07
-4.16279e-06
-4.39035e-07
-3.7604e-06
-5.55385e-07
-3.2779e-06
-6.66273e-07
-2.72265e-06
-7.66971e-07
-2.10521e-06
-8.53125e-07
-1.43867e-06
-9.21167e-07
-7.38149e-07
-9.6835e-07
-2.00243e-08
-9.92906e-07
6.98618e-07
-9.93903e-07
1.40073e-06
-9.71312e-07
2.06979e-06
-9.25918e-07
2.69059e-06
-8.59438e-07
3.2498e-06
-7.74502e-07
3.73669e-06
-6.74657e-07
4.14365e-06
-5.64196e-07
4.4665e-06
-4.47869e-07
4.70456e-06
-3.30513e-07
4.86038e-06
-2.16621e-07
4.93927e-06
-1.10025e-07
4.9486e-06
-1.36169e-08
4.89709e-06
7.07138e-08
4.794e-06
1.42091e-07
4.64864e-06
2.00505e-07
4.46975e-06
2.46647e-07
4.26529e-06
2.81685e-07
4.04222e-06
3.0706e-07
3.80644e-06
3.24309e-07
3.56287e-06
3.34921e-07
3.31544e-06
3.40254e-07
3.06722e-06
3.41497e-07
2.82051e-06
3.39657e-07
2.57695e-06
3.35578e-07
2.33762e-06
3.2995e-07
2.1032e-06
3.23317e-07
1.87409e-06
3.1607e-07
1.65054e-06
3.08429e-07
1.43282e-06
3.00408e-07
1.22139e-06
2.91774e-07
1.01712e-06
2.81998e-07
8.21456e-07
2.70209e-07
6.36728e-07
2.55168e-07
4.66313e-07
2.35305e-07
3.14733e-07
2.08883e-07
1.87473e-07
1.74372e-07
9.03296e-08
1.31134e-07
2.79817e-08
8.06448e-08
1.09035e-09
2.91206e-08
-6.03424e-09
-1.71653e-08
1.07389e-08
-8.00994e-08
9.09416e-08
-1.92227e-07
1.91736e-07
-3.51309e-07
2.89045e-07
-5.51392e-07
3.73191e-07
-7.85338e-07
4.41575e-07
-1.04631e-06
4.95125e-07
-1.32856e-06
5.36424e-07
-1.62766e-06
5.68536e-07
-1.9405e-06
5.94312e-07
-2.26502e-06
6.16055e-07
-2.59998e-06
6.35417e-07
-2.94461e-06
6.53415e-07
-3.29838e-06
6.70502e-07
-3.66074e-06
6.86646e-07
-4.03091e-06
7.01404e-07
-4.40768e-06
7.13964e-07
-4.78923e-06
7.23168e-07
-5.17299e-06
7.27522e-07
-5.55539e-06
7.25188e-07
-5.93174e-06
7.13981e-07
-6.29602e-06
6.91379e-07
-6.64075e-06
6.54565e-07
-6.95685e-06
6.00513e-07
-7.23364e-06
5.26151e-07
-7.45894e-06
4.28592e-07
-7.61931e-06
3.05461e-07
-7.70056e-06
1.55295e-07
-7.68838e-06
-2.20308e-08
-7.56938e-06
-2.24869e-07
-7.33202e-06
-4.49534e-07
-6.96791e-06
-6.90137e-07
-6.47268e-06
-9.3884e-07
-5.84702e-06
-1.18622e-06
-5.09689e-06
-1.42212e-06
-4.2337e-06
-1.63638e-06
-3.27368e-06
-1.81979e-06
-2.23723e-06
-1.9646e-06
-1.14781e-06
-2.065e-06
-3.09986e-08
-2.11709e-06
1.08667e-06
-2.11896e-06
2.17853e-06
-2.07049e-06
3.21893e-06
-1.97345e-06
4.18414e-06
-1.83151e-06
5.05354e-06
-1.6504e-06
5.8105e-06
-1.43771e-06
6.44333e-06
-1.20263e-06
6.94568e-06
-9.55317e-07
7.31662e-06
-7.05997e-07
7.56021e-06
-4.6419e-07
7.68473e-06
-2.37902e-07
7.70161e-06
-3.31976e-08
7.62425e-06
1.4605e-07
7.46699e-06
2.98034e-07
7.2441e-06
4.22771e-07
6.96908e-06
5.21678e-07
6.65417e-06
5.9715e-07
6.31009e-06
6.52131e-07
5.94597e-06
6.89766e-07
5.56936e-06
7.13133e-07
5.18637e-06
7.25073e-07
4.80182e-06
7.28103e-07
4.41934e-06
7.24381e-07
4.04161e-06
7.15718e-07
3.67049e-06
7.03596e-07
3.30718e-06
6.89171e-07
2.95246e-06
6.73269e-07
2.60689e-06
6.56356e-07
2.27099e-06
6.38479e-07
1.94553e-06
6.19196e-07
1.63178e-06
5.97496e-07
1.33179e-06
5.71727e-07
1.04872e-06
5.39579e-07
7.87003e-07
4.98193e-07
5.52425e-07
4.44492e-07
3.51839e-07
3.75883e-07
1.92389e-07
2.91435e-07
8.00423e-08
1.93765e-07
1.7253e-08
9.25305e-08
1.15128e-08
-3.29961e-08
4.37637e-08
-1.30897e-07
1.8864e-07
-2.90045e-07
3.50973e-07
-5.04923e-07
5.04081e-07
-7.67989e-07
6.36507e-07
-1.07117e-06
7.45153e-07
-1.40696e-06
8.31487e-07
-1.76902e-06
8.99274e-07
-2.1525e-06
9.53008e-07
-2.55389e-06
9.96927e-07
-2.97088e-06
1.0345e-06
-3.40202e-06
1.06822e-06
-3.8464e-06
1.09966e-06
-4.30333e-06
1.12947e-06
-4.77209e-06
1.15757e-06
-5.25163e-06
1.18321e-06
-5.7404e-06
1.20502e-06
-6.23605e-06
1.22107e-06
-6.73525e-06
1.22889e-06
-7.23346e-06
1.2254e-06
-7.72469e-06
1.20697e-06
-8.20123e-06
1.16938e-06
-8.65349e-06
1.10791e-06
-9.06979e-06
1.01748e-06
-9.43634e-06
8.9287e-07
-9.73725e-06
7.29156e-07
-9.95492e-06
5.22208e-07
-1.00705e-05
2.69368e-07
-1.00649e-05
-2.97731e-08
-9.91976e-06
-3.72696e-07
-9.61935e-06
-7.53321e-07
-9.15161e-06
-1.16187e-06
-8.51006e-06
-1.585e-06
-7.69477e-06
-2.00672e-06
-6.71321e-06
-2.40943e-06
-5.58011e-06
-2.77569e-06
-4.31709e-06
-3.0894e-06
-2.95131e-06
-3.33724e-06
-1.51435e-06
-3.509e-06
-4.04814e-08
-3.59804e-06
1.43446e-06
-3.60094e-06
2.87474e-06
-3.51761e-06
4.24574e-06
-3.35106e-06
5.51574e-06
-3.10776e-06
6.65706e-06
-2.79759e-06
7.64777e-06
-2.43383e-06
8.47257e-06
-2.03241e-06
9.1236e-06
-1.61087e-06
9.60035e-06
-1.18685e-06
9.909e-06
-7.76526e-07
1.00613e-05
-3.93464e-07
1.0073e-05
-4.76954e-08
9.96236e-06
2.54451e-07
9.74858e-06
5.10224e-07
9.45061e-06
7.19862e-07
9.08622e-06
8.85921e-07
8.67139e-06
1.01251e-06
8.21999e-06
1.10459e-06
7.74375e-06
1.16745e-06
7.25232e-06
1.20625e-06
6.75348e-06
1.22576e-06
6.25334e-06
1.2302e-06
5.75655e-06
1.22323e-06
5.26654e-06
1.20789e-06
4.78572e-06
1.18666e-06
4.31568e-06
1.16148e-06
3.85748e-06
1.13371e-06
3.41184e-06
1.10414e-06
2.97944e-06
1.07287e-06
2.56121e-06
1.03924e-06
2.15859e-06
1.00172e-06
1.77394e-06
9.57795e-07
1.41076e-06
9.03992e-07
1.07395e-06
8.36063e-07
7.69869e-07
7.49499e-07
5.06051e-07
6.40518e-07
2.90594e-07
5.07641e-07
1.31056e-07
3.53984e-07
3.31002e-08
1.90977e-07
4.48983e-08
-4.60263e-08
8.98365e-08
-1.73563e-07
3.16007e-07
-3.72636e-07
5.50138e-07
-6.34159e-07
7.65771e-07
-9.4878e-07
9.51387e-07
-1.30754e-06
1.10432e-06
-1.70251e-06
1.22703e-06
-2.12715e-06
1.32469e-06
-2.57648e-06
1.40333e-06
-3.04697e-06
1.46863e-06
-3.5363e-06
1.52525e-06
-4.04305e-06
1.5766e-06
-4.56631e-06
1.62475e-06
-5.10546e-06
1.67059e-06
-5.65975e-06
1.71396e-06
-6.22811e-06
1.75374e-06
-6.80884e-06
1.78795e-06
-7.3994e-06
1.81379e-06
-7.99609e-06
1.82764e-06
-8.59382e-06
1.82502e-06
-9.1858e-06
1.8006e-06
-9.76323e-06
1.74816e-06
-1.0315e-05
1.66068e-06
-1.08275e-05
1.53053e-06
-1.12844e-05
1.34978e-06
-1.16664e-05
1.11076e-06
-1.19521e-05
8.06881e-07
-1.2118e-05
4.33611e-07
-1.21397e-05
-1.03431e-08
-1.19935e-05
-5.21804e-07
-1.16581e-05
-1.09227e-06
-1.1117e-05
-1.70727e-06
-1.036e-05
-2.34684e-06
-9.38586e-06
-2.9864e-06
-8.20242e-06
-3.59894e-06
-6.82751e-06
-4.15712e-06
-5.28778e-06
-4.636e-06
-3.6176e-06
-5.01454e-06
-1.8568e-06
-5.27703e-06
-4.91367e-08
-5.41295e-06
1.75999e-06
-5.4172e-06
3.52487e-06
-5.28945e-06
5.20173e-06
-5.03456e-06
6.75014e-06
-4.66247e-06
8.13544e-06
-4.18874e-06
9.33024e-06
-3.63405e-06
1.03163e-05
-3.02336e-06
1.10849e-05
-2.38399e-06
1.16372e-05
-1.74314e-06
1.19825e-05
-1.12562e-06
1.21375e-05
-5.51713e-07
1.2123e-05
-3.62101e-08
1.19629e-05
4.12052e-07
1.16815e-05
7.89596e-07
1.13027e-05
1.09748e-06
1.08481e-05
1.34004e-06
1.03372e-05
1.52383e-06
9.78623e-06
1.6565e-06
9.20908e-06
1.74605e-06
8.61684e-06
1.80021e-06
8.01839e-06
1.82608e-06
7.4206e-06
1.82993e-06
6.82869e-06
1.81713e-06
6.24645e-06
1.79217e-06
5.67652e-06
1.75868e-06
5.12066e-06
1.71946e-06
4.57996e-06
1.67651e-06
4.05516e-06
1.63097e-06
3.5469e-06
1.58302e-06
3.05608e-06
1.5318e-06
2.58412e-06
1.47523e-06
2.13338e-06
1.4099e-06
1.70741e-06
1.33116e-06
1.31121e-06
1.2333e-06
9.51332e-07
1.11026e-06
6.35764e-07
9.56868e-07
3.73491e-07
7.70632e-07
1.73896e-07
5.54234e-07
4.61452e-08
3.1915e-07
9.13433e-08
-5.56938e-08
1.45563e-07
-2.05957e-07
4.66114e-07
-4.36071e-07
7.80326e-07
-7.33818e-07
1.06367e-06
-1.08811e-06
1.30593e-06
-1.48915e-06
1.50574e-06
-1.92866e-06
1.6671e-06
-2.40007e-06
1.79685e-06
-2.89849e-06
1.90271e-06
-3.42056e-06
1.99186e-06
-3.96414e-06
2.07022e-06
-4.52803e-06
2.14206e-06
-5.11156e-06
2.21004e-06
-5.7143e-06
2.27525e-06
-6.33576e-06
2.33745e-06
-6.97506e-06
2.39514e-06
-7.63069e-06
2.44569e-06
-8.30024e-06
2.48541e-06
-8.9801e-06
2.50945e-06
-9.66513e-06
2.51183e-06
-1.03483e-05
2.48534e-06
-1.10204e-05
2.42152e-06
-1.16696e-05
2.31068e-06
-1.22807e-05
2.14211e-06
-1.28353e-05
1.90447e-06
-1.33116e-05
1.58652e-06
-1.3684e-05
1.17818e-06
-1.3924e-05
6.71953e-07
-1.40014e-05
6.47091e-08
-1.38857e-05
-6.40593e-07
-1.35485e-05
-1.43313e-06
-1.29667e-05
-2.29354e-06
-1.21249e-05
-3.19373e-06
-1.10184e-05
-4.09871e-06
-9.65459e-06
-4.96901e-06
-8.05373e-06
-5.76472e-06
-6.24802e-06
-6.44877e-06
-4.27949e-06
-6.99036e-06
-2.1979e-06
-7.36605e-06
-5.75812e-08
-7.5607e-06
2.08439e-06
-7.56657e-06
4.1712e-06
-7.38347e-06
6.14784e-06
-7.01824e-06
7.96439e-06
-6.48569e-06
9.57789e-06
-5.80857e-06
1.09556e-05
-5.01758e-06
1.20764e-05
-4.14956e-06
1.29323e-05
-3.2446e-06
1.35273e-05
-2.34241e-06
1.38762e-05
-1.47838e-06
1.4002e-05
-6.8102e-07
1.39328e-05
2.98373e-08
1.36991e-05
6.42964e-07
1.33314e-05
1.15503e-06
1.28584e-05
1.56885e-06
1.23059e-05
1.89171e-06
1.16961e-05
2.13357e-06
1.10476e-05
2.30564e-06
1.03755e-05
2.41934e-06
9.69189e-06
2.48546e-06
9.00595e-06
2.51382e-06
8.32478e-06
2.51297e-06
7.65363e-06
2.49019e-06
6.99624e-06
2.45152e-06
6.3551e-06
2.4018e-06
5.7318e-06
2.34477e-06
5.12725e-06
2.28307e-06
4.54194e-06
2.21821e-06
3.97633e-06
2.15048e-06
3.43105e-06
2.07877e-06
2.90733e-06
2.00046e-06
2.40732e-06
1.91126e-06
1.9344e-06
1.80526e-06
1.49349e-06
1.67524e-06
1.09118e-06
1.51346e-06
7.3579e-07
1.31304e-06
4.3716e-07
1.06999e-06
2.06426e-07
7.8564e-07
5.58332e-08
4.70164e-07
1.47505e-07
-6.21914e-08
2.07768e-07
-2.28287e-07
6.32059e-07
-4.80451e-07
1.03254e-06
-8.04096e-07
1.38745e-06
-1.1867e-06
1.68876e-06
-1.61772e-06
1.93713e-06
-2.08863e-06
2.13854e-06
-2.59288e-06
2.30182e-06
-3.12577e-06
2.43652e-06
-3.68425e-06
2.55146e-06
-4.26652e-06
2.65381e-06
-4.87175e-06
2.7488e-06
-5.49968e-06
2.83965e-06
-6.15032e-06
2.92771e-06
-6.82362e-06
3.01267e-06
-7.51918e-06
3.09268e-06
-8.23601e-06
3.16451e-06
-8.97223e-06
3.22357e-06
-9.72477e-06
3.26382e-06
-1.0489e-05
3.27773e-06
-1.12584e-05
3.25615e-06
-1.20239e-05
3.18815e-06
-1.27734e-05
3.06105e-06
-1.34914e-05
2.86052e-06
-1.4158e-05
2.571e-06
-1.47486e-05
2.1766e-06
-1.52339e-05
1.66234e-06
-1.55799e-05
1.01621e-06
-1.57491e-05
2.31499e-07
-1.57024e-05
-6.90287e-07
-1.54023e-05
-1.73715e-06
-1.48159e-05
-2.88445e-06
-1.39197e-05
-4.09513e-06
-1.27033e-05
-5.32088e-06
-1.11719e-05
-6.50673e-06
-9.34775e-06
-7.59555e-06
-7.2689e-06
-8.5347e-06
-4.98702e-06
-9.27956e-06
-2.56354e-06
-9.79704e-06
-6.67303e-08
-1.00652e-05
2.43238e-06
-1.00734e-05
4.86213e-06
-9.82097e-06
7.1543e-06
-9.31797e-06
9.24635e-06
-8.58517e-06
1.10861e-05
-7.65533e-06
1.26343e-05
-6.57238e-06
1.3868e-05
-5.38913e-06
1.47808e-05
-4.16274e-06
1.53826e-05
-2.94878e-06
1.56963e-05
-1.79611e-06
1.57543e-05
-7.42469e-07
1.55941e-05
1.86883e-07
1.5255e-05
9.79417e-07
1.47744e-05
1.63318e-06
1.41868e-05
2.15457e-06
1.3522e-05
2.55532e-06
1.28048e-05
2.8503e-06
1.20554e-05
3.05536e-06
1.12895e-05
3.18613e-06
1.05193e-05
3.25705e-06
9.75386e-06
3.28095e-06
8.99972e-06
3.26888e-06
8.26163e-06
3.23011e-06
7.54276e-06
3.17224e-06
6.8451e-06
3.10135e-06
6.16971e-06
3.02207e-06
5.51702e-06
2.93766e-06
4.8871e-06
2.85e-06
4.27995e-06
2.75941e-06
3.69581e-06
2.66456e-06
3.13554e-06
2.56224e-06
2.60091e-06
2.44723e-06
2.09502e-06
2.31232e-06
1.62258e-06
2.1487e-06
1.19016e-06
1.94676e-06
8.06343e-07
1.69765e-06
4.81715e-07
1.39535e-06
2.28863e-07
1.03919e-06
6.23614e-08
6.37105e-07
2.10195e-07
-6.59965e-08
2.73761e-07
-2.41811e-07
8.07725e-07
-5.07895e-07
1.29863e-06
-8.48104e-07
1.72776e-06
-1.24889e-06
2.08973e-06
-1.69913e-06
2.38769e-06
-2.1901e-06
2.63e-06
-2.71533e-06
2.82771e-06
-3.2704e-06
2.99243e-06
-3.85261e-06
3.13471e-06
-4.46065e-06
3.26308e-06
-5.09421e-06
3.38376e-06
-5.7536e-06
3.5006e-06
-6.43944e-06
3.61524e-06
-7.15236e-06
3.72736e-06
-7.89274e-06
3.83488e-06
-8.66043e-06
3.93402e-06
-9.45448e-06
4.01938e-06
-1.02729e-05
4.08385e-06
-1.11121e-05
4.11842e-06
-1.19666e-05
4.11197e-06
-1.28285e-05
4.05104e-06
-1.36864e-05
3.91964e-06
-1.45249e-05
3.69928e-06
-1.53233e-05
3.3693e-06
-1.6055e-05
2.90772e-06
-1.66868e-05
2.29296e-06
-1.71784e-05
1.50612e-06
-1.7484e-05
5.34643e-07
-1.75533e-05
-6.24086e-07
-1.73361e-05
-1.95821e-06
-1.67861e-05
-3.43896e-06
-1.58677e-05
-5.01859e-06
-1.45609e-05
-6.63327e-06
-1.28667e-05
-8.20701e-06
-1.08081e-05
-9.66073e-06
-8.43017e-06
-1.09195e-05
-5.7961e-06
-1.19209e-05
-2.98324e-06
-1.26175e-05
-7.7185e-08
-1.2979e-05
2.83145e-06
-1.29901e-05
5.6526e-06
-1.26503e-05
8.29935e-06
-1.1973e-05
1.06941e-05
-1.09878e-05
1.27719e-05
-9.74091e-06
1.44869e-05
-8.29444e-06
1.58143e-05
-6.72306e-06
1.67524e-05
-5.10648e-06
1.73202e-05
-3.52137e-06
1.75528e-05
-2.03262e-06
1.7496e-05
-6.88919e-07
1.72002e-05
4.80064e-07
1.67155e-05
1.46178e-06
1.60883e-05
2.25837e-06
1.53591e-05
2.88202e-06
1.45618e-05
3.35142e-06
1.37234e-05
3.68806e-06
1.28649e-05
3.91392e-06
1.2002e-05
4.04973e-06
1.1146e-05
4.11413e-06
1.03051e-05
4.12329e-06
9.48473e-06
4.09084e-06
8.68847e-06
4.02802e-06
7.91844e-06
3.94395e-06
7.17568e-06
3.84582e-06
6.46041e-06
3.73907e-06
5.7723e-06
3.62752e-06
5.11073e-06
3.51328e-06
4.47507e-06
3.3967e-06
3.86502e-06
3.27614e-06
3.28087e-06
3.14778e-06
2.72395e-06
3.00539e-06
2.19697e-06
2.8404e-06
1.70437e-06
2.64226e-06
1.25264e-06
2.39932e-06
8.50556e-07
2.10047e-06
5.09289e-07
1.7373e-06
2.42473e-07
1.30666e-06
6.62034e-08
8.13784e-07
2.76657e-07
-6.7644e-08
3.41382e-07
-2.48142e-07
9.8806e-07
-5.21348e-07
1.57179e-06
-8.70288e-07
2.07675e-06
-1.28076e-06
2.50035e-06
-1.74127e-06
2.84846e-06
-2.24295e-06
3.13208e-06
-2.77944e-06
3.36478e-06
-3.34665e-06
3.56038e-06
-3.94235e-06
3.73131e-06
-4.56579e-06
3.8876e-06
-5.21731e-06
4.03652e-06
-5.89795e-06
4.18261e-06
-6.60914e-06
4.32791e-06
-7.35242e-06
4.4722e-06
-8.12918e-06
4.61324e-06
-8.94045e-06
4.74687e-06
-9.78663e-06
4.86709e-06
-1.06672e-05
4.96585e-06
-1.15804e-05
5.03285e-06
-1.25225e-05
5.05515e-06
-1.34874e-05
5.01675e-06
-1.44654e-05
4.89819e-06
-1.54422e-05
4.67629e-06
-1.63974e-05
4.32427e-06
-1.73029e-05
3.81257e-06
-1.81217e-05
3.11054e-06
-1.8807e-05
2.18967e-06
-1.93024e-05
1.02767e-06
-1.95443e-05
-3.85294e-07
-1.94649e-05
-2.04128e-06
-1.89999e-05
-3.9081e-06
-1.80955e-05
-5.9278e-06
-1.67176e-05
-8.01633e-06
-1.48584e-05
-1.00719e-05
-1.25411e-05
-1.19841e-05
-9.81812e-06
-1.3649e-05
-6.76833e-06
-1.49776e-05
-3.48888e-06
-1.59043e-05
-9.01339e-08
-1.63856e-05
3.31248e-06
-1.64008e-05
6.60219e-06
-1.59484e-05
9.66878e-06
-1.50478e-05
1.24128e-05
-1.37402e-05
1.47547e-05
-1.20905e-05
1.66394e-05
-1.01865e-05
1.80426e-05
-8.13264e-06
1.89703e-05
-6.03987e-06
1.94558e-05
-4.01143e-06
1.95523e-05
-2.13279e-06
1.93241e-05
-4.63392e-07
1.88387e-05
9.63348e-07
1.81602e-05
2.13863e-06
1.73454e-05
3.07168e-06
1.64416e-05
3.78452e-06
1.54866e-05
4.30549e-06
1.45088e-05
4.66527e-06
1.35292e-05
4.89347e-06
1.25624e-05
5.01703e-06
1.16181e-05
5.05931e-06
1.07026e-05
5.03998e-06
9.81955e-06
4.97525e-06
8.97076e-06
4.87821e-06
8.15681e-06
4.75932e-06
7.37737e-06
4.62668e-06
6.63148e-06
4.4864e-06
5.91779e-06
4.34265e-06
5.23478e-06
4.19771e-06
4.581e-06
4.05184e-06
3.95541e-06
3.90301e-06
3.35767e-06
3.74669e-06
2.78851e-06
3.57558e-06
2.25018e-06
3.37965e-06
1.74679e-06
3.14643e-06
1.28473e-06
2.86206e-06
8.72891e-07
2.5129e-06
5.2284e-07
2.0879e-06
2.48871e-07
1.58115e-06
6.78792e-08
9.9507e-07
3.4467e-07
-6.76267e-08
4.08957e-07
-2.48906e-07
1.16915e-06
-5.23969e-07
1.84673e-06
-8.75554e-07
2.42831e-06
-1.28911e-06
2.91397e-06
-1.75286e-06
3.31238e-06
-2.25788e-06
3.6374e-06
-2.79798e-06
3.90533e-06
-3.36943e-06
4.13245e-06
-3.97057e-06
4.33322e-06
-4.60134e-06
4.51927e-06
-5.26284e-06
4.69908e-06
-5.95702e-06
4.87796e-06
-6.68629e-06
5.05844e-06
-7.45328e-06
5.24052e-06
-8.26067e-06
5.42197e-06
-9.11095e-06
5.59848e-06
-1.00062e-05
5.76365e-06
-1.0948e-05
5.9088e-06
-1.19367e-05
6.02264e-06
-1.29714e-05
6.09067e-06
-1.40485e-05
6.09453e-06
-1.51611e-05
6.01125e-06
-1.62972e-05
5.81253e-06
-1.74377e-05
5.46456e-06
-1.85541e-05
4.92833e-06
-1.96063e-05
4.16162e-06
-2.05403e-05
3.12207e-06
-2.12884e-05
1.77353e-06
-2.17693e-05
9.28189e-08
-2.1894e-05
-1.91975e-06
-2.15725e-05
-4.23336e-06
-2.0726e-05
-6.77837e-06
-1.92981e-05
-9.4488e-06
-1.72681e-05
-1.21069e-05
-1.46556e-05
-1.46021e-05
-1.15231e-05
-1.67875e-05
-7.96769e-06
-1.85396e-05
-4.11478e-06
-1.97643e-05
-1.05914e-07
-2.04019e-05
3.90737e-06
-2.04218e-05
7.77453e-06
-1.98232e-05
1.13514e-05
-1.86325e-05
1.45118e-05
-1.6908e-05
1.71552e-05
-1.47412e-05
1.92176e-05
-1.22554e-05
2.06762e-05
-9.59739e-06
2.15505e-05
-6.91932e-06
2.18955e-05
-4.36076e-06
2.17897e-05
-2.0301e-06
2.13229e-05
9.60941e-10
2.05848e-05
1.69997e-06
1.96569e-05
3.06546e-06
1.86077e-05
4.12005e-06
1.74918e-05
4.89961e-06
1.63501e-05
5.44655e-06
1.52118e-05
5.80322e-06
1.40963e-05
6.00886e-06
1.30162e-05
6.09752e-06
1.19785e-05
6.09775e-06
1.09867e-05
6.03279e-06
1.00418e-05
5.92122e-06
9.14343e-06
5.77774e-06
8.29009e-06
5.61381e-06
7.47971e-06
5.43821e-06
6.70984e-06
5.2574e-06
5.97786e-06
5.07577e-06
5.28112e-06
4.89557e-06
4.6172e-06
4.71683e-06
3.98416e-06
4.53705e-06
3.38087e-06
4.35089e-06
2.80738e-06
4.14987e-06
2.26537e-06
3.92235e-06
1.75859e-06
3.65381e-06
1.29324e-06
3.32791e-06
8.78268e-07
2.92829e-06
5.25533e-07
2.44101e-06
2.49683e-07
1.85734e-06
6.78639e-08
1.17704e-06
4.12582e-07
-6.63727e-08
4.75236e-07
-2.45668e-07
1.34821e-06
-5.18955e-07
2.11981e-06
-8.68998e-07
2.77826e-06
-1.281e-06
3.32596e-06
-1.74296e-06
3.77442e-06
-2.2459e-06
4.14054e-06
-2.78385e-06
4.44364e-06
-3.35359e-06
4.70268e-06
-3.95412e-06
4.93437e-06
-4.5862e-06
5.15211e-06
-5.25188e-06
5.36564e-06
-5.95413e-06
5.5812e-06
-6.69651e-06
5.8019e-06
-7.48295e-06
6.0281e-06
-8.3176e-06
6.25778e-06
-9.20468e-06
6.48671e-06
-1.01483e-05
6.70841e-06
-1.11525e-05
6.91397e-06
-1.22203e-05
7.09148e-06
-1.33542e-05
7.22533e-06
-1.45541e-05
7.29517e-06
-1.5817e-05
7.27465e-06
-1.71345e-05
7.13025e-06
-1.84902e-05
6.82015e-06
-1.98566e-05
6.29436e-06
-2.11914e-05
5.49561e-06
-2.24344e-05
4.36379e-06
-2.35044e-05
2.84177e-06
-2.43008e-05
8.87205e-07
-2.47066e-05
-1.51648e-06
-2.45995e-05
-4.34322e-06
-2.38645e-05
-7.51668e-06
-2.24148e-05
-1.0902e-05
-2.02069e-05
-1.43189e-05
-1.72554e-05
-1.75582e-05
-1.36312e-05
-2.0417e-05
-9.45738e-06
-2.27191e-05
-4.89346e-06
-2.43343e-05
-1.2582e-07
-2.51759e-05
4.64874e-06
-2.52027e-05
9.23072e-06
-2.44117e-05
1.34337e-05
-2.28416e-05
1.70937e-05
-2.05743e-05
2.00857e-05
-1.77389e-05
2.2334e-05
-1.45096e-05
2.38218e-05
-1.10903e-05
2.45896e-05
-7.69202e-06
2.47236e-05
-4.49837e-06
2.4338e-05
-1.6475e-06
2.35559e-05
7.81303e-07
2.24949e-05
2.75979e-06
2.12567e-05
4.30322e-06
1.99232e-05
5.45328e-06
1.85556e-05
6.26709e-06
1.71971e-05
6.80493e-06
1.58757e-05
7.12449e-06
1.46085e-05
7.27618e-06
1.34043e-05
7.30219e-06
1.22663e-05
7.23643e-06
1.11945e-05
7.10553e-06
1.01866e-05
6.93014e-06
9.23929e-06
6.72607e-06
8.34873e-06
6.50541e-06
7.51075e-06
6.27719e-06
6.72116e-06
6.04797e-06
5.97584e-06
5.82206e-06
5.27085e-06
5.60151e-06
4.60261e-06
5.38597e-06
3.96814e-06
5.17235e-06
3.36537e-06
4.9544e-06
2.79352e-06
4.72237e-06
2.2536e-06
4.46283e-06
1.74885e-06
4.15902e-06
1.28525e-06
3.79188e-06
8.71791e-07
3.34204e-06
5.20559e-07
2.79249e-06
2.46463e-07
2.13165e-06
6.6585e-08
1.35696e-06
4.79214e-07
-6.42859e-08
5.39376e-07
-2.40045e-07
1.5237e-06
-5.09748e-07
2.3892e-06
-8.56141e-07
3.12448e-06
-1.26406e-06
3.73379e-06
-1.72115e-06
4.23152e-06
-2.21844e-06
4.63795e-06
-2.75029e-06
4.97575e-06
-3.31411e-06
5.26689e-06
-3.90977e-06
5.53055e-06
-4.53904e-06
5.78203e-06
-5.20508e-06
6.03244e-06
-5.91203e-06
6.28901e-06
-6.66477e-06
6.55557e-06
-7.46866e-06
6.83297e-06
-8.32948e-06
7.11963e-06
-9.25338e-06
7.41163e-06
-1.02468e-05
7.70281e-06
-1.13162e-05
7.98439e-06
-1.24682e-05
8.24443e-06
-1.37087e-05
8.46675e-06
-1.50423e-05
8.62954e-06
-1.64706e-05
8.70359e-06
-1.79899e-05
8.65011e-06
-1.95886e-05
8.41902e-06
-2.12416e-05
7.94733e-06
-2.29067e-05
7.16035e-06
-2.45177e-05
5.97405e-06
-2.59814e-05
4.30456e-06
-2.71743e-05
2.07876e-06
-2.7948e-05
-7.44239e-07
-2.81369e-05
-4.15626e-06
-2.75807e-05
-8.07489e-06
-2.61463e-05
-1.23392e-05
-2.37597e-05
-1.67086e-05
-2.04212e-05
-2.09007e-05
-1.62139e-05
-2.46283e-05
-1.12889e-05
-2.76485e-05
-5.85389e-06
-2.97737e-05
-1.49315e-07
-3.08846e-05
5.56319e-06
-3.09193e-05
1.10237e-05
-2.98759e-05
1.59861e-05
-2.78083e-05
2.02411e-05
-2.48332e-05
2.36311e-05
-2.11335e-05
2.60693e-05
-1.69519e-05
2.755e-05
-1.25758e-05
2.81452e-05
-8.29113e-06
2.79861e-05
-4.34301e-06
2.72337e-05
-8.97508e-07
2.60542e-05
1.95896e-06
2.45978e-05
4.21558e-06
2.29893e-05
5.91162e-06
2.13231e-05
7.11976e-06
1.96666e-05
7.924e-06
1.8063e-05
8.40898e-06
1.65378e-05
8.65004e-06
1.51037e-05
8.71088e-06
1.37644e-05
8.64215e-06
1.25185e-05
8.48314e-06
1.13616e-05
8.26344e-06
1.02877e-05
8.00516e-06
9.29011e-06
7.72472e-06
8.36227e-06
7.43426e-06
7.49776e-06
7.14266e-06
6.69045e-06
6.8562e-06
5.93455e-06
6.57884e-06
5.22467e-06
6.31222e-06
4.55594e-06
6.05549e-06
3.92417e-06
5.80483e-06
3.32618e-06
5.55303e-06
2.76019e-06
5.28891e-06
2.22632e-06
4.99716e-06
1.72719e-06
4.65852e-06
1.2684e-06
4.25095e-06
8.5899e-07
3.75166e-06
5.11364e-07
3.14025e-06
2.40836e-07
2.40228e-06
6.44674e-08
1.53333e-06
5.43731e-07
-6.18579e-08
6.01032e-07
-2.34073e-07
1.69565e-06
-5.00617e-07
2.65535e-06
-8.4365e-07
3.46731e-06
-1.24716e-06
4.13718e-06
-1.69828e-06
4.6826e-06
-2.18808e-06
5.1278e-06
-2.71147e-06
5.49932e-06
-3.26677e-06
5.8225e-06
-3.855e-06
6.11921e-06
-4.47916e-06
6.40674e-06
-5.14371e-06
6.69764e-06
-5.85416e-06
7.00021e-06
-6.61676e-06
7.319e-06
-7.43846e-06
7.65555e-06
-8.32675e-06
8.00885e-06
-9.28976e-06
8.3756e-06
-1.03362e-05
8.75027e-06
-1.14756e-05
9.12471e-06
-1.27176e-05
9.48745e-06
-1.40723e-05
9.82241e-06
-1.55489e-05
1.01071e-05
-1.71545e-05
1.031e-05
-1.88915e-05
1.03878e-05
-2.07536e-05
1.02817e-05
-2.27213e-05
9.9153e-06
-2.47538e-05
9.19282e-06
-2.67827e-05
8.00289e-06
-2.87031e-05
6.22448e-06
-3.03705e-05
3.74578e-06
-3.15989e-05
4.8336e-07
-3.21752e-05
-3.58088e-06
-3.18761e-05
-8.37553e-06
-3.05108e-05
-1.37063e-05
-2.79546e-05
-1.92674e-05
-2.41902e-05
-2.46677e-05
-1.93065e-05
-2.95152e-05
-1.34933e-05
-3.34644e-05
-7.0114e-06
-3.62578e-05
-1.77532e-07
-3.77198e-05
6.66876e-06
-3.77659e-05
1.31828e-05
-3.63903e-05
1.90467e-05
-3.36723e-05
2.39912e-05
-2.97789e-05
2.78222e-05
-2.49657e-05
3.04424e-05
-1.95748e-05
3.18647e-05
-1.40008e-05
3.22087e-05
-8.63889e-06
3.16651e-05
-3.80238e-06
3.04577e-05
3.07275e-07
2.88019e-05
3.61338e-06
2.68858e-05
6.13071e-06
2.48561e-05
7.94138e-06
2.28194e-05
9.15678e-06
2.08453e-05
9.89868e-06
1.89756e-05
1.02793e-05
1.72308e-05
1.03956e-05
1.56175e-05
1.0325e-05
1.41337e-05
1.01269e-05
1.27725e-05
9.84542e-06
1.15246e-05
9.51248e-06
1.03799e-05
9.15094e-06
9.32862e-06
8.77713e-06
8.3612e-06
8.40271e-06
7.46886e-06
8.03595e-06
6.64346e-06
7.68248e-06
5.87746e-06
7.34565e-06
5.16392e-06
7.02652e-06
4.49653e-06
6.72357e-06
3.86976e-06
6.43222e-06
3.27913e-06
6.1442e-06
2.7216e-06
5.8469e-06
2.19616e-06
5.52297e-06
1.70448e-06
5.15049e-06
1.25162e-06
4.704e-06
8.46557e-07
4.15683e-06
5.02243e-07
3.48462e-06
2.34879e-07
2.66968e-06
6.20236e-08
1.70617e-06
6.05748e-07
-5.99403e-08
6.60716e-07
-2.30931e-07
1.86641e-06
-4.97763e-07
2.92167e-06
-8.40565e-07
3.80987e-06
-1.24167e-06
4.53815e-06
-1.68752e-06
5.12839e-06
-2.16946e-06
5.60976e-06
-2.68341e-06
6.01339e-06
-3.22907e-06
6.36839e-06
-3.80895e-06
6.69943e-06
-4.4276e-06
7.02583e-06
-5.09096e-06
7.36156e-06
-5.80602e-06
7.7159e-06
-6.58054e-06
8.09424e-06
-7.42303e-06
8.49883e-06
-8.34271e-06
8.92938e-06
-9.34965e-06
9.38343e-06
-1.04548e-05
9.85637e-06
-1.16702e-05
1.03411e-05
-1.30087e-05
1.0827e-05
-1.44842e-05
1.12989e-05
-1.61102e-05
1.17341e-05
-1.78994e-05
1.21001e-05
-1.98602e-05
1.23494e-05
-2.19935e-05
1.24156e-05
-2.42857e-05
1.22079e-05
-2.67019e-05
1.16093e-05
-2.91737e-05
1.04748e-05
-3.1591e-05
8.64188e-06
-3.37889e-05
5.94334e-06
-3.55487e-05
2.24294e-06
-3.6599e-05
-2.53141e-06
-3.66483e-05
-8.32713e-06
-3.54208e-05
-1.49355e-05
-3.27302e-05
-2.19595e-05
-2.85198e-05
-2.88802e-05
-2.28891e-05
-3.51472e-05
-1.60597e-05
-4.02947e-05
-8.36515e-06
-4.39522e-05
-2.07806e-07
-4.58754e-05
7.96364e-06
-4.59343e-05
1.57027e-05
-4.41246e-05
2.25961e-05
-4.05617e-05
2.83061e-05
-3.54851e-05
3.25993e-05
-2.92571e-05
3.53696e-05
-2.23436e-05
3.66645e-05
-1.52965e-05
3.66665e-05
-8.64224e-06
3.56499e-05
-2.78843e-06
3.39094e-05
2.04627e-06
3.17197e-05
5.80207e-06
2.93025e-05
8.54782e-06
2.68256e-05
1.04184e-05
2.44012e-05
1.15817e-05
2.20993e-05
1.22012e-05
1.99558e-05
1.24235e-05
1.79848e-05
1.23672e-05
1.61861e-05
1.21244e-05
1.45514e-05
1.17625e-05
1.30682e-05
1.13296e-05
1.17228e-05
1.0859e-05
1.05013e-05
1.03735e-05
9.39071e-06
9.88879e-06
8.37887e-06
9.41553e-06
7.45476e-06
8.96096e-06
6.60827e-06
8.5298e-06
5.83013e-06
8.12456e-06
5.1118e-06
7.74555e-06
4.44547e-06
7.39053e-06
3.82412e-06
7.05413e-06
3.24177e-06
6.72703e-06
2.69384e-06
6.39522e-06
2.17779e-06
6.03933e-06
1.69391e-06
5.63459e-06
1.24628e-06
5.15177e-06
8.43566e-07
4.5596e-06
4.99441e-07
3.82875e-06
2.31825e-07
2.9373e-06
6.00967e-08
1.87787e-06
6.65797e-07
-6.0392e-08
7.20794e-07
-2.36416e-07
2.04231e-06
-5.11175e-07
3.19577e-06
-8.60123e-07
4.1585e-06
-1.2629e-06
4.94077e-06
-1.70546e-06
5.57087e-06
-2.18018e-06
6.08445e-06
-2.68477e-06
6.51804e-06
-3.22095e-06
6.90472e-06
-3.79325e-06
7.27197e-06
-4.40802e-06
7.64093e-06
-5.07289e-06
8.02685e-06
-5.79638e-06
8.43989e-06
-6.58775e-06
8.88619e-06
-7.45702e-06
9.36874e-06
-8.41501e-06
9.88807e-06
-9.47346e-06
1.04427e-05
-1.06452e-05
1.1029e-05
-1.19443e-05
1.16411e-05
-1.33861e-05
1.22698e-05
-1.49871e-05
1.29008e-05
-1.67644e-05
1.35124e-05
-1.87346e-05
1.40712e-05
-2.09117e-05
1.45273e-05
-2.33027e-05
1.48072e-05
-2.5902e-05
1.48079e-05
-2.86814e-05
1.43892e-05
-3.15798e-05
1.33737e-05
-3.44857e-05
1.15479e-05
-3.72274e-05
8.68516e-06
-3.95551e-05
4.57017e-06
-4.11503e-05
-9.36568e-07
-4.16354e-05
-7.84323e-06
-4.06416e-05
-1.593e-05
-3.78831e-05
-2.4719e-05
-3.32592e-05
-3.35037e-05
-2.68538e-05
-4.15518e-05
-1.89292e-05
-4.82174e-05
-9.8836e-06
-5.2996e-05
-2.39702e-07
-5.55174e-05
9.42561e-06
-5.55963e-05
1.85258e-05
-5.32206e-05
2.65346e-05
-4.85642e-05
3.30378e-05
-4.19831e-05
3.77651e-05
-3.39786e-05
4.06181e-05
-2.51931e-05
4.16904e-05
-1.63654e-05
4.12606e-05
-8.21247e-06
3.96982e-05
-1.22736e-06
3.73854e-05
4.35676e-06
3.46462e-05
8.5402e-06
3.17348e-05
1.14586e-05
2.88263e-05
1.33271e-05
2.60345e-05
1.43738e-05
2.34221e-05
1.48143e-05
2.10182e-05
1.48279e-05
1.88288e-05
1.4557e-05
1.68474e-05
1.41063e-05
1.50601e-05
1.35504e-05
1.34503e-05
1.294e-05
1.20007e-05
1.23092e-05
1.06947e-05
1.16802e-05
9.51689e-06
1.10673e-05
8.45304e-06
1.048e-05
7.49023e-06
9.92436e-06
6.61665e-06
9.40392e-06
5.82142e-06
8.92029e-06
5.09447e-06
8.47295e-06
4.42649e-06
8.05891e-06
3.80892e-06
7.67205e-06