/*--------------------------------*- C++ -*----------------------------------*\
| =========                 |                                                 |
| \\      /  F ield         | OpenFOAM: The Open Source CFD Toolbox           |
|  \\    /   O peration     | Version:  2412                                  |
|   \\  /    A nd           | Website:  www.openfoam.com                      |
|    \\/     M anipulation  |                                                 |
\*---------------------------------------------------------------------------*/
FoamFile
{
    version     2.0;
    format      ascii;
    arch        "LSB;label=32;scalar=64";
    class       surfaceScalarField;
    location    "9.3";
    object      alphaPhi0.honey;
}
// * * * * * * * * * * * * * * * * * * * * * * * * * * * * * * * * * * * * * //

dimensions      [0 3 -1 0 0 0 0];

oriented        oriented;

internalField   nonuniform List<scalar> 
12640
(
1.45431e-09
-2.00593e-09
1.10041e-08
-6.95511e-09
1.94974e-08
-7.68551e-09
2.48678e-08
-4.26067e-09
2.56115e-08
2.27503e-10
2.11881e-08
4.94079e-09
1.19632e-08
1.01099e-08
-1.88786e-09
1.55404e-08
-2.08544e-08
2.05384e-08
-4.50421e-08
2.46096e-08
-7.36266e-08
2.78177e-08
-1.05261e-07
3.04523e-08
-1.38807e-07
3.27805e-08
-1.73598e-07
3.48242e-08
-2.09409e-07
3.65389e-08
-2.46103e-07
3.77728e-08
-2.83492e-07
3.84908e-08
-3.21129e-07
3.8591e-08
-3.58446e-07
3.81184e-08
-3.94673e-07
3.69971e-08
-4.29076e-07
3.53081e-08
-4.60834e-07
3.2947e-08
-4.89279e-07
2.9989e-08
-5.13676e-07
2.6281e-08
-5.33453e-07
2.19077e-08
-5.47902e-07
1.67031e-08
-5.5646e-07
1.0803e-08
-5.58397e-07
4.0699e-09
-5.5317e-07
-3.26961e-09
-5.40117e-07
-1.12772e-08
-5.18877e-07
-1.96051e-08
-4.8907e-07
-2.82208e-08
-4.50749e-07
-3.66826e-08
-4.04047e-07
-4.49074e-08
-3.49587e-07
-5.24387e-08
-2.88094e-07
-5.92079e-08
-2.20733e-07
-6.48205e-08
-1.4871e-07
-6.92628e-08
-7.35508e-08
-7.22446e-08
3.2612e-09
-7.38166e-08
8.00609e-08
-7.38098e-08
1.55303e-07
-7.2336e-08
2.27398e-07
-6.9354e-08
2.94942e-07
-6.50332e-08
3.5663e-07
-5.94597e-08
4.11404e-07
-5.28551e-08
4.58424e-07
-4.5428e-08
4.97109e-07
-3.74311e-08
5.27146e-07
-2.91262e-08
5.48463e-07
-2.07185e-08
5.61267e-07
-1.24517e-08
5.65924e-07
-4.4577e-09
5.62992e-07
3.07337e-09
5.5308e-07
1.01067e-08
5.36933e-07
1.65145e-08
5.1525e-07
2.23053e-08
4.88776e-07
2.7359e-08
4.58163e-07
3.16848e-08
4.24125e-07
3.51697e-08
3.87353e-07
3.78427e-08
3.48643e-07
3.96577e-08
3.08782e-07
4.07274e-08
2.68617e-07
4.10961e-08
2.28885e-07
4.09055e-08
1.90228e-07
4.01894e-08
1.53069e-07
3.90205e-08
1.17713e-07
3.7354e-08
8.43903e-08
3.51521e-08
5.34584e-08
3.2282e-08
2.55007e-08
2.86651e-08
1.40643e-09
2.42727e-08
-1.78008e-08
1.92695e-08
-3.12496e-08
1.39281e-08
-3.85982e-08
8.54228e-09
-4.01339e-08
3.2153e-09
-3.64901e-08
-2.05417e-09
-2.81986e-08
-6.97949e-09
-1.60904e-08
-1.04512e-08
-3.81666e-09
-9.98972e-09
-2.32318e-09
4.19015e-09
-6.44055e-09
1.49498e-08
-1.91406e-08
2.33945e-08
-1.5945e-08
2.19747e-08
-4.20923e-09
8.93597e-09
1.13441e-08
-1.61187e-08
2.88384e-08
-5.34305e-08
4.68746e-08
-1.03293e-07
6.42614e-08
-1.6576e-07
8.01793e-08
-2.39975e-07
9.43484e-08
-3.24054e-07
1.06787e-07
-4.15827e-07
1.17605e-07
-5.13351e-07
1.26747e-07
-6.15207e-07
1.34116e-07
-7.20187e-07
1.39514e-07
-8.27192e-07
1.42864e-07
-9.34842e-07
1.44038e-07
-1.04162e-06
1.43056e-07
-1.14563e-06
1.39795e-07
-1.24501e-06
1.34265e-07
-1.33762e-06
1.26269e-07
-1.42158e-06
1.15802e-07
-1.49479e-06
1.02641e-07
-1.55547e-06
8.6841e-08
-1.60165e-06
6.82264e-08
-1.63172e-06
4.69875e-08
-1.64385e-06
2.30795e-08
-1.6367e-06
-3.08489e-09
-1.60876e-06
-3.1333e-08
-1.55919e-06
-6.09725e-08
-1.48715e-06
-9.15858e-08
-1.39268e-06
-1.22238e-07
-1.27598e-06
-1.52339e-07
-1.1383e-06
-1.80847e-07
-9.81076e-07
-2.07146e-07
-8.0677e-07
-2.3027e-07
-6.17983e-07
-2.49727e-07
-4.18111e-07
-2.6478e-07
-2.10552e-07
-2.7516e-07
7.83758e-10
-2.80433e-07
2.12133e-07
-2.80575e-07
4.19523e-07
-2.75478e-07
6.1927e-07
-2.65371e-07
8.0779e-07
-2.50491e-07
9.81913e-07
-2.31315e-07
1.13886e-06
-2.08413e-07
1.2764e-06
-1.82469e-07
1.39289e-06
-1.54284e-07
1.48723e-06
-1.24616e-07
1.55902e-06
-9.43093e-08
1.6083e-06
-6.40244e-08
1.63576e-06
-3.44855e-08
1.64234e-06
-6.1477e-09
1.62948e-06
2.0446e-08
1.59868e-06
4.50158e-08
1.55179e-06
6.71515e-08
1.49055e-06
8.67056e-08
1.41691e-06
1.03432e-07
1.33271e-06
1.1736e-07
1.24e-06
1.28434e-07
1.14072e-06
1.36823e-07
1.03693e-06
1.42581e-07
9.30524e-07
1.45914e-07
8.23365e-07
1.46897e-07
7.17013e-07
1.45707e-07
6.1287e-07
1.42389e-07
5.12061e-07
1.37039e-07
4.15707e-07
1.29609e-07
3.25005e-07
1.20089e-07
2.41518e-07
1.0843e-07
1.67106e-07
9.47603e-08
1.03732e-07
7.93508e-08
5.28684e-08
6.26664e-08
1.50725e-08
4.51721e-08
-1.0036e-08
2.73719e-08
-2.30329e-08
1.00469e-08
-2.42383e-08
-5.35208e-09
-1.53665e-08
-1.66835e-08
-3.26376e-09
-1.90676e-08
-3.55304e-09
2.79823e-09
-7.94826e-09
9.90336e-09
-2.46399e-08
1.01846e-08
-1.40699e-08
-3.896e-09
1.14758e-08
-3.47797e-08
4.37105e-08
-8.3416e-08
7.9078e-08
-1.50293e-07
1.15166e-07
-2.35427e-07
1.50085e-07
-3.38297e-07
1.82596e-07
-4.5738e-07
2.12015e-07
-5.90352e-07
2.38073e-07
-7.34549e-07
2.60546e-07
-8.87549e-07
2.79245e-07
-1.04714e-06
2.93873e-07
-1.21137e-06
3.04251e-07
-1.37809e-06
3.10148e-07
-1.54513e-06
3.11506e-07
-1.70987e-06
3.0813e-07
-1.86968e-06
2.99961e-07
-2.02152e-06
2.86707e-07
-2.16251e-06
2.68258e-07
-2.28949e-06
2.44258e-07
-2.39957e-06
2.14657e-07
-2.48966e-06
1.79175e-07
-2.55705e-06
1.37981e-07
-2.5988e-06
9.10356e-08
-2.61254e-06
3.88838e-08
-2.59576e-06
-1.81184e-08
-2.54671e-06
-7.89282e-08
-2.46372e-06
-1.42714e-07
-2.34619e-06
-2.07933e-07
-2.19382e-06
-2.73335e-07
-2.00762e-06
-3.37033e-07
-1.78907e-06
-3.97567e-07
-1.54101e-06
-4.53011e-07
-1.26673e-06
-5.02008e-07
-9.707e-07
-5.42943e-07
-6.57629e-07
-5.74851e-07
-3.33066e-07
-5.96663e-07
-2.56995e-09
-6.07932e-07
3.27875e-07
-6.0822e-07
6.52499e-07
-5.97612e-07
9.65537e-07
-5.76324e-07
1.26166e-06
-5.44988e-07
1.53596e-06
-5.04491e-07
1.78417e-06
-4.56001e-07
2.00286e-06
-4.00995e-07
2.18935e-06
-3.41019e-07
2.34201e-06
-2.77843e-07
2.45993e-06
-2.13023e-07
2.54324e-06
-1.48232e-07
2.59264e-06
-8.47444e-08
2.60966e-06
-2.39044e-08
2.5961e-06
3.342e-08
2.55442e-06
8.62771e-08
2.48709e-06
1.34181e-07
2.39705e-06
1.76557e-07
2.28711e-06
2.13273e-07
2.16037e-06
2.44093e-07
2.01977e-06
2.69151e-07
1.86847e-06
2.88452e-07
1.70936e-06
3.02289e-07
1.54544e-06
3.10808e-07
1.37936e-06
3.1435e-07
1.21369e-06
3.13082e-07
1.05057e-06
3.07276e-07
8.92031e-07
2.97014e-07
7.39891e-07
2.82428e-07
5.96204e-07
2.63521e-07
4.63277e-07
2.40436e-07
3.43767e-07
2.13398e-07
2.40176e-07
1.82912e-07
1.54305e-07
1.49623e-07
8.67579e-08
1.14361e-07
3.73348e-08
7.81755e-08
5.76742e-09
4.27897e-08
-8.52975e-09
1.06871e-08
-8.76583e-09
-1.45925e-08
-1.31771e-09
-2.35269e-08
-3.39117e-09
-7.90923e-10
-7.29377e-09
-1.03619e-09
-2.20816e-08
-1.34998e-08
9.07819e-11
-4.48214e-08
4.36046e-08
-9.74975e-08
9.66935e-08
-1.72497e-07
1.54281e-07
-2.7016e-07
2.12861e-07
-3.90224e-07
2.69688e-07
-5.31637e-07
3.22755e-07
-6.92452e-07
3.70865e-07
-8.69924e-07
4.13297e-07
-1.06109e-06
4.49641e-07
-1.26298e-06
4.79473e-07
-1.47288e-06
5.0249e-07
-1.688e-06
5.18314e-07
-1.90559e-06
5.26745e-07
-2.12259e-06
5.27463e-07
-2.33585e-06
5.20313e-07
-2.54178e-06
5.04898e-07
-2.73684e-06
4.80998e-07
-2.91711e-06
4.48097e-07
-3.07888e-06
4.05991e-07
-3.21812e-06
3.54213e-07
-3.33121e-06
2.92802e-07
-3.41424e-06
2.21594e-07
-3.46385e-06
1.41122e-07
-3.47648e-06
5.17689e-08
-3.4494e-06
-4.5221e-08
-3.37983e-06
-1.48741e-07
-3.26622e-06
-2.56731e-07
-3.10725e-06
-3.67327e-07
-2.90317e-06
-4.7775e-07
-2.65477e-06
-5.85571e-07
-2.36457e-06
-6.87646e-07
-2.03576e-06
-7.81431e-07
-1.67314e-06
-8.63994e-07
-1.28203e-06
-9.33235e-07
-8.68993e-07
-9.86975e-07
-4.40835e-07
-1.02393e-06
-5.08715e-09
-1.04293e-06
4.30775e-07
-1.04359e-06
8.59066e-07
-1.02576e-06
1.27244e-06
-9.89975e-07
1.66391e-06
-9.3717e-07
2.02705e-06
-8.68821e-07
2.35638e-06
-7.86914e-07
2.64726e-06
-6.93785e-07
2.89637e-06
-5.92238e-07
3.10134e-06
-4.85019e-07
3.26125e-06
-3.75115e-07
3.37593e-06
-2.65043e-07
3.44652e-06
-1.5737e-07
3.47463e-06
-5.39659e-08
3.46283e-06
4.33152e-08
3.4139e-06
1.33344e-07
3.33132e-06
2.14936e-07
3.21854e-06
2.87557e-07
3.07946e-06
3.50588e-07
2.9178e-06
4.03985e-07
2.73761e-06
4.47604e-07
2.54268e-06
4.81754e-07
2.33697e-06
5.066e-07
2.12409e-06
5.22638e-07
1.90765e-06
5.3017e-07
1.69078e-06
5.29686e-07
1.47645e-06
5.21436e-07
1.26721e-06
5.05757e-07
1.06564e-06
4.82771e-07
8.74354e-07
4.52712e-07
6.96405e-07
4.15782e-07
5.35011e-07
3.72469e-07
3.93177e-07
3.23441e-07
2.72873e-07
2.69702e-07
1.74863e-07
2.12501e-07
9.92507e-08
1.53714e-07
4.62662e-08
9.6165e-08
1.5294e-08
4.33764e-08
2.86001e-09
-3.13549e-10
1.7801e-09
-2.08542e-08
-4.28705e-10
-4.47291e-09
-1.66496e-09
-1.57675e-08
-8.80752e-09
-4.43351e-08
3.02909e-08
-9.64283e-08
9.63026e-08
-1.74087e-07
1.74393e-07
-2.77775e-07
2.58053e-07
-4.07525e-07
3.42679e-07
-5.62644e-07
4.24488e-07
-7.41602e-07
5.00734e-07
-9.41922e-07
5.69603e-07
-1.16057e-06
6.30064e-07
-1.39421e-06
6.81391e-07
-1.63956e-06
7.23115e-07
-1.89331e-06
7.54723e-07
-2.15226e-06
7.75878e-07
-2.41291e-06
7.86104e-07
-2.6718e-06
7.85108e-07
-2.92499e-06
7.72353e-07
-3.16861e-06
7.4749e-07
-3.39827e-06
7.09849e-07
-3.60976e-06
6.59046e-07
-3.79841e-06
5.94394e-07
-3.95992e-06
5.15708e-07
-4.0896e-06
4.22588e-07
-4.18331e-06
3.15393e-07
-4.23658e-06
1.94346e-07
-4.24574e-06
6.06721e-08
-4.20698e-06
-8.44815e-08
-4.11763e-06
-2.38789e-07
-3.97518e-06
-3.99998e-07
-3.77875e-06
-5.64623e-07
-3.52795e-06
-7.29366e-07
-3.22438e-06
-8.89853e-07
-2.87041e-06
-1.04219e-06
-2.47046e-06
-1.18181e-06
-2.02974e-06
-1.30506e-06
-1.55514e-06
-1.40814e-06
-1.05408e-06
-1.4884e-06
-5.35086e-07
-1.54343e-06
-6.827e-09
-1.57194e-06
5.21494e-07
-1.573e-06
1.04089e-06
-1.54665e-06
1.54244e-06
-1.49348e-06
2.01777e-06
-1.4149e-06
2.45924e-06
-1.31307e-06
2.86009e-06
-1.19084e-06
3.21494e-06
-1.05186e-06
3.51956e-06
-9.00053e-07
3.77146e-06
-7.39909e-07
3.96921e-06
-5.75543e-07
4.11307e-06
-4.11189e-07
4.20399e-06
-2.50221e-07
4.24429e-06
-9.59078e-08
4.23662e-06
4.95255e-08
4.18456e-06
1.83944e-07
4.09179e-06
3.0616e-07
3.96269e-06
4.14951e-07
3.80147e-06
5.09906e-07
3.61285e-06
5.90534e-07
3.40123e-06
6.57041e-07
3.17136e-06
7.09482e-07
2.92761e-06
7.48448e-07
2.67445e-06
7.74313e-07
2.41588e-06
7.87772e-07
2.15578e-06
7.89251e-07
1.89745e-06
7.79339e-07
1.64411e-06
7.58345e-07
1.3987e-06
7.26686e-07
1.16448e-06
6.84619e-07
9.4497e-07
6.32626e-07
7.43986e-07
5.7129e-07
5.64832e-07
5.01601e-07
4.0976e-07
4.24829e-07
2.79794e-07
3.42787e-07
1.757e-07
2.58032e-07
9.81252e-08
1.74301e-07
4.62478e-08
9.60409e-08
1.79951e-08
2.93482e-08
5.69827e-09
-8.08349e-09
6.39445e-09
-8.56517e-09
9.26231e-09
-3.25161e-08
1.70712e-08
-7.93782e-08
7.90468e-08
-1.54534e-07
1.72465e-07
-2.59162e-07
2.79642e-07
-3.93012e-07
3.92767e-07
-5.55533e-07
5.06097e-07
-7.45521e-07
6.1495e-07
-9.60758e-07
7.15824e-07
-1.19829e-06
8.06493e-07
-1.45467e-06
8.85539e-07
-1.72635e-06
9.52139e-07
-2.00966e-06
1.00559e-06
-2.30107e-06
1.04543e-06
-2.59679e-06
1.07105e-06
-2.8931e-06
1.08203e-06
-3.18589e-06
1.07769e-06
-3.4711e-06
1.05753e-06
-3.74417e-06
1.02072e-06
-4.00065e-06
9.66668e-07
-4.23558e-06
8.94476e-07
-4.44424e-06
8.03703e-07
-4.62146e-06
6.93643e-07
-4.76254e-06
5.64357e-07
-4.86233e-06
4.15756e-07
-4.91643e-06
2.48819e-07
-4.9201e-06
6.44813e-08
-4.86971e-06
-1.34983e-07
-4.76153e-06
-3.47273e-07
-4.5934e-06
-5.68565e-07
-4.36349e-06
-7.95025e-07
-4.07201e-06
-1.02132e-06
-3.71996e-06
-1.24232e-06
-3.31069e-06
-1.45181e-06
-2.84852e-06
-1.64427e-06
-2.34003e-06
-1.81383e-06
-1.79255e-06
-1.95594e-06
-1.21507e-06
-2.06631e-06
-6.16903e-07
-2.14222e-06
-8.28878e-09
-2.18143e-06
6.00571e-07
-2.18307e-06
1.19923e-06
-2.14692e-06
1.77759e-06
-2.07392e-06
2.32604e-06
-1.96586e-06
2.83571e-06
-1.82564e-06
3.29898e-06
-1.6573e-06
3.70944e-06
-1.46562e-06
4.06262e-06
-1.2564e-06
4.35537e-06
-1.03546e-06
4.58664e-06
-8.09024e-07
4.7564e-06
-5.82442e-07
4.86636e-06
-3.60939e-07
4.91874e-06
-1.48403e-07
4.91701e-06
5.15507e-08
4.8647e-06
2.36668e-07
4.76631e-06
4.04829e-07
4.6262e-06
5.55038e-07
4.44944e-06
6.86268e-07
4.24085e-06
7.98419e-07
4.00564e-06
8.91286e-07
3.74874e-06
9.65409e-07
3.47527e-06
1.02113e-06
3.18986e-06
1.05931e-06
2.89719e-06
1.08052e-06
2.60128e-06
1.08561e-06
2.30603e-06
1.0751e-06
2.01482e-06
1.04967e-06
1.73112e-06
1.00973e-06
1.4585e-06
9.55841e-07
1.20103e-06
8.88497e-07
9.62861e-07
8.08534e-07
7.47704e-07
7.16999e-07
5.5801e-07
6.15492e-07
3.95282e-07
5.06229e-07
2.6096e-07
3.92609e-07
1.56391e-07
2.79255e-07
8.12211e-08
1.71544e-07
3.49026e-08
7.70987e-08
1.00635e-08
1.67906e-08
1.72756e-08
-1.32275e-08
2.3925e-08
-5.01989e-08
5.53331e-08
-1.1662e-07
1.46677e-07
-2.16188e-07
2.72545e-07
-3.48973e-07
4.12742e-07
-5.13745e-07
5.58168e-07
-7.09219e-07
7.02127e-07
-9.33378e-07
8.39107e-07
-1.1833e-06
9.65139e-07
-1.45537e-06
1.07759e-06
-1.74584e-06
1.17492e-06
-2.05086e-06
1.25608e-06
-2.36668e-06
1.32043e-06
-2.68934e-06
1.36725e-06
-3.01501e-06
1.39603e-06
-3.3395e-06
1.40601e-06
-3.65868e-06
1.39656e-06
-3.96799e-06
1.3667e-06
-4.26297e-06
1.31569e-06
-4.5386e-06
1.24241e-06
-4.79009e-06
1.14615e-06
-5.01204e-06
1.02588e-06
-5.19949e-06
8.81335e-07
-5.34691e-06
7.11994e-07
-5.44943e-06
5.18435e-07
-5.50169e-06
3.01159e-07
-5.49928e-06
6.20851e-08
-5.43746e-06
-1.96808e-07
-5.3129e-06
-4.71815e-07
-5.12227e-06
-7.59076e-07
-4.86422e-06
-1.05282e-06
-4.53794e-06
-1.34719e-06
-4.14512e-06
-1.63459e-06
-3.68849e-06
-1.90778e-06
-3.17351e-06
-2.15855e-06
-2.60671e-06
-2.37994e-06
-1.99693e-06
-2.56515e-06
-1.35356e-06
-2.70928e-06
-6.87468e-07
-2.80817e-06
-9.57832e-09
-2.85951e-06
6.6853e-07
-2.8618e-06
1.33549e-06
-2.81503e-06
1.98e-06
-2.72019e-06
2.59131e-06
-2.57964e-06
3.15963e-06
-2.39709e-06
3.67622e-06
-2.17759e-06
4.13427e-06
-1.92774e-06
4.52845e-06
-1.65478e-06
4.856e-06
-1.36689e-06
5.11543e-06
-1.07171e-06
5.30758e-06
-7.76899e-07
5.43402e-06
-4.88572e-07
5.49797e-06
-2.12445e-07
5.5027e-06
4.75589e-08
5.45264e-06
2.87913e-07
5.35199e-06
5.06683e-07
5.20589e-06
7.02061e-07
5.01917e-06
8.73474e-07
4.79735e-06
1.02028e-06
4.54557e-06
1.1428e-06
4.26934e-06
1.24121e-06
3.97375e-06
1.31642e-06
3.66402e-06
1.36906e-06
3.34475e-06
1.40022e-06
3.02046e-06
1.41063e-06
2.69503e-06
1.40127e-06
2.37229e-06
1.37275e-06
2.05578e-06
1.32583e-06
1.74952e-06
1.26104e-06
1.45778e-06
1.17916e-06
1.18514e-06
1.08095e-06
9.3554e-07
9.67649e-07
7.11875e-07
8.40883e-07
5.16221e-07
7.03273e-07
3.50921e-07
5.58755e-07
2.17992e-07
4.12831e-07
1.18238e-07
2.71732e-07
5.24753e-08
1.44387e-07
1.4358e-08
5.44461e-08
3.21195e-08
-1.78723e-08
4.26641e-08
-6.82654e-08
1.06687e-07
-1.54957e-07
2.34253e-07
-2.79771e-07
3.97756e-07
-4.41376e-07
5.74679e-07
-6.37411e-07
7.54805e-07
-8.65511e-07
9.30574e-07
-1.12275e-06
1.09601e-06
-1.40526e-06
1.24677e-06
-1.70887e-06
1.38017e-06
-2.02942e-06
1.49451e-06
-2.36298e-06
1.58882e-06
-2.70554e-06
1.66231e-06
-3.05321e-06
1.71441e-06
-3.40185e-06
1.74432e-06
-3.74738e-06
1.75138e-06
-4.08533e-06
1.73453e-06
-4.41137e-06
1.69293e-06
-4.72063e-06
1.62527e-06
-5.00844e-06
1.53062e-06
-5.26951e-06
1.40767e-06
-5.49888e-06
1.25576e-06
-5.69095e-06
1.07396e-06
-5.84071e-06
8.6235e-07
-5.94248e-06
6.20872e-07
-5.99146e-06
3.5088e-07
-5.98223e-06
5.3733e-08
-5.91061e-06
-2.67399e-07
-5.77202e-06
-6.09161e-07
-5.56361e-06
-9.66018e-07
-5.28265e-06
-1.33209e-06
-4.92881e-06
-1.69917e-06
-4.50259e-06
-2.05886e-06
-4.00749e-06
-2.40089e-06
-3.44835e-06
-2.71573e-06
-2.83306e-06
-2.99341e-06
-2.17048e-06
-3.22606e-06
-1.47159e-06
-3.40671e-06
-7.47657e-07
-3.53089e-06
-1.10417e-08
-3.59521e-06
7.26015e-07
-3.5983e-06
1.45099e-06
-3.5399e-06
2.15163e-06
-3.4214e-06
2.81622e-06
-3.24559e-06
3.4338e-06
-3.01695e-06
3.99506e-06
-2.742e-06
4.4922e-06
-2.42878e-06
4.92009e-06
-2.08704e-06
5.2754e-06
-1.72664e-06
5.55767e-06
-1.35795e-06
5.76755e-06
-9.89797e-07
5.90785e-06
-6.30559e-07
5.98158e-06
-2.86435e-07
5.99317e-06
3.70257e-08
5.94662e-06
3.36383e-07
5.847e-06
6.08609e-07
5.6989e-06
8.52375e-07
5.50779e-06
1.06641e-06
5.27868e-06
1.2507e-06
5.01728e-06
1.40509e-06
4.72877e-06
1.53041e-06
4.41873e-06
1.62721e-06
4.09206e-06
1.69673e-06
3.75379e-06
1.73984e-06
3.40821e-06
1.75781e-06
3.05956e-06
1.75148e-06
2.71152e-06
1.7219e-06
2.36799e-06
1.66976e-06
2.03294e-06
1.59589e-06
1.71102e-06
1.50095e-06
1.40688e-06
1.38585e-06
1.12485e-06
1.25163e-06
8.68207e-07
1.10003e-06
6.39928e-07
9.3367e-07
4.43322e-07
7.56928e-07
2.81322e-07
5.75828e-07
1.56118e-07
3.97497e-07
7.00511e-08
2.31964e-07
1.82777e-08
1.05438e-07
5.12771e-08
-2.23265e-08
6.59687e-08
-8.65375e-08
1.71786e-07
-1.94034e-07
3.42798e-07
-3.44684e-07
5.49181e-07
-5.35574e-07
7.66364e-07
-7.62862e-07
9.83056e-07
-1.02291e-06
1.19117e-06
-1.3116e-06
1.38448e-06
-1.62421e-06
1.55875e-06
-1.95586e-06
1.71129e-06
-2.3022e-06
1.84062e-06
-2.65905e-06
1.94576e-06
-3.02257e-06
2.02613e-06
-3.3887e-06
2.08103e-06
-3.75351e-06
2.10983e-06
-4.11272e-06
2.11153e-06
-4.46221e-06
2.08522e-06
-4.79739e-06
2.02952e-06
-5.11387e-06
1.94334e-06
-5.40666e-06
1.82513e-06
-5.67105e-06
1.67389e-06
-5.90168e-06
1.48829e-06
-6.09366e-06
1.26791e-06
-6.2414e-06
1.01213e-06
-6.34003e-06
7.21625e-07
-6.38394e-06
3.97001e-07
-6.36853e-06
4.06219e-08
-6.28847e-06
-3.4505e-07
-6.13982e-06
-7.55307e-07
-5.91823e-06
-1.18505e-06
-5.62133e-06
-1.62644e-06
-5.24704e-06
-2.07097e-06
-4.79622e-06
-2.50732e-06
-4.271e-06
-2.92392e-06
-3.67717e-06
-3.30755e-06
-3.02212e-06
-3.64656e-06
-2.31631e-06
-3.93003e-06
-1.57089e-06
-4.15025e-06
-7.98701e-07
-4.30115e-06
-1.25853e-08
-4.3793e-06
7.73923e-07
-4.38271e-06
1.54755e-06
-4.31144e-06
2.29509e-06
-4.16706e-06
3.00372e-06
-3.95289e-06
3.66176e-06
-3.67444e-06
4.25867e-06
-3.33939e-06
4.78666e-06
-2.95819e-06
5.23989e-06
-2.54262e-06
5.61604e-06
-2.10571e-06
5.9145e-06
-1.65941e-06
6.13747e-06
-1.21526e-06
6.28769e-06
-7.82237e-07
6.36957e-06
-3.68413e-07
6.38715e-06
2.07466e-08
6.34557e-06
3.8045e-07
6.24916e-06
7.08158e-07
6.1032e-06
1.00162e-06
5.91231e-06
1.26025e-06
5.68201e-06
1.48343e-06
5.41729e-06
1.67176e-06
5.12374e-06
1.82559e-06
4.80633e-06
1.94617e-06
4.47034e-06
2.03443e-06
4.12029e-06
2.09185e-06
3.76078e-06
2.11946e-06
3.39569e-06
2.11863e-06
3.02893e-06
2.09025e-06
2.66419e-06
2.03539e-06
2.30567e-06
1.95472e-06
1.95788e-06
1.84909e-06
1.62572e-06
1.71913e-06
1.31362e-06
1.56584e-06
1.02547e-06
1.39062e-06
7.65134e-07
1.19609e-06
5.37198e-07
9.86579e-07
3.45673e-07
7.68479e-07
1.94445e-07
5.49511e-07
8.75092e-08
3.40793e-07
2.21064e-08
1.70775e-07
7.55041e-08
-2.68076e-08
9.37197e-08
-1.05177e-07
2.51037e-07
-2.34085e-07
4.73052e-07
-4.11285e-07
7.27621e-07
-6.31852e-07
9.88216e-07
-8.9025e-07
1.24276e-06
-1.18116e-06
1.48285e-06
-1.49926e-06
1.70254e-06
-1.83885e-06
1.89796e-06
-2.19464e-06
2.06694e-06
-2.5619e-06
2.20821e-06
-2.93662e-06
2.32118e-06
-3.31484e-06
2.40533e-06
-3.69288e-06
2.46021e-06
-4.06671e-06
2.48499e-06
-4.43249e-06
2.47887e-06
-4.78598e-06
2.44052e-06
-5.12317e-06
2.36875e-06
-5.43949e-06
2.26188e-06
-5.73067e-06
2.11865e-06
-5.99176e-06
1.9374e-06
-6.21829e-06
1.71728e-06
-6.405e-06
1.4571e-06
-6.54736e-06
1.15693e-06
-6.63996e-06
8.16606e-07
-6.67828e-06
4.37619e-07
-6.65686e-06
2.13874e-08
-6.57132e-06
-4.28551e-07
-6.41635e-06
-9.08442e-07
-6.18809e-06
-1.41174e-06
-5.88215e-06
-1.93113e-06
-5.49647e-06
-2.45575e-06
-5.02965e-06
-2.97357e-06
-4.48406e-06
-3.46918e-06
-3.86408e-06
-3.92724e-06
-3.17843e-06
-4.33174e-06
-2.43745e-06
-4.67013e-06
-1.65405e-06
-4.93222e-06
-8.41405e-07
-5.1116e-06
-1.39515e-08
-5.20382e-06
8.14039e-07
-5.20701e-06
1.62807e-06
-5.12109e-06
2.41401e-06
-4.94812e-06
3.15825e-06
-4.69215e-06
3.84773e-06
-4.35947e-06
4.47158e-06
-3.9596e-06
5.02099e-06
-3.50509e-06
5.49107e-06
-3.01139e-06
5.87942e-06
-2.49396e-06
6.18729e-06
-1.9681e-06
6.41714e-06
-1.44627e-06
6.57356e-06
-9.39571e-07
6.66066e-06
-4.55794e-07
6.68385e-06
-1.76146e-09
6.64751e-06
4.18419e-07
6.55693e-06
8.01117e-07
6.41626e-06
1.14486e-06
6.23061e-06
1.44824e-06
6.00443e-06
1.71145e-06
5.743e-06
1.93446e-06
5.451e-06
2.11844e-06
5.13365e-06
2.26418e-06
4.79547e-06
2.3733e-06
4.44121e-06
2.44696e-06
4.07486e-06
2.4868e-06
3.70048e-06
2.49392e-06
3.32157e-06
2.46969e-06
2.94193e-06
2.41496e-06
2.56544e-06
2.33068e-06
2.19669e-06
2.2174e-06
1.84038e-06
2.07572e-06
1.50117e-06
1.90615e-06
1.18337e-06
1.70978e-06
8.91977e-07
1.48871e-06
6.3286e-07
1.24705e-06
4.1152e-07
9.91014e-07
2.33685e-07
7.28681e-07
1.05415e-07
4.71966e-07
2.63973e-08
2.51443e-07
1.05103e-07
-3.1531e-08
1.26038e-07
-1.24616e-07
3.45281e-07
-2.76038e-07
6.2626e-07
-4.80843e-07
9.34155e-07
-7.31676e-07
1.24076e-06
-1.02089e-06
1.53344e-06
-1.34131e-06
1.80409e-06
-1.68618e-06
2.04743e-06
-2.04914e-06
2.26058e-06
-2.42444e-06
2.44209e-06
-2.8074e-06
2.59143e-06
-3.19392e-06
2.70828e-06
-3.58048e-06
2.79257e-06
-3.9634e-06
2.84382e-06
-4.33921e-06
2.86151e-06
-4.70406e-06
2.84451e-06
-5.05438e-06
2.79172e-06
-5.38608e-06
2.70143e-06
-5.69542e-06
2.57224e-06
-5.978e-06
2.40226e-06
-6.2299e-06
2.19028e-06
-6.44645e-06
1.9347e-06
-6.62363e-06
1.63501e-06
-6.75659e-06
1.29042e-06
-6.84134e-06
9.01636e-07
-6.87282e-06
4.69106e-07
-6.84695e-06
-4.80809e-09
-6.75834e-06
-5.17854e-07
-6.60264e-06
-1.06528e-06
-6.37408e-06
-1.64189e-06
-6.06834e-06
-2.23891e-06
-5.68045e-06
-2.84603e-06
-5.20843e-06
-3.44814e-06
-4.65182e-06
-4.02821e-06
-4.01539e-06
-4.56563e-06
-3.30696e-06
-5.04132e-06
-2.53874e-06
-5.43838e-06
-1.72384e-06
-5.74577e-06
-8.77303e-07
-5.95541e-06
-1.43219e-08
-6.06272e-06
8.48952e-07
-6.06504e-06
1.69679e-06
-5.96272e-06
2.51396e-06
-5.7582e-06
3.28565e-06
-5.45631e-06
3.99814e-06
-5.06458e-06
4.6391e-06
-4.59397e-06
5.20021e-06
-4.06058e-06
5.67648e-06
-3.48342e-06
6.06783e-06
-2.88259e-06
6.3762e-06
-2.27529e-06
6.60667e-06
-1.67666e-06
6.7639e-06
-1.09741e-06
6.85388e-06
-5.46526e-07
6.88116e-06
-2.96587e-08
6.85122e-06
4.48179e-07
6.76811e-06
8.84467e-07
6.63657e-06
1.27678e-06
6.46033e-06
1.62463e-06
6.24407e-06
1.92738e-06
5.99181e-06
2.18584e-06
5.70839e-06
2.40052e-06
5.39795e-06
2.573e-06
5.06512e-06
2.70444e-06
4.71383e-06
2.79668e-06
4.34816e-06
2.85101e-06
3.97154e-06
2.8691e-06
3.58753e-06
2.85204e-06
3.19944e-06
2.80106e-06
2.81113e-06
2.71681e-06
2.42671e-06
2.59989e-06
2.05082e-06
2.4504e-06
1.68799e-06
2.2685e-06
1.34306e-06
2.05449e-06
1.02198e-06
1.80983e-06
7.32092e-07
1.53774e-06
4.80507e-07
1.24385e-06
2.75202e-07
9.35928e-07
1.24707e-07
6.26432e-07
3.14656e-08
3.47699e-07
1.39484e-07
-3.66274e-08
1.63583e-07
-1.45772e-07
4.56114e-07
-3.21664e-07
8.04351e-07
-5.5584e-07
1.17039e-06
-8.37757e-07
1.52459e-06
-1.15745e-06
1.85442e-06
-1.50555e-06
2.15276e-06
-1.87405e-06
2.41581e-06
-2.25597e-06
2.64203e-06
-2.64559e-06
2.8313e-06
-3.03821e-06
2.98387e-06
-3.43018e-06
3.10018e-06
-3.81808e-06
3.18032e-06
-4.19886e-06
3.22425e-06
-4.56918e-06
3.23127e-06
-4.9259e-06
3.20053e-06
-5.26548e-06
3.13049e-06
-5.58473e-06
3.01975e-06
-5.87985e-06
2.86631e-06
-6.14754e-06
2.66874e-06
-6.38381e-06
2.42512e-06
-6.58531e-06
2.13454e-06
-6.74792e-06
1.79569e-06
-6.86839e-06
1.40866e-06
-6.94251e-06
9.73176e-07
-6.96702e-06
4.90659e-07
-6.9373e-06
-3.78811e-08
-6.84957e-06
-6.09368e-07
-6.69815e-06
-1.22092e-06
-6.47796e-06
-1.86671e-06
-6.18181e-06
-2.53992e-06
-5.80386e-06
-3.22882e-06
-5.3379e-06
-3.91856e-06
-4.78215e-06
-4.5876e-06
-4.13845e-06
-5.2117e-06
-3.41583e-06
-5.76473e-06
-2.62646e-06
-6.22679e-06
-1.78554e-06
-6.58399e-06
-9.08638e-07
-6.82806e-06
-1.33852e-08
-6.95261e-06
8.82126e-07
-6.95473e-06
1.75968e-06
-6.83427e-06
2.60235e-06
-6.59463e-06
3.39456e-06
-6.24204e-06
4.12109e-06
-5.78496e-06
4.7693e-06
-5.23662e-06
5.32998e-06
-4.61663e-06
5.80071e-06
-3.95044e-06
6.1829e-06
-3.26232e-06
6.48219e-06
-2.57353e-06
6.70472e-06
-1.89926e-06
6.85784e-06
-1.25135e-06
6.9469e-06
-6.36951e-07
6.97777e-06
-6.21108e-08
6.95446e-06
4.69952e-07
6.88158e-06
9.55969e-07
6.76223e-06
1.39478e-06
6.60037e-06
1.78491e-06
6.39908e-06
2.12666e-06
6.16244e-06
2.41995e-06
5.8939e-06
2.66609e-06
5.59766e-06
2.86598e-06
5.27721e-06
3.02151e-06
4.9365e-06
3.13405e-06
4.57876e-06
3.20555e-06
4.20742e-06
3.23732e-06
3.82539e-06
3.23095e-06
3.43593e-06
3.18734e-06
3.04225e-06
3.10736e-06
2.64824e-06
2.99116e-06
2.25795e-06
2.83863e-06
1.87584e-06
2.64911e-06
1.50692e-06
2.42214e-06
1.15808e-06
2.15791e-06
8.37941e-07
1.85838e-06
5.55458e-07
1.5277e-06
3.21046e-07
1.17262e-06
1.46471e-07
8.05383e-07
3.70997e-08
4.59734e-07
1.77917e-07
-4.25247e-08
2.07391e-07
-1.70351e-07
5.85875e-07
-3.74043e-07
1.01014e-06
-6.40219e-07
1.43842e-06
-9.54391e-07
1.8404e-06
-1.30385e-06
2.20461e-06
-1.67722e-06
2.5262e-06
-2.06531e-06
2.80362e-06
-2.46103e-06
3.03742e-06
-2.85882e-06
3.22892e-06
-3.25456e-06
3.37962e-06
-3.64486e-06
3.49051e-06
-4.027e-06
3.56234e-06
-4.39814e-06
3.59501e-06
-4.7557e-06
3.58817e-06
-5.09671e-06
3.54063e-06
-5.41851e-06
3.45117e-06
-5.71795e-06
3.31787e-06
-5.99232e-06
3.13916e-06
-6.23831e-06
2.91299e-06
-6.45329e-06
2.63812e-06
-6.63392e-06
2.31291e-06
-6.77777e-06
1.93699e-06
-6.88158e-06
1.50961e-06
-6.94318e-06
1.03158e-06
-6.95923e-06
5.03144e-07
-6.92735e-06
-7.37237e-08
-6.84323e-06
-6.97834e-07
-6.70291e-06
-1.36594e-06
-6.49941e-06
-2.0751e-06
-6.22543e-06
-2.81869e-06
-5.87062e-06
-3.58787e-06
-5.42609e-06
-4.36627e-06
-4.88416e-06
-5.13118e-06
-4.2451e-06
-5.85057e-06
-3.51618e-06
-6.49153e-06
-2.71196e-06
-7.02724e-06
-1.84756e-06
-7.44349e-06
-9.40819e-07
-7.72942e-06
-1.14915e-08
-7.87679e-06
9.17853e-07
-7.88002e-06
1.82499e-06
-7.73894e-06
2.69028e-06
-7.4585e-06
3.49665e-06
-7.04739e-06
4.22876e-06
-6.51633e-06
4.87213e-06
-5.8796e-06
5.4189e-06
-5.16325e-06
5.86847e-06
-4.40014e-06
6.22783e-06
-3.6222e-06
6.50532e-06
-2.85236e-06
6.71133e-06
-2.10709e-06
6.85351e-06
-1.39557e-06
6.9389e-06
-7.24508e-07
6.97174e-06
-9.71063e-08
6.95656e-06
4.83203e-07
6.89587e-06
1.01503e-06
6.79291e-06
1.49628e-06
6.64963e-06
1.92667e-06
6.46912e-06
2.30536e-06
6.25374e-06
2.63315e-06
6.00692e-06
2.9104e-06
5.73144e-06
3.13874e-06
5.43079e-06
3.31937e-06
5.10778e-06
3.45433e-06
4.76562e-06
3.54512e-06
4.40688e-06
3.59364e-06
4.03444e-06
3.60112e-06
3.6508e-06
3.56885e-06
3.25895e-06
3.49731e-06
2.86195e-06
3.38667e-06
2.4634e-06
3.23616e-06
2.06716e-06
3.04456e-06
1.67836e-06
2.81015e-06
1.30432e-06
2.53173e-06
9.5479e-07
2.20915e-06
6.40321e-07
1.84426e-06
3.74159e-07
1.44147e-06
1.71954e-07
1.01183e-06
4.31474e-08
5.89609e-07
2.21345e-07
-5.0294e-08
2.59089e-07
-2.01474e-07
7.38524e-07
-4.38102e-07
1.24808e-06
-7.39909e-07
1.7414e-06
-1.08752e-06
2.18911e-06
-1.46536e-06
2.58266e-06
-1.86035e-06
2.92104e-06
-2.26287e-06
3.2062e-06
-2.66603e-06
3.44116e-06
-3.06507e-06
3.62912e-06
-3.45647e-06
3.77259e-06
-3.8377e-06
3.87353e-06
-4.20641e-06
3.93282e-06
-4.56056e-06
3.95082e-06
-4.89781e-06
3.92692e-06
-5.21605e-06
3.86023e-06
-5.51274e-06
3.74909e-06
-5.78575e-06
3.59199e-06
-6.03243e-06
3.38682e-06
-6.25078e-06
3.13216e-06
-6.4382e-06
2.82616e-06
-6.59302e-06
2.46812e-06
-6.7129e-06
2.05699e-06
-6.79671e-06
1.59323e-06
-6.84242e-06
1.07674e-06
-6.8493e-06
5.09051e-07
-6.81512e-06
-1.09338e-07
-6.73837e-06
-7.76487e-07
-6.61456e-06
-1.49198e-06
-6.4384e-06
-2.25358e-06
-6.19961e-06
-3.05945e-06
-5.88598e-06
-3.90259e-06
-5.48112e-06
-4.77076e-06
-4.97184e-06
-5.63834e-06
-4.35131e-06
-6.46722e-06
-3.62707e-06
-7.21056e-06
-2.81332e-06
-7.83522e-06
-1.92607e-06
-8.3254e-06
-9.83295e-07
-8.66803e-06
-1.03239e-08
-8.84716e-06
9.6306e-07
-8.8528e-06
1.90646e-06
-8.68412e-06
2.79489e-06
-8.34996e-06
3.61048e-06
-7.86598e-06
4.3377e-06
-7.24609e-06
4.96226e-06
-6.50594e-06
5.47638e-06
-5.6786e-06
5.8861e-06
-4.81077e-06
6.20425e-06
-3.94132e-06
6.44636e-06
-3.09614e-06
6.6249e-06
-2.2878e-06
6.75038e-06
-1.52328e-06
6.82824e-06
-8.04558e-07
6.86309e-06
-1.33916e-07
6.85675e-06
4.88049e-07
6.81161e-06
1.05926e-06
6.72837e-06
1.57909e-06
6.60887e-06
2.04596e-06
6.45406e-06
2.45995e-06
6.26622e-06
2.82061e-06
6.04705e-06
3.12905e-06
5.7993e-06
3.38592e-06
5.52507e-06
3.59308e-06
5.22716e-06
3.7519e-06
4.90771e-06
3.86449e-06
4.56926e-06
3.93229e-06
4.21382e-06
3.95707e-06
3.84377e-06
3.93973e-06
3.4612e-06
3.88104e-06
3.0687e-06
3.78068e-06
2.66884e-06
3.63773e-06
2.2649e-06
3.45003e-06
1.86145e-06
3.21485e-06
1.46594e-06
2.92902e-06
1.08841e-06
2.58987e-06
7.40741e-07
2.19564e-06
4.38942e-07
1.74689e-06
2.03521e-07
1.25147e-06
5.04601e-08
7.42894e-07
2.73224e-07
-6.21731e-08
3.22234e-07
-2.4451e-07
9.21482e-07
-5.21645e-07
1.52562e-06
-8.63378e-07
2.0839e-06
-1.24506e-06
2.57148e-06
-1.64828e-06
2.98589e-06
-2.05943e-06
3.33212e-06
-2.46936e-06
3.61659e-06
-2.8723e-06
3.84542e-06
-3.26451e-06
4.02349e-06
-3.64363e-06
4.15456e-06
-4.00779e-06
4.24092e-06
-4.35551e-06
4.28396e-06
-4.68508e-06
4.28387e-06
-4.99499e-06
4.24032e-06
-5.28327e-06
4.15204e-06
-5.54835e-06
4.01771e-06
-5.78815e-06
3.83534e-06
-6.00121e-06
3.60341e-06
-6.18559e-06
3.31998e-06
-6.34022e-06
2.98411e-06
-6.46353e-06
2.59457e-06
-6.5552e-06
2.15155e-06
-6.61432e-06
1.65489e-06
-6.64151e-06
1.10603e-06
-6.63646e-06
5.05579e-07
-6.6003e-06
-1.44512e-07
-6.53213e-06
-8.44209e-07
-6.43106e-06
-1.59295e-06
-6.2914e-06
-2.39309e-06
-6.10429e-06
-3.24585e-06
-5.85242e-06
-4.15264e-06
-5.51367e-06
-5.10624e-06
-5.06193e-06
-6.08537e-06
-4.4821e-06
-7.04142e-06
-3.77693e-06
-7.90996e-06
-2.96185e-06
-8.64534e-06
-2.04732e-06
-9.23655e-06
-1.05243e-06
-9.66126e-06
-1.09884e-08
-9.88804e-06
1.03146e-06
-9.89558e-06
2.02888e-06
-9.6824e-06
2.94633e-06
-9.26762e-06
3.76463e-06
-8.68314e-06
4.47313e-06
-7.95208e-06
5.05728e-06
-7.08615e-06
5.5137e-06
-6.13011e-06
5.85683e-06
-5.14912e-06
6.11237e-06
-4.1926e-06
6.30211e-06
-3.28291e-06
6.44351e-06
-2.4274e-06
6.54584e-06
-1.62456e-06
6.61475e-06
-8.72922e-07
6.65123e-06
-1.70111e-07
6.65648e-06
4.83277e-07
6.62952e-06
1.08708e-06
6.57067e-06
1.6392e-06
6.47915e-06
2.13896e-06
6.35576e-06
2.58483e-06
6.20068e-06
2.97705e-06
6.01554e-06
3.3154e-06
5.80144e-06
3.60115e-06
5.56049e-06
3.83521e-06
5.2942e-06
4.01953e-06
5.00473e-06
4.15554e-06