/*--------------------------------*- C++ -*----------------------------------*\
| =========                 |                                                 |
| \\      /  F ield         | OpenFOAM: The Open Source CFD Toolbox           |
|  \\    /   O peration     | Version:  2412                                  |
|   \\  /    A nd           | Website:  www.openfoam.com                      |
|    \\/     M anipulation  |                                                 |
\*---------------------------------------------------------------------------*/
FoamFile
{
    version     2.0;
    format      ascii;
    arch        "LSB;label=32;scalar=64";
    class       volScalarField;
    location    "5.15";
    object      alpha.molasses;
}
// * * * * * * * * * * * * * * * * * * * * * * * * * * * * * * * * * * * * * //

dimensions      [0 0 0 0 0 0 0];

internalField   nonuniform List<scalar> 
6400
(
1
1
1
1
1
1
1
1
1
1
1
1
1
1
1
1
1
1
1
1
1
1
1
1
1
1
1
1
1
1
1
1
1
1
1
1
1
1
1
1
1
1
1
1
1
1
1
1
1
1
1
1
1
1
1
1
1
1
1
1
1
1
1
1
1
1
1
1
1
1
1
1
1
1
1
1
1
1
1
1
1
1
1
1
1
1
1
1
1
1
1
1
1
1
1
1
1
1
1
1
1
1
1
1
1
1
1
1
1
1
1
1
1
1
1
1
1
1
1
1
1
1
1
1
1
1
1
1
1
1
1
1
1
1
1
1
1
1
1
1
1
1
1
1
1
1
1
1
1
1
1
1
1
1
1
1
1
1
1
1
1
1
1
1
1
1
1
1
1
1
1
1
1
1
1
1
1
1
1
1
1
1
1
1
1
1
1
1
1
1
1
1
1
1
1
1
1
1
1
1
1
1
1
1
1
1
1
1
1
1
1
1
1
1
1
1
1
1
1
1
1
1
1
1
1
1
1
1
1
1
1
1
1
1
1
1
1
1
1
1
1
1
1
1
1
1
1
1
1
1
1
1
1
1
1
1
1
1
1
1
1
1
1
1
1
1
1
1
1
1
1
1
1
1
1
1
1
1
1
1
1
1
1
1
1
1
1
1
1
1
1
1
1
1
1
1
1
1
1
1
1
1
1
1
1
1
1
1
1
1
1
1
1
1
1
1
1
1
1
1
1
1
1
1
1
1
1
1
1
1
1
1
1
1
1
1
1
1
1
1
1
1
1
1
1
1
1
1
1
1
1
1
1
1
1
1
1
1
1
1
1
1
1
1
1
1
1
1
1
1
1
1
1
1
1
1
1
1
1
1
1
1
1
1
1
1
1
1
1
1
1
1
1
1
1
1
1
1
1
1
1
1
1
1
1
1
1
1
1
1
1
1
1
1
1
1
1
1
1
1
1
1
1
1
1
1
1
1
1
1
1
1
1
1
1
1
1
1
1
1
1
1
1
1
1
1
1
1
1
1
1
1
1
1
1
1
1
1
1
1
1
1
1
1
1
1
1
1
1
1
1
1
1
1
1
1
1
1
1
1
1
1
1
1
1
1
1
1
1
1
1
1
1
1
1
1
1
1
1
1
1
1
1
1
1
1
1
1
1
1
1
1
1
1
1
1
1
1
1
1
1
1
1
1
1
1
1
1
1
1
1
1
1
1
1
1
1
1
1
1
1
1
1
1
1
1
1
1
1
1
1
1
1
1
1
1
1
1
1
1
1
1
1
1
1
1
1
1
1
1
1
1
1
1
1
1
1
1
1
1
1
1
1
1
1
1
1
1
1
1
1
1
1
1
1
1
1
1
1
1
1
1
1
1
1
1
1
1
1
1
1
1
1
1
1
1
1
1
1
1
1
1
1
1
1
1
1
1
1
1
1
1
1
1
1
1
1
1
1
1
1
1
1
1
1
1
1
1
1
1
1
1
1
1
1
1
1
1
1
1
1
1
1
1
1
1
1
1
1
1
1
1
1
1
1
1
1
1
1
1
1
1
1
1
1
1
1
1
1
1
1
1
1
1
1
1
1
1
1
1
1
1
1
1
1
1
1
1
1
1
1
1
1
1
1
1
1
1
1
1
1
1
1
1
1
1
1
1
1
1
1
1
1
1
1
1
1
1
1
1
1
1
1
1
1
1
1
1
1
1
1
1
1
1
1
1
1
1
1
1
1
1
1
1
1
1
1
1
1
1
1
1
1
1
1
1
1
1
1
1
1
1
1
1
1
1
1
1
1
1
1
1
1
1
1
1
1
1
1
1
1
1
1
1
1
1
1
1
1
1
1
1
1
1
1
1
1
1
1
1
1
1
1
1
1
1
1
1
1
1
1
1
1
1
1
1
1
1
1
1
1
1
1
1
1
1
1
1
1
1
1
1
1
1
1
1
1
1
1
1
1
1
1
1
1
1
1
1
1
1
1
1
1
1
1
1
1
1
1
1
1
1
1
1
1
1
1
1
1
1
1
1
1
1
1
1
1
1
1
1
1
1
1
1
1
1
1
1
1
1
1
1
1
1
1
1
1
1
1
1
1
1
1
1
1
1
1
1
1
1
1
1
1
1
1
1
1
1
1
1
1
1
1
1
1
1
1
1
1
1
1
1
1
1
1
1
1
1
1
1
1
1
1
1
1
1
1
1
1
1
1
1
1
1
1
1
1
1
1
1
1
1
1
1
1
1
1
1
1
1
1
1
1
1
1
1
1
1
1
1
1
1
1
1
1
1
1
1
1
1
1
1
1
1
1
1
1
1
1
1
1
1
1
1
1
1
1
1
1
1
1
1
1
1
1
1
1
1
1
1
1
1
1
1
1
1
1
1
1
1
1
1
1
1
1
1
1
1
1
1
1
1
1
1
1
1
1
1
1
1
1
1
1
1
1
1
1
1
1
1
1
1
1
1
1
1
1
1
1
1
1
1
1
1
1
1
1
1
1
1
1
1
1
1
1
1
1
1
1
1
1
1
1
1
1
1
1
1
1
1
1
1
1
1
1
1
1
1
1
1
1
1
1
1
1
1
1
1
1
1
1
1
1
1
1
1
1
1
1
1
1
1
1
1
1
1
1
1
1
1
1
1
1
1
1
1
1
1
1
1
1
1
1
1
1
1
1
1
1
1
1
1
1
1
1
1
1
1
1
1
1
1
1
1
1
1
1
1
1
1
1
1
1
1
1
1
1
1
1
1
1
1
1
1
1
1
1
1
1
1
1
1
1
1
1
1
1
1
1
1
1
1
1
1
1
1
1
1
1
1
1
1
1
1
1
1
1
1
1
1
1
1
1
1
1
1
1
1
1
1
1
1
1
1
1
1
1
1
1
1
1
1
1
1
1
1
1
1
1
1
1
1
1
1
1
1
1
1
1
1
1
1
1
1
1
1
1
1
1
1
1
1
1
1
1
1
1
1
1
1
1
1
1
1
1
1
1
1
1
1
1
1
1
1
1
1
1
1
1
1
1
1
1
1
1
1
1
1
1
1
1
1
1
1
1
1
1
1
1
1
1
1
1
1
1
1
1
1
1
1
1
1
1
1
1
1
1
1
1
1
1
1
1
1
1
1
1
1
1
1
1
1
1
1
1
1
1
1
1
1
1
1
1
1
1
1
1
1
1
1
1
1
1
1
1
1
1
1
1
1
1
1
1
1
1
1
1
1
1
1
1
1
1
1
1
1
1
1
1
1
1
1
1
1
1
1
1
1
1
1
1
1
1
1
1
1
1
1
1
1
1
1
1
1
1
1
1
1
1
1
1
1
1
1
1
1
1
1
1
1
1
1
1
1
1
1
1
1
1
1
1
1
1
1
1
1
1
1
1
1
1
1
1
1
1
1
1
1
1
1
1
1
1
1
1
1
1
1
1
1
1
1
1
1
1
1
1
1
1
1
0.999999
0.999999
0.999999
0.999999
0.999999
0.999999
0.999999
0.999999
0.999999
0.999999
0.999999
0.999999
0.999999
0.999999
0.999999
0.999999
0.999999
0.999999
0.999999
0.999999
0.999999
0.999999
0.999998
0.999998
0.999998
0.999998
0.999998
0.999997
0.999997
0.999997
0.999997
0.999996
0.999996
0.999996
0.999996
0.999996
0.999996
0.999996
0.999996
0.999995
0.999996
0.999996
0.999996
0.999996
0.999996
0.999996
0.999996
0.999997
0.999997
0.999997
0.999997
0.999997
0.999998
0.999998
0.999998
0.999998
0.999998
0.999998
0.999998
0.999999
0.999999
0.999999
0.999999
0.999999
0.999999
0.999999
0.999999
0.999999
0.999999
0.999999
0.999999
0.999999
0.999999
0.999999
0.999999
0.999999
0.999999
0.999999
0.999998
0.999998
3.85371e-06
4.55864e-06
4.54802e-06
4.58361e-06
4.61638e-06
4.60876e-06
4.57359e-06
4.51529e-06
4.4225e-06
4.29332e-06
4.12782e-06
3.94644e-06
3.77952e-06
3.64742e-06
3.51338e-06
3.34866e-06
3.18274e-06
2.99532e-06
2.78539e-06
2.55348e-06
2.32398e-06
2.08729e-06
1.8607e-06
1.65069e-06
1.48128e-06
1.40381e-06
1.32201e-06
1.25303e-06
1.19481e-06
1.1262e-06
1.04749e-06
9.66254e-07
8.77508e-07
7.85748e-07
6.82359e-07
5.69171e-07
4.49314e-07
3.44831e-07
2.48015e-07
2.16763e-07
1.98416e-07
1.95271e-07
2.26789e-07
2.94402e-07
3.69733e-07
4.51741e-07
5.5767e-07
6.59e-07
7.5387e-07
8.44787e-07
9.23857e-07
1.0043e-06
1.08042e-06
1.17603e-06
1.28043e-06
1.38037e-06
1.47923e-06
1.5782e-06
1.66728e-06
1.76002e-06
1.83969e-06
1.9057e-06
1.95765e-06
1.99098e-06
2.01216e-06
2.06812e-06
2.19113e-06
2.30097e-06
2.40783e-06
2.4938e-06
2.55328e-06
2.59104e-06
2.59916e-06
2.58565e-06
2.56435e-06
2.519e-06
2.39571e-06
2.21336e-06
1.98023e-06
1.23751e-06
1.27137e-18
9.14943e-19
1.34018e-18
1.62542e-18
1.91611e-18
2.2456e-18
2.61263e-18
3.06769e-18
3.66136e-18
4.41492e-18
5.23991e-18
5.95012e-18
6.53582e-18
7.38392e-18
8.68386e-18
1.01894e-17
1.20933e-17
1.45416e-17
1.72956e-17
1.99512e-17
2.2269e-17
2.33434e-17
2.21999e-17
1.85498e-17
1.37654e-17
9.5564e-18
-2.7537e-25
-1.23255e-39
-4.70657e-41
-1.07279e-26
-2.85878e-25
-2.99666e-24
-1.54181e-23
-1.81908e-24
0
2.2201e-23
1.10568e-21
2.57612e-20
3.33936e-19
2.16626e-18
2.76344e-18
3.95809e-19
1.51946e-20
2.85217e-22
3.42613e-24
0
-4.24611e-24
-9.49862e-24
-2.0517e-24
-2.23804e-25
-1.56814e-26
-1.00445e-41
-1.12034e-26
5.61129e-18
1.05609e-17
1.42297e-17
1.65655e-17
1.76762e-17
1.77621e-17
1.71589e-17
1.57785e-17
1.39559e-17
1.20172e-17
1.02396e-17
9.26969e-18
9.45225e-18
9.53778e-18
8.41218e-18
6.92217e-18
5.52377e-18
4.4144e-18
3.57889e-18
2.94486e-18
2.51476e-18
2.17395e-18
1.77124e-18
1.38916e-18
1.11298e-18
7.86276e-19
1.07717e-18
1.26648e-21
7.3466e-22
1.08141e-21
1.33763e-21
1.621e-21
1.53226e-21
1.8307e-21
2.20938e-21
2.65456e-21
3.32676e-21
3.91066e-21
4.03639e-21
3.70932e-21
4.07107e-21
6.90424e-21
1.16661e-20
1.43232e-20
1.5233e-20
1.96696e-20
2.30532e-20
2.23651e-20
1.92247e-20
1.93401e-20
1.75809e-20
4.53863e-20
4.27505e-20
3.83441e-21
2.97843e-21
2.83422e-21
-2.47557e-23
-1.72971e-22
-2.47642e-22
4.884e-24
3.44329e-22
7.40749e-21
1.23663e-19
1.7801e-18
1.3885e-17
1.74355e-17
1.81259e-17
1.92193e-17
1.79769e-17
1.18213e-17
1.51942e-20
2.85217e-22
3.4261e-24
-9.66966e-31
5.87755e-40
-2.31383e-22
-1.47147e-22
-4.84583e-23
5.59595e-22
5.7388e-22
1.91732e-20
4.88356e-20
6.72332e-20
2.80357e-20
1.95438e-20
1.74552e-20
1.94205e-20
3.06064e-20
2.97702e-20
2.3554e-20
5.49605e-21
1.43836e-21
3.23314e-21
6.11049e-21
6.6291e-21
5.67844e-21
4.72908e-21
3.54918e-21
2.35092e-21
1.95638e-21
1.86599e-21
1.65193e-21
1.54526e-21
1.17874e-21
9.24928e-22
6.52048e-22
1.12458e-21
4.62088e-23
4.37731e-23
5.48481e-23
6.87631e-23
8.67196e-23
1.10262e-22
1.4174e-22
1.89366e-22
2.60653e-22
3.49118e-22
4.18574e-22
4.65649e-22
5.88807e-22
8.35115e-22
1.11891e-21
1.51446e-21
2.11704e-21
2.82593e-21
3.48784e-21
4.05309e-21
3.97853e-21
2.47388e-21
1.28035e-21
4.9812e-22
3.9318e-22
2.74564e-22
7.34202e-23
7.12346e-23
1.1099e-22
2.7332e-26
1.1703e-24
6.40473e-23
1.80408e-21
4.36716e-20
8.90923e-19
1.45982e-17
1.9855e-16
1.63022e-15
2.89821e-15
3.36254e-15
3.47829e-15
3.13059e-15
1.47122e-15
4.76109e-18
1.41556e-19
4.00556e-21
1.23995e-22
4.37001e-24
3.74359e-25
0
-9.10059e-25
2.15163e-23
1.67195e-23
1.19223e-22
3.2196e-22
4.21174e-22
1.05919e-21
1.5373e-21
2.09936e-21
2.25712e-21
2.3861e-21
2.1915e-21
1.82712e-21
1.34656e-21
7.90527e-22
5.22523e-22
6.14507e-22
9.32032e-22
8.01891e-22
6.00219e-22
4.24978e-22
3.02921e-22
2.21007e-22
1.6619e-22
1.36758e-22
1.15523e-22
8.78519e-23
6.56069e-23
5.03295e-23
4.44134e-23
9.96586e-26
1.0006e-25
1.14311e-25
1.46402e-25
1.90013e-25
2.48064e-25
3.3155e-25
4.63493e-25
6.71174e-25
9.51382e-25
1.22305e-24
1.48189e-24
2.00043e-24
2.99079e-24
4.28746e-24
6.23792e-24
9.37874e-24
1.35077e-23
1.80648e-23
2.27004e-23
2.46646e-23
1.96632e-23
1.30535e-23
5.24107e-24
2.89993e-24
2.34269e-24
1.96577e-24
1.96577e-24
1.96577e-24
7.30063e-24
2.0229e-22
4.90316e-21
1.23802e-19
2.94615e-18
5.91861e-17
9.54481e-16
1.3918e-14
1.05441e-13
1.2093e-13
1.41124e-13
1.4437e-13
1.26218e-13
9.55668e-14
4.10721e-16
1.34481e-17
4.08898e-19
1.36166e-20
4.87976e-22
1.5675e-22
9.65273e-24
1.24414e-25
3.68468e-25
5.36267e-25
1.15019e-24
2.52708e-24
6.21257e-24
1.14752e-23
1.44004e-23
1.6169e-23
1.52872e-23
1.39963e-23
1.16965e-23
8.9527e-24
6.21071e-24
3.70869e-24
2.52571e-24
2.56093e-24
3.14846e-24
2.5885e-24
1.81642e-24
1.20901e-24
8.14492e-25
5.63809e-25
4.04728e-25
3.20589e-25
2.66603e-25
2.08286e-25
1.46351e-25
1.12717e-25
9.42104e-26
2.41162e-28
2.41645e-28
3.02954e-28
3.91648e-28
5.19357e-28
6.94811e-28
9.51913e-28
1.36067e-27
2.01913e-27
2.98406e-27
4.14761e-27
5.51855e-27
7.79152e-27
1.18521e-26
1.79083e-26
2.74697e-26
4.3286e-26
6.68071e-26
9.81843e-26
1.36601e-25
1.67943e-25
1.68885e-25
1.3094e-25
7.16057e-26
6.49105e-26
4.20799e-25
2.13664e-24
1.96577e-24
1.3502e-23
3.87013e-22
9.75498e-21
2.34329e-19
5.66794e-18
1.32681e-16
2.66852e-15
4.42602e-14
5.36251e-13
2.36119e-12
1.832e-12
1.98068e-12
2.04736e-12
2.04265e-12
2.00335e-12
2.0571e-14
7.48824e-16
2.43561e-17
8.56551e-19
3.27381e-20
1.0295e-20
6.11914e-22
1.94713e-23
5.88232e-25
6.8393e-25
5.21911e-25
8.45528e-26
6.19847e-26
1.19213e-25
1.41855e-25
1.355e-25
1.15873e-25
9.30085e-26
6.95757e-26
4.85606e-26
3.19319e-26
1.96962e-26
1.36985e-26
1.20708e-26
1.13381e-26
8.39644e-27
5.44502e-27
3.45259e-27
2.23914e-27
1.5022e-27
1.05556e-27
7.977e-28
6.10366e-28
4.40231e-28
3.2269e-28
2.44491e-28
2.24129e-28
8.33828e-31
8.47055e-31
1.10721e-30
1.43509e-30
1.93999e-30
2.66675e-30
3.76659e-30
5.56616e-30
8.57948e-30
1.32883e-29
1.96262e-29
2.79287e-29
4.16477e-29
6.65311e-29
1.06926e-28
1.74697e-28
2.93018e-28
4.84681e-28
7.6905e-28
1.15882e-27
1.55394e-27
1.66287e-27
1.32963e-27
8.64255e-27
3.87596e-26
6.49105e-26
6.76622e-25
1.78816e-23
5.17237e-22
1.39825e-20
3.52532e-19
8.31496e-18
1.89356e-16
4.40051e-15
9.90325e-14
1.28933e-12
5.23719e-12
1.10858e-11
3.96879e-11
4.24509e-11
4.29463e-11
4.29408e-11
9.9409e-12
7.09946e-13
2.98897e-14
1.07758e-15
4.09385e-17
2.71091e-18
6.02173e-19
3.36481e-20
1.11701e-21
3.96748e-23
1.34745e-24
8.37098e-26
4.72254e-26
2.69212e-26
2.15403e-27
1.33298e-27
1.38379e-27
1.11247e-27
8.15099e-28
5.59957e-28
3.61768e-28
2.22437e-28
1.31914e-28
8.81772e-29
7.10596e-29
5.89132e-29
4.0599e-29
2.48616e-29
1.49845e-29
9.29033e-30
5.99073e-30
4.07493e-30
2.97293e-30
2.18752e-30
1.53763e-30
1.11876e-30
8.39851e-31
7.67605e-31
3.42108e-33
3.54074e-33
4.73901e-33
6.25783e-33
8.59647e-33
1.21519e-32
1.77263e-32
2.71669e-32
4.36299e-32
7.09229e-32
1.11002e-31
1.68203e-31
2.65646e-31
4.48677e-31
7.68837e-31
1.34201e-30
2.40643e-30
4.28007e-30
7.34611e-30
1.13865e-29
1.50224e-29
8.72244e-29
3.68854e-28
8.83263e-28
1.47908e-26
4.36805e-25
1.50942e-23
4.85286e-22
1.43904e-20
3.94638e-19
9.99511e-18
2.32936e-16
5.11849e-15
1.18756e-13
2.06569e-12
1.32919e-11
3.40932e-11
2.14428e-10
8.72932e-10
8.08356e-10
8.23523e-10
9.53302e-10
2.09907e-10
1.83718e-11
9.27531e-13
3.87416e-14
1.66761e-15
5.51436e-16
3.93353e-17
1.42951e-18
5.37631e-20
1.90457e-21
6.26073e-23
1.8984e-24
5.74851e-26
2.81281e-27
4.70136e-28
2.42612e-28
2.70147e-29
1.09556e-29
8.38665e-30
5.42352e-30
3.2378e-30
1.85375e-30
1.04037e-30
6.5766e-31
4.90239e-31
3.68915e-31
2.37571e-31
1.37495e-31
7.86555e-32
4.65177e-32
2.87574e-32
1.887e-32
1.32967e-32
9.46113e-33
6.50468e-33
4.66429e-33
3.45606e-33
3.12582e-33
1.61402e-35
1.69975e-35
2.32204e-35
3.1344e-35
4.40035e-35
6.38884e-35
9.63388e-35
1.53283e-34
2.56853e-34
4.38464e-34
7.26272e-34
1.16963e-33
1.95834e-33
3.50731e-33
6.41484e-33
1.1979e-32
2.30622e-32
4.33246e-32
7.17687e-32
3.77754e-31
1.91403e-30
6.73425e-30
1.40023e-28
4.75319e-27
2.02426e-25
7.96566e-24
2.87293e-22
9.54163e-21
2.91549e-19
8.17849e-18
2.09961e-16
4.96542e-15
1.13611e-13
1.62628e-12
1.03774e-11
9.74449e-11
5.78869e-10
3.7401e-09
1.4549e-08
1.24667e-08
1.2676e-08
1.56058e-08
3.61464e-09
3.67371e-10
2.28517e-11
1.14305e-12
1.48404e-13
2.45899e-14
1.5297e-15
5.66253e-17
2.0808e-18
7.19091e-20
2.28109e-21
6.66692e-23
1.79736e-24
4.43139e-26
1.07059e-27
4.07313e-29
3.12631e-30
1.28374e-30
1.74608e-31
5.42662e-32
3.32714e-32
1.79065e-32
9.43222e-33
5.60334e-33
3.87395e-33
2.6791e-33
1.615e-33
8.83115e-34
4.79281e-34
2.70175e-34
1.59986e-34
1.01138e-34
6.88308e-35
4.74233e-35
3.18615e-35
2.24887e-35
1.64254e-35
1.46727e-35
8.5983e-38
9.21307e-38
1.2827e-37
1.76754e-37
2.54335e-37
3.79622e-37
5.91794e-37
9.78175e-37
1.71119e-36
3.06809e-36
5.37372e-36
9.18655e-36
1.63162e-35
3.10403e-35
6.06791e-35
1.20776e-34
2.32919e-34
5.0902e-34
6.43935e-33
2.50116e-32
6.02849e-31
2.25158e-29
1.2019e-27
5.87197e-26
2.61281e-24
1.06994e-22
4.0311e-21
1.39517e-19
4.42285e-18
1.2805e-16
3.45357e-15
8.21707e-14
1.14637e-12
9.55311e-12
8.35099e-11
1.27373e-09
8.22074e-08
1.47194e-07
1.85523e-07
1.47875e-07
1.48658e-07
1.93867e-07
4.75414e-08
5.56398e-09
4.3937e-10
2.753e-11
2.91136e-12
6.02763e-13
4.47959e-14
1.61602e-15
5.74278e-17
1.90291e-18
5.75873e-20
1.60109e-21
4.10497e-23
9.71557e-25
2.12039e-26
4.23651e-28
8.04376e-30
2.56599e-31
1.35204e-32
4.62284e-33
3.9626e-34
1.83934e-34
9.60161e-35
5.35941e-35
3.44225e-35
2.20286e-35
1.24487e-35
6.43215e-36
3.31171e-36
1.77906e-36
1.00883e-36
6.14097e-37
4.03764e-37
2.6967e-37
1.77044e-37
1.22922e-37
8.84978e-38
7.78803e-38
5.0847e-40
5.54994e-40
7.86254e-40
1.10487e-39
1.62903e-39
2.50398e-39
4.03382e-39
6.929e-39
1.26574e-38
2.38346e-38
4.41095e-38
7.99733e-38
1.50744e-37
3.05106e-37
6.24914e-37
1.21861e-36
4.72919e-36
4.26576e-35
1.14946e-33
4.7659e-32
3.15241e-30
1.90299e-28
1.0327e-26
5.14782e-25
2.35896e-23
9.93406e-22
3.83932e-20
1.35839e-18
4.38797e-17
1.31218e-15
3.71983e-14
6.29261e-13
4.76828e-12
6.41716e-11
5.94735e-10
6.40016e-09
6.03093e-07
2.6032e-06
1.82606e-06
1.35877e-06
1.34942e-06
1.82052e-06
6.02624e-07
1.33688e-07
6.13715e-09
6.01146e-10
5.91357e-11
4.57052e-12
4.22762e-13
2.31998e-14
8.14621e-16
2.5817e-17
7.59022e-19
2.04937e-20
5.09619e-22
1.16996e-23
2.48165e-25
4.85309e-27
8.73184e-29
1.40764e-30
2.13045e-32
6.44905e-34
3.12175e-35
4.54007e-36
9.95158e-37
5.57939e-37
3.38061e-37
2.01012e-37
1.066e-37
5.20612e-38
2.54369e-38
1.30243e-38
7.07336e-39
4.14577e-39
2.63452e-39
1.7073e-39
1.09553e-39
7.48059e-40
5.31173e-40
4.59337e-40
3.28884e-42
3.66215e-42
5.27154e-42
7.549e-42
1.13979e-41
1.8041e-41
3.00584e-41
5.36293e-41
1.02303e-40
2.02269e-40
3.95265e-40
7.59704e-40
1.51902e-39
3.17349e-39
6.49866e-39
2.63344e-38
3.38931e-37
1.9375e-35
1.33005e-33
1.06943e-31
7.49394e-30
4.76454e-28
2.76296e-26
1.45958e-24
7.02265e-23
3.06798e-21
1.21608e-19
4.35526e-18
1.41469e-16
4.39629e-15
1.2731e-13
1.57379e-12
6.69062e-12
7.4007e-11
5.49512e-10
5.20074e-09
5.2781e-07
9.82554e-06
1.36205e-05
9.90852e-06
9.7594e-06
1.64723e-05
1.49378e-05
2.6269e-06
1.60225e-08
1.57138e-09
1.65583e-10
1.39605e-11
1.75519e-12
1.34771e-13
5.21428e-15
1.61935e-16
4.68489e-18
1.23794e-19
2.98033e-21
6.54707e-23
1.31334e-24
2.41359e-26
4.0682e-28
6.28715e-30
8.8581e-32
1.0495e-33
1.47172e-35
2.87276e-37
2.66955e-38
6.0846e-39
3.5268e-39
1.99994e-39
9.97282e-40
4.60475e-40
2.13612e-40
1.04294e-40
5.4267e-41
3.06326e-41
1.88243e-41
1.18464e-41
7.43204e-42
4.99133e-42
3.49909e-42
2.96535e-42
2.2963e-44
2.6143e-44
3.81756e-44
5.56779e-44
8.60456e-44
1.40176e-43
2.41553e-43
4.47593e-43
8.91277e-43
1.84956e-42
3.81493e-42
7.76375e-42
1.60764e-41
3.35268e-41
9.69122e-41
1.68581e-39
1.31952e-37
1.44489e-35
1.32953e-33
1.06294e-31
7.73246e-30
5.15945e-28
3.14248e-26
1.74826e-24
8.85809e-23
4.0812e-21
1.69656e-19
6.33158e-18
2.15785e-16
7.02545e-15
1.83881e-13
2.56813e-12
1.47977e-11
4.6336e-11
4.05911e-10
2.96362e-09
1.38754e-07
1.2939e-05
4.54924e-05
6.21214e-05
6.13729e-05
0.000125518
0.000150299
4.91355e-06
7.68709e-09
7.1392e-10
1.21435e-10
1.64975e-11
3.5005e-12
2.83261e-13
1.00274e-14
2.995e-16
8.43163e-18
2.15943e-19
4.99868e-21
1.05254e-22
2.02534e-24
3.56299e-26
5.73873e-28
8.47163e-30
1.15011e-31
1.43062e-33
1.62798e-35
1.48235e-37
1.87406e-39
1.01028e-40
3.87856e-41
2.08828e-41
1.00354e-41
4.38938e-42
1.93409e-42
9.01e-43
4.49425e-43
2.44445e-43
1.45355e-43
8.88984e-44
5.45511e-44
3.60431e-44
2.49658e-44
2.06972e-44
1.71224e-46
1.99588e-46
2.95325e-46
4.38431e-46
6.93199e-46
1.16167e-45
2.06943e-45
3.9822e-45
8.2725e-45
1.801e-44
3.91805e-44
8.33061e-44
1.71788e-43
4.36506e-43
5.97631e-42
4.23882e-40
6.7504e-38
7.8093e-36
7.66751e-34
6.74148e-32
5.39618e-30
3.92081e-28
2.58794e-26
1.54853e-24
8.37761e-23
4.08352e-21
1.7847e-19
6.95643e-18
2.47301e-16
8.34218e-15
2.27562e-13
3.34176e-12
1.64435e-11
2.733e-11
2.06605e-10
2.06856e-09
5.02703e-07
0.000222911
0.00020528
0.000362216
0.000360205
0.000233881
0.000280526
2.90692e-06
1.92024e-09
1.74012e-10
3.92744e-11
2.67301e-11
4.98507e-12
3.34918e-13
1.20957e-14
3.43016e-16
9.29127e-18
2.30551e-19
5.14341e-21
1.03613e-22
1.8936e-24
3.15134e-26
4.78836e-28
6.65666e-30
8.46673e-32
9.85848e-34
1.04851e-35
9.82538e-38
7.19292e-40
7.56237e-42
5.24244e-43
2.23274e-43
1.05845e-43
4.45276e-44
1.86575e-44
8.29854e-45
3.97116e-45
2.08258e-45
1.19916e-45
7.13316e-46
4.28342e-46
2.78537e-46
1.90779e-46
1.54485e-46
1.35028e-48
1.61347e-48
2.4167e-48
3.65001e-48
5.90131e-48
1.01674e-47
1.87132e-47
3.73768e-47
8.09678e-47
1.84832e-46
4.21282e-46
9.01819e-46
2.12003e-45
1.70962e-44
6.1732e-43
1.63492e-40
2.48093e-38
3.0401e-36
3.30831e-34
3.2525e-32
2.89381e-30
2.32662e-28
1.69036e-26
1.107e-24
6.51522e-23
3.42967e-21
1.60485e-19
6.63301e-18
2.48662e-16
9.23168e-15
2.90865e-13
3.99194e-12
1.78291e-11
3.24818e-11
4.72458e-11
3.88891e-10
7.16643e-07
0.00153815
0.00104808
0.00205759
0.00187809
0.000270241
0.000258287
7.32783e-07
2.09455e-10
3.08144e-11
3.79677e-11
2.41795e-11
4.83589e-12
3.29962e-13
1.1106e-14
3.00309e-16
7.81513e-18
1.85893e-19
3.93999e-21
7.48756e-23
1.28473e-24
1.99966e-26
2.83284e-28
3.66217e-30
4.32514e-32
4.67419e-34
4.62533e-36
4.17787e-38
3.2581e-40
1.94082e-42
3.07022e-44
2.80754e-45
1.11687e-45
4.72342e-46
1.89784e-46
8.06517e-47
3.70575e-47
1.87531e-47
1.04648e-47
6.05937e-48
3.56268e-48
2.28109e-48
1.54595e-48
1.22148e-48
1.11653e-50
1.36884e-50
2.07374e-50
3.18463e-50
5.26228e-50
9.31538e-50
1.77018e-49
3.66742e-49
8.28042e-49
1.97631e-48
4.63548e-48
1.06076e-47
2.74824e-47
2.81667e-46
1.56946e-43
3.97734e-41
6.4929e-39
9.12304e-37
1.13975e-34
1.27312e-32
1.27669e-30
1.15051e-28
9.31888e-27
6.76995e-25
4.40171e-23
2.54846e-21
1.30152e-19
5.81259e-18
2.36542e-16
1.00847e-14
3.49653e-13
4.59139e-12
1.8711e-11
3.03392e-11
1.84708e-11
4.18564e-11
1.75014e-10
0.00240625
0.199962
0.0938202
0.0942189
0.183604
0.000100571
7.76087e-10
1.44603e-11
2.41416e-11
2.85512e-11
1.78857e-11
3.95018e-12
2.77037e-13
8.80259e-15
2.23288e-16
5.49568e-18
1.23485e-19
2.45889e-21
4.36543e-23
6.97086e-25
1.0071e-26
1.3213e-28
1.57868e-30
1.72059e-32
1.71439e-34
1.56352e-36
1.30615e-38
9.96678e-41
6.35933e-43
3.23482e-45
5.79723e-47
1.31027e-47
5.08563e-48
2.01086e-48
8.19639e-49
3.61912e-49
1.76895e-49
9.57535e-50
5.40141e-50
3.11149e-50
1.96261e-50
1.31692e-50
1.0144e-50
9.60527e-53
1.20901e-52
1.85128e-52
2.88909e-52
4.87613e-52
8.86268e-52
1.73755e-51
3.73108e-51
8.77038e-51
2.18052e-50
5.24114e-50
1.23645e-49
3.02478e-49
7.89762e-48
2.39034e-44
7.21201e-42
1.43587e-39
2.39751e-37
3.47542e-35
4.44044e-33
5.04597e-31
5.11509e-29
4.63138e-27
3.7411e-25
2.69206e-23
1.71901e-21
9.63526e-20
4.68506e-18
2.08226e-16
9.90847e-15
3.66869e-13
4.69354e-12
1.77133e-11
2.56457e-11
5.61749e-12
4.83603e-12
7.93995e-11
0.00295202
0.450609
0.438803
0.439379
0.450535
2.64031e-06
1.40923e-11
1.23147e-11
2.43341e-11
2.43545e-11
1.29492e-11
2.70218e-12
1.92592e-13
6.03097e-15
1.44653e-16
3.3497e-18
7.07023e-20
1.31689e-21
2.17693e-23
3.22417e-25
4.30663e-27
5.21099e-29
5.73048e-31
5.74183e-33
5.25143e-35
4.39189e-37
3.36175e-39
2.35885e-41
1.50233e-43
7.48562e-46
3.56035e-48
1.76945e-49
5.66951e-50
2.19136e-50
8.63253e-51
3.66924e-51
1.73401e-51
9.11386e-52
5.01304e-52
2.8312e-52
1.76029e-52
1.17017e-52
8.78045e-53
8.53554e-55
1.10374e-54
1.70711e-54
2.70565e-54
4.6612e-54
8.6919e-54
1.75662e-53
3.90602e-53
9.54641e-53
2.47676e-52
6.15172e-52
5.84976e-52
7.77766e-51
3.02478e-49
1.84183e-46
2.39629e-43
1.45709e-40
3.84855e-38
7.31273e-36
1.13345e-33
1.50982e-31
1.76369e-29
1.82009e-27
1.66168e-25
1.34156e-23
9.55683e-22
5.96173e-20
3.22828e-18
1.58704e-16
7.99905e-15
3.05491e-13
4.11189e-12
1.55288e-11
2.10854e-11
3.77084e-13
3.88028e-13
8.00444e-11
0.00334356
0.451043
0.451043
0.451043
0.451041
3.69803e-05
1.21169e-11
1.23592e-11
3.12717e-11
2.07489e-11
9.5268e-12
1.91277e-12
1.26334e-13
3.61165e-15
8.27215e-17
1.82347e-18
3.605e-20
6.24999e-22
9.59077e-24
1.31417e-25
1.61733e-27
1.79778e-29
1.81247e-31
1.66256e-33
1.39051e-35
1.06191e-37
7.41537e-40
4.73874e-42
2.78091e-44
1.45069e-46
5.43653e-49
4.03184e-51
6.80284e-52
2.41851e-52
9.34297e-53
3.83335e-53
1.75358e-53
8.95903e-54
4.80973e-54
2.66515e-54
1.63438e-54
1.07699e-54
7.86672e-55
7.78387e-57
1.03465e-56
1.61536e-56
2.5985e-56
4.56606e-56
8.728e-56
1.81659e-55
4.17872e-55
1.06171e-54
2.84968e-54
6.83219e-54
2.52145e-54
1.09228e-52
7.77766e-51
1.9071e-48
4.6831e-46
4.90425e-43
3.56778e-40
2.60261e-37
8.70034e-35
1.85232e-32
3.00039e-30
4.00395e-28
4.49148e-26
4.30913e-24
3.57692e-22
2.57234e-20
1.61386e-18
9.05022e-17
4.69068e-15
1.82682e-13
2.82253e-12
1.23001e-11
1.76589e-11
4.10697e-13
4.81043e-13
3.20373e-11
0.0034626
0.450609
0.451043
0.451041
0.450535
0.000130432
1.29945e-11
1.36308e-11
6.79311e-11
2.34157e-11
8.50888e-12
1.43235e-12
7.58771e-14
1.83432e-15
4.03505e-17
8.45095e-19
1.54938e-20
2.4736e-22
3.48719e-24
4.38121e-26
4.93275e-28
5.00499e-30
4.5988e-32
3.84072e-34
2.92234e-36
2.02871e-38
1.28747e-40
7.47692e-43
3.97942e-45
1.95201e-47
8.01311e-50
2.43179e-52
8.93448e-54
2.7472e-54
1.03045e-54
4.09787e-55
1.81745e-55
9.03628e-56
4.73966e-56
2.57887e-56
1.56087e-56
1.02019e-56
7.2491e-57
7.24063e-59
9.89834e-59
1.55905e-58
2.54366e-58
4.55536e-58
8.91752e-58
1.90945e-57
4.53856e-57
1.19815e-56
3.32848e-56
7.12835e-56
3.12019e-56
1.13165e-54
1.09228e-52
3.08478e-50
8.64095e-48
2.20064e-45
5.12399e-43
1.10574e-40
3.41956e-37
2.8134e-34
1.0176e-31
2.42457e-29
4.43201e-27
6.32151e-25
6.92389e-23
6.25651e-21
4.8453e-19
3.48586e-17
2.238e-15
8.02553e-14
1.38657e-12
7.96337e-12
1.3432e-11
8.13636e-13
9.10169e-13
6.00773e-12
0.00287266
0.395576
0.443908
0.443661
0.391608
0.000268252
1.16999e-11
1.42642e-11
8.43839e-11
3.14186e-11
7.51703e-12
9.14013e-13
3.58627e-14
7.77089e-16
1.57371e-17
2.98949e-19
5.01929e-21
7.36349e-23
9.45381e-25
1.06917e-26
1.08138e-28
9.86558e-31
8.15499e-33
6.13429e-35
4.20934e-37
2.64037e-39
1.51695e-41
7.989e-44
3.85725e-46
1.71492e-48
7.01294e-51
2.0966e-53
1.50763e-55
3.2397e-56
1.15057e-56
4.45417e-57
1.91869e-57
9.29557e-58
4.76867e-58
2.54994e-58
1.52432e-58
9.8878e-59
6.8308e-59
6.83185e-61
9.60996e-61
1.52612e-60
2.52358e-60
4.60198e-60
9.21648e-60
2.02791e-59
4.97388e-59
1.3605e-58
3.94035e-58
8.7853e-58
3.8972e-58
1.16719e-56
1.13165e-54
3.43739e-52
1.07188e-49
3.03231e-47
7.81991e-45
1.85477e-42
4.08159e-40
6.07103e-37
5.21658e-34
2.68714e-31
9.66485e-29
2.87145e-26
6.79046e-24
9.30512e-22
9.98186e-20
1.16418e-17
1.51854e-15
5.38256e-14
4.84436e-13
3.32696e-12
7.43196e-12
4.28867e-13
-2.26429e-14
-2.45819e-10
0.00147221
0.0503983
0.119358
0.118447
0.0478414
0.000368964
8.90985e-12
9.53339e-12
4.51374e-11
2.80151e-11
5.41479e-12
5.42735e-13
2.52301e-14
5.33819e-16
8.70983e-18
1.4949e-19
2.36321e-21
3.23281e-23
3.89961e-25
4.21529e-27
4.05887e-29
3.49672e-31
2.71535e-33
1.90777e-35
1.21537e-37
7.03756e-40
3.70962e-42
1.78259e-44
7.80866e-47
3.11492e-49
1.13283e-51
3.66488e-54
1.05344e-56
4.07301e-58
1.29479e-58
4.89124e-59
2.05152e-59
9.69858e-60
4.87172e-60
2.5625e-60
1.51404e-60
9.75245e-61
6.54667e-61
6.50437e-63
9.4186e-63
1.5072e-62
2.52402e-62
4.68245e-62
9.58298e-62
2.16393e-61
5.46869e-61
1.54635e-60
4.67703e-60
1.18258e-59
4.96014e-60
1.43431e-58
1.16719e-56
3.64426e-54
1.24012e-51
4.00853e-49
1.17794e-46
1.8915e-43
1.79449e-40
6.67259e-38
1.9329e-35
5.23654e-33
1.4555e-30
5.28585e-28
4.93013e-25
1.44839e-22
2.50628e-20
5.26547e-18
1.10632e-15
4.80709e-14
3.34206e-13
9.64579e-13
2.15928e-12
3.74723e-13
-2.52432e-14
2.03651e-07
0.000425666
3.5415e-13
3.19955e-13
2.28084e-13
1.81993e-11
0.000366702
8.1935e-12
8.1935e-12
2.42849e-11
1.66754e-11
3.21619e-12
3.92857e-13
2.11094e-14
4.42825e-16
7.26501e-18
1.24166e-19
1.90175e-21
2.51156e-23
2.91201e-25
3.00083e-27
2.74834e-29
2.24592e-31
1.64736e-33
1.08818e-35
6.49287e-38
3.50803e-40
1.7201e-42
7.65832e-45
3.09546e-47
1.13521e-49
3.77238e-52
1.13736e-54
2.88621e-57
9.34002e-60
1.48512e-60
5.38711e-61
2.20984e-61
1.02104e-61
5.02791e-62
2.60395e-62
1.52183e-62
9.7397e-63
6.34978e-63
6.21778e-65
9.27305e-65
1.49439e-64
2.53237e-64
4.77432e-64
9.97269e-64
2.30782e-63
5.9996e-63
1.75036e-62
5.51236e-62
1.56361e-61
1.07564e-61
2.09097e-60
1.43431e-58
6.68771e-55
5.78482e-52
2.89168e-49
1.12313e-46
3.87265e-44
1.29419e-41
3.51527e-39
8.32107e-37
1.98112e-34
4.773e-32
1.35498e-29
2.02796e-26
1.54498e-23
5.48383e-21
2.3808e-18
6.44206e-16
3.97187e-14
3.35954e-13
8.23029e-13
6.38227e-13
1.46759e-13
0
6.62723e-08
7.67187e-13
3.47997e-13
2.2843e-13
2.28439e-13
6.60061e-08
0.000147391
8.23742e-12
8.19232e-12
2.27241e-11
1.01225e-11
2.22288e-12
3.06483e-13
1.5632e-14
3.21181e-16
5.52983e-18
9.34231e-20
1.37062e-21
1.72173e-23
1.87371e-25
1.7819e-27
1.49827e-29
1.12017e-31
7.4799e-34
4.48347e-36
2.42409e-38
1.18548e-40
5.25961e-43
2.11748e-45
7.73582e-48
2.56491e-50
7.71041e-53
2.10465e-55
5.03462e-58
7.87951e-61
1.77953e-62
5.95019e-63
2.38619e-63
1.0794e-63
5.21733e-64
2.66316e-64
1.54076e-64
9.80315e-65
6.20379e-65
5.94051e-67
9.12893e-67
1.4806e-66
2.53674e-66
4.8548e-66
1.03358e-65
2.44732e-65
6.5337e-65
1.96408e-64
6.41637e-64
1.97832e-63
5.72965e-63
3.15123e-61
1.55974e-58
7.5304e-56
3.25626e-53
1.37878e-50
5.62337e-48
1.91455e-45
5.23891e-43
1.38432e-40
3.38404e-38
8.55221e-36
2.232e-33
6.40813e-31
5.08784e-28
6.5012e-25
5.36948e-22
6.01787e-19
2.75402e-16
2.4187e-14
3.29795e-13
8.17188e-13
6.39343e-13
1.73687e-13
3.26283e-15
9.62363e-15
2.88645e-12
2.47574e-12
1.02538e-12
2.30957e-13
2.56618e-13
3.42619e-13
4.77777e-09
8.94292e-12
2.15142e-11
7.81898e-12
1.73648e-12
2.16501e-13
9.01567e-15
1.75267e-16
3.08844e-18
4.99367e-20
6.8342e-22
7.92774e-24
7.86198e-26
6.73698e-28
5.08058e-30
3.39784e-32
2.02392e-34
1.07983e-36
5.18686e-39
2.25087e-41
8.8337e-44
3.14431e-46
1.01689e-48
2.99096e-51
7.98757e-54
1.93397e-56
4.25899e-59
7.28763e-62
2.81253e-64
6.60035e-65
2.57168e-65
1.14073e-65
5.41915e-66
2.72928e-66
1.56441e-66
9.90103e-67
6.07874e-67
5.64873e-69
8.94634e-69
1.45926e-68
2.5256e-68
4.8994e-68
1.06105e-67
2.56403e-67
7.00562e-67
2.16063e-66
7.27015e-66
2.36705e-65
9.61834e-65
9.46812e-63
6.59601e-60
2.91267e-57
1.01676e-54
3.5161e-52
1.28565e-49
4.13772e-47
1.29337e-44
4.08118e-42
1.21287e-39
3.76642e-37
1.25628e-34
4.1336e-32
1.63943e-29
1.22743e-26
1.60154e-23
1.25273e-19
1.21159e-16
9.80052e-15
2.03207e-13
7.48377e-13
6.65827e-13
2.87774e-13
2.89309e-14
1.6921e-14
1.7207e-11
2.21465e-11
5.84123e-12
4.95895e-13
5.40645e-13
8.78203e-12
3.8995e-09
8.84322e-12
2.06984e-11
6.39443e-12
1.29451e-12
1.23851e-13
4.03709e-15
7.38281e-17
1.25758e-18
1.8905e-20
2.38635e-22
2.54394e-24
2.31758e-26
1.82855e-28
1.26589e-30
7.75098e-33
4.22501e-35
2.0615e-37
9.04659e-40
3.58416e-42
1.28322e-44
4.15041e-47
1.21541e-49
3.22294e-52
7.71588e-55
1.66394e-57
3.23692e-60
5.72683e-63
1.00787e-65
7.30148e-67
2.75626e-67
1.19989e-67
5.61046e-68
2.79128e-68
1.58639e-68
9.99265e-69
5.94958e-69
5.32247e-71
8.69159e-71
1.42467e-70
2.48754e-70
4.88319e-70
1.07348e-69
2.64086e-69
7.36535e-69
2.3252e-68
8.03677e-68
2.71632e-67
1.25792e-66
1.93296e-64
9.45313e-62
4.15482e-59
1.68535e-56
6.42027e-54
2.40476e-51
8.57005e-49
3.13198e-46
1.17832e-43
3.82625e-41
1.27401e-38
4.29521e-36
1.40584e-33
3.34816e-31
1.44107e-28
1.61234e-25
6.80114e-20
6.55696e-17
3.56567e-15
5.72341e-14
4.45225e-13
4.99504e-13
3.04795e-13
6.3456e-14
1.91267e-14
4.07223e-11
5.80818e-11
1.71798e-11
1.38064e-12
5.21692e-12
1.0184e-10
1.29764e-09
8.8299e-12
2.42282e-11
5.62473e-12
9.32585e-13
5.76115e-14
1.49419e-15
2.72641e-17
4.46332e-19
6.23934e-21
7.29405e-23
7.19405e-25
6.06716e-27
4.42837e-29
2.82074e-31
1.58211e-33
7.8729e-36
3.49785e-38
1.39565e-40
5.02131e-43
1.6326e-45
4.79177e-48
1.27315e-50
3.06121e-53
6.65068e-56
1.29911e-58
2.2752e-61
3.61867e-64
5.09056e-67
8.26484e-69
2.92494e-69
1.25146e-69
5.76772e-70
2.83817e-70
1.60056e-70
1.00377e-70
5.79533e-71
4.94963e-73
8.34161e-73
1.37292e-72
2.41579e-72
4.79282e-72
1.06781e-71
2.66917e-71
7.58263e-71
2.44433e-70
8.65338e-70
3.00557e-69
1.46392e-68
2.60757e-66
1.23009e-63
5.24731e-61
1.8686e-58
6.56693e-56
2.31208e-53
8.26746e-51
2.85406e-48
1.19043e-45
4.66957e-43
2.34362e-40
3.73838e-37
2.67358e-34
2.66362e-31
1.2743e-28
1.184e-25
3.43405e-20
3.29256e-17
1.47398e-15
1.18931e-14
9.67328e-14
1.90262e-13
1.55221e-13
4.54126e-14
5.20931e-14
5.46447e-11
8.40943e-11
3.13879e-11
2.36372e-12
1.69526e-11
2.00667e-10
4.34044e-10
1.39963e-11
2.58348e-11
8.50407e-12
6.58735e-13
2.50016e-14
5.28313e-16
9.80647e-18
1.55164e-19
2.03018e-21
2.20174e-23
2.00856e-25
1.56272e-27
1.04859e-29
6.13021e-32