/*--------------------------------*- C++ -*----------------------------------*\
| =========                 |                                                 |
| \\      /  F ield         | OpenFOAM: The Open Source CFD Toolbox           |
|  \\    /   O peration     | Version:  2412                                  |
|   \\  /    A nd           | Website:  www.openfoam.com                      |
|    \\/     M anipulation  |                                                 |
\*---------------------------------------------------------------------------*/
FoamFile
{
    version     2.0;
    format      ascii;
    arch        "LSB;label=32;scalar=64";
    class       surfaceScalarField;
    location    "6";
    object      alphaPhi0.lava;
}
// * * * * * * * * * * * * * * * * * * * * * * * * * * * * * * * * * * * * * //

dimensions      [0 3 -1 0 0 0 0];

oriented        oriented;

internalField   nonuniform List<scalar> 
12640
(
-1.76395e-08
1.33243e-08
-2.98069e-08
4.50268e-08
-1.57106e-08
4.94546e-08
2.46729e-08
1.08741e-08
6.54852e-08
-5.60692e-08
7.04199e-08
-1.08531e-07
2.31025e-08
-1.01693e-07
-5.54833e-08
-2.33629e-08
-1.15661e-07
8.96524e-08
-1.10693e-07
1.6832e-07
-3.12351e-08
1.54172e-07
8.20366e-08
4.12906e-08
1.59454e-07
-1.1218e-07
1.46086e-07
-2.14541e-07
4.01734e-08
-1.96755e-07
-1.00443e-07
-5.90304e-08
-1.90837e-07
1.23649e-07
-1.71568e-07
2.43531e-07
-4.8009e-08
2.25371e-07
1.09706e-07
7.43431e-08
2.07722e-07
-1.24173e-07
1.8568e-07
-2.54293e-07
5.4459e-08
-2.38941e-07
-1.09467e-07
-8.63596e-08
-2.09864e-07
1.14723e-07
-1.88512e-07
2.48062e-07
-5.94683e-08
2.3856e-07
1.00578e-07
9.51673e-08
1.99005e-07
-9.67901e-08
1.81883e-07
-2.27531e-07
6.37026e-08
-2.26717e-07
-8.42023e-08
-1.0141e-07
-1.77597e-07
7.22942e-08
-1.68005e-07
1.96319e-07
-6.75958e-08
2.06647e-07
6.22161e-08
1.0599e-07
1.48912e-07
-4.32959e-08
1.49703e-07
-1.5829e-07
7.18725e-08
-1.81811e-07
-3.63704e-08
-1.09948e-07
-1.16044e-07
1.16918e-08
-1.2947e-07
1.1704e-07
-7.69317e-08
1.55271e-07
8.51841e-09
1.14063e-07
8.18677e-08
2.07363e-08
1.09443e-07
-7.56197e-08
8.29743e-08
-1.29432e-07
1.96833e-08
-1.18741e-07
-4.8687e-08
-5.2417e-08
-9.10649e-08
3.63322e-08
-8.97475e-08
1.05737e-07
-4.66276e-08
1.23705e-07
1.82649e-08
8.17231e-08
7.50345e-08
-9.00066e-10
9.64876e-08
-8.47711e-08
7.06973e-08
-1.28042e-07
8.0981e-09
-1.06963e-07
-6.14427e-08
-2.94825e-08
-1.02046e-07
6.6326e-08
-9.03682e-08
1.30231e-07
-2.96412e-08
1.26342e-07
4.96616e-08
5.3995e-08
1.04743e-07
-4.9639e-08
1.03974e-07
-1.28415e-07
4.57665e-08
-1.38163e-07
-3.89169e-08
-7.22617e-08
-1.03116e-07
3.35518e-08
-1.1059e-07
1.20823e-07
-5.70253e-08
1.41499e-07
2.72325e-08
8.51345e-08
9.49263e-08
-1.5888e-08
1.09495e-07
-1.05861e-07
6.57706e-08
-1.37715e-07
-8.73809e-09
-9.80297e-08
-7.25159e-08
-1.0993e-08
-9.56774e-08
7.84701e-08
-7.65118e-08
1.29792e-07
-3.85072e-08
1.25995e-07
-6.82811e-09
7.92992e-08
1.52722e-08
1.11659e-08
-2.01954e-08
-2.51087e-08
1.64366e-08
-4.68857e-08
5.52048e-08
-3.27324e-08
5.6753e-08
1.84767e-08
1.21468e-08
7.25915e-08
-5.86004e-08
8.69649e-08
-1.09371e-07
4.11593e-08
-9.75902e-08
-4.41255e-08
-1.68123e-08
-1.15839e-07
9.17534e-08
-1.21989e-07
1.60349e-07
-4.85457e-08
1.37617e-07
6.61309e-08
2.57216e-08
1.51707e-07
-1.14729e-07
1.50012e-07
-1.98436e-07
5.4579e-08
-1.68469e-07
-8.13396e-08
-3.48984e-08
-1.75435e-07
1.2717e-07
-1.67433e-07
2.21113e-07
-5.81498e-08
1.8784e-07
8.90356e-08
4.34397e-08
1.86087e-07
-1.28802e-07
1.74216e-07
-2.27812e-07
6.00528e-08
-1.95401e-07
-8.84618e-08
-5.10131e-08
-1.83631e-07
1.20505e-07
-1.70897e-07
2.20013e-07
-6.05198e-08
1.92531e-07
8.05533e-08
5.78796e-08
1.70237e-07
-1.03664e-07
1.59928e-07
-2.00242e-07
6.08635e-08
-1.81455e-07
-6.5958e-08
-6.44322e-08
-1.48046e-07
8.02338e-08
-1.43383e-07
1.71813e-07
-6.15251e-08
1.64871e-07
4.64336e-08
7.11144e-08
1.20166e-07
-5.23359e-08
1.24008e-07
-1.38152e-07
6.33266e-08
-1.45516e-07
-2.34508e-08
-7.83837e-08
-8.93119e-08
2.19488e-08
-1.03982e-07
1.02363e-07
-6.65686e-08
1.25668e-07
-1.3274e-09
8.63843e-08
5.7973e-08
9.02722e-09
8.50327e-08
-6.70658e-08
7.12088e-08
-1.07029e-07
2.62356e-08
-9.49833e-08
-2.82786e-08
-3.89409e-08
-6.83958e-08
3.41687e-08
-7.69202e-08
9.04459e-08
-4.98124e-08
1.03468e-07
1.65797e-09
6.61201e-08
5.4378e-08
-5.07872e-09
8.25996e-08
-7.60807e-08
7.02175e-08
-1.10683e-07
2.04569e-08
-8.89513e-08
-4.31766e-08
-1.93011e-08
-8.72676e-08
6.34632e-08
-8.61917e-08
1.15093e-07
-3.76558e-08
1.05898e-07
3.378e-08
3.85372e-08
8.88714e-08
-5.15659e-08
9.57312e-08
-1.14857e-07
4.90195e-08
-1.15537e-07
-2.57515e-08
-5.25519e-08
-8.63449e-08
3.91589e-08
-9.84415e-08
1.0848e-07
-5.59278e-08
1.17475e-07
1.58271e-08
6.27856e-08
7.58164e-08
-2.35482e-08
9.24582e-08
-9.37354e-08
6.15296e-08
-1.11797e-07
5.80495e-09
-7.24147e-08
-4.35978e-08
-1.47127e-09
-6.9895e-08
6.0532e-08
-7.28257e-08
8.41519e-08
-7.00114e-08
7.38266e-08
4.60444e-08
5.60749e-08
-4.33899e-08
1.6309e-08
-2.64651e-08
-4.11859e-08
2.52961e-08
-8.07446e-08
7.26986e-08
-6.4184e-08
8.31163e-08
6.86898e-09
3.60698e-08
9.0998e-08
-4.98851e-08
1.29388e-07
-1.223e-07
8.61428e-08
-1.27724e-07
-2.25725e-08
-5.00975e-08
-1.3277e-07
7.22886e-08
-1.71216e-07
1.65713e-07
-1.04441e-07
1.66508e-07
3.49218e-08
6.43694e-08
1.64201e-07
-8.59921e-08
2.01125e-07
-1.95002e-07
1.17007e-07
-1.93014e-07
-4.21728e-08
-7.53923e-08
-1.81759e-07
9.15944e-08
-2.16245e-07
2.09276e-07
-1.22655e-07
2.06378e-07
4.43878e-08
8.29655e-08
1.85634e-07
-8.89578e-08
2.17622e-07
-2.0868e-07
1.22892e-07
-2.07111e-07
-4.06745e-08
-8.73075e-08
-1.76221e-07
7.89434e-08
-2.06496e-07
1.95193e-07
-1.18504e-07
1.97372e-07
3.19361e-08
8.93965e-08
1.56302e-07
-6.25658e-08
1.8638e-07
-1.71435e-07
1.11854e-07
-1.79857e-07
-1.82541e-08
-9.02396e-08
-1.28171e-07
4.13173e-08
-1.60086e-07
1.4062e-07
-1.0426e-07
1.57591e-07
8.66839e-10
9.08636e-08
9.50464e-08
-1.67504e-08
1.30983e-07
-1.0589e-07
9.73083e-08
-1.33386e-07
1.92294e-08
-9.21026e-08
-5.97005e-08
-9.62225e-09
-1.01789e-07
7.00157e-08
-9.20015e-08
1.09489e-07
-4.08704e-08
9.4344e-08
2.45131e-08
3.62584e-08
7.44238e-08
-3.53366e-08
8.85287e-08
-8.74965e-08
6.24198e-08
-9.75245e-08
8.13388e-09
-6.16683e-08
-5.05466e-08
3.60821e-09
-8.69498e-08
6.81803e-08
-8.26159e-08
1.00925e-07
-3.68423e-08
8.42e-08
3.04321e-08
2.37771e-08
8.59439e-08
-5.16815e-08
9.91617e-08
-1.03329e-07
5.96089e-08
-1.02117e-07
-1.47499e-08
-4.57569e-08
-8.47553e-08
3.76673e-08
-1.10803e-07
1.03262e-07
-7.60071e-08
1.13859e-07
2.28553e-09
6.18369e-08
8.08034e-08
-2.51176e-08
1.14806e-07
-9.87719e-08
8.44812e-08
-1.17781e-07
7.10689e-09
-7.16908e-08
-7.29947e-08
1.29615e-08
-1.10812e-07
8.83572e-08
-8.70346e-08
1.13357e-07
-1.80401e-08
7.67713e-08
5.61012e-08
2.13584e-09
9.69242e-08
-6.79591e-08
8.79897e-08
-9.76536e-08
3.93953e-08
-7.75943e-08
-2.80485e-08
-2.78294e-08
-8.39414e-08
2.18669e-08
-1.1033e-07
6.13342e-08
7.156e-08
7.45488e-08
-3.51275e-08
6.17463e-08
-5.99432e-08
6.18235e-09
-3.56225e-08
-7.04468e-08
2.99991e-08
-1.13694e-07
1.01149e-07
-8.32007e-08
1.22542e-07
1.53073e-08
6.3577e-08
1.24233e-07
-5.25206e-08
1.68376e-07
-1.57079e-07
1.06631e-07
-1.77632e-07
-3.44323e-08
-8.77051e-08
-1.70975e-07
6.91955e-08
-2.13088e-07
2.00631e-07
-1.24556e-07
2.21221e-07
4.89004e-08
1.08713e-07
2.0386e-07
-7.70239e-08
2.42579e-07
-2.26794e-07
1.35667e-07
-2.48052e-07
-5.6693e-08
-1.23164e-07
-2.19824e-07
7.73023e-08
-2.54718e-07
2.35726e-07
-1.39261e-07
2.58211e-07
5.79602e-08
1.31334e-07
2.19718e-07
-7.00405e-08
2.51442e-07
-2.2822e-07
1.37461e-07
-2.52997e-07
-5.18111e-08
-1.33902e-07
-2.04478e-07
5.62778e-08
-2.34657e-07
2.07044e-07
-1.3134e-07
2.35567e-07
3.94622e-08
1.32559e-07
1.77634e-07
-3.69597e-08
2.08593e-07
-1.75371e-07
1.23527e-07
-2.09463e-07
-2.13274e-08
-1.28949e-07
-1.42174e-07
1.34855e-08
-1.76677e-07
1.36911e-07
-1.15523e-07
1.78493e-07
-1.07147e-09
1.24755e-07
1.01795e-07
1.27948e-08
1.4258e-07
-9.50719e-08
1.08811e-07
-1.45972e-07
2.62712e-08
-1.21213e-07
-5.98356e-08
-4.04637e-08
-1.09381e-07
5.28498e-08
-1.04403e-07
1.14511e-07
-5.28736e-08
1.18978e-07
1.88725e-08
6.80127e-08
7.89085e-08
-1.27331e-08
1.02055e-07
-8.58659e-08
7.86459e-08
-1.18004e-07
1.82294e-08
-9.38049e-08
-5.29977e-08
-2.33257e-08
-1.01716e-07
6.08939e-08
-1.02142e-07
1.17465e-07
-5.00906e-08
1.15946e-07
3.15524e-08
5.37354e-08
1.01424e-07
-3.97182e-08
1.2042e-07
-1.15863e-07
7.43255e-08
-1.32293e-07
-1.52814e-08
-7.71174e-08
-1.00276e-07
2.2071e-08
-1.32182e-07
1.11548e-07
-9.07953e-08
1.41035e-07
2.3354e-09
9.28834e-08
9.49494e-08
-6.72858e-09
1.34191e-07
-1.02101e-07
9.78699e-08
-1.39996e-07
7.63403e-09
-1.00351e-07
-8.43151e-08
-7.33555e-09
-1.26601e-07
8.57818e-08
-9.84332e-08
1.28298e-07
-1.94571e-08
1.00766e-07
6.45869e-08
2.36461e-08
1.09155e-07
-5.786e-08
9.27429e-08
-1.02152e-07
2.25036e-08
-9.3286e-08
-6.06316e-08
-4.335e-08
-1.09234e-07
2.98256e-08
7.53084e-08
4.32913e-08
1.04071e-08
7.81715e-08
-5.22134e-08
6.90927e-08
-8.80211e-08
2.01272e-10
-5.52494e-08
-9.29978e-08
3.53749e-08
-1.42567e-07
1.28718e-07
-1.00524e-07
1.55847e-07
2.06988e-08
8.29485e-08
1.49169e-07
-5.90411e-08
1.97455e-07
-1.86437e-07
1.22275e-07
-2.13237e-07
-4.08793e-08
-1.09182e-07
-1.9433e-07
7.39121e-08
-2.38342e-07
2.28294e-07
-1.36737e-07
2.55519e-07
5.56354e-08
1.3016e-07
2.2352e-07
-7.97474e-08
2.62175e-07
-2.50798e-07
1.43854e-07
-2.78748e-07
-6.29632e-08
-1.43296e-07
-2.34587e-07
7.78044e-08
-2.67954e-07
2.54797e-07
-1.43653e-07
2.83959e-07
6.30198e-08
1.4954e-07
2.29032e-07
-6.80164e-08
2.58471e-07
-2.41551e-07
1.3878e-07
-2.73097e-07
-5.50054e-08
-1.49944e-07
-2.08372e-07
5.15889e-08
-2.36274e-07
2.14446e-07
-1.30634e-07
2.50024e-07
4.02445e-08
1.46593e-07
1.7649e-07
-2.95226e-08
2.0587e-07
-1.7704e-07
1.21823e-07
-2.18691e-07
-1.94708e-08
-1.4133e-07
-1.36786e-07
3.35656e-09
-1.70982e-07
1.33391e-07
-1.13895e-07
1.83268e-07
-5.70154e-09
1.35976e-07
9.30009e-08
2.5497e-08
1.35104e-07
-8.70641e-08
1.07978e-07
-1.47133e-07
3.34144e-08
-1.31709e-07
-4.87181e-08
-5.54454e-08
-1.01335e-07
4.1207e-08
-1.04943e-07
1.1292e-07
-6.21667e-08
1.29044e-07
6.39632e-09
8.47963e-08
7.11115e-08
1.60841e-09
1.04004e-07
-8.22761e-08
8.92461e-08
-1.27671e-07
3.08592e-08
-1.11633e-07
-4.62413e-08
-3.9301e-08
-1.0495e-07
5.59623e-08
-1.13137e-07
1.26507e-07
-6.18535e-08
1.33824e-07
2.61864e-08
7.02254e-08
1.0528e-07
-3.39129e-08
1.30477e-07
-1.23716e-07
8.40281e-08
-1.48909e-07
-1.16211e-08
-9.28627e-08
-1.04035e-07
1.58025e-08
-1.40088e-07
1.175e-07
-9.76138e-08
1.55006e-07
2.04015e-10
1.06739e-07
9.75127e-08
-1.02209e-10
1.38626e-07
-1.05033e-07
1.01037e-07
-1.49519e-07
8.27498e-09
-1.10771e-07
-8.52103e-08
-1.38384e-08
-1.27065e-07
8.48258e-08
-9.7138e-08
1.31419e-07
-1.6792e-08
1.05221e-07
6.54659e-08
2.74111e-08
1.02004e-07
-5.48688e-08
7.02609e-08
-9.72094e-08
-3.81783e-09
-8.03347e-08
-6.41721e-08
-1.38984e-08
4.63544e-08
-3.1235e-08
6.57026e-08
4.18476e-08
-1.05729e-10
1.00539e-07
-8.76425e-08
9.14024e-08
-1.21576e-07
5.6311e-10
-7.45596e-08
-1.15283e-07
3.85948e-08
-1.73316e-07
1.51926e-07
-1.21159e-07
1.86345e-07
2.19681e-08
1.04134e-07
1.70874e-07
-5.82992e-08
2.26478e-07
-2.05617e-07
1.42186e-07
-2.41005e-07
-4.01908e-08
-1.30359e-07
-2.11495e-07
6.97545e-08
-2.62428e-07
2.4166e-07
-1.54359e-07
2.77789e-07
5.27189e-08
1.49199e-07
2.34723e-07
-7.28731e-08
2.79804e-07
-2.57791e-07
1.58355e-07
-2.94409e-07
-5.78096e-08
-1.59225e-07
-2.39359e-07
6.87278e-08
-2.78702e-07
2.55522e-07
-1.54885e-07
2.92898e-07
5.56364e-08
1.62126e-07
2.27492e-07
-5.7113e-08
2.62619e-07
-2.36531e-07
1.46952e-07
-2.75811e-07
-4.55981e-08
-1.59355e-07
-2.01255e-07
3.92673e-08
-2.34801e-07
2.04597e-07
-1.36385e-07
2.47527e-07
2.8956e-08
1.53349e-07
1.64696e-07
-1.61024e-08
1.99885e-07
-1.63403e-07
1.25747e-07
-2.12152e-07
-6.67484e-09
-1.46042e-07
-1.21516e-07
-1.08239e-08
-1.61852e-07
1.17071e-07
-1.1674e-07
1.73921e-07
-1.97282e-08
1.39292e-07
7.53245e-08
4.01475e-08
1.23968e-07
-6.90642e-08
1.10201e-07
-1.36044e-07
4.814e-08
-1.34094e-07
-2.9834e-08
-7.01765e-08
-8.93232e-08
2.24811e-08
-1.06944e-07
1.00969e-07
-7.708e-08
1.30746e-07
-1.26935e-08
9.9092e-08
5.89889e-08
2.01644e-08
1.05745e-07
-7.01126e-08
1.03486e-07
-1.28635e-07
4.8995e-08
-1.24757e-07
-3.47378e-08
-5.67486e-08
-1.06286e-07
4.41016e-08
-1.25817e-07
1.26473e-07
-7.80409e-08
1.449e-07
1.56906e-08
8.56519e-08
1.05672e-07
-2.26796e-08
1.40421e-07
-1.22161e-07
9.71566e-08
-1.56844e-07
-2.51535e-09
-1.05248e-07
-1.02952e-07
5.54381e-09
-1.46247e-07
1.1391e-07
-1.06813e-07
1.58759e-07
-7.32799e-09
1.15157e-07
9.44179e-08
8.95266e-09
1.40078e-07
-9.87164e-08
1.05339e-07
-1.47677e-07
1.33524e-08
-1.13567e-07
-8.07718e-08
-2.03818e-08
-1.23727e-07
7.61254e-08
-9.49755e-08
1.22697e-07
-1.69582e-08
9.90509e-08
5.95361e-08
2.67885e-08
8.70431e-08
-4.60715e-08
5.60335e-08
-7.61553e-08
4.96604e-09
-5.17461e-08
-3.78736e-09
-1.0659e-07
8.8959e-08
-3.50781e-08
6.56352e-08
6.80227e-08
-2.2604e-08
1.39326e-07
-1.12081e-07
1.14263e-07
-1.50267e-07
-1.4041e-09
-9.46461e-08
-1.38489e-07
3.82268e-08
-2.03241e-07
1.71771e-07
-1.40646e-07
2.15698e-07
2.32076e-08
1.27505e-07
1.90819e-07
-5.24724e-08
2.52836e-07
-2.19075e-07
1.60212e-07
-2.65585e-07
-3.91991e-08
-1.53106e-07
-2.26073e-07
5.96018e-08
-2.83051e-07
2.47673e-07
-1.69735e-07
2.9556e-07
4.93779e-08
1.69458e-07
2.42987e-07
-5.94221e-08
2.93703e-07
-2.56445e-07
1.7057e-07
-3.04789e-07
-5.21453e-08
-1.76113e-07
-2.41187e-07
5.28759e-08
-2.85901e-07
2.47521e-07
-1.64092e-07
2.96207e-07
4.76307e-08
1.75417e-07
2.23206e-07
-3.96416e-08
2.63657e-07
-2.22947e-07
1.53488e-07
-2.72908e-07
-3.55279e-08
-1.69192e-07
-1.91787e-07
2.09313e-08
-2.30836e-07
1.8678e-07
-1.40966e-07
2.39671e-07
1.70033e-08
1.60214e-07
1.51036e-07
2.50649e-09
1.92086e-07
-1.42689e-07
1.28944e-07
-2.00659e-07
6.7144e-09
-1.50468e-07
-1.04916e-07
-2.91737e-08
-1.51563e-07
9.47281e-08
-1.19221e-07
1.60056e-07
-3.41958e-08
1.4183e-07
5.68714e-08
5.78098e-08
1.1226e-07
-4.61753e-08
1.12307e-07
-1.20845e-07
6.30684e-08
-1.35115e-07
-1.07193e-08
-8.66766e-08
-7.7223e-08
1.15087e-11
-1.08921e-07
8.5254e-08
-9.18435e-08
1.30411e-07
-3.14487e-08
1.13872e-07
4.71821e-08
4.13411e-08
1.07445e-07
-5.44703e-08
1.17156e-07
-1.26843e-07
6.62603e-08
-1.37076e-07
-2.38424e-08
-7.57248e-08
-1.07432e-07
2.90248e-08
-1.3743e-07
1.22987e-07
-9.28238e-08
1.53946e-07
6.04483e-09
1.01568e-07
1.05693e-07
-8.51164e-09
1.48826e-07
-1.16556e-07
1.08425e-07
-1.61635e-07
5.55786e-09
-1.17101e-07
-1.01333e-07
-7.24012e-09
-1.5046e-07
1.05888e-07
-1.13663e-07
1.58393e-07
-1.3397e-08
1.21908e-07
9.10283e-08
1.97084e-08
1.39456e-07
-8.81141e-08
1.06619e-07
-1.41002e-07
1.58093e-08
-1.13214e-07
-7.71996e-08
-2.68122e-08
-1.18834e-07
6.4527e-08
-8.94292e-08
1.0945e-07
-1.34506e-08
8.92771e-08
5.9061e-08
2.66145e-08
8.48044e-08
-3.39051e-08
6.46745e-08
-6.25937e-08
-4.82205e-08
-1.29144e-07
5.41749e-08
-1.05727e-07
9.74373e-08
-1.75892e-08
7.02512e-08
1.01585e-07
-2.05954e-08
1.70202e-07
-1.29586e-07
1.31978e-07
-1.78053e-07
-4.33989e-09
-1.15898e-07
-1.58927e-07
3.49791e-08
-2.28914e-07
1.87363e-07
-1.57284e-07
2.41095e-07
2.35771e-08
1.4946e-07
2.05973e-07
-4.4253e-08
2.7288e-07
-2.27143e-07
1.74156e-07
-2.84487e-07
-3.72779e-08
-1.73045e-07
-2.34813e-07
4.76481e-08
-2.96098e-07
2.48098e-07
-1.80247e-07
3.0699e-07
4.51659e-08
1.86171e-07
2.44978e-07
-4.47211e-08
2.99509e-07
-2.49773e-07
1.77589e-07
-3.08796e-07
-4.57645e-08
-1.8915e-07
-2.36872e-07
3.62939e-08
-2.85179e-07
2.34787e-07
-1.68192e-07
2.93569e-07
3.91118e-08
1.84869e-07
2.13327e-07
-2.19367e-08
2.5744e-07
-2.05459e-07
1.55269e-07
-2.64805e-07
-2.52358e-08
-1.75426e-07
-1.77616e-07
2.82401e-09
-2.20636e-07
1.66003e-07
-1.41313e-07
2.27528e-07
5.18887e-09
1.63823e-07
1.33767e-07
2.04584e-08
1.79252e-07
-1.19984e-07
1.28482e-07
-1.85832e-07
1.95383e-08
-1.5202e-07
-8.58998e-08
-4.64622e-08
-1.37481e-07
7.1332e-08
-1.18571e-07
1.4375e-07
-4.75884e-08
1.41821e-07
3.72358e-08
7.39942e-08
9.79578e-08
-2.31127e-08
1.11715e-07
-1.04002e-07
7.63431e-08
-1.33822e-07
8.37089e-09
-1.01252e-07
-6.36002e-08
-2.18047e-08
-1.08479e-07
6.85828e-08
-1.04287e-07
1.27896e-07
-4.90047e-08
1.26245e-07
3.48028e-08
6.10852e-08
1.06886e-07
-3.84642e-08
1.27822e-07
-1.22925e-07
8.12609e-08
-1.4649e-07
-1.31551e-08
-9.25318e-08
-1.06362e-07
1.41236e-08
-1.45365e-07
1.17418e-07
-1.04392e-07
1.59636e-07
-2.72406e-09
1.14642e-07
1.03548e-07
4.96441e-09
1.53033e-07
-1.0896e-07
1.15718e-07
-1.62704e-07
1.21522e-08
-1.25475e-07
-9.77333e-08
-1.8724e-08
-1.50171e-07
9.61659e-08
-1.15836e-07
1.54093e-07
-1.70944e-08
1.24468e-07
8.63925e-08
2.81639e-08
1.34466e-07
-7.66968e-08
1.02456e-07
-1.30699e-07
1.43939e-08
-1.08074e-07
-7.38256e-08
-2.94566e-08
-1.09666e-07
5.42374e-08
-7.59784e-08
9.51945e-08
1.76548e-09
7.75018e-08
6.81981e-08
2.16318e-08
8.66738e-08
-4.03781e-08
-6.32298e-08
-7.29015e-08
-2.54402e-08
-1.18991e-07
6.58211e-08
-1.04411e-07
1.27548e-07
-7.98896e-09
9.72951e-08
1.214e-07
-1.61793e-08
1.9419e-07
-1.4616e-07
1.47059e-07
-2.03301e-07
-5.87933e-09
-1.36271e-07
-1.74825e-07
2.87362e-08
-2.49138e-07
1.96692e-07
-1.70843e-07
2.6e-07
2.23045e-08
1.68386e-07
2.1517e-07
-3.35011e-08
2.85896e-07
-2.28081e-07
1.84231e-07
-2.95375e-07
-3.35076e-08
-1.8855e-07
-2.36829e-07
3.39295e-08
-3.01417e-07
2.41401e-07
-1.86622e-07
3.09861e-07
3.89969e-08
1.9767e-07
2.4006e-07
-2.89952e-08
2.9755e-07
-2.36487e-07
1.80539e-07
-3.0438e-07
-3.74892e-08
-1.96658e-07
-2.26e-07
1.94119e-08
-2.77211e-07
2.16336e-07
-1.6854e-07
2.83174e-07
2.8921e-08
1.8884e-07
1.97657e-07
-4.62656e-09
2.44871e-07
-1.83409e-07
1.53731e-07
-2.49968e-07
-1.36561e-08
-1.76479e-07
-1.58704e-07
-1.42442e-08
-2.05185e-07
1.41945e-07
-1.38793e-07
2.09853e-07
-7.38775e-09
1.62685e-07
1.12972e-07
3.67713e-08
1.6234e-07
-9.52895e-08
1.25548e-07
-1.66718e-07
3.24931e-08
-1.49293e-07
-6.46331e-08
-6.15538e-08
-1.20439e-07
4.71832e-08
-1.15725e-07
1.24327e-07
-6.03758e-08
1.37954e-07
1.66219e-08
8.7422e-08
8.17127e-08
-4.66101e-10
1.09066e-07
-8.51037e-08
8.82175e-08
-1.29001e-07
2.72344e-08
-1.12507e-07
-4.88876e-08
-4.21236e-08
-1.05964e-07
5.0789e-08
-1.14485e-07
1.22093e-07
-6.52082e-08
1.34738e-07
2.20482e-08
7.83422e-08
1.04153e-07
-2.21568e-08
1.35443e-07
-1.15906e-07
9.39367e-08
-1.51509e-07
-2.64851e-09
-1.05962e-07
-1.0297e-07
-3.29037e-10
-1.49551e-07
1.08965e-07
-1.12823e-07
1.60535e-07
-1.08316e-08
1.23579e-07
9.9038e-08
1.72714e-08
1.53024e-07
-9.88097e-08
1.19252e-07
-1.58771e-07
1.75707e-08
-1.29051e-07
-9.19952e-08
-2.82026e-08
-1.45502e-07
8.45346e-08
-1.13671e-07
1.44912e-07
-1.877e-08
1.21646e-07
8.03526e-08
3.34232e-08
1.25261e-07
-6.47754e-08
9.33996e-08
-1.16552e-07
1.02656e-08
-9.76626e-08
-6.84549e-08
-2.77363e-08
-9.31922e-08
4.58001e-08
-5.12472e-08
7.93051e-08
1.91239e-08
5.86298e-08
6.38578e-08
-6.0951e-11
-4.38932e-08
3.68155e-08
-1.01239e-07
-5.74578e-08
-1.52245e-08
-1.33335e-07
1.04821e-07
-1.22973e-07
1.60403e-07
-9.57223e-09
1.17178e-07
1.36455e-07
-1.31011e-08
2.14171e-07
-1.57748e-07
1.59752e-07
-2.2273e-07
-6.13771e-09
-1.54323e-07
-1.85491e-07
1.94734e-08
-2.62768e-07
1.98873e-07
-1.80417e-07
2.71321e-07
1.97098e-08
1.83522e-07
2.18207e-07
-2.04451e-08
2.91404e-07
-2.21709e-07
1.89882e-07
-2.97946e-07
-2.84154e-08
-1.99395e-07
-2.32543e-07
1.85892e-08
-2.99188e-07
2.27754e-07
-1.8863e-07
3.04425e-07
3.15689e-08
2.04167e-07
2.29186e-07
-1.22894e-08
2.88572e-07
-2.17013e-07
1.7947e-07
-2.92215e-07
-2.81365e-08
-1.99179e-07
-2.09928e-07
2.20229e-09
-2.63164e-07
1.92773e-07
-1.65391e-07
2.65978e-07
1.79613e-08
1.88084e-07
1.77824e-07
1.23592e-08
2.27393e-07
-1.57504e-07
1.49266e-07
-2.29501e-07
-1.72211e-09
-1.73197e-07
-1.3681e-07
-3.03569e-08
-1.86053e-07
1.15335e-07
-1.33865e-07
1.87771e-07
-1.98002e-08
1.5764e-07
9.04249e-08
5.15097e-08
1.42932e-07
-6.93304e-08
1.20625e-07
-1.44372e-07
4.4698e-08
-1.4305e-07
-4.28029e-08
-7.44664e-08
-1.01941e-07
2.29635e-08
-1.11138e-07
1.02725e-07
-7.17547e-08
1.3085e-07
-3.42765e-09
9.80619e-08
6.48908e-08
2.11542e-08
1.04785e-07
-6.49305e-08
9.79999e-08
-1.21131e-07
4.45276e-08
-1.20371e-07
-3.42882e-08
-6.04248e-08
-1.01786e-07
3.24965e-08
-1.21903e-07
1.13364e-07
-7.89564e-08
1.39285e-07
9.94675e-09
9.27112e-08
9.967e-08
-6.02124e-09
1.39689e-07
-1.06078e-07
1.03457e-07
-1.52124e-07
6.80857e-09
-1.15766e-07
-9.77471e-08
-1.39911e-08
-1.49923e-07
9.79093e-08
-1.1758e-07
1.56768e-07
-1.75371e-08
1.28314e-07
9.27828e-08
2.81678e-08
1.49043e-07
-8.64607e-08
1.18777e-07
-1.50178e-07
2.11626e-08
-1.27985e-07
-8.48879e-08
-3.54994e-08
-1.37e-07
7.15266e-08
-1.07271e-07
1.31565e-07
-1.81126e-08
1.14012e-07
7.34597e-08
3.5558e-08
1.12597e-07
-5.29611e-08
8.07215e-08
-9.97339e-08
5.57371e-09
-8.33619e-08
-5.90384e-08
-2.31164e-08
-7.06866e-08
3.68059e-08
-3.21416e-08
5.81693e-08
1.36362e-08
3.31574e-08
-6.07165e-09
1.3502e-07
-1.20736e-07
4.57837e-08
-9.38034e-08
-8.05512e-08
1.18491e-08
-1.67862e-07
1.20946e-07
-1.41049e-07
1.78138e-07
-9.24138e-09
1.32449e-07
1.48658e-07
-6.49766e-09
2.28325e-07
-1.61909e-07
1.68358e-07
-2.34812e-07
-5.31553e-09
-1.68862e-07
-1.89982e-07
7.84618e-09
-2.68576e-07
1.93816e-07
-1.85151e-07
2.7432e-07
1.60207e-08
1.93798e-07
2.14762e-07
-6.0824e-09
2.88799e-07
-2.0861e-07
1.90503e-07
-2.92162e-07
-2.24221e-08
-2.04906e-07
-2.22102e-07
2.71707e-09
-2.89259e-07
2.08227e-07
-1.85839e-07
2.9122e-07
2.3477e-08
2.05336e-07
2.12905e-07
4.2615e-09
2.72801e-07
-1.92789e-07
1.741e-07
-2.73295e-07
-1.84495e-08
-1.96682e-07
-1.89516e-07
-1.4212e-08
-2.43539e-07
1.6576e-07
-1.58547e-07
2.4328e-07
7.09738e-09
1.82789e-07
1.54914e-07
2.79534e-08
2.05695e-07
-1.29498e-07
1.41736e-07
-2.04863e-07
9.62377e-09
-1.6593e-07
-1.13148e-07
-4.4539e-08
-1.64026e-07
8.79114e-08
-1.26405e-07
1.62783e-07
-3.1064e-08
1.4911e-07
6.7401e-08
6.38054e-08
1.21842e-07
-4.37409e-08
1.13585e-07
-1.20248e-07
5.51637e-08
-1.33743e-07
-2.16792e-08
-8.44515e-08
-8.27866e-08
1.57036e-10
-1.04686e-07
8.0295e-08
-8.07682e-08
1.20987e-07
-2.17035e-08
1.053e-07
4.82461e-08
4.04476e-08
9.87577e-08
-4.47129e-08
1.0481e-07
-1.10709e-07
5.91431e-08
-1.24393e-07
-2.04953e-08
-7.56168e-08
-9.58661e-08
1.48106e-08
-1.2579e-07
1.02251e-07
-8.9292e-08
1.3963e-07
-8.76008e-10
1.03332e-07
9.34315e-08
8.95205e-09
1.39994e-07
-9.40693e-08
1.09051e-07
-1.4833e-07
1.46496e-08
-1.21344e-07
-9.08138e-08
-2.59755e-08
-1.46163e-07
8.50145e-08
-1.1811e-07
1.48633e-07
-2.23215e-08
1.28541e-07
8.50645e-08
3.6861e-08
1.4105e-07
-7.28529e-08
1.13992e-07
-1.37594e-07
2.25123e-08
-1.22338e-07
-7.67893e-08
-3.99708e-08
-1.24938e-07
5.82711e-08
-9.68444e-08
1.15221e-07
-1.52562e-08
1.02289e-07
6.59204e-08
3.45284e-08
9.7506e-08
-4.2104e-08
6.63107e-08
-8.17898e-08
1.38134e-09
-6.74266e-08
-4.99336e-08
-1.86976e-08
-5.76814e-08
2.59445e-08
-3.38139e-08
4.13712e-08
2.60218e-08
1.59088e-07
-6.57651e-08
1.26432e-07
-1.15485e-07
2.28405e-08
-9.0727e-08
-1.11525e-07
2.38185e-09
-1.87504e-07
1.22729e-07
-1.49184e-07
1.89917e-07
-7.70262e-09
1.46226e-07
1.54931e-07
3.38232e-09
2.34512e-07
-1.58664e-07
1.72145e-07
-2.3862e-07
-3.18144e-09
-1.78598e-07
-1.87693e-07
-5.20058e-09
-2.6601e-07
1.81764e-07
-1.84744e-07
2.68548e-07
1.1306e-08
1.98336e-07
2.04815e-07
8.65137e-09
2.78076e-07
-1.89412e-07
1.86079e-07
-2.78082e-07
-1.56686e-08
-2.04523e-07
-2.05831e-07
-1.27207e-08
-2.72025e-07
1.83766e-07
-1.7845e-07
2.707e-07
1.49399e-08
2.00855e-07
1.91827e-07
1.96627e-08
2.50924e-07
-1.65e-07
1.64755e-07
-2.48363e-07
-8.72788e-09
-1.89031e-07
-1.65577e-07
-2.88441e-08
-2.19195e-07
1.36617e-07
-1.48377e-07
2.16003e-07
-3.2905e-09
1.72949e-07
1.29858e-07
4.12052e-08
1.80698e-07
-1.00758e-07
1.31485e-07
-1.77067e-07
1.99338e-08
-1.5475e-07
-8.86943e-08
-5.58988e-08
-1.40007e-07
6.10163e-08
-1.16693e-07
1.35909e-07
-4.06798e-08
1.37223e-07
4.48595e-08
7.28406e-08
9.98949e-08
-1.97889e-08
1.04622e-07
-9.53307e-08
6.33612e-08
-1.21528e-07
-2.16309e-09
-9.07789e-08
-6.36881e-08
-2.00721e-08
-9.64748e-08
5.79625e-08
-8.6891e-08
1.08548e-07
-3.74025e-08
1.08517e-07
3.23645e-08
5.63801e-08
9.10251e-08
-2.53104e-08
1.08171e-07
-9.79668e-08
7.04137e-08
-1.24095e-07
-7.96642e-09
-8.68199e-08
-8.82216e-08
-1.47379e-09
-1.25777e-07
8.90676e-08
-9.57231e-08
1.35488e-07
-1.0085e-08
1.09514e-07
8.54798e-08
2.20323e-08
1.36159e-07
-8.03084e-08
1.10436e-07
-1.40083e-07
2.06472e-08
-1.22231e-07
-8.22877e-08
-3.56181e-08
-1.38295e-07
7.08572e-08
-1.1437e-07
1.36378e-07
-2.50658e-08
1.24068e-07
7.60866e-08
4.27779e-08
1.29326e-07
-5.87318e-08
1.05167e-07
-1.21636e-07
2.17368e-08
-1.12322e-07
-6.78998e-08
-4.12934e-08
-1.09921e-07
4.55776e-08
-8.32482e-08
9.69432e-08
-1.081e-08
8.74418e-08
5.79758e-08
3.07873e-08
8.09581e-08
-3.26808e-08
5.02597e-08
-6.44147e-08
-6.97122e-09
-5.22246e-08
-4.84806e-08
-1.37099e-08
-5.44779e-08
2.49266e-08
3.6176e-08
9.21685e-08
3.16695e-08
1.32658e-07
-6.34057e-08
1.10653e-07
-1.3363e-07
9.29658e-09
-1.14736e-07
-1.2021e-07
-1.01861e-08
-1.93288e-07
1.21389e-07
-1.51444e-07
1.95277e-07
-8.06332e-09
1.55684e-07
1.54068e-07
1.49071e-08
2.32413e-07
-1.48114e-07
1.71035e-07
-2.33326e-07
1.73534e-10
-1.82422e-07
-1.78783e-07
-1.87299e-08
-2.55245e-07
1.63228e-07
-1.79242e-07
2.53997e-07
5.80857e-09
1.96652e-07
1.88919e-07
2.29678e-08
2.59877e-07
-1.6491e-07
1.76944e-07
-2.56169e-07
-8.44201e-09
-1.98123e-07
-1.84604e-07
-2.70084e-08
-2.48491e-07
1.55374e-07
-1.66993e-07
2.43653e-07
6.30765e-09
1.90848e-07
1.67058e-07
3.32527e-08
2.24182e-07
-1.34778e-07
1.52059e-07
-2.18412e-07
6.26881e-10
-1.76512e-07
-1.39331e-07
-4.10897e-08
-1.91457e-07
1.06518e-07
-1.35516e-07
1.8523e-07
-1.27656e-08
1.58936e-07
1.03897e-07
5.15641e-08
1.53702e-07
-7.24355e-08
1.19098e-07
-1.47187e-07
2.87568e-08
-1.40051e-07
-6.46312e-08
-6.39342e-08
-1.15182e-07
3.5731e-08
-1.05227e-07
1.08169e-07
-4.82037e-08
1.22352e-07
2.38663e-08
7.81605e-08
7.81179e-08
1.54086e-09
9.41317e-08
-7.05457e-08
6.88797e-08
-1.06747e-07
1.48371e-08
-9.3048e-08
-4.54873e-08
-3.68547e-08
-8.68122e-08
3.65489e-08
-8.97839e-08
9.38551e-08
-4.9807e-08
1.07398e-07
1.78992e-08
6.8224e-08
8.18347e-08
-7.43928e-09
1.07858e-07
-8.3235e-08
7.78407e-08
-1.19293e-07
2.82299e-09
-9.34798e-08
-7.90875e-08
-1.57439e-08
-1.2181e-07
7.41898e-08
-9.7998e-08
1.26857e-07
-1.73672e-08
1.10919e-07
7.6084e-08
3.27145e-08
1.28349e-07
-6.52537e-08
1.07627e-07
-1.2762e-07
2.46346e-08
-1.18352e-07
-7.25059e-08
-4.25415e-08
-1.26729e-07
5.59975e-08
-1.06662e-07
1.20535e-07
-2.57787e-08
1.15156e-07
6.62315e-08
4.57324e-08
1.14542e-07
-4.47356e-08
9.29904e-08
-1.03185e-07
1.91715e-08
-9.8693e-08
-5.85237e-08
-3.96918e-08
-9.2885e-08
3.3985e-08
-6.76324e-08
7.79399e-08
-5.55543e-09
7.08583e-08
4.92673e-08
2.51562e-08
6.22953e-08
-2.49794e-08
2.99617e-08
-4.83263e-08
-1.70744e-08
-3.60001e-08
-4.35906e-08
-6.67916e-10
2.47226e-08
-2.41461e-08
1.09702e-07
6.18012e-08
2.76349e-08
1.27916e-07
-8.95246e-08
1.15442e-07
-1.50958e-07
1.23257e-08
-1.26406e-07
-1.18988e-07
-1.9797e-08
-1.91433e-07
1.12898e-07
-1.49801e-07
1.90986e-07
-9.92725e-09
1.59382e-07
1.46756e-07
2.76464e-08
2.22275e-07
-1.30283e-07
1.64784e-07
-2.18802e-07
4.14757e-09
-1.8008e-07
-1.64007e-07
-3.23109e-08
-2.36887e-07
1.3879e-07
-1.68768e-07
2.31208e-07
7.03871e-11
1.8895e-07
1.68112e-07
3.65166e-08
2.35215e-07
-1.35946e-07
1.63475e-07
-2.27358e-07
-1.31396e-09
-1.86193e-07
-1.59702e-07
-3.9832e-08
-2.19947e-07
1.24069e-07
-1.5198e-07
2.11255e-07
-1.80406e-09
1.75964e-07
1.40024e-07
4.47373e-08
1.93992e-07
-1.03222e-07
1.36579e-07
-1.84721e-07
8.98387e-09
-1.59836e-07
-1.12239e-07
-5.06722e-08
-1.61752e-07
7.65553e-08
-1.20523e-07
1.52216e-07
-2.07118e-08
1.41434e-07
7.84295e-08
5.87669e-08
1.26044e-07
-4.55472e-08
1.05085e-07
-1.16373e-07
3.55197e-08
-1.22434e-07
-4.22273e-08
-6.83924e-08
-9.07467e-08
1.29571e-08
-9.24524e-08
8.05461e-08
-5.31345e-08
1.04992e-07
5.51345e-09
7.95324e-08
5.753e-08
1.94903e-08
8.24998e-08
-4.66942e-08
7.13212e-08
-8.97913e-08
2.84379e-08
-9.1072e-08
-2.90174e-08
-4.95953e-08
-7.60424e-08
1.6681e-08
-8.9186e-08
7.72307e-08
-5.8271e-08
1.0184e-07
5.49818e-09
7.55685e-08
7.15203e-08
8.43257e-09
1.03789e-07
-6.68158e-08
8.10358e-08
-1.10023e-07
1.13989e-08
-9.53986e-08
-6.88233e-08
-2.76714e-08
-1.14023e-07
5.79577e-08
-9.60062e-08
1.13979e-07
-2.24129e-08
1.07595e-07
6.56571e-08
4.07983e-08
1.16939e-07
-4.93325e-08
1.00802e-07
-1.1145e-07
2.64711e-08
-1.10051e-07
-6.1931e-08
-4.66881e-08
-1.12088e-07
4.0967e-08
-9.54866e-08
1.01922e-07
-2.45535e-08
1.0251e-07
5.59391e-08
4.58878e-08
9.75529e-08
-3.14475e-08
7.83691e-08
-8.3392e-08
1.53069e-08
-8.26401e-08
-4.8924e-08
-3.57619e-08
-7.48364e-08
2.38797e-08
-5.14064e-08
5.94433e-08
-9.54933e-10
5.39847e-08
3.87192e-08
1.86619e-08
4.1612e-08
-1.81267e-08
1.39138e-08
-3.19402e-08
-1.48943e-08
-1.77609e-08
4.64836e-09
-1.1841e-07
1.19758e-07
-3.77e-08
9.54551e-08
6.95725e-08
6.43077e-09
1.41924e-07
-8.69357e-08
1.20389e-07
-1.47232e-07
1.47437e-08
-1.30154e-07
-1.13129e-07
-3.20602e-08
-1.82024e-07
9.64715e-08
-1.42718e-07
1.78198e-07
-1.20572e-08
1.58099e-07
1.33544e-07
4.1123e-08
2.0409e-07
-1.0674e-07
1.52962e-07
-1.96877e-07
8.00526e-09
-1.72629e-07
-1.44199e-07
-4.55499e-08
-2.11533e-07
1.10183e-07
-1.53338e-07
2.02345e-07
-5.23223e-09
1.76585e-07
1.435e-07
4.90165e-08
2.05053e-07
-1.04333e-07
1.45911e-07
-1.93975e-07
5.01714e-09
-1.70232e-07
-1.32426e-07
-5.09932e-08
-1.87564e-07
9.16246e-08
-1.33751e-07
1.75816e-07
-8.67277e-09
1.5772e-07
1.1212e-07
5.40085e-08
1.61611e-07
-7.19443e-08
1.18694e-07
-1.49429e-07
1.56229e-08
-1.40447e-07
-8.56902e-08
-5.75852e-08
-1.31316e-07
4.80839e-08
-1.03765e-07
1.1882e-07
-2.64381e-08
1.21753e-07
5.47678e-08
6.29167e-08
9.8877e-08
-2.11353e-08
8.97764e-08
-8.61398e-08
3.95841e-08
-1.03044e-07
-2.26683e-08
-6.94908e-08
-6.77244e-08
-6.5975e-09
-7.86595e-08
5.42032e-08
-5.49156e-08
8.61299e-08
-9.1785e-09
7.73057e-08
3.90055e-08
3.36894e-08
6.9982e-08
-2.46027e-08
7.02425e-08
-7.15115e-08
3.78146e-08
-8.53454e-08
-1.50001e-08
-5.82489e-08
-6.44172e-08
-1.11027e-09
-8.48143e-08
5.94428e-08
-6.21996e-08
9.25104e-08
-4.27292e-09
7.86788e-08
6.03587e-08
2.20244e-08
9.58827e-08
-4.94408e-08
7.96661e-08
-9.71426e-08
1.73522e-08
-9.31302e-08
-5.77603e-08
-3.7179e-08
-1.02581e-07
4.11057e-08
-8.9708e-08
9.79089e-08
-2.49824e-08
1.0036e-07
5.45904e-08