/*--------------------------------*- C++ -*----------------------------------*\
| =========                 |                                                 |
| \\      /  F ield         | OpenFOAM: The Open Source CFD Toolbox           |
|  \\    /   O peration     | Version:  2412                                  |
|   \\  /    A nd           | Website:  www.openfoam.com                      |
|    \\/     M anipulation  |                                                 |
\*---------------------------------------------------------------------------*/
FoamFile
{
    version     2.0;
    format      ascii;
    arch        "LSB;label=32;scalar=64";
    class       volScalarField;
    location    "1.35";
    object      p;
}
// * * * * * * * * * * * * * * * * * * * * * * * * * * * * * * * * * * * * * //

dimensions      [1 -1 -2 0 0 0 0];

internalField   nonuniform List<scalar> 
6400
(
12041.9
12041.9
12041.9
12041.9
12041.9
12041.9
12041.9
12041.9
12041.9
12041.9
12041.9
12041.9
12041.9
12041.9
12041.9
12041.9
12041.9
12041.9
12041.9
12041.9
12041.9
12041.9
12041.9
12041.9
12041.9
12041.9
12041.9
12041.9
12041.9
12041.9
12041.9
12041.9
12041.9
12041.9
12041.9
12041.9
12041.9
12041.9
12041.9
12041.9
12041.9
12041.9
12041.9
12041.9
12041.9
12041.9
12041.9
12041.9
12041.9
12041.9
12041.9
12041.9
12041.9
12041.9
12041.9
12041.9
12041.9
12041.9
12041.9
12041.9
12041.9
12041.9
12041.9
12041.9
12041.9
12041.9
12041.9
12041.9
12041.9
12041.9
12041.9
12041.9
12041.9
12041.9
12041.9
12041.9
12041.9
12041.9
12041.9
12041.9
11423.8
11423.8
11423.8
11423.8
11423.8
11423.8
11423.8
11423.8
11423.8
11423.8
11423.8
11423.8
11423.8
11423.8
11423.8
11423.9
11423.9
11423.9
11423.9
11423.9
11423.9
11423.9
11423.9
11423.9
11423.9
11423.9
11423.9
11423.9
11423.9
11423.9
11423.9
11423.9
11423.9
11423.9
11423.9
11423.9
11423.9
11423.9
11423.9
11423.9
11423.9
11423.9
11423.9
11423.9
11423.9
11423.9
11423.9
11423.9
11423.9
11423.9
11423.9
11423.9
11423.9
11423.9
11423.9
11423.9
11423.9
11423.9
11423.9
11423.9
11423.9
11423.9
11423.9
11423.9
11423.8
11423.8
11423.8
11423.8
11423.8
11423.8
11423.8
11423.8
11423.8
11423.8
11423.8
11423.8
11423.8
11423.8
11423.8
11423.8
10805.8
10805.8
10805.8
10805.8
10805.8
10805.8
10805.8
10805.8
10805.8
10805.8
10805.8
10805.8
10805.8
10805.8
10805.8
10805.8
10805.8
10805.8
10805.8
10805.8
10805.8
10805.8
10805.8
10805.8
10805.8
10805.8
10805.9
10805.9
10805.9
10805.9
10805.9
10805.9
10805.9
10805.9
10805.9
10805.9
10805.9
10805.9
10805.9
10805.9
10805.9
10805.9
10805.9
10805.9
10805.9
10805.9
10805.9
10805.9
10805.9
10805.9
10805.9
10805.9
10805.9
10805.9
10805.8
10805.8
10805.8
10805.8
10805.8
10805.8
10805.8
10805.8
10805.8
10805.8
10805.8
10805.8
10805.8
10805.8
10805.8
10805.8
10805.8
10805.8
10805.8
10805.8
10805.8
10805.8
10805.8
10805.8
10805.8
10805.8
10187.8
10187.8
10187.8
10187.8
10187.8
10187.8
10187.8
10187.8
10187.8
10187.8
10187.8
10187.8
10187.8
10187.8
10187.8
10187.8
10187.8
10187.8
10187.8
10187.8
10187.8
10187.8
10187.8
10187.8
10187.8
10187.8
10187.8
10187.8
10187.8
10187.8
10187.8
10187.8
10187.8
10187.8
10187.8
10187.8
10187.8
10187.8
10187.8
10187.8
10187.8
10187.8
10187.8
10187.8
10187.8
10187.8
10187.8
10187.8
10187.8
10187.8
10187.8
10187.8
10187.8
10187.8
10187.8
10187.8
10187.8
10187.8
10187.8
10187.8
10187.8
10187.8
10187.8
10187.8
10187.8
10187.8
10187.8
10187.8
10187.8
10187.8
10187.8
10187.8
10187.8
10187.8
10187.8
10187.8
10187.8
10187.8
10187.8
10187.8
9569.75
9569.75
9569.75
9569.75
9569.75
9569.75
9569.75
9569.75
9569.75
9569.75
9569.75
9569.75
9569.75
9569.76
9569.76
9569.76
9569.76
9569.77
9569.77
9569.77
9569.77
9569.78
9569.78
9569.78
9569.79
9569.79
9569.79
9569.79
9569.8
9569.8
9569.8
9569.8
9569.81
9569.81
9569.81
9569.81
9569.81
9569.81
9569.81
9569.81
9569.81
9569.81
9569.81
9569.81
9569.81
9569.81
9569.81
9569.81
9569.8
9569.8
9569.8
9569.8
9569.79
9569.79
9569.79
9569.79
9569.78
9569.78
9569.78
9569.77
9569.77
9569.77
9569.77
9569.76
9569.76
9569.76
9569.76
9569.75
9569.75
9569.75
9569.75
9569.75
9569.75
9569.75
9569.74
9569.74
9569.74
9569.74
9569.74
9569.74
8951.72
8951.72
8951.72
8951.72
8951.72
8951.72
8951.72
8951.72
8951.72
8951.72
8951.72
8951.72
8951.72
8951.73
8951.73
8951.73
8951.73
8951.74
8951.74
8951.74
8951.74
8951.75
8951.75
8951.75
8951.76
8951.76
8951.76
8951.76
8951.77
8951.77
8951.77
8951.77
8951.78
8951.78
8951.78
8951.78
8951.78
8951.78
8951.78
8951.78
8951.78
8951.78
8951.78
8951.78
8951.78
8951.78
8951.78
8951.78
8951.77
8951.77
8951.77
8951.77
8951.76
8951.76
8951.76
8951.76
8951.75
8951.75
8951.75
8951.74
8951.74
8951.74
8951.74
8951.73
8951.73
8951.73
8951.73
8951.72
8951.72
8951.72
8951.72
8951.72
8951.72
8951.72
8951.72
8951.71
8951.71
8951.71
8951.71
8951.71
8333.69
8333.69
8333.69
8333.69
8333.69
8333.69
8333.69
8333.69
8333.69
8333.69
8333.69
8333.69
8333.69
8333.7
8333.7
8333.7
8333.7
8333.71
8333.71
8333.71
8333.71
8333.72
8333.72
8333.72
8333.73
8333.73
8333.73
8333.73
8333.74
8333.74
8333.74
8333.74
8333.75
8333.75
8333.75
8333.75
8333.75
8333.75
8333.75
8333.75
8333.75
8333.75
8333.75
8333.75
8333.75
8333.75
8333.75
8333.75
8333.74
8333.74
8333.74
8333.74
8333.73
8333.73
8333.73
8333.73
8333.72
8333.72
8333.72
8333.71
8333.71
8333.71
8333.71
8333.7
8333.7
8333.7
8333.7
8333.69
8333.69
8333.69
8333.69
8333.69
8333.69
8333.69
8333.69
8333.68
8333.68
8333.68
8333.68
8333.68
7715.66
7715.66
7715.66
7715.66
7715.66
7715.66
7715.66
7715.66
7715.66
7715.66
7715.66
7715.66
7715.66
7715.67
7715.67
7715.67
7715.67
7715.68
7715.68
7715.68
7715.68
7715.69
7715.69
7715.69
7715.7
7715.7
7715.7
7715.7
7715.71
7715.71
7715.71
7715.71
7715.72
7715.72
7715.72
7715.72
7715.72
7715.72
7715.72
7715.72
7715.72
7715.72
7715.72
7715.72
7715.72
7715.72
7715.72
7715.72
7715.71
7715.71
7715.71
7715.71
7715.7
7715.7
7715.7
7715.7
7715.69
7715.69
7715.69
7715.68
7715.68
7715.68
7715.68
7715.67
7715.67
7715.67
7715.67
7715.66
7715.66
7715.66
7715.66
7715.66
7715.66
7715.66
7715.66
7715.65
7715.65
7715.65
7715.65
7715.66
7097.63
7097.63
7097.62
7097.62
7097.63
7097.63
7097.63
7097.63
7097.63
7097.63
7097.63
7097.63
7097.63
7097.64
7097.64
7097.64
7097.64
7097.65
7097.65
7097.65
7097.65
7097.66
7097.66
7097.66
7097.67
7097.67
7097.67
7097.67
7097.68
7097.68
7097.68
7097.68
7097.69
7097.69
7097.69
7097.69
7097.69
7097.69
7097.69
7097.69
7097.69
7097.69
7097.69
7097.69
7097.69
7097.69
7097.69
7097.69
7097.68
7097.68
7097.68
7097.68
7097.67
7097.67
7097.67
7097.67
7097.66
7097.66
7097.66
7097.65
7097.65
7097.65
7097.65
7097.64
7097.64
7097.64
7097.64
7097.63
7097.63
7097.63
7097.63
7097.63
7097.63
7097.63
7097.63
7097.62
7097.62
7097.62
7097.62
7097.63
6479.6
6479.59
6479.59
6479.59
6479.59
6479.6
6479.6
6479.6
6479.6
6479.6
6479.6
6479.6
6479.6
6479.61
6479.61
6479.61
6479.61
6479.62
6479.62
6479.62
6479.62
6479.63
6479.63
6479.63
6479.64
6479.64
6479.64
6479.64
6479.65
6479.65
6479.65
6479.65
6479.66
6479.66
6479.66
6479.66
6479.66
6479.66
6479.66
6479.66
6479.66
6479.66
6479.66
6479.66
6479.66
6479.66
6479.66
6479.66
6479.65
6479.65
6479.65
6479.65
6479.64
6479.64
6479.64
6479.64
6479.63
6479.63
6479.63
6479.62
6479.62
6479.62
6479.62
6479.61
6479.61
6479.61
6479.61
6479.6
6479.6
6479.6
6479.6
6479.6
6479.6
6479.6
6479.59
6479.59
6479.59
6479.59
6479.59
6479.6
5861.57
5861.56
5861.56
5861.56
5861.56
5861.56
5861.57
5861.57
5861.57
5861.57
5861.57
5861.57
5861.57
5861.58
5861.58
5861.58
5861.58
5861.59
5861.59
5861.59
5861.59
5861.6
5861.6
5861.6
5861.61
5861.61
5861.61
5861.61
5861.62
5861.62
5861.62
5861.62
5861.63
5861.63
5861.63
5861.63
5861.63
5861.63
5861.63
5861.63
5861.63
5861.63
5861.63
5861.63
5861.63
5861.63
5861.63
5861.63
5861.62
5861.62
5861.62
5861.62
5861.61
5861.61
5861.61
5861.61
5861.6
5861.6
5861.6
5861.59
5861.59
5861.59
5861.59
5861.58
5861.58
5861.58
5861.58
5861.57
5861.57
5861.57
5861.57
5861.57
5861.57
5861.57
5861.56
5861.56
5861.56
5861.56
5861.56
5861.56
5243.53
5243.53
5243.53
5243.53
5243.53
5243.53
5243.53
5243.54
5243.54
5243.54
5243.54
5243.54
5243.54
5243.55
5243.55
5243.55
5243.55
5243.56
5243.56
5243.56
5243.56
5243.57
5243.57
5243.57
5243.58
5243.58
5243.58
5243.58
5243.59
5243.59
5243.59
5243.6
5243.6
5243.6
5243.6
5243.6
5243.6
5243.6
5243.61
5243.61
5243.61
5243.61
5243.6
5243.6
5243.6
5243.6
5243.6
5243.6
5243.59
5243.59
5243.59
5243.59
5243.58
5243.58
5243.58
5243.58
5243.57
5243.57
5243.57
5243.56
5243.56
5243.56
5243.55
5243.55
5243.55
5243.55
5243.55
5243.54
5243.54
5243.54
5243.54
5243.54
5243.54
5243.54
5243.53
5243.53
5243.53
5243.53
5243.53
5243.53
4625.5
4625.5
4625.5
4625.5
4625.5
4625.5
4625.5
4625.51
4625.51
4625.51
4625.51
4625.51
4625.51
4625.51
4625.52
4625.52
4625.52
4625.52
4625.53
4625.53
4625.53
4625.54
4625.54
4625.54
4625.55
4625.55
4625.55
4625.55
4625.56
4625.56
4625.56
4625.57
4625.57
4625.57
4625.57
4625.57
4625.57
4625.58
4625.58
4625.58
4625.58
4625.58
4625.58
4625.57
4625.57
4625.57
4625.57
4625.57
4625.57
4625.56
4625.56
4625.56
4625.55
4625.55
4625.55
4625.55
4625.54
4625.54
4625.54
4625.53
4625.53
4625.53
4625.52
4625.52
4625.52
4625.52
4625.52
4625.51
4625.51
4625.51
4625.51
4625.51
4625.51
4625.5
4625.5
4625.5
4625.5
4625.5
4625.5
4625.5
4007.47
4007.47
4007.47
4007.47
4007.47
4007.47
4007.47
4007.47
4007.48
4007.48
4007.48
4007.48
4007.48
4007.48
4007.49
4007.49
4007.49
4007.49
4007.5
4007.5
4007.5
4007.51
4007.51
4007.51
4007.52
4007.52
4007.52
4007.52
4007.53
4007.53
4007.53
4007.54
4007.54
4007.54
4007.54
4007.54
4007.55
4007.55
4007.55
4007.55
4007.55
4007.55
4007.55
4007.55
4007.54
4007.54
4007.54
4007.54
4007.54
4007.53
4007.53
4007.53
4007.52
4007.52
4007.52
4007.52
4007.51
4007.51
4007.51
4007.5
4007.5
4007.5
4007.49
4007.49
4007.49
4007.49
4007.48
4007.48
4007.48
4007.48
4007.48
4007.48
4007.47
4007.47
4007.47
4007.47
4007.47
4007.47
4007.47
4007.47
3389.44
3389.44
3389.44
3389.44
3389.44
3389.44
3389.44
3389.44
3389.44
3389.45
3389.45
3389.45
3389.45
3389.45
3389.46
3389.46
3389.46
3389.46
3389.47
3389.47
3389.47
3389.48
3389.48
3389.48
3389.49
3389.49
3389.49
3389.5
3389.5
3389.5
3389.5
3389.51
3389.51
3389.51
3389.51
3389.52
3389.52
3389.52
3389.52
3389.52
3389.52
3389.52
3389.52
3389.52
3389.52
3389.51
3389.51
3389.51
3389.51
3389.5
3389.5
3389.5
3389.5
3389.49
3389.49
3389.49
3389.48
3389.48
3389.48
3389.47
3389.47
3389.47
3389.46
3389.46
3389.46
3389.46
3389.45
3389.45
3389.45
3389.45
3389.45
3389.45
3389.44
3389.44
3389.44
3389.44
3389.44
3389.44
3389.44
3389.44
2771.41
2771.41
2771.41
2771.41
2771.41
2771.41
2771.41
2771.41
2771.41
2771.41
2771.42
2771.42
2771.42
2771.42
2771.42
2771.43
2771.43
2771.43
2771.44
2771.44
2771.44
2771.44
2771.45
2771.45
2771.45
2771.46
2771.46
2771.47
2771.47
2771.47
2771.48
2771.48
2771.48
2771.48
2771.49
2771.49
2771.49
2771.49
2771.49
2771.49
2771.49
2771.49
2771.49
2771.49
2771.49
2771.49
2771.48
2771.48
2771.48
2771.48
2771.47
2771.47
2771.47
2771.46
2771.46
2771.46
2771.45
2771.45
2771.45
2771.44
2771.44
2771.44
2771.43
2771.43
2771.43
2771.43
2771.42
2771.42
2771.42
2771.42
2771.42
2771.41
2771.41
2771.41
2771.41
2771.41
2771.41
2771.41
2771.41
2771.41
2153.38
2153.38
2153.38
2153.38
2153.38
2153.38
2153.38
2153.38
2153.38
2153.38
2153.39
2153.39
2153.39
2153.39
2153.39
2153.4
2153.4
2153.4
2153.4
2153.41
2153.41
2153.41
2153.42
2153.42
2153.42
2153.43
2153.43
2153.44
2153.44
2153.44
2153.45
2153.45
2153.45
2153.46
2153.46
2153.46
2153.46
2153.46
2153.47
2153.47
2153.47
2153.47
2153.46
2153.46
2153.46
2153.46
2153.46
2153.45
2153.45
2153.45
2153.44
2153.44
2153.44
2153.43
2153.43
2153.43
2153.42
2153.42
2153.41
2153.41
2153.41
2153.41
2153.4
2153.4
2153.4
2153.39
2153.39
2153.39
2153.39
2153.39
2153.38
2153.38
2153.38
2153.38
2153.38
2153.38
2153.38
2153.38
2153.38
2153.38
1535.35
1535.35
1535.35
1535.35
1535.35
1535.35
1535.35
1535.35
1535.35
1535.35
1535.35
1535.36
1535.36
1535.36
1535.36
1535.36
1535.37
1535.37
1535.37
1535.38
1535.38
1535.38
1535.39
1535.39
1535.39
1535.4
1535.4
1535.41
1535.41
1535.41
1535.42
1535.42
1535.43
1535.43
1535.43
1535.43
1535.44
1535.44
1535.44
1535.44
1535.44
1535.44
1535.44
1535.44
1535.43
1535.43
1535.43
1535.42
1535.42
1535.42
1535.41
1535.41
1535.41
1535.4
1535.4
1535.39
1535.39
1535.39
1535.38
1535.38
1535.38
1535.37
1535.37
1535.37
1535.37
1535.36
1535.36
1535.36
1535.36
1535.36
1535.35
1535.35
1535.35
1535.35
1535.35
1535.35
1535.35
1535.35
1535.35
1535.35
917.319
917.316
917.314
917.314
917.314
917.315
917.316
917.318
917.319
917.321
917.323
917.324
917.326
917.329
917.331
917.333
917.336
917.339
917.341
917.345
917.348
917.352
917.356
917.36
917.364
917.369
917.373
917.377
917.381
917.386
917.39
917.394
917.398
917.401
917.405
917.407
917.41
917.411
917.413
917.413
917.413
917.413
917.411
917.41
917.407
917.405
917.401
917.398
917.394
917.39
917.386
917.382
917.377
917.373
917.369
917.365
917.361
917.357
917.353
917.349
917.346
917.343
917.34
917.338
917.335
917.333
917.33
917.328
917.326
917.324
917.322
917.321
917.319
917.318
917.317
917.316
917.316
917.316
917.318
917.321
299.28
299.277
299.277
299.278
299.279
299.28
299.282
299.283
299.285
299.286
299.288
299.29
299.292
299.294
299.297
299.3
299.302
299.305
299.309
299.312
299.316
299.32
299.325
299.33
299.335
299.34
299.345
299.351
299.356
299.362
299.368
299.373
299.378
299.383
299.388
299.391
299.395
299.397
299.399
299.4
299.4
299.399
299.398
299.395
299.392
299.388
299.384
299.379
299.374
299.368
299.363
299.357
299.351
299.346
299.34
299.335
299.33
299.326
299.321
299.317
299.314
299.31
299.307
299.305
299.302
299.299
299.296
299.294
299.292
299.29
299.288
299.286
299.285
299.284
299.282
299.281
299.28
299.28
299.28
299.283
-9.9914
-9.99049
-9.98964
-9.98872
-9.98771
-9.98657
-9.9853
-9.98386
-9.98226
-9.98046
-9.97847
-9.97628
-9.97387
-9.97123
-9.96834
-9.9652
-9.96179
-9.95811
-9.95416
-9.94996
-9.94554
-9.94095
-9.93598
-9.93061
-9.92491
-9.91891
-9.91266
-9.90621
-9.89963
-9.89299
-9.88638
-9.87991
-9.87367
-9.8678
-9.86242
-9.85767
-9.85367
-9.85054
-9.84838
-9.84726
-9.84721
-9.84824
-9.85031
-9.85336
-9.8573
-9.862
-9.86735
-9.8732
-9.87942
-9.88589
-9.89248
-9.89908
-9.90563
-9.91203
-9.91822
-9.92411
-9.92968
-9.93489
-9.93972
-9.94415
-9.94829
-9.9522
-9.95591
-9.95948
-9.96292
-9.96624
-9.96938
-9.97228
-9.97489
-9.97717
-9.97914
-9.98082
-9.98226
-9.98351
-9.9846
-9.98557
-9.98648
-9.98733
-9.98813
-9.9891
-10.4835
-10.4833
-10.483
-10.4824
-10.4815
-10.4805
-10.4792
-10.4778
-10.4761
-10.4741
-10.472
-10.4696
-10.4669
-10.464
-10.4608
-10.4573
-10.4535
-10.4494
-10.445
-10.4404
-10.4356
-10.4308
-10.4259
-10.4207
-10.4151
-10.4092
-10.403
-10.3966
-10.3901
-10.3836
-10.3771
-10.3708
-10.3646
-10.3589
-10.3536
-10.349
-10.3451
-10.3421
-10.34
-10.3389
-10.3388
-10.3398
-10.3418
-10.3448
-10.3486
-10.3532
-10.3584
-10.3642
-10.3703
-10.3766
-10.3831
-10.3896
-10.396
-10.4024
-10.4085
-10.4143
-10.4197
-10.4248
-10.4295
-10.4341
-10.4386
-10.443
-10.4472
-10.4512
-10.4551
-10.4588
-10.4623
-10.4655
-10.4684
-10.4709
-10.473
-10.4749
-10.4764
-10.4777
-10.4788
-10.4797
-10.4804
-10.4809
-10.4812
-10.4813
-10.974
-10.9738
-10.9734
-10.9728
-10.972
-10.971
-10.9697
-10.9683
-10.9666
-10.9647
-10.9626
-10.9602
-10.9576
-10.9548
-10.9517
-10.9483
-10.9446
-10.9407
-10.9365
-10.932
-10.9273
-10.9223
-10.9172
-10.9117
-10.906
-10.9
-10.8937
-10.8873
-10.8807
-10.874
-10.8674
-10.8609
-10.8546
-10.8487
-10.8433
-10.8385
-10.8345
-10.8314
-10.8292
-10.8281
-10.828
-10.8291
-10.8312
-10.8342
-10.8382
-10.8429
-10.8483
-10.8542
-10.8604
-10.8669
-10.8735
-10.8801
-10.8866
-10.893
-10.8992
-10.9051
-10.9107
-10.9159
-10.9209
-10.9256
-10.9302
-10.9345
-10.9386
-10.9425
-10.9462
-10.9498
-10.9531
-10.9562
-10.959
-10.9614
-10.9635
-10.9653
-10.9668
-10.9681
-10.9692
-10.9701
-10.9708
-10.9713
-10.9717
-10.9718
-11.4647
-11.4645
-11.4641
-11.4635
-11.4627
-11.4617
-11.4605
-11.459
-11.4574
-11.4555
-11.4534
-11.4511
-11.4485
-11.4457
-11.4427
-11.4393
-11.4358
-11.4319
-11.4277
-11.4233
-11.4186
-11.4137
-11.4085
-11.403
-11.3972
-11.3911
-11.3847
-11.3782
-11.3714
-11.3646
-11.3577
-11.351
-11.3444
-11.3383
-11.3326
-11.3275
-11.3233
-11.3199
-11.3177
-11.3165
-11.3165
-11.3176
-11.3199
-11.3232
-11.3274
-11.3323
-11.338
-11.3441
-11.3505
-11.3572
-11.364
-11.3707
-11.3773
-11.3838
-11.39
-11.3959
-11.4015
-11.4069
-11.4119
-11.4168
-11.4214
-11.4258
-11.43
-11.4338
-11.4375
-11.4409
-11.4441
-11.447
-11.4497
-11.4521
-11.4542
-11.456
-11.4576
-11.4589
-11.4599
-11.4608
-11.4615
-11.462
-11.4624
-11.4626
-11.9556
-11.9554
-11.955
-11.9544
-11.9536
-11.9526
-11.9514
-11.95
-11.9484
-11.9466
-11.9445
-11.9422
-11.9397
-11.937
-11.934
-11.9307
-11.9272
-11.9234
-11.9193
-11.9149
-11.9103
-11.9053
-11.9001
-11.8945
-11.8886
-11.8825
-11.876
-11.8692
-11.8623
-11.8551
-11.848
-11.8408
-11.8339
-11.8272
-11.8211
-11.8157
-11.8111
-11.8075
-11.8051
-11.8039
-11.8039
-11.8052
-11.8077
-11.8112
-11.8158
-11.8211
-11.8271
-11.8336
-11.8404
-11.8474
-11.8544
-11.8613
-11.8681
-11.8747
-11.881
-11.8871
-11.8929
-11.8983
-11.9035
-11.9085
-11.9132
-11.9176
-11.9217
-11.9255
-11.929
-11.9323
-11.9353
-11.9381
-11.9407
-11.9431
-11.9452
-11.947
-11.9485
-11.9498
-11.9509
-11.9518
-11.9525
-11.953
-11.9533
-11.9535
-12.4467
-12.4465
-12.4461
-12.4455
-12.4448
-12.4438
-12.4426
-12.4412
-12.4397
-12.4379
-12.4359
-12.4337
-12.4312
-12.4285
-12.4256
-12.4224
-12.4189
-12.4152
-12.4111
-12.4068
-12.4022
-12.3973
-12.392
-12.3864
-12.3805
-12.3742
-12.3675
-12.3605
-12.3532
-12.3457
-12.3381
-12.3305
-12.323
-12.3158
-12.3091
-12.3032
-12.2981
-12.2942
-12.2915
-12.2902
-12.2903
-12.2917
-12.2945
-12.2984
-12.3034
-12.3093
-12.3158
-12.3228
-12.3301
-12.3374
-12.3448
-12.3521
-12.3592
-12.366
-12.3725
-12.3788
-12.3847
-12.3903
-12.3956
-12.4006
-12.4053
-12.4097
-12.4137
-12.4174
-12.4208
-12.4239
-12.4268
-12.4295
-12.432
-12.4343
-12.4363
-12.4382
-12.4397
-12.441
-12.4421
-12.443
-12.4436
-12.4441
-12.4444
-12.4446
-12.9379
-12.9378
-12.9374
-12.9368
-12.9361
-12.9352
-12.934
-12.9327
-12.9312
-12.9294
-12.9275
-12.9253
-12.923
-12.9203
-12.9175
-12.9143
-12.9109
-12.9073
-12.9033
-12.899
-12.8945
-12.8896
-12.8843
-12.8787
-12.8726
-12.8662
-12.8593
-12.852
-12.8444
-12.8364
-12.8282
-12.82
-12.8118
-12.804
-12.7966
-12.79
-12.7843
-12.7799
-12.7769
-12.7754
-12.7754
-12.7771
-12.7802
-12.7846
-12.7902
-12.7967
-12.804
-12.8116
-12.8195
-12.8275
-12.8354
-12.8432
-12.8506
-12.8577
-12.8645
-12.8709
-12.877
-12.8827
-12.888
-12.893
-12.8976
-12.9019
-12.9059
-12.9095
-12.9128
-12.9158
-12.9185
-12.9211
-12.9235
-12.9258
-12.9278
-12.9296
-12.9311
-12.9324
-12.9335
-12.9343
-12.935
-12.9354
-12.9357
-12.9359
-13.4294
-13.4292
-13.4289
-13.4283
-13.4276
-13.4267
-13.4256
-13.4244
-13.4229
-13.4212
-13.4194
-13.4173
-13.415
-13.4124
-13.4096
-13.4066
-13.4033
-13.3997
-13.3958
-13.3916
-13.3871
-13.3823
-13.377
-13.3713
-13.3652
-13.3586
-13.3515
-13.3439
-13.3358
-13.3273
-13.3185
-13.3095
-13.3005
-13.2918
-13.2835
-13.276
-13.2696
-13.2645
-13.2609
-13.2591
-13.2592
-13.261
-13.2646
-13.2697
-13.2761
-13.2836
-13.2917
-13.3003
-13.309
-13.3177
-13.3263
-13.3346
-13.3425
-13.3499
-13.3569
-13.3635
-13.3697
-13.3755
-13.3808
-13.3857
-13.3903
-13.3945
-13.3983
-13.4018
-13.405
-13.4079
-13.4105
-13.413
-13.4153
-13.4175
-13.4195
-13.4212
-13.4227
-13.424
-13.425
-13.4258
-13.4265
-13.4269
-13.4272
-13.4274
-13.921
-13.9208
-13.9205
-13.92
-13.9193
-13.9185
-13.9174
-13.9162
-13.9148
-13.9132
-13.9114
-13.9094
-13.9072
-13.9048
-13.9021
-13.8991
-13.8959
-13.8925
-13.8887
-13.8846
-13.8802
-13.8754
-13.8701
-13.8644
-13.8582
-13.8514
-13.844
-13.836
-13.8275
-13.8185
-13.809
-13.7991
-13.7892
-13.7794
-13.7699
-13.7613
-13.7537
-13.7476
-13.7434
-13.7412
-13.7412
-13.7434
-13.7476
-13.7537
-13.7612
-13.7698
-13.7791
-13.7888
-13.7986
-13.8082
-13.8175
-13.8264
-13.8348
-13.8426
-13.8498
-13.8565
-13.8628
-13.8685
-13.8738
-13.8787
-13.8832
-13.8873
-13.891
-13.8944
-13.8975
-13.9003
-13.9028
-13.9052
-13.9074
-13.9095
-13.9114
-13.9131
-13.9145
-13.9158
-13.9168
-13.9176
-13.9182
-13.9186
-13.9189
-13.919
-14.4127
-14.4126
-14.4123
-14.4118
-14.4112
-14.4104
-14.4094
-14.4083
-14.4069
-14.4054
-14.4037
-14.4018
-14.3997
-14.3974
-14.3948
-14.392
-14.3889
-14.3856
-14.382
-14.378
-14.3737
-14.3689
-14.3637
-14.358
-14.3517
-14.3448
-14.3371
-14.3288
-14.3198
-14.3101
-14.2998
-14.289
-14.2779
-14.2667
-14.2557
-14.2455
-14.2365
-14.2291
-14.2239
-14.2212
-14.2213
-14.2239
-14.2291
-14.2365
-14.2455
-14.2556
-14.2665
-14.2775
-14.2886
-14.2992
-14.3093
-14.3188
-14.3277
-14.3359
-14.3433
-14.3501
-14.3563
-14.362
-14.3673
-14.372
-14.3764
-14.3804
-14.3841
-14.3873
-14.3903
-14.3929
-14.3954
-14.3976
-14.3998
-14.4017
-14.4035
-14.4051
-14.4065
-14.4077
-14.4087
-14.4094
-14.41
-14.4104
-14.4107
-14.4108
-14.9047
-14.9045
-14.9042
-14.9038
-14.9032
-14.9025
-14.9016
-14.9005
-14.8993
-14.8978
-14.8962
-14.8945
-14.8925
-14.8903
-14.8878
-14.8852
-14.8823
-14.8791
-14.8756
-14.8718
-14.8676
-14.863
-14.8579
-14.8522
-14.8458
-14.8388
-14.831
-14.8223
-14.8129
-14.8025
-14.7913
-14.7793
-14.7667
-14.7538
-14.7409
-14.7287
-14.7177
-14.7086
-14.7022
-14.699
-14.6991
-14.7025
-14.709
-14.718
-14.729
-14.7411
-14.7538
-14.7665
-14.779
-14.7908
-14.8017
-14.8118
-14.8212
-14.8297
-14.8373
-14.8442
-14.8504
-14.8561
-14.8612
-14.8658
-14.87
-14.8739
-14.8774
-14.8806
-14.8834
-14.8859
-14.8882
-14.8903
-14.8923
-14.8942
-14.8959
-14.8974
-14.8987
-14.8998
-14.9007
-14.9015
-14.902
-14.9024
-14.9026
-14.9027
-15.3967
-15.3966
-15.3963
-15.3959
-15.3954
-15.3947
-15.3939
-15.3929
-15.3917
-15.3904
-15.3889
-15.3873
-15.3854
-15.3834
-15.3811
-15.3787
-15.3759
-15.373
-15.3697
-15.3661
-15.3621
-15.3576
-15.3526
-15.347
-15.3407
-15.3336
-15.3256
-15.3167
-15.3068
-15.2958
-15.2837
-15.2704
-15.256
-15.241
-15.2256
-15.2108
-15.1972
-15.186
-15.178
-15.174
-15.1742
-15.1786
-15.1868
-15.1981
-15.2116
-15.2263
-15.2413
-15.256
-15.27
-15.2831
-15.295
-15.3057
-15.3155
-15.3243
-15.3321
-15.339
-15.3452
-15.3507
-15.3556
-15.3601
-15.3641
-15.3678
-15.3711
-15.3741
-15.3768
-15.3792
-15.3813
-15.3833
-15.3851
-15.3868
-15.3884
-15.3898
-15.3911
-15.3921
-15.3929
-15.3936
-15.3941
-15.3944
-15.3947
-15.3948
-15.8889
-15.8888
-15.8885
-15.8882
-15.8877
-15.8871
-15.8863
-15.8854
-15.8844
-15.8832
-15.8818
-15.8803
-15.8786
-15.8767
-15.8747
-15.8724
-15.8699
-15.8672
-15.8642
-15.8608
-15.8571
-15.8528
-15.848
-15.8426
-15.8364
-15.8293
-15.8214
-15.8123
-15.8021
-15.7905
-15.7773
-15.7625
-15.7462
-15.7286
-15.7102
-15.6919
-15.675
-15.6609
-15.6508
-15.6456
-15.6459
-15.6516
-15.6622
-15.6765
-15.6933
-15.7113
-15.7292
-15.7462
-15.7621
-15.7766
-15.7895
-15.8008
-15.8109
-15.8198
-15.8276
-15.8345
-15.8405
-15.8459
-15.8506
-15.8548
-15.8586
-15.8621
-15.8652
-15.868
-15.8705
-15.8727
-15.8746
-15.8765
-15.8781
-15.8797
-15.8811
-15.8824
-15.8835
-15.8845
-15.8853
-15.8859
-15.8863
-15.8867
-15.8869
-15.887
-16.3812
-16.3811
-16.3809
-16.3805
-16.3801
-16.3795
-16.3789
-16.3781
-16.3771
-16.3761
-16.3749
-16.3735
-16.372
-16.3703
-16.3685
-16.3665
-16.3643
-16.3618
-16.3591
-16.356
-16.3525
-16.3486
-16.3441
-16.3389
-16.333
-16.3262
-16.3184
-16.3093
-16.2988
-16.2866
-16.2726
-16.2564
-16.2379
-16.2173
-16.1952
-16.1726
-16.1512
-16.1329
-16.1198
-16.1131
-16.1134
-16.1209
-16.1347
-16.1532
-16.1745
-16.1967
-16.2182
-16.2381
-16.2559
-16.2717
-16.2854
-16.2973
-16.3076
-16.3165
-16.3242
-16.3308
-16.3366
-16.3417
-16.3462
-16.3501
-16.3536
-16.3568
-16.3596
-16.3622
-16.3644
-16.3664
-16.3682
-16.3698
-16.3713
-16.3727
-16.374
-16.3751
-16.3762
-16.377
-16.3778
-16.3783
-16.3787
-16.379
-16.3792
-16.3792
-16.8736
-16.8735
-16.8733
-16.873
-16.8726
-16.8722
-16.8716
-16.8709
-16.87
-16.8691
-16.868
-16.8669
-16.8655
-16.8641
-16.8625
-16.8608
-16.8589
-16.8567
-16.8543
-16.8516
-16.8485
-16.8449
-16.8408
-16.8361
-16.8306
-16.8243
-16.8168
-16.808
-16.7976
-16.7851
-16.7703
-16.7528
-16.7321
-16.7082
-16.6815
-16.6533
-16.6257
-16.6017
-16.5841
-16.5752
-16.5757
-16.5855
-16.6039
-16.6285
-16.656
-16.6837
-16.7095
-16.7324
-16.7523
-16.7692
-16.7836
-16.7957
-16.8059
-16.8146
-16.8219
-16.8282
-16.8336
-16.8383
-16.8423
-16.8459
-16.849
-16.8519
-16.8544
-16.8566
-16.8586
-16.8604
-16.8619
-16.8633
-16.8646
-16.8658
-16.867
-16.868
-16.8689
-16.8697
-16.8703
-16.8708
-16.8712
-16.8714
-16.8716
-16.8716
-17.3661
-17.366
-17.3658
-17.3656
-17.3653
-17.3648
-17.3643
-17.3637
-17.363
-17.3622
-17.3613
-17.3603
-17.3593
-17.3581
-17.3567
-17.3553
-17.3537
-17.3519
-17.3499
-17.3476
-17.3449
-17.3419
-17.3383
-17.3342
-17.3293
-17.3236
-17.3168
-17.3086
-17.2986
-17.2863
-17.2713
-17.2529
-17.2302
-17.2029
-17.1709
-17.1353
-17.0991
-17.0668
-17.043
-17.031
-17.0316
-17.045
-17.0699
-17.1031
-17.1392
-17.1738
-17.2044
-17.2305
-17.2522
-17.2697
-17.2842
-17.2962
-17.306
-17.3141
-17.3209
-17.3266
-17.3315
-17.3356
-17.3391
-17.3422
-17.3449
-17.3473
-17.3495
-17.3514
-17.3531
-17.3545
-17.3558
-17.357
-17.3581
-17.3591
-17.3601
-17.361
-17.3618
-17.3624
-17.363
-17.3634
-17.3637
-17.3639
-17.364
-17.3641
-17.8586
-17.8586
-17.8584
-17.8582
-17.858
-17.8576
-17.8572
-17.8567
-17.8561
-17.8555
-17.8548
-17.854
-17.8531
-17.8521
-17.8511
-17.85
-17.8488
-17.8474
-17.8458
-17.844
-17.8418
-17.8394
-17.8365
-17.8331
-17.8291
-17.8243
-17.8185
-17.8113
-17.8023
-17.7908
-17.7762
-17.7575
-17.734
-17.7038
-17.6658
-17.6208
-17.5726
-17.5281
-17.4951
-17.4791
-17.48
-17.498
-17.5326
-17.5786
-17.6265
-17.6696
-17.7053
-17.7337
-17.7559
-17.7738
-17.7879
-17.7991
-17.808
-17.8152
-17.8212
-17.826
-17.8301
-17.8335
-17.8364
-17.8389
-17.8411
-17.8431
-17.8448
-17.8463
-17.8477
-17.8488
-17.8499
-17.8508
-17.8517
-17.8525
-17.8533
-17.854
-17.8547
-17.8553
-17.8557
-17.8561
-17.8563
-17.8565
-17.8566
-17.8566
-18.3512
-18.3512
-18.3511
-18.3509
-18.3507
-18.3505
-18.3501
-18.3497
-18.3493
-18.3488
-18.3482
-18.3476
-18.347
-18.3463
-18.3456
-18.3449
-18.344
-18.343
-18.3419
-18.3406
-18.3391
-18.3373
-18.3353
-18.3328
-18.3299
-18.3263
-18.3219
-18.3162
-18.3088
-18.2991
-18.2862
-18.269
-18.246
-18.2146
-18.1712
-18.1143
-18.0478
-17.985
-17.9414
-17.9213
-17.9224
-17.945
-17.9915
-18.058
-18.123
-18.1757
-18.2154
-18.2445
-18.2662
-18.2827
-18.2952
-18.3048
-18.3122
-18.318
-18.3226
-18.3264
-18.3295
-18.332
-18.3342
-18.336
-18.3376
-18.3391
-18.3403
-18.3415
-18.3424
-18.3433
-18.344
-18.3447
-18.3453
-18.346
-18.3466
-18.3472
-18.3477
-18.3482
-18.3485
-18.3488
-18.349
-18.3491
-18.3492
-18.3492
-18.8439
-18.8439
-18.8438
-18.8437
-18.8435
-18.8433
-18.8431
-18.8428
-18.8425
-18.8421
-18.8418
-18.8414
-18.841
-18.8406
-18.8402
-18.8398
-18.8394
-18.8388
-18.8382
-18.8375
-18.8367
-18.8357
-18.8346
-18.8332
-18.8316
-18.8295
-18.8268
-18.8231
-18.8182
-18.8114
-18.8018
-18.7884
-18.7693
-18.7408
-18.6956
-18.625
-18.535
-18.4592
-18.4066
-18.3794
-18.3803
-18.4099
-18.4648
-18.5517
-18.6389
-18.6996
-18.7389
-18.7653
-18.7837
-18.7968
-18.8063
-18.8133
-18.8184
-18.8223
-18.8253
-18.8276
-18.8295
-18.8311
-18.8323
-18.8334
-18.8344
-18.8352
-18.836
-18.8367
-18.8373
-18.8378
-18.8382
-18.8386
-18.8391
-18.8395
-18.8399
-18.8404
-18.8408
-18.8411
-18.8414
-18.8416
-18.8417
-18.8418
-18.8418
-18.8419
-19.3366
-19.3366
-19.3365
-19.3365
-19.3364
-19.3362
-19.3361
-19.3359
-19.3357
-19.3355
-19.3353
-19.3352
-19.335
-19.3349
-19.3349
-19.3348
-19.3348
-19.3347
-19.3346
-19.3345
-19.3344
-19.3343
-19.3342
-19.3341
-19.3339
-19.3336
-19.333
-19.3319
-19.3303
-19.3276
-19.3233
-19.3165
-19.3065
-19.2907
-19.2556
-19.181
-19.0874
-19.0091
-18.9376
-18.8921
-18.8927
-18.9395
-19.0066
-19.0969
-19.1961
-19.2532
-19.2817
-19.2981
-19.3089
-19.3162
-19.3209
-19.3242
-19.3263
-19.3278
-19.3288
-19.3296
-19.3301
-19.3305
-19.3308
-19.3311
-19.3313
-19.3316
-19.3318
-19.332
-19.3322
-19.3324
-19.3325
-19.3326
-19.3328
-19.333
-19.3333
-19.3336
-19.3338
-19.3341
-19.3343
-19.3344
-19.3345
-19.3345
-19.3345
-19.3345
-19.8293
-19.8293
-19.8293
-19.8293
-19.8292
-19.8292
-19.8291
-19.829
-19.829
-19.8289
-19.8289
-19.829
-19.8291
-19.8293
-19.8295
-19.8298
-19.8302
-19.8306
-19.8311
-19.8316
-19.8323
-19.8331
-19.8341
-19.8353
-19.8366
-19.8382
-19.84
-19.842
-19.8443
-19.847
-19.8497
-19.8526
-19.8582
-19.8714
-19.8727
-19.8031
-19.7149
-19.6427
-19.59
-19.5336
-19.5334
-19.5844
-19.632
-19.7171
-19.807
-19.8495
-19.8484
-19.8431
-19.8413
-19.8402
-19.8386
-19.837
-19.8355
-19.8342
-19.8329
-19.8318
-19.8309
-19.8301
-19.8294
-19.8288
-19.8283
-19.8279
-19.8276
-19.8273
-19.8271
-19.8269
-19.8267
-19.8266
-19.8266
-19.8266
-19.8267
-19.8268
-19.8269
-19.8271
-19.8272
-19.8272
-19.8272
-19.8272
-19.8272
-19.8272
-20.322
-20.322
-20.322
-20.322
-20.3221
-20.3221
-20.3221
-20.3221
-20.3222
-20.3223
-20.3225
-20.3227
-20.3231
-20.3235
-20.3241
-20.3247
-20.3255
-20.3264
-20.3274
-20.3286
-20.3301
-20.3318
-20.3339
-20.3364
-20.3394
-20.343
-20.3473
-20.3526
-20.3593
-20.3679
-20.3789
-20.3932
-20.4183
-20.471
-20.5211
-20.446
-20.3049
-20.2736
-20.4238
-20.4339
-20.4563
-20.4016
-20.2372
-20.338
-20.4317
-20.4773
-20.4345
-20.3967
-20.3784
-20.367
-20.358
-20.3509
-20.3454
-20.3409
-20.3373
-20.3342
-20.3317
-20.3296
-20.3279
-20.3264
-20.3252
-20.3242
-20.3233
-20.3226
-20.322
-20.3214
-20.321
-20.3206
-20.3203
-20.3201
-20.3201
-20.32
-20.32
-20.3201
-20.3201
-20.32
-20.32
-20.32
-20.3199
-20.3199
-20.8147
-20.8147
-20.8148
-20.8148
-20.8149
-20.815
-20.8151
-20.8152
-20.8154
-20.8156
-20.816
-20.8164
-20.817
-20.8177
-20.8186
-20.8196
-20.8207
-20.822
-20.8236
-20.8254
-20.8276
-20.8302
-20.8334
-20.8372
-20.8417
-20.8473
-20.8542
-20.8627
-20.8737
-20.8882
-20.9073
-20.9326
-20.9747
-21.056
-21.1406
-21.0913
-20.8023
-20.6282
-21.3314
-21.7103
-21.7011
-21.0859
-20.4139
-20.8712
-21.0596
-21.0936
-21.017
-20.95
-20.9154
-20.8937
-20.8771
-20.8645
-20.8549
-20.8473
-20.8413
-20.8364
-20.8323
-20.829
-20.8262
-20.8239
-20.822
-20.8203
-20.819
-20.8178
-20.8168
-20.8159
-20.8151
-20.8145
-20.814
-20.8136
-20.8134
-20.8132
-20.8131
-20.813
-20.8129
-20.8128
-20.8128
-20.8127
-20.8126
-20.8126
-21.3074
-21.3074
-21.3075
-21.3076
-21.3077
-21.3078
-21.308
-21.3082
-21.3085
-21.3089
-21.3094