/*--------------------------------*- C++ -*----------------------------------*\
| =========                 |                                                 |
| \\      /  F ield         | OpenFOAM: The Open Source CFD Toolbox           |
|  \\    /   O peration     | Version:  2412                                  |
|   \\  /    A nd           | Website:  www.openfoam.com                      |
|    \\/     M anipulation  |                                                 |
\*---------------------------------------------------------------------------*/
FoamFile
{
    version     2.0;
    format      ascii;
    arch        "LSB;label=32;scalar=64";
    class       surfaceScalarField;
    location    "1.35";
    object      phi;
}
// * * * * * * * * * * * * * * * * * * * * * * * * * * * * * * * * * * * * * //

dimensions      [0 3 -1 0 0 0 0];

oriented        oriented;

internalField   nonuniform List<scalar> 
12640
(
3.60677e-13
-3.59577e-13
-6.8932e-12
7.42724e-12
-2.23597e-11
1.5631e-11
-4.43937e-11
2.21729e-11
-7.13255e-11
2.70372e-11
-1.01693e-10
3.04281e-11
-1.34272e-10
3.2592e-11
-1.68081e-10
3.37527e-11
-2.02308e-10
3.41065e-11
-2.36286e-10
3.37791e-11
-2.69462e-10
3.28901e-11
-3.01408e-10
3.15737e-11
-3.31699e-10
2.98234e-11
-3.60048e-10
2.7779e-11
-3.86138e-10
2.54212e-11
-4.09721e-10
2.28153e-11
-4.30577e-10
1.99821e-11
-4.48507e-10
1.69417e-11
-4.63326e-10
1.37177e-11
-4.74866e-10
1.03344e-11
-4.8298e-10
6.81201e-12
-4.87545e-10
3.17205e-12
-4.88462e-10
-5.61967e-13
-4.8566e-10
-4.36057e-12
-4.79092e-10
-8.19563e-12
-4.68736e-10
-1.20388e-11
-4.54603e-10
-1.58539e-11
-4.36744e-10
-1.96023e-11
-4.15245e-10
-2.32497e-11
-3.90227e-10
-2.67625e-11
-3.61849e-10
-3.01035e-11
-3.30308e-10
-3.32344e-11
-2.95842e-10
-3.6119e-11
-2.58722e-10
-3.87244e-11
-2.19252e-10
-4.10198e-11
-1.77767e-10
-4.29759e-11
-1.34636e-10
-4.45641e-11
-9.02516e-11
-4.57596e-11
-4.50293e-11
-4.65454e-11
6.07486e-13
-4.69151e-11
4.62345e-11
-4.68699e-11
9.14317e-11
-4.6415e-11
1.35786e-10
-4.5558e-11
1.78894e-10
-4.43102e-11
2.2037e-10
-4.26896e-11
2.59853e-10
-4.07214e-11
2.97012e-10
-3.84373e-11
3.31552e-10
-3.58721e-11
3.63212e-10
-3.30603e-11
3.91762e-10
-3.00338e-11
4.17005e-10
-2.68224e-11
4.38777e-10
-2.34571e-11
4.56949e-10
-1.99708e-11
4.71426e-10
-1.63972e-11
4.8215e-10
-1.27654e-11
4.8909e-10
-9.09831e-12
4.9224e-10
-5.41429e-12
4.91622e-10
-1.73281e-12
4.87287e-10
1.92316e-12
4.79321e-10
5.52884e-12
4.67837e-10
9.06155e-12
4.52974e-10
1.25006e-11
4.34896e-10
1.58247e-11
4.13787e-10
1.90094e-11
3.89857e-10
2.20236e-11
3.63349e-10
2.48251e-11
3.34543e-10
2.73644e-11
3.03756e-10
2.9596e-11
2.71327e-10
3.14805e-11
2.37647e-10
3.29596e-11
2.03193e-10
3.39363e-11
1.68549e-10
3.42982e-11
1.34393e-10
3.39494e-11
1.01526e-10
3.27665e-11
7.09583e-11
3.05368e-11
4.39305e-11
2.7034e-11
2.18741e-11
2.20671e-11
6.45545e-12
1.54054e-11
-6.86423e-13
7.09257e-12
-7.44388e-13
-6.06283e-12
5.88297e-12
-2.93297e-11
3.10048e-11
-6.95692e-11
5.61275e-11
-1.24066e-10
7.68618e-11
-1.89727e-10
9.28128e-11
-2.63581e-10
1.04284e-10
-3.42942e-10
1.11843e-10
-4.25524e-10
1.16081e-10
-5.09352e-10
1.17527e-10
-5.92797e-10
1.16654e-10
-6.74468e-10
1.13812e-10
-7.53181e-10
1.0936e-10
-8.27935e-10
1.03462e-10
-8.97873e-10
9.63988e-11
-9.62255e-10
8.82801e-11
-1.02042e-09
7.92494e-11
-1.07178e-09
6.94111e-11
-1.11582e-09
5.88542e-11
-1.1521e-09
4.76632e-11
-1.1802e-09
3.59143e-11
-1.19978e-09
2.36882e-11
-1.21053e-09
1.10691e-11
-1.21224e-09
-1.85765e-12
-1.20472e-09
-1.49944e-11
-1.18788e-09
-2.82403e-11
-1.1617e-09
-4.14921e-11
-1.12621e-09
-5.46358e-11
-1.08156e-09
-6.75522e-11
-1.02795e-09
-8.01241e-11
-9.65698e-10
-9.22308e-11
-8.95202e-10
-1.03744e-10
-8.16954e-10
-1.14536e-10
-7.3154e-10
-1.24482e-10
-6.39629e-10
-1.33469e-10
-5.41973e-10
-1.41392e-10
-4.39399e-10
-1.48148e-10
-3.32807e-10
-1.53642e-10
-2.23155e-10
-1.57796e-10
-1.11447e-10
-1.60551e-10
1.29046e-12
-1.6188e-10
1.14018e-10
-1.61776e-10
2.25703e-10
-1.6025e-10
3.35326e-10
-1.57329e-10
4.41902e-10
-1.53055e-10
5.44487e-10
-1.47491e-10
6.42197e-10
-1.40721e-10
7.34218e-10
-1.3285e-10
8.19819e-10
-1.2399e-10
8.98347e-10
-1.14256e-10
9.69233e-10
-1.03759e-10
1.03199e-09
-9.26092e-11
1.08621e-09
-8.09159e-11
1.13158e-09
-6.87924e-11
1.16786e-09
-5.63487e-11
1.19489e-09
-4.36822e-11
1.2126e-09
-3.08753e-11
1.22096e-09
-1.80019e-11
1.22002e-09
-5.13817e-12
1.20992e-09
7.63445e-12
1.19083e-09
2.02326e-11
1.16303e-09
3.25748e-11
1.12683e-09
4.45794e-11
1.08263e-09
5.61619e-11
1.03087e-09
6.72281e-11
9.72072e-10
7.76611e-11
9.06844e-10
8.73128e-11
8.35889e-10
9.6019e-11
7.59995e-10
1.03626e-10
6.80059e-10
1.09968e-10
5.97134e-10
1.14813e-10
5.1247e-10
1.17854e-10
4.27517e-10
1.1877e-10
3.43964e-10
1.17219e-10
2.63814e-10
1.12762e-10
1.89407e-10
1.04858e-10
1.23407e-10
9.29737e-11
6.87916e-11
7.66326e-11
2.86347e-11
5.55271e-11
5.66326e-12
3.00404e-11
4.87995e-12
-1.36821e-11
1.973e-11
-5.3369e-11
7.09616e-11
-1.15832e-10
1.1881e-10
-1.97197e-10
1.58373e-10
-2.93517e-10
1.89213e-10
-4.01008e-10
2.11753e-10
-5.16162e-10
2.26864e-10
-6.35883e-10
2.35533e-10
-7.57423e-10
2.38664e-10
-8.78448e-10
2.37121e-10
-9.96985e-10
2.3162e-10
-1.11125e-09
2.22732e-10
-1.21981e-09
2.10943e-10
-1.32136e-09
1.9669e-10
-1.41481e-09
1.80275e-10
-1.49917e-09
1.61979e-10
-1.57359e-09
1.42021e-10
-1.63731e-09
1.20572e-10
-1.68965e-09
9.78236e-11
-1.73002e-09
7.39472e-11
-1.75793e-09
4.91051e-11
-1.77295e-09
2.34671e-11
-1.77474e-09
-2.7862e-12
-1.76308e-09
-2.94569e-11
-1.73782e-09
-5.63408e-11
-1.69894e-09
-8.32289e-11
-1.64652e-09
-1.09898e-10
-1.58076e-09
-1.36116e-10
-1.50199e-09
-1.61642e-10
-1.41065e-09
-1.86228e-10
-1.30734e-09
-2.09614e-10
-1.19277e-09
-2.31541e-10
-1.06781e-09
-2.51762e-10
-9.33424e-10
-2.70043e-10
-7.90714e-10
-2.86165e-10
-6.40883e-10
-2.99922e-10
-4.85233e-10
-3.11124e-10
-3.25147e-10
-3.19614e-10
-1.62073e-10
-3.25274e-10
2.50157e-12
-3.28036e-10
1.6707e-10
-3.27878e-10
3.3013e-10
-3.24816e-10
4.90203e-10
-3.18902e-10
6.4586e-10
-3.10224e-10
7.95732e-10
-2.9891e-10
9.38539e-10
-2.85127e-10
1.0731e-09
-2.6908e-10
1.19834e-09
-2.50991e-10
1.3133e-09
-2.31092e-10
1.41716e-09
-2.09615e-10
1.50921e-09
-1.86788e-10
1.58884e-09
-1.62843e-10
1.65561e-09
-1.38012e-10
1.70915e-09
-1.12518e-10
1.74924e-09
-8.65651e-11
1.77573e-09
-6.03346e-11
1.7886e-09
-3.3997e-11
1.78792e-09
-7.72012e-12
1.77387e-09
1.83267e-11
1.74671e-09
4.39737e-11
1.70682e-09
6.90512e-11
1.65465e-09
9.33894e-11
1.59076e-09
1.16817e-10
1.5158e-09
1.39144e-10
1.43053e-09
1.60135e-10
1.33586e-09
1.795e-10
1.23279e-09
1.9693e-10
1.12249e-09
2.1211e-10
1.00633e-09
2.2467e-10
8.85877e-10
2.34121e-10
7.62959e-10
2.39915e-10
6.39638e-10
2.41468e-10
5.18351e-10
2.38064e-10
4.01931e-10
2.28867e-10
2.93508e-10
2.13039e-10
1.96604e-10
1.8967e-10
1.1505e-10
1.57997e-10
5.26886e-11
1.17743e-10
1.33289e-11
6.93541e-11
1.81954e-11
-2.02419e-11
4.01166e-11
-7.45048e-11
1.25444e-10
-1.56423e-10
2.00914e-10
-2.60624e-10
2.6269e-10
-3.82306e-10
3.10937e-10
-5.1705e-10
3.46443e-10
-6.6075e-10
3.70406e-10
-8.09777e-10
3.8427e-10
-9.60911e-10
3.89381e-10
-1.11129e-09
3.86937e-10
-1.25852e-09
3.78121e-10
-1.40044e-09
3.63762e-10
-1.53524e-09
3.44691e-10
-1.66133e-09
3.21551e-10
-1.77732e-09
2.94863e-10
-1.882e-09
2.6508e-10
-1.97429e-09
2.32574e-10
-2.05324e-09
1.97629e-10
-2.11799e-09
1.60546e-10
-2.16782e-09
1.2162e-10
-2.2021e-09
8.1117e-11
-2.22028e-09
3.9313e-11
-2.22195e-09
-3.49043e-12
-2.20683e-09
-4.69721e-11
-2.17475e-09
-9.08023e-11
-2.12568e-09
-1.3464e-10
-2.05971e-09
-1.78128e-10
-1.97711e-09
-2.20891e-10
-1.87827e-09
-2.62539e-10
-1.76377e-09
-3.02664e-10
-1.63433e-09
-3.40843e-10
-1.49086e-09
-3.76657e-10
-1.33442e-09
-4.097e-10
-1.16624e-09
-4.39589e-10
-9.87685e-10
-4.65961e-10
-8.00248e-10
-4.88478e-10
-6.05553e-10
-5.06835e-10
-4.05326e-10
-5.20772e-10
-2.01368e-10
-5.30091e-10
4.4618e-12
-5.34673e-10
2.10283e-10
-5.34469e-10
4.1422e-10
-5.295e-10
6.14428e-10
-5.1985e-10
8.09121e-10
-5.05664e-10
9.96596e-10
-4.8715e-10
1.17525e-09
-4.6458e-10
1.34362e-09
-4.38278e-10
1.50036e-09
-4.08607e-10
1.64427e-09
-3.75944e-10
1.77433e-09
-3.40674e-10
1.88964e-09
-3.0318e-10
1.98947e-09
-2.6385e-10
2.07326e-09
-2.23065e-10
2.14055e-09
-1.81194e-10
2.19105e-09
-1.38582e-10
2.2246e-09
-9.5546e-11
2.24118e-09
-5.23841e-11
2.24088e-09
-9.3824e-12
2.22391e-09
3.31781e-11
2.1906e-09
7.50164e-11
2.1414e-09
1.15852e-10
2.0769e-09
1.55411e-10
1.99778e-09
1.93424e-10
1.90483e-09
2.29588e-10
1.79902e-09
2.63526e-10
1.68145e-09
2.94791e-10
1.55339e-09
3.22905e-10
1.4163e-09
3.47353e-10
1.27189e-09
3.67495e-10
1.12212e-09
3.82569e-10
9.69206e-10
3.9175e-10
8.15697e-10
3.94115e-10
6.64548e-10
3.88528e-10
5.19085e-10
3.73791e-10
3.83007e-10
3.48696e-10
2.60459e-10
3.11893e-10
1.55865e-10
2.62339e-10
7.39209e-11
1.99505e-10
1.9878e-11
1.23334e-10
3.8065e-11
-2.54177e-11
6.56589e-11
-9.18779e-11
1.92062e-10
-1.90419e-10
2.99579e-10
-3.14121e-10
3.86455e-10
-4.57235e-10
4.54045e-10
-6.14691e-10
5.03797e-10
-7.819e-10
5.37416e-10
-9.54778e-10
5.56819e-10
-1.12974e-09
5.63894e-10
-1.30362e-09
5.60226e-10
-1.47368e-09
5.47432e-10
-1.63752e-09
5.26696e-10
-1.79307e-09
4.99185e-10
-1.93854e-09
4.65797e-10
-2.07236e-09
4.27285e-10
-2.19311e-09
3.84285e-10
-2.29956e-09
3.37336e-10
-2.3906e-09
2.86867e-10
-2.46526e-09
2.333e-10
-2.52267e-09
1.7705e-10
-2.56208e-09
1.18502e-10
-2.58286e-09
5.8058e-11
-2.58452e-09
-3.8454e-12
-2.56671e-09
-6.67458e-11
-2.52922e-09
-1.30167e-10
-2.47202e-09
-1.93616e-10
-2.39521e-09
-2.5658e-10
-2.29907e-09
-3.18522e-10
-2.18406e-09
-3.78877e-10
-2.05083e-09
-4.37051e-10
-1.90024e-09
-4.92436e-10
-1.73332e-09
-5.44424e-10
-1.55129e-09
-5.92423e-10
-1.35558e-09
-6.3587e-10
-1.14776e-09
-6.74233e-10
-9.29582e-10
-7.07017e-10
-7.02937e-10
-7.33771e-10
-4.69836e-10
-7.54111e-10
-2.32384e-10
-7.67746e-10
7.24709e-12
-7.74487e-10
2.4686e-10
-7.74256e-10
4.84262e-10
-7.67078e-10
7.17299e-10
-7.53071e-10
9.43885e-10
-7.32446e-10
1.16203e-09
-7.05508e-10
1.36988e-09
-6.7265e-10
1.56571e-09
-6.3434e-10
1.74797e-09
-5.91104e-10
1.91527e-09
-5.43492e-10
2.06642e-09
-4.92072e-10
2.2004e-09
-4.37412e-10
2.31637e-09
-3.80082e-10
2.41368e-09
-3.20647e-10
2.49182e-09
-2.5965e-10
2.55048e-09
-1.97607e-10
2.5895e-09
-1.35002e-10
2.60885e-09
-7.22846e-11
2.60867e-09
-9.88282e-12
2.5892e-09
5.17855e-11
2.55086e-09
1.12303e-10
2.49419e-09
1.71263e-10
2.41984e-09
2.28281e-10
2.32859e-09
2.82981e-10
2.2214e-09
3.34937e-10
2.09934e-09
3.83624e-10
1.96368e-09
4.28439e-10
1.81588e-09
4.6873e-10
1.6576e-09
5.03741e-10
1.49079e-09
5.32563e-10
1.31766e-09
5.54156e-10
1.14071e-09
5.67362e-10
9.62857e-10
5.70827e-10
7.87391e-10
5.63045e-10
6.17978e-10
5.42419e-10
4.58828e-10
5.07217e-10
3.14555e-10
4.55694e-10
1.90225e-10
3.86343e-10
9.14704e-11
2.98053e-10
2.5126e-11
1.89594e-10
6.31587e-11
-2.95033e-11
9.52596e-11
-1.06129e-10
2.68777e-10
-2.1896e-10
4.12466e-10
-3.59627e-10
5.27121e-10
-5.21393e-10
6.15744e-10
-6.9846e-10
6.80708e-10
-8.85753e-10
7.24463e-10
-1.07882e-09
7.4951e-10
-1.27371e-09
7.58291e-10
-1.46704e-09
7.52941e-10
-1.65586e-09
7.35479e-10
-1.83762e-09
7.07532e-10
-2.01008e-09
6.70577e-10
-2.1713e-09
6.25813e-10
-2.3196e-09
5.74231e-10
-2.45346e-09
5.16662e-10
-2.57151e-09
4.53797e-10
-2.67253e-09
3.86222e-10
-2.75543e-09
3.14492e-10
-2.81924e-09
2.39134e-10
-2.86309e-09
1.60653e-10
-2.88626e-09
7.95848e-11
-2.88817e-09
-3.48358e-12
-2.8684e-09
-8.7934e-11
-2.82671e-09
-1.73129e-10
-2.76301e-09
-2.5841e-10
-2.67742e-09
-3.4309e-10
-2.57021e-09
-4.26452e-10
-2.44189e-09
-5.07735e-10
-2.29316e-09
-5.86144e-10
-2.12494e-09
-6.60859e-10
-1.93836e-09
-7.31057e-10
-1.7348e-09
-7.95932e-10
-1.51582e-09
-8.54713e-10
-1.28319e-09
-9.06666e-10
-1.03887e-09
-9.51105e-10
-7.84994e-10
-9.8741e-10
-5.23826e-10
-1.01505e-09
-2.57751e-10
-1.03362e-09
1.07762e-11
-1.04285e-09
2.79268e-10
-1.04263e-09
5.45243e-10
-1.03298e-09
8.06265e-10
-1.01406e-09
1.05998e-09
-9.8616e-10
1.30414e-09
-9.49697e-10
1.53665e-09
-9.05202e-10
1.75559e-09
-8.53312e-10
1.9592e-09
-7.94738e-10
2.14596e-09
-7.30235e-10
2.31453e-09
-6.60578e-10
2.46379e-09
-5.86552e-10
2.59285e-09
-5.08938e-10
2.70098e-09
-4.28508e-10
2.78768e-09
-3.46008e-10
2.85263e-09
-2.62154e-10
2.89568e-09
-1.77615e-10
2.91684e-09
-9.30165e-11
2.9163e-09
-8.95188e-12
2.89437e-09
7.39957e-11
2.85155e-09
1.55249e-10
2.78845e-09
2.34258e-10
2.70583e-09
3.10522e-10
2.60456e-09
3.83554e-10
2.48569e-09
4.52797e-10
2.35042e-09
5.17593e-10
2.2001e-09
5.77204e-10
2.03631e-09
6.30799e-10
1.86086e-09
6.77381e-10
1.67582e-09
7.15791e-10
1.48354e-09
7.44711e-10
1.28676e-09
7.62568e-10
1.08862e-09
7.67571e-10
8.92625e-10
7.57841e-10
7.02813e-10
7.31232e-10
5.23779e-10
6.85443e-10
3.6062e-10
6.18241e-10
2.19131e-10
5.27418e-10
1.05915e-10
4.11015e-10
2.93286e-11
2.66045e-10
9.24048e-11
-3.28444e-11
1.28163e-10
-1.1817e-10
3.54106e-10
-2.4358e-10
5.37856e-10
-3.99422e-10
6.82889e-10
-5.7796e-10
7.94147e-10
-7.72641e-10
8.75168e-10
-9.77788e-10
9.29312e-10
-1.1886e-09
9.59895e-10
-1.40082e-09
9.69978e-10
-1.61088e-09
9.62348e-10
-1.81567e-09
9.39472e-10
-2.01256e-09
9.0349e-10
-2.19924e-09
8.56195e-10
-2.3737e-09
7.99095e-10
-2.53418e-09
7.33428e-10
-2.67911e-09
6.60209e-10
-2.80704e-09
5.80285e-10
-2.91666e-09
4.9438e-10
-3.00679e-09
4.03167e-10
-3.07634e-09
3.07277e-10
-3.12432e-09
2.07331e-10
-3.14992e-09
1.04005e-10
-3.15246e-09
-1.95842e-12
-3.13144e-09
-1.09775e-10
-3.08656e-09
-2.18632e-10
-3.0177e-09
-3.27691e-10
-2.92491e-09
-4.36078e-10
-2.80849e-09
-5.4288e-10
-2.66893e-09
-6.47127e-10
-2.50696e-09
-7.478e-10
-2.32355e-09
-8.43845e-10
-2.11991e-09
-9.34197e-10
-1.89749e-09
-1.0178e-09
-1.65801e-09
-1.09365e-09
-1.4034e-09
-1.16077e-09
-1.13582e-09
-1.21824e-09
-8.57622e-10
-1.26524e-09
-5.71331e-10
-1.30107e-09
-2.79594e-10
-1.32519e-09
1.48564e-11
-1.33725e-09
3.09249e-10
-1.33708e-09
6.0082e-10
-1.32471e-09
8.86856e-10
-1.30035e-09
1.16474e-09
-1.26436e-09
1.43197e-09
-1.21731e-09
1.68624e-09
-1.15988e-09
1.92542e-09
-1.0929e-09
2.1476e-09
-1.0173e-09
2.35111e-09
-9.3407e-10
2.53452e-09
-8.44231e-10
2.69663e-09
-7.48806e-10
2.83651e-09
-6.48816e-10
2.95342e-09
-5.45265e-10
3.04686e-09
-4.39126e-10
3.11653e-09
-3.31329e-10
3.16234e-09
-2.22748e-10
3.18436e-09
-1.14201e-10
3.18283e-09
-6.47071e-12
3.15816e-09
9.96643e-11
3.11096e-09
2.03441e-10
3.04194e-09
3.04152e-10
2.95196e-09
4.01165e-10
2.84199e-09
4.93864e-10
2.71318e-09
5.81571e-10
2.56678e-09
6.63525e-10
2.40423e-09
7.38881e-10
2.22714e-09
8.06646e-10
2.03738e-09
8.65616e-10
1.83707e-09
9.14401e-10
1.62865e-09
9.51366e-10
1.41499e-09
9.74512e-10
1.19933e-09
9.81635e-10
9.85407e-10
9.70354e-10
7.77602e-10
9.37843e-10
5.80845e-10
8.81231e-10
4.0079e-10
7.97555e-10
2.43998e-10
6.83692e-10
1.18118e-10
5.36553e-10
3.27704e-11
3.51161e-10
1.2502e-10
-3.57411e-11
1.63921e-10
-1.28847e-10
4.47121e-10
-2.65793e-10
6.74692e-10
-4.35752e-10
8.52694e-10
-6.29944e-10
9.88127e-10
-8.41034e-10
1.08596e-09
-1.0627e-09
1.15062e-09
-1.28971e-09
1.18642e-09
-1.51753e-09
1.19723e-09
-1.74246e-09
1.18658e-09
-1.96129e-09
1.15749e-09
-2.17136e-09
1.11263e-09
-2.37035e-09
1.05415e-09
-2.55628e-09
9.83894e-10
-2.72736e-09
9.03318e-10
-2.88199e-09
8.1361e-10
-3.01869e-09
7.15747e-10
-3.13608e-09
6.1057e-10
-3.23287e-09
4.98841e-10
-3.30787e-09
3.81276e-10
-3.35998e-09
2.58603e-10
-3.38826e-09
1.31633e-10
-3.39191e-09
1.26888e-12
-3.37036e-09
-1.31528e-10
-3.32321e-09
-2.65759e-10
-3.25028e-09
-4.00391e-10
-3.15157e-09
-5.34355e-10
-3.02734e-09
-6.66524e-10
-2.87806e-09
-7.95705e-10
-2.70445e-09
-9.20638e-10
-2.50749e-09
-1.04001e-09
-2.28844e-09
-1.15248e-09
-2.04884e-09
-1.25671e-09
-1.79051e-09
-1.3514e-09
-1.51554e-09
-1.4353e-09
-1.22629e-09
-1.50722e-09
-9.2534e-10
-1.5661e-09
-6.15462e-10
-1.61105e-09
-2.99579e-10
-1.64137e-09
1.92876e-11
-1.6566e-09
3.38071e-10
-1.65651e-09
6.53711e-10
-1.64115e-09
9.63204e-10
-1.61077e-09
1.26366e-09
-1.56586e-09
1.55232e-09
-1.5071e-09
1.82666e-09
-1.43538e-09
2.08434e-09
-1.35178e-09
2.32332e-09
-1.25746e-09
2.5418e-09
-1.1537e-09
2.73826e-09
-1.04178e-09
2.91149e-09
-9.23005e-10
3.06051e-09
-7.98663e-10
3.18462e-09
-6.70012e-10
3.28334e-09
-5.38268e-10
3.35644e-09
-4.04587e-10
3.40387e-09
-2.70052e-10
3.42578e-09
-1.35684e-10
3.42253e-09
-2.47992e-12
3.39464e-09
1.28566e-10
3.34283e-09
2.56481e-10
3.26796e-09
3.80376e-10
3.17102e-09
4.99459e-10
3.05312e-09
6.12969e-10
2.91546e-09
7.20122e-10
2.75937e-09
8.20089e-10
2.58629e-09
9.11944e-10
2.39785e-09
9.94572e-10
2.19586e-09
1.06662e-09
1.98244e-09
1.12648e-09
1.76006e-09
1.17215e-09
1.53159e-09
1.20128e-09
1.30033e-09
1.2112e-09
1.07027e-09
1.19886e-09
8.45992e-10
1.16075e-09
6.32875e-10
1.09322e-09
4.37194e-10
9.92354e-10
2.66287e-10
8.53944e-10
1.28898e-10
6.73458e-10
3.57164e-11
4.43965e-10
1.60482e-10
-3.8438e-11
2.02325e-10
-1.38946e-10
5.47435e-10
-2.87043e-10
8.22582e-10
-4.70781e-10
1.03619e-09
-6.80269e-10
1.19732e-09
-9.07234e-10
1.31255e-09
-1.1447e-09
1.38766e-09
-1.38698e-09
1.42814e-09
-1.62928e-09
1.43891e-09
-1.86776e-09
1.42433e-09
-2.09925e-09
1.38815e-09
-2.32109e-09
1.33354e-09
-2.53104e-09
1.26311e-09
-2.72715e-09
1.17896e-09
-2.90772e-09
1.08281e-09
-3.07113e-09
9.75967e-10
-3.2159e-09
8.5952e-10
-3.3406e-09
7.34374e-10
-3.44385e-09
6.01337e-10
-3.52432e-09
4.61175e-10
-3.58078e-09
3.14709e-10
-3.61215e-09
1.62876e-10
-3.61751e-09
6.74344e-12
-3.59615e-09
-1.5254e-10
-3.54759e-09
-3.1377e-10
-3.47154e-09
-4.75712e-10
-3.36796e-09
-6.37085e-10
-3.23702e-09
-7.96544e-10
-3.07913e-09
-9.52657e-10
-2.89499e-09
-1.1039e-09
-2.68554e-09
-1.24867e-09
-2.45208e-09
-1.38532e-09
-2.19619e-09
-1.51217e-09
-1.91981e-09
-1.62759e-09
-1.62519e-09
-1.72998e-09
-1.31488e-09
-1.81785e-09
-9.91684e-10
-1.88987e-09
-6.58657e-10
-1.94491e-09
-3.19013e-10
-1.98208e-09
2.39109e-11
-2.0008e-09
3.66723e-10
-2.0008e-09
7.06036e-10
-1.9821e-09
1.03853e-09
-1.94504e-09
1.361e-09
-1.89022e-09
1.67045e-09
-1.81851e-09
1.96408e-09
-1.73105e-09
2.23938e-09
-1.62916e-09
2.49415e-09
-1.51433e-09
2.7265e-09
-1.38814e-09
2.93486e-09
-1.25221e-09
3.11797e-09
-1.10814e-09
3.27489e-09
-9.57514e-10
3.40496e-09
-8.01878e-10
3.50778e-09
-6.42697e-10
3.58317e-09
-4.81354e-10
3.6312e-09
-3.19141e-10
3.6521e-09
-1.57283e-10
3.64634e-09
3.00559e-12
3.61459e-09
1.60497e-10
3.55773e-09
3.13995e-10
3.47678e-09
4.62402e-10
3.37291e-09
6.0473e-10
3.24739e-09
7.40062e-10
3.10152e-09
8.67524e-10
2.93665e-09
9.86243e-10
2.75423e-09
1.09524e-09
2.55583e-09
1.19333e-09
2.34318e-09
1.27907e-09
2.1183e-09
1.35063e-09
1.8836e-09
1.40568e-09
1.64184e-09
1.44156e-09
1.39638e-09
1.45505e-09
1.15134e-09
1.44229e-09
9.1149e-10
1.39912e-09
6.82695e-10
1.32074e-09
4.71941e-10
1.20206e-09
2.87441e-10
1.03761e-09
1.38998e-10
8.21221e-10
3.8413e-11
5.43976e-10
1.9851e-10
-4.11431e-11
2.4338e-10
-1.49244e-10
6.55236e-10
-3.08847e-10
9.81874e-10
-5.06744e-10
1.23374e-09
-7.31815e-10
1.42202e-09
-9.74735e-10
1.55501e-09
-1.22777e-09
1.6402e-09
-1.4848e-09
1.68455e-09
-1.7408e-09
1.69425e-09
-1.99187e-09
1.67466e-09
-2.23494e-09
1.63038e-09
-2.46744e-09
1.56516e-09
-2.68727e-09
1.48201e-09
-2.89262e-09
1.38338e-09
-3.08185e-09
1.27113e-09
-3.25342e-09
1.14671e-09
-3.40586e-09
1.01124e-09
-3.53768e-09
8.65653e-10
-3.64742e-09
7.1073e-10
-3.73361e-09
5.47246e-10
-3.79486e-09
3.76078e-10
-3.82989e-09
1.98274e-10
-3.83763e-09
1.5073e-11
-3.81723e-09
-1.7216e-10
-3.76809e-09
-3.61995e-10
-3.68982e-09
-5.52979e-10
-3.58227e-09
-7.43617e-10
-3.44551e-09
-9.3234e-10
-3.27987e-09
-1.11747e-09
-3.08594e-09
-1.29718e-09
-2.86464e-09
-1.46956e-09
-2.61725e-09
-1.63258e-09
-2.3454e-09
-1.78419e-09
-2.05112e-09
-1.92234e-09
-1.73682e-09
-2.04507e-09
-1.40525e-09
-2.15051e-09
-1.05948e-09
-2.237e-09
-7.02853e-10
-2.30314e-09
-3.38917e-10
-2.34783e-09
2.86353e-11
-2.37034e-09
3.9604e-10
-2.37034e-09
7.59537e-10
-2.34785e-09
1.11544e-09
-2.30328e-09
1.46022e-09
-2.23741e-09
1.79056e-09
-2.15132e-09
2.10343e-09
-2.04643e-09
2.39611e-09
-1.92439e-09
2.66625e-09
-1.78706e-09
2.91186e-09
-1.63639e-09
3.13136e-09
-1.47437e-09
3.32349e-09
-1.30297e-09
3.48737e-09
-1.12411e-09
3.62241e-09
-9.39641e-10
3.72831e-09
-7.5129e-10
3.80502e-09
-5.60666e-10
3.85271e-09
-3.69254e-10
3.87173e-09
-1.78469e-10
3.86268e-09
1.02638e-11
3.82638e-09
1.95489e-10
3.76388e-09
3.75778e-10
3.67642e-09
5.49803e-10
3.56538e-09
7.16362e-10
3.43225e-09
8.74375e-10
3.27844e-09
1.02289e-09
3.10536e-09
1.16101e-09
2.91443e-09
1.28772e-09
2.70712e-09
1.40182e-09
2.48503e-09
1.50181e-09
2.25002e-09
1.58569e-09
2.00429e-09
1.6509e-09
1.75047e-09
1.69438e-09
1.49185e-09
1.71232e-09
1.23253e-09
1.7001e-09
9.77552e-10
1.6526e-09
7.33206e-10
1.5637e-09
5.07229e-10
1.42683e-09
3.089e-10
1.23491e-09
1.49164e-10
9.80055e-10
4.10974e-11
6.51235e-10
2.39094e-10
-4.41009e-11
2.87334e-10
-1.6058e-10
7.71313e-10
-3.32844e-10
1.15373e-09
-5.46108e-10
1.44657e-09
-7.87701e-10
1.66315e-09
-1.04714e-09
1.8139e-09
-1.31586e-09
1.90837e-09
-1.58733e-09
1.95536e-09
-1.85641e-09
1.96262e-09
-2.11926e-09
1.93674e-09
-2.37294e-09
1.88325e-09
-2.61512e-09
1.80651e-09
-2.8439e-09
1.70997e-09
-3.05766e-09
1.59636e-09
-3.2549e-09
1.46769e-09
-3.43418e-09
1.32544e-09
-3.59405e-09
1.17074e-09
-3.73301e-09
1.00445e-09
-3.84948e-09
8.27275e-10
-3.94183e-09
6.39922e-10
-4.00846e-09
4.43267e-10
-4.04786e-09
2.38448e-10
-4.05875e-09
2.69001e-11
-4.04011e-09
-1.89748e-10
-3.99123e-09
-4.09806e-10
-3.91159e-09
-6.3159e-10
-3.80092e-09
-8.53397e-10
-3.65912e-09
-1.07344e-09
-3.48639e-09
-1.28976e-09
-3.28319e-09
-1.50025e-09
-3.05037e-09
-1.7026e-09
-2.78916e-09
-1.89436e-09
-2.50122e-09
-2.07303e-09
-2.18867e-09
-2.23612e-09
-1.85407e-09
-2.38118e-09
-1.50041e-09
-2.50593e-09
-1.13102e-09
-2.60834e-09
-7.496e-10
-2.68666e-09
-3.60072e-10
-2.73955e-09
3.34546e-11
-2.76612e-09
4.26783e-10
-2.76593e-09
8.15719e-10
-2.73905e-09
1.19616e-09
-2.68597e-09
1.56419e-09
-2.60765e-09
1.91617e-09
-2.50548e-09
2.24877e-09
-2.38119e-09
2.55907e-09
-2.23685e-09
2.84456e-09
-2.07474e-09
3.1032e-09
-1.89726e-09
3.33337e-09
-1.70685e-09
3.53387e-09
-1.5059e-09
3.70391e-09
-1.29673e-09
3.84304e-09
-1.08153e-09
3.95112e-09
-8.623e-10
4.02825e-09
-6.40886e-10
4.07473e-09
-4.18942e-10
4.09106e-09
-1.98045e-10
4.07797e-09
2.02012e-11
4.03643e-09
2.34128e-10
3.96767e-09
4.42075e-10
3.87318e-09
6.42478e-10
3.75461e-09
8.33931e-10
3.61367e-09
1.01522e-09
3.45198e-09
1.18533e-09
3.27101e-09
1.34334e-09
3.07216e-09
1.48825e-09
2.85676e-09
1.61888e-09
2.62626e-09
1.73368e-09
2.38227e-09
1.83055e-09
2.12667e-09
1.90675e-09
1.86185e-09
1.95885e-09
1.59094e-09
1.98237e-09
1.31784e-09
1.97199e-09
1.0478e-09
1.92125e-09
7.87537e-10
1.82257e-09
5.45532e-10
1.66751e-09
3.32283e-10
1.44694e-09
1.60233e-10
1.15097e-09
4.39882e-11
7.66415e-10
2.82454e-10
-4.76249e-11
3.34754e-10
-1.74053e-10
8.97244e-10
-3.61071e-10
1.34026e-09
-5.91789e-10
1.67677e-09
-8.51544e-10
1.92237e-09
-1.12845e-09
2.09018e-09
-1.41317e-09
2.19246e-09
-1.69879e-09
2.2403e-09
-1.98026e-09
2.24335e-09
-2.25398e-09
2.20968e-09
-2.51727e-09
2.14576e-09
-2.76813e-09
2.05661e-09
-3.00494e-09
1.94609e-09
-3.22632e-09
1.81715e-09
-3.43097e-09
1.67189e-09
-3.61757e-09
1.51179e-09
-3.78474e-09
1.33788e-09
-3.93095e-09
1.15087e-09
-4.05452e-09
9.513e-10
-4.15363e-09
7.39712e-10
-4.22638e-09
5.16893e-10
-4.27096e-09
2.84048e-10
-4.28584e-09
4.28586e-11
-4.26983e-09
-2.04695e-10
-4.22208e-09
-4.56609e-10
-4.14194e-09
-7.10972e-10
-4.02895e-09
-9.65891e-10
-3.88285e-09
-1.21937e-09
-3.70361e-09
-1.4692e-09
-3.49153e-09
-1.7129e-09
-3.2473e-09
-1.94775e-09
-2.9721e-09
-2.17083e-09
-2.6676e-09
-2.37909e-09
-2.33598e-09
-2.56951e-09
-1.97998e-09
-2.73911e-09
-1.60283e-09
-2.88511e-09
-1.20819e-09
-3.00502e-09
-8.00143e-10
-3.09671e-09
-3.83065e-10
-3.15854e-09
3.84474e-11
-3.18942e-09
4.59687e-10
-3.18881e-09
8.75952e-10
-3.15678e-09
1.28266e-09
-3.09397e-09
1.67545e-09
-3.00158e-09
2.0503e-09
-2.88131e-09
2.40357e-09
-2.73533e-09
2.73211e-09
-2.56618e-09
3.03326e-09
-2.37664e-09
3.30489e-09
-2.16965e-09
3.54541e-09
-1.94819e-09
3.75372e-09
-1.71517e-09
3.92918e-09
-1.47335e-09
4.07155e-09
-1.22534e-09
4.1809e-09
-9.7345e-10
4.25754e-09
-7.19746e-10
4.30196e-09
-4.66033e-10
4.31482e-09
-2.1401e-10
4.29696e-09
3.45737e-11
4.24952e-09
2.77851e-10
4.17392e-09
5.13912e-10
4.07191e-09
7.40968e-10
3.94544e-09
9.5747e-10
3.7965e-09
1.16216e-09
3.62692e-09
1.35404e-09
3.43829e-09
1.53217e-09
3.23198e-09
1.69561e-09
3.00921e-09
1.8432e-09
2.77121e-09
1.97335e-09
2.51929e-09
2.08392e-09
2.25496e-09
2.17206e-09
1.98026e-09
2.23393e-09
1.69788e-09
2.26451e-09
1.41151e-09
2.25762e-09
1.12632e-09
2.20534e-09
8.49339e-10
2.09825e-09
5.89847e-10
1.92563e-09
3.59686e-10
1.67573e-09
1.73302e-10
1.33599e-09
4.73759e-11
8.91016e-10
3.29074e-10
-5.21567e-11
3.86655e-10
-1.91232e-10
1.03574e-09
-3.96425e-10
1.5449e-09
-6.47714e-10
1.92747e-09
-9.27858e-10
2.20193e-09
-1.22336e-09
2.38502e-09
-1.52427e-09
2.49263e-09
-1.82354e-09
2.53884e-09
-2.11648e-09
2.53554e-09
-2.3999e-09
2.49236e-09
-2.6716e-09
2.41674e-09
-2.93e-09
2.31435e-09
-3.17385e-09
2.1894e-09
-3.40204e-09
2.04496e-09
-3.61348e-09
1.88315e-09
-3.80702e-09
1.70537e-09
-3.98135e-09
1.5125e-09
-4.13497e-09
1.30502e-09
-4.26607e-09
1.08316e-09
-4.37261e-09
8.47181e-10
-4.45233e-09
5.97646e-10
-4.503e-09
3.35781e-10
-4.52276e-09
6.36136e-11
-4.51025e-09
-2.16365e-10
-4.46451e-09
-5.01759e-10
-4.38476e-09
-7.9045e-10
-4.27032e-09
-1.08042e-09
-4.12066e-09
-1.36951e-09
-3.93548e-09
-1.65524e-09
-3.71482e-09
-1.93477e-09
-3.4592e-09
-2.20487e-09
-3.16966e-09
-2.46207e-09
-2.84785e-09
-2.70273e-09
-2.49604e-09
-2.92318e-09
-2.11713e-09
-3.11982e-09
-1.71462e-09
-3.28928e-09
-1.29258e-09
-3.42852e-09
-8.55518e-10
-3.53497e-09
-4.08353e-10
-3.60662e-09
4.37425e-11
-3.64212e-09
4.95462e-10
-3.64082e-09
9.4151e-10
-3.60282e-09
1.37674e-09
-3.52891e-09
1.79629e-09
-3.42057e-09
2.19568e-09
-3.27992e-09
2.57093e-09
-3.1096e-09
2.91861e-09
-2.91271e-09
3.23591e-09
-2.69266e-09
3.52064e-09
-2.45304e-09
3.77126e-09
-2.19745e-09
3.98681e-09
-1.92942e-09
4.1669e-09
-1.65227e-09
4.31155e-09
-1.36906e-09
4.42116e-09
-1.08249e-09
4.49634e-09
-7.94849e-10
4.5378e-09
-5.08061e-10
4.54637e-09
-2.23894e-10
4.52303e-09
5.57982e-11
4.46903e-09
3.28913e-10
4.38606e-09
5.93212e-10
4.27618e-09
8.46667e-10
4.14163e-09
1.08772e-09
3.98466e-09
1.31529e-09
3.8073e-09
1.52852e-09
3.61129e-09
1.72657e-09
3.39801e-09
1.90856e-09
3.16855e-09
2.07334e-09
2.92395e-09
2.2193e-09
2.66516e-09
2.34428e-09
2.39334e-09
2.44532e-09
2.10999e-09
2.51828e-09
1.81722e-09
2.55772e-09
1.51827e-09
2.55641e-09
1.21792e-09
2.50501e-09
9.23207e-10
2.3919e-09
6.44109e-10
2.20342e-09
3.94039e-10
1.92435e-09
1.89978e-10
1.5385e-09
5.17582e-11
1.0277e-09
3.79954e-10
-5.85601e-11
4.44921e-10
-2.14726e-10
1.19127e-09
-4.43293e-10
1.77285e-09
-7.19426e-10
2.20294e-09
-1.02255e-09
2.5044e-09
-1.33759e-09
2.69943e-09
-1.65436e-09
2.80865e-09
-1.96623e-09
2.84995e-09
-2.26918e-09
2.83777e-09
-2.56077e-09
2.78325e-09
-2.83942e-09
2.69477e-09
-3.10407e-09
2.5785e-09
-3.35385e-09
2.43885e-09
-3.58796e-09
2.27893e-09
-3.80551e-09
2.1008e-09
-4.00552e-09
1.90572e-09
-4.18681e-09
1.69437e-09
-4.3479e-09
1.4669e-09
-4.48694e-09
1.22315e-09
-4.60161e-09
9.62885e-10
-4.68918e-09
6.86244e-10
-4.74685e-09
3.94378e-10
-4.77234e-09
8.98321e-11
-4.76417e-09
-2.24097e-10
-4.72134e-09
-5.4451e-10
-4.64292e-09
-8.69174e-10
-4.52798e-09
-1.19607e-09
-4.3756e-09
-1.52296e-09
-4.18511e-09
-1.8471e-09
-3.95621e-09
-2.16524e-09
-3.68916e-09
-2.47361e-09
-3.38482e-09
-2.76809e-09
-3.04479e-09
-3.04433e-09
-2.67141e-09
-3.29791e-09
-2.26776e-09
-3.52451e-09
-1.83767e-09
-3.72006e-09
-1.38562e-09
-3.88087e-09
-9.16672e-10
-4.0038e-09
-4.36368e-10
-4.08641e-09
4.94411e-11
-4.12703e-09
5.34745e-10
-4.12487e-09
1.01355e-09
-4.08005e-09
1.48006e-09
-3.99356e-09
1.92879e-09
-3.86721e-09
2.35478e-09
-3.70359e-09
2.7536e-09
-3.50592e-09
3.12155e-09
-3.27798e-09
3.45563e-09
-3.02391e-09
3.75363e-09
-2.74807e-09
4.0141e-09
-2.45482e-09
4.23629e-09
-2.1484e-09
4.42008e-09
-1.8328e-09
4.56592e-09
-1.51164e-09
4.67462e-09
-1.18804e-09
4.74719e-09
-8.64545e-10
4.78467e-09
-5.43152e-10
4.78807e-09
-2.25606e-10
4.75845e-09
8.61866e-11
4.69723e-09
3.89785e-10
4.60641e-09
6.82392e-10
4.48846e-09
9.6163e-10
4.34593e-09
1.22612e-09
4.18126e-09
1.47528e-09
3.9966e-09
1.70872e-09
3.79374e-09
1.9259e-09
3.57409e-09
2.12601e-09
3.33871e-09
2.30791e-09
3.08842e-09
2.46993e-09
2.82396e-09
2.60986e-09
2.54601e-09
2.72471e-09
2.25549e-09
2.81015e-09
1.95383e-09
2.86034e-09
1.64345e-09
2.86721e-09
1.32837e-09
2.81991e-09
1.01511e-09
2.70446e-09
7.13904e-10
2.5035e-09
4.39772e-10
2.19706e-09
2.12926e-10
1.7637e-09
5.80031e-11
1.18096e-09
4.37027e-10
-6.85899e-11
5.13186e-10
-2.49301e-10
1.3713e-09
-5.08761e-10
2.03168e-09
-8.14914e-10
2.50842e-09
-1.14339e-09
2.83213e-09
-1.47805e-09
3.03341e-09
-1.80928e-09
3.13919e-09
-2.13171e-09
3.17166e-09
-2.44251e-09
3.14788e-09
-2.74024e-09
3.08037e-09
-3.02412e-09
2.97816e-09
-3.29362e-09
2.84766e-09
-3.54823e-09
2.69333e-09
-3.78736e-09
2.51815e-09
-4.01029e-09
2.32407e-09
-4.21619e-09
2.1122e-09
-4.40401e-09
1.88298e-09
-4.57242e-09
1.63624e-09
-4.71955e-09
1.3713e-09
-4.84288e-09
1.08719e-09
-4.93908e-09
7.83294e-10
-5.00456e-09
4.60469e-10
-5.03649e-09
1.22068e-10
-5.03339e-09
-2.2728e-10
-4.99434e-09
-5.84035e-10
-4.9183e-09
-9.46071e-10
-4.80393e-09
-1.31162e-09
-4.64984e-09
-1.67847e-09
-4.45483e-09
-2.04365e-09
-4.21815e-09
-2.40344e-09
-3.93969e-09
-2.75345e-09
-3.6201e-09
-3.0888e-09
-3.26087e-09
-3.40431e-09
-2.86439e-09
-3.69472e-09
-2.43396e-09
-3.95481e-09
-1.97373e-09
-4.17967e-09
-1.48871e-09
-4.36483e-09
-9.84592e-10
-4.50646e-09
-4.67633e-10
-4.60157e-09
5.55123e-11
-4.6481e-09
5.78006e-10
-4.64508e-09
1.09304e-09
-4.59266e-09
1.59402e-09
-4.49202e-09
2.07477e-09
-4.34539e-09
2.52972e-09
-4.1559e-09
2.95396e-09
-3.92749e-09
3.34347e-09
-3.66474e-09
3.69507e-09
-3.37268e-09
4.00656e-09
-3.05657e-09
4.2766e-09
-2.72168e-09
4.5047e-09
-2.37308e-09
4.69116e-09
-2.01555e-09
4.8369e-09
-1.65335e-09
4.9433e-09
-1.2901e-09
5.01193e-09
-9.28612e-10
5.04429e-09
-5.70891e-10
5.04157e-09
-2.18472e-10
5.00486e-09
1.2683e-10
4.93569e-09
4.62074e-10
4.83653e-09
7.8341e-10
4.71048e-09
1.0878e-09
4.56046e-09
1.37424e-09
4.38894e-09
1.6431e-09
4.19798e-09