/*--------------------------------*- C++ -*----------------------------------*\
| =========                 |                                                 |
| \\      /  F ield         | OpenFOAM: The Open Source CFD Toolbox           |
|  \\    /   O peration     | Version:  2412                                  |
|   \\  /    A nd           | Website:  www.openfoam.com                      |
|    \\/     M anipulation  |                                                 |
\*---------------------------------------------------------------------------*/
FoamFile
{
    version     2.0;
    format      ascii;
    arch        "LSB;label=32;scalar=64";
    class       volScalarField;
    location    "5.4";
    object      p;
}
// * * * * * * * * * * * * * * * * * * * * * * * * * * * * * * * * * * * * * //

dimensions      [1 -1 -2 0 0 0 0];

internalField   nonuniform List<scalar> 
6400
(
9483.41
9484.54
9486.77
9490.08
9494.42
9499.7
9505.85
9512.77
9520.35
9528.48
9537.02
9545.84
9554.8
9563.77
9572.61
9581.19
9589.39
9597.08
9604.15
9610.53
9616.13
9620.89
9624.77
9627.75
9629.82
9631.02
9631.38
9630.98
9629.89
9628.22
9626.13
9623.74
9621.18
9618.6
9616.14
9613.93
9612.09
9610.73
9609.9
9609.66
9610.02
9610.97
9612.48
9614.47
9616.84
9619.49
9622.29
9625.09
9627.76
9630.15
9632.14
9633.6
9634.41
9634.5
9633.79
9632.24
9629.83
9626.56
9622.44
9617.53
9611.88
9605.56
9598.67
9591.3
9583.56
9575.56
9567.42
9559.26
9551.2
9543.35
9535.82
9528.72
9522.14
9516.17
9510.89
9506.38
9502.7
9499.89
9498
9497.04
8991.78
8992.92
8995.2
8998.56
9002.96
9008.33
9014.58
9021.61
9029.31
9037.56
9046.24
9055.19
9064.29
9073.4
9082.37
9091.08
9099.39
9107.18
9114.35
9120.81
9126.47
9131.27
9135.17
9138.15
9140.2
9141.35
9141.65
9141.15
9139.98
9138.14
9135.93
9133.4
9130.7
9127.98
9125.39
9123.07
9121.13
9119.69
9118.81
9118.55
9118.92
9119.92
9121.5
9123.58
9126.07
9128.85
9131.78
9134.72
9137.53
9140.05
9142.17
9143.74
9144.64
9144.8
9144.13
9142.61
9140.19
9136.9
9132.74
9127.77
9122.04
9115.63
9108.64
9101.16
9093.31
9085.19
9076.93
9068.66
9060.49
9052.53
9044.9
9037.69
9031.02
9024.97
9019.63
9015.05
9011.32
9008.47
9006.55
9005.59
8498.99
8500.17
8502.52
8506
8510.54
8516.08
8522.53
8529.78
8537.72
8546.23
8555.17
8564.4
8573.77
8583.15
8592.39
8601.35
8609.9
8617.91
8625.27
8631.88
8637.66
8642.55
8646.49
8649.47
8651.48
8652.54
8652.7
8652
8650.59
8648.56
8646.06
8643.24
8640.25
8637.24
8634.37
8631.81
8629.67
8628.08
8627.1
8626.8
8627.21
8628.29
8630.01
8632.28
8635.01
8638.05
8641.27
8644.5
8647.59
8650.38
8652.74
8654.54
8655.62
8655.91
8655.33
8653.85
8651.44
8648.1
8643.86
8638.76
8632.88
8626.29
8619.1
8611.4
8603.32
8594.97
8586.47
8577.96
8569.56
8561.38
8553.54
8546.14
8539.29
8533.08
8527.59
8522.89
8519.05
8516.13
8514.16
8513.16
8005.02
8006.25
8008.72
8012.36
8017.12
8022.93
8029.68
8037.25
8045.57
8054.47
8063.81
8073.45
8083.25
8093.04
8102.69
8112.03
8120.94
8129.28
8136.93
8143.78
8149.75
8154.77
8158.78
8161.75
8163.69
8164.62
8164.6
8163.55
8161.83
8159.43
8156.53
8153.26
8149.81
8146.35
8143.07
8140.13
8137.68
8135.85
8134.72
8134.36
8134.8
8136.02
8137.97
8140.54
8143.63
8147.08
8150.74
8154.42
8157.95
8161.15
8163.89
8166.01
8167.39
8167.88
8167.44
8166.03
8163.61
8160.2
8155.83
8150.54
8144.42
8137.56
8130.05
8122.02
8113.59
8104.89
8096.01
8087.15
8078.4
8069.89
8061.74
8054.05
8046.92
8040.46
8034.75
8029.87
8025.87
8022.82
8020.77
8019.74
7509.78
7511.1
7513.72
7517.6
7522.66
7528.83
7535.99
7544.03
7552.83
7562.25
7572.14
7582.35
7592.72
7603.08
7613.27
7623.15
7632.55
7641.34
7649.38
7656.57
7662.8
7667.99
7672.1
7675.08
7676.92
7677.66
7677.34
7675.96
7673.76
7670.84
7667.34
7663.46
7659.38
7655.29
7651.41
7647.96
7645.07
7642.9
7641.56
7641.13
7641.62
7643.03
7645.29
7648.29
7651.89
7655.91
7660.18
7664.48
7668.63
7672.41
7675.66
7678.22
7680.03
7680.79
7680.53
7679.2
7676.77
7673.26
7668.7
7663.16
7656.71
7649.46
7641.53
7633.04
7624.14
7614.96
7605.55
7596.21
7587
7578.05
7569.47
7561.38
7553.89
7547.1
7541.09
7535.95
7531.74
7528.53
7526.36
7525.27
7013.21
7014.64
7017.47
7021.65
7027.1
7033.72
7041.41
7050.04
7059.47
7069.56
7080.16
7091.09
7102.18
7113.27
7124.18
7134.73
7144.77
7154.13
7162.69
7170.3
7176.87
7182.31
7186.54
7189.53
7191.26
7191.75
7191.05
7189.23
7186.42
7182.81
7178.56
7173.86
7168.94
7164.04
7159.37
7155.22
7151.74
7149.12
7147.5
7146.95
7147.52
7149.19
7151.87
7155.43
7159.71
7164.5
7169.58
7174.71
7179.66
7184.21
7188.13
7191.26
7193.61
7194.72
7194.69
7193.46
7191.02
7187.37
7182.56
7176.68
7169.8
7162.05
7153.56
7144.48
7134.95
7125.12
7115.13
7105.16
7095.34
7085.82
7076.7
7068.11
7060.16
7052.94
7046.56
7041.09
7036.61
7033.18
7030.87
7029.71
6515.2
6516.76
6519.85
6524.41
6530.34
6537.53
6545.87
6555.22
6565.43
6576.36
6587.82
6599.65
6611.65
6623.64
6635.42
6646.82
6657.64
6667.73
6676.92
6685.08
6692.08
6697.82
6702.22
6705.23
6706.83
6707.03
6705.88
6703.46
6699.91
6695.43
6690.21
6684.48
6678.5
6672.54
6666.87
6661.81
6657.56
6654.35
6652.35
6651.66
6652.33
6654.33
6657.55
6661.85
6667.02
6672.8
6678.93
6685.12
6691.11
6696.62
6701.41
6705.3
6708.2
6709.78
6710.04
6708.94
6706.46
6702.63
6697.51
6691.17
6683.75
6675.37
6666.18
6656.35
6646.04
6635.43
6624.67
6613.94
6603.39
6593.17
6583.39
6574.19
6565.68
6557.95
6551.11
6545.24
6540.42
6536.72
6534.21
6532.95
6015.59
6017.32
6020.75
6025.79
6032.31
6040.18
6049.29
6059.51
6070.66
6082.59
6095.11
6108.02
6121.11
6134.19
6147.04
6159.46
6171.24
6182.2
6192.18
6201.01
6208.54
6214.67
6219.29
6222.34
6223.79
6223.65
6221.96
6218.81
6214.34
6208.79
6202.38
6195.35
6188.03
6180.74
6173.82
6167.57
6162.33
6158.37
6155.88
6155.01
6155.81
6158.23
6162.16
6167.41
6173.71
6180.75
6188.21
6195.75
6203.02
6209.74
6215.62
6220.42
6224.01
6226.14
6226.75
6225.79
6223.26
6219.19
6213.65
6206.76
6198.65
6189.48
6179.43
6168.68
6157.43
6145.87
6134.18
6122.53
6111.1
6100.05
6089.5
6079.58
6070.39
6062.05
6054.67
6048.33
6043.09
6039.04
6036.3
6034.91
5514.2
5516.17
5520.03
5525.65
5532.87
5541.55
5551.57
5562.81
5575.08
5588.21
5601.98
5616.18
5630.57
5644.95
5659.08
5672.71
5685.63
5697.66
5708.58
5718.22
5726.41
5733.01
5737.92
5741.04
5742.33
5741.8
5739.48
5735.47
5729.88
5723.03
5715.14
5706.52
5697.53
5688.57
5680.06
5672.32
5665.83
5660.9
5657.8
5656.69
5657.65
5660.62
5665.46
5671.91
5679.65
5688.29
5697.42
5706.62
5715.5
5723.7
5730.89
5736.8
5741.24
5744.02
5745.02
5744.21
5741.58
5737.2
5731.15
5723.57
5714.61
5704.47
5693.37
5681.51
5669.12
5656.43
5643.63
5630.87
5618.42
5606.4
5594.96
5584.2
5574.24
5565.15
5557.17
5550.27
5544.53
5540.07
5537.01
5535.45
5010.82
5013.09
5017.52
5023.84
5031.89
5041.49
5052.56
5065
5078.6
5093.13
5108.38
5124.09
5140.03
5155.92
5171.58
5186.63
5200.9
5214.18
5226.23
5236.85
5245.84
5253.04
5258.31
5261.55
5262.69
5261.72
5258.69
5253.66
5246.7
5238.3
5228.63
5218.05
5207
5195.95
5185.4
5175.83
5167.75
5161.59
5157.7
5156.29
5157.45
5161.13
5167.13
5175.12
5184.68
5195.32
5206.54
5217.81
5228.66
5238.65
5247.42
5254.66
5260.13
5263.64
5265.09
5264.42
5261.66
5256.87
5250.17
5241.73
5231.73
5220.42
5208.03
5194.84
5181.1
5167.06
5152.95
5138.93
5125.28
5112.15
5099.68
5087.99
5077.13
5067.13
5058.53
5050.98
5044.64
5039.66
5036.18
5034.4
4505.17
4507.8
4513.05
4520.19
4529.14
4539.77
4552.04
4565.93
4581.08
4597.27
4614.24
4631.74
4649.48
4667.16
4684.53
4701.27
4717.14
4731.9
4745.3
4757.09
4767.05
4774.98
4780.71
4784.13
4785.15
4783.71
4779.86
4773.68
4765.07
4754.83
4743
4730.04
4716.46
4702.82
4689.74
4677.83
4667.74
4660.01
4655.09
4653.29
4654.72
4659.31
4666.79
4676.74
4688.62
4701.79
4715.6
4729.41
4742.66
4754.82
4765.48
4774.29
4780.97
4785.33
4787.26
4786.73
4783.76
4778.44
4770.92
4761.42
4750.16
4737.41
4723.48
4708.69
4693.33
4677.71
4662.07
4646.6
4631.57
4617.17
4603.56
4590.85
4579.07
4568.25
4558.66
4550.32
4543.27
4537.7
4533.62
4531.55
3997.02
4000.35
4006.27
4014.31
4024.32
4036.07
4049.85
4065.4
4082.35
4100.47
4119.47
4139.05
4158.88
4178.66
4198.03
4216.7
4234.43
4250.93
4265.92
4279.11
4290.24
4299.06
4305.4
4309.1
4310.02
4308.1
4303.32
4295.74
4285.43
4272.93
4258.5
4242.64
4225.95
4209.1
4192.86
4178
4165.33
4155.58
4149.34
4147.03
4148.8
4154.55
4163.95
4176.43
4191.26
4207.61
4224.63
4241.57
4257.72
4272.49
4285.39
4296.02
4304.1
4309.43
4311.88
4311.45
4308.17
4302.17
4293.65
4282.83
4270.03
4255.55
4239.76
4223.05
4205.78
4188.31
4170.91
4153.78
4137.13
4121.29
4106.42
4092.59
4079.83
4068.07
4057.26
4048.02
4040.19
4033.99
4029.17
4026.72
3486.18
3490.2
3497.32
3505.39
3516.46
3529.53
3544.92
3562.75
3582.09
3602.58
3623.98
3645.99
3668.26
3690.46
3712.12
3733.01
3752.87
3771.41
3788.29
3803.15
3815.67
3825.59
3832.7
3836.8
3837.71
3835.31
3829.55
3820.45
3808.02
3792.92
3775.41
3756.05
3735.55
3714.74
3694.56
3675.96
3659.99
3647.59
3639.58
3636.56
3638.78
3646.08
3657.99
3673.74
3692.35
3712.73
3733.74
3754.48
3774.13
3792.01
3807.54
3820.29
3829.97
3836.36
3839.37
3838.98
3835.28
3828.41
3818.62
3806.21
3791.5
3774.95
3756.93
3737.91
3718.39
3698.79
3679.4
3660.41
3641.8
3624.35
3608.04
3592.91
3578.86
3565.65
3553.63
3543.46
3534.38
3528.64
3523.12
3519.9
2973.32
2976.02
2980.08
2990.05
3004.8
3019.56
3036.52
3057.69
3080.27
3103.65
3127.84
3152.6
3177.58
3202.68
3226.86
3250.25
3272.57
3293.49
3312.62
3329.5
3343.68
3354.9
3362.97
3367.64
3368.66
3365.84
3359.07
3348.37
3333.34
3315.28
3294.12
3270.55
3245.42
3219.72
3194.59
3171.28
3150.96
3135.03
3124.64
3120.65
3123.46
3132.83
3148.09
3168.12
3191.61
3217.24
3243.09
3268.46
3292.3
3313.84
3332.43
3347.61
3359.08
3366.65
3370.21
3369.8
3365.51
3357.54
3346.2
3331.86
3314.91
3295.79
3275.05
3253.22
3231.02
3208.95
3187.34
3166.47
3145.24
3126.2
3108.36
3091.73
3075.82
3060.26
3046.74
3035.72
3024.83
3016.82
3012.69
3009.81
2447.56
2441.01
2442.59
2464.04
2489.51
2506.14
2524.88
2549.97
2576.49
2603.46
2630.97
2658.88
2687.03
2714.73
2741.74
2768.04
2793.34
2817.18
2839.04
2858.41
2874.35
2887.23
2896.56
2902.05
2903.38
2900.24
2892.42
2879.83
2862.36
2840.7
2815.17
2786.54
2755.76
2724.02
2692.68
2663.25
2637.4
2616.89
2603.26
2597.77
2601.34
2613.52
2633.3
2658.98
2688.67
2720.38
2752.73
2783.84
2812.71
2838.54
2860.65
2878.58
2892.04
2900.86
2904.98
2904.44
2899.36
2889.98
2876.72
2860.02
2840.31
2818.1
2794.05
2768.59
2742.89
2717.72
2693.61
2670.5
2647.99
2626.63
2606.79
2588.31
2570.35
2552.28
2536.76
2524.39
2506.98
2489.71
2486.03
2490.21
1917.83
1896.55
1896.52
1933.09
1969.9
1987.82
2010.26
2038.2
2069.44
2100.93
2132.82
2164.87
2196.19
2226.37
2255.85
2285.4
2314.6
2342.34
2367.71
2390.67
2408.73
2423.2
2433.97
2440.55
2442.44
2439.18
2430.43
2415.96
2395.66
2369.87
2339.23
2304.56
2266.97
2227.88
2188.91
2151.65
2118.88
2092.27
2074.07
2066.36
2070.52
2086.77
2112.71
2145.89
2183.83
2223.91
2263.72
2301.46
2336.13
2366.89
2392.99
2413.96
2429.58
2439.71
2444.34
2443.54
2437.42
2426.28
2410.65
2391.1
2368.04
2341.96
2313.93
2283.15
2252.67
2223.74
2197.39
2172.95
2148.98
2125.08
2102.51
2081.82
2062
2041.81
2024.03
2009.99
1982.92
1950.49
1943.78
1963.24
1405.49
1375.67
1376.45
1411.79
1445.49
1461.25
1483.66
1522.51
1561.07
1597.73
1634.09
1670.32
1705.29
1737.97
1769.73
1802.83
1836.59
1868.96
1898.11
1922.89
1944.43
1961.49
1974.43
1982.86
1986.09
1983.35
1974.11
1957.89
1934.46
1903.93
1867.32
1825.48
1779.7
1731.64
1683.64
1636.54
1595.49
1560.55
1535.8
1524.91
1529.73
1552.14
1585.73
1628.46
1676.71
1727.18
1775.9
1821.88
1863.47
1899.87
1930.36
1954.42
1972.26
1983.82
1989
1987.73
1980.03
1966.31
1947.5
1924.56
1897.45
1866.34
1832.1
1797.29
1761.97
1728.91
1700.15
1674.07
1648.28
1622.12
1597.38
1574.77
1551.9
1527.05
1507.07
1492.88
1464.49
1431
1425.33
1451.09
910.418
887.643
885.865
907.524
927.75
937.471
958.765
1012.85
1056.4
1096.83
1136.26
1176.01
1213.97
1249.89
1285.83
1323.48
1362.13
1399.39
1432.78
1460.88
1484.16
1503.56
1518.81
1529.75
1535.26
1534.04
1525.03
1507.19
1480.23
1443.86
1400.65
1350.86
1295.62
1236.95
1178.09
1123.65
1066.42
1017.52
982.155
965.937
973.671
1005.6
1053.46
1109.91
1169.91
1233.06
1293.55
1348.03
1396.71
1438.92
1474.05
1500.9
1521.07
1534.27
1540.25
1538.33
1528.28
1510.75
1487.77
1461.95
1430.38
1394.82
1355.51
1314.36
1273.59
1235.64
1202.36
1173.26
1146.05
1119.32
1094.28
1071.16
1044.37
1009.57
989.091
978.499
959.255
937.629
936.286
954.228
417.994
401.031
397.731
408.163
421.653
428.916
458.212
508.642
556.235
596.189
640.045
684.229
723.354
760.856
801.651
846.438
892.768
936.874
975.439
1007.46
1033.24
1052.38
1069.49
1083.19
1091.51
1092.42
1084.4
1065.17
1034.61
992.187
939.8
879.16
811.219
737.772
664.849
588.351
519.073
456.308
409.194
383.408
392.063
435.953
502.271
580.155
663.277
741.892
814.64
877.458
934.137
983.409
1024.02
1055.4
1078.3
1093.11
1099.58
1096.84
1084.53
1063.22
1034.81
1004.03
971.28
930.483
884.352
835.618
786.662
740.692
701.036
669.314
642.647
616.086
590.221
569.938
546.47
505.648
476.381
471.187
458.313
446.737
449.606
464.083
81.257
73.9714
66.8754
67.7733
75.6315
81.7881
92.9834
112.679
136.35
162.218
199.561
235.565
265.039
293.798
330.247
375.223
426.649
479.101
524.742
560.363
587.041
604.813
626.169
643.979
655.829
659.527
652.971
633.067
597.613
547.359
485.224
413.471
337.082
261.792
196.047
144.653
106.088
75.0373
53.919
44.164
47.6503
63.7541
93.5093
135.904
202.731
275.29
343.279
411.19
476.144
532.183
579.777
617.711
644.752
660.954
667.09
663.474
650.272
629.181
602.047
566.298
524.199
473.667
417.371
362.982
313.253
270.659
237.154
213.344
195.615
177.205
159.763
148.77
139.556
122.279
104.436
99.0521
92.0973
87.814
94.8477
102.37
-8.20309
-8.12649
-8.23773
-8.22709
-8.44107
-9.02452
-9.06479
-9.11877
-9.27935
-8.78305
-4.27649
7.36731
19.8905
30.8036
46.1725
67.8451
95.5431
125.442
153.614
179.519
202.265
222.994
238.914
252.516
263.456
269.293
265.44
249.465
220.778
181.559
135.706
89.0956
46.8344
14.2312
-2.8146
-7.41267
-7.7005
-7.51079
-7.36641
-7.24939
-7.31964
-7.51987
-7.84533
-7.4108
5.22827
26.5411
53.6925
88.4371
131.136
171.787
207.109
236.746
259.345
272.514
276.647
272.407
260.598
241.259
215.518
185.139
151.851
117.351
84.9932
57.9279
36.5366
21.2307
10.5498
2.84929
-3.23575
-7.52047
-8.51524
-8.20247
-6.83694
-6.98485
-7.55554
-7.76738
-7.83694
-7.78549
-7.61292
-7.41384
-8.91706
-8.87423
-8.91179
-9.00577
-9.24502
-9.71413
-9.87876
-10.0168
-10.0855
-10.0074
-10.0477
-10.0397
-10.0681
-10.0828
-10.0986
-10.0931
-10.0883
-10.0865
-9.41997
-3.51998
3.31008
9.87243
16.5829
23.059
29.0388
33.2761
33.0693
27.7872
17.6265
5.51634
-5.103
-8.74459
-8.95988
-8.58482
-8.59477
-8.50859
-8.42189
-8.30951
-8.20267
-8.12661
-8.23684
-8.39211
-8.51161
-8.64215
-9.19337
-9.66375
-10.0667
-9.42393
-5.30448
2.61734
12.5846
22.7974
31.2577
35.7927
36.5498
32.9852
26.3809
17.8205
8.04779
-1.39262
-8.39915
-9.18895
-9.16872
-9.24345
-9.27597
-9.28051
-9.28657
-9.29214
-9.2627
-9.20272
-9.21445
-9.37338
-9.51355
-9.52111
-9.12356
-8.75801
-8.61922
-8.55219
-8.57312
-8.65161
-9.62284
-9.62496
-9.67814
-9.79743
-9.97356
-10.2665
-10.4339
-10.5226
-10.6633
-10.7169
-10.716
-10.6458
-10.6237
-10.6353
-10.6639
-10.6931
-10.7371
-10.8224
-10.9089
-10.9753
-10.9696
-10.9577
-10.9514
-10.9141
-10.8286
-10.7634
-10.7755
-10.8256
-10.7505
-10.4997
-10.2268
-9.88931
-9.65994
-9.45646
-9.42695
-9.24853
-9.15665
-9.12143
-9.10388
-9.01944
-8.9424
-8.99379
-9.19799
-9.55848
-9.96459
-10.2271
-10.4404
-10.5935
-10.8877
-11.1183
-11.36
-11.5478
-11.5918
-11.5544
-11.5126
-11.4733
-11.3023
-10.9142
-10.6924
-10.7563
-10.7559
-10.2603
-9.99192
-9.92501
-9.88222
-9.85523
-9.841
-9.81992
-9.77652
-9.74392
-9.75783
-9.80217
-9.80368
-9.7443
-9.63771
-9.5072
-9.39661
-9.30022
-9.24268
-9.22765
-10.3433
-10.3778
-10.4067
-10.4859
-10.6211
-10.8143
-11.0195
-11.1349
-11.3219
-11.4269
-11.3881
-11.2675
-11.1811
-11.1635
-11.1813
-11.2143
-11.2611
-11.3163
-11.3907
-11.4631
-11.4925
-11.4753
-11.455
-11.4128
-11.3491
-11.285
-11.2391
-11.201
-11.1013
-10.9261
-10.7148
-10.4727
-10.2699
-10.1431
-10.0491
-9.96645
-9.96195
-10.0224
-10.0143
-9.89112
-9.716
-9.72893
-9.9384
-10.2699
-10.6205
-10.8687
-11.0313
-11.1956
-11.4461
-11.6715
-11.8152
-11.8983
-11.9209
-11.9108
-11.8938
-11.8642
-11.7717
-11.5989
-11.484
-11.4361
-11.1859
-10.8546
-10.6585
-10.5374
-10.4571
-10.4084
-10.3771
-10.3448
-10.3087
-10.2833
-10.2752
-10.2678
-10.2394
-10.1962
-10.1504
-10.0971
-10.0392
-9.99
-9.91142
-9.85946
-11.0246
-11.0643
-11.0861
-11.1036
-11.1895
-11.3451
-11.5942
-11.7999
-11.9848
-12.1046
-12.0391
-11.8591
-11.7205
-11.6771
-11.6891
-11.7188
-11.7587
-11.8057
-11.8577
-11.9036
-11.9304
-11.9429
-11.9351
-11.8778
-11.8056
-11.719
-11.6702
-11.6294
-11.5434
-11.3863
-11.1935
-10.9971
-10.8392
-10.7497
-10.6861
-10.6143
-10.6284
-10.7051
-10.743
-10.671
-10.57
-10.6336
-10.8284
-11.0836
-11.3302
-11.5189
-11.6687
-11.8384
-12.0508
-12.2147
-12.2795
-12.328
-12.3411
-12.3364
-12.3261
-12.2938
-12.2145
-12.095
-11.9765
-11.8337
-11.6415
-11.4249
-11.2634
-11.1399
-11.0451
-10.9724
-10.9176
-10.8714
-10.8321
-10.8039
-10.7854
-10.7657
-10.737
-10.7049
-10.674
-10.6552
-10.6422
-10.6135
-10.5686
-10.5076
-11.6492
-11.6621
-11.6916
-11.7034
-11.7245
-11.8365
-12.1065
-12.3992
-12.6024
-12.7065
-12.5912
-12.3518
-12.2033
-12.1618
-12.18
-12.2153
-12.2534
-12.2939
-12.3338
-12.3696
-12.4011
-12.441
-12.4874
-12.497
-12.4142
-12.2965
-12.2131
-12.1575
-12.0712
-11.9149
-11.7265
-11.5524
-11.4244
-11.345
-11.3035
-11.1991
-11.1844
-11.2421
-11.31
-11.34
-11.3793
-11.4989
-11.6669
-11.8684
-12.0714
-12.2443
-12.375
-12.5258
-12.7261
-12.8649
-12.9099
-12.8842
-12.8449
-12.824
-12.8097
-12.7828
-12.7159
-12.6085
-12.4839
-12.3421
-12.1665
-11.9838
-11.8254
-11.6962
-11.5937
-11.5161
-11.4559
-11.403
-11.3592
-11.3271
-11.3023
-11.281
-11.2604
-11.2377
-11.2171
-11.2282
-11.23
-11.1769
-11.1539
-11.1307
-12.2256
-12.2361
-12.2665
-12.298
-12.2859
-12.3403
-12.5417
-12.8257
-13.0217
-13.0615
-12.9283
-12.7418
-12.6435
-12.6339
-12.6664
-12.708
-12.747
-12.7839
-12.8179
-12.8483
-12.8853
-12.9517
-13.0527
-13.1228
-13.0706
-12.9382
-12.845
-12.7786
-12.6743
-12.5115
-12.3247
-12.1606
-12.0425
-11.9592
-11.882
-11.7648
-11.7192
-11.7621
-11.8711
-11.9931
-12.129
-12.2754
-12.4278
-12.5974
-12.76
-12.8926
-13.0016
-13.1387
-13.3141
-13.4543
-13.5254
-13.505
-13.427
-13.3599
-13.3285
-13.3014
-13.2517
-13.1605
-13.0372
-12.8922
-12.7294
-12.5595
-12.3986
-12.2643
-12.1559
-12.0685
-11.9977
-11.9362
-11.8852
-11.85
-11.824
-11.8054
-11.7908
-11.7742
-11.7717
-11.793
-11.7651
-11.7072
-11.7168
-11.7433
-12.7822
-12.8135
-12.8469
-12.8941
-12.915
-12.9617
-13.0752
-13.2403
-13.3127
-13.2629
-13.1999
-13.1345
-13.1018
-13.1177
-13.1583
-13.2024
-13.2424
-13.2784
-13.3104
-13.3396
-13.3764
-13.4424
-13.539
-13.6333
-13.6355
-13.5641
-13.512
-13.4672
-13.3506
-13.161
-12.9663
-12.8021
-12.6764
-12.5769
-12.4764
-12.3514
-12.2899
-12.3407
-12.4922
-12.6713
-12.8423
-12.9907
-13.127
-13.2632
-13.3798
-13.4653
-13.5385
-13.6397
-13.7732
-13.9119
-14.018
-14.0487
-14.0007
-13.919
-13.8781
-13.8529
-13.8137
-13.7347
-13.6122
-13.4663
-13.3063
-13.1343
-12.9677
-12.826
-12.7103
-12.6111
-12.5257
-12.4571
-12.4026
-12.3663
-12.3421
-12.3247
-12.3138
-12.3186
-12.3476
-12.3654
-12.3217
-12.2634
-12.2806
-12.3189
-13.3384
-13.3813
-13.4176
-13.4766
-13.5628
-13.6749
-13.7727
-13.8083
-13.7617
-13.6751
-13.6247
-13.6038
-13.6004
-13.6216
-13.6589
-13.6999
-13.7399
-13.7773
-13.8116
-13.8436
-13.878
-13.9298
-14.0166
-14.1082
-14.1621
-14.1924
-14.2027
-14.1697
-14.0333
-13.8205
-13.616
-13.4451
-13.3074
-13.1969
-13.0934
-12.9639
-12.909
-12.9785
-13.1557
-13.3577
-13.5309
-13.6718
-13.7945
-13.9027
-13.9836
-14.0366
-14.0725
-14.1147
-14.1804
-14.2892
-14.3979
-14.478
-14.4922
-14.4644
-14.434
-14.418
-14.3893
-14.3262
-14.2202
-14.0779
-13.9127
-13.729
-13.5353
-13.3721
-13.244
-13.1319
-13.0292
-12.9543
-12.9055
-12.8743
-12.8565
-12.8437
-12.8423
-12.8772
-12.9487
-12.9929
-12.9632
-12.8862
-12.844
-12.8483
-13.8843
-13.9424
-13.9718
-14.0338
-14.1464
-14.2835
-14.36
-14.3532
-14.261
-14.1845
-14.1436
-14.1212
-14.1126
-14.1282
-14.1594
-14.197
-14.2377
-14.2792
-14.3214
-14.3636
-14.405
-14.4611
-14.556
-14.663
-14.7464
-14.8191
-14.844
-14.7922
-14.6425
-14.4339
-14.2338
-14.0627
-13.9201
-13.8084
-13.7083
-13.6076
-13.5638
-13.6481
-13.8297
-14.0266
-14.1919
-14.3246
-14.4371
-14.5273
-14.5917
-14.6349
-14.66
-14.6487
-14.6117
-14.6219
-14.7118
-14.8248
-14.9072
-14.9537
-14.9812
-15.0151
-15.0244
-14.9875
-14.8879
-14.7289
-14.547
-14.3513
-14.1136
-13.915
-13.7772
-13.6528
-13.5246
-13.436
-13.3991
-13.3813
-13.3759
-13.3753
-13.388
-13.4357
-13.5192
-13.5911
-13.5863
-13.5057
-13.4255
-13.4019
-14.442
-14.5019
-14.5075
-14.5666
-14.6649
-14.7765
-14.8172
-14.7947
-14.7513
-14.7143
-14.6685
-14.6288
-14.6186
-14.6318
-14.6583
-14.6936
-14.7358
-14.784
-14.8399
-14.8982
-14.9559
-15.045
-15.1646
-15.2745
-15.3435
-15.3732
-15.3696
-15.3041
-15.1627
-14.9799
-14.803
-14.6485
-14.5176
-14.412
-14.3281
-14.2552
-14.2297
-14.3211
-14.4901
-14.6603
-14.805
-14.9277
-15.0385
-15.1223
-15.1782
-15.2111
-15.2334
-15.2091
-15.1057
-14.9837
-14.9808
-15.0908
-15.2456
-15.3908
-15.5481
-15.7009
-15.7937
-15.7989
-15.6757
-15.4473
-15.2115
-15.003
-14.7179
-14.4674
-14.3329
-14.2143
-14.0523
-13.9229
-13.8917
-13.8968
-13.9079
-13.9216
-13.9435
-13.9883
-14.0528
-14.1117
-14.1229
-14.075
-14.0124
-13.9851
-15.0055
-15.0343
-15.0363
-15.0834
-15.1562
-15.2329
-15.2722
-15.2677
-15.248
-15.2102
-15.1678
-15.1409
-15.1285
-15.1364
-15.1584
-15.1917
-15.2356
-15.2934
-15.368
-15.4443
-15.5294
-15.6529
-15.7621
-15.818
-15.8458
-15.8461
-15.8173
-15.75
-15.6309
-15.4816
-15.3377
-15.2123
-15.1071
-15.017
-14.9501
-14.901
-14.8908
-14.9829
-15.1255
-15.2535
-15.3654
-15.4828
-15.5953
-15.6707
-15.7101
-15.7287
-15.7389
-15.7393
-15.6473
-15.4582
-15.324
-15.4107
-15.6411
-15.9208
-16.2424
-16.5397
-16.7228
-16.7348
-16.5799
-16.2752
-15.9449
-15.6877
-15.3851
-15.0668
-14.9153
-14.814
-14.6402
-14.4591
-14.4014
-14.4316
-14.4602
-14.4821
-14.507
-14.5417
-14.5834
-14.6153
-14.6245
-14.6045
-14.5696
-14.5528
-15.5444
-15.5473
-15.5589
-15.5943
-15.6449
-15.6931
-15.726
-15.7337
-15.7227
-15.6893
-15.6583
-15.6411
-15.6359
-15.643
-15.662
-15.6929
-15.7385
-15.8067
-15.8984
-15.9872
-16.0864
-16.1874
-16.2477
-16.2726
-16.2683
-16.2527
-16.2208
-16.1615
-16.0659
-15.9505
-15.8408
-15.75
-15.6775
-15.6178
-15.5711
-15.5414
-15.5408
-15.6344
-15.7506
-15.8401
-15.9648
-16.0981
-16.1978
-16.2604
-16.2624
-16.2529
-16.2374
-16.1899
-16.1169
-16.0405
-15.9803
-15.9304
-16.1396
-16.5013
-16.9241
-17.3034
-17.5014
-17.484
-17.3255
-17.0348
-16.6771
-16.3677
-16.0807
-15.7217
-15.5176
-15.4204
-15.2863
-15.0864
-14.9719
-14.9985
-15.0368
-15.0565
-15.0758
-15.0989
-15.1241
-15.1413
-15.1416
-15.1246
-15.1034
-15.0844
-16.0679
-16.0638
-16.0782
-16.1066
-16.1441
-16.1747
-16.1907
-16.1921
-16.183
-16.1674
-16.1537
-16.1457
-16.1447
-16.152
-16.1686
-16.1968
-16.243
-16.3168
-16.4119
-16.4954
-16.5818
-16.641
-16.66
-16.669
-16.6635
-16.6467
-16.6144
-16.5567
-16.4743
-16.3845
-16.3082
-16.2554
-16.2237
-16.204
-16.1853
-16.1757
-16.1833
-16.2925
-16.4106
-16.5243
-16.7179
-16.9205
-17.0817
-17.16
-17.1344
-17.0306
-16.8988
-16.7721
-16.6679
-16.5895
-16.5444
-16.5925
-16.7681
-17.0399
-17.3689
-17.683
-17.8577
-17.864
-17.752
-17.5684
-17.3031
-17.0107
-16.7302
-16.3761
-16.1355
-16.0106
-15.9266
-15.7527
-15.6182
-15.6082
-15.6367
-15.6434
-15.649
-15.6597
-15.6709
-15.6781
-15.676
-15.6612
-15.6549
-15.632
-16.5913
-16.5941
-16.6
-16.6223
-16.6499
-16.6684
-16.6743
-16.6721
-16.6663
-16.6586
-16.6529
-16.6509
-16.6535
-16.6617
-16.677
-16.7021
-16.7456
-16.8153
-16.9004
-16.9716
-17.0247
-17.0529
-17.071
-17.076
-17.0698
-17.0528
-17.0193
-16.963
-16.8873
-16.8119
-16.7619
-16.7478
-16.7625
-16.784
-16.7929
-16.8025
-16.8378
-16.9819
-17.1483
-17.3446
-17.6441
-18.0234
-18.353
-18.4383
-18.3164
-18.067
-17.7924
-17.554
-17.3475
-17.1776
-17.1331
-17.2469
-17.3707
-17.5771
-17.8075
-17.9754
-18.0991
-18.1276
-18.0717
-17.9932
-17.8322
-17.6087
-17.3322
-17.0157
-16.755
-16.6316
-16.5451
-16.4044
-16.2938
-16.2564
-16.2504
-16.2356
-16.2246
-16.2225
-16.2232
-16.2227
-16.22
-16.2123
-16.2245
-16.2066
-17.1195
-17.1204
-17.1253
-17.1483
-17.1681
-17.1751
-17.1681
-17.158
-17.1544
-17.1529
-17.1534
-17.156
-17.1614
-17.1706
-17.1848
-17.2074
-17.2461
-17.3049
-17.3732
-17.426
-17.4602
-17.4853
-17.499
-17.4993
-17.4918
-17.4769
-17.448
-17.3982
-17.3286
-17.2636
-17.2392
-17.2671
-17.3288
-17.3821
-17.4118
-17.4414
-17.5053
-17.697
-17.9387
-18.2287
-18.6468
-19.2057
-19.6129
-19.6715
-19.4443
-19.0641
-18.6725
-18.3446
-18.0832
-17.8858
-17.7902
-17.8268
-17.985
-18.1768
-18.3514
-18.5244
-18.6227
-18.6286
-18.5796
-18.4903
-18.3282
-18.1283
-17.8953
-17.6361
-17.4028
-17.2793
-17.1665
-17.0389
-16.9485
-16.9041
-16.8595
-16.823
-16.7979
-16.7847
-16.7774
-16.772
-16.7682
-16.7644
-16.778
-16.7743
-17.6367
-17.6244
-17.6501
-17.6838
-17.702
-17.7003
-17.6776
-17.6525
-17.6469
-17.6492
-17.6538
-17.6599
-17.6675
-17.6775
-17.6912
-17.7116
-17.7443
-17.7921
-17.8433
-17.8813
-17.9098
-17.9322
-17.9419
-17.9356
-17.926
-17.9164
-17.8961
-17.8548
-17.7919
-17.7426
-17.765
-17.8599
-17.9753
-18.0387
-18.0664
-18.1015
-18.1855
-18.4091
-18.7326
-19.0978
-19.5583
-20.1643
-20.5743
-20.6257
-20.3586
-19.9087
-19.4324
-19.0409
-18.7486
-18.5418
-18.4261
-18.4201
-18.5216
-18.7019
-18.9124
-19.1004
-19.1692
-19.1654
-19.1128
-18.9626
-18.7603
-18.5629
-18.3785
-18.2041
-18.0579
-17.9159
-17.7742
-17.6452
-17.5642
-17.5063
-17.444
-17.3966
-17.3636
-17.3433
-17.3303
-17.3212
-17.3152
-17.3109
-17.3154
-17.3208
-18.1408
-18.123
-18.1688
-18.2126
-18.228
-18.2217
-18.1895
-18.1468
-18.1365
-18.1447
-18.1533
-18.1625
-18.1719
-18.1828
-18.1963
-18.2145
-18.2414
-18.2782
-18.3139
-18.3434
-18.368
-18.3898
-18.3991
-18.3839
-18.367
-18.3669
-18.3594
-18.3306
-18.2821
-18.2932
-18.4027
-18.5836
-18.7321
-18.7729
-18.7624
-18.7773
-18.8591
-19.0871
-19.4843
-19.8965
-20.3153
-20.8314
-21.241
-21.3114
-21.05
-20.5744
-20.0649
-19.6504
-19.3449
-19.1258
-18.9964
-18.9534
-18.9935
-19.1024
-19.2463
-19.3839
-19.4895
-19.5135
-19.4503
-19.3035
-19.125
-18.9636
-18.8294
-18.7116
-18.6265
-18.5225
-18.3545
-18.2066
-18.1203
-18.0565
-17.9996
-17.9538
-17.9195
-17.8961
-17.8799
-17.8679
-17.8592
-17.8524
-17.8494
-17.8535
-18.6441
-18.6363
-18.6602
-18.6865
-18.6993
-18.6989
-18.6731
-18.6304
-18.6238
-18.642
-18.6538
-18.6649
-18.6756
-18.6871
-18.7005
-18.7173
-18.7398
-18.7674
-18.7922
-18.815
-18.8386
-18.8612
-18.8841
-18.8764
-18.8384
-18.8353
-18.8505
-18.8542
-18.859
-18.9371
-19.107
-19.3287
-19.4732
-19.4979
-19.4466
-19.4312
-19.4939
-19.702
-20.1346
-20.565
-20.9362
-21.3136
-21.6541
-21.7319
-21.5067
-21.0617
-20.568
-20.1647
-19.8689
-19.6536
-19.5116
-19.4431
-19.4397
-19.4892
-19.5773
-19.6719
-19.7561
-19.79
-19.7524
-19.6564
-19.528
-19.4035
-19.3003
-19.1972
-19.1164
-19.0529
-18.8963
-18.7309
-18.637
-18.5813
-18.5368
-18.4981
-18.4666
-18.4431
-18.4255
-18.4116
-18.4005
-18.3909
-18.3829
-18.3815
-19.1476
-19.1414
-19.1281
-19.1318
-19.1448
-19.1568
-19.1531
-19.1349
-19.1339
-19.1459
-19.1584
-19.1693
-19.1799
-19.1913
-19.2045
-19.2205
-19.2411
-19.2659
-19.288
-19.3056
-19.3344
-19.3728
-19.4125
-19.4139
-19.3657
-19.3446
-19.3933
-19.4543
-19.5248
-19.6071
-19.7463
-19.9473
-20.0721
-20.0963
-20.0372
-20.0044
-20.044
-20.2079
-20.6155
-21.052
-21.4121
-21.6804
-21.9095
-21.9529
-21.7514
-21.3618
-20.9349
-20.5834
-20.3211
-20.1274
-19.992
-19.9146
-19.888
-19.9079
-19.9648
-20.0406
-20.1158
-20.1551
-20.1349
-20.0642
-19.9635
-19.864
-19.7761
-19.6737
-19.5819
-19.5094
-19.3893
-19.2358
-19.1505
-19.1007
-19.066
-19.0346
-19.0071
-18.9851
-18.9674
-18.9528
-18.9402
-18.9288
-18.9179
-18.911
-19.6553
-19.6497
-19.6457
-19.644
-19.6514
-19.67
-19.6853
-19.6883
-19.6706
-19.6639
-19.6692
-19.6766
-19.6853
-19.6957
-19.7081
-19.7233
-19.7428
-19.7669
-19.7915
-19.8171
-19.8561
-19.9102
-19.9588
-19.9789
-19.9553
-19.9399
-19.9917
-20.0873
-20.1934
-20.2604
-20.3311
-20.4376
-20.528
-20.5458
-20.5074
-20.467
-20.4769
-20.5733
-20.8896
-21.3
-21.6651
-21.9054
-22.037
-22.0207
-21.835
-21.522
-21.1935
-20.9206
-20.7112
-20.5536
-20.4401
-20.3666
-20.3311
-20.3363
-20.3843
-20.4599
-20.5352
-20.5797
-20.5671
-20.5028
-20.4103
-20.3173
-20.2345
-20.1318
-20.0365
-19.9442
-19.85
-19.7303
-19.658
-19.619
-19.5926
-19.5671
-19.5434
-19.5233
-19.5064
-19.492
-19.4793
-19.4676
-19.4558
-19.4476
-20.1648
-20.1675
-20.1772
-20.1932
-20.2021
-20.2234
-20.247
-20.2493
-20.1999
-20.1852
-20.1821
-20.1849
-20.1909
-20.1996
-20.2108
-20.225
-20.2431
-20.2659
-20.2923
-20.3234
-20.3677
-20.4322
-20.4969
-20.5408
-20.5726
-20.5783
-20.5826
-20.6541
-20.7589
-20.8104
-20.8282
-20.8501
-20.8886
-20.8975
-20.8794
-20.8394
-20.8119
-20.8302
-21.001
-21.3074
-21.635
-21.8722
-21.9811
-21.9526
-21.8141
-21.6057
-21.3896
-21.2032
-21.0518
-20.9344
-20.8489
-20.7893
-20.7618
-20.774
-20.8304
-20.9208
-21.0087
-21.0616
-21.055
-20.9888
-20.8915
-20.7884
-20.69
-20.5892
-20.4948
-20.3938
-20.3142
-20.2231
-20.1693
-20.1414
-20.1202
-20.0981
-20.0771
-20.0587
-20.0431
-20.0297
-20.0188
-20.0086
-19.9966
-19.9901
-20.6715
-20.679
-20.687
-20.7086
-20.7289
-20.754
-20.7708
-20.7548
-20.7164
-20.6987
-20.6918
-20.6916
-20.6953
-20.7022
-20.712
-20.7249
-20.7412
-20.7617
-20.7868
-20.8183
-20.8619
-20.9227
-20.9912
-21.0539
-21.1134
-21.1247
-21.092
-21.1265
-21.1998
-21.2364
-21.2308
-21.2115
-21.2043
-21.2019
-21.1931
-21.1568
-21.0984
-21.0474
-21.0877
-21.2455
-21.4767
-21.6882
-21.8157
-21.8422
-21.7904
-21.6942
-21.5801
-21.4671
-21.366
-21.2854
-21.2217
-21.1779
-21.1733
-21.2154
-21.3059
-21.4302
-21.5417
-21.5991
-21.5907
-21.5184
-21.4071
-21.2864
-21.1673
-21.0605
-20.9662
-20.8759
-20.804
-20.7338
-20.6963
-20.6716
-20.6507
-20.6293
-20.6094
-20.5922
-20.5777
-20.5661
-20.5591
-20.5523
-20.5381
-20.5318
-21.1748
-21.1821
-21.1867
-21.198
-21.2228
-21.2449
-21.25
-21.2324
-21.2132
-21.2016
-21.1958
-21.1949
-21.1974
-21.203
-21.2113
-21.2225
-21.2367
-21.2544
-21.2759
-21.3026
-21.338
-21.3855
-21.4423