/*--------------------------------*- C++ -*----------------------------------*\
| =========                 |                                                 |
| \\      /  F ield         | OpenFOAM: The Open Source CFD Toolbox           |
|  \\    /   O peration     | Version:  2412                                  |
|   \\  /    A nd           | Website:  www.openfoam.com                      |
|    \\/     M anipulation  |                                                 |
\*---------------------------------------------------------------------------*/
FoamFile
{
    version     2.0;
    format      ascii;
    arch        "LSB;label=32;scalar=64";
    class       volScalarField;
    location    "5.55";
    object      alpha.honey;
}
// * * * * * * * * * * * * * * * * * * * * * * * * * * * * * * * * * * * * * //

dimensions      [0 0 0 0 0 0 0];

internalField   nonuniform List<scalar> 
6400
(
1
1
1
1
1
1
1
1
1
1
1
1
1
1
1
1
1
1
1
1
1
1
1
1
1
1
1
1
1
1
1
1
1
1
1
1
1
1
1
1
1
1
1
1
1
1
1
1
1
1
1
1
1
1
1
1
1
1
1
1
1
1
1
1
1
1
1
1
1
1
1
1
1
1
1
1
1
1
1
1
1
1
1
1
1
1
1
1
1
1
1
1
1
1
1
1
1
1
1
1
1
1
1
1
1
1
1
1
1
1
1
1
1
1
1
1
1
1
1
1
1
1
1
1
1
1
1
1
1
1
1
1
1
1
1
1
1
1
1
1
1
1
1
1
1
1
1
1
1
1
1
1
1
1
1
1
1
1
1
1
1
1
1
1
1
1
1
1
1
1
1
1
1
1
1
1
1
1
1
1
1
1
1
1
1
1
1
1
1
1
1
1
1
1
1
1
1
1
1
1
1
1
1
1
1
1
1
1
1
1
1
1
1
1
1
1
1
1
1
1
1
1
1
1
1
1
1
1
1
1
1
1
1
1
1
1
1
1
1
1
1
1
1
1
1
1
1
1
1
1
1
1
1
1
1
1
1
1
1
1
1
1
1
1
1
1
1
1
1
1
1
1
1
1
1
1
1
1
1
1
1
1
1
1
1
1
1
1
1
1
1
1
1
1
1
1
1
1
1
1
1
1
1
1
1
1
1
1
1
1
1
1
1
1
1
1
1
1
1
1
1
1
1
1
1
1
1
1
1
1
1
1
1
1
1
1
1
1
1
1
1
1
1
1
1
1
1
1
1
1
1
1
1
1
1
1
1
1
1
1
1
1
1
1
1
1
1
1
1
1
1
1
1
1
1
1
1
1
1
1
1
1
1
1
1
1
1
1
1
1
1
1
1
1
1
1
1
1
1
1
1
1
1
1
1
1
1
1
1
1
1
1
1
1
1
1
1
1
1
1
1
1
1
1
1
1
1
1
1
1
1
1
1
1
1
1
1
1
1
1
1
1
1
1
1
1
1
1
1
1
1
1
1
1
1
1
1
1
1
1
1
1
1
1
1
1
1
1
1
1
1
1
1
1
1
1
1
1
1
1
1
1
1
1
1
1
1
1
1
1
1
1
1
1
1
1
1
1
1
1
1
1
1
1
1
1
1
1
1
1
1
1
1
1
1
1
1
1
1
1
1
1
1
1
1
1
1
1
1
1
1
1
1
1
1
1
1
1
1
1
1
1
1
1
1
1
1
1
1
1
1
1
1
1
1
1
1
1
1
1
1
1
1
1
1
1
1
1
1
1
1
1
1
1
1
1
1
1
1
1
1
1
1
1
1
1
1
1
1
1
1
1
1
1
1
1
1
1
1
1
1
1
1
1
1
1
1
1
1
1
1
1
1
1
1
1
1
1
1
1
1
1
1
1
1
1
1
1
1
1
1
1
1
1
1
1
1
1
1
1
1
1
1
1
1
1
1
1
1
1
1
1
1
1
1
1
1
1
1
1
1
1
1
1
1
1
1
1
1
1
1
1
1
1
1
1
1
1
1
1
1
1
1
1
1
1
1
1
1
1
1
1
1
1
1
1
1
1
1
1
1
1
1
1
1
1
1
1
1
1
1
1
1
1
1
1
1
1
1
1
1
1
1
1
1
1
1
1
1
1
1
1
1
1
1
1
1
1
1
1
1
1
1
1
1
1
1
1
1
1
1
1
1
1
1
1
1
1
1
1
1
1
1
1
1
1
1
1
1
1
1
1
1
1
1
1
1
1
1
1
1
1
1
1
1
1
1
1
1
1
1
1
1
1
1
1
1
1
1
1
1
1
1
1
1
1
1
1
1
1
1
1
1
1
1
1
1
1
1
1
1
1
1
1
1
1
1
1
1
1
1
1
1
1
1
1
1
1
1
1
1
1
1
1
1
1
1
1
1
1
1
1
1
1
1
1
1
1
1
1
1
1
1
1
1
1
1
1
1
1
1
1
1
1
1
1
1
1
1
1
1
1
1
1
1
1
1
1
1
1
1
1
1
1
1
1
1
1
1
1
1
1
1
1
1
1
1
1
1
1
1
1
1
1
1
1
1
1
1
1
1
1
1
1
1
1
1
1
1
1
1
1
1
1
1
1
1
1
1
1
1
1
1
1
1
1
1
1
1
1
1
1
1
1
1
1
1
1
1
1
1
1
1
1
1
1
1
1
1
1
1
1
1
1
1
1
1
1
1
1
1
1
1
1
1
1
1
1
1
1
1
1
1
1
1
1
1
1
1
1
1
1
1
1
1
1
1
1
1
1
1
1
1
1
1
1
1
1
1
1
1
1
1
1
1
1
1
1
1
1
1
1
1
1
1
1
1
1
1
1
1
1
1
1
1
1
1
1
1
1
1
1
1
1
1
1
1
1
1
1
1
1
1
1
1
1
1
1
1
1
1
1
1
1
1
1
1
1
1
1
1
1
1
1
1
1
1
1
1
1
1
1
1
1
1
1
1
1
1
1
1
1
1
1
1
1
1
1
1
1
1
1
1
1
1
1
1
1
1
1
1
1
1
1
1
1
1
1
1
1
1
1
1
1
1
1
1
1
1
1
1
1
1
1
1
1
1
1
1
1
1
1
1
1
1
1
1
1
1
1
1
1
1
1
1
1
1
1
1
1
1
1
1
1
1
1
1
1
1
1
1
1
1
1
1
1
1
1
1
1
1
1
1
1
1
1
1
1
1
1
1
1
1
1
1
1
1
1
1
1
1
1
1
1
1
1
1
1
1
1
1
1
1
1
1
1
1
1
1
1
1
1
1
1
1
1
1
1
1
1
1
1
1
1
1
1
1
1
1
1
1
1
1
1
1
1
1
1
1
1
1
1
1
1
1
1
1
1
1
1
1
1
1
1
1
1
1
1
1
1
1
1
1
1
1
1
1
1
1
1
1
1
1
1
1
1
1
1
1
1
1
1
1
1
1
1
1
1
1
1
1
1
1
1
1
1
1
1
1
1
1
1
1
1
1
1
1
1
1
1
1
1
1
1
1
1
1
1
1
1
1
1
1
1
1
1
1
1
1
1
1
1
1
1
1
1
1
1
1
1
1
1
1
1
1
1
1
1
1
1
1
1
1
1
1
1
1
1
1
1
1
1
1
1
1
1
1
1
1
1
1
1
1
1
1
1
1
1
1
1
1
1
1
1
1
1
1
1
1
1
1
1
1
1
1
1
1
1
1
1
1
1
1
1
1
1
1
1
1
1
1
1
1
1
1
1
1
1
1
1
1
1
1
1
1
1
1
1
1
1
1
1
1
1
1
1
1
1
1
1
1
1
1
1
1
1
1
1
1
1
1
1
1
1
1
1
1
1
1
1
1
1
1
1
1
1
1
1
1
1
1
1
1
1
1
1
1
1
1
1
1
1
1
1
1
1
1
1
1
1
1
1
1
1
1
1
1
1
1
1
0.999999
0.999999
0.999999
1
1
1
1
1
1
1
1
1
1
1
1
0.999999
0.999999
0.999999
0.999999
0.999999
0.999999
0.999999
0.999999
0.999999
0.999999
0.999999
0.999999
0.999998
0.999998
0.999998
0.999997
0.999997
0.999996
0.999996
0.999995
0.999994
0.999994
0.999993
0.999993
0.999992
0.999992
0.999992
0.999993
0.999993
0.999994
0.999994
0.999995
0.999995
0.999996
0.999996
0.999997
0.999997
0.999998
0.999998
0.999998
0.999998
0.999999
0.999999
0.999999
0.999999
1
1
1
1
1
1
1
1
1
1
1
1
1
1
1
1
1
1
1
1
2.40903e-06
3.16778e-06
3.43241e-06
3.703e-06
3.88521e-06
4.0198e-06
4.13526e-06
4.21238e-06
4.25099e-06
4.25718e-06
4.26741e-06
4.30971e-06
4.33357e-06
4.33348e-06
4.32679e-06
4.29521e-06
4.24398e-06
4.16433e-06
4.05086e-06
3.90235e-06
3.73648e-06
3.56934e-06
3.36703e-06
3.13269e-06
2.88281e-06
2.62604e-06
2.33507e-06
2.02413e-06
1.73477e-06
1.49495e-06
1.31084e-06
1.13679e-06
9.3834e-07
7.17493e-07
4.79461e-07
2.31077e-07
3.56528e-19
3.56528e-19
3.56528e-19
1.16273e-18
1.47277e-18
2.6299e-19
1.05706e-20
2.39828e-22
1.98727e-23
1.60331e-23
1.59802e-23
1.59811e-23
8.10834e-08
2.53328e-07
4.12859e-07
5.60981e-07
7.15555e-07
8.97667e-07
1.09355e-06
1.2962e-06
1.48183e-06
1.67069e-06
1.8615e-06
2.0257e-06
2.16675e-06
2.28791e-06
2.4543e-06
2.74082e-06
3.01514e-06
3.26206e-06
3.47847e-06
3.66047e-06
3.80595e-06
3.91083e-06
3.97229e-06
3.988e-06
3.95289e-06
3.86422e-06
3.71516e-06
3.49489e-06
3.22636e-06
2.96463e-06
2.69056e-06
1.96941e-06
1.38812e-18
8.57348e-19
1.06631e-18
1.33074e-18
1.73187e-18
2.13189e-18
2.61138e-18
3.26691e-18
4.05259e-18
4.7809e-18
5.39739e-18
6.28316e-18
7.56092e-18
9.07736e-18
1.10821e-17
1.37957e-17
1.74166e-17
2.20966e-17
2.77809e-17
3.46463e-17
4.36565e-17
5.5543e-17
6.85175e-17
8.13958e-17
9.49194e-17
1.07349e-16
1.11342e-16
1.02274e-16
8.39167e-17
6.36298e-17
3.66298e-17
7.15516e-19
7.15732e-19
1.23414e-19
1.91757e-18
4.92339e-17
3.77539e-15
6.3707e-14
5.32969e-15
5.65598e-15
5.19214e-15
2.6743e-15
9.00332e-14
1.02072e-20
2.39828e-22
1.98727e-23
2.08997e-19
1.57524e-20
1.381e-19
2.13217e-17
3.46652e-17
4.07644e-17
4.67842e-17
5.82932e-17
7.20639e-17
8.20663e-17
8.44453e-17
8.24369e-17
7.84103e-17
6.92443e-17
5.69117e-17
4.65871e-17
4.06653e-17
3.59508e-17
2.94844e-17
2.24799e-17
1.66741e-17
1.23869e-17
9.31753e-18
7.10852e-18
5.49969e-18
4.29914e-18
3.4087e-18
2.72002e-18
2.1504e-18
1.69007e-18
1.36216e-18
1.15443e-18
9.41411e-19
1.46126e-18
1.71433e-21
8.98916e-22
9.52799e-22
1.22458e-21
1.64387e-21
1.9156e-21
2.23276e-21
2.50096e-21
3.27546e-21
3.87011e-21
3.83118e-21
4.06614e-21
6.25805e-21
1.07143e-20
1.38275e-20
1.69777e-20
2.48171e-20
3.45554e-20
4.58943e-20
6.13999e-20
8.62419e-20
1.26866e-19
1.78673e-19
2.25067e-19
2.56858e-19
3.1571e-19
4.11376e-19
9.32765e-19
2.15292e-18
6.59512e-18
3.14143e-17
2.64401e-17
2.80914e-17
5.89582e-16
9.37388e-15
1.49756e-13
1.09092e-12
1.63832e-12
1.59497e-12
2.00333e-12
1.87351e-12
1.71976e-12
1.48485e-12
2.4213e-14
9.42276e-16
3.69057e-17
5.92636e-18
2.2604e-18
8.81296e-18
7.4847e-18
1.64796e-18
1.16348e-18
7.4358e-19
7.66768e-19
8.16963e-19
3.85577e-19
2.35726e-19
2.59329e-19
2.86709e-19
2.24693e-19
1.144e-19
6.02671e-20
5.23252e-20
5.33727e-20
4.55457e-20
3.26181e-20
2.14526e-20
1.39596e-20
9.69152e-21
6.97844e-21
5.09601e-21
3.95271e-21
3.30471e-21
2.7639e-21
2.19291e-21
1.83822e-21
1.45038e-21
1.21564e-21
1.07592e-21
1.92367e-21
1.4075e-22
1.94489e-22
6.75691e-23
9.55373e-23
1.2776e-22
1.69515e-22
2.34531e-22
3.24857e-22
4.12337e-22
4.85204e-22
6.35466e-22
9.03569e-22
1.25751e-21
1.82186e-21
2.75542e-21
4.21212e-21
6.32321e-21
9.05885e-21
1.27205e-20
1.87356e-20
2.77915e-20
3.62697e-20
4.33248e-20
5.49336e-20
6.68586e-20
5.66893e-20
6.26853e-20
5.70279e-19
1.61556e-18
2.54064e-18
1.10567e-17
1.71153e-16
2.30202e-15
3.28806e-14
7.28577e-13
4.3233e-12
5.02024e-12
2.34796e-11
8.88848e-11
9.15862e-11
9.68768e-11
1.06392e-10
2.51697e-11
1.80212e-12
8.82188e-14
4.4036e-15
8.25994e-16
2.26103e-16
2.16229e-17
1.64796e-18
1.16348e-18
7.07057e-19
1.29132e-19
2.85349e-20
3.05159e-20
4.12815e-20
4.59133e-20
4.11887e-20
3.67822e-20
3.82895e-20
3.60057e-20
2.73555e-20
1.95768e-20
1.77239e-20
1.57117e-20
1.15972e-20
7.25252e-21
4.20963e-21
2.61592e-21
1.80616e-21
1.27934e-21
9.12614e-22
6.63481e-22
5.07225e-22
3.96148e-22
3.15485e-22
2.57976e-22
2.24033e-22
2.73784e-22
2.26947e-22
4.68793e-25
9.6547e-25
2.07753e-25
2.42948e-25
3.37315e-25
4.66694e-25
6.75494e-25
9.8627e-25
1.33998e-24
1.71694e-24
2.40959e-24
3.65879e-24
5.52292e-24
8.72686e-24
1.44879e-23
2.44527e-23
4.05298e-23
6.40712e-23
9.98264e-23
1.63249e-22
2.6562e-22
3.79891e-22
4.92545e-22
6.16094e-22
1.26374e-21
9.38336e-21
1.93442e-20
8.51777e-20
1.18967e-18
1.8439e-17
3.01395e-16
4.60082e-15
6.63748e-14
9.4665e-13
8.90264e-12
3.79132e-11
1.0949e-10
6.85512e-10
2.56621e-09
2.36147e-09
2.47782e-09
2.92777e-09
6.80857e-10
6.04019e-11
3.54315e-12
1.97765e-13
9.3432e-14
1.24835e-14
7.64891e-16
4.49941e-17
2.63029e-18
1.90135e-19
2.83908e-20
1.44042e-20
5.32412e-21
8.03818e-22
6.826e-22
6.13745e-22
4.87069e-22
4.27481e-22
3.82952e-22
2.94507e-22
2.02105e-22
1.66629e-22
1.42748e-22
9.87224e-23
5.34804e-23
2.52183e-23
1.3393e-23
8.65532e-24
5.86321e-24
3.98945e-24
2.83038e-24
2.14376e-24
1.68924e-24
1.3755e-24
1.12262e-24
1.03863e-24
1.90499e-24
9.73161e-25
1.0087e-27
1.28933e-27
7.60681e-28
8.40957e-28
1.06397e-27
1.5117e-27
2.23442e-27
3.37645e-27
4.91223e-27
6.87247e-27
1.01253e-26
1.59419e-26
2.55545e-26
4.25915e-26
7.43735e-26
1.33248e-25
2.38362e-25
4.16986e-25
7.27683e-25
1.30937e-24
2.2817e-24
3.44852e-24
1.0832e-23
5.74893e-23
1.67583e-22
2.29765e-21
3.82567e-20
7.87531e-19
1.60724e-17
3.00392e-16
5.19867e-15
9.20939e-14
1.02269e-12
5.22253e-12
3.28398e-11
4.45754e-10
4.19294e-09
1.88438e-08
4.53305e-08
3.81086e-08
3.93672e-08
4.98503e-08
1.73515e-08
1.27012e-09
9.31981e-11
6.40154e-12
2.07979e-12
3.35734e-13
2.38832e-14
1.32022e-15
7.25926e-17
3.72991e-18
1.80667e-19
9.86161e-21
6.6255e-22
1.59577e-22
7.52851e-23
9.87287e-24
6.0862e-24
4.60204e-24
3.13164e-24
2.01277e-24
1.25568e-24
8.22716e-25
5.63671e-25
3.53405e-25
1.8764e-25
9.05225e-26
4.55084e-26
2.59767e-26
1.59276e-26
9.98472e-27
6.49841e-27
4.46346e-27
3.18813e-27
2.35042e-27
1.78751e-27
1.50229e-27
1.95128e-27
1.38983e-27
3.7605e-30
4.57692e-30
3.23359e-30
3.79477e-30
4.80057e-30
6.69911e-30
1.0271e-29
1.62167e-29
2.50109e-29
3.7445e-29
5.85726e-29
9.79186e-29
1.68393e-28
3.01648e-28
5.67771e-28
1.10236e-27
2.1508e-27
4.14085e-27
7.89604e-27
1.43764e-26
3.12958e-26
2.58749e-25
1.15517e-24
2.35984e-23
5.33768e-22
1.44865e-20
3.76915e-19
8.80202e-18
1.87351e-16
3.7115e-15
6.88322e-14
8.63399e-13
6.50532e-12
6.19386e-11
4.61095e-10
4.054e-09
3.72132e-07
6.54451e-07
5.49992e-07
4.2655e-07
4.33827e-07
5.80261e-07
3.33096e-07
1.78731e-08
1.67485e-09
1.59943e-10
2.1336e-11
2.7142e-12
3.68697e-13
2.4592e-14
1.21001e-15
5.92649e-17
2.70045e-18
1.12707e-19
4.30917e-21
1.75519e-22
9.85736e-24
1.09537e-24
3.86934e-25
6.42291e-26
3.83945e-26
2.24014e-26
1.25778e-26
7.34888e-27
4.43234e-27
2.52794e-27
1.26414e-27
5.81219e-28
2.73955e-28
1.44093e-28
8.21311e-29
4.83517e-29
2.96175e-29
1.9209e-29
1.30042e-29
9.14237e-30
6.73131e-30
5.44189e-30
6.08134e-30
4.87862e-30
1.69585e-32
2.10215e-32
1.55589e-32
1.87523e-32
2.50749e-32
3.58902e-32
5.60035e-32
9.25714e-32
1.5106e-31
2.41068e-31
4.01126e-31
7.14947e-31
1.32098e-30
2.55027e-30
5.19356e-30
1.09738e-29
2.33935e-29
4.74946e-29
9.12514e-29
4.22062e-28
2.84594e-27
7.02814e-26
2.06958e-24
7.28349e-23
2.42515e-21
7.16347e-20
1.92314e-18
4.70497e-17
1.05895e-15
2.25408e-14
3.95803e-13
3.81332e-12
2.43643e-11
2.26592e-10
1.77952e-09
1.57036e-08
1.26573e-06
5.94348e-06
5.06843e-06
3.52171e-06
3.52001e-06
4.86634e-06
2.17953e-06
3.06241e-07
1.26754e-08
1.48658e-09
1.73455e-10
1.76973e-11
2.04459e-12
1.84353e-13
1.00361e-14
4.57678e-16
1.9779e-17
7.89169e-19
2.88613e-20
9.58935e-22
2.82003e-23
9.29745e-25
3.65051e-26
4.70803e-27
6.21366e-28
2.88435e-28
1.57351e-28
8.42642e-29
4.58244e-29
2.37308e-29
1.09382e-29
4.66024e-30
2.03969e-30
9.95493e-31
5.29835e-31
2.93546e-31
1.70259e-31
1.05053e-31
6.80533e-32
4.60792e-32
3.29247e-32
2.59984e-32
2.84155e-32
2.24727e-32
8.79311e-35
1.10158e-34
8.50015e-35
1.05918e-34
1.47523e-34
2.19551e-34
3.53569e-34
6.07861e-34
1.04793e-33
1.77826e-33
3.14788e-33
5.98762e-33
1.18824e-32
2.47267e-32
5.45637e-32
1.24621e-31
2.69979e-31
5.92245e-31
4.60011e-30
4.41758e-29
1.80062e-27
7.34511e-26
3.11293e-24
1.18762e-22
4.09323e-21
1.27589e-19
3.59277e-18
9.14681e-17
2.13612e-15
4.74676e-14
8.89703e-13
7.34607e-12
2.57607e-11
1.92161e-10
1.26419e-09
8.4568e-09
7.6115e-07
1.63062e-05
2.65822e-05
2.29739e-05
2.27477e-05
3.85131e-05
2.8976e-05
2.92763e-06
1.75458e-08
2.01175e-09
2.84739e-10
3.03605e-11
5.65856e-12
6.45057e-13
3.62368e-14
1.57411e-15
6.43188e-17
2.43251e-18
8.403e-20
2.64746e-21
7.58481e-23
1.95392e-24
4.56661e-26
1.26885e-27
4.86594e-29
5.11923e-30
2.0679e-30
1.08244e-30
5.46455e-31
2.57779e-31
1.09372e-31
4.31419e-32
1.75272e-32
7.95242e-33
3.95499e-33
2.06322e-33
1.13352e-33
6.65733e-34
4.12915e-34
2.69409e-34
1.868e-34
1.43986e-34
1.54442e-34
1.20049e-34
5.16342e-37
6.55356e-37
5.22383e-37
6.71896e-37
9.69051e-37
1.49832e-36
2.51063e-36
4.49605e-36
8.16319e-36
1.47051e-35
2.76796e-35
5.61846e-35
1.19695e-34
2.68682e-34
6.35015e-34
1.44892e-33
3.54593e-33
3.09519e-32
4.41337e-31
2.28207e-29
1.28181e-27
6.45026e-26
2.84629e-24
1.13008e-22
4.0721e-21
1.32948e-19
3.92652e-18
1.04767e-16
2.61147e-15
6.24271e-14
1.1044e-12
9.87494e-12
3.88945e-11
1.0445e-10
7.64438e-10
4.26887e-09
4.50476e-07
5.35824e-05
8.566e-05
0.000131716
0.000130503
0.000166386
0.000201097
4.90599e-06
7.48491e-09
8.48678e-10
1.94943e-10
4.41449e-11
1.0167e-11
1.11662e-12
5.97521e-14
2.45833e-15
9.57963e-17
3.46725e-18
1.14152e-19
3.41994e-21
9.36248e-23
2.33507e-24
5.30311e-26
1.0564e-27
2.14174e-29
5.18538e-31
3.98149e-32
1.44664e-32
7.05137e-33
3.13974e-33
1.22948e-33
4.4908e-34
1.69522e-34
7.16316e-35
3.33444e-35
1.6397e-35
8.54081e-36
4.7803e-36
2.84202e-36
1.7888e-36
1.20476e-36
9.07137e-37
9.54583e-37
7.28796e-37
3.37309e-39
4.3637e-39
3.56223e-39
4.70462e-39
7.00584e-39
1.12373e-38
1.96074e-38
3.67103e-38
7.01205e-38
1.33714e-37
2.67462e-37
5.79179e-37
1.32448e-36
3.17128e-36
7.50917e-36
1.91607e-35
1.27353e-34
2.75922e-33
1.80558e-31
1.31355e-29
7.88846e-28
4.18329e-26
1.98297e-24
8.51228e-23
3.30032e-21
1.15393e-19
3.61618e-18
1.0223e-16
2.73714e-15
6.90774e-14
1.22272e-12
1.08799e-11
3.8072e-11
5.59176e-11
2.03929e-10
1.09751e-09
1.17212e-06
0.000647283
0.000365325
0.000714526
0.000710144
0.000309353
0.000434047
2.89071e-06
1.72846e-09
1.6629e-10
1.0948e-10
5.66644e-11
1.33687e-11
1.32813e-12
7.0931e-14
2.78644e-15
1.03212e-16
3.58394e-18
1.12988e-19
3.22416e-21
8.35279e-23
1.97179e-24
4.23974e-26
8.20257e-28
1.38261e-29
2.15713e-31
4.08152e-33
2.78445e-34
9.40881e-35
4.05104e-35
1.51677e-35
5.14661e-36
1.80608e-36
7.12037e-37
3.10847e-37
1.44289e-37
7.13527e-38
3.81154e-38
2.1753e-38
1.32266e-38
8.66333e-39
6.38154e-39
6.60072e-39
4.9332e-39
2.41096e-41
3.19412e-41
2.65616e-41
3.58924e-41
5.50297e-41
9.13879e-41
1.659e-40
3.24919e-40
6.52788e-40
1.31623e-39
2.79392e-39
6.45357e-39
1.57271e-38
3.8384e-38
9.69774e-38
4.01685e-37
9.94521e-36
8.44746e-34
8.02975e-32
5.93238e-30
3.81607e-28
2.19698e-26
1.14311e-24
5.37069e-23
2.2738e-21
8.64067e-20
2.92901e-18
8.93298e-17
2.5861e-15
7.10855e-14
1.32787e-12
1.10394e-11
3.74864e-11
5.56008e-11
1.34809e-11
1.74568e-12
2.5993e-07
0.00148145
0.020752
0.00563077
0.00547011
0.0170418
0.000462433
2.06067e-07
1.63747e-10
3.68802e-11
8.98355e-11
5.36555e-11
1.32405e-11
1.37922e-12
7.03222e-14
2.59644e-15
9.11221e-17
3.01074e-18
8.96874e-20
2.40287e-21
5.82624e-23
1.28311e-24
2.57341e-26
4.70199e-28
7.69625e-30
1.10634e-31
1.37481e-33
2.20693e-35
1.6837e-36
5.2964e-37
1.95978e-37
6.36528e-38
2.08235e-38
7.6703e-39
3.14645e-39
1.38084e-39
6.4927e-40
3.31536e-40
1.81906e-40
1.07e-40
6.82413e-41
4.925e-41
5.01621e-41
3.65888e-41
1.85872e-43
2.53013e-43
2.13615e-43
2.94603e-43
4.64054e-43
7.96453e-43
1.50216e-42
3.07417e-42
6.49246e-42
1.38325e-41
3.11227e-41
7.64267e-41
1.93735e-40
4.8358e-40
1.52458e-39
1.81745e-38
2.05508e-36
2.83824e-34
2.69126e-32
2.14952e-30
1.53219e-28
9.83129e-27
5.6838e-25
2.95654e-23
1.38105e-21
5.76491e-20
2.13615e-18
7.09322e-17
2.24345e-15
6.76381e-14
1.34862e-12
1.13014e-11
3.47434e-11
4.6078e-11
2.57435e-12
1.67855e-12
1.74568e-12
0.00164951
0.315701
0.212966
0.213129
0.304882
0.000412341
6.94896e-10
3.31895e-11
3.51257e-11
6.88574e-11
4.25518e-11
1.14386e-11
1.23223e-12
6.14354e-14
2.12202e-15
6.94901e-17
2.15167e-18
5.99481e-20
1.49567e-21
3.36574e-23
6.86683e-25
1.27428e-26
2.15518e-28
3.32548e-30
4.60893e-32
5.54882e-34
5.57828e-36
8.51663e-38
8.58939e-39
2.52551e-39
8.21861e-40
2.55798e-40
8.82241e-41
3.4063e-41
1.41575e-41
6.34009e-42
3.09974e-42
1.63756e-42
9.33146e-43
5.80184e-43
4.10853e-43
4.12598e-43
2.93031e-43
1.52652e-45
2.1404e-45
1.83037e-45
2.57129e-45
4.15431e-45
7.35739e-45
1.43963e-44
3.07425e-44
6.81738e-44
1.53298e-43
3.65182e-43
9.42835e-43
2.41433e-42
6.82578e-42
3.76893e-41
1.64936e-39
5.39002e-37
7.18853e-35
7.41018e-33
6.7025e-31
5.4025e-29
3.89812e-27
2.52049e-25
1.46109e-23
7.57818e-22
3.49835e-20
1.42633e-18
5.19373e-17
1.8142e-15
6.15138e-14
1.32611e-12
1.10053e-11
3.16007e-11
3.82188e-11
9.85563e-13
8.64895e-13
1.0615e-12
0.00188246
0.43766
0.437661
0.43766
0.43766
0.000334754
5.9404e-11
2.07124e-11
3.51382e-11
5.21851e-11
3.21269e-11
8.80101e-12
9.6897e-13
4.71195e-14
1.52597e-15
4.65727e-17
1.34517e-18
3.48499e-20
8.05026e-22
1.6721e-23
3.14233e-25
5.36201e-27
8.33237e-29
1.1821e-30
1.53143e-32
1.78509e-34
1.76646e-36
1.45791e-38
2.72434e-40
3.74968e-41
1.06195e-41
3.2751e-42
1.06971e-42
3.89428e-43
1.53551e-43
6.5608e-44
3.07644e-44
1.5673e-44
8.6641e-45
5.25787e-45
3.65787e-45
3.62657e-45
2.50343e-45
1.32115e-47
1.91197e-47
1.65311e-47
2.36159e-47
3.9079e-47
7.13182e-47
1.44572e-46
3.21678e-46
7.47931e-46
1.77256e-45
4.45271e-45
1.19246e-44
3.23213e-44
5.50863e-44
7.66843e-43
3.70746e-40
1.08243e-37
1.55926e-35
1.86212e-33
1.9331e-31
1.76986e-29
1.43902e-27
1.0428e-25
6.74169e-24
3.88427e-22
1.98574e-20
8.93967e-19
3.58741e-17
1.37186e-15
5.00188e-14
1.1439e-12
9.81694e-12
2.79392e-11
3.30262e-11
6.50373e-13
6.37027e-13
9.40549e-13
0.00212684
0.437271
0.43766
0.437662
0.437338
0.00031889
2.00552e-11
1.3759e-11
3.5369e-11
3.72886e-11
2.33535e-11
6.66485e-12
7.30835e-13
3.32558e-14
9.9113e-16
2.81589e-17
7.55838e-19
1.81046e-20
3.85067e-22
7.34241e-24
1.26349e-25
1.97117e-27
2.7973e-29
3.6199e-31
4.28457e-33
4.63908e-35
4.50562e-37
3.57004e-39
2.5796e-41
7.48048e-43
1.4646e-43
4.26797e-44
1.34769e-44
4.65016e-45
1.74257e-45
7.11684e-46
3.20638e-46
1.57776e-46
8.4732e-47
5.02484e-47
3.43823e-47
3.36906e-47
2.25744e-47
1.19356e-49
1.78564e-49
1.55882e-49
2.26133e-49
3.82742e-49
7.18813e-49
1.50745e-48
3.48948e-48
8.49294e-48
2.1177e-47
5.60237e-47
1.53868e-46
3.8568e-46
4.09278e-46
1.78088e-44
5.98261e-42
6.56642e-39
1.86398e-36
3.155e-34
4.09109e-32
4.44661e-30
4.18861e-28
3.47163e-26
2.54431e-24
1.64916e-22
9.43353e-21
4.74345e-19
2.12147e-17
8.85423e-16
3.34459e-14
7.96614e-13
7.534e-12
2.32831e-11
2.78658e-11
1.37905e-12
5.66892e-13
6.86508e-13
0.00222512
0.435637
0.436653
0.436669
0.435743
0.000458071
1.39964e-11
1.38025e-11
6.27403e-11
4.19133e-11
2.04774e-11
5.09672e-12
5.30637e-13
2.17976e-14
6.00276e-16
1.59632e-17
3.95565e-19
8.68235e-21
1.68769e-22
2.9331e-24
4.58833e-26
6.49465e-28
8.35067e-30
9.78429e-32
1.04742e-33
1.02791e-35
9.24782e-38
7.37534e-40
4.51406e-42
3.37455e-44
2.29033e-45
5.64507e-46
1.74053e-46
5.73959e-47
2.04939e-47
8.01587e-48
3.47632e-48
1.65497e-48
8.64676e-49
5.01703e-49
3.37996e-49
3.27663e-49
2.12886e-49
1.11616e-51
1.72838e-51
1.52167e-51
2.23879e-51
3.87071e-51
7.47084e-51
1.61846e-50
3.89133e-50
9.8969e-50
2.59252e-49
7.27686e-49
2.01585e-48
1.87421e-48
6.71117e-48
4.09278e-46
5.32077e-44
9.38479e-42
1.27739e-38
8.29008e-36
2.55018e-33
4.58689e-31
6.13777e-29
6.59834e-27
5.90631e-25
4.56272e-23
3.05128e-21
1.7779e-19
9.34833e-18
4.57711e-16
1.77854e-14
4.25712e-13
4.58857e-12
1.69573e-11
2.19699e-11
2.57493e-12
2.46491e-13
1.29708e-11
0.0021764
0.334812
0.408716
0.408335
0.333363
0.000522048
3.85208e-09
1.29366e-11
3.34077e-11
4.50428e-11
2.37351e-11
5.15661e-12
3.66686e-13
1.20021e-14
3.19058e-16
8.07677e-18
1.82891e-19
3.63066e-21
6.36803e-23
9.9644e-25
1.40165e-26
1.78187e-28
2.05699e-30
2.16479e-32
2.08254e-34
1.83547e-36
1.48895e-38
1.11212e-40
7.08152e-43
3.33422e-45
4.72268e-47
7.9187e-48
2.27369e-48
7.25002e-49
2.47635e-49
9.29551e-50
3.88797e-50
1.79382e-50
9.13157e-51
5.19032e-51
3.44636e-51
3.30835e-51
2.08245e-51
1.07229e-53
1.72045e-53
1.52605e-53
2.27448e-53
4.01173e-53
7.94654e-53
1.77562e-52
4.42673e-52
1.17448e-51
3.22759e-51
9.48658e-51
2.61887e-50
9.20024e-51
8.67551e-50
6.71117e-48
1.04295e-45
2.09102e-43
3.836e-41
6.43615e-39
1.03498e-35
7.5272e-33
2.26026e-30
4.35457e-28
6.58896e-26
7.04967e-24
6.09174e-22
4.42961e-20
3.00663e-18
2.23467e-16
1.03801e-14
1.85777e-13
1.9356e-12
9.51e-12
1.47486e-11
2.51567e-12
2.04871e-13
-2.84758e-13
0.00140126
0.015793
0.0594974
0.0591222
0.0152483
0.000508344
-2.51777e-11
1.0858e-11
1.78594e-11
4.50428e-11
2.53339e-11
4.6783e-12
2.22242e-13
5.32503e-15
1.28981e-16
3.00146e-18
6.10887e-20
1.08343e-21
1.69849e-23
2.37381e-25
2.97111e-27
3.355e-29
3.44699e-31
3.23969e-33
2.79534e-35
2.21767e-37
1.62198e-39
1.10045e-41
6.86601e-44
3.36093e-46
1.67498e-48
1.18006e-49
3.01745e-50
9.29505e-51
3.04974e-51
1.10142e-51
4.45207e-52
1.99424e-52
9.90619e-53
5.52279e-53
3.61805e-53
3.44208e-53
2.09756e-53
1.05102e-55
1.74888e-55
1.56151e-55
2.35498e-55
4.23201e-55
8.59082e-55
1.97673e-54
5.10074e-54
1.40896e-53
4.05244e-53
1.24685e-52
3.58231e-52
1.23876e-52
1.09477e-51
8.67551e-50
1.40567e-47
3.17127e-45
6.51335e-43
1.20945e-40
2.05338e-38
2.90895e-35
2.07361e-32
8.01355e-30
2.72319e-27
6.77024e-25
9.3688e-23
9.62838e-21
9.08163e-19
1.16243e-16
7.42687e-15
1.01329e-13
5.89808e-13
3.44096e-12
6.99528e-12
1.50454e-12
1.88754e-13
9.33463e-08
0.000376754
9.7606e-13
9.18315e-13
6.94782e-13
8.33478e-13
0.000323042
1.2795e-08
1.08301e-11
2.33259e-11
4.06213e-11
2.16641e-11
3.27726e-12
1.17566e-13
2.36194e-15
4.70719e-17
9.47185e-19
1.73211e-20
2.76232e-22
3.87559e-24
4.88955e-26
5.63781e-28
5.89501e-30
5.55769e-32
4.75283e-34
3.70524e-36
2.64267e-38
1.72978e-40
1.04292e-42
5.83507e-45
2.93782e-47
1.16682e-49
2.00811e-51
4.10119e-52
1.20023e-52
3.80043e-53
1.32432e-53
5.1843e-54
2.25871e-54
1.09656e-54
6.0041e-55
3.88474e-55
3.66562e-55
2.16115e-55
1.04444e-57
1.80396e-57
1.62002e-57
2.46948e-57
4.51536e-57
9.37924e-57
2.2186e-56
5.91411e-56
1.69719e-55
5.0941e-55
1.64249e-54
5.14696e-54
3.03365e-54
1.50546e-53
1.09477e-51
1.72641e-49
4.24815e-47
1.00789e-44
4.12782e-42
7.12696e-39
2.47621e-36
6.49514e-34
1.60622e-31
5.77925e-29
3.49164e-26
1.08191e-23
1.93133e-21
2.65783e-19
5.51755e-17
5.14565e-15
7.2628e-14
2.4529e-13
8.01888e-13
1.95083e-12
6.20276e-13
1.8223e-13
4.27049e-08
1.64196e-12
1.0691e-12
6.94782e-13
6.94782e-13
6.94782e-13
8.33478e-13
1.95718e-08
1.09908e-11
2.57601e-11
3.18147e-11
1.38119e-11
1.6975e-12
6.79295e-14
1.69764e-15
3.40745e-17
6.50604e-19
1.14964e-20
1.77373e-22
2.37472e-24
2.80034e-26
2.95396e-28
2.81101e-30
2.422e-32
1.88952e-34
1.33502e-36
8.5699e-39
5.0043e-41
2.66157e-43
1.29097e-45
5.71727e-48
2.19935e-50
8.6421e-53
5.77816e-54
1.54923e-54
4.75951e-55
1.60561e-55
6.10128e-56
2.59042e-56
1.23108e-56
6.62878e-57
4.24031e-57
3.97144e-57
2.26394e-57
1.0462e-59
1.8772e-59
1.69425e-59
2.60745e-59
4.84431e-59
1.02803e-58
2.49535e-58
6.85762e-58
2.04002e-57
6.37355e-57
2.14544e-56
7.36794e-56
9.89677e-56
2.47454e-55
1.50546e-53
1.45269e-50
1.76424e-47
7.40618e-45
2.19933e-42
5.8737e-40
1.29546e-37
2.73225e-35
5.82425e-33
1.59968e-30
9.30003e-28
6.09846e-25
2.32943e-22
5.45373e-20
1.9556e-17
2.95231e-15
5.052e-14
1.78209e-13
2.65507e-13
4.26694e-13
2.63883e-13
1.81358e-13
1.92507e-09
1.82334e-12
6.41408e-12
4.0344e-12
7.08456e-13
8.93757e-13
1.72443e-12
5.82585e-09
1.05283e-11
2.5625e-11
2.51577e-11
7.32706e-12
8.5579e-13
4.60709e-14
1.3822e-15
2.87765e-17
5.45029e-19
9.44126e-21
1.42006e-22
1.84285e-24
2.08517e-26
2.07162e-28
1.82914e-30
1.4508e-32
1.03661e-34
6.68803e-37
3.9076e-39
2.06925e-41
9.93525e-44
4.32628e-46
1.7129e-48
6.11361e-51
1.72222e-53
1.11744e-55
2.01865e-56
5.94849e-57
1.9514e-57
7.21596e-58
2.99138e-58
1.39394e-58
7.39108e-59
4.67924e-59
4.35324e-59
2.39798e-59
1.05062e-61
1.9601e-61
1.77657e-61
2.75724e-61
5.19763e-61
1.12499e-60
2.7966e-60
7.90577e-60
2.43188e-59
7.88919e-59
2.7682e-58
1.02114e-57
2.80753e-57
3.27704e-56
8.5365e-54
3.28181e-51
1.12461e-48
3.81047e-46
1.14887e-43
2.57547e-41
4.97859e-39
5.46178e-37
1.08109e-34
2.40444e-32
9.3824e-30
8.5818e-27
7.90381e-24
4.22886e-21
4.85615e-18
1.40376e-15
3.27217e-14
1.50525e-13
2.26319e-13
2.48164e-13
2.15712e-13
1.81358e-13
1.81358e-13
9.02864e-12
2.97588e-11
1.55805e-11
1.71287e-12
7.09902e-12
5.43935e-11
1.0193e-09
1.03081e-11
2.47567e-11
1.98343e-11
4.14525e-12
5.02998e-13
3.14414e-14
1.01863e-15
2.17972e-17
4.10597e-19
6.88535e-21
9.88065e-23
1.21548e-24
1.29561e-26
1.20214e-28
9.8186e-31
7.1428e-33
4.65447e-35
2.7287e-37
1.44369e-39
6.91229e-42
3.00116e-44
1.18243e-46
4.23067e-49
1.37925e-51
3.84051e-54
8.46837e-57
2.73308e-58
7.40807e-59
2.36491e-59
8.53181e-60
3.46042e-60
1.58376e-60
8.28054e-61
5.19382e-61
4.80314e-61
2.55508e-61
1.05311e-63
2.04259e-63
1.85941e-63
2.90464e-63
5.54807e-63
1.22265e-62
3.1067e-62
9.01127e-62
2.85594e-61
9.58033e-61
3.48411e-60
1.34621e-59
4.89635e-59
1.00084e-57
3.36169e-55
1.47385e-52
3.90939e-50
1.04651e-47
2.64398e-45
6.57154e-43
1.22555e-39
5.00045e-34
1.01061e-31
1.06916e-29
9.62215e-28
8.25994e-26
8.08748e-24
1.16195e-21
1.60178e-18
6.24967e-16
2.16713e-14
1.63925e-13
2.55772e-13
2.67241e-13
2.44337e-13
1.85818e-13
1.8522e-13
1.80767e-11
5.2467e-11
3.22456e-11
4.53195e-12
3.46555e-11
2.82619e-10
4.55228e-10
1.01727e-11
2.10459e-11
1.48093e-11
2.37567e-12
2.97773e-13
1.89997e-14
5.99965e-16
1.283e-17
2.37937e-19
3.78963e-21
5.0667e-23
5.76436e-25
5.66104e-27
4.83801e-29
3.62913e-31
2.40952e-33
1.42702e-35
7.57627e-38
3.62246e-40
1.56577e-42
6.12919e-45
2.17361e-47
6.98615e-50
2.04523e-52
5.51838e-55
1.1491e-57
4.8959e-60
9.19843e-61
2.8449e-61
1.00356e-61
3.99069e-62
1.79702e-62
9.27764e-63
5.77145e-63
5.30936e-63
2.72568e-63
1.0494e-65
2.11356e-65
1.9342e-65
3.03298e-65
5.86098e-65
1.31177e-64
3.39591e-64
1.00672e-63
3.27292e-63
1.13009e-62
4.23856e-62
1.69822e-61
6.79323e-61
1.9302e-59
6.82143e-57
2.29337e-54
7.08914e-52
2.13603e-49
6.04706e-47
5.86969e-44
4.315e-38
5.62016e-34
2.12271e-31
4.0555e-29
5.3604e-27
5.3505e-25
4.13526e-23
3.26301e-21
1.01819e-18
2.73073e-16
1.46398e-14
1.52775e-13
4.37039e-13
4.47005e-13
4.27183e-13
3.51339e-13
4.381e-13
1.94036e-11
5.98312e-11
4.63522e-11
8.32022e-12
1.03335e-10
5.35737e-10
4.64177e-10
7.64344e-12
1.42428e-11
9.16135e-12
1.21264e-12
1.58819e-13
9.43022e-15
2.63129e-16
5.39531e-18
9.66847e-20
1.44672e-21
1.79267e-23
1.87825e-25
1.69199e-27
1.32617e-29
9.1168e-32
5.53203e-34
2.98428e-36
1.43946e-38
6.24028e-41
2.44141e-43
8.6363e-46
2.76516e-48
8.02133e-51
2.11026e-53
5.11504e-56
1.10214e-58
2.02044e-61
1.13568e-62
3.38471e-63
1.1692e-63
4.56783e-64
2.02721e-64
1.03479e-64
6.39562e-65
5.85085e-65
2.90078e-65
1.03416e-67
2.16343e-67
1.98948e-67
3.1261e-67
6.10073e-67
1.3837e-66
3.64079e-66
1.10024e-65
3.65901e-65
1.2961e-64
4.9957e-64
2.06315e-63
8.56166e-63
2.90718e-61
1.08738e-58
3.76199e-56
1.26795e-53
3.85451e-51
1.28525e-48
9.68022e-45
3.66568e-38
2.46312e-34
1.53879e-31
3.63285e-29
5.54693e-27
6.51501e-25
6.0403e-23
4.9687e-21
7.13235e-19
1.11177e-16
8.51038e-15
1.22804e-13
5.68112e-13
1.03847e-12
1.32005e-12
1.40199e-12
1.24604e-12
1.72779e-11
5.94299e-11
5.28976e-11
1.21183e-11
1.93265e-10
6.62808e-10
5.16602e-10
5.62803e-12
7.80366e-12
3.49462e-12
5.5667e-13
7.34581e-14
3.69826e-15
8.67526e-17
1.67961e-18
2.87185e-20
4.04267e-22
4.69475e-24
4.58958e-26
3.83368e-28
2.77245e-30
1.75152e-32
9.73854e-35
4.79606e-37
2.10675e-39
8.28474e-42
2.93224e-44
9.36837e-47
2.70734e-49
7.08718e-52
1.67976e-54
3.60427e-57
7.16068e-60
1.17598e-62
1.45843e-64
3.96553e-65
1.34452e-65
5.17038e-66
2.2651e-66
1.1445e-66
7.03885e-67
6.40271e-67
3.067e-67
1.00342e-69
2.18269e-69
2.01524e-69
3.16915e-69
6.23653e-69
1.43067e-68
3.8176e-68
1.17316e-67
3.97995e-67
1.4416e-66
5.69035e-66
2.41047e-65
1.02984e-64
3.80478e-63
1.38227e-60
5.26128e-58
2.11067e-55
9.69696e-53
3.45486e-50
6.18327e-46
8.78877e-39
2.09708e-35
3.79543e-32
1.34964e-29
2.7501e-27
4.03724e-25
4.3474e-23
3.874e-21
3.90637e-19
3.93187e-17
3.29711e-15
7.01464e-14
4.81243e-13
1.59937e-12
2.47084e-12
2.56996e-12
1.91971e-12
1.33716e-11
5.72884e-11
5.45132e-11
1.43911e-11
2.41023e-10
6.70866e-10
5.29106e-10
5.52661e-12
5.5185e-12
1.2478e-12
2.80759e-13
2.93705e-14
1.16033e-15
2.40569e-17
4.51217e-19
7.29772e-21
9.61749e-23
1.0437e-24
9.48355e-27
7.30605e-29
4.83657e-31
2.77743e-33
1.39629e-35
6.19923e-38
2.45231e-40
8.6663e-43
2.75318e-45
7.89252e-48
2.05055e-50
4.83473e-53
1.0349e-55
2.00157e-58
3.50476e-61
5.50924e-64
2.16265e-66
4.55768e-67
1.52018e-67
5.76562e-68
2.49739e-68
1.2507e-68
7.66299e-69
6.93475e-69
3.20773e-69
9.54683e-72
2.16264e-71
2.00253e-71
3.14825e-71
6.23781e-71
1.44476e-70
3.90103e-70
1.21603e-69
4.19581e-69
1.54892e-68
6.23809e-68
2.68417e-67
1.17971e-66
8.92118e-65
3.10005e-62
1.5513e-59
9.25785e-57
6.76298e-54
5.31462e-50
1.75002e-46
2.8631e-40
2.20029e-37
1.63227e-33
1.03607e-30
3.22731e-28
7.42337e-26
1.15166e-23
1.31113e-21
1.20466e-19
1.27378e-17
7.18265e-16
2.05062e-14
2.73543e-13
1.45768e-12
2.58345e-12
2.67679e-12
2.03434e-12
1.22039e-11
5.54279e-11
5.41647e-11
1.49877e-11
2.45496e-10
6.54373e-10
4.42782e-10
5.62803e-12
7.11617e-12
9.68258e-13
1.64328e-13
1.06756e-14
3.08798e-16
6.21859e-18
1.13406e-19
1.69907e-21
2.05766e-23
2.05221e-25
1.71139e-27
1.20889e-29
7.33137e-32
3.85213e-34
1.77186e-36
7.20765e-39
2.61645e-41
8.5178e-44
2.49613e-46
6.59507e-49
1.57892e-51
3.42837e-54
6.73659e-57
1.19631e-59
1.90009e-62
2.71737e-65
4.87239e-68
5.13201e-69
1.68416e-69
6.312e-70
2.70768e-70
1.34578e-70