/*--------------------------------*- C++ -*----------------------------------*\
| =========                 |                                                 |
| \\      /  F ield         | OpenFOAM: The Open Source CFD Toolbox           |
|  \\    /   O peration     | Version:  2412                                  |
|   \\  /    A nd           | Website:  www.openfoam.com                      |
|    \\/     M anipulation  |                                                 |
\*---------------------------------------------------------------------------*/
FoamFile
{
    version     2.0;
    format      ascii;
    arch        "LSB;label=32;scalar=64";
    class       volScalarField;
    location    "2.2";
    object      alpha.water;
}
// * * * * * * * * * * * * * * * * * * * * * * * * * * * * * * * * * * * * * //

dimensions      [0 0 0 0 0 0 0];

internalField   nonuniform List<scalar> 
6400
(
1
1
1
1
1
1
1
1
1
1
0.999999
0.999999
1
0.999999
1
1
1
1
1
1
1
1
1
1
1
1
1
1
1
1
1
1
1
1
1
1
1
1
1
1
1
1
1
1
1
1
1
1
1
1
1
1
1
1
1
1
1
1
1
1
1
1
1
1
1
1
1
1
1
1
1
1
1
1
0.999999
1
1
0.999999
0.999999
1
0.999996
1
1
1
1
1
1
1
0.999999
0.999999
0.999999
0.999999
1
1
1
1
1
1
1
1
1
1
1
1
1
1
1
1
1
1
1
1
1
1
1
1
1
1
1
1
1
1
1
1
1
1
1
1
1
1
1
1
1
1
1
1
1
1
1
1
1
1
1
1
1
1
1
1
1
1
1
1
1
1
1
0.999999
0.999999
0.999999
1
0.999999
1
1
1
1
1
1
1
0.999999
0.999999
1
1
1
1
1
1
1
1
1
1
1
1
1
1
1
1
1
1
1
1
1
1
1
1
1
1
1
1
1
1
1
1
1
1
1
1
1
1
1
1
1
1
1
1
1
1
1
1
1
1
1
1
1
1
1
1
1
1
1
1
1
1
1
1
1
1
1
1
1
1
1
1
1
1
1
1
1
1
1
1
1
1
1
1
1
0.999999
1
1
1
1
1
1
1
1
1
1
1
1
1
1
1
0.999999
1
1
1
1
1
1
1
1
1
1
1
1
1
1
1
1
1
1
1
1
1
1
1
1
1
1
1
1
1
1
1
1
1
1
1
1
1
1
1
1
1
1
1
1
0.999999
0.999999
1
1
1
1
1
1
1
1
1
1
1
1
1
1
1
1
1
1
1
1
1
1
1
1
1
1
1
1
1
1
1
1
1
1
1
1
1
1
1
1
1
0.999999
1
1
1
1
1
1
1
1
1
1
1
1
1
1
1
1
1
1
1
1
1
1
1
1
1
1
1
1
1
1
1
1
1
1
1
1
1
1
1
1
1
1
1
1
1
1
1
1
1
0.999999
1
1
1
1
1
1
1
1
1
1
1
1
1
1
1
1
1
1
1
1
1
1
1
1
1
1
1
1
1
1
1
0.999999
1
1
1
1
1
1
1
1
1
1
1
1
1
1
1
1
1
1
1
1
1
1
1
1
1
1
1
1
1
1
1
1
1
1
1
1
1
1
1
1
1
1
1
1
1
1
1
1
1
1
1
1
1
1
1
1
1
1
1
1
1
1
1
1
1
1
1
1
1
1
1
1
1
1
1
1
1
1
1
1
1
1
1
1
1
1
1
1
1
1
1
1
1
1
1
1
1
1
1
1
1
1
1
1
1
1
0.999999
1
1
1
1
1
1
1
1
1
1
1
0.999999
1
1
1
1
1
1
1
1
1
1
1
1
1
1
1
1
1
1
1
1
1
1
1
1
1
1
1
1
0.999999
1
1
1
1
1
0.999999
1
1
1
1
1
1
1
1
1
1
1
1
1
1
1
1
1
1
1
1
1
1
1
1
1
1
1
1
1
1
1
1
1
1
1
1
1
1
1
1
1
1
1
1
1
1
1
1
1
1
1
1
1
1
1
1
1
0.999999
1
1
1
1
1
1
1
1
1
1
1
1
1
1
1
1
1
1
1
1
1
0.999999
1
1
1
1
1
1
1
1
1
1
1
1
1
1
1
1
1
0.999999
0.999999
1
1
1
1
1
1
1
1
1
1
1
1
1
1
1
1
1
1
1
1
1
1
1
1
1
1
1
1
1
1
1
1
1
1
1
1
1
1
1
1
1
1
1
1
1
1
1
1
1
1
1
1
1
1
1
1
1
1
1
1
1
1
1
1
1
1
1
1
1
1
1
1
1
1
1
1
1
1
0.999999
1
1
1
1
1
1
1
1
1
1
1
1
1
1
1
1
1
1
1
1
1
1
1
1
1
1
1
1
1
1
1
1
1
1
1
1
1
1
1
1
1
1
1
1
1
1
1
1
1
1
1
1
1
1
1
1
1
1
1
1
1
1
1
1
1
1
1
1
1
1
1
1
1
1
1
1
1
1
1
1
1
1
1
1
1
1
1
1
1
1
1
1
1
1
1
1
1
1
1
1
1
1
1
1
1
1
1
1
1
1
1
1
1
1
1
1
1
1
1
1
1
1
1
1
0.999999
1
1
1
1
1
1
1
1
1
1
1
1
1
1
1
1
1
1
1
1
1
1
1
1
1
1
1
1
1
1
1
1
1
1
1
1
1
1
1
1
1
1
1
1
1
1
1
1
1
1
1
1
1
1
1
1
1
1
1
1
1
1
1
1
1
1
1
1
1
1
1
1
1
1
1
1
1
1
1
1
1
1
1
1
1
1
1
1
1
1
1
1
1
1
1
1
1
1
1
1
1
1
1
1
1
1
1
1
1
1
0.999999
0.999999
0.999999
1
1
1
1
1
1
1
1
1
1
1
1
1
1
1
1
1
1
1
0.999999
1
1
1
1
1
1
1
1
1
1
1
1
1
1
1
1
1
1
1
1
1
1
1
1
1
0.999999
1
1
1
1
1
1
1
1
1
1
1
1
1
1
1
1
1
1
1
1
1
1
1
1
1
1
1
1
1
0.999999
0.999999
0.999999
1
1
1
1
1
1
1
1
1
1
1
1
1
1
1
1
1
1
1
1
1
1
1
1
1
1
1
1
1
0.999999
1
1
1
1
1
1
1
1
1
1
1
1
1
1
1
1
1
1
1
1
1
1
1
1
1
1
1
1
1
1
1
1
1
1
1
1
1
1
1
1
1
1
1
1
1
1
1
0.999999
0.999999
0.999999
1
1
1
1
1
1
1
1
1
1
1
1
1
1
1
1
1
1
1
1
1
1
1
1
1
1
1
1
1
0.999999
1
1
1
1
1
1
1
1
1
1
1
1
1
1
1
1
1
1
1
1
1
1
1
1
1
1
1
1
1
1
1
1
1
1
1
1
1
1
1
1
1
1
1
1
1
0.999999
0.999999
0.999999
0.999999
0.999999
0.999999
1
1
1
1
1
1
1
1
1
1
1
1
1
1
1
1
1
1
1
1
1
1
1
1
1
1
1
1
1
1
1
1
0.999997
1
1
1
1
1
1
1
1
1
1
1
1
1
1
1
1
1
1
1
1
1
1
1
0.999988
1
1
1
1
1
1
1
1
1
1
1
1
1
1
1
1
1
1
1
1
1
1
1
1
1
0.999986
0.999956
0.999999
0.999999
1
1
1
1
1
1
1
1
1
1
1
1
1
1
1
1
1
1
1
1
1
1
1
1
0.979129
0.947157
0.926254
0.96855
0.995857
1
1
1
1
1
1
1
1
1
1
1
1
1
0.999999
0.999999
0.999999
0.999999
0.999999
0.999845
0.999128
0.998524
0.998889
0.999998
0.999999
1
1
1
0.999877
0.999801
0.99994
1
1
1
1
1
1
1
1
1
1
1
1
1
1
1
1
0.999999
0.999904
0.997279
0.996145
0.99737
0.998578
0.999998
0.999999
0.999999
1
1
1
1
1
1
1
1
1
1
1
1
1
1
1
1
0.988577
0.973684
0.978908
0.996082
0.549338
0.538834
0.47903
0.446351
0.693762
0.825179
0.871133
0.904438
0.943579
0.986872
1
1
0.999999
0.999998
0.999998
0.999998
0.999985
0.998579
0.999306
0.99999
0.999985
0.999974
0.999963
0.996734
0.989246
0.989936
0.999313
0.999931
0.999957
0.999969
0.999981
0.999991
0.999468
0.99976
0.999999
1
1
1
1
1
1
1
1
1
1
1
1
0.999996
0.999998
0.999992
0.99998
0.999964
0.999829
0.997939
0.981734
0.980426
0.986801
0.999923
0.999942
0.999969
0.999988
0.999998
1
0.998319
0.999996
0.999998
0.999998
0.999999
1
1
0.993617
0.9569
0.922671
0.88972
0.847634
0.74415
0.525824
0.568778
0.672291
0.593503
0.400423
0.0229416
0.0185751
0.144725
0.373991
0.599911
0.741022
0.824432
0.861089
0.878123
0.911064
0.940272
0.959464
0.971333
0.978036
0.979457
0.920503
0.823577
0.827908
0.93733
0.959234
0.939138
0.913308
0.895294
0.885821
0.879986
0.883089
0.888639
0.887
0.886385
0.898542
0.932891
0.956503
0.945981
0.9266
0.950082
0.965544
0.970896
0.974487
0.980119
0.987311
0.994013
0.999705
1
1
1
0.998394
0.996696
0.982955
0.964781
0.936954
0.926865
0.917551
0.898195
0.875913
0.855984
0.838889
0.839093
0.855481
0.897549
0.91948
0.862259
0.748071
0.804986
0.949566
0.987582
0.983805
0.974096
0.954117
0.92031
0.872805
0.833119
0.787947
0.729572
0.638303
0.474295
0.243628
0.0568069
0.044368
0.418351
0.233386
0.00906616
0.00207522
0.000318545
3.79106e-05
4.66664e-05
0.0476044
0.249969
0.453652
0.605264
0.670603
0.689881
0.705228
0.732763
0.765305
0.796966
0.816993
0.811607
0.635066
0.409544
0.272958
0.218375
0.19629
0.183599
0.17213
0.160875
0.153881
0.15116
0.145375
0.148287
0.167335
0.200893
0.195395
0.17829
0.225638
0.302251
0.359494
0.392027
0.404652
0.415571
0.433776
0.462454
0.487547
0.507562
0.511499
0.481858
0.410727
0.355691
0.327134
0.295024
0.233659
0.212353
0.199213
0.180787
0.161942
0.143854
0.127296
0.112643
0.114294
0.133422
0.195527
0.375703
0.665519
0.808542
0.784959
0.736775
0.693016
0.670425
0.663129
0.644196
0.587948
0.450826
0.254425
0.112278
0.0179874
3.35158e-05
0.000232456
0.00134614
0.00449352
0.294388
0.0330776
0.0273542
0.000318652
3.84644e-05
3.53651e-05
3.50549e-05
3.50078e-05
3.53773e-05
3.58548e-05
3.64158e-05
3.7233e-05
0.015755
0.0310146
0.0350469
0.0364058
0.0285653
0.0120793
0.00166494
1.10353e-05
9.38182e-06
5.99876e-06
2.43218e-06
4.8483e-07
4.18142e-08
3.79775e-08
4.18142e-08
4.55354e-08
5.39729e-08
1.23457e-07
5.60074e-07
1.13862e-06
1.34516e-06
1.70452e-06
1.20012e-05
0.000105708
0.000304799
0.000602318
0.00117125
0.00206659
0.00240163
0.00284358
0.00427105
0.00537019
0.00546091
0.0041327
0.00159008
4.76159e-05
1.73569e-07
1.74436e-07
1.73512e-07
1.7516e-07
1.78472e-07
1.18114e-07
2.19524e-07
1.16228e-06
5.89184e-06
1.44858e-05
2.35115e-05
3.428e-05
5.0949e-05
7.31159e-05
0.000411185
0.00146178
0.00366113
0.00342909
0.00301194
0.00545371
0.00809257
0.000811257
2.29272e-05
1.79977e-05
1.63782e-05
1.61582e-05
1.61423e-05
2.4233e-05
3.15344e-05
3.36548e-05
8.84677e-05
0.00116462
0.0907576
0.00551192
0.0274257
0.00183185
3.53653e-05
3.52316e-05
3.52316e-05
3.52316e-05
3.52589e-05
3.53997e-05
3.58606e-05
3.64155e-05
3.72331e-05
3.56714e-05
3.0098e-05
2.69221e-05
2.46177e-05
2.29921e-05
1.9733e-05
4.43813e-05
9.58711e-05
0.000105425
9.02326e-05
4.87182e-05
1.10628e-05
3.60382e-08
3.79775e-08
4.53888e-08
6.53752e-07
1.11918e-05
1.50427e-05
6.15685e-06
1.70452e-06
2.42045e-05
9.18527e-05
3.71953e-05
2.96672e-05
3.69226e-05
6.5913e-05
0.00010232
0.000106804
9.29644e-05
8.76169e-05
6.49831e-05
3.36301e-05
1.09854e-05
2.19919e-07
3.8006e-07
2.6747e-07
1.90764e-07
3.28293e-07
3.58185e-07
1.78822e-07
5.05246e-08
2.20204e-05
0.000111896
0.000150873
0.000141813
0.0001724
0.000243048
0.000353744
0.000451429
0.000438084
0.000225625
2.43332e-05
1.26844e-05
3.07948e-05
4.423e-05
3.25128e-05
2.29669e-05
1.79977e-05
1.63782e-05
1.61582e-05
1.61267e-05
1.61423e-05
0.000119804
9.33923e-05
3.79619e-05
4.55211e-05
0.000227785
0.00128187
0.00240623
0.00732003
0.00477256
0.000248308
3.53409e-05
3.52316e-05
3.57637e-05
0.000105583
6.62163e-05
3.64162e-05
3.72331e-05
4.30501e-05
0.000110633
0.000128005
5.08186e-05
2.29921e-05
1.78657e-05
1.6952e-05
0.000119903
0.000135034
0.000137129
0.000137129
0.000137129
8.19599e-05
3.57786e-08
3.60382e-08
4.157e-08
3.82191e-07
1.70511e-05
2.50573e-05
2.50573e-05
2.4758e-05
1.87279e-05
2.25592e-05
3.70337e-05
1.72471e-05
2.47083e-06
3.90115e-06
6.19286e-06
6.0236e-06
4.9895e-06
4.26345e-06
2.71617e-06
1.07486e-06
1.84547e-07
1.17272e-08
1.92555e-06
5.66486e-07
2.14697e-08
8.41033e-07
8.76943e-07
5.25355e-07
2.52473e-08
3.49388e-06
0.00020974
0.000338733
0.000361229
0.000401357
0.0004499
0.000451535
0.000451429
0.000448231
7.96927e-05
1.10159e-05
8.28747e-06
5.75023e-05
0.000300327
0.000348235
0.000345854
0.000315404
3.55373e-05
1.63701e-05
3.79878e-05
0.000175104
0.000180075
0.000180075
3.25914e-05
3.74786e-05
0.00011701
0.000489171
0.000988958
0.00136545
0.00461193
0.00164349
5.59113e-05
3.63974e-05
4.83892e-05
0.000106258
0.000106571
0.000102369
3.33012e-05
7.71988e-05
0.000397968
0.000410321
0.000406182
9.30829e-05
1.9558e-05
2.42139e-07
6.46296e-08
7.82745e-07
5.69426e-05
0.000114431
0.000117675
2.76148e-05
3.5609e-08
5.82495e-08
6.9045e-08
3.15419e-08
1.1975e-09
1.93875e-07
1.04384e-05
3.45316e-05
3.54706e-05
3.60005e-05
3.63212e-05
1.84704e-05
7.31624e-07
1.66492e-07
2.81439e-07
2.74614e-07
2.1086e-07
1.50136e-07
7.84506e-08
2.37536e-08
3.21242e-09
1.17887e-09
1.89421e-09
2.00174e-08
8.14181e-10
2.73722e-10
2.08305e-09
2.07918e-09
3.45568e-09
5.7635e-06
1.75269e-05
5.76298e-10
5.75551e-11
7.43995e-12
0.000203172
0.0004499
0.000451429
8.00717e-05
1.09479e-05
8.28498e-06
7.67057e-06
7.47474e-06
7.32812e-06
2.61881e-05
7.76594e-05
7.63598e-05
1.61465e-05
1.75468e-05
0.000147003
0.000178067
0.00016271
3.72955e-05
2.84552e-05
2.90034e-05
0.00024995
0.000577224
0.000484957
0.000673617
0.00442632
0.00347712
0.000181243
4.37514e-05
4.65125e-05
7.74363e-05
8.12306e-05
5.27174e-05
2.94613e-05
4.40184e-05
0.000345146
0.000410285
0.000410354
0.000406182
0.000103269
6.46296e-08
3.78008e-10
1.48662e-10
1.31738e-10
1.48662e-10
4.46524e-10
3.26062e-09
3.4812e-08
1.70141e-07
1.70141e-07
1.09529e-07
4.48711e-12
2.86168e-12
3.03932e-12
3.31125e-12
3.80671e-12
2.03977e-06
5.03258e-06
4.94909e-06
1.01216e-06
5.8154e-09
1.05411e-08
1.27567e-08
1.15858e-08
8.37352e-09
4.02582e-09
1.45965e-09
1.05523e-09
1.08773e-09
1.7901e-09
2.80031e-10
2.73838e-10
2.73755e-10
2.49448e-09
5.69306e-08
1.14872e-06
2.96637e-08
5.76298e-10
5.66293e-11
7.14447e-12
2.61832e-12
7.43995e-12
0.000409489
0.000338119
7.73312e-05
1.51217e-05
8.55181e-06
7.47474e-06
7.32813e-06
7.31137e-06
7.31243e-06
7.31243e-06
8.3936e-06
1.17325e-05
4.44163e-05
0.000130406
5.62834e-05
2.54058e-05
2.6732e-05
2.74236e-05
3.27645e-05
0.000116872
0.000395044
0.000484957
0.000484957
0.00169907
0.00305696
0.000645989
4.65125e-05
3.96948e-05
3.44878e-05
3.08129e-05
2.94613e-05
2.91279e-05
2.94613e-05
0.000157789
0.000410334
0.000410285
0.000310495
1.90017e-05
1.13152e-06
9.38221e-07
1.31738e-10
1.06632e-10
1.49027e-10
6.21938e-09
4.91514e-08
5.6548e-08
9.72408e-08
1.70141e-07
1.66427e-07
4.32474e-08
2.81684e-12
2.86105e-12
3.1957e-12
3.31125e-12
3.80671e-12
4.30307e-12
6.85809e-12
8.42428e-08
9.58559e-10
7.4767e-10
1.39461e-09
2.29937e-09
2.78594e-09
2.22976e-09
1.13512e-09
1.04875e-09
1.06993e-09
1.08939e-09
1.66865e-09
4.69338e-10
2.73513e-10
6.95392e-08
1.10574e-07
1.13457e-07
1.56112e-08
6.04059e-11
5.92616e-12
2.24309e-12
2.15588e-12
2.61832e-12
0.000211695
0.000508772
0.000482288
0.000221886
3.28165e-05
7.46051e-06
7.33102e-06
7.31256e-06
7.31135e-06
7.31256e-06
7.47037e-06
9.22103e-05
0.000336163
7.08831e-05
2.21337e-05
2.20961e-05
2.40152e-05
3.20573e-05
7.88052e-05
0.00208278
0.00282251
0.000484957
0.000489543
0.000959768
0.00255352
0.00150137
5.68233e-05
3.93705e-05
3.90943e-05
5.84872e-05
2.92208e-05
2.92208e-05
2.91486e-05
0.000220432
0.000410285
0.000408328
8.38428e-06
3.42292e-08
1.32259e-07
2.56239e-06
6.60062e-09
7.04522e-11
9.01409e-11
7.03431e-08
1.70946e-07
1.70946e-07
1.58507e-08
1.86899e-08
6.96878e-08
2.3017e-08
2.75605e-12
1.15061e-11
7.52816e-12
4.79971e-12
4.29182e-12
4.3284e-12
3.65815e-12
2.89873e-12
3.52179e-10
5.28252e-10
1.01707e-09
1.81299e-09
2.50736e-09
2.13538e-09
1.09814e-09
1.04948e-09
4.41001e-09
1.82519e-08
7.98561e-09
2.93809e-10
2.86332e-10
6.05326e-08
9.31234e-08
2.14313e-08
1.47117e-13
1.13395e-12
1.72814e-12
1.95058e-12
2.08565e-12
2.1654e-12
6.81328e-05
0.000523941
0.000526263
0.000525135
0.000373619
1.321e-05
7.46061e-06
7.457e-06
1.58562e-05
1.13278e-05
5.2683e-05
0.00059035
0.00048636
1.5726e-05
1.88447e-05
2.37787e-05
3.95111e-05
0.000713629
0.00299989
0.00311948
0.00312348
0.000955012
0.00115921
0.00236442
0.00235906
0.00112106
5.83833e-05
4.65719e-05
0.000127883
0.000256417
0.000180781
0.000163533
0.000300189
0.000405392
0.00040912
0.000142433
4.4156e-08
1.94096e-09
9.70219e-10
2.69411e-09
6.74168e-09
5.67101e-11
4.43455e-11
6.35835e-08
1.70946e-07
1.61022e-07
1.379e-08
2.14412e-12
2.14412e-12
2.14441e-12
2.75634e-12
2.8812e-12
3.18931e-12
6.15905e-12
8.10259e-12
8.51954e-12
6.99969e-12
2.86232e-12
3.43327e-10
3.23968e-09
4.99241e-09
4.97938e-09
4.821e-09
2.27138e-09
1.11471e-09
1.21855e-08
1.17566e-07
6.9465e-08
1.10256e-09
5.5317e-11
6.45946e-09
5.47871e-11
7.4952e-13
7.97427e-13
1.28415e-12
1.42291e-12
1.88656e-12
1.90241e-12
1.94995e-12
1.12572e-07
2.01636e-08
0.000294431
0.000523941
0.000526263
0.000523811
0.000298332
7.80156e-06
7.7328e-06
8.09912e-06
1.31836e-05
0.000119976
0.00059488
0.000418496
1.19663e-05
1.47075e-05
3.51487e-05
0.000494927
0.00304129
0.00311948
0.00312263
0.00311948
0.00150538
0.00154281
0.00235479
0.00214504
0.0001312
3.67807e-05
9.17043e-05
0.000325812
0.000371266
0.000393554
0.000398025
0.000398025
0.000396316
0.000172373
5.44243e-08
6.55449e-09
9.70219e-10
1.78835e-10
1.59672e-10
1.62244e-10
4.92175e-11
3.48649e-11
4.53448e-12
4.52224e-08
2.63127e-08
9.45776e-09
2.14412e-12
2.14441e-12
2.15433e-12
2.41959e-12
1.67213e-12
1.44425e-12
1.91217e-12
2.77232e-12
3.66165e-12
2.03125e-12
2.83598e-12
6.3268e-10
5.80882e-09
5.95306e-09
4.4368e-09
2.48385e-09
1.13927e-09
1.14043e-09
5.43932e-07
4.08271e-07
1.05588e-08
3.99621e-11
6.2246e-12
1.00271e-11
7.03325e-13
7.13311e-13
7.55149e-13
1.42332e-12
1.87465e-12
2.09516e-12
2.02753e-12
6.33867e-12
8.91032e-07
3.9035e-10
2.01636e-08
0.00026062
0.000522779
0.000519432
0.00051312
0.00014211
8.07383e-06
8.97004e-06
2.19682e-05
0.000570261
0.000597921
0.000360281
7.78378e-06
1.19585e-05
8.10708e-05
0.00145044
0.00279977
0.00220313
0.000449294
0.00162496
0.000765728
0.000984787
0.0023385
0.000706058
1.75435e-05
8.70773e-06
9.48206e-05
0.000159095
0.000101269
8.84548e-05
0.000103799
7.32968e-05
5.07114e-08
2.43128e-08
6.79983e-09
1.74972e-09
8.47819e-10
7.88307e-10
1.96609e-10
8.60974e-11
7.76916e-11
3.78468e-11
3.53619e-12
2.70951e-12
2.59433e-12
2.58742e-12
2.58927e-12
2.69973e-12
2.35715e-12
1.79237e-12
9.15544e-13
7.05038e-13
7.84768e-13
8.81186e-13
9.08592e-13
9.5935e-13
1.08765e-12
2.92097e-10
4.39231e-09
2.73252e-09
7.4247e-10
7.44885e-10
1.64212e-06
5.59602e-06
2.06609e-06
2.19928e-09
1.04336e-10
5.28127e-12
7.26566e-13
3.51238e-13
5.49687e-13
1.10849e-12
2.24225e-12
2.34485e-12
2.05028e-12
2.55251e-12
7.52398e-12
1.08085e-11
2.97812e-11
2.7554e-11
2.79791e-11
8.24474e-09
9.19605e-05
0.000395569
0.000504042
0.000488729
0.000279773
8.66039e-05
0.000357741
0.000598274
0.000598412
0.000331214
3.86814e-06
7.78363e-06
0.000137773
0.00211826
0.00262748
0.000147693
4.94147e-05
4.53023e-05
0.000505634
0.000343943
0.00169088
2.77902e-05
8.71783e-06
6.1334e-06
1.91458e-05
4.12584e-06
7.58003e-07
1.85478e-07
3.6888e-08
3.426e-08
2.94478e-08
1.78204e-08
1.18731e-08
6.56667e-09
8.74203e-09
3.08181e-09
3.56834e-10
2.06547e-10
1.33156e-10
5.54981e-11
2.59577e-11
1.27551e-11
5.87549e-12
3.24752e-12
3.12802e-12
2.87961e-12
2.24972e-12
1.2067e-12
4.49049e-13
2.41274e-13
2.45967e-13
3.70149e-13
5.37888e-13
7.5821e-13
1.43914e-12
3.96311e-11
5.84492e-10
5.91844e-10
6.50593e-10
5.16588e-06
1.19035e-05
6.61533e-06
3.8836e-07
2.80147e-10
1.02586e-11
7.72336e-13
2.35901e-13
3.18876e-13
5.72001e-13
1.19737e-12
1.74903e-12
1.91284e-12
1.77508e-12
3.27148e-12
1.75362e-11
5.67119e-11
5.17349e-11
5.72251e-11
4.81967e-11
2.5008e-10
5.38044e-09
9.00089e-08
0.000119706
0.000343132
0.000568179
0.00058706
0.000598274
0.000598449
0.000598369
0.000294916
1.55024e-06
5.75952e-06
0.000179826
0.00201959
0.00221649
8.08716e-05
4.53023e-05
4.40877e-05
0.000754075
0.000148807
0.000133232
1.15049e-05
6.13346e-06
5.49445e-06
2.82358e-06
5.41446e-07
8.29311e-08
2.85057e-08
2.37698e-08
2.96254e-08
3.39731e-08
2.94475e-08
1.78151e-08
5.59847e-08
3.25953e-08
3.5601e-09
2.41777e-10
2.41476e-10
1.62169e-10
6.58168e-11
1.91213e-11
1.48209e-11
9.84262e-12
3.52696e-12
1.66621e-12
1.44986e-12
1.00092e-12
4.37373e-13
1.32568e-13
6.11582e-14
9.14293e-14
2.13137e-13
4.06406e-13
7.12012e-13
1.70689e-12
4.46584e-12
3.89994e-12
1.02103e-08
9.97697e-07
1.93286e-05
1.2453e-05
3.04944e-07
2.80147e-10
1.0258e-11
7.94185e-13
2.53918e-13
2.03362e-13
2.75302e-13
6.12088e-13
1.2835e-12
1.60982e-12
1.63315e-12
1.64738e-12
3.84087e-12
2.65925e-11
1.04099e-10
1.91344e-10
2.02372e-10
1.66971e-10
1.74007e-10
3.6776e-10
5.44821e-09
8.99718e-08
1.0364e-06
4.28916e-06
0.000109286
0.000247391
0.000598274
0.000598402
0.000197201
5.80274e-07
7.37552e-06
0.000155444
0.00157191
0.00211954
0.000578042
4.05269e-05
3.73556e-05
0.000641379
0.00116485
3.26363e-05
1.11004e-05
8.60343e-06
5.57184e-06
4.35726e-06
1.64071e-07
2.8515e-08
2.37725e-08
2.37725e-08
2.36883e-08
6.75653e-08
1.10473e-07
3.01086e-07
2.43191e-07
2.4896e-08
2.54526e-10
2.4162e-10
2.46999e-10
1.70843e-10
7.28246e-11
1.77766e-11
3.61992e-12
1.373e-12
1.05099e-12
4.01344e-13
3.48238e-13
2.2069e-13
9.12314e-14
2.55971e-14
1.61863e-14
5.37205e-14
1.6469e-13
3.63101e-13
7.07464e-13
1.6886e-12
1.72716e-12
2.47387e-12
9.82889e-08
1.89133e-05
1.9366e-05
1.09811e-05
6.64887e-08
8.93113e-11
2.76948e-12
2.40095e-13
8.14761e-14
8.52176e-14
1.55719e-13
5.46551e-13
1.26107e-12
1.52476e-12
1.38965e-12
1.28776e-12
4.03624e-12
3.10038e-11
1.2372e-10
2.47328e-10
2.99383e-10
2.26019e-10
2.03745e-10
4.91724e-10
1.18977e-08
3.50757e-07
3.42492e-05
4.07345e-05
1.22933e-05
1.14672e-05
9.70239e-05
0.000493898
6.90045e-05
2.37117e-07
8.34152e-06
7.47582e-05
0.000893952
0.00203505
0.00106265
4.07123e-05
3.41855e-05
1.54544e-05
0.00133056
0.000118302
4.51178e-05
3.81733e-05
8.67921e-05
4.973e-05
5.75388e-07
3.8193e-08
2.42855e-08
2.37725e-08
2.41806e-08
1.78656e-05
8.74288e-07
8.86014e-07
1.3646e-07
6.56739e-10
2.33047e-10
2.18674e-10
2.20533e-10
1.62457e-10
7.46198e-11
1.84775e-11
2.28261e-12
2.02387e-13
7.05116e-14
7.15784e-14
6.21014e-14
3.38467e-14
1.13877e-14
3.62437e-15
8.32852e-15
4.10061e-14
1.3878e-13
3.35353e-13
6.85744e-13
3.23582e-12
9.98401e-12
6.72599e-12
2.2088e-08
2.10112e-05
1.93909e-05
2.35888e-06
3.3239e-10
5.57066e-12
3.5055e-13
4.54573e-14
2.50708e-14
2.43204e-14
6.17617e-14
2.83854e-13
6.44646e-13
9.25767e-13
7.55474e-13
6.91566e-13
4.06585e-12
3.24482e-11
1.24567e-10
2.41365e-10
3.00376e-10
2.91981e-10
2.69871e-10
2.62878e-09
3.28188e-08
8.78108e-05
0.000323804
0.00033643
0.000115925
8.72825e-06
6.85874e-06
3.52721e-05
6.47966e-06
1.40287e-07
1.37061e-06
3.31752e-06
0.000222388
0.00111515
0.000325917
0.000112153
3.40271e-05
1.54014e-05
0.00116072
0.000734895
0.000103639
0.000149147
0.000137036
7.1076e-05
1.15641e-06
7.78022e-08
4.05122e-08
2.42859e-08
7.30002e-05
0.000328568
0.000139379
1.20984e-06
8.03516e-08
2.43631e-09
2.43502e-10
1.70286e-10
1.63475e-10
1.23706e-10
6.45503e-11
1.83195e-11
2.14559e-12
1.21838e-13
1.71513e-14
1.00254e-14
6.33846e-15
2.7553e-15
8.25624e-16
8.83405e-16
6.2321e-15
3.27851e-14
1.16339e-13
3.18788e-13
7.69512e-13
7.40815e-12
2.18531e-11
1.38564e-11
1.40705e-11
2.1011e-05
4.58703e-06
3.32397e-10
5.65e-12
5.17824e-13
4.24976e-13
8.33643e-14
1.11941e-14
5.30419e-15
1.56156e-14
8.09897e-14
2.05589e-13
2.85667e-13
2.2919e-13
2.83298e-13
3.37054e-12
2.90636e-11
9.09979e-11
1.51591e-10
1.85925e-10
1.94891e-10
3.19027e-10
7.35286e-10
2.67741e-07
0.000304753
0.00033643
0.000337186
0.000336908
6.29406e-05
4.62406e-06
8.72754e-07
1.12112e-07
7.34927e-08
1.031e-07
1.15058e-06
1.0338e-05
3.71334e-05
3.20237e-05
2.91629e-05
2.97291e-05
1.54014e-05
8.56942e-05
0.000715479
0.000264973
7.121e-05
5.25273e-05
3.26858e-05
3.59361e-06
1.11364e-07
7.7803e-08
6.80076e-05
0.000388912
0.000388669
0.000387696
0.000120762
7.41917e-07
1.41048e-08
2.27069e-09
1.41214e-10
9.94562e-11
8.78429e-11
4.8124e-11
1.39668e-11
1.70723e-12
7.97537e-14
3.04828e-15
7.09939e-16
3.57232e-16
1.19409e-16
6.82287e-17
5.92401e-16
4.71094e-15
2.56158e-14
9.80621e-14
3.12753e-13
9.97074e-13
1.59071e-11
2.9151e-11
1.40705e-11
1.75304e-11
2.02944e-05
3.18732e-06
1.83419e-10
3.20215e-12
7.87762e-13
6.78348e-13
6.82149e-14
6.21013e-15
1.39967e-15
2.53657e-15
1.40203e-14
4.02851e-14
5.37949e-14
4.84283e-14
1.30577e-13
2.52802e-12
1.98145e-11
5.75555e-11
9.11128e-11
9.71598e-11
1.81242e-10
2.57557e-09
2.47238e-08
0.000169813
0.000323862
0.000333257
0.000336573
0.000337068
0.000284942
1.24751e-05
2.10746e-07
7.38212e-08
6.35664e-08
7.09144e-08
4.15312e-07
3.64234e-06
5.60561e-06
1.03532e-05
2.34711e-05
2.31938e-05
1.83712e-05
4.46784e-05
0.000622204
0.000229542
1.22379e-05
3.35241e-06
1.45845e-06
1.33692e-06
1.51444e-07
2.80688e-06
0.000354596
0.000388669
0.000389021
0.000386474
0.000377978
0.000129883
6.96651e-06
1.64911e-08
2.34135e-10
6.59408e-11
5.73087e-11
3.59598e-11
1.04872e-11
1.14816e-12
4.8552e-14
1.24742e-15
6.14218e-17
1.47859e-17
5.73215e-18
3.66928e-17
4.32684e-16
3.47098e-15
2.03678e-14
8.78792e-14
3.15578e-13
1.18551e-12
3.23088e-11
3.19071e-11
1.75304e-11
3.15262e-08
2.20194e-05
5.05553e-06
2.50161e-10
8.69406e-12
5.87459e-12
8.19878e-13
4.10124e-14
5.20208e-15
8.56379e-16
2.86456e-16
1.23307e-15
4.09037e-15
5.74127e-15
7.11271e-15
7.59732e-14
1.82265e-12
1.38336e-11
3.80499e-11
5.34677e-11
6.16669e-11
3.7064e-10
1.02515e-07
1.94903e-05
0.000316701
0.000315714
0.000230934
0.000128131
0.000336573
0.000329699
1.36946e-05
8.97326e-08
6.35803e-08
6.12746e-08
6.3387e-08
1.54997e-07
1.19776e-06
1.3473e-06
6.44973e-06
4.14818e-05
2.33279e-05
8.8494e-05
3.25967e-05
6.16755e-05
6.04949e-05
7.55437e-06
9.61323e-07
3.81932e-07
1.54522e-07
1.15851e-07
7.38296e-06
0.000386212
0.00038891
0.000213255
0.000265772
0.000367174
0.000362033
5.17823e-05
2.493e-08
1.15932e-09
7.47401e-11
2.82135e-11
2.63674e-11
7.96152e-12
7.59158e-13
2.78833e-14
6.8933e-16
1.51918e-17
1.27944e-18
2.21104e-18
2.5818e-17
3.09883e-16
2.68313e-15
1.75913e-14
8.46551e-14
3.55234e-13
1.00883e-12
5.50424e-11
3.27124e-11
2.12432e-11
8.12569e-06
2.2073e-05
1.22913e-05
8.61251e-08
5.81777e-12
2.6801e-13
2.19031e-13
4.48591e-14
5.33983e-15
7.26901e-16
7.85727e-17
3.02234e-17
1.23841e-16
2.67816e-16
1.08228e-15
4.53969e-14
1.17087e-12
9.35495e-12
2.65227e-11
2.81192e-11
8.22274e-11
1.716e-09
2.21721e-07
9.33667e-05
0.000316668
0.000315614
8.59705e-05
8.59705e-05
0.000134396
0.000326161
9.10104e-05
6.61629e-08
6.12746e-08
6.12746e-08
6.12313e-08
8.40994e-08
3.79432e-07
3.49468e-07
3.40159e-06
4.14434e-05
1.56481e-05
8.87378e-05
8.58111e-05
1.14847e-05
2.57263e-06
1.31296e-06
3.28498e-07
1.69703e-07
1.15851e-07
1.044e-07
1.52764e-05
0.000378614
0.000255857
0.000101658
0.000102062
0.000356513
0.000358072
0.000103476
1.0651e-07
5.32779e-09
2.59298e-10
2.40459e-11
1.42769e-11
4.87297e-12
5.24559e-13
1.85689e-14
4.2387e-16
8.84982e-18
1.08152e-18
1.67946e-18
2.01079e-17
2.45022e-16
2.34282e-15
1.63306e-14
8.63513e-14
4.03011e-13
1.39082e-12
7.77478e-11
3.12075e-11
2.00399e-11
2.20659e-05
2.2073e-05
2.2073e-05
9.5314e-07
1.14068e-11
2.98756e-13
2.33905e-13
4.43663e-14
5.73729e-15
6.84394e-16
6.47329e-17
5.68005e-18
2.79069e-18
1.14252e-17
3.48692e-16
2.35438e-14
6.6225e-13
5.12627e-12
1.26283e-11
2.11356e-11
2.96832e-10
7.89103e-09
1.29038e-06
0.000173392
0.000319612
0.000205418
8.6009e-05
8.58868e-05
9.77988e-05
0.0003248
0.000209159
6.36046e-08
6.14245e-08
6.12746e-08
8.78385e-08
9.90556e-08
1.64079e-07
1.35815e-07
1.26765e-07
1.95906e-05
1.01003e-05
5.06896e-05
0.000135556
1.73557e-05
7.57589e-07
3.28499e-07
1.73275e-07
1.19424e-07
1.044e-07
1.02306e-07
0.000140432
0.000366876
0.000187502
0.000102364
0.000101718
0.000218282
0.0003543
0.000120016
2.80431e-07
1.64006e-08
8.48474e-10
4.25173e-11
5.51604e-12
3.25934e-12
4.54868e-13
1.44063e-14
2.87093e-16
5.54216e-18
8.78074e-19
1.40215e-18
1.75776e-17
2.19119e-16
2.20046e-15
1.57347e-14
1.06772e-13
4.65384e-13
2.7066e-12
9.6686e-11
1.80981e-11
1.66289e-11
2.20508e-05
2.2073e-05
2.20277e-05
1.88844e-07
6.2362e-13
3.13503e-13
3.07838e-13
4.31637e-14
6.33144e-15
6.84029e-16
6.07069e-17
4.50739e-18
9.08485e-19
2.13527e-18
1.34118e-16
1.04583e-14
3.89584e-13
2.75355e-12
4.08938e-12
3.06643e-11
8.65349e-10
2.12854e-08
2.90058e-06
0.000212089
0.000325907
0.000151283
8.60588e-05
8.62306e-05
8.79455e-05
0.00032073
0.000131648
6.63169e-08
6.36046e-08
1.51296e-07
3.67561e-07
8.57309e-08
9.61618e-08
1.00571e-07
1.0077e-07
3.82209e-06
9.1379e-06
6.58143e-06
0.000135461
0.00017746
4.42345e-05
2.21963e-07
1.24208e-07
1.05277e-07
1.02008e-07
1.02723e-07
0.000314245
0.000355327
0.000350163
0.000163949
0.000102364
0.000256769
0.000348787
0.000134244
5.36324e-07
3.59744e-08
1.8587e-09
1.21843e-10
9.43555e-12
3.09824e-12
3.17107e-13
9.52247e-15
2.05137e-16
4.00825e-18
6.4364e-19
1.28814e-18
1.67082e-17
2.06939e-16
2.13227e-15
1.54825e-14
1.36575e-13
5.79378e-13
5.82171e-12
1.08204e-10
1.365e-11
1.41663e-11
2.07065e-05
2.20664e-05
6.32518e-06
1.77328e-12
6.36858e-12
4.67178e-12
4.46166e-13
4.66329e-14
6.76313e-15
7.16778e-16
6.01899e-17
4.21887e-18
7.31867e-19
1.27305e-18
4.48762e-17
3.57691e-15
1.48354e-13
1.43023e-12
4.31566e-12
6.15205e-11
1.47671e-09
3.34487e-08
2.54519e-06
0.000207235
0.000328163
0.000308624
8.69099e-05
9.01113e-05
0.000258025
0.000294883
0.000169977
6.63169e-08
6.79892e-08
3.56993e-07
3.68099e-07
8.41414e-08
8.44881e-08
9.37754e-08
1.00571e-07
4.22922e-05
1.13734e-05
2.82229e-08
3.9013e-05
0.000185764
0.000185764
4.79954e-05
2.21979e-07
1.23443e-07
1.04525e-07
1.02388e-07
0.000134951
0.000350164
0.000347724
0.00018529
0.000101274
0.000312802
0.000340155
0.000174982
8.76219e-07
5.5908e-08
3.40214e-09
1.77656e-10
1.25869e-11
1.38069e-12
1.65302e-13
5.7289e-15
1.18321e-16
2.30417e-18
3.7962e-19
1.2395e-18
1.6406e-17
1.99869e-16
2.10194e-15
1.56892e-14
1.85745e-13
7.87046e-13
1.06278e-11
1.11209e-10
1.32594e-11
4.31835e-08
2.07309e-05
1.52348e-05
1.57515e-12
1.75171e-12
6.0074e-12
6.41854e-12
8.23252e-13
6.28905e-14
7.69927e-15
7.49067e-16
6.12967e-17
4.13124e-18
5.62713e-19
6.63051e-19
1.26345e-17
1.0215e-15
4.79389e-14
6.33527e-13
3.62282e-12
6.26058e-11
1.29176e-09
2.6974e-08
4.63493e-07
0.000110691
0.000333246
0.000354348
0.000112011
0.000191355
0.000275849
0.000275849
0.000274417
6.53482e-05
7.69642e-08
1.09085e-07
1.76485e-07
8.29593e-08
8.24721e-08
8.86799e-08
2.9257e-05
5.32502e-05
5.48277e-06
1.57268e-09
6.95746e-08
5.93909e-05
0.000145272
0.000411499
0.000412429
0.000200565
1.29541e-07
1.04528e-07
2.11034e-06
0.00011719
0.000161546
6.93698e-05
8.09399e-05
0.000428097
0.000340174
5.483e-05
5.25489e-07
3.74537e-08
2.36788e-09
1.2387e-10
8.85283e-12
5.75049e-13
5.7364e-14
1.83459e-15
3.45465e-17
6.88718e-19
2.01458e-19
1.25006e-18
1.64453e-17
1.96609e-16
2.09658e-15
1.7197e-14
2.65117e-13
1.10623e-12
1.49303e-11
1.11182e-10
1.30993e-11
5.90459e-06
2.07238e-05
4.76987e-07
1.33682e-12
1.31591e-12
6.5033e-12
7.50137e-12
1.61175e-12
1.03139e-13
1.0175e-14
9.08647e-16
6.66653e-17
4.38522e-18
4.47484e-19
3.69151e-19
1.97286e-18
1.83258e-16
1.01339e-14
1.86924e-13
2.0505e-12
4.03723e-11
7.29058e-10
1.51903e-08
2.56687e-07
4.23596e-05
0.000353303
0.000364785
0.000248488
4.58791e-05
0.000206349
0.000274417
0.000142822
1.00979e-05
8.37727e-08
8.35848e-08
8.98684e-08
8.29593e-08
1.33432e-05
5.93218e-05
6.69488e-05
3.88308e-05
2.29333e-07
6.23924e-11
1.28952e-09
8.26978e-08
1.10501e-05
0.000132097
0.00057603
0.000589346
0.000578816
0.000204961
1.50265e-05
4.21509e-05
5.91442e-05
6.48149e-05
0.000185349
0.000470425
0.000258068
7.47857e-06
2.33083e-07
1.66833e-08
1.02202e-09
6.26898e-11
3.86266e-12
2.02934e-13
1.12991e-14
2.70812e-16
4.62468e-18
1.95333e-19
1.24811e-19
1.24606e-18
1.64918e-17
2.02464e-16
2.37404e-15
2.42142e-14
3.70188e-13
1.49748e-12
1.69107e-11
1.09898e-10
1.29027e-11
1.96737e-05
1.98541e-05
3.47653e-07
5.26575e-08
1.27942e-12
6.24753e-12
7.8017e-12
2.77886e-12
1.81193e-13
1.56502e-14
1.39448e-15
9.11193e-17
5.55757e-18
3.95582e-19
9.97407e-20
3.4288e-19
1.52451e-17
9.29591e-16
3.10669e-14
6.24855e-13
1.49368e-11
2.27992e-10
4.52426e-09
7.93118e-08
3.54731e-06
0.000196936
0.000373153
0.000351811
3.81187e-05
3.57277e-05
2.41165e-05
1.7582e-06
9.73733e-08
8.37727e-08
9.06607e-08
2.43106e-06
1.3214e-05
6.70602e-05
6.70602e-05
6.70602e-05
7.35992e-06
3.43668e-09
2.58589e-12
5.41575e-11
4.77209e-09
2.9357e-08
1.26994e-07
0.000105559
0.000596679
0.000622609
0.000627002
0.00061491
0.000335809
7.10104e-05
0.000322736
0.000540696
0.000468282
8.54249e-05
6.95905e-07
5.21442e-08
3.54894e-09
2.17911e-10
1.55092e-11
7.54642e-13
3.9402e-14
1.19127e-15
2.69508e-17
6.59439e-19
3.97409e-20
1.04588e-19
1.31185e-18
1.85502e-17
2.67376e-16
3.55645e-15
3.9752e-14
4.83793e-13
1.89329e-12
1.77412e-11
9.39016e-11
1.27906e-11
1.95331e-05
1.60853e-05
5.40579e-07
1.27942e-12
1.25976e-12
5.72923e-12
7.8017e-12
3.37382e-12
2.96846e-13
2.4839e-14
2.457e-15
1.62734e-16
9.63804e-18
5.09525e-19
5.97634e-20
7.83337e-20
1.95614e-18
8.52949e-17
3.30937e-15
9.79882e-14
2.23178e-12
2.93704e-11
5.48907e-10
1.02303e-08
1.69798e-07
3.98338e-05
0.000372076
0.000408239
0.000412486