/*--------------------------------*- C++ -*----------------------------------*\
| =========                 |                                                 |
| \\      /  F ield         | OpenFOAM: The Open Source CFD Toolbox           |
|  \\    /   O peration     | Version:  2412                                  |
|   \\  /    A nd           | Website:  www.openfoam.com                      |
|    \\/     M anipulation  |                                                 |
\*---------------------------------------------------------------------------*/
FoamFile
{
    version     2.0;
    format      ascii;
    arch        "LSB;label=32;scalar=64";
    class       volScalarField;
    location    "0.45";
    object      p;
}
// * * * * * * * * * * * * * * * * * * * * * * * * * * * * * * * * * * * * * //

dimensions      [1 -1 -2 0 0 0 0];

internalField   nonuniform List<scalar> 
6400
(
7069.49
7069.5
7069.5
7069.51
7069.52
7069.53
7069.55
7069.56
7069.58
7069.61
7069.63
7069.66
7069.69
7069.72
7069.76
7069.79
7069.83
7069.88
7069.92
7069.96
7070.01
7070.06
7070.1
7070.15
7070.2
7070.25
7070.3
7070.35
7070.39
7070.44
7070.48
7070.52
7070.55
7070.58
7070.61
7070.63
7070.65
7070.66
7070.67
7070.67
7070.66
7070.65
7070.63
7070.6
7070.58
7070.54
7070.5
7070.46
7070.41
7070.36
7070.31
7070.26
7070.2
7070.15
7070.09
7070.03
7069.98
7069.92
7069.87
7069.81
7069.76
7069.71
7069.67
7069.62
7069.58
7069.54
7069.5
7069.46
7069.43
7069.4
7069.38
7069.35
7069.33
7069.31
7069.29
7069.28
7069.27
7069.26
7069.26
7069.25
6706.52
6706.52
6706.53
6706.54
6706.55
6706.56
6706.57
6706.59
6706.61
6706.63
6706.66
6706.69
6706.72
6706.75
6706.79
6706.82
6706.86
6706.9
6706.95
6706.99
6707.04
6707.08
6707.13
6707.18
6707.23
6707.28
6707.33
6707.38
6707.42
6707.47
6707.51
6707.55
6707.59
6707.62
6707.65
6707.67
6707.68
6707.7
6707.7
6707.7
6707.69
6707.68
6707.66
6707.64
6707.61
6707.58
6707.54
6707.49
6707.45
6707.4
6707.34
6707.29
6707.23
6707.18
6707.12
6707.06
6707.01
6706.95
6706.9
6706.84
6706.79
6706.74
6706.69
6706.65
6706.61
6706.56
6706.53
6706.49
6706.46
6706.43
6706.4
6706.38
6706.36
6706.34
6706.32
6706.31
6706.3
6706.29
6706.28
6706.28
6343.55
6343.55
6343.55
6343.56
6343.57
6343.58
6343.6
6343.62
6343.64
6343.66
6343.69
6343.71
6343.74
6343.78
6343.81
6343.85
6343.89
6343.93
6343.97
6344.02
6344.07
6344.11
6344.16
6344.21
6344.26
6344.31
6344.36
6344.41
6344.46
6344.5
6344.55
6344.59
6344.62
6344.66
6344.68
6344.71
6344.73
6344.74
6344.74
6344.74
6344.74
6344.72
6344.7
6344.68
6344.65
6344.61
6344.57
6344.53
6344.48
6344.43
6344.38
6344.32
6344.27
6344.21
6344.15
6344.09
6344.03
6343.98
6343.92
6343.87
6343.82
6343.77
6343.72
6343.67
6343.63
6343.59
6343.55
6343.52
6343.48
6343.45
6343.43
6343.4
6343.38
6343.36
6343.35
6343.33
6343.32
6343.31
6343.31
6343.31
5980.57
5980.57
5980.58
5980.58
5980.59
5980.61
5980.62
5980.64
5980.66
5980.68
5980.71
5980.74
5980.77
5980.8
5980.83
5980.87
5980.91
5980.95
5981
5981.04
5981.09
5981.14
5981.19
5981.24
5981.29
5981.34
5981.39
5981.44
5981.49
5981.54
5981.59
5981.63
5981.67
5981.7
5981.73
5981.75
5981.77
5981.78
5981.79
5981.79
5981.78
5981.77
5981.75
5981.73
5981.69
5981.66
5981.62
5981.57
5981.52
5981.47
5981.41
5981.36
5981.3
5981.24
5981.18
5981.12
5981.06
5981
5980.95
5980.89
5980.84
5980.79
5980.74
5980.7
5980.65
5980.61
5980.57
5980.54
5980.51
5980.48
5980.45
5980.42
5980.4
5980.38
5980.37
5980.35
5980.34
5980.34
5980.33
5980.33
5617.59
5617.59
5617.6
5617.6
5617.61
5617.63
5617.64
5617.66
5617.68
5617.7
5617.73
5617.76
5617.79
5617.82
5617.86
5617.89
5617.93
5617.98
5618.02
5618.07
5618.12
5618.17
5618.22
5618.27
5618.32
5618.38
5618.43
5618.48
5618.53
5618.58
5618.63
5618.67
5618.71
5618.75
5618.78
5618.8
5618.82
5618.84
5618.85
5618.85
5618.84
5618.83
5618.8
5618.78
5618.75
5618.71
5618.66
5618.62
5618.56
5618.51
5618.45
5618.39
5618.33
5618.27
5618.21
5618.15
5618.09
5618.03
5617.97
5617.92
5617.86
5617.81
5617.76
5617.72
5617.67
5617.63
5617.59
5617.56
5617.53
5617.5
5617.47
5617.44
5617.42
5617.4
5617.39
5617.37
5617.36
5617.36
5617.35
5617.35
5254.61
5254.61
5254.61
5254.62
5254.63
5254.64
5254.66
5254.68
5254.7
5254.72
5254.75
5254.77
5254.8
5254.84
5254.87
5254.91
5254.95
5255
5255.04
5255.09
5255.14
5255.19
5255.24
5255.3
5255.35
5255.41
5255.46
5255.52
5255.57
5255.62
5255.67
5255.72
5255.76
5255.8
5255.83
5255.86
5255.88
5255.9
5255.91
5255.91
5255.9
5255.89
5255.86
5255.84
5255.8
5255.76
5255.71
5255.66
5255.61
5255.55
5255.49
5255.43
5255.37
5255.3
5255.24
5255.18
5255.11
5255.05
5255
5254.94
5254.88
5254.83
5254.78
5254.74
5254.69
5254.65
5254.61
5254.57
5254.54
5254.51
5254.48
5254.46
5254.44
5254.42
5254.4
5254.39
5254.38
5254.37
5254.37
5254.36
4891.62
4891.62
4891.63
4891.63
4891.65
4891.66
4891.67
4891.69
4891.71
4891.73
4891.76
4891.79
4891.82
4891.85
4891.89
4891.93
4891.97
4892.02
4892.06
4892.11
4892.16
4892.21
4892.27
4892.32
4892.38
4892.44
4892.5
4892.55
4892.61
4892.67
4892.72
4892.77
4892.82
4892.86
4892.89
4892.92
4892.95
4892.97
4892.97
4892.98
4892.97
4892.95
4892.93
4892.9
4892.86
4892.82
4892.77
4892.72
4892.66
4892.6
4892.53
4892.47
4892.4
4892.33
4892.27
4892.2
4892.14
4892.08
4892.02
4891.96
4891.9
4891.85
4891.8
4891.75
4891.71
4891.66
4891.62
4891.59
4891.56
4891.53
4891.5
4891.47
4891.45
4891.43
4891.42
4891.4
4891.39
4891.39
4891.38
4891.38
4528.63
4528.63
4528.64
4528.65
4528.66
4528.67
4528.69
4528.7
4528.72
4528.75
4528.77
4528.8
4528.83
4528.87
4528.9
4528.94
4528.99
4529.03
4529.08
4529.13
4529.18
4529.24
4529.29
4529.35
4529.41
4529.47
4529.53
4529.59
4529.65
4529.71
4529.77
4529.82
4529.87
4529.92
4529.96
4529.99
4530.02
4530.04
4530.05
4530.05
4530.04
4530.03
4530
4529.97
4529.93
4529.88
4529.83
4529.77
4529.71
4529.64
4529.57
4529.51
4529.44
4529.37
4529.3
4529.23
4529.16
4529.1
4529.03
4528.97
4528.92
4528.86
4528.81
4528.76
4528.72
4528.67
4528.64
4528.6
4528.57
4528.54
4528.51
4528.48
4528.46
4528.44
4528.43
4528.41
4528.4
4528.4
4528.39
4528.39
4165.64
4165.64
4165.65
4165.66
4165.67
4165.68
4165.69
4165.71
4165.73
4165.76
4165.78
4165.81
4165.84
4165.88
4165.91
4165.95
4166
4166.04
4166.09
4166.14
4166.2
4166.25
4166.31
4166.38
4166.44
4166.5
4166.57
4166.63
4166.7
4166.76
4166.82
4166.88
4166.94
4166.99
4167.03
4167.07
4167.1
4167.12
4167.14
4167.14
4167.13
4167.11
4167.09
4167.05
4167.01
4166.95
4166.9
4166.83
4166.76
4166.69
4166.62
4166.54
4166.47
4166.4
4166.32
4166.25
4166.18
4166.11
4166.05
4165.99
4165.93
4165.87
4165.82
4165.77
4165.73
4165.68
4165.64
4165.61
4165.57
4165.54
4165.52
4165.49
4165.47
4165.45
4165.44
4165.42
4165.41
4165.41
4165.4
4165.4
3802.65
3802.65
3802.66
3802.66
3802.67
3802.69
3802.7
3802.72
3802.74
3802.76
3802.79
3802.82
3802.85
3802.88
3802.92
3802.96
3803.01
3803.05
3803.1
3803.16
3803.21
3803.27
3803.33
3803.4
3803.46
3803.53
3803.6
3803.67
3803.74
3803.81
3803.88
3803.95
3804.01
3804.06
3804.11
3804.16
3804.19
3804.22
3804.23
3804.23
3804.23
3804.21
3804.18
3804.14
3804.09
3804.03
3803.97
3803.9
3803.82
3803.74
3803.66
3803.58
3803.5
3803.43
3803.35
3803.27
3803.2
3803.13
3803.06
3803
3802.94
3802.88
3802.83
3802.78
3802.73
3802.69
3802.65
3802.61
3802.58
3802.55
3802.52
3802.5
3802.48
3802.46
3802.44
3802.43
3802.42
3802.41
3802.41
3802.4
3439.65
3439.66
3439.66
3439.67
3439.68
3439.69
3439.71
3439.72
3439.74
3439.77
3439.79
3439.82
3439.85
3439.89
3439.93
3439.97
3440.01
3440.06
3440.11
3440.17
3440.23
3440.29
3440.35
3440.42
3440.49
3440.56
3440.64
3440.71
3440.79
3440.86
3440.94
3441.01
3441.08
3441.14
3441.2
3441.25
3441.29
3441.32
3441.34
3441.34
3441.33
3441.31
3441.28
3441.23
3441.18
3441.11
3441.04
3440.96
3440.88
3440.8
3440.71
3440.62
3440.54
3440.45
3440.37
3440.29
3440.21
3440.14
3440.07
3440
3439.94
3439.88
3439.83
3439.78
3439.73
3439.69
3439.65
3439.61
3439.58
3439.55
3439.52
3439.5
3439.48
3439.46
3439.44
3439.43
3439.42
3439.41
3439.41
3439.41
3076.65
3076.66
3076.66
3076.67
3076.68
3076.69
3076.71
3076.72
3076.74
3076.77
3076.79
3076.82
3076.86
3076.89
3076.93
3076.97
3077.02
3077.06
3077.12
3077.17
3077.23
3077.3
3077.37
3077.44
3077.51
3077.59
3077.67
3077.75
3077.83
3077.92
3078
3078.08
3078.16
3078.23
3078.3
3078.35
3078.4
3078.43
3078.45
3078.46
3078.45
3078.43
3078.39
3078.34
3078.28
3078.21
3078.13
3078.04
3077.95
3077.85
3077.76
3077.66
3077.57
3077.48
3077.39
3077.31
3077.23
3077.15
3077.08
3077.01
3076.94
3076.88
3076.83
3076.78
3076.73
3076.69
3076.65
3076.61
3076.58
3076.55
3076.52
3076.5
3076.48
3076.46
3076.44
3076.43
3076.42
3076.41
3076.41
3076.41
2713.65
2713.66
2713.66
2713.67
2713.68
2713.69
2713.71
2713.72
2713.74
2713.77
2713.79
2713.82
2713.85
2713.89
2713.93
2713.97
2714.02
2714.07
2714.12
2714.18
2714.24
2714.31
2714.38
2714.45
2714.53
2714.61
2714.7
2714.79
2714.88
2714.97
2715.06
2715.15
2715.24
2715.33
2715.4
2715.47
2715.52
2715.56
2715.59
2715.59
2715.59
2715.56
2715.52
2715.46
2715.39
2715.31
2715.21
2715.12
2715.01
2714.91
2714.8
2714.7
2714.6
2714.5
2714.41
2714.32
2714.23
2714.15
2714.08
2714.01
2713.94
2713.88
2713.82
2713.77
2713.73
2713.68
2713.64
2713.61
2713.57
2713.54
2713.52
2713.49
2713.47
2713.46
2713.44
2713.43
2713.42
2713.41
2713.41
2713.41
2350.65
2350.65
2350.66
2350.67
2350.67
2350.69
2350.7
2350.72
2350.74
2350.76
2350.79
2350.82
2350.85
2350.88
2350.92
2350.96
2351.01
2351.06
2351.12
2351.18
2351.24
2351.31
2351.38
2351.46
2351.55
2351.63
2351.73
2351.82
2351.92
2352.03
2352.13
2352.23
2352.33
2352.43
2352.51
2352.59
2352.66
2352.7
2352.73
2352.75
2352.74
2352.71
2352.66
2352.59
2352.51
2352.41
2352.31
2352.2
2352.08
2351.97
2351.85
2351.74
2351.63
2351.52
2351.42
2351.32
2351.24
2351.15
2351.07
2351
2350.93
2350.87
2350.82
2350.76
2350.72
2350.67
2350.63
2350.6
2350.57
2350.54
2350.51
2350.49
2350.47
2350.45
2350.44
2350.42
2350.42
2350.41
2350.4
2350.4
1987.65
1987.65
1987.65
1987.66
1987.67
1987.68
1987.69
1987.71
1987.73
1987.75
1987.78
1987.81
1987.84
1987.87
1987.91
1987.96
1988
1988.05
1988.11
1988.17
1988.24
1988.31
1988.38
1988.47
1988.56
1988.65
1988.75
1988.86
1988.97
1989.08
1989.19
1989.31
1989.43
1989.54
1989.64
1989.73
1989.81
1989.86
1989.9
1989.92
1989.91
1989.87
1989.82
1989.74
1989.64
1989.53
1989.41
1989.28
1989.15
1989.02
1988.89
1988.77
1988.65
1988.53
1988.43
1988.33
1988.23
1988.14
1988.06
1987.99
1987.92
1987.86
1987.8
1987.75
1987.7
1987.66
1987.62
1987.59
1987.55
1987.53
1987.5
1987.48
1987.46
1987.44
1987.43
1987.42
1987.41
1987.4
1987.4
1987.4
1624.64
1624.64
1624.64
1624.65
1624.66
1624.67
1624.69
1624.7
1624.72
1624.74
1624.77
1624.8
1624.83
1624.86
1624.9
1624.94
1624.99
1625.04
1625.1
1625.16
1625.23
1625.3
1625.38
1625.47
1625.56
1625.66
1625.77
1625.88
1626
1626.13
1626.26
1626.39
1626.52
1626.65
1626.77
1626.88
1626.98
1627.05
1627.09
1627.11
1627.1
1627.06
1627
1626.9
1626.79
1626.66
1626.52
1626.37
1626.22
1626.08
1625.93
1625.8
1625.66
1625.54
1625.43
1625.32
1625.22
1625.13
1625.05
1624.97
1624.9
1624.84
1624.78
1624.73
1624.68
1624.64
1624.6
1624.57
1624.54
1624.51
1624.49
1624.47
1624.45
1624.43
1624.42
1624.41
1624.4
1624.39
1624.39
1624.39
1261.63
1261.63
1261.63
1261.64
1261.65
1261.66
1261.67
1261.69
1261.71
1261.73
1261.75
1261.78
1261.81
1261.84
1261.88
1261.93
1261.97
1262.02
1262.08
1262.14
1262.21
1262.29
1262.37
1262.46
1262.56
1262.67
1262.78
1262.9
1263.04
1263.18
1263.32
1263.47
1263.63
1263.78
1263.92
1264.05
1264.16
1264.25
1264.31
1264.34
1264.33
1264.28
1264.2
1264.09
1263.95
1263.8
1263.63
1263.46
1263.29
1263.13
1262.97
1262.82
1262.67
1262.54
1262.42
1262.31
1262.2
1262.11
1262.03
1261.95
1261.88
1261.82
1261.76
1261.71
1261.66
1261.62
1261.58
1261.55
1261.52
1261.49
1261.47
1261.45
1261.43
1261.42
1261.41
1261.4
1261.39
1261.38
1261.38
1261.37
898.615
898.617
898.621
898.628
898.636
898.647
898.66
898.675
898.692
898.713
898.736
898.762
898.792
898.825
898.862
898.903
898.949
899
899.057
899.12
899.19
899.267
899.352
899.446
899.548
899.659
899.785
899.917
900.061
900.216
900.38
900.552
900.729
900.906
901.078
901.238
901.379
901.491
901.567
901.601
901.59
901.533
901.433
901.297
901.133
900.949
900.754
900.555
900.359
900.171
899.992
899.826
899.673
899.53
899.402
899.285
899.179
899.082
898.995
898.917
898.847
898.784
898.728
898.678
898.634
898.594
898.558
898.527
898.499
898.474
898.452
898.433
898.417
898.403
898.391
898.381
898.373
898.368
898.364
898.362
535.602
535.605
535.609
535.615
535.623
535.633
535.645
535.659
535.676
535.695
535.718
535.743
535.771
535.803
535.839
535.879
535.923
535.973
536.029
536.092
536.162
536.24
536.328
536.424
536.53
536.65
536.782
536.919
537.075
537.245
537.429
537.625
537.829
538.038
538.244
538.439
538.613
538.755
538.853
538.899
538.888
538.818
538.695
538.527
538.326
538.104
537.873
537.641
537.416
537.203
537.004
536.823
536.662
536.515
536.376
536.253
536.144
536.046
535.958
535.88
535.81
535.749
535.694
535.646
535.603
535.566
535.532
535.503
535.476
535.453
535.433
535.415
535.4
535.387
535.376
535.367
535.36
535.354
535.35
535.348
172.57
172.572
172.576
172.582
172.589
172.598
172.61
172.623
172.638
172.656
172.677
172.7
172.726
172.756
172.79
172.827
172.87
172.918
172.972
173.033
173.102
173.181
173.269
173.369
173.485
173.618
173.77
173.94
174.13
174.34
174.569
174.819
175.085
175.363
175.644
175.917
176.166
176.374
176.522
176.595
176.584
176.488
176.313
176.076
175.795
175.49
175.179
174.873
174.583
174.314
174.069
173.848
173.65
173.475
173.322
173.187
173.071
172.972
172.884
172.807
172.74
172.681
172.629
172.584
172.545
172.51
172.48
172.453
172.43
172.409
172.391
172.375
172.361
172.35
172.34
172.332
172.325
172.321
172.317
172.315
-9.26868
-9.26655
-9.26229
-9.25608
-9.24784
-9.23748
-9.22489
-9.20994
-9.19242
-9.17214
-9.14888
-9.12241
-9.09246
-9.05871
-9.02076
-8.97809
-8.9301
-8.87612
-8.81535
-8.74694
-8.66999
-8.58334
-8.48522
-8.37336
-8.24444
-8.09779
-7.93222
-7.7466
-7.5401
-7.31238
-7.06382
-6.79514
-6.50846
-6.21047
-5.91062
-5.62078
-5.35677
-5.13706
-4.98046
-4.90288
-4.91394
-5.01493
-5.19805
-5.44757
-5.74363
-6.06604
-6.39714
-6.7239
-7.03475
-7.32309
-7.5876
-7.82713
-8.04159
-8.23208
-8.40016
-8.5478
-8.67662
-8.7877
-8.88469
-8.96969
-9.0444
-9.11011
-9.16789
-9.21867
-9.26337
-9.30276
-9.33749
-9.36812
-9.39511
-9.41885
-9.43963
-9.45768
-9.47324
-9.4865
-9.49762
-9.50674
-9.51393
-9.51935
-9.52305
-9.52489
-9.86297
-9.86072
-9.85617
-9.84933
-9.84013
-9.82852
-9.81437
-9.79752
-9.77777
-9.7549
-9.72869
-9.69889
-9.6652
-9.62727
-9.58468
-9.53688
-9.48327
-9.42314
-9.35572
-9.28016
-9.1955
-9.1006
-8.9941
-8.87442
-8.74073
-8.59134
-8.42477
-8.23962
-8.03466
-7.80903
-7.56276
-7.29608
-7.01197
-6.71579
-6.41554
-6.12359
-5.85593
-5.63158
-5.4705
-5.39006
-5.40061
-5.50383
-5.69144
-5.94604
-6.24636
-6.5714
-6.9032
-7.22771
-7.53663
-7.82244
-8.08453
-8.32201
-8.53537
-8.72616
-8.89611
-9.0472
-9.18136
-9.30054
-9.40573
-9.49863
-9.58072
-9.65332
-9.71752
-9.77429
-9.82453
-9.869
-9.90833
-9.94307
-9.97371
-10.0007
-10.0243
-10.0448
-10.0625
-10.0775
-10.0901
-10.1005
-10.1086
-10.1146
-10.1185
-10.1205
-10.3568
-10.3546
-10.3501
-10.3433
-10.3343
-10.3228
-10.3088
-10.2922
-10.2727
-10.2501
-10.2242
-10.1948
-10.1616
-10.1242
-10.0821
-10.035
-9.98209
-9.92279
-9.85634
-9.78187
-9.6984
-9.60479
-9.4998
-9.38211
-9.25039
-9.10304
-8.93848
-8.75511
-8.55141
-8.32602
-8.07795
-7.80806
-7.51849
-7.21315
-6.89961
-6.58997
-6.30113
-6.05444
-5.87375
-5.78094
-5.78968
-5.90287
-6.10988
-6.38832
-6.71208
-7.05693
-7.40355
-7.73813
-8.05232
-8.34297
-8.60626
-8.84306
-9.0548
-9.2433
-9.41069
-9.55922
-9.69088
-9.80759
-9.91087
-10.0022
-10.0828
-10.1542
-10.2173
-10.2731
-10.3225
-10.3663
-10.405
-10.4392
-10.4694
-10.4959
-10.5192
-10.5394
-10.5568
-10.5717
-10.5841
-10.5943
-10.6023
-10.6082
-10.6121
-10.614
-10.8522
-10.8501
-10.8457
-10.8391
-10.8302
-10.819
-10.8053
-10.789
-10.7699
-10.7479
-10.7226
-10.6939
-10.6615
-10.625
-10.584
-10.538
-10.4865
-10.4288
-10.3642
-10.2919
-10.2108
-10.1199
-10.0179
-9.90355
-9.77536
-9.63172
-9.47087
-9.29093
-9.08996
-8.86604
-8.61761
-8.34373
-8.04469
-7.72324
-7.38569
-7.04353
-6.71486
-6.42507
-6.2053
-6.08697
-6.09171
-6.22565
-6.47186
-6.79702
-7.16548
-7.54727
-7.92099
-8.27352
-8.59809
-8.89158
-9.15491
-9.38951
-9.59765
-9.78178
-9.94451
-10.0883
-10.2154
-10.328
-10.4276
-10.5156
-10.5935
-10.6625
-10.7235
-10.7776
-10.8254
-10.8678
-10.9054
-10.9386
-10.9679
-10.9938
-11.0164
-11.0361
-11.0531
-11.0676
-11.0797
-11.0896
-11.0974
-11.1032
-11.107
-11.1089
-11.3501
-11.348
-11.3437
-11.3374
-11.3288
-11.3179
-11.3047
-11.2889
-11.2704
-11.2491
-11.2248
-11.1971
-11.1659
-11.1307
-11.0912
-11.047
-10.9975
-10.9421
-10.8802
-10.8108
-10.7332
-10.6461
-10.5484
-10.4388
-10.3158
-10.1777
-10.0224
-9.84785
-9.65147
-9.4305
-9.18216
-8.90404
-8.59327
-8.25039
-7.87911
-7.4891
-7.09912
-6.7398
-6.45391
-6.29021
-6.28613
-6.45688
-6.77104
-7.17354
-7.61231
-8.0493
-8.46139
-8.83749
-9.17456
-9.47099
-9.73278
-9.9629
-10.1648
-10.3419
-10.4975
-10.6343
-10.755
-10.8617
-10.9561
-11.0395
-11.1134
-11.1789
-11.237
-11.2884
-11.3341
-11.3746
-11.4105
-11.4423
-11.4704
-11.4952
-11.5169
-11.5358
-11.5522
-11.5661
-11.5778
-11.5873
-11.5948
-11.6004
-11.6041
-11.6059
-11.8503
-11.8483
-11.8442
-11.8381
-11.8299
-11.8195
-11.8068
-11.7917
-11.7741
-11.7538
-11.7306
-11.7042
-11.6745
-11.641
-11.6035
-11.5616
-11.5147
-11.4623
-11.4038
-11.3384
-11.2651
-11.183
-11.091
-10.9877
-10.8716
-10.741
-10.5937
-10.4271
-10.238
-10.0229
-9.77728
-9.49709
-9.17468
-8.80784
-8.39526
-7.94215
-7.46544
-7.00066
-6.60724
-6.36422
-6.33968
-6.57582
-7.00483
-7.52898
-8.07007
-8.5812
-9.04062
-9.44226
-9.78769
-10.087
-10.3439
-10.5656
-10.7574
-10.9241
-11.0696
-11.1971
-11.3092
-11.4081
-11.4957
-11.5733
-11.6421
-11.7032
-11.7574
-11.8056
-11.8484
-11.8864
-11.9201
-11.95
-11.9766
-12
-12.0205
-12.0384
-12.0539
-12.0671
-12.0782
-12.0872
-12.0944
-12.0997
-12.1032
-12.105
-12.3528
-12.3509
-12.347
-12.3412
-12.3334
-12.3236
-12.3116
-12.2974
-12.2808
-12.2616
-12.2398
-12.215
-12.1871
-12.1557
-12.1206
-12.0814
-12.0377
-11.989
-11.9346
-11.8739
-11.806
-11.7301
-11.645
-11.5496
-11.4423
-11.3215
-11.1848
-11.0294
-10.8515
-10.6464
-10.408
-10.1287
-9.802
-9.41403
-8.95763
-8.42905
-7.83733
-7.2182
-6.65153
-6.26871
-6.19452
-6.55249
-7.17732
-7.8881
-8.56983
-9.17151
-9.68116
-10.1052
-10.4549
-10.7472
-10.9922
-11.1994
-11.3763
-11.5285
-11.6605
-11.7758
-11.8771
-11.9666
-12.0459
-12.1163
-12.1789
-12.2346
-12.2842
-12.3283
-12.3676
-12.4027
-12.4338
-12.4615
-12.4861
-12.5079
-12.527
-12.5437
-12.5581
-12.5705
-12.5809
-12.5894
-12.5961
-12.601
-12.6043
-12.606
-12.8574
-12.8556
-12.852
-12.8466
-12.8393
-12.8301
-12.8189
-12.8056
-12.7902
-12.7724
-12.7522
-12.7293
-12.7034
-12.6745
-12.6422
-12.6062
-12.5662
-12.5216
-12.472
-12.4168
-12.3552
-12.2864
-12.2096
-12.1237
-12.0272
-11.9186
-11.7955
-11.6552
-11.4934
-11.3046
-11.0816
-10.8148
-10.4935
-10.0938
-9.60098
-8.99398
-8.26166
-7.42525
-6.58018
-5.93985
-5.7549
-6.35169
-7.31731
-8.30645
-9.16662
-9.86366
-10.413
-10.8426
-11.1837
-11.4574
-11.6806
-11.8656
-12.0213
-12.1543
-12.2691
-12.3693
-12.4576
-12.5358
-12.6054
-12.6675
-12.7229
-12.7724
-12.8167
-12.8562
-12.8916
-12.9231
-12.9513
-12.9765
-12.9988
-13.0187
-13.0361
-13.0514
-13.0647
-13.0761
-13.0857
-13.0935
-13.0996
-13.1042
-13.1073
-13.1088
-13.3639
-13.3623
-13.359
-13.354
-13.3473
-13.3388
-13.3285
-13.3163
-13.3022
-13.286
-13.2675
-13.2466
-13.2232
-13.197
-13.1678
-13.1354
-13.0995
-13.0596
-13.0153
-12.9662
-12.9117
-12.8511
-12.7838
-12.7088
-12.625
-12.531
-12.4248
-12.3038
-12.1639
-11.9995
-11.8024
-11.5609
-11.2575
-10.8757
-10.3728
-9.70681
-8.82714
-7.70694
-6.42551
-5.30861
-4.87168
-5.94594
-7.52243
-8.90156
-9.95323
-10.7198
-11.274
-11.6798
-11.9863
-12.2228
-12.4105
-12.5635
-12.6912
-12.7997
-12.8937
-12.9761
-13.0492
-13.1145
-13.1731
-13.2258
-13.2732
-13.3158
-13.3542
-13.3886
-13.4195
-13.4473
-13.4722
-13.4945
-13.5144
-13.5321
-13.5477
-13.5615
-13.5735
-13.5837
-13.5924
-13.5994
-13.605
-13.6092
-13.6119
-13.6133
-13.8723
-13.8708
-13.8678
-13.8633
-13.8572
-13.8496
-13.8403
-13.8293
-13.8166
-13.802
-13.7854
-13.7668
-13.7459
-13.7227
-13.697
-13.6685
-13.637
-13.6022
-13.5638
-13.5213
-13.4746
-13.423
-13.3661
-13.3033
-13.2339
-13.1568
-13.0706
-12.9733
-12.8616
-12.7306
-12.5728
-12.3768
-12.1247
-11.7902
-11.3311
-10.6699
-9.69251
-8.26515
-6.35832
-4.4236
-3.66652
-5.53581
-8.0709
-9.90845
-11.0737
-11.8167
-12.2987
-12.6323
-12.8688
-13.044
-13.1801
-13.2903
-13.3826
-13.4619
-13.5315
-13.5936
-13.6498
-13.7009
-13.7475
-13.79
-13.8287
-13.8639
-13.8959
-13.9248
-13.951
-13.9746
-13.996
-14.0152
-14.0325
-14.0479
-14.0615
-14.0736
-14.0841
-14.0932
-14.1008
-14.107
-14.112
-14.1157
-14.1182
-14.1194
-14.3823
-14.381
-14.3783
-14.3743
-14.3689
-14.3621
-14.3539
-14.3442
-14.333
-14.3202
-14.3057
-14.2894
-14.2714
-14.2514
-14.2293
-14.2049
-14.1781
-14.1487
-14.1164
-14.0811
-14.0426
-14.0006
-13.9549
-13.9053
-13.8515
-13.7932
-13.7297
-13.66
-13.5823
-13.4936
-13.389
-13.2603
-13.0931
-12.8623
-12.527
-12.0139
-11.121
-9.52926
-6.96405
-3.97002
-3.2365
-6.29363
-9.68302
-11.7436
-12.7196
-13.2117
-13.5163
-13.7051
-13.8273
-13.9143
-13.9825
-14.0398
-14.0903
-14.1363
-14.1788
-14.2189
-14.2569
-14.2929
-14.3269
-14.3586
-14.3882
-14.4156
-14.4409
-14.4641
-14.4853
-14.5046
-14.5222
-14.5382
-14.5526
-14.5656
-14.5772
-14.5874
-14.5964
-14.6042
-14.6107
-14.6161
-14.6204
-14.6236
-14.6258
-14.6268
-14.8938
-14.8926
-14.8903
-14.8869
-14.8822
-14.8764
-14.8693
-14.8609
-14.8512
-14.8402
-14.8279
-14.8142
-14.7991
-14.7824
-14.764
-14.744
-14.722
-14.6982
-14.6724
-14.6445
-14.6145
-14.5824
-14.5484
-14.5125
-14.4752
-14.4367
-14.3976
-14.3581
-14.3186
-14.2793
-14.2398
-14.199
-14.1523
-14.0883
-13.9893
-13.832
-13.4811
-12.2459
-9.46361
-5.60363
-5.98277
-10.4181
-13.5731
-14.964
-15.0588
-14.9638
-14.9181
-14.8781
-14.8417
-14.8168
-14.8042
-14.8017
-14.8065
-14.8169
-14.8312
-14.8484
-14.8677
-14.8882
-14.9093
-14.9301
-14.9504
-14.9699
-14.9883
-15.0056
-15.0217
-15.0366
-15.0503
-15.063
-15.0745
-15.085
-15.0944
-15.1028
-15.1102
-15.1166
-15.122
-15.1265
-15.1301
-15.1328
-15.1346
-15.1355
-15.4065
-15.4056
-15.4037
-15.4008
-15.3969
-15.392
-15.386
-15.379
-15.371
-15.3619
-15.3519
-15.3408
-15.3286
-15.3153
-15.3008
-15.2851
-15.2681
-15.25
-15.2307
-15.2103
-15.1889
-15.1668
-15.1444
-15.1224
-15.1016
-15.0832
-15.0688
-15.0602
-15.0604
-15.0734
-15.1051
-15.1647
-15.2643
-15.4206
-15.6794
-16.1862
-16.9978
-17.3051
-15.5597
-10.7813
-13.0279
-20.3373
-21.3004
-19.7731
-18.0771
-16.9813
-16.422
-16.09
-15.8697
-15.7229
-15.6258
-15.5622
-15.5214
-15.4966
-15.4832
-15.4781
-15.4791
-15.4844
-15.4927
-15.5029
-15.514
-15.5256
-15.5372
-15.5486
-15.5596
-15.57
-15.5799
-15.5891
-15.5977
-15.6056
-15.6128
-15.6193
-15.6251
-15.6301
-15.6344
-15.638
-15.6409
-15.643
-15.6444
-15.6451
-15.9204
-15.9196
-15.9181
-15.9158
-15.9127
-15.9088
-15.904
-15.8984
-15.892
-15.8849
-15.8772
-15.8687
-15.8595
-15.8496
-15.8389
-15.8276
-15.8156
-15.8032
-15.7903
-15.7773
-15.7643
-15.752
-15.741
-15.7324
-15.7276
-15.7283
-15.7373
-15.7581
-15.7956
-15.8578
-15.9568
-16.1127
-16.3566
-16.741
-17.3917
-18.6425
-20.9592
-24.4926
-27.0247
-22.338
-29.1753
-35.4093
-28.7425
-23.771
-20.7004
-18.8332
-17.8219
-17.2314
-16.8496
-16.5956
-16.424
-16.3061
-16.2245
-16.168
-16.1295
-16.1039
-16.0881
-16.0792
-16.0754
-16.0753
-16.0776
-16.0816
-16.0866
-16.0923
-16.0982
-16.1043
-16.1103
-16.1162
-16.1219
-16.1272
-16.1322
-16.1367
-16.1409
-16.1445
-16.1477
-16.1503
-16.1524
-16.154
-16.1551
-16.1556
-16.4352
-16.4346
-16.4335
-16.4318
-16.4294
-16.4265
-16.4229
-16.4187
-16.4141
-16.4089
-16.4034
-16.3976
-16.3913
-16.3847
-16.3779
-16.3709
-16.3638
-16.3569
-16.3504
-16.3444
-16.3396
-16.3366
-16.3363
-16.3402
-16.3499
-16.368
-16.3976
-16.4435
-16.5123
-16.6141
-16.7651
-16.9912
-17.3339
-17.8621
-18.735
-20.2706
-22.8237
-27.165
-34.8764
-39.2286
-42.3169
-37.0039
-28.477
-24.6707
-22.0137
-20.0818
-18.9067
-18.1944
-17.7224
-17.4005
-17.1775
-17.0196
-16.9065
-16.8247
-16.7653
-16.7224
-16.6918
-16.6703
-16.6556
-16.646
-16.6402
-16.637
-16.6357
-16.6359
-16.637
-16.6388
-16.6411
-16.6438
-16.6465
-16.6493
-16.6521
-16.6548
-16.6573
-16.6596
-16.6616
-16.6633
-16.6647
-16.6657
-16.6664
-16.6668
-16.9507
-16.9503
-16.9495
-16.9484
-16.9469
-16.9449
-16.9425
-16.9397
-16.9368
-16.9336
-16.9304
-16.927
-16.9237
-16.9204
-16.9172
-16.9144
-16.9121
-16.9106
-16.91
-16.9107
-16.9135
-16.9191
-16.9287
-16.9436
-16.9661
-16.9987
-17.0451
-17.1103
-17.2014
-17.3289
-17.5089
-17.7668
-18.1406
-18.6902
-19.5479
-20.9011
-22.7268
-24.9889
-29.7195
-35.0189
-34.9404
-31.0221
-25.9851
-23.945
-22.2665
-20.6911
-19.6269
-18.939
-18.4594
-18.1183
-17.8731
-17.6938
-17.561
-17.4618
-17.3871
-17.3307
-17.288
-17.2559
-17.2319
-17.2139
-17.2006
-17.1908
-17.1837
-17.1787
-17.1753
-17.1731
-17.1719
-17.1714
-17.1714
-17.1717
-17.1724
-17.1732
-17.1741
-17.175
-17.1759
-17.1767
-17.1773
-17.1778
-17.1782
-17.1784
-17.4667
-17.4665
-17.4661
-17.4656
-17.4647
-17.4637
-17.4625
-17.4612
-17.4599
-17.4587
-17.4576
-17.4567
-17.4561
-17.456
-17.4564
-17.4576
-17.4599
-17.4633
-17.4683
-17.4753
-17.4851
-17.4985
-17.5167
-17.5413
-17.5742
-17.6183
-17.677
-17.755
-17.8586
-17.9967
-18.1823
-18.4343
-18.7781
-19.249
-19.92
-20.872
-21.9664
-23.0654
-25.3238
-25.2422
-24.1631
-25.8588
-23.7318
-22.944
-21.9566
-20.8435
-20.0495
-19.4886
-19.0662
-18.748
-18.5082
-18.3256
-18.1854
-18.0771
-17.9929
-17.9271
-17.8754
-17.8349
-17.8029
-17.7778
-17.758
-17.7423
-17.73
-17.7203
-17.7127
-17.7067
-17.7021
-17.6986
-17.696
-17.694
-17.6926
-17.6917
-17.6911
-17.6907
-17.6905
-17.6903
-17.6903
-17.6902
-17.6902
-17.6902
-17.9831
-17.9831
-17.9831
-17.983
-17.9829
-17.9828
-17.9827
-17.9828
-17.9831
-17.9838
-17.9848
-17.9862
-17.9883
-17.9912
-17.995
-18.0001
-18.0065
-18.0146
-18.0247
-18.0375
-18.0536
-18.074
-18.0996
-18.1321
-18.1734
-18.2259
-18.2926
-18.3772
-18.4845
-18.6205
-18.7932
-19.0129
-19.2897
-19.6312
-20.0523
-20.548
-20.9812
-21.1724
-21.5794
-19.5946
-19.146
-22.0044
-21.6446
-21.7558
-21.3811
-20.7601
-20.2983
-19.9046
-19.5731
-19.3044
-19.0896
-18.9181
-18.7808
-18.6708
-18.5825
-18.5111
-18.4533
-18.4063
-18.3682
-18.3371
-18.3117
-18.291
-18.274
-18.26
-18.2486
-18.2391
-18.2314
-18.2252
-18.2201
-18.2159
-18.2126
-18.21
-18.2079
-18.2063
-18.205
-18.204
-18.2032
-18.2027
-18.2024
-18.2022
-18.4997
-18.4999
-18.5001
-18.5006
-18.5011
-18.5019
-18.503
-18.5044
-18.5062
-18.5086
-18.5116
-18.5153
-18.5199
-18.5256
-18.5327
-18.5412
-18.5515
-18.5639
-18.5788
-18.5968
-18.6185
-18.6448
-18.6768
-18.7157
-18.7634
-18.8217
-18.8928
-18.9792
-19.0838
-19.2094
-19.3592
-19.5356
-19.7364
-19.9495
-20.1523
-20.2864
-20.2141
-19.9803
-18.6295
-18.1623
-18.4032
-19.5252
-20.4959
-20.8507
-20.9222
-20.7275
-20.509
-20.2588
-20.0204
-19.81
-19.6302
-19.4784
-19.3512
-19.2451
-19.1567
-19.083
-19.0215
-18.9702
-18.9273
-18.8915
-18.8615
-18.8364
-18.8153
-18.7975
-18.7826
-18.7701
-18.7595
-18.7507
-18.7433
-18.7371
-18.732
-18.7278
-18.7244
-18.7216
-18.7193
-18.7175
-18.7161
-18.7151
-18.7145
-18.7142
-19.0163
-19.0166
-19.0171
-19.018
-19.0192
-19.0209
-19.023
-19.0256
-19.0289
-19.0329
-19.0377
-19.0435
-19.0505
-19.0589
-19.0689
-19.0807
-19.0946
-19.1109
-19.1301
-19.1528
-19.1794
-19.2109
-19.2481
-19.2923
-19.3447
-19.4067
-19.4797
-19.5649
-19.6631
-19.7748
-19.8996
-20.0346
-20.1715
-20.2903
-20.3584
-20.3186
-20.0565
-19.7012
-18.0362
-19.1613
-19.5211
-19.1074
-20.3083
-20.6152
-20.8293
-20.8199
-20.7455
-20.6026
-20.4432
-20.2877
-20.1443
-20.0156
-19.9021
-19.8032
-19.7177
-19.644
-19.5808
-19.5267
-19.4803
-19.4407
-19.4069
-19.3781
-19.3535
-19.3325
-19.3145
-19.2991
-19.2861
-19.2749
-19.2655
-19.2574
-19.2507
-19.245
-19.2403
-19.2364
-19.2332
-19.2306
-19.2287
-19.2272
-19.2263
-19.2259
-19.5326
-19.5331
-19.5339
-19.5352
-19.537
-19.5394
-19.5425
-19.5464
-19.551
-19.5565
-19.563
-19.5708
-19.58
-19.5908
-19.6035
-19.6182
-19.6353
-19.6552
-19.6783
-19.7051
-19.7361
-19.772
-19.8137
-19.8622
-19.9182
-19.9827
-20.0561
-20.1386
-20.2296
-20.3277
-20.4305
-20.5332
-20.6269
-20.6943
-20.7152
-20.6637
-20.485
-20.2344
-19.8864
-20.0263
-20.1054
-20.3938
-20.8047
-20.9334
-21.0574
-21.0669
-21.0428
-20.967
-20.8659
-20.7556
-20.6449
-20.5386
-20.4396
-20.3493
-20.268
-20.1958
-20.1321
-20.0762
-20.0274
-19.9849
-19.948
-19.9161
-19.8885
-19.8646
-19.844
-19.8262
-19.8108
-19.7976
-19.7863
-19.7766
-19.7683
-19.7613
-19.7554
-19.7505
-19.7465
-19.7433
-19.7408
-19.7389
-19.7377
-19.7372
-20.0486
-20.0491
-20.0502
-20.0519
-20.0543
-20.0575
-20.0615
-20.0664
-20.0722
-20.0791
-20.0872
-20.0967
-20.1079
-20.121
-20.1361
-20.1535
-20.1735
-20.1967
-20.2232
-20.2536
-20.2885
-20.3283
-20.3739
-20.426
-20.485
-20.5513
-20.6248
-20.7046
-20.7893
-20.8765
-20.9626
-21.0434
-21.1116
-21.1579
-21.1828
-21.2031
-21.2475
-21.1298
-21.5741
-19.9098
-20.3262
-22.0661
-21.3647
-21.4301
-21.4337
-21.4079
-21.4008
-21.3621
-21.3013
-21.2259
-21.1423
-21.0554
-20.9694
-20.8872
-20.8105
-20.7402
-20.6765
-20.6196
-20.5689
-20.5241
-20.4848
-20.4503
-20.4201
-20.3938
-20.3709
-20.351
-20.3336
-20.3186
-20.3056
-20.2944
-20.2848
-20.2766
-20.2697
-20.2639
-20.2591
-20.2552
-20.2522
-20.25
-20.2486
-20.2479
-20.564
-20.5646
-20.566
-20.5681
-20.571
-20.5748
-20.5796
-20.5855
-20.5924
-20.6005
-20.61
-20.6211
-20.6341
-20.6492
-20.6664
-20.6862
-20.709
-20.735
-20.7646
-20.7982
-20.8364
-20.8798
-20.9289
-20.9842
-21.046
-21.1142
-21.1882
-21.2665
-21.3471
-21.4269
-21.5022
-21.5686
-21.6205
-21.6527
-21.6761
-21.7325
-21.8869
-21.8498
-22.3072
-18.9176
-19.6407
-22.311
-21.7075
-21.9029
-21.8155
-21.7755
-21.7922
-21.7832
-21.7541
-21.7059
-21.6434
-21.5718
-21.4962
-21.4205
-21.3474
-21.2787
-21.2152
-21.1574
-21.1053
-21.0586
-21.0172
-20.9806
-20.9484
-20.92
-20.8951
-20.8733
-20.8543
-20.8377
-20.8232
-20.8107
-20.7999
-20.7906
-20.7828
-20.7762
-20.7708
-20.7664
-20.7629
-20.7604
-20.7587
-20.7579
-21.0786
-21.0794
-21.081
-21.0834
-21.0868
-21.0913
-21.0968
-21.1035
-21.1113
-21.1205
-21.1313
-21.1439
-21.1585
-21.1752
-21.1944
-21.2163
-21.2414