/*--------------------------------*- C++ -*----------------------------------*\
| =========                 |                                                 |
| \\      /  F ield         | OpenFOAM: The Open Source CFD Toolbox           |
|  \\    /   O peration     | Version:  2412                                  |
|   \\  /    A nd           | Website:  www.openfoam.com                      |
|    \\/     M anipulation  |                                                 |
\*---------------------------------------------------------------------------*/
FoamFile
{
    version     2.0;
    format      ascii;
    arch        "LSB;label=32;scalar=64";
    class       volScalarField;
    location    "0.45";
    object      p_rgh;
}
// * * * * * * * * * * * * * * * * * * * * * * * * * * * * * * * * * * * * * //

dimensions      [1 -1 -2 0 0 0 0];

internalField   nonuniform List<scalar> 
6400
(
7250.98
7250.98
7250.99
7250.99
7251
7251.02
7251.03
7251.05
7251.07
7251.09
7251.12
7251.15
7251.18
7251.21
7251.24
7251.28
7251.32
7251.36
7251.4
7251.45
7251.49
7251.54
7251.59
7251.64
7251.69
7251.74
7251.78
7251.83
7251.88
7251.92
7251.96
7252
7252.04
7252.07
7252.1
7252.12
7252.13
7252.15
7252.15
7252.15
7252.14
7252.13
7252.11
7252.09
7252.06
7252.03
7251.99
7251.94
7251.9
7251.85
7251.8
7251.74
7251.69
7251.63
7251.58
7251.52
7251.46
7251.41
7251.35
7251.3
7251.25
7251.2
7251.15
7251.11
7251.06
7251.02
7250.98
7250.95
7250.92
7250.89
7250.86
7250.84
7250.81
7250.8
7250.78
7250.77
7250.76
7250.75
7250.74
7250.74
7250.97
7250.98
7250.98
7250.99
7251
7251.01
7251.03
7251.05
7251.07
7251.09
7251.12
7251.14
7251.17
7251.21
7251.24
7251.28
7251.32
7251.36
7251.4
7251.45
7251.49
7251.54
7251.59
7251.64
7251.69
7251.74
7251.79
7251.83
7251.88
7251.92
7251.97
7252.01
7252.04
7252.07
7252.1
7252.12
7252.14
7252.15
7252.16
7252.16
7252.15
7252.14
7252.12
7252.09
7252.07
7252.03
7251.99
7251.95
7251.9
7251.85
7251.8
7251.74
7251.69
7251.63
7251.58
7251.52
7251.46
7251.41
7251.35
7251.3
7251.25
7251.2
7251.15
7251.1
7251.06
7251.02
7250.98
7250.95
7250.91
7250.88
7250.86
7250.83
7250.81
7250.79
7250.78
7250.76
7250.75
7250.74
7250.74
7250.74
7250.97
7250.97
7250.98
7250.99
7251
7251.01
7251.02
7251.04
7251.06
7251.08
7251.11
7251.14
7251.17
7251.2
7251.24
7251.27
7251.31
7251.35
7251.4
7251.44
7251.49
7251.54
7251.59
7251.64
7251.69
7251.74
7251.79
7251.84
7251.88
7251.93
7251.97
7252.01
7252.05
7252.08
7252.11
7252.13
7252.15
7252.16
7252.17
7252.17
7252.16
7252.15
7252.13
7252.11
7252.08
7252.04
7252
7251.96
7251.91
7251.86
7251.8
7251.75
7251.69
7251.63
7251.58
7251.52
7251.46
7251.4
7251.35
7251.29
7251.24
7251.19
7251.14
7251.1
7251.06
7251.02
7250.98
7250.94
7250.91
7250.88
7250.85
7250.83
7250.81
7250.79
7250.77
7250.76
7250.75
7250.74
7250.73
7250.73
7250.97
7250.97
7250.97
7250.98
7250.99
7251
7251.02
7251.03
7251.05
7251.08
7251.1
7251.13
7251.16
7251.19
7251.23
7251.27
7251.31
7251.35
7251.39
7251.44
7251.49
7251.54
7251.59
7251.64
7251.69
7251.74
7251.79
7251.84
7251.89
7251.94
7251.98
7252.02
7252.06
7252.1
7252.12
7252.15
7252.17
7252.18
7252.19
7252.19
7252.18
7252.17
7252.15
7252.12
7252.09
7252.05
7252.01
7251.97
7251.92
7251.86
7251.81
7251.75
7251.69
7251.63
7251.58
7251.52
7251.46
7251.4
7251.34
7251.29
7251.24
7251.19
7251.14
7251.09
7251.05
7251.01
7250.97
7250.93
7250.9
7250.87
7250.84
7250.82
7250.8
7250.78
7250.76
7250.75
7250.74
7250.73
7250.73
7250.72
7250.95
7250.96
7250.96
7250.97
7250.98
7250.99
7251.01
7251.02
7251.04
7251.07
7251.09
7251.12
7251.15
7251.19
7251.22
7251.26
7251.3
7251.34
7251.39
7251.43
7251.48
7251.53
7251.58
7251.64
7251.69
7251.74
7251.79
7251.85
7251.9
7251.95
7251.99
7252.04
7252.08
7252.11
7252.14
7252.17
7252.19
7252.2
7252.21
7252.21
7252.2
7252.19
7252.17
7252.14
7252.11
7252.07
7252.03
7251.98
7251.93
7251.87
7251.82
7251.76
7251.7
7251.64
7251.57
7251.51
7251.45
7251.4
7251.34
7251.28
7251.23
7251.18
7251.13
7251.08
7251.04
7251
7250.96
7250.92
7250.89
7250.86
7250.83
7250.81
7250.79
7250.77
7250.75
7250.74
7250.73
7250.72
7250.72
7250.71
7250.94
7250.94
7250.95
7250.96
7250.97
7250.98
7250.99
7251.01
7251.03
7251.06
7251.08
7251.11
7251.14
7251.17
7251.21
7251.25
7251.29
7251.33
7251.38
7251.43
7251.48
7251.53
7251.58
7251.63
7251.69
7251.74
7251.8
7251.85
7251.91
7251.96
7252.01
7252.05
7252.1
7252.14
7252.17
7252.2
7252.22
7252.23
7252.24
7252.24
7252.24
7252.22
7252.2
7252.17
7252.14
7252.1
7252.05
7252
7251.94
7251.89
7251.83
7251.76
7251.7
7251.64
7251.57
7251.51
7251.45
7251.39
7251.33
7251.27
7251.22
7251.17
7251.12
7251.07
7251.03
7250.98
7250.95
7250.91
7250.88
7250.85
7250.82
7250.8
7250.77
7250.75
7250.74
7250.73
7250.71
7250.71
7250.7
7250.7
7250.92
7250.93
7250.93
7250.94
7250.95
7250.96
7250.98
7251
7251.02
7251.04
7251.07
7251.09
7251.13
7251.16
7251.2
7251.23
7251.28
7251.32
7251.37
7251.42
7251.47
7251.52
7251.57
7251.63
7251.69
7251.74
7251.8
7251.86
7251.92
7251.97
7252.03
7252.08
7252.12
7252.16
7252.2
7252.23
7252.25
7252.27
7252.28
7252.28
7252.27
7252.26
7252.24
7252.21
7252.17
7252.12
7252.07
7252.02
7251.96
7251.9
7251.84
7251.77
7251.71
7251.64
7251.57
7251.51
7251.44
7251.38
7251.32
7251.26
7251.21
7251.15
7251.1
7251.06
7251.01
7250.97
7250.93
7250.89
7250.86
7250.83
7250.8
7250.78
7250.76
7250.74
7250.72
7250.71
7250.7
7250.69
7250.69
7250.68
7250.91
7250.91
7250.91
7250.92
7250.93
7250.94
7250.96
7250.98
7251
7251.02
7251.05
7251.08
7251.11
7251.14
7251.18
7251.22
7251.26
7251.31
7251.35
7251.4
7251.46
7251.51
7251.57
7251.63
7251.69
7251.75
7251.81
7251.87
7251.93
7251.99
7252.05
7252.1
7252.15
7252.2
7252.24
7252.27
7252.3
7252.32
7252.33
7252.33
7252.32
7252.3
7252.28
7252.25
7252.21
7252.16
7252.11
7252.05
7251.98
7251.92
7251.85
7251.78
7251.71
7251.64
7251.57
7251.5
7251.44
7251.37
7251.31
7251.25
7251.19
7251.14
7251.09
7251.04
7250.99
7250.95
7250.91
7250.87
7250.84
7250.81
7250.78
7250.76
7250.74
7250.72
7250.7
7250.69
7250.68
7250.67
7250.67
7250.66
7250.89
7250.89
7250.89
7250.9
7250.91
7250.92
7250.94
7250.96
7250.98
7251
7251.03
7251.06
7251.09
7251.12
7251.16
7251.2
7251.24
7251.29
7251.34
7251.39
7251.44
7251.5
7251.56
7251.62
7251.68
7251.75
7251.81
7251.88
7251.94
7252.01
7252.07
7252.13
7252.18
7252.23
7252.28
7252.32
7252.35
7252.37
7252.38
7252.38
7252.38
7252.36
7252.33
7252.3
7252.25
7252.2
7252.14
7252.08
7252.01
7251.94
7251.86
7251.79
7251.72
7251.64
7251.57
7251.5
7251.43
7251.36
7251.29
7251.23
7251.17
7251.12
7251.07
7251.02
7250.97
7250.93
7250.89
7250.85
7250.82
7250.79
7250.76
7250.74
7250.72
7250.7
7250.68
7250.67
7250.66
7250.65
7250.64
7250.64
7250.86
7250.87
7250.87
7250.88
7250.89
7250.9
7250.92
7250.93
7250.96
7250.98
7251
7251.03
7251.07
7251.1
7251.14
7251.18
7251.22
7251.27
7251.32
7251.37
7251.43
7251.49
7251.55
7251.61
7251.68
7251.75
7251.82
7251.89
7251.96
7252.03
7252.1
7252.16
7252.22
7252.28
7252.33
7252.37
7252.41
7252.43
7252.45
7252.45
7252.44
7252.42
7252.39
7252.35
7252.3
7252.25
7252.18
7252.11
7252.04
7251.96
7251.88
7251.8
7251.72
7251.64
7251.56
7251.49
7251.41
7251.34
7251.28
7251.21
7251.15
7251.1
7251.04
7250.99
7250.95
7250.9
7250.86
7250.83
7250.79
7250.76
7250.74
7250.71
7250.69
7250.67
7250.66
7250.64
7250.63
7250.63
7250.62
7250.62
7250.84
7250.84
7250.85
7250.85
7250.86
7250.88
7250.89
7250.91
7250.93
7250.95
7250.98
7251.01
7251.04
7251.07
7251.11
7251.15
7251.2
7251.25
7251.3
7251.35
7251.41
7251.47
7251.54
7251.6
7251.67
7251.75
7251.82
7251.9
7251.97
7252.05
7252.12
7252.2
7252.27
7252.33
7252.39
7252.44
7252.48
7252.5
7252.52
7252.53
7252.52
7252.5
7252.46
7252.42
7252.36
7252.3
7252.23
7252.15
7252.07
7251.98
7251.9
7251.81
7251.72
7251.64
7251.56
7251.48
7251.4
7251.33
7251.26
7251.19
7251.13
7251.07
7251.02
7250.96
7250.92
7250.87
7250.83
7250.8
7250.77
7250.74
7250.71
7250.68
7250.66
7250.65
7250.63
7250.62
7250.61
7250.6
7250.59
7250.59
7250.81
7250.81
7250.82
7250.82
7250.83
7250.85
7250.86
7250.88
7250.9
7250.92
7250.95
7250.98
7251.01
7251.05
7251.08
7251.13
7251.17
7251.22
7251.27
7251.33
7251.39
7251.45
7251.52
7251.59
7251.67
7251.74
7251.82
7251.91
7251.99
7252.07
7252.16
7252.24
7252.31
7252.39
7252.45
7252.51
7252.55
7252.59
7252.61
7252.62
7252.61
7252.58
7252.55
7252.5
7252.43
7252.36
7252.28
7252.19
7252.1
7252.01
7251.91
7251.82
7251.73
7251.63
7251.55
7251.46
7251.38
7251.3
7251.23
7251.16
7251.1
7251.04
7250.98
7250.93
7250.89
7250.84
7250.8
7250.77
7250.73
7250.7
7250.68
7250.65
7250.63
7250.61
7250.6
7250.59
7250.58
7250.57
7250.57
7250.56
7250.78
7250.78
7250.79
7250.79
7250.8
7250.82
7250.83
7250.85
7250.87
7250.89
7250.92
7250.95
7250.98
7251.01
7251.05
7251.1
7251.14
7251.19
7251.24
7251.3
7251.37
7251.43
7251.5
7251.58
7251.66
7251.74
7251.82
7251.91
7252
7252.1
7252.19
7252.28
7252.37
7252.45
7252.53
7252.59
7252.65
7252.69
7252.71
7252.72
7252.71
7252.68
7252.64
7252.58
7252.51
7252.43
7252.34
7252.24
7252.14
7252.03
7251.93
7251.83
7251.73
7251.63
7251.53
7251.44
7251.36
7251.28
7251.2
7251.13
7251.07
7251.01
7250.95
7250.9
7250.85
7250.81
7250.77
7250.73
7250.7
7250.67
7250.64
7250.62
7250.6
7250.58
7250.57
7250.56
7250.55
7250.54
7250.53
7250.53
7250.75
7250.75
7250.75
7250.76
7250.77
7250.78
7250.8
7250.81
7250.83
7250.86
7250.88
7250.91
7250.94
7250.98
7251.02
7251.06
7251.11
7251.16
7251.21
7251.27
7251.34
7251.41
7251.48
7251.56
7251.64
7251.73
7251.82
7251.92
7252.02
7252.12
7252.22
7252.33
7252.43
7252.52
7252.61
7252.69
7252.75
7252.8
7252.83
7252.84
7252.83
7252.8
7252.75
7252.69
7252.6
7252.51
7252.4
7252.29
7252.18
7252.06
7251.95
7251.83
7251.72
7251.62
7251.52
7251.42
7251.33
7251.25
7251.17
7251.1
7251.03
7250.97
7250.91
7250.86
7250.81
7250.77
7250.73
7250.69
7250.66
7250.63
7250.61
7250.58
7250.56
7250.55
7250.53
7250.52
7250.51
7250.5
7250.5
7250.5
7250.71
7250.71
7250.72
7250.72
7250.73
7250.75
7250.76
7250.78
7250.8
7250.82
7250.84
7250.87
7250.9
7250.94
7250.98
7251.02
7251.07
7251.12
7251.18
7251.24
7251.3
7251.37
7251.45
7251.53
7251.62
7251.72
7251.82
7251.92
7252.03
7252.14
7252.26
7252.38
7252.49
7252.6
7252.7
7252.79
7252.87
7252.93
7252.97
7252.98
7252.97
7252.94
7252.88
7252.8
7252.71
7252.6
7252.48
7252.35
7252.22
7252.09
7251.96
7251.83
7251.71
7251.6
7251.49
7251.39
7251.3
7251.21
7251.13
7251.05
7250.99
7250.92
7250.87
7250.81
7250.77
7250.72
7250.69
7250.65
7250.62
7250.59
7250.57
7250.54
7250.52
7250.51
7250.49
7250.48
7250.47
7250.47
7250.46
7250.46
7250.67
7250.68
7250.68
7250.69
7250.7
7250.71
7250.72
7250.74
7250.76
7250.78
7250.8
7250.83
7250.86
7250.9
7250.94
7250.98
7251.03
7251.08
7251.13
7251.2
7251.26
7251.34
7251.42
7251.5
7251.6
7251.7
7251.8
7251.92
7252.04
7252.16
7252.29
7252.43
7252.56
7252.69
7252.81
7252.92
7253.01
7253.08
7253.13
7253.15
7253.14
7253.1
7253.03
7252.94
7252.82
7252.69
7252.55
7252.41
7252.26
7252.11
7251.97
7251.83
7251.7
7251.58
7251.46
7251.36
7251.26
7251.17
7251.08
7251.01
7250.94
7250.88
7250.82
7250.77
7250.72
7250.68
7250.64
7250.61
7250.57
7250.55
7250.52
7250.5
7250.48
7250.47
7250.45
7250.44
7250.43
7250.43
7250.42
7250.42
7250.63
7250.64
7250.64
7250.65
7250.65
7250.67
7250.68
7250.69
7250.71
7250.73
7250.76
7250.79
7250.82
7250.85
7250.89
7250.93
7250.98
7251.03
7251.09
7251.15
7251.22
7251.29
7251.38
7251.47
7251.56
7251.67
7251.79
7251.91
7252.04
7252.18
7252.33
7252.48
7252.63
7252.78
7252.93
7253.06
7253.17
7253.26
7253.32
7253.34
7253.33
7253.29
7253.2
7253.09
7252.96
7252.8
7252.64
7252.47
7252.3
7252.13
7251.97
7251.82
7251.68
7251.55
7251.43
7251.31
7251.21
7251.12
7251.03
7250.95
7250.88
7250.82
7250.76
7250.71
7250.67
7250.63
7250.59
7250.56
7250.53
7250.5
7250.48
7250.46
7250.44
7250.42
7250.41
7250.4
7250.39
7250.39
7250.38
7250.38
7250.59
7250.59
7250.6
7250.6
7250.61
7250.62
7250.63
7250.65
7250.67
7250.69
7250.71
7250.74
7250.77
7250.8
7250.84
7250.88
7250.92
7250.98
7251.03
7251.1
7251.16
7251.24
7251.33
7251.42
7251.52
7251.63
7251.76
7251.89
7252.04
7252.19
7252.36
7252.53
7252.7
7252.88
7253.05
7253.21
7253.35
7253.47
7253.54
7253.58
7253.57
7253.51
7253.41
7253.27
7253.11
7252.92
7252.73
7252.53
7252.33
7252.15
7251.97
7251.8
7251.65
7251.51
7251.38
7251.26
7251.15
7251.06
7250.97
7250.89
7250.82
7250.76
7250.7
7250.65
7250.61
7250.57
7250.53
7250.5
7250.47
7250.45
7250.43
7250.41
7250.39
7250.38
7250.37
7250.36
7250.35
7250.34
7250.34
7250.34
7250.55
7250.55
7250.55
7250.56
7250.57
7250.58
7250.59
7250.6
7250.62
7250.64
7250.66
7250.69
7250.72
7250.75
7250.78
7250.82
7250.87
7250.92
7250.97
7251.04
7251.11
7251.19
7251.27
7251.37
7251.48
7251.6
7251.73
7251.86
7252.02
7252.19
7252.37
7252.57
7252.77
7252.98
7253.19
7253.38
7253.56
7253.7
7253.8
7253.84
7253.83
7253.76
7253.64
7253.47
7253.27
7253.05
7252.82
7252.59
7252.36
7252.15
7251.95
7251.77
7251.61
7251.46
7251.32
7251.2
7251.09
7250.99
7250.9
7250.83
7250.76
7250.69
7250.64
7250.59
7250.55
7250.51
7250.48
7250.45
7250.42
7250.4
7250.38
7250.36
7250.34
7250.33
7250.32
7250.31
7250.3
7250.3
7250.3
7250.29
7250.48
7250.49
7250.49
7250.5
7250.5
7250.51
7250.53
7250.54
7250.55
7250.57
7250.59
7250.62
7250.64
7250.67
7250.7
7250.74
7250.78
7250.83
7250.89
7250.95
7251.02
7251.1
7251.18
7251.25
7251.07
7250.84
7250.53
7250.14
7249.71
7249.26
7248.8
7248.33
7247.87
7247.41
7246.98
7246.59
7246.25
7245.98
7245.78
7245.68
7245.67
7245.75
7245.93
7246.19
7246.52
7246.9
7247.33
7247.78
7248.24
7248.71
7249.18
7249.63
7250.05
7250.38
7250.64
7250.84
7250.99
7250.89
7250.8
7250.72
7250.66
7250.6
7250.54
7250.5
7250.46
7250.43
7250.4
7250.37
7250.34
7250.32
7250.31
7250.29
7250.28
7250.27
7250.26
7250.25
7250.24
7250.24
7250.23
7250.23
5.14813
5.15397
5.14828
5.13004
5.10013
5.06155
5.01328
4.95441
4.88494
4.80467
4.71292
4.60867
4.49098
4.35901
4.21208
4.04973
3.87119
3.67638
3.46539
3.23943
3.00086
2.74589
2.47234
2.15599
2.07707
2.07077
2.15017
2.30865
2.51515
2.74287
2.99143
3.26011
3.54679
3.84478
4.14463
4.43447
4.69848
4.91819
5.07479
5.15237
5.14131
5.04032
4.8572
4.60768
4.31162
3.98921
3.65811
3.33135
3.0205
2.73216
2.46765
2.22812
2.03117
1.91861
1.88542
1.92515
2.02576
2.361
2.62288
2.85999
3.084
3.30099
3.50542
3.69619
3.87198
4.0343
4.18227
4.31378
4.43007
4.53131
4.61822
4.69505
4.76147
4.81708
4.8642
4.89947
4.92695
4.94471
4.95144
4.94591
0.682777
0.685034
0.689578
0.696425
0.705619
0.717233
0.731383
0.748233
0.767982
0.790847
0.817057
0.846863
0.880552
0.918477
0.961072
1.00887
1.06248
1.12261
1.19003
1.26559
1.35026
1.44515
1.55165
1.67133
1.80502
1.95441
2.12098
2.30613
2.51109
2.73672
2.98299
3.24967
3.53378
3.82996
4.13021
4.42216
4.68982
4.91417
5.07525
5.15569
5.14514
5.04192
4.85431
4.59971
4.29939
3.97435
3.64255
3.31804
3.00912
2.72331
2.46122
2.22374
2.01038
1.81959
1.64964
1.49855
1.36439
1.24521
1.14002
1.04712
0.965031
0.892432
0.828231
0.771464
0.721222
0.676746
0.63742
0.602685
0.572039
0.545069
0.521457
0.500935
0.483258
0.468207
0.455601
0.4453
0.437196
0.431195
0.427227
0.425245
0.67947
0.681684
0.686164
0.69292
0.70199
0.71345
0.727422
0.744069
0.76358
0.786161
0.812034
0.841443
0.874676
0.912088
0.954113
1.00127
1.05416
1.11346
1.17991
1.25438
1.33785
1.43146
1.53645
1.65414
1.78586
1.93321
2.09777
2.28114
2.48484
2.71023
2.9583
3.22819
3.51776
3.8231
4.13664
4.44628
4.73512
4.98181
5.1625
5.25531
5.24657
5.13338
4.92637
4.64793
4.32417
3.97932
3.6327
3.29812
2.98393
2.69328
2.42999
2.19319
1.98145
1.79295
1.62556
1.47703
1.34537
1.22866
1.12538
1.03409
0.953421
0.882061
0.818936
0.763117
0.713712
0.669958
0.631249
0.597049
0.566865
0.540305
0.517057
0.496844
0.479409
0.464547
0.452105
0.441961
0.433994
0.428093
0.424184
0.422235
0.67451
0.676692
0.681079
0.687687
0.69656
0.707776
0.721454
0.737744
0.756825
0.778889
0.804149
0.832845
0.865267
0.901761
0.942746
0.988712
1.04022
1.09791
1.16251
1.23487
1.31594
1.40686
1.50884
1.6232
1.75139
1.89503
2.05588
2.23582
2.43679
2.66071
2.90914
3.18302
3.48206
3.80351
4.14106
4.48322
4.81189
5.10168
5.32146
5.43978
5.43504
5.3011
5.05489
4.72973
4.36127
3.97948
3.60576
3.25323
2.92866
2.63517
2.37184
2.13724
1.9291
1.74497
1.58224
1.43844
1.31132
1.19878
1.09918
1.0111
0.933215
0.864268
0.803211
0.749177
0.701339
0.658945
0.621387
0.588156
0.558802
0.532958
0.510323
0.490627
0.473627
0.459137
0.447015
0.437137
0.42937
0.4236
0.419766
0.417852
0.667147
0.669261
0.673505
0.6799
0.68849
0.699353
0.712597
0.72836
0.746803
0.768104
0.79247
0.82014
0.851395
0.886568
0.926046
0.970275
1.01977
1.07514
1.13707
1.2064
1.28407
1.37115
1.46882
1.57842
1.70144
1.8396
1.99484
2.1694
2.36578
2.58675
2.83509
3.11321
3.42398
3.76686
4.13814
4.52815
4.91813
5.27745
5.56334
5.72705
5.73113
5.56037
5.24621
4.84371
4.40494
3.96795
3.55586
3.17976
2.84269
2.54626
2.28447
2.05435
1.85243
1.6753
1.51974
1.38291
1.26224
1.15558
1.0612
0.977715
0.903818
0.838341
0.780288
0.728803
0.683133
0.642623
0.606719
0.574935
0.54684
0.522077
0.500359
0.481435
0.465088
0.451148
0.439483
0.429964
0.422465
0.416888
0.413182
0.411343
0.657427
0.659447
0.663508
0.669631
0.677861
0.688268
0.700948
0.716021
0.73363
0.753943
0.777159
0.80351
0.833264
0.866726
0.904238
0.946198
0.993075
1.04543
1.10394
1.16937
1.24263
1.32471
1.41676
1.52006
1.63613
1.76677
1.91409
2.0807
2.26971
2.48489
2.73047
3.01066
3.33307
3.69991
4.11249
4.5656
5.04231
5.5071
5.90055
6.14366
6.16838
5.93202
5.50294
4.97878
4.43768
3.92655
3.46713
3.06549
2.72006
2.4208
2.16382
1.94218
1.75032
1.58361
1.43814
1.3107
1.19858
1.09962
1.01201
0.934451
0.86565
0.804556
0.750328
0.702179
0.659397
0.621387
0.587643
0.557708
0.53119
0.507784
0.487242
0.469337
0.453859
0.440644
0.429566
0.420508
0.413361
0.408049
0.404524
0.402779
0.645467
0.647374
0.651216
0.657014
0.664808
0.674661
0.686653
0.700886
0.717486
0.736609
0.758443
0.783208
0.811146
0.842523
0.877634
0.916826
0.960525
1.00925
1.06362
1.12434
1.19223
1.26818
1.35326
1.44868
1.55591
1.67675
1.81344
1.96886
2.14676
2.35186
2.59024
2.86958
3.19625
3.58422
4.04062
4.5692
5.16094
5.78016
6.34726
6.73163
6.80849
6.44719
5.82124
5.11019
4.42842
3.82674
3.31709
2.89306
2.54333
2.25108
2.00606
1.79885
1.62199
1.46976
1.33775
1.2225
1.12118
1.0317
0.952325
0.881926
0.819381
0.763688
0.714097
0.669942
0.630606
0.595574
0.564409
0.536706
0.512114
0.490367
0.471251
0.454559
0.440104
0.427744
0.417373
0.40889
0.402195
0.39722
0.393921
0.392284
0.631387
0.633165
0.636756
0.642177
0.649465
0.658671
0.66986
0.683118
0.698553
0.716308
0.736555
0.759489
0.785318
0.814262
0.846571
0.882549
0.922575
0.967113
1.01671
1.07197
1.13358
1.20233
1.27914
1.36509
1.46154
1.57018
1.6932
1.83359
1.99539
2.18412
2.40715
2.67398
2.99527
3.39492
3.88777
4.49481
5.22732
6.06487
6.91515
7.5733
7.7887
7.15381
6.17526
5.18283
4.32219
3.6251
3.07575
2.64613
2.30504
2.03135
1.80818
1.62319
1.46744
1.33449
1.21963
1.11941
1.03114
0.952957
0.883337
0.821248
0.765859
0.716356
0.672094
0.632542
0.597197
0.565614
0.537417
0.512277
0.489906
0.47008
0.452606
0.437302
0.424014
0.412633
0.40308
0.395269
0.389105
0.38452
0.381476
0.379961
0.615331
0.616968
0.620276
0.625271
0.631984
0.640456
0.650741
0.662906
0.677045
0.69328
0.711758
0.73264
0.756093
0.782295
0.811456
0.843839
0.879772
0.919647
0.963904
1.01303
1.06756
1.12812
1.19547
1.27049
1.35428
1.44826
1.55441
1.67548
1.81538
1.97977
2.17683
2.41833
2.72171
3.10358
3.60654
4.2728
5.1545
6.28573
7.61501
8.89037
9.5884
8.18338
6.4926
5.08327
4.02669
3.25948
2.70524
2.29945
1.99297
1.75645
1.56876
1.41575
1.2881
1.17953
1.08559
1.00319
0.930077
0.864738
0.806152
0.75344
0.706027
0.663405
0.625079
0.590639
0.559714
0.531954
0.507054
0.484756
0.464847
0.447152
0.431508
0.417761
0.405789
0.395518
0.386887
0.379823
0.374242
0.370081
0.367313
0.365935
0.597462
0.598946
0.601941
0.606462
0.612537
0.620199
0.629492
0.640467
0.6532
0.667785
0.684335
0.702971
0.72382
0.747023
0.772755
0.801239
0.83274
0.867554
0.905998
0.948413
0.995183
1.04675
1.10364
1.16644
1.23589
1.31296
1.39911
1.49645
1.6082
1.73919
1.89694
2.09297
2.34509
2.67963
3.13901
3.80276
4.79675
6.31465
8.55495
11.573
14.0043
10.3655
6.72777
4.60726
3.40254
2.65382
2.17112
1.83749
1.60092
1.42575
1.28967
1.17942
1.08713
1.00787
0.938283
0.876131
0.819999
0.768831
0.722237
0.679746
0.641007
0.605804
0.573873
0.544939
0.518758
0.495104
0.473757
0.454532
0.437282
0.421884
0.408217
0.396166
0.38564
0.376589
0.368967
0.362713
0.357759
0.354054
0.351586
0.35036
0.577951
0.579272
0.581926
0.585931
0.591312
0.5981
0.606329
0.616037
0.627272
0.640098
0.654587
0.670817
0.68888
0.708889
0.730987
0.755346
0.782153
0.811593
0.843852
0.879129
0.917643
0.959629
1.00532
1.05493
1.10871
1.16704
1.23054
1.30027
1.37799
1.46669
1.57124
1.69993
1.86717
2.09825
2.43566
2.96364
3.94766
6.17103
11.0675
19.1626
27.6871
18.2226
7.59745
3.48443
2.28679
1.75532
1.44486
1.25528
1.13291
1.04594
0.97779
0.920449
0.869907
0.823974
0.781413
0.7413
0.703366
0.667324
0.63336
0.601602
0.572016
0.544606
0.519358
0.496188
0.474988
0.455645
0.438042
0.422063
0.407623
0.394651
0.383073
0.372814
0.36382
0.356061
0.349508
0.344113
0.339824
0.336611
0.334469
0.333407
0.556977
0.558124
0.560414
0.563867
0.56851
0.574376
0.581487
0.589865
0.59953
0.610507
0.622826
0.636531
0.651684
0.668373
0.686704
0.706786
0.728714
0.752562
0.778393
0.806271
0.836246
0.868316
0.902384
0.938239
0.975574
1.01402
1.05318
1.09265
1.13212
1.17149
1.21096
1.25177
1.29859
1.36402
1.4735
1.70014
2.43547
6.38564
20.9838
41.879
67.6168
40.7197
10.6484
1.5619
0.594106
0.518535
0.536811
0.573145
0.60909
0.633929
0.646506
0.649098
0.64426
0.633882
0.619579
0.602309
0.583035
0.56253
0.541495
0.520623
0.500332
0.480873
0.462443
0.445163
0.429069
0.414157
0.400404
0.387776
0.376247
0.365796
0.35639
0.347995
0.34059
0.334171
0.328726
0.324225
0.320635
0.317941
0.316146
0.315261
0.534722
0.535687
0.537593
0.540469
0.544346
0.549255
0.555211
0.562212
0.570249
0.579307
0.589381
0.600487
0.612664
0.625972
0.64047
0.656192
0.67314
0.691286
0.710592
0.730996
0.752375
0.774472
0.796852
0.818867
0.839642
0.858021
0.872484
0.881007
0.880814
0.867897
0.836163
0.776613
0.677507
0.525204
0.297377
-0.0118782
0.209864
9.71238
58.7544
85.8638
144.744
159.56
27.3671
-1.41838
-1.66448
-0.965263
-0.470851
-0.147618
0.0716188
0.218408
0.315452
0.379085
0.419899
0.444688
0.458084
0.463173
0.462134
0.456818
0.448535
0.438396
0.427254
0.415671
0.404041
0.392653
0.381682
0.371227
0.361352
0.352105
0.343525
0.335639
0.328455
0.321971
0.316197
0.311151
0.306842
0.303262
0.300397
0.298242
0.296809
0.296103
0.511367
0.512143
0.513656
0.515943
0.51904
0.522975
0.52775
0.533342
0.539708
0.546802
0.554593
0.563074
0.572264
0.582186
0.592842
0.604187
0.616141
0.628598
0.641433
0.654471
0.667408
0.679745
0.690736
0.69935
0.704198
0.703404
0.694415
0.673699
0.636147
0.573989
0.474938
0.319167
0.0759036
-0.30279
-0.91004
-1.88267
-2.75601
19.1633
209.759
567.847
977.805
519.336
34.5394
-4.66189
-3.75423
-2.32087
-1.37963
-0.798492
-0.417756
-0.163794
0.00777705
0.125677
0.207295
0.263754
0.302292
0.327825
0.343699
0.352554
0.356315
0.356447
0.354105
0.350131
0.345115
0.339484
0.333537
0.327471
0.32143
0.315534
0.309885
0.304556
0.299594
0.295028
0.290895
0.287236
0.284081
0.281439
0.279314
0.277711
0.276643
0.276118
0.487095
0.487678
0.488797
0.490497
0.492816
0.495774
0.499357
0.503519
0.50819
0.513304
0.518809
0.524685
0.530924
0.537503
0.544358
0.551376
0.558414
0.565311
0.571873
0.577806
0.582643
0.58568
0.585933
0.582082
0.572343
0.554294
0.524629
0.478753
0.409976
0.308124
0.15716
-0.0689369
-0.41102
-0.93402
-1.76636
-3.04269
-4.52362
8.86551
313.344
2002.71
2633.75
619.779
27.6816
-6.63772
-4.47749
-3.05671
-1.97629
-1.27121
-0.800049
-0.478258
-0.255225
-0.0973879
0.0157624
0.097598
0.156965
0.199862
0.230493
0.251959
0.266613
0.276208
0.282085
0.285275
0.286526
0.286386
0.285258
0.283429
0.281117
0.278498
0.275723
0.272909
0.270133
0.26746
0.264951
0.262672
0.260669
0.258969
0.257586
0.256537
0.255834
0.255486
0.46209
0.46248
0.463214
0.464342
0.465897
0.467886
0.470278
0.473005
0.475981
0.479127
0.482384
0.485713
0.489072
0.492385
0.495526
0.498333
0.500624
0.502199
0.502793
0.502003
0.499229
0.493632
0.484093
0.469115
0.446677
0.414067
0.367648
0.302441
0.211338
0.0838293
-0.0961903
-0.354057
-0.727412
-1.27362
-2.08841
-3.16926
-4.19984
8.41547
267.492
2949.4
2959.9
366.409
17.0811
-5.58818
-4.20197
-3.14317
-2.20908
-1.52574
-1.04661
-0.705496
-0.460336
-0.281039
-0.14825
-0.0490173
0.0256674
0.0820853
0.124712
0.15681
0.1809
0.19888
0.212191
0.22195
0.229007
0.234001
0.237413
0.239607
0.240859
0.241394
0.241399
0.241023
0.240375
0.239546
0.238626
0.2377
0.236832
0.236061
0.235412
0.234908
0.234563
0.234388
0.436538
0.43674
0.437106
0.437686
0.438501
0.43954
0.440754
0.442059
0.443365
0.444589
0.445667
0.446536
0.447113
0.447267
0.446827
0.445602
0.443391
0.439956
0.43496
0.427912
0.418129
0.404722
0.386529
0.361993
0.329036
0.284948
0.226228
0.148234
0.0446241
-0.0934867
-0.279007
-0.530983
-0.874603
-1.34315
-1.9757
-2.66396
-3.0101
1.13565
154.401
3066.79
3071.33
177.391
1.7222
-4.15669
-3.46717
-2.81174
-2.14192
-1.58503
-1.16292
-0.844749
-0.604925
-0.422343
-0.282153
-0.173856
-0.0896803
-0.0238436
0.0278146
0.068384
0.100306
0.125458
0.145288
0.160921
0.173244
0.182952
0.190576
0.196527
0.201126
0.204635
0.207277
0.209225
0.210613
0.211559
0.212174
0.21256
0.212792
0.212924
0.212987
0.213009
0.21301
0.213002
0.410627
0.410648
0.410671
0.410733
0.410839
0.410956
0.411017
0.410935
0.410621
0.409999
0.408993
0.407511
0.405423
0.402553
0.398707
0.393683
0.387267
0.379176
0.36901
0.356217
0.340103
0.319796
0.29416
0.261678
0.220389
0.167865
0.101144
0.0165069
-0.0907846
-0.226792
-0.399493
-0.619167
-0.895756
-1.23631
-1.60398
-1.74851
-1.44061
-1.57285
64.2069
3191.14
3188.27
83.5099
-2.29934
-2.45984
-2.39352
-2.23417
-1.8984
-1.51055
-1.17931
-0.91061
-0.695875
-0.524329
-0.387081
-0.277097
-0.188706
-0.117333
-0.0595145
-0.0125991
0.0255493
0.0566319
0.0820102
0.102761
0.119763
0.133724
0.145196
0.154608
0.162308
0.168588
0.173694
0.177825
0.181136
0.183766
0.185844
0.187482
0.188767
0.18976
0.190501
0.191024
0.191354
0.191507
0.384549
0.3844
0.384105
0.383682
0.383113
0.382342
0.381291
0.379877
0.378023
0.375653
0.372677
0.368967
0.364349
0.358621
0.351581
0.34303
0.332729
0.320349
0.30544
0.287445
0.265705
0.239409
0.207488
0.168549
0.120895
0.062588
-0.00854906
-0.0949882
-0.199514
-0.325138
-0.474955
-0.651334
-0.852064
-1.06271
-1.20341
-0.872003
0.366267
0.43548
42.6167
3306.32
3299.1
61.8287
-0.9653
-0.943392
-1.37629
-1.71686
-1.61524
-1.37397
-1.13608
-0.925777
-0.745961
-0.59414
-0.466942
-0.360837
-0.272434
-0.198758
-0.137293
-0.0859722
-0.0430954
-0.0072459
0.0227601
0.0478982
0.0689913
0.086726
0.101651
0.114199
0.12473
0.133556
0.140942
0.147103
0.15221
0.156418
0.15987
0.162687
0.164962
0.166762
0.16814
0.169133
0.169773
0.170078
0.358493
0.358187
0.357601
0.356725
0.355515
0.353897
0.351791
0.349122
0.345826
0.341826
0.337007
0.331203
0.324208
0.315814
0.305824
0.294033
0.280172
0.263864
0.244645
0.221991
0.195307
0.16385
0.126643
0.0824901
0.0300695
-0.0319771
-0.104975
-0.190121
-0.288348
-0.400091
-0.524798
-0.65985
-0.796521
-0.913399
-0.899093
-0.351149
0.313405
0.652756
107.256
3406.9
3398.96
114.308
-0.419878
-0.633696
-0.755337
-1.3061
-1.36002
-1.22721
-1.06838
-0.91296
-0.769565
-0.64082
-0.527335
-0.428469
-0.342927
-0.269289
-0.206087
-0.151926
-0.105587
-0.0659941
-0.0321962
-0.00335698
0.0212622
0.0422964
0.0602693
0.0756098
0.0886849
0.0998188
0.109287
0.117311
0.124074
0.129742
0.134466
0.138374
0.141564
0.144113
0.146079
0.147508
0.148437
0.148887
0.332646
0.332199
0.331343
0.330043
0.328228
0.325813
0.32272
0.318891
0.314268
0.308764
0.302236
0.294485
0.28529
0.274447
0.261766
0.247023
0.229911
0.210029
0.18693
0.160146
0.129136
0.0932085
0.0515033
0.00307971
-0.0529704
-0.117436
-0.190857
-0.273324
-0.364321
-0.462487
-0.565198
-0.667963
-0.761345
-0.828618
-0.745195
-0.223167
-0.164443
0.152228
239.496
3496.78
3493.06
225.042
-0.548516
-0.701281
-0.499039
-1.07426
-1.16785
-1.10127
-1.00062
-0.890375
-0.779697
-0.673392
-0.574361
-0.484017
-0.402799
-0.330578
-0.266872
-0.210979
-0.162153
-0.119658
-0.0827875
-0.0508609
-0.023239
0.000645924
0.0212796
0.0390791
0.0544152
0.0676172
0.0789617
0.0886728
0.0969402
0.103937
0.10982
0.114723
0.118749
0.121981
0.124486
0.126317
0.127513
0.128099
0.307191
0.306615
0.305509
0.303809
0.301425
0.298268
0.294271
0.289387
0.283561
0.276686
0.268588
0.25905
0.247851
0.234796
0.219688
0.202273
0.182207
0.159096
0.132537
0.102108
0.0672937
0.0274397
-0.018177
-0.0702304
-0.129258
-0.195564
-0.269014
-0.348838
-0.433534
-0.520703
-0.606894
-0.687607
-0.755719
-0.801973
-0.716572
-0.330082
-0.534466
-0.366725
342.922
3583.73
3583.31
313.213
-0.633032
-0.70272
-0.487742
-0.938387
-1.03721
-1.00601
-0.945559
-0.870184
-0.786503
-0.699641
-0.613672
-0.531461
-0.454749
-0.384421
-0.3208
-0.263813
-0.21315
-0.168382
-0.129025
-0.0945427
-0.0643936
-0.0380775
-0.0151489
0.00479378
0.0221184
0.0371508
0.0501628
0.0613769
0.0709874
0.0791738
0.0860977
0.0918948
0.0966742
0.100524
0.103518
0.105715
0.107156
0.107868
0.282295
0.281604
0.280262
0.278184
0.27527
0.271435
0.266623
0.260797
0.253892
0.245777
0.236256
0.225105
0.212115
0.197095
0.179824
0.160007
0.137287
0.111296
0.0816783
0.0480284
0.00982259
-0.0335472
-0.0826588
-0.137972
-0.199772
-0.267992
-0.341959
-0.420283
-0.500846
-0.580672
-0.655973
-0.722369
-0.774268
-0.806391
-0.718191
-0.444901
-0.709544
-0.637691
554.51
3671.56
3667.01
538.535
-0.485881
-0.733613
-0.498336
-0.828306
-0.939649
-0.936737
-0.907783
-0.859696
-0.797178
-0.725583
-0.649937
-0.574243
-0.501195
-0.432459
-0.368971
-0.31114
-0.259007
-0.212397
-0.170997
-0.134392
-0.102127
-0.0737578
-0.0488739
-0.027088
-0.00804052
0.00858468
0.0230507
0.0355784
0.0463666
0.0556001
0.0634433
0.0700337
0.0754836
0.0798861
0.0833192
0.0858446
0.0875069
0.0883328
0.25811
0.257315
0.25575
0.253317
0.249914
0.245469
0.239939
0.233285
0.225423
0.2162
0.205408
0.192831
0.178273
0.161535
0.142357
0.120413
0.0953501
0.0668414
0.0345508
-0.00195367
-0.0432139
-0.0897777
-0.142101
-0.200535
-0.265254
-0.335955
-0.411603
-0.49045
-0.570001
-0.646795
-0.716461
-0.773682
-0.811242
-0.820671
-0.712884