/*--------------------------------*- C++ -*----------------------------------*\
| =========                 |                                                 |
| \\      /  F ield         | OpenFOAM: The Open Source CFD Toolbox           |
|  \\    /   O peration     | Version:  2412                                  |
|   \\  /    A nd           | Website:  www.openfoam.com                      |
|    \\/     M anipulation  |                                                 |
\*---------------------------------------------------------------------------*/
FoamFile
{
    version     2.0;
    format      ascii;
    arch        "LSB;label=32;scalar=64";
    class       volVectorField;
    location    "5.05";
    object      U;
}
// * * * * * * * * * * * * * * * * * * * * * * * * * * * * * * * * * * * * * //

dimensions      [0 1 -1 0 0 0 0];

internalField   nonuniform List<vector> 
6400
(
(1.02322e-11 -2.04263e-11 0)
(-7.16761e-11 -1.32638e-11 0)
(-2.97547e-10 -4.28341e-11 0)
(-5.70508e-10 -1.48848e-11 0)
(-9.10141e-10 -3.23482e-12 0)
(-1.31408e-09 8.13628e-12 0)
(-1.76853e-09 1.98324e-11 0)
(-2.25591e-09 2.05002e-11 0)
(-2.75661e-09 2.30428e-11 0)
(-3.26101e-09 2.11932e-11 0)
(-3.75929e-09 2.15908e-11 0)
(-4.24201e-09 1.62573e-11 0)
(-4.70047e-09 1.33889e-11 0)
(-5.12941e-09 6.9302e-12 0)
(-5.52596e-09 2.85972e-12 0)
(-5.88899e-09 -2.99293e-12 0)
(-6.22098e-09 -5.55176e-12 0)
(-6.52505e-09 -8.03046e-12 0)
(-6.80587e-09 -7.79629e-12 0)
(-7.06514e-09 -7.89466e-12 0)
(-7.30402e-09 -7.03432e-12 0)
(-7.52077e-09 -6.78157e-12 0)
(-7.71428e-09 -6.10806e-12 0)
(-7.88174e-09 -5.77885e-12 0)
(-8.0211e-09 -5.27519e-12 0)
(-8.12865e-09 -5.10332e-12 0)
(-8.20072e-09 -5.35303e-12 0)
(-8.23168e-09 -6.49575e-12 0)
(-8.21569e-09 -8.77449e-12 0)
(-8.14553e-09 -1.23993e-11 0)
(-8.01437e-09 -1.75366e-11 0)
(-7.81501e-09 -2.4148e-11 0)
(-7.54152e-09 -3.2209e-11 0)
(-7.18859e-09 -4.14782e-11 0)
(-6.75293e-09 -5.17711e-11 0)
(-6.23262e-09 -6.27332e-11 0)
(-5.62825e-09 -7.40377e-11 0)
(-4.9422e-09 -8.52612e-11 0)
(-4.17957e-09 -9.59955e-11 0)
(-3.34721e-09 -1.05858e-10 0)
(-2.45443e-09 -1.1446e-10 0)
(-1.51184e-09 -1.21544e-10 0)
(-5.31862e-10 -1.26793e-10 0)
(4.72479e-10 -1.30107e-10 0)
(1.48706e-09 -1.31259e-10 0)
(2.49796e-09 -1.30314e-10 0)
(3.49087e-09 -1.27133e-10 0)
(4.45247e-09 -1.2194e-10 0)
(5.36962e-09 -1.14684e-10 0)
(6.2308e-09 -1.05709e-10 0)
(7.02501e-09 -9.49874e-11 0)
(7.74311e-09 -8.28929e-11 0)
(8.37659e-09 -6.94042e-11 0)
(8.91899e-09 -5.49098e-11 0)
(9.36448e-09 -3.94743e-11 0)
(9.70949e-09 -2.34237e-11 0)
(9.95084e-09 -6.9339e-12 0)
(1.00876e-08 9.93061e-12 0)
(1.0119e-08 2.66488e-11 0)
(1.00468e-08 4.3568e-11 0)
(9.87275e-09 5.93666e-11 0)
(9.60171e-09 7.5388e-11 0)
(9.23783e-09 8.90296e-11 0)
(8.78897e-09 1.03436e-10 0)
(8.26183e-09 1.13552e-10 0)
(7.66795e-09 1.25274e-10 0)
(7.01714e-09 1.3003e-10 0)
(6.32398e-09 1.38216e-10 0)
(5.60003e-09 1.36752e-10 0)
(4.86083e-09 1.41414e-10 0)
(4.11888e-09 1.33552e-10 0)
(3.3897e-09 1.34327e-10 0)
(2.68729e-09 1.20033e-10 0)
(2.02714e-09 1.15836e-10 0)
(1.42474e-09 9.57084e-11 0)
(8.94346e-10 8.46047e-11 0)
(4.54522e-10 5.67503e-11 0)
(1.31864e-10 3.011e-11 0)
(-3.42258e-11 -1.68523e-11 0)
(-4.2273e-11 -5.46507e-11 0)
(-6.8391e-11 -8.12491e-12 0)
(-3.45794e-10 1.3299e-10 0)
(-9.03934e-10 1.97141e-10 0)
(-1.63578e-09 3.85181e-10 0)
(-2.54379e-09 5.12849e-10 0)
(-3.605e-09 6.38464e-10 0)
(-4.7941e-09 7.26859e-10 0)
(-6.06894e-09 7.85157e-10 0)
(-7.39767e-09 8.08701e-10 0)
(-8.74721e-09 8.24321e-10 0)
(-1.00943e-08 8.12354e-10 0)
(-1.14132e-08 7.90288e-10 0)
(-1.26844e-08 7.48122e-10 0)
(-1.38939e-08 7.04507e-10 0)
(-1.50324e-08 6.50535e-10 0)
(-1.60972e-08 6.01932e-10 0)
(-1.70871e-08 5.53791e-10 0)
(-1.80074e-08 5.15634e-10 0)
(-1.88599e-08 4.79957e-10 0)
(-1.96494e-08 4.48559e-10 0)
(-2.03732e-08 4.14235e-10 0)
(-2.1031e-08 3.78159e-10 0)
(-2.16158e-08 3.36895e-10 0)
(-2.21231e-08 2.91058e-10 0)
(-2.2543e-08 2.38434e-10 0)
(-2.28668e-08 1.78271e-10 0)
(-2.30811e-08 1.08199e-10 0)
(-2.31728e-08 2.64787e-11 0)
(-2.31251e-08 -6.84953e-11 0)
(-2.29221e-08 -1.77575e-10 0)
(-2.25461e-08 -3.00616e-10 0)
(-2.19819e-08 -4.36777e-10 0)
(-2.12151e-08 -5.8403e-10 0)
(-2.02356e-08 -7.3985e-10 0)
(-1.90359e-08 -9.00778e-10 0)
(-1.76146e-08 -1.06306e-09 0)
(-1.59741e-08 -1.22237e-09 0)
(-1.41236e-08 -1.3743e-09 0)
(-1.20767e-08 -1.51442e-09 0)
(-9.85354e-09 -1.63858e-09 0)
(-7.47799e-09 -1.74319e-09 0)
(-4.97934e-09 -1.82508e-09 0)
(-2.38897e-09 -1.88207e-09 0)
(2.57965e-10 -1.91238e-09 0)
(2.92621e-09 -1.91542e-09 0)
(5.57858e-09 -1.89083e-09 0)
(8.17982e-09 -1.83959e-09 0)
(1.06944e-08 -1.76264e-09 0)
(1.30907e-08 -1.66221e-09 0)
(1.53377e-08 -1.5401e-09 0)
(1.74094e-08 -1.39915e-09 0)
(1.92811e-08 -1.24142e-09 0)
(2.09336e-08 -1.06994e-09 0)
(2.23489e-08 -8.86992e-10 0)
(2.3515e-08 -6.95639e-10 0)
(2.4421e-08 -4.9825e-10 0)
(2.5062e-08 -2.97302e-10 0)
(2.54333e-08 -9.53891e-11 0)
(2.55369e-08 1.05707e-10 0)
(2.53742e-08 3.01976e-10 0)
(2.49547e-08 4.92901e-10 0)
(2.42857e-08 6.72325e-10 0)
(2.33848e-08 8.42856e-10 0)
(2.2265e-08 9.94178e-10 0)
(2.09526e-08 1.13333e-09 0)
(1.94676e-08 1.24311e-09 0)
(1.78449e-08 1.33902e-09 0)
(1.611e-08 1.39604e-09 0)
(1.43034e-08 1.44194e-09 0)
(1.24541e-08 1.44097e-09 0)
(1.06039e-08 1.4337e-09 0)
(8.78491e-09 1.37262e-09 0)
(7.03717e-09 1.30937e-09 0)
(5.3965e-09 1.18806e-09 0)
(3.899e-09 1.06714e-09 0)
(2.58073e-09 8.89238e-10 0)
(1.47377e-09 6.98087e-10 0)
(6.30783e-10 4.29887e-10 0)
(1.18186e-10 1.22829e-10 0)
(-4.32522e-11 -1.15179e-10 0)
(-1.2223e-10 8.41138e-11 0)
(-5.90667e-10 4.01884e-10 0)
(-1.4115e-09 7.03573e-10 0)
(-2.5105e-09 1.12832e-09 0)
(-3.85546e-09 1.47682e-09 0)
(-5.42773e-09 1.77108e-09 0)
(-7.17677e-09 2.0113e-09 0)
(-9.06243e-09 2.1551e-09 0)
(-1.10301e-08 2.24958e-09 0)
(-1.30439e-08 2.28065e-09 0)
(-1.50623e-08 2.27615e-09 0)
(-1.70533e-08 2.21375e-09 0)
(-1.89867e-08 2.12959e-09 0)
(-2.08414e-08 2.01343e-09 0)
(-2.26056e-08 1.89399e-09 0)
(-2.42696e-08 1.7638e-09 0)
(-2.58328e-08 1.64553e-09 0)
(-2.72912e-08 1.53077e-09 0)
(-2.86491e-08 1.42842e-09 0)
(-2.99032e-08 1.32552e-09 0)
(-3.10556e-08 1.2224e-09 0)
(-3.20983e-08 1.1097e-09 0)
(-3.3027e-08 9.87391e-10 0)
(-3.38283e-08 8.49477e-10 0)
(-3.44916e-08 6.94082e-10 0)
(-3.49982e-08 5.1607e-10 0)
(-3.53313e-08 3.1173e-10 0)
(-3.54675e-08 7.66333e-11 0)
(-3.53855e-08 -1.92181e-10 0)
(-3.50596e-08 -4.95969e-10 0)
(-3.44681e-08 -8.34197e-10 0)
(-3.3588e-08 -1.20376e-09 0)
(-3.24023e-08 -1.59988e-09 0)
(-3.08962e-08 -2.0154e-09 0)
(-2.90631e-08 -2.44195e-09 0)
(-2.69007e-08 -2.86948e-09 0)
(-2.44168e-08 -3.28732e-09 0)
(-2.16247e-08 -3.68415e-09 0)
(-1.85478e-08 -4.04891e-09 0)
(-1.52152e-08 -4.37122e-09 0)
(-1.1665e-08 -4.64177e-09 0)
(-7.93888e-09 -4.85304e-09 0)
(-4.08562e-09 -4.99889e-09 0)
(-1.55055e-10 -5.07564e-09 0)
(3.79874e-09 -5.0809e-09 0)
(7.72364e-09 -5.01501e-09 0)
(1.15659e-08 -4.87926e-09 0)
(1.52766e-08 -4.67761e-09 0)
(1.88072e-08 -4.41421e-09 0)
(2.21162e-08 -4.09536e-09 0)
(2.51634e-08 -3.7266e-09 0)
(2.79166e-08 -3.31521e-09 0)
(3.03455e-08 -2.86732e-09 0)
(3.24283e-08 -2.39059e-09 0)
(3.41446e-08 -1.89144e-09 0)
(3.54834e-08 -1.37692e-09 0)
(3.64335e-08 -8.53341e-10 0)
(3.69938e-08 -3.26567e-10 0)
(3.71619e-08 1.95776e-10 0)
(3.69471e-08 7.08967e-10 0)
(3.63554e-08 1.20246e-09 0)
(3.54072e-08 1.67502e-09 0)
(3.41167e-08 2.11131e-09 0)
(3.25163e-08 2.51575e-09 0)
(3.06293e-08 2.86357e-09 0)
(2.8501e-08 3.16932e-09 0)
(2.6163e-08 3.39695e-09 0)
(2.36714e-08 3.57912e-09 0)
(2.10644e-08 3.66551e-09 0)
(1.84035e-08 3.71046e-09 0)
(1.57315e-08 3.64584e-09 0)
(1.31092e-08 3.54752e-09 0)
(1.05837e-08 3.33071e-09 0)
(8.21029e-09 3.08758e-09 0)
(6.03943e-09 2.72799e-09 0)
(4.11343e-09 2.34555e-09 0)
(2.482e-09 1.8385e-09 0)
(1.19841e-09 1.24535e-09 0)
(3.57748e-10 5.22998e-10 0)
(-1.43609e-11 -5.68512e-11 0)
(-1.43356e-10 3.14389e-10 0)
(-7.6668e-10 9.14701e-10 0)
(-1.82298e-09 1.53279e-09 0)
(-3.21466e-09 2.28106e-09 0)
(-4.91818e-09 2.8924e-09 0)
(-6.88941e-09 3.43574e-09 0)
(-9.08932e-09 3.84653e-09 0)
(-1.14555e-08 4.14282e-09 0)
(-1.39431e-08 4.30666e-09 0)
(-1.64936e-08 4.39756e-09 0)
(-1.9067e-08 4.38093e-09 0)
(-2.16185e-08 4.30137e-09 0)
(-2.41146e-08 4.14405e-09 0)
(-2.65283e-08 3.96033e-09 0)
(-2.88397e-08 3.73931e-09 0)
(-3.10398e-08 3.51888e-09 0)
(-3.31165e-08 3.2902e-09 0)
(-3.50683e-08 3.07606e-09 0)
(-3.68859e-08 2.86257e-09 0)
(-3.85706e-08 2.65515e-09 0)
(-4.01122e-08 2.43698e-09 0)
(-4.1508e-08 2.20681e-09 0)
(-4.27422e-08 1.95285e-09 0)
(-4.3804e-08 1.67173e-09 0)
(-4.46713e-08 1.35407e-09 0)
(-4.53255e-08 9.94075e-10 0)
(-4.57383e-08 5.83668e-10 0)
(-4.58853e-08 1.16988e-10 0)
(-4.5735e-08 -4.10278e-10 0)
(-4.52609e-08 -9.9952e-10 0)
(-4.44332e-08 -1.64829e-09 0)
(-4.32293e-08 -2.35099e-09 0)
(-4.16273e-08 -3.09774e-09 0)
(-3.9615e-08 -3.87598e-09 0)
(-3.71842e-08 -4.66968e-09 0)
(-3.43386e-08 -5.46109e-09 0)
(-3.10884e-08 -6.23051e-09 0)
(-2.74563e-08 -6.95785e-09 0)
(-2.34721e-08 -7.6232e-09 0)
(-1.91777e-08 -8.20795e-09 0)
(-1.46204e-08 -8.69581e-09 0)
(-9.85763e-09 -9.07292e-09 0)
(-4.94911e-09 -9.32925e-09 0)
(3.84115e-11 -9.45751e-09 0)
(5.03965e-09 -9.45497e-09 0)
(9.98594e-09 -9.32134e-09 0)
(1.48139e-08 -9.06099e-09 0)
(1.94597e-08 -8.67979e-09 0)
(2.38681e-08 -8.1875e-09 0)
(2.79851e-08 -7.59375e-09 0)
(3.17666e-08 -6.91108e-09 0)
(3.51708e-08 -6.15073e-09 0)
(3.81667e-08 -5.3263e-09 0)
(4.0725e-08 -4.44971e-09 0)
(4.2828e-08 -3.53429e-09 0)
(4.4458e-08 -2.59162e-09 0)
(4.56098e-08 -1.6333e-09 0)
(4.62761e-08 -6.7137e-10 0)
(4.6464e-08 2.83953e-10 0)
(4.61761e-08 1.21747e-09 0)
(4.54323e-08 2.122e-09 0)
(4.42445e-08 2.97723e-09 0)
(4.26467e-08 3.78226e-09 0)
(4.06603e-08 4.50643e-09 0)
(3.8335e-08 5.15916e-09 0)
(3.57017e-08 5.69503e-09 0)
(3.28251e-08 6.14413e-09 0)
(2.97449e-08 6.44351e-09 0)
(2.65365e-08 6.65319e-09 0)
(2.32459e-08 6.68794e-09 0)
(1.99512e-08 6.64116e-09 0)
(1.67034e-08 6.40267e-09 0)
(1.35756e-08 6.09501e-09 0)
(1.06249e-08 5.59142e-09 0)
(7.91136e-09 5.03389e-09 0)
(5.49076e-09 4.29494e-09 0)
(3.40896e-09 3.47686e-09 0)
(1.74347e-09 2.41559e-09 0)
(5.90432e-10 1.2197e-09 0)
(1.7044e-11 1.26123e-10 0)
(-1.54199e-10 6.39658e-10 0)
(-8.97276e-10 1.61764e-09 0)
(-2.14311e-09 2.63232e-09 0)
(-3.79454e-09 3.73071e-09 0)
(-5.79318e-09 4.68283e-09 0)
(-8.11149e-09 5.48034e-09 0)
(-1.06823e-08 6.1363e-09 0)
(-1.34636e-08 6.57967e-09 0)
(-1.63868e-08 6.87902e-09 0)
(-1.94033e-08 7.01028e-09 0)
(-2.24552e-08 7.03191e-09 0)
(-2.55025e-08 6.91018e-09 0)
(-2.85032e-08 6.71376e-09 0)
(-3.14248e-08 6.43251e-09 0)
(-3.42449e-08 6.12551e-09 0)
(-3.69425e-08 5.78162e-09 0)
(-3.95087e-08 5.4407e-09 0)
(-4.19263e-08 5.08902e-09 0)
(-4.41909e-08 4.74514e-09 0)
(-4.62861e-08 4.38934e-09 0)
(-4.82076e-08 4.02284e-09 0)
(-4.99364e-08 3.62631e-09 0)
(-5.1462e-08 3.19522e-09 0)
(-5.27587e-08 2.71445e-09 0)
(-5.38071e-08 2.17619e-09 0)
(-5.45749e-08 1.56776e-09 0)
(-5.50352e-08 8.80299e-10 0)
(-5.51517e-08 1.05304e-10 0)
(-5.48942e-08 -7.61802e-10 0)
(-5.42272e-08 -1.72114e-09 0)
(-5.31232e-08 -2.76821e-09 0)
(-5.1554e-08 -3.89233e-09 0)
(-4.95023e-08 -5.07837e-09 0)
(-4.69538e-08 -6.30547e-09 0)
(-4.39079e-08 -7.54942e-09 0)
(-4.037e-08 -8.78206e-09 0)
(-3.63608e-08 -9.9736e-09 0)
(-3.19086e-08 -1.10931e-08 0)
(-2.70567e-08 -1.21103e-08 0)
(-2.18554e-08 -1.29975e-08 0)
(-1.63681e-08 -1.37296e-08 0)
(-1.06619e-08 -1.42868e-08 0)
(-4.81395e-09 -1.46535e-08 0)
(1.09934e-09 -1.48207e-08 0)
(6.99602e-09 -1.47837e-08 0)
(1.27996e-08 -1.4545e-08 0)
(1.84322e-08 -1.41105e-08 0)
(2.38258e-08 -1.34925e-08 0)
(2.89136e-08 -1.27046e-08 0)
(3.36409e-08 -1.17647e-08 0)
(3.79554e-08 -1.06902e-08 0)
(4.18184e-08 -9.50168e-09 0)
(4.51925e-08 -8.21758e-09 0)
(4.80549e-08 -6.85881e-09 0)
(5.03826e-08 -5.44355e-09 0)
(5.2167e-08 -3.9906e-09 0)
(5.33971e-08 -2.51736e-09 0)
(5.40777e-08 -1.04028e-09 0)
(5.42085e-08 4.20903e-10 0)
(5.38079e-08 1.85229e-09 0)
(5.28847e-08 3.22901e-09 0)
(5.14722e-08 4.54323e-09 0)
(4.95879e-08 5.75998e-09 0)
(4.72819e-08 6.88159e-09 0)
(4.45807e-08 7.85589e-09 0)
(4.15521e-08 8.70551e-09 0)
(3.82312e-08 9.3568e-09 0)
(3.47016e-08 9.86693e-09 0)
(3.1006e-08 1.01361e-08 0)
(2.72363e-08 1.02667e-08 0)
(2.34405e-08 1.01274e-08 0)
(1.97085e-08 9.86479e-09 0)
(1.60953e-08 9.31771e-09 0)
(1.26797e-08 8.66862e-09 0)
(9.52125e-09 7.74813e-09 0)
(6.67751e-09 6.74244e-09 0)
(4.21788e-09 5.45232e-09 0)
(2.2095e-09 3.95585e-09 0)
(7.92409e-10 2.14296e-09 0)
(3.87413e-11 4.33629e-10 0)
(-1.62978e-10 1.01699e-09 0)
(-9.94504e-10 2.47778e-09 0)
(-2.41314e-09 3.92683e-09 0)
(-4.28162e-09 5.45575e-09 0)
(-6.55484e-09 6.75066e-09 0)
(-9.17089e-09 7.88165e-09 0)
(-1.20844e-08 8.76617e-09 0)
(-1.52249e-08 9.43685e-09 0)
(-1.85448e-08 9.84696e-09 0)
(-2.19719e-08 1.0088e-08 0)
(-2.54592e-08 1.01184e-08 0)
(-2.89546e-08 1.00123e-08 0)
(-3.24184e-08 9.74776e-09 0)
(-3.58135e-08 9.40838e-09 0)
(-3.91077e-08 8.98353e-09 0)
(-4.22812e-08 8.53455e-09 0)
(-4.53087e-08 8.04663e-09 0)
(-4.81794e-08 7.55563e-09 0)
(-5.08688e-08 7.04145e-09 0)
(-5.33679e-08 6.51567e-09 0)
(-5.56513e-08 5.9537e-09 0)
(-5.77067e-08 5.35214e-09 0)
(-5.95042e-08 4.68885e-09 0)
(-6.10236e-08 3.95454e-09 0)
(-6.22281e-08 3.13091e-09 0)
(-6.30889e-08 2.2063e-09 0)
(-6.35646e-08 1.16711e-09 0)
(-6.36215e-08 4.95659e-12 0)
(-6.32182e-08 -1.28445e-09 0)
(-6.23225e-08 -2.69939e-09 0)
(-6.08997e-08 -4.23056e-09 0)
(-5.89271e-08 -5.8623e-09 0)
(-5.6384e-08 -7.57083e-09 0)
(-5.32648e-08 -9.32699e-09 0)
(-4.95694e-08 -1.10951e-08 0)
(-4.53153e-08 -1.28361e-08 0)
(-4.05277e-08 -1.45076e-08 0)
(-3.525e-08 -1.60668e-08 0)
(-2.95334e-08 -1.74718e-08 0)
(-2.34456e-08 -1.86841e-08 0)
(-1.70599e-08 -1.96703e-08 0)
(-1.04624e-08 -2.0403e-08 0)
(-3.74017e-09 -2.08628e-08 0)
(3.01187e-09 -2.10374e-08 0)
(9.70393e-09 -2.09242e-08 0)
(1.62437e-08 -2.05268e-08 0)
(2.25498e-08 -1.9858e-08 0)
(2.85421e-08 -1.89345e-08 0)
(3.41552e-08 -1.77797e-08 0)
(3.93265e-08 -1.64176e-08 0)
(4.40097e-08 -1.48765e-08 0)
(4.81611e-08 -1.31829e-08 0)
(5.17534e-08 -1.13664e-08 0)
(5.476e-08 -9.45309e-09 0)
(5.71707e-08 -7.47052e-09 0)
(5.89727e-08 -5.44277e-09 0)
(6.01704e-08 -3.39348e-09 0)
(6.07619e-08 -1.347e-09 0)
(6.07655e-08 6.76044e-10 0)
(6.0188e-08 2.64685e-09 0)
(5.90617e-08 4.55026e-09 0)
(5.74008e-08 6.34831e-09 0)
(5.52539e-08 8.03554e-09 0)
(5.2642e-08 9.55619e-09 0)
(4.96326e-08 1.09232e-08 0)
(4.62532e-08 1.20557e-08 0)
(4.25905e-08 1.30016e-08 0)
(3.86786e-08 1.36488e-08 0)
(3.46185e-08 1.40985e-08 0)
(3.04499e-08 1.42018e-08 0)
(2.62781e-08 1.41206e-08 0)
(2.2149e-08 1.36641e-08 0)
(1.81605e-08 1.30483e-08 0)
(1.43671e-08 1.20563e-08 0)
(1.08456e-08 1.09413e-08 0)
(7.65857e-09 9.47221e-09 0)
(4.87222e-09 7.82735e-09 0)
(2.59002e-09 5.72332e-09 0)
(9.44809e-10 3.30685e-09 0)
(5.96982e-11 8.23941e-10 0)
(-1.67368e-10 1.44094e-09 0)
(-1.07994e-09 3.45691e-09 0)
(-2.64639e-09 5.42686e-09 0)
(-4.73153e-09 7.39589e-09 0)
(-7.25058e-09 9.12136e-09 0)
(-1.01635e-08 1.05637e-08 0)
(-1.3387e-08 1.17637e-08 0)
(-1.68759e-08 1.26261e-08 0)
(-2.05549e-08 1.32319e-08 0)
(-2.43707e-08 1.35419e-08 0)
(-2.82565e-08 1.36549e-08 0)
(-3.21695e-08 1.3527e-08 0)
(-3.60637e-08 1.32552e-08 0)
(-3.9899e-08 1.28231e-08 0)
(-4.36432e-08 1.23196e-08 0)
(-4.72617e-08 1.17298e-08 0)
(-5.07352e-08 1.11109e-08 0)
(-5.40317e-08 1.04423e-08 0)
(-5.71366e-08 9.75154e-09 0)
(-6.00169e-08 9.01156e-09 0)
(-6.26562e-08 8.22598e-09 0)
(-6.50184e-08 7.3663e-09 0)
(-6.70815e-08 6.42346e-09 0)
(-6.88034e-08 5.37248e-09 0)
(-7.01535e-08 4.19951e-09 0)
(-7.10843e-08 2.88495e-09 0)
(-7.15588e-08 1.4165e-09 0)
(-7.15284e-08 -2.1565e-10 0)
(-7.09559e-08 -2.01382e-09 0)
(-6.97985e-08 -3.97215e-09 0)
(-6.80275e-08 -6.07651e-09 0)
(-6.5614e-08 -8.30244e-09 0)
(-6.25462e-08 -1.06178e-08 0)
(-5.88172e-08 -1.29811e-08 0)
(-5.44393e-08 -1.53451e-08 0)
(-4.94332e-08 -1.76565e-08 0)
(-4.38401e-08 -1.98595e-08 0)
(-3.77106e-08 -2.18974e-08 0)
(-3.11149e-08 -2.37156e-08 0)
(-2.41309e-08 -2.52641e-08 0)
(-1.68532e-08 -2.64997e-08 0)
(-9.37906e-09 -2.73886e-08 0)
(-1.81699e-09 -2.79064e-08 0)
(5.72859e-09 -2.80415e-08 0)
(1.31491e-08 -2.77917e-08 0)
(2.03472e-08 -2.71676e-08 0)
(2.72275e-08 -2.61874e-08 0)
(3.37111e-08 -2.48792e-08 0)
(3.97239e-08 -2.32738e-08 0)
(4.52108e-08 -2.14086e-08 0)
(5.01211e-08 -1.93194e-08 0)
(5.44237e-08 -1.7046e-08 0)
(5.80892e-08 -1.46244e-08 0)
(6.11073e-08 -1.20924e-08 0)
(6.34655e-08 -9.48272e-09 0)
(6.51702e-08 -6.82773e-09 0)
(6.62204e-08 -4.15737e-09 0)
(6.66367e-08 -1.49916e-09 0)
(6.64263e-08 1.11481e-09 0)
(6.56227e-08 3.66234e-09 0)
(6.42384e-08 6.10379e-09 0)
(6.23215e-08 8.42607e-09 0)
(5.98882e-08 1.05728e-08 0)
(5.70046e-08 1.25472e-08 0)
(5.369e-08 1.42655e-08 0)
(5.00313e-08 1.57631e-08 0)
(4.60512e-08 1.692e-08 0)
(4.18559e-08 1.78273e-08 0)
(3.74713e-08 1.83218e-08 0)
(3.3015e-08 1.85686e-08 0)
(2.85184e-08 1.83532e-08 0)
(2.40982e-08 1.79161e-08 0)
(1.97949e-08 1.69948e-08 0)
(1.57095e-08 1.58937e-08 0)
(1.18945e-08 1.43333e-08 0)
(8.42616e-09 1.26095e-08 0)
(5.38656e-09 1.03811e-08 0)
(2.87179e-09 7.78645e-09 0)
(1.06314e-09 4.58842e-09 0)
(7.05148e-11 1.29944e-09 0)
(-1.74635e-10 1.90104e-09 0)
(-1.15865e-09 4.57007e-09 0)
(-2.88124e-09 7.0928e-09 0)
(-5.16994e-09 9.5957e-09 0)
(-7.9548e-09 1.17366e-08 0)
(-1.11521e-08 1.35854e-08 0)
(-1.47012e-08 1.50546e-08 0)
(-1.85188e-08 1.62019e-08 0)
(-2.25567e-08 1.69496e-08 0)
(-2.67369e-08 1.74164e-08 0)
(-3.10078e-08 1.75577e-08 0)
(-3.53127e-08 1.74841e-08 0)
(-3.9611e-08 1.71598e-08 0)
(-4.38625e-08 1.66949e-08 0)
(-4.80256e-08 1.60727e-08 0)
(-5.20716e-08 1.53778e-08 0)
(-5.59609e-08 1.45886e-08 0)
(-5.96727e-08 1.37536e-08 0)
(-6.31666e-08 1.28442e-08 0)
(-6.64219e-08 1.1877e-08 0)
(-6.93951e-08 1.08188e-08 0)
(-7.2061e-08 9.66497e-09 0)
(-7.43715e-08 8.38356e-09 0)
(-7.62932e-08 6.95979e-09 0)
(-7.77724e-08 5.3671e-09 0)
(-7.8768e-08 3.58952e-09 0)
(-7.92237e-08 1.61044e-09 0)
(-7.90958e-08 -5.77431e-10 0)
(-7.83323e-08 -2.97366e-09 0)
(-7.68962e-08 -5.56764e-09 0)
(-7.47487e-08 -8.33664e-09 0)
(-7.18691e-08 -1.12478e-08 0)
(-6.82411e-08 -1.42558e-08 0)
(-6.38694e-08 -1.73072e-08 0)
(-5.87675e-08 -2.03389e-08 0)
(-5.29718e-08 -2.32828e-08 0)
(-4.65295e-08 -2.60667e-08 0)
(-3.95109e-08 -2.86188e-08 0)
(-3.19964e-08 -3.08698e-08 0)
(-2.40873e-08 -3.27571e-08 0)
(-1.58906e-08 -3.42277e-08 0)
(-7.52872e-09 -3.52402e-08 0)
(8.77631e-10 -3.57684e-08 0)
(9.20076e-09 -3.57996e-08 0)
(1.7324e-08 -3.53385e-08 0)
(2.51318e-08 -3.44015e-08 0)
(3.2528e-08 -3.30198e-08 0)
(3.94223e-08 -3.12312e-08 0)
(4.57479e-08 -2.90828e-08 0)
(5.14444e-08 -2.66216e-08 0)
(5.64754e-08 -2.38999e-08 0)
(6.08083e-08 -2.09657e-08 0)
(6.44331e-08 -1.78694e-08 0)
(6.7339e-08 -1.46549e-08 0)
(6.95361e-08 -1.13658e-08 0)
(7.1028e-08 -8.03956e-09 0)
(7.18397e-08 -4.71186e-09 0)
(7.19828e-08 -1.41838e-09 0)
(7.14947e-08 1.81209e-09 0)
(7.03899e-08 4.93924e-09 0)
(6.8718e-08 7.94314e-09 0)
(6.64936e-08 1.07695e-08 0)
(6.37821e-08 1.34124e-08 0)
(6.05966e-08 1.57905e-08 0)
(5.70226e-08 1.79259e-08 0)
(5.30717e-08 1.9697e-08 0)
(4.88516e-08 2.11785e-08 0)
(4.4373e-08 2.21992e-08 0)
(3.97617e-08 2.29149e-08 0)
(3.50301e-08 2.30936e-08 0)
(3.03112e-08 2.29864e-08 0)
(2.56245e-08 2.22957e-08 0)
(2.10949e-08 2.136e-08 0)
(1.67571e-08 1.98399e-08 0)
(1.27133e-08 1.81281e-08 0)
(9.02049e-09 1.58484e-08 0)
(5.77021e-09 1.32659e-08 0)
(3.08744e-09 9.9344e-09 0)
(1.13947e-09 6.04733e-09 0)
(8.32131e-11 1.80552e-09 0)
(-1.7903e-10 2.40915e-09 0)
(-1.24744e-09 5.79523e-09 0)
(-3.12273e-09 8.97599e-09 0)
(-5.64627e-09 1.20133e-08 0)
(-8.6988e-09 1.46783e-08 0)
(-1.22178e-08 1.68869e-08 0)
(-1.609e-08 1.87252e-08 0)
(-2.02588e-08 2.00861e-08 0)
(-2.46421e-08 2.10738e-08 0)
(-2.91889e-08 2.16265e-08 0)
(-3.38273e-08 2.18846e-08 0)
(-3.85115e-08 2.18002e-08 0)
(-4.31945e-08 2.14986e-08 0)
(-4.78356e-08 2.09495e-08 0)
(-5.23996e-08 2.02646e-08 0)
(-5.6842e-08 1.94206e-08 0)
(-6.11353e-08 1.84917e-08 0)
(-6.52331e-08 1.7448e-08 0)
(-6.91101e-08 1.63246e-08 0)
(-7.2716e-08 1.50847e-08 0)
(-7.60222e-08 1.37331e-08 0)
(-7.89738e-08 1.22318e-08 0)
(-8.15347e-08 1.05678e-08 0)
(-8.36443e-08 8.70667e-09 0)
(-8.52575e-08 6.62964e-09 0)
(-8.63094e-08 4.31193e-09 0)
(-8.67497e-08 1.74058e-09 0)
(-8.65153e-08 -1.0915e-09 0)
(-8.55591e-08 -4.1792e-09 0)
(-8.38295e-08 -7.50428e-09 0)
(-8.12943e-08 -1.10357e-08 0)
(-7.7924e-08 -1.4727e-08 0)
(-7.37122e-08 -1.85205e-08 0)
(-6.86611e-08 -2.2345e-08 0)
(-6.27987e-08 -2.61216e-08 0)
(-5.61648e-08 -2.97632e-08 0)
(-4.8826e-08 -3.31801e-08 0)
(-4.08617e-08 -3.62821e-08 0)
(-3.23768e-08 -3.89839e-08 0)
(-2.34857e-08 -4.12088e-08 0)
(-1.43239e-08 -4.28922e-08 0)
(-5.02906e-09 -4.3987e-08 0)
(4.24956e-09 -4.44634e-08 0)
(1.33716e-08 -4.43137e-08 0)
(2.21961e-08 -4.35479e-08 0)
(3.06027e-08 -4.21973e-08 0)
(3.84788e-08 -4.03049e-08 0)
(4.57392e-08 -3.79281e-08 0)
(5.23093e-08 -3.51273e-08 0)
(5.81432e-08 -3.197e-08 0)
(6.32027e-08 -2.85195e-08 0)
(6.74766e-08 -2.4842e-08 0)
(7.09556e-08 -2.09956e-08 0)
(7.36549e-08 -1.70383e-08 0)
(7.55841e-08 -1.30186e-08 0)
(7.67762e-08 -8.98282e-09 0)
(7.72504e-08 -4.97216e-09 0)
(7.70515e-08 -1.02252e-09 0)
(7.6201e-08 2.82523e-09 0)
(7.47532e-08 6.54528e-09 0)
(7.27257e-08 1.00871e-08 0)
(7.01852e-08 1.34376e-08 0)
(6.71428e-08 1.6522e-08 0)
(6.36827e-08 1.93506e-08 0)
(5.98084e-08 2.18072e-08 0)
(5.56268e-08 2.39482e-08 0)
(5.11341e-08 2.56017e-08 0)
(4.64604e-08 2.69045e-08 0)
(4.15977e-08 2.7616e-08 0)
(3.66922e-08 2.79814e-08 0)
(3.17374e-08 2.76794e-08 0)
(2.688e-08 2.70695e-08 0)
(2.21264e-08 2.57553e-08 0)
(1.76086e-08 2.41905e-08 0)
(1.33598e-08 2.19431e-08 0)
(9.48584e-09 1.94505e-08 0)
(6.07025e-09 1.61744e-08 0)
(3.24045e-09 1.23295e-08 0)
(1.20035e-09 7.52567e-09 0)
(8.6717e-11 2.37042e-09 0)
(-1.86537e-10 2.96035e-09 0)
(-1.33902e-09 7.17652e-09 0)
(-3.39944e-09 1.10491e-08 0)
(-6.16734e-09 1.47405e-08 0)
(-9.53731e-09 1.78994e-08 0)
(-1.33869e-08 2.05804e-08 0)
(-1.76246e-08 2.27053e-08 0)
(-2.21422e-08 2.43828e-08 0)
(-2.68898e-08 2.55167e-08 0)
(-3.17889e-08 2.62565e-08 0)
(-3.6792e-08 2.65464e-08 0)
(-4.18396e-08 2.65392e-08 0)
(-4.68903e-08 2.61885e-08 0)
(-5.19053e-08 2.56277e-08 0)
(-5.68415e-08 2.48249e-08 0)
(-6.16677e-08 2.38825e-08 0)
(-6.63339e-08 2.27678e-08 0)
(-7.08112e-08 2.15396e-08 0)
(-7.50444e-08 2.01581e-08 0)
(-7.90017e-08 1.86429e-08 0)
(-8.26221e-08 1.69504e-08 0)
(-8.5867e-08 1.50734e-08 0)
(-8.86692e-08 1.29699e-08 0)
(-9.09802e-08 1.06196e-08 0)
(-9.27267e-08 7.98847e-09 0)
(-9.38518e-08 5.0576e-09 0)
(-9.42807e-08 1.80997e-09 0)
(-9.39553e-08 -1.75685e-09 0)
(-9.28085e-08 -5.6324e-09 0)
(-9.07935e-08 -9.79051e-09 0)
(-8.78635e-08 -1.4187e-08 0)
(-8.39966e-08 -1.87625e-08 0)
(-7.91785e-08 -2.34406e-08 0)
(-7.34237e-08 -2.81332e-08 0)
(-6.67593e-08 -3.27394e-08 0)
(-5.92431e-08 -3.71525e-08 0)
(-5.09479e-08 -4.12606e-08 0)
(-4.19771e-08 -4.49535e-08 0)
(-3.24484e-08 -4.81266e-08 0)
(-2.25065e-08 -5.06865e-08 0)
(-1.23046e-08 -5.25573e-08 0)
(-2.01411e-09 -5.36835e-08 0)
(8.19768e-09 -5.40363e-08 0)
(1.81589e-08 -5.36115e-08 0)
(2.7717e-08 -5.24338e-08 0)
(3.67281e-08 -5.0548e-08 0)
(4.50799e-08 -4.80207e-08 0)
(5.26751e-08 -4.49274e-08 0)
(5.94513e-08 -4.1354e-08 0)
(6.53597e-08 -3.73837e-08 0)
(7.03842e-08 -3.3103e-08 0)
(7.45152e-08 -2.85887e-08 0)
(7.77719e-08 -2.3917e-08 0)
(8.0171e-08 -1.91521e-08 0)
(8.17547e-08 -1.43545e-08 0)
(8.25535e-08 -9.57475e-09 0)
(8.26231e-08 -4.85799e-09 0)
(8.19963e-08 -2.47251e-10 0)
(8.07368e-08 4.22574e-09 0)
(7.88709e-08 8.51495e-09 0)
(7.64698e-08 1.26021e-08 0)
(7.35482e-08 1.64218e-08 0)
(7.01907e-08 1.99753e-08 0)
(6.63977e-08 2.31587e-08 0)
(6.22746e-08 2.60109e-08 0)
(5.78068e-08 2.83692e-08 0)
(5.3125e-08 3.03453e-08 0)
(4.82022e-08 3.17e-08 0)
(4.31931e-08 3.26581e-08 0)
(3.80645e-08 3.28874e-08 0)
(3.2982e-08 3.27496e-08 0)
(2.79178e-08 3.18111e-08 0)
(2.30303e-08 3.05602e-08 0)
(1.83178e-08 2.84887e-08 0)
(1.39187e-08 2.61598e-08 0)
(9.8754e-09 2.30059e-08 0)
(6.31505e-09 1.94025e-08 0)
(3.36975e-09 1.46976e-08 0)
(1.23792e-09 9.16028e-09 0)
(9.46663e-11 2.93037e-09 0)
(-1.89824e-10 3.57334e-09 0)
(-1.44905e-09 8.69727e-09 0)
(-3.7064e-09 1.34004e-08 0)
(-6.77494e-09 1.77383e-08 0)
(-1.04754e-08 2.1523e-08 0)
(-1.471e-08 2.4601e-08 0)
(-1.93178e-08 2.71232e-08 0)
(-2.42194e-08 2.90022e-08 0)
(-2.93212e-08 3.03883e-08 0)
(-3.45802e-08 3.1204e-08 0)
(-3.99286e-08 3.16285e-08 0)
(-4.53266e-08 3.16045e-08 0)
(-5.07279e-08 3.12923e-08 0)
(-5.60926e-08 3.06456e-08 0)
(-6.13884e-08 2.97939e-08 0)
(-6.65675e-08 2.86974e-08 0)
(-7.15998e-08 2.74419e-08 0)
(-7.6428e-08 2.59835e-08 0)
(-8.1019e-08 2.43618e-08 0)
(-8.53074e-08 2.25278e-08 0)
(-8.92532e-08 2.04851e-08 0)
(-9.27834e-08 1.8184e-08 0)
(-9.58478e-08 1.56061e-08 0)
(-9.83655e-08 1.27071e-08 0)
(-1.00275e-07 9.46266e-09 0)
(-1.01489e-07 5.84347e-09 0)
(-1.0194e-07 1.83755e-09 0)
(-1.01544e-07 -2.55631e-09 0)
(-1.00238e-07 -7.32067e-09 0)
(-9.79524e-08 -1.2418e-08 0)
(-9.46458e-08 -1.77917e-08 0)
(-9.02817e-08 -2.33632e-08 0)
(-8.48545e-08 -2.90379e-08 0)
(-7.83719e-08 -3.47035e-08 0)
(-7.0876e-08 -4.02374e-08 0)
(-6.24262e-08 -4.55067e-08 0)
(-5.31172e-08 -5.03757e-08 0)
(-4.30627e-08 -5.47093e-08 0)
(-3.24105e-08 -5.83804e-08 0)
(-2.13237e-08 -6.12765e-08 0)
(-9.9931e-09 -6.33065e-08 0)
(1.38672e-09 -6.44088e-08 0)
(1.2609e-08 -6.45532e-08 0)
(2.34816e-08 -6.37469e-08 0)
(3.38194e-08 -6.20286e-08 0)
(4.34703e-08 -5.94695e-08 0)
(5.23026e-08 -5.61596e-08 0)
(6.02268e-08 -5.22066e-08 0)
(6.71749e-08 -4.77192e-08 0)
(7.31193e-08 -4.28104e-08 0)
(7.8046e-08 -3.75826e-08 0)
(8.19755e-08 -3.2136e-08 0)
(8.49309e-08 -2.65555e-08 0)
(8.69639e-08 -2.09209e-08 0)
(8.81175e-08 -1.52969e-08 0)
(8.84611e-08 -9.74184e-09 0)
(8.80432e-08 -4.30462e-09 0)
(8.69412e-08 9.75465e-10 0)
(8.5196e-08 6.05552e-09 0)
(8.28889e-08 1.0913e-08 0)
(8.00442e-08 1.54941e-08 0)
(7.67504e-08 1.97938e-08 0)
(7.30109e-08 2.37253e-08 0)
(6.89301e-08 2.73138e-08 0)
(6.44886e-08 3.04149e-08 0)
(5.9816e-08 3.31146e-08 0)
(5.48705e-08 3.51873e-08 0)
(4.98103e-08 3.68263e-08 0)
(4.45773e-08 3.77021e-08 0)
(3.93514e-08 3.81583e-08 0)
(3.40691e-08 3.77448e-08 0)
(2.8914e-08 3.69644e-08 0)
(2.38389e-08 3.52492e-08 0)
(1.90133e-08 3.3226e-08 0)
(1.44361e-08 3.02616e-08 0)
(1.02562e-08 2.69606e-08 0)
(6.55023e-09 2.25454e-08 0)
(3.48421e-09 1.73309e-08 0)
(1.27658e-09 1.07527e-08 0)
(9.3795e-11 3.54441e-09 0)
(-1.95791e-10 4.24082e-09 0)
(-1.56743e-09 1.04236e-08 0)
(-4.07851e-09 1.6005e-08 0)
(-7.47199e-09 2.11324e-08 0)
(-1.15666e-08 2.54817e-08 0)
(-1.61885e-08 2.90893e-08 0)
(-2.12116e-08 3.18832e-08 0)
(-2.64868e-08 3.40743e-08 0)
(-3.19605e-08 3.5572e-08 0)
(-3.75562e-08 3.65735e-08 0)
(-4.32409e-08 3.70108e-08 0)
(-4.89633e-08 3.70747e-08 0)
(-5.46902e-08 3.67047e-08 0)
(-6.03867e-08 3.60595e-08 0)
(-6.60113e-08 3.50873e-08 0)
(-7.1535e-08 3.39024e-08 0)
(-7.69033e-08 3.24537e-08 0)
(-8.20841e-08 3.08049e-08 0)
(-8.70109e-08 2.89007e-08 0)
(-9.16441e-08 2.67604e-08 0)
(-9.59071e-08 2.43267e-08 0)
(-9.97495e-08 2.15873e-08 0)
(-1.03085e-07 1.84874e-08 0)
(-1.0585e-07 1.49991e-08 0)
(-1.07948e-07 1.10792e-08 0)
(-1.09303e-07 6.7046e-09 0)
(-1.09815e-07 1.85829e-09 0)
(-1.09403e-07 -3.45554e-09 0)
(-1.07976e-07 -9.21207e-09 0)
(-1.05467e-07 -1.53629e-08 0)
(-1.01812e-07 -2.18332e-08 0)
(-9.6977e-08 -2.8526e-08 0)
(-9.09431e-08 -3.53208e-08 0)
(-8.37279e-08 -4.20815e-08 0)
(-7.53687e-08 -4.86556e-08 0)
(-6.5943e-08 -5.48831e-08 0)
(-5.55507e-08 -6.05976e-08 0)
(-4.43334e-08 -6.56356e-08 0)
(-3.24551e-08 -6.98424e-08 0)
(-2.01179e-08 -7.30814e-08 0)
(-7.53905e-09 -7.52449e-08 0)
(5.04011e-09 -7.62611e-08 0)
(1.73835e-08 -7.61037e-08 0)
(2.92547e-08 -7.47902e-08 0)
(4.04485e-08 -7.23857e-08 0)
(5.07826e-08 -6.89891e-08 0)
(6.01244e-08 -6.47304e-08 0)
(6.83731e-08 -5.9749e-08 0)
(7.54792e-08 -5.41931e-08 0)
(8.14171e-08 -4.82e-08 0)
(8.62041e-08 -4.19031e-08 0)
(8.9867e-08 -3.54162e-08 0)
(9.24663e-08 -2.88447e-08 0)
(9.40578e-08 -2.22733e-08 0)
(9.47256e-08 -1.57785e-08 0)
(9.45364e-08 -9.42031e-09 0)
(9.3585e-08 -3.24909e-09 0)
(9.19326e-08 2.69152e-09 0)
(8.9676e-08 8.37404e-09 0)
(8.68566e-08 1.37556e-08 0)
(8.35718e-08 1.88277e-08 0)
(7.98354e-08 2.35238e-08 0)
(7.57534e-08 2.786e-08 0)
(7.13086e-08 3.17177e-08 0)
(6.66282e-08 3.51605e-08 0)
(6.16632e-08 3.79882e-08 0)
(5.65716e-08 4.0358e-08 0)
(5.12758e-08 4.19597e-08 0)
(4.59635e-08 4.3099e-08 0)
(4.05385e-08 4.33311e-08 0)
(3.52046e-08 4.31463e-08 0)
(2.98673e-08 4.19497e-08 0)
(2.47254e-08 4.04002e-08 0)
(1.97193e-08 3.77806e-08 0)
(1.50296e-08 3.48389e-08 0)
(1.06727e-08 3.07675e-08 0)
(6.82379e-09 2.60795e-08 0)
(3.62145e-09 1.9876e-08 0)
(1.31264e-09 1.25343e-08 0)
(9.79544e-11 4.13231e-09 0)
(-1.96298e-10 4.98777e-09 0)
(-1.72197e-09 1.23413e-08 0)
(-4.51783e-09 1.89872e-08 0)
(-8.32372e-09 2.48754e-08 0)
(-1.28299e-08 2.99192e-08 0)
(-1.78876e-08 3.39348e-08 0)
(-2.33022e-08 3.71253e-08 0)
(-2.89711e-08 3.9462e-08 0)
(-3.47826e-08 4.11863e-08 0)
(-4.0708e-08 4.22186e-08 0)
(-4.66917e-08 4.27847e-08 0)
(-5.2712e-08 4.28127e-08 0)
(-5.87344e-08 4.24926e-08 0)
(-6.47277e-08 4.17577e-08 0)
(-7.06654e-08 4.07528e-08 0)
(-7.65002e-08 3.94155e-08 0)
(-8.22036e-08 3.78366e-08 0)
(-8.77118e-08 3.59524e-08 0)
(-9.29885e-08 3.38019e-08 0)
(-9.79563e-08 3.13197e-08 0)
(-1.02567e-07 2.85041e-08 0)
(-1.06732e-07 2.52904e-08 0)
(-1.10387e-07 2.16507e-08 0)
(-1.13432e-07 1.75271e-08 0)
(-1.15784e-07 1.28858e-08 0)
(-1.17333e-07 7.69013e-09 0)
(-1.17983e-07 1.9267e-09 0)
(-1.17619e-07 -4.3994e-09 0)
(-1.16151e-07 -1.12557e-08 0)
(-1.13479e-07 -1.85793e-08 0)
(-1.09537e-07 -2.62783e-08 0)
(-1.04269e-07 -3.42296e-08 0)
(-9.76579e-08 -4.22871e-08 0)
(-8.9709e-08 -5.02819e-08 0)
(-8.04712e-08 -5.80311e-08 0)
(-7.00202e-08 -6.53388e-08 0)
(-5.84788e-08 -7.20047e-08 0)
(-4.59997e-08 -7.78296e-08 0)
(-3.27838e-08 -8.26249e-08 0)
(-1.90595e-08 -8.62246e-08 0)
(-5.09534e-09 -8.84977e-08 0)
(8.82984e-09 -8.93634e-08 0)
(2.24232e-08 -8.87961e-08 0)
(3.5414e-08 -8.68342e-08 0)
(4.7551e-08 -8.35704e-08 0)
(5.86371e-08 -7.91499e-08 0)
(6.85177e-08 -7.37452e-08 0)
(7.71045e-08 -6.75481e-08 0)
(8.43476e-08 -6.07433e-08 0)
(9.02531e-08 -5.35108e-08 0)
(9.48475e-08 -4.60057e-08 0)
(9.81983e-08 -3.83698e-08 0)
(1.00374e-07 -3.07164e-08 0)