/*--------------------------------*- C++ -*----------------------------------*\
| =========                 |                                                 |
| \\      /  F ield         | OpenFOAM: The Open Source CFD Toolbox           |
|  \\    /   O peration     | Version:  2412                                  |
|   \\  /    A nd           | Website:  www.openfoam.com                      |
|    \\/     M anipulation  |                                                 |
\*---------------------------------------------------------------------------*/
FoamFile
{
    version     2.0;
    format      ascii;
    arch        "LSB;label=32;scalar=64";
    class       volScalarField;
    location    "5.5";
    object      alpha.oil;
}
// * * * * * * * * * * * * * * * * * * * * * * * * * * * * * * * * * * * * * //

dimensions      [0 0 0 0 0 0 0];

internalField   nonuniform List<scalar> 
6400
(
1
0.999997
0.999998
0.999998
0.999998
0.999999
0.999999
0.999999
0.999999
1
1
1
1
1
1
1
1
1
1
1
1
1
1
1
1
0.999999
0.999998
0.999998
0.999998
0.999998
0.999998
0.999998
0.999998
0.999998
0.999998
0.999999
0.999999
0.999999
0.999999
1
1
1
1
1
1
1
0.999999
0.999999
1
1
1
1
1
0.999999
0.999999
0.999999
0.999999
0.999999
0.999999
0.999999
0.999999
1
1
1
1
1
1
1
1
1
1
1
1
1
1
1
1
1
1
1
0.999997
0.999995
0.999996
0.999997
0.999998
0.999999
0.999999
0.999999
1
1
1
1
1
1
1
1
1
1
1
1
1
1
1
1
0.999999
0.999998
0.999997
0.999997
0.999997
0.999997
0.999997
0.999997
0.999997
0.999998
0.999998
0.999999
0.999999
0.999999
1
1
1
1
1
1
1
0.999999
0.999999
0.999999
0.999999
0.999999
0.999999
0.999998
0.999998
0.999998
0.999997
0.999997
0.999998
0.999998
0.999999
0.999999
0.999999
0.999999
1
1
1
1
1
1
1
1
1
1
1
1
1
1
1
1
1
1
0.999997
0.999997
0.999997
0.999998
0.999998
0.999999
0.999999
0.999999
0.999999
1
1
1
1
1
0.999999
0.999999
1
1
1
1
1
1
1
1
1
1
1
1
1
1
1
1
1
1
1
1
1
1
1
1
0.999999
0.999999
0.999999
1
1
1
0.999999
0.999999
0.999999
0.999999
0.999998
0.999998
0.999998
0.999999
0.999999
1
1
0.999999
0.999999
0.999999
0.999999
0.999999
0.999999
0.999999
0.999999
1
1
1
0.999999
0.999999
0.999999
0.999999
0.999999
0.999999
1
1
1
1
1
0.999998
0.999998
0.999998
0.999999
0.999999
0.999999
0.999999
0.999999
0.999999
0.999999
0.999999
0.999999
0.999999
0.999998
0.999997
0.999996
0.999996
0.999997
0.999999
1
1
1
1
1
1
1
1
1
1
1
1
1
1
1
1
1
1
1
1
1
1
1
1
1
1
1
1
1
1
1
1
1
1
1
1
1
1
1
1
1
1
1
1
1
1
1
1
0.999999
0.999999
0.999999
0.999998
0.999998
0.999999
0.999999
0.999999
0.999999
0.999998
0.999998
0.999999
0.999997
0.999995
0.999999
0.999999
0.999999
0.999999
0.999999
0.999999
0.999999
0.999998
0.999998
0.999999
0.999998
0.999999
0.999999
0.999998
0.999996
0.999995
0.999995
0.999995
0.999996
0.999996
0.999996
0.999997
0.999997
0.999998
0.999999
0.999999
1
1
1
1
1
1
1
1
1
1
1
1
1
1
1
1
1
1
1
1
1
1
1
1
1
1
1
1
1
1
1
1
1
1
1
1
1
1
1
1
1
0.999999
0.999998
0.999998
0.999998
0.999998
0.999999
0.999999
0.999998
0.999997
0.999996
0.999996
0.999993
0.999997
1
0.999999
0.999999
0.999999
0.999999
0.999998
0.999998
0.999998
0.999999
0.999999
0.999999
1
1
1
1
0.999998
0.999997
0.999997
0.999997
0.999997
0.999997
0.999997
0.999998
0.999998
0.999999
0.999999
1
1
1
1
1
1
1
1
1
1
1
1
1
1
1
1
1
1
1
1
1
1
1
1
1
1
1
1
1
1
1
1
1
1
1
1
1
1
1
1
0.999999
0.999998
0.999997
0.999998
0.999998
0.999998
0.999999
0.999999
0.999998
0.999997
0.999997
0.999996
0.999995
1
1
0.999999
0.999999
0.999999
0.999999
0.999999
0.999999
0.999999
1
1
1
1
1
1.00001
1
1
1
1
1
1
1
1
1
1
1
1
1
1
1
1
1
1
1
1
1
1
0.999999
0.999999
0.999999
0.999999
0.999998
0.999998
0.999997
0.999996
0.999996
0.999996
0.999997
0.999998
0.999998
0.999998
0.999999
0.999999
0.999999
0.999999
0.999999
0.999999
0.999999
0.999999
0.999999
0.999999
0.999999
0.999999
0.999999
0.999998
0.999998
0.999997
0.999997
0.999997
0.999997
0.999998
0.999999
0.999999
0.999999
1
1
0.999999
0.999999
0.999998
1
1.00001
1
1
1
0.999999
1
1
1
1
1
1
0.999999
0.999998
1
1
1
1
1
1
1
1
1
1
1
1
1
1
1
1
1
0.999999
0.999999
0.999999
0.999999
0.999999
0.999999
0.999999
0.999998
0.999998
0.999998
0.999998
0.999998
0.999998
0.999997
0.999997
0.999996
0.999996
0.999996
0.999996
0.999996
0.999996
0.999996
0.999996
0.999996
0.999996
0.999996
0.999997
0.999997
0.999997
0.999997
0.999997
0.999997
0.999997
0.999997
0.999997
0.999997
0.999997
0.999998
0.999998
0.999999
1
1
1
1
1
1
1
1
1
1.00001
1
1
1
1
1
1
1
1
1
1
1
0.999996
0.999994
0.999995
0.999997
0.999999
0.999998
0.999998
0.999998
0.999999
0.999999
0.999999
0.999999
1
1
1
1
1
1
0.999999
0.999999
0.999998
0.999999
0.999999
1
1
1
1
1
1
1
1
1
1
1
1
1
1
1
1
1
1
1
1
1
1
1
1
0.999999
0.999999
0.999999
0.999999
0.999998
0.999998
0.999998
0.999998
0.999999
0.999999
1
1
1
1
1
0.999999
0.999999
0.999998
0.999998
0.999998
1
1
0.999992
1
1
1
1
1
1
1
1
1
1
0.999997
0.999994
0.999994
0.999995
0.999996
0.999996
0.999996
0.999997
0.999997
0.999997
0.999998
0.999998
0.999998
0.999999
0.999999
0.999999
0.999999
0.999999
0.999999
0.999998
0.999998
0.999998
0.999998
0.999999
0.999999
1
1
1
1
1
1
1
1
1
1
1
1
1
1
1
1
1
1
1
1
1
1
1
1
1
1
0.999999
0.999998
0.999998
0.999998
0.999999
0.999999
1
1
1
1
0.999999
0.999998
0.999998
0.999998
0.999998
0.999999
1
0.999994
0.999993
1
1
1
1
1
1
1
1
1
1
1
0.999999
0.999999
0.999999
1
0.999999
0.999999
0.999999
1
1
1
1
1
1
1
1
0.999999
0.999999
0.999999
0.999998
0.999998
0.999998
0.999998
0.999999
0.999999
0.999999
0.999999
0.999999
0.999998
0.999998
0.999999
0.999999
0.999999
0.999999
0.999999
0.999999
0.999999
0.999999
0.999999
0.999999
0.999999
0.999999
0.999999
0.999998
0.999998
0.999998
0.999999
1
1
1
1
0.999999
0.999999
0.999998
0.999998
0.999999
0.999999
0.999999
1
1
0.999999
0.999999
0.999998
0.999999
0.999999
1
1
1
0.999992
1
1
1
1
1
1
1
0.999999
0.999999
1
1
1
1
1
1
1
1
1
1
1
1
1
1
1
1
1
1
1
1
1
1
1
1
1
1
1
1
0.999999
0.999999
0.999998
0.999998
0.999998
0.999997
0.999997
0.999997
0.999997
0.999997
0.999997
0.999996
0.999996
0.999996
0.999995
0.999995
0.999995
0.999995
0.999996
0.999997
0.999998
0.999999
1
1
1
1
1
1
1
1
1
1
1
1
0.999999
0.999999
0.999999
1
1
1
1
0.999997
0.999999
1.00001
1
1
1
0.999998
0.999999
1
0.999996
0.999997
1
1
0.999998
0.999997
0.999998
0.999999
0.999999
0.999999
0.999999
0.999999
0.999999
0.999999
1
1
1
1
1
1
1
1
1
1
1
1
1
1
1
1
1
1
1
1
1
1
1
1
1
1
1
1
1
1
1
1
1
1
1
1
1
1
1
1
1
1
1
1
1
1
1
1
1
0.999999
0.999998
0.999998
0.999998
0.999999
1
1
0.999998
0.999995
1.00001
0.999996
1
0.999997
1
0.999995
1
0.999998
0.999995
0.999996
0.999999
0.999999
0.999997
0.999996
0.999997
0.999997
0.999998
0.999998
0.999999
0.999999
0.999999
0.999999
0.999999
0.999999
0.999999
0.999999
1
1
0.999999
1
1
1
1
1
1
1
1
1
1
1
1
1
1
1
1
1
1
1
1
1
1
1
1
1
1
1
1
1
1
0.999999
0.999998
0.999998
0.999998
0.999999
0.999999
1
1
1
1
1
1
0.999999
0.999999
0.999999
0.999999
1
1
0.999998
0.999994
0.999999
1
0.999992
1
0.999997
1
0.999995
1
1
0.999997
1
1
1
1
1
1
1
1
1
1
1
1
1
1
1
1
1
1
0.999999
0.999999
0.999998
0.999997
0.999997
0.999997
0.999997
0.999998
0.999999
0.999999
1
1
1
1
1
1
1
1
1
1
1
1
1
1
1
1
0.999999
0.999999
0.999998
0.999998
0.999997
0.999996
0.999996
0.999997
0.999998
0.999997
0.999997
0.999998
0.999998
0.999999
1
1
1
1
1
1
1
1
1
1
0.999998
0.999998
1.00001
0.999993
1
1
1
1.00001
1
1.00001
1
1
1
1
1
1
1
1
1
1
1
1
1
1
0.999999
0.999999
0.999999
0.999999
0.999999
0.999999
0.999998
0.999998
0.999997
0.999998
0.999998
0.999999
0.999999
1
1
1
0.999999
0.999999
0.999999
0.999999
0.999999
0.999998
0.999998
0.999998
0.999998
0.999998
0.999998
0.999998
0.999998
0.999998
0.999998
0.999998
0.999997
0.999997
0.999997
0.999998
0.999999
0.999999
0.999999
0.999998
0.999997
0.999997
0.999997
0.999998
0.999999
0.999999
0.999999
0.999999
0.999999
1
1
1
1
1
1
1
0.999998
1
1
0.999995
1.00001
1
1
1
1.00001
1
1
1
1
1
0.999999
0.999998
0.999998
0.999998
0.999998
0.999998
0.999998
0.999998
0.999998
0.999998
0.999998
0.999999
1
1
1
0.999999
0.999999
1
1
1
1
1
1
1
1
0.999999
0.999999
0.999998
0.999998
0.999998
0.999998
0.999998
0.999998
0.999998
0.999998
0.999998
0.999998
0.999998
0.999999
0.999999
0.999999
0.999999
1
1
1
1
1
1
1
1
1
1
1
1
1
1
1
1
1
1
1
1
1
1
1
0.999998
0.999998
1
0.999997
1.00001
0.999999
1
1
0.999997
1
1
0.999998
0.999998
0.999999
0.999999
0.999999
0.999999
0.999999
0.999999
0.999999
0.999999
0.999998
0.999998
0.999999
0.999999
0.999999
0.999999
1
1
1
1
1
1
1
1
1
1
1
1
1
0.999999
0.999999
0.999998
0.999998
0.999998
0.999998
0.999998
0.999998
0.999998
0.999998
0.999998
0.999998
0.999998
0.999999
0.999999
0.999999
1
1
1
1
1
1
1
1
1
1
1
1
1
1
0.999999
0.999999
1
1
0.999999
0.999999
0.999999
1
0.999999
0.999998
0.999998
1
1
0.999996
1.00001
0.999995
1
1
1
1
1
1
1
1
1
1
1
1
1
1
1
1
1
1
1
1
1
1
1
1
1
1
1
1
1
1
1
1
1
0.999999
0.999999
0.999998
0.999997
0.999997
0.999997
0.999997
0.999997
0.999997
0.999997
0.999997
0.999997
0.999997
0.999998
0.999998
0.999999
0.999999
0.999999
1
1
1
1
1
1
1
1
1
1
1
1
1
1
1
1
1
1
1
1
1
1
1
1
1
1
1
1
1
0.919892
0.919463
0.922119
0.924553
0.925761
0.92597
0.925872
0.925898
0.92557
0.924895
0.924063
0.923095
0.921907
0.920221
0.917868
0.915484
0.914059
0.913246
0.912186
0.910751
0.908742
0.905895
0.902238
0.900052
0.900746
0.900954
0.899287
0.897093
0.89482
0.892015
0.888667
0.885196
0.883172
0.884406
0.886565
0.888121
0.889672
0.890841
0.891089
0.891656
0.892068
0.891315
0.890895
0.890804
0.889556
0.888728
0.886602
0.883183
0.883787
0.886873
0.890659
0.893808
0.896415
0.898784
0.900983
0.901352
0.900548
0.901497
0.904878
0.908359
0.91066
0.912213
0.913357
0.914342
0.915299
0.916495
0.918123
0.920275
0.922302
0.923659
0.924531
0.92522
0.925702
0.925692
0.925576
0.925409
0.924355
0.922017
0.919421
0.919756
0.183301
0.195058
0.202209
0.206995
0.209879
0.211481
0.211805
0.210132
0.208741
0.207495
0.206056
0.204412
0.202979
0.202079
0.200873
0.199161
0.197079
0.194693
0.192326
0.190289
0.188804
0.18805
0.187528
0.186568
0.182054
0.178808
0.176826
0.175806
0.175372
0.175636
0.176602
0.177764
0.178158
0.176431
0.173311
0.170439
0.167882
0.16596
0.164906
0.164209
0.164087
0.164934
0.166071
0.167488
0.169783
0.172439
0.176007
0.179839
0.180428
0.179573
0.178343
0.17772
0.177836
0.178585
0.180154
0.183024
0.187641
0.189769
0.189959
0.190198
0.191237
0.192962
0.195081
0.197333
0.199497
0.201366
0.204637
0.205706
0.206489
0.207058
0.208157
0.209249
0.210043
0.211343
0.211891
0.210308
0.207569
0.203021
0.196174
0.18477
6.06679e-06
1.04578e-05
9.43147e-06
6.71643e-06
4.75918e-06
3.26795e-06
0.000241024
0.000784094
0.00131684
0.00142142
0.00140852
0.00145002
0.00131257
0.000947733
0.0010144
0.000812896
0.000574784
0.000375011
0.000216289
0.000107316
5.35514e-05
4.46865e-05
4.37024e-05
4.4686e-05
4.37024e-05
4.84001e-05
5.15304e-05
4.35548e-05
3.31954e-05
2.14911e-05
1.09389e-05
2.98389e-06
1.32373e-07
1.76169e-08
6.78572e-09
6.2008e-09
6.07963e-09
6.05239e-09
6.05173e-09
6.04637e-09
6.03499e-09
6.02336e-09
6.02336e-09
6.00859e-09
6.01639e-09
6.18278e-09
1.01526e-08
5.61301e-08
5.27461e-07
5.93581e-06
1.67634e-05
2.98871e-05
4.19698e-05
3.73731e-05
2.85881e-05
2.21452e-05
2.21271e-05
2.21452e-05
3.49663e-05
4.12801e-05
9.30885e-05
0.000207677
0.000378636
0.000598762
0.000852629
0.00108961
0.000727776
0.00064379
0.000770252
0.00119149
0.00132233
0.00131764
0.00115425
0.000595898
2.93531e-05
1.91604e-06
2.09001e-06
2.69012e-06
2.28377e-06
4.2783e-06
2.3506e-06
9.16749e-06
7.25114e-06
5.17756e-06
3.26651e-06
1.84514e-06
0.000389848
0.00149244
0.00159958
0.00143147
0.00140652
0.00149115
0.00143289
0.000936221
0.00108536
0.00312311
0.00359657
0.00359685
0.00357655
0.00358336
0.00358352
0.00358336
0.00358285
0.00183126
0.00463043
0.00462756
0.0046268
0.0046231
0.00461334
0.00458464
0.00387784
0.00287644
0.0013704
1.32373e-07
1.76169e-08
7.44789e-09
5.07768e-08
1.80789e-08
6.05239e-09
6.0517e-09
7.19677e-09
6.79677e-09
6.01681e-09
5.98749e-09
5.91366e-09
1.01526e-08
5.61301e-08
0.000337518
0.00233176
0.00383735
0.00497544
0.00519195
0.00520959
0.00521392
0.00521338
0.00521126
0.00192065
0.00274383
0.00447445
0.00447485
0.00447486
0.00447485
0.00440151
0.00446034
0.00446029
0.0044148
0.000752855
0.000645886
0.000872115
0.00137155
0.0013583
0.00138967
0.00145628
0.00100258
3.56257e-05
7.93739e-07
9.1345e-07
1.50291e-06
1.28518e-06
7.55704e-07
2.3506e-06
9.82724e-06
3.15846e-05
2.15661e-05
1.89551e-06
1.35631e-06
6.31047e-05
5.23525e-05
0.000150412
0.000260513
0.00038417
0.000490319
0.000598681
0.000698002
0.000739997
0.000453404
0.000198117
0.000360589
0.000429066
0.000478405
0.000519784
0.000481785
0.000415063
0.000751433
1.78465e-05
1.07307e-07
1.74167e-08
1.74279e-09
4.32128e-10
3.31982e-10
3.25623e-10
3.25626e-10
3.25623e-10
1.66579e-05
6.98265e-06
2.15702e-08
2.73695e-08
4.06355e-08
4.77584e-08
6.0715e-09
8.20356e-09
1.23594e-08
1.10292e-08
5.9256e-09
5.37901e-09
8.28052e-07
6.67334e-06
2.21326e-06
1.51982e-09
1.51953e-09
1.12083e-09
3.76383e-09
2.42785e-08
7.91007e-08
2.33118e-06
0.00013998
0.00117249
0.000993225
0.000392324
0.00048679
0.000480562
0.000414138
0.000328607
0.000225304
3.88212e-05
2.57811e-05
0.000709125
0.000732553
0.000732376
0.000561266
0.00039112
0.000253061
9.44083e-05
9.73314e-05
9.5874e-07
7.95115e-07
8.03554e-07
9.1345e-07
7.37505e-07
6.58438e-07
2.3506e-06
8.97988e-05
8.83333e-05
4.80375e-05
1.00907e-06
8.66424e-07
1.04476e-06
6.40161e-07
2.99379e-07
9.60803e-08
3.2113e-08
5.89554e-09
1.47177e-07
5.44536e-06
5.07254e-06
1.98267e-09
1.34857e-09
7.92865e-10
7.93146e-10
7.92285e-10
7.7174e-10
7.19634e-10
6.87494e-10
6.98897e-10
1.92423e-05
2.13685e-05
2.01306e-05
2.14509e-06
3.34684e-10
4.05173e-10
3.31982e-10
3.25623e-10
2.43285e-06
1.47959e-05
3.23791e-06
2.53106e-08
7.79542e-08
4.74588e-07
5.49711e-07
1.01828e-07
8.21191e-09
2.60226e-08
3.1434e-08
1.10199e-08
5.16045e-09
2.13733e-07
4.29511e-06
1.97988e-06
1.51953e-09
1.13285e-09
2.25084e-09
2.34709e-06
4.32105e-06
4.34779e-06
2.85025e-06
3.92541e-11
6.16862e-11
6.80806e-11
7.39247e-11
8.0596e-11
1.17909e-10
2.00645e-10
2.28858e-10
5.10527e-10
2.18705e-06
4.29519e-07
3.99741e-05
6.48638e-05
2.06473e-05
2.96141e-07
3.54292e-08
1.10865e-07
2.86691e-07
6.32139e-07
8.90171e-07
7.95113e-07
8.80283e-06
1.5457e-05
7.31834e-06
6.58438e-07
4.35462e-05
9.37934e-05
5.67931e-05
1.06746e-06
2.22307e-07
7.92076e-07
7.54316e-07
3.60713e-07
1.291e-07
3.01219e-08
5.89554e-09
2.56917e-09
2.44227e-09
2.42931e-09
2.40799e-09
2.3962e-09
1.76785e-09
1.75354e-09
1.26891e-09
4.69497e-09
1.46604e-08
1.51256e-08
1.50762e-08
3.98539e-09
2.05127e-11
1.02276e-10
2.27629e-11
2.37658e-11
2.95301e-10
4.62595e-10
4.09e-10
8.4691e-10
5.07767e-06
1.90886e-06
1.98152e-07
4.5174e-08
6.52716e-07
6.5063e-07
6.55415e-07
6.56747e-07
8.282e-09
2.62168e-08
3.20845e-08
1.481e-08
4.97345e-09
5.16045e-09
8.84675e-07
2.20371e-06
2.05554e-09
2.33181e-09
2.74239e-10
3.05766e-11
2.86977e-11
2.83936e-11
2.59416e-11
2.55747e-11
3.17219e-10
3.90565e-10
8.0596e-11
1.28704e-09
1.20402e-07
2.06565e-07
2.07024e-07
1.21562e-07
6.17082e-09
1.15058e-09
1.12495e-09
1.23798e-09
1.40457e-09
1.54377e-09
6.33336e-09
4.17624e-08
1.1085e-07
3.69374e-07
7.15142e-07
8.90116e-07
1.11855e-05
8.75108e-05
0.000102813
6.58438e-07
0.00012281
8.37668e-05
1.3541e-07
4.15212e-08
1.52029e-07
1.60481e-06
1.63795e-06
2.46235e-07
2.76906e-08
9.10531e-09
5.53226e-09
5.07123e-09
5.08225e-09
5.31812e-09
6.52316e-09
6.03053e-09
3.99448e-09
2.13482e-09
7.72173e-10
7.8936e-11
2.1084e-11
2.05916e-11
2.0514e-11
2.05124e-11
2.05127e-11
2.05127e-11
2.25598e-11
3.14823e-11
2.69277e-11
2.68936e-11
9.85675e-09
4.41808e-07
2.96328e-06
1.52161e-07
1.90352e-07
5.70334e-07
7.79317e-07
1.41089e-07
5.27754e-07
8.40766e-07
1.09282e-08
1.26016e-08
3.20845e-08
6.76666e-09
4.91715e-09
4.97345e-09
5.49959e-09
4.10178e-07
1.56954e-08
1.60021e-09
1.66896e-09
7.51764e-10
2.73278e-10
5.90248e-11
2.57127e-11
2.53967e-11
2.98821e-11
3.09799e-11
7.91268e-11
5.70304e-10
2.11698e-09
4.01408e-09
3.68251e-09
6.56908e-10
6.43374e-10
4.41024e-09
1.57333e-08
1.5833e-08
1.39563e-08
9.7441e-09
1.07793e-08
1.54016e-08
3.91793e-08
6.62238e-07
3.78033e-06
2.53439e-06
6.02128e-07
5.3255e-05
0.00011893
1.149e-05
0.000122836
4.29783e-06
4.15212e-08
3.41279e-08
3.46366e-07
3.24742e-06
3.41945e-06
2.44282e-06
1.08048e-07
1.04151e-08
6.22121e-09
5.53226e-09
1.00814e-08
2.68845e-08
2.20823e-08
5.46989e-09
7.15879e-10
8.56019e-10
7.54549e-10
3.92145e-10
1.30347e-10
5.0909e-11
2.56224e-11
2.09944e-11
2.14095e-11
2.99981e-11
6.20191e-11
1.20513e-10
7.9077e-11
2.68536e-11
2.59874e-07
7.04341e-07
1.57264e-07
1.44703e-07
2.72156e-07
8.67269e-07
8.46081e-07
1.38047e-07
1.35439e-07
8.42757e-07
3.48332e-07
2.16027e-09
1.49771e-08
4.91824e-09
4.87129e-09
5.65112e-09
4.17039e-09
1.41211e-09
2.05417e-08
1.5399e-09
3.98821e-10
1.09551e-10
5.62506e-11
5.04107e-11
3.34435e-11
2.1969e-11
1.89567e-11
2.6367e-11
9.1419e-11
2.5218e-10
3.97347e-10
4.57214e-10
5.37827e-10
6.50098e-10
6.05928e-10
1.10824e-09
8.20968e-09
1.58604e-08
1.36274e-08
1.07793e-08
1.29596e-08
3.02748e-08
8.09224e-07
1.41198e-05
1.54526e-05
1.32136e-05
1.60712e-07
5.32024e-06
0.000122528
0.000127338
0.000122796
1.67081e-05
3.41279e-08
2.24881e-08
9.03319e-08
3.41945e-06
3.42444e-06
3.41945e-06
1.25619e-06
2.02065e-08
1.04151e-08
1.74532e-08
5.09977e-08
5.28907e-08
2.11663e-08
4.07167e-10
2.66042e-10
2.61317e-10
2.19805e-10
1.65857e-10
1.21727e-10
7.41064e-11
3.13174e-11
1.52335e-11
1.31001e-11
1.59441e-11
4.53637e-11
1.23388e-10
1.28753e-10
2.75072e-11
1.59367e-07
7.04341e-07
1.45067e-07
1.44327e-07
1.65947e-07
8.68272e-07
8.68272e-07
2.39918e-07
1.05279e-07
8.42757e-07
7.49656e-07
2.14611e-09
1.02538e-08
4.08723e-09
5.07e-09
7.21309e-09
3.28098e-09
6.65976e-10
5.8945e-09
1.67229e-09
3.09348e-10
9.68041e-11
7.5565e-11
4.6239e-11
2.06543e-11
8.49766e-12
6.13556e-12
9.93074e-12
3.98901e-11
1.48671e-10
4.36608e-10
7.45294e-10
8.18561e-10
7.69844e-10
4.74609e-10
3.24553e-10
2.43774e-09
8.58165e-09
1.12386e-08
1.07235e-08
1.61651e-08
2.73558e-07
9.64234e-06
1.54953e-05
1.54739e-05
1.50647e-05
1.12591e-07
1.24975e-06
5.50011e-05
0.000138335
0.000105971
4.00355e-05
2.24638e-08
1.036e-08
7.46341e-08
2.48257e-06
3.4242e-06
3.42444e-06
2.74201e-06
1.25262e-07
4.22604e-08
6.13086e-08
5.97771e-08
2.58023e-08
1.5602e-09
6.22988e-10
6.40894e-10
5.25504e-10
2.75631e-10
1.50218e-10
1.15237e-10
7.39552e-11
2.95318e-11
1.18803e-11
8.77792e-12
7.94508e-12
1.01577e-11
5.54674e-11
1.37019e-10
2.85885e-11
6.07423e-08
5.73664e-07
2.08433e-07
1.44405e-07
1.44342e-07
8.57135e-07
7.73039e-07
6.5855e-08
6.28134e-08
8.42757e-07
7.62454e-07
2.15754e-09
8.95995e-09
2.2955e-09
6.07578e-09
7.2181e-09
5.0404e-09
5.7232e-10
1.42076e-09
9.00343e-10
1.72095e-10
8.66684e-11
3.32828e-11
8.98208e-12
2.98061e-12
2.18533e-12
2.59005e-12
5.81933e-12
2.01818e-11
6.53868e-11
1.89126e-10
4.04163e-10
5.2827e-10
4.94708e-10
2.87568e-10
1.93621e-10
1.65469e-10
1.06014e-09
5.30401e-09
6.17868e-09
1.27978e-08
5.59267e-06
1.54953e-05
1.54953e-05
1.54953e-05
3.50453e-06
5.3422e-08
4.63254e-07
5.69436e-07
0.000138345
0.000108389
4.67851e-05
1.01022e-08
4.22204e-09
3.22873e-09
2.94089e-08
1.89924e-06
2.43732e-06
1.46689e-06
2.41028e-07
5.23119e-08
2.81092e-08
1.70681e-08
5.84509e-09
1.10792e-09
8.79778e-10
7.75017e-10
4.62053e-10
1.79207e-10
1.21008e-10
1.04205e-10
6.62283e-11
2.42185e-11
9.48553e-12
6.28789e-12
4.90077e-12
4.3426e-12
5.78384e-12
2.85309e-11
3.9865e-11
1.86579e-09
1.39631e-07
2.54464e-07
1.86299e-07
3.03245e-07
8.45089e-07
4.31063e-07
3.09037e-09
1.62123e-09
6.62237e-07
7.0357e-07
2.18495e-09
8.13804e-09
7.89068e-10
4.94122e-09
7.2181e-09
4.83741e-09
5.5018e-10
9.65945e-10
2.70389e-10
8.6792e-11
3.0143e-11
6.17158e-12
1.4424e-12
1.06414e-12
1.33188e-12
1.93804e-12
3.70315e-12
1.12327e-11
4.09346e-11
1.21529e-10
2.26213e-10
2.66914e-10
2.49774e-10
1.90551e-10
1.62184e-10
1.48952e-10
1.55455e-10
2.55259e-10
3.30621e-08
1.29067e-07
3.61199e-06
9.06186e-06
1.46202e-05
7.8926e-06
3.32096e-08
3.92007e-08
3.96314e-08
3.03229e-06
0.000138328
0.000140933
2.31413e-05
2.03601e-09
3.22873e-09
3.08523e-09
3.18965e-10
5.7797e-09
4.93323e-08
3.88012e-08
1.3668e-07
5.12079e-08
1.20605e-09
2.75056e-10
5.10823e-10
7.57168e-10
7.41097e-10
5.38234e-10
2.17891e-10
9.12311e-11
8.39793e-11
7.73171e-11
4.7359e-11
1.73358e-11
6.88136e-12
4.05716e-12
2.86053e-12
2.38003e-12
2.49463e-12
7.59942e-12
3.28999e-11
3.28114e-11
7.03958e-09
2.53143e-07
1.57746e-07
3.0859e-07
2.69806e-07
5.64219e-08
1.62123e-09
1.60223e-09
6.28039e-07
7.06668e-07
2.5857e-09
8.30422e-09
4.64819e-10
1.32784e-09
3.15175e-09
2.51254e-09
4.77519e-10
3.56239e-10
8.72387e-11
3.24183e-11
6.74961e-12
1.0525e-12
5.2559e-13
6.08036e-13
9.29504e-13
1.43764e-12
2.72078e-12
9.76972e-12
3.97328e-11
1.00491e-10
1.44714e-10
1.49562e-10
1.18312e-10
9.83384e-11
9.75654e-11
1.16843e-10
1.20939e-10
1.87492e-10
4.16496e-08
1.41284e-07
2.87889e-07
1.92717e-07
2.94022e-07
1.2729e-09
2.67111e-08
4.60815e-08
3.93008e-08
8.74033e-06
0.000138072
0.000140945
8.82589e-06
1.81967e-08
7.1614e-09
7.56244e-09
2.81557e-10
2.30813e-10
1.64306e-10
3.18835e-10
1.50665e-09
4.89547e-09
8.13016e-10
2.26287e-10
3.08531e-10
3.95513e-10
3.35865e-10
1.64515e-10
5.62071e-11
3.76141e-11
3.89794e-11
3.76274e-11
2.60025e-11
1.10603e-11
4.02149e-12
1.95773e-12
1.28787e-12
1.06749e-12
1.14539e-12
3.65583e-12
1.75693e-11
3.27065e-11
4.85945e-11
3.52587e-08
2.51716e-08
2.42074e-08
1.7014e-09
1.62826e-09
1.60223e-09
1.60827e-09
8.65704e-07
6.92971e-07
1.11599e-09
6.38807e-09
4.41042e-10
4.362e-10
3.94864e-10
4.37415e-10
2.33677e-10
8.14192e-11
3.20425e-11
1.00205e-11
1.72578e-12
3.0602e-13
2.27699e-13
3.04767e-13
4.88727e-13
7.89196e-13
1.986e-12
9.50605e-12
3.29831e-11
6.00844e-11
6.82243e-11
6.08851e-11
4.56652e-11
3.83372e-11
4.4106e-11
9.04968e-11
1.66508e-10
3.91039e-10
2.99923e-09
7.93499e-09
9.53664e-11
2.67988e-11
2.49673e-11
3.26868e-10
3.70094e-07
2.65525e-07
3.80561e-08
1.43082e-05
8.22253e-05
0.000140929
5.76523e-06
9.67764e-08
5.79875e-09
9.61912e-10
2.53604e-10
1.8899e-10
1.00051e-10
9.44996e-11
1.19786e-10
1.44997e-10
2.17086e-10
1.99071e-10
1.70552e-10
1.2026e-10
6.15287e-11
2.47705e-11
1.32333e-11
1.1311e-11
1.15674e-11
1.17331e-11
1.02266e-11
5.76713e-12
1.98266e-12
7.33385e-13
4.53823e-13
3.86894e-13
4.44436e-13
1.90995e-12
9.58261e-12
2.74936e-11
4.35053e-11
4.6949e-11
1.96868e-10
9.15113e-10
1.5645e-09
1.68696e-09
2.69564e-09
2.16149e-09
8.84251e-07
7.52282e-07
1.10586e-09
2.28986e-09
1.64437e-09
9.68744e-10
2.36969e-10
1.06001e-10
7.85417e-11
3.70113e-11
1.61548e-11
4.32457e-12
6.41282e-13
1.08115e-13
8.81473e-14
1.14333e-13
1.74864e-13
3.26541e-13
1.43246e-12
6.65699e-12
1.46358e-11
1.77753e-11
1.64525e-11
1.28563e-11
9.92946e-12
9.18722e-12
1.5539e-11
4.29626e-11
8.09899e-11
1.80036e-10
2.37795e-10
1.88572e-10
2.83769e-11
2.55206e-11
2.49673e-11
1.09422e-07
5.16241e-07
3.20017e-07
3.66015e-08
1.97985e-05
1.8925e-05
0.000140739
4.35461e-06
5.81968e-07
6.20008e-08
5.87771e-09
8.49218e-10
1.00051e-10
8.60606e-11
8.63539e-11
1.10179e-10
1.38998e-10
1.42987e-10
1.16097e-10
5.72738e-11
1.95582e-11
8.10423e-12
5.22723e-12
3.75824e-12
2.98972e-12
2.78882e-12
2.88284e-12
2.90843e-12
2.15656e-12
8.27631e-13
2.48461e-13
1.38189e-13
1.21052e-13
1.62423e-13
1.04591e-12
5.96283e-12
1.9514e-11
4.31189e-11
5.69837e-11
2.96005e-10
1.24023e-09
3.12329e-09
2.76881e-09
4.30161e-09
1.85967e-09
8.84251e-07
6.52888e-07
1.10628e-09
1.44704e-09
2.96954e-09
1.77009e-09
2.83076e-10
8.84228e-11
5.1324e-11
2.68242e-11
1.00662e-11
2.23378e-12
2.72691e-13
3.81166e-14
2.93674e-14
3.5485e-14
5.48754e-14
1.3153e-13
6.44614e-13
2.15972e-12
3.25494e-12
3.27825e-12
2.72879e-12
2.39945e-12
2.4446e-12
3.25004e-12
9.19816e-12
3.87098e-11
1.34906e-10
2.77192e-10
3.14971e-10
1.71804e-10
5.33991e-11
3.3077e-11
2.46331e-11
5.19224e-09
4.09658e-07
1.5464e-07
3.463e-08
1.72402e-05
6.76034e-05
0.000113066
6.88337e-06
1.15672e-05
5.73269e-07
6.21979e-08
1.58779e-08
2.80945e-09
6.66303e-11
4.16807e-11
5.76738e-11
7.03658e-11
6.35356e-11
3.60538e-11
1.05548e-11
3.10745e-12
1.95459e-12
1.61219e-12
1.17053e-12
8.21114e-13
6.91764e-13
6.90295e-13
7.0417e-13
6.12613e-13
2.80732e-13
8.24312e-14
3.92055e-14
3.407e-14
6.35713e-14
5.95591e-13
3.82196e-12
1.3725e-11
3.50949e-11
8.47655e-11
4.20815e-10
2.35368e-09
4.05628e-09
3.18511e-09
6.22155e-09
1.73429e-09
8.84234e-07
2.42135e-07
1.10589e-09
1.64949e-09
2.96954e-09
2.09006e-09
3.95305e-10
9.05301e-11
4.39195e-11
2.05203e-11
6.44713e-12
1.18082e-12
1.28981e-13
1.46776e-14
8.98559e-15
1.02822e-14
1.74039e-14
5.23202e-14
2.0696e-13
4.90101e-13
6.32946e-13
6.37145e-13
6.6167e-13
7.2363e-13
1.7214e-12
9.81322e-12
6.66245e-11
5.56324e-10
2.48905e-09
4.43436e-09
3.8232e-09
1.68207e-09
3.02173e-10
2.99426e-11
2.54259e-11
2.45555e-09
7.55452e-11
1.32057e-07
3.35644e-08
5.25334e-06
7.8878e-05
6.69329e-05
9.9031e-05
0.000201068
5.02795e-05
5.73969e-07
2.1933e-07
7.72438e-08
1.10657e-09
1.17618e-11
1.50844e-12
8.8187e-12
1.19701e-11
5.695e-12
1.67977e-12
7.60667e-13
5.71716e-13
4.7415e-13
3.50638e-13
2.26943e-13
1.76584e-13
1.66377e-13
1.71413e-13
1.63299e-13
9.03587e-14
2.65838e-14
1.06791e-14
9.02314e-15
2.94646e-14
3.41332e-13
2.37221e-12
9.63541e-12
2.76662e-11
7.82279e-11
4.16225e-10
2.29716e-09
4.05465e-09
2.67019e-09
1.64023e-08
2.45433e-07
6.23317e-07
5.53428e-10
1.09967e-09
2.18944e-09
2.93905e-09
1.85891e-09
4.88732e-10
8.80901e-11
3.72084e-11
1.50611e-11
3.97127e-12
6.32671e-13
6.9181e-14
7.07289e-15
2.70077e-15
2.84546e-15
5.41143e-15
2.06852e-14
7.25624e-14
1.38292e-13
1.6552e-13
1.77384e-13
3.12084e-13
1.07783e-12
9.11968e-12
1.66458e-10
2.05413e-09
1.47979e-08
6.19558e-08
1.01967e-07
8.95651e-08
4.44492e-08
1.06385e-08
6.21739e-10
2.99426e-11
5.4606e-11
7.55452e-11
1.04729e-07
3.06862e-08
3.83614e-07
7.89105e-05
6.68085e-05
0.000135821
0.000261707
0.00026501
4.52894e-05
9.31126e-06
8.77675e-06
8.22696e-08
-4.89115e-11
7.7733e-13
3.58287e-13
1.02723e-12
6.19284e-13
3.88149e-13
3.08178e-13
1.60306e-13
1.21221e-13
9.40957e-14
5.91618e-14
4.08773e-14
3.64167e-14
3.83652e-14
3.87957e-14
2.5938e-14
7.78216e-15
2.83646e-15
2.44025e-15
1.5983e-14
1.89044e-13
1.38281e-12
6.41935e-12
2.27996e-11
8.34258e-11
3.69566e-10
1.41496e-09
2.84821e-09
6.84974e-10
5.55387e-08
1.00067e-06
5.65021e-08
3.69378e-10
1.10858e-09
2.03189e-09
2.0242e-09
1.60223e-09
4.1383e-10
7.41118e-11
3.00167e-11
1.0331e-11
2.32499e-12
3.49505e-13
4.04189e-14
4.05057e-15
8.07246e-16
7.45893e-16
1.59878e-15
7.58928e-15
2.42506e-14
4.07148e-14
5.25711e-14
1.08541e-13
1.26324e-12
1.82571e-11
2.50882e-10
3.45237e-09
3.56587e-08
2.86e-07
2.21143e-06
7.64104e-06
1.0384e-05
8.59209e-06
4.08422e-06
7.57298e-07
6.40502e-10
1.18264e-10
7.55452e-11
1.50432e-09
2.98925e-08
3.46014e-08
7.51495e-05
7.29206e-05
9.10362e-05
0.000264956
0.000266056
0.000264951
0.000173283
3.30779e-05
4.41084e-06
7.74369e-08
-1.25901e-11
1.34971e-13
2.19141e-14
1.49898e-13
1.71034e-13
1.73988e-13
9.82784e-14
3.41571e-14
2.17326e-14
1.38337e-14
8.08884e-15
6.60367e-15
6.71297e-15
7.04942e-15
5.57788e-15
1.8424e-15
7.49843e-16
7.73144e-16
9.19237e-15
9.95553e-14
7.55671e-13
4.03514e-12
1.88288e-11
8.96139e-11
3.14897e-10
6.03652e-10
8.98822e-10
3.06004e-10
6.65549e-08
1.00067e-06
1.22819e-08
3.59084e-10
8.2737e-10
1.33061e-09
1.11837e-09
9.94072e-10
2.38319e-10
6.13926e-11
2.33814e-11
6.51481e-12
1.29636e-12
1.97324e-13
2.39645e-14
2.36346e-15
2.64514e-16
1.79148e-16
4.34289e-16
2.18364e-15
6.45136e-15
1.20507e-14
3.14499e-14
4.45043e-13
9.76268e-12
1.89845e-10
3.05866e-09
3.85263e-08
2.4885e-06
3.05619e-05
0.000118449
0.000171101
0.000191691
0.000188534
0.000154991
7.79296e-05
5.50194e-06
4.23874e-08
6.31571e-09
4.80772e-06
3.25261e-06
4.88434e-08
3.44887e-05
6.39993e-05
6.39993e-05
0.000187087
0.000266348
0.000266055
0.000263746
9.9616e-05
3.54681e-05
9.21906e-06
7.74857e-08
-1.31662e-11
1.09509e-15
2.17098e-14
1.14498e-13
1.22767e-13
8.06998e-14
1.11901e-14
4.44005e-15
2.62594e-15
1.4417e-15
9.64103e-16
8.8808e-16
9.25641e-16
8.11463e-16
3.27356e-16
1.79791e-16
3.40672e-16
5.11263e-15
5.12703e-14
4.01338e-13
2.40046e-12
1.31512e-11
7.27116e-11
2.3404e-10
3.45228e-10
3.39337e-10
2.66908e-10
5.64855e-08
1.00067e-06
2.10966e-08
3.60283e-10
3.59084e-10
4.73431e-10
6.546e-10
3.5291e-10
1.26511e-10
5.58324e-11
1.7706e-11
3.86089e-12
7.06925e-13
1.09952e-13
1.34879e-14
1.28336e-15
1.03856e-16
3.84078e-17
9.987e-17
4.76394e-16
1.43702e-15
2.61707e-15
4.02981e-14
1.95328e-13
3.28722e-12
5.70776e-11
9.83992e-10
2.36977e-08
4.9068e-05
0.000192625
0.000220251
0.000220464
0.000220706
0.000220826
0.00022084
0.00022084
0.000194
8.81852e-05
8.85625e-05
4.29623e-05
5.50621e-07
2.17018e-07
2.437e-05
6.75222e-05
6.43495e-05
0.000261406
0.000266681
0.000266348
0.00025803
0.000114999
0.000109226
9.03091e-05
1.20061e-05
4.45154e-08
-7.32194e-12
-1.45035e-11
8.74487e-14
9.2711e-14
6.95851e-14
1.15705e-14
1.1838e-15
4.0376e-16
2.30593e-16
1.22377e-16
9.86049e-17
9.66627e-17
8.23759e-17
4.39458e-17
3.38288e-17
1.79355e-16
2.59498e-15
2.56397e-14
2.07007e-13
1.38319e-12
8.09947e-12
4.22531e-11
1.35998e-10
2.23446e-10
2.51106e-10
2.52103e-10
3.26488e-08
7.73251e-07
4.83999e-08
6.26298e-08
2.76601e-09
4.30533e-11
3.63839e-10
1.12843e-10
9.14866e-11
4.77837e-11
1.2362e-11
2.23326e-12
3.84954e-13
5.84285e-14
6.96632e-15
6.36851e-16
4.51427e-17
7.89511e-18
2.07642e-17
7.85342e-17
8.93704e-17
2.07164e-16
3.3377e-15
4.84068e-14
4.39365e-13
9.52766e-13
8.76772e-12
9.84053e-10
9.55288e-05
0.000217634
0.000220005
0.000220238
0.000220463
0.00022072
0.00022084
0.000220841
0.00022084
0.000219966
0.000104781
4.0433e-06
7.68104e-07
7.27614e-07
7.2261e-06
0.000261978
0.000202366
0.000266913
0.000266939
0.000264046
0.0001041
8.09136e-05
0.000110176
0.000111021
0.000112136
3.20953e-05
1.00096e-08
-1.35445e-12
8.20531e-14
8.27179e-14
9.26413e-14
3.52017e-14
6.04599e-16
5.86253e-17
3.01506e-17
1.44668e-17
1.04497e-17
9.84742e-18
7.92802e-18
5.42348e-18
5.71148e-18
8.5371e-17
1.18436e-15
1.22143e-14
1.04105e-13
7.88915e-13
5.12563e-12
2.40605e-11
6.94209e-11
1.25697e-10
1.85799e-10
3.11972e-10
8.80707e-09
3.91263e-08
1.22435e-07
1.32509e-07
9.71791e-08
4.09913e-11
2.15219e-10
5.59266e-11
6.87415e-11
3.4158e-11
7.67474e-12
1.30199e-12
2.10466e-13
2.95328e-14
3.32472e-15
2.91166e-16
1.92975e-17
1.93537e-18
4.04279e-18
1.06138e-17
2.44586e-18
3.44153e-18
2.3889e-17
3.70038e-16
5.79974e-15
8.08221e-14
9.52748e-13
8.73527e-12