/*--------------------------------*- C++ -*----------------------------------*\
| =========                 |                                                 |
| \\      /  F ield         | OpenFOAM: The Open Source CFD Toolbox           |
|  \\    /   O peration     | Version:  2412                                  |
|   \\  /    A nd           | Website:  www.openfoam.com                      |
|    \\/     M anipulation  |                                                 |
\*---------------------------------------------------------------------------*/
FoamFile
{
    version     2.0;
    format      ascii;
    arch        "LSB;label=32;scalar=64";
    class       volScalarField;
    location    "7.4";
    object      p;
}
// * * * * * * * * * * * * * * * * * * * * * * * * * * * * * * * * * * * * * //

dimensions      [1 -1 -2 0 0 0 0];

internalField   nonuniform List<scalar> 
6400
(
12109.5
12109.6
12109.9
12110.4
12110.9
12111.5
12112.1
12112.7
12113.2
12113.6
12113.9
12114.1
12114.2
12114.2
12114.1
12113.8
12113.4
12112.9
12112.2
12111.3
12110.3
12109.1
12107.6
12106
12104.2
12102.1
12099.9
12097.4
12094.6
12091.8
12088.7
12085.6
12082.5
12079.5
12076.7
12074.1
12072
12070.3
12069.2
12068.6
12068.7
12069.4
12070.7
12072.6
12074.9
12077.5
12080.4
12083.5
12086.6
12089.7
12092.7
12095.5
12098.2
12100.6
12102.9
12104.9
12106.7
12108.2
12109.6
12110.8
12111.8
12112.7
12113.3
12113.9
12114.3
12114.6
12114.7
12114.8
12114.7
12114.5
12114.2
12113.8
12113.3
12112.7
12112.1
12111.5
12111
12110.5
12110.2
12110.1
11491.3
11491.4
11491.7
11492.1
11492.6
11493.1
11493.6
11494.1
11494.5
11494.9
11495.2
11495.3
11495.4
11495.3
11495.2
11494.9
11494.5
11493.9
11493.2
11492.4
11491.4
11490.2
11488.8
11487.3
11485.6
11483.6
11481.5
11479.1
11476.6
11474
11471.2
11468.4
11465.6
11462.9
11460.3
11458.1
11456.2
11454.7
11453.6
11453.2
11453.3
11453.9
11455.1
11456.7
11458.7
11461.1
11463.7
11466.4
11469.3
11472.1
11474.8
11477.4
11479.9
11482.2
11484.3
11486.2
11487.9
11489.4
11490.8
11491.9
11492.9
11493.7
11494.4
11495
11495.4
11495.7
11495.8
11495.9
11495.9
11495.7
11495.4
11495.1
11494.7
11494.2
11493.7
11493.2
11492.7
11492.3
11492.1
11491.9
10873
10873.1
10873.4
10873.8
10874.2
10874.6
10875.1
10875.5
10875.8
10876.1
10876.4
10876.5
10876.5
10876.4
10876.2
10875.9
10875.5
10875
10874.3
10873.5
10872.5
10871.4
10870.1
10868.6
10867
10865.2
10863.2
10861
10858.7
10856.3
10853.8
10851.2
10848.7
10846.3
10844
10842
10840.3
10838.9
10838
10837.6
10837.7
10838.3
10839.3
10840.7
10842.6
10844.7
10847
10849.5
10852
10854.6
10857.1
10859.5
10861.8
10863.9
10865.9
10867.6
10869.2
10870.7
10872
10873.1
10874
10874.8
10875.5
10876
10876.5
10876.8
10877
10877
10877
10876.9
10876.7
10876.4
10876.1
10875.7
10875.2
10874.8
10874.4
10874
10873.8
10873.6
10254.5
10254.7
10255
10255.4
10255.8
10256.2
10256.6
10256.9
10257.3
10257.5
10257.7
10257.8
10257.8
10257.7
10257.5
10257.2
10256.8
10256.2
10255.6
10254.8
10253.9
10252.8
10251.6
10250.2
10248.7
10247
10245.1
10243.1
10240.9
10238.7
10236.4
10234
10231.7
10229.4
10227.3
10225.4
10223.9
10222.6
10221.8
10221.4
10221.5
10222
10223
10224.3
10226
10227.9
10230.1
10232.4
10234.7
10237.1
10239.4
10241.7
10243.8
10245.8
10247.6
10249.3
10250.8
10252.2
10253.4
10254.4
10255.3
10256.1
10256.8
10257.3
10257.7
10258
10258.2
10258.3
10258.3
10258.2
10258.1
10257.8
10257.5
10257.2
10256.8
10256.4
10256
10255.7
10255.4
10255.1
9635.87
9636.19
9636.57
9636.96
9637.36
9637.75
9638.12
9638.46
9638.74
9638.96
9639.11
9639.18
9639.17
9639.06
9638.86
9638.56
9638.16
9637.64
9637.01
9636.27
9635.39
9634.38
9633.23
9631.94
9630.5
9628.9
9627.16
9625.28
9623.27
9621.15
9618.96
9616.74
9614.52
9612.38
9610.38
9608.59
9607.07
9605.88
9605.09
9604.72
9604.78
9605.29
9606.21
9607.5
9609.11
9610.98
9613.03
9615.21
9617.44
9619.67
9621.86
9623.96
9625.95
9627.81
9629.53
9631.1
9632.52
9633.8
9634.93
9635.93
9636.8
9637.54
9638.17
9638.68
9639.09
9639.4
9639.61
9639.72
9639.74
9639.68
9639.55
9639.34
9639.06
9638.74
9638.38
9638
9637.61
9637.22
9636.85
9636.54
9017.23
9017.64
9018.1
9018.53
9018.94
9019.34
9019.7
9020.02
9020.28
9020.48
9020.61
9020.67
9020.64
9020.53
9020.33
9020.03
9019.64
9019.16
9018.56
9017.86
9017.04
9016.1
9015.03
9013.82
9012.48
9010.99
9009.36
9007.59
9005.7
9003.69
9001.59
8999.45
8997.31
8995.21
8993.24
8991.46
8989.95
8988.76
8987.97
8987.59
8987.66
8988.16
8989.09
8990.38
8991.98
8993.83
8995.85
8997.97
9000.13
9002.27
9004.36
9006.35
9008.23
9009.98
9011.59
9013.06
9014.38
9015.57
9016.63
9017.57
9018.38
9019.08
9019.68
9020.17
9020.57
9020.87
9021.08
9021.2
9021.24
9021.2
9021.08
9020.89
9020.64
9020.33
9019.98
9019.59
9019.19
9018.76
9018.32
9017.91
8398.6
8399.1
8399.63
8400.11
8400.55
8400.96
8401.32
8401.64
8401.89
8402.07
8402.19
8402.23
8402.2
8402.08
8401.88
8401.6
8401.23
8400.77
8400.22
8399.56
8398.81
8397.94
8396.95
8395.84
8394.6
8393.22
8391.7
8390.03
8388.23
8386.3
8384.27
8382.17
8380.03
8377.92
8375.92
8374.08
8372.51
8371.27
8370.43
8370.04
8370.1
8370.64
8371.6
8372.95
8374.61
8376.51
8378.56
8380.69
8382.83
8384.93
8386.95
8388.86
8390.64
8392.29
8393.79
8395.15
8396.38
8397.48
8398.46
8399.32
8400.08
8400.73
8401.29
8401.76
8402.14
8402.43
8402.64
8402.76
8402.81
8402.78
8402.68
8402.5
8402.26
8401.96
8401.61
8401.21
8400.78
8400.31
8399.78
8399.29
7779.99
7780.58
7781.18
7781.72
7782.19
7782.62
7783
7783.31
7783.55
7783.73
7783.84
7783.87
7783.83
7783.71
7783.52
7783.25
7782.9
7782.48
7781.97
7781.37
7780.69
7779.9
7779
7777.99
7776.86
7775.59
7774.17
7772.61
7770.89
7769.02
7767.02
7764.9
7762.72
7760.53
7758.41
7756.45
7754.75
7753.4
7752.47
7752.04
7752.11
7752.69
7753.75
7755.22
7757.01
7759.03
7761.19
7763.39
7765.56
7767.66
7769.64
7771.49
7773.18
7774.73
7776.12
7777.38
7778.5
7779.51
7780.4
7781.19
7781.88
7782.48
7783
7783.43
7783.79
7784.07
7784.27
7784.4
7784.46
7784.44
7784.35
7784.18
7783.95
7783.65
7783.29
7782.87
7782.4
7781.88
7781.28
7780.7
7161.44
7162.1
7162.79
7163.37
7163.89
7164.34
7164.73
7165.04
7165.28
7165.45
7165.55
7165.58
7165.53
7165.41
7165.23
7164.97
7164.65
7164.26
7163.8
7163.27
7162.66
7161.96
7161.17
7160.27
7159.25
7158.1
7156.8
7155.33
7153.69
7151.87
7149.87
7147.7
7145.42
7143.07
7140.75
7138.58
7136.66
7135.12
7134.06
7133.55
7133.64
7134.31
7135.51
7137.18
7139.19
7141.43
7143.78
7146.12
7148.38
7150.51
7152.48
7154.26
7155.87
7157.32
7158.6
7159.74
7160.75
7161.65
7162.44
7163.15
7163.77
7164.31
7164.78
7165.18
7165.52
7165.78
7165.98
7166.11
7166.18
7166.16
7166.08
7165.92
7165.69
7165.39
7165.01
7164.57
7164.06
7163.48
7162.81
7162.16
6542.96
6543.69
6544.45
6545.09
6545.65
6546.13
6546.53
6546.85
6547.09
6547.25
6547.34
6547.35
6547.3
6547.18
6547
6546.76
6546.47
6546.12
6545.71
6545.24
6544.71
6544.11
6543.43
6542.66
6541.77
6540.75
6539.58
6538.22
6536.67
6534.88
6532.87
6530.61
6528.16
6525.57
6522.95
6520.44
6518.2
6516.38
6515.12
6514.52
6514.62
6515.41
6516.85
6518.81
6521.16
6523.73
6526.36
6528.93
6531.34
6533.53
6535.49
6537.22
6538.74
6540.07
6541.22
6542.23
6543.11
6543.89
6544.58
6545.19
6545.73
6546.21
6546.63
6547
6547.31
6547.57
6547.76
6547.89
6547.96
6547.96
6547.89
6547.74
6547.51
6547.2
6546.8
6546.33
6545.78
6545.15
6544.41
6543.68
5924.56
5925.36
5926.19
5926.89
5927.5
5928.01
5928.43
5928.75
5928.99
5929.14
5929.21
5929.2
5929.14
5929.01
5928.84
5928.61
5928.34
5928.03
5927.68
5927.28
5926.84
5926.35
5925.79
5925.15
5924.42
5923.55
5922.53
5921.31
5919.86
5918.12
5916.08
5913.7
5911.02
5908.08
5905.03
5902.03
5899.31
5897.09
5895.54
5894.8
5894.92
5895.91
5897.68
5900.07
5902.91
5905.95
5909
5911.88
5914.49
5916.78
5918.74
5920.4
5921.81
5922.99
5923.99
5924.84
5925.58
5926.22
5926.79
5927.3
5927.76
5928.18
5928.55
5928.88
5929.17
5929.41
5929.61
5929.75
5929.83
5929.84
5929.78
5929.64
5929.41
5929.09
5928.68
5928.18
5927.58
5926.9
5926.08
5925.29
5306.24
5307.12
5308.02
5308.78
5309.44
5309.99
5310.43
5310.76
5310.99
5311.12
5311.17
5311.15
5311.06
5310.92
5310.74
5310.52
5310.28
5310
5309.7
5309.38
5309.04
5308.66
5308.24
5307.76
5307.2
5306.52
5305.68
5304.63
5303.31
5301.65
5299.59
5297.07
5294.08
5290.67
5287
5283.32
5279.91
5277.1
5275.14
5274.2
5274.37
5275.63
5277.87
5280.88
5284.4
5288.12
5291.75
5295.06
5297.92
5300.32
5302.27
5303.84
5305.09
5306.09
5306.9
5307.57
5308.14
5308.63
5309.07
5309.47
5309.84
5310.19
5310.51
5310.81
5311.08
5311.32
5311.52
5311.68
5311.77
5311.81
5311.77
5311.64
5311.43
5311.1
5310.67
5310.13
5309.49
5308.74
5307.86
5307.01
4688.01
4688.95
4689.93
4690.78
4691.49
4692.09
4692.55
4692.89
4693.1
4693.21
4693.23
4693.18
4693.07
4692.91
4692.71
4692.5
4692.26
4692.02
4691.78
4691.54
4691.29
4691.04
4690.77
4690.47
4690.11
4689.65
4689.05
4688.23
4687.11
4685.58
4683.53
4680.87
4677.5
4673.46
4668.94
4664.26
4659.88
4656.22
4653.67
4652.44
4652.67
4654.32
4657.24
4661.14
4665.63
4670.29
4674.7
4678.57
4681.75
4684.24
4686.15
4687.56
4688.61
4689.38
4689.96
4690.41
4690.78
4691.1
4691.4
4691.68
4691.96
4692.24
4692.51
4692.78
4693.04
4693.28
4693.5
4693.68
4693.81
4693.88
4693.87
4693.77
4693.57
4693.25
4692.8
4692.22
4691.52
4690.7
4689.74
4688.82
4069.83
4070.86
4071.94
4072.88
4073.66
4074.31
4074.79
4075.12
4075.32
4075.4
4075.38
4075.28
4075.13
4074.94
4074.73
4074.5
4074.28
4074.07
4073.88
4073.71
4073.57
4073.46
4073.36
4073.27
4073.15
4072.97
4072.66
4072.15
4071.33
4070.03
4068.09
4065.31
4061.52
4056.66
4050.95
4044.88
4039.08
4034.23
4030.83
4029.21
4029.53
4031.74
4035.61
4040.76
4046.63
4052.6
4058.08
4062.65
4066.16
4068.7
4070.47
4071.65
4072.4
4072.86
4073.15
4073.33
4073.47
4073.6
4073.74
4073.9
4074.08
4074.29
4074.52
4074.77
4075.03
4075.28
4075.53
4075.74
4075.91
4076.03
4076.07
4076.01
4075.83
4075.52
4075.06
4074.44
4073.67
4072.76
4071.7
4070.69
3451.67
3452.83
3454.04
3455.09
3455.96
3456.64
3457.13
3457.45
3457.6
3457.63
3457.55
3457.4
3457.2
3456.96
3456.72
3456.48
3456.26
3456.07
3455.93
3455.85
3455.82
3455.86
3455.95
3456.09
3456.26
3456.42
3456.51
3456.43
3456.04
3455.14
3453.47
3450.72
3446.5
3440.61
3433.29
3425.26
3417.48
3410.92
3406.37
3404.2
3404.64
3407.64
3412.85
3419.76
3427.58
3435.36
3442.25
3447.66
3451.46
3453.91
3455.38
3456.16
3456.49
3456.54
3456.45
3456.31
3456.19
3456.1
3456.07
3456.1
3456.18
3456.32
3456.51
3456.74
3457
3457.27
3457.55
3457.82
3458.05
3458.22
3458.32
3458.32
3458.19
3457.9
3457.43
3456.77
3455.91
3454.88
3453.68
3452.55
2833.48
2834.82
2836.23
2837.43
2838.38
2839.1
2839.57
2839.83
2839.91
2839.86
2839.69
2839.46
2839.19
2838.89
2838.6
2838.34
2838.11
2837.95
2837.86
2837.85
2837.94
2838.14
2838.45
2838.86
2839.37
2839.94
2840.52
2841.02
2841.27
2841.01
2839.91
2837.44
2832.93
2825.81
2816.32
2805.55
2794.97
2786.03
2779.87
2776.92
2777.51
2781.61
2788.71
2798.14
2808.74
2819.05
2827.8
2834.15
2838.06
2840.13
2841.02
2841.17
2840.89
2840.4
2839.84
2839.31
2838.87
2838.55
2838.33
2838.21
2838.19
2838.26
2838.41
2838.63
2838.89
2839.2
2839.52
2839.84
2840.14
2840.4
2840.58
2840.66
2840.6
2840.35
2839.89
2839.18
2838.22
2837.03
2835.62
2834.29
2215.1
2216.77
2218.5
2219.91
2220.98
2221.71
2222.12
2222.29
2222.25
2222.07
2221.79
2221.45
2221.08
2220.7
2220.36
2220.05
2219.82
2219.67
2219.62
2219.7
2219.91
2220.29
2220.83
2221.54
2222.42
2223.48
2224.69
2225.97
2227.13
2227.89
2227.84
2226.27
2221.82
2213.1
2200.38
2185.47
2170.64
2158.19
2149.76
2145.64
2146.39
2152.03
2161.81
2174.99
2189.93
2204.18
2215.73
2223.19
2226.72
2227.81
2227.65
2226.83
2225.68
2224.46
2223.3
2222.3
2221.5
2220.92
2220.5
2220.24
2220.11
2220.1
2220.21
2220.41
2220.69
2221.02
2221.4
2221.8
2222.19
2222.54
2222.83
2223.02
2223.05
2222.88
2222.45
2221.7
2220.6
2219.16
2217.44
2215.78
1596.07
1598.43
1600.72
1602.51
1603.76
1604.52
1604.86
1604.9
1604.71
1604.37
1603.95
1603.48
1603
1602.54
1602.14
1601.79
1601.54
1601.41
1601.42
1601.58
1601.94
1602.51
1603.31
1604.36
1605.67
1607.3
1609.31
1611.65
1614.15
1616.59
1618.67
1619.57
1616.36
1605.12
1586.37
1564.24
1542.59
1525.1
1513.9
1507.96
1508.8
1516.65
1529.95
1548.61
1570.74
1591.99
1608.82
1617.72
1619.42
1618.06
1615.93
1613.56
1611.17
1608.95
1607.01
1605.42
1604.21
1603.35
1602.74
1602.31
1602.05
1601.95
1602.01
1602.19
1602.48
1602.85
1603.29
1603.77
1604.26
1604.74
1605.16
1605.49
1605.66
1605.6
1605.21
1604.41
1603.11
1601.3
1599.02
1596.69
975.517
980.115
983.558
985.873
987.335
988.066
988.246
988.053
987.623
987.054
986.418
985.763
985.128
984.541
984.025
983.593
983.269
983.093
983.098
983.3
983.728
984.434
985.457
986.783
988.437
990.6
993.477
997.066
1001.27
1006.02
1011.63
1017.79
1018.79
1005.78
978.522
947.114
918.031
895.935
884.964
878.756
879.172
887.301
902.647
926.471
956.616
987.016
1010
1019.18
1015.97
1009.79
1004.59
1000.17
996.264
992.924
990.136
987.928
986.371
985.366
984.666
984.131
983.787
983.657
983.713
983.928
984.282
984.751
985.305
985.918
986.569
987.231
987.866
988.423
988.832
988.993
988.77
987.99
986.479
984.128
980.687
976.144
356.314
368.384
375.376
379.348
381.632
382.731
383.06
382.914
382.482
381.881
381.189
380.459
379.73
379.035
378.397
377.827
377.35
377.01
376.842
376.852
377.064
377.534
378.304
379.335
380.588
382.275
384.67
387.9
391.918
396.791
403.565
413.292
421.471
428.625
442.215
455.558
459.802
461.715
464.521
464.359
463.995
464.346
463.746
462.119
455.547
435.305
422.116
419.256
410.407
401.386
395.386
390.93
387.206
384.206
381.851
380.058
378.927
378.241
377.751
377.358
377.153
377.175
377.386
377.747
378.244
378.849
379.525
380.245
380.989
381.729
382.423
383.019
383.438
383.562
383.201
382.062
379.731
375.713
368.701
356.703
20.0512
28.3779
33.0077
35.6508
37.1246
37.8491
38.1218
38.1204
37.9497
37.6704
37.3226
36.9329
36.522
36.1068
35.7026
35.3234
34.9917
34.691
34.4357
34.247
34.1456
34.1325
34.2168
34.4392
34.8833
35.3757
35.7699
36.416
37.4625
38.9385
41.4865
44.988
50.6128
83.0442
158.859
224.206
263.086
289.436
304.458
309.74
309.08
302.424
285.477
256.955
212.708
134.918
67.9767
48.9488
44.2229
40.9657
38.6604
37.2306
36.2102
35.5202
35.2023
34.9893
34.8545
34.5075
34.2543
34.2076
34.2916
34.4662
34.7271
35.0493
35.4142
35.8052
36.2201
36.6446
37.0619
37.4563
37.8069
38.0858
38.2538
38.2488
37.9655
37.2269
35.7343
33.0692
28.4242
20.1128
-10.5399
-10.5398
-10.5397
-10.5396
-10.5395
-10.5394
-10.5392
-10.5391
-10.539
-10.5389
-10.5389
-10.5388
-10.5386
-10.5385
-10.5383
-10.5321
-10.5024
-10.5017
-10.5254
-10.5484
-10.549
-10.5483
-10.5491
-10.4617
-10.1446
-9.88847
-10.0471
-10.2105
-10.1308
-9.86421
-8.96698
-8.25116
-6.88763
5.91769
47.575
106.248
143.685
167.498
181.614
182.432
181.771
179.554
164.923
139.569
94.5542
33.8551
1.02042
-6.89605
-8.21374
-8.92821
-9.83909
-10.1872
-10.2677
-10.2298
-9.94308
-9.76697
-9.75412
-10.1813
-10.4867
-10.5564
-10.5587
-10.563
-10.5477
-10.5303
-10.5239
-10.5341
-10.5394
-10.539
-10.5399
-10.5406
-10.5407
-10.5405
-10.5403
-10.5401
-10.5399
-10.5398
-10.5397
-10.5397
-10.5397
-10.5398
-11.0302
-11.0302
-11.0301
-11.0301
-11.03
-11.0299
-11.0297
-11.0296
-11.0295
-11.0293
-11.0291
-11.0288
-11.0282
-11.0272
-11.0258
-11.0245
-11.0228
-11.023
-11.0298
-11.0367
-11.0372
-11.0368
-11.0407
-11.0318
-10.9505
-10.7716
-10.6883
-10.6899
-10.662
-10.5112
-10.1273
-9.63576
-9.21098
-8.6681
-2.09621
15.1013
25.6924
33.7947
40.7894
34.8802
34.5521
39.1706
33.6206
25.9865
11.6878
-5.41933
-8.59044
-9.16847
-9.61158
-10.1184
-10.5938
-10.728
-10.7381
-10.7119
-10.6362
-10.6173
-10.7448
-10.9618
-11.0325
-11.0428
-11.0398
-11.0455
-11.0428
-11.0365
-11.0311
-11.0281
-11.0274
-11.029
-11.0303
-11.0309
-11.031
-11.0309
-11.0308
-11.0306
-11.0305
-11.0304
-11.0303
-11.0302
-11.0301
-11.0301
-11.5209
-11.5208
-11.5207
-11.5207
-11.5205
-11.5204
-11.5203
-11.5202
-11.5201
-11.52
-11.52
-11.5199
-11.5199
-11.52
-11.5195
-11.5181
-11.5161
-11.517
-11.5226
-11.528
-11.5293
-11.5295
-11.5309
-11.5322
-11.509
-11.4521
-11.3531
-11.2926
-11.2865
-11.2801
-11.1959
-11.0572
-11.0564
-11.2808
-11.4989
-11.4128
-11.4688
-11.4891
-9.39113
-11.3417
-11.4145
-10.3157
-11.5182
-11.5179
-11.5171
-11.5225
-11.1794
-10.9727
-10.9981
-11.1552
-11.3393
-11.3364
-11.3238
-11.313
-11.3112
-11.3515
-11.4479
-11.5171
-11.5375
-11.5389
-11.5393
-11.5425
-11.537
-11.5298
-11.5243
-11.5217
-11.5208
-11.5204
-11.5211
-11.5218
-11.5219
-11.5217
-11.5214
-11.5212
-11.521
-11.5209
-11.5208
-11.5207
-11.5207
-11.5207
-12.0114
-12.0114
-12.0113
-12.0112
-12.0111
-12.011
-12.0109
-12.0108
-12.0107
-12.0106
-12.0106
-12.0107
-12.0109
-12.0119
-12.0129
-12.0128
-12.0097
-12.0109
-12.0179
-12.02
-12.019
-12.02
-12.0218
-12.0233
-12.0246
-12.0235
-11.9927
-11.9674
-11.9657
-11.9855
-12.0047
-11.9917
-12.0438
-12.0659
-12.0147
-11.9487
-11.949
-11.9738
-12.0161
-12.0069
-12.0067
-12.0089
-12.0079
-12.0077
-12.0072
-12.0076
-12.0528
-12.0237
-11.9876
-11.9981
-11.9743
-11.9561
-11.9623
-11.9635
-11.9519
-11.9811
-12.0225
-12.028
-12.0277
-12.0284
-12.0319
-12.0344
-12.032
-12.0283
-12.0249
-12.0217
-12.0156
-12.0128
-12.0131
-12.0133
-12.0128
-12.0123
-12.012
-12.0118
-12.0116
-12.0114
-12.0113
-12.0112
-12.0112
-12.0112
-12.5021
-12.502
-12.502
-12.5019
-12.5018
-12.5017
-12.5015
-12.5014
-12.5013
-12.5012
-12.5012
-12.5013
-12.5018
-12.5032
-12.5054
-12.5049
-12.5027
-12.5055
-12.5132
-12.5098
-12.5076
-12.5104
-12.513
-12.5153
-12.5183
-12.5197
-12.5181
-12.5091
-12.5079
-12.5064
-12.5024
-12.5003
-12.5032
-12.5046
-12.5007
-12.4899
-12.4863
-12.4914
-12.4984
-12.4961
-12.4982
-12.4988
-12.4991
-12.4988
-12.4983
-12.4971
-12.498
-12.5001
-12.4929
-12.4933
-12.4972
-12.5042
-12.5049
-12.5025
-12.505
-12.514
-12.5157
-12.5142
-12.5137
-12.5164
-12.5237
-12.5299
-12.5303
-12.5247
-12.5203
-12.5186
-12.5142
-12.5068
-12.5039
-12.5048
-12.5042
-12.5032
-12.5027
-12.5024
-12.5022
-12.502
-12.5019
-12.5019
-12.5019
-12.5018
-12.9928
-12.9928
-12.9927
-12.9926
-12.9925
-12.9924
-12.9923
-12.9921
-12.992
-12.9919
-12.9918
-12.9919
-12.9923
-12.9933
-12.9944
-12.9949
-12.997
-12.9997
-13.0007
-13.0018
-13.0034
-13.0056
-13.007
-13.0076
-13.0079
-13.007
-13.0042
-13.0007
-12.998
-12.9961
-12.9948
-12.9938
-12.9935
-12.9939
-12.9942
-12.9951
-12.9973
-12.9906
-12.9883
-12.9886
-12.9895
-12.9905
-12.9903
-12.9896
-12.9889
-12.9878
-12.9863
-12.9854
-12.9842
-12.9824
-12.9815
-12.9908
-13.0015
-13.0036
-13.0023
-13.0037
-13.0065
-13.0075
-13.0067
-13.006
-13.012
-13.0196
-13.02
-13.0163
-13.0125
-13.0095
-13.0099
-13.0018
-12.9972
-12.9964
-12.9956
-12.9943
-12.9935
-12.9932
-12.9929
-12.9928
-12.9927
-12.9926
-12.9926
-12.9926
-13.4836
-13.4835
-13.4835
-13.4834
-13.4833
-13.4832
-13.4831
-13.4829
-13.4828
-13.4826
-13.4824
-13.4824
-13.4824
-13.4825
-13.4823
-13.4823
-13.4853
-13.4915
-13.4959
-13.4989
-13.5023
-13.5044
-13.5047
-13.5038
-13.5019
-13.499
-13.4953
-13.4918
-13.4891
-13.4869
-13.4852
-13.4844
-13.4844
-13.4842
-13.4838
-13.4837
-13.4842
-13.4842
-13.482
-13.4811
-13.481
-13.4811
-13.4807
-13.4802
-13.4794
-13.4782
-13.4774
-13.4771
-13.4762
-13.4759
-13.4773
-13.4802
-13.4844
-13.4876
-13.4904
-13.4955
-13.5022
-13.508
-13.5122
-13.5146
-13.5167
-13.5172
-13.5129
-13.5048
-13.4944
-13.4906
-13.4999
-13.4966
-13.4906
-13.4878
-13.4867
-13.4854
-13.4845
-13.4841
-13.4838
-13.4836
-13.4835
-13.4834
-13.4834
-13.4834
-13.9744
-13.9744
-13.9743
-13.9743
-13.9742
-13.9741
-13.974
-13.9738
-13.9737
-13.9734
-13.9732
-13.9729
-13.9726
-13.9721
-13.9709
-13.9702
-13.973
-13.981
-13.9908
-13.9989
-14.0046
-14.0068
-14.0056
-14.0018
-13.9971
-13.9922
-13.9876
-13.9838
-13.9808
-13.9785
-13.9768
-13.9757
-13.9752
-13.9749
-13.9747
-13.9745
-13.9743
-13.9741
-13.9737
-13.9726
-13.972
-13.9717
-13.9714
-13.971
-13.9702
-13.9692
-13.9684
-13.9679
-13.9674
-13.9672
-13.9678
-13.9701
-13.9743
-13.9798
-13.9859
-13.994
-14.0046
-14.0157
-14.0244
-14.0287
-14.0276
-14.0203
-14.0074
-13.9918
-13.9778
-13.9725
-13.9838
-13.9888
-13.9823
-13.9782
-13.9774
-13.9763
-13.9754
-13.9749
-13.9747
-13.9745
-13.9743
-13.9743
-13.9742
-13.9742
-14.4652
-14.4652
-14.4652
-14.4652
-14.4651
-14.465
-14.4649
-14.4648
-14.4646
-14.4644
-14.4642
-14.4638
-14.4633
-14.4623
-14.4606
-14.46
-14.465
-14.4772
-14.4928
-14.5069
-14.5159
-14.5183
-14.5144
-14.5061
-14.4962
-14.4876
-14.4812
-14.4764
-14.4728
-14.4702
-14.4683
-14.467
-14.4662
-14.4656
-14.4651
-14.4649
-14.4648
-14.4648
-14.4647
-14.4638
-14.4628
-14.4625
-14.4621
-14.4617
-14.4611
-14.4604
-14.4598
-14.4595
-14.4594
-14.4596
-14.4605
-14.4628
-14.4669
-14.4728
-14.4814
-14.4943
-14.5122
-14.5318
-14.5468
-14.5523
-14.5471
-14.5317
-14.5095
-14.4859
-14.4652
-14.4576
-14.4706
-14.4786
-14.4723
-14.4679
-14.4676
-14.4669
-14.4662
-14.4658
-14.4655
-14.4654
-14.4652
-14.4652
-14.4651
-14.4651
-14.9561
-14.9561
-14.9561
-14.9561
-14.956
-14.956
-14.956
-14.9559
-14.9558
-14.9556
-14.9554
-14.9551
-14.9545
-14.9534
-14.9519
-14.9522
-14.9611
-14.9799
-15.0023
-15.0225
-15.0357
-15.0385
-15.0312
-15.0167
-15
-14.9857
-14.9759
-14.9697
-14.9652
-14.9621
-14.9598
-14.9583
-14.9572
-14.9564
-14.9558
-14.9554
-14.9552
-14.9552
-14.9553
-14.9546
-14.9537
-14.9533
-14.953
-14.9527
-14.9522
-14.9518
-14.9515
-14.9513
-14.9514
-14.9519
-14.9532
-14.9557
-14.9602
-14.9676
-14.9797
-14.9996
-15.0279
-15.0586
-15.0809
-15.0875
-15.0771
-15.0523
-15.0201
-14.9878
-14.96
-14.9483
-14.9611
-14.969
-14.9618
-14.9575
-14.9576
-14.9574
-14.9569
-14.9567
-14.9564
-14.9563
-14.9562
-14.9561
-14.956
-14.956
-15.447
-15.447
-15.447
-15.447
-15.447
-15.447
-15.447
-15.447
-15.447
-15.4469
-15.4468
-15.4467
-15.4463
-15.4455
-15.4448
-15.4468
-15.4597
-15.4852
-15.5151
-15.5424
-15.561
-15.5655
-15.5553
-15.5333
-15.5078
-15.4861
-15.4718
-15.4633
-15.4578
-15.454
-15.4514
-15.4495
-15.4483
-15.4473
-15.4466
-15.4461
-15.4458
-15.4458
-15.4459
-15.4455
-15.4446
-15.4443
-15.444
-15.4438
-15.4435
-15.4432
-15.4431
-15.4432
-15.4436
-15.4444
-15.446
-15.449
-15.4543
-15.4631
-15.4788
-15.506
-15.5452
-15.5865
-15.6153
-15.6227
-15.6077
-15.5744
-15.5331
-15.4932
-15.4586
-15.4459
-15.4584
-15.4594
-15.4516
-15.4485
-15.4481
-15.448
-15.4478
-15.4475
-15.4474
-15.4472
-15.4471
-15.447
-15.447
-15.447
-15.9379
-15.9379
-15.938
-15.938
-15.938
-15.9381
-15.9381
-15.9382
-15.9383
-15.9384
-15.9385
-15.9386
-15.9385
-15.9383
-15.9388
-15.9428
-15.9588
-15.9899
-16.0268
-16.0611
-16.0864
-16.0937
-16.0812
-16.0516
-16.0168
-15.9873
-15.9678
-15.9567
-15.9501
-15.9457
-15.9427
-15.9407
-15.9393
-15.9383
-15.9375
-15.9369
-15.9365
-15.9365
-15.9366
-15.9363
-15.9356
-15.9353
-15.9351
-15.9349
-15.9348
-15.9347
-15.9348
-15.9351
-15.9357
-15.9368
-15.9387
-15.9421
-15.9478
-15.9575
-15.9755
-16.0077
-16.0541
-16.1021
-16.1341
-16.1418
-16.1242
-16.0863
-16.0401
-15.9963
-15.96
-15.9505
-15.9545
-15.9479
-15.9424
-15.9405
-15.9394
-15.939
-15.9388
-15.9385
-15.9383
-15.9382
-15.9381
-15.938
-15.938
-15.9379
-16.4288
-16.4289
-16.4289
-16.4289
-16.429
-16.4291
-16.4292
-16.4294
-16.4296
-16.4299
-16.4302
-16.4306
-16.4311
-16.4316
-16.4331
-16.4388
-16.4557
-16.4899
-16.5319
-16.5713
-16.6015
-16.6119
-16.5983
-16.5629
-16.5207
-16.4853
-16.4618
-16.4489
-16.4416
-16.4369
-16.4339
-16.4317
-16.4302
-16.4292
-16.4284
-16.4277
-16.4274
-16.4272
-16.4273
-16.4271
-16.4266
-16.4263
-16.4262
-16.4261
-16.4261
-16.4262
-16.4264
-16.4269
-16.4277
-16.429
-16.4311
-16.4346
-16.4403
-16.4497
-16.4672
-16.4992
-16.5462
-16.5956
-16.6277
-16.6351
-16.6175
-16.5795
-16.534
-16.4899
-16.4579
-16.4514
-16.4443
-16.4363
-16.4342
-16.4325
-16.4309
-16.4303
-16.4299
-16.4296
-16.4294
-16.4292
-16.4291
-16.429
-16.4289
-16.4289
-16.9197
-16.9198
-16.9198
-16.9199
-16.92
-16.9201
-16.9203
-16.9206
-16.9209
-16.9213
-16.9219
-16.9226
-16.9236
-16.925
-16.9271
-16.9328
-16.9489
-16.9814
-17.0246
-17.0658
-17.0969
-17.1089
-17.0956
-17.0581
-17.013
-16.9765
-16.9521
-16.9392
-16.9322
-16.9276
-16.9246
-16.9226
-16.9211
-16.92
-16.9192
-16.9186
-16.9182
-16.918
-16.918
-16.9179
-16.9176
-16.9174
-16.9173
-16.9172
-16.9173
-16.9176
-16.9179
-16.9185
-16.9195
-16.9209
-16.923
-16.9264
-16.9317
-16.9396
-16.9544
-16.9818
-17.0229
-17.0667
-17.0962
-17.1035
-17.0874
-17.0532
-17.0114
-16.97
-16.9452
-16.9407
-16.9336
-16.9281
-16.9264
-16.9242
-16.9226
-16.9217
-16.9211
-16.9207
-16.9204
-16.9202
-16.92
-16.9199
-16.9199
-16.9198
-17.4106
-17.4107
-17.4107
-17.4108
-17.4109
-17.4111
-17.4114
-17.4117
-17.4121
-17.4127
-17.4134
-17.4144
-17.4158
-17.4178
-17.4205
-17.425
-17.4372
-17.4636
-17.5024
-17.5414
-17.5705
-17.5815
-17.5693
-17.5352
-17.4941
-17.4608
-17.4392
-17.4278
-17.4218
-17.4178
-17.4151
-17.4132
-17.4118
-17.4108
-17.4101
-17.4095
-17.4091
-17.4089
-17.4088
-17.4087
-17.4085
-17.4084
-17.4083
-17.4084
-17.4085
-17.4089
-17.4093
-17.41
-17.411
-17.4125
-17.4146
-17.4177
-17.4221
-17.4285
-17.4393
-17.4585
-17.4877
-17.5204
-17.544
-17.5501
-17.5371
-17.5093
-17.4751
-17.4442
-17.429
-17.4265
-17.4234
-17.4213
-17.4184
-17.4157
-17.4139
-17.4129
-17.4122
-17.4117
-17.4114
-17.4112
-17.411
-17.4109
-17.4108
-17.4107
-17.9015
-17.9015
-17.9016
-17.9017
-17.9019
-17.9021
-17.9023
-17.9027
-17.9032
-17.9038
-17.9046
-17.9058
-17.9073
-17.9094
-17.9122
-17.916
-17.9238
-17.941
-17.9689
-17.9997
-18.0235
-18.0323
-18.0224
-17.9961
-17.9649
-17.94
-17.9241
-17.9155
-17.9108
-17.9075
-17.9052
-17.9036
-17.9024
-17.9015
-17.9008
-17.9003
-17.8999
-17.8997
-17.8996
-17.8996
-17.8994
-17.8994
-17.8993
-17.8995
-17.8997
-17.9001
-17.9006
-17.9013
-17.9023
-17.9038
-17.9057
-17.9085
-17.9123
-17.9173
-17.9247
-17.9362
-17.9526
-17.9712
-17.9848
-17.9874
-17.9792
-17.9613
-17.9403
-17.9241
-17.9174
-17.9158
-17.9141
-17.9118
-17.909
-17.9066
-17.905
-17.904
-17.9032
-17.9027
-17.9024
-17.9021
-17.9019
-17.9018
-17.9017
-17.9016
-18.3923
-18.3923
-18.3924
-18.3925
-18.3927
-18.3929
-18.3932
-18.3936
-18.3941
-18.3948
-18.3956
-18.3967
-18.3982
-18.4
-18.4023
-18.4056
-18.4102
-18.419
-18.4342
-18.4528
-18.4682
-18.4737
-18.4676
-18.4522
-18.4336
-18.4183
-18.4084
-18.4028
-18.3995
-18.397
-18.3952
-18.3939
-18.3929
-18.3921
-18.3915
-18.3911
-18.3907
-18.3905
-18.3905
-18.3904
-18.3903
-18.3903
-18.3903
-18.3905
-18.3908
-18.3912
-18.3917
-18.3925
-18.3935
-18.3948
-18.3966
-18.399
-18.4021
-18.4063
-18.4116
-18.4187
-18.4272
-18.4358
-18.4413
-18.4407
-18.4362
-18.4277
-18.418
-18.4107
-18.408
-18.4059
-18.4037
-18.4012
-18.3989
-18.3971
-18.3958
-18.3949
-18.3942
-18.3936
-18.3933
-18.393
-18.3928
-18.3926
-18.3925
-18.3925
-18.8831
-18.8831
-18.8832
-18.8833
-18.8835
-18.8837
-18.884
-18.8844
-18.8849
-18.8855
-18.8863
-18.8873
-18.8886
-18.8901
-18.8918
-18.894
-18.8967
-18.9006
-18.9067
-18.9149
-18.9222
-18.9254
-18.9235
-18.9169
-18.9075
-18.8992
-18.8938
-18.8905
-18.8883
-18.8865
-18.8852
-18.8841
-18.8833
-18.8827
-18.8822
-18.8818
-18.8815
-18.8813
-18.8813
-18.8812
-18.8812
-18.8812
-18.8812
-18.8815
-18.8818
-18.8822
-18.8827
-18.8834
-18.8844
-18.8856
-18.8872
-18.8893
-18.8919
-18.8951
-18.8993
-18.9042
-18.9095
-18.9142
-18.9168
-18.9167
-18.9134
-18.9088
-18.9039
-18.8999
-18.8975
-18.8951
-18.8929
-18.8908
-18.889
-18.8876
-18.8865
-18.8856
-18.885
-18.8845
-18.8841
-18.8838
-18.8836
-18.8834
-18.8833
-18.8833
-19.3738
-19.3739
-19.3739
-19.3741
-19.3742
-19.3745
-19.3748
-19.3751
-19.3756
-19.3762
-19.3769
-19.3777
-19.3787
-19.3798
-19.3811
-19.3824
-19.384
-19.3857
-19.3878
-19.3903
-19.3928
-19.3945
-19.3942
-19.3915
-19.3872
-19.3834
-19.3807
-19.3788
-19.3773
-19.3761
-19.3751
-19.3743
-19.3737
-19.3732
-19.3728
-19.3725
-19.3722
-19.3721
-19.372
-19.372
-19.372
-19.372
-19.3721
-19.3724
-19.3727
-19.3731
-19.3736
-19.3743
-19.3752
-19.3763
-19.3777
-19.3794
-19.3815
-19.3841
-19.3871
-19.3906
-19.3942
-19.3972
-19.399
-19.3992
-19.3976
-19.3947
-19.3915
-19.3886
-19.3862
-19.3841
-19.3823
-19.3806
-19.3792
-19.378
-19.377
-19.3763
-19.3757
-19.3752
-19.3748
-19.3746
-19.3743
-19.3742
-19.3741
-19.374
-19.8645
-19.8646
-19.8646
-19.8648
-19.8649
-19.8651
-19.8654
-19.8658
-19.8662
-19.8667
-19.8673
-19.8679
-19.8687
-19.8695
-19.8704
-19.8711
-19.8719
-19.8727
-19.8734
-19.874
-19.8745
-19.8747
-19.8742
-19.873
-19.8717
-19.8702
-19.8688
-19.8677
-19.8667
-19.8659
-19.8652
-19.8646
-19.8641
-19.8637
-19.8634
-19.8631
-19.8629
-19.8628
-19.8628
-19.8627
-19.8628
-19.8628
-19.8629
-19.8632
-19.8635
-19.8639
-19.8644
-19.8651
-19.8659
-19.8669
-19.868
-19.8695
-19.8712
-19.8732
-19.8754
-19.8778
-19.8802
-19.8821
-19.8833
-19.8834
-19.8826
-19.8809
-19.8788
-19.8768
-19.875
-19.8733
-19.8719
-19.8705
-19.8694
-19.8684
-19.8675
-19.8669
-19.8663
-19.8659
-19.8655
-19.8653
-19.8651
-19.8649
-19.8648
-19.8648
-20.3552
-20.3552
-20.3553
-20.3554
-20.3556
-20.3558
-20.356
-20.3563
-20.3567
-20.3571
-20.3576
-20.3581
-20.3587
-20.3593
-20.3598
-20.3603
-20.3606
-20.3608
-20.3609
-20.3608
-20.3607
-20.3605
-20.3603
-20.3599
-20.3593
-20.3585
-20.3577
-20.357
-20.3563
-20.3558
-20.3553
-20.3548
-20.3545
-20.3542
-20.3539
-20.3537
-20.3536
-20.3535
-20.3535
-20.3534
-20.3535
-20.3536
-20.3537
-20.354
-20.3543
-20.3547
-20.3552
-20.3557
-20.3565
-20.3573
-20.3583
-20.3595
-20.3609
-20.3625
-20.3641
-20.3659
-20.3675
-20.3688
-20.3695
-20.3696
-20.369
-20.368
-20.3667
-20.3653
-20.364
-20.3627
-20.3615
-20.3605
-20.3595
-20.3587
-20.358
-20.3574
-20.3569
-20.3565
-20.3562
-20.3559
-20.3557
-20.3556
-20.3555
-20.3554
-20.8458
-20.8459
-20.8459
-20.846
-20.8462
-20.8463
-20.8466
-20.8468
-20.8471
-20.8475
-20.8479
-20.8483
-20.8487
-20.8491
-20.8495
-20.8497
-20.8499
-20.8499
-20.8497
-20.8495
-20.8493
-20.8491
-20.8489
-20.8485
-20.8481
-20.8476
-20.8471
-20.8467
-20.8462
-20.8458
-20.8455
-20.8452
-20.8449
-20.8447
-20.8445
-20.8443
-20.8442
-20.8442
-20.8441
-20.8441
-20.8442
-20.8443
-20.8445
-20.8447
-20.845
-20.8454
-20.8458
-20.8464
-20.847
-20.8477
-20.8486
-20.8496
-20.8507
-20.8519
-20.8532
-20.8544
-20.8556
-20.8565
-20.857
-20.8571
-20.8568
-20.8561
-20.8552
-20.8542
-20.8532
-20.8523
-20.8513
-20.8505
-20.8497
-20.849
-20.8484
-20.8478
-20.8474
-20.8471
-20.8468
-20.8465
-20.8464
-20.8462
-20.8462
-20.8461
-21.3364
-21.3365
-21.3365
-21.3366
-21.3367
-21.3369
-21.3371
-21.3373
-21.3375
-21.3378
-21.3381
-21.3384
-21.3387
-21.339
-21.3392
-21.3394
-21.3394
-21.3394
-21.3392
-21.339
-21.3387
-21.3385
-21.3382
-21.3379
-21.3376
-21.3372
-21.3369