/*--------------------------------*- C++ -*----------------------------------*\
| =========                 |                                                 |
| \\      /  F ield         | OpenFOAM: The Open Source CFD Toolbox           |
|  \\    /   O peration     | Version:  2412                                  |
|   \\  /    A nd           | Website:  www.openfoam.com                      |
|    \\/     M anipulation  |                                                 |
\*---------------------------------------------------------------------------*/
FoamFile
{
    version     2.0;
    format      ascii;
    arch        "LSB;label=32;scalar=64";
    class       surfaceScalarField;
    location    "3.3";
    object      alphaPhi0.oil;
}
// * * * * * * * * * * * * * * * * * * * * * * * * * * * * * * * * * * * * * //

dimensions      [0 3 -1 0 0 0 0];

oriented        oriented;

internalField   nonuniform List<scalar> 
12640
(
2.06111e-07
-2.06202e-07
5.25102e-07
-3.17524e-07
7.72733e-07
-2.46778e-07
8.75548e-07
-1.01683e-07
8.28327e-07
4.81748e-08
6.59595e-07
1.69734e-07
4.0937e-07
2.50834e-07
1.18718e-07
2.91481e-07
-1.77504e-07
2.97216e-07
-4.53187e-07
2.76298e-07
-6.90362e-07
2.37533e-07
-8.78118e-07
1.88249e-07
-1.012e-06
1.34444e-07
-1.09264e-06
8.08727e-08
-1.12364e-06
3.08038e-08
-1.11014e-06
-1.38361e-08
-1.05835e-06
-5.19101e-08
-9.75155e-07
-8.28425e-08
-8.67661e-07
-1.06537e-07
-7.42788e-07
-1.23332e-07
-6.07119e-07
-1.33787e-07
-4.66795e-07
-1.38495e-07
-3.2734e-07
-1.38033e-07
-1.93498e-07
-1.32977e-07
-6.91426e-08
-1.23966e-07
4.27145e-08
-1.11748e-07
1.39912e-07
-9.71913e-08
2.21122e-07
-8.12201e-08
2.85837e-07
-6.47348e-08
3.34323e-07
-4.85407e-08
3.67493e-07
-3.32718e-08
3.86796e-07
-1.94533e-08
3.94044e-07
-7.44116e-09
3.91188e-07
2.61887e-09
3.80191e-07
1.07177e-08
3.62833e-07
1.70403e-08
3.40686e-07
2.17987e-08
3.14966e-07
2.53454e-08
2.86633e-07
2.79312e-08
2.56296e-07
2.99077e-08
2.24439e-07
3.14029e-08
1.91543e-07
3.24242e-08
1.58087e-07
3.29844e-08
1.2487e-07
3.27857e-08
9.29212e-08
3.16009e-08
6.34252e-08
2.92496e-08
3.80172e-08
2.52546e-08
1.84141e-08
1.95165e-08
6.66189e-09
1.16942e-08
4.77837e-09
1.8138e-09
1.44863e-08
-9.81595e-09
3.71804e-08
-2.28436e-08
7.3797e-08
-3.67913e-08
1.24539e-07
-5.09203e-08
1.88857e-07
-6.44854e-08
2.65425e-07
-7.67246e-08
3.52021e-07
-8.6754e-08
4.4562e-07
-9.37682e-08
5.42398e-07
-9.69638e-08
6.37806e-07
-9.56165e-08
7.26611e-07
-8.90404e-08
8.02931e-07
-7.65874e-08
8.60344e-07
-5.77238e-08
8.9209e-07
-3.21142e-08
8.91299e-07
3.50414e-10
8.51573e-07
3.92098e-08
7.6741e-07
8.35901e-08
6.35354e-07
1.31476e-07
4.55078e-07
1.79771e-07
2.30787e-07
2.23953e-07
-2.72526e-08
2.57939e-07
-3.0132e-07
2.74239e-07
-5.65386e-07
2.6451e-07
-7.85506e-07
2.20819e-07
-9.22284e-07
1.37675e-07
-9.37419e-07
1.6129e-08
-8.05754e-07
-1.30725e-07
-5.3607e-07
-2.69e-07
-2.06285e-07
-3.29622e-07
-2.06825e-07
3.23671e-07
-5.28542e-07
7.48446e-07
-7.40563e-07
9.60665e-07
-4.57724e-07
8.40649e-07
1.96253e-08
3.86027e-07
5.03626e-07
-3.38506e-07
8.95432e-07
-1.24138e-06
1.15481e-06
-2.22716e-06
1.27822e-06
-3.21146e-06
1.28243e-06
-4.12796e-06
1.19349e-06
-4.92944e-06
1.03942e-06
-5.58614e-06
8.45213e-07
-6.08348e-06
6.32059e-07
-6.4192e-06
4.16819e-07
-6.59967e-06
2.11453e-07
-6.63681e-06
2.36363e-08
-6.546e-06
-1.41913e-07
-6.34481e-06
-2.82589e-07
-6.05191e-06
-3.97512e-07
-5.68613e-06
-4.8709e-07
-5.26578e-06
-5.52422e-07
-4.80819e-06
-5.94921e-07
-4.32938e-06
-6.16273e-07
-3.84369e-06
-6.18519e-07
-3.36363e-06
-6.04101e-07
-2.89967e-06
-5.75851e-07
-2.46008e-06
-5.36897e-07
-2.05087e-06
-4.90507e-07
-1.67577e-06
-4.39897e-07
-1.33632e-06
-3.88033e-07
-1.03216e-06
-3.37488e-07
-7.61311e-07
-2.90371e-07
-5.20645e-07
-2.48191e-07
-3.06302e-07
-2.11837e-07
-1.14116e-07
-1.81622e-07
6.00345e-08
-1.57306e-07
2.1992e-07
-1.3832e-07
3.68889e-07
-1.23886e-07
5.09658e-07
-1.13129e-07
6.44425e-07
-1.05173e-07
7.75038e-07
-9.95255e-08
9.03301e-07
-9.61204e-08
1.03116e-06
-9.50868e-08
1.16094e-06
-9.71234e-08
1.29546e-06
-1.02935e-07
1.43794e-06
-1.13152e-07
1.59196e-06
-1.28628e-07
1.76156e-06
-1.49925e-07
1.95074e-06
-1.77338e-07
2.16325e-06
-2.10566e-07
2.40201e-06
-2.48458e-07
2.66868e-06
-2.89393e-07
2.96335e-06
-3.3133e-07
3.28422e-06
-3.71657e-07
3.62738e-06
-4.07506e-07
3.98672e-06
-4.35927e-07
4.35398e-06
-4.53906e-07
4.71885e-06
-4.58552e-07
5.06907e-06
-4.47142e-07
5.39071e-06
-4.1726e-07
5.66831e-06
-3.66702e-07
5.88515e-06
-2.93584e-07
6.02365e-06
-1.96472e-07
6.06589e-06
-7.4715e-08
5.99451e-06
7.12624e-08
5.79382e-06
2.39377e-07
5.45161e-06
4.25311e-07
4.96135e-06
6.21376e-07
4.32508e-06
8.15919e-07
3.55656e-06
9.92649e-07
2.68459e-06
1.13047e-06
1.75562e-06
1.20415e-06
8.34999e-07
1.18642e-06
5.05441e-09
1.0523e-06
-6.42036e-07
7.86363e-07
-1.01874e-06
3.94283e-07
-1.0671e-06
-8.1274e-08
-7.9663e-07
-5.39113e-07
-3.35221e-07
-7.91715e-07
-5.4273e-07
2.67134e-07
-7.94508e-07
4.96535e-07
-9.69534e-07
3.70969e-07
-3.32019e-07
-2.23013e-07
6.13553e-07
-1.26803e-06
1.54866e-06
-2.66952e-06
2.29705e-06
-4.29912e-06
2.78428e-06
-6.02356e-06
3.0026e-06
-7.72358e-06
2.98259e-06
-9.3036e-06
2.77361e-06
-1.06941e-05
2.42986e-06
-1.18497e-05
2.00096e-06
-1.27467e-05
1.52953e-06
-1.3379e-05
1.04981e-06
-1.37538e-05
5.8675e-07
-1.38871e-05
1.57097e-07
-1.3801e-05
-2.28358e-07
-1.35213e-05
-5.63134e-07
-1.30757e-05
-8.44229e-07
-1.24927e-05
-1.07129e-06
-1.18004e-05
-1.24577e-06
-1.10259e-05
-1.37015e-06
-1.0195e-05
-1.44779e-06
-9.33108e-06
-1.48284e-06
-8.45523e-06
-1.48025e-06
-7.58552e-06
-1.44573e-06
-6.73681e-06
-1.38561e-06
-5.92053e-06
-1.3066e-06
-5.14461e-06
-1.21544e-06
-4.4136e-06
-1.1185e-06
-3.72899e-06
-1.02143e-06
-3.08967e-06
-9.28923e-07
-2.49254e-06
-8.44491e-07
-1.93309e-06
-7.70412e-07
-1.40612e-06
-7.07732e-07
-9.06124e-07
-6.56451e-07
-4.27843e-07
-6.15773e-07
3.34911e-08
-5.84398e-07
4.82018e-07
-5.60827e-07
9.21265e-07
-5.43581e-07
1.35434e-06
-5.3177e-07
1.78421e-06
-5.25169e-07
2.21399e-06
-5.24102e-07
2.64728e-06
-5.29701e-07
3.08814e-06
-5.43125e-07
3.54117e-06
-5.65523e-07
4.0113e-06
-5.98066e-07
4.5036e-06
-6.41478e-07
5.02291e-06
-6.95814e-07
5.57324e-06
-7.60005e-07
6.15722e-06
-8.31479e-07
6.77531e-06
-9.06494e-07
7.42534e-06
-9.80362e-07
8.1022e-06
-1.04751e-06
8.79758e-06
-1.10185e-06
9.49979e-06
-1.1371e-06
1.0194e-05
-1.14706e-06
1.08623e-05
-1.12588e-06
1.14844e-05
-1.06817e-06
1.20373e-05
-9.69204e-07
1.24964e-05
-8.24856e-07
1.28355e-05
-6.31817e-07
1.30278e-05
-3.87877e-07
1.30463e-05
-9.24996e-08
1.28658e-05
2.52484e-07
1.24641e-05
6.41807e-07
1.18245e-05
1.06545e-06
1.09397e-05
1.50681e-06
9.81485e-06
1.94136e-06
8.47254e-06
2.33567e-06
6.95659e-06
2.64728e-06
5.33549e-06
2.82632e-06
3.70333e-06
2.81986e-06
2.17657e-06
2.58045e-06
8.8431e-07
2.07993e-06
-5.04598e-08
1.33004e-06
-5.40992e-07
4.09691e-07
-5.79457e-07
-5.01041e-07
-2.90146e-07
-1.08208e-06
-8.32745e-07
1.35427e-07
-9.29947e-07
3.55305e-08
-8.70867e-07
-5.70598e-07
2.72992e-07
-1.76214e-06
1.80395e-06
-3.48808e-06
3.2735e-06
-5.62121e-06
4.42941e-06
-8.0018e-06
5.16401e-06
-1.04673e-05
5.46749e-06
-1.28726e-05
5.38772e-06
-1.51007e-05
5.00178e-06
-1.70658e-05
4.39499e-06
-1.87114e-05
3.64662e-06
-2.00064e-05
2.82512e-06
-2.09416e-05
1.98591e-06
-2.15242e-05
1.17019e-06
-2.17735e-05
4.06534e-07
-2.17164e-05
-2.86065e-07
-2.1385e-05
-8.95772e-07
-2.08143e-05
-1.41651e-06
-2.00403e-05
-1.84663e-06
-1.90995e-05
-2.18753e-06
-1.80275e-05
-2.44267e-06
-1.68583e-05
-2.61707e-06
-1.56238e-05
-2.71722e-06
-1.43529e-05
-2.75096e-06
-1.30708e-05
-2.7275e-06
-1.17987e-05
-2.65715e-06
-1.05537e-05
-2.55099e-06
-9.34803e-06
-2.4203e-06
-8.18966e-06
-2.2759e-06
-7.08244e-06
-2.12758e-06
-6.02669e-06
-1.98352e-06
-5.01992e-06
-1.85006e-06
-4.05767e-06
-1.73145e-06
-3.13424e-06
-1.62998e-06
-2.24344e-06
-1.54611e-06
-1.37922e-06
-1.4789e-06
-5.35935e-07
-1.4266e-06
2.91442e-07
-1.38711e-06
1.1073e-06
-1.35835e-06
1.91558e-06
-1.33899e-06
2.72e-06
-1.32859e-06
3.52437e-06
-1.32758e-06
4.33298e-06
-1.33752e-06
5.15065e-06
-1.3601e-06
5.98281e-06
-1.397e-06
6.83509e-06
-1.44964e-06
7.71301e-06
-1.51861e-06
8.62147e-06
-1.60339e-06
9.56408e-06
-1.70162e-06
1.05424e-05
-1.80868e-06
1.1555e-05
-1.91797e-06
1.2597e-05
-2.02125e-06
1.36597e-05
-2.10892e-06
1.47298e-05
-2.17075e-06
1.57901e-05
-2.19621e-06
1.68194e-05
-2.17506e-06
1.77926e-05
-2.09781e-06
1.86816e-05
-1.95591e-06
1.94556e-05
-1.74202e-06
2.0082e-05
-1.44999e-06
2.05265e-05
-1.07519e-06
2.07547e-05
-6.1498e-07
2.07328e-05
-6.94531e-08
2.0429e-05
5.57268e-07
1.98163e-05
1.25539e-06
1.88752e-05
2.00733e-06
1.75976e-05
2.78506e-06
1.59916e-05
3.54803e-06
1.4086e-05
4.24174e-06
1.19359e-05
4.79783e-06
9.62589e-06
5.13683e-06
7.27105e-06
5.17523e-06
5.01338e-06
4.83864e-06
3.01099e-06
4.08273e-06
1.41792e-06
2.92326e-06
3.52626e-07
1.4747e-06
-1.44954e-07
-4.06301e-09
-1.67061e-07
-1.06003e-06
-9.98389e-07
-1.37933e-08
-9.16955e-07
-4.85218e-07
-4.01171e-07
-1.62371e-06
1.40962e-06
-3.4584e-06
3.63707e-06
-5.89591e-06
5.70965e-06
-8.77238e-06
7.30505e-06
-1.18972e-05
8.28808e-06
-1.50824e-05
8.65218e-06
-1.81622e-05
8.46752e-06
-2.10036e-05
7.84351e-06
-2.3509e-05
6.90078e-06
-2.56143e-05
5.75211e-06
-2.72841e-05
4.49529e-06
-2.8507e-05
3.20979e-06
-2.92908e-05
1.95535e-06
-2.9657e-05
7.74169e-07
-2.96367e-05
-3.05224e-07
-2.92673e-05
-1.26464e-06
-2.85896e-05
-2.09412e-06
-2.76461e-05
-2.79005e-06
-2.64799e-05
-3.35332e-06
-2.5134e-05
-3.78794e-06
-2.36497e-05
-4.10046e-06
-2.20663e-05
-4.29969e-06
-2.04196e-05
-4.39665e-06
-1.87417e-05
-4.40449e-06
-1.70598e-05
-4.33818e-06
-1.5396e-05
-4.21397e-06
-1.37669e-05
-4.04855e-06
-1.21838e-05
-3.85816e-06
-1.06528e-05
-3.65769e-06
-9.17584e-06
-3.45973e-06
-7.75102e-06
-3.27411e-06
-6.37411e-06
-3.10764e-06
-5.03921e-06
-2.96421e-06
-3.73982e-06
-2.84493e-06
-2.46946e-06
-2.74877e-06
-1.22209e-06
-2.67355e-06
7.73695e-09
-2.61653e-06
1.22482e-06
-2.57501e-06
2.43344e-06
-2.54718e-06
3.63764e-06
-2.53236e-06
4.84149e-06
-2.53104e-06
6.04947e-06
-2.54519e-06
7.26669e-06
-2.57707e-06
8.4989e-06
-2.62899e-06
9.75208e-06
-2.70257e-06
1.10319e-05
-2.79809e-06
1.2343e-05
-2.91413e-06
1.36885e-05
-3.0466e-06
1.50687e-05
-3.18823e-06
1.64803e-05
-3.32885e-06
1.79156e-05
-3.45584e-06
1.93622e-05
-3.55472e-06
2.08024e-05
-3.61009e-06
2.22134e-05
-3.60638e-06
2.35678e-05
-3.5286e-06
2.48339e-05
-3.36309e-06
2.59766e-05
-3.09785e-06
2.69582e-05
-2.72284e-06
2.77389e-05
-2.23002e-06
2.82781e-05
-1.61371e-06
2.85348e-05
-8.71149e-07
2.84695e-05
-3.67131e-09
2.80456e-05
9.81592e-07
2.7232e-05
2.06937e-06
2.60065e-05
3.2332e-06
2.43599e-05
4.43187e-06
2.23015e-05
5.60648e-06
1.98645e-05
6.67864e-06
1.71113e-05
7.55071e-06
1.4138e-05
8.10972e-06
1.10755e-05
8.23715e-06
8.08639e-06
7.82696e-06
5.35455e-06
6.81376e-06
3.06488e-06
5.21223e-06
1.37191e-06
3.1672e-06
3.57165e-07
1.01097e-06
-2.38207e-08
-6.77186e-07
-1.02042e-06
-1.56904e-07
-7.61494e-07
-9.99308e-07
4.39362e-07
-2.67674e-06
3.08556e-06
-5.16272e-06
6.12199e-06
-8.31476e-06
8.86088e-06
-1.19279e-05
1.0918e-05
-1.5779e-05
1.21391e-05
-1.96554e-05
1.25287e-05
-2.33737e-05
1.2186e-05
-2.6788e-05
1.12584e-05
-2.97924e-05
9.90594e-06
-3.23184e-05
8.27832e-06
-3.43284e-05
6.50537e-06
-3.58111e-05
4.69277e-06
-3.67752e-05
2.9205e-06
-3.72448e-05
1.24554e-06
-3.72549e-05
-2.93163e-07
-3.68474e-05
-1.67049e-06
-3.60682e-05
-2.87207e-06
-3.49655e-05
-3.89177e-06
-3.35883e-05
-4.72945e-06
-3.19858e-05
-5.38928e-06
-3.02059e-05
-5.87902e-06
-2.82946e-05
-6.20968e-06
-2.62944e-05
-6.39564e-06
-2.42434e-05
-6.45438e-06
-2.21745e-05
-6.40615e-06
-2.01146e-05
-6.27309e-06
-1.80842e-05
-6.07817e-06
-1.60977e-05
-5.84405e-06
-1.41632e-05
-5.59165e-06
-1.22837e-05
-5.3388e-06
-1.04579e-05
-5.09953e-06
-8.68154e-06
-4.88368e-06
-6.94851e-06
-4.69697e-06
-5.25198e-06
-4.54127e-06
-3.58518e-06
-4.41548e-06
-1.94192e-06
-4.31681e-06
-3.16641e-07
-4.24183e-06
1.29544e-06
-4.18709e-06
2.89858e-06
-4.15025e-06
4.49676e-06
-4.13039e-06
6.094e-06
-4.12806e-06
7.6947e-06
-4.14565e-06
9.30392e-06
-4.18608e-06
1.09274e-05
-4.2523e-06
1.25714e-05
-4.34629e-06
1.42415e-05
-4.46798e-06
1.59426e-05
-4.61485e-06
1.76772e-05
-4.78075e-06
1.94448e-05
-4.95523e-06
2.12403e-05
-5.12381e-06
2.30538e-05
-5.26866e-06
2.48693e-05
-5.36948e-06
2.66647e-05
-5.40482e-06
2.84121e-05
-5.35315e-06
3.00782e-05
-5.1941e-06
3.16251e-05
-4.90939e-06
3.30111e-05
-4.48341e-06
3.41921e-05
-3.9035e-06
3.51224e-05
-3.15998e-06
3.57553e-05
-2.24651e-06
3.60449e-05
-1.16065e-06
3.59465e-05
9.46672e-08
3.54191e-05
1.5088e-06
3.44279e-05
3.06043e-06
3.29475e-05
4.7134e-06
3.09669e-05
6.41222e-06
2.84949e-05
8.07807e-06
2.55664e-05
9.60655e-06
2.22483e-05
1.0868e-05
1.86445e-05
1.17125e-05
1.48986e-05
1.1982e-05
1.11914e-05
1.1533e-05
7.73154e-06
1.02725e-05
4.7368e-06
8.20632e-06
2.40255e-06
5.5016e-06
8.58979e-07
2.55622e-06
1.15575e-07
6.89884e-08
-9.04478e-07
-2.89109e-07
-4.73392e-07
-1.49219e-06
1.64162e-06
-3.70582e-06
5.29903e-06
-6.84507e-06
9.26142e-06
-1.07127e-05
1.27287e-05
-1.50575e-05
1.52635e-05
-1.9621e-05
1.6703e-05
-2.4165e-05
1.70733e-05
-2.84898e-05
1.6511e-05
-3.24392e-05
1.52081e-05
-3.59017e-05
1.33689e-05
-3.88063e-05
1.1183e-05
-4.11163e-05
8.81463e-06
-4.28219e-05
6.39722e-06
-4.39344e-05
4.03222e-06
-4.44813e-05
1.79235e-06
-4.45014e-05
-2.72584e-07
-4.40411e-05
-2.13022e-06
-4.31511e-05
-3.76157e-06
-4.18849e-05
-5.15771e-06
-4.0297e-05
-6.31708e-06
-3.84422e-05
-7.24357e-06
-3.63749e-05
-7.9457e-06
-3.41473e-05
-8.43656e-06
-3.18083e-05
-8.73387e-06
-2.94022e-05
-8.85986e-06
-2.69671e-05
-8.8407e-06
-2.45344e-05
-8.70531e-06
-2.21282e-05
-8.48387e-06
-1.97655e-05
-8.20644e-06
-1.74559e-05
-7.90097e-06
-1.5203e-05
-7.59144e-06
-1.30056e-05
-7.29675e-06
-1.08589e-05
-7.03018e-06
-8.75617e-06
-6.79946e-06
-6.69005e-06
-6.6072e-06
-4.65339e-06
-6.45204e-06
-2.63982e-06
-6.33038e-06
-6.43937e-07
-6.23776e-06
1.3388e-06
-6.16987e-06
3.31234e-06
-6.12378e-06
5.28038e-06
-6.09829e-06
7.24673e-06
-6.09412e-06
9.2156e-06
-6.11411e-06
1.11919e-05
-6.16192e-06
1.31813e-05
-6.24125e-06
1.51901e-05
-6.35464e-06
1.72245e-05
-6.50193e-06
1.92897e-05
-6.67947e-06
2.13884e-05
-6.87875e-06
2.35196e-05
-7.08567e-06
2.56774e-05
-7.28075e-06
2.78496e-05
-7.43995e-06
3.00171e-05
-7.53613e-06
3.2154e-05
-7.54076e-06
3.42273e-05
-7.42546e-06
3.61978e-05
-7.16369e-06
3.80214e-05
-6.7321e-06
3.96502e-05
-6.11138e-06
4.10339e-05
-5.28645e-06
4.21211e-05
-4.24641e-06
4.286e-05
-2.98473e-06
4.31996e-05
-1.49971e-06
4.30909e-05
2.03854e-07
4.24884e-05
2.11164e-06
4.13532e-05
4.19604e-06
3.96561e-05
6.41093e-06
3.73826e-05
8.68598e-06
3.45394e-05
1.09215e-05
3.11607e-05
1.29854e-05
2.73149e-05
1.47136e-05
2.31113e-05
1.59156e-05
1.87035e-05
1.63889e-05
1.42894e-05
1.59462e-05
1.01035e-05
1.44578e-05
6.3991e-06
1.19107e-05
3.41797e-06
8.48374e-06
1.34475e-06
4.6316e-06
2.45416e-07
1.16943e-06
-6.60692e-07
-4.16383e-07
-5.74496e-08
-1.98174e-06
3.20752e-06
-4.74419e-06
8.06232e-06
-8.55525e-06
1.30734e-05
-1.31557e-05
1.73298e-05
-1.82424e-05
2.03509e-05
-2.35171e-05
2.19783e-05
-2.87156e-05
2.22723e-05
-3.36223e-05
2.14177e-05
-3.80733e-05
1.96591e-05
-4.19541e-05
1.725e-05
-4.51939e-05
1.44233e-05
-4.77586e-05
1.13791e-05
-4.96424e-05
8.27988e-06
-5.08608e-05
5.24931e-06
-5.1446e-05
2.37642e-06
-5.14414e-05
-2.77764e-07
-5.08982e-05
-2.67364e-06
-4.98723e-05
-4.78765e-06
-4.84222e-05
-6.60809e-06
-4.66077e-05
-8.13168e-06
-4.44895e-05
-9.36158e-06
-4.21282e-05
-1.03067e-05
-3.95826e-05
-1.09817e-05
-3.69081e-05
-1.14077e-05
-3.41551e-05
-1.16123e-05
-3.13671e-05
-1.16282e-05
-2.85798e-05
-1.14922e-05
-2.58204e-05
-1.12428e-05
-2.31079e-05
-1.09187e-05
-2.04528e-05
-1.05558e-05
-1.78587e-05
-1.01853e-05
-1.53236e-05
-9.83169e-06
-1.28413e-05
-9.51216e-06
-1.0404e-05
-9.23646e-06
-8.00322e-06
-9.0077e-06
-5.63113e-06
-8.82387e-06
-3.28126e-06
-8.6801e-06
-9.48372e-07
-8.57061e-06
1.3717e-06
-8.48997e-06
3.68242e-06
-8.43457e-06
5.98709e-06
-8.40296e-06
8.28917e-06
-8.39609e-06
1.05927e-05
-8.4174e-06
1.29024e-05
-8.47131e-06
1.52241e-05
-8.56262e-06
1.75645e-05
-8.69466e-06
1.99306e-05
-8.86768e-06
2.23287e-05
-9.07715e-06
2.47624e-05
-9.31204e-06
2.72314e-05
-9.55411e-06
2.97293e-05
-9.77803e-06
3.22426e-05
-9.95259e-06
3.47497e-05
-1.00425e-05
3.72208e-05
-1.0011e-05
3.96177e-05
-9.82159e-06
4.18956e-05
-9.44072e-06
4.40038e-05
-8.83938e-06
4.58879e-05
-7.99448e-06
4.74913e-05
-6.88884e-06
4.87568e-05
-5.51094e-06
4.96278e-05
-3.85462e-06
5.00484e-05
-1.91933e-06
4.99651e-05
2.88074e-07
4.93278e-05
2.7498e-06
4.80925e-05
5.4322e-06
4.62248e-05
8.27942e-06
4.37054e-05
1.12061e-05
4.05363e-05
1.40911e-05
3.67485e-05
1.67735e-05
3.24095e-05
1.90527e-05
2.7631e-05
2.0694e-05
2.25745e-05
2.14451e-05
1.74539e-05
2.10665e-05
1.25304e-05
1.93813e-05
8.0972e-06
1.63446e-05
4.44849e-06
1.21337e-05
1.83045e-06
7.25065e-06
3.70782e-07
2.62718e-06
-2.91563e-07
-5.50697e-07
4.93497e-07
-2.50603e-06
5.16421e-06
-5.86127e-06
1.14186e-05
-1.03937e-05
1.76068e-05
-1.57711e-05
2.27077e-05
-2.16306e-05
2.62107e-05
-2.76303e-05
2.79783e-05
-3.34789e-05
2.81215e-05
-3.89473e-05
2.68863e-05
-4.38669e-05
2.45787e-05
-4.81234e-05
2.15073e-05
-5.16495e-05
1.7951e-05
-5.44161e-05
1.41473e-05
-5.64233e-05
1.02882e-05
-5.76933e-05
6.51987e-06
-5.82643e-05
2.9478e-06
-5.81858e-05
-3.55696e-07
-5.75148e-05
-3.34402e-06
-5.63125e-05
-5.98943e-06
-5.46426e-05
-8.27752e-06
-5.25707e-05
-1.02032e-05
-5.01635e-05
-1.17683e-05
-4.74881e-05
-1.29815e-05
-4.46103e-05
-1.38587e-05
-4.15927e-05
-1.44246e-05
-3.84921e-05
-1.47124e-05
-3.53573e-05
-1.47626e-05
-3.22281e-05
-1.46211e-05
-2.91345e-05
-1.43363e-05
-2.60965e-05
-1.39566e-05
-2.31248e-05
-1.35274e-05
-2.02219e-05
-1.30882e-05
-1.73839e-05
-1.26699e-05
-1.46024e-05
-1.22938e-05
-1.18673e-05
-1.19716e-05
-9.16874e-06
-1.17064e-05
-6.49788e-06
-1.14949e-05
-3.84799e-06
-1.13303e-05
-1.21408e-06
-1.12049e-05
1.40752e-06
-1.11121e-05
4.01965e-06
-1.10473e-05
6.62499e-06
-1.1009e-05
9.22664e-06
-1.09984e-05
1.18284e-05
-1.10197e-05
1.44349e-05
-1.10784e-05
1.70523e-05
-1.11805e-05
1.9688e-05
-1.13308e-05
2.23504e-05
-1.15306e-05
2.50479e-05
-1.17751e-05
2.77864e-05
-1.20509e-05
3.05669e-05
-1.2335e-05
3.33839e-05
-1.25953e-05
3.62234e-05
-1.27923e-05
3.90619e-05
-1.28811e-05
4.18659e-05
-1.2815e-05
4.45926e-05
-1.25481e-05
4.71906e-05
-1.20385e-05
4.96024e-05
-1.12509e-05
5.17664e-05
-1.0158e-05
5.36192e-05
-8.74111e-06
5.50979e-05
-6.98889e-06
5.61406e-05
-4.89632e-06
5.66866e-05
-2.46443e-06
5.66777e-05
2.97928e-07
5.60585e-05
3.36996e-06
5.47787e-05
6.71283e-06
5.27973e-05
1.02616e-05
5.00877e-05
1.39164e-05
4.66448e-05
1.75345e-05
4.24935e-05
2.09252e-05
3.76968e-05
2.38495e-05
3.23655e-05
2.60254e-05
2.6666e-05
2.71447e-05
2.08259e-05
2.69068e-05
1.51341e-05
2.50739e-05
9.92722e-06
2.15525e-05
5.5601e-06
1.65014e-05
2.35157e-06
1.04582e-05
5.03806e-07
4.47202e-06
2.12929e-07
-7.0828e-07
1.20254e-06
-3.11649e-06
7.57367e-06
-7.15009e-06
1.54529e-05
-1.24921e-05
2.29493e-05
-1.87204e-05
2.89365e-05
-2.54027e-05
3.28928e-05
-3.21499e-05
3.47259e-05
-3.86452e-05
3.46176e-05
-4.465e-05
3.28913e-05
-4.99959e-05
2.99248e-05
-5.45744e-05
2.60863e-05
-5.83252e-05
2.17033e-05
-6.12274e-05
1.70517e-05
-6.32896e-05
1.23526e-05
-6.45424e-05
7.77474e-06
-6.50324e-05
3.43977e-06
-6.4817e-05
-5.69246e-07
-6.39598e-05
-4.19943e-06
-6.25281e-05
-7.41963e-06
-6.05913e-05
-1.02132e-05
-5.82207e-05
-1.2573e-05
-5.54891e-05
-1.4499e-05
-5.2471e-05
-1.59987e-05
-4.924e-05
-1.70889e-05
-4.58663e-05
-1.77976e-05
-4.24134e-05
-1.81647e-05
-3.89354e-05
-1.82401e-05
-3.54759e-05
-1.80804e-05
-3.20668e-05
-1.77454e-05
-2.87283e-05
-1.72951e-05
-2.54699e-05
-1.6786e-05
-2.22917e-05
-1.62668e-05
-1.91864e-05
-1.57756e-05
-1.61421e-05
-1.53386e-05
-1.31459e-05
-1.49686e-05
-1.01853e-05
-1.46677e-05
-7.2507e-06
-1.44302e-05
-4.33501e-06
-1.42467e-05
-1.43378e-06
-1.41069e-05
1.45584e-06
-1.40026e-05
4.33578e-06
-1.39283e-05
7.20784e-06
-1.38821e-05
1.00746e-05
-1.38662e-05
1.29393e-05
-1.38854e-05
1.58067e-05
-1.39466e-05
1.8683e-05
-1.40577e-05
2.15767e-05
-1.42253e-05
2.44984e-05
-1.44531e-05
2.74595e-05
-1.4737e-05
3.04696e-05
-1.50617e-05
3.35329e-05
-1.53989e-05
3.6646e-05
-1.57089e-05
3.97955e-05
-1.59423e-05
4.29572e-05
-1.60431e-05
4.60948e-05
-1.59528e-05
4.91603e-05
-1.56139e-05
5.20962e-05
-1.49744e-05
5.48369e-05
-1.39915e-05
5.7313e-05
-1.26338e-05
5.94537e-05
-1.08815e-05
6.11899e-05
-8.72447e-06
6.24543e-05
-6.15992e-06
6.31818e-05
-3.19095e-06
6.33089e-05
1.71872e-07
6.27742e-05
3.90574e-06
6.15201e-05
7.96806e-06
5.94965e-05
1.22863e-05
5.66668e-05
1.67469e-05
5.30161e-05
2.11857e-05
4.85592e-05
2.53824e-05
4.33509e-05
2.90581e-05
3.74956e-05
3.18809e-05
3.11594e-05
3.34813e-05
2.45796e-05
3.3487e-05
1.80708e-05
3.15835e-05
1.20166e-05
2.76072e-05
6.84239e-06
2.16749e-05
2.95748e-06
1.4341e-05
6.60817e-07
6.76791e-06
8.75534e-07
-9.09319e-07
2.11253e-06
-3.87616e-06
1.05412e-05
-8.72217e-06
2.02992e-05
-1.50025e-05
2.92298e-05
-2.21808e-05
3.61157e-05
-2.97446e-05
4.04559e-05
-3.72568e-05
4.22381e-05
-4.43806e-05
4.17418e-05
-5.08759e-05
3.93867e-05
-5.65835e-05
3.56314e-05
-6.14068e-05
3.09084e-05
-6.52984e-05
2.55943e-05
-6.82492e-05
2.00023e-05
-7.02789e-05
1.43826e-05
-7.14291e-05
8.92551e-06
-7.17571e-05
3.7686e-06
-7.13296e-05
-9.95382e-07
-7.02188e-05
-5.30889e-06
-6.84981e-05
-9.13895e-06
-6.62427e-05
-1.24675e-05
-6.35293e-05
-1.52854e-05
-6.04375e-05
-1.759e-05
-5.7049e-05
-1.93863e-05
-5.3446e-05
-2.06909e-05
-4.9707e-05
-2.15356e-05
-4.59024e-05
-2.19685e-05
-4.20912e-05
-2.20506e-05
-3.83195e-05
-2.18515e-05
-3.46201e-05
-2.14443e-05
-3.10123e-05
-2.09026e-05
-2.75024e-05
-2.02957e-05
-2.40864e-05
-1.96829e-05
-2.07519e-05
-1.91103e-05
-1.74822e-05
-1.86087e-05
-1.42598e-05
-1.81914e-05
-1.10701e-05
-1.78579e-05
-7.90213e-06
-1.75985e-05
-4.7493e-06
-1.73998e-05
-1.6083e-06
-1.72482e-05
1.52219e-06
-1.71333e-05
4.64256e-06
-1.70489e-05
7.75324e-06
-1.69931e-05
1.08558e-05
-1.6969e-05
1.39528e-05
-1.69827e-05
1.70483e-05
-1.70424e-05
2.01486e-05
-1.71581e-05
2.32626e-05
-1.73395e-05
2.64038e-05
-1.75943e-05
2.95882e-05
-1.79215e-05
3.28309e-05
-1.83043e-05
3.61409e-05
-1.87088e-05
3.9519e-05
-1.90867e-05
4.29545e-05
-1.93774e-05
4.64234e-05
-1.95117e-05
4.9888e-05
-1.94168e-05
5.32961e-05
-1.90214e-05
5.65834e-05
-1.8261e-05
5.96759e-05
-1.70834e-05
6.24953e-05
-1.54526e-05
6.49631e-05
-1.33486e-05
6.70037e-05
-1.07642e-05
6.85449e-05
-7.70005e-06
6.95171e-05
-4.16197e-06
6.98521e-05
-1.61761e-07
6.94818e-05
4.27743e-06
6.83396e-05
9.11174e-06
6.63641e-05
1.42633e-05
6.35057e-05
1.96064e-05
5.9736e-05
2.49564e-05
5.50558e-05
3.00632e-05
4.95056e-05
3.46088e-05
4.31769e-05
3.821e-05
3.62269e-05
4.04319e-05
2.8894e-05
4.08203e-05
2.15125e-05
3.89651e-05
1.45135e-05
3.46052e-05
8.40453e-06
2.77815e-05
3.71062e-06
1.90329e-05
8.60376e-07
9.6195e-06
1.735e-06
-1.17942e-06
3.29216e-06
-4.86312e-06
1.42253e-05
-1.07096e-05
2.6146e-05
-1.80936e-05
3.66136e-05
-2.63333e-05
4.43567e-05
-3.48254e-05
4.89473e-05
-4.30916e-05
5.05035e-05
-5.07876e-05
4.94375e-05
-5.76866e-05
4.62854e-05
-6.36509e-05
4.15948e-05
-6.86058e-05
3.58617e-05
-7.25225e-05
2.95094e-05
-7.54077e-05
2.28859e-05
-7.72952e-05
1.62686e-05
-7.824e-05
9.86904e-06
-7.83122e-05
3.8402e-06
-7.75907e-05
-1.7169e-06
-7.61566e-05
-6.74269e-06
-7.40899e-05
-1.12052e-05
-7.14704e-05
-1.50866e-05
-6.83798e-05
-1.83757e-05
-6.49033e-05
-2.10661e-05
-6.11302e-05
-2.31589e-05
-5.71516e-05
-2.46689e-05
-5.30547e-05
-2.56318e-05
-4.89163e-05
-2.61062e-05
-4.47989e-05
-2.61674e-05
-4.07496e-05
-2.59002e-05
-3.68002e-05
-2.53931e-05
-3.29669e-05
-2.47356e-05
-2.92511e-05
-2.40115e-05
-2.56422e-05
-2.32918e-05
-2.21213e-05
-2.26313e-05
-1.86645e-05
-2.20654e-05
-1.52491e-05
-2.16069e-05
-1.18578e-05
-2.12492e-05
-8.4796e-06
-2.09766e-05
-5.10939e-06
-2.07698e-05
-1.74634e-06
-2.0611e-05
1.60811e-06
-2.04874e-05
4.95163e-06
-2.0392e-05
8.28234e-06
-2.03234e-05
1.16001e-05
-2.02864e-05
1.49062e-05
-2.02885e-05
1.82031e-05
-2.0339e-05
2.14955e-05
-2.04502e-05
2.47922e-05
-2.06359e-05
2.81091e-05
-2.09108e-05
3.14692e-05
-2.12812e-05
3.48952e-05
-2.17298e-05
3.84032e-05
-2.22162e-05
4.20003e-05
-2.2683e-05
4.56806e-05
-2.30569e-05
4.9423e-05
-2.32533e-05
5.31897e-05
-2.31828e-05
5.69263e-05
-2.27572e-05
6.05621e-05
-2.18961e-05
6.40147e-05
-2.05352e-05
6.71959e-05
-1.8633e-05
7.00192e-05
-1.6171e-05
7.24031e-05
-1.31471e-05
7.42715e-05
-9.56733e-06
7.55516e-05
-5.44082e-06
7.61711e-05
-7.79928e-07
7.60555e-05
4.3944e-06
7.51277e-05
1.00409e-05
7.33123e-05
1.60802e-05
7.05435e-05
2.23766e-05
6.67755e-05
2.87256e-05
6.19908e-05
3.48489e-05
5.62095e-05
4.03909e-05
4.95007e-05
4.49195e-05
4.19996e-05
4.79336e-05
3.39307e-05
4.88893e-05
2.56345e-05
4.72606e-05
1.75841e-05
4.26537e-05
1.03784e-05
3.49846e-05
4.68995e-06
2.47214e-05
1.12592e-06
1.31837e-05
2.85786e-06
-1.55463e-06
4.84674e-06
-6.18116e-06
1.88524e-05
-1.3275e-05
3.32406e-05
-2.19533e-05
4.52915e-05
-3.1353e-05
5.37576e-05
-4.07766e-05
5.83717e-05
-4.97229e-05
5.94496e-05
-5.78658e-05
5.75802e-05
-6.50154e-05
5.34356e-05
-7.10735e-05
4.76538e-05
-7.59983e-05
4.07874e-05
-7.97859e-05
3.32978e-05
-8.24617e-05
2.55622e-05
-8.40756e-05
1.78825e-05
-8.46979e-05
1.04912e-05
-8.44147e-05
3.55693e-06
-8.33187e-05
-2.81263e-06
-8.1501e-05
-8.56011e-06
-7.90468e-05
-1.36592e-05
-7.60387e-05
-1.80947e-05
-7.25608e-05
-2.18537e-05
-6.87025e-05
-2.49247e-05
-6.45595e-05
-2.73022e-05
-6.02318e-05
-2.89968e-05
-5.58153e-05
-3.00484e-05
-5.13921e-05
-3.05298e-05
-4.70247e-05
-3.05352e-05
-4.27587e-05
-3.01667e-05
-3.86224e-05
-2.953e-05
-3.46264e-05
-2.87322e-05
-3.07642e-05
-2.78742e-05
-2.70171e-05
-2.70395e-05
-2.33576e-05
-2.62913e-05
-1.97528e-05
-2.56706e-05
-1.61733e-05
-2.51867e-05
-1.26005e-05
-2.48224e-05
-9.02491e-06
-2.45524e-05
-5.44484e-06
-2.43502e-05
-1.86418e-06
-2.41919e-05
1.71105e-06
-2.40629e-05
5.27406e-06
-2.39554e-05
8.81901e-06
-2.38687e-05
1.23432e-05
-2.38111e-05
1.58458e-05
-2.37914e-05
1.93257e-05
-2.38193e-05
2.27844e-05
-2.39093e-05
2.62273e-05
-2.40792e-05
2.96722e-05
-2.43561e-05
3.31518e-05
-2.47611e-05
3.6699e-05
-2.52772e-05
4.03388e-05
-2.58563e-05
4.40867e-05
-2.64312e-05
4.79447e-05
-2.69152e-05
5.18976e-05
-2.72064e-05
5.5911e-05
-2.71964e-05
5.99307e-05
-2.67772e-05
6.3882e-05
-2.58475e-05
6.76734e-05
-2.43266e-05
7.12071e-05
-2.21665e-05
7.43888e-05
-1.93525e-05
7.71328e-05
-1.58909e-05
7.93613e-05
-1.17955e-05
8.10006e-05
-7.07966e-06
8.19764e-05
-1.7554e-06
8.22093e-05
4.16191e-06
8.16109e-05
1.06398e-05
8.00886e-05
1.7603e-05
7.75572e-05
2.49087e-05
7.39502e-05
3.23333e-05
6.92283e-05
3.95715e-05
6.33852e-05
4.62349e-05
5.64564e-05
5.18494e-05
4.8537e-05
5.58538e-05
3.98138e-05
5.76126e-05
3.06077e-05
5.64659e-05
2.14153e-05
5.1845e-05
1.29287e-05
4.34712e-05
6.00066e-06
3.16518e-05
1.49526e-06
1.76868e-05
4.3536e-06
-2.09267e-06
6.93948e-06
-7.98127e-06
2.47418e-05
-1.66318e-05
4.18926e-05
-2.67959e-05
5.54561e-05
-3.73993e-05
6.4361e-05
-4.76669e-05
6.86418e-05
-5.71134e-05
6.88983e-05
-6.54731e-05
6.59417e-05
-7.2628e-05
6.05922e-05
-7.85425e-05
5.35702e-05
-8.32194e-05
4.54667e-05
-8.66836e-05
3.67644e-05
-8.89799e-05
2.78608e-05
-9.01739e-05
1.90783e-05
-9.03522e-05
1.06711e-05
-8.96193e-05
2.82536e-06
-8.80843e-05
-4.34627e-06
-8.58479e-05
-1.07953e-05
-8.29976e-05
-1.65087e-05
-7.96146e-05
-2.14772e-05
-7.5782e-05
-2.56863e-05
-7.15894e-05
-2.91175e-05
-6.71366e-05
-3.17553e-05
-6.25322e-05
-3.36017e-05
-5.78806e-05
-3.47006e-05
-5.32655e-05
-3.51459e-05
-4.87446e-05
-3.50574e-05
-4.43568e-05
-3.4556e-05
-4.01244e-05
-3.37637e-05
-3.60498e-05
-3.2808e-05
-3.21156e-05
-3.18094e-05
-2.82932e-05
-3.08629e-05
-2.45463e-05
-3.0039e-05
-2.08305e-05
-2.93873e-05
-1.71088e-05
-2.89093e-05
-1.33637e-05
-2.85684e-05
-9.59042e-06
-2.83267e-05
-5.79333e-06
-2.81483e-05
-1.98416e-06
-2.80021e-05
1.82442e-06
-2.78725e-05
5.61882e-06
-2.77508e-05
9.38679e-06
-2.76378e-05
1.31223e-05
-2.75477e-05
1.68215e-05
-2.74916e-05
2.0478e-05
-2.74768e-05
2.40867e-05
-2.75189e-05
2.76441e-05
-2.76375e-05
3.11669e-05
-2.78798e-05
3.47024e-05
-2.82975e-05
3.82964e-05
-2.88723e-05
4.19829e-05
-2.95438e-05
4.57879e-05
-3.02372e-05
4.97247e-05
-3.08532e-05
5.37875e-05
-3.12702e-05
5.79498e-05
-3.13597e-05
6.2163e-05
-3.09913e-05
6.63514e-05
-3.00367e-05
7.04159e-05
-2.83916e-05
7.42484e-05
-2.59996e-05
7.7749e-05
-2.28537e-05
8.08312e-05
-1.89737e-05
8.3419e-05
-1.43838e-05
8.54414e-05
-9.10257e-06
8.68266e-05
-3.14108e-06
8.74932e-05
3.49491e-06
8.73417e-05
1.07909e-05
8.62596e-05
1.86849e-05
8.41385e-05
2.70297e-05
8.08905e-05
3.55815e-05
7.64533e-05
4.40092e-05
7.07903e-05
5.18989e-05
6.38923e-05
5.87486e-05
5.57923e-05
6.39549e-05
4.66044e-05
6.68012e-05
3.65876e-05
6.64833e-05
2.6221e-05
6.22131e-05
1.62693e-05
5.3426e-05
7.79439e-06
4.01293e-05
2.03187e-06
2.34479e-05
6.39027e-06
-2.89618e-06
9.83603e-06
-1.05001e-05
3.2346e-05
-2.10742e-05
5.2468e-05
-3.28702e-05
6.72547e-05
-4.45981e-05
7.60891e-05
-5.54665e-05
7.95119e-05
-6.50766e-05
7.851e-05
-7.32841e-05
7.41507e-05
-8.00875e-05
6.7397e-05
-8.55401e-05
5.90239e-05
-8.96975e-05
4.96251e-05
-9.26119e-05
3.96799e-05
-9.43443e-05
2.95939e-05
-9.49724e-05
1.97069e-05
-9.45973e-05
1.02966e-05
-9.33437e-05
1.5721e-06
-9.13399e-05
-6.34971e-06
-8.86947e-05
-1.34402e-05
-8.54919e-05
-1.97113e-05
-8.18055e-05
-2.51636e-05
-7.77115e-05
-2.97804e-05
-7.32945e-05
-3.35347e-05
-6.86534e-05
-3.63966e-05
-6.39042e-05
-3.83513e-05
-5.91597e-05
-3.94455e-05
-5.44998e-05
-3.98063e-05
-4.99677e-05
-3.959e-05
-4.55892e-05
-3.89349e-05
-4.13783e-05
-3.7975e-05
-3.73276e-05
-3.68589e-05
-3.34049e-05
-3.57322e-05
-2.95716e-05
-3.46962e-05
-2.57863e-05
-3.38247e-05
-2.19893e-05
-3.31847e-05
-1.81347e-05
-3.27644e-05
-1.42128e-05
-3.24908e-05
-1.02276e-05
-3.23126e-05
-6.19198e-06
-3.21845e-05
-2.12973e-06
-3.2065e-05
1.93843e-06
-3.19411e-05
5.98987e-06
-3.18026e-05
1.00019e-05
-3.16502e-05
1.39656e-05
-3.15117e-05
1.78746e-05
-3.14009e-05
2.17142e-05
-3.13166e-05
2.54709e-05
-3.12759e-05
2.91215e-05
-3.12883e-05
3.26739e-05
-3.14324e-05
3.62007e-05
-3.18246e-05
3.97626e-05
-3.24344e-05
4.33976e-05
-3.31792e-05
4.71434e-05
-3.39833e-05
5.10284e-05
-3.47384e-05
5.50592e-05