/*--------------------------------*- C++ -*----------------------------------*\
| =========                 |                                                 |
| \\      /  F ield         | OpenFOAM: The Open Source CFD Toolbox           |
|  \\    /   O peration     | Version:  2412                                  |
|   \\  /    A nd           | Website:  www.openfoam.com                      |
|    \\/     M anipulation  |                                                 |
\*---------------------------------------------------------------------------*/
FoamFile
{
    version     2.0;
    format      ascii;
    arch        "LSB;label=32;scalar=64";
    class       surfaceScalarField;
    location    "2.55";
    object      alphaPhi0.mercury;
}
// * * * * * * * * * * * * * * * * * * * * * * * * * * * * * * * * * * * * * //

dimensions      [0 3 -1 0 0 0 0];

oriented        oriented;

internalField   nonuniform List<scalar> 
12640
(
3.31779e-07
-3.31779e-07
-4.91781e-07
8.23539e-07
-4.06057e-07
-8.56759e-08
-2.47983e-07
-1.57737e-07
-2.99053e-07
5.17796e-08
-5.71456e-07
2.73435e-07
-1.05702e-06
4.86809e-07
-1.75852e-06
7.02849e-07
-2.66475e-06
9.07652e-07
-3.88617e-06
1.22295e-06
-5.33947e-06
1.45496e-06
-7.08225e-06
1.74451e-06
-9.13298e-06
2.05254e-06
-1.16229e-05
2.49191e-06
-1.45431e-05
2.92235e-06
-1.79378e-05
3.3966e-06
-2.18468e-05
3.91063e-06
-2.62395e-05
4.39425e-06
-3.11107e-05
4.8727e-06
-3.63837e-05
5.2745e-06
-4.19404e-05
5.55776e-06
-4.77136e-05
5.7732e-06
-5.35159e-05
5.80176e-06
-5.91542e-05
5.63763e-06
-6.4457e-05
5.30288e-06
-6.91722e-05
4.71576e-06
-7.30519e-05
3.88042e-06
-7.58652e-05
2.81388e-06
-7.73568e-05
1.492e-06
-7.72944e-05
-6.1911e-08
-7.55494e-05
-1.74468e-06
-7.20151e-05
-3.53409e-06
-6.66009e-05
-5.41402e-06
-5.9295e-05
-7.30557e-06
-5.01826e-05
-9.11196e-06
-3.94551e-05
-1.07271e-05
-2.7352e-05
-1.21029e-05
-1.41443e-05
-1.32076e-05
-2.85166e-07
-1.38594e-05
1.38175e-05
-1.41034e-05
2.77411e-05
-1.39248e-05
4.10377e-05
-1.32977e-05
5.3296e-05
-1.22593e-05
6.41538e-05
-1.08581e-05
7.33587e-05
-9.20463e-06
8.06971e-05
-7.33731e-06
8.60489e-05
-5.35006e-06
8.93865e-05
-3.33562e-06
9.07476e-05
-1.35927e-06
9.0234e-05
5.15505e-07
8.80127e-05
2.22293e-06
8.42825e-05
3.73154e-06
7.92551e-05
5.0283e-06
7.32619e-05
5.99363e-06
6.65564e-05
6.70559e-06
5.93675e-05
7.18866e-06
5.19577e-05
7.40925e-06
4.45396e-05
7.41733e-06
3.73043e-05
7.23424e-06
3.04184e-05
6.88436e-06
2.4024e-05
6.39256e-06
1.8231e-05
5.79094e-06
1.30541e-05
5.17524e-06
8.55732e-06
4.49594e-06
4.7477e-06
3.80981e-06
1.58439e-06
3.1642e-06
-9.4068e-07
2.52612e-06
-2.91805e-06
1.97812e-06
-4.37017e-06
1.45246e-06
-5.47518e-06
1.10516e-06
-6.1837e-06
7.08771e-07
-6.50491e-06
3.21642e-07
-6.44986e-06
-5.46222e-08
-6.12549e-06
-3.24202e-07
-5.47349e-06
-6.52291e-07
-4.52748e-06
-9.46656e-07
-3.3084e-06
-1.21975e-06
-2.12133e-06
-1.18729e-06
-1.84929e-06
-2.71588e-07
-1.84853e-06
-1.74246e-06
1.41119e-06
-4.01059e-06
3.09156e-06
-3.61763e-06
-4.78267e-07
-2.57726e-06
-1.19721e-06
-1.46104e-06
-1.06306e-06
-2.60767e-07
-9.25136e-07
1.0553e-06
-8.27358e-07
2.44902e-06
-6.88801e-07
3.89288e-06
-5.33988e-07
5.52626e-06
-4.08041e-07
7.06555e-06
-8.16382e-08
8.4397e-06
3.73252e-07
9.53169e-06
9.63383e-07
1.03208e-05
1.70547e-06
1.06635e-05
2.58217e-06
1.04857e-05
3.57678e-06
9.72021e-06
4.6783e-06
8.36587e-06
5.7501e-06
6.38206e-06
6.85714e-06
3.72623e-06
7.93012e-06
4.54782e-07
8.82864e-06
-3.33816e-06
9.56575e-06
-7.55722e-06
1.0021e-05
-1.20521e-05
1.01333e-05
-1.66209e-05
9.87299e-06
-2.106e-05
9.15599e-06
-2.51661e-05
7.98739e-06
-2.86685e-05
6.31656e-06
-3.13608e-05
4.18424e-06
-3.30439e-05
1.62093e-06
-3.35501e-05
-1.2384e-06
-3.27071e-05
-4.37655e-06
-3.0438e-05
-7.68218e-06
-2.66948e-05
-1.10475e-05
-2.15636e-05
-1.42419e-05
-1.52148e-05
-1.70748e-05
-7.83193e-06
-1.9485e-05
2.56374e-07
-2.12957e-05
8.87384e-06
-2.24769e-05
1.76475e-05
-2.2877e-05
2.62417e-05
-2.25186e-05
3.42464e-05
-2.13014e-05
4.13704e-05
-1.93819e-05
4.73326e-05
-1.68184e-05
5.1912e-05
-1.3782e-05
5.49638e-05
-1.03871e-05
5.64003e-05
-6.78488e-06
5.62157e-05
-3.14952e-06
5.44658e-05
3.91744e-07
5.12885e-05
3.69362e-06
4.6877e-05
6.63514e-06
4.14842e-05
9.12478e-06
3.53413e-05
1.11718e-05
2.87187e-05
1.26166e-05
2.18609e-05
1.35636e-05
1.50718e-05
1.39774e-05
8.52435e-06
1.39558e-05
2.42475e-06
1.35154e-05
-3.06501e-06
1.2722e-05
-7.78039e-06
1.15978e-05
-1.16786e-05
1.02894e-05
-1.47664e-05
8.87844e-06
-1.69346e-05
7.34429e-06
-1.83127e-05
5.87565e-06
-1.89107e-05
4.41003e-06
-1.88015e-05
3.0571e-06
-1.80766e-05
1.80286e-06
-1.68809e-05
7.83404e-07
-1.52888e-05
-1.39108e-07
-1.33454e-05
-8.3808e-07
-1.1267e-05
-1.36962e-06
-9.1406e-06
-1.80478e-06
-7.08748e-06
-2.10809e-06
-5.04037e-06
-2.37212e-06
-3.09129e-06
-2.60255e-06
-1.19069e-06
-2.84833e-06
6.56559e-07
-3.06744e-06
1.83645e-06
-2.36685e-06
5.35019e-07
1.0305e-06
-1.31453e-06
-6.14606e-07
2.02585e-06
-5.47014e-07
3.02245e-06
2.17953e-06
-3.20585e-06
5.50806e-06
-4.52641e-06
8.85355e-06
-4.40894e-06
1.21832e-05
-4.25499e-06
1.55705e-05
-4.21456e-06
1.90352e-05
-4.15336e-06
2.25473e-05
-4.04572e-06
2.6014e-05
-3.87419e-06
2.94142e-05
-3.48125e-06
3.26196e-05
-2.83161e-06
3.55289e-05
-1.94566e-06
3.81015e-05
-8.66963e-07
4.0193e-05
4.90606e-07
4.16914e-05
2.07766e-06
4.24924e-05
3.87585e-06
4.25354e-05
5.70523e-06
4.17797e-05
7.61143e-06
4.02268e-05
9.48288e-06
3.78506e-05
1.12056e-05
3.47486e-05
1.26689e-05
3.09969e-05
1.37735e-05
2.67223e-05
1.44082e-05
2.20791e-05
1.45161e-05
1.72573e-05
1.39775e-05
1.25195e-05
1.27244e-05
8.04882e-06
1.07863e-05
4.05764e-06
8.17479e-06
7.54492e-07
4.92426e-06
-1.64677e-06
1.16399e-06
-3.01988e-06
-3.00156e-06
-3.30946e-06
-7.39024e-06
-2.58093e-06
-1.17734e-05
-8.16499e-07
-1.60035e-05
1.90392e-06
-1.97922e-05
5.41721e-06
-2.29948e-05
9.5105e-06
-2.5385e-05
1.3934e-05
-2.68959e-05
1.841e-05
-2.73486e-05
2.26765e-05
-2.67809e-05
2.64921e-05
-2.51137e-05
2.96155e-05
-2.25033e-05
3.17977e-05
-1.89999e-05
3.28454e-05
-1.48303e-05
3.26789e-05
-1.02222e-05
3.11842e-05
-5.29215e-06
2.83587e-05
-3.26235e-07
2.42846e-05
4.46414e-06
1.9068e-05
8.90907e-06
1.29291e-05
1.27736e-05
6.06134e-06
1.59931e-05
-1.08402e-06
1.83183e-05
-8.46674e-06
2.00007e-05
-1.57775e-05
2.08756e-05
-2.28439e-05
2.10448e-05
-2.93242e-05
2.04368e-05
-3.50865e-05
1.92785e-05
-4.00154e-05
1.76524e-05
-4.39552e-05
1.554e-05
-4.68797e-05
1.3217e-05
-4.87344e-05
1.07366e-05
-4.95902e-05
8.20351e-06
-4.94389e-05
5.72761e-06
-4.84229e-05
3.39685e-06
-4.66107e-05
1.2473e-06
-4.41636e-05
-6.42651e-07
-4.11436e-05
-2.23588e-06
-3.77241e-05
-3.55872e-06
-3.39298e-05
-4.6331e-06
-2.99414e-05
-5.35881e-06
-2.58421e-05
-5.90487e-06
-2.17048e-05
-6.24626e-06
-1.75493e-05
-6.52885e-06
-1.34479e-05
-6.70537e-06
-9.29357e-06
-7.00404e-06
-5.10256e-06
-7.2596e-06
-1.44563e-06
-6.02496e-06
-4.72173e-07
5.51557e-08
-1.78936e-06
-1.263e-07
2.15116e-06
7.03602e-07
2.18965e-06
4.17e-06
-6.67454e-06
8.11856e-06
-8.47691e-06
1.20129e-05
-8.30491e-06
1.59126e-05
-8.156e-06
1.98761e-05
-8.17922e-06
2.38881e-05
-8.16613e-06
2.7982e-05
-8.14023e-06
3.20851e-05
-7.9778e-06
3.61069e-05
-7.50349e-06
3.99992e-05
-6.72429e-06
4.36433e-05
-5.59077e-06
4.68893e-05
-4.11441e-06
4.96169e-05
-2.2386e-06
5.17407e-05
-4.74638e-08
5.31455e-05
2.47006e-06
5.36901e-05
5.15993e-06
5.33385e-05
7.9627e-06
5.20835e-05
1.07381e-05
4.98837e-05
1.34059e-05
4.6842e-05
1.57105e-05
4.30225e-05
1.75922e-05
3.85732e-05
1.88564e-05
3.365e-05
1.94383e-05
2.83892e-05
1.92377e-05
2.31171e-05
1.79962e-05
1.79596e-05
1.59439e-05
1.32313e-05
1.29036e-05
9.14545e-06
9.01084e-06
5.8849e-06
4.42572e-06
3.60668e-06
-7.21734e-07
2.42018e-06
-6.20171e-06
2.33531e-06
-1.1686e-05
3.34228e-06
-1.70073e-05
5.31249e-06
-2.17588e-05
8.08414e-06
-2.57624e-05
1.14554e-05
-2.87519e-05
1.51534e-05
-3.05892e-05
1.89426e-05
-3.1133e-05
2.2596e-05
-3.04299e-05
2.56978e-05
-2.82116e-05
2.80429e-05
-2.48453e-05
2.93936e-05
-2.03485e-05
2.95537e-05
-1.49894e-05
2.83837e-05
-9.05186e-06
2.58952e-05
-2.80406e-06
2.21051e-05
3.4633e-06
1.70963e-05
9.47235e-06
1.10838e-05
1.49209e-05
4.12563e-06
1.97313e-05
-3.48935e-06
2.36077e-05
-1.15449e-05
2.63736e-05
-1.96363e-05
2.80921e-05
-2.75302e-05
2.87696e-05
-3.49538e-05
2.84687e-05
-4.17452e-05
2.72286e-05
-4.76468e-05
2.51807e-05
-5.25172e-05
2.25239e-05
-5.63332e-05
1.93578e-05
-5.89977e-05
1.58841e-05
-6.04759e-05
1.22178e-05
-6.08339e-05
8.56463e-06
-6.01559e-05
5.05263e-06
-5.84818e-05
1.72526e-06
-5.59697e-05
-1.26266e-06
-5.28085e-05
-3.80208e-06
-4.90371e-05
-6.00615e-06
-4.48365e-05
-7.75871e-06
-4.03942e-05
-9.07518e-06
-3.57749e-05
-9.97796e-06
-3.10594e-05
-1.06202e-05
-2.62832e-05
-1.10227e-05
-2.15681e-05
-1.12445e-05
-1.68255e-05
-1.14488e-05
-1.20696e-05
-1.17612e-05
-7.24824e-06
-1.20826e-05
-2.91825e-06
-1.03574e-05
-1.13274e-06
-1.73392e-06
-2.92432e-06
2.53809e-08
2.12376e-06
9.51249e-07
1.26051e-06
4.53144e-06
-1.02572e-05
8.54336e-06
-1.24908e-05
1.24807e-05
-1.22438e-05
1.64786e-05
-1.21552e-05
2.04957e-05
-1.21971e-05
2.46923e-05
-1.23631e-05
2.89871e-05
-1.24352e-05
3.33966e-05
-1.23874e-05
3.78064e-05
-1.19134e-05
4.2115e-05
-1.10326e-05
4.61987e-05
-9.67436e-06
4.99085e-05
-7.82412e-06
5.3063e-05
-5.39289e-06
5.54989e-05
-2.48281e-06
5.71686e-05
8.01233e-07
5.78838e-05
4.44541e-06
5.75888e-05
8.25804e-06
5.62521e-05
1.20751e-05
5.39072e-05
1.57509e-05
5.05613e-05
1.9056e-05
4.61928e-05
2.19597e-05
4.11407e-05
2.39073e-05
3.54458e-05
2.51325e-05
2.94277e-05
2.52557e-05
2.32306e-05
2.4194e-05
1.72604e-05
2.1915e-05
1.17232e-05
1.84417e-05
6.91364e-06
1.38213e-05
3.08535e-06
8.25483e-06
3.70031e-07
1.99436e-06
-9.7414e-07
-4.85678e-06
-1.05655e-06
-1.16027e-05
1.05561e-07
-1.81684e-05
2.45758e-06
-2.41096e-05
5.955e-06
-2.92584e-05
1.0165e-05
-3.296e-05
1.48588e-05
-3.52808e-05
1.97085e-05
-3.59799e-05
2.43027e-05
-3.50207e-05
2.83305e-05
-3.22356e-05
3.14486e-05
-2.79594e-05
3.33877e-05
-2.22838e-05
3.39411e-05
-1.55393e-05
3.29495e-05
-8.05718e-06
3.03268e-05
-1.78898e-07
2.61518e-05
7.6401e-06
2.04845e-05
1.51407e-05
1.34713e-05
2.19346e-05
5.60019e-06
2.76022e-05
-2.98234e-06
3.21895e-05
-1.20142e-05
3.54046e-05
-2.10902e-05
3.7167e-05
-2.98979e-05
3.75762e-05
-3.81314e-05
3.67012e-05
-4.5643e-05
3.4739e-05
-5.20356e-05
3.15716e-05
-5.73632e-05
2.78497e-05
-6.1381e-05
2.33741e-05
-6.41038e-05
1.86061e-05
-6.55313e-05
1.36452e-05
-6.57109e-05
8.74443e-06
-6.47583e-05
4.10034e-06
-6.26982e-05
-3.34559e-07
-5.97609e-05
-4.19961e-06
-5.60678e-05
-7.4945e-06
-5.18337e-05
-1.02393e-05
-4.72148e-05
-1.23765e-05
-4.23305e-05
-1.39582e-05
-3.72724e-05
-1.50349e-05
-3.22637e-05
-1.56279e-05
-2.72837e-05
-1.60022e-05
-2.23691e-05
-1.61593e-05
-1.75107e-05
-1.63078e-05
-1.26389e-05
-1.66342e-05
-7.73743e-06
-1.69858e-05
-3.27158e-06
-1.48257e-05
-1.36472e-06
-3.64375e-06
-4.28851e-06
1.56065e-07
1.96542e-06
1.0696e-06
3.44787e-07
4.69619e-06
-1.38852e-05
8.68788e-06
-1.64834e-05
1.25813e-05
-1.61376e-05
1.64547e-05
-1.60286e-05
2.05609e-05
-1.63031e-05
2.48393e-05
-1.66408e-05
2.93975e-05
-1.69925e-05
3.41277e-05
-1.71166e-05
3.89516e-05
-1.67361e-05
4.37435e-05
-1.58227e-05
4.83481e-05
-1.42771e-05
5.24883e-05
-1.19624e-05
5.61467e-05
-9.04956e-06
5.90435e-05
-5.37772e-06
6.10037e-05
-1.15736e-06
6.19308e-05
3.51955e-06
6.16814e-05
8.50815e-06
6.01625e-05
1.35945e-05
5.74761e-05
1.8438e-05
5.36258e-05
2.29065e-05
4.85913e-05
2.69939e-05
4.26494e-05
2.98485e-05
3.5865e-05
3.19166e-05
2.87066e-05
3.24143e-05
2.13409e-05
3.15605e-05
1.41348e-05
2.91221e-05
7.53696e-06
2.50405e-05
1.82341e-06
1.95355e-05
-2.63125e-06
1.27097e-05
-5.54844e-06
4.91129e-06
-7.23064e-06
-3.17529e-06
-7.16989e-06
-1.16645e-05
-5.41936e-06
-1.992e-05
-2.20423e-06
-2.73257e-05
2.28866e-06
-3.37522e-05
7.88952e-06
-3.85615e-05
1.41759e-05
-4.15673e-05
2.06739e-05
-4.24774e-05
2.6894e-05
-4.12395e-05
3.24457e-05
-3.77853e-05
3.69404e-05
-3.24513e-05
3.98144e-05
-2.51546e-05
4.10406e-05
-1.67622e-05
4.0375e-05
-7.38822e-06
3.76537e-05
2.54557e-06
3.29424e-05
1.23543e-05
2.663e-05
2.14558e-05
1.88692e-05
2.96977e-05
9.7902e-06
3.6683e-05
-1.55851e-07
4.21368e-05
-1.05162e-05
4.57655e-05
-2.10103e-05
4.76613e-05
-3.11031e-05
4.76688e-05
-4.05129e-05
4.61105e-05
-4.89609e-05
4.3186e-05
-5.61624e-05
3.87713e-05
-6.19933e-05
3.3678e-05
-6.63863e-05
2.77641e-05
-6.93072e-05
2.1524e-05
-7.07307e-05
1.50659e-05
-7.06862e-05
8.69715e-06
-6.93201e-05
2.73141e-06
-6.68346e-05
-2.82291e-06
-6.33461e-05
-7.69055e-06
-5.90878e-05
-1.17544e-05
-5.42728e-05
-1.50548e-05
-4.90487e-05
-1.76003e-05
-4.36545e-05
-1.93517e-05
-3.82488e-05
-2.04398e-05
-3.28943e-05
-2.0982e-05
-2.77235e-05
-2.1173e-05
-2.27181e-05
-2.11651e-05
-1.78139e-05
-2.12129e-05
-1.29385e-05
-2.15106e-05
-8.01764e-06
-2.1908e-05
-3.50904e-06
-1.93358e-05
-1.5433e-06
-5.60977e-06
-5.82973e-06
3.25754e-07
1.63825e-06
1.23987e-06
-5.69605e-07
4.94106e-06
-1.75861e-05
8.86019e-06
-2.04021e-05
1.2678e-05
-1.99549e-05
1.64947e-05
-1.98446e-05
2.04855e-05
-2.02932e-05
2.48592e-05
-2.10138e-05
2.96191e-05
-2.17515e-05
3.47682e-05
-2.22647e-05
4.0139e-05
-2.21059e-05
4.55753e-05
-2.12573e-05
5.08857e-05
-1.95857e-05
5.58553e-05
-1.69304e-05
6.01088e-05
-1.33018e-05
6.3545e-05
-8.8129e-06
6.59127e-05
-3.52448e-06
6.70938e-05
2.3383e-06
6.68816e-05
8.7198e-06
6.53971e-05
1.50785e-05
6.22614e-05
2.15738e-05
5.78072e-05
2.73608e-05
5.1939e-05
3.28621e-05
4.48714e-05
3.69157e-05
3.68624e-05
3.99252e-05
2.81008e-05
4.11758e-05
1.92009e-05
4.04605e-05
1.05325e-05
3.77906e-05
2.45059e-06
3.31223e-05
-4.42522e-06
2.64109e-05
-9.84051e-06
1.81242e-05
-1.35106e-05
8.58034e-06
-1.52392e-05
-1.44783e-06
-1.47216e-05
-1.21832e-05
-1.23884e-05
-2.22541e-05
-8.07851e-06
-3.16361e-05
-2.1107e-06
-3.97201e-05
5.09138e-06
-4.57632e-05
1.32433e-05
-4.97184e-05
2.17699e-05
-5.10028e-05
3.01187e-05
-4.95868e-05
3.75733e-05
-4.52382e-05
4.36004e-05
-3.84763e-05
4.78496e-05
-2.94016e-05
4.99286e-05
-1.88386e-05
4.95033e-05
-6.9602e-06
4.67238e-05
5.328e-06
4.17831e-05
1.72979e-05
3.45511e-05
2.86908e-05
2.53573e-05
3.88946e-05
1.4668e-05
4.73752e-05
3.07371e-06
5.37335e-05
-9.14046e-06
5.79814e-05
-2.12239e-05
5.97456e-05
-3.29851e-05
5.94304e-05
-4.38735e-05
5.6999e-05
-5.34835e-05
5.27963e-05
-6.16383e-05
4.6926e-05
-6.81269e-05
4.01659e-05
-7.2956e-05
3.2592e-05
-7.59554e-05
2.45218e-05
-7.72562e-05
1.63649e-05
-7.69802e-05
8.41883e-06
-7.51085e-05
8.57131e-07
-7.19919e-05
-5.94237e-06
-6.77361e-05
-1.19489e-05
-6.27017e-05
-1.67907e-05
-5.70266e-05
-2.07306e-05
-5.11094e-05
-2.35175e-05
-4.50783e-05
-2.53825e-05
-3.91213e-05
-2.63965e-05
-3.34477e-05
-2.66556e-05
-2.80825e-05
-2.65387e-05
-2.29643e-05
-2.6284e-05
-1.80555e-05
-2.61226e-05
-1.32219e-05
-2.63452e-05
-8.21555e-06
-2.69153e-05
-3.70153e-06
-2.38504e-05
-1.73503e-06
-7.57436e-06
-7.5652e-06
5.96661e-07
1.04161e-06
1.54804e-06
-1.52007e-06
5.254e-06
-2.12914e-05
9.11706e-06
-2.42648e-05
1.26218e-05
-2.34597e-05
1.62757e-05
-2.34988e-05
2.01955e-05
-2.42137e-05
2.46218e-05
-2.5441e-05
2.96827e-05
-2.68128e-05
3.53078e-05
-2.78903e-05
4.14136e-05
-2.82124e-05
4.76738e-05
-2.75179e-05
5.39434e-05
-2.58554e-05
5.9841e-05
-2.28285e-05
6.50018e-05
-1.84634e-05
6.92137e-05
-1.30258e-05
7.21988e-05
-6.51117e-06
7.37011e-05
8.33678e-07
7.37436e-05
8.67449e-06
7.20778e-05
1.67418e-05
6.86587e-05
2.49914e-05
6.35513e-05
3.24673e-05
5.66849e-05
3.97281e-05
4.82199e-05
4.53804e-05
3.85749e-05
4.95699e-05
2.8045e-05
5.17054e-05
1.70829e-05
5.14222e-05
6.36698e-06
4.8506e-05
-3.48873e-06
4.29775e-05
-1.19208e-05
3.48424e-05
-1.8538e-05
2.47411e-05
-2.29447e-05
1.2987e-05
-2.47501e-05
3.57941e-07
-2.41244e-05
-1.28078e-05
-2.09818e-05
-2.53947e-05
-1.56059e-05
-3.70093e-05
-7.87303e-06
-4.74496e-05
1.43033e-06
-5.50629e-05
1.2014e-05
-6.02983e-05
2.30982e-05
-6.20831e-05
3.39124e-05
-6.03974e-05
4.37377e-05
-5.50599e-05
5.18121e-05
-4.65474e-05
5.76648e-05
-3.52513e-05
6.0657e-05
-2.18281e-05
6.08753e-05
-7.17589e-06
5.81549e-05
8.05072e-06
5.23881e-05
2.30667e-05
4.38172e-05
3.72633e-05
3.30093e-05
4.97038e-05
2.04261e-05
5.99592e-05
6.61008e-06
6.75497e-05
-7.8516e-06
7.24425e-05
-2.22623e-05
7.41549e-05
-3.59355e-05
7.31016e-05
-4.85569e-05
6.9619e-05
-5.95857e-05
6.38247e-05
-6.88617e-05
5.62027e-05
-7.6109e-05
4.74143e-05
-8.14513e-05
3.79356e-05
-8.45832e-05
2.7655e-05
-8.56725e-05
1.74553e-05
-8.49612e-05
7.70845e-06
-8.23698e-05
-1.73365e-06
-7.82425e-05
-1.00694e-05
-7.30556e-05
-1.71355e-05
-6.687e-05
-2.29758e-05
-6.03057e-05
-2.72945e-05
-5.33787e-05
-3.04438e-05
-4.65346e-05
-3.22261e-05
-3.99611e-05
-3.297e-05
-3.38538e-05
-3.27633e-05
-2.8243e-05
-3.21501e-05
-2.30931e-05
-3.14346e-05
-1.82892e-05
-3.0927e-05
-1.35366e-05
-3.10984e-05
-8.64098e-06
-3.18113e-05
-3.8866e-06
-2.86044e-05
-2.00109e-06
-9.45878e-06
-9.56944e-06
9.75904e-07
6.65645e-08
2.04483e-06
-2.58873e-06
5.8624e-06
-2.51094e-05
9.5129e-06
-2.79165e-05
1.26896e-05
-2.66383e-05
1.58363e-05
-2.66476e-05
1.94885e-05
-2.78682e-05
2.39312e-05
-2.98861e-05
2.92357e-05
-3.2119e-05
3.54854e-05
-3.41421e-05
4.24369e-05
-3.51659e-05
4.99191e-05
-3.50025e-05
5.73623e-05
-3.33009e-05
6.45118e-05
-2.99803e-05
7.10219e-05
-2.4976e-05
7.62657e-05
-1.82717e-05
8.00721e-05
-1.03196e-05
8.22616e-05
-1.35843e-06
8.24182e-05
8.51496e-06
8.07166e-05
1.84406e-05
7.70962e-05
2.86099e-05
7.11927e-05
3.83699e-05
6.32956e-05
4.76249e-05
5.31668e-05
5.55095e-05
4.14078e-05
6.13294e-05
2.85046e-05
6.46094e-05
1.50686e-05
6.48592e-05
1.75395e-06
6.18218e-05
-1.05021e-05
5.52347e-05
-2.09851e-05
4.5327e-05
-2.91644e-05
3.29224e-05
-3.45645e-05
1.83896e-05
-3.68519e-05
2.64833e-06
-3.60203e-05
-1.3636e-05
-3.19493e-05
-2.94617e-05
-2.47686e-05
-4.41859e-05
-1.51208e-05
-5.70933e-05
-3.16616e-06
-6.70136e-05
1.03126e-05
-7.37734e-05
2.46109e-05
-7.63784e-05
3.85644e-05
-7.43483e-05
5.14131e-05
-6.79062e-05
6.20591e-05
-5.71911e-05
6.97699e-05
-4.296e-05
7.42033e-05
-2.62596e-05
7.49809e-05
-7.95195e-06
7.19501e-05
1.10826e-05
6.50909e-05
2.9926e-05
5.51565e-05
4.71969e-05
4.22027e-05
6.2656e-05
2.6988e-05
7.51718e-05
1.01401e-05
8.43953e-05
-6.9512e-06
8.95314e-05
-2.41467e-05
9.13478e-05
-4.03473e-05
8.92998e-05
-5.49972e-05
8.42671e-05
-6.7748e-05
7.6575e-05
-7.83163e-05
6.67718e-05
-8.64707e-05
5.55702e-05
-9.20675e-05
4.35339e-05
-9.526e-05
3.08488e-05
-9.6311e-05
1.85072e-05
-9.47192e-05
6.11734e-06
-9.1239e-05
-5.21319e-06
-8.60663e-05
-1.52415e-05
-7.94945e-05
-2.3707e-05
-7.19681e-05
-3.05021e-05
-6.38093e-05
-3.54535e-05
-5.57252e-05
-3.85286e-05
-4.78052e-05
-4.01474e-05
-4.04736e-05
-4.03032e-05
-3.3878e-05
-3.93605e-05
-2.80793e-05
-3.79499e-05
-2.30481e-05
-3.64662e-05
-1.8357e-05
-3.56182e-05
-1.38498e-05
-3.56052e-05
-9.05543e-06
-3.66052e-05
-4.27768e-06
-3.33807e-05
-2.30182e-06
-1.14368e-05
-1.18718e-05
1.52125e-06
-1.45441e-06
2.89189e-06
-3.961e-06
6.78615e-06
-2.90059e-05
1.01794e-05
-3.13124e-05
1.2714e-05
-2.91756e-05
1.51313e-05
-2.90671e-05
1.82545e-05
-3.09933e-05
2.24707e-05
-3.41049e-05
2.8164e-05
-3.78135e-05
3.52354e-05
-4.12158e-05
4.34454e-05
-4.33779e-05
5.23964e-05
-4.39558e-05
6.162e-05
-4.25275e-05
7.04784e-05
-3.88416e-05
7.8414e-05
-3.29138e-05
8.50026e-05
-2.48616e-05
8.98627e-05
-1.51804e-05
9.26733e-05
-4.16956e-06
9.34711e-05
7.71636e-06
9.18089e-05
2.0102e-05
8.78747e-05
3.25434e-05
8.12561e-05
4.49883e-05
7.1976e-05
5.69048e-05
6.00762e-05
6.74092e-05
4.58418e-05
7.55641e-05
2.99176e-05
8.05343e-05
1.31956e-05
8.15823e-05
-3.31396e-06
7.83328e-05
-1.84518e-05
7.03745e-05
-3.18456e-05
5.8723e-05
-4.20812e-05
4.31605e-05
-4.87713e-05
2.50824e-05
-5.15938e-05
5.47332e-06
-5.04633e-05
-1.47641e-05
-4.53407e-05
-3.45824e-05
-3.64665e-05
-5.30588e-05
-2.4378e-05
-6.9181e-05
-9.2925e-06
-8.20989e-05
7.75371e-06
-9.08199e-05
2.60761e-05
-9.47013e-05
4.42262e-05
-9.24989e-05
6.07932e-05
-8.44737e-05
7.46573e-05
-7.10555e-05
8.47572e-05
-5.306e-05
9.07888e-05
-3.22915e-05
9.20656e-05
-9.22886e-06
8.85457e-05
1.46026e-05
8.08851e-05
3.7586e-05
6.87741e-05
5.9307e-05
5.30414e-05
7.83877e-05
3.44841e-05
9.37285e-05
1.44653e-05
0.000104415
-6.5924e-06
0.000110591
-2.70421e-05
0.0001118
-4.64587e-05
0.000108719
-6.3763e-05
0.000101574
-7.85361e-05
9.13501e-05
-9.0541e-05
7.87784e-05
-9.95771e-05
6.46068e-05
-0.000105584
4.95396e-05
-0.000108889
3.41515e-05
-0.000109065
1.86799e-05
-0.000106813
3.86102e-06
-0.000102082
-9.94772e-06
-9.53282e-05
-2.1998e-05
-8.70393e-05
-3.19985e-05
-7.7626e-05
-3.99175e-05
-6.78144e-05
-4.52671e-05
-5.80084e-05
-4.83369e-05
-4.88181e-05
-4.93403e-05
-4.05154e-05
-4.8608e-05
-3.33151e-05
-4.65623e-05
-2.73463e-05
-4.39191e-05
-2.23665e-05
-4.1446e-05
-1.83245e-05
-3.96595e-05
-1.43893e-05
-3.95396e-05
-9.84903e-06
-4.11449e-05
-4.91144e-06
-3.83178e-05
-2.76553e-06
-1.35871e-05
-1.46344e-05
2.59685e-06
-4.05247e-06
4.33039e-06
-5.69693e-06
8.66523e-06
-3.33429e-05
1.13713e-05
-3.40199e-05
1.27063e-05
-3.05116e-05
1.38479e-05
-3.02092e-05
1.60338e-05
-3.3179e-05
1.99638e-05
-3.80365e-05
2.5962e-05
-4.38116e-05
3.4013e-05
-4.92684e-05
4.38376e-05
-5.32037e-05
5.48253e-05
-5.49447e-05
6.6287e-05
-5.39911e-05
7.74353e-05
-4.99922e-05
8.74266e-05
-4.2907e-05
9.57641e-05
-3.32001e-05
0.000101841
-2.12572e-05
0.000105617
-7.94603e-06
0.000106982
6.35037e-06
0.000105656
2.14279e-05
0.000101706
3.64923e-05
9.45052e-05
5.21875e-05
8.38679e-05
6.75399e-05
6.96916e-05
8.15834e-05
5.23139e-05
9.29399e-05
3.25467e-05
0.0001003
1.16337e-05
0.000102494
-8.99911e-06
9.89652e-05
-2.84413e-05
8.98168e-05
-4.50158e-05
7.5298e-05
-5.77752e-05
5.59206e-05
-6.60845e-05
3.33925e-05
-6.95218e-05
8.91104e-06
-6.82116e-05
-1.6074e-05
-6.18908e-05
-4.09032e-05
-5.10079e-05
-6.39418e-05
-3.58793e-05
-8.43096e-05
-1.73039e-05
-0.000100674
4.19323e-06
-0.000112317
2.7532e-05
-0.00011804
5.09666e-05
-0.000115933
7.22055e-05
-0.000105712
8.96984e-05
-8.8548e-05
0.000103025
-6.63865e-05
0.000110763
-4.00294e-05
0.000112793
-1.1258e-05
0.000109339
1.80578e-05
9.98976e-05
4.70287e-05
8.5186e-05
7.40208e-05
6.59946e-05
9.75816e-05
4.33977e-05
0.000116329
1.85646e-05
0.000129252
-6.88255e-06
0.000136042
-3.17918e-05
0.000136714
-5.50195e-05
0.00013195
-7.54973e-05
0.000122054
-9.25909e-05
0.000108445
-0.000106135
9.2322e-05
-0.000116069
7.45392e-05
-0.000122431
5.58985e-05
-0.000125513
3.72288e-05
-0.000125163
1.83252e-05
-0.000121521
2.14487e-07
-0.000115232
-1.62396e-05
-0.000106424
-3.08082e-05
-9.56857e-05
-4.27386e-05
-8.40382e-05
-5.15657e-05
-7.18655e-05
-5.74407e-05
-6.0008e-05
-6.01956e-05
-4.9119e-05
-6.02304e-05
-3.95654e-05
-5.81625e-05
-3.17766e-05
-5.43512e-05
-2.58613e-05
-4.98341e-05
-2.15733e-05
-4.57335e-05
-1.82839e-05
-4.29489e-05
-1.51715e-05
-4.26526e-05
-1.11196e-05
-4.51974e-05
-6.01676e-06
-4.34235e-05
-3.61735e-06
-1.59873e-05
-1.82508e-05
4.87107e-06
-8.92535e-06
7.54104e-06
-8.36721e-06
1.21193e-05
-3.79205e-05
1.34858e-05
-3.53848e-05
1.24869e-05
-2.95114e-05
1.17348e-05
-2.94563e-05
1.24299e-05
-3.38726e-05
1.56261e-05
-4.12335e-05
2.20697e-05
-5.02552e-05
3.14239e-05
-5.86242e-05
4.34186e-05
-6.5199e-05
5.71741e-05
-6.87004e-05
7.16395e-05
-6.84568e-05
8.58074e-05
-6.41615e-05
9.84945e-05
-5.5596e-05
0.000109
-4.37079e-05
0.000116661
-2.89203e-05
0.000121515
-1.28019e-05
0.000123652
4.21101e-06
0.0001232
2.18775e-05
0.000119421
4.02704e-05
0.000111952
5.96556e-05
0.000100004
7.9487e-05
8.29501e-05
9.86359e-05
6.18432e-05
0.000114046
3.74573e-05
0.000124685
1.12011e-05
0.00012875
-1.52159e-05
0.000125382
-3.97682e-05
0.000114369
-6.03312e-05
9.5861e-05
-7.65831e-05
7.21729e-05
-8.69573e-05
4.37676e-05
-9.1106e-05
1.30609e-05
-8.95908e-05
-1.75879e-05
-8.20051e-05
-4.84872e-05
-6.86518e-05
-7.7293e-05
-5.02196e-05
-0.000102739
-2.7457e-05
-0.000123434
-6.42392e-07
-0.000139128
2.90145e-05
-0.000147693
5.86943e-05
-0.00014561
8.613e-05
-0.000133145
0.000108826
-0.000111242
0.00012516
-8.27175e-05
0.000135229
-5.00962e-05
0.000138306
-1.43325e-05
0.000134059
2.23077e-05
0.000122881
5.8211e-05
0.000105059
9.18466e-05
8.14e-05
0.000121244
5.33094e-05
0.000144421
2.26021e-05
0.00015996
-8.83926e-06
0.000167484
-3.93244e-05
0.000167198
-6.69171e-05
0.000159541
-9.12958e-05
0.00014643
-0.000110964
0.000128111
-0.000126086
0.000107442
-0.000136799
8.52514e-05
-0.000143342
6.24404e-05
-0.00014574
3.9627e-05
-0.000144515
1.71007e-05
-0.000139596
-4.7041e-06
-0.000131135
-2.46998e-05
-0.000119758
-4.21852e-05
-0.000106165
-5.63317e-05
-9.126e-05
-6.64708e-05
-7.60085e-05
-7.26934e-05
-6.13657e-05
-7.48397e-05
-4.81833e-05
-7.34137e-05
-3.72063e-05
-6.91395e-05
-2.87273e-05
-6.28296e-05
-2.30587e-05
-5.55019e-05
-1.97168e-05
-4.90753e-05
-1.80297e-05
-4.46363e-05
-1.63312e-05
-4.43517e-05
-1.32336e-05
-4.82946e-05
-8.18015e-06
-4.84784e-05
-5.28889e-06
-1.88713e-05
-2.35382e-05
9.01806e-06
-1.79437e-05
1.37559e-05
-1.31018e-05
1.86067e-05
-4.27682e-05
1.75792e-05
-3.43545e-05
1.31408e-05
-2.50716e-05
8.73492e-06
-2.50504e-05
6.82578e-06
-3.19635e-05
8.9183e-06
-4.33263e-05
1.55844e-05
-5.69217e-05
2.66978e-05
-6.97392e-05
4.16993e-05
-8.02013e-05
5.94002e-05
-8.64012e-05
7.81003e-05
-8.7157e-05
9.63207e-05
-8.23828e-05
0.000112629
-7.1905e-05
0.000125545
-5.66248e-05
0.000135194
-3.85704e-05
0.000141401
-1.90086e-05
0.000144705
9.07237e-07
0.00014534
2.12423e-05
0.000142846
4.27647e-05
0.000135854
6.66484e-05
0.000122947
9.23939e-05
0.000103548
0.000118035
7.7451e-05
0.000140143
4.69308e-05
0.000155205
1.36584e-05
0.000162022
-1.99149e-05
0.000158955
-5.11793e-05
0.000145633
-7.80212e-05
0.000122703
-9.80437e-05
9.2196e-05
-0.000110875
5.65998e-05
-0.000116332
1.85195e-05
-0.00011399
-1.99271e-05
-0.000104747
-5.77273e-05
-8.89866e-05
-9.30501e-05
-6.71259e-05
-0.000124597
-3.90738e-05
-0.000151483
-6.16483e-06
-0.000172035
3.03934e-05
-0.00018425
6.79453e-05
-0.00018316
0.000102087
-0.000167285
0.000130399
-0.000139552
0.000151351
-0.000103667
0.000163777
-6.25202e-05
0.000168015
-1.85673e-05
0.000163896
2.643e-05
0.00015042
7.16907e-05
0.000128463
0.000113806
9.86068e-05
0.000151102
6.32143e-05
0.000179814
2.48326e-05
0.000198341
-1.41696e-05
0.000206484
-5.12901e-05
0.000204317
-8.50265e-05
0.000193276
-0.000113464
0.000174867
-0.000135874
0.000150521
-0.00015233
0.000123899
-0.000163427
9.63495e-05
-0.000169628
6.86424e-05
-0.000171371
4.13704e-05
-0.000168935
1.46647e-05
-0.000161916
-1.17233e-05
-0.000150786
-3.583e-05
-0.000136106
-5.6866e-05
-0.000118507
-7.39318e-05
-9.94371e-05
-8.55416e-05
-8.00673e-05
-9.2064e-05
-6.18103e-05
-9.3097e-05
-4.57589e-05
-8.94646e-05
-3.27334e-05
-8.21636e-05
-2.34658e-05
-7.20958e-05
-1.80609e-05
-6.0906e-05
-1.64514e-05
-5.06843e-05
-1.71095e-05
-4.39773e-05
-1.8404e-05
-4.30553e-05
-1.72416e-05
-4.94539e-05
-1.22665e-05
-5.3449e-05
-8.01221e-06
-2.31193e-05
-3.15482e-05
1.74362e-05
-3.53777e-05
2.61021e-05
-2.17633e-05
3.0586e-05
-4.72503e-05
2.58108e-05
-2.95782e-05
1.52113e-05
-1.44719e-05
5.11451e-06
-1.49538e-05
-9.16036e-07
-2.59349e-05
-5.4487e-07
-4.3696e-05
6.62971e-06
-6.4097e-05
2.01342e-05
-8.3245e-05
3.94928e-05
-9.95612e-05
6.27051e-05
-0.000109614
8.77697e-05
-0.000112222
0.000112025
-0.000106638
0.000132872
-9.27505e-05
0.000149452
-7.3203e-05
0.00016097
-5.0087e-05
0.000168148
-2.61864e-05
0.000172684
-3.62941e-06
0.000175366
1.85588e-05
0.000175826
4.2304e-05
0.000171012
7.14607e-05
0.000158308
0.000105096
0.00013594
0.000140401
0.000104724
0.000171357
6.59525e-05
0.000193975
2.33968e-05
0.000204576
-1.98885e-05
0.000202238
-5.99614e-05
0.000185705
-9.42103e-05
0.000156951
-0.000120608
0.000118594
-0.00013724
7.32321e-05
-0.000143856
2.51367e-05
-0.000141871
-2.19116e-05
-0.000130408
-6.91898e-05
-0.000111463
-0.000111995
-8.47479e-05
-0.000151313
-5.14016e-05
-0.00018483
-1.13264e-05
-0.00021211
3.34237e-05
-0.000228999
7.86687e-05
-0.000228405
0.000120613
-0.000209228
0.000155091
-0.000174028
0.000181152
-0.000129726
0.000196935
-7.83017e-05
0.000202494
-2.41246e-05
0.000197513
3.14136e-05
0.000181712
8.74934e-05
0.000153764
0.000141754
0.000115855
0.00018901
7.06628e-05
0.000225004
2.14783e-05
0.000247523
-2.74149e-05
0.000255377
-7.35752e-05
0.000250477
-0.000114505
0.000234206
-0.000147718
0.000208079
-0.000172706
0.000175507
-0.000189998
0.000141188
-0.000199934
0.000106282
-0.000204888
7.35933e-05
-0.000205684
4.21635e-05
-0.000201724
1.07041e-05
-0.00019253
-2.09183e-05
-0.000177989
-5.037e-05
-0.000158491
-7.63621e-05
-0.000135746
-9.66759e-05
-0.000110732
-0.000110555
-8.59106e-05
-0.000116884
-6.24265e-05
-0.00011658
-4.20045e-05
-0.000109885
-2.64607e-05
-9.77062e-05
-1.61208e-05
-8.24348e-05
-1.19277e-05
-6.50989e-05
-1.31864e-05
-4.94258e-05
-1.84308e-05
-3.87327e-05
-2.38134e-05
-3.76716e-05
-2.58373e-05
-4.74296e-05
-2.02444e-05
-5.90365e-05
-1.39028e-05
-2.94641e-05
-4.54519e-05
3.51321e-05
-7.05072e-05
5.10419e-05
-3.76708e-05
5.39491e-05
-5.01577e-05
4.14092e-05
-1.70383e-05
2.16555e-05
5.28269e-06
3.22097e-06
3.4838e-06
-8.76208e-06
-1.39535e-05
-1.13196e-05
-4.11348e-05
-3.71859e-06
-7.16982e-05
1.41034e-05
-0.000101068
4.01364e-05
-0.000125594
7.2028e-05
-0.000141506
0.000106336
-0.000146531
0.000138863
-0.000139166
0.000166445
-0.000120333
0.000186673
-9.34316e-05
0.000199172
-6.25867e-05
0.000205967
-3.2981e-05
0.000210346
-8.00769e-06
0.000215553
1.3353e-05
0.000220316
3.75425e-05
0.000219818
7.19592e-05
0.0002082
0.000116714
0.000182093
0.000166508
0.000142405
0.000211044
9.26312e-05
0.000243749
3.70574e-05
0.00026015
-1.89745e-05
0.000258269
-7.04884e-05
0.000237217
-0.000113522
0.000199982
-0.000144631
0.000149699
-0.000164014
9.26118e-05
-0.000172009
3.31272e-05
-0.000168276
-2.56472e-05
-0.000154124
-8.33438e-05
-0.000131272
-0.000134848
-9.98409e-05
-0.000182743
-5.98423e-05
-0.000224827
-1.23669e-05
-0.000259583
3.96771e-05
-0.000281041
9.28106e-05
-0.000281536
0.000141282
-0.000257698
0.000182574
-0.000215319
0.000213102
-0.000160253
0.000232547
-9.77465e-05
0.000239716
-3.12962e-05
0.000234636
3.64895e-05
0.000215599
0.000106526
0.000180606
0.000176743
0.000132222
0.000237392
7.36141e-05
0.000283611
1.10884e-05
0.000310047
-5.10773e-05
0.00031754
-0.000108688
0.000308085
-0.000158631
0.000284145
-0.000198308
0.000247753
-0.00022589
0.000203086
-0.000242043
0.000157338
-0.000250558
0.000114795