/*--------------------------------*- C++ -*----------------------------------*\
| =========                 |                                                 |
| \\      /  F ield         | OpenFOAM: The Open Source CFD Toolbox           |
|  \\    /   O peration     | Version:  2412                                  |
|   \\  /    A nd           | Website:  www.openfoam.com                      |
|    \\/     M anipulation  |                                                 |
\*---------------------------------------------------------------------------*/
FoamFile
{
    version     2.0;
    format      ascii;
    arch        "LSB;label=32;scalar=64";
    class       surfaceScalarField;
    location    "3.1";
    object      alphaPhi0.honey;
}
// * * * * * * * * * * * * * * * * * * * * * * * * * * * * * * * * * * * * * //

dimensions      [0 3 -1 0 0 0 0];

oriented        oriented;

internalField   nonuniform List<scalar> 
12640
(
5.01813e-14
-5.43339e-14
4.27134e-14
2.35241e-14
-9.66711e-14
1.50849e-13
-3.54457e-13
2.69981e-13
-7.10962e-13
3.69462e-13
-1.14421e-12
4.49364e-13
-1.63725e-12
5.09354e-13
-2.17271e-12
5.55242e-13
-2.73519e-12
5.82924e-13
-3.30871e-12
5.98339e-13
-3.88253e-12
6.00065e-13
-4.44456e-12
5.93537e-13
-4.98751e-12
5.76672e-13
-5.50181e-12
5.53978e-13
-5.98144e-12
5.22172e-13
-6.4198e-12
4.87301e-13
-6.81359e-12
4.45995e-13
-7.15796e-12
4.03067e-13
-7.45088e-12
3.55018e-13
-7.68829e-12
3.05715e-13
-7.86838e-12
2.51641e-13
-7.98927e-12
1.98072e-13
-8.05079e-12
1.41521e-13
-8.05132e-12
8.53364e-14
-7.99104e-12
2.6751e-14
-7.86963e-12
-3.05673e-14
-7.68809e-12
-8.9172e-14
-7.44695e-12
-1.46001e-13
-7.1482e-12
-2.0279e-13
-6.79383e-12
-2.56626e-13
-6.38699e-12
-3.08903e-13
-5.93078e-12
-3.57345e-13
-5.42921e-12
-4.02998e-13
-4.88628e-12
-4.44121e-13
-4.30653e-12
-4.81529e-13
-3.69455e-12
-5.13977e-13
-3.05555e-12
-5.41715e-13
-2.39511e-12
-5.63643e-13
-1.71941e-12
-5.79592e-13
-1.03476e-12
-5.89165e-13
-3.47502e-13
-5.92293e-13
3.36154e-13
-5.89386e-13
1.01028e-12
-5.80186e-13
1.66898e-12
-5.65526e-13
2.3066e-12
-5.44627e-13
2.91736e-12
-5.1869e-13
3.49588e-12
-4.8657e-13
4.03684e-12
-4.50281e-13
4.53593e-12
-4.0863e-13
4.98903e-12
-3.64438e-13
5.39312e-12
-3.15913e-13
5.74487e-12
-2.66134e-13
6.04211e-12
-2.12558e-13
6.28234e-12
-1.59048e-13
6.46484e-12
-1.02833e-13
6.58837e-12
-4.84367e-14
6.65333e-12
7.96354e-15
6.65879e-12
6.17707e-14
6.60593e-12
1.17259e-13
6.4951e-12
1.68487e-13
6.32965e-12
2.19697e-13
6.11114e-12
2.65122e-13
5.8431e-12
3.10848e-13
5.52644e-12
3.5121e-13
5.1658e-12
3.91207e-13
4.76485e-12
4.22987e-13
4.33139e-12
4.51621e-13
3.8701e-12
4.71034e-13
3.38882e-12
4.87566e-13
2.89342e-12
4.93776e-13
2.39578e-12
4.93255e-13
1.90655e-12
4.77848e-13
1.44132e-12
4.5199e-13
1.01222e-12
4.10054e-13
6.34654e-13
3.5745e-13
3.23118e-13
2.86562e-13
9.86148e-14
1.98272e-13
-2.62728e-14
9.46687e-14
-4.42706e-14
-9.34417e-15
-6.47419e-14
-3.80151e-15
-3.15444e-14
-1.98525e-13
2.51876e-13
-6.71789e-13
6.56751e-13
-1.41164e-12
1.04137e-12
-2.3776e-12
1.37276e-12
-3.53322e-12
1.64273e-12
-4.83399e-12
1.85437e-12
-6.24181e-12
2.00831e-12
-7.71708e-12
2.11144e-12
-9.22708e-12
2.16384e-12
-1.07368e-11
2.17488e-12
-1.22203e-11
2.14579e-12
-1.36512e-11
2.08709e-12
-1.50124e-11
1.99969e-12
-1.62824e-11
1.88846e-12
-1.74474e-11
1.75427e-12
-1.84931e-11
1.60564e-12
-1.94102e-11
1.44018e-12
-2.01884e-11
1.26487e-12
-2.08213e-11
1.07623e-12
-2.1301e-11
8.79521e-13
-2.16235e-11
6.74219e-13
-2.17854e-11
4.66213e-13
-2.17851e-11
2.52273e-13
-2.16207e-11
3.70288e-14
-2.12927e-11
-1.80551e-13
-2.08025e-11
-3.95668e-13
-2.01535e-11
-6.0928e-13
-1.93498e-11
-8.16835e-13
-1.83975e-11
-1.01834e-12
-1.73038e-11
-1.20968e-12
-1.60776e-11
-1.39068e-12
-1.47286e-11
-1.55801e-12
-1.32679e-11
-1.71151e-12
-1.17073e-11
-1.84867e-12
-1.006e-11
-1.96898e-12
-8.33989e-12
-2.07e-12
-6.56245e-12
-2.15051e-12
-4.74373e-12
-2.20875e-12
-2.90045e-12
-2.24407e-12
-1.0493e-12
-2.2564e-12
7.93123e-13
-2.24586e-12
2.61067e-12
-2.21345e-12
4.38741e-12
-2.15901e-12
6.10776e-12
-2.08385e-12
7.75641e-12
-1.98733e-12
9.31875e-12
-1.87173e-12
1.07812e-11
-1.737e-12
1.21317e-11
-1.58713e-12
1.33594e-11
-1.42218e-12
1.44549e-11
-1.24649e-12
1.54099e-11
-1.05901e-12
1.62174e-11
-8.64614e-13
1.68725e-11
-6.62369e-13
1.73714e-11
-4.58522e-13
1.77128e-11
-2.51254e-13
1.78951e-11
-4.61074e-14
1.79191e-11
1.60333e-13
1.77855e-11
3.61188e-13
1.74994e-11
5.58548e-13
1.7065e-11
7.44384e-13
1.64901e-11
9.23383e-13
1.57796e-11
1.08993e-12
1.49434e-11
1.24902e-12
1.399e-11
1.39093e-12
1.2935e-11
1.51756e-12
1.17911e-11
1.62003e-12
1.0577e-11
1.70399e-12
9.30801e-12
1.76101e-12
8.00975e-12
1.7922e-12
6.70571e-12
1.78467e-12
5.42904e-12
1.73926e-12
4.20802e-12
1.64689e-12
3.07934e-12
1.51158e-12
2.07485e-12
1.32588e-12
1.23591e-12
1.0893e-12
5.93853e-13
7.9637e-13
1.81753e-13
4.63373e-13
4.71601e-15
1.23825e-13
-8.07731e-14
-1.12847e-13
9.78353e-14
-5.59474e-13
7.32022e-13
-1.3923e-12
1.51767e-12
-2.58594e-12
2.26745e-12
-4.093e-12
2.91263e-12
-5.86068e-12
3.44959e-12
-7.83793e-12
3.87112e-12
-9.96281e-12
4.18008e-12
-1.21864e-11
4.38335e-12
-1.44574e-11
4.49183e-12
-1.6731e-11
4.50834e-12
-1.8964e-11
4.44858e-12
-2.11202e-11
4.31729e-12
-2.31684e-11
4.13275e-12
-2.50839e-11
3.89399e-12
-2.68417e-11
3.61333e-12
-2.84222e-11
3.2933e-12
-2.98072e-11
2.9433e-12
-3.09833e-11
2.56504e-12
-3.1939e-11
2.1662e-12
-3.26648e-11
1.74514e-12
-3.3152e-11
1.31025e-12
-3.33949e-11
8.62638e-13
-3.33902e-11
4.085e-13
-3.31362e-11
-5.24505e-14
-3.26332e-11
-5.13258e-13
-3.18834e-11
-9.72708e-13
-3.08917e-11
-1.42435e-12
-2.96643e-11
-1.86633e-12
-2.82104e-11
-2.29205e-12
-2.65405e-11
-2.69908e-12
-2.46679e-11
-3.0817e-12
-2.26071e-11
-3.43773e-12
-2.03751e-11
-3.76247e-12
-1.799e-11
-4.05379e-12
-1.5472e-11
-4.30748e-12
-1.28431e-11
-4.5208e-12
-1.01266e-11
-4.68992e-12
-7.34707e-12
-4.81253e-12
-4.5296e-12
-4.88699e-12
-1.69976e-12
-4.91293e-12
1.11744e-12
-4.89112e-12
3.89684e-12
-4.82203e-12
6.61426e-12
-4.7072e-12
9.24525e-12
-4.54667e-12
1.17669e-11
-4.34278e-12
1.41566e-11
-4.0964e-12
1.63943e-11
-3.81236e-12
1.8461e-11
-3.49299e-12
2.03406e-11
-3.14452e-12
2.20177e-11
-2.76853e-12
2.34804e-11
-2.37142e-12
2.47178e-11
-1.95467e-12
2.57229e-11
-1.5266e-12
2.64903e-11
-1.08891e-12
2.70175e-11
-6.49476e-13
2.73027e-11
-2.07261e-13
2.73469e-11
2.30293e-13
2.71533e-11
6.63173e-13
2.67278e-11
1.0809e-12
2.60785e-11
1.48402e-12
2.52142e-11
1.86504e-12
2.41466e-11
2.22808e-12
2.28884e-11
2.56382e-12
2.14577e-11
2.87152e-12
1.98723e-11
3.13845e-12
1.81558e-11
3.366e-12
1.63307e-11
3.54438e-12
1.44287e-11
3.67345e-12
1.24805e-11
3.73757e-12
1.05276e-11
3.73153e-12
8.60866e-12
3.64031e-12
6.77214e-12
3.46408e-12
5.06178e-12
3.19252e-12
3.53391e-12
2.82429e-12
2.23137e-12
2.35346e-12
1.20141e-12
1.78774e-12
4.86904e-13
1.13228e-12
9.94268e-14
4.72786e-13
-1.81165e-15
-2.24748e-13
3.38831e-13
-9.28462e-13
1.46666e-12
-2.11333e-12
2.73437e-12
-3.73694e-12
3.92119e-12
-5.73272e-12
4.94537e-12
-8.04146e-12
5.795e-12
-1.0596e-11
6.46956e-12
-1.33327e-11
6.9611e-12
-1.61817e-11
7.28497e-12
-1.90861e-11
7.45052e-12
-2.19872e-11
7.47323e-12
-2.48371e-11
7.36538e-12
-2.75874e-11
7.14488e-12
-3.01994e-11
6.82637e-12
-3.26396e-11
6.42654e-12
-3.48808e-11
5.95215e-12
-3.68959e-11
5.41676e-12
-3.86631e-11
4.82429e-12
-4.01626e-11
4.18859e-12
-4.13803e-11
3.51321e-12
-4.23036e-11
2.8069e-12
-4.2922e-11
2.07176e-12
-4.3227e-11
1.31841e-12
-4.32136e-11
5.49611e-13
-4.288e-11
-2.25597e-13
-4.22261e-11
-1.00404e-12
-4.12551e-11
-1.77642e-12
-3.9972e-11
-2.53863e-12
-3.83858e-11
-3.28121e-12
-3.6507e-11
-3.99908e-12
-3.435e-11
-4.68326e-12
-3.19304e-11
-5.32878e-12
-2.92678e-11
-5.92776e-12
-2.63833e-11
-6.47553e-12
-2.3301e-11
-6.96522e-12
-2.00469e-11
-7.39204e-12
-1.66496e-11
-7.74959e-12
-1.31394e-11
-8.03315e-12
-9.54775e-12
-8.23837e-12
-5.90725e-12
-8.36306e-12
-2.25034e-12
-8.40667e-12
1.39009e-12
-8.36957e-12
4.98215e-12
-8.25339e-12
8.49333e-12
-8.05874e-12
1.1893e-11
-7.78807e-12
1.51501e-11
-7.44274e-12
1.82372e-11
-7.02803e-12
2.11269e-11
-6.54793e-12
2.37966e-11
-6.0108e-12
2.62235e-11
-5.42122e-12
2.83898e-11
-4.78802e-12
3.02784e-11
-4.11537e-12
3.18776e-11
-3.41397e-12
3.31771e-11
-2.68922e-12
3.41717e-11
-1.95283e-12
3.48566e-11
-1.20764e-12
3.52312e-11
-4.63152e-13
3.52964e-11
2.78988e-13
3.50575e-11
1.0063e-12
3.45217e-11
1.71514e-12
3.36993e-11
2.39361e-12
3.26025e-11
3.04285e-12
3.12456e-11
3.65317e-12
2.9648e-11
4.22346e-12
2.78293e-11
4.73851e-12
2.58152e-11
5.19493e-12
2.36311e-11
5.57856e-12
2.1312e-11
5.88695e-12
1.88919e-11
6.10343e-12
1.64151e-11
6.22052e-12
1.39238e-11
6.21637e-12
1.14737e-11
6.08217e-12
9.11516e-12
5.80291e-12
6.91333e-12
5.37457e-12
4.92382e-12
4.78411e-12
3.20553e-12
4.04292e-12
1.81163e-12
3.1434e-12
8.00019e-13
2.10794e-12
1.90621e-13
1.0446e-12
1.73556e-13
-3.26513e-13
6.8077e-13
-1.26598e-12
2.444e-12
-2.78621e-12
4.28655e-12
-4.80712e-12
5.97952e-12
-7.25657e-12
7.43157e-12
-1.00518e-11
8.63437e-12
-1.31205e-11
9.58192e-12
-1.63862e-11
1.02786e-11
-1.9777e-11
1.07284e-11
-2.32178e-11
1.0953e-11
-2.66493e-11
1.09685e-11
-3.00106e-11
1.08004e-11
-3.32551e-11
1.04666e-11
-3.63326e-11
9.99157e-12
-3.92066e-11
9.39274e-12
-4.18426e-11
8.69093e-12
-4.42126e-11
7.89463e-12
-4.62901e-11
7.01961e-12
-4.80528e-11
6.0744e-12
-4.9482e-11
5.0745e-12
-5.05629e-11
4.02479e-12
-5.12837e-11
2.93719e-12
-5.16339e-11
1.8173e-12
-5.16076e-11
6.77984e-13
-5.12008e-11
-4.74736e-13
-5.04144e-11
-1.62855e-12
-4.92504e-11
-2.77665e-12
-4.77163e-11
-3.9064e-12
-4.58207e-11
-5.00982e-12
-4.35774e-11
-6.0743e-12
-4.10014e-11
-7.09144e-12
-3.81128e-11
-8.04947e-12
-3.49335e-11
-8.94024e-12
-3.14896e-11
-9.7533e-12
-2.78093e-11
-1.04809e-11
-2.39242e-11
-1.11136e-11
-1.98683e-11
-1.16437e-11
-1.56779e-11
-1.20631e-11
-1.13906e-11
-1.23667e-11
-7.04482e-12
-1.25511e-11
-2.67982e-12
-1.26153e-11
1.66588e-12
-1.25601e-11
5.95276e-12
-1.23862e-11
1.01431e-11
-1.20961e-11
1.41983e-11
-1.16912e-11
1.80834e-11
-1.11769e-11
2.17634e-11
-1.05581e-11
2.52086e-11
-9.84463e-12
2.83892e-11
-9.04405e-12
3.12813e-11
-8.16807e-12
3.3861e-11
-7.22408e-12
3.61114e-11
-6.22522e-12
3.80162e-11
-5.18047e-12
3.95665e-11
-4.1056e-12
4.07533e-11
-3.00876e-12
4.15738e-11
-1.90335e-12
4.20254e-11
-7.9389e-13
4.21119e-11
3.05638e-13
4.18382e-11
1.38825e-12
4.12147e-11
2.43744e-12
4.02526e-11
3.44893e-12
3.89671e-11
4.41044e-12
3.73764e-11
5.32e-12
3.55016e-11
6.16203e-12
3.33677e-11
6.93025e-12
3.10008e-11
7.6064e-12
2.84351e-11
8.1836e-12
2.57054e-11
8.64224e-12
2.28572e-11
8.9733e-12
1.99329e-11
9.1532e-12
1.69889e-11
9.16636e-12
1.40783e-11
8.98636e-12
1.12713e-11
8.60292e-12
8.63036e-12
7.99735e-12
6.22642e-12
7.17087e-12
4.12074e-12
6.12108e-12
2.38899e-12
4.84917e-12
1.08309e-12
3.37963e-12
2.75105e-13
1.82682e-12
4.34272e-13
-4.11878e-13
1.11202e-12
-1.57155e-12
3.64139e-12
-3.39581e-12
6.15115e-12
-5.7917e-12
8.41285e-12
-8.6577e-12
1.03427e-11
-1.19046e-11
1.19253e-11
-1.54374e-11
1.31668e-11
-1.91781e-11
1.40714e-11
-2.30415e-11
1.46526e-11
-2.69524e-11
1.4926e-11
-3.08375e-11
1.49252e-11
-3.46361e-11
1.46734e-11
-3.82924e-11
1.42073e-11
-4.17599e-11
1.35473e-11
-4.49936e-11
1.27249e-11
-4.79574e-11
1.17578e-11
-5.06179e-11
1.0668e-11
-5.29484e-11
9.46798e-12
-5.49245e-11
8.17728e-12
-5.65247e-11
6.80635e-12
-5.77323e-11
5.37164e-12
-5.85327e-11
3.88094e-12
-5.89155e-11
2.34952e-12
-5.88715e-11
7.86569e-13
-5.83976e-11
-7.91724e-13
-5.74919e-11
-2.37527e-12
-5.6159e-11
-3.94803e-12
-5.44042e-11
-5.4989e-12
-5.22392e-11
-7.01143e-12
-4.96768e-11
-8.47352e-12
-4.67362e-11
-9.86899e-12
-4.34381e-11
-1.11856e-11
-3.98089e-11
-1.24084e-11
-3.58768e-11
-1.35259e-11
-3.16753e-11
-1.45245e-11
-2.72397e-11
-1.5393e-11
-2.26096e-11
-1.61192e-11
-1.78259e-11
-1.66939e-11
-1.29318e-11
-1.71095e-11
-7.97122e-12
-1.73618e-11
-2.98847e-12
-1.74494e-11
1.97106e-12
-1.73722e-11
6.86322e-12
-1.71319e-11
1.16426e-11
-1.67299e-11
1.62673e-11
-1.6171e-11
2.06947e-11
-1.54602e-11
2.4888e-11
-1.4608e-11
2.88103e-11
-1.36243e-11
3.24316e-11
-1.25237e-11
3.57213e-11
-1.1317e-11
3.86566e-11
-1.00204e-11
4.12149e-11
-8.64591e-12
4.33824e-11
-7.21305e-12
4.51451e-11
-5.73551e-12
4.64973e-11
-4.23215e-12
4.74321e-11
-2.71241e-12
4.79512e-11
-1.19278e-12
4.8056e-11
3.17057e-13
4.77561e-11
1.79697e-12
4.70609e-11
3.23677e-12
4.59854e-11
4.61922e-12
4.45461e-11
5.9393e-12
4.27639e-11
7.18087e-12
4.06625e-11
8.33652e-12
3.82678e-11
9.38582e-12
3.56116e-11
1.03182e-11
3.27271e-11
1.11105e-11
2.96571e-11
1.17504e-11
2.64423e-11
1.22127e-11
2.31378e-11
1.24794e-11
1.97956e-11
1.25172e-11
1.64845e-11
1.23048e-11
1.32704e-11
1.18122e-11
1.02328e-11
1.10307e-11
7.4382e-12
9.94986e-12
4.97654e-12
8.56903e-12
2.91487e-12
6.88618e-12
1.34491e-12
4.92896e-12
3.4784e-13
2.79874e-12
7.75097e-13
-4.88974e-13
1.62e-12
-1.84069e-12
5.04029e-12
-3.9538e-12
8.30475e-12
-6.69584e-12
1.12017e-11
-9.95731e-12
1.36492e-11
-1.362e-11
1.56413e-11
-1.75883e-11
1.71874e-11
-2.1759e-11
1.83032e-11
-2.60498e-11
1.90048e-11
-3.03723e-11
1.93193e-11
-3.46558e-11
1.92812e-11
-3.883e-11
1.89298e-11
-4.28392e-11
1.83017e-11
-4.66323e-11
1.74356e-11
-5.01669e-11
1.63587e-11
-5.34017e-11
1.51014e-11
-5.63028e-11
1.36825e-11
-5.88407e-11
1.21281e-11
-6.09905e-11
1.04538e-11
-6.273e-11
8.68023e-12
-6.40391e-11
6.81913e-12
-6.49026e-11
4.88895e-12
-6.53066e-11
2.90128e-12
-6.52435e-11
8.75437e-13
-6.47061e-11
-1.17494e-12
-6.36948e-11
-3.22987e-12
-6.22104e-11
-5.27479e-12
-6.02614e-11
-7.28934e-12
-5.78569e-11
-9.25754e-12
-5.50137e-11
-1.11586e-11
-5.17499e-11
-1.29759e-11
-4.80905e-11
-1.46893e-11
-4.40622e-11
-1.62827e-11
-3.96984e-11
-1.77375e-11
-3.50343e-11
-1.90383e-11
-3.01109e-11
-2.01681e-11
-2.49709e-11
-2.11129e-11
-1.96607e-11
-2.18596e-11
-1.42277e-11
-2.23997e-11
-8.72086e-12
-2.27273e-11
-3.1904e-12
-2.28399e-11
2.31389e-12
-2.27374e-11
7.7406e-12
-2.24205e-11
1.30411e-11
-2.18928e-11
1.81658e-11
-2.11587e-11
2.30707e-11
-2.02283e-11
2.77117e-11
-1.91127e-11
3.20522e-11
-1.78286e-11
3.60549e-11
-1.63907e-11
3.96913e-11
-1.48181e-11
4.29319e-11
-1.31264e-11
4.57575e-11
-1.1338e-11
4.81483e-11
-9.47157e-12
5.00946e-11
-7.55169e-12
5.15851e-11
-5.59452e-12
5.26185e-11
-3.62121e-12
5.31923e-11
-1.64488e-12
5.33144e-11
3.11485e-13
5.29916e-11
2.23262e-12
5.22385e-11
4.09548e-12
5.10693e-11
5.88964e-12
4.95043e-11
7.59649e-12
4.75651e-11
9.20739e-12
4.52767e-11
1.07014e-11
4.2668e-11
1.2066e-11
3.97702e-11
1.32753e-11
3.66221e-11
1.43134e-11
3.32608e-11
1.51534e-11
2.97357e-11
1.57761e-11
2.6096e-11
1.61441e-11
2.24076e-11
1.62288e-11
1.87314e-11
1.59912e-11
1.51503e-11
1.54035e-11
1.1734e-11
1.44448e-11
8.58002e-12
1.31035e-11
5.76961e-12
1.13672e-11
3.40458e-12
9.24182e-12
1.58174e-12
6.73252e-12
4.17516e-13
3.95279e-12
1.18619e-12
-5.53323e-13
2.1978e-12
-2.08718e-12
6.62079e-12
-4.46728e-12
1.07355e-11
-7.54592e-12
1.43269e-11
-1.11771e-11
1.73353e-11
-1.52407e-11
1.97581e-11
-1.96124e-11
2.1621e-11
-2.41885e-11
2.29408e-11
-2.88654e-11
2.37522e-11
-3.35605e-11
2.40858e-11
-3.81904e-11
2.39921e-11
-4.26924e-11
2.35149e-11
-4.70024e-11
2.27045e-11
-5.10726e-11
2.16019e-11
-5.48565e-11
2.02481e-11
-5.83159e-11
1.86701e-11
-6.14151e-11
1.68998e-11
-6.41242e-11
1.49595e-11
-6.64169e-11
1.28763e-11
-6.82689e-11
1.06659e-11
-6.96602e-11
8.35024e-12
-7.0572e-11
5.94366e-12
-7.09916e-11
3.46817e-12
-7.09068e-11
9.40055e-13
-7.03127e-11
-1.6171e-12
-6.92046e-11
-4.18504e-12
-6.75864e-11
-6.73923e-12
-6.54624e-11
-9.25969e-12
-6.28459e-11
-1.1721e-11
-5.97506e-11
-1.41019e-11
-5.61991e-11
-1.6377e-11
-5.22149e-11
-1.85249e-11
-4.78296e-11
-2.05214e-11
-4.30769e-11
-2.23459e-11
-3.79973e-11
-2.39758e-11
-3.26338e-11
-2.53917e-11
-2.70343e-11
-2.65746e-11
-2.12485e-11
-2.75097e-11
-1.53286e-11
-2.81855e-11
-9.32875e-12
-2.85947e-11
-3.30355e-12
-2.87337e-11
2.69042e-12
-2.86011e-11
8.59844e-12
-2.81986e-11
1.43643e-11
-2.75295e-11
1.99371e-11
-2.66021e-11
2.52652e-11
-2.54274e-11
3.03051e-11
-2.4023e-11
3.50127e-11
-2.24068e-11
3.93531e-11
-2.06011e-11
4.32903e-11
-1.86255e-11
4.67992e-11
-1.65053e-11
4.98533e-11
-1.42627e-11
5.24385e-11
-1.19277e-11
5.45382e-11
-9.52343e-12
5.61478e-11
-7.07778e-12
5.72605e-11
-4.60938e-12
5.78817e-11
-2.14459e-12
5.8015e-11
2.97068e-13
5.76743e-11
2.68729e-12
5.68712e-11
5.00905e-12
5.56255e-11
7.23893e-12
5.39564e-11
9.36512e-12
5.18886e-11
1.13658e-11
4.94478e-11
1.32283e-11
4.6663e-11
1.49263e-11
4.3568e-11
1.64413e-11
4.01969e-11
1.77435e-11
3.65923e-11
1.88132e-11
3.27966e-11
1.96141e-11
2.8869e-11
2.01116e-11
2.48659e-11
2.02585e-11
2.08647e-11
2.00182e-11
1.69337e-11
1.93473e-11
1.31703e-11
1.82221e-11
9.66273e-12
1.66124e-11
6.52553e-12
1.45086e-11
3.86095e-12
1.18982e-11
1.80606e-12
8.78461e-12
4.73938e-13
5.27463e-12
1.66267e-12
-6.16191e-13
2.8381e-12
-2.3144e-12
8.37668e-12
-4.95971e-12
1.3431e-11
-8.36081e-12
1.7785e-11
-1.23608e-11
2.13897e-11
-1.68061e-11
2.42665e-11
-2.1568e-11
2.64447e-11
-2.65191e-11
2.79628e-11
-3.15567e-11
2.88607e-11
-3.65836e-11
2.9193e-11
-4.15241e-11
2.90142e-11
-4.6306e-11
2.83877e-11
-5.08745e-11
2.73663e-11
-5.51763e-11
2.60062e-11
-5.9169e-11
2.43467e-11
-6.28127e-11
2.24281e-11
-6.60743e-11
2.02795e-11
-6.89235e-11
1.79342e-11
-7.1332e-11
1.54139e-11
-7.32759e-11
1.2745e-11
-7.47321e-11
9.9447e-12
-7.56834e-11
7.0374e-12
-7.6112e-11
4.04139e-12
-7.60077e-11
9.82863e-13
-7.53597e-11
-2.11688e-12
-7.41665e-11
-5.22935e-12
-7.24263e-11
-8.33051e-12
-7.01475e-11
-1.13903e-11
-6.73387e-11
-1.43827e-11
-6.40183e-11
-1.7277e-11
-6.02053e-11
-2.00464e-11
-5.59283e-11
-2.26607e-11
-5.12176e-11
-2.50932e-11
-4.6112e-11
-2.73152e-11
-4.06527e-11
-2.93012e-11
-3.48875e-11
-3.10254e-11
-2.88667e-11
-3.24662e-11
-2.26447e-11
-3.36044e-11
-1.62781e-11
-3.44265e-11
-9.82568e-12
-3.49229e-11
-3.3481e-12
-3.50883e-11
3.09438e-12
-3.49211e-11
9.43972e-12
-3.44222e-11
1.563e-11
-3.35977e-11
2.16065e-11
-3.24568e-11
2.73182e-11
-3.10165e-11
3.27139e-11
-2.92961e-11
3.77518e-11
-2.73209e-11
4.23892e-11
-2.51146e-11
4.65945e-11
-2.27057e-11
5.03347e-11
-2.01202e-11
5.35899e-11
-1.73918e-11
5.6338e-11
-1.45501e-11
5.85705e-11
-1.16301e-11
6.0276e-11
-8.65835e-12
6.14567e-11
-5.66631e-12
6.21125e-11
-2.67823e-12
6.22559e-11
2.72997e-13
6.18963e-11
3.16391e-12
6.10526e-11
5.96495e-12
5.97418e-11
8.6589e-12
5.79883e-11
1.12209e-11
5.58159e-11
1.36368e-11
5.32524e-11
1.58816e-11
5.03272e-11
1.79372e-11
4.70709e-11
1.97727e-11
4.35194e-11
2.13664e-11
3.97082e-11
2.26836e-11
3.56872e-11
2.36915e-11
3.15039e-11
2.43382e-11
2.72261e-11
2.45781e-11
2.29179e-11
2.43549e-11
1.86676e-11
2.36265e-11
1.45646e-11
2.23408e-11
1.07234e-11
2.04717e-11
7.25465e-12
1.79824e-11
4.30828e-12
1.48537e-11
2.01316e-12
1.10774e-11
5.32396e-13
6.7624e-12
2.19726e-12
-6.73328e-13
3.54194e-12
-2.54519e-12
1.03043e-11
-5.44638e-12
1.63932e-11
-9.18072e-12
2.1575e-11
-1.35447e-11
2.58181e-11
-1.83737e-11
2.91575e-11
-2.35061e-11
3.16483e-11
-2.88171e-11
3.3344e-11
-3.41828e-11
3.4306e-11
-3.95133e-11
3.46033e-11
-4.47234e-11
3.43135e-11
-4.97498e-11
3.35049e-11
-5.45328e-11
3.22491e-11
-5.90275e-11
3.06032e-11
-6.31896e-11
2.86194e-11
-6.69833e-11
2.63356e-11
-7.03754e-11
2.37927e-11
-7.33359e-11
2.10191e-11
-7.58376e-11
1.80459e-11
-7.7854e-11
1.48946e-11
-7.93638e-11
1.1592e-11
-8.03446e-11
8.15782e-12
-8.07809e-11
4.61974e-12
-8.06557e-11
1.00091e-12
-7.99614e-11
-2.66727e-12
-7.86894e-11
-6.35722e-12
-7.68423e-11
-1.00343e-11
-7.44222e-11
-1.36681e-11
-7.14421e-11
-1.72223e-11
-6.79154e-11
-2.06649e-11
-6.38663e-11
-2.39594e-11
-5.93202e-11
-2.70728e-11
-5.43127e-11
-2.99697e-11
-4.88812e-11
-3.26179e-11
-4.30721e-11
-3.49844e-11
-3.69341e-11
-3.70397e-11
-3.05223e-11
-3.87564e-11
-2.38945e-11
-4.01125e-11
-1.71122e-11
-4.10906e-11
-1.02394e-11
-4.16789e-11
-3.34107e-12
-4.18705e-11
3.51569e-12
-4.16625e-11
1.02664e-11
-4.10573e-11
1.68455e-11
-4.00615e-11
2.31944e-11
-3.86894e-11
2.9254e-11
-3.69597e-11
3.49753e-11
-3.48994e-11
4.03083e-11
-3.25356e-11
4.52145e-11
-2.99006e-11
4.96539e-11
-2.70246e-11
5.36003e-11
-2.39443e-11
5.70254e-11
-2.06946e-11
5.99162e-11
-1.73171e-11
6.22562e-11
-1.38467e-11
6.40442e-11
-1.03224e-11
6.52756e-11
-6.77472e-12
6.5961e-11
-3.24141e-12
6.61067e-11
2.47853e-13
6.57316e-11
3.657e-12
6.48503e-11
6.96195e-12
6.34876e-11
1.01327e-11
6.16655e-11
1.31512e-11
5.94118e-11
1.59918e-11
5.67531e-11
1.86382e-11
5.37185e-11
2.10609e-11
5.03383e-11
2.32385e-11
4.66416e-11
2.51378e-11
4.2668e-11
2.67289e-11
3.84562e-11
2.79627e-11
3.406e-11
2.87919e-11
2.95322e-11
2.91502e-11
2.49497e-11
2.89813e-11
2.039e-11
2.82165e-11
1.59665e-11
2.67962e-11
1.17854e-11
2.46711e-11
7.99865e-12
2.17911e-11
4.75209e-12
1.81089e-11
2.2265e-12
1.36181e-11
5.84305e-13
8.40935e-12
2.7931e-12
-7.37269e-13
4.30871e-12
-2.78462e-12
1.24185e-11
-5.96669e-12
1.96336e-11
-1.00393e-11
2.57132e-11
-1.4786e-11
3.06266e-11
-1.99938e-11
3.44362e-11
-2.54972e-11
3.72207e-11
-3.1142e-11
3.9067e-11
-3.6815e-11
4.00568e-11
-4.24116e-11
4.02868e-11
-4.78582e-11
3.98479e-11
-5.30861e-11
3.88293e-11
-5.80466e-11
3.73079e-11
-6.26924e-11
3.53555e-11
-6.69876e-11
3.30237e-11
-7.08971e-11
3.03612e-11
-7.43899e-11
2.74046e-11
-7.7437e-11
2.41911e-11
-8.001e-11
2.07465e-11
-8.20844e-11
1.71009e-11
-8.36344e-11
1.3276e-11
-8.46401e-11
9.30004e-12
-8.50791e-11
5.19648e-12
-8.49373e-11
9.97671e-13
-8.4199e-11
-3.26672e-12
-8.28597e-11
-7.55844e-12
-8.09142e-11
-1.18425e-11
-7.83693e-11
-1.60775e-11
-7.52316e-11
-2.0226e-11
-7.15197e-11
-2.42455e-11
-6.72528e-11
-2.80969e-11
-6.24615e-11
-3.17377e-11
-5.71782e-11
-3.51288e-11
-5.14456e-11
-3.82292e-11
-4.5309e-11
-4.10017e-11
-3.88227e-11
-4.34092e-11
-3.20434e-11
-4.54206e-11
-2.50342e-11
-4.70083e-11
-1.7861e-11
-4.81518e-11
-1.05924e-11
-4.88362e-11
-3.29981e-12
-4.90525e-11
3.94639e-12
-4.8798e-11
1.10743e-11
-4.80748e-11
1.80175e-11
-4.68933e-11
2.47094e-11
-4.52697e-11
3.10928e-11
-4.32298e-11
3.71096e-11
-4.08026e-11
4.27139e-11
-3.8024e-11
4.78581e-11
-3.49286e-11
5.25091e-11
-3.15569e-11
5.66319e-11
-2.79481e-11
6.02078e-11
-2.41493e-11
6.32152e-11
-2.02034e-11
6.5649e-11
-1.61577e-11
6.74997e-11
-1.20508e-11
6.87749e-11
-7.92687e-12
6.94773e-11
-3.82191e-12
6.9625e-11
2.21286e-13
6.92307e-11
4.17078e-12
6.83199e-11
7.98969e-12
6.69134e-11
1.16537e-11
6.50408e-11
1.51336e-11
6.27269e-11
1.84128e-11
6.00004e-11
2.14648e-11
5.68883e-11
2.42699e-11
5.34173e-11
2.67973e-11
4.96173e-11
2.90226e-11
4.55174e-11
3.09025e-11
4.116e-11
3.23916e-11
3.65822e-11
3.34285e-11
3.18445e-11
3.39457e-11
2.70063e-11
3.38637e-11
2.2166e-11
3.31019e-11
1.74179e-11
3.15754e-11
1.29081e-11
2.92148e-11
8.78097e-12
2.59385e-11
5.2306e-12
2.16846e-11
2.44462e-12
1.64168e-11
6.45574e-13
1.02304e-11
3.44783e-12
-8.02362e-13
5.14705e-12
-3.0601e-12
1.47385e-11
-6.54768e-12
2.31891e-11
-1.10008e-11
3.02278e-11
-1.61409e-11
3.5837e-11
-2.17442e-11
4.01064e-11
-2.7605e-11
4.31577e-11
-3.35718e-11
4.51086e-11
-3.9515e-11
4.60837e-11
-4.53457e-11
4.62012e-11
-5.09828e-11
4.55773e-11
-5.63729e-11
4.43129e-11
-6.14656e-11
4.25021e-11
-6.62247e-11
4.0218e-11
-7.06149e-11
3.75243e-11
-7.46072e-11
3.44664e-11
-7.8172e-11
3.10879e-11
-8.12801e-11
2.74203e-11
-8.39056e-11
2.34973e-11
-8.60206e-11
1.93433e-11
-8.76024e-11
1.49877e-11
-8.86243e-11
1.04534e-11
-8.9067e-11
5.77139e-12
-8.89073e-11
9.70843e-13
-8.81332e-11
-3.90869e-12
-8.6731e-11
-8.8288e-12
-8.47004e-11
-1.3743e-11
-8.20405e-11
-1.86084e-11
-7.87634e-11
-2.33768e-11
-7.48808e-11
-2.80032e-11
-7.04173e-11
-3.24386e-11
-6.53982e-11
-3.66368e-11
-5.98612e-11
-4.05488e-11
-5.3846e-11
-4.4129e-11
-4.74037e-11
-4.73311e-11
-4.05883e-11
-5.01133e-11
-3.34622e-11
-5.2437e-11
-2.60916e-11
-5.42704e-11
-1.85476e-11
-5.55881e-11
-1.09046e-11
-5.63721e-11
-3.23794e-12
-5.66119e-11
4.37476e-12
-5.63036e-11
1.18599e-11
-5.54518e-11
1.9143e-11
-5.40681e-11
2.61582e-11
-5.21747e-11
3.28393e-11
-4.98002e-11
3.91316e-11
-4.69818e-11
4.49794e-11
-4.37583e-11
5.03416e-11
-4.01746e-11
5.51758e-11
-3.62746e-11
5.9457e-11
-3.211e-11
6.31575e-11
-2.77307e-11
6.6268e-11
-2.31922e-11
6.8774e-11
-1.85426e-11
7.06795e-11
-1.38335e-11
7.1983e-11
-9.10841e-12
7.27006e-11
-4.41695e-12
7.28423e-11
2.00624e-13
7.24341e-11
4.69913e-12
7.14961e-11
9.04587e-12
7.00603e-11
1.32049e-11
6.81516e-11
1.71552e-11
6.58005e-11
2.08717e-11
6.30323e-11
2.43381e-11
5.98737e-11
2.75263e-11
5.63501e-11
3.04158e-11
5.24845e-11
3.29735e-11
4.83062e-11
3.51637e-11
4.384e-11
3.69291e-11
3.91292e-11
3.82091e-11
3.42106e-11
3.89211e-11
2.91586e-11
3.89724e-11
2.4047e-11
3.82563e-11
1.89963e-11
3.66709e-11
1.41372e-11
3.41046e-11
9.6608e-12
3.04498e-11
5.76281e-12
2.56036e-11
2.70122e-12
1.95068e-11
7.05194e-13
1.2242e-11
4.17066e-12
-8.8815e-13
6.06875e-12
-3.38858e-12
1.73105e-11
-7.25123e-12
2.71138e-11
-1.21274e-11
3.5173e-11
-1.77053e-11
4.14791e-11
-2.37044e-11
4.61788e-11
-2.99181e-11
4.9442e-11
-3.61724e-11
5.14423e-11
-4.23546e-11
5.23444e-11
-4.8368e-11
5.23017e-11
-5.41517e-11
5.14483e-11
-5.96514e-11
4.99078e-11
-6.48328e-11
4.77799e-11
-6.96607e-11
4.51493e-11
-7.4109e-11
4.20779e-11
-7.81498e-11
3.86182e-11
-8.1756e-11
3.48074e-11
-8.49009e-11
3.06826e-11
-8.75563e-11
2.62722e-11
-8.96982e-11
2.16074e-11
-9.12982e-11
1.67114e-11
-9.23331e-11
1.1613e-11
-9.27739e-11
6.33783e-12
-9.2601e-11
9.23015e-13
-9.17914e-11
-4.59303e-12
-9.03365e-11
-1.01601e-11
-8.82269e-11
-1.57296e-11
-8.54678e-11
-2.12469e-11
-8.20629e-11
-2.66621e-11
-7.80297e-11
-3.19198e-11
-7.33851e-11
-3.69677e-11
-6.81597e-11
-4.17494e-11
-6.23861e-11
-4.6211e-11
-5.61095e-11
-5.02965e-11
-4.9379e-11
-5.39537e-11
-4.22543e-11
-5.71317e-11
-3.47995e-11
-5.97863e-11
-2.70863e-11
-6.18788e-11
-1.91904e-11
-6.33795e-11
-1.11912e-11
-6.42667e-11
-3.17052e-12
-6.45278e-11
4.7911e-12
-6.41593e-11
1.26121e-11
-6.31664e-11
2.02177e-11
-6.15654e-11
2.7533e-11
-5.93812e-11
3.44941e-11
-5.66497e-11
4.1036e-11
-5.34119e-11
4.71089e-11
-4.97163e-11
5.26619e-11
-4.56123e-11
5.76621e-11
-4.11566e-11
6.20754e-11
-3.64052e-11
6.5887e-11
-3.14214e-11
6.90778e-11
-2.62626e-11
7.16476e-11
-2.09897e-11
7.35904e-11
-1.56547e-11
7.49195e-11
-1.03145e-11
7.56414e-11
-5.01735e-12
7.57809e-11
1.82736e-13
7.5357e-11
5.24269e-12
7.44041e-11
1.01171e-11
7.29483e-11
1.47765e-11
7.10238e-11
1.91923e-11
6.8656e-11
2.33494e-11
6.58746e-11
2.72238e-11
6.27036e-11
3.07987e-11
5.91646e-11
3.40486e-11
5.52795e-11
3.69496e-11
5.10651e-11
3.94592e-11
4.6545e-11
4.15281e-11
4.17416e-11
4.30796e-11
3.66978e-11
4.4031e-11
3.1461e-11
4.42621e-11
2.6117e-11
4.36539e-11
2.07626e-11
4.2065e-11
1.556e-11
3.935e-11
1.0689e-11
3.53495e-11
6.4128e-12
2.99144e-11
3.00572e-12
2.29352e-11
7.88686e-13
1.44897e-11
4.97195e-12
-9.9956e-13
7.10742e-12
-3.83306e-12
2.02075e-11
-8.15068e-12
3.15006e-11
-1.35335e-11
4.06169e-11
-1.95791e-11
4.75942e-11
-2.59884e-11
5.26536e-11
-3.25214e-11
5.60493e-11
-3.90275e-11
5.80207e-11
-4.53878e-11
5.87853e-11
-5.15319e-11
5.85259e-11
-5.73993e-11
5.74035e-11
-6.29572e-11
5.55541e-11
-6.81732e-11
5.30911e-11
-7.30259e-11
5.00985e-11
-7.74902e-11
4.66444e-11
-8.15435e-11
4.27756e-11
-8.51606e-11
3.85327e-11
-8.83138e-11
3.3946e-11
-9.09787e-11
2.905e-11
-9.31273e-11
2.38705e-11
-9.47356e-11
1.84354e-11
-9.57718e-11
1.2766e-11
-9.62105e-11
6.89309e-12
-9.602e-11
8.49602e-13
-9.51815e-11
-5.31588e-12
-9.36755e-11
-1.15505e-11
-9.14997e-11
-1.7792e-11
-8.865e-11
-2.39837e-11
-8.51364e-11
-3.00653e-11
-8.09668e-11
-3.59798e-11
-7.61633e-11
-4.16643e-11
-7.07489e-11
-4.70576e-11
-6.47613e-11
-5.20946e-11
-5.82417e-11
-5.67127e-11
-5.12446e-11
-6.08489e-11
-4.38295e-11
-6.44453e-11
-3.60663e-11
-6.74487e-11
-2.80298e-11
-6.98144e-11
-1.98013e-11
-7.15067e-11
-1.14659e-11
-7.25005e-11
-3.10949e-12
-7.27812e-11
5.17988e-12
-7.2345e-11
1.33191e-11
-7.11998e-11
2.12245e-11
-6.9364e-11
2.8822e-11
-6.68691e-11
3.60374e-11
-6.37548e-11
4.28105e-11
-6.00714e-11
4.90811e-11
-5.58728e-11
5.48071e-11
-5.12209e-11
5.99465e-11
-4.61786e-11
6.44778e-11
-4.0816e-11
6.83763e-11
-3.52001e-11
7.16378e-11
-2.94016e-11
7.42522e-11
-2.3483e-11
7.62297e-11
-1.75092e-11
7.75728e-11
-1.15365e-11
7.83034e-11
-5.62589e-12
7.84368e-11
1.69141e-13
7.80083e-11
5.79048e-12
7.7046e-11
1.1196e-11
7.55895e-11
1.63478e-11
7.36659e-11
2.12276e-11
7.13084e-11
2.58147e-11
6.85426e-11
3.00945e-11
6.53948e-11
3.40453e-11
6.18838e-11
3.76554e-11
5.80226e-11
4.08983e-11
5.38265e-11
4.37403e-11
4.9302e-11
4.61271e-11
4.44704e-11
4.7984e-11
3.93499e-11
4.92121e-11
3.39903e-11
4.96821e-11
2.84439e-11
4.92472e-11
2.28218e-11
4.7736e-11
1.72589e-11
4.49477e-11
1.19762e-11
4.06718e-11
7.23924e-12
3.4677e-11
3.4202e-12
2.67881e-11
8.92331e-13
1.70371e-11
5.88421e-12
-1.18208e-12
8.32399e-12
-4.47217e-12
2.35683e-11
-9.39382e-12
3.64824e-11
-1.53619e-11
4.6651e-11
-2.19171e-11
5.42094e-11
-2.87084e-11
5.95133e-11
-3.55214e-11
6.29276e-11
-4.22039e-11
6.47769e-11
-4.86745e-11
6.5328e-11
-5.48684e-11
6.47994e-11
-6.07552e-11
6.33698e-11
-6.63048e-11
6.11899e-11
-7.15024e-11
5.83757e-11
-7.63283e-11
5.50168e-11
-8.07659e-11
5.11759e-11
-8.47937e-11
4.69014e-11
-8.83873e-11
4.22259e-11
-9.15212e-11
3.71822e-11
-9.41674e-11
3.18001e-11
-9.63035e-11
2.61118e-11
-9.78994e-11
2.01377e-11
-9.89285e-11
1.39013e-11
-9.93536e-11
7.42533e-12
-9.91465e-11
7.48384e-13
-9.8275e-11
-6.08107e-12
-9.6726e-11
-1.29952e-11
-9.44878e-11
-1.99259e-11
-9.15643e-11
-2.68054e-11
-8.79547e-11
-3.35734e-11
-8.36718e-11
-4.01636e-11
-7.87277e-11
-4.65098e-11
-7.315e-11
-5.25389e-11
-6.69694e-11
-5.81791e-11
-6.02324e-11
-6.33552e-11
-5.29907e-11
-6.7996e-11
-4.53098e-11
-7.20325e-11
-3.72608e-11
-7.54035e-11
-2.89246e-11
-7.80562e-11
-2.03869e-11
-7.99492e-11
-1.17378e-11
-8.10531e-11
-3.06985e-12
-8.13514e-11
5.52599e-12
-8.08408e-11
1.39579e-11
-7.95303e-11
2.21418e-11
-7.74435e-11
2.99937e-11
-7.46152e-11
3.74424e-11
-7.10939e-11
4.44172e-11
-6.69357e-11
5.08657e-11
-6.22069e-11
5.6736e-11
-5.69766e-11
6.19982e-11
-5.13224e-11
6.66208e-11
-4.53207e-11
7.05944e-11
-3.90526e-11
7.39049e-11
-3.25925e-11
7.65601e-11
-2.60162e-11
7.85601e-11
-1.93893e-11
7.9924e-11
-1.27792e-11
8.06606e-11
-6.24401e-12
8.08008e-11
1.47649e-13
8.03721e-11
6.33477e-12
7.94203e-11
1.22623e-11
7.7978e-11
1.79011e-11
7.6084e-11
2.32301e-11
7.37634e-11
2.82403e-11