/*--------------------------------*- C++ -*----------------------------------*\
| =========                 |                                                 |
| \\      /  F ield         | OpenFOAM: The Open Source CFD Toolbox           |
|  \\    /   O peration     | Version:  2412                                  |
|   \\  /    A nd           | Website:  www.openfoam.com                      |
|    \\/     M anipulation  |                                                 |
\*---------------------------------------------------------------------------*/
FoamFile
{
    version     2.0;
    format      ascii;
    arch        "LSB;label=32;scalar=64";
    class       volScalarField;
    location    "6.3";
    object      p_rgh;
}
// * * * * * * * * * * * * * * * * * * * * * * * * * * * * * * * * * * * * * //

dimensions      [1 -1 -2 0 0 0 0];

internalField   nonuniform List<scalar> 
6400
(
7833.38
7833.17
7832.66
7831.82
7830.67
7829.22
7827.49
7825.51
7823.3
7820.9
7818.33
7815.62
7812.77
7809.82
7806.78
7803.65
7800.44
7797.17
7793.85
7790.47
7787.05
7783.59
7780.11
7776.62
7773.12
7769.65
7766.22
7762.85
7759.57
7756.41
7753.4
7750.58
7747.98
7745.64
7743.57
7741.81
7740.38
7739.3
7738.58
7738.24
7738.28
7738.69
7739.47
7740.61
7742.09
7743.88
7745.97
7748.33
7750.91
7753.69
7756.65
7759.73
7762.91
7766.17
7769.47
7772.79
7776.12
7779.45
7782.75
7786.02
7789.26
7792.47
7795.63
7798.75
7801.81
7804.82
7807.77
7810.63
7813.42
7816.09
7818.64
7821.03
7823.23
7825.22
7826.97
7828.43
7829.6
7830.44
7830.96
7831.17
7833.58
7833.37
7832.85
7832.01
7830.86
7829.39
7827.65
7825.66
7823.44
7821.03
7818.45
7815.73
7812.88
7809.93
7806.88
7803.75
7800.55
7797.29
7793.96
7790.58
7787.16
7783.7
7780.21
7776.7
7773.19
7769.69
7766.23
7762.82
7759.5
7756.3
7753.25
7750.38
7747.73
7745.34
7743.23
7741.43
7739.97
7738.86
7738.13
7737.78
7737.82
7738.24
7739.04
7740.21
7741.72
7743.55
7745.69
7748.09
7750.72
7753.56
7756.55
7759.68
7762.9
7766.19
7769.52
7772.87
7776.22
7779.55
7782.86
7786.13
7789.37
7792.57
7795.73
7798.84
7801.9
7804.91
7807.86
7810.73
7813.52
7816.2
7818.75
7821.15
7823.37
7825.37
7827.13
7828.61
7829.78
7830.64
7831.16
7831.37
7834.06
7833.85
7833.32
7832.47
7831.29
7829.79
7828.02
7825.99
7823.74
7821.3
7818.7
7815.95
7813.09
7810.12
7807.07
7803.93
7800.73
7797.46
7794.13
7790.75
7787.31
7783.84
7780.33
7776.79
7773.25
7769.7
7766.19
7762.72
7759.33
7756.05
7752.92
7749.97
7747.24
7744.76
7742.57
7740.71
7739.19
7738.04
7737.28
7736.91
7736.95
7737.39
7738.23
7739.44
7741.01
7742.92
7745.14
7747.62
7750.34
7753.26
7756.34
7759.54
7762.83
7766.18
7769.56
7772.95
7776.33
7779.68
7783
7786.29
7789.53
7792.73
7795.88
7798.99
7802.05
7805.06
7808.02
7810.9
7813.7
7816.41
7818.99
7821.42
7823.68
7825.72
7827.52
7829.03
7830.24
7831.11
7831.64
7831.86
7834.85
7834.63
7834.09
7833.21
7831.99
7830.44
7828.61
7826.52
7824.21
7821.72
7819.07
7816.28
7813.39
7810.39
7807.32
7804.17
7800.95
7797.67
7794.33
7790.93
7787.49
7783.99
7780.45
7776.88
7773.28
7769.67
7766.08
7762.53
7759.04
7755.66
7752.41
7749.34
7746.49
7743.9
7741.6
7739.63
7738.03
7736.82
7736.01
7735.63
7735.67
7736.13
7737.02
7738.3
7739.97
7741.98
7744.31
7746.92
7749.76
7752.81
7756
7759.31
7762.7
7766.13
7769.58
7773.02
7776.44
7779.82
7783.16
7786.46
7789.7
7792.9
7796.06
7799.17
7802.24
7805.26
7808.23
7811.14
7813.98
7816.73
7819.36
7821.86
7824.18
7826.29
7828.16
7829.73
7830.98
7831.88
7832.43
7832.65
7835.94
7835.72
7835.17
7834.24
7832.96
7831.34
7829.42
7827.24
7824.85
7822.28
7819.56
7816.71
7813.77
7810.74
7807.63
7804.45
7801.21
7797.92
7794.56
7791.15
7787.68
7784.15
7780.58
7776.95
7773.29
7769.61
7765.93
7762.26
7758.65
7755.12
7751.73
7748.5
7745.49
7742.74
7740.29
7738.2
7736.48
7735.18
7734.31
7733.89
7733.94
7734.44
7735.4
7736.78
7738.56
7740.72
7743.21
7745.98
7748.99
7752.2
7755.55
7759
7762.51
7766.05
7769.58
7773.1
7776.57
7779.98
7783.34
7786.65
7789.9
7793.1
7796.26
7799.37
7802.45
7805.49
7808.49
7811.44
7814.33
7817.14
7819.86
7822.44
7824.86
7827.08
7829.04
7830.7
7832.02
7832.96
7833.53
7833.76
7837.36
7837.13
7836.55
7835.57
7834.2
7832.48
7830.44
7828.14
7825.63
7822.96
7820.15
7817.23
7814.23
7811.14
7807.99
7804.78
7801.51
7798.2
7794.82
7791.39
7787.9
7784.34
7780.72
7777.04
7773.3
7769.52
7765.72
7761.92
7758.15
7754.45
7750.86
7747.43
7744.22
7741.27
7738.63
7736.36
7734.5
7733.08
7732.14
7731.69
7731.74
7732.29
7733.33
7734.84
7736.79
7739.13
7741.82
7744.8
7748.02
7751.43
7754.98
7758.61
7762.28
7765.95
7769.59
7773.18
7776.71
7780.17
7783.56
7786.87
7790.13
7793.33
7796.48
7799.6
7802.69
7805.75
7808.79
7811.79
7814.75
7817.65
7820.46
7823.16
7825.71
7828.06
7830.15
7831.94
7833.35
7834.36
7834.97
7835.2
7839.12
7838.88
7838.26
7837.21
7835.72
7833.85
7831.65
7829.2
7826.55
7823.76
7820.84
7817.83
7814.74
7811.59
7808.39
7805.14
7801.85
7798.51
7795.12
7791.67
7788.15
7784.56
7780.89
7777.14
7773.31
7769.42
7765.48
7761.51
7757.55
7753.63
7749.81
7746.14
7742.67
7739.47
7736.6
7734.11
7732.06
7730.5
7729.46
7728.96
7729.02
7729.64
7730.79
7732.46
7734.6
7737.17
7740.11
7743.36
7746.85
7750.52
7754.3
7758.15
7762.01
7765.84
7769.6
7773.29
7776.9
7780.4
7783.8
7787.12
7790.37
7793.57
7796.72
7799.84
7802.94
7806.03
7809.11
7812.17
7815.21
7818.21
7821.15
7823.99
7826.7
7829.22
7831.5
7833.45
7835
7836.1
7836.75
7836.99
7841.22
7840.99
7840.32
7839.16
7837.52
7835.45
7833.05
7830.41
7827.59
7824.64
7821.59
7818.48
7815.3
7812.08
7808.82
7805.53
7802.21
7798.85
7795.43
7791.96
7788.42
7784.8
7781.08
7777.26
7773.33
7769.31
7765.21
7761.04
7756.85
7752.68
7748.58
7744.6
7740.83
7737.32
7734.15
7731.39
7729.11
7727.37
7726.21
7725.66
7725.73
7726.42
7727.71
7729.58
7731.97
7734.83
7738.08
7741.65
7745.47
7749.44
7753.52
7757.63
7761.72
7765.74
7769.65
7773.45
7777.11
7780.65
7784.07
7787.39
7790.62
7793.8
7796.94
7800.06
7803.17
7806.29
7809.42
7812.56
7815.7
7818.82
7821.9
7824.92
7827.82
7830.57
7833.08
7835.24
7836.97
7838.2
7838.9
7839.14
7843.68
7843.48
7842.75
7841.43
7839.56
7837.23
7834.58
7831.71
7828.7
7825.58
7822.4
7819.16
7815.89
7812.58
7809.26
7805.92
7802.56
7799.18
7795.75
7792.27
7788.72
7785.06
7781.3
7777.41
7773.38
7769.22
7764.93
7760.54
7756.08
7751.6
7747.16
7742.81
7738.66
7734.77
7731.24
7728.15
7725.59
7723.62
7722.3
7721.68
7721.76
7722.55
7724.02
7726.14
7728.84
7732.06
7735.7
7739.67
7743.89
7748.25
7752.67
7757.09
7761.44
7765.67
7769.75
7773.65
7777.39
7780.96
7784.37
7787.67
7790.87
7794.02
7797.13
7800.23
7803.35
7806.51
7809.7
7812.92
7816.17
7819.43
7822.68
7825.89
7829.03
7832.03
7834.83
7837.3
7839.28
7840.68
7841.46
7841.67
7846.53
7846.39
7845.54
7843.96
7841.75
7839.08
7836.15
7833.06
7829.85
7826.56
7823.22
7819.85
7816.46
7813.07
7809.68
7806.3
7802.91
7799.51
7796.08
7792.6
7789.04
7785.37
7781.56
7777.6
7773.47
7769.15
7764.66
7760.01
7755.24
7750.4
7745.55
7740.77
7736.15
7731.79
7727.81
7724.31
7721.39
7719.15
7717.64
7716.93
7717.03
7717.94
7719.64
7722.06
7725.15
7728.81
7732.93
7737.4
7742.1
7746.93
7751.77
7756.56
7761.21
7765.68
7769.93
7773.95
7777.74
7781.32
7784.71
7787.96
7791.1
7794.19
7797.25
7800.34
7803.46
7806.65
7809.9
7813.22
7816.59
7820.01
7823.45
7826.88
7830.25
7833.53
7836.65
7839.5
7841.86
7843.55
7844.46
7844.61
7849.8
7849.72
7848.6
7846.52
7843.79
7840.76
7837.62
7834.37
7830.99
7827.53
7824.03
7820.52
7817.01
7813.52
7810.06
7806.63
7803.21
7799.8
7796.38
7792.91
7789.36
7785.7
7781.87
7777.85
7773.61
7769.13
7764.41
7759.47
7754.35
7749.08
7743.75
7738.45
7733.27
7728.34
7723.8
7719.79
7716.42
7713.83
7712.08
7711.25
7711.37
7712.43
7714.4
7717.22
7720.79
7725.01
7729.73
7734.81
7740.11
7745.49
7750.83
7756.05
7761.05
7765.78
7770.22
7774.35
7778.18
7781.74
7785.08
7788.24
7791.3
7794.29
7797.29
7800.34
7803.45
7806.67
7809.99
7813.41
7816.93
7820.53
7824.16
7827.81
7831.39
7834.88
7838.27
7841.53
7844.47
7846.7
7847.91
7848
7853.59
7853.39
7851.69
7848.77
7845.39
7842.08
7838.88
7835.61
7832.13
7828.51
7824.83
7821.14
7817.49
7813.89
7810.34
7806.85
7803.41
7800.01
7796.61
7793.19
7789.69
7786.06
7782.23
7778.17
7773.83
7769.19
7764.23
7758.97
7753.44
7747.69
7741.79
7735.85
7729.98
7724.34
7719.1
7714.44
7710.51
7707.46
7705.4
7704.42
7704.55
7705.8
7708.12
7711.43
7715.62
7720.53
7726
7731.85
7737.89
7743.95
7749.89
7755.61
7761.01
7766.05
7770.68
7774.91
7778.76
7782.26
7785.49
7788.52
7791.43
7794.29
7797.18
7800.16
7803.26
7806.5
7809.9
7813.46
7817.15
7820.95
7824.82
7828.68
7832.43
7836
7839.49
7843.1
7846.76
7849.89
7851.71
7851.94
7858.08
7857.41
7854.81
7850.85
7846.82
7843.31
7840.16
7836.91
7833.33
7829.51
7825.59
7821.69
7817.86
7814.12
7810.47
7806.92
7803.46
7800.08
7796.74
7793.4
7789.99
7786.43
7782.65
7778.59
7774.17
7769.37
7764.16
7758.55
7752.56
7746.24
7739.67
7732.96
7726.25
7719.73
7713.61
7708.12
7703.46
7699.83
7697.37
7696.18
7696.33
7697.8
7700.56
7704.49
7709.44
7715.23
7721.64
7728.44
7735.39
7742.29
7748.96
7755.28
7761.15
7766.52
7771.36
7775.67
7779.5
7782.89
7785.95
7788.77
7791.46
7794.13
7796.87
7799.75
7802.82
7806.1
7809.6
7813.31
7817.23
7821.3
7825.46
7829.58
7833.5
7837.11
7840.62
7844.53
7848.92
7853.12
7855.87
7856.59
7863.58
7862.14
7858.56
7853.71
7849.11
7845.3
7842
7838.56
7834.72
7830.58
7826.33
7822.14
7818.08
7814.15
7810.38
7806.76
7803.28
7799.93
7796.68
7793.47
7790.22
7786.8
7783.13
7779.1
7774.64
7769.7
7764.24
7758.25
7751.75
7744.78
7737.42
7729.78
7722.04
7714.41
7707.17
7700.62
7695.03
7690.64
7687.64
7686.19
7686.34
7688.11
7691.41
7696.13
7702.05
7708.95
7716.54
7724.53
7732.61
7740.53
7748.08
7755.1
7761.52
7767.25
7772.3
7776.68
7780.44
7783.66
7786.46
7788.97
7791.36
7793.76
7796.3
7799.05
7802.08
7805.39
7809.01
7812.92
7817.11
7821.54
7826.11
7830.64
7834.91
7838.74
7842.48
7846.79
7851.93
7857.06
7860.79
7862.28
7870.46
7868.29
7863.91
7858.34
7853.11
7848.69
7844.81
7840.76
7836.36
7831.7
7826.99
7822.41
7818.04
7813.93
7810.02
7806.31
7802.8
7799.5
7796.36
7793.34
7790.31
7787.13
7783.64
7779.7
7775.23
7770.16
7764.46
7758.08
7751.02
7743.3
7735
7726.25
7717.24
7708.22
7699.57
7691.66
7684.87
7679.49
7675.8
7673.99
7674.15
7676.3
7680.33
7686.06
7693.22
7701.51
7710.58
7720.05
7729.51
7738.66
7747.25
7755.12
7762.15
7768.3
7773.56
7777.97
7781.6
7784.56
7786.98
7789.07
7791.04
7793.09
7795.36
7797.95
7800.92
7804.28
7808.04
7812.19
7816.74
7821.63
7826.76
7831.92
7836.87
7841.37
7845.93
7850.93
7856.72
7862.64
7867.18
7869.4
7879.04
7876.46
7871.36
7865.03
7858.88
7853.36
7848.47
7843.36
7838.1
7832.73
7827.46
7822.44
7817.77
7813.44
7809.38
7805.56
7802
7798.72
7795.73
7792.96
7790.27
7787.43
7784.2
7780.38
7775.91
7770.73
7764.76
7757.96
7750.27
7741.69
7732.29
7722.2
7711.64
7700.92
7690.5
7680.88
7672.54
7665.92
7661.36
7659.1
7659.28
7661.88
7666.81
7673.82
7682.55
7692.61
7703.54
7714.83
7725.99
7736.63
7746.48
7755.35
7763.09
7769.68
7775.14
7779.55
7783.01
7785.59
7787.5
7789.01
7790.42
7792
7793.94
7796.35
7799.27
7802.7
7806.62
7811.04
7815.99
7821.43
7827.25
7833.28
7839.26
7845.06
7850.8
7856.92
7863.67
7870.37
7875.71
7878.33
7889.51
7886.63
7880.91
7873.64
7866.15
7859.08
7852.48
7846.02
7839.66
7833.44
7827.56
7822.16
7817.26
7812.8
7808.61
7804.66
7800.99
7797.72
7794.88
7792.43
7790.17
7787.77
7784.84
7781.04
7776.49
7771.1
7764.83
7757.57
7749.2
7739.65
7728.96
7717.3
7704.93
7692.11
7679.36
7667.49
7657.18
7648.93
7643.2
7640.32
7640.47
7643.68
7649.77
7658.42
7669.16
7681.53
7694.91
7708.5
7721.69
7734.14
7745.53
7755.57
7764.11
7771.16
7776.86
7781.33
7784.62
7786.81
7788.08
7788.84
7789.54
7790.54
7792.1
7794.32
7797.21
7800.73
7804.82
7809.49
7814.79
7820.79
7827.39
7834.46
7841.76
7849.17
7856.75
7864.64
7872.72
7880.38
7886.29
7889.25
7901.77
7898.49
7892.02
7883.56
7874.39
7865.31
7856.65
7848.43
7840.7
7833.54
7827.07
7821.39
7816.45
7812.07
7807.89
7803.8
7799.89
7796.54
7793.85
7791.82
7790.22
7788.51
7786.05
7781.96
7777.29
7771.6
7764.91
7757.06
7747.75
7736.79
7724.36
7710.79
7696.29
7680.79
7664.97
7650.06
7636.86
7625.96
7618.16
7614.15
7614.25
7618.53
7626.65
7637.95
7651.57
7666.95
7683.49
7700.14
7715.78
7730.44
7743.9
7755.66
7765.35
7773.03
7779.05
7783.66
7786.88
7788.66
7789.1
7788.81
7788.53
7788.8
7789.91
7791.96
7794.91
7798.6
7802.74
7807.48
7813.02
7819.51
7826.94
7835.19
7844.1
7853.5
7863.3
7873.35
7883.23
7892.16
7898.86
7902.22
7916.25
7912.29
7904.69
7894.61
7883.29
7871.69
7860.47
7850.05
7840.7
7832.52
7825.59
7819.9
7815.28
7811.25
7807.01
7802.57
7798.58
7795.08
7792.57
7791.17
7790.65
7790
7788.01
7783.82
7778.49
7772.11
7764.8
7756.34
7746
7733.31
7718.38
7702.06
7684.04
7666.26
7645.56
7625.07
7605.81
7582.37
7561.12
7549.85
7549.15
7559.95
7581.39
7606.18
7626.03
7646.99
7668.4
7688.76
7707.37
7725.17
7741.77
7755.88
7766.92
7775.26
7781.75
7786.82
7790.3
7791.7
7790.98
7789.13
7787.44
7786.74
7787.25
7789.15
7792.17
7795.76
7800.15
7804.9
7810.44
7817.24
7825.44
7835.03
7845.86
7857.72
7870.3
7883.08
7895.25
7905.86
7913.7
7917.74
7927.2
7917.51
7893.69
7859.54
7816.85
7765.53
7707.84
7650.33
7597.16
7550.31
7513.79
7494.46
7502.21
7540.21
7525.56
7473.08
7380.77
7288.67
7193.53
7125.14
7111.89
7109.46
7083.23
7028.21
6956.21
6879.31
6804.32
6727.35
6623.14
6466.77
6286.74
6161.8
6046.07
5813.44
5434.55
5070.88
4740.53
4425.14
4209.31
4104.38
4094.26
4192.79
4410.4
4736.32
5070.8
5430.57
5815.56
6115.87
6265.41
6380.22
6564.46
6744.61
6864.09
6940.37
6999.88
7062.63
7112.91
7126.98
7116.02
7092.89
7091.16
7138.86
7201.51
7269.65
7353.23
7413.56
7453.8
7439.84
7435.11
7459.76
7506.64
7566.95
7632.66
7700.25
7766.52
7824.46
7870.85
7904.06
7924.04
7932.38
4598.07
4489.45
4272.94
4009.09
3684.49
3356.62
3043.25
2779.35
2575.41
2412.8
2286.84
2192.34
2106.77
2022.7
1950.11
1887.63
1824.81
1795.52
1811.26
1841.33
1874.31
1886.97
1844.62
1751.97
1643.83
1547.78
1457.57
1369.87
1261.23
1123.5
933.845
676.774
434.504
283.704
164
64.9365
1.09986
1.23521
1.4169
1.55629
1.62902
1.60343
1.51629
1.48129
66.3558
168.217
291.731
448.107
681.296
973.094
1233.2
1425.24
1554.57
1644.37
1729.15
1815.29
1905.67
1956.81
1923.2
1848.32
1772.4
1704.97
1660.41
1655.25
1674.06
1721.47
1788.85
1884.1
1996.29
2123.63
2275.98
2469.73
2710.72
3011.27
3366.14
3732.4
4088.64
4370.58
4591.99
4695.69
144.957
105.486
61.9632
1.36679
1.01127
0.876432
0.899269
0.977646
1.05866
1.12474
1.13932
1.13265
1.16133
1.22129
1.21595
1.18538
1.20646
2.39863
4.03974
5.62988
7.79396
11.8552
13.9239
14.3398
14.7143
14.3079
12.5966
10.9222
9.98819
10.0123
5.62911
3.25788
5.40065
0.64845
0.591454
0.580304
0.8074
1.06348
1.28046
1.41907
1.47649
1.4463
1.36829
1.24753
1.04264
0.824215
0.6775
0.702229
1.07203
4.88975
8.95336
10.9802
12.5349
13.5556
14.3355
13.9196
12.7031
11.1203
8.65342
5.77406
3.50638
2.06569
1.30323
1.01573
0.979367
0.938405
0.89468
0.849561
0.812391
0.780183
0.756881
0.720977
0.659877
0.595429
0.606109
0.813338
1.72313
73.943
126.349
174.847
1.13104
1.10668
1.13804
1.18632
1.1155
1.08067
1.04404
1.12577
1.48272
1.67647
1.18513
1.1721
1.27474
3.04043
3.05406
2.96486
2.79832
1.78895
2.13014
2.66858
3.83102
7.30762
7.31457
6.46908
6.29757
5.5406
3.93058
2.94995
3.99242
7.84326
4.50181
2.33766
1.73962
2.5532
2.46836
0.979109
0.905813
1.13288
1.29339
1.39763
1.48634
1.56192
1.33822
1.22328
1.07966
0.925127
1.21632
2.06039
1.93455
3.89931
4.56188
4.13907
4.16188
4.33035
4.63777
4.3697
3.63591
2.30758
1.95913
1.52158
1.15796
1.00628
0.962462
0.962549
0.955092
0.935475
0.904327
0.87022
0.834033
0.822634
1.03206
1.1534
0.999863
0.747718
0.745708
0.817004
0.912153
0.864077
0.810253
0.760694
3.23852
3.26108
2.01095
2.07339
2.25128
2.22219
1.24009
1.4893
2.88085
2.98891
1.85968
1.16327
1.26504
2.87288
3.11239
2.15679
1.52957
1.60595
1.80281
2.18562
4.10947
9.31107
9.48788
6.3171
6.24653
5.59209
3.32713
2.09685
3.88907
9.78903
7.45276
2.12546
1.4185
1.34619
1.4244
1.22725
1.01605
1.16185
1.2827
1.38657
1.55171
1.7917
1.35878
1.19959
1.12147
1.07255
1.15508
1.1781
2.04805
4.33995
4.75299
3.68249
3.55365
3.71371
3.98415
3.81122
2.94519
1.36067
1.10356
1.02739
0.958455
0.934869
0.935525
0.938992
0.936301
0.917947
0.888447
0.850213
0.805207
0.83989
1.80694
1.87222
1.84736
1.78493
1.2889
1.97888
1.81996
1.25512
1.20132
1.34262
1.99658
1.79994
2.20254
2.2118
1.6394
2.02093
2.00326
1.41598
1.89246
3.0279
1.80244
1.25924
1.33346
1.93986
1.99938
1.52911
1.46189
1.43339
1.5271
3.29493
5.91023
8.49207
6.60897
6.66842
5.91046
4.56089
2.89917
1.61706
1.64351
3.28678
5.81811
5.68319
4.9397
1.84385
0.682071
0.761732
0.920849
1.08461
1.21126
1.28889
1.34053
1.7241
1.51006
1.16989
1.29067
1.38357
1.11939
0.938243
1.62086
4.77842
5.09698
3.69786
3.48789
3.70757
4.30381
3.9618
3.25801
1.12833
0.99254
0.94705
0.902076
0.892506
0.910257
0.929409
0.933213
0.914277
0.880303
0.840281
0.796637
0.74165
0.685781
0.661477
1.03917
1.56807
3.15926
3.41047
3.43743
3.2277
1.49787
1.45629
0.457361
0.474261
0.842409
0.855406
0.609976
0.475177
0.608509
0.62294
0.658618
0.844745
2.43487
1.53497
1.39673
1.98397
1.59669
1.46556
1.3396
1.5715
4.64081
5.34737
5.75936
5.1252
3.23645
2.57902
2.08148
1.49617
1.21635
1.01951
0.76842
0.665215
3.646
5.32535
5.03996
3.83321
1.13214
0.616886
0.783614
0.953333
1.06603
1.13317
1.16012
1.58269
1.51894
1.14823
2.54081
3.2792
1.3356
0.867879
1.14488
3.9618
5.00825
4.49907
3.44177
3.41004
2.22621
1.30984
1.22043
1.07153
0.985094
0.921171
0.864022
0.927241
1.71534
2.09419
1.65852
1.00903
0.858287
0.803035
0.750089
0.700891
0.655079
0.618377
0.579915
0.55793
1.62759
3.3974
3.41422
3.42283
3.07097
1.42148
0.442414
0.419401
0.373922
0.341541
0.333848
0.300646
0.319511
0.391997
0.511575
0.65107
2.73601
2.13696
1.39217
1.94596
1.51916
1.34632
1.6806
4.40967
4.84182
5.15772
5.48866
2.70593
1.41168
1.27239
1.17479
1.01153
0.814063
0.605907
0.413211
0.344555
0.911905
4.45058
4.69644
4.41972
2.20049
0.543208
0.645184
0.797464
0.901106
0.969148
1.00738
1.11595
1.43085
1.24753
3.12424
3.26719
2.80485
0.793035
0.792445
1.52582
2.32047
1.90039
1.04689
0.872402
0.960888
1.05791
1.07508
1.12077
1.02751
0.935355
0.853475
2.3999
3.22374
3.26019
3.28826
2.31338
0.873076
0.747039
0.693084
0.645009
0.601709
0.564406
0.529753
0.489191
0.432554
0.67521
2.83798
3.41343
3.39906
1.43157
0.407081
0.375321
0.598484
0.530372
0.288354
0.220113
0.279788
0.276943
0.372229
0.562871
3.26411
1.97438
1.82238
1.6637
1.3961
1.23001
4.10518
4.36488
4.60809
4.89776
2.88386
1.25254
1.15689
1.08332
1.01045
0.958594
0.703246
0.29523
0.10358
0.0159568
0.247493
2.99742
4.40637
4.1871
2.58485
0.411225
0.507437
0.652903
0.755396
0.823412
0.863442
0.876691
1.25049
1.32034
3.27618
3.27114
2.12558
0.761202
0.728733
0.678557
0.663938
0.688292
0.740103
0.81608
0.907061
0.996261
1.95301
2.67941
1.74216
0.964791
2.15051
3.13687
3.20978
3.27066
3.28584
3.22396
1.21476
0.674532
0.611237
0.565161
0.527814
0.497134
0.469865
0.441325
0.409206
0.376954
0.35502
2.15979
3.45214
1.49011
0.344711
0.360547
0.545912
0.396438
0.0537929
0.20264
1.84215
2.40212
1.68512
2.80443
3.23637
1.86514
1.84968
1.45288
1.29579
3.1633
4.16867
4.22198
4.36047
2.08322
1.05902
1.0828
1.02483
1.26017
1.67783
1.54022
1.03882
-0.0282529
-0.216077
-0.241769
-0.210956
0.191144
3.53251
4.05976
1.71368
0.228688
0.383346
0.529681
0.631639
0.698337
0.738458
0.755568
0.790303
0.772643
2.79783
3.25928
3.23114
0.807223
0.749735
0.732676
0.732224
0.760022
0.808504
0.869414
0.934925
1.00468
1.04715
1.07188
1.07941
1.03239
0.939228
0.860235
1.38642
2.92298
2.7935
1.33033
0.607771
0.547972
0.495856
0.454758
0.42782
0.410539
0.399741
0.393098
0.388783
0.387275
0.393129
0.403839
3.16219
1.80545
0.368302
0.194794
0.344807
0.0581631
0.00842919
0.0541033
1.95527
3.02799
3.0493
3.13278
3.2089
3.00941
1.41913
1.40906
1.35929
4.24988
4.14592
4.18675
2.39038
1.03567
1.06386
1.03743
1.40015
1.56938
1.45486
1.30234
1.09319
-0.260168
-0.460517
-0.448776
-0.365761
0.418615
3.50466
2.53254
0.373765
0.115103
0.287332
0.430237
0.530091
0.595953
0.637109
0.657667
0.660975
0.648418
0.712346
2.34443
3.2562
2.87077
0.761115
0.769594
0.79605
0.846679
0.903899
0.937036
1.05639
1.10277
1.05958
1.08456
1.08973
1.0657
1.00554
0.922339
0.825246
0.721791
0.622645
0.541687
0.476256
0.405638
0.346087
0.308783
0.295154
0.297633
0.310991
0.332485
0.358743
0.388438
0.423641
0.456771
1.09974
2.35745
2.14851
0.166782
0.101588
0.0409249
-0.0190184
-0.0647957
1.46256
3.04703
3.06444
3.141
3.23613
1.59649
1.41514
1.41501
2.5752
4.32899
4.24611
3.85164
0.78567
0.979084
1.08468
1.34932
1.52097
1.43363
1.30736
1.15605
0.257527
-0.55866
-0.595639
-0.560542
-0.468959
1.23197
3.08238
0.914364
-0.126272
0.0550403
0.226316
0.360169
0.454182
0.518103
0.560324
0.585301
0.595249
0.595739
0.579267
0.604806
1.42115
3.04622
2.9265
0.813503
0.815919
0.871434
1.48848
1.64255
1.36844
1.06424
1.06723
1.10921
1.11732
1.13278
1.04127
0.961891
0.848255
0.715009
0.574441
0.441186
0.32881
0.239522
0.13714
0.103218
0.10985
0.140731
0.188325
0.246963
0.309313
0.371181
0.432732
0.487019
1.14251
2.44153
2.763
0.204713
0.127068
0.0624014
-0.0101389
-0.0681698
0.866253
3.12651
3.13987
3.20794
2.02859
1.38332
1.47832
1.56151
4.63156
4.49604
4.39029
0.719851
0.75197
0.871948
1.41149
1.5226
1.45492
1.36015
1.23491
0.811693
-0.522025
-0.619474
-0.627062
-0.589736
0.0122523
1.93596
1.8369
-0.0991323
-0.139805
0.0431137
0.20206
0.3207
0.404683
0.463951
0.516446
0.562837
0.55169
0.562968
0.566561
0.574448
0.599047
0.961113
2.39506
2.3285
1.1598
1.71544
2.77638
2.10039
0.990098
1.04429
1.49443
1.80886
1.75329
1.47508
1.06404
0.982255
0.86164
0.925728
1.39464
2.36966
2.97899
2.31531
1.00973
-0.0759596
-0.14574
-0.0772507
0.0180703
0.126626
0.233908
0.332232
0.419784
0.493018
1.39947
2.50749
2.89425
0.923515
0.18978
0.125249
0.0464101
-0.021608
0.088813
1.89794
3.27603
2.71545
1.50573
1.55153
2.45751
4.75196
4.72349
4.65236
2.68306
0.399154
0.604846
1.47003
1.54485
1.49627
1.4311
1.34009
1.15706
-0.489764
-0.556793
-0.596978
-0.60673
-0.57738
0.318096
1.34144
0.0445187
-0.26085
-0.0941606
0.0734312
0.208128
0.307193
0.378329
0.442815
0.565346
0.60557
0.611836
0.549494
0.555678
0.582174
0.612467
0.643702
0.688396
1.59621
2.71732
2.71604
2.75272
1.58451
0.953198
1.4229
1.91578
1.9435
1.84316
1.35826
1.10073
1.25061
2.42105
5.10196
5.51694
5.15425
4.8671
4.71168
4.69843
4.7829
4.0386
-0.0339729
-0.219692
-0.047017
0.119236
0.265591
0.384724
0.477905
1.41047
2.54712
3.04889
2.37183
0.276147
0.21416
0.135331
0.0649985
0.0208955
0.0758979
0.471067
1.20996
3.11582
3.65031
4.65321
4.79601
4.79947
4.72594
0.902459
0.153101
1.41137
1.57394
1.54609
1.49711
1.43774
1.26362
-0.179693
-0.446403
-0.494267
-0.53339
-0.537867
-0.472696
-0.35103
-0.387413
-0.324382
-0.172553
-0.012033
0.126222
0.232603
0.311324
0.391395
0.515671
0.554257
0.578565
0.598376
0.57142
0.535363
0.577357
0.624355
0.657593
0.676424
0.693316
1.138
2.74084
2.77128
2.35974
0.935536
1.87359
1.92689
1.59078
1.10141
1.24046
2.5246
4.99514
6.15882
5.68034
5.14346
4.6534
4.28518
4.08068
4.04469
4.18375
4.42812
4.56254
0.278983
-0.242988
-0.0343612
0.167047
0.326631
0.444673
1.07926
1.93486
3.21063
2.91027
0.368737
0.310222
0.237005
0.167624
0.11199
0.0908495
0.150049
0.724481
3.05171
3.6348
3.41227
4.16995
3.9818
1.18995
0.110015
0.11862
1.41706
1.57263
1.54895
1.27977
0.674022
-0.105414
-0.33307
-0.364936
-0.399625
-0.42711
-0.434807
-0.415003
-0.370538
-0.294171
-0.179315
-0.0452167
0.0815046
0.183531
0.265985
0.385013
0.481551
0.512843
0.535884
0.554978
0.5723
0.501556
0.495345
1.10797
3.38389
4.16399
2.32158
0.736089
0.854454
1.06799
2.84336
2.72989
1.36456
1.90676
1.82599
1.04438
1.071
3.20192
5.94001
6.26328
6.0423
5.47235
4.84294
4.28397
3.85413
2.1915
3.1493
3.6929
3.94972
4.40938
4.55394
0.0414196
-0.213633
0.0416403
0.248673
0.395655
0.516194
2.26897
3.3659
2.24798
0.452183
0.394112
0.321204
0.254479
0.195108
0.156294
0.162732
0.251479
1.08197
3.74874
3.76493
3.37155
0.227109
0.152537
0.123914
0.129519
0.538388
1.15074
0.42128
-0.121081
-0.194106
-0.230503
-0.254131
-0.274625
-0.29234
-0.300574
-0.291507
-0.259163
-0.205437
-0.129007
-0.0332775
0.0657717
0.166505
0.272739
0.394629
0.448334
0.478571
0.499779
0.515449
0.528583
0.487112
0.423893
0.830995
4.14146
4.32254
4.38036
4.44937
4.4327
1.22385
1.13401
1.89028
1.65202
1.8998
1.95212
1.04097
1.04237
2.23448
4.99986
4.56036
2.41189
5.84838
5.35989
4.69643
4.11878
2.86442
1.62738
1.58028
1.70928
2.58425
4.28754
4.74393
2.96554
-0.241872
-0.0922041
0.161453
0.335534
0.437965
4.47664
3.48569
2.25589
0.5093
0.456813
0.640011
0.730903
0.249172
0.197844
0.19113
1.87034
3.7696
3.80391
3.8234
1.82083
0.22416
0.1453
0.127468
0.115975
0.0773334
0.00914869
-0.044055
-0.0919008
-0.132519
-0.160249
-0.178273
-0.190388
-0.194488
-0.187573
-0.165838
-0.126404
-0.071019
-0.00411839
0.0681199
0.137544
0.20573
0.373548
0.414843
0.444715
0.464798
0.477723
0.475464
0.431579
0.376067
0.359942
0.308949
3.40623
4.25276
4.30596
4.40068
4.49794
4.55562
1.82307
0.903162
0.970747
1.2358
1.90634
0.985458
1.19664
4.51214
4.85662
1.58728
1.30609
5.83591
5.48087
4.70443
4.15989
3.66111
2.62022
1.57512
1.66085
3.13547
4.24785
4.69929
5.17225
0.323446
-0.209604
0.0836801
0.2791
0.388981
4.78482
3.61147
3.11289
0.531334
0.712768
4.10478
5.10773
1.83315
0.569033
2.1071
3.66769
3.72839
3.79522
2.19841
0.61763
0.351921
0.129996
0.123873
0.109666
0.0807863
0.039525
-0.0031515
-0.0423191
-0.0744078
-0.0970724
-0.11202
-0.119275
-0.116854
-0.103164
-0.0765057
-0.0368393
0.0128782
0.0670653
0.133159
0.195096
0.249116
0.309978
0.344214
0.35407
0.354542
0.342167
0.325076
0.320715
0.317073
0.298544
0.245972
0.441617
1.66324
1.35995
0.886703
3.82541
4.44783
3.18224
0.824102
0.943086
1.38939
1.21649
0.949008
1.78208
4.39756
3.27825
0.766334
0.848895
3.86126
5.50904
5.092
4.30347
3.90603
3.6876
3.64543
3.26655
4.01127
4.3398
4.75572
5.22952
2.42669
-0.249515
0.0360439
0.2473
0.373499
4.86388
3.6909
4.01695
0.547556
1.23902
5.20921
5.17987
5.12322
5.03929
4.74677
2.91556
2.47815
0.592653
0.174971
0.425703
0.207505
0.117962
0.119174
0.110804
0.089737
0.0599906
0.0276784
-0.00264965
-0.0279721
-0.0468548
-0.0591624
-0.0637075
-0.059104
-0.0443628
-0.0187002
0.0327119
0.135175
0.220653
0.248769
0.230827
0.220038
0.234118
0.252252
0.264661
0.271021
0.270832
0.265742
0.258235
0.249831
0.23776
0.214893
0.190055
0.211262
0.293743
0.45793
0.640603
3.04872
2.77904
0.78926
0.888167
1.35734
0.872797
0.881849
1.58775
3.47672
0.840477
0.575418
0.305772
0.24176
2.52218
3.03215
2.35787
3.5507
4.08921
4.03047
4.08175
4.26051
4.55172
4.92965
5.36229
1.36971
-0.281435
0.0352125
0.251845
0.412405
4.95475
3.46926
4.82985
1.82055
0.660606
3.67737
5.15529
5.11341
5.07529
3.15989
1.73364
0.815358
0.586436
0.0868575
0.0776852
0.101954
0.113938
0.11701
0.110437
0.0947297
0.0729398
0.0488296
0.0255502
0.00543696
-0.0100842
-0.0199349
-0.0227832
-0.0177355
-0.00423507
0.0387537
0.17229
0.209377
0.241011
0.199065
0.173398
0.193316
0.209355
0.216259
0.220667
0.231563
0.218406
0.203505
0.196676
0.214798
0.202714
0.180093
0.206271
0.259183
0.330112
0.623934
0.636387
0.547423
0.967708
0.735185
0.85163
1.25164
0.764355
0.75464
1.24476
0.906243
0.58454
0.376109
0.116114
-0.200108
-0.54576
-0.877117
-1.19872
-1.48357
1.58126
4.45309
4.51781
4.66298
4.91676
5.24125
2.01812
-0.601811
-0.182777
0.0945223
0.281896
4.25161
5.05104
4.43255
4.84688
4.83917
0.629555
0.502173
3.19701
5.15506
3.72896
1.45275
0.659984
0.164438
0.0276829
0.0475284
0.0813144
0.104162
0.114657
0.116241
0.110154
0.0978997
0.081545
0.0632978
0.0452173
0.0291162
0.0164334
0.0084899
0.00646193
0.0109253
0.0229838
0.114756
0.197685
0.221924
0.246886
0.164987
0.156543
0.170611
0.174429
0.167036
0.152573
0.278016
0.27402
0.21238
0.129007
0.145208
0.144708
0.141121
0.184494
0.261824
2.83463
2.16382
0.503877
0.425473
0.471802
0.569113
0.982229
0.8958
0.793092
0.930737
0.6822
0.67982
0.370513
0.156376
-0.0598493
-0.261347
-0.471129
-0.703966
-0.934652
-1.11554
-1.26584
-1.24241
-0.632836
0.667943
1.25989
-0.045409
-0.667805
-0.323011
-0.00981305
0.199703
1.90273
4.89619
4.96049
3.18872
4.85278
4.84578
3.1121
0.875133
0.790557
1.69253
1.75748
1.05017
0.0463319
-0.00727618
0.0256531
0.0617858
0.0927584
0.110348
0.117026
0.1165
0.110713
0.100872
0.0881438
0.0738157
0.0593541
0.0462007
0.0356377
0.0288791
0.0269163
0.030152
0.0448473
0.171963
0.207689
0.226329
0.179661
0.13224
0.13535
0.136388
0.12442
0.0994268
0.068466
0.112171
0.126285
0.107213
0.023147
0.0042153
0.0155464
0.0571678
0.12219
1.29028
4.25852
3.58603
0.519834
0.373867
0.428252
0.511717
0.878388
0.844093
1.57598
0.95966
0.363762
0.264247
0.179024
0.0455185
0.445451
0.485514
-0.315678
-0.591064
-0.682705
-0.759561
-0.835987
-0.648657
-0.600708
-0.503357
-0.460571
-0.339945
-0.121164
0.0622195
0.297202
2.90771
4.88109
4.82904
0.9258
1.05678
3.74434
3.96235
2.65315
2.20956
0.700933
0.698928
1.19414
0.904352
0.130767
0.0347808
0.0570839
0.0836209
0.105431
0.116634
0.119634
0.117778
0.112261
0.104115
0.0936542
0.0818094
0.069766
0.0586784
0.049567
0.043408
0.0409905
0.0425929
0.0570467
0.185884
0.211028
0.187502
0.0954588
0.105565
0.104114
0.0881334
0.0563795
0.0128131
-0.0352034
-0.0600971
0.356087
1.36888
0.393348
-0.174846
-0.143122
-0.0627093
0.0285996
3.81912
4.30788
3.84027
0.432901
0.325018
0.390908
0.456297
0.543946
2.04595
2.01316
0.508395
0.171164
0.173299
-0.0478045
0.356691
0.594031
0.450835
0.337629
0.151681
-0.463636
-0.533878
-0.481594
-0.405804
-0.324855
-0.0852268
2.14353
2.85555
2.16028
2.72859
3.93559
4.1697
4.23376
1.37139
0.886211
0.110659
0.347971
0.357042
0.28872
0.6413
0.325347
0.175939
0.211691
0.170551
0.129523
0.0809512
0.0847069
0.10289
0.11595
0.12168
0.122193
0.119617
0.114547
0.107271
0.0981454
0.0879238
0.0775541
0.0679161
0.0597747
0.0538541
0.0507212
0.0506674
0.0617732
0.105014
0.146173
0.0738953
0.0811412
0.0798231
0.0623178
0.0259381
-0.0294142
-0.089438
-0.090512
0.271036
5.40872
8.41147
8.39536
2.30542
-0.386121
-0.230288
0.249698
4.2561
4.31311
2.72198
0.265613
0.283966
0.356643
0.406297
0.93495
2.40463
1.39624
0.109358
0.0212277
-0.0335903
-0.362342
0.0887102
0.483976
0.36648
0.304885
0.315056
0.382783
0.168688
-0.260678
-0.137757
-0.108106
0.174153
2.78521
3.26416
3.36866
3.40421
3.52715
2.38097
0.88496
0.831357
1.17994
0.106985
0.0993048
0.102179