/*--------------------------------*- C++ -*----------------------------------*\
| =========                 |                                                 |
| \\      /  F ield         | OpenFOAM: The Open Source CFD Toolbox           |
|  \\    /   O peration     | Version:  2412                                  |
|   \\  /    A nd           | Website:  www.openfoam.com                      |
|    \\/     M anipulation  |                                                 |
\*---------------------------------------------------------------------------*/
FoamFile
{
    version     2.0;
    format      ascii;
    arch        "LSB;label=32;scalar=64";
    class       surfaceScalarField;
    location    "9.7";
    object      alphaPhi0.molasses;
}
// * * * * * * * * * * * * * * * * * * * * * * * * * * * * * * * * * * * * * //

dimensions      [0 3 -1 0 0 0 0];

oriented        oriented;

internalField   nonuniform List<scalar> 
12640
(
3.49998e-09
-3.14838e-09
1.08276e-08
-4.30686e-09
1.6566e-08
-2.74756e-09
1.91089e-08
3.52492e-10
1.76763e-08
4.20968e-09
1.19358e-08
8.31897e-09
1.86365e-09
1.23707e-08
-1.2334e-08
1.61703e-08
-3.03095e-08
1.96222e-08
-5.16001e-08
2.26249e-08
-7.57195e-08
2.514e-08
-1.02155e-07
2.71083e-08
-1.30433e-07
2.85665e-08
-1.60056e-07
2.95119e-08
-1.90553e-07
3.00296e-08
-2.21398e-07
3.00937e-08
-2.52105e-07
2.9758e-08
-2.82135e-07
2.89381e-08
-3.11028e-07
2.76907e-08
-3.38262e-07
2.59339e-08
-3.63392e-07
2.37746e-08
-3.85875e-07
2.11312e-08
-4.05252e-07
1.81264e-08
-4.20964e-07
1.46426e-08
-4.32579e-07
1.08127e-08
-4.39585e-07
6.50885e-09
-4.41641e-07
1.91324e-09
-4.38332e-07
-3.07894e-09
-4.29456e-07
-8.22853e-09
-4.14754e-07
-1.36197e-08
-3.94227e-07
-1.89718e-08
-3.67857e-07
-2.43515e-08
-3.3592e-07
-2.94483e-08
-2.98688e-07
-3.43132e-08
-2.56722e-07
-3.86318e-08
-2.10566e-07
-4.24623e-08
-1.61004e-07
-4.55349e-08
-1.0877e-07
-4.79465e-08
-5.4777e-08
-4.95026e-08
1.29874e-10
-5.03244e-08
5.49824e-08
-5.02646e-08
1.08892e-07
-4.94202e-08
1.60924e-07
-4.76837e-08
2.10257e-07
-4.51609e-08
2.56108e-07
-4.18564e-08
2.9781e-07
-3.79457e-08
3.34774e-07
-3.35331e-08
3.6651e-07
-2.8769e-08
3.9266e-07
-2.37357e-08
4.13e-07
-1.85042e-08
4.27512e-07
-1.31767e-08
4.36302e-07
-7.85568e-09
4.39629e-07
-2.72034e-09
4.37768e-07
2.13797e-09
4.31085e-07
6.59818e-09
4.19931e-07
1.0681e-08
4.04769e-07
1.43324e-08
3.86052e-07
1.75939e-08
3.64306e-07
2.03978e-08
3.3999e-07
2.2791e-08
3.13591e-07
2.47453e-08
2.85546e-07
2.6344e-08
2.56351e-07
2.75599e-08
2.26477e-07
2.84167e-08
1.96429e-07
2.88274e-08
1.66656e-07
2.87847e-08
1.37611e-07
2.82431e-08
1.09721e-07
2.72521e-08
8.34612e-08
2.58145e-08
5.93178e-08
2.39659e-08
3.78159e-08
2.16713e-08
1.94471e-08
1.89246e-08
4.66293e-09
1.57079e-08
-6.19047e-09
1.2085e-08
-1.28926e-08
8.17134e-09
-1.54344e-08
4.19539e-09
-1.41105e-08
4.85295e-10
-9.72788e-09
-2.43349e-09
-4.01377e-09
-3.64835e-09
-2.0078e-09
6.73557e-09
-6.95095e-09
1.72392e-08
-9.28213e-09
2.33301e-08
-3.58232e-09
2.16068e-08
6.99509e-09
1.02417e-08
2.01886e-08
-1.16082e-08
3.44291e-08
-4.40541e-08
4.86076e-08
-8.67113e-08
6.20322e-08
-1.38785e-07
7.42408e-08
-1.99251e-07
8.49726e-08
-2.66876e-07
9.40223e-08
-3.40399e-07
1.01314e-07
-4.18484e-07
1.06771e-07
-4.9987e-07
1.10454e-07
-5.83215e-07
1.12369e-07
-6.67248e-07
1.12626e-07
-7.50568e-07
1.11187e-07
-8.31877e-07
1.08117e-07
-9.0974e-07
1.03311e-07
-9.82886e-07
9.6837e-08
-1.04988e-06
8.85955e-08
-1.10947e-06
7.87144e-08
-1.1602e-06
6.71008e-08
-1.20084e-06
5.3922e-08
-1.22998e-06
3.90845e-08
-1.24654e-06
2.28214e-08
-1.24929e-06
5.09901e-09
-1.23744e-06
-1.37197e-08
-1.21013e-06
-3.35556e-08
-1.16705e-06
-5.38964e-08
-1.10786e-06
-7.45467e-08
-1.03289e-06
-9.48723e-08
-9.42516e-07
-1.14593e-07
-8.37841e-07
-1.33018e-07
-7.2001e-07
-1.49855e-07
-5.90833e-07
-1.64472e-07
-4.52109e-07
-1.76666e-07
-3.06145e-07
-1.85973e-07
-1.55149e-07
-1.92349e-07
-1.67338e-09
-1.95534e-07
1.51877e-07
-1.95603e-07
3.02901e-07
-1.92442e-07
4.48994e-07
-1.86175e-07
5.87738e-07
-1.76836e-07
7.17004e-07
-1.6468e-07
8.34874e-07
-1.49991e-07
9.39752e-07
-1.3322e-07
1.03036e-06
-1.14852e-07
1.10573e-06
-9.5362e-08
1.16528e-06
-7.52252e-08
1.20879e-06
-5.48239e-08
1.23651e-06
-3.46161e-08
1.24889e-06
-1.49519e-08
1.24679e-06
3.73858e-09
1.23107e-06
2.12348e-08
1.20286e-06
3.72825e-08
1.16325e-06
5.18493e-08
1.11359e-06
6.47998e-08
1.05515e-06
7.61529e-08
9.89334e-07
8.58038e-08
9.17423e-07
9.38191e-08
8.4076e-07
1.00175e-07
7.60587e-07
1.04979e-07
6.78269e-07
1.08195e-07
5.95102e-07
1.0984e-07
5.12451e-07
1.09805e-07
4.31574e-07
1.08071e-07
3.53768e-07
1.04575e-07
2.8026e-07
9.93577e-08
2.12347e-07
9.24117e-08
1.51277e-07
8.37927e-08
9.82831e-08
7.35283e-08
5.44245e-08
6.17548e-08
2.05458e-08
4.87006e-08
-2.90182e-09
3.48235e-08
-1.59664e-08
2.08235e-08
-1.94437e-08
7.77668e-09
-1.51238e-08
-2.77368e-09
-6.2465e-09
-8.55741e-09
-6.5322e-09
6.22352e-09
-1.02269e-08
1.32898e-08
-1.0808e-08
1.24303e-08
2.50359e-09
-2.34163e-10
2.45042e-08
-2.69358e-08
5.14005e-08
-6.86834e-08
8.0345e-08
-1.25598e-07
1.09276e-07
-1.97083e-07
1.3674e-07
-2.82068e-07
1.61813e-07
-3.79065e-07
1.8387e-07
-4.8637e-07
2.02572e-07
-6.0206e-07
2.17665e-07
-7.24209e-07
2.29072e-07
-8.50798e-07
2.36711e-07
-9.79907e-07
2.40665e-07
-1.1095e-06
2.4093e-07
-1.23762e-06
2.37624e-07
-1.36215e-06
2.30679e-07
-1.48108e-06
2.20161e-07
-1.59224e-06
2.05928e-07
-1.69365e-06
1.88066e-07
-1.78314e-06
1.66454e-07
-1.85879e-06
1.41272e-07
-1.91845e-06
1.12454e-07
-1.96031e-06
8.02904e-08
-1.9824e-06
4.48087e-08
-1.98322e-06
6.48117e-09
-1.96121e-06
-3.44741e-08
-1.91544e-06
-7.73103e-08
-1.84503e-06
-1.21544e-07
-1.74991e-06
-1.66136e-07
-1.63017e-06
-2.10356e-07
-1.48682e-06
-2.52961e-07
-1.3211e-06
-2.93104e-07
-1.1352e-06
-3.29536e-07
-9.31478e-07
-3.61499e-07
-7.131e-07
-3.87976e-07
-4.8328e-07
-4.08488e-07
-2.45762e-07
-4.22399e-07
-4.20449e-09
-4.29565e-07
2.3744e-07
-4.29738e-07
4.75378e-07
-4.23035e-07
7.05728e-07
-4.09504e-07
9.24851e-07
-3.89467e-07
1.12932e-06
-3.633e-07
1.31614e-06
-3.31645e-07
1.48281e-06
-2.95347e-07
1.62733e-06
-2.55403e-07
1.7483e-06
-2.12949e-07
1.84478e-06
-1.69005e-07
1.91647e-06
-1.24625e-07
1.96351e-06
-8.06248e-08
1.98669e-06
-3.7893e-08
1.98706e-06
2.94765e-09
1.96616e-06
4.12095e-08
1.92553e-06
7.65546e-08
1.86702e-06
1.08602e-07
1.79247e-06
1.3728e-07
1.70398e-06
1.62381e-07
1.60357e-06
1.83917e-07
1.49338e-06
2.01757e-07
1.37537e-06
2.15999e-07
1.2516e-06
2.26625e-07
1.12402e-06
2.33769e-07
9.94705e-07
2.37385e-07
8.6567e-07
2.37488e-07
7.38994e-07
2.33946e-07
6.16622e-07
2.26735e-07
5.00527e-07
2.15785e-07
3.92565e-07
2.01172e-07
2.94608e-07
1.82968e-07
2.08371e-07
1.61404e-07
1.35415e-07
1.36801e-07
7.69144e-08
1.09755e-07
3.35616e-08
8.11657e-08
5.30012e-09
5.24311e-08
-8.85449e-09
2.55287e-08
-1.11299e-08
3.2506e-09
-5.4409e-09
-1.0551e-08
-1.03875e-08
3.49572e-09
-1.079e-08
3.29022e-09
-5.0357e-09
-8.95387e-09
1.99991e-08
-3.6909e-08
5.72975e-08
-8.26486e-08
1.01592e-07
-1.47061e-07
1.48837e-07
-2.30022e-07
1.95925e-07
-3.30689e-07
2.40636e-07
-4.47621e-07
2.81404e-07
-5.79017e-07
3.17263e-07
-7.22706e-07
3.47576e-07
-8.76377e-07
3.72029e-07
-1.03751e-06
3.90377e-07
-1.20362e-06
4.02574e-07
-1.37215e-06
4.08534e-07
-1.54062e-06
4.08357e-07
-1.70643e-06
4.02005e-07
-1.86707e-06
3.89593e-07
-2.0198e-06
3.71001e-07
-2.16206e-06
3.46299e-07
-2.29107e-06
3.15309e-07
-2.40431e-06
2.78162e-07
-2.49905e-06
2.34754e-07
-2.57288e-06
1.8539e-07
-2.62318e-06
1.30119e-07
-2.64781e-06
6.94896e-08
-2.64447e-06
3.79572e-09
-2.61157e-06
-6.60519e-08
-2.54749e-06
-1.3937e-07
-2.45153e-06
-2.14769e-07
-2.32314e-06
-2.911e-07
-2.16286e-06
-3.66519e-07
-1.97155e-06
-4.3952e-07
-1.75124e-06
-5.08044e-07
-1.50433e-06
-5.70548e-07
-1.2343e-06
-6.25169e-07
-9.44894e-07
-6.70708e-07
-6.40663e-07
-7.05838e-07
-3.26195e-07
-7.29909e-07
-6.54963e-09
-7.4224e-07
3.13341e-07
-7.4272e-07
6.28383e-07
-7.31264e-07
9.33657e-07
-7.08221e-07
1.22436e-06
-6.73997e-07
1.496e-06
-6.29383e-07
1.7446e-06
-5.75402e-07
1.96678e-06
-5.13406e-07
2.16003e-06
-4.4511e-07
2.32242e-06
-3.72318e-07
2.45294e-06
-2.97001e-07
2.55105e-06
-2.20836e-07
2.61711e-06
-1.45491e-07
2.65184e-06
-7.21974e-08
2.6568e-06
-2.22568e-09
2.63369e-06
6.35927e-08
2.58476e-06
1.24386e-07
2.51216e-06
1.79762e-07
2.41842e-06
2.29275e-07
2.30599e-06
2.72857e-07
2.17764e-06
3.1027e-07
2.03594e-06
3.41541e-07
1.88367e-06
3.66538e-07
1.7233e-06
3.85393e-07
1.55748e-06
3.981e-07
1.3887e-06
4.04813e-07
1.21963e-06
4.05474e-07
1.05283e-06
4.00097e-07
8.90934e-07
3.88539e-07
7.36394e-07
3.70802e-07
5.91664e-07
3.46883e-07
4.59012e-07
3.17013e-07
3.40628e-07
2.81536e-07
2.38403e-07
2.4112e-07
1.53893e-07
1.96731e-07
8.80324e-08
1.49872e-07
4.09974e-08
1.02659e-07
1.19012e-08
5.80842e-08
-1.39155e-09
2.01735e-08
-2.76188e-09
-5.59658e-09
-1.15495e-08
-2.30971e-10
-7.60553e-09
-9.85759e-09
1.02428e-08
-3.61833e-08
5.168e-08
-8.21487e-08
1.08206e-07
-1.49334e-07
1.73292e-07
-2.38169e-07
2.41752e-07
-3.48157e-07
3.09568e-07
-4.78001e-07
3.73701e-07
-6.25905e-07
4.32038e-07
-7.89629e-07
4.83127e-07
-9.66718e-07
5.2614e-07
-1.15442e-06
5.60544e-07
-1.34993e-06
5.86125e-07
-1.55024e-06
6.02677e-07
-1.75247e-06
6.10201e-07
-1.95359e-06
6.08595e-07
-2.15073e-06
5.9796e-07
-2.3408e-06
5.78202e-07
-2.52088e-06
5.49426e-07
-2.68774e-06
5.11457e-07
-2.83842e-06
4.64392e-07
-2.96969e-06
4.08051e-07
-3.07869e-06
3.42677e-07
-3.16226e-06
2.68262e-07
-3.21776e-06
1.85349e-07
-3.24229e-06
9.42365e-08
-3.23361e-06
-4.09843e-09
-3.18935e-06
-1.08892e-07
-3.10809e-06
-2.18558e-07
-2.98842e-06
-3.31679e-07
-2.83016e-06
-4.4594e-07
-2.63338e-06
-5.5924e-07
-2.39956e-06
-6.68679e-07
-2.13062e-06
-7.71782e-07
-1.82987e-06
-8.65582e-07
-1.50105e-06
-9.47848e-07
-1.14907e-06
-1.01622e-06
-7.79027e-07
-1.06922e-06
-3.96806e-07
-1.10542e-06
-8.22331e-09
-1.12418e-06
3.80552e-07
-1.12498e-06
7.63569e-07
-1.10792e-06
1.13485e-06
-1.07329e-06
1.48867e-06
-1.02191e-06
1.81966e-06
-9.54912e-07
2.12291e-06
-8.73873e-07
2.39441e-06
-7.80869e-07
2.63091e-06
-6.78299e-07
2.83034e-06
-5.69013e-07
2.99136e-06
-4.55753e-07
3.1137e-06
-3.41353e-07
3.19755e-06
-2.28076e-07
3.24408e-06
-1.18093e-07
3.25479e-06
-1.29199e-08
3.23199e-06
8.59269e-08
3.17799e-06
1.77533e-07
3.09566e-06
2.6096e-07
2.98766e-06
3.35855e-07
2.85708e-06
4.01785e-07
2.70682e-06
4.58735e-07
2.54017e-06
5.06471e-07
2.36014e-06
5.45062e-07
2.16991e-06
5.74385e-07
1.97236e-06
5.94608e-07
1.77057e-06
6.05728e-07
1.56743e-06
6.07906e-07
1.36604e-06
6.01074e-07
1.16934e-06
5.85256e-07
9.80342e-07
5.60347e-07
8.01852e-07
5.26461e-07
6.36622e-07
4.83799e-07
4.87146e-07
4.32942e-07
3.55735e-07
3.74774e-07
2.44256e-07
3.10744e-07
1.54073e-07
2.42895e-07
8.57276e-08
1.74147e-07
3.87991e-08
1.0842e-07
1.16083e-08
5.09642e-08
9.18711e-10
8.67639e-09
-8.98398e-09
-4.31886e-09
-2.9061e-10
-2.4465e-08
3.61167e-08
-6.63901e-08
9.90525e-08
-1.32012e-07
1.78893e-07
-2.22057e-07
2.67978e-07
-3.36316e-07
3.60167e-07
-4.73663e-07
4.50578e-07
-6.32315e-07
5.35551e-07
-8.09927e-07
6.12396e-07
-1.00391e-06
6.79347e-07
-1.21136e-06
7.35248e-07
-1.42934e-06
7.7953e-07
-1.65466e-06
8.11827e-07
-1.88417e-06
8.32051e-07
-2.11451e-06
8.4004e-07
-2.34252e-06
8.35825e-07
-2.56483e-06
8.19265e-07
-2.77829e-06
7.90449e-07
-2.97946e-06
7.49218e-07
-3.16514e-06
6.95678e-07
-3.33178e-06
6.29628e-07
-3.47619e-06
5.51244e-07
-3.59484e-06
4.60415e-07
-3.68469e-06
3.57589e-07
-3.74239e-06
2.42967e-07
-3.76523e-06
1.17475e-07
-3.75022e-06
-1.81707e-08
-3.69522e-06
-1.62358e-07
-3.59801e-06
-3.13613e-07
-3.4575e-06
-4.69396e-07
-3.27275e-06
-6.27256e-07
-3.04431e-06
-7.83646e-07
-2.77316e-06
-9.35237e-07
-2.46198e-06
-1.07788e-06
-2.11399e-06
-1.20804e-06
-1.73397e-06
-1.32193e-06
-1.32711e-06
-1.41683e-06
-8.9968e-07
-1.49017e-06
-4.58082e-07
-1.54049e-06
-9.31139e-09
-1.56653e-06
4.39776e-07
-1.56786e-06
8.82165e-07
-1.54433e-06
1.3111e-06
-1.49648e-06
1.72002e-06
-1.42529e-06
2.10274e-06
-1.33239e-06
2.45372e-06
-1.2201e-06
2.76814e-06
-1.09123e-06
3.04244e-06
-9.49307e-07
3.27407e-06
-7.98045e-07
3.46189e-06
-6.41502e-07
3.60547e-06
-4.83284e-07
3.70555e-06
-3.26901e-07
3.76319e-06
-1.74972e-07
3.78045e-06
-2.9936e-08
3.75953e-06
1.06618e-07
3.70338e-06
2.33112e-07
3.61483e-06
3.48695e-07
3.49719e-06
4.52484e-07
3.35348e-06
5.44246e-07
3.18717e-06
6.23618e-07
3.00149e-06
6.90665e-07
2.80005e-06
7.45189e-07
2.58612e-06
7.87299e-07
2.36315e-06
8.16889e-07
2.13431e-06
8.34148e-07
1.90291e-06
8.39065e-07
1.67213e-06
8.31801e-07
1.44533e-06
8.12291e-07
1.22572e-06
7.80611e-07
1.01656e-06
7.36778e-07
8.20867e-07
6.81142e-07
6.41587e-07
6.14295e-07
4.81346e-07
5.37416e-07
3.42506e-07
4.5225e-07
2.2688e-07
3.61423e-07
1.35652e-07
2.68515e-07
6.90596e-08
1.7838e-07
2.62776e-08
9.73148e-08
5.03187e-09
3.35018e-08
-2.25574e-09
-8.4771e-09
1.12467e-08
-3.9605e-08
7.30121e-08
-9.79476e-08
1.62866e-07
-1.84134e-07
2.70209e-07
-2.97838e-07
3.86433e-07
-4.379e-07
5.045e-07
-6.0248e-07
6.18881e-07
-7.8909e-07
7.25354e-07
-9.94899e-07
8.20922e-07
-1.21677e-06
9.03483e-07
-1.45155e-06
9.71795e-07
-1.69591e-06
1.0251e-06
-1.94661e-06
1.06312e-06
-2.20018e-06
1.08566e-06
-2.45329e-06
1.09275e-06
-2.70238e-06
1.08423e-06
-2.94413e-06
1.06013e-06
-3.17496e-06
1.02026e-06
-3.39157e-06
9.64707e-07
-3.59033e-06
8.93248e-07
-3.7679e-06
8.0604e-07
-3.92058e-06
7.02908e-07
-4.04509e-06
5.84192e-07
-4.1378e-06
4.4994e-07
-4.19567e-06
3.00922e-07
-4.21531e-06
1.37677e-07
-4.19407e-06
-3.83266e-08
-4.12902e-06
-2.25765e-07
-4.01825e-06
-4.22157e-07
-3.85976e-06
-6.25043e-07
-3.65297e-06
-8.3061e-07
-3.39758e-06
-1.03503e-06
-3.09509e-06
-1.23321e-06
-2.74766e-06
-1.42034e-06
-2.35941e-06
-1.59094e-06
-1.93508e-06
-1.74056e-06
-1.48101e-06
-1.86491e-06
-1.00377e-06
-1.96119e-06
-5.10902e-07
-2.02705e-06
-9.86216e-09
-2.06133e-06
4.91449e-07
-2.06316e-06
9.85346e-07
-2.03255e-06
1.46418e-06
-1.96995e-06
1.92063e-06
-1.87665e-06
2.34785e-06
-1.75475e-06
2.73956e-06
-1.60726e-06
3.0906e-06
-1.4382e-06
3.39679e-06
-1.25213e-06
3.6557e-06
-1.0543e-06
3.8659e-06
-8.49705e-07
4.02759e-06
-6.4342e-07
4.14145e-06
-4.39566e-07
4.20926e-06
-2.41954e-07
4.23294e-06
-5.3209e-08
4.21528e-06
1.24261e-07
4.15903e-06
2.89015e-07
4.06761e-06
4.39587e-07
3.94413e-06
5.75309e-07
3.79217e-06
6.95435e-07
3.61493e-06
7.99894e-07
3.41609e-06
8.88418e-07
3.19905e-06
9.61162e-07
2.96755e-06
1.01796e-06
2.725e-06
1.05896e-06
2.47497e-06
1.08406e-06
2.22075e-06
1.09346e-06
1.9658e-06
1.08712e-06
1.71347e-06
1.0652e-06
1.46726e-06
1.02767e-06
1.23056e-06
9.74723e-07
1.00681e-06
9.06595e-07
7.99211e-07
8.24026e-07
6.10923e-07
7.28212e-07
4.44751e-07
6.21209e-07
3.03207e-07
5.05971e-07
1.88201e-07
3.86709e-07
1.00942e-07
2.69005e-07
4.1641e-08
1.60158e-07
9.28886e-09
6.94218e-08
8.75908e-09
-1.25787e-08
2.69691e-08
-5.48747e-08
1.21091e-07
-1.30037e-07
2.43466e-07
-2.37326e-07
3.82603e-07
-3.75055e-07
5.28957e-07
-5.40959e-07
6.74773e-07
-7.32198e-07
8.13944e-07
-9.45591e-07
9.41986e-07
-1.17764e-06
1.05567e-06
-1.42483e-06
1.1529e-06
-1.68355e-06
1.23232e-06
-1.95038e-06
1.29325e-06
-2.22179e-06
1.33534e-06
-2.49443e-06
1.35857e-06
-2.76475e-06
1.36286e-06
-3.02937e-06
1.34828e-06
-3.28466e-06
1.31465e-06
-3.52727e-06
1.26201e-06
-3.75357e-06
1.19009e-06
-3.96025e-06
1.09899e-06
-4.14361e-06
9.88515e-07
-4.30039e-06
8.58915e-07
-4.42685e-06
7.10125e-07
-4.51985e-06
5.42742e-07
-4.57577e-06
3.57069e-07
-4.5917e-06
1.54311e-07
-4.56429e-06
-6.45302e-08
-4.49103e-06
-2.97283e-07
-4.36908e-06
-5.41817e-07
-4.19676e-06
-7.94517e-07
-3.97235e-06
-1.0516e-06
-3.69585e-06
-1.30758e-06
-3.36777e-06
-1.55685e-06
-2.99082e-06
-1.79242e-06
-2.56867e-06
-2.00789e-06
-2.10714e-06
-2.19662e-06
-1.61265e-06
-2.35371e-06
-1.09298e-06
-2.47498e-06
-5.55964e-07
-2.55806e-06
-1.01103e-08
-2.60115e-06
5.36203e-07
-2.60362e-06
1.07437e-06
-2.56519e-06
1.596e-06
-2.48649e-06
2.09302e-06
-2.36895e-06
2.55777e-06
-2.21508e-06
2.98353e-06
-2.02882e-06
3.36448e-06
-1.81527e-06
3.69657e-06
-1.58081e-06
3.977e-06
-1.33198e-06
4.20502e-06
-1.07561e-06
4.38074e-06
-8.17578e-07
4.50578e-06
-5.63407e-07
4.58187e-06
-3.17176e-07
4.61173e-06
-8.25124e-08
4.59784e-06
1.38316e-07
4.54352e-06
3.4319e-07
4.45179e-06
5.30978e-07
4.32629e-06
7.00433e-07
4.1702e-06
8.51125e-07
3.98717e-06
9.82476e-07
3.78041e-06
1.09458e-06
3.55366e-06
1.18725e-06
3.3103e-06
1.26072e-06
3.05409e-06
1.31484e-06
2.78843e-06
1.34978e-06
2.5169e-06
1.36543e-06
2.2428e-06
1.36194e-06
1.96966e-06
1.33928e-06
1.70089e-06
1.29758e-06
1.44014e-06
1.23689e-06
1.19094e-06
1.15756e-06
9.56951e-07
1.06017e-06
7.417e-07
9.46002e-07
5.48688e-07
8.17077e-07
3.81132e-07
6.76613e-07
2.41963e-07
5.29135e-07
1.33478e-07
3.80885e-07
5.72222e-08
2.39953e-07
1.35309e-08
1.16662e-07
2.40237e-08
-1.66386e-08
4.68295e-08
-7.01918e-08
1.80443e-07
-1.62491e-07
3.41142e-07
-2.91224e-07
5.16352e-07
-4.53194e-07
6.95666e-07
-6.4469e-07
8.70661e-07
-8.61783e-07
1.03495e-06
-1.10036e-06
1.1839e-06
-1.3564e-06
1.31444e-06
-1.62585e-06
1.42456e-06
-1.90494e-06
1.51317e-06
-2.18993e-06
1.57961e-06
-2.47739e-06
1.62375e-06
-2.76381e-06
1.64549e-06
-3.04595e-06
1.64501e-06
-3.32026e-06
1.62224e-06
-3.58349e-06
1.57726e-06
-3.83206e-06
1.50984e-06
-4.06276e-06
1.42002e-06
-4.27201e-06
1.30751e-06
-4.45667e-06
1.17252e-06
-4.61316e-06
1.01488e-06
-4.73841e-06
8.3506e-07
-4.82886e-06
6.33177e-07
-4.88159e-06
4.10163e-07
-4.89311e-06
1.66646e-07
-4.86068e-06
-9.56555e-08
-4.78097e-06
-3.75184e-07
-4.65155e-06
-6.68922e-07
-4.46952e-06
-9.73702e-07
-4.23334e-06
-1.28443e-06
-3.94153e-06
-1.59552e-06
-3.59478e-06
-1.89928e-06
-3.19468e-06
-2.18779e-06
-2.7456e-06
-2.45192e-06
-2.25311e-06
-2.68385e-06
-1.72491e-06
-2.8765e-06
-1.16901e-06
-3.02535e-06
-5.94421e-07
-3.12701e-06
-1.00216e-08
-3.17986e-06
5.74833e-07
-3.18284e-06
1.15094e-06
-3.13591e-06
1.70905e-06
-3.03963e-06
2.24021e-06
-2.89562e-06
2.73609e-06
-2.70688e-06
3.18909e-06
-2.47805e-06
3.59335e-06
-2.21597e-06
3.94446e-06
-1.92867e-06
4.24042e-06
-1.62512e-06
4.4805e-06
-1.31346e-06
4.66597e-06
-1.00136e-06
4.7985e-06
-6.94695e-07
4.88094e-06
-3.98655e-07
4.91578e-06
-1.1667e-07
4.90625e-06
1.48238e-07
4.85509e-06
3.94401e-07
4.7658e-06
6.20118e-07
4.64138e-06
8.24621e-07
4.48544e-06
1.00691e-06
4.30106e-06
1.16677e-06
4.09175e-06
1.30379e-06
3.86064e-06
1.41817e-06
3.61133e-06
1.50981e-06
3.34711e-06
1.57896e-06
3.07161e-06
1.62547e-06
2.7881e-06
1.6495e-06
2.5001e-06
1.65089e-06
2.21085e-06
1.62974e-06
1.92392e-06
1.58595e-06
1.64277e-06
1.51967e-06
1.3712e-06
1.431e-06
1.11305e-06
1.32051e-06
8.72385e-07
1.1892e-06
6.53292e-07
1.03902e-06
4.59972e-07
8.73048e-07
2.96433e-07
6.95977e-07
1.66394e-07
5.1436e-07
7.28557e-08
3.37037e-07
1.77368e-08
1.75319e-07
4.34818e-08
-2.07182e-08
7.08121e-08
-8.5785e-08
2.51312e-07
-1.95636e-07
4.56318e-07
-3.4626e-07
6.71878e-07
-5.32604e-07
8.86616e-07
-7.49355e-07
1.09172e-06
-9.91186e-07
1.28069e-06
-1.2531e-06
1.44921e-06
-1.53038e-06
1.59453e-06
-1.81872e-06
1.71514e-06
-2.11406e-06
1.81024e-06
-2.41272e-06
1.87962e-06
-2.71115e-06
1.92317e-06
-3.00614e-06
1.94112e-06
-3.29438e-06
1.9335e-06
-3.57281e-06
1.90054e-06
-3.83809e-06
1.84212e-06
-4.08719e-06
1.75835e-06
-4.31671e-06
1.64892e-06
-4.52373e-06
1.51395e-06
-4.70489e-06
1.35321e-06
-4.85739e-06
1.16706e-06
-4.97792e-06
9.55476e-07
-5.06381e-06
7.19207e-07
-5.11173e-06
4.58591e-07
-5.11911e-06
1.74922e-07
-5.08254e-06
-1.30849e-07
-4.9994e-06
-4.56494e-07
-4.86614e-06
-7.99857e-07
-4.68012e-06
-1.15693e-06
-4.43811e-06
-1.52317e-06
-4.13846e-06
-1.89145e-06
-3.77995e-06
-2.25363e-06
-3.36422e-06
-2.59897e-06
-2.89458e-06
-2.91669e-06
-2.37766e-06
-3.19571e-06
-1.82122e-06
-3.42776e-06
-1.23471e-06
-3.60663e-06
-6.27516e-07
-3.72895e-06
-9.72632e-09
-3.79236e-06
6.08717e-07
-3.79599e-06
1.21758e-06
-3.73958e-06
1.80676e-06
-3.62394e-06
2.36646e-06
-3.45089e-06
2.88725e-06
-3.22377e-06
3.36105e-06
-2.94835e-06
3.78129e-06
-2.63301e-06
4.14431e-06
-2.28869e-06
4.44837e-06
-1.9265e-06
4.69434e-06
-1.55715e-06
4.88387e-06
-1.18912e-06
5.02011e-06
-8.29576e-07
5.10586e-06
-4.83371e-07
5.14463e-06
-1.54614e-07
5.13914e-06
1.54321e-07
5.09266e-06
4.4121e-07
5.00781e-06
7.05014e-07
4.88793e-06
9.4443e-07
4.73579e-06
1.15899e-06
4.55476e-06
1.34791e-06
4.34764e-06
1.51113e-06
4.11773e-06
1.64834e-06
3.86793e-06
1.75983e-06
3.60162e-06
1.8455e-06
3.32187e-06
1.90559e-06
3.0321e-06
1.93993e-06
2.7354e-06
1.94861e-06
2.43514e-06
1.93137e-06
2.13452e-06
1.88821e-06
1.83712e-06
1.81892e-06
1.54658e-06
1.72358e-06
1.26702e-06
1.60233e-06
1.00279e-06
1.45594e-06
7.58757e-07
1.28587e-06
5.40023e-07
1.09486e-06
3.51994e-07
8.87302e-07
1.9994e-07
6.69856e-07
8.8712e-08
4.51821e-07
2.19236e-08
2.45631e-07
6.71096e-08
-2.49747e-08
9.90295e-08
-1.02127e-07
3.34232e-07
-2.30382e-07
5.89842e-07
-4.03597e-07
8.49889e-07
-6.14596e-07
1.10206e-06
-8.56099e-07
1.33735e-06
-1.12136e-06
1.54976e-06
-1.40431e-06
1.73555e-06
-1.69973e-06
1.89282e-06
-2.003e-06
2.02071e-06
-2.31013e-06
2.11914e-06
-2.61742e-06
2.18822e-06
-2.92163e-06
2.22835e-06
-3.21956e-06
2.23972e-06
-3.50837e-06
2.22269e-06
-3.78503e-06
2.17729e-06
-4.04684e-06
2.10373e-06
-4.29072e-06
2.00183e-06
-4.51401e-06
1.87173e-06
-4.71366e-06
1.71315e-06
-4.88716e-06
1.52638e-06
-5.03158e-06
1.31131e-06
-5.14462e-06
1.06855e-06
-5.22342e-06
7.98295e-07
-5.2658e-06
5.01569e-07
-5.26879e-06
1.78893e-07
-5.23007e-06
-1.68178e-07
-5.14621e-06
-5.38513e-07
-5.0143e-06
-9.29493e-07
-4.83013e-06
-1.33837e-06
-4.59027e-06
-1.7599e-06
-4.29061e-06
-2.18755e-06
-3.92919e-06
-2.61112e-06
-3.5053e-06
-3.01853e-06
-3.02243e-06
-3.39494e-06
-2.48659e-06
-3.72667e-06
-1.90713e-06
-4.00225e-06
-1.29381e-06
-4.21498e-06
-6.57544e-07
-4.3603e-06
-9.16583e-09
-4.43587e-06
6.39825e-07
-4.44013e-06
1.27808e-06
-4.37303e-06
1.89434e-06
-4.23552e-06
2.47764e-06
-4.02988e-06
3.01779e-06
-3.76006e-06
3.50542e-06
-3.43265e-06
3.9341e-06
-3.05874e-06
4.30031e-06
-2.65223e-06
4.60439e-06
-2.22809e-06
4.84827e-06
-1.79885e-06
5.03581e-06
-1.37484e-06
5.17055e-06
-9.62923e-07
5.25671e-06
-5.68425e-07
5.29737e-06
-1.94384e-07
5.29598e-06
1.56485e-07
5.25486e-06
4.82892e-07
5.17693e-06
7.83294e-07
5.06435e-06
1.05712e-06
4.92009e-06
1.30332e-06
4.74653e-06
1.52163e-06
4.54665e-06
1.71137e-06
4.32293e-06
1.87259e-06
4.07834e-06
2.00502e-06
3.81548e-06
2.10895e-06
3.53744e-06
2.18427e-06
3.24699e-06
2.23117e-06
2.94728e-06
2.24939e-06
2.64118e-06
2.23887e-06
2.33192e-06
2.1992e-06
2.02266e-06
2.13015e-06
1.71711e-06
2.0313e-06
1.41925e-06
1.90252e-06
1.13385e-06
1.74388e-06
8.66237e-07
1.55624e-06
6.22621e-07
1.34149e-06
4.09795e-07
1.10336e-06
2.35006e-07
8.48048e-07
1.05223e-07
5.85129e-07
2.62377e-08
3.28116e-07
9.50306e-08
-2.96242e-08
1.31814e-07
-1.20084e-07
4.3034e-07
-2.68271e-07
7.43209e-07
-4.65355e-07
1.05167e-06
-7.01442e-07
1.34243e-06
-9.67129e-07
1.60696e-06
-1.25406e-06
1.84028e-06
-1.5553e-06
2.04004e-06
-1.86511e-06
2.20547e-06
-2.17892e-06
2.33685e-06
-2.49277e-06
2.4348e-06
-2.80338e-06
2.50017e-06
-3.10765e-06
2.53357e-06
-3.4029e-06
2.53564e-06
-3.6864e-06
2.50661e-06
-3.95574e-06
2.44683e-06
-4.20828e-06
2.35624e-06
-4.44172e-06
2.23506e-06
-4.65339e-06
2.08309e-06
-4.84114e-06
1.90058e-06
-5.00242e-06
1.68743e-06
-5.13536e-06
1.44417e-06
-5.2376e-06
1.17093e-06
-5.30757e-06
8.68635e-07
-5.34298e-06
5.37649e-07
-5.34227e-06
1.79176e-07
-5.30276e-06
-2.06303e-07
-5.2222e-06
-6.17295e-07
-5.09664e-06
-1.05285e-06
-4.92218e-06
-1.51024e-06
-4.69299e-06
-1.98609e-06
-4.40385e-06
-2.47334e-06
-4.04918e-06
-2.96209e-06
-3.62681e-06
-3.4369e-06
-3.13779e-06
-3.87962e-06
-2.58909e-06
-4.2708e-06
-1.9902e-06
-4.59641e-06
-1.35255e-06
-4.84787e-06
-6.87671e-07
-5.02052e-06
-8.59093e-09
-5.11042e-06
6.71304e-07
-5.11561e-06
1.33832e-06
-5.03569e-06
1.97945e-06
-4.87237e-06
2.58269e-06
-4.62899e-06
3.1365e-06
-4.31011e-06
3.63086e-06
-3.9237e-06
4.05861e-06
-3.48369e-06
4.41822e-06
-3.00938e-06
4.71182e-06
-2.51949e-06
4.94479e-06
-2.02979e-06
5.12241e-06
-1.55073e-06
5.25043e-06
-1.08953e-06
5.33294e-06
-6.4984e-07
5.37396e-06
-2.34485e-07
5.37589e-06
1.55353e-07
5.34142e-06
5.1811e-07
5.27209e-06
8.53208e-07
5.17014e-06
1.15947e-06
5.03718e-06
1.43651e-06
4.87565e-06
1.6834e-06
4.68748e-06
1.89991e-06
4.47525e-06
2.08543e-06
4.24102e-06
2.24002e-06
3.98742e-06
2.36342e-06
3.71669e-06
2.4559e-06
3.43158e-06
2.51727e-06
3.13451e-06
2.5476e-06
2.82833e-06
2.54646e-06
2.51566e-06
2.51356e-06
2.19961e-06
2.44817e-06
1.88343e-06
2.34968e-06
1.57112e-06
2.21722e-06
1.26734e-06
2.0502e-06
9.77978e-07
1.84832e-06
7.10047e-07
1.61233e-06
4.71971e-07
1.34455e-06
2.73126e-07
1.0502e-06
1.23267e-07
7.3844e-07
3.08964e-08
4.23925e-07
1.27589e-07
-3.5101e-08
1.69953e-07
-1.41062e-07
5.41729e-07
-3.11843e-07
9.18992e-07
-5.34783e-07
1.27916e-06
-7.96674e-07
1.60845e-06
-1.08565e-06
1.89965e-06
-1.39197e-06
2.14994e-06
-1.70794e-06
2.35903e-06
-2.02776e-06
2.52797e-06
-2.34692e-06
2.6583e-06
-2.662e-06
2.75171e-06
-2.97001e-06
2.80955e-06
-3.26852e-06
2.83303e-06
-3.55508e-06
2.82283e-06
-3.82759e-06
2.77953e-06
-4.08379e-06
2.70326e-06
-4.32177e-06
2.59429e-06
-4.5393e-06
2.45252e-06
-4.73464e-06
2.27824e-06
-4.90564e-06
2.07137e-06
-5.05085e-06
1.83248e-06
-5.1684e-06
1.5617e-06
-5.25729e-06
1.25997e-06
-5.31595e-06
9.277e-07
-5.34373e-06
5.66091e-07
-5.33907e-06
1.755e-07
-5.30105e-06
-2.43026e-07
-5.22708e-06
-6.89584e-07
-5.11445e-06
-1.16344e-06
-4.95773e-06
-1.66452e-06
-4.75062e-06
-2.19042e-06
-4.48402e-06
-2.73683e-06
-4.14949e-06
-3.29322e-06
-3.73967e-06
-3.84304e-06
-3.25385e-06
-4.36149e-06
-2.69772e-06
-4.82272e-06
-2.08269e-06
-5.20704e-06
-1.42014e-06
-5.50589e-06
-7.23488e-07
-5.71266e-06
-8.14344e-09
-5.82139e-06
7.08084e-07
-5.82763e-06
1.40749e-06
-5.7311e-06
2.0741e-06
-5.53507e-06
2.69437e-06
-5.2455e-06
3.25639e-06
-4.86854e-06
3.74848e-06
-4.41259e-06
4.16422e-06
-3.89665e-06
4.504e-06
-3.34682e-06
4.77487e-06
-2.78833e-06
4.98542e-06
-2.23854e-06
5.14477e-06
-1.70845e-06
5.25938e-06
-1.20281e-06
5.33476e-06
-7.24131e-07
5.3738e-06
-2.72675e-07
5.37916e-06
1.50757e-07
5.3519e-06
5.46104e-07
5.29356e-06
9.1227e-07
5.20476e-06
1.24886e-06
5.08705e-06
1.55469e-06
4.94143e-06
1.82936e-06
4.76985e-06
2.0719e-06
4.57376e-06
2.28206e-06
4.35534e-06
2.45923e-06
4.11626e-06
2.60347e-06
3.85875e-06
2.7145e-06
3.58467e-06
2.79249e-06
3.29637e-06
2.83714e-06
2.99592e-06
2.84831e-06
2.6858e-06
2.82531e-06
2.36844e-06
2.76742e-06
2.04686e-06
2.6734e-06
1.72451e-06
2.5419e-06
1.40601e-06
2.37121e-06
1.09719e-06
2.15979e-06
8.05848e-07
1.90648e-06
5.4177e-07
1.61162e-06
3.16876e-07
1.27826e-06
1.44279e-07
9.14362e-07
3.63707e-08
5.35174e-07
1.65585e-07
-4.21959e-08
2.15058e-07
-1.67538e-07
6.72183e-07
-3.65098e-07
1.12127e-06
-6.168e-07
1.53519e-06
-9.05209e-07
1.9008e-06
-1.21605e-06
2.214e-06
-1.53843e-06
2.47543e-06
-1.86458e-06
2.68792e-06
-2.18892e-06
2.85474e-06
-2.50759e-06
2.97909e-06
-2.81766e-06
3.06354e-06
-3.11696e-06
3.11021e-06
-3.40345e-06
3.12049e-06
-3.67543e-06
3.09544e-06
-3.93104e-06
3.03552e-06
-4.16874e-06
2.94116e-06
-4.3867e-06
2.81233e-06
-4.58357e-06
2.64936e-06
-4.75764e-06
2.45221e-06
-4.90785e-06
2.22144e-06
-5.03276e-06
1.95729e-06
-5.13183e-06
1.66075e-06
-5.20411e-06
1.33241e-06
-5.24972e-06
9.73669e-07
-5.26817e-06
5.85162e-07
-5.25998e-06
1.68175e-07
-5.22445e-06
-2.77367e-07
-5.16121e-06
-7.51333e-07
-5.0673e-06
-1.25549e-06
-4.93846e-06
-1.79119e-06
-4.7659e-06
-2.36045e-06
-4.53831e-06
-2.9616e-06
-4.24049e-06
-3.58793e-06
-3.85944e-06
-4.22077e-06
-3.38815e-06
-4.82921e-06
-2.83227e-06
-5.37482e-06
-2.20315e-06
-5.83216e-06
-1.51244e-06
-6.19247e-06
-7.73819e-07
-6.44713e-06
-8.32827e-09
-6.58283e-06
7.58565e-07
-6.59079e-06
1.50083e-06
-6.4698e-06
2.19693e-06
-6.22779e-06
2.83236e-06
-5.87755e-06
3.39532e-06
-5.42834e-06
3.8738e-06
-4.88815e-06
4.26154e-06
-4.28188e-06
4.56473e-06
-3.64782e-06
4.79634e-06
-3.01809e-06
4.97166e-06
-2.41224e-06
5.10239e-06
-1.83778e-06
5.19751e-06
-1.29668e-06
5.26151e-06
-7.87127e-07
5.29742e-06
-3.07785e-07
5.30577e-06
1.43038e-07
5.28733e-06
5.65174e-07
5.24165e-06
9.58597e-07
5.1692e-06
1.32198e-06
5.06981e-06
1.65468e-06
4.94439e-06
1.95529e-06
4.79348e-06
2.22326e-06
4.61855e-06
2.45751e-06
4.42068e-06
2.65779e-06
4.2016e-06
2.82346e-06
3.96263e-06
2.95455e-06
3.70559e-06
3.05075e-06
3.43193e-06
3.11209e-06
3.14356e-06
3.13808e-06
2.84214e-06
3.12828e-06
2.52979e-06
3.08154e-06
2.2087e-06
2.99647e-06
1.88189e-06
2.87092e-06
1.5532e-06
2.70228e-06
1.22828e-06
2.48726e-06
9.14929e-07
2.22251e-06
6.24149e-07
1.90524e-06
3.70296e-07
1.53511e-06
1.70798e-07
1.11702e-06
4.34727e-08
6.65696e-07
2.10635e-07
-5.25934e-08
2.70445e-07
-2.03882e-07
8.28209e-07
-4.34525e-07
1.35623e-06
-7.18551e-07
1.82319e-06
-1.03372e-06
2.21962e-06
-1.36365e-06
2.5472e-06
-1.69731e-06
2.81196e-06
-2.0275e-06
3.02058e-06
-2.34972e-06
3.1791e-06
-2.66098e-06
3.29222e-06
-2.95939e-06
3.36352e-06
-3.24334e-06
3.39544e-06
-3.51167e-06
3.38975e-06
-3.76302e-06
3.3474e-06
-3.99627e-06
3.26912e-06
-4.21002e-06
3.15507e-06
-4.40325e-06
3.00559e-06
-4.57461e-06
2.82069e-06
-4.72339e-06
2.60089e-06
-4.84854e-06
2.34648e-06
-4.94987e-06
2.05851e-06
-5.02687e-06
1.73774e-06
-5.08018e-06
1.38582e-06
-5.11007e-06
1.00385e-06
-5.11812e-06
5.9369e-07
-5.10528e-06
1.56069e-07
-5.07356e-06
-3.0811e-07
-5.02335e-06
-8.00268e-07
-4.9546e-06
-1.32269e-06
-4.86302e-06
-1.88087e-06
-4.74063e-06
-2.48065e-06
-4.57158e-06
-3.12815e-06
-4.33458e-06
-3.8222e-06
-4.00462e-06
-4.54774e-06
-3.5664e-06
-5.26427e-06
-3.02165e-06
-5.91624e-06
-2.38257e-06
-6.46777e-06
-1.65534e-06
-6.9161e-06
-8.54301e-07
-7.24447e-06
-9.58523e-09
-7.42387e-06
8.37187e-07
-7.43393e-06
1.64394e-06
-7.27313e-06
2.37866e-06
-6.95934e-06
3.02598e-06
-6.52193e-06
3.57918e-06
-5.97875e-06
4.02589e-06
-5.33231e-06
4.36319e-06
-4.61681e-06
4.60557e-06
-3.88826e-06
4.77791e-06
-3.18877e-06
4.90208e-06
-2.53503e-06
4.99443e-06
-1.9289e-06
5.06342e-06
-1.36461e-06
5.11353e-06
-8.36317e-07
5.14495e-06
-3.38513e-07
5.15735e-06
1.31177e-07
5.1488e-06
5.74153e-07
5.11842e-06
9.89459e-07
5.06463e-06
1.37631e-06
4.98713e-06
1.73278e-06
4.88518e-06
2.05779e-06
4.75928e-06
2.34968e-06
4.60958e-06
2.60771e-06
4.4372e-06
2.83077e-06
4.24285e-06
3.01856e-06
4.02789e-06
3.17047e-06