/*--------------------------------*- C++ -*----------------------------------*\
| =========                 |                                                 |
| \\      /  F ield         | OpenFOAM: The Open Source CFD Toolbox           |
|  \\    /   O peration     | Version:  2412                                  |
|   \\  /    A nd           | Website:  www.openfoam.com                      |
|    \\/     M anipulation  |                                                 |
\*---------------------------------------------------------------------------*/
FoamFile
{
    version     2.0;
    format      ascii;
    arch        "LSB;label=32;scalar=64";
    class       surfaceScalarField;
    location    "9.7";
    object      phi;
}
// * * * * * * * * * * * * * * * * * * * * * * * * * * * * * * * * * * * * * //

dimensions      [0 3 -1 0 0 0 0];

oriented        oriented;

internalField   nonuniform List<scalar> 
12640
(
3.28786e-09
-3.0537e-09
1.09588e-08
-3.6302e-09
1.6681e-08
-1.82492e-09
1.90441e-08
1.28375e-09
1.74063e-08
5.08101e-09
1.14827e-08
9.14138e-09
1.31464e-09
1.31215e-08
-1.28693e-08
1.6813e-08
-3.07119e-08
2.0069e-08
-5.18072e-08
2.28535e-08
-7.56859e-08
2.51421e-08
-1.01867e-07
2.69791e-08
-1.29816e-07
2.83394e-08
-1.59031e-07
2.92524e-08
-1.88985e-07
2.96646e-08
-2.19221e-07
2.96306e-08
-2.49248e-07
2.91184e-08
-2.78626e-07
2.82261e-08
-3.06837e-07
2.6905e-08
-3.33417e-07
2.52392e-08
-3.57819e-07
2.31222e-08
-3.79593e-07
2.0635e-08
-3.98209e-07
1.76591e-08
-4.13256e-07
1.43236e-08
-4.24228e-07
1.05219e-08
-4.30756e-07
6.42464e-09
-4.32384e-07
1.91832e-09
-4.28837e-07
-2.79803e-09
-4.19783e-07
-7.83304e-09
-4.05128e-07
-1.294e-08
-3.84745e-07
-1.81973e-08
-3.58778e-07
-2.33096e-08
-3.27359e-07
-2.83321e-08
-2.90901e-07
-3.2956e-08
-2.49807e-07
-3.72412e-08
-2.04744e-07
-4.09045e-08
-1.56347e-07
-4.4022e-08
-1.05464e-07
-4.63518e-08
-5.28779e-08
-4.79821e-08
4.94668e-10
-4.87305e-08
5.3827e-08
-4.87137e-08
1.0622e-07
-4.78384e-08
1.56857e-07
-4.62459e-08
2.04891e-07
-4.38974e-08
2.49556e-07
-4.08954e-08
2.90138e-07
-3.72184e-08
3.26061e-07
-3.2958e-08
3.569e-07
-2.81974e-08
3.82373e-07
-2.31085e-08
4.02345e-07
-1.78806e-08
4.16755e-07
-1.26638e-08
4.25671e-07
-7.58751e-09
4.29223e-07
-2.67496e-09
4.27699e-07
2.0004e-09
4.2144e-07
6.43311e-09
4.10895e-07
1.05134e-08
3.96477e-07
1.42359e-08
3.78647e-07
1.75247e-08
3.57819e-07
2.04315e-08
3.34473e-07
2.29073e-08
3.09059e-07
2.49864e-08
2.82066e-07
2.65956e-08
2.53913e-07
2.77692e-08
2.25039e-07
2.84843e-08
1.95841e-07
2.88209e-08
1.66776e-07
2.87726e-08
1.38302e-07
2.83648e-08
1.10926e-07
2.75214e-08
8.51268e-08
2.62094e-08
6.13878e-08
2.43644e-08
4.01585e-08
2.20057e-08
2.18957e-08
1.91509e-08
7.02387e-09
1.58764e-08
-4.0693e-09
1.22473e-08
-1.11192e-08
8.38371e-09
-1.40559e-08
4.44986e-09
-1.31463e-08
7.45347e-10
-9.16571e-09
-2.23902e-09
-3.79668e-09
-3.57834e-09
-2.08364e-09
6.90175e-09
-6.11306e-09
1.79905e-08
-7.3394e-09
2.42783e-08
-1.15147e-09
2.25733e-08
9.45251e-09
1.11729e-08
2.2446e-08
-1.06919e-08
3.63881e-08
-4.30858e-08
5.02518e-08
-8.55205e-08
6.33043e-08
-1.37193e-07
7.50874e-08
-1.97055e-07
8.52972e-08
-2.63978e-07
9.38309e-08
-3.36693e-07
1.00628e-07
-4.13931e-07
1.05734e-07
-4.94312e-07
1.09121e-07
-5.7653e-07
1.10841e-07
-6.59204e-07
1.10845e-07
-7.41087e-07
1.09216e-07
-8.20815e-07
1.05917e-07
-8.97152e-07
1.01063e-07
-9.68684e-07
9.45783e-08
-1.03414e-06
8.65567e-08
-1.09209e-06
7.68687e-08
-1.14129e-06
6.56254e-08
-1.18037e-06
5.27145e-08
-1.20822e-06
3.83346e-08
-1.22356e-06
2.24309e-08
-1.2255e-06
5.30196e-09
-1.21299e-06
-1.30406e-08
-1.18551e-06
-3.2183e-08
-1.14245e-06
-5.20099e-08
-1.08385e-06
-7.19652e-08
-1.00975e-06
-9.1814e-08
-9.20853e-07
-1.10894e-07
-8.17944e-07
-1.28913e-07
-7.02464e-07
-1.45217e-07
-5.75873e-07
-1.59567e-07
-4.40212e-07
-1.7143e-07
-2.97467e-07
-1.80685e-07
-1.50052e-07
-1.86959e-07
-2.46212e-10
-1.9024e-07
1.49428e-07
-1.90326e-07
2.96648e-07
-1.87326e-07
4.39009e-07
-1.81234e-07
5.74322e-07
-1.72282e-07
7.00449e-07
-1.60627e-07
8.15507e-07
-1.46563e-07
9.17864e-07
-1.30379e-07
1.00625e-06
-1.12466e-07
1.07983e-06
-9.33064e-08
1.1381e-06
-7.34084e-08
1.18099e-06
-5.33408e-08
1.2086e-06
-3.35199e-08
1.22142e-06
-1.43574e-08
1.22005e-06
3.94361e-09
1.20544e-06
2.11065e-08
1.17861e-06
3.70147e-08
1.1408e-06
5.14419e-08
1.09316e-06
6.43574e-08
1.03698e-06
7.56497e-08
9.73461e-07
8.53827e-08
9.03936e-07
9.34851e-08
8.29658e-07
9.99956e-08
7.51964e-07
1.04825e-07
6.72047e-07
1.08018e-07
5.9116e-07
1.09547e-07
5.10479e-07
1.0949e-07
4.31293e-07
1.07815e-07
3.54865e-07
1.04523e-07
2.82536e-07
9.95086e-08
2.15572e-07
9.27374e-08
1.55228e-07
8.41713e-08
1.02638e-07
7.39072e-08
5.88479e-08
6.21026e-08
2.46815e-08
4.90712e-08
6.76246e-10
3.5249e-08
-1.31438e-08
2.13217e-08
-1.74648e-08
8.28511e-09
-1.40019e-08
-2.34583e-09
-5.89131e-09
-8.31871e-09
-6.5061e-09
6.69755e-09
-9.07086e-09
1.45968e-08
-8.13678e-09
1.42428e-08
5.88988e-09
1.95051e-09
2.79891e-08
-2.43776e-08
5.45632e-08
-6.57555e-08
8.29842e-08
-1.22243e-07
1.11297e-07
-1.93201e-07
1.38136e-07
-2.77436e-07
1.62522e-07
-3.73466e-07
1.83852e-07
-4.79562e-07
2.0174e-07
-5.93937e-07
2.16063e-07
-7.14645e-07
2.26749e-07
-8.39755e-07
2.33864e-07
-9.67194e-07
2.37373e-07
-1.09499e-06
2.37349e-07
-1.22105e-06
2.33726e-07
-1.34344e-06
2.26597e-07
-1.46009e-06
2.15892e-07
-1.56907e-06
2.0173e-07
-1.66823e-06
1.84007e-07
-1.75563e-06
1.62843e-07
-1.82912e-06
1.38113e-07
-1.88688e-06
1.10014e-07
-1.92689e-06
7.85015e-08
-1.94756e-06
4.39459e-08
-1.94717e-06
6.46391e-09
-1.92454e-06
-3.33505e-08
-1.87848e-06
-7.51702e-08
-1.80848e-06
-1.18135e-07
-1.71417e-06
-1.61663e-07
-1.59602e-06
-2.04631e-07
-1.45472e-06
-2.46246e-07
-1.29186e-06
-2.85257e-07
-1.10927e-06
-3.20854e-07
-9.09582e-07
-3.51915e-07
-6.9557e-07
-3.77845e-07
-4.70643e-07
-3.9785e-07
-2.38205e-07
-4.11635e-07
-2.07109e-09
-4.18746e-07
2.34068e-07
-4.19131e-07
4.66371e-07
-4.12656e-07
6.91239e-07
-3.99535e-07
9.05158e-07
-3.80016e-07
1.10491e-06
-3.5462e-07
1.28757e-06
-3.23961e-07
1.45059e-06
-2.88795e-07
1.59199e-06
-2.5001e-07
1.71031e-06
-2.08538e-07
1.80481e-06
-1.65477e-07
1.87521e-06
-1.21825e-07
1.92186e-06
-7.86465e-08
1.94534e-06
-3.66933e-08
1.94674e-06
3.29007e-09
1.92727e-06
4.09015e-08
1.88861e-06
7.56559e-08
1.83244e-06
1.07343e-07
1.76075e-06
1.35643e-07
1.67534e-06
1.60527e-07
1.57823e-06
1.81865e-07
1.4713e-06
1.99749e-07
1.35663e-06
2.14091e-07
1.23617e-06
2.24941e-07
1.11197e-06
2.32189e-07
9.85887e-07
2.35883e-07
8.59881e-07
2.35974e-07
7.35799e-07
2.32536e-07
6.15622e-07
2.25515e-07
5.01279e-07
2.14918e-07
3.94755e-07
2.00668e-07
2.97887e-07
1.82823e-07
2.1242e-07
1.6151e-07
1.39821e-07
1.3711e-07
8.12793e-08
1.10214e-07
3.7484e-08
8.17818e-08
8.49118e-09
5.31659e-08
-6.59186e-09
2.63217e-08
-9.84074e-09
3.9667e-09
-5.05331e-09
-1.00471e-08
-1.02096e-08
4.13925e-09
-9.56125e-09
4.98441e-09
-2.08004e-09
-6.50351e-09
2.38559e-08
-3.37622e-08
6.13136e-08
-7.87566e-08
1.05227e-07
-1.42345e-07
1.51718e-07
-2.24453e-07
1.97898e-07
-3.24166e-07
2.41637e-07
-4.40007e-07
2.81466e-07
-5.70032e-07
3.16339e-07
-7.12109e-07
3.45655e-07
-8.63898e-07
3.69038e-07
-1.02305e-06
3.8641e-07
-1.18706e-06
3.97712e-07
-1.35346e-06
4.0304e-07
-1.51959e-06
4.02347e-07
-1.68294e-06
3.95708e-07
-1.84086e-06
3.83015e-07
-1.99086e-06
3.64359e-07
-2.13027e-06
3.39627e-07
-2.25662e-06
3.0896e-07
-2.36718e-06
2.72241e-07
-2.45953e-06
2.29672e-07
-2.531e-06
1.81189e-07
-2.57937e-06
1.27173e-07
-2.60223e-06
6.77602e-08
-2.59778e-06
3.65084e-09
-2.5641e-06
-6.46882e-08
-2.50008e-06
-1.36139e-07
-2.40464e-06
-2.0982e-07
-2.27769e-06
-2.84154e-07
-2.11938e-06
-3.57836e-07
-1.93102e-06
-4.28923e-07
-1.71422e-06
-4.95878e-07
-1.47178e-06
-5.56723e-07
-1.20674e-06
-6.1008e-07
-9.23099e-07
-6.54382e-07
-6.24955e-07
-6.88757e-07
-3.17049e-07
-7.12263e-07
-4.08076e-09
-7.24548e-07
3.08902e-07
-7.25205e-07
6.17028e-07
-7.14279e-07
9.1542e-07
-6.91874e-07
1.19953e-06
-6.58518e-07
1.46512e-06
-6.14976e-07
1.70836e-06
-5.62364e-07
1.92602e-06
-5.02072e-07
2.11539e-06
-4.35618e-07
2.27465e-06
-3.64738e-07
2.40261e-06
-2.91089e-07
2.49906e-06
-2.16488e-07
2.56427e-06
-1.42462e-07
2.59923e-06
-7.05571e-08
2.60515e-06
-1.81678e-09
2.5838e-06
6.27482e-08
2.53704e-06
1.22601e-07
2.46725e-06
1.77118e-07
2.37672e-06
2.26049e-07
2.26804e-06
2.69036e-07
2.14358e-06
3.06085e-07
2.00595e-06
3.37075e-07
1.8576e-06
3.62134e-07
1.7012e-06
3.8117e-07
1.53925e-06
3.94236e-07
1.37438e-06
4.012e-07
1.209e-06
4.02107e-07
1.04559e-06
3.96892e-07
8.86553e-07
3.85634e-07
7.34395e-07
3.68299e-07
5.91528e-07
3.44973e-07
4.60364e-07
3.15726e-07
3.43062e-07
2.8088e-07
2.4156e-07
2.40976e-07
1.57336e-07
1.97016e-07
9.13649e-08
1.50466e-07
4.3837e-08
1.03484e-07
1.39963e-08
5.90097e-08
-1.80904e-10
2.10644e-08
-2.39308e-09
-4.92178e-09
-1.12582e-08
5.22637e-10
-6.40062e-09
-7.91995e-09
1.32246e-08
-3.32902e-08
5.56136e-08
-7.83526e-08
1.12333e-07
-1.44493e-07
1.76966e-07
-2.32147e-07
2.44514e-07
-3.40813e-07
3.11104e-07
-4.69269e-07
3.73924e-07
-6.15633e-07
4.30934e-07
-7.77644e-07
4.80782e-07
-9.52691e-07
5.22533e-07
-1.1381e-06
5.5571e-07
-1.33103e-06
5.80018e-07
-1.5287e-06
5.95458e-07
-1.72814e-06
6.01992e-07
-1.92648e-06
5.9974e-07
-2.12061e-06
5.88613e-07
-2.30762e-06
5.68683e-07
-2.48439e-06
5.39786e-07
-2.64805e-06
5.02023e-07
-2.79546e-06
4.55251e-07
-2.92379e-06
3.99673e-07
-3.0299e-06
3.35211e-07
-3.11106e-06
2.62233e-07
-3.16428e-06
1.80837e-07
-3.18717e-06
9.17239e-08
-3.17716e-06
-4.62588e-09
-3.13246e-06
-1.06979e-07
-3.05123e-06
-2.14288e-07
-2.93265e-06
-3.2465e-07
-2.77606e-06
-4.36351e-07
-2.58206e-06
-5.46819e-07
-2.35165e-06
-6.53781e-07
-2.08722e-06
-7.54291e-07
-1.79161e-06
-8.45965e-07
-1.46895e-06
-9.26115e-07
-1.12365e-06
-9.92898e-07
-7.6103e-07
-1.04448e-06
-3.86465e-07
-1.0799e-06
-5.86353e-09
-1.09827e-06
3.74955e-07
-1.09935e-06
7.49956e-07
-1.08296e-06
1.11334e-06
-1.04944e-06
1.45952e-06
-9.99393e-07
1.78333e-06
-9.33965e-07
2.08023e-06
-8.54807e-07
2.34624e-06
-7.63989e-07
2.57833e-06
-6.64015e-07
2.77411e-06
-5.57411e-07
2.9324e-06
-4.46907e-07
3.05267e-06
-3.34921e-07
3.13553e-06
-2.23946e-07
3.18195e-06
-1.15925e-07
3.19369e-06
-1.27405e-08
3.1726e-06
8.44197e-08
3.12112e-06
1.74412e-07
3.04169e-06
2.5667e-07
2.93728e-06
3.30517e-07
2.81066e-06
3.95731e-07
2.66488e-06
4.51964e-07
2.50275e-06
4.99286e-07
2.32732e-06
5.37605e-07
2.14145e-06
5.67087e-07
1.94827e-06
5.87632e-07
1.75068e-06
5.99297e-07
1.55172e-06
6.01931e-07
1.3542e-06
5.9558e-07
1.16102e-06
5.8018e-07
9.74947e-07
5.55853e-07
7.98867e-07
5.22665e-07
6.35493e-07
4.80898e-07
4.87468e-07
4.30959e-07
3.57079e-07
3.73697e-07
2.46262e-07
3.10412e-07
1.56321e-07
2.43156e-07
8.7861e-08
1.7479e-07
4.04823e-08
1.09276e-07
1.26477e-08
5.18287e-08
1.2442e-09
9.37415e-09
-8.66807e-09
-3.53151e-09
8.49364e-10
-2.23744e-08
3.89399e-08
-6.31949e-08
1.02774e-07
-1.27728e-07
1.82728e-07
-2.16548e-07
2.71283e-07
-3.29326e-07
3.62386e-07
-4.6499e-07
4.51336e-07
-6.2176e-07
5.34609e-07
-7.97401e-07
6.09753e-07
-9.89208e-07
6.75049e-07
-1.1943e-06
7.29448e-07
-1.40955e-06
7.72244e-07
-1.6319e-06
8.03153e-07
-1.85814e-06
8.21985e-07
-2.0852e-06
8.28826e-07
-2.30977e-06
8.23634e-07
-2.5287e-06
8.06532e-07
-2.73857e-06
7.77378e-07
-2.9362e-06
7.36237e-07
-3.11814e-06
6.82904e-07
-3.28129e-06
6.17521e-07
-3.42221e-06
5.39958e-07
-3.53786e-06
4.5055e-07
-3.62487e-06
3.49342e-07
-3.68041e-06
2.3698e-07
-3.70135e-06
1.13859e-07
-3.68532e-06
-1.88299e-08
-3.62975e-06
-1.60066e-07
-3.53307e-06
-3.07847e-07
-3.39369e-06
-4.60275e-07
-3.21133e-06
-6.14368e-07
-2.98595e-06
-7.67278e-07
-2.71912e-06
-9.15176e-07
-2.41292e-06
-1.05462e-06
-2.07109e-06
-1.18159e-06
-1.69786e-06
-1.29292e-06
-1.29879e-06
-1.38542e-06
-8.79626e-07
-1.45707e-06
-4.46913e-07
-1.50605e-06
-7.11533e-09
-1.53155e-06
4.32899e-07
-1.53296e-06
8.66406e-07
-1.51033e-06
1.28664e-06
-1.46396e-06
1.68712e-06
-1.39474e-06
2.06189e-06
-1.30416e-06
2.40556e-06
-1.19439e-06
2.71375e-06
-1.06843e-06
2.98286e-06
-9.29689e-07
3.21056e-06
-7.82029e-07
3.39528e-06
-6.29064e-07
3.53682e-06
-4.74465e-07
3.63558e-06
-3.21245e-07
3.69311e-06
-1.72348e-07
3.71113e-06
-2.9894e-08
3.69211e-06
1.04122e-07
3.63845e-06
2.28553e-07
3.55314e-06
3.42266e-07
3.43908e-06
4.44765e-07
3.29965e-06
5.35402e-07
3.13793e-06
6.14034e-07
2.95731e-06
6.80361e-07
2.76084e-06
7.34529e-07
2.55187e-06
7.76477e-07
2.33355e-06
8.06397e-07
2.10929e-06
8.24183e-07
1.88225e-06
8.29887e-07
1.65575e-06
8.2335e-07
1.43286e-06
8.04627e-07
1.21677e-06
7.73696e-07
1.01049e-06
7.3079e-07
8.17159e-07
6.7619e-07
6.3967e-07
6.10554e-07
4.8081e-07
5.34875e-07
3.42926e-07
4.50842e-07
2.27915e-07
3.60915e-07
1.36921e-07
2.68665e-07
7.02464e-08
1.78892e-07
2.70893e-08
9.79582e-08
5.32709e-09
3.40492e-08
-1.99215e-09
-7.71365e-09
1.22769e-08
-3.74633e-08
7.55612e-08
-9.45134e-08
1.66138e-07
-1.79441e-07
2.73438e-07
-2.91726e-07
3.88942e-07
-4.30127e-07
5.05762e-07
-5.92697e-07
6.1843e-07
-7.7705e-07
7.22922e-07
-9.80371e-07
8.16356e-07
-1.19965e-06
8.96884e-07
-1.43161e-06
9.63276e-07
-1.67296e-06
1.01489e-06
-1.92027e-06
1.05128e-06
-2.17024e-06
1.07238e-06
-2.41948e-06
1.07807e-06
-2.66472e-06
1.06849e-06
-2.90249e-06
1.04357e-06
-3.12947e-06
1.00342e-06
-3.34206e-06
9.47841e-07
-3.53696e-06
8.76924e-07
-3.71057e-06
7.90453e-07
-3.85969e-06
6.88671e-07
-3.98074e-06
5.71532e-07
-4.07068e-06
4.39594e-07
-4.12605e-06
2.93128e-07
-4.14406e-06
1.3319e-07
-4.12159e-06
-3.93789e-08
-4.05641e-06
-2.22712e-07
-3.94609e-06
-4.15025e-07
-3.78935e-06
-6.13276e-07
-3.58503e-06
-8.14403e-07
-3.33349e-06
-1.01401e-06
-3.03559e-06
-1.20779e-06
-2.69408e-06
-1.39043e-06
-2.3124e-06
-1.55723e-06
-1.89582e-06
-1.70324e-06
-1.45008e-06
-1.82483e-06
-9.82115e-07
-1.91872e-06
-4.98871e-07
-1.98307e-06
-7.88678e-09
-2.0164e-06
4.83463e-07
-2.01829e-06
9.67571e-07
-1.98857e-06
1.43699e-06
-1.92782e-06
1.88446e-06
-1.83712e-06
2.30312e-06
-1.71834e-06
2.687e-06
-1.57438e-06
3.031e-06
-1.40901e-06
3.33149e-06
-1.22706e-06
3.58581e-06
-1.03349e-06
3.79284e-06
-8.33543e-07
3.95218e-06
-6.31716e-07
4.06486e-06
-4.32296e-07
4.13225e-06
-2.38526e-07
4.15679e-06
-5.34538e-08
4.1408e-06
1.20913e-07
4.08732e-06
2.82703e-07
3.9991e-06
4.30965e-07
3.87953e-06
5.64689e-07
3.73174e-06
6.83524e-07
3.55935e-06
7.869e-07
3.36559e-06
8.74776e-07
3.15401e-06
9.46917e-07
2.92779e-06
1.00353e-06
2.69042e-06
1.04458e-06
2.44519e-06
1.07026e-06
2.19565e-06
1.08045e-06
1.94512e-06
1.07519e-06
1.69705e-06
1.05433e-06
1.4547e-06
1.01795e-06
1.22142e-06
9.66129e-07
1.00046e-06
8.99302e-07
7.95136e-07
8.18116e-07
6.08554e-07
7.23811e-07
4.43686e-07
6.18236e-07
3.0304e-07
5.04275e-07
1.88615e-07
3.85966e-07
1.01582e-07
2.68898e-07
4.22124e-08
1.60352e-07
9.5265e-09
6.96899e-08
8.90313e-09
-1.18985e-08
2.78331e-08
-5.27423e-08
1.23229e-07
-1.26443e-07
2.4612e-07
-2.32219e-07
3.84943e-07
-3.68336e-07
5.30322e-07
-5.32359e-07
6.74611e-07
-7.21394e-07
8.11858e-07
-9.32175e-07
9.37621e-07
-1.16136e-06
1.04888e-06
-1.40544e-06
1.14364e-06
-1.66097e-06
1.22078e-06
-1.92435e-06
1.27963e-06
-2.19216e-06
1.31995e-06
-2.46082e-06
1.34152e-06
-2.72702e-06
1.34442e-06
-2.98727e-06
1.32858e-06
-3.23829e-06
1.29415e-06
-3.47654e-06
1.241e-06
-3.6987e-06
1.16925e-06
-3.90112e-06
1.07865e-06
-4.08056e-06
9.69388e-07
-4.23339e-06
8.41283e-07
-4.35651e-06
6.94763e-07
-4.44635e-06
5.29947e-07
-4.49999e-06
3.47713e-07
-4.51402e-06
1.48661e-07
-4.48579e-06
-6.56226e-08
-4.41223e-06
-2.93702e-07
-4.29128e-06
-5.32841e-07
-4.12062e-06
-7.80234e-07
-3.89935e-06
-1.03147e-06
-3.62675e-06
-1.28192e-06
-3.30407e-06
-1.52537e-06
-2.93327e-06
-1.75574e-06
-2.5186e-06
-1.9661e-06
-2.06516e-06
-2.15065e-06
-1.57985e-06
-2.30399e-06
-1.06986e-06
-2.4226e-06
-5.43302e-07
-2.50365e-06
-8.13398e-09
-2.54579e-06
5.27314e-07
-2.54812e-06
1.05491e-06
-2.5107e-06
1.56645e-06
-2.43407e-06
2.05392e-06
-2.31964e-06
2.50982e-06
-2.16977e-06
2.92727e-06
-1.98799e-06
3.30091e-06
-1.77936e-06
3.62659e-06
-1.54989e-06
3.90216e-06
-1.30645e-06
4.12643e-06
-1.05544e-06
4.29988e-06
-8.03069e-07
4.42344e-06
-5.54147e-07
4.4993e-06
-3.13037e-07
4.52968e-06
-8.2755e-08
4.51762e-06
1.3391e-07
4.46585e-06
3.35318e-07
4.37767e-06
5.19879e-07
4.256e-06
6.86928e-07
4.10437e-06
8.35636e-07
3.92598e-06
9.65815e-07
3.7245e-06
1.07699e-06
3.50316e-06
1.16922e-06
3.26552e-06
1.24232e-06
3.01475e-06
1.29653e-06
2.75437e-06
1.33181e-06
2.48769e-06
1.34835e-06
2.21828e-06
1.34598e-06
1.94951e-06
1.32474e-06
1.68493e-06
1.28447e-06
1.42791e-06
1.22532e-06
1.18201e-06
1.14752e-06
9.50695e-07
1.05181e-06
7.37603e-07
9.39355e-07
5.46207e-07
8.1218e-07
3.7988e-07
6.73291e-07
2.4155e-07
5.27139e-07
1.33595e-07
3.79822e-07
5.75119e-08
2.39486e-07
1.37053e-08
1.16498e-07
2.401e-08
-1.60271e-08
4.74303e-08
-6.81225e-08
1.82022e-07
-1.58775e-07
3.42974e-07
-2.85748e-07
5.17591e-07
-4.45797e-07
6.95557e-07
-6.35194e-07
8.68696e-07
-8.49835e-07
1.03073e-06
-1.08561e-06
1.17718e-06
-1.33841e-06
1.30499e-06
-1.6044e-06
1.41238e-06
-1.87979e-06
1.4983e-06
-2.16103e-06
1.56236e-06
-2.44451e-06
1.60437e-06
-2.72685e-06
1.62438e-06
-3.00454e-06
1.62235e-06
-3.27437e-06
1.59842e-06
-3.5329e-06
1.55248e-06
-3.77699e-06
1.4847e-06
-4.00313e-06
1.3949e-06
-4.20818e-06
1.28322e-06
-4.3886e-06
1.14947e-06
-4.54135e-06
9.93953e-07
-4.66294e-06
8.16622e-07
-4.7505e-06
6.18165e-07
-4.80064e-06
3.98932e-07
-4.81064e-06
1.60189e-07
-4.77715e-06
-9.70669e-08
-4.69766e-06
-3.70631e-07
-4.56906e-06
-6.58339e-07
-4.3893e-06
-9.56364e-07
-4.15612e-06
-1.26054e-06
-3.8689e-06
-1.5646e-06
-3.52754e-06
-1.86183e-06
-3.13436e-06
-2.14368e-06
-2.69293e-06
-2.40201e-06
-2.20935e-06
-2.62847e-06
-1.69056e-06
-2.81688e-06
-1.14502e-06
-2.96224e-06
-5.81164e-07
-3.06174e-06
-8.07314e-09
-3.11336e-06
5.65409e-07
-3.11635e-06
1.13025e-06
-3.0705e-06
1.6776e-06
-2.97655e-06
2.19877e-06
-2.83612e-06
2.68536e-06
-2.65202e-06
3.13002e-06
-2.42879e-06
3.52659e-06
-2.17267e-06
3.87123e-06
-1.89178e-06
4.16169e-06
-1.59453e-06
4.39793e-06
-1.28951e-06
4.58063e-06
-9.83802e-07
4.71188e-06
-6.83671e-07
4.79375e-06
-3.93508e-07
4.82931e-06
-1.17148e-07
4.8212e-06
1.43023e-07
4.77278e-06
3.84726e-07
4.68679e-06
6.06804e-07
4.56656e-06
8.08006e-07
4.41495e-06
9.87952e-07
4.23544e-06
1.14599e-06
4.03112e-06
1.28206e-06
3.80556e-06
1.39578e-06
3.56186e-06
1.48727e-06
3.30345e-06
1.55638e-06
3.03341e-06
1.60334e-06
2.75518e-06
1.62807e-06
2.472e-06
1.63071e-06
2.18739e-06
1.61105e-06
1.90472e-06
1.56906e-06
1.62762e-06
1.5046e-06
1.35964e-06
1.41788e-06
1.10463e-06
1.30932e-06
8.66508e-07
1.18003e-06
6.49461e-07
1.03184e-06
4.57666e-07
8.67778e-07
2.95274e-07
6.92343e-07
1.6599e-07
5.12042e-07
7.28773e-08
3.35646e-07
1.7806e-08
1.74594e-07
4.32565e-08
-2.01463e-08
7.10529e-08
-8.37449e-08
2.52114e-07
-1.91842e-07
4.57104e-07
-3.4043e-07
6.71748e-07
-5.24547e-07
8.84781e-07
-7.38842e-07
1.08758e-06
-9.77995e-07
1.27395e-06
-1.23685e-06
1.43963e-06
-1.51071e-06
1.58203e-06
-1.79524e-06
1.69964e-06
-2.08659e-06
1.79185e-06
-2.38106e-06
1.85847e-06
-2.67532e-06
1.89969e-06
-2.96592e-06
1.9156e-06
-3.24973e-06
1.90645e-06
-3.52343e-06
1.87221e-06
-3.78405e-06
1.81304e-06
-4.02833e-06
1.72881e-06
-4.25336e-06
1.61969e-06
-4.45587e-06
1.48548e-06
-4.63302e-06
1.32647e-06
-4.78154e-06
1.14254e-06
-4.89877e-06
9.3422e-07
-4.98151e-06
7.0166e-07
-5.02728e-06
4.45842e-07
-5.03285e-06
1.6736e-07
-4.99574e-06
-1.32137e-07
-4.91256e-06
-4.51266e-07
-4.78071e-06
-7.87169e-07
-4.59675e-06
-1.13681e-06
-4.35836e-06
-1.49495e-06
-4.06309e-06
-1.8555e-06
-3.7106e-06
-2.20962e-06
-3.30169e-06
-2.54761e-06
-2.84039e-06
-2.8581e-06
-2.33244e-06
-3.13102e-06
-1.78611e-06
-3.35764e-06
-1.21009e-06
-3.53263e-06
-6.14105e-07
-3.65216e-06
-7.74844e-09
-3.71438e-06
5.98942e-07
-3.71802e-06
1.19615e-06
-3.66303e-06
1.77412e-06
-3.55007e-06
2.32327e-06
-3.38101e-06
2.83459e-06
-3.15925e-06
3.29972e-06
-2.89017e-06
3.71246e-06
-2.58211e-06
4.06867e-06
-2.24526e-06
4.36734e-06
-1.8909e-06
4.6089e-06
-1.52909e-06
4.79573e-06
-1.16881e-06
4.93022e-06
-8.1652e-07
5.01567e-06
-4.77519e-07
5.05475e-06
-1.55057e-07
5.05085e-06
1.47967e-07
5.0066e-06
4.29972e-07
4.92523e-06
6.89235e-07
4.80924e-06
9.25042e-07
4.66176e-06
1.13643e-06
4.4854e-06
1.32322e-06
4.28343e-06
1.48489e-06
4.05871e-06
1.62148e-06
3.81457e-06
1.73265e-06
3.55391e-06
1.81854e-06
3.27993e-06
1.87899e-06
2.99555e-06
1.91419e-06
2.70404e-06
1.92398e-06
2.40851e-06
1.90838e-06
2.11241e-06
1.86709e-06
1.81914e-06
1.79999e-06
1.53249e-06
1.70687e-06
1.25634e-06
1.58797e-06
9.95108e-07
1.44389e-06
7.53486e-07
1.27613e-06
5.36686e-07
1.0873e-06
3.50083e-07
8.81742e-07
1.99068e-07
6.65958e-07
8.84521e-08
4.49276e-07
2.19041e-08
2.44162e-07
6.66259e-08
-2.43623e-08
9.88152e-08
-1.00067e-07
3.34046e-07
-2.26458e-07
5.89269e-07
-3.97446e-07
8.48103e-07
-6.05864e-07
1.09818e-06
-8.4457e-07
1.33078e-06
-1.10678e-06
1.54011e-06
-1.38645e-06
1.72275e-06
-1.67822e-06
1.8768e-06
-1.97755e-06
2.00157e-06
-2.2804e-06
2.09688e-06
-2.58332e-06
2.16311e-06
-2.88299e-06
2.20058e-06
-3.17647e-06
2.20982e-06
-3.46064e-06
2.19101e-06
-3.73273e-06
2.14445e-06
-3.98973e-06
2.07006e-06
-4.22899e-06
1.96803e-06
-4.44756e-06
1.83819e-06
-4.64295e-06
1.68081e-06
-4.81223e-06
1.49577e-06
-4.95306e-06
1.28356e-06
-5.06262e-06
1.04424e-06
-5.13879e-06
7.78613e-07
-5.17878e-06
4.87017e-07
-5.18053e-06
1.70685e-07
-5.14099e-06
-1.69655e-07
-5.05769e-06
-5.32114e-07
-4.9269e-06
-9.15053e-07
-4.7454e-06
-1.31497e-06
-4.50885e-06
-1.72772e-06
-4.21416e-06
-2.14604e-06
-3.85843e-06
-2.56087e-06
-3.44191e-06
-2.95942e-06
-2.96714e-06
-3.32797e-06
-2.44087e-06
-3.65226e-06
-1.87147e-06
-3.92187e-06
-1.26917e-06
-4.12968e-06
-6.44105e-07
-4.27196e-06
-7.41014e-09
-4.34594e-06
6.29843e-07
-4.35044e-06
1.25633e-06
-4.28504e-06
1.86109e-06
-4.15073e-06
2.43366e-06
-3.94972e-06
2.96388e-06
-3.6858e-06
3.4429e-06
-3.3657e-06
3.86382e-06
-2.99986e-06
4.2236e-06
-2.60229e-06
4.52196e-06
-2.187e-06
4.76166e-06
-1.76686e-06
4.94595e-06
-1.35143e-06
5.07914e-06
-9.48151e-07
5.16453e-06
-5.61522e-07
5.20579e-06
-1.95106e-07
5.20547e-06
1.49288e-07
5.16668e-06
4.69727e-07
5.09162e-06
7.65313e-07
4.98306e-06
1.03473e-06
4.8431e-06
1.27755e-06
4.67448e-06
1.49297e-06
4.47946e-06
1.68094e-06
4.261e-06
1.84099e-06
4.02166e-06
1.97318e-06
3.76444e-06
2.0772e-06
3.49195e-06
2.15316e-06
3.20714e-06
2.20085e-06
2.91268e-06
2.22036e-06
2.61162e-06
2.21138e-06
2.30694e-06
2.17376e-06
2.00205e-06
2.10697e-06
1.70049e-06
2.0107e-06
1.40637e-06
1.88453e-06
1.12423e-06
1.7286e-06
8.59468e-07
1.54358e-06
6.1814e-07
1.33136e-06
4.0713e-07
1.09554e-06
2.33639e-07
8.42313e-07
1.04721e-07
5.81165e-07
2.61152e-08
3.25753e-07
9.42128e-08
-2.89451e-08
1.31094e-07
-1.179e-07
4.2894e-07
-2.64144e-07
7.40961e-07
-4.588e-07
1.04783e-06
-6.92052e-07
1.33618e-06
-9.5454e-07
1.59762e-06
-1.23808e-06
1.8275e-06
-1.53569e-06
2.02368e-06
-1.84171e-06
2.18565e-06
-2.15139e-06
2.31366e-06
-2.46092e-06
2.40847e-06
-2.76694e-06
2.47081e-06
-3.06662e-06
2.50156e-06
-3.35717e-06
2.50125e-06
-3.63613e-06
2.47046e-06
-3.90079e-06
2.40934e-06
-4.14882e-06
2.31817e-06
-4.37758e-06
2.19682e-06
-4.58491e-06
2.04554e-06
-4.76828e-06
1.86425e-06
-4.92577e-06
1.6534e-06
-5.05499e-06
1.41308e-06
-5.15431e-06
1.14406e-06
-5.22151e-06
8.4662e-07
-5.25516e-06
5.21814e-07
-5.25298e-06
1.70043e-07
-5.21329e-06
-2.07435e-07
-5.13298e-06
-6.10085e-07
-5.00917e-06
-1.03615e-06
-4.83701e-06
-1.484e-06
-4.61173e-06
-1.94948e-06
-4.32712e-06
-2.42675e-06
-3.97865e-06
-2.90514e-06
-3.56316e-06
-3.37047e-06
-3.08267e-06
-3.80387e-06
-2.54315e-06
-4.18709e-06
-1.95475e-06
-4.50553e-06
-1.32795e-06
-4.75167e-06
-6.74609e-07
-4.92045e-06
-7.07919e-09
-5.00865e-06
6.6109e-07
-5.01396e-06
1.31647e-06
-4.93612e-06
1.94626e-06
-4.7766e-06
2.53857e-06
-4.5385e-06
3.08252e-06
-4.22647e-06
3.56791e-06
-3.848e-06
3.98822e-06
-3.41725e-06
4.34118e-06
-2.95265e-06
4.62957e-06
-2.47314e-06
4.85799e-06
-1.99344e-06
5.03266e-06
-1.5245e-06
5.15856e-06
-1.07262e-06
5.24055e-06
-6.42174e-07
5.28165e-06
-2.35021e-07
5.28492e-06
1.4705e-07
5.25214e-06
5.03392e-07
5.18569e-06
8.3269e-07
5.08705e-06
1.1344e-06
4.95844e-06
1.40736e-06
4.80141e-06
1.65125e-06
4.61828e-06
1.86531e-06
4.41093e-06
2.04951e-06
4.18195e-06
2.20337e-06
3.93352e-06
2.32697e-06
3.66831e-06
2.41995e-06
3.38856e-06
2.48239e-06
3.09692e-06
2.51395e-06
2.79578e-06
2.51454e-06
2.48798e-06
2.48361e-06
2.17637e-06
2.42067e-06
1.86442e-06
2.32484e-06
1.55596e-06
2.19532e-06
1.25578e-06
2.03127e-06
9.69555e-07
1.83241e-06
7.04344e-07
1.59927e-06
4.68431e-07
1.33422e-06
2.71254e-07
1.04232e-06
1.22497e-07
7.32842e-07
3.07112e-08
4.20475e-07
1.26377e-07
-3.43348e-08
1.68687e-07
-1.38704e-07
5.38948e-07
-3.07361e-07
9.1472e-07
-5.27707e-07
1.27287e-06
-7.86493e-07
1.59939e-06
-1.07199e-06
1.88722e-06
-1.37452e-06
2.13372e-06
-1.68658e-06
2.33893e-06
-2.00232e-06
2.50408e-06
-2.31731e-06
2.6309e-06
-2.62796e-06
2.721e-06
-2.93147e-06
2.77589e-06
-3.22527e-06
2.79662e-06
-3.50723e-06
2.78414e-06
-3.77508e-06
2.73892e-06
-4.02687e-06
2.66145e-06
-4.26034e-06
2.55177e-06
-4.47366e-06
2.41019e-06
-4.66468e-06
2.23662e-06
-4.83185e-06
2.03152e-06
-4.97323e-06
1.795e-06
-5.08768e-06
1.52786e-06
-5.17356e-06
1.23048e-06
-5.23015e-06
9.0398e-07
-5.25604e-06
5.48792e-07
-5.25065e-06
1.66057e-07
-5.21218e-06
-2.44117e-07
-5.13914e-06
-6.80986e-07
-5.02787e-06
-1.14491e-06
-4.87407e-06
-1.63496e-06
-4.67038e-06
-2.14995e-06
-4.40883e-06
-2.68476e-06
-4.07991e-06
-3.23021e-06
-3.67734e-06
-3.76894e-06
-3.1994e-06
-4.27753e-06
-2.6527e-06
-4.72944e-06
-2.04763e-06
-5.10623e-06
-1.39615e-06
-5.39878e-06
-7.10743e-07
-5.60148e-06
-7.02706e-09
-5.70798e-06
6.97724e-07
-5.7144e-06
1.38579e-06
-5.62007e-06
2.04127e-06
-5.42833e-06
2.65104e-06
-5.14492e-06
3.20308e-06
-4.77554e-06
3.68656e-06
-4.32873e-06
4.09458e-06
-3.82271e-06
4.42823e-06
-3.28393e-06
4.69367e-06
-2.7365e-06
4.90024e-06
-2.19824e-06
5.05617e-06
-1.67897e-06
5.16897e-06
-1.1841e-06
5.24318e-06
-7.15183e-07
5.28256e-06
-2.73236e-07
5.28865e-06
1.41961e-07
5.26326e-06
5.29671e-07
5.20704e-06
8.89707e-07
5.12147e-06
1.22086e-06
5.00729e-06
1.52257e-06
4.86613e-06
1.79363e-06
4.69905e-06
2.03368e-06
4.50794e-06
2.24191e-06
4.2943e-06
2.41827e-06
4.06033e-06
2.56225e-06
3.80782e-06
2.6739e-06
3.53904e-06
2.75282e-06
3.25588e-06
2.79895e-06
2.9606e-06
2.81179e-06
2.65532e-06
2.79093e-06
2.34264e-06
2.73544e-06
2.02536e-06
2.64425e-06
1.70713e-06
2.51577e-06
1.39238e-06
2.34836e-06
1.08705e-06
2.14021e-06
7.98743e-07
1.89017e-06
5.37266e-07
1.59838e-06
3.14388e-07
1.26796e-06
1.43238e-07
9.06846e-07
3.60997e-08
5.30481e-07
1.63899e-07
-4.13881e-08
2.13212e-07
-1.64942e-07
6.67824e-07
-3.60141e-07
1.11467e-06
-6.08964e-07
1.526e-06
-8.94054e-07
1.8885e-06
-1.20113e-06
2.19803e-06
-1.5195e-06
2.45549e-06
-1.8414e-06
2.66385e-06
-2.16147e-06
2.8267e-06
-2.47578e-06
2.94731e-06
-2.78151e-06
3.02844e-06
-3.0763e-06
3.07207e-06
-3.35831e-06
3.07977e-06
-3.62569e-06
3.05241e-06
-3.87691e-06
2.99077e-06
-4.1102e-06
2.89512e-06
-4.32411e-06
2.76586e-06
-4.51686e-06
2.60302e-06
-4.68726e-06
2.40705e-06
-4.83373e-06
2.17809e-06
-4.95552e-06
1.91697e-06
-5.05152e-06
1.62418e-06
-5.12158e-06
1.30102e-06
-5.16507e-06
9.48186e-07
-5.18246e-06
5.67126e-07
-5.17336e-06
1.58227e-07
-5.13817e-06
-2.77737e-07
-5.07554e-06
-7.41708e-07
-4.98367e-06
-1.23456e-06
-4.85723e-06
-1.75885e-06
-4.68864e-06
-2.31571e-06
-4.46543e-06
-2.90482e-06
-4.17362e-06
-3.51859e-06
-3.79904e-06
-4.13982e-06
-3.33584e-06
-4.73685e-06
-2.78856e-06
-5.2727e-06
-2.16945e-06
-5.7213e-06
-1.48912e-06
-6.07511e-06
-7.61712e-07
-6.32495e-06
-7.42059e-09
-6.45837e-06
7.48212e-07
-6.46615e-06
1.47948e-06
-6.34756e-06
2.16505e-06
-6.11033e-06
2.79024e-06
-5.76691e-06
3.34393e-06
-5.32643e-06
3.81376e-06
-4.79612e-06
4.19438e-06
-4.2011e-06
4.4912e-06
-3.57871e-06
4.71803e-06
-2.96146e-06
4.88905e-06
-2.36769e-06
5.01693e-06
-1.80551e-06
5.10963e-06
-1.27569e-06
5.17272e-06
-7.7722e-07
5.20821e-06
-3.07727e-07
5.2175e-06
1.33651e-07
5.20022e-06
5.47803e-07
5.15672e-06
9.33962e-07
5.08661e-06
1.29169e-06
4.99055e-06
1.61946e-06
4.86869e-06
1.91649e-06
4.72214e-06
2.18142e-06
4.55155e-06
2.41377e-06
4.35844e-06
2.61268e-06
4.14394e-06
2.77804e-06
3.90985e-06
2.90934e-06
3.65758e-06
3.00657e-06
3.38895e-06
3.06923e-06
3.10545e-06
3.09709e-06
2.80897e-06
3.08935e-06
2.50126e-06
3.04514e-06
2.1847e-06
2.96285e-06
1.86209e-06
2.84048e-06
1.53744e-06
2.67519e-06
1.21622e-06
2.46373e-06
9.06299e-07
2.20252e-06
6.18478e-07
1.88875e-06
3.67094e-07
1.52199e-06
1.69387e-07
1.10731e-06
4.3128e-08
6.59521e-07
2.08408e-07
-5.1741e-08
2.67919e-07
-2.01012e-07
8.22054e-07
-4.2891e-07
1.34697e-06
-7.09718e-07
1.81075e-06
-1.02125e-06
2.20362e-06
-1.34723e-06
2.52733e-06
-1.67663e-06
2.78794e-06
-2.00244e-06
2.99238e-06
-2.32017e-06
3.14679e-06
-2.62705e-06
3.25614e-06
-2.92104e-06
3.32399e-06
-3.20072e-06
3.35298e-06
-3.46468e-06
3.34469e-06
-3.71181e-06
3.3003e-06
-3.94078e-06
3.22032e-06
-4.15059e-06
3.1053e-06
-4.33988e-06
2.95536e-06
-4.50778e-06
2.77099e-06
-4.65307e-06
2.55237e-06
-4.77529e-06
2.30034e-06
-4.87368e-06
2.01548e-06
-4.94849e-06
1.69921e-06
-4.99965e-06
1.35257e-06
-5.02835e-06
9.77433e-07
-5.03529e-06
5.7486e-07
-5.02246e-06
1.46422e-07
-4.99087e-06
-3.07996e-07
-4.94207e-06
-7.88908e-07
-4.87492e-06
-1.2998e-06
-4.78637e-06
-1.84523e-06
-4.66726e-06
-2.43236e-06
-4.50302e-06
-3.06636e-06
-4.27113e-06
-3.74752e-06
-3.94787e-06
-4.45988e-06
-3.51675e-06
-5.16452e-06
-2.98063e-06
-5.80521e-06
-2.35055e-06
-6.34767e-06
-1.63347e-06
-6.78852e-06
-8.42774e-07
-7.11207e-06
-8.90948e-09
-7.28877e-06
8.27155e-07
-7.29882e-06
1.62344e-06
-7.1405e-06
2.34805e-06
-6.83171e-06
2.98601e-06
-6.40186e-06
3.53027e-06
-5.86805e-06
3.96929e-06
-5.23288e-06
4.29944e-06
-4.52933e-06
4.53625e-06
-3.8138e-06
4.70354e-06
-3.12722e-06
4.82413e-06
-2.48692e-06
4.91317e-06
-1.89343e-06
4.98019e-06
-1.34177e-06
5.02861e-06
-8.24853e-07
5.05976e-06
-3.3808e-07
5.0722e-06
1.2199e-07
5.0649e-06
5.55882e-07
5.03586e-06
9.63693e-07
4.98433e-06
1.34384e-06
4.90916e-06
1.69525e-06
4.81046e-06
2.01595e-06
4.68794e-06
2.30486e-06
4.54234e-06
2.56047e-06
4.37401e-06
2.7822e-06
4.18411e-06
2.96917e-06
3.97345e-06
3.12125e-06
3.74342e-06