/*--------------------------------*- C++ -*----------------------------------*\
| =========                 |                                                 |
| \\      /  F ield         | OpenFOAM: The Open Source CFD Toolbox           |
|  \\    /   O peration     | Version:  2412                                  |
|   \\  /    A nd           | Website:  www.openfoam.com                      |
|    \\/     M anipulation  |                                                 |
\*---------------------------------------------------------------------------*/
FoamFile
{
    version     2.0;
    format      ascii;
    arch        "LSB;label=32;scalar=64";
    class       volScalarField;
    location    "8.35";
    object      p_rgh;
}
// * * * * * * * * * * * * * * * * * * * * * * * * * * * * * * * * * * * * * //

dimensions      [1 -1 -2 0 0 0 0];

internalField   nonuniform List<scalar> 
6400
(
15785.4
15785.3
15784.1
15781.6
15778.1
15773.7
15768.8
15763.7
15758.4
15753.2
15748.3
15743.7
15739.6
15736
15733.1
15730.9
15729.6
15729.1
15729.7
15731.4
15734.3
15738.5
15744.1
15751
15759.3
15769
15779.9
15792
15805
15818.8
15833
15847.4
15861.4
15874.9
15887.3
15898.4
15907.7
15915
15920
15922.6
15922.7
15920.2
15915.4
15908.2
15898.9
15887.9
15875.5
15862
15847.8
15833.4
15819
15805
15791.8
15779.4
15768.2
15758.3
15749.7
15742.4
15736.6
15732.1
15729
15727
15726.2
15726.4
15727.6
15729.7
15732.5
15736
15740.1
15744.7
15749.6
15754.8
15760.2
15765.4
15770.4
15774.9
15778.5
15781.1
15782.4
15782.5
15785.5
15785.4
15784.4
15782.2
15779
15775.2
15770.9
15766.3
15761.7
15757.1
15752.7
15748.6
15744.9
15741.8
15739.2
15737.4
15736.3
15736
15736.7
15738.4
15741.1
15745.1
15750.2
15756.5
15764
15772.7
15782.5
15793.2
15804.7
15816.8
15829.2
15841.7
15854
15865.6
15876.4
15885.9
15893.9
15900.2
15904.5
15906.7
15906.8
15904.7
15900.5
15894.3
15886.4
15876.9
15866.2
15854.5
15842.1
15829.5
15816.9
15804.7
15792.9
15782
15771.9
15763
15755.2
15748.6
15743.2
15739
15735.9
15734
15733.1
15733.2
15734.1
15735.8
15738.3
15741.4
15745
15749.1
15753.5
15758.1
15762.9
15767.5
15771.9
15775.8
15779.1
15781.4
15782.6
15782.7
15786.8
15786.6
15785.5
15783.5
15780.7
15777.3
15773.5
15769.5
15765.3
15761.3
15757.4
15753.8
15750.5
15747.8
15745.5
15743.9
15743
15742.9
15743.6
15745.2
15747.8
15751.4
15756
15761.7
15768.3
15776
15784.5
15793.8
15803.8
15814.2
15824.9
15835.5
15845.9
15855.8
15864.9
15872.9
15879.7
15885
15888.6
15890.5
15890.6
15888.8
15885.3
15880.1
15873.4
15865.4
15856.3
15846.4
15835.9
15825.1
15814.3
15803.7
15793.6
15784
15775.2
15767.3
15760.3
15754.4
15749.5
15745.7
15742.8
15741
15740
15740
15740.7
15742.2
15744.3
15747
15750.2
15753.8
15757.7
15761.8
15766
15770.1
15774
15777.5
15780.5
15782.6
15783.8
15784.1
15789.5
15789
15787.8
15785.7
15783
15779.8
15776.3
15772.6
15768.8
15765.1
15761.6
15758.3
15755.3
15752.8
15750.8
15749.4
15748.6
15748.5
15749.2
15750.7
15753
15756.2
15760.3
15765.3
15771.3
15778
15785.5
15793.6
15802.3
15811.3
15820.6
15829.8
15838.7
15847.2
15855
15861.9
15867.7
15872.2
15875.3
15876.9
15877
15875.5
15872.5
15868.1
15862.4
15855.5
15847.7
15839.2
15830.2
15820.8
15811.5
15802.2
15793.3
15785
15777.2
15770.2
15764
15758.7
15754.3
15750.9
15748.3
15746.6
15745.7
15745.6
15746.2
15747.5
15749.4
15751.9
15754.7
15758
15761.6
15765.3
15769.2
15773
15776.6
15779.9
15782.8
15784.9
15786.3
15786.9
15793.4
15792.5
15790.9
15788.6
15785.9
15782.7
15779.3
15775.8
15772.2
15768.8
15765.5
15762.4
15759.7
15757.4
15755.5
15754.1
15753.4
15753.2
15753.8
15755.1
15757.1
15760
15763.6
15768
15773.2
15779.1
15785.6
15792.8
15800.3
15808.2
15816.2
15824.2
15832
15839.3
15846.1
15852
15857
15860.9
15863.5
15864.9
15865
15863.7
15861.2
15857.4
15852.4
15846.5
15839.8
15832.4
15824.6
15816.4
15808.3
15800.2
15792.4
15785.1
15778.3
15772.1
15766.7
15762
15758.1
15755
15752.7
15751.2
15750.4
15750.4
15751
15752.2
15754
15756.3
15758.9
15762
15765.3
15768.8
15772.5
15776.1
15779.6
15782.9
15785.8
15788.1
15789.9
15790.9
15798.3
15796.8
15794.7
15792.1
15789.2
15786
15782.6
15779.1
15775.7
15772.3
15769.2
15766.2
15763.6
15761.4
15759.6
15758.3
15757.5
15757.3
15757.7
15758.7
15760.4
15762.9
15766
15769.8
15774.3
15779.4
15785.2
15791.4
15798
15804.8
15811.8
15818.8
15825.5
15831.9
15837.8
15842.9
15847.2
15850.6
15852.8
15854
15854.1
15853
15850.8
15847.5
15843.2
15838.1
15832.2
15825.8
15819
15811.9
15804.7
15797.7
15790.9
15784.5
15778.6
15773.2
15768.4
15764.4
15761
15758.3
15756.3
15755.1
15754.5
15754.5
15755.2
15756.4
15758.1
15760.3
15762.8
15765.7
15768.9
15772.3
15775.9
15779.4
15782.9
15786.3
15789.3
15792
15794.2
15795.9
15803.9
15801.7
15799
15796.1
15792.9
15789.4
15785.9
15782.5
15779
15775.7
15772.6
15769.8
15767.2
15765.1
15763.3
15761.9
15761
15760.6
15760.8
15761.6
15763
15765
15767.6
15770.8
15774.7
15779.1
15784.1
15789.4
15795.2
15801.2
15807.3
15813.4
15819.3
15824.9
15830
15834.5
15838.2
15841.1
15843.1
15844.1
15844.1
15843.2
15841.3
15838.4
15834.7
15830.2
15825.1
15819.4
15813.5
15807.2
15801
15794.8
15788.9
15783.3
15778.1
15773.5
15769.4
15765.9
15763
15760.8
15759.2
15758.2
15757.9
15758.1
15758.8
15760.1
15761.8
15763.9
15766.4
15769.2
15772.4
15775.7
15779.3
15782.9
15786.5
15790
15793.3
15796.4
15799.2
15801.5
15810
15807.2
15803.8
15800.4
15796.7
15793.1
15789.4
15785.8
15782.3
15778.9
15775.9
15773
15770.5
15768.3
15766.4
15765
15763.9
15763.4
15763.3
15763.8
15764.8
15766.3
15768.5
15771.1
15774.4
15778.1
15782.4
15787
15792
15797.3
15802.6
15808
15813.2
15818.2
15822.7
15826.6
15829.9
15832.4
15834.2
15835.1
15835.1
15834.3
15832.6
15830.1
15826.9
15822.9
15818.4
15813.4
15808
15802.5
15797
15791.6
15786.4
15781.5
15777
15773.1
15769.6
15766.7
15764.4
15762.6
15761.4
15760.7
15760.6
15761
15761.9
15763.3
15765
15767.2
15769.7
15772.5
15775.7
15779
15782.6
15786.3
15790.1
15793.9
15797.7
15801.3
15804.8
15807.7
15816.6
15813
15808.9
15804.8
15800.8
15796.7
15792.8
15789
15785.4
15782
15778.8
15775.9
15773.3
15771
15769.1
15767.5
15766.3
15765.5
15765.2
15765.3
15765.9
15767
15768.6
15770.8
15773.4
15776.6
15780.1
15784.2
15788.5
15793.1
15797.9
15802.7
15807.3
15811.8
15815.8
15819.4
15822.3
15824.5
15826
15826.8
15826.9
15826.2
15824.8
15822.6
15819.7
15816.2
15812.1
15807.6
15802.8
15797.8
15792.9
15788.1
15783.5
15779.3
15775.4
15772.1
15769.2
15766.9
15765
15763.7
15762.9
15762.6
15762.8
15763.5
15764.6
15766.1
15767.9
15770.2
15772.7
15775.6
15778.8
15782.3
15786
15789.9
15793.9
15798.1
15802.3
15806.5
15810.8
15814.5
15823.5
15819.1
15814.2
15809.4
15804.8
15800.3
15796
15792
15788.2
15784.7
15781.5
15778.5
15775.8
15773.4
15771.4
15769.6
15768.2
15767.1
15766.5
15766.2
15766.4
15767
15768.1
15769.7
15771.8
15774.4
15777.4
15780.8
15784.6
15788.7
15793
15797.3
15801.7
15805.7
15809.5
15812.7
15815.3
15817.3
15818.6
15819.3
15819.4
15818.9
15817.6
15815.8
15813.2
15810
15806.2
15802
15797.6
15793.1
15788.6
15784.4
15780.3
15776.6
15773.4
15770.6
15768.3
15766.5
15765.2
15764.3
15764
15764.1
15764.6
15765.5
15766.8
15768.5
15770.5
15772.9
15775.5
15778.5
15781.8
15785.3
15789.2
15793.3
15797.7
15802.3
15807.1
15812
15817.1
15821.6
15830.7
15825.4
15819.5
15813.9
15808.7
15803.7
15799.1
15794.8
15790.8
15787.2
15783.8
15780.8
15778
15775.4
15773.2
15771.2
15769.6
15768.2
15767.2
15766.5
15766.3
15766.4
15767
15768.1
15769.6
15771.6
15774.1
15777
15780.3
15784
15787.9
15792
15796.1
15800
15803.6
15806.6
15809
15810.7
15811.8
15812.4
15812.5
15812.1
15811.1
15809.5
15807.2
15804.2
15800.7
15796.7
15792.5
15788.3
15784.2
15780.3
15776.7
15773.6
15770.8
15768.6
15766.8
15765.6
15764.8
15764.5
15764.6
15765
15765.9
15767.2
15768.8
15770.7
15772.9
15775.3
15778.1
15781.2
15784.6
15788.3
15792.3
15796.7
15801.5
15806.6
15811.9
15817.6
15823.7
15829.1
15838.1
15831.7
15824.7
15818.3
15812.3
15806.8
15801.8
15797.2
15793.1
15789.3
15785.9
15782.7
15779.8
15777.1
15774.7
15772.5
15770.5
15768.8
15767.4
15766.3
15765.6
15765.2
15765.3
15765.8
15766.7
15768.2
15770.2
15772.6
15775.6
15778.9
15782.6
15786.6
15790.6
15794.5
15798.1
15801
15803.1
15804.6
15805.5
15806
15806
15805.8
15805
15803.7
15801.7
15798.9
15795.4
15791.4
15787.3
15783.2
15779.3
15775.8
15772.6
15770
15767.7
15766
15764.8
15764.1
15763.9
15764.1
15764.7
15765.6
15766.9
15768.5
15770.4
15772.5
15774.9
15777.6
15780.4
15783.6
15787.1
15790.9
15795.2
15799.8
15805
15810.6
15816.7
15823.2
15830.4
15836.9
15845.7
15838.1
15829.8
15822.3
15815.6
15809.5
15804.1
15799.3
15795
15791.1
15787.6
15784.3
15781.3
15778.5
15775.9
15773.4
15771.2
15769.1
15767.2
15765.7
15764.4
15763.5
15762.9
15762.9
15763.3
15764.2
15765.6
15767.7
15770.2
15773.4
15777
15781
15785.2
15789.3
15793
15795.9
15797.8
15798.8
15799.4
15799.7
15799.8
15799.7
15799.4
15798.5
15796.8
15794
15790.4
15786.1
15781.9
15777.7
15774
15770.7
15767.9
15765.6
15764
15762.8
15762.2
15762.1
15762.4
15763.2
15764.3
15765.8
15767.5
15769.5
15771.7
15774.1
15776.7
15779.5
15782.5
15785.8
15789.3
15793.3
15797.7
15802.6
15808.1
15814.3
15821.1
15828.7
15837.2
15844.9
15853.7
15844.4
15834.4
15825.8
15818.2
15811.6
15805.9
15800.9
15796.5
15792.6
15789
15785.7
15782.6
15779.7
15776.8
15774.1
15771.5
15769
15766.7
15764.6
15762.7
15761.2
15760.1
15759.4
15759.2
15759.5
15760.5
15762.1
15764.3
15767.3
15770.9
15775.1
15779.7
15784.4
15788.6
15791.6
15793.1
15793.6
15793.6
15793.6
15793.8
15794.1
15794.3
15794
15792.7
15789.9
15785.7
15781
15776.2
15771.9
15768
15764.9
15762.4
15760.6
15759.5
15758.9
15758.9
15759.4
15760.4
15761.8
15763.5
15765.5
15767.7
15770.1
15772.7
15775.4
15778.2
15781.2
15784.3
15787.6
15791.2
15795.2
15799.7
15804.8
15810.6
15817.3
15825
15833.8
15843.9
15853.2
15861.9
15850.4
15838.3
15828.3
15819.9
15812.8
15806.8
15801.8
15797.4
15793.6
15790.1
15786.8
15783.6
15780.6
15777.5
15774.5
15771.5
15768.6
15765.7
15763.1
15760.6
15758.4
15756.6
15755.2
15754.4
15754.1
15754.5
15755.7
15757.6
15760.5
15764.2
15768.8
15774.2
15780
15785.1
15788.5
15789.4
15789.1
15788.5
15788.1
15788.4
15789.1
15790.1
15790.7
15790
15786.9
15781.7
15775.8
15770.3
15765.4
15761.5
15758.5
15756.3
15754.9
15754.3
15754.3
15755
15756.2
15757.9
15759.9
15762.3
15764.9
15767.7
15770.5
15773.5
15776.5
15779.5
15782.6
15785.8
15789.1
15792.7
15796.6
15801
15806.2
15812.2
15819.4
15827.9
15838.1
15850.2
15861.8
15870.2
15855.7
15840.9
15829.3
15820.1
15812.7
15806.8
15801.9
15797.7
15794.1
15790.7
15787.5
15784.4
15781.2
15778
15774.6
15771.3
15767.9
15764.5
15761.1
15758
15755.1
15752.5
15750.4
15748.9
15748
15747.8
15748.5
15750.1
15752.8
15756.7
15761.9
15768.4
15775.9
15783
15787
15787
15785.2
15783.4
15782.2
15782.5
15784.2
15786.5
15788.7
15789.1
15785.4
15778.3
15770.6
15763.7
15758.3
15754.1
15751.2
15749.3
15748.4
15748.4
15749.1
15750.5
15752.5
15754.9
15757.7
15760.7
15764
15767.3
15770.7
15774
15777.3
15780.6
15783.7
15786.9
15790.1
15793.5
15797.3
15801.5
15806.5
15812.5
15820
15829.3
15841
15855.9
15870.5
15879.1
15860.5
15842
15828.6
15818.8
15811.4
15805.8
15801.3
15797.6
15794.3
15791.3
15788.2
15785.1
15781.9
15778.5
15774.8
15771
15767
15763
15758.9
15755
15751.2
15747.8
15744.9
15742.5
15740.9
15740.1
15740.2
15741.3
15743.8
15747.8
15753.8
15762.2
15773.2
15784.5
15789.7
15785.3
15777.8
15771.3
15767.6
15767.9
15772.2
15779.2
15787.3
15792.5
15787.8
15776.5
15765.1
15756.3
15749.9
15745.6
15742.8
15741.4
15741
15741.6
15743.1
15745.3
15748.1
15751.4
15755
15758.8
15762.8
15766.8
15770.8
15774.6
15778.2
15781.7
15784.9
15788
15791.1
15794.2
15797.6
15801.3
15805.9
15811.6
15819.1
15828.9
15842.4
15861
15879.7
15892.3
15865.7
15841.7
15826.6
15816.8
15810
15805.2
15801.6
15798.6
15795.8
15793.1
15790.3
15787.2
15783.7
15779.9
15775.7
15771.2
15766.4
15761.4
15756.2
15751.2
15746.2
15741.7
15737.6
15734.2
15731.5
15729.9
15729.2
15729.9
15732
15736.2
15743.2
15754.9
15774
15797.3
15805.2
15786.7
15763.3
15747.7
15740.1
15740.4
15748.5
15764.3
15788.3
15808.7
15802.1
15778.6
15758.6
15746.1
15738.6
15734.1
15731.6
15730.7
15731.1
15732.6
15735
15738.3
15742.2
15746.7
15751.5
15756.5
15761.6
15766.6
15771.4
15775.9
15780.1
15783.9
15787.3
15790.5
15793.3
15796.1
15798.9
15802
15805.7
15810.6
15817.4
15827.3
15842.4
15866.5
15893.2
15904.2
15859.7
15831.5
15817.5
15809.9
15805.3
15802.4
15800.4
15798.6
15796.8
15794.7
15792.3
15789.3
15785.8
15781.6
15776.9
15771.6
15765.9
15759.7
15753.3
15746.9
15740.6
15734.6
15729.2
15724.5
15720.7
15718
15716.5
15716.1
15717.3
15720.5
15727
15740.8
15770.5
15813.2
15830.5
15807.1
15793.9
15764.1
15714.1
15713
15764
15797.1
15809.3
15834.7
15819.4
15775.9
15744.6
15729.9
15722.9
15719.4
15717.9
15718
15719.3
15721.8
15725.5
15730.1
15735.4
15741.3
15747.5
15753.9
15760.2
15766.3
15772.1
15777.4
15782.1
15786.3
15789.8
15792.8
15795.3
15797.3
15799.2
15801
15803.1
15806.1
15810.7
15818.3
15832.3
15860.5
15905.2
15825.2
15784
15771.7
15769.3
15769.3
15770.3
15771.6
15772.7
15773.7
15774.3
15774.6
15774.4
15773.8
15772.6
15770.9
15768.7
15765.9
15762.7
15759
15755
15750.8
15746.5
15742.2
15738
15734.2
15730.7
15727.6
15723.1
15695.7
15632.7
15525.2
15360
15118.6
14768.3
14245
13129.7
11672.1
10130.8
8891.92
8254.3
8236.43
8848.64
10048.3
11596.6
13064.9
14202.5
14750.1
15107.1
15352.8
15521
15630.7
15695.1
15723.6
15728.4
15731.4
15734.8
15738.6
15742.7
15746.9
15751.2
15755.4
15759.5
15763.1
15766.4
15769.2
15771.4
15773.1
15774.3
15774.9
15775.1
15774.9
15774.2
15773.3
15772.1
15770.9
15770
15769.9
15772.3
15784.5
15825.9
311.953
472.708
594.805
696.389
779.719
850.279
912.252
968.593
1021.51
1072.66
1123.31
1174.36
1226.42
1279.81
1334.62
1390.67
1447.49
1504.34
1560.12
1613.37
1662.2
1704.19
1736.38
1755.04
1755.69
1732.91
1679.91
1590.41
1477.54
1341.04
1173.01
963.772
705.381
383.565
-0.0127257
47.3478
296.658
649.231
936.885
1042.18
1052.01
955.343
652.387
318.97
56.7816
-0.00446215
368.221
694.757
956.312
1168.3
1338.6
1476.97
1591.34
1682.43
1736.99
1760.94
1761.11
1743.01
1711.17
1669.36
1620.6
1567.32
1511.45
1454.45
1397.45
1341.2
1286.17
1232.55
1180.26
1128.97
1078.07
1026.66
973.479
916.848
854.55
783.616
699.841
597.714
474.979
313.42
-0.000508664
-0.000540773
-0.000574658
-0.000646711
-0.000739985
-0.000848529
-0.000965207
-0.00108478
-0.00120453
-0.00132225
-0.00143228
-0.00152579
-0.00159231
-0.00162914
-0.00164452
-0.00166281
-0.00171122
-0.00181195
-0.00197804
-0.00225602
-0.00276131
-0.00351832
-0.00506201
-0.00784531
-0.0124148
-0.0138243
-0.0117356
-0.00837659
-0.00790248
-0.0083206
0.00694538
0.0202371
0.0182002
0.00185012
-0.0132164
0.0150582
992.684
4279.23
6387.12
6432.06
6443.57
6438.76
4452.03
1109.55
0.0279781
0.00550844
0.0263839
0.0511203
0.060097
0.0231437
-0.0031982
-0.0056349
-0.00430535
-0.00479649
-0.00546842
-0.00446177
-0.00227553
0.00019497
0.0017213
0.00250521
0.00306131
0.00340324
0.00363867
0.00382016
0.00396798
0.00409661
0.00421245
0.00432228
0.00442829
0.0045342
0.00463943
0.00474109
0.00483354
0.00491238
0.00497446
0.00501817
0.00504313
0.00505338
0.00503688
0.00510945
-0.000612746
-0.000620171
-0.00069464
-0.000812565
-0.000959814
-0.00112239
-0.00129102
-0.00146012
-0.00162724
-0.00178966
-0.00194094
-0.0020706
-0.00216839
-0.002232
-0.00227336
-0.00231815
-0.00239634
-0.00252949
-0.00272406
-0.00297418
-0.00340503
-0.00419792
-0.00569551
-0.00780652
-0.00982318
-0.0109041
-0.0107351
-0.00853139
-0.00725302
-0.0078793
-0.00864447
0.0152846
0.0508879
0.0433008
-0.00418617
-0.0471984
484.896
5672.67
7385.76
7419.59
7420.87
7392.52
6093.81
612.841
-0.0371043
0.0129906
0.052758
0.0672824
0.0314347
-0.00256766
-0.00476857
-0.0041609
-0.00421994
-0.00579299
-0.00575172
-0.00410233
-0.00213861
-0.000276901
0.00111337
0.00194205
0.00243024
0.00273488
0.00296956
0.00315852
0.00331995
0.00346531
0.00360309
0.00373891
0.00387661
0.00401861
0.00416432
0.00430983
0.00444992
0.00458023
0.00469782
0.00480035
0.00488522
0.0049496
0.00499061
0.00500698
-0.000550002
-0.000580127
-0.00066068
-0.000792922
-0.00094514
-0.00110933
-0.00127787
-0.00144745
-0.00161685
-0.00178255
-0.00193524
-0.00206068
-0.00214646
-0.00219148
-0.00221118
-0.00223214
-0.00227782
-0.00235801
-0.00248209
-0.00271402
-0.00314996
-0.00401492
-0.00588076
-0.00901442
-0.0132786
-0.0136434
-0.0118929
-0.00978879
-0.00877189
-0.00907175
0.015957
0.0799349
0.365788
0.365713
0.227961
-0.0239349
-0.0490958
961.861
7588.19
7635.87
7637.06
7595.36
1274.01
-0.0620544
-0.0148655
0.165793
0.354567
0.357766
0.228122
0.0637171
-0.000296581
-0.0060421
-0.00597996
-0.00560615
-0.00556442
-0.00496629
-0.00322062
-0.000613967
0.00121367
0.00207144
0.00256616
0.00288944
0.00309571
0.00325124
0.00338579
0.00351218
0.00363709
0.00376483
0.00389868
0.00403961
0.00418498
0.00432976
0.00446888
0.00459876
0.00471697
0.00482124
0.00490888
0.00498108
0.00501882
0.0050371
-0.000563139
-0.000579235
-0.000660287
-0.000783747
-0.00093141
-0.00109188
-0.00125737
-0.00142535
-0.00159483
-0.00176101
-0.00191196
-0.00203115
-0.00210619
-0.00213924
-0.00215024
-0.00216724
-0.00220918
-0.00227663
-0.00236694
-0.00250686
-0.00273157
-0.00339943
-0.00528222
-0.00835437
-0.0113408
-0.0139537
-0.01377
-0.0125264
-0.0123213
-0.00640523
0.0619163
0.0676782
0.0478951
0.0176236
-0.0122908
-0.0123311
-0.0112593
127.755
5076.17
6273.15
6362.15
5442.03
226.018
-0.00200296
-0.00232251
0.00819591
0.0509314
0.14364
0.173797
0.164203
0.0357388
-0.0141572
-0.00922175
-0.00643455
-0.00654104
-0.00425097
-0.0013031
0.000766106
0.00193934
0.00244241
0.00273021
0.00296659
0.00315167
0.00330042
0.00342859
0.00354779
0.00366634
0.00378956
0.00392019
0.00405789
0.00419931
0.00433969
0.00447464
0.00460089
0.00471583
0.00481655
0.00489942
0.0049608
0.00499194
0.00499036
-0.000558108
-0.000586275
-0.000671335
-0.00079422
-0.000940156
-0.00109788
-0.001261
-0.00142804
-0.00159803
-0.00176466
-0.00191348
-0.00202595
-0.00208992
-0.00210992
-0.00210703
-0.00210377
-0.00210187
-0.00207429
-0.00199478
-0.00188389
-0.00180363
-0.00206115
-0.00364736
-0.00633041
-0.00642127
-0.00712742
-0.00686644
-0.00870492
-0.0172049
-0.0241184
-0.021851
-0.0113939
-0.00828763
-0.0105218
-0.00999966
-0.000663215
0.0133589
13.2754
0.0162232
0.07143
0.06928
0.0537348
12.983
-0.00831415
-0.000514489
0.0126455
0.0123833
0.0054637
-0.00834504
-0.0244011
-0.0326727
-0.0265437
0.00772674
0.0151286
0.016985
0.00515221
-0.000579882
0.00164024
0.0026791
0.00303136
0.00312286
0.00320436
0.00328768
0.00337404
0.00346597
0.00356447
0.00367127
0.00378768
0.00391366
0.00404723
0.00418459
0.00432122
0.00445302
0.00457654
0.00468856
0.0047858
0.0048651
0.00492291
0.00495375
0.00495958
-0.000579595
-0.000610479
-0.000696422
-0.000818521
-0.000962969
-0.00111838
-0.00127954
-0.00144595
-0.0016166
-0.00178373
-0.00193065
-0.00203741
-0.00209274
-0.00210368
-0.00209204
-0.00207505
-0.0020432
-0.00195741
-0.00178208
-0.00153727
-0.0012297
-0.00101058
-0.00240586
-0.0035651
-0.00493784
-0.00639216
-0.0107141
-0.0144653
-0.021198
-0.0264722
-0.025924
-0.0231108
-0.0225991
-0.0232447
-0.0192076
-0.00996909
0.145119
0.310514
0.0628475
0.0730399
0.0666201
0.069029
0.0382156
-0.0171272
-0.00386356
0.00801996
0.00504594
-0.00578684
-0.0208467
-0.028297
-0.0238197
-0.00816339
-0.000743406
-0.00333106
0.00876187
0.0030928
-0.000510232
0.0020983
0.00301558
0.00318547
0.0032387
0.00328481
0.00333215
0.00339057
0.00346243
0.0035479
0.00364646
0.00375719
0.00387865
0.00400821
0.00414199
0.00427567
0.00440525
0.00452711
0.00463751
0.00473259
0.00480956
0.00486535
0.00489591
0.00490123
-0.000617625
-0.000649191
-0.000735262
-0.000857201
-0.00100031
-0.00115379
-0.00131344
-0.00147967
-0.00165147
-0.00181984
-0.00196624
-0.00206988
-0.00212099
-0.00212954
-0.00211847
-0.00210131
-0.00206093
-0.0019522
-0.00173541
-0.00142973
-0.00106203
-0.000666537
-0.00168502
-0.00365886
-0.00681805
-0.0126738
-0.0265027
-0.0383771
-0.0435586
-0.0413699
-0.0356364
-0.0286119
-0.0276539
-0.0323088
-0.0418486
-0.0500357
-0.0352655
0.0671924
0.082471
0.0706749
0.0636412
0.048879
0.0248858
0.00364825
0.000616567
-0.000654357
-0.00665311
-0.0157516
-0.0263964
-0.0339506
-0.0364325
-0.0321606
-0.0190745
-0.0088802
-0.00221099
-0.00037018
-0.000354875
0.00194278
0.00296313
0.00313146
0.00320089
0.00324685
0.00328961
0.00334388
0.00341198
0.00349411
0.00358955
0.00369732
0.00381597
0.00394289
0.0040743
0.00420593
0.00433381
0.00445443
0.00456404
0.00465816
0.00473378
0.00478828
0.00481856
0.00482336
-0.000668912
-0.000700244
-0.000786797
-0.000908867
-0.00105092
-0.00120285
-0.00136142
-0.00152801
-0.0017018
-0.00187283
-0.00202114
-0.00212561
-0.00217825
-0.00219211
-0.00219188
-0.0021898
-0.00216619
-0.00207758
-0.00189474
-0.00165036
-0.00143488
-0.00131881
-0.00203704
-0.00540289
-0.0105423
-0.021319
-0.0368156
-0.0517149
-0.0567337
-0.051043
-0.0408092
-0.0315059
-0.0262316
-0.0244215
-0.0256012
-0.025766
-0.0109303
0.0223046
0.050136
0.0555077
0.0465019
0.0312309
0.0166695
0.00294998
-0.00620526
-0.0102927
-0.0130834
-0.0188749
-0.0297579
-0.0430952
-0.0521196
-0.049915
-0.0334827
-0.0158226
-0.00778316
-0.00375512
-0.000881367
0.00155266
0.00255735
0.00285456
0.00300984
0.00310032
0.00317009
0.00324013
0.00331726
0.00340411
0.0035016
0.00361004
0.00372869
0.00385527
0.00398614
0.00411704
0.00424389
0.00436319
0.00447163
0.00456506
0.00463993
0.00469369
0.00472394
0.00472921
-0.000727173
-0.0007584
-0.000845858
-0.000967801
-0.00110885
-0.00125928
-0.00141682
-0.001584
-0.0017604
-0.00193546
-0.00208828
-0.00219784
-0.00225799
-0.00228464
-0.00230467
-0.00233125
-0.00234696
-0.00231599
-0.00222519
-0.00212906
-0.00216021
-0.00251795
-0.00367428
-0.00735012
-0.0150201
-0.0257123
-0.0392812
-0.0542857
-0.0597523
-0.053429
-0.0421021
-0.0317691
-0.026994
-0.0269206
-0.0272472
-0.0227109
-0.00988595
0.00709394
0.0228668
0.0308956
0.0273129
0.0164557
0.00675299
-0.00153486
-0.00748541
-0.0102676
-0.0124199
-0.0191475
-0.0310067
-0.0454546
-0.0564152
-0.055954
-0.0398125
-0.0206308
-0.0103454
-0.00569443
-0.00169261
0.000877306
0.0019469
0.00243634
0.00270612
0.0028706
0.0029888
0.00308904
0.00318481
0.00328288
0.00338716
0.00349985
0.00362118
0.00374932
0.0038809
0.00401191
0.00413839
0.00425684
0.00436405
0.00445658
0.0045309
0.00458434
0.00461479
0.00462081
-0.000790136
-0.000821976
-0.00091001
-0.00103153
-0.00117134
-0.00131992
-0.00147611
-0.00164368
-0.00182287
-0.00200291
-0.0021624
-0.00228053
-0.00235272
-0.0023973
-0.00244378
-0.00250802
-0.00257683
-0.00262327
-0.00264685
-0.00271453
-0.00297732
-0.00364902
-0.00521093
-0.00860944
-0.0148709
-0.0234525
-0.0341348
-0.0454525
-0.0500026
-0.0461363
-0.0374156
-0.0294965
-0.0250947
-0.024388
-0.026506
-0.0255567
-0.0196089
-0.00874891
0.00408121
0.0137748
0.0155726
0.010444
0.00457916
-0.00067391
-0.00505673
-0.00830649
-0.0116676
-0.0174887
-0.0268759
-0.0385724
-0.0472655
-0.0470158
-0.0350775
-0.0201381
-0.0109299
-0.00587489
-0.00206851
0.000213857
0.00135961
0.00198599
0.00235763
0.00259781
0.00276888
0.00290466
0.00302378
0.00313721
0.00325187
0.00337172
0.00349789
0.00362901
0.00376214
0.00389362
0.00401992
0.00413782
0.0042441
0.00433578
0.00440963
0.00446294
0.00449368
0.00450047
-0.000858015
-0.000890933
-0.000979045
-0.00110007
-0.00123836
-0.00138475
-0.00153924
-0.00170687
-0.00188879
-0.00207446
-0.00224237
-0.00237185
-0.00245905
-0.00252373
-0.00259785
-0.00270138
-0.00282641
-0.00295261
-0.00308408
-0.00328386
-0.00369889
-0.00447527
-0.00602212
-0.00874342
-0.0131046
-0.0189372
-0.0258042
-0.0326608
-0.0360888
-0.0351181
-0.0308753
-0.0260827
-0.0228838
-0.0221898
-0.0231731
-0.0231523
-0.0201953
-0.0133364
-0.00355472
0.00525844
0.0103067
0.00957927
0.00589187
0.00191653
-0.00204376
-0.00570286
-0.00947235
-0.0141748
-0.0204086
-0.0272877
-0.0316608
-0.0305632
-0.0238303
-0.015403
-0.00917137
-0.00495478
-0.00200912
-0.0001721
0.000915553
0.00159171
0.00202421
0.00232039
0.00253552
0.00270363
0.00284585
0.00297589
0.0031027
0.00323134
0.00336345
0.00349815
0.00363306
0.00376509
0.00389122
0.00400863
0.00411424
0.00420522
0.00427863
0.00433183
0.00436282
0.00437031
-0.000930565
-0.000964242
-0.00105226
-0.00117259
-0.00130902
-0.00145287
-0.00160518
-0.00177229
-0.0019565
-0.00214797
-0.00232544
-0.00246809
-0.00257172
-0.00265593
-0.00275434
-0.00289118
-0.0030646
-0.00325984
-0.00347955
-0.00377219
-0.00424528
-0.00504336
-0.00637111
-0.00840237
-0.0113133
-0.0150472
-0.0192354
-0.0232632
-0.0257785
-0.0261266
-0.0245732
-0.0222469
-0.0203128
-0.0191796
-0.0187604
-0.0182405
-0.0157822
-0.0106877
-0.00351806
0.00340221
0.00891766
0.0105388
0.00778765
0.00416481
0.000194859
-0.00345567
-0.00684375
-0.0103389
-0.0141654
-0.0176781
-0.0193676
-0.0181409
-0.0145166
-0.0101964
-0.00656772
-0.00378886
-0.00175918
-0.00034024
0.000628705
0.00128758
0.00173716
0.00206419
0.00230823
0.00250064
0.00266236
0.00280783
0.00294663
0.0030841
0.00322212
0.00336024
0.00349669
0.00362909
0.00375494
0.00387179
0.00397676
0.00406709
0.00413999
0.00419298
0.00422413
0.00423221
-0.00100594
-0.00103979
-0.00112756
-0.00124668
-0.00138078
-0.00152158
-0.00167098
-0.00183654
-0.00202195
-0.00221862
-0.00240595
-0.00256278
-0.00268338
-0.00278499
-0.00290226
-0.00306217
-0.00326749
-0.00351321
-0.00379621
-0.00415039
-0.00464494
-0.00537974
-0.00647654
-0.00802243
-0.0100786
-0.012574
-0.0152896
-0.0178543
-0.0196269
-0.020125
-0.0195706
-0.0183778
-0.0170032
-0.015676
-0.0143435
-0.0126456
-0.010043
-0.00601287
-0.000714185
0.0044415
0.0087946
0.011186
0.00888677
0.00553897
0.00186029
-0.00143781
-0.0043451
-0.00703385
-0.00954193
-0.0114852
-0.0122355
-0.0114655
-0.0094079
-0.00697902
-0.00477061
-0.00293881
-0.00148469
-0.000371629
0.000456191
0.00106359
0.00150878
0.00184268
0.00209982
0.00230716
0.00248302
0.00264091
0.00278984
0.00293479
0.00307762
0.00321831
0.00335571
0.00348807
0.00361339
0.00372947
0.00383366
0.00392322
0.0039955
0.00404814
0.00407933
0.0040879
-0.00108167
-0.00111544
-0.00120246
-0.00131969
-0.00145086
-0.00158798
-0.00173351
-0.00189612
-0.00208104
-0.0022814
-0.00247798
-0.00264917
-0.00278728
-0.0029027
-0.00303433
-0.0032062
-0.00343091
-0.0037047
-0.00402301
-0.00440582
-0.00489651
-0.00555083
-0.00644061
-0.00762733
-0.00912946
-0.0108683
-0.0126931
-0.014364
-0.0155415
-0.015952
-0.0156768
-0.0149049
-0.0138094
-0.0124836
-0.010866
-0.00879889
-0.0060627
-0.002478
0.00170862
0.00562599
0.00866798
0.011104
0.00917759
0.00617212
0.00294542
0.000136036
-0.00226178
-0.00436282
-0.00616586
-0.00745728
-0.00797769
-0.00762359
-0.00651022
-0.00506296
-0.00361288
-0.00231197
-0.00121324
-0.000324609
0.000372505
0.000914004
0.00133207
0.00165827
0.00191781
0.00213134
0.00231517
0.00248126
0.00263715
0.00278714
0.00293293
0.00307488
0.00321237
0.00334415
0.00346857
0.0035836
0.00368674
0.00377533
0.00384681
0.00389894
0.00393004
0.00393906
-0.00115624
-0.00118996
-0.00127535
-0.00138988
-0.00151743
-0.0016501
-0.00179074
-0.00194879
-0.00213105
-0.00233248
-0.00253657
-0.00272076
-0.00287411
-0.0030061
-0.003146
-0.00332179
-0.0035502
-0.00383388
-0.0041685
-0.00455944
-0.00503011
-0.00560738
-0.00632511
-0.0072235
-0.00830952
-0.00951463
-0.0107265
-0.011799
-0.0125594
-0.0128458
-0.0126345
-0.0120134
-0.0110572
-0.00979211
-0.00817264
-0.00611312
-0.00351666
-0.000361105
0.00309933
0.006155
0.00840752
0.0101443
0.00883225
0.00622726
0.00356081
0.00125482
-0.000691981
-0.00236019
-0.00374707
-0.00472782
-0.00517448
-0.00505887
-0.00447308
-0.00361479
-0.00266633
-0.00174748
-0.000924322
-0.00022271
0.000356177
0.000826244
0.00120498
0.00151156
0.00176355
0.00197653
0.00216311
0.00233273
0.00249174
0.00264386
0.00279034
0.0029321
0.00306874
0.00319932
0.0033224
0.00343602
0.00353778
0.00362509
0.00369552
0.00374698
0.00377789
0.00378729
-0.00122937
-0.0012629
-0.0013456
-0.00145655
-0.00157955
-0.00170704
-0.00184184
-0.00199376
-0.00217098
-0.00237126
-0.00257963
-0.00277484
-0.00294298
-0.00308828
-0.0032333
-0.00340501
-0.0036222
-0.0038939
-0.00422211
-0.00460441
-0.0050455
-0.00555201
-0.00613178
-0.00680575
-0.00758027
-0.00840594
-0.00919959
-0.00986955
-0.0103226
-0.0104616
-0.01023
-0.00966035
-0.00878657
-0.00761595
-0.00611953
-0.00424584
-0.00194115
0.000776436
0.00366975
0.0061306
0.0078326
0.00880634
0.00815943
0.00587235
0.00379801
0.00196584
0.000406021
-0.000934223
-0.00204493
-0.00284511
-0.00326749
-0.00330496
-0.00300997
-0.00249849
-0.00188087
-0.00124053
-0.000632513
-8.66139e-05
0.000385745
0.000785316
0.00111968
0.00139974
0.00163734
0.00184351
0.00202753
0.00219656
0.00235534
0.00250682
0.00265165
0.00279196
0.0029268
0.00305553
0.00317674
0.0032885
0.00338845
0.00347414
0.00354325
0.00359382
0.00362442
0.00363419
-0.0013012
-0.0013339
-0.00141339
-0.00151929
-0.00163661
-0.00175829
-0.00188684
-0.00203168
-0.00220178
-0.00239736
-0.0026065
-0.00280981
-0.00299164
-0.00315038
-0.00330075
-0.0034649
-0.00366085
-0.00390146
-0.0041969
-0.00454721
-0.00494609
-0.00538566
-0.0058569
-0.00636488
-0.00691583
-0.0074785
-0.00798864
-0.00838238
-0.00861304
-0.00860797
-0.00833035
-0.00777865
-0.00696614
-0.00589893
-0.00456549
-0.00293548
-0.000970166
0.00131523
0.00372457
0.00573873
0.00705651
0.00753622
0.00714204
0.00526405
0.00375292
0.0023396
0.00110397
2.16845e-05
-0.000885314
-0.00155645
-0.00195248
-0.00207478
-0.00195345
-0.00165619
-0.00125445
-0.000807625
-0.000359353
6.2429e-05
0.000442868
0.00077699
0.00106651
0.00131711
0.00153618
0.00173108
0.00190829
0.00207283
0.00222814
0.00237641
0.00251881
0.00265619
0.00278834
0.00291454
0.00303328
0.00314262
0.0032403
0.00332398
0.00339148
0.003441
0.00347115
0.00348129
-0.00137187
-0.00140339
-0.00147812
-0.00157722
-0.00168768
-0.0018032
-0.00192557
-0.00206299
-0.00222435
-0.00241187
-0.00261711
-0.0028238
-0.00301647
-0.00318944
-0.00334997
-0.0035124
-0.00368969
-0.00389401
-0.00414088
-0.00443869
-0.00478093
-0.0051523
-0.00553361
-0.0059167
-0.0063049
-0.00668115
-0.00699665
-0.00720026
-0.00726441
-0.00715037
-0.00682642
-0.00628302
-0.00552601
-0.00456475
-0.0034011
-0.00201775
-0.000380767
0.00150785
0.00349666
0.00515339
0.0061725
0.00633987
0.00596307
0.0045959
0.00353085
0.00246457
0.00149475
0.000623786
-0.000117856
-0.000682195
-0.0010428
-0.00120204
-0.00117858
-0.00101402
-0.000754832
-0.000443315