/*--------------------------------*- C++ -*----------------------------------*\
| =========                 |                                                 |
| \\      /  F ield         | OpenFOAM: The Open Source CFD Toolbox           |
|  \\    /   O peration     | Version:  2412                                  |
|   \\  /    A nd           | Website:  www.openfoam.com                      |
|    \\/     M anipulation  |                                                 |
\*---------------------------------------------------------------------------*/
FoamFile
{
    version     2.0;
    format      ascii;
    arch        "LSB;label=32;scalar=64";
    class       surfaceScalarField;
    location    "8.35";
    object      phi;
}
// * * * * * * * * * * * * * * * * * * * * * * * * * * * * * * * * * * * * * //

dimensions      [0 3 -1 0 0 0 0];

oriented        oriented;

internalField   nonuniform List<scalar> 
12640
(
5.23769e-09
-5.38206e-09
1.47629e-08
-1.01106e-08
2.37724e-08
-9.57703e-09
2.8815e-08
-5.60832e-09
2.80473e-08
2.02056e-10
2.0616e-08
6.88329e-09
6.28468e-09
1.38153e-08
-1.48213e-08
2.06326e-08
-4.2379e-08
2.71254e-08
-7.59609e-08
3.31927e-08
-1.15092e-07
3.87955e-08
-1.5931e-07
4.39476e-08
-2.08181e-07
4.8665e-08
-2.61302e-07
5.2974e-08
-3.18258e-07
5.68592e-08
-3.78618e-07
6.03077e-08
-4.41869e-07
6.32388e-08
-5.07417e-07
6.55809e-08
-5.74509e-07
6.71677e-08
-6.42257e-07
6.78706e-08
-7.09548e-07
6.74514e-08
-7.75119e-07
6.57642e-08
-8.37436e-07
6.25386e-08
-8.94842e-07
5.76676e-08
-9.45424e-07
5.08995e-08
-9.87261e-07
4.22351e-08
-1.01827e-06
3.15054e-08
-1.03656e-06
1.88941e-08
-1.0402e-06
4.37739e-09
-1.02769e-06
-1.16238e-08
-9.97714e-07
-2.89553e-08
-9.49581e-07
-4.69551e-08
-8.82945e-07
-6.5313e-08
-7.98287e-07
-8.31922e-08
-6.96497e-07
-1.0021e-07
-5.79332e-07
-1.15485e-07
-4.48907e-07
-1.28685e-07
-3.08091e-07
-1.39041e-07
-1.5994e-07
-1.46382e-07
-8.02414e-09
-1.50179e-07
1.44138e-07
-1.50497e-07
2.92827e-07
-1.47116e-07
4.34631e-07
-1.40354e-07
5.66262e-07
-1.30315e-07
6.84969e-07
-1.17538e-07
7.88405e-07
-1.02408e-07
8.74896e-07
-8.56065e-08
9.43339e-07
-6.76839e-08
9.93315e-07
-4.93316e-08
1.025e-06
-3.11231e-08
1.03913e-06
-1.36412e-08
1.03693e-06
2.65059e-09
1.01993e-06
1.7386e-08
9.89973e-07
3.03042e-08
9.49002e-07
4.12724e-08
8.99057e-07
5.02185e-08
8.42113e-07
5.71932e-08
7.80054e-07
6.22773e-08
7.14576e-07
6.56565e-08
6.47211e-07
6.75082e-08
5.79276e-07
6.80625e-08
5.11906e-07
6.74993e-08
4.46019e-07
6.60151e-08
3.82372e-07
6.37512e-08
3.21564e-07
6.08533e-08
2.64116e-07
5.74154e-08
2.10483e-07
5.35204e-08
1.61107e-07
4.91985e-08
1.16418e-07
4.44612e-08
7.68668e-08
3.9282e-08
4.29205e-08
3.36368e-08
1.50616e-08
2.7511e-08
-6.26165e-09
2.09438e-08
-2.07111e-08
1.40459e-08
-2.81806e-08
7.04242e-09
-2.89456e-08
3.2081e-10
-2.38929e-08
-5.49128e-09
-1.49182e-08
-9.46785e-09
-5.35849e-09
-1.01576e-08
-5.64109e-09
9.66124e-09
-1.56947e-08
2.4858e-08
-2.64038e-08
3.60272e-08
-2.18358e-08
3.6701e-08
-7.32156e-09
2.28701e-08
1.30463e-08
-7.57834e-09
3.64111e-08
-5.54316e-08
6.08355e-08
-1.20599e-07
8.50608e-08
-2.02458e-07
1.08331e-07
-3.0006e-07
1.3023e-07
-4.12304e-07
1.50585e-07
-5.38029e-07
1.69343e-07
-6.76098e-07
1.86528e-07
-8.25351e-07
2.02131e-07
-9.846e-07
2.16118e-07
-1.15251e-06
2.28326e-07
-1.32758e-06
2.38531e-07
-1.50801e-06
2.46328e-07
-1.69167e-06
2.51261e-07
-1.87593e-06
2.52676e-07
-2.05775e-06
2.49951e-07
-2.23349e-06
2.42288e-07
-2.39911e-06
2.29056e-07
-2.54992e-06
2.09494e-07
-2.68106e-06
1.83181e-07
-2.78718e-06
1.49618e-07
-2.86314e-06
1.08851e-07
-2.90362e-06
6.08911e-08
-2.9041e-06
6.47971e-09
-2.86032e-06
-5.36821e-08
-2.76942e-06
-1.18054e-07
-2.62929e-06
-1.85227e-07
-2.43972e-06
-2.52969e-07
-2.20161e-06
-3.19372e-07
-1.91801e-06
-3.81853e-07
-1.59315e-06
-4.38422e-07
-1.23327e-06
-4.86654e-07
-8.45488e-07
-5.24956e-07
-4.38476e-07
-5.51555e-07
-2.12302e-08
-5.65635e-07
3.96445e-07
-5.66407e-07
8.0508e-07
-5.54026e-07
1.19525e-06
-5.28809e-07
1.5585e-06
-4.91884e-07
1.88723e-06
-4.44594e-07
2.17534e-06
-3.88849e-07
2.41812e-06
-3.26726e-07
2.61262e-06
-2.60527e-07
2.7575e-06
-1.9257e-07
2.85304e-06
-1.2505e-07
2.90103e-06
-6.00308e-08
2.90445e-06
8.14228e-10
2.86731e-06
5.60626e-08
2.79422e-06
1.04822e-07
2.69037e-06
1.4645e-07
2.56099e-06
1.80797e-07
2.41139e-06
2.07874e-07
2.24654e-06
2.28085e-07
2.07111e-06
2.41904e-07
1.88924e-06
2.50058e-07
1.70461e-06
2.53222e-07
1.52032e-06
2.52162e-07
1.33907e-06
2.4751e-07
1.16301e-06
2.39894e-07
9.94008e-07
2.2979e-07
8.33586e-07
2.17614e-07
6.83123e-07
2.03621e-07
5.4386e-07
1.87982e-07
4.17002e-07
1.70735e-07
3.03723e-07
1.51877e-07
2.05207e-07
1.31376e-07
1.22581e-07
1.09283e-07
5.68271e-08
8.57852e-08
8.57775e-09
6.13246e-08
-2.21193e-08
3.66997e-08
-3.61301e-08
1.32369e-08
-3.56609e-08
-7.06523e-09
-2.4826e-08
-2.14257e-08
-9.9075e-09
-2.60698e-08
-1.57391e-08
9.18457e-09
-2.55985e-08
2.05955e-08
-3.89745e-08
2.29701e-08
-2.53576e-08
8.63952e-09
5.92222e-09
-2.73377e-08
4.80028e-08
-8.77218e-08
9.58494e-08
-1.73611e-07
1.4587e-07
-2.84953e-07
1.95644e-07
-4.20924e-07
2.43636e-07
-5.80233e-07
2.88976e-07
-7.61305e-07
3.3122e-07
-9.62467e-07
3.70206e-07
-1.18197e-06
4.05866e-07
-1.41804e-06
4.38157e-07
-1.66874e-06
4.66885e-07
-1.93196e-06
4.91732e-07
-2.20521e-06
5.12093e-07
-2.48566e-06
5.27202e-07
-2.7698e-06
5.35954e-07
-3.0536e-06
5.37157e-07
-3.33215e-06
5.29312e-07
-3.59994e-06
5.11026e-07
-3.85052e-06
4.80711e-07
-4.07699e-06
4.37166e-07
-4.27165e-06
3.79147e-07
-4.42675e-06
3.06144e-07
-4.53415e-06
2.17773e-07
-4.58637e-06
1.14727e-07
-4.57615e-06
-2.06295e-09
-4.49777e-06
-1.30342e-07
-4.34642e-06
-2.67647e-07
-4.11973e-06
-4.10148e-07
-3.81689e-06
-5.54046e-07
-3.44011e-06
-6.94406e-07
-2.99349e-06
-8.26767e-07
-2.48422e-06
-9.46006e-07
-1.92123e-06
-1.048e-06
-1.31605e-06
-1.1285e-06
-6.813e-07
-1.18469e-06
-3.12417e-08
-1.21406e-06
6.19697e-07
-1.21569e-06
1.25667e-06
-1.18931e-06
1.86568e-06
-1.13607e-06
2.43355e-06
-1.05796e-06
2.94887e-06
-9.58058e-07
3.40212e-06
-8.40189e-07
3.78614e-06
-7.08768e-07
4.09625e-06
-5.68631e-07
4.33025e-06
-4.24545e-07
4.48847e-06
-2.81265e-07
4.57332e-06
-1.42896e-07
4.58928e-06
-1.31937e-08
4.54213e-06
1.05107e-07
4.43896e-06
2.09796e-07
4.28731e-06
2.99762e-07
4.09524e-06
3.74356e-07
3.87062e-06
4.33837e-07
3.62116e-06
4.78734e-07
3.35388e-06
5.10213e-07
3.07528e-06
5.29504e-07
2.79095e-06
5.38173e-07
2.50588e-06
5.37637e-07
2.22419e-06
5.29383e-07
1.94945e-06
5.14619e-07
1.6846e-06
4.94465e-07
1.43216e-06
4.69715e-07
1.19431e-06
4.41002e-07
9.73035e-07
4.08656e-07
7.70164e-07
3.72871e-07
5.87496e-07
3.33683e-07
4.26746e-07
2.91153e-07
2.89532e-07
2.45446e-07
1.77179e-07
1.97033e-07
9.05106e-08
1.46831e-07
2.95255e-08
9.64551e-08
-6.96789e-09
4.84555e-08
-2.18472e-08
6.54196e-09
-2.0168e-08
-2.43928e-08
-9.38399e-09
-3.80173e-08
-2.53137e-08
5.51579e-09
-3.17745e-08
6.91957e-09
-4.14869e-08
-6.91324e-09
-1.26217e-08
-4.37645e-08
4.17332e-08
-1.0867e-07
1.11931e-07
-2.04437e-07
1.90708e-07
-3.32125e-07
2.72738e-07
-4.91521e-07
3.54314e-07
-6.81562e-07
4.33048e-07
-9.00615e-07
5.07506e-07
-1.14674e-06
5.76945e-07
-1.41779e-06
6.41002e-07
-1.71157e-06
6.99528e-07
-2.02573e-06
7.52315e-07
-2.35775e-06
7.99037e-07
-2.70478e-06
8.39012e-07
-3.06359e-06
8.71286e-07
-3.43029e-06
8.94411e-07
-3.80038e-06
9.0669e-07
-4.16839e-06
9.05936e-07
-4.52808e-06
8.89914e-07
-4.87205e-06
8.56043e-07
-5.19223e-06
8.02062e-07
-5.4794e-06
7.25617e-07
-5.72405e-06
6.25172e-07
-5.91586e-06
4.99404e-07
-6.04491e-06
3.48353e-07
-6.10115e-06
1.72555e-07
-6.07596e-06
-2.56265e-08
-5.96144e-06
-2.43209e-07
-5.75227e-06
-4.75158e-07
-5.44478e-06
-7.15996e-07
-5.03883e-06
-9.58368e-07
-4.5366e-06
-1.19503e-06
-3.94429e-06
-1.41749e-06
-3.2705e-06
-1.61821e-06
-2.52761e-06
-1.78931e-06
-1.72984e-06
-1.92468e-06
-8.94174e-07
-2.01872e-06
-3.84714e-08
-2.06808e-06
8.18135e-07
-2.07055e-06
1.65688e-06
-2.02622e-06
2.45935e-06
-1.93662e-06
3.20873e-06
-1.80532e-06
3.89009e-06
-1.63733e-06
4.49109e-06
-1.43902e-06
5.00241e-06
-1.21787e-06
5.41782e-06
-9.81761e-07
5.73452e-06
-7.38956e-07
5.95256e-06
-4.97057e-07
6.07518e-06
-2.63326e-07
6.10771e-06
-4.35971e-08
6.05779e-06
1.57084e-07
5.93411e-06
3.35439e-07
5.7466e-06
4.89099e-07
5.50523e-06
6.17355e-07
5.22032e-06
7.20176e-07
4.90152e-06
7.98767e-07
4.55813e-06
8.54657e-07
4.19833e-06
8.90143e-07
3.8296e-06
9.07506e-07
3.45827e-06
9.09327e-07
3.08994e-06
8.97868e-07
2.7292e-06
8.75331e-07
2.38005e-06
8.43443e-07
2.04578e-06
8.03679e-07
1.72933e-06
7.5702e-07
1.43323e-06
7.04166e-07
1.15993e-06
6.45447e-07
9.11662e-07
5.81072e-07
6.9064e-07
5.11187e-07
4.98857e-07
4.36171e-07
3.37982e-07
3.56803e-07
2.09066e-07
2.74592e-07
1.12277e-07
1.92051e-07
4.64725e-08
1.13063e-07
8.72606e-09
4.30995e-08
-6.11197e-09
-1.07826e-08
-5.57801e-09
-3.96936e-08
-3.10931e-08
9.94779e-11
-3.24871e-08
-1.24668e-08
-2.99775e-08
-4.75642e-08
2.14144e-08
-1.12255e-07
1.05414e-07
-2.11033e-07
2.09764e-07
-3.46254e-07
3.25053e-07
-5.18549e-07
4.44247e-07
-7.27314e-07
5.62397e-07
-9.71083e-07
6.76238e-07
-1.24786e-06
7.83818e-07
-1.55531e-06
8.84054e-07
-1.89094e-06
9.76434e-07
-2.25208e-06
1.06063e-06
-2.63601e-06
1.13634e-06
-3.03966e-06
1.20292e-06
-3.45967e-06
1.2594e-06
-3.89207e-06
1.3042e-06
-4.3323e-06
1.33531e-06
-4.77481e-06
1.35001e-06
-5.21323e-06
1.34531e-06
-5.63991e-06
1.31767e-06
-6.04632e-06
1.26367e-06
-6.42255e-06
1.17962e-06
-6.75811e-06
1.06261e-06
-7.0413e-06
9.09866e-07
-7.26048e-06
7.20157e-07
-7.40338e-06
4.92879e-07
-7.45883e-06
2.29669e-07
-7.41593e-06
-6.68414e-08
-7.26618e-06
-3.91265e-07
-7.00246e-06
-7.37199e-07
-6.62136e-06
-1.09544e-06
-6.12184e-06
-1.45626e-06
-5.50751e-06
-1.80775e-06
-4.78488e-06
-2.13853e-06
-3.96524e-06
-2.43625e-06
-3.06253e-06
-2.69042e-06
-2.09463e-06
-2.89094e-06
-1.08112e-06
-3.03056e-06
-4.39708e-08
-3.10352e-06
9.94495e-07
-3.10725e-06
2.01145e-06
-3.04135e-06
2.98517e-06
-2.90845e-06
3.89539e-06
-2.71357e-06
4.72424e-06
-2.46415e-06
5.45699e-06
-2.16969e-06
6.08226e-06
-1.841e-06
6.5928e-06
-1.49011e-06
6.98488e-06
-1.12881e-06
7.25891e-06
-7.68893e-07
7.41823e-06
-4.20514e-07
7.46958e-06
-9.28918e-08
7.42151e-06
2.0716e-07
7.28474e-06
4.74157e-07
7.07052e-06
7.05164e-07
6.79106e-06
8.985e-07
6.45809e-06
1.05461e-06
6.08337e-06
1.17473e-06
5.67754e-06
1.26152e-06
5.25063e-06
1.31788e-06
4.81127e-06
1.34748e-06
4.36724e-06
1.35376e-06
3.92502e-06
1.3403e-06
3.4903e-06
1.31011e-06
3.06773e-06
1.26593e-06
2.66139e-06
1.2098e-06
2.27469e-06
1.14335e-06
1.91076e-06
1.06758e-06
1.57238e-06
9.83123e-07
1.2623e-06
8.90305e-07
9.83057e-07
7.89459e-07
7.3708e-07
6.81116e-07
5.2639e-07
5.66416e-07
3.52441e-07
4.47412e-07
2.15792e-07
3.27535e-07
1.15751e-07
2.11958e-07
4.98612e-08
1.07876e-07
1.35323e-08
2.44039e-08
-5.31579e-11
-2.717e-08
-3.13263e-08
-6.21195e-09
-2.68521e-08
-3.51267e-08
-2.08259e-09
-9.48085e-08
8.00629e-08
-1.91012e-07
2.00639e-07
-3.27172e-07
3.45017e-07
-5.04727e-07
5.01778e-07
-7.23532e-07
6.62322e-07
-9.82297e-07
8.20548e-07
-1.27901e-06
9.72455e-07
-1.61119e-06
1.11562e-06
-1.97612e-06
1.24875e-06
-2.37092e-06
1.37115e-06
-2.79264e-06
1.48245e-06
-3.23814e-06
1.58209e-06
-3.70407e-06
1.66925e-06
-4.18656e-06
1.74245e-06
-4.68125e-06
1.79962e-06
-5.18285e-06
1.83779e-06
-5.6853e-06
1.85348e-06
-6.18119e-06
1.84237e-06
-6.6622e-06
1.79999e-06
-7.1184e-06
1.72131e-06
-7.5391e-06
1.60186e-06
-7.91202e-06
1.43715e-06
-8.22462e-06
1.22416e-06
-8.46318e-06
9.60465e-07
-8.61465e-06
6.46133e-07
-8.66563e-06
2.82449e-07
-8.60471e-06
-1.25965e-07
-8.42126e-06
-5.7293e-07
-8.10821e-06
-1.04851e-06
-7.66051e-06
-1.54143e-06
-7.07805e-06
-2.03704e-06
-6.36377e-06
-2.5204e-06
-5.52622e-06
-2.97447e-06
-4.57721e-06
-3.38368e-06
-3.53377e-06
-3.7323e-06
-2.4154e-06
-4.00777e-06
-1.24534e-06
-4.1991e-06
-4.79553e-08
-4.29938e-06
1.15068e-06
-4.30438e-06
2.32494e-06
-4.21409e-06
3.44974e-06
-4.03173e-06
4.50198e-06
-3.76425e-06
5.46128e-06
-3.42184e-06
6.31054e-06
-3.01729e-06
7.03703e-06
-2.5658e-06
7.63206e-06
-2.08336e-06
8.09195e-06
-1.58684e-06
8.41666e-06
-1.09171e-06
8.61067e-06
-6.12639e-07
8.68101e-06
-1.61394e-07
8.63804e-06
2.51952e-07
8.49327e-06
6.20762e-07
8.26002e-06
9.40251e-07
7.95145e-06
1.20884e-06
7.58126e-06
1.42643e-06
7.16213e-06
1.59529e-06
6.70643e-06
1.71843e-06
6.22503e-06
1.8003e-06
5.72798e-06
1.84536e-06
5.22373e-06
1.85864e-06
4.71983e-06
1.84464e-06
4.22246e-06
1.80774e-06
3.73705e-06
1.75145e-06
3.26803e-06
1.67877e-06
2.81935e-06
1.5918e-06
2.39442e-06
1.49209e-06
1.99645e-06
1.38047e-06
1.62845e-06
1.25751e-06
1.29339e-06
1.12361e-06
9.94059e-07
9.79472e-07
7.32984e-07
8.26468e-07
5.12154e-07
6.67152e-07
3.3282e-07
5.05721e-07
1.95075e-07
3.48547e-07
9.74139e-08
2.04402e-07
3.63336e-08
8.43382e-08
6.30382e-09
1.79065e-09
-2.52105e-08
-1.29287e-08
-1.44708e-08
-5.95812e-08
4.35834e-08
-1.46002e-07
1.65491e-07
-2.76253e-07
3.29962e-07
-4.52255e-07
5.20175e-07
-6.74119e-07
7.22886e-07
-9.40547e-07
9.28105e-07
-1.24932e-06
1.12881e-06
-1.59765e-06
1.32042e-06
-1.98252e-06
1.50025e-06
-2.40076e-06
1.6669e-06
-2.84919e-06
1.81967e-06
-3.32454e-06
1.95807e-06
-3.8235e-06
2.08151e-06
-4.34238e-06
2.18876e-06
-4.87716e-06
2.27803e-06
-5.42302e-06
2.34643e-06
-5.97445e-06
2.39034e-06
-6.5247e-06
2.40499e-06
-7.06609e-06
2.38516e-06
-7.58926e-06
2.32469e-06
-8.08397e-06
2.21765e-06
-8.53815e-06
2.05777e-06
-8.93913e-06
1.83995e-06
-9.27266e-06
1.55954e-06
-9.52465e-06
1.21434e-06
-9.68001e-06
8.03374e-07
-9.72506e-06
3.2937e-07
-9.64617e-06
-2.03033e-07
-9.43271e-06
-7.84616e-07
-9.07546e-06
-1.40406e-06
-8.56994e-06
-2.04533e-06
-7.91444e-06
-2.691e-06
-7.11339e-06
-3.31997e-06
-6.1748e-06
-3.91166e-06
-5.11307e-06
-4.44408e-06
-3.94587e-06
-4.89826e-06
-2.69604e-06
-5.25644e-06
-1.38838e-06
-5.50566e-06
-5.07774e-08
-5.63595e-06
1.28852e-06
-5.64269e-06
2.60061e-06
-5.52524e-06
3.85791e-06
-5.28809e-06
5.03469e-06
-4.94009e-06
6.10811e-06
-4.49427e-06
7.05947e-06
-3.9676e-06
7.87416e-06
-3.3794e-06
8.54327e-06
-2.75129e-06
9.06218e-06
-2.10447e-06
9.43191e-06
-1.46005e-06
9.6568e-06
-8.36087e-07
9.74565e-06
-2.48791e-07
9.70908e-06
2.89968e-07
9.56062e-06
7.70725e-07
9.3141e-06
1.18837e-06
8.98461e-06
1.54e-06
8.58635e-06
1.82632e-06
8.13365e-06
2.04951e-06
7.6393e-06
2.21413e-06
7.11553e-06
2.32525e-06
6.57274e-06
2.38913e-06
6.02042e-06
2.41174e-06
5.46637e-06
2.39925e-06
4.91752e-06
2.35695e-06
4.37947e-06
2.28966e-06
3.85717e-06
2.20105e-06
3.35469e-06
2.09405e-06
2.87579e-06
1.97053e-06
2.42382e-06
1.83174e-06
2.00215e-06
1.67829e-06
1.61403e-06
1.51071e-06
1.26274e-06
1.32969e-06
9.51322e-07
1.13675e-06
6.8255e-07
9.3471e-07
4.586e-07
7.28381e-07
2.80735e-07
5.25091e-07
1.48806e-07
3.35028e-07
6.08433e-08
1.70982e-07
1.30006e-08
4.8376e-08
-1.2492e-08
-1.98193e-08
4.83267e-09
-8.50689e-08
1.07906e-07
-1.99754e-07
2.79258e-07
-3.65925e-07
4.9529e-07
-5.8359e-07
7.37085e-07
-8.511e-07
9.8974e-07
-1.16567e-06
1.24215e-06
-1.52387e-06
1.48662e-06
-1.922e-06
1.71832e-06
-2.35635e-06
1.93454e-06
-2.82335e-06
2.13399e-06
-3.31949e-06
2.31607e-06
-3.84135e-06
2.4804e-06
-4.38538e-06
2.62622e-06
-4.94792e-06
2.75216e-06
-5.52466e-06
2.85582e-06
-6.11082e-06
2.93381e-06
-6.70049e-06
2.98138e-06
-7.28693e-06
2.99295e-06
-7.86181e-06
2.96168e-06
-8.41581e-06
2.88047e-06
-8.93773e-06
2.74144e-06
-9.41554e-06
2.53753e-06
-9.83529e-06
2.26168e-06
-1.01828e-05
1.90903e-06
-1.04422e-05
1.47576e-06
-1.05986e-05
9.61725e-07
-1.06362e-05
3.68839e-07
-1.05415e-05
-2.95927e-07
-1.03015e-05
-1.02292e-06
-9.90738e-06
-1.79662e-06
-9.35228e-06
-2.59897e-06
-8.63551e-06
-3.40644e-06
-7.75982e-06
-4.19446e-06
-6.7353e-06
-4.93512e-06
-5.5759e-06
-5.60254e-06
-4.30236e-06
-6.17099e-06
-2.93823e-06
-6.61988e-06
-1.51171e-06
-6.9316e-06
-5.21586e-08
-7.09497e-06
1.40897e-06
-7.10333e-06
2.84073e-06
-6.95654e-06
4.21285e-06
-6.65976e-06
5.49723e-06
-6.22399e-06
6.6692e-06
-5.66571e-06
7.70788e-06
-5.00568e-06
8.59813e-06
-4.26901e-06
9.32966e-06
-3.48211e-06
9.89882e-06
-2.67284e-06
1.03062e-05
-1.8665e-06
1.0558e-05
-1.08691e-06
1.0663e-05
-3.52806e-07
1.0634e-05
3.1998e-07
1.04845e-05
9.21227e-07
1.02304e-05
1.44364e-06
9.88674e-06
1.88489e-06
9.46949e-06
2.24493e-06
8.99292e-06
2.52741e-06
8.47111e-06
2.73716e-06
7.91623e-06
2.88119e-06
7.33966e-06
2.96658e-06
6.75085e-06
3.00124e-06
6.15827e-06
2.99229e-06
5.5688e-06
2.94668e-06
4.9885e-06
2.87002e-06
4.42224e-06
2.76717e-06
3.8744e-06
2.64153e-06
3.34871e-06
2.49562e-06
2.84876e-06
2.33082e-06
2.37802e-06
2.14795e-06
1.94012e-06
1.94738e-06
1.53872e-06
1.72978e-06
1.1776e-06
1.49651e-06
8.60392e-07
1.25046e-06
5.90525e-07
9.96707e-07
3.70753e-07
7.43282e-07
2.02702e-07
5.01506e-07
8.63276e-08
2.85743e-07
1.98231e-08
1.13339e-07
6.92348e-09
-2.68167e-08
3.11871e-08
-1.11399e-07
1.91664e-07
-2.55711e-07
4.22765e-07
-4.59486e-07
6.98328e-07
-7.20353e-07
9.97303e-07
-1.0345e-06
1.30333e-06
-1.39728e-06
1.6045e-06
-1.80383e-06
1.89288e-06
-2.24936e-06
2.16376e-06
-2.72949e-06
2.41474e-06
-3.24015e-06
2.64489e-06
-3.77765e-06
2.85399e-06
-4.33841e-06
3.04178e-06
-4.91894e-06
3.20759e-06
-5.51543e-06
3.34971e-06
-6.12379e-06
3.46544e-06
-6.73903e-06
3.5505e-06
-7.35552e-06
3.59948e-06
-7.96616e-06
3.60535e-06
-8.56294e-06
3.56036e-06
-9.13597e-06
3.45551e-06
-9.67446e-06
3.28203e-06
-1.01655e-05
3.03072e-06
-1.05956e-05
2.69401e-06
-1.09494e-05
2.26499e-06
-1.12117e-05
1.74011e-06
-1.13656e-05
1.11768e-06
-1.1396e-05
4.01179e-07
-1.12871e-05
-4.03046e-07
-1.10264e-05
-1.28201e-06
-1.06021e-05
-2.21936e-06
-1.00082e-05
-3.19153e-06
-9.24121e-06
-4.17228e-06
-8.30524e-06
-5.12941e-06
-7.20867e-06
-6.03083e-06
-5.96816e-06
-6.84234e-06
-4.60417e-06
-7.53441e-06
-3.14363e-06
-8.07996e-06
-1.61548e-06
-8.45936e-06
-5.23351e-08
-8.65775e-06
1.51289e-06
-8.66818e-06
3.0465e-06
-8.48973e-06
4.51613e-06
-8.12894e-06
5.89169e-06
-7.59906e-06
7.14613e-06
-6.91961e-06
8.25771e-06
-6.11665e-06
9.20944e-06
-5.22009e-06
9.99184e-06
-4.26383e-06
1.06005e-05
-3.28078e-06
1.10382e-05
-2.30338e-06
1.1311e-05
-1.35882e-06
1.14302e-05
-4.71084e-07
1.14083e-05
3.42752e-07
1.12609e-05
1.06933e-06
1.10036e-05
1.70175e-06
1.06532e-05
2.2362e-06
1.02251e-05
2.67404e-06
9.73489e-06
3.01867e-06
9.19614e-06
3.27692e-06
8.62188e-06
3.45631e-06
8.02306e-06
3.5661e-06
7.40973e-06
3.61508e-06
6.79002e-06
3.61232e-06
6.17119e-06
3.56563e-06
5.55899e-06
3.48216e-06
4.95854e-06
3.36737e-06
4.37397e-06
3.22564e-06
3.80916e-06
3.05974e-06
3.2676e-06
2.87143e-06
2.75296e-06
2.66141e-06
2.26903e-06
2.42998e-06
1.81998e-06
2.1774e-06
1.41025e-06
1.90473e-06
1.04458e-06
1.61451e-06
7.27829e-07
1.31175e-06
4.64631e-07
1.00472e-06
2.58782e-07
7.05574e-07
1.12632e-07
4.30055e-07
2.6756e-08
1.97525e-07
3.3239e-08
-3.39972e-08
6.47946e-08
-1.38874e-07
2.95835e-07
-3.14475e-07
5.97676e-07
-5.57756e-07
9.40973e-07
-8.63444e-07
1.30243e-06
-1.22506e-06
1.66447e-06
-1.63579e-06
2.01487e-06
-2.0891e-06
2.34597e-06
-2.5791e-06
2.65371e-06
-3.10062e-06
2.93641e-06
-3.64928e-06
3.19388e-06
-4.22117e-06
3.42639e-06
-4.8128e-06
3.6341e-06
-5.42063e-06
3.81633e-06
-6.04115e-06
3.97136e-06
-6.67023e-06
4.09586e-06
-7.30329e-06
4.18511e-06
-7.93457e-06
4.23248e-06
-8.55751e-06
4.23018e-06
-9.16384e-06
4.1687e-06
-9.74437e-06
4.03816e-06
-1.02878e-05
3.82768e-06
-1.07822e-05
3.52733e-06
-1.12132e-05
3.1273e-06
-1.15665e-05
2.62053e-06
-1.18256e-05
2.00139e-06
-1.19749e-05
1.26906e-06
-1.19973e-05
4.25471e-07
-1.18778e-05
-5.20689e-07
-1.16013e-05
-1.55696e-06
-1.11565e-05
-2.6626e-06
-1.05339e-05
-3.8128e-06
-9.73078e-06
-4.97426e-06
-8.74801e-06
-6.11119e-06
-7.59589e-06
-7.18211e-06
-6.28952e-06
-8.14799e-06
-4.85268e-06
-8.9706e-06
-3.3122e-06
-9.61983e-06
-1.70047e-06
-1.00705e-05
-5.09093e-08
-1.03067e-05
1.60057e-06
-1.0319e-05
3.21863e-06
-1.0107e-05
4.76871e-06
-9.67817e-06
6.21844e-06
-9.04787e-06
7.53955e-06
-8.23975e-06
8.70794e-06
-7.284e-06
9.7071e-06
-6.21816e-06
1.05264e-05
-5.082e-06
1.11639e-05
-3.91715e-06
1.16222e-05
-2.7605e-06
1.19105e-05
-1.64593e-06
1.20399e-05
-5.99238e-07
1.20256e-05
3.58315e-07
1.18823e-05
1.2136e-06
1.16275e-05
1.95752e-06
1.12769e-05
2.58769e-06
1.08473e-05
3.10464e-06
1.03533e-05
3.5138e-06
9.80908e-06
3.82211e-06
9.22688e-06
4.03938e-06
8.61815e-06
4.17555e-06
7.99216e-06
4.24158e-06
7.35738e-06
4.24742e-06
6.72045e-06
4.20269e-06
6.08731e-06
4.11526e-06
5.46261e-06
3.99186e-06
4.85055e-06
3.8373e-06
4.25469e-06
3.65499e-06
3.67856e-06
3.44669e-06
3.12572e-06
3.21315e-06
2.60019e-06
2.95424e-06
2.10647e-06
2.66974e-06
1.64975e-06
2.35997e-06
1.2359e-06
2.02677e-06
8.71442e-07
1.6745e-06
5.63206e-07
1.3112e-06
3.17664e-07
9.49321e-07
1.40107e-07
6.05797e-07
3.39305e-08
3.02141e-07
6.68385e-08
-4.15838e-08
1.06065e-07
-1.68326e-07
4.21978e-07
-3.77621e-07
8.06372e-07
-6.62957e-07
1.22575e-06
-1.01542e-06
1.6544e-06
-1.42535e-06
2.07398e-06
-1.88344e-06
2.47261e-06
-2.38141e-06
2.84371e-06
-2.91218e-06
3.18444e-06
-3.47002e-06
3.49441e-06
-4.05022e-06
3.77442e-06
-4.64892e-06
4.0256e-06
-5.26265e-06
4.24851e-06
-5.88821e-06
4.44278e-06
-6.52216e-06
4.6064e-06
-7.16085e-06
4.73586e-06
-7.79974e-06
4.82551e-06
-8.43372e-06
4.86815e-06
-9.05619e-06
4.85449e-06
-9.65975e-06
4.77424e-06
-1.0235e-05
4.61554e-06
-1.0772e-05
4.36677e-06
-1.12582e-05
4.01573e-06
-1.16809e-05
3.55224e-06
-1.20251e-05
2.96687e-06
-1.2276e-05
2.25439e-06
-1.24167e-05
1.41177e-06
-1.24318e-05
4.42405e-07
-1.2304e-05
-6.46727e-07
-1.20192e-05
-1.84011e-06
-1.15627e-05
-3.11759e-06
-1.09253e-05
-4.44884e-06
-1.00997e-05
-5.79873e-06
-9.08741e-06
-7.12238e-06
-7.89526e-06
-8.37327e-06
-6.54111e-06
-9.50121e-06
-5.04759e-06
-1.04632e-05
-3.44527e-06
-1.12212e-05
-1.76652e-06
-1.17482e-05
-4.81924e-08
-1.2024e-05
1.67265e-06
-1.20387e-05
3.35794e-06
-1.17912e-05
4.97108e-06
-1.12901e-05
6.47818e-06
-1.05537e-05
7.84843e-06
-9.60862e-06
9.05751e-06
-8.49165e-06
1.00871e-05
-7.24621e-06
1.0929e-05
-5.9224e-06
1.15814e-05
-4.56796e-06
1.20509e-05
-3.22841e-06
1.23469e-05
-1.94021e-06
1.24838e-05
-7.34406e-07
1.2476e-05
3.67902e-07
1.23405e-05
1.35068e-06
1.20931e-05
2.2064e-06
1.17508e-05
2.93129e-06
1.13288e-05
3.52807e-06
1.08422e-05
4.00175e-06
1.03039e-05
4.36168e-06
9.72648e-06
4.61798e-06
9.1201e-06
4.78293e-06
8.49427e-06
4.8682e-06
7.85649e-06
4.88578e-06
7.21352e-06
4.84603e-06
6.57056e-06
4.75839e-06
5.93228e-06
4.63014e-06
5.30234e-06
4.46704e-06
4.68423e-06
4.27267e-06
4.08114e-06
4.04911e-06
3.49662e-06
3.79678e-06
2.93461e-06
3.51517e-06
2.39994e-06
3.20322e-06
1.89837e-06
2.86024e-06
1.43694e-06
2.48678e-06
1.02393e-06
2.08599e-06
6.68709e-07
1.66486e-06
3.80947e-07
1.2355e-06
1.69634e-07
8.15588e-07
4.15815e-08
4.28964e-07
1.08272e-07
-5.00097e-08
1.55834e-07
-2.01246e-07
5.72705e-07
-4.4791e-07
1.05251e-06
-7.78869e-07
1.55622e-06
-1.18062e-06
2.05573e-06
-1.6397e-06
2.53272e-06
-2.14413e-06
2.97675e-06
-2.68385e-06
3.38324e-06
-3.25088e-06
3.75143e-06
-3.839e-06
4.08269e-06
-4.44349e-06
4.37926e-06
-5.06056e-06
4.6432e-06
-5.68709e-06
4.87575e-06
-6.32007e-06
5.07665e-06
-6.95655e-06
5.24398e-06
-7.59302e-06
5.37363e-06
-8.22564e-06
5.45961e-06
-8.84936e-06
5.49353e-06
-9.45854e-06
5.46547e-06
-1.00458e-05
5.36344e-06
-1.06032e-05
5.17492e-06
-1.11205e-05
4.88616e-06
-1.15872e-05
4.48455e-06
-1.19903e-05
3.9575e-06
-1.23171e-05
3.29575e-06
-1.25522e-05
2.49153e-06
-1.26813e-05
1.54277e-06
-1.26874e-05
4.5035e-07
-1.25556e-05
-7.76776e-07
-1.22687e-05
-2.12536e-06
-1.18132e-05
-3.57167e-06
-1.11744e-05
-5.08624e-06
-1.03448e-05
-6.62701e-06
-9.32008e-06
-8.14596e-06
-8.10782e-06
-9.58438e-06
-6.72281e-06
-1.08851e-05
-5.19159e-06
-1.19933e-05
-3.5437e-06
-1.28679e-05
-1.81533e-06
-1.34754e-05
-4.38344e-08
-1.37943e-05
1.73e-06
-1.38114e-05
3.46602e-06
-1.3526e-05
5.12532e-06
-1.29482e-05
6.67158e-06
-1.20987e-05
8.07342e-06
-1.10092e-05
9.30374e-06
-9.72056e-06
1.0346e-05
-8.287e-06
1.1192e-05
-6.76683e-06
1.18451e-05
-5.21948e-06
1.2313e-05
-3.69461e-06
1.26098e-05
-2.23527e-06
1.27496e-05
-8.72212e-07
1.27495e-05
3.70084e-07
1.26245e-05
1.47762e-06
1.23918e-05
2.44097e-06
1.2066e-05
3.25889e-06
1.16627e-05
3.93314e-06
1.11949e-05
4.47133e-06
1.06757e-05
4.88258e-06
1.01157e-05
5.17953e-06
9.52519e-06
5.37477e-06
8.91233e-06
5.48221e-06
8.2846e-06
5.51443e-06
7.64771e-06
5.48361e-06
7.00684e-06
5.39973e-06
6.3659e-06
5.27136e-06
5.72846e-06
5.10455e-06
5.09744e-06
4.90353e-06
4.4759e-06
4.67026e-06
3.86698e-06
4.40507e-06
3.27458e-06
4.10677e-06
2.70352e-06
3.77336e-06
2.16002e-06
3.40271e-06
1.65204e-06
2.99362e-06
1.18966e-06
2.54715e-06
7.84951e-07
2.06831e-06
4.51435e-07
1.56779e-06
2.02709e-07
1.06322e-06
5.01155e-08
5.80674e-07
1.58377e-07
-6.00323e-08
2.15707e-07
-2.40132e-07
7.52408e-07
-5.29733e-07
1.34171e-06
-9.1126e-07
1.93738e-06
-1.36534e-06
2.50955e-06
-1.87421e-06
3.04142e-06
-2.42313e-06
3.52558e-06
-3.00067e-06
3.96074e-06
-3.5982e-06
4.34907e-06
-4.20947e-06
4.69428e-06
-4.82994e-06
5.00024e-06
-5.45622e-06
5.27018e-06
-6.08548e-06
5.50588e-06
-6.71522e-06
5.70745e-06
-7.3427e-06
5.87272e-06
-7.96506e-06
5.99744e-06
-8.57858e-06
6.07476e-06
-9.17912e-06
6.09586e-06
-9.76116e-06
6.04944e-06
-1.03187e-05
5.923e-06
-1.08438e-05
5.70218e-06
-1.13284e-05
5.37289e-06
-1.1762e-05
4.9203e-06
-1.21343e-05
4.33195e-06
-1.24326e-05
3.59607e-06
-1.26447e-05
2.70564e-06
-1.27558e-05
1.65584e-06
-1.27526e-05
4.48953e-07
-1.26184e-05
-9.09271e-07
-1.23387e-05
-2.40352e-06
-1.18955e-05
-4.0135e-06
-1.12744e-05
-5.70603e-06
-1.04601e-05
-7.44019e-06
-9.44644e-06
-9.15854e-06
-8.23387e-06
-1.07959e-05
-6.83964e-06
-1.22783e-05
-5.28809e-06
-1.35439e-05
-3.61278e-06
-1.45424e-05
-1.84886e-06
-1.52386e-05
-3.84348e-08
-1.56041e-05
1.77516e-06
-1.56244e-05
3.54722e-06
-1.52976e-05
5.23561e-06
-1.46361e-05
6.80307e-06
-1.36656e-05
8.21557e-06
-1.2421e-05
9.44665e-06
-1.09509e-05
1.04783e-05
-9.31766e-06
1.13084e-05
-7.59588e-06
1.1943e-05
-5.85283e-06
1.23969e-05
-4.14731e-06
1.2685e-05
-2.52196e-06
1.28254e-05
-1.01096e-06
1.2833e-05
3.64349e-07
1.27245e-05
1.58802e-06
1.25135e-05
2.65381e-06
1.22152e-05
3.55906e-06
1.18418e-05
4.30841e-06
1.14063e-05
4.90865e-06
1.09192e-05
5.37153e-06
1.0391e-05
5.70947e-06
9.82986e-06
5.93743e-06
9.24391e-06
6.06953e-06
8.63917e-06
6.12033e-06
8.02129e-06
6.10242e-06
7.39445e-06
6.02731e-06
6.76248e-06
5.90388e-06
6.12824e-06
5.73915e-06
5.49449e-06
5.53742e-06
4.86369e-06
5.30096e-06
4.23877e-06
5.02969e-06
3.62315e-06
4.72191e-06
3.02149e-06
4.37443e-06
2.44004e-06
3.98347e-06
1.88737e-06
3.54549e-06
1.375e-06
3.05865e-06
9.1777e-07
2.52466e-06
5.3356e-07
1.9512e-06
2.418e-07
1.35425e-06
6.02377e-08
7.61602e-07
2.18676e-07
-7.30479e-08
2.88713e-07
-2.89203e-07
9.68329e-07
-6.30004e-07
1.68228e-06
-1.06859e-06
2.37579e-06
-1.57828e-06
3.01918e-06
-2.13671e-06
3.59994e-06
-2.7269e-06
4.11596e-06
-3.3366e-06
4.57072e-06
-3.95732e-06
4.97019e-06
-4.58321e-06
5.32076e-06
-5.21034e-06
5.62816e-06
-5.83578e-06
5.8966e-06
-6.45727e-06
6.12854e-06
-7.07259e-06
6.32412e-06
-7.67957e-06
6.48123e-06
-8.27545e-06
6.59504e-06
-8.85728e-06
6.65847e-06
-9.42104e-06
6.66164e-06
-9.96239e-06
6.59293e-06
-1.04755e-05
6.43834e-06
-1.09544e-05
6.18333e-06
-1.13912e-05
5.81194e-06
-1.17782e-05
5.30954e-06
-1.21055e-05
4.66145e-06
-1.23641e-05
3.8567e-06
-1.25422e-05
2.88571e-06
-1.26295e-05
1.74501e-06
-1.26126e-05
4.33663e-07
-1.24793e-05
-1.04104e-06
-1.22131e-05
-2.66845e-06
-1.17985e-05
-4.42702e-06
-1.12143e-05
-6.28931e-06
-1.04427e-05
-8.21098e-06
-9.46558e-06
-1.01349e-05
-8.28065e-06
-1.19803e-05
-6.89885e-06
-1.36597e-05
-5.34899e-06
-1.50936e-05
-3.66099e-06
-1.62305e-05
-1.87385e-06
-1.7026e-05
-3.1786e-08
-1.74465e-05
1.81349e-06
-1.74701e-05
3.61068e-06
-1.70952e-05
5.31299e-06
-1.63388e-05
6.88071e-06
-1.52337e-05
8.28163e-06
-1.38221e-05
9.48606e-06
-1.21553e-05
1.04807e-05
-1.0312e-05
1.12672e-05
-8.38195e-06
1.1863e-05
-6.44802e-06
1.22864e-05
-4.56991e-06
1.25586e-05
-2.79338e-06
1.26959e-05
-1.14718e-06
1.27152e-05
3.46343e-07
1.26288e-05
1.6759e-06
1.24504e-05
2.83371e-06
1.21906e-05
3.82048e-06
1.18612e-05
4.6394e-06
1.14716e-05
5.3e-06
1.10317e-05
5.81313e-06
1.05493e-05
6.19358e-06
1.00324e-05
6.45596e-06
9.48691e-06
6.61645e-06
8.91891e-06
6.68967e-06
8.33268e-06
6.68982e-06
7.73236e-06
6.62863e-06
7.12093e-06
6.51617e-06
6.50118e-06
6.35959e-06
5.87524e-06
6.16387e-06
5.24536e-06
5.93115e-06
4.61379e-06
5.66136e-06
3.98356e-06
5.35209e-06
3.35866e-06
4.99918e-06
2.74492e-06
4.59695e-06
2.15083e-06
4.13922e-06
1.58871e-06
3.62033e-06
1.07571e-06
3.03723e-06
6.34276e-07
2.39226e-06
2.9111e-07
1.69702e-06
7.33339e-08
9.79012e-07
2.92219e-07
-9.18211e-08
3.80666e-07
-3.55868e-07
1.23233e-06
-7.59729e-07
2.08612e-06
-1.26316e-06
2.87924e-06
-1.83093e-06
3.58708e-06
-2.43668e-06
4.206e-06
-3.06235e-06
4.74209e-06
-3.69621e-06
5.20513e-06
-4.33072e-06
5.6054e-06
-4.96119e-06
5.95209e-06
-5.5845e-06
6.25251e-06
-6.1985e-06
6.51183e-06
-6.80129e-06
6.73273e-06
-7.39115e-06
6.91555e-06
-7.96596e-06
7.05778e-06
-8.52353e-06
7.15451e-06
-9.06087e-06
7.19786e-06
-9.57487e-06
7.17781e-06
-1.00613e-05
7.08161e-06
-1.0516e-05
6.89527e-06
-1.09331e-05
6.60279e-06
-1.13074e-05
6.18854e-06
-1.16319e-05
5.63617e-06
-1.19002e-05
4.93189e-06
-1.21042e-05
4.06267e-06
-1.22372e-05
3.02052e-06
-1.22899e-05
1.79933e-06
-1.22549e-05
4.00094e-07
-1.21207e-05
-1.17407e-06
-1.18766e-05
-2.9116e-06
-1.15042e-05
-4.79861e-06
-1.09837e-05
-6.80919e-06
-1.02852e-05
-8.90891e-06
-9.38284e-06
-1.10369e-05
-8.25749e-06
-1.31054e-05
-6.91993e-06
-1.49972e-05
-5.3938e-06
-1.66199e-05
-3.70918e-06
-1.79156e-05
-1.90116e-06
-1.88349e-05
-2.47637e-08
-1.93238e-05
1.8563e-06
-1.93519e-05
3.67601e-06
-1.89156e-05
5.37791e-06
-1.80413e-05
6.92344e-06
-1.67798e-05
8.28189e-06
-1.51811e-05
9.42697e-06
-1.33008e-05
1.03464e-05
-1.12316e-05
1.10576e-05
-9.0931e-06
1.15871e-05
-6.97726e-06
1.19651e-05
-4.94755e-06
1.22124e-05
-3.04023e-06
1.2348e-05
-1.28213e-06
1.2383e-05
3.12165e-07
1.23293e-05
1.73058e-06
1.21945e-05
2.9697e-06
1.19881e-05
4.0282e-06
1.17168e-05
4.91212e-06
1.13891e-05
5.62925e-06
1.10112e-05
6.19271e-06
1.05903e-05
6.6162e-06
1.01316e-05
6.91629e-06
9.64111e-06
7.10863e-06
9.12286e-06
7.20947e-06
8.58125e-06
7.23289e-06
8.01937e-06
7.19187e-06
7.44028e-06
7.09651e-06
6.84613e-06
6.95486e-06