/*--------------------------------*- C++ -*----------------------------------*\
| =========                 |                                                 |
| \\      /  F ield         | OpenFOAM: The Open Source CFD Toolbox           |
|  \\    /   O peration     | Version:  2412                                  |
|   \\  /    A nd           | Website:  www.openfoam.com                      |
|    \\/     M anipulation  |                                                 |
\*---------------------------------------------------------------------------*/
FoamFile
{
    version     2.0;
    format      ascii;
    arch        "LSB;label=32;scalar=64";
    class       volScalarField;
    location    "6.9";
    object      p_rgh;
}
// * * * * * * * * * * * * * * * * * * * * * * * * * * * * * * * * * * * * * //

dimensions      [1 -1 -2 0 0 0 0];

internalField   nonuniform List<scalar> 
6400
(
132987
132988
132992
132999
133008
133018
133031
133045
133060
133077
133094
133112
133132
133152
133173
133196
133220
133246
133275
133306
133340
133378
133420
133466
133516
133569
133627
133687
133749
133813
133877
133940
134001
134059
134112
134158
134198
134230
134252
134265
134268
134261
134245
134219
134185
134144
134096
134043
133985
133925
133864
133801
133740
133679
133621
133565
133512
133461
133413
133368
133326
133285
133246
133209
133173
133137
133103
133069
133036
133004
132974
132945
132917
132892
132869
132850
132834
132822
132814
132810
132985
132987
132991
132997
133006
133017
133030
133044
133059
133075
133093
133111
133130
133150
133171
133193
133217
133242
133270
133301
133336
133373
133415
133461
133511
133565
133623
133684
133748
133813
133878
133943
134006
134065
134119
134167
134208
134240
134263
134277
134280
134273
134256
134229
134194
134152
134102
134048
133989
133927
133864
133801
133738
133677
133618
133562
133508
133457
133410
133365
133322
133282
133244
133207
133171
133136
133101
133068
133035
133003
132972
132942
132915
132889
132866
132846
132830
132818
132810
132806
132981
132982
132987
132993
133003
133014
133027
133041
133057
133073
133090
133108
133127
133146
133167
133188
133211
133236
133263
133293
133327
133364
133406
133452
133502
133557
133616
133679
133745
133812
133880
133948
134013
134075
134132
134183
134226
134260
134284
134298
134301
134294
134276
134248
134211
134166
134114
134056
133995
133931
133866
133800
133735
133672
133612
133555
133501
133450
133403
133358
133316
133277
133239
133203
133168
133133
133099
133066
133033
133000
132969
132939
132910
132884
132860
132840
132823
132810
132802
132798
132974
132976
132980
132987
132997
133009
133022
133037
133053
133070
133087
133105
133123
133142
133161
133182
133203
133227
133253
133281
133314
133350
133392
133438
133489
133545
133606
133671
133740
133811
133883
133955
134025
134091
134152
134206
134252
134289
134315
134330
134333
134325
134305
134275
134235
134186
134131
134069
134004
133936
133866
133798
133730
133665
133603
133545
133490
133440
133393
133349
133308
133270
133233
133198
133164
133130
133096
133063
133030
132997
132964
132933
132904
132876
132851
132830
132812
132798
132789
132785
132964
132966
132971
132979
132989
133002
133016
133032
133049
133066
133084
133102
133119
133137
133155
133174
133194
133215
133239
133266
133296
133332
133372
133418
133470
133528
133592
133660
133733
133809
133886
133963
134039
134111
134178
134237
134288
134328
134356
134372
134376
134366
134345
134311
134267
134214
134153
134086
134015
133941
133867
133794
133722
133655
133591
133531
133476
133425
133379
133337
133297
133261
133226
133192
133159
133126
133093
133060
133026
132992
132959
132926
132895
132866
132839
132816
132797
132782
132772
132767
132951
132954
132959
132968
132980
132993
133009
133026
133044
133062
133080
133098
133115
133132
133148
133165
133182
133201
133222
133246
133274
133308
133347
133393
133446
133505
133572
133644
133722
133804
133888
133973
134057
134136
134210
134276
134333
134377
134409
134427
134431
134420
134395
134357
134308
134248
134180
134106
134028
133947
133867
133788
133712
133640
133573
133512
133457
133407
133361
133321
133284
133249
133217
133185
133154
133123
133090
133057
133023
132988
132953
132918
132884
132852
132823
132798
132776
132760
132749
132744
132935
132938
132944
132955
132967
132983
133000
133019
133039
133058
133077
133095
133111
133127
133141
133155
133169
133184
133201
133222
133247
133278
133315
133361
133414
133476
133545
133623
133707
133797
133890
133984
134077
134167
134251
134325
134389
134440
134476
134496
134500
134487
134459
134415
134359
134291
134214
134131
134043
133954
133865
133779
133697
133620
133551
133488
133432
133383
133340
133301
133267
133236
133207
133178
133149
133120
133089
133055
133020
132984
132946
132908
132871
132836
132804
132775
132751
132733
132721
132715
132915
132918
132925
132937
132952
132970
132990
133012
133034
133055
133075
133093
133109
133122
133134
133144
133154
133164
133177
133193
133214
133241
133276
133320
133373
133437
133511
133595
133687
133786
133890
133996
134102
134204
134299
134385
134458
134516
134557
134580
134584
134570
134536
134486
134421
134343
134254
134159
134060
133959
133860
133765
133676
133594
133521
133457
133401
133353
133312
133278
133248
133221
133196
133171
133146
133119
133088
133055
133019
132980
132940
132898
132857
132817
132780
132748
132721
132700
132686
132679
132890
132894
132903
132916
132934
132955
132979
133004
133029
133053
133074
133093
133108
133119
133128
133134
133138
133143
133149
133158
133173
133196
133227
133269
133323
133389
133467
133558
133659
133770
133887
134008
134129
134246
134356
134456
134541
134608
134656
134683
134687
134669
134630
134571
134495
134403
134301
134191
134077
133962
133851
133745
133648
133560
133482
133416
133361
133316
133279
133249
133225
133205
133185
133166
133144
133120
133091
133058
133020
132978
132934
132887
132840
132795
132753
132716
132684
132660
132643
132635
132860
132865
132875
132891
132912
132938
132966
132996
133026
133053
133077
133096
133110
133119
133124
133124
133122
133119
133117
133118
133125
133141
133167
133206
133259
133327
133411
133510
133622
133746
133880
134018
134158
134295
134423
134540
134639
134719
134775
134806
134810
134789
134742
134672
134582
134474
134354
134226
134094
133962
133836
133717
133609
133514
133432
133365
133311
133269
133238
133215
133199
133186
133174
133161
133145
133124
133097
133064
133025
132979
132930
132877
132823
132770
132720
132677
132640
132612
132592
132582
132823
132830
132842
132861
132886
132917
132952
132988
133024
133056
133083
133104
133117
133124
133123
133117
133106
133093
133081
133072
133069
133076
133095
133129
133180
133250
133339
133447
133573
133713
133866
134027
134190
134350
134502
134639
134757
134851
134917
134954
134959
134933
134876
134792
134685
134557
134415
134264
134109
133957
133811
133677
133557
133454
133368
133299
133248
133211
133188
133174
133168
133166
133164
133160
133151
133135
133111
133078
133036
132986
132930
132868
132804
132740
132681
132629
132587
132554
132531
132518
132780
132788
132802
132824
132853
132891
132935
132981
133025
133064
133095
133117
133131
133134
133128
133113
133092
133067
133041
133018
133002
132997
133006
133033
133081
133152
133247
133366
133507
133668
133844
134031
134223
134412
134592
134756
134896
135009
135088
135131
135137
135105
135037
134935
134806
134653
134483
134303
134121
133943
133775
133622
133488
133375
133285
133216
133169
133140
133127
133127
133134
133145
133156
133163
133163
133154
133133
133100
133055
132999
132933
132860
132783
132706
132634
132572
132522
132484
132459
132441
132729
132738
132754
132779
132814
132862
132918
132975
133030
133077
133115
133140
133153
133153
133139
133114
133079
133039
132997
132956
132923
132902
132898
132916
132958
133030
133130
133261
133420
133604
133810
134029
134256
134482
134697
134893
135062
135197
135292
135343
135349
135310
135227
135105
134947
134763
134559
134344
134128
133919
133723
133548
133397
133273
133178
133112
133071
133053
133054
133070
133094
133123
133150
133172
133184
133183
133166
133133
133084
133020
132942
132855
132761
132667
132579
132504
132444
132400
132372
132352
132668
132678
132696
132726
132771
132830
132899
132971
133039
133098
133144
133174
133187
133182
133160
133122
133072
133012
132948
132886
132830
132789
132767
132771
132806
132876
132982
133126
133306
133518
133759
134019
134289
134560
134819
135055
135259
135422
135536
135598
135605
135556
135455
135305
135114
134890
134643
134385
134126
133878
133649
133447
133277
133142
133043
132979
132948
132945
132965
133002
133050
133101
133150
133190
133217
133226
133215
133182
133127
133052
132960
132855
132741
132626
132518
132427
132354
132302
132267
132248
132591
132603
132627
132666
132721
132795
132880
132968
133053
133127
133184
133221
133235
133226
133193
133140
133070
132987
132896
132805
132722
132653
132608
132594
132618
132684
132795
132953
133157
133403
133685
133995
134319
134646
134959
135246
135494
135691
135830
135904
135912
135852
135727
135544
135310
135036
134736
134423
134112
133816
133546
133313
133120
132973
132871
132813
132795
132813
132858
132923
133000
133080
133155
133220
133266
133288
133284
133250
133188
133099
132988
132860
132721
132582
132451
132339
132251
132186
132144
132121
132491
132508
132541
132592
132664
132753
132857
132967
133072
133164
133236
133282
133300
133286
133242
133170
133076
132964
132841
132715
132595
132492
132417
132378
132385
132445
132561
132735
132965
133249
133582
133952
134344
134740
135122
135472
135775
136015
136184
136274
136282
136208
136055
135829
135542
135206
134838
134457
134079
133724
133406
133135
132918
132757
132654
132605
132607
132651
132729
132830
132943
133060
133170
133264
133333
133372
133376
133341
133270
133163
133027
132873
132704
132534
132376
132239
132130
132048
131993
131965
132356
132381
132428
132497
132588
132700
132829
132964
133094
133210
133302
133362
133384
133365
133307
133214
133092
132945
132783
132615
132450
132304
132190
132120
132105
132153
132271
132460
132718
133047
133441
133887
134363
134846
135313
135742
136111
136405
136611
136721
136730
136638
136449
136171
135818
135404
134952
134483
134023
133595
133217
132904
132659
132485
132383
132349
132376
132454
132574
132722
132881
133042
133195
133326
133426
133486
133499
133462
133378
133250
133087
132894
132688
132481
132288
132120
131983
131878
131806
131768
132172
132207
132274
132367
132484
132626
132786
132955
133118
133264
133381
133459
133487
133464
133390
133273
133118
132931
132721
132499
132279
132078
131914
131804
131760
131796
131918
132126
132405
132780
133250
133792
134374
134965
135538
136064
136517
136878
137129
137263
137272
137158
136925
136584
136147
135636
135078
134500
133935
133415
132962
132613
132333
132142
132043
132028
132088
132209
132388
132590
132808
133027
133232
133409
133547
133633
133657
133617
133516
133360
133158
132920
132666
132411
132173
131965
131794
131661
131566
131515
131922
131973
132071
132198
132350
132529
132731
132941
133144
133328
133480
133585
133627
133600
133508
133361
133165
132926
132652
132358
132059
131780
131544
131377
131295
131316
131453
131713
132066
132442
133003
133665
134378
135107
135810
136457
137014
137455
137764
137927
137937
137795
137508
137087
136549
135915
135222
134501
133801
133175
132708
132235
131888
131670
131572
131586
131697
131884
132134
132418
132720
133017
133292
133530
133716
133833
133869
133823
133700
133506
133254
132961
132645
132327
132029
131770
131556
131387
131258
131190
98694.7
99328.4
101078
103213
105627
108656
112188
115820
119125
121979
124392
126198
127019
126803
125630
123861
121608
118640
114921
110500
105597
100609
96062.1
92387.7
90007.9
89241.5
90383.7
93476.4
98656.3
105833
114676
123104
129667
134618
136130
136931
137617
138158
138535
138733
138743
138567
138214
137700
137036
136241
135374
130972
124374
115871
107776
101241
96689
94187.1
93501.6
94711.3
97411.3
101144
105584
110315
114917
119187
122986
126215
128752
129848
129692
128689
127063
124709
121497
117512
112823
107681
102591
98038.8
94357.3
91598.8
89341.6
88571.8
8354.75
9412.55
10854.6
12322.7
13918.5
16009.4
18587
21511.5
24678
27891.3
30921.4
33257.8
34188.8
33766.4
32179.4
29631.9
26130.3
22064.7
17815.1
13712.6
10039.1
6996.79
4643.04
2986.95
1981.32
1558.68
1745.1
2626.54
4389.9
7309.07
12837.3
22281.2
35867.6
53207.9
74231.3
92861.7
107231
117379
123566
126412
126639
124072
118140
108653
95068.7
76712.4
55002.2
36910
23250.6
14180.2
9250.56
6072.22
4211.3
3388.66
3285.87
3887.17
5183.11
7171.26
9863.77
13309.9
17490.9
22188
27043.5
31653.5
35680.3
38847.3
40230.3
39661.5
37122.3
33031.4
28105.9
23008.2
18295
14149.6
10880.7
8541.1
6896.7
5592.71
4341.4
3299.49
34.0978
26.7708
25.5745
23.4872
19.3199
13.8101
8.06994
3.69964
3.39194
2.97759
2.6182
2.39432
2.29867
2.24967
2.21571
2.19708
2.20072
2.20084
2.18862
2.23616
2.41428
2.68913
3.00199
3.22268
3.26696
3.28408
3.25407
3.12909
3.07621
3.10087
8.63181
17.7771
36.333
116.655
1749.64
5992.42
12452.7
19855.6
26468.9
30362.4
30470.7
26827
20539.9
13335.5
6675.42
2023.3
117.398
23.5805
7.47118
3.24979
3.2647
3.37548
3.5067
3.67511
3.86538
4.0086
4.12058
4.20578
4.22884
4.25223
4.21468
4.0865
3.89818
3.72576
3.66173
3.80529
4.06088
3.95715
3.43303
3.14925
3.158
3.28523
3.41646
4.43702
6.61794
7.79497
9.99966
10.1586
9.60559
11.7412
11.3464
9.46642
10.0537
10.1534
9.4239
6.81657
6.41215
9.06559
10.1776
9.90079
7.27935
2.78941
2.98589
3.0707
2.58654
2.41394
2.37206
2.36114
2.35009
2.36847
3.62467
5.40926
5.71175
5.92129
6.15987
6.40825
5.506
3.14347
3.06079
4.46679
5.20002
5.58706
6.2802
10.3082
14.9552
20.639
14.1629
16.2457
24.2804
31.9204
33.7435
29.9427
22.3772
16.861
14.3167
9.94367
8.113
5.46059
3.4218
3.2781
3.23013
3.4032
3.58152
4.45365
6.66679
7.70201
6.96834
6.0101
5.7174
5.20212
4.48618
4.13093
4.02814
4.54927
5.2569
8.01087
10.3577
10.2453
7.04792
3.56318
3.31727
3.4029
3.53542
3.60022
4.57126
4.20288
4.78626
4.2943
3.76421
3.87684
9.77179
7.73226
8.60556
9.74619
9.39255
6.60993
6.35377
4.64102
4.52937
4.0992
3.98979
3.89548
3.59032
2.9393
2.43777
2.42057
2.61397
2.83704
2.80447
4.14015
7.38467
7.48368
7.64478
7.80274
7.89928
7.9337
7.95376
5.07942
2.83715
5.09677
8.36322
5.00131
4.42141
7.04508
13.0265
16.018
3.32182
2.62717
3.04428
5.26079
7.55395
6.738
3.91293
4.54045
8.00607
4.13348
2.52287
4.10719
3.08815
3.04295
3.00132
5.31653
9.59087
9.6192
9.6557
9.78497
9.94961
10.1087
10.237
10.3509
10.4031
7.61645
5.67437
4.64154
5.64729
10.2192
10.439
9.21162
3.64207
3.35782
3.35189
3.38374
3.49356
4.53999
4.6276
3.98456
4.37877
3.82954
3.60877
3.66119
9.82381
7.52886
4.38165
7.06889
9.78561
7.03337
5.62083
4.41828
4.17624
3.9444
3.76241
3.56256
2.85065
2.84685
2.83405
3.71426
4.72839
5.25157
5.53097
6.99805
7.07627
6.19877
5.13176
7.38144
7.6741
7.67123
7.62336
6.38186
2.60816
3.48406
2.89661
2.4027
3.80753
16.971
17.5946
16.1185
1.62205
1.76326
1.94359
3.69016
6.73479
4.1747
1.25541
3.45107
8.43824
2.97129
2.03104
2.35172
2.62687
2.79546
2.93103
6.90341
9.10711
9.06522
9.23083
9.4693
9.71006
9.90437
10.0313
10.1126
10.2325
10.3878
10.423
5.46825
4.85988
4.42023
4.44986
3.97288
6.29273
5.6333
3.64921
3.55333
4.16807
4.54883
3.96119
3.84064
4.31208
3.401
3.46271
3.5233
8.63183
5.02072
3.30201
3.40503
6.65144
7.4404
6.37937
4.83281
6.89722
4.63712
3.5076
3.3952
3.3951
7.47525
7.76899
7.69897
7.60791
7.47243
7.22019
4.98229
2.87344
1.76404
1.80343
2.51465
6.95067
5.82964
4.29816
4.55562
2.02105
2.11376
2.07776
2.05878
2.93107
12.3889
14.2339
1.45986
1.4329
1.58962
1.68999
3.9459
7.94518
4.11285
1.1296
1.20416
1.61349
1.65174
1.94363
2.27675
2.53196
2.65251
2.68077
3.02001
3.42856
5.55798
9.07893
9.33693
9.60515
9.78478
9.78766
9.67079
10.0438
10.3187
10.3974
10.2019
9.61989
4.32468
3.90751
3.57347
6.41464
6.73592
6.85412
6.72792
3.81651
3.52913
3.39643
3.46911
3.92119
3.3606
3.4105
3.47508
3.48117
3.26522
3.21355
2.98366
3.91434
6.00439
6.65796
9.80626
9.68695
9.55315
9.35682
6.67853
6.379
7.82123
7.82316
7.56323
5.71899
3.2505
1.77508
1.73583
1.71729
1.70881
1.83194
1.73664
1.72332
1.43469
1.48433
1.71636
1.73868
1.88146
1.9072
1.89327
3.03284
6.99476
4.10564
1.42292
1.44067
1.46682
2.79375
3.88285
2.04277
1.08793
1.048
1.10653
1.25452
1.5614
1.9466
2.3105
2.57472
2.68629
2.60913
2.36978
2.12914
1.96697
3.96637
9.41923
9.63111
8.54456
3.95372
3.13814
6.08031
10.1688
8.19002
4.49987
5.46744
8.31115
8.26586
3.44116
2.8574
5.42328
6.89451
7.07483
7.28212
5.37274
3.40778
3.46482
3.43849
3.40493
3.41355
3.59637
2.85468
2.86608
2.86791
2.89506
2.90285
3.62281
7.13391
10.9652
9.70145
6.6816
6.17305
5.5728
4.46762
4.36902
3.66969
2.01377
1.83695
1.777
1.73433
1.7014
1.67748
1.67165
4.45876
1.91817
1.43201
1.39442
1.35918
1.44966
1.63471
1.73706
1.79309
1.81721
2.90529
7.83171
4.46093
1.52731
1.48301
1.56918
2.16447
1.50084
1.01978
0.93259
0.901025
0.917457
1.06567
1.74167
3.15302
3.82994
3.49438
3.10998
2.90773
2.76517
2.53201
3.41755
4.76833
9.55104
8.22944
2.67561
2.53231
2.62535
2.70483
4.09789
4.13873
2.95984
2.83313
3.08841
4.13214
3.84073
2.72831
2.67947
2.795
5.8737
7.44937
7.71321
6.12468
3.60404
3.9569
3.58234
3.42855
3.60462
2.68225
2.61151
2.60719
2.74042
2.81883
4.91937
11.8566
11.406
3.12611
2.27272
2.23269
2.18903
2.13969
2.07553
1.99592
1.89989
1.79772
1.72393
1.6796
1.65658
1.72547
3.71658
4.59935
2.36918
1.36712
1.37431
1.38369
1.47743
1.59188
1.65669
1.71378
1.78149
5.42117
8.86128
7.39888
1.56867
1.52962
1.47577
1.35675
1.17701
0.978158
0.773566
0.604156
0.663195
4.17678
6.00044
6.55942
7.08335
7.45086
7.60515
6.89947
6.64004
6.4187
6.64915
7.0089
7.09507
3.42726
2.35264
2.42887
2.51633
2.60701
2.69909
3.14333
3.19505
2.71238
2.65749
2.64416
2.79376
2.76684
2.6704
2.68627
2.73237
3.1183
7.75822
8.33451
8.47156
8.52432
6.9918
3.41039
3.46116
2.46344
2.26546
2.31424
2.55843
2.71448
6.20932
12.0891
11.8981
3.07403
2.29846
2.28276
2.19718
2.13638
2.07759
1.99862
1.88074
1.74486
1.6591
1.63387
1.61254
3.01906
4.75535
4.60842
2.41752
1.3229
1.3612
1.4113
1.4936
1.56945
1.61271
1.64627
1.84957
7.23792
9.13224
8.7878
2.03701
1.56093
1.49043
1.33282
1.08417
0.800496
0.53353
0.287821
1.05464
5.17835
5.59204
6.22886
6.81959
7.21858
7.38564
7.32752
7.07282
6.73174
6.27001
6.2978
5.07088
3.59139
2.39013
2.40118
2.4697
2.53325
2.54922
2.62247
2.92037
2.64316
2.52842
2.55046
2.59404
2.63925
2.6564
2.67989
2.71935
2.74257
2.74375
5.22765
8.36499
8.45477
8.50125
3.9948
3.39552
2.41522
2.20174
2.24604
2.46998
3.19277
12.3981
12.338
12.3101
5.74067
2.3284
2.42345
2.23803
2.13414
2.14106
2.7923
3.19883
1.69932
1.57794
1.55035
1.58109
3.56077
4.74852
2.92084
1.25903
1.31491
1.36616
1.43429
1.50716
1.5617
1.58994
1.58937
1.90902
8.22183
9.36255
9.28108
3.21748
1.58584
1.47444
1.2597
0.938843
1.03017
1.79678
0.413195
0.306665
1.19257
5.30715
5.93327
6.55907
6.96359
6.8303
4.96532
3.91512
3.22943
2.6046
2.63662
2.70932
2.81216
2.95521
3.45942
3.37792
2.66497
2.3889
2.42614
2.48763
2.43182
2.38475
2.44046
2.51724
2.58714
2.62869
2.65712
2.68621
2.708
2.71935
2.70006
2.94313
7.19854
8.60237
5.62478
3.34632
2.5613
2.41144
2.41004
2.52957
3.70898
12.5588
12.5453
12.5382
12.0716
2.74619
2.28481
2.20821
2.12064
3.3742
6.59564
6.38535
3.72987
1.47636
1.48424
1.59047
1.74327
1.6691
1.31624
1.29086
1.34395
1.40059
1.46851
1.5341
1.58023
1.59721
1.5613
1.70323
7.07286
9.54008
9.54728
6.00181
1.61512
1.453
1.18833
1.73715
3.4785
3.15178
2.93245
1.25612
0.593131
1.14933
5.76571
6.39604
6.56603
2.19282
2.24482
2.36222
2.44635
2.49761
2.55704
2.6343
2.98269
3.75866
3.85504
3.95013
2.81983
2.25783
2.2098
2.22469
2.23786
2.33594
3.68993
5.48866
4.99993
3.19764
2.61071
2.63578
2.66243
2.68626
2.70083
2.71591
2.72196
8.349
7.55571
3.39006
2.78715
2.64591
2.61257
2.65017
7.66478
12.7522
12.7277
12.7161
12.7078
3.26191
2.19585
2.13728
2.56865
6.48198
6.59863
6.39774
6.10906
1.43881
1.40601
1.41728
1.3723
1.32768
1.53629
1.68759
1.43404
1.44377
1.51195
1.57712
1.62551
1.63892
1.60369
1.54967
2.50762
7.5282
9.66109
9.59852
3.23883
1.46403
1.1652
2.52155
3.43913
3.07492
2.87856
2.81534
1.18236
0.812467
5.54879
6.30211
2.19245
1.81317
2.03158
2.17611
2.29266
2.61112
2.79452
3.46891
3.61141
3.68782
3.76793
3.85118
3.82452
2.79232
2.07732
2.0341
2.01439
3.19531
9.20771
9.54812
9.70794
9.71961
4.18724
2.56496
2.58517
2.62421
2.67364
2.71992
2.74905
4.22585
8.39569
3.59955
2.92278
2.77547
2.73217
3.67381
13.2579
12.9556
12.7927
12.8165
12.148
2.07854
2.06314
2.02942
4.29863
6.77394
6.59837
6.38501
6.19661
2.45341
1.29921
1.33178
1.32067
1.38384
1.88
2.09257
1.96864
1.52676
1.5576
1.62768
1.68149
1.69783
1.64763
1.51392
1.37348
1.69131
5.90465
9.41323
8.59722
1.81535
1.28161
1.01358
2.43026
2.70495
3.00308
2.03149
0.435995
0.826762
5.56333
4.8992
1.51256
1.65513
1.85892
2.17623
3.06787
3.17631
3.23207
3.34546
3.48086
3.57481
3.65685
3.73295
3.79105
3.84789
2.45832
1.8414
1.77476
4.15006
9.13024
9.41209
9.60259
9.75462
9.93469
6.03045
2.49392
2.52005
2.59225
2.66456
2.72179
3.65545
8.50204
3.79008
2.89528
2.75767
3.51751
13.9832
13.6301
9.61813
6.1738
9.80146
4.12723
1.89742
1.90419
1.97997
5.50149
6.78407
6.59997
6.36455
6.14601
2.5407
1.17752
1.23285
1.26181
1.36043
1.53081
2.1386
2.29907
2.38551
2.44004
2.34782
1.90722
1.7474
1.70459
1.59089
1.4933
1.53086
1.63938
4.24957
6.17888
1.83567
1.5057
1.1494
0.707254
0.482024
0.56767
0.479667
0.617901
3.36545
5.5214
1.40604
1.38183
1.53926
2.10937
2.65369
2.85571
3.04539
2.80805
2.31882
2.18594
2.69365
3.39142
3.57505
3.61501
3.59315
3.55095
2.5821
1.56132
1.46349
1.42781
4.55459
9.40705
9.61903
9.77119
9.9167
3.8425
2.39095
2.45736
2.55218
2.63224
2.68094
8.28161
4.15462
2.72927
2.82503
11.2552
14.1513
13.8292
6.6823
2.29943
2.00318
1.77353
1.76724
1.7519
1.90215
5.78231
6.81157
6.6157
6.33428
5.26669
1.37935
1.05897
1.1291
1.63821
2.08803
2.12918
2.18901
2.27131
2.36241
2.26514
1.93092
2.32236
2.48272
2.52185
3.03602
3.33609
1.71224
1.68237
1.5641
1.66196
5.10127
8.22646
6.29923
1.25088
1.14529
0.997477
0.930483
4.69934
5.43417
4.36453
1.39206
1.36035
1.35359
1.32637
1.70507
1.67592
1.20594
1.08897
1.12893
1.16947
1.20454
1.32607
1.43927
1.82487
2.3276
1.94848
1.36892
1.27738
1.23575
1.22057
1.23361
1.28949
6.98465
9.61559
9.5482
6.4582
2.34278
2.2686
2.38742
2.49022
2.55592
8.17878
4.78253
2.48996
4.32152
14.3297
14.1764
13.9847
13.8554
7.2152
1.85312
1.74077
1.67545
1.64502
1.70284
5.3383
6.85122
6.62931
5.28445
1.43354
0.898454
0.961776
1.01734
1.06264
1.19553
1.71655
2.02217
1.46301
1.48432
1.60637
1.72472
2.1408
3.74085
3.8066
3.7279
3.62205
2.98615
1.66401
1.49375
1.3994
9.03837
11.233
11.1788
10.5002
5.59162
3.27718
6.2721
6.24818
5.96659
2.17299
2.11521
2.34526
1.60734
0.85722
0.890794
0.927956
0.960143
0.986206
1.0122
1.04046
1.0729
1.10976
1.14802
1.18305
1.21915
1.15387
1.08593
1.01879
0.978097
0.974509
1.00406
1.05703
1.96531
8.89144
9.4023
8.75424
2.49963
2.02858
2.17101
2.29668
2.38125
7.98359
4.70632
2.22915
5.80599
14.2575
14.1058
13.9983
14.0118
14.0615
10.4702
1.79905
1.55604
1.54218
1.50562
4.05023
6.87084
5.6301
1.16518
0.895687
0.8572
0.874062
0.902887
0.926523
0.957621
1.01136
1.09919
1.23619
1.38139
1.52895
1.70197
3.21912
3.82012
3.79532
3.73182
3.64337
3.54153
1.63508
1.39318
1.12721
7.48102
11.1231
11.1309
11.1479
11.1906
11.1538
10.8273
4.56364
1.9589
2.21008
2.56991
2.64195
1.92369
0.803751
0.831963
0.854153
0.8697
0.884003
0.899334
0.918468
0.939752
0.959203
0.971463
1.2877
2.12509
2.84932
2.31502
1.2049
0.690002
0.6894
0.726594
0.794352
0.986525
7.8695
9.11002
9.31002
2.70456
1.73885
1.90796
2.05717
2.15603
7.33611
4.62146
1.98403
7.46602
14.1265
13.9877
13.4384
11.6482
14.0199
14.0167
11.4472
2.0563
1.38962
1.38234
2.57509
4.70227
2.28457
1.02529
0.890834
0.803473
0.764257
0.756871
1.12206
2.17216
2.58417
1.80191
1.322
1.27242
1.44606
1.66383
1.98966
3.54219
3.8212
3.77824
3.70605
3.60833
3.07212
1.37353
0.987764
1.46428
11.0564
11.0574
11.1304
11.2273
7.73316
1.76055
1.88588
2.04007
2.43122
2.7163
2.72397
0.960776
0.760054
0.777142
0.783806
0.782581
0.784858
0.797087
1.15654
1.96615
2.99076
3.65653
4.97909
4.94193
4.90978
4.87611
2.58734
0.426107
0.37122
0.402614
0.498276
1.78249
8.56386
9.02543
9.26869
3.69879
1.40814
1.60933
1.78103
1.90346
4.84264
6.70216
1.76226
11.4144
14.0156
13.8872
11.6071
11.6655
13.9534
13.9281
13.8699
3.82279
1.17843
1.23627
1.6926
1.82698
1.39113
1.22057
1.13427
0.907003
0.62616
1.72221
4.19439
4.17136
4.19391
4.27223
4.36077
2.91927
2.29476
2.08719
1.93026
2.09659
2.49869
3.88038
3.84378
3.75343
3.61225
1.94309
1.01865
0.566515
6.95118
11.1568
11.2415
6.90298
1.34752
1.66038
1.96255
2.74922
2.85405
2.86916
1.04629
0.719581
0.733442
0.729694
0.709388
0.705051
0.84425
1.91379
4.74172
4.87516
4.79979
4.70435
4.6356
4.60419
4.60225
4.60286
2.90921
0.105888
0.0271248
0.076792
0.267856
6.24766
8.69441
8.84891
9.05192
5.48588
1.0788
1.29292
1.48998
1.63376
3.97834
7.73628
1.59337
9.42393
13.9932
12.9143
3.09516
12.2482
13.9849
13.9136
11.9045
1.56396
0.994125
1.05355
1.10415
1.08252
1.07951
1.86237
4.40709
4.35662
4.10115
3.99837
3.87311
3.81376
3.79582
3.82778
3.90375
4.06307
4.30962
4.55814
2.48957
2.09954
2.17992
2.19942
2.4974
3.1088
3.2376
1.8265
1.19672
0.786211
0.802153
9.58235
6.50123
0.715563
1.2468
2.37918
2.95782
2.99333
3.01402
1.44153
0.718959
0.728111
0.71655
0.683238
0.663641
1.06504
3.67543
4.77133
4.62336
4.51949
4.4367
4.35786
4.32162
4.3505
4.42003
2.66613
-0.0816937
-0.246712
-0.24394
-0.229721
2.72729
8.42437
8.49108
8.56694
8.77309
5.09983
0.700824
0.983875
1.2023
1.35869
4.0558
7.67048
1.55865
2.58146
14.1054
13.7248
3.07512
7.23463
14.1561
8.62548
1.34326
0.777291
0.894368
0.918678
0.947168
0.880103
0.883632
3.06583
4.42194
4.17595
3.90723
3.66854
3.4982
3.38676
1.71212
0.265087
1.56799
3.22885
3.95093
4.41542
4.8362
4.73273
2.42877
2.17898
2.16048
2.08071
1.91156
1.68731
1.42285
1.10189
0.795559
0.660911
0.73409
0.893858
2.41281
3.04196
3.11634
3.13147
1.21055
0.765911
0.768127
0.745072
0.70099
0.67466
1.21274
4.39548
4.63876
4.53168
4.4265
4.2789
4.03736
3.75152
3.86247
3.85296
0.255265
-0.191675
-0.369325
-0.428907
-0.46334
-0.508228
0.341523
8.09329
8.29449
8.3574
8.61858
2.76252
0.436998
0.718309
0.944403
1.10016
5.54087
7.59504
1.56016
1.26004
13.6159
13.8934
4.26642
5.85375
5.53229
1.31219
0.946212
0.922451
1.18037
1.17225
0.792085
0.694237
0.628497
1.68654
4.27428
3.96921
3.6406
3.34908
3.1076
0.624923
-0.346948
-0.264775
-0.0399127
0.32153
0.767214
2.8744
4.78039
5.5247
5.86418
4.08211
3.65953
3.3768
3.36235
2.96157
1.55483
1.33339
1.1498
1.04795
1.08318
2.9484
3.07162
3.18011
2.65785
0.857961
0.860791
0.852498
0.823006
0.770609
1.12597
2.00805
4.46617
4.47955
4.4652
4.38574
3.67483
1.58441
0.154981
-0.181713
-0.198157
0.132492
4.83732
7.27863
1.66443
-0.558784
-0.623931
-0.680109
-0.778129
0.827748
5.79029
6.72941
2.51005
0.136879
0.233828
0.527213
0.739877
0.883877
6.28232
7.54203
1.51263
1.3159
3.88563
12.2553
3.68624
8.80835
4.3877
1.42514
1.21422
1.98939
2.09492
1.93144
0.652274
0.562606
0.453904
0.369825
1.10426
3.16705
3.41717
3.05326
2.80254
0.355864
-0.726037
-0.673118
-0.452469
-0.0515071
0.45514
0.948954
1.38353
4.73156
5.96897
6.20112
6.27666
4.42977
2.74204
1.73246
1.56829
2.55385
3.51306
3.43057
3.4013
3.17982
2.40338
1.10576
0.943684
0.967683
0.968251
0.943201
0.893029
1.12554
3.47697
3.74557
3.80262
3.94895
4.02175
1.91197
0.0634096
0.119257
0.0328448
-0.0769421
-0.116037
1.4756
11.1685
11.2598
6.25595
-0.58329
-0.650273
-0.703696
-0.773766
-0.87402
-0.456842
-0.0225705
-0.29912
-0.070317
0.218002
0.781203
0.608522
0.72453
4.56353
7.5351
5.2936
1.716
1.55963
1.89781
1.45456
9.33378
3.01615
1.79233
2.13866
2.14992
2.08896
1.35039
0.59093
0.499861
0.368808
0.183357
-0.0777455
-0.148854
0.408215
1.19433
2.44454
2.01999
-0.681622
-0.982624
-0.772836
-0.376043
0.163687
0.719599
1.19035
1.57263
3.82148
6.12098
6.29506
6.48124
3.12046
1.62874
1.4906
1.53446
1.44085
1.16171
0.98219
0.971924
0.999499
1.02796
1.04818
1.07158
1.0625
1.03535
1.07463
3.18458
3.71203
3.19501
0.723964
0.254938
0.111605
0.0140951
-0.032219
0.459953
1.36183
0.823978
-0.078277
0.873886
8.98143
11.4054
11.0646
-0.127718
-0.497861
-0.628785
-0.643407
-0.654624
-0.616021
-0.452115
-0.133517
0.101503
0.821814
1.39735
0.752967
0.614338
2.39775
7.5652
8.53905
3.22119
1.39016
1.43201
1.50202
9.37287
2.01355
1.48924
2.16322
2.09931
2.05558
0.589687
0.56331
0.492211
0.369806
0.176798
-0.10725
-0.474001
-0.891932
-1.27199
1.04246
2.13823
2.06862
-0.11826
-0.501152
-0.460921
-0.038089
0.517776
1.00141
1.39238
1.83559
3.01838
5.96377
6.52338
6.52052
4.80736
1.44795
1.04734
0.99408
0.998089
1.00971
1.02944
1.05862
1.0886
1.12566
1.13505
1.13096
1.11154
3.26783
4.19983
2.43379
0.65699
0.380175
0.185813
0.000705897
-0.0371523
0.900428
2.11108
2.02143
1.95401
1.29279
-0.138481
-0.546525
7.31333
11.0962
2.14623
-0.50111
-0.240973
-0.0735558
-0.378882
-0.329923
-0.257579
0.0546294
0.700371
1.19655
1.3609
1.12748
0.539602
2.5693
7.60059
8.56498
2.00785
1.30936
1.40955
1.54635
11.9818
1.45612
1.24063
2.07639
1.9023
0.91745
0.61831
0.843459
0.574056
0.407831
0.242755
-0.0445862
-0.422501
-0.83774
-1.25281
-1.54034
1.97836
2.06457
2.03722
2.1311
1.07053
0.111874
0.309316
0.829622
1.98931
3.99619
3.30373
3.19494
4.94365
6.4944
6.47611
4.54937
1.10124
0.945188
0.975043
1.0144
1.04198
1.06401
1.09979
1.13987
1.16627
1.18164
1.20653
4.09436
4.4881
2.37821
0.735407
0.352036
0.160158
-0.0262307
0.662682
2.04816
2.04382
1.97377
1.90454
1.7362
-0.0845241
-0.629379
-0.625063
8.82064
7.79436
-0.509357
1.02304
14.9592
2.64183
-0.138762
-0.131809
0.119861
1.03241
1.16044
1.29704
0.846968
0.491612
4.21502
7.11666
8.70682
4.10554
1.3213
1.39004
1.58602
12.6542
1.47493
1.08595
0.965265
0.725575
0.663236
0.665202
0.712095
2.18515
1.52232
0.294085
0.0301557
-0.329799
-0.715546
-1.08462
-1.41871
-1.51528
-0.547783
0.812323
1.0197
1.30105
1.17886
0.109293
0.645146
3.68714
3.94296
4.0891
2.83669
2.62787
5.368
6.5272
6.2126
1.51842
0.839572
0.890793
0.940725
0.981939
1.02179
1.0622
1.10438
1.14544
1.75902
3.10732
3.87502
8.10246
9.56079
4.8839
0.318514
0.0143132
-0.10473
0.320523
0.867601
0.66777