/*--------------------------------*- C++ -*----------------------------------*\
| =========                 |                                                 |
| \\      /  F ield         | OpenFOAM: The Open Source CFD Toolbox           |
|  \\    /   O peration     | Version:  2412                                  |
|   \\  /    A nd           | Website:  www.openfoam.com                      |
|    \\/     M anipulation  |                                                 |
\*---------------------------------------------------------------------------*/
FoamFile
{
    version     2.0;
    format      ascii;
    arch        "LSB;label=32;scalar=64";
    class       volVectorField;
    location    "6.3";
    object      U;
}
// * * * * * * * * * * * * * * * * * * * * * * * * * * * * * * * * * * * * * //

dimensions      [0 1 -1 0 0 0 0];

internalField   nonuniform List<vector> 
6400
(
(-2.07961e-09 1.99277e-09 0)
(-1.21555e-08 3.55578e-09 0)
(-2.82799e-08 4.2705e-09 0)
(-4.71211e-08 4.71566e-09 0)
(-6.73767e-08 4.96939e-09 0)
(-8.85632e-08 5.15679e-09 0)
(-1.10497e-07 5.33421e-09 0)
(-1.33173e-07 5.52192e-09 0)
(-1.56657e-07 5.73267e-09 0)
(-1.81028e-07 5.96632e-09 0)
(-2.06353e-07 6.22148e-09 0)
(-2.32687e-07 6.49062e-09 0)
(-2.60072e-07 6.77003e-09 0)
(-2.8853e-07 7.04844e-09 0)
(-3.18063e-07 7.31785e-09 0)
(-3.48632e-07 7.56438e-09 0)
(-3.80152e-07 7.77697e-09 0)
(-4.12477e-07 7.93738e-09 0)
(-4.45386e-07 8.02822e-09 0)
(-4.78571e-07 8.02453e-09 0)
(-5.11625e-07 7.90144e-09 0)
(-5.44031e-07 7.6274e-09 0)
(-5.75156e-07 7.17046e-09 0)
(-6.04242e-07 6.49343e-09 0)
(-6.30407e-07 5.56044e-09 0)
(-6.52641e-07 4.33478e-09 0)
(-6.69826e-07 2.78625e-09 0)
(-6.80753e-07 8.92359e-10 0)
(-6.84169e-07 -1.35351e-09 0)
(-6.78829e-07 -3.93923e-09 0)
(-6.63575e-07 -6.82709e-09 0)
(-6.37423e-07 -9.95246e-09 0)
(-5.99662e-07 -1.32219e-08 0)
(-5.49948e-07 -1.65171e-08 0)
(-4.88386e-07 -1.97002e-08 0)
(-4.1559e-07 -2.26238e-08 0)
(-3.32705e-07 -2.5142e-08 0)
(-2.4139e-07 -2.71226e-08 0)
(-1.43757e-07 -2.84577e-08 0)
(-4.22763e-08 -2.9074e-08 0)
(6.03546e-08 -2.89393e-08 0)
(1.61367e-07 -2.80647e-08 0)
(2.5808e-07 -2.65042e-08 0)
(3.48051e-07 -2.43502e-08 0)
(4.29215e-07 -2.1724e-08 0)
(4.99984e-07 -1.87593e-08 0)
(5.59293e-07 -1.55945e-08 0)
(6.0661e-07 -1.23723e-08 0)
(6.41919e-07 -9.23086e-09 0)
(6.65682e-07 -6.28268e-09 0)
(6.78752e-07 -3.61135e-09 0)
(6.82218e-07 -1.25882e-09 0)
(6.7726e-07 7.91102e-10 0)
(6.65072e-07 2.59861e-09 0)
(6.4686e-07 4.19276e-09 0)
(6.2383e-07 5.54524e-09 0)
(5.97097e-07 6.60518e-09 0)
(5.6763e-07 7.37378e-09 0)
(5.36255e-07 7.89014e-09 0)
(5.03722e-07 8.20257e-09 0)
(4.70695e-07 8.32743e-09 0)
(4.37714e-07 8.28294e-09 0)
(4.05163e-07 8.08502e-09 0)
(3.73297e-07 7.78491e-09 0)
(3.42276e-07 7.4329e-09 0)
(3.122e-07 7.08905e-09 0)
(2.83115e-07 6.76894e-09 0)
(2.55043e-07 6.48163e-09 0)
(2.27988e-07 6.2074e-09 0)
(2.01953e-07 5.95318e-09 0)
(1.76926e-07 5.71284e-09 0)
(1.52884e-07 5.50234e-09 0)
(1.29776e-07 5.31275e-09 0)
(1.0754e-07 5.14972e-09 0)
(8.61074e-08 4.99353e-09 0)
(6.54574e-08 4.82023e-09 0)
(4.57569e-08 4.54878e-09 0)
(2.76165e-08 4.05459e-09 0)
(1.25844e-08 3.07595e-09 0)
(2.62795e-09 1.31031e-09 0)
(-4.5914e-09 1.04389e-08 0)
(-2.532e-08 2.15782e-08 0)
(-5.64843e-08 2.80031e-08 0)
(-9.33178e-08 3.19789e-08 0)
(-1.33325e-07 3.43171e-08 0)
(-1.75527e-07 3.5961e-08 0)
(-2.19537e-07 3.74095e-08 0)
(-2.65291e-07 3.88545e-08 0)
(-3.1286e-07 4.03674e-08 0)
(-3.62345e-07 4.1978e-08 0)
(-4.13854e-07 4.36755e-08 0)
(-4.67477e-07 4.54468e-08 0)
(-5.23282e-07 4.72594e-08 0)
(-5.81304e-07 4.9077e-08 0)
(-6.41524e-07 5.08379e-08 0)
(-7.03852e-07 5.24777e-08 0)
(-7.68096e-07 5.39052e-08 0)
(-8.33948e-07 5.50177e-08 0)
(-9.0095e-07 5.56795e-08 0)
(-9.68476e-07 5.57368e-08 0)
(-1.0357e-06 5.5002e-08 0)
(-1.1016e-06 5.32698e-08 0)
(-1.16489e-06 5.03064e-08 0)
(-1.22406e-06 4.58681e-08 0)
(-1.27733e-06 3.97039e-08 0)
(-1.32266e-06 3.15828e-08 0)
(-1.3578e-06 2.13092e-08 0)
(-1.38031e-06 8.75914e-09 0)
(-1.38762e-06 -6.09476e-09 0)
(-1.37722e-06 -2.31483e-08 0)
(-1.34673e-06 -4.21442e-08 0)
(-1.29414e-06 -6.26531e-08 0)
(-1.21796e-06 -8.40743e-08 0)
(-1.11747e-06 -1.05651e-07 0)
(-9.92861e-07 -1.26507e-07 0)
(-8.45358e-07 -1.45703e-07 0)
(-6.77282e-07 -1.62305e-07 0)
(-4.92012e-07 -1.75455e-07 0)
(-2.93863e-07 -1.84446e-07 0)
(-8.78875e-08 -1.88783e-07 0)
(1.20401e-07 -1.88231e-07 0)
(3.25347e-07 -1.82838e-07 0)
(5.21495e-07 -1.72928e-07 0)
(7.03897e-07 -1.59061e-07 0)
(8.68384e-07 -1.41986e-07 0)
(1.01176e-06 -1.22579e-07 0)
(1.13189e-06 -1.0176e-07 0)
(1.22773e-06 -8.04233e-08 0)
(1.29925e-06 -5.93968e-08 0)
(1.34737e-06 -3.94138e-08 0)
(1.37375e-06 -2.10477e-08 0)
(1.3805e-06 -4.65226e-09 0)
(1.36999e-06 9.64374e-09 0)
(1.34474e-06 2.1833e-08 0)
(1.30742e-06 3.19472e-08 0)
(1.26059e-06 4.00249e-08 0)
(1.20653e-06 4.61813e-08 0)
(1.14716e-06 5.06071e-08 0)
(1.08411e-06 5.35561e-08 0)
(1.01882e-06 5.52525e-08 0)
(9.52511e-07 5.59074e-08 0)
(8.86115e-07 5.5692e-08 0)
(8.20319e-07 5.48081e-08 0)
(7.55597e-07 5.34319e-08 0)
(6.92328e-07 5.17595e-08 0)
(6.30798e-07 4.99189e-08 0)
(5.71238e-07 4.80348e-08 0)
(5.13787e-07 4.61534e-08 0)
(4.58528e-07 4.43393e-08 0)
(4.05466e-07 4.25985e-08 0)
(3.54573e-07 4.09709e-08 0)
(3.05772e-07 3.94389e-08 0)
(2.5897e-07 3.80131e-08 0)
(2.14053e-07 3.66396e-08 0)
(1.70939e-07 3.52566e-08 0)
(1.29661e-07 3.36294e-08 0)
(9.05639e-08 3.12491e-08 0)
(5.47341e-08 2.71725e-08 0)
(2.47268e-08 2.04339e-08 0)
(4.66969e-09 9.31615e-09 0)
(-5.73662e-09 2.28789e-08 0)
(-3.18812e-08 4.70663e-08 0)
(-7.01639e-08 6.12846e-08 0)
(-1.154e-07 7.0246e-08 0)
(-1.64657e-07 7.57638e-08 0)
(-2.16804e-07 7.97292e-08 0)
(-2.71374e-07 8.32046e-08 0)
(-3.28269e-07 8.66146e-08 0)
(-3.87544e-07 9.01436e-08 0)
(-4.49305e-07 9.38491e-08 0)
(-5.13669e-07 9.77373e-08 0)
(-5.80743e-07 1.01766e-07 0)
(-6.5061e-07 1.05888e-07 0)
(-7.23315e-07 1.10009e-07 0)
(-7.98842e-07 1.1402e-07 0)
(-8.77086e-07 1.17763e-07 0)
(-9.57827e-07 1.21055e-07 0)
(-1.0407e-06 1.23651e-07 0)
(-1.12515e-06 1.25265e-07 0)
(-1.21044e-06 1.25538e-07 0)
(-1.29558e-06 1.24061e-07 0)
(-1.3793e-06 1.20358e-07 0)
(-1.46005e-06 1.13913e-07 0)
(-1.53594e-06 1.04168e-07 0)
(-1.60474e-06 9.0568e-08 0)
(-1.66389e-06 7.25848e-08 0)
(-1.71049e-06 4.97834e-08 0)
(-1.74139e-06 2.18719e-08 0)
(-1.75329e-06 -1.12202e-08 0)
(-1.74284e-06 -4.92823e-08 0)
(-1.7069e-06 -9.17564e-08 0)
(-1.64276e-06 -1.37703e-07 0)
(-1.54836e-06 -1.85786e-07 0)
(-1.42265e-06 -2.34312e-07 0)
(-1.26575e-06 -2.81305e-07 0)
(-1.07915e-06 -3.24631e-07 0)
(-8.65805e-07 -3.62157e-07 0)
(-6.30059e-07 -3.91919e-07 0)
(-3.7752e-07 -4.12288e-07 0)
(-1.14776e-07 -4.22118e-07 0)
(1.50965e-07 -4.20865e-07 0)
(4.12315e-07 -4.08643e-07 0)
(6.62165e-07 -3.86205e-07 0)
(8.94099e-07 -3.54853e-07 0)
(1.10274e-06 -3.16307e-07 0)
(1.284e-06 -2.7257e-07 0)
(1.43524e-06 -2.25742e-07 0)
(1.55522e-06 -1.77843e-07 0)
(1.64399e-06 -1.30716e-07 0)
(1.70283e-06 -8.59611e-08 0)
(1.73402e-06 -4.48259e-08 0)
(1.74045e-06 -8.08243e-09 0)
(1.72521e-06 2.39088e-08 0)
(1.69152e-06 5.10442e-08 0)
(1.64274e-06 7.33429e-08 0)
(1.58216e-06 9.09944e-08 0)
(1.51272e-06 1.04359e-07 0)
(1.43688e-06 1.13949e-07 0)
(1.35668e-06 1.20281e-07 0)
(1.27391e-06 1.23868e-07 0)
(1.19003e-06 1.25156e-07 0)
(1.10623e-06 1.24618e-07 0)
(1.02336e-06 1.22666e-07 0)
(9.42013e-07 1.19728e-07 0)
(8.62621e-07 1.16121e-07 0)
(7.85531e-07 1.12153e-07 0)
(7.10978e-07 1.08e-07 0)
(6.39138e-07 1.03844e-07 0)
(5.70073e-07 9.97549e-08 0)
(5.038e-07 9.58311e-08 0)
(4.40259e-07 9.20705e-08 0)
(3.79373e-07 8.85107e-08 0)
(3.21024e-07 8.50894e-08 0)
(2.65111e-07 8.17647e-08 0)
(2.11559e-07 7.83316e-08 0)
(1.60438e-07 7.4367e-08 0)
(1.12173e-07 6.8777e-08 0)
(6.7921e-08 5.98081e-08 0)
(3.07392e-08 4.55968e-08 0)
(5.4863e-09 2.20852e-08 0)
(-6.15903e-09 3.83433e-08 0)
(-3.49078e-08 7.7934e-08 0)
(-7.67726e-08 1.01048e-07 0)
(-1.26149e-07 1.15696e-07 0)
(-1.79904e-07 1.24955e-07 0)
(-2.36888e-07 1.31751e-07 0)
(-2.96634e-07 1.37732e-07 0)
(-3.59048e-07 1.43594e-07 0)
(-4.24192e-07 1.49614e-07 0)
(-4.9218e-07 1.55913e-07 0)
(-5.63143e-07 1.62489e-07 0)
(-6.37205e-07 1.69308e-07 0)
(-7.14473e-07 1.76273e-07 0)
(-7.95012e-07 1.83265e-07 0)
(-8.78828e-07 1.90089e-07 0)
(-9.65837e-07 1.96512e-07 0)
(-1.05583e-06 2.02214e-07 0)
(-1.14846e-06 2.06814e-07 0)
(-1.24317e-06 2.09821e-07 0)
(-1.33921e-06 2.10658e-07 0)
(-1.43555e-06 2.08632e-07 0)
(-1.53086e-06 2.02964e-07 0)
(-1.62347e-06 1.92777e-07 0)
(-1.71132e-06 1.77148e-07 0)
(-1.79194e-06 1.5513e-07 0)
(-1.86243e-06 1.25833e-07 0)
(-1.91947e-06 8.84935e-08 0)
(-1.95937e-06 4.2591e-08 0)
(-1.97821e-06 -1.20526e-08 0)
(-1.97196e-06 -7.51423e-08 0)
(-1.93674e-06 -1.45811e-07 0)
(-1.86911e-06 -2.22535e-07 0)
(-1.76639e-06 -3.03107e-07 0)
(-1.62703e-06 -3.8468e-07 0)
(-1.45093e-06 -4.639e-07 0)
(-1.23962e-06 -5.37113e-07 0)
(-9.96459e-07 -6.00643e-07 0)
(-7.26525e-07 -6.51087e-07 0)
(-4.36464e-07 -6.85609e-07 0)
(-1.34167e-07 -7.02201e-07 0)
(1.7169e-07 -6.99908e-07 0)
(4.72206e-07 -6.78941e-07 0)
(7.58862e-07 -6.4064e-07 0)
(1.02403e-06 -5.87297e-07 0)
(1.2614e-06 -5.21906e-07 0)
(1.46625e-06 -4.47922e-07 0)
(1.63567e-06 -3.68959e-07 0)
(1.76843e-06 -2.88474e-07 0)
(1.86487e-06 -2.09566e-07 0)
(1.92673e-06 -1.34896e-07 0)
(1.95697e-06 -6.65227e-08 0)
(1.95924e-06 -5.76693e-09 0)
(1.93733e-06 4.67694e-08 0)
(1.89505e-06 9.09574e-08 0)
(1.83626e-06 1.26987e-07 0)
(1.76473e-06 1.55294e-07 0)
(1.68387e-06 1.7659e-07 0)
(1.59645e-06 1.9172e-07 0)
(1.50474e-06 2.01587e-07 0)
(1.41066e-06 2.07019e-07 0)
(1.31583e-06 2.08827e-07 0)
(1.22152e-06 2.07728e-07 0)
(1.12865e-06 2.04441e-07 0)
(1.03784e-06 1.99548e-07 0)
(9.49528e-07 1.9361e-07 0)
(8.63995e-07 1.87016e-07 0)
(7.81475e-07 1.80136e-07 0)
(7.02073e-07 1.73166e-07 0)
(6.25851e-07 1.6632e-07 0)
(5.5277e-07 1.59658e-07 0)
(4.82776e-07 1.53282e-07 0)
(4.15754e-07 1.47152e-07 0)
(3.51601e-07 1.41274e-07 0)
(2.90199e-07 1.35487e-07 0)
(2.31489e-07 1.29554e-07 0)
(1.7554e-07 1.22738e-07 0)
(1.22773e-07 1.13434e-07 0)
(7.43809e-08 9.88635e-08 0)
(3.3592e-08 7.60527e-08 0)
(5.82848e-09 3.74743e-08 0)
(-6.25462e-09 5.50273e-08 0)
(-3.60885e-08 1.11189e-07 0)
(-7.96058e-08 1.43661e-07 0)
(-1.30924e-07 1.64246e-07 0)
(-1.86801e-07 1.77481e-07 0)
(-2.46083e-07 1.87344e-07 0)
(-3.08324e-07 1.96097e-07 0)
(-3.7345e-07 2.04675e-07 0)
(-4.41538e-07 2.1348e-07 0)
(-5.12717e-07 2.22661e-07 0)
(-5.87141e-07 2.32257e-07 0)
(-6.64963e-07 2.42202e-07 0)
(-7.46322e-07 2.52402e-07 0)
(-8.3132e-07 2.62671e-07 0)
(-9.20005e-07 2.72774e-07 0)
(-1.01234e-06 2.82365e-07 0)
(-1.10819e-06 2.91022e-07 0)
(-1.20724e-06 2.98185e-07 0)
(-1.30903e-06 3.03183e-07 0)
(-1.41286e-06 3.05178e-07 0)
(-1.51777e-06 3.03198e-07 0)
(-1.62245e-06 2.96103e-07 0)
(-1.72524e-06 2.82639e-07 0)
(-1.82401e-06 2.61441e-07 0)
(-1.91617e-06 2.3112e-07 0)
(-1.99856e-06 1.90325e-07 0)
(-2.06751e-06 1.3788e-07 0)
(-2.11883e-06 7.29128e-08 0)
(-2.14797e-06 -4.95744e-09 0)
(-2.15013e-06 -9.54533e-08 0)
(-2.12055e-06 -1.97449e-07 0)
(-2.05487e-06 -3.08835e-07 0)
(-1.94955e-06 -4.26446e-07 0)
(-1.80229e-06 -5.46107e-07 0)
(-1.6125e-06 -6.62812e-07 0)
(-1.38163e-06 -7.7105e-07 0)
(-1.11332e-06 -8.65232e-07 0)
(-8.13348e-07 -9.40155e-07 0)
(-4.89492e-07 -9.91446e-07 0)
(-1.51094e-07 -1.01598e-06 0)
(1.91467e-07 -1.01227e-06 0)
(5.27533e-07 -9.80646e-07 0)
(8.4697e-07 -9.23245e-07 0)
(1.14085e-06 -8.43655e-07 0)
(1.4019e-06 -7.465e-07 0)
(1.62483e-06 -6.37055e-07 0)
(1.8066e-06 -5.20812e-07 0)
(1.94625e-06 -4.02958e-07 0)
(2.04457e-06 -2.88065e-07 0)
(2.10399e-06 -1.79967e-07 0)
(2.12835e-06 -8.161e-08 0)
(2.12228e-06 5.16165e-09 0)
(2.09047e-06 7.9564e-08 0)
(2.03737e-06 1.41593e-07 0)
(1.96728e-06 1.91689e-07 0)
(1.88445e-06 2.3067e-07 0)
(1.79261e-06 2.59635e-07 0)
(1.69479e-06 2.79899e-07 0)
(1.59334e-06 2.92768e-07 0)
(1.49025e-06 2.99518e-07 0)
(1.38711e-06 3.01272e-07 0)
(1.28524e-06 2.99111e-07 0)
(1.18553e-06 2.93947e-07 0)
(1.08856e-06 2.86655e-07 0)
(9.9467e-07 2.77898e-07 0)
(9.04117e-07 2.68302e-07 0)
(8.17004e-07 2.58256e-07 0)
(7.3341e-07 2.48146e-07 0)
(6.533e-07 2.38141e-07 0)
(5.76626e-07 2.28448e-07 0)
(5.03267e-07 2.19087e-07 0)
(4.3312e-07 2.10132e-07 0)
(3.66042e-07 2.0147e-07 0)
(3.01928e-07 1.92997e-07 0)
(2.40697e-07 1.84282e-07 0)
(1.82422e-07 1.7442e-07 0)
(1.2751e-07 1.61155e-07 0)
(7.71566e-08 1.40761e-07 0)
(3.47238e-08 1.08778e-07 0)
(5.90087e-09 5.39012e-08 0)
(-6.20618e-09 7.20091e-08 0)
(-3.6285e-08 1.45264e-07 0)
(-8.0286e-08 1.87347e-07 0)
(-1.32249e-07 2.14008e-07 0)
(-1.8889e-07 2.31338e-07 0)
(-2.49048e-07 2.44414e-07 0)
(-3.12296e-07 2.56082e-07 0)
(-3.78575e-07 2.67559e-07 0)
(-4.47983e-07 2.79329e-07 0)
(-5.2067e-07 2.9162e-07 0)
(-5.96819e-07 3.04469e-07 0)
(-6.76622e-07 3.17844e-07 0)
(-7.60262e-07 3.31604e-07 0)
(-8.47899e-07 3.4556e-07 0)
(-9.39646e-07 3.59394e-07 0)
(-1.03555e-06 3.72706e-07 0)
(-1.13556e-06 3.84933e-07 0)
(-1.23949e-06 3.95386e-07 0)
(-1.347e-06 4.03172e-07 0)
(-1.45753e-06 4.07228e-07 0)
(-1.57024e-06 4.06253e-07 0)
(-1.68396e-06 3.98761e-07 0)
(-1.79711e-06 3.83053e-07 0)
(-1.90759e-06 3.57292e-07 0)
(-2.01273e-06 3.19544e-07 0)
(-2.1092e-06 2.67906e-07 0)
(-2.19299e-06 2.00635e-07 0)
(-2.25939e-06 1.1636e-07 0)
(-2.30311e-06 1.4304e-08 0)
(-2.31842e-06 -1.05433e-07 0)
(-2.29942e-06 -2.41607e-07 0)
(-2.24051e-06 -3.91573e-07 0)
(-2.13687e-06 -5.5115e-07 0)
(-1.98508e-06 -7.14631e-07 0)
(-1.78377e-06 -8.75023e-07 0)
(-1.53407e-06 -1.02452e-06 0)
(-1.23984e-06 -1.15512e-06 0)
(-9.07699e-07 -1.25934e-06 0)
(-5.46782e-07 -1.3308e-06 0)
(-1.68305e-07 -1.36488e-06 0)
(2.15105e-07 -1.35934e-06 0)
(5.90414e-07 -1.31467e-06 0)
(9.45368e-07 -1.23409e-06 0)
(1.2694e-06 -1.12294e-06 0)
(1.55414e-06 -9.87997e-07 0)
(1.79369e-06 -8.3684e-07 0)
(1.98502e-06 -6.77324e-07 0)
(2.1277e-06 -5.16787e-07 0)
(2.22338e-06 -3.61513e-07 0)
(2.27545e-06 -2.16599e-07 0)
(2.28895e-06 -8.58363e-08 0)
(2.26984e-06 2.84665e-08 0)
(2.22394e-06 1.25478e-07 0)
(2.15648e-06 2.05427e-07 0)
(2.07234e-06 2.69205e-07 0)
(1.97616e-06 3.18109e-07 0)
(1.87203e-06 3.5381e-07 0)
(1.76314e-06 3.78131e-07 0)
(1.6519e-06 3.92943e-07 0)
(1.5402e-06 3.99941e-07 0)
(1.42961e-06 4.00712e-07 0)
(1.3213e-06 3.96599e-07 0)
(1.21612e-06 3.88858e-07 0)
(1.11452e-06 3.7849e-07 0)
(1.01675e-06 3.66423e-07 0)
(9.22894e-07 3.53307e-07 0)
(8.32998e-07 3.39748e-07 0)
(7.46988e-07 3.26083e-07 0)
(6.64798e-07 3.12665e-07 0)
(5.86273e-07 2.99607e-07 0)
(5.11289e-07 2.87079e-07 0)
(4.39674e-07 2.75029e-07 0)
(3.71298e-07 2.63455e-07 0)
(3.06013e-07 2.52083e-07 0)
(2.43749e-07 2.40491e-07 0)
(1.84555e-07 2.27415e-07 0)
(1.28846e-07 2.10106e-07 0)
(7.78151e-08 1.83718e-07 0)
(3.48803e-08 1.42316e-07 0)
(5.83513e-09 7.05936e-08 0)
(-6.08392e-09 8.89087e-08 0)
(-3.58883e-08 1.7942e-07 0)
(-7.96101e-08 2.31248e-07 0)
(-1.31369e-07 2.64069e-07 0)
(-1.87886e-07 2.8559e-07 0)
(-2.48005e-07 3.01962e-07 0)
(-3.11306e-07 3.16665e-07 0)
(-3.77746e-07 3.31152e-07 0)
(-4.47439e-07 3.46049e-07 0)
(-5.20565e-07 3.61611e-07 0)
(-5.9734e-07 3.77951e-07 0)
(-6.78002e-07 3.95014e-07 0)
(-7.62797e-07 4.12693e-07 0)
(-8.51954e-07 4.30742e-07 0)
(-9.45679e-07 4.48839e-07 0)
(-1.04413e-06 4.66483e-07 0)
(-1.14739e-06 4.83046e-07 0)
(-1.25543e-06 4.97668e-07 0)
(-1.36811e-06 5.09299e-07 0)
(-1.48505e-06 5.16605e-07 0)
(-1.60564e-06 5.18005e-07 0)
(-1.72891e-06 5.1161e-07 0)
(-1.85346e-06 4.95279e-07 0)
(-1.97729e-06 4.66611e-07 0)
(-2.09777e-06 4.23055e-07 0)
(-2.21144e-06 3.61992e-07 0)
(-2.31397e-06 2.80938e-07 0)
(-2.40011e-06 1.77768e-07 0)
(-2.46372e-06 5.10484e-08 0)
(-2.49787e-06 -9.9585e-08 0)
(-2.49522e-06 -2.72995e-07 0)
(-2.44842e-06 -4.66145e-07 0)
(-2.35082e-06 -6.73805e-07 0)
(-2.19734e-06 -8.88498e-07 0)
(-1.98534e-06 -1.10079e-06 0)
(-1.71534e-06 -1.29995e-06 0)
(-1.39141e-06 -1.47491e-06 0)
(-1.02113e-06 -1.61518e-06 0)
(-6.15359e-07 -1.71173e-06 0)
(-1.87807e-07 -1.75783e-06 0)
(2.45761e-07 -1.75008e-06 0)
(6.68939e-07 -1.68914e-06 0)
(1.06649e-06 -1.57977e-06 0)
(1.42571e-06 -1.42976e-06 0)
(1.73687e-06 -1.24875e-06 0)
(1.99345e-06 -1.04736e-06 0)
(2.19257e-06 -8.36513e-07 0)
(2.33476e-06 -6.26289e-07 0)
(2.42305e-06 -4.25103e-07 0)
(2.46233e-06 -2.3942e-07 0)
(2.45927e-06 -7.37909e-08 0)
(2.42153e-06 6.92453e-08 0)
(2.3564e-06 1.89021e-07 0)
(2.27013e-06 2.86287e-07 0)
(2.16821e-06 3.62584e-07 0)
(2.05575e-06 4.19966e-07 0)
(1.93712e-06 4.60777e-07 0)
(1.81567e-06 4.87548e-07 0)
(1.69371e-06 5.02703e-07 0)
(1.57303e-06 5.08525e-07 0)
(1.45498e-06 5.06969e-07 0)
(1.34062e-06 4.99806e-07 0)
(1.23055e-06 4.88467e-07 0)
(1.12511e-06 4.74254e-07 0)
(1.02434e-06 4.5813e-07 0)
(9.28208e-07 4.40983e-07 0)
(8.36555e-07 4.23368e-07 0)
(7.49246e-07 4.05828e-07 0)
(6.66056e-07 3.88606e-07 0)
(5.86807e-07 3.71996e-07 0)
(5.11267e-07 3.56023e-07 0)
(4.39269e-07 3.40782e-07 0)
(3.70612e-07 3.26093e-07 0)
(3.05165e-07 3.11775e-07 0)
(2.42814e-07 2.97157e-07 0)
(1.83628e-07 2.80834e-07 0)
(1.28002e-07 2.59362e-07 0)
(7.71422e-08 2.26923e-07 0)
(3.4449e-08 1.75941e-07 0)
(5.69141e-09 8.72283e-08 0)
(-5.90776e-09 1.0552e-07 0)
(-3.50771e-08 2.13199e-07 0)
(-7.79783e-08 2.7478e-07 0)
(-1.28913e-07 3.13805e-07 0)
(-1.84656e-07 3.3957e-07 0)
(-2.4406e-07 3.59322e-07 0)
(-3.06714e-07 3.77123e-07 0)
(-3.72582e-07 3.94731e-07 0)
(-4.41798e-07 4.12856e-07 0)
(-5.14572e-07 4.31865e-07 0)
(-5.91157e-07 4.51879e-07 0)
(-6.71847e-07 4.72921e-07 0)
(-7.56955e-07 4.94851e-07 0)
(-8.46804e-07 5.17465e-07 0)
(-9.4171e-07 5.40379e-07 0)
(-1.04197e-06 5.63087e-07 0)
(-1.14784e-06 5.84848e-07 0)
(-1.25952e-06 6.04725e-07 0)
(-1.37706e-06 6.2147e-07 0)
(-1.50041e-06 6.3356e-07 0)
(-1.62922e-06 6.39091e-07 0)
(-1.76283e-06 6.35817e-07 0)
(-1.90011e-06 6.21086e-07 0)
(-2.03932e-06 5.91908e-07 0)
(-2.17793e-06 5.44969e-07 0)
(-2.31249e-06 4.76782e-07 0)
(-2.43843e-06 3.83848e-07 0)
(-2.54995e-06 2.62974e-07 0)
(-2.63994e-06 1.11663e-07 0)
(-2.70007e-06 -7.13253e-08 0)
(-2.72104e-06 -2.85362e-07 0)
(-2.69315e-06 -5.27278e-07 0)
(-2.60716e-06 -7.90832e-07 0)
(-2.45547e-06 -1.06649e-06 0)
(-2.23347e-06 -1.34175e-06 0)
(-1.94067e-06 -1.6021e-06 0)
(-1.58125e-06 -1.83239e-06 0)
(-1.16395e-06 -2.01828e-06 0)
(-7.01739e-07 -2.14707e-06 0)
(-2.11635e-07 -2.20895e-06 0)
(2.86164e-07 -2.19867e-06 0)
(7.70309e-07 -2.11703e-06 0)
(1.22126e-06 -1.971e-06 0)
(1.62343e-06 -1.7719e-06 0)
(1.96551e-06 -1.53331e-06 0)
(2.24031e-06 -1.26992e-06 0)
(2.44529e-06 -9.96658e-07 0)
(2.58254e-06 -7.27276e-07 0)
(2.65729e-06 -4.72927e-07 0)
(2.67681e-06 -2.41668e-07 0)
(2.65005e-06 -3.85852e-08 0)
(2.58684e-06 1.33943e-07 0)
(2.49631e-06 2.75913e-07 0)
(2.38592e-06 3.88971e-07 0)
(2.26189e-06 4.75726e-07 0)
(2.12971e-06 5.39228e-07 0)
(1.99402e-06 5.82792e-07 0)
(1.85814e-06 6.097e-07 0)
(1.72429e-06 6.23119e-07 0)
(1.59396e-06 6.25829e-07 0)
(1.46826e-06 6.20322e-07 0)
(1.3479e-06 6.08625e-07 0)
(1.2333e-06 5.9253e-07 0)
(1.12449e-06 5.734e-07 0)
(1.02136e-06 5.52458e-07 0)
(9.23621e-07 5.30534e-07 0)
(8.31002e-07 5.08402e-07 0)
(7.43156e-07 4.86481e-07 0)
(6.59808e-07 4.65211e-07 0)
(5.80624e-07 4.44717e-07 0)
(5.05363e-07 4.25196e-07 0)
(4.33749e-07 4.06544e-07 0)
(3.65596e-07 3.88718e-07 0)
(3.00705e-07 3.71301e-07 0)
(2.3899e-07 3.53656e-07 0)
(1.80482e-07 3.33971e-07 0)
(1.25602e-07 3.08332e-07 0)
(7.55286e-08 2.69769e-07 0)
(3.36137e-08 2.09218e-07 0)
(5.49246e-09 1.03596e-07 0)
(-5.67954e-09 1.21706e-07 0)
(-3.39314e-08 2.46261e-07 0)
(-7.55878e-08 3.17512e-07 0)
(-1.25206e-07 3.62724e-07 0)
(-1.7965e-07 3.92782e-07 0)
(-2.37791e-07 4.15951e-07 0)
(-2.9922e-07 4.36922e-07 0)
(-3.63906e-07 4.57699e-07 0)
(-4.32e-07 4.79169e-07 0)
(-5.03744e-07 5.01737e-07 0)
(-5.79434e-07 5.25637e-07 0)
(-6.59421e-07 5.50894e-07 0)
(-7.44098e-07 5.77455e-07 0)
(-8.33891e-07 6.05084e-07 0)
(-9.2925e-07 6.33449e-07 0)
(-1.03063e-06 6.61985e-07 0)
(-1.13851e-06 6.89952e-07 0)
(-1.25332e-06 7.16296e-07 0)
(-1.37543e-06 7.39684e-07 0)
(-1.5051e-06 7.58375e-07 0)
(-1.6424e-06 7.70234e-07 0)
(-1.78706e-06 7.72621e-07 0)
(-1.93838e-06 7.62411e-07 0)
(-2.095e-06 7.35926e-07 0)
(-2.25472e-06 6.89006e-07 0)
(-2.41425e-06 6.17056e-07 0)
(-2.56894e-06 5.15271e-07 0)
(-2.71252e-06 3.78935e-07 0)
(-2.83688e-06 2.03956e-07 0)
(-2.93202e-06 -1.24272e-08 0)
(-2.98618e-06 -2.70707e-07 0)
(-2.98646e-06 -5.68071e-07 0)
(-2.9199e-06 -8.97431e-07 0)
(-2.77518e-06 -1.24687e-06 0)
(-2.54465e-06 -1.59995e-06 0)
(-2.22616e-06 -1.93706e-06 0)
(-1.8239e-06 -2.23773e-06 0)
(-1.3479e-06 -2.48254e-06 0)
(-8.13632e-07 -2.65384e-06 0)
(-2.42359e-07 -2.73717e-06 0)
(3.39363e-07 -2.72415e-06 0)
(9.02772e-07 -2.61567e-06 0)
(1.42199e-06 -2.42208e-06 0)
(1.87759e-06 -2.15987e-06 0)
(2.25645e-06 -1.84806e-06 0)
(2.55076e-06 -1.50671e-06 0)
(2.75862e-06 -1.15614e-06 0)
(2.88445e-06 -8.14992e-07 0)
(2.93698e-06 -4.9805e-07 0)
(2.92715e-06 -2.15261e-07 0)
(2.86725e-06 2.80218e-08 0)
(2.76999e-06 2.3029e-07 0)
(2.64663e-06 3.92922e-07 0)
(2.50601e-06 5.19163e-07 0)
(2.35502e-06 6.13151e-07 0)
(2.1995e-06 6.79399e-07 0)
(2.04408e-06 7.22378e-07 0)
(1.89198e-06 7.46393e-07 0)
(1.74508e-06 7.55297e-07 0)
(1.60453e-06 7.52544e-07 0)
(1.47096e-06 7.40984e-07 0)
(1.34477e-06 7.2308e-07 0)
(1.22595e-06 7.00729e-07 0)
(1.11429e-06 6.7558e-07 0)
(1.00936e-06 6.48798e-07 0)
(9.10694e-07 6.21435e-07 0)
(8.1776e-07 5.94119e-07 0)
(7.30123e-07 5.67469e-07 0)
(6.47298e-07 5.41729e-07 0)
(5.68923e-07 5.1721e-07 0)
(4.94606e-07 4.93881e-07 0)
(4.24077e-07 4.718e-07 0)
(3.57049e-07 4.5067e-07 0)
(2.93349e-07 4.30184e-07 0)
(2.32836e-07 4.09392e-07 0)
(1.75578e-07 3.86372e-07 0)
(1.21965e-07 3.56487e-07 0)
(7.31805e-08 3.11855e-07 0)
(3.24628e-08 2.41794e-07 0)
(5.24769e-09 1.19566e-07 0)
(-5.39836e-09 1.37346e-07 0)
(-3.24873e-08 2.78334e-07 0)
(-7.25465e-08 3.59079e-07 0)
(-1.20435e-07 4.10436e-07 0)
(-1.73134e-07 4.44787e-07 0)
(-2.29534e-07 4.71417e-07 0)
(-2.89226e-07 4.95567e-07 0)
(-3.52175e-07 5.19571e-07 0)
(-4.18551e-07 5.44424e-07 0)
(-4.88622e-07 5.70681e-07 0)
(-5.62735e-07 5.98603e-07 0)
(-6.41302e-07 6.28342e-07 0)
(-7.24798e-07 6.59846e-07 0)
(-8.13763e-07 6.92984e-07 0)
(-9.08789e-07 7.27404e-07 0)
(-1.01053e-06 7.62616e-07 0)
(-1.11967e-06 7.97832e-07 0)
(-1.23695e-06 8.32019e-07 0)
(-1.36309e-06 8.63739e-07 0)
(-1.49876e-06 8.91167e-07 0)
(-1.64451e-06 9.11929e-07 0)
(-1.80061e-06 9.23099e-07 0)
(-1.96695e-06 9.21042e-07 0)
(-2.14279e-06 9.01407e-07 0)
(-2.32651e-06 8.59036e-07 0)
(-2.51527e-06 7.88042e-07 0)
(-2.70462e-06 6.81919e-07 0)
(-2.88806e-06 5.33902e-07 0)
(-3.05657e-06 3.37546e-07 0)
(-3.19827e-06 8.76744e-08 0)
(-3.29839e-06 -2.18318e-07 0)
(-3.33975e-06 -5.78826e-07 0)
(-3.3041e-06 -9.86342e-07 0)
(-3.1745e-06 -1.42624e-06 0)
(-2.93856e-06 -1.87685e-06 0)
(-2.59156e-06 -2.31158e-06 0)
(-2.13764e-06 -2.70278e-06 0)
(-1.58827e-06 -3.02475e-06 0)
(-9.61456e-07 -3.25324e-06 0)
(-2.83675e-07 -3.3665e-06 0)
(4.09254e-07 -3.35073e-06 0)
(1.07707e-06 -3.20677e-06 0)
(1.68443e-06 -2.95056e-06 0)
(2.2069e-06 -2.60637e-06 0)
(2.62966e-06 -2.20062e-06 0)
(2.94437e-06 -1.76024e-06 0)
(3.15021e-06 -1.3128e-06 0)
(3.25499e-06 -8.83539e-07 0)
(3.27276e-06 -4.92057e-07 0)
(3.22017e-06 -1.5058e-07 0)
(3.11451e-06 1.35748e-07 0)
(2.97222e-06 3.67233e-07 0)
(2.80707e-06 5.47787e-07 0)
(2.62919e-06 6.83171e-07 0)
(2.44606e-06 7.79828e-07 0)
(2.26348e-06 8.44154e-07 0)
(2.08588e-06 8.82197e-07 0)
(1.91601e-06 8.99335e-07 0)
(1.75527e-06 9.00327e-07 0)
(1.60417e-06 8.89134e-07 0)
(1.46288e-06 8.6913e-07 0)
(1.33118e-06 8.42942e-07 0)
(1.20871e-06 8.12775e-07 0)
(1.09481e-06 7.80225e-07 0)
(9.88815e-07 7.46668e-07 0)
(8.89913e-07 7.12985e-07 0)
(7.97445e-07 6.7999e-07 0)
(7.10709e-07 6.4807e-07 0)
(6.29166e-07 6.17655e-07 0)
(5.52258e-07 5.8879e-07 0)
(4.79587e-07 5.61622e-07 0)
(4.10744e-07 5.35925e-07 0)
(3.45465e-07 5.11548e-07 0)
(2.83489e-07 4.87874e-07 0)
(2.24717e-07 4.64003e-07 0)
(1.69178e-07 4.37557e-07 0)
(1.17296e-07 4.03489e-07 0)
(7.02076e-08 3.528e-07 0)
(3.10478e-08 2.73431e-07 0)
(4.95753e-09 1.35017e-07 0)
(-5.05982e-09 1.52312e-07 0)
(-3.0767e-08 3.09155e-07 0)
(-6.89304e-08 3.99168e-07 0)
(-1.14743e-07 4.56564e-07 0)
(-1.65307e-07 4.95201e-07 0)
(-2.1954e-07 5.25267e-07 0)
(-2.77019e-07 5.52606e-07 0)
(-3.37707e-07 5.7981e-07 0)
(-4.01778e-07 6.08091e-07 0)
(-4.69536e-07 6.38069e-07 0)
(-5.41373e-07 6.70163e-07 0)
(-6.17767e-07 7.04552e-07 0)
(-6.9928e-07 7.41331e-07 0)
(-7.86561e-07 7.80384e-07 0)
(-8.80358e-07 8.21491e-07 0)
(-9.81513e-07 8.64172e-07 0)
(-1.09098e-06 9.0775e-07 0)
(-1.20979e-06 9.51186e-07 0)
(-1.33907e-06 9.93103e-07 0)
(-1.47998e-06 1.0316e-06 0)
(-1.63363e-06 1.06424e-06 0)
(-1.80101e-06 1.08782e-06 0)
(-1.98279e-06 1.09833e-06 0)
(-2.17912e-06 1.0907e-06 0)
(-2.38933e-06 1.05877e-06 0)
(-2.61148e-06 9.95115e-07 0)
(-2.8418e-06 8.91174e-07 0)
(-3.07401e-06 7.37461e-07 0)
(-3.2985e-06 5.24233e-07 0)
(-3.50153e-06 2.42599e-07 0)
(-3.66478e-06 -1.13666e-07 0)
(-3.76543e-06 -5.45646e-07 0)
(-3.7777e-06 -1.04635e-06 0)
(-3.67612e-06 -1.59822e-06 0)
(-3.4408e-06 -2.17251e-06 0)
(-3.06301e-06 -2.73252e-06 0)
(-2.54718e-06 -3.24081e-06 0)
(-1.90642e-06 -3.66469e-06 0)
(-1.16035e-06 -3.97142e-06 0)
(-3.41205e-07 -4.12756e-06 0)
(5.0134e-07 -4.10902e-06 0)
(1.30836e-06 -3.91656e-06 0)
(2.03011e-06 -3.57631e-06 0)
(2.6363e-06 -3.1247e-06 0)
(3.11116e-06 -2.59778e-06 0)
(3.44619e-06 -2.03077e-06 0)
(3.64194e-06 -1.46106e-06 0)
(3.71134e-06 -9.23041e-07 0)
(3.67637e-06 -4.42644e-07 0)
(3.56238e-06 -3.46277e-08 0)
(3.39396e-06 2.96913e-07 0)
(3.19259e-06 5.55598e-07 0)
(2.97478e-06 7.49382e-07 0)
(2.75177e-06 8.87901e-07 0)
(2.531e-06 9.80803e-07 0)
(2.31789e-06 1.03706e-06 0)
(2.11605e-06 1.06451e-06 0)
(1.92745e-06 1.06991e-06 0)
(1.75257e-06 1.05879e-06 0)
(1.5912e-06 1.03577e-06 0)
(1.44269e-06 1.00446e-06 0)
(1.30628e-06 9.67806e-07 0)
(1.18099e-06 9.27972e-07 0)
(1.0658e-06 8.86729e-07 0)
(9.59598e-07 8.45248e-07 0)
(8.61394e-07 8.04557e-07 0)
(7.70196e-07 7.65196e-07 0)
(6.8522e-07 7.27711e-07 0)
(6.05684e-07 6.92225e-07 0)
(5.3101e-07 6.58958e-07 0)
(4.60623e-07 6.27734e-07 0)
(3.94131e-07 5.98496e-07 0)
(3.31149e-07 5.70756e-07 0)
(2.71454e-07 5.44015e-07 0)
(2.14879e-07 5.1699e-07 0)
(1.61509e-07 4.8722e-07 0)
(1.11735e-07 4.48937e-07 0)
(6.67021e-08 3.92343e-07 0)
(2.93947e-08 3.03861e-07 0)
(4.62399e-09 1.49833e-07 0)
(-4.66219e-09 1.66465e-07 0)
(-2.87923e-08 3.38481e-07 0)
(-6.48258e-08 4.3747e-07 0)
(-1.08283e-07 5.00774e-07 0)
(-1.56384e-07 5.43606e-07 0)
(-2.08057e-07 5.77074e-07 0)
(-2.62876e-07 6.07512e-07 0)
(-3.20784e-07 6.37878e-07 0)
(-3.81966e-07 6.69519e-07 0)
(-4.46753e-07 7.03248e-07 0)
(-5.15586e-07 7.39541e-07 0)
(-5.89005e-07 7.78748e-07 0)
(-6.67653e-07 8.21004e-07 0)
(-7.52295e-07 8.66368e-07 0)
(-8.43817e-07 9.14669e-07 0)
(-9.43263e-07 9.65603e-07 0)
(-1.05183e-06 1.01856e-06 0)
(-1.17089e-06 1.07269e-06 0)
(-1.30197e-06 1.12667e-06 0)
(-1.44679e-06 1.17875e-06 0)
(-1.60713e-06 1.22646e-06 0)
(-1.78482e-06 1.26657e-06 0)
(-1.98157e-06 1.29474e-06 0)
(-2.19878e-06 1.30537e-06 0)
(-2.43719e-06 1.29126e-06 0)
(-2.69637e-06 1.24339e-06 0)
(-2.97398e-06 1.15075e-06 0)
(-3.26477e-06 1.00047e-06 0)
(-3.55927e-06 7.78289e-07 0)
(-3.84234e-06 4.69871e-07 0)
(-4.09175e-06 6.30543e-08 0)
(-4.2776e-06 -4.48458e-07 0)
(-4.36338e-06 -1.06021e-06 0)
(-4.31048e-06 -1.75187e-06 0)
(-4.08665e-06 -2.48484e-06 0)
(-3.6769e-06 -3.20692e-06 0)
(-3.08752e-06 -3.86681e-06 0)
(-2.33373e-06 -4.42594e-06 0)
(-1.43353e-06 -4.84185e-06 0)
(-4.2362e-07 -5.06093e-06 0)
(6.24728e-07 -5.03873e-06 0)
(1.62023e-06 -4.77601e-06 0)
(2.49084e-06 -4.31944e-06 0)
(3.20101e-06 -3.72542e-06 0)
(3.73685e-06 -3.04164e-06 0)
(4.09001e-06 -2.31178e-06 0)
(4.26231e-06 -1.58709e-06 0)
(4.27449e-06 -9.15183e-07 0)
(4.1608e-06 -3.30097e-07 0)
(3.95953e-06 1.51242e-07 0)
(3.70581e-06 5.27604e-07 0)
(3.4276e-06 8.08264e-07 0)
(3.14427e-06 1.00741e-06 0)
(2.8674e-06 1.14017e-06 0)
(2.60367e-06 1.22058e-06 0)
(2.35705e-06 1.26073e-06 0)
(2.12976e-06 1.27067e-06 0)
(1.92225e-06 1.25844e-06 0)
(1.73382e-06 1.23047e-06 0)
(1.56311e-06 1.19171e-06 0)
(1.40862e-06 1.14612e-06 0)
(1.26875e-06 1.09658e-06 0)
(1.14196e-06 1.04535e-06 0)
(1.02667e-06 9.93951e-07 0)
(9.21471e-07 9.43634e-07 0)
(8.2499e-07 8.95089e-07 0)
(7.3611e-07 8.48963e-07 0)
(6.53757e-07 8.05441e-07 0)
(5.77118e-07 7.64795e-07 0)
(5.05403e-07 7.26879e-07 0)
(4.38049e-07 6.91687e-07 0)
(3.74513e-07 6.58793e-07 0)
(3.14442e-07 6.27865e-07 0)
(2.57514e-07 5.98013e-07 0)
(2.03612e-07 5.68013e-07 0)
(1.52776e-07 5.34896e-07 0)
(1.05452e-07 4.92553e-07 0)
(6.27433e-08 4.3013e-07 0)
(2.75325e-08 3.32851e-07 0)
(4.24898e-09 1.63841e-07 0)
(-4.21037e-09 1.79659e-07 0)
(-2.66102e-08 3.66073e-07 0)
(-6.03595e-08 4.73727e-07 0)
(-1.01274e-07 5.42729e-07 0)
(-1.46648e-07 5.89618e-07 0)
(-1.95409e-07 6.26331e-07 0)
(-2.47125e-07 6.59753e-07 0)
(-3.01735e-07 6.93113e-07 0)
(-3.5943e-07 7.28028e-07 0)
(-4.20568e-07 7.65402e-07 0)
(-4.85636e-07 8.05904e-07 0)
(-5.55229e-07 8.49942e-07 0)
(-6.30067e-07 8.97847e-07 0)
(-7.11004e-07 9.49745e-07 0)
(-7.99066e-07 1.00568e-06 0)
(-8.9546e-07 1.06547e-06 0)
(-1.00163e-06 1.12876e-06 0)
(-1.11925e-06 1.19485e-06 0)
(-1.2503e-06 1.26273e-06 0)
(-1.39703e-06 1.33083e-06 0)
(-1.562e-06 1.39696e-06 0)
(-1.74801e-06 1.45796e-06 0)
(-1.95808e-06 1.50952e-06 0)
(-2.19523e-06 1.54566e-06 0)
(-2.46219e-06 1.55838e-06 0)
(-2.76087e-06 1.5371e-06 0)
(-3.09144e-06 1.46822e-06 0)
(-3.45099e-06 1.3348e-06 0)
(-3.83164e-06 1.11679e-06 0)
(-4.21803e-06 7.92062e-07 0)
(-4.5845e-06 3.39155e-07 0)
(-4.89266e-06 -2.57763e-07 0)
(-5.09116e-06 -1.00077e-06 0)
(-5.12067e-06 -1.86831e-06 0)
(-4.92778e-06 -2.80795e-06 0)
(-4.48707e-06 -3.74206e-06 0)
(-3.81116e-06 -4.59788e-06 0)
(-2.91919e-06 -5.3376e-06 0)
(-1.81839e-06 -5.90979e-06 0)
(-5.44111e-07 -6.22516e-06 0)
(7.96712e-07 -6.19569e-06 0)
(2.05319e-06 -5.82338e-06 0)
(3.11749e-06 -5.19898e-06 0)
(3.95429e-06 -4.41373e-06 0)
(4.55921e-06 -3.52671e-06 0)
(4.92359e-06 -2.58594e-06 0)
(5.04926e-06 -1.66402e-06 0)
(4.96988e-06 -8.29052e-07 0)
(4.73929e-06 -1.24669e-07 0)
(4.41506e-06 4.3235e-07 0)
(4.04673e-06 8.4742e-07 0)
(3.67003e-06 1.13923e-06 0)
(3.30657e-06 1.33108e-06 0)
(2.967e-06 1.4455e-06 0)
(2.6556e-06 1.5019e-06 0)
(2.37374e-06 1.51608e-06 0)
(2.12098e-06 1.50028e-06 0)
(1.89569e-06 1.46385e-06 0)
(1.69533e-06 1.41375e-06 0)