/*--------------------------------*- C++ -*----------------------------------*\
| =========                 |                                                 |
| \\      /  F ield         | OpenFOAM: The Open Source CFD Toolbox           |
|  \\    /   O peration     | Version:  2412                                  |
|   \\  /    A nd           | Website:  www.openfoam.com                      |
|    \\/     M anipulation  |                                                 |
\*---------------------------------------------------------------------------*/
FoamFile
{
    version     2.0;
    format      ascii;
    arch        "LSB;label=32;scalar=64";
    class       volVectorField;
    location    "9.95";
    object      U;
}
// * * * * * * * * * * * * * * * * * * * * * * * * * * * * * * * * * * * * * //

dimensions      [0 1 -1 0 0 0 0];

internalField   nonuniform List<vector> 
6400
(
(-2.36598e-05 -0.00048522 0)
(0.00145668 -0.000939824 0)
(0.00309151 -0.000836268 0)
(0.0043096 -0.000735678 0)
(0.00560115 -0.00069946 0)
(0.00693606 -0.000698123 0)
(0.00837677 -0.000709305 0)
(0.00988645 -0.000716813 0)
(0.011469 -0.000728234 0)
(0.0131171 -0.000740259 0)
(0.0148188 -0.000750755 0)
(0.0165388 -0.000768513 0)
(0.0182353 -0.000750627 0)
(0.0198717 -0.000705677 0)
(0.021407 -0.000647796 0)
(0.0228291 -0.000601729 0)
(0.0241016 -0.000542956 0)
(0.025204 -0.000467267 0)
(0.0261253 -0.000374132 0)
(0.0268293 -0.000263994 0)
(0.0272893 -0.000135044 0)
(0.0274906 1.31413e-05 0)
(0.027418 0.000180713 0)
(0.0270549 0.000368567 0)
(0.0263969 0.000563953 0)
(0.0254428 0.00075583 0)
(0.0242289 0.000907502 0)
(0.0228087 0.000991653 0)
(0.0212414 0.00101357 0)
(0.0195927 0.000986059 0)
(0.0179132 0.000953766 0)
(0.0162127 0.000925264 0)
(0.0144995 0.000877553 0)
(0.0128232 0.000768901 0)
(0.0112427 0.000615273 0)
(0.00981174 0.00042977 0)
(0.00853725 0.000248636 0)
(0.00740042 8.93442e-05 0)
(0.0063698 -2.81211e-05 0)
(0.00541918 -9.52521e-05 0)
(0.00447972 -0.000104416 0)
(0.00349697 -6.38888e-05 0)
(0.00243622 4.11058e-05 0)
(0.00123146 0.000193284 0)
(-0.000162343 0.000394054 0)
(-0.0017678 0.000624781 0)
(-0.00360454 0.000869463 0)
(-0.00566781 0.00108267 0)
(-0.00789004 0.00122708 0)
(-0.0102182 0.00130481 0)
(-0.0125797 0.00135527 0)
(-0.0149087 0.00136928 0)
(-0.0171726 0.0013483 0)
(-0.0193181 0.00125245 0)
(-0.021263 0.00109133 0)
(-0.0229133 0.000890546 0)
(-0.0242431 0.000679676 0)
(-0.0252557 0.000486178 0)
(-0.0259633 0.000318044 0)
(-0.0263866 0.000170908 0)
(-0.0265471 4.67781e-05 0)
(-0.0264711 -5.30304e-05 0)
(-0.0261966 -0.000130531 0)
(-0.0257517 -0.000192342 0)
(-0.0251414 -0.000258525 0)
(-0.0243779 -0.000337311 0)
(-0.0234643 -0.000407925 0)
(-0.022418 -0.000465156 0)
(-0.0212542 -0.000520484 0)
(-0.0199471 -0.000604875 0)
(-0.0184918 -0.000709959 0)
(-0.0168568 -0.000796471 0)
(-0.0150857 -0.000882246 0)
(-0.013209 -0.000936459 0)
(-0.0112596 -0.000984221 0)
(-0.00929095 -0.00103805 0)
(-0.00727598 -0.00110726 0)
(-0.00522187 -0.00123493 0)
(-0.00264596 -0.00135006 0)
(-0.000353626 -0.000831906 0)
(-0.000326495 -0.000834439 0)
(0.000843966 -0.00217887 0)
(0.00200915 -0.00189726 0)
(0.00287492 -0.0017728 0)
(0.00395377 -0.00187553 0)
(0.00518954 -0.00204165 0)
(0.00666065 -0.00222108 0)
(0.00829966 -0.00238773 0)
(0.0100914 -0.00253059 0)
(0.012022 -0.00263253 0)
(0.0140229 -0.0026842 0)
(0.0160233 -0.00270285 0)
(0.0179819 -0.00264364 0)
(0.0198986 -0.00250749 0)
(0.0217096 -0.00233577 0)
(0.0233662 -0.00213931 0)
(0.0248432 -0.00188797 0)
(0.0261084 -0.00160053 0)
(0.0271371 -0.00127575 0)
(0.0279152 -0.000921389 0)
(0.028441 -0.000544634 0)
(0.0287202 -0.000150886 0)
(0.0287599 0.000251507 0)
(0.0285693 0.000656565 0)
(0.0281832 0.0010523 0)
(0.0276208 0.00142222 0)
(0.0268934 0.00174675 0)
(0.0260131 0.00200425 0)
(0.0249556 0.00220445 0)
(0.0237245 0.00234495 0)
(0.0223501 0.00245204 0)
(0.0208442 0.00251368 0)
(0.0192397 0.00254779 0)
(0.0175838 0.00251198 0)
(0.0158644 0.00242933 0)
(0.0140803 0.00231008 0)
(0.0122354 0.00218403 0)
(0.0103268 0.00207412 0)
(0.00835873 0.00200242 0)
(0.00635815 0.00197295 0)
(0.00431091 0.00201058 0)
(0.0022149 0.00209545 0)
(7.7328e-05 0.00222897 0)
(-0.00209674 0.00241138 0)
(-0.00428382 0.00262006 0)
(-0.00645654 0.00284436 0)
(-0.00860685 0.00306601 0)
(-0.0107268 0.00324845 0)
(-0.0127936 0.00336215 0)
(-0.0148277 0.00339271 0)
(-0.0168207 0.00336748 0)
(-0.0187003 0.00326712 0)
(-0.0204427 0.00310065 0)
(-0.0220464 0.00284095 0)
(-0.0234918 0.00250483 0)
(-0.0247793 0.00210768 0)
(-0.0258918 0.00167495 0)
(-0.0267904 0.00124414 0)
(-0.0274517 0.000822737 0)
(-0.0278642 0.000414371 0)
(-0.0280171 3.55115e-05 0)
(-0.0279065 -0.000309978 0)
(-0.0275398 -0.000616782 0)
(-0.0269352 -0.000892477 0)
(-0.0261105 -0.00114713 0)
(-0.0250935 -0.00139691 0)
(-0.0239115 -0.0016168 0)
(-0.0225771 -0.00180558 0)
(-0.0211052 -0.00199856 0)
(-0.0195083 -0.00220606 0)
(-0.0177947 -0.00242658 0)
(-0.0159712 -0.00260785 0)
(-0.0140682 -0.00276451 0)
(-0.0121087 -0.00285936 0)
(-0.0101419 -0.00290003 0)
(-0.00821112 -0.00290183 0)
(-0.00632056 -0.00296361 0)
(-0.00449376 -0.00326078 0)
(-0.00218042 -0.00361734 0)
(-8.32361e-05 -0.0019916 0)
(-0.000273324 -0.00104609 0)
(0.00098737 -0.00333953 0)
(0.0022657 -0.00288191 0)
(0.00319819 -0.00274508 0)
(0.00432329 -0.00301313 0)
(0.00559671 -0.0034031 0)
(0.00707419 -0.00379362 0)
(0.00871883 -0.00413026 0)
(0.010507 -0.00442016 0)
(0.0124114 -0.0046272 0)
(0.0143782 -0.00472119 0)
(0.016355 -0.00472141 0)
(0.0183104 -0.00460637 0)
(0.0201982 -0.00439946 0)
(0.0219737 -0.00411602 0)
(0.0236187 -0.00374648 0)
(0.0250898 -0.00328982 0)
(0.0263618 -0.00277873 0)
(0.0274122 -0.00221036 0)
(0.028217 -0.00160049 0)
(0.0287643 -0.000969478 0)
(0.02905 -0.000325879 0)
(0.0290733 0.000314249 0)
(0.0288371 0.000937741 0)
(0.0283562 0.00153129 0)
(0.0276445 0.00207341 0)
(0.0267223 0.0025602 0)
(0.0256145 0.00297842 0)
(0.0243262 0.00335059 0)
(0.0228848 0.00366587 0)
(0.0213257 0.00391236 0)
(0.019685 0.00406632 0)
(0.0180041 0.00415161 0)
(0.0163079 0.00416497 0)
(0.0146206 0.00413732 0)
(0.0129295 0.00408664 0)
(0.0112361 0.00402512 0)
(0.00955166 0.00397196 0)
(0.00786293 0.00395346 0)
(0.00617222 0.0039785 0)
(0.00446335 0.00406384 0)
(0.0026934 0.00420202 0)
(0.000853002 0.0043707 0)
(-0.00107734 0.00457542 0)
(-0.00309877 0.00479869 0)
(-0.00517827 0.00499678 0)
(-0.0073212 0.0051812 0)
(-0.00950649 0.00532605 0)
(-0.0117044 0.00543319 0)
(-0.0139119 0.00542219 0)
(-0.0161147 0.005311 0)
(-0.0182343 0.00508411 0)
(-0.0202179 0.0047602 0)
(-0.0220383 0.00435355 0)
(-0.0236584 0.00386359 0)
(-0.0250656 0.00329502 0)
(-0.0262331 0.00266617 0)
(-0.0271377 0.00200671 0)
(-0.0277747 0.00133088 0)
(-0.0281352 0.000657696 0)
(-0.028225 1.1056e-05 0)
(-0.0280503 -0.000591844 0)
(-0.0276243 -0.00114942 0)
(-0.0269767 -0.00165734 0)
(-0.0261584 -0.00211456 0)
(-0.0252092 -0.0025247 0)
(-0.0241206 -0.00288233 0)
(-0.0229013 -0.00321041 0)
(-0.0215537 -0.00353603 0)
(-0.0200752 -0.00385733 0)
(-0.0184639 -0.0041844 0)
(-0.0167018 -0.00447303 0)
(-0.0148047 -0.00471633 0)
(-0.012783 -0.00486111 0)
(-0.0107113 -0.00489164 0)
(-0.00867614 -0.00482206 0)
(-0.00668943 -0.00486164 0)
(-0.00472022 -0.00532807 0)
(-0.00224731 -0.00592557 0)
(-8.30841e-05 -0.00301671 0)
(-0.000334592 -0.00141802 0)
(0.000888736 -0.00468536 0)
(0.00216811 -0.00401152 0)
(0.00304896 -0.00378167 0)
(0.00409341 -0.00418114 0)
(0.00530467 -0.00476783 0)
(0.00678522 -0.00533782 0)
(0.0084721 -0.00584296 0)
(0.0103242 -0.00626397 0)
(0.012322 -0.00655218 0)
(0.0143909 -0.00670043 0)
(0.0164864 -0.0066825 0)
(0.0185429 -0.00653347 0)
(0.0205158 -0.00624802 0)
(0.0223893 -0.00584282 0)
(0.0241119 -0.00531547 0)
(0.0256385 -0.00468278 0)
(0.0269544 -0.00396076 0)
(0.0280415 -0.00315924 0)
(0.0288705 -0.00229414 0)
(0.0294304 -0.00139337 0)
(0.0297088 -0.000473124 0)
(0.0297032 0.000455212 0)
(0.0294142 0.00136469 0)
(0.0288478 0.00223297 0)
(0.0280164 0.00304172 0)
(0.026934 0.00376534 0)
(0.0256528 0.00439141 0)
(0.0241998 0.00491644 0)
(0.0226008 0.00534124 0)
(0.0209026 0.00563601 0)
(0.019145 0.00583248 0)
(0.0173449 0.00591127 0)
(0.0155373 0.00590892 0)
(0.0137797 0.0058257 0)
(0.0120769 0.00571335 0)
(0.0104354 0.00558428 0)
(0.00888575 0.0054716 0)
(0.00742782 0.00539738 0)
(0.00601072 0.00541016 0)
(0.00461512 0.00551711 0)
(0.00317281 0.00573163 0)
(0.00160882 0.00601867 0)
(-9.472e-05 0.00637175 0)
(-0.00197681 0.00674785 0)
(-0.00401713 0.00709176 0)
(-0.00619909 0.00739122 0)
(-0.00848392 0.00762575 0)
(-0.0108355 0.00778271 0)
(-0.0132153 0.0077977 0)
(-0.0155885 0.00767063 0)
(-0.0179078 0.00736672 0)
(-0.0201066 0.00689425 0)
(-0.0221497 0.00627109 0)
(-0.0239723 0.00552905 0)
(-0.0255342 0.00468272 0)
(-0.0268102 0.00376543 0)
(-0.0277843 0.00280523 0)
(-0.0284504 0.00182921 0)
(-0.0288039 0.000863465 0)
(-0.0288588 -6.64898e-05 0)
(-0.0286381 -0.000926771 0)
(-0.0281651 -0.00170858 0)
(-0.0274779 -0.00239261 0)
(-0.0266348 -0.00299521 0)
(-0.0256657 -0.00352435 0)
(-0.0245679 -0.00399615 0)
(-0.0233473 -0.00445047 0)
(-0.022011 -0.00490554 0)
(-0.0205654 -0.00535652 0)
(-0.0189572 -0.0058234 0)
(-0.0171571 -0.006285 0)
(-0.0151739 -0.00668537 0)
(-0.0130317 -0.00694398 0)
(-0.0108504 -0.00698829 0)
(-0.00873188 -0.0068724 0)
(-0.00668424 -0.00689949 0)
(-0.00466018 -0.00757083 0)
(-0.00215081 -0.00835278 0)
(-1.68853e-05 -0.00412624 0)
(-0.000484741 -0.00156962 0)
(0.000641425 -0.00588094 0)
(0.00183805 -0.00500499 0)
(0.00257209 -0.00467217 0)
(0.00348286 -0.0052522 0)
(0.00464942 -0.00607791 0)
(0.0061437 -0.0069129 0)
(0.00791874 -0.00766849 0)
(0.00993752 -0.00826472 0)
(0.0120979 -0.00867212 0)
(0.0143378 -0.00886744 0)
(0.0166008 -0.00886606 0)
(0.0188179 -0.00867895 0)
(0.0209664 -0.00827988 0)
(0.0229841 -0.00772812 0)
(0.0248291 -0.00701615 0)
(0.026466 -0.00617065 0)
(0.0278697 -0.00521109 0)
(0.0290237 -0.00415686 0)
(0.0299051 -0.00302417 0)
(0.0304977 -0.00183639 0)
(0.0307913 -0.000617793 0)
(0.030774 0.000609364 0)
(0.0304413 0.00181089 0)
(0.0298115 0.00295812 0)
(0.0288964 0.00401815 0)
(0.0277216 0.00496763 0)
(0.0263346 0.00579653 0)
(0.0247637 0.00648046 0)
(0.0230306 0.00703236 0)
(0.0212107 0.00742917 0)
(0.0193406 0.00768504 0)
(0.0174229 0.00778108 0)
(0.0154969 0.00776417 0)
(0.0136382 0.00763551 0)
(0.0118843 0.00742936 0)
(0.0102296 0.00718442 0)
(0.00870727 0.00696722 0)
(0.00731863 0.00680372 0)
(0.00601951 0.00676561 0)
(0.00477575 0.00688237 0)
(0.00347931 0.00718788 0)
(0.00203364 0.00763022 0)
(0.000394767 0.00817034 0)
(-0.00147913 0.00873504 0)
(-0.00356228 0.0092594 0)
(-0.00582522 0.00969318 0)
(-0.0082267 0.0100381 0)
(-0.0107317 0.0102278 0)
(-0.0132757 0.0102553 0)
(-0.0158213 0.010085 0)
(-0.0183141 0.00970295 0)
(-0.0206799 0.00908919 0)
(-0.022874 0.00827071 0)
(-0.0248349 0.00728521 0)
(-0.0265202 0.00615228 0)
(-0.0278904 0.00492361 0)
(-0.0289226 0.00363594 0)
(-0.0296025 0.00232776 0)
(-0.0299317 0.00103249 0)
(-0.029927 -0.000203147 0)
(-0.0296189 -0.00134415 0)
(-0.0290472 -0.00236369 0)
(-0.0282681 -0.00322694 0)
(-0.027342 -0.00396507 0)
(-0.0262981 -0.00461515 0)
(-0.0251441 -0.0052065 0)
(-0.0238996 -0.00576357 0)
(-0.0225739 -0.00632668 0)
(-0.0211412 -0.00689709 0)
(-0.0195377 -0.00753367 0)
(-0.0176881 -0.00820756 0)
(-0.01558 -0.00881018 0)
(-0.0132384 -0.00917358 0)
(-0.0108357 -0.00918707 0)
(-0.00857886 -0.0089619 0)
(-0.00648911 -0.00893072 0)
(-0.00445403 -0.00979992 0)
(-0.00194601 -0.0107074 0)
(0.000112278 -0.00505683 0)
(-0.000641624 -0.00149613 0)
(0.000340931 -0.00694755 0)
(0.00134028 -0.00587272 0)
(0.0018804 -0.0054002 0)
(0.00263229 -0.0062103 0)
(0.00373586 -0.00739569 0)
(0.00526458 -0.00859124 0)
(0.0071909 -0.00962867 0)
(0.00940212 -0.010423 0)
(0.0117946 -0.0109528 0)
(0.0142602 -0.011215 0)
(0.0167394 -0.0112299 0)
(0.0191927 -0.0109708 0)
(0.0215475 -0.0104647 0)
(0.0237443 -0.00975304 0)
(0.0257453 -0.00884675 0)
(0.027521 -0.0077752 0)
(0.0290463 -0.00656177 0)
(0.0303006 -0.00523328 0)
(0.0312631 -0.00380974 0)
(0.0319162 -0.00231104 0)
(0.0322368 -0.000766566 0)
(0.0322111 0.000789904 0)
(0.0318396 0.00232016 0)
(0.0311337 0.00378495 0)
(0.0301161 0.00513348 0)
(0.0288159 0.0063377 0)
(0.027274 0.00737257 0)
(0.0255437 0.00823079 0)
(0.0236661 0.00890238 0)
(0.0216876 0.00939383 0)
(0.0196491 0.0096725 0)
(0.017584 0.00977321 0)
(0.0155445 0.0096901 0)
(0.0135833 0.00948954 0)
(0.0117428 0.0091586 0)
(0.0100587 0.00877349 0)
(0.00856192 0.00838437 0)
(0.00724186 0.00808401 0)
(0.00606706 0.00796189 0)
(0.00498693 0.00808081 0)
(0.00384821 0.00849636 0)
(0.0025012 0.00913607 0)
(0.000909054 0.00990958 0)
(-0.000968648 0.0107154 0)
(-0.00312347 0.0114658 0)
(-0.00548846 0.0121002 0)
(-0.00804217 0.0125974 0)
(-0.010742 0.0128681 0)
(-0.0135005 0.0129366 0)
(-0.0162736 0.012737 0)
(-0.0189973 0.012268 0)
(-0.0215839 0.0115007 0)
(-0.0239704 0.0104664 0)
(-0.0261037 0.00919788 0)
(-0.0279266 0.00774605 0)
(-0.0293975 0.00616444 0)
(-0.0304855 0.00450735 0)
(-0.0311663 0.00281315 0)
(-0.0314443 0.00114552 0)
(-0.0313445 -0.000430269 0)
(-0.0309138 -0.00186846 0)
(-0.0301981 -0.0031281 0)
(-0.0292712 -0.00417476 0)
(-0.0281991 -0.0050395 0)
(-0.0270207 -0.00578699 0)
(-0.0257844 -0.00645274 0)
(-0.0245273 -0.0070566 0)
(-0.0232558 -0.00767349 0)
(-0.0219148 -0.00837848 0)
(-0.0203712 -0.00924124 0)
(-0.0184917 -0.0102178 0)
(-0.0161901 -0.011121 0)
(-0.0135198 -0.0116425 0)
(-0.0107846 -0.0116094 0)
(-0.00828299 -0.0111892 0)
(-0.00611881 -0.0110041 0)
(-0.00413558 -0.0120126 0)
(-0.00168461 -0.0130388 0)
(0.00030661 -0.00578375 0)
(-0.000807493 -0.00120572 0)
(4.91363e-05 -0.00782636 0)
(0.000808441 -0.00650267 0)
(0.00100361 -0.00587514 0)
(0.0014364 -0.00702744 0)
(0.00244489 -0.00870578 0)
(0.00404926 -0.0103731 0)
(0.00619436 -0.0117875 0)
(0.0087063 -0.0128133 0)
(0.0113855 -0.0135049 0)
(0.0141405 -0.0138472 0)
(0.0169357 -0.0138508 0)
(0.019668 -0.013515 0)
(0.0222711 -0.0128742 0)
(0.0246952 -0.0119697 0)
(0.026885 -0.0108372 0)
(0.0288254 -0.00952181 0)
(0.0304994 -0.00804368 0)
(0.0318786 -0.00642124 0)
(0.0329461 -0.00467807 0)
(0.0336747 -0.00283713 0)
(0.0340313 -0.00093284 0)
(0.0339982 0.000995863 0)
(0.0335765 0.00289321 0)
(0.032777 0.00470391 0)
(0.0316248 0.00637231 0)
(0.0301619 0.00785122 0)
(0.0284399 0.00911257 0)
(0.0265119 0.0101495 0)
(0.0244287 0.0109553 0)
(0.0222385 0.0115195 0)
(0.0199912 0.0118385 0)
(0.0177166 0.011918 0)
(0.0154984 0.0117845 0)
(0.0134054 0.0114489 0)
(0.0114596 0.0109603 0)
(0.00971999 0.0103712 0)
(0.00825322 0.00976598 0)
(0.00706374 0.00924638 0)
(0.00609269 0.0089963 0)
(0.0052513 0.009103 0)
(0.00434665 0.00965867 0)
(0.00318687 0.0105568 0)
(0.00167746 0.0116514 0)
(-0.000217228 0.0127609 0)
(-0.00245625 0.0138024 0)
(-0.00496111 0.0146771 0)
(-0.00772991 0.0153299 0)
(-0.010684 0.0157367 0)
(-0.0137149 0.0158678 0)
(-0.0167892 0.0156553 0)
(-0.0198122 0.0150884 0)
(-0.0226909 0.0141499 0)
(-0.0253523 0.0128665 0)
(-0.0277225 0.0112874 0)
(-0.0297306 0.0094759 0)
(-0.0313263 0.00748944 0)
(-0.0324751 0.00539869 0)
(-0.0331478 0.00326112 0)
(-0.0333473 0.00116981 0)
(-0.0331158 -0.000790164 0)
(-0.0325077 -0.00255441 0)
(-0.0315907 -0.00407172 0)
(-0.0304461 -0.0053108 0)
(-0.0291543 -0.00629438 0)
(-0.0278023 -0.00709182 0)
(-0.026478 -0.00774949 0)
(-0.0252252 -0.00832923 0)
(-0.024047 -0.0089593 0)
(-0.022871 -0.00977303 0)
(-0.0215085 -0.0108998 0)
(-0.0196715 -0.0123266 0)
(-0.0171272 -0.0137196 0)
(-0.0139598 -0.0145422 0)
(-0.0106512 -0.0144388 0)
(-0.00773693 -0.0136051 0)
(-0.00552276 -0.0130285 0)
(-0.00374511 -0.0140803 0)
(-0.00139138 -0.0152754 0)
(0.000539171 -0.00625817 0)
(-0.000920872 -0.000711014 0)
(-0.000316133 -0.00852965 0)
(0.000270304 -0.00678294 0)
(-6.0744e-05 -0.00594466 0)
(-0.000154035 -0.00759635 0)
(0.000698143 -0.00995728 0)
(0.00239784 -0.0123086 0)
(0.00486866 -0.0142296 0)
(0.00776494 -0.0155447 0)
(0.0108493 -0.0164137 0)
(0.0140234 -0.0168061 0)
(0.0172024 -0.0168058 0)
(0.0202994 -0.0163655 0)
(0.0232076 -0.0155386 0)
(0.0258844 -0.0144042 0)
(0.0282893 -0.0130248 0)
(0.0304069 -0.0114386 0)
(0.0322493 -0.00967882 0)
(0.0337874 -0.00774335 0)
(0.0349901 -0.00565343 0)
(0.0358171 -0.00343305 0)
(0.0362254 -0.00111974 0)
(0.0361926 0.00123096 0)
(0.035714 0.00354831 0)
(0.0348025 0.0057524 0)
(0.0334852 0.00778197 0)
(0.0318154 0.00956867 0)
(0.0298533 0.0110838 0)
(0.0276715 0.0123135 0)
(0.025331 0.0132517 0)
(0.0228762 0.0138913 0)
(0.0203514 0.0142339 0)
(0.017822 0.0142736 0)
(0.0153621 0.0140745 0)
(0.0130524 0.0135649 0)
(0.0109678 0.0128543 0)
(0.00918537 0.0119703 0)
(0.00776822 0.011029 0)
(0.00672298 0.010211 0)
(0.00603885 0.00976523 0)
(0.00559699 0.00981525 0)
(0.00505563 0.0105457 0)
(0.00414689 0.0118017 0)
(0.00275257 0.0133409 0)
(0.000859817 0.0148855 0)
(-0.00150012 0.0162812 0)
(-0.00424296 0.0174535 0)
(-0.00727639 0.0183268 0)
(-0.0105286 0.0188945 0)
(-0.0139226 0.0191143 0)
(-0.0173782 0.018908 0)
(-0.0207862 0.018255 0)
(-0.0240473 0.0171315 0)
(-0.0270637 0.0155732 0)
(-0.0297425 0.0136338 0)
(-0.0319907 0.0113922 0)
(-0.0337423 0.00891719 0)
(-0.0349556 0.00631172 0)
(-0.0356029 0.00365605 0)
(-0.0356956 0.00106813 0)
(-0.0352802 -0.00133522 0)
(-0.0344227 -0.00347171 0)
(-0.0332115 -0.00527776 0)
(-0.031756 -0.00670968 0)
(-0.0301729 -0.00778152 0)
(-0.0285937 -0.00855446 0)
(-0.0271498 -0.00910405 0)
(-0.0259122 -0.009542 0)
(-0.0248922 -0.0100501 0)
(-0.0240351 -0.0109141 0)
(-0.0230475 -0.0123783 0)
(-0.0213607 -0.0144989 0)
(-0.0184992 -0.0167476 0)
(-0.0145234 -0.0181333 0)
(-0.010256 -0.017924 0)
(-0.00675086 -0.0163394 0)
(-0.00453505 -0.0149227 0)
(-0.00298957 -0.015953 0)
(-0.000745098 -0.0174235 0)
(0.000710959 -0.006436 0)
(-0.000772628 8.02128e-05 0)
(-0.001153 -0.00903358 0)
(-0.000812756 -0.00677015 0)
(-0.00141349 -0.00538305 0)
(-0.00222537 -0.0077622 0)
(-0.0016448 -0.011159 0)
(0.000275687 -0.0144913 0)
(0.00333654 -0.0170679 0)
(0.00676248 -0.0187117 0)
(0.0102684 -0.0197558 0)
(0.013907 -0.0202542 0)
(0.0175969 -0.0201991 0)
(0.0211876 -0.0195955 0)
(0.02448 -0.0185154 0)
(0.0274296 -0.0170867 0)
(0.0300583 -0.0154201 0)
(0.0323726 -0.0135487 0)
(0.0343917 -0.0114864 0)
(0.0361053 -0.00922538 0)
(0.0374685 -0.00676475 0)
(0.0384243 -0.00412203 0)
(0.03891 -0.00134367 0)
(0.0388865 0.00149199 0)
(0.0383361 0.00429191 0)
(0.0372752 0.00696046 0)
(0.0357409 0.00940638 0)
(0.0338051 0.0115518 0)
(0.0315531 0.0133434 0)
(0.0290585 0.0147718 0)
(0.0263955 0.0158506 0)
(0.0236151 0.0165658 0)
(0.0207597 0.0169354 0)
(0.0179216 0.0169424 0)
(0.01515 0.016584 0)
(0.0125761 0.0158859 0)
(0.010316 0.0148495 0)
(0.00839268 0.0135875 0)
(0.00690007 0.0121887 0)
(0.0059414 0.0109459 0)
(0.00569427 0.010116 0)
(0.00613187 0.0100494 0)
(0.00630333 0.0110765 0)
(0.00568644 0.0128603 0)
(0.00429011 0.0149735 0)
(0.00224665 0.0170856 0)
(-0.000304601 0.0189592 0)
(-0.00329172 0.0205003 0)
(-0.00667026 0.021665 0)
(-0.0103081 0.0224396 0)
(-0.0141237 0.0227758 0)
(-0.0180452 0.0226013 0)
(-0.0219407 0.0218661 0)
(-0.0256901 0.0205433 0)
(-0.0291668 0.0186624 0)
(-0.0322392 0.0162952 0)
(-0.0347918 0.013547 0)
(-0.0367312 0.0104757 0)
(-0.0380162 0.00724837 0)
(-0.0386343 0.0039718 0)
(-0.038582 0.00079273 0)
(-0.0379123 -0.00213805 0)
(-0.0367113 -0.00471549 0)
(-0.035096 -0.00684675 0)
(-0.0332157 -0.00846678 0)
(-0.0312424 -0.00957501 0)
(-0.0293584 -0.010229 0)
(-0.0277246 -0.0105426 0)
(-0.0264525 -0.0106682 0)
(-0.0256684 -0.0108702 0)
(-0.0253409 -0.0116069 0)
(-0.025133 -0.0134312 0)
(-0.0242202 -0.0166108 0)
(-0.0212531 -0.0203177 0)
(-0.0155777 -0.0227058 0)
(-0.00897651 -0.0222168 0)
(-0.00419052 -0.0194721 0)
(-0.00192101 -0.0167407 0)
(-0.000413693 -0.0176468 0)
(0.00116356 -0.0190842 0)
(0.000771217 -0.00604204 0)
(0.000270354 0.00122668 0)
(-0.00242779 -0.00838648 0)
(-0.00363251 -0.00654381 0)
(-0.00386241 -0.00441471 0)
(-0.00545343 -0.00739083 0)
(-0.00520293 -0.0123078 0)
(-0.00264125 -0.017153 0)
(0.0018938 -0.0204727 0)
(0.00645995 -0.0222074 0)
(0.0102321 -0.0234509 0)
(0.0139418 -0.0242542 0)
(0.0180188 -0.0242207 0)
(0.0221828 -0.0233464 0)
(0.0259817 -0.0218617 0)
(0.0292755 -0.020035 0)
(0.0321589 -0.0180233 0)
(0.0347224 -0.0158505 0)
(0.0369967 -0.0134873 0)
(0.0389525 -0.0108968 0)
(0.0405323 -0.00804541 0)
(0.0416622 -0.00493253 0)
(0.0422527 -0.00161964 0)
(0.0422354 0.00178441 0)
(0.0415855 0.00515886 0)
(0.0403274 0.00837874 0)
(0.0385184 0.0113197 0)
(0.0362446 0.0138489 0)
(0.0336057 0.0159304 0)
(0.030732 0.0175719 0)
(0.0276969 0.0188036 0)
(0.024545 0.0196199 0)
(0.0213072 0.0200233 0)
(0.0180459 0.0199461 0)
(0.0149142 0.0194148 0)
(0.0120084 0.018461 0)
(0.00937058 0.0170509 0)
(0.00697917 0.0153903 0)
(0.00502519 0.0134964 0)
(0.00411274 0.0114513 0)
(0.00479581 0.00957986 0)
(0.0068685 0.00920351 0)
(0.00848626 0.0110033 0)
(0.00844327 0.0138562 0)
(0.00682516 0.0168067 0)
(0.00426605 0.0195222 0)
(0.00122335 0.0219047 0)
(-0.00217285 0.023875 0)
(-0.0059216 0.025402 0)
(-0.00999535 0.0264522 0)
(-0.0143356 0.0269433 0)
(-0.0188359 0.026825 0)
(-0.023347 0.0260167 0)
(-0.0277174 0.0244742 0)
(-0.0317663 0.0222296 0)
(-0.0353099 0.0193482 0)
(-0.0382547 0.0159688 0)
(-0.0404611 0.0122077 0)
(-0.0418477 0.00821926 0)
(-0.0424307 0.00418391 0)
(-0.0421887 0.000285688 0)
(-0.0411827 -0.00328428 0)
(-0.0395249 -0.00638606 0)
(-0.0373601 -0.00888166 0)
(-0.0348885 -0.0107046 0)
(-0.0323435 -0.01179 0)
(-0.0299768 -0.0122026 0)
(-0.0279978 -0.0120797 0)
(-0.0265657 -0.0116677 0)
(-0.0259777 -0.0112994 0)
(-0.0267578 -0.011498 0)
(-0.02909 -0.0132491 0)
(-0.0309783 -0.0176013 0)
(-0.0283332 -0.0243129 0)
(-0.0194586 -0.0294928 0)
(-0.00764681 -0.0286307 0)
(0.00153483 -0.0231659 0)
(0.00491234 -0.0183558 0)
(0.00609166 -0.0185692 0)
(0.00503914 -0.018602 0)
(0.00091828 -0.0042289 0)
(0.00162586 0.00224088 0)
(-0.00319584 -0.00484824 0)
(-0.00843409 -0.00528315 0)
(-0.00872149 -0.00336835 0)
(-0.0113317 -0.00639429 0)
(-0.0120163 -0.0136274 0)
(-0.00888759 -0.0213517 0)
(-0.00254824 -0.0258483 0)
(0.00457678 -0.0267565 0)
(0.0103787 -0.0271891 0)
(0.0146724 -0.0281573 0)
(0.0185892 -0.0286316 0)
(0.0227728 -0.0276768 0)
(0.0268819 -0.0256902 0)
(0.0305363 -0.0233385 0)
(0.0338059 -0.0209535 0)
(0.0368544 -0.0184932 0)
(0.0396778 -0.0158217 0)
(0.0421419 -0.0128661 0)
(0.0441202 -0.00957189 0)
(0.0455329 -0.00591476 0)
(0.0462952 -0.00197019 0)
(0.0463319 0.00212394 0)
(0.0455965 0.00620465 0)
(0.0441054 0.010089 0)
(0.0419074 0.0135898 0)
(0.0391438 0.0165606 0)
(0.0360107 0.0189512 0)
(0.0326651 0.0208158 0)
(0.0292105 0.0221927 0)
(0.0256658 0.0231309 0)
(0.0219887 0.0235389 0)
(0.0182995 0.0234006 0)
(0.0147252 0.0226792 0)
(0.0111965 0.0214552 0)
(0.00772355 0.019863 0)
(0.00443405 0.017899 0)
(0.00205136 0.015089 0)
(0.00176646 0.0112249 0)
(0.00392457 0.00731706 0)
(0.0075919 0.00631956 0)
(0.0110244 0.00949545 0)
(0.0123342 0.0145645 0)
(0.0108413 0.0192396 0)
(0.00747085 0.0227647 0)
(0.00341721 0.0254536 0)
(-0.000758859 0.0276968 0)
(-0.00507163 0.0295921 0)
(-0.00967698 0.0309911 0)
(-0.0146148 0.0317487 0)
(-0.0198016 0.0317522 0)
(-0.0250792 0.0308845 0)
(-0.0302314 0.0291082 0)
(-0.0350168 0.0264044 0)
(-0.0391968 0.0229017 0)
(-0.042611 0.0187514 0)
(-0.0451441 0.0141529 0)
(-0.0466884 0.0092606 0)
(-0.0472197 0.00428153 0)
(-0.0467205 -0.000528389 0)
(-0.0452555 -0.00490413 0)
(-0.042934 -0.00865603 0)
(-0.0399345 -0.0116086 0)
(-0.0364864 -0.0136433 0)
(-0.0329332 -0.0146958 0)
(-0.029683 -0.014784 0)
(-0.027036 -0.0141131 0)
(-0.0253306 -0.0128417 0)
(-0.0255341 -0.0108827 0)
(-0.0292047 -0.00860886 0)
(-0.0356476 -0.00895937 0)
(-0.0397122 -0.0166162 0)
(-0.0361271 -0.0313001 0)
(-0.0248696 -0.043156 0)
(-0.00882303 -0.0431331 0)
(0.00759906 -0.0318307 0)
(0.0155846 -0.0206129 0)
(0.0159611 -0.0170918 0)
(0.00960157 -0.0138833 0)
(0.00142681 6.92271e-05 0)
(0.000388232 0.00289982 0)
(-0.00173303 0.00159732 0)
(-0.0120618 -0.000933307 0)
(-0.0161036 -0.00107241 0)
(-0.0209567 -0.00401812 0)
(-0.0250075 -0.0144314 0)
(-0.0255183 -0.0262208 0)
(-0.0216899 -0.0333316 0)
(-0.012406 -0.034971 0)
(0.000677273 -0.0337448 0)
(0.0125312 -0.0326217 0)
(0.0202899 -0.032412 0)
(0.0249976 -0.0316582 0)
(0.0283852 -0.0295498 0)
(0.0314725 -0.0268874 0)
(0.0346138 -0.0243476 0)
(0.0380169 -0.0218105 0)
(0.0415654 -0.0188969 0)
(0.0448493 -0.0154795 0)
(0.0475103 -0.0115738 0)
(0.0493976 -0.00722251 0)
(0.0504823 -0.00250044 0)
(0.0507309 0.00244048 0)
(0.0500333 0.00740078 0)
(0.0482915 0.0121381 0)
(0.0455528 0.0163623 0)
(0.0420528 0.0198851 0)
(0.0381744 0.0225818 0)
(0.0342603 0.0245452 0)
(0.0304271 0.0259724 0)
(0.0265738 0.0269778 0)
(0.0225993 0.0274811 0)
(0.0184912 0.0273861 0)
(0.0142329 0.0265678 0)
(0.00979532 0.0253862 0)
(0.00535759 0.023802 0)
(0.0016564 0.021003 0)
(0.000109339 0.0160302 0)
(0.00138482 0.00938049 0)
(0.00459981 0.00345803 0)
(0.00852766 0.00179556 0)
(0.0124724 0.00601278 0)
(0.0152779 0.0139428 0)
(0.0149859 0.021766 0)
(0.011542 0.0270713 0)
(0.00651492 0.0302188 0)
(0.00123319 0.0324487 0)
(-0.00397009 0.0344482 0)
(-0.00927745 0.0361691 0)
(-0.0148789 0.0372734 0)
(-0.0208406 0.0374996 0)
(-0.0270114 0.036619 0)
(-0.0331437 0.0345925 0)
(-0.0388665 0.0313489 0)
(-0.0438235 0.0270786 0)
(-0.0478159 0.0219962 0)
(-0.0506714 0.016339 0)
(-0.0523058 0.0103314 0)
(-0.0527153 0.00420344 0)
(-0.0518548 -0.00177497 0)
(-0.0497373 -0.00724002 0)
(-0.0464006 -0.0119051 0)
(-0.0420277 -0.015537 0)
(-0.0370694 -0.01787 0)
(-0.03207 -0.0187605 0)
(-0.0275792 -0.0182604 0)
(-0.0240854 -0.0164781 0)
(-0.0223099 -0.0130914 0)
(-0.0235619 -0.00748747 0)
(-0.0281809 -0.00198447 0)
(-0.0325971 -0.00402437 0)
(-0.0312723 -0.0187409 0)
(-0.023201 -0.0418198 0)
(-0.012944 -0.0601056 0)
(-0.00186308 -0.0640526 0)
(0.0123425 -0.0497814 0)
(0.0239143 -0.0271465 0)
(0.0226661 -0.0126493 0)
(0.00990579 -0.00450728 0)
(0.00164491 0.00653131 0)
(-0.000208095 0.00344079 0)
(0.00632491 0.00710229 0)
(-0.00811016 0.00851276 0)
(-0.0218805 0.00584992 0)
(-0.0323929 0.0026816 0)
(-0.0448503 -0.00896569 0)
(-0.0563827 -0.0236005 0)
(-0.0609209 -0.0366138 0)
(-0.0532042 -0.0465047 0)
(-0.0329961 -0.0506146 0)
(-0.00657727 -0.0473879 0)
(0.0165912 -0.0408126 0)
(0.0310204 -0.0352469 0)
(0.0366728 -0.0316728 0)
(0.0377119 -0.0292806 0)
(0.0382635 -0.0274365 0)
(0.0401343 -0.0255042 0)
(0.0433329 -0.0227695 0)
(0.0470261 -0.0189288 0)
(0.0503441 -0.0142564 0)
(0.0528399 -0.00903014 0)
(0.0544195 -0.00340342 0)
(0.0550239 0.00252755 0)
(0.0544484 0.00861434 0)
(0.0524314 0.0145874 0)
(0.0490141 0.0199083 0)
(0.0446952 0.0240683 0)
(0.0402039 0.0269098 0)
(0.0360144 0.0287141 0)
(0.0319698 0.0300052 0)
(0.0276997 0.0310559 0)
(0.0231037 0.031779 0)
(0.0181976 0.0318793 0)
(0.0131748 0.0313905 0)
(0.00817553 0.0303237 0)
(0.00373471 0.0279851 0)
(0.00130776 0.0230129 0)
(0.00173693 0.0151841 0)
(0.00386356 0.00657766 0)
(0.00685525 -0.000227645 0)
(0.010291 -0.00213371 0)
(0.0128311 0.00227391 0)
(0.015265 0.0119092 0)
(0.0161214 0.0229844 0)
(0.0136967 0.0312109 0)
(0.0088645 0.03577 0)
(0.00318248 0.0382791 0)
(-0.00259669 0.0402721 0)
(-0.00850116 0.0421276 0)
(-0.0147298 0.0435744 0)
(-0.0214275 0.044155 0)
(-0.0285093 0.0434492 0)
(-0.0357235 0.0411724 0)
(-0.042613 0.0372966 0)
(-0.0485923 0.0320172 0)
(-0.0532909 0.0256827 0)
(-0.0564534 0.0186615 0)
(-0.0580461 0.0112841 0)
(-0.0582121 0.00377758 0)
(-0.0568932 -0.00360902 0)
(-0.0539499 -0.0105125 0)
(-0.0494129 -0.0165605 0)
(-0.0436134 -0.0211778 0)
(-0.0372135 -0.0239017 0)
(-0.0310207 -0.0245002 0)
(-0.0256597 -0.0231079 0)
(-0.0216405 -0.0196138 0)
(-0.0192213 -0.0136348 0)
(-0.0175876 -0.00584012 0)
(-0.0142334 -0.00108682 0)
(-0.00519148 -0.00660323 0)
(0.0100225 -0.0249927 0)
(0.0252584 -0.0483429 0)
(0.0322059 -0.0649414 0)
(0.0301934 -0.0704173 0)
(0.0259287 -0.060075 0)
(0.026299 -0.0312642 0)
(0.0179454 -0.00358813 0)
(0.00120148 0.0068054 0)
(0.000729723 0.0110652 0)
(0.0044031 -0.00177705 0)
(0.0231563 0.0108729 0)
(0.0129714 0.0281974 0)
(-0.0166415 0.0243721 0)
(-0.038094 0.0191644 0)
(-0.0612367 0.00839445 0)
(-0.0834282 -0.0110706 0)
(-0.0941871 -0.0361862 0)
(-0.0895074 -0.0624282 0)
(-0.0690204 -0.0807357 0)
(-0.0377982 -0.0823431 0)
(-0.00357841 -0.0701627 0)
(0.0271637 -0.0517297 0)
(0.0469376 -0.0359409 0)
(0.053047 -0.0279463 0)
(0.051213 -0.0263824 0)
(0.0487981 -0.0268192 0)
(0.0490605 -0.0259355 0)
(0.0516369 -0.0226035 0)
(0.0550821 -0.0175118 0)
(0.0582701 -0.0114428 0)
(0.0605302 -0.00479226 0)
(0.0614919 0.00234989 0)
(0.0608612 0.00995422 0)
(0.0584091 0.0176078 0)
(0.0544154 0.0242004 0)
(0.0498957 0.0287527 0)
(0.0457768 0.0313698 0)
(0.0420712 0.0330369 0)
(0.0380469 0.0346764 0)
(0.0328744 0.0362369 0)
(0.0262915 0.037317 0)
(0.0192352 0.0373909 0)
(0.0129043 0.0367449 0)
(0.00785965 0.0349016 0)
(0.00484026 0.0305933 0)
(0.00446547 0.0229772 0)
(0.00567166 0.0134567 0)
(0.00678234 0.00434767 0)
(0.00907416 -0.00312862 0)
(0.0125426 -0.00467071 0)
(0.0136142 0.000590453 0)
(0.0130499 0.0105358 0)
(0.0126523 0.0233777 0)
(0.0106085 0.0341878 0)
(0.00667068 0.0406734 0)
(0.00209432 0.0440359 0)
(-0.00269269 0.0463734 0)
(-0.0081195 0.0484884 0)
(-0.0144648 0.0503892 0)
(-0.0217365 0.0514574 0)
(-0.0298486 0.0511511 0)
(-0.0385013 0.048844 0)
(-0.0470207 0.0443634 0)
(-0.0545038 0.0378873 0)
(-0.0602727 0.0299002 0)
(-0.0639971 0.0211035 0)
(-0.0657524 0.0120461 0)
(-0.0657377 0.00294038 0)
(-0.0638779 -0.00609227 0)
(-0.0601581 -0.014788 0)
(-0.0547585 -0.0224158 0)
(-0.0483196 -0.0279647 0)
(-0.041796 -0.030726 0)
(-0.0359499 -0.0305645 0)
(-0.0310725 -0.0276994 0)
(-0.0265211 -0.0226535 0)
(-0.019935 -0.0165511 0)
(-0.00764849 -0.0122897 0)
(0.0132995 -0.0144909 0)
(0.0425078 -0.0262702 0)
(0.0724014 -0.0440141 0)
(0.0914052 -0.0569407 0)
(0.0924151 -0.0593935 0)
(0.0764135 -0.0546164 0)
(0.0490986 -0.0446857 0)
(0.0245766 -0.0163758 0)
(0.000129412 0.0147593 0)
(-0.0127587 0.0131144 0)
(-0.000456053 0.00975904 0)
(0.0133261 -0.0228057 0)
(0.0375062 -0.00262367 0)
(0.0427262 0.0502037 0)
(0.00547303 0.0570732 0)
(-0.0294419 0.0448962 0)
(-0.0551862 0.0331575 0)
(-0.0779248 0.00636658 0)
(-0.0880151 -0.0330601 0)
(-0.0838393 -0.0763674 0)