/*--------------------------------*- C++ -*----------------------------------*\
| =========                 |                                                 |
| \\      /  F ield         | OpenFOAM: The Open Source CFD Toolbox           |
|  \\    /   O peration     | Version:  2412                                  |
|   \\  /    A nd           | Website:  www.openfoam.com                      |
|    \\/     M anipulation  |                                                 |
\*---------------------------------------------------------------------------*/
FoamFile
{
    version     2.0;
    format      ascii;
    arch        "LSB;label=32;scalar=64";
    class       volScalarField;
    location    "3.55";
    object      p_rgh;
}
// * * * * * * * * * * * * * * * * * * * * * * * * * * * * * * * * * * * * * //

dimensions      [1 -1 -2 0 0 0 0];

internalField   nonuniform List<scalar> 
6400
(
24484.6
24891.4
25350.8
25495.9
25013.7
23960.6
22887.9
22547.8
23378.1
25118.8
26857.3
27528.7
26585.2
24405.2
22148.4
21107.9
21937.1
24230.7
26731.3
28050
27470
25351.2
22901.7
21464.8
21758.3
23507.9
25665.9
27048.8
26999.8
25697.4
23969.6
22771.1
22653.5
23523.4
24784.7
25730.7
25933.7
25420.6
24577.4
23883.1
23648.9
23898.1
24417.6
24912.9
25162.1
25096.4
24792.2
24410.4
24123
24054.1
24238.7
24604.3
24984
25176
25041.9
24600.3
24055.4
23716.9
23832.3
24417
25197.4
25727
25637.7
24884.4
23824.7
23054.1
23070
23954
25278.5
26316.3
26449.3
25538
24022.9
22690.2
22240.6
22926.3
24455.4
26184.9
27448.8
28063.9
24197.5
24223.2
24616.4
25219
25647.3
25459.3
24575.3
23425.6
22733
23048.8
24346.4
25958.6
26936.4
26628.9
25117.9
23216.2
22008.8
22207.3
23716.5
25683.1
26998.5
26947.3
25609.4
23783.6
22497.6
22413.1
23479.1
25017.3
26155.8
26330.7
25563.1
24378.5
23456.2
23240
23733.6
24566.9
25255
25474.1
25201.3
24667.1
24184.8
23975.8
24081.6
24389.5
24723
24935
24957.6
24804.4
24549
24297.6
24160.2
24213.9
24460.6
24802.4
25064.9
25078
24782.1
24294.8
23878.4
23804.8
24182.4
24855.6
25456.7
25604.9
25145.4
24277
23472.9
23218.6
23715.8
24736.9
25730.8
26130
25678
24580.3
23396.1
22742.6
22987.9
24088.9
25610.2
27332.1
24454
23872.9
23833
24438.3
25473.2
26255.3
26126.4
24947.3
23283.2
22121.8
22267.6
23791.4
25909.7
27407.7
27365.8
25740.2
23422.8
21727.8
21616
23129.5
25381.1
27092.2
27343.6
26083.3
24104.8
22541
22200.8
23146
24730.1
26032.7
26397.9
25760
24599.2
23601.9
23259.3
23636.3
24411.5
25118.4
25416.6
25241.2
24774.5
24298.4
24033.6
24054.3
24296.2
24622.4
24892.3
25004.6
24916.9
24655.9
24322
24069.3
24047.5
24316.4
24780.8
25204
25318.5
24990.4
24336
23700.8
23482.8
23886.5
24760.1
25636.7
25983.8
25527.8
24453.7
23337.2
22829.4
23269.3
24462.6
25769.2
26457.6
26120.9
24914.6
23486.9
22635.7
22881.5
24102.4
25989
25128.3
23998.4
23298.8
23386.7
24445.8
25958.3
26959.7
26647.8
24969.9
22772.3
21355.2
21676.9
23706.6
26364.9
28127.3
27936.2
25855.9
23055
21121.1
21125
23007.2
25646.6
27548
27715.1
26183.5
23926.2
22230
21948.9
23074.4
24836.4
26218.1
26544.2
25800.1
24541.4
23504.6
23183.5
23611
24429.6
25155.2
25451.9
25267
24789
24295.9
24005.9
24002
24240.2
24599.2
24931.8
25102.4
25023.9
24699.9
24253.3
23903.1
23869.7
24240.9
24878.3
25445.5
25576.3
25104.9
24214.1
23384.7
23139.9
23718.8
24882.3
25998.6
26389.8
25746.5
24354.3
22970.1
22398.4
23013.4
24515.7
26083.3
26836.3
26349.5
24913.4
23381.3
22660.3
23061.2
24330.8
25834.9
24663.7
23466.1
22707.6
23021.3
24484.6
26369.5
27500
26999.8
24936.2
22394.9
20882
21397.4
23769.3
26694.7
28490.8
28102.8
25743.9
22769.5
20867.2
21064.8
23157.7
25883.2
27700.8
27686
26005.5
23729.3
22146.6
22026.1
23250.1
24989.4
26252.4
26448
25644.7
24426.8
23493.1
23265.5
23721.6
24498.1
25151
25396.6
25209.6
24765.6
24306.1
24020.3
23992.8
24208.5
24577.4
24956.4
25178.7
25111.2
24732.5
24186.7
23754.1
23718.5
24186.9
24974.3
25654.1
25781.4
25178.1
24096.5
23131.3
22893.6
23625.6
25000
26258.8
26637.9
25838.2
24244.8
22739.1
22195.2
22956.9
24616.4
26240.6
26920
26316.2
24864.6
23477.6
22846.3
22995.1
25985.8
25526.3
24442.6
23058.4
22196.2
22654.3
24459
26686.2
27963
27346.3
24999
22190.8
20575.7
21179
23733.7
26802.2
28622.2
28158.8
25712.4
22717.5
20872.4
21145
23253.4
25904.8
27602.4
27508.6
25855.9
23708.5
22279
22238.2
23415.9
25010.3
26118.6
26242.4
25488.4
24403
23600.2
23425.3
23834.6
24506.5
25069
25292
25152.6
24781.7
24364.4
24061.7
23977.7
24147.4
24523.6
24965.1
25262.1
25222
24790.9
24135.4
23603.3
23549.3
24105.2
25042.6
25845.9
25990.7
25280.8
24027.4
22926.2
22668.6
23505.7
25044
26426.4
26822.4
25937.8
24226
22648.9
22116.2
22939
24637.7
26229.9
26830.3
26186.3
24786.1
23433.3
22481.2
25242.5
26003.9
25762.8
24485.9
22730.1
21687.6
22273.3
24414.6
26972.8
28389.9
27672.2
25077.6
22037.8
20327.5
20986.4
23669.6
26839.8
28684.9
28192.2
25721.4
22745.2
20946.5
21239.2
23299.2
25844.2
27441.1
27326
25759.8
23764.7
22463.3
22446.8
23528.1
24962.9
25943.8
26045.6
25381.1
24436
23737
23572.4
23903.5
24468
24965.3
25201.4
25134
24836
24437.9
24088.2
23927.9
24053.1
24456.8
24986.9
25375.3
25361.4
24861.3
24074.7
23429.2
23356.4
24010.3
25111.6
26048.1
26213.5
25395.7
23968.5
22729.2
22446.8
23378.9
25066.4
26561.4
26976.2
26027.6
24232.5
22617.6
22108.3
22970.1
24653.4
26143
26596.2
25843.9
24438.5
22915.5
23836.1
25660.1
26608.5
26259
24531.2
22378.6
21203.2
21945.1
24395.6
27218.7
28718.2
27892.3
25104
21918.1
20180.3
20905.8
23666.7
26857.7
28664.2
28129.3
25673.3
22779.4
21076.4
21400.5
23386.5
25784.3
27250.3
27107.7
25641.8
23817.8
22655.5
22663.2
23642.7
24915.6
25773.3
25859.7
25286.2
24473.3
23864
23697.8
23950
24419.7
24871.1
25135.5
25141.6
24903
24503.3
24090.1
23851.4
23944.9
24395.9
25029.2
25509.8
25509.9
24924.9
23998.6
23243.9
23164.6
23926.3
25189.1
26244.9
26415.7
25488.1
23904.8
22556.9
22271.4
23293.3
25094
26651
27050.2
26045.7
24222.5
22646.7
22214.2
23102.3
24679
25930.8
26129.3
25327.8
23986.9
22522.9
24552.7
26343.2
27278.3
26609.4
24485.2
22049.9
20818.5
21712.2
24394.6
27381.2
28899.8
27981.8
25090.3
21872.6
20179.9
20961.8
23715.9
26819.7
28517.7
27944.6
25571.9
22848.1
21298.1
21653.5
23517.5
25706.8
27002.6
26831.3
25494.3
23877
22874.9
22906.4
23769.8
24866.3
25595.3
25669.5
25192.3
24512.1
23987
23812.9
23985.2
24367.3
24784.7
25085.9
25164.8
24975.1
24559.8
24074.8
23760.1
23833.1
24343.2
25083.8
25650.6
25653.9
24978
23917.5
23067.6
22993.2
23859.1
25262.4
26410
26571.9
25549
23850.8
22440.8
22173.7
23261.7
25112.5
26661.8
27011.8
25980.6
24210.8
22760.7
22435.5
23292
24648
25594.1
25692.6
25116.2
22148.2
23272.8
24988.1
26805.6
27674.2
26800.9
24421.3
21814.9
20572.9
21583.1
24401.3
27446.7
28931.8
27953.1
25055.7
21912
20317.4
21128.1
23788.5
26713.6
28259.4
27671.3
25450.5
22965.3
21597.8
21965.3
23659.2
25596.7
26707.8
26524.1
25345.9
23956.5
23116.2
23157.2
23888.6
24803.3
25411.3
25486.2
25112.6
24560.7
24107
23913
24003.2
24306.8
24704.3
25052.3
25203.1
25052
24608.8
24046.2
23659.6
23722
24298.2
25144.1
25787.1
25784.8
25020
23840.2
22914.4
22853.4
23810.3
25321.6
26527.6
26670.1
25577
23816.3
22395
22162.4
23282
25112.2
26586.7
26865.7
25846.7
24204.5
22936.5
22716.4
23496.1
24630.5
25445.3
25771.4
23080.7
22603.3
23279.6
25008.3
26995.8
27908.1
26922.7
24383.3
21691.2
20475.2
21563.4
24419
27419.5
28821.7
27814.1
25001
22024.2
20570.2
21383.3
23878.4
26555.1
27920.3
27339.1
25319.8
23116
21943.4
22304.5
23798.8
25465.8
26394.4
26214.5
25209.3
24048.7
23357.8
23393.9
23988.6
24731.2
25235.6
25324.3
25053.7
24616.2
24215.5
23990.7
24001.8
24241.2
24634.7
25036.6
25254.3
25129.1
24647.7
24006.9
23557.3
23619.1
24263.5
25204.5
25908.4
25892.2
25047.4
23773.3
22797.7
22758.1
23784.8
25361.7
26585.9
26698.6
25566.7
23803.2
22425
22241.7
23355.8
25096
26434.7
26625.7
25651.4
24191.2
23145.7
23052.1
23799.8
24825
25739.9
24906.6
23004.9
22230.2
22910.3
24928.9
27119.2
28052
26974.4
24357.4
21675.2
20529.1
21655.9
24448.6
27303.1
28578
27574.1
24928.5
22199.8
20920.4
21711.4
23982.3
26357.2
27522.9
26966.6
25183.5
23286.9
22312.5
22653.7
23933.4
25326.4
26081.3
25916.3
25086.1
24143.6
23585.7
23607
24069.9
24657.8
25077.6
25188.6
25013.5
24671.9
24306.6
24045
23985.4
24176.8
24579.2
25036.4
25310.9
25199
24674.3
23962.3
23463.5
23534
24241
25257.9
26001.2
25964.4
25057.2
23723.9
22731.1
22719.5
23786.9
25377.2
26574.4
26648.3
25514.8
23813.5
22533.6
22411.8
23481.7
25066.2
26215.9
26307.6
25409.9
24185.7
23417.2
23498.2
24220
25191.7
26626.9
24282.3
22468.4
21748.5
22710.8
24945.6
27191.7
28062.5
26921.2
24331.1
21764.4
20729.6
21851.8
24486
27105.2
28219.4
27252.7
24846.5
22429.1
21345.2
22089.6
24090.9
26129.2
27088.9
26574.8
25049.9
23470.1
22687.7
22996.6
24056.9
25184.2
25780.6
25639.7
24979.1
24236.5
23792.6
23791.9
24133
24587.3
24941.3
25079.5
24988.6
24723.4
24378.5
24078.8
23960.4
24119.7
24539.1
25046.4
25363.9
25253.9
24687.3
23919
23389.6
23476.2
24233.1
25297.3
26053.5
25991.3
25046.7
23698.3
22725
22745.6
23818.5
25364.3
26488.4
26518
25423.7
23848.6
22716.2
22661.3
23648.2
25021.2
25946.3
25945.6
25169.2
24233.9
23761.8
23927.3
24516.7
27262.1
25681.2
23815.7
22161.9
21647.3
22748.6
24994.6
27143.2
27905.9
26758.5
24306.2
21952.2
21060.6
22135.8
24528
26840.2
27771.8
26873.2
24761.5
22697.6
21817.1
22493.3
24196.1
25883.4
26642.7
26185.5
24926.8
23657
23051.2
23317.7
24164.1
25045.2
25503.5
25393.7
24890.4
24323.4
23972.7
23945.8
24179.6
24523.5
24829
24995.2
24973.7
24765.4
24430.5
24097.4
23935.8
24077.1
24515.1
25059.5
25401.5
25284.2
24684.9
23885
23349.1
23457
24242.5
25315.9
26053
25962.4
25012.7
23700.5
22786.7
22842.1
23880.8
25322.9
26329.6
26313
25298.5
23906.4
22958.9
22968.3
23837.6
24963.1
25656.7
25592.6
24973.2
24314.3
24004.9
24065.7
26472.2
26372.9
25408.4
23783.2
22251.7
21808.5
22888.9
24999.1
26955.8
27596.6
26505.8
24291.2
22229.5
21500.2
22486
24566.9
26520.5
27261.1
26459.6
24681.2
22992.4
22310.6
22899.7
24291
25630.8
26205
25816.5
24819.3
23839.6
23388.5
23605.6
24252.4
24914.7
25257.9
25182.9
24819.3
24400.7
24123.4
24069.8
24213.7
24470.1
24740
24929.8
24961.1
24793.7
24465.2
24110.2
23922.8
24055.2
24503.8
25063.7
25409.7
25281.8
24670.4
23873.1
23357
23485.4
24267
25302.5
25987.1
25871
24957.2
23737.9
22922
23008.9
23969.9
25251
26104
26045.6
25149.2
23983.8
23241.8
23304.8
24032.4
24901.1
25381.1
25276.3
24790.9
24294.5
23970
24772.1
26004.3
26296.1
25530.5
23950.3
22480.2
22069
23064.1
24955.1
26660.5
27178.9
26201.4
24299.7
22578
22008.1
22862.9
24586.8
26161.8
26723.9
26047.1
24619.7
23300.6
22796.5
23281.8
24365
25380.7
25796.4
25485.9
24734.1
24011.9
23688.1
23851
24319.3
24795.9
25048.5
25010
24765.5
24467
24245
24166.5
24238.3
24427.2
24670.4
24877.5
24946.4
24809.1
24489
24125.7
23926.6
24052.4
24497.1
25049.1
25383.1
25249.9
24653.6
23893.4
23417.2
23555.6
24295.5
25248.2
25856.1
25727.2
24893.1
23815.9
23123.7
23229.2
24070.9
25147.5
25828.1
25741.4
24993.9
24077.8
23540.6
23640.7
24216.1
24838.7
25125
24972.3
24570.8
24133.2
23184.6
24925.1
26093.3
26392
25562.2
24043.4
22716
22383.9
23278.4
24903.1
26321.7
26717.8
25880.1
24318.4
22943.6
22519.8
23227.3
24593.1
25807.8
26214.8
25670.7
24575.9
23590.7
23234.2
23613.1
24417.7
25154
25443.3
25210.5
24671.4
24161.9
23935
24045.3
24365.4
24695.9
24882.9
24878.3
24727.5
24518.2
24334.1
24234.9
24254.8
24397.6
24623.2
24840
24929.9
24809.8
24498.3
24139.2
23943.5
24068.1
24499.4
25024.5
25331.3
25193.2
24630
23932.4
23512.3
23656.2
24330.2
25170.8
25685.9
25551.7
24823.3
23915.7
23358.8
23472.9
24173.5
25029.5
25538
25436.5
24848.5
24176.7
23824.9
23944.2
24367.9
24763.3
24875.2
24694.9
24361.2
22563
23915.3
25198.1
26115.8
26184.5
25337.1
24016.6
22961.1
22779.3
23582.8
24910.9
25999.8
26236.6
25516.5
24287
23264.5
23004.7
23593.9
24634.2
25511.3
25762.5
25322.2
24513.9
23822
23601.3
23899
24474.9
24979
25160.6
24985.5
24612.6
24269.9
24120.5
24194
24405.7
24629.1
24766.8
24782
24691.6
24540.5
24383.9
24279.4
24277
24398.1
24609.1
24815.8
24897.1
24774.3
24475.2
24146.6
23986.9
24128.6
24537.3
25003.2
25245.9
25084.3
24565.9
23966.4
23641.1
23809.8
24407.5
25103.9
25491.6
25334.1
24716.3
23998.8
23598.5
23733.7
24296.4
24931.5
25268.7
25150.7
24710.9
24259.8
24066.4
24190.1
24470.6
24671.1
24671.4
24510.6
23070.4
23608
24410.5
25256.1
25755.8
25628.9
24907.7
23966.8
23329.1
23358.4
24036.5
24969.3
25623.1
25640.1
25041.4
24197.2
23593.2
23544.3
24027.8
24726.5
25236
25301.8
24944.3
24413
24017.3
23947
24186.7
24557.5
24842.8
24911.7
24771.8
24536.1
24340.9
24270.5
24329.2
24461.8
24596.5
24680.2
24690.7
24631.8
24525.7
24409.4
24331.6
24337.6
24444
24615.7
24767.9
24804.3
24676.3
24427.8
24189.3
24111.6
24271.4
24608.3
24940.3
25062.4
24873.9
24455
24036.6
23870
24071.8
24542.5
25015.5
25214.1
25020.6
24550.4
24081.6
23883
24051.1
24459.4
24849.8
25001.5
24863.8
24568.6
24323.4
24265.3
24378.3
24528.7
24592.8
24551.3
24224.2
24203.5
24373.1
24628.8
24846.9
24907.3
24761.7
24477.5
24210.1
24113.2
24243
24522.2
24787.3
24889
24778.1
24529.8
24292
24196.4
24283.4
24486.5
24681.4
24762.8
24701.2
24549.6
24402.6
24338.2
24377.2
24481
24583.4
24631.7
24612.4
24549.5
24483.6
24446.8
24449
24479.7
24519.6
24551.8
24566.8
24561.6
24537.9
24502
24467
24450.2
24465.7
24513.4
24573
24610.9
24598.3
24532.2
24443
24382.6
24394.2
24482.2
24603
24686.2
24676
24568.8
24420.2
24317
24324.4
24443.8
24608.2
24721.4
24716.8
24598.3
24437.8
24330.5
24335.5
24440.5
24574.2
24654.8
24643.2
24562.3
24475.1
24438.1
24462.3
24510.5
24535.7
24525.7
1.04194
1.52376
1.11676
0.78627
1.07423
1.18991
0.912335
0.560612
0.909742
1.11571
0.890371
0.443381
0.659472
0.870587
0.721132
0.412395
0.649942
0.869122
0.769951
0.497733
0.619265
0.804556
0.794084
0.671143
0.785074
0.955756
0.965585
0.870441
0.902316
1.02023
1.07784
1.0734
1.12076
1.2151
1.25689
1.24367
1.22382
1.22372
1.21678
1.18396
1.12611
1.07253
1.04437
1.07355
1.05079
0.990736
0.983863
1.00957
0.982499
0.896878
0.90918
0.983262
0.948106
0.791119
0.776262
0.882781
0.878036
0.737526
0.807963
1.07859
1.15937
1.02865
1.04266
1.30938
1.39324
1.26082
1.25399
1.4921
1.53496
1.36805
1.28231
1.40897
1.38102
1.23488
1.17409
1.20007
1.15283
1.06951
1.13496
1.04061
7.60744e-05
-0.000418574
-0.000296666
-5.7209e-05
0.000277797
0.00054228
0.000571455
0.00033807
-6.05261e-05
-0.000355817
-0.000383085
-0.000142834
0.000230379
0.000497574
0.00052634
0.00032264
1.50049e-06
-0.000239224
-0.000264311
-8.91808e-05
0.000172925
0.000348653
0.000371827
0.000253216
7.04567e-05
-6.36909e-05
-7.99861e-05
7.8494e-06
0.000131244
0.000218604
0.000236599
0.000189713
0.000117215
6.05432e-05
4.17949e-05
5.67816e-05
8.85998e-05
0.000125837
0.00015711
0.000174765
0.000172665
0.000145011
9.25988e-05
4.05437e-05
1.52256e-05
4.05767e-05
0.000119301
0.000207461
0.000257488
0.000225068
0.000108157
-2.56554e-05
-9.79245e-05
-5.01145e-05
9.46025e-05
0.000256148
0.000344471
0.00029014
0.000124851
-7.91591e-05
-0.000179889
-0.000117905
6.35153e-05
0.000275173
0.000376945
0.000313213
0.000135886
-5.90646e-05
-0.000139761
-7.65368e-05
7.38608e-05
0.00022034
0.000265572
0.000198826
8.24787e-05
8.18033e-06
2.17942e-05
9.16828e-05
0.000139432
0.000120693
0.000132425
-4.19977e-05
-4.57122e-05
2.37465e-05
0.000118733
0.000219351
0.000252984
0.000207373
0.000104672
-8.18985e-06
-4.23922e-05
3.95614e-06
0.000101443
0.00020199
0.000235967
0.000198385
0.000115418
2.76533e-05
-8.48877e-07
3.09435e-05
9.8867e-05
0.000167653
0.000188976
0.000165203
0.000118057
7.08582e-05
5.4593e-05
7.12021e-05
0.000104512
0.000137381
0.000150432
0.000141555
0.000121458
0.000102981
9.34619e-05
9.43823e-05
0.000102567
0.000113402
0.000123851
0.000131709
0.000133702
0.000127851
0.000113733
9.59084e-05
8.16018e-05
8.27786e-05
0.000101742
0.000130847
0.000153492
0.000152663
0.000124765
7.95231e-05
4.50205e-05
4.59703e-05
7.92066e-05
0.000135047
0.000173204
0.000168163
0.000128894
6.53796e-05
1.8848e-05
2.11967e-05
6.40877e-05
0.000133938
0.000181987
0.000175363
0.000130576
6.72567e-05
2.78166e-05
3.46555e-05
7.21045e-05
0.000120829
0.000147586
0.00013663
0.000103897
7.40111e-05
7.00711e-05
8.82903e-05
0.000108131
0.000112333
0.000200171
0.00013886
9.76632e-05
7.35062e-05
5.72885e-05
6.52678e-05
9.58204e-05
0.000131688
0.000150116
0.000140148
0.000108953
7.85471e-05
6.35585e-05
7.33853e-05
0.000100456
0.000127443
0.000140399
0.000131983
0.000108393
8.80429e-05
8.0458e-05
9.09004e-05
0.000109175
0.000121545
0.000126346
0.000122845
0.00011178
0.00010265
0.000100827
0.00010375
0.000110837
0.000118872
0.00012223
0.000120691
0.000117901
0.000115203
0.000112566
0.000110066
0.000107855
0.000107378
0.000110292
0.000116791
0.000122838
0.00012455
0.000120679
0.000109305
9.86672e-05
9.25778e-05
9.5745e-05
0.000110361
0.000124642
0.000128887
0.000117921
9.79556e-05
8.29829e-05
7.86769e-05
9.07216e-05
0.00010837
0.0001222
0.000127173
0.000113488
9.10182e-05
7.31228e-05
6.86442e-05
8.60965e-05
0.000107276
0.000118376
0.000119851
0.000107077
8.99783e-05
7.92298e-05
7.80606e-05
9.07866e-05
0.000105463
0.000109138
0.000102895
9.03456e-05
8.58444e-05
9.17901e-05
0.000102766
0.000130006
0.000147323
0.000136972
0.000126728
9.99192e-05
6.96404e-05
6.34822e-05
7.41644e-05
0.000104588
0.000131589
0.000134787
0.000126718
0.000102794
7.87357e-05
7.47879e-05
8.25636e-05
0.000104227
0.000125407
0.000128007
0.000120675
0.000105057
9.15973e-05
9.37463e-05
9.96638e-05
0.000108856
0.000118659
0.000121443
0.000118875
0.000113287
0.000107901
0.000106454
0.000107711
0.000110709
0.00011367
0.000115842
0.000117386
0.000118323
0.000118093
0.000115985
0.000112124
0.000107915
0.000105759
0.000107545
0.000112921
0.000119458
0.000122075
0.000116149
0.00010522
9.52339e-05
9.16132e-05
9.80002e-05
0.000112089
0.000122268
0.000120719
0.000109678
9.18159e-05
8.30365e-05
8.51931e-05
9.24501e-05
0.000110495
0.000120549
0.000117791
0.000106216
8.5071e-05
7.55714e-05
8.01939e-05
8.95931e-05
0.000104563
0.000111861
0.000110789
0.000103753
9.10944e-05
8.47507e-05
8.8457e-05
9.70687e-05
0.00010291
0.00010176
9.5682e-05
9.19432e-05
9.69506e-05
7.5764e-05
0.000101928
0.000112844
0.000120649
0.000122181
0.000107603
9.10637e-05
7.73784e-05
8.08042e-05
9.7508e-05
0.00011258
0.000122944
0.000122304
0.000110587
9.76361e-05
8.68992e-05
8.7447e-05
9.99479e-05
0.000113034
0.000119992
0.00011775
0.00010879
0.000102452
0.000100283
0.000101676
0.00010665
0.000111876
0.000115751
0.000116701
0.000115186
0.000113008
0.000111381
0.000111223
0.000112096
0.00011319
0.000114136
0.000115053
0.000116136
0.000117059
0.000116977
0.000115226
0.000112172
0.000109124
0.000107433
0.000108593
0.000112622
0.000116343
0.000116507
0.000111171
0.000102393
9.64687e-05
9.78957e-05
0.000104739
0.000111917
0.000114758
0.000109475
9.99028e-05
9.12386e-05
8.6163e-05
8.97519e-05
0.000100184
0.000109657
0.000112851
0.000105484
9.52207e-05
8.90132e-05
8.59964e-05
8.85667e-05
9.50345e-05
0.00010145
0.000105376
0.000102447
9.56131e-05
9.03716e-05
9.01763e-05
9.43232e-05
9.86951e-05
9.88709e-05
9.5157e-05
9.54668e-05
8.65612e-05
9.21707e-05
9.56458e-05
0.000103113
0.000111716
0.000114074
0.000110184
0.000100357
9.27037e-05
9.29496e-05
9.66028e-05
0.000102839
0.000109644
0.000111502
0.000110352
0.000104329
9.72809e-05
9.61039e-05
0.000100505
0.000108292
0.000113523
0.000112408
0.000109495
0.000107141
0.000105872
0.000106662
0.000108337
0.000110654
0.000112808
0.000114087
0.000114388
0.000114012
0.00011372
0.000113875
0.000114278
0.000114567
0.00011458
0.000114551
0.000114823
0.000115335
0.000115621
0.000115307
0.000114267
0.000112309
0.00010979
0.000108246
0.000108967
0.000111627
0.000113416
0.000111354
0.000106026
0.000101823
0.000100851
0.000102093
0.000105045
0.000107246
0.000106746
0.000103464
9.74023e-05
9.17913e-05
9.14109e-05
9.6341e-05
0.000102945
0.000103749
0.000100359
9.81571e-05
9.63327e-05
9.4067e-05
9.2242e-05
9.25354e-05
9.62465e-05
9.92058e-05
9.91889e-05
9.6639e-05
9.3584e-05
9.25054e-05
9.4349e-05
9.67833e-05
9.60248e-05
9.54273e-05
9.84018e-05
9.89682e-05
9.63415e-05
9.40113e-05
9.71666e-05
0.000102929
0.000107129
0.000105835
0.000101658
0.000100032
9.96537e-05
9.94919e-05
0.00010064
0.000102398
0.000105601
0.000107605
0.0001061
0.000103208
0.000101527
0.000103014
0.000106526
0.000108969
0.00010974
0.000109567
0.000109345
0.000109422
0.000109727
0.000110422
0.000111482
0.000112712
0.000113778
0.000114358
0.000114587
0.000114776
0.00011507
0.000115413
0.000115614
0.000115565
0.000115367
0.000115125
0.000114806
0.000114422
0.000114221
0.00011415
0.000113411
0.000111516
0.000109262
0.000108437
0.000109606
0.000110478
0.000108698
0.000105887
0.000104492
0.000103548
0.000101949
0.000100917
0.000102345
0.000104452
0.000104376
0.000100297
9.52494e-05
9.37475e-05
9.72564e-05
9.96461e-05
9.78099e-05
9.60504e-05
9.68438e-05
9.81973e-05
9.70481e-05
9.40418e-05
9.29405e-05
9.40828e-05
9.58077e-05
9.66759e-05
9.60593e-05
9.44065e-05
9.34992e-05
9.45202e-05
9.50098e-05
9.50486e-05
9.85658e-05
0.000101555
0.000102445
9.88038e-05
9.58606e-05
9.72705e-05
0.000101658
0.000103644
0.000101734
0.000100297
0.000100794
0.000101584
0.00010178
0.000100929
0.000101131
0.00010336
0.000105414
0.00010571
0.000104608
0.000104044
0.000105042
0.000106514
0.000107944
0.00010881
0.000109549
0.000110173
0.000110727
0.000111304
0.000111945
0.00011275
0.0001137
0.000114536
0.000115101
0.000115449
0.000115689
0.000115903
0.000116108
0.00011628
0.000116382
0.000116326
0.000115959
0.000115154
0.00011412
0.000113499
0.000113501
0.00011334
0.000111985
0.000109906
0.000109055
0.000109512
0.000108412
0.000105382
0.000104162
0.000105699
0.00010564
0.000101913
9.88496e-05
9.97545e-05
0.000102618
0.000103259
9.92853e-05
9.45411e-05
9.51072e-05
9.88542e-05
9.90701e-05
9.56274e-05
9.36014e-05
9.52921e-05
9.73528e-05
9.65983e-05
9.45306e-05
9.3386e-05
9.35172e-05
9.42948e-05
9.50823e-05
9.50456e-05
9.41217e-05
9.38092e-05
9.38639e-05
9.41452e-05
9.60571e-05
9.59085e-05
0.000100357
0.000101642
9.86695e-05
9.62931e-05
9.81739e-05
0.000101469
0.000101605
9.96497e-05
9.87972e-05
9.99001e-05
0.000101901
0.000102494
0.000101601
0.000101465
0.000102844
0.000104418
0.000104912
0.000104886
0.000105442
0.000106346
0.000107331
0.000108282
0.000109249
0.000110133
0.000110948
0.000111767
0.00011254
0.000113282
0.000114093
0.000114923
0.000115629
0.00011617
0.000116573
0.000116826
0.000116905
0.000116893
0.000116945
0.000117036
0.000116992
0.000116628
0.000115715
0.000114419
0.000113479
0.000113306
0.000112941
0.000111217
0.000109521
0.000110022
0.000110426
0.000106882
0.000102169
0.000102662
0.000106738
0.00010659
0.000101537
9.7237e-05
9.80438e-05
0.000101978
0.000102298
9.69001e-05
9.29052e-05
9.54002e-05
9.93526e-05
9.84823e-05
9.43152e-05
9.25719e-05
9.43312e-05
9.58923e-05
9.5393e-05
9.41288e-05
9.33827e-05
9.31679e-05
9.34302e-05
9.3932e-05
9.39413e-05
9.36924e-05
9.33229e-05
9.32636e-05
9.84012e-05
9.33698e-05
9.48288e-05
9.93023e-05
0.000100228
9.73475e-05
9.59013e-05
9.8175e-05
0.000100581
0.000100419
9.87645e-05
9.7944e-05
9.9329e-05
0.000101535
0.000102285
0.000101817
0.00010194
0.000103096
0.000104125
0.000104625
0.000105328
0.000106324
0.000107306
0.000108223
0.000109213
0.000110196
0.000111107
0.000112038
0.000112983
0.000113861
0.000114701
0.000115537
0.000116282
0.000116875
0.000117394
0.00011788
0.00011815
0.000118079
0.000117916
0.000117864
0.000117762
0.000117515
0.000117038
0.00011606
0.000114771
0.00011406
0.000113944
0.000112448
0.000109281
0.000108491
0.000111445
0.000111705
0.000105096
9.9274e-05
0.000101903
0.000107252
0.000106399
0.000100236
9.52627e-05
9.73028e-05
0.000102341
0.000101336
9.46784e-05
9.16396e-05
9.52831e-05
9.89207e-05
9.71804e-05
9.32131e-05
9.21239e-05
9.36363e-05
9.46025e-05
9.41218e-05
9.33943e-05
9.29532e-05
9.26797e-05
9.27019e-05
9.28795e-05
9.30792e-05
9.29385e-05
9.26612e-05
0.000100447
9.61531e-05
9.21994e-05
9.45599e-05
9.86417e-05
9.8844e-05
9.61946e-05
9.54711e-05
9.74482e-05
9.94659e-05
9.9648e-05
9.8366e-05
9.78182e-05
9.92487e-05
0.000101141
0.000101794
0.000101799
0.000102457
0.000103526
0.000104268
0.000104983
0.000106022
0.000107166
0.000108198
0.000109246
0.000110344
0.000111377
0.000112375
0.000113406
0.000114413
0.000115359
0.000116294
0.000117171
0.000117822
0.000118275
0.000118803
0.000119377
0.000119547
0.00011929
0.000119098
0.00011901
0.000118729
0.000118211
0.000117297
0.000115851
0.00011477
0.000115291
0.00011543
0.00011148
0.000106283
0.000107528
0.000113543
0.000112575
0.000102786
9.70586e-05
0.000101521
0.000106966
0.000105945
9.81101e-05
9.31031e-05
9.71421e-05
0.00010265
0.000100002
9.27636e-05
9.08512e-05
9.51009e-05
9.78767e-05
9.55562e-05
9.21991e-05
9.16998e-05
9.2966e-05
9.34379e-05
9.29722e-05
9.25369e-05
9.22803e-05
9.20425e-05
9.18664e-05
9.20011e-05
9.2183e-05
9.20864e-05
9.73958e-05
9.90139e-05
9.39905e-05
9.1457e-05
9.42936e-05
9.76649e-05
9.74152e-05
9.54499e-05
9.49845e-05
9.65222e-05
9.84347e-05
9.88847e-05
9.80612e-05
9.80112e-05
9.94454e-05
0.000100864
0.000101394
0.00010192
0.000102971
0.00010398
0.000104774
0.000105744
0.000106951
0.000108129
0.00010926
0.000110459
0.00011166
0.000112795
0.000113919
0.00011503
0.000116055
0.000117053
0.000118119
0.000119044
0.000119534
0.000119859
0.000120505
0.000121108
0.000120995
0.000120487
0.000120227
0.000120182
0.000120066
0.000119375
0.000117394
0.000114668
0.000114396
0.000117483
0.0001174
0.000109453
0.000102517
0.000107281
0.000115863
0.000112529
0.000100488
9.57054e-05
0.000100668
0.000107509
0.000105192
9.54392e-05
9.13203e-05
9.73549e-05
0.000102488
9.82482e-05
9.10782e-05
9.03692e-05
9.46985e-05
9.65387e-05
9.39819e-05
9.12657e-05
9.11616e-05
9.21187e-05
9.22919e-05
9.18965e-05
9.16313e-05
9.15071e-05
9.12326e-05
9.10381e-05
9.11343e-05
9.12534e-05
9.16587e-05
9.71319e-05
9.67745e-05
9.24284e-05
9.10664e-05
9.38224e-05
9.63076e-05
9.62325e-05
9.49409e-05
9.45455e-05
9.58659e-05
9.76368e-05
9.81304e-05
9.78034e-05
9.83407e-05
9.97243e-05
0.000100737
0.000101344
0.00010229
0.0001035
0.000104542
0.000105541
0.000106753
0.000108055
0.000109295
0.000110561
0.00011189
0.000113197
0.000114477
0.000115757
0.00011692
0.00011791
0.00011899
0.000120254
0.000121149
0.000121358
0.00012165
0.000122534
0.000123109
0.00012264
0.000121645
0.000120962
0.000121191
0.000121955
0.000121247
0.000116922
0.000112147
0.00011412
0.000120887
0.000119193
0.000105995
9.86619e-05
0.000107729
0.000117465
0.000111563
9.92854e-05
9.45254e-05
0.000100784
0.000108106
0.000103623
9.24605e-05
9.00706e-05
9.7623e-05
0.000101701
9.62133e-05
8.96393e-05
8.98951e-05
9.39267e-05
9.50332e-05
9.25462e-05
9.04464e-05
9.04663e-05
9.11011e-05
9.11116e-05
9.0802e-05
9.06998e-05
9.06129e-05
9.0363e-05
9.01934e-05
9.02443e-05
8.81914e-05
9.13125e-05
9.5761e-05
9.47168e-05
9.13983e-05
9.09026e-05
9.30139e-05
9.49486e-05
9.52436e-05
9.44197e-05
9.42345e-05
9.55516e-05
9.70392e-05
9.74604e-05
9.7666e-05
9.86827e-05
9.99553e-05
0.000100817
0.00010167
0.000102876
0.000104144
0.000105294
0.000106537
0.000107944
0.000109349
0.000110718
0.000112133
0.000113567
0.000114984
0.000116465
0.000117932
0.000119074
0.000119989
0.000121275
0.000122792
0.000123464
0.000123271
0.000123593
0.000124757
0.000125493
0.000124729
0.000122602
0.000120942
0.000121928
0.000124839
0.000123743
0.00011513
0.00010823
0.000114553
0.000125389
0.000120086
0.000101612
9.55443e-05
0.000108153
0.000117103
0.000109945
9.68857e-05
9.22345e-05
0.000101102
0.00010843
0.000101259
8.96128e-05
8.9303e-05
9.76065e-05
0.000100352
9.42616e-05
8.85082e-05
8.92637e-05
9.27585e-05
9.33578e-05
9.12438e-05
8.96744e-05
8.96625e-05
8.99911e-05
8.98811e-05
8.96813e-05
8.96717e-05
8.96353e-05
8.94471e-05
8.93103e-05
8.96508e-05
8.68787e-05
9.07915e-05
9.38866e-05
9.2803e-05
9.07852e-05
9.0588e-05
9.21048e-05
9.38167e-05
9.43016e-05
9.38303e-05
9.40848e-05
9.54537e-05
9.65899e-05
9.70284e-05
9.77226e-05
9.89863e-05
0.000100172
0.000101128
0.00010227
0.00010364
0.000104972
0.000106285
0.000107753
0.000109322
0.000110876
0.000112436
0.000114008
0.000115513
0.000117064
0.000118844
0.000120483
0.000121455
0.000122323
0.000124028
0.000125794
0.000126062
0.000125326
0.000125441
0.000127007
0.000128512
0.000127363
0.000123065
0.000119664
0.000122728
0.000129246
0.000126381
0.000111254
0.000103231
0.000116083
0.000130005
0.00011969
9.7554e-05
9.38895e-05
0.000107557
0.000115372
0.000108213
9.31708e-05
9.02185e-05
0.000101846
0.00010802
9.83614e-05
8.71702e-05
8.87077e-05
9.69166e-05
9.85616e-05
9.25113e-05
8.7628e-05
8.84926e-05
9.12271e-05
9.15437e-05
8.9953e-05
8.88435e-05
8.87744e-05
8.88548e-05
8.86724e-05
8.85188e-05
8.85572e-05
8.85795e-05
8.84598e-05
9.22774e-05
8.74241e-05
8.67035e-05
8.99773e-05
9.18504e-05
9.13702e-05
9.02585e-05
9.01133e-05
9.13885e-05
9.29188e-05
9.33528e-05
9.32675e-05
9.40258e-05
9.5371e-05
9.62739e-05
9.69043e-05
9.79622e-05
9.93012e-05
0.000100489
0.000101659
0.000103063
0.000104569
0.000106024
0.000107535
0.000109196
0.000110924
0.000112686
0.000114505
0.000116215
0.000117743
0.000119534
0.000121756
0.00012344
0.000124037
0.00012495
0.000127247
0.000129315
0.000129197
0.00012745
0.000126772
0.000129318
0.000132485
0.000130583
0.000122229
0.000116693
0.000124251
0.000135615
0.000128468
0.000105249
9.80152e-05
0.00011815
0.000133138
0.000118001
9.52916e-05
9.34902e-05
0.000106366
0.000115837
0.000105844
8.9085e-05
8.89547e-05
0.000102515
0.000106756
9.54431e-05
8.53416e-05
8.79739e-05
9.55108e-05
9.64297e-05
9.09796e-05
8.70071e-05
8.76209e-05
8.95166e-05
8.96589e-05
8.85717e-05
8.78563e-05
8.77696e-05
8.77187e-05
8.74805e-05
8.73321e-05
8.73918e-05
8.74479e-05
9.12119e-05
8.99298e-05
8.63606e-05
8.66465e-05
8.86906e-05
9.01148e-05
9.0207e-05
8.95615e-05
8.96233e-05
9.09117e-05
9.21613e-05
9.25076e-05
9.28573e-05
9.39707e-05
9.5229e-05
9.6106e-05
9.7033e-05
9.83308e-05
9.9705e-05
0.000100988
0.000102398
0.000104018
0.000105679
0.000107323
0.000109058
0.000110891
0.000112789
0.000114862
0.000117004
0.000118753
0.00012028
0.000122556
0.000125356
0.000126867
0.000126893
0.00012781
0.00013076
0.000133587
0.000133112
0.000129114
0.000127453
0.000131972
0.000137978
0.000134106
0.000118937
0.000111792
0.000127119
0.000143472
0.000129441
9.8215e-05
9.38022e-05
0.000119652
0.000133173
0.000115423
9.44134e-05
9.25784e-05
0.000107573
0.000116239
0.000102295
8.51516e-05