/*--------------------------------*- C++ -*----------------------------------*\
| =========                 |                                                 |
| \\      /  F ield         | OpenFOAM: The Open Source CFD Toolbox           |
|  \\    /   O peration     | Version:  2412                                  |
|   \\  /    A nd           | Website:  www.openfoam.com                      |
|    \\/     M anipulation  |                                                 |
\*---------------------------------------------------------------------------*/
FoamFile
{
    version     2.0;
    format      ascii;
    arch        "LSB;label=32;scalar=64";
    class       volVectorField;
    location    "4.6";
    object      U;
}
// * * * * * * * * * * * * * * * * * * * * * * * * * * * * * * * * * * * * * //

dimensions      [0 1 -1 0 0 0 0];

internalField   nonuniform List<vector> 
6400
(
(0.000107536 -0.000130076 0)
(-5.26667e-05 -6.62059e-05 0)
(3.95473e-05 -0.00012003 0)
(0.000323482 -0.000156656 0)
(0.00069723 -0.00017522 0)
(0.00107838 -0.000189663 0)
(0.00145619 -0.000212913 0)
(0.00185315 -0.000249223 0)
(0.00230811 -0.000302771 0)
(0.00286146 -0.000369643 0)
(0.00354598 -0.000449921 0)
(0.00439119 -0.000539787 0)
(0.00541837 -0.000634657 0)
(0.00663825 -0.000729651 0)
(0.00804331 -0.00081566 0)
(0.00961263 -0.000889373 0)
(0.011321 -0.00094578 0)
(0.0131299 -0.000982497 0)
(0.0149916 -0.000994451 0)
(0.016856 -0.000980023 0)
(0.018663 -0.000937095 0)
(0.0203617 -0.000860228 0)
(0.0218855 -0.000760206 0)
(0.0231783 -0.000632383 0)
(0.0242077 -0.000482119 0)
(0.0249316 -0.000315665 0)
(0.0253271 -0.000134083 0)
(0.0253684 5.76612e-05 0)
(0.0250374 0.000262603 0)
(0.0243358 0.000461775 0)
(0.0232773 0.000658335 0)
(0.0218784 0.000847263 0)
(0.0201602 0.001022 0)
(0.0181547 0.00118355 0)
(0.0158974 0.00132376 0)
(0.0134178 0.00144244 0)
(0.0107608 0.00154357 0)
(0.00797105 0.00161817 0)
(0.00508096 0.00166584 0)
(0.00212969 0.00168987 0)
(-0.000843557 0.00169112 0)
(-0.00379963 0.00166994 0)
(-0.00670154 0.00162598 0)
(-0.0095081 0.00155676 0)
(-0.0121797 0.00146154 0)
(-0.0146799 0.00134046 0)
(-0.0169676 0.00120183 0)
(-0.0190015 0.00104428 0)
(-0.02075 0.000869402 0)
(-0.0221836 0.000683651 0)
(-0.0232772 0.000485845 0)
(-0.024016 0.000285838 0)
(-0.0243922 8.84876e-05 0)
(-0.0243979 -0.000110733 0)
(-0.0240436 -0.000292752 0)
(-0.0233669 -0.000457408 0)
(-0.0223914 -0.000609786 0)
(-0.0211395 -0.000734574 0)
(-0.0196647 -0.000835051 0)
(-0.0180297 -0.00090835 0)
(-0.016281 -0.000951736 0)
(-0.0144799 -0.000967174 0)
(-0.0126832 -0.000958697 0)
(-0.0109422 -0.00091975 0)
(-0.00930337 -0.000859123 0)
(-0.00779995 -0.000783661 0)
(-0.00646177 -0.000700738 0)
(-0.00531123 -0.000606727 0)
(-0.0043399 -0.000516615 0)
(-0.00354231 -0.000422193 0)
(-0.00290565 -0.000349354 0)
(-0.00238853 -0.000286655 0)
(-0.00195339 -0.000239269 0)
(-0.0015615 -0.000204073 0)
(-0.00117904 -0.000184657 0)
(-0.000787825 -0.000173863 0)
(-0.000392795 -0.000160852 0)
(-8.27739e-05 -0.000128114 0)
(3.02441e-05 -6.90438e-05 0)
(-0.000110069 -0.000131181 0)
(-1.46115e-05 7.15783e-05 0)
(-0.000540834 0.000325943 0)
(-0.000304164 -0.000187733 0)
(0.000311014 -0.000479051 0)
(0.00106842 -0.000557102 0)
(0.00179421 -0.000551324 0)
(0.00243836 -0.000541456 0)
(0.00301726 -0.000577281 0)
(0.0035773 -0.000688406 0)
(0.00417254 -0.000849188 0)
(0.00484009 -0.00107135 0)
(0.00562436 -0.00133231 0)
(0.00656414 -0.00162769 0)
(0.00768077 -0.00192348 0)
(0.0089727 -0.0022053 0)
(0.0104228 -0.0024516 0)
(0.0120117 -0.00264417 0)
(0.0137014 -0.00277298 0)
(0.0154466 -0.00282265 0)
(0.0171972 -0.00278701 0)
(0.0188912 -0.00266524 0)
(0.0204673 -0.00244205 0)
(0.0218607 -0.00215087 0)
(0.023022 -0.00177777 0)
(0.0239126 -0.00133858 0)
(0.0244895 -0.000853113 0)
(0.0247204 -0.0003335 0)
(0.0246147 0.000208089 0)
(0.0241466 0.000754607 0)
(0.0233189 0.00129306 0)
(0.0221689 0.00181333 0)
(0.020706 0.00229899 0)
(0.0189616 0.00274098 0)
(0.0169694 0.0031351 0)
(0.0147658 0.00347383 0)
(0.0123866 0.00375204 0)
(0.00986633 0.00397752 0)
(0.00724175 0.00414264 0)
(0.00454696 0.00424952 0)
(0.0018119 0.00430295 0)
(-0.000938928 0.00430561 0)
(-0.00367695 0.00425831 0)
(-0.00637727 0.00415847 0)
(-0.00900984 0.00400081 0)
(-0.0115409 0.00378191 0)
(-0.0139316 0.00350362 0)
(-0.0161463 0.00316937 0)
(-0.0181535 0.0027809 0)
(-0.0199141 0.00234383 0)
(-0.0213977 0.00186616 0)
(-0.0225721 0.00134721 0)
(-0.0234128 0.000811716 0)
(-0.023923 0.000267322 0)
(-0.0240737 -0.000270054 0)
(-0.0238627 -0.00078734 0)
(-0.0233279 -0.00126761 0)
(-0.0224877 -0.00170324 0)
(-0.0213592 -0.00206228 0)
(-0.0200093 -0.00235466 0)
(-0.0184961 -0.00257073 0)
(-0.0168652 -0.00268845 0)
(-0.015186 -0.00271903 0)
(-0.0135081 -0.00267088 0)
(-0.0118836 -0.00253779 0)
(-0.010367 -0.00233905 0)
(-0.00898568 -0.00209221 0)
(-0.00775972 -0.00181614 0)
(-0.00671755 -0.00152956 0)
(-0.00582973 -0.00125025 0)
(-0.00508891 -0.000998529 0)
(-0.00447094 -0.000793552 0)
(-0.00389994 -0.000647624 0)
(-0.00333872 -0.000568756 0)
(-0.00274265 -0.000543367 0)
(-0.00207183 -0.00056822 0)
(-0.00130838 -0.000595276 0)
(-0.000501494 -0.000532047 0)
(0.000180537 -0.000246055 0)
(0.000480575 0.000277509 0)
(6.49832e-06 4.69985e-05 0)
(1.36628e-05 0.000184514 0)
(-0.000193875 0.000217863 0)
(0.000592247 -0.000952606 0)
(0.00178966 -0.00155688 0)
(0.00310707 -0.00166356 0)
(0.00434102 -0.00155884 0)
(0.00542697 -0.00142833 0)
(0.0063608 -0.00137332 0)
(0.0072252 -0.00143562 0)
(0.00808174 -0.00160598 0)
(0.00896223 -0.0018885 0)
(0.00992375 -0.00225221 0)
(0.0110208 -0.002672 0)
(0.0122824 -0.00311379 0)
(0.0136964 -0.00354958 0)
(0.0152574 -0.00393731 0)
(0.0169412 -0.00424051 0)
(0.0187092 -0.00443924 0)
(0.0205156 -0.00450779 0)
(0.0223034 -0.00443247 0)
(0.0240157 -0.00421206 0)
(0.0255682 -0.00384387 0)
(0.0269005 -0.00334316 0)
(0.0279797 -0.00270918 0)
(0.0287481 -0.00196911 0)
(0.0291637 -0.0011496 0)
(0.029201 -0.000258946 0)
(0.0288488 0.000646768 0)
(0.0281044 0.00154728 0)
(0.0269842 0.00243811 0)
(0.0255099 0.00328656 0)
(0.0237039 0.00407172 0)
(0.0216036 0.00478127 0)
(0.0192465 0.00540591 0)
(0.0166695 0.00593704 0)
(0.0139139 0.00637428 0)
(0.0110202 0.00671669 0)
(0.00802159 0.00696829 0)
(0.00495222 0.00713431 0)
(0.00184256 0.00721769 0)
(-0.00128281 0.00722296 0)
(-0.00439582 0.0071501 0)
(-0.00747178 0.00699355 0)
(-0.0104818 0.00674681 0)
(-0.0133884 0.00641087 0)
(-0.0161538 0.00598258 0)
(-0.0187421 0.00545462 0)
(-0.0211122 0.00483652 0)
(-0.0232252 0.00413523 0)
(-0.0250521 0.00335476 0)
(-0.0265454 0.00251455 0)
(-0.027678 0.00163024 0)
(-0.0284458 0.000722006 0)
(-0.0288247 -0.000170593 0)
(-0.0288075 -0.00105431 0)
(-0.0284226 -0.0018721 0)
(-0.0276865 -0.00259527 0)
(-0.0266352 -0.00321267 0)
(-0.0253401 -0.00371353 0)
(-0.0238305 -0.00407415 0)
(-0.0221685 -0.00428579 0)
(-0.0204443 -0.00434779 0)
(-0.018696 -0.00427135 0)
(-0.0169795 -0.00406401 0)
(-0.0153552 -0.00375434 0)
(-0.013849 -0.00337004 0)
(-0.0124915 -0.00294841 0)
(-0.0113014 -0.00252168 0)
(-0.0102522 -0.00211518 0)
(-0.00932139 -0.00178093 0)
(-0.0084755 -0.00153108 0)
(-0.00764847 -0.0013921 0)
(-0.00677346 -0.00137548 0)
(-0.00580406 -0.00145781 0)
(-0.00469105 -0.00161803 0)
(-0.00340474 -0.00175456 0)
(-0.00201736 -0.00167629 0)
(-0.000741827 -0.00108277 0)
(0.000118107 0.000102986 0)
(-2.47428e-05 0.000124509 0)
(1.63942e-05 0.000156888 0)
(1.73908e-05 -0.000230461 0)
(0.00116424 -0.00213313 0)
(0.00271217 -0.00304006 0)
(0.00434789 -0.0031288 0)
(0.00583177 -0.00287231 0)
(0.00709798 -0.00257228 0)
(0.00816613 -0.00238908 0)
(0.00912642 -0.00237462 0)
(0.0100608 -0.00254629 0)
(0.0110273 -0.0028914 0)
(0.0120992 -0.00336742 0)
(0.013326 -0.00392899 0)
(0.0147326 -0.00454015 0)
(0.0163235 -0.00513837 0)
(0.0180924 -0.00567629 0)
(0.0200029 -0.00608987 0)
(0.0220067 -0.00634967 0)
(0.0240528 -0.00642306 0)
(0.0260715 -0.00628491 0)
(0.0279883 -0.00592925 0)
(0.0297203 -0.00536933 0)
(0.0312016 -0.00460413 0)
(0.0323763 -0.00365563 0)
(0.0331844 -0.00255751 0)
(0.0336052 -0.00134678 0)
(0.0335844 -5.29948e-05 0)
(0.0331059 0.00127199 0)
(0.0321996 0.00259438 0)
(0.0308639 0.00388129 0)
(0.0291236 0.00509814 0)
(0.027012 0.00622099 0)
(0.0245724 0.00722695 0)
(0.0218464 0.00810427 0)
(0.0188826 0.00884587 0)
(0.0157281 0.00945247 0)
(0.0124238 0.00992264 0)
(0.00901291 0.0102651 0)
(0.00552959 0.0104897 0)
(0.00200489 0.0106024 0)
(-0.00153571 0.0106101 0)
(-0.00506413 0.0105117 0)
(-0.00855726 0.0102987 0)
(-0.0119791 0.00996434 0)
(-0.0152924 0.00950161 0)
(-0.0184641 0.00890125 0)
(-0.0214437 0.0081659 0)
(-0.0241815 0.0072943 0)
(-0.0266392 0.00629421 0)
(-0.0287683 0.005177 0)
(-0.0305215 0.00397485 0)
(-0.0318736 0.0026949 0)
(-0.0328009 0.00137148 0)
(-0.0332952 5.26999e-05 0)
(-0.033334 -0.0012317 0)
(-0.0329344 -0.0024375 0)
(-0.0321483 -0.00351471 0)
(-0.0310042 -0.00444729 0)
(-0.0295543 -0.00520454 0)
(-0.027858 -0.00574829 0)
(-0.0259849 -0.0060874 0)
(-0.0240223 -0.00621073 0)
(-0.0220289 -0.0061261 0)
(-0.020074 -0.00585282 0)
(-0.0182274 -0.0054306 0)
(-0.0165204 -0.00490091 0)
(-0.014982 -0.00431033 0)
(-0.0136356 -0.00372665 0)
(-0.0124661 -0.00318005 0)
(-0.0114412 -0.00274199 0)
(-0.0105096 -0.00245319 0)
(-0.00959902 -0.00233331 0)
(-0.00862719 -0.00240411 0)
(-0.00752707 -0.00264341 0)
(-0.00622766 -0.00298314 0)
(-0.00468467 -0.00328002 0)
(-0.002972 -0.00323151 0)
(-0.00132868 -0.00234509 0)
(-0.000100892 -0.000422119 0)
(-3.04373e-05 5.2978e-05 0)
(-2.94819e-06 7.26425e-05 0)
(9.68968e-05 -0.000886293 0)
(0.00151525 -0.00359291 0)
(0.00333168 -0.00477935 0)
(0.0051583 -0.00478092 0)
(0.00672765 -0.00428755 0)
(0.00798364 -0.00375082 0)
(0.00896581 -0.00339014 0)
(0.00980866 -0.00328675 0)
(0.0106217 -0.00346245 0)
(0.0114963 -0.00389222 0)
(0.0125209 -0.00451886 0)
(0.0137478 -0.00527119 0)
(0.0152185 -0.00609759 0)
(0.0169285 -0.00689982 0)
(0.018875 -0.00762073 0)
(0.0210158 -0.00818018 0)
(0.0232792 -0.0085259 0)
(0.0256133 -0.00861224 0)
(0.0279346 -0.00841684 0)
(0.0301452 -0.00791303 0)
(0.0321501 -0.00711821 0)
(0.0338735 -0.00605083 0)
(0.0352487 -0.004744 0)
(0.0362079 -0.00323558 0)
(0.0367114 -0.00157074 0)
(0.0367251 0.000183664 0)
(0.0362314 0.00198718 0)
(0.0352405 0.00378211 0)
(0.0337673 0.00551396 0)
(0.0318432 0.00714269 0)
(0.0295046 0.0086365 0)
(0.0268026 0.00997175 0)
(0.0237953 0.0111289 0)
(0.0205361 0.0120995 0)
(0.0170748 0.0128797 0)
(0.0134638 0.0134807 0)
(0.00974994 0.0139134 0)
(0.0059681 0.0141932 0)
(0.00214934 0.0143347 0)
(-0.00168334 0.0143447 0)
(-0.00550621 0.0142228 0)
(-0.00929586 0.0139583 0)
(-0.0130219 0.0135389 0)
(-0.016648 0.0129457 0)
(-0.020124 0.0121684 0)
(-0.0234013 0.011208 0)
(-0.0264284 0.0100611 0)
(-0.0291474 0.00873344 0)
(-0.0314979 0.00724419 0)
(-0.0334349 0.00562065 0)
(-0.034931 0.00389436 0)
(-0.0359408 0.002104 0)
(-0.0364463 0.000306578 0)
(-0.0364511 -0.00143785 0)
(-0.035964 -0.00309022 0)
(-0.0350217 -0.00458267 0)
(-0.033677 -0.00586907 0)
(-0.0319798 -0.00692605 0)
(-0.030002 -0.00769053 0)
(-0.0278379 -0.00816484 0)
(-0.0255772 -0.00835699 0)
(-0.0232927 -0.00824441 0)
(-0.021077 -0.00789222 0)
(-0.019012 -0.00732715 0)
(-0.0171268 -0.00660956 0)
(-0.0154806 -0.00580164 0)
(-0.0140847 -0.00500409 0)
(-0.0129155 -0.00426782 0)
(-0.0119551 -0.00370263 0)
(-0.0111238 -0.00334255 0)
(-0.0103401 -0.00323989 0)
(-0.00949538 -0.00341734 0)
(-0.00846898 -0.00385489 0)
(-0.00716907 -0.00445615 0)
(-0.00553891 -0.00501625 0)
(-0.00362528 -0.0050509 0)
(-0.00170603 -0.00388669 0)
(-0.000198204 -0.00116635 0)
(-1.5724e-05 -8.57731e-05 0)
(-3.18833e-05 -3.40563e-05 0)
(0.000155178 -0.00172712 0)
(0.00189474 -0.00530678 0)
(0.00402477 -0.00673704 0)
(0.00604847 -0.00654362 0)
(0.00763051 -0.00568712 0)
(0.0087411 -0.00480401 0)
(0.00948845 -0.0041987 0)
(0.0100446 -0.00399558 0)
(0.0105738 -0.00419295 0)
(0.0112119 -0.00474236 0)
(0.0120767 -0.00557426 0)
(0.0132183 -0.00658774 0)
(0.0146881 -0.00769057 0)
(0.0164891 -0.00878424 0)
(0.0185999 -0.00975035 0)
(0.0209808 -0.010512 0)
(0.0235459 -0.0109938 0)
(0.0262138 -0.0111146 0)
(0.0288977 -0.0108629 0)
(0.0314811 -0.0102132 0)
(0.0338326 -0.00917483 0)
(0.0358632 -0.00777291 0)
(0.0374963 -0.00605049 0)
(0.0386647 -0.00407264 0)
(0.0393153 -0.00190484 0)
(0.0394014 0.000397596 0)
(0.0389165 0.00273607 0)
(0.0378702 0.00505385 0)
(0.0362765 0.00728594 0)
(0.0341836 0.00937264 0)
(0.0316446 0.0112775 0)
(0.0287147 0.0129668 0)
(0.0254512 0.0144186 0)
(0.02192 0.0156215 0)
(0.0181893 0.0165782 0)
(0.0143168 0.0173052 0)
(0.0103499 0.0178204 0)
(0.00632752 0.0181487 0)
(0.00227728 0.0183135 0)
(-0.00178482 0.0183257 0)
(-0.00583977 0.0181849 0)
(-0.00987036 0.0178771 0)
(-0.013849 0.017377 0)
(-0.0177387 0.0166618 0)
(-0.0214866 0.0157116 0)
(-0.0250325 0.0145135 0)
(-0.0283197 0.0130679 0)
(-0.0312822 0.0113873 0)
(-0.0338443 0.0094935 0)
(-0.0359451 0.00740829 0)
(-0.0375506 0.00518055 0)
(-0.0386155 0.00286693 0)
(-0.0391123 0.000533229 0)
(-0.0390397 -0.00175507 0)
(-0.0384063 -0.0039067 0)
(-0.0372531 -0.00586737 0)
(-0.0356508 -0.0075667 0)
(-0.0336369 -0.00894238 0)
(-0.0313 -0.00995381 0)
(-0.0287843 -0.0105783 0)
(-0.0261556 -0.0108121 0)
(-0.0235318 -0.0106565 0)
(-0.0210365 -0.0101686 0)
(-0.0187335 -0.00939404 0)
(-0.0166858 -0.00841135 0)
(-0.0149612 -0.00732726 0)
(-0.0135734 -0.00624889 0)
(-0.0125164 -0.00525861 0)
(-0.0117435 -0.00450803 0)
(-0.0111534 -0.00403118 0)
(-0.0106572 -0.00392704 0)
(-0.0100956 -0.00423359 0)
(-0.00931067 -0.00492832 0)
(-0.00815945 -0.00591526 0)
(-0.00648928 -0.00686467 0)
(-0.00435712 -0.00712014 0)
(-0.00212757 -0.00571044 0)
(-0.000284863 -0.00210986 0)
(7.45771e-06 -0.000255722 0)
(-6.36929e-05 -0.000172819 0)
(0.000262934 -0.00283331 0)
(0.00247537 -0.00737888 0)
(0.00506211 -0.00898744 0)
(0.00734456 -0.00840622 0)
(0.00890113 -0.00698909 0)
(0.00975278 -0.00559846 0)
(0.0100813 -0.00466247 0)
(0.0101761 -0.00433374 0)
(0.0102849 -0.00459113 0)
(0.0105683 -0.00533143 0)
(0.0111661 -0.00645938 0)
(0.0121595 -0.0078293 0)
(0.0135928 -0.00931853 0)
(0.0154789 -0.0108007 0)
(0.0177933 -0.0121108 0)
(0.0204577 -0.013139 0)
(0.0233991 -0.0138116 0)
(0.0264992 -0.0140235 0)
(0.0296239 -0.0137202 0)
(0.0326564 -0.0129147 0)
(0.0354498 -0.011607 0)
(0.037886 -0.00982468 0)
(0.0398576 -0.00762838 0)
(0.0412771 -0.00510525 0)
(0.0421117 -0.00234668 0)
(0.0422961 0.000551348 0)
(0.0418142 0.00350173 0)
(0.0407063 0.00640845 0)
(0.0389816 0.00919431 0)
(0.0367008 0.011797 0)
(0.033928 0.0141517 0)
(0.0307268 0.0162214 0)
(0.0271748 0.017978 0)
(0.0233493 0.0194131 0)
(0.0193287 0.0205431 0)
(0.0151798 0.0213842 0)
(0.010954 0.0219673 0)
(0.00669018 0.0223327 0)
(0.00241126 0.0225135 0)
(-0.00187526 0.0225281 0)
(-0.00616026 0.0223758 0)
(-0.0104352 0.0220354 0)
(-0.0146763 0.02147 0)
(-0.0188473 0.0206425 0)
(-0.0228918 0.0195266 0)
(-0.0267408 0.0180953 0)
(-0.0303181 0.0163416 0)
(-0.0335429 0.0142807 0)
(-0.0363416 0.0119382 0)
(-0.0386396 0.00934542 0)
(-0.0403769 0.00655459 0)
(-0.0414997 0.00364417 0)
(-0.0419846 0.000699583 0)
(-0.0418091 -0.00218959 0)
(-0.0409917 -0.00492488 0)
(-0.0395865 -0.00742863 0)
(-0.0376358 -0.00959153 0)
(-0.0352209 -0.0113323 0)
(-0.0324565 -0.0126176 0)
(-0.029477 -0.0133996 0)
(-0.0263981 -0.0136493 0)
(-0.0233559 -0.0134212 0)
(-0.0204909 -0.0127257 0)
(-0.0179027 -0.0116641 0)
(-0.0156774 -0.0103304 0)
(-0.0139006 -0.00885655 0)
(-0.012556 -0.00737937 0)
(-0.0116653 -0.00606805 0)
(-0.0111711 -0.0050269 0)
(-0.0109457 -0.00437704 0)
(-0.0109 -0.00425088 0)
(-0.0108006 -0.00471428 0)
(-0.0104318 -0.00576765 0)
(-0.00954173 -0.007283 0)
(-0.00788486 -0.00882471 0)
(-0.00546537 -0.00949632 0)
(-0.00274543 -0.00791483 0)
(-0.000411196 -0.0033124 0)
(3.84527e-05 -0.000468542 0)
(-0.000113304 -0.000365348 0)
(0.000456493 -0.00429906 0)
(0.0034197 -0.0100266 0)
(0.00671123 -0.0116708 0)
(0.00937111 -0.0103949 0)
(0.010824 -0.0080785 0)
(0.0112244 -0.00596119 0)
(0.0109151 -0.00460097 0)
(0.01032 -0.00413938 0)
(0.00980989 -0.00450218 0)
(0.0095946 -0.00555949 0)
(0.00983991 -0.00709027 0)
(0.0106314 -0.00895031 0)
(0.0120092 -0.0109433 0)
(0.014008 -0.0129375 0)
(0.0165853 -0.0147299 0)
(0.0196198 -0.0161378 0)
(0.023019 -0.0170611 0)
(0.0266775 -0.0174236 0)
(0.0303949 -0.0171102 0)
(0.0340023 -0.0161231 0)
(0.0373535 -0.0145104 0)
(0.0402931 -0.0122893 0)
(0.0426843 -0.00953569 0)
(0.044431 -0.00639326 0)
(0.0454684 -0.00294537 0)
(0.0457572 0.000642572 0)
(0.0452914 0.0042942 0)
(0.0440911 0.00787818 0)
(0.0422025 0.0112911 0)
(0.0396855 0.0144565 0)
(0.0366147 0.0172984 0)
(0.0330804 0.0197697 0)
(0.0291687 0.0218452 0)
(0.0249863 0.0235224 0)
(0.0206238 0.0248142 0)
(0.0161492 0.02575 0)
(0.0116261 0.0263802 0)
(0.00709337 0.0267633 0)
(0.00256501 0.0269499 0)
(-0.00196473 0.026968 0)
(-0.00650306 0.0268168 0)
(-0.0110542 0.0264643 0)
(-0.0156007 0.0258573 0)
(-0.0201 0.0249401 0)
(-0.0244949 0.0236685 0)
(-0.0287087 0.0220068 0)
(-0.0326472 0.0199393 0)
(-0.0362137 0.0174686 0)
(-0.0393118 0.0146262 0)
(-0.0418523 0.01146 0)
(-0.0437577 0.0080365 0)
(-0.0449586 0.00444754 0)
(-0.0454217 0.000799305 0)
(-0.045132 -0.00278556 0)
(-0.0441063 -0.00620364 0)
(-0.0423703 -0.00931779 0)
(-0.0399908 -0.0120254 0)
(-0.0370808 -0.0142059 0)
(-0.0337635 -0.0157836 0)
(-0.0301904 -0.0167364 0)
(-0.0265312 -0.0169865 0)
(-0.0229479 -0.0166152 0)
(-0.0196122 -0.0156421 0)
(-0.016666 -0.0141978 0)
(-0.0141986 -0.0123731 0)
(-0.0123173 -0.0103882 0)
(-0.0110684 -0.00839387 0)
(-0.0104219 -0.00660869 0)
(-0.0102926 -0.00514336 0)
(-0.0106014 -0.00423922 0)
(-0.0111921 -0.00404026 0)
(-0.0117729 -0.0046504 0)
(-0.0120391 -0.00619702 0)
(-0.0116021 -0.00848269 0)
(-0.0100287 -0.0109626 0)
(-0.00718939 -0.0123313 0)
(-0.0037116 -0.0106974 0)
(-0.000618527 -0.00490631 0)
(6.94067e-05 -0.00075515 0)
(-0.000161978 -0.000659436 0)
(0.000755178 -0.00636356 0)
(0.00496548 -0.0135818 0)
(0.00945906 -0.0150531 0)
(0.01262 -0.0125383 0)
(0.0137759 -0.00879137 0)
(0.0133605 -0.00562276 0)
(0.0120391 -0.00374355 0)
(0.0104661 -0.00320871 0)
(0.00909243 -0.00376744 0)
(0.00822113 -0.00528402 0)
(0.0080182 -0.00739627 0)
(0.00855283 -0.00991626 0)
(0.00986604 -0.012604 0)
(0.0119711 -0.0152629 0)
(0.0148815 -0.0176859 0)
(0.0184253 -0.0196126 0)
(0.0224283 -0.0208951 0)
(0.026784 -0.0214441 0)
(0.0312774 -0.0211588 0)
(0.0356288 -0.0199987 0)
(0.0396766 -0.01803 0)
(0.04327 -0.0152683 0)
(0.0461809 -0.0118767 0)
(0.0483126 -0.00798467 0)
(0.0496099 -0.00374982 0)
(0.0500171 0.000670475 0)
(0.0495518 0.00513281 0)
(0.0482264 0.00949167 0)
(0.0461063 0.0136302 0)
(0.0432777 0.0174272 0)
(0.0398287 0.0208109 0)
(0.0358713 0.0237169 0)
(0.0315269 0.0261226 0)
(0.0269067 0.0280316 0)
(0.0221156 0.0294594 0)
(0.01725 0.0304591 0)
(0.0123797 0.0311011 0)
(0.00754178 0.0314721 0)
(0.00274101 0.0316473 0)
(-0.00205096 0.0316714 0)
(-0.00686813 0.0315426 0)
(-0.0117342 0.0312093 0)
(-0.0166391 0.0305945 0)
(-0.0215402 0.0296173 0)
(-0.0263676 0.0282104 0)
(-0.0310301 0.026321 0)
(-0.0354213 0.0239219 0)
(-0.0394183 0.0210062 0)
(-0.0428981 0.0176157 0)
(-0.0457512 0.0138063 0)
(-0.0478796 0.00966387 0)
(-0.0491957 0.00528682 0)
(-0.0496522 0.000827431 0)
(-0.0492318 -0.00357967 0)
(-0.0479331 -0.00779353 0)
(-0.0458048 -0.0116337 0)
(-0.0429082 -0.0149825 0)
(-0.03935 -0.0176942 0)
(-0.0353372 -0.0196175 0)
(-0.031009 -0.0207439 0)
(-0.026586 -0.0209703 0)
(-0.0223076 -0.0203632 0)
(-0.0183634 -0.0190109 0)
(-0.0149191 -0.0170267 0)
(-0.0121445 -0.0145661 0)
(-0.010182 -0.011902 0)
(-0.00901634 -0.00922034 0)
(-0.00864018 -0.00676845 0)
(-0.00901964 -0.0047393 0)
(-0.0100473 -0.00342116 0)
(-0.0114863 -0.00303289 0)
(-0.0130853 -0.00381094 0)
(-0.0143912 -0.0059328 0)
(-0.0147409 -0.00932806 0)
(-0.0134161 -0.0132784 0)
(-0.00999967 -0.0159127 0)
(-0.00528505 -0.0144385 0)
(-0.000941812 -0.00712384 0)
(0.000109527 -0.00114695 0)
(-0.000223055 -0.00112976 0)
(0.00147813 -0.00951982 0)
(0.00808135 -0.0187044 0)
(0.0145972 -0.0195067 0)
(0.0182324 -0.0147443 0)
(0.0184523 -0.00873399 0)
(0.0164475 -0.00413896 0)
(0.0134778 -0.00164321 0)
(0.0105139 -0.00114687 0)
(0.0079964 -0.00215513 0)
(0.00624405 -0.00432661 0)
(0.00548483 -0.0072777 0)
(0.00570199 -0.0106937 0)
(0.00695467 -0.0142939 0)
(0.00923664 -0.0178427 0)
(0.0125605 -0.0210866 0)
(0.0167553 -0.0236821 0)
(0.0215578 -0.0254685 0)
(0.0268159 -0.0262979 0)
(0.0322749 -0.0260764 0)
(0.0375947 -0.0247207 0)
(0.0425708 -0.0223027 0)
(0.0469541 -0.018923 0)
(0.0504994 -0.0147355 0)
(0.0531125 -0.00994184 0)
(0.0547031 -0.00475825 0)
(0.0552454 0.000643179 0)
(0.0547475 0.00606022 0)
(0.0532556 0.0113141 0)
(0.050841 0.0162623 0)
(0.047606 0.0207806 0)
(0.0436769 0.024766 0)
(0.0391894 0.0281553 0)
(0.034293 0.0309073 0)
(0.0291261 0.0330261 0)
(0.0238197 0.0345565 0)
(0.0184861 0.035573 0)
(0.0132101 0.0361786 0)
(0.00803323 0.0364878 0)
(0.00294229 0.0366262 0)
(-0.00212414 0.0366611 0)
(-0.00724446 0.0365885 0)
(-0.0124701 0.0363236 0)
(-0.0177994 0.0357526 0)
(-0.0231806 0.0347592 0)
(-0.0285349 0.0332472 0)
(-0.0337555 0.0311443 0)
(-0.0387144 0.0283926 0)
(-0.0432539 0.0250067 0)
(-0.0472168 0.0210065 0)
(-0.0504713 0.0164669 0)
(-0.0529015 0.0114885 0)
(-0.0543777 0.00620005 0)
(-0.0548377 0.00078488 0)
(-0.0542783 -0.00459254 0)
(-0.0526664 -0.00974407 0)
(-0.0500493 -0.0144798 0)
(-0.0465253 -0.0186108 0)
(-0.0421712 -0.0219348 0)
(-0.0372415 -0.0243008 0)
(-0.0319393 -0.0256097 0)
(-0.0265176 -0.0257832 0)
(-0.0213317 -0.0248574 0)
(-0.0166009 -0.0229935 0)
(-0.0125267 -0.020304 0)
(-0.00936037 -0.0170014 0)
(-0.00723645 -0.0134223 0)
(-0.00618014 -0.00979423 0)
(-0.00617895 -0.0064467 0)
(-0.00717933 -0.00362444 0)
(-0.00911079 -0.00167451 0)
(-0.0117568 -0.000885064 0)
(-0.0147883 -0.00170139 0)
(-0.0177122 -0.00449269 0)
(-0.0196624 -0.00942289 0)
(-0.019269 -0.0157053 0)
(-0.0153375 -0.0206262 0)
(-0.00849128 -0.0197872 0)
(-0.00166899 -0.0104361 0)
(0.000166887 -0.0017204 0)
(-0.000217151 -0.00218353 0)
(0.00391323 -0.0149734 0)
(0.0155996 -0.0268217 0)
(0.0252379 -0.0253647 0)
(0.0285291 -0.016362 0)
(0.0260776 -0.00687128 0)
(0.0209256 -0.000539774 0)
(0.0152772 0.00237547 0)
(0.0102388 0.00246483 0)
(0.00623979 0.000578256 0)
(0.00344021 -0.00256917 0)
(0.00199071 -0.0066601 0)
(0.00187667 -0.0112817 0)
(0.00307232 -0.0160614 0)
(0.00555756 -0.0207155 0)
(0.00944032 -0.0250014 0)
(0.0144733 -0.0285332 0)
(0.0202864 -0.0309905 0)
(0.0267005 -0.0322166 0)
(0.0334282 -0.0320907 0)
(0.0400214 -0.0304972 0)
(0.0461299 -0.027531 0)
(0.0515243 -0.0233805 0)
(0.0558812 -0.0182184 0)
(0.0590404 -0.0123354 0)
(0.0609774 -0.00599008 0)
(0.0616534 0.000578671 0)
(0.0610811 0.00710737 0)
(0.0593341 0.0134053 0)
(0.0565325 0.0192995 0)
(0.0527971 0.0246369 0)
(0.0482712 0.029294 0)
(0.043125 0.0331942 0)
(0.0375398 0.036296 0)
(0.0317014 0.0386102 0)
(0.0257706 0.0401977 0)
(0.0198842 0.0411643 0)
(0.0141352 0.0416563 0)
(0.00857536 0.0418426 0)
(0.00317628 0.0419022 0)
(-0.0021814 0.0419553 0)
(-0.00763172 0.0419885 0)
(-0.0132659 0.0418681 0)
(-0.0190921 0.0414153 0)
(-0.025054 0.0404712 0)
(-0.0310477 0.0389011 0)
(-0.0369593 0.0365991 0)
(-0.0426127 0.0334933 0)
(-0.0478202 0.0295892 0)
(-0.0524055 0.024901 0)
(-0.0561833 0.0195135 0)
(-0.0590039 0.0135672 0)
(-0.0607029 0.00722562 0)
(-0.0612049 0.000677938 0)
(-0.0604851 -0.00585832 0)
(-0.0585142 -0.0121445 0)
(-0.0553396 -0.0179597 0)
(-0.051005 -0.0230459 0)
(-0.0456512 -0.0271401 0)
(-0.0395819 -0.0300571 0)
(-0.0330114 -0.0315879 0)
(-0.0263097 -0.0316783 0)
(-0.019948 -0.0303344 0)
(-0.0141989 -0.0277765 0)
(-0.00927863 -0.024131 0)
(-0.00558817 -0.0196991 0)
(-0.00327378 -0.0149621 0)
(-0.00232156 -0.0101523 0)
(-0.0027428 -0.00559773 0)
(-0.00451211 -0.00165127 0)
(-0.00755449 0.00127678 0)
(-0.011714 0.00283955 0)
(-0.0168674 0.00238192 0)
(-0.0225575 -0.000919536 0)
(-0.027727 -0.00768131 0)
(-0.030045 -0.0176012 0)
(-0.0264775 -0.0268604 0)
(-0.0164009 -0.0282304 0)
(-0.00425576 -0.0160653 0)
(0.000151971 -0.00290256 0)
(0.000245679 -0.00537512 0)
(0.011099 -0.0256849 0)
(0.031469 -0.0397688 0)
(0.0445641 -0.0322271 0)
(0.0455982 -0.0152141 0)
(0.0376782 -0.000719594 0)
(0.0268693 0.00699041 0)
(0.0170508 0.00933362 0)
(0.00921452 0.00816125 0)
(0.00347986 0.00474958 0)
(-0.000456252 8.3608e-05 0)
(-0.00267058 -0.00546997 0)
(-0.00312141 -0.0115904 0)
(-0.0018715 -0.0179021 0)
(0.000935922 -0.0240315 0)
(0.00540562 -0.0296144 0)
(0.01146 -0.0343911 0)
(0.0186182 -0.0377266 0)
(0.0265216 -0.0394983 0)
(0.0348561 -0.0394977 0)
(0.0430726 -0.0376391 0)
(0.0506529 -0.0339907 0)
(0.0572696 -0.0288123 0)
(0.0625872 -0.0224418 0)
(0.0664211 -0.0152024 0)
(0.0687388 -0.00745048 0)
(0.0695153 0.000487871 0)
(0.068806 0.00833345 0)
(0.0667466 0.0158597 0)
(0.0634473 0.0228544 0)
(0.0590556 0.0291292 0)
(0.0537702 0.0345358 0)
(0.047805 0.0389818 0)
(0.0413892 0.042439 0)
(0.034747 0.0449099 0)
(0.0280767 0.0464897 0)
(0.0215398 0.0473168 0)
(0.0152447 0.0475932 0)
(0.00923586 0.0475653 0)
(0.00346058 0.0474984 0)
(-0.00224813 0.047581 0)
(-0.00809071 0.0477891 0)
(-0.0142062 0.0479046 0)
(-0.0206177 0.0476699 0)
(-0.0272552 0.0468603 0)
(-0.0340152 0.0452911 0)
(-0.0407579 0.0428186 0)
(-0.0472696 0.0393768 0)
(-0.0533259 0.034906 0)
(-0.0586998 0.0294441 0)
(-0.0631373 0.0230867 0)
(-0.0664455 0.0160015 0)
(-0.0684511 0.00840263 0)
(-0.0690454 0.000521606 0)
(-0.0681722 -0.00738449 0)
(-0.0657939 -0.0150635 0)
(-0.0619354 -0.0222039 0)
(-0.0566475 -0.0284791 0)
(-0.0500838 -0.0335868 0)
(-0.0425414 -0.0372009 0)
(-0.034352 -0.0390118 0)
(-0.0260051 -0.0389692 0)
(-0.0181075 -0.0370621 0)
(-0.0110175 -0.0335603 0)
(-0.00503395 -0.0285945 0)
(-0.000744362 -0.0228131 0)
(0.00179681 -0.0165072 0)
(0.00270225 -0.0101402 0)
(0.00186897 -0.00407206 0)
(-0.000730363 0.00131776 0)
(-0.00502127 0.00572914 0)
(-0.0110265 0.00872483 0)
(-0.0190134 0.00950842 0)
(-0.0289442 0.00670209 0)
(-0.0399809 -0.00145473 0)
(-0.0479805 -0.0165205 0)
(-0.0467628 -0.034018 0)
(-0.0331129 -0.0416657 0)
(-0.011957 -0.0272223 0)
(-0.000396685 -0.00630475 0)
(0.00213835 -0.0140403 0)
(0.0258612 -0.046518 0)
(0.0535638 -0.0596508 0)
(0.0676321 -0.0392459 0)
(0.0647425 -0.00888154 0)
(0.0496113 0.0121448 0)
(0.0318251 0.0202722 0)
(0.0173725 0.0202451 0)
(0.00663743 0.0163106 0)
(-0.000802433 0.0104919 0)
(-0.00565212 0.00370911 0)
(-0.0084144 -0.00372262 0)
(-0.00914927 -0.0116923 0)
(-0.00785475 -0.0198924 0)
(-0.00457151 -0.0278994 0)
(0.000678609 -0.0351425 0)
(0.00792758 -0.041515 0)
(0.0167552 -0.0460227 0)
(0.0265207 -0.048537 0)
(0.0368763 -0.0487412 0)
(0.0471251 -0.046524 0)
(0.0565632 -0.0419836 0)
(0.0646884 -0.0354912 0)
(0.0711332 -0.0275363 0)
(0.0757196 -0.0186101 0)
(0.0784183 -0.00915041 0)
(0.0792691 0.000429313 0)
(0.0783738 0.00984197 0)
(0.0758732 0.0188094 0)
(0.0719234 0.0270652 0)
(0.0667099 0.0344005 0)
(0.060477 0.0406452 0)
(0.053519 0.0456864 0)
(0.0461089 0.0494813 0)
(0.038529 0.0520562 0)
(0.0310179 0.0535293 0)
(0.0237335 0.0541121 0)
(0.0167754 0.0540635 0)
(0.0101754 0.0537373 0)
(0.00385585 0.0534929 0)
(-0.00239191 0.0536154 0)
(-0.00880081 0.0540659 0)
(-0.0155357 0.054516 0)
(-0.0226375 0.0546028 0)
(-0.0300621 0.0540287 0)
(-0.0377064 0.0525515 0)
(-0.0454038 0.0499852 0)
(-0.0529436 0.0462134 0)
(-0.0600611 0.0411597 0)
(-0.0664306 0.0348304 0)
(-0.0717317 0.0273447 0)
(-0.0756908 0.018907 0)
(-0.0780848 0.00980383 0)
(-0.078802 0.000323182 0)
(-0.077794 -0.00922498 0)
(-0.0749806 -0.0185583 0)
(-0.0703383 -0.0273329 0)
(-0.0639266 -0.0351314 0)
(-0.0558911 -0.0415396 0)
(-0.0465133 -0.0460818 0)
(-0.0362726 -0.0482636 0)
(-0.0258555 -0.0479868 0)
(-0.0160118 -0.0453342 0)
(-0.00718308 -0.0405802 0)
(4.95528e-07 -0.0339919 0)
(0.00505659 -0.0264472 0)
(0.00802797 -0.018177 0)
(0.00884931 -0.00981934 0)
(0.00758112 -0.00182968 0)
(0.00429015 0.00538168 0)
(-0.00105815 0.011802 0)
(-0.00878769 0.0171301 0)
(-0.0196913 0.0206528 0)
(-0.0343052 0.0202401 0)
(-0.0523905 0.0116445 0)
(-0.0677629 -0.0101249 0)
(-0.070679 -0.0414309 0)
(-0.0562382 -0.0623341 0)
(-0.0276111 -0.0491232 0)
(-0.00240988 -0.0159088 0)
(0.00691499 -0.0333985 0)
(0.0414631 -0.0796352 0)
(0.0669977 -0.0837815 0)
(0.0764197 -0.0440102 0)
(0.0690656 0.00238248 0)
(0.0497899 0.0304673 0)
(0.0291683 0.0384151 0)
(0.0127421 0.0345943 0)
(0.000755266 0.0265433 0)
(-0.00741418 0.0175326 0)
(-0.0126888 0.00818792 0)
(-0.0156959 -0.00155769 0)
(-0.016524 -0.0117475 0)
(-0.0150294 -0.0221663 0)
(-0.0110993 -0.0323713 0)
(-0.00493718 -0.0418693 0)
(0.00378344 -0.0501162 0)
(0.0147355 -0.0562734 0)
(0.0268549 -0.0598128 0)
(0.0397668 -0.0603051 0)
(0.052575 -0.0575946 0)
(0.0643092 -0.0518585 0)
(0.0742647 -0.0436487 0)
(0.0820184 -0.0336913 0)
(0.0874398 -0.0226618 0)
(0.0905489 -0.0111077 0)
(0.0914439 0.000471829 0)
(0.090285 0.0117364 0)
(0.0872244 0.0223897 0)
(0.0824508 0.0321314 0)
(0.0762194 0.0406898 0)
(0.0688449 0.0478535 0)
(0.0606926 0.0534928 0)
(0.0521307 0.0575637 0)
(0.0434909 0.0601475 0)
(0.0350306 0.061405 0)
(0.0268751 0.0616593 0)
(0.019075 0.061218 0)
(0.0116241 0.0605712 0)
(0.00442947 0.0601514 0)
(-0.00268934 0.0603023 0)
(-0.00996226 0.0610017 0)
(-0.0175554 0.0618288 0)
(-0.0255189 0.0623046 0)
(-0.0338387 0.0620488 0)
(-0.042467 0.0607979 0)
(-0.0512729 0.0582445 0)
(-0.0600294 0.0542021 0)
(-0.0684397 0.0485747 0)
(-0.0760816 0.0412657 0)
(-0.0824827 0.0324492 0)
(-0.0872622 0.0224048 0)
(-0.090156 0.0115019 0)
(-0.0910307 0.000105731 0)
(-0.0898331 -0.011407 0)
(-0.0865088 -0.022717 0)
(-0.0809867 -0.0335044 0)
(-0.0732827 -0.043215 0)
(-0.0635009 -0.0513128 0)
(-0.0518469 -0.0571027 0)
(-0.0389943 -0.0598574 0)
(-0.0259652 -0.0593344 0)
(-0.0136665 -0.055679 0)
(-0.00267498 -0.0492064 0)
(0.00605561 -0.0406316 0)
(0.0120944 -0.0306732 0)
(0.0156095 -0.0200295 0)
(0.0164873 -0.00930521 0)
(0.0148458 0.00101996 0)
(0.0110221 0.0104575 0)
(0.00509134 0.0192824 0)
(-0.00339248 0.0276729 0)
(-0.0154176 0.0351594 0)
(-0.0317829 0.0384524 0)
(-0.0524799 0.0301044 0)
(-0.071884 0.00107939 0)
(-0.0791913 -0.0464373 0)
(-0.0696246 -0.0871664 0)
(-0.0435655 -0.0836883 0)
(-0.00763869 -0.0364409 0)
(0.0136923 -0.06196 0)
(0.0420244 -0.11238 0)