/*--------------------------------*- C++ -*----------------------------------*\
| =========                 |                                                 |
| \\      /  F ield         | OpenFOAM: The Open Source CFD Toolbox           |
|  \\    /   O peration     | Version:  2412                                  |
|   \\  /    A nd           | Website:  www.openfoam.com                      |
|    \\/     M anipulation  |                                                 |
\*---------------------------------------------------------------------------*/
FoamFile
{
    version     2.0;
    format      ascii;
    arch        "LSB;label=32;scalar=64";
    class       volScalarField;
    location    "3.65";
    object      p;
}
// * * * * * * * * * * * * * * * * * * * * * * * * * * * * * * * * * * * * * //

dimensions      [1 -1 -2 0 0 0 0];

internalField   nonuniform List<scalar> 
6400
(
8185.54
8185.73
8185.84
8185.71
8185.32
8184.69
8183.81
8182.74
8181.47
8180.04
8178.47
8176.78
8174.97
8173.08
8171.1
8169.07
8166.98
8164.86
8162.73
8160.59
8158.46
8156.36
8154.3
8152.3
8150.37
8148.51
8146.74
8145.07
8143.51
8142.06
8140.74
8139.53
8138.46
8137.52
8136.71
8136.03
8135.5
8135.09
8134.83
8134.7
8134.7
8134.84
8135.11
8135.52
8136.06
8136.74
8137.54
8138.48
8139.54
8140.73
8142.04
8143.47
8145.01
8146.66
8148.4
8150.22
8152.13
8154.09
8156.11
8158.18
8160.26
8162.36
8164.46
8166.54
8168.58
8170.58
8172.52
8174.37
8176.14
8177.8
8179.33
8180.72
8181.95
8182.99
8183.83
8184.44
8184.8
8184.91
8184.8
8184.6
7768.42
7768.61
7768.69
7768.54
7768.15
7767.52
7766.67
7765.62
7764.38
7762.98
7761.43
7759.75
7757.96
7756.08
7754.12
7752.09
7750.02
7747.91
7745.79
7743.67
7741.56
7739.47
7737.43
7735.45
7733.53
7731.68
7729.93
7728.27
7726.72
7725.28
7723.96
7722.77
7721.7
7720.76
7719.95
7719.28
7718.74
7718.34
7718.07
7717.94
7717.95
7718.09
7718.36
7718.77
7719.31
7719.98
7720.79
7721.72
7722.78
7723.97
7725.27
7726.69
7728.22
7729.86
7731.58
7733.4
7735.29
7737.24
7739.24
7741.29
7743.36
7745.44
7747.52
7749.59
7751.62
7753.6
7755.52
7757.36
7759.11
7760.75
7762.26
7763.62
7764.82
7765.84
7766.66
7767.26
7767.63
7767.76
7767.67
7767.47
7351.39
7351.61
7351.69
7351.53
7351.13
7350.51
7349.67
7348.63
7347.4
7346.01
7344.47
7342.8
7341.02
7339.14
7337.18
7335.15
7333.08
7330.98
7328.86
7326.74
7324.63
7322.56
7320.52
7318.54
7316.63
7314.8
7313.05
7311.4
7309.86
7308.42
7307.11
7305.91
7304.85
7303.91
7303.11
7302.43
7301.9
7301.5
7301.23
7301.1
7301.11
7301.25
7301.52
7301.93
7302.47
7303.14
7303.95
7304.88
7305.94
7307.12
7308.43
7309.84
7311.37
7312.99
7314.71
7316.52
7318.4
7320.35
7322.34
7324.38
7326.45
7328.52
7330.6
7332.66
7334.69
7336.67
7338.59
7340.42
7342.16
7343.79
7345.29
7346.64
7347.83
7348.83
7349.64
7350.24
7350.61
7350.76
7350.66
7350.44
6934.59
6934.84
6934.94
6934.77
6934.37
6933.74
6932.89
6931.85
6930.62
6929.22
6927.67
6925.98
6924.18
6922.29
6920.31
6918.26
6916.18
6914.06
6911.92
6909.79
6907.68
6905.59
6903.55
6901.56
6899.64
6897.81
6896.06
6894.41
6892.86
6891.43
6890.11
6888.92
6887.85
6886.92
6886.11
6885.44
6884.91
6884.51
6884.24
6884.11
6884.12
6884.26
6884.53
6884.94
6885.49
6886.16
6886.97
6887.9
6888.96
6890.15
6891.45
6892.87
6894.4
6896.02
6897.75
6899.56
6901.44
6903.39
6905.4
6907.44
6909.52
6911.61
6913.7
6915.77
6917.81
6919.81
6921.74
6923.59
6925.34
6926.98
6928.49
6929.84
6931.04
6932.04
6932.85
6933.46
6933.84
6933.99
6933.88
6933.62
6518.06
6518.33
6518.43
6518.25
6517.83
6517.18
6516.32
6515.26
6514
6512.58
6511
6509.28
6507.45
6505.52
6503.51
6501.43
6499.3
6497.15
6494.99
6492.83
6490.68
6488.57
6486.51
6484.51
6482.57
6480.72
6478.96
6477.3
6475.75
6474.31
6472.99
6471.79
6470.73
6469.79
6468.98
6468.31
6467.78
6467.38
6467.11
6466.98
6466.99
6467.13
6467.41
6467.82
6468.37
6469.05
6469.86
6470.79
6471.86
6473.05
6474.36
6475.78
6477.32
6478.95
6480.69
6482.51
6484.41
6486.38
6488.4
6490.47
6492.57
6494.69
6496.8
6498.91
6500.98
6503.01
6504.97
6506.86
6508.64
6510.31
6511.84
6513.22
6514.43
6515.46
6516.29
6516.91
6517.3
6517.46
6517.35
6517.07
6101.8
6102.07
6102.16
6101.97
6101.52
6100.85
6099.95
6098.85
6097.56
6096.09
6094.47
6092.71
6090.83
6088.84
6086.77
6084.64
6082.47
6080.26
6078.05
6075.84
6073.66
6071.51
6069.41
6067.38
6065.42
6063.54
6061.76
6060.09
6058.52
6057.07
6055.74
6054.54
6053.47
6052.53
6051.72
6051.05
6050.51
6050.11
6049.85
6049.72
6049.73
6049.88
6050.16
6050.57
6051.12
6051.8
6052.61
6053.56
6054.63
6055.83
6057.14
6058.58
6060.13
6061.78
6063.54
6065.38
6067.31
6069.3
6071.36
6073.46
6075.6
6077.76
6079.92
6082.07
6084.2
6086.27
6088.29
6090.22
6092.05
6093.77
6095.34
6096.77
6098.02
6099.08
6099.94
6100.59
6101
6101.18
6101.08
6100.8
5685.83
5686.09
5686.15
5685.93
5685.45
5684.74
5683.8
5682.64
5681.3
5679.77
5678.08
5676.25
5674.3
5672.25
5670.11
5667.9
5665.66
5663.39
5661.11
5658.84
5656.6
5654.4
5652.25
5650.18
5648.18
5646.27
5644.46
5642.76
5641.17
5639.7
5638.36
5637.15
5636.07
5635.13
5634.32
5633.64
5633.11
5632.71
5632.45
5632.32
5632.34
5632.48
5632.77
5633.18
5633.74
5634.42
5635.24
5636.19
5637.27
5638.48
5639.81
5641.27
5642.83
5644.51
5646.29
5648.17
5650.13
5652.17
5654.27
5656.42
5658.61
5660.83
5663.05
5665.27
5667.46
5669.6
5671.68
5673.69
5675.59
5677.37
5679.01
5680.49
5681.79
5682.91
5683.81
5684.5
5684.95
5685.15
5685.07
5684.81
5270.15
5270.37
5270.4
5270.14
5269.62
5268.85
5267.85
5266.63
5265.22
5263.61
5261.84
5259.92
5257.88
5255.74
5253.5
5251.21
5248.88
5246.52
5244.16
5241.81
5239.5
5237.23
5235.02
5232.89
5230.84
5228.89
5227.05
5225.31
5223.7
5222.21
5220.85
5219.63
5218.54
5217.59
5216.78
5216.1
5215.57
5215.17
5214.91
5214.79
5214.8
5214.95
5215.24
5215.66
5216.22
5216.91
5217.74
5218.7
5219.79
5221.01
5222.36
5223.84
5225.43
5227.14
5228.95
5230.87
5232.88
5234.96
5237.12
5239.33
5241.59
5243.88
5246.18
5248.48
5250.76
5252.99
5255.16
5257.25
5259.24
5261.11
5262.83
5264.39
5265.76
5266.94
5267.91
5268.64
5269.14
5269.38
5269.33
5269.09
4854.75
4854.94
4854.93
4854.62
4854.04
4853.2
4852.13
4850.83
4849.32
4847.61
4845.74
4843.72
4841.56
4839.31
4836.96
4834.56
4832.11
4829.65
4827.19
4824.75
4822.35
4820
4817.72
4815.52
4813.42
4811.42
4809.52
4807.75
4806.11
4804.59
4803.21
4801.97
4800.87
4799.91
4799.1
4798.42
4797.89
4797.49
4797.23
4797.12
4797.13
4797.29
4797.58
4798
4798.57
4799.26
4800.1
4801.07
4802.17
4803.41
4804.78
4806.28
4807.91
4809.66
4811.52
4813.48
4815.54
4817.69
4819.92
4822.21
4824.55
4826.93
4829.32
4831.72
4834.1
4836.44
4838.72
4840.92
4843.02
4844.99
4846.81
4848.47
4849.93
4851.19
4852.23
4853.03
4853.58
4853.87
4853.86
4853.65
4439.64
4439.79
4439.73
4439.36
4438.71
4437.8
4436.63
4435.23
4433.61
4431.79
4429.79
4427.63
4425.35
4422.95
4420.48
4417.94
4415.37
4412.78
4410.2
4407.65
4405.15
4402.71
4400.34
4398.07
4395.89
4393.83
4391.89
4390.07
4388.39
4386.84
4385.44
4384.18
4383.07
4382.1
4381.28
4380.6
4380.07
4379.67
4379.42
4379.3
4379.32
4379.48
4379.78
4380.21
4380.77
4381.48
4382.32
4383.3
4384.42
4385.68
4387.08
4388.61
4390.27
4392.06
4393.97
4396
4398.13
4400.35
4402.66
4405.04
4407.48
4409.96
4412.47
4414.98
4417.49
4419.96
4422.37
4424.7
4426.92
4429.02
4430.96
4432.73
4434.3
4435.66
4436.78
4437.66
4438.28
4438.62
4438.66
4438.49
4024.84
4024.94
4024.82
4024.38
4023.65
4022.64
4021.37
4019.85
4018.1
4016.14
4013.99
4011.68
4009.24
4006.68
4004.05
4001.35
3998.63
3995.9
3993.18
3990.51
3987.89
3985.34
3982.87
3980.51
3978.26
3976.13
3974.12
3972.26
3970.53
3968.95
3967.52
3966.24
3965.12
3964.14
3963.32
3962.64
3962.11
3961.72
3961.47
3961.35
3961.38
3961.54
3961.84
3962.27
3962.84
3963.55
3964.4
3965.39
3966.53
3967.81
3969.23
3970.8
3972.51
3974.35
3976.32
3978.41
3980.62
3982.93
3985.33
3987.81
3990.37
3992.97
3995.61
3998.26
4000.91
4003.53
4006.1
4008.58
4010.96
4013.2
4015.29
4017.19
4018.89
4020.36
4021.58
4022.55
4023.24
4023.65
4023.75
4023.63
3610.35
3610.4
3610.2
3609.68
3608.86
3607.75
3606.36
3604.71
3602.81
3600.68
3598.35
3595.86
3593.23
3590.49
3587.67
3584.8
3581.9
3579
3576.13
3573.31
3570.55
3567.88
3565.31
3562.85
3560.5
3558.3
3556.23
3554.3
3552.53
3550.91
3549.45
3548.15
3547.02
3546.03
3545.21
3544.53
3544
3543.62
3543.37
3543.27
3543.29
3543.46
3543.76
3544.19
3544.77
3545.48
3546.34
3547.34
3548.49
3549.79
3551.25
3552.86
3554.61
3556.51
3558.55
3560.72
3563.01
3565.41
3567.92
3570.52
3573.2
3575.95
3578.74
3581.55
3584.37
3587.16
3589.91
3592.57
3595.13
3597.55
3599.8
3601.86
3603.7
3605.3
3606.64
3607.71
3608.49
3608.97
3609.14
3609.07
3196.2
3196.17
3195.88
3195.28
3194.36
3193.14
3191.62
3189.81
3187.74
3185.42
3182.89
3180.19
3177.35
3174.39
3171.35
3168.27
3165.17
3162.08
3159.03
3156.04
3153.13
3150.32
3147.63
3145.06
3142.62
3140.32
3138.18
3136.19
3134.37
3132.71
3131.22
3129.9
3128.75
3127.77
3126.94
3126.27
3125.75
3125.38
3125.14
3125.04
3125.07
3125.24
3125.54
3125.98
3126.55
3127.27
3128.13
3129.14
3130.3
3131.63
3133.11
3134.76
3136.57
3138.53
3140.64
3142.89
3145.28
3147.79
3150.41
3153.15
3155.97
3158.87
3161.83
3164.83
3167.84
3170.84
3173.79
3176.67
3179.43
3182.06
3184.51
3186.75
3188.77
3190.52
3191.99
3193.16
3194.03
3194.59
3194.84
3194.85
2782.38
2782.26
2781.87
2781.19
2780.18
2778.84
2777.17
2775.19
2772.91
2770.38
2767.62
2764.67
2761.58
2758.37
2755.09
2751.77
2748.43
2745.12
2741.87
2738.69
2735.62
2732.65
2729.82
2727.13
2724.58
2722.2
2719.97
2717.92
2716.03
2714.33
2712.81
2711.47
2710.31
2709.33
2708.52
2707.86
2707.36
2706.99
2706.77
2706.67
2706.71
2706.88
2707.19
2707.62
2708.2
2708.91
2709.76
2710.77
2711.95
2713.29
2714.81
2716.5
2718.37
2720.4
2722.58
2724.93
2727.41
2730.04
2732.8
2735.67
2738.66
2741.73
2744.89
2748.1
2751.33
2754.57
2757.76
2760.88
2763.88
2766.74
2769.42
2771.88
2774.09
2776.02
2777.63
2778.92
2779.88
2780.53
2780.87
2780.96
2368.88
2368.65
2368.17
2367.41
2366.33
2364.87
2363.04
2360.85
2358.34
2355.56
2352.53
2349.3
2345.93
2342.44
2338.87
2335.27
2331.67
2328.12
2324.63
2321.25
2317.99
2314.86
2311.88
2309.05
2306.39
2303.9
2301.59
2299.46
2297.52
2295.77
2294.22
2292.86
2291.7
2290.73
2289.93
2289.3
2288.81
2288.47
2288.25
2288.17
2288.22
2288.39
2288.69
2289.13
2289.7
2290.4
2291.25
2292.25
2293.42
2294.79
2296.33
2298.07
2300
2302.1
2304.37
2306.81
2309.41
2312.16
2315.06
2318.09
2321.25
2324.52
2327.89
2331.33
2334.82
2338.33
2341.8
2345.19
2348.48
2351.61
2354.55
2357.26
2359.7
2361.83
2363.6
2365.01
2366.05
2366.76
2367.19
2367.38
1955.63
1955.3
1954.75
1953.97
1952.83
1951.26
1949.25
1946.83
1944.05
1940.96
1937.62
1934.08
1930.38
1926.57
1922.68
1918.77
1914.87
1911.03
1907.3
1903.69
1900.22
1896.91
1893.78
1890.82
1888.03
1885.44
1883.04
1880.84
1878.83
1877.02
1875.44
1874.07
1872.91
1871.96
1871.19
1870.59
1870.13
1869.81
1869.61
1869.54
1869.6
1869.77
1870.07
1870.5
1871.06
1871.75
1872.57
1873.55
1874.72
1876.1
1877.68
1879.47
1881.46
1883.64
1886.01
1888.55
1891.27
1894.15
1897.19
1900.39
1903.74
1907.22
1910.83
1914.53
1918.31
1922.13
1925.91
1929.63
1933.22
1936.66
1939.91
1942.91
1945.62
1947.97
1949.92
1951.44
1952.54
1953.27
1953.76
1954.04
1542.47
1542.12
1541.58
1540.86
1539.71
1538.03
1535.82
1533.13
1530.03
1526.59
1522.89
1518.98
1514.92
1510.75
1506.51
1502.24
1498
1493.86
1489.85
1486
1482.32
1478.83
1475.53
1472.43
1469.52
1466.81
1464.32
1462.04
1459.96
1458.08
1456.46
1455.09
1453.94
1453.02
1452.3
1451.73
1451.32
1451.03
1450.85
1450.8
1450.86
1451.03
1451.32
1451.75
1452.29
1452.96
1453.75
1454.68
1455.84
1457.22
1458.83
1460.68
1462.76
1465.03
1467.49
1470.14
1472.99
1476
1479.19
1482.56
1486.11
1489.83
1493.68
1497.67
1501.78
1505.95
1510.09
1514.16
1518.1
1521.89
1525.49
1528.83
1531.85
1534.47
1536.61
1538.24
1539.34
1540.01
1540.48
1540.77
1129.07
1128.91
1128.6
1128.09
1127.01
1125.24
1122.8
1119.77
1116.26
1112.41
1108.31
1104
1099.54
1094.99
1090.37
1085.7
1081.06
1076.56
1072.28
1068.18
1064.28
1060.58
1057.14
1053.9
1050.84
1048
1045.42
1043.05
1040.85
1038.87
1037.2
1035.85
1034.72
1033.85
1033.21
1032.72
1032.36
1032.12
1031.96
1031.92
1032
1032.15
1032.44
1032.87
1033.39
1034.04
1034.75
1035.57
1036.71
1038.09
1039.71
1041.65
1043.85
1046.23
1048.8
1051.59
1054.59
1057.73
1061.05
1064.59
1068.36
1072.31
1076.42
1080.71
1085.19
1089.79
1094.35
1098.79
1103.1
1107.27
1111.26
1114.99
1118.4
1121.36
1123.74
1125.46
1126.5
1126.96
1127.2
1127.28
714.279
715.237
715.999
716.146
715.271
713.392
710.645
707.144
703.084
698.704
694.115
689.323
684.393
679.393
674.334
669.153
663.95
658.991
654.385
650.007
645.82
641.886
638.291
634.93
631.667
628.661
626.019
623.597
621.28
619.12
617.438
616.185
615.071
614.316
613.848
613.442
613.193
613.038
612.859
612.854
612.959
613.05
613.35
613.8
614.258
614.933
615.528
616.013
617.152
618.509
620.089
622.122
624.494
626.974
629.634
632.574
635.761
639.043
642.467
646.199
650.235
654.475
658.877
663.492
668.468
673.691
678.814
683.677
688.39
693.012
697.473
701.714
705.663
709.103
711.819
713.668
714.516
714.336
713.495
712.412
303.351
307.746
310.957
312.247
311.815
310.119
307.499
304.095
300.078
295.752
291.387
286.879
282.295
277.817
273.524
269.195
264.655
260.181
256.154
252.446
249.08
246.133
243.607
241.05
238.204
235.655
233.76
232.249
230.942
229.999
229.669
229.445
228.612
227.432
226.36
225.283
224.378
223.764
223.336
223.126
223.16
223.429
223.915
224.58
225.43
226.623
227.934
229.257
230.575
231.275
231.578
232.264
233.515
235.016
236.817
239.184
241.949
244.625
247.1
249.796
252.949
256.485
260.296
264.366
268.883
273.491
277.822
281.969
286.206
290.515
294.746
298.879
302.817
306.189
308.805
310.497
310.942
309.695
306.499
302.018
44.2922
48.5965
51.168
52.214
52.2007
51.4908
50.3425
48.9509
47.4017
45.4479
43.515
41.5109
39.4469
37.5451
35.7559
34.1598
32.7789
31.154
29.5898
28.1805
27.006
26.0441
25.1339
24.1182
23.5285
22.8534
22.2812
21.9515
21.8744
22.0946
22.1886
21.6934
21.1627
20.3207
19.4129
18.5082
17.6735
17.1111
16.8198
16.5962
16.5447
16.8255
17.1642
17.5261
18.1854
18.9943
20.0465
21.3412
22.123
22.7406
23.0546
22.9297
22.9109
23.1675
23.6467
24.2904
24.8726
25.8062
26.8809
27.8264
28.886
30.1825
31.6743
33.27
34.8916
36.1506
37.6115
39.354
41.2813
43.2081
45.0628
46.9009
48.5113
49.8417
50.9631
51.6801
51.7266
50.7486
48.2721
43.9972
-10.1954
-10.1658
-10.1632
-10.1611
-10.1536
-10.1485
-10.1337
-9.94353
-9.4192
-9.29816
-9.19489
-9.13598
-9.18823
-9.14972
-9.29725
-9.3414
-8.61712
-8.29317
-8.14669
-8.0876
-8.10572
-8.24016
-8.56243
-9.00806
-7.95431
-7.54924
-7.54244
-7.60952
-7.6599
-7.79402
-8.54884
-9.99465
-10.4093
-10.4079
-10.417
-10.4285
-10.4296
-10.4178
-10.4032
-10.39
-10.3859
-10.4044
-10.4157
-10.4253
-10.4302
-10.4223
-10.4098
-10.4146
-10.267
-9.3012
-7.9425
-7.45187
-7.33748
-7.25248
-7.20091
-7.45617
-8.39301
-8.44618
-7.82775
-7.55716
-7.48705
-7.51947
-7.62162
-7.81318
-8.22957
-9.21785
-9.4384
-9.3164
-9.17211
-9.18574
-9.29294
-9.39714
-9.79406
-10.0869
-10.1376
-10.1399
-10.1421
-10.1387
-10.1408
-10.1729
-10.6562
-10.6528
-10.6457
-10.6394
-10.6326
-10.6304
-10.6397
-10.6111
-10.4226
-10.2738
-10.1617
-10.0911
-10.0672
-10.0531
-10.1158
-10.1686
-9.94961
-9.77659
-9.67843
-9.65266
-9.68034
-9.79209
-9.96512
-10.1625
-9.7718
-9.62528
-9.67498
-9.73892
-9.77898
-9.87825
-10.39
-10.867
-10.9021
-10.8838
-10.8948
-10.9049
-10.9111
-10.9106
-10.9056
-10.8999
-10.899
-10.9057
-10.91
-10.9107
-10.9075
-10.8985
-10.8876
-10.8984
-10.8899
-10.6943
-10.0409
-9.69931
-9.62681
-9.55742
-9.47347
-9.50338
-9.80759
-9.80148
-9.60616
-9.41702
-9.35254
-9.36292
-9.43022
-9.58231
-9.80718
-10.1206
-10.1466
-10.113
-10.0874
-10.1276
-10.2315
-10.3728
-10.5578
-10.6183
-10.6165
-10.6157
-10.6194
-10.6231
-10.6294
-10.6343
-11.1453
-11.141
-11.1371
-11.1341
-11.129
-11.1257
-11.1364
-11.1497
-11.1588
-11.1553
-11.1341
-11.115
-11.0926
-11.1005
-11.1419
-11.1894
-11.2716
-11.2397
-11.1953
-11.1899
-11.2103
-11.2685
-11.2859
-11.2592
-11.3918
-11.4083
-11.4085
-11.4107
-11.4163
-11.4211
-11.4314
-11.4277
-11.4108
-11.4011
-11.41
-11.4196
-11.4197
-11.4121
-11.4048
-11.398
-11.3972
-11.4038
-11.4086
-11.4152
-11.4196
-11.414
-11.4028
-11.4078
-11.4216
-11.4283
-11.4244
-11.4101
-11.4041
-11.3993
-11.3956
-11.3616
-11.1804
-11.1603
-11.2763
-11.1936
-11.1531
-11.149
-11.1767
-11.2515
-11.2697
-11.1418
-11.0695
-11.0595
-11.0779
-11.0925
-11.1222
-11.1468
-11.1504
-11.132
-11.117
-11.1165
-11.116
-11.114
-11.1172
-11.1234
-11.6376
-11.6386
-11.6462
-11.6452
-11.6319
-11.619
-11.6236
-11.6375
-11.6518
-11.6787
-11.7209
-11.7562
-11.7878
-11.8109
-11.8275
-11.8353
-11.8333
-11.8403
-11.8567
-11.8708
-11.8821
-11.8849
-11.8912
-11.894
-11.8967
-11.8985
-11.8984
-11.8995
-11.9014
-11.9052
-11.914
-11.9195
-11.911
-11.9073
-11.9169
-11.9279
-11.925
-11.9148
-11.9077
-11.902
-11.9005
-11.9048
-11.9076
-11.9164
-11.9248
-11.9215
-11.9087
-11.9079
-11.9164
-11.9152
-11.9049
-11.8951
-11.8911
-11.8889
-11.8875
-11.8849
-11.8837
-11.8778
-11.8673
-11.8646
-11.8558
-11.8419
-11.825
-11.8051
-11.8005
-11.7939
-11.7811
-11.761
-11.7345
-11.7033
-11.6659
-11.6458
-11.6416
-11.6235
-11.6194
-11.6303
-11.6357
-11.6303
-11.6195
-11.6194
-12.1479
-12.1703
-12.1973
-12.1902
-12.152
-12.1151
-12.1055
-12.1156
-12.1378
-12.1678
-12.2042
-12.2386
-12.2694
-12.2951
-12.3133
-12.3237
-12.3317
-12.3419
-12.3525
-12.3629
-12.3722
-12.3794
-12.3854
-12.3882
-12.3887
-12.3902
-12.393
-12.3966
-12.3993
-12.4035
-12.4131
-12.4132
-12.4083
-12.4054
-12.4162
-12.4285
-12.4241
-12.4107
-12.4033
-12.399
-12.397
-12.3986
-12.402
-12.4113
-12.4232
-12.4202
-12.4064
-12.4034
-12.4103
-12.4128
-12.4012
-12.3919
-12.3875
-12.3831
-12.3787
-12.3764
-12.374
-12.3691
-12.3627
-12.3557
-12.3455
-12.3337
-12.321
-12.3075
-12.2934
-12.2811
-12.2676
-12.2454
-12.2158
-12.184
-12.1543
-12.1352
-12.1218
-12.1132
-12.1291
-12.1663
-12.1916
-12.1829
-12.1492
-12.1313
-12.6772
-12.7313
-12.7702
-12.7486
-12.6788
-12.6115
-12.5828
-12.5899
-12.623
-12.6648
-12.7039
-12.7368
-12.7641
-12.7868
-12.8041
-12.8166
-12.827
-12.8378
-12.8483
-12.8576
-12.8652
-12.871
-12.8764
-12.8806
-12.8822
-12.8833
-12.8847
-12.8862
-12.8884
-12.8918
-12.8962
-12.8996
-12.8991
-12.8977
-12.908
-12.92
-12.9157
-12.9022
-12.8951
-12.8924
-12.8903
-12.8907
-12.8937
-12.9017
-12.9115
-12.9092
-12.8962
-12.8905
-12.8913
-12.889
-12.8848
-12.8803
-12.8768
-12.8743
-12.8725
-12.8702
-12.8672
-12.8616
-12.8546
-12.848
-12.8396
-12.829
-12.8166
-12.8027
-12.789
-12.7757
-12.7599
-12.7386
-12.7123
-12.682
-12.6467
-12.6126
-12.5895
-12.597
-12.6377
-12.7047
-12.7516
-12.742
-12.6904
-12.6531
-13.1904
-13.2601
-13.297
-13.2667
-13.1829
-13.1021
-13.0658
-13.0791
-13.1175
-13.1612
-13.2007
-13.2342
-13.2621
-13.2843
-13.3016
-13.315
-13.3261
-13.3362
-13.3455
-13.3536
-13.3604
-13.3658
-13.37
-13.373
-13.3752
-13.3772
-13.3792
-13.3812
-13.383
-13.385
-13.3865
-13.3861
-13.3849
-13.3849
-13.3926
-13.4013
-13.3992
-13.3905
-13.3856
-13.3839
-13.3824
-13.3823
-13.3842
-13.3883
-13.3925
-13.39
-13.3811
-13.3755
-13.3754
-13.3766
-13.3762
-13.3741
-13.3715
-13.3686
-13.3655
-13.3623
-13.3587
-13.3543
-13.3488
-13.3424
-13.3345
-13.3249
-13.3136
-13.301
-13.2874
-13.2726
-13.2552
-13.2337
-13.2073
-13.1761
-13.1405
-13.1037
-13.0755
-13.0802
-13.1332
-13.2132
-13.273
-13.2695
-13.2094
-13.1538
-13.6546
-13.7282
-13.7628
-13.7364
-13.6574
-13.582
-13.554
-13.5745
-13.6177
-13.6645
-13.7052
-13.7385
-13.7653
-13.7866
-13.8031
-13.8161
-13.8268
-13.836
-13.844
-13.8508
-13.8564
-13.8609
-13.8645
-13.8671
-13.8691
-13.8707
-13.8722
-13.8734
-13.8744
-13.8753
-13.8756
-13.8745
-13.8726
-13.8724
-13.8767
-13.8822
-13.8827
-13.8794
-13.8768
-13.8757
-13.8749
-13.8747
-13.8758
-13.8768
-13.8767
-13.8736
-13.8682
-13.8651
-13.8654
-13.8665
-13.8661
-13.8648
-13.8631
-13.861
-13.8587
-13.8559
-13.8527
-13.8486
-13.8437
-13.8379
-13.8309
-13.8224
-13.8125
-13.801
-13.788
-13.7732
-13.7556
-13.7342
-13.7082
-13.6774
-13.642
-13.605
-13.5742
-13.5689
-13.6131
-13.6885
-13.7468
-13.7472
-13.6866
-13.6168
-14.0635
-14.1348
-14.1823
-14.1749
-14.1192
-14.0627
-14.044
-14.0707
-14.1226
-14.1757
-14.2181
-14.2505
-14.2752
-14.2942
-14.3088
-14.3202
-14.3295
-14.3372
-14.3437
-14.3491
-14.3535
-14.357
-14.3597
-14.3618
-14.3635
-14.3649
-14.3661
-14.3671
-14.3679
-14.3683
-14.3679
-14.3667
-14.3652
-14.3642
-14.3659
-14.369
-14.3711
-14.3708
-14.3693
-14.3682
-14.3677
-14.3674
-14.3682
-14.3683
-14.367
-14.3638
-14.3603
-14.3587
-14.359
-14.3594
-14.3594
-14.3585
-14.3569
-14.355
-14.3527
-14.3502
-14.3472
-14.3436
-14.3394
-14.3344
-14.3285
-14.3213
-14.3128
-14.3027
-14.2909
-14.2769
-14.26
-14.2391
-14.2136
-14.1827
-14.1469
-14.108
-14.073
-14.0583
-14.0827
-14.1369
-14.1782
-14.1667
-14.1068
-14.0376
-14.443
-14.5116
-14.5882
-14.6198
-14.5964
-14.5525
-14.542
-14.5814
-14.6439
-14.701
-14.743
-14.772
-14.7921
-14.8071
-14.8185
-14.8272
-14.8341
-14.8398
-14.8444
-14.8482
-14.8513
-14.8537
-14.8556
-14.8571
-14.8583
-14.8594
-14.8602
-14.8608
-14.8612
-14.8612
-14.8608
-14.86
-14.8591
-14.8586
-14.8597
-14.862
-14.8632
-14.8632
-14.8622
-14.8613
-14.861
-14.8607
-14.8611
-14.8606
-14.8593
-14.857
-14.8547
-14.8533
-14.853
-14.8529
-14.8526
-14.8518
-14.8506
-14.849
-14.8472
-14.845
-14.8424
-14.8395
-14.836
-14.832
-14.8272
-14.8214
-14.8145
-14.8062
-14.7963
-14.7842
-14.7691
-14.7503
-14.7268
-14.6977
-14.662
-14.6198
-14.5748
-14.5489
-14.5561
-14.583
-14.5933
-14.5574
-14.4857
-14.4199
-14.8501
-14.9282
-15.0368
-15.1132
-15.1291
-15.1282
-15.1428
-15.1696
-15.212
-15.2556
-15.2859
-15.3042
-15.316
-15.3248
-15.3315
-15.3366
-15.3405
-15.3436
-15.3462
-15.3482
-15.3497
-15.351
-15.3521
-15.3529
-15.3537
-15.3543
-15.3547
-15.355
-15.3551
-15.355
-15.3546
-15.354
-15.3535
-15.3533
-15.354
-15.3554
-15.3566
-15.3564
-15.3555
-15.3547
-15.3546
-15.3543
-15.3545
-15.3542
-15.3529
-15.351
-15.3493
-15.3481
-15.3474
-15.347
-15.3466
-15.3459
-15.3449
-15.3437
-15.3422
-15.3404
-15.3384
-15.3361
-15.3334
-15.3304
-15.3269
-15.3227
-15.3177
-15.3116
-15.3042
-15.2948
-15.2829
-15.2675
-15.2477
-15.2214
-15.1854
-15.1382
-15.0821
-15.0411
-15.0403
-15.0536
-15.0328
-14.9623
-14.8681
-14.8027
-15.3414
-15.4306
-15.5803
-15.7234
-15.825
-15.9036
-15.9232
-15.8745
-15.8358
-15.8345
-15.8457
-15.8462
-15.8458
-15.8464
-15.8474
-15.8479
-15.8483
-15.8485
-15.8487
-15.8488
-15.8489
-15.849
-15.8491
-15.8493
-15.8494
-15.8495
-15.8496
-15.8496
-15.8494
-15.8491
-15.8487
-15.8483
-15.8479
-15.8479
-15.8483
-15.8491
-15.8498
-15.8496
-15.8489
-15.8483
-15.8483
-15.848
-15.8479
-15.8475
-15.8465
-15.8451
-15.8437
-15.8427
-15.842
-15.8415
-15.841
-15.8404
-15.8397
-15.8387
-15.8376
-15.8364
-15.8349
-15.8333
-15.8316
-15.8296
-15.8275
-15.8251
-15.8223
-15.8188
-15.8144
-15.8088
-15.8012
-15.7909
-15.7773
-15.7589
-15.7326
-15.6952
-15.6457
-15.5919
-15.5697
-15.565
-15.5249
-15.425
-15.3097
-15.2356
-15.9399
-16.0407
-16.2313
-16.4449
-16.6381
-16.7535
-16.7264
-16.6332
-16.5248
-16.4465
-16.4149
-16.3958
-16.38
-16.3711
-16.3653
-16.3608
-16.3571
-16.3542
-16.3519
-16.35
-16.3485
-16.3474
-16.3466
-16.346
-16.3455
-16.3451
-16.3448
-16.3444
-16.344
-16.3436
-16.3431
-16.3427
-16.3424
-16.3423
-16.3425
-16.3429
-16.3433
-16.343
-16.3423
-16.342
-16.342
-16.3417
-16.3414
-16.341
-16.3402
-16.3391
-16.3381
-16.3373
-16.3366
-16.3362
-16.3357
-16.3353
-16.3348
-16.3342
-16.3335
-16.3327
-16.332
-16.3311
-16.3303
-16.3296
-16.3289
-16.3284
-16.3279
-16.3273
-16.3266
-16.3255
-16.3234
-16.3202
-16.3159
-16.311
-16.3028
-16.2845
-16.2901
-16.313
-16.2668
-16.1979
-16.1045
-15.9685
-15.8316
-15.7576
-16.6325
-16.7385
-16.9617
-17.2381
-17.4733
-17.558
-17.5067
-17.3921
-17.2419
-17.0969
-16.9981
-16.9471
-16.9174
-16.8982
-16.8848
-16.8746
-16.8666
-16.8604
-16.8554
-16.8516
-16.8485
-16.8462
-16.8444
-16.843
-16.8418
-16.8409
-16.8401
-16.8394
-16.8388
-16.8382
-16.8376
-16.8371
-16.8368
-16.8366
-16.8366
-16.8367
-16.8368
-16.8365
-16.8357
-16.8356
-16.8357
-16.8354
-16.835
-16.8346
-16.8339
-16.8332
-16.8325
-16.8318
-16.8313
-16.8309
-16.8306
-16.8304
-16.8301
-16.8299
-16.8296
-16.8294
-16.8293
-16.8293
-16.8295
-16.83
-16.8309
-16.8323
-16.8343
-16.837
-16.8404
-16.8445
-16.8492
-16.855
-16.8637
-16.8763
-16.8898
-16.9221
-16.9975
-17.0773
-17.0661
-16.9344
-16.7697
-16.5895
-16.4282
-16.3637
-17.3627
-17.4695
-17.7065
-18.0248
-18.2674
-18.3198
-18.2664
-18.1483
-17.9695
-17.7744
-17.5996
-17.5019
-17.4575
-17.4276
-17.4051
-17.3888
-17.3762
-17.3665
-17.359
-17.3531
-17.3486
-17.345
-17.3422
-17.34
-17.3383
-17.3368
-17.3356
-17.3346
-17.3337
-17.3329
-17.3322
-17.3316
-17.3312
-17.3309
-17.3307
-17.3306
-17.3304
-17.3301
-17.3293
-17.3293
-17.3294
-17.3291
-17.3286
-17.3283
-17.3278
-17.3273
-17.3268
-17.3263
-17.326
-17.3258
-17.3257
-17.3256
-17.3256
-17.3257
-17.326
-17.3263
-17.3269
-17.3277
-17.329
-17.3307
-17.3332
-17.3366
-17.3412
-17.3472
-17.355
-17.3651
-17.3779
-17.3953
-17.4198
-17.4524
-17.5101
-17.6158
-17.739
-17.8356
-17.8577
-17.7123
-17.4895
-17.265
-17.0714
-17.011
-18.0609
-18.1651
-18.3906
-18.6985
-18.9242
-18.9792
-18.9511
-18.8606
-18.6905
-18.4589
-18.2248
-18.069
-17.9993
-17.9575
-17.9253
-17.9023
-17.8852
-17.8721
-17.8621
-17.8544
-17.8484
-17.8437
-17.84
-17.8371
-17.8347
-17.8328
-17.8311
-17.8298
-17.8286
-17.8276
-17.8268
-17.8261
-17.8255
-17.8251
-17.8247
-17.8244
-17.8241
-17.8238
-17.8232
-17.8231
-17.823
-17.8227
-17.8223
-17.8221
-17.8217
-17.8214
-17.8211
-17.8209
-17.8207
-17.8207
-17.8207
-17.8209
-17.8212
-17.8217
-17.8224
-17.8233
-17.8245
-17.8262
-17.8284
-17.8314
-17.8354
-17.8408
-17.8479
-17.8574
-17.8698
-17.8863
-17.9081
-17.9388
-17.9777
-18.0423
-18.1664
-18.3271
-18.4873
-18.5914
-18.6196
-18.4943
-18.242
-17.9737
-17.758
-17.6803
-18.6813
-18.7847
-18.9771
-19.2372
-19.4449
-19.5217
-19.5184
-19.4512
-19.3125
-19.0954
-18.8403
-18.6397
-18.5386
-18.4831
-18.4424
-18.4134
-18.3923
-18.3764
-18.3643
-18.3549
-18.3477
-18.342
-18.3375
-18.3339
-18.331
-18.3286
-18.3266
-18.3249
-18.3235
-18.3223
-18.3213
-18.3205
-18.3198
-18.3192
-18.3187
-18.3183
-18.3179
-18.3175
-18.3171
-18.3168
-18.3167
-18.3164
-18.3161
-18.3159
-18.3157
-18.3156
-18.3154
-18.3154
-18.3154
-18.3155
-18.3158
-18.3162
-18.3168
-18.3177
-18.3187
-18.3202
-18.322
-18.3244
-18.3276
-18.3317
-18.3372
-18.3443
-18.3539
-18.3665
-18.3834
-18.4062
-18.4379
-18.4833
-18.5398
-18.6474
-18.8379
-19.0385
-19.202
-19.301
-19.3357
-19.2465
-18.9868
-18.6881
-18.4817
-18.3892
-19.2202
-19.3267
-19.4837
-19.6925
-19.8792
-19.9764
-19.9958
-19.9469
-19.827
-19.6438
-19.4035
-19.189
-19.0669
-18.9993
-18.9533
-18.9205
-18.8967
-18.8787
-18.865
-18.8544
-18.8462
-18.8397
-18.8345
-18.8303
-18.827
-18.8242
-18.8219
-18.82
-18.8184
-18.817
-18.8158
-18.8148
-18.814
-18.8133
-18.8127
-18.8122
-18.8118
-18.8113
-18.811
-18.8106
-18.8104
-18.8102
-18.81
-18.8098
-18.8098
-18.8097
-18.8097
-18.8098
-18.81
-18.8103
-18.8108
-18.8115
-18.8124
-18.8135
-18.815
-18.8169
-18.8193
-18.8224
-18.8263
-18.8315
-18.8381
-18.8469
-18.8584
-18.8738
-18.8945
-18.9227
-18.9632
-19.0208
-19.1061
-19.2634
-19.4982
-19.7081
-19.8419
-19.9309
-19.9802
-19.9144
-19.6451
-19.3512
-19.1644
-19.0863
-19.6976
-19.8012
-19.9309
-20.1004
-20.2623
-20.3677
-20.4037
-20.3683
-20.2713
-20.1207
-19.9182
-19.7055
-19.576
-19.5053
-19.4574
-19.4231
-19.3978
-19.3786
-19.364
-19.3526
-19.3437
-19.3366
-19.331
-19.3264
-19.3226
-19.3196
-19.317
-19.3149
-19.313
-19.3115
-19.3102
-19.3091
-19.3082
-19.3074
-19.3067
-19.3061
-19.3056
-19.3051
-19.3049
-19.3044
-19.3042
-19.304
-19.3039
-19.3038
-19.3038
-19.3039
-19.304
-19.3042
-19.3046
-19.3051
-19.3058
-19.3067
-19.3078
-19.3092
-19.311
-19.3133
-19.3162
-19.3198
-19.3245
-19.3304
-19.3381
-19.348
-19.3611
-19.3785
-19.4019
-19.434
-19.4805
-19.5455
-19.6599
-19.8625
-20.1129
-20.2981
-20.4097
-20.4762
-20.5098
-20.4307
-20.1801
-19.9233
-19.7619
-19.7175
-20.1461
-20.2248
-20.3385
-20.4817
-20.6234
-20.7235
-20.7635
-20.7368
-20.6618
-20.5532
-20.393
-20.1957
-20.0711
-20.0026
-19.9554
-19.9213
-19.8957
-19.8762
-19.8611
-19.8494
-19.8401
-19.8327
-19.8268
-19.8219
-19.8179
-19.8146
-19.8118
-19.8095
-19.8076
-19.8059
-19.8045
-19.8033
-19.8022
-19.8014
-19.8006
-19.8
-19.7995
-19.799
-19.7986
-19.7982
-19.7981
-19.7979
-19.7978
-19.7978
-19.7978
-19.798
-19.7982
-19.7986
-19.7991
-19.7998
-19.8006
-19.8017
-19.803
-19.8047
-19.8068
-19.8094
-19.8126
-19.8167
-19.8218
-19.8283
-19.8367
-19.8475
-19.8615
-19.8801
-19.9051
-19.9394
-19.9888
-20.0583
-20.1923
-20.4189
-20.6439
-20.8021
-20.9033
-20.9543
-20.944
-20.827
-20.6148
-20.4196
-20.3011
-20.2699
-20.6018
-20.6341
-20.7185
-20.8382
-20.9634
-21.0525
-21.0885
-21.0671
-21.0151
-20.9547
-20.8356
-20.6695
-20.5554
-20.4923
-20.4478
-20.4156
-20.3905
-20.3713
-20.3565
-20.3448
-20.3355
-20.328
-20.3219
-20.3169
-20.3127
-20.3093
-20.3064
-20.304
-20.3019
-20.3001
-20.2986
-20.2973
-20.2962
-20.2953
-20.2945
-20.2938
-20.2932
-20.2927
-20.2924
-20.292
-20.2919
-20.2918
-20.2917
-20.2917
-20.2918
-20.2921
-20.2924
-20.2929
-20.2935
-20.2943
-20.2953
-20.2965
-20.298
-20.2999
-20.3022
-20.3051
-20.3086
-20.3129
-20.3184
-20.3252
-20.3339
-20.3451
-20.3596
-20.3784
-20.4038
-20.4386
-20.4874
-20.5589
-20.6964
-20.9238
-21.1084
-21.2375
-21.324
-21.3649
-21.3258
-21.1893
-21.0048
-20.8593
-20.7846
-20.7466
-21.056
-21.047
-21.0877
-21.1833
-21.2907
-21.3662
-21.3967
-21.3819
-21.3622
-21.3583
-21.2679
-21.1286
-21.0303
-20.9752
-20.9355
-20.9054
-20.8822
-20.8642
-20.85
-20.8389
-20.8298
-20.8224
-20.8163
-20.8113
-20.8071
-20.8036
-20.8006
-20.7981
-20.796
-20.7941
-20.7926
-20.7912
-20.7901
-20.7891
-20.7882
-20.7875
-20.7869
-20.7864
-20.786
-20.7857
-20.7856
-20.7855
-20.7855
-20.7856
-20.7858
-20.7861
-20.7865
-20.7871
-20.7878
-20.7887
-20.7898
-20.7911
-20.7928
-20.7948
-20.7973
-20.8003
-20.804
-20.8085
-20.8141
-20.821
-20.8298
-20.841
-20.8556
-20.8734
-20.8983
-20.9321
-20.9776
-21.0484
-21.1811
-21.3786
-21.5257
-21.6165
-21.6849
-21.7161
-21.673
-21.5365
-21.3592
-21.2353
-21.1974
-21.1875
-21.4862
-21.4692
-21.4831
-21.5592
-21.6495
-21.7116
-21.7334
-21.7295
-21.7498
-21.7831
-21.698
-21.5807
-21.5004
-21.4539
-21.4194
-21.3925
-21.3717
-21.3552
-21.3422
-21.3316
-21.323
-21.3159
-21.3101
-21.3051
-21.301