/*--------------------------------*- C++ -*----------------------------------*\
| =========                 |                                                 |
| \\      /  F ield         | OpenFOAM: The Open Source CFD Toolbox           |
|  \\    /   O peration     | Version:  2412                                  |
|   \\  /    A nd           | Website:  www.openfoam.com                      |
|    \\/     M anipulation  |                                                 |
\*---------------------------------------------------------------------------*/
FoamFile
{
    version     2.0;
    format      ascii;
    arch        "LSB;label=32;scalar=64";
    class       volScalarField;
    location    "0.4";
    object      alpha.ethanol;
}
// * * * * * * * * * * * * * * * * * * * * * * * * * * * * * * * * * * * * * //

dimensions      [0 0 0 0 0 0 0];

internalField   nonuniform List<scalar> 
6400
(
1
1
1
1
1
1
1
1
1
1
1
1
1
1
1
1
1
1
1
1
1
1
1
1
1
1
1
1
1
1
1
1
1
1
1
1
1
1
1
1
1
1
1
1
1
1
1
1
1
1
1
1
1
1
1
1
1
1
1
1
1
1
1
1
1
1
1
1
1
1
1
1
1
1
1
1
1
1
1
1
0.999997
1
1
1
1
1
1
1
1
1
1
1
1
1
1
1
1
1
1
1
1
1
1
1
1
1
1
1
1
1
1
1
1
1
1
1
1
1
1
1
1
1
1
1
1
1
1
1
1
1
1
1
1
1
1
1
1
1
1
1
1
1
1
1
1
1
1
1
1
1
1
1
1
1
1
1
1
1
1
1
1
1
1
1
1
1
1
1
1
1
1
1
1
1
1
1
1
1
1
1
1
1
1
1
1
1
1
1
1
1
1
1
1
1
1
1
1
1
1
1
1
1
1
1
1
1
1
1
1
1
1
1
1
1
1
1
1
1
1
1
1
1
1
1
1
1
1
1
1
1
1
1
1
1
1
1
1
1
1
1
1
1
1
1
1
1
1
1
1
1
1
1
1
1
1
1
1
1
1
1
1
1
1
1
1
1
1
1
1
1
1
1
1
1
1
1
1
1
1
1
1
1
1
1
1
1
1
1
1
1
1
1
1
1
1
1
1
1
1
1
1
1
1
1
1
1
1
1
1
1
1
1
1
1
1
1
1
1
1
1
1
1
1
1
1
1
1
1
1
1
1
1
1
1
1
1
1
1
1
1
1
1
1
1
1
1
1
1
1
1
1
1
1
1
1
1
1
1
1
1
1
1
1
1
1
1
1
1
1
1
1
1
1
1
1
1
1
1
1
1
1
1
1
1
1
1
1
1
1
1
1
1
1
1
1
1
1
1
1
1
1
1
1
1
1
1
1
1
1
1
1
1
1
1
1
1
1
1
1
1
1
1
1
1
1
1
1
1
1
1
1
1
1
1
1
1
1
1
1
1
1
1
1
1
1
1
1
1
1
1
1
1
1
1
1
1
1
1
1
1
1
1
1
1
1
1
1
1
1
1
1
1
1
1
1
1
1
1
1
1
1
1
1
1
1
1
1
1
1
1
1
1
1
1
1
1
1
1
1
1
1
1
1
1
1
1
1
1
1
1
1
1
1
1
1
1
1
1
1
1
1
1
1
1
1
1
1
1
1
1
1
1
1
1
1
1
1
1
1
1
1
1
1
1
1
1
1
1
1
1
1
1
1
1
1
1
1
1
1
1
1
1
1
1
1
1
1
1
1
1
1
1
1
1
1
1
1
1
1
1
1
1
1
1
1
1
1
1
1
1
1
1
1
1
1
1
1
1
1
1
1
1
1
1
1
1
1
1
1
1
1
1
1
1
1
1
1
1
1
1
1
1
1
1
1
1
1
1
1
1
1
1
1
1
1
1
1
1
1
1
1
1
1
1
1
1
1
1
1
1
1
1
1
1
1
1
1
1
1
1
1
1
1
1
1
1
1
1
1
1
1
1
1
1
1
1
1
1
1
1
1
1
1
1
1
1
1
1
1
1
1
1
1
1
1
1
1
1
1
1
1
1
1
1
1
1
1
1
1
1
1
1
1
1
1
1
1
1
1
1
1
1
1
1
1
1
1
1
1
1
1
1
1
1
1
1
1
1
1
1
1
1
1
1
1
1
1
1
1
1
1
1
1
1
1
1
1
1
1
1
1
1
1
1
1
1
1
1
1
1
1
1
1
1
1
1
1
1
1
1
1
1
1
1
1
1
1
1
1
1
1
1
1
1
1
1
1
1
1
1
1
1
1
1
1
1
1
1
1
1
1
1
1
1
1
1
1
1
1
1
1
1
1
1
1
1
1
1
1
1
1
1
1
1
1
1
1
1
1
1
1
1
1
1
1
1
1
1
1
1
1
1
1
1
1
1
1
1
1
1
1
1
1
1
1
1
1
1
1
1
1
1
1
1
1
1
1
1
1
1
1
1
1
1
1
1
1
1
1
1
1
1
1
1
1
1
1
1
1
1
1
1
1
1
1
1
1
1
1
1
1
1
1
1
1
1
1
1
1
1
1
1
1
1
1
1
1
1
1
1
1
1
1
1
1
1
1
1
1
1
1
1
1
1
1
1
1
1
1
1
1
1
1
1
1
1
1
1
1
1
1
1
1
1
1
1
1
1
1
1
1
1
1
1
1
1
1
1
1
1
1
1
1
1
1
1
1
1
1
1
1
1
1
1
1
1
1
1
1
1
1
1
1
1
1
1
1
1
1
1
1
1
1
1
1
1
1
1
1
1
1
1
1
1
1
1
1
1
1
1
1
1
1
1
1
1
1
1
1
1
1
1
1
1
1
1
1
1
1
1
1
1
1
1
1
1
1
1
1
1
1
1
1
1
1
1
1
1
1
1
1
1
1
1
1
1
1
1
1
1
1
1
1
1
1
1
1
1
1
1
1
1
1
1
1
1
1
1
1
1
1
1
1
1
1
1
1
1
1
1
1
1
1
1
1
1
1
1
1
1
1
1
1
1
1
1
1
1
1
1
1
1
1
1
1
1
1
1
1
1
1
1
1
1
1
1
1
1
1
1
1
1
1
1
1
1
1
1
1
1
1
1
1
1
1
1
1
1
1
1
1
1
1
1
1
1
1
1
1
1
1
1
1
1
1
1
1
1
1
1
1
1
1
1
1
1
1
1
1
1
1
1
1
1
1
1
1
1
1
1
1
1
1
1
1
1
1
1
1
1
1
1
1
1
1
1
1
1
1
1
1
1
1
1
1
1
1
1
1
1
1
1
1
1
1
1
1
1
1
1
1
1
1
1
1
1
1
1
1
1
1
1
1
1
1
1
1
1
1
1
1
1
1
1
1
1
1
1
1
1
1
1
1
1
1
1
1
1
1
1
1
1
1
1
1
1
1
1
1
1
1
1
1
1
1
1
1
1
1
1
1
1
1
1
1
1
1
1
1
1
1
1
1
1
1
1
1
1
1
1
1
1
1
1
1
1
1
1
1
1
1
1
1
1
1
1
1
1
1
1
1
1
1
1
1
1
1
1
1
1
1
1
1
1
1
1
1
1
1
1
1
1
1
1
1
1
1
1
1
1
1
1
1
1
1
1
1
1
1
1
1
1
1
1
1
1
1
1
1
1
1
1
1
1
1
1
1
1
1
1
1
1
1
1
1
1
1
1
1
1
1
1
1
1
1
1
1
1
1
1
1
1
1
1
1
1
1
1
1
1
1
1
1
1
1
1
1
1
1
1
1
1
1
1
1
1
1
1
1
1
1
1
1
1
1
1
1
1
1
1
1
1
1
1
1
1
1
1
1
1
1
1
1
1
1
1
1
1
1
1
1
1
1
1
1
1
1
1
1
1
1
1
1
1
1
1
1
1
1
1
1
1
1
1
1
1
1
1
1
1
1
1
1
1
1
1
1
1
1
1
1
1
1
1
1
1
1
1
1
1
1
1
1
0.99998
0.999947
0.999904
0.999857
0.999809
0.99976
0.99971
0.999659
0.999608
0.999558
0.99951
0.999465
0.999425
0.999391
0.999365
0.999346
0.999337
0.999337
0.999347
0.999366
0.999394
0.999429
0.99947
0.999515
0.999564
0.999616
0.999668
0.99972
0.999771
0.999821
0.999869
0.999915
0.999953
0.999982
1
1
1
1
1
1
1
1
1
1
1
1
1
1
1
1
1
1
1
1
1
1
1
0.000374505
0.000376909
0.000376673
0.000374303
0.000370428
0.000365251
0.000358632
0.000350572
0.000341105
0.000330238
0.00031791
0.000304024
0.000288493
0.000271239
0.000252212
0.000231358
0.00020865
0.000184073
0.000157623
0.000129486
0.000100088
6.95197e-05
3.50293e-05
1.30636e-05
2.85807e-06
1.61539e-44
1.61539e-44
3.05777e-42
1.13609e-39
4.06266e-37
1.41302e-34
4.83693e-32
2.24616e-30
5.86515e-29
1.15528e-27
1.82074e-26
2.32015e-25
2.36525e-24
1.87787e-23
1.11544e-22
2.05671e-22
3.45918e-23
2.24883e-24
9.0199e-26
2.84454e-27
7.9092e-29
1.98417e-30
4.06527e-32
2.63106e-34
9.21153e-38
2.78417e-40
8.14153e-43
4.55282e-45
4.55282e-45
9.0405e-07
7.58764e-06
2.06677e-05
4.38032e-05
7.74402e-05
0.000106838
0.000135237
0.00016319
0.000189685
0.000214352
0.000237141
0.000258349
0.000277739
0.000295068
0.000310606
0.000324198
0.000336178
0.000346644
0.00035562
0.000363212
0.000370369
0.000375508
0.000379133
0.000381077
0.000381696
0.000379304
4.36959e-11
3.25177e-11
3.45305e-11
3.65193e-11
3.6932e-11
3.70791e-11
3.74774e-11
3.79753e-11
3.84037e-11
3.86674e-11
3.87352e-11
3.85535e-11
3.80921e-11
3.73322e-11
3.62316e-11
3.46869e-11
3.2513e-11
2.95804e-11
2.58079e-11
2.1198e-11
1.62603e-11
1.1983e-11
7.22012e-12
2.37746e-12
-1.78637e-15
3.20812e-35
5.59102e-34
2.17846e-32
4.42869e-31
8.46075e-30
1.47645e-28
2.32902e-27
3.2756e-26
4.03392e-25
4.25112e-24
3.72092e-23
2.59105e-22
1.37209e-21
5.56068e-21
1.08973e-20
1.57768e-20
1.39323e-20
2.78666e-21
2.24879e-24
9.01963e-26
2.84442e-27
7.90888e-29
1.98415e-30
4.06524e-32
2.63106e-34
9.21153e-38
2.78417e-40
9.27653e-35
1.37464e-34
-1.01606e-15
1.28163e-12
4.2923e-12
9.98666e-12
1.52205e-11
1.97412e-11
2.4885e-11
2.96853e-11
3.32521e-11
3.60348e-11
3.80193e-11
3.8747e-11
3.94271e-11
4.06253e-11
4.09569e-11
4.07321e-11
4.00056e-11
4.01363e-11
3.95861e-11
4.0064e-11
3.77713e-11
3.74178e-11
3.6408e-11
3.58695e-11
3.27186e-11
4.40674e-11
2.07819e-13
1.57553e-13
1.67209e-13
1.76374e-13
1.78951e-13
1.81072e-13
1.84354e-13
1.87929e-13
1.91103e-13
1.93526e-13
1.94992e-13
1.95017e-13
1.93256e-13
1.89296e-13
1.82807e-13
1.7319e-13
1.5962e-13
1.41652e-13
1.19233e-13
9.40101e-14
6.95251e-14
4.84059e-14
2.67515e-14
7.82349e-15
-1.05669e-17
2.60712e-32
7.86868e-32
3.10257e-30
6.31761e-29
1.20895e-27
2.11397e-26
3.34412e-25
4.72106e-24
5.84853e-23
6.22558e-22
5.5452e-21
3.9865e-20
2.22733e-19
9.71482e-19
2.44592e-18
3.72902e-18
2.22519e-18
4.31653e-19
4.23799e-21
2.0665e-22
8.37623e-24
3.23448e-25
1.27696e-26
5.30822e-28
2.33074e-29
1.07061e-30
5.07271e-32
1.44093e-32
2.88717e-33
-1.69436e-17
3.94804e-15
1.55504e-14
4.00263e-14
6.57214e-14
8.9425e-14
1.16042e-13
1.42574e-13
1.65014e-13
1.82357e-13
1.94829e-13
2.00564e-13
2.04557e-13
2.09823e-13
2.10455e-13
2.07683e-13
2.02323e-13
2.016e-13
1.97027e-13
1.97492e-13
1.8532e-13
1.821e-13
1.7622e-13
1.73006e-13
1.58446e-13
2.10778e-13
1.64146e-15
1.2453e-15
1.32709e-15
1.40717e-15
1.43752e-15
1.4666e-15
1.50752e-15
1.55327e-15
1.59768e-15
1.63722e-15
1.66903e-15
1.68839e-15
1.69015e-15
1.67047e-15
1.6239e-15
1.5437e-15
1.42162e-15
1.25385e-15
1.04164e-15
7.96884e-16
5.56193e-16
3.54911e-16
1.69395e-16
4.02902e-17
-2.06536e-25
7.95165e-32
5.87728e-30
2.33023e-28
4.74175e-27
9.08845e-26
1.5897e-24
2.51342e-23
3.54501e-22
4.38908e-21
4.67647e-20
4.18347e-19
3.04121e-18
1.73683e-17
7.79899e-17
2.20638e-16
3.43058e-16
1.70432e-16
3.28757e-17
5.22651e-19
2.72123e-20
1.17299e-21
4.76031e-23
1.94664e-24
8.27531e-26
3.68294e-27
1.70562e-28
8.12693e-30
1.78513e-30
3.21221e-32
-2.76312e-25
1.89415e-17
9.1052e-17
2.75336e-16
5.13962e-16
7.55243e-16
1.02934e-15
1.30132e-15
1.51692e-15
1.67814e-15
1.78669e-15
1.82568e-15
1.84295e-15
1.86771e-15
1.8497e-15
1.80055e-15
1.72939e-15
1.69858e-15
1.63926e-15
1.62297e-15
1.50698e-15
1.46574e-15
1.40733e-15
1.37328e-15
1.25208e-15
1.66346e-15
3.11664e-17
2.59128e-17
2.78844e-17
2.87055e-17
2.9214e-17
2.99908e-17
3.08444e-17
3.15936e-17
3.21525e-17
3.25504e-17
3.24981e-17
3.2054e-17
3.06267e-17
2.88167e-17
2.58585e-17
2.1786e-17
1.69253e-17
1.20182e-17
9.02629e-18
6.76281e-18
4.56847e-18
2.76555e-18
1.22558e-18
2.66159e-19
-7.91895e-26
6.32822e-30
4.41742e-28
1.20836e-26
2.44679e-25
4.68134e-24
8.1593e-23
1.28393e-21
1.80083e-20
2.21663e-19
2.34934e-18
2.09456e-17
1.52479e-16
8.85346e-16
4.11457e-15
1.0579e-14
1.59375e-14
8.57472e-15
1.7036e-15
3.32767e-17
1.85816e-18
8.58572e-20
3.7044e-21
1.59135e-22
7.02052e-24
3.21054e-25
1.51692e-26
7.33854e-28
2.38568e-28
5.9665e-30
-5.754e-26
1.23433e-19
6.55182e-19
2.15362e-18
4.28287e-18
6.57952e-18
9.21072e-18
1.18085e-17
1.66818e-17
2.23511e-17
2.77856e-17
3.14184e-17
3.32725e-17
3.4342e-17
3.61339e-17
3.6511e-17
3.5344e-17
3.39756e-17
3.37264e-17
3.23882e-17
3.26396e-17
2.99911e-17
2.91498e-17
2.81772e-17
2.65382e-17
3.18384e-17
3.37662e-19
2.71133e-19
2.92951e-19
3.06354e-19
3.14453e-19
3.2551e-19
3.38664e-19
3.51595e-19
3.63523e-19
3.73455e-19
3.80133e-19
3.8022e-19
3.7292e-19
3.55035e-19
3.27277e-19
2.83687e-19
2.26448e-19
1.6077e-19
1.00393e-19
7.29424e-20
4.79134e-20
2.7671e-20
1.14633e-20
2.29187e-21
9.78521e-27
5.66588e-28
2.46476e-26
4.82222e-25
9.60987e-24
1.82323e-22
3.15529e-21
4.92255e-20
6.83831e-19
8.33216e-18
8.74384e-17
7.73861e-16
5.70924e-15
3.2204e-14
1.19263e-13
1.88301e-13
2.61043e-13
2.23587e-13
5.78249e-14
1.41201e-15
8.50315e-17
4.24722e-18
1.97034e-19
9.01275e-21
4.18627e-22
1.99479e-23
9.73699e-25
7.2959e-26
1.57652e-26
5.50469e-28
9.92711e-28
1.05247e-21
6.13171e-21
2.17381e-20
4.5756e-20
7.30985e-20
1.04549e-19
1.54224e-19
2.34477e-19
3.08166e-19
3.70886e-19
4.04621e-19
4.22482e-19
4.28561e-19
4.37778e-19
4.31598e-19
4.10251e-19
3.90466e-19
3.78794e-19
3.62277e-19
3.50866e-19
3.23855e-19
3.10319e-19
2.98746e-19
2.76709e-19
3.45084e-19
3.80824e-21
3.0331e-21
3.28562e-21
3.47557e-21
3.5997e-21
3.76268e-21
3.96322e-21
4.17444e-21
4.38637e-21
4.58537e-21
4.74928e-21
4.84189e-21
4.86004e-21
4.68065e-21
4.43629e-21
3.92998e-21
3.21753e-21
2.3428e-21
1.46701e-21
9.62562e-22
6.18239e-22
3.42737e-22
1.33025e-22
2.56335e-23
4.32931e-25
1.75666e-26
8.22434e-25
1.57582e-23
3.02275e-22
5.63009e-21
9.65051e-20
1.48783e-18
2.04045e-17
2.45345e-16
2.54641e-15
2.29259e-14
1.5062e-13
5.90591e-13
1.32158e-12
4.38665e-12
6.84604e-12
2.34575e-12
7.78446e-13
4.42394e-14
2.89072e-15
1.57386e-16
7.93197e-18
3.91038e-19
1.9374e-20
9.74351e-22
4.97255e-23
8.46269e-24
8.52496e-25
1.98893e-26
4.27283e-25
1.18549e-23
7.24033e-23
2.72862e-22
6.04037e-22
9.97627e-22
1.45205e-21
2.34846e-21
3.53162e-21
4.51312e-21
5.24933e-21
5.62462e-21
5.72432e-21
5.69381e-21
5.66588e-21
5.45221e-21
5.08413e-21
4.76532e-21
4.52331e-21
4.28271e-21
4.03257e-21
3.71291e-21
3.51462e-21
3.36462e-21
3.08412e-21
3.88329e-21
5.02471e-23
3.9956e-23
4.3427e-23
4.63541e-23
4.84377e-23
5.11396e-23
5.45148e-23
5.82471e-23
6.21438e-23
6.60582e-23
6.9574e-23
7.23417e-23
7.36624e-23
7.27982e-23
6.96546e-23
6.31954e-23
5.28455e-23
3.94179e-23
2.49357e-23
1.51555e-23
9.55121e-24
5.00953e-24
2.80091e-24
2.38336e-24
3.23203e-24
4.5788e-25
2.25423e-23
4.22941e-22
7.76513e-21
1.41555e-19
2.39548e-18
3.64022e-17
4.91765e-16
5.83993e-15
6.21705e-14
4.56419e-13
1.84539e-12
6.20643e-12
2.64285e-11
9.32451e-11
1.51364e-10
4.68347e-11
1.07776e-11
1.07871e-12
7.70004e-14
4.60791e-15
2.54729e-16
1.36804e-17
7.31343e-19
3.92632e-20
2.11784e-21
5.44322e-22
4.0703e-23
7.67705e-25
1.90213e-24
2.66302e-24
2.36044e-24
4.27378e-24
9.48158e-24
1.62814e-23
2.49369e-23
4.20854e-23
6.12818e-23
7.64234e-23
8.63463e-23
9.11324e-23
9.06264e-23
8.82734e-23
8.58725e-23
8.08254e-23
7.39714e-23
6.81474e-23
6.34072e-23
5.92935e-23
5.46843e-23
4.99989e-23
4.68163e-23
4.45254e-23
4.05037e-23
5.11054e-23
7.55547e-25
6.00694e-25
6.55386e-25
7.05525e-25
7.43961e-25
7.93634e-25
8.566e-25
9.28511e-25
1.0064e-24
1.08799e-24
1.16711e-24
1.23609e-24
1.28042e-24
1.29651e-24
1.25358e-24
1.16614e-24
9.9504e-25
7.59756e-25
4.91222e-25
2.74059e-25
1.97912e-25
2.674e-25
1.05238e-24
2.11037e-24
2.38336e-24
2.49137e-23
5.23609e-22
9.56672e-21
1.68489e-19
2.95194e-18
4.88585e-17
7.31329e-16
9.75184e-15
1.19871e-13
9.73063e-13
4.19918e-12
1.87787e-11
1.02216e-10
4.72924e-10
1.64344e-09
2.66498e-09
8.3208e-10
1.90451e-10
2.10899e-11
1.65715e-12
1.0994e-13
6.72718e-15
3.97262e-16
2.31308e-17
1.33802e-18
1.51109e-19
2.09523e-20
1.36244e-21
6.95663e-23
3.64586e-24
2.36044e-24
1.47313e-24
4.71874e-25
3.57941e-25
3.03847e-25
5.05954e-25
8.61498e-25
1.21744e-24
1.48286e-24
1.62799e-24
1.6925e-24
1.64093e-24
1.56825e-24
1.48817e-24
1.3697e-24
1.2295e-24
1.11256e-24
1.01539e-24
9.36255e-25
8.47304e-25
7.68064e-25
7.11557e-25
6.71919e-25
6.06941e-25
7.66143e-25
1.27255e-26
1.01265e-26
1.10948e-26
1.20421e-26
1.28168e-26
1.38207e-26
1.51104e-26
1.66229e-26
1.83181e-26
2.01516e-26
2.20282e-26
2.37661e-26
2.51544e-26
2.60224e-26
2.54744e-26
2.43762e-26
2.12201e-26
1.62729e-26
1.0214e-26
1.41042e-26
4.47239e-26
1.71373e-25
2.674e-25
1.26787e-24
2.71565e-23
5.44158e-22
1.02512e-20
1.83116e-19
3.11512e-18
5.1325e-17
8.25037e-16
1.218e-14
1.66865e-13
1.50659e-12
7.20235e-12
4.21213e-11
2.6928e-10
1.52052e-09
6.86075e-09
2.34369e-08
3.79127e-08
1.19654e-08
2.80381e-09
3.36398e-10
2.93455e-11
2.17788e-12
1.48798e-13
9.74138e-15
6.22496e-16
3.90843e-17
9.31595e-18
7.71189e-19
4.06492e-20
2.28611e-21
1.22317e-22
5.91109e-24
4.71874e-25
3.57941e-25
1.99523e-25
3.04046e-26
1.97039e-26
1.90218e-26
2.71202e-26
3.25641e-26
3.46582e-26
3.5446e-26
3.35521e-26
3.1333e-26
2.90166e-26
2.61067e-26
2.29611e-26
2.03898e-26
1.82511e-26
1.65752e-26
1.47356e-26
1.32261e-26
1.21242e-26
1.13631e-26
1.01954e-26
1.28587e-26
2.36932e-28
1.88862e-28
2.07842e-28
2.27418e-28
2.44375e-28
2.66487e-28
2.95267e-28
3.29852e-28
3.69757e-28
4.14285e-28
4.61759e-28
5.08316e-28
5.49972e-28
5.79664e-28
5.8434e-28
5.65726e-28
4.90165e-28
4.96029e-28
1.26434e-27
8.06309e-27
1.41042e-26
4.5238e-26
9.61968e-25
2.19066e-23
4.60456e-22
9.08554e-21
1.68722e-19
2.95345e-18
4.86895e-17
7.61985e-16
1.1657e-14
1.7528e-13
1.72009e-12
8.87431e-12
7.20057e-11
5.17547e-10
3.39903e-09
1.85326e-08
8.12275e-08
2.72283e-07
4.38544e-07
1.40086e-07
3.37198e-08
4.41701e-09
4.31937e-10
3.62084e-11
2.78612e-12
2.03676e-13
1.4372e-14
2.29765e-15
2.71674e-16
1.81782e-17
1.08232e-18
6.21433e-20
3.36088e-21
1.70711e-22
8.10601e-24
3.59026e-25
3.04046e-26
1.97039e-26
1.07103e-26
1.21898e-27
7.0737e-28
7.79179e-28
8.26802e-28
8.25651e-28
7.639e-28
6.9585e-28
6.28413e-28
5.52279e-28
4.75493e-28
4.13982e-28
3.633e-28
3.24698e-28
2.83742e-28
2.51893e-28
2.2844e-28
2.12461e-28
1.89408e-28
2.38458e-28
4.82235e-30
3.85274e-30
4.25973e-30
4.69871e-30
5.09894e-30
5.62554e-30
6.31993e-30
7.17382e-30
8.18513e-30
9.34859e-30
1.06326e-29
1.19639e-29
1.32391e-29
1.42543e-29
1.46601e-29
1.29676e-29
2.66059e-29
2.60915e-28
4.96029e-28
1.26434e-27
2.21073e-26
5.55254e-25
1.34812e-23
3.03202e-22
6.36762e-21
1.24995e-19
2.29583e-18
3.9468e-17
6.35607e-16
9.60919e-15
1.38805e-13
1.49275e-12
1.00985e-11
9.271e-11
7.59482e-10
5.6255e-09
3.54027e-08
1.85399e-07
7.85938e-07
2.57898e-06
4.12258e-06
1.33565e-06
3.31617e-07
4.78882e-08
5.30711e-09
5.07605e-10
4.43565e-11
3.6432e-12
3.75832e-13
6.99177e-14
6.12265e-15
3.82235e-16
2.37384e-17
1.38262e-18
7.515e-20
3.81205e-21
1.80353e-22
7.94006e-24
3.2443e-25
1.48357e-26
1.21898e-27
7.07369e-28
3.68239e-28
3.37072e-29
1.93253e-29
2.09616e-29
1.91606e-29
1.69926e-29
1.49496e-29
1.28237e-29
1.07954e-29
9.20725e-30
7.91938e-30
6.95901e-30
5.97861e-30
5.24569e-30
4.70546e-30
4.34191e-30
3.84695e-30
4.83132e-30
1.06274e-31
8.51385e-32
9.45903e-32
1.0519e-31
1.15312e-31
1.28771e-31
1.46756e-31
1.6936e-31
1.96814e-31
2.2933e-31
2.66452e-31
3.06825e-31
3.47394e-31
3.69146e-31
4.18414e-31
3.35221e-30
9.94164e-30
2.5151e-29
3.69917e-28
9.90798e-27
2.5988e-25
6.35407e-24
1.50159e-22
3.41401e-21
7.20211e-20
1.41281e-18
2.57822e-17
4.37765e-16
6.95921e-15
1.00708e-13
1.08274e-12
8.50233e-12
8.14354e-11
7.90474e-10
7.09742e-09
5.06655e-08
3.03808e-07
1.51933e-06
6.19538e-06
1.98269e-05
3.13035e-05
1.03222e-05
2.6589e-06
4.28047e-07
5.43718e-08
5.99086e-09
5.98598e-10
5.54639e-11
5.10759e-12
9.21899e-13
9.70309e-14
6.55197e-15
4.10057e-16
2.40179e-17
1.30517e-18
6.56925e-20
3.1336e-21
1.47023e-22
6.44382e-24
2.61778e-25
9.9034e-27
3.76418e-28
3.17231e-29
1.36535e-29
4.45653e-30
5.66727e-31
5.03173e-31
4.52482e-31
3.86976e-31
3.23628e-31
2.66148e-31
2.22144e-31
1.87181e-31
1.61598e-31
1.36487e-31
1.18297e-31
1.04944e-31
9.60489e-32
8.45805e-32
1.05912e-31
2.515e-33
2.02106e-33
2.25677e-33
2.53043e-33
2.803e-33
3.16965e-33
3.66636e-33
4.30383e-33
5.09771e-33
6.06465e-33
7.21396e-33
8.46107e-33
8.77908e-33
2.08151e-32
1.73186e-31
4.18414e-31
3.35221e-30
1.00827e-28
3.12901e-27
9.04365e-26
2.41665e-24
5.97401e-23
1.37255e-21
3.04586e-20
6.48849e-19
1.27707e-17
2.32772e-16
3.95351e-15
6.01291e-14
6.96162e-13
6.21727e-12
6.4702e-11
6.43582e-10
5.82415e-09
4.77032e-08
3.5509e-07
2.13903e-06
1.06789e-05
3.95127e-05
0.000122674
0.000189754
7.00368e-05
1.81644e-05
3.13408e-06
4.60712e-07
5.88729e-08
6.75498e-09
7.20758e-10
7.61672e-11
7.71523e-12
8.11646e-13
7.69631e-14
5.24753e-15
3.028e-16
1.63323e-17
8.35482e-19
4.18415e-20
1.95126e-21
8.4016e-23
3.35035e-24
1.23698e-25
4.22841e-27
1.34412e-28
4.45653e-30
5.52142e-31
2.25706e-31
2.87908e-32
1.15595e-32
1.07644e-32
8.81093e-33
7.06463e-33
5.76523e-33
4.75622e-33
4.03183e-33
3.34754e-33
2.86452e-33
2.51281e-33
2.28066e-33
1.99608e-33
2.49118e-33
6.34496e-35
5.11614e-35
5.74268e-35
6.49327e-35
7.27016e-35
8.32815e-35
9.78172e-35
1.16862e-34
1.41178e-34
1.71846e-34
2.07117e-34
2.21953e-34
1.23171e-33
5.29525e-33
2.08151e-32
5.08558e-31
1.85832e-29
6.47325e-28
2.07335e-26
6.12815e-25
1.67363e-23
4.22615e-22
9.83519e-21
2.1328e-19
4.56106e-18
9.03332e-17
1.65902e-15
2.73412e-14
3.56923e-13
3.9109e-12
4.18628e-11
4.44454e-10
4.24579e-09
3.62725e-08
2.75198e-07
1.84264e-06
1.09806e-05
7.16566e-05
0.00026017
0.000604313
0.000902177
0.000521765
0.000131894
1.69731e-05
2.95339e-06
4.57333e-07
6.19904e-08
7.44028e-09
7.97521e-10
7.57762e-11
6.51413e-12
5.37007e-13
4.22588e-14
2.62572e-15
1.39743e-16
7.31946e-18
3.62867e-19
1.65699e-20
6.97983e-22
2.71656e-23
9.76864e-25
3.24422e-26
9.93854e-28
2.7989e-29
7.48795e-31
2.87908e-32
6.84148e-33
1.65583e-33
2.84031e-34
2.53891e-34
2.00564e-34
1.59757e-34
1.28966e-34
1.07284e-34
8.75518e-35
7.3928e-35
6.41134e-35
5.76967e-35
5.01906e-35
6.24127e-35
1.69546e-36
1.3721e-36
1.54843e-36
1.76581e-36
1.9989e-36
2.32042e-36
2.76861e-36
3.36821e-36
4.15358e-36
5.1048e-36
5.98975e-36
4.68382e-35
1.62055e-34
1.23171e-33
4.7935e-32
2.03291e-30
7.96323e-29
2.85938e-27
9.44627e-26
2.87531e-24
8.0674e-23
2.08675e-21
5.04998e-20
1.16891e-18
2.50474e-17
4.97797e-16
9.05298e-15
1.36065e-13
1.64333e-12
1.94113e-11
2.23921e-10
2.34833e-09
2.19562e-08
1.81165e-07
1.30532e-06
8.11888e-06
4.29649e-05
0.000318677
0.00133435
0.00234398
0.00330614
0.00212889
0.000578207
6.98891e-05
1.38981e-05
2.32511e-06
3.31954e-07
4.0993e-08
4.43004e-09
4.2356e-10
3.61617e-11
2.97498e-12
2.15165e-13
1.50103e-14
8.41121e-16
4.18468e-17
1.93562e-18
8.37452e-20
3.42776e-21
1.29587e-22
4.51249e-24
1.4487e-25
4.28453e-27
1.16569e-28
2.90751e-30
6.69234e-32
1.65542e-33
1.97179e-34
5.35597e-35
7.47493e-36
5.9578e-36
4.69526e-36
3.70728e-36
3.02463e-36
2.42554e-36
2.02016e-36
1.73168e-36
1.54492e-36
1.33581e-36
1.65471e-36
4.77073e-38
3.87581e-38
4.39804e-38
5.05908e-38
5.79142e-38
6.81506e-38
8.26375e-38
1.02395e-37
1.27535e-37
1.59802e-37
8.81092e-37
4.02229e-36
5.4002e-35
3.17756e-33
1.54685e-31
6.766e-30
2.71551e-28
1.00355e-26
3.42029e-25
1.07616e-23
3.12787e-22
8.39833e-21
2.08358e-19
4.79058e-18
1.02089e-16
2.02795e-15
3.52283e-14
4.55306e-13
5.36847e-12
6.17414e-11
7.25445e-10
7.62609e-09
7.10537e-08
5.80089e-07
4.08736e-06
2.44119e-05
0.000121036
0.00104383
0.00439976
0.00589696
0.00801948
0.00761041
0.00183625
0.000184725
3.91458e-05
6.78608e-06
9.84597e-07
1.22052e-07
1.3136e-08
1.24374e-09
1.04753e-10
8.91167e-12
6.48145e-13
5.73287e-14
3.43104e-15
1.68722e-16
7.83162e-18
3.37226e-19
1.34182e-20
4.9315e-22
1.67545e-23
5.2628e-25
1.52801e-26
4.09815e-28
1.01426e-29
2.27014e-31
4.50614e-33
7.50772e-35
4.65315e-36
8.50853e-37
1.8668e-37
1.44005e-37
1.12255e-37
8.98046e-38
7.07517e-38
5.81055e-38
4.92238e-38
4.35298e-38
3.74094e-38
4.61526e-38
1.40608e-39
1.14695e-39
1.30882e-39
1.51879e-39
1.75857e-39
2.09839e-39
2.58632e-39
3.2454e-39
4.13501e-39
9.9353e-39
8.9996e-38
1.68208e-36
1.00995e-34
5.65494e-33
2.83801e-31
1.2978e-29
5.43005e-28
2.08385e-26
7.34786e-25
2.38352e-23
7.11772e-22
1.957e-20
4.95215e-19
1.15312e-17
2.47456e-16
4.93942e-15
8.62484e-14
1.02002e-12
9.46776e-12
1.01345e-10
1.14577e-09
1.21371e-08
1.13747e-07
9.31693e-07
6.55736e-06
3.87414e-05
0.000187458
0.00237755
0.01382
0.0107908
0.0147506
0.024159
0.00373684
0.00025888
5.54881e-05
9.6391e-06
1.38921e-06
1.70329e-07
1.80951e-08
1.68969e-09
1.43538e-10
1.36802e-11
1.30598e-12
1.22062e-13
7.16066e-15
3.47752e-16
1.58413e-17
6.64767e-19
2.56462e-20
9.10315e-22
2.9744e-23
8.94567e-25
2.47471e-26
6.28838e-28
1.4647e-29
3.18686e-31
6.44822e-33
1.18026e-34
1.86503e-36
9.81701e-38
8.93814e-39
4.64056e-39
3.54194e-39
2.79227e-39
2.16117e-39
1.74967e-39
1.46468e-39
1.28371e-39
1.09645e-39
1.347e-39
4.31957e-41
3.53831e-41
4.06068e-41
4.75398e-41
5.56853e-41
6.7391e-41
8.43119e-41
1.07035e-40
1.47495e-40
1.96682e-39
2.1033e-38
1.86115e-36
1.16913e-34
6.49029e-33
3.28631e-31
1.52281e-29
6.47313e-28
2.52854e-26
9.08737e-25
3.00704e-23
9.16371e-22
2.57112e-20
6.63693e-19
1.57464e-17
3.43572e-16
6.94659e-15
1.30047e-13
1.53634e-12
9.79018e-12
1.09043e-10
1.03213e-09
1.07083e-08
1.03002e-07
8.63399e-07
6.2029e-06
3.7227e-05
0.000159573
0.0017851
0.0229626
0.0903437
0.106619
0.0344374
0.00305522
0.000185669
5.00165e-05
8.68319e-06
1.22903e-06
1.46935e-07
1.51568e-08
1.41444e-09
1.40812e-10
1.26677e-11
2.02101e-12
1.77243e-13
9.40436e-15
4.54319e-16
2.03752e-17
8.40832e-19
3.189e-20
1.11295e-21
3.57766e-23
1.05987e-24
2.89349e-26
7.27503e-28
1.68272e-29
3.54899e-31
6.84072e-33
1.20441e-34
1.85078e-36
2.16911e-38
2.1627e-39
1.6428e-40
1.1583e-40
9.03625e-41
6.8782e-41
5.48835e-41
4.53937e-41
3.94257e-41
3.34667e-41
4.09356e-41
1.3769e-42
1.13272e-42
1.30742e-42
1.54433e-42
1.83023e-42
2.24624e-42
2.83792e-42
3.73414e-42
1.28529e-41
1.13649e-40
1.12202e-38
9.46682e-37
6.33419e-35
3.80712e-33
2.07408e-31
1.0281e-29
4.65014e-28
1.92322e-26
7.28396e-25
2.52846e-23
8.04678e-22
2.3473e-20
6.27164e-19
1.53305e-17
3.42873e-16
7.1068e-15
1.36879e-13
1.72362e-12
1.05179e-11
8.08069e-11
7.53233e-10
7.67224e-09
7.35385e-08
5.69741e-07
6.53573e-06
3.89472e-05
9.29683e-05
0.00188434
0.021657
0.211211
0.236841
0.028754
0.00296258
0.000110898
5.34601e-05
1.00332e-05
9.48916e-07
8.91684e-08
1.00484e-08
9.78734e-10
9.96464e-11
1.31244e-11
2.19766e-12
1.76748e-13
9.06494e-15
4.28351e-16
1.87985e-17
7.5605e-19
2.78566e-20
9.41641e-22
2.92347e-23
8.34256e-25
2.18856e-26
5.27606e-28
1.16705e-29
2.36611e-31
4.36984e-33
7.34595e-35
1.11985e-36
1.43587e-38
1.70986e-40
1.15832e-41
4.00386e-42
3.01825e-42
2.26941e-42
1.78501e-42
1.45851e-42
1.2552e-42
1.0589e-42
1.2895e-42
4.53477e-44
3.74694e-44
4.34977e-44
5.18417e-44
6.21664e-44
7.72941e-44
9.91872e-44
1.39065e-43
1.635e-42
3.43105e-41
3.58863e-39
2.94391e-37
2.22015e-35
1.49118e-33
8.958e-32
4.84861e-30
2.37572e-28
1.05727e-26
4.28314e-25
1.58163e-23
5.32683e-22
1.63615e-20
4.58012e-19
1.16693e-17
2.70786e-16
5.83383e-15
1.154e-13
1.54252e-12
9.88375e-12
4.80541e-11
4.15804e-10
4.07286e-09
3.78086e-08
3.48904e-07
6.73791e-06
3.61394e-05
7.46084e-05
0.00142189
0.0160786
0.264462
0.26396
0.0210148
0.00148565
5.59899e-05
4.96233e-05
1.07495e-05
6.84601e-07
5.11458e-08
5.37123e-09
5.54348e-10
7.20055e-11
1.28887e-11
1.94999e-12
1.48371e-13
7.42428e-15
3.39932e-16
1.44927e-17
5.6442e-19
2.0066e-20
6.5243e-22
1.9428e-23
5.30376e-25
1.32808e-26
3.04942e-28
6.42652e-30
1.23706e-31
2.1718e-33
3.47457e-35
5.04635e-37
6.61108e-39
6.79019e-41
1.92893e-42
1.51847e-43
1.04362e-43
7.72002e-44
5.99266e-44
4.83718e-44
4.12479e-44
3.4583e-44
4.19266e-44
1.53699e-45
1.27561e-45
1.48939e-45
1.7911e-45
2.17317e-45
2.73273e-45
3.59395e-45
6.7317e-45
7.6931e-44
1.04821e-41
1.02972e-39
9.29931e-38
7.8387e-36
5.74807e-34
3.74957e-32
2.18902e-30
1.1507e-28
5.46904e-27
2.35645e-25
9.21888e-24
3.27698e-22
1.05832e-20
3.10255e-19
8.24091e-18
1.98599e-16
4.43258e-15
9.00452e-14
1.26619e-12
9.13957e-12
3.94735e-11
2.04016e-10
1.88684e-09
1.75417e-08
1.94587e-07
6.7904e-06
3.22867e-05
4.36259e-05
0.000503023
0.0115958
0.267244
0.266489
0.0124648
0.000421749
4.21954e-05
4.3693e-05
1.02415e-05
4.90919e-07
2.95092e-08
3.21921e-09
3.61332e-10
6.26353e-11
1.20045e-11
1.60618e-12
1.1475e-13
5.60621e-15
2.4828e-16
1.02039e-17
3.81821e-19
1.29962e-20
4.0334e-22
1.14336e-23
2.96409e-25
7.03344e-27
1.52935e-28
3.04368e-30
5.52738e-32
9.16043e-34
1.38273e-35
1.89341e-37
2.34527e-39
2.56779e-41
2.21041e-43
8.60544e-45
3.75437e-45
2.69276e-45
2.06795e-45
1.64919e-45
1.39348e-45
1.16119e-45
1.40144e-45
5.34094e-47
4.45253e-47
5.22873e-47
6.34457e-47
7.78765e-47
9.94294e-47
1.33726e-46
7.21631e-46
1.85537e-44
2.4405e-42
2.68066e-40
2.96826e-38
2.76094e-36
2.20932e-34
1.55209e-32
9.71264e-31
5.45253e-29
2.75803e-27
1.26073e-25
5.21541e-24
1.95294e-22
6.61909e-21
2.02931e-19
5.61648e-18
1.40932e-16
3.29014e-15
6.97388e-14
1.02094e-12
7.82621e-12
3.47369e-11
1.39801e-10
9.82641e-10
8.23793e-09
9.32094e-08
6.70545e-06
2.8462e-05
2.76224e-05
5.12036e-05
0.0102197
0.269363
0.268677
0.00973832
3.6789e-05
3.02272e-05
3.53622e-05
8.91867e-06
4.03508e-07
1.65696e-08
2.12354e-09
2.70224e-10
5.34776e-11
1.03144e-11
1.29871e-12
8.80966e-14
4.10313e-15
1.73616e-16
6.85775e-18
2.45775e-19
7.98283e-21
2.35834e-22
6.34919e-24
1.55947e-25
3.49766e-27
7.16235e-29
1.3373e-30
2.27822e-32
3.53765e-34
4.99254e-36
6.38487e-38
7.38693e-40
7.70236e-42
6.65708e-44
9.77068e-46
1.41863e-46
9.65475e-47
7.30562e-47
5.75788e-47
4.82119e-47
3.9933e-47
4.7977e-47
1.89604e-48
1.58779e-48
1.87529e-48
2.29592e-48
2.85025e-48
3.70472e-48
7.0184e-48
6.44661e-47
7.44102e-45
1.22397e-42
1.4243e-40
1.45143e-38
1.32633e-36
1.08749e-34
7.90724e-33
5.14623e-31
3.0162e-29
1.60262e-27
7.69889e-26
3.35137e-24
1.33228e-22
4.82141e-21
1.57777e-19
4.66033e-18
1.24181e-16
3.05234e-15
6.77114e-14
1.04109e-12
7.98305e-12
3.28574e-11
1.26519e-10
5.87283e-10
2.54315e-09
6.72628e-08
5.52798e-06
1.97701e-05
2.28147e-05
2.61837e-05
0.0141708
0.270106
0.269812
0.0127709
2.97719e-05
2.57549e-05
2.06537e-05
6.46141e-06
3.81094e-07
7.22606e-09
1.47358e-09
2.38149e-10
4.8579e-11
9.78399e-12
1.22483e-12
8.2465e-14
3.78339e-15
1.52945e-16
5.70485e-18
1.9321e-19
5.93093e-21
1.65533e-22
4.20734e-24
9.77917e-26
2.07828e-27
4.04179e-29
7.21575e-31
1.18015e-32
1.76615e-34
2.41779e-36
3.02923e-38
3.29556e-40
3.14388e-42
2.64192e-44
1.85127e-46
8.26825e-48
3.54979e-48
2.63225e-48
2.05103e-48
1.70209e-48
1.40143e-48
1.67609e-48
6.85307e-50
5.76489e-50
6.84744e-50
8.4562e-50
1.0624e-49
1.56551e-49
2.13712e-48
1.6466e-46
2.09618e-44
2.38441e-42
2.62245e-40
2.57736e-38
2.2571e-36
1.77141e-34
1.25127e-32
7.9862e-31
4.61225e-29
2.40953e-27
1.14576e-25
4.95677e-24
1.94397e-22
6.92725e-21
2.22907e-19
6.47052e-18
1.71124e-16
4.1986e-15
9.15388e-14
1.35485e-12
9.7404e-12
3.87488e-11
1.65328e-10
6.92685e-10
9.78658e-10
8.1859e-08
4.11246e-06
2.01277e-05
7.03651e-05
3.61641e-05
0.0204596
0.270106
0.270106
0.0176816
4.14328e-05
8.08e-05
2.19052e-05
5.52992e-06
2.87481e-07
1.24581e-08
1.61068e-09
2.60397e-10
5.32296e-11
1.1757e-11
1.53233e-12
1.05629e-13
5.04797e-15
2.06279e-16
7.71705e-18
2.64398e-19
8.2023e-21
2.30121e-22
5.86162e-24
1.35457e-25
2.84927e-27
5.45163e-29
9.47498e-31
1.49599e-32
2.14313e-34
2.77736e-36
3.23219e-38
3.57785e-40
3.61677e-42
3.22658e-44
2.51088e-46
2.31339e-48
1.49009e-49
9.64857e-50
7.4263e-50
6.11037e-50
5.00165e-50
5.9548e-50
2.51366e-51
2.12407e-51
2.53701e-51
3.1576e-51
4.05958e-51
1.70311e-50
1.72945e-48
2.61543e-46
3.53022e-44
4.20986e-42
4.41707e-40
4.13617e-38
3.48806e-36
2.6547e-34
1.83082e-32
1.14724e-30
6.54834e-29
3.41202e-27
1.62257e-25
7.03149e-24
2.77541e-22
9.94331e-21
3.22506e-19
9.44876e-18
2.52761e-16
6.22343e-15
1.25574e-13
1.67848e-12
1.33929e-11
6.19549e-11
2.01686e-10
5.33178e-10
7.24699e-10
8.90995e-08
4.36822e-06
3.12581e-05
9.71877e-05
5.34982e-05
0.0524892
0.270106
0.269955
0.0512435
5.95451e-05
9.77436e-05
3.39445e-05
5.64967e-06
3.97842e-07
1.6968e-08
1.13663e-09
2.67893e-10
7.7548e-11
1.57972e-11
1.91233e-12
1.43811e-13
7.22838e-15
2.93049e-16
1.08802e-17
3.69491e-19
1.1342e-20
3.1518e-22
7.94796e-24
1.82427e-25
3.81528e-27
7.29784e-29
1.27201e-30
2.01804e-32
2.90877e-34
3.79707e-36
4.47394e-38
4.71319e-40
4.46693e-42
3.7994e-44
2.84958e-46
1.87335e-48
1.58842e-50
3.62403e-51
2.72257e-51
2.22306e-51
1.80933e-51
2.14444e-51
9.32701e-53
7.91676e-53
9.50634e-53
1.19386e-52
1.72951e-52
6.31559e-51
1.25129e-48
2.07713e-46
2.90353e-44
3.54808e-42
3.79984e-40
3.62239e-38
3.11428e-36
2.42206e-34
1.70801e-32
1.09539e-30
6.397e-29
3.40223e-27
1.64626e-25
7.24595e-24
2.89627e-22
1.04843e-20
3.42423e-19
1.00484e-17
2.66601e-16
6.50728e-15
1.31985e-13
1.74354e-12
1.44781e-11
7.78471e-11
2.26301e-10
6.17982e-10
5.50527e-09
1.06442e-08
5.85342e-06
4.17081e-05
7.05138e-05
7.85555e-05
0.165029
0.269955
0.26962
0.164739
6.96967e-05
5.95602e-05
3.93045e-05
6.657e-06
4.61253e-07
3.05912e-08
1.51823e-09
2.87966e-10
8.86781e-11
1.57181e-11
1.92312e-12
1.49058e-13
7.34408e-15
2.98247e-16
1.11436e-17
3.76926e-19
1.14631e-20
3.14663e-22
7.82782e-24
1.7692e-25
3.63584e-27
6.78911e-29
1.15429e-30
1.78685e-32
2.51489e-34
3.21062e-36
3.70626e-38
3.80552e-40
3.47148e-42
2.80736e-44
1.9971e-46
1.20898e-48
6.07835e-51
1.53541e-52
1.00953e-52
8.16995e-53
6.61311e-53
7.80318e-53
3.49036e-54
2.97573e-54
3.59135e-54
4.56212e-54
1.05419e-53
1.6015e-51
3.69207e-49