/*--------------------------------*- C++ -*----------------------------------*\
| =========                 |                                                 |
| \\      /  F ield         | OpenFOAM: The Open Source CFD Toolbox           |
|  \\    /   O peration     | Version:  2412                                  |
|   \\  /    A nd           | Website:  www.openfoam.com                      |
|    \\/     M anipulation  |                                                 |
\*---------------------------------------------------------------------------*/
FoamFile
{
    version     2.0;
    format      ascii;
    arch        "LSB;label=32;scalar=64";
    class       volVectorField;
    location    "9.15";
    object      U;
}
// * * * * * * * * * * * * * * * * * * * * * * * * * * * * * * * * * * * * * //

dimensions      [0 1 -1 0 0 0 0];

internalField   nonuniform List<vector> 
6400
(
(-0.0010879 0.00106688 0)
(-0.00394089 0.00122386 0)
(-0.00659189 0.0011693 0)
(-0.00903626 0.001101 0)
(-0.0112536 0.00103869 0)
(-0.0132867 0.000975474 0)
(-0.0151724 0.000908457 0)
(-0.0169278 0.000834496 0)
(-0.0185456 0.000749874 0)
(-0.0199984 0.00065142 0)
(-0.0212537 0.000540352 0)
(-0.0222785 0.000417224 0)
(-0.0230399 0.000284624 0)
(-0.0235137 0.000147341 0)
(-0.0236937 1.18223e-05 0)
(-0.0235896 -0.000118475 0)
(-0.0232137 -0.000242071 0)
(-0.0225803 -0.000354612 0)
(-0.0217187 -0.000454193 0)
(-0.020665 -0.000539274 0)
(-0.019452 -0.000609535 0)
(-0.0181126 -0.000664297 0)
(-0.0166817 -0.000701768 0)
(-0.0151951 -0.000721707 0)
(-0.013686 -0.000725586 0)
(-0.0121882 -0.000716094 0)
(-0.0107275 -0.000691304 0)
(-0.00932549 -0.00065804 0)
(-0.00800162 -0.000616978 0)
(-0.00676619 -0.000569137 0)
(-0.00562971 -0.000515642 0)
(-0.00459917 -0.00045877 0)
(-0.00367588 -0.000401305 0)
(-0.00285632 -0.000346838 0)
(-0.00213352 -0.000295581 0)
(-0.00149875 -0.000247972 0)
(-0.000942103 -0.000206264 0)
(-0.000451637 -0.000171545 0)
(-1.02673e-05 -0.000144805 0)
(0.000393995 -0.000128847 0)
(0.000777724 -0.000120113 0)
(0.0011596 -0.000120276 0)
(0.00155037 -0.000129642 0)
(0.00196502 -0.000147949 0)
(0.0024203 -0.000175394 0)
(0.00293016 -0.000210759 0)
(0.00350556 -0.000250135 0)
(0.00415887 -0.000294744 0)
(0.00490144 -0.000346962 0)
(0.00574312 -0.000399233 0)
(0.00669107 -0.000454522 0)
(0.00774654 -0.00050864 0)
(0.00890292 -0.000556226 0)
(0.010147 -0.000597462 0)
(0.0114636 -0.000630267 0)
(0.0128339 -0.000650963 0)
(0.014235 -0.000659268 0)
(0.0156343 -0.000655557 0)
(0.0169998 -0.000633854 0)
(0.0183016 -0.000595486 0)
(0.0195037 -0.000542297 0)
(0.0205697 -0.000474188 0)
(0.0214658 -0.000390047 0)
(0.0221604 -0.000291636 0)
(0.0226215 -0.000179991 0)
(0.0228245 -5.74589e-05 0)
(0.0227545 7.28761e-05 0)
(0.0223957 0.000205696 0)
(0.0217531 0.000337675 0)
(0.0208427 0.000464843 0)
(0.0196865 0.000584598 0)
(0.0183158 0.000692235 0)
(0.016766 0.000786912 0)
(0.0150612 0.000871117 0)
(0.013207 0.000947645 0)
(0.0111884 0.0010229 0)
(0.0089752 0.00109429 0)
(0.00653684 0.00116056 0)
(0.00390196 0.00121329 0)
(0.00108643 0.00106761 0)
(-0.00133022 0.0039841 0)
(-0.00502686 0.00474328 0)
(-0.00795959 0.004203 0)
(-0.0104473 0.00372449 0)
(-0.0125282 0.00335514 0)
(-0.0143351 0.00307336 0)
(-0.0159779 0.00284538 0)
(-0.017527 0.00263882 0)
(-0.0189972 0.00241066 0)
(-0.0203577 0.00212751 0)
(-0.0215661 0.00179304 0)
(-0.022575 0.00140195 0)
(-0.0233341 0.000965442 0)
(-0.0238171 0.000507663 0)
(-0.024008 5.20492e-05 0)
(-0.0239045 -0.000391794 0)
(-0.0235181 -0.000815312 0)
(-0.0228613 -0.00120193 0)
(-0.0219614 -0.00153758 0)
(-0.0208594 -0.00181481 0)
(-0.0195987 -0.00203732 0)
(-0.0182189 -0.00220624 0)
(-0.0167567 -0.00231842 0)
(-0.0152493 -0.00237489 0)
(-0.0137316 -0.00237896 0)
(-0.0122345 -0.00233879 0)
(-0.0107843 -0.00225693 0)
(-0.00940398 -0.00214819 0)
(-0.00810882 -0.00201842 0)
(-0.00690527 -0.00187366 0)
(-0.00580058 -0.00171627 0)
(-0.00479758 -0.00155393 0)
(-0.00389361 -0.00139318 0)
(-0.00308353 -0.0012442 0)
(-0.00235654 -0.00110843 0)
(-0.00170207 -0.000985721 0)
(-0.00110908 -0.000882042 0)
(-0.000565509 -0.000795089 0)
(-5.75084e-05 -0.000734165 0)
(0.000428444 -0.000700894 0)
(0.000905915 -0.000685671 0)
(0.00138512 -0.000689133 0)
(0.00187174 -0.000713129 0)
(0.002376 -0.000759452 0)
(0.0029115 -0.000829875 0)
(0.00349283 -0.000921283 0)
(0.00412897 -0.00102732 0)
(0.00483313 -0.00115015 0)
(0.00562358 -0.00129758 0)
(0.00651043 -0.00145499 0)
(0.00750268 -0.00162017 0)
(0.0086048 -0.001783 0)
(0.00981018 -0.00192788 0)
(0.0111075 -0.00205247 0)
(0.0124817 -0.00215141 0)
(0.0139131 -0.00221501 0)
(0.0153774 -0.00223654 0)
(0.0168425 -0.00221222 0)
(0.0182729 -0.00213253 0)
(0.0196321 -0.00199747 0)
(0.0208804 -0.00180722 0)
(0.0219767 -0.00156148 0)
(0.0228805 -0.00126078 0)
(0.0235564 -0.000908991 0)
(0.0239715 -0.000510972 0)
(0.0241026 -8.10956e-05 0)
(0.0239409 0.000367301 0)
(0.0234889 0.000818094 0)
(0.0227511 0.00125475 0)
(0.0217544 0.0016607 0)
(0.0205413 0.00202277 0)
(0.0191627 0.00232431 0)
(0.0176709 0.00257477 0)
(0.0160884 0.00280522 0)
(0.0143923 0.00305415 0)
(0.0125255 0.00335758 0)
(0.0103941 0.00372838 0)
(0.00787699 0.00417512 0)
(0.00494239 0.00467509 0)
(0.00131604 0.00394536 0)
(-0.00131748 0.00691688 0)
(-0.00477422 0.00784027 0)
(-0.00723027 0.00659962 0)
(-0.00915584 0.00559544 0)
(-0.0106308 0.00487363 0)
(-0.0118493 0.0043946 0)
(-0.0129575 0.00407899 0)
(-0.0140529 0.00384279 0)
(-0.0151751 0.0035844 0)
(-0.0162666 0.00323299 0)
(-0.0172729 0.0027768 0)
(-0.0181493 0.00220758 0)
(-0.0188219 0.00154548 0)
(-0.0192483 0.000834373 0)
(-0.0194065 0.000116252 0)
(-0.0192913 -0.000592352 0)
(-0.0189153 -0.00127304 0)
(-0.0182945 -0.00190027 0)
(-0.0174503 -0.00244467 0)
(-0.0164208 -0.00288635 0)
(-0.015252 -0.00323301 0)
(-0.0139838 -0.00349034 0)
(-0.0126543 -0.00365769 0)
(-0.0112995 -0.00373553 0)
(-0.00995396 -0.00372788 0)
(-0.00864694 -0.00364811 0)
(-0.00740162 -0.00350593 0)
(-0.00623772 -0.00331749 0)
(-0.00517079 -0.00309732 0)
(-0.00420613 -0.00285607 0)
(-0.00334671 -0.00260141 0)
(-0.00259042 -0.00234257 0)
(-0.00193249 -0.00208682 0)
(-0.00137043 -0.00185181 0)
(-0.00088781 -0.00164254 0)
(-0.000473013 -0.00145725 0)
(-0.000107321 -0.00130395 0)
(0.000220455 -0.00118265 0)
(0.000515461 -0.00110041 0)
(0.000795574 -0.00105357 0)
(0.00107034 -0.00103503 0)
(0.00134514 -0.00104112 0)
(0.00162661 -0.00107526 0)
(0.00192447 -0.00114292 0)
(0.00225124 -0.00124829 0)
(0.00262149 -0.00138799 0)
(0.00304819 -0.00155557 0)
(0.0035471 -0.00175304 0)
(0.0041333 -0.00198902 0)
(0.00481528 -0.00225111 0)
(0.00560363 -0.00252402 0)
(0.00650546 -0.00279273 0)
(0.00751711 -0.00303649 0)
(0.00863045 -0.00324773 0)
(0.0098326 -0.00341779 0)
(0.0111049 -0.00353173 0)
(0.0124232 -0.00357538 0)
(0.013756 -0.0035383 0)
(0.0150672 -0.00341198 0)
(0.0163193 -0.00319263 0)
(0.0174714 -0.00287711 0)
(0.0184799 -0.00246562 0)
(0.0193037 -0.00196202 0)
(0.01991 -0.00137558 0)
(0.0202646 -0.00072044 0)
(0.0203472 -2.01908e-05 0)
(0.0201565 0.000698683 0)
(0.0196941 0.00141007 0)
(0.0189751 0.00208336 0)
(0.0180456 0.00268371 0)
(0.0169644 0.0031797 0)
(0.0157932 0.00355532 0)
(0.0145927 0.00384815 0)
(0.0133929 0.00412765 0)
(0.0121683 0.00447877 0)
(0.0108404 0.00497229 0)
(0.00926821 0.00567117 0)
(0.00726101 0.00661725 0)
(0.00474468 0.00776905 0)
(0.00131493 0.00685667 0)
(-0.00133401 0.00980886 0)
(-0.0046651 0.0107159 0)
(-0.00678744 0.00865918 0)
(-0.00829567 0.00706911 0)
(-0.00933943 0.00598618 0)
(-0.0101764 0.00534344 0)
(-0.0109814 0.00501843 0)
(-0.0118615 0.00481843 0)
(-0.0128521 0.0045879 0)
(-0.0138611 0.00422665 0)
(-0.0148096 0.00368004 0)
(-0.0156405 0.0029545 0)
(-0.0162692 0.00207404 0)
(-0.0166451 0.00110696 0)
(-0.0167412 0.000116359 0)
(-0.0165521 -0.000860782 0)
(-0.0160978 -0.00179126 0)
(-0.015405 -0.0026488 0)
(-0.014494 -0.00339137 0)
(-0.0134032 -0.00399558 0)
(-0.0121823 -0.00445836 0)
(-0.0108755 -0.00478798 0)
(-0.00952609 -0.00498802 0)
(-0.00817243 -0.00506166 0)
(-0.0068549 -0.00502148 0)
(-0.00560149 -0.00487984 0)
(-0.00443247 -0.004655 0)
(-0.00336997 -0.00436501 0)
(-0.00242904 -0.00403321 0)
(-0.00161578 -0.00367641 0)
(-0.000932285 -0.00330771 0)
(-0.000367023 -0.00293831 0)
(8.55502e-05 -0.00258259 0)
(0.00042593 -0.00225559 0)
(0.000680938 -0.00196772 0)
(0.000864795 -0.00172417 0)
(0.000994961 -0.00152402 0)
(0.00109095 -0.0013739 0)
(0.00115765 -0.00126954 0)
(0.00120495 -0.00120713 0)
(0.00124307 -0.00118377 0)
(0.00128213 -0.00119374 0)
(0.00133126 -0.00124046 0)
(0.00140157 -0.00133247 0)
(0.00150563 -0.00147738 0)
(0.00165897 -0.00167165 0)
(0.00188139 -0.00190845 0)
(0.00219131 -0.00219133 0)
(0.00259772 -0.00252199 0)
(0.00310918 -0.00289291 0)
(0.00374158 -0.00328514 0)
(0.00450308 -0.00367196 0)
(0.00539044 -0.00403218 0)
(0.00639918 -0.00434812 0)
(0.00751917 -0.00460808 0)
(0.00873176 -0.00479064 0)
(0.0100116 -0.0048746 0)
(0.0113258 -0.00484287 0)
(0.0126367 -0.00468399 0)
(0.0139041 -0.00439069 0)
(0.0150832 -0.00395856 0)
(0.0161252 -0.00338639 0)
(0.016985 -0.00267975 0)
(0.0176266 -0.00185612 0)
(0.0180161 -0.000943277 0)
(0.0181294 3.01073e-05 0)
(0.0179614 0.00102499 0)
(0.0175131 0.00199775 0)
(0.0168098 0.00290171 0)
(0.0158959 0.00366909 0)
(0.0148416 0.00425486 0)
(0.0137301 0.00465276 0)
(0.0126331 0.00492914 0)
(0.0116115 0.00518678 0)
(0.0106621 0.00556594 0)
(0.0096974 0.0062063 0)
(0.00853136 0.00724586 0)
(0.0069056 0.00876721 0)
(0.00468654 0.010682 0)
(0.00134844 0.00975957 0)
(-0.00138021 0.0126989 0)
(-0.00467247 0.013412 0)
(-0.00649201 0.0103915 0)
(-0.00760108 0.00816148 0)
(-0.00826811 0.00676096 0)
(-0.00882454 0.00604928 0)
(-0.00950607 0.00581227 0)
(-0.0104013 0.00573731 0)
(-0.0114691 0.00559158 0)
(-0.0125945 0.00523498 0)
(-0.0136583 0.00459317 0)
(-0.0145625 0.00369667 0)
(-0.0152139 0.00258218 0)
(-0.0155672 0.0013286 0)
(-0.0156069 3.29097e-05 0)
(-0.0153184 -0.00123786 0)
(-0.0147285 -0.00242784 0)
(-0.0138781 -0.00351561 0)
(-0.0128052 -0.00445913 0)
(-0.0115556 -0.00522378 0)
(-0.0101753 -0.00579555 0)
(-0.00871848 -0.00618089 0)
(-0.00723612 -0.00639058 0)
(-0.00578063 -0.00643476 0)
(-0.0043909 -0.00633269 0)
(-0.00309255 -0.00610076 0)
(-0.00191387 -0.00576217 0)
(-0.000877226 -0.00534593 0)
(3.96258e-06 -0.00487259 0)
(0.000726442 -0.00436936 0)
(0.00128616 -0.00385932 0)
(0.00169573 -0.00335772 0)
(0.00197323 -0.00288443 0)
(0.00212699 -0.00245225 0)
(0.00217824 -0.00207452 0)
(0.00214717 -0.00176535 0)
(0.00205303 -0.00151743 0)
(0.00191633 -0.00133127 0)
(0.0017481 -0.00119941 0)
(0.00155677 -0.00111979 0)
(0.00135509 -0.00109134 0)
(0.0011564 -0.00110858 0)
(0.000971798 -0.00117301 0)
(0.000813529 -0.0012957 0)
(0.000697136 -0.00148981 0)
(0.00064086 -0.00174884 0)
(0.000668025 -0.00207245 0)
(0.000801477 -0.00245845 0)
(0.00105187 -0.00289983 0)
(0.00142784 -0.00339291 0)
(0.00194729 -0.003923 0)
(0.00261636 -0.00444827 0)
(0.00343539 -0.0049473 0)
(0.00440487 -0.00539564 0)
(0.00551497 -0.00577189 0)
(0.00674948 -0.00604924 0)
(0.00808091 -0.00619831 0)
(0.0094738 -0.00619449 0)
(0.0108859 -0.00602181 0)
(0.0122695 -0.00566869 0)
(0.0135731 -0.00512693 0)
(0.0147439 -0.0043945 0)
(0.0157298 -0.00348307 0)
(0.0164871 -0.00241737 0)
(0.0169787 -0.00123423 0)
(0.0171749 2.78301e-05 0)
(0.0170559 0.00131843 0)
(0.0166189 0.00257552 0)
(0.0158866 0.00372759 0)
(0.0148991 0.00467773 0)
(0.013737 0.00535822 0)
(0.0125064 0.00576566 0)
(0.0113152 0.00597307 0)
(0.0102846 0.00611223 0)
(0.00945866 0.00640725 0)
(0.00875286 0.00711721 0)
(0.00794526 0.00847795 0)
(0.0066908 0.0106263 0)
(0.0047391 0.0134495 0)
(0.00141097 0.0126895 0)
(-0.00144021 0.0156227 0)
(-0.00466888 0.0159252 0)
(-0.00606591 0.0117481 0)
(-0.00664412 0.00884045 0)
(-0.00687472 0.00722549 0)
(-0.00722662 0.00661625 0)
(-0.00796465 0.00662989 0)
(-0.00911694 0.00681336 0)
(-0.0105269 0.00681887 0)
(-0.0120031 0.00645599 0)
(-0.0133703 0.00567649 0)
(-0.0144818 0.00454113 0)
(-0.0152483 0.0031248 0)
(-0.0156313 0.00151868 0)
(-0.0156247 -0.000140922 0)
(-0.0152193 -0.00174649 0)
(-0.0144533 -0.00323908 0)
(-0.0133958 -0.00458336 0)
(-0.0120902 -0.00573998 0)
(-0.0105952 -0.00666103 0)
(-0.00897403 -0.00733281 0)
(-0.00728753 -0.00775888 0)
(-0.00559471 -0.00795393 0)
(-0.00395695 -0.00794165 0)
(-0.00242131 -0.00773923 0)
(-0.00101563 -0.00737998 0)
(0.000222888 -0.00689465 0)
(0.0012782 -0.00631295 0)
(0.00214552 -0.00566136 0)
(0.00281309 -0.00497518 0)
(0.00328149 -0.00429246 0)
(0.00356906 -0.00363096 0)
(0.00369547 -0.0030163 0)
(0.00367998 -0.00246034 0)
(0.0035469 -0.00197934 0)
(0.00331523 -0.00158647 0)
(0.00300719 -0.00128044 0)
(0.00264626 -0.00105196 0)
(0.00224953 -0.00089019 0)
(0.00182735 -0.000791042 0)
(0.00139523 -0.000757861 0)
(0.00096938 -0.000787992 0)
(0.000561398 -0.000877749 0)
(0.000183076 -0.00104205 0)
(-0.000141003 -0.0012903 0)
(-0.000393141 -0.00162624 0)
(-0.000551151 -0.00205502 0)
(-0.000584798 -0.00256562 0)
(-0.000478209 -0.0031436 0)
(-0.000222342 -0.00378495 0)
(0.000207294 -0.00446675 0)
(0.000820545 -0.00516276 0)
(0.00161314 -0.00583162 0)
(0.00259404 -0.0064492 0)
(0.00375512 -0.00697746 0)
(0.00507775 -0.00738408 0)
(0.00653322 -0.00763067 0)
(0.00808281 -0.00768194 0)
(0.00967771 -0.00751614 0)
(0.0112614 -0.00711616 0)
(0.0127739 -0.00646903 0)
(0.0141535 -0.00557188 0)
(0.0153394 -0.00444495 0)
(0.0162799 -0.00312005 0)
(0.0169275 -0.0016425 0)
(0.0172385 -5.26599e-05 0)
(0.0171774 0.00158246 0)
(0.0167261 0.00318765 0)
(0.0158918 0.00464883 0)
(0.0147007 0.00583761 0)
(0.0132472 0.0066636 0)
(0.0116777 0.00709486 0)
(0.0101568 0.0071834 0)
(0.00890311 0.00708085 0)
(0.00804543 0.00711509 0)
(0.00754005 0.00773679 0)
(0.00714708 0.00933189 0)
(0.00637578 0.0121331 0)
(0.00478338 0.0160663 0)
(0.00148284 0.0156849 0)
(-0.00150052 0.0185472 0)
(-0.00453059 0.0181161 0)
(-0.00523901 0.0125339 0)
(-0.00505026 0.00896662 0)
(-0.00475039 0.00736193 0)
(-0.00497078 0.00717761 0)
(-0.00597437 0.00772356 0)
(-0.00768221 0.00833784 0)
(-0.00975731 0.00853679 0)
(-0.0118628 0.00812696 0)
(-0.0137438 0.007112 0)
(-0.0152127 0.00561126 0)
(-0.016181 0.00376863 0)
(-0.0166319 0.00171705 0)
(-0.0165776 -0.000387126 0)
(-0.0160395 -0.00240609 0)
(-0.0150725 -0.00426331 0)
(-0.0137573 -0.00590575 0)
(-0.0121567 -0.00728696 0)
(-0.0103493 -0.00837344 0)
(-0.00842006 -0.0091404 0)
(-0.00643537 -0.00959433 0)
(-0.00446891 -0.00975389 0)
(-0.00258896 -0.00964891 0)
(-0.000848413 -0.00930593 0)
(0.000710118 -0.00877212 0)
(0.00205453 -0.00809294 0)
(0.00316965 -0.00729905 0)
(0.00405001 -0.00642829 0)
(0.00468798 -0.00552409 0)
(0.00509168 -0.00462905 0)
(0.00527775 -0.00377943 0)
(0.00526767 -0.00299905 0)
(0.005094 -0.00229806 0)
(0.00478485 -0.00169754 0)
(0.00436182 -0.00120579 0)
(0.00385006 -0.000828842 0)
(0.00327729 -0.000553343 0)
(0.00266527 -0.000364498 0)
(0.00202646 -0.000253875 0)
(0.00137628 -0.000217942 0)
(0.000737178 -0.000259613 0)
(0.000120899 -0.000375767 0)
(-0.000456656 -0.000582787 0)
(-0.000971368 -0.000892767 0)
(-0.00141048 -0.00132033 0)
(-0.00174424 -0.00186564 0)
(-0.00193795 -0.00252052 0)
(-0.00196949 -0.00326303 0)
(-0.00181618 -0.00408422 0)
(-0.00146357 -0.00495553 0)
(-0.000891697 -0.00585375 0)
(-9.08167e-05 -0.0067296 0)
(0.000943973 -0.00755266 0)
(0.00220604 -0.00827904 0)
(0.00366874 -0.00885548 0)
(0.00530592 -0.00923782 0)
(0.00707624 -0.00937595 0)
(0.00892228 -0.00924014 0)
(0.0107771 -0.00880517 0)
(0.0125737 -0.00805926 0)
(0.0142413 -0.00699471 0)
(0.0157043 -0.00563471 0)
(0.0168937 -0.00401743 0)
(0.0177483 -0.00220258 0)
(0.0182034 -0.00021759 0)
(0.0182051 0.00184753 0)
(0.0177058 0.00389022 0)
(0.0166738 0.00577917 0)
(0.0151365 0.00732687 0)
(0.0131965 0.0083997 0)
(0.0110326 0.0089036 0)
(0.00889142 0.00879918 0)
(0.00712667 0.00828888 0)
(0.00603678 0.00779488 0)
(0.0056823 0.00804302 0)
(0.00579944 0.00968028 0)
(0.00572481 0.0131355 0)
(0.00472977 0.0184208 0)
(0.00156406 0.0187254 0)
(-0.00154868 0.0213663 0)
(-0.00416657 0.0197204 0)
(-0.00385791 0.0124406 0)
(-0.00267238 0.00833744 0)
(-0.0017953 0.00715182 0)
(-0.00203943 0.00790575 0)
(-0.00358553 0.00938561 0)
(-0.00617127 0.0106421 0)
(-0.00922675 0.0110733 0)
(-0.0122127 0.0105015 0)
(-0.0147923 0.00907893 0)
(-0.0167313 0.00701817 0)
(-0.0179485 0.00457381 0)
(-0.0184756 0.00193769 0)
(-0.0183628 -0.000715333 0)
(-0.0176513 -0.00324424 0)
(-0.0164243 -0.00553871 0)
(-0.014788 -0.00753044 0)
(-0.0128334 -0.00916991 0)
(-0.0106517 -0.0104306 0)
(-0.0083406 -0.0112849 0)
(-0.00599319 -0.0117474 0)
(-0.00369121 -0.0118485 0)
(-0.00151016 -0.0116123 0)
(0.000484705 -0.0110806 0)
(0.002243 -0.0103209 0)
(0.00373234 -0.00939031 0)
(0.00493651 -0.00833563 0)
(0.00585055 -0.00720004 0)
(0.00647899 -0.0060331 0)
(0.00683091 -0.00488763 0)
(0.00692362 -0.00381432 0)
(0.00678785 -0.00284013 0)
(0.00645502 -0.00197844 0)
(0.00596518 -0.00123973 0)
(0.00534671 -0.000644327 0)
(0.00462661 -0.000186018 0)
(0.00384124 0.000146052 0)
(0.00301678 0.00037054 0)
(0.00217492 0.000496918 0)
(0.00132703 0.000528339 0)
(0.000487954 0.000474223 0)
(-0.000328353 0.000323388 0)
(-0.00110649 6.72047e-05 0)
(-0.00181984 -0.000315227 0)
(-0.00244519 -0.000837914 0)
(-0.00295328 -0.00151154 0)
(-0.00330551 -0.00232549 0)
(-0.00347038 -0.00325978 0)
(-0.00342281 -0.00429658 0)
(-0.00313358 -0.00540519 0)
(-0.00257706 -0.00654943 0)
(-0.00174678 -0.00768241 0)
(-0.000635896 -0.00875621 0)
(0.000759626 -0.00972151 0)
(0.00240722 -0.0105112 0)
(0.00427567 -0.0110729 0)
(0.00632413 -0.0113335 0)
(0.00848543 -0.0112603 0)
(0.0106815 -0.0108113 0)
(0.0128378 -0.00997172 0)
(0.0148731 -0.00873936 0)
(0.0166911 -0.00712768 0)
(0.0182034 -0.00517759 0)
(0.0193317 -0.00295198 0)
(0.0199757 -0.000496962 0)
(0.0200477 0.00211373 0)
(0.0194973 0.00473849 0)
(0.018235 0.0072188 0)
(0.0162399 0.00933125 0)
(0.0136376 0.0108215 0)
(0.0106129 0.0114704 0)
(0.00754752 0.011138 0)
(0.00497725 0.00999164 0)
(0.00339817 0.00860489 0)
(0.00307805 0.00801527 0)
(0.00375184 0.00931865 0)
(0.00458517 0.0133622 0)
(0.00449149 0.0202742 0)
(0.00164414 0.0217293 0)
(-0.00156558 0.0239543 0)
(-0.00358497 0.0204412 0)
(-0.00211897 0.0112192 0)
(-5.98649e-06 0.00688795 0)
(0.00123308 0.00673394 0)
(0.000691646 0.00903347 0)
(-0.00166464 0.0119028 0)
(-0.00531442 0.0140218 0)
(-0.00950727 0.0146815 0)
(-0.0134906 0.0137605 0)
(-0.0168174 0.0116842 0)
(-0.0192386 0.0088331 0)
(-0.0206683 0.00556801 0)
(-0.0212056 0.0021547 0)
(-0.0209626 -0.00119516 0)
(-0.0200103 -0.00432268 0)
(-0.0184457 -0.00712465 0)
(-0.0164011 -0.00952669 0)
(-0.0139989 -0.0114652 0)
(-0.0113485 -0.0129088 0)
(-0.00856907 -0.0138408 0)
(-0.00578095 -0.0142857 0)
(-0.0030757 -0.0142878 0)
(-0.000535552 -0.0138806 0)
(0.00176447 -0.0131079 0)
(0.00376752 -0.0120643 0)
(0.0054374 -0.0108234 0)
(0.00675736 -0.00944929 0)
(0.00772153 -0.00799802 0)
(0.00834246 -0.00651634 0)
(0.00864084 -0.00507905 0)
(0.00863733 -0.00373614 0)
(0.00836339 -0.00253323 0)
(0.00786365 -0.00147947 0)
(0.00717744 -0.000585825 0)
(0.0063473 0.000129655 0)
(0.00541603 0.000677319 0)
(0.00441415 0.00106936 0)
(0.00337192 0.001329 0)
(0.00230897 0.00147218 0)
(0.00124977 0.00150148 0)
(0.000201655 0.00142499 0)
(-0.000827553 0.00123629 0)
(-0.00181136 0.000921113 0)
(-0.00272713 0.000454317 0)
(-0.00355671 -0.000178064 0)
(-0.00425819 -0.000987795 0)
(-0.0047786 -0.00198112 0)
(-0.00508609 -0.00313641 0)
(-0.00514278 -0.00442574 0)
(-0.00491647 -0.00581277 0)
(-0.00437491 -0.00725711 0)
(-0.00349853 -0.00870555 0)
(-0.00228162 -0.0100917 0)
(-0.000723042 -0.0113498 0)
(0.0011413 -0.0124047 0)
(0.00329218 -0.0131878 0)
(0.0056794 -0.0136203 0)
(0.00822588 -0.0136415 0)
(0.0108515 -0.0132065 0)
(0.0134537 -0.012289 0)
(0.0159373 -0.0108847 0)
(0.0181963 -0.00900305 0)
(0.0201242 -0.00668072 0)
(0.0215981 -0.00396918 0)
(0.022505 -0.000928557 0)
(0.022736 0.00235974 0)
(0.0221829 0.00575553 0)
(0.02073 0.00904231 0)
(0.0182919 0.0119579 0)
(0.0149527 0.0141013 0)
(0.010957 0.0150413 0)
(0.00678561 0.0144947 0)
(0.00315922 0.0124904 0)
(0.000823904 0.00974792 0)
(0.000262023 0.00771723 0)
(0.00132245 0.00814389 0)
(0.00306732 0.0125489 0)
(0.00406475 0.0213861 0)
(0.00171846 0.0245892 0)
(-0.00157763 0.0262367 0)
(-0.00300348 0.0202416 0)
(-0.000703046 0.00901164 0)
(0.00168077 0.00494963 0)
(0.00259565 0.00645829 0)
(0.00128166 0.0108392 0)
(-0.00204174 0.0154457 0)
(-0.00668139 0.0185386 0)
(-0.011828 0.0193236 0)
(-0.0165751 0.0178781 0)
(-0.0204011 0.0148697 0)
(-0.0231101 0.0109627 0)
(-0.024624 0.00664026 0)
(-0.0250481 0.00227271 0)
(-0.0245259 -0.00191511 0)
(-0.0231893 -0.00575184 0)
(-0.0211757 -0.00914044 0)
(-0.0186087 -0.0120002 0)
(-0.0156304 -0.0142667 0)
(-0.0123873 -0.0159007 0)
(-0.00902309 -0.0168995 0)
(-0.00568771 -0.0172982 0)
(-0.00249024 -0.0171509 0)
(0.000480539 -0.0165113 0)
(0.00314446 -0.0154379 0)
(0.00543795 -0.0140402 0)
(0.00731927 -0.0124166 0)
(0.00877121 -0.0106527 0)
(0.00979819 -0.00881754 0)
(0.0104139 -0.00697251 0)
(0.0106465 -0.00518988 0)
(0.0105303 -0.00353389 0)
(0.0101039 -0.00205454 0)
(0.00941374 -0.000772676 0)
(0.00850845 0.000295746 0)
(0.0074445 0.00114884 0)
(0.00626859 0.00178877 0)
(0.00502096 0.00223544 0)
(0.00373754 0.0025178 0)
(0.00244108 0.00266473 0)
(0.00114824 0.00269541 0)
(-0.000131895 0.00260092 0)
(-0.00139181 0.00237603 0)
(-0.00261372 0.00200499 0)
(-0.00376479 0.00145157 0)
(-0.0048127 0.000690138 0)
(-0.00572764 -0.000281262 0)
(-0.00644785 -0.00147467 0)
(-0.00691484 -0.00288225 0)
(-0.00709069 -0.00446365 0)
(-0.00693385 -0.00618065 0)
(-0.00640575 -0.00798234 0)
(-0.00548008 -0.00980557 0)
(-0.00414288 -0.0115689 0)
(-0.00238932 -0.0131979 0)
(-0.000255204 -0.0145929 0)
(0.00223246 -0.015651 0)
(0.00503293 -0.0163085 0)
(0.00805694 -0.0164676 0)
(0.0112011 -0.0160804 0)
(0.0143543 -0.015107 0)
(0.0173965 -0.0135222 0)
(0.0202013 -0.0113446 0)
(0.0226461 -0.00860308 0)
(0.0245873 -0.00535155 0)
(0.0258862 -0.00163017 0)
(0.0264119 0.00246504 0)
(0.0260114 0.00681303 0)
(0.0245303 0.0111575 0)
(0.0218439 0.0151521 0)
(0.0179646 0.0182123 0)
(0.0131529 0.0196775 0)
(0.00797966 0.0189799 0)
(0.00326918 0.0160098 0)
(-3.83607e-05 0.0115392 0)
(-0.00126306 0.00752284 0)
(-0.000406361 0.00644881 0)
(0.00174244 0.0107634 0)
(0.00359551 0.0216632 0)
(0.00176422 0.0272385 0)
(-0.00157613 0.0282803 0)
(-0.00284161 0.0195252 0)
(-0.000771941 0.00664964 0)
(0.000584559 0.00349522 0)
(0.00012634 0.00708171 0)
(-0.00247701 0.0136592 0)
(-0.00679874 0.0199579 0)
(-0.012104 0.0238601 0)
(-0.0176326 0.02459 0)
(-0.0225566 0.0224621 0)
(-0.0264045 0.0183237 0)
(-0.029008 0.0131538 0)
(-0.0302935 0.00759127 0)
(-0.0303628 0.00212419 0)
(-0.0293814 -0.00300738 0)
(-0.0274895 -0.00766165 0)
(-0.0248451 -0.0117243 0)
(-0.0215887 -0.0150955 0)
(-0.0178799 -0.0177177 0)
(-0.0138928 -0.0195443 0)
(-0.00980632 -0.0205915 0)
(-0.00578998 -0.0209006 0)
(-0.00197255 -0.0205361 0)
(0.00153389 -0.0195801 0)
(0.00464032 -0.0181246 0)
(0.00728507 -0.0162903 0)
(0.00942345 -0.0142005 0)
(0.0110396 -0.0119614 0)
(0.0121394 -0.00966168 0)
(0.0127524 -0.00738355 0)
(0.0129154 -0.00519908 0)
(0.0126678 -0.00318213 0)
(0.0120602 -0.00138453 0)
(0.0111494 0.000153933 0)
(0.00999801 0.00142287 0)
(0.00866923 0.00242051 0)
(0.00721999 0.00315537 0)
(0.00569755 0.00365583 0)
(0.00414217 0.00396267 0)
(0.00258464 0.0041134 0)
(0.00103361 0.0041324 0)
(-0.000515925 0.00401907 0)
(-0.00204249 0.00376661 0)
(-0.00352709 0.00334373 0)
(-0.0049512 0.00270573 0)
(-0.00626583 0.00181753 0)
(-0.00742039 0.000653316 0)
(-0.00836293 -0.000779253 0)
(-0.00902101 -0.00247698 0)
(-0.00933269 -0.0044041 0)
(-0.00925774 -0.00650861 0)
(-0.00874454 -0.00873086 0)
(-0.00775361 -0.0109979 0)
(-0.0062769 -0.0132183 0)
(-0.0042991 -0.0152981 0)
(-0.00182842 -0.017118 0)
(0.00108125 -0.0185464 0)
(0.00437977 -0.0194916 0)
(0.00798194 -0.0198534 0)
(0.0117605 -0.0195517 0)
(0.0155957 -0.018535 0)
(0.0193349 -0.0167644 0)
(0.022824 -0.0142722 0)
(0.025917 -0.0110739 0)
(0.0284623 -0.00721603 0)
(0.0303335 -0.00274372 0)
(0.031381 0.0022624 0)
(0.031398 0.00769578 0)
(0.0302117 0.0132883 0)
(0.0276608 0.0185853 0)
(0.0237135 0.0228224 0)
(0.018614 0.0250605 0)
(0.0129245 0.02441 0)
(0.00742205 0.0205505 0)
(0.00304647 0.0143483 0)
(0.000554923 0.00810322 0)
(0.000180073 0.00505241 0)
(0.00159507 0.00867493 0)
(0.00344914 0.0213396 0)
(0.00181088 0.0297092 0)
(-0.00161095 0.0304279 0)
(-0.00362673 0.0193072 0)
(-0.0033456 0.00567324 0)
(-0.00455544 0.00399246 0)
(-0.0075098 0.00958348 0)
(-0.0118984 0.0178639 0)
(-0.0171476 0.0252308 0)
(-0.0226826 0.0294488 0)
(-0.0279388 0.0298165 0)
(-0.0323762 0.0268111 0)
(-0.0356626 0.0214612 0)
(-0.0376878 0.0149566 0)
(-0.038391 0.00811103 0)
(-0.0378253 0.00145325 0)
(-0.0361609 -0.00471943 0)
(-0.0335145 -0.010259 0)
(-0.0300323 -0.0150529 0)
(-0.0258801 -0.0189959 0)
(-0.0212397 -0.021999 0)
(-0.01632 -0.024018 0)
(-0.0113307 -0.0250768 0)
(-0.00645585 -0.0252305 0)
(-0.00185767 -0.0245662 0)
(0.00233018 -0.0231995 0)
(0.00600907 -0.021259 0)
(0.00911039 -0.0188866 0)
(0.0115913 -0.0162304 0)
(0.0134374 -0.0134135 0)
(0.0146606 -0.0105564 0)
(0.0153005 -0.00775594 0)
(0.0154035 -0.0051002 0)
(0.0150246 -0.00266321 0)
(0.0142253 -0.000504627 0)
(0.0130757 0.00132657 0)
(0.0116535 0.00282089 0)
(0.0100322 0.00397653 0)
(0.00828237 0.00481237 0)
(0.00646286 0.0053647 0)
(0.00461442 0.00569082 0)
(0.00276387 0.00584551 0)
(0.000920322 0.00585504 0)
(-0.00091462 0.00572748 0)
(-0.00273716 0.00545344 0)
(-0.00453698 0.00498347 0)
(-0.00627425 0.00425239 0)
(-0.00789927 0.00321887 0)
(-0.00934482 0.00184779 0)
(-0.0105342 0.0001375 0)
(-0.0113955 -0.00190065 0)
(-0.0118533 -0.00423425 0)
(-0.0118472 -0.00679557 0)
(-0.0113253 -0.00951292 0)
(-0.0102439 -0.0123062 0)
(-0.00858197 -0.0150816 0)
(-0.00631243 -0.0177086 0)
(-0.00343313 -0.0200535 0)
(1.28972e-06 -0.021963 0)
(0.00392006 -0.023292 0)
(0.0082283 -0.0239246 0)
(0.012787 -0.0237613 0)
(0.0174567 -0.0227231 0)
(0.0220428 -0.0207826 0)
(0.0263743 -0.0179596 0)
(0.0303126 -0.0142762 0)
(0.0336801 -0.00977144 0)
(0.0363283 -0.00449944 0)
(0.0381215 0.00149141 0)
(0.0388651 0.0080789 0)
(0.0383754 0.0150018 0)
(0.0364933 0.0217113 0)
(0.0331435 0.0272918 0)
(0.0284907 0.0305342 0)
(0.0229511 0.0302716 0)
(0.0171236 0.0259671 0)
(0.0117125 0.018528 0)
(0.00739514 0.0104108 0)
(0.00467871 0.00533169 0)
(0.00376861 0.00765553 0)
(0.00413398 0.0213462 0)
(0.00191093 0.0322918 0)
(-0.00175164 0.033312 0)
(-0.0057261 0.0210368 0)
(-0.00877436 0.00773162 0)
(-0.0138038 0.00769203 0)
(-0.0200104 0.0146416 0)
(-0.0265194 0.0236091 0)
(-0.0327022 0.0310523 0)
(-0.0382275 0.0348552 0)
(-0.0429034 0.0344285 0)
(-0.046523 0.0303528 0)
(-0.0489194 0.02381 0)
(-0.0500494 0.0159904 0)
(-0.0499063 0.00787607 0)
(-0.0485028 1.88461e-05 0)
(-0.0459307 -0.00724661 0)
(-0.0423019 -0.0137547 0)
(-0.037764 -0.0193532 0)
(-0.0324822 -0.0239198 0)
(-0.0266624 -0.0273307 0)
(-0.0205667 -0.0295348 0)
(-0.0144366 -0.0305566 0)
(-0.00847746 -0.0304848 0)
(-0.00287588 -0.0294334 0)
(0.00221104 -0.0275479 0)
(0.00666681 -0.0250029 0)
(0.0104052 -0.0219628 0)
(0.013388 -0.0186066 0)
(0.0156009 -0.0150873 0)
(0.0170525 -0.0115595 0)
(0.017799 -0.00813442 0)
(0.017901 -0.00491478 0)
(0.0174307 -0.00198213 0)
(0.0164588 0.000594568 0)
(0.0150769 0.00276588 0)
(0.0133827 0.00451271 0)
(0.0114635 0.00583983 0)
(0.00940745 0.00677724 0)
(0.00728533 0.00738096 0)
(0.00514944 0.00772194 0)
(0.00301848 0.00787601 0)
(0.00088687 0.00788605 0)
(-0.00125252 0.00776116 0)
(-0.00339978 0.0074716 0)
(-0.00554959 0.00695605 0)
(-0.0076486 0.00613798 0)
(-0.00961405 0.00494539 0)
(-0.0113631 0.00333747 0)
(-0.0128152 0.00129531 0)
(-0.0138827 -0.00115952 0)
(-0.0144648 -0.00397015 0)
(-0.0144903 -0.00706824 0)
(-0.0139033 -0.0103788 0)
(-0.0126595 -0.0138045 0)
(-0.0107216 -0.0172437 0)
(-0.00804855 -0.0205327 0)
(-0.00463553 -0.0235161 0)
(-0.000533275 -0.0260153 0)
(0.00416723 -0.0278441 0)
(0.00934406 -0.028831 0)
(0.0148537 -0.0288666 0)
(0.0205322 -0.0278413 0)
(0.0261541 -0.0257478 0)
(0.0315403 -0.0225866 0)
(0.0365314 -0.018382 0)
(0.0409337 -0.0132231 0)
(0.0446089 -0.00715033 0)
(0.0474136 -0.000182368 0)
(0.0491648 0.00756477 0)
(0.0497317 0.0158252 0)
(0.0489559 0.0239364 0)
(0.0467311 0.030904 0)
(0.0431088 0.035374 0)
(0.0382592 0.035974 0)
(0.0324737 0.0320371 0)
(0.0261129 0.024355 0)
(0.0196291 0.0153338 0)
(0.0136606 0.00871035 0)
(0.00899083 0.00939117 0)
(0.00614596 0.0230484 0)
(0.00210323 0.0355743 0)
(-0.00206629 0.0376755 0)
(-0.00908176 0.0260601 0)
(-0.016463 0.0139647 0)
(-0.0259342 0.0153169 0)
(-0.0357281 0.0226085 0)
(-0.0445912 0.0309928 0)
(-0.0519484 0.0373907 0)
(-0.0577395 0.0399805 0)
(-0.0621136 0.0383115 0)
(-0.0651268 0.0330167 0)
(-0.0668183 0.0252255 0)
(-0.0671752 0.0161383 0)
(-0.0661441 0.00673667 0)
(-0.0637688 -0.00234976 0)
(-0.0601266 -0.0107908 0)
(-0.0553097 -0.0183616 0)
(-0.0494577 -0.0248707 0)
(-0.0427751 -0.0301215 0)
(-0.0354925 -0.0339862 0)
(-0.027925 -0.0363783 0)
(-0.0203601 -0.0373166 0)
(-0.0130223 -0.0369452 0)
(-0.00611083 -0.0354133 0)
(0.000179855 -0.0328894 0)
(0.00571137 -0.0295983 0)
(0.0103723 -0.0257336 0)
(0.0141049 -0.0215213 0)
(0.0168881 -0.0171447 0)
(0.0187456 -0.0128047 0)
(0.0197514 -0.00861981 0)
(0.0199738 -0.0047206 0)
(0.0195057 -0.00119519 0)
(0.0184377 0.00187928 0)
(0.0168781 0.00445252 0)
(0.0149473 0.00649212 0)
(0.0127639 0.00800994 0)
(0.0104426 0.00904927 0)
(0.00806915 0.00968973 0)
(0.00569911 0.0100347 0)
(0.00334848 0.0101849 0)
(0.000991213 0.0102069 0)
(-0.00140608 0.0101069 0)
(-0.00386202 0.0098386 0)
(-0.00635368 0.00930239 0)
(-0.00880979 0.00839764 0)
(-0.0111337 0.00703137 0)
(-0.013211 0.00514009 0)
(-0.0149217 0.00270233 0)
(-0.0161433 -0.000249211 0)
(-0.0167742 -0.0036353 0)
(-0.0167493 -0.00737272 0)
(-0.0159979 -0.0113948 0)
(-0.0144689 -0.0155777 0)
(-0.0121039 -0.019807 0)
(-0.00885263 -0.0239117 0)
(-0.00472584 -0.0276768 0)
(0.000227671 -0.0308962 0)
(0.00591905 -0.0333311 0)
(0.0121891 -0.0347682 0)
(0.0188716 -0.0350622 0)
(0.0257762 -0.034108 0)
(0.0326549 -0.0318762 0)
(0.0393462 -0.0283692 0)
(0.0456339 -0.0236561 0)
(0.0513046 -0.0178154 0)