/*--------------------------------*- C++ -*----------------------------------*\
| =========                 |                                                 |
| \\      /  F ield         | OpenFOAM: The Open Source CFD Toolbox           |
|  \\    /   O peration     | Version:  2412                                  |
|   \\  /    A nd           | Website:  www.openfoam.com                      |
|    \\/     M anipulation  |                                                 |
\*---------------------------------------------------------------------------*/
FoamFile
{
    version     2.0;
    format      ascii;
    arch        "LSB;label=32;scalar=64";
    class       volScalarField;
    location    "7.9";
    object      alpha.honey;
}
// * * * * * * * * * * * * * * * * * * * * * * * * * * * * * * * * * * * * * //

dimensions      [0 0 0 0 0 0 0];

internalField   nonuniform List<scalar> 
6400
(
1
0.999999
0.999999
0.999999
1
1
1
1
1
1
1
0.999999
0.999999
0.999999
0.999999
0.999999
0.999999
0.999999
0.999999
0.999999
0.999999
0.999999
0.999999
0.999999
0.999999
0.999999
0.999999
0.999999
0.999999
0.999999
0.999999
0.999999
0.999999
0.999999
0.999999
0.999999
0.999999
0.999999
0.999999
0.999999
0.999999
0.999999
0.999999
0.999999
1
1
1
1
1
1
0.999999
0.999999
0.999999
0.999998
0.999998
0.999999
1
1
1
1
1
1
1
1
1
0.999999
0.999999
0.999999
0.999999
0.999999
0.999999
0.999999
1
1
1
1
1
1
1
1
0.999999
0.999998
0.999998
0.999998
0.999998
0.999998
0.999998
0.999998
0.999998
0.999998
0.999998
0.999998
0.999998
0.999998
0.999998
0.999998
0.999998
0.999998
0.999998
0.999998
0.999998
0.999998
0.999998
0.999998
0.999998
0.999998
0.999999
0.999999
0.999999
0.999999
0.999998
0.999998
0.999998
0.999998
0.999998
0.999998
0.999998
0.999999
0.999999
0.999999
0.999999
1
1
1
1
1
1
1
0.999999
0.999999
0.999998
0.999998
0.999998
0.999998
0.999998
0.999998
0.999998
0.999998
0.999999
0.999999
0.999999
0.999999
0.999999
0.999999
0.999998
0.999998
0.999998
0.999997
0.999997
0.999998
0.999998
0.999998
0.999999
0.999999
0.999999
0.999999
0.999999
0.999999
1
0.999999
0.999999
0.999999
0.999999
0.999998
0.999999
0.999999
0.999999
0.999999
0.999998
0.999998
0.999998
0.999998
0.999998
0.999998
0.999998
0.999998
0.999998
0.999998
0.999998
0.999998
0.999998
0.999998
0.999998
0.999998
0.999998
0.999998
0.999998
0.999998
0.999998
0.999998
0.999998
0.999998
0.999998
0.999998
0.999998
0.999998
0.999998
0.999998
0.999998
0.999998
0.999998
0.999998
0.999998
0.999998
0.999998
0.999998
0.999999
0.999999
0.999999
0.999999
0.999999
0.999999
0.999999
0.999998
0.999997
0.999997
0.999997
0.999998
0.999998
0.999999
0.999999
0.999999
0.999999
0.999999
0.999998
0.999998
0.999998
0.999998
0.999998
0.999998
0.999998
0.999999
0.999999
0.999999
0.999999
0.999999
0.999999
0.999999
0.999999
0.999999
0.999999
0.999999
0.999998
0.999998
0.999998
0.999998
0.999998
0.999998
0.999998
0.999998
0.999998
0.999998
0.999998
0.999998
0.999998
0.999998
0.999998
0.999998
0.999998
0.999998
0.999998
0.999998
0.999998
0.999998
0.999998
0.999998
0.999998
0.999998
0.999998
0.999998
0.999998
0.999998
0.999998
0.999998
0.999998
0.999998
0.999998
0.999998
0.999998
0.999998
0.999998
0.999997
0.999997
0.999997
0.999997
0.999997
0.999997
0.999998
0.999998
0.999999
0.999999
0.999999
0.999999
0.999999
0.999998
0.999998
0.999997
0.999998
0.999998
0.999999
0.999999
0.999999
0.999998
0.999998
0.999998
0.999998
0.999998
0.999998
0.999998
0.999998
0.999999
0.999999
0.999999
0.999999
0.999999
0.999999
0.999999
0.999999
0.999999
0.999999
0.999999
0.999999
0.999999
0.999998
0.999999
0.999999
0.999999
0.999999
0.999999
0.999999
0.999999
0.999999
0.999998
0.999998
0.999998
0.999998
0.999998
0.999999
0.999999
0.999999
0.999999
0.999999
0.999998
0.999998
0.999998
0.999998
0.999998
0.999998
0.999998
0.999998
0.999998
0.999998
0.999998
0.999998
0.999998
0.999998
0.999998
0.999998
0.999997
0.999997
0.999997
0.999996
0.999996
0.999996
0.999996
0.999996
0.999997
0.999997
0.999998
0.999998
0.999998
0.999999
0.999999
1
1
0.999999
0.999998
0.999998
0.999998
0.999998
0.999998
0.999998
0.999998
0.999998
0.999998
0.999998
0.999999
0.999999
0.999999
0.999999
0.999999
0.999999
0.999999
0.999999
0.999999
0.999999
0.999999
0.999999
0.999999
0.999999
0.999999
0.999999
0.999999
0.999998
0.999998
0.999999
0.999999
0.999999
0.999999
0.999999
0.999999
0.999999
0.999999
0.999999
0.999999
0.999999
0.999999
0.999999
0.999999
0.999999
0.999999
0.999999
0.999999
0.999998
0.999998
0.999998
0.999998
0.999997
0.999998
0.999998
0.999998
0.999998
0.999998
0.999998
0.999998
0.999998
0.999998
0.999997
0.999997
0.999997
0.999996
0.999996
0.999996
0.999996
0.999996
0.999996
0.999996
0.999996
0.999997
0.999997
0.999998
0.999999
0.999999
1
1
1
0.999999
0.999998
0.999998
0.999998
0.999998
0.999998
0.999998
0.999998
0.999999
0.999999
0.999999
0.999999
0.999999
0.999999
0.999999
0.999999
0.999999
0.999999
0.999999
0.999999
0.999999
0.999999
1
0.999999
0.999999
0.999999
0.999999
0.999998
0.999999
0.999999
0.999999
0.999999
0.999999
0.999999
0.999999
0.999999
0.999999
0.999999
0.999999
0.999999
0.999999
0.999999
0.999999
0.999999
0.999999
0.999999
0.999999
0.999998
0.999998
0.999998
0.999998
0.999998
0.999998
0.999998
0.999998
0.999998
0.999998
0.999998
0.999998
0.999997
0.999997
0.999997
0.999997
0.999997
0.999997
0.999997
0.999997
0.999996
0.999997
0.999996
0.999996
0.999996
0.999996
0.999997
0.999998
0.999998
0.999999
0.999999
0.999999
0.999999
0.999999
0.999998
0.999998
0.999998
0.999998
0.999998
0.999999
0.999999
0.999999
0.999999
0.999999
0.999999
0.999999
0.999999
0.999999
0.999999
0.999999
0.999999
0.999999
0.999999
0.999999
0.999999
0.999999
0.999999
0.999999
0.999999
0.999999
0.999998
0.999999
0.999999
0.999999
0.999999
0.999999
0.999999
0.999999
0.999999
0.999999
0.999999
0.999999
0.999999
0.999999
0.999999
0.999999
0.999999
0.999999
0.999999
0.999999
0.999998
0.999998
0.999998
0.999998
0.999998
0.999998
0.999998
0.999998
0.999998
0.999998
0.999997
0.999997
0.999997
0.999997
0.999997
0.999997
0.999997
0.999997
0.999997
0.999997
0.999997
0.999997
0.999997
0.999997
0.999997
0.999997
0.999997
0.999997
0.999998
0.999998
0.999999
0.999999
0.999999
0.999998
0.999998
0.999998
0.999998
0.999998
0.999999
0.999999
0.999999
0.999999
0.999999
0.999999
0.999999
0.999999
0.999999
0.999999
0.999999
0.999999
0.999999
0.999999
0.999999
0.999999
0.999999
0.999999
0.999999
0.999999
0.999999
0.999999
0.999999
0.999999
0.999999
0.999999
0.999999
0.999999
0.999999
0.999999
0.999999
0.999999
0.999999
0.999999
0.999999
0.999999
0.999999
0.999999
0.999999
0.999999
0.999999
0.999998
0.999998
0.999998
0.999998
0.999998
0.999998
0.999998
0.999998
0.999998
0.999998
0.999997
0.999997
0.999996
0.999996
0.999996
0.999997
0.999997
0.999997
0.999998
0.999998
0.999998
0.999998
0.999999
0.999998
0.999999
0.999998
0.999998
0.999997
0.999997
0.999997
0.999998
0.999998
0.999999
0.999999
0.999999
0.999998
0.999998
0.999999
0.999999
0.999999
0.999999
0.999999
0.999999
0.999999
0.999999
0.999999
0.999999
0.999999
0.999999
0.999999
0.999999
0.999999
0.999999
0.999999
0.999999
0.999999
0.999999
0.999999
0.999999
0.999999
0.999999
0.999999
0.999999
0.999999
0.999999
0.999999
0.999999
0.999999
0.999999
0.999999
0.999999
0.999999
0.999999
0.999999
0.999999
0.999999
0.999999
0.999999
0.999999
0.999998
0.999998
0.999998
0.999998
0.999998
0.999998
0.999998
0.999998
0.999998
0.999998
0.999997
0.999997
0.999996
0.999996
0.999996
0.999996
0.999996
0.999997
0.999998
0.999998
0.999999
0.999999
0.999999
0.999999
0.999999
0.999998
0.999999
0.999998
0.999997
0.999996
0.999996
0.999996
0.999998
0.999999
0.999999
0.999999
0.999999
0.999999
0.999999
0.999999
0.999999
0.999999
0.999999
0.999999
0.999999
0.999999
0.999999
0.999999
0.999999
0.999999
0.999999
0.999999
0.999999
0.999999
0.999999
0.999999
0.999999
0.999999
0.999999
0.999999
0.999999
0.999999
0.999999
0.999999
0.999999
0.999999
0.999999
0.999999
0.999999
0.999999
0.999999
0.999999
0.999999
0.999999
0.999999
0.999999
0.999999
0.999999
0.999999
0.999998
0.999998
0.999998
0.999998
0.999998
0.999998
0.999998
0.999998
0.999998
0.999997
0.999997
0.999997
0.999996
0.999996
0.999996
0.999996
0.999996
0.999997
0.999997
0.999998
0.999999
0.999999
0.999999
0.999999
0.999999
0.999997
0.999997
0.999997
0.999998
0.999997
0.999997
0.999996
0.999996
0.999997
0.999998
0.999999
0.999999
0.999999
0.999999
0.999999
0.999999
0.999999
0.999999
0.999999
0.999999
0.999999
0.999999
0.999999
0.999999
0.999999
0.999999
0.999999
0.999999
0.999999
0.999999
0.999999
0.999999
0.999999
0.999999
0.999999
0.999999
0.999999
0.999999
0.999999
0.999999
0.999999
1
1
1
1
1
1
1
1
1
1
0.999999
0.999999
0.999999
0.999999
0.999998
0.999998
0.999998
0.999998
0.999998
0.999998
0.999998
0.999998
0.999998
0.999997
0.999997
0.999996
0.999996
0.999996
0.999996
0.999996
0.999997
0.999997
0.999997
0.999997
0.999997
0.999997
0.999997
0.999997
0.999997
0.999997
0.999996
0.999997
0.999997
0.999998
0.999998
0.999998
0.999997
0.999997
0.999998
0.999999
0.999999
0.999999
0.999999
0.999999
0.999998
0.999999
0.999999
0.999999
0.999999
0.999999
0.999999
1
1
1
1
1
1
1
1
1
1
1
1
1
0.999999
0.999999
1
1
1
1
1
1
1
1
1
1
1
1
1
1
1
1
0.999999
0.999999
0.999999
0.999999
0.999998
0.999998
0.999998
0.999998
0.999998
0.999998
0.999997
0.999997
0.999996
0.999996
0.999996
0.999996
0.999996
0.999996
0.999996
0.999996
0.999995
0.999994
0.999993
0.999993
0.999993
0.999994
0.999995
0.999996
0.999997
0.999997
0.999998
0.999997
0.999998
0.999998
0.999998
0.999998
0.999998
0.999998
0.999999
0.999999
0.999999
0.999999
0.999999
0.999999
0.999999
0.999999
1
1
1
1
1
1
1
1
1
1
1
1
1
1
1
1
1
1
1
1
1
1
1
1
1
1
1
1
1
1
1
1
1
1
1
0.999999
0.999999
0.999999
0.999999
0.999999
0.999999
0.999998
0.999998
0.999998
0.999998
0.999997
0.999997
0.999996
0.999996
0.999996
0.999996
0.999995
0.999995
0.999993
0.999991
0.999989
0.999989
0.999989
0.999989
0.999991
0.999992
0.999994
0.999995
0.999997
0.999996
0.999996
0.999995
0.999996
0.999997
0.999998
0.999998
0.999999
0.999999
0.999999
0.999999
0.999999
0.999999
0.999999
0.999999
1
1
1
1
1
1
1
1
1
1
1
1
1
1
1
1
1
1
1
1
1
1
1
1
1
1
1
1
1
1
1
1
1
1
1
1
1
1
1
0.999999
0.999999
0.999999
0.999999
0.999999
0.999999
0.999998
0.999998
0.999997
0.999997
0.999996
0.999997
0.999996
0.999996
0.999994
0.999993
0.999991
0.99999
0.999988
0.999988
0.999989
0.999989
0.999992
0.999991
0.999992
0.999993
0.999995
0.999995
0.999996
0.999996
0.999997
0.999997
0.999998
0.999999
1
1
1
1
1
1
1
1
1
1
1
1
1
1
1
1
1
1
1
1
1
1
1
1
1
0.999999
1
1
1
1
1
1
1
1
1
1
1
1
1
1
1
1
1
1
1
1
1
1
1
0.999999
0.999999
0.999998
0.999998
0.999997
0.999997
0.999997
0.999998
0.999997
0.999998
0.999997
0.999996
0.999994
0.999994
0.999993
0.999992
0.999993
0.999994
0.999996
0.999997
0.999998
0.999996
0.999997
0.999996
0.999997
0.999996
0.999996
0.999996
0.999997
0.999998
0.999999
0.999999
1
1
1
1
1
1
1
1
1
1
1
1
1
1
1
1
1
1
1
1
1
1
1
1
0.999998
0.999999
0.999999
0.999999
0.999999
0.999999
0.999999
0.999999
0.999999
0.999999
0.999999
1
1
1
1
1
1
1
1
0.999999
0.999999
0.999999
0.999999
0.999999
0.999998
0.999998
0.999997
0.999996
0.999996
0.999996
0.999997
0.999997
0.999999
0.999999
1
0.999998
0.999997
0.999995
0.999995
0.999995
0.999996
1
1
1.00001
1.00001
1.00001
1
1
0.999999
0.999999
0.999997
0.999997
0.999997
0.999998
0.999998
0.999999
0.999999
0.999999
0.999999
0.999999
0.999999
0.999999
1
1
1
1
1
0.999999
0.999999
0.999999
0.999999
0.999999
0.999999
0.999999
0.999999
0.999999
0.999999
0.999999
1
1
0.999998
0.999999
0.999998
0.999998
0.999998
0.999998
0.999998
0.999998
0.999998
0.999998
0.999998
0.999998
0.999998
0.999998
0.999998
0.999998
0.999998
0.999998
0.999998
0.999998
0.999998
0.999998
0.999998
0.999998
0.999997
0.999997
0.999996
0.999996
0.999995
0.999996
0.999995
0.999998
0.999999
0.999999
1
0.999999
0.999997
0.999996
0.999995
0.999995
0.999997
1
1
1
1
1
1
0.999999
1
0.999998
0.999999
0.999998
0.999999
0.999998
0.999999
0.999998
0.999999
0.999998
0.999998
0.999998
0.999998
0.999998
0.999998
0.999998
0.999998
0.999998
0.999997
0.999997
0.999997
0.999997
0.999997
0.999997
0.999997
0.999997
0.999997
0.999998
0.999998
0.999998
1
1
1
1
1
1
0.999999
0.999999
0.999999
0.999999
0.999999
0.999999
0.999998
0.999998
0.999998
0.999998
0.999998
0.999997
0.999997
0.999997
0.999997
0.999997
0.999997
0.999997
0.999997
0.999997
0.999997
0.999997
0.999998
0.999997
0.999997
0.999997
0.999997
0.999998
0.999999
0.999999
1
0.999998
0.999995
0.999405
0.997252
0.997165
0.999327
0.999998
0.999999
0.999999
1
1
1
1
1
0.999998
0.999997
0.999998
0.999997
0.999998
0.999998
0.999998
0.999998
0.999998
0.999998
0.999998
0.999998
0.999998
0.999998
0.999998
0.999998
0.999998
0.999998
0.999999
0.999999
0.999999
0.999999
0.999999
0.999999
0.999999
0.999999
1
0.999999
1
1
1
1
1
1
1
1
1
1
1
1
1
1
1
1
1
0.999999
0.999999
0.999999
0.999999
1
1
1
1
1
1
1
1
1
0.999961
0.998454
0.994329
0.986757
0.974465
0.955011
0.92499
0.862604
0.764956
0.652131
0.564433
0.519023
0.517953
0.562037
0.648137
0.761085
0.859714
0.923796
0.954221
0.973979
0.986458
0.994157
0.998377
0.999948
1
1
1
1
1
1
1
1
1
0.999999
0.999999
0.999999
0.999999
1
1
1
1
1
1
1
1
1
1
1
1
1
1
1
0.0129069
0.0201621
0.0255531
0.030041
0.0337443
0.0369125
0.0397428
0.0423785
0.0449291
0.0474803
0.0500974
0.0528301
0.0557149
0.0587759
0.0620263
0.0654685
0.0690924
0.0728748
0.0767761
0.0807373
0.0846759
0.0884789
0.0919967
0.095034
0.0973403
0.0985898
0.0983844
0.0962109
0.0914578
0.0847223
0.0760128
0.0646604
0.0500382
0.0311695
0.00742186
2.15132e-06
2.81867e-06
0.0041317
0.0110649
0.0127608
0.0131584
0.0114462
0.00360415
3.15562e-06
2.43152e-06
0.00671909
0.0305198
0.0495669
0.0643078
0.0757591
0.0845453
0.0913428
0.0961761
0.0984176
0.0986724
0.0974579
0.0951751
0.0921532
0.0886441
0.0848452
0.0809072
0.0769439
0.0730392
0.0692521
0.0656227
0.0621748
0.0589183
0.0558514
0.0529608
0.0502222
0.0475993
0.0450425
0.042486
0.0398442
0.0370073
0.0338313
0.0301189
0.0256197
0.0202149
0.0129401
6.22167e-09
2.17993e-09
5.51917e-09
9.05635e-09
1.26795e-08
1.63864e-08
2.01144e-08
2.38481e-08
2.75944e-08
3.13621e-08
3.51521e-08
3.89481e-08
4.27104e-08
4.63633e-08
4.97916e-08
5.2823e-08
5.52368e-08
5.67432e-08
5.7026e-08
5.57267e-08
5.25569e-08
4.72911e-08
3.99716e-08
3.08287e-08
2.10381e-08
1.14598e-08
3.80472e-09
1.25798e-10
3.47761e-10
5.19288e-10
6.52457e-10
8.47121e-10
1.27751e-09
3.27277e-09
6.81729e-09
6.69975e-07
0.0531051
0.219871
0.321706
0.319949
0.320114
0.323348
0.22383
0.0561114
7.76241e-07
8.43002e-09
4.35056e-09
1.97085e-09
1.27759e-09
9.18482e-10
7.15815e-10
5.18128e-10
2.93378e-10
3.64521e-09
1.12956e-08
2.09834e-08
3.0968e-08
4.01036e-08
4.74734e-08
5.28172e-08
5.60707e-08
5.74354e-08
5.71892e-08
5.56944e-08
5.32744e-08
5.02227e-08
4.67652e-08
4.3079e-08
3.92823e-08
3.54526e-08
3.16294e-08
2.78274e-08
2.40455e-08
2.02772e-08
1.65174e-08
1.27834e-08
9.14543e-09
5.56527e-09
2.20076e-09
6.26489e-09
1.19469e-11
1.71806e-12
5.66351e-12
1.06106e-11
1.61797e-11
2.22927e-11
2.87077e-11
3.56197e-11
4.29927e-11
5.06944e-11
5.8614e-11
6.6563e-11
7.42662e-11
8.12032e-11
8.65334e-11
8.89601e-11
8.66755e-11
7.73755e-11
5.88323e-11
2.93834e-11
-1.03987e-11
-1.33991e-11
-1.36127e-11
-1.17095e-11
5.61252e-13
8.71005e-13
1.65892e-11
5.38643e-11
9.41012e-10
2.82288e-09
3.09932e-09
5.36241e-07
2.39835e-06
3.26356e-06
1.31679e-06
4.38013e-07
0.0266721
0.318893
0.401989
0.401989
0.401989
0.401989
0.330212
0.0297042
4.96588e-07
1.52233e-06
3.46656e-06
2.45938e-06
5.56187e-07
1.97249e-08
2.05897e-08
3.58825e-09
2.33467e-10
3.45658e-11
1.46991e-12
3.47354e-13
2.35749e-13
2.16837e-13
1.48117e-13
1.35388e-13
4.48536e-11
9.68597e-11
1.32918e-10
1.48055e-10
1.49151e-10
1.40695e-10
1.2758e-10
1.13756e-10
1.00296e-10
8.73052e-11
7.47213e-11
6.25736e-11
5.09351e-11
3.99074e-11
2.94728e-11
1.77375e-11
1.17317e-11
6.32821e-12
1.97408e-12
1.64982e-11
3.11564e-14
2.6842e-15
9.32196e-15
1.796e-14
2.87546e-14
4.20016e-14
5.7683e-14
7.60576e-14
9.74389e-14
1.22092e-13
1.5019e-13
1.81645e-13
2.15804e-13
2.50923e-13
2.83377e-13
3.06446e-13
3.10092e-13
2.79826e-13
2.04472e-13
9.15353e-14
3.36255e-14
1.04453e-13
1.11844e-13
1.64861e-13
5.02576e-13
6.50709e-13
8.74656e-13
1.65892e-11
5.38642e-11
8.76159e-09
8.5036e-07
3.29611e-06
1.78674e-05
2.29187e-05
1.58261e-05
3.22248e-07
4.38013e-07
0.0624727
0.401988
0.401989
0.401989
0.401989
0.0726093
4.96588e-07
3.47683e-07
1.58259e-05
2.40845e-05
2.18687e-05
7.04064e-06
2.37179e-06
7.93017e-08
1.66544e-10
3.46238e-11
1.67116e-12
3.9367e-13
3.41345e-13
2.92678e-13
2.06945e-13
1.44848e-13
1.35388e-13
1.45338e-13
5.9206e-13
7.29481e-13
7.39532e-13
6.86368e-13
6.02514e-13
5.11425e-13
4.26547e-13
3.52272e-13
2.88466e-13
2.3389e-13
1.87331e-13
1.47671e-13
1.13863e-13
8.4966e-14
6.00301e-14
3.66325e-14
1.79234e-14
4.92583e-15
4.44366e-14
9.35729e-17
5.5875e-18
1.98805e-17
3.92818e-17
6.5447e-17
1.00423e-16
1.46184e-16
2.05351e-16
2.81499e-16
3.78976e-16
5.02885e-16
6.58548e-16
8.5005e-16
1.07693e-15
1.32755e-15
1.56697e-15
1.72216e-15
1.67257e-15
1.33605e-15
2.47216e-15
2.99087e-14
2.4706e-13
5.17625e-12
2.21502e-11
2.45412e-11
8.74656e-13
9.50754e-11
1.99249e-09
7.85432e-10
4.80641e-07
4.8733e-06
5.28372e-06
4.92862e-06
2.75599e-06
2.3787e-07
3.05472e-07
3.22248e-07
0.0095731
0.31414
0.357649
0.359476
0.323171
0.0131438
3.47683e-07
3.27062e-07
1.19225e-07
5.5922e-06
1.01955e-05
1.0446e-05
9.19085e-06
1.06834e-06
2.72012e-09
1.74132e-08
2.21286e-09
1.66049e-12
3.94014e-13
1.1676e-11
8.79189e-12
1.51172e-12
1.38681e-13
1.34047e-14
1.02177e-14
1.02678e-14
8.77038e-15
6.8366e-15
5.18486e-15
3.86568e-15
2.86483e-15
2.12446e-15
1.57551e-15
1.16432e-15
8.53896e-16
6.18373e-16
4.38981e-16
3.01981e-16
1.97627e-16
1.19402e-16
6.0808e-17
1.78704e-17
1.29275e-16
3.41519e-18
2.41075e-20
9.64676e-20
1.59381e-19
2.13877e-19
2.88317e-19
4.44092e-19
6.64909e-19
9.77215e-19
1.41798e-18
2.03874e-18
2.90883e-18
4.1124e-18
5.73055e-18
7.79707e-18
1.01806e-17
1.23752e-17
1.35819e-17
3.39844e-17
1.54087e-15
1.07154e-14
2.62479e-13
2.99869e-12
1.41894e-11
5.38781e-11
1.05657e-07
2.64848e-07
2.65019e-07
2.55249e-07
8.1056e-09
2.04718e-10
5.53593e-10
5.45068e-10
7.02497e-10
7.4151e-08
6.97003e-07
7.52929e-07
0.000843699
1.44279e-11
0.012777
0.0134359
0.00301451
0.000935732
6.04986e-07
6.26401e-07
1.04455e-07
2.59859e-09
2.63568e-09
2.76269e-09
9.80488e-10
9.80488e-10
9.86731e-07
1.33161e-06
1.32794e-06
4.38188e-07
1.04349e-11
9.34283e-12
5.14537e-12
1.03274e-12
6.27477e-14
6.28564e-15
5.20919e-15
4.43387e-15
3.13574e-15
1.93671e-15
1.19295e-15
7.34532e-16
4.53435e-16
2.83894e-16
1.80728e-16
1.16512e-16
7.56571e-17
4.91912e-17
3.17727e-17
2.01463e-17
1.23064e-17
7.01951e-18
3.44806e-18
9.80321e-19
5.06311e-18
1.24899e-20
1.49991e-22
1.17027e-21
1.31376e-21
1.12289e-21
1.71565e-21
2.53016e-21
3.64918e-21
5.19787e-21
7.35585e-21
1.03832e-20
1.51004e-20
2.35136e-20
3.63023e-20
5.50477e-20
8.04179e-20
1.10634e-19
1.96687e-19
7.14895e-18
2.11183e-16
1.07298e-14
3.03284e-13
1.62545e-12
4.07094e-11
1.48191e-08
2.24493e-07
2.65019e-07
1.34263e-07
8.22536e-11
9.23381e-11
1.54813e-10
2.54902e-10
5.42418e-10
8.1556e-08
7.00508e-07
1.96471e-06
8.56422e-06
6.16507e-05
1.44279e-11
1.43693e-11
1.7953e-11
2.4702e-11
2.80816e-11
8.3447e-07
9.60779e-07
6.94352e-07
2.24868e-08
6.47811e-09
1.50661e-08
1.21295e-08
1.82191e-09
4.77038e-10
8.19636e-08
5.73149e-07
3.35426e-07
3.71031e-09
3.81586e-11
2.96067e-12
7.58428e-13
4.0107e-14
1.13254e-15
3.87009e-16
2.39084e-16
1.27051e-16
5.99384e-17
2.87321e-17
1.41023e-17
7.08375e-18
3.67978e-18
1.97922e-18
1.0957e-18
6.1992e-19
3.55876e-19
2.05502e-19
1.17943e-19
6.60645e-20
3.50499e-20
1.62651e-20
4.46982e-21
2.16245e-20
3.7141e-23
1.30588e-24
7.25344e-24
1.10183e-23
1.12606e-23
9.48904e-24
1.21008e-23
1.91506e-23
3.03704e-23
4.84404e-23
7.80329e-23
1.27436e-22
2.11489e-22
3.57166e-22
6.11275e-22
9.26709e-22
1.44342e-21
5.59643e-21
1.97344e-19
1.20669e-17
1.25109e-15
4.8136e-14
7.22352e-13
2.26636e-11
1.32848e-08
1.80307e-07
2.09707e-07
8.22536e-11
7.21518e-11
1.14006e-10
1.49901e-10
1.32282e-10
1.10559e-10
3.32638e-07
6.41331e-07
4.17462e-07
9.70082e-08
1.36821e-11
1.44161e-11
4.54342e-11
9.45599e-11
1.12684e-10
1.05856e-10
1.06528e-10
1.1783e-10
8.53706e-11
1.38424e-09
2.46231e-08
2.80254e-08
2.8001e-08
1.05637e-08
1.91291e-10
7.56175e-11
6.12093e-08
1.23002e-07
2.26523e-08
2.15376e-11
1.14924e-12
4.00636e-13
1.54705e-14
2.09112e-16
9.8587e-18
3.2384e-18
1.38952e-18
5.70785e-19
2.34491e-19
1.00964e-19
4.54847e-20
2.14672e-20
1.05869e-20
5.41545e-21
2.85095e-21
1.53317e-21
8.35059e-22
4.5535e-22
2.44278e-22
1.25205e-22
5.64779e-23
1.53366e-23
7.51116e-23
1.36365e-25
7.84507e-27
3.81052e-26
6.86329e-26
9.29665e-26
1.04379e-25
1.06682e-25
1.10146e-25
1.77624e-25
3.11557e-25
5.57329e-25
1.01769e-24
1.9002e-24
3.63132e-24
7.01309e-24
1.15241e-23
1.46982e-23
9.21988e-23
5.53586e-21
3.69729e-19
2.90136e-17
1.93044e-15
1.05997e-13
4.72093e-12
9.26618e-09
4.0653e-08
2.59988e-08
7.20813e-11
6.81587e-11
1.64435e-10
1.5615e-10
1.29408e-10
1.09372e-10
5.53741e-11
3.62888e-11
2.99463e-11
2.86344e-11
2.79335e-11
3.98278e-11
6.66529e-11
1.34103e-10
1.57883e-10
1.57883e-10
1.32342e-10
8.57357e-11
8.51419e-11
8.51419e-11
8.51419e-11
9.21529e-11
1.00312e-10
3.3391e-10
2.35063e-10
2.15024e-11
7.56175e-11
1.14233e-08
7.54909e-09
1.84749e-10
1.64314e-12
9.75272e-14
2.17793e-15
3.22239e-17
4.84222e-19
5.49813e-20
1.93913e-20
7.29404e-21
2.67388e-21
1.02197e-21
4.12336e-22
1.75525e-22
7.86088e-23
3.6782e-23
1.78486e-23
8.91785e-24
4.55009e-24
2.34442e-24
1.19927e-24
5.91644e-25
2.59059e-25
6.90742e-26
3.24115e-25
5.44495e-28
4.2342e-29
1.95342e-28
3.89491e-28
6.28847e-28
9.01411e-28
1.14969e-27
1.42846e-27
1.72475e-27
2.2533e-27
4.05907e-27
8.19285e-27
1.70383e-26
3.65227e-26
7.99811e-26
1.52681e-25
1.66047e-25
4.93779e-25
2.96797e-23
4.32584e-21
6.22613e-19
7.97624e-17
6.54678e-15
4.61189e-11
1.61506e-09
1.29056e-10
5.53001e-11
6.72694e-11
6.79448e-11
7.79095e-11
8.17606e-11
1.58252e-10
4.18478e-10
6.29061e-10
7.12244e-10
2.98566e-10
6.61235e-11
2.34944e-11
2.21344e-11
3.98939e-11
1.20374e-10
1.48955e-10
1.34319e-10
1.28788e-10
1.24583e-10
1.01644e-10
1.18982e-10
1.71561e-10
1.98489e-10
1.55216e-10
1.13133e-10
6.42398e-11
1.76638e-11
2.13457e-11
4.10447e-11
6.02824e-10
4.09098e-11
4.46093e-13
7.87116e-15
1.4542e-16
2.28464e-18
2.92207e-20
1.29489e-21
3.37292e-22
1.10073e-22
3.54984e-23
1.18886e-23
4.24454e-24
1.61497e-24
6.52475e-25
2.77953e-25
1.23917e-25
5.73992e-26
2.73985e-26
1.33288e-26
6.49827e-27
3.08424e-27
1.31055e-27
3.42815e-28
1.53024e-27
2.3103e-30
2.25605e-31
1.01842e-30
2.17873e-30
3.92851e-30
6.62443e-30
1.05531e-29
1.59875e-29
2.39481e-29
3.73183e-29
6.09074e-29
1.0388e-28
2.07367e-28
4.8699e-28
1.48033e-27
5.28437e-27
2.9314e-27
5.21389e-27
7.01278e-26
7.99218e-24
1.00901e-21
1.05296e-19
9.10739e-17
2.61165e-12
2.85232e-11
1.03556e-11
1.51507e-11
6.26067e-11
5.97511e-11
5.33363e-11
5.02156e-11
5.66728e-11
9.87976e-11
7.04631e-10
1.32947e-09
1.29691e-09
6.03621e-10
8.76685e-11
2.21344e-11
2.76039e-11
1.04822e-10
1.11178e-10
7.14753e-11
8.35097e-11
1.09551e-10
1.90744e-10
2.67319e-10
1.81874e-10
7.58288e-11
4.96494e-11
3.26014e-11
1.95666e-11
1.44557e-11
1.38348e-11
5.36705e-12
2.11886e-11
2.10354e-12
2.05664e-14
3.03656e-16
5.36833e-18
8.40892e-20
1.14054e-21
3.20859e-23
6.04474e-24
1.69414e-24
4.81868e-25
1.42546e-25
4.53209e-26
1.54974e-26
5.6758e-27
2.21068e-27
9.08884e-28
3.91615e-28
1.75401e-28
8.07736e-29
3.76117e-29
1.72028e-29
7.10272e-30
1.82422e-30
7.71839e-30
1.02952e-32
1.21696e-33
5.44408e-33
1.23173e-32
2.40875e-32
4.53641e-32
8.42212e-32
1.54743e-31
2.83918e-31
5.21959e-31
1.03446e-30
2.21017e-30
5.26529e-30
1.4349e-29
4.61468e-29
1.86169e-28
8.19723e-28
2.78063e-28
8.43699e-28
7.01278e-26
7.99218e-24
1.00901e-21
1.05296e-19
1.83111e-14
7.1036e-13
3.2542e-12
6.84537e-12
2.27318e-11
2.91739e-11
2.75426e-11
2.58579e-11
2.8506e-11
5.22485e-11
1.00039e-10
4.09252e-10
1.25527e-09
1.19098e-09
2.62573e-10
2.49379e-11
2.00857e-11
9.49373e-11
9.44866e-11
6.17818e-11
1.0673e-10
1.91115e-10
2.24372e-10
1.7137e-10
5.27608e-11
2.5105e-11
1.57281e-11
1.07626e-11
7.99591e-12
6.12473e-12
3.27966e-12
2.12933e-12
7.30902e-13
3.59566e-14
4.15605e-16
7.39913e-18
1.31482e-19
2.06585e-21
2.89694e-23
7.18914e-25
1.05992e-25
2.57842e-26
6.51456e-27
1.72222e-27
4.92314e-28
1.52467e-28
5.09452e-29
1.82407e-29
6.94786e-30
2.79574e-30
1.17897e-30
5.15431e-31
2.29779e-31
1.01467e-31
4.07664e-32
1.02897e-32
4.11182e-32
4.76652e-35
6.68073e-36
2.9821e-35
7.07912e-35
1.47982e-34
3.03466e-34
6.28222e-34
1.33097e-33
2.89933e-33
6.52833e-33
1.56114e-32
4.00039e-32
1.12456e-31
3.58568e-31
1.33098e-30
5.85631e-30
3.53017e-29
2.04558e-28
3.98642e-29
8.43699e-28
1.04253e-25
1.37979e-22
8.38998e-19
4.41573e-16
2.70373e-14
2.6023e-13
9.52347e-13
2.25779e-12
4.64044e-12
5.69443e-12
6.3358e-12
9.29971e-12
2.32539e-11
6.20342e-11
1.00744e-10
1.51887e-10
5.97598e-10
3.31291e-10
3.50948e-11
1.24354e-11
8.65972e-11
9.10048e-11
6.35135e-11
1.34557e-10
1.76461e-10
1.63989e-10
6.75129e-11
1.9291e-11
7.50222e-12
3.90126e-12
2.56145e-12
1.89073e-12
1.10407e-12
3.75802e-13
1.84253e-13
2.07571e-14
6.23477e-16
8.51495e-18
1.43575e-19
2.55028e-21
3.91057e-23
5.52061e-25
1.37862e-26
1.77803e-27
3.81924e-28
8.6469e-29
2.0662e-29
5.36309e-30
1.51653e-30
4.65502e-31
1.54116e-31
5.46603e-32
2.06299e-32
8.22147e-33
3.42309e-33
1.46479e-33
6.2578e-34
2.45036e-34
6.08421e-35
2.28915e-34
2.27028e-37
3.72838e-38
1.66728e-37
4.13173e-37
9.15402e-37
2.0173e-36
4.55854e-36
1.07416e-35
2.66581e-35
7.01909e-35
1.97874e-34
6.03001e-34
2.01576e-33
7.51782e-33
3.16665e-32
1.50869e-31
8.35303e-31
8.1193e-30
2.6801e-29
1.94871e-28
3.81932e-26
7.57623e-24
5.77081e-20
8.80526e-18
6.13701e-16
6.14507e-15
3.09507e-14
6.84784e-14
1.77709e-13
3.27015e-13
7.32665e-13
2.35257e-12
9.06869e-12
3.6196e-11
6.97561e-11
6.50581e-11
1.14311e-10
8.6184e-11
2.89187e-11
8.34986e-12
7.73614e-11
9.07636e-11
5.75217e-11
1.01017e-10
1.16575e-10
8.86353e-11
2.75544e-11
6.30646e-12
1.61501e-12
5.06321e-13
2.30267e-13
1.43395e-13
6.23412e-14
1.2819e-14
3.47887e-15
4.65316e-16
1.30562e-17
1.78566e-19
2.83317e-21
4.45794e-23
6.25938e-25
8.62969e-27
2.28306e-28
2.8061e-29
5.42048e-30
1.11172e-30
2.42859e-31
5.78169e-32
1.50557e-32
4.27657e-33
1.31751e-33
4.37489e-34
1.55603e-34
5.88396e-35
2.34109e-35
9.64301e-36
3.99446e-36
1.52696e-36
3.73352e-37
1.31913e-36
1.10252e-39
2.10737e-40
9.46383e-40
2.43953e-39
5.69585e-39
1.33802e-38
3.26197e-38
8.39661e-38
2.3073e-37
6.81696e-37
2.18534e-36
7.64273e-36
2.9352e-35
1.24426e-34
5.83219e-34
3.0114e-33
1.71108e-32
1.12792e-31
1.38917e-30
8.53122e-30
1.1853e-27
1.60897e-25
4.35899e-22
1.30742e-19
9.10645e-18
8.92304e-17
4.17623e-16
9.89773e-16
2.58855e-15
1.4898e-14
1.19744e-13
7.11237e-13
3.41106e-12
1.55573e-11
4.17573e-11
5.17555e-11
4.38503e-11
3.04613e-11
1.74039e-11
7.15416e-12
6.61637e-11
9.97081e-11
4.3223e-11
6.48031e-11
7.04839e-11
4.10586e-11
1.10192e-11
2.36421e-12
4.81665e-13
7.85669e-14
1.12508e-14
2.59625e-15
7.68809e-16
1.24839e-16
4.79293e-17
8.18694e-18
2.34396e-19
3.23421e-21
5.02212e-23
7.45911e-25
9.65373e-27
1.20981e-28
3.356e-30
4.11127e-31
7.27516e-32
1.36912e-32
2.76586e-33
6.10054e-34
1.47579e-34
3.90879e-35
1.12798e-35
3.52696e-36
1.18806e-36
4.28092e-37
1.63354e-37
6.49605e-38
2.61525e-38
9.77697e-39
2.35654e-39
7.80056e-39
5.41496e-42
1.20054e-42
5.42201e-42
1.44985e-41
3.55235e-41
8.84491e-41
2.30873e-40
6.42616e-40
1.9271e-39
6.26621e-39
2.22613e-38
8.66716e-38
3.70997e-37
1.7435e-36
8.87935e-36
4.84498e-35
2.83507e-34
1.83122e-33
1.69934e-32
7.81507e-31
1.02635e-28
1.06693e-26
5.3434e-24
1.39744e-21
8.71183e-20
1.04703e-18
5.06997e-18
2.07075e-17
2.09715e-16
3.22417e-15
3.77162e-14
2.65839e-13
1.31578e-12
5.75466e-12
1.89582e-11
3.42264e-11
3.50901e-11
3.14242e-11
1.93982e-11
7.01335e-12
5.39877e-11
1.15819e-10
3.49241e-11
4.23329e-11
4.31173e-11
1.97874e-11
5.12581e-12
1.14429e-12
2.28215e-13
3.06521e-14
2.68677e-15
1.77898e-16
1.08296e-17
1.30967e-18
6.48048e-19
1.13179e-19
3.36102e-21
4.92424e-23
7.73063e-25
1.12625e-26
1.39946e-28
1.67542e-30
4.61158e-32
5.4968e-33
9.12141e-34
1.60103e-34
3.02489e-35
6.24349e-36
1.41556e-36
3.52291e-37
9.58713e-38
2.83944e-38
9.10491e-39
3.14003e-39
1.1534e-39
4.4418e-40
1.7422e-40
6.38111e-41
1.51779e-41
4.69685e-41
2.66851e-44
6.8721e-45
3.11635e-44
8.62535e-44
2.21017e-43
5.80678e-43
1.61377e-42
4.82383e-42
1.56564e-41
5.53504e-41
2.13455e-40
8.91678e-40
4.02703e-39
1.97245e-38
1.04562e-37
5.97096e-37
3.66118e-36
2.69861e-35
7.58874e-34
1.22557e-31
2.03617e-29
1.73809e-27
1.16425e-25
9.31154e-24
1.08052e-21
1.04419e-20
1.51596e-19
2.94058e-18
6.07058e-17
1.12786e-15
1.45256e-14
1.13385e-13
5.72345e-13
2.39696e-12
8.28891e-12
1.97475e-11
2.51675e-11
2.37196e-11
1.57596e-11
5.85751e-12
4.1682e-11
1.34455e-10
3.08277e-11
2.93704e-11
2.66012e-11
1.01427e-11
2.65791e-12
6.25374e-13
1.17664e-13
1.45889e-14
1.14221e-15
6.31855e-17
3.06117e-18
1.42699e-19
9.57872e-21
1.3121e-21
4.08232e-23
6.89213e-25
1.13549e-26
1.65939e-28
2.0335e-30
2.36211e-32
6.05923e-34
6.78122e-35
1.06727e-35
1.76962e-36
3.15519e-37
6.15114e-38
1.31855e-38
3.10738e-39
8.02882e-40
2.26587e-40
6.95233e-41
2.30503e-41
8.18119e-42
3.06061e-42
1.17245e-42
4.21502e-43
9.90458e-44
2.85928e-43
1.30841e-46
3.95747e-47
1.78136e-46
5.09395e-46
1.35829e-45
3.7359e-45
1.09052e-44
3.42257e-44
1.16364e-43
4.29814e-43
1.72749e-42
7.54132e-42
3.57437e-41
1.83743e-40
1.02099e-39
6.1128e-39
3.9153e-38
4.08665e-37
4.30329e-35
1.12055e-32
1.74953e-30
1.50507e-28
8.73631e-27
3.99328e-25
1.83973e-23
9.67945e-22
3.36203e-20
9.08161e-19
2.09873e-17
4.12591e-16
5.85642e-15
5.06354e-14
2.70408e-13
1.15191e-12
4.10105e-12
1.1366e-11
1.77764e-11
1.69426e-11
9.7827e-12
4.41063e-12
3.09755e-11
1.5365e-10
2.97195e-11
2.32774e-11
1.7073e-11
6.08201e-12
1.53871e-12
3.58011e-13
6.23443e-14
6.93831e-15
4.82917e-16
2.47085e-17
1.10104e-18
4.30325e-20
1.38888e-21
4.28974e-23
1.11572e-24
2.12145e-26
3.40959e-28
4.67501e-30
5.43099e-32
5.62176e-34
9.36817e-36
7.82574e-37
1.15611e-37
1.83099e-38
3.12055e-39
5.80638e-40
1.18537e-40
2.66488e-41
6.58172e-42
1.78058e-42
5.25508e-43
1.68252e-43
5.79207e-44
2.11158e-44
7.91996e-45
2.79984e-45
6.50695e-46
1.74855e-45