/*--------------------------------*- C++ -*----------------------------------*\
| =========                 |                                                 |
| \\      /  F ield         | OpenFOAM: The Open Source CFD Toolbox           |
|  \\    /   O peration     | Version:  2412                                  |
|   \\  /    A nd           | Website:  www.openfoam.com                      |
|    \\/     M anipulation  |                                                 |
\*---------------------------------------------------------------------------*/
FoamFile
{
    version     2.0;
    format      ascii;
    arch        "LSB;label=32;scalar=64";
    class       volScalarField;
    location    "1.3";
    object      p_rgh;
}
// * * * * * * * * * * * * * * * * * * * * * * * * * * * * * * * * * * * * * //

dimensions      [1 -1 -2 0 0 0 0];

internalField   nonuniform List<scalar> 
6400
(
12350.9
12350.9
12350.9
12350.9
12350.9
12350.9
12350.9
12350.9
12350.9
12350.9
12350.9
12350.9
12350.9
12350.9
12350.9
12350.9
12350.9
12350.9
12350.9
12350.9
12350.9
12350.9
12350.9
12350.9
12350.9
12350.9
12350.9
12350.9
12350.9
12350.9
12350.9
12350.9
12350.9
12350.9
12350.9
12350.9
12350.9
12350.9
12350.9
12350.9
12350.9
12350.9
12350.9
12350.9
12350.9
12350.9
12350.9
12350.9
12350.9
12350.9
12350.9
12350.9
12350.9
12350.9
12350.9
12350.9
12350.9
12350.9
12350.9
12350.9
12350.9
12350.9
12350.9
12350.9
12350.9
12350.9
12350.9
12350.9
12350.9
12350.9
12350.9
12350.9
12350.9
12350.9
12350.9
12350.9
12350.9
12350.9
12350.9
12350.9
12350.9
12350.9
12350.9
12350.9
12350.9
12350.9
12350.9
12350.9
12350.9
12350.9
12350.9
12350.9
12350.9
12350.9
12350.9
12350.9
12350.9
12350.9
12350.9
12350.9
12350.9
12350.9
12350.9
12350.9
12350.9
12350.9
12350.9
12350.9
12350.9
12350.9
12350.9
12350.9
12350.9
12350.9
12350.9
12350.9
12350.9
12350.9
12350.9
12350.9
12350.9
12350.9
12350.9
12350.9
12350.9
12350.9
12350.9
12350.9
12350.9
12350.9
12350.9
12350.9
12350.9
12350.9
12350.9
12350.9
12350.9
12350.9
12350.9
12350.9
12350.9
12350.9
12350.9
12350.9
12350.9
12350.9
12350.9
12350.9
12350.9
12350.9
12350.9
12350.9
12350.9
12350.9
12350.9
12350.9
12350.9
12350.9
12350.9
12350.9
12350.9
12350.9
12350.9
12350.9
12350.9
12350.9
12350.9
12350.9
12350.9
12350.9
12350.9
12350.9
12350.9
12350.9
12350.9
12350.9
12350.9
12350.9
12350.9
12350.9
12350.9
12350.9
12350.9
12350.9
12350.9
12350.9
12350.9
12350.9
12350.9
12350.9
12350.9
12350.9
12350.9
12350.9
12350.9
12350.9
12350.9
12350.9
12350.9
12350.9
12350.9
12350.9
12350.9
12350.9
12350.9
12350.9
12350.9
12350.9
12350.9
12350.9
12350.9
12350.9
12350.9
12350.9
12350.9
12350.9
12350.9
12350.9
12350.9
12350.9
12350.9
12350.9
12350.9
12350.9
12350.9
12350.9
12350.9
12350.9
12350.9
12350.9
12350.9
12350.9
12350.9
12350.9
12350.9
12350.9
12350.9
12350.9
12350.9
12350.9
12350.9
12350.9
12350.9
12350.9
12350.9
12350.9
12350.9
12350.9
12350.9
12350.9
12350.9
12350.9
12350.9
12350.9
12350.9
12350.9
12350.9
12350.9
12350.9
12350.9
12350.9
12350.9
12350.9
12350.9
12350.9
12350.9
12350.9
12350.9
12350.9
12350.9
12350.9
12350.9
12350.9
12350.9
12350.9
12350.9
12350.9
12350.9
12350.9
12350.9
12350.9
12350.9
12350.9
12350.9
12350.9
12350.9
12350.9
12350.9
12350.9
12350.9
12350.9
12350.9
12350.9
12350.9
12350.9
12350.9
12350.9
12350.9
12350.9
12350.9
12350.9
12350.9
12350.9
12350.9
12350.9
12350.9
12350.9
12350.9
12350.9
12350.9
12350.9
12350.9
12350.9
12350.9
12350.9
12350.9
12350.9
12350.9
12350.9
12350.9
12350.9
12350.9
12350.9
12350.9
12350.9
12350.9
12350.9
12350.9
12350.9
12350.9
12350.9
12350.9
12350.9
12350.9
12350.9
12350.9
12350.9
12350.9
12350.9
12350.9
12350.9
12350.9
12350.9
12350.9
12350.9
12350.9
12350.9
12350.9
12350.9
12350.9
12350.9
12350.9
12350.9
12350.9
12350.9
12350.9
12350.9
12350.9
12350.9
12350.9
12350.9
12350.9
12350.9
12350.9
12350.9
12350.9
12350.9
12350.9
12350.9
12350.9
12350.9
12350.9
12350.9
12350.9
12350.9
12350.9
12350.9
12350.9
12350.9
12350.9
12350.9
12350.9
12350.9
12350.9
12350.9
12350.9
12350.9
12350.9
12350.9
12350.9
12350.9
12350.9
12350.9
12350.9
12350.9
12350.9
12350.9
12350.9
12350.9
12350.9
12350.9
12350.9
12350.9
12350.9
12350.9
12350.9
12350.9
12350.9
12350.9
12350.9
12350.9
12350.9
12350.9
12350.9
12350.9
12350.9
12350.9
12350.9
12350.9
12350.9
12350.9
12350.9
12350.9
12350.9
12350.9
12350.9
12350.9
12350.9
12350.9
12350.9
12350.9
12350.9
12350.9
12350.9
12350.9
12350.9
12350.9
12350.9
12350.9
12350.9
12350.9
12350.9
12350.9
12350.9
12350.9
12350.9
12350.9
12350.9
12350.9
12350.9
12350.9
12350.9
12350.9
12350.9
12350.9
12350.9
12350.9
12350.9
12350.9
12350.9
12350.9
12350.9
12350.9
12350.9
12350.9
12350.9
12350.9
12350.9
12350.9
12350.9
12350.9
12350.9
12350.9
12350.9
12350.9
12350.9
12350.9
12350.9
12350.9
12350.9
12350.9
12350.9
12350.9
12350.9
12350.9
12350.9
12350.9
12350.9
12350.9
12350.9
12350.9
12350.9
12350.9
12350.9
12350.9
12350.9
12350.9
12350.9
12350.9
12350.9
12350.9
12350.9
12350.9
12350.9
12350.9
12350.9
12350.9
12350.9
12350.9
12350.9
12350.9
12350.9
12350.9
12350.9
12350.9
12350.9
12350.9
12350.9
12350.9
12350.9
12350.9
12350.9
12350.9
12350.9
12350.9
12350.9
12350.9
12350.9
12350.9
12350.9
12350.9
12350.9
12350.9
12350.9
12350.9
12350.9
12350.9
12350.9
12350.9
12350.9
12350.9
12350.9
12350.9
12350.9
12350.9
12350.9
12350.9
12350.9
12350.9
12350.9
12350.9
12350.9
12350.9
12350.9
12350.9
12350.9
12350.9
12350.9
12350.9
12350.9
12350.9
12350.9
12350.9
12350.9
12350.9
12350.9
12350.9
12350.9
12350.9
12350.9
12350.9
12350.9
12350.9
12350.9
12350.9
12350.9
12350.9
12350.9
12350.9
12350.9
12350.9
12350.9
12350.9
12350.9
12350.9
12350.9
12350.9
12350.9
12350.9
12350.9
12350.9
12350.9
12350.9
12350.9
12350.9
12350.9
12350.9
12350.9
12350.9
12350.9
12350.9
12350.9
12350.9
12350.9
12350.9
12350.9
12350.9
12350.9
12350.9
12350.9
12350.9
12350.9
12350.9
12350.9
12350.9
12350.9
12350.9
12350.9
12350.9
12350.9
12350.9
12350.9
12350.9
12350.9
12350.9
12350.9
12350.9
12350.9
12350.9
12350.9
12350.9
12350.9
12350.9
12350.9
12350.9
12350.9
12350.9
12350.9
12350.9
12350.9
12350.9
12350.9
12350.9
12350.9
12350.9
12350.9
12350.9
12350.9
12350.9
12350.9
12350.9
12350.9
12350.9
12350.9
12350.9
12350.9
12350.9
12350.9
12350.9
12350.9
12350.9
12350.9
12350.9
12350.9
12350.9
12350.9
12350.9
12350.9
12350.9
12350.9
12350.9
12350.9
12350.9
12350.9
12350.9
12350.9
12350.9
12350.9
12350.9
12350.9
12350.9
12350.9
12350.9
12350.9
12350.9
12350.9
12350.9
12350.9
12350.9
12350.9
12350.9
12350.9
12350.9
12350.9
12350.9
12350.9
12350.9
12350.9
12350.9
12350.9
12350.9
12350.9
12350.9
12350.9
12350.9
12350.9
12350.9
12350.9
12350.9
12350.9
12350.9
12350.9
12350.9
12350.9
12350.9
12350.9
12350.9
12350.9
12350.9
12350.9
12350.9
12350.9
12350.9
12350.9
12350.9
12350.9
12350.9
12350.9
12350.9
12350.9
12350.9
12350.9
12350.9
12350.9
12350.9
12350.9
12350.9
12350.9
12350.9
12350.9
12350.9
12350.9
12350.9
12350.9
12350.9
12350.9
12350.9
12350.9
12350.9
12350.9
12350.9
12350.9
12350.9
12350.9
12350.9
12350.9
12350.9
12350.9
12350.9
12350.9
12350.9
12350.9
12350.9
12350.9
12350.9
12350.9
12350.9
12350.9
12350.9
12350.9
12350.9
12350.9
12350.9
12350.9
12350.9
12350.9
12350.9
12350.9
12350.9
12350.9
12350.9
12350.9
12350.9
12350.9
12350.9
12350.9
12350.9
12350.9
12350.9
12350.9
12350.9
12350.9
12350.9
12350.9
12350.9
12350.9
12350.9
12350.9
12350.9
12350.9
12350.9
12350.9
12350.9
12350.9
12350.9
12350.9
12350.9
12350.9
12350.9
12350.9
12350.9
12350.9
12350.9
12350.9
12350.9
12350.9
12350.9
12350.9
12350.9
12350.9
12350.9
12350.9
12350.9
12350.9
12350.9
12350.9
12350.9
12350.9
12350.9
12350.9
12350.9
12350.9
12350.9
12350.9
12350.9
12350.9
12350.9
12350.9
12350.9
12350.9
12350.9
12350.9
12350.9
12350.9
12350.9
12350.9
12350.9
12350.9
12350.9
12350.9
12350.9
12350.9
12350.9
12350.9
12350.9
12350.9
12350.9
12350.9
12350.9
12350.9
12350.9
12350.9
12350.9
12350.9
12350.9
12350.9
12350.9
12350.9
12350.9
12350.9
12350.9
12350.9
12350.9
12350.9
12350.9
12350.9
12350.9
12350.9
12350.9
12350.9
12350.9
12350.9
12350.9
12350.9
12350.9
12350.9
12350.9
12350.9
12350.9
12350.9
12350.9
12350.9
12350.9
12350.9
12350.9
12350.9
12350.9
12350.9
12350.9
12350.9
12350.9
12350.9
12350.9
12350.9
12350.9
12350.9
12350.9
12350.9
12350.9
12350.9
12350.9
12350.9
12350.9
12350.9
12350.9
12350.9
12350.9
12350.9
12350.9
12350.9
12350.9
12350.9
12350.9
12350.9
12350.9
12350.9
12350.9
12350.9
12350.9
12350.9
12350.9
12350.9
12350.9
12350.9
12350.9
12350.9
12350.9
12350.9
12350.9
12350.9
12350.9
12350.9
12350.9
12350.9
12350.9
12350.9
12350.9
12350.9
12350.9
12350.9
12350.9
12350.9
12350.9
12350.9
12350.9
12350.9
12350.9
12350.9
12350.9
12350.9
12350.9
12350.9
12350.9
12350.9
12350.9
12350.9
12350.9
12350.9
12350.9
12350.9
12350.9
12350.9
12350.9
12350.9
12350.9
12350.9
12350.9
12350.9
12350.9
12350.9
12350.9
12350.9
12350.9
12350.9
12350.9
12350.9
12350.9
12350.9
12350.9
12350.9
12350.9
12350.9
12350.9
12350.9
12350.9
12350.9
12350.9
12350.9
12350.9
12350.9
12350.9
12350.9
12350.9
12350.9
12350.9
12350.9
12350.9
12350.9
12350.9
12350.9
12350.9
12350.9
12350.9
12350.9
12350.9
12350.9
12350.9
12350.9
12350.9
12350.9
12350.9
12350.9
12350.9
12350.9
12350.9
12350.9
12350.9
12350.9
12350.9
12350.9
12350.9
12350.9
12350.9
12350.9
12350.9
12350.9
12350.9
12350.9
12350.9
12350.9
12350.9
12350.9
12350.9
12350.9
12350.9
12350.9
12350.9
12350.9
12350.9
12350.9
12350.9
12350.9
12350.9
12350.9
12350.9
12350.9
12350.9
12350.9
12350.9
12350.9
12350.9
12350.9
12350.9
12350.9
12350.9
12350.9
12350.9
12350.9
12350.9
12350.9
12350.9
12350.9
12350.9
12350.9
12350.9
12350.9
12350.9
12350.9
12350.9
12350.9
12350.9
12350.9
12350.9
12350.9
12350.9
12350.9
12350.9
12350.9
12350.9
12350.9
12350.9
12350.9
12350.9
12350.9
12350.9
12350.9
12350.9
12350.9
12350.9
12350.9
12350.9
12350.9
12350.9
12350.9
12350.9
12350.9
12350.9
12350.9
12350.9
12350.9
12350.9
12350.9
12350.9
12350.9
12350.9
12350.9
12350.9
12350.9
12350.9
12350.9
12350.9
12350.9
12350.9
12350.9
12350.9
12350.9
12350.9
12350.9
12350.9
12350.9
12350.9
12350.9
12350.9
12350.9
12350.9
12350.9
12350.9
12350.9
12350.9
12350.9
12350.9
12350.9
12350.9
12350.9
12350.9
12350.9
12350.9
12350.9
12350.9
12350.9
12350.9
12350.9
12350.9
12350.9
12350.9
12350.9
12350.9
12350.9
12350.9
12350.9
12350.9
12350.9
12350.9
12350.9
12350.9
12350.9
12350.9
12350.9
12350.9
12350.9
12350.9
12350.9
12350.9
12350.9
12350.9
12350.9
12350.9
12350.9
12350.9
12350.9
12350.9
12350.9
12350.9
12350.9
12350.9
12350.9
12350.9
12350.9
12350.9
12350.9
12350.9
12350.9
12350.9
12350.9
12350.9
12350.9
12350.9
12350.9
12350.9
12350.9
12350.9
12350.9
12350.9
12350.9
12350.9
12350.9
12350.9
12350.9
12350.9
12350.9
12350.9
12350.9
12350.9
12350.9
12350.9
12350.9
12350.9
12350.9
12350.9
12350.9
12350.9
12350.9
12350.9
12350.9
12350.9
12350.9
12350.9
12350.9
12350.9
12350.9
12350.9
12350.9
12350.9
12350.9
12350.9
12350.9
12350.9
12350.9
12350.9
12350.9
12350.9
12350.9
12350.9
12350.9
12350.9
12350.9
12350.9
12350.9
12350.9
12350.9
12350.9
12350.9
12350.9
12350.9
12350.9
12350.9
12350.9
12350.9
12350.9
12350.9
12350.9
12350.9
12350.9
12350.9
12350.9
12350.9
12350.9
12350.9
12350.9
12350.9
12350.9
12350.9
12350.9
12350.9
12350.9
12350.9
12350.9
12350.9
12350.9
12350.9
12350.9
12350.9
12350.9
12350.9
12350.9
12350.9
12350.9
12350.9
12350.9
12350.9
12350.9
12350.9
12350.9
12350.9
12350.9
12350.9
12350.9
12350.9
12350.9
12350.9
12350.9
12350.9
12350.9
12350.9
12350.9
12350.9
12350.9
12350.9
12350.9
12350.9
12350.9
12350.9
12350.9
12350.9
12350.9
12350.9
12350.9
12350.9
12350.9
12350.9
12350.9
12350.9
12350.9
12350.9
12350.9
12350.9
12350.9
12350.9
12350.9
12350.9
12350.9
12350.9
12350.9
12350.9
12350.9
12350.9
12350.9
12350.9
12350.9
12350.9
12350.9
12350.9
12350.9
12350.9
12350.9
12350.9
12350.9
12350.9
12350.9
12350.9
12350.9
12350.9
12350.9
12350.9
12350.9
12350.9
12350.9
12350.9
12350.9
12350.9
12350.9
12350.9
12350.9
12350.9
12350.9
12350.9
12350.9
12350.9
12350.9
12350.9
12350.9
12350.9
12350.9
12350.9
12350.9
12350.9
12350.9
12350.9
12350.9
12350.9
12350.9
12350.9
12350.9
12350.9
12350.9
12350.9
12350.9
12350.9
12350.9
12350.9
12350.9
12350.9
12350.9
12350.9
12350.9
12350.9
12350.9
12350.9
12351
12351
12351
12350.9
12350.9
12350.9
12350.9
12350.9
12350.9
12350.9
12350.9
12350.9
12350.9
12350.9
12350.9
12350.9
12350.9
12350.9
12350.9
12350.9
12350.9
12350.9
12350.9
12350.9
12350.9
12350.9
12350.9
12350.9
12350.9
12350.9
12350.9
12350.9
12350.9
12350.9
12350.9
12350.9
12350.9
12350.9
12350.9
12350.9
12350.9
12350.9
12350.9
12350.9
12350.9
12350.9
12350.9
12350.9
12350.9
12350.9
12350.9
12350.9
12350.9
12350.9
12350.9
12350.9
12350.9
12350.9
12350.9
12350.9
12350.9
12350.9
12350.9
12350.9
12350.9
12350.9
12350.9
12350.9
12350.9
12350.9
12350.9
12350.9
12350.9
12350.9
12350.9
12350.9
12350.9
12350.9
12351
12351
12351
12351
12351
12351
12351
12351
12350.9
12350.9
12350.9
12350.9
12350.9
12350.9
12350.9
12350.9
12350.9
12350.9
12350.9
12350.9
12350.9
12350.9
12350.9
12350.9
12350.9
12350.9
12350.9
12350.9
12350.9
12350.9
12350.9
12350.9
12350.9
12350.9
12350.9
12350.9
12350.9
12350.9
12350.9
12350.9
12350.9
12350.9
12350.9
12350.9
12350.9
12350.9
12350.9
12350.9
12350.9
12350.9
12350.9
12350.9
12350.9
12350.9
12350.9
12350.9
12350.9
12350.9
12350.9
12350.9
12350.9
12350.9
12350.9
12350.9
12350.9
12350.9
12350.9
12350.9
12350.9
12350.9
12350.9
12350.9
12350.8
12350.8
12350.8
12350.8
12350.8
12350.8
12350.8
12350.8
12350.8
12350.8
12350.8
12350.8
12350.8
12350.8
12350.8
12350.8
12350.8
12350.8
12350.8
12350.8
12350.8
12350.8
12350.8
12350.8
12350.9
12350.9
12350.9
12350.9
12350.9
12350.9
12350.9
12350.9
12350.9
12350.9
12350.9
12350.9
12350.9
12350.9
12350.9
12350.9
12350.9
12350.9
12350.9
12350.9
12350.9
12350.9
12350.9
12350.9
12350.9
12350.9
12350.9
12350.9
0.127861
0.156128
0.17441
0.187264
0.195535
0.200302
0.202425
0.20253
0.201068
0.198354
0.194622
0.19004
0.184741
0.178829
0.17239
0.165488
0.158186
0.150543
0.14261
0.134423
0.126021
0.11724
0.116296
0.120416
0.125281
0.13038
0.135678
0.141129
0.146681
0.152267
0.157811
0.163227
0.168415
0.173272
0.177687
0.181551
0.184763
0.187231
0.188883
0.189669
0.189566
0.188578
0.186734
0.184089
0.180722
0.176727
0.172208
0.167274
0.162031
0.156581
0.151023
0.145442
0.139901
0.134456
0.129158
0.124063
0.119198
0.115244
0.115637
0.122031
0.131176
0.140225
0.149276
0.158229
0.166984
0.175421
0.183361
0.190657
0.197134
0.202671
0.207085
0.210254
0.211918
0.21181
0.209723
0.205208
0.19647
0.183011
0.165333
0.134096
0.0664809
0.0666098
0.0669114
0.0673964
0.0680679
0.0689262
0.0699726
0.0712097
0.0726424
0.0742779
0.0761282
0.0782059
0.0805226
0.0830888
0.0859138
0.0890033
0.0923576
0.0959679
0.0998127
0.10385
0.107994
0.112121
0.11631
0.120766
0.125534
0.130557
0.135783
0.141162
0.146635
0.152135
0.157586
0.162902
0.167986
0.172738
0.177051
0.180821
0.183949
0.18635
0.187955
0.188715
0.188609
0.187641
0.185839
0.183258
0.17997
0.176067
0.171649
0.166819
0.161679
0.156328
0.150862
0.145366
0.139906
0.134535
0.129311
0.12429
0.119527
0.115058
0.110837
0.106723
0.102646
0.0986867
0.0949579
0.0915165
0.0883687
0.0854931
0.0828587
0.0804378
0.0782135
0.0761799
0.0743388
0.0726926
0.0712453
0.0700006
0.0689575
0.0681111
0.0674567
0.06699
0.0667011
0.0665762
0.0664722
0.0666296
0.0669551
0.0674511
0.0681207
0.0689673
0.0699949
0.0712087
0.0726157
0.074224
0.0760408
0.0780739
0.0803323
0.0828249
0.085559
0.0885396
0.0917677
0.0952389
0.0989425
0.10286
0.106965
0.111234
0.115674
0.120326
0.125213
0.130324
0.135633
0.141097
0.146662
0.152262
0.157821
0.163251
0.168452
0.173319
0.177742
0.181611
0.184824
0.187289
0.188935
0.189711
0.189597
0.188596
0.186737
0.184077
0.180695
0.176682
0.172146
0.167196
0.161941
0.156477
0.150901
0.145302
0.139756
0.134311
0.129014
0.123909
0.119034
0.114401
0.109985
0.105749
0.101692
0.0978496
0.0942633
0.0909542
0.0879191
0.0851374
0.0825821
0.0802293
0.0780635
0.0760789
0.0742779
0.072668
0.0712543
0.0700374
0.0690145
0.0681804
0.0675277
0.0670486
0.0667354
0.066581
0.0662985
0.0664577
0.0667828
0.0672758
0.0679397
0.0687776
0.0697938
0.0709932
0.0723821
0.0739676
0.0757575
0.0777596
0.0799826
0.0824348
0.0851233
0.0880533
0.0912269
0.0946423
0.0982932
0.102168
0.106251
0.110535
0.115032
0.119764
0.124736
0.129937
0.135335
0.140924
0.146622
0.15237
0.158091
0.163695
0.169078
0.17413
0.178732
0.182767
0.186123
0.188702
0.190424
0.191233
0.191104
0.190042
0.18808
0.185281
0.181731
0.177533
0.172799
0.16765
0.1622
0.156555
0.15081
0.14506
0.139387
0.133841
0.128468
0.123299
0.118383
0.113737
0.109343
0.105162
0.101168
0.0973721
0.0938049
0.0904955
0.0874555
0.0846774
0.0821414
0.0798232
0.0777026
0.0757669
0.0740118
0.0724391
0.0710521
0.0698527
0.0688403
0.0680113
0.0673599
0.0668797
0.0665641
0.0664076
0.0659587
0.066117
0.0664384
0.0669244
0.0675777
0.0684014
0.0693994
0.0705766
0.0719387
0.0734927
0.0752459
0.0772063
0.0793823
0.0817822
0.0844134
0.0872824
0.0903934
0.0937485
0.0973471
0.101187
0.105263
0.109578
0.11414
0.118958
0.124036
0.129366
0.134929
0.140669
0.146558
0.152527
0.158496
0.164369
0.170036
0.175377
0.180263
0.184564
0.188154
0.19092
0.192769
0.193637
0.193495
0.192347
0.19023
0.187219
0.183411
0.178925
0.173888
0.168432
0.16269
0.156775
0.15078
0.144807
0.138951
0.133275
0.127791
0.122537
0.117551
0.112861
0.108454
0.104292
0.100336
0.0965757
0.0930308
0.0897304
0.0866964
0.0839331
0.0814279
0.0791574
0.0770962
0.0752238
0.0735279
0.0720047
0.070655
0.0694813
0.068485
0.067665
0.0670181
0.0665394
0.0662239
0.0660673
0.0654554
0.065611
0.0659259
0.0664014
0.0670397
0.067844
0.0688179
0.0699662
0.0712946
0.0728096
0.0745186
0.0764296
0.0785512
0.0808921
0.0834607
0.0862649
0.0893119
0.0926077
0.0961572
0.0999649
0.104035
0.108375
0.112994
0.117898
0.123092
0.128566
0.134304
0.140263
0.146408
0.152672
0.158974
0.165214
0.171276
0.177026
0.182321
0.18701
0.190946
0.193993
0.196039
0.197004
0.196853
0.195589
0.193258
0.189949
0.185781
0.180895
0.175438
0.169562
0.163422
0.15715
0.150838
0.144578
0.138477
0.132612
0.126994
0.121627
0.116537
0.111757
0.107295
0.103121
0.0991906
0.0954741
0.0919714
0.0887035
0.0856954
0.0829602
0.0804932
0.0782741
0.0762751
0.0744695
0.072838
0.0713708
0.0700656
0.0689245
0.0679503
0.0671443
0.0665056
0.0660313
0.0657182
0.0655631
0.0647913
0.0649427
0.0652487
0.0657103
0.0663296
0.0671095
0.0680538
0.069167
0.0704547
0.0719234
0.0735805
0.0754343
0.0774937
0.0797681
0.0822672
0.0850009
0.0879793
0.0912123
0.0947102
0.0984832
0.102543
0.1069
0.111569
0.116557
0.121871
0.127506
0.133446
0.139662
0.146117
0.152748
0.159474
0.166192
0.172776
0.179078
0.184932
0.190159
0.194578
0.198022
0.200348
0.201455
0.201296
0.199875
0.19725
0.193532
0.188872
0.183447
0.177433
0.171006
0.164345
0.157613
0.150908
0.1443
0.137894
0.131788
0.125997
0.120503
0.115301
0.110416
0.105872
0.101657
0.0977327
0.0940595
0.0906168
0.0874088
0.0844535
0.0817663
0.0793488
0.0771857
0.0752501
0.0735123
0.0719475
0.0705407
0.0692859
0.0681838
0.0672379
0.0664512
0.0658251
0.0653587
0.0650502
0.0648978
0.0639697
0.064116
0.0644109
0.0648555
0.0654518
0.0662028
0.0671118
0.0681837
0.0694237
0.0708386
0.0724358
0.0742239
0.0762123
0.0784114
0.0808323
0.0834871
0.0863888
0.0895514
0.0929899
0.0967201
0.100759
0.105124
0.109832
0.114897
0.12033
0.126132
0.132295
0.138796
0.145613
0.152684
0.159932
0.167251
0.174505
0.181528
0.188121
0.194066
0.199136
0.203115
0.205817
0.207109
0.20693
0.205288
0.202259
0.197986
0.192664
0.186524
0.179787
0.172656
0.165331
0.158014
0.150826
0.143812
0.137049
0.13066
0.124664
0.119035
0.113741
0.108781
0.104172
0.0999155
0.095989
0.0923538
0.0889778
0.0858478
0.082968
0.0803493
0.0779954
0.0758957
0.0740264
0.0723576
0.0708615
0.0695186
0.0683193
0.0672624
0.066351
0.0655892
0.0649803
0.0645252
0.0642239
0.0640753
0.0629955
0.0631357
0.0634174
0.0638422
0.0644119
0.0651292
0.0659977
0.0670219
0.0682073
0.0695606
0.0710894
0.0728026
0.0747103
0.0768238
0.079156
0.0817211
0.0845352
0.0876158
0.0909824
0.094656
0.0986589
0.103014
0.107745
0.112871
0.118412
0.124378
0.130772
0.137581
0.14481
0.152394
0.160267
0.168324
0.17642
0.184359
0.191906
0.198785
0.204704
0.209381
0.212569
0.214093
0.213871
0.211919
0.208342
0.203331
0.197139
0.190066
0.182406
0.174399
0.166259
0.15822
0.150444
0.142964
0.135798
0.129112
0.122881
0.117104
0.111737
0.106748
0.102129
0.0978738
0.0939668
0.0903774
0.0870727
0.0840297
0.0812403
0.0787067
0.0764307
0.0744042
0.072607
0.0710105
0.0695858
0.0683103
0.0671713
0.0661652
0.0652942
0.064563
0.0639759
0.0635358
0.0632439
0.0631004
0.0618744
0.0620074
0.0622743
0.0626765
0.0632158
0.0638951
0.0647176
0.065688
0.0668116
0.0680952
0.0695466
0.071175
0.0729913
0.0750078
0.077239
0.0797013
0.0824134
0.0853964
0.0886737
0.0922709
0.0962153
0.100536
0.105262
0.110424
0.11605
0.122167
0.128795
0.13595
0.143604
0.151767
0.160373
0.169318
0.178444
0.187527
0.196278
0.20435
0.211364
0.216944
0.220761
0.222579
0.22229
0.21992
0.215617
0.209642
0.202329
0.194064
0.185239
0.176161
0.167054
0.15816
0.149689
0.141693
0.134182
0.127112
0.12062
0.114681
0.109238
0.104244
0.0996639
0.0954693
0.0916318
0.0881205
0.0849051
0.0819608
0.0792732
0.0768379
0.074653
0.072711
0.0709939
0.0694754
0.0681263
0.0669225
0.0658486
0.0648986
0.0640735
0.0633782
0.0628176
0.0623961
0.062116
0.0619786
0.0606128
0.0607378
0.060988
0.0613651
0.0618708
0.0625076
0.0632789
0.0641891
0.0652437
0.0664492
0.0678138
0.0693469
0.0710601
0.0729669
0.0750831
0.077427
0.0800198
0.0828855
0.0860506
0.0895447
0.0933999
0.097651
0.102336
0.107494
0.113169
0.119404
0.126243
0.133721
0.14185
0.15066
0.160104
0.17009
0.180451
0.190935
0.20119
0.21078
0.219209
0.225971
0.230622
0.232836
0.232469
0.229552
0.224292
0.21706
0.208307
0.198529
0.188242
0.177854
0.167613
0.157747
0.148481
0.139887
0.131929
0.124574
0.117868
0.111788
0.106277
0.101282
0.0967589
0.0926618
0.0889413
0.0855528
0.08246
0.0796368
0.0770672
0.0747439
0.0726631
0.0708173
0.0691903
0.0677572
0.0664898
0.0653628
0.064359
0.0634702
0.0626964
0.0620418
0.0615122
0.0611125
0.0608466
0.0607162
0.0592183
0.0593345
0.0595664
0.0599159
0.0603845
0.0609747
0.0616896
0.0625335
0.0635117
0.0646307
0.0658986
0.0673255
0.0689233
0.0707064
0.0726919
0.0748997
0.0773526
0.0800767
0.0831011
0.0864583
0.0901847
0.0943211
0.0989137
0.104015
0.109686
0.115992
0.123004
0.130787
0.139388
0.148887
0.159254
0.170423
0.182236
0.194414
0.206544
0.218076
0.228359
0.236706
0.242494
0.245266
0.244817
0.241182
0.234643
0.225732
0.215093
0.203382
0.191263
0.17927
0.167699
0.156752
0.146635
0.137416
0.129023
0.121397
0.114531
0.108378
0.102856
0.0978938
0.0934456
0.0894626
0.0858857
0.0826545
0.0797197
0.0770475
0.074619
0.0724258
0.0704642
0.0687276
0.0672015
0.0658628
0.0646841
0.0636398
0.0627113
0.0618889
0.0611713
0.060562
0.0600672
0.0596926
0.0594428
0.0593205
0.0576994
0.0578059
0.058018
0.0583376
0.058766
0.0593055
0.059959
0.0607305
0.0616249
0.0626489
0.0638104
0.0651197
0.0665892
0.0682339
0.0700717
0.0721233
0.0744127
0.0769668
0.0798161
0.0829954
0.0865444
0.0905098
0.0949474
0.0999239
0.105519
0.111825
0.118946
0.12699
0.136067
0.146208
0.157536
0.170006
0.183485
0.197695
0.212163
0.226209
0.238966
0.249477
0.256846
0.260405
0.259857
0.255242
0.246946
0.235737
0.222572
0.208358
0.193951
0.180031
0.166924
0.154807
0.143831
0.134024
0.125242
0.117404
0.110448
0.104304
0.0988643
0.0940244
0.0897148
0.0858844
0.082477
0.0794287
0.0766801
0.0741875
0.0719258
0.0698844
0.06806
0.0664477
0.0650349
0.0638006
0.0627187
0.0617635
0.0609158
0.0601647
0.0595076
0.0589478
0.0584913
0.0581446
0.0579129
0.0577994
0.0560652
0.0561613
0.0563523
0.0566398
0.0570251
0.0575101
0.0580974
0.0587905
0.0595942
0.0605148
0.0615601
0.0627405
0.0640686
0.0655595
0.0672314
0.0691052
0.0712045
0.0735563
0.0761911
0.0791444
0.082459
0.0861868
0.090393
0.095159
0.100585
0.106791
0.113916
0.122111
0.131527
0.142282
0.154562
0.168398
0.183742
0.20036
0.217752
0.235081
0.251183
0.264686
0.274263
0.278916
0.278215
0.272214
0.261456
0.24707
0.230498
0.213043
0.195803
0.179631
0.164841
0.151525
0.139753
0.129437
0.12039
0.112463
0.105527
0.0994765
0.094202
0.0895782
0.0855008
0.0818981
0.0787122
0.0758827
0.0733493
0.0710626
0.0689923
0.067125
0.0654572
0.0639855
0.0626997
0.0615809
0.0606044
0.0597452
0.0589838
0.0583085
0.057716
0.0572092
0.0567941
0.0564776
0.0562657
0.0561618
0.0543261
0.0544111
0.0545796
0.054833
0.0551725
0.0555995
0.0561161
0.0567255
0.0574318
0.058241
0.0591608
0.0602013
0.0613749
0.0626966
0.0641838
0.0658566
0.0677373
0.0698513
0.0722277
0.0749018
0.0779176
0.0813317
0.0852179
0.0896709
0.0948101
0.100782
0.107758
0.115938
0.125539
0.136792
0.149845
0.165001
0.182346
0.201766
0.222792
0.244429
0.26509
0.282765
0.295441
0.301609
0.300666
0.2927
0.278481
0.259677
0.238511
0.216908
0.196229
0.177481
0.160935
0.146495
0.134092
0.123445
0.114309
0.106468
0.0997197
0.0938961
0.0888764
0.0845414
0.0807722
0.0774739
0.0745756
0.0720156
0.069735
0.0676843
0.0658307
0.0641595
0.0626674
0.0613528
0.0602078
0.0592158
0.0583536
0.0575974
0.0569276
0.0563324
0.055808
0.0553572
0.0549861
0.0547019
0.0545111
0.0544175
0.0524928
0.0525662
0.0527111
0.0529288
0.0532201
0.0535859
0.0540279
0.0545484
0.0551513
0.0558419
0.0566276
0.0575178
0.0585245
0.0596617
0.0609455
0.0623937
0.0640261
0.0658649
0.0679364
0.0702741
0.0729219
0.0759392
0.0794058
0.0834264
0.0881353
0.0936988
0.100319
0.108237
0.117735
0.129135
0.142774
0.159017
0.178355
0.200901
0.226364
0.253646
0.280581
0.304136
0.321187
0.329461
0.328195
0.317509
0.298426
0.273398
0.245947
0.219059
0.194362
0.172816
0.154563
0.139239
0.126388
0.115713
0.106771
0.0992496
0.0929
0.0874974
0.0828838
0.0789399
0.075553
0.0726232
0.0700716
0.0678324
0.0658467
0.0640654
0.0624557
0.0610033
0.0597063
0.058565
0.0575744
0.05672
0.0559807
0.0553339
0.0547606
0.0542492
0.053796
0.0534037
0.0530786
0.0528284
0.0526599
0.0525773
0.0505773
0.0506384
0.0507588
0.0509395
0.0511806
0.0514825
0.0518464
0.0522738
0.052768
0.0533337
0.0539775
0.0547082
0.0555365
0.056475
0.0575373
0.0587379
0.0600923
0.0616184
0.0633382
0.0652813
0.0674898
0.0700229
0.0729622
0.0764166
0.0805267
0.0854694
0.0914653
0.098789
0.107783
0.118875
0.132572
0.149402
0.17044
0.196175
0.226842
0.261462
0.297076
0.32902
0.352431
0.363695
0.362034
0.347559
0.321488
0.287566
0.251414
0.217754
0.188598
0.164391
0.144873
0.129086
0.11625
0.10592
0.0975404
0.0906527
0.0849494
0.0801813
0.0761621
0.0727582
0.0698602
0.0673754
0.065229
0.0633582
0.0617063
0.0602263
0.058887
0.0576757
0.0565924
0.0556402
0.0548167
0.0541101
0.0535015
0.0529698
0.0524972
0.0520729
0.0516933
0.0513614
0.0510839
0.050869
0.0507237
0.0506527
0.0485917
0.0486404
0.0487355
0.0488779
0.0490673
0.0493033
0.0495863
0.0499173
0.0502986
0.0507341
0.0512297
0.051793
0.0524332
0.0531603
0.0539845
0.0549159
0.0559646
0.0571425
0.0584657
0.0599584
0.0616579
0.0636195
0.0659205
0.068665
0.0719883
0.0760632
0.0811109
0.0874203
0.0953765
0.105504
0.11852
0.135381
0.15682
0.185113
0.221366
0.265285
0.313144
0.357967
0.391252
0.40666
0.404491
0.384728
0.347783
0.300115
0.25201
0.210108
0.176482
0.15028
0.130782
0.115404
0.103374
0.0939596
0.0865651
0.0806677
0.0758901
0.0719685
0.0687168
0.0659989
0.063707
0.0617561
0.0600813
0.0586282
0.0573476
0.0561979
0.0551523
0.0542014
0.0533484
0.0525992
0.0519542
0.0514043
0.0509331
0.0505215
0.0501531
0.0498181
0.0495138
0.0492438
0.0490151
0.0488364
0.048715
0.048656
0.046549
0.0465849
0.0466544
0.0467579
0.0468944
0.0470631
0.0472634
0.0474955
0.0477609
0.0480625
0.0484053
0.0487952
0.0492393
0.0497446
0.0503168
0.0509604
0.0516792
0.0524776
0.0533644
0.0543565
0.0554836
0.0567915
0.0583462
0.0602359
0.0625755
0.0655143
0.06925
0.074054
0.0803113
0.0885836
0.0996947
0.114794
0.13546
0.163943
0.204856
0.2604
0.327388
0.392551
0.441105
0.461447
0.458697
0.432148
0.37809
0.307201
0.241847
0.191369
0.155087
0.130029
0.11111
0.0973914
0.0872918
0.0796706
0.0738536
0.0693562
0.065808
0.0629573
0.0606388
0.0587337
0.0571482
0.0558111
0.0546703
0.0536828
0.0528093
0.0520166
0.0512849
0.0506105
0.050001
0.049466
0.0490087
0.0486228
0.0482942
0.0480063
0.0477445
0.0475004
0.0472725
0.0470651
0.0468859
0.0467438
0.0466469
0.0466001
0.0444624
0.0444855
0.0445292
0.0445934
0.0446767
0.0447774
0.044894
0.045026
0.0451739
0.0453396
0.0455266
0.0457394
0.0459822
0.0462581
0.0465678
0.0469095
0.0472792
0.0476734
0.0480923
0.0485433
0.0490451
0.0496289
0.0503406
0.0512407
0.0524076
0.0539449
0.0559961
0.05877
0.0625831
0.0679319
0.0755941
0.0866844
0.102773
0.127321
0.168095
0.236922
0.330313
0.422876
0.51467
0.547387
0.543643
0.500072
0.400107
0.29704
0.209323
0.153148
0.120356
0.0990896
0.0846717
0.0746614
0.0677613
0.0628915
0.0593684
0.0567656
0.0547871
0.0532477
0.0520347
0.0510656
0.0502752
0.049617
0.0490594
0.0485752
0.0481374
0.0477232
0.0473216
0.0469362
0.0465802
0.0462673
0.046004
0.0457869
0.0456046
0.0454425
0.0452885
0.045136
0.0449847
0.04484
0.0447103
0.0446052
0.0445328
0.0444984
0.0423453
0.0423556
0.0423736
0.0423988
0.042429
0.0424619
0.042495
0.042527
0.0425572
0.0425867
0.0426175
0.0426518
0.042691
0.0427336
0.0427748
0.0428057
0.0428143
0.0427885
0.0427186
0.0426013
0.0424405
0.0422478
0.0420408
0.0418412
0.0416758
0.0415806
0.0416125
0.0418653
0.0424952
0.0437793
0.0462316
0.0505087
0.0568052
0.0669088
0.0950248
0.167182
0.31126
0.576011
0.81094
0.868295
0.862402
0.777616
0.523435
0.23754
0.133678
0.085209
0.0660806
0.0570357
0.051249
0.047447
0.0452335
0.0440236
0.0434062
0.0431285
0.0430191
0.0429978
0.0430354
0.0431073
0.0431881
0.043263
0.0433264
0.0433716
0.0433878
0.0433651
0.0433032
0.0432142
0.0431176
0.0430314
0.0429657
0.0429197
0.0428848
0.0428491
0.0428028
0.0427413
0.0426661
0.0425836
0.042503
0.0424345
0.0423865
0.0423645
0.0402112
0.0402089
0.0402017
0.0401885
0.0401665
0.0401326
0.0400835
0.0400168
0.0399311
0.0398262
0.0397024
0.0395597
0.0393962
0.0392058
0.0389776
0.0386954
0.0383393
0.0378879
0.0373218
0.0366249
0.0357842
0.0347869
0.0336163
0.032247
0.0306425
0.0287551
0.0265269
0.0238887
0.0207443
0.0169743
0.0125778
0.00738048
-0.00198451
-0.0224012
-0.0331954
0.0438124
0.572207
1.40545
2.3874
2.41873
2.406
2.30651