/*--------------------------------*- C++ -*----------------------------------*\
| =========                 |                                                 |
| \\      /  F ield         | OpenFOAM: The Open Source CFD Toolbox           |
|  \\    /   O peration     | Version:  2412                                  |
|   \\  /    A nd           | Website:  www.openfoam.com                      |
|    \\/     M anipulation  |                                                 |
\*---------------------------------------------------------------------------*/
FoamFile
{
    version     2.0;
    format      ascii;
    arch        "LSB;label=32;scalar=64";
    class       surfaceScalarField;
    location    "7.75";
    object      alphaPhi0.honey;
}
// * * * * * * * * * * * * * * * * * * * * * * * * * * * * * * * * * * * * * //

dimensions      [0 3 -1 0 0 0 0];

oriented        oriented;

internalField   nonuniform List<scalar> 
12640
(
7.02502e-09
-6.97132e-09
1.75193e-08
-1.04654e-08
2.49936e-08
-7.35017e-09
2.5837e-08
-7.42132e-10
1.8669e-08
7.26167e-09
3.28072e-09
1.55046e-08
-1.99178e-08
2.33515e-08
-5.02238e-08
3.05001e-08
-8.68462e-08
3.68585e-08
-1.29032e-07
4.24669e-08
-1.76144e-07
4.74375e-08
-2.27691e-07
5.19174e-08
-2.83337e-07
5.60555e-08
-3.42876e-07
5.9986e-08
-4.06206e-07
6.38042e-08
-4.7327e-07
6.75637e-08
-5.4401e-07
7.12512e-08
-6.18281e-07
7.47986e-08
-6.95807e-07
7.80507e-08
-7.76069e-07
8.07989e-08
-8.58284e-07
8.27368e-08
-9.41277e-07
8.35262e-08
-1.02351e-06
8.27384e-08
-1.10293e-06
7.99624e-08
-1.17716e-06
7.47305e-08
-1.24328e-06
6.66717e-08
-1.29818e-06
5.54241e-08
-1.3384e-06
4.08158e-08
-1.36058e-06
2.27728e-08
-1.36139e-06
1.48141e-09
-1.33801e-06
-2.26856e-08
-1.28813e-06
-4.91023e-08
-1.21041e-06
-7.68965e-08
-1.10443e-06
-1.05074e-07
-9.71078e-07
-1.32378e-07
-8.12386e-07
-1.57692e-07
-6.31639e-07
-1.79641e-07
-4.33241e-07
-1.97337e-07
-2.22438e-07
-2.09612e-07
-5.24272e-09
-2.16126e-07
2.12161e-07
-2.16182e-07
4.23356e-07
-2.10167e-07
6.22524e-07
-1.97972e-07
8.04165e-07
-1.80687e-07
9.64027e-07
-1.58733e-07
1.09857e-06
-1.33685e-07
1.20589e-06
-1.06273e-07
1.28487e-06
-7.82062e-08
1.33603e-06
-5.02182e-08
1.36054e-06
-2.37886e-08
1.36078e-06
6.1212e-10
1.33946e-06
2.19866e-08
1.29999e-06
4.02553e-08
1.24564e-06
5.49677e-08
1.17994e-06
6.64026e-08
1.10597e-06
7.45543e-08
1.02669e-06
7.99209e-08
9.44478e-07
8.27625e-08
8.6143e-07
8.36351e-08
7.79076e-07
8.28843e-08
6.98634e-07
8.0993e-08
6.20887e-07
7.8263e-08
5.46379e-07
7.50325e-08
4.75387e-07
7.14907e-08
4.0807e-07
6.78103e-08
3.44486e-07
6.40488e-08
2.84704e-07
6.02282e-08
2.28824e-07
5.62896e-08
1.7706e-07
5.21418e-08
1.29748e-07
4.7648e-08
8.73827e-08
4.26616e-08
5.06015e-08
3.70347e-08
2.01593e-08
3.06564e-08
-3.14942e-09
2.34865e-08
-1.86169e-08
1.56162e-08
-2.58345e-08
7.34496e-09
-2.50239e-08
-6.94588e-10
-1.75746e-08
-7.33815e-09
-7.00534e-09
-1.04699e-08
-6.97577e-09
1.05413e-08
-1.73631e-08
2.31401e-08
-2.29662e-08
2.60676e-08
-9.99084e-09
1.26372e-08
1.30447e-08
-2.02625e-08
4.05775e-08
-7.34156e-08
6.91384e-08
-1.46189e-07
9.66699e-08
-2.37186e-07
1.22096e-07
-3.44698e-07
1.45017e-07
-4.67018e-07
1.65472e-07
-6.02626e-07
1.83769e-07
-7.50299e-07
2.00341e-07
-9.0912e-07
2.15655e-07
-1.07846e-06
2.3012e-07
-1.25788e-06
2.44038e-07
-1.44704e-06
2.57535e-07
-1.6455e-06
2.70549e-07
-1.85264e-06
2.82763e-07
-2.06736e-06
2.93636e-07
-2.28805e-06
3.02337e-07
-2.51224e-06
3.07823e-07
-2.7366e-06
3.08783e-07
-2.95668e-06
3.03792e-07
-3.16702e-06
2.91263e-07
-3.36092e-06
2.69701e-07
-3.53086e-06
2.37654e-07
-3.66831e-06
1.94062e-07
-3.76457e-06
1.382e-07
-3.81057e-06
7.00484e-08
-3.79811e-06
-9.78468e-09
-3.71971e-06
-9.97905e-08
-3.56991e-06
-1.97673e-07
-3.34522e-06
-3.00321e-07
-3.04518e-06
-4.03912e-07
-2.67212e-06
-5.04263e-07
-2.23184e-06
-5.96796e-07
-1.73312e-06
-6.7732e-07
-1.18764e-06
-7.41651e-07
-6.09493e-07
-7.86819e-07
-1.42861e-08
-8.10147e-07
5.81244e-07
-8.10813e-07
1.16068e-06
-7.88327e-07
1.70798e-06
-7.44351e-07
2.20931e-06
-6.80621e-07
2.65252e-06
-6.00918e-07
3.02896e-06
-5.086e-07
3.33241e-06
-4.08595e-07
3.56063e-06
-3.04815e-07
3.71371e-06
-2.02081e-07
3.79525e-06
-1.03709e-07
3.81044e-06
-1.33288e-08
3.76685e-06
6.7132e-08
3.67254e-06
1.35776e-07
3.53666e-06
1.92257e-07
3.36784e-06
2.36326e-07
3.17473e-06
2.68887e-07
2.9648e-06
2.90829e-07
2.74488e-06
3.03727e-07
2.52042e-06
3.08978e-07
2.29597e-06
3.0825e-07
2.07487e-06
3.02915e-07
1.85965e-06
2.94336e-07
1.65194e-06
2.83531e-07
1.45288e-06
2.71361e-07
1.26311e-06
2.58359e-07
1.08307e-06
2.44858e-07
9.13123e-07
2.30917e-07
7.53719e-07
2.1642e-07
6.05493e-07
2.01063e-07
4.69367e-07
1.84442e-07
3.46569e-07
1.66087e-07
2.38624e-07
1.45566e-07
1.47242e-07
1.22571e-07
7.4139e-08
9.70597e-08
2.07186e-08
6.94321e-08
-1.23864e-08
4.07638e-08
-2.5969e-08
1.31176e-08
-2.31436e-08
-1.00156e-08
-1.05058e-08
-2.30362e-08
-1.7405e-08
7.4982e-09
-2.46617e-08
1.03186e-08
-2.57097e-08
-3.91082e-09
4.49681e-09
-4.26895e-08
5.21467e-08
-1.09726e-07
1.0799e-07
-2.06051e-07
1.65902e-07
-3.30927e-07
2.22047e-07
-4.8258e-07
2.74311e-07
-6.58769e-07
3.21819e-07
-8.57187e-07
3.64554e-07
-1.07574e-06
4.03025e-07
-1.31267e-06
4.38019e-07
-1.56663e-06
4.70389e-07
-1.8366e-06
5.00896e-07
-2.12182e-06
5.30068e-07
-2.42155e-06
5.5811e-07
-2.73497e-06
5.84801e-07
-3.06081e-06
6.09462e-07
-3.39721e-06
6.30876e-07
-3.74131e-06
6.47332e-07
-4.08921e-06
6.56568e-07
-4.43542e-06
6.55932e-07
-4.7731e-06
6.4236e-07
-5.09352e-06
6.12699e-07
-5.38662e-06
5.6373e-07
-5.6405e-06
4.92657e-07
-5.84259e-06
3.97167e-07
-5.97918e-06
2.76024e-07
-6.03711e-06
1.29103e-07
-6.00348e-06
-4.20698e-08
-5.86766e-06
-2.34382e-07
-5.62102e-06
-4.42881e-07
-5.25902e-06
-6.60998e-07
-4.78071e-06
-8.80791e-07
-4.19033e-06
-1.09325e-06
-3.49658e-06
-1.28915e-06
-2.71328e-06
-1.45918e-06
-1.85831e-06
-1.5953e-06
-9.53239e-07
-1.6904e-06
-2.21832e-08
-1.73997e-06
9.09576e-07
-1.74102e-06
1.81639e-06
-1.69398e-06
2.67437e-06
-1.60072e-06
3.46145e-06
-1.46658e-06
4.15986e-06
-1.29767e-06
4.75523e-06
-1.10285e-06
5.23892e-06
-8.90605e-07
5.60615e-06
-6.70932e-07
5.85795e-06
-4.52225e-07
5.99845e-06
-2.4309e-07
6.03636e-06
-4.967e-08
5.98204e-06
1.22549e-07
5.84852e-06
2.7075e-07
5.64879e-06
3.9302e-07
5.39673e-06
4.8969e-07
5.10485e-06
5.61742e-07
4.78518e-06
6.11638e-07
4.44778e-06
6.42022e-07
4.10153e-06
6.56225e-07
3.75329e-06
6.57324e-07
3.40864e-06
6.48458e-07
3.07153e-06
6.32247e-07
2.7449e-06
6.11004e-07
2.4306e-06
5.8643e-07
2.12998e-06
5.59779e-07
1.84385e-06
5.31726e-07
1.57299e-06
5.02515e-07
1.31816e-06
4.7194e-07
1.0804e-06
4.39487e-07
8.61055e-07
4.04394e-07
6.61902e-07
3.65811e-07
4.85038e-07
3.22951e-07
3.32777e-07
2.75302e-07
2.0737e-07
2.22881e-07
1.10603e-07
1.66558e-07
4.32166e-08
1.08448e-07
4.17572e-09
5.23941e-08
-1.02333e-08
4.55131e-09
-7.43184e-09
-2.57738e-08
-2.47249e-08
1.06402e-09
-2.55059e-08
-1.2298e-08
-1.23079e-08
-5.09511e-08
4.33741e-08
-1.21829e-07
1.23313e-07
-2.28352e-07
2.14845e-07
-3.71323e-07
3.09257e-07
-5.49733e-07
4.00901e-07
-7.61475e-07
4.8655e-07
-1.00392e-06
5.64814e-07
-1.27436e-06
6.35596e-07
-1.57032e-06
6.9963e-07
-1.88971e-06
7.58086e-07
-2.23085e-06
8.12252e-07
-2.59246e-06
8.63257e-07
-2.97349e-06
9.11877e-07
-3.37292e-06
9.58333e-07
-3.78948e-06
1.00219e-06
-4.22143e-06
1.04222e-06
-4.66605e-06
1.07637e-06
-5.11958e-06
1.10168e-06
-5.57654e-06
1.11444e-06
-6.02988e-06
1.11011e-06
-6.47027e-06
1.08371e-06
-6.88658e-06
1.02986e-06
-7.26517e-06
9.43373e-07
-7.59107e-06
8.19463e-07
-7.84727e-06
6.54516e-07
-8.01661e-06
4.46336e-07
-8.08124e-06
1.94987e-07
-8.02516e-06
-9.70783e-08
-7.83378e-06
-4.24421e-07
-7.49676e-06
-7.78757e-07
-7.00739e-06
-1.14898e-06
-6.36534e-06
-1.5216e-06
-5.57556e-06
-1.88164e-06
-4.65017e-06
-2.2132e-06
-3.60687e-06
-2.50111e-06
-2.46957e-06
-2.73116e-06
-1.26642e-06
-2.89224e-06
-2.90833e-08
-2.97576e-06
1.20899e-06
-2.9779e-06
2.41461e-06
-2.89797e-06
3.55567e-06
-2.74068e-06
4.60409e-06
-2.51334e-06
5.53541e-06
-2.22795e-06
6.33189e-06
-1.89766e-06
6.9808e-06
-1.53852e-06
7.47716e-06
-1.16565e-06
7.82077e-06
-7.94875e-07
8.01837e-06
-4.39126e-07
8.07987e-06
-1.10241e-07
8.02002e-06
1.83843e-07
7.85457e-06
4.37128e-07
7.60152e-06
6.47391e-07
7.27792e-06
8.14188e-07
6.90098e-06
9.39881e-07
6.48565e-06
1.02785e-06
6.04572e-06
1.08301e-06
5.59233e-06
1.11043e-06
5.135e-06
1.1156e-06
4.6808e-06
1.10345e-06
4.23533e-06
1.07858e-06
3.80237e-06
1.04472e-06
3.38473e-06
1.00487e-06
2.98416e-06
9.61079e-07
2.602e-06
9.14625e-07
2.23924e-06
8.65945e-07
1.897e-06
8.14841e-07
1.57654e-06
7.60543e-07
1.27956e-06
7.01931e-07
1.00816e-06
6.37717e-07
7.64839e-07
5.66736e-07
5.52299e-07
4.88249e-07
3.73185e-07
4.02351e-07
2.29618e-07
3.1043e-07
1.22616e-07
2.15708e-07
5.13721e-08
1.23847e-07
1.24623e-08
4.35988e-08
-9.77277e-10
-1.23e-08
-2.55589e-08
-6.69426e-09
-1.85742e-08
-3.93009e-08
2.03251e-08
-1.06172e-07
1.10462e-07
-2.12817e-07
2.30242e-07
-3.61729e-07
3.64082e-07
-5.53045e-07
5.00945e-07
-7.8524e-07
6.33518e-07
-1.05577e-06
7.57557e-07
-1.36164e-06
8.71212e-07
-1.69984e-06
9.74367e-07
-2.06762e-06
1.06803e-06
-2.46268e-06
1.1538e-06
-2.88317e-06
1.23344e-06
-3.32766e-06
1.30848e-06
-3.79495e-06
1.37991e-06
-4.28378e-06
1.44796e-06
-4.79266e-06
1.51186e-06
-5.31933e-06
1.56974e-06
-5.86061e-06
1.61845e-06
-6.41168e-06
1.65365e-06
-6.96614e-06
1.66972e-06
-7.51511e-06
1.66004e-06
-8.04768e-06
1.61711e-06
-8.5499e-06
1.5331e-06
-9.00586e-06
1.40018e-06
-9.39672e-06
1.21144e-06
-9.70266e-06
9.61326e-07
-9.9019e-06
6.46791e-07
-9.97372e-06
2.67727e-07
-9.89748e-06
-1.72024e-07
-9.65643e-06
-6.64495e-07
-9.23662e-06
-1.19722e-06
-8.63096e-06
-1.75358e-06
-7.83772e-06
-2.31347e-06
-6.864e-06
-2.85419e-06
-5.72358e-06
-3.35227e-06
-4.43898e-06
-3.7844e-06
-3.03884e-06
-4.13001e-06
-1.55809e-06
-4.37154e-06
-3.54277e-08
-4.49723e-06
1.48832e-06
-4.50007e-06
2.97194e-06
-4.38052e-06
4.37688e-06
-4.14397e-06
5.6676e-06
-3.80311e-06
6.81545e-06
-3.37411e-06
7.79719e-06
-2.87854e-06
8.59895e-06
-2.33863e-06
9.21295e-06
-1.77886e-06
9.64089e-06
-1.22123e-06
9.8893e-06
-6.86775e-07
9.97221e-06
-1.91677e-07
9.906e-06
2.50812e-07
9.71149e-06
6.32996e-07
9.40921e-06
9.50456e-07
9.02116e-06
1.20349e-06
8.56707e-06
1.39477e-06
8.06605e-06
1.53e-06
7.53397e-06
1.6159e-06
6.98501e-06
1.66043e-06
6.43009e-06
1.67132e-06
5.87826e-06
1.65619e-06
5.33597e-06
1.62165e-06
4.80814e-06
1.5734e-06
4.29797e-06
1.51578e-06
3.80781e-06
1.45201e-06
3.33917e-06
1.38396e-06
2.89335e-06
1.31246e-06
2.47153e-06
1.23728e-06
2.07521e-06
1.15746e-06
1.70622e-06
1.07146e-06
1.36689e-06
9.77542e-07
1.05996e-06
8.74101e-07
7.88469e-07
7.60128e-07
5.55421e-07
6.35734e-07
3.63373e-07
5.02766e-07
2.13861e-07
3.65465e-07
1.06749e-07
2.31159e-07
3.95409e-08
1.10933e-07
6.79202e-09
2.04603e-08
-1.85913e-08
-1.4695e-08
-3.624e-09
-6.75164e-08
7.3183e-08
-1.64079e-07
2.07254e-07
-3.08006e-07
3.74465e-07
-5.00407e-07
5.56819e-07
-7.40383e-07
7.41297e-07
-1.02562e-06
9.19179e-07
-1.353e-06
1.0854e-06
-1.71908e-06
1.23782e-06
-2.12058e-06
1.37642e-06
-2.55455e-06
1.50261e-06
-3.01858e-06
1.61848e-06
-3.51078e-06
1.72634e-06
-4.0297e-06
1.82812e-06
-4.57408e-06
1.92506e-06
-5.14267e-06
2.01732e-06
-5.73376e-06
2.10378e-06
-6.34495e-06
2.18173e-06
-6.97248e-06
2.24686e-06
-7.61113e-06
2.29311e-06
-8.25327e-06
2.3128e-06
-8.88916e-06
2.29674e-06
-9.50575e-06
2.2347e-06
-1.00876e-05
2.11575e-06
-1.06156e-05
1.92925e-06
-1.10687e-05
1.6654e-06
-1.14229e-05
1.31666e-06
-1.16538e-05
8.78485e-07
-1.17356e-05
3.50812e-07
-1.16454e-05
-2.61355e-07
-1.13616e-05
-9.46965e-07
-1.08691e-05
-1.68886e-06
-1.01573e-05
-2.46399e-06
-9.22557e-06
-3.24422e-06
-8.08029e-06
-3.99815e-06
-6.73893e-06
-4.69249e-06
-5.22675e-06
-5.29531e-06
-3.57842e-06
-5.77702e-06
-1.83461e-06
-6.11417e-06
-4.12503e-08
-6.28908e-06
1.75321e-06
-6.29346e-06
3.50064e-06
-6.12628e-06
5.15448e-06
-5.79688e-06
6.67416e-06
-5.32104e-06
8.02412e-06
-4.72332e-06
9.17906e-06
-4.03176e-06
1.01206e-05
-3.27954e-06
1.08423e-05
-2.4989e-06
1.13442e-05
-1.72244e-06
1.16366e-05
-9.77704e-07
1.17343e-05
-2.8878e-07
1.16591e-05
3.27496e-07
1.14334e-05
8.5925e-07
1.10835e-05
1.30167e-06
1.06334e-05
1.65429e-06
1.01076e-05
1.92178e-06
9.52691e-06
2.11138e-06
8.91089e-06
2.23301e-06
8.27493e-06
2.29718e-06
7.63227e-06
2.31496e-06
6.99272e-06
2.29654e-06
6.36405e-06
2.25122e-06
5.7515e-06
2.1867e-06
5.15898e-06
2.10912e-06
4.58887e-06
2.02283e-06
4.04297e-06
1.9306e-06
3.52252e-06
1.83356e-06
3.02884e-06
1.73161e-06
2.56337e-06
1.62351e-06
2.12803e-06
1.50734e-06
1.72524e-06
1.38082e-06
1.35795e-06
1.24183e-06
1.02947e-06
1.08899e-06
7.4325e-07
9.22299e-07
5.02417e-07
7.43891e-07
3.09303e-07
5.58831e-07
1.64813e-07
3.75857e-07
6.7834e-08
2.08043e-07
1.48002e-08
7.34937e-08
-3.58712e-09
-2.24028e-08
1.90465e-08
-9.52563e-08
1.46094e-07
-2.21619e-07
3.33859e-07
-4.03028e-07
5.56183e-07
-6.38893e-07
7.9303e-07
-9.26955e-07
1.02974e-06
-1.26386e-06
1.2565e-06
-1.6457e-06
1.46771e-06
-2.06857e-06
1.66119e-06
-2.52882e-06
1.83723e-06
-3.0234e-06
1.99777e-06
-3.54985e-06
2.14558e-06
-4.10636e-06
2.28351e-06
-4.69154e-06
2.41402e-06
-5.30431e-06
2.53855e-06
-5.94342e-06
2.65723e-06
-6.60732e-06
2.76845e-06
-7.29339e-06
2.86866e-06
-7.99787e-06
2.95214e-06
-8.71486e-06
3.01101e-06
-9.43645e-06
3.03518e-06
-1.01514e-05
3.0127e-06
-1.0846e-05
2.93006e-06
-1.15022e-05
2.77303e-06
-1.20996e-05
2.52738e-06
-1.26134e-05
2.18029e-06
-1.30174e-05
1.72142e-06
-1.32824e-05
1.1447e-06
-1.33804e-05
4.4951e-07
-1.32827e-05
-3.57745e-07
-1.2966e-05
-1.26289e-06
-1.24101e-05
-2.24347e-06
-1.16042e-05
-3.26902e-06
-1.05447e-05
-4.30245e-06
-9.2403e-06
-5.30155e-06
-7.70896e-06
-6.22254e-06
-5.98116e-06
-7.02196e-06
-4.09554e-06
-7.66145e-06
-2.09987e-06
-8.10847e-06
-4.68534e-08
-8.34099e-06
2.00767e-06
-8.34635e-06
4.00737e-06
-8.12505e-06
5.89969e-06
-7.68743e-06
7.636e-06
-7.05661e-06
9.17758e-06
-6.26308e-06
1.04929e-05
-5.34649e-06
1.1564e-05
-4.34887e-06
1.2381e-05
-3.31541e-06
1.29477e-05
-2.28746e-06
1.3274e-05
-1.30348e-06
1.33802e-05
-3.93503e-07
1.32893e-05
4.18882e-07
1.30302e-05
1.11973e-06
1.26306e-05
1.70182e-06
1.21202e-05
2.16594e-06
1.15249e-05
2.51764e-06
1.087e-05
2.76743e-06
1.01759e-05
2.92786e-06
9.46077e-06
3.01334e-06
8.7385e-06
3.03799e-06
8.0205e-06
3.0155e-06
7.31468e-06
2.95779e-06
6.62713e-06
2.87512e-06
5.9616e-06
2.77538e-06
5.32082e-06
2.66439e-06
4.70636e-06
2.54574e-06
4.11951e-06
2.4211e-06
3.56137e-06
2.29037e-06
3.03334e-06
2.15213e-06
2.53725e-06
2.00396e-06
2.07557e-06
1.84299e-06
1.65137e-06
1.66647e-06
1.26829e-06
1.47246e-06
9.30283e-07
1.26065e-06
6.41249e-07
1.03322e-06
4.04565e-07
7.95773e-07
2.22504e-07
5.58136e-07
9.56508e-08
3.35035e-07
2.25159e-08
1.46624e-07
1.91502e-08
-2.96269e-08
4.89486e-08
-1.21885e-07
2.38439e-07
-2.7761e-07
4.89842e-07
-4.96172e-07
7.75064e-07
-7.75027e-07
1.07224e-06
-1.11026e-06
1.36536e-06
-1.49721e-06
1.64388e-06
-1.93104e-06
1.90201e-06
-2.40721e-06
2.13785e-06
-2.92175e-06
2.35231e-06
-3.47148e-06
2.54809e-06
-4.05402e-06
2.72872e-06
-4.66765e-06
2.89782e-06
-5.31127e-06
3.05833e-06
-5.98395e-06
3.21199e-06
-6.68481e-06
3.35883e-06
-7.41229e-06
3.49677e-06
-8.16414e-06
3.62127e-06
-8.93629e-06
3.72519e-06
-9.72306e-06
3.79854e-06
-1.05156e-05
3.82872e-06
-1.13028e-05
3.80059e-06
-1.20689e-05
3.69717e-06
-1.27954e-05
3.50028e-06
-1.34588e-05
3.19188e-06
-1.40332e-05
2.7553e-06
-1.44877e-05
2.17716e-06
-1.47915e-05
1.4491e-06
-1.49106e-05
5.69823e-07
-1.48145e-05
-4.53269e-07
-1.44734e-05
-1.6027e-06
-1.3866e-05
-2.85023e-06
-1.29763e-05
-4.15737e-06
-1.18017e-05
-5.47632e-06
-1.03487e-05
-6.7533e-06
-8.63928e-06
-7.93101e-06
-6.70564e-06
-8.95438e-06
-4.59329e-06
-9.77263e-06
-2.35525e-06
-1.03454e-05
-5.20788e-08
-1.06427e-05
2.25263e-06
-1.06501e-05
4.49557e-06
-1.03663e-05
6.61545e-06
-9.80658e-06
8.55916e-06
-8.99844e-06
1.02801e-05
-7.98348e-06
1.17459e-05
-6.81044e-06
1.29333e-05
-5.53594e-06
1.38358e-05
-4.21605e-06
1.44549e-05
-2.90621e-06
1.48068e-05
-1.65365e-06
1.49121e-05
-4.98355e-07
1.48008e-05
5.31703e-07
1.45031e-05
1.41789e-06
1.40533e-05
2.153e-06
1.34822e-05
2.73753e-06
1.28211e-05
3.18004e-06
1.20956e-05
3.49347e-06
1.13299e-05
3.69468e-06
1.05425e-05
3.80153e-06
9.74908e-06
3.8324e-06
8.96108e-06
3.80422e-06
8.18745e-06
3.73233e-06
7.43393e-06
3.62937e-06
6.70468e-06
3.50545e-06
6.00199e-06
3.36777e-06
5.32749e-06
3.22097e-06
4.68206e-06
3.06717e-06
4.06666e-06
2.90639e-06
3.48243e-06
2.73693e-06
2.93107e-06
2.55585e-06
2.41498e-06
2.35955e-06
1.93737e-06
2.14451e-06
1.50219e-06
1.90801e-06
1.11402e-06
1.64915e-06
7.77704e-07
1.36983e-06
4.97933e-07
1.0758e-06
2.78636e-07
7.77652e-07
1.22354e-07
4.91462e-07
2.97493e-08
2.3922e-07
4.91247e-08
-3.64162e-08
8.56416e-08
-1.47564e-07
3.49706e-07
-3.32375e-07
6.74923e-07
-5.87952e-07
1.03097e-06
-9.09517e-07
1.39417e-06
-1.29119e-06
1.74744e-06
-1.72674e-06
2.07986e-06
-2.21022e-06
2.38595e-06
-2.73638e-06
2.66451e-06
-3.30092e-06
2.91739e-06
-3.90058e-06
3.14831e-06
-4.53305e-06
3.36182e-06
-5.19691e-06
3.56233e-06
-5.89129e-06
3.75343e-06
-6.61571e-06
3.93713e-06
-7.36947e-06
4.11339e-06
-8.15155e-06
4.27961e-06
-8.95967e-06
4.43027e-06
-9.7903e-06
4.5566e-06
-1.06373e-05
4.64652e-06
-1.14924e-05
4.68457e-06
-1.23432e-05
4.65234e-06
-1.31742e-05
4.52888e-06
-1.39647e-05
4.29185e-06
-1.46909e-05
3.91869e-06
-1.5323e-05
3.38855e-06
-1.58295e-05
2.68421e-06
-1.61738e-05
1.7946e-06
-1.63207e-05
7.17077e-07
-1.62325e-05
-5.40235e-07
-1.58781e-05
-1.95664e-06
-1.5229e-05
-3.49806e-06
-1.42691e-05
-5.11677e-06
-1.29904e-05
-6.75375e-06
-1.14023e-05
-8.34078e-06
-9.5254e-06
-9.80664e-06
-7.39828e-06
-1.10806e-05
-5.0694e-06
-1.21004e-05
-2.59997e-06
-1.28137e-05
-5.70809e-08
-1.31848e-05
2.48782e-06
-1.31936e-05
4.96265e-06
-1.28405e-05
7.30042e-06
-1.21426e-05
9.43882e-06
-1.11365e-05
1.13291e-05
-9.87185e-06
1.29314e-05
-8.41255e-06
1.42248e-05
-6.82748e-06
1.51985e-05
-5.18973e-06
1.58607e-05
-3.56666e-06
1.62265e-05
-2.01922e-06
1.63247e-05
-5.94828e-07
1.61859e-05
6.70872e-07
1.58481e-05
1.75732e-06
1.53462e-05
2.65533e-06
1.47175e-05
3.36769e-06
1.39932e-05
3.90483e-06
1.32038e-05
4.28418e-06
1.23729e-05
4.52626e-06
1.15217e-05
4.65388e-06
1.06655e-05
4.68928e-06
9.81708e-06
4.65363e-06
8.98476e-06
4.56538e-06
8.17483e-06
4.44018e-06
7.39082e-06
4.29017e-06
6.63512e-06
4.12426e-06
5.90874e-06
3.94802e-06
5.21244e-06
3.76415e-06
4.54671e-06
3.57273e-06
3.91244e-06
3.37177e-06
3.31105e-06
3.15774e-06
2.74487e-06
2.92621e-06
2.21715e-06
2.67264e-06
1.73222e-06
2.39331e-06
1.29534e-06
2.08636e-06
9.12492e-07
1.75296e-06
5.89921e-07
1.39862e-06
3.33533e-07
1.03426e-06
1.48105e-07
6.77042e-07
3.65499e-08
3.50772e-07
8.58952e-08
-4.30077e-08
1.28919e-07
-1.73119e-07
4.79972e-07
-3.87533e-07
8.89611e-07
-6.80828e-07
1.32459e-06
-1.04559e-06
1.7593e-06
-1.47359e-06
2.17585e-06
-1.95678e-06
2.5635e-06
-2.48795e-06
2.91761e-06
-3.06108e-06
3.23818e-06
-3.67158e-06
3.52844e-06
-4.31612e-06
3.79347e-06
-4.99263e-06
4.03897e-06
-5.69994e-06
4.27035e-06
-6.43762e-06
4.49184e-06
-7.20546e-06
4.70579e-06
-8.00335e-06
4.91208e-06
-8.83042e-06
5.1076e-06
-9.68506e-06
5.28574e-06
-1.05636e-05
5.43616e-06
-1.14608e-05
5.54448e-06
-1.23675e-05
5.59242e-06
-1.32723e-05
5.5579e-06
-1.41583e-05
5.41594e-06
-1.50052e-05
5.13949e-06
-1.57866e-05
4.70122e-06
-1.64729e-05
4.07537e-06
-1.70279e-05
3.24042e-06
-1.74147e-05
2.18179e-06
-1.75913e-05
8.9489e-07
-1.75193e-05
-6.11974e-07
-1.71592e-05
-2.31545e-06
-1.64819e-05
-4.17515e-06
-1.5463e-05
-6.13432e-06
-1.40962e-05
-8.12035e-06
-1.23854e-05
-1.00502e-05
-1.03569e-05
-1.18346e-05
-8.04889e-06
-1.33875e-05
-5.51828e-06
-1.46302e-05
-2.83056e-06
-1.55006e-05
-6.15162e-08
-1.59528e-05
2.70957e-06
-1.59644e-05
5.40372e-06
-1.55333e-05
7.94421e-06
-1.46831e-05
1.02653e-05
-1.34558e-05
1.23087e-05
-1.19154e-05
1.40356e-05
-1.01377e-05
1.54185e-05
-8.21073e-06
1.64528e-05
-6.22244e-06
1.71439e-05
-4.25816e-06
1.75164e-05
-2.39006e-06
1.75985e-05
-6.77026e-07
1.74304e-05
8.40666e-07
1.70498e-05
2.13813e-06
1.64996e-05
3.20717e-06
1.58163e-05
4.05146e-06
1.50368e-05
4.68577e-06
1.41905e-05
5.13114e-06
1.33045e-05
5.41357e-06
1.23989e-05
5.56024e-06
1.14909e-05
5.59844e-06
1.05921e-05
5.55319e-06
9.71172e-06
5.44679e-06
8.85509e-06
5.2976e-06
8.02599e-06
5.12019e-06
7.22603e-06
4.92498e-06
6.45614e-06
4.7187e-06
5.71645e-06
4.50453e-06
5.0072e-06
4.28266e-06
4.3288e-06
4.05077e-06
3.68245e-06
3.80465e-06
3.07022e-06
3.53893e-06
2.49543e-06
3.24788e-06
1.96273e-06
2.92641e-06
1.47812e-06
2.57131e-06
1.04885e-06
2.18254e-06
6.82998e-07
1.76475e-06
3.8882e-07
1.32868e-06
1.73732e-07
8.92313e-07
4.31534e-08
4.81381e-07
1.29275e-07
-4.98176e-08
1.78987e-07
-2.00026e-07
6.30368e-07
-4.4596e-07
1.13581e-06
-7.79097e-07
1.65802e-06
-1.18877e-06
2.1693e-06
-1.66395e-06
2.65141e-06
-2.19447e-06
3.09448e-06
-2.77177e-06
3.49542e-06
-3.38916e-06
3.85612e-06
-4.04174e-06
4.18164e-06
-4.72632e-06
4.4787e-06
-5.44104e-06
4.7544e-06
-6.18514e-06
5.0152e-06
-6.9585e-06
5.26604e-06
-7.76145e-06
5.5096e-06
-8.59409e-06
5.74569e-06
-9.45619e-06
5.97062e-06
-1.03462e-05
6.17678e-06
-1.12612e-05
6.35215e-06
-1.21957e-05
6.48013e-06
-1.31417e-05
6.5394e-06
-1.40869e-05
6.50433e-06
-1.50157e-05
6.34552e-06
-1.5906e-05
6.03117e-06
-1.67328e-05
5.52862e-06
-1.74629e-05
4.80692e-06
-1.80616e-05
3.83949e-06
-1.8486e-05
2.60762e-06
-1.8695e-05
1.10402e-06
-1.86417e-05
-6.63845e-07
-1.82869e-05
-2.67021e-06
-1.75911e-05
-4.86953e-06
-1.65308e-05
-7.19463e-06
-1.50898e-05
-9.55983e-06
-1.32765e-05
-1.18633e-05
-1.11123e-05
-1.39975e-05
-8.64369e-06
-1.58555e-05
-5.92862e-06
-1.73443e-05
-3.04206e-06
-1.83863e-05
-6.54397e-08
-1.8929e-05
2.91375e-06
-1.89424e-05
5.80736e-06
-1.84271e-05
8.53391e-06
-1.74082e-05
1.1017e-05
-1.59395e-05
1.31982e-05
-1.4095e-05
1.50292e-05
-1.19695e-05
1.6488e-05
-9.66785e-06
1.75647e-05
-7.30018e-06
1.82755e-05
-4.96754e-06
1.86427e-05
-2.75827e-06
1.87066e-05
-7.39503e-07
1.85056e-05
1.04111e-06
1.80875e-05
2.55779e-06
1.74931e-05
3.80171e-06
1.67657e-05
4.78032e-06
1.59403e-05
5.51165e-06
1.50504e-05
6.0225e-06
1.41211e-05
6.34356e-06
1.31749e-05
6.50776e-06
1.22273e-05
6.54691e-06
1.12911e-05
6.49067e-06
1.03741e-05
6.36477e-06
9.48203e-06
6.19076e-06
8.61778e-06
5.98535e-06
7.78302e-06
5.76074e-06
6.97794e-06
5.52463e-06
6.20252e-06
5.28081e-06
5.45641e-06
5.02952e-06
4.73976e-06
4.76814e-06
4.0533e-06
4.49175e-06
3.39891e-06
4.19391e-06
2.7798e-06
3.8675e-06
2.20087e-06
3.50581e-06
1.66885e-06
3.10375e-06
1.19232e-06
2.65943e-06
7.8148e-07
2.17592e-06
4.47383e-07
1.66308e-06
2.00714e-07
1.13923e-06
4.99761e-08
6.3222e-07
1.79502e-07
-5.7487e-08
2.36692e-07
-2.30537e-07
8.03631e-07
-5.11947e-07
1.41746e-06
-8.88998e-07
2.03531e-06
-1.34683e-06
2.62738e-06
-1.87105e-06
3.17591e-06
-2.4492e-06
3.67298e-06
-3.0714e-06
4.11806e-06
-3.73039e-06
4.51563e-06
-4.42125e-06
4.87306e-06
-5.14096e-06
5.19905e-06
-5.88806e-06
5.50219e-06
-6.66212e-06
5.79004e-06
-7.46351e-06
6.06822e-06
-8.29272e-06
6.33973e-06
-9.15038e-06
6.60424e-06
-1.00362e-05
6.85754e-06
-1.09495e-05
7.09095e-06
-1.1887e-05
7.29088e-06
-1.28443e-05
7.43844e-06
-1.38131e-05
7.50947e-06
-1.47825e-05
7.47463e-06
-1.57358e-05
7.30029e-06
-1.66535e-05
6.94959e-06
-1.75079e-05
6.38453e-06
-1.82689e-05
5.56849e-06
-1.88973e-05
4.46947e-06
-1.93534e-05
3.06398e-06
-1.95887e-05
1.34093e-06
-1.95589e-05
-6.93661e-07
-1.9214e-05
-3.01347e-06
-1.85159e-05
-5.56762e-06
-1.74282e-05
-8.28053e-06
-1.59373e-05
-1.10508e-05
-1.40407e-05
-1.3758e-05
-1.17674e-05
-1.62704e-05
-9.16045e-06
-1.84608e-05
-6.28795e-06
-2.02156e-05
-3.22695e-06
-2.14459e-05
-6.84091e-08
-2.20857e-05
3.09284e-06
-2.21029e-05
6.16214e-06
-2.14944e-05
9.04736e-06
-2.02935e-05
1.16709e-05
-1.85608e-05
1.39628e-05
-1.63873e-05
1.58791e-05
-1.38835e-05
1.7389e-05
-1.11787e-05
1.84945e-05
-8.40367e-06
1.92077e-05
-5.68193e-06
1.95654e-05
-3.11479e-06
1.96052e-05
-7.80565e-07
1.93778e-05
1.26967e-06
1.89271e-05
3.00771e-06
1.83026e-05
4.42752e-06
1.75436e-05
5.53917e-06
1.66903e-05
6.36636e-06
1.57725e-05
6.94065e-06
1.48184e-05
7.29899e-06
1.38476e-05
7.47927e-06
1.28773e-05
7.51868e-06
1.19179e-05
7.45092e-06
1.09784e-05
7.30564e-06
1.0063e-05
7.10715e-06
9.17491e-06
6.87455e-06
8.31507e-06
6.62155e-06
7.48373e-06
6.35699e-06
6.68025e-06
6.08517e-06
5.90416e-06
5.80648e-06
5.15508e-06
5.51799e-06
4.43346e-06
5.21409e-06
3.74074e-06
4.88725e-06
3.07997e-06
4.52885e-06
2.45607e-06
4.13021e-06
1.87636e-06
3.68392e-06
1.35071e-06
3.18547e-06
8.91623e-07
2.63537e-06
5.13522e-07
2.04151e-06
2.31303e-07
1.42174e-06
5.76612e-08
8.0603e-07
2.37422e-07
-6.70219e-08
3.03885e-07
-2.68041e-07
1.00487e-06
-5.91673e-07
1.74128e-06
-1.01908e-06
2.46284e-06
-1.5299e-06
3.13829e-06
-2.10583e-06
3.75192e-06
-2.73211e-06
4.29938e-06
-3.39783e-06
4.78397e-06
-4.09552e-06
5.21357e-06
-4.82048e-06
5.59835e-06
-5.57018e-06
5.94911e-06
-6.34355e-06
6.276e-06
-7.14062e-06
6.58758e-06
-7.96191e-06
6.89008e-06
-8.80828e-06
7.18666e-06
-9.6802e-06
7.47686e-06
-1.05779e-05
7.75587e-06
-1.15001e-05
8.01401e-06
-1.24447e-05
8.23613e-06
-1.34066e-05
8.40131e-06
-1.43791e-05
8.48256e-06
-1.53505e-05
8.44716e-06
-1.63069e-05
8.25724e-06
-1.72273e-05
7.87117e-06
-1.8088e-05
7.24558e-06
-1.88563e-05
6.33816e-06
-1.94979e-05
5.11126e-06
-1.99683e-05
3.53588e-06
-2.02241e-05
1.59676e-06
-2.02125e-05
-7.03482e-07
-1.98875e-05
-3.33854e-06
-1.91975e-05
-6.25556e-06
-1.81079e-05
-9.37003e-06
-1.65889e-05
-1.25673e-05
-1.46426e-05
-1.57038e-05
-1.22876e-05
-1.86226e-05
-9.57804e-06
-2.11688e-05
-6.57902e-06
-2.32116e-05
-3.37825e-06
-2.46435e-05
-7.03045e-08
-2.53906e-05
3.24101e-06
-2.54102e-05
6.45116e-06
-2.47025e-05
9.46485e-06
-2.3303e-05
1.21927e-05
-2.12874e-05
1.45684e-05
-1.87587e-05
1.65357e-05
-1.58501e-05
1.80751e-05
-1.27141e-05
1.91826e-05
-9.51108e-06
1.98882e-05
-6.3846e-06
2.02253e-05
-3.45263e-06
2.02465e-05
-8.00072e-07
1.99973e-05
1.51775e-06
1.95318e-05
3.47432e-06
1.8893e-05
5.06557e-06
1.81264e-05
6.30685e-06
1.72659e-05
7.2265e-06
1.63452e-05
7.86242e-06
1.53876e-05
8.25676e-06
1.44146e-05
8.45324e-06
1.34403e-05
8.49352e-06
1.24764e-05
8.41584e-06
1.15296e-05
8.25307e-06
1.06052e-05
8.03247e-06
9.70531e-06
7.77515e-06
8.83124e-06
7.49645e-06
7.98274e-06
7.20617e-06
7.1594e-06
6.90923e-06
6.3603e-06
6.60618e-06
5.58496e-06
6.2939e-06
4.83332e-06
5.9662e-06
4.10648e-06
5.61453e-06
3.40698e-06
5.22872e-06
2.73952e-06
4.79798e-06
2.11161e-06
4.3121e-06
1.53417e-06
3.76314e-06
1.02198e-06
3.14776e-06
5.93416e-07
2.47028e-06
2.68883e-07
1.74647e-06
6.7218e-08
1.00781e-06
3.04791e-07
-8.01389e-08
3.84137e-07
-3.17865e-07
1.24281e-06
-6.94153e-07
2.11771e-06
-1.18093e-06
2.94965e-06
-1.75075e-06
3.70802e-06
-2.38112e-06
4.3821e-06
-3.05542e-06
4.97345e-06
-3.76238e-06
5.49069e-06
-4.49492e-06
5.94591e-06
-5.24909e-06
6.35234e-06
-6.02299e-06
6.72288e-06
-6.81614e-06
7.06903e-06
-7.62879e-06
7.40016e-06
-8.46168e-06
7.72286e-06
-9.31538e-06
8.04036e-06
-1.01905e-05
8.35185e-06
-1.10865e-05
8.65196e-06
-1.20026e-05
8.93001e-06
-1.29358e-05
9.1695e-06
-1.38822e-05
9.34756e-06
-1.48342e-05
9.4348e-06
-1.57827e-05
9.39536e-06
-1.67127e-05
9.18764e-06
-1.76075e-05
8.76559e-06
-1.84422e-05
8.08086e-06
-1.91903e-05
7.08581e-06
-1.98153e-05
5.73709e-06
-2.02804e-05
4.00046e-06
-2.05374e-05
1.85517e-06
-2.05415e-05
-6.99828e-07
-2.02362e-05
-3.64178e-06
-1.9575e-05
-6.91687e-06
-1.85048e-05
-1.04374e-05
-1.69972e-05
-1.40744e-05
-1.50345e-05
-1.76629e-05
-1.26437e-05
-2.10115e-05
-9.86982e-06
-2.39382e-05
-6.78981e-06
-2.62877e-05
-3.48803e-06
-2.79399e-05
-7.04472e-08
-2.88018e-05
3.35104e-06
-2.8826e-05
6.66401e-06
-2.80081e-05
9.76051e-06
-2.63952e-05
1.25547e-05
-2.40744e-05
1.49674e-05
-2.11683e-05
1.69526e-05
-1.78283e-05
1.84807e-05
-1.42398e-05
1.9569e-05
-1.05934e-05
2.02446e-05
-7.05863e-06
2.05614e-05
-3.76513e-06
2.05654e-05
-8.03731e-07
2.03142e-05
1.77135e-06
1.98525e-05
3.93549e-06
1.92297e-05
5.68968e-06
1.84822e-05
7.05371e-06
1.76474e-05
8.06202e-06
1.67516e-05
8.75765e-06
1.58202e-05
9.18855e-06
1.487e-05
9.40309e-06
1.39161e-05
9.44771e-06
1.29676e-05
9.36413e-06
1.20323e-05
9.18857e-06
1.1114e-05
8.95061e-06
1.02159e-05
8.67339e-06
9.33873e-06
8.37355e-06
8.483e-06
8.06194e-06
7.6481e-06
7.74405e-06
6.83349e-06
7.42075e-06
6.0384e-06
7.08888e-06
5.26259e-06
6.74189e-06
4.50655e-06
6.3704e-06
3.77218e-06
5.9629e-06
3.06345e-06
5.50649e-06
2.38746e-06
4.98787e-06
1.75548e-06
4.39489e-06
1.18416e-06
3.71886e-06
6.96075e-07
2.95818e-06
3.18775e-07
2.12363e-06
8.03587e-08
1.24607e-06
3.85017e-07
-1.00105e-07
4.84295e-07
-3.88897e-07
1.5318e-06
-8.32962e-07
2.56192e-06
-1.39037e-06
3.50712e-06
-2.02519e-06
4.34273e-06
-2.71128e-06
5.0679e-06
-3.43147e-06
5.6932e-06
-4.17535e-06
6.23406e-06
-4.9372e-06
6.70721e-06
-5.71431e-06
7.12889e-06
-6.50576e-06
7.51373e-06
-7.31153e-06
7.87419e-06
-8.13208e-06
8.22005e-06
-8.96778e-06
8.55793e-06
-9.81895e-06
8.8908e-06
-1.06852e-05
9.21745e-06
-1.15658e-05
9.53178e-06
-1.24587e-05
9.82224e-06
-1.33613e-05
1.00711e-05
-1.42683e-05
1.02539e-05
-1.51738e-05
1.03393e-05
-1.60678e-05
1.02888e-05
-1.6939e-05
1.00577e-05
-1.77701e-05
9.59628e-06
-1.85427e-05
8.85212e-06
-1.92298e-05
7.77284e-06
-1.98045e-05
6.31041e-06
-2.02286e-05
4.42519e-06
-2.04664e-05
2.09177e-06
-2.0468e-05
-6.96782e-07
-2.01887e-05
-3.92184e-06
-1.95678e-05
-7.53517e-06
-1.85566e-05
-1.14486e-05
-1.70992e-05
-1.55282e-05
-1.51785e-05
-1.95824e-05
-1.28005e-05
-2.33848e-05
-1.00229e-05
-2.67128e-05
-6.90954e-06
-2.93955e-05
-3.55514e-06
-3.12889e-05
-6.83223e-08
-3.22823e-05
3.42335e-06
-3.23099e-05
6.79104e-06
-3.13701e-05
9.92339e-06
-2.95195e-05
1.27228e-05
-2.68704e-05
1.5124e-05
-2.35623e-05
1.70671e-05
-1.97691e-05
1.8545e-05
-1.57105e-05
1.95724e-05
-1.16184e-05
2.02062e-05
-7.68597e-06
2.04946e-05
-4.05155e-06
2.04997e-05
-8.04067e-07
2.02657e-05
2.00602e-06
1.98441e-05
4.35992e-06
1.92702e-05
6.26339e-06
1.85833e-05
7.74196e-06
1.78098e-05
8.83478e-06
1.69777e-05
9.59019e-06
1.61047e-05
1.00605e-05
1.52091e-05
1.02985e-05
1.43016e-05
1.03542e-05
1.33926e-05
1.02725e-05
1.24881e-05
1.00921e-05
1.15933e-05
9.84477e-06
1.07107e-05
9.55506e-06
9.8425e-06
9.24096e-06
8.98942e-06
8.91415e-06
8.15185e-06
8.58084e-06