/*--------------------------------*- C++ -*----------------------------------*\
| =========                 |                                                 |
| \\      /  F ield         | OpenFOAM: The Open Source CFD Toolbox           |
|  \\    /   O peration     | Version:  2412                                  |
|   \\  /    A nd           | Website:  www.openfoam.com                      |
|    \\/     M anipulation  |                                                 |
\*---------------------------------------------------------------------------*/
FoamFile
{
    version     2.0;
    format      ascii;
    arch        "LSB;label=32;scalar=64";
    class       volVectorField;
    location    "4.95";
    object      U;
}
// * * * * * * * * * * * * * * * * * * * * * * * * * * * * * * * * * * * * * //

dimensions      [0 1 -1 0 0 0 0];

internalField   nonuniform List<vector> 
6400
(
(0.00227769 -0.00233117 0)
(0.00753027 -0.00254063 0)
(0.013263 -0.00249918 0)
(0.0187896 -0.00234976 0)
(0.0238716 -0.00211802 0)
(0.028347 -0.00184045 0)
(0.0321368 -0.00153333 0)
(0.0351891 -0.00121261 0)
(0.0374986 -0.000882729 0)
(0.0390823 -0.000565674 0)
(0.0399608 -0.000264837 0)
(0.040189 1.07892e-05 0)
(0.0398353 0.000256858 0)
(0.0389737 0.000476628 0)
(0.0376766 0.000663804 0)
(0.0360246 0.000817951 0)
(0.0340866 0.000942544 0)
(0.0319355 0.00103138 0)
(0.0296474 0.00108634 0)
(0.0272923 0.00111248 0)
(0.0249282 0.00110905 0)
(0.0226063 0.00108234 0)
(0.0203925 0.00104116 0)
(0.0182958 0.000967431 0)
(0.0163331 0.000893105 0)
(0.0145563 0.000807065 0)
(0.0129722 0.000715273 0)
(0.0115593 0.000623672 0)
(0.0102799 0.000543041 0)
(0.00912371 0.000479092 0)
(0.00807989 0.000430428 0)
(0.00712076 0.000394153 0)
(0.00621641 0.000369496 0)
(0.00535061 0.000353672 0)
(0.00450715 0.000343046 0)
(0.00367363 0.000339105 0)
(0.0028404 0.000336872 0)
(0.00200235 0.00033879 0)
(0.00115876 0.000341949 0)
(0.000308629 0.00034587 0)
(-0.000557014 0.00035256 0)
(-0.00143968 0.000360762 0)
(-0.00233593 0.000371541 0)
(-0.00324897 0.000380947 0)
(-0.00417996 0.00039133 0)
(-0.00512972 0.000405317 0)
(-0.00610108 0.000420173 0)
(-0.00710116 0.000436557 0)
(-0.00813638 0.000461386 0)
(-0.00922172 0.000492902 0)
(-0.0103767 0.000535551 0)
(-0.0116206 0.000590501 0)
(-0.0129696 0.000655463 0)
(-0.0144363 0.000730696 0)
(-0.0160484 0.000811051 0)
(-0.0178159 0.000884262 0)
(-0.0197233 0.00094721 0)
(-0.021752 0.00099841 0)
(-0.0238817 0.00103098 0)
(-0.0260814 0.00104637 0)
(-0.0283073 0.00104096 0)
(-0.030513 0.00100877 0)
(-0.0326384 0.000948126 0)
(-0.0346189 0.000858609 0)
(-0.0363856 0.000737482 0)
(-0.0378729 0.000582317 0)
(-0.0390175 0.000400786 0)
(-0.0397457 0.00019592 0)
(-0.0399723 -3.89494e-05 0)
(-0.0396374 -0.000314702 0)
(-0.0386889 -0.000600288 0)
(-0.0370581 -0.000901773 0)
(-0.0347242 -0.00120784 0)
(-0.0316685 -0.00151836 0)
(-0.0279011 -0.00181606 0)
(-0.0234649 -0.00208056 0)
(-0.0184378 -0.00229886 0)
(-0.0129858 -0.00243794 0)
(-0.00735157 -0.00246377 0)
(-0.00220997 -0.00225882 0)
(0.00236555 -0.00746539 0)
(0.00843339 -0.00876423 0)
(0.0153308 -0.00892251 0)
(0.0220282 -0.0084253 0)
(0.0281899 -0.00756165 0)
(0.0336018 -0.00652198 0)
(0.0381653 -0.00538799 0)
(0.0418345 -0.00420692 0)
(0.0446027 -0.00302058 0)
(0.0464928 -0.0018823 0)
(0.0475471 -0.000817246 0)
(0.0478355 0.000137072 0)
(0.0474563 0.000992252 0)
(0.0464745 0.00173218 0)
(0.0449807 0.00235768 0)
(0.0430917 0.00285834 0)
(0.0408854 0.00323347 0)
(0.0384497 0.00349267 0)
(0.0358843 0.00363827 0)
(0.0332635 0.00368627 0)
(0.0306536 0.00364448 0)
(0.0281176 0.00352534 0)
(0.0256999 0.00334775 0)
(0.023429 0.00311006 0)
(0.0213246 0.00285841 0)
(0.0194073 0.00259473 0)
(0.0176591 0.00232842 0)
(0.0160506 0.00207834 0)
(0.0145778 0.00185965 0)
(0.0132141 0.00168876 0)
(0.0119297 0.00155594 0)
(0.0106998 0.00146349 0)
(0.00949491 0.00140552 0)
(0.00829016 0.0013743 0)
(0.00706813 0.00136431 0)
(0.00581132 0.00137217 0)
(0.00451277 0.00138732 0)
(0.00317081 0.00140803 0)
(0.00178832 0.00142909 0)
(0.000380727 0.00145155 0)
(-0.00104813 0.00147466 0)
(-0.00248978 0.0014944 0)
(-0.00393089 0.0015118 0)
(-0.00536185 0.00152488 0)
(-0.00676999 0.00153847 0)
(-0.00815229 0.00155635 0)
(-0.00951421 0.00157872 0)
(-0.0108577 0.00161216 0)
(-0.0121996 0.0016652 0)
(-0.0135621 0.00174339 0)
(-0.0149599 0.0018533 0)
(-0.0164159 0.0019983 0)
(-0.0179544 0.00217433 0)
(-0.0196087 0.00237654 0)
(-0.0213836 0.00259744 0)
(-0.0232819 0.00281676 0)
(-0.0253248 0.00302688 0)
(-0.0275141 0.00321441 0)
(-0.0298255 0.00336067 0)
(-0.0322237 0.00343982 0)
(-0.0346734 0.00346068 0)
(-0.0371265 0.00339556 0)
(-0.0395123 0.00323133 0)
(-0.0417555 0.00297062 0)
(-0.0437805 0.00259698 0)
(-0.0454953 0.00210708 0)
(-0.0468137 0.00150812 0)
(-0.0476484 0.000800075 0)
(-0.0479022 -2.32992e-05 0)
(-0.0475009 -0.000969619 0)
(-0.0463603 -0.00199022 0)
(-0.0444101 -0.00308628 0)
(-0.0416075 -0.00422836 0)
(-0.037921 -0.00538056 0)
(-0.0333495 -0.00649275 0)
(-0.0279454 -0.00750406 0)
(-0.0218058 -0.00834126 0)
(-0.0151381 -0.00881144 0)
(-0.00829038 -0.00861673 0)
(-0.00229822 -0.00728141 0)
(0.00248359 -0.0130092 0)
(0.00908947 -0.0156895 0)
(0.0166649 -0.016133 0)
(0.0240369 -0.0152791 0)
(0.0308219 -0.0137203 0)
(0.0367624 -0.0118358 0)
(0.041754 -0.00977894 0)
(0.0457542 -0.00764709 0)
(0.0487633 -0.00552276 0)
(0.0508196 -0.00348645 0)
(0.0519717 -0.00158731 0)
(0.0523224 0.000124376 0)
(0.0519656 0.00165466 0)
(0.0509679 0.00297063 0)
(0.0494389 0.0040807 0)
(0.0474826 0.00495975 0)
(0.045199 0.0056207 0)
(0.0426828 0.0060693 0)
(0.0400192 0.0063183 0)
(0.0372918 0.00639182 0)
(0.0345709 0.00630929 0)
(0.0319138 0.00609067 0)
(0.0293671 0.00576656 0)
(0.0269717 0.0053708 0)
(0.0247481 0.00493724 0)
(0.0227019 0.00450159 0)
(0.0208288 0.00408197 0)
(0.0190996 0.00370654 0)
(0.01749 0.00337699 0)
(0.0159656 0.00311363 0)
(0.0144974 0.00292744 0)
(0.013071 0.00281171 0)
(0.0116513 0.00275353 0)
(0.0102131 0.00274593 0)
(0.00873614 0.00278193 0)
(0.00720222 0.00284909 0)
(0.00560697 0.00292893 0)
(0.00395288 0.00300881 0)
(0.00224559 0.00307812 0)
(0.000500903 0.00313501 0)
(-0.00127155 0.00317471 0)
(-0.0030552 0.00319275 0)
(-0.0048284 0.00318859 0)
(-0.00657637 0.00316674 0)
(-0.00828697 0.00313616 0)
(-0.00995376 0.00310695 0)
(-0.0115766 0.00308976 0)
(-0.0131615 0.00310131 0)
(-0.0147256 0.00314835 0)
(-0.0162907 0.0032401 0)
(-0.0178744 0.00338494 0)
(-0.0194975 0.00358958 0)
(-0.0211831 0.00385082 0)
(-0.0229553 0.0041542 0)
(-0.0248412 0.00449456 0)
(-0.0268572 0.00485408 0)
(-0.0290165 0.00521085 0)
(-0.0313223 0.0055356 0)
(-0.0337595 0.00579544 0)
(-0.0362702 0.00594979 0)
(-0.0388148 0.00599144 0)
(-0.0413691 0.00588574 0)
(-0.0438414 0.00561405 0)
(-0.0461602 0.00515705 0)
(-0.0482525 0.00450228 0)
(-0.0500122 0.00365101 0)
(-0.0513512 0.00258272 0)
(-0.0521815 0.00130749 0)
(-0.0524094 -0.000168823 0)
(-0.051936 -0.00183792 0)
(-0.0506819 -0.00366382 0)
(-0.0485665 -0.00563528 0)
(-0.045515 -0.00770185 0)
(-0.0414926 -0.00978283 0)
(-0.0364952 -0.011798 0)
(-0.0305632 -0.0136483 0)
(-0.0237973 -0.01517 0)
(-0.0164501 -0.0159859 0)
(-0.00892025 -0.0154856 0)
(-0.0023996 -0.0127064 0)
(0.00258444 -0.0189036 0)
(0.00965021 -0.0231718 0)
(0.0178703 -0.0239443 0)
(0.0258865 -0.0226956 0)
(0.0332357 -0.0203568 0)
(0.0395956 -0.0175082 0)
(0.044849 -0.0144071 0)
(0.0489708 -0.0112177 0)
(0.0519986 -0.00807343 0)
(0.0539977 -0.00508283 0)
(0.0550354 -0.00231617 0)
(0.0552316 0.000194914 0)
(0.0546974 0.00240166 0)
(0.0535099 0.00431434 0)
(0.0517811 0.00589544 0)
(0.0496298 0.00715996 0)
(0.0471487 0.00811632 0)
(0.0444279 0.00875894 0)
(0.041575 0.00911474 0)
(0.0386734 0.00921535 0)
(0.0357968 0.00909003 0)
(0.0330077 0.00877231 0)
(0.0303557 0.00830914 0)
(0.027878 0.00774815 0)
(0.0255952 0.00713499 0)
(0.0235115 0.00652117 0)
(0.0216277 0.00593324 0)
(0.0199021 0.00540072 0)
(0.0182963 0.00496027 0)
(0.016792 0.00461385 0)
(0.0153427 0.00438423 0)
(0.0139079 0.0042568 0)
(0.0124561 0.00421797 0)
(0.0109617 0.00425582 0)
(0.00940421 0.00435198 0)
(0.00776975 0.00448464 0)
(0.00606146 0.0046337 0)
(0.00428928 0.00477507 0)
(0.00246036 0.00489129 0)
(0.000593147 0.00497895 0)
(-0.00130089 0.00503612 0)
(-0.0032079 0.00505624 0)
(-0.00510792 0.00503689 0)
(-0.00698394 0.00498337 0)
(-0.00881822 0.00490574 0)
(-0.0106009 0.00482322 0)
(-0.0123238 0.0047567 0)
(-0.0139867 0.00472509 0)
(-0.0156051 0.00474802 0)
(-0.0171974 0.00483744 0)
(-0.0187869 0.00500528 0)
(-0.0204059 0.00526045 0)
(-0.0220865 0.0055998 0)
(-0.0238568 0.00601916 0)
(-0.0257535 0.00649721 0)
(-0.0278046 0.00700473 0)
(-0.0300206 0.00750701 0)
(-0.0324047 0.00796562 0)
(-0.0349406 0.00833543 0)
(-0.0375702 0.00857751 0)
(-0.0402572 0.00863332 0)
(-0.0429698 0.00848478 0)
(-0.0456202 0.00810675 0)
(-0.0481252 0.00745191 0)
(-0.0503907 0.00650566 0)
(-0.0523343 0.00526988 0)
(-0.0538616 0.0037351 0)
(-0.054863 0.00190223 0)
(-0.0552552 -0.000240697 0)
(-0.0549267 -0.00265899 0)
(-0.053786 -0.00534405 0)
(-0.0517337 -0.00824986 0)
(-0.0486633 -0.0113095 0)
(-0.0445221 -0.0144201 0)
(-0.0392749 -0.0174622 0)
(-0.0329317 -0.0202687 0)
(-0.0256073 -0.0225662 0)
(-0.0176258 -0.0237581 0)
(-0.00946189 -0.0228933 0)
(-0.00249302 -0.0184654 0)
(0.00269385 -0.0251328 0)
(0.010288 -0.0312502 0)
(0.019343 -0.0324615 0)
(0.0282129 -0.0307837 0)
(0.0362924 -0.0275137 0)
(0.0431486 -0.0235058 0)
(0.04865 -0.0191861 0)
(0.0528117 -0.0147997 0)
(0.0557261 -0.0105281 0)
(0.0575117 -0.00650535 0)
(0.0582839 -0.00281159 0)
(0.0581603 0.00051144 0)
(0.0572876 0.00343709 0)
(0.0557465 0.00594663 0)
(0.0536553 0.00801954 0)
(0.0511626 0.00967071 0)
(0.0483301 0.0108988 0)
(0.0452723 0.0117163 0)
(0.0421122 0.0121569 0)
(0.0389364 0.0122537 0)
(0.0358263 0.0120494 0)
(0.0328496 0.0115919 0)
(0.0300609 0.0109448 0)
(0.0275001 0.0101692 0)
(0.0251878 0.0093259 0)
(0.0231124 0.00850025 0)
(0.0212595 0.00771731 0)
(0.019616 0.00701354 0)
(0.0181259 0.00645627 0)
(0.0167317 0.00604007 0)
(0.0153871 0.00577511 0)
(0.0140439 0.00565745 0)
(0.0126647 0.00566455 0)
(0.0112133 0.00577289 0)
(0.0096668 0.00595023 0)
(0.00802359 0.00616792 0)
(0.00628986 0.00639563 0)
(0.00447579 0.00660303 0)
(0.00259955 0.0067698 0)
(0.000683402 0.00689177 0)
(-0.00126285 0.00696854 0)
(-0.00322533 0.00699207 0)
(-0.00518099 0.00695645 0)
(-0.00711145 0.00686854 0)
(-0.00899158 0.00673888 0)
(-0.0108033 0.00658981 0)
(-0.0125389 0.00645049 0)
(-0.0141924 0.00635361 0)
(-0.015771 0.0063255 0)
(-0.0172988 0.00639153 0)
(-0.0188076 0.00657118 0)
(-0.0203419 0.00686897 0)
(-0.0219348 0.00728991 0)
(-0.0236286 0.00784351 0)
(-0.0254819 0.00847588 0)
(-0.0275244 0.00914787 0)
(-0.0297698 0.00984013 0)
(-0.032226 0.0104775 0)
(-0.0348786 0.0110046 0)
(-0.0376869 0.0113582 0)
(-0.0405976 0.0114785 0)
(-0.0435543 0.0113203 0)
(-0.0464839 0.0108461 0)
(-0.0493032 0.0100144 0)
(-0.0519009 0.00879096 0)
(-0.0541701 0.00717015 0)
(-0.0560216 0.00515533 0)
(-0.0573717 0.00274743 0)
(-0.0580991 -7.14225e-05 0)
(-0.0580787 -0.00326615 0)
(-0.0572082 -0.00685197 0)
(-0.0553582 -0.0107567 0)
(-0.052408 -0.0149088 0)
(-0.0482474 -0.0191989 0)
(-0.0427679 -0.0234462 0)
(-0.0359394 -0.0274023 0)
(-0.0278926 -0.0306244 0)
(-0.0190609 -0.0322236 0)
(-0.0100796 -0.0308899 0)
(-0.0025963 -0.0245438 0)
(0.00281557 -0.0317673 0)
(0.0110539 -0.0401034 0)
(0.0212248 -0.0419562 0)
(0.0313061 -0.039828 0)
(0.0404197 -0.0353932 0)
(0.047927 -0.0299132 0)
(0.053685 -0.0240884 0)
(0.0578122 -0.0182959 0)
(0.060505 -0.0127579 0)
(0.0619529 -0.00761936 0)
(0.0623084 -0.0029506 0)
(0.0617459 0.00121848 0)
(0.0604068 0.00489105 0)
(0.058383 0.00799941 0)
(0.0558154 0.0105681 0)
(0.0528379 0.0126034 0)
(0.0495363 0.0140879 0)
(0.0460372 0.0150633 0)
(0.042472 0.0155493 0)
(0.0389327 0.0155897 0)
(0.0355122 0.0152604 0)
(0.0322908 0.0145981 0)
(0.0293301 0.0137044 0)
(0.0266615 0.0126637 0)
(0.0243248 0.0115505 0)
(0.0222942 0.0104404 0)
(0.0205263 0.00941274 0)
(0.0190204 0.0085273 0)
(0.0176951 0.00781711 0)
(0.0164694 0.00731611 0)
(0.0152999 0.00702806 0)
(0.0141158 0.00694025 0)
(0.0128621 0.00701887 0)
(0.0114977 0.0072266 0)
(0.0100003 0.00752138 0)
(0.00836996 0.00785674 0)
(0.00661365 0.00818548 0)
(0.00475132 0.00847472 0)
(0.0028087 0.00870367 0)
(0.00081461 0.00886709 0)
(-0.00121647 0.00896505 0)
(-0.00326536 0.00899126 0)
(-0.00530156 0.00893516 0)
(-0.00730036 0.00879987 0)
(-0.00922969 0.00860094 0)
(-0.0110641 0.00836373 0)
(-0.0127837 0.00812332 0)
(-0.0143861 0.0079296 0)
(-0.0158812 0.00782288 0)
(-0.017287 0.00784084 0)
(-0.0186553 0.00801304 0)
(-0.0200432 0.0083563 0)
(-0.0214804 0.00888373 0)
(-0.0230526 0.00958426 0)
(-0.0248421 0.0104027 0)
(-0.026842 0.011319 0)
(-0.0290969 0.0122434 0)
(-0.0316429 0.0131089 0)
(-0.0344545 0.0138454 0)
(-0.0374826 0.014371 0)
(-0.0406747 0.0145894 0)
(-0.0439736 0.0144677 0)
(-0.047278 0.013928 0)
(-0.0505082 0.0129325 0)
(-0.0535498 0.0114578 0)
(-0.05628 0.00947486 0)
(-0.0585886 0.00699419 0)
(-0.0603876 0.00399114 0)
(-0.0615549 0.000484613 0)
(-0.0619647 -0.00352558 0)
(-0.0614997 -0.00804699 0)
(-0.0599967 -0.0130332 0)
(-0.0573014 -0.0184138 0)
(-0.0532002 -0.0240826 0)
(-0.0474748 -0.0298139 0)
(-0.0400105 -0.0352381 0)
(-0.0309371 -0.0396197 0)
(-0.0209044 -0.0416498 0)
(-0.0108165 -0.0396324 0)
(-0.00269981 -0.0309961 0)
(0.00294193 -0.0388605 0)
(0.0118626 -0.0499233 0)
(0.0234085 -0.0527911 0)
(0.0352469 -0.0502136 0)
(0.0459091 -0.0442614 0)
(0.054309 -0.0368245 0)
(0.0603118 -0.0290864 0)
(0.0642562 -0.0216001 0)
(0.0665381 -0.0146298 0)
(0.0674658 -0.00828476 0)
(0.0672657 -0.00260136 0)
(0.066139 0.00245714 0)
(0.0642014 0.00686562 0)
(0.0615658 0.0105834 0)
(0.0584135 0.0136606 0)
(0.0548368 0.0160675 0)
(0.0509407 0.0177912 0)
(0.046888 0.0188915 0)
(0.0428011 0.0193864 0)
(0.0388183 0.0193174 0)
(0.0350131 0.0187818 0)
(0.0314782 0.0178439 0)
(0.0283183 0.0166189 0)
(0.0255473 0.0152154 0)
(0.023174 0.013738 0)
(0.0211931 0.0122965 0)
(0.0195751 0.0109704 0)
(0.0182601 0.0098506 0)
(0.0171649 0.00896566 0)
(0.0161986 0.00837873 0)
(0.0152723 0.00808435 0)
(0.0142999 0.00804964 0)
(0.013216 0.0082429 0)
(0.0119736 0.00859947 0)
(0.0105414 0.00905881 0)
(0.00891673 0.00955218 0)
(0.0071174 0.0100214 0)
(0.00517353 0.0104229 0)
(0.00312177 0.0107351 0)
(0.00100002 0.0109522 0)
(-0.00116722 0.0110764 0)
(-0.0033521 0.0111015 0)
(-0.00551804 0.0110115 0)
(-0.00762716 0.0108056 0)
(-0.00963306 0.0105031 0)
(-0.0115018 0.0101387 0)
(-0.0132064 0.00975975 0)
(-0.0147395 0.00942324 0)
(-0.0161152 0.00919434 0)
(-0.0173587 0.00913386 0)
(-0.0185265 0.00927653 0)
(-0.0196909 0.00966329 0)
(-0.0209187 0.0103101 0)
(-0.0223204 0.0111763 0)
(-0.0239565 0.0122482 0)
(-0.0258894 0.0134624 0)
(-0.0281798 0.0146974 0)
(-0.0308154 0.0158754 0)
(-0.0338004 0.0169025 0)
(-0.0371212 0.0176756 0)
(-0.0406744 0.0180641 0)
(-0.0443798 0.0180258 0)
(-0.0481666 0.0174743 0)
(-0.0519101 0.0163549 0)
(-0.0555014 0.0146444 0)
(-0.0587882 0.0123156 0)
(-0.061669 0.00935658 0)
(-0.0640487 0.00575694 0)
(-0.0657756 0.00153901 0)
(-0.0667475 -0.00330982 0)
(-0.0668414 -0.00879397 0)
(-0.0658627 -0.0149331 0)
(-0.063594 -0.0216999 0)
(-0.059706 -0.0290175 0)
(-0.053779 -0.0366544 0)
(-0.0454531 -0.0440426 0)
(-0.0348255 -0.0499577 0)
(-0.0230194 -0.0524201 0)
(-0.0115694 -0.0493392 0)
(-0.00280038 -0.0378815 0)
(0.00302853 -0.046339 0)
(0.0122246 -0.0607263 0)
(0.0252617 -0.0653505 0)
(0.0398212 -0.0625805 0)
(0.053025 -0.0545699 0)
(0.0627423 -0.0443269 0)
(0.0689148 -0.0340158 0)
(0.0724017 -0.0244924 0)
(0.0739789 -0.015949 0)
(0.0741445 -0.00834217 0)
(0.0732093 -0.00160959 0)
(0.0713607 0.00433256 0)
(0.0686771 0.00949923 0)
(0.0653362 0.0138637 0)
(0.0614769 0.0174436 0)
(0.0571457 0.0201875 0)
(0.0525278 0.022149 0)
(0.0478056 0.023328 0)
(0.0430879 0.0237715 0)
(0.038537 0.0235288 0)
(0.0342613 0.0226874 0)
(0.0303595 0.0213772 0)
(0.0269423 0.0197178 0)
(0.0240342 0.0178378 0)
(0.0216725 0.0159131 0)
(0.0198086 0.0140207 0)
(0.0183785 0.01233 0)
(0.0173342 0.010909 0)
(0.016565 0.00982373 0)
(0.0159489 0.00914968 0)
(0.0153472 0.00886892 0)
(0.0146614 0.00893748 0)
(0.0138021 0.00929743 0)
(0.0127009 0.00987267 0)
(0.0113343 0.010561 0)
(0.00970248 0.0112742 0)
(0.0078304 0.0119359 0)
(0.0057627 0.0124904 0)
(0.00355193 0.0129129 0)
(0.00124985 0.0131999 0)
(-0.0011064 0.0133576 0)
(-0.00348504 0.0133774 0)
(-0.00583822 0.013236 0)
(-0.00811026 0.0129279 0)
(-0.0102356 0.0124762 0)
(-0.0121638 0.0119285 0)
(-0.0138621 0.0113422 0)
(-0.0153173 0.0107994 0)
(-0.0165346 0.0103979 0)
(-0.0175555 0.0102089 0)
(-0.0184519 0.0102964 0)
(-0.0193107 0.0107175 0)
(-0.0202518 0.0114933 0)
(-0.0213894 0.0125877 0)
(-0.0228209 0.0139776 0)
(-0.0246457 0.0155547 0)
(-0.0269234 0.0172027 0)
(-0.0296654 0.0187962 0)
(-0.0328729 0.0202211 0)
(-0.0365317 0.0213256 0)
(-0.0405249 0.021993 0)
(-0.0447463 0.0221056 0)
(-0.0491136 0.0215887 0)
(-0.0534956 0.0203809 0)
(-0.0577533 0.0184454 0)
(-0.0617385 0.0157526 0)
(-0.0653231 0.0123071 0)
(-0.0683797 0.00812567 0)
(-0.0707826 0.00320486 0)
(-0.0724408 -0.00247167 0)
(-0.0732684 -0.00892778 0)
(-0.0730671 -0.0162415 0)
(-0.0715356 -0.0245257 0)
(-0.0681687 -0.0338538 0)
(-0.0621405 -0.0440702 0)
(-0.0525248 -0.054299 0)
(-0.0393396 -0.0623117 0)
(-0.0247805 -0.0649241 0)
(-0.0118333 -0.0600279 0)
(-0.00284569 -0.0451192 0)
(0.00295096 -0.0537536 0)
(0.0116016 -0.0722099 0)
(0.0272877 -0.0803973 0)
(0.0459903 -0.0783576 0)
(0.0626508 -0.0673575 0)
(0.0740024 -0.05266 0)
(0.0800233 -0.0386062 0)
(0.0824837 -0.0265841 0)
(0.0828884 -0.0163617 0)
(0.0819994 -0.00753432 0)
(0.0801324 0.000204084 0)
(0.0774301 0.00699355 0)
(0.0739166 0.0128896 0)
(0.0697125 0.0179076 0)
(0.0649555 0.0219865 0)
(0.0597581 0.0251237 0)
(0.0542906 0.0272959 0)
(0.0487309 0.0285175 0)
(0.0432493 0.0288304 0)
(0.0380113 0.0283067 0)
(0.0331595 0.0270588 0)
(0.0288205 0.0252507 0)
(0.0251043 0.023026 0)
(0.0220818 0.0205545 0)
(0.0197131 0.018026 0)
(0.0179889 0.0155863 0)
(0.0168686 0.0134098 0)
(0.0161937 0.0116222 0)
(0.01588 0.0103177 0)
(0.0157449 0.00953508 0)
(0.0155817 0.00928827 0)
(0.0152625 0.00952114 0)
(0.0146887 0.010138 0)
(0.0137716 0.0110201 0)
(0.0124714 0.0120332 0)
(0.0108049 0.0130521 0)
(0.00881099 0.0139734 0)
(0.00655855 0.0147312 0)
(0.00412336 0.0152946 0)
(0.00157861 0.0156678 0)
(-0.00102753 0.0158674 0)
(-0.00366958 0.0158811 0)
(-0.00628638 0.0156716 0)
(-0.00879322 0.0152233 0)
(-0.0110953 0.0145651 0)
(-0.0131288 0.0137514 0)
(-0.0148404 0.0128701 0)
(-0.0161904 0.0120367 0)
(-0.0172049 0.0113707 0)
(-0.0179402 0.0109859 0)
(-0.0184688 0.0109781 0)
(-0.0189145 0.0114169 0)
(-0.0194441 0.0123561 0)
(-0.0202108 0.0137407 0)
(-0.0213444 0.0155249 0)
(-0.0229974 0.0175776 0)
(-0.0252496 0.0197667 0)
(-0.0280937 0.0218972 0)
(-0.0315561 0.0238502 0)
(-0.0356206 0.0254114 0)
(-0.0401452 0.0264596 0)
(-0.0450104 0.0268238 0)
(-0.0500956 0.0264031 0)
(-0.0552487 0.0251476 0)
(-0.0603252 0.0230075 0)
(-0.0651196 0.0199613 0)
(-0.069487 0.0160321 0)
(-0.073335 0.0112529 0)
(-0.076546 0.00565312 0)
(-0.0790509 -0.000804368 0)
(-0.0807921 -0.00817519 0)
(-0.0816557 -0.0166246 0)
(-0.0813585 -0.026508 0)
(-0.0791134 -0.0382839 0)
(-0.0733426 -0.0522442 0)
(-0.0622142 -0.0670226 0)
(-0.0456662 -0.078104 0)
(-0.0269354 -0.0800199 0)
(-0.0111419 -0.0713688 0)
(-0.00269507 -0.0521652 0)
(0.00253061 -0.0607967 0)
(0.0135644 -0.0858288 0)
(0.0385707 -0.100254 0)
(0.0629479 -0.0984147 0)
(0.0804472 -0.0826003 0)
(0.090514 -0.0613755 0)
(0.0944743 -0.0421921 0)
(0.0947376 -0.0272126 0)
(0.0932743 -0.0154104 0)
(0.0909508 -0.00555986 0)
(0.0879671 0.00303559 0)
(0.0842671 0.0106099 0)
(0.079817 0.0172138 0)
(0.0746723 0.022881 0)
(0.068939 0.027506 0)
(0.0627047 0.0310539 0)
(0.0561767 0.0334096 0)
(0.0496184 0.0346042 0)
(0.0431946 0.0346985 0)
(0.0371229 0.0337801 0)
(0.0315922 0.0319947 0)
(0.0267314 0.0295382 0)
(0.022669 0.0265778 0)
(0.0194763 0.0233232 0)
(0.0171728 0.0199879 0)
(0.0156954 0.0168562 0)
(0.0149588 0.0140748 0)
(0.0148308 0.0118459 0)
(0.0151078 0.010276 0)
(0.0155849 0.00939124 0)
(0.0160284 0.00924299 0)
(0.0162275 0.00973014 0)
(0.0160299 0.010721 0)
(0.0153288 0.0120345 0)
(0.0140913 0.0134987 0)
(0.0123409 0.0149336 0)
(0.0101483 0.0162025 0)
(0.00761945 0.0172197 0)
(0.00486732 0.0179531 0)
(0.0020056 0.0184248 0)
(-0.000913965 0.0186792 0)
(-0.00390773 0.0186986 0)
(-0.00689798 0.0184067 0)
(-0.00974706 0.0177724 0)
(-0.0123233 0.016829 0)
(-0.0145243 0.0156498 0)
(-0.0162638 0.01436 0)
(-0.0175034 0.0131131 0)
(-0.0182559 0.0120633 0)
(-0.0185909 0.0113833 0)
(-0.0186256 0.0112135 0)
(-0.0184969 0.0116579 0)
(-0.0184554 0.0127537 0)
(-0.0187145 0.0144981 0)
(-0.0194462 0.0167811 0)
(-0.0208349 0.019456 0)
(-0.0230041 0.0223539 0)
(-0.0259615 0.0252217 0)
(-0.0297199 0.0278672 0)
(-0.034261 0.0300368 0)
(-0.0394189 0.0315743 0)
(-0.0450751 0.0322913 0)
(-0.0510337 0.0320557 0)
(-0.0571144 0.0307848 0)
(-0.0631501 0.0284316 0)
(-0.0689133 0.0250391 0)
(-0.0742216 0.0206135 0)
(-0.0789389 0.0152326 0)
(-0.0830174 0.00896976 0)
(-0.0864587 0.00183208 0)
(-0.0892955 -0.00626433 0)
(-0.0916065 -0.0156169 0)
(-0.0932303 -0.0269458 0)
(-0.0933253 -0.0415444 0)
(-0.0899448 -0.0605528 0)
(-0.0806469 -0.0818439 0)
(-0.0637649 -0.097952 0)
(-0.03925 -0.100038 0)
(-0.0133986 -0.0850219 0)
(-0.00211932 -0.0587966 0)
(0.0021706 -0.0698372 0)
(0.0309082 -0.109101 0)
(0.0764718 -0.127583 0)
(0.107674 -0.118608 0)
(0.118811 -0.0933705 0)
(0.118076 -0.0655014 0)
(0.113655 -0.0423833 0)
(0.108995 -0.0253185 0)
(0.104738 -0.0126302 0)
(0.10072 -0.00222082 0)
(0.0965531 0.00695316 0)
(0.0918348 0.0152082 0)
(0.0864022 0.0225617 0)
(0.0802189 0.0288932 0)
(0.0733418 0.0340707 0)
(0.0658851 0.0380005 0)
(0.0580939 0.0405719 0)
(0.0503219 0.0417263 0)
(0.0427803 0.0415612 0)
(0.0357172 0.0401447 0)
(0.0293769 0.0376532 0)
(0.023903 0.0343271 0)
(0.0194222 0.030412 0)
(0.0160576 0.0261371 0)
(0.013853 0.021813 0)
(0.0127313 0.0177339 0)
(0.0125645 0.0141861 0)
(0.0131535 0.0113839 0)
(0.0142356 0.00947997 0)
(0.0155759 0.00856796 0)
(0.0168387 0.00858227 0)
(0.0177076 0.00945024 0)
(0.017995 0.0109689 0)
(0.0175689 0.0129026 0)
(0.0163819 0.0149967 0)
(0.0144696 0.0169997 0)
(0.0119529 0.0187293 0)
(0.0090031 0.020068 0)
(0.00581198 0.0209847 0)
(0.00255718 0.0215457 0)
(-0.000729857 0.0218769 0)
(-0.00417705 0.0219471 0)
(-0.00769664 0.0215745 0)
(-0.0110588 0.0206948 0)
(-0.0140505 0.019357 0)
(-0.0165138 0.0176805 0)
(-0.0183245 0.0158142 0)
(-0.0194263 0.0139752 0)
(-0.0198392 0.0123886 0)
(-0.0196435 0.0112724 0)
(-0.0189893 0.0108291 0)
(-0.0181114 0.011243 0)
(-0.0172886 0.0125297 0)
(-0.0168186 0.0146981 0)
(-0.0169765 0.0176181 0)
(-0.0179728 0.0211189 0)
(-0.0199892 0.0249363 0)
(-0.0230504 0.0287855 0)
(-0.0271765 0.0323298 0)
(-0.0323053 0.0353213 0)
(-0.0382326 0.0374995 0)
(-0.0448219 0.038675 0)
(-0.0518486 0.0386916 0)
(-0.0590769 0.0374528 0)
(-0.0662388 0.0349158 0)
(-0.073083 0.0310957 0)
(-0.0794288 0.0261113 0)
(-0.0851066 0.0201111 0)
(-0.090084 0.0131871 0)
(-0.094452 0.00549706 0)
(-0.0984324 -0.00301293 0)
(-0.102426 -0.0127332 0)
(-0.10687 -0.0247359 0)
(-0.112136 -0.0410901 0)
(-0.117816 -0.0635971 0)
(-0.120235 -0.0913715 0)
(-0.110161 -0.117595 0)
(-0.0786134 -0.127847 0)
(-0.0317442 -0.10913 0)
(-0.00164661 -0.0675276 0)
(0.0070671 -0.089823 0)
(0.0712427 -0.159045 0)
(0.135716 -0.170102 0)
(0.171524 -0.138188 0)
(0.174588 -0.0915893 0)
(0.15717 -0.0549608 0)
(0.137368 -0.0327988 0)
(0.124213 -0.0184296 0)
(0.116351 -0.00725137 0)
(0.110728 0.00264396 0)
(0.105558 0.0119824 0)
(0.0999733 0.0208443 0)
(0.0935363 0.0289474 0)
(0.0861659 0.0360643 0)
(0.0780049 0.0419197 0)
(0.0691777 0.0463215 0)
(0.0599387 0.0491451 0)
(0.0507261 0.0501371 0)
(0.0418207 0.0496092 0)
(0.0335271 0.0475271 0)
(0.0261929 0.0441433 0)
(0.0200011 0.039725 0)
(0.0150724 0.0345686 0)
(0.011541 0.0289847 0)
(0.00949527 0.0233637 0)
(0.00885952 0.0180979 0)
(0.00946678 0.0135501 0)
(0.0110522 0.0100257 0)
(0.0132945 0.00774793 0)
(0.015773 0.006772 0)
(0.0180941 0.00703578 0)
(0.0198937 0.00846893 0)
(0.0208436 0.0107696 0)
(0.0207664 0.0136004 0)
(0.0195891 0.0165822 0)
(0.0173838 0.0193818 0)
(0.0143551 0.0217238 0)
(0.0107866 0.0234409 0)
(0.00700254 0.0245038 0)
(0.00326523 0.0250963 0)
(-0.000456944 0.0255442 0)
(-0.00447891 0.0257782 0)
(-0.00872703 0.0253737 0)
(-0.0128368 0.0241893 0)
(-0.016451 0.0223064 0)
(-0.019329 0.0199089 0)
(-0.0212801 0.017231 0)
(-0.0222113 0.0145502 0)
(-0.0221674 0.0121844 0)
(-0.0212643 0.0104554 0)
(-0.019671 0.009635 0)
(-0.0177171 0.00990761 0)
(-0.0158422 0.0113882 0)
(-0.0143983 0.0140869 0)
(-0.0137349 0.0178662 0)
(-0.0141674 0.0224553 0)
(-0.015923 0.027512 0)
(-0.0190806 0.0326192 0)
(-0.0236207 0.0373392 0)
(-0.0294383 0.0413969 0)
(-0.0363149 0.0444178 0)
(-0.0440388 0.0462145 0)
(-0.0523281 0.0465553 0)
(-0.0608765 0.0454552 0)
(-0.0694186 0.0426688 0)
(-0.0775988 0.0382935 0)
(-0.0850871 0.0326529 0)
(-0.0917708 0.0258896 0)
(-0.0975971 0.0183133 0)
(-0.102696 0.0101843 0)
(-0.10758 0.00168988 0)
(-0.113116 -0.00725729 0)
(-0.121155 -0.017361 0)
(-0.135168 -0.030369 0)
(-0.15668 -0.0512969 0)
(-0.175762 -0.0882297 0)
(-0.173276 -0.137285 0)
(-0.13725 -0.171864 0)
(-0.0723277 -0.160931 0)
(-0.00685128 -0.0877867 0)
(0.0275759 -0.141107 0)
(0.108387 -0.243904 0)
(0.171102 -0.23087 0)
(0.202743 -0.163373 0)
(0.204357 -0.0854298 0)
(0.182488 -0.031879 0)
(0.154314 -0.0102498 0)
(0.135491 -0.00420115 0)
(0.125823 0.000851609 0)
(0.119925 0.00839083 0)
(0.114684 0.0175722 0)
(0.10866 0.0272138 0)
(0.101406 0.0363736 0)
(0.0929196 0.044502 0)
(0.0833176 0.0512846 0)
(0.0728601 0.0563069 0)
(0.0617792 0.0594014 0)
(0.0507564 0.0602735 0)
(0.0402359 0.0591462 0)
(0.030462 0.0561091 0)
(0.0219517 0.0515928 0)
(0.0148543 0.0457914 0)
(0.00933992 0.0391019 0)
(0.00561289 0.0318433 0)
(0.00380767 0.0245565 0)
(0.00384538 0.0177212 0)
(0.00551366 0.0118718 0)
(0.00848014 0.00741578 0)
(0.0122397 0.0046163 0)
(0.0162576 0.00360296 0)
(0.0200799 0.00435408 0)
(0.0231274 0.00660507 0)
(0.0249414 0.0100129 0)
(0.0252802 0.0141243 0)
(0.024068 0.0183839 0)
(0.0214358 0.0222842 0)
(0.0176982 0.0254155 0)
(0.0132972 0.0275345 0)
(0.0086933 0.0286472 0)
(0.0042169 0.0291692 0)
(-0.000231154 0.0297884 0)
(-0.00509941 0.0303627 0)
(-0.0103299 0.0300374 0)
(-0.0154293 0.0285056 0)
(-0.0198896 0.0258949 0)
(-0.0233281 0.0224877 0)
(-0.0254809 0.01865 0)
(-0.0262264 0.014774 0)
(-0.0255841 0.0113106 0)
(-0.0237116 0.00867719 0)
(-0.0209075 0.00725111 0)
(-0.0175785 0.00726686 0)
(-0.0141852 0.00896871 0)
(-0.0112905 0.0123899 0)
(-0.00945962 0.0173079 0)
(-0.00909852 0.0233276 0)
(-0.0105113 0.0300142 0)
(-0.0138025 0.0367484 0)
(-0.0188536 0.0430162 0)
(-0.0255349 0.0483707 0)
(-0.0335588 0.0524798 0)
(-0.0426731 0.0551346 0)
(-0.0524809 0.0559524 0)
(-0.0627024 0.0549135 0)
(-0.0730091 0.0517601 0)
(-0.0826607 0.0468238 0)
(-0.0913879 0.0403267 0)
(-0.0990409 0.0325604 0)
(-0.10547 0.0240167 0)
(-0.110843 0.0152641 0)
(-0.115657 0.00715049 0)
(-0.121297 0.000827514 0)
(-0.130984 -0.00266654 0)
(-0.150441 -0.00673183 0)
(-0.179726 -0.026831 0)
(-0.202172 -0.0814188 0)
(-0.200568 -0.162556 0)
(-0.169319 -0.233012 0)
(-0.107759 -0.24635 0)
(-0.028052 -0.139783 0)
(0.0461899 -0.225086 0)
(0.102769 -0.324442 0)
(0.141179 -0.274171 0)
(0.161153 -0.176998 0)
(0.167063 -0.0785657 0)
(0.156929 -0.0122585 0)
(0.141551 0.0101205 0)
(0.133438 0.00930217 0)
(0.130401 0.00827963 0)
(0.128033 0.0136575 0)
(0.124674 0.0233554 0)
(0.119412 0.0342931 0)
(0.11195 0.0448619 0)
(0.102578 0.0542525 0)
(0.0915587 0.0621224 0)
(0.0791838 0.0680156 0)
(0.0659295 0.0714843 0)
(0.0524912 0.0722343 0)
(0.0395858 0.070365 0)
(0.0278717 0.0661652 0)
(0.0177783 0.0601803 0)
(0.00937691 0.052602 0)
(0.00292589 0.0439711 0)
(-0.00126768 0.03468 0)
(-0.00290367 0.0252849 0)
(-0.00203882 0.0165155 0)
(0.00106829 0.00884423 0)
(0.00588401 0.00314174 0)
(0.011776 -0.000328083 0)
(0.0179791 -0.00132035 0)
(0.0236762 8.2908e-05 0)
(0.0281997 0.00353353 0)
(0.0310444 0.00854356 0)
(0.0318912 0.014459 0)
(0.0306582 0.0204837 0)
(0.027579 0.0258465 0)
(0.0230749 0.0299879 0)
(0.0176243 0.0326127 0)
(0.0116956 0.0337957 0)
(0.00566514 0.0342426 0)
(-0.000456612 0.0350755 0)
(-0.00694426 0.03607 0)
(-0.0136537 0.0358416 0)
(-0.019988 0.0338524 0)
(-0.0253687 0.0302767 0)
(-0.0293741 0.0255302 0)
(-0.0317221 0.0201014 0)
(-0.0322661 0.0145852 0)
(-0.0310117 0.00959425 0)
(-0.0280823 0.0056708 0)
(-0.0237555 0.00329249 0)
(-0.0185167 0.00293089 0)
(-0.0130002 0.00491499 0)
(-0.0080963 0.00925632 0)
(-0.00465364 0.0156787 0)
(-0.003232 0.0235507 0)
(-0.00425543 0.0323669 0)
(-0.00784483 0.0411991 0)
(-0.0137715 0.0494502 0)
(-0.021717 0.056505 0)
(-0.0312157 0.0620316 0)
(-0.0421553 0.0656204 0)
(-0.0541356 0.0671117 0)
(-0.0665938 0.0661269 0)
(-0.0788869 0.0625803 0)
(-0.0902771 0.0568585 0)
(-0.10037 0.0491302 0)
(-0.108786 0.0401329 0)
(-0.115233 0.0302681 0)
(-0.119656 0.0203605 0)
(-0.122441 0.0119781 0)
(-0.124426 0.00801512 0)
(-0.12718 0.0108268 0)
(-0.135009 0.0137483 0)
(-0.150761 -0.00665962 0)
(-0.161339 -0.0737192 0)
(-0.155598 -0.174814 0)
(-0.136782 -0.274212 0)
(-0.100311 -0.324575 0)
(-0.0456357 -0.222747 0)
(0.0348537 -0.293284 0)
(0.0506344 -0.353523 0)
(0.0634961 -0.278392 0)
(0.0735075 -0.171944 0)
(0.0875722 -0.0737484 0)
(0.0997697 -0.0116209 0)
(0.111706 0.00845321 0)
(0.124532 0.00761936 0)
(0.133923 0.00694234 0)
(0.138544 0.013704 0)
(0.139016 0.025879 0)
(0.135558 0.0397974 0)
(0.128492 0.0531273 0)
(0.118431 0.0648466 0)
(0.105985 0.0745265 0)
(0.0914731 0.0817302 0)
(0.0753666 0.085999 0)
(0.0587856 0.0867452 0)
(0.0428502 0.0839662 0)
(0.0284672 0.0784286 0)
(0.0160743 0.0704582 0)
(0.00573783 0.0608588 0)
(-0.00212015 0.0497429 0)
(-0.00715235 0.0375358 0)
(-0.00872102 0.0253875 0)
(-0.00698474 0.0138174 0)
(-0.00209969 0.00386036 0)
(0.00529725 -0.0035332 0)
(0.0139509 -0.00774646 0)
(0.0228564 -0.00854031 0)
(0.0308854 -0.00607375 0)
(0.0371675 -0.00087062 0)
(0.0411351 0.00629727 0)
(0.0425366 0.0145211 0)
(0.0414038 0.0227338 0)
(0.0380206 0.0299491 0)
(0.0327095 0.0355046 0)
(0.0257049 0.0391153 0)