/*--------------------------------*- C++ -*----------------------------------*\
| =========                 |                                                 |
| \\      /  F ield         | OpenFOAM: The Open Source CFD Toolbox           |
|  \\    /   O peration     | Version:  2412                                  |
|   \\  /    A nd           | Website:  www.openfoam.com                      |
|    \\/     M anipulation  |                                                 |
\*---------------------------------------------------------------------------*/
FoamFile
{
    version     2.0;
    format      ascii;
    arch        "LSB;label=32;scalar=64";
    class       volScalarField;
    location    "7.35";
    object      p;
}
// * * * * * * * * * * * * * * * * * * * * * * * * * * * * * * * * * * * * * //

dimensions      [1 -1 -2 0 0 0 0];

internalField   nonuniform List<scalar> 
6400
(
9577.65
9577.75
9577.94
9578.27
9578.74
9579.4
9580.28
9581.42
9582.84
9584.58
9586.64
9589.04
9591.76
9594.81
9598.15
9601.74
9605.51
9609.42
9613.4
9617.4
9621.33
9625.16
9628.83
9632.3
9635.53
9638.5
9641.21
9643.63
9645.79
9647.69
9649.36
9650.81
9652.06
9653.15
9654.08
9654.87
9655.54
9656.09
9656.51
9656.81
9656.95
9656.94
9656.73
9656.3
9655.63
9654.67
9653.4
9651.79
9649.81
9647.43
9644.65
9641.45
9637.84
9633.85
9629.51
9624.86
9619.96
9614.89
9609.72
9604.56
9599.47
9594.57
9589.93
9585.63
9581.74
9578.31
9575.38
9572.96
9571.04
9569.61
9568.63
9568.05
9567.79
9567.78
9567.96
9568.24
9568.55
9568.85
9569.07
9569.19
9087.06
9087.14
9087.32
9087.61
9088.05
9088.68
9089.52
9090.63
9092.03
9093.75
9095.81
9098.2
9100.94
9104.02
9107.4
9111.04
9114.87
9118.84
9122.89
9126.94
9130.93
9134.81
9138.52
9142.02
9145.28
9148.27
9150.97
9153.39
9155.54
9157.43
9159.07
9160.5
9161.73
9162.78
9163.69
9164.47
9165.12
9165.66
9166.09
9166.39
9166.56
9166.57
9166.4
9166.01
9165.38
9164.47
9163.24
9161.66
9159.7
9157.34
9154.54
9151.34
9147.72
9143.69
9139.3
9134.59
9129.62
9124.46
9119.21
9113.95
9108.78
9103.79
9099.07
9094.71
9090.77
9087.31
9084.36
9081.94
9080.05
9078.67
9077.74
9077.22
9077.03
9077.1
9077.35
9077.7
9078.07
9078.41
9078.67
9078.81
8596.37
8596.44
8596.57
8596.81
8597.18
8597.73
8598.5
8599.55
8600.89
8602.57
8604.62
8607.03
8609.81
8612.92
8616.39
8620.12
8624.07
8628.17
8632.34
8636.52
8640.63
8644.62
8648.42
8651.99
8655.3
8658.31
8661.03
8663.45
8665.57
8667.41
8669
8670.37
8671.54
8672.54
8673.4
8674.14
8674.78
8675.31
8675.74
8676.07
8676.28
8676.35
8676.24
8675.93
8675.38
8674.55
8673.41
8671.9
8670
8667.67
8664.91
8661.68
8658.01
8653.9
8649.41
8644.56
8639.44
8634.11
8628.68
8623.23
8617.87
8612.7
8607.83
8603.33
8599.3
8595.77
8592.8
8590.4
8588.56
8587.26
8586.44
8586.06
8586.02
8586.24
8586.64
8587.12
8587.62
8588.06
8588.38
8588.55
8105.63
8105.66
8105.72
8105.87
8106.13
8106.56
8107.22
8108.15
8109.41
8111.03
8113.05
8115.49
8118.35
8121.47
8125.08
8128.98
8133.11
8137.4
8141.77
8146.15
8150.44
8154.59
8158.54
8162.22
8165.6
8168.66
8171.38
8173.78
8175.85
8177.63
8179.14
8180.42
8181.5
8182.42
8183.21
8183.89
8184.49
8185.01
8185.45
8185.83
8186.1
8186.25
8186.24
8186.05
8185.63
8184.93
8183.91
8182.51
8180.7
8178.43
8175.68
8172.44
8168.71
8164.5
8159.85
8154.8
8149.44
8143.85
8138.13
8132.39
8126.74
8121.3
8116.18
8111.48
8107.3
8103.67
8100.66
8098.28
8096.52
8095.35
8094.72
8094.54
8094.74
8095.2
8095.83
8096.54
8097.23
8097.81
8098.24
8098.46
7614.85
7614.83
7614.8
7614.81
7614.91
7615.16
7615.65
7616.42
7617.55
7619.09
7621.07
7623.51
7626.41
7629.74
7633.49
7637.6
7641.97
7646.53
7651.18
7655.83
7660.39
7664.76
7668.9
7672.73
7676.21
7679.33
7682.06
7684.43
7686.43
7688.11
7689.5
7690.65
7691.6
7692.4
7693.08
7693.68
7694.22
7694.72
7695.18
7695.63
7695.98
7696.24
7696.38
7696.35
7696.11
7695.6
7694.75
7693.51
7691.83
7689.66
7686.95
7683.69
7679.88
7675.52
7670.66
7665.34
7659.65
7653.69
7647.57
7641.42
7635.37
7629.55
7624.09
7619.11
7614.7
7610.94
7607.88
7605.53
7603.89
7602.91
7602.53
7602.66
7603.18
7603.98
7604.95
7605.96
7606.92
7607.72
7608.3
7608.59
7124.1
7124
7123.84
7123.66
7123.53
7123.54
7123.78
7124.34
7125.29
7126.7
7128.61
7131.06
7134.05
7137.55
7141.53
7145.93
7150.63
7155.55
7160.58
7165.59
7170.48
7175.16
7179.55
7183.57
7187.18
7190.37
7193.11
7195.41
7197.32
7198.86
7200.09
7201.06
7201.82
7202.45
7202.99
7203.47
7203.94
7204.42
7204.9
7205.4
7205.87
7206.29
7206.62
7206.82
7206.82
7206.55
7205.95
7204.93
7203.43
7201.39
7198.75
7195.48
7191.57
7187.03
7181.89
7176.22
7170.1
7163.66
7157.01
7150.31
7143.72
7137.39
7131.48
7126.13
7121.43
7117.49
7114.36
7112.06
7110.58
7109.86
7109.83
7110.36
7111.33
7112.6
7114.01
7115.44
7116.75
7117.84
7118.62
7119.02
6633.43
6633.24
6632.89
6632.44
6632.01
6631.68
6631.6
6631.86
6632.56
6633.79
6635.61
6638.06
6641.16
6644.87
6649.16
6653.91
6659.06
6664.45
6669.95
6675.43
6680.76
6685.82
6690.53
6694.79
6698.57
6701.83
6704.56
6706.79
6708.55
6709.9
6710.9
6711.63
6712.16
6712.55
6712.89
6713.22
6713.6
6714.03
6714.54
6715.12
6715.73
6716.35
6716.93
6717.42
6717.73
6717.79
6717.51
6716.8
6715.55
6713.69
6711.15
6707.88
6703.86
6699.1
6693.62
6687.5
6680.84
6673.77
6666.45
6659.05
6651.76
6644.78
6638.29
6632.44
6627.37
6623.2
6619.99
6617.75
6616.49
6616.11
6616.54
6617.61
6619.18
6621.05
6623.05
6625.02
6626.8
6628.27
6629.31
6629.84
6142.96
6142.63
6142.03
6141.22
6140.36
6139.59
6139.07
6138.93
6139.29
6140.27
6141.96
6144.41
6147.63
6151.6
6156.26
6161.5
6167.19
6173.18
6179.3
6185.38
6191.26
6196.81
6201.91
6206.47
6210.44
6213.78
6216.49
6218.6
6220.17
6221.26
6221.96
6222.36
6222.57
6222.66
6222.74
6222.87
6223.11
6223.49
6224.02
6224.7
6225.49
6226.36
6227.26
6228.11
6228.83
6229.32
6229.46
6229.13
6228.23
6226.62
6224.23
6220.99
6216.85
6211.83
6205.94
6199.27
6191.94
6184.08
6175.91
6167.61
6159.44
6151.61
6144.39
6137.91
6132.37
6127.91
6124.59
6122.45
6121.46
6121.55
6122.57
6124.35
6126.69
6129.35
6132.11
6134.78
6137.16
6139.11
6140.48
6141.2
5652.82
5652.29
5651.36
5650.06
5648.63
5647.25
5646.14
5645.48
5645.39
5646.04
5647.52
5649.94
5653.31
5657.61
5662.74
5668.6
5674.99
5681.74
5688.63
5695.46
5702.03
5708.18
5713.77
5718.69
5722.88
5726.3
5728.97
5730.91
5732.21
5732.96
5733.26
5733.24
5733.02
5732.73
5732.47
5732.33
5732.39
5732.69
5733.24
5734.05
5735.06
5736.24
5737.52
5738.83
5740.07
5741.11
5741.8
5741.99
5741.53
5740.28
5738.1
5734.92
5730.68
5725.35
5718.98
5711.64
5703.47
5694.64
5685.39
5675.98
5666.68
5657.77
5649.66
5642.37
5636.23
5631.4
5627.96
5625.94
5625.32
5625.99
5627.79
5630.5
5633.85
5637.52
5641.25
5644.79
5647.95
5650.52
5652.32
5653.26
5163.18
5162.38
5161.04
5159.02
5156.86
5154.63
5152.77
5151.43
5150.74
5150.92
5152.11
5154.48
5158.02
5162.71
5168.45
5175.08
5182.37
5190.08
5197.95
5205.72
5213.15
5220.04
5226.22
5231.57
5236.01
5239.52
5242.1
5243.81
5244.75
5245.04
5244.82
5244.25
5243.48
5242.68
5241.97
5241.49
5241.31
5241.5
5242.07
5243.03
5244.31
5245.86
5247.62
5249.51
5251.41
5253.15
5254.55
5255.42
5255.55
5254.76
5252.9
5249.83
5245.49
5239.83
5232.89
5224.74
5215.54
5205.51
5194.93
5184.11
5173.41
5163.2
5153.83
5145.58
5138.7
5133.41
5129.81
5127.97
5127.82
5129.25
5132.04
5135.94
5140.59
5145.59
5150.53
5155.19
5159.31
5162.69
5165
5166.25
4674.29
4673.03
4671.34
4668.18
4665.13
4661.64
4658.87
4656.65
4655.18
4654.71
4655.47
4657.76
4661.51
4666.69
4673.19
4680.8
4689.24
4698.17
4707.27
4716.21
4724.7
4732.49
4739.39
4745.25
4749.97
4753.55
4755.99
4757.38
4757.84
4757.53
4756.63
4755.35
4753.88
4752.43
4751.15
4750.2
4749.71
4749.75
4750.34
4751.46
4753.06
4755.07
4757.42
4760.03
4762.75
4765.39
4767.71
4769.45
4770.36
4770.2
4768.77
4765.91
4761.49
4755.47
4747.86
4738.75
4728.31
4716.8
4704.55
4691.98
4679.52
4667.63
4656.76
4647.26
4639.46
4633.59
4629.81
4628.18
4628.63
4631.01
4635.08
4640.52
4646.89
4653.61
4660.05
4666.1
4671.44
4675.9
4678.78
4680.46
4186.59
4185.23
4181.96
4177.77
4173.18
4168.48
4164.35
4160.99
4158.5
4157.15
4157.17
4159.46
4163.45
4169.24
4176.71
4185.59
4195.47
4205.95
4216.59
4227
4236.8
4245.7
4253.46
4259.91
4264.95
4268.57
4270.81
4271.76
4271.58
4270.49
4268.72
4266.52
4264.16
4261.86
4259.85
4258.31
4257.39
4257.19
4257.74
4259.04
4261.02
4263.6
4266.7
4270.22
4273.98
4277.76
4281.25
4284.13
4286.06
4286.74
4285.91
4283.36
4278.92
4272.53
4264.16
4253.91
4241.97
4228.63
4214.31
4199.53
4184.85
4170.88
4158.12
4147.07
4138.12
4131.54
4127.53
4126.15
4127.35
4130.93
4136.58
4143.97
4152.52
4161.43
4169.81
4177.6
4184.57
4190.31
4194.08
4196.29
3700.38
3698.12
3693.59
3687.62
3681.26
3674.64
3668.81
3664.03
3660.34
3657.98
3657.4
3659.27
3663.41
3669.94
3678.67
3689.18
3700.94
3713.38
3725.97
3738.19
3749.61
3759.85
3768.64
3775.78
3781.17
3784.8
3786.73
3787.08
3786.07
3783.96
3781.07
3777.71
3774.2
3770.84
3767.88
3765.55
3764.05
3763.49
3763.94
3765.4
3767.81
3771.09
3775.14
3779.83
3784.93
3790.17
3795.16
3799.49
3802.75
3804.53
3804.51
3802.41
3798.05
3791.29
3782.09
3770.52
3756.76
3741.18
3724.28
3706.73
3689.25
3672.67
3657.57
3644.6
3634.2
3626.71
3622.38
3621.32
3623.46
3628.45
3635.85
3645.3
3656.59
3668.66
3679.66
3689.71
3698.92
3706.28
3711.6
3714.4
3216.08
3213.64
3206.85
3198.24
3189.4
3179.9
3171.64
3165.01
3159.93
3156.34
3155.37
3156.44
3160.66
3168.09
3178.46
3191.15
3205.39
3220.39
3235.44
3249.94
3263.34
3275.21
3285.21
3293.15
3298.9
3302.47
3303.94
3303.49
3301.39
3297.98
3293.65
3288.82
3283.89
3279.19
3275.03
3271.69
3269.4
3268.35
3268.61
3270.21
3273.12
3277.26
3282.48
3288.62
3295.4
3302.48
3309.38
3315.57
3320.52
3323.72
3324.76
3323.32
3319.15
3312.09
3302.02
3288.96
3273.06
3254.72
3234.6
3213.55
3192.55
3172.63
3154.58
3139.18
3126.93
3118.26
3113.51
3112.91
3116.3
3123.05
3132.36
3144.4
3159.22
3175.73
3189.84
3202.83
3214.97
3224.66
3232.03
3235.41
2731.41
2726.46
2717.91
2708.48
2697.38
2684.54
2672.22
2662.95
2656.62
2651.52
2648.89
2649.65
2654.01
2662.58
2675.05
2690.67
2708.28
2726.71
2745
2762.4
2778.27
2792.1
2803.54
2812.37
2818.49
2821.9
2822.75
2821.27
2817.77
2812.71
2806.58
2799.92
2793.21
2786.83
2781.14
2776.49
2773.17
2771.42
2771.38
2773.15
2776.69
2781.92
2788.6
2796.49
2805.31
2814.65
2823.92
2832.44
2839.51
2844.5
2846.94
2846.42
2842.66
2835.45
2824.56
2809.86
2791.42
2769.67
2745.44
2719.9
2694.38
2670.15
2648.34
2629.79
2615.11
2604.86
2599.64
2599.9
2605.23
2614.52
2627.3
2643.13
2661.95
2682.66
2701.42
2718.09
2732.85
2744.25
2753.33
2758.29
2245.96
2235.03
2225.68
2218.77
2206.16
2188.72
2170.61
2157.52
2150.61
2143.97
2139.24
2138.32
2142.68
2152.52
2167.41
2186.73
2208.9
2232.03
2254.68
2275.86
2294.81
2311.02
2324.16
2334
2340.47
2343.64
2343.71
2340.93
2335.72
2328.57
2320.17
2311.21
2302.25
2293.73
2286.09
2279.69
2274.93
2272.18
2271.78
2273.79
2278.19
2284.82
2293.34
2303.36
2314.62
2326.74
2339
2350.44
2360.15
2367.43
2371.64
2372.34
2369.24
2362.13
2350.57
2334.15
2312.7
2286.62
2257.06
2225.6
2194.16
2164.39
2137.8
2115.44
2097.97
2086.15
2080.75
2082.68
2091.14
2104.36
2121.56
2142.11
2165.2
2189.57
2212.92
2234.74
2252.12
2262.48
2272.35
2281.34
1766.77
1750.87
1740.61
1733.81
1717.89
1694.46
1669.88
1651.38
1641.25
1633.57
1626.62
1623.85
1627.37
1638.92
1656.63
1680.1
1707.61
1736.57
1764.76
1790.66
1813.3
1832.25
1847.32
1858.4
1865.36
1868.24
1867.26
1862.75
1855.23
1845.55
1834.28
1822.4
1810.71
1799.63
1789.53
1780.82
1774.03
1769.87
1768.96
1771.37
1777.04
1785.68
1796.55
1809.06
1823.09
1838.46
1854.45
1869.73
1883
1893.2
1899.62
1901.7
1899.52
1892.84
1880.91
1862.73
1837.64
1805.98
1769.4
1730.3
1691.26
1654.7
1622.58
1596.29
1576.49
1563.86
1558.53
1564.27
1575.58
1592.28
1614.01
1639.39
1666.86
1695.57
1724.24
1752.14
1774.33
1784.89
1795.02
1808.85
1298.49
1281.44
1270.23
1258.61
1236.44
1205.76
1173.06
1146.36
1129.58
1118.23
1108.25
1103.52
1108.7
1122.1
1143.96
1172.56
1206.11
1241.66
1276.33
1307.72
1334.45
1356.19
1373.08
1385.26
1392.63
1395.1
1392.87
1386.29
1376.08
1362.77
1347.77
1332.58
1317.81
1303.72
1290.54
1278.71
1268.94
1262.45
1260.36
1263.15
1270.77
1282.34
1296.36
1311.89
1329.02
1348.02
1368.32
1388.39
1406.56
1421.14
1430.98
1434.05
1432.97
1427.29
1415.63
1395.97
1366.73
1328.12
1282.69
1234.06
1185.9
1141.42
1103.16
1072.95
1050.94
1038.05
1036.42
1041.2
1054.95
1074.65
1101.36
1132.99
1166.87
1202.61
1239.68
1274.19
1304.67
1320.9
1331.72
1348.07
839.864
823.354
808.905
791.768
761.564
723.571
680.79
640.7
610.201
593.241
579.349
570.649
576.758
596.391
626.153
663.162
704.945
748.885
791.389
829.139
860.082
884.245
902.584
915.771
923.612
925.39
920.665
909.805
894.865
878.661
860.832
842.093
823.712
806.06
789.256
773.575
759.567
749.167
744.582
747.427
757.545
772.911
790.775
809.864
830.557
853.658
878.943
904.72
928.64
947.248
958.374
963.543
965.549
963.564
954.441
934.436
901.303
855.022
799.371
739.171
679.459
624.725
578.285
543.329
517.101
502.174
499.685
507.583
524.839
545.65
579.589
623.244
670.291
716.749
762.381
806.023
847.591
867.961
884.642
897.772
392.842
380.42
363.621
341.493
309.313
269.913
230.177
193.192
161.083
141.743
131.752
130.201
137.503
152.746
177.121
209.365
247.174
288.503
330.111
367.515
397.695
420.76
438.557
452.295
460.807
462.164
455.181
441.105
423.971
406.033
384.646
364.122
344.957
326.895
310.223
294.841
280.599
269.871
264.937
268.046
278.402
293.449
309.899
327.13
346.75
370.483
398.782
429.993
461.437
485.074
497.732
498.237
502.623
505.782
501.571
482.393
445.263
394.442
335.629
275.579
220.699
175.981
143.452
121.449
106.878
99.5805
96.0937
96.8184
104.938
121.285
145.533
177.535
220.067
263.961
312.071
364.003
405.884
436.186
449.076
456.409
88.9137
83.7686
72.7611
57.2712
38.0672
20.0142
7.28287
-0.844481
-7.3028
-8.79993
-8.74816
-8.24902
-7.16239
-4.69727
-0.146871
7.58601
18.7603
33.2848
50.3636
67.3843
81.5927
92.4947
101.546
109.562
114.854
115.574
111.146
101.85
91.293
80.1151
68.8004
59.0676
49.9049
41.5288
34.7913
29.3276
24.4734
21.0799
19.7875
22.0254
27.2775
34.0016
40.1149
46.0195
53.8645
65.2189
79.7078
96.0632
115.158
132.247
144.026
147.878
147.283
149.347
148.743
136.911
110.828
79.8454
50.1625
26.2713
9.68897
-0.0702946
-4.92333
-6.98251
-7.7667
-8.09171
-8.21972
-8.32694
-8.43726
-8.51598
-8.4857
-6.90668
2.79202
16.97
38.005
64.9386
91.7559
112.586
124.059
126.394
-9.89357
-9.88013
-9.85578
-9.8164
-9.77477
-9.74292
-9.68208
-9.66752
-9.684
-9.60661
-9.56264
-9.6107
-9.64267
-9.73633
-10.0769
-10.5366
-10.6716
-10.2858
-9.8499
-9.73021
-9.77895
-9.77302
-9.50523
-9.07999
-8.82894
-8.94194
-9.25283
-9.47499
-9.44508
-9.33684
-9.36267
-9.40921
-9.39792
-9.381
-9.39322
-9.46322
-9.55828
-9.65177
-9.74831
-9.86529
-10.0013
-10.1551
-10.3008
-10.4053
-10.4569
-10.4765
-10.5177
-10.7526
-11.1314
-9.58369
-6.42233
-5.57169
-5.46951
-5.14529
-5.59774
-7.342
-8.61947
-9.1113
-9.19842
-9.16587
-9.09442
-9.01717
-8.96625
-8.91628
-8.89541
-8.92131
-8.95713
-9.01505
-9.1085
-9.18787
-9.2268
-9.22203
-9.37725
-9.37127
-9.32541
-9.27195
-9.28147
-8.86684
-6.96527
-6.44093
-10.3647
-10.3519
-10.3321
-10.3115
-10.2868
-10.2455
-10.2019
-10.187
-10.1527
-10.1331
-10.1691
-10.2277
-10.3232
-10.4639
-10.6389
-10.7792
-10.7476
-10.6045
-10.5042
-10.4698
-10.4725
-10.4638
-10.4441
-10.4163
-10.3977
-10.4027
-10.3656
-10.287
-10.1761
-10.0791
-10.0148
-9.9638
-9.92989
-9.91405
-9.94425
-10.0403
-10.151
-10.2445
-10.345
-10.4651
-10.5866
-10.7095
-10.8298
-10.9402
-11.0349
-11.1188
-11.2531
-11.4545
-11.8209
-12.4652
-12.5346
-11.9646
-11.4473
-11.387
-11.589
-11.5485
-10.9483
-10.3328
-10.0546
-9.886
-9.76369
-9.66897
-9.60543
-9.56472
-9.54966
-9.56088
-9.58287
-9.62806
-9.70036
-9.7818
-9.84642
-9.89407
-9.948
-9.94012
-9.90196
-9.84673
-9.82328
-9.69992
-9.51082
-9.30119
-10.89
-10.8766
-10.8348
-10.7923
-10.7678
-10.7344
-10.6916
-10.6677
-10.6693
-10.6868
-10.7419
-10.8157
-10.9109
-11.0224
-11.1294
-11.1993
-11.1915
-11.1261
-11.0421
-10.9728
-10.9443
-10.9452
-10.9544
-10.9355
-10.8908
-10.8631
-10.8368
-10.7803
-10.7028
-10.6299
-10.5738
-10.5237
-10.4935
-10.4855
-10.517
-10.6137
-10.7355
-10.8384
-10.9351
-11.0389
-11.156
-11.2889
-11.4222
-11.56
-11.6809
-11.7936
-11.9501
-12.16
-12.4309
-12.5767
-12.4384
-12.1564
-11.9149
-11.8006
-11.7129
-11.5152
-11.1813
-10.8174
-10.5665
-10.4049
-10.3011
-10.2294
-10.1841
-10.162
-10.154
-10.1613
-10.1798
-10.2147
-10.2666
-10.3277
-10.3962
-10.4447
-10.4869
-10.5092
-10.4934
-10.4451
-10.3495
-10.2833
-10.1869
-9.97896
-11.4405
-11.4516
-11.3747
-11.3084
-11.2769
-11.247
-11.197
-11.1606
-11.1867
-11.2315
-11.2963
-11.382
-11.4804
-11.5685
-11.6262
-11.6482
-11.6287
-11.5796
-11.5229
-11.4705
-11.4374
-11.4277
-11.4303
-11.4253
-11.3996
-11.378
-11.37
-11.3307
-11.2397
-11.1382
-11.0771
-11.0447
-11.0262
-11.034
-11.0722
-11.156
-11.275
-11.3896
-11.5237
-11.6699
-11.8421
-12.0274
-12.1999
-12.3425
-12.449
-12.5437
-12.6372
-12.7517
-12.838
-12.8046
-12.6377
-12.4296
-12.2481
-12.0949
-11.9233
-11.7034
-11.4503
-11.2213
-11.0448
-10.9221
-10.8428
-10.7907
-10.7545
-10.7359
-10.7275
-10.7309
-10.7511
-10.7831
-10.8219
-10.8659
-10.9109
-10.9561
-10.9983
-11.0278
-11.0323
-11.025
-10.9891
-10.9396
-10.8376
-10.6557
-11.9595
-11.9978
-11.945
-11.883
-11.8372
-11.8054
-11.7521
-11.7051
-11.7162
-11.7717
-11.8498
-11.9483
-12.0527
-12.1399
-12.1865
-12.1747
-12.1112
-12.0463
-11.9981
-11.9699
-11.938
-11.9188
-11.9061
-11.9011
-11.8923
-11.8816
-11.8807
-11.86
-11.783
-11.6526
-11.5678
-11.533
-11.5194
-11.5286
-11.566
-11.6399
-11.7568
-11.905
-12.0921
-12.3195
-12.5742
-12.8254
-13.0362
-13.1997
-13.3142
-13.3887
-13.4185
-13.414
-13.3485
-13.2012
-12.997
-12.7951
-12.6235
-12.4587
-12.2729
-12.0661
-11.8617
-11.6856
-11.5496
-11.4549
-11.394
-11.353
-11.3238
-11.3062
-11.2974
-11.2981
-11.3101
-11.3317
-11.3588
-11.3898
-11.4273
-11.4735
-11.5202
-11.5518
-11.5645
-11.578
-11.6004
-11.5975
-11.5335
-11.3862
-12.4599
-12.4957
-12.4973
-12.4722
-12.437
-12.3927
-12.3452
-12.2995
-12.2855
-12.3257
-12.4008
-12.5056
-12.6141
-12.704
-12.7559
-12.7381
-12.6544
-12.5555
-12.4918
-12.4709
-12.4548
-12.4348
-12.412
-12.3965
-12.3905
-12.3875
-12.3838
-12.3768
-12.3314
-12.1859
-12.0796
-12.0312
-12.0143
-12.0207
-12.0525
-12.1152
-12.2394
-12.4351
-12.6913
-13.0012
-13.3378
-13.6564
-13.9339
-14.1456
-14.2778
-14.3258
-14.2894
-14.1824
-13.9993
-13.7477
-13.4699
-13.2373
-13.0603
-12.8891
-12.7044
-12.5158
-12.343
-12.1981
-12.0845
-12.0038
-11.951
-11.9157
-11.8907
-11.875
-11.8669
-11.8667
-11.8742
-11.887
-11.9025
-11.9218
-11.9531
-12.002
-12.0574
-12.0932
-12.1081
-12.1463
-12.2108
-12.2592
-12.2363
-12.1198
-12.9867
-13.0049
-13.0185
-13.0089
-12.9774
-12.9378
-12.9011
-12.8654
-12.8485
-12.8784
-12.9446
-13.0381
-13.1353
-13.2122
-13.2616
-13.2614
-13.1962
-13.092
-13.0062
-12.9738
-12.974
-12.9697
-12.9475
-12.9267
-12.9154
-12.9063
-12.8924
-12.8807
-12.8406
-12.7371
-12.6231
-12.5643
-12.5518
-12.5581
-12.59
-12.6534
-12.7808
-13.0115
-13.3255
-13.7128
-14.1332
-14.5399
-14.8892
-15.1183
-15.2341
-15.2569
-15.1843
-15.0111
-14.7528
-14.4222
-14.0588
-13.755
-13.5497
-13.3664
-13.1827
-13.0075
-12.8552
-12.7311
-12.6337
-12.5624
-12.5135
-12.4795
-12.4563
-12.4425
-12.4352
-12.435
-12.44
-12.4474
-12.4535
-12.4613
-12.4843
-12.5334
-12.5975
-12.6384
-12.6583
-12.7218
-12.83
-12.9081
-12.9105
-12.7885
-13.5104
-13.5199
-13.5238
-13.5121
-13.4842
-13.4501
-13.4201
-13.3979
-13.3887
-13.4129
-13.4754
-13.5583
-13.638
-13.6924
-13.7189
-13.716
-13.6714
-13.6022
-13.5403
-13.5051
-13.4997
-13.5018
-13.4882
-13.4716
-13.4616
-13.4466
-13.4218
-13.4032
-13.363
-13.287
-13.1951
-13.1475
-13.1356
-13.142
-13.1769
-13.2463
-13.3831
-13.6344
-13.9933
-14.4407
-14.9341
-15.4129
-15.7814
-15.9974
-16.093
-16.0847
-15.9743
-15.7676
-15.4761
-15.1154
-14.7125
-14.3392
-14.0813
-13.8783
-13.6913
-13.5238
-13.3856
-13.275
-13.1882
-13.1236
-13.0772
-13.0438
-13.0217
-13.0085
-13.0024
-13.0026
-13.0077
-13.0145
-13.0144
-13.0145
-13.0396
-13.0862
-13.146
-13.1852
-13.2094
-13.2864
-13.4189
-13.5049
-13.5046
-13.3681
-14.0218
-14.0285
-14.0261
-14.0173
-14.0046
-13.9819
-13.9663
-13.9586
-13.9539
-13.97
-14.0258
-14.1037
-14.1682
-14.2
-14.1971
-14.1724
-14.1359
-14.0951
-14.0648
-14.0493
-14.0412
-14.0327
-14.0238
-14.015
-14.0051
-13.9877
-13.9633
-13.9514
-13.9216
-13.8486
-13.7788
-13.7483
-13.7401
-13.7527
-13.7941
-13.8764
-14.0204
-14.2766
-14.6597
-15.1436
-15.6862
-16.1931
-16.5634
-16.7642
-16.8313
-16.7822
-16.6377
-16.4066
-16.1052
-15.7586
-15.3518
-14.9475
-14.646
-14.4207
-14.2239
-14.0584
-13.9294
-13.8274
-13.7472
-13.6868
-13.6405
-13.6079
-13.5859
-13.5733
-13.5677
-13.5687
-13.5763
-13.5872
-13.5866
-13.5947
-13.6245
-13.6644
-13.7053
-13.733
-13.7517
-13.8195
-13.9438
-14.0146
-13.9936
-13.8913
-14.5334
-14.5359
-14.5348
-14.5314
-14.5286
-14.5253
-14.5278
-14.5311
-14.5331
-14.553
-14.6066
-14.6762
-14.7298
-14.7429
-14.7141
-14.6664
-14.62
-14.597
-14.5948
-14.596
-14.5878
-14.5677
-14.5568
-14.5482
-14.5305
-14.5082
-14.4967
-14.5043
-14.4907
-14.405
-14.3401
-14.3261
-14.334
-14.3603
-14.4112
-14.5074
-14.6577
-14.9066
-15.285
-15.7747
-16.3232
-16.8356
-17.2093
-17.3986
-17.4437
-17.3835
-17.2225
-16.9645
-16.6498
-16.323
-15.9436
-15.5346
-15.2212
-14.9812
-14.7727
-14.6067
-14.4822
-14.3859
-14.3096
-14.2509
-14.2048
-14.1721
-14.1496
-14.1365
-14.131
-14.1327
-14.1435
-14.1614
-14.1748
-14.189
-14.2097
-14.239
-14.2636
-14.2748
-14.2805
-14.3351
-14.4447
-14.4673
-14.4446
-14.3962
-15.0438
-15.046
-15.0468
-15.0469
-15.0478
-15.0534
-15.068
-15.0791
-15.0983
-15.1381
-15.1987
-15.2632
-15.3011
-15.2908
-15.2425
-15.1841
-15.1411
-15.1297
-15.1368
-15.1391
-15.126
-15.1068
-15.0936
-15.0792
-15.0502
-15.0262
-15.0302
-15.0488
-15.0294
-14.9417
-14.8792
-14.8856
-14.9061
-14.9454
-15.0066
-15.1086
-15.2589
-15.4925
-15.8448
-16.3089
-16.8339
-17.3415
-17.7145
-17.9032
-17.9501
-17.9046
-17.7441
-17.4792
-17.1509
-16.8264
-16.481
-16.0955
-15.7861
-15.5429
-15.3268
-15.1613
-15.0389
-14.9463
-14.8732
-14.8146
-14.7693
-14.7359
-14.7128
-14.699
-14.6932
-14.6951
-14.7073
-14.7309
-14.7628
-14.7763
-14.7852
-14.799
-14.8105
-14.8063
-14.7983
-14.8441
-14.919
-14.9196
-14.9175
-14.9086
-15.5535
-15.5556
-15.5578
-15.5605
-15.5653
-15.5759
-15.5926
-15.6108
-15.6448
-15.7001
-15.7636
-15.8306
-15.854
-15.8305
-15.7783
-15.7222
-15.6849
-15.6708
-15.6699
-15.6658
-15.6574
-15.651
-15.6375
-15.6319
-15.6345
-15.6246
-15.6156
-15.6115
-15.557
-15.4768
-15.4297
-15.4406
-15.4577
-15.5021
-15.5668
-15.6651
-15.7995
-16.015
-16.3317
-16.7527
-17.2417
-17.7256
-18.095
-18.2919
-18.3591
-18.3247
-18.1775
-17.9279
-17.606
-17.2934
-16.9791
-16.642
-16.3378
-16.0922
-15.8753
-15.7133
-15.5945
-15.505
-15.4349
-15.3769
-15.3326
-15.2991
-15.2756
-15.2613
-15.2551
-15.2565
-15.2681
-15.2921
-15.3263
-15.3519
-15.3587
-15.3553
-15.3511
-15.3357
-15.3303
-15.3474
-15.3839
-15.3889
-15.4203
-15.4299
-16.0625
-16.0645
-16.0677
-16.072
-16.0792
-16.0913
-16.1082
-16.1302
-16.1653
-16.2188
-16.2827
-16.3388
-16.3615
-16.3437
-16.2988
-16.248
-16.2093
-16.1852
-16.179
-16.1803
-16.1919
-16.2081
-16.2237
-16.2766
-16.3538
-16.3858
-16.3478
-16.254
-16.1442
-16.0558
-16.0183
-15.9915
-15.9966
-16.0322
-16.0916
-16.1707
-16.2926
-16.4811
-16.7555
-17.1201
-17.5493
-17.9845
-18.342
-18.5574
-18.647
-18.6327
-18.5086
-18.2885
-18.0066
-17.7192
-17.4493
-17.1527
-16.8636
-16.6173
-16.408
-16.2542
-16.1434
-16.059
-15.9914
-15.9362
-15.8934
-15.8608
-15.8376
-15.8233
-15.817
-15.818
-15.8279
-15.8485
-15.8761
-15.9076
-15.9274
-15.9127
-15.8942
-15.8752
-15.8643
-15.8645
-15.861
-15.8866
-15.9416
-15.9568
-16.5711
-16.5731
-16.5767
-16.5818
-16.5897
-16.6014
-16.6174
-16.6386
-16.6681
-16.7085
-16.7576
-16.7991
-16.8153
-16.8055
-16.7749
-16.7355
-16.7005
-16.6799
-16.681
-16.6985
-16.7337
-16.7784
-16.8694
-17.042
-17.1992
-17.2528
-17.1795
-16.9923
-16.8225
-16.7037
-16.6317
-16.5438
-16.526
-16.5389
-16.5884
-16.6691
-16.7952
-16.9517
-17.1626
-17.4447
-17.7877
-18.1493
-18.4752
-18.7019
-18.8158
-18.8275
-18.7323
-18.559
-18.3484
-18.1154
-17.8841
-17.6162
-17.352
-17.115
-16.9214
-16.7815
-16.6819
-16.6054
-16.5417
-16.4908
-16.4508
-16.4202
-16.3983
-16.3846
-16.3786
-16.3797
-16.3885
-16.4057
-16.4281
-16.4537
-16.4793
-16.4671
-16.4409
-16.4258
-16.4038
-16.398
-16.3656
-16.4166
-16.4648
-16.4838
-17.0791
-17.0811
-17.0849
-17.0904
-17.0983
-17.1092
-17.1236
-17.1422
-17.1658
-17.1949
-17.2258
-17.2497
-17.2606
-17.2567
-17.2392
-17.2128
-17.1879
-17.1804
-17.196
-17.2299
-17.2781
-17.3497
-17.5255
-17.7851
-17.9609
-18.0108
-17.9198
-17.7233
-17.5303
-17.3793
-17.2304
-17.1045
-17.0536
-17.0302
-17.0665
-17.1773
-17.3234
-17.4595
-17.6068
-17.7948
-18.026
-18.2901
-18.5623
-18.7798
-18.9058
-18.9356
-18.8866
-18.7706
-18.6315
-18.4721
-18.2847
-18.0471
-17.8038
-17.5876
-17.418
-17.2977
-17.211
-17.1423
-17.0853
-17.0399
-17.0039
-16.9764
-16.9566
-16.9445
-16.9397
-16.9418
-16.9511
-16.9674
-16.9875
-17.0079
-17.0252
-17.0208
-16.9884
-16.9691
-16.9489
-16.9475
-16.911
-16.9649
-16.9819
-17.0044
-17.5865
-17.5885
-17.5922
-17.5976
-17.6051
-17.6151
-17.6279
-17.6438
-17.6628
-17.6842
-17.7052
-17.7214
-17.7301
-17.7294
-17.7198
-17.7029
-17.6899
-17.7013
-17.7328
-17.7736
-17.8168
-17.9138
-18.136
-18.3895
-18.552
-18.6026
-18.5243
-18.3747
-18.1979
-18.0153
-17.8201
-17.6977
-17.6129
-17.5648
-17.5678
-17.6815
-17.8351
-17.9697
-18.0929
-18.2169
-18.3445
-18.5125
-18.715
-18.9008
-19.0264
-19.0771
-19.0539
-18.9799
-18.889
-18.7919
-18.6488
-18.4401
-18.2229
-18.0384
-17.9006
-17.8028
-17.7303
-17.6708
-17.6221
-17.5828
-17.5518
-17.5282
-17.5117
-17.5023
-17.4999
-17.5047
-17.5176
-17.5376
-17.5605
-17.5799
-17.5908
-17.5866
-17.5506
-17.5226
-17.5055
-17.5064
-17.4913
-17.5165
-17.5135
-17.5294
-18.0932
-18.0951
-18.0986
-18.1036
-18.1105
-18.1193
-18.1305
-18.1438
-18.1592
-18.1756
-18.1913
-18.2042
-18.2119
-18.2138
-18.2093
-18.2005
-18.2023
-18.2316
-18.2709
-18.3036
-18.3384
-18.4472
-18.6593
-18.877
-19.0308
-19.0913
-19.049
-18.9427
-18.7787
-18.5846
-18.4267
-18.3387
-18.2535
-18.1823
-18.1527
-18.2183
-18.3475
-18.4732
-18.5843
-18.6836
-18.7746
-18.8785
-19.0125
-19.1521
-19.2593
-19.3036
-19.2898
-19.2303
-19.1586
-19.0887
-18.9729
-18.7958
-18.6201
-18.4774
-18.3745
-18.3001
-18.241
-18.1921
-18.1518
-18.1192
-18.0937
-18.0747
-18.0624
-18.0569
-18.0585
-18.0684
-18.0884
-18.117
-18.1482
-18.1721
-18.1808
-18.1744
-18.1412
-18.1136
-18.0934
-18.0818
-18.073
-18.0629
-18.0658
-18.0663
-18.5991
-18.601
-18.6043
-18.6089
-18.615
-18.6227
-18.6322
-18.6433
-18.6557
-18.6685
-18.681
-18.6912
-18.6984
-18.7018
-18.7001
-18.6986
-18.7148
-18.7508
-18.7848
-18.8094
-18.8479
-18.9455
-19.1114
-19.2918
-19.4291
-19.4996
-19.4844
-19.3918
-19.2337
-19.0891
-19.0223
-18.9916
-18.9335
-18.833
-18.7861
-18.812
-18.8931
-18.9793
-19.0643
-19.1461
-19.2363
-19.3288
-19.426
-19.5215
-19.5945
-19.618
-19.5912
-19.5299
-19.4621
-19.3871
-19.2788
-19.1419
-19.0156
-18.9179
-18.8472
-18.7931
-18.7464
-18.7073
-18.6751
-18.6491
-18.6291
-18.6152
-18.6077
-18.6071
-18.614
-18.6309
-18.6604
-18.7
-18.7418
-18.7739
-18.7851
-18.7783
-18.7528
-18.7317
-18.7093
-18.6735
-18.6478
-18.6138
-18.6289
-18.6096
-19.1045
-19.1064
-19.1093
-19.1133
-19.1187
-19.1254
-19.1335
-19.1427
-19.1529
-19.1635
-19.1732
-19.1815
-19.188
-19.1919
-19.1916
-19.1936
-19.2162
-19.2528
-19.2807
-19.304
-19.3396
-19.4129
-19.5276
-19.6511
-19.7501
-19.8039
-19.7871
-19.6959
-19.5822
-19.5305
-19.5443
-19.5604
-19.5265
-19.4514
-19.3991
-19.4142
-19.4575
-19.4983
-19.5319
-19.584
-19.6764
-19.782
-19.8717
-19.9407
-19.9909
-19.9993
-19.953
-19.877
-19.798
-19.7152
-19.6121
-19.513
-19.4316
-19.3707
-19.3244
-19.2843
-19.2483
-19.2177
-19.1925
-19.1726
-19.1581
-19.1493
-19.1469
-19.1515
-19.1643
-19.1888
-19.2275
-19.2765
-19.3269
-19.3674
-19.3863
-19.3842
-19.37
-19.3537
-19.3296
-19.2702
-19.2175
-19.1835
-19.1877
-19.155
-19.6094
-19.6111
-19.6136
-19.6172
-19.6219
-19.6277
-19.6345
-19.6422
-19.6506
-19.6591
-19.6671
-19.6741
-19.68
-19.684
-19.6848
-19.6885
-19.7104
-19.7415
-19.768
-19.7918
-19.8224
-19.8724
-19.9375
-20.0035
-20.0503
-20.0599
-20.0175
-19.9422
-19.899
-19.9228
-19.9777
-20.0105
-19.998
-19.9643
-19.9503
-19.978
-20.0085
-20.0122
-20.0054
-20.0445
-20.1339
-20.2345
-20.3195
-20.3824
-20.4217
-20.4182
-20.3652
-20.2746
-20.1815
-20.0911
-19.9989
-19.9296
-19.879
-19.8403
-19.8076
-19.7761
-19.748
-19.7242
-19.7048
-19.6902
-19.6807
-19.6768
-19.6793
-19.6891
-19.7078
-19.7392
-19.7848
-19.8395
-19.8947
-19.9417
-19.9713
-19.9803
-19.9779
-19.9593
-19.9291
-19.8567
-19.7823
-19.746
-19.7275
-19.6957
-20.1139
-20.1153
-20.1176
-20.1207
-20.1247
-20.1297
-20.1356
-20.1421
-20.149
-20.1561
-20.1629
-20.169
-20.1743
-20.1784
-20.181
-20.1864
-20.2032
-20.2245
-20.2517
-20.278
-20.3059
-20.3388
-20.3767
-20.4027
-20.4079
-20.3759
-20.3079
-20.2547
-20.2532
-20.304
-20.3627
-20.4016
-20.4107
-20.41
-20.4342
-20.4758
-20.5045
-20.4875
-20.4808
-20.5292
-20.614
-20.7014
-20.7751
-20.8269
-20.8551
-20.8522
-20.8011
-20.7101
-20.6105
-20.5189
-20.4426
-20.3891
-20.352
-20.3227
-20.295
-20.269
-20.2464
-20.2276
-20.2129
-20.2026
-20.1974
-20.1979
-20.205
-20.2196
-20.2437
-20.281
-20.3316
-20.3897
-20.448
-20.4998
-20.5377
-20.5562
-20.5563
-20.5336
-20.4885
-20.4142
-20.327
-20.2788
-20.2454
-20.2231
-20.618
-20.6191
-20.6211
-20.6238
-20.6274
-20.6317
-20.6368
-20.6424
-20.6484
-20.6545
-20.6604
-20.666
-20.6712
-20.6755
-20.6799
-20.6871
-20.6947
-20.7115
-20.7375
-20.7703
-20.7995
-20.8299
-20.8561
-20.8622
-20.8462
-20.8049
-20.739
-20.6869
-20.68
-20.7174
-20.767
-20.8123
-20.8353
-20.8516
-20.8888
-20.9422
-20.9562
-20.9355
-20.9404
-20.994
-21.0816
-21.1639
-21.2236
-21.2689
-21.2898
-21.2772
-21.2329
-21.1556
-21.0634
-20.9793
-20.9157
-20.8712
-20.8387
-20.8108
-20.7851
-20.7626
-20.7437
-20.7285
-20.7172
-20.7104
-20.7087
-20.7129
-20.7239
-20.7429
-20.7718
-20.8142
-20.8692
-20.9314
-20.9942
-21.0504
-21.0921
-21.1123
-21.1041
-21.0712
-21.0154
-20.9375
-20.8461
-20.787
-20.7485
-20.733
-21.1216
-21.1226
-21.1244
-21.1267
-21.1299
-21.1337
-21.1382
-21.1431
-21.1484
-21.1539
-21.1595
-21.165
-21.1704
-21.1755
-21.1816
-21.1919
-21.1999
-21.211
-21.2342
-21.2765
-21.3193