/*--------------------------------*- C++ -*----------------------------------*\
| =========                 |                                                 |
| \\      /  F ield         | OpenFOAM: The Open Source CFD Toolbox           |
|  \\    /   O peration     | Version:  2412                                  |
|   \\  /    A nd           | Website:  www.openfoam.com                      |
|    \\/     M anipulation  |                                                 |
\*---------------------------------------------------------------------------*/
FoamFile
{
    version     2.0;
    format      ascii;
    arch        "LSB;label=32;scalar=64";
    class       volScalarField;
    location    "10";
    object      p;
}
// * * * * * * * * * * * * * * * * * * * * * * * * * * * * * * * * * * * * * //

dimensions      [1 -1 -2 0 0 0 0];

internalField   nonuniform List<scalar> 
6400
(
7560.4
7560.75
7561.38
7562.27
7563.41
7564.76
7566.31
7568.03
7569.89
7571.88
7573.95
7576.05
7578.15
7580.2
7582.14
7583.92
7585.49
7586.81
7587.83
7588.54
7588.89
7588.89
7588.53
7587.81
7586.76
7585.39
7583.74
7581.86
7579.79
7577.61
7575.35
7573.09
7570.9
7568.82
7566.93
7565.26
7563.88
7562.81
7562.09
7561.74
7561.76
7562.15
7562.91
7564.01
7565.42
7567.1
7569
7571.07
7573.24
7575.47
7577.67
7579.8
7581.79
7583.59
7585.14
7586.4
7587.35
7587.94
7588.18
7588.06
7587.57
7586.74
7585.59
7584.14
7582.45
7580.56
7578.52
7576.38
7574.2
7572.01
7569.88
7567.84
7565.92
7564.16
7562.58
7561.2
7560.05
7559.14
7558.51
7558.15
7173.05
7173.41
7174.05
7174.95
7176.1
7177.48
7179.05
7180.81
7182.71
7184.74
7186.86
7189.01
7191.17
7193.27
7195.26
7197.09
7198.71
7200.07
7201.13
7201.86
7202.24
7202.26
7201.89
7201.17
7200.09
7198.69
7197
7195.07
7192.96
7190.71
7188.4
7186.08
7183.82
7181.69
7179.74
7178.03
7176.61
7175.51
7174.77
7174.41
7174.43
7174.84
7175.62
7176.75
7178.2
7179.93
7181.88
7184.01
7186.25
7188.53
7190.8
7192.98
7195.02
7196.86
7198.45
7199.74
7200.71
7201.31
7201.55
7201.41
7200.9
7200.04
7198.84
7197.36
7195.62
7193.68
7191.58
7189.39
7187.15
7184.91
7182.73
7180.65
7178.69
7176.9
7175.29
7173.89
7172.72
7171.81
7171.16
7170.79
6785.41
6785.78
6786.43
6787.36
6788.55
6789.96
6791.59
6793.41
6795.38
6797.5
6799.7
6801.96
6804.22
6806.43
6808.53
6810.46
6812.17
6813.62
6814.75
6815.54
6815.95
6815.98
6815.61
6814.86
6813.74
6812.27
6810.51
6808.48
6806.26
6803.89
6801.45
6799.01
6796.63
6794.39
6792.33
6790.53
6789.03
6787.87
6787.09
6786.71
6786.74
6787.17
6787.99
6789.19
6790.72
6792.54
6794.61
6796.85
6799.21
6801.62
6804.01
6806.31
6808.46
6810.39
6812.06
6813.41
6814.42
6815.04
6815.28
6815.12
6814.57
6813.65
6812.39
6810.81
6808.98
6806.93
6804.73
6802.43
6800.08
6797.75
6795.47
6793.3
6791.28
6789.43
6787.77
6786.33
6785.13
6784.18
6783.52
6783.14
6397.45
6397.84
6398.53
6399.5
6400.74
6402.21
6403.91
6405.82
6407.91
6410.15
6412.5
6414.91
6417.33
6419.7
6421.96
6424.04
6425.9
6427.47
6428.71
6429.57
6430.04
6430.09
6429.71
6428.92
6427.72
6426.16
6424.26
6422.08
6419.69
6417.14
6414.51
6411.88
6409.31
6406.88
6404.67
6402.72
6401.1
6399.85
6399.01
6398.6
6398.63
6399.1
6399.99
6401.28
6402.94
6404.91
6407.14
6409.57
6412.12
6414.72
6417.3
6419.78
6422.1
6424.18
6425.97
6427.42
6428.49
6429.16
6429.4
6429.21
6428.6
6427.59
6426.23
6424.53
6422.54
6420.34
6417.97
6415.51
6413
6410.51
6408.09
6405.8
6403.67
6401.73
6400
6398.5
6397.25
6396.26
6395.57
6395.18
6009.17
6009.59
6010.32
6011.34
6012.64
6014.2
6016
6018.02
6020.26
6022.67
6025.21
6027.84
6030.48
6033.07
6035.55
6037.85
6039.91
6041.66
6043.03
6044
6044.54
6044.62
6044.22
6043.37
6042.07
6040.36
6038.28
6035.9
6033.26
6030.46
6027.57
6024.67
6021.84
6019.16
6016.72
6014.58
6012.79
6011.42
6010.5
6010.04
6010.08
6010.59
6011.58
6013.01
6014.84
6017.01
6019.47
6022.15
6024.96
6027.83
6030.68
6033.41
6035.96
6038.25
6040.22
6041.81
6042.97
6043.69
6043.93
6043.71
6043.03
6041.91
6040.4
6038.51
6036.32
6033.9
6031.31
6028.62
6025.89
6023.19
6020.58
6018.12
6015.84
6013.78
6011.95
6010.38
6009.06
6008.03
6007.3
6006.88
5620.54
5621
5621.77
5622.86
5624.24
5625.88
5627.8
5629.98
5632.41
5635.05
5637.84
5640.74
5643.67
5646.56
5649.32
5651.9
5654.2
5656.17
5657.74
5658.86
5659.49
5659.6
5659.19
5658.26
5656.82
5654.92
5652.61
5649.94
5647
5643.86
5640.62
5637.37
5634.2
5631.21
5628.47
5626.07
5624.07
5622.53
5621.5
5621
5621.04
5621.62
5622.73
5624.33
5626.38
5628.82
5631.58
5634.58
5637.74
5640.96
5644.15
5647.22
5650.08
5652.64
5654.83
5656.6
5657.89
5658.68
5658.94
5658.67
5657.88
5656.61
5654.9
5652.78
5650.33
5647.63
5644.75
5641.76
5638.74
5635.77
5632.9
5630.22
5627.75
5625.54
5623.6
5621.94
5620.55
5619.46
5618.68
5618.22
5231.53
5232.04
5232.88
5234.02
5235.47
5237.22
5239.27
5241.64
5244.32
5247.24
5250.36
5253.61
5256.9
5260.16
5263.29
5266.21
5268.84
5271.1
5272.9
5274.2
5274.94
5275.1
5274.67
5273.63
5272.03
5269.89
5267.28
5264.26
5260.92
5257.36
5253.68
5249.99
5246.39
5242.98
5239.88
5237.15
5234.88
5233.14
5231.97
5231.4
5231.45
5232.11
5233.37
5235.19
5237.52
5240.3
5243.44
5246.86
5250.45
5254.11
5257.74
5261.23
5264.47
5267.38
5269.87
5271.86
5273.32
5274.19
5274.46
5274.13
5273.21
5271.74
5269.78
5267.37
5264.6
5261.54
5258.29
5254.93
5251.55
5248.22
5245.03
5242.06
5239.35
5236.96
5234.89
5233.13
5231.68
5230.53
5229.7
5229.18
4842.11
4842.69
4843.58
4844.77
4846.26
4848.1
4850.31
4852.93
4855.92
4859.22
4862.74
4866.42
4870.16
4873.88
4877.46
4880.81
4883.84
4886.47
4888.56
4890.08
4890.97
4891.19
4890.73
4889.57
4887.75
4885.32
4882.33
4878.87
4875.05
4870.96
4866.74
4862.5
4858.36
4854.46
4850.89
4847.76
4845.17
4843.17
4841.83
4841.18
4841.24
4842
4843.45
4845.54
4848.21
4851.4
4855.01
4858.94
4863.07
4867.28
4871.45
4875.46
4879.19
4882.53
4885.38
4887.66
4889.31
4890.29
4890.57
4890.16
4889.08
4887.37
4885.06
4882.31
4879.14
4875.65
4871.94
4868.12
4864.28
4860.52
4856.93
4853.58
4850.56
4847.93
4845.7
4843.87
4842.39
4841.2
4840.32
4839.74
4452.27
4452.91
4453.82
4455
4456.49
4458.4
4460.81
4463.75
4467.16
4470.93
4474.96
4479.17
4483.46
4487.72
4491.85
4495.73
4499.24
4502.26
4504.77
4506.58
4507.66
4507.96
4507.46
4506.15
4504.08
4501.28
4497.84
4493.84
4489.42
4484.69
4479.79
4474.88
4470.1
4465.58
4461.45
4457.84
4454.85
4452.54
4451
4450.25
4450.32
4451.2
4452.87
4455.29
4458.38
4462.07
4466.25
4470.8
4475.59
4480.47
4485.31
4489.96
4494.28
4498.14
4501.43
4504.07
4505.96
4507.07
4507.37
4506.86
4505.58
4503.57
4500.89
4497.68
4494
4489.97
4485.71
4481.33
4476.94
4472.64
4468.54
4464.71
4461.28
4458.33
4455.93
4454.04
4452.57
4451.41
4450.51
4449.87
4061.98
4062.66
4063.53
4064.63
4066.08
4068.06
4070.72
4074.06
4077.99
4082.34
4087
4091.84
4096.78
4101.71
4106.5
4111.02
4115.13
4118.71
4121.66
4123.81
4125.11
4125.51
4124.97
4123.49
4121.1
4117.87
4113.87
4109.22
4104.06
4098.55
4092.85
4087.12
4081.55
4076.29
4071.49
4067.3
4063.82
4061.15
4059.36
4058.5
4058.58
4059.6
4061.55
4064.35
4067.95
4072.24
4077.11
4082.41
4087.99
4093.68
4099.33
4104.75
4109.79
4114.3
4118.13
4121.18
4123.37
4124.64
4124.95
4124.33
4122.8
4120.43
4117.28
4113.5
4109.21
4104.53
4099.59
4094.55
4089.5
4084.56
4079.84
4075.43
4071.48
4068.14
4065.5
4063.56
4062.15
4061.08
4060.23
4059.57
3671.27
3671.91
3672.69
3673.66
3675.07
3677.17
3680.12
3683.92
3688.43
3693.45
3698.82
3704.41
3710.13
3715.84
3721.43
3726.72
3731.56
3735.8
3739.32
3741.88
3743.46
3743.98
3743.4
3741.72
3738.95
3735.18
3730.51
3725.07
3719.03
3712.57
3705.89
3699.19
3692.66
3686.51
3680.91
3676.02
3671.97
3668.87
3666.8
3665.8
3665.9
3667.09
3669.35
3672.62
3676.81
3681.82
3687.51
3693.71
3700.24
3706.92
3713.54
3719.9
3725.8
3731.08
3735.57
3739.13
3741.67
3743.12
3743.46
3742.68
3740.84
3737.99
3734.29
3729.84
3724.8
3719.34
3713.61
3707.77
3701.95
3696.26
3690.82
3685.75
3681.23
3677.44
3674.53
3672.49
3671.14
3670.22
3669.48
3668.85
3280.15
3280.7
3281.35
3282.24
3283.66
3285.91
3289.17
3293.43
3298.54
3304.27
3310.42
3316.85
3323.46
3330.11
3336.64
3342.87
3348.6
3353.63
3357.75
3360.91
3362.86
3363.54
3362.92
3360.99
3357.78
3353.37
3347.88
3341.49
3334.38
3326.78
3318.92
3311.03
3303.37
3296.16
3289.6
3283.89
3279.17
3275.56
3273.15
3271.99
3272.11
3273.5
3276.13
3279.94
3284.85
3290.71
3297.37
3304.65
3312.32
3320.17
3327.96
3335.44
3342.4
3348.61
3353.88
3358.05
3361.01
3362.68
3363.03
3362.07
3359.86
3356.44
3352.03
3346.76
3340.82
3334.42
3327.73
3320.96
3314.24
3307.71
3301.48
3295.74
3290.64
3286.41
3283.21
3281.03
3279.69
3278.87
3278.28
3277.74
2888.63
2889.08
2889.63
2890.47
2891.95
2894.37
2897.92
2902.6
2908.27
2914.7
2921.68
2929.07
2936.71
2944.47
2952.15
2959.51
2966.32
2972.33
2977.32
2981.12
2983.5
2984.39
2983.73
2981.5
2977.75
2972.57
2966.11
2958.57
2950.18
2941.2
2931.92
2922.63
2913.6
2905.12
2897.42
2890.74
2885.23
2881.04
2878.25
2876.91
2877.04
2878.66
2881.73
2886.17
2891.9
2898.77
2906.6
2915.15
2924.19
2933.45
2942.63
2951.47
2959.68
2967.01
2973.22
2978.12
2981.58
2983.5
2983.85
2982.65
2980.02
2975.88
2970.6
2964.33
2957.3
2949.75
2941.92
2934.05
2926.3
2918.84
2911.82
2905.36
2899.72
2895.08
2891.62
2889.3
2887.91
2887.16
2886.69
2886.27
2496.68
2497.08
2497.54
2498.39
2499.92
2502.47
2506.24
2511.26
2517.42
2524.58
2532.45
2540.9
2549.77
2558.85
2567.91
2576.66
2584.8
2592.02
2598.06
2602.71
2605.58
2606.73
2606.05
2603.5
2599.11
2593.02
2585.38
2576.45
2566.51
2555.88
2544.9
2533.91
2523.26
2513.26
2504.22
2496.39
2489.97
2485.12
2481.88
2480.33
2480.49
2482.36
2485.92
2491.11
2497.78
2505.85
2515.05
2525.13
2535.8
2546.73
2557.6
2568.06
2577.78
2586.46
2593.8
2599.58
2603.62
2605.83
2606.16
2604.62
2601.26
2596.41
2590.1
2582.6
2574.23
2565.29
2556.09
2546.9
2537.97
2529.39
2521.49
2514.38
2508.26
2503.32
2499.66
2497.23
2495.82
2495.1
2494.74
2494.42
2104.34
2104.58
2105.04
2105.88
2107.4
2109.98
2113.85
2119.13
2125.76
2133.6
2142.44
2152.13
2162.45
2173.13
2183.87
2194.33
2204.11
2212.82
2220.11
2225.62
2229.32
2230.86
2230.18
2227.26
2222.14
2214.94
2205.89
2195.28
2183.48
2170.86
2157.84
2144.82
2132.22
2120.43
2109.8
2100.61
2093.12
2087.57
2083.83
2082.04
2082.21
2084.35
2088.46
2094.48
2102.3
2111.76
2122.59
2134.47
2147.09
2160.03
2172.91
2185.33
2196.87
2207.18
2215.89
2222.71
2227.45
2229.98
2230.27
2228.36
2224.3
2218.35
2210.7
2201.67
2191.63
2180.97
2170.08
2159.33
2149.06
2139.03
2130.3
2122.54
2116
2110.84
2107.1
2104.68
2103.31
2102.65
2102.34
2102.21
1711.4
1711.58
1712.02
1712.79
1714.2
1716.65
1720.47
1725.88
1732.9
1741.45
1751.36
1762.43
1774.54
1787.15
1799.97
1812.55
1824.38
1834.96
1843.84
1850.64
1855.14
1857.11
1856.48
1853.16
1847.17
1838.65
1827.9
1815.27
1801.21
1786.2
1770.72
1755.28
1740.35
1726.4
1713.9
1703.15
1694.46
1688.02
1683.79
1681.77
1681.96
1684.37
1689.05
1696.01
1705.14
1716.25
1729.03
1743.02
1757.97
1773.32
1788.62
1803.39
1817.15
1829.43
1839.8
1847.89
1853.45
1856.34
1856.56
1854.18
1849.2
1841.91
1832.59
1821.64
1809.52
1796.7
1783.71
1771.01
1758.94
1747.8
1737.95
1729.5
1722.6
1717.35
1713.69
1711.44
1710.24
1709.7
1709.49
1709.5
1317.77
1317.92
1318.38
1319.04
1320.18
1322.29
1325.83
1331.15
1338.43
1347.67
1358.75
1371.48
1385.58
1400.65
1416.09
1431.35
1445.77
1458.72
1469.6
1477.95
1483.44
1485.94
1485.42
1481.68
1474.67
1464.56
1451.72
1436.62
1419.84
1401.94
1383.51
1365.15
1347.45
1330.94
1316.17
1303.57
1293.53
1286.23
1281.53
1279.3
1279.47
1282.1
1287.35
1295.3
1305.94
1318.98
1334.05
1350.66
1368.35
1386.57
1404.76
1422.37
1438.83
1453.54
1465.94
1475.57
1482.08
1485.33
1485.41
1482.61
1476.37
1467.42
1456.01
1442.64
1427.88
1412.36
1396.73
1381.63
1367.56
1354.91
1343.95
1334.85
1327.73
1322.59
1319.25
1317.38
1316.49
1316.11
1316
1316.24
923.279
923.644
924.306
924.737
925.337
926.773
929.607
934.445
941.728
951.576
963.905
978.521
995.109
1013.14
1031.91
1050.6
1068.34
1084.33
1097.78
1108
1114.57
1117.73
1117.52
1113.4
1105.16
1093.09
1077.67
1059.52
1039.41
1018.04
996.088
974.248
953.205
933.624
916.153
901.369
889.802
881.821
876.782
874.428
874.518
877.203
882.898
891.836
904.209
919.57
937.38
957.065
978.035
999.658
1021.3
1042.33
1062.09
1079.81
1094.73
1106.25
1113.88
1117.4
1117.06
1113.3
1106.15
1095.21
1081.15
1064.68
1046.55
1027.56
1008.61
990.576
974.143
959.752
947.655
938.008
930.898
926.229
923.62
922.479
922.18
921.989
921.774
922.44
531.37
530.581
530.78
530.131
529.334
529.394
530.78
534.564
541.566
552.022
565.809
582.741
602.489
624.379
647.422
670.533
692.461
712.292
729.026
741.617
749.185
752.9
753.574
749.288
739.627
725.111
706.514
684.553
660.387
634.828
608.619
582.545
557.418
534.042
513.255
495.763
482.332
474.321
469.157
466.615
466.674
469.133
475.067
484.742
499.265
517.486
538.674
562.116
587.088
612.809
638.545
663.712
687.547
709.027
727.039
740.908
749.835
753.357
752.116
748.413
739.579
725.961
708.498
688.105
665.68
642.176
618.83
596.952
577.584
561.208
547.921
537.776
530.925
527.259
526.073
526.377
527.631
528.332
528.28
529.318
175.943
174.945
173.847
172.618
171.383
170.251
169.847
171.983
177.169
185.378
196.586
211.003
228.798
249.785
273.205
297.961
322.487
345.614
365.933
381.195
388.921
392.45
395.453
390.984
379.014
361.021
338.747
314.555
289.032
263.08
237.375
212.809
190.209
170.228
153.553
140.23
129.813
121.996
117.329
115.381
115.652
118.143
123.202
131.146
141.962
156.02
173.452
193.888
216.778
241.315
266.696
292.472
317.821
341.594
363.317
380.622
391.719
395.094
391.248
389.236
378.897
362.246
341.396
317.917
293.005
267.895
244.172
223.293
205.971
192.21
181.696
174.112
169.603
168.244
169.173
170.389
171.991
173.608
175.11
176.208
6.59257
7.99438
7.53997
6.72111
5.54653
4.40666
3.74743
3.96104
5.16449
7.38217
10.7253
15.46
22.003
30.664
41.5143
54.1716
67.7193
81.0875
93.3448
103.738
111.358
115.079
114.462
109.669
100.451
87.8415
73.5473
60.5068
47.7689
35.8713
25.046
15.7271
8.13754
2.25698
-1.95833
-4.98164
-7.12271
-8.55449
-9.12502
-9.18799
-9.15338
-8.9853
-8.44776
-7.17598
-5.07331
-1.83724
2.84205
9.14383
17.1194
26.6385
37.4117
49.3764
62.1771
75.138
89.2874
101.578
110.361
114.712
114.989
110.259
101.859
91.1674
78.7819
65.4448
51.9542
39.3194
28.5859
20.2508
14.0706
9.6544
6.66465
4.87197
4.24458
4.58266
5.51217
6.6252
7.68283
8.41607
8.79906
7.69381
-9.53972
-9.58368
-9.60142
-9.60382
-9.61802
-9.64093
-9.6692
-9.68957
-9.70968
-9.72663
-9.7379
-9.76954
-9.83804
-9.95645
-10.0859
-10.1819
-10.2418
-10.2517
-10.05
-8.92148
-7.34392
-6.49696
-6.34706
-6.91907
-8.04646
-9.17205
-9.76162
-9.91348
-9.94058
-9.93698
-9.92656
-9.92562
-9.9215
-9.91152
-9.89026
-9.86164
-9.81957
-9.76333
-9.7113
-9.68529
-9.67098
-9.62746
-9.59132
-9.61292
-9.63327
-9.64218
-9.65114
-9.68009
-9.74606
-9.82304
-9.87486
-9.89616
-9.87563
-9.68337
-9.02954
-7.89333
-6.79561
-6.28945
-6.51394
-7.58575
-9.38616
-10.1135
-10.227
-10.2246
-10.138
-9.94506
-9.6938
-9.43865
-9.21148
-9.01408
-8.84428
-8.69603
-8.5677
-8.52283
-8.58884
-8.6807
-8.71652
-8.71671
-8.71166
-8.65978
-10.1139
-10.116
-10.1242
-10.1368
-10.1592
-10.1883
-10.2085
-10.2245
-10.2385
-10.2542
-10.2736
-10.3168
-10.3942
-10.4845
-10.5529
-10.5932
-10.6339
-10.6696
-10.6713
-10.7475
-10.8078
-10.8418
-10.8561
-10.8381
-10.7891
-10.7291
-10.6407
-10.5784
-10.541
-10.5016
-10.4552
-10.4147
-10.4047
-10.4268
-10.4454
-10.4355
-10.4027
-10.3544
-10.3076
-10.28
-10.245
-10.211
-10.1862
-10.1821
-10.1849
-10.1863
-10.1996
-10.2394
-10.3113
-10.3932
-10.4587
-10.5087
-10.5512
-10.6133
-10.6971
-10.7693
-10.8024
-10.7985
-10.7623
-10.6951
-10.6066
-10.5497
-10.559
-10.5794
-10.5873
-10.5017
-10.3273
-10.1088
-9.89111
-9.68789
-9.51404
-9.38549
-9.30006
-9.26026
-9.25514
-9.24308
-9.21038
-9.21363
-9.24313
-9.24802
-10.6637
-10.656
-10.6513
-10.6562
-10.6811
-10.7142
-10.7379
-10.7501
-10.7592
-10.7688
-10.7932
-10.8585
-10.9581
-11.055
-11.1311
-11.1817
-11.206
-11.2194
-11.2199
-11.2495
-11.28
-11.2933
-11.2986
-11.2757
-11.2116
-11.1592
-11.111
-11.0646
-11.0285
-11.0005
-10.9797
-10.9791
-11.0171
-11.058
-11.0595
-11.0311
-10.991
-10.9449
-10.9009
-10.8634
-10.8295
-10.8044
-10.7914
-10.7853
-10.7796
-10.7688
-10.7613
-10.7843
-10.8384
-10.9056
-10.9537
-10.9969
-11.0379
-11.0842
-11.142
-11.2102
-11.2403
-11.2408
-11.2223
-11.1901
-11.1463
-11.1349
-11.1857
-11.2233
-11.1707
-11.0717
-10.9279
-10.7552
-10.5783
-10.4088
-10.2719
-10.1995
-10.1866
-10.1423
-10.0619
-9.97545
-9.85959
-9.8121
-9.82007
-9.83419
-11.2447
-11.2537
-11.2381
-11.2329
-11.251
-11.2739
-11.2845
-11.2837
-11.2824
-11.2754
-11.2998
-11.3876
-11.5071
-11.6081
-11.6781
-11.7164
-11.734
-11.7483
-11.7563
-11.7595
-11.7613
-11.7721
-11.7717
-11.7418
-11.6803
-11.6166
-11.5755
-11.5407
-11.5124
-11.506
-11.5272
-11.5841
-11.6606
-11.6871
-11.649
-11.5974
-11.5477
-11.4973
-11.4529
-11.417
-11.3851
-11.3641
-11.358
-11.358
-11.3598
-11.3586
-11.3479
-11.3492
-11.384
-11.4316
-11.4569
-11.4863
-11.5179
-11.555
-11.6098
-11.6691
-11.6968
-11.7028
-11.6934
-11.6726
-11.6531
-11.6702
-11.7246
-11.7467
-11.706
-11.6201
-11.5048
-11.3703
-11.2312
-11.1057
-11.0284
-11.023
-11.0602
-11.0629
-11.0021
-10.8856
-10.6793
-10.5117
-10.4657
-10.4637
-11.8401
-11.8765
-11.8594
-11.8567
-11.8732
-11.8821
-11.8777
-11.8659
-11.8452
-11.8113
-11.8424
-11.9552
-12.0927
-12.1878
-12.2484
-12.2931
-12.3183
-12.3274
-12.325
-12.3142
-12.3094
-12.3087
-12.2911
-12.2558
-12.2054
-12.1363
-12.0742
-12.0307
-12.0122
-12.0239
-12.0793
-12.1702
-12.2527
-12.2654
-12.2268
-12.1695
-12.1111
-12.0498
-11.9921
-11.9529
-11.924
-11.9035
-11.8927
-11.8895
-11.8947
-11.9064
-11.9118
-11.9066
-11.9253
-11.951
-11.9648
-11.9826
-12.0093
-12.0443
-12.0976
-12.1435
-12.1684
-12.1806
-12.1816
-12.1732
-12.1658
-12.1847
-12.2249
-12.2368
-12.2021
-12.1372
-12.0538
-11.9624
-11.8735
-11.8022
-11.7939
-11.8457
-11.9014
-11.9352
-11.9141
-11.8237
-11.5854
-11.2699
-11.1305
-11.0971
-12.4149
-12.4587
-12.4658
-12.4709
-12.4754
-12.477
-12.4709
-12.4553
-12.4292
-12.3849
-12.4462
-12.6167
-12.7808
-12.8529
-12.9038
-12.9609
-12.9631
-12.9251
-12.8896
-12.8698
-12.8662
-12.8514
-12.8242
-12.7955
-12.7606
-12.7044
-12.6282
-12.557
-12.5496
-12.5747
-12.6334
-12.733
-12.8171
-12.8405
-12.8291
-12.7918
-12.7209
-12.6298
-12.5453
-12.4886
-12.4579
-12.4342
-12.4181
-12.4099
-12.4106
-12.4194
-12.431
-12.4363
-12.4372
-12.4492
-12.4608
-12.4754
-12.5003
-12.5346
-12.5805
-12.6164
-12.6438
-12.662
-12.6694
-12.6664
-12.6609
-12.6692
-12.6887
-12.6966
-12.6801
-12.6411
-12.5906
-12.5444
-12.5061
-12.494
-12.5713
-12.6898
-12.7652
-12.7974
-12.8276
-12.7539
-12.487
-12.0526
-11.7834
-11.7142
-12.9646
-13.0042
-13.0354
-13.0364
-13.0269
-13.0215
-13.0157
-13.0051
-12.9953
-12.9857
-13.069
-13.308
-13.4607
-13.5134
-13.569
-13.5938
-13.5438
-13.4665
-13.4161
-13.3912
-13.3792
-13.3601
-13.3385
-13.3239
-13.3134
-13.2742
-13.212
-13.1335
-13.1263
-13.1589
-13.2001
-13.2813
-13.3647
-13.406
-13.3997
-13.3632
-13.2985
-13.1985
-13.1019
-13.0291
-12.9895
-12.9616
-12.9396
-12.9243
-12.917
-12.9176
-12.9214
-12.9357
-12.9267
-12.9231
-12.9445
-12.9642
-12.9917
-13.023
-13.0598
-13.0944
-13.126
-13.1489
-13.1598
-13.1583
-13.1501
-13.1462
-13.1494
-13.1519
-13.1445
-13.1245
-13.1049
-13.1054
-13.1176
-13.1777
-13.3399
-13.5177
-13.6469
-13.7354
-13.7679
-13.659
-13.3446
-12.8253
-12.4421
-12.324
-13.5089
-13.5458
-13.5726
-13.5679
-13.5637
-13.5595
-13.5515
-13.5448
-13.5447
-13.5467
-13.6404
-13.8841
-13.9943
-14.0525
-14.1161
-14.0945
-14.0135
-13.943
-13.8989
-13.875
-13.8644
-13.8519
-13.8421
-13.839
-13.8438
-13.8333
-13.7899
-13.7285
-13.7155
-13.7513
-13.7812
-13.8357
-13.9161
-13.9577
-13.9438
-13.8923
-13.8245
-13.7411
-13.6494
-13.5717
-13.5213
-13.4877
-13.4605
-13.4386
-13.4232
-13.4145
-13.4107
-13.4133
-13.4111
-13.3959
-13.4246
-13.4521
-13.4875
-13.5155
-13.5478
-13.5859
-13.6232
-13.6509
-13.6648
-13.6636
-13.6495
-13.6309
-13.6167
-13.6114
-13.6055
-13.5934
-13.6039
-13.6491
-13.7127
-13.8687
-14.1236
-14.3674
-14.5859
-14.7067
-14.6801
-14.495
-14.114
-13.5204
-13.0827
-12.9094
-14.0731
-14.0849
-14.0907
-14.0908
-14.0906
-14.0906
-14.0894
-14.0844
-14.0873
-14.0905
-14.1734
-14.3345
-14.436
-14.4976
-14.5337
-14.4943
-14.4332
-14.3873
-14.3652
-14.3543
-14.3487
-14.3449
-14.345
-14.3499
-14.3578
-14.3668
-14.345
-14.298
-14.2762
-14.3154
-14.3497
-14.3936
-14.4576
-14.489
-14.469
-14.4063
-14.3337
-14.2582
-14.1823
-14.1092
-14.0536
-14.0147
-13.9831
-13.9561
-13.9341
-13.9172
-13.9056
-13.8985
-13.9006
-13.8857
-13.9007
-13.9404
-13.988
-14.0158
-14.048
-14.0921
-14.135
-14.1655
-14.1791
-14.1733
-14.149
-14.117
-14.0986
-14.0893
-14.074
-14.0619
-14.1022
-14.1799
-14.2853
-14.5194
-14.8559
-15.1815
-15.4634
-15.549
-15.4636
-15.2097
-14.7508
-14.1241
-13.6386
-13.4478
-14.6084
-14.6011
-14.6034
-14.6045
-14.6065
-14.6096
-14.6126
-14.6185
-14.6413
-14.6897
-14.7335
-14.8004
-14.8753
-14.925
-14.9203
-14.8679
-14.8212
-14.8168
-14.8259
-14.8306
-14.8335
-14.8366
-14.8446
-14.855
-14.8635
-14.87
-14.8576
-14.815
-14.779
-14.8108
-14.8601
-14.8999
-14.9465
-14.9692
-14.9449
-14.8863
-14.8242
-14.7644
-14.7057
-14.6422
-14.5859
-14.544
-14.5099
-14.4795
-14.4529
-14.4306
-14.4135
-14.4009
-14.3969
-14.3964
-14.3794
-14.4336
-14.4925
-14.5244
-14.5568
-14.6058
-14.6508
-14.679
-14.6871
-14.6741
-14.6443
-14.6151
-14.5987
-14.5824
-14.5505
-14.5437
-14.6054
-14.6975
-14.8207
-15.0783
-15.4401
-15.8389
-16.1384
-16.206
-16.0841
-15.7824
-15.2714
-14.6366
-14.166
-14.0129
-15.111
-15.1096
-15.1115
-15.114
-15.1173
-15.1217
-15.1294
-15.1459
-15.1958
-15.3004
-15.3636
-15.3842
-15.4105
-15.4223
-15.3847
-15.3141
-15.2761
-15.2817
-15.3052
-15.3126
-15.316
-15.3228
-15.3347
-15.3497
-15.3555
-15.3538
-15.329
-15.2805
-15.2368
-15.2481
-15.2956
-15.3366
-15.3682
-15.3803
-15.3642
-15.3388
-15.3039
-15.2648
-15.219
-15.1676
-15.1181
-15.0773
-15.0425
-15.0105
-14.9812
-14.9559
-14.9357
-14.9212
-14.914
-14.9203
-14.8952
-14.9418
-14.9962
-15.0397
-15.0721
-15.1213
-15.1648
-15.1887
-15.1925
-15.1777
-15.1501
-15.1298
-15.1117
-15.085
-15.0453
-15.0519
-15.1209
-15.2016
-15.3192
-15.5466
-15.882
-16.2866
-16.5885
-16.6518
-16.5186
-16.2109
-15.7269
-15.1664
-14.7839
-14.6931
-15.6148
-15.6168
-15.6188
-15.623
-15.6275
-15.6336
-15.6447
-15.6672
-15.7232
-15.8491
-15.9724
-16.0331
-16.0469
-16.0309
-15.9783
-15.8746
-15.784
-15.7561
-15.7851
-15.7893
-15.7936
-15.8028
-15.8161
-15.8284
-15.832
-15.822
-15.7852
-15.7303
-15.6876
-15.6815
-15.709
-15.7405
-15.7613
-15.7752
-15.786
-15.7916
-15.7813
-15.7575
-15.7251
-15.6884
-15.6512
-15.6163
-15.5836
-15.5519
-15.5216
-15.4951
-15.474
-15.4595
-15.4513
-15.4558
-15.4522
-15.4662
-15.5095
-15.5611
-15.5944
-15.6385
-15.6819
-15.7056
-15.7087
-15.6988
-15.6731
-15.6543
-15.6381
-15.6052
-15.5707
-15.5896
-15.6476
-15.7002
-15.7854
-15.9469
-16.2035
-16.5284
-16.789
-16.8629
-16.7555
-16.5364
-16.2238
-15.8444
-15.5426
-15.477
-16.12
-16.1226
-16.1257
-16.1314
-16.138
-16.1471
-16.1614
-16.1869
-16.2348
-16.3344
-16.4729
-16.589
-16.628
-16.6264
-16.5786
-16.4637
-16.3339
-16.2465
-16.2554
-16.262
-16.2673
-16.2753
-16.2868
-16.2957
-16.2956
-16.2792
-16.2384
-16.1869
-16.1501
-16.1364
-16.1437
-16.1563
-16.1737
-16.2009
-16.2294
-16.2487
-16.2538
-16.2465
-16.2324
-16.2134
-16.1905
-16.1653
-16.1382
-16.1091
-16.0796
-16.0531
-16.0318
-16.0175
-16.0096
-16.0126
-16.0196
-16.0123
-16.0358
-16.084
-16.123
-16.1603
-16.2047
-16.2334
-16.229
-16.2229
-16.2036
-16.1892
-16.1808
-16.1545
-16.1329
-16.145
-16.1772
-16.1996
-16.2345
-16.3102
-16.4473
-16.6323
-16.7882
-16.8582
-16.8421
-16.8058
-16.7459
-16.5856
-16.3649
-16.2318
-16.6241
-16.6267
-16.6312
-16.6383
-16.6475
-16.6604
-16.6791
-16.7074
-16.7499
-16.8167
-16.9097
-17.0053
-17.0787
-17.0923
-17.0423
-16.9546
-16.8572
-16.7498
-16.7228
-16.7381
-16.7419
-16.7473
-16.7543
-16.758
-16.7529
-16.733
-16.6951
-16.6512
-16.6198
-16.6033
-16.5976
-16.6012
-16.619
-16.6498
-16.6822
-16.7089
-16.728
-16.7403
-16.7464
-16.7478
-16.7442
-16.7343
-16.7167
-16.692
-16.6649
-16.6396
-16.6178
-16.6006
-16.5893
-16.5856
-16.5897
-16.5792
-16.5789
-16.6117
-16.6523
-16.6903
-16.731
-16.767
-16.7542
-16.7501
-16.7406
-16.7371
-16.7448
-16.7398
-16.7288
-16.7188
-16.7162
-16.7009
-16.6793
-16.6794
-16.7007
-16.7465
-16.8076
-16.8638
-16.9496
-17.0838
-17.2119
-17.1813
-17.015
-16.8582
-17.126
-17.129
-17.1344
-17.1425
-17.1546
-17.1718
-17.1958
-17.2282
-17.2699
-17.3208
-17.3786
-17.4353
-17.4785
-17.4878
-17.4615
-17.4055
-17.3267
-17.2461
-17.2026
-17.2222
-17.223
-17.2254
-17.2274
-17.2255
-17.2152
-17.1935
-17.1602
-17.1237
-17.095
-17.0759
-17.0649
-17.0659
-17.0817
-17.1094
-17.1441
-17.18
-17.2131
-17.2435
-17.2724
-17.3013
-17.3257
-17.3385
-17.3344
-17.3145
-17.2918
-17.2693
-17.2452
-17.2179
-17.1942
-17.1766
-17.1678
-17.1574
-17.1397
-17.1474
-17.183
-17.2252
-17.2624
-17.3002
-17.2913
-17.281
-17.2826
-17.2929
-17.3258
-17.3539
-17.3487
-17.3171
-17.2735
-17.2072
-17.1299
-17.0805
-17.0339
-16.99
-16.9794
-17.0301
-17.1749
-17.4033
-17.5978
-17.6222
-17.4991
-17.3712
-17.6254
-17.6287
-17.6344
-17.6435
-17.658
-17.6795
-17.7094
-17.7473
-17.7903
-17.833
-17.8713
-17.9091
-17.9407
-17.9463
-17.9219
-17.8719
-17.8024
-17.7421
-17.7118
-17.7191
-17.716
-17.7132
-17.71
-17.7031
-17.6892
-17.6671
-17.6376
-17.6063
-17.5792
-17.5588
-17.5467
-17.5458
-17.5598
-17.5871
-17.6232
-17.6644
-17.7094
-17.7584
-17.8141
-17.8786
-17.9409
-17.9835
-17.9988
-17.9989
-17.9911
-17.974
-17.9361
-17.8829
-17.8327
-17.7913
-17.7604
-17.7389
-17.7096
-17.6947
-17.7167
-17.7573
-17.7974
-17.8283
-17.8285
-17.805
-17.8238
-17.8435
-17.9001
-17.9665
-17.974
-17.9292
-17.8485
-17.7299
-17.5991
-17.5127
-17.447
-17.3764
-17.3349
-17.3786
-17.5321
-17.7544
-17.9357
-17.9759
-17.9047
-17.8264
-18.122
-18.1254
-18.1312
-18.1408
-18.1568
-18.1816
-18.2171
-18.2612
-18.3072
-18.3436
-18.3729
-18.4122
-18.4465
-18.4573
-18.4405
-18.3959
-18.3236
-18.257
-18.2422
-18.237
-18.2217
-18.2091
-18.1997
-18.1888
-18.173
-18.1518
-18.1259
-18.0983
-18.073
-18.0529
-18.0425
-18.0432
-18.0552
-18.0791
-18.1155
-18.1626
-18.2183
-18.2837
-18.3663
-18.4658
-18.5663
-18.6421
-18.6851
-18.7119
-18.7287
-18.7265
-18.6761
-18.5906
-18.503
-18.4281
-18.3658
-18.3188
-18.278
-18.2517
-18.2537
-18.2811
-18.3189
-18.3491
-18.3462
-18.3215
-18.3501
-18.3763
-18.4322
-18.5348
-18.5614
-18.5164
-18.4158
-18.2662
-18.0946
-17.973
-17.8981
-17.8456
-17.8204
-17.848
-17.9624
-18.1287
-18.2668
-18.3179
-18.2945
-18.2579
-18.616
-18.6192
-18.6249
-18.6342
-18.6503
-18.6769
-18.7163
-18.7657
-18.8144
-18.85
-18.8927
-18.9541
-19.0001
-19.0165
-19.0027
-18.9559
-18.8625
-18.795
-18.783
-18.7651
-18.7312
-18.7074
-18.6921
-18.6779
-18.6615
-18.642
-18.6197
-18.5964
-18.5759
-18.5585
-18.5507
-18.5511
-18.5605
-18.5824
-18.6218
-18.674
-18.7356
-18.8156
-18.9266
-19.0543
-19.1799
-19.2763
-19.3344
-19.3792
-19.4333
-19.4555
-19.4107
-19.3066
-19.1872
-19.0761
-18.9781
-18.8965
-18.8397
-18.8073
-18.7933
-18.7947
-18.8129
-18.8401
-18.8393
-18.8235
-18.854
-18.8881
-18.9336
-19.0122
-19.0559
-19.029
-18.9356
-18.7916
-18.6032
-18.4563
-18.3748
-18.3419
-18.3394
-18.3793
-18.4632
-18.5703
-18.6631
-18.7182
-18.7221
-18.6997
-19.1082
-19.111
-19.1161
-19.1242
-19.139
-19.1651
-19.2056
-19.2574
-19.3074
-19.3521
-19.4197
-19.4957
-19.544
-19.5614
-19.5488
-19.4987
-19.4018
-19.3403
-19.3144
-19.2774
-19.2325
-19.2035
-19.1846
-19.1688
-19.1529
-19.1358
-19.118
-19.1005
-19.0849
-19.0726
-19.0663
-19.0662
-19.073
-19.0959
-19.1398
-19.1935
-19.2573
-19.3583
-19.4959
-19.6479
-19.7901
-19.8935
-19.9553
-20.034
-20.1276
-20.1675
-20.12
-20.0026
-19.8643
-19.7236
-19.5895
-19.473
-19.3949
-19.3544
-19.3273
-19.2933
-19.2785
-19.2905
-19.302
-19.3055
-19.3356
-19.3686
-19.3971
-19.4374
-19.4731
-19.4604
-19.3904
-19.2774
-19.1074
-18.9577
-18.8716
-18.8431
-18.8651
-18.9223
-18.9923
-19.0721
-19.1411
-19.1775
-19.1775
-19.1625
-19.5998
-19.602
-19.6061
-19.6125
-19.6248
-19.6478
-19.6857
-19.7351
-19.7861
-19.845
-19.9241
-19.9987
-20.0441
-20.0606
-20.048
-19.9953
-19.9148
-19.8578
-19.8164
-19.768
-19.7248
-19.6969
-19.6773
-19.6614
-19.6472
-19.6336
-19.6205
-19.6082
-19.5976
-19.5897
-19.585
-19.585
-19.5914
-19.6209
-19.6689
-19.7175
-19.7882
-19.9118
-20.0707
-20.2423
-20.3969
-20.5025
-20.5772
-20.6918
-20.8117
-20.8566
-20.7901
-20.6636
-20.5142
-20.3521
-20.1887
-20.0432
-19.9416
-19.8883
-19.8442
-19.7741
-19.7279
-19.7258
-19.7487
-19.7685
-19.7931
-19.8203
-19.8364
-19.8588
-19.8714
-19.8571
-19.8075
-19.7241
-19.6057
-19.4747
-19.3892
-19.3573
-19.3835
-19.4404
-19.5071
-19.5756
-19.6283
-19.6523
-19.6494
-19.6405
-20.0927
-20.0942
-20.0969
-20.1014
-20.1104
-20.1286
-20.1602
-20.2034
-20.2533
-20.316
-20.389
-20.4502
-20.4885
-20.5056
-20.4955
-20.4504
-20.3896
-20.3398
-20.2944
-20.2498
-20.2138
-20.1886
-20.1698
-20.1554
-20.1437
-20.1337
-20.125
-20.1177
-20.1119
-20.1074
-20.1051
-20.1064
-20.1163
-20.1576
-20.2047
-20.2426
-20.3289
-20.4709
-20.6467
-20.8267
-20.9817
-21.0851
-21.1766
-21.3158
-21.4456
-21.4754
-21.3986
-21.2751
-21.1162
-20.945
-20.7657
-20.5953
-20.4744
-20.4079
-20.3396
-20.2435
-20.1776
-20.1763
-20.2074
-20.2316
-20.2532
-20.276
-20.2975
-20.309
-20.3063
-20.2819
-20.2388
-20.1758
-20.0925
-19.9961
-19.919
-19.8859
-19.9066
-19.9613
-20.0178
-20.0659
-20.106
-20.1272
-20.1311
-20.1281
-20.5886
-20.5893
-20.5908
-20.5935
-20.5994
-20.6124
-20.6365
-20.6727
-20.72
-20.7782
-20.8361
-20.8787
-20.9073
-20.9233
-20.9185
-20.8923
-20.8512
-20.8098
-20.7694
-20.7322
-20.7024
-20.6799
-20.6631
-20.6507
-20.6414
-20.6353
-20.6315
-20.6289
-20.6268
-20.6257
-20.6267
-20.6305
-20.648
-20.6953
-20.7316
-20.7707
-20.8713
-21.0272
-21.2143
-21.3919
-21.5332
-21.6291
-21.7368
-21.8974
-22.0082
-22.0101
-21.94
-21.8233
-21.662
-21.4979
-21.3127
-21.124
-20.9921
-20.9137
-20.8247
-20.7188
-20.6505
-20.658
-20.6946
-20.724
-20.7559
-20.7839
-20.8002
-20.8033
-20.7913
-20.7582
-20.7103
-20.6531
-20.5876
-20.5176
-20.4553
-20.4259
-20.4457
-20.4936
-20.5416
-20.5773
-20.604
-20.6211
-20.6269
-20.6262
-21.0886
-21.0887
-21.0894
-21.091
-21.0949
-21.1043
-21.123
-21.1546
-21.2007
-21.254
-21.2991
-21.3365
-21.3727
-21.3934
-21.3905
-21.36
-21.3203
-21.2821
-21.2474
-21.2168
-21.1914
-21.1713
-21.1563
-21.1462
-21.1413