/*--------------------------------*- C++ -*----------------------------------*\
| =========                 |                                                 |
| \\      /  F ield         | OpenFOAM: The Open Source CFD Toolbox           |
|  \\    /   O peration     | Version:  2412                                  |
|   \\  /    A nd           | Website:  www.openfoam.com                      |
|    \\/     M anipulation  |                                                 |
\*---------------------------------------------------------------------------*/
FoamFile
{
    version     2.0;
    format      ascii;
    arch        "LSB;label=32;scalar=64";
    class       volScalarField;
    location    "10";
    object      p_rgh;
}
// * * * * * * * * * * * * * * * * * * * * * * * * * * * * * * * * * * * * * //

dimensions      [1 -1 -2 0 0 0 0];

internalField   nonuniform List<scalar> 
6400
(
7753.9
7754.26
7754.88
7755.77
7756.91
7758.26
7759.81
7761.53
7763.4
7765.38
7767.45
7769.56
7771.66
7773.7
7775.64
7777.42
7778.99
7780.31
7781.34
7782.04
7782.4
7782.39
7782.03
7781.32
7780.26
7778.89
7777.24
7775.36
7773.3
7771.11
7768.85
7766.6
7764.4
7762.32
7760.43
7758.77
7757.38
7756.31
7755.59
7755.24
7755.26
7755.65
7756.41
7757.51
7758.92
7760.6
7762.5
7764.57
7766.75
7768.97
7771.18
7773.3
7775.29
7777.09
7778.64
7779.91
7780.85
7781.45
7781.68
7781.56
7781.07
7780.24
7779.09
7777.65
7775.96
7774.07
7772.03
7769.89
7767.7
7765.52
7763.38
7761.34
7759.43
7757.67
7756.08
7754.7
7753.55
7752.64
7752.01
7751.65
7753.56
7753.92
7754.55
7755.46
7756.61
7757.98
7759.56
7761.31
7763.22
7765.25
7767.36
7769.52
7771.68
7773.77
7775.76
7777.59
7779.21
7780.58
7781.64
7782.37
7782.75
7782.77
7782.4
7781.67
7780.59
7779.19
7777.51
7775.58
7773.47
7771.22
7768.91
7766.59
7764.33
7762.2
7760.25
7758.54
7757.12
7756.02
7755.28
7754.92
7754.94
7755.35
7756.13
7757.26
7758.71
7760.44
7762.39
7764.52
7766.75
7769.04
7771.3
7773.49
7775.53
7777.37
7778.96
7780.25
7781.21
7781.82
7782.06
7781.92
7781.41
7780.54
7779.35
7777.86
7776.13
7774.18
7772.09
7769.9
7767.66
7765.42
7763.24
7761.15
7759.2
7757.41
7755.8
7754.4
7753.23
7752.31
7751.67
7751.3
7752.92
7753.29
7753.94
7754.88
7756.06
7757.48
7759.1
7760.92
7762.89
7765.01
7767.22
7769.48
7771.73
7773.94
7776.04
7777.97
7779.68
7781.13
7782.26
7783.05
7783.46
7783.49
7783.13
7782.37
7781.25
7779.79
7778.02
7775.99
7773.77
7771.4
7768.96
7766.52
7764.14
7761.9
7759.84
7758.04
7756.54
7755.38
7754.6
7754.22
7754.25
7754.68
7755.5
7756.7
7758.23
7760.05
7762.12
7764.36
7766.72
7769.13
7771.52
7773.82
7775.97
7777.9
7779.57
7780.93
7781.93
7782.55
7782.79
7782.63
7782.08
7781.16
7779.9
7778.32
7776.49
7774.44
7772.24
7769.94
7767.59
7765.26
7762.98
7760.81
7758.79
7756.93
7755.28
7753.84
7752.63
7751.69
7751.03
7750.65
7751.97
7752.36
7753.05
7754.02
7755.25
7756.73
7758.43
7760.34
7762.42
7764.66
7767.01
7769.42
7771.84
7774.21
7776.47
7778.56
7780.41
7781.99
7783.22
7784.09
7784.56
7784.6
7784.23
7783.43
7782.24
7780.67
7778.77
7776.59
7774.2
7771.65
7769.02
7766.39
7763.82
7761.39
7759.18
7757.23
7755.62
7754.37
7753.53
7753.12
7753.15
7753.61
7754.51
7755.8
7757.45
7759.42
7761.66
7764.08
7766.63
7769.23
7771.81
7774.3
7776.61
7778.7
7780.49
7781.94
7783.01
7783.67
7783.91
7783.72
7783.12
7782.11
7780.75
7779.04
7777.06
7774.85
7772.49
7770.02
7767.51
7765.02
7762.61
7760.31
7758.18
7756.24
7754.51
7753.01
7751.76
7750.78
7750.08
7749.69
7750.69
7751.11
7751.84
7752.86
7754.16
7755.72
7757.52
7759.55
7761.78
7764.19
7766.74
7769.36
7771.99
7774.59
7777.07
7779.37
7781.43
7783.18
7784.54
7785.52
7786.05
7786.13
7785.74
7784.89
7783.59
7781.88
7779.8
7777.42
7774.78
7771.98
7769.09
7766.19
7763.36
7760.68
7758.24
7756.1
7754.32
7752.94
7752.02
7751.57
7751.6
7752.12
7753.1
7754.53
7756.35
7758.53
7760.99
7763.67
7766.48
7769.35
7772.19
7774.93
7777.48
7779.77
7781.74
7783.32
7784.49
7785.2
7785.45
7785.22
7784.55
7783.43
7781.92
7780.02
7777.84
7775.42
7772.83
7770.14
7767.41
7764.71
7762.1
7759.64
7757.36
7755.3
7753.48
7751.9
7750.59
7749.55
7748.82
7748.4
7749.06
7749.52
7750.3
7751.39
7752.76
7754.41
7756.33
7758.51
7760.94
7763.57
7766.37
7769.27
7772.19
7775.08
7777.84
7780.41
7782.72
7784.69
7786.26
7787.38
7788.01
7788.13
7787.72
7786.78
7785.35
7783.45
7781.14
7778.47
7775.53
7772.39
7769.15
7765.9
7762.73
7759.73
7756.99
7754.59
7752.6
7751.06
7750.03
7749.52
7749.56
7750.14
7751.25
7752.85
7754.9
7757.35
7760.11
7763.11
7766.27
7769.49
7772.68
7775.74
7778.6
7781.16
7783.36
7785.12
7786.41
7787.2
7787.45
7787.19
7786.4
7785.13
7783.42
7781.3
7778.85
7776.15
7773.27
7770.29
7767.27
7764.29
7761.43
7758.74
7756.28
7754.07
7752.13
7750.46
7749.07
7747.98
7747.21
7746.74
7747.05
7747.57
7748.4
7749.55
7751
7752.75
7754.8
7757.17
7759.85
7762.77
7765.89
7769.13
7772.42
7775.68
7778.81
7781.73
7784.37
7786.63
7788.43
7789.73
7790.47
7790.63
7790.2
7789.16
7787.56
7785.42
7782.8
7779.78
7776.45
7772.89
7769.21
7765.51
7761.91
7758.51
7755.4
7752.68
7750.41
7748.67
7747.5
7746.93
7746.98
7747.64
7748.9
7750.73
7753.06
7755.83
7758.97
7762.39
7765.98
7769.64
7773.27
7776.75
7780
7782.91
7785.39
7787.39
7788.85
7789.72
7789.99
7789.66
7788.74
7787.27
7785.31
7782.9
7780.12
7777.07
7773.81
7770.45
7767.07
7763.75
7760.56
7757.58
7754.88
7752.48
7750.41
7748.66
7747.21
7746.06
7745.23
7744.71
7744.64
7745.23
7746.11
7747.3
7748.8
7750.63
7752.85
7755.46
7758.45
7761.75
7765.28
7768.96
7772.7
7776.41
7779.99
7783.34
7786.37
7789
7791.09
7792.61
7793.5
7793.73
7793.26
7792.11
7790.29
7787.85
7784.86
7781.4
7777.58
7773.49
7769.27
7765.03
7760.9
7756.99
7753.43
7750.3
7747.7
7745.71
7744.37
7743.72
7743.78
7744.54
7745.99
7748.08
7750.75
7753.94
7757.55
7761.48
7765.6
7769.81
7773.98
7777.99
7781.72
7785.06
7787.91
7790.19
7791.84
7792.82
7793.11
7792.7
7791.62
7789.9
7787.6
7784.85
7781.67
7778.17
7774.46
7770.65
7766.81
7763.05
7759.45
7756.11
7753.09
7750.46
7748.24
7746.41
7744.92
7743.74
7742.85
7742.28
7741.81
7742.45
7743.36
7744.54
7746.03
7747.94
7750.35
7753.29
7756.69
7760.47
7764.5
7768.71
7773
7777.26
7781.39
7785.27
7788.78
7791.8
7794.3
7796.11
7797.19
7797.49
7796.99
7795.69
7793.62
7790.82
7787.38
7783.38
7778.96
7774.23
7769.34
7764.42
7759.64
7755.12
7750.99
7747.38
7744.38
7742.08
7740.54
7739.79
7739.86
7740.74
7742.41
7744.83
7747.92
7751.61
7755.79
7760.34
7765.12
7770
7774.84
7779.49
7783.81
7787.68
7790.97
7793.61
7795.5
7796.61
7796.9
7796.4
7795.12
7793.11
7790.43
7787.21
7783.53
7779.5
7775.24
7770.86
7766.48
7762.18
7758.07
7754.26
7750.82
7747.87
7745.47
7743.58
7742.11
7740.95
7740.05
7739.41
7738.53
7739.2
7740.07
7741.17
7742.62
7744.61
7747.26
7750.61
7754.53
7758.89
7763.54
7768.38
7773.33
7778.26
7783.05
7787.56
7791.68
7795.25
7798.2
7800.35
7801.65
7802.05
7801.51
7800.04
7797.65
7794.41
7790.42
7785.77
7780.61
7775.1
7769.4
7763.67
7758.09
7752.83
7748.04
7743.84
7740.36
7737.7
7735.91
7735.04
7735.13
7736.15
7738.09
7740.9
7744.49
7748.78
7753.64
7758.94
7764.52
7770.22
7775.87
7781.29
7786.34
7790.84
7794.68
7797.73
7799.92
7801.18
7801.49
7800.87
7799.33
7796.97
7793.81
7790.03
7785.74
7781.07
7776.14
7771.09
7766.04
7761.1
7756.38
7751.97
7748.02
7744.68
7742.05
7740.1
7738.68
7737.62
7736.78
7736.11
7734.82
7735.46
7736.23
7737.21
7738.62
7740.72
7743.67
7747.47
7751.98
7757
7762.37
7767.96
7773.68
7779.39
7784.98
7790.27
7795.12
7799.36
7802.87
7805.43
7807.01
7807.53
7806.96
7805.27
7802.51
7798.74
7794.07
7788.63
7782.59
7776.13
7769.44
7762.74
7756.21
7750.06
7744.46
7739.57
7735.52
7732.42
7730.35
7729.35
7729.45
7730.64
7732.9
7736.16
7740.36
7745.37
7751.05
7757.25
7763.79
7770.47
7777.08
7783.45
7789.36
7794.63
7799.12
7802.68
7805.22
7806.67
7807
7806.23
7804.38
7801.53
7797.83
7793.39
7788.35
7782.89
7777.16
7771.31
7765.49
7759.8
7754.36
7749.3
7744.76
7740.94
7738
7736.02
7734.69
7733.76
7733.03
7732.4
7730.7
7731.26
7731.9
7732.79
7734.21
7736.47
7739.72
7743.99
7749.1
7754.82
7760.97
7767.4
7774.01
7780.67
7787.2
7793.43
7799.16
7804.18
7808.31
7811.46
7813.41
7814.1
7813.48
7811.54
7808.33
7803.92
7798.44
7792.04
7784.94
7777.34
7769.47
7761.59
7753.93
7746.72
7740.16
7734.44
7729.72
7726.12
7723.71
7722.55
7722.67
7724.06
7726.69
7730.5
7735.4
7741.26
7747.92
7755.2
7762.88
7770.73
7778.52
7786
7792.96
7799.17
7804.44
7808.61
7811.57
7813.24
7813.58
7812.62
7810.41
7807
7802.58
7797.31
7791.37
7784.96
7778.28
7771.5
7764.79
7758.26
7752.03
7746.3
7741.16
7736.8
7733.6
7731.48
7730.24
7729.43
7728.83
7728.29
7726.19
7726.64
7727.18
7728.03
7729.51
7731.93
7735.47
7740.16
7745.83
7752.26
7759.24
7766.63
7774.28
7782.04
7789.71
7797.08
7803.89
7809.9
7814.88
7818.68
7821.05
7821.94
7821.28
7819.05
7815.3
7810.13
7803.67
7796.12
7787.73
7778.76
7769.48
7760.19
7751.16
7742.68
7734.99
7728.3
7722.79
7718.6
7715.81
7714.47
7714.61
7716.22
7719.29
7723.73
7729.45
7736.33
7744.15
7752.71
7761.75
7771.01
7780.2
7789.03
7797.24
7804.57
7810.78
7815.68
7819.14
7821.06
7821.4
7820.21
7817.58
7813.44
7808.15
7801.88
7794.85
7787.3
7779.47
7771.6
7763.86
7756.39
7749.38
7742.92
7737.21
7732.46
7729
7726.74
7725.47
7724.71
7724.24
7723.83
7721.24
7721.64
7722.11
7722.95
7724.48
7727.03
7730.8
7735.82
7741.99
7749.15
7757.02
7765.47
7774.34
7783.42
7792.48
7801.23
7809.37
7816.59
7822.62
7827.27
7830.14
7831.29
7830.61
7828.05
7823.67
7817.57
7809.94
7801.01
7791.06
7780.44
7769.46
7758.47
7747.82
7737.83
7728.79
7720.95
7714.53
7709.68
7706.45
7704.9
7705.05
7706.92
7710.48
7715.67
7722.34
7730.41
7739.61
7749.69
7760.36
7771.3
7782.16
7792.62
7802.34
7811.02
7818.36
7824.14
7828.18
7830.39
7830.71
7829.18
7825.82
7820.97
7814.66
7807.17
7798.79
7789.85
7780.64
7771.46
7762.53
7753.95
7746.05
7738.94
7732.82
7727.73
7724.08
7721.79
7720.38
7719.67
7719.29
7718.99
7715.9
7716.14
7716.6
7717.44
7718.97
7721.54
7725.42
7730.7
7737.33
7745.16
7754
7763.7
7774.02
7784.7
7795.44
7805.9
7815.68
7824.39
7831.67
7837.19
7840.89
7842.42
7841.74
7838.82
7833.7
7826.5
7817.45
7806.85
7795.04
7782.42
7769.4
7756.39
7743.79
7732
7721.36
7712.18
7704.69
7699.14
7695.4
7693.61
7693.78
7695.92
7700.02
7706.04
7713.87
7723.33
7734.16
7746.04
7758.65
7771.6
7784.48
7796.88
7808.43
7818.74
7827.45
7834.28
7839.01
7841.54
7841.83
7839.92
7835.86
7829.91
7822.27
7813.24
7803.2
7792.54
7781.65
7770.9
7760.63
7750.6
7741.86
7734.11
7727.57
7722.41
7718.66
7716.24
7714.88
7714.22
7713.91
7713.78
7709.97
7710.15
7710.59
7711.36
7712.77
7715.22
7719.04
7724.45
7731.47
7740.02
7749.93
7761
7773.11
7785.72
7798.54
7811.12
7822.95
7833.53
7842.41
7849.21
7853.7
7855.68
7855.05
7851.73
7845.73
7837.22
7826.46
7813.84
7799.78
7784.76
7769.29
7753.84
7738.92
7724.97
7712.48
7701.72
7693.04
7686.59
7682.36
7680.34
7680.53
7682.94
7687.62
7694.57
7703.7
7714.82
7727.6
7741.59
7756.54
7771.89
7787.17
7801.94
7815.7
7827.99
7838.37
7846.46
7852.01
7854.9
7855.12
7852.75
7847.77
7840.47
7831.16
7820.22
7808.09
7795.28
7782.28
7769.58
7757.51
7746.37
7736.52
7728.07
7721.17
7715.92
7712.26
7710.01
7708.81
7708.27
7708.06
7708.07
7703.35
7703.5
7703.96
7704.61
7705.75
7707.86
7711.4
7716.72
7724
7733.24
7744.33
7757.05
7771.15
7786.22
7801.67
7816.93
7831.34
7844.29
7855.18
7863.52
7869.02
7871.52
7871
7867.25
7860.24
7850.13
7837.29
7822.2
7805.41
7787.51
7769.08
7750.72
7733.02
7716.51
7701.74
7689.15
7679.11
7671.81
7667.1
7664.87
7665.04
7667.67
7672.92
7680.87
7691.51
7704.55
7719.62
7736.23
7753.92
7772.14
7790.33
7807.93
7824.39
7839.11
7851.51
7861.14
7867.65
7870.9
7870.98
7868.18
7861.95
7852.99
7841.59
7828.22
7813.46
7797.94
7782.31
7767.21
7753.14
7740.48
7729.52
7720.42
7713.3
7708.16
7704.83
7702.95
7702.07
7701.69
7701.58
7701.81
7695.86
7696.22
7696.88
7697.31
7697.91
7699.35
7702.18
7707.02
7714.3
7724.15
7736.48
7751.09
7767.68
7785.71
7804.48
7823.18
7840.92
7856.9
7870.36
7880.58
7887.15
7890.31
7890.1
7885.98
7877.74
7865.67
7850.25
7832.1
7811.99
7790.62
7768.67
7746.83
7725.79
7706.2
7688.73
7673.95
7662.38
7654.4
7649.36
7647.01
7647.1
7649.78
7655.48
7664.41
7676.79
7692.15
7709.96
7729.64
7750.61
7772.24
7793.88
7814.91
7834.67
7852.39
7867.31
7878.83
7886.46
7889.98
7889.64
7885.88
7878.73
7867.79
7853.73
7837.26
7819.12
7800.14
7781.18
7763.15
7746.71
7732.33
7720.23
7710.58
7703.47
7698.81
7696.2
7695.06
7694.76
7694.57
7694.35
7695.02
7690.95
7690.16
7690.35
7689.69
7688.87
7688.9
7690.24
7693.96
7700.89
7711.28
7725.01
7741.92
7761.69
7783.66
7806.8
7830
7851.98
7871.85
7888.6
7901.2
7908.77
7912.48
7913.16
7908.87
7899.21
7884.7
7866.1
7844.14
7819.97
7794.41
7768.2
7742.13
7717
7693.63
7672.84
7655.35
7641.92
7633.9
7628.74
7626.2
7626.26
7628.71
7634.65
7644.33
7658.85
7677.07
7698.26
7721.7
7746.67
7772.39
7798.13
7823.3
7847.13
7868.61
7886.63
7900.49
7909.42
7912.94
7911.7
7908
7899.16
7885.53
7868.05
7847.61
7825.12
7801.51
7778.07
7756.12
7736.76
7720.43
7707.21
7697.13
7690.34
7686.72
7685.58
7685.91
7687.19
7687.91
7687.86
7688.9
6103.9
5915.88
5926.24
5937.47
5947.83
5965.35
6001.13
6071.34
6184.64
6337.91
6523.22
6738.15
6977.75
7225.45
7451.94
7635.8
7767.97
7852.5
7901.05
7925.76
7935.32
7939.04
7942.04
7937.57
7925.6
7907.61
7865.78
7717.86
7539.55
7319.96
7061.94
6771.63
6459.26
6138.7
5832.84
5562.99
5336.8
5162.78
5033.65
4959.08
4968.71
5061.81
5218.85
5412.03
5653.83
5931.95
6231.75
6535.49
6829.84
7102.4
7341.56
7550.96
7732.82
7874.54
7909.9
7927.21
7938.31
7941.68
7937.84
7935.51
7922.21
7893.56
7839.7
7748.1
7606.15
7408.48
7166.16
6912.16
6677.07
6470.97
6289.67
6129.89
5999.65
5912.34
5872.19
5865.95
5871.12
5877.94
5889.07
6070.89
652.67
720.687
700.547
664.435
614.632
566.431
539.185
549.306
601.788
696.956
839.084
1040.54
1320.23
1692.11
2157.38
2697.46
3272.82
3837.58
4348.64
4700.06
4899.76
4986.27
4963.42
4794.01
4472.03
4016.82
3462.63
2929.22
2397.38
1899.12
1445.25
1054.51
735.433
488.596
311.229
186.787
95.4385
30.5197
0.940264
0.877287
0.913556
1.08984
20.4807
81.1846
171.442
306.854
503.377
768.431
1105.13
1506.82
1959.61
2461.16
2997.81
3523.43
4066.88
4507.42
4813.8
4969.12
4982.33
4885.41
4659.9
4258.36
3740.26
3176.72
2602.27
2058.68
1593.37
1231.08
961.7
767.288
633.21
550.026
516.869
529.31
567.954
618.775
666.136
699.241
716.235
661.884
1.66382
1.51742
1.48095
1.45174
1.40291
1.35623
1.32797
1.3076
1.2875
1.27056
1.25938
1.22838
1.16558
1.06261
0.937487
0.811482
0.717582
0.66241
0.819471
64.5938
139.886
177.272
184.345
158.415
106.2
50.5297
13.7332
4.84451
3.75764
2.70156
1.92401
1.52631
1.57357
1.53091
0.987364
0.730642
0.755686
0.793204
0.844971
0.879185
0.903865
0.949076
0.997279
0.979002
0.977666
1.16024
1.50586
1.84938
2.17995
2.67836
3.42675
4.45048
5.33744
17.4254
55.7757
111.861
162.08
184.077
172.451
125.006
36.9308
0.502007
0.389709
0.393969
0.485
0.688161
0.967099
1.26172
1.53073
1.77548
1.99954
2.20919
2.4126
2.50876
2.73285
3.05414
2.78507
2.6803
2.81773
3.21471
1.50054
1.48187
1.44714
1.40825
1.36224
1.32164
1.30019
1.28416
1.2702
1.25459
1.23581
1.26335
1.58341
1.16015
0.996141
0.951638
0.901237
0.737205
0.669659
0.518822
0.411516
0.366496
0.314483
0.598356
1.29495
1.28653
0.929576
0.833385
0.822052
0.755489
0.788968
0.88776
1.23052
1.62339
1.45676
1.04418
0.744488
0.72572
1.10497
1.23977
1.27476
1.11739
1.4276
1.67805
1.61113
1.62542
1.59964
1.5538
1.35627
1.01724
0.765916
0.796627
0.87786
0.969905
1.37705
0.929997
0.45236
0.30789
0.343589
0.411173
0.49992
0.557356
0.550896
0.536585
0.79244
1.9834
2.26728
2.49347
2.70351
2.87715
2.85441
3.05602
5.20092
5.60069
3.52955
2.79347
2.71672
2.69559
2.79568
2.93541
1.47252
2.43593
1.88176
1.4788
1.35184
1.30866
1.28361
1.27025
1.2658
1.2653
1.40828
1.61273
1.55631
1.4604
1.38331
1.16477
0.797658
0.740156
0.879757
0.911794
0.600244
0.401877
0.311427
0.495344
1.24962
1.00433
0.667833
0.665222
0.659352
0.619393
0.625606
0.641644
1.17831
1.55918
0.911218
0.572922
0.549651
0.633613
1.06218
1.1664
0.937932
0.780866
1.41795
1.98162
2.03111
2.05495
2.06387
2.004
1.36003
0.911748
0.610922
0.575424
0.567582
0.61154
1.1112
0.71754
0.365871
0.358683
0.376915
0.40935
0.453527
0.466725
0.47667
1.32683
1.54721
1.58532
1.60089
1.71939
1.58645
1.44399
1.63388
2.48341
4.67306
5.47086
5.62631
5.2219
2.57893
2.62641
3.1177
3.76113
1.55881
3.3169
3.33256
3.33766
2.89879
1.87324
1.30155
1.50253
1.59577
1.5987
1.53418
1.4232
1.2164
1.0139
0.913714
0.870771
0.834738
1.10858
2.24764
1.78903
0.592735
0.375791
0.299061
0.351805
2.11829
0.920014
0.622234
0.640939
0.622215
0.593119
0.559512
0.504348
0.534177
0.582749
0.413916
0.461234
0.480505
0.52741
0.568919
0.604756
0.636655
0.657496
0.663599
0.663479
0.667288
1.21686
2.07555
2.07419
2.03532
1.03294
0.587931
0.56077
0.543325
0.569391
1.18619
0.879009
0.396312
0.389964
0.39937
0.420185
0.44025
0.433505
0.885789
1.10979
0.65467
0.472304
0.587589
0.722107
0.86119
0.987029
1.07106
1.08611
1.05326
3.39692
5.48894
5.68591
5.20621
2.45613
3.1123
3.71292
1.99106
3.28893
3.30594
3.30681
3.23441
3.10789
3.06084
3.03767
1.52023
1.58213
2.28239
3.13731
2.78686
2.06571
1.2913
1.39467
2.22889
2.24814
2.25056
2.26135
2.2141
0.433161
0.23543
1.15667
2.37804
2.50315
1.6723
0.674817
0.722093
0.718454
0.500045
0.407765
0.329166
0.351605
1.4693
1.73922
0.754179
0.587068
0.641714
0.559509
0.588299
0.608803
0.619492
0.622526
0.617426
0.606843
1.28791
2.06468
2.04553
1.34374
0.57098
0.553836
0.529463
0.771117
1.2059
0.444776
0.417853
0.405686
0.404731
0.413177
0.420874
0.449897
0.502161
0.388312
0.383868
0.448747
0.532131
0.623527
0.712492
0.785566
0.804258
0.76219
0.72715
0.806373
4.99059
5.53961
5.86579
2.58979
2.52552
3.0428
1.98897
3.30094
3.29227
2.78926
0.874021
0.552253
0.927319
1.18617
0.893217
2.41137
4.54299
4.36445
4.1508
3.9287
3.76339
3.70629
2.5857
1.1107
1.45495
2.27695
1.72829
0.263815
0.178535
0.895366
2.45301
2.51591
2.59887
0.752761
0.710935
1.94084
0.446693
0.338243
0.254101
1.10046
1.62828
1.66778
1.66178
1.0445
1.24842
0.643763
0.545213
0.568926
0.584967
0.59271
0.592404
0.588896
0.668035
1.80658
2.07038
1.20074
0.56657
0.551978
0.64438
0.930389
0.806642
0.463425
0.436021
0.417829
0.41042
0.413497
0.419022
0.41161
0.392594
0.384161
0.399565
0.438441
0.488972
0.53519
0.573656
0.594013
0.554224
0.434001
0.378977
0.882086
5.01586
5.34737
5.64481
5.62469
2.38114
1.56553
3.2485
3.33527
3.15273
0.475531
0.462288
0.467544
0.473316
0.483947
0.731588
3.91118
4.56122
4.32224
1.70449
2.45787
3.73322
0.869959
0.140083
0.0671204
0.170959
0.433558
0.402475
0.208181
0.151171
0.167198
1.6162
2.52741
2.58961
2.36495
0.808768
1.99713
1.51643
0.283098
0.5404
1.89122
1.50906
0.344873
0.385188
1.12986
1.22647
0.905221
0.505362
0.531841
0.553458
0.568156
0.576008
0.577143
0.597102
0.713835
2.09935
1.13073
0.57415
0.558819
0.907375
0.956279
0.658163
0.479002
0.447452
0.424559
0.413607
0.415085
0.423379
0.427304
0.424352
0.423117
0.429817
0.448844
0.468598
0.467947
0.456186
1.52127
0.877105
0.275284
0.752392
4.46536
5.03746
5.14376
5.45489
5.97603
3.85237
1.39505
3.38378
3.25151
0.646948
0.411505
0.415574
0.420045
0.428012
0.434756
0.59337
2.4264
4.63099
2.02351
0.208457
0.137599
1.62898
1.04693
-0.0176292
0.0527736
0.09723
0.119937
0.124229
0.135585
0.137751
0.140409
0.13787
2.31917
2.58632
2.64535
1.10526
1.97589
1.98372
1.47025
1.92942
1.89843
1.45472
0.290992
0.356468
0.703132
1.19999
0.814024
0.463974
0.495747
0.522595
0.544405
0.560354
0.569808
0.573593
0.623588
1.91582
1.40207
0.585469
0.596462
1.00009
0.983639
0.610219
0.481161
0.443786
0.420601
0.406469
0.403443
0.417527
0.436371
0.497582
0.735792
0.609778
0.474943
0.464952
0.41848
0.531722
2.25548
3.10738
3.53115
4.90341
4.78681
4.81294
4.99585
5.37248
5.96229
3.98796
1.29846
3.34052
0.544918
0.379065
0.378908
0.379222
0.379458
0.380797
0.385723
0.468849
2.40557
4.69745
0.64959
0.251965
0.174779
0.23101
0.0693943
0.0537126
0.0996243
0.121691
0.200337
0.207004
0.137988
0.124833
0.119934
0.112176
0.471566
2.6034
2.61176
0.816155
1.16922
2.00516
2.00665
1.95487
1.92078
1.08513
0.284828
0.346506
0.566451
1.17299
0.81519
0.427227
0.459366
0.490439
0.517388
0.54003
0.559429
0.569391
0.576647
0.674904
1.74322
0.601206
0.578118
1.01984
1.00394
0.580714
0.468602
0.426409
0.403099
0.389483
0.387488
0.411989
0.560911
1.17318
1.21154
0.747228
0.505151
0.467846
0.38318
0.787966
1.00947
2.24785
4.99154
4.71406
4.6285
4.71384
4.96728
5.42405
6.03701
1.70964
1.26034
0.464178
0.359218
0.35686
0.355744
0.353791
0.351282
0.348559
0.342115
0.319355
2.739
4.60838
3.53018
0.314446
0.172272
0.0943703
0.115432
0.156823
0.16152
0.24883
0.306424
0.213801
0.124659
0.115737
0.105298
0.0968112
0.0905599
0.79557
1.11233
0.432046
0.405932
1.97455
2.05692
2.01198
1.76575
0.369164
0.346136
0.516496
0.863173
0.987939
0.770591
0.415667
0.420468
0.454087
0.484389
0.513169
0.536903
0.552863
0.56495
0.57127
1.76229
0.899839
0.571028
0.806049
1.01033
0.58945
0.448587
0.403728
0.379612
0.369091
0.380625
0.459296
1.22312
1.23946
1.24921
0.620568
0.544602
0.611887
0.36661
0.582222
0.132072
-0.142455
5.02196
4.723
4.6555
4.77728
5.07688
5.57315
5.16729
1.74057
2.42908
0.340176
0.341567
0.339222
0.336725
0.333501
0.329289
0.322283
0.305272
0.255389
1.19588
4.416
5.12398
4.07562
1.87101
1.62036
0.604974
0.198475
0.211502
0.249601
0.192902
0.136299
0.128036
0.116119
0.101072
0.0953223
0.0970049
0.124765
0.19225
0.367659
0.422634
0.851762
1.99887
1.72881
0.561782
0.43775
0.660818
0.750849
0.778978
0.441651
0.288947
0.336775
0.377199
0.411958
0.44399
0.474245
0.502461
0.522652
0.535612
0.542461
1.35069
1.53442
0.556398
0.521072
1.00435
0.826294
0.426841
0.383442
0.359816
0.356329
0.371508
0.775875
1.2269
1.24774
0.911181
0.648427
1.52044
1.92794
0.379511
0.316428
0.119421
-0.167386
3.04984
4.95633
4.89351
5.02458
5.31465
5.72321
1.87609
1.74294
5.25888
0.327523
0.336513
0.326461
0.318283
0.313722
0.30763
0.296876
0.274686
0.218602
0.0928152
1.67116
5.13818
5.20698
5.22293
5.26421
5.12244
1.98962
0.213937
0.156164
0.15193
0.147817
0.138533
0.125249
0.112967
0.109306
0.119446
0.156792
0.216032
0.628113
0.728248
0.555302
0.41358
0.4012
0.649616
0.702176
0.703723
0.703625
0.277134
0.220104
0.256594
0.293853
0.328808
0.361527
0.39322
0.42352
0.45384
0.475184
0.488003
0.49549
0.694838
1.49908
0.928034
0.520829
0.988913
0.930972
0.403372
0.360162
0.336591
0.333678
0.359612
1.10341
1.22477
1.14636
0.696895
0.975859
2.14991
2.0897
0.880665
0.376886
0.238282
0.175066
3.20116
5.43471
5.36312
5.45322
5.58557
2.62692
1.29847
4.95107
5.11357
0.315194
0.322872
0.319652
0.300332
0.293741
0.284677
0.270331
0.246261
0.197614
0.0980697
-0.0367886
-0.0135352
4.38138
4.63243
5.02944
5.10288
5.03866
3.05658
0.17632
0.16977
0.164467
0.156578
0.14602
0.137187
0.137269
0.153596
0.194543
0.24772
0.497004
0.773549
0.445675
0.307714
0.487961
0.788723
0.764977
0.451801
0.180493
0.188127
0.202514
0.222078
0.245147
0.270361
0.297488
0.326635
0.356114
0.382672
0.407508
0.419653
0.427468
0.424881
1.43863
1.4178
0.513575
0.565658
0.876381
0.581404
0.331134
0.302595
0.30707
0.424706
1.16584
1.20553
0.668654
0.755168
2.15582
2.14263
2.10806
1.87867
0.448647
0.497064
0.726474
0.689897
5.17327
6.02444
5.49143
0.905239
-0.00743909
0.801502
3.54685
2.82214
0.302146
0.309623
0.305118
0.284018
0.274735
0.261813
0.243151
0.216294
0.17384
0.106354
0.013434
-0.0818914
-0.118685
-0.16688
0.245555
3.05395
4.56213
4.65722
0.215689
0.184125
0.180333
0.175269
0.168742
0.164915
0.17011
0.191343
0.231487
0.277799
0.312271
0.508948
0.341946
0.34601
0.460147
0.422779
0.273982
0.215264
0.196228
0.184478
0.178845
0.177782
0.18188
0.19209
0.209594
0.234308
0.261407
0.286788
0.308702
0.326225
0.338045
0.342089
0.699226
1.33763
1.1947
0.552857
0.569483
0.784403
0.503505
0.263195
0.778486
0.406703
1.03508
1.13954
0.441425
1.43837
2.10585
2.1168
2.11737
2.11745
0.570157
1.02902
1.22482
0.719331
0.689631
1.54336
0.79267
0.0914564
-0.0775429
0.0657301
1.23375
0.956289
0.288564
0.298226
0.292891
0.270477
0.258105
0.240907
0.216979
0.184549
0.143595
0.0927611
0.0348054
-0.0217066
-0.0645241
-0.0717804
-0.0454311
0.0110784
0.0904823
3.47436
0.949504
0.259493
0.189783
0.187503
0.185481
0.187389
0.19875
0.222137
0.255436
0.290832
0.318272
0.338001
0.350582
0.355769
0.340526
0.308017
0.270344
0.234604
0.201529
0.17137
0.143294
0.11536
0.0911911
0.0785757
0.0862608
0.185956
0.294334
0.223006
0.175312
0.200062
0.224164
0.242663
0.252174
1.24988
1.38505
0.553452
0.546904
0.765838
0.735826
0.229038
1.17082
0.405353
0.880002
0.992424
0.32782
1.90061
2.03261
2.06355
2.1024
2.11767
0.685697
0.886867
1.40972
1.39699
0.700746
0.619898
0.464745
0.219089
0.0182971
0.0310658
2.78579
0.953644
0.278597
0.289467
0.283591
0.266389
0.245224
0.223748
0.193872
0.155979
0.112953
0.070338
0.0321916
-0.00488263
-0.0347715
-0.0203519
0.0676108
0.0604238
0.125486
0.191901
1.76958
0.546745
0.187225
0.190012
0.1933
0.200235
0.214724
0.237054
0.265755
0.29726
0.324404
0.345018
0.358812
0.368432
0.35451
0.318952
0.281508
0.240593
0.19584
0.14839
0.0958643
0.0316672
-0.0232727
-0.0561411
0.0408726
1.06637
1.39982
1.12042
0.190465
0.0291226
0.0772262
0.11941
0.151956
0.575797
1.35548
1.40533
0.533245
0.557912
0.705187
0.550549
1.15667
0.397512
1.0425
0.853228
0.134235
1.58826
1.95254
1.99256
2.06003
2.15609
1.51737
0.760905
1.25941
1.81071
1.48704
0.757876
0.586756
0.357775
0.176572
1.42101
2.98224
1.02921
0.272127
0.27989
0.277593
0.266995
0.237001
0.212125
0.176651
0.132616
0.0869289
0.0503447
0.112312
0.356973
0.291945
1.39959
1.78892
1.69104
0.21334
1.05612
1.77291
1.24108
0.172069
0.184611
0.194016
0.204997
0.220807
0.241992
0.267916
0.296101
0.329473
0.352059
0.362452
0.361132
0.339719
0.315418
0.279486
0.232931
0.179162
0.221871
0.508764
0.233027
-0.12041
-0.178392
1.04587
1.21023
1.32813
0.331736
-0.212019
-0.167132
-0.0955741
-0.0249384
0.0411999
0.090566
1.20777
1.57368
0.90962
0.586677
0.582147
1.15347
1.15903
0.492787
1.03506
0.934927
0.0792474
0.627655
1.90249
1.93701
2.01514
2.11948
2.24252
0.756115
0.524588
1.78062
2.46417
2.13023
0.65612
0.48522
0.365589
3.39148
3.29867
0.534741
0.268392
0.272619
0.274615
0.254232
0.233979
0.207378
0.16796
0.118781
0.0736597
0.101492
1.34791
1.8143
1.76886
1.75246
1.76635
1.81205
0.227416
1.74897
1.76593
0.960097
0.153093
0.17686
0.192159
0.206315
0.222784
0.244539
0.286514
0.315459
0.335958
0.336948
0.333644
0.333217
0.323814
0.302065
0.264075
0.21536
0.220269
0.682969
1.24245
1.03121
0.136307
-0.168961
-0.136245
0.629729
1.63191
0.11544
-0.402868
-0.346097
0.0121738
-0.0603061
-0.0778974
0.0164897
1.36939
1.56117
1.56074
0.714856
0.53714
0.666954
1.18611
0.808425
1.04971
1.01399
0.133633
-0.0718658
0.412937
1.07991
1.40298
2.09982
2.19629
0.925902
0.538071
0.56984
0.944938
3.15449
3.11912
3.12545
3.634
3.56716
1.66886
0.334012
0.266646
0.269568
0.270972
0.250506
0.235709
0.209694
0.169139
0.117489
0.0693966
0.702203
1.88251
1.81039
1.76445
1.74704
1.75962
1.80947
1.84896
1.47092
1.09204
0.0985032
0.142227
0.171272
0.190123
0.208918
0.248302
0.267616
0.285392
0.292708
0.289857
0.302148
0.308425
0.308579
0.301829
0.280384
0.28997
0.437395
0.450857
1.32457
1.2048
1.05133
0.277386
-0.19664
0.280387
2.36096
2.30055
1.289
-0.45487
-0.4695
-0.158853
-0.00686423
-0.180277
0.385573
1.50265
1.54724
1.57027
0.672847
0.569701
0.565092
0.835315
0.802841
1.08061
0.822693
0.0513179
-0.0238746
-0.0597713
-0.0470691
0.022905
0.617537
1.63878
0.498016
0.531377
0.559905
0.770352
0.720254
0.709612
2.00311
3.71451
3.03379
0.424336
0.32537
0.26547
0.264139
0.26101
0.252748
0.240473
0.217441
0.179589
0.130597
0.0843578
0.869911
1.91296
1.84283
1.67496
1.78729
1.79961
0.808018
0.150548
0.093142
0.0702961
0.0973541
0.140442
0.168961
0.211276
0.235687
0.24987
0.258924
0.244873
0.25708
0.267625
0.275557
0.280273
0.280266
0.274383
0.642727
1.01471
0.739521
0.929094
1.32277
1.15903
0.982502
0.167185
-0.241012
1.86726
2.30449
2.16805
1.28904
-0.463645
-0.28326
-0.3748
-0.392468
-0.263026
0.281132
1.48882
1.54099
1.02353
0.576533
0.624565
1.20415
0.887327
0.852109
0.792304
0.385658
0.0726169
0.0469236
0.0336313
0.0475387
0.097613
0.185165
0.343647
0.483061
0.506717
0.536894
0.615846
0.762647
0.549242
0.441224
0.470019
0.360572
0.261917
0.290399
0.263053
0.261584
0.25883
0.254445
0.245387
0.227187
0.195591
0.152647
0.104124
0.309576
0.782671
0.468105
-0.0560757
0.0242537
0.0673764
-0.0779752
-0.0269099
0.0262566
0.0690583
0.112299
0.166277
0.199953
0.218616
0.23304
0.228592
0.2221
0.23079
0.238026
0.243889
0.248331
0.250691
0.254875
0.448804
1.36646
1.27157
0.744635
1.4325
1.28946
1.11218
0.92572
0.12069
-0.284977
1.77197
2.21254
2.10812
0.0774856
-0.624895
-0.574841
-0.661163
-0.505332
-0.329369
-0.114764
0.897268
1.37777
0.608824
0.655255
0.755129
1.3742
1.34442
1.30882
1.25717
0.863966
0.46721
0.181849
0.0908829
0.114732
0.162101
0.238917
0.396837
0.477801
0.480526
0.503285
0.49527
0.747596
0.794668
0.455245
0.253225
0.230112
0.225607
0.228466
0.257681
0.256954
0.255447
0.252796
0.24689
0.233874
0.209753
0.173659
0.126567
0.0697656
0.017129
-0.00799106
-0.00720373
-0.0555952
-0.0606598
-0.0367359
0.000122753
0.0466846
0.109975
0.147599
0.177426
0.199935
0.209288
0.196051
0.205139
0.211284
0.21508
0.217396
0.219431
0.220554
0.21967
0.331521
1.34682
1.36682
0.60327
0.924652
1.41448
1.25915
1.0688
0.847605
-0.113452
-0.300844
1.61778
2.16124
0.357313
-0.779814
-0.73227
-0.633778
-0.221554
-0.549968
-0.355067
-0.164158
0.556792
0.799592
1.11469
1.29205
1.41923
1.41723
1.37522
1.34378
0.975188
0.926728
0.893054
0.745142
0.117527
0.13507
0.338713
0.995955
0.598492
0.650898
0.824279
0.565112
0.456623
0.504861
0.772502
0.727298
0.290638
0.226086
0.220187
0.220935
0.248216
0.248068
0.247375
0.245807
0.241852
0.232457
0.213837
0.182551
0.137734
0.0898525
0.235413
1.32799
2.1827
1.67401
0.33686
-0.00220487
0.0181594
0.0563571
0.0999793
0.151305
0.176981
0.172096
0.18075
0.190804
0.195711
0.197284
0.196861
0.195717
0.19465
0.192471
0.188181
0.414454
1.39808
1.37424
0.581821
1.50525
1.4043
1.24035
0.541906
-0.118211
-0.235758
0.33437
2.66525
1.78532
-0.744228
-0.739334
-0.696562
-0.601787
1.74233
0.552047
-0.347136
-0.138347
1.1259
1.18935
0.798193
0.858173
1.44137
1.41845
0.834319
0.491326
0.341868
0.583595
0.739518
0.540448
0.100943
0.637778
3.2227
4.4915
3.60635
3.67677
4.49093
3.21732
0.556956
0.406299
0.523997
0.795365