/*--------------------------------*- C++ -*----------------------------------*\
| =========                 |                                                 |
| \\      /  F ield         | OpenFOAM: The Open Source CFD Toolbox           |
|  \\    /   O peration     | Version:  2412                                  |
|   \\  /    A nd           | Website:  www.openfoam.com                      |
|    \\/     M anipulation  |                                                 |
\*---------------------------------------------------------------------------*/
FoamFile
{
    version     2.0;
    format      ascii;
    arch        "LSB;label=32;scalar=64";
    class       volScalarField;
    location    "7.35";
    object      alpha.honey;
}
// * * * * * * * * * * * * * * * * * * * * * * * * * * * * * * * * * * * * * //

dimensions      [0 0 0 0 0 0 0];

internalField   nonuniform List<scalar> 
6400
(
1
1
1
1
1
1
1
1
1
1
1
1
1
1
1
1
1
1
1
1
1
1
1
1
1
1
1
1
1
1
1
1
0.999999
0.999999
0.999999
0.999999
0.999999
0.999999
0.999999
1
1
1
1
1
1
1
1
1
1
1
1
0.999999
0.999999
0.999999
0.999999
0.999999
1
1
1
1
1
1
1
1
1
1
1
0.999999
0.999999
0.999999
0.999999
1
1
1
1
1
1
1
1
1
1
1
1
1
1
1
1
0.999999
0.999999
0.999999
0.999999
0.999999
0.999999
0.999999
0.999999
0.999999
0.999999
0.999999
0.999999
0.999999
0.999999
0.999999
0.999999
0.999999
0.999999
0.999999
0.999999
0.999999
0.999999
0.999999
0.999999
0.999999
0.999999
0.999999
0.999999
0.999999
0.999999
0.999999
1
1
1
1
1
1
1
1
1
1
1
0.999999
0.999999
0.999999
0.999998
0.999999
0.999999
0.999999
0.999999
0.999999
0.999999
1
1
1
1
1
0.999999
0.999999
0.999999
0.999998
0.999998
0.999999
0.999999
0.999999
1
1
1
1
1
1
1
1
1
1
1
1
1
1
1
1
1
0.999999
0.999999
0.999999
0.999999
0.999999
0.999999
0.999999
0.999999
0.999999
0.999999
0.999999
0.999999
0.999999
0.999999
0.999999
0.999999
0.999999
0.999999
0.999999
0.999999
0.999999
0.999999
0.999999
0.999999
0.999999
0.999999
0.999999
0.999999
1
1
1
1
1
1
1
1
1
1
1
1
1
1
1
1
0.999999
0.999998
0.999998
0.999998
0.999999
0.999999
1
1
1
1
1
0.999999
0.999999
0.999999
0.999999
0.999999
0.999999
0.999999
1
1
1
1
1
1
1
1
1
1
1
1
1
1
1
1
1
1
0.999999
0.999999
0.999999
0.999999
0.999999
0.999999
0.999999
0.999999
0.999999
0.999999
0.999999
0.999999
0.999999
0.999999
0.999999
0.999999
0.999999
0.999999
0.999999
0.999999
0.999999
0.999999
0.999999
0.999999
0.999999
0.999999
1
1
1
1
0.999999
0.999999
0.999999
0.999999
0.999999
0.999999
0.999999
0.999999
0.999999
1
1
1
1
1
1
0.999999
0.999999
0.999999
0.999999
0.999999
1
1
0.999999
0.999999
0.999999
0.999999
0.999999
0.999999
0.999999
0.999999
0.999999
0.999999
1
1
1
1
1
1
1
1
1
1
1
1
1
1
1
1
1
1
1
1
1
0.999999
0.999999
0.999999
0.999999
0.999999
0.999999
0.999999
0.999999
0.999999
0.999999
0.999999
0.999999
0.999999
0.999999
0.999999
0.999999
0.999999
0.999999
0.999999
0.999999
0.999999
1
1
1
1
0.999999
0.999999
0.999999
0.999998
0.999998
0.999998
0.999998
0.999998
0.999998
0.999999
0.999999
0.999999
1
1
1
1
1
1
1
0.999999
0.999999
0.999999
0.999999
0.999999
0.999999
0.999999
0.999999
0.999999
0.999999
0.999999
0.999999
0.999999
0.999999
0.999999
0.999999
1
1
1
1
1
1
1
1
1
1
1
1
1
1
1
1
1
1
1
1
1
0.999999
0.999999
0.999999
0.999999
0.999999
0.999999
0.999999
0.999999
0.999999
0.999999
0.999999
0.999999
0.999999
0.999998
0.999998
0.999999
0.999999
0.999999
0.999999
1
1
1
0.999999
0.999999
0.999999
0.999998
0.999998
0.999998
0.999998
0.999998
0.999998
0.999998
0.999998
0.999998
0.999998
0.999998
0.999999
0.999999
1
1
1
1
1
1
0.999999
0.999999
0.999999
0.999999
0.999999
0.999999
0.999999
0.999999
1
1
1
0.999999
0.999999
0.999999
0.999999
1
1
1
1
1
1
1
1
1
1
1
1
1
1
1
1
1
1
1
1
1
1
1
1
0.999999
0.999999
0.999999
0.999999
0.999999
0.999999
0.999999
0.999999
0.999999
0.999999
0.999999
0.999999
0.999999
0.999999
0.999999
0.999999
0.999999
0.999999
0.999999
0.999999
0.999998
0.999998
0.999998
0.999998
0.999998
0.999998
0.999998
0.999998
0.999998
0.999998
0.999998
0.999998
0.999998
0.999998
0.999999
0.999999
1
1
1
1
1
0.999999
0.999999
0.999999
0.999999
0.999999
0.999999
1
1
1
1
1
0.999999
0.999999
0.999999
0.999999
0.999999
1
1
1
1
1
1
1
1
1
1
1
1
1
1
1
1
1
1
1
1
1
1
1
1
1
1
1
1
0.999999
0.999999
0.999999
0.999999
0.999999
0.999999
0.999999
0.999999
0.999999
0.999999
0.999999
0.999999
0.999999
0.999998
0.999998
0.999998
0.999998
0.999998
0.999998
0.999998
0.999998
0.999998
0.999998
0.999998
0.999998
0.999998
0.999998
0.999998
0.999999
0.999999
0.999999
0.999999
1
1
1
0.999999
0.999999
0.999999
0.999999
0.999999
1
1
1
1
1
1
1
1
0.999999
0.999999
0.999999
1
1
1
1
1
1
1
1
1
1
1
1
1
1
1
1
1
1
1
1
1
1
1
1
1
1
1
1
1
1
0.999999
0.999999
0.999999
0.999999
0.999999
0.999999
0.999999
0.999999
0.999999
0.999999
0.999998
0.999998
0.999997
0.999997
0.999997
0.999997
0.999997
0.999997
0.999998
0.999998
0.999998
0.999998
0.999999
0.999999
0.999999
0.999999
0.999999
0.999998
0.999998
0.999998
0.999999
0.999999
1
1
0.999999
0.999999
0.999999
0.999999
1
1
1
1
1
1
1
1
1
1
1
1
1
1
1
1
1
1
1
1
1
0.999999
1
1
1
1
1
1
1
1
1
1
1
1
1
1
1
1
1
1
1
0.999999
0.999999
0.999999
0.999999
0.999999
0.999999
0.999999
0.999999
0.999999
0.999998
0.999998
0.999997
0.999997
0.999997
0.999996
0.999997
0.999997
0.999997
0.999997
0.999998
0.999998
0.999998
0.999999
0.999999
0.999999
0.999998
0.999999
0.999998
0.999998
0.999997
0.999997
0.999997
0.999999
0.999999
1
1
1
1
1
1
1
1
1
1
1
1
1
1
1
1
1
1
1
1
1
1
1
1
1
1
0.999999
1
1
1
1
1
1
1
1
1
1
1
1
1
1
1
1
1
1
1
0.999999
0.999999
0.999999
0.999999
0.999999
0.999999
0.999999
0.999998
0.999998
0.999997
0.999997
0.999996
0.999996
0.999996
0.999996
0.999996
0.999997
0.999997
0.999998
0.999998
0.999998
0.999999
0.999998
0.999998
0.999997
0.999997
0.999997
0.999998
0.999997
0.999997
0.999996
0.999997
0.999998
0.999999
0.999999
1
1
1
1
1
1
1
1
1
1
1
1
1
1
1
1
1
1
1
1
1
1
1
1
1
0.999999
1
1
1
1
1
1
1
1
1
1
1
1
1
1
1
1
1
1
0.999999
0.999999
0.999999
0.999999
0.999999
0.999999
0.999999
0.999998
0.999998
0.999997
0.999997
0.999996
0.999996
0.999996
0.999996
0.999996
0.999997
0.999997
0.999997
0.999997
0.999997
0.999997
0.999996
0.999997
0.999996
0.999997
0.999996
0.999997
0.999997
0.999998
0.999998
0.999998
0.999997
0.999998
0.999999
0.999999
1
1
1
1
1
1
1
1
1
1
1
1
1
1
1
1
1
1
1
1
1
1
1
1
1
0.999999
1
1
1
1
1
1
1
1
1
1
1
1
1
1
1
1
1
1
0.999999
0.999999
0.999999
0.999999
0.999999
0.999999
0.999998
0.999998
0.999998
0.999997
0.999997
0.999997
0.999996
0.999997
0.999996
0.999997
0.999997
0.999997
0.999997
0.999996
0.999996
0.999995
0.999995
0.999995
0.999997
0.999996
0.999998
0.999997
0.999998
0.999998
0.999999
0.999998
0.999998
0.999998
0.999999
0.999999
1
1
1
1
1
1
1
1
1
1
1
1
1
1
1
1
1
1
1
1
1
1
1
1
1
0.999999
1
1
1
1
1
1
1
1
1
1
1
1
1
1
1
1
1
1
1
0.999999
0.999999
0.999999
0.999999
0.999999
0.999999
0.999998
0.999998
0.999997
0.999997
0.999997
0.999997
0.999997
0.999997
0.999997
0.999997
0.999996
0.999996
0.999995
0.999994
0.999995
0.999994
0.999996
0.999996
0.999997
0.999997
0.999999
0.999998
0.999998
0.999997
0.999998
0.999998
0.999998
0.999999
0.999999
1
1
1
1
1
1
1
1
1
1
1
1
1
1
1
1
1
1
1
1
1
1
0.999999
1
1
0.999999
1
1
1
1
1
1
1
1
1
1
1
1
1
1
1
1
1
1
1
0.999999
0.999999
0.999999
0.999999
0.999999
0.999998
0.999998
0.999998
0.999998
0.999997
0.999998
0.999997
0.999998
0.999997
0.999998
0.999997
0.999997
0.999997
0.999996
0.999996
0.999995
0.999996
0.999995
0.999997
0.999995
0.999995
0.999996
0.999998
0.999997
0.999998
0.999997
0.999998
0.999998
0.999999
0.999999
1
1
1
1
1
1
1
1
1
1
1
1
1
1
1
1
1
1
1
1
1
1
1
1
1
0.999999
1
1
1
1
1
1
1
1
1
1
1
1
1
1
1
1
1
1
0.999999
0.999999
0.999999
0.999999
0.999999
0.999998
0.999998
0.999998
0.999998
0.999997
0.999998
0.999997
0.999998
0.999997
0.999998
0.999997
0.999998
0.999997
0.999998
0.999999
0.999998
1
0.999998
0.999999
0.999998
0.999999
0.999996
0.999997
0.999997
0.999999
0.999998
0.999998
0.999997
0.999998
0.999998
0.999999
0.999999
0.999999
0.999999
0.999999
1
1
1
1
1
1
1
1
1
1
1
1
1
1
1
1
1
1
1
1
1
0.999999
1
1
1
1
1
1
1
1
1
1
1
1
1
1
1
1
1
1
0.999999
0.999999
0.999999
0.999999
0.999998
0.999998
0.999998
0.999998
0.999997
0.999997
0.999996
0.999997
0.999997
0.999998
0.999998
0.999999
0.999997
0.999996
0.999994
0.999995
0.999996
0.999997
1
0.999999
1
1
1
0.999999
0.999999
0.999998
0.999999
0.999998
0.999998
0.999997
0.999998
0.999998
0.999998
0.999999
0.999999
0.999999
0.999999
0.999999
1
1
1
1
1
1
1
1
1
1
1
1
1
0.999999
0.999999
0.999999
0.999999
1
1
0.999999
0.999999
0.999999
0.999999
0.999999
0.999999
0.999999
0.999999
0.999999
0.999999
1
1
1
1
1
1
0.999999
0.999999
0.999999
0.999999
0.999999
0.999999
0.999999
0.999999
0.999999
0.999999
0.999998
0.999998
0.999997
0.999998
0.999997
0.999998
0.999997
0.999998
0.999999
0.999998
0.999996
0.999994
0.999995
0.999996
0.999997
1
0.999999
0.999995
0.999998
0.999997
0.999999
0.999997
0.999999
0.999998
0.999999
0.999998
0.999999
0.999999
0.999999
0.999999
0.999999
0.999999
0.999999
0.999999
0.999999
0.999999
1
1
1
1
0.999999
0.999999
0.999999
0.999999
0.999999
0.999999
0.999999
0.999999
0.999999
0.999999
0.999999
0.999999
1
1
0.999999
1
1
1
1
1
1
1
1
1
1
1
1
1
0.999999
0.999999
0.999999
0.999999
0.999999
0.999999
0.999999
0.999999
0.999999
0.999999
0.999999
0.999999
0.999999
0.999999
0.999999
0.999998
0.999998
0.999998
0.999998
0.999998
0.999998
0.999995
0.999991
0.999986
0.999985
0.999986
0.999989
0.999995
0.999997
0.999995
0.999997
0.999998
0.999999
0.999998
0.999997
0.999998
0.999998
0.999999
0.999999
0.999999
0.999999
1
1
1
1
1
1
1
1
1
1
1
1
1
1
1
1
1
1
1
1
1
1
0.999999
1
1
1
1
1
1
1
1
1
1
1
1
1
1
1
1
0.999999
0.999999
0.999999
0.999999
0.999999
0.999999
0.999999
0.999999
0.999999
0.999999
0.999999
0.999999
0.999999
0.999999
0.999999
0.999999
0.999182
0.995023
0.985448
0.96739
0.935493
0.849604
0.737311
0.657809
0.615723
0.614731
0.655723
0.734061
0.846944
0.934004
0.966684
0.98504
0.994829
0.999114
0.999999
0.999999
0.999999
0.999999
0.999999
0.999999
1
1
1
1
1
1
1
1
1
1
1
1
1
1
1
1
1
1
1
1
1
1
1
1
1
0.00581191
0.00936534
0.0120017
0.0141493
0.0158929
0.0173792
0.0187285
0.0200313
0.0213579
0.022763
0.0242896
0.0259724
0.0278398
0.029916
0.0322221
0.0347768
0.0375964
0.0406946
0.0440811
0.0477597
0.0517251
0.0559581
0.0604188
0.0650361
0.069695
0.0742164
0.0783344
0.0816613
0.0836336
0.083473
0.0800555
0.0726367
0.0617164
0.0459905
0.0238722
0.00102201
0.0022645
0.00703754
0.017374
0.0247934
0.0250884
0.0179857
0.00664453
0.00157305
0.000332302
0.0232216
0.045449
0.0613659
0.0724054
0.079923
0.0834536
0.0836867
0.0817603
0.0784597
0.0743553
0.0698388
0.0651791
0.0605575
0.0560905
0.0518502
0.047877
0.0441907
0.0407966
0.0376913
0.034865
0.0323041
0.0299923
0.027911
0.0260388
0.0243517
0.0228211
0.0214125
0.0200824
0.0187762
0.0174235
0.0159334
0.0141855
0.0120325
0.00938937
0.00582679
2.37645e-09
7.9839e-10
2.18423e-09
3.77095e-09
5.51815e-09
7.45811e-09
9.61027e-09
1.2025e-08
1.47804e-08
1.79779e-08
2.17403e-08
2.62098e-08
3.1544e-08
3.79099e-08
4.5471e-08
5.43671e-08
6.46826e-08
7.63971e-08
8.93203e-08
1.03e-07
1.1663e-07
1.28929e-07
1.38114e-07
1.41997e-07
1.38094e-07
1.25293e-07
1.02609e-07
7.13162e-08
3.70173e-08
1.26042e-08
2.82287e-08
3.72098e-08
4.21404e-08
4.90005e-08
5.38878e-08
1.3671e-06
0.0487509
0.19407
0.278091
0.270462
0.270474
0.279302
0.196607
0.0512106
1.60241e-06
8.09618e-08
7.66602e-08
6.411e-08
5.31269e-08
3.87187e-08
1.87653e-08
3.61167e-08
7.04062e-08
1.02412e-07
1.26076e-07
1.3939e-07
1.42982e-07
1.38988e-07
1.29778e-07
1.17494e-07
1.03836e-07
9.00878e-08
7.70666e-08
6.52573e-08
5.48535e-08
4.58786e-08
3.82499e-08
3.18267e-08
2.64442e-08
2.19342e-08
1.81377e-08
1.49113e-08
1.21311e-08
9.69425e-09
7.52266e-09
5.56625e-09
3.80422e-09
2.20277e-09
8.03436e-10
2.39608e-09
4.22373e-12
6.86916e-13
2.33483e-12
4.55471e-12
7.27559e-12
1.05233e-11
1.44562e-11
1.92669e-11
2.52734e-11
3.27323e-11
4.2031e-11
5.36788e-11
6.82278e-11
8.623e-11
1.08018e-10
1.33401e-10
1.61133e-10
1.88112e-10
2.08202e-10
2.10839e-10
1.80239e-10
8.99962e-11
-4.37631e-11
-3.70151e-11
-9.00784e-11
-1.80503e-12
1.07639e-11
4.38018e-10
1.56453e-09
5.5546e-09
3.76201e-08
1.66736e-07
7.63314e-07
1.57119e-06
1.48698e-06
5.54801e-07
0.0246884
0.317072
0.402036
0.402036
0.402036
0.402036
0.326045
0.0270973
8.36645e-07
1.38019e-06
1.42435e-06
6.52427e-07
1.90768e-07
6.83213e-08
1.18098e-08
2.43127e-09
5.10485e-10
2.52354e-11
1.75706e-12
3.97503e-13
6.40887e-13
6.30123e-13
8.02484e-11
1.88618e-10
2.47841e-10
2.56896e-10
2.20177e-10
1.83878e-10
1.50885e-10
1.22263e-10
9.82934e-11
7.87284e-11
6.29165e-11
5.00848e-11
3.95533e-11
3.07952e-11
2.34334e-11
1.65164e-11
1.05353e-11
7.72045e-12
4.85103e-12
2.49507e-12
7.36113e-13
5.31618e-12
1.22577e-14
1.11542e-15
3.94448e-15
8.05499e-15
1.3623e-14
2.1167e-14
3.12524e-14
4.47953e-14
6.30466e-14
8.77763e-14
1.21454e-13
1.67418e-13
2.29958e-13
3.14152e-13
4.25015e-13
5.65218e-13
7.30724e-13
9.03419e-13
1.03946e-12
1.05873e-12
8.44317e-13
2.75367e-14
2.55171e-13
2.54636e-13
3.48542e-13
8.4766e-13
1.34179e-12
9.93012e-12
7.6492e-10
1.94434e-09
2.07172e-08
6.60512e-07
5.04347e-06
2.76193e-05
2.65468e-05
1.46971e-07
5.54162e-07
0.0815234
0.402033
0.402036
0.402036
0.402034
0.0915498
8.36645e-07
2.60609e-07
2.79866e-05
2.90608e-05
6.56003e-06
1.74894e-06
1.26252e-07
1.8427e-09
8.09039e-10
3.06803e-11
1.66241e-12
7.41829e-13
6.72248e-13
6.34343e-13
6.29562e-13
5.84605e-13
1.60329e-12
2.07144e-12
1.96533e-12
1.6463e-12
1.29291e-12
9.80187e-13
7.25998e-13
5.31362e-13
3.87957e-13
2.83731e-13
2.07915e-13
1.52385e-13
1.11348e-13
8.06962e-14
5.75054e-14
3.91711e-14
2.45638e-14
1.40887e-14
6.39715e-15
1.61931e-15
1.52602e-14
3.16307e-17
2.43301e-18
8.75918e-18
1.84807e-17
3.26986e-17
5.36375e-17
8.43745e-17
1.29488e-16
1.9602e-16
2.94734e-16
4.42058e-16
6.62763e-16
9.93209e-16
1.48443e-15
2.20189e-15
3.2147e-15
4.56193e-15
6.17539e-15
7.72983e-15
8.45593e-15
7.43097e-15
1.66386e-14
2.66672e-13
3.20419e-12
2.57478e-11
6.04201e-11
2.64192e-11
6.2023e-11
2.89148e-09
4.79845e-09
9.27322e-07
7.88878e-06
8.10155e-06
7.18463e-06
1.54403e-06
1.17472e-07
1.46332e-07
0.0150059
0.363934
0.393041
0.393959
0.369928
0.0191545
2.60609e-07
2.1846e-07
3.10302e-06
1.42032e-05
1.49629e-05
1.44047e-05
1.86822e-06
1.38359e-08
3.74059e-09
1.29795e-10
2.52352e-11
5.8329e-11
3.31326e-11
6.44787e-12
7.21399e-13
5.55045e-14
2.25676e-14
2.55307e-14
2.32627e-14
1.77917e-14
1.25533e-14
8.51503e-15
5.62811e-15
3.67516e-15
2.39942e-15
1.57498e-15
1.03991e-15
6.89398e-16
4.57414e-16
3.02236e-16
1.97375e-16
1.25981e-16
7.71913e-17
4.38571e-17
2.09234e-17
5.91655e-18
3.89489e-17
5.24708e-19
9.17841e-21
3.90795e-20
7.29439e-20
1.09891e-19
1.63595e-19
2.72872e-19
4.47169e-19
7.27037e-19
1.18056e-18
1.92258e-18
3.1447e-18
5.16384e-18
8.49182e-18
1.39132e-17
2.25145e-17
3.55114e-17
5.35213e-17
7.46394e-17
9.29557e-17
2.07442e-16
7.95405e-15
1.77867e-13
3.48339e-12
1.7667e-11
3.90799e-11
6.55629e-11
1.61792e-07
5.48484e-07
5.5115e-07
3.18536e-07
2.68384e-10
1.20172e-09
1.15625e-09
1.33031e-09
9.98608e-08
1.21029e-07
0.00140908
0.033782
0.0649981
0.0662872
0.0397747
0.0018387
2.1846e-07
2.14692e-07
4.29245e-09
3.57133e-09
8.87687e-08
4.96663e-10
1.32022e-06
1.89428e-06
1.88051e-06
3.97647e-07
1.29833e-10
4.45924e-11
1.61334e-11
5.18167e-12
5.46707e-13
2.08329e-14
4.09876e-15
3.55097e-15
3.32857e-15
2.25578e-15
1.33233e-15
7.76403e-16
4.45258e-16
2.52494e-16
1.43683e-16
8.2913e-17
4.86218e-17
2.89153e-17
1.73806e-17
1.05092e-17
6.34402e-18
3.77897e-18
2.18017e-18
1.17844e-18
5.47114e-19
1.49661e-19
7.14154e-19
1.70589e-21
3.67066e-23
1.60814e-22
3.12841e-22
5.3905e-22
8.75662e-22
1.38271e-21
2.15549e-21
3.35983e-21
5.45891e-21
9.65907e-21
1.72564e-20
3.11152e-20
5.64866e-20
1.02726e-19
1.8555e-19
3.28638e-19
5.59019e-19
8.85033e-19
1.47164e-18
2.04222e-17
1.37038e-15
1.05653e-13
1.89003e-12
3.99796e-12
5.20897e-11
4.84693e-09
1.74489e-07
2.53382e-07
1.94103e-08
1.68162e-10
1.90887e-10
2.84757e-10
8.02584e-10
5.29009e-08
1.40138e-06
4.49841e-06
0.000194628
1.07521e-11
1.20366e-11
1.84727e-11
2.3349e-11
2.76202e-05
2.04749e-06
7.55919e-07
1.49533e-07
1.72729e-09
4.19293e-10
3.30707e-10
2.89422e-10
3.11596e-08
3.25567e-07
2.81248e-07
1.78841e-08
7.66085e-11
8.19415e-12
4.03961e-12
3.33267e-13
6.85451e-15
3.23292e-16
1.35974e-16
8.999e-17
5.0621e-17
2.46933e-17
1.18313e-17
5.6721e-18
2.73201e-18
1.33944e-18
6.74613e-19
3.49414e-19
1.85567e-19
1.00644e-19
5.54523e-20
3.07991e-20
1.70475e-20
9.23536e-21
4.74266e-21
2.11833e-21
5.67806e-22
2.60116e-21
5.71792e-24
2.09412e-25
1.18688e-24
1.84333e-24
2.3886e-24
4.16611e-24
7.15524e-24
1.22672e-23
2.12035e-23
3.71989e-23
6.65449e-23
1.21968e-22
2.30153e-22
4.48761e-22
9.03145e-22
1.87161e-21
3.97844e-21
7.83788e-21
1.25422e-20
2.61693e-20
5.25116e-19
2.52285e-17
8.3023e-15
2.21541e-13
9.74629e-13
2.21158e-11
1.5121e-08
6.11662e-08
1.27728e-08
8.18834e-11
1.29536e-10
2.19088e-10
4.72602e-10
1.66746e-10
1.44869e-07
2.07647e-06
2.37097e-06
1.05796e-11
1.05291e-11
1.09636e-11
2.13154e-11
2.24308e-11
2.3349e-11
1.10213e-07
2.81418e-07
2.63087e-07
2.43946e-08
1.59202e-10
2.65897e-10
2.20363e-10
8.83276e-11
2.93708e-08
9.42573e-08
2.24091e-08
3.05101e-11
4.28314e-12
1.92091e-12
9.05089e-14
1.59558e-15
3.1717e-17
3.23599e-18
1.34645e-18
6.56488e-19
2.85819e-19
1.1941e-19
5.051e-20
2.17702e-20
9.64601e-21
4.42385e-21
2.1004e-21
1.02913e-21
5.18252e-22
2.6685e-22
1.39457e-22
7.31723e-23
3.78879e-23
1.87619e-23
8.14298e-24
2.15331e-24
9.73547e-24
2.18099e-26
1.37138e-27
6.67362e-27
1.24693e-26
1.70518e-26
2.07909e-26
3.79487e-26
7.04124e-26
1.32715e-25
2.55632e-25
5.05235e-25
1.02808e-24
2.16028e-24
4.70068e-24
1.06089e-23
2.48062e-23
5.96892e-23
1.3277e-22
2.02349e-22
3.8792e-22
4.92833e-21
3.71791e-19
2.52303e-17
1.45739e-15
7.01313e-14
1.1566e-10
4.27481e-09
4.50617e-09
7.22475e-11
6.20012e-11
1.41491e-10
4.53263e-10
5.9306e-10
1.13937e-10
4.21223e-11
2.06303e-11
1.7953e-11
1.72098e-11
3.40542e-11
5.35107e-11
9.6959e-11
1.30603e-10
1.16395e-10
4.32647e-11
4.20514e-11
4.31427e-11
4.23198e-11
1.46668e-10
3.4032e-10
2.50994e-10
7.67708e-11
6.18879e-11
5.83047e-09
5.53563e-09
1.63391e-10
4.81991e-12
3.09638e-13
9.38878e-15
2.0716e-16
3.41407e-18
1.10145e-19
2.56658e-20
1.02401e-20
3.99147e-21
1.46622e-21
5.46288e-22
2.09592e-22
8.34067e-23
3.4626e-23
1.49937e-23
6.7498e-24
3.14618e-24
1.51077e-24
7.42045e-25
3.6891e-25
1.82535e-25
8.71291e-26
3.67418e-26
9.54973e-27
4.17566e-26
9.00064e-29
7.85301e-30
3.59592e-29
7.45406e-29
1.23094e-28
1.774e-28
2.20051e-28
4.18493e-28
8.5281e-28
1.78973e-27
3.87742e-27
8.69589e-27
2.02344e-26
4.89543e-26
1.23272e-25
3.2263e-25
8.7443e-25
2.32276e-24
3.60998e-24
6.60861e-24
4.42554e-23
3.76143e-21
2.92373e-19
1.46824e-17
1.45739e-15
5.33425e-12
2.03166e-10
4.57616e-11
4.07142e-11
5.91745e-11
9.3116e-11
1.39762e-10
1.56903e-10
2.69163e-10
6.24513e-10
6.52207e-10
1.20494e-10
2.00215e-11
3.58609e-11
6.14586e-11
1.44546e-10
2.05433e-10
1.98164e-10
1.37574e-10
4.90208e-11
4.22426e-11
1.46612e-10
3.15543e-10
2.5658e-10
1.40661e-10
7.29949e-11
1.99751e-11
3.97831e-11
1.70861e-10
2.11771e-11
6.65805e-13
1.83079e-14
5.41181e-16
1.31029e-17
2.36298e-19
4.61818e-21
5.53996e-22
1.73951e-22
5.97135e-23
1.93688e-23
6.36529e-24
2.17438e-24
7.77534e-25
2.92432e-25
1.15616e-25
4.78858e-26
2.06925e-26
9.28288e-27
4.29324e-27
2.02609e-27
9.59557e-28
4.42071e-28
1.81309e-28
4.63279e-29
1.9475e-28
3.95585e-31
4.38279e-32
1.95686e-31
4.34943e-31
8.05503e-31
1.38213e-30
2.21761e-30
3.26967e-30
5.69641e-30
1.28835e-29
3.04492e-29
7.49684e-29
1.92512e-28
5.16397e-28
1.44751e-27
4.23086e-27
1.28784e-26
4.08566e-26
1.02804e-25
1.22686e-25
5.9415e-25
4.42555e-23
3.76143e-21
2.86355e-19
1.46824e-17
1.17934e-14
9.69342e-12
1.54018e-11
3.45946e-11
3.99332e-11
5.72184e-11
9.3625e-11
1.49841e-10
2.53909e-10
1.23845e-09
1.93154e-09
1.03567e-09
1.88622e-11
1.80708e-11
5.0739e-11
1.5839e-10
2.08664e-10
1.82921e-10
1.14647e-10
6.6878e-11
1.51542e-10
3.22417e-10
2.84336e-10
1.39004e-10
6.97411e-11
3.61077e-11
1.40737e-11
8.04545e-12
8.64902e-12
6.61732e-13
2.07905e-14
6.71035e-16
2.04407e-17
5.0858e-19
9.99835e-21
1.77932e-22
1.23553e-23
3.04505e-24
9.11353e-25
2.6288e-25
7.68069e-26
2.34932e-26
7.58427e-27
2.59476e-27
9.4006e-28
3.59408e-28
1.44424e-28
6.0702e-29
2.65047e-29
1.1902e-29
5.40647e-30
2.40806e-30
9.61886e-31
2.41801e-31
9.72392e-31
1.82986e-33
2.46338e-34
1.08873e-33
2.55632e-33
5.14021e-33
9.88614e-33
1.86601e-32
3.46531e-32
6.31956e-32
1.10632e-31
2.50078e-31
6.62534e-31
1.87198e-30
5.55947e-30
1.73664e-29
5.67795e-29
2.14491e-28
2.0067e-27
8.04633e-27
2.76653e-27
8.80173e-27
5.9415e-25
5.98964e-23
6.31909e-21
4.36225e-18
2.86937e-15
4.62633e-13
2.63943e-12
8.94663e-12
1.39981e-11
2.54e-11
4.98737e-11
1.08065e-10
1.41092e-10
4.62053e-10
1.93817e-09
1.94798e-09
2.67835e-11
1.24633e-11
3.45693e-11
1.55002e-10
2.04734e-10
1.01243e-10
5.70907e-11
9.31453e-11
2.45873e-10
2.77296e-10
1.60551e-10
6.31501e-11
2.76672e-11
1.10091e-11
5.03383e-12
3.3498e-12
4.71575e-13
1.85365e-14
6.04084e-16
2.07263e-17
6.13233e-19
1.50532e-20
3.0396e-22
5.47973e-24
2.70994e-25
5.34709e-26
1.39347e-26
3.59513e-27
9.422e-28
2.59879e-28
7.61781e-29
2.38253e-29
7.94414e-30
2.81452e-30
1.0554e-30
4.16926e-31
1.72363e-31
7.38358e-32
3.22396e-32
1.39076e-32
5.41829e-33
1.34101e-33
5.13758e-33
8.81595e-36
1.40588e-36
6.20095e-36
1.52538e-35
3.27858e-35
6.87426e-35
1.4511e-34
3.12995e-34
6.92564e-34
1.58148e-33
3.79819e-33
9.74092e-33
2.74932e-32
9.02064e-32
3.60099e-31
1.72957e-30
9.93277e-30
6.73747e-29
3.21555e-28
5.21319e-28
2.84482e-28
8.80173e-27
5.00702e-24
2.6587e-21
5.25611e-19
3.10732e-16
1.50795e-14
1.47628e-13
6.1092e-13
2.20965e-12
7.1817e-12
2.10095e-11
6.42595e-11
1.10003e-10
9.77004e-11
3.42201e-10
2.00256e-09
1.67748e-10
1.05134e-11
2.35216e-11
1.40395e-10
1.61519e-10
5.83722e-11
5.72691e-11
1.29265e-10
1.98274e-10
1.84944e-10
7.02598e-11
2.04908e-11
6.66274e-12
1.99063e-12
6.18601e-13
2.52203e-13
1.51955e-14
5.29904e-16
1.80039e-17
5.80321e-19
1.574e-20
3.72056e-22
7.40674e-24
1.36039e-25
5.62121e-27
9.1923e-28
2.10068e-28
4.87564e-29
1.15653e-29
2.89925e-30
7.76735e-31
2.23334e-31
6.88738e-32
2.27109e-32
7.97828e-33
2.97265e-33
1.16719e-33
4.78275e-34
2.01204e-34
8.42227e-35
3.20507e-35
7.81581e-36
2.84293e-35
4.38263e-38
8.15072e-39
3.60505e-38
9.24153e-38
2.1035e-37
4.73979e-37
1.09341e-36
2.62887e-36
6.65916e-36
1.79277e-35
5.17466e-35
1.62505e-34
5.6394e-34
2.19756e-33
9.6953e-33
4.80253e-32
2.64663e-31
1.63853e-30
8.98276e-30
2.88027e-29
1.1122e-28
2.22514e-26
5.64929e-24
5.99746e-22
9.37831e-20
7.88914e-18
4.0297e-16
4.25706e-15
2.68261e-14
2.41233e-13
1.68294e-12
7.63638e-12
3.13469e-11
7.66279e-11
7.28563e-11
4.55522e-11
9.55791e-10
2.20471e-10
9.3968e-12
1.49745e-11
1.2444e-10
1.38744e-10
4.87947e-11
5.92596e-11
1.14649e-10
1.35177e-10
9.18316e-11
2.49321e-11
5.31038e-12
1.07644e-12
1.76704e-13
2.85658e-14
4.9949e-15
3.85042e-16
1.44299e-17
4.97975e-19
1.53225e-20
3.90471e-22
8.46654e-24
1.60876e-25
2.92431e-27
1.08654e-28
1.51862e-29
3.07629e-30
6.46845e-31
1.40149e-31
3.21999e-32
7.94076e-33
2.11201e-33
6.05671e-34
1.86774e-34
6.17298e-35
2.17752e-35
8.14749e-36
3.20276e-36
1.30132e-36
5.29628e-37
1.97169e-37
4.74118e-38
1.63266e-37
2.22943e-40
4.7874e-41
2.12962e-40
5.66725e-40
1.35736e-39
3.25729e-39
8.10546e-39
2.13074e-38
5.98552e-38
1.81228e-37
5.96751e-37
2.15331e-36
8.55893e-36
3.7605e-35
1.82299e-34
9.6568e-34
5.52322e-33
3.48865e-32
2.16913e-31
2.73835e-30
2.02236e-28
2.27141e-26
2.82178e-24
1.89486e-22
9.22807e-21
2.77484e-19
1.23559e-17
1.90614e-16
2.85881e-15
4.39749e-14
4.60878e-13
2.71108e-12
1.28104e-11
4.32561e-11
5.48977e-11
4.60089e-11
1.7251e-11
1.66519e-11
8.00727e-12
9.50353e-12
1.11458e-10
1.34375e-10
4.39815e-11
5.50948e-11
7.99767e-11
8.15559e-11
3.86353e-11
8.76478e-12
1.77654e-12
2.73959e-13
2.67679e-14
2.02964e-15
1.66662e-16
1.16586e-17
4.62897e-19
1.5816e-20
4.61239e-22
1.10837e-23
2.25366e-25
3.98568e-27
6.69126e-29
2.05649e-30
2.38944e-31
4.32144e-32
8.30028e-33
1.65799e-33
3.52143e-34
8.05375e-35
1.99445e-35
5.34939e-36
1.55056e-36
4.84318e-37
1.62391e-37
5.81042e-38
2.19783e-38
8.64693e-39
3.42879e-39
1.25067e-39
2.96795e-40
9.65164e-40
1.1518e-42
2.83742e-43
1.27172e-42
3.50236e-42
8.78375e-42
2.23018e-41
5.93431e-41
1.68584e-40
5.16949e-40
1.72393e-39
6.29223e-39
2.52368e-38
1.11342e-37
5.40312e-37
2.87363e-36
1.65528e-35
9.8757e-35
6.20463e-34
7.44706e-33
6.57256e-31
9.31361e-29
9.61808e-27
5.82543e-25
3.10761e-23
9.92187e-22
3.56102e-20
1.14877e-18
2.84373e-17
6.46778e-16
1.23516e-14
1.52017e-13
1.03625e-12
4.98607e-12
1.98476e-11
3.80979e-11
3.79074e-11
2.95747e-11
1.67437e-11
7.55614e-12
7.22461e-12
9.76664e-11
1.35286e-10
3.94125e-11
4.28248e-11
5.37745e-11
4.66084e-11
1.68005e-11
3.73409e-12
7.76183e-13
1.07092e-13
8.85663e-15
4.98608e-16
2.47135e-17
1.12239e-18
4.08158e-20
1.22033e-21
3.05964e-23
6.46953e-25
1.17668e-26
1.87234e-28
2.72032e-30
5.15103e-32
3.64329e-33
5.7687e-34
1.02071e-34
1.89702e-35
3.75733e-36
8.0309e-37
1.86431e-37
4.70471e-38
1.28861e-38
3.82175e-39
1.22309e-39
4.20017e-40
1.53355e-40
5.85764e-41
2.26787e-41
8.11789e-42
1.90275e-42
5.83014e-42
6.00247e-45
1.68935e-45
7.63639e-45
2.17062e-44
5.67699e-44
1.51699e-43
4.28773e-43
1.30542e-42
4.32472e-42
1.56893e-41
6.25911e-41
2.7513e-40
1.31769e-39
6.70872e-39
3.61205e-38
2.07061e-37
1.268e-36
1.07767e-35
6.01966e-34
1.04025e-31
1.485e-29
1.3276e-27
7.25136e-26
4.12417e-24
1.96224e-22
8.18285e-21
2.73289e-19
7.67404e-18
1.91134e-16
4.0438e-15
5.63322e-14
4.34715e-13
2.111e-12
8.76257e-12
2.31369e-11
2.9241e-11
2.73806e-11
2.0386e-11
7.735e-12
6.53776e-12
8.34076e-11
1.4915e-10
3.57687e-11
3.26468e-11
3.66873e-11
2.45908e-11
7.61026e-12
1.82529e-12
3.62322e-13
4.56529e-14
3.36834e-15
1.67694e-16
7.15445e-18
2.76276e-19
8.84901e-21
2.31159e-22
5.0247e-24
9.24834e-26
1.46561e-27
2.0282e-29
2.49356e-31
2.93638e-33
6.9289e-35
7.38722e-36
1.19675e-36
2.08426e-37
3.88099e-38
7.81234e-39
1.71194e-39
4.08976e-40
1.06425e-40
3.01141e-41
9.23801e-42
3.05607e-42
1.08052e-42
4.01775e-43
1.52207e-43
5.35524e-44
1.24082e-44
3.57467e-44
3.13316e-47
1.01024e-47
4.5854e-47
1.34225e-46
3.6473e-46
1.02106e-45
3.04867e-45
9.86774e-45
3.47691e-44
1.33046e-43
5.51173e-43
2.46906e-42
1.20192e-41
6.33713e-41
3.58984e-40
2.1737e-39
1.39907e-38
2.1531e-37
3.43627e-35
7.5291e-33
1.03846e-30
1.07859e-28
9.34705e-27
6.87973e-25
4.20711e-23
1.99662e-21
7.49095e-20
2.32205e-18
6.11128e-17
1.3836e-15
2.16386e-14
1.87839e-13
9.64125e-13
4.10992e-12
1.28499e-11
2.15128e-11
2.13091e-11
1.72092e-11
6.27732e-12
5.79752e-12
6.92795e-11
1.66842e-10
3.47124e-11
2.69274e-11
2.55731e-11
1.36572e-11
3.8253e-12
9.48828e-13
1.76715e-13
1.98627e-14
1.2793e-15
5.82007e-17
2.32762e-18
8.13276e-20
2.34789e-21
5.52151e-23
1.07429e-24
1.75898e-26
2.45777e-28
2.97807e-30
3.16857e-32
2.9553e-34
2.90367e-36
1.01053e-37
1.33226e-38
2.18602e-39
3.85931e-40
7.36594e-41
1.53388e-41
3.49077e-42
8.67858e-43
2.35456e-43
6.95353e-44
2.22434e-44
7.64035e-45
2.77315e-45
1.03023e-45
3.56858e-46
8.18066e-47
2.21128e-46
1.62761e-49
5.9967e-50
2.71348e-49
8.13619e-49
2.27043e-48
6.53532e-48
2.00368e-47
6.64864e-47
2.40419e-46
9.49724e-46
4.09479e-45
1.92247e-44
9.82003e-44
5.44225e-43
3.25748e-42
2.09169e-41
1.41779e-40
2.85092e-39
7.87987e-37
2.20593e-34
4.26799e-32
6.7246e-30
8.63379e-28
8.52282e-26
6.49663e-24
3.76986e-22
1.69792e-20
6.16274e-19
1.86958e-17
4.51375e-16
7.47162e-15
7.20365e-14
4.0749e-13
1.87724e-12
6.67829e-12
1.41605e-11
1.46403e-11
1.11867e-11
3.56392e-12
5.07913e-12
5.51079e-11
1.85447e-10
3.78989e-11
2.46863e-11
2.10091e-11
1.01921e-11
2.72692e-12
5.6725e-13
9.30061e-14
8.53701e-15
4.55809e-16
1.89016e-17
7.06466e-19
2.21666e-20
5.66279e-22
1.18087e-23
2.03529e-25
2.94284e-27
3.61832e-29
3.84711e-31
3.58663e-33
2.91771e-35
2.0724e-37
2.17949e-39
1.44716e-40
2.17076e-41
3.6549e-42
6.67874e-43
1.33284e-43
2.90908e-44
6.9474e-45
1.81614e-45
5.18604e-46
1.61043e-46
5.39166e-47
1.91554e-47
6.994e-48
2.38893e-48
5.42366e-49
1.37242e-48
8.38089e-52
3.42567e-52
1.54434e-51
4.70358e-51
1.33438e-50
3.91915e-50
1.23162e-49
4.20595e-49
1.57112e-48
6.43362e-48
2.88729e-47
1.41745e-46
7.59193e-46
4.41691e-45
2.77471e-44
1.86843e-43
1.32314e-42
2.81373e-41
8.40725e-39
2.91044e-36
8.09918e-34
1.83351e-31
3.29536e-29
4.70945e-27
5.12392e-25
4.12296e-23
2.47138e-21
1.18347e-19
5.25166e-18
1.53911e-16
2.23817e-15
2.05839e-14
1.2382e-13
6.52634e-13
2.81638e-12
7.16361e-12
7.41077e-12
5.09228e-12
1.66075e-12
4.79459e-12
4.25394e-11
2.02028e-10
4.28334e-11
2.24779e-11
1.96885e-11
8.80416e-12
2.19095e-12
3.79055e-13
5.00622e-14
3.29071e-15
1.35408e-16
5.07807e-18
1.72061e-19
4.75051e-21
1.061e-22
1.94996e-24
2.99541e-26
3.91809e-28
4.42174e-30
4.3547e-32
3.79059e-34
2.93304e-36
1.97862e-38
1.2608e-40
1.98208e-42
2.06771e-43
3.30187e-44
5.796e-45
1.1126e-45
2.34189e-46
5.41077e-47
1.37197e-47
3.80961e-48
1.15347e-48
3.77778e-49
1.31756e-49
4.73833e-50
1.5975e-50
3.6183e-51
8.49273e-51
4.26381e-54
1.93387e-54
8.68073e-54
2.67894e-53
7.70485e-53
2.30134e-52
7.38698e-52
2.58722e-51
9.95334e-51
4.21171e-50
1.9591e-49
9.98904e-49
5.56327e-48
3.36858e-47
2.20052e-46
1.53764e-45
1.15011e-44
3.44023e-43
9.47075e-41
2.92014e-38
7.89314e-36
1.91782e-33
4.15677e-31
8.60267e-29
1.58564e-26
2.20157e-24
2.17246e-22
1.66763e-20
1.51585e-18
6.95023e-17
9.66949e-16
6.22184e-15
2.79839e-14
1.41658e-13
7.36193e-13
2.0556e-12
2.10467e-12
1.32635e-12
8.3046e-13
5.74252e-12
3.40862e-11
2.11537e-10
5.3976e-11
1.65609e-11
1.52638e-11
6.66159e-12
1.39745e-12
2.17691e-13
2.37843e-14
1.19278e-15
4.37536e-17
1.49255e-18
4.60073e-20
1.19678e-21
2.57465e-23
4.62251e-25
7.03591e-27
9.21817e-29
1.04807e-30
1.03986e-32
9.04262e-35
6.92033e-37
4.66998e-39
2.76792e-41
1.58029e-43
2.48763e-45
2.86579e-46
4.82306e-47
8.95356e-48
1.82488e-48
4.09029e-49
1.00847e-49
2.73128e-50
8.0954e-51
2.60435e-51
8.9516e-52
3.18197e-52
1.06156e-52
2.39219e-53
5.2198e-53
2.13575e-56
1.07986e-56
4.82149e-56
1.50456e-55
4.37584e-55
1.32511e-54
4.32763e-54
1.54779e-53
6.10207e-53
2.65348e-52
1.27138e-51
6.68755e-51
3.84421e-50
2.40156e-49
1.61564e-48
1.16067e-47
9.79174e-47
5.42354e-45
1.44144e-42
3.72398e-40
8.12398e-38
2.62843e-36
6.73672e-34
2.92826e-31
1.35711e-28
5.07033e-26
1.23568e-23
1.91559e-21
4.21657e-19
3.48796e-17