/*--------------------------------*- C++ -*----------------------------------*\
| =========                 |                                                 |
| \\      /  F ield         | OpenFOAM: The Open Source CFD Toolbox           |
|  \\    /   O peration     | Version:  2412                                  |
|   \\  /    A nd           | Website:  www.openfoam.com                      |
|    \\/     M anipulation  |                                                 |
\*---------------------------------------------------------------------------*/
FoamFile
{
    version     2.0;
    format      ascii;
    arch        "LSB;label=32;scalar=64";
    class       volScalarField;
    location    "5.95";
    object      p_rgh;
}
// * * * * * * * * * * * * * * * * * * * * * * * * * * * * * * * * * * * * * //

dimensions      [1 -1 -2 0 0 0 0];

internalField   nonuniform List<scalar> 
6400
(
12439.6
12439.8
12440.1
12440.3
12440.5
12440.6
12440.6
12440.5
12440.3
12439.9
12439.5
12438.9
12438.1
12437.1
12436
12434.7
12433.2
12431.5
12429.5
12427.2
12424.7
12421.9
12418.7
12415.2
12411.5
12407.4
12402.9
12398.2
12393.3
12388.2
12382.9
12377.7
12372.6
12367.7
12363.1
12359.1
12355.7
12353.1
12351.3
12350.5
12350.7
12351.8
12353.8
12356.7
12360.3
12364.5
12369.2
12374.1
12379.3
12384.5
12389.7
12394.8
12399.6
12404.2
12408.5
12412.5
12416.2
12419.6
12422.6
12425.4
12427.8
12430
12432
12433.6
12435.1
12436.4
12437.5
12438.4
12439.2
12439.8
12440.3
12440.7
12440.9
12441
12441
12441
12440.8
12440.6
12440.4
12440.2
12439.5
12439.7
12439.9
12440
12440.2
12440.2
12440.2
12440
12439.7
12439.3
12438.8
12438.1
12437.3
12436.3
12435.1
12433.7
12432.1
12430.3
12428.3
12426
12423.5
12420.7
12417.6
12414.2
12410.5
12406.5
12402.3
12397.8
12393.1
12388.3
12383.5
12378.6
12373.8
12369.3
12365.2
12361.5
12358.4
12356.1
12354.5
12353.7
12353.9
12354.9
12356.7
12359.3
12362.6
12366.4
12370.7
12375.3
12380.1
12384.9
12389.8
12394.5
12399.1
12403.5
12407.7
12411.5
12415.1
12418.4
12421.5
12424.2
12426.7
12428.9
12430.9
12432.6
12434.2
12435.5
12436.7
12437.7
12438.5
12439.2
12439.7
12440.1
12440.4
12440.6
12440.7
12440.7
12440.5
12440.4
12440.2
12440
12439.2
12439.4
12439.6
12439.8
12439.9
12439.9
12439.8
12439.5
12439.2
12438.8
12438.2
12437.4
12436.5
12435.4
12434.2
12432.8
12431.1
12429.3
12427.2
12424.9
12422.4
12419.6
12416.5
12413.2
12409.6
12405.8
12401.7
12397.5
12393.1
12388.5
12384
12379.5
12375.1
12370.9
12367.1
12363.8
12361
12358.8
12357.4
12356.7
12356.8
12357.7
12359.4
12361.8
12364.8
12368.3
12372.2
12376.4
12380.8
12385.3
12389.9
12394.4
12398.7
12402.9
12406.9
12410.6
12414.1
12417.4
12420.4
12423.1
12425.6
12427.8
12429.9
12431.7
12433.3
12434.7
12435.9
12436.9
12437.8
12438.6
12439.2
12439.6
12440
12440.2
12440.3
12440.4
12440.3
12440.2
12440
12439.8
12439
12439.2
12439.5
12439.6
12439.7
12439.6
12439.5
12439.2
12438.9
12438.3
12437.7
12436.9
12436
12434.8
12433.6
12432.1
12430.4
12428.5
12426.5
12424.1
12421.6
12418.8
12415.8
12412.5
12409
12405.3
12401.4
12397.3
12393.1
12388.8
12384.5
12380.2
12376
12372.1
12368.5
12365.3
12362.7
12360.7
12359.3
12358.7
12358.8
12359.6
12361.2
12363.4
12366.2
12369.5
12373.2
12377.2
12381.4
12385.7
12390
12394.3
12398.5
12402.5
12406.4
12410
12413.5
12416.7
12419.6
12422.3
12424.8
12427.1
12429.1
12431
12432.6
12434
12435.3
12436.4
12437.4
12438.1
12438.8
12439.3
12439.7
12440
12440.1
12440.2
12440.1
12440
12439.8
12439.6
12438.8
12439.1
12439.4
12439.5
12439.6
12439.5
12439.3
12439
12438.6
12438.1
12437.4
12436.6
12435.6
12434.4
12433.1
12431.6
12429.9
12428
12425.9
12423.6
12421.1
12418.3
12415.3
12412.1
12408.7
12405.1
12401.3
12397.3
12393.2
12389.1
12384.9
12380.7
12376.7
12372.9
12369.4
12366.3
12363.8
12361.8
12360.4
12359.8
12359.9
12360.8
12362.3
12364.5
12367.2
12370.4
12374
12377.9
12381.9
12386.1
12390.3
12394.4
12398.5
12402.4
12406.1
12409.7
12413
12416.2
12419.1
12421.8
12424.3
12426.5
12428.6
12430.5
12432.1
12433.6
12434.9
12436.1
12437
12437.9
12438.6
12439.1
12439.5
12439.8
12440
12440.1
12440.1
12440
12439.7
12439.4
12438.8
12439.1
12439.4
12439.5
12439.6
12439.5
12439.3
12439
12438.5
12438
12437.3
12436.4
12435.4
12434.2
12432.9
12431.3
12429.6
12427.7
12425.6
12423.3
12420.8
12418
12415.1
12412
12408.6
12405
12401.3
12397.4
12393.4
12389.3
12385.2
12381.1
12377.2
12373.4
12369.9
12366.8
12364.3
12362.3
12360.9
12360.3
12360.4
12361.2
12362.8
12365
12367.7
12370.9
12374.5
12378.3
12382.3
12386.4
12390.5
12394.5
12398.5
12402.4
12406
12409.5
12412.8
12415.9
12418.8
12421.5
12424
12426.2
12428.3
12430.2
12431.9
12433.4
12434.7
12435.9
12436.9
12437.7
12438.5
12439
12439.5
12439.8
12440
12440.1
12440.1
12440
12439.7
12439.4
12438.9
12439.2
12439.5
12439.6
12439.7
12439.6
12439.4
12439
12438.6
12438
12437.3
12436.4
12435.3
12434.1
12432.8
12431.2
12429.5
12427.6
12425.5
12423.2
12420.7
12418
12415.1
12412
12408.7
12405.2
12401.5
12397.7
12393.7
12389.6
12385.5
12381.4
12377.4
12373.6
12370
12366.9
12364.2
12362.1
12360.7
12360
12360.2
12361
12362.7
12364.9
12367.7
12371
12374.7
12378.6
12382.6
12386.7
12390.8
12394.8
12398.7
12402.5
12406.1
12409.5
12412.8
12415.9
12418.7
12421.4
12423.8
12426.1
12428.2
12430.1
12431.8
12433.3
12434.6
12435.8
12436.9
12437.8
12438.5
12439.1
12439.6
12439.9
12440.1
12440.2
12440.2
12440.1
12439.9
12439.6
12439.1
12439.5
12439.7
12439.9
12439.9
12439.8
12439.6
12439.2
12438.8
12438.2
12437.4
12436.5
12435.5
12434.2
12432.8
12431.3
12429.5
12427.6
12425.5
12423.2
12420.8
12418.1
12415.2
12412.2
12408.9
12405.4
12401.8
12398
12394.1
12390
12385.8
12381.6
12377.5
12373.5
12369.8
12366.4
12363.5
12361.3
12359.8
12359.1
12359.2
12360.1
12361.9
12364.3
12367.3
12370.8
12374.7
12378.7
12382.8
12387
12391.1
12395.1
12399
12402.8
12406.4
12409.8
12413
12416
12418.8
12421.4
12423.9
12426.1
12428.2
12430.1
12431.8
12433.4
12434.7
12436
12437
12437.9
12438.7
12439.3
12439.8
12440.1
12440.3
12440.5
12440.5
12440.4
12440.1
12439.8
12439.5
12439.8
12440.1
12440.2
12440.2
12440.1
12439.9
12439.5
12439.1
12438.5
12437.7
12436.8
12435.7
12434.5
12433.1
12431.5
12429.8
12427.9
12425.8
12423.5
12421
12418.4
12415.6
12412.5
12409.3
12405.9
12402.3
12398.5
12394.5
12390.4
12386.1
12381.8
12377.5
12373.2
12369.1
12365.4
12362.3
12359.8
12358.1
12357.3
12357.4
12358.5
12360.4
12363.1
12366.5
12370.3
12374.4
12378.7
12383
12387.3
12391.6
12395.6
12399.5
12403.3
12406.8
12410.2
12413.4
12416.3
12419.1
12421.7
12424.1
12426.4
12428.5
12430.3
12432.1
12433.6
12435
12436.2
12437.3
12438.2
12439
12439.6
12440.1
12440.4
12440.7
12440.8
12440.8
12440.7
12440.5
12440.2
12440
12440.3
12440.5
12440.6
12440.6
12440.5
12440.3
12440
12439.5
12438.9
12438.1
12437.2
12436.2
12434.9
12433.5
12431.9
12430.2
12428.3
12426.2
12424
12421.5
12418.9
12416.1
12413.1
12410
12406.6
12403
12399.2
12395.2
12391
12386.5
12382
12377.3
12372.6
12368.1
12364
12360.3
12357.4
12355.4
12354.5
12354.7
12355.9
12358.2
12361.3
12365.1
12369.4
12374
12378.6
12383.3
12387.8
12392.1
12396.3
12400.2
12403.9
12407.5
12410.8
12413.9
12416.9
12419.6
12422.2
12424.6
12426.8
12428.9
12430.8
12432.5
12434
12435.4
12436.7
12437.7
12438.7
12439.4
12440
12440.5
12440.9
12441.1
12441.2
12441.2
12441.2
12441
12440.8
12440.7
12440.9
12441.1
12441.2
12441.2
12441.1
12440.9
12440.6
12440.1
12439.5
12438.8
12437.8
12436.8
12435.5
12434.1
12432.5
12430.8
12428.9
12426.8
12424.6
12422.2
12419.6
12416.9
12413.9
12410.8
12407.5
12403.9
12400.1
12396
12391.7
12387.1
12382.2
12377.1
12371.9
12366.8
12361.9
12357.6
12354.2
12351.8
12350.7
12350.9
12352.4
12355.1
12358.8
12363.3
12368.2
12373.4
12378.5
12383.6
12388.3
12392.9
12397.1
12401.1
12404.8
12408.3
12411.6
12414.7
12417.6
12420.3
12422.8
12425.2
12427.4
12429.5
12431.3
12433.1
12434.6
12436
12437.3
12438.4
12439.3
12440
12440.6
12441.1
12441.4
12441.7
12441.8
12441.8
12441.7
12441.6
12441.4
12441.4
12441.6
12441.7
12441.8
12441.8
12441.8
12441.6
12441.3
12440.9
12440.3
12439.5
12438.6
12437.5
12436.3
12434.9
12433.3
12431.6
12429.7
12427.6
12425.4
12423
12420.5
12417.8
12414.9
12411.9
12408.6
12405
12401.2
12397.1
12392.7
12387.8
12382.6
12377
12371.1
12365.1
12359.3
12354.1
12349.9
12346.9
12345.5
12345.8
12347.7
12351.1
12355.6
12361
12366.8
12372.8
12378.5
12384
12389.1
12393.8
12398.2
12402.2
12405.9
12409.4
12412.6
12415.6
12418.5
12421.2
12423.7
12426
12428.2
12430.2
12432.1
12433.8
12435.4
12436.8
12438.1
12439.1
12440.1
12440.8
12441.4
12441.8
12442.2
12442.3
12442.4
12442.4
12442.4
12442.3
12442.2
12442.2
12442.3
12442.4
12442.5
12442.5
12442.5
12442.4
12442.2
12441.8
12441.2
12440.5
12439.6
12438.5
12437.2
12435.8
12434.2
12432.5
12430.6
12428.6
12426.4
12424
12421.5
12418.9
12416.1
12413.1
12409.9
12406.4
12402.7
12398.6
12394
12389
12383.3
12377.1
12370.3
12363.2
12356.1
12349.6
12344.3
12340.6
12338.8
12339.2
12341.6
12345.9
12351.6
12358.2
12365.3
12372.3
12378.9
12384.9
12390.3
12395.1
12399.5
12403.5
12407.2
12410.6
12413.7
12416.7
12419.5
12422.1
12424.6
12426.9
12429.1
12431.1
12433
12434.8
12436.3
12437.7
12439
12440.1
12441
12441.8
12442.3
12442.7
12443
12443.1
12443.2
12443.1
12443.1
12443.1
12443.1
12443.1
12443.1
12443.1
12443.2
12443.4
12443.5
12443.4
12443.3
12442.9
12442.4
12441.6
12440.7
12439.6
12438.3
12436.9
12435.3
12433.5
12431.6
12429.6
12427.4
12425.1
12422.7
12420.1
12417.4
12414.5
12411.4
12408
12404.4
12400.4
12395.8
12390.6
12384.6
12377.7
12369.8
12361.2
12352.4
12344.2
12337.4
12332.6
12330.3
12330.7
12333.9
12339.4
12346.8
12355.2
12363.9
12372.3
12379.8
12386.3
12392
12396.9
12401.3
12405.2
12408.7
12412
12415
12417.9
12420.6
12423.2
12425.6
12427.9
12430.1
12432.1
12434
12435.8
12437.4
12438.8
12440.1
12441.2
12442.1
12442.9
12443.4
12443.8
12444
12444
12444
12443.9
12443.8
12443.8
12443.9
12443.8
12443.7
12443.7
12443.9
12444.2
12444.5
12444.6
12444.5
12444.2
12443.7
12442.9
12442
12440.9
12439.6
12438.1
12436.5
12434.7
12432.8
12430.7
12428.6
12426.3
12423.9
12421.4
12418.8
12416.1
12413.1
12409.9
12406.5
12402.6
12398.2
12393
12386.8
12379.2
12369.9
12359.3
12348.2
12337.6
12328.7
12322.4
12319.4
12319.9
12324.1
12331.4
12341
12351.9
12362.9
12373
12381.6
12388.7
12394.5
12399.4
12403.6
12407.3
12410.6
12413.6
12416.5
12419.2
12421.8
12424.3
12426.7
12429
12431.1
12433.2
12435.1
12436.8
12438.5
12440
12441.3
12442.4
12443.3
12444.1
12444.6
12444.9
12445.1
12445
12444.8
12444.6
12444.5
12444.5
12444.7
12444.3
12444.1
12444.1
12444.6
12445.1
12445.6
12445.8
12445.8
12445.6
12445.1
12444.4
12443.4
12442.3
12440.9
12439.4
12437.8
12436
12434
12432
12429.9
12427.7
12425.3
12423
12420.5
12417.9
12415.2
12412.3
12409.1
12405.6
12401.5
12396.5
12390.3
12382
12371.2
12358
12343.7
12329.6
12317.6
12309.2
12305
12305.7
12311.3
12321.1
12334
12348.3
12362.4
12374.9
12384.7
12392.2
12398
12402.6
12406.4
12409.8
12412.8
12415.6
12418.3
12420.8
12423.3
12425.7
12428
12430.2
12432.4
12434.4
12436.3
12438.1
12439.8
12441.3
12442.6
12443.8
12444.7
12445.5
12446
12446.2
12446.2
12446
12445.7
12445.2
12444.9
12444.9
12445.2
12444.2
12444.2
12444.3
12445
12445.9
12446.6
12447.1
12447.3
12447.1
12446.7
12445.9
12445
12443.8
12442.4
12440.9
12439.2
12437.4
12435.5
12433.5
12431.4
12429.2
12427
12424.8
12422.5
12420.1
12417.7
12415.1
12412.5
12409.5
12406.1
12401.8
12396
12387.6
12374.9
12357.7
12338.3
12318.7
12301.8
12290.2
12284.3
12285.3
12293.1
12306.7
12324.6
12344.4
12363.3
12379
12390
12397.4
12402.6
12406.6
12410
12412.8
12415.5
12417.9
12420.4
12422.8
12425.1
12427.4
12429.7
12431.8
12433.9
12435.9
12437.8
12439.6
12441.3
12442.8
12444.2
12445.4
12446.4
12447.1
12447.5
12447.7
12447.5
12447.1
12446.4
12445.6
12444.9
12444.8
12444.9
12443.1
12443.4
12443.8
12445.1
12446.5
12447.7
12448.4
12448.8
12448.7
12448.3
12447.5
12446.6
12445.3
12443.9
12442.4
12440.7
12438.9
12437
12435
12433
12431
12428.9
12426.8
12424.8
12422.7
12420.6
12418.6
12416.6
12414.7
12412.5
12409.9
12406.4
12399.6
12384.4
12359.8
12331.5
12303.5
12279.6
12263.4
12254.9
12256.1
12267.5
12286.8
12312
12340.7
12368.1
12389.6
12401.5
12406.7
12409.9
12412.5
12414.7
12416.7
12418.7
12420.7
12422.8
12425
12427.2
12429.3
12431.5
12433.5
12435.6
12437.5
12439.4
12441.2
12442.9
12444.5
12445.9
12447.1
12448.1
12448.8
12449.2
12449.2
12448.9
12448.1
12447
12445.6
12444.3
12443.8
12443.7
12439.1
12440.6
12442.7
12445.3
12447.7
12449.5
12450.6
12451
12451
12450.5
12449.7
12448.6
12447.3
12445.8
12444.1
12442.3
12440.4
12438.5
12436.5
12434.5
12432.5
12430.5
12428.5
12426.7
12424.8
12423.1
12421.5
12420.3
12419.6
12419.2
12419.3
12420.2
12417.7
12400.9
12366.5
12329.1
12294
12000.1
11693.3
11524.8
11538.5
11756.7
12093.6
12305
12342.1
12379.4
12407.2
12418.8
12419
12418.3
12418.7
12419.4
12420.4
12421.5
12422.9
12424.6
12426.7
12428.8
12430.9
12432.9
12434.9
12436.9
12438.9
12440.8
12442.7
12444.5
12446.1
12447.6
12449
12450.1
12450.9
12451.4
12451.4
12450.9
12449.8
12448
12445.6
12443
12441
12440
12426.8
12435.7
12440.5
12439.4
12434.6
12427.4
12418.5
12408.3
12396.9
12384
12369.7
12353.6
12335.5
12315
12292
12266
12237
12204.8
12169.4
12131.2
12090.4
12047.6
12003.7
11959.2
11915
11871.9
11830.6
11790.9
11750.3
11697.6
11617.4
11482.2
11246.7
10829.1
9467.88
7704.35
6000.22
4796.19
4270.45
3952.41
3982.27
4382.92
5117.05
6460.3
8210.47
10073.4
10954.4
11289.3
11503.9
11624.4
11698.5
11749.7
11792
11833.8
11876.6
11920.8
11966.4
12012.4
12057.5
12101
12142.1
12180.5
12215.7
12247.7
12276.4
12301.9
12324.4
12344.4
12361.9
12377.4
12391.1
12403.2
12414
12423.5
12431.5
12437.9
12441.7
12441.8
12436
12427.4
1318.98
1784.34
2053.32
2232.53
2346.57
2417.5
2459.52
2481.07
2487.4
2481.96
2467.25
2444.93
2416.41
2382.81
2345.11
2304.16
2260.77
2215.57
2169.09
2121.66
2073.51
2024.68
1974.98
1924.08
1871.25
1815.46
1754.62
1686.99
1608.37
1516.28
1404.91
1251.32
1001.18
816.14
891.792
983.11
1143.46
1188.5
1482.33
1503.48
1490.18
1447.4
1267.47
1155.67
859.265
626.607
798.558
1076.46
1294.02
1431.18
1536.22
1623.73
1697.79
1761.92
1820.64
1876.13
1929.29
1980.01
2029.33
2077.69
2125.32
2172.19
2218.09
2262.73
2305.52
2345.83
2382.95
2415.95
2443.88
2465.64
2479.81
2484.67
2477.83
2455.76
2413.24
2341.93
2227.62
2048.35
1779.62
1314.04
-0.000513701
7.68051e-05
6.06723e-05
7.00574e-05
0.000102274
0.000154953
0.000238288
0.000360224
0.000531877
0.000768676
0.00109322
0.00154183
0.00212115
0.0028256
0.0037799
0.00546401
0.00876121
0.0128958
0.0172542
0.0269354
0.0123986
-0.0029826
0.000187001
0.00224771
0.0887549
0.371401
0.643843
0.54936
0.424973
0.695344
1.63252
3.71209
6.25193
15.5817
941.11
3643.48
3795.07
3828.38
3848.16
3853.09
3852.63
3846.53
3824.95
3787.71
3176.56
403.636
11.3338
5.94313
3.4856
1.55474
0.602296
0.265439
0.307569
0.507195
0.785161
0.843211
0.434511
0.0742541
-0.0204324
-0.0195786
-0.0118848
-0.00118768
0.00441519
0.00649393
0.00539942
0.00370149
0.00318969
0.00329809
0.00356446
0.00371703
0.00376792
0.00376801
0.00375054
0.00369806
0.0036458
0.00359874
0.00355978
0.00353867
0.00355136
0.00298549
0.000214788
0.000188747
0.000179321
0.000192734
0.000227181
0.000284973
0.000372897
0.000500402
0.000681122
0.000934332
0.00128572
0.00177315
0.00244827
0.00339174
0.00469031
0.00654007
0.00980662
0.0144223
0.0171505
0.0143821
0.00885668
0.00193484
0.00428614
0.00377021
0.0113868
1.60247
4.51945
4.33242
1.62529
1.1941
2.43432
3.52125
4.24774
5.03122
412.467
1684.13
2542.22
3451.35
3872.83
3687.94
3701.15
3871.72
3389.37
2500.95
1501.27
142.618
5.4254
4.8052
6.2963
5.68244
1.12933
0.531296
1.58344
4.14645
6.72229
5.70324
1.77361
0.000807404
-0.0139991
-0.00532643
-0.0043524
0.00109619
0.00460315
0.00441436
0.00344355
0.00327251
0.0032772
0.00344099
0.00364845
0.00379134
0.00384828
0.00385629
0.00383853
0.00381257
0.00377968
0.003745
0.00371333
0.00369163
0.00369633
0.00372496
0.000100581
0.000190294
0.00022815
0.000249013
0.000284382
0.000335249
0.00041104
0.000519823
0.000673285
0.000886784
0.00118166
0.00158962
0.00211024
0.00275568
0.00369906
0.00543299
0.00847381
0.0127741
0.0377173
0.163414
0.219819
0.0800682
-9.33354e-05
0.00124793
0.0025699
2.45155
6.22988
6.32921
6.11973
2.04318
9.67355
47.8728
47.9879
46.4995
27.8383
0.185208
0.159439
0.137513
773.679
333.511
333.16
617.808
0.0166864
0.0171511
0.0187134
18.773
49.8251
50.6234
50.5116
8.36491
1.04691
1.99675
7.07448
7.09611
7.07151
6.97195
3.57952
-0.0249585
-0.0222335
-0.0197615
0.00345692
0.00781091
0.00425693
0.00618409
0.00554275
0.00382393
0.00305213
0.00314382
0.00354271
0.00379631
0.00389875
0.00392455
0.0039151
0.00387958
0.00383399
0.00378745
0.00374541
0.00371267
0.00366847
0.00358326
0.000195312
0.000235602
0.000257648
0.00027682
0.000302212
0.000334736
0.000381958
0.000451969
0.000556342
0.000709841
0.000928876
0.00122794
0.00165052
0.00219306
0.00282879
0.00373655
0.00533918
0.00935294
0.191455
0.301497
0.297676
0.286981
0.0215018
0.00687895
0.00290297
-0.00186625
0.351794
3.93963
6.03825
5.89041
3.70954
2.55468
3.96172
3.99371
0.0178508
0.80072
1.817
0.139706
0.00771936
0.0174788
0.0211445
0.0168797
0.0175324
0.0176902
0.0182869
0.0173137
4.56665
2.64587
0.0703712
2.64422
3.44225
3.25446
2.41887
4.81824
4.88557
1.66409
-0.0287621
-0.0179161
-0.0188285
0.0497825
0.20274
0.217597
0.123266
0.0189361
0.00320426
0.00263871
0.00269667
0.00315474
0.00356203
0.00377673
0.00386164
0.00389215
0.00389509
0.00387226
0.00383304
0.0037871
0.00373939
0.00369653
0.00364967
0.00358881
0.000258252
0.000273077
0.000281935
0.000288208
0.000295812
0.000305617
0.000322029
0.000350996
0.000400044
0.000477949
0.000597635
0.000781418
0.00104894
0.00140569
0.00185972
0.00223828
0.0018382
-2.48018e-06
0.143427
0.312336
0.304775
0.105961
0.0145995
0.0124881
0.00239459
-0.00610367
-0.00847235
-0.00109767
0.00875197
0.0100159
0.0114929
0.0149445
0.0134492
0.00932608
0.0206788
1.21029
1.93748
1.42095
0.0169591
0.0198431
0.0179704
0.0172647
0.016651
0.0170133
0.0179374
0.0206934
0.0175179
0.0140649
0.0194048
0.0166933
0.139569
0.0570448
0.00251085
-0.00670681
-0.0211164
-0.0287445
-0.0290328
-0.0297313
-0.0323814
-0.00460806
0.191749
0.244784
0.245622
0.231706
0.0391526
0.00241513
0.0022236
0.00254856
0.00325054
0.0036849
0.0038041
0.00381865
0.00380963
0.00377901
0.00373469
0.00368588
0.00363673
0.00359316
0.00355392
0.00351485
0.000292367
0.000294167
0.000291316
0.000282184
0.000267814
0.000247287
0.000220866
0.000188846
0.000152065
0.000113331
8.18478e-05
7.6135e-05
0.000117036
0.000233407
0.000434438
0.000487709
0.0001174
0.00068005
0.0147894
0.0262023
0.0282224
0.00906424
0.0116416
0.00385048
-0.00155096
-0.00384874
-0.00198807
0.00265643
0.00693314
0.00963603
0.0110956
0.0118453
0.0117862
0.0109425
0.0101942
0.00882115
0.00525466
0.0121582
0.0146707
0.0160638
0.0164562
0.0150409
0.0147848
0.015564
0.0168389
0.0178297
0.0184256
0.0182982
0.0188228
0.0206776
0.0157231
0.00130856
-0.00878247
-0.0154205
-0.0239504
-0.0314403
-0.0320791
-0.0281636
-0.0174643
-0.00316874
-0.00140693
0.0472848
0.2553
0.253769
0.220816
0.0213181
0.00144946
0.00165263
0.00254246
0.00324211
0.00348207
0.00355224
0.00357472
0.00356086
0.00352687
0.00348595
0.00344427
0.00340743
0.00337775
0.00335565
0.000311307
0.000305499
0.000291742
0.000266958
0.000229618
0.000176498
0.000103857
6.85857e-06
-0.0001202
-0.000282965
-0.000484154
-0.00072488
-0.00100908
-0.00130316
-0.00153911
-0.00178181
-0.00173985
0.000918119
0.0132459
-0.00452977
-0.0161654
-0.0165262
-0.016307
-0.0178242
-0.0161255
-0.0117939
-0.00526141
0.00125552
0.0056501
0.00838581
0.010217
0.0111113
0.011047
0.0108865
0.0112308
0.0110279
0.0102968
0.0100838
0.0115919
0.0130662
0.0141099
0.0136073
0.0142018
0.015044
0.0161633
0.0180293
0.0187761
0.0184816
0.0180025
0.0169077
0.0126765
0.00446197
-0.00472705
-0.0154041
-0.0291389
-0.0428975
-0.0512307
-0.0504764
-0.0396327
-0.0230988
-0.00681319
0.00268077
0.0741756
0.264118
0.26459
0.104278
2.56296e-05
0.000678133
0.00163852
0.00257481
0.00298059
0.00313027
0.00320398
0.00322737
0.00322102
0.00320113
0.00317609
0.00315203
0.00313264
0.00312091
0.000323664
0.000312966
0.00028978
0.000250834
0.000192613
0.00010964
-5.44476e-06
-0.000162639
-0.000375239
-0.000660349
-0.00103844
-0.00153732
-0.00219174
-0.00300697
-0.00400034
-0.00523232
-0.0025178
0.00417482
0.00266611
-0.015442
-0.0357103
-0.0495737
-0.0539013
-0.0497875
-0.0390044
-0.0256888
-0.013448
-0.00426806
0.00172102
0.00548011
0.00781305
0.00913397
0.00970571
0.00991689
0.00998506
0.00997219
0.0100665
0.0102977
0.0106181
0.0115738
0.0127583
0.0126655
0.0134432
0.0141414
0.0150342
0.016151
0.0167222
0.0165087
0.015584
0.0136546
0.00934536
0.000960441
-0.0118094
-0.0289618
-0.0502264
-0.0716608
-0.0855576
-0.0862272
-0.072289
-0.0471698
-0.0167922
0.00329743
0.0168314
0.258847
0.270678
0.0952841
-0.00178954
-0.000314975
0.00074384
0.00181482
0.00235012
0.00258936
0.00272976
0.00280358
0.0028358
0.00284546
0.00284296
0.00283538
0.0028271
0.00282152
0.000335992
0.000321531
0.000290925
0.000240846
0.000166335
6.01255e-05
-8.80371e-05
-0.000292526
-0.000573419
-0.000958141
-0.00148351
-0.00220473
-0.00319129
-0.00451094
-0.00638865
-0.00716134
-0.00331479
-0.00307802
-0.0131864
-0.0387612
-0.0736727
-0.0995976
-0.106509
-0.0959063
-0.0730433
-0.047367
-0.0261497
-0.0120167
-0.00339549
0.00187453
0.00510419
0.00706181
0.00823409
0.00895987
0.00935967
0.00946254
0.009458
0.00955925
0.00987577
0.0103442
0.0116503
0.0117603
0.0125312
0.013149
0.0138466
0.014477
0.0146274
0.0140461
0.0125595
0.00970059
0.00418078
-0.0059517
-0.0224447
-0.0467391
-0.0784309
-0.111145
-0.132725
-0.134797
-0.11554
-0.0805856
-0.038669
-0.00505887
0.00569324
0.218064
0.278149
0.0645416
-0.00276009
-0.000999855
-6.49666e-06
0.00105778
0.00165644
0.00197697
0.00218594
0.00231441
0.0023901
0.00243356
0.00245682
0.00246805
0.00247261
0.00247357
0.000352235
0.000335324
0.000300045
0.000243018
0.000158571
3.84784e-05
-0.000129111
-0.000361086
-0.000681613
-0.00112465
-0.00173934
-0.00260219
-0.00380334
-0.00549319
-0.00813099
-0.0111093
-0.00774692
-0.0121342
-0.0358757
-0.0751148
-0.125024
-0.159778
-0.166633
-0.148653
-0.112617
-0.0731881
-0.0413267
-0.0211263
-0.00930608
-0.00224234
0.00204105
0.00470987
0.00642002
0.00756758
0.00834433
0.00882197
0.0091317
0.0092681
0.00911997
0.0094963
0.0106548
0.0107984
0.0113958
0.0118814
0.0122528
0.0123519
0.0119902
0.0109366
0.00883896
0.00501311
-0.00206396
-0.0148043
-0.0360273
-0.0690299
-0.113795
-0.159904
-0.189729
-0.192469
-0.167077
-0.122327
-0.0695442
-0.0232852
-0.00549583
0.222982
0.287002
0.0853806
-0.0036922
-0.0015608
-0.000614012
0.000324361
0.000941545
0.00133036
0.00160124
0.00178309
0.00190328
0.00198216
0.00203277
0.00206412
0.00208243
0.00209069
0.000375279
0.000357505
0.000320618
0.000261396
0.000174199
5.08538e-05
-0.000120478
-0.00035674
-0.00068239
-0.00113223
-0.00175976
-0.00264977
-0.00389015
-0.00574293
-0.0088505
-0.0127579
-0.0153829
-0.0184051
-0.0545309
-0.109228
-0.171191
-0.211594
-0.218207
-0.193736
-0.145185
-0.0907462
-0.0541498
-0.0289751
-0.0145413
-0.00599209
-0.00080993
0.00248153
0.00464378
0.00611802
0.0071533
0.00785046
0.0082363
0.00827457
0.00836056
0.00862068
0.00949305
0.00975222
0.0101228
0.0104159
0.0104711
0.0101568
0.00936221
0.00783839
0.00513356
0.000435698
-0.00799238
-0.0229411
-0.048101
-0.0886838
-0.14476
-0.202013
-0.237895
-0.240814
-0.210357
-0.158292
-0.0969293
-0.0434691
-0.024717
0.189632
0.274725
0.0503311
-0.00520147
-0.00257088
-0.00137558
-0.000459414
0.000205526
0.000665441
0.00099633
0.00123042
0.00139463
0.00150894
0.00158714
0.0016388
0.00167068
0.00168597
0.000407221
0.000389957
0.000354296
0.000297453
0.000214416
9.80023e-05
-6.21033e-05
-0.000280483
-0.000577971
-0.000983979
-0.00154389
-0.00233096
-0.00341218
-0.00507625
-0.00778105
-0.00482278
-0.00453655
-0.0254286
-0.0624679
-0.126524
-0.194942
-0.239203
-0.247191
-0.216582
-0.157193
-0.0939602
-0.057872
-0.0334989
-0.017995
-0.00881418
-0.00315585
0.000518144
0.00298201
0.00468801
0.00591692
0.00679803
0.00733097
0.00747476
0.00751683
0.00772229
0.00835549
0.00858477
0.00880287
0.00888948
0.00866104
0.0080233
0.00688668
0.0049843
0.00184141
-0.00337774
-0.0123803
-0.0279419
-0.0541008
-0.0973795
-0.158418
-0.221065
-0.258987
-0.261688
-0.229221
-0.174106
-0.107554
-0.0498932
-0.0322296
0.0147408
0.0286241
0.0145597
-0.00646142
-0.00392234
-0.00237075
-0.00131142
-0.000546384
-4.3678e-06
0.000389771
0.000675752
0.000882553
0.00103101
0.00113576
0.00120692
0.00125171
0.00127355
0.000448838
0.000433168
0.000401063
0.000350389
0.000277167
0.000175861
3.87168e-05
-0.000144849
-0.000389365
-0.000714592
-0.00114838
-0.00173645
-0.00252107
-0.00364689
-0.00433861
0.00791481
0.00489057
-0.021879
-0.0563898
-0.120467
-0.189681
-0.232524
-0.239585
-0.209199
-0.14509
-0.0892066
-0.0538504
-0.0339211
-0.0192074
-0.0103872
-0.00478781
-0.0010153
0.00157108
0.00339153
0.00471648
0.00569149
0.00631796
0.00655457
0.00663446
0.00680564
0.00724422
0.00739812
0.0075091
0.00740838
0.00695677
0.00609347
0.00472644
0.00258815
-0.000743191
-0.00602312
-0.0147224
-0.0292831
-0.051972
-0.0917821
-0.149085
-0.209308
-0.245811
-0.248348
-0.217154
-0.163379
-0.0959982
-0.040267
-0.0260346
-0.0208131
-0.0149213
-0.00946565
-0.00810933
-0.00528196
-0.00340551
-0.00214902
-0.00127457
-0.00065072
-0.000195321
0.000139088
0.000384927
0.000564516
0.000693436
0.000782383
0.000839002
0.00086692
0.000499744
0.000486451
0.000459577
0.000417715
0.000358103
0.000277115
0.000169909
3.03475e-05
-0.000149229
-0.000378265
-0.000667488
-0.00103235
-0.00149805
-0.0020566
-0.00242178
0.00824647
0.00795289
-0.00483462
-0.0422655
-0.0945644
-0.153869
-0.192004
-0.197564
-0.172304
-0.116311
-0.0728886
-0.0463095
-0.0309871
-0.0184307
-0.0106861
-0.00578542
-0.0020948
0.000463129
0.00229264
0.00363192
0.00464302
0.00532856
0.00564256
0.00575732
0.00590861
0.00618949
0.00626813
0.00629883
0.00604491
0.00543691
0.00443456
0.00294504
0.000718667
-0.00257251
-0.00752268
-0.0150923
-0.0269143
-0.0453454
-0.0757153
-0.119902
-0.16786
-0.198889
-0.201508
-0.174577
-0.126529
-0.0689583
-0.0286387
-0.0216499
-0.018413
-0.0160788
-0.0132729
-0.00900029
-0.0060996
-0.00417695
-0.0028544
-0.0019161
-0.0012347
-0.000732498
-0.00035928
-8.14146e-05
0.00012413
0.000273435
0.000377507
0.000444293
0.000477717
0.000558777
0.000548258
0.000527561
0.000495888
0.000451658
0.000393047
0.00031785
0.000223768
0.000108725
-2.86833e-05
-0.000188319
-0.000366908
-0.000569125
-0.000784807
-0.000978843
0.00106368
0.0123858
0.00596581
-0.0206595
-0.0596353
-0.100238
-0.128845
-0.135159
-0.114693
-0.0810935
-0.0516217
-0.0399809
-0.0261344
-0.0165551
-0.0102828
-0.00590593
-0.00267727
-0.00031359
0.00143205
0.00269025
0.00369456
0.00439726
0.00477124
0.00492328
0.00506513
0.00522175
0.00523767
0.00520473
0.00483918
0.00413758
0.00306793
0.00154794
-0.000637218
-0.00369808
-0.00807178
-0.014429
-0.0236406
-0.03701
-0.0568507
-0.0839641
-0.11278
-0.131506
-0.131876
-0.112505
-0.0788838
-0.0440344
-0.022142
-0.0206547
-0.0176189
-0.0152022
-0.0121417
-0.00885176
-0.00639464
-0.00463674
-0.0033643
-0.00242598
-0.00172596
-0.00119961
-0.00080235
-0.000502527
-0.000278092
-0.000113417
2.30324e-06
7.68808e-05
0.000115622
0.000624236
0.000616485
0.000602258
0.00058095
0.00055208
0.000515227
0.000470151
0.000417241
0.000357925
0.000295247
0.000234329
0.000182802
0.0001476
0.000120692
9.98905e-05
-0.000178879
0.00224977
0.010412
0.00161075
-0.0180932
-0.0451746
-0.0647799
-0.0693883
-0.0645587
-0.0493316
-0.0423193
-0.0308603
-0.0209766
-0.0141674
-0.00928721
-0.00565602
-0.00290174
-0.000813186
0.000769499
0.0019648
0.00289599
0.00357251
0.00397314
0.00415957
0.00429722
0.00436157
0.00432981
0.00424421
0.00380307
0.00306152
0.0019839
0.00051125
-0.00152586
-0.0042907
-0.00805309
-0.0132182
-0.0202916
-0.0298627
-0.0424689
-0.057441
-0.0712391
-0.0784077
-0.0759215
-0.0640789
-0.0461987
-0.0303892
-0.0212564
-0.0189483
-0.0162638
-0.0135006
-0.0107598
-0.00831245
-0.00637343
-0.00485847
-0.00369231
-0.00279902
-0.00211306
-0.00158444
-0.00117987
-0.000869245
-0.000633808
-0.000459435
-0.000335936
-0.000257151
-0.0002115
0.000694183
0.000688696
0.000680802
0.000669052
0.000654214
0.00063662
0.000617266
0.000598008
0.000581831
0.000573142
0.000577739
0.000601895
0.000650461
0.00071107
0.000732802
0.000591666
-8.68509e-05
-0.000717154
-0.000836601
-0.00701443
-0.0212458
-0.0315519
-0.033699
-0.0368084
-0.0385256
-0.0300922
-0.0225279
-0.0164557
-0.011721
-0.00803019
-0.00513442
-0.00285637
-0.00107166
0.000319178
0.0013998
0.00224498
0.0028722
0.00327047
0.00348156
0.00361856
0.0036163
0.00355211
0.00342268
0.00293164
0.00219558
0.00115889
-0.000226465
-0.00207256
-0.00449618
-0.00765699
-0.0117698
-0.0171112
-0.0239652
-0.0323584
-0.0413762
-0.048674
-0.051468
-0.0487931
-0.0417928
-0.0326601
-0.024665
-0.0202034
-0.0172955
-0.0145588
-0.0120218
-0.00977049
-0.00783176
-0.00622768
-0.00492238
-0.00387951
-0.00305378
-0.00240194
-0.00188904
-0.00148841
-0.00117718
-0.000938469
-0.000760098
-0.000632729
-0.000553115
-0.000499701
0.00076683
0.000762184
0.000760393
0.000756803
0.000753897
0.000752048
0.000752885
0.000758759
0.000772774
0.000798789
0.000840479
0.000899067
0.000983107
0.00105788
0.00108268
0.000919813
0.000428926
-0.00101278
-0.00417117
-0.00878796
-0.0155644
-0.0217565
-0.0257513
-0.0265903
-0.0244308
-0.020747
-0.0165631
-0.0127123
-0.00943574
-0.0067087
-0.00446266
-0.00262878
-0.00114567
4.19774e-05
0.000986367
0.00173334
0.00229679
0.00267286
0.00289516
0.00303373
0.0029811
0.00290387
0.00273007
0.00222221
0.0015111
0.000541204
-0.000724904
-0.00236112
-0.00444347
-0.00706116
-0.0103113
-0.0143011
-0.0191155
-0.0246456
-0.0302646
-0.0347528
-0.0368227
-0.0357635
-0.0317148
-0.0263859
-0.0214951
-0.0179926
-0.0151956
-0.0128399
-0.0107749
-0.00895299
-0.00736037
-0.00600694
-0.00488082
-0.00395801
-0.00320779
-0.00260237
-0.00211711
-0.00173116
-0.00142718
-0.00119154
-0.00101402
-0.000886254
-0.000807524
-0.000749397
0.000840193
0.000834571
0.000838433
0.000841504
0.000848086
0.000858131
0.00087352
0.000896525
0.000929413
0.000974835
0.0010343
0.00110673
0.00118634
0.00124707
0.00124149
0.00107523
0.000594879
-0.000414085
-0.00227756
-0.00522266
-0.00911117
-0.013094
-0.0161109
-0.0170952
-0.0163811
-0.0144932
-0.0120877
-0.00966009