/*--------------------------------*- C++ -*----------------------------------*\
| =========                 |                                                 |
| \\      /  F ield         | OpenFOAM: The Open Source CFD Toolbox           |
|  \\    /   O peration     | Version:  2412                                  |
|   \\  /    A nd           | Website:  www.openfoam.com                      |
|    \\/     M anipulation  |                                                 |
\*---------------------------------------------------------------------------*/
FoamFile
{
    version     2.0;
    format      ascii;
    arch        "LSB;label=32;scalar=64";
    class       surfaceScalarField;
    location    "4.9";
    object      phi;
}
// * * * * * * * * * * * * * * * * * * * * * * * * * * * * * * * * * * * * * //

dimensions      [0 3 -1 0 0 0 0];

oriented        oriented;

internalField   nonuniform List<scalar> 
12640
(
-3.17402e-12
2.80102e-12
-1.21336e-11
2.05951e-12
-2.31775e-11
1.31153e-12
-3.27474e-11
1.26555e-12
-4.15628e-11
9.77958e-13
-4.98305e-11
6.42647e-13
-5.73556e-11
1.66871e-13
-6.39231e-11
-4.6294e-13
-6.93848e-11
-1.18831e-12
-7.36402e-11
-1.971e-12
-7.66091e-11
-2.80621e-12
-7.82316e-11
-3.68793e-12
-7.8486e-11
-4.58791e-12
-7.73986e-11
-5.46569e-12
-7.50411e-11
-6.28247e-12
-7.1519e-11
-7.01076e-12
-6.69563e-11
-7.6384e-12
-6.14908e-11
-8.15815e-12
-5.527e-11
-8.56539e-12
-4.84535e-11
-8.85345e-12
-4.12121e-11
-9.01481e-12
-3.37296e-11
-9.03971e-12
-2.61961e-11
-8.92354e-12
-1.88035e-11
-8.66529e-12
-1.1738e-11
-8.27002e-12
-5.17484e-12
-7.74713e-12
7.29369e-13
-7.11227e-12
5.8409e-12
-6.38433e-12
1.00544e-11
-5.58645e-12
1.32955e-11
-4.74406e-12
1.55253e-11
-3.88551e-12
1.67401e-11
-3.0394e-12
1.69724e-11
-2.23413e-12
1.62875e-11
-1.49541e-12
1.4781e-11
-8.45949e-13
1.2573e-11
-3.03475e-13
9.80303e-12
1.18927e-13
6.62345e-12
4.13815e-13
3.19452e-12
5.77963e-13
-3.21328e-13
6.12521e-13
-3.76449e-12
5.22559e-13
-6.98273e-12
3.16243e-13
-9.83445e-12
3.81294e-15
-1.21925e-11
-4.02072e-13
-1.39463e-11
-8.88096e-13
-1.5004e-11
-1.43949e-12
-1.52933e-11
-2.04224e-12
-1.47624e-11
-2.68206e-12
-1.33798e-11
-3.34548e-12
-1.11348e-11
-4.01899e-12
-8.0374e-12
-4.68965e-12
-4.11904e-12
-5.34357e-12
5.68036e-13
-5.96726e-12
5.95031e-12
-6.54643e-12
1.19343e-11
-7.06732e-12
1.84063e-11
-7.51523e-12
2.52342e-11
-7.87598e-12
3.22682e-11
-8.13527e-12
3.93441e-11
-8.28097e-12
4.6287e-11
-8.30287e-12
5.29151e-11
-8.19402e-12
5.90439e-11
-7.95e-12
6.44913e-11
-7.57049e-12
6.90837e-11
-7.06047e-12
7.26645e-11
-6.43182e-12
7.51006e-11
-5.70293e-12
7.62878e-11
-4.89594e-12
7.61538e-11
-4.0363e-12
7.46605e-11
-3.15054e-12
7.1809e-11
-2.27048e-12
6.764e-11
-1.42663e-12
6.22386e-11
-6.54841e-13
5.57289e-11
1.66202e-14
4.82832e-11
5.51506e-13
4.01107e-11
9.26456e-13
3.14705e-11
1.1037e-12
2.26411e-11
1.0568e-12
1.39447e-11
6.81794e-13
5.972e-12
-3.40664e-13
-1.91522e-12
-4.67074e-12
-3.3452e-12
-1.29547e-11
-4.73164e-12
-2.41317e-11
-4.0287e-12
-3.50106e-11
-2.85823e-12
-4.61068e-11
-2.29596e-12
-5.73543e-11
-2.01816e-12
-6.84619e-11
-2.0589e-12
-7.9145e-11
-2.43676e-12
-8.9165e-11
-3.07488e-12
-9.83115e-11
-3.92821e-12
-1.06401e-10
-4.98793e-12
-1.13278e-10
-6.2365e-12
-1.18836e-10
-7.61273e-12
-1.23019e-10
-9.03406e-12
-1.25819e-10
-1.04289e-11
-1.27258e-10
-1.17474e-11
-1.27384e-10
-1.29655e-11
-1.26255e-10
-1.40753e-11
-1.23944e-10
-1.50679e-11
-1.20536e-10
-1.59317e-11
-1.16135e-10
-1.66474e-11
-1.10861e-10
-1.71914e-11
-1.04858e-10
-1.75426e-11
-9.82751e-11
-1.76895e-11
-9.12732e-11
-1.76285e-11
-8.40091e-11
-1.73665e-11
-7.66337e-11
-1.69196e-11
-6.92824e-11
-1.63141e-11
-6.20707e-11
-1.55833e-11
-5.50881e-11
-1.47672e-11
-4.8396e-11
-1.39099e-11
-4.20249e-11
-1.30574e-11
-3.5977e-11
-1.22533e-11
-3.0228e-11
-1.15362e-11
-2.47329e-11
-1.09365e-11
-1.94314e-11
-1.04751e-11
-1.42558e-11
-1.0162e-11
-9.13614e-12
-9.99785e-12
-4.00669e-12
-9.9743e-12
1.18991e-12
-1.0077e-11
6.49927e-12
-1.02866e-11
1.19539e-11
-1.05815e-11
1.75715e-11
-1.09392e-11
2.33566e-11
-1.13384e-11
2.93004e-11
-1.17594e-11
3.53844e-11
-1.21864e-11
4.15815e-11
-1.26077e-11
4.78604e-11
-1.30166e-11
5.41868e-11
-1.34094e-11
6.05261e-11
-1.37858e-11
6.68422e-11
-1.4145e-11
7.30985e-11
-1.44859e-11
7.92559e-11
-1.48045e-11
8.52718e-11
-1.50947e-11
9.10968e-11
-1.53454e-11
9.66729e-11
-1.55417e-11
1.0193e-10
-1.56632e-11
1.06785e-10
-1.56871e-11
1.11142e-10
-1.55899e-11
1.14893e-10
-1.53498e-11
1.1792e-10
-1.49476e-11
1.20098e-10
-1.4368e-11
1.213e-10
-1.3603e-11
1.21406e-10
-1.2657e-11
1.20313e-10
-1.15492e-11
1.17939e-10
-1.03119e-11
1.14238e-10
-8.98747e-12
1.09192e-10
-7.62373e-12
1.02832e-10
-6.27754e-12
9.52276e-11
-5.00913e-12
8.65031e-11
-3.88475e-12
7.6824e-11
-2.96368e-12
6.64125e-11
-2.31026e-12
5.55319e-11
-1.98786e-12
4.45038e-11
-2.07476e-12
3.36435e-11
-2.60664e-12
2.32436e-11
-3.56267e-12
1.35005e-11
-4.90849e-12
4.43321e-12
-6.35791e-12
-4.86893e-12
-3.61376e-12
-9.75839e-12
-9.20139e-12
-1.34333e-11
-1.75368e-11
-1.11577e-11
-2.64808e-11
-8.00623e-12
-3.66015e-11
-5.68717e-12
-4.77892e-11
-3.898e-12
-5.97052e-11
-2.65845e-12
-7.20274e-11
-1.98777e-12
-8.4461e-11
-1.806e-12
-9.67403e-11
-2.05903e-12
-1.08616e-10
-2.74205e-12
-1.19873e-10
-3.82238e-12
-1.30323e-10
-5.22257e-12
-1.39824e-10
-6.82742e-12
-1.48264e-10
-8.54452e-12
-1.55557e-10
-1.03083e-11
-1.61633e-10
-1.20899e-11
-1.66434e-10
-1.38771e-11
-1.69912e-10
-1.56584e-11
-1.72037e-10
-1.74135e-11
-1.72792e-10
-1.91126e-11
-1.72182e-10
-2.07147e-11
-1.70233e-10
-2.21787e-11
-1.66991e-10
-2.34707e-11
-1.62523e-10
-2.45683e-11
-1.56904e-10
-2.54605e-11
-1.50219e-10
-2.61507e-11
-1.42554e-10
-2.66549e-11
-1.33992e-10
-2.70007e-11
-1.24609e-10
-2.72243e-11
-1.1447e-10
-2.73682e-11
-1.03634e-10
-2.7476e-11
-9.21468e-11
-2.75885e-11
-8.00513e-11
-2.77378e-11
-6.73884e-11
-2.79446e-11
-5.42031e-11
-2.82155e-11
-4.0549e-11
-2.85431e-11
-2.6493e-11
-2.89074e-11
-1.21179e-11
-2.92787e-11
2.4759e-12
-2.96218e-11
1.71716e-11
-2.98993e-11
3.1837e-11
-3.00754e-11
4.63286e-11
-3.01192e-11
6.04953e-11
-3.0007e-11
7.4185e-11
-2.97251e-11
8.72495e-11
-2.92705e-11
9.95521e-11
-2.86531e-11
1.10972e-10
-2.78929e-11
1.21409e-10
-2.70198e-11
1.30785e-10
-2.60679e-11
1.39049e-10
-2.50735e-11
1.4617e-10
-2.40698e-11
1.5214e-10
-2.30858e-11
1.56967e-10
-2.21417e-11
1.60672e-10
-2.12481e-11
1.63284e-10
-2.04028e-11
1.64832e-10
-1.9592e-11
1.6534e-10
-1.87921e-11
1.6483e-10
-1.79745e-11
1.63312e-10
-1.71074e-11
1.60787e-10
-1.6159e-11
1.57248e-10
-1.51003e-11
1.52683e-10
-1.39122e-11
1.47081e-10
-1.2593e-11
1.40442e-10
-1.11617e-11
1.3278e-10
-9.65693e-12
1.24133e-10
-8.13096e-12
1.14567e-10
-6.6506e-12
1.04183e-10
-5.29202e-12
9.31204e-11
-4.1441e-12
8.15569e-11
-3.29249e-12
6.97146e-11
-2.82351e-12
5.78456e-11
-2.81057e-12
4.62578e-11
-3.35213e-12
3.52931e-11
-4.5589e-12
2.52724e-11
-6.49462e-12
1.63189e-11
-9.01579e-12
8.51436e-12
-1.17289e-11
2.55315e-12
-1.34017e-11
-9.27032e-12
-3.37235e-12
-1.49722e-11
-8.5316e-12
-2.13701e-11
-1.64213e-11
-1.76233e-11
-2.53441e-11
-1.21815e-11
-3.5958e-11
-7.67109e-12
-4.81217e-11
-3.96594e-12
-6.14641e-11
-1.08547e-12
-7.5615e-11
9.39762e-13
-9.02406e-11
2.20271e-12
-1.05026e-10
2.76074e-12
-1.19683e-10
2.62817e-12
-1.33948e-10
1.84438e-12
-1.47587e-10
5.07635e-13
-1.60397e-10
-1.24721e-12
-1.72209e-10
-3.30004e-12
-1.82877e-10
-5.57346e-12
-1.92272e-10
-8.02875e-12
-2.00279e-10
-1.06496e-11
-2.06795e-10
-1.34161e-11
-2.11736e-10
-1.62994e-11
-2.15033e-10
-1.92558e-11
-2.16637e-10
-2.22298e-11
-2.16522e-10
-2.51596e-11
-2.14684e-10
-2.79886e-11
-2.11142e-10
-3.06712e-11
-2.05933e-10
-3.31763e-11
-1.99106e-10
-3.54884e-11
-1.90721e-10
-3.76081e-11
-1.80844e-10
-3.95494e-11
-1.69546e-10
-4.13371e-11
-1.56896e-10
-4.30026e-11
-1.4297e-10
-4.4578e-11
-1.27843e-10
-4.60898e-11
-1.116e-10
-4.75538e-11
-9.43355e-11
-4.89704e-11
-7.61591e-11
-5.03234e-11
-5.71979e-11
-5.15794e-11
-3.75993e-11
-5.26915e-11
-1.75326e-11
-5.36036e-11
2.8123e-12
-5.42565e-11
2.32274e-11
-5.45929e-11
4.34908e-11
-5.45636e-11
6.33722e-11
-5.41313e-11
8.264e-11
-5.32749e-11
1.01068e-10
-5.19917e-11
1.18445e-10
-5.03002e-11
1.34579e-10
-4.82391e-11
1.4931e-10
-4.58661e-11
1.62504e-10
-4.32522e-11
1.74068e-10
-4.04771e-11
1.83939e-10
-3.76217e-11
1.92093e-10
-3.47638e-11
1.98533e-10
-3.19719e-11
2.03292e-10
-2.93017e-11
2.06419e-10
-2.67901e-11
2.07982e-10
-2.44543e-11
2.0805e-10
-2.22906e-11
2.06697e-10
-2.02798e-11
2.03993e-10
-1.83903e-11
2.00001e-10
-1.65832e-11
1.94776e-10
-1.48146e-11
1.88364e-10
-1.30435e-11
1.80805e-10
-1.12406e-11
1.72142e-10
-9.39797e-12
1.62423e-10
-7.5341e-12
1.51708e-10
-5.69127e-12
1.4008e-10
-3.93501e-12
1.27648e-10
-2.34802e-12
1.14554e-10
-1.03235e-12
1.00975e-10
-9.69929e-14
8.71321e-11
3.40016e-13
7.32764e-11
1.7722e-13
5.97037e-11
-6.83994e-13
4.67389e-11
-2.35109e-12
3.47717e-11
-4.98291e-12
2.41622e-11
-8.66994e-12
1.50376e-11
-1.32326e-11
7.37835e-12
-1.7898e-11
2.29201e-12
-2.03322e-11
-1.3832e-11
-3.78091e-12
-1.95239e-11
-9.80201e-12
-2.81457e-11
-1.86452e-11
-2.28096e-11
-2.87739e-11
-1.48736e-11
-4.08299e-11
-7.93952e-12
-5.46547e-11
-2.09875e-12
-6.98256e-11
2.58911e-12
-8.59477e-11
6.1065e-12
-1.0264e-10
8.53959e-12
-1.19558e-10
9.96617e-12
-1.3638e-10
1.04065e-11
-1.52818e-10
9.91606e-12
-1.68606e-10
8.60893e-12
-1.83512e-10
6.63951e-12
-1.97332e-10
4.15119e-12
-2.09893e-10
1.24211e-12
-2.21042e-10
-2.03821e-12
-2.30643e-10
-5.66175e-12
-2.38577e-10
-9.60109e-12
-2.44742e-10
-1.38144e-11
-2.49055e-10
-1.82455e-11
-2.51452e-10
-2.28223e-11
-2.51888e-10
-2.74657e-11
-2.50341e-10
-3.20972e-11
-2.46811e-10
-3.66494e-11
-2.41314e-10
-4.10693e-11
-2.33884e-10
-4.53217e-11
-2.24568e-10
-4.93879e-11
-2.13422e-10
-5.32648e-11
-2.00512e-10
-5.69602e-11
-1.85911e-10
-6.04877e-11
-1.69704e-10
-6.38602e-11
-1.51986e-10
-6.70824e-11
-1.32868e-10
-7.01458e-11
-1.12477e-10
-7.30237e-11
-9.09636e-11
-7.56701e-11
-6.84992e-11
-7.80209e-11
-4.52805e-11
-7.99983e-11
-2.15278e-11
-8.15176e-11
2.51684e-12
-8.24946e-11
2.65946e-11
-8.28535e-11
5.04344e-11
-8.25334e-11
7.37608e-11
-8.14945e-11
9.63014e-11
-7.97224e-11
1.17796e-10
-7.72324e-11
1.38004e-10
-7.40694e-11
1.56714e-10
-7.03087e-11
1.73746e-10
-6.60502e-11
1.8896e-10
-6.14129e-11
2.02253e-10
-5.65252e-11
2.13566e-10
-5.15182e-11
2.22871e-10
-4.65162e-11
2.3018e-10
-4.16315e-11
2.3553e-10
-3.69553e-11
2.38981e-10
-3.2554e-11
2.40606e-10
-2.84638e-11
2.40489e-10
-2.46942e-11
2.38715e-10
-2.12302e-11
2.35366e-10
-1.80395e-11
2.30522e-10
-1.50757e-11
2.2425e-10
-1.2285e-11
2.16614e-10
-9.61485e-12
2.07672e-10
-7.02675e-12
1.97484e-10
-4.50733e-12
1.86114e-10
-2.07319e-12
1.73642e-10
2.26873e-13
1.60168e-10
2.31601e-12
1.45822e-10
4.08931e-12
1.30764e-10
5.42491e-12
1.15198e-10
6.18165e-12
9.93626e-11
6.21912e-12
8.35476e-11
5.40082e-12
6.80697e-11
3.61747e-12
5.32912e-11
7.33822e-13
3.96096e-11
-3.42083e-12
2.74645e-11
-9.00367e-12
1.70491e-11
-1.58074e-11
8.30755e-12
-2.27121e-11
2.65563e-12
-2.6362e-11
-1.78981e-11
-4.24986e-12
-2.35831e-11
-1.12995e-11
-3.36686e-11
-2.12965e-11
-2.65496e-11
-3.27807e-11
-1.59565e-11
-4.63489e-11
-6.43424e-12
-6.17838e-11
1.66009e-12
-7.86556e-11
8.26195e-12
-9.65211e-11
1.33301e-11
-1.14983e-10
1.69704e-11
-1.33659e-10
1.92645e-11
-1.5222e-10
2.0263e-11
-1.70354e-10
2.00295e-11
-1.87787e-10
1.87026e-11
-2.04269e-10
1.64495e-11
-2.19579e-10
1.34366e-11
-2.33524e-10
9.78007e-12
-2.45938e-10
5.54868e-12
-2.56677e-10
7.83268e-13
-2.65615e-10
-4.47625e-12
-2.72641e-10
-1.01785e-11
-2.77664e-10
-1.62528e-11
-2.80609e-10
-2.26135e-11
-2.81421e-10
-2.91647e-11
-2.8006e-10
-3.58102e-11
-2.76509e-10
-4.24617e-11
-2.70766e-10
-4.90456e-11
-2.62847e-10
-5.55054e-11
-2.5278e-10
-6.18019e-11
-2.40609e-10
-6.79106e-11
-2.26392e-10
-7.38169e-11
-2.10201e-10
-7.951e-11
-1.92125e-10
-8.49756e-11
-1.72273e-10
-9.01892e-11
-1.50776e-10
-9.51096e-11
-1.2779e-10
-9.96758e-11
-1.03497e-10
-1.03805e-10
-7.81097e-11
-1.07398e-10
-5.18679e-11
-1.10341e-10
-2.50374e-11
-1.12519e-10
2.09447e-12
-1.13824e-10
2.92234e-11
-1.1416e-10
5.60365e-11
-1.13459e-10
8.22197e-11
-1.11683e-10
1.07468e-10
-1.0883e-10
1.31494e-10
-1.04938e-10
1.54038e-10
-1.00089e-10
1.74872e-10
-9.43977e-11
1.9381e-10
-8.80145e-11
2.10707e-10
-8.11096e-11
2.25459e-10
-7.38659e-11
2.38009e-10
-6.6466e-11
2.48334e-10
-5.90847e-11
2.56449e-10
-5.18773e-11
2.62398e-10
-4.49734e-11
2.66246e-10
-3.84669e-11
2.68071e-10
-3.24157e-11
2.67964e-10
-2.68408e-11
2.66016e-10
-2.17341e-11
2.62317e-10
-1.70615e-11
2.56953e-10
-1.27709e-11
2.50003e-10
-8.79802e-12
2.41538e-10
-5.08027e-12
2.31627e-10
-1.57017e-12
2.2034e-10
1.75203e-12
2.07752e-10
4.8704e-12
1.93952e-10
7.73169e-12
1.79054e-10
1.02444e-11
1.63193e-10
1.22878e-11
1.46545e-10
1.37119e-11
1.2932e-10
1.43511e-11
1.11781e-10
1.40267e-11
9.42261e-11
1.25818e-11
7.70115e-11
9.86894e-12
6.05061e-11
5.74989e-12
4.5142e-11
1.23498e-14
3.13845e-11
-7.5408e-12
1.95262e-11
-1.67135e-11
9.54523e-12
-2.60452e-11
3.05218e-12
-3.12476e-11
-2.13557e-11
-4.65057e-12
-2.70868e-11
-1.24607e-11
-3.80078e-11
-2.33988e-11
-2.88633e-11
-3.60485e-11
-1.54501e-11
-5.08855e-11
-3.24063e-12
-6.76723e-11
7.18942e-12
-8.5935e-11
1.57452e-11
-1.05235e-10
2.24007e-11
-1.25127e-10
2.72385e-11
-1.45226e-10
3.03785e-11
-1.65177e-10
3.18914e-11
-1.84676e-10
3.18737e-11
-2.03441e-10
3.04758e-11
-2.21219e-10
2.78873e-11
-2.3778e-10
2.42868e-11
-2.52924e-10
1.98107e-11
-2.66472e-10
1.45442e-11
-2.78273e-10
8.54656e-12
-2.88192e-10
1.86861e-12
-2.96114e-10
-5.42708e-12
-3.01933e-10
-1.32607e-11
-3.05561e-10
-2.15338e-11
-3.06926e-10
-3.01379e-11
-3.05968e-10
-3.89614e-11
-3.02644e-10
-4.78988e-11
-2.96929e-10
-5.68574e-11
-2.8881e-10
-6.576e-11
-2.78294e-10
-7.45448e-11
-2.65404e-10
-8.31622e-11
-2.50182e-10
-9.15698e-11
-2.32692e-10
-9.97254e-11
-2.13024e-10
-1.0758e-10
-1.91294e-10
-1.15071e-10
-1.67651e-10
-1.22116e-10
-1.42277e-10
-1.2861e-10
-1.1539e-10
-1.34428e-10
-8.72413e-11
-1.39426e-10
-5.8117e-11
-1.43452e-10
-2.83321e-11
-1.46357e-10
1.775e-12
-1.48005e-10
3.18497e-11
-1.48284e-10
6.15309e-11
-1.47119e-10
9.04613e-11
-1.4448e-10
1.18298e-10
-1.40383e-10
1.44725e-10
-1.34898e-10
1.69457e-10
-1.28146e-10
1.92255e-10
-1.20295e-10
2.12922e-10
-1.11549e-10
2.3131e-10
-1.02136e-10
2.47318e-10
-9.22978e-11
2.60893e-10
-8.22724e-11
2.72022e-10
-7.22855e-11
2.80726e-10
-6.25391e-11
2.8706e-10
-5.31992e-11
2.91098e-10
-4.43902e-11
2.9293e-10
-3.61894e-11
2.92656e-10
-2.86323e-11
2.9038e-10
-2.17157e-11
2.86203e-10
-1.54058e-11
2.80224e-10
-9.64336e-12
2.72532e-10
-4.35529e-12
2.63213e-10
5.3168e-13
2.52348e-10
5.07436e-12
2.40017e-10
9.2993e-12
2.26307e-10
1.31932e-11
2.11316e-10
1.66968e-11
1.95164e-10
1.97094e-11
1.77995e-10
2.2091e-11
1.59985e-10
2.36713e-11
1.41357e-10
2.42479e-11
1.22371e-10
2.36172e-11
1.03348e-10
2.15803e-11
8.46417e-11
1.79713e-11
6.66636e-11
1.26103e-11
4.98522e-11
5.26618e-12
3.4714e-11
-4.32531e-12
2.15904e-11
-1.59636e-11
1.05593e-11
-2.79199e-11
3.33832e-12
-3.4995e-11
-2.4243e-11
-4.94039e-12
-3.00148e-11
-1.32403e-11
-4.12766e-11
-2.48958e-11
-2.98256e-11
-3.84613e-11
-1.34651e-11
-5.43499e-11
1.54451e-12
-7.22127e-11
1.43249e-11
-9.16014e-11
2.48639e-11
-1.12037e-10
3.30997e-11
-1.33089e-10
3.91329e-11
-1.54328e-10
4.30751e-11
-1.75406e-10
4.50576e-11
-1.96012e-10
4.52064e-11
-2.15876e-10
4.37007e-11
-2.34749e-10
4.0742e-11
-2.52405e-10
3.65243e-11
-2.68637e-10
3.11956e-11
-2.83265e-10
2.48597e-11
-2.96129e-10
1.75884e-11
-3.07085e-10
9.44544e-12
-3.16005e-10
5.00249e-13
-3.22771e-10
-9.15917e-12
-3.27276e-10
-1.94279e-11
-3.29424e-10
-3.01877e-11
-3.29127e-10
-4.13166e-11
-3.26313e-10
-5.26956e-11
-3.20921e-10
-6.42156e-11
-3.12906e-10
-7.57793e-11
-3.02242e-10
-8.73005e-11
-2.88924e-10
-9.87016e-11
-2.72971e-10
-1.09906e-10
-2.54432e-10
-1.20835e-10
-2.33391e-10
-1.31394e-10
-2.09968e-10
-1.41474e-10
-1.84327e-10
-1.50941e-10
-1.56673e-10
-1.59637e-10
-1.27259e-10
-1.67382e-10
-9.63791e-11
-1.73984e-10
-6.43691e-11
-1.79242e-10
-3.15996e-11
-1.82968e-10
1.53197e-12
-1.84997e-10
3.46114e-11
-1.85199e-10
6.72201e-11
-1.83495e-10
9.89481e-11
-1.79866e-10
1.29407e-10
-1.74354e-10
1.58243e-10
-1.6707e-10
1.85146e-10
-1.58184e-10
2.09854e-10
-1.47923e-10
2.32162e-10
-1.36555e-10
2.51921e-10
-1.24373e-10
2.69032e-10
-1.11682e-10
2.8345e-10
-9.87799e-11
2.95174e-10
-8.59478e-11
3.04241e-10
-7.34341e-11
3.10719e-10
-6.1445e-11
3.147e-10
-5.01334e-11
3.16293e-10
-3.95993e-11
3.15614e-10
-2.98907e-11
3.12787e-10
-2.10114e-11
3.07931e-10
-1.29255e-11
3.01161e-10
-5.56802e-12
2.92586e-10
1.14432e-12
2.82307e-10
7.29524e-12
2.70422e-10
1.29524e-11
2.57024e-10
1.81513e-11
2.4221e-10
2.28821e-11
2.26088e-10
2.70844e-11
2.08782e-10
3.0648e-11
1.90438e-10
3.34199e-11
1.71237e-10
3.52024e-11
1.51395e-10
3.57686e-11
1.31181e-10
3.48741e-11
1.10901e-10
3.22976e-11
9.09336e-11
2.78216e-11
7.16869e-11
2.12441e-11
5.36584e-11
1.22591e-11
3.73473e-11
5.90739e-13
2.31836e-11
-1.36261e-11
1.12998e-11
-2.83844e-11
3.51364e-12
-3.76605e-11
-2.66226e-11
-5.08634e-12
-3.24086e-11
-1.3726e-11
-4.35299e-11
-2.58919e-11
-2.95347e-11
-4.02178e-11
-1.00646e-11
-5.69414e-11
7.79733e-12
-7.5715e-11
2.29746e-11
-9.59831e-11
3.54435e-11
-1.17335e-10
4.52627e-11
-1.393e-10
5.24604e-11
-1.61472e-10
5.71866e-11
-1.83468e-10
5.95907e-11
-2.04993e-10
5.9869e-11
-2.25783e-10
5.82263e-11
-2.45607e-10
5.48874e-11
-2.64246e-10
5.00515e-11
-2.81501e-10
4.38785e-11
-2.97188e-10
3.64819e-11
-3.11144e-10
2.79449e-11
-3.23215e-10
1.83368e-11
-3.33258e-10
7.73317e-12
-3.41138e-10
-3.77622e-12
-3.46725e-10
-1.60834e-11
-3.49892e-10
-2.90678e-11
-3.50519e-10
-4.26016e-11
-3.48494e-10
-5.65572e-11
-3.43715e-10
-7.08118e-11
-3.36096e-10
-8.5249e-11
-3.25569e-10
-9.97581e-11
-3.12093e-10
-1.14229e-10
-2.95656e-10
-1.28548e-10
-2.76284e-10
-1.42587e-10
-2.54048e-10
-1.56202e-10
-2.29067e-10
-1.69224e-10
-2.01513e-10
-1.81456e-10
-1.71616e-10
-1.92676e-10
-1.3966e-10
-2.02639e-10
-1.05987e-10
-2.11089e-10
-7.09875e-11
-2.17772e-10
-3.50952e-11
-2.22452e-10
1.22333e-12
-2.24926e-10
3.74827e-11
-2.25047e-10
7.31944e-11
-2.22733e-10
1.07884e-10
-2.17981e-10
1.41107e-10
-2.10867e-10
1.72462e-10
-2.01551e-10
2.01605e-10
-1.90266e-10
2.28252e-10
-1.77308e-10
2.52185e-10
-1.63019e-10
2.7325e-10
-1.47766e-10
2.91357e-10
-1.31923e-10
3.06471e-10
-1.15857e-10
3.18607e-10
-9.99065e-11
3.27825e-10
-8.43719e-11
3.34216e-10
-6.94987e-11
3.37896e-10
-5.54724e-11
3.39e-10
-4.24142e-11
3.37672e-10
-3.03867e-11
3.3406e-10
-1.9398e-11
3.28308e-10
-9.41128e-12
3.20556e-10
-3.53367e-13
3.10935e-10
7.86881e-12
2.99569e-10
1.53516e-11
2.86573e-10
2.21753e-11
2.72057e-10
2.83868e-11
2.56129e-10
3.39848e-11
2.38905e-10
3.89107e-11
2.20508e-10
4.30514e-11
2.01086e-10
4.62381e-11
1.80814e-10
4.82541e-11
1.59908e-10
4.88394e-11
1.3862e-10
4.77277e-11
1.17264e-10
4.46463e-11
9.61903e-11
3.93595e-11
7.58585e-11
3.15694e-11
5.67462e-11
2.09562e-11
3.94452e-11
7.13267e-12
2.43824e-11
-9.74006e-12
1.18254e-11
-2.75082e-11
3.60257e-12
-3.92997e-11
-2.85451e-11
-5.12723e-12
-3.43076e-11
-1.40053e-11
-4.48102e-11
-2.66111e-11
-2.79948e-11
-4.15326e-11
-5.33978e-12
-5.90121e-11
1.5498e-11
-7.85315e-11
3.30423e-11
-9.9567e-11
4.74224e-11
-1.21622e-10
5.87347e-11
-1.44322e-10
6.70871e-11
-1.67224e-10
7.25625e-11
-1.89977e-10
7.53753e-11
-2.12267e-10
7.57556e-11
-2.33854e-10
7.39687e-11
-2.54516e-10
7.02577e-11
-2.74058e-10
6.48337e-11
-2.92289e-10
5.78587e-11
-3.09033e-10
4.94519e-11
-3.24118e-10
3.96984e-11
-3.37386e-10
2.867e-11
-3.48678e-10
1.64402e-11
-3.57837e-10
3.09634e-12
-3.64705e-10
-1.12587e-11
-3.69122e-10
-2.65076e-11
-3.70928e-10
-4.25238e-11
-3.69963e-10
-5.91759e-11
-3.66079e-10
-7.63313e-11
-3.59137e-10
-9.38567e-11
-3.49022e-10
-1.11616e-10
-3.35644e-10
-1.29464e-10
-3.18952e-10
-1.47242e-10
-2.98941e-10
-1.64771e-10
-2.75659e-10
-1.81841e-10
-2.49217e-10
-1.98212e-10
-2.19793e-10
-2.13612e-10
-1.87635e-10
-2.27739e-10
-1.53063e-10
-2.40271e-10
-1.16464e-10
-2.50876e-10
-7.82921e-11
-2.59229e-10
-3.90529e-11
-2.65035e-10
7.0545e-13
-2.6805e-10
4.04119e-11
-2.68102e-10
7.94935e-11
-2.65107e-10
1.17396e-10
-2.59083e-10
1.53605e-10
-2.50151e-10
1.87663e-10
-2.38531e-10
2.19183e-10
-2.24534e-10
2.47851e-10
-2.08538e-10
2.73436e-10
-1.90972e-10
2.95783e-10
-1.72289e-10
3.14807e-10
-1.52944e-10
3.30492e-10
-1.33377e-10
3.42878e-10
-1.13994e-10
3.5205e-10
-9.51474e-11
3.58133e-10
-7.71292e-11
3.61277e-10
-6.01562e-11
3.61652e-10
-4.43738e-11
3.59436e-10
-2.98566e-11
3.5481e-10
-1.66183e-11
3.47951e-10
-4.61758e-12
3.39029e-10
6.22665e-12
3.28203e-10
1.60203e-11
3.15622e-10
2.48738e-11
3.01423e-10
3.28839e-11
2.85735e-10
4.01134e-11
2.68676e-10
4.65735e-11
2.50366e-10
5.22156e-11
2.3093e-10
5.69264e-11
2.10509e-10
6.05287e-11
1.89272e-10
6.27829e-11
1.67414e-10
6.34125e-11
1.45188e-10
6.2107e-11
1.22869e-10
5.85791e-11
1.00837e-10
5.25084e-11
7.95026e-11
4.35707e-11
5.94379e-11
3.13016e-11
4.12008e-11
1.53141e-11
2.53608e-11
-4.34912e-12
1.2197e-11
-2.52897e-11
3.64315e-12
-3.99606e-11
-3.00386e-11
-5.10088e-12
-3.57404e-11
-1.42283e-11
-4.50795e-11
-2.7201e-11
-2.52184e-11
-4.27466e-11
7.78577e-13
-6.08485e-11
2.45738e-11
-8.11129e-11
4.45697e-11
-1.02794e-10
6.0738e-11
-1.25474e-10
7.34764e-11
-1.48718e-10
8.28773e-11
-1.72193e-10
8.90882e-11
-1.95529e-10
9.2287e-11
-2.18449e-10
9.27765e-11
-2.40707e-10
9.08556e-11
-2.62112e-10
8.68064e-11
-2.82482e-10
8.08485e-11
-3.01647e-10
7.31461e-11
-3.19437e-10
6.38137e-11
-3.35684e-10
5.29324e-11
-3.50219e-10
4.05665e-11
-3.62869e-10
2.67818e-11
-3.73455e-10
1.16541e-11
-3.81787e-10
-4.7255e-12
-3.87667e-10
-2.22515e-11
-3.90888e-10
-4.08056e-11
-3.91241e-10
-6.02592e-11
-3.88519e-10
-8.04748e-11
-3.82527e-10
-1.01304e-10
-3.73087e-10
-1.22587e-10
-3.60055e-10
-1.44142e-10
-3.43329e-10
-1.65759e-10
-3.2286e-10
-1.87197e-10
-2.98667e-10
-2.08172e-10
-2.70843e-10
-2.28359e-10
-2.39565e-10
-2.47397e-10
-2.05095e-10
-2.64886e-10
-1.67788e-10
-2.80409e-10
-1.28081e-10
-2.93539e-10
-8.64957e-11
-3.03866e-10
-4.36221e-11
-3.11021e-10
-1.0424e-13
-3.14705e-10
4.33843e-11
-3.14713e-10
8.6167e-11
-3.10962e-10
1.27593e-10
-3.03495e-10
1.67063e-10
-2.9249e-10
2.0405e-10
-2.78245e-10
2.38115e-10
-2.61163e-10
2.68914e-10
-2.41724e-10
2.96197e-10
-2.2046e-10
3.1981e-10
-1.97924e-10
3.39682e-10
-1.74666e-10
3.55819e-10
-1.5121e-10
3.68292e-10
-1.28033e-10
3.77228e-10
-1.0555e-10
3.8279e-10
-8.40982e-11
3.85173e-10
-6.39315e-11
3.8459e-10
-4.52164e-11
3.81262e-10
-2.80414e-11
3.75411e-10
-1.2421e-11
3.67253e-10
1.6905e-12
3.56992e-10
1.43859e-11
3.44822e-10
2.57851e-11
3.3092e-10
3.6018e-11
3.15446e-10
4.52017e-11
2.98545e-10
5.34203e-11
2.8035e-10
6.07043e-11
2.60983e-10
6.70209e-11
2.40565e-10
7.22653e-11
2.19228e-10
7.62552e-11
1.97121e-10
7.87404e-11
1.7443e-10
7.94169e-11
1.51362e-10
7.79593e-11
1.28207e-10
7.40161e-11
1.05278e-10
6.725e-11
8.30498e-11
5.71925e-11
6.20243e-11
4.33481e-11
4.29201e-11
2.51261e-11
2.62547e-11
2.64288e-12
1.25386e-11
-2.1718e-11
3.65315e-12
-3.96053e-11
-3.10995e-11
-5.07198e-12
-3.66895e-11
-1.44294e-11
-4.43191e-11
-2.78925e-11
-2.10389e-11
-4.40478e-11
8.33072e-12
-6.28632e-11
3.51509e-11
-8.37585e-11
5.75063e-11
-1.06125e-10
7.54699e-11
-1.2932e-10
8.94387e-11
-1.53035e-10
9.9794e-11
-1.76909e-10
1.06637e-10
-2.00677e-10
1.10211e-10
-2.24065e-10
1.10812e-10
-2.4687e-10
1.08794e-10
-2.68911e-10
1.04461e-10
-2.90034e-10
9.8049e-11
-3.10083e-10
8.97187e-11
-3.28903e-10
7.9575e-11
-3.46328e-10
6.7685e-11
-3.62184e-10
5.40986e-11
-3.76282e-10
3.88637e-11
-3.88421e-10
2.20371e-11
-3.98379e-10
3.68832e-12
-4.05916e-10
-1.60977e-11
-4.10775e-10
-3.72202e-11
-4.12688e-10
-5.95611e-11
-4.11387e-10
-8.29833e-11
-4.06606e-10
-1.07329e-10
-3.98101e-10
-1.32414e-10
-3.8566e-10
-1.58019e-10
-3.69117e-10
-1.83882e-10
-3.48369e-10
-2.09689e-10
-3.23391e-10
-2.3507e-10
-2.94251e-10
-2.59603e-10
-2.61115e-10
-2.82814e-10
-2.24256e-10
-3.04192e-10
-1.8406e-10
-3.23201e-10
-1.41018e-10
-3.39301e-10
-9.57267e-11
-3.51971e-10
-4.88724e-11
-3.60749e-10
-1.21317e-12
-3.65262e-10
4.64532e-11
-3.65266e-10
9.33248e-11
-3.60673e-10
1.38632e-10
-3.51562e-10
1.81675e-10
-3.38181e-10
2.21842e-10
-3.20926e-10
2.58635e-10
-3.00316e-10
2.91674e-10
-2.76955e-10
3.20696e-10
-2.51502e-10
3.45548e-10
-2.24625e-10
3.66183e-10
-1.96986e-10
3.82638e-10
-1.69201e-10
3.95028e-10
-1.41832e-10
4.03525e-10
-1.15359e-10
4.08348e-10
-9.01713e-11
4.09745e-10
-6.65562e-11
4.07982e-10
-4.47048e-11
4.03331e-10
-2.47134e-11
3.96061e-10
-6.59751e-12
3.86432e-10
9.6986e-12
3.7469e-10
2.42812e-11
3.61062e-10
3.72903e-11
3.45757e-10
4.88787e-11
3.28959e-10
5.91906e-11
3.10832e-10
6.83369e-11
2.91516e-10
7.63752e-11
2.71138e-10
8.32953e-11
2.49813e-10
8.90086e-11
2.27654e-10
9.33395e-11
2.04793e-10
9.60294e-11
1.81374e-10
9.67642e-11
1.57596e-10
9.51779e-11
1.33677e-10
9.09067e-11
1.09967e-10
8.35011e-11
8.68303e-11
7.2476e-11
6.49056e-11
5.70818e-11
4.48052e-11
3.67341e-11
2.73087e-11
1.13028e-11
1.29053e-11
-1.66126e-11
3.67126e-12
-3.8163e-11
-3.16897e-11
-5.04419e-12
-3.71238e-11
-1.47567e-11
-4.23698e-11
-2.87337e-11
-1.53434e-11
-4.57862e-11
1.76449e-11
-6.5308e-11
4.72862e-11
-8.69325e-11
7.19874e-11
-1.0985e-10
9.15501e-11
-1.33581e-10
1.06678e-10
-1.57644e-10
1.17768e-10
-1.81824e-10
1.25143e-10
-2.05857e-10
1.29012e-10
-2.29568e-10
1.29728e-10
-2.52775e-10
1.2765e-10
-2.7534e-10
1.23107e-10
-2.97127e-10
1.16339e-10
-3.18005e-10
1.07502e-10
-3.37827e-10
9.66832e-11
-3.56436e-10
8.39293e-11
-3.7365e-10
6.92665e-11
-3.89272e-10
5.27169e-11
-4.03074e-10
3.43079e-11
-4.14803e-10
1.40782e-11
-4.24175e-10
-7.91874e-12
-4.3088e-10
-3.161e-11
-4.34589e-10
-5.68969e-11
-4.34959e-10
-8.3651e-11
-4.31654e-10
-1.1171e-10
-4.24347e-10
-1.4087e-10
-4.12747e-10
-1.70877e-10
-3.9661e-10
-2.0141e-10
-3.75764e-10
-2.32079e-10
-3.50128e-10
-2.62415e-10
-3.19729e-10
-2.9188e-10
-2.84714e-10
-3.19871e-10
-2.45362e-10
-3.45741e-10
-2.02085e-10
-3.68811e-10
-1.55431e-10
-3.884e-10
-1.0608e-10
-4.03853e-10
-5.48303e-11
-4.14584e-10
-2.57621e-12
-4.20122e-10
4.97336e-11
-4.20169e-10
1.01143e-10
-4.1463e-10
1.50741e-10
-4.0363e-10
1.97699e-10
-3.87508e-10
2.41315e-10
-3.66784e-10
2.8102e-10
-3.42121e-10
3.16398e-10
-3.14279e-10
3.47175e-10
-2.84066e-10
3.73213e-10
-2.52296e-10
3.94494e-10
-2.1975e-10
4.11103e-10
-1.8716e-10
4.23207e-10
-1.55173e-10
4.31042e-10
-1.24344e-10
4.3489e-10
-9.51129e-11
4.35066e-10
-6.78058e-11
4.31898e-10
-4.26308e-11
4.25717e-10
-1.96918e-11
4.16845e-10
1.00322e-12
4.05592e-10
1.95225e-11
3.92246e-10
3.59936e-11
3.77071e-10
5.05807e-11
3.60306e-10
6.34668e-11
3.42161e-10
7.48281e-11
3.22815e-10
8.48095e-11
3.02419e-10
9.35029e-11
2.81099e-10
1.00931e-10
2.58959e-10
1.07029e-10
2.36098e-10
1.11636e-10
2.12607e-10
1.14502e-10
1.88611e-10
1.15293e-10
1.64235e-10
1.13642e-10
1.39705e-10
1.09106e-10
1.15242e-10
1.01241e-10
9.13052e-11
8.93453e-11
6.83577e-11
7.26491e-11
4.72499e-11
5.02055e-11
2.86595e-11
2.19351e-11
1.34634e-11
-9.79245e-12
3.69258e-12
-3.53955e-11
-3.1749e-11
-5.08078e-12
-3.69504e-11
-1.5282e-11
-3.90344e-11
-3.00959e-11
-7.7251e-12
-4.81408e-11
2.89151e-11
-6.87298e-11
6.13827e-11
-9.09977e-11
8.79974e-11
-1.14496e-10
1.09042e-10
-1.38569e-10
1.25056e-10
-1.62926e-10
1.36762e-10
-1.87255e-10
1.44478e-10
-2.1143e-10
1.48564e-10
-2.35301e-10
1.49359e-10
-2.5877e-10
1.47256e-10
-2.81733e-10
1.42582e-10
-3.0409e-10
1.35571e-10
-3.25729e-10
1.26364e-10
-3.46519e-10
1.15026e-10
-3.66306e-10
1.01574e-10
-3.84908e-10
8.60037e-11
-4.02113e-10
6.8302e-11
-4.17675e-10
4.8459e-11
-4.31308e-10
2.64718e-11
-4.42685e-10
2.35066e-12
-4.5144e-10
-2.38719e-11
-4.57175e-10
-5.21282e-11
-4.59475e-10
-8.23062e-11
-4.57916e-10
-1.14248e-10
-4.52085e-10
-1.47739e-10
-4.41593e-10
-1.82493e-10
-4.26104e-10
-2.18133e-10
-4.05356e-10
-2.54186e-10
-3.79196e-10
-2.90071e-10
-3.47594e-10
-3.25116e-10
-3.10667e-10
-3.58567e-10
-2.68689e-10
-3.89614e-10
-2.22097e-10
-4.17409e-10
-1.71495e-10
-4.41099e-10
-1.17657e-10
-4.59855e-10
-6.15129e-11
-4.72932e-10
-4.12094e-12
-4.7973e-10
5.33842e-11
-4.79875e-10
1.09858e-10
-4.7326e-10
1.6421e-10
-4.60069e-10
2.15468e-10
-4.4076e-10
2.62814e-10
-4.16013e-10
3.0561e-10
-3.86674e-10
3.43402e-10
-3.53697e-10
3.75916e-10
-3.18074e-10
4.03043e-10
-2.80786e-10
4.24809e-10
-2.42762e-10
4.4136e-10
-2.04852e-10
4.52936e-10
-1.67806e-10
4.59848e-10
-1.32252e-10
4.62459e-10
-9.86876e-11
4.61161e-10
-6.74688e-11
4.56354e-10
-3.88196e-11
4.48436e-10
-1.28399e-11
4.37789e-10
1.04739e-11
4.24772e-10
3.12132e-11
4.09717e-10
4.95316e-11
3.92926e-10
6.56268e-11
3.74666e-10
7.97169e-11
3.55171e-10
9.20166e-11
3.34638e-10
1.02711e-10
3.13226e-10
1.11935e-10
2.91055e-10
1.19754e-10
2.68219e-10
1.26137e-10
2.44791e-10
1.30946e-10
2.20838e-10
1.33947e-10
1.96419e-10
1.34811e-10
1.71646e-10
1.33137e-10
1.46617e-10
1.28492e-10
1.21595e-10
1.20293e-10
9.68274e-11
1.07843e-10
7.29421e-11
9.00157e-11
5.05547e-11
6.58482e-11
3.07253e-11
3.47608e-11
1.43223e-11
-7.8639e-13
3.80472e-12
-3.10107e-11
-3.11553e-11
-5.2094e-12
-3.60134e-11
-1.64117e-11
-3.37825e-11
-3.23635e-11
2.24003e-12
-5.18385e-11
4.26639e-11
-7.35222e-11
7.75652e-11
-9.66618e-11
1.05805e-10
-1.20513e-10
1.27783e-10
-1.44827e-10
1.44498e-10
-1.69206e-10
1.56545e-10
-1.9353e-10
1.64488e-10
-2.1765e-10
1.68674e-10
-2.41525e-10
1.69525e-10
-2.65102e-10
1.67427e-10
-2.88335e-10
1.62706e-10
-3.11161e-10
1.5558e-10
-3.3349e-10
1.46157e-10
-3.55205e-10
1.34474e-10
-3.7616e-10
1.20511e-10
-3.96168e-10
1.04224e-10
-4.15008e-10
8.55601e-11
-4.32414e-10
6.44636e-11
-4.48074e-10
4.08807e-11
-4.61619e-10
1.47652e-11
-4.72624e-10
-1.39069e-11
-4.80622e-10
-4.51116e-11
-4.85118e-10
-7.87641e-11
-4.85599e-10
-1.14721e-10
-4.81547e-10
-1.52771e-10
-4.72463e-10
-1.92606e-10
-4.57896e-10
-2.33796e-10
-4.37475e-10
-2.75782e-10
-4.10948e-10
-3.17863e-10
-3.7821e-10
-3.59209e-10
-3.39332e-10
-3.98892e-10
-2.9457e-10
-4.35906e-10
-2.4438e-10
-4.69201e-10
-1.89425e-10
-4.97714e-10
-1.30582e-10
-5.20399e-10
-6.89371e-11
-5.36299e-10
-5.75086e-12
-5.4464e-10
5.7611e-11
-5.44941e-10
1.19767e-10
-5.37081e-10
1.79413e-10
-5.21321e-10
2.35397e-10
-4.98275e-10
2.86774e-10
-4.68832e-10
3.32827e-10
-4.34072e-10
3.73076e-10
-3.95188e-10
4.07263e-10
-3.53405e-10
4.35323e-10
-3.09902e-10
4.57352e-10
-2.6577e-10
4.73578e-10
-2.21997e-10