/*--------------------------------*- C++ -*----------------------------------*\
| =========                 |                                                 |
| \\      /  F ield         | OpenFOAM: The Open Source CFD Toolbox           |
|  \\    /   O peration     | Version:  2412                                  |
|   \\  /    A nd           | Website:  www.openfoam.com                      |
|    \\/     M anipulation  |                                                 |
\*---------------------------------------------------------------------------*/
FoamFile
{
    version     2.0;
    format      ascii;
    arch        "LSB;label=32;scalar=64";
    class       volVectorField;
    location    "9.6";
    object      U;
}
// * * * * * * * * * * * * * * * * * * * * * * * * * * * * * * * * * * * * * //

dimensions      [0 1 -1 0 0 0 0];

internalField   nonuniform List<vector> 
6400
(
(-4.6794e-07 4.66301e-07 0)
(-6.86284e-06 2.16315e-06 0)
(-1.84329e-05 3.11066e-06 0)
(-3.25161e-05 3.38487e-06 0)
(-4.67549e-05 3.28046e-06 0)
(-5.99725e-05 3.01489e-06 0)
(-7.17107e-05 2.69072e-06 0)
(-8.1929e-05 2.39007e-06 0)
(-9.08159e-05 2.13137e-06 0)
(-9.86384e-05 1.91728e-06 0)
(-0.000105685 1.76197e-06 0)
(-0.000112208 1.64236e-06 0)
(-0.00011838 1.53808e-06 0)
(-0.000124315 1.45218e-06 0)
(-0.000130066 1.36328e-06 0)
(-0.00013559 1.24845e-06 0)
(-0.000140787 1.11139e-06 0)
(-0.000145553 9.61462e-07 0)
(-0.000149799 7.98032e-07 0)
(-0.000153439 6.1875e-07 0)
(-0.000156384 4.20634e-07 0)
(-0.000158539 2.06395e-07 0)
(-0.000159815 -1.98985e-08 0)
(-0.000160138 -2.52516e-07 0)
(-0.000159454 -4.8597e-07 0)
(-0.000157726 -7.19702e-07 0)
(-0.000154919 -9.5736e-07 0)
(-0.000150997 -1.20217e-06 0)
(-0.000145924 -1.45181e-06 0)
(-0.000139672 -1.70326e-06 0)
(-0.000132224 -1.9518e-06 0)
(-0.000123578 -2.19579e-06 0)
(-0.000113744 -2.43381e-06 0)
(-0.000102746 -2.66294e-06 0)
(-9.06335e-05 -2.87866e-06 0)
(-7.74902e-05 -3.07141e-06 0)
(-6.34333e-05 -3.23618e-06 0)
(-4.86087e-05 -3.37076e-06 0)
(-3.31912e-05 -3.46888e-06 0)
(-1.73891e-05 -3.52039e-06 0)
(-1.43209e-06 -3.52674e-06 0)
(1.44491e-05 -3.49142e-06 0)
(3.00254e-05 -3.4073e-06 0)
(4.50869e-05 -3.28895e-06 0)
(5.94527e-05 -3.13776e-06 0)
(7.29568e-05 -2.94867e-06 0)
(8.5461e-05 -2.73632e-06 0)
(9.68709e-05 -2.50717e-06 0)
(0.000107135 -2.27184e-06 0)
(0.00011624 -2.03609e-06 0)
(0.000124184 -1.79376e-06 0)
(0.000130976 -1.54909e-06 0)
(0.000136638 -1.30894e-06 0)
(0.000141197 -1.06755e-06 0)
(0.000144685 -8.29439e-07 0)
(0.000147139 -5.96202e-07 0)
(0.000148597 -3.66884e-07 0)
(0.000149102 -1.42481e-07 0)
(0.0001487 7.80059e-08 0)
(0.000147448 2.86921e-07 0)
(0.00014542 4.82914e-07 0)
(0.000142693 6.65951e-07 0)
(0.000139348 8.34234e-07 0)
(0.000135473 9.8509e-07 0)
(0.000131156 1.11798e-06 0)
(0.000126472 1.2366e-06 0)
(0.000121465 1.35079e-06 0)
(0.000116144 1.46212e-06 0)
(0.000110476 1.58054e-06 0)
(0.000104366 1.71975e-06 0)
(9.76469e-05 1.89381e-06 0)
(9.00809e-05 2.11591e-06 0)
(8.13911e-05 2.3869e-06 0)
(7.13164e-05 2.69486e-06 0)
(5.96934e-05 3.00696e-06 0)
(4.65745e-05 3.26333e-06 0)
(3.24147e-05 3.35449e-06 0)
(1.84151e-05 3.07845e-06 0)
(6.95417e-06 2.09886e-06 0)
(5.36439e-07 5.17372e-07 0)
(-2.17447e-06 6.85981e-06 0)
(-1.87301e-05 1.86603e-05 0)
(-4.4383e-05 2.5305e-05 0)
(-7.4372e-05 2.73263e-05 0)
(-0.000104271 2.63584e-05 0)
(-0.00013178 2.3919e-05 0)
(-0.000155963 2.09923e-05 0)
(-0.000176739 1.82263e-05 0)
(-0.00019453 1.59016e-05 0)
(-0.000209988 1.41118e-05 0)
(-0.000223809 1.2869e-05 0)
(-0.000236584 1.20348e-05 0)
(-0.000248752 1.14733e-05 0)
(-0.000260626 1.11013e-05 0)
(-0.00027237 1.07577e-05 0)
(-0.00028395 1.02714e-05 0)
(-0.000295169 9.58782e-06 0)
(-0.000305772 8.71645e-06 0)
(-0.000315507 7.6639e-06 0)
(-0.00032414 6.432e-06 0)
(-0.000331447 5.01481e-06 0)
(-0.000337204 3.42029e-06 0)
(-0.000341188 1.66762e-06 0)
(-0.000343199 -2.11703e-07 0)
(-0.000343072 -2.18214e-06 0)
(-0.000340673 -4.22581e-06 0)
(-0.000335895 -6.34386e-06 0)
(-0.000328635 -8.54054e-06 0)
(-0.000318797 -1.08063e-05 0)
(-0.000306293 -1.31234e-05 0)
(-0.000291051 -1.54647e-05 0)
(-0.000273028 -1.78048e-05 0)
(-0.000252222 -2.01115e-05 0)
(-0.00022868 -2.23432e-05 0)
(-0.000202514 -2.44461e-05 0)
(-0.00017391 -2.63501e-05 0)
(-0.000143134 -2.79943e-05 0)
(-0.000110531 -2.93262e-05 0)
(-7.65207e-05 -3.02867e-05 0)
(-4.15942e-05 -3.08134e-05 0)
(-6.29469e-06 -3.0887e-05 0)
(2.8818e-05 -3.0517e-05 0)
(6.31988e-05 -2.97054e-05 0)
(9.63485e-05 -2.85195e-05 0)
(0.000127831 -2.69996e-05 0)
(0.00015727 -2.51739e-05 0)
(0.00018436 -2.31244e-05 0)
(0.000208882 -2.09255e-05 0)
(0.000230717 -1.86625e-05 0)
(0.000249834 -1.63938e-05 0)
(0.00026626 -1.41322e-05 0)
(0.000280055 -1.19025e-05 0)
(0.000291295 -9.73236e-06 0)
(0.00030008 -7.62286e-06 0)
(0.000306516 -5.58312e-06 0)
(0.000310711 -3.62145e-06 0)
(0.000312781 -1.74576e-06 0)
(0.000312859 3.59308e-08 0)
(0.000311087 1.71519e-06 0)
(0.000307631 3.25704e-06 0)
(0.000302678 4.64872e-06 0)
(0.000296426 5.88228e-06 0)
(0.000289083 6.95074e-06 0)
(0.000280856 7.84716e-06 0)
(0.000271947 8.58419e-06 0)
(0.000262522 9.20238e-06 0)
(0.000252673 9.78178e-06 0)
(0.000242396 1.03901e-05 0)
(0.000231573 1.11312e-05 0)
(0.000219944 1.21353e-05 0)
(0.000207085 1.35392e-05 0)
(0.000192415 1.54513e-05 0)
(0.000175267 1.78876e-05 0)
(0.000155013 2.074e-05 0)
(0.000131238 2.37007e-05 0)
(0.000104017 2.61793e-05 0)
(7.4289e-05 2.71716e-05 0)
(4.43994e-05 2.51776e-05 0)
(1.8797e-05 1.85175e-05 0)
(2.19983e-06 6.99711e-06 0)
(-3.23509e-06 1.85458e-05 0)
(-2.58589e-05 4.43613e-05 0)
(-5.87794e-05 5.79447e-05 0)
(-9.61448e-05 6.16867e-05 0)
(-0.00013268 5.9061e-05 0)
(-0.000165723 5.3178e-05 0)
(-0.000194231 4.62439e-05 0)
(-0.000218221 3.97054e-05 0)
(-0.000238329 3.426e-05 0)
(-0.000255489 3.01715e-05 0)
(-0.00027069 2.74216e-05 0)
(-0.000284773 2.57028e-05 0)
(-0.000298365 2.47234e-05 0)
(-0.000311922 2.4247e-05 0)
(-0.000325709 2.39052e-05 0)
(-0.000339737 2.32946e-05 0)
(-0.000353785 2.22247e-05 0)
(-0.000367505 2.06584e-05 0)
(-0.000380519 1.86099e-05 0)
(-0.000392469 1.60978e-05 0)
(-0.000403016 1.31193e-05 0)
(-0.000411828 9.68469e-06 0)
(-0.00041858 5.82618e-06 0)
(-0.00042297 1.60494e-06 0)
(-0.000424738 -2.90188e-06 0)
(-0.000423669 -7.64036e-06 0)
(-0.000419582 -1.25922e-05 0)
(-0.000412316 -1.77522e-05 0)
(-0.000401712 -2.3107e-05 0)
(-0.000387621 -2.86252e-05 0)
(-0.000369904 -3.42533e-05 0)
(-0.000348463 -3.99217e-05 0)
(-0.000323257 -4.55397e-05 0)
(-0.000294321 -5.09949e-05 0)
(-0.000261782 -5.61479e-05 0)
(-0.000225873 -6.08363e-05 0)
(-0.000186943 -6.49015e-05 0)
(-0.000145462 -6.8191e-05 0)
(-0.000102018 -7.05589e-05 0)
(-5.72934e-05 -7.18673e-05 0)
(-1.2043e-05 -7.20535e-05 0)
(3.29479e-05 -7.11247e-05 0)
(7.6911e-05 -6.9119e-05 0)
(0.000119145 -6.61748e-05 0)
(0.000159038 -6.24063e-05 0)
(0.000196081 -5.79284e-05 0)
(0.000229881 -5.29185e-05 0)
(0.000260163 -4.75598e-05 0)
(0.000286785 -4.2053e-05 0)
(0.000309728 -3.65506e-05 0)
(0.000329066 -3.11241e-05 0)
(0.000344925 -2.5828e-05 0)
(0.000357454 -2.07085e-05 0)
(0.000366819 -1.57916e-05 0)
(0.000373204 -1.10877e-05 0)
(0.000376795 -6.61208e-06 0)
(0.000377786 -2.3881e-06 0)
(0.000376389 1.56091e-06 0)
(0.000372836 5.20667e-06 0)
(0.000367385 8.48915e-06 0)
(0.000360312 1.13811e-05 0)
(0.000351907 1.38648e-05 0)
(0.000342465 1.59315e-05 0)
(0.000332281 1.75792e-05 0)
(0.000321627 1.88527e-05 0)
(0.000310719 1.98575e-05 0)
(0.00029967 2.07848e-05 0)
(0.000288458 2.1828e-05 0)
(0.000276892 2.32457e-05 0)
(0.000264582 2.53528e-05 0)
(0.000250909 2.848e-05 0)
(0.00023504 3.28805e-05 0)
(0.000216016 3.85992e-05 0)
(0.000192908 4.53865e-05 0)
(0.000165058 5.2518e-05 0)
(0.000132439 5.86098e-05 0)
(9.61105e-05 6.14089e-05 0)
(5.88101e-05 5.77901e-05 0)
(2.58408e-05 4.42778e-05 0)
(3.2039e-06 1.869e-05 0)
(-3.61506e-06 3.30931e-05 0)
(-2.85601e-05 7.49063e-05 0)
(-6.38186e-05 9.55459e-05 0)
(-0.000102838 0.000100353 0)
(-0.000140021 9.50888e-05 0)
(-0.000172736 8.46956e-05 0)
(-0.0002001 7.27727e-05 0)
(-0.000222334 6.16731e-05 0)
(-0.000240309 5.25657e-05 0)
(-0.000255205 4.59166e-05 0)
(-0.000268248 4.1647e-05 0)
(-0.00028046 3.92212e-05 0)
(-0.000292584 3.81365e-05 0)
(-0.000305141 3.79685e-05 0)
(-0.00031846 3.81158e-05 0)
(-0.000332619 3.79045e-05 0)
(-0.000347433 3.69439e-05 0)
(-0.000362508 3.50812e-05 0)
(-0.00037736 3.23155e-05 0)
(-0.000391513 2.86854e-05 0)
(-0.000404521 2.41969e-05 0)
(-0.000415961 1.88699e-05 0)
(-0.000425432 1.27566e-05 0)
(-0.000432564 5.95474e-06 0)
(-0.000437029 -1.41002e-06 0)
(-0.000438546 -9.23826e-06 0)
(-0.000436868 -1.7484e-05 0)
(-0.000431774 -2.6127e-05 0)
(-0.000423053 -3.51508e-05 0)
(-0.000410496 -4.4514e-05 0)
(-0.000393903 -5.41396e-05 0)
(-0.000373105 -6.39053e-05 0)
(-0.000347994 -7.36459e-05 0)
(-0.000318555 -8.31536e-05 0)
(-0.000284886 -9.21768e-05 0)
(-0.000247219 -0.000100426 0)
(-0.000205946 -0.0001076 0)
(-0.000161619 -0.000113409 0)
(-0.000114936 -0.00011759 0)
(-6.67115e-05 -0.00011991 0)
(-1.78445e-05 -0.00012025 0)
(3.07221e-05 -0.000118603 0)
(7.80548e-05 -0.000115051 0)
(0.000123293 -0.000109825 0)
(0.000165698 -0.00010315 0)
(0.000204683 -9.52824e-05 0)
(0.000239824 -8.65287e-05 0)
(0.000270846 -7.72105e-05 0)
(0.000297626 -6.76688e-05 0)
(0.000320183 -5.81782e-05 0)
(0.000338651 -4.88967e-05 0)
(0.000353237 -3.99228e-05 0)
(0.000364174 -3.13211e-05 0)
(0.000371706 -2.3133e-05 0)
(0.000376082 -1.53808e-05 0)
(0.00037756 -8.08749e-06 0)
(0.000376406 -1.28685e-06 0)
(0.000372899 4.97648e-06 0)
(0.00036734 1.06496e-05 0)
(0.000360053 1.56549e-05 0)
(0.000351378 1.99471e-05 0)
(0.000341674 2.34993e-05 0)
(0.000331306 2.63035e-05 0)
(0.000320627 2.83766e-05 0)
(0.000309955 2.981e-05 0)
(0.00029954 3.0796e-05 0)
(0.000289518 3.16584e-05 0)
(0.000279857 3.27653e-05 0)
(0.000270316 3.45818e-05 0)
(0.000260403 3.76642e-05 0)
(0.000249348 4.25926e-05 0)
(0.000236127 4.98125e-05 0)
(0.000219549 5.94263e-05 0)
(0.000198435 7.10339e-05 0)
(0.000171887 8.34262e-05 0)
(0.00013968 9.42959e-05 0)
(0.000102732 9.9955e-05 0)
(6.37609e-05 9.54239e-05 0)
(2.84109e-05 7.4959e-05 0)
(3.53315e-06 3.31382e-05 0)
(-3.65485e-06 4.8226e-05 0)
(-2.83994e-05 0.000106059 0)
(-6.26333e-05 0.000132983 0)
(-9.95106e-05 0.000137818 0)
(-0.000133478 0.000128929 0)
(-0.000162149 0.00011325 0)
(-0.000184951 9.58144e-05 0)
(-0.000202391 7.98757e-05 0)
(-0.000215583 6.70616e-05 0)
(-0.000225928 5.80373e-05 0)
(-0.000234848 5.26181e-05 0)
(-0.0002435 4.99718e-05 0)
(-0.000252686 4.93304e-05 0)
(-0.000262932 5.00521e-05 0)
(-0.000274561 5.13153e-05 0)
(-0.000287692 5.21899e-05 0)
(-0.000302177 5.20291e-05 0)
(-0.000317611 5.0498e-05 0)
(-0.000333441 4.75438e-05 0)
(-0.000349091 4.32199e-05 0)
(-0.000364021 3.75582e-05 0)
(-0.000377734 3.06045e-05 0)
(-0.000389776 2.24429e-05 0)
(-0.000399734 1.32105e-05 0)
(-0.000407235 3.07905e-06 0)
(-0.000411947 -7.80733e-06 0)
(-0.000413576 -1.93724e-05 0)
(-0.000411851 -3.1577e-05 0)
(-0.000406517 -4.4396e-05 0)
(-0.000397322 -5.77872e-05 0)
(-0.000384002 -7.1665e-05 0)
(-0.000366302 -8.58627e-05 0)
(-0.000344025 -0.000100135 0)
(-0.000317073 -0.000114162 0)
(-0.000285481 -0.000127556 0)
(-0.000249454 -0.000139862 0)
(-0.000209395 -0.000150596 0)
(-0.000165905 -0.000159301 0)
(-0.000119754 -0.000165574 0)
(-7.1852e-05 -0.000169069 0)
(-2.32079e-05 -0.000169599 0)
(2.5114e-05 -0.000167133 0)
(7.20519e-05 -0.000161794 0)
(0.000116618 -0.000153917 0)
(0.000157972 -0.000143884 0)
(0.000195473 -0.000132139 0)
(0.000228689 -0.000119159 0)
(0.000257378 -0.000105429 0)
(0.000281476 -9.14475e-05 0)
(0.000301075 -7.76254e-05 0)
(0.000316393 -6.42221e-05 0)
(0.000327728 -5.13913e-05 0)
(0.000335406 -3.92162e-05 0)
(0.00033975 -2.77366e-05 0)
(0.000341073 -1.69816e-05 0)
(0.000339684 -6.97795e-06 0)
(0.000335893 2.23369e-06 0)
(0.000330021 1.05905e-05 0)
(0.000322411 1.80153e-05 0)
(0.000313429 2.44119e-05 0)
(0.000303466 2.97147e-05 0)
(0.00029293 3.38876e-05 0)
(0.000282233 3.69278e-05 0)
(0.000271774 3.88782e-05 0)
(0.000261919 3.98837e-05 0)
(0.000252956 4.02364e-05 0)
(0.000245044 4.04105e-05 0)
(0.000238152 4.09812e-05 0)
(0.000232012 4.26571e-05 0)
(0.000226069 4.62781e-05 0)
(0.000219452 5.27222e-05 0)
(0.000210987 6.26636e-05 0)
(0.000199312 7.62934e-05 0)
(0.000183045 9.30739e-05 0)
(0.000161072 0.000111314 0)
(0.000132915 0.00012777 0)
(9.92024e-05 0.000137296 0)
(6.23899e-05 0.000132914 0)
(2.81298e-05 0.00010619 0)
(3.55107e-06 4.80494e-05 0)
(-3.53867e-06 6.27692e-05 0)
(-2.66729e-05 0.000135442 0)
(-5.78322e-05 0.000167391 0)
(-9.02419e-05 0.000171072 0)
(-0.000118688 0.000157647 0)
(-0.000141192 0.000136127 0)
(-0.000157579 0.000112972 0)
(-0.000168697 9.2269e-05 0)
(-0.000175903 7.60387e-05 0)
(-0.000180772 6.51177e-05 0)
(-0.000184868 5.9173e-05 0)
(-0.000189451 5.70046e-05 0)
(-0.000195348 5.75114e-05 0)
(-0.000203034 5.9795e-05 0)
(-0.000212763 6.28326e-05 0)
(-0.000224622 6.54745e-05 0)
(-0.000238458 6.67943e-05 0)
(-0.000253868 6.62522e-05 0)
(-0.000270277 6.37025e-05 0)
(-0.000287046 5.91901e-05 0)
(-0.000303557 5.27904e-05 0)
(-0.000319255 4.45953e-05 0)
(-0.000333647 3.47351e-05 0)
(-0.000346289 2.33886e-05 0)
(-0.000356786 1.07693e-05 0)
(-0.000364781 -2.93635e-06 0)
(-0.000369954 -1.76207e-05 0)
(-0.00037201 -3.32248e-05 0)
(-0.000370666 -4.97138e-05 0)
(-0.000365634 -6.70582e-05 0)
(-0.000356586 -8.51909e-05 0)
(-0.000343178 -0.000103918 0)
(-0.000325104 -0.000122917 0)
(-0.000302158 -0.000141745 0)
(-0.000274291 -0.000159849 0)
(-0.000241654 -0.000176575 0)
(-0.000204633 -0.000191219 0)
(-0.000163846 -0.000203125 0)
(-0.000120117 -0.000211723 0)
(-7.44407e-05 -0.000216536 0)
(-2.79266e-05 -0.000217294 0)
(1.82518e-05 -0.000213938 0)
(6.29225e-05 -0.000206623 0)
(0.000104992 -0.000195806 0)
(0.000143533 -0.000182056 0)
(0.000177848 -0.000166043 0)
(0.000207502 -0.000148475 0)
(0.000232307 -0.000130031 0)
(0.000252284 -0.000111391 0)
(0.000267638 -9.31149e-05 0)
(0.000278709 -7.55684e-05 0)
(0.000285905 -5.89542e-05 0)
(0.000289643 -4.3362e-05 0)
(0.000290311 -2.88152e-05 0)
(0.000288267 -1.53295e-05 0)
(0.000283846 -2.923e-06 0)
(0.000277375 8.36054e-06 0)
(0.00026919 1.84455e-05 0)
(0.000259649 2.72271e-05 0)
(0.000249141 3.45851e-05 0)
(0.000238081 4.04295e-05 0)
(0.000226911 4.47108e-05 0)
(0.000216081 4.74323e-05 0)
(0.000206034 4.8661e-05 0)
(0.000197179 4.85963e-05 0)
(0.000189843 4.76419e-05 0)
(0.00018422 4.64336e-05 0)
(0.000180308 4.57708e-05 0)
(0.000177839 4.66391e-05 0)
(0.000176234 5.01915e-05 0)
(0.000174564 5.76423e-05 0)
(0.000171583 6.99207e-05 0)
(0.000165823 8.73427e-05 0)
(0.00015576 0.000109263 0)
(0.000140075 0.000133561 0)
(0.000118 0.00015612 0)
(8.97841e-05 0.000170383 0)
(5.74967e-05 0.000167284 0)
(2.64698e-05 0.000135453 0)
(3.49506e-06 6.2377e-05 0)
(-3.36409e-06 7.61853e-05 0)
(-2.42064e-05 0.000161817 0)
(-5.11843e-05 0.000197196 0)
(-7.78621e-05 0.00019849 0)
(-9.96204e-05 0.000179748 0)
(-0.000115018 0.000152056 0)
(-0.000124339 0.00012326 0)
(-0.000128787 9.81707e-05 0)
(-0.000129938 7.90872e-05 0)
(-0.000129485 6.69623e-05 0)
(-0.000129056 6.1273e-05 0)
(-0.00012996 6.04183e-05 0)
(-0.000133025 6.28624e-05 0)
(-0.00013864 6.74165e-05 0)
(-0.00014695 7.28661e-05 0)
(-0.00015794 7.78656e-05 0)
(-0.000171401 8.12368e-05 0)
(-0.000186911 8.22427e-05 0)
(-0.000203881 8.06211e-05 0)
(-0.000221643 7.63893e-05 0)
(-0.000239542 6.96671e-05 0)
(-0.000256982 6.06081e-05 0)
(-0.000273436 4.94019e-05 0)
(-0.000288444 3.62772e-05 0)
(-0.000301602 2.14938e-05 0)
(-0.00031256 5.28052e-06 0)
(-0.000321007 -1.22223e-05 0)
(-0.000326652 -3.09403e-05 0)
(-0.000329208 -5.08395e-05 0)
(-0.000328361 -7.19204e-05 0)
(-0.000323732 -9.41671e-05 0)
(-0.000314883 -0.000117386 0)
(-0.000301391 -0.000141189 0)
(-0.00028292 -0.000165005 0)
(-0.0002593 -0.000188091 0)
(-0.000230599 -0.000209556 0)
(-0.000197159 -0.000228444 0)
(-0.000159604 -0.000243856 0)
(-0.000118811 -0.000255018 0)
(-7.58596e-05 -0.000261296 0)
(-3.19707e-05 -0.000262325 0)
(1.15678e-05 -0.00025801 0)
(5.34773e-05 -0.000248557 0)
(9.25684e-05 -0.00023454 0)
(0.000127826 -0.000216746 0)
(0.000158493 -0.000196104 0)
(0.000184124 -0.00017361 0)
(0.000204591 -0.000150203 0)
(0.000220044 -0.000126772 0)
(0.000230835 -0.000104039 0)
(0.000237452 -8.24762e-05 0)
(0.000240434 -6.23125e-05 0)
(0.000240292 -4.36107e-05 0)
(0.000237463 -2.63478e-05 0)
(0.000232312 -1.05023e-05 0)
(0.000225165 3.9279e-06 0)
(0.000216335 1.69006e-05 0)
(0.000206146 2.83307e-05 0)
(0.00019495 3.80799e-05 0)
(0.000183137 4.59972e-05 0)
(0.000171126 5.19632e-05 0)
(0.000159372 5.59046e-05 0)
(0.000148348 5.78236e-05 0)
(0.000138533 5.78042e-05 0)
(0.000130379 5.60956e-05 0)
(0.000124267 5.32162e-05 0)
(0.000120445 4.99637e-05 0)
(0.00011896 4.73768e-05 0)
(0.000119576 4.67445e-05 0)
(0.000121727 4.9554e-05 0)
(0.000124504 5.73591e-05 0)
(0.000126674 7.13696e-05 0)
(0.000126749 9.20695e-05 0)
(0.000123122 0.00011877 0)
(0.00011429 0.000149016 0)
(9.9171e-05 0.00017793 0)
(7.75799e-05 0.000197625 0)
(5.10755e-05 0.000196928 0)
(2.43229e-05 0.00016157 0)
(3.44671e-06 7.5809e-05 0)
(-3.17938e-06 8.82547e-05 0)
(-2.1424e-05 0.000184586 0)
(-4.36808e-05 0.000221606 0)
(-6.40704e-05 0.000219316 0)
(-7.87748e-05 0.000194681 0)
(-8.70017e-05 0.000160756 0)
(-8.95259e-05 0.000126708 0)
(-8.78869e-05 9.78922e-05 0)
(-8.38179e-05 7.67554e-05 0)
(-7.9055e-05 6.42798e-05 0)
(-7.51914e-05 5.97073e-05 0)
(-7.34968e-05 6.10301e-05 0)
(-7.47602e-05 6.62059e-05 0)
(-7.92886e-05 7.3717e-05 0)
(-8.70946e-05 8.21432e-05 0)
(-9.80246e-05 8.99664e-05 0)
(-0.000111763 9.58025e-05 0)
(-0.000127828 9.87403e-05 0)
(-0.000145604 9.84051e-05 0)
(-0.000164411 9.47889e-05 0)
(-0.000183586 8.80497e-05 0)
(-0.000202517 7.84065e-05 0)
(-0.000220666 6.61175e-05 0)
(-0.000237562 5.1475e-05 0)
(-0.000252813 3.47996e-05 0)
(-0.000266097 1.63725e-05 0)
(-0.000277151 -3.6305e-06 0)
(-0.000285732 -2.51297e-05 0)
(-0.00029158 -4.81108e-05 0)
(-0.000294382 -7.26294e-05 0)
(-0.00029372 -9.87581e-05 0)
(-0.000289069 -0.000126345 0)
(-0.000279872 -0.000154961 0)
(-0.000265631 -0.000183914 0)
(-0.000246017 -0.000212251 0)
(-0.000220974 -0.000238803 0)
(-0.000190783 -0.000262307 0)
(-0.000156075 -0.000281569 0)
(-0.000117789 -0.000295565 0)
(-7.7107e-05 -0.000303472 0)
(-3.53745e-05 -0.000304818 0)
(5.99053e-06 -0.000299476 0)
(4.55897e-05 -0.000287712 0)
(8.21266e-05 -0.000270231 0)
(0.000114489 -0.000248047 0)
(0.000141857 -0.000222397 0)
(0.000163779 -0.000194619 0)
(0.000180199 -0.000165997 0)
(0.000191418 -0.00013768 0)
(0.000197985 -0.000110564 0)
(0.000200572 -8.52074e-05 0)
(0.000199865 -6.18332e-05 0)
(0.000196461 -4.04251e-05 0)
(0.000190821 -2.08637e-05 0)
(0.000183279 -3.0547e-06 0)
(0.0001741 1.3037e-05 0)
(0.000163534 2.73663e-05 0)
(0.000151866 3.98272e-05 0)
(0.000139429 5.02446e-05 0)
(0.000126593 5.84311e-05 0)
(0.000113766 6.423e-05 0)
(0.000101394 6.75351e-05 0)
(8.99556e-05 6.83329e-05 0)
(7.99534e-05 6.67064e-05 0)
(7.18848e-05 6.29453e-05 0)
(6.619e-05 5.76681e-05 0)
(6.31866e-05 5.18364e-05 0)
(6.29875e-05 4.67382e-05 0)
(6.54343e-05 4.39642e-05 0)
(7.00468e-05 4.53441e-05 0)
(7.60123e-05 5.27547e-05 0)
(8.21994e-05 6.77095e-05 0)
(8.71878e-05 9.09097e-05 0)
(8.9364e-05 0.00012172 0)
(8.70872e-05 0.000157487 0)
(7.8973e-05 0.000192723 0)
(6.4365e-05 0.000218334 0)
(4.41223e-05 0.000221169 0)
(2.19318e-05 0.000184248 0)
(3.34667e-06 8.82213e-05 0)
(-2.9934e-06 9.88931e-05 0)
(-1.84604e-05 0.000203471 0)
(-3.57224e-05 0.000240305 0)
(-4.96664e-05 0.000233387 0)
(-5.74729e-05 0.000202581 0)
(-5.90987e-05 0.000162706 0)
(-5.58049e-05 0.000124141 0)
(-4.93986e-05 9.25438e-05 0)
(-4.16829e-05 7.03721e-05 0)
(-3.43336e-05 5.85137e-05 0)
(-2.87813e-05 5.59254e-05 0)
(-2.61294e-05 6.0205e-05 0)
(-2.70694e-05 6.88192e-05 0)
(-3.18407e-05 7.9876e-05 0)
(-4.03357e-05 9.17176e-05 0)
(-5.22378e-05 0.000102668 0)
(-6.70888e-05 0.000111179 0)
(-8.43146e-05 0.000116209 0)
(-0.000103255 0.000117294 0)
(-0.000123222 0.000114419 0)
(-0.000143561 0.000107784 0)
(-0.000163678 9.76734e-05 0)
(-0.000183046 8.44183e-05 0)
(-0.0002012 6.8383e-05 0)
(-0.000217767 4.99721e-05 0)
(-0.000232476 2.95408e-05 0)
(-0.000245149 7.31451e-06 0)
(-0.000255646 -1.66282e-05 0)
(-0.000263792 -4.23213e-05 0)
(-0.000269311 -6.99178e-05 0)
(-0.000271763 -9.96251e-05 0)
(-0.000270539 -0.00013139 0)
(-0.000264925 -0.000164789 0)
(-0.000254221 -0.000199027 0)
(-0.000237888 -0.000232928 0)
(-0.000215712 -0.000264982 0)
(-0.0001879 -0.000293545 0)
(-0.000155092 -0.000317062 0)
(-0.000118306 -0.000334204 0)
(-7.88469e-05 -0.000343936 0)
(-3.82004e-05 -0.000345655 0)
(2.06174e-06 -0.000339204 0)
(4.03941e-05 -0.000324921 0)
(7.53703e-05 -0.000303662 0)
(0.000105768 -0.000276684 0)
(0.000130694 -0.000245592 0)
(0.000149696 -0.000212131 0)
(0.000162809 -0.000178013 0)
(0.000170519 -0.000144725 0)
(0.000173621 -0.000113355 0)
(0.000173026 -8.45146e-05 0)
(0.000169581 -5.83549e-05 0)
(0.000163955 -3.47096e-05 0)
(0.00015659 -1.32942e-05 0)
(0.000147732 6.10691e-06 0)
(0.000137517 2.35801e-05 0)
(0.000126077 3.90573e-05 0)
(0.00011363 5.23727e-05 0)
(0.00010048 6.33091e-05 0)
(8.69727e-05 7.16433e-05 0)
(7.34873e-05 7.71752e-05 0)
(6.04363e-05 7.97589e-05 0)
(4.82785e-05 7.93459e-05 0)
(3.75239e-05 7.59924e-05 0)
(2.87092e-05 7.00076e-05 0)
(2.23409e-05 6.20863e-05 0)
(1.88182e-05 5.33495e-05 0)
(1.83532e-05 4.53215e-05 0)
(2.09094e-05 3.98775e-05 0)
(2.6158e-05 3.91698e-05 0)
(3.34664e-05 4.53861e-05 0)
(4.18932e-05 6.03525e-05 0)
(5.01869e-05 8.50405e-05 0)
(5.68248e-05 0.000118982 0)
(6.01225e-05 0.000159486 0)
(5.84595e-05 0.000200654 0)
(5.06663e-05 0.000232412 0)
(3.6701e-05 0.000239918 0)
(1.91207e-05 0.000203534 0)
(3.11289e-06 9.93566e-05 0)
(-2.79063e-06 0.000108022 0)
(-1.5239e-05 0.000218291 0)
(-2.7245e-05 0.000253178 0)
(-3.47177e-05 0.000240868 0)
(-3.6075e-05 0.000204054 0)
(-3.21365e-05 0.000158979 0)
(-2.4589e-05 0.000117026 0)
(-1.53649e-05 8.38839e-05 0)
(-6.20579e-06 6.18935e-05 0)
(1.40541e-06 5.16983e-05 0)
(6.33787e-06 5.19104e-05 0)
(7.79512e-06 5.9759e-05 0)
(5.28128e-06 7.23209e-05 0)
(-1.35767e-06 8.73216e-05 0)
(-1.19228e-05 0.000102832 0)
(-2.59491e-05 0.000116994 0)
(-4.28132e-05 0.000128142 0)
(-6.18207e-05 0.000135152 0)
(-8.22598e-05 0.000137524 0)
(-0.000103446 0.000135263 0)
(-0.000124757 0.000128624 0)
(-0.00014565 0.000117964 0)
(-0.000165634 0.000103679 0)
(-0.000184263 8.62045e-05 0)
(-0.000201175 6.60504e-05 0)
(-0.000216156 4.36894e-05 0)
(-0.000229163 1.94368e-05 0)
(-0.000240233 -6.62238e-06 0)
(-0.000249364 -3.46092e-05 0)
(-0.000256369 -6.48494e-05 0)
(-0.000260808 -9.77507e-05 0)
(-0.000261979 -0.000133432 0)
(-0.000258981 -0.000171552 0)
(-0.000250857 -0.000211243 0)
(-0.000236817 -0.000251073 0)
(-0.00021645 -0.000289123 0)
(-0.000189864 -0.000323277 0)
(-0.000157715 -0.000351531 0)
(-0.000121123 -0.000372189 0)
(-8.15418e-05 -0.00038397 0)
(-4.06167e-05 -0.00038613 0)
(-8.54844e-08 -0.000378475 0)
(3.83424e-05 -0.000361429 0)
(7.30834e-05 -0.000336013 0)
(0.00010278 -0.000303767 0)
(0.000126448 -0.000266709 0)
(0.000143616 -0.000227093 0)
(0.000154429 -0.000187157 0)
(0.000159611 -0.000148816 0)
(0.000160272 -0.000113384 0)
(0.000157621 -8.14689e-05 0)
(0.0001527 -5.30511e-05 0)
(0.00014623 -2.77053e-05 0)
(0.000138571 -4.88864e-06 0)
(0.000129791 1.57983e-05 0)
(0.00011981 3.4507e-05 0)
(0.000108576 5.11039e-05 0)
(9.62048e-05 6.52974e-05 0)
(8.29672e-05 7.68048e-05 0)
(6.92036e-05 8.53668e-05 0)
(5.52558e-05 9.07555e-05 0)
(4.14726e-05 9.27826e-05 0)
(2.82613e-05 9.13407e-05 0)
(1.61146e-05 8.64307e-05 0)
(5.59794e-06 7.83413e-05 0)
(-2.7105e-06 6.78156e-05 0)
(-8.30979e-06 5.61063e-05 0)
(-1.08606e-05 4.49491e-05 0)
(-1.02424e-05 3.64758e-05 0)
(-6.57977e-06 3.31177e-05 0)
(-2.54193e-07 3.73497e-05 0)
(8.07707e-06 5.13043e-05 0)
(1.74462e-05 7.6266e-05 0)
(2.65647e-05 0.000112039 0)
(3.38564e-05 0.000156077 0)
(3.75816e-05 0.00020233 0)
(3.60647e-05 0.000240115 0)
(2.82924e-05 0.000253245 0)
(1.56886e-05 0.000219208 0)
(2.78558e-06 0.000108876 0)
(-2.54048e-06 0.000115478 0)
(-1.14743e-05 0.000228751 0)
(-1.77211e-05 0.000260073 0)
(-1.86271e-05 0.000242041 0)
(-1.41516e-05 0.000200003 0)
(-6.09724e-06 0.000151136 0)
(3.55399e-06 0.000107402 0)
(1.3002e-05 7.42615e-05 0)
(2.07751e-05 5.38197e-05 0)
(2.57573e-05 4.6354e-05 0)
(2.72657e-05 5.00763e-05 0)
(2.49414e-05 6.18841e-05 0)
(1.85914e-05 7.86072e-05 0)
(8.19609e-06 9.76586e-05 0)
(-5.97883e-06 0.000116821 0)
(-2.33519e-05 0.000134008 0)
(-4.31273e-05 0.000147451 0)
(-6.44717e-05 0.000156013 0)
(-8.66251e-05 0.000159234 0)
(-0.000108935 0.00015718 0)
(-0.000130865 0.000150191 0)
(-0.000151966 0.000138693 0)
(-0.000171813 0.000123123 0)
(-0.000189966 0.000103965 0)
(-0.000206047 8.18549e-05 0)
(-0.0002199 5.74607e-05 0)
(-0.000231659 3.12692e-05 0)
(-0.000241641 3.40103e-06 0)
(-0.000250122 -2.63913e-05 0)
(-0.000257109 -5.87181e-05 0)
(-0.000262199 -9.42999e-05 0)
(-0.000264573 -0.000133543 0)
(-0.000263091 -0.000176276 0)
(-0.000256487 -0.000221592 0)
(-0.000243647 -0.000267773 0)
(-0.000223908 -0.000312406 0)
(-0.000197264 -0.00035278 0)
(-0.000164414 -0.000386329 0)
(-0.000126624 -0.000410912 0)
(-8.55238e-05 -0.000424988 0)
(-4.29189e-05 -0.000427671 0)
(-6.96249e-07 -0.000418727 0)
(3.92817e-05 -0.000398667 0)
(7.52632e-05 -0.000368678 0)
(0.000105717 -0.000330621 0)
(0.000129512 -0.000286984 0)
(0.00014612 -0.00024064 0)
(0.000155795 -0.000194502 0)
(0.000159571 -0.000151038 0)
(0.000158977 -0.000111818 0)
(0.000155612 -7.73816e-05 0)
(0.000150761 -4.73879e-05 0)
(0.000145166 -2.09816e-05 0)
(0.000139009 2.77398e-06 0)
(0.00013205 2.45371e-05 0)
(0.000123864 4.45222e-05 0)
(0.000114132 6.24526e-05 0)
(0.000102832 7.78133e-05 0)
(9.0232e-05 9.01855e-05 0)
(7.67054e-05 9.92796e-05 0)
(6.25631e-05 0.000104887 0)
(4.80533e-05 0.000106797 0)
(3.34798e-05 0.000104812 0)
(1.92844e-05 9.88407e-05 0)
(6.05395e-06 8.90936e-05 0)
(-5.54719e-06 7.63208e-05 0)
(-1.49004e-05 6.18698e-05 0)
(-2.15272e-05 4.76575e-05 0)
(-2.51284e-05 3.6028e-05 0)
(-2.55927e-05 2.9636e-05 0)
(-2.29971e-05 3.11929e-05 0)
(-1.76253e-05 4.31033e-05 0)
(-1.00251e-05 6.69722e-05 0)
(-1.06784e-06 0.000102951 0)
(8.00042e-06 0.000148828 0)
(1.5536e-05 0.00019872 0)
(1.95246e-05 0.000241816 0)
(1.81303e-05 0.000260897 0)
(1.15025e-05 0.000230465 0)
(2.47701e-06 0.000116559 0)
(-2.16671e-06 0.00012089 0)
(-6.54637e-06 0.000234165 0)
(-6.03385e-06 0.000260576 0)
(-1.31224e-07 0.000237215 0)
(9.30986e-06 0.000191617 0)
(1.94829e-05 0.000141277 0)
(2.8352e-05 9.79711e-05 0)
(3.46511e-05 6.67035e-05 0)
(3.7494e-05 4.92519e-05 0)
(3.63598e-05 4.54866e-05 0)
(3.11866e-05 5.31951e-05 0)
(2.21887e-05 6.90312e-05 0)
(9.54723e-06 8.97459e-05 0)
(-6.61822e-06 0.000112576 0)
(-2.60142e-05 0.000135027 0)
(-4.79734e-05 0.00015472 0)
(-7.15111e-05 0.000169758 0)
(-9.56236e-05 0.000179077 0)
(-0.000119511 0.000182357 0)
(-0.000142614 0.000179814 0)
(-0.000164569 0.000171902 0)
(-0.000185101 0.000159096 0)
(-0.000203879 0.000141805 0)
(-0.000220437 0.000120508 0)
(-0.000234316 9.5988e-05 0)
(-0.000245375 6.92336e-05 0)
(-0.000253987 4.10477e-05 0)
(-0.000260875 1.16585e-05 0)
(-0.000266752 -1.93518e-05 0)
(-0.000271938 -5.30175e-05 0)
(-0.000276132 -9.05656e-05 0)
(-0.000278378 -0.000132861 0)
(-0.000277237 -0.000180009 0)
(-0.000271052 -0.000231109 0)
(-0.000258286 -0.000284128 0)
(-0.000237946 -0.000336035 0)
(-0.000209927 -0.000383338 0)
(-0.000175039 -0.000422769 0)
(-0.000134758 -0.000451686 0)
(-9.08997e-05 -0.000468291 0)
(-4.54056e-05 -0.000471586 0)
(-2.53971e-07 -0.000461308 0)
(4.25995e-05 -0.000438037 0)
(8.12623e-05 -0.000403101 0)
(0.000113991 -0.000358669 0)
(0.00013941 -0.000307749 0)
(0.000156835 -0.000253977 0)
(0.00016661 -0.000201166 0)
(0.000170164 -0.000152532 0)
(0.000169616 -0.00010995 0)
(0.000167102 -7.37762e-05 0)
(0.000164185 -4.31214e-05 0)
(0.000161569 -1.64515e-05 0)
(0.000159122 7.76113e-06 0)
(0.000156108 3.05277e-05 0)
(0.000151575 5.20919e-05 0)
(0.000144823 7.18899e-05 0)
(0.000135709 8.90132e-05 0)
(0.000124588 0.000102791 0)
(0.00011194 0.00011294 0)
(9.804e-05 0.00011937 0)
(8.29648e-05 0.000121897 0)
(6.68257e-05 0.000120207 0)
(4.99649e-05 0.000114032 0)
(3.30052e-05 0.000103427 0)
(1.67372e-05 8.90929e-05 0)
(1.91672e-06 7.24597e-05 0)
(-1.08477e-05 5.55887e-05 0)
(-2.10921e-05 4.09871e-05 0)
(-2.8474e-05 3.14607e-05 0)
(-3.27378e-05 2.98696e-05 0)
(-3.37116e-05 3.88055e-05 0)
(-3.13814e-05 6.01503e-05 0)
(-2.59883e-05 9.44195e-05 0)
(-1.81383e-05 0.000139868 0)
(-8.98723e-06 0.000191122 0)
(-4.36121e-07 0.00023775 0)
(5.15151e-06 0.000261974 0)
(6.05605e-06 0.000236001 0)
(2.11636e-06 0.00012211 0)
(-1.48385e-06 0.000123439 0)
(7.10465e-07 0.000233127 0)
(9.67583e-06 0.00025386 0)
(2.26666e-05 0.000226828 0)
(3.5597e-05 0.000180619 0)
(4.49556e-05 0.000132275 0)
(4.91726e-05 9.22989e-05 0)
(4.80519e-05 6.50628e-05 0)
(4.1661e-05 5.20195e-05 0)
(3.03254e-05 5.26589e-05 0)
(1.48154e-05 6.43849e-05 0)
(-3.91805e-06 8.3783e-05 0)
(-2.52786e-05 0.000107802 0)
(-4.91098e-05 0.000133694 0)
(-7.52268e-05 0.00015869 0)
(-0.00010292 0.000179987 0)
(-0.000130944 0.000195511 0)
(-0.000158049 0.000204347 0)
(-0.000183407 0.000206499 0)
(-0.000206646 0.000202467 0)
(-0.000227711 0.000192857 0)
(-0.00024663 0.000178144 0)
(-0.000263227 0.000158568 0)
(-0.000276944 0.00013447 0)
(-0.000287079 0.000106793 0)
(-0.000293414 7.70592e-05 0)
(-0.000296634 4.66459e-05 0)
(-0.000298059 1.60128e-05 0)
(-0.000299026 -1.54879e-05 0)
(-0.000300322 -4.95009e-05 0)
(-0.000301811 -8.80312e-05 0)
(-0.0003024 -0.000132637 0)
(-0.000300302 -0.000183843 0)
(-0.00029338 -0.000240827 0)
(-0.000279549 -0.000301223 0)
(-0.000257398 -0.000361176 0)
(-0.00022675 -0.000416142 0)
(-0.000188647 -0.00046198 0)
(-0.000144869 -0.000495541 0)
(-9.74206e-05 -0.000514832 0)
(-4.82961e-05 -0.000518811 0)
(5.61081e-07 -0.000507227 0)
(4.72342e-05 -0.000480689 0)
(8.97753e-05 -0.000440583 0)
(0.000126211 -0.000389284 0)
(0.000154784 -0.000330328 0)
(0.000174475 -0.000268292 0)
(0.000185629 -0.000208226 0)
(0.000190188 -0.00015442 0)
(0.000191101 -0.000109144 0)
(0.000191233 -7.23639e-05 0)
(0.000192461 -4.22835e-05 0)
(0.000195339 -1.63485e-05 0)
(0.000199232 7.81605e-06 0)
(0.00020268 3.17011e-05 0)