/*--------------------------------*- C++ -*----------------------------------*\
| =========                 |                                                 |
| \\      /  F ield         | OpenFOAM: The Open Source CFD Toolbox           |
|  \\    /   O peration     | Version:  2412                                  |
|   \\  /    A nd           | Website:  www.openfoam.com                      |
|    \\/     M anipulation  |                                                 |
\*---------------------------------------------------------------------------*/
FoamFile
{
    version     2.0;
    format      ascii;
    arch        "LSB;label=32;scalar=64";
    class       volScalarField;
    location    "5.2";
    object      p;
}
// * * * * * * * * * * * * * * * * * * * * * * * * * * * * * * * * * * * * * //

dimensions      [1 -1 -2 0 0 0 0];

internalField   nonuniform List<scalar> 
6400
(
9524.43
9525.49
9527.56
9530.62
9534.6
9539.4
9544.94
9551.1
9557.75
9564.76
9571.99
9579.32
9586.63
9593.79
9600.71
9607.3
9613.49
9619.23
9624.48
9629.22
9633.46
9637.2
9640.48
9643.33
9645.8
9647.93
9649.79
9651.42
9652.87
9654.19
9655.41
9656.56
9657.67
9658.75
9659.8
9660.82
9661.8
9662.73
9663.59
9664.36
9665.04
9665.61
9666.06
9666.38
9666.57
9666.62
9666.53
9666.27
9665.84
9665.22
9664.39
9663.3
9661.92
9660.26
9658.27
9655.9
9653.13
9649.93
9646.29
9642.17
9637.59
9632.54
9627.05
9621.13
9614.84
9608.23
9601.34
9594.29
9587.17
9580.07
9573.11
9566.4
9560.07
9554.22
9548.98
9544.44
9540.69
9537.82
9535.87
9534.87
9032.86
9033.94
9036.06
9039.19
9043.25
9048.16
9053.81
9060.1
9066.88
9074.02
9081.39
9088.84
9096.26
9103.52
9110.53
9117.19
9123.43
9129.2
9134.47
9139.21
9143.44
9147.16
9150.4
9153.2
9155.62
9157.7
9159.5
9161.09
9162.5
9163.78
9164.97
9166.1
9167.21
9168.28
9169.34
9170.36
9171.35
9172.29
9173.16
9173.95
9174.64
9175.22
9175.68
9176.01
9176.21
9176.27
9176.19
9175.95
9175.54
9174.94
9174.13
9173.06
9171.72
9170.09
9168.12
9165.79
9163.04
9159.87
9156.24
9152.13
9147.54
9142.48
9136.96
9131
9124.64
9117.94
9111
9103.86
9096.63
9089.42
9082.34
9075.52
9069.06
9063.11
9057.76
9053.13
9049.31
9046.37
9044.38
9043.37
8540.21
8541.33
8543.54
8546.8
8551.03
8556.15
8562.04
8568.59
8575.64
8583.06
8590.69
8598.4
8606.05
8613.52
8620.7
8627.5
8633.85
8639.68
8644.98
8649.72
8653.91
8657.56
8660.73
8663.44
8665.75
8667.73
8669.43
8670.91
8672.24
8673.45
8674.59
8675.69
8676.77
8677.84
8678.9
8679.94
8680.95
8681.92
8682.81
8683.63
8684.34
8684.94
8685.42
8685.77
8685.99
8686.07
8686.01
8685.79
8685.42
8684.86
8684.09
8683.09
8681.79
8680.23
8678.33
8676.05
8673.37
8670.24
8666.64
8662.55
8657.96
8652.87
8647.3
8641.26
8634.8
8627.97
8620.85
8613.52
8606.08
8598.64
8591.32
8584.25
8577.55
8571.37
8565.81
8560.99
8557.02
8553.97
8551.9
8550.84
8046.41
8047.61
8049.95
8053.41
8057.91
8063.35
8069.61
8076.55
8084.02
8091.86
8099.91
8108.01
8116.02
8123.81
8131.25
8138.26
8144.76
8150.69
8156.03
8160.76
8164.89
8168.45
8171.49
8174.05
8176.2
8178
8179.54
8180.89
8182.08
8183.18
8184.24
8185.28
8186.33
8187.39
8188.47
8189.54
8190.59
8191.6
8192.54
8193.4
8194.15
8194.78
8195.29
8195.66
8195.9
8196
8195.97
8195.8
8195.47
8194.97
8194.28
8193.39
8192.12
8190.67
8188.88
8186.7
8184.11
8181.05
8177.51
8173.46
8168.87
8163.75
8158.09
8151.94
8145.31
8138.28
8130.9
8123.28
8115.51
8107.72
8100.03
8092.59
8085.52
8078.98
8073.1
8068
8063.79
8060.56
8058.37
8057.25
7551.41
7552.7
7555.23
7558.97
7563.83
7569.71
7576.48
7583.97
7592.02
7600.45
7609.06
7617.7
7626.21
7634.42
7642.23
7649.53
7656.23
7662.29
7667.68
7672.38
7676.42
7679.85
7682.7
7685.04
7686.96
7688.53
7689.83
7691.01
7692
7692.95
7693.89
7694.86
7695.87
7696.93
7698.03
7699.15
7700.26
7701.34
7702.34
7703.26
7704.06
7704.73
7705.27
7705.67
7705.93
7706.07
7706.07
7705.94
7705.68
7705.26
7704.66
7703.86
7702.79
7701.45
7699.79
7697.75
7695.28
7692.34
7688.88
7684.87
7680.29
7675.13
7669.38
7663.07
7656.23
7648.91
7641.2
7633.18
7624.96
7616.69
7608.49
7600.52
7592.95
7585.92
7579.59
7574.1
7569.57
7566.09
7563.73
7562.53
7055.1
7056.52
7059.29
7063.37
7068.7
7075.16
7082.6
7090.82
7099.63
7108.82
7118.18
7127.52
7136.66
7145.43
7153.71
7161.37
7168.33
7174.55
7179.98
7184.64
7188.56
7191.78
7194.38
7196.44
7198.05
7199.31
7200.32
7201.18
7201.94
7202.7
7203.5
7204.38
7205.36
7206.43
7207.57
7208.76
7209.95
7211.12
7212.22
7213.21
7214.08
7214.8
7215.37
7215.79
7216.08
7216.24
7216.29
7216.22
7216.03
7215.71
7215.23
7214.58
7213.69
7212.52
7211.05
7209.19
7206.9
7204.11
7200.77
7196.84
7192.29
7187.08
7181.22
7174.72
7167.61
7159.93
7151.78
7143.25
7134.46
7125.55
7116.69
7108.05
7099.81
7092.14
7085.22
7079.23
7074.28
7070.48
7067.91
7066.6
6557.37
6558.94
6562
6566.51
6572.43
6579.63
6587.91
6597.06
6606.83
6616.99
6627.29
6637.51
6647.45
6656.92
6665.78
6673.89
6681.16
6687.55
6693.03
6697.62
6701.35
6704.31
6706.57
6708.25
6709.45
6710.31
6710.92
6711.41
6711.88
6712.39
6713.02
6713.8
6714.74
6715.83
6717.04
6718.33
6719.65
6720.95
6722.17
6723.27
6724.21
6724.98
6725.59
6726.03
6726.34
6726.52
6726.6
6726.59
6726.49
6726.28
6725.96
6725.49
6724.83
6723.87
6722.65
6721.04
6718.97
6716.39
6713.22
6709.4
6704.9
6699.66
6693.68
6686.96
6679.52
6671.41
6662.72
6653.55
6644.04
6634.35
6624.65
6615.16
6606.06
6597.58
6589.92
6583.28
6577.81
6573.63
6570.8
6569.35
6058.07
6059.82
6063.21
6068.24
6074.88
6082.99
6092.34
6102.64
6113.62
6124.98
6136.44
6147.75
6158.67
6169
6178.56
6187.2
6194.84
6201.42
6206.93
6211.4
6214.89
6217.48
6219.31
6220.49
6221.17
6221.49
6221.6
6221.64
6221.72
6221.94
6222.36
6223.03
6223.94
6225.08
6226.4
6227.84
6229.34
6230.81
6232.2
6233.43
6234.47
6235.3
6235.93
6236.37
6236.67
6236.86
6236.97
6237.01
6237.01
6236.94
6236.8
6236.55
6236.14
6235.51
6234.58
6233.28
6231.52
6229.2
6226.26
6222.61
6218.19
6212.95
6206.85
6199.88
6192.06
6183.44
6174.1
6164.16
6153.77
6143.11
6132.38
6121.82
6111.67
6102.17
6093.59
6086.15
6080.05
6075.41
6072.26
6070.64
5557.01
5558.98
5562.75
5568.34
5575.85
5585.1
5595.77
5607.52
5619.98
5632.81
5645.69
5658.33
5670.44
5681.8
5692.19
5701.47
5709.53
5716.31
5721.82
5726.11
5729.25
5731.37
5732.62
5733.16
5733.17
5732.82
5732.3
5731.78
5731.39
5731.25
5731.42
5731.97
5732.87
5734.09
5735.58
5737.25
5738.99
5740.71
5742.31
5743.71
5744.86
5745.75
5746.38
5746.8
5747.07
5747.23
5747.35
5747.44
5747.53
5747.62
5747.7
5747.72
5747.63
5747.36
5746.82
5745.92
5744.54
5742.59
5739.95
5736.54
5732.26
5727.04
5720.83
5713.6
5705.36
5696.14
5686.03
5675.17
5663.71
5651.88
5639.9
5628.04
5616.58
5605.82
5596.09
5587.69
5580.83
5575.66
5572.14
5570.32
5053.97
5056.25
5060.4
5066.56
5075.08
5085.79
5098.1
5111.61
5125.89
5140.52
5155.12
5169.36
5182.91
5195.49
5206.88
5216.89
5225.41
5232.4
5237.86
5241.88
5244.56
5246.06
5246.57
5246.29
5245.44
5244.24
5242.93
5241.71
5240.74
5240.16
5240.06
5240.48
5241.4
5242.78
5244.51
5246.49
5248.57
5250.62
5252.52
5254.14
5255.43
5256.35
5256.95
5257.3
5257.48
5257.58
5257.67
5257.79
5257.98
5258.24
5258.57
5258.91
5259.21
5259.39
5259.35
5258.94
5258.06
5256.56
5254.33
5251.24
5247.17
5242.04
5235.75
5228.25
5219.54
5209.65
5198.65
5186.69
5173.96
5160.71
5147.23
5133.79
5120.72
5108.4
5097.26
5087.68
5079.92
5074.2
5070.27
5068.16
4548.67
4551.55
4555.97
4562.6
4572.24
4584.89
4599.18
4614.86
4631.36
4648.16
4664.82
4680.96
4696.23
4710.28
4722.83
4733.69
4742.72
4749.89
4755.24
4758.87
4760.93
4761.62
4761.18
4759.86
4757.94
4755.68
4753.38
4751.28
4749.6
4748.5
4748.09
4748.39
4749.39
4751
4753.09
4755.49
4758.04
4760.55
4762.83
4764.74
4766.18
4767.12
4767.62
4767.82
4767.85
4767.82
4767.83
4767.96
4768.24
4768.69
4769.3
4770.03
4770.8
4771.52
4772.1
4772.32
4772.06
4771.16
4769.46
4766.8
4763.05
4758.07
4751.75
4744
4734.8
4724.14
4712.11
4698.86
4684.61
4669.68
4654.39
4639.05
4624.03
4609.76
4596.87
4585.89
4577.1
4570.9
4566.52
4563.89
4041.19
4045.23
4049.11
4056.08
4066.48
4082.13
4098.68
4117.06
4136.3
4155.72
4174.86
4193.29
4210.61
4226.41
4240.33
4252.16
4261.73
4269.05
4274.18
4277.27
4278.52
4278.16
4276.51
4273.88
4270.61
4267.02
4263.49
4260.31
4257.75
4256.03
4255.26
4255.48
4256.63
4258.58
4261.17
4264.17
4267.35
4270.47
4273.27
4275.54
4277.14
4278.05
4278.38
4278.32
4278.09
4277.85
4277.72
4277.81
4278.17
4278.82
4279.76
4280.94
4282.29
4283.69
4284.99
4286.01
4286.54
4286.38
4285.36
4283.29
4279.98
4275.27
4269
4261.04
4251.33
4239.84
4226.62
4211.84
4195.78
4178.83
4161.39
4143.78
4126.36
4109.59
4094.59
4082.01
4072.18
4065.57
4060.83
4057.34
3531.89
3538.22
3540.38
3546.85
3557.87
3574.74
3595.66
3617.86
3640.6
3663.24
3685.36
3706.54
3726.34
3744.24
3759.74
3772.68
3782.8
3790.18
3794.96
3797.3
3797.48
3795.79
3792.62
3788.34
3783.38
3778.1
3773.03
3768.51
3764.88
3762.41
3761.25
3761.43
3762.85
3765.31
3768.59
3772.39
3776.4
3780.3
3783.75
3786.47
3788.26
3789.09
3789.12
3788.67
3788.05
3787.49
3787.16
3787.17
3787.59
3788.45
3789.75
3791.46
3793.5
3795.72
3797.95
3799.95
3801.46
3802.25
3802.1
3800.78
3798.09
3793.8
3787.7
3779.62
3769.42
3757.06
3742.49
3725.89
3707.66
3688.29
3668.25
3647.88
3627.48
3607.03
3589.35
3574.82
3563.98
3558.3
3554.23
3549.13
3017.32
3022.69
3026.63
3031.21
3045.64
3064.39
3090.4
3117.31
3144.5
3170.96
3196.56
3221.01
3243.8
3264.26
3281.53
3295.73
3306.34
3313.67
3317.91
3319.26
3318.05
3314.67
3309.57
3303.23
3296.12
3288.76
3281.74
3275.54
3270.58
3267.23
3265.66
3265.88
3267.73
3270.91
3275.1
3279.93
3285
3289.87
3294.1
3297.37
3299.4
3300.08
3299.66
3298.62
3297.46
3296.51
3295.94
3295.82
3296.26
3297.31
3299.02
3301.35
3304.22
3307.46
3310.85
3314.08
3316.82
3318.79
3319.72
3319.39
3317.53
3313.86
3308.1
3299.99
3289.34
3276.11
3260.1
3241.38
3220.49
3198.2
3175.14
3151.53
3127.12
3101.49
3080.36
3063.6
3051
3044.74
3042.77
3037.88
2488.86
2481.05
2482.86
2501.98
2529.74
2553.72
2581.04
2614.22
2647.38
2678.7
2708.41
2736.67
2762.99
2786.64
2807.04
2821.65
2832.56
2839.74
2843.26
2843.34
2840.37
2834.87
2827.38
2818.46
2808.71
2798.71
2789.25
2780.93
2774.34
2769.91
2767.91
2768.31
2770.82
2774.97
2780.37
2786.51
2792.91
2799.03
2804.29
2808.28
2810.58
2810.97
2809.85
2807.95
2806.02
2804.53
2803.62
2803.36
2803.81
2805.07
2807.2
2810.25
2814.13
2818.66
2823.51
2828.3
2832.56
2835.93
2838.16
2839.03
2838.25
2835.47
2830.28
2822.27
2811.21
2796.71
2779.05
2758.01
2734.06
2708.3
2681.66
2654.09
2624.73
2592.96
2568.48
2549.02
2528.28
2512.94
2508.48
2513.51
1953.76
1927.67
1924.36
1964.28
2010.41
2037.98
2067.25
2106.65
2146.54
2184.14
2219.69
2253.08
2283.55
2310.24
2333.57
2348.93
2360.8
2368.29
2371.17
2369.78
2364.69
2356.57
2346.1
2333.96
2320.88
2307.65
2295.2
2284.32
2275.71
2269.96
2267.47
2268.25
2271.83
2277.3
2284.43
2292.36
2300.6
2308.34
2314.82
2319.59
2322.12
2321.99
2319.76
2316.53
2313.54
2311.48
2310.28
2309.72
2310.01
2311.36
2313.96
2317.9
2323.08
2329.21
2335.83
2342.5
2348.59
2353.57
2357.24
2359.51
2360.1
2358.46
2353.86
2345.6
2333.39
2317.42
2298.4
2275.44
2248.14
2217.73
2185.77
2152.96
2118.41
2082.04
2053.87
2031.58
1996.59
1960.67
1956.03
1979.94
1432.42
1405.08
1399.43
1439.15
1493.27
1515.87
1549.21
1596.29
1643.35
1687.56
1730.44
1770.77
1806.48
1835.74
1858.76
1876.93
1890.88
1899.3
1901.71
1898.6
1890.79
1879.25
1865.02
1849.03
1832.12
1815.23
1799.37
1785.47
1774.4
1767.01
1763.95
1765.45
1770.84
1779
1788.23
1798.5
1809.03
1818.57
1826.29
1832.13
1835.28
1834.72
1830.79
1825.2
1820.36
1817.22
1815.48
1814.53
1814.49
1815.82
1818.82
1823.75
1830.55
1838.77
1847.63
1856.53
1864.37
1870.81
1875.98
1880.14
1882.83
1882.99
1879.38
1870.99
1857.79
1841.75
1821.49
1796.05
1764.32
1727.5
1688.83
1650.3
1610.2
1567.5
1535.55
1513.2
1472.43
1423.75
1429.77
1458.6
921.285
903.972
914.969
950.673
985.662
1000.71
1034.39
1088.82
1144.7
1196.79
1247.27
1295.07
1337.08
1369.67
1391.39
1413.48
1428.62
1436.73
1437.68
1431.97
1420.46
1404.48
1385.46
1364.69
1343.06
1321.67
1301.48
1283.38
1268.49
1258.37
1254.45
1257.37
1266.13
1279.35
1290.23
1301.39
1312.91
1323.69
1333.45
1342.17
1346.94
1345.9
1340.39
1332.97
1327.17
1323.41
1320.72
1318.36
1316.8
1317.18
1320.47
1327.03
1336.35
1347.47
1359.22
1371.2
1380.81
1388.69
1395.76
1402.81
1409
1412.38
1411.34
1404.9
1392.08
1377.43
1355.15
1325.38
1287.14
1243.08
1197.96
1153.26
1105.2
1053.63
1017.62
1003.39
972.867
940.39
931.621
951.531
407.41
400.705
422.45
460.38
483.678
493.536
520.388
573.616
641.741
710.637
773.91
829.695
878.825
918.044
946.937
967.11
980.052
985.318
982.722
972.805
956.471
935.108
909.795
882.288
853.871
825.979
799.474
775.256
754.905
741.019
735.218
738.462
749.516
763.129
777.327
790.249
804.017
818.729
833.812
846.98
851.517
845.609
834.568
823.734
821.44
822.639
820.62
816.882
812.122
810.308
814.755
825.586
839.604
854.402
869.836
885.486
899.517
911.161
921.319
931.46
941.511
949.469
953.025
951.999
947.332
929.434
901.585
863.748
817.998
767.622
713.866
657.568
597.61
539.636
506.175
497.88
478.584
447.496
432.622
442.118
62.5393
61.6047
73.5614
93.8652
106.014
108.818
113.713
139.142
188.26
248.851
312.968
375.091
430.725
476.426
506.461
529.557
541.374
542.579
534.417
518.222
495.378
467.713
439.112
409.772
378.478
346.881
317.609
290.898
268.446
253.83
244.84
242.836
252.843
273.599
293.154
309.766
326.021
342.088
358.939
373.918
376.045
361.67
335.442
314.36
312.189
316.179
322.203
321.747
317.267
315.278
323.337
338.608
354.207
368.82
385.27
404.144
422.506
438.093
450.629
461.8
475.457
489.776
498.861
502.597
505.472
491.492
458.692
411.931
360.738
309.834
259.094
209.081
160.291
122.502
109.648
107.561
99.2775
82.0059
74.4573
78.3491
-8.003
-7.98616
-8.01534
-7.92704
-7.9105
-8.24225
-8.47256
-7.71264
-0.322986
13.3192
34.8785
69.8298
114.193
153.753
178.344
189.356
187.989
180.194
167.408
151.703
134.09
114.684
98.429
83.8342
68.1059
53.3749
41.031
30.8895
23.8083
20.0118
14.1511
8.46999
9.42475
16.4911
26.9782
36.0204
42.9393
50.1457
59.8439
72.7066
78.0726
72.1121
52.9927
39.5156
36.176
34.5953
36.0991
36.5648
36.1656
37.8705
42.4101
49.3548
56.024
61.9369
69.0506
77.8921
86.7159
94.1854
100.126
105.63
115.487
129.947
143.661
152.954
155.165
148.656
127.763
97.5966
63.7508
35.731
16.5268
4.0665
-5.22155
-7.96804
-8.07588
-7.9773
-8.00108
-7.984
-7.96676
-8.00572
-8.60156
-8.62326
-8.71268
-8.73959
-8.75391
-9.05336
-9.32851
-9.55908
-9.87341
-9.86611
-9.76292
-9.79762
-9.53526
-6.0836
-0.851887
3.00887
2.57739
0.531028
-2.19049
-4.90937
-7.22412
-8.86734
-9.59532
-9.70132
-9.72675
-9.7883
-9.75019
-9.73846
-9.84721
-10.0074
-9.88765
-9.01685
-8.86233
-9.3411
-9.52349
-9.51501
-9.47607
-9.44435
-9.40956
-9.45528
-9.65303
-9.6859
-9.48142
-9.29404
-9.62442
-9.94088
-10.2981
-10.9871
-11.6871
-11.3199
-10.5277
-10.1766
-10.0229
-9.89943
-9.74162
-9.68858
-9.73917
-9.72413
-9.5731
-9.34369
-8.78838
-7.65618
-6.63396
-6.03672
-5.87028
-7.42658
-9.7081
-9.76473
-9.56691
-9.49061
-9.37539
-9.26204
-9.24378
-8.96291
-8.80974
-8.6904
-8.61801
-8.55781
-8.51772
-8.54109
-9.31172
-9.38331
-9.48046
-9.53834
-9.58444
-9.82127
-10.1917
-10.4705
-10.5895
-10.522
-10.4393
-10.5668
-10.7505
-10.8972
-10.945
-10.9576
-10.9379
-10.8924
-10.8299
-10.769
-10.7046
-10.6156
-10.5356
-10.5242
-10.5492
-10.54
-10.4729
-10.4119
-10.4042
-10.3901
-10.1683
-9.77214
-9.87039
-10.0791
-10.0702
-9.9971
-9.93044
-9.88787
-9.92575
-10.1245
-10.2658
-10.3843
-10.3207
-10.2246
-10.4381
-10.6991
-10.8662
-11.1158
-11.3023
-11.3449
-11.1681
-10.8796
-10.6431
-10.5139
-10.459
-10.4613
-10.4831
-10.4839
-10.4675
-10.4084
-10.3169
-10.2866
-10.3091
-10.3083
-10.2788
-10.2557
-10.234
-10.2536
-10.1622
-10.0579
-9.95816
-9.87182
-9.73805
-9.52833
-9.40449
-9.33518
-9.28716
-9.22962
-9.17495
-9.14949
-10.0493
-10.1128
-10.1341
-10.2019
-10.3025
-10.7321
-11.1735
-11.3831
-11.4386
-11.319
-11.1308
-11.1104
-11.2242
-11.347
-11.4359
-11.4702
-11.4554
-11.4186
-11.3545
-11.2844
-11.2041
-11.116
-11.0444
-11.022
-11.0376
-11.0464
-11.0245
-10.9811
-10.9304
-10.8583
-10.7297
-10.5888
-10.6138
-10.6163
-10.5463
-10.4328
-10.3261
-10.2398
-10.2996
-10.4982
-10.7368
-10.9331
-10.9667
-10.992
-11.1622
-11.3754
-11.5765
-11.7493
-11.8127
-11.7072
-11.4972
-11.2464
-11.0459
-10.9474
-10.9481
-10.988
-11.0233
-11.0278
-11.0062
-10.9684
-10.9332
-10.9197
-10.8962
-10.863
-10.816
-10.7378
-10.6518
-10.6174
-10.5994
-10.5442
-10.473
-10.3981
-10.2887
-10.1439
-10.0203
-9.97131
-9.98319
-9.9371
-9.84753
-9.77647
-10.7954
-10.7995
-10.7271
-10.7568
-10.9477
-11.5748
-12.0883
-12.2186
-12.2144
-12.0483
-11.7829
-11.6693
-11.7139
-11.7855
-11.8432
-11.8701
-11.8672
-11.841
-11.8108
-11.7636
-11.6953
-11.6066
-11.5397
-11.5413
-11.59
-11.6233
-11.6049
-11.5471
-11.4736
-11.391
-11.3048
-11.2223
-11.1821
-11.1252
-11.0111
-10.8563
-10.7264
-10.6089
-10.6458
-10.8065
-11.0449
-11.29
-11.4387
-11.583
-11.7654
-11.9147
-12.0338
-12.1287
-12.1803
-12.1416
-11.9792
-11.7657
-11.594
-11.5177
-11.5149
-11.5516
-11.5998
-11.5969
-11.5617
-11.5108
-11.4587
-11.4062
-11.3678
-11.3325
-11.2982
-11.2437
-11.1781
-11.1194
-11.0683
-11.0152
-10.957
-10.896
-10.8229
-10.7322
-10.6383
-10.5964
-10.6082
-10.5896
-10.5038
-10.4354
-11.5119
-11.4983
-11.4038
-11.3505
-11.5493
-12.1767
-12.7584
-12.8805
-12.7791
-12.5644
-12.3193
-12.1786
-12.1803
-12.2364
-12.2823
-12.3078
-12.3133
-12.3065
-12.2951
-12.2743
-12.2294
-12.157
-12.1029
-12.1159
-12.1816
-12.2317
-12.2106
-12.1419
-12.0581
-11.9655
-11.8673
-11.7751
-11.702
-11.5951
-11.4315
-11.256
-11.1017
-11.0096
-11.0497
-11.2315
-11.4896
-11.7585
-11.9818
-12.1851
-12.3745
-12.5103
-12.6119
-12.6957
-12.7437
-12.7096
-12.579
-12.4139
-12.3131
-12.3047
-12.3262
-12.304
-12.258
-12.2018
-12.1305
-12.056
-11.9832
-11.9167
-11.8615
-11.8159
-11.7742
-11.7218
-11.662
-11.6057
-11.5562
-11.508
-11.4563
-11.4026
-11.3473
-11.2942
-11.2466
-11.226
-11.2347
-11.2168
-11.1419
-11.0854
-12.166
-12.1823
-12.1466
-12.1037
-12.2206
-12.619
-13.0584
-13.1797
-13.0565
-12.8663
-12.7148
-12.6365
-12.6414
-12.6942
-12.7389
-12.7671
-12.7816
-12.7886
-12.7976
-12.8155
-12.8336
-12.8097
-12.7665
-12.7831
-12.8505
-12.8917
-12.857
-12.7748
-12.6787
-12.5698
-12.4462
-12.3203
-12.1976
-12.0477
-11.8646
-11.6694
-11.5161
-11.4555
-11.542
-11.7703
-12.0622
-12.3511
-12.6006
-12.8155
-12.9877
-13.1082
-13.1969
-13.2722
-13.3298
-13.3268
-13.2392
-13.1248
-13.1066
-13.1989
-13.291
-13.2512
-13.0495
-12.8457
-12.7165
-12.6223
-12.5381
-12.4657
-12.3971
-12.3367
-12.2851
-12.2338
-12.1762
-12.1189
-12.0677
-12.0216
-11.974
-11.9269
-11.8841
-11.8533
-11.8437
-11.8628
-11.8763
-11.8231
-11.7512
-11.7391
-12.7755
-12.8243
-12.8575
-12.8811
-12.9712
-13.1633
-13.3389
-13.3486
-13.2382
-13.1352
-13.0851
-13.0796
-13.111
-13.1638
-13.2088
-13.2397
-13.2605
-13.2757
-13.2972
-13.3462
-13.4248
-13.4824
-13.4622
-13.5001
-13.5795
-13.5911
-13.5197
-13.4172
-13.3068
-13.1832
-13.0439
-12.8881
-12.7228
-12.5531
-12.3704
-12.1757
-12.02
-11.9909
-12.1331
-12.3976
-12.6961
-12.9786
-13.23
-13.4398
-13.594
-13.6994
-13.7707
-13.8278
-13.8806
-13.8961
-13.8297
-13.7388
-13.7639
-13.8856
-14.0422
-14.1004
-13.9065
-13.5655
-13.3208
-13.1896
-13.0932
-13.0031
-12.9223
-12.8536
-12.8001
-12.7598
-12.7158
-12.6554
-12.5948
-12.547
-12.502
-12.4601
-12.4259
-12.4069
-12.4111
-12.4393
-12.43
-12.3564
-12.3178
-12.3453
-13.3619
-13.4305
-13.4762
-13.5601
-13.6862
-13.8025
-13.814
-13.7157
-13.5916
-13.5283
-13.5308
-13.5581
-13.5998
-13.6481
-13.6904
-13.7229
-13.7486
-13.7702
-13.7979
-13.8517
-13.9473
-14.0467
-14.0976
-14.1823
-14.2688
-14.2485
-14.1493
-14.0354
-13.922
-13.7967
-13.6512
-13.4837
-13.3097
-13.1409
-12.9629
-12.77
-12.6152
-12.617
-12.8009
-13.0799
-13.3569
-13.6051
-13.8468
-14.0433
-14.1789
-14.2674
-14.3151
-14.3458
-14.3796
-14.388
-14.3207
-14.2131
-14.2281
-14.3441
-14.5318
-14.6662
-14.5592
-14.2247
-13.8936
-13.7116
-13.5897
-13.4967
-13.4192
-13.3552
-13.3068
-13.272
-13.2435
-13.195
-13.1267
-13.073
-13.029
-12.9889
-12.9571
-12.936
-12.94
-12.97
-12.9512
-12.8762
-12.845
-12.8533
-13.9272
-13.9871
-14.0357
-14.1607
-14.2954
-14.3719
-14.3364
-14.2124
-14.0827
-14.0387
-14.0451
-14.0647
-14.1006
-14.1421
-14.1807
-14.2148
-14.2457
-14.2749
-14.3092
-14.3585
-14.4439
-14.5642
-14.6985
-14.8157
-14.8666
-14.8163
-14.7175
-14.6109
-14.5043
-14.3814
-14.2362
-14.0816
-13.9342
-13.7868
-13.623
-13.4375
-13.2939
-13.3184
-13.5252
-13.7952
-14.047
-14.2999
-14.504
-14.6364
-14.7288
-14.7945
-14.8262
-14.8382
-14.8567
-14.8773
-14.8135
-14.657
-14.6494
-14.7955
-14.9854
-15.1119
-15.0523
-14.7901
-14.4591
-14.226
-14.1006
-14.007
-13.9252
-13.854
-13.7965
-13.7543
-13.7283
-13.6994
-13.6448
-13.5912
-13.5481
-13.5086
-13.4777
-13.4552
-13.4642
-13.524
-13.5488
-13.4807
-13.3916
-13.3699
-14.4593
-14.5034
-14.5634
-14.6894
-14.8219
-14.8635
-14.8059
-14.7013
-14.6104
-14.5771
-14.5636
-14.5744
-14.6049
-14.6406
-14.6768
-14.7132
-14.7503
-14.7902
-14.8394
-14.8938
-14.986
-15.1449
-15.3073
-15.3903
-15.3773
-15.3142
-15.2255
-15.1317
-15.0296
-14.9109
-14.7838
-14.6642
-14.562
-14.4568
-14.3261
-14.1615
-14.044
-14.0871
-14.3273
-14.6091
-14.9052
-15.1831
-15.3338
-15.3781
-15.3714
-15.3378
-15.3159
-15.3138
-15.3282
-15.3821
-15.3541
-15.1794
-15.1605
-15.3664
-15.5901
-15.7425
-15.7319
-15.5336
-15.2391
-14.9791
-14.7852
-14.6347
-14.4986
-14.3804
-14.2849
-14.2227
-14.1954
-14.1761
-14.1469
-14.1025
-14.0629
-14.0274
-14.001
-13.9894
-14.0062
-14.0794
-14.1486
-14.1046
-13.9885
-13.9323
-14.9609
-15.0007
-15.0545
-15.1584
-15.2827
-15.3324
-15.2939
-15.2148
-15.1436
-15.0915
-15.0764
-15.0894
-15.1127
-15.1426
-15.177
-15.2157
-15.259
-15.3128
-15.3806
-15.4526
-15.5975
-15.7961
-15.9017
-15.8984
-15.8411
-15.7714
-15.6905
-15.606
-15.51
-15.4085
-15.3149
-15.2452
-15.1975
-15.1485
-15.0662
-14.9403
-14.8597
-14.941
-15.2614
-15.6404
-16.0343
-16.3459
-16.5312
-16.5233
-16.3502
-16.0941
-15.8952
-15.7942
-15.7891
-15.8728
-15.9239
-15.7999
-15.7493
-16.0097
-16.3212
-16.5503
-16.6644
-16.5861
-16.3021
-15.9295
-15.6056
-15.372
-15.1601
-14.9756
-14.8213
-14.7166
-14.6755
-14.6541
-14.6394
-14.6107
-14.5795
-14.5519
-14.5328
-14.5323
-14.5538
-14.6063
-14.6679
-14.656
-14.5626
-14.5175
-15.4576
-15.4926
-15.533
-15.6102
-15.696
-15.7449
-15.7376
-15.6999
-15.6629
-15.6216
-15.5989
-15.6033
-15.6213
-15.6472
-15.6798
-15.7197
-15.7687
-15.8376
-15.923
-16.0304
-16.2307
-16.4025
-16.4132
-16.3568
-16.2842
-16.2144
-16.1415
-16.0672
-15.9887
-15.917
-15.866
-15.8493
-15.8604
-15.8705
-15.8426
-15.7672
-15.735
-15.8817
-16.3187
-16.8428
-17.3122
-17.6661
-17.855
-17.8322
-17.5823
-17.1511
-16.6531
-16.3047
-16.1983
-16.3141
-16.4916
-16.4806
-16.4202
-16.6195
-16.9958
-17.3262
-17.5464
-17.6244
-17.4217
-16.9557
-16.4563
-16.1071
-15.8321
-15.6004
-15.4079
-15.2527
-15.1699
-15.1431
-15.1358
-15.1214
-15.1009
-15.0823
-15.0716
-15.0756
-15.098
-15.1273
-15.1597
-15.1616
-15.1186
-15.0909
-15.974
-15.9903
-16.0241
-16.0815
-16.1389
-16.1707
-16.1715
-16.1541
-16.1331
-16.1152
-16.1093
-16.1152
-16.1304
-16.1534
-16.1836
-16.2228
-16.2759
-16.3559
-16.4545
-16.5926
-16.7819
-16.8783
-16.8422
-16.7805
-16.7162
-16.656
-16.5972
-16.5389
-16.4844
-16.4453
-16.436
-16.4719
-16.5427
-16.613
-16.6367
-16.6105
-16.6225
-16.839
-17.3585
-17.9967
-18.5167
-18.88
-19.0538
-18.9982
-18.6669
-18.058
-17.3555
-16.8345
-16.6311
-16.7469
-16.9854
-17.152
-17.1716
-17.2614
-17.5589
-17.8967
-18.1621
-18.3102
-18.2137
-17.8017
-17.2239
-16.7662
-16.4467
-16.1852
-15.9924
-15.8078
-15.6839
-15.6439
-15.6434
-15.6391
-15.6276
-15.6167
-15.612
-15.617
-15.6344
-15.6534
-15.666
-15.6647
-15.6448
-15.6257
-16.5001
-16.4977
-16.5281
-16.5733
-16.6181
-16.6413
-16.644
-16.6363
-16.6263
-16.6186
-16.6179
-16.6249
-16.639
-16.6597
-16.6874
-16.7238
-16.7771
-16.8591
-16.96
-17.1008
-17.2389
-17.2646
-17.2337
-17.1884
-17.1404
-17.0956
-17.054
-17.0142
-16.9813
-16.9678
-16.9948
-17.0813
-17.215
-17.3495
-17.4153
-17.4207
-17.4519
-17.6878
-18.2061
-18.9045
-19.4468
-19.787
-19.9849
-19.9187
-19.5023
-18.7806
-18.0125
-17.443
-17.1816
-17.2239
-17.48
-17.7711
-17.9046
-17.9933
-18.1244
-18.3331
-18.547
-18.6615
-18.641
-18.3713
-17.8608
-17.3643
-17.0125
-16.7414
-16.5482
-16.3674
-16.2092
-16.1553
-16.1626
-16.1653
-16.1595
-16.1534
-16.1513
-16.155
-16.1641
-16.1745
-16.1784
-16.1662
-16.1517
-16.1344
-17.0282
-17.025
-17.0458
-17.0808
-17.1164
-17.1329
-17.1323
-17.1262
-17.1218
-17.1206
-17.1241
-17.1326
-17.1462
-17.1651
-17.1897
-17.2226
-17.2716
-17.3459
-17.4427
-17.5555
-17.6373
-17.6466
-17.628
-17.599
-17.5641
-17.5333
-17.5075
-17.4825
-17.4649
-17.4663
-17.515
-17.6424
-17.8323
-18.0411
-18.1304
-18.1366
-18.1473
-18.3403
-18.7871
-19.449
-19.9754
-20.2991
-20.486
-20.4167
-20.001
-19.319
-18.6564
-18.1716
-17.9209
-17.8756
-18.034
-18.3261
-18.5739
-18.7161
-18.7894
-18.8612
-18.9183
-18.9911
-19.029
-18.8221
-18.3823
-17.9038
-17.5384
-17.2812
-17.0979
-16.9336
-16.773
-16.6946
-16.6975
-16.7017
-16.6972
-16.6923
-16.6902
-16.6914
-16.6946
-16.697
-16.6954
-16.6828
-16.6771
-16.6585
-17.571
-17.5664
-17.5767
-17.6071
-17.6352
-17.6431
-17.6335
-17.6232
-17.6207
-17.6226
-17.6284
-17.6379
-17.6511
-17.6683
-17.6901
-17.7186
-17.76
-17.8215
-17.9022
-17.9829
-18.0311
-18.0416
-18.0367
-18.0193
-17.9915
-17.9689
-17.9579
-17.9431
-17.9346
-17.9408
-17.9894
-18.1379
-18.3925
-18.6231
-18.7229
-18.7065
-18.6732
-18.7742
-19.0913
-19.6321
-20.1236
-20.4408
-20.5879
-20.4957
-20.1508
-19.6337
-19.2224
-18.9647
-18.7637
-18.6506
-18.6758
-18.8491
-19.0871
-19.3081
-19.4564
-19.4818
-19.4963
-19.5104
-19.4472
-19.1839
-18.8002
-18.3952
-18.0534
-17.8102
-17.6473
-17.508
-17.3668
-17.2699
-17.2518
-17.2489
-17.2411
-17.2339
-17.2297
-17.2279
-17.2272
-17.2258
-17.2221
-17.2139
-17.218
-17.2085
-18.1076
-18.0917
-18.1075
-18.1451
-18.1748
-18.1767
-18.1505
-18.1264
-18.1205
-18.1232
-18.1301
-18.1402
-18.1531
-18.1689
-18.1883
-18.2127
-18.246
-18.2935
-18.353
-18.4065
-18.4404
-18.4521
-18.4615
-18.4556
-18.426
-18.4035
-18.4085
-18.4059
-18.407
-18.4207
-18.4668
-18.6203
-18.8663
-19.0763
-19.148
-19.1127
-19.0329
-19.0341
-19.2054
-19.5949
-20.0145
-20.3098
-20.4369
-20.3666
-20.1351
-19.8319
-19.6188
-19.5138
-19.4221
-19.3035
-19.2524
-19.3229
-19.4675
-19.6439
-19.8066
-19.8931
-19.9083
-19.8324
-19.6685
-19.4114
-19.1194
-18.8421
-18.5712
-18.3447
-18.1844
-18.0712
-17.9499
-17.8623
-17.8196
-17.8031
-17.789
-17.7776
-17.7704
-17.7656
-17.7619
-17.7584
-17.7542
-17.7485
-17.7523
-17.755
-18.6161
-18.5978
-18.6091
-18.6763
-18.7072
-18.7088
-18.6694
-18.6266
-18.6164
-18.6207
-18.6288
-18.6398
-18.6524
-18.6672
-18.6848
-18.7061
-18.7334
-18.7702
-18.8137
-18.8494
-18.8616
-18.877
-18.903
-18.9256
-18.9132
-18.8856
-18.8822
-18.8961
-18.9088
-18.9461
-19.017
-19.1454
-19.2908
-19.4025
-19.4275
-19.3744
-19.2782
-19.197
-19.2503
-19.4876
-19.8046
-20.0708
-20.2242
-20.2433
-20.1653
-20.0388
-19.9219
-19.8552
-19.8048
-19.7329
-19.6861
-19.7183
-19.8073
-19.9164
-20.0194
-20.0807
-20.0702
-20.0055
-19.8663
-19.6791
-19.4871
-19.2926
-19.083
-18.8852
-18.7203
-18.6216
-18.5203
-18.4418
-18.3865
-18.3582
-18.3376
-18.3219
-18.3114
-18.3039
-18.298
-18.2927
-18.2874
-18.2815
-18.2811
-18.2864
-19.1121
-19.1012
-19.0879
-19.1342
-19.1713
-19.1853
-19.1538
-19.1109
-19.1057
-19.1155
-19.1258
-19.1376
-19.1501
-19.1641
-19.1801
-19.199
-19.2225
-19.2535
-19.291
-19.3227
-19.3362
-19.3556
-19.3973
-19.4454
-19.4621
-19.4491
-19.4288
-19.4321
-19.4445
-19.5
-19.6025
-19.6951
-19.737
-19.7278
-19.6755
-19.6008
-19.4989
-19.3722
-19.3351
-19.4471
-19.6711
-19.9156
-20.1172
-20.2404
-20.2762
-20.2457
-20.1848
-20.1369
-20.1098
-20.0741
-20.0473
-20.0714
-20.1456
-20.2373
-20.3217
-20.3711
-20.3701
-20.3184
-20.2171
-20.0904
-19.9546
-19.7872
-19.6096
-19.4155
-19.2645
-19.1645
-19.0754
-18.9993
-18.9437
-18.9093
-18.8839
-18.865
-18.8519
-18.8422
-18.8346
-18.8279
-18.8213
-18.8142
-18.8101
-18.811
-19.6136
-19.604
-19.5817
-19.5907
-19.6149
-19.6283
-19.6158
-19.5993
-19.5984
-19.6133
-19.6244
-19.636
-19.6477
-19.6604
-19.6749
-19.6917
-19.712
-19.7384
-19.7715
-19.8053
-19.8373
-19.8776
-19.9262
-19.9803
-20.0284
-20.051
-20.0258
-19.9789
-19.9742
-20.0218
-20.1156
-20.1917
-20.1924
-20.1118
-19.9948
-19.8799
-19.751
-19.6142
-19.5411
-19.5838
-19.746
-19.9685
-20.1858
-20.3475
-20.436
-20.4682
-20.4629
-20.4413
-20.424
-20.4088
-20.4036
-20.4274
-20.4988
-20.5922
-20.6766
-20.7274
-20.7332
-20.7002
-20.6452
-20.5713
-20.4524
-20.287
-20.1003
-19.9211
-19.7946
-19.6945
-19.6128
-19.5428
-19.4908
-19.4545
-19.4266
-19.4057
-19.3907
-19.3795
-19.371
-19.3635
-19.3569
-19.3493
-19.3419
-19.339
-20.1231
-20.1206
-20.1187
-20.1134
-20.1168
-20.1196
-20.1221
-20.1193
-20.1103
-20.1193
-20.1274
-20.1365
-20.1462
-20.1571
-20.1695
-20.1841
-20.2015
-20.2232
-20.2503
-20.282
-20.319
-20.3655
-20.4255
-20.4913
-20.5529
-20.581
-20.5391
-20.4708
-20.457
-20.4829
-20.5423
-20.5948
-20.5875
-20.5079
-20.3756
-20.2265
-20.0769
-19.9549
-19.8902
-19.9132
-20.0351
-20.2193
-20.4129
-20.5712
-20.6803
-20.7445
-20.7751
-20.7846
-20.7843
-20.7756
-20.7734
-20.8151
-20.8906
-20.9831
-21.0671
-21.1194
-21.129
-21.1044
-21.064
-20.9977
-20.8813
-20.712
-20.5273
-20.3909
-20.2952
-20.2098
-20.1403
-20.0767
-20.0294
-19.9938
-19.9652
-19.9434
-19.9273
-19.9154
-19.9066
-19.8997
-19.8956
-19.8894
-19.8808
-19.8759
-20.6344
-20.6415
-20.6484
-20.6631
-20.6622
-20.6648
-20.6728
-20.6569
-20.6319
-20.6309
-20.6334
-20.6387
-20.6456
-20.6541
-20.6643
-20.6765
-20.691
-20.7085
-20.7296
-20.7548
-20.7851
-20.8225
-20.869
-20.9227
-20.9717
-20.9857
-20.9457
-20.9017
-20.8966
-20.9096
-20.9403
-20.9678
-20.9565
-20.8911
-20.7778
-20.6387
-20.5043
-20.4031
-20.3537
-20.3732
-20.4625
-20.6024
-20.7568
-20.8957
-21.0036
-21.0773
-21.1214
-21.1463
-21.1613
-21.1724
-21.1912
-21.2341
-21.3122
-21.4145
-21.5078
-21.5624
-21.5669
-21.5238
-21.4547
-21.3604
-21.2313
-21.0757
-20.9311
-20.8309
-20.777
-20.7192
-20.6662
-20.606
-20.5627
-20.5285
-20.5001
-20.478
-20.4613
-20.4491
-20.4408
-20.4362
-20.4374
-20.435
-20.4244
-20.4217
-21.1424
-21.1531
-21.1581
-21.1854
-21.1978
-21.2059
-21.2028
-21.1741
-21.1499
-21.1412
-21.1391
-21.1409
-21.1452
-21.1513
-21.1592
-21.1689
-21.1805
-21.1942
-21.2103
-21.2287
-21.2497
-21.2734
-21.2996
-21.3272