/*--------------------------------*- C++ -*----------------------------------*\
| =========                 |                                                 |
| \\      /  F ield         | OpenFOAM: The Open Source CFD Toolbox           |
|  \\    /   O peration     | Version:  2412                                  |
|   \\  /    A nd           | Website:  www.openfoam.com                      |
|    \\/     M anipulation  |                                                 |
\*---------------------------------------------------------------------------*/
FoamFile
{
    version     2.0;
    format      ascii;
    arch        "LSB;label=32;scalar=64";
    class       volScalarField;
    location    "7.75";
    object      alpha.gasoline;
}
// * * * * * * * * * * * * * * * * * * * * * * * * * * * * * * * * * * * * * //

dimensions      [0 0 0 0 0 0 0];

internalField   nonuniform List<scalar> 
6400
(
1
1.00001
1
0.999998
0.999997
0.999997
0.999999
1
1
1
0.999999
0.999999
0.999999
1
1
1
1
1
1
1
1
1
1
1
1
1
1
1
0.999999
1
1
1
1
1
1
1
1
1
1
1
1
1
1
1
1
1
1
1
1
1
1
1
1
1
1
0.999999
0.999999
0.999999
0.999999
0.999999
0.999999
0.999997
0.999997
0.999997
0.999999
0.999999
0.999999
0.999999
0.999999
0.999999
1
1
1
1
1
1
1
1
1
1
0.99999
0.999997
0.999999
0.999999
0.999999
0.999998
0.999998
0.999998
0.999999
1
0.999999
0.999999
0.999999
1
1
1
1
1
1
1
1
1
0.999999
0.999999
0.999999
0.999998
0.999998
0.999998
0.999999
0.999999
0.999999
1
1
1
1
1
1
1
1
1
0.999999
0.999999
0.999999
0.999999
0.999999
0.999999
1
1
1
1
1
0.999999
0.999999
0.999999
0.999999
0.999999
0.999999
0.999999
0.999998
0.999998
0.999998
0.999998
0.999999
0.999999
0.999999
0.999999
0.999998
0.999998
0.999999
1
1
1
0.999998
0.999998
0.999999
0.999999
0.999999
0.999999
0.999999
0.999998
0.999998
0.999998
0.999999
0.999999
0.999998
0.999998
0.999999
0.999999
0.999999
0.999999
0.999999
1
1
1
1
1
1
1
1
0.999998
0.999998
0.999998
0.999998
0.999999
0.999998
0.999999
1
1
0.999999
1
1
1
1
1
1
0.999999
0.999999
0.999999
0.999999
0.999999
0.999999
0.999999
0.999998
0.999998
0.999998
0.999999
0.999998
0.999998
1
1
1
1
1
1
1
1
1
1
1
1
1
1
1
0.999999
0.999998
0.999998
0.999998
0.999999
0.999999
0.999999
0.999997
0.999996
0.999996
0.999999
0.999999
0.999998
0.999999
0.999999
0.999999
0.999999
1
1
0.999999
0.999999
0.999999
0.999999
1
1
1
0.999999
0.999999
1
1
1
0.999999
0.999998
0.999999
1
1
1
1
1
1
1
1
1
1
1
1
1
0.999999
0.999999
0.999999
1
1
1
1
1
1
1
1
1
1
1
1
1
1
1
1
1
1
1
1
1
1
1
1
1
1
0.999999
0.999999
0.999998
0.999998
0.999999
1
1
1
1
1
1
0.999999
0.999999
1
1
1
1
1
1
1
1
1
1
1
1
1
1
1
1
1
0.999998
0.999999
1
0.999998
0.999998
0.999999
1
1
1
1
1
1
1
1
1
1
1
1
1
1
1
1
1
1
1
1
1
1
1
1
1
1
1
1
1
1
1
1
1
1
0.999999
0.999999
1
1
1
0.999999
0.999999
0.999999
0.999999
0.999999
1
0.999999
0.999999
0.999999
1
1
1
1
1
1
1
1
1
1
1
1
1
1
1
1
1
1
1
1
1
1
1
1
1
0.999999
0.999998
0.999998
0.999998
0.999999
0.999999
0.999999
0.999999
0.999999
0.999999
0.999999
1
1
1
1
1
1
1
1
1
1
1
1
1
1
1
1
1
1
1
1
1
1
1
1
1
1
1
1
1
1
0.999999
0.999998
0.999998
0.999999
1
1
1
1
1
1
1
1
1
1
1
1
1
0.999999
0.999999
0.999999
0.999999
1
1
0.999999
1
1
1
1
1
1
1
1
1
1
1
1
1
1
1
0.999999
0.999999
0.999999
0.999999
0.999999
0.999998
0.999997
0.999997
0.999999
1
1
1
1
1
1
1
1
1
1
1
1
1
1
1
1
1
1
0.999999
0.999998
0.999998
0.999999
0.999999
1
1
1
1
1
1
1
1
1
1
1
1
1
1
1
1
1
1
1
1
1
1
1
1
1
1
0.999999
0.999998
0.999998
0.999998
0.999999
0.999999
0.999999
1
1
1
1
0.999999
1
0.999999
1
1
1
1
1
1
1
1
1
1
1
1
0.999999
0.999998
0.999998
0.999999
1
1
1
1
1
1
1
1
1
1
1
1
1
1
1
1
0.999999
0.999999
0.999999
0.999999
1
1
1
1
1
1
1
1
1
1
1
1
1
1
1
1
1
1
1
1
1
1
1
1
1
1
1
0.999999
0.999999
0.999999
0.999999
0.999998
0.999998
0.999999
1
0.999999
1
1
0.999999
1
1
1
1
1
1
1
1
1
1
1
1
1
1
1
1
1
0.999999
0.999999
0.999999
1
1
0.999999
0.999999
1
1
1
1
1
1
1
1
1
1
1
1
1
1
1
1
1
1
1
1
1
1
1
1
1
1
1
1
1
1
1
1
0.999999
1
1
1
1
1
1
1
1
1
1
1
1
1
1
0.999999
0.999999
0.999999
1
1
1
1
1
1
1
1
1
1
1
1
1
1
1
0.999945
0.999963
0.999997
1
0.999999
0.999999
1
1
1
1
1
1
1
1
1
1
1
1
1
1
1
1
1
1
1
1
1
1
1
1
1
1
1
1
1
1
1
1
1
1
1
1
1
1
1
1
1
1
1
1
1
1
1
1
1
1
1
1
1
1
1
1
1
1
1
1
1
1
1
0.999997
0.999941
0.999875
0.999999
1
1
1
1
1
1
0.999914
0.999741
0.999741
0.999924
1
1
1
1
1
1
1
1
1
1
1
1
1
1
1
1
1
1
1
1
1
1
1
1
1
1
1
1
1
1
1
1
1
1
1
1
1
1
1
1
1
1
1
1
1
1
1
1
1
1
1
1
1
1
1
0.999999
0.999999
0.999999
0.999999
1
1
1
1
1
1
1
0.999919
0.999356
0.999284
0.999669
1
1
1
1
1
1
0.999813
0.999741
0.999741
0.999771
0.999986
1
1
1
1
1
1
1
1
1
1
1
1
1
1
1
1
1
1
1
1
1
1
1
1
1
1
1
1
1
1
1
1
1
1
1
1
1
1
1
1
1
1
1
1
1
1
1
1
1
1
1
1
1
1
1
0.999999
0.999999
0.999999
1
1
1
1
1
1
0.999999
0.999589
0.999284
0.999284
0.999284
0.999973
1
1
1
1
0.999999
0.999982
0.999759
0.999741
0.999826
0.999995
1
1
1
1
1
1
1
1
1
1
1
1
1
1
1
1
1
1
1
1
1
1
1
1
1
1
1
1
1
1
1
1
1
1
1
1
1
1
1
1
1
1
1
1
1
1
1
1
1
1
1
1
1
1
1
1
1
0.999999
1
1
1
1
1
1
1
0.999827
0.999365
0.999284
0.999497
0.999986
1
1
1
0.999999
1
1
0.999976
0.999933
0.999982
1
1
1
1
1
1
1
1
1
1
1
1
1
1
1
1
1
1
1
1
1
1
1
1
1
1
1
1
1
1
1
1
1
1
1
1
1
1
1
1
1
1
1
1
1
1
1
1
1
1
1
1
1
1
1
1
1
1
1
0.999999
0.999999
0.999999
0.999999
1
1
1
0.999997
0.999971
0.999838
0.999989
1
0.999999
1
1
0.999999
1
1
1
1
1
1
1
1
1
1
1
1
1
1
1
0.999999
1
1
1
1
1
1
1
1
1
1
1
1
1
1
1
1
1
1
1
1
1
1
1
1
1
1
1
1
1
1
1
1
1
1
1
1
1
1
1
1
1
1
1
1
1
1
1
1
0.999999
0.999999
0.999999
0.999999
1
1
1
1
1
1
1
1
0.999999
1
1
1
1
1
1
1
1
1
1
1
1
1
1
1
1
1
1
1
1
0.999999
0.999999
1
1
1
1
1
1
1
1
1
1
1
1
1
1
1
1
1
1
1
1
1
1
1
1
1
1
1
1
1
1
1
1
1
1
1
1
1
1
1
1
1
1
1
1
1
1
1
1
1
1
1
1
1
1
0.999999
1
1
1
1
1
1
1
1
1
1
1
1
1
1
1
1
1
1
1
1
1
1
0.999999
1
1
1
1
1
1
1
1
1
1
1
1
1
1
1
1
1
1
1
1
1
1
1
1
1
1
1
1
1
1
1
1
1
1
1
1
1
1
1
1
1
1
1
1
1
1
1
1
1
1
1
1
1
1
0.999999
1
1
1
1
1
1
0.999999
0.999999
0.999999
1
1
1
1
1
1
1
1
1
1
1
1
1
1
1
1
1
1
1
0.999999
0.999999
0.999998
0.999998
0.999998
0.999998
0.999999
0.999999
1
1
1
1
1
1
1
1
1
1
1
1
1
1
1
1
1
1
1
1
0.999999
0.999999
0.999999
0.999998
0.999998
0.999999
0.999999
0.999999
1
1
1
1
1
1
1
1
1
1
1
1
1
1
1
1
1
1
1
1
1
1
0.999332
0.999465
0.99999
1
1
1
1
1
1
1
1
1
1
1
1
1
1
1
1
0.999999
0.999996
0.999989
0.999975
0.999956
0.999937
0.999923
0.999916
0.999917
0.999928
0.999947
0.99997
0.999989
0.999998
1
1
1
1
1
1
1
1
1
1
1
1
1
0.999741
0.999983
0.999985
0.999965
0.999945
0.999933
0.999927
0.999926
0.999931
0.999943
0.99996
0.999977
0.99999
0.999997
0.999999
1
1
1
1
1
1
1
1
1
1
1
1
1
1
1
1
1
0.997177
0.997335
0.564768
0.581961
0.627659
0.690298
0.766087
0.846886
0.913432
0.956159
0.98366
1
1
1
1
1
1
1
1
0.999999
0.999988
0.999621
0.994394
0.979477
0.953988
0.920516
0.883845
0.847452
0.812211
0.777794
0.744076
0.711141
0.679973
0.651865
0.629159
0.59783
0.566858
0.545777
0.531949
0.522978
0.516677
0.511336
0.506626
0.504239
0.50583
0.512029
0.522318
0.539957
0.567593
0.600985
0.631956
0.661669
0.696243
0.734141
0.771852
0.808441
0.844733
0.881438
0.917977
0.951458
0.977582
0.993584
0.999579
0.999986
0.999992
1
1
1
1
1
1
1
1
0.995716
0.965556
0.915001
0.84041
0.752454
0.66906
0.593223
0.528168
0.496812
0.000103873
0.00618189
0.018685
0.0392083
0.0678858
0.111656
0.176691
0.263426
0.372224
0.499713
0.62973
0.72589
0.790519
0.82568
0.835997
0.826804
0.796253
0.746172
0.678349
0.590326
0.473316
0.363238
0.272717
0.202837
0.152283
0.115639
0.0871149
0.0630679
0.0425782
0.0265048
0.0148789
0.00659513
3.19665e-05
0.000282251
0.00175761
0.0036639
0.00496418
0.00579304
0.00619162
0.00625999
0.00595651
0.00504434
0.00400743
0.00302246
0.00175968
0.000399386
2.69805e-06
1.26353e-06
1.4578e-06
0.00550437
0.0171287
0.0325474
0.0531979
0.0786397
0.10907
0.147049
0.197486
0.265485
0.354332
0.465103
0.587647
0.685909
0.763898
0.820337
0.855351
0.867717
0.859547
0.824493
0.757669
0.664088
0.541031
0.403465
0.279091
0.175174
0.0961055
0.0453279
0.0165947
0.00250388
0.00093177
5.9656e-05
9.43543e-05
9.97769e-05
0.000107901
0.000114317
0.000112347
0.000124972
0.000480704
0.000279196
0.000405423
0.00811643
0.0343566
0.0718282
0.1108
0.135816
0.141162
0.125243
0.0936892
0.0598652
0.0292744
0.00288981
1.18711e-06
2.09302e-06
3.07329e-06
2.79006e-06
3.31037e-06
4.08389e-06
5.64101e-06
7.51691e-06
9.45179e-06
1.11802e-05
1.23853e-05
1.31577e-05
1.46904e-05
1.87871e-05
3.00417e-05
2.22103e-05
1.69676e-05
1.63868e-05
2.49606e-05
3.92121e-05
5.83755e-05
8.1311e-05
5.62923e-05
2.41497e-05
2.32938e-05
1.17661e-05
3.22735e-06
9.85919e-07
7.9305e-07
7.54389e-07
7.59277e-07
7.81212e-07
8.56097e-07
1.25685e-06
1.76529e-06
2.04529e-06
2.27311e-06
2.41825e-06
1.4384e-06
3.21518e-07
0.00340954
0.0299432
0.0652615
0.106868
0.147737
0.173444
0.170811
0.145337
0.100537
0.055602
0.0218785
0.00331169
0.000318311
0.000157962
1.36405e-05
8.77811e-06
1.36405e-05
4.69744e-05
4.79494e-05
4.77656e-05
9.37525e-05
9.40173e-05
9.96155e-05
0.000109653
0.000445105
0.000486866
0.000493347
0.00023745
0.000167509
7.84368e-05
4.01284e-05
7.04264e-05
0.000120868
0.000117266
6.19476e-05
2.63345e-05
5.34247e-06
1.33945e-06
3.56649e-07
1.11062e-07
6.51081e-07
1.70021e-06
3.08189e-06
2.63215e-06
5.11167e-06
1.47905e-05
1.51298e-05
1.24472e-05
1.26138e-05
1.26956e-05
1.30558e-05
1.31041e-05
1.33949e-05
1.67589e-05
3.87578e-05
2.44037e-05
1.63859e-05
1.55018e-05
1.56222e-05
1.77997e-05
3.21274e-05
7.67461e-05
8.86456e-05
4.25458e-05
1.75103e-05
1.24431e-05
3.2194e-06
7.9305e-07
7.51628e-07
7.48887e-07
7.54389e-07
7.48346e-06
2.29921e-05
1.45956e-05
7.09704e-06
7.13247e-06
2.42835e-06
2.52879e-06
2.29002e-06
1.98441e-07
1.91662e-07
1.89673e-07
1.88033e-07
1.89512e-07
9.38649e-08
7.45736e-06
3.22037e-05
4.32497e-05
4.73326e-05
3.74741e-05
6.52822e-05
9.68798e-05
7.05065e-05
0.000156253
0.000118622
4.37025e-06
3.53649e-05
0.000203497
0.000211675
0.000208244
8.91684e-05
9.17461e-05
9.85386e-05
0.000337382
0.000474101
0.000487338
0.000404439
0.000212705
0.000155768
5.38666e-05
3.15134e-05
-5.15236e-07
2.0172e-06
1.61385e-06
5.04528e-07
1.43868e-05
4.29457e-07
1.12759e-08
1.42861e-08
1.85315e-08
5.31303e-07
3.21995e-06
3.32846e-06
1.84495e-06
1.24975e-07
7.63901e-06
3.05429e-05
3.10246e-05
3.08303e-05
1.76844e-05
1.60962e-05
7.26527e-05
8.28203e-05
8.50036e-05
6.95512e-05
6.33595e-05
5.15877e-05
1.53209e-05
1.53236e-05
1.5626e-05
3.41569e-05
8.67761e-05
6.68858e-05
6.51176e-06
6.54617e-06
1.7767e-05
1.50056e-06
7.51628e-07
7.48913e-07
7.51628e-07
5.64409e-05
8.54814e-05
5.29082e-05
1.66137e-05
1.4274e-07
1.04021e-06
4.66955e-06
5.05476e-06
5.05476e-06
3.14369e-06
1.92432e-07
1.91758e-07
1.90161e-07
1.87737e-07
2.02217e-07
2.89437e-07
3.15734e-07
1.24302e-06
3.62593e-06
4.35663e-06
1.11678e-05
1.57504e-05
1.371e-05
0.000128334
4.18672e-05
2.52282e-06
3.03946e-05
0.00012822
0.000178791
0.000209073
8.70416e-05
8.91349e-05
0.000117351
0.000434822
0.000460518
0.000243692
0.000300485
0.000417976
0.000422086
0.000334827
1.07941e-06
2.79975e-07
2.57935e-07
7.99001e-08
5.47396e-08
1.03069e-08
8.84784e-09
8.2948e-09
1.1276e-08
1.42862e-08
1.85315e-08
3.05592e-08
7.39435e-08
9.42787e-08
1.20657e-07
2.74071e-07
1.18654e-06
4.68617e-06
1.74317e-05
1.39845e-05
1.18457e-05
1.67929e-05
6.29933e-05
8.848e-05
8.93961e-05
8.95871e-05
8.94756e-05
3.05647e-05
3.15932e-05
2.66135e-05
7.47387e-05
8.60778e-05
5.31297e-05
6.51972e-06
6.52351e-06
1.8337e-05
1.21546e-06
7.94432e-07
5.42817e-06
7.97817e-05
8.9305e-05
8.63561e-05
8.37024e-06
2.36023e-06
1.09752e-07
1.13163e-07
1.76038e-07
1.90988e-06
4.66592e-06
3.83968e-06
5.27909e-07
1.92432e-07
1.95443e-07
2.02494e-07
2.62389e-07
3.11347e-07
3.15729e-07
3.15731e-07
5.30944e-07
8.11964e-07
1.21628e-06
2.0782e-06
2.6873e-06
8.80788e-06
6.13487e-06
2.34126e-06
4.46267e-07
6.33328e-08
4.64606e-08
0.000207898
8.53277e-05
8.7037e-05
0.000173572
0.000400444
0.000248318
0.000241896
0.000243733
0.000420489
0.000422278
0.000422086
0.000221041
2.29636e-07
1.88316e-07
6.78278e-08
1.09583e-08
8.89547e-09
8.28915e-09
8.2948e-09
8.2948e-09
1.56956e-08
1.3673e-07
5.54409e-07
6.64025e-07
6.91168e-07
5.81617e-07
1.82116e-07
1.37458e-07
1.46618e-07
2.50615e-07
7.94359e-07
7.88331e-07
5.1763e-07
3.79296e-06
1.02916e-05
1.18974e-05
8.3639e-05
8.95871e-05
5.74753e-05
1.77855e-05
8.4514e-05
8.51635e-05
8.50663e-05
4.96075e-05
6.39574e-06
6.49289e-06
1.83532e-05
6.82352e-07
1.37065e-06
3.58242e-05
8.86277e-05
8.60226e-05
4.66242e-06
2.33765e-07
1.09156e-07
1.06754e-07
1.09336e-07
1.1323e-07
1.16047e-07
1.33902e-07
3.5558e-07
4.73777e-07
1.98427e-07
2.16644e-07
2.62396e-07
3.36218e-07
3.38784e-07
3.15727e-07
5.41988e-07
7.06805e-07
7.06159e-07
7.0863e-07
6.78334e-07
4.94624e-07
4.60063e-07
4.03625e-07
1.32359e-06
3.91946e-07
4.64606e-08
4.39102e-08
9.99062e-05
8.29768e-05
0.000115452
0.00034401
0.000346096
0.000241915
0.000241938
0.000241918
0.000300952
0.000422086
0.000422279
0.000420587
3.35901e-07
4.64174e-06
8.88381e-07
1.54385e-08
2.86283e-08
1.81551e-08
8.26639e-09
2.12369e-07
8.7955e-07
2.07113e-06
2.12001e-06
2.10434e-06
1.57564e-07
2.91008e-08
4.44027e-08
1.31034e-07
1.38742e-07
1.46668e-07
1.69087e-07
8.0428e-08
2.49825e-07
5.17633e-07
9.91304e-07
1.73391e-06
7.77718e-06
5.42174e-05
4.38139e-05
4.12691e-06
4.83934e-05
8.50663e-05
8.51634e-05
6.22146e-05
6.31161e-06
6.25052e-06
1.8241e-05
6.82225e-07
7.02143e-07
2.86427e-05
6.37056e-05
1.0232e-05
2.46069e-07
1.20526e-07
1.04315e-07
1.0677e-07
1.06771e-07
1.09346e-07
1.3107e-07
2.19345e-07
2.82338e-07
2.73384e-07
2.34001e-07
3.66896e-07
6.98546e-07
9.82617e-07
9.80393e-07
7.4466e-07
7.37912e-07
8.10677e-07
7.20352e-07
6.68661e-07
4.68421e-07
2.73374e-07
1.86431e-07
1.22124e-07
1.6711e-07
1.93432e-07
4.82787e-08
4.22906e-08
2.95501e-05
8.12234e-05
0.000135213
0.000354701
0.000371783
0.00034907
0.000317562
0.00028578
0.000421598
0.000422264
0.000421571
0.000150779
4.67765e-06
5.36282e-06
6.88642e-07
6.31731e-09
5.47082e-08
5.46597e-08
8.8164e-09
7.14549e-07
2.04813e-06
2.08407e-06
2.11769e-06
5.6567e-07
9.37143e-09
2.65855e-08
9.33559e-08
9.76504e-07
9.84675e-07
5.39947e-07
1.51423e-07
1.9918e-08
3.22414e-07
1.13751e-06
1.18711e-05
2.12879e-05
1.00507e-05
6.35134e-06
4.84431e-06
2.82024e-06
3.02165e-06
6.44337e-05
8.50663e-05
7.15016e-05
7.38987e-06
6.25052e-06
1.77258e-05
6.75225e-07
1.2575e-06
4.93639e-06
2.8195e-06
2.82391e-07
1.19795e-07
9.88767e-08
1.01692e-07
1.04358e-07
1.08139e-07
2.01536e-07
1.49078e-06
3.52347e-06
1.52032e-06
2.82371e-07
3.68958e-07
1.29006e-06
3.57397e-06
9.45649e-06
2.40412e-05
4.23195e-05
2.93258e-05
1.14368e-05
1.09834e-06
4.66347e-07
2.73188e-07
1.87293e-07
1.21846e-07
8.14809e-08
5.65306e-08
4.48508e-08
4.22906e-08
4.20403e-08
6.62136e-05
7.89508e-05
7.49795e-05
0.000320591
0.000390827
0.000398258
0.000400171
0.000409005
0.000417994
0.000421571
0.000419631
8.6255e-05
4.01101e-07
4.14482e-07
6.3826e-08
4.59974e-09
3.7995e-08
5.51755e-08
2.71665e-08
1.17908e-07
5.87567e-07
1.22304e-06
2.55485e-07
9.65305e-10
8.98871e-09
2.56188e-08
3.75403e-07
8.32673e-07
9.82399e-07
5.24163e-07
2.43834e-07
1.11897e-08
1.94536e-08
1.18234e-05
2.2932e-05
2.2362e-05
2.17288e-05
3.6407e-06
2.64419e-06
2.48519e-06
2.58393e-06
1.33052e-05
8.3601e-05
5.84183e-05
6.70024e-06
6.32718e-06
1.0937e-05
6.45191e-07
4.93172e-07
3.82133e-07
2.67543e-07
1.27437e-07
9.84545e-08
9.50255e-08
9.85739e-08
1.01685e-07
1.13601e-07
1.2705e-06
1.03782e-05
1.13341e-05
6.47359e-06
3.89066e-07
6.54712e-06
2.08021e-05
9.72775e-05
0.000243235
0.000347513
0.000449086
0.000418475
0.000250078
3.47404e-05
1.142e-06
4.62648e-07
2.23706e-07
1.00086e-07
5.85854e-08
4.6286e-08
4.26877e-08
4.20403e-08
4.20302e-08
7.77024e-05
7.93748e-05
7.32809e-05
9.83265e-05
0.000347804
0.000390827
0.000309856
0.000165463
0.000340854
0.000417982
0.000414666
8.01435e-05
9.01842e-08
2.14176e-08
2.74982e-08
4.23546e-09
1.38187e-09
4.93157e-08
4.24949e-08
4.49823e-11
1.46543e-11
1.34067e-11
1.34453e-11
7.59135e-10
3.88634e-10
7.42693e-10
1.28968e-11
3.63093e-11
2.14575e-10
3.76258e-08
7.96876e-08
1.02473e-08
1.07252e-08
2.76638e-06
2.29362e-05
2.2932e-05
7.60353e-06
2.55584e-06
2.44084e-06
2.41918e-06
2.48519e-06
3.13144e-06
7.28625e-05
2.98206e-05
6.38822e-06
6.38058e-06
6.93495e-06
2.79695e-06
1.20498e-07
1.22539e-07
1.33336e-07
1.00393e-07
9.47328e-08
9.39437e-08
9.50253e-08
9.85664e-08
1.42277e-07
5.47149e-06
1.16578e-05
1.16717e-05
4.10357e-06
8.42036e-07
2.88883e-05
0.000258428
0.000424232
0.000453294
0.00045768
0.00045923
0.000459538
0.000459549
0.000455755
0.000103269
2.84995e-06
8.25983e-07
2.49139e-07
9.16282e-08
5.00422e-08
4.29375e-08
4.20206e-08
4.20403e-08
7.92452e-05
0.000102326
7.21132e-05
5.95844e-05
0.000137877
0.000372912
0.000196384
0.000143491
0.000169192
0.000407609
0.000229775
9.42266e-06
3.49161e-08
5.25427e-09
3.82595e-09
3.20069e-09
1.37559e-09
1.64053e-09
4.28996e-09
1.92049e-09
6.23704e-11
1.60248e-11
1.27276e-11
1.25051e-11
1.24621e-11
1.24621e-11
1.24621e-11
7.53864e-09
3.29772e-08
1.09056e-08
1.02451e-08
1.03379e-08
1.02605e-08
1.16749e-05
2.43287e-05
2.09264e-05
2.66066e-06
2.44084e-06
2.41754e-06
2.42453e-06
2.76934e-06
2.00568e-05
1.74296e-05
8.2025e-06
7.85681e-06
6.38822e-06
7.4522e-06
3.31533e-06
1.15701e-07
1.04422e-07
1.03524e-07
9.4793e-08
9.35542e-08
9.341e-08
9.38116e-08
9.71471e-08
8.72828e-07
1.09285e-05
1.16892e-05
9.00658e-06
1.11841e-07
2.33327e-07
5.25596e-05
0.000393015
0.0004226
0.000444292
0.000453709
0.000458304
0.000459549
0.000459549
0.000459549
0.000459523
0.000336266
6.79734e-06
1.20041e-06
2.9827e-07
8.69967e-08
4.69439e-08
4.23138e-08
4.20403e-08
7.99738e-05
0.000102703
8.28716e-05
5.13082e-05
5.95844e-05
9.54316e-05
0.000108322
0.000139965
0.000358924
0.000378348
3.2704e-05
1.89924e-07
1.09943e-08
3.39541e-09
3.06953e-09
3.05486e-09
1.42491e-09
1.245e-10
1.23506e-10
1.9445e-10
1.55227e-10
5.17649e-11
2.50446e-11
1.68106e-11
1.32957e-11
1.26443e-11
2.95893e-11
3.07843e-11
3.39929e-07
7.4897e-07
5.04153e-07
1.12587e-07
1.07252e-08
4.17935e-06
2.4752e-05
2.48072e-05
1.91239e-05
2.45779e-06
2.43766e-06
2.42453e-06
9.39268e-06
2.00568e-05
1.29896e-05
4.50078e-05
0.000248323
0.0001204
7.5517e-06
9.38461e-06
1.50659e-07
9.98876e-08
9.60284e-08
9.35534e-08
9.33059e-08
9.3255e-08
9.32616e-08
9.32538e-08
2.00663e-06
1.16962e-05
1.16974e-05
6.85094e-07
2.74023e-08
3.78656e-08
1.64651e-05
0.000119747
0.000247088
0.000361489
0.000442488
0.000456035
0.000459
0.000459549
0.000459523
0.000459059
0.000458159
0.00037383
1.56007e-05
1.32453e-06
2.14619e-07
5.93898e-08
4.3468e-08
4.23138e-08
8.46175e-05
0.000102703
6.16736e-05
4.14475e-05
5.33743e-05
5.98374e-05
0.000135528
0.000335695
0.000343101
0.000186701
7.71289e-06
8.1805e-08
9.53371e-09
4.78179e-09
3.15186e-09
3.22999e-09
1.96959e-09
3.72665e-10
1.21523e-10
9.05656e-11
6.84963e-11
5.19155e-11
4.30184e-11
3.3666e-11
2.07215e-11
1.61438e-11
2.50005e-10
2.28097e-10
3.07295e-10
1.74815e-06
3.14159e-06
3.14159e-06
3.11096e-06
9.2276e-07
1.43576e-06
2.33668e-05
2.40238e-05
8.67441e-06
2.45779e-06
2.98483e-06
9.82123e-06
5.9712e-06
7.01348e-06
0.000242681
0.000270662
0.000270725
8.76665e-05
5.36591e-06
9.42774e-08
9.62979e-08
9.40055e-08
9.33059e-08
9.3255e-08
9.32387e-08
9.32361e-08
9.32524e-08
2.15535e-06
1.17e-05
1.09317e-05
2.6443e-08
2.6443e-08
2.74023e-08
3.78656e-08
1.22014e-07
6.20984e-07
1.39877e-05
0.000220841
0.000446941
0.000457797
0.000459029
0.000459088
0.000458642
0.000458808
0.00045844
0.000318273
4.15147e-06
5.49174e-07
1.03511e-07
5.78639e-08
4.45391e-08
8.62038e-05
7.05611e-05
2.43144e-05
3.32626e-05
0.000100652
0.000324974
0.000328277
0.000331256
0.000290025
1.06649e-05
2.22191e-07
3.3103e-07
3.05901e-07
5.35784e-08
1.36081e-09
1.82205e-09
9.87507e-10
3.14442e-10
1.59926e-10
1.08662e-10
9.5301e-11
8.32525e-11
6.03837e-11
4.54133e-11
2.49527e-11
1.75776e-11
2.21448e-10
7.89633e-09
6.56139e-09
6.72504e-09
7.35271e-09
1.95096e-06
3.06448e-06
8.93303e-07
2.91905e-07
2.83094e-06
2.39458e-05
2.33334e-05
5.04531e-06
1.27229e-06
2.84843e-06
2.93871e-06
0.000165914
0.000270662
0.00027076
0.000270725
0.000226709
1.20416e-05
1.14165e-07
9.51437e-08
9.35065e-08
9.32617e-08
9.32387e-08
9.32361e-08
9.32361e-08
9.32361e-08
1.99076e-06
1.1675e-05
5.42706e-06
2.6443e-08
2.64231e-08
2.68672e-08
3.1219e-08
5.69749e-08
1.67636e-07
6.50708e-07
3.24227e-06
0.000142693
0.000453696
0.000460343
0.000458679
0.000458687
0.000458677
0.000458547
0.00045857
0.000209761
4.75753e-06
1.73947e-07
7.60946e-08
6.35736e-08
8.59614e-05
8.12546e-09
7.16238e-06
7.48657e-06
5.61641e-05
0.000211156
0.000199917
5.14599e-05
1.50427e-08
1.63265e-08
1.93888e-07
4.69138e-07
4.53365e-07
6.69846e-08
1.82342e-10
1.3135e-10
1.23207e-10
8.05102e-11
7.09084e-11
1.01207e-10
1.40075e-10
1.35116e-10
8.44781e-11
8.13928e-11
6.67635e-11
3.82457e-11
1.67417e-10
1.23273e-08
7.57169e-08
4.48958e-08
8.88003e-08
3.27961e-07
6.43339e-07
4.24589e-07
2.75588e-07
2.86084e-07
7.77414e-06
2.25894e-05
1.04996e-05
7.86854e-07
1.16097e-06
5.50099e-05
0.000267796
0.000269508
0.000270662
0.000270725
0.000222608
1.1662e-05
1.55167e-07
9.76737e-08
9.36572e-08
9.3304e-08
9.32617e-08
9.32387e-08
9.32361e-08
9.32524e-08
9.36461e-08
8.03181e-06
1.05837e-06
2.64276e-08
2.64708e-08
2.80108e-08
4.25581e-08
1.09264e-07
2.7018e-07
6.71901e-07
1.68993e-06
5.02046e-06
0.000112108
0.000458844
0.000459538
0.000458644
0.000458802
0.000458718
0.000458368
0.00045524
1.34621e-05
7.41996e-07
1.04505e-07
8.09462e-08
1.41151e-05
7.88849e-09
5.40557e-09
1.37729e-09
1.22028e-06
1.19558e-06
2.12448e-09
6.46244e-09
1.31307e-08
1.5831e-08
1.80556e-07
3.04179e-07
9.66208e-08
1.17479e-10
5.39379e-11
4.87593e-11
1.93959e-11
1.58964e-11
1.84105e-11
7.66943e-11
1.40952e-10
1.4399e-10
1.43926e-10
3.52156e-10
5.44413e-10
3.39739e-10
2.76851e-10
6.26791e-10
1.05686e-07
1.354e-07
1.3523e-07
3.66808e-08
3.93285e-08
2.58048e-07
2.72434e-07
2.75588e-07
2.86084e-07
8.25639e-06
7.00827e-06
5.63198e-07
7.85921e-07
0.000201447
0.00025633
0.000124103
8.13501e-05
0.000270221
0.000149757
4.16918e-06
1.61748e-07
9.99198e-08
9.41356e-08
9.34565e-08
9.33038e-08
1.45786e-07
1.26527e-07
9.36461e-08
1.10667e-07
4.50863e-06
5.99024e-07
2.67307e-08
2.71332e-08
6.82131e-08
1.09287e-07
2.95856e-07
6.27537e-07
1.36896e-06
2.62533e-06
5.23494e-06
1.29932e-05
0.000319428
0.000458863
0.00045978
0.000458846
0.00045859
0.000459383
0.000457677
0.000348116
6.71768e-06
2.20791e-07
1.84997e-06
3.41941e-05
1.9307e-08
5.92275e-09
4.05832e-10
3.77842e-10
1.29045e-09
1.77367e-09
8.94432e-09
2.48198e-08
4.79409e-08
2.43104e-08
6.99313e-11
1.48224e-11
1.6961e-10
1.78328e-10
6.39207e-11
8.22022e-12
5.4708e-12
8.72031e-12
6.11005e-11
7.59972e-11
5.19024e-11
5.74926e-10
3.65279e-09
2.28806e-08
5.77665e-09
1.40843e-09
9.75325e-10
1.5238e-09
2.09251e-09
1.97943e-09
1.97692e-09
6.12495e-08
1.32616e-06
1.50382e-06
5.32496e-07
3.40742e-07
3.74636e-07
4.53137e-07
3.86312e-07
4.83691e-07
0.000137411
0.000118681
1.27984e-05
1.12822e-05
0.000214336
0.000111593
1.02092e-06
1.54413e-07
1.00489e-07
9.48647e-08
9.41346e-08
1.23502e-07
1.48453e-07
1.25809e-07
9.60877e-06
5.02485e-05
2.33478e-05
5.09344e-08
2.6946e-08
1.64194e-07
2.33139e-06
3.37756e-06
1.1584e-06
1.4344e-06
2.69226e-06
4.89687e-06
7.78515e-06
1.79431e-05
0.000294022
0.000458384
0.000458943
0.00045859
0.000459722
0.000458486
0.0004589
0.000356579
1.12817e-06
3.4791e-07
1.73379e-05
0.000260832
4.02192e-08
9.57462e-09
4.0131e-10
3.7144e-10
2.52421e-09
1.10891e-09
4.29206e-08
5.84194e-08
4.22729e-08
2.55775e-10
1.48196e-11
1.12298e-11
2.20748e-10
1.8453e-10
4.38616e-11
3.9617e-12
3.11318e-12
7.17963e-12
1.83846e-11
1.61287e-11
1.75793e-11
5.32708e-09
7.63925e-07
1.87084e-06
1.46011e-06
2.75343e-07
4.06008e-09
2.14619e-09
2.02531e-09
1.9766e-09
1.98212e-09
3.66679e-07
1.50382e-06
1.50382e-06
7.66102e-07
3.53069e-07
3.53894e-07
3.64777e-07
3.67682e-07
2.33741e-06
5.08438e-06
2.41632e-06
2.94787e-06
1.70233e-05
0.000209312
9.83828e-05
1.00433e-06
1.62535e-07
1.017e-07
9.57291e-08
9.5017e-08
9.94495e-08
1.11325e-07
1.21532e-07
7.88773e-05
0.000117877
5.23935e-05
1.00385e-07
4.13713e-08
2.85319e-07
5.91673e-06
8.8143e-06
3.64031e-06
1.37453e-05
1.674e-05
7.80234e-06
1.01517e-05
1.84824e-05
0.000230619
0.000458178
0.000458359
0.000458647
0.000458484
0.000460235
0.000405791
3.31643e-05
2.64825e-06
1.12816e-06
2.03388e-05
0.000267314
3.75114e-08
6.49924e-09
5.24674e-10
3.68462e-10
5.85238e-11
4.0334e-11
4.06681e-11
3.46544e-08
2.72916e-08
3.74317e-09
1.22077e-11
5.4925e-12
5.10544e-12
3.98182e-12
3.41702e-12
1.84761e-12
2.44876e-12
7.09263e-12
1.8597e-12
1.93837e-12
8.04311e-12
1.22102e-06
2.96226e-06
2.96392e-06
2.96298e-06
2.39039e-06
4.004e-07
5.88289e-09
2.50587e-09
2.03131e-09
1.9808e-09
2.03341e-09
9.07413e-07
9.12728e-07
3.53549e-07
3.53069e-07
3.49245e-07
3.53894e-07
3.64078e-07
4.6818e-07
5.8185e-07
1.01277e-06
2.14559e-06
9.50324e-05
0.00019888
0.00010016
2.40588e-05
4.08722e-05
1.5194e-05
1.02394e-07
9.57338e-08
1.05094e-07
1.19514e-07
3.65037e-05
0.000117893
0.000117885
5.21133e-05
1.29928e-07
6.02458e-08
1.09228e-06
8.54831e-06
9.32009e-06
1.08281e-05
3.20467e-05
3.18422e-05
1.54836e-05
1.40147e-05
1.41192e-05
6.77544e-05
0.000451368
0.000457319
0.000457131
0.00044889
0.000116345
4.37741e-05
4.54072e-06
3.36094e-06
3.05014e-06
0.000179463
0.000266931
6.86866e-09
2.57341e-09
6.30349e-10
1.24507e-10
7.65987e-11
5.99482e-11
5.27487e-11
7.46316e-13
4.45922e-13
1.3662e-09
3.67416e-10
6.84735e-12
1.65391e-12
1.45136e-12
7.08075e-13
7.87264e-13
2.26977e-12
3.77047e-12
1.56958e-12
1.66908e-12
9.82678e-07
2.95749e-06
2.96069e-06
2.96278e-06
2.96485e-06
2.9598e-06
1.6905e-06
3.88548e-08
6.31143e-09
2.51204e-09
2.04144e-09
2.3259e-09
5.07883e-09
1.97154e-08
4.7474e-08
3.9675e-06
4.01323e-05
5.82126e-06
3.67682e-07
5.16439e-07
6.66287e-07
9.02069e-07
7.54149e-05
0.000187188
0.000190831
9.69658e-05
8.90303e-05
8.8481e-05
4.54622e-05
2.08278e-07
1.2367e-07
1.19514e-07
2.24693e-05
0.000117893
0.000117893
0.000116152
2.09221e-05
6.02391e-08
1.78455e-08
3.62656e-06
9.61545e-06
9.23501e-06
1.59142e-05
3.20432e-05
3.2052e-05
3.11178e-05
1.51218e-05
1.04007e-05
1.0097e-05
0.000132306
0.000447718
0.000430816
5.42251e-05
1.99235e-05
1.77145e-05
1.21767e-05
9.89415e-06
0.000160901
0.000186906
0.00012563
2.26993e-09
5.7625e-10
6.94104e-11
6.68117e-11
9.64442e-11
8.05056e-11
1.3552e-10
2.18734e-11
1.24564e-13
7.72337e-14
8.27767e-14
3.88097e-13
6.50257e-13
3.46516e-13
1.1671e-13
5.91301e-13
2.3974e-12
1.18756e-12
9.22583e-13
1.4108e-12
2.71854e-06
2.9374e-06
2.95747e-06
2.96069e-06
2.9598e-06
2.93791e-06
1.06417e-06
1.92896e-07
1.02168e-07
4.90468e-09
2.32378e-09
2.44869e-09
2.65686e-09
5.33617e-06
5.40896e-05
0.000104513
0.000108304
9.79507e-05
1.65064e-06
6.66287e-07
9.02069e-07
9.46228e-05
0.000180966
0.00018431
0.000186694
8.48671e-05
8.97707e-05
8.49089e-05
3.49985e-05
1.4898e-06
2.29577e-07
5.12934e-05
0.000117298
0.000117595
0.000112489
2.70221e-05
1.0728e-06
1.78427e-08
3.99313e-09
2.747e-06
9.7799e-06
1.01734e-05
2.03185e-05
3.20512e-05
3.20432e-05
3.19984e-05
2.37831e-05
6.7665e-06
2.72626e-06
2.09878e-05
0.000263365
0.000386413
9.12953e-05
1.99584e-05
1.25049e-05
4.9311e-05
0.000166986
0.000166986
0.000145335
5.04675e-09
1.37754e-12
7.90359e-12
1.55144e-11
2.28523e-11
8.03284e-11
7.19712e-11
2.93313e-11
1.94493e-12
8.23619e-14
7.61621e-14
9.82856e-14
1.44876e-13
7.69053e-14
1.42099e-14
5.18123e-14
4.61758e-13
1.91151e-12
4.42548e-13
4.53299e-13
1.0195e-11
8.17271e-07
2.78258e-06
2.9374e-06
2.76954e-06
1.70475e-06
1.2674e-07
1.36846e-08
4.82075e-08
9.45562e-08
1.61451e-07
1.71969e-06
9.76018e-07
5.25526e-05
0.000103251
0.000106456
0.000108304
0.000109556
0.000110067
7.88255e-05
3.69741e-05
6.01711e-05
0.000114891
9.47085e-05
7.83958e-05
0.000115367
0.000100938
8.90092e-05
8.4529e-05
5.936e-05
4.49179e-05
8.98586e-05
0.000105307
0.000109266
7.0637e-05
1.4353e-05
2.49161e-07
3.6875e-08
3.99354e-09
7.14357e-10
6.50735e-07
4.28189e-06
3.9986e-06
2.34752e-05
3.20432e-05
3.19984e-05
3.19257e-05
3.17831e-05
1.72994e-05
1.21612e-06
9.93838e-08
1.44294e-05
0.000164717
0.000185702
5.41599e-05
7.26578e-06
4.23711e-05
0.000123408
9.02324e-05
2.32485e-06
8.27808e-10
1.3814e-12
1.11303e-11
5.36879e-12
5.57119e-12
3.2882e-11
2.67931e-11
8.08218e-12
6.02688e-13
7.29729e-14
4.02027e-14
1.66397e-14
8.55361e-15
3.80768e-15
2.16004e-15
4.47419e-14
2.99124e-13
6.24347e-13
3.89528e-13
4.44588e-11
2.38484e-08
2.40403e-09
3.3751e-07
6.93011e-07
7.36042e-09
4.86366e-09
7.80998e-09
1.00977e-08
1.36846e-08
4.71561e-08
2.62768e-05
7.49597e-05
7.49597e-05
7.49597e-05
5.59194e-05
8.23794e-05
9.94185e-05
7.76313e-05
0.000109556
0.000114292
0.000108888
7.16282e-05
4.55038e-05
2.92456e-05
2.43856e-05
4.10669e-05
8.29443e-05
8.20379e-05
6.03225e-05
3.21583e-05
6.51754e-05
7.78684e-05
5.78282e-05
1.78546e-05
1.65208e-06
1.17174e-07
2.63228e-08
4.87266e-09
7.99676e-10
1.01898e-10
7.14357e-10
1.80949e-08
8.97705e-09
1.24873e-05
3.16541e-05
3.19257e-05
3.17831e-05
3.12907e-05
2.50686e-05
8.10628e-07
7.47004e-08
4.16404e-08
3.60669e-08
7.63544e-06
2.00132e-05
6.26797e-06
6.59785e-06
2.91907e-06
2.91897e-07
1.22281e-08
2.55204e-10
2.99265e-13
1.52955e-12
5.99643e-13
7.55427e-13
6.36011e-12
4.35709e-12
8.4461e-13
4.68026e-14
2.36561e-14
1.35598e-14
4.85625e-15
8.98391e-16
1.47013e-16
9.83918e-16
3.09206e-14
1.4218e-13
3.38151e-13
3.46845e-13
4.09323e-10
7.04594e-10
9.31073e-10
2.68218e-09
4.33362e-09
4.39751e-09
4.39696e-09
4.86369e-09
9.74181e-09
4.3788e-08
4.13192e-05
7.43977e-05
7.44928e-05
2.89312e-05
1.67279e-05
1.50489e-05
1.6096e-05
1.98588e-05
2.3656e-05
4.42731e-05
0.000119588
6.11404e-05
6.14115e-05
7.06165e-05
5.98902e-05
1.66353e-05
7.64041e-06
5.36758e-05
2.38396e-05
3.66947e-06
2.14256e-06
9.59394e-06
5.32079e-06
8.0203e-07
1.14965e-07
3.73522e-08
1.0988e-08
2.48459e-09
5.88744e-10
1.22858e-10
1.31831e-11
1.01898e-10
1.2077e-09
8.60795e-10
7.9051e-08
6.56075e-06
2.16332e-05
2.50413e-05
9.96331e-06
2.35302e-06
3.63709e-06
5.30783e-08
3.78459e-08
2.47292e-08
1.70291e-09
4.38399e-09
5.23086e-07
1.18661e-08
5.47058e-09
1.32342e-10
6.29442e-13
2.83045e-12
2.25166e-14
1.32588e-13
6.16571e-14
9.26302e-14
6.25662e-13
3.7431e-13
6.49135e-14
1.55794e-14
8.69327e-15
4.00862e-15
1.22221e-15
2.21196e-16
4.73467e-17
6.63463e-16
1.5233e-14
9.8375e-14
4.21683e-13
5.23935e-13
5.59326e-10
5.85822e-10
2.44156e-09
5.05659e-09
4.39745e-09
4.39468e-09
4.86195e-09
9.68659e-09
5.27711e-08
1.68827e-05
6.93051e-05
5.33299e-05