/*--------------------------------*- C++ -*----------------------------------*\
| =========                 |                                                 |
| \\      /  F ield         | OpenFOAM: The Open Source CFD Toolbox           |
|  \\    /   O peration     | Version:  2412                                  |
|   \\  /    A nd           | Website:  www.openfoam.com                      |
|    \\/     M anipulation  |                                                 |
\*---------------------------------------------------------------------------*/
FoamFile
{
    version     2.0;
    format      ascii;
    arch        "LSB;label=32;scalar=64";
    class       surfaceScalarField;
    location    "9.85";
    object      alphaPhi0.honey;
}
// * * * * * * * * * * * * * * * * * * * * * * * * * * * * * * * * * * * * * //

dimensions      [0 3 -1 0 0 0 0];

oriented        oriented;

internalField   nonuniform List<scalar> 
12640
(
3.03168e-09
-3.04004e-09
8.45865e-09
-4.65037e-09
1.25524e-08
-3.34895e-09
1.36399e-08
-3.88821e-10
1.09911e-08
3.34911e-09
4.38672e-09
7.31072e-09
-6.08063e-09
1.11781e-08
-2.01171e-08
1.4746e-08
-3.73407e-08
1.79243e-08
-5.73009e-08
2.0637e-08
-7.95481e-08
2.28875e-08
-1.03605e-07
2.46506e-08
-1.29027e-07
2.59736e-08
-1.55342e-07
2.68323e-08
-1.82124e-07
2.72769e-08
-2.08922e-07
2.72607e-08
-2.3535e-07
2.68459e-08
-2.60981e-07
2.59837e-08
-2.85452e-07
2.47646e-08
-3.0833e-07
2.31281e-08
-3.29243e-07
2.11691e-08
-3.4774e-07
1.87922e-08
-3.63459e-07
1.60957e-08
-3.75957e-07
1.29681e-08
-3.84906e-07
9.53908e-09
-3.89896e-07
5.70351e-09
-3.90655e-07
1.63039e-09
-3.86836e-07
-2.77573e-09
-3.78276e-07
-7.30881e-09
-3.6476e-07
-1.20471e-08
-3.463e-07
-1.67463e-08
-3.22884e-07
-2.14601e-08
-2.9475e-07
-2.59175e-08
-2.62128e-07
-3.01582e-08
-2.25487e-07
-3.39171e-08
-1.85284e-07
-3.72431e-08
-1.42173e-07
-3.99127e-08
-9.67711e-08
-4.19982e-08
-4.98373e-08
-4.33336e-08
-2.0737e-09
-4.40076e-08
4.57286e-08
-4.39107e-08
9.28397e-08
-4.31344e-08
1.38489e-07
-4.16197e-08
1.81965e-07
-3.9452e-08
2.22576e-07
-3.66262e-08
2.59709e-07
-3.32352e-08
2.92837e-07
-2.93462e-08
3.21526e-07
-2.50687e-08
3.45472e-07
-2.05219e-08
3.64462e-07
-1.58002e-08
3.78443e-07
-1.10414e-08
3.87438e-07
-6.32399e-09
3.91617e-07
-1.79951e-09
3.91167e-07
2.49254e-09
3.86377e-07
6.45271e-09
3.77517e-07
1.01286e-08
3.64968e-07
1.34722e-08
3.49102e-07
1.6535e-08
3.30378e-07
1.92249e-08
3.09208e-07
2.15483e-08
2.86033e-07
2.34151e-08
2.61226e-07
2.48744e-08
2.35202e-07
2.59017e-08
2.08351e-07
2.65735e-08
1.81123e-07
2.68615e-08
1.53949e-07
2.67974e-08
1.273e-07
2.63216e-08
1.01619e-07
2.54396e-08
7.738e-08
2.40978e-08
5.50391e-08
2.23055e-08
3.50786e-08
2.00307e-08
1.79538e-08
1.72992e-08
4.10989e-09
1.41197e-08
-6.07572e-09
1.05658e-08
-1.23165e-08
6.73081e-09
-1.45324e-08
2.81838e-09
-1.29891e-08
-8.38666e-10
-8.5751e-09
-3.644e-09
-3.19398e-09
-4.64469e-09
-2.7587e-09
5.34163e-09
-7.70966e-09
1.29792e-08
-1.08345e-08
1.64707e-08
-5.46235e-09
1.25114e-08
4.90626e-09
-5.67361e-10
1.77701e-08
-2.3393e-08
3.14823e-08
-5.58337e-08
4.49584e-08
-9.73081e-08
5.75463e-08
-1.46904e-07
6.88215e-08
-2.0357e-07
7.85717e-08
-2.66121e-07
8.66498e-08
-3.33386e-07
9.30456e-08
-4.04122e-07
9.77355e-08
-4.77163e-07
1.00797e-07
-5.51271e-07
1.02221e-07
-6.25312e-07
1.02093e-07
-6.98074e-07
1.00376e-07
-7.68484e-07
9.71617e-08
-8.35353e-07
9.24014e-08
-8.97644e-07
8.62083e-08
-9.54152e-07
7.85118e-08
-1.00385e-06
6.94319e-08
-1.04552e-06
5.88696e-08
-1.0782e-06
4.69714e-08
-1.10073e-06
3.36537e-08
-1.11227e-06
1.91375e-08
-1.11181e-06
3.39864e-09
-1.09875e-06
-1.32376e-08
-1.07236e-06
-3.07077e-08
-1.03241e-06
-4.85671e-08
-9.78646e-07
-6.66477e-08
-9.11381e-07
-8.43954e-08
-8.30961e-07
-1.0156e-07
-7.3834e-07
-1.17542e-07
-6.34507e-07
-1.32089e-07
-5.21001e-07
-1.4467e-07
-3.99349e-07
-1.55121e-07
-2.71499e-07
-1.63065e-07
-1.39324e-07
-1.68459e-07
-4.96963e-09
-1.71088e-07
1.29539e-07
-1.71001e-07
2.62037e-07
-1.68122e-07
3.90502e-07
-1.62569e-07
5.12907e-07
-1.54402e-07
6.27399e-07
-1.4382e-07
7.32284e-07
-1.31046e-07
8.26105e-07
-1.16396e-07
9.0772e-07
-1.00264e-07
9.76241e-07
-8.30439e-08
1.03117e-06
-6.52019e-08
1.07223e-06
-4.71025e-08
1.09956e-06
-2.91902e-08
1.11347e-06
-1.17579e-08
1.11459e-06
4.81777e-09
1.10359e-06
2.03756e-08
1.08137e-06
3.46931e-08
1.04879e-06
4.77746e-08
1.00696e-06
5.95045e-08
9.56922e-07
6.99124e-08
8.99905e-07
7.88627e-08
8.3702e-07
8.63627e-08
7.69477e-07
9.2311e-08
6.98355e-07
9.67703e-08
6.24844e-07
9.97018e-08
5.50064e-07
1.01171e-07
4.75253e-07
1.01116e-07
4.01593e-07
9.95424e-08
3.30344e-07
9.63596e-08
2.62712e-07
9.1556e-08
1.99954e-07
8.50675e-08
1.43263e-07
7.69194e-08
9.38251e-08
6.71286e-08
5.26826e-08
5.58331e-08
2.07283e-08
4.32447e-08
-1.4779e-09
2.97905e-08
-1.38428e-08
1.61492e-08
-1.70786e-08
3.45904e-09
-1.30824e-08
-6.54011e-09
-5.42441e-09
-1.13001e-08
-7.6228e-09
4.63073e-09
-1.1709e-08
9.04464e-09
-1.37237e-08
6.00281e-09
-9.67962e-10
-8.30564e-09
2.063e-08
-3.59313e-08
4.68221e-08
-7.76327e-08
7.46179e-08
-1.33252e-07
1.02013e-07
-2.01949e-07
1.27667e-07
-2.82479e-07
1.50763e-07
-3.73272e-07
1.7076e-07
-4.7265e-07
1.87397e-07
-5.7879e-07
2.00506e-07
-6.89922e-07
2.10104e-07
-8.04183e-07
2.16186e-07
-9.19812e-07
2.18874e-07
-1.03494e-06
2.18171e-07
-1.14785e-06
2.14197e-07
-1.25667e-06
2.0691e-07
-1.35975e-06
1.96429e-07
-1.45526e-06
1.82691e-07
-1.54157e-06
1.6584e-07
-1.61686e-06
1.458e-07
-1.67955e-06
1.2275e-07
-1.72784e-06
9.66262e-08
-1.7603e-06
6.76923e-08
-1.7753e-06
3.59726e-08
-1.77167e-06
1.8973e-09
-1.74813e-06
-3.43413e-08
-1.70396e-06
-7.20856e-08
-1.63846e-06
-1.10921e-07
-1.55163e-06
-1.49943e-07
-1.44358e-06
-1.88518e-07
-1.31526e-06
-2.25564e-07
-1.16775e-06
-2.6034e-07
-1.00297e-06
-2.91775e-07
-8.22973e-07
-3.19228e-07
-6.30452e-07
-3.41862e-07
-4.28152e-07
-3.59298e-07
-2.19255e-07
-3.71032e-07
-6.88159e-09
-3.7695e-07
2.05616e-07
-3.7684e-07
4.15011e-07
-3.70782e-07
6.18042e-07
-3.5883e-07
8.11628e-07
-3.41261e-07
9.9286e-07
-3.18428e-07
1.1591e-06
-2.90855e-07
1.30813e-06
-2.59239e-07
1.4381e-06
-2.24361e-07
1.54776e-06
-1.87173e-07
1.63621e-06
-1.4854e-07
1.70317e-06
-1.09423e-07
1.74865e-06
-7.0552e-08
1.77328e-06
-3.27398e-08
1.77786e-06
3.47749e-09
1.76357e-06
3.74843e-08
1.73168e-06
6.89999e-08
1.68368e-06
9.76857e-08
1.62102e-06
1.23513e-07
1.54544e-06
1.46308e-07
1.45862e-06
1.66096e-07
1.36243e-06
1.82707e-07
1.25862e-06
1.96157e-07
1.14902e-06
2.06328e-07
1.03536e-06
2.1328e-07
9.19458e-07
2.16938e-07
8.0309e-07
2.1734e-07
6.88145e-07
2.14381e-07
5.76436e-07
2.08049e-07
4.69864e-07
1.98238e-07
3.70235e-07
1.84963e-07
2.79381e-07
1.68221e-07
1.9898e-07
1.48167e-07
1.30586e-07
1.25047e-07
7.54197e-08
9.93839e-08
3.42887e-08
7.20083e-08
7.29567e-09
4.43113e-08
-6.4042e-09
1.84009e-08
-9.06416e-09
-2.59973e-09
-4.71777e-09
-1.44281e-08
-1.16053e-08
2.12337e-09
-1.31798e-08
-3.94307e-13
-9.87787e-09
-1.34038e-08
1.40775e-08
-4.17528e-08
5.05758e-08
-8.69541e-08
9.36304e-08
-1.49658e-07
1.38936e-07
-2.29477e-07
1.83444e-07
-3.25341e-07
2.25126e-07
-4.35621e-07
2.62616e-07
-5.58405e-07
2.95098e-07
-6.91505e-07
3.22037e-07
-8.32699e-07
3.43217e-07
-9.79638e-07
3.58507e-07
-1.13007e-06
3.67988e-07
-1.28162e-06
3.71684e-07
-1.43207e-06
3.69764e-07
-1.57903e-06
3.6223e-07
-1.72029e-06
3.49231e-07
-1.85349e-06
3.30706e-07
-1.9765e-06
3.06806e-07
-2.08697e-06
2.77457e-07
-2.18283e-06
2.42863e-07
-2.26178e-06
2.02975e-07
-2.32184e-06
1.58095e-07
-2.36083e-06
1.08265e-07
-2.37704e-06
5.3978e-08
-2.36858e-06
-4.50882e-09
-2.33421e-06
-6.63863e-08
-2.2726e-06
-1.31061e-07
-2.18326e-06
-1.97316e-07
-2.06576e-06
-2.6416e-07
-1.92066e-06
-3.29989e-07
-1.74876e-06
-3.93494e-07
-1.55188e-06
-4.52892e-07
-1.33215e-06
-5.06849e-07
-1.09263e-06
-5.53782e-07
-8.3652e-07
-5.92699e-07
-5.67744e-07
-6.22533e-07
-2.90216e-07
-6.42793e-07
-8.2501e-09
-6.52958e-07
2.7393e-07
-6.52937e-07
5.51959e-07
-6.42645e-07
8.21644e-07
-6.22323e-07
1.0789e-06
-5.92337e-07
1.31991e-06
-5.53339e-07
1.54127e-06
-5.06246e-07
1.73996e-06
-4.5219e-07
1.91371e-06
-3.9262e-07
2.06073e-06
-3.29013e-07
2.18008e-06
-2.63045e-07
2.2712e-06
-1.9614e-07
2.33437e-06
-1.29777e-07
2.37006e-06
-6.50311e-08
2.37957e-06
-3.04392e-09
2.36426e-06
5.5462e-08
2.32597e-06
1.0969e-07
2.26642e-06
1.59295e-07
2.18769e-06
2.03867e-07
2.09174e-06
2.43385e-07
1.98089e-06
2.77641e-07
1.85732e-06
3.06667e-07
1.72344e-06
3.3027e-07
1.58148e-06
3.48472e-07
1.43383e-06
3.61127e-07
1.28269e-06
3.68278e-07
1.13045e-06
3.69806e-07
9.79365e-07
3.65719e-07
8.31862e-07
3.55883e-07
6.90242e-07
3.40296e-07
5.56873e-07
3.18903e-07
4.33978e-07
2.91838e-07
3.23734e-07
2.59306e-07
2.2804e-07
2.21811e-07
1.48508e-07
1.8015e-07
8.6172e-08
1.35696e-07
4.1364e-08
9.05447e-08
1.33566e-08
4.78828e-08
8.62557e-11
1.21773e-08
-2.27073e-09
-1.06031e-08
-1.29489e-08
-1.24767e-09
-1.11469e-08
-1.18872e-08
2.80294e-09
-3.81518e-08
4.22738e-08
-8.30267e-08
9.73216e-08
-1.47957e-07
1.60434e-07
-2.3315e-07
2.26009e-07
-3.37884e-07
2.90053e-07
-4.60675e-07
3.49767e-07
-5.99588e-07
4.03336e-07
-7.52273e-07
4.49549e-07
-9.1624e-07
4.8774e-07
-1.08879e-06
5.17486e-07
-1.26728e-06
5.38693e-07
-1.44896e-06
5.51301e-07
-1.63122e-06
5.55472e-07
-1.81129e-06
5.5125e-07
-1.9866e-06
5.38844e-07
-2.15438e-06
5.18239e-07
-2.31207e-06
4.89613e-07
-2.45692e-06
4.52889e-07
-2.58647e-06
4.08272e-07
-2.69799e-06
3.55706e-07
-2.78913e-06
2.95504e-07
-2.85726e-06
2.27707e-07
-2.9002e-06
1.52831e-07
-2.91554e-06
7.11352e-08
-2.9015e-06
-1.65145e-08
-2.85615e-06
-1.09458e-07
-2.77837e-06
-2.06302e-07
-2.66703e-06
-3.05818e-07
-2.52208e-06
-4.05987e-07
-2.34364e-06
-5.04986e-07
-2.13308e-06
-6.00295e-07
-1.89213e-06
-6.89768e-07
-1.62376e-06
-7.70847e-07
-1.33126e-06
-8.41623e-07
-1.01891e-06
-9.00118e-07
-6.91127e-07
-9.45148e-07
-3.52931e-07
-9.75602e-07
-9.29686e-09
-9.91031e-07
3.34503e-07
-9.91045e-07
6.73331e-07
-9.75715e-07
1.00205e-06
-9.45249e-07
1.31573e-06
-9.00255e-07
1.60979e-06
-8.41685e-07
1.88002e-06
-7.70879e-07
2.12292e-06
-6.89663e-07
2.33558e-06
-6.00085e-07
2.51609e-06
-5.0458e-07
2.66315e-06
-4.05462e-07
2.77647e-06
-3.0514e-07
2.85611e-06
-2.05549e-07
2.90301e-06
-1.08572e-07
2.91829e-06
-1.55057e-08
2.90393e-06
7.23055e-08
2.86178e-06
1.54056e-07
2.79429e-06
2.28869e-07
2.70357e-06
2.96407e-07
2.59218e-06
3.56261e-07
2.4625e-06
4.08418e-07
2.31726e-06
4.52665e-07
2.15905e-06
4.89038e-07
1.99068e-06
5.17326e-07
1.81475e-06
5.37548e-07
1.63403e-06
5.49529e-07
1.45114e-06
5.53286e-07
1.26885e-06
5.48656e-07
1.08983e-06
5.35633e-07
9.16866e-07
5.14091e-07
7.52606e-07
4.84107e-07
5.99734e-07
4.45782e-07
4.6072e-07
3.99529e-07
3.37907e-07
3.45995e-07
2.33223e-07
2.86367e-07
1.48133e-07
2.22461e-07
8.33077e-08
1.57136e-07
3.84812e-08
9.45269e-08
1.20914e-08
4.04064e-08
1.06362e-09
2.23197e-09
-1.07558e-08
-4.97703e-09
-5.19029e-09
-2.52237e-08
2.54724e-08
-6.5842e-08
8.51695e-08
-1.28855e-07
1.62525e-07
-2.14884e-07
2.48647e-07
-3.23523e-07
3.36834e-07
-4.53442e-07
4.22156e-07
-6.02725e-07
5.0121e-07
-7.68949e-07
5.71668e-07
-9.49469e-07
6.32107e-07
-1.14137e-06
6.81617e-07
-1.34175e-06
7.19792e-07
-1.54754e-06
7.46386e-07
-1.75583e-06
7.61461e-07
-1.96358e-06
7.65031e-07
-2.16796e-06
7.57329e-07
-2.36595e-06
7.38402e-07
-2.55474e-06
7.08488e-07
-2.7313e-06
6.67555e-07
-2.89286e-06
6.15821e-07
-3.03642e-06
5.53218e-07
-3.15935e-06
4.80045e-07
-3.25868e-06
3.96315e-07
-3.33193e-06
3.02521e-07
-3.37632e-06
1.98886e-07
-3.38962e-06
8.62499e-08
-3.36936e-06
-3.47712e-08
-3.31384e-06
-1.62767e-07
-3.22122e-06
-2.96468e-07
-3.09068e-06
-4.3366e-07
-2.92149e-06
-5.72214e-07
-2.71419e-06
-7.09037e-07
-2.46973e-06
-8.41232e-07
-2.19049e-06
-9.65195e-07
-1.87937e-06
-1.07788e-06
-1.54062e-06
-1.17603e-06
-1.1788e-06
-1.25736e-06
-7.99384e-07
-1.31977e-06
-4.07867e-07
-1.36213e-06
-1.02209e-08
-1.38352e-06
3.87686e-07
-1.38367e-06
7.79831e-07
-1.36251e-06
1.16035e-06
-1.32041e-06
1.52355e-06
-1.25812e-06
1.86407e-06
-1.17692e-06
2.17714e-06
-1.07876e-06
2.45857e-06
-9.66054e-07
2.70529e-06
-8.41922e-07
2.91487e-06
-7.09562e-07
3.08631e-06
-5.72483e-07
3.21907e-06
-4.3376e-07
3.31374e-06
-2.96384e-07
3.3711e-06
-1.62574e-07
3.39283e-06
-3.44047e-08
3.38065e-06
8.67938e-08
3.33717e-06
1.99632e-07
3.26458e-06
3.03347e-07
3.16581e-06
3.97073e-07
3.04322e-06
4.80546e-07
2.89977e-06
5.53369e-07
2.73805e-06
6.15573e-07
2.56114e-06
6.66924e-07
2.37186e-06
7.07464e-07
2.17331e-06
7.36962e-07
1.96832e-06
7.55425e-07
1.75996e-06
7.62641e-07
1.55109e-06
7.58595e-07
1.34479e-06
7.43101e-07
1.14399e-06
7.16167e-07
9.51743e-07
6.77748e-07
7.70927e-07
6.28096e-07
6.04442e-07
5.67628e-07
4.54923e-07
4.97254e-07
3.24799e-07
4.1838e-07
2.15976e-07
3.33325e-07
1.29759e-07
2.45523e-07
6.65163e-08
1.60016e-07
2.55524e-08
8.36508e-08
4.79125e-09
2.52295e-08
-4.61949e-09
-8.81758e-09
4.83831e-09
-3.9174e-08
5.86747e-08
-9.50008e-08
1.43653e-07
-1.77078e-07
2.47143e-07
-2.85036e-07
3.59116e-07
-4.17545e-07
4.7185e-07
-5.72587e-07
5.79703e-07
-7.4757e-07
6.78684e-07
-9.39644e-07
7.66188e-07
-1.1457e-06
8.40529e-07
-1.36261e-06
9.00794e-07
-1.58711e-06
9.46474e-07
-1.81608e-06
9.77462e-07
-2.04624e-06
9.93699e-07
-2.27457e-06
9.95389e-07
-2.49789e-06
9.82596e-07
-2.71327e-06
9.55607e-07
-2.91753e-06
9.14455e-07
-3.10779e-06
8.59411e-07
-3.28089e-06
7.90435e-07
-3.434e-06
7.07825e-07
-3.56401e-06
6.11559e-07
-3.66825e-06
5.02088e-07
-3.74368e-06
3.79561e-07
-3.78786e-06
2.44743e-07
-3.79792e-06
9.81274e-08
-3.77176e-06
-5.89893e-08
-3.70691e-06
-2.25485e-07
-3.60185e-06
-3.99211e-07
-3.4549e-06
-5.78052e-07
-3.26565e-06
-7.58686e-07
-3.03388e-06
-9.37777e-07
-2.76098e-06
-1.11086e-06
-2.44889e-06
-1.27376e-06
-2.10128e-06
-1.42171e-06
-1.7224e-06
-1.55089e-06
-1.31786e-06
-1.65768e-06
-8.93444e-07
-1.73978e-06
-4.55669e-07
-1.79534e-06
-1.09543e-08
-1.82351e-06
4.3397e-07
-1.82375e-06
8.72509e-07
-1.79613e-06
1.29805e-06
-1.74101e-06
1.70417e-06
-1.65935e-06
2.08489e-06
-1.55282e-06
2.43468e-06
-1.42383e-06
2.74909e-06
-1.27586e-06
3.02446e-06
-1.11288e-06
3.25868e-06
-9.39516e-07
3.45032e-06
-7.60137e-07
3.59962e-06
-5.79139e-07
3.70693e-06
-4.00041e-07
3.77384e-06
-2.26075e-07
3.80176e-06
-5.94164e-08
3.79303e-06
9.79251e-08
3.74982e-06
2.44775e-07
3.67514e-06
3.79837e-07
3.57152e-06
5.02473e-07
3.44199e-06
6.11898e-07
3.28916e-06
7.07936e-07
3.11611e-06
7.90218e-07
2.92566e-06
8.58798e-07
2.72101e-06
9.13427e-07
2.50512e-06
9.54135e-07
2.28123e-06
9.8066e-07
2.05232e-06
9.92981e-07
1.8216e-06
9.90844e-07
1.59213e-06
9.74209e-07
1.36715e-06
9.4289e-07
1.1498e-06
8.96962e-07
9.43329e-07
8.36545e-07
7.50831e-07
7.62196e-07
5.75419e-07
6.74834e-07
4.19934e-07
5.76148e-07
2.86971e-07
4.68714e-07
1.78542e-07
3.56525e-07
9.59815e-08
2.45273e-07
3.96222e-08
1.42772e-07
8.6578e-09
5.89182e-08
5.60948e-09
-1.26336e-08
1.89347e-08
-5.33418e-08
1.02659e-07
-1.2482e-07
2.18181e-07
-2.2652e-07
3.51745e-07
-3.5679e-07
4.92235e-07
-5.13267e-07
6.31143e-07
-6.92961e-07
7.62208e-07
-8.92611e-07
8.8114e-07
-1.10872e-06
9.85086e-07
-1.33787e-06
1.07239e-06
-1.57657e-06
1.1421e-06
-1.82151e-06
1.19388e-06
-2.06928e-06
1.22759e-06
-2.31672e-06
1.24341e-06
-2.56053e-06
1.24141e-06
-2.79772e-06
1.22192e-06
-3.02507e-06
1.185e-06
-3.2397e-06
1.13099e-06
-3.43842e-06
1.05991e-06
-3.61839e-06
9.72078e-07
-3.77645e-06
8.67489e-07
-3.90989e-06
7.46563e-07
-4.0156e-06
6.09386e-07
-4.09105e-06
4.5662e-07
-4.13322e-06
2.88614e-07
-4.13982e-06
1.06476e-07
-4.10799e-06
-8.89318e-08
-4.03572e-06
-2.95743e-07
-3.92057e-06
-5.12166e-07
-3.76117e-06
-7.35088e-07
-3.55603e-06
-9.61243e-07
-3.30517e-06
-1.18584e-06
-3.00909e-06
-1.40394e-06
-2.67021e-06
-1.60942e-06
-2.29182e-06
-1.79667e-06
-1.8791e-06
-1.95996e-06
-1.43778e-06
-2.09515e-06
-9.74751e-07
-2.1988e-06
-4.96877e-07
-2.26907e-06
-1.1518e-08
-2.3046e-06
4.7414e-07
-2.30504e-06
9.52748e-07
-2.27027e-06
1.41706e-06
-2.20083e-06
1.86002e-06
-2.09784e-06
2.27481e-06
-1.96325e-06
2.65549e-06
-1.80027e-06
2.99693e-06
-1.6132e-06
3.2956e-06
-1.40761e-06
3.54907e-06
-1.18926e-06
3.75673e-06
-9.64205e-07
3.91852e-06
-7.37562e-07
4.03602e-06
-5.14112e-07
4.11045e-06
-2.97307e-07
4.14424e-06
-9.01785e-08
4.13924e-06
1.05471e-07
4.09821e-06
2.87902e-07
4.02359e-06
4.56208e-07
3.91851e-06
6.09266e-07
3.78558e-06
7.46593e-07
3.62788e-06
8.675e-07
3.44808e-06
9.7189e-07
3.24931e-06
1.0594e-06
3.03441e-06
1.1301e-06
2.80662e-06
1.18368e-06
2.56892e-06
1.22017e-06
2.32457e-06
1.23923e-06
2.07659e-06
1.24082e-06
1.82829e-06
1.22462e-06
1.58282e-06
1.19059e-06
1.34357e-06
1.13855e-06
1.11387e-06
1.06871e-06
8.97202e-07
9.8142e-07
6.96972e-07
8.77697e-07
5.16651e-07
7.59184e-07
3.59488e-07
6.287e-07
2.28493e-07
4.90485e-07
1.26075e-07
3.50805e-07
5.39071e-08
2.18172e-07
1.25133e-08
1.03526e-07
1.99282e-08
-1.64147e-08
3.70617e-08
-6.76074e-08
1.57537e-07
-1.55092e-07
3.09093e-07
-2.76767e-07
4.76673e-07
-4.29563e-07
6.48198e-07
-6.09772e-07
8.14456e-07
-8.13398e-07
9.68897e-07
-1.03627e-06
1.10707e-06
-1.27439e-06
1.22625e-06
-1.52382e-06
1.32483e-06
-1.78096e-06
1.40217e-06
-2.04228e-06
1.45797e-06
-2.3045e-06
1.49243e-06
-2.56432e-06
1.5057e-06
-2.81869e-06
1.49815e-06
-3.06445e-06
1.46995e-06
-3.29872e-06
1.42145e-06
-3.51842e-06
1.35276e-06
-3.72082e-06
1.26422e-06
-3.90282e-06
1.15589e-06
-4.06183e-06
1.02819e-06
-4.19481e-06
8.81177e-07
-4.29929e-06
7.15465e-07
-4.37233e-06
5.31275e-07
-4.4116e-06
3.29539e-07
-4.41425e-06
1.10832e-07
-4.37805e-06
-1.2335e-07
-4.30017e-06
-3.71732e-07
-4.17856e-06
-6.31765e-07
-4.01066e-06
-9.00798e-07
-3.7951e-06
-1.17444e-06
-3.53056e-06
-1.44783e-06
-3.2176e-06
-1.71418e-06
-2.85767e-06
-1.96645e-06
-2.45466e-06
-2.19659e-06
-2.01358e-06
-2.39777e-06
-1.54129e-06
-2.56398e-06
-1.04495e-06
-2.69153e-06
-5.3252e-07
-2.77777e-06
-1.17883e-08
-2.82154e-06
5.09166e-07
-2.82211e-06
1.02242e-06
-2.77956e-06
1.52004e-06
-2.69441e-06
1.99416e-06
-2.56795e-06
2.43741e-06
-2.40256e-06
2.84295e-06
-2.20202e-06
3.20554e-06
-1.97215e-06
3.52129e-06
-1.71992e-06
3.78853e-06
-1.45325e-06
4.00668e-06
-1.17936e-06
4.17698e-06
-9.04984e-07
4.30096e-06
-6.3521e-07
4.38101e-06
-3.74456e-07
4.41921e-06
-1.25548e-07
4.41826e-06
1.09057e-07
4.38031e-06
3.28112e-07
4.30822e-06
5.30233e-07
4.20442e-06
7.14801e-07
4.07194e-06
8.80846e-07
3.9133e-06
1.02804e-06
3.73152e-06
1.15574e-06
3.52915e-06
1.2639e-06
3.30928e-06
1.35215e-06
3.07467e-06
1.4205e-06
2.82848e-06
1.46863e-06
2.57362e-06
1.49646e-06
2.31328e-06
1.50363e-06
2.05049e-06
1.48999e-06
1.78858e-06
1.45519e-06
1.53079e-06
1.39914e-06
1.28072e-06
1.3217e-06
1.04195e-06
1.22321e-06
8.18393e-07
1.10436e-06
6.14004e-07
9.66737e-07
4.32931e-07
8.13009e-07
2.79196e-07
6.47564e-07
1.56605e-07
4.76889e-07
6.82899e-08
3.10131e-07
1.63494e-08
1.59128e-07
3.83008e-08
-2.01881e-08
5.91985e-08
-8.21463e-08
2.23531e-07
-1.86071e-07
4.16775e-07
-3.28176e-07
6.22345e-07
-5.03613e-07
8.27103e-07
-7.07215e-07
1.02142e-06
-9.33703e-07
1.19867e-06
-1.1781e-06
1.3547e-06
-1.43569e-06
1.48707e-06
-1.70233e-06
1.59467e-06
-1.97412e-06
1.6771e-06
-2.24765e-06
1.73453e-06
-2.51959e-06
1.76724e-06
-2.78696e-06
1.77575e-06
-3.04665e-06
1.76038e-06
-3.29591e-06
1.72161e-06
-3.53179e-06
1.65961e-06
-3.7517e-06
1.57481e-06
-3.95276e-06
1.4673e-06
-4.13253e-06
1.33754e-06
-4.28821e-06
1.18562e-06
-4.41751e-06
1.01213e-06
-4.51771e-06
8.17271e-07
-4.58672e-06
6.01853e-07
-4.62182e-06
3.66253e-07
-4.62104e-06
1.11644e-07
-4.5815e-06
-1.6121e-07
-4.50102e-06
-4.50468e-07
-4.3765e-06
-7.54427e-07
-4.20558e-06
-1.06975e-06
-3.98526e-06
-1.39262e-06
-3.71396e-06
-1.71685e-06
-3.39048e-06
-2.03521e-06
-3.01623e-06
-2.3381e-06
-2.59421e-06
-2.61587e-06
-2.13039e-06
-2.8587e-06
-1.63177e-06
-3.05952e-06
-1.1068e-06
-3.21327e-06
-5.63847e-07
-3.31739e-06
-1.18399e-08
-3.37017e-06
5.40472e-07
-3.37102e-06
1.0842e-06
-3.31982e-06
1.61057e-06
-3.21728e-06
2.11106e-06
-3.06487e-06
2.57727e-06
-2.86525e-06
3.00191e-06
-2.62324e-06
3.37902e-06
-2.34602e-06
3.70537e-06
-2.04319e-06
3.97952e-06
-1.72459e-06
4.20245e-06
-1.39972e-06
4.37577e-06
-1.076e-06
4.50254e-06
-7.59622e-07
4.58504e-06
-4.54664e-07
4.62645e-06
-1.64508e-07
4.62897e-06
1.09026e-07
4.59525e-06
3.64189e-07
4.52731e-06
6.00265e-07
4.42784e-06
8.16167e-07
4.29904e-06
1.01148e-06
4.14372e-06
1.18532e-06
3.96416e-06
1.33745e-06
3.76317e-06
1.46723e-06
3.54317e-06
1.57462e-06
3.30705e-06
1.6592e-06
3.05743e-06
1.72092e-06
2.7973e-06
1.75937e-06
2.52942e-06
1.7744e-06
2.25691e-06
1.76552e-06
1.98273e-06
1.73248e-06
1.71025e-06
1.67482e-06
1.44291e-06
1.59236e-06
1.18461e-06
1.48494e-06
9.39467e-07
1.35302e-06
7.12127e-07
1.19766e-06
5.07531e-07
1.02124e-06
3.31004e-07
8.27798e-07
1.87828e-07
6.23886e-07
8.29647e-08
4.18977e-07
2.01963e-08
2.25917e-07
6.07001e-08
-2.40947e-08
8.54502e-08
-9.73661e-08
3.01106e-07
-2.18571e-07
5.41985e-07
-3.81793e-07
7.89383e-07
-5.80148e-07
1.02917e-06
-8.06631e-07
1.2515e-06
-1.0547e-06
1.45021e-06
-1.3184e-06
1.62177e-06
-1.59261e-06
1.76459e-06
-1.87279e-06
1.87815e-06
-2.15517e-06
1.96273e-06
-2.43627e-06
2.0188e-06
-2.71314e-06
2.04713e-06
-2.98284e-06
2.04829e-06
-3.24277e-06
2.02297e-06
-3.49019e-06
1.97151e-06
-3.72272e-06
1.89446e-06
-3.9377e-06
1.79198e-06
-4.13295e-06
1.66458e-06
-4.30591e-06
1.5124e-06
-4.45462e-06
1.33608e-06
-4.57665e-06
1.13581e-06
-4.67025e-06
9.12433e-07
-4.73312e-06
6.66249e-07
-4.76368e-06
3.98277e-07
-4.75947e-06
1.08953e-07
-4.71871e-06
-2.00449e-07
-4.63842e-06
-5.29155e-07
-4.51606e-06
-8.75131e-07
-4.34776e-06
-1.23628e-06
-4.13025e-06
-1.60826e-06
-3.85959e-06
-1.98547e-06
-3.53374e-06
-2.35889e-06
-3.15194e-06
-2.71757e-06
-2.71732e-06
-3.04805e-06
-2.23543e-06
-3.33804e-06
-1.71474e-06
-3.57753e-06
-1.16405e-06
-3.76112e-06
-5.93112e-07
-3.88536e-06
-1.1658e-08
-3.94861e-06
5.70044e-07
-3.94974e-06
1.14189e-06
-3.88876e-06
1.69401e-06
-3.76644e-06
2.21675e-06
-3.58461e-06
2.70109e-06
-3.34648e-06
3.13853e-06
-3.05766e-06
3.52328e-06
-2.72779e-06
3.85212e-06
-2.36932e-06
4.12567e-06
-1.99556e-06
4.34588e-06
-1.61766e-06
4.51653e-06
-1.24465e-06
4.6409e-06
-8.82307e-07
4.72301e-06
-5.34999e-07
4.76543e-06
-2.05074e-07
4.77116e-06
1.05395e-07
4.742e-06
3.95557e-07
4.68022e-06
6.64226e-07
4.5874e-06
9.11013e-07
4.46588e-06
1.13496e-06
4.31751e-06
1.33573e-06
4.14474e-06
1.51244e-06
3.94958e-06
1.66484e-06
3.73456e-06
1.79231e-06
3.50186e-06
1.89473e-06
3.25416e-06
1.97161e-06
2.99382e-06
2.02282e-06
2.72364e-06
2.04782e-06
2.44619e-06
2.04632e-06
2.16445e-06
2.01768e-06
1.88138e-06
1.96143e-06
1.6005e-06
1.87688e-06
1.32555e-06
1.76361e-06
1.06105e-06
1.62135e-06
8.12047e-07
1.45057e-06
5.84487e-07
1.25277e-06
3.84945e-07
1.03136e-06
2.20566e-07
7.92363e-07
9.83471e-08
5.45427e-07
2.42134e-08
3.04323e-07
8.72234e-08
-2.8342e-08
1.16128e-07
-1.14076e-07
3.91307e-07
-2.53999e-07
6.86051e-07
-4.3957e-07
9.78907e-07
-6.61263e-07
1.25473e-06
-9.10083e-07
1.50409e-06
-1.17802e-06
1.72177e-06
-1.4584e-06
1.90563e-06
-1.74564e-06
2.05519e-06
-2.03529e-06
2.17109e-06
-2.32355e-06
2.25423e-06
-2.60737e-06
2.30579e-06
-2.88392e-06
2.32675e-06
-3.15082e-06
2.31809e-06
-3.40559e-06
2.28045e-06
-3.64613e-06
2.21456e-06
-3.87007e-06
2.12073e-06
-4.07549e-06
1.99954e-06
-4.26015e-06
1.85123e-06
-4.42238e-06
1.67646e-06
-4.56011e-06
1.47551e-06
-4.67198e-06
1.24926e-06
-4.75617e-06
9.98095e-07
-4.8116e-06
7.23065e-07
-4.83651e-06
4.24557e-07
-4.82985e-06
1.03621e-07
-4.78941e-06
-2.39508e-07
-4.71335e-06
-6.03811e-07
-4.59812e-06
-9.88894e-07
-4.44005e-06
-1.39283e-06
-4.23355e-06
-1.8131e-06
-3.97352e-06
-2.24379e-06
-3.65435e-06
-2.6761e-06
-3.27384e-06
-3.09604e-06
-2.83289e-06
-3.48685e-06
-2.33794e-06
-3.83076e-06
-1.79781e-06
-4.11535e-06
-1.22286e-06
-4.33361e-06
-6.23482e-07
-4.48211e-06
-1.14554e-08
-4.55791e-06
6.00988e-07
-4.55951e-06
1.20141e-06
-4.48663e-06
1.77807e-06
-4.3407e-06
2.32034e-06
-4.12447e-06
2.8179e-06
-3.84165e-06
3.26177e-06
-3.49899e-06
3.64539e-06
-3.10893e-06
3.96758e-06
-2.68902e-06
4.23056e-06
-2.25626e-06
4.43964e-06
-1.82464e-06
4.59997e-06
-1.40322e-06
4.71704e-06
-9.97893e-07
4.79464e-06
-6.11342e-07
4.83643e-06
-2.45514e-07
4.84437e-06
9.90035e-08
4.82063e-06
4.21147e-07
4.76624e-06
7.20633e-07
4.68284e-06
9.96483e-07
4.5715e-06
1.24836e-06
4.43411e-06
1.47525e-06
4.27208e-06
1.67674e-06
4.08751e-06
1.85192e-06
3.88208e-06
2.00049e-06
3.65803e-06
2.12176e-06
3.41726e-06
2.21555e-06
3.16214e-06
2.28127e-06
2.89478e-06
2.31865e-06
2.61769e-06
2.327e-06
2.33327e-06
2.3058e-06
2.04437e-06
2.2541e-06
1.75403e-06
2.17106e-06
1.46604e-06
2.05553e-06
1.1848e-06
1.90661e-06
9.15865e-07
1.72361e-06
6.65902e-07
1.50691e-06
4.42986e-07
1.25851e-06
2.56226e-07
9.83417e-07
1.15262e-07
6.90787e-07
2.86108e-08
3.95374e-07
1.18167e-07
-3.33748e-08
1.51975e-07
-1.33607e-07
4.96069e-07
-2.94728e-07
8.51335e-07
-5.04501e-07
1.19264e-06
-7.50221e-07
1.50434e-06
-1.02053e-06
1.7782e-06
-1.30616e-06
2.0111e-06
-1.59979e-06
2.20279e-06
-1.89588e-06
2.35466e-06
-2.19009e-06
2.46854e-06
-2.47914e-06
2.54643e-06
-2.76023e-06
2.58996e-06
-3.03116e-06
2.60065e-06
-3.28975e-06
2.57952e-06
-3.53423e-06
2.52759e-06
-3.76259e-06
2.44537e-06
-3.97321e-06
2.3336e-06
-4.16419e-06
2.19259e-06
-4.33415e-06
2.02308e-06
-4.48138e-06
1.82542e-06
-4.60488e-06
1.60058e-06
-4.70325e-06
1.34907e-06
-4.77595e-06
1.07211e-06
-4.82189e-06
7.70262e-07
-4.84089e-06
4.44721e-07
-4.83183e-06
9.57326e-08
-4.79418e-06
-2.75998e-07
-4.72577e-06
-6.71013e-07
-4.62416e-06
-1.08927e-06
-4.48419e-06
-1.53146e-06
-4.29976e-06
-1.99619e-06
-4.06186e-06
-2.48018e-06
-3.7621e-06
-2.97429e-06
-3.39317e-06
-3.46322e-06
-2.95424e-06
-3.92394e-06
-2.45072e-06
-4.33229e-06
-1.89332e-06
-4.67072e-06
-1.29251e-06
-4.9323e-06
-6.60434e-07
-5.1119e-06
-1.13251e-08
-5.20457e-06
6.38293e-07
-5.20663e-06
1.27191e-06
-5.1179e-06
1.87479e-06
-4.94149e-06
2.43471e-06
-4.68253e-06
2.94099e-06
-4.34611e-06
3.38304e-06
-3.93922e-06
3.75515e-06
-3.47909e-06
4.05799e-06
-2.98997e-06
4.29865e-06
-2.49494e-06
4.48554e-06
-2.00968e-06
4.62753e-06
-1.54348e-06
4.73079e-06
-1.09978e-06
4.8005e-06
-6.79908e-07
4.83919e-06
-2.83254e-07
4.84918e-06
9.01113e-08
4.83108e-06
4.40591e-07
4.78598e-06
7.67426e-07
4.714e-06
1.07035e-06
4.61619e-06
1.34823e-06
4.49305e-06
1.60052e-06
4.34604e-06
1.82605e-06
4.17618e-06
2.02427e-06
3.98522e-06
2.1942e-06
3.77452e-06
2.33545e-06
3.54599e-06
2.4473e-06
3.30121e-06
2.52944e-06
3.04221e-06
2.5812e-06
2.7708e-06
2.60211e-06
2.48918e-06
2.59122e-06
2.19955e-06
2.54762e-06
1.90469e-06
2.46986e-06
1.60782e-06
2.35638e-06
1.31329e-06
2.2052e-06
1.02659e-06
2.01446e-06
7.55102e-07
1.78264e-06
5.08148e-07
1.50979e-06
2.972e-07
1.19876e-06
1.35029e-07
8.57422e-07
3.38323e-08
5.00997e-07
1.54267e-07
-3.99661e-08
1.94501e-07
-1.58332e-07
6.18933e-07
-3.44518e-07
1.0416e-06
-5.81172e-07
1.43312e-06
-8.51547e-07
1.77846e-06
-1.14199e-06
2.07234e-06
-1.44216e-06
2.31489e-06
-1.74473e-06
2.50884e-06
-2.04443e-06
2.65768e-06
-2.33766e-06
2.76492e-06
-2.62163e-06
2.83341e-06
-2.89433e-06
2.86555e-06
-3.15388e-06
2.863e-06
-3.39887e-06
2.82717e-06
-3.62768e-06
2.7589e-06
-3.83906e-06
2.65906e-06
-4.03146e-06
2.52813e-06
-4.20383e-06
2.36687e-06
-4.35476e-06
2.17575e-06
-4.48356e-06
1.95577e-06
-4.5892e-06
1.70762e-06
-4.67153e-06
1.43266e-06
-4.73003e-06
1.13177e-06
-4.76521e-06
8.0649e-07
-4.77701e-06
4.57512e-07
-4.76628e-06
8.59334e-08
-4.73271e-06
-3.08619e-07
-4.67619e-06
-7.2658e-07
-4.59403e-06
-1.17038e-06
-4.48218e-06
-1.64228e-06
-4.33196e-06
-2.14525e-06
-4.13216e-06
-2.67883e-06
-3.86773e-06
-3.23739e-06
-3.52571e-06
-3.80383e-06
-3.09922e-06
-4.34874e-06
-2.59371e-06
-4.83607e-06
-2.02002e-06
-5.24259e-06
-1.38881e-06
-5.56171e-06
-7.12727e-07
-5.78608e-06
-1.15463e-08
-5.90365e-06
6.90506e-07
-5.90638e-06
1.36873e-06
-5.79382e-06
2.00285e-06
-5.57354e-06
2.57955e-06
-5.25751e-06
3.08831e-06
-4.85348e-06
3.51815e-06
-4.36782e-06
3.86355e-06
-3.8233e-06
4.13096e-06
-3.25605e-06
4.33325e-06
-2.69592e-06
4.48549e-06
-2.16044e-06
4.59904e-06
-1.65561e-06
4.68254e-06
-1.1819e-06
4.74008e-06
-7.36412e-07
4.77445e-06
-3.16733e-07
4.78582e-06
7.95207e-08
4.77461e-06
4.5276e-07
4.74002e-06
8.03254e-07
4.6821e-06
1.12986e-06
4.60027e-06
1.43189e-06
4.49503e-06
1.70782e-06
4.36648e-06
1.95681e-06
4.2157e-06
2.17748e-06
4.04339e-06
2.36916e-06
3.85096e-06
2.5308e-06
3.63944e-06
2.66195e-06
3.4104e-06
2.76182e-06
3.16508e-06
2.83003e-06
2.90511e-06
2.86572e-06
2.63195e-06
2.86814e-06
2.34745e-06
2.83597e-06
2.05358e-06
2.76763e-06
1.75311e-06
2.6608e-06
1.4496e-06
2.51269e-06
1.14833e-06
2.31976e-06
8.56682e-07
2.07842e-06
5.85079e-07
1.78564e-06
3.47253e-07
1.44093e-06
1.60004e-07
1.04911e-06
4.06142e-08
6.24748e-07
1.97036e-07
-4.97389e-08
2.46813e-07
-1.92402e-07
7.65982e-07
-4.09517e-07
1.26265e-06
-6.76276e-07
1.70349e-06
-9.71428e-07
2.07707e-06
-1.27932e-06
2.38365e-06
-1.58949e-06
2.62841e-06
-1.89516e-06
2.81779e-06
-2.19221e-06
2.95787e-06
-2.4779e-06
3.0536e-06
-2.75052e-06
3.10885e-06
-3.00862e-06
3.12633e-06
-3.25119e-06
3.1081e-06
-3.47704e-06
3.05543e-06
-3.68531e-06
2.96942e-06
-3.87484e-06
2.85068e-06
-4.04489e-06
2.70006e-06
-4.19438e-06
2.51806e-06
-4.32286e-06
2.30573e-06
-4.42958e-06
2.06383e-06
-4.51467e-06
1.79388e-06
-4.57798e-06
1.49702e-06
-4.62046e-06
1.17517e-06
-4.64274e-06
8.29615e-07
-4.64669e-06
4.62214e-07
-4.63359e-06
7.35547e-08
-4.60569e-06
-3.35851e-07
-4.56358e-06
-7.67946e-07
-4.50742e-06
-1.22582e-06
-4.43297e-06
-1.71586e-06
-4.33236e-06
-2.245e-06
-4.18979e-06
-2.82039e-06
-3.98404e-06
-3.44214e-06
-3.6904e-06
-4.09628e-06
-3.29383e-06
-4.74397e-06
-2.79618e-06
-5.33211e-06
-2.20905e-06
-5.82806e-06
-1.53778e-06
-6.23137e-06
-7.95788e-07
-6.52655e-06
-1.22846e-08
-6.68554e-06
7.72409e-07
-6.68923e-06
1.51768e-06
-6.53694e-06
2.19298e-06
-6.24666e-06
2.78417e-06
-5.84691e-06
3.28572e-06
-5.35372e-06
3.68629e-06
-4.7675e-06
3.98351e-06
-4.11982e-06
4.19217e-06
-3.46403e-06
4.3367e-06
-2.83976e-06
4.4387e-06
-2.26172e-06
4.51415e-06
-1.73011e-06
4.57119e-06
-1.23797e-06
4.61399e-06
-7.78206e-07
4.64245e-06
-3.44391e-07
4.65596e-06
6.67092e-08
4.65236e-06
4.57042e-07
4.63045e-06
8.26058e-07
4.58837e-06
1.1731e-06
4.52549e-06
1.49627e-06
4.44078e-06
1.7943e-06
4.33437e-06
2.06524e-06
4.2061e-06
2.30798e-06
4.05674e-06
2.52099e-06
3.88671e-06
2.70351e-06