/*--------------------------------*- C++ -*----------------------------------*\
| =========                 |                                                 |
| \\      /  F ield         | OpenFOAM: The Open Source CFD Toolbox           |
|  \\    /   O peration     | Version:  2412                                  |
|   \\  /    A nd           | Website:  www.openfoam.com                      |
|    \\/     M anipulation  |                                                 |
\*---------------------------------------------------------------------------*/
FoamFile
{
    version     2.0;
    format      ascii;
    arch        "LSB;label=32;scalar=64";
    class       volScalarField;
    location    "2.8";
    object      alpha.lava;
}
// * * * * * * * * * * * * * * * * * * * * * * * * * * * * * * * * * * * * * //

dimensions      [0 0 0 0 0 0 0];

internalField   nonuniform List<scalar> 
6400
(
1
1
1.00001
1.00001
1
1
1
1
1
1.00001
1.00001
1.00001
1.00001
1
1
1
1
1.00001
1.00001
1.00001
1.00001
1
1
1
1
1
1.00001
1.00001
1
1
1
1
1
1
1
1.00001
1
1
1
1
1
1
1
1
1
1
1
1
0.999999
0.999998
0.999997
0.999997
0.999996
0.999996
0.999995
0.999995
0.999995
0.999994
0.999994
0.999995
0.999995
0.999996
0.999996
0.999995
0.999994
0.999994
0.999994
0.999995
0.999996
0.999996
0.999995
0.999993
0.999991
0.999989
0.99999
0.999992
0.999995
0.999997
0.999998
1
0.999999
1
1
1.00001
1.00001
1.00001
1.00001
1.00001
1.00001
1.00001
1.00001
1.00001
1.00002
1.00001
1.00001
1.00001
1.00001
1.00001
1.00001
1.00001
1.00001
1.00001
1.00001
1
1
0.999999
0.999998
0.999998
0.999997
0.999996
0.999995
0.999994
0.999994
0.999994
0.999995
0.999996
0.999998
0.999999
1
1
1
1
1
1
1.00001
1.00001
1.00001
1.00001
1
1
1
1
1
0.999999
0.999998
0.999997
0.999997
0.999996
0.999995
0.999994
0.999994
0.999994
0.999994
0.999994
0.999993
0.999991
0.99999
0.999989
0.999989
0.99999
0.999992
0.999993
0.999993
0.999992
0.999991
0.999991
0.999992
0.999994
0.999998
1.00001
0.999998
0.999999
1
1
1.00001
1.00001
1.00001
1.00001
1.00001
1.00001
1.00001
1.00001
1.00002
1.00002
1.00002
1.00002
1.00001
1.00001
1.00001
1.00001
1.00001
1.00001
1.00001
1
1
0.999996
0.999993
0.999992
0.999992
0.999992
0.999991
0.999989
0.999989
0.999988
0.99999
0.999991
0.999994
0.999996
0.999998
1
1
1
1.00001
1.00001
1.00001
1.00001
1.00001
1.00001
1.00001
1.00001
1.00001
1
1
1
1
0.999999
0.999998
0.999997
0.999995
0.999993
0.999992
0.999991
0.999991
0.99999
0.99999
0.999989
0.999987
0.999985
0.999985
0.999986
0.999989
0.999992
0.999994
0.999995
0.999994
0.999993
0.999993
0.999994
0.999999
1.00001
0.999998
1
1
1
1
1.00001
1.00001
1.00001
1.00001
1.00001
1.00001
1.00001
1.00002
1.00002
1.00002
1.00002
1.00002
1.00001
1.00001
1.00001
1.00001
1.00001
1.00001
1.00001
1
0.999996
0.999992
0.99999
0.999989
0.999989
0.999988
0.999987
0.999986
0.999985
0.999985
0.999987
0.999989
0.999992
0.999995
0.999997
1
1
1
1.00001
1.00001
1.00001
1.00001
1.00001
1.00001
1.00001
1.00001
1.00001
1
1
1
1
0.999999
0.999998
0.999996
0.999994
0.999992
0.99999
0.999989
0.999989
0.999989
0.999989
0.999988
0.999986
0.999984
0.999984
0.999987
0.99999
0.999994
0.999996
0.999996
0.999995
0.999994
0.999995
0.999999
1.00001
0.999999
1
1
1
1
1.00001
1.00001
1.00002
1.00002
1.00002
1.00001
1.00001
1.00001
1.00002
1.00002
1.00002
1.00002
1.00002
1.00001
1.00001
1.00001
1.00001
1.00001
1.00001
1
0.999997
0.999992
0.999989
0.999987
0.999986
0.999986
0.999985
0.999985
0.999984
0.999985
0.999986
0.999988
0.999991
0.999993
0.999996
0.999999
1
1
1.00001
1.00001
1.00001
1.00001
1.00001
1.00001
1.00001
1.00001
1.00001
1
1
1
1
0.999998
0.999997
0.999996
0.999994
0.999991
0.999988
0.999986
0.999986
0.999986
0.999987
0.999988
0.999987
0.999985
0.999984
0.999984
0.999987
0.999992
0.999996
0.999998
0.999998
0.999997
0.999997
1
1.00001
0.999998
1
1
1
1
1
1.00001
1.00001
1.00002
1.00002
1.00002
1.00001
1.00001
1.00001
1.00001
1.00002
1.00002
1.00002
1.00001
1.00001
1
1
1
1
1
0.999998
0.999993
0.999989
0.999986
0.999984
0.999984
0.999984
0.999984
0.999984
0.999984
0.999985
0.999987
0.999989
0.999992
0.999995
0.999997
1
1
1
1.00001
1.00001
1.00001
1.00001
1.00001
1.00001
1.00001
1.00001
1.00001
1
1
1
0.999998
0.999997
0.999996
0.999995
0.999993
0.99999
0.999987
0.999986
0.999986
0.999987
0.999989
0.99999
0.999989
0.999987
0.999985
0.999985
0.999988
0.999992
0.999997
1
1
1
1
1
0.999996
1
1.00001
1
1
1
1
1.00001
1.00002
1.00002
1.00002
1.00002
1.00001
1.00001
1.00001
1.00001
1.00002
1.00002
1.00002
1.00001
1
1
0.999999
0.999999
0.999999
0.999998
0.999995
0.999991
0.999987
0.999984
0.999983
0.999983
0.999983
0.999983
0.999984
0.999984
0.999986
0.999987
0.99999
0.999992
0.999995
0.999997
1
1
1
1
1.00001
1.00001
1.00001
1.00001
1.00001
1.00001
1
1
1
1
0.999998
0.999997
0.999996
0.999995
0.999994
0.999992
0.999989
0.999986
0.999985
0.999985
0.999987
0.99999
0.999991
0.99999
0.999988
0.999986
0.999986
0.999989
0.999994
0.999999
1
1
1
1
0.999994
1
1.00001
1.00001
1.00001
1
1
1.00001
1.00001
1.00002
1.00002
1.00002
1.00002
1.00001
1.00001
1.00001
1.00001
1.00001
1.00001
1.00001
1.00001
1
0.999996
0.999995
0.999995
0.999996
0.999995
0.999992
0.999989
0.999986
0.999984
0.999983
0.999983
0.999984
0.999984
0.999985
0.999986
0.999987
0.999989
0.999992
0.999994
0.999996
0.999998
1
1
1
1
1
1
1
1
1
1
1
1
1
0.999998
0.999997
0.999996
0.999996
0.999996
0.999995
0.999992
0.999989
0.999986
0.999985
0.999986
0.999989
0.999992
0.999993
0.999992
0.999989
0.999987
0.999988
0.999991
0.999996
1
1
1
1
0.999993
1
1.00001
1.00001
1.00001
1.00001
1
1
1.00001
1.00001
1.00002
1.00002
1.00002
1.00001
1.00001
1.00001
1.00001
1.00001
1.00001
1.00001
1.00001
1
0.999998
0.999994
0.999993
0.999994
0.999994
0.999993
0.999991
0.999988
0.999985
0.999983
0.999983
0.999983
0.999984
0.999984
0.999985
0.999987
0.999988
0.99999
0.999992
0.999994
0.999996
0.999997
0.999998
1
1
1
1
1
1
1
1
1
1
1
1
0.999998
0.999996
0.999996
0.999996
0.999996
0.999995
0.999993
0.99999
0.999987
0.999986
0.999988
0.999991
0.999994
0.999995
0.999993
0.999991
0.999989
0.999991
0.999993
0.999998
1
1
1
0.999994
1
1.00001
1.00001
1.00001
1.00001
1.00001
1.00001
1
1.00001
1.00001
1.00002
1.00002
1.00002
1.00001
1.00001
1
1
1
1.00001
1.00001
1
1
0.999996
0.999993
0.999992
0.999993
0.999993
0.999992
0.99999
0.999987
0.999985
0.999984
0.999983
0.999984
0.999984
0.999985
0.999987
0.999988
0.999989
0.999991
0.999993
0.999994
0.999995
0.999997
0.999998
0.999999
1
1
1
1
1
1
1
1
1
1
1
0.999998
0.999996
0.999996
0.999996
0.999996
0.999995
0.999993
0.999991
0.999988
0.999988
0.99999
0.999993
0.999996
0.999997
0.999995
0.999993
0.999992
0.999993
0.999997
1
1
1.00001
0.999997
1
1
1.00001
1.00001
1.00002
1.00002
1.00001
1.00001
1
1.00001
1.00001
1.00001
1.00002
1.00001
1.00001
1
0.999999
0.999999
1
1
1
1
0.999998
0.999995
0.999993
0.999993
0.999993
0.999993
0.999992
0.99999
0.999988
0.999986
0.999986
0.999986
0.999986
0.999987
0.999988
0.999989
0.99999
0.999991
0.999992
0.999993
0.999994
0.999996
0.999997
0.999998
1
1
1
1
1
1
1
1
1
1
1
0.999999
0.999997
0.999996
0.999995
0.999996
0.999996
0.999996
0.999994
0.999992
0.99999
0.99999
0.999991
0.999995
0.999997
0.999998
0.999997
0.999995
0.999994
0.999996
0.999999
1
1.00001
1
1
1
1
1.00001
1.00002
1.00002
1.00002
1.00001
1.00001
1
1
1.00001
1.00001
1.00001
1.00001
1.00001
1
0.999998
0.999998
1
1
1
1
0.999997
0.999995
0.999994
0.999994
0.999994
0.999993
0.999992
0.99999
0.999989
0.999988
0.999987
0.999988
0.999988
0.999989
0.999989
0.99999
0.999991
0.999991
0.999992
0.999993
0.999994
0.999996
0.999997
0.999999
1
1
1
1
1
1
1
1
1
1
1
0.999999
0.999996
0.999994
0.999994
0.999995
0.999996
0.999997
0.999995
0.999992
0.99999
0.99999
0.999992
0.999995
0.999997
0.999999
0.999997
0.999995
0.999996
0.999997
1
1.00001
1
1
1
1
1.00001
1.00001
1.00002
1.00002
1.00002
1.00001
1
1
1
1.00001
1.00001
1.00001
1.00001
1
0.999998
0.999997
0.999997
0.999999
1
1
0.999999
0.999997
0.999995
0.999994
0.999994
0.999993
0.999992
0.999991
0.99999
0.999989
0.999988
0.999988
0.999988
0.999989
0.999989
0.999989
0.99999
0.99999
0.999991
0.999993
0.999994
0.999996
0.999997
0.999999
1
1
1
1
1
1
1
1
1
1
1
1
0.999999
0.999996
0.999994
0.999994
0.999996
0.999997
0.999997
0.999995
0.999993
0.999991
0.999991
0.999993
0.999995
0.999998
0.999998
0.999997
0.999997
0.999997
1
1
1
1
1
1
1
1.00001
1.00001
1.00002
1.00002
1.00001
1.00001
1
1
1
1
1.00001
1.00001
1
1
0.999998
0.999996
0.999997
0.999998
1
1
0.999999
0.999997
0.999996
0.999995
0.999994
0.999993
0.999992
0.999991
0.99999
0.999989
0.999989
0.999989
0.999989
0.999989
0.999989
0.999989
0.99999
0.999991
0.999993
0.999995
0.999997
0.999999
1
1
1
1
1
1
1
1
1
1
1
1
1
1
0.999999
0.999996
0.999994
0.999995
0.999996
0.999998
0.999998
0.999996
0.999993
0.999992
0.999992
0.999993
0.999996
0.999998
0.999999
0.999999
0.999998
1
1
0.999999
1
1.00001
1.00001
1
1
1.00001
1.00001
1.00001
1.00001
1.00001
1.00001
1
1
1
1
1
1
1
1
0.999998
0.999997
0.999997
0.999999
1
1
0.999999
0.999997
0.999996
0.999995
0.999994
0.999993
0.999992
0.999992
0.999991
0.99999
0.99999
0.99999
0.99999
0.99999
0.99999
0.999991
0.999993
0.999995
0.999997
0.999999
1
1
1
1
1
1
1
1
1
1
1
1
1
1.00001
1
1
0.999999
0.999996
0.999995
0.999996
0.999997
0.999999
0.999999
0.999998
0.999996
0.999994
0.999994
0.999996
0.999998
0.999999
1
1
1
1
0.999997
1
1
1.00001
1
1
1
1
1.00001
1.00001
1.00001
1
1
0.999999
0.999997
0.999998
1
1
1
1
0.999999
0.999998
0.999997
0.999998
0.999999
1
1
1
0.999998
0.999997
0.999996
0.999996
0.999995
0.999995
0.999995
0.999994
0.999994
0.999994
0.999993
0.999994
0.999994
0.999995
0.999996
0.999998
1
1
1
1
1
1
1
1.00001
1.00001
1.00001
1.00001
1
1
1
1.00001
1.00001
1.00001
1
1
1
0.999998
0.999998
0.999999
1
1
1
1
1
0.999998
0.999999
1
1
1
1
1
1
0.999995
0.999998
0.999999
0.999999
1
0.999999
0.999997
0.999996
0.999996
0.999998
1
1
0.999999
0.999997
0.999995
0.999995
0.999996
0.999998
1
1
1
0.999999
0.999999
0.999999
1
1
1
1
1
1
1
1
1
1
1
1
1
1
1
1
1
1
1
1
1
1
1.00001
1.00001
1.00001
1.00001
1.00001
1.00001
1.00001
1.00001
1.00001
1.00001
1.00001
1.00001
1.00001
1.00001
1.00001
1.00001
1.00001
1.00001
1
1
1
1.00001
1.00001
1.00001
1.00001
1.00001
1
1
1
1.00001
1.00001
1.00001
1.00001
1
0.999993
0.999989
0.99999
0.99999
0.999991
0.999991
0.999989
0.999987
0.999986
0.999987
0.999988
0.99999
0.999992
0.999992
0.999991
0.999991
0.999991
0.999993
0.999995
0.999998
0.999999
1
1
1
1
1
1.00001
1.00001
1.00001
1.00001
1.00001
1.00001
1.00001
1.00001
1.00001
1.00001
1.00001
1.00001
1.00001
1.00001
1.00001
1.00001
1.00001
1.00001
1.00001
1.00001
1.00001
1.00001
1.00001
1.00001
1.00001
1.00001
1.00001
1.00001
1.00001
1.00001
1.00001
1.00001
1.00001
1.00001
1.00001
1.00001
1.00001
1.00001
1.00001
1.00001
1.00001
1.00001
1.00001
1.00002
1.00002
1.00002
1.00002
1.00002
1.00001
1.00001
1.00002
1.00001
1.00001
1
0.999994
0.999983
0.99998
0.999981
0.999983
0.999984
0.999983
0.999982
0.999981
0.99998
0.999981
0.999984
0.999986
0.999988
0.999989
0.999989
0.99999
0.999991
0.999993
0.999996
0.999998
1
1
1
1
1.00001
1.00001
1.00001
1.00001
1.00001
1.00001
1.00001
1.00002
1.00002
1.00002
1.00002
1.00002
1.00002
1.00002
1.00002
1.00002
1.00001
1.00001
1.00001
1.00001
1.00001
1.00001
1.00001
1.00001
1.00001
1.00001
1.00001
1.00001
1.00001
1.00001
1.00001
1.00001
1.00001
1.00001
1.00001
1.00001
1.00001
1.00002
1.00002
1.00002
1.00002
1.00002
1.00002
1.00002
1.00002
1.00002
1.00002
1.00002
1.00002
1.00002
1.00002
1.00002
1.00002
1.00002
1.00001
0.99996
0.999936
0.999938
0.999938
0.999933
0.999931
0.99993
0.999929
0.999927
0.999927
0.999927
0.999929
0.99993
0.999932
0.999936
0.999939
0.999942
0.999945
0.999948
0.999951
0.999953
0.999957
0.99996
0.999963
0.999965
0.999968
0.999971
0.999974
0.999977
0.999979
0.99998
0.999981
0.999982
0.999982
0.999982
0.999982
0.999982
0.999982
0.999982
0.999982
0.999982
0.999982
0.999981
0.999978
0.999975
0.999973
0.999971
0.99997
0.99997
0.99997
0.999971
0.999973
0.999975
0.999977
0.99998
0.999983
0.999986
0.999988
0.999989
0.999989
0.999989
0.999989
0.999989
0.999988
0.999988
0.999988
0.999987
0.999985
0.999984
0.999983
0.999981
0.99998
0.999979
0.999978
0.999977
0.999975
0.999975
0.999975
0.999976
0.999976
1.80463e-05
3.44443e-05
2.9689e-05
2.47196e-05
2.27527e-05
2.03061e-05
1.70662e-05
1.52785e-05
1.49521e-05
1.43906e-05
1.27108e-05
1.1211e-05
1.08213e-05
1.07721e-05
1.02409e-05
1.05513e-05
1.15589e-05
1.22837e-05
1.27333e-05
1.41622e-05
1.59493e-05
1.77545e-05
1.97229e-05
2.19442e-05
2.41203e-05
2.6075e-05
2.79961e-05
2.97473e-05
3.1473e-05
3.37147e-05
3.64706e-05
3.87797e-05
4.08565e-05
4.28393e-05
4.42742e-05
4.49889e-05
4.51509e-05
4.50364e-05
4.43598e-05
4.3084e-05
4.12128e-05
3.922e-05
3.71871e-05
3.71853e-05
3.67871e-05
3.60397e-05
3.50491e-05
3.3989e-05
3.28868e-05
3.17436e-05
3.05961e-05
2.94142e-05
2.80757e-05
2.66202e-05
2.53436e-05
2.4426e-05
2.36893e-05
2.33368e-05
2.49885e-05
2.80111e-05
3.06854e-05
3.27418e-05
3.50083e-05
3.77019e-05
3.98193e-05
4.14649e-05
4.31501e-05
4.48395e-05
4.5652e-05
4.54608e-05
4.54996e-05
4.55049e-05
4.43951e-05
4.32275e-05
4.22431e-05
4.09472e-05
4.0284e-05
3.97148e-05
4.26715e-05
3.97091e-05
3.004e-17
1.35436e-16
3.79715e-17
3.24667e-26
1.43007e-23
2.8569e-23
7.24321e-23
6.99591e-23
4.68265e-17
6.61132e-17
3.1861e-17
3.16049e-18
2.06989e-24
5.40856e-24
1.13509e-22
4.00648e-18
2.08717e-17
3.0165e-17
1.89919e-17
4.29569e-18
1.68035e-24
2.50347e-24
1.71162e-22
5.53382e-18
1.80746e-17
2.38683e-17
1.73986e-17
7.62436e-18
2.48341e-18
1.7491e-18
3.97395e-18
8.51966e-18
1.26866e-17
1.37e-17
1.19295e-17
9.73993e-18
8.52178e-18
8.06047e-18
7.46222e-18
6.41231e-18
5.50491e-18
5.58178e-18
6.91442e-18
9.16236e-18
9.93248e-18
7.42416e-18
3.25455e-18
6.384e-19
1.45608e-19
1.73301e-18
7.19508e-18
1.42649e-17
1.44824e-17
6.30478e-18
1.47515e-24
7.90133e-25
5.34035e-27
6.55862e-27
9.6475e-18
3.08173e-17
3.43865e-17
1.15746e-17
9.82083e-24
1.89873e-23
1.45583e-23
4.74526e-24
1.76702e-17
5.85569e-17
5.71123e-17
1.70146e-17
3.34119e-24
3.35696e-24
5.01645e-24
1.81302e-23
1.31351e-17
2.02194e-17
9.71044e-18
1.25263e-19
1.01546e-24
5.35709e-18
1.33049e-21
2.54822e-22
2.86601e-26
3.25554e-26
4.23129e-23
6.1075e-23
1.22986e-22
1.10881e-23
1.7652e-22
1.97901e-22
6.43408e-23
-3.78296e-23
3.16594e-26
3.62333e-26
3.56884e-26
3.72269e-24
4.79109e-23
7.70144e-23
-3.57562e-23
-5.75993e-23
1.3173e-26
9.25737e-27
6.87854e-27
2.59755e-24
1.24996e-23
1.14e-23
-1.29491e-22
-1.02929e-22
-2.02218e-23
-2.29844e-24
-1.52579e-24
-1.0768e-24
-6.16444e-25
-2.59078e-23
-5.74631e-23
-4.10018e-23
-4.80885e-24
-5.44871e-24
-1.69993e-24
-3.83473e-25
-4.60357e-25
-8.67209e-24
-2.82022e-23
-1.77007e-23
-4.33341e-24
-3.16271e-26
-7.54717e-26
-8.22935e-26
-2.19386e-26
-4.18075e-23
-5.79177e-23
-9.04464e-29
2.06942e-24
6.28786e-29
5.06819e-28
3.58708e-25
5.32147e-27
5.36441e-27
-1.10923e-22
5.2556e-23
7.04615e-23
1.9644e-23
9.19781e-27
1.89786e-23
2.50351e-23
5.77591e-27
-1.03479e-22
1.41169e-22
1.33364e-22
3.63244e-23
1.02667e-26
3.35206e-24
2.58809e-23
4.26095e-24
2.61742e-23
5.16414e-23
2.47326e-23
2.69418e-25
4.97234e-27
1.57721e-24
1.70118e-21
1.38273e-24
2.61202e-26
3.26217e-26
4.06848e-27
2.95818e-28
2.03825e-26
7.57534e-27
7.23034e-28
3.94256e-27
1.56175e-26
1.22986e-26
3.16659e-26
3.91239e-26
3.55456e-26
1.2601e-26
2.01505e-26
1.95421e-26
1.71981e-26
1.37704e-26
1.32178e-26
1.15452e-26
6.77118e-27
3.90823e-27
1.63368e-27
2.63812e-28
4.95618e-36
3.08313e-36
-2.03655e-35
-1.95723e-31
-1.03343e-29
1.38348e-38
1.76204e-37
4.35882e-37
8.52565e-37
5.84975e-37
3.12322e-37
1.30562e-37
3.79636e-38
8.29784e-39
1.35089e-39
-9.73432e-34
1.8858e-38
1.25243e-37
4.94453e-38
-1.20929e-28
-9.35692e-29
-3.9219e-29
-2.45201e-32
2.50551e-36
9.69193e-35
1.61919e-33
1.41542e-28
4.25305e-31
8.84667e-28
6.22979e-27
5.26689e-27
7.5019e-27
1.009e-26
3.71058e-27
6.68514e-28
1.21963e-26
8.46921e-27
5.46794e-27
8.71897e-28
5.72192e-27
2.19875e-27
2.14187e-27
3.9108e-28
2.77047e-27
9.06742e-27
6.05541e-27
5.91931e-27
8.87282e-27
1.28307e-26
1.81497e-26
1.67539e-26
1.18135e-26
4.96975e-27
4.14974e-26
5.14818e-24
1.96344e-26
2.16916e-26
1.38458e-27
8.16652e-29
8.34282e-31
6.22066e-29
3.60235e-30
6.1549e-30
4.67601e-30
1.68632e-30
9.96633e-31
2.15126e-30
1.69646e-30
1.58267e-30
5.28807e-31
6.08326e-31
5.38794e-31
3.42847e-31
2.22891e-31
1.88737e-31
1.50786e-31
6.1306e-32
3.9152e-32
2.40746e-32
1.60739e-32
1.20001e-32
1.15485e-32
1.47634e-32
1.78179e-32
2.0014e-32
2.10708e-32
2.08847e-32
1.93743e-32
1.65537e-32
1.28205e-32
8.70612e-33
5.10271e-33
2.33072e-33
7.71423e-34
2.70034e-34
5.75365e-36
5.6743e-33
5.08501e-32
1.62833e-31
3.53375e-31
6.05652e-31
8.65759e-31
1.11667e-30
1.19611e-30
1.14477e-30
9.49869e-31
6.76823e-31
4.25608e-31
1.95469e-31
1.26037e-31
2.14106e-31
4.30507e-31
2.88836e-31
3.35233e-31
3.3211e-31
7.68453e-31
3.80191e-31
7.7654e-31
5.011e-31
7.19641e-31
4.18115e-31
6.70218e-31
5.56689e-31
4.32389e-30
7.71402e-31
6.07423e-31
1.90004e-30
5.62818e-31
7.4462e-31
4.96564e-30
1.47733e-30
1.14077e-30
6.68097e-30
8.68432e-29
3.50609e-29
2.3618e-30
7.88172e-30
1.88388e-31
3.28579e-33
3.07857e-35
5.70646e-34
2.84606e-35
6.4258e-35
4.80021e-36
9.78904e-36
1.22841e-35
6.96117e-36
1.28803e-36
1.26069e-36
1.4407e-36
1.07422e-36
7.07441e-37
4.5742e-37
2.71814e-37
2.0469e-37
1.83419e-37
7.75996e-38
4.52586e-38
2.09967e-38
9.72722e-39
6.51967e-39
8.61538e-39
1.01528e-38
1.1885e-38
1.34995e-38
1.43189e-38
1.42043e-38
1.32105e-38
1.11443e-38
8.41392e-39
5.55332e-39
3.21174e-39
1.45518e-39
4.60929e-40
7.91873e-41
1.75652e-44
9.1172e-42
1.15059e-38
1.0646e-37
3.72084e-37
8.53717e-37
1.48075e-36
2.12754e-36
2.50414e-36
2.45523e-36
3.03757e-36
2.08329e-36
1.4445e-36
3.13876e-37
1.77413e-37
1.90597e-37
4.61254e-38
1.02153e-36
2.86748e-37
3.59834e-37
1.96331e-36
4.61227e-37
2.36504e-36
1.83758e-36
6.20071e-36
1.00893e-36
3.04524e-36
1.77039e-36
8.56979e-35
2.48866e-36
4.06386e-36
8.03386e-36
1.33135e-36
1.00704e-36
4.92742e-35
1.19235e-35
5.4059e-36
4.80344e-34
2.69653e-33
8.42873e-34
2.45869e-36
2.25266e-36
7.12683e-38
2.83003e-39
4.60805e-41
1.77005e-40
1.36972e-41
2.82544e-41
2.02843e-41
9.72301e-42
8.03321e-42
1.19087e-41
4.74929e-42
3.67824e-42
2.16513e-42
2.90148e-42
2.2151e-42
1.39691e-42
8.04773e-43
5.47362e-43
2.83225e-43
1.45006e-43
6.14093e-44
1.9929e-44
5.13464e-45
4.00772e-45
5.73766e-45
7.49152e-45
9.06234e-45
1.01354e-44
1.04947e-44
1.02132e-44
9.35037e-45
7.74148e-45
5.67305e-45
3.56016e-45
1.93456e-45
8.41401e-46
2.61081e-46
4.3407e-47
7.13738e-51
4.16298e-49
2.74343e-47
3.75237e-44
2.69743e-43
9.0148e-43
1.98902e-42
3.3416e-42
4.33129e-42
4.42879e-42
3.61393e-42
2.31887e-42
1.15768e-42
4.04543e-43
8.35245e-44
4.90056e-44
5.17099e-44
2.34229e-43
4.25035e-43
1.04056e-42
1.03283e-42
1.18089e-42
3.33677e-42
3.60644e-42
4.49965e-42
4.18762e-42
1.08319e-41
9.76312e-42
2.26107e-41
5.77092e-42
9.22987e-42
1.04927e-41
7.27901e-42
5.63381e-42
2.35884e-41
8.8583e-42
6.62614e-42
8.19038e-41
6.8477e-40
4.40252e-39
4.45938e-41
1.76067e-41
2.24873e-43
6.59828e-45
2.89192e-47
1.02194e-45
5.55181e-47
1.64799e-46
1.36849e-46
5.75287e-47
4.17875e-47
3.63748e-47
2.73535e-47
2.09138e-47
1.14756e-47
1.47943e-47
1.04782e-47
6.15585e-48
3.12387e-48
1.8168e-48
8.14738e-49
3.41343e-49
1.07112e-49
2.13221e-50
3.61714e-51
4.01651e-51
5.56257e-51
7.00338e-51
8.13887e-51
8.70947e-51
8.56488e-51
7.91215e-51
6.88373e-51
5.41588e-51
3.77752e-51
2.25671e-51
1.15349e-51
4.70688e-52
1.40104e-52
2.27021e-53
3.5449e-57
1.99943e-55
1.95374e-54
4.94776e-51
1.31475e-49
7.32572e-49
2.17392e-48
4.40226e-48
6.42934e-48
6.97833e-48
5.75735e-48
3.63771e-48
1.74986e-48
5.89293e-49
1.04176e-49
8.20698e-50
8.62905e-50
5.06948e-49
1.18087e-48
4.00912e-48
3.47953e-48
5.34204e-48
1.40341e-47
1.75713e-47
2.36851e-47
2.37956e-47
6.90238e-47
6.596e-47
1.0327e-46
3.79398e-47
6.58166e-47
7.05179e-47
5.23825e-47
4.15337e-47
1.12579e-46
5.02617e-47
2.64546e-47
3.00036e-46
2.22707e-45
1.3315e-43
1.70334e-46
2.9182e-46
7.28595e-49
5.40853e-50
6.13171e-52
9.7753e-51
5.04478e-52
1.6576e-51
1.32118e-51
4.98053e-52
3.23068e-52
2.2926e-52
1.91762e-52
1.43941e-52
7.7379e-53
9.30031e-53
6.11715e-53
3.24541e-53
1.45705e-53
7.33728e-54
2.77928e-54
9.36086e-55
2.09608e-55
2.4078e-56
3.40354e-57
4.75113e-57
6.33991e-57
7.65009e-57
8.46715e-57
8.58156e-57
7.95775e-57
6.89027e-57
5.60115e-57
4.11452e-57
2.66909e-57
1.48526e-57
7.06315e-58
2.663e-58
7.36694e-59
1.13144e-59
1.90767e-63
1.08043e-61
6.60928e-61
7.32834e-60
2.56691e-56
3.64873e-55
1.68136e-54
4.44194e-54
7.78285e-54
9.49338e-54
8.33083e-54
5.44398e-54
2.62014e-54
8.60742e-55
1.46074e-55
1.36016e-55
1.93007e-55
1.37652e-54
3.44562e-54
1.95295e-53
1.54404e-53
2.94653e-53
8.06915e-53
1.07686e-52
1.57179e-52
1.82919e-52
5.46635e-52
5.13172e-52
8.07048e-52
2.97845e-52
5.42266e-52
6.20032e-52
4.56451e-52
3.77922e-52
9.90245e-52
4.43513e-52
2.06108e-52
2.67002e-51
1.81818e-50
6.82436e-49
7.05567e-52
9.56546e-52
7.62551e-54
4.54721e-55
3.46087e-57
1.04161e-55
4.57499e-57
1.78565e-56
1.4677e-56
4.93677e-57
2.88061e-57
1.96296e-57
1.6163e-57
1.17127e-57
6.03327e-58
6.91407e-58
4.18755e-58
1.99636e-58
8.00139e-59
3.48018e-59
1.09203e-59
2.91556e-60
4.58997e-61
2.93048e-62
4.23807e-63
6.16584e-63
7.84467e-63
8.97094e-63
9.35535e-63
8.87378e-63
7.65967e-63
6.15028e-63
4.635e-63
3.16317e-63
1.9029e-63
9.83295e-64
4.3645e-64
1.53849e-64
3.9881e-65
5.79887e-66
1.10866e-69
6.43994e-68
4.02346e-67
1.81695e-66
7.93317e-64
1.11615e-61
9.36883e-61
3.50031e-60
7.78774e-60
1.118e-59
1.06852e-59
7.53375e-60
3.81574e-60
1.26611e-60
2.13567e-61
1.97817e-61
5.1994e-61
4.34815e-60
1.33579e-59
1.01847e-58
8.84618e-59
1.89657e-58
5.74513e-58
8.58771e-58
1.13706e-57
1.66872e-57
4.93238e-57
0
5.71539e-57
2.92106e-57
5.27532e-57
6.29126e-57
4.58634e-57
4.01585e-57
1.08818e-56
4.79931e-57
2.12322e-57
2.9013e-56
1.93937e-55
9.24867e-55
5.92429e-57
9.82786e-57
9.5806e-59
5.66918e-60
6.38843e-62
1.3196e-60
5.84505e-62
2.28307e-61
1.93083e-61
5.97531e-62
3.01219e-62
2.00828e-62
1.59839e-62
1.09841e-62
5.36943e-63
5.97545e-63
3.32522e-63
1.41487e-63
5.05686e-64
1.91425e-64
4.99845e-65
1.03499e-65
1.12551e-66
3.78392e-68
5.9982e-69
8.39896e-69
1.00622e-68
1.0767e-68
1.04421e-68
9.14979e-69
7.24469e-69
5.30623e-69
3.65001e-69
2.30187e-69
1.27888e-69
6.1335e-70
2.55338e-70
8.54856e-71
2.13111e-71
3.02665e-72
7.26819e-76
4.51619e-74
2.87611e-73
1.22857e-72
9.83513e-72
2.86958e-68
4.55733e-67
2.41825e-66
6.96006e-66
1.21251e-65
1.27305e-65
9.7646e-66
5.41181e-66
1.91348e-66
3.30465e-67
3.10171e-67
1.62054e-66
1.60804e-65
6.51057e-65
5.74619e-64
6.03137e-64
1.35504e-63
4.54568e-63
8.09394e-63
1.02409e-62
1.7151e-62
5.67273e-62
-1.72001e-57
1.47089e-63
3.30309e-62
6.08001e-62
7.42588e-62
5.42963e-62
4.82848e-62
1.41528e-61
6.17655e-62
2.44959e-62
3.74149e-61
2.44073e-60
1.10478e-59
5.88047e-62
1.42882e-61
1.43746e-63
8.4167e-65
6.99005e-67
1.85263e-65
7.66439e-67
3.24342e-66
2.76237e-66
8.27492e-67
3.59778e-67
2.38276e-67
1.84487e-67
1.19481e-67
5.48208e-68
5.9432e-68
3.04246e-68
1.14964e-68
3.64257e-69
1.19624e-69
2.58876e-70
4.14064e-71
3.08174e-72
5.34148e-74
9.07907e-75
1.19825e-74
1.3429e-74
1.33713e-74
1.19924e-74
9.684e-75
7.00421e-75
4.66064e-75
2.9515e-75
1.71572e-75
8.8592e-76
3.99198e-76
1.58294e-76
5.14004e-77
1.2677e-77
1.81766e-78
5.3401e-82
3.48195e-80
2.28812e-79
9.38703e-79
6.64486e-78
2.79478e-75
1.55406e-73
1.32296e-72
5.25672e-72
1.18294e-71
1.46028e-71
1.2416e-71
7.64382e-72
3.02379e-72
5.66603e-73
6.32628e-73
5.54387e-72
7.46804e-71
3.39549e-70
3.63436e-69
4.48759e-69
1.19224e-68
3.9531e-68
8.45143e-68
1.08703e-67
1.93693e-67
7.46228e-67
-7.32859e-61
0
4.17891e-67
8.03983e-67
1.00265e-66
7.44873e-67
5.56201e-67
2.08277e-66
9.33999e-67
3.29331e-67
5.53898e-66
3.48999e-65
1.72121e-64
8.24755e-67
2.44684e-66
2.40057e-68
1.40524e-69
1.3005e-71
2.97274e-70
1.18148e-71
5.34108e-71
4.44059e-71
1.28967e-71
4.88233e-72
3.17643e-72
2.40996e-72
1.48149e-72
6.36177e-73
6.72077e-73
3.1777e-73
1.0639e-73
2.97483e-74
8.47422e-75
1.5234e-75
1.87742e-76
9.4534e-78
8.25659e-80
1.49771e-80
1.85288e-80
1.93544e-80
1.78102e-80
1.4655e-80
1.08369e-80
7.06199e-81
4.24037e-81
2.43132e-81
1.28643e-81
6.11833e-82
2.58317e-82
9.79194e-83
3.11179e-83
7.70195e-84
1.13448e-84
4.36363e-88
2.73797e-86
1.88514e-85
7.80623e-85
5.28511e-84
5.37051e-83
1.60627e-80
4.84843e-79
3.23448e-78
1.04677e-77
1.67269e-77
1.65411e-77
1.1316e-77
5.04586e-78
1.07996e-78
1.67917e-78
2.14938e-77
3.97033e-76
2.15296e-75
2.63035e-74
3.66209e-74
1.17897e-73
3.94203e-73
9.67505e-73
1.31343e-72
2.49899e-72
1.07942e-71
-1.98935e-64
-1.27136e-68
1.31029e-72
1.21889e-71
1.5168e-71
1.13336e-71
-4.57107e-69
2.33075e-71
1.59639e-71
5.15197e-72
9.25598e-71
5.71694e-70
2.9854e-69
1.48538e-71
4.72564e-71
4.45706e-73
2.6321e-74
2.33492e-76
5.33476e-75
2.00819e-76
1.00065e-75
8.05048e-76
2.24104e-76
7.54904e-77
4.77414e-77
3.54304e-77
2.07074e-77
8.32247e-78
8.59008e-78
3.76416e-78
1.11707e-78
2.74427e-79
6.76548e-80
1.00971e-80
9.6571e-82
3.32731e-83
1.45892e-85
2.72785e-86
3.14798e-86
3.04433e-86
2.5691e-86
1.91977e-86
1.27843e-86
7.38529e-87
3.91162e-87
1.97144e-87
9.18304e-88
3.88658e-88
1.49208e-88
1.49252e-88
1.8703e-88
4.69139e-87
6.07065e-87
8.74663e-90
1.62508e-91
1.62495e-91
6.93522e-91
4.32143e-90
4.67457e-89
5.45088e-88
1.09114e-85
1.71715e-84
8.67931e-84
1.93446e-83
2.3903e-83
1.81993e-83
8.86349e-84
2.20063e-84
4.39822e-84
1.01596e-82
2.23976e-81
1.64018e-80
2.1946e-79
3.49998e-79
1.26456e-78
4.82782e-78
1.16903e-77
1.80065e-77
3.68486e-77
1.71857e-76
-4.42829e-68
-1.3531e-71
1.96366e-91
2.06705e-76
2.60441e-76
1.93883e-76
-2.73382e-71
2.10937e-76
3.02442e-76
9.17826e-77
1.71632e-75
1.04862e-74
6.04423e-74
2.92622e-76
9.92274e-76
9.15899e-78
5.39774e-79
4.9257e-81
1.073e-79
3.79138e-81
2.07659e-80
1.6378e-80
4.36292e-81
1.31011e-81
8.06821e-82
5.85877e-82
3.25088e-82
1.22469e-82
1.23932e-82
5.05231e-83
1.32725e-83
2.85035e-84
6.09929e-85
7.5883e-86
5.67388e-87
1.34396e-88
2.98471e-91
5.41315e-92
5.81834e-92
5.19283e-92
4.00609e-92
2.70532e-92
1.60666e-92
8.16625e-93
3.75661e-93
1.6286e-93
1.28375e-93
1.38205e-93
1.67608e-90
2.45109e-87
1.65564e-85
4.91877e-85
3.56285e-85
2.07555e-85
9.07988e-92
2.51997e-96
1.69818e-96
3.70817e-96
3.77205e-95
5.56887e-94
1.65538e-92
8.28997e-91
6.87743e-90
2.19367e-89
3.63685e-89
3.22497e-89
1.66369e-89
4.61348e-90
1.23825e-89
5.08756e-88
1.46994e-86
1.40449e-85
2.20833e-84
3.9274e-84
1.45972e-83
6.85785e-83
1.21137e-82
2.59654e-82
6.25979e-82
3.11412e-81
-8.64543e-72
-3.64548e-75
-3.11157e-80
3.92028e-81
5.02371e-81
3.67533e-81
-1.272e-74
9.03144e-99
6.27851e-81
1.80913e-81
3.51397e-80
2.12998e-79
1.36608e-78
6.52979e-81
2.25153e-80
2.10114e-82
1.21209e-83
1.09407e-85
2.36846e-84
7.97367e-86
4.70246e-85
3.67924e-85
9.45016e-86
2.53418e-86
1.52031e-86
1.0831e-86
5.70478e-87
2.01435e-87
2.00926e-87
7.65729e-88
1.78372e-88
3.33329e-89
6.21595e-90
6.48914e-91
3.82064e-92
6.31543e-94
7.31411e-97
1.16537e-97
1.16581e-97
9.59155e-98
6.75389e-98
4.11333e-98
2.16585e-98
9.71684e-99
9.82737e-99
9.15213e-97
3.78403e-93
1.48703e-89
3.85117e-86
5.49357e-83
3.3352e-81
9.81814e-81
7.15354e-81
4.14656e-81
1.87534e-87
1.40631e-92
4.38217e-97
3.46294e-101
2.19376e-101
5.58495e-100
7.02091e-99
3.7706e-97
5.46386e-96
2.39782e-95
5.52185e-95
6.19196e-95
3.36276e-95
9.93054e-96
4.6679e-95
2.64663e-93
1.17975e-91
1.27787e-90
2.52235e-89
5.25031e-89
1.88986e-88
1.06346e-87
-1.60807e-83
5.58187e-89
1.21161e-86
6.45213e-86
-1.57067e-75
-8.00452e-79
-7.69299e-83
7.23296e-86
1.08295e-85
7.73469e-86
-4.22907e-78
0
1.3422e-85
3.97635e-86
7.87287e-85
4.69281e-84
3.37357e-83
1.63086e-85
5.52526e-85
5.25534e-87
2.97496e-88
2.68722e-90
5.73676e-89
1.83875e-90
1.1562e-89
9.00647e-90
2.25488e-90
5.45746e-91
3.18757e-91
2.23243e-91
1.11665e-91
3.69323e-92
3.65827e-92
1.3074e-92
2.70723e-93
4.38686e-94
7.16559e-95
6.32128e-96
2.96357e-97
3.52223e-99
2.23132e-102
2.76402e-103
2.56445e-103
1.939e-103
1.24e-103
8.60087e-104
1.18779e-103
4.99267e-100
3.62933e-96
2.02213e-92
8.74531e-89
2.90929e-85
7.45107e-82
1.05311e-78
5.92818e-77
1.71078e-76
1.24525e-76
7.30248e-77
3.455e-83
2.73244e-88
9.19191e-93
2.24018e-97
4.62777e-102
9.78027e-105
9.46613e-105
1.88635e-103
4.54802e-102
2.61008e-101
7.93755e-101
1.21954e-100
6.94686e-101
2.2948e-101
2.38206e-100
1.61412e-98
1.07825e-96
1.37836e-95
3.04885e-94
7.90919e-94
2.8251e-93
1.79553e-92
-1.79511e-86
-3.49004e-106
2.58879e-91
1.49536e-90
-2.76825e-79
-1.61335e-82
-2.87701e-86
-8.43127e-102
2.55576e-90
1.81014e-90
-1.17304e-81
-1.17949e-85
1.68783e-90
9.57034e-91
1.93171e-89
1.13267e-88
8.98426e-88
4.43522e-90
1.48381e-89
1.41868e-91
7.92376e-93
7.34304e-95
1.51501e-93
4.69584e-95
3.10769e-94
2.40576e-94
5.88673e-95
1.29978e-95
7.40841e-96
5.12056e-96
2.4361e-96
7.5467e-97
7.48554e-97
2.51954e-97
4.64889e-98
6.50856e-99
9.37542e-100
7.05975e-101
2.67597e-102
2.33672e-104
8.57535e-108
7.33113e-109
6.29092e-109
6.2987e-109
1.24022e-107
1.29128e-103
1.30343e-99
1.04329e-95
6.93166e-92
3.72349e-88
1.5602e-84
5.05477e-81
1.28333e-77
1.79726e-74
9.31614e-73
2.62921e-72
1.91431e-72
1.13294e-72
5.68899e-79
4.80578e-84
1.71902e-88
4.59972e-93
1.14261e-97
2.87977e-102
6.97176e-107
3.94512e-108
3.93932e-108
3.00177e-107
1.06545e-106
2.39933e-106
1.38102e-106
5.70257e-107
1.58495e-105
1.19195e-103
1.12715e-101
1.71425e-100
4.16091e-99
1.28403e-98
4.82358e-98
3.31826e-97
-8.48775e-90
-3.89755e-94
5.08745e-96
3.75819e-95
-4.77192e-83
-3.087e-86
-7.31678e-90
-9.62115e-102
6.59176e-95
4.62669e-95
-2.86931e-85
-4.65045e-89
-6.27883e-105
2.50796e-95
5.11406e-94
2.96606e-93
2.55731e-92
1.29635e-94
4.33292e-94
4.10394e-96
2.29071e-97
2.13686e-99
4.31891e-98
1.31272e-99
9.10027e-99
7.0063e-99
1.67734e-99
3.40739e-100
1.90045e-100
1.30196e-100
5.91206e-101
1.71722e-101
1.71887e-101
5.48079e-102
9.04788e-103
1.09e-103
1.39299e-104
9.06311e-106
2.82304e-107
1.86415e-109
1.2832e-112
1.52846e-112
1.29359e-111
2.0021e-107
2.45612e-103
2.6085e-99
2.37794e-95
1.83412e-91
1.17503e-87
6.09068e-84
2.47374e-80
7.80359e-77
1.9687e-73
2.72371e-70
1.2942e-68
3.56669e-68
2.59617e-68
1.54817e-68
8.23327e-75
7.64967e-80
2.96683e-84
8.38754e-89
2.38107e-93
7.70548e-98
2.25352e-102
6.77476e-107
2.59124e-111
1.37157e-112
1.3689e-112
4.9238e-112
2.80724e-112
1.38804e-112
1.26716e-110
1.11804e-108
1.31688e-106