/*--------------------------------*- C++ -*----------------------------------*\
| =========                 |                                                 |
| \\      /  F ield         | OpenFOAM: The Open Source CFD Toolbox           |
|  \\    /   O peration     | Version:  2412                                  |
|   \\  /    A nd           | Website:  www.openfoam.com                      |
|    \\/     M anipulation  |                                                 |
\*---------------------------------------------------------------------------*/
FoamFile
{
    version     2.0;
    format      ascii;
    arch        "LSB;label=32;scalar=64";
    class       surfaceScalarField;
    location    "5.4";
    object      alphaPhi0.ethanol;
}
// * * * * * * * * * * * * * * * * * * * * * * * * * * * * * * * * * * * * * //

dimensions      [0 3 -1 0 0 0 0];

oriented        oriented;

internalField   nonuniform List<scalar> 
12640
(
-1.046e-05
1.046e-05
-1.52407e-05
4.7801e-06
-1.76261e-05
2.38568e-06
-1.87286e-05
1.10296e-06
-1.94565e-05
7.28091e-07
-2.02131e-05
7.56576e-07
-2.1175e-05
9.61715e-07
-2.24382e-05
1.26291e-06
-2.3925e-05
1.48651e-06
-2.54261e-05
1.50062e-06
-2.68788e-05
1.45235e-06
-2.82231e-05
1.34367e-06
-2.93946e-05
1.17087e-06
-3.04153e-05
1.01953e-06
-3.12987e-05
8.82678e-07
-3.21268e-05
8.2693e-07
-3.30001e-05
8.72085e-07
-3.40187e-05
1.01779e-06
-3.52747e-05
1.25558e-06
-3.68375e-05
1.56246e-06
-3.87415e-05
1.90376e-06
-4.09942e-05
2.25229e-06
-4.35573e-05
2.563e-06
-4.63508e-05
2.79321e-06
-4.92561e-05
2.90527e-06
-5.21071e-05
2.85103e-06
-5.47639e-05
2.65699e-06
-5.70001e-05
2.23681e-06
-5.85964e-05
1.59691e-06
-5.93592e-05
7.63085e-07
-5.91013e-05
-2.57555e-07
-5.76611e-05
-1.43987e-06
-5.48939e-05
-2.76709e-06
-5.0801e-05
-4.0932e-06
-4.53841e-05
-5.41732e-06
-3.87373e-05
-6.64686e-06
-3.0977e-05
-7.76001e-06
-2.23474e-05
-8.62911e-06
-1.30636e-05
-9.28324e-06
-3.41852e-06
-9.64449e-06
6.28739e-06
-9.70556e-06
1.57419e-05
-9.45453e-06
2.46375e-05
-8.89609e-06
3.27538e-05
-8.11709e-06
3.98684e-05
-7.1154e-06
4.57876e-05
-5.9197e-06
5.04734e-05
-4.6864e-06
5.38224e-05
-3.34999e-06
5.58346e-05
-2.01289e-06
5.66822e-05
-8.47854e-07
5.64814e-05
2.00312e-07
5.53328e-05
1.14825e-06
5.34928e-05
1.83973e-06
5.11515e-05
2.34144e-06
4.85273e-05
2.62466e-06
4.57498e-05
2.77809e-06
4.29694e-05
2.78086e-06
4.03067e-05
2.66342e-06
3.78559e-05
2.45172e-06
3.56665e-05
2.19003e-06
3.37434e-05
1.92374e-06
3.20614e-05
1.68272e-06
3.05667e-05
1.49554e-06
2.91733e-05
1.39398e-06
2.7794e-05
1.37975e-06
2.64369e-05
1.35749e-06
2.49927e-05
1.44431e-06
2.34828e-05
1.51006e-06
2.19121e-05
1.57114e-06
2.02856e-05
1.62663e-06
1.87555e-05
1.52926e-06
1.73778e-05
1.37663e-06
1.64041e-05
9.73031e-07
1.57926e-05
6.11404e-07
1.55774e-05
2.14677e-07
1.55201e-05
5.61154e-08
1.50964e-05
4.22874e-07
1.3627e-05
1.46888e-06
9.64862e-06
3.97755e-06
9.64876e-06
-6.57701e-06
1.7039e-05
-4.40837e-06
2.6122e-06
1.64241e-06
-3.66504e-06
9.27569e-06
-6.53035e-06
1.72148e-05
-7.21106e-06
2.43604e-05
-6.38916e-06
3.01681e-05
-4.8464e-06
3.45679e-05
-3.13749e-06
3.76846e-05
-1.63095e-06
3.96184e-05
-4.33883e-07
4.06055e-05
4.64119e-07
4.08243e-05
1.12341e-06
4.03666e-05
1.62714e-06
3.92933e-05
2.0909e-06
3.75756e-05
2.59878e-06
3.51966e-05
3.20456e-06
3.21141e-05
3.95354e-06
2.82828e-05
4.8482e-06
2.36755e-05
5.86203e-06
1.82999e-05
6.93756e-06
1.21932e-05
8.01e-06
5.43807e-06
9.00706e-06
-1.82455e-06
9.82557e-06
-9.41759e-06
1.03864e-05
-1.71282e-05
1.06164e-05
-2.47083e-05
1.04321e-05
-3.18466e-05
9.79631e-06
-3.82665e-05
8.65774e-06
-4.37162e-05
7.04759e-06
-4.79384e-05
4.98604e-06
-5.06632e-05
2.46748e-06
-5.16984e-05
-4.05006e-07
-5.10653e-05
-3.40086e-06
-4.86284e-05
-6.53064e-06
-4.44355e-05
-9.61041e-06
-3.85974e-05
-1.24851e-05
-3.13586e-05
-1.4999e-05
-2.29342e-05
-1.70537e-05
-1.36664e-05
-1.85517e-05
-3.94572e-06
-1.93663e-05
5.83563e-06
-1.94882e-05
1.52762e-05
-1.88961e-05
2.39844e-05
-1.76049e-05
3.16258e-05
-1.57588e-05
3.79022e-05
-1.33923e-05
4.26667e-05
-1.06846e-05
4.56715e-05
-7.69091e-06
4.69351e-05
-4.61277e-06
4.65131e-05
-1.59024e-06
4.4386e-05
1.27965e-06
4.07462e-05
3.84023e-06
3.58332e-05
6.06156e-06
2.98359e-05
7.83761e-06
2.3049e-05
9.12868e-06
1.57209e-05
9.95282e-06
8.14808e-06
1.03511e-05
5.70677e-07
1.03584e-05
-6.79092e-06
1.00247e-05
-1.37458e-05
9.40611e-06
-2.01452e-05
8.58883e-06
-2.58981e-05
7.67601e-06
-3.09498e-05
6.73416e-06
-3.52831e-05
5.82883e-06
-3.88968e-05
5.00762e-06
-4.17992e-05
4.28186e-06
-4.40474e-05
3.60576e-06
-4.55922e-05
2.98984e-06
-4.64352e-05
2.35347e-06
-4.6518e-05
1.65397e-06
-4.56492e-05
7.57478e-07
-4.37057e-05
-4.14287e-07
-4.04144e-05
-1.91457e-06
-3.56905e-05
-3.75097e-06
-2.9357e-05
-5.72319e-06
-2.15967e-05
-7.547e-06
-1.29235e-05
-8.61751e-06
-4.35877e-06
-8.1418e-06
2.52881e-06
-5.41922e-06
5.68706e-06
8.19539e-07
1.53348e-05
-5.61285e-06
2.26522e-05
-7.64677e-07
-2.23538e-06
8.63239e-06
-1.30619e-05
1.99263e-05
-1.78241e-05
3.13519e-05
-1.86364e-05
4.1662e-05
-1.66993e-05
5.02277e-05
-1.34123e-05
5.6948e-05
-9.85832e-06
6.1948e-05
-6.63153e-06
6.54698e-05
-3.9565e-06
6.77531e-05
-1.81987e-06
6.8994e-05
-1.18497e-07
6.93437e-05
1.27641e-06
6.88792e-05
2.55438e-06
6.75585e-05
3.91896e-06
6.53747e-05
5.3876e-06
6.22927e-05
7.03467e-06
5.82607e-05
8.87938e-06
5.3238e-05
1.08841e-05
4.72353e-05
1.29401e-05
4.02788e-05
1.49667e-05
3.24724e-05
1.68137e-05
2.39516e-05
1.83468e-05
1.49039e-05
1.9435e-05
5.57863e-06
1.99426e-05
-3.75033e-06
1.97617e-05
-1.27669e-05
1.88134e-05
-2.11802e-05
1.70714e-05
-2.86348e-05
1.4502e-05
-3.47738e-05
1.11242e-05
-3.94484e-05
7.14113e-06
-4.24309e-05
2.57695e-06
-4.35304e-05
-2.30176e-06
-4.2652e-05
-7.40962e-06
-3.98658e-05
-1.23977e-05
-3.53252e-05
-1.70271e-05
-2.91955e-05
-2.11307e-05
-2.17655e-05
-2.44859e-05
-1.3431e-05
-2.68879e-05
-4.58616e-06
-2.8212e-05
4.31542e-06
-2.83899e-05
1.28329e-05
-2.74131e-05
2.05617e-05
-2.53328e-05
2.70829e-05
-2.22783e-05
3.2151e-05
-1.84574e-05
3.54946e-05
-1.40248e-05
3.70011e-05
-9.19505e-06
3.65989e-05
-4.20972e-06
3.43509e-05
6.58088e-07
3.03613e-05
5.26977e-06
2.46843e-05
9.51754e-06
1.77952e-05
1.29503e-05
9.88314e-06
1.57487e-05
1.24864e-06
1.77619e-05
-7.79194e-06
1.89917e-05
-1.69473e-05
1.95039e-05
-2.59466e-05
1.93546e-05
-3.4532e-05
1.86069e-05
-4.25126e-05
1.73838e-05
-4.97506e-05
1.58247e-05
-5.61265e-05
1.40505e-05
-6.15863e-05
1.21928e-05
-6.61139e-05
1.03557e-05
-6.97108e-05
8.60444e-06
-7.24096e-05
6.98056e-06
-7.42448e-05
5.44099e-06
-7.5185e-05
3.93004e-06
-7.5214e-05
2.38291e-06
-7.42434e-05
6.84478e-07
-7.20946e-05
-1.39018e-06
-6.85452e-05
-3.96313e-06
-6.33361e-05
-7.12347e-06
-5.62496e-05
-1.08371e-05
-4.71329e-05
-1.4839e-05
-3.6125e-05
-1.85535e-05
-2.38598e-05
-2.08814e-05
-1.16217e-05
-2.03798e-05
-1.23182e-06
-1.58092e-05
4.61132e-06
-5.0211e-06
1.99467e-05
-5.6341e-06
2.82863e-05
6.64778e-07
-8.53389e-06
1.22843e-05
-2.4681e-05
2.5974e-05
-3.15133e-05
3.95771e-05
-3.22392e-05
5.16554e-05
-2.87776e-05
6.15596e-05
-2.33167e-05
6.92528e-05
-1.75518e-05
7.50194e-05
-1.23985e-05
7.92178e-05
-8.15546e-06
8.21824e-05
-4.78517e-06
8.41481e-05
-2.08443e-06
8.52357e-05
1.88393e-07
8.55847e-05
2.2046e-06
8.50138e-05
4.4892e-06
8.35276e-05
6.87364e-06
8.10419e-05
9.52003e-06
7.74651e-05
1.24557e-05
7.27236e-05
1.56252e-05
6.6793e-05
1.88704e-05
5.96788e-05
2.20805e-05
5.14516e-05
2.50407e-05
4.22552e-05
2.75432e-05
3.22943e-05
2.93955e-05
2.18277e-05
3.04087e-05
1.11658e-05
3.04228e-05
6.72066e-07
2.93062e-05
-9.29802e-06
2.70406e-05
-1.83758e-05
2.35794e-05
-2.62137e-05
1.89627e-05
-3.23594e-05
1.32882e-05
-3.68458e-05
7.06511e-06
-3.92441e-05
9.81943e-08
-3.95697e-05
-7.08303e-06
-3.77957e-05
-1.41714e-05
-3.40375e-05
-2.07854e-05
-2.8509e-05
-2.66597e-05
-2.15825e-05
-3.14132e-05
-1.36246e-05
-3.48469e-05
-5.08979e-06
-3.67477e-05
3.5074e-06
-3.69872e-05
1.16514e-05
-3.55559e-05
1.89377e-05
-3.26171e-05
2.48849e-05
-2.82247e-05
2.9159e-05
-2.27324e-05
3.15966e-05
-1.64642e-05
3.19907e-05
-9.59017e-06
3.02904e-05
-2.50921e-06
2.66249e-05
4.32441e-06
2.10544e-05
1.08411e-05
1.39886e-05
1.65838e-05
5.50073e-06
2.14386e-05
-3.93964e-06
2.51893e-05
-1.39893e-05
2.78116e-05
-2.43187e-05
2.93215e-05
-3.45733e-05
2.97592e-05
-4.44522e-05
2.92343e-05
-5.36906e-05
2.78464e-05
-6.20878e-05
2.57818e-05
-6.94902e-05
2.32274e-05
-7.58075e-05
2.03679e-05
-8.10071e-05
1.73919e-05
-8.5099e-05
1.44461e-05
-8.81324e-05
1.16354e-05
-9.01734e-05
9.01935e-06
-9.12941e-05
6.56073e-06
-9.14969e-05
4.13211e-06
-9.08262e-05
1.71091e-06
-8.91872e-05
-9.55978e-07
-8.63807e-05
-4.19767e-06
-8.21694e-05
-8.17422e-06
-7.62134e-05
-1.30789e-05
-6.81374e-05
-1.89131e-05
-5.76406e-05
-2.53361e-05
-4.47842e-05
-3.14099e-05
-3.02591e-05
-3.54069e-05
-1.55391e-05
-3.51003e-05
-2.84363e-06
-2.85028e-05
4.56544e-06
-1.24308e-05
2.4514e-05
-6.13951e-06
3.44259e-05
1.35438e-06
-1.60276e-05
1.51137e-05
-3.844e-05
3.11257e-05
-4.75249e-05
4.66502e-05
-4.77636e-05
5.99362e-05
-4.20636e-05
7.03508e-05
-3.37314e-05
7.80667e-05
-2.52677e-05
8.36282e-05
-1.79601e-05
8.76446e-05
-1.2172e-05
9.05934e-05
-7.7347e-06
9.27627e-05
-4.25378e-06
9.4289e-05
-1.33825e-06
9.51769e-05
1.31673e-06
9.53319e-05
4.33386e-06
9.45843e-05
7.62089e-06
9.278e-05
1.13239e-05
8.97854e-05
1.54495e-05
8.54591e-05
1.99506e-05
7.97274e-05
2.46016e-05
7.25552e-05
2.92524e-05
6.39945e-05
3.36014e-05
5.41799e-05
3.73578e-05
4.33321e-05
4.02432e-05
3.17457e-05
4.1995e-05
1.97783e-05
4.239e-05
7.82178e-06
4.12631e-05
-3.6859e-06
3.85496e-05
-1.42971e-05
3.41922e-05
-2.34826e-05
2.81497e-05
-3.11573e-05
2.09643e-05
-3.66871e-05
1.25959e-05
-4.00765e-05
3.48821e-06
-4.10816e-05
-6.07747e-06
-3.97369e-05
-1.55155e-05
-3.61006e-05
-2.44212e-05
-3.04398e-05
-3.23197e-05
-2.31377e-05
-3.87139e-05
-1.4615e-05
-4.33676e-05
-5.44095e-06
-4.59198e-05
3.80994e-06
-4.62377e-05
1.25607e-05
-4.43083e-05
2.01926e-05
-4.02517e-05
2.63837e-05
-3.44178e-05
3.0668e-05
-2.70166e-05
3.27189e-05
-1.85137e-05
3.24925e-05
-9.36225e-06
2.9955e-05
2.91707e-08
2.51612e-05
9.11879e-06
1.84163e-05
1.75868e-05
9.89009e-06
2.51111e-05
-5.71086e-08
3.13876e-05
-1.09692e-05
3.6104e-05
-2.24238e-05
3.92693e-05
-3.40242e-05
4.09253e-05
-4.53767e-05
4.11147e-05
-5.61183e-05
3.99781e-05
-6.5974e-05
3.77035e-05
-7.47142e-05
3.45229e-05
-8.22046e-05
3.07181e-05
-8.8365e-05
2.6528e-05
-9.32011e-05
2.22277e-05
-9.67838e-05
1.8029e-05
-9.92179e-05
1.407e-05
-0.000100635
1.0436e-05
-0.00010117
7.09587e-06
-0.000100857
3.81778e-06
-9.98843e-05
7.37156e-07
-9.81277e-05
-2.71403e-06
-9.5416e-05
-6.91037e-06
-9.14385e-05
-1.21525e-05
-8.57047e-05
-1.88135e-05
-7.75953e-05
-2.70236e-05
-6.65472e-05
-3.63846e-05
-5.24082e-05
-4.55489e-05
-3.58656e-05
-5.19498e-05
-1.87163e-05
-5.22496e-05
-3.78493e-06
-4.34318e-05
4.90168e-06
-2.11189e-05
2.94169e-05
-7.03111e-06
4.14572e-05
1.85214e-06
-2.49108e-05
1.84028e-05
-5.49905e-05
3.74017e-05
-6.65237e-05
5.51468e-05
-6.55084e-05
6.94347e-05
-5.63514e-05
7.97066e-05
-4.40032e-05
8.65517e-05
-3.21128e-05
9.10175e-05
-2.2426e-05
9.4063e-05
-1.52175e-05
9.63567e-05
-1.00289e-05
9.82606e-05
-6.15749e-06
9.98961e-05
-2.97418e-06
0.000101155
5.80944e-08
0.000101901
3.58798e-06
0.000101835
7.68664e-06
0.000100685
1.24735e-05
9.82499e-05
1.78842e-05
9.4308e-05
2.38926e-05
8.87149e-05
3.01947e-05
8.14071e-05
3.65602e-05
7.24088e-05
4.25998e-05
6.18398e-05
4.79269e-05
4.9924e-05
5.21591e-05
3.69968e-05
5.49226e-05
2.34822e-05
5.59049e-05
9.84896e-06
5.48964e-05
-3.37789e-06
5.17764e-05
-1.56054e-05
4.64191e-05
-2.65246e-05
3.90679e-05
-3.54572e-05
2.98962e-05
-4.20282e-05
1.91665e-05
-4.60897e-05
7.54999e-06
-4.74219e-05
-4.74418e-06
-4.59118e-05
-1.70237e-05
-4.17353e-05
-2.85954e-05
-3.5162e-05
-3.88909e-05
-2.65874e-05
-4.72877e-05
-1.65678e-05
-5.33879e-05
-5.77813e-06
-5.67111e-05
5.09664e-06
-5.71135e-05
1.53865e-05
-5.45977e-05
2.43848e-05
-4.92484e-05
3.15273e-05
-4.15587e-05
3.63873e-05
-3.18757e-05
3.87348e-05
-2.08603e-05
3.83389e-05
-8.96534e-06
3.51834e-05
3.18609e-06
2.94827e-05
1.48212e-05
2.13954e-05
2.5676e-05
1.14205e-05
3.50877e-05
-4.10751e-08
4.28505e-05
-1.25856e-05
4.86494e-05
-2.56566e-05
5.2341e-05
-3.87459e-05
5.40152e-05
-5.14158e-05
5.37854e-05
-6.3225e-05
5.17883e-05
-7.38511e-05
4.83305e-05
-8.30788e-05
4.37513e-05
-9.07495e-05
3.83898e-05
-9.68334e-05
3.26128e-05
-0.000101388
2.67824e-05
-0.000104522
2.11638e-05
-0.000106429
1.59763e-05
-0.000107327
1.13339e-05
-0.000107406
7.17469e-06
-0.00010687
3.28111e-06
-0.000105942
-1.90462e-07
-0.000104569
-4.08613e-06
-0.000102619
-8.85829e-06
-9.96956e-05
-1.50744e-05
-9.51056e-05
-2.34029e-05
-8.78519e-05
-3.42767e-05
-7.68923e-05
-4.73426e-05
-6.16482e-05
-6.0791e-05
-4.2734e-05
-7.08614e-05
-2.24604e-05
-7.25211e-05
-4.59189e-06
-6.12988e-05
5.66107e-06
-3.13692e-05
3.50785e-05
-8.44944e-06
4.99067e-05
2.44951e-06
-3.581e-05
2.32371e-05
-7.5778e-05
4.66375e-05
-8.99241e-05
6.73076e-05
-8.61785e-05
8.24059e-05
-7.14495e-05
9.16927e-05
-5.32899e-05
9.65809e-05
-3.7001e-05
9.89121e-05
-2.47574e-05
0.000100184
-1.6489e-05
0.000101302
-1.11483e-05
0.000102639
-7.49356e-06
0.000104255
-4.59036e-06
0.000105931
-1.61758e-06
0.000107328
2.19206e-06
0.000108009
7.00526e-06
0.000107642
1.28403e-05
0.00010584
1.96852e-05
0.000102333
2.73993e-05
9.68774e-05
3.56495e-05
8.9348e-05
4.40886e-05
7.97339e-05
5.22131e-05
6.81572e-05
5.95026e-05
5.48583e-05
6.54573e-05
4.02218e-05
6.95584e-05
2.4758e-05
7.13681e-05
9.02035e-06
7.06337e-05
-6.37584e-06
6.71721e-05
-2.0749e-05
6.07919e-05
-3.34341e-05
5.1753e-05
-4.39077e-05
4.03699e-05
-5.17037e-05
2.69631e-05
-5.6346e-05
1.21928e-05
-5.77614e-05
-3.3286e-06
-5.57185e-05
-1.90672e-05
-5.05322e-05
-3.37827e-05
-4.23555e-05
-4.70687e-05
-3.17854e-05
-5.78581e-05
-1.94572e-05
-6.57152e-05
-6.15439e-06
-7.00124e-05
7.24862e-06
-7.05155e-05
1.9881e-05
-6.72294e-05
3.09557e-05
-6.03231e-05
3.97946e-05
-5.03976e-05
4.58048e-05
-3.7886e-05
4.87368e-05
-2.37923e-05
4.83253e-05
-8.55398e-06
4.47101e-05
6.80076e-06
3.79594e-05
2.15709e-05
2.85745e-05
3.50596e-05
1.68583e-05
4.68025e-05
3.45374e-06
5.6254e-05
-1.11405e-05
6.32427e-05
-2.62211e-05
6.74211e-05
-4.12355e-05
6.90292e-05
-5.55731e-05
6.81221e-05
-6.87668e-05
6.49805e-05
-8.04405e-05
6.00026e-05
-9.03241e-05
5.3633e-05
-9.8293e-05
4.6357e-05
-0.000104348
3.86669e-05
-0.000108593
3.10259e-05
-0.000111231
2.38015e-05
-0.000112561
1.73049e-05
-0.000112857
1.16304e-05
-0.000112492
6.81055e-06
-0.000111798
2.5876e-06
-0.00011103
-9.58228e-07
-0.000110388
-4.72754e-06
-0.000109765
-9.48156e-06
-0.000108729
-1.61107e-05
-0.00010632
-2.58116e-05
-0.000101016
-3.95802e-05
-9.0956e-05
-5.74011e-05
-7.47545e-05
-7.69921e-05
-5.27184e-05
-9.28967e-05
-2.7837e-05
-9.74019e-05
-5.55568e-06
-8.35815e-05
6.83581e-06
-4.37583e-05
4.19127e-05
-1.04329e-05
6.03395e-05
4.04577e-06
-5.0289e-05
3.22853e-05
-0.000104018
6.25565e-05
-0.000120196
8.67142e-05
-0.000110337
0.000101548
-8.62835e-05
0.000107995
-5.97375e-05
0.000109051
-3.80566e-05
0.000107789
-2.34959e-05
0.000106346
-1.50462e-05
0.00010581
-1.0612e-05
0.00010649
-8.17335e-06
0.000108165
-6.2649e-06
0.000110387
-3.83926e-06
0.000112854
-2.75995e-07
0.000114594
5.26565e-06
0.000115274
1.21593e-05
0.000114357
2.06026e-05
0.00011144
3.03156e-05
0.000106197
4.08914e-05
9.84244e-05
5.18601e-05
8.8073e-05
6.25637e-05
7.52362e-05
7.23387e-05
6.01817e-05
8.05118e-05
4.33977e-05
8.63425e-05
2.54099e-05
8.93558e-05
7.01919e-06
8.90244e-05
-1.10787e-05
8.527e-05
-2.79892e-05
7.77021e-05
-4.31837e-05
6.69474e-05
-5.56668e-05
5.2853e-05
-6.48173e-05
3.61137e-05
-7.02199e-05
1.75954e-05
-7.17063e-05
-1.84215e-06
-6.90146e-05
-2.17586e-05
-6.22858e-05
-4.0511e-05
-5.20424e-05
-5.73116e-05
-3.86745e-05
-7.12255e-05
-2.32524e-05
-8.11369e-05
-6.59067e-06
-8.66739e-05
1.01922e-05
-8.72988e-05
2.598e-05
-8.30183e-05
3.98482e-05
-7.41934e-05
5.08616e-05
-6.14134e-05
5.85211e-05
-4.5548e-05
6.23519e-05
-2.76252e-05
6.2064e-05
-8.26776e-06
5.79106e-05
1.09527e-05
5.00265e-05
2.94536e-05
3.87835e-05
4.63017e-05
2.48284e-05
6.0757e-05
8.89956e-06
7.21824e-05
-8.29307e-06
8.04346e-05
-2.59822e-05
8.51091e-05
-4.34137e-05
8.64594e-05
-5.98952e-05
8.46022e-05
-7.48589e-05
7.99434e-05
-8.78301e-05
7.29736e-05
-9.85322e-05
6.43355e-05
-0.000106839
5.46646e-05
-0.000112795
4.46235e-05
-0.000116586
3.48168e-05
-0.00011853
2.57468e-05
-0.000119001
1.77745e-05
-0.000118466
1.10936e-05
-0.000117387
5.72979e-06
-0.000116311
1.50924e-06
-0.000115707
-1.56477e-06
-0.000115954
-4.48319e-06
-0.000117198
-8.23922e-06
-0.000119031
-1.42797e-05
-0.000120314
-2.45308e-05
-0.000118852
-4.10432e-05
-0.00011155
-6.47042e-05
-9.54401e-05
-9.31021e-05
-6.96744e-05
-0.000118664
-3.76431e-05
-0.000129433
-7.65787e-06
-0.000113567
8.63712e-06
-6.00529e-05
5.055e-05
-1.23593e-05
7.26987e-05
1.12803e-05
-7.39291e-05
5.4447e-05
-0.000147185
9.53848e-05
-0.000161134
0.000121784
-0.000136737
0.000132099
-9.65985e-05
0.000130993
-5.86322e-05
0.000124491
-3.15549e-05
0.000117259
-1.62644e-05
0.000111889
-9.67696e-06
0.000109279
-8.00219e-06
0.000109392
-8.28632e-06
0.000111531
-8.40373e-06
0.000114874
-7.18167e-06
0.000118677
-4.07881e-06
0.000122106
1.83659e-06
0.000124316
9.94935e-06
0.000124687
2.02314e-05
0.000122691
3.23119e-05
0.000117865
4.57163e-05
0.000109926
5.97993e-05
9.87308e-05
7.37589e-05
8.43518e-05
8.67173e-05
6.71419e-05
9.77216e-05
4.7582e-05
0.000105902
2.64588e-05
0.000110479
4.63574e-06
0.000110848
-1.69403e-05
0.000106847
-3.73817e-05
9.81452e-05
-5.53904e-05
8.4958e-05
-7.03644e-05
6.78281e-05
-8.14721e-05
4.72216e-05
-8.79474e-05
2.40697e-05
-8.94466e-05
-3.44762e-07
-8.58715e-05
-2.53352e-05
-7.73627e-05
-4.90208e-05
-6.43606e-05
-7.03143e-05
-4.7665e-05
-8.79219e-05
-2.81436e-05
-0.00010066
-7.1218e-06
-0.000107698
1.40258e-05
-0.000108448
3.38895e-05
-0.000102883
5.12935e-05
-9.1597e-05
6.51852e-05
-7.53038e-05
7.48191e-05
-5.51805e-05
7.96285e-05
-3.24335e-05
7.9583e-05
-8.22175e-06
7.45952e-05
1.5941e-05
6.5028e-05
3.90215e-05
5.14698e-05
5.98609e-05
3.47759e-05
7.74524e-05
1.56566e-05
9.13034e-05
-4.90941e-06
0.000101003
-2.58703e-05
0.000106072
-4.63983e-05
0.00010699
-6.56019e-05
0.000103808
-8.27467e-05
9.70904e-05
-9.73082e-05
8.75367e-05
-0.000108933
7.59609e-05
-0.000117523
6.32537e-05
-0.000123209
5.03076e-05
-0.000126252
3.78579e-05
-0.000127102
2.65945e-05
-0.000126286
1.69567e-05
-0.000124413
9.22022e-06
-0.000122136
3.45115e-06
-0.000120261
-3.66275e-07
-0.000119532
-2.29481e-06
-0.000120687
-3.327e-06
-0.000124276
-4.64824e-06
-0.000130268
-8.28619e-06
-0.000137697
-1.70994e-05
-0.000143921
-3.48182e-05
-0.000144248
-6.43765e-05
-0.000132621
-0.000104727
-0.000104426
-0.000146858
-6.13313e-05
-0.000172526
-1.5898e-05
-0.000158998
9.97934e-06
-8.59315e-05
6.05303e-05
-1.02346e-05
8.2933e-05
3.54678e-05
-0.000119632
0.000105753
-0.000217471
0.000160822
-0.000216204
0.000184437
-0.000160351
0.000181001
-9.31638e-05
0.000163282
-4.09136e-05
0.000142774
-1.10479e-05
0.000126021
4.88082e-07
0.000115292
1.05213e-06
0.000110499
-3.20918e-06
0.000110403
-8.1903e-06
0.000113704
-1.17045e-05
0.000119023
-1.25016e-05
0.000124929
-9.9847e-06
0.000130751
-3.98495e-06
0.000135141
5.55864e-06
0.00013741
1.79631e-05
0.000136813
3.29088e-05
0.000132745
4.97848e-05
0.000124767
6.77773e-05
0.000112656
8.58702e-05
9.64836e-05
0.000102891
7.65814e-05
0.000117625
5.36064e-05
0.000128878
2.8439e-05
0.000135647
2.09924e-06
0.000137189
-2.38304e-05
0.000132777
-4.85447e-05
0.000122859
-7.05874e-05
0.000107
-8.87354e-05
8.59746e-05
-0.000102165
6.065e-05
-0.000110026
3.1931e-05
-0.000111715
1.34468e-06
-0.000107099
-2.99512e-05
-9.63277e-05
-5.97923e-05
-7.98834e-05
-8.67601e-05
-5.88307e-05
-0.000108976
-3.42495e-05
-0.000125241
-7.72431e-06
-0.000134222
1.8944e-05
-0.000135115
4.39441e-05
-0.000127881
6.5727e-05
-0.000113379
8.31252e-05
-9.27017e-05
9.5193e-05
-6.72479e-05
0.000101362
-3.8602e-05
0.000101413
-8.27247e-06
9.53289e-05
2.20266e-05
8.3658e-05
5.06936e-05
6.71886e-05
7.63313e-05
4.66995e-05
9.79427e-05
2.34672e-05
0.000114536
-1.10778e-06
0.000125578
-2.64599e-05
0.000131424
-5.09187e-05
0.000131448
-7.35105e-05
0.000126399
-9.33547e-05
0.000116933
-0.000109783
0.000103963
-0.000122423
8.86003e-05
-0.000131191
7.2022e-05
-0.000136256
5.53733e-05
-0.000138097
3.97011e-05
-0.000137291
2.5789e-05
-0.000134542
1.42081e-05
-0.00013066
5.33872e-06
-0.00012637
-8.36455e-07
-0.000123128
-3.60516e-06
-0.000121691
-3.72863e-06
-0.000123351
-1.66466e-06
-0.00012946
1.46115e-06
-0.000141141
3.3944e-06
-0.000158404
1.63685e-07
-0.000178992
-1.42313e-05
-0.000196319
-4.70492e-05
-0.000198756
-0.000102289
-0.000173319
-0.000172296
-0.000115596
-0.00023025
-4.20913e-05
-0.000232502
6.83977e-06
-0.000134864
6.73681e-05
2.44367e-06
8.04889e-05
8.56629e-05
-0.000202852
0.000188847
-0.000320656
0.00025502
-0.000282378
0.000268793
-0.000174125
0.000242986
-6.73567e-05
0.000200421
1.64998e-06
0.000159896
2.94765e-05
0.000130622
2.97625e-05
0.000113936
1.77373e-05
0.000107573
3.15357e-06
0.000108557
-9.17406e-06
0.000114196
-1.73438e-05
0.000122388
-2.06935e-05
0.000131708
-1.93038e-05
0.00014079
-1.30661e-05
0.000148302
-1.95385e-06
0.000153229
1.30369e-05
0.000154649
3.14892e-05
0.000151771
5.2663e-05
0.000143996
7.55531e-05
0.000130953
9.89139e-05
0.000112639
0.000121204
8.94764e-05
0.000140786
6.22465e-05
0.000156107
3.20693e-05
0.000165823
3.38354e-07
0.000168918
-3.15136e-05
0.000164628
-6.16713e-05
0.000153017
-8.86962e-05
0.000134025
-0.000111105
0.000108385
-0.000127511
7.70581e-05
-0.000136995
4.14159e-05
-0.000139007
3.35654e-06
-0.000133169
-3.57892e-05
-0.000119671
-7.32903e-05
-9.91861e-05
-0.000107244
-7.26377e-05
-0.000135524
-4.169e-05
-0.000156188
-8.40677e-06
-0.000167505
2.50015e-05
-0.000168523
5.64557e-05
-0.000159336
8.38135e-05
-0.000140736
0.000105554
-0.000114442
0.000120585
-8.22782e-05
0.000128225
-4.62423e-05
0.000128203
-8.25084e-06
0.000120757
2.94721e-05
0.000106415
6.50339e-05
8.60262e-05
9.67171e-05
6.08648e-05
0.000123101
3.24216e-05
0.000142977
2.00587e-06
0.000155992
-2.84508e-05
0.00016188
-5.7744e-05
0.000160741
-8.45213e-05
0.000153177
-0.000107651
0.000140064
-0.000126305
0.000122618
-0.000140003
0.0001023
-0.000148687
8.07089e-05
-0.000152719
5.94061e-05
-0.000152716
3.9699e-05
-0.000149516
2.25916e-05
-0.000144034
8.72892e-06
-0.000137104
-1.58994e-06
-0.000130219
-7.72164e-06
-0.000124285
-9.54077e-06
-0.000120886
-7.13074e-06
-0.00012202
-5.33302e-07
-0.000130148
9.58788e-06
-0.000148179
2.14253e-05
-0.000178368
3.03528e-05
-0.000219405
2.68053e-05
-0.000262048
-4.40614e-06
-0.000287169
-7.71693e-05
-0.000271524
-0.00018794
-0.000202264
-0.000299512
-9.49178e-05
-0.00033985
-6.62537e-06
-0.000223156
6.07428e-05
2.66227e-05
5.38656e-05
0.000145217
-0.000321447
0.000261118
-0.000436557
0.00032224
-0.000343501
0.00032236
-0.000174245
0.000278859
-2.38569e-05
0.000217737
6.27724e-05
0.000161752
8.54607e-05
0.000123264
6.82513e-05
0.000103409
3.75926e-05
9.81636e-05
8.39902e-06
0.000102572
-1.35818e-05
0.000112681
-2.74529e-05
0.00012585
-3.38624e-05
0.000139742
-3.31958e-05
0.000153039
-2.63632e-05
0.000164737
-1.36517e-05
0.000173243
4.53023e-06
0.00017747
2.72633e-05
0.000176368
5.37652e-05
0.000169122
8.27997e-05
0.000155128
0.000112908
0.000134312
0.00014202
0.000107132
0.000167966
7.45884e-05
0.00018865
3.80946e-05
0.000202317
-5.91494e-07
0.000207604
-3.95896e-05
0.000203625
-7.67288e-05
0.000190155
-0.000110217
0.000167512
-0.000138021
0.000136189
-0.000158488
9.75239e-05
-0.000170375
5.33031e-05
-0.000172857
5.83796e-06
-0.000165502
-4.31436e-05
-0.000148447
-9.03432e-05
-0.000122709
-0.00013298
-8.94668e-05
-0.000168764
-5.08295e-05
-0.000194825
-9.19392e-06
-0.00020914
3.26014e-05
-0.000210318
7.16844e-05
-0.000198418
0.000105891
-0.000174943
0.000132972
-0.000141523
0.000151743
-0.00010105
0.000161299
-5.57979e-05
0.000161279
-8.23176e-06
0.000151854
3.8897e-05
0.000133785
8.31027e-05
0.000108292
0.00012221
7.70641e-05
0.000154329
4.18578e-05
0.000178183
4.73417e-06
0.000193115
-3.2415e-05
0.000199028
-6.78518e-05
0.000196177
-9.987e-05
0.000185194
-0.000127042
0.000167235
-0.000148321
0.000143897
-0.000163135
0.000117114
-0.000171482
8.90565e-05
-0.0001739
6.18243e-05
-0.000171286
3.70859e-05
-0.000164783
1.6089e-05
-0.000155484
-5.71414e-07
-0.000144489
-1.25846e-05
-0.000133452
-1.8759e-05
-0.000123432
-1.95595e-05
-0.00011621
-1.43513e-05
-0.000114491
-2.25123e-06
-0.000121978
1.70761e-05
-0.000143512
4.29617e-05
-0.000183104
6.99455e-05
-0.000239512
8.3214e-05
-0.000300577
5.66589e-05
-0.000343076
-3.46714e-05
-0.00034066
-0.000190356
-0.000276358
-0.000363814
-0.00015636
-0.00045985
-3.22511e-05
-0.000347266
2.84914e-05
5.06999e-05
3.16507e-06
0.000165971
-0.000436718
0.000248644
-0.00051923
0.00028046
-0.000375316
0.000268
-0.000161785
0.000226811
1.73318e-05
0.000172146
0.000117438
0.000122941
0.000134666
9.0708e-05
0.000100485
7.73342e-05
5.09671e-05
7.9482e-05
6.25187e-06
9.16393e-05
-2.57389e-05
0.000109465
-4.52785e-05
0.000129485
-5.38823e-05
0.000149886
-5.35975e-05
0.000169226
-4.57038e-05
0.000186246
-3.06714e-05
0.000199344
-8.56771e-06
0.000207238
1.93694e-05
0.000208673
5.233e-05
0.00020231
8.91635e-05
0.000187322
0.000127897
0.000163494
0.000165849
0.000131357
0.000200103
9.22061e-05
0.000227801
4.78483e-05
0.000246674
3.2936e-07
0.000255122
-4.78317e-05
0.000251785
-9.39462e-05
0.000236268
-0.000135493
0.000209058
-0.000170152
0.000170845
-0.000195687
0.000123058
-0.000210404
6.802e-05
-0.000213479
8.91462e-06
-0.000204023
-5.25983e-05
-0.000182768
-0.000111599
-0.000150453
-0.000165296
-0.00010928
-0.000209937
-6.14751e-05
-0.00024263
-1.01161e-05
-0.000260499
4.14237e-05
-0.000261858
8.97939e-05
-0.000246788
0.000131944
-0.000217092
0.000165738
-0.000175316
0.000189132
-0.000124442
0.000201167
-6.78315e-05
0.00020105
-8.1129e-06
0.000189166
5.07837e-05
0.000166437
0.000105832
0.000134519
0.000154129
9.5497e-05
0.000193352
5.18914e-05
0.000221789
6.00778e-06
0.000238998
-3.96834e-05
0.000244719
-8.27225e-05
0.000239215
-0.000121239
0.00022371
-0.000153424
0.000199418
-0.000177913
0.000168385
-0.000193974
0.000133173
-0.00020164
9.67216e-05
-0.000201712
6.18946e-05
-0.000195519
3.0892e-05
-0.000184508
5.07918e-06
-0.000170166
-1.49129e-05
-0.000153951
-2.87981e-05
-0.000136973
-3.5737e-05
-0.000120697
-3.58352e-05
-0.000106836
-2.82128e-05
-9.80531e-05
-1.10337e-05
-9.87466e-05
1.77699e-05
-0.000113959
5.8174e-05
-0.00014703
0.000103016
-0.000195842
0.000132026
-0.000249266
0.000110083
-0.000288914
4.97765e-06
-0.000298241
-0.000181031
-0.00026331
-0.000398746
-0.000177235
-0.000545925
-5.71564e-05
-0.000467344
-2.86646e-05
4.88718e-05
-4.57071e-05
0.000103417
-0.000491263
0.000112505
-0.000528318
0.000100736
-0.000363547
8.19119e-05
-0.000142961
5.85466e-05
4.06971e-05
3.78307e-05
0.000138154
2.33912e-05
0.000149106
1.94718e-05
0.000104405
2.76331e-05
4.28059e-05
4.62748e-05
-1.23897e-05
7.18452e-05
-5.13095e-05
0.000101011
-7.44452e-05
0.000131291
-8.4162e-05
0.000160821
-8.31284e-05
0.000188148
-7.30311e-05
0.000212007
-5.45303e-05
0.000231608
-2.81691e-05
0.000244736
6.24144e-06
0.0002498
4.72664e-05
0.000245004
9.39598e-05
0.000229116
0.000143787
0.000201774
0.000193191
0.000163614
0.000238263
0.000116341
0.000275073
6.20813e-05
0.000300934
3.54738e-06
0.000313655
-5.58592e-05
0.000311191
-0.000113098
0.000293506
-0.000164918
0.000260877
-0.000208326
0.000214252
-0.000240275
0.000155007
-0.000258505
8.62506e-05
-0.000261991
1.23992e-05
-0.000249645
-6.4946e-05
-0.000222748
-0.000138497
-0.000182833
-0.000205211
-0.000132057
-0.000260713
-7.36459e-05
-0.00030104
-1.11912e-05
-0.000322953
5.14864e-05
-0.000324535
0.000110562
-0.000305863
0.000162484
-0.000269014
0.000204395
-0.000217226
0.000233794
-0.000153841
0.000248835
-8.28721e-05
0.000248875
-8.15228e-06
0.000233928
6.57303e-05
0.000205177
0.000134584
0.000164734
0.000194572
0.000115934
0.000242153
6.16737e-05
0.000276049
5.03953e-06
0.000295633
-5.09604e-05
0.000300719
-0.000103449
0.000291704
-0.00014992
0.00027018
-0.000188182
0.000237679
-0.000216472
0.000196673
-0.000233785
0.000150486
-0.00024015
0.000103087
-0.000236706
5.84501e-05
-0.000225389
1.95736e-05
-0.000208015
-1.22969e-05
-0.000186951
-3.59769e-05
-0.000163547
-5.22028e-05
-0.000138305
-6.09781e-05
-0.00011297
-6.1168e-05
-8.88174e-05
-5.23642e-05
-6.77696e-05
-3.20806e-05
-5.29038e-05
2.90429e-06
-4.69627e-05
5.22328e-05
-5.16422e-05
0.000107695
-6.52245e-05
0.000145609
-8.37894e-05
0.000128647
-0.000103218
2.44059e-05
-0.000119026
-0.000165222
-0.000127438
-0.000390334
-0.000114803
-0.000558559
-5.57203e-05
-0.000526428
-8.43847e-05
5.68428e-06
-5.13914e-05
-4.3224e-05
-0.000442354
-0.000115635
-0.000455906
-0.000167616
-0.000311566
-0.000187665
-0.000122912
-0.000184275
3.73078e-05
-0.000162477
0.000116356
-0.000131292
0.000117921
-9.60493e-05
6.91627e-05
-5.83147e-05
5.07121e-06
-1.82978e-05
-5.24067e-05
2.42605e-05
-9.3868e-05
6.90437e-05
-0.000119229
0.00011378
-0.000128899
0.000156759
-0.000126107
0.000196497
-0.00011277
0.000231506
-8.95398e-05
0.000260935
-5.75979e-05
0.000282527
-1.53512e-05
0.000293791
3.60006e-05
0.000292506
9.52439e-05
0.000276992
0.0001593
0.000246512
0.000223671
0.000201921
0.000282854
0.000145069
0.000331924
7.90631e-05
0.00036694
7.26681e-06
0.000385451
-6.58648e-05
0.000384322
-0.000136738
0.000364378
-0.000201495
0.000325634
-0.000255786
0.000268544
-0.000295696
0.000194917
-0.000318088
0.000108642
-0.00032176
1.60712e-05
-0.00030584
-8.0865e-05
-0.000271814
-0.000172522
-0.000222058
-0.000254966
-0.000159588
-0.000323182
-8.82888e-05
-0.000372339
-1.23974e-05
-0.000398844
6.38479e-05
-0.00040078
0.000136024
-0.000378039
0.000200056
-0.000333047
0.000252023
-0.000269195
0.000289005
-0.000190824
0.000308389
-0.000102258
0.000308745
-8.50893e-06
0.000290168
8.43065e-05
0.0002539
0.000170852
0.000203116
0.000245356
0.000141683
0.000303587
7.41216e-05
0.000343611
4.43703e-06
0.000365318
-6.39692e-05
0.000369125
-0.000127648
0.000355382
-0.000183086
0.000325619
-0.000227862
0.000282454
-0.000259621
0.000228433
-0.000277043
0.000167908
-0.00028011
0.000106154
-0.000270644
4.89836e-05
-0.000250793