/*--------------------------------*- C++ -*----------------------------------*\
| =========                 |                                                 |
| \\      /  F ield         | OpenFOAM: The Open Source CFD Toolbox           |
|  \\    /   O peration     | Version:  2412                                  |
|   \\  /    A nd           | Website:  www.openfoam.com                      |
|    \\/     M anipulation  |                                                 |
\*---------------------------------------------------------------------------*/
FoamFile
{
    version     2.0;
    format      ascii;
    arch        "LSB;label=32;scalar=64";
    class       volScalarField;
    location    "0.8";
    object      p;
}
// * * * * * * * * * * * * * * * * * * * * * * * * * * * * * * * * * * * * * //

dimensions      [1 -1 -2 0 0 0 0];

internalField   nonuniform List<scalar> 
6400
(
25437.2
25427.5
25410.1
25373.4
25314.1
25230.6
25133.2
25005.2
24851.8
24677
24473.5
24237
23966.7
23660.7
23319.8
22947.5
22548.8
22132.9
21709.2
21284.8
20869.6
20478
20127.5
19834.4
19610.5
19462.8
19393.6
19401.7
19482.9
19630.7
19836
20087
20370.4
20672.1
20979.5
21282.2
21573.2
21848.8
22108.8
22356.2
22596.4
22835
23076.8
23324.1
23576.2
23829.6
24078.4
24315.3
24532.1
24719.9
24870.3
24975.2
25027.8
25022.6
24956.9
24830.8
24649.1
24420.6
24158
23876.4
23590.8
23315
23060.6
22836.5
22649.3
22503.3
22400.8
22341.7
22323.9
22343.1
22393.5
22467.8
22557.9
22654.5
22745.7
22818.5
22864.7
22886.1
22889.3
22884.9
24204.8
24185
24162
24124.3
24073.6
23991.7
23896.3
23775.4
23623.9
23446.8
23242.5
23006.1
22734.3
22425.1
22079.9
21703.9
21302
20881.3
20450.7
20020.4
19602.6
19211.9
18864.8
18576.3
18357.5
18215.3
18151.8
18166
18253.7
18407.9
18618.7
18873.6
19158.4
19458.9
19762.4
20058.7
20340.9
20606.1
20855
21091.8
21322.7
21554.1
21791.1
22036.1
22288.3
22544.1
22797.5
23040.9
23265.6
23462.2
23621.8
23735.7
23796.4
23797.9
23736.8
23613.3
23432
23202.6
22938.1
22653.7
22364.5
22084.5
21825.3
21596.2
21404.1
21253.8
21147.9
21086.7
21067.6
21086
21135.5
21208.6
21297.2
21391.6
21481.2
21554.1
21601.4
21623
21624.6
21625.4
22974.4
22952.7
22925.1
22876.8
22824.6
22748.2
22653.3
22533.9
22384.2
22205.5
21997.6
21757.7
21482.2
21170
20823
20444.4
20038.5
19612.3
19175.6
18740.5
18321.2
17933.6
17593.3
17313.6
17104
16970.5
16915.5
16938.2
17034.2
17195.9
17412.2
17669.7
17953.4
18249
18543.7
18827.9
19095.1
19343.5
19575.1
19795.4
20012
20232.2
20461.5
20702.4
20953.8
21212
21470.6
21721.6
21956.1
22164.4
22336.9
22464.1
22537.7
22550.7
22498.9
22382.2
22205.5
21978.3
21714.2
21428.6
21136.8
20853
20589.2
20355
20157.3
20001.3
19889.9
19823.7
19800.5
19815.3
19861.6
19931.4
20015.4
20103.1
20185.5
20256.4
20309.5
20338.1
20340.6
20342.7
21725.5
21705.5
21680.1
21632.2
21572.6
21495.7
21400.2
21280.1
21129.3
20947.4
20734
20489.1
20208.5
19890.6
19539
19157.2
18749.2
18321.8
17885.1
17452.4
17039.2
16661.1
16332.5
16065.2
15868
15746.3
15702.5
15735.3
15839.8
16007.4
16226
16481.6
16759.1
17044.2
17324.6
17590.8
17837.4
18063.6
18272.8
18472
18669.9
18874.6
19091.9
19324.4
19571.1
19828.2
20089.3
20346.4
20590.1
20810.5
20997.2
21140.4
21230.6
21260.1
21224.1
21121.9
20958.2
20742.1
20486.8
20207.2
19918.7
19635.5
19369.9
19131.5
18928
18764.8
18645.5
18571.3
18539.9
18545.6
18581.4
18640
18713.1
18790.5
18862.8
18926.9
18980.9
19017.1
19026.8
19031.7
20466.2
20446.5
20421.1
20377.7
20315.3
20236.8
20137.8
20011.4
19853.1
19664.5
19444.9
19195.8
18912.6
18591.1
18233.9
17846.9
17437.2
17013.1
16584.3
16162.5
15761.9
15397.7
15083.9
14832.1
14650.3
14543.3
14512.9
14556.7
14668.8
14839.6
15056.5
15305.4
15571.3
15840.3
16100.3
16342.5
16562.5
16760.7
16942.3
17115.6
17290.1
17474.7
17675.3
17894.9
18132.6
18384.9
18645.7
18906.8
19159
19392
19595.2
19757.8
19869.6
19922
19909.5
19830.9
19689.6
19494.2
19256.6
18991.1
18712.7
18435.5
18171.4
17930.2
17719.8
17546.9
17416.5
17330.5
17286.7
17278.3
17297
17335.8
17389.8
17453
17517.7
17578
17628.9
17668.2
17685.5
17690.9
19204.7
19187.4
19157.6
19113.2
19048
18966.5
18862.7
18729.2
18561.2
18363.1
18135.6
17880.7
17594.7
17272.3
16914.8
16528.2
16121.4
15704
15285.6
14877.3
14492.5
14145.6
13850.3
13617.2
13453.8
13363.7
13347.4
13401.5
13519.1
13689.9
13901.4
14139.3
14389.2
14637.3
14872.1
15085.5
15274.2
15440.1
15589.7
15732.6
15879.2
16039
16218.5
16420.8
16645.5
16889.4
17146.4
17408.9
17667.7
17912.8
18133.3
18317.9
18455.7
18537.1
18555.5
18508.5
18398
18231.1
18018.4
17773.7
17511.4
17245.3
16986.7
16744.9
16528.3
16344.5
16200.4
16099
16038.1
16011.6
16011.4
16030.6
16064.9
16111.1
16164.6
16218.6
16263.6
16298.4
16319.5
16324.4
17923.8
17911.3
17880.4
17835
17769.7
17684.2
17571.5
17429.4
17254.5
17050.8
16818.6
16558.8
16268.6
15944.7
15588.1
15205
14804.6
14396.5
13990.3
13597.3
13230.6
12904.6
12632
12422.4
12281.4
12211.3
12210.9
12275.7
12398
12567.2
12770.8
12994.8
13225
13448.2
13653.5
13833.9
13987.2
14116.7
14230.1
14337.9
14451.7
14581.5
14734.5
14914.4
15121.2
15352
15601.3
15861.9
16125.2
16381.4
16619.6
16828.1
16995.1
17110.2
17165.5
17156.6
17083.9
16952.4
16771.5
16554.2
16314.1
16064.2
15815
15575.3
15354
15160.1
15001.6
14882.4
14800.4
14750.2
14726.1
14723.7
14739.7
14770.7
14811.6
14855
14892.2
14919.1
14941.4
14948.6
16625.1
16610.9
16578.8
16532.3
16468
16381.1
16261.6
16112.4
15932.4
15724.9
15490.3
15228.3
14936.9
14614.9
14263.7
13888.9
13499.1
13103.7
12712.6
12337.7
11992.4
11690.7
11444
11260.3
11143.3
11093.5
11108.4
11182.3
11307.1
11471.9
11664.1
11870.2
12076.5
12270.4
12442.3
12586.2
12701.2
12791.6
12866.2
12936.5
13014.8
13112.1
13236.2
13391.4
13578.2
13794.2
14034.5
14292.5
14560.2
14828
15084.8
15318.5
15516.4
15666.9
15760.8
15791.9
15758.6
15664.4
15517.5
15329.8
15114.2
14882.4
14644.1
14408
14183.5
13981.3
13810.1
13674.4
13572.6
13499.9
13452.7
13429.3
13427
13441.6
13467.2
13495.8
13525.2
13547.9
13573.6
13588.6
15311.4
15292.1
15258.7
15211.4
15147.1
15060.7
14940
14789.3
14608
14397.6
14159.5
13894.3
13602.2
13284.1
12941.5
12579.2
12204.9
11827.4
11456.8
11105.2
10786.2
10513.1
10295.8
10140.5
10049
10020.2
10050.3
10132.7
10258.7
10417.1
10595.7
10781.2
10960.9
11123.3
11259.9
11365.8
11441.2
11491.2
11525.5
11556.6
11597.7
11660.4
11753.5
11881.8
12046.7
12246.2
12476.1
12730.6
13001.9
13280.5
13555
13812.7
14040.3
14225.4
14357.1
14427.6
14433.6
14376.8
14264.3
14107
13916.6
13703.9
13477.8
13247.2
13022.5
12814.6
12632.8
12481.5
12360.4
12266.8
12198.9
12156.4
12136.4
12134.7
12144.5
12158.6
12181.3
12204.9
12237.8
12264.1
13979.7
13957.8
13924.9
13879.1
13814.6
13729.4
13611.7
13463.1
13283.8
13073.5
12834.6
12568.4
12277.5
11965.1
11633.7
11287.6
10933
10578.2
10233
9909.41
9620.62
9378.56
9191.79
9064.68
8997.8
8988.7
9032.37
9121.48
9246.57
9396.52
9559.18
9722.19
9873.86
10004.1
10105.4
10173.9
10210.7
10221.6
10216.9
10209.9
10214.5
10243
10305
10406.1
10548.2
10730.3
10949
11198.8
11472.1
11759.1
12048.1
12325.8
12578.6
12793.5
12958.5
13064.8
13107.3
13086.2
13007.3
12880
12715.1
12522.3
12310.6
12089.1
11868.5
11659.5
11470.8
11306.8
11169
11057.3
10972.1
10913.3
10877.1
10859.5
10855.4
10859.2
10877.8
10905
10946.3
10980.9
12637.4
12615.4
12583.6
12539.8
12475.9
12392
12280.5
12136.4
11960.9
11752.7
11515.8
11253.5
10969.4
10667.2
10350.5
10023.7
9692.39
9363.99
9047.81
8755.25
8498.4
8287.78
8130.46
8029.5
7984.39
7991.67
8045.41
8137.56
8258.29
8396.57
8540.88
8679.92
8803.23
8901.95
8969.68
9003.54
9005.11
8980.85
8941.54
8900.77
8872.84
8870.65
8904.14
8979.63
9099.96
9264.97
9471.93
9715.64
9988.34
10279.8
10577.8
10869
11139.7
11376.9
11568.5
11704.7
11779.4
11791.4
11744.7
11646.7
11506.9
11334.5
11138.8
10929.9
10718.3
10513.5
10322.8
10150.9
10001.5
9877.49
9780.59
9709.45
9659.66
9627.34
9611.2
9608.54
9625.33
9656.06
9702.76
9738.65
11294.5
11274
11242.7
11199.9
11138.8
11056.3
10950.6
10812.2
10642.4
10441.5
10211.4
9957.5
9685.48
9399.48
9102.99
8800.15
8496.09
8197.43
7912.78
7652.65
7427.87
7247.56
7117.48
7039.63
7012.57
7031.98
7091.28
7182
7294.37
7417.91
7542.02
7656.56
7752.27
7821.38
7858.49
7861.52
7832.71
7778.94
7711.16
7642.93
7588.45
7560.58
7569.53
7622.23
7722.34
7870.57
8064.78
8299.91
8567.92
8858.13
9158.04
9454.4
9734.1
9984.58
10194.2
10353.2
10454.6
10496
10479.2
10409.6
10294.8
10143.3
9965.03
9770.94
9571.66
9375.89
9189.56
9017
8862.95
8733.03
8630.07
8551.24
8491.87
8448.16
8421.97
8415.05
8430.59
8462.7
8509.27
8543.8
9953.2
9934.59
9903.79
9861.17
9805.75
9727.3
9627.86
9496.08
9333.44
9143.94
8928.8
8691.45
8437.79
8172.99
7901.31
7626.72
7353.61
7087.59
6836.27
6609.02
6415.45
6263.42
6157.59
6099
6085.42
6111.92
6171.55
6255.97
6355.96
6461.98
6564.58
6654.77
6724.38
6766.66
6777.08
6754.39
6701.41
6625.26
6536.73
6448.91
6375.42
6328.7
6318.87
6353.18
6435.9
6568.34
6748.73
6972.04
7230.02
7511.79
7805.02
8097.06
8375.67
8629.3
8847.17
9019.87
9140.38
9205.07
9213.96
9170.23
9079.59
8949.91
8791.07
8614.2
8429.96
8246.87
8070.76
7905.79
7756.34
7627.89
7523.98
7441.57
7377.36
7327.77
7295.34
7284.83
7298.21
7328.83
7371.13
7406.62
8612.32
8596.29
8568.78
8528.94
8480.47
8409.34
8316.38
8194.55
8043.55
7868.85
7672.75
7457.98
7229.13
6991.51
6749.67
6507.46
6268.52
6037.44
5820.71
5626.48
5463.1
5337.2
5252.39
5208.85
5203.73
5231.86
5286.49
5359.92
5443.96
5530.3
5610.72
5677.38
5723.14
5742.22
5731.03
5689.06
5619.55
5529.58
5429.46
5331.42
5248.11
5191.16
5170.15
5192.12
5261.42
5379.52
5544.76
5752.19
5993.68
6258.72
6535.67
6812.87
7079.27
7324.56
7539.16
7714.58
7844.08
7923.4
7951.07
7928.42
7859.66
7751.87
7614.63
7458.7
7294.16
7129
6969.08
6818.9
6682.26
6562.89
6463.24
6381.42
6316.6
6267.2
6233.92
6221.26
6230.35
6256.37
6294.26
6330.21
7269.63
7258.31
7239.53
7208.25
7168.74
7106.62
7020.57
6908.98
6773.6
6618.42
6446.24
6258.95
6060.35
5855.22
5648.04
5442.07
5240.13
5045.82
4864.59
4703.4
4569.3
4467.68
4401.08
4368.94
4368.09
4393.54
4439.22
4498.52
4564.59
4630.5
4689.36
4734.53
4759.94
4760.78
4734.25
4680.4
4602.63
4507.71
4405.21
4306.3
4222.4
4163.93
4139.36
4154.89
4214.24
4318.52
4466.09
4652.31
4869.78
5109.08
5359.8
5611.53
5854.47
6079.58
6278.71
6444.77
6571.99
6656.23
6695.08
6688.36
6638.71
6552.21
6437.98
6306.43
6166.87
6026.05
5888.56
5758.16
5638.7
5533.28
5443.55
5368.3
5308.33
5263.63
5233.89
5221.28
5225.96
5245.66
5280.65
5312.03
5925.25
5921.38
5915.61
5897.48
5868.88
5818.68
5741.53
5642.38
5525.55
5393.95
5248.99
5092.66
4928.07
4759.49
4590.51
4423.57
4260.55
4104.25
3959.14
3830.99
3725.48
3646.67
3596.08
3572.63
3573.19
3593.4
3628.21
3672.37
3720.48
3767.06
3806.6
3833.71
3843.48
3832.04
3797.24
3739.41
3661.79
3570.6
3474.42
3383.2
3306.87
3254.21
3232.1
3245.24
3296.25
3385.68
3511.95
3671.15
3857.16
4062.08
4277.05
4493.04
4701.6
4895.2
5067.49
5213.27
5328.28
5408.95
5452.36
5456.94
5423.7
5357.46
5266.68
5161.41
5050.18
4938.2
4827.78
4720.77
4620.67
4531.6
4455.72
4393.14
4343.99
4307.98
4283.26
4271.56
4273.11
4287.81
4317.82
4342.08
4583.25
4587.43
4593.31
4587.22
4568.42
4530.47
4467.91
4385.95
4291.85
4188.12
4075.31
3954.37
3828.1
3699.73
3571.93
3446.08
3323.37
3205.86
3097.13
3001.68
2923.76
2866.16
2829.58
2812.75
2813.01
2826.91
2850.71
2880.55
2912.5
2942.53
2966.53
2980.4
2980.4
2963.51
2928.14
2874.67
2805.94
2727.29
2646.01
2570.38
2508.4
2466.79
2450.41
2462.29
2503.92
2575.44
2675.62
2801.62
2948.83
3111.08
3281.11
3451.49
3615.38
3767.22
3902.85
4019.26
4113.81
4183.6
4225.38
4236.51
4216.72
4169.69
4103
4025.58
3944.33
3862.3
3779.78
3697.38
3618.9
3549.31
3490.97
3444.24
3408.61
3382.87
3364.24
3353.79
3353.76
3365.31
3384.94
3399.5
3249.74
3256.54
3268.7
3270.81
3259.49
3231.54
3186.89
3129.95
3065.1
2994.27
2917.54
2836.06
2751.69
2666.7
2582.41
2499.49
2418.5
2340.92
2269.32
2206.83
2156.22
2119.1
2095.65
2084.8
2084.62
2092.83
2106.97
2124.57
2143.08
2159.89
2172.32
2177.64
2173.34
2157.34
2128.55
2087.33
2035.85
1978.14
1919.63
1866.3
1823.65
1796.04
1786.33
1796.13
1826.15
1876.39
1946.09
2033.38
2135.09
2246.78
2363.22
2479.11
2589.91
2692.29
2784.22
2864.34
2931.17
2982.45
3015.17
3026.61
3015.98
2986
2942.69
2893.02
2841.73
2789.64
2735.23
2678.57
2624.34
2578.26
2541.12
2512.04
2489.65
2473.91
2462.29
2455.18
2453.84
2461.19
2469.98
2473.13
1927.32
1928.68
1933.43
1940.13
1939.44
1926.56
1903.25
1873.56
1840.33
1804.04
1764.92
1723.52
1681.08
1638.54
1596.43
1554.83
1514.04
1474.89
1438.86
1407.61
1382.51
1364.21
1352.64
1347.12
1346.64
1350.07
1356.22
1363.88
1371.78
1378.63
1383.1
1383.85
1379.62
1369.39
1352.6
1329.48
1301.25
1270.13
1239.09
1211.32
1189.63
1176.13
1172.08
1178.12
1194.54
1221.33
1258.13
1303.94
1356.99
1414.77
1474.43
1533.26
1589.19
1640.95
1687.91
1729.55
1764.96
1792.6
1810.58
1817.39
1812.79
1798.48
1777.66
1753.61
1728.36
1702.36
1674.91
1645.75
1617.89
1595.26
1577.76
1564.56
1555.2
1549.18
1544.63
1542.08
1541.2
1541.93
1543.37
1538.52
621.348
620.147
619.158
620.946
622.735
621.977
618.661
613.877
608.28
601.997
594.96
587.465
579.777
572.161
564.635
557.182
549.806
542.695
536.157
530.539
526.089
522.899
520.904
519.937
519.782
520.219
521.04
522.044
523.036
523.822
524.2
523.961
522.889
520.793
517.554
513.199
507.956
502.26
496.69
491.855
488.263
486.251
485.98
487.499
490.813
495.915
502.746
511.134
520.749
531.119
541.707
552.025
561.746
570.744
579.02
586.539
593.086
598.246
601.495
602.424
601.076
598.109
594.369
590.247
585.709
580.85
575.827
570.583
565.633
561.931
558.967
556.893
556.626
557.651
557.547
557.72
558.68
556.663
551.787
550.825
-10.0488
-10.041
-10.0433
-10.0474
-10.0492
-10.0502
-10.0513
-10.0519
-10.0522
-10.0525
-10.0527
-10.0529
-10.0531
-10.0532
-10.0534
-10.0533
-10.0532
-10.0532
-10.0529
-10.0522
-10.0513
-10.0505
-10.0496
-10.0486
-10.0476
-10.0466
-10.0456
-10.0447
-10.0438
-10.0426
-10.0412
-10.04
-10.0389
-10.0379
-10.0372
-10.037
-10.0371
-10.0374
-10.0379
-10.0387
-10.0396
-10.0405
-10.0414
-10.0412
-10.0411
-10.0411
-10.0411
-10.0411
-10.0412
-10.0413
-10.0415
-10.0418
-10.0422
-10.0427
-10.0432
-10.0436
-10.0439
-10.044
-10.0431
-10.0416
-10.0401
-10.0388
-10.0376
-10.0365
-10.0354
-10.0346
-10.034
-10.0336
-10.0333
-10.0332
-10.0332
-10.0334
-10.0338
-10.0342
-10.0349
-10.0358
-10.0361
-10.0368
-10.0367
-10.0373
-10.5451
-10.545
-10.5444
-10.5455
-10.5458
-10.5455
-10.5455
-10.5455
-10.5456
-10.5457
-10.5456
-10.5456
-10.5456
-10.5456
-10.5456
-10.5456
-10.5456
-10.5456
-10.5457
-10.5457
-10.5457
-10.5457
-10.5456
-10.5456
-10.5456
-10.5456
-10.5456
-10.5456
-10.5456
-10.5456
-10.5456
-10.5456
-10.5456
-10.5456
-10.5456
-10.5456
-10.5456
-10.5456
-10.5456
-10.5456
-10.5456
-10.5456
-10.5456
-10.5456
-10.5456
-10.5456
-10.5456
-10.5456
-10.5456
-10.5456
-10.5456
-10.5456
-10.5456
-10.5456
-10.5456
-10.5456
-10.5456
-10.5456
-10.5456
-10.5456
-10.5456
-10.5456
-10.5456
-10.5456
-10.5456
-10.5456
-10.5456
-10.5456
-10.5457
-10.5456
-10.5456
-10.5457
-10.5456
-10.5457
-10.5457
-10.5457
-10.5457
-10.5457
-10.5457
-10.5456
-11.036
-11.0359
-11.0352
-11.0359
-11.0362
-11.0361
-11.0361
-11.0361
-11.0361
-11.0362
-11.0362
-11.0361
-11.0361
-11.0361
-11.0361
-11.0361
-11.0361
-11.0361
-11.0361
-11.0361
-11.0361
-11.0361
-11.0361
-11.0361
-11.0361
-11.0361
-11.0361
-11.0361
-11.0361
-11.0361
-11.0361
-11.0361
-11.0361
-11.0361
-11.0361
-11.0361
-11.0361
-11.0361
-11.0361
-11.0361
-11.0361
-11.0361
-11.0361
-11.0361
-11.0361
-11.0361
-11.0361
-11.0361
-11.0361
-11.0361
-11.0361
-11.0361
-11.0361
-11.0361
-11.0361
-11.0361
-11.0361
-11.0361
-11.0361
-11.0361
-11.0361
-11.0361
-11.0361
-11.0361
-11.0361
-11.0361
-11.0361
-11.0361
-11.0361
-11.0361
-11.0361
-11.0362
-11.0361
-11.0362
-11.0362
-11.0362
-11.0361
-11.0362
-11.0362
-11.0361
-11.5269
-11.5276
-11.5263
-11.5262
-11.5266
-11.5267
-11.5267
-11.5266
-11.5265
-11.5266
-11.5267
-11.5267
-11.5267
-11.5266
-11.5266
-11.5266
-11.5266
-11.5267
-11.5267
-11.5266
-11.5266
-11.5266
-11.5266
-11.5266
-11.5266
-11.5266
-11.5266
-11.5266
-11.5266
-11.5266
-11.5266
-11.5266
-11.5266
-11.5266
-11.5266
-11.5266
-11.5266
-11.5266
-11.5266
-11.5266
-11.5266
-11.5266
-11.5266
-11.5266
-11.5266
-11.5266
-11.5266
-11.5266
-11.5266
-11.5266
-11.5266
-11.5266
-11.5266
-11.5266
-11.5266
-11.5266
-11.5266
-11.5266
-11.5266
-11.5266
-11.5266
-11.5266
-11.5266
-11.5266
-11.5266
-11.5266
-11.5266
-11.5266
-11.5267
-11.5266
-11.5266
-11.5266
-11.5266
-11.5266
-11.5267
-11.5267
-11.5266
-11.5267
-11.5267
-11.5266
-12.0166
-12.018
-12.0174
-12.0169
-12.017
-12.0171
-12.0172
-12.0172
-12.0171
-12.0171
-12.0171
-12.0172
-12.0172
-12.0171
-12.0171
-12.0171
-12.0171
-12.0172
-12.0172
-12.0171
-12.0171
-12.0171
-12.0171
-12.0171
-12.0171
-12.0171
-12.0171
-12.0171
-12.0171
-12.0171
-12.0171
-12.0171
-12.0171
-12.0171
-12.0171
-12.0171
-12.0171
-12.0171
-12.0171
-12.0171
-12.0171
-12.0171
-12.0171
-12.0171
-12.0171
-12.0171
-12.0171
-12.0171
-12.0171
-12.0171
-12.0171
-12.0171
-12.0171
-12.0171
-12.0171
-12.0171
-12.0171
-12.0171
-12.0171
-12.0171
-12.0171
-12.0171
-12.0171
-12.0171
-12.0171
-12.0171
-12.0171
-12.0171
-12.0171
-12.0171
-12.0171
-12.0171
-12.0171
-12.0171
-12.0172
-12.0172
-12.0172
-12.0171
-12.0171
-12.0171
-12.5067
-12.5078
-12.508
-12.5077
-12.5076
-12.5075
-12.5076
-12.5077
-12.5077
-12.5076
-12.5076
-12.5076
-12.5076
-12.5076
-12.5076
-12.5076
-12.5076
-12.5076
-12.5077
-12.5076
-12.5076
-12.5076
-12.5076
-12.5076
-12.5076
-12.5076
-12.5076
-12.5076
-12.5076
-12.5076
-12.5076
-12.5076
-12.5076
-12.5076
-12.5076
-12.5076
-12.5076
-12.5076
-12.5076
-12.5076
-12.5076
-12.5076
-12.5076
-12.5076
-12.5076
-12.5076
-12.5076
-12.5076
-12.5076
-12.5076
-12.5076
-12.5076
-12.5076
-12.5076
-12.5076
-12.5076
-12.5076
-12.5076
-12.5076
-12.5076
-12.5076
-12.5076
-12.5076
-12.5076
-12.5076
-12.5076
-12.5077
-12.5076
-12.5076
-12.5076
-12.5076
-12.5076
-12.5076
-12.5076
-12.5076
-12.5077
-12.5077
-12.5077
-12.5077
-12.5076
-12.9976
-12.9979
-12.9983
-12.9983
-12.9982
-12.9981
-12.9981
-12.9981
-12.9982
-12.9982
-12.9982
-12.9981
-12.9981
-12.9981
-12.9981
-12.9981
-12.9981
-12.9981
-12.9981
-12.9981
-12.9981
-12.9981
-12.9981
-12.9981
-12.9981
-12.9981
-12.9981
-12.9981
-12.9981
-12.9981
-12.9981
-12.9981
-12.9981
-12.9981
-12.9981
-12.9981
-12.9981
-12.9981
-12.9981
-12.9981
-12.9981
-12.9981
-12.9981
-12.9981
-12.9981
-12.9981
-12.9981
-12.9981
-12.9981
-12.9981
-12.9981
-12.9981
-12.9981
-12.9981
-12.9981
-12.9981
-12.9981
-12.9981
-12.9981
-12.9981
-12.9981
-12.9981
-12.9981
-12.9981
-12.9981
-12.9981
-12.9981
-12.9981
-12.9982
-12.9981
-12.9982
-12.9982
-12.9981
-12.9981
-12.9981
-12.9981
-12.9982
-12.9982
-12.9982
-12.9982
-13.4886
-13.4884
-13.4886
-13.4887
-13.4887
-13.4887
-13.4886
-13.4886
-13.4886
-13.4887
-13.4887
-13.4886
-13.4886
-13.4886
-13.4886
-13.4886
-13.4887
-13.4887
-13.4886
-13.4886
-13.4886
-13.4886
-13.4886
-13.4886
-13.4886
-13.4886
-13.4886
-13.4886
-13.4886
-13.4886
-13.4886
-13.4886
-13.4886
-13.4886
-13.4886
-13.4886
-13.4886
-13.4886
-13.4886
-13.4886
-13.4886
-13.4886
-13.4886
-13.4886
-13.4886
-13.4886
-13.4886
-13.4886
-13.4886
-13.4886
-13.4886
-13.4886
-13.4886
-13.4886
-13.4886
-13.4886
-13.4886
-13.4886
-13.4886
-13.4886
-13.4886
-13.4886
-13.4886
-13.4886
-13.4886
-13.4886
-13.4886
-13.4886
-13.4887
-13.4886
-13.4887
-13.4887
-13.4887
-13.4886
-13.4886
-13.4886
-13.4886
-13.4886
-13.4887
-13.4887
-13.9793
-13.9791
-13.9791
-13.9791
-13.9791
-13.9792
-13.9792
-13.9791
-13.9791
-13.9791
-13.9791
-13.9791
-13.9791
-13.9791
-13.9791
-13.9791
-13.9791
-13.9791
-13.9791
-13.9791
-13.9791
-13.9791
-13.9791
-13.9791
-13.9791
-13.9791
-13.9791
-13.9791
-13.9791
-13.9791
-13.9791
-13.9791
-13.9791
-13.9791
-13.9791
-13.9791
-13.9791
-13.9791
-13.9791
-13.9791
-13.9791
-13.9791
-13.9791
-13.9791
-13.9791
-13.9791
-13.9791
-13.9791
-13.9791
-13.9791
-13.9791
-13.9791
-13.9791
-13.9791
-13.9791
-13.9791
-13.9791
-13.9791
-13.9791
-13.9791
-13.9791
-13.9791
-13.9791
-13.9791
-13.9791
-13.9792
-13.9791
-13.9791
-13.9791
-13.9792
-13.9791
-13.9792
-13.9792
-13.9791
-13.9791
-13.9791
-13.9791
-13.9791
-13.9791
-13.9792
-14.4697
-14.4697
-14.4696
-14.4696
-14.4696
-14.4696
-14.4697
-14.4697
-14.4696
-14.4696
-14.4696
-14.4696
-14.4696
-14.4696
-14.4696
-14.4696
-14.4696
-14.4696
-14.4696
-14.4696
-14.4696
-14.4696
-14.4696
-14.4696
-14.4696
-14.4696
-14.4696
-14.4696
-14.4696
-14.4696
-14.4696
-14.4696
-14.4696
-14.4696
-14.4696
-14.4696
-14.4696
-14.4696
-14.4696
-14.4696
-14.4696
-14.4696
-14.4696
-14.4696
-14.4696
-14.4696
-14.4696
-14.4696
-14.4696
-14.4696
-14.4696
-14.4696
-14.4696
-14.4696
-14.4696
-14.4696
-14.4696
-14.4696
-14.4696
-14.4696
-14.4696
-14.4696
-14.4696
-14.4696
-14.4696
-14.4696
-14.4697
-14.4696
-14.4696
-14.4697
-14.4696
-14.4697
-14.4697
-14.4697
-14.4696
-14.4696
-14.4696
-14.4697
-14.4696
-14.4696
-14.9601
-14.9602
-14.9602
-14.9602
-14.9601
-14.9601
-14.9601
-14.9602
-14.9602
-14.9601
-14.9601
-14.9601
-14.9601
-14.9601
-14.9602
-14.9601
-14.9601
-14.9601
-14.9601
-14.9601
-14.9601
-14.9601
-14.9601
-14.9601
-14.9601
-14.9601
-14.9601
-14.9601
-14.9601
-14.9601
-14.9601
-14.9601
-14.9601
-14.9601
-14.9601
-14.9601
-14.9601
-14.9601
-14.9601
-14.9601
-14.9601
-14.9601
-14.9601
-14.9601
-14.9601
-14.9601
-14.9601
-14.9601
-14.9601
-14.9601
-14.9601
-14.9601
-14.9601
-14.9601
-14.9601
-14.9601
-14.9601
-14.9601
-14.9601
-14.9601
-14.9601
-14.9601
-14.9601
-14.9601
-14.9601
-14.9601
-14.9602
-14.9601
-14.9601
-14.9601
-14.9602
-14.9602
-14.9602
-14.9602
-14.9601
-14.9601
-14.9601
-14.9602
-14.9602
-14.9601
-15.4506
-15.4507
-15.4506
-15.4507
-15.4507
-15.4506
-15.4506
-15.4506
-15.4506
-15.4506
-15.4506
-15.4506
-15.4506
-15.4506
-15.4506
-15.4507
-15.4506
-15.4506
-15.4506
-15.4506
-15.4506
-15.4506
-15.4506
-15.4506
-15.4506
-15.4506
-15.4506
-15.4506
-15.4506
-15.4506
-15.4506
-15.4506
-15.4506
-15.4506
-15.4506
-15.4506
-15.4506
-15.4506
-15.4506
-15.4506
-15.4506
-15.4506
-15.4506
-15.4506
-15.4506
-15.4506
-15.4506
-15.4506
-15.4506
-15.4506
-15.4506
-15.4506
-15.4506
-15.4506
-15.4506
-15.4506
-15.4506
-15.4506
-15.4506
-15.4506
-15.4506
-15.4507
-15.4506
-15.4506
-15.4506
-15.4506
-15.4507
-15.4507
-15.4506
-15.4506
-15.4506
-15.4506
-15.4507
-15.4507
-15.4506
-15.4506
-15.4506
-15.4506
-15.4507
-15.4507
-15.9412
-15.9412
-15.9411
-15.9411
-15.9412
-15.9412
-15.9411
-15.9411
-15.9411
-15.9411
-15.9411
-15.9412
-15.9412
-15.9411
-15.9411
-15.9411
-15.9411
-15.9411
-15.9411
-15.9411
-15.9411
-15.9411
-15.9411
-15.9411
-15.9411
-15.9411
-15.9411
-15.9411
-15.9411
-15.9411
-15.9411
-15.9411
-15.9411
-15.9411
-15.9411
-15.9411
-15.9411
-15.9411
-15.9411
-15.9411
-15.9411
-15.9411
-15.9411
-15.9411
-15.9411
-15.9411
-15.9411
-15.9411
-15.9411
-15.9411
-15.9411
-15.9411
-15.9411
-15.9411
-15.9411
-15.9411
-15.9411
-15.9411
-15.9411
-15.9411
-15.9411
-15.9411
-15.9412
-15.9411
-15.9411
-15.9411
-15.9411
-15.9412
-15.9412
-15.9411
-15.9411
-15.9411
-15.9412
-15.9412
-15.9411
-15.9411
-15.9411
-15.9411
-15.9411
-15.9412
-16.4317
-16.4317
-16.4316
-16.4316
-16.4316
-16.4317
-16.4317
-16.4317
-16.4316
-16.4316
-16.4316
-16.4317
-16.4317
-16.4317
-16.4316
-16.4316
-16.4316
-16.4316
-16.4316
-16.4316
-16.4316
-16.4316
-16.4316
-16.4316
-16.4316
-16.4316
-16.4316
-16.4316
-16.4316
-16.4316
-16.4316
-16.4316
-16.4316
-16.4316
-16.4316
-16.4316
-16.4316
-16.4316
-16.4316
-16.4316
-16.4316
-16.4316
-16.4316
-16.4316
-16.4316
-16.4316
-16.4316
-16.4316
-16.4316
-16.4316
-16.4316
-16.4316
-16.4316
-16.4316
-16.4316
-16.4316
-16.4316
-16.4316
-16.4316
-16.4316
-16.4316
-16.4316
-16.4317
-16.4316
-16.4316
-16.4316
-16.4317
-16.4317
-16.4317
-16.4317
-16.4316
-16.4316
-16.4316
-16.4317
-16.4317
-16.4316
-16.4317
-16.4316
-16.4316
-16.4316
-16.9221
-16.9222
-16.9222
-16.9221
-16.9221
-16.9221
-16.9222
-16.9222
-16.9222
-16.9222
-16.9221
-16.9221
-16.9222
-16.9222
-16.9221
-16.9221
-16.9221
-16.9221
-16.9221
-16.9221
-16.9221
-16.9221
-16.9221
-16.9221
-16.9221
-16.9221
-16.9221
-16.9221
-16.9221
-16.9221
-16.9221
-16.9221
-16.9221
-16.9221
-16.9221
-16.9221
-16.9221
-16.9221
-16.9221
-16.9221
-16.9221
-16.9221
-16.9221
-16.9221
-16.9221
-16.9221
-16.9221
-16.9221
-16.9221
-16.9221
-16.9221
-16.9221
-16.9221
-16.9221
-16.9221
-16.9221
-16.9221
-16.9221
-16.9221
-16.9221
-16.9221
-16.9221
-16.9222
-16.9222
-16.9221
-16.9221
-16.9221
-16.9222
-16.9222
-16.9222
-16.9221
-16.9221
-16.9221
-16.9222
-16.9222
-16.9221
-16.9222
-16.9222
-16.9222
-16.9221
-17.4126
-17.4126
-17.4127
-17.4127
-17.4127
-17.4127
-17.4126
-17.4127
-17.4127
-17.4127
-17.4127
-17.4127
-17.4126
-17.4127
-17.4126
-17.4126
-17.4126
-17.4126
-17.4126
-17.4126
-17.4126
-17.4126
-17.4126
-17.4126
-17.4126
-17.4126
-17.4126
-17.4126
-17.4126
-17.4126
-17.4126
-17.4126
-17.4126
-17.4126
-17.4126
-17.4126
-17.4126
-17.4126
-17.4126
-17.4126
-17.4126
-17.4126
-17.4126
-17.4126
-17.4126
-17.4126
-17.4126
-17.4126
-17.4126
-17.4126
-17.4126
-17.4126
-17.4126
-17.4126
-17.4126
-17.4126
-17.4126
-17.4127
-17.4127
-17.4126
-17.4126
-17.4126
-17.4126
-17.4127
-17.4126
-17.4126
-17.4126
-17.4126
-17.4127
-17.4127
-17.4127
-17.4126
-17.4126
-17.4126
-17.4126
-17.4126
-17.4126
-17.4126
-17.4127
-17.4127
-17.9032
-17.9031
-17.9032
-17.9032
-17.9032
-17.9032
-17.9032
-17.9031
-17.9032
-17.9032
-17.9032
-17.9032
-17.9031
-17.9031
-17.9031
-17.9031
-17.9031
-17.9031
-17.9031
-17.9031
-17.9031
-17.9031
-17.9031
-17.9031
-17.9031
-17.9031
-17.9031
-17.9031
-17.9031
-17.9031
-17.9031
-17.9031
-17.9031
-17.9031
-17.9031
-17.9031
-17.9031
-17.9031
-17.9031
-17.9031
-17.9031
-17.9031
-17.9031
-17.9031
-17.9031
-17.9031
-17.9031
-17.9031
-17.9031
-17.9031
-17.9031
-17.9031
-17.9031
-17.9031
-17.9032
-17.9031
-17.9031
-17.9031
-17.9032
-17.9032
-17.9031
-17.9031
-17.9031
-17.9032
-17.9032
-17.9031
-17.9031
-17.9031
-17.9031
-17.9031
-17.9031
-17.9032
-17.9032
-17.9032
-17.9031
-17.9031
-17.9031
-17.9031
-17.9031
-17.9032
-18.3937
-18.3937
-18.3937
-18.3937
-18.3937
-18.3937
-18.3937
-18.3937
-18.3937
-18.3937
-18.3937
-18.3937
-18.3936
-18.3936
-18.3936
-18.3936
-18.3936
-18.3936
-18.3936
-18.3936
-18.3936
-18.3936
-18.3936
-18.3936
-18.3936
-18.3936
-18.3936
-18.3936
-18.3936
-18.3936
-18.3936
-18.3936
-18.3936
-18.3936
-18.3936
-18.3936
-18.3936
-18.3936
-18.3936
-18.3936
-18.3936
-18.3936
-18.3936
-18.3936
-18.3936
-18.3936
-18.3936
-18.3936
-18.3936
-18.3936
-18.3936
-18.3936
-18.3936
-18.3936
-18.3936
-18.3937
-18.3936
-18.3936
-18.3936
-18.3937
-18.3936
-18.3936
-18.3936
-18.3936
-18.3937
-18.3937
-18.3937
-18.3937
-18.3937
-18.3936
-18.3936
-18.3936
-18.3937
-18.3937
-18.3937
-18.3937
-18.3937
-18.3937
-18.3936
-18.3936
-18.8842
-18.8842
-18.8842
-18.8842
-18.8842
-18.8842
-18.8842
-18.8842
-18.8842
-18.8842
-18.8842
-18.8842
-18.8842
-18.8841
-18.8841
-18.8841
-18.8841
-18.8841
-18.8841
-18.8841
-18.8841
-18.8841
-18.8841
-18.8841
-18.8841
-18.8841
-18.8841
-18.8841
-18.8841
-18.8841
-18.8841
-18.8841
-18.8841
-18.8841
-18.8841
-18.8841
-18.8841
-18.8841
-18.8841
-18.8841
-18.8841
-18.8841
-18.8841
-18.8841
-18.8841
-18.8841
-18.8841
-18.8841
-18.8841
-18.8841
-18.8841
-18.8841
-18.8841
-18.8841
-18.8841
-18.8842
-18.8841
-18.8841
-18.8841
-18.8841
-18.8841
-18.8841
-18.8841
-18.8841
-18.8841
-18.8841
-18.8842
-18.8842
-18.8842
-18.8842
-18.8841
-18.8841
-18.8841
-18.8841
-18.8842
-18.8842
-18.8842
-18.8842
-18.8842
-18.8842
-19.3747
-19.3747
-19.3747
-19.3747
-19.3747
-19.3747
-19.3747
-19.3747
-19.3747
-19.3747
-19.3747
-19.3747
-19.3746
-19.3746
-19.3746
-19.3746
-19.3746
-19.3746
-19.3746
-19.3746
-19.3746
-19.3746
-19.3746
-19.3746
-19.3746
-19.3746
-19.3746
-19.3746
-19.3746
-19.3746
-19.3746
-19.3746
-19.3746
-19.3746
-19.3746
-19.3746
-19.3746
-19.3746
-19.3746
-19.3746
-19.3746
-19.3746
-19.3746
-19.3746
-19.3746
-19.3746
-19.3746
-19.3746
-19.3746
-19.3746
-19.3746
-19.3746
-19.3746
-19.3746
-19.3746
-19.3747
-19.3747
-19.3746
-19.3746
-19.3746
-19.3746
-19.3746
-19.3747
-19.3746
-19.3746
-19.3746
-19.3746
-19.3747
-19.3747
-19.3747
-19.3747
-19.3747
-19.3746
-19.3746
-19.3747
-19.3747
-19.3747
-19.3747
-19.3747
-19.3747
-19.8652
-19.8652
-19.8652
-19.8652
-19.8652
-19.8652
-19.8652
-19.8652
-19.8652
-19.8652
-19.8652
-19.8652
-19.8652
-19.8651
-19.8651
-19.8651
-19.8651
-19.8651
-19.8651
-19.8651
-19.8651
-19.8651
-19.8651
-19.8651
-19.8651
-19.8651
-19.8651
-19.8651
-19.8651
-19.8651
-19.8651
-19.8651
-19.8651
-19.8651
-19.8651
-19.8651
-19.8651
-19.8651
-19.8651
-19.8651
-19.8651
-19.8651
-19.8651
-19.8651
-19.8651
-19.8651
-19.8651
-19.8651
-19.8651
-19.8651
-19.8651
-19.8652
-19.8651
-19.8651
-19.8651
-19.8652
-19.8652
-19.8652
-19.8651
-19.8651
-19.8651
-19.8651
-19.8652
-19.8652
-19.8652
-19.8651
-19.8651
-19.8651
-19.8652
-19.8652
-19.8652
-19.8652
-19.8652
-19.8652
-19.8652
-19.8652
-19.8652
-19.8652
-19.8652
-19.8652
-20.3557
-20.3557
-20.3557
-20.3557
-20.3557
-20.3557
-20.3557
-20.3557
-20.3557
-20.3557
-20.3557
-20.3557
-20.3557
-20.3557
-20.3557
-20.3556
-20.3556
-20.3556
-20.3556
-20.3556
-20.3556
-20.3556
-20.3556
-20.3556
-20.3556
-20.3556
-20.3556
-20.3556
-20.3556
-20.3556
-20.3556
-20.3556
-20.3556
-20.3556
-20.3556
-20.3556
-20.3556
-20.3556
-20.3556
-20.3556
-20.3556
-20.3556
-20.3556
-20.3556
-20.3556
-20.3556
-20.3556
-20.3556
-20.3556
-20.3556
-20.3556
-20.3556
-20.3557
-20.3556
-20.3556
-20.3556
-20.3557
-20.3557
-20.3557
-20.3556
-20.3556
-20.3556
-20.3556
-20.3557
-20.3557
-20.3557
-20.3556
-20.3556
-20.3557
-20.3556
-20.3556
-20.3556
-20.3557
-20.3557
-20.3557
-20.3557
-20.3557
-20.3557
-20.3557
-20.3557
-20.8462
-20.8462
-20.8462
-20.8462
-20.8462
-20.8462
-20.8462
-20.8462
-20.8462
-20.8462
-20.8462
-20.8462
-20.8462
-20.8462
-20.8462
-20.8462
-20.8462
-20.8462
-20.8462
-20.8461
-20.8461
-20.8461
-20.8461
-20.8461
-20.8461
-20.8461
-20.8461
-20.8461
-20.8461
-20.8461
-20.8461
-20.8461
-20.8461
-20.8461
-20.8461
-20.8461
-20.8461
-20.8461
-20.8461
-20.8461
-20.8461
-20.8461
-20.8461
-20.8461
-20.8461
-20.8461
-20.846
-20.8461
-20.8461
-20.8461
-20.8461
-20.8461
-20.8462
-20.8461
-20.8461
-20.8461
-20.8461
-20.8462
-20.8462
-20.8462
-20.8461
-20.8461
-20.8461
-20.8461
-20.8462
-20.8462
-20.8462
-20.8462
-20.8462
-20.8462
-20.8462
-20.8461
-20.8462
-20.8462
-20.8462
-20.8462
-20.8462
-20.8462
-20.8462