/*--------------------------------*- C++ -*----------------------------------*\
| =========                 |                                                 |
| \\      /  F ield         | OpenFOAM: The Open Source CFD Toolbox           |
|  \\    /   O peration     | Version:  2412                                  |
|   \\  /    A nd           | Website:  www.openfoam.com                      |
|    \\/     M anipulation  |                                                 |
\*---------------------------------------------------------------------------*/
FoamFile
{
    version     2.0;
    format      ascii;
    arch        "LSB;label=32;scalar=64";
    class       volScalarField;
    location    "3.2";
    object      p_rgh;
}
// * * * * * * * * * * * * * * * * * * * * * * * * * * * * * * * * * * * * * //

dimensions      [1 -1 -2 0 0 0 0];

internalField   nonuniform List<scalar> 
6400
(
24423.7
24550.1
24692.4
24722.3
24545.5
24204.8
23896.7
23853.2
24176.9
24740.5
25234
25343.3
24954.6
24248.1
23612.1
23418.3
23795.9
24545.2
25249.5
25517.9
25212.2
24520.5
23839.1
23537.1
23750.2
24321.6
24912.9
25208.2
25086.4
24664.5
24204.3
23951.1
24003.3
24283
24606.4
24800.6
24792.7
24628.2
24422.6
24286.1
24268.6
24349.2
24465.8
24556
24586.6
24558.3
24494.5
24425.2
24377
24368.2
24405
24475.9
24549.9
24585
24549.6
24447
24325
24257.7
24303.2
24459.4
24650.5
24759.8
24699
24472.1
24190.7
24021
24086
24381
24759.6
25007
24965.1
24632.4
24175.5
23838.8
23806
24099.2
24582.2
25057.4
25373.4
25520.8
24330.7
24320
24453.6
24666.4
24808.3
24732.3
24429.4
24058.6
23859.6
23997
24436.4
24942.9
25213.4
25065
24559.3
23977.3
23655.6
23783.5
24288.3
24879.2
25222.4
25137
24693.9
24161
23837.6
23881.7
24233.2
24669
24945.4
24935.7
24685.7
24363.9
24151.3
24140.3
24300
24514.9
24663.4
24683.7
24594
24464.5
24368
24341.8
24379.2
24445.9
24505.5
24536.4
24534.1
24504.7
24458.9
24411.4
24381.2
24387
24435.5
24510.3
24572.2
24577
24505
24382.8
24278
24263.8
24370.2
24554
24711.9
24737.8
24591.9
24337.7
24116.8
24068.8
24243.3
24559.8
24845.6
24934.6
24765.6
24420.1
24075.2
23904.9
23997
24331.9
24787.1
25332.1
24435.7
24211.6
24201.7
24421.9
24769.1
25003.5
24924.3
24516.3
23989.1
23664.7
23776.2
24303.8
24965.2
25374.5
25278.1
24716.3
24006.6
23555.8
23617.2
24143.1
24821.3
25266.8
25248.6
24812.1
24232.8
23840.2
23826.7
24154.8
24604.3
24918.6
24951.2
24730.2
24415.1
24187.7
24149.4
24281.7
24480.5
24629.8
24666.1
24598.9
24487.1
24394.8
24357.9
24376.3
24426.8
24483.1
24525.9
24543.4
24528.6
24481.1
24414.3
24358
24348.2
24405.5
24512.7
24613.4
24638.6
24551.2
24380.6
24219.4
24175
24300.6
24548.2
24782.1
24852.8
24691.4
24365.4
24052.8
23942.5
24119
24502.3
24885.9
25053.7
24903.7
24506.6
24067.8
23822.8
23925.2
24337.6
24986.6
24664.5
24271.8
24043.3
24081.5
24431.2
24906.9
25199.1
25069.7
24528.1
23859.9
23469.7
23627.8
24284.7
25079.8
25551
25414.9
24743.3
23923
23422.8
23515.5
24123.9
24881.4
25359.4
25317.6
24826.1
24198.1
23789
23792.6
24152.2
24625.3
24943.5
24964.2
24728.3
24406.3
24182.1
24151
24287.1
24483.2
24627
24660.7
24596.9
24491.5
24402.6
24361.9
24371
24414.2
24472.7
24528.3
24561.8
24553.8
24495.7
24403.6
24322.3
24306.3
24385.3
24533.9
24671.6
24703.7
24582.8
24353
24141
24087.7
24256.8
24579.5
24877.3
24961.3
24752
24342.7
23958.7
23830
24050.5
24513.2
24964.3
25148.2
24956.3
24493.1
24024.7
23835.2
24025.3
24531.2
24869.8
24509.4
24129.9
23878.1
23970.6
24428
25013.2
25355.7
25189.7
24550.3
23784.5
23352.9
23542.2
24273.2
25134.5
25625.9
25461.7
24742.9
23892.1
23395.5
23515
24147
24904.2
25359
25290.7
24792.3
24184.5
23809.8
23838
24194.8
24638.8
24920.1
24919.5
24690.3
24397.2
24205
24189.5
24317.3
24489.4
24610.1
24635.7
24581.2
24493.4
24416.7
24374.6
24371.4
24402.6
24460.3
24528.9
24580.3
24580.8
24512
24393.5
24285.9
24263.1
24363.9
24553.6
24727.8
24767.2
24615.7
24332.3
24074.7
24012.2
24216.4
24599
24946.8
25042
24800.3
24335.9
23907.7
23769.4
24014.3
24512.6
24982.4
25156.4
24943.4
24486.1
24076.3
23946.8
24110.1
24868.4
24792.8
24472.1
24016.3
23719.1
23847.8
24409.4
25106.7
25505.4
25313.7
24590.8
23737.2
23260.4
23461.3
24239.9
25149.4
25664.3
25497.3
24765.1
23906.5
23410.8
23530.2
24150.1
24883.6
25317.2
25247.8
24775.1
24208.3
23866.2
23897.7
24225.1
24623.5
24869.8
24864.3
24661.6
24409
24246.7
24234.9
24340.9
24481.8
24581.5
24607.7
24571.7
24505.6
24438.4
24388
24366
24383
24443.2
24531.2
24606.1
24616.3
24533.3
24382
24242.8
24211.7
24337.2
24573.6
24789.6
24839.1
24656.5
24316.6
24009.1
23933
24168.1
24608.2
25006.8
25118.8
24854.2
24345.2
23878.8
23727.4
23982.9
24497
24970.3
25135.7
24920.7
24484.7
24101.9
23881.4
24585.8
24927.2
24892.5
24484.4
23905.5
23556.1
23729.4
24398
25198.2
25639.4
25416
24617.3
23693.1
23187.5
23405.2
24222.6
25162.9
25686.5
25512.7
24774.8
23921.7
23437.1
23558.1
24160.3
24862.5
25270.5
25200.8
24757.2
24233.9
23923.6
23955.5
24251.6
24605.7
24821
24815
24640.1
24424.8
24286.9
24273.6
24356.5
24469.5
24554.5
24586.9
24571.1
24523.7
24459.9
24395.4
24352.2
24357.6
24426.3
24539.9
24640.9
24658.7
24555.5
24365.4
24192.1
24155.1
24310.7
24598.4
24857.2
24913.7
24696.1
24298.1
23943.3
23858
24126.2
24620.4
25061.8
25182.8
24893.9
24349
23860.2
23710.6
23981.3
24502
24958.9
25089.6
24839.6
24398.8
23930.6
24135.7
24785
25122.4
25028.4
24479.4
23791.9
23412.8
23636.8
24396.3
25271.1
25733.2
25477.8
24626.5
23666.6
23158.5
23395.6
24229.1
25165.9
25671.5
25486
24760.2
23940.8
23489.6
23618
24191.3
24842.9
25209.6
25134.3
24725.3
24255.9
23986.1
24022.1
24285.4
24591.8
24773.2
24765.2
24617.4
24438.8
24324.3
24309
24369.7
24457.4
24531
24571.7
24575.9
24544.2
24479.4
24397.3
24332.6
24329.3
24411.4
24554.2
24682
24704.3
24576.8
24345.4
24138.8
24098.9
24287.1
24625.4
24922.8
24982.4
24729.9
24280.4
23888.2
23800.4
24098.7
24633.2
25098.8
25216.5
24907.2
24347.5
23865.6
23739.8
24026.5
24528.7
24923.9
24971
24686.1
24210.4
23775.8
24409.8
24980.1
25302.2
25115.4
24462.8
23702.4
23309.2
23574.8
24396.6
25313.9
25779.9
25501.8
24629.5
23669.6
23178.2
23426.4
24245.9
25145.4
25615
25424.1
24735
23976.3
23572.9
23704.4
24231.3
24814
25130.1
25052.1
24688.1
24282.7
24058
24095.9
24321.4
24576
24722.8
24714.6
24596
24454.3
24361.3
24341.8
24379.7
24443.9
24509.4
24561.2
24585.8
24567.2
24497.7
24395
24308.5
24299.1
24398.1
24572.5
24726.7
24751.4
24597.3
24324.6
24086.8
24046.3
24266.3
24650.5
24980.6
25040.5
24757.9
24268.2
23851
23765.4
24085.4
24640.6
25109.9
25215.5
24896.4
24348.9
23903.2
23814.3
24101.7
24545.2
24839.4
24827.2
24561.8
23752.8
24011.5
24511.6
25101.1
25413.9
25179.2
24458.9
23648.8
23249.2
23543.1
24397.6
25326.6
25782.3
25492.6
24628.8
23699.2
23238
23487.2
24267
25104.4
25528.1
25340.6
24707.4
24026.4
23676
23803.2
24271.3
24776
25040.7
24965.9
24653.7
24315.1
24133.2
24168.5
24353.1
24557
24673.2
24668.7
24580.2
24472.8
24396.7
24369.6
24384.5
24428.3
24490.2
24556.3
24601.3
24593
24514.6
24388.8
24280.8
24267.8
24386.5
24593.6
24772.8
24797.6
24616.5
24304.7
24039.6
24000.4
24249.4
24672
25026.4
25084
24778.1
24262.8
23834.7
23755.8
24087.4
24642.6
25095.4
25182.1
24865.4
24354.3
23964.7
23912.1
24179.4
24547.2
24774.5
24807.7
24131.4
23840.7
23982.2
24515.7
25169.5
25499.9
25232.7
24464.7
23628.4
23233.7
23544.6
24402
25311.5
25742.6
25451.1
24622.6
23750
23330.6
23572.9
24293
25049.7
25420.7
25242.9
24678.1
24084.4
23788.5
23906.7
24310.1
24734.6
24950.3
24882.4
24623.4
24349.3
24205.4
24234.8
24379.4
24537.1
24628.3
24630.6
24570.8
24492.6
24428.2
24390.6
24383.8
24411.6
24474.6
24557.4
24621.5
24620
24529.4
24379.4
24251.4
24237.6
24377.5
24615.8
24816.9
24839.6
24632.9
24287.7
24001.7
23966.1
24238.8
24688.3
25055.9
25108.1
24787.6
24264.1
23841.6
23774.6
24107.1
24640.8
25057.6
25119.5
24815.5
24358.1
24034.6
24018
24269.5
24588.4
24851.4
24729.8
24022.4
23714.2
23890.8
24520.8
25227.6
25555.9
25259.3
24470.7
23639.9
23264.5
23580.1
24409.9
25269.8
25663.4
25380.3
24611.4
23819
23450.5
23678.6
24322.9
24985.4
25299.5
25136.2
24647.8
24146.2
23904.5
24010.4
24347.1
24693
24863.4
24804.7
24597.4
24382.6
24271.6
24293.2
24400.6
24518.2
24589.9
24600.7
24566.9
24512.5
24454.7
24405.3
24379.1
24395.3
24463
24563.3
24644.6
24646.5
24541.8
24368.4
24223.5
24211.2
24371.5
24636.9
24854.7
24873.6
24645.7
24276.1
23977.9
23947.8
24236
24697.5
25064.8
25108.5
24784.5
24272.8
23873.5
23822.7
24144.4
24635.8
24999
25031.5
24748.2
24357.4
24112.7
24147.5
24390.8
24717.7
25216.4
24462.6
23874
23604.9
23867.3
24544.7
25253.6
25560.2
25249.5
24476
23683.8
23339.6
23646.6
24420
25204.3
25551.4
25286.7
24597.8
23902.7
23590
23796.8
24353.9
24914.4
25171.4
25027
24619
24209.5
24018.7
24109.6
24380.6
24652.7
24783
24735.4
24576.4
24414.3
24330.2
24342.7
24416.9
24500.9
24558.4
24578.9
24567.6
24531.6
24476.4
24414.4
24371.7
24380.4
24455.5
24572.6
24668.1
24670.8
24551.8
24358
24200.2
24191.1
24368.9
24654.4
24882.4
24896.3
24653.9
24272.2
23972.2
23948.7
24242
24698
25050.7
25083.9
24768.8
24289
23929.1
23897.3
24196.1
24626.8
24923.3
24925.3
24673
24365
24213.6
24286.5
24516.8
25313.9
24901.3
24358.2
23819.3
23604.1
23889
24555.5
25232.2
25511.5
25207.1
24482.2
23756.7
23452.7
23738.3
24431.7
25120.6
25415.6
25178
24583.4
23995.6
23739.6
23919.7
24383.9
24841.2
25044
24921.7
24593.6
24271.3
24125.9
24200
24409.5
24615.4
24712.1
24676.6
24560.8
24443.3
24380.2
24382.8
24428.5
24486
24534.3
24564.7
24572.1
24549.1
24493.3
24419.3
24363.7
24368.6
24452
24583.7
24689.2
24690.3
24558.8
24350.2
24185.1
24180.6
24370.5
24666.3
24895.9
24904.1
24656.4
24277.1
23987
23971
24257.6
24689.7
25013.8
25035.2
24741.4
24312
24004.5
23991.8
24256.7
24613.2
24837.4
24815.5
24608.1
24390.2
24306
24365.6
24976.7
25079.7
24861.1
24372.5
23858.4
23653.2
23925.2
24549.8
25171.3
25418.4
25137
24488.9
23853.5
23596.2
23849.7
24444.7
25024.3
25264.6
25060.8
24569.1
24092.4
23891.4
24041.3
24411.9
24769.6
24923.2
24824.7
24572.1
24329.1
24222.4
24279.3
24433.5
24582.7
24652.3
24629
24550.1
24468.8
24421.1
24414.3
24436.8
24474.3
24517.2
24556.5
24578
24563.6
24505.6
24422.3
24358
24361.9
24452.4
24593.5
24703.9
24701.9
24562.6
24348
24183
24183.5
24377
24669.9
24891.1
24893.5
24651.9
24292.2
24024.6
24016.3
24283.3
24673.2
24955.6
24965.1
24704.5
24340.3
24093.5
24097.6
24320
24597.2
24753.5
24718.1
24557.2
24403.8
24320.8
24419.1
24912
25083.5
24899.1
24415.2
23922.7
23732.7
23980.8
24537.1
25079.7
25289.7
25046.3
24498.4
23969.9
23761.1
23972.2
24455.8
24919.4
25107
24942.7
24557.2
24189.6
24038.7
24155.7
24436.2
24702.2
24813.5
24739.3
24555.3
24381.3
24306.2
24346.3
24452.8
24555.2
24604.2
24592.2
24543.5
24490.4
24453.6
24438.6
24443.3
24466.4
24505.9
24552.1
24583.4
24574.4
24515
24426.2
24357.7
24361.4
24454.8
24598.3
24708.3
24704.3
24565.1
24355.3
24197.7
24201.1
24386.7
24661.6
24864.9
24863.9
24642.2
24319.6
24085.4
24082.6
24316.5
24648
24879.7
24879.6
24662.2
24372.9
24189.3
24205.8
24381.7
24582.7
24679.6
24632.2
24503.7
24364.4
23973.7
24541
24938.1
25090.9
24886.8
24439.5
24007.2
23845.8
24056.7
24521.1
24968.7
25141.3
24947.3
24512.1
24095.5
23931.5
24093.4
24462.7
24814.1
24955.4
24833.8
24550.1
24281.8
24172.7
24256.3
24455.2
24642
24719.5
24668.9
24543.9
24426.6
24375.6
24399.9
24467.5
24533.4
24567.6
24565.7
24540.5
24508.1
24478.4
24456.7
24448.8
24462.1
24499.7
24550.2
24587.3
24581.6
24522.2
24432.2
24363
24366.6
24458.4
24597.6
24702.7
24698.3
24567.1
24372.2
24227.5
24231
24398.1
24642.5
24821
24820.1
24630
24357.3
24162.8
24162.1
24352.8
24616.4
24794.5
24788.9
24620.7
24408
24283.5
24307.4
24437.5
24568.7
24611.2
24553.8
24437.9
23872.8
24236.5
24603.2
24914.7
25004.3
24818.4
24451.9
24108.2
23985.1
24154.4
24516.4
24859.6
24989
24841.6
24517.3
24210.9
24092.2
24209.9
24474.3
24723
24821.8
24737.1
24541.9
24359.2
24285.5
24341.1
24472.4
24594.7
24645.6
24614.2
24535.8
24462.1
24428.7
24440.8
24479.4
24519.1
24543.4
24548.8
24539.3
24520
24494.7
24469.4
24455.1
24464.1
24500.4
24551.2
24587.9
24581.4
24523.2
24438
24375.5
24382.4
24469.4
24595.8
24687.3
24679.2
24560.7
24391
24269.3
24276.1
24419.5
24622.9
24767
24762.9
24608.7
24394.1
24245.8
24249
24394.6
24588.1
24712.3
24702.3
24582
24440.7
24367.8
24394.9
24481.1
24549.6
24551.7
24491.8
24110.4
24208.7
24379.5
24609.9
24796.4
24837
24699
24452.6
24236.1
24173.5
24298.5
24535.2
24745
24811.3
24706.5
24502.1
24320.6
24260.2
24340.8
24501.6
24644.5
24694.6
24638.8
24524.4
24422.7
24385.6
24420.6
24494.5
24560.5
24586.1
24567.9
24526
24487.3
24469.5
24474.6
24493.4
24514.2
24529.6
24536.6
24534.4
24522.8
24503.2
24482
24470.5
24479.2
24509.7
24549
24573.7
24563.1
24514.8
24451.3
24410.9
24424.8
24494.8
24586.1
24644.3
24627.5
24535.9
24417.2
24341.3
24358.2
24464.3
24601.2
24688.6
24674.1
24565.8
24428.3
24342.6
24355
24450.8
24566.1
24631.7
24616.7
24544.2
24469.9
24440.9
24464.6
24507.7
24528.9
24512.3
24453.7
24436.7
24452.6
24495.8
24553.5
24594.6
24592
24544.1
24477.4
24430.8
24431
24476.5
24539.2
24582.9
24584.3
24546
24492.9
24456.2
24454.5
24484.4
24525.3
24553.6
24555.8
24535.1
24506.6
24487.1
24485.2
24498.4
24516.4
24528.8
24530.6
24523.7
24513.8
24506.6
24504.5
24506.8
24511
24515.2
24518.5
24520.3
24519.9
24516.7
24510.8
24504.6
24502
24505.9
24515.9
24527.1
24532.1
24526.1
24510.1
24492.6
24484.8
24493.7
24516.5
24541
24551.9
24540.6
24511.4
24480.5
24466.8
24479.8
24513.1
24547.5
24562.5
24549.3
24515.9
24482.8
24469.2
24481.5
24509.9
24535.5
24543.6
24532.3
24512.5
24499.1
24500.1
24510.6
24518.2
24514.9
0.673245
1.1469
0.935663
0.751904
0.78694
0.759337
0.618593
0.520258
0.640735
0.704348
0.593545
0.42168
0.45151
0.486946
0.428775
0.372242
0.479458
0.560124
0.530826
0.479451
0.531175
0.597433
0.629949
0.657534
0.73817
0.817892
0.853272
0.864435
0.905884
0.970172
1.03835
1.08966
1.14449
1.20219
1.23865
1.25142
1.25299
1.24995
1.23382
1.20076
1.15136
1.09989
1.05076
1.05776
1.04814
1.02083
0.996702
0.975297
0.945489
0.908978
0.892451
0.889983
0.858971
0.79472
0.758874
0.753349
0.732921
0.700928
0.767584
0.908237
0.982353
0.979946
1.01606
1.12353
1.17852
1.18105
1.23414
1.34735
1.3749
1.31403
1.28474
1.305
1.27381
1.22457
1.20054
1.17917
1.14322
1.09522
1.15177
1.05299
0.000106352
2.55614e-05
1.49281e-05
2.47564e-05
6.68259e-05
0.000126546
0.000166787
0.000160394
0.000113872
5.34938e-05
1.95694e-05
2.71526e-05
6.69297e-05
0.000119416
0.000153111
0.000149771
0.000117541
7.48433e-05
5.03439e-05
5.50806e-05
8.23213e-05
0.000114618
0.00013251
0.000130164
0.000114674
9.5712e-05
8.43377e-05
8.64475e-05
9.80435e-05
0.000111185
0.000118545
0.000118255
0.000113401
0.000108246
0.000104949
0.000104528
0.000105918
0.000108149
0.000111205
0.000115014
0.000118538
0.000119495
0.000116496
0.000109592
0.000101926
9.82862e-05
0.000102921
0.000115291
0.000128789
0.000133631
0.000124709
0.00010543
8.59865e-05
7.80777e-05
8.89685e-05
0.000112382
0.000134929
0.000142396
0.000130156
0.000100653
6.93595e-05
5.61603e-05
7.08014e-05
0.000103904
0.000134294
0.000142384
0.000124433
9.25052e-05
6.58018e-05
5.84387e-05
7.21107e-05
9.67553e-05
0.000114681
0.000116023
0.000102292
8.54234e-05
7.94664e-05
8.66588e-05
9.70246e-05
9.40889e-05
0.000105102
6.34478e-05
5.62969e-05
6.22358e-05
7.65591e-05
9.98707e-05
0.000118252
0.000119956
0.00010381
8.02795e-05
6.62419e-05
6.63786e-05
7.83205e-05
9.65511e-05
0.000112401
0.000116675
0.00010755
9.18105e-05
8.12875e-05
8.14647e-05
9.09802e-05
0.000103138
0.000110923
0.000111842
0.000108281
0.000102525
9.82478e-05
9.85515e-05
0.000102518
0.000107643
0.000110945
0.000111474
0.00011026
0.000108882
0.00010826
0.000108398
0.000108986
0.000109854
0.000111087
0.000112802
0.000114556
0.000115306
0.000114279
0.000111709
0.000108653
0.00010667
0.000107669
0.000112322
0.000118262
0.000120828
0.000117475
0.000109816
0.000101319
9.67468e-05
9.95537e-05
0.000107685
0.000116014
0.000119063
0.000116074
0.000105839
9.25458e-05
8.46498e-05
8.73569e-05
9.95677e-05
0.000112033
0.000115549
0.000108813
9.69787e-05
8.64959e-05
8.22642e-05
8.52833e-05
9.34488e-05
0.000100623
0.000102432
9.76961e-05
9.05726e-05
8.71118e-05
8.93499e-05
9.35184e-05
9.48418e-05
0.00011854
9.82385e-05
8.49798e-05
7.4383e-05
6.74959e-05
7.14899e-05
8.57352e-05
0.000101657
0.000108307
0.000103621
9.31474e-05
8.24419e-05
7.76191e-05
8.09781e-05
9.01847e-05
0.000101943
0.000108828
0.000107433
9.98877e-05
9.19237e-05
8.96936e-05
9.40544e-05
0.000100587
0.000105891
0.000108629
0.000108275
0.000105541
0.000102554
0.00010168
0.000103376
0.000106619
0.00010956
0.000111082
0.000111281
0.000110944
0.000110683
0.000110628
0.000110625
0.000110566
0.000110802
0.000111852
0.000113608
0.00011527
0.000116012
0.000115297
0.000112595
0.000108691
0.000106455
0.000108164
0.000113046
0.000117472
0.000118114
0.000114007
0.000107322
0.000101928
0.000101081
0.000103969
0.00010823
0.000112276
0.000114106
0.000110363
0.000100542
9.11145e-05
8.86423e-05
9.44845e-05
0.000102573
0.000106962
0.000106162
0.00010122
9.40128e-05
8.78836e-05
8.60058e-05
8.96925e-05
9.53826e-05
9.87943e-05
9.73242e-05
9.23883e-05
8.86834e-05
8.90934e-05
9.24126e-05
9.74607e-05
0.000100189
9.60786e-05
9.37203e-05
8.81728e-05
8.12022e-05
8.04507e-05
8.64873e-05
9.44245e-05
9.85187e-05
9.73401e-05
9.53381e-05
9.2059e-05
8.91171e-05
8.86042e-05
9.14251e-05
9.75462e-05
0.000102799
0.000103235
0.000100599
9.7148e-05
9.63437e-05
9.84997e-05
0.000101255
0.000103838
0.000105794
0.000106553
0.000106309
0.000105772
0.000105709
0.000106559
0.000108018
0.000109413
0.000110314
0.000110802
0.00011116
0.000111592
0.000112109
0.000112434
0.000112377
0.000112217
0.000112313
0.000112642
0.000113167
0.000114222
0.000115317
0.000114866
0.000112453
0.000109727
0.000108775
0.000110102
0.000112492
0.00011368
0.000112202
0.00010875
0.00010541
0.000104294
0.00010396
0.000104198
0.000106982
0.00010945
0.000108566
0.00010322
9.69278e-05
9.47836e-05
9.63019e-05
9.80054e-05
9.88923e-05
9.91607e-05
9.8859e-05
9.68526e-05
9.34962e-05
9.11091e-05
9.10298e-05
9.29242e-05
9.50398e-05
9.49373e-05
9.25116e-05
9.02991e-05
9.13365e-05
8.21995e-05
8.67524e-05
8.86572e-05
9.20075e-05
9.46692e-05
9.19466e-05
8.71932e-05
8.50721e-05
8.75014e-05
9.07095e-05
9.20813e-05
9.37865e-05
9.57161e-05
9.63025e-05
9.50816e-05
9.30297e-05
9.28875e-05
9.56722e-05
9.91357e-05
0.00010132
0.000101404
0.00010068
0.000100726
0.000101476
0.000102393
0.000103729
0.000105136
0.000106281
0.00010704
0.000107506
0.000107945
0.0001086
0.000109448
0.00011025
0.000110882
0.000111367
0.000111787
0.00011231
0.000112928
0.00011338
0.00011358
0.000113701
0.000113661
0.000113125
0.000112584
0.000113114
0.000114434
0.000114991
0.000113924
0.000111788
0.000110021
0.00010986
0.00011087
0.000111211
0.000110426
0.000109152
0.000108055
0.000106457
0.000103372
0.000101475
0.000102702
0.000105544
0.000105951
0.000102615
9.90808e-05
9.79541e-05
9.75868e-05
9.63862e-05
9.50732e-05
9.54069e-05
9.65883e-05
9.66903e-05
9.52261e-05
9.31062e-05
9.16921e-05
9.19697e-05
9.32337e-05
9.35228e-05
9.21335e-05
9.16672e-05
8.72339e-05
8.76099e-05
8.62429e-05
8.72513e-05
9.14114e-05
9.40109e-05
9.24376e-05
8.91656e-05
8.87372e-05
9.05913e-05
9.13657e-05
9.14986e-05
9.26126e-05
9.47993e-05
9.68042e-05
9.69432e-05
9.56776e-05
9.53014e-05
9.6845e-05
9.92532e-05
0.000100948
0.00010171
0.000102269
0.000102811
0.000103251
0.000103939
0.000104913
0.000105994
0.000107038
0.000107952
0.000108671
0.000109294
0.000109972
0.000110686
0.000111362
0.000111958
0.000112408
0.000112772
0.000113192
0.000113599
0.00011387
0.000114171
0.00011467
0.000114841
0.000114077
0.000113037
0.000112845
0.000113588
0.000114322
0.000113887
0.000112198
0.000110821
0.000110769
0.00011056
0.000109259
0.000108106
0.000108366
0.000108894
0.000107119
0.000103392
0.000100964
0.000101977
0.000103964
0.000103052
0.000100012
9.84465e-05
9.88349e-05
9.8592e-05
9.65092e-05
9.45424e-05
9.42914e-05
9.50701e-05
9.55759e-05
9.50972e-05
9.36033e-05
9.20777e-05
9.18244e-05
9.26044e-05
9.26835e-05
9.2355e-05
8.93783e-05
9.0934e-05
8.89441e-05
8.61788e-05
8.70036e-05
9.06603e-05
9.28054e-05
9.13484e-05
8.98844e-05
9.11146e-05
9.29314e-05
9.33106e-05
9.27699e-05
9.28877e-05
9.46207e-05
9.68484e-05
9.77317e-05
9.73923e-05
9.75286e-05
9.87775e-05
0.000100188
0.000101214
0.000102196
0.00010315
0.000103884
0.000104577
0.00010541
0.000106327
0.000107253
0.000108198
0.000109078
0.000109831
0.000110536
0.000111234
0.000111901
0.000112543
0.000113106
0.000113539
0.000113924
0.000114275
0.00011444
0.000114417
0.000114611
0.000115206
0.000115499
0.000114886
0.000113742
0.000113034
0.000113398
0.000113956
0.000113118
0.000111487
0.00011126
0.000111763
0.000110342
0.000107377
0.000106169
0.000107477
0.000108633
0.000106745
0.000102801
0.000100958
0.000102447
0.000103321
0.000100884
9.77954e-05
9.72802e-05
9.84917e-05
9.8397e-05
9.65253e-05
9.46731e-05
9.38997e-05
9.39788e-05
9.44146e-05
9.44352e-05
9.34733e-05
9.22257e-05
9.19298e-05
9.22216e-05
9.24889e-05
8.79977e-05
9.15571e-05
9.28457e-05
9.01957e-05
8.72642e-05
8.80348e-05
9.13234e-05
9.24274e-05
9.09835e-05
9.05346e-05
9.21637e-05
9.40581e-05
9.46661e-05
9.40403e-05
9.38618e-05
9.53327e-05
9.73433e-05
9.82711e-05
9.8501e-05
9.92193e-05
0.000100289
0.000101134
0.000102007
0.000103072
0.000104094
0.000104977
0.000105878
0.000106822
0.000107723
0.000108619
0.000109527
0.00011037
0.000111147
0.000111894
0.000112585
0.00011321
0.00011377
0.000114241
0.000114665
0.000115083
0.000115408
0.000115436
0.000115189
0.000115147
0.000115513
0.000115804
0.000115313
0.000114035
0.000113335
0.000113933
0.000113826
0.000111675
0.000110195
0.000111521
0.000112419
0.000109585
0.000105754
0.000104816
0.000106939
0.000108185
0.000105408
0.000101204
0.000100476
0.000102581
0.000102628
9.94065e-05
9.64937e-05
9.64694e-05
9.76036e-05
9.74777e-05
9.60956e-05
9.46342e-05
9.36027e-05
9.32242e-05
9.35294e-05
9.37433e-05
9.31355e-05
9.22962e-05
9.19174e-05
9.21523e-05
8.7106e-05
8.7788e-05
9.1855e-05
9.31034e-05
9.03416e-05
8.79271e-05
8.93933e-05
9.22228e-05
9.26849e-05
9.15457e-05
9.13643e-05
9.27686e-05
9.46545e-05
9.54333e-05
9.49765e-05
9.50216e-05
9.64556e-05
9.7999e-05
9.87546e-05
9.9438e-05
0.000100477
0.000101397
0.000102168
0.000103119
0.00010422
0.00010525
0.000106234
0.000107257
0.000108243
0.000109168
0.000110091
0.000110986
0.000111812
0.000112605
0.000113373
0.000114064
0.000114628
0.000115061
0.000115447
0.000115819
0.000116162
0.000116447
0.00011644
0.000116079
0.000115746
0.000115873
0.000116079
0.000115172
0.000113667
0.000113845
0.000115004
0.000113422
0.000109579
0.000108881
0.000111833
0.000112407
0.00010847
0.000104223
0.000103858
0.000106842
0.00010761
0.000103516
9.93668e-05
9.97693e-05
0.000102128
0.000101572
9.81852e-05
9.57893e-05
9.58609e-05
9.65337e-05
9.62656e-05
9.53637e-05
9.4311e-05
9.32447e-05
9.26791e-05
9.28625e-05
9.30802e-05
9.27882e-05
9.21635e-05
9.1927e-05
8.99057e-05
8.64256e-05
8.82537e-05
9.21242e-05
9.28196e-05
9.00465e-05
8.85447e-05
9.03761e-05
9.26294e-05
9.30209e-05
9.22927e-05
9.20903e-05
9.33081e-05
9.51223e-05
9.58707e-05
9.57097e-05
9.62382e-05
9.7586e-05
9.86607e-05
9.9401e-05
0.000100404
0.000101523
0.000102442
0.000103342
0.000104422
0.000105538
0.000106592
0.000107667
0.000108751
0.000109772
0.000110756
0.000111721
0.000112609
0.000113408
0.000114192
0.000114987
0.00011567
0.000116114
0.000116458
0.000116819
0.000117038
0.000117175
0.000117354
0.000117315
0.00011681
0.000116363
0.000116635
0.000116324
0.000114145
0.000112769
0.000114796
0.000116252
0.000112266
0.000107187
0.000108001
0.00011197
0.000111925
0.00010717
0.000102453
0.00010308
0.000106863
0.000106621
0.000101442
9.78274e-05
9.90658e-05
0.00010124
0.000100161
9.70561e-05
9.52558e-05
9.52629e-05
9.54245e-05
9.50621e-05
9.45273e-05
9.37777e-05
9.28138e-05
9.2232e-05
9.22851e-05
9.25263e-05
9.235e-05
9.19625e-05
9.27518e-05
8.94714e-05
8.69823e-05
8.91088e-05
9.25144e-05
9.25618e-05
9.02001e-05
8.94745e-05
9.10636e-05
9.28629e-05
9.34566e-05
9.29655e-05
9.27946e-05
9.40024e-05
9.55569e-05
9.61382e-05
9.64094e-05
9.73661e-05
9.85501e-05
9.93988e-05
0.000100283
0.000101441
0.000102576
0.000103582
0.000104669
0.000105856
0.000107005
0.000108129
0.000109279
0.000110401
0.00011147
0.00011253
0.000113552
0.00011442
0.000115149
0.000115936
0.000116782
0.000117347
0.000117612
0.000117976
0.000118326
0.000118339
0.000118226
0.000118193
0.000117822
0.000117053
0.000117231
0.000118029
0.000116165
0.000112044
0.000111786
0.000116338
0.000117048
0.000110336
0.000105066
0.000107427
0.000111791
0.000111375
0.000105316
0.000100483
0.000102534
0.000106626
0.000105096
9.94225e-05
9.66492e-05
9.83876e-05
0.000100019
9.85723e-05
9.59333e-05
9.46651e-05
9.45482e-05
9.43369e-05
9.39554e-05
9.36494e-05
9.31107e-05
9.23154e-05
9.17622e-05
9.17783e-05
9.19716e-05
9.18834e-05
9.1664e-05
9.27887e-05
8.92784e-05
8.74784e-05
8.98042e-05
9.24652e-05
9.21985e-05
9.06261e-05
9.02664e-05
9.14407e-05
9.30545e-05
9.37454e-05
9.33987e-05
9.35315e-05
9.47749e-05
9.59273e-05
9.64432e-05
9.71537e-05
9.83301e-05
9.93985e-05
0.000100286
0.000101361
0.000102596
0.000103758
0.000104905
0.000106157
0.000107434
0.000108663
0.000109888
0.000111104
0.000112251
0.000113367
0.000114535
0.000115624
0.000116405
0.000117047
0.000117934
0.000118783
0.000119053
0.000119139
0.000119522
0.000119826
0.00011976
0.000119547
0.000118987
0.000117493
0.00011674
0.000118774
0.000119905
0.000115042
0.000109048
0.000111296
0.000118065
0.000116946
0.000108159
0.000103502
0.000106512
0.000111535
0.000110364
0.000102843
9.86277e-05
0.000102142
0.00010589
0.000103142
9.75462e-05
9.56942e-05
9.75652e-05
9.85955e-05
9.6965e-05
9.48276e-05
9.39345e-05
9.36674e-05
9.32579e-05
9.29239e-05
9.27425e-05
9.23769e-05
9.17349e-05
9.12736e-05
9.12685e-05
9.14076e-05
8.83213e-05
9.26888e-05
9.23662e-05
8.91308e-05
8.81416e-05
9.02588e-05
9.20819e-05
9.1997e-05
9.10832e-05
9.07755e-05
9.1743e-05
9.32119e-05
9.37704e-05
9.36754e-05
9.42678e-05
9.54595e-05
9.63055e-05
9.69391e-05
9.79633e-05
9.91938e-05
0.000100262
0.000101333
0.000102594
0.000103896
0.000105145
0.000106448
0.000107832
0.000109206
0.000110555
0.000111909
0.000113187
0.000114326
0.000115505
0.00011684
0.000117939
0.00011851
0.000119148
0.000120244
0.000120967
0.000120883
0.000120719
0.000120849
0.000121103
0.00012144
0.000121466
0.00011941
0.000115902
0.000116258
0.000121318
0.000121675
0.000112556
0.000105788
0.00011137
0.000119195
0.000115959
0.000106525
0.000101724
0.000105769
0.000111502
0.000108683
0.000100028
9.70982e-05
0.000101691
0.000104602
0.000100969
9.58447e-05
9.47298e-05
9.64803e-05
9.70027e-05
9.54037e-05
9.37535e-05
9.30599e-05
9.26594e-05
9.21832e-05
9.18877e-05
9.18076e-05
9.1568e-05
9.10884e-05
9.07351e-05
9.07235e-05
8.67393e-05
8.92296e-05
9.24445e-05
9.16415e-05
8.91721e-05
8.88214e-05
9.03045e-05
9.16269e-05
9.18689e-05
9.12927e-05
9.10996e-05
9.20818e-05
9.32604e-05
9.36384e-05
9.3928e-05
9.48859e-05
9.59832e-05
9.67641e-05
9.76379e-05
9.88464e-05
0.000100091
0.000101261
0.000102552
0.000103977
0.000105387
0.00010678
0.00010824
0.000109738
0.000111216
0.000112729
0.000114253
0.000115553
0.000116641
0.00011798
0.000119532
0.000120451
0.000120717
0.000121476
0.000122748
0.000123373
0.000123072
0.000122271
0.000121597
0.000121953
0.00012379
0.000124009
0.000118783
0.000112941
0.000116248
0.000124821
0.000122622
0.000109051
0.000102991
0.000111504
0.000118876
0.000114554
0.000104348
9.96425e-05
0.00010554
0.000111216
0.000106255
9.72446e-05
9.58563e-05
0.000100922
0.000102867
9.88596e-05
9.43431e-05
9.36602e-05
9.51018e-05
9.52471e-05
9.38856e-05
9.2665e-05
9.20715e-05
9.1592e-05
9.10874e-05
9.08311e-05
9.08088e-05
9.06866e-05
9.03645e-05
9.01202e-05
8.84188e-05
8.65891e-05
8.95021e-05
9.16644e-05
9.07841e-05
8.93152e-05
8.91149e-05
9.0044e-05
9.11972e-05
9.15613e-05
9.11813e-05
9.13375e-05
9.23685e-05
9.321e-05
9.35711e-05
9.42393e-05
9.53706e-05
9.64198e-05
9.73409e-05
9.84836e-05
9.98212e-05
0.000101133
0.000102471
0.000103969
0.000105554
0.000107118
0.0001087
0.000110326
0.000111915
0.000113506
0.000115265
0.000116971
0.000118174
0.000119231
0.00012092
0.000122645
0.000123173
0.000123121
0.000123863
0.000125214
0.000126216
0.000125786
0.000123577
0.000121251
0.000122587
0.000127308
0.00012675
0.000116313
0.000108894
0.000117162
0.000128488
0.000122358
0.000105527
0.000101231
0.000110822
0.000117748
0.00011283
0.000100982
9.75306e-05
0.000105518
0.000110206
0.000103361
9.47459e-05
9.46515e-05
9.95801e-05
0.000100798
9.68578e-05
9.30012e-05
9.25032e-05
9.3464e-05
9.33728e-05
9.2341e-05
9.14819e-05
9.09904e-05
9.04993e-05
8.99983e-05
8.97455e-05
8.97493e-05
8.97251e-05
8.95374e-05
9.08185e-05
8.74115e-05
8.70686e-05
8.93726e-05
9.0535e-05
9.01082e-05
8.92796e-05
8.90137e-05
8.97348e-05
9.07481e-05
9.0996e-05
9.08803e-05
9.14536e-05
9.24612e-05
9.31241e-05
9.36673e-05
9.46259e-05
9.58152e-05
9.69112e-05
9.80666e-05
9.94538e-05
0.00010093
0.000102386
0.000103927
0.000105619
0.000107369
0.000109133
0.000110962
0.000112753
0.000114387
0.000116162
0.00011829
0.000120076
0.000121007
0.000122159
0.000124349
0.000126156
0.000126328
0.000125772
0.000125892
0.000127604
0.000129728
0.000129096
0.00012397
0.000119394
0.000123609
0.000132442
0.000128952
0.000111767
0.000104458
0.000118557
0.000130957
0.000120844
0.00010322
0.000100403
0.00011002
0.000117322
0.000110192
9.70524e-05
9.5862e-05
0.000105246
0.000108438
0.00010047
9.2695e-05
9.32701e-05
9.76984e-05
9.84365e-05
9.49327e-05
9.18071e-05
9.12772e-05
9.1716e-05
9.14719e-05
9.07254e-05
9.01554e-05
8.97908e-05
8.93617e-05
8.88835e-05
8.86309e-05
8.86498e-05
8.86813e-05
9.04704e-05
8.94525e-05
8.70323e-05
8.72953e-05
8.85678e-05
8.93852e-05
8.93833e-05
8.88211e-05
8.86675e-05
8.94264e-05
9.01973e-05
9.03315e-05
9.05583e-05
9.14136e-05
9.23667e-05
9.30677e-05
9.39016e-05
9.50748e-05
9.6327e-05
9.75633e-05
9.89683e-05
0.000100576
0.000102227
0.000103888
0.000105661
0.000107543
0.000109462
0.000111496
0.000113637
0.000115527
0.000117177
0.000119332
0.000121936
0.000123579
0.000124115
0.000125438
0.000128063
0.000130172
0.000130256
0.000128311
0.000127267
0.000130034
0.000134367
0.00013275
0.000122391
0.000115755
0.000125736
0.000138918
0.000130068
0.000106031
0.000100607
0.000119448
0.000130735
0.000118451
0.000101667
9.84819e-05
0.000109809
0.000116782