/*--------------------------------*- C++ -*----------------------------------*\
| =========                 |                                                 |
| \\      /  F ield         | OpenFOAM: The Open Source CFD Toolbox           |
|  \\    /   O peration     | Version:  2412                                  |
|   \\  /    A nd           | Website:  www.openfoam.com                      |
|    \\/     M anipulation  |                                                 |
\*---------------------------------------------------------------------------*/
FoamFile
{
    version     2.0;
    format      ascii;
    arch        "LSB;label=32;scalar=64";
    class       surfaceScalarField;
    location    "6.7";
    object      alphaPhi0.water;
}
// * * * * * * * * * * * * * * * * * * * * * * * * * * * * * * * * * * * * * //

dimensions      [0 3 -1 0 0 0 0];

oriented        oriented;

internalField   nonuniform List<scalar> 
12640
(
5.89036e-07
-5.89035e-07
5.88963e-06
-5.29848e-06
9.98692e-06
-4.09727e-06
1.35976e-05
-3.61097e-06
1.7416e-05
-3.81851e-06
2.17087e-05
-4.29256e-06
2.65463e-05
-4.83755e-06
3.19826e-05
-5.43629e-06
3.80592e-05
-6.07668e-06
4.47753e-05
-6.71611e-06
5.20966e-05
-7.3213e-06
6.00427e-05
-7.94629e-06
6.85082e-05
-8.46571e-06
7.73544e-05
-8.84655e-06
8.6647e-05
-9.29307e-06
9.6282e-05
-9.63541e-06
0.00010621
-9.92817e-06
0.000116275
-1.00661e-05
0.000126372
-1.00967e-05
0.000136308
-9.93678e-06
0.000145824
-9.51656e-06
0.000154591
-8.7671e-06
0.000162312
-7.72148e-06
0.000168582
-6.27043e-06
0.00017305
-4.46785e-06
0.000175423
-2.37352e-06
0.000175536
-1.12617e-07
0.000173265
2.27053e-06
0.000168574
4.69077e-06
0.000161508
7.06583e-06
0.000152039
9.46856e-06
0.000140094
1.19454e-05
0.000125796
1.42967e-05
0.000109432
1.63629e-05
9.15642e-05
1.78675e-05
7.25678e-05
1.89955e-05
5.28853e-05
1.96818e-05
3.27658e-05
2.01189e-05
1.24791e-05
2.02863e-05
-7.76139e-06
2.02404e-05
-2.77808e-05
2.00194e-05
-4.7471e-05
1.96899e-05
-6.6674e-05
1.92026e-05
-8.5232e-05
1.8558e-05
-0.000102857
1.76252e-05
-0.000119421
1.6564e-05
-0.00013452
1.50991e-05
-0.000147764
1.32448e-05
-0.000158801
1.10371e-05
-0.000167439
8.63792e-06
-0.000173629
6.1908e-06
-0.000177541
3.91368e-06
-0.000179258
1.71693e-06
-0.000178852
-4.0491e-07
-0.000176503
-2.34886e-06
-0.000172382
-4.12128e-06
-0.000166774
-5.60761e-06
-0.000160142
-6.6316e-06
-0.000152796
-7.34517e-06
-0.000145069
-7.72731e-06
-0.000137212
-7.85589e-06
-0.000129443
-7.76876e-06
-0.000121768
-7.6745e-06
-0.000114261
-7.50643e-06
-0.000106891
-7.36991e-06
-9.9598e-05
-7.29298e-06
-9.23131e-05
-7.28485e-06
-8.49858e-05
-7.32741e-06
-7.76784e-05
-7.30755e-06
-7.04116e-05
-7.26672e-06
-6.31446e-05
-7.26661e-06
-5.58865e-05
-7.25733e-06
-4.86683e-05
-7.21755e-06
-4.15821e-05
-7.08557e-06
-3.46183e-05
-6.96325e-06
-2.77479e-05
-6.86997e-06
-2.0889e-05
-6.8584e-06
-1.33619e-05
-7.52659e-06
-4.52714e-06
-8.83416e-06
-4.52635e-06
-1.00132e-06
4.10551e-07
2.75571e-06
-9.0552e-06
5.41403e-06
-6.75516e-06
7.92985e-06
-6.1266e-06
1.11043e-05
-6.99292e-06
1.52211e-05
-8.4094e-06
2.0303e-05
-9.91954e-06
2.63422e-05
-1.14756e-05
3.32787e-05
-1.30132e-05
4.09786e-05
-1.44162e-05
4.94063e-05
-1.57494e-05
5.83181e-05
-1.68586e-05
6.77059e-05
-1.78542e-05
7.75869e-05
-1.87282e-05
8.78332e-05
-1.95403e-05
9.83374e-05
-2.01404e-05
0.000108971
-2.0563e-05
0.000119775
-2.08705e-05
0.000130501
-2.08239e-05
0.000141012
-2.0448e-05
0.000151143
-1.96479e-05
0.000160688
-1.83129e-05
0.000169419
-1.64532e-05
0.000177123
-1.39746e-05
0.000183535
-1.08806e-05
0.000188334
-7.17267e-06
0.000191194
-2.97356e-06
0.000191706
1.75893e-06
0.000189546
6.84953e-06
0.000184452
1.21595e-05
0.000176331
1.75882e-05
0.000165314
2.29613e-05
0.000151441
2.81689e-05
0.000134889
3.29135e-05
0.000115709
3.70455e-05
9.41424e-05
4.05616e-05
7.0506e-05
4.33174e-05
4.52795e-05
4.53448e-05
1.89839e-05
4.65813e-05
-7.81511e-06
4.70387e-05
-3.45545e-05
4.67584e-05
-6.06264e-05
4.57617e-05
-8.54218e-05
4.3998e-05
-0.000108402
4.15378e-05
-0.00012917
3.83932e-05
-0.000147202
3.45966e-05
-0.000162403
3.03008e-05
-0.000174725
2.55673e-05
-0.000184202
2.05154e-05
-0.000190902
1.53381e-05
-0.000194893
1.01821e-05
-0.000196294
5.31431e-06
-0.000195224
6.47918e-07
-0.000192176
-3.45292e-06
-0.0001875
-7.02523e-06
-0.00018158
-1.00413e-05
-0.000174686
-1.25018e-05
-0.000167104
-1.42137e-05
-0.000159043
-1.54063e-05
-0.000150653
-1.61176e-05
-0.000142121
-1.63886e-05
-0.00013347
-1.64201e-05
-0.000124837
-1.6308e-05
-0.00011627
-1.60744e-05
-0.000107891
-1.57489e-05
-9.96959e-05
-1.54887e-05
-9.16281e-05
-1.53526e-05
-8.36688e-05
-1.52866e-05
-7.57024e-05
-1.52736e-05
-6.7709e-05
-1.52594e-05
-5.97006e-05
-1.52743e-05
-5.1798e-05
-1.51588e-05
-4.41576e-05
-1.48568e-05
-3.68738e-05
-1.43684e-05
-3.00111e-05
-1.38253e-05
-2.36282e-05
-1.32521e-05
-1.75557e-05
-1.29298e-05
-1.09422e-05
-1.41387e-05
-3.13742e-06
-1.66376e-05
-7.66378e-06
-6.27412e-07
1.03798e-06
3.63414e-06
-1.33171e-05
6.62728e-06
-9.74837e-06
9.20464e-06
-8.70401e-06
1.23363e-05
-1.01247e-05
1.63094e-05
-1.23827e-05
2.12953e-05
-1.49056e-05
2.72368e-05
-1.74173e-05
3.39595e-05
-1.97361e-05
4.13807e-05
-2.18377e-05
4.9413e-05
-2.37822e-05
5.80921e-05
-2.55383e-05
6.71896e-05
-2.69523e-05
7.68009e-05
-2.83401e-05
8.68196e-05
-2.95597e-05
9.72028e-05
-3.05244e-05
0.000107901
-3.12618e-05
0.000118825
-3.17953e-05
0.000129818
-3.18177e-05
0.000140736
-3.13667e-05
0.000151338
-3.02507e-05
0.000161395
-2.83714e-05
0.000170554
-2.5613e-05
0.000178597
-2.2019e-05
0.000185134
-1.74179e-05
0.000189858
-1.18979e-05
0.000192363
-5.4799e-06
0.00019235
1.77111e-06
0.00018959
9.6085e-06
0.000183904
1.78454e-05
0.000175264
2.62273e-05
0.000163724
3.45003e-05
0.00014954
4.23521e-05
0.000132709
4.97439e-05
0.000113354
5.64004e-05
9.189e-05
6.20249e-05
6.85576e-05
6.66494e-05
4.3854e-05
7.00476e-05
1.82006e-05
7.22337e-05
-7.85386e-06
7.30924e-05
-3.38117e-05
7.27157e-05
-5.91641e-05
7.11137e-05
-8.33471e-05
6.81808e-05
-0.000105929
6.41191e-05
-0.00012646
5.89244e-05
-0.00014457
5.27061e-05
-0.000160019
4.57491e-05
-0.000172732
3.82791e-05
-0.000182665
3.04471e-05
-0.000189968
2.264e-05
-0.000194519
1.47323e-05
-0.000196325
7.11874e-06
-0.000195658
-2.07856e-08
-0.00019274
-6.37207e-06
-0.000188002
-1.17643e-05
-0.000181812
-1.62334e-05
-0.000174565
-1.97518e-05
-0.000166489
-2.2292e-05
-0.000157975
-2.39215e-05
-0.00014925
-2.48436e-05
-0.000140478
-2.5162e-05
-0.000131816
-2.50832e-05
-0.00012339
-2.47355e-05
-0.000115252
-2.42118e-05
-0.000107338
-2.36629e-05
-9.96082e-05
-2.32186e-05
-9.20156e-05
-2.29449e-05
-8.44443e-05
-2.2857e-05
-7.68381e-05
-2.28795e-05
-6.91282e-05
-2.29688e-05
-6.1369e-05
-2.30332e-05
-5.36297e-05
-2.28982e-05
-4.60503e-05
-2.24363e-05
-3.86921e-05
-2.17264e-05
-3.17243e-05
-2.07929e-05
-2.52113e-05
-1.97655e-05
-1.88498e-05
-1.92923e-05
-1.18121e-05
-2.11775e-05
-3.49419e-06
-2.49546e-05
-1.11593e-05
-1.14767e-06
2.18595e-06
3.11535e-06
-1.75807e-05
5.90768e-06
-1.25411e-05
8.09972e-06
-1.08964e-05
1.08403e-05
-1.28656e-05
1.46048e-05
-1.61476e-05
1.93905e-05
-1.96916e-05
2.51945e-05
-2.32217e-05
3.19599e-05
-2.65021e-05
3.96229e-05
-2.95013e-05
4.78655e-05
-3.20254e-05
5.6599e-05
-3.42724e-05
6.59526e-05
-3.63065e-05
7.5619e-05
-3.80073e-05
8.57178e-05
-3.96591e-05
9.62137e-05
-4.1021e-05
0.000107191
-4.22399e-05
0.000118369
-4.29743e-05
0.000129868
-4.33171e-05
0.000141375
-4.28747e-05
0.000152661
-4.15377e-05
0.000163472
-3.91841e-05
0.000173512
-3.5654e-05
0.000182313
-3.08218e-05
0.000189516
-2.46223e-05
0.000194841
-1.72244e-05
0.000197754
-8.39309e-06
0.000198027
1.49726e-06
0.000195354
1.22815e-05
0.000189606
2.35925e-05
0.000180723
3.51107e-05
0.000168697
4.65264e-05
0.000153582
5.74676e-05
0.000135711
6.76155e-05
0.000115348
7.6763e-05
9.28859e-05
8.44869e-05
6.88124e-05
9.07228e-05
4.35978e-05
9.52622e-05
1.77672e-05
9.8064e-05
-8.3961e-06
9.92556e-05
-3.43967e-05
9.8716e-05
-5.98172e-05
9.65334e-05
-8.43008e-05
9.26631e-05
-0.000107352
8.71691e-05
-0.000128554
8.01242e-05
-0.000147472
7.16228e-05
-0.000163768
6.20435e-05
-0.000177228
5.17375e-05
-0.000187699
4.09177e-05
-0.000195046
2.99852e-05
-0.000199465
1.91514e-05
-0.000201101
8.7546e-06
-0.000199995
-1.12694e-06
-0.000196692
-9.67579e-06
-0.000191316
-1.71403e-05
-0.000184439
-2.31093e-05
-0.000176414
-2.77754e-05
-0.000167651
-3.10527e-05
-0.000158486
-3.30854e-05
-0.000149214
-3.41151e-05
-0.000140077
-3.4298e-05
-0.000131245
-3.39134e-05
-0.000122797
-3.31828e-05
-0.00011476
-3.22476e-05
-0.000107021
-3.14019e-05
-9.94885e-05
-3.0751e-05
-9.2039e-05
-3.03948e-05
-8.46088e-05
-3.0288e-05
-7.70604e-05
-3.0429e-05
-6.93096e-05
-3.07211e-05
-6.14273e-05
-3.09165e-05
-5.35215e-05
-3.08045e-05
-4.57201e-05
-3.02384e-05
-3.82621e-05
-2.91854e-05
-3.13203e-05
-2.7736e-05
-2.49278e-05
-2.61587e-05
-1.87139e-05
-2.55062e-05
-1.16406e-05
-2.82505e-05
-3.19757e-06
-3.3397e-05
-1.43562e-05
-2.00527e-06
4.19119e-06
2.06098e-06
-2.16478e-05
4.44467e-06
-1.49255e-05
5.92555e-06
-1.23779e-05
8.01512e-06
-1.49558e-05
1.14063e-05
-1.95395e-05
1.61447e-05
-2.44306e-05
2.2173e-05
-2.92508e-05
2.92676e-05
-3.35975e-05
3.71412e-05
-3.73757e-05
4.5706e-05
-4.0591e-05
5.47647e-05
-4.33319e-05
6.41058e-05
-4.56483e-05
7.41108e-05
-4.80128e-05
8.44435e-05
-4.99925e-05
9.52828e-05
-5.18609e-05
0.000106587
-5.35445e-05
0.000118354
-5.47429e-05
0.000130488
-5.54523e-05
0.000142817
-5.52041e-05
0.000155155
-5.38764e-05
0.000167147
-5.11781e-05
0.000178474
-4.69813e-05
0.000188629
-4.09781e-05
0.000197229
-3.3223e-05
0.000203719
-2.3715e-05
0.000207819
-1.24938e-05
0.000208996
3.20425e-07
0.000206926
1.43507e-05
0.000201419
2.91003e-05
0.000192449
4.4081e-05
0.000179936
5.90391e-05
0.000163993
7.34109e-05
0.00014487
8.67393e-05
0.000123071
9.85624e-05
9.90042e-05
0.000108555
7.32913e-05
0.000116437
4.63799e-05
0.000122174
1.88343e-05
0.000125609
-8.99538e-06
0.000127084
-3.66074e-05
0.000126327
-6.36704e-05
0.000123595
-8.97309e-05
0.000118723
-0.000114346
0.000111783
-0.000136932
0.00010271
-0.000157058
9.17483e-05
-0.000174268
7.9253e-05
-0.000188244
6.57133e-05
-0.000198907
5.15816e-05
-0.000206189
3.72686e-05
-0.000210114
2.30766e-05
-0.000210911
9.55162e-06
-0.000208743
-3.29395e-06
-0.000204096
-1.43216e-05
-0.000197525
-2.37094e-05
-0.000189226
-3.14073e-05
-0.000179928
-3.70729e-05
-0.000169966
-4.10131e-05
-0.000159744
-4.33062e-05
-0.000149629
-4.42287e-05
-0.000139854
-4.40727e-05
-0.000130613
-4.31534e-05
-0.000122019
-4.17769e-05
-0.000113995
-4.02732e-05
-0.000106479
-3.89188e-05
-9.9195e-05
-3.8036e-05
-9.20585e-05
-3.75328e-05
-8.48175e-05
-3.75308e-05
-7.73136e-05
-3.79342e-05
-6.94674e-05
-3.85679e-05
-6.13232e-05
-3.90618e-05
-5.30525e-05
-3.90767e-05
-4.48918e-05
-3.84002e-05
-3.71977e-05
-3.68791e-05
-3.02563e-05
-3.46758e-05
-2.40821e-05
-3.23312e-05
-1.8202e-05
-3.13861e-05
-1.12552e-05
-3.51967e-05
-2.68579e-06
-4.19677e-05
-1.70426e-05
-2.93074e-06
7.12152e-06
7.89299e-07
-2.5369e-05
2.6091e-06
-1.67463e-05
3.00287e-06
-1.27727e-05
4.17247e-06
-1.61264e-05
7.02599e-06
-2.2394e-05
1.17111e-05
-2.91167e-05
1.80715e-05
-3.56121e-05
2.56806e-05
-4.12076e-05
3.41309e-05
-4.5827e-05
4.30532e-05
-4.95139e-05
5.23007e-05
-5.25801e-05
6.20454e-05
-5.53936e-05
7.19966e-05
-5.79646e-05
8.26005e-05
-6.05969e-05
9.37354e-05
-6.29962e-05
0.000105354
-6.51639e-05
0.000117861
-6.72498e-05
0.000130942
-6.8534e-05
0.000144439
-6.87015e-05
0.000158155
-6.75931e-05
0.000171745
-6.47691e-05
0.000184843
-6.00796e-05
0.000196812
-5.29479e-05
0.000207223
-4.36334e-05
0.000215451
-3.19436e-05
0.000220959
-1.80023e-05
0.000223386
-2.10677e-06
0.000222162
1.5575e-05
0.000217058
3.42039e-05
0.000207984
5.31556e-05
0.000194891
7.21316e-05
0.000177943
9.03598e-05
0.000157421
0.000107261
0.000133824
0.000122159
0.000107672
0.000134706
7.96461e-05
0.000144461
5.03711e-05
0.000151448
2.04316e-05
0.000155548
-9.69593e-06
0.000157211
-3.96029e-05
0.000156233
-6.90299e-05
0.000153022
-9.73865e-05
0.000147079
-0.000124037
0.000138433
-0.000148436
0.000127109
-0.00017007
0.000113382
-0.000188381
9.75633e-05
-0.000203041
8.03727e-05
-0.000213902
6.24418e-05
-0.000220902
4.42669e-05
-0.000224193
2.63663e-05
-0.000223812
9.17003e-06
-0.000220303
-6.8048e-06
-0.000214058
-2.05674e-05
-0.000205535
-3.22333e-05
-0.000195459
-4.14845e-05
-0.000184315
-4.8217e-05
-0.000172684
-5.26445e-05
-0.000161017
-5.49738e-05
-0.000149763
-5.54823e-05
-0.000139185
-5.4651e-05
-0.000129512
-5.28258e-05
-0.000120752
-5.05372e-05
-0.000112831
-4.81931e-05
-0.000105582
-4.61675e-05
-9.88297e-05
-4.4789e-05
-9.21319e-05
-4.42306e-05
-8.52396e-05
-4.44232e-05
-7.7959e-05
-4.5215e-05
-7.00791e-05
-4.64478e-05
-6.15424e-05
-4.75982e-05
-5.25648e-05
-4.80535e-05
-4.37361e-05
-4.72281e-05
-3.56116e-05
-4.50038e-05
-2.8654e-05
-4.16345e-05
-2.28824e-05
-3.8104e-05
-1.75847e-05
-3.66851e-05
-1.08144e-05
-4.19679e-05
-2.10956e-06
-5.06733e-05
-1.9153e-05
-3.60271e-06
1.07235e-05
-4.09636e-07
-2.85635e-05
7.4647e-07
-1.79037e-05
-8.07165e-07
-1.12202e-05
-1.04567e-06
-1.5889e-05
9.78802e-07
-2.44195e-05
5.6055e-06
-3.37445e-05
1.2662e-05
-4.26697e-05
2.1246e-05
-4.97926e-05
3.0512e-05
-5.50941e-05
4.00739e-05
-5.90766e-05
4.97612e-05
-6.2268e-05
5.95303e-05
-6.51631e-05
6.96579e-05
-6.80926e-05
8.01771e-05
-7.11164e-05
9.14189e-05
-7.42382e-05
0.000103707
-7.74521e-05
0.000116861
-8.04041e-05
0.000130961
-8.26337e-05
0.000145896
-8.36363e-05
0.000161409
-8.31068e-05
0.000177046
-8.04051e-05
0.000192274
-7.53078e-05
0.000206581
-6.7254e-05
0.000219366
-5.64187e-05
0.000229878
-4.24557e-05
0.000237341
-2.54652e-05
0.000241327
-6.09314e-06
0.000241216
1.56861e-05
0.000236761
3.86582e-05
0.000227532
6.2383e-05
0.000213754
8.5908e-05
0.000195484
0.000108628
0.000173057
0.000129687
0.000147069
0.000148145
0.000118265
0.000163509
8.74248e-05
0.0001753
5.51959e-05
0.000183676
2.24461e-05
0.000188297
-1.05266e-05
0.000190183
-4.32537e-05
0.000188959
-7.54648e-05
0.000185232
-0.000106617
0.00017823
-0.000135994
0.000167811
-0.000162827
0.000153941
-0.000186401
0.000136956
-0.000206181
0.000117343
-0.000221739
9.59305e-05
-0.000232836
7.35384e-05
-0.000239528
5.09595e-05
-0.000241804
2.86433e-05
-0.000240079
7.44462e-06
-0.000234636
-1.22482e-05
-0.000226131
-2.90727e-05
-0.000215194
-4.31703e-05
-0.000202746
-5.39328e-05
-0.000189212
-6.17514e-05
-0.000175388
-6.64687e-05
-0.000161901
-6.846e-05
-0.000149175
-6.82089e-05
-0.0001377
-6.6126e-05
-0.000127542
-6.29838e-05
-0.000118706
-5.93726e-05
-0.000111084
-5.58154e-05
-0.000104433
-5.28182e-05
-9.83285e-05
-5.08924e-05
-9.23862e-05
-5.01724e-05
-8.61382e-05
-5.06711e-05
-7.92058e-05
-5.2147e-05
-7.12762e-05
-5.43773e-05
-6.21317e-05
-5.67429e-05
-5.20915e-05
-5.8095e-05
-4.19663e-05
-5.73552e-05
-3.30888e-05
-5.38828e-05
-2.62184e-05
-4.85051e-05
-2.11894e-05
-4.31339e-05
-1.69864e-05
-4.08882e-05
-1.06292e-05
-4.8326e-05
-1.87068e-06
-5.94324e-05
-2.10238e-05
-3.53818e-06
1.42608e-05
-7.90756e-07
-3.13124e-05
-5.3334e-07
-1.81624e-05
-5.51587e-06
-6.23893e-06
-8.13579e-06
-1.32702e-05
-7.32545e-06
-2.52309e-05
-2.38802e-06
-3.86829e-05
6.06999e-06
-5.11288e-05
1.62144e-05
-5.9938e-05
2.67551e-05
-6.56356e-05
3.70253e-05
-6.93474e-05
4.6908e-05
-7.21512e-05
5.67063e-05
-7.49619e-05
6.6709e-05
-7.80955e-05
7.71455e-05
-8.15531e-05
8.85393e-05
-8.56322e-05
0.000101022
-8.99348e-05
0.000114834
-9.42158e-05
0.00013015
-9.79495e-05
0.000146856
-0.000100343
0.000164493
-0.000100743
0.000182755
-9.86663e-05
0.000200871
-9.34235e-05
0.000218318
-8.47006e-05
0.000233994
-7.20948e-05
0.000247198
-5.56601e-05
0.000257371
-3.56378e-05
0.000263561
-1.22848e-05
0.000265026
1.42212e-05
0.000261217
4.24657e-05
0.000252041
7.15571e-05
0.000237294
0.000100654
0.000217229
0.000128692
0.000192366
0.000154548
0.000163353
0.000177157
0.000131113
0.000195749
9.6622e-05
0.00020979
6.0987e-05
0.000219311
2.4727e-05
0.000224557
-1.1545e-05
0.000226456
-4.75261e-05
0.000224941
-8.3132e-05
0.000220839
-0.000117785
0.000212884
-0.000150569
0.000200594
-0.000180504
0.000183877
-0.000206664
0.000163115
-0.000228325
0.000139006
-0.00024498
0.000112587
-0.00025638
8.4941e-05
-0.000262564
5.71458e-05
-0.00026364
2.97206e-05
-0.000259965
3.77127e-06
-0.000252081
-2.01303e-05
-0.000240867
-4.02844e-05
-0.000227029
-5.70067e-05
-0.000211173
-6.97881e-05
-0.00019454
-7.83831e-05
-0.000177991
-8.30185e-05
-0.000162148
-8.43033e-05
-0.000147751
-8.26055e-05
-0.00013506
-7.88175e-05
-0.000124295
-7.37494e-05
-0.000115476
-6.81913e-05
-0.00010837
-6.29214e-05
-0.000102637
-5.85511e-05
-9.76609e-05
-5.58685e-05
-9.28627e-05
-5.49701e-05
-8.76488e-05
-5.5885e-05
-8.13911e-05
-5.84051e-05
-7.3475e-05
-6.22943e-05
-6.35374e-05
-6.66815e-05
-5.1675e-05
-6.99578e-05
-3.9306e-05
-6.97244e-05
-2.89841e-05
-6.42049e-05
-2.22693e-05
-5.52199e-05
-1.87497e-05
-4.66548e-05
-1.7028e-05
-4.26111e-05
-1.11997e-05
-5.41552e-05
-2.29614e-06
-6.83371e-05
-2.33205e-05
-3.45607e-06
1.77159e-05
-2.19989e-06
-3.25699e-05
-2.43079e-06
-1.79326e-05
-1.12963e-05
2.6256e-06
-1.76691e-05
-6.89842e-06
-1.87155e-05
-2.41855e-05
-1.32883e-05
-4.4111e-05
-2.28777e-06
-6.213e-05
1.05452e-05
-7.27716e-05
2.30183e-05
-7.81093e-05
3.42077e-05
-8.05373e-05
4.41932e-05
-8.21372e-05
5.368e-05
-8.4449e-05
6.31451e-05
-8.75609e-05
7.33446e-05
-9.1753e-05
8.44846e-05
-9.67724e-05
9.70967e-05
-0.000102547
0.000111571
-0.00010869
0.000128233
-0.000114611
0.000146977
-0.000119086
0.000167366
-0.000121131
0.00018875
-0.00012005
0.000210417
-0.000115091
0.000231709
-0.000105992
0.000251264
-9.1651e-05
0.000268309
-7.27052e-05
0.000281686
-4.90152e-05
0.00029076
-2.136e-05
0.000294207
1.07738e-05
0.000291566
4.51066e-05
0.000282263
8.08595e-05
0.000266411
0.000116506
0.00024416
0.000150943
0.000216102
0.000182606
0.000183227
0.000210032
0.000146657
0.000232319
0.00010779
0.000248658
6.77759e-05
0.000259325
2.74224e-05
0.00026491
-1.26116e-05
0.000266489
-5.2361e-05
0.00026469
-9.2255e-05
0.000260732
-0.000131267
0.000251895
-0.000168325
0.000237651
-0.000202201
0.000217753
-0.000231688
0.000192603
-0.000255752
0.00016307
-0.000273798
0.000130631
-0.000285556
9.6697e-05
-0.000291027
6.26161e-05
-0.000290605
2.92981e-05
-0.000284304
-2.52846e-06
-0.000273368
-3.10662e-05
-0.000258381
-5.52712e-05
-0.000240401
-7.49865e-05
-0.000220442
-8.9747e-05
-0.000199882
-9.89425e-05
-0.000179764
-0.000103136
-0.000161149
-0.000102918
-0.000144594
-9.91606e-05
-0.000130519
-9.28921e-05
-0.000119202
-8.50656e-05
-0.000110608
-7.67854e-05
-0.000104492
-6.9037e-05
-0.000100133
-6.29097e-05
-9.68307e-05
-5.91706e-05
-9.38343e-05
-5.79665e-05
-9.02705e-05
-5.94488e-05
-8.53349e-05
-6.33406e-05
-7.78585e-05
-6.97702e-05
-6.65992e-05
-7.794e-05
-5.16768e-05
-8.48797e-05
-3.52921e-05
-8.61092e-05
-2.24387e-05
-7.70592e-05
-1.64457e-05
-6.12137e-05
-1.58014e-05
-4.72996e-05
-1.76167e-05
-4.07968e-05
-1.11409e-05
-6.06318e-05
-2.82175e-06
-7.66565e-05
-2.61422e-05
-2.1945e-06
1.99096e-05
-9.16331e-06
-2.56021e-05
-9.85582e-06
-1.72408e-05
-2.02642e-05
1.30334e-05
-3.15027e-05
4.33954e-06
-3.48121e-05
-2.08765e-05
-2.82521e-05
-5.06716e-05
-1.23133e-05
-7.80694e-05
5.12355e-06
-9.02089e-05
2.05142e-05
-9.35002e-05
3.27563e-05
-9.27796e-05
4.25432e-05
-9.19246e-05
5.1204e-05
-9.31103e-05
5.97619e-05
-9.61192e-05
6.88792e-05
-0.000100871
7.93065e-05
-0.0001072
9.16818e-05
-0.000114922
0.000106841
-0.000123849
0.000124869
-0.00013264
0.000145896
-0.000140113
0.000169478
-0.000144714
0.000194834
-0.000145406
0.000221056
-0.000141313
0.000246846
-0.000131782
0.00027148
-0.000116286
0.000293197
-9.44226e-05
0.00031103
-6.68485e-05
0.000323658
-3.39879e-05
0.000329909
4.52183e-06
0.000328706
4.63086e-05
0.000319587
8.99787e-05
0.000302365
0.000133728
0.000277386
0.000175921
0.000245337
0.000214655
0.000207504
0.000247865
0.000165423
0.000274399
0.000120573
0.000293507
7.47451e-05
0.000305152
2.97061e-05
0.000309948
-1.32728e-05
0.000309467
-5.62465e-05
0.000307663
-0.000101186
0.000305671
-0.000146881
0.00029759
-0.000190023
0.000280791
-0.000229077
0.000256804
-0.000262621
0.000226143
-0.000289583
0.000190027
-0.000309183
0.000150228
-0.000321348
0.000108859
-0.000325995
6.72607e-05
-0.000323457
2.67581e-05
-0.000314139
-1.18494e-05
-0.000299074
-4.61334e-05
-0.000279189
-7.51583e-05
-0.000255844
-9.83322e-05
-0.000230724
-0.000114866
-0.000205191
-0.000124475
-0.000180705
-0.000127622
-0.000158423
-0.000125199
-0.000139224
-0.00011836
-0.000123591
-0.000108525
-0.000111788
-9.68687e-05
-0.000103802
-8.47707e-05
-9.91076e-05
-7.37308e-05
-9.68471e-05
-6.51695e-05
-9.60197e-05
-5.99971e-05
-9.55857e-05
-5.84e-05
-9.46445e-05
-6.03893e-05
-9.19554e-05
-6.60292e-05
-8.52734e-05
-7.64525e-05
-7.23759e-05
-9.08384e-05
-5.22885e-05
-0.000104968
-2.87492e-05
-0.00010965
-1.12797e-05
-9.45292e-05
-6.70758e-06
-6.5787e-05
-9.63813e-06
-4.43692e-05
-1.418e-05
-3.62548e-05
-6.17483e-06
-6.8637e-05
-3.71198e-06
-7.91196e-05
-2.98539e-05
1.35885e-05
6.3199e-06
-1.25053e-05
4.90926e-07
-2.79684e-05
-1.77782e-06
-4.14874e-05
2.6552e-05
-5.72366e-05
2.00887e-05
-6.2333e-05
-1.57802e-05
-5.18579e-05
-6.11466e-05
-2.55852e-05
-0.000104342
5.1041e-07
-0.000116305
2.02522e-05
-0.000113242
3.32329e-05
-0.00010576
4.16001e-05
-0.000100292
4.80729e-05
-9.95834e-05
5.49167e-05
-0.000102963
6.27545e-05
-0.000108709
7.22534e-05
-0.000116699
8.43001e-05
-0.000126969
9.98653e-05
-0.000139415
0.000119476
-0.000152251
0.000143277
-0.000163913
0.000170734
-0.000172171
0.000200883
-0.000175555
0.000232573
-0.000173003
0.000264447
-0.000163657
0.00029501
-0.000146849
0.000322835
-0.000122249
0.000346544
-9.05584e-05
0.000363829
-5.12727e-05
0.000373868
-5.51693e-06
0.000374603
4.55731e-05
0.000365738
9.88428e-05
0.000347003
0.000152462
0.000318708
0.000204216
0.000281675
0.000251686
0.000237107
0.000292431
0.000186454
0.000325051
0.000132589
0.000347371
7.92656e-05
0.000358474
2.98713e-05
0.000359342
-1.34792e-05
0.000352816
-5.77181e-05
0.0003519
-0.000108265
0.000356215
-0.000162393
0.000351716
-0.000214941
0.000333337
-0.000261965
0.000303826
-0.000301111
0.000265289
-0.000331698
0.000220614
-0.000353012
0.000171542
-0.000365347
0.000121193
-0.000368808
7.07209e-05
-0.000363652
2.16015e-05
-0.000350393
-2.511e-05
-0.000330311
-6.62155e-05
-0.000304316
-0.000101154
-0.0002742
-0.000128448
-0.000242127
-0.000146939
-0.000210155
-0.000156448
-0.000180177
-0.000157601
-0.000153473
-0.000151902
-0.000131136
-0.000140695
-0.000113703
-0.000125957
-0.000101408
-0.000109162
-9.41379e-05
-9.20402e-05
-9.13325e-05
-7.65359e-05
-9.18748e-05
-6.46275e-05
-9.42558e-05
-5.76163e-05
-9.72921e-05
-5.53645e-05
-0.000100122
-5.75604e-05
-0.000101114
-6.50393e-05
-9.69303e-05
-8.06377e-05
-8.25458e-05
-0.000105224
-5.3519e-05
-0.000133996
-1.33531e-05
-0.000149816
1.45602e-05
-0.000122442
1.70486e-05
-6.82754e-05
8.23656e-06
-3.55577e-05
3.25382e-06
-3.12723e-05
-7.41467e-07
-6.46417e-05
-1.44656e-05
-6.53955e-05
-4.43195e-05
4.2156e-05
-3.58379e-05
2.61232e-05
1.64935e-05
-3.80693e-05
6.24008e-05
-7.97952e-05
6.82782e-05
-0.000103361
4.36541e-05
-0.000115552
-3.58842e-06
-9.60617e-05
-8.06369e-05
-4.41617e-05
-0.000156242
-5.5823e-07
-0.000159908
2.25525e-05
-0.000136353
3.22991e-05
-0.000115507
3.59054e-05
-0.000103898
3.84591e-05
-0.000102137
4.22407e-05
-0.000106745
4.8288e-05
-0.000114756
5.69983e-05
-0.00012541
6.93257e-05
-0.000139297
8.63174e-05
-0.000156407
0.000108665
-0.000174599
0.000136101
-0.000191351
0.000168554
-0.000204625
0.000204932
-0.000211933
0.000243937
-0.00021201
0.000283662
-0.000203382
0.000322114
-0.000185302
0.000357488
-0.000157622
0.000387759
-0.00012083
0.00041138
-7.48949e-05
0.000426299
-2.0437e-05
0.000430635
4.12369e-05
0.000422775
0.000106703
0.000402577
0.00017266
0.000370159
0.000236633
0.000325794
0.000296051
0.000270665
0.00034756
0.000207643
0.000388074
0.000142318
0.000412696
8.17407e-05
0.000419052
3.0478e-05
0.000410604
-1.38891e-05
0.000397183
-5.95627e-05
0.000397574
-0.000114165
0.000410819
-0.000176807
0.00041436
-0.000241072
0.000397604
-0.00029972
0.000362478
-0.00034819
0.000313762
-0.000383971
0.000256398
-0.000407624
0.000195197
-0.000419741
0.000133312
-0.00042108
7.2061e-05
-0.000411908
1.24315e-05
-0.000393732
-4.32844e-05
-0.000367126
-9.28212e-05
-0.000333334
-0.000134945
-0.000294737
-0.000167045
-0.000253796
-0.00018788
-0.000213221
-0.000197022
-0.000175821
-0.000195
-0.000143428
-0.000184295
-0.000117351
-0.000166772
-9.75926e-05
-0.000145716
-8.40495e-05
-0.000122706
-7.6694e-05
-9.93961e-05
-7.5218e-05
-7.80125e-05
-7.88259e-05
-6.10198e-05
-8.49465e-05
-5.14962e-05
-9.24327e-05
-4.78789e-05
-0.000100899
-4.90939e-05
-0.000110178
-5.57601e-05
-0.00011671
-7.41053e-05
-0.000108896
-0.000113037
-6.62589e-05
-0.000176631
1.31647e-05
-0.00022924
6.97757e-05
-0.000179053
6.7532e-05
-6.60309e-05
4.65194e-05
-1.45444e-05
2.06416e-05
-5.39397e-06
-2.82746e-05
-1.57052e-05
-4.70317e-05
-4.66075e-05
-9.13131e-05
0.000110647
-0.000146538
0.000160733
-3.38409e-05
4.08878e-05
0.000182445
-0.000100657
0.000209828
-0.000163878
0.000106876
-0.000196872
2.94062e-05
-0.000165134
-0.000112375
-6.96777e-05
-0.000251697
1.2132e-05
-0.000241717
4.22905e-05
-0.000166511
4.07939e-05
-0.00011401
3.25269e-05
-9.56312e-05
2.82801e-05
-9.78906e-05
2.83662e-05
-0.000106831
2.93988e-05
-0.000115789
3.27813e-05
-0.000128793
4.17858e-05
-0.000148302
5.93524e-05
-0.000173974
8.45058e-05
-0.000199753
0.000116591
-0.000223437
0.000155363
-0.000243397
0.000200396
-0.000256967
0.000249464
-0.000261079
0.000299856
-0.000253774
0.000348436
-0.000233883
0.000392762
-0.000201948
0.000431799
-0.000159867
0.000463908
-0.000107003
0.000486328
-4.28568e-05
0.000495727
3.18388e-05
0.000490529
0.0001119
0.000469316
0.000193873
0.000431552
0.000274397
0.000377088
0.000350515
0.000309125
0.000415524
0.000234599
0.000462599
0.000163124
0.00048417
9.99615e-05
0.000482215
4.34428e-05
0.000467123
-1.0944e-05
0.000451571
-6.7745e-05
0.000454376
-0.000130787
0.000473862
-0.00020085
0.000484424
-0.000274606
0.00047136
-0.000345021
0.000432893
-0.000404343
0.000373084
-0.000447906
0.000299962
-0.000474301
0.000221593
-0.000484961
0.000143974
-0.000482003
6.91048e-05
-0.000466735
-2.83497e-06
-0.000440715
-6.93036e-05
-0.000405361
-0.000128175
-0.000362336
-0.000177968
-0.000313372
-0.000216009
-0.000260907
-0.000240345
-0.00020807
-0.000249858
-0.000160034
-0.000243036
-0.000120174
-0.000224156
-8.93088e-05
-0.000197637
-6.6854e-05
-0.000168172
-5.19364e-05
-0.000137624
-4.51496e-05
-0.000106183
-4.80627e-05
-7.50997e-05
-5.97424e-05
-4.93398e-05
-7.48211e-05
-3.64169e-05
-8.97499e-05
-3.29491e-05
-0.000107454
-3.13893e-05
-0.000134205
-2.90086e-05
-0.000164572
-4.3737e-05
-0.000167731
-0.000109878
-0.00010276
-0.000241601
2.80008e-05
-0.000359992
0.00013368
-0.000284716
0.000131148
-6.34972e-05
7.87358e-05
3.78687e-05
-3.29945e-05
0.000106336
-0.000155957
0.000107324
-0.000120895
-8.17358e-05
-0.000212388
0.000252161
-0.000398753
0.000420439
-0.000202236
0.000280542
0.000322332
3.51596e-06
0.000486921
-0.000182346
0.000292738
-0.000269796
0.000116857
-0.000251696
-0.000130474
-0.000134146
-0.000369248
2.65445e-06
-0.000378518
7.9238e-05
-0.000243094
9.16597e-05
-0.000126432
7.80925e-05
-8.20638e-05
6.82614e-05
-8.80595e-05
6.2483e-05
-0.000101053
5.06241e-05
-0.00010393
3.23599e-05
-0.000110529
2.15782e-05
-0.000137521
2.7636e-05
-0.000180032
5.05164e-05
-0.000222634
8.69097e-05
-0.00025983
0.000134055
-0.000290543
0.000189651
-0.000312563
0.000250417
-0.000321845
0.000312776
-0.000316134
0.00037365
-0.000294758
0.000431255
-0.000259554
0.00048497
-0.000213583
0.00053046
-0.000152494
0.000563184
-7.55821e-05
0.000578165
1.68573e-05
0.000573524
0.000116542
0.000549066
0.00021833
0.000504359
0.000319104
0.000441639
0.000413236
0.00036674
0.000490422
0.000291194
0.000538146
0.000220725
0.00055464
0.000152088
0.000550852
7.80298e-05
0.000541182
-2.63969e-06
0.00053224
-8.92547e-05
0.00054099
-0.000175443
0.000560049
-0.000258891
0.000567869
-0.000339725
0.000552192
-0.000415802
0.000508967
-0.000480102
0.000437383
-0.000526434
0.000346292
-0.000553685
0.000248842
-0.000562778
0.000153066
-0.000556257
6.25827e-05
-0.000535097
-2.39959e-05
-0.000501343
-0.000103058
-0.000455501
-0.000174017
-0.0003983
-0.00023517
-0.000332705
-0.000281604
-0.000263063
-0.000309986
-0.000195199
-0.000317722
-0.000134578
-0.000303658
-8.57451e-05
-0.000272989
-4.92643e-05
-0.000234119
-2.44926e-05
-0.000192943
-1.27111e-05
-0.000149406
-1.8489e-05
-0.000100406
-4.47583e-05
-4.88301e-05
-8.32761e-05
-1.08213e-05
-0.000117058
-2.63485e-06
-0.000142466
-7.5408e-06
-0.00016687
-6.98511e-06
-0.000197281
1.4028e-06
-0.000215637
-2.53797e-05
-0.000183786
-0.000141728
-8.31834e-05
-0.000342203
5.50291e-05
-0.000498213
0.00016133
-0.000390986
0.000145068
-4.72191e-05
8.80096e-06
0.000174136
-0.000237279
0.000352437
-0.000386628
0.000256706
-0.000243102
-0.000225444
-0.000455641
0.000354494
-0.00075273
0.000537572
-0.000383374
0.000426111
0.000433809
0.000139353
0.000773696
-0.000136064
0.000568155
-0.000296461
0.000277258
-0.000330143
-9.67934e-05
-0.000249902
-0.000449491
-0.000101755
-0.000526664
3.94836e-05
-0.000384333
0.000123596
-0.000210544
0.000158967
-0.000117435
0.000168961
-9.80534e-05
0.000162298
-9.43899e-05
0.000136428
-7.80607e-05
9.34035e-05
-6.75049e-05
4.94841e-05
-9.3602e-05
2.76471e-05
-0.000158196
3.98123e-05
-0.000234799
8.06896e-05
-0.000300708
0.000139642
-0.000349495
0.000206987
-0.000379909
0.000277951
-0.000392811
0.000351658
-0.000389841
0.000427818
-0.000370919
0.000505864
-0.000337601
0.000581997
-0.000289716
0.000650071
-0.000220569
0.00069713
-0.000122642
0.000714963
-9.76629e-07
0.000702593
0.000128913
0.000667374
0.000253549
0.000614014
0.000372464
0.000546149
0.000481101
0.000470795
0.000565776
0.00039294
0.000616001
0.000309398
0.000638183
0.000213924
0.000646325
0.000109222
0.000645883
1.36684e-06
0.000640094
-0.00012122
0.000663575
-0.000248597
0.000687425
-0.000364757
0.000684028
-0.000463787
0.000651221
-0.000544035
0.000589214
-0.000603519
0.000496866
-0.000642432
0.000385204
-0.000663477
0.000269886
-0.000672082
0.00016167
-0.000670007
6.05066e-05
-0.000653559