/*--------------------------------*- C++ -*----------------------------------*\
| =========                 |                                                 |
| \\      /  F ield         | OpenFOAM: The Open Source CFD Toolbox           |
|  \\    /   O peration     | Version:  2412                                  |
|   \\  /    A nd           | Website:  www.openfoam.com                      |
|    \\/     M anipulation  |                                                 |
\*---------------------------------------------------------------------------*/
FoamFile
{
    version     2.0;
    format      ascii;
    arch        "LSB;label=32;scalar=64";
    class       volScalarField;
    location    "6.7";
    object      p;
}
// * * * * * * * * * * * * * * * * * * * * * * * * * * * * * * * * * * * * * //

dimensions      [1 -1 -2 0 0 0 0];

internalField   nonuniform List<scalar> 
6400
(
9598.43
9598.81
9599.55
9600.65
9602.09
9603.85
9605.9
9608.21
9610.75
9613.46
9616.31
9619.25
9622.21
9625.15
9628.02
9630.76
9633.33
9635.68
9637.78
9639.59
9641.11
9642.31
9643.19
9643.76
9644.03
9644.03
9643.77
9643.26
9642.56
9641.69
9640.69
9639.59
9638.42
9637.23
9636.03
9634.87
9633.76
9632.75
9631.84
9631.08
9630.48
9630.05
9629.8
9629.75
9629.9
9630.23
9630.74
9631.4
9632.18
9633.05
9633.97
9634.87
9635.7
9636.41
9636.94
9637.24
9637.25
9636.93
9636.24
9635.17
9633.71
9631.84
9629.6
9627
9624.09
9620.91
9617.51
9613.97
9610.34
9606.71
9603.13
9599.68
9596.42
9593.42
9590.74
9588.42
9586.51
9585.04
9584.05
9583.55
9107.57
9107.95
9108.7
9109.81
9111.27
9113.05
9115.14
9117.49
9120.06
9122.82
9125.72
9128.71
9131.73
9134.72
9137.64
9140.43
9143.04
9145.42
9147.55
9149.39
9150.91
9152.12
9152.99
9153.55
9153.81
9153.77
9153.46
9152.94
9152.2
9151.3
9150.27
9149.13
9147.94
9146.71
9145.48
9144.28
9143.15
9142.1
9141.18
9140.39
9139.77
9139.33
9139.08
9139.03
9139.19
9139.54
9140.07
9140.76
9141.58
9142.5
9143.46
9144.42
9145.32
9146.08
9146.67
9147.02
9147.07
9146.78
9146.12
9145.06
9143.6
9141.72
9139.45
9136.81
9133.85
9130.61
9127.16
9123.55
9119.85
9116.14
9112.5
9108.98
9105.66
9102.6
9099.87
9097.51
9095.56
9094.07
9093.06
9092.55
8616.31
8616.71
8617.48
8618.62
8620.12
8621.96
8624.11
8626.53
8629.19
8632.05
8635.04
8638.13
8641.26
8644.36
8647.38
8650.26
8652.96
8655.42
8657.6
8659.48
8661.03
8662.24
8663.11
8663.64
8663.86
8663.78
8663.42
8662.83
8662.03
8661.05
8659.94
8658.74
8657.46
8656.16
8654.86
8653.59
8652.39
8651.29
8650.31
8649.48
8648.83
8648.37
8648.11
8648.07
8648.24
8648.63
8649.21
8649.98
8650.88
8651.89
8652.96
8654.04
8655.07
8655.94
8656.64
8657.08
8657.22
8657.01
8656.39
8655.36
8653.88
8651.98
8649.66
8646.94
8643.88
8640.53
8636.95
8633.2
8629.37
8625.52
8621.73
8618.08
8614.64
8611.46
8608.62
8606.17
8604.16
8602.61
8601.56
8601.03
8124.68
8125.08
8125.88
8127.07
8128.64
8130.55
8132.8
8135.33
8138.12
8141.12
8144.27
8147.52
8150.81
8154.07
8157.25
8160.28
8163.1
8165.67
8167.94
8169.88
8171.47
8172.69
8173.55
8174.05
8174.21
8174.05
8173.61
8172.93
8172.02
8170.93
8169.71
8168.39
8167
8165.58
8164.17
8162.8
8161.5
8160.3
8159.24
8158.35
8157.64
8157.15
8156.88
8156.85
8157.06
8157.5
8158.17
8159.03
8160.07
8161.23
8162.46
8163.7
8164.88
8165.97
8166.84
8167.45
8167.73
8167.62
8167.08
8166.08
8164.6
8162.65
8160.25
8157.41
8154.21
8150.68
8146.9
8142.95
8138.89
8134.83
8130.83
8126.97
8123.33
8119.99
8116.99
8114.4
8112.28
8110.64
8109.54
8108.98
7632.64
7633.06
7633.9
7635.15
7636.8
7638.82
7641.19
7643.88
7646.84
7650.03
7653.39
7656.86
7660.37
7663.86
7667.26
7670.49
7673.5
7676.22
7678.61
7680.63
7682.26
7683.5
7684.33
7684.77
7684.86
7684.6
7684.04
7683.24
7682.18
7680.94
7679.57
7678.09
7676.54
7674.97
7673.41
7671.89
7670.45
7669.13
7667.95
7666.97
7666.19
7665.65
7665.36
7665.35
7665.6
7666.12
7666.9
7667.9
7669.11
7670.47
7671.93
7673.42
7674.87
7676.2
7677.32
7678.15
7678.61
7678.65
7678.21
7677.26
7675.78
7673.77
7671.25
7668.26
7664.84
7661.07
7657.02
7652.78
7648.43
7644.07
7639.77
7635.64
7631.74
7628.15
7624.94
7622.17
7619.9
7618.15
7616.97
7616.37
7140.17
7140.62
7141.52
7142.83
7144.58
7146.74
7149.27
7152.15
7155.33
7158.76
7162.39
7166.14
7169.95
7173.74
7177.42
7180.92
7184.16
7187.08
7189.62
7191.75
7193.44
7194.69
7195.48
7195.85
7195.83
7195.43
7194.71
7193.7
7192.49
7191.07
7189.5
7187.83
7186.08
7184.31
7182.56
7180.85
7179.23
7177.74
7176.42
7175.31
7174.44
7173.84
7173.52
7173.52
7173.82
7174.44
7175.35
7176.55
7177.98
7179.6
7181.36
7183.18
7184.96
7186.62
7188.06
7189.19
7189.91
7190.15
7189.85
7188.97
7187.48
7185.39
7182.73
7179.52
7175.83
7171.74
7167.34
7162.72
7157.98
7153.23
7148.56
7144.06
7139.83
7135.93
7132.45
7129.45
7126.98
7125.09
7123.81
7123.17
6647.25
6647.71
6648.71
6650.08
6651.95
6654.27
6657
6660.12
6663.56
6667.3
6671.25
6675.36
6679.54
6683.71
6687.75
6691.59
6695.13
6698.3
6701.04
6703.3
6705.06
6706.3
6707.05
6707.31
6707.14
6706.57
6705.65
6704.43
6702.98
6701.32
6699.51
6697.59
6695.61
6693.59
6691.6
6689.65
6687.81
6686.12
6684.61
6683.34
6682.35
6681.66
6681.31
6681.32
6681.68
6682.41
6683.49
6684.91
6686.62
6688.58
6690.71
6692.94
6695.16
6697.25
6699.11
6700.62
6701.67
6702.17
6702.05
6701.26
6699.77
6697.59
6694.73
6691.25
6687.22
6682.72
6677.87
6672.77
6667.54
6662.3
6657.16
6652.22
6647.57
6643.3
6639.48
6636.18
6633.48
6631.42
6630.01
6629.31
6153.86
6154.35
6155.46
6156.84
6158.89
6161.39
6164.35
6167.74
6171.5
6175.59
6179.96
6184.51
6189.15
6193.78
6198.29
6202.55
6206.47
6209.95
6212.92
6215.33
6217.16
6218.4
6219.06
6219.19
6218.83
6218.04
6216.86
6215.38
6213.64
6211.69
6209.58
6207.37
6205.09
6202.79
6200.5
6198.28
6196.16
6194.21
6192.47
6191.01
6189.86
6189.07
6188.67
6188.67
6189.1
6189.95
6191.23
6192.92
6194.97
6197.34
6199.94
6202.69
6205.45
6208.09
6210.49
6212.48
6213.96
6214.8
6214.92
6214.24
6212.76
6210.45
6207.35
6203.53
6199.06
6194.06
6188.64
6182.95
6177.12
6171.28
6165.56
6160.08
6154.93
6150.2
6145.97
6142.33
6139.35
6137.07
6135.52
6134.75
5659.98
5660.45
5661.6
5663.19
5665.36
5668.05
5671.26
5674.96
5679.09
5683.61
5688.46
5693.55
5698.77
5703.98
5709.05
5713.84
5718.22
5722.08
5725.33
5727.92
5729.82
5731.03
5731.58
5731.52
5730.92
5729.83
5728.35
5726.53
5724.45
5722.15
5719.7
5717.14
5714.52
5711.87
5709.24
5706.68
5704.24
5701.98
5699.96
5698.25
5696.9
5695.98
5695.5
5695.5
5695.99
5696.98
5698.48
5700.48
5702.93
5705.79
5708.97
5712.36
5715.81
5719.15
5722.22
5724.85
5726.86
5728.13
5728.55
5728.03
5726.54
5724.09
5720.7
5716.45
5711.44
5705.81
5699.7
5693.28
5686.7
5680.13
5673.72
5667.59
5661.85
5656.58
5651.87
5647.82
5644.5
5642
5640.24
5639.41
5165.56
5165.99
5167.21
5169
5171.33
5174.18
5177.67
5181.73
5186.28
5191.3
5196.73
5202.47
5208.39
5214.32
5220.09
5225.53
5230.48
5234.8
5238.39
5241.17
5243.13
5244.28
5244.66
5244.35
5243.42
5241.98
5240.1
5237.88
5235.39
5232.69
5229.83
5226.87
5223.85
5220.81
5217.78
5214.83
5212
5209.36
5206.99
5204.97
5203.39
5202.29
5201.71
5201.68
5202.23
5203.36
5205.11
5207.46
5210.38
5213.84
5217.72
5221.9
5226.2
5230.42
5234.35
5237.77
5240.47
5242.29
5243.08
5242.76
5241.29
5238.65
5234.9
5230.12
5224.44
5218.03
5211.07
5203.76
5196.28
5188.83
5181.58
5174.7
5168.29
5162.39
5157.09
5152.58
5148.87
5146.14
5144.08
5143.19
4670.68
4670.82
4672.2
4674.28
4676.72
4679.68
4683.49
4687.95
4692.97
4698.55
4704.67
4711.21
4717.99
4724.81
4731.46
4737.71
4743.36
4748.24
4752.21
4755.2
4757.2
4758.24
4758.38
4757.72
4756.37
4754.46
4752.1
4749.39
4746.42
4743.25
4739.93
4736.51
4733.03
4729.54
4726.07
4722.66
4719.38
4716.29
4713.5
4711.11
4709.22
4707.9
4707.18
4707.1
4707.68
4708.96
4710.95
4713.69
4717.17
4721.32
4726.06
4731.21
4736.58
4741.9
4746.9
4751.32
4754.9
4757.4
4758.69
4758.62
4757.17
4754.31
4750.11
4744.68
4738.18
4730.81
4722.81
4714.41
4705.83
4697.32
4689.07
4681.31
4674.16
4667.54
4661.55
4656.51
4652.39
4649.45
4646.91
4646
4175.52
4176.35
4177.76
4179.28
4181.53
4184.45
4188.63
4193.53
4199.08
4205.23
4212.19
4219.71
4227.56
4235.49
4243.22
4250.47
4256.99
4262.54
4266.96
4270.18
4272.17
4273.01
4272.79
4271.65
4269.75
4267.25
4264.3
4261.01
4257.48
4253.76
4249.91
4245.97
4241.99
4238
4234.03
4230.1
4226.29
4222.68
4219.4
4216.58
4214.31
4212.68
4211.76
4211.58
4212.17
4213.56
4215.82
4218.98
4223.06
4228.04
4233.8
4240.15
4246.83
4253.53
4259.9
4265.59
4270.27
4273.66
4275.56
4275.83
4274.4
4271.28
4266.54
4260.31
4252.78
4244.23
4234.96
4225.24
4215.35
4205.54
4196.1
4187.33
4179.37
4171.92
4165.12
4159.45
4154.99
4151.6
4149.04
4147.89
3679.77
3680.27
3681.64
3683.2
3685.45
3688.66
3692.78
3698.2
3704.45
3711.21
3719.19
3727.92
3737.07
3746.37
3755.44
3763.94
3771.53
3777.91
3782.85
3786.28
3788.19
3788.7
3787.96
3786.17
3783.54
3780.29
3776.6
3772.63
3768.45
3764.11
3759.66
3755.14
3750.6
3746.08
3741.56
3737.06
3732.64
3728.46
3724.64
3721.32
3718.56
3716.53
3715.3
3714.94
3715.48
3716.95
3719.43
3723.02
3727.79
3733.72
3740.69
3748.51
3756.84
3765.28
3773.39
3780.69
3786.76
3791.26
3793.93
3794.62
3793.25
3789.81
3784.4
3777.19
3768.39
3758.34
3747.58
3736.28
3724.79
3713.39
3702.47
3692.42
3683.47
3675.05
3667.28
3661.17
3656.49
3652.79
3650.14
3648.92
3183.32
3184.11
3183.71
3185.4
3187.88
3190.27
3194.89
3201.19
3208.57
3215.91
3225.5
3235.81
3246.58
3257.54
3268.29
3278.33
3287.23
3294.6
3300.13
3303.73
3305.44
3305.42
3303.93
3301.25
3297.67
3293.47
3288.9
3284.12
3279.2
3274.14
3268.99
3263.82
3258.69
3253.6
3248.51
3243.4
3238.37
3233.56
3229.14
3225.26
3221.82
3219.29
3217.62
3216.94
3217.33
3218.83
3221.49
3225.48
3230.96
3237.98
3246.43
3256.04
3266.42
3277.07
3287.36
3296.7
3304.52
3310.4
3314.05
3315.29
3314.01
3310.18
3303.95
3295.58
3285.24
3273.17
3260.72
3247.46
3234.06
3220.62
3207.42
3195.44
3185.49
3176.24
3167.33
3160.96
3155.83
3151.68
3150.03
3148.56
2680.19
2676.11
2676.37
2683.35
2687.51
2688.96
2693.46
2700.82
2709.79
2719.38
2730.59
2743.09
2756.08
2769.13
2781.92
2793.97
2804.56
2813.05
2819.19
2822.85
2824.15
2823.33
2820.77
2816.85
2811.97
2806.52
2800.83
2795.09
2789.34
2783.47
2777.57
2771.69
2765.93
2760.28
2754.65
2749
2743.38
2737.9
2732.73
2728.13
2723.71
2720.61
2718.36
2717.16
2717.24
2718.66
2721.47
2725.82
2732
2740.22
2750.4
2762.19
2775.13
2788.57
2801.69
2813.65
2823.74
2831.42
2836.33
2838.26
2837.1
2832.76
2825.68
2816.09
2803.97
2790.16
2774.77
2759.18
2743.42
2727.24
2711.33
2697.04
2685.56
2675.06
2665.03
2658.08
2651.31
2642.68
2639.68
2641.81
2172.03
2159.49
2162.46
2177.63
2184.3
2184.08
2188.09
2196.91
2209.26
2221.32
2234.56
2249.55
2265.08
2280.72
2296.18
2310.99
2323.99
2334.04
2340.81
2344.29
2344.76
2342.65
2338.5
2332.82
2326.13
2318.94
2311.7
2304.7
2297.93
2291.32
2284.54
2277.89
2271.54
2265.53
2259.68
2253.77
2247.68
2241.43
2235.15
2229.29
2224.11
2220.07
2217.01
2215.05
2214.49
2215.52
2218.28
2222.98
2229.99
2239.5
2251.48
2265.71
2281.8
2298.89
2315.82
2331.42
2344.68
2354.87
2361.47
2364.26
2363.23
2358.4
2350.13
2338.44
2323.69
2306.4
2288.07
2270.11
2252.24
2233.84
2215.76
2199.31
2184.61
2170.92
2159.28
2152.24
2143.43
2126.91
2120.64
2129.63
1671.68
1656.14
1659.83
1675.43
1680.83
1678.11
1680.69
1692.07
1708.89
1723.5
1738.72
1755.91
1774.22
1792.86
1811.6
1829.79
1845.82
1858.03
1865.71
1868.76
1867.83
1863.78
1857.44
1849.4
1840.27
1830.73
1821.46
1812.84
1804.76
1796.82
1789.02
1781.56
1774.74
1768.7
1763.03
1757.1
1750.45
1743.12
1735.46
1728.07
1721.3
1715.81
1711.68
1708.86
1707.67
1708.43
1711.2
1716.1
1723.7
1734.34
1748.11
1765.49
1785.87
1807.97
1830.14
1850.75
1868.34
1881.78
1890.4
1894.17
1893.25
1887.57
1877.71
1863.47
1845.37
1824.31
1803.29
1782.62
1762.45
1742.24
1722.29
1702.76
1682.6
1663.6
1650.27
1645.4
1636.79
1618.38
1609.98
1620.91
1180.75
1168.6
1171.85
1182.88
1183.21
1176.17
1174.48
1189.37
1209.5
1225.78
1242.54
1262.11
1283.91
1306.76
1329.52
1351.13
1370.04
1384.41
1392.87
1395.2
1392.37
1385.75
1376.48
1365.14
1352.66
1340.44
1329.36
1319.65
1311.11
1302.8
1293.65
1284.21
1276.14
1270.01
1264.97
1259.53
1252.56
1244.25
1235.1
1225.3
1215.68
1207.92
1202.43
1198.75
1196.94
1197.38
1200.33
1205.68
1213.92
1225.86
1241.82
1262.74
1288.05
1315.98
1344.24
1370.88
1393.94
1411.61
1422.69
1427.34
1426.1
1419.3
1407.29
1390.59
1369.94
1346.61
1321.55
1297.14
1273.76
1251.22
1229.37
1206.42
1179.53
1154.31
1144
1141.43
1136.3
1121.71
1110.96
1116.22
690.096
683.364
691.254
698.502
694.088
684.61
684.287
694.822
710.551
727.626
746.546
768.584
794.115
821.715
849.495
874.675
895.921
911.782
920.42
921.369
916.154
906.365
893.339
877.363
859.921
844.098
831.771
822.232
813.932
804.836
794.218
783.47
775.246
769.98
766.31
762.267
755.294
746.104
734.721
720.174
706.215
696.039
689.875
686.458
685.507
686.19
688.255
692.261
700.579
714.77
731.375
754.345
785.65
820.603
855.752
889.05
918.448
941.336
955.261
960.594
958.649
950.417
936.631
918.299
895.796
869.494
841.317
814.491
789.122
765.024
741.02
713.974
684.722
663.199
647.828
645.105
642.351
628.621
610.165
608.069
239.918
237.15
240.099
241.593
235.595
227.658
224.659
231.354
243.438
255.705
270.036
290.406
316.412
347.802
377.862
405.007
428.772
447.306
457.54
458.164
451.162
438.74
422.233
400.974
376.448
356.762
344.127
335.023
328.021
320.363
310.68
304.906
302.09
300.892
299.029
294.937
288.365
282.032
272.636
257.119
242.011
230.615
224.516
222.424
223.093
223.453
222.71
223.636
229.604
241.87
251.452
267.868
299.906
339.374
381.077
422.118
458.482
486.03
500.326
502.933
497.012
485.009
468.643
449.023
426.625
398.642
367.438
338.266
312.651
290.032
268.641
245.642
221.096
201.107
193.048
194.295
195.329
188.621
179.157
176.131
16.7695
15.4554
11.9531
8.71938
5.86752
7.15233
11.6499
15.0643
17.0051
18.8306
22.517
28.8985
38.8527
52.538
70.4116
87.9957
104.115
115.76
121.191
120.729
115.5
106.606
95.146
80.9393
65.6306
55.6316
50.9323
46.5765
40.4086
32.4777
28.1575
31.6634
35.7965
39.0888
38.0292
36.4601
34.0908
32.2763
27.9812
21.4797
15.9373
12.4229
10.83
10.6918
10.9475
10.3093
8.8949
8.02899
8.39721
9.18439
10.1389
14.6131
28.0344
49.3293
75.2909
102.123
125.399
142.447
149.935
150.267
145.614
138.064
127.032
112.048
94.7814
75.5112
59.7866
48.0519
38.3764
30.387
23.8103
17.3247
10.266
4.10237
-1.07811
-3.05742
-2.74994
-0.70269
1.41573
0.638311
-9.79412
-9.78971
-9.78908
-9.77343
-9.71478
-9.62236
-9.55072
-9.50891
-9.46809
-9.34708
-9.17074
-9.23344
-9.85542
-10.4688
-9.51184
-8.18469
-7.78685
-8.31803
-9.24757
-9.7281
-9.88723
-9.87681
-9.85377
-9.91934
-9.97611
-9.92395
-9.74366
-9.5358
-9.51399
-9.75036
-9.76836
-9.84062
-10.1135
-10.4785
-11.2459
-10.7465
-9.75619
-9.13315
-9.25885
-9.54555
-9.654
-9.64308
-9.56139
-9.27353
-8.95058
-8.85458
-8.96609
-9.17899
-9.32588
-9.41536
-9.48356
-9.55705
-9.68535
-9.81774
-9.91423
-9.9543
-9.92699
-9.8814
-9.27893
-7.97013
-7.05768
-6.51118
-6.70773
-7.79444
-9.36908
-9.66302
-9.4339
-9.45624
-9.53325
-9.5575
-9.5636
-9.56189
-9.52224
-9.45685
-9.35453
-9.3372
-9.29148
-9.17963
-9.11393
-9.08175
-10.336
-10.3463
-10.3563
-10.3465
-10.3061
-10.2313
-10.143
-10.113
-10.081
-10.0358
-10.0168
-10.1899
-10.6561
-11.0364
-11.0561
-10.8254
-10.6601
-10.5523
-10.4468
-10.3881
-10.3749
-10.32
-10.3022
-10.3707
-10.4513
-10.449
-10.3803
-10.3263
-10.3551
-10.4033
-10.4158
-10.386
-10.4077
-10.5067
-10.6842
-10.7474
-10.6617
-10.5525
-10.5392
-10.5788
-10.5829
-10.5192
-10.3878
-10.1964
-9.99922
-9.86481
-9.80988
-9.83052
-9.9217
-10.0082
-10.0897
-10.184
-10.2879
-10.3874
-10.4806
-10.5443
-10.6009
-10.671
-10.7879
-10.8668
-10.8675
-10.8375
-10.8434
-10.985
-11.0543
-10.7546
-10.4599
-10.3355
-10.2666
-10.2197
-10.181
-10.1492
-10.1137
-10.0574
-9.97432
-9.90908
-9.82101
-9.70791
-9.65457
-9.64939
-10.8677
-10.9036
-10.9374
-10.9525
-10.9181
-10.8056
-10.715
-10.703
-10.6985
-10.6968
-10.7045
-10.8414
-11.0975
-11.3053
-11.3661
-11.2615
-11.1212
-11.0518
-10.9625
-10.8692
-10.7947
-10.7303
-10.6874
-10.724
-10.8144
-10.8643
-10.8656
-10.8472
-10.8486
-10.9038
-10.9623
-10.9881
-10.9891
-11.0202
-11.0444
-11.0483
-11.0558
-11.0801
-11.1122
-11.1425
-11.1539
-11.1127
-10.9994
-10.8452
-10.693
-10.5779
-10.5312
-10.5358
-10.5893
-10.6535
-10.72
-10.7997
-10.8803
-10.954
-11.0291
-11.0895
-11.1513
-11.2138
-11.2742
-11.3133
-11.3184
-11.3024
-11.2825
-11.2885
-11.2982
-11.2684
-11.1942
-11.1038
-11.0072
-10.922
-10.8529
-10.7922
-10.7258
-10.6557
-10.5764
-10.5057
-10.4212
-10.3071
-10.2444
-10.2409
-11.3759
-11.416
-11.4601
-11.4916
-11.4536
-11.3366
-11.2481
-11.2444
-11.2703
-11.2957
-11.3211
-11.3827
-11.5152
-11.6758
-11.7721
-11.7248
-11.6367
-11.5689
-11.4746
-11.3584
-11.2767
-11.2086
-11.1641
-11.1825
-11.2812
-11.3982
-11.4448
-11.4274
-11.3772
-11.3663
-11.4094
-11.435
-11.4456
-11.4521
-11.4564
-11.4569
-11.4747
-11.5226
-11.5736
-11.617
-11.6557
-11.6708
-11.6313
-11.5503
-11.4609
-11.3913
-11.3387
-11.3094
-11.3085
-11.336
-11.382
-11.4423
-11.5024
-11.5595
-11.611
-11.66
-11.7081
-11.7517
-11.7838
-11.8005
-11.7975
-11.7802
-11.7525
-11.7353
-11.7465
-11.7878
-11.8031
-11.7707
-11.7142
-11.6315
-11.5511
-11.4489
-11.3307
-11.2281
-11.142
-11.0599
-10.9909
-10.9141
-10.8768
-10.868
-11.8564
-11.8876
-11.9306
-11.9468
-11.9062
-11.8041
-11.7331
-11.7414
-11.7898
-11.8427
-11.8874
-11.9286
-12.0068
-12.1248
-12.2244
-12.2451
-12.1975
-12.1179
-12.0171
-11.8921
-11.79
-11.7326
-11.7298
-11.7658
-11.8685
-11.9961
-12.0614
-12.0285
-11.9402
-11.888
-11.908
-11.9288
-11.9331
-11.9381
-11.953
-11.966
-11.9756
-12.0119
-12.0693
-12.1309
-12.1906
-12.2398
-12.2531
-12.233
-12.2001
-12.1534
-12.097
-12.0442
-12.0046
-11.9992
-12.0241
-12.0612
-12.1035
-12.1483
-12.1905
-12.2296
-12.2631
-12.288
-12.303
-12.3085
-12.2966
-12.27
-12.2463
-12.2408
-12.2643
-12.3134
-12.3553
-12.3725
-12.3654
-12.3419
-12.2915
-12.1425
-11.9551
-11.7948
-11.6802
-11.6107
-11.5581
-11.5214
-11.5159
-11.4999
-12.3434
-12.3686
-12.406
-12.4179
-12.3711
-12.2817
-12.2224
-12.232
-12.303
-12.3849
-12.4394
-12.4801
-12.5309
-12.5957
-12.668
-12.723
-12.7219
-12.6701
-12.5792
-12.4606
-12.3597
-12.3119
-12.3158
-12.3659
-12.4508
-12.5573
-12.607
-12.5825
-12.4964
-12.4192
-12.4236
-12.4413
-12.4514
-12.4733
-12.5301
-12.5662
-12.5604
-12.5698
-12.6217
-12.6968
-12.776
-12.8415
-12.8744
-12.8707
-12.8289
-12.767
-12.711
-12.6742
-12.6486
-12.6409
-12.6546
-12.6763
-12.701
-12.7297
-12.7599
-12.7882
-12.8111
-12.8263
-12.834
-12.8365
-12.8207
-12.7955
-12.7765
-12.7789
-12.8111
-12.8618
-12.9072
-12.9355
-12.9561
-12.9829
-12.9738
-12.8605
-12.6364
-12.427
-12.2744
-12.2015
-12.167
-12.1451
-12.1464
-12.1189
-12.858
-12.8784
-12.9182
-12.9414
-12.9062
-12.8402
-12.7969
-12.8089
-12.8712
-12.957
-13.0004
-13.0233
-13.0562
-13.1074
-13.1769
-13.242
-13.2568
-13.2152
-13.1403
-13.0618
-12.9956
-12.9524
-12.9364
-12.9527
-12.9991
-13.056
-13.0767
-13.0504
-12.9916
-12.9216
-12.9188
-12.9403
-12.9653
-13.025
-13.1269
-13.1858
-13.1806
-13.1783
-13.2238
-13.3004
-13.387
-13.4491
-13.4642
-13.4229
-13.3465
-13.284
-13.261
-13.2651
-13.2672
-13.2661
-13.2713
-13.2829
-13.2973
-13.3137
-13.3318
-13.3494
-13.3642
-13.3742
-13.3795
-13.3815
-13.3695
-13.3602
-13.3613
-13.3758
-13.4059
-13.4455
-13.4785
-13.5043
-13.5297
-13.5587
-13.5626
-13.4929
-13.2991
-13.0925
-12.9451
-12.8593
-12.8302
-12.8006
-12.7834
-12.7481
-13.4
-13.4198
-13.47
-13.5222
-13.5233
-13.4891
-13.4567
-13.4479
-13.4716
-13.5361
-13.5586
-13.5626
-13.5847
-13.6342
-13.7079
-13.779
-13.7998
-13.7669
-13.7182
-13.6751
-13.6296
-13.576
-13.5302
-13.5058
-13.5034
-13.5151
-13.514
-13.4819
-13.4372
-13.3874
-13.3849
-13.4187
-13.457
-13.5426
-13.6715
-13.758
-13.7757
-13.7891
-13.8412
-13.919
-13.9985
-14.0414
-14.0182
-13.9467
-13.8735
-13.8406
-13.8482
-13.87
-13.8868
-13.8862
-13.8833
-13.886
-13.8928
-13.901
-13.9091
-13.9173
-13.9248
-13.9309
-13.9363
-13.9409
-13.9406
-13.9554
-13.9808
-14.0082
-14.0315
-14.0489
-14.0629
-14.0785
-14.104
-14.1331
-14.1322
-14.0773
-13.9528
-13.79
-13.6679
-13.5851
-13.5441
-13.4899
-13.4411
-13.397
-13.9598
-13.9829
-14.0463
-14.1372
-14.1823
-14.163
-14.1151
-14.0823
-14.0752
-14.1029
-14.1086
-14.1
-14.1142
-14.1551
-14.2229
-14.2863
-14.3176
-14.305
-14.2773
-14.2377
-14.1837
-14.1162
-14.0559
-14.0129
-13.9855
-13.971
-13.9573
-13.9262
-13.8855
-13.852
-13.8466
-13.8853
-13.9281
-14.0166
-14.1526
-14.2698
-14.3318
-14.3856
-14.4555
-14.5427
-14.6187
-14.6419
-14.6048
-14.5483
-14.5112
-14.5078
-14.5184
-14.5199
-14.5161
-14.5095
-14.5008
-14.4956
-14.4937
-14.4932
-14.4924
-14.4919
-14.4928
-14.4955
-14.5021
-14.5116
-14.5292
-14.5614
-14.6039
-14.6361
-14.6512
-14.6449
-14.6431
-14.6517
-14.6784
-14.7061
-14.7257
-14.7278
-14.6631
-14.5486
-14.4487
-14.3689
-14.2932
-14.2009
-14.1212
-14.0645
-14.5189
-14.5453
-14.6119
-14.7188
-14.7859
-14.7674
-14.7045
-14.6599
-14.649
-14.6497
-14.6496
-14.6337
-14.6401
-14.6724
-14.7154
-14.7588
-14.7871
-14.793
-14.772
-14.7269
-14.6625
-14.5922
-14.5329
-14.4891
-14.4587
-14.4402
-14.425
-14.3996
-14.36
-14.3352
-14.3218
-14.3528
-14.3963
-14.4764
-14.6064
-14.7641
-14.8877
-14.9972
-15.1
-15.201
-15.285
-15.3163
-15.3126
-15.2975
-15.2972
-15.2976
-15.2869
-15.246
-15.1846
-15.1468
-15.1284
-15.1148
-15.101
-15.0894
-15.0793
-15.0708
-15.0656
-15.0655
-15.0743
-15.0906
-15.1247
-15.1697
-15.2246
-15.2564
-15.2647
-15.2473
-15.2435
-15.2524
-15.2854
-15.3498
-15.4349
-15.4956
-15.4672
-15.3804
-15.285
-15.1865
-15.0452
-14.91
-14.8098
-14.7418
-15.0594
-15.0862
-15.143
-15.231
-15.293
-15.2831
-15.2334
-15.1883
-15.1929
-15.1926
-15.185
-15.1639
-15.1736
-15.1875
-15.2077
-15.2269
-15.242
-15.249
-15.2342
-15.19
-15.1238
-15.0556
-15.002
-14.9629
-14.9344
-14.9203
-14.9094
-14.8923
-14.859
-14.8332
-14.8195
-14.8378
-14.8857
-14.9592
-15.0911
-15.2861
-15.4798
-15.6548
-15.803
-15.9203
-16.0183
-16.086
-16.1372
-16.1766
-16.1986
-16.1957
-16.1569
-16.0619
-15.9292
-15.8199
-15.7698
-15.7422
-15.7131
-15.6874
-15.6675
-15.6512
-15.6404
-15.6385
-15.6506
-15.6727
-15.7216
-15.7791
-15.8483
-15.8961
-15.9272
-15.9394
-15.9735
-16.0199
-16.0656
-16.1618
-16.2789
-16.3516
-16.3469
-16.2525
-16.1324
-15.9678
-15.7556
-15.5938
-15.4912
-15.4084
-15.5786
-15.5998
-15.6399
-15.697
-15.7412
-15.747
-15.7213
-15.6932
-15.7131
-15.7268
-15.7062
-15.6865
-15.6922
-15.7028
-15.7168
-15.7238
-15.7276
-15.7298
-15.7176
-15.6727
-15.6044
-15.5487
-15.5074
-15.4689
-15.435
-15.4167
-15.4038
-15.3962
-15.3754
-15.3526
-15.3454
-15.3552
-15.41
-15.4839
-15.6288
-15.8529
-16.1158
-16.3629
-16.5516
-16.6853
-16.7906
-16.9002
-17.0186
-17.1112
-17.1522
-17.1534
-17.0969
-16.9561
-16.7505
-16.5524
-16.4297
-16.3759
-16.3291
-16.2862
-16.2551
-16.2309
-16.2148
-16.2107
-16.223
-16.2518
-16.3073
-16.3787
-16.4624
-16.549
-16.639
-16.7328
-16.8018
-16.8493
-16.8685
-16.9293
-17.0565
-17.1602
-17.1461
-17.0378
-16.8725
-16.6235
-16.3961
-16.2402
-16.1495
-16.03
-16.0835
-16.0953
-16.1206
-16.1556
-16.1852
-16.1943
-16.1867
-16.1824
-16.2117
-16.2346
-16.211
-16.1998
-16.2058
-16.2202
-16.238
-16.2467
-16.2495
-16.2539
-16.2518
-16.2203
-16.1662
-16.1264
-16.1005
-16.0512
-16.003
-15.9807
-15.9579
-15.9432
-15.922
-15.9042
-15.9032
-15.9155
-15.9716
-16.0555
-16.2077
-16.4649
-16.7855
-17.0945
-17.3172
-17.4676
-17.5718
-17.7064
-17.8765
-18.016
-18.0741
-18.0763
-18.0089
-17.8518
-17.6014
-17.3291
-17.1192
-17.0155
-16.9466
-16.8849
-16.841
-16.8084
-16.7865
-16.7786
-16.7884
-16.8181
-16.8702
-16.9451
-17.0293
-17.137
-17.2529
-17.3751
-17.445
-17.4442
-17.4285
-17.4569
-17.5603
-17.6673
-17.6734
-17.5789
-17.3934
-17.1583
-16.9709
-16.8418
-16.7498
-16.5871
-16.5831
-16.5861
-16.6004
-16.6218
-16.6389
-16.6444
-16.6477
-16.6632
-16.6978
-16.7173
-16.7055
-16.7052
-16.7152
-16.7353
-16.7575
-16.7742
-16.7903
-16.8175
-16.8482
-16.8464
-16.8048
-16.7608
-16.7185
-16.6594
-16.5966
-16.5723
-16.5608
-16.5449
-16.5215
-16.4973
-16.4964
-16.5168
-16.5719
-16.6738
-16.826
-17.1102
-17.4731
-17.8182
-18.0737
-18.2488
-18.3569
-18.473
-18.6576
-18.8323
-18.9093
-18.903
-18.8326
-18.6781
-18.4232
-18.1056
-17.8255
-17.6555
-17.5616
-17.4822
-17.4239
-17.3818
-17.3529
-17.3391
-17.343
-17.3676
-17.4103
-17.4687
-17.5271
-17.6081
-17.6979
-17.8025
-17.902
-17.9341
-17.8939
-17.8307
-17.8307
-17.8915
-17.9438
-17.9033
-17.7681
-17.614
-17.4979
-17.3916
-17.2668
-17.12
-17.0834
-17.0802
-17.0858
-17.0972
-17.1041
-17.1072
-17.1194
-17.1461
-17.178
-17.1947
-17.1965
-17.2049
-17.2173
-17.2363
-17.2599
-17.286
-17.3304
-17.4105
-17.4955
-17.5051
-17.4413
-17.3558
-17.2957
-17.2415
-17.1751
-17.1474
-17.1526
-17.1589
-17.1514
-17.1307
-17.1265
-17.1506
-17.2109
-17.3281
-17.4806
-17.7601
-18.1478
-18.5155
-18.8012
-19.0085
-19.1331
-19.2171
-19.3622
-19.5477
-19.6436
-19.6372
-19.5657
-19.4162
-19.1699
-18.8469
-18.5185
-18.2929
-18.1719
-18.0751
-18.0013
-17.9487
-17.9114
-17.8899
-17.8855
-17.9003
-17.9297
-17.964
-17.9855
-18.0166
-18.081
-18.2125
-18.3703
-18.4711
-18.438
-18.2919
-18.1804
-18.1747
-18.203
-18.2092
-18.1466
-18.0683
-17.993
-17.8928
-17.7575
-17.6698
-17.5871
-17.582
-17.5824
-17.5858
-17.5878
-17.5924
-17.6086
-17.6359
-17.662
-17.6788
-17.6893
-17.7016
-17.7138
-17.7286
-17.7498
-17.7847
-17.8598
-17.9939
-18.1198
-18.1209
-18.0229
-17.9074
-17.8555
-17.8199
-17.7738
-17.737
-17.745
-17.7691
-17.788
-17.7868
-17.7817
-17.8095
-17.8784
-18.001
-18.162
-18.4018
-18.7805
-19.1609
-19.4785
-19.7183
-19.8692
-19.9457
-20.0246
-20.1806
-20.2825
-20.2856
-20.2078
-20.0646
-19.8324
-19.534
-19.1863
-18.9192
-18.7724
-18.6588
-18.5698
-18.5061
-18.4596
-18.4296
-18.416
-18.4198
-18.4365
-18.453
-18.4549
-18.4562
-18.5139
-18.6735
-18.894
-19.0507
-19.0349
-18.8501
-18.6902
-18.6527
-18.6343
-18.6307
-18.5883
-18.5299
-18.4647
-18.364
-18.2611
-18.2264
-18.0957
-18.0929
-18.0939
-18.094
-18.093
-18.0977
-18.1117
-18.1336
-18.1542
-18.171
-18.1849
-18.1978
-18.2098
-18.2222
-18.2416
-18.2829
-18.3681
-18.5106
-18.6369
-18.6312
-18.5413
-18.4491
-18.4053
-18.3889
-18.3659
-18.3236
-18.3402
-18.3756
-18.4219
-18.4457
-18.4501
-18.4776
-18.5489
-18.6693
-18.837
-19.0376
-19.3637
-19.7389
-20.0861
-20.3565
-20.538
-20.6263
-20.6633
-20.7497
-20.8343
-20.8424
-20.7689
-20.6375
-20.4233
-20.1541
-19.8194
-19.522
-19.3551
-19.2285
-19.1255
-19.0511
-18.9954
-18.9572
-18.9353
-18.9299
-18.9376
-18.9474
-18.9503
-18.9488
-18.9999
-19.142
-19.3497
-19.5423
-19.5665
-19.3833
-19.2331
-19.2437
-19.2083
-19.1425
-19.0685
-18.996
-18.929
-18.8317
-18.7568
-18.7495
-18.6055
-18.6041
-18.6052
-18.6057
-18.6058
-18.6102
-18.6213
-18.6376
-18.6537
-18.6695
-18.6834
-18.696
-18.7083
-18.7213
-18.7403
-18.7811
-18.8549
-18.9797
-19.0746
-19.0977
-19.057
-18.9988
-18.9549
-18.9452
-18.937
-18.904
-18.9267
-18.9766
-19.041
-19.0923
-19.1132
-19.1331
-19.1994
-19.3119
-19.4748
-19.6516
-19.9041
-20.25
-20.6048
-20.9053
-21.1178
-21.2282
-21.2576
-21.2675
-21.3208
-21.3309
-21.2772
-21.1554
-20.9592
-20.7148
-20.4149
-20.1053
-19.9175
-19.7809
-19.6655
-19.5812
-19.5169
-19.4713
-19.4425
-19.4305
-19.4337
-19.446
-19.4605
-19.4708
-19.5122
-19.6187
-19.779
-19.9277
-19.9661
-19.8785
-19.8063
-19.8303
-19.7881
-19.6732
-19.566
-19.4769
-19.405
-19.318
-19.2476
-19.2401
-19.1123
-19.1135
-19.1156
-19.1172
-19.1188
-19.1238
-19.1333
-19.1456
-19.1587
-19.172
-19.1846
-19.1966
-19.2089
-19.2226
-19.2413
-19.2784
-19.3404
-19.4336
-19.5256
-19.5783
-19.5626
-19.5165
-19.4805
-19.4695
-19.474
-19.4695
-19.4988
-19.5608
-19.6337
-19.7047
-19.7416
-19.7606
-19.815
-19.9147
-20.0615
-20.2235
-20.4184
-20.7043
-21.0322
-21.347
-21.5842
-21.7187
-21.7618
-21.7462
-21.7679
-21.7811
-21.7486
-21.644
-21.4656
-21.2406
-20.9753
-20.6667
-20.4578
-20.3133
-20.1876
-20.0944
-20.0228
-19.9706
-19.9362
-19.919
-19.9197
-19.9367
-19.9647
-19.9979
-20.0423
-20.1229
-20.234
-20.34
-20.3902
-20.3925
-20.4062
-20.398
-20.3185
-20.1771
-20.0632
-19.9627
-19.8891
-19.8204
-19.7464
-19.7274
-19.6219
-19.6233
-19.6259
-19.6282
-19.631
-19.6364
-19.6444
-19.6544
-19.6656
-19.6766
-19.6879
-19.6992
-19.7109
-19.7242
-19.7417
-19.7717
-19.822
-19.8952
-19.9774
-20.0233
-20.0199
-19.995
-19.981
-19.9767
-19.9822
-20.0091
-20.0503
-20.1138
-20.1886
-20.2703
-20.3219
-20.3437
-20.3842
-20.4713
-20.6011
-20.751
-20.9097
-21.1318
-21.4155
-21.7028
-21.938
-22.0936
-22.1563
-22.1581
-22.1691
-22.1808
-22.1719
-22.0982
-21.9454
-21.7374
-21.4984
-21.1987
-20.9742
-20.8237
-20.6906
-20.5898
-20.5121
-20.4542
-20.4149
-20.3931
-20.3904
-20.4086
-20.4464
-20.5018
-20.5686
-20.6549
-20.7556
-20.8502
-20.9161
-20.9582
-20.9705
-20.9129
-20.7867
-20.6399
-20.5353
-20.4367
-20.3682
-20.3161
-20.2448
-20.2189
-20.1313
-20.1326
-20.1349
-20.1377
-20.1412
-20.1466
-20.1537
-20.1622
-20.1719
-20.1819
-20.1923
-20.2031
-20.2146
-20.2275
-20.2428
-20.2664
-20.3021
-20.3498
-20.4031
-20.4423
-20.4612
-20.47
-20.4792
-20.4841
-20.4862
-20.5308
-20.5814
-20.6393
-20.7185
-20.7929
-20.847
-20.8753
-20.9102
-20.9854
-21.0998
-21.2372
-21.3769
-21.5526
-21.7785
-22.0156
-22.2267
-22.3785
-22.4564
-22.4951
-22.5168
-22.5315
-22.5404
-22.5027
-22.387
-22.1998
-21.9842
-21.7014
-21.47
-21.3128
-21.1745
-21.0672
-20.9849
-20.9226
-20.8788
-20.8523
-20.8441
-20.8573
-20.8948
-20.9565
-21.0414
-21.1451
-21.2557
-21.3533
-21.423
-21.4532
-21.4275
-21.33
-21.1941
-21.0689
-20.9759
-20.8892
-20.8381
-20.8005
-20.7467
-20.7201
-20.6399
-20.641
-20.6431
-20.646
-20.6498
-20.655
-20.6616
-20.6693
-20.678
-20.6874
-20.6973
-20.7079
-20.7192
-20.7316
-20.7464
-20.7651
-20.7899
-20.8207
-20.8571
-20.8947
-20.9262
-20.9524
-20.9744
-20.9843
-20.9958
-21.0463
-21.0961
-21.147
-21.2284
-21.2839
-21.332
-21.3672
-21.4031
-21.4666
-21.5648
-21.6868
-21.8146
-21.9592
-22.1346
-22.3231
-22.4907
-22.6188
-22.7132
-22.7808
-22.82
-22.8455
-22.8714
-22.8636
-22.783
-22.6266
-22.4292
-22.1726
-21.9452
-21.7821
-21.6405
-21.5279
-21.4425
-21.3771
-21.33
-21.2993
-21.2846
-21.2883
-21.3141
-21.3645
-21.4401
-21.5371
-21.6409
-21.7304
-21.7863
-21.7942
-21.7513
-21.6633
-21.5594
-21.4648
-21.387
-21.3222
-21.2947
-21.2801
-21.2565
-21.2286
-21.1473
-21.1484
-21.1505
-21.1533
-21.1572
-21.1622
-21.1684
-21.1756
-21.1837
-21.1926
-21.2023
-21.2126
-21.2238
-21.2363
-21.2507
-21.2676
-21.2883
-21.3132
-21.3429
-21.3739
-21.4061
-21.4377
-21.4655
-21.4716
-21.506
-21.5603
-21.5971