/*--------------------------------*- C++ -*----------------------------------*\
| =========                 |                                                 |
| \\      /  F ield         | OpenFOAM: The Open Source CFD Toolbox           |
|  \\    /   O peration     | Version:  2412                                  |
|   \\  /    A nd           | Website:  www.openfoam.com                      |
|    \\/     M anipulation  |                                                 |
\*---------------------------------------------------------------------------*/
FoamFile
{
    version     2.0;
    format      ascii;
    arch        "LSB;label=32;scalar=64";
    class       surfaceScalarField;
    location    "2.35";
    object      phi;
}
// * * * * * * * * * * * * * * * * * * * * * * * * * * * * * * * * * * * * * //

dimensions      [0 3 -1 0 0 0 0];

oriented        oriented;

internalField   nonuniform List<scalar> 
12640
(
-2.30711e-05
2.30711e-05
-4.56182e-05
2.25473e-05
-6.55249e-05
1.9906e-05
-8.38079e-05
1.82804e-05
-0.000100332
1.65197e-05
-0.000114751
1.44154e-05
-0.000126795
1.20424e-05
-0.000136296
9.50032e-06
-0.000143173
6.87438e-06
-0.000147431
4.25562e-06
-0.000149149
1.72018e-06
-0.000148383
-7.70448e-07
-0.000145416
-2.96998e-06
-0.000140493
-4.91141e-06
-0.000133954
-6.54422e-06
-0.00012608
-7.87177e-06
-0.000117192
-8.8811e-06
-0.00010761
-9.58374e-06
-9.76428e-05
-9.96286e-06
-8.75449e-05
-1.0086e-05
-7.75771e-05
-9.96446e-06
-6.79821e-05
-9.59958e-06
-5.88752e-05
-9.10523e-06
-5.04173e-05
-8.44892e-06
-4.2687e-05
-7.72429e-06
-3.57364e-05
-6.95019e-06
-2.95715e-05
-6.1628e-06
-2.41574e-05
-5.40789e-06
-1.93951e-05
-4.75797e-06
-1.52237e-05
-4.17298e-06
-1.15894e-05
-3.63829e-06
-8.41564e-06
-3.17436e-06
-5.57786e-06
-2.83442e-06
-2.99554e-06
-2.57965e-06
-6.01125e-07
-2.39588e-06
1.64427e-06
-2.24955e-06
3.7835e-06
-2.14201e-06
5.82389e-06
-2.0398e-06
7.71085e-06
-1.88475e-06
9.39401e-06
-1.68244e-06
1.08063e-05
-1.41454e-06
1.19189e-05
-1.11672e-06
1.2714e-05
-7.99028e-07
1.32221e-05
-5.10633e-07
1.3531e-05
-3.10159e-07
1.3756e-05
-2.25718e-07
1.40537e-05
-2.98347e-07
1.45971e-05
-5.43899e-07
1.55504e-05
-9.52861e-07
1.70698e-05
-1.51762e-06
1.93192e-05
-2.24673e-06
2.24005e-05
-3.07836e-06
2.64815e-05
-4.07875e-06
3.16346e-05
-5.15177e-06
3.78804e-05
-6.24505e-06
4.52083e-05
-7.32702e-06
5.35482e-05
-8.33833e-06
6.27903e-05
-9.23979e-06
7.2757e-05
-9.96429e-06
8.32343e-05
-1.04758e-05
9.39721e-05
-1.07382e-05
0.000104707
-1.07369e-05
0.000115084
-1.03792e-05
0.000124792
-9.71015e-06
0.000133448
-8.65583e-06
0.000140746
-7.29763e-06
0.000146331
-5.58351e-06
0.000149847
-3.5156e-06
0.000151042
-1.19557e-06
0.000149624
1.41595e-06
0.000145534
4.08812e-06
0.000138699
6.83406e-06
0.00012912
9.57851e-06
0.000116882
1.22393e-05
0.000102172
1.47124e-05
8.52791e-05
1.68959e-05
6.65677e-05
1.87102e-05
4.61933e-05
2.03698e-05
2.31988e-05
2.2993e-05
2.31987e-05
-2.50317e-05
4.81019e-05
-4.7207e-05
4.47209e-05
-6.50688e-05
3.77636e-05
-8.09305e-05
3.41362e-05
-9.48507e-05
3.04351e-05
-0.000106454
2.60163e-05
-0.000115463
2.10483e-05
-0.000121706
1.57428e-05
-0.00012512
1.02877e-05
-0.000125722
4.84978e-06
-0.000123652
-3.46659e-07
-0.000119151
-5.26406e-06
-0.000112436
-9.69427e-06
-0.000103793
-1.35434e-05
-9.35749e-05
-1.67554e-05
-8.20098e-05
-1.94349e-05
-6.959e-05
-2.12953e-05
-5.6534e-05
-2.26343e-05
-4.32468e-05
-2.3247e-05
-3.0065e-05
-2.32654e-05
-1.72877e-05
-2.27361e-05
-5.16294e-06
-2.17155e-05
6.0625e-06
-2.03257e-05
1.62459e-05
-1.86349e-05
2.52157e-05
-1.66981e-05
3.28681e-05
-1.46005e-05
3.91374e-05
-1.24253e-05
4.39947e-05
-1.02607e-05
4.73976e-05
-8.16105e-06
4.93924e-05
-6.16795e-06
5.00539e-05
-4.2958e-06
4.94586e-05
-2.57293e-06
4.76808e-05
-1.05373e-06
4.48244e-05
2.74383e-07
4.09808e-05
1.44351e-06
3.62551e-05
2.47466e-06
3.07577e-05
3.35765e-06
2.46204e-05
4.10065e-06
1.79898e-05
4.74596e-06
1.09886e-05
5.31483e-06
3.76613e-06
5.80192e-06
-3.53023e-06
6.17425e-06
-1.0739e-05
6.40648e-06
-1.76824e-05
6.43122e-06
-2.4179e-05
6.18553e-06
-3.00255e-05
5.62e-06
-3.50362e-05
4.71199e-06
-3.90308e-05
3.45175e-06
-4.18169e-05
1.83603e-06
-4.32276e-05
-1.02675e-07
-4.3108e-05
-2.36198e-06
-4.1325e-05
-4.8578e-06
-3.7846e-05
-7.55554e-06
-3.26533e-05
-1.0343e-05
-2.57711e-05
-1.31256e-05
-1.72634e-05
-1.58321e-05
-7.26975e-06
-1.83284e-05
4.00444e-06
-2.05108e-05
1.63836e-05
-2.23419e-05
2.96385e-05
-2.37314e-05
4.34294e-05
-2.4532e-05
5.73867e-05
-2.4698e-05
7.1238e-05
-2.42335e-05
8.44437e-05
-2.29165e-05
9.67341e-05
-2.0945e-05
0.000107684
-1.82461e-05
0.000116916
-1.4816e-05
0.000124151
-1.07524e-05
0.000129042
-6.08993e-06
0.000131308
-8.51907e-07
0.000130731
4.66413e-06
0.000127168
1.03975e-05
0.000120612
1.61366e-05
0.000111124
2.17308e-05
9.88908e-05
2.69478e-05
8.42212e-05
3.15624e-05
6.75213e-05
3.54029e-05
4.87301e-05
3.91591e-05
2.55736e-05
4.61512e-05
4.87702e-05
-2.4472e-05
7.25732e-05
-4.48282e-05
6.50766e-05
-6.09015e-05
5.38346e-05
-7.50057e-05
4.82376e-05
-8.71068e-05
4.25352e-05
-9.68418e-05
3.57525e-05
-0.000103937
2.81435e-05
-0.000108195
1.99993e-05
-0.000109581
1.16765e-05
-0.000108121
3.38707e-06
-0.000103843
-4.62683e-06
-9.71506e-05
-1.19493e-05
-8.82596e-05
-1.85807e-05
-7.73914e-05
-2.44119e-05
-6.48688e-05
-2.92841e-05
-5.12082e-05
-3.30898e-05
-3.66487e-05
-3.58514e-05
-2.1705e-05
-3.75871e-05
-6.64176e-06
-3.83141e-05
8.15939e-06
-3.80618e-05
2.2363e-05
-3.69415e-05
3.57071e-05
-3.50702e-05
4.79282e-05
-3.25537e-05
5.88041e-05
-2.9508e-05
6.81925e-05
-2.60807e-05
7.59071e-05
-2.23127e-05
8.19043e-05
-1.84224e-05
8.60783e-05
-1.44322e-05
8.84342e-05
-1.05108e-05
8.89525e-05
-6.67919e-06
8.76777e-05
-3.01607e-06
8.46609e-05
4.45655e-07
8.00069e-05
3.60028e-06
7.37921e-05
6.48927e-06
6.61253e-05
9.11155e-06
5.71326e-05
1.14696e-05
4.69612e-05
1.3531e-05
3.58138e-05
1.52486e-05
2.39257e-05
1.66326e-05
1.1551e-05
1.76869e-05
-1.03009e-06
1.83805e-05
-1.35542e-05
1.86966e-05
-2.57287e-05
1.858e-05
-3.72883e-05
1.79901e-05
-4.79943e-05
1.68907e-05
-5.76296e-05
1.52544e-05
-6.59965e-05
1.30787e-05
-7.28941e-05
1.03502e-05
-7.8165e-05
7.10924e-06
-8.16168e-05
3.35208e-06
-8.30859e-05
-8.90199e-07
-8.24912e-05
-5.45054e-06
-7.98033e-05
-1.02425e-05
-7.49873e-05
-1.51582e-05
-6.81397e-05
-1.99721e-05
-5.93439e-05
-2.46261e-05
-4.87415e-05
-2.89286e-05
-3.65191e-05
-3.27315e-05
-2.29295e-05
-3.59312e-05
-8.29303e-06
-3.83697e-05
7.08846e-06
-3.99167e-05
2.28564e-05
-4.04689e-05
3.858e-05
-3.99585e-05
5.39223e-05
-3.82588e-05
6.83393e-05
-3.53619e-05
8.15032e-05
-3.14107e-05
9.29426e-05
-2.62573e-05
0.00010233
-2.01415e-05
0.000109354
-1.31154e-05
0.000113808
-5.30433e-06
0.000115258
3.2144e-06
0.000113728
1.19284e-05
0.000109135
2.07306e-05
0.000101581
2.92847e-05
9.12218e-05
3.73051e-05
7.83513e-05
4.44275e-05
6.34075e-05
5.03455e-05
4.6397e-05
5.61747e-05
2.50409e-05
6.75045e-05
7.38128e-05
-2.58463e-05
9.842e-05
-4.72371e-05
8.64676e-05
-6.42318e-05
7.08282e-05
-7.90678e-05
6.30732e-05
-9.17432e-05
5.52118e-05
-0.000101811
4.58234e-05
-0.000108898
3.52335e-05
-0.000112979
2.40775e-05
-0.000113912
1.26104e-05
-0.000111748
1.22585e-06
-0.000106666
-9.7046e-06
-9.88869e-05
-1.97384e-05
-8.86804e-05
-2.87841e-05
-7.65043e-05
-3.65779e-05
-6.26719e-05
-4.31162e-05
-4.75011e-05
-4.82669e-05
-3.15084e-05
-5.18502e-05
-1.51173e-05
-5.3977e-05
1.28469e-06
-5.47079e-05
1.73439e-05
-5.41148e-05
3.2717e-05
-5.23127e-05
4.70856e-05
-4.94335e-05
6.02135e-05
-4.56714e-05
7.18437e-05
-4.11326e-05
8.18031e-05
-3.60451e-05
8.99329e-05
-3.04516e-05
9.61574e-05
-2.46502e-05
0.000100395
-1.86659e-05
0.000102605
-1.2717e-05
0.000102789
-6.86416e-06
0.000100963
-1.19439e-06
9.72074e-05
4.19627e-06
9.16193e-05
9.18596e-06
8.42509e-05
1.38573e-05
7.52312e-05
1.81312e-05
6.47279e-05
2.19722e-05
5.29337e-05
2.53239e-05
4.00692e-05
2.81118e-05
2.63888e-05
3.03122e-05
1.21859e-05
3.18895e-05
-2.24419e-06
3.28107e-05
-1.6598e-05
3.30507e-05
-3.05793e-05
3.25615e-05
-4.3897e-05
3.13077e-05
-5.62649e-05
2.92581e-05
-6.74301e-05
2.64192e-05
-7.71488e-05
2.27977e-05
-8.52031e-05
1.84056e-05
-9.13932e-05
1.33011e-05
-9.55794e-05
7.54005e-06
-9.76151e-05
1.14657e-06
-9.73006e-05
-5.76482e-06
-9.4654e-05
-1.28894e-05
-8.96848e-05
-2.01277e-05
-8.24445e-05
-2.72124e-05
-7.30441e-05
-3.40259e-05
-6.16404e-05
-4.0332e-05
-4.84563e-05
-4.59158e-05
-3.37731e-05
-5.06151e-05
-1.78888e-05
-5.4255e-05
-1.15692e-06
-5.66495e-05
1.60556e-05
-5.76822e-05
3.32603e-05
-5.71637e-05
5.00774e-05
-5.50764e-05
6.60724e-05
-5.13579e-05
8.06767e-05
-4.60166e-05
9.35865e-05
-3.91683e-05
0.000104319
-3.08733e-05
0.000112477
-2.12713e-05
0.000117834
-1.06582e-05
0.00012006
9.88915e-07
0.000118956
1.30303e-05
0.000114521
2.51639e-05
0.000106851
3.69517e-05
9.6079e-05
4.80713e-05
8.26025e-05
5.7901e-05
6.68529e-05
6.61001e-05
4.88502e-05
7.41769e-05
2.64294e-05
8.99246e-05
0.000100245
-2.82383e-05
0.000126659
-5.17909e-05
0.000110019
-7.06506e-05
8.96869e-05
-8.71386e-05
7.95628e-05
-0.000101123
6.91985e-05
-0.000112103
5.68056e-05
-0.000119847
4.29799e-05
-0.000124132
2.83619e-05
-0.000124952
1.3426e-05
-0.000122204
-1.52939e-06
-0.000116313
-1.55796e-05
-0.000107503
-2.85476e-05
-9.60824e-05
-4.02032e-05
-8.24366e-05
-5.02355e-05
-6.70232e-05
-5.85227e-05
-5.03935e-05
-6.48675e-05
-3.29169e-05
-6.93116e-05
-1.50774e-05
-7.1819e-05
2.71838e-06
-7.25074e-05
2.00598e-05
-7.14565e-05
3.65213e-05
-6.87743e-05
5.18808e-05
-6.47934e-05
6.58409e-05
-5.96328e-05
7.81375e-05
-5.34335e-05
8.85522e-05
-4.64655e-05
9.70228e-05
-3.89243e-05
0.000103398
-3.10231e-05
0.00010767
-2.29357e-05
0.000109785
-1.48358e-05
0.000109769
-6.85714e-06
0.000107614
9.52152e-07
0.000103508
8.29683e-06
9.74275e-05
1.52664e-05
8.94951e-05
2.17899e-05
7.98324e-05
2.77925e-05
6.86197e-05
3.31821e-05
5.60872e-05
3.78542e-05
4.2475e-05
4.17237e-05
2.80445e-05
4.47443e-05
1.30727e-05
4.68639e-05
-2.16595e-06
4.80517e-05
-1.73879e-05
4.82743e-05
-3.22871e-05
4.74614e-05
-4.65736e-05
4.55944e-05
-5.99292e-05
4.26139e-05
-7.207e-05
3.85604e-05
-8.27055e-05
3.34338e-05
-9.15903e-05
2.7291e-05
-9.84942e-05
2.02052e-05
-0.000103267
1.23124e-05
-0.000105727
3.60602e-06
-0.000105683
-5.81087e-06
-0.000103127
-1.54463e-05
-9.80162e-05
-2.52405e-05
-9.04273e-05
-3.48031e-05
-8.04587e-05
-4.39958e-05
-6.82745e-05
-5.25169e-05
-5.41265e-05
-6.0064e-05
-3.8316e-05
-6.64254e-05
-2.11452e-05
-7.14252e-05
-2.98151e-06
-7.48123e-05
1.57843e-05
-7.6447e-05
3.46e-05
-7.59788e-05
5.30908e-05
-7.35678e-05
7.07404e-05
-6.90095e-05
8.70359e-05
-6.23139e-05
0.000101441
-5.35733e-05
0.000113491
-4.292e-05
0.000122756
-3.05316e-05
0.000128851
-1.67509e-05
0.00013166
-1.82217e-06
0.000130697
1.39888e-05
0.00012603
2.98263e-05
0.000117693
4.52834e-05
0.00010591
5.98505e-05
9.10037e-05
7.28096e-05
7.35016e-05
8.3605e-05
5.35773e-05
9.40978e-05
2.88874e-05
0.000114616
0.000129129
-3.14597e-05
0.000158119
-5.79171e-05
0.000136474
-7.92816e-05
0.00011105
-9.78716e-05
9.81555e-05
-0.000113646
8.4976e-05
-0.000125934
6.90925e-05
-0.000134463
5.15037e-05
-0.000138964
3.28633e-05
-0.00013949
1.39582e-05
-0.000136127
-4.90155e-06
-0.000129147
-2.25542e-05
-0.000118884
-3.88144e-05
-0.00010579
-5.32672e-05
-9.04066e-05
-6.5611e-05
-7.31591e-05
-7.57816e-05
-5.46071e-05
-8.34233e-05
-3.52624e-05
-8.86602e-05
-1.55312e-05
-9.15517e-05
4.0183e-06
-9.20521e-05
2.29012e-05
-9.03381e-05
4.07799e-05
-8.66609e-05
5.73348e-05
-8.1359e-05
7.22312e-05
-7.45357e-05
8.52755e-05
-6.64798e-05
9.62705e-05
-5.74598e-05
0.000105073
-4.77247e-05
0.000111619
-3.75673e-05
0.000115886
-2.72039e-05
0.000117869
-1.68245e-05
0.000117605
-6.59788e-06
0.000115075
3.47955e-06
0.000110543
1.28299e-05
0.000103973
2.18388e-05
9.5452e-05
3.03103e-05
8.5121e-05
3.81203e-05
7.31894e-05
4.51102e-05
5.9864e-05
5.11784e-05
4.54169e-05
5.61728e-05
3.01131e-05
6.00522e-05
1.42322e-05
6.27491e-05
-1.97299e-06
6.42602e-05
-1.82106e-05
6.45141e-05
-3.41876e-05
6.34399e-05
-4.95685e-05
6.09767e-05
-6.40307e-05
5.70775e-05
-7.72687e-05
5.17995e-05
-8.89677e-05
4.51333e-05
-9.88402e-05
3.7163e-05
-0.00010662
2.79836e-05
-0.000112112
1.78026e-05
-0.000115142
6.63302e-06
-0.000115476
-5.47956e-06
-0.000113019
-1.79056e-05
-0.000107814
-3.04475e-05
-9.97885e-05
-4.28312e-05
-8.91487e-05
-5.46375e-05
-7.60753e-05
-6.55916e-05
-6.07389e-05
-7.54007e-05
-4.35298e-05
-8.36332e-05
-2.47264e-05
-9.0226e-05
-4.79352e-06
-9.47423e-05
1.58857e-05
-9.71245e-05
3.68829e-05
-9.69764e-05
5.74288e-05
-9.4116e-05
7.7201e-05
-8.87843e-05
9.55479e-05
-8.06615e-05
0.000111854
-6.98766e-05
0.00012563
-5.66917e-05
0.000136412
-4.13089e-05
0.000143681
-2.40206e-05
0.000147064
-5.20932e-06
0.000146346
1.4703e-05
0.000141387
3.47818e-05
0.000132162
5.45053e-05
0.000118987
7.30268e-05
0.000102214
8.95892e-05
8.24181e-05
0.000103397
5.98743e-05
0.00011664
3.21819e-05
0.000142307
0.000161308
-3.56856e-05
0.000193803
-6.58603e-05
0.000166646
-9.02944e-05
0.000135485
-0.000111675
0.000119538
-0.000129566
0.000102868
-0.000143446
8.29714e-05
-0.000152874
6.09266e-05
-0.000157698
3.76819e-05
-0.000157915
1.41846e-05
-0.000153521
-9.2922e-06
-0.000145121
-3.09376e-05
-0.000133146
-5.08066e-05
-0.000117953
-6.84696e-05
-0.000100147
-8.34205e-05
-8.04677e-05
-9.54656e-05
-5.94315e-05
-0.000104459
-3.76255e-05
-0.000110463
-1.56909e-05
-0.00011348
5.90999e-06
-0.000113647
2.68829e-05
-0.000111312
4.65133e-05
-0.000106296
6.45456e-05
-9.93919e-05
8.07118e-05
-9.06969e-05
9.47165e-05
-8.04798e-05
0.000106356
-6.90984e-05
0.000115558
-5.69288e-05
0.000122245
-4.42566e-05
0.000126484
-3.14442e-05
0.000128281
-1.86226e-05
0.000127704
-6.02111e-06
0.000124801
6.38487e-06
0.000119745
1.78878e-05
0.000112546
2.90371e-05
0.000103341
3.95115e-05
9.22237e-05
4.92336e-05
7.93499e-05
5.79815e-05
6.49819e-05
6.55475e-05
4.93632e-05
7.17956e-05
3.28219e-05
7.65986e-05
1.56491e-05
7.99262e-05
-1.89367e-06
8.1806e-05
-1.95191e-05
8.21418e-05
-3.68968e-05
8.08199e-05
-5.37034e-05
7.77858e-05
-6.95818e-05
7.29581e-05
-8.41932e-05
6.64123e-05
-9.72185e-05
5.81584e-05
-0.000108319
4.82622e-05
-0.000117209
3.68697e-05
-0.000123615
2.42056e-05
-0.000127408
1.04236e-05
-0.000128165
-4.72547e-06
-0.00012588
-2.01928e-05
-0.000120441
-3.58884e-05
-0.000111971
-5.13031e-05
-0.000100496
-6.61152e-05
-8.62139e-05
-7.98751e-05
-6.9452e-05
-9.21625e-05
-5.04583e-05
-0.000102625
-2.96329e-05
-0.000111048
-7.33479e-06
-0.000117038
1.57489e-05
-0.000120207
3.9202e-05
-0.000120431
6.25576e-05
-0.000117474
8.49731e-05
-0.000111201
0.00010593
-0.000101617
0.000124747
-8.869e-05
0.000140805
-7.27462e-05
0.000153459
-5.39614e-05
0.000162201
-3.27655e-05
0.0001666
-9.61221e-06
0.000166155
1.51461e-05
0.000160771
4.01661e-05
0.000150597
6.46818e-05
0.000135673
8.79561e-05
0.000116514
0.000108747
9.38755e-05
0.000126029
6.7979e-05
0.000142537
3.64181e-05
0.000173865
0.00019773
-4.10146e-05
0.000234815
-7.58682e-05
0.0002015
-0.000104311
0.00016393
-0.000128959
0.000144186
-0.00014961
0.000123517
-0.000165375
9.87374e-05
-0.000175895
7.14492e-05
-0.000180903
4.26904e-05
-0.000180458
1.37383e-05
-0.000174989
-1.47725e-05
-0.000164724
-4.12028e-05
-0.000150355
-6.51691e-05
-0.000132515
-8.63206e-05
-0.000111857
-0.000104083
-8.91369e-05
-0.000118172
-6.49676e-05
-0.000128621
-4.01289e-05
-0.000135307
-1.53115e-05
-0.000138301
9.05162e-06
-0.000138008
3.22008e-05
-0.000134459
5.40001e-05
-0.000128092
7.39107e-05
-0.000119295
9.15259e-05
-0.000108305
0.000106646
-9.5599e-05
0.000119095
-8.15517e-05
0.000128731
-6.65696e-05
0.000135595
-5.11223e-05
0.000139756
-3.5603e-05
0.000141283
-2.0148e-05
0.000140298
-5.03504e-06
0.000136934
9.74856e-06
0.000131259
2.35616e-05
0.000123376
3.69167e-05
0.000113317
4.95674e-05
0.000101204
6.13442e-05
8.71693e-05
7.2016e-05
7.1445e-05
8.12745e-05
5.43392e-05
8.89055e-05
3.61977e-05
9.47441e-05
1.73718e-05
9.87552e-05
-1.84844e-06
0.000101029
-2.12224e-05
0.000101518
-4.0403e-05
0.000100004
-5.90247e-05
9.64108e-05
-7.66913e-05
9.06273e-05
-9.30244e-05
8.2746e-05
-0.000107668
7.28007e-05
-0.00012027
6.08614e-05
-0.000130528
4.71235e-05
-0.000138156
3.18302e-05
-0.000142737
1.50032e-05
-0.00014414
-3.32448e-06
-0.000142066
-2.22672e-05
-0.000136464
-4.14923e-05
-0.000127335
-6.04341e-05
-0.000114823
-7.86295e-05
-9.90716e-05
-9.56274e-05
-8.04856e-05
-0.000110748
-5.93298e-05
-0.000123778
-3.61052e-05
-0.000134269
-1.12645e-05
-0.000141876
1.49232e-05
-0.000146394
4.15923e-05
-0.000147101
6.81534e-05
-0.000144036
9.40286e-05
-0.000137076
0.000118287
-0.000125873
0.000140294
-0.000110695
0.000159194
-9.16454e-05
0.000174293
-6.90633e-05
0.000184965
-4.34409e-05
0.00019066
-1.53083e-05
0.000190694
1.5114e-05
0.000185113
4.5749e-05
0.000173671
7.61243e-05
0.000156594
0.000105033
0.000134521
0.000130811
0.000108175
0.000152372
7.82339e-05
0.00017248
4.18473e-05
0.000210254
0.000239582
-4.78175e-05
0.000282631
-8.8564e-05
0.00024225
-0.00012172
0.00019709
-0.00015063
0.000173097
-0.000174545
0.000147431
-0.00019257
0.00011676
-0.000204231
8.3108e-05
-0.000209443
4.79021e-05
-0.00020825
1.25445e-05
-0.000200966
-2.20576e-05
-0.000188367
-5.38196e-05
-0.000171044
-8.24686e-05
-0.000149779
-0.000107575
-0.000125424
-0.000128454
-9.87916e-05
-0.000144813
-7.09539e-05
-0.000156464
-4.25608e-05
-0.000163707
-1.42265e-05
-0.000166637
1.32875e-05
-0.000165522
3.9382e-05
-0.000160556
6.36803e-05
-0.000152394
8.56665e-05
-0.000141284
0.000105109
-0.000127751
0.000121545
-0.00011204
0.000134877
-9.48889e-05
0.00014497
-7.66633e-05
0.000151943
-5.80921e-05
0.000155895
-3.95515e-05
0.000157057
-2.13089e-05
0.000155565
-3.54373e-06
0.000151574
1.3738e-05
0.000145242
2.98917e-05
0.000136597
4.55598e-05
0.000125586
6.05775e-05
0.000112255
7.46747e-05
9.67803e-05
8.74924e-05
7.93613e-05
9.86964e-05
6.03751e-05
0.000107895
4.02754e-05
0.000114846
1.9487e-05
0.000119546
-1.8205e-06
0.000122339
-2.33276e-05
0.000123029
-4.47172e-05
0.000121397
-6.55354e-05
0.000117233
-8.5406e-05
0.0001105
-0.000103839
0.000101178
-0.000120466
8.94254e-05
-0.000134922
7.5314e-05
-0.000146788
5.89855e-05
-0.00015583
4.08694e-05
-0.000161701
2.0873e-05
-0.00016381
-1.21518e-06
-0.000162007
-2.40706e-05
-0.000156221
-4.72789e-05
-0.000146339
-7.03173e-05
-0.000132535
-9.24338e-05
-0.000115134
-0.000113028
-9.43055e-05
-0.000131574
-7.05938e-05
-0.000147486
-4.43372e-05
-0.000160522
-1.60631e-05
-0.000170147
1.34863e-05
-0.000175943
4.39234e-05
-0.000177538
7.45706e-05
-0.000174683
0.000104387
-0.000166892
0.000132751
-0.000154237
0.000158604
-0.000136549
0.00018114
-0.000114186
0.000199464
-8.73921e-05
0.00021277
-5.67501e-05
0.000220092
-2.26291e-05
0.000221022
1.41853e-05
0.000215105
5.16654e-05
0.0002022
8.90267e-05
0.000182618
0.000124608
0.000156914
0.00015651
0.000126261
0.000183033
9.10583e-05
0.000207685
4.86133e-05
0.000252707
0.000288193
-5.63952e-05
0.000339027
-0.000104427
0.000290288
-0.000143731
0.000236398
-0.000177508
0.000206873
-0.000205278
0.000175198
-0.000225985
0.000137461
-0.000238928
9.60424e-05
-0.00024411
5.30871e-05
-0.000241742
1.01789e-05
-0.00023221
-3.15739e-05
-0.000216493
-6.95557e-05
-0.000195289
-0.00010369
-0.0001698
-0.000133066
-0.000140944
-0.000157311
-0.000109752
-0.000176004
-7.725e-05
-0.000188968
-4.43387e-05
-0.000196619
-1.19925e-05
-0.000198979
1.92157e-05
-0.000196728
4.8678e-05
-0.000190022
7.59678e-05
-0.00017969
0.000100582
-0.000165902
0.000121945
-0.000149117
0.000139936
-0.000130034
0.000154166
-0.000109118
0.000164661
-8.71547e-05
0.000171622
-6.50477e-05
0.000175206
-4.31311e-05
0.000175826
-2.19287e-05
0.000173655
-1.37427e-06
0.000168981
1.84105e-05
0.000161987
3.6885e-05
0.000152493
5.50552e-05
0.000140417
7.26549e-05
0.000125742
8.9352e-05
0.000108494
0.000104741
8.8993e-05
0.0001182
6.76458e-05
0.000129243
4.5083e-05
0.00013741
2.18503e-05
0.00014278
-1.82955e-06
0.000146021
-2.58864e-05
0.000147089
-4.99475e-05
0.000145462
-7.34828e-05
0.000140771
-9.5958e-05
0.000132976
-0.000116952
0.000122171
-0.000135953
0.000108423
-0.000152613
9.19699e-05
-0.000166534
7.29039e-05
-0.00017735
5.16835e-05
-0.000184443
2.79654e-05
-0.000187679
2.0217e-06
-0.00018631
-2.54385e-05
-0.00018031
-5.32777e-05
-0.000169635
-8.09918e-05
-0.000154405
-0.000107663
-0.000134858
-0.000132574
-0.000111495
-0.000154935
-8.46945e-05
-0.000174285
-5.50382e-05
-0.000190178
-2.31026e-05
-0.000202083
1.08009e-05
-0.000209847
4.59374e-05
-0.000212674
8.1396e-05
-0.00021014
0.000116305
-0.000201801
0.000149594
-0.000187529
0.000180359
-0.00016732
0.00020742
-0.000141253
0.000229643
-0.000109618
0.000246005
-7.31124e-05
0.000255726
-3.23496e-05
0.000257924
1.19856e-05
0.000251894
5.76898e-05
0.000237394
0.000103522
0.000214802
0.000147196
0.000184674
0.000186647
0.000148453
0.00021926
0.000107108
0.000249033
5.7122e-05
0.000302694
0.000345312
-6.7249e-05
0.000406281
-0.000124493
0.000347535
-0.000170838
0.000282742
-0.000210805
0.000246832
-0.000243259
0.000207647
-0.000266926
0.000161131
-0.000281321
0.000110435
-0.000286242
5.80091e-05
-0.000281972
5.90097e-06
-0.000269502
-4.40513e-05
-0.00024964
-8.94119e-05
-0.000223851
-0.000129484
-0.000192964
-0.000163968
-0.000158426
-0.000191847
-0.000121569
-0.000212856
-8.34783e-05
-0.000227058
-4.55578e-05
-0.000234538
-8.41512e-06
-0.000236118
2.69193e-05
-0.000232063
6.05043e-05
-0.000223612
9.13622e-05
-0.00021055
0.00011897
-0.000193509
0.000142848
-0.000172992
0.000162496
-0.000149679
0.000177627
-0.000124245
0.000188399
-9.79212e-05
0.000195013
-7.16583e-05
0.000198019
-4.61364e-05
0.000197857
-2.17685e-05
0.000194879
1.60288e-06
0.000189426
2.3864e-05
0.000181779
4.45346e-05
0.000171588
6.52502e-05
0.000158444
8.58021e-05
0.000142178
0.00010562
0.000122835
0.000124085
0.000100676
0.000140359
7.6327e-05
0.000153592
5.0658e-05
0.00016308
2.45335e-05
0.000168905
-2.01231e-06
0.000172569
-2.90849e-05
0.000174165
-5.63148e-05
0.000172695
-8.31118e-05
0.000167571
-0.000108798
0.000158663
-0.000132733
0.000146105
-0.000154545
0.000130232
-0.000173802
0.000111224
-0.000190118
8.92178e-05
-0.000202909
6.4474e-05
-0.000211961
3.70182e-05
-0.000216539
6.60193e-06
-0.000215758
-2.62165e-05
-0.000209581
-5.94541e-05
-0.000197981
-9.25916e-05
-0.000181006
-0.000124638
-0.000158963
-0.000154617
-0.000132488
-0.00018141
-0.000102177
-0.000204597
-6.8575e-05
-0.00022378
-3.21503e-05
-0.000238509
6.67318e-06
-0.00024867
4.71714e-05
-0.000253171
8.839e-05
-0.000251357
0.000129238
-0.00024265
0.000168676
-0.000226971
0.000205356
-0.000204007
0.000237962
-0.000173863
0.000265323
-0.00013698
0.000285945
-9.37348e-05
0.000298864
-4.52705e-05
0.000302786
8.0597e-06
0.000296783
6.36894e-05
0.000280708
0.000119596
0.000254415
0.000173495
0.000218885
0.000222188
0.000176052
0.000262092
0.000126892
0.000298194
6.771e-05
0.00036187
0.000413027
-8.10754e-05
0.00048736
-0.000149533
0.000415988
-0.000204896
0.000338098
-0.000252085
0.000294012
-0.000290121
0.000245683
-0.000317226
0.000188249
-0.00033277
0.000125983
-0.000337013
6.22488e-05
-0.000330222
-8.95362e-07
-0.00031373
-6.05597e-05
-0.000288762
-0.000114383
-0.000256732
-0.000161509
-0.000219327
-0.000201378
-0.000177877
-0.0002333
-0.000134156
-0.000256585
-8.94662e-05
-0.000271759
-4.53065e-05
-0.000278707
-2.68566e-06
-0.000278746
3.7738e-05
-0.000272494
7.56032e-05
-0.000261482
0.000110487
-0.000245434
0.000141895
-0.000224913
0.000168697
-0.00019979
0.000190224
-0.000171204
0.00020629
-0.00014031
0.000217109
-0.00010874
0.000223033
-7.75829e-05
0.000224892
-4.79979e-05
0.000223533
-2.04115e-05
0.000219382
5.75424e-06
0.000213318
2.99311e-05
0.000205254
5.26025e-05
0.000194525
7.59838e-05
0.000180481
9.98488e-05
0.000162559
0.000123543
0.000140658
0.000145986
0.000115138
0.000165878
8.68175e-05
0.000181913
5.71844e-05
0.000192713
2.7442e-05
0.000198649
-2.48562e-06
0.000202498
-3.31724e-05
0.000204854
-6.43362e-05
0.000203862
-9.51074e-05
0.000198343
-0.000124561
0.000188117
-0.000151995
0.000173537
-0.000176901
0.000155136
-0.000199006
0.000133327
-0.000218176
0.000108387
-0.000233683
7.99823e-05
-0.000244743
4.80805e-05
-0.000251201
1.30618e-05
-0.000251262
-2.6155e-05
-0.000245041
-6.56744e-05
-0.000232343
-0.000105289
-0.000213235
-0.000143746
-0.000188271
-0.000179582
-0.000158119
-0.000211563
-0.000123563
-0.000239154
-8.53509e-05
-0.000261995
-4.38124e-05
-0.000280048
5.42739e-07
-0.000293024
4.73025e-05
-0.000299928
9.52682e-05
-0.000299322
0.000143474
-0.000290858
0.000190193
-0.000273694
0.000234082
-0.000247899
0.000273646
-0.000213427
0.000307282
-0.000170615
0.000333493
-0.000119946
0.00035062
-6.24018e-05
0.000357231
1.44419e-06
0.000351877
6.90436e-05
0.000333862
0.000137615
0.00030325
0.000204115
0.000261266
0.00026417
0.000210111
0.000313239
0.000151677
0.000356624
8.09274e-05
0.000432622
0.000493959
-9.84601e-05
0.00058582
-0.000181184
0.000498703
-0.000247304
0.000404221
-0.000303427
0.000350141
-0.000347932
0.000290189
-0.000378902
0.00021922
-0.000395626
0.000142701
-0.000398464
6.51004e-05
-0.000387766
-1.15977e-05
-0.000366199
-8.21238e-05
-0.0003346
-0.000145984
-0.000295072
-0.000201048
-0.000249289
-0.000247165
-0.000199331
-0.000283258
-0.000147055
-0.000308867
-9.44274e-05
-0.000324393
-4.30545e-05
-0.000330083
5.8863e-06
-0.000327689
5.19434e-05
-0.000318554
9.48777e-05
-0.000304417
0.000135041
-0.000285595
0.000171106
-0.000260974
0.000201748
-0.000230432
0.000225682
-0.000195141
0.000242798
-0.000157429
0.000253336
-0.000119282
0.000258004
-8.22538e-05
0.000257948
-4.79446e-05
0.000254701
-1.71658e-05
0.000248866
1.1591e-05
0.00024211
3.66903e-05
0.000233788
6.09283e-05
0.000222872
8.69032e-05
0.000208193
0.000114529
0.000188592
0.000143144
0.000163706
0.000170872
0.00013399
0.000195593
0.000100649
0.000215252
6.57469e-05
0.000227615
3.10718e-05
0.000233324
-3.54728e-06
0.000237118
-3.90175e-05
0.000240326
-7.50763e-05
0.000239922
-0.000110678
0.000233945
-0.000144574
0.000222014
-0.000175816
0.000204778
-0.000204058
0.000183377
-0.000229459
0.000158728
-0.000251894
0.000130823
-0.000270811
9.89009e-05
-0.0002852
6.24709e-05
-0.000293598
2.14617e-05
-0.000295247
-2.45038e-05
-0.000289134
-7.17863e-05
-0.00027515
-0.000119273
-0.000253373
-0.000165523
-0.000224424
-0.000208531
-0.000189537
-0.000246452
-0.000149867
-0.000278826
-0.000106482
-0.000305381
-5.91416e-05
-0.000327388
-8.51145e-06
-0.000343651
4.55572e-05
-0.000353994
0.000101727
-0.000355491
0.000158409
-0.000347543
0.000214
-0.000329288
0.000266678
-0.000300577
0.000314788
-0.000261536
0.000356435
-0.000212263
0.000389729
-0.000153246
0.000412513
-8.51929e-05
0.000423136
-9.18033e-06
0.000419188
7.29935e-05
0.000399488
0.000157318
0.00036376
0.000239842
0.00031345
0.000314468
0.000252162
0.000374528
0.000182325
0.000426465
9.73788e-05
0.000517581
0.000591335
-0.000119865
0.00070568
-0.000219914
0.000598746
-0.000298191
0.00048251
-0.000365215
0.000417178
-0.000417883
0.000342857
-0.000453366
0.000254709
-0.000471004
0.000160328
-0.000471359
6.54683e-05
-0.000455634
-2.73352e-05
-0.000427137
-0.000110628
-0.000387083
-0.000186033
-0.000337761
-0.000250374
-0.000281644
-0.000303283
-0.000221004
-0.0003439
-0.000158175
-0.000371702
-9.578e-05
-0.000386791
-3.57902e-05
-0.000390071
2.00631e-05
-0.00038354
7.22469e-05
-0.000370736
0.000121442
-0.00035361
0.000168215
-0.000332366
0.000210917
-0.000303676
0.000247184
-0.000266702
0.00027472
-0.000222682
0.000293184
-0.000175896
0.000303034
-0.000129135
0.000305406
-8.4628e-05
0.000302109
-4.46497e-05
0.000295426
-1.04823e-05
0.000287892
1.91269e-05
0.00027965
4.49355e-05
0.000270558
7.00225e-05
0.000260112
9.73509e-05
0.000245344
0.000129298
0.00022417
0.000164318
0.000195728
0.000199314
0.000160614
0.000230707
0.000120704
0.000255162
7.86629e-05
0.000269656
3.65946e-05
0.000275392
-5.26887e-06
0.000278981
-4.77863e-05
0.000282843
-9.06806e-05
0.000282816
-0.000132521
0.000275786
-0.000171722
0.000261214
-0.00020709
0.000240147
-0.000238687
0.000214974
-0.000267609
0.000187652
-0.000294442
0.000157658
-0.000318144
0.000122605
-0.000337241
8.1569e-05
-0.000349888
3.41103e-05
-0.000353467
-2.09237e-05
-0.000347667
-7.75853e-05
-0.000332112
-0.000134828
-0.000306739
-0.000190896
-0.000272318
-0.000242952
-0.000230904
-0.000287866
-0.00018475
-0.000324982
-0.000134739
-0.000355393
-8.12495e-05
-0.000380876
-2.35651e-05
-0.000401333
3.91257e-05
-0.000416683
0.000105126
-0.000421492
0.000172419
-0.000414837
0.000238726
-0.000395595
0.00030213
-0.000363979
0.000360599
-0.000320005
0.000412462
-0.000264131
0.000454962
-0.000195752
0.00048566
-0.000115893
0.000502311
-2.58273e-05
0.000500733
7.45746e-05
0.000479639
0.000178409
0.000437551
0.00028192
0.00037624
0.000375778
0.00030178
0.000448997
0.00021896
0.000509293
0.000117453
0.000619082
0.000708782
-0.000144388
0.000850072
-0.000265154
0.000719512
-0.000359155
0.00057651
-0.000438549
0.000496576
-0.000499466
0.000403783
-0.000539175
0.000294421
-0.000557093
0.000178244
-0.000553399
6.17723e-05
-0.000532142
-4.85849e-05
-0.000494333
-0.000148437
-0.000443284
-0.000237091
-0.000381886
-0.000311776
-0.000312767
-0.000372398
-0.000238656
-0.000418011
-0.000162513
-0.000447845
-8.78141e-05
-0.000461486
-1.78642e-05
-0.000460016
4.47992e-05
-0.0004462
0.000102261
-0.000428196
0.000158171
-0.000409517
0.000213449
-0.000387641
0.000265363
-0.00035559
0.000309219
-0.000310559
0.000340704
-0.000254169
0.00035942
-0.000194612
0.000366493
-0.000136208
0.000363847
-8.19823e-05
0.000355189
-3.59927e-05
0.000344626
8.06748e-08
0.000334746
2.90078e-05
0.000326856
5.28264e-05
0.000320051
7.68279e-05
0.000312105
0.000105298
0.000299061
0.000142342
0.000277039
0.000186341
0.000244421
0.000231933
0.000201948
0.000273181
0.000152621
0.000304489
0.000100049
0.000322227
4.64284e-05
0.000329011
-7.46368e-06
0.000332871
-6.14554e-05
0.000336833
-0.000114279
0.000335639
-0.000164286
0.000325792
-0.000209961
0.00030689
-0.000250079
0.000280267
-0.000285284
0.000250181
-0.000318245
0.000220615
-0.000350533
0.000189948
-0.000380868
0.00015294
-0.000405899
0.0001066
-0.00042281
5.10203e-05
-0.000430177
-1.35575e-05
-0.00042584
-8.19229e-05
-0.000409171
-0.000151497
-0.000379648
-0.000220419
-0.000337646
-0.000284954
-0.000287269
-0.000338243
-0.000232711
-0.000379539
-0.000175752