/*--------------------------------*- C++ -*----------------------------------*\
| =========                 |                                                 |
| \\      /  F ield         | OpenFOAM: The Open Source CFD Toolbox           |
|  \\    /   O peration     | Version:  2412                                  |
|   \\  /    A nd           | Website:  www.openfoam.com                      |
|    \\/     M anipulation  |                                                 |
\*---------------------------------------------------------------------------*/
FoamFile
{
    version     2.0;
    format      ascii;
    arch        "LSB;label=32;scalar=64";
    class       surfaceScalarField;
    location    "3.4";
    object      alphaPhi0.honey;
}
// * * * * * * * * * * * * * * * * * * * * * * * * * * * * * * * * * * * * * //

dimensions      [0 3 -1 0 0 0 0];

oriented        oriented;

internalField   nonuniform List<scalar> 
12640
(
5.14572e-14
-5.14305e-14
4.18234e-14
3.66358e-14
-1.09619e-13
1.77529e-13
-3.97997e-13
3.12493e-13
-8.03351e-13
4.29591e-13
-1.30268e-12
5.23677e-13
-1.87358e-12
5.95618e-13
-2.49701e-12
6.48224e-13
-3.15283e-12
6.80926e-13
-3.8248e-12
6.96966e-13
-4.49834e-12
6.98577e-13
-5.16181e-12
6.88059e-13
-5.80447e-12
6.66921e-13
-6.41751e-12
6.36435e-13
-6.99177e-12
5.96891e-13
-7.52161e-12
5.51149e-13
-8.00078e-12
4.9926e-13
-8.42537e-12
4.42944e-13
-8.79055e-12
3.81881e-13
-9.09303e-12
3.17034e-13
-9.32831e-12
2.47793e-13
-9.49511e-12
1.76819e-13
-9.59075e-12
1.0326e-13
-9.61412e-12
2.82076e-14
-9.56321e-12
-4.87508e-14
-9.43825e-12
-1.25812e-13
-9.2385e-12
-2.03469e-13
-8.96518e-12
-2.8015e-13
-8.61916e-12
-3.55813e-13
-8.20334e-12
-4.28694e-13
-7.72041e-12
-4.98701e-13
-7.17471e-12
-5.64402e-13
-6.57045e-12
-6.25648e-13
-5.91318e-12
-6.81274e-13
-5.20834e-12
-7.31195e-13
-4.46234e-12
-7.74522e-13
-3.68185e-12
-8.10892e-13
-2.8745e-12
-8.39386e-13
-2.04833e-12
-8.59515e-13
-1.21176e-12
-8.70913e-13
-3.73292e-13
-8.73488e-13
4.58921e-13
-8.67543e-13
1.27668e-12
-8.53107e-13
2.07249e-12
-8.3075e-13
2.83852e-12
-8.003e-13
3.56788e-12
-7.62505e-13
4.25322e-12
-7.17166e-13
4.8888e-12
-6.656e-13
5.46864e-12
-6.07909e-13
5.98892e-12
-5.45918e-13
6.44527e-12
-4.79498e-13
6.83546e-12
-4.10363e-13
7.15624e-12
-3.38027e-13
7.40695e-12
-2.64559e-13
7.586e-12
-1.89651e-13
7.69465e-12
-1.15559e-13
7.73251e-12
-4.13386e-14
7.70169e-12
3.11872e-14
7.60252e-12
1.03009e-13
7.43878e-12
1.71461e-13
7.21277e-12
2.37122e-13
6.92968e-12
2.97971e-13
6.59171e-12
3.56069e-13
6.20346e-12
4.09896e-13
5.76796e-12
4.60089e-13
5.29259e-12
5.03222e-13
4.78332e-12
5.39717e-13
4.24856e-12
5.68082e-13
3.69426e-12
5.89822e-13
3.13012e-12
6.02127e-13
2.56621e-12
6.03675e-13
2.01722e-12
5.90749e-13
1.4976e-12
5.62754e-13
1.02428e-12
5.18006e-13
6.12688e-13
4.57262e-13
2.81986e-13
3.77506e-13
5.16446e-14
2.77815e-13
-6.58498e-14
1.65749e-13
-6.90937e-14
5.19729e-14
-2.26776e-14
-1.27195e-14
-1.22784e-14
-2.33904e-13
3.0791e-13
-7.6292e-13
7.54922e-13
-1.59682e-12
1.19364e-12
-2.70057e-12
1.58078e-12
-4.0303e-12
1.9017e-12
-5.53728e-12
2.15106e-12
-7.17244e-12
2.33243e-12
-8.89294e-12
2.45019e-12
-1.06569e-11
2.50973e-12
-1.2428e-11
2.51756e-12
-1.41725e-11
2.47967e-12
-1.58636e-11
2.40324e-12
-1.74773e-11
2.29378e-12
-1.89926e-11
2.15287e-12
-2.03891e-11
1.98581e-12
-2.16533e-11
1.79784e-12
-2.27701e-11
1.59058e-12
-2.37299e-11
1.36782e-12
-2.45209e-11
1.12964e-12
-2.51353e-11
8.78396e-13
-2.55643e-11
6.16786e-13
-2.58044e-11
3.48248e-13
-2.58498e-11
7.25337e-14
-2.56986e-11
-2.07623e-13
-2.53479e-11
-4.90484e-13
-2.47995e-11
-7.72588e-13
-2.40546e-11
-1.05234e-12
-2.31184e-11
-1.32602e-12
-2.19962e-11
-1.59133e-12
-2.06971e-11
-1.84458e-12
-1.92306e-11
-2.08359e-12
-1.76095e-11
-2.30513e-12
-1.58469e-11
-2.50736e-12
-1.39586e-11
-2.6877e-12
-1.1961e-11
-2.84432e-12
-9.87307e-12
-2.97462e-12
-7.71447e-12
-3.07652e-12
-5.50651e-12
-3.14811e-12
-3.27104e-12
-3.18835e-12
-1.02996e-12
-3.1971e-12
1.19474e-12
-3.17462e-12
3.3822e-12
-3.12191e-12
5.51126e-12
-3.03948e-12
7.56257e-12
-2.92867e-12
9.5162e-12
-2.79005e-12
1.13551e-11
-2.62587e-12
1.30619e-11
-2.43776e-12
1.46236e-11
-2.2295e-12
1.60267e-11
-2.00328e-12
1.72624e-11
-1.76293e-12
1.83209e-11
-1.50992e-12
1.91973e-11
-1.24817e-12
1.98859e-11
-9.7964e-13
2.03867e-11
-7.09033e-13
2.0698e-11
-4.37803e-13
2.08231e-11
-1.69267e-13
2.07626e-11
9.63767e-14
2.05234e-11
3.55208e-13
2.01097e-11
6.05379e-13
1.95324e-11
8.42541e-13
1.87981e-11
1.0671e-12
1.79187e-11
1.27777e-12
1.69022e-11
1.47484e-12
1.5764e-11
1.65338e-12
1.45175e-11
1.81011e-12
1.31823e-11
1.94115e-12
1.17746e-11
2.04651e-12
1.03173e-11
2.12288e-12
8.83314e-12
2.1654e-12
7.35374e-12
2.16626e-12
5.91034e-12
2.1199e-12
4.54034e-12
2.02161e-12
3.28047e-12
1.86844e-12
2.17311e-12
1.65735e-12
1.25993e-12
1.38428e-12
5.78335e-13
1.05419e-12
1.54258e-13
6.8479e-13
-6.03424e-15
3.05428e-13
1.41092e-14
-1.36132e-13
1.49742e-13
-6.46901e-13
8.66328e-13
-1.58801e-12
1.7423e-12
-2.9478e-12
2.59819e-12
-4.67773e-12
3.35611e-12
-6.7224e-12
3.9919e-12
-9.01779e-12
4.49261e-12
-1.14951e-11
4.85576e-12
-1.40927e-11
5.09406e-12
-1.67544e-11
5.21703e-12
-1.9425e-11
5.23339e-12
-2.20579e-11
5.1564e-12
-2.4608e-11
4.99596e-12
-2.70416e-11
4.76783e-12
-2.93263e-11
4.47599e-12
-3.14354e-11
4.13026e-12
-3.33427e-11
3.73759e-12
-3.50283e-11
3.30481e-12
-3.6473e-11
2.83733e-12
-3.76633e-11
2.34033e-12
-3.85844e-11
1.8154e-12
-3.92258e-11
1.26884e-12
-3.95767e-11
7.04797e-13
-3.96321e-11
1.2801e-13
-3.93864e-11
-4.588e-13
-3.88388e-11
-1.0494e-12
-3.79889e-11
-1.63956e-12
-3.68414e-11
-2.22288e-12
-3.54017e-11
-2.79455e-12
-3.36801e-11
-3.34747e-12
-3.16882e-11
-3.87641e-12
-2.94423e-11
-4.37477e-12
-2.69597e-11
-4.83781e-12
-2.4262e-11
-5.25979e-12
-2.1372e-11
-5.63641e-12
-1.83162e-11
-5.96245e-12
-1.51227e-11
-6.23351e-12
-1.18221e-11
-6.44501e-12
-8.44623e-12
-6.59364e-12
-5.02811e-12
-6.6774e-12
-1.60106e-12
-6.69566e-12
1.8022e-12
-6.6493e-12
5.14894e-12
-6.53935e-12
8.40808e-12
-6.3679e-12
1.15484e-11
-6.1363e-12
1.45416e-11
-5.84776e-12
1.73596e-11
-5.50515e-12
1.99788e-11
-5.11433e-12
2.23764e-11
-4.68013e-12
2.45349e-11
-4.20974e-12
2.64369e-11
-3.70765e-12
2.8071e-11
-3.18083e-12
2.94261e-11
-2.63399e-12
3.04977e-11
-2.07546e-12
3.12813e-11
-1.51031e-12
3.17786e-11
-9.45714e-13
3.19895e-11
-3.84119e-13
3.19206e-11
1.68643e-13
3.15769e-11
7.08965e-13
3.09706e-11
1.22894e-12
3.01115e-11
1.72538e-12
2.90151e-11
2.19426e-12
2.76939e-11
2.63569e-12
2.61676e-11
3.04448e-12
2.44545e-11
3.41538e-12
2.25793e-11
3.74008e-12
2.05653e-11
4.01474e-12
1.84425e-11
4.23409e-12
1.6242e-11
4.39208e-12
1.40029e-11
4.47762e-12
1.17664e-11
4.47902e-12
9.58074e-12
4.3853e-12
7.49544e-12
4.1889e-12
5.56609e-12
3.88251e-12
3.85182e-12
3.45778e-12
2.40716e-12
2.91702e-12
1.27783e-12
2.27225e-12
5.09271e-13
1.54332e-12
1.0598e-13
7.96308e-13
1.60379e-13
-2.65557e-13
4.3947e-13
-1.07421e-12
1.72107e-12
-2.42942e-12
3.14202e-12
-4.29258e-12
4.50498e-12
-6.60069e-12
5.7078e-12
-9.28263e-12
6.71814e-12
-1.22637e-11
7.51788e-12
-1.54641e-11
8.10073e-12
-1.88066e-11
8.48059e-12
-2.22203e-11
8.67466e-12
-2.56412e-11
8.69719e-12
-2.90097e-11
8.56689e-12
-3.22732e-11
8.29966e-12
-3.5383e-11
7.91609e-12
-3.83023e-11
7.43102e-12
-4.09954e-11
6.85664e-12
-4.34326e-11
6.20446e-12
-4.55842e-11
5.48288e-12
-4.74282e-11
4.7035e-12
-4.89433e-11
3.87352e-12
-5.01142e-11
2.99968e-12
-5.09242e-11
2.08739e-12
-5.1362e-11
1.14594e-12
-5.14173e-11
1.81473e-13
-5.10862e-11
-7.97362e-13
-5.03648e-11
-1.78379e-12
-4.92551e-11
-2.76793e-12
-4.77604e-11
-3.74189e-12
-4.589e-11
-4.69482e-12
-4.36549e-11
-5.61781e-12
-4.1072e-11
-6.49993e-12
-3.81598e-11
-7.33249e-12
-3.49424e-11
-8.1054e-12
-3.1446e-11
-8.81058e-12
-2.77017e-11
-9.43902e-12
-2.37427e-11
-9.98309e-12
-1.96061e-11
-1.04346e-11
-1.5331e-11
-1.07869e-11
-1.09587e-11
-1.10345e-11
-6.53142e-12
-1.11743e-11
-2.09176e-12
-1.12055e-11
2.31752e-12
-1.11287e-11
6.65497e-12
-1.09463e-11
1.0879e-11
-1.06601e-11
1.49506e-11
-1.02742e-11
1.88314e-11
-9.79231e-12
2.24874e-11
-9.22185e-12
2.58858e-11
-8.56999e-12
2.90001e-11
-7.8474e-12
3.18042e-11
-7.06242e-12
3.42791e-11
-6.22605e-12
3.64066e-11
-5.34648e-12
3.81763e-11
-4.43605e-12
3.95787e-11
-3.50429e-12
4.06121e-11
-2.56371e-12
4.12738e-11
-1.62122e-12
4.15687e-11
-6.86024e-13
4.15005e-11
2.36296e-13
4.10811e-11
1.13477e-12
4.03209e-11
2.00197e-12
3.92373e-11
2.82877e-12
3.7845e-11
3.61248e-12
3.61662e-11
4.3472e-12
3.42214e-11
5.02765e-12
3.20387e-11
5.64291e-12
2.9644e-11
6.18464e-12
2.70714e-11
6.64306e-12
2.43559e-11
7.0097e-12
2.15409e-11
7.27222e-12
1.8671e-11
7.41628e-12
1.57988e-11
7.42416e-12
1.29808e-11
7.2789e-12
1.02803e-11
6.96827e-12
7.76522e-12
6.47841e-12
5.5061e-12
5.80014e-12
3.56467e-12
4.94268e-12
2.00533e-12
3.91742e-12
8.80722e-13
2.75411e-12
2.1668e-13
1.54526e-12
4.16368e-13
-3.83296e-13
8.46919e-13
-1.47341e-12
2.85625e-12
-3.22386e-12
4.93686e-12
-5.56221e-12
6.88612e-12
-8.40798e-12
8.59695e-12
-1.16726e-11
1.0026e-11
-1.52655e-11
1.11545e-11
-1.9101e-11
1.19794e-11
-2.30897e-11
1.25126e-11
-2.71492e-11
1.27765e-11
-3.12057e-11
1.27954e-11
-3.51927e-11
1.25939e-11
-3.90513e-11
1.21969e-11
-4.27266e-11
1.16277e-11
-4.61719e-11
1.09102e-11
-4.93487e-11
1.00642e-11
-5.22202e-11
9.10365e-12
-5.47561e-11
8.04255e-12
-5.69263e-11
6.89373e-12
-5.87083e-11
5.67086e-12
-6.008e-11
4.38237e-12
-6.10256e-11
3.03894e-12
-6.15284e-11
1.64974e-12
-6.15789e-11
2.27462e-13
-6.11681e-11
-1.21786e-12
-6.02944e-11
-2.67279e-12
-5.8957e-11
-4.12602e-12
-5.71625e-11
-5.56266e-12
-5.49191e-11
-6.96986e-12
-5.2242e-11
-8.33191e-12
-4.91485e-11
-9.63544e-12
-4.56627e-11
-1.08651e-11
-4.18113e-11
-1.20079e-11
-3.76274e-11
-1.30499e-11
-3.31465e-11
-1.39789e-11
-2.84095e-11
-1.47823e-11
-2.346e-11
-1.54491e-11
-1.83452e-11
-1.59689e-11
-1.31141e-11
-1.63345e-11
-7.81688e-12
-1.65415e-11
-2.50464e-12
-1.65883e-11
2.7722e-12
-1.64761e-11
7.96281e-12
-1.62068e-11
1.30185e-11
-1.57846e-11
1.78909e-11
-1.52137e-11
2.25361e-11
-1.45023e-11
2.69113e-11
-1.36591e-11
3.09803e-11
-1.26978e-11
3.47084e-11
-1.16305e-11
3.80681e-11
-1.04729e-11
4.10332e-11
-9.23742e-12
4.35863e-11
-7.94071e-12
4.57113e-11
-6.5969e-12
4.74014e-11
-5.22448e-12
4.865e-11
-3.8365e-12
4.94587e-11
-2.44786e-12
4.98285e-11
-1.0676e-12
4.97695e-11
2.90254e-13
4.92909e-11
1.61467e-12
4.84103e-11
2.89069e-12
4.71433e-11
4.11037e-12
4.55128e-11
5.26442e-12
4.35404e-11
6.34721e-12
4.12552e-11
7.34708e-12
3.86848e-11
8.25345e-12
3.58635e-11
9.05223e-12
3.28271e-11
9.73097e-12
2.96199e-11
1.02741e-11
2.6288e-11
1.06656e-11
2.2885e-11
1.08858e-11
1.9468e-11
1.09109e-11
1.61032e-11
1.07175e-11
1.28631e-11
1.02847e-11
9.82593e-12
9.59501e-12
7.06698e-12
8.64003e-12
4.66468e-12
7.42817e-12
2.69593e-12
5.96991e-12
1.22347e-12
4.31172e-12
3.17199e-13
2.53431e-12
7.7228e-13
-4.85417e-13
1.3562e-12
-1.83503e-12
4.25071e-12
-3.95189e-12
7.09719e-12
-6.73594e-12
9.7128e-12
-1.00832e-11
1.19865e-11
-1.38861e-11
1.38716e-11
-1.80387e-11
1.53494e-11
-2.24427e-11
1.64257e-11
-2.70028e-11
1.71143e-11
-3.16268e-11
1.74416e-11
-3.62339e-11
1.74421e-11
-4.0749e-11
1.71476e-11
-4.51105e-11
1.65947e-11
-4.92599e-11
1.58114e-11
-5.31473e-11
1.48289e-11
-5.67264e-11
1.36719e-11
-5.99594e-11
1.23615e-11
-6.28106e-11
1.09151e-11
-6.5251e-11
9.35113e-12
-6.72511e-11
7.68377e-12
-6.8789e-11
5.92829e-12
-6.98428e-11
4.09611e-12
-7.03973e-11
2.20236e-12
-7.04372e-11
2.60434e-13
-6.99553e-11
-1.71206e-12
-6.89457e-11
-3.69999e-12
-6.74104e-11
-5.6843e-12
-6.53531e-11
-7.64815e-12
-6.27856e-11
-9.57085e-12
-5.97219e-11
-1.14341e-11
-5.6184e-11
-1.32167e-11
-5.21969e-11
-1.49e-11
-4.7793e-11
-1.6464e-11
-4.30078e-11
-1.7891e-11
-3.78836e-11
-1.91626e-11
-3.24659e-11
-2.02625e-11
-2.68057e-11
-2.11745e-11
-2.09561e-11
-2.18857e-11
-1.49733e-11
-2.23861e-11
-8.91485e-12
-2.26698e-11
-2.8386e-12
-2.2735e-11
3.19664e-12
-2.25818e-11
9.13345e-12
-2.22136e-11
1.49143e-11
-2.16344e-11
2.04854e-11
-2.08523e-11
2.57944e-11
-1.98767e-11
3.07954e-11
-1.8723e-11
3.54442e-11
-1.74066e-11
3.97048e-11
-1.59477e-11
4.35426e-11
-1.43635e-11
4.69323e-11
-1.26756e-11
4.98502e-11
-1.09026e-11
5.22832e-11
-9.06879e-12
5.42189e-11
-7.19397e-12
5.56549e-11
-5.30062e-12
5.65883e-11
-3.40368e-12
5.70261e-11
-1.52163e-12
5.69751e-11
3.3115e-13
5.64517e-11
2.13445e-12
5.5471e-11
3.87416e-12
5.40561e-11
5.5349e-12
5.22281e-11
7.10828e-12
5.00166e-11
8.58153e-12
4.7449e-11
9.94363e-12
4.45599e-11
1.11782e-11
4.13836e-11
1.22699e-11
3.79629e-11
1.31994e-11
3.43417e-11
1.39479e-11
3.05718e-11
1.44937e-11
2.67095e-11
1.48106e-11
2.28194e-11
1.48683e-11
1.89723e-11
1.4635e-11
1.52497e-11
1.40816e-11
1.17351e-11
1.3186e-11
8.51436e-12
1.19401e-11
5.68244e-12
1.03405e-11
3.32497e-12
8.40973e-12
1.53354e-12
6.1857e-12
4.06122e-13
3.7432e-12
1.2157e-12
-5.75164e-13
1.95532e-12
-2.15819e-12
5.87716e-12
-4.61763e-12
9.5997e-12
-7.82032e-12
1.29568e-11
-1.16392e-11
1.5847e-11
-1.5945e-11
1.82186e-11
-2.06185e-11
2.00642e-11
-2.55441e-11
2.13917e-11
-3.06184e-11
2.22287e-11
-3.57438e-11
2.26057e-11
-4.08328e-11
2.25689e-11
-4.58079e-11
2.21585e-11
-5.05998e-11
2.14206e-11
-5.51517e-11
2.03946e-11
-5.94098e-11
1.91159e-11
-6.33276e-11
1.76151e-11
-6.68617e-11
1.59176e-11
-6.99773e-11
1.40488e-11
-7.26406e-11
1.20286e-11
-7.48238e-11
9.87647e-12
-7.64983e-11
7.60792e-12
-7.7643e-11
5.24104e-12
-7.82368e-11
2.79152e-12
-7.82662e-11
2.8011e-13
-7.77188e-11
-2.27426e-12
-7.65907e-11
-4.84811e-12
-7.48796e-11
-7.42041e-12
-7.25923e-11
-9.9656e-12
-6.97379e-11
-1.24604e-11
-6.63342e-11
-1.48775e-11
-6.24026e-11
-1.71926e-11
-5.79728e-11
-1.93785e-11
-5.3078e-11
-2.14113e-11
-4.77596e-11
-2.32656e-11
-4.20629e-11
-2.49188e-11
-3.60398e-11
-2.63477e-11
-2.97461e-11
-2.75328e-11
-2.32415e-11
-2.84568e-11
-1.65882e-11
-2.91073e-11
-9.85025e-12
-2.94768e-11
-3.09299e-12
-2.95618e-11
3.61843e-12
-2.93628e-11
1.02182e-11
-2.88826e-11
1.66435e-11
-2.8128e-11
2.28323e-11
-2.71081e-11
2.87289e-11
-2.58385e-11
3.42795e-11
-2.43366e-11
3.94388e-11
-2.26264e-11
4.41638e-11
-2.073e-11
4.84205e-11
-1.86743e-11
5.21773e-11
-1.64827e-11
5.54134e-11
-1.41848e-11
5.81098e-11
-1.18069e-11
6.02586e-11
-9.37965e-12
6.18522e-11
-6.92603e-12
6.28935e-11
-4.47143e-12
6.33859e-11
-2.03482e-12
6.33435e-11
3.58732e-13
6.27798e-11
2.68932e-12
6.17175e-11
4.93416e-12
6.01769e-11
7.07932e-12
5.81873e-11
9.10866e-12
5.57753e-11
1.10105e-11
5.29752e-11
1.27677e-11
4.98194e-11
1.4364e-11
4.63485e-11
1.57776e-11
4.26035e-11
1.69868e-11
3.8632e-11
1.7968e-11
3.44848e-11
1.86944e-11
3.02233e-11
1.9131e-11
2.59151e-11
1.92393e-11
2.16361e-11
1.89815e-11
1.74722e-11
1.83157e-11
1.35125e-11
1.72195e-11
9.86054e-12
1.56678e-11
6.62049e-12
1.36589e-11
3.89948e-12
1.12097e-11
1.81444e-12
8.35133e-12
4.85341e-13
5.15035e-12
1.73735e-12
-6.53639e-13
2.63229e-12
-2.45184e-12
7.71815e-12
-5.23546e-12
1.24248e-11
-8.83911e-12
1.6601e-11
-1.31071e-11
2.01548e-11
-1.78929e-11
2.30445e-11
-2.3057e-11
2.52673e-11
-2.84702e-11
2.68437e-11
-3.40166e-11
2.78125e-11
-3.95937e-11
2.82195e-11
-4.51094e-11
2.81194e-11
-5.04853e-11
2.75677e-11
-5.56508e-11
2.66169e-11
-6.05457e-11
2.53179e-11
-6.51178e-11
2.37133e-11
-6.93186e-11
2.18381e-11
-7.3107e-11
1.97245e-11
-7.64438e-11
1.74004e-11
-7.92963e-11
1.48917e-11
-8.16315e-11
1.2218e-11
-8.34224e-11
9.40053e-12
-8.46416e-11
6.45752e-12
-8.52697e-11
3.41195e-12
-8.52872e-11
2.85259e-13
-8.46834e-11
-2.89539e-12
-8.34488e-11
-6.10485e-12
-8.15835e-11
-9.31263e-12
-7.90903e-11
-1.24905e-11
-7.59816e-11
-1.56054e-11
-7.22729e-11
-1.86268e-11
-6.79896e-11
-2.15208e-11
-6.31606e-11
-2.42563e-11
-5.78242e-11
-2.68001e-11
-5.20232e-11
-2.91223e-11
-4.58086e-11
-3.1192e-11
-3.92359e-11
-3.29816e-11
-3.23667e-11
-3.44653e-11
-2.5266e-11
-3.56226e-11
-1.8002e-11
-3.64377e-11
-1.06455e-11
-3.69007e-11
-3.26822e-12
-3.7007e-11
4.05688e-12
-3.67558e-11
1.12584e-11
-3.61517e-11
1.82654e-11
-3.52018e-11
2.50122e-11
-3.39205e-11
3.14351e-11
-3.23256e-11
3.74791e-11
-3.04429e-11
4.30919e-11
-2.82991e-11
4.82306e-11
-2.59262e-11
5.28551e-11
-2.33532e-11
5.69362e-11
-2.0615e-11
6.04474e-11
-1.77436e-11
6.3374e-11
-1.47772e-11
6.57028e-11
-1.17478e-11
6.7432e-11
-8.69007e-12
6.85604e-11
-5.62991e-12
6.9099e-11
-2.59824e-12
6.90587e-11
3.79593e-13
6.84611e-11
3.27341e-12
6.73254e-11
6.06203e-12
6.56804e-11
8.72303e-12
6.35521e-11
1.12418e-11
6.09745e-11
1.35997e-11
5.79786e-11
1.57813e-11
5.46026e-11
1.77647e-11
5.08838e-11
1.95271e-11
4.6866e-11
2.1042e-11
4.25938e-11
2.22831e-11
3.81208e-11
2.32164e-11
3.35078e-11
2.37976e-11
2.88251e-11
2.3981e-11
2.41526e-11
2.37166e-11
1.95766e-11
2.29586e-11
1.51999e-11
2.16656e-11
1.11347e-11
1.98059e-11
7.50365e-12
1.7364e-11
4.4355e-12
1.43543e-11
2.07259e-12
1.07909e-11
5.53441e-13
6.74526e-12
2.32506e-12
-7.27026e-13
3.38245e-12
-2.72814e-12
9.76002e-12
-5.82684e-12
1.55641e-11
-9.82341e-12
2.06361e-11
-1.45332e-11
2.49033e-11
-1.97849e-11
2.83337e-11
-2.54192e-11
3.09389e-11
-3.12924e-11
3.27528e-11
-3.7277e-11
3.38323e-11
-4.32648e-11
3.42407e-11
-4.91617e-11
3.40484e-11
-5.48881e-11
3.33238e-11
-6.03751e-11
3.21316e-11
-6.5564e-11
3.05314e-11
-7.04011e-11
2.85724e-11
-7.48411e-11
2.62965e-11
-7.88416e-11
2.374e-11
-8.23658e-11
2.09356e-11
-8.53763e-11
1.79093e-11
-8.78418e-11
1.46863e-11
-8.97299e-11
1.12873e-11
-9.10151e-11
7.73687e-12
-9.16713e-11
4.05781e-12
-9.16804e-11
2.79418e-13
-9.10251e-11
-3.57012e-12
-8.96978e-11
-7.45603e-12
-8.76935e-11
-1.13453e-11
-8.50176e-11
-1.51991e-11
-8.16785e-11
-1.89813e-11
-7.76953e-11
-2.26508e-11
-7.3091e-11
-2.61697e-11
-6.78988e-11
-2.94966e-11
-6.21569e-11
-3.25934e-11
-5.59131e-11
-3.54205e-11
-4.92205e-11
-3.79416e-11
-4.21401e-11
-4.01213e-11
-3.47374e-11
-4.19293e-11
-2.70833e-11
-4.33395e-11
-1.92522e-11
-4.43329e-11
-1.13209e-11
-4.48968e-11
-3.36876e-12
-4.50244e-11
4.52532e-12
-4.47153e-11
1.22819e-11
-4.39733e-11
1.98257e-11
-4.281e-11
2.70831e-11
-4.12413e-11
3.39887e-11
-3.92933e-11
4.048e-11
-3.69947e-11
4.65049e-11
-3.43824e-11
5.20137e-11
-3.14913e-11
5.69687e-11
-2.83619e-11
6.13347e-11
-2.50319e-11
6.50893e-11
-2.15462e-11
6.82127e-11
-1.79451e-11
7.06975e-11
-1.42736e-11
7.25375e-11
-1.05671e-11
7.37394e-11
-6.86453e-12
7.43106e-11
-3.19757e-12
7.42705e-11
3.96446e-13
7.36372e-11
3.88858e-12
7.24387e-11
7.24816e-12
7.07004e-11
1.04547e-11
6.84563e-11
1.34854e-11
6.57374e-11
1.63243e-11
6.25807e-11
1.89504e-11
5.90207e-11
2.13432e-11
5.50972e-11
2.34758e-11
5.0849e-11
2.53214e-11
4.63217e-11
2.68481e-11
4.15668e-11
2.80142e-11
3.66441e-11
2.87692e-11
3.16234e-11
2.90549e-11
2.65851e-11
2.88132e-11
2.16215e-11
2.79838e-11
1.68448e-11
2.6508e-11
1.2378e-11
2.43404e-11
8.36116e-12
2.14518e-11
4.95466e-12
1.78326e-11
2.31672e-12
1.35026e-11
6.17992e-13
8.51511e-12
2.976e-12
-7.98402e-13
4.20297e-12
-3.00533e-12
1.20068e-11
-6.41877e-12
1.90162e-11
-1.08144e-11
2.50693e-11
-1.59698e-11
3.0095e-11
-2.16844e-11
3.40844e-11
-2.77753e-11
3.70643e-11
-3.40863e-11
3.90977e-11
-4.04789e-11
4.0257e-11
-4.68407e-11
4.06333e-11
-5.30775e-11
4.03138e-11
-5.911e-11
3.9383e-11
-6.48726e-11
3.79181e-11
-7.03083e-11
3.59886e-11
-7.53681e-11
3.36502e-11
-8.00064e-11
3.09499e-11
-8.41845e-11
2.79293e-11
-8.7863e-11
2.46219e-11
-9.10075e-11
2.10575e-11
-9.35818e-11
1.72604e-11
-9.55556e-11
1.32567e-11
-9.68969e-11
9.06967e-12
-9.75806e-11
4.72879e-12
-9.75813e-11
2.63328e-13
-9.68832e-11
-4.28926e-12
-9.54723e-11
-8.89208e-12
-9.33455e-11
-1.35011e-11
-9.05032e-11
-1.80745e-11
-8.69565e-11
-2.25646e-11
-8.27209e-11
-2.69268e-11
-7.78228e-11
-3.11115e-11
-7.22938e-11
-3.50724e-11
-6.61765e-11
-3.87606e-11
-5.95188e-11
-4.21306e-11
-5.2379e-11
-4.51362e-11
-4.48207e-11
-4.77365e-11
-3.69151e-11
-4.98935e-11
-2.87381e-11
-5.15765e-11
-2.03705e-11
-5.27616e-11
-1.18962e-11
-5.34328e-11
-3.40076e-12
-5.3582e-11
5.0288e-12
-5.3207e-11
1.3308e-11
-5.23144e-11
2.13535e-11
-5.09168e-11
2.90889e-11
-4.90372e-11
3.64413e-11
-4.67048e-11
4.33477e-11
-4.39589e-11
4.97487e-11
-4.08395e-11
5.55966e-11
-3.73934e-11
6.0847e-11
-3.36644e-11
6.54691e-11
-2.97037e-11
6.94352e-11
-2.55593e-11
7.27315e-11
-2.12858e-11
7.53461e-11
-1.69294e-11
7.72807e-11
-1.25396e-11
7.8538e-11
-8.15617e-12
7.91345e-11
-3.82438e-12
7.90859e-11
4.18859e-13
7.84196e-11
4.53352e-12
7.71603e-11
8.49094e-12
7.53426e-11
1.22613e-11
7.29977e-11
1.58247e-11
7.01634e-11
1.91592e-11
6.68729e-11
2.22473e-11
6.31647e-11
2.50645e-11
5.9073e-11
2.75865e-11
5.46363e-11
2.97838e-11
4.98959e-11
3.16198e-11
4.49014e-11
3.30465e-11
3.97077e-11
3.40054e-11
3.43819e-11
3.4429e-11
2.90035e-11
3.42438e-11
2.36703e-11
3.33742e-11
1.85026e-11
3.17357e-11
1.36356e-11
2.92714e-11
9.23389e-12
2.59191e-11
5.47857e-12
2.16564e-11
2.56242e-12
1.64875e-11
6.81195e-13
1.04646e-11
3.68769e-12
-8.74056e-13
5.0988e-12
-3.29939e-12
1.44698e-11
-7.0493e-12
2.28038e-11
-1.18615e-11
2.99169e-11
-1.74786e-11
3.57473e-11
-2.36606e-11
4.03e-11
-3.02032e-11
4.36397e-11
-3.69313e-11
4.58565e-11
-4.37034e-11
4.70588e-11
-5.04029e-11
4.73603e-11
-5.69375e-11
4.68744e-11
-6.32319e-11
4.57006e-11
-6.92242e-11
4.39313e-11
-7.48626e-11
4.16448e-11
-8.01016e-11
3.89042e-11
-8.49014e-11
3.57611e-11
-8.92222e-11
3.22584e-11
-9.30285e-11
2.84326e-11
-9.62822e-11
2.43121e-11
-9.895e-11
1.99251e-11
-1.00996e-10
1.52956e-11
-1.02388e-10
1.04519e-11
-1.03096e-10
5.42183e-12
-1.03093e-10
2.42522e-13
-1.02357e-10
-5.04754e-12
-1.00874e-10
-1.04002e-11
-9.86358e-11
-1.57684e-11
-9.56445e-11
-2.10982e-11
-9.19066e-11
-2.63384e-11
-8.74403e-11
-3.1432e-11
-8.22688e-11
-3.6325e-11
-7.64272e-11
-4.09589e-11
-6.99564e-11
-4.52789e-11
-6.2909e-11
-4.92278e-11
-5.53442e-11
-5.27531e-11
-4.73309e-11
-5.58037e-11
-3.89442e-11
-5.83357e-11
-3.02663e-11
-6.03111e-11
-2.13844e-11
-6.17014e-11
-1.2389e-11
-6.24867e-11
-3.37375e-12
-6.26561e-11
5.56852e-12
-6.22082e-11
1.43451e-11
-6.11495e-11
2.28686e-11
-5.94984e-11
3.10551e-11
-5.72808e-11
3.88298e-11
-5.45356e-11
4.61224e-11
-5.13061e-11
5.28742e-11
-4.76444e-11
5.90307e-11
-4.36012e-11
6.45513e-11
-3.92345e-11
6.93997e-11
-3.45994e-11
7.35546e-11
-2.97594e-11
7.69977e-11
-2.47716e-11
7.9725e-11
-1.9697e-11
8.1734e-11
-1.45861e-11
8.30368e-11
-9.49345e-12
8.36457e-11
-4.46445e-12
8.3586e-11
4.50867e-13
8.2882e-11
5.21386e-12
8.15689e-11
9.78481e-12
7.9679e-11
1.41365e-11
7.72523e-11
1.82421e-11
7.43227e-11
2.20847e-11
7.09286e-11
2.56432e-11
6.7103e-11
2.88976e-11
6.28812e-11
3.18222e-11
5.82958e-11
3.43888e-11
5.33852e-11
3.65564e-11
4.81925e-11
3.82705e-11
4.27668e-11
3.94686e-11
3.71698e-11
4.0068e-11
3.14779e-11
3.99832e-11
2.57938e-11
3.91093e-11
2.02378e-11
3.73473e-11
1.49677e-11
3.45996e-11
1.01646e-11
3.07841e-11
6.04029e-12
2.58436e-11
2.82314e-12
1.977e-11
7.4904e-13
1.26015e-11
4.46582e-12
-9.57025e-13
6.07651e-12
-3.63297e-12
1.71828e-11
-7.76039e-12
2.69671e-11
-1.30318e-11
3.52231e-11
-1.91355e-11
4.18842e-11
-2.57988e-11
4.69959e-11
-3.27874e-11
5.06587e-11
-3.99135e-11
5.30117e-11
-4.70305e-11
5.42026e-11
-5.40266e-11
5.43818e-11
-6.08124e-11
5.36829e-11
-6.73199e-11
5.22288e-11
-7.34942e-11
5.01233e-11
-7.92893e-11
4.7455e-11
-8.46663e-11
4.4293e-11
-8.95883e-11
4.06919e-11
-9.40205e-11
3.66958e-11
-9.79251e-11
3.23392e-11
-1.01268e-10
2.76531e-11
-1.0401e-10
2.26625e-11
-1.06118e-10
1.73953e-11
-1.07554e-10
1.18762e-11
-1.08286e-10
6.13859e-12
-1.08281e-10
2.18271e-13
-1.07514e-10
-5.83603e-12
-1.05966e-10
-1.19732e-11
-1.0363e-10
-1.81328e-11
-1.00502e-10
-2.42575e-11
-9.65908e-11
-3.02833e-11
-9.19106e-11
-3.61492e-11
-8.64869e-11
-4.17884e-11
-8.03513e-11
-4.71369e-11
-7.35484e-11
-5.21266e-11
-6.61297e-11
-5.66935e-11
-5.81592e-11
-6.07728e-11
-4.97082e-11
-6.43058e-11
-4.08577e-11
-6.72388e-11
-3.16955e-11
-6.95273e-11
-2.23155e-11
-7.11363e-11
-1.28161e-11
-7.20418e-11
-3.29731e-12
-7.22308e-11
6.13936e-12
-7.17008e-11
1.53961e-11
-7.0462e-11
2.43775e-11
-6.85347e-11
3.29965e-11
-6.59539e-11
4.11705e-11
-6.27625e-11
4.88287e-11
-5.90158e-11
5.59051e-11
-5.47706e-11
6.2348e-11
-5.00923e-11
6.81112e-11
-4.50438e-11
7.31645e-11
-3.96971e-11
7.74824e-11
-3.41195e-11
8.10548e-11
-2.83842e-11
8.38737e-11
-2.25538e-11
8.59458e-11
-1.6694e-11
8.7279e-11
-1.08598e-11
8.78953e-11
-5.11135e-12
8.78166e-11
5.01996e-13
8.70779e-11
5.92818e-12
8.57128e-11
1.11291e-11
8.37644e-11
1.60683e-11
8.12695e-11
2.07246e-11
7.8269e-11
2.50778e-11
7.47967e-11
2.91131e-11
7.08883e-11
3.28093e-11
6.65732e-11
3.61458e-11
6.18828e-11
3.9094e-11
5.68471e-11
4.16122e-11
5.15006e-11
4.36432e-11
4.58867e-11
4.51137e-11
4.00556e-11
4.59361e-11
3.40837e-11
4.59963e-11
2.8066e-11
4.51734e-11
2.21307e-11
4.33322e-11
1.64423e-11
4.03419e-11
1.12104e-11
3.6072e-11
6.67693e-12
3.04364e-11
3.12308e-12
2.33837e-11
8.23149e-13
1.49611e-11
5.31541e-12
-1.06007e-12
7.15715e-12
-4.03747e-12
2.01951e-11
-8.61569e-12
3.15809e-11
-1.44091e-11
4.10494e-11
-2.10444e-11
4.85523e-11
-2.82012e-11
5.41835e-11
-3.56252e-11
5.81121e-11
-4.31184e-11
6.05318e-11
-5.0539e-11
6.16486e-11
-5.77795e-11
6.16449e-11
-6.47619e-11
6.06861e-11
-7.14273e-11
5.8912e-11
-7.77306e-11
5.64422e-11
-8.36343e-11
5.3371e-11
-8.91047e-11
4.97731e-11
-9.4111e-11
4.57044e-11
-9.86187e-11
4.12069e-11
-1.02594e-10
3.63149e-11
-1.06e-10
3.10558e-11
-1.08801e-10
2.54573e-11
-1.10957e-10
1.95424e-11
-1.12433e-10
1.33389e-11
-1.13185e-10
6.87553e-12
-1.1318e-10
1.95194e-13
-1.12385e-10
-6.65193e-12
-1.10781e-10
-1.36006e-11
-1.08355e-10
-2.05856e-11
-1.05105e-10
-2.75358e-11
-1.01036e-10
-3.43844e-11
-9.61619e-11
-4.10576e-11
-9.05037e-11
-4.74837e-11
-8.40952e-11
-5.35849e-11
-7.69779e-11
-5.92859e-11
-6.92074e-11
-6.45084e-11
-6.08477e-11
-6.9179e-11
-5.19756e-11
-7.32263e-11
-4.26764e-11
-7.65883e-11
-3.30444e-11
-7.9211e-11
-2.31806e-11
-8.10529e-11
-1.31907e-11
-8.20853e-11
-3.1833e-12
-8.22922e-11
6.734e-12
-8.16722e-11
1.64546e-11
-8.02363e-11
2.58788e-11
-7.8012e-11
3.4911e-11
-7.5038e-11
4.34668e-11
-7.13689e-11
5.14673e-11
-6.70651e-11
5.88482e-11
-6.21986e-11
6.55515e-11
-5.68406e-11
7.15366e-11
-5.1072e-11
7.67694e-11
-4.49706e-11
8.12325e-11
-3.86215e-11
8.49121e-11
-3.21005e-11
8.781e-11
-2.54864e-11
8.99289e-11
-1.88455e-11
9.12866e-11
-1.22482e-11
9.19006e-11
-5.75389e-12
9.18038e-11
5.72635e-13
9.10292e-11
6.67914e-12
8.96228e-11
1.25148e-11
8.76255e-11
1.80479e-11
8.5083e-11
2.32532e-11
8.20322e-11
2.81186e-11
7.85127e-11
3.26273e-11
7.45553e-11
3.67659e-11
7.01892e-11
4.05166e-11
6.54384e-11
4.38544e-11
6.0327e-11
4.67391e-11
5.48785e-11
4.91122e-11
4.91254e-11
5.08931e-11
4.31106e-11
5.19816e-11
3.68973e-11
5.22459e-11
3.0575e-11
5.15359e-11
2.42669e-11
4.96854e-11
1.81493e-11
4.65075e-11
1.2446e-11
4.18273e-11
7.449e-12
3.54869e-11
3.49018e-12
2.73988e-11
9.18047e-13
1.7587e-11
6.25843e-12
-1.19938e-12
8.37628e-12
-4.57508e-12
2.3605e-11
-9.71178e-12
3.67516e-11
-1.61179e-11
4.74878e-11
-2.33326e-11
5.5798e-11
-3.09926e-11
6.18737e-11
-3.8823e-11
6.59703e-11
-4.6636e-11
6.83707e-11
-5.42976e-11
6.93334e-11
-6.17177e-11
6.90862e-11
-6.88302e-11
6.7817e-11
-7.55908e-11
6.56888e-11
-8.1965e-11
6.28296e-11
-8.7924e-11
5.93407e-11
-9.34414e-11
5.5298e-11
-9.84888e-11
5.07566e-11
-1.03037e-10
4.57567e-11
-1.07051e-10
4.03275e-11
-1.10495e-10
3.44965e-11
-1.13332e-10
2.82871e-11
-1.15523e-10
2.17244e-11
-1.17025e-10
1.48287e-11
-1.17795e-10
7.63088e-12
-1.17787e-10
1.7054e-13
-1.16968e-10
-7.49008e-12
-1.15311e-10
-1.5279e-11
-1.12807e-10
-2.31143e-11
-1.09447e-10
-3.09216e-11
-1.05239e-10
-3.86222e-11
-1.00188e-10
-4.61393e-11
-9.43183e-11
-5.33879e-11
-8.76568e-11
-6.02832e-11
-8.02476e-11
-6.67345e-11
-7.21441e-11
-7.26539e-11
-6.3415e-11
-7.79524e-11
-5.41391e-11
-8.25489e-11
-4.44081e-11
-8.6368e-11
-3.43221e-11
-8.93474e-11
-2.39897e-11
-9.14372e-11
-1.35247e-11
-9.26032e-11
-3.04303e-12
-9.28274e-11
7.33864e-12
-9.21074e-11
1.75081e-11
-9.0459e-11
2.73564e-11
-8.79125e-11
3.67845e-11
-8.45172e-11
4.56993e-11
-8.0333e-11
5.4022e-11
-7.54352e-11
6.16812e-11
-6.99027e-11
6.86237e-11
-6.38257e-11
7.48044e-11
-5.72927e-11
8.01972e-11
-5.04011e-11
8.47818e-11
-4.3241e-11
8.85543e-11
-3.5906e-11
9.15134e-11
-2.84762e-11
9.36728e-11
-2.10338e-11
9.50457e-11
-1.36481e-11
9.56595e-11
-6.39302e-12
9.55427e-11
6.65917e-13
9.47415e-11
7.45872e-12
9.33011e-11
1.39355e-11
9.12742e-11
2.00577e-11
8.87027e-11
2.58102e-11
8.56305e-11
3.11795e-11
8.20937e-11
3.61564e-11
7.81271e-11
4.07291e-11
7.37537e-11
4.48906e-11
6.89923e-11
4.86214e-11
6.38584e-11
5.18833e-11
5.83659e-11
5.46205e-11
5.25353e-11
5.67442e-11
4.6396e-11
5.81469e-11
3.99981e-11
5.8674e-11
3.34125e-11
5.81571e-11
2.67564e-11
5.63804e-11
2.01994e-11
5.31082e-11
1.39859e-11
4.8087e-11
8.44097e-12
4.10816e-11
3.97982e-12
3.19104e-11
1.0457e-12
2.05716e-11
7.32619e-12
-1.41661e-12
9.81283e-12
-5.34977e-12
2.75694e-11
-1.12109e-11
4.26468e-11
-1.83352e-11
5.46423e-11
-2.61705e-11
6.36631e-11
-3.43115e-11
7.0043e-11
-4.24943e-11
7.418e-11
-5.05468e-11
7.64473e-11
-5.83644e-11
7.71731e-11
-6.58769e-11
7.66179e-11
-7.30412e-11
7.49984e-11
-7.98255e-11
7.24872e-11
-8.62071e-11
6.92229e-11
-9.21653e-11
6.53076e-11
-9.76786e-11
6.08175e-11
-1.02724e-10
5.58052e-11
-1.07272e-10
5.03055e-11
-1.11291e-10
4.43441e-11
-1.14741e-10
3.79425e-11
-1.17587e-10
3.1127e-11
-1.19789e-10
2.39172e-11
-1.21304e-10
1.63324e-11
-1.22079e-10
8.39272e-12
-1.22066e-10
1.42095e-13
-1.21218e-10
-8.35434e-12
-1.19514e-10
-1.7003e-11
-1.16936e-10
-2.5713e-11
-1.13484e-10
-3.43979e-11
-1.09153e-10
-4.29794e-11
-1.03951e-10
-5.13695e-11
-9.78922e-11
-5.94782e-11
-9.10049e-11
-6.72048e-11
-8.33279e-11
-7.44486e-11
-7.49176e-11
-8.11041e-11
-6.58422e-11
-8.70707e-11
-5.61861e-11
-9.22505e-11
-4.60448e-11
-9.65573e-11
-3.55261e-11
-9.99163e-11
-2.47457e-11
-1.02269e-10
-1.38254e-11
-1.03577e-10
-2.89013e-12
-1.03817e-10
7.93641e-12
-1.02988e-10
1.85322e-11
-1.01109e-10
2.87834e-11
-9.82167e-11
3.85815e-11
-9.43666e-11
4.78317e-11
-8.96326e-11
5.64474e-11
-8.40977e-11
6.43604e-11
-7.78598e-11
7.15124e-11
-7.10186e-11
7.78658e-11
-6.3684e-11
8.33913e-11
-5.59611e-11
8.80787e-11
-4.79602e-11
9.19224e-11
-3.97785e-11
9.49337e-11
-3.1514e-11
9.71237e-11
-2.32482e-11
9.85161e-11
-1.50632e-11
9.9131e-11
-7.02898e-12
9.90062e-11
7.70866e-13
9.81864e-11
8.26e-12
9.67321e-11
1.53725e-11
9.46949e-11
2.20791e-11
9.21252e-11
2.83658e-11
8.90617e-11