/*--------------------------------*- C++ -*----------------------------------*\
| =========                 |                                                 |
| \\      /  F ield         | OpenFOAM: The Open Source CFD Toolbox           |
|  \\    /   O peration     | Version:  2412                                  |
|   \\  /    A nd           | Website:  www.openfoam.com                      |
|    \\/     M anipulation  |                                                 |
\*---------------------------------------------------------------------------*/
FoamFile
{
    version     2.0;
    format      ascii;
    arch        "LSB;label=32;scalar=64";
    class       volScalarField;
    location    "78";
    object      p;
}
// * * * * * * * * * * * * * * * * * * * * * * * * * * * * * * * * * * * * * //

dimensions      [1 -1 -2 0 0 0 0];

internalField   nonuniform List<scalar> 
6400
(
19724.1
19726
19819.2
20029.6
20339.6
20723.5
21156.6
21618.2
22091.4
22566.4
23029.1
23465.5
23863.6
24221.1
24533.4
24799.4
25015.9
25188.4
25308.4
25347.2
25306.3
25216.9
25101.6
24964.6
24751
24419.7
24022.6
23622.4
23200.9
22719.7
22187.8
21644.2
21096.4
20556.1
20006.5
19377.6
18748.9
18179.9
17589.7
17049.6
16622.3
16265.9
15919.5
15615.4
15409.7
15285.9
15223.8
15239.6
15344.6
15536
15806.6
16157.2
16581.3
17076.1
17627.7
18238.7
18898.8
19598.4
20313.8
21041.8
21761.6
22472.7
23158
23810.8
24406.4
24944
25410.6
25817.2
26143.1
26388.5
26538.3
26609.1
26596.9
26518.1
26376.1
26192.9
25984.5
25784.5
25625.4
25541.1
18502.5
18507.3
18591.1
18775
19044.1
19377.9
19759
20166.8
20587.4
21010
21425.7
21818.2
22180.3
22505.9
22797
23046.8
23255.6
23419.4
23529.9
23570.2
23548.9
23488.1
23404
23279.8
23079.8
22785.8
22443.1
22104.4
21759.8
21352.3
20878.7
20376.6
19868.5
19376.3
18915
18399.2
17834.4
17291.8
16791.6
16347.7
15966.5
15638.2
15351.6
15106.9
14920.2
14807
14765.4
14793.7
14902.1
15080.8
15333.9
15657.8
16052.1
16503.5
17007.7
17557.6
18155.2
18782.8
19434.9
20087
20741.3
21377.7
21997.7
22570.4
23104.2
23583.7
24017.1
24377.6
24679.4
24898.1
25047
25113.4
25117.6
25053.9
24944.5
24791.7
24621.2
24448.5
24305.9
24226.5
17163.5
17182.3
17269.2
17440.6
17680.8
17975.6
18311.1
18672
19044.4
19423.9
19797.1
20150.8
20476.6
20777.2
21051.1
21291.7
21489.4
21643.7
21739.4
21786.8
21796.9
21778.5
21710.8
21577.3
21396
21178.4
20909.6
20618
20308.2
19969.2
19576.6
19132.8
18673.8
18224.9
17804.5
17393.7
16938.5
16473.2
16070.2
15705.3
15339.8
15028.6
14815.6
14642.8
14472.2
14360.6
14333
14382.6
14487
14654.2
14888.6
15190.5
15544.4
15950.1
16398.9
16891.8
17417.5
17980.6
18560.1
19151
19729.6
20297.2
20833.5
21342.1
21808.9
22249.7
22633.1
22957.4
23215.9
23421.6
23554.8
23628.1
23634.8
23593.4
23503.1
23382.9
23238.2
23087
22941.8
22836.3
15699.3
15743.4
15847.1
16021.2
16252.9
16529
16840
17171.1
17514.1
17863.9
18209.2
18531.8
18837.5
19126.6
19391.6
19617.8
19805
19948.7
20047.2
20112.4
20154.7
20155.7
20090.5
19958.4
19801.9
19640.6
19460
19217.5
18913.2
18595.7
18276.7
17912.3
17515.3
17109.3
16705.4
16349.3
16021
15677.5
15360.1
15010.7
14626
14320.3
14146.5
14040.9
13925.5
13829.7
13808.9
13857.5
13964.4
14120.7
14337.6
14608.1
14933.7
15293.8
15699
16143.2
16633.7
17142.8
17669.4
18191.8
18709
19203.1
19692.3
20150.1
20577.5
20961.1
21310.8
21596
21833.8
22013.5
22142.9
22206.8
22221.2
22181.9
22105.5
21993.9
21861.6
21712.6
21551.2
21409.8
14130.9
14212.3
14345.6
14534.6
14770.3
15042.6
15342.6
15659.7
15985.8
16317.5
16640.4
16945.7
17245.6
17530.7
17781
17990.7
18170.7
18321.8
18440.4
18528.1
18579.3
18586.2
18533
18425.5
18290.8
18156.6
18024
17846.3
17583
17269.7
16977.7
16699.4
16394.3
16053
15676.3
15363.8
15111
14807.3
14493.8
14188
13880.7
13617.6
13446.8
13356.4
13286.4
13239.9
13232.7
13278.8
13380.3
13532.3
13726.2
13973.5
14263.4
14591.6
14956.5
15372.1
15821.5
16294.2
16759.5
17228.7
17686.3
18138.9
18572.1
18997.2
19379
19723.3
20023.3
20292
20502.9
20669.3
20779.2
20842.3
20850.4
20817.1
20740.8
20634
20500.5
20345.7
20163.1
19984.9
12478.5
12607.6
12781.6
12994.8
13245.3
13523.6
13824.4
14137.2
14456.4
14776.3
15091.7
15395.5
15692.6
15965.4
16201.4
16399.6
16586.9
16761.8
16902.1
16995.3
17048.8
17061.1
17036.2
16968.4
16867.2
16746.8
16626.6
16487.3
16285.6
16006.6
15739
15514.6
15284.4
15008.3
14668.9
14382.3
14130.4
13835.4
13555.8
13319.2
13125.5
12926.6
12756.6
12652.2
12611.7
12596.7
12611.7
12664.8
12767.8
12908.9
13094.1
13326
13597
13889.8
14219.6
14593.9
15011.3
15434.5
15854.8
16258.1
16681.1
17097.4
17492.3
17857.8
18210.1
18517.1
18790.7
19024.3
19221.3
19365.2
19466.7
19515.8
19523.2
19484.6
19410.7
19301.4
19165.2
19000.4
18794.3
18588.5
10760
10942.5
11165.8
11412.5
11685.3
11978.4
12287.8
12605
12920.8
13239.5
13557.8
13868.5
14161.8
14428.4
14651.2
14854.3
15057.8
15247.2
15393.2
15491.5
15553.7
15585.7
15593.1
15571.9
15493
15382.2
15277.8
15165.8
15006.9
14794.3
14567.3
14372.8
14173.3
13919.2
13621.1
13360.3
13107.9
12887.6
12697.3
12512.8
12348.3
12188.1
12034.3
11946.2
11924.9
11928.5
11955.3
12017.7
12115.1
12253.8
12430.2
12658.3
12903.9
13167.6
13457.3
13804.1
14178.8
14564.6
14941
15306.9
15675.5
16062.7
16422.6
16756.1
17061.3
17347.1
17590.2
17802.5
17970.4
18102.9
18186.2
18229.8
18226.5
18185.9
18106.9
17996.5
17855.8
17680.3
17458.3
17229.4
8993.79
9232.25
9510.13
9797.76
10100.8
10417
10747.1
11076.7
11396.6
11717.5
12039.2
12349.3
12637
12906.7
13143.2
13361.2
13566.5
13742.4
13887
14001.9
14091.3
14155.6
14192.9
14196
14146
14052.8
13968.9
13881.6
13750.4
13601.9
13432.3
13253.1
13053.8
12818.4
12596.1
12343.5
12131.1
12014.5
11876.4
11701.5
11542.2
11406.8
11303.1
11244.8
11228.2
11232.9
11266.4
11328.6
11425.7
11553.9
11722.5
11929.6
12163.3
12396.3
12665.6
12977
13324.3
13670.3
14020
14358.6
14698.6
15035.1
15369.9
15672.3
15953.7
16202.7
16426.8
16609.1
16760.1
16867.8
16940.2
16968
16958.6
16908.7
16825.8
16711.3
16565.7
16385.4
16151.1
15915.2
7193.18
7489.8
7826.72
8161.61
8504.44
8859.54
9221.08
9571.35
9907.86
10241.2
10562
10856.1
11132.1
11412.3
11674
11903
12098.5
12259.5
12398.2
12542.4
12661.5
12748
12808.5
12824.1
12807.3
12783.3
12738
12649.7
12526.1
12432
12321.3
12137.7
11939.3
11779.8
11619.8
11389.7
11210.8
11143.1
11038.3
10869.8
10708.9
10603.8
10545.9
10509.7
10494.9
10504
10535.5
10598.9
10690.7
10814.7
10965.3
11152.3
11367.5
11594.9
11842.7
12137.2
12451.1
12779.3
13088.1
13408.7
13725.1
14039.4
14332.1
14614.4
14865
15093.7
15286
15450.6
15574.5
15666
15716
15731.9
15708.3
15650.5
15559.6
15439.3
15291.6
15107.8
14878.4
14639.7
5365.19
5724.17
6125.75
6514.02
6908.74
7309.33
7703.55
8083.38
8444.36
8790.21
9115.98
9408.52
9688.35
9963.96
10234.2
10472.1
10670.5
10839.9
10998.7
11156.9
11294.8
11388.5
11443.5
11471.6
11505.5
11558.6
11553.2
11454
11343.5
11295.6
11234.8
11069.3
10893.8
10773.1
10658.9
10511.1
10357.3
10241.7
10139.1
9998.76
9859.42
9795.16
9764.72
9737.02
9725.77
9730.85
9761.7
9819.63
9913.63
10030.1
10170.8
10329.1
10528
10757.3
11004.5
11270.4
11567.3
11876.2
12173.7
12458.7
12758.3
13049.5
13324.2
13573.3
13805
14003.5
14177.4
14314.1
14420.6
14486.8
14520.2
14515.6
14478.3
14407.2
14306.5
14180.7
14028.8
13851.6
13629.5
13407.4
3512.59
3940.52
4414.53
4865.57
5318.9
5758.68
6179.97
6581.7
6963.31
7330.24
7673.13
7983.56
8276.77
8563.59
8832.16
9071.09
9286.11
9491.7
9686.88
9851.21
9979.23
10072.7
10130.9
10185.8
10255.7
10319.5
10330.8
10276.7
10213.2
10173.3
10126.1
10042.4
9922.47
9799.4
9702.01
9618.72
9479.68
9318.4
9227.63
9158.7
9053.34
8987.44
8965.99
8957.06
8933.13
8930.88
8949.44
9005.65
9099.52
9221.26
9350.54
9503.12
9689.6
9912.14
10146.7
10396.6
10665.9
10965.5
11258.5
11533.2
11803.8
12078
12328.4
12562.6
12766
12947
13093
13211.5
13291.4
13338.7
13347.5
13324
13267
13180
13067.3
12931.4
12779.8
12606
12407.3
12204.8
1631.5
2143.32
2705.26
3233.38
3738.81
4212.92
4663.38
5087.84
5488.55
5867.24
6222.72
6552.79
6869.47
7172.15
7441.38
7684.17
7912.2
8126.82
8332.95
8497.9
8619.31
8726.41
8826.84
8916.68
8996.39
9042.47
9066.78
9082.03
9089.49
9064.19
9025.17
8994.05
8938.45
8848.72
8762.8
8678.24
8562.65
8435.06
8379.62
8357.03
8288.97
8194.42
8158.6
8165.04
8168.42
8167.61
8182.68
8235.34
8331.56
8453.68
8587.78
8728.61
8905.8
9118.46
9349.97
9573
9813.54
10074.8
10358.8
10624.6
10884.8
11128.1
11364.6
11574.5
11763.7
11919.2
12047.7
12138.5
12196.7
12215.8
12201.6
12152.6
12072.9
11965.8
11834.5
11689.3
11530.6
11368.2
11187.9
11024.3
-293.447
325.157
1003.39
1610.32
2159.3
2681.09
3165.22
3611.18
4023.48
4406.16
4761.37
5093.04
5406.07
5701.56
5969.83
6210.19
6434.64
6649.65
6848.44
7024.8
7173.18
7311.11
7449.15
7574.66
7676.68
7756.2
7820.02
7885.05
7943.39
7968.47
7962.13
7952.49
7928.55
7885.46
7827.74
7753.22
7671.84
7604.41
7568.41
7541.5
7482.67
7411.86
7384.97
7397.04
7429.79
7466.51
7495.48
7545.1
7636.17
7761.66
7886.13
8018.39
8176.81
8380.46
8594.19
8810.8
9021.35
9251.54
9494.49
9747.34
9985.19
10214.7
10426.3
10623.3
10789.9
10930.8
11034
11103.6
11131.8
11123.7
11078.1
10999.7
10891.7
10756.5
10604.3
10439.2
10275.9
10113.6
9964.66
9835.09
-2294.14
-1543.55
-736.498
-49.1423
551.659
1102.65
1605.5
2061.56
2476.37
2855.87
3205.26
3530.13
3832.2
4110.98
4373.75
4623.49
4859.68
5080.63
5291.15
5494.23
5687.66
5868.74
6041.27
6207.86
6365.65
6501.34
6615.5
6714.1
6803.39
6871.25
6913.91
6937.02
6941.95
6928.29
6898.82
6851.72
6802.47
6758.55
6723.77
6686.71
6641.03
6600.52
6594.36
6617.28
6663.8
6716.39
6768.44
6822.75
6911.63
7023.62
7142.59
7260.12
7410.59
7596.48
7803.87
8007.95
8217.34
8423.83
8646.63
8875.32
9105.05
9318.01
9520.78
9698.12
9853.1
9972.48
10058.2
10100.5
10102
10060.2
9979.66
9864.91
9719.18
9550.98
9364.71
9177.79
8993.81
8833.98
8701.71
8616.23
-4383.44
-3467.32
-2522.27
-1749.4
-1089.72
-515.964
-10.0423
442.964
853.956
1231.18
1580.05
1905.81
2211.01
2499.35
2776.58
3043.54
3298.32
3544.45
3783.59
4016.31
4244.6
4468.73
4683.1
4886.96
5079.26
5258.13
5420.03
5564.83
5692.02
5798.28
5879.68
5938.79
5974.36
5989.01
5982.53
5959.65
5926.52
5891.2
5853.98
5817.81
5781.25
5756.56
5750.83
5770.13
5808.63
5862.03
5914.32
5977.47
6064.41
6174.21
6285.49
6409.71
6556.05
6735.75
6929.43
7137.33
7347.24
7564.63
7780.95
8008.55
8229.12
8443.39
8635.38
8807.43
8946.44
9053.14
9115.66
9133.93
9103.54
9027.12
8907.76
8749.38
8560.93
8345.15
8119.4
7890.58
7681.21
7500.8
7384.46
7322.1
-6517.91
-5384.5
-4248.89
-3361.42
-2646.08
-2049.49
-1539.18
-1091.14
-687.505
-316.161
30.1392
356.979
666.655
961.337
1248.39
1531.68
1804.99
2067.58
2324.82
2578.64
2831.26
3082.01
3328.87
3569.7
3803.38
4026.07
4234.63
4425.11
4596.46
4743.97
4865.84
4960.03
5027.86
5068.65
5085.45
5080.15
5060.69
5030.99
4997.66
4961.79
4929.69
4904.54
4895.16
4901.37
4927.54
4966.19
5017.43
5079.52
5165.21
5266.51
5384.97
5515.74
5672.37
5846.94
6044.02
6250.56
6472.34
6695.22
6925.21
7151.62
7378.21
7587.95
7781.22
7945.15
8081.19
8175.43
8222.11
8212.84
8150.11
8037.07
7874.86
7670.96
7426.73
7156.83
6868.64
6588.33
6323.68
6110.83
5971.34
5922.37
-8730.51
-7295.99
-5893.01
-4878.11
-4114.07
-3506.74
-3005.18
-2573.41
-2185.84
-1828.66
-1493.1
-1174.04
-868.213
-573.549
-285.592
-1.44729
278.416
554.917
831.192
1109.4
1390.93
1675.88
1962.3
2248.25
2530.41
2804.61
3064.35
3305.06
3522.6
3714.31
3876.54
4007.96
4106.69
4174.49
4211.83
4224.28
4216.03
4195.01
4164.56
4131.69
4098.52
4073.16
4056.99
4056.64
4070.03
4101.07
4144.37
4206.66
4285.45
4387.02
4503.82
4643.76
4801.16
4983.56
5180.21
5396.36
5619.12
5853.22
6086.02
6322.71
6549.83
6767.26
6960.64
7134.04
7279.18
7386.07
7431.55
7405.44
7313.95
7163.72
6958.69
6696.09
6386.6
6033.35
5662.96
5288.76
4942.59
4642.43
4438.12
4347.29
-11184.2
-9130.46
-7357.89
-6241.2
-5471.34
-4887.93
-4420.47
-4020.12
-3658.55
-3321.17
-3001.16
-2693.12
-2394.55
-2102.77
-1815.79
-1530.33
-1244.29
-954.476
-658.803
-355.26
-42.5022
280.151
611.473
948.929
1288.76
1624.03
1945.09
2242.32
2511.09
2746.69
2949.25
3114.45
3241.18
3327.77
3378.21
3397.65
3395.16
3375.62
3347.01
3312.76
3279.84
3250.41
3231.74
3223.57
3231.92
3253.92
3294.78
3350.9
3429.67
3526.08
3646.59
3784.61
3947.96
4128.28
4331.83
4547.15
4778.98
5015.79
5263.99
5512.97
5765.9
6006.59
6232.03
6438.29
6629.21
6781.3
6848.84
6795.28
6644.42
6430.19
6149.9
5811.05
5411.35
4968.8
4490.68
4008.36
3532.72
3098.35
2721.08
2472.91
-12931.3
-9392.85
-7236.78
-6067.62
-5292
-4733.8
-4316.26
-3978.87
-3686.88
-3424.43
-3180.97
-2950.08
-2726.05
-2506.15
-2287.45
-2068.12
-1844.78
-1615.12
-1376.6
-1128.24
-867.867
-593.854
-304.531
0.642331
321.915
654.228
984.811
1301.4
1598.94
1869.03
2103.57
2302.03
2455.84
2554.72
2603.7
2616.15
2602.77
2573.5
2533.51
2491.53
2449.3
2413.72
2386.56
2373.68
2373.41
2391.38
2424.48
2479.08
2551.58
2648.96
2765.31
2907.41
3068.29
3255.32
3460.08
3688.73
3930.27
4191.23
4463.46
4754.6
5052.38
5341.46
5585.18
5772.33
5902.04
5960.29
5858.27
5548.65
5144.65
4739.22
4342.6
3948.61
3567.37
3184.62
2802.25
2399.14
1971.17
1501.86
965.803
338.003
-8148.84
-4368.43
-2999.13
-2335.54
-1917.81
-1633.96
-1436.31
-1291.29
-1180.2
-1091.54
-1017.47
-951.797
-890.8
-831.358
-772.265
-712.186
-650.559
-586.557
-519.655
-449.129
-374.115
-292.737
-202.781
-101.086
16.3043
151.01
309.966
498.475
704.355
921.209
1137.93
1348.44
1540.16
1688.4
1776.44
1810.53
1808.72
1779.25
1731.49
1665.74
1602.5
1544.5
1501.59
1472.73
1462.66
1468.82
1496.89
1543.59
1615.7
1708.99
1829.86
1972.06
2142.92
2336.21
2560.23
2805.65
3071.83
3336.1
3586.65
3818.17
4017.03
4120.24
4052.43
3805.04
3451.36
3016.82
2533.19
2096.44
1714.15
1414.04
1178.36
998.033
866.046
767.248
687.511
606.268
493.364
322.466
29.057
-571.866
-1027.6
-208.324
-63.5866
-10.0898
-10.0805
-10.0794
-10.0821
-10.0839
-10.086
-10.0869
-10.0864
-10.0854
-10.0813
-10.0793
-10.0832
-10.0852
-10.0856
-10.0857
-10.0857
-10.0859
-10.0865
-10.0871
-10.0872
-10.0874
-10.0877
-10.0874
0.144162
27.0181
70.55
132.606
214.163
314.845
436.487
578.992
713.392
816.989
878.243
892.977
861.347
797.02
716.118
642.965
581.272
536.361
507.242
500.066
513.155
552.799
615.61
708.485
824.113
967.167
1129.34
1314.52
1511.07
1713.26
1884.71
1998.05
2031.8
1966.43
1787.95
1501.36
1145
780.419
465.442
176.82
-8.47447
-10.0868
-10.0871
-10.0871
-10.0858
-10.0865
-10.0878
-10.0881
-10.0881
-10.0881
-10.0882
-10.0895
-10.0921
-10.0934
-10.6388
-10.5439
-10.582
-10.5727
-10.5675
-10.5654
-10.5658
-10.5682
-10.5717
-10.5749
-10.576
-10.575
-10.5722
-10.5721
-10.5752
-10.5759
-10.5761
-10.5762
-10.5762
-10.5763
-10.5766
-10.577
-10.5772
-10.5774
-10.5779
-10.5779
-10.5777
-10.5782
-10.5753
-10.5673
-10.5565
-10.5585
-10.5747
-2.4938
26.9439
69.6204
114.155
151.171
172.804
175.419
143.06
81.5169
4.81697
-74.6265
-143.024
-193.037
-215.033
-208.357
-168.061
-98.2636
-0.288397
114.582
240.634
359.807
459.105
516.021
513.295
457.781
371.773
257.972
133.412
25.7976
-10.548
-10.5678
-10.5747
-10.5771
-10.5774
-10.5778
-10.578
-10.5782
-10.5784
-10.5785
-10.5786
-10.5786
-10.5786
-10.5786
-10.5785
-10.5791
-10.5809
-10.583
-11.0706
-11.066
-11.0693
-11.0724
-11.0701
-11.0688
-11.0689
-11.0687
-11.0686
-11.0689
-11.0685
-11.0683
-11.0664
-11.0656
-11.0662
-11.0666
-11.0667
-11.0667
-11.0667
-11.0666
-11.0664
-11.0665
-11.0663
-11.0663
-11.0671
-11.0679
-11.0685
-11.0684
-11.0682
-11.068
-11.0677
-11.0685
-11.0684
-11.0686
-11.0684
-11.0675
-11.066
-11.0648
-11.0665
-11.5581
-18.6336
-36.009
-61.9723
-93.0557
-124.774
-151.754
-169.835
-175.111
-166.782
-145.806
-115.309
-79.8533
-46.127
-19.2159
-4.08131
-2.13222
-9.33761
-11.03
-11.0424
-11.0536
-11.0617
-11.0667
-11.068
-11.0682
-11.0683
-11.0683
-11.0684
-11.0684
-11.0685
-11.0686
-11.0687
-11.0689
-11.069
-11.0691
-11.0692
-11.0692
-11.0688
-11.0679
-11.0678
-11.0707
-11.5585
-11.5584
-11.5585
-11.5586
-11.5585
-11.5584
-11.5584
-11.5583
-11.5582
-11.5582
-11.5581
-11.5582
-11.5577
-11.5573
-11.5574
-11.5574
-11.5573
-11.5574
-11.5575
-11.5575
-11.5574
-11.5575
-11.5575
-11.5575
-11.558
-11.5585
-11.5586
-11.5587
-11.5587
-11.5588
-11.5589
-11.5589
-11.5591
-11.5592
-11.5592
-11.5592
-11.5592
-11.5592
-11.5593
-11.5596
-11.5619
-11.5682
-11.5799
-11.5972
-11.6183
-11.6398
-11.6574
-11.6669
-11.666
-11.6557
-11.637
-11.6145
-11.5928
-11.5755
-11.5643
-11.5591
-11.5581
-11.5581
-11.5582
-11.5584
-11.5585
-11.5586
-11.5587
-11.5588
-11.5588
-11.5589
-11.5589
-11.559
-11.5591
-11.5592
-11.5593
-11.5593
-11.5594
-11.5595
-11.5597
-11.5599
-11.5601
-11.5596
-11.5588
-11.5593
-12.049
-12.049
-12.049
-12.049
-12.049
-12.0489
-12.0489
-12.0488
-12.0487
-12.0487
-12.0486
-12.0485
-12.0483
-12.0482
-12.0481
-12.048
-12.0479
-12.0479
-12.048
-12.0481
-12.0481
-12.0483
-12.0486
-12.0487
-12.0488
-12.049
-12.0492
-12.0492
-12.0493
-12.0494
-12.0495
-12.0495
-12.0496
-12.0497
-12.0497
-12.0497
-12.0497
-12.0497
-12.0497
-12.0497
-12.0498
-12.0498
-12.05
-12.0503
-12.0508
-12.0513
-12.0517
-12.0519
-12.0519
-12.0515
-12.051
-12.0503
-12.0498
-12.0493
-12.049
-12.0489
-12.0489
-12.0489
-12.0489
-12.049
-12.049
-12.0491
-12.0492
-12.0492
-12.0493
-12.0493
-12.0494
-12.0495
-12.0496
-12.0496
-12.0497
-12.0498
-12.0499
-12.0499
-12.0498
-12.0499
-12.0503
-12.0504
-12.0499
-12.0498
-12.5395
-12.5395
-12.5395
-12.5395
-12.5395
-12.5394
-12.5394
-12.5393
-12.5392
-12.5392
-12.5391
-12.539
-12.5388
-12.5387
-12.5386
-12.5386
-12.5385
-12.5385
-12.5385
-12.5386
-12.5387
-12.5389
-12.5391
-12.5392
-12.5394
-12.5395
-12.5396
-12.5397
-12.5398
-12.5399
-12.5399
-12.54
-12.5401
-12.5401
-12.5402
-12.5402
-12.5402
-12.5402
-12.5402
-12.5402
-12.5402
-12.5401
-12.5401
-12.54
-12.54
-12.5399
-12.5398
-12.5398
-12.5397
-12.5396
-12.5395
-12.5394
-12.5394
-12.5394
-12.5394
-12.5393
-12.5394
-12.5394
-12.5394
-12.5395
-12.5395
-12.5396
-12.5396
-12.5397
-12.5398
-12.5398
-12.5399
-12.5399
-12.54
-12.5401
-12.5402
-12.5402
-12.5403
-12.5404
-12.5404
-12.5403
-12.5404
-12.5406
-12.5405
-12.5404
-13.0299
-13.03
-13.0299
-13.0299
-13.0299
-13.0298
-13.0298
-13.0297
-13.0296
-13.0296
-13.0295
-13.0294
-13.0293
-13.0292
-13.0291
-13.0291
-13.029
-13.0291
-13.0291
-13.0291
-13.0292
-13.0294
-13.0296
-13.0297
-13.0298
-13.0299
-13.0301
-13.0302
-13.0302
-13.0303
-13.0304
-13.0304
-13.0305
-13.0306
-13.0306
-13.0306
-13.0307
-13.0307
-13.0307
-13.0307
-13.0307
-13.0306
-13.0306
-13.0305
-13.0304
-13.0304
-13.0303
-13.0302
-13.0301
-13.03
-13.0299
-13.0299
-13.0298
-13.0298
-13.0298
-13.0298
-13.0298
-13.0298
-13.0299
-13.0299
-13.03
-13.03
-13.0301
-13.0301
-13.0302
-13.0303
-13.0303
-13.0304
-13.0304
-13.0305
-13.0306
-13.0306
-13.0307
-13.0308
-13.0309
-13.0308
-13.0308
-13.0308
-13.0309
-13.0308
-13.5203
-13.5203
-13.5203
-13.5203
-13.5202
-13.5202
-13.5201
-13.5201
-13.52
-13.52
-13.5199
-13.5198
-13.5198
-13.5197
-13.5196
-13.5195
-13.5195
-13.5196
-13.5196
-13.5196
-13.5197
-13.5198
-13.52
-13.5201
-13.5202
-13.5203
-13.5204
-13.5205
-13.5206
-13.5207
-13.5207
-13.5208
-13.5209
-13.5209
-13.521
-13.521
-13.5211
-13.5211
-13.5211
-13.5211
-13.5211
-13.5211
-13.521
-13.521
-13.5209
-13.5208
-13.5207
-13.5206
-13.5206
-13.5205
-13.5204
-13.5203
-13.5203
-13.5203
-13.5203
-13.5203
-13.5203
-13.5203
-13.5203
-13.5203
-13.5204
-13.5204
-13.5205
-13.5205
-13.5206
-13.5207
-13.5207
-13.5208
-13.5208
-13.5209
-13.521
-13.521
-13.521
-13.5211
-13.5212
-13.5212
-13.5212
-13.5212
-13.5212
-13.5212
-14.0106
-14.0106
-14.0106
-14.0106
-14.0106
-14.0105
-14.0105
-14.0104
-14.0104
-14.0103
-14.0103
-14.0102
-14.0101
-14.0101
-14.0101
-14.01
-14.01
-14.01
-14.0101
-14.0101
-14.0102
-14.0102
-14.0104
-14.0105
-14.0106
-14.0107
-14.0108
-14.0109
-14.0109
-14.011
-14.0111
-14.0112
-14.0112
-14.0113
-14.0114
-14.0114
-14.0114
-14.0115
-14.0115
-14.0115
-14.0115
-14.0115
-14.0114
-14.0114
-14.0113
-14.0112
-14.0112
-14.0111
-14.011
-14.0109
-14.0108
-14.0108
-14.0107
-14.0107
-14.0107
-14.0106
-14.0107
-14.0107
-14.0107
-14.0107
-14.0108
-14.0108
-14.0109
-14.0109
-14.011
-14.011
-14.0111
-14.0111
-14.0112
-14.0113
-14.0113
-14.0114
-14.0114
-14.0114
-14.0115
-14.0115
-14.0115
-14.0115
-14.0115
-14.0115
-14.5009
-14.5009
-14.5009
-14.5008
-14.5008
-14.5008
-14.5008
-14.5007
-14.5007
-14.5007
-14.5006
-14.5006
-14.5005
-14.5004
-14.5004
-14.5004
-14.5004
-14.5004
-14.5005
-14.5005
-14.5005
-14.5006
-14.5007
-14.5008
-14.5009
-14.501
-14.5011
-14.5012
-14.5012
-14.5013
-14.5014
-14.5015
-14.5015
-14.5016
-14.5017
-14.5017
-14.5018
-14.5018
-14.5019
-14.5019
-14.5019
-14.5018
-14.5018
-14.5017
-14.5017
-14.5016
-14.5015
-14.5015
-14.5014
-14.5013
-14.5012
-14.5012
-14.5011
-14.5011
-14.5011
-14.501
-14.501
-14.501
-14.501
-14.5011
-14.5011
-14.5012
-14.5012
-14.5013
-14.5013
-14.5014
-14.5014
-14.5015
-14.5015
-14.5016
-14.5016
-14.5017
-14.5017
-14.5017
-14.5018
-14.5018
-14.5018
-14.5018
-14.5018
-14.5018
-14.9911
-14.9911
-14.9911
-14.9911
-14.9911
-14.991
-14.991
-14.991
-14.9909
-14.9909
-14.9909
-14.9909
-14.9908
-14.9908
-14.9907
-14.9907
-14.9907
-14.9907
-14.9908
-14.9908
-14.9909
-14.9909
-14.991
-14.9911
-14.9912
-14.9912
-14.9913
-14.9914
-14.9915
-14.9916
-14.9916
-14.9917
-14.9918
-14.9919
-14.992
-14.992
-14.9921
-14.9921
-14.9922
-14.9922
-14.9922
-14.9922
-14.9921
-14.9921
-14.992
-14.992
-14.9919
-14.9918
-14.9917
-14.9917
-14.9916
-14.9915
-14.9915
-14.9914
-14.9914
-14.9914
-14.9913
-14.9913
-14.9914
-14.9914
-14.9914
-14.9915
-14.9915
-14.9916
-14.9916
-14.9917
-14.9917
-14.9918
-14.9918
-14.9919
-14.9919
-14.992
-14.992
-14.992
-14.992
-14.992
-14.9921
-14.9921
-14.992
-14.992
-15.4813
-15.4813
-15.4813
-15.4813
-15.4812
-15.4812
-15.4812
-15.4812
-15.4812
-15.4811
-15.4811
-15.4811
-15.4811
-15.4811
-15.4811
-15.481
-15.481
-15.481
-15.4811
-15.4811
-15.4811
-15.4812
-15.4813
-15.4813
-15.4814
-15.4815
-15.4815
-15.4816
-15.4817
-15.4818
-15.4819
-15.482
-15.482
-15.4821
-15.4822
-15.4823
-15.4824
-15.4824
-15.4825
-15.4825
-15.4825
-15.4825
-15.4824
-15.4824
-15.4823
-15.4823
-15.4822
-15.4821
-15.482
-15.482
-15.4819
-15.4818
-15.4818
-15.4817
-15.4817
-15.4817
-15.4817
-15.4816
-15.4817
-15.4817
-15.4817
-15.4818
-15.4818
-15.4819
-15.4819
-15.482
-15.482
-15.4821
-15.4821
-15.4822
-15.4822
-15.4822
-15.4822
-15.4823
-15.4823
-15.4823
-15.4823
-15.4823
-15.4823
-15.4823
-15.9714
-15.9714
-15.9714
-15.9714
-15.9714
-15.9714
-15.9714
-15.9714
-15.9714
-15.9713
-15.9713
-15.9713
-15.9713
-15.9713
-15.9713
-15.9713
-15.9713
-15.9713
-15.9713
-15.9713
-15.9714
-15.9714
-15.9715
-15.9715
-15.9716
-15.9716
-15.9717
-15.9718
-15.9719
-15.972
-15.9721
-15.9722
-15.9723
-15.9724
-15.9724
-15.9725
-15.9726
-15.9727
-15.9727
-15.9728
-15.9728
-15.9728
-15.9727
-15.9727
-15.9726
-15.9726
-15.9725
-15.9724
-15.9723
-15.9722
-15.9722
-15.9721
-15.9721
-15.972
-15.972
-15.9719
-15.9719
-15.9719
-15.9719
-15.9719
-15.972
-15.972
-15.972
-15.9721
-15.9722
-15.9722
-15.9723
-15.9723
-15.9723
-15.9724
-15.9724
-15.9725
-15.9725
-15.9725
-15.9725
-15.9725
-15.9725
-15.9725
-15.9725
-15.9725
-16.4616
-16.4616
-16.4615
-16.4615
-16.4615
-16.4615
-16.4615
-16.4615
-16.4615
-16.4615
-16.4615
-16.4615
-16.4615
-16.4615
-16.4615
-16.4615
-16.4615
-16.4615
-16.4615
-16.4615
-16.4616
-16.4616
-16.4616
-16.4617
-16.4617
-16.4618
-16.4619
-16.462
-16.462
-16.4621
-16.4622
-16.4623
-16.4625
-16.4626
-16.4627
-16.4628
-16.4629
-16.4629
-16.463
-16.463
-16.463
-16.463
-16.463
-16.463
-16.4629
-16.4628
-16.4628
-16.4627
-16.4626
-16.4625
-16.4624
-16.4624
-16.4623
-16.4623
-16.4622
-16.4622
-16.4622
-16.4622
-16.4622
-16.4622
-16.4622
-16.4622
-16.4623
-16.4623
-16.4624
-16.4624
-16.4625
-16.4625
-16.4626
-16.4626
-16.4626
-16.4627
-16.4627
-16.4627
-16.4627
-16.4627
-16.4627
-16.4627
-16.4627
-16.4627
-16.9517
-16.9517
-16.9517
-16.9516
-16.9516
-16.9516
-16.9516
-16.9516
-16.9516
-16.9516
-16.9516
-16.9516
-16.9516
-16.9516
-16.9516
-16.9516
-16.9516
-16.9516
-16.9516
-16.9517
-16.9517
-16.9517
-16.9518
-16.9518
-16.9519
-16.9519
-16.952
-16.9521
-16.9522
-16.9523
-16.9524
-16.9525
-16.9526
-16.9528
-16.9529
-16.953
-16.9531
-16.9532
-16.9532
-16.9533
-16.9533
-16.9533
-16.9533
-16.9532
-16.9532
-16.9531
-16.953
-16.9529
-16.9529
-16.9528
-16.9527
-16.9526
-16.9525
-16.9525
-16.9524
-16.9524
-16.9524
-16.9524
-16.9524
-16.9524
-16.9524
-16.9524
-16.9525
-16.9525
-16.9525
-16.9526
-16.9526
-16.9527
-16.9527
-16.9528
-16.9528
-16.9528
-16.9529
-16.9529
-16.9529
-16.9529
-16.9529
-16.9529
-16.9529
-16.9529
-17.4418
-17.4418
-17.4417
-17.4417
-17.4417
-17.4417
-17.4417
-17.4417
-17.4417
-17.4417
-17.4417
-17.4417
-17.4417
-17.4417
-17.4417
-17.4417
-17.4417
-17.4417
-17.4417
-17.4418
-17.4418
-17.4418
-17.4418
-17.4419
-17.442
-17.442
-17.4421
-17.4422
-17.4423
-17.4424
-17.4426
-17.4427
-17.4428
-17.443
-17.4431
-17.4432
-17.4433
-17.4434
-17.4435
-17.4435
-17.4435
-17.4435
-17.4435
-17.4434
-17.4434
-17.4433
-17.4432
-17.4431
-17.4431
-17.443
-17.4429
-17.4428
-17.4428
-17.4427
-17.4426
-17.4426
-17.4426
-17.4426
-17.4425
-17.4425
-17.4426
-17.4426
-17.4426
-17.4427
-17.4427
-17.4427
-17.4428
-17.4428
-17.4429
-17.4429
-17.4429
-17.443
-17.443
-17.443
-17.443
-17.443
-17.4431
-17.4431
-17.4431
-17.4431
-17.9318
-17.9318
-17.9318
-17.9318
-17.9318
-17.9318
-17.9318
-17.9318
-17.9317
-17.9317
-17.9318
-17.9318
-17.9318
-17.9318
-17.9318
-17.9318
-17.9318
-17.9318
-17.9318
-17.9318
-17.9319
-17.9319
-17.9319
-17.932
-17.932
-17.9321
-17.9322
-17.9323
-17.9324
-17.9326
-17.9327
-17.9329
-17.933
-17.9332
-17.9333
-17.9334
-17.9336
-17.9337
-17.9337
-17.9338
-17.9338
-17.9338
-17.9337
-17.9337
-17.9336
-17.9335
-17.9334
-17.9333
-17.9333
-17.9332
-17.9331
-17.933
-17.9329
-17.9329
-17.9328
-17.9328
-17.9327
-17.9327
-17.9327
-17.9327
-17.9327
-17.9327
-17.9328
-17.9328
-17.9328
-17.9329
-17.9329
-17.933
-17.933
-17.933
-17.9331
-17.9331
-17.9331
-17.9331
-17.9332
-17.9332
-17.9332
-17.9332
-17.9332
-17.9332
-18.4219
-18.4219
-18.4219
-18.4219
-18.4219
-18.4218
-18.4218
-18.4218
-18.4218
-18.4218
-18.4218
-18.4218
-18.4218
-18.4218
-18.4218
-18.4218
-18.4218
-18.4218
-18.4218
-18.4219
-18.4219
-18.4219
-18.422
-18.422
-18.4221
-18.4222
-18.4223
-18.4224
-18.4226
-18.4227
-18.4229
-18.423
-18.4232
-18.4233
-18.4235
-18.4237
-18.4238
-18.4239
-18.424
-18.424
-18.424
-18.424
-18.4239
-18.4239
-18.4238
-18.4237
-18.4236
-18.4235
-18.4234
-18.4233
-18.4233
-18.4232
-18.4231
-18.423
-18.423
-18.4229
-18.4229
-18.4229
-18.4228
-18.4228
-18.4228
-18.4229
-18.4229
-18.4229
-18.4229
-18.423
-18.423
-18.423
-18.4231
-18.4231
-18.4232
-18.4232
-18.4232
-18.4232
-18.4233
-18.4233
-18.4233
-18.4233
-18.4233
-18.4233
-18.912
-18.912
-18.912
-18.9119
-18.9119
-18.9119
-18.9119
-18.9118
-18.9118
-18.9118
-18.9118
-18.9118
-18.9118
-18.9118
-18.9118
-18.9118
-18.9118
-18.9119
-18.9119
-18.9119
-18.9119
-18.912
-18.912
-18.9121
-18.9122
-18.9123
-18.9124
-18.9125
-18.9127
-18.9128
-18.913
-18.9132
-18.9133
-18.9135
-18.9137
-18.9139
-18.914
-18.9141
-18.9142
-18.9143
-18.9143
-18.9142
-18.9142
-18.9141
-18.914
-18.9139
-18.9138
-18.9137
-18.9136
-18.9135
-18.9134
-18.9133
-18.9133
-18.9132
-18.9131
-18.9131
-18.913
-18.913
-18.913
-18.913
-18.913
-18.913
-18.913
-18.913
-18.913
-18.913
-18.9131
-18.9131
-18.9131
-18.9132
-18.9132
-18.9132
-18.9133
-18.9133
-18.9133
-18.9134
-18.9134
-18.9134
-18.9134
-18.9134
-19.402
-19.402
-19.402
-19.402
-19.402
-19.4019
-19.4019
-19.4019
-19.4018
-19.4018
-19.4018
-19.4018
-19.4018
-19.4018
-19.4018
-19.4018
-19.4018
-19.4019
-19.4019
-19.4019
-19.402
-19.402
-19.4021
-19.4022
-19.4023
-19.4024
-19.4025
-19.4026
-19.4028
-19.4029
-19.4031
-19.4033
-19.4035
-19.4037
-19.4039
-19.404
-19.4042
-19.4044
-19.4045
-19.4045
-19.4045
-19.4045
-19.4044
-19.4043
-19.4042
-19.4041
-19.404
-19.4039
-19.4037
-19.4036
-19.4035
-19.4035
-19.4034
-19.4033
-19.4032
-19.4032
-19.4031
-19.4031
-19.4031
-19.4031
-19.403
-19.403
-19.4031
-19.4031
-19.4031
-19.4031
-19.4031
-19.4032
-19.4032
-19.4032
-19.4032
-19.4033
-19.4033
-19.4034
-19.4034
-19.4034
-19.4035
-19.4035
-19.4035
-19.4035
-19.8921
-19.8921
-19.8921
-19.892
-19.892
-19.892
-19.8919
-19.8919
-19.8919
-19.8918
-19.8918
-19.8918
-19.8918
-19.8918
-19.8918
-19.8918
-19.8918
-19.8919
-19.8919
-19.8919
-19.892
-19.8921
-19.8921
-19.8922
-19.8923
-19.8925
-19.8926
-19.8927
-19.8929
-19.893
-19.8932
-19.8934
-19.8936
-19.8938
-19.894
-19.8942
-19.8945
-19.8947
-19.8948
-19.8949
-19.8949
-19.8948
-19.8947
-19.8945
-19.8944
-19.8943
-19.8941
-19.894
-19.8939
-19.8937
-19.8937
-19.8936
-19.8935
-19.8934
-19.8934
-19.8933
-19.8932
-19.8932
-19.8932
-19.8931
-19.8931
-19.8931
-19.8931
-19.8931
-19.8931
-19.8931
-19.8932
-19.8932
-19.8932
-19.8932
-19.8933
-19.8933
-19.8933
-19.8934
-19.8934
-19.8935
-19.8935
-19.8935
-19.8935
-19.8935
-20.3822
-20.3822
-20.3821
-20.3821
-20.3821
-20.382
-20.382
-20.3819
-20.3819
-20.3818
-20.3818
-20.3818
-20.3818
-20.3818
-20.3818
-20.3818
-20.3818
-20.3819
-20.3819
-20.382
-20.382
-20.3821
-20.3822
-20.3823
-20.3824
-20.3825
-20.3826
-20.3828
-20.383
-20.3831
-20.3833
-20.3835
-20.3837
-20.3839
-20.3842
-20.3844
-20.3847
-20.385
-20.3853
-20.3853
-20.3852
-20.3851
-20.3849
-20.3847
-20.3845
-20.3844
-20.3842
-20.3841
-20.3839
-20.3838
-20.3837
-20.3837
-20.3836
-20.3835
-20.3834
-20.3834
-20.3833
-20.3833
-20.3832
-20.3832
-20.3832
-20.3832
-20.3832
-20.3832
-20.3832
-20.3832
-20.3832
-20.3832
-20.3832
-20.3832
-20.3833
-20.3833
-20.3833
-20.3834
-20.3834
-20.3835
-20.3835
-20.3835
-20.3835
-20.3835
-20.8722
-20.8722
-20.8722
-20.8721
-20.8721
-20.872
-20.872
-20.8719
-20.8719
-20.8718
-20.8718
-20.8718
-20.8718
-20.8718
-20.8718
-20.8718
-20.8719
-20.8719
-20.8719
-20.872
-20.8721
-20.8722
-20.8722
-20.8723
-20.8725
-20.8726
-20.8727
-20.8729
-20.873
-20.8732
-20.8734
-20.8736
-20.8738
-20.874
-20.8742
-20.8745
-20.8748
-20.8751
-20.8758
-20.876
-20.8758
-20.8757
-20.8752
-20.8749
-20.8746
-20.8745
-20.8743
-20.8742
-20.874
-20.8739
-20.8738
-20.8737
-20.8736
-20.8736
-20.8735
-20.8734
-20.8734
-20.8733
-20.8733
-20.8733
-20.8732
-20.8732
-20.8732
-20.8732
-20.8732
-20.8732
-20.8732
-20.8732
-20.8732
-20.8732
-20.8732
-20.8733
-20.8733
-20.8734
-20.8734
-20.8735
-20.8735
-20.8735
-20.8735
-20.8735
-21.3623
-21.3623
-21.3622
-21.3622
-21.3621
-21.3621
-21.362
-21.362
-21.3619
-21.3619
-21.3618
-21.3618
-21.3618
-21.3618
-21.3618