/*--------------------------------*- C++ -*----------------------------------*\
| =========                 |                                                 |
| \\      /  F ield         | OpenFOAM: The Open Source CFD Toolbox           |
|  \\    /   O peration     | Version:  2412                                  |
|   \\  /    A nd           | Website:  www.openfoam.com                      |
|    \\/     M anipulation  |                                                 |
\*---------------------------------------------------------------------------*/
FoamFile
{
    version     2.0;
    format      ascii;
    arch        "LSB;label=32;scalar=64";
    class       volVectorField;
    location    "7";
    object      U;
}
// * * * * * * * * * * * * * * * * * * * * * * * * * * * * * * * * * * * * * //

dimensions      [0 1 -1 0 0 0 0];

internalField   nonuniform List<vector> 
6400
(
(-0.000733033 0.000243293 0)
(-0.000630648 -0.000221479 0)
(-0.000313409 -0.000130442 0)
(-0.000461872 -6.55394e-05 0)
(-0.000385546 -8.52638e-05 0)
(-0.000227775 -0.000132145 0)
(0.000104779 -0.000189916 0)
(0.000584741 -0.000246823 0)
(0.00122654 -0.000296816 0)
(0.00202394 -0.000352961 0)
(0.00292647 -0.000394321 0)
(0.00391221 -0.00043868 0)
(0.00494032 -0.000460516 0)
(0.0059825 -0.000439987 0)
(0.00698418 -0.000422162 0)
(0.00790547 -0.000389792 0)
(0.00875876 -0.000354755 0)
(0.00952304 -0.00030628 0)
(0.0101805 -0.000254168 0)
(0.0107211 -0.000191876 0)
(0.0111337 -0.000121737 0)
(0.011409 -3.81034e-05 0)
(0.0115282 5.87738e-05 0)
(0.0114807 0.000172226 0)
(0.0112652 0.000303688 0)
(0.0108677 0.000431159 0)
(0.01031 0.000531474 0)
(0.00962556 0.000582668 0)
(0.00886946 0.000587503 0)
(0.00806924 0.000552049 0)
(0.00725965 0.000505388 0)
(0.00646688 0.000474634 0)
(0.0056633 0.000444018 0)
(0.00489209 0.000365921 0)
(0.00420475 0.00021807 0)
(0.00363141 4.221e-05 0)
(0.00319898 -0.000154526 0)
(0.00288566 -0.000317633 0)
(0.00267192 -0.000435266 0)
(0.0025052 -0.000489428 0)
(0.0023157 -0.000472638 0)
(0.00202481 -0.000375312 0)
(0.0015751 -0.000207541 0)
(0.000901005 1.41646e-05 0)
(-3.15849e-05 0.000262478 0)
(-0.00120827 0.000529375 0)
(-0.00262462 0.000755026 0)
(-0.00423161 0.000902585 0)
(-0.00592704 0.000965287 0)
(-0.0076258 0.00097456 0)
(-0.00928398 0.000966278 0)
(-0.010855 0.000951243 0)
(-0.0123069 0.000898041 0)
(-0.0135794 0.00079262 0)
(-0.0145933 0.00062597 0)
(-0.0153171 0.000430527 0)
(-0.0157318 0.000241185 0)
(-0.0158574 7.7942e-05 0)
(-0.015714 -6.44744e-05 0)
(-0.0153361 -0.000186565 0)
(-0.0147574 -0.000286245 0)
(-0.0139779 -0.000366427 0)
(-0.0130304 -0.00043903 0)
(-0.0119509 -0.000496903 0)
(-0.0107599 -0.000552846 0)
(-0.0094857 -0.000597353 0)
(-0.00813879 -0.000635699 0)
(-0.00675273 -0.000649365 0)
(-0.00538585 -0.000623471 0)
(-0.00408151 -0.000573466 0)
(-0.00288199 -0.0005137 0)
(-0.00181194 -0.000446739 0)
(-0.000900153 -0.00036822 0)
(-0.000203404 -0.000286539 0)
(0.000265528 -0.000191333 0)
(0.000516522 -0.000112329 0)
(0.000618714 -5.34558e-05 0)
(0.000466976 -7.59716e-05 0)
(0.000710716 -0.000156369 0)
(0.000713177 0.00028479 0)
(-0.000955873 0.00118159 0)
(-0.00110737 -0.000236756 0)
(-0.00114296 4.00742e-05 0)
(-0.00155116 9.37026e-05 0)
(-0.0016506 -9.45711e-05 0)
(-0.00157036 -0.000359638 0)
(-0.00122349 -0.000643969 0)
(-0.000639852 -0.000908688 0)
(0.000173158 -0.00114341 0)
(0.00120274 -0.00134527 0)
(0.00234832 -0.00149941 0)
(0.00354733 -0.00158948 0)
(0.00478177 -0.0016275 0)
(0.00601826 -0.00159899 0)
(0.00721937 -0.0015432 0)
(0.00834285 -0.00143354 0)
(0.00937369 -0.00129627 0)
(0.0102762 -0.00113676 0)
(0.0110318 -0.000952388 0)
(0.0116527 -0.000755979 0)
(0.0121353 -0.000550525 0)
(0.0124904 -0.000329662 0)
(0.0127154 -0.000114598 0)
(0.0128304 0.000106695 0)
(0.0128641 0.000323955 0)
(0.0128342 0.000531054 0)
(0.0127526 0.000706353 0)
(0.0126147 0.000850154 0)
(0.0124106 0.00095772 0)
(0.0121101 0.00101915 0)
(0.0116942 0.0010591 0)
(0.0111761 0.00109293 0)
(0.0105784 0.00112311 0)
(0.0099188 0.00112291 0)
(0.0091563 0.00106526 0)
(0.00825527 0.00099386 0)
(0.0072094 0.000907312 0)
(0.00602944 0.000856241 0)
(0.00470463 0.000845206 0)
(0.00326901 0.000876527 0)
(0.00173437 0.000978579 0)
(0.000114169 0.00115178 0)
(-0.00155349 0.00137069 0)
(-0.00324581 0.00162473 0)
(-0.00490947 0.00188064 0)
(-0.00652423 0.00212704 0)
(-0.00807379 0.00231557 0)
(-0.0095472 0.00242153 0)
(-0.010964 0.00243416 0)
(-0.0123016 0.00236835 0)
(-0.0135266 0.00224289 0)
(-0.0146062 0.00206316 0)
(-0.0155293 0.00181189 0)
(-0.0162762 0.00150562 0)
(-0.0168434 0.00113479 0)
(-0.0172316 0.000731195 0)
(-0.0174179 0.000320157 0)
(-0.0173897 -7.2584e-05 0)
(-0.0171358 -0.000446063 0)
(-0.0166513 -0.000790111 0)
(-0.0159435 -0.00110138 0)
(-0.015013 -0.00137769 0)
(-0.0138798 -0.00162522 0)
(-0.0125874 -0.00182336 0)
(-0.0111587 -0.00197622 0)
(-0.00964157 -0.00208365 0)
(-0.00808762 -0.00213704 0)
(-0.00653324 -0.00213653 0)
(-0.00501155 -0.00207043 0)
(-0.00353151 -0.00194249 0)
(-0.0021361 -0.00176551 0)
(-0.000888581 -0.00152056 0)
(0.000135636 -0.00122576 0)
(0.000904085 -0.000891075 0)
(0.00139091 -0.000540457 0)
(0.00157351 -0.000201643 0)
(0.00152844 7.34117e-05 0)
(0.00116041 9.56554e-05 0)
(0.00115131 -0.00014009 0)
(0.000943959 0.00123 0)
(-0.000943234 0.00227489 0)
(-0.00104124 -0.00013654 0)
(-0.00100908 0.000338761 0)
(-0.00140854 0.000354032 0)
(-0.00151611 -4.68163e-05 0)
(-0.00144063 -0.000574026 0)
(-0.00108363 -0.00112392 0)
(-0.000491318 -0.00164471 0)
(0.000315984 -0.00209321 0)
(0.00131834 -0.00243792 0)
(0.00245356 -0.00270454 0)
(0.00366785 -0.00284775 0)
(0.00490261 -0.00288482 0)
(0.0061249 -0.00284377 0)
(0.00730885 -0.00272997 0)
(0.0084171 -0.00253452 0)
(0.00942893 -0.00227458 0)
(0.0103276 -0.00199859 0)
(0.0110912 -0.0016683 0)
(0.0117139 -0.00132753 0)
(0.0122 -0.000977399 0)
(0.0125425 -0.000626296 0)
(0.0127417 -0.000284627 0)
(0.0128095 3.81535e-05 0)
(0.0127549 0.000329534 0)
(0.0125884 0.000590583 0)
(0.0123315 0.000820837 0)
(0.0119927 0.00103053 0)
(0.0115703 0.00121729 0)
(0.01107 0.00137896 0)
(0.0105037 0.00151933 0)
(0.00989795 0.00162687 0)
(0.00927183 0.00170196 0)
(0.00862814 0.00176761 0)
(0.00795067 0.00182893 0)
(0.00719568 0.00189789 0)
(0.00635643 0.00198939 0)
(0.00544296 0.0020979 0)
(0.00441789 0.00223636 0)
(0.00330019 0.00239615 0)
(0.00209707 0.00259938 0)
(0.000788992 0.00282733 0)
(-0.000592248 0.0030683 0)
(-0.00204208 0.00329905 0)
(-0.0035355 0.00350376 0)
(-0.00505128 0.0036664 0)
(-0.00657721 0.00378474 0)
(-0.00810099 0.00383874 0)
(-0.00962834 0.00380539 0)
(-0.011143 0.00368278 0)
(-0.0125966 0.00343986 0)
(-0.0139306 0.0030963 0)
(-0.0150893 0.00266833 0)
(-0.0160452 0.00217168 0)
(-0.0167787 0.00161542 0)
(-0.0172774 0.00101664 0)
(-0.0175261 0.000391589 0)
(-0.0175229 -0.000238028 0)
(-0.0172652 -0.000845099 0)
(-0.016757 -0.00142448 0)
(-0.0160165 -0.00196498 0)
(-0.0150607 -0.00245479 0)
(-0.0139221 -0.00288237 0)
(-0.0126359 -0.00322788 0)
(-0.0112319 -0.00347994 0)
(-0.00973662 -0.00364824 0)
(-0.00818887 -0.00372193 0)
(-0.00662838 -0.00371031 0)
(-0.00507941 -0.00360408 0)
(-0.00357766 -0.00339952 0)
(-0.00216611 -0.0031046 0)
(-0.00090843 -0.00267251 0)
(0.000132739 -0.00214982 0)
(0.000926372 -0.00153593 0)
(0.0014311 -0.000890398 0)
(0.001614 -0.000240482 0)
(0.0015524 0.000284613 0)
(0.00118642 0.000347446 0)
(0.00118922 -1.54235e-05 0)
(0.000960874 0.00236512 0)
(-0.0010726 0.00329048 0)
(-0.00124617 -0.00013525 0)
(-0.00125886 0.000556625 0)
(-0.00177904 0.00059954 0)
(-0.00198601 6.54219e-06 0)
(-0.00197551 -0.000786022 0)
(-0.00163997 -0.00160069 0)
(-0.00100814 -0.00236613 0)
(-0.000103375 -0.00300911 0)
(0.00100097 -0.00351237 0)
(0.00223702 -0.00386777 0)
(0.00358264 -0.00407526 0)
(0.00494046 -0.00413742 0)
(0.00625497 -0.00406027 0)
(0.007515 -0.00387633 0)
(0.00869217 -0.00359331 0)
(0.00974034 -0.00323637 0)
(0.0106613 -0.00282154 0)
(0.0114434 -0.00236111 0)
(0.0120598 -0.00187097 0)
(0.0125276 -0.00136373 0)
(0.0128509 -0.000860322 0)
(0.0130217 -0.000362969 0)
(0.0130408 0.000108859 0)
(0.0129222 0.000550948 0)
(0.0126741 0.000945834 0)
(0.0123125 0.00129946 0)
(0.0118471 0.00159546 0)
(0.0113055 0.00184067 0)
(0.010707 0.00204531 0)
(0.0100575 0.00221071 0)
(0.00936944 0.00232868 0)
(0.0086588 0.00239957 0)
(0.00793 0.00246321 0)
(0.0071887 0.00253184 0)
(0.00644486 0.00259826 0)
(0.00569395 0.00269668 0)
(0.00494282 0.00282965 0)
(0.00417287 0.00300815 0)
(0.00335347 0.00324128 0)
(0.00246604 0.00353578 0)
(0.00146703 0.00387514 0)
(0.000330958 0.00424144 0)
(-0.000964715 0.00460561 0)
(-0.00239374 0.00493524 0)
(-0.00394309 0.00520153 0)
(-0.00560031 0.0054015 0)
(-0.007321 0.00550757 0)
(-0.00903771 0.00548701 0)
(-0.0107364 0.00533747 0)
(-0.0123795 0.00502072 0)
(-0.0138913 0.00455373 0)
(-0.0152383 0.00394426 0)
(-0.0163763 0.00320711 0)
(-0.0172507 0.00238366 0)
(-0.0178453 0.00149149 0)
(-0.0181545 0.000575447 0)
(-0.0181736 -0.000336968 0)
(-0.0179087 -0.00121689 0)
(-0.0173723 -0.00205475 0)
(-0.0165801 -0.00282866 0)
(-0.0155645 -0.00352178 0)
(-0.0143616 -0.00411447 0)
(-0.0130022 -0.00458844 0)
(-0.0115142 -0.00494747 0)
(-0.00992835 -0.00519076 0)
(-0.00828144 -0.00531171 0)
(-0.00660218 -0.00529948 0)
(-0.00492334 -0.00515561 0)
(-0.00330121 -0.0048781 0)
(-0.00176185 -0.00444619 0)
(-0.000389243 -0.00384294 0)
(0.000746945 -0.00309548 0)
(0.00161415 -0.00220457 0)
(0.0021296 -0.00123393 0)
(0.00225858 -0.000259354 0)
(0.0020835 0.000504867 0)
(0.00157847 0.000588818 0)
(0.001486 0.000100623 0)
(0.00111049 0.00352001 0)
(-0.00127447 0.00459679 0)
(-0.00159045 1.83623e-05 0)
(-0.00172046 0.000935312 0)
(-0.00242935 0.00102546 0)
(-0.00280533 0.00019285 0)
(-0.00288751 -0.000951543 0)
(-0.0025448 -0.0021161 0)
(-0.00181292 -0.00319268 0)
(-0.000762896 -0.00408647 0)
(0.000518033 -0.00478153 0)
(0.00194889 -0.00523499 0)
(0.00346094 -0.00549494 0)
(0.00498186 -0.00554836 0)
(0.00644952 -0.00543367 0)
(0.00782518 -0.00515609 0)
(0.00909093 -0.00475362 0)
(0.0102252 -0.00426828 0)
(0.0112056 -0.00369155 0)
(0.0120216 -0.0030881 0)
(0.0126699 -0.00243593 0)
(0.013145 -0.00176518 0)
(0.013456 -0.00109499 0)
(0.0136023 -0.000449457 0)
(0.0135873 0.000169877 0)
(0.0134244 0.000746875 0)
(0.0131297 0.00125863 0)
(0.0127198 0.00170926 0)
(0.0122031 0.00209556 0)
(0.0116152 0.00242733 0)
(0.0109741 0.00269288 0)
(0.0102771 0.0028962 0)
(0.00953409 0.00304901 0)
(0.00877831 0.00315809 0)
(0.0080128 0.00323297 0)
(0.0072298 0.00329588 0)
(0.00646273 0.00335536 0)
(0.00573442 0.00343897 0)
(0.00503488 0.00357082 0)
(0.00434263 0.00375732 0)
(0.00361731 0.00404347 0)
(0.00283426 0.00442747 0)
(0.00191501 0.00492314 0)
(0.000823321 0.00545124 0)
(-0.000470505 0.00599158 0)
(-0.0019615 0.00648663 0)
(-0.00361434 0.00688799 0)
(-0.00539873 0.00717457 0)
(-0.00728049 0.00732818 0)
(-0.00918096 0.00731144 0)
(-0.0110616 0.00709874 0)
(-0.0128761 0.00668434 0)
(-0.0145556 0.00606009 0)
(-0.0160488 0.00523112 0)
(-0.0172909 0.00426314 0)
(-0.0182554 0.00315226 0)
(-0.0189183 0.00196537 0)
(-0.0192542 0.000737676 0)
(-0.0192672 -0.000479472 0)
(-0.0189616 -0.00165905 0)
(-0.0183486 -0.00277542 0)
(-0.0174607 -0.00380047 0)
(-0.0163382 -0.00470968 0)
(-0.0150122 -0.00548077 0)
(-0.0135231 -0.00609908 0)
(-0.0119063 -0.00657128 0)
(-0.0101834 -0.00690115 0)
(-0.00838584 -0.00705944 0)
(-0.0065531 -0.00705443 0)
(-0.00471561 -0.00688493 0)
(-0.00290993 -0.0065406 0)
(-0.00118236 -0.0059662 0)
(0.000374735 -0.0051938 0)
(0.001692 -0.00417294 0)
(0.00268349 -0.00292828 0)
(0.00322577 -0.0015447 0)
(0.00328283 -0.000154805 0)
(0.00294413 0.000926325 0)
(0.00220582 0.00104788 0)
(0.0019215 0.000410171 0)
(0.00133663 0.00500865 0)
(-0.00152516 0.0062082 0)
(-0.00202313 0.000332634 0)
(-0.0023345 0.00149118 0)
(-0.00330993 0.00166234 0)
(-0.00394563 0.000515876 0)
(-0.00415533 -0.00107927 0)
(-0.00379802 -0.00269161 0)
(-0.00292275 -0.00417159 0)
(-0.00163786 -0.00537083 0)
(-8.96765e-05 -0.00625534 0)
(0.00158873 -0.00682024 0)
(0.00334094 -0.0070904 0)
(0.00507503 -0.0071172 0)
(0.00672001 -0.00693285 0)
(0.00825251 -0.00655444 0)
(0.00963552 -0.00601909 0)
(0.0108736 -0.00536537 0)
(0.011923 -0.00464183 0)
(0.012787 -0.00385372 0)
(0.0134737 -0.00300911 0)
(0.0139611 -0.00215609 0)
(0.0142622 -0.00130638 0)
(0.0143873 -0.000483159 0)
(0.0143414 0.000298279 0)
(0.014121 0.00102186 0)
(0.0137566 0.00166045 0)
(0.013275 0.00222848 0)
(0.0126918 0.00270415 0)
(0.0120413 0.00310412 0)
(0.0113334 0.00341682 0)
(0.0105808 0.00364486 0)
(0.00980042 0.00382075 0)
(0.00900647 0.00394044 0)
(0.00821035 0.00401611 0)
(0.00742574 0.0040523 0)
(0.00667422 0.0040771 0)
(0.00596561 0.0041258 0)
(0.0052947 0.00423377 0)
(0.00466112 0.00441514 0)
(0.00400993 0.00475631 0)
(0.00330521 0.00524177 0)
(0.00243379 0.00590429 0)
(0.00133369 0.00664204 0)
(6.3086e-06 0.00739297 0)
(-0.0015519 0.00808825 0)
(-0.00331974 0.0086694 0)
(-0.00525786 0.00908926 0)
(-0.00732426 0.00932103 0)
(-0.00944007 0.00933408 0)
(-0.0115382 0.00908326 0)
(-0.01357 0.00856587 0)
(-0.0154657 0.00777843 0)
(-0.0171345 0.00673399 0)
(-0.0185463 0.00547157 0)
(-0.0196442 0.00403769 0)
(-0.0203737 0.00251133 0)
(-0.020735 0.000928704 0)
(-0.0207175 -0.000645583 0)
(-0.0203417 -0.00216548 0)
(-0.0196244 -0.00359055 0)
(-0.018606 -0.00489176 0)
(-0.0173344 -0.00602611 0)
(-0.0158458 -0.00698686 0)
(-0.0141854 -0.00776533 0)
(-0.0124027 -0.00835373 0)
(-0.0105061 -0.00875522 0)
(-0.00852901 -0.00896937 0)
(-0.00651378 -0.00898957 0)
(-0.00447273 -0.00880174 0)
(-0.0024318 -0.00838633 0)
(-0.000464359 -0.00771419 0)
(0.00135728 -0.0067619 0)
(0.0029573 -0.00543851 0)
(0.00415034 -0.00375347 0)
(0.00475963 -0.00183699 0)
(0.00471468 8.13941e-05 0)
(0.00410482 0.0015615 0)
(0.00303996 0.00174519 0)
(0.0025031 0.000958141 0)
(0.00164163 0.0068836 0)
(-0.00179296 0.00815753 0)
(-0.00246727 0.000913797 0)
(-0.00309417 0.00227507 0)
(-0.00447753 0.00263079 0)
(-0.00551949 0.00105791 0)
(-0.00590747 -0.00111922 0)
(-0.00552137 -0.00334681 0)
(-0.00441943 -0.00537807 0)
(-0.00276995 -0.00695933 0)
(-0.000838955 -0.00804763 0)
(0.00121136 -0.0086967 0)
(0.00325478 -0.00893378 0)
(0.0052312 -0.0089136 0)
(0.00710597 -0.00860817 0)
(0.00881372 -0.00809343 0)
(0.0103471 -0.00739904 0)
(0.011689 -0.00656968 0)
(0.0128226 -0.00566488 0)
(0.0137658 -0.00467152 0)
(0.0144871 -0.00361871 0)
(0.0149834 -0.00255689 0)
(0.0152772 -0.00150182 0)
(0.0153636 -0.000483957 0)
(0.0152562 0.000477305 0)
(0.0149546 0.0013622 0)
(0.0145072 0.00215088 0)
(0.0139376 0.0028249 0)
(0.013259 0.00339145 0)
(0.0125296 0.0038406 0)
(0.0117506 0.00419403 0)
(0.0109377 0.00445839 0)
(0.0100968 0.0046395 0)
(0.00924638 0.0047519 0)
(0.00840764 0.00481146 0)
(0.00759358 0.00481644 0)
(0.00684311 0.00479305 0)
(0.00616785 0.00477857 0)
(0.00555946 0.00482788 0)
(0.00503167 0.00499688 0)
(0.00450929 0.00538236 0)
(0.00391304 0.00598502 0)
(0.00314528 0.00686492 0)
(0.0020808 0.00785047 0)
(0.000707267 0.0088706 0)
(-0.0009463 0.0098165 0)
(-0.0028636 0.0106152 0)
(-0.00500452 0.0112026 0)
(-0.0073119 0.011544 0)
(-0.00970809 0.0116042 0)
(-0.0121057 0.0113365 0)
(-0.0144235 0.0107047 0)
(-0.0165895 0.00972485 0)
(-0.018528 0.0084271 0)
(-0.0201517 0.00683933 0)
(-0.0213855 0.00503583 0)
(-0.0222058 0.00310069 0)
(-0.0225949 0.00110611 0)
(-0.0225426 -0.000871325 0)
(-0.022074 -0.00277418 0)
(-0.0212258 -0.00454573 0)
(-0.020036 -0.00613527 0)
(-0.0185658 -0.00751764 0)
(-0.0168776 -0.00868204 0)
(-0.0150078 -0.009618 0)
(-0.0130081 -0.0103249 0)
(-0.0109086 -0.0108109 0)
(-0.00872612 -0.011076 0)
(-0.00648538 -0.0111226 0)
(-0.00420331 -0.0109422 0)
(-0.00190623 -0.01049 0)
(0.000367142 -0.00978035 0)
(0.00258191 -0.00865574 0)
(0.00461183 -0.006997 0)
(0.0061533 -0.0047628 0)
(0.00688094 -0.00211269 0)
(0.0066769 0.000535856 0)
(0.00567509 0.00256172 0)
(0.00414313 0.00276062 0)
(0.00317015 0.00187929 0)
(0.00198697 0.00922794 0)
(-0.00197415 0.0104449 0)
(-0.00293377 0.00185142 0)
(-0.00389554 0.00347164 0)
(-0.0058892 0.00415846 0)
(-0.00765797 0.00195524 0)
(-0.00833055 -0.00104708 0)
(-0.00792437 -0.00417137 0)
(-0.00644335 -0.00696548 0)
(-0.00420545 -0.00900187 0)
(-0.00170194 -0.0102879 0)
(0.000834196 -0.010948 0)
(0.00324206 -0.0111093 0)
(0.00551018 -0.010942 0)
(0.00765163 -0.0105077 0)
(0.00956097 -0.00980796 0)
(0.011248 -0.00890682 0)
(0.0127107 -0.0078719 0)
(0.0139432 -0.00673647 0)
(0.0149616 -0.00552836 0)
(0.0157268 -0.00425917 0)
(0.0162426 -0.00295689 0)
(0.0165226 -0.00167166 0)
(0.0165604 -0.000432963 0)
(0.0163848 0.000728996 0)
(0.0159925 0.00179061 0)
(0.0154217 0.00273954 0)
(0.0147291 0.0035295 0)
(0.0139382 0.00416824 0)
(0.0130991 0.00467913 0)
(0.0122381 0.00506317 0)
(0.0113371 0.00534731 0)
(0.0104141 0.00552556 0)
(0.00949324 0.00562462 0)
(0.00858761 0.00564639 0)
(0.00773152 0.00559328 0)
(0.00696394 0.0054866 0)
(0.00630803 0.00537196 0)
(0.00579655 0.00532189 0)
(0.005431 0.00543405 0)
(0.00509325 0.00585138 0)
(0.00469901 0.00658043 0)
(0.00409598 0.00773115 0)
(0.00310563 0.00903312 0)
(0.00170859 0.0104014 0)
(-7.91186e-05 0.0116801 0)
(-0.00220802 0.0127613 0)
(-0.00461556 0.0135774 0)
(-0.00723233 0.0140739 0)
(-0.00997473 0.0141995 0)
(-0.012756 0.0139141 0)
(-0.0154692 0.0131843 0)
(-0.0179959 0.0119981 0)
(-0.0202511 0.0103962 0)
(-0.022158 0.00843217 0)
(-0.023601 0.00617469 0)
(-0.0245216 0.00374872 0)
(-0.0249194 0.00126922 0)
(-0.0248009 -0.00117387 0)
(-0.0242087 -0.0035183 0)
(-0.0231744 -0.00567238 0)
(-0.0217603 -0.00758788 0)
(-0.0200441 -0.00924561 0)
(-0.0180911 -0.0106184 0)
(-0.0159684 -0.0117052 0)
(-0.0137385 -0.0125265 0)
(-0.0113968 -0.0130894 0)
(-0.00896785 -0.0134172 0)
(-0.00649908 -0.0135062 0)
(-0.00396155 -0.0133435 0)
(-0.00138834 -0.0129273 0)
(0.00126122 -0.012228 0)
(0.00403611 -0.0110246 0)
(0.00673547 -0.009053 0)
(0.00888333 -0.00607991 0)
(0.00983617 -0.00237242 0)
(0.00938611 0.00131251 0)
(0.00768093 0.00417097 0)
(0.00541885 0.00427885 0)
(0.00393482 0.00328878 0)
(0.00231474 0.0120965 0)
(-0.00191884 0.0130658 0)
(-0.00390982 0.00323317 0)
(-0.00507889 0.00514922 0)
(-0.00760632 0.0065851 0)
(-0.0105499 0.00342731 0)
(-0.0116841 -0.00077275 0)
(-0.0112452 -0.00524765 0)
(-0.0091086 -0.00917872 0)
(-0.00594752 -0.0117254 0)
(-0.00262184 -0.0131316 0)
(0.000553974 -0.0136693 0)
(0.00341926 -0.0136505 0)
(0.00600023 -0.0132677 0)
(0.00841394 -0.0126267 0)
(0.0105791 -0.0117226 0)
(0.0124366 -0.0105779 0)
(0.0140141 -0.0092976 0)
(0.0153321 -0.00791447 0)
(0.0164185 -0.00645371 0)
(0.0172438 -0.00493414 0)
(0.0177782 -0.00336088 0)
(0.0180359 -0.00180227 0)
(0.018016 -0.000296656 0)
(0.0177411 0.00111269 0)
(0.0172301 0.00237024 0)
(0.0165181 0.00347794 0)
(0.0156633 0.00438089 0)
(0.0147416 0.00507888 0)
(0.0137883 0.00563588 0)
(0.0128131 0.00604316 0)
(0.0118112 0.00632977 0)
(0.0107867 0.00651354 0)
(0.00976966 0.00659085 0)
(0.00877148 0.00656119 0)
(0.0078365 0.00641719 0)
(0.00702899 0.00617856 0)
(0.00641127 0.00589301 0)
(0.00602414 0.00566892 0)
(0.00586354 0.00566239 0)
(0.00579296 0.00607899 0)
(0.00571304 0.00694218 0)
(0.00532737 0.00841705 0)
(0.00443819 0.0101805 0)
(0.00302732 0.0120131 0)
(0.00108236 0.0137283 0)
(-0.00131723 0.0151759 0)
(-0.00406828 0.0162821 0)
(-0.00708987 0.0169856 0)
(-0.0102809 0.0172241 0)
(-0.0135272 0.0169427 0)
(-0.0167232 0.0161035 0)
(-0.0197321 0.0146801 0)
(-0.0224215 0.012701 0)
(-0.0246728 0.0102626 0)
(-0.0263495 0.00748968 0)
(-0.0273785 0.00449131 0)
(-0.0277719 0.00143471 0)
(-0.0275734 -0.00156663 0)
(-0.0268056 -0.00442994 0)
(-0.0255228 -0.00702348 0)
(-0.0238249 -0.00931866 0)
(-0.0217884 -0.0112646 0)
(-0.0195146 -0.0128484 0)
(-0.017098 -0.0140818 0)
(-0.0145784 -0.0149974 0)
(-0.011972 -0.015623 0)
(-0.00930209 -0.0160051 0)
(-0.00657539 -0.0161294 0)
(-0.00379917 -0.0159937 0)
(-0.00096158 -0.0157174 0)
(0.00212225 -0.0151739 0)
(0.00563428 -0.014077 0)
(0.00940305 -0.0119366 0)
(0.0125728 -0.00794567 0)
(0.0138927 -0.0025712 0)
(0.0130703 0.00263995 0)
(0.0102084 0.00674429 0)
(0.00712679 0.00643547 0)
(0.00528587 0.00535362 0)
(0.00249725 0.0155706 0)
(-0.00103911 0.0160499 0)
(-0.00549645 0.00557922 0)
(-0.00841848 0.00688182 0)
(-0.0103223 0.00986837 0)
(-0.0147346 0.00585688 0)
(-0.0163562 -0.000121976 0)
(-0.0158468 -0.00673072 0)
(-0.0126328 -0.0124502 0)
(-0.00797266 -0.0154994 0)
(-0.00344056 -0.0167978 0)
(0.000579071 -0.0169951 0)
(0.00394502 -0.0166223 0)
(0.00686353 -0.0159386 0)
(0.00953894 -0.0150046 0)
(0.0119527 -0.0138302 0)
(0.014009 -0.0124099 0)
(0.0157071 -0.0108341 0)
(0.0171203 -0.00917974 0)
(0.0182729 -0.00744668 0)
(0.019153 -0.00564584 0)
(0.0197228 -0.00376933 0)
(0.019958 -0.00188237 0)
(0.0198577 -6.05785e-05 0)
(0.0194308 0.0016325 0)
(0.0187354 0.00313645 0)
(0.017827 0.00441755 0)
(0.0167657 0.00540952 0)
(0.0156749 0.00616304 0)
(0.0145746 0.00671901 0)
(0.0134705 0.00712803 0)
(0.0123689 0.00741694 0)
(0.0112446 0.00759594 0)
(0.0101062 0.00764983 0)
(0.0089814 0.00756081 0)
(0.00794142 0.00729828 0)
(0.00707127 0.006866 0)
(0.00644543 0.00631983 0)
(0.00612529 0.00581495 0)
(0.00615947 0.00561739 0)
(0.00655718 0.0059218 0)
(0.00721333 0.0069648 0)
(0.00717686 0.00893121 0)
(0.00628443 0.0112858 0)
(0.00472118 0.0137257 0)
(0.00255334 0.0159962 0)
(-0.00016874 0.0179262 0)
(-0.00333311 0.0193946 0)
(-0.00684315 0.0203518 0)
(-0.0105864 0.0207501 0)
(-0.0144385 0.0205125 0)
(-0.0182687 0.0195703 0)
(-0.0219069 0.0178774 0)
(-0.0251401 0.0154671 0)
(-0.0277892 0.0124394 0)
(-0.029752 0.00897941 0)
(-0.0309356 0.00528557 0)
(-0.0313336 0.00153099 0)
(-0.0310224 -0.00212443 0)
(-0.0300183 -0.00557019 0)
(-0.0284068 -0.00868044 0)
(-0.0263286 -0.011396 0)
(-0.0238859 -0.0136414 0)
(-0.0212223 -0.0154194 0)
(-0.0184388 -0.016761 0)
(-0.0155865 -0.0177386 0)
(-0.0126853 -0.0184254 0)
(-0.00974882 -0.0188354 0)
(-0.00677938 -0.018955 0)
(-0.00384128 -0.0189316 0)
(-0.000798588 -0.0188673 0)
(0.00280032 -0.0187348 0)
(0.00729199 -0.0182013 0)
(0.0128162 -0.0162262 0)
(0.0178254 -0.0108497 0)
(0.0196774 -0.00268961 0)
(0.01837 0.0048584 0)
(0.0139001 0.0103818 0)
(0.0109437 0.00895216 0)
(0.00765001 0.00851525 0)
(0.00211582 0.0198255 0)
(0.00170103 0.0195338 0)
(-0.00433985 0.0115257 0)
(-0.014735 0.00912665 0)
(-0.0159549 0.0130457 0)
(-0.0217108 0.0090239 0)
(-0.0239798 0.000706238 0)
(-0.0232349 -0.00892969 0)
(-0.0176919 -0.0173238 0)
(-0.0100534 -0.0209404 0)
(-0.00400713 -0.0216926 0)
(0.000842342 -0.0211017 0)
(0.00463987 -0.0200696 0)
(0.00775962 -0.0189247 0)
(0.0105954 -0.0176581 0)
(0.0132319 -0.0161186 0)
(0.0155914 -0.0143706 0)
(0.0175789 -0.0124519 0)
(0.0192134 -0.0105195 0)
(0.0205316 -0.00850076 0)
(0.0215303 -0.00639644 0)
(0.0221654 -0.00417967 0)
(0.0223832 -0.00190204 0)
(0.0221751 0.00030906 0)
(0.021564 0.00234351 0)
(0.0206289 0.00412138 0)
(0.0194301 0.00558499 0)
(0.0181022 0.0066855 0)
(0.0167958 0.00745285 0)
(0.0155158 0.00796483 0)
(0.0142943 0.00834217 0)
(0.0130963 0.00864562 0)
(0.0118609 0.0088299 0)
(0.0105924 0.00886132 0)
(0.00932093 0.00869932 0)
(0.00811646 0.00827987 0)
(0.00702889 0.00759726 0)
(0.00610318 0.00675215 0)
(0.00557216 0.00586507 0)
(0.00580252 0.00511298 0)
(0.00719906 0.00494508 0)
(0.00944287 0.00627102 0)
(0.0101883 0.00928231 0)
(0.00920572 0.0125439 0)
(0.00713677 0.0156951 0)
(0.00443796 0.0185715 0)
(0.00122713 0.0210857 0)
(-0.00245597 0.0230044 0)
(-0.00654454 0.02432 0)
(-0.0109481 0.0249858 0)
(-0.0155342 0.0248514 0)
(-0.0201554 0.023806 0)
(-0.024597 0.0218003 0)
(-0.0285794 0.018844 0)
(-0.0318225 0.0150568 0)
(-0.0341215 0.0107215 0)
(-0.0354322 0.00614885 0)
(-0.0357887 0.00153486 0)
(-0.0352708 -0.00290039 0)
(-0.0339453 -0.00704228 0)
(-0.0319291 -0.0107503 0)
(-0.0293558 -0.0139251 0)
(-0.0263488 -0.0164843 0)
(-0.0230978 -0.0184217 0)
(-0.0197488 -0.0198266 0)
(-0.0164099 -0.0208286 0)
(-0.013124 -0.0215301 0)
(-0.00986225 -0.021927 0)
(-0.00669306 -0.0220383 0)
(-0.00368245 -0.0221199 0)
(-0.000611192 -0.0224268 0)
(0.00298193 -0.0231444 0)
(0.00814535 -0.0239092 0)
(0.0170078 -0.0227711 0)
(0.0269582 -0.0151918 0)
(0.0296295 -0.00283749 0)
(0.0271582 0.00807242 0)
(0.0209256 0.0144435 0)
(0.0185612 0.0122501 0)
(0.00838502 0.0152207 0)
(0.000544872 0.0252267 0)
(0.000507574 0.0186213 0)
(0.00439047 0.0245404 0)
(-0.0154885 0.0184292 0)
(-0.0260259 0.0186313 0)
(-0.0327806 0.0138953 0)
(-0.0372635 0.00234151 0)
(-0.036346 -0.012527 0)
(-0.025584 -0.0258238 0)
(-0.011355 -0.0290119 0)
(-0.00317356 -0.0277657 0)
(0.00136762 -0.0258252 0)
(0.00465451 -0.0238156 0)
(0.00758159 -0.0220919 0)
(0.0105309 -0.0205712 0)
(0.0134008 -0.0188038 0)
(0.0160432 -0.0167051 0)
(0.0184281 -0.0144552 0)
(0.020564 -0.0122041 0)
(0.0223678 -0.0098145 0)
(0.0236629 -0.00728364 0)
(0.0244539 -0.00462635 0)
(0.0247323 -0.00184761 0)
(0.0245247 0.000842587 0)
(0.0238276 0.00330405 0)
(0.0226741 0.00538775 0)
(0.021144 0.00703818 0)
(0.0194196 0.00820038 0)
(0.017763 0.00889985 0)
(0.0163223 0.00932638 0)
(0.015107 0.00963808 0)
(0.0139555 0.00992673 0)
(0.0127122 0.0101453 0)
(0.0113657 0.0101994 0)
(0.00989664 0.0100162 0)
(0.00826769 0.00953215 0)
(0.00646237 0.0087658 0)
(0.00468514 0.00767755 0)
(0.00372221 0.0060225 0)
(0.00466123 0.00379015 0)
(0.00783664 0.00213979 0)
(0.0121069 0.00383709 0)
(0.0144048 0.00907067 0)
(0.0137714 0.0142383 0)
(0.0110126 0.0184526 0)
(0.00724822 0.021872 0)
(0.00301672 0.0247642 0)
(-0.00148265 0.0271622 0)
(-0.00620536 0.028931 0)
(-0.0113176 0.0299395 0)
(-0.0167584 0.0299746 0)
(-0.022301 0.0288819 0)
(-0.0276998 0.026541 0)
(-0.0326007 0.022956 0)
(-0.0365882 0.0182581 0)
(-0.0393466 0.012828 0)
(-0.0407868 0.00709124 0)
(-0.0409049 0.00137101 0)
(-0.0398869 -0.00399105 0)
(-0.0379938 -0.00894283 0)
(-0.0354045 -0.0133395 0)
(-0.0321906 -0.0170786 0)
(-0.0283499 -0.0200475 0)
(-0.0241048 -0.0221884 0)
(-0.0197951 -0.023599 0)
(-0.0157528 -0.0244744 0)
(-0.012049 -0.0250334 0)
(-0.00851614 -0.0252838 0)
(-0.00517771 -0.0252514 0)
(-0.00247586 -0.0251757 0)
(-0.0007821 -0.025634 0)
(0.00032862 -0.0270753 0)
(0.00465739 -0.0307154 0)
(0.019296 -0.0343771 0)
(0.0405844 -0.0232106 0)
(0.0474704 -0.00204153 0)
(0.0419416 0.0135796 0)
(0.0333556 0.0204933 0)
(0.0242658 0.0215112 0)
(0.00197408 0.0287081 0)
(-0.000240475 0.0288524 0)
(0.00469498 0.0133907 0)
(0.0219361 0.0281011 0)
(0.00597168 0.0400514 0)
(-0.0325099 0.0306781 0)
(-0.0472915 0.0205571 0)
(-0.0568086 0.00572423 0)
(-0.0564602 -0.0200967 0)
(-0.0393104 -0.042282 0)
(-0.0142553 -0.041798 0)
(0.00117304 -0.0331925 0)
(0.00554696 -0.02867 0)
(0.00699909 -0.0265092 0)
(0.00931922 -0.0250936 0)
(0.012646 -0.0237486 0)
(0.0157112 -0.0219223 0)
(0.0176796 -0.019582 0)
(0.0191095 -0.017172 0)
(0.0208957 -0.0145472 0)
(0.0229212 -0.0116411 0)
(0.0245444 -0.00841754 0)
(0.0256397 -0.00512784 0)
(0.0261444 -0.0018265 0)
(0.026039 0.00139111 0)
(0.0253245 0.00441931 0)
(0.0239699 0.00700747 0)
(0.0220083 0.00894536 0)
(0.0197195 0.0101251 0)
(0.0176582 0.0105611 0)
(0.0161368 0.0107015 0)
(0.0151318 0.0108664 0)
(0.0143376 0.0111528 0)
(0.0134164 0.011476 0)
(0.0121889 0.0116857 0)
(0.0104323 0.0117634 0)
(0.00797865 0.0116072 0)
(0.005056 0.0110362 0)
(0.00265147 0.00928444 0)
(0.00235858 0.00568321 0)
(0.00498235 0.000842469 0)
(0.00973349 -0.00281955 0)
(0.0149094 -0.000643719 0)
(0.0185267 0.00741367 0)
(0.0189142 0.0158198 0)
(0.0161313 0.0221807 0)
(0.0112652 0.026529 0)
(0.00560082 0.0295894 0)
(-0.000111612 0.0321451 0)
(-0.0057289 0.0342521 0)
(-0.0115169 0.0357048 0)
(-0.0176328 0.0360633 0)
(-0.0240047 0.0350223 0)
(-0.0303952 0.0323474 0)
(-0.036427 0.0279748 0)
(-0.0414656 0.0221187 0)
(-0.0448375 0.015212 0)
(-0.04632 0.0078947 0)
(-0.0458926 0.000770054 0)
(-0.0440165 -0.00568183 0)
(-0.0412646 -0.011412 0)
(-0.0378378 -0.0165306 0)
(-0.0337513 -0.0210576 0)
(-0.0288922 -0.0247127 0)
(-0.0236725 -0.0272177 0)
(-0.0189396 -0.0285357 0)
(-0.0152971 -0.0290195 0)
(-0.0122679 -0.0291665 0)
(-0.00890559 -0.0291087 0)
(-0.00543528 -0.0283008 0)
(-0.0034496 -0.0267499 0)
(-0.00463025 -0.0253701 0)
(-0.00659897 -0.0275667 0)
(0.000415742 -0.0410002 0)
(0.0236901 -0.0585994 0)
(0.0527617 -0.0442657 0)
(0.0685036 -0.00325124 0)
(0.0611663 0.0229245 0)
(0.0459466 0.0324165 0)
(0.0111231 0.0439713 0)
(-0.0161926 0.0416308 0)
(-0.00471342 0.0260558 0)
(0.022134 -0.00538805 0)
(0.0575605 0.0291024 0)
(0.0540406 0.0790104 0)
(-0.0048344 0.0734007 0)
(-0.054945 0.0401977 0)
(-0.074934 0.0152052 0)
(-0.0805471 -0.0291403 0)
(-0.0642403 -0.0681823 0)
(-0.0331419 -0.0692342 0)
(-0.00178793 -0.0467011 0)
(0.0134343 -0.030863 0)
(0.0186013 -0.0272538 0)
(0.022879 -0.0277199 0)
(0.0276327 -0.0267546 0)
(0.0303729 -0.0236033 0)
(0.0297099 -0.0202725 0)
(0.0271835 -0.0180922 0)
(0.025604 -0.0161651 0)
(0.0259831 -0.0135384 0)
(0.0275339 -0.010009 0)
(0.0292417 -0.00610356 0)
(0.0302533 -0.00213627 0)
(0.0300039 0.00185603 0)
(0.0285086 0.00563499 0)
(0.0261123 0.00914515 0)
(0.0232749 0.0117359 0)
(0.0204868 0.0129379 0)
(0.0183737 0.0128097 0)
(0.0169974 0.0119579 0)
(0.0159695 0.0114655 0)
(0.0150724 0.0116836 0)
(0.0140161 0.0123839 0)
(0.0126273 0.0132444 0)
(0.0105037 0.0141682 0)
(0.00751776 0.0147071 0)
(0.00459209 0.0137937 0)
(0.00356384 0.0100466 0)
(0.00577129 0.00345845 0)
(0.0100333 -0.00357395 0)
(0.0144404 -0.0079183 0)
(0.0177628 -0.00506844 0)
(0.0203414 0.00489728 0)
(0.0213174 0.0164588 0)
(0.0194574 0.0259572 0)
(0.0147641 0.0322945 0)
(0.00849408 0.0360896 0)
(0.00191412 0.0386153 0)
(-0.00451918 0.0405957 0)
(-0.0110938 0.0421416 0)
(-0.0182119 0.042895 0)
(-0.0261207 0.0421332 0)
(-0.034721 0.0394024 0)
(-0.0430801 0.0344167 0)
(-0.0497506 0.027213 0)
(-0.0536827 0.0182637 0)
(-0.0549505 0.00853505 0)
(-0.054099 -0.000557248 0)
(-0.0517074 -0.0084308 0)
(-0.0481451 -0.0150373 0)
(-0.0434399 -0.0209038 0)
(-0.0378633 -0.0262428 0)
(-0.0321041 -0.0303776 0)
(-0.0274767 -0.0325755 0)
(-0.0251798 -0.0325298 0)
(-0.0249345 -0.0317942 0)
(-0.0245067 -0.0320124 0)
(-0.0217629 -0.0328059 0)
(-0.0171017 -0.0312961 0)
(-0.0124594 -0.0265628 0)
(-0.00874501 -0.0233714 0)
(9.91723e-05 -0.034016 0)
(0.022044 -0.0636481 0)
(0.0518562 -0.0895521 0)
(0.071016 -0.0716954 0)
(0.082446 -0.00810113 0)