/*--------------------------------*- C++ -*----------------------------------*\
| =========                 |                                                 |
| \\      /  F ield         | OpenFOAM: The Open Source CFD Toolbox           |
|  \\    /   O peration     | Version:  2412                                  |
|   \\  /    A nd           | Website:  www.openfoam.com                      |
|    \\/     M anipulation  |                                                 |
\*---------------------------------------------------------------------------*/
FoamFile
{
    version     2.0;
    format      ascii;
    arch        "LSB;label=32;scalar=64";
    class       volScalarField;
    location    "6.85";
    object      alpha.gasoline;
}
// * * * * * * * * * * * * * * * * * * * * * * * * * * * * * * * * * * * * * //

dimensions      [0 0 0 0 0 0 0];

internalField   nonuniform List<scalar> 
6400
(
1
1.00001
1
0.999998
0.999998
0.999998
0.999999
1
1
1
0.999999
0.999999
0.999999
1
1
1
1
1
1
1
1
1
1
1
1
1
1
1
1
1
1
1
1
1
1
1
1
1
1
1
1
1
1
1
1
1
1
1
1
1
1
1
1
1
1
1
1
1
0.999999
0.999999
0.999999
0.999998
0.999997
0.999998
1
1
1
0.999999
0.999999
0.999999
1
1
1
1
1
1
1
1
1
1
0.999989
0.999998
1
1
0.999999
0.999998
0.999998
0.999998
0.999999
1
0.999999
0.999999
0.999999
1
1
1
1
1
1
1
1
1
0.999999
0.999999
1
0.999999
0.999999
0.999999
1
1
1
1
1
1
1
1
1
1
1
1
0.999999
0.999999
0.999999
0.999999
0.999999
1
1
1
1
1
1
1
1
1
1
1
1
1
0.999999
0.999998
0.999998
0.999999
1
1
0.999999
0.999998
0.999998
0.999998
0.999999
1
1
1
0.999999
0.999999
0.999999
0.999999
0.999999
0.999999
0.999999
0.999998
0.999998
0.999998
0.999999
0.999999
0.999999
0.999998
0.999999
1
0.999999
0.999999
0.999999
1
1
1
1
0.999999
0.999999
1
1
0.999998
0.999998
0.999998
0.999999
0.999999
0.999999
0.999999
1
1
1
1
1
1
1
1
1
1
0.999999
0.999999
0.999999
0.999999
0.999999
0.999998
0.999998
0.999998
0.999998
0.999998
0.999998
0.999999
1
1
1
1
1
1
1
1
1
1
1
1
1
1
0.999999
0.999999
0.999997
0.999997
0.999997
0.999999
1
0.999999
0.999998
0.999997
0.999997
0.999998
0.999999
0.999998
0.999998
0.999999
0.999999
0.999999
1
1
0.999999
0.999999
0.999999
1
1
1
1
0.999999
1
1
1
1
0.999999
0.999999
0.999999
1
1
1
1
1
1
1
1
1
1
1
1
1
1
0.999999
0.999999
1
1
1
1
1
1
1
1
1
1
1
1
1
1
1
1
1
1
1
1
1
1
1
1
1
1
0.999999
0.999999
0.999999
0.999999
0.999999
1
1
1
1
1
1
1
1
1
1
1
1
1
1
1
1
1
1
1
1
1
1
1
1
1
0.999999
0.999999
1
0.999999
0.999999
0.999999
1
1
1
1
1
1
1
1
1
1
1
1
1
1
1
1
1
1
1
1
1
1
1
1
1
1
1
1
1
1
1
1
1
1
1
1
1
1
1
0.999999
0.999999
0.999999
0.999999
0.999999
1
0.999999
0.999999
0.999999
1
1
1
1
1
1
1
1
1
1
1
1
1
1
1
1
1
1
1
1
1
1
1
1
1
0.999999
0.999999
0.999999
0.999999
1
1
1
1
1
1
1
1
1
1
1
1
1
1
1
1
1
1
1
1
1
1
1
1
1
1
1
1
1
1
1
1
1
1
1
1
1
0.999999
0.999998
0.999998
0.999999
1
1
1
1
1
1
1
1
1
1
1
1
0.999999
0.999999
0.999998
0.999998
0.999999
1
1
0.999999
0.999999
1
1
1
1
1
1
1
1
1
1
1
1
1
1
0.999999
0.999999
1
1
1
0.999998
0.999998
0.999998
0.999999
1
1
1
1
1
1
1
1
1
1
1
1
1
1
1
1
1
1
0.999999
0.999998
0.999998
0.999999
0.999999
1
1
1
1
1
1
1
1
1
1
1
1
1
1
1
1
1
1
1
1
1
1
1
1
1
1
0.999999
0.999998
0.999998
1
1
0.999999
0.999999
1
1
1
1
1
1
1
1
1
1
1
1
1
1
1
1
1
1
1
1
0.999998
0.999998
0.999999
1
1
1
1
1
1
1
1
1
1
1
1
1
1
1
1
1
0.999999
0.999999
0.999999
1
1
1
1
1
1
1
1
1
1
1
1
1
1
1
1
1
1
0.999999
0.999999
0.999999
1
1
1
1
1
1
1
1
1
0.999999
0.999999
0.999999
1
1
1
1
1
1
1
1
1
1
1
1
1
1
1
1
1
1
1
1
1
1
1
1
1
1
1
1
1
1
1
1
1
1
1
1
1
1
1
1
1
1
1
1
1
1
1
1
1
1
1
1
1
1
1
1
1
1
1
1
0.999999
0.999999
0.999999
1
1
1
1
1
1
1
1
1
1
1
1
1
1
0.999999
1
1
1
1
1
1
1
1
1
1
1
1
1
1
1
1
1
1
1
1
1
1
1
1
1
1
1
1
1
1
1
1
1
1
1
1
1
1
1
1
1
1
1
1
1
1
1
1
1
1
1
1
1
1
1
1
1
1
1
1
1
1
1
1
1
1
1
1
1
1
1
1
1
1
1
1
1
1
1
1
1
1
1
1
1
1
1
1
1
1
1
1
1
1
1
1
0.99992
0.999877
0.999951
0.999998
1
1
1
1
1
1
1
1
1
1
1
1
1
1
1
1
1
1
1
1
1
1
1
1
1
1
1
1
1
1
1
1
1
1
1
1
1
1
1
1
1
1
1
1
1
1
1
1
1
1
1
1
1
1
1
0.999999
0.999999
0.999999
0.999999
1
1
1
1
1
1
1
1
0.999963
0.999849
0.999862
1
1
1
1
1
0.99991
0.999736
0.999736
0.999776
0.999985
1
1
1
1
1
1
1
1
1
1
1
1
1
1
1
1
1
1
1
1
1
1
1
1
1
1
1
1
1
1
1
1
1
1
1
1
1
1
1
1
1
1
1
1
1
1
1
1
1
1
1
1
1
1
1
1
0.999999
0.999999
0.999999
1
1
1
1
1
1
1
1
0.999677
0.999266
0.999266
0.999825
1
1
1
1
0.999822
0.999736
0.999736
0.999752
0.999978
1
1
1
1
1
1
1
1
1
1
1
1
1
1
1
1
1
1
1
1
1
1
1
1
1
1
1
1
1
1
1
1
1
1
1
1
1
1
1
1
1
1
1
1
1
1
1
1
1
1
1
1
1
1
1
1
1
1
1
1
1
1
0.999999
1
1
1
0.999998
0.999548
0.999266
0.999266
0.999424
1
1
1
0.999997
0.999989
0.999824
0.999822
0.999932
0.999998
1
1
1
1
1
1
1
1
1
1
1
1
1
1
1
1
1
1
1
1
1
1
1
1
1
1
1
1
1
1
1
1
1
1
1
1
1
1
1
1
1
1
1
1
1
1
1
1
1
1
1
1
1
1
1
1
1
1
1
0.999999
0.999999
0.999999
0.999999
1
1
1
1
0.999857
0.999295
0.999267
0.99983
0.999999
1
1
0.999997
1
1
1
1
1
1
1
1
1
1
1
1
1
1
1
1
1
1
1
1
1
1
1
1
1
1
1
1
1
1
1
1
1
1
1
1
1
1
1
1
1
1
1
1
1
1
1
1
1
1
1
1
1
1
1
1
1
1
1
1
1
1
1
1
1
1
1
1
1
1
1
0.999999
0.999999
0.99994
0.999814
0.999997
0.999997
0.999999
1
1
1
1
1
1
1
1
1
1
1
1
1
1
1
1
1
1
1
1
1
1
1
1
1
1
1
1
1
1
1
1
1
0.999999
1
1
1
1
1
1
1
1
1
1
1
1
1
1
1
1
1
1
1
1
1
1
1
1
1
1
1
1
1
1
1
1
1
1
1
1
1
1
1
1
0.999998
1
1
0.999999
0.999999
0.999999
1
1
1
1
1
1
1
1
1
1
1
1
1
1
1
1
1
1
1
1
1
1
1
1
1
1
1
1
1
1
1
1
1
0.999999
1
1
1
1
1
1
1
1
1
1
1
1
1
1
1
1
1
1
1
1
1
1
1
1
1
1
1
1
1
1
1
1
1
1
1
1
1
1
0.999999
1
1
1
0.999999
0.999999
0.999999
0.999999
1
1
1
1
1
1
1
1
1
1
1
1
1
1
1
1
1
1
0.999999
0.999999
0.999997
0.999995
0.999994
0.999992
0.999992
0.999993
0.999995
0.999997
0.999999
1
1
1
1
1
1
1
1
1
1
1
1
1
1
1
1
1
1
1
1
1
1
0.999999
0.999998
0.999996
0.999993
0.999991
0.999991
0.999992
0.999994
0.999996
0.999998
0.999999
1
1
1
1
1
1
1
1
1
1
1
1
1
1
1
0.999999
0.999999
0.999999
0.999889
0.999316
0.999741
0.999962
0.999998
1
1
1
1
1
1
1
1
1
1
0.999999
0.999995
0.999986
0.999969
0.999943
0.999907
0.999863
0.999813
0.999767
0.99974
0.999748
0.9998
0.999876
0.999945
0.999988
0.999979
1
1
1
1
1
1
1
1
1
1
1
1
1
1
1
1
1
1
1
0.999995
0.999965
0.999902
0.999825
0.999756
0.99972
0.999727
0.999767
0.999823
0.999878
0.999924
0.999956
0.999977
0.99999
0.999996
0.999999
1
1
1
1
1
1
1
1
1
1
1
0.999165
0.998282
0.999999
0.557696
0.57679
0.597705
0.61197
0.626011
0.655081
0.711707
0.783912
0.852989
0.906871
0.944945
0.970718
0.988955
0.999404
0.999238
0.993462
0.979463
0.961503
0.946339
0.931785
0.913852
0.891927
0.866009
0.836174
0.804827
0.777403
0.76318
0.769041
0.788319
0.820029
0.861145
0.90559
0.942706
0.970493
0.994555
1
1
1
1
1
1
1
1
1
1
0.995223
0.968987
0.939943
0.902133
0.85176
0.806088
0.772436
0.750947
0.740483
0.744239
0.764695
0.796519
0.832097
0.866143
0.89681
0.922311
0.942277
0.959206
0.974755
0.987406
0.99499
0.99709
0.990519
0.97605
0.953104
0.919072
0.871733
0.810045
0.739912
0.672741
0.61988
0.588543
0.567518
0.53859
0.519561
0.000461814
0.00247993
0.0113915
0.0261238
0.0428901
0.0596828
0.0792716
0.106862
0.143321
0.185561
0.229108
0.26764
0.298049
0.31898
0.328134
0.322811
0.310665
0.287407
0.257501
0.2272
0.196896
0.167591
0.138118
0.109431
0.0843914
0.0658901
0.0575831
0.0603032
0.0683909
0.0814274
0.0995739
0.137998
0.209324
0.313925
0.433727
0.556611
0.661171
0.737894
0.780701
0.794136
0.793124
0.777642
0.733447
0.651641
0.541812
0.418456
0.304741
0.200675
0.122449
0.0783515
0.0604338
0.0504551
0.0458339
0.0447873
0.0483976
0.0599375
0.0802193
0.107712
0.139614
0.174583
0.212057
0.250706
0.291982
0.333667
0.365191
0.382594
0.380532
0.356863
0.31366
0.257979
0.198453
0.143264
0.0958885
0.0602855
0.0386337
0.0261988
0.0175781
0.00980634
0.00460116
0.00189845
0.000121933
0.000106603
0.000103483
9.88529e-05
8.90484e-05
9.55931e-05
0.000106298
0.00010364
0.000101315
0.000101093
0.000109287
0.000102273
4.9941e-05
4.96806e-06
1.38248e-06
6.52828e-07
4.70804e-07
4.07825e-07
3.83708e-07
3.74408e-07
3.71207e-07
3.70726e-07
3.71207e-07
3.71062e-07
3.73719e-07
4.03886e-07
4.4688e-07
4.76908e-07
5.27222e-07
6.15479e-07
8.02178e-07
2.11661e-06
0.000232761
0.000928815
0.00394992
0.0184549
0.0473637
0.082529
0.109358
0.119055
0.116142
0.10145
0.0731869
0.039212
0.0137411
0.00258322
0.00073617
0.000255041
8.3388e-06
3.62528e-06
1.87479e-06
1.26915e-06
8.43117e-07
5.51574e-07
3.7892e-07
2.61823e-07
1.86655e-07
1.46724e-07
1.31725e-07
1.33221e-07
1.38239e-07
1.30253e-07
1.38947e-07
1.68747e-07
2.39117e-07
3.87544e-07
7.28833e-07
5.45512e-06
1.46672e-05
1.23703e-05
3.15951e-06
8.36632e-06
1.0119e-05
1.09006e-05
1.62706e-05
1.91257e-05
2.11093e-05
0.000100835
4.4532e-05
1.36008e-05
0.000132372
0.000100029
8.77426e-05
8.77426e-05
8.77404e-05
8.90484e-05
9.86432e-05
0.000101151
0.000101486
0.000102905
0.00012265
8.84073e-05
6.1301e-05
2.847e-05
1.24773e-05
4.28755e-06
4.51414e-06
7.96799e-07
4.07825e-07
3.8375e-07
3.74408e-07
3.71207e-07
3.70542e-07
3.73719e-07
1.12995e-06
1.07691e-06
6.80852e-07
1.61335e-06
2.03688e-06
4.75928e-06
6.5688e-05
7.55713e-05
8.36999e-05
0.000136376
0.000287613
0.000554705
0.00078913
0.000972256
0.0011458
0.00123342
0.00117498
0.000915251
0.000625112
0.00043179
0.000259171
0.000123998
7.66737e-05
7.53814e-05
0.000300825
0.00031851
6.1895e-05
1.87479e-06
4.22147e-06
3.4481e-06
1.08311e-06
1.05892e-06
7.99473e-07
9.52592e-07
1.6726e-07
1.24477e-07
1.34842e-07
1.13639e-07
1.15354e-07
3.06874e-06
5.54076e-06
4.06976e-06
1.55574e-06
3.94589e-08
8.50224e-08
1.50648e-07
7.54867e-08
9.12367e-06
2.38379e-05
6.62358e-05
0.000271673
0.000351454
0.000315895
4.84589e-05
1.36018e-05
1.36019e-05
0.000133159
0.000103748
9.54949e-05
8.77426e-05
0.000316778
0.000454783
0.000393923
0.000117493
0.00010261
0.000356787
0.000473741
0.000405762
0.00032493
0.000317686
0.000274174
7.19582e-05
4.72037e-06
1.21589e-06
5.89316e-07
4.38395e-07
3.93777e-07
3.839e-07
3.74785e-07
1.12935e-06
2.62006e-06
2.5872e-06
1.10189e-06
1.20807e-06
3.72435e-06
4.68685e-06
1.64101e-06
7.24821e-05
0.000175334
9.46739e-05
7.11278e-05
0.000109536
0.000146826
0.00016627
0.000171368
0.000181804
0.000229469
0.000177516
7.35779e-05
4.80178e-05
3.20933e-05
4.2905e-05
5.59716e-05
7.06182e-05
0.000192806
0.000265927
4.53454e-05
9.57797e-06
1.13006e-05
1.10061e-05
8.20993e-06
9.80395e-06
9.12072e-06
1.15991e-07
1.24477e-07
1.23084e-07
1.47296e-07
1.15125e-07
9.97742e-08
8.80661e-08
8.51561e-08
4.02632e-08
3.87473e-08
3.67629e-08
3.66145e-08
3.66058e-08
6.60318e-08
7.78939e-08
0.000141367
0.000348076
0.000351454
0.000352311
0.000353169
0.000345593
6.81407e-05
1.36019e-05
0.000116624
0.000103249
0.000104123
0.000454097
0.000470229
0.00046532
0.000462207
0.000465443
0.000468278
0.00047374
0.000478217
0.000478848
0.000478862
0.000478848
0.000478848
0.000282981
8.3385e-06
1.33089e-06
6.44837e-07
4.84143e-07
4.36952e-07
4.03268e-07
6.82529e-07
2.58947e-06
2.61884e-06
1.37406e-06
1.16888e-06
1.16988e-06
1.17238e-06
1.2599e-06
1.44323e-06
1.641e-06
0.000161111
9.21581e-05
4.3592e-05
2.74332e-05
3.2986e-05
3.65157e-05
3.44281e-05
4.58124e-05
0.000129491
9.97963e-05
2.59719e-05
2.3569e-05
2.31224e-05
4.08317e-05
6.42217e-05
7.55272e-05
0.00012548
0.000124593
7.43434e-06
5.03137e-06
4.51881e-06
7.85086e-06
8.95929e-06
8.50545e-06
1.15166e-07
9.96404e-08
1.19511e-07
1.13959e-07
1.32043e-07
1.26678e-07
1.15303e-07
1.04234e-07
8.80662e-08
2.06975e-07
3.67629e-08
3.66149e-08
3.66083e-08
3.66149e-08
3.66149e-08
1.46472e-07
0.000285219
0.000346732
0.000352046
0.000353169
0.000353169
0.000353169
0.000351841
5.46427e-05
0.000120685
0.000130116
0.00047446
0.000485187
0.000476336
0.000470396
0.000429075
0.000194973
0.0002036
0.000421166
0.000454264
0.000478217
0.000478848
0.000478877
0.0004783
0.000376877
1.40435e-05
1.95927e-06
1.3926e-06
7.49188e-07
4.84447e-07
5.79778e-07
9.62263e-06
1.22948e-05
1.13458e-05
6.30553e-06
1.43431e-06
1.17238e-06
9.97803e-06
1.25302e-05
2.0595e-06
2.73308e-06
0.000106559
0.000105547
4.2348e-05
1.46037e-05
1.40238e-05
1.42088e-05
1.40974e-05
1.32236e-05
0.0001134
0.000114955
2.39414e-05
2.31212e-05
2.32426e-05
7.83699e-05
4.72473e-05
5.33705e-06
1.30378e-05
7.37887e-06
1.79679e-07
1.54907e-07
2.54305e-07
2.38135e-06
3.89142e-06
5.32147e-07
9.41274e-08
9.30569e-08
1.14168e-07
1.03136e-07
1.13957e-07
4.24227e-07
2.44487e-06
2.98576e-06
2.01974e-06
4.84407e-07
4.44296e-08
3.67629e-08
3.66149e-08
3.66083e-08
3.66455e-08
0.000119958
0.000325846
0.000334146
0.000346802
0.000161092
0.000353169
0.000351813
0.0003479
8.91588e-05
0.000129767
0.000166325
0.000489292
0.000491552
0.000485187
0.000299141
0.000194065
0.000194065
0.000194016
0.000194415
0.000197205
0.000472137
0.000478173
0.0004783
0.000476193
0.000203418
2.98628e-06
1.40465e-06
3.96964e-06
4.0116e-06
6.35449e-07
9.33028e-06
1.22948e-05
1.2632e-05
1.34339e-05
2.49382e-05
2.49382e-05
2.47889e-05
2.45484e-05
2.42541e-05
1.32442e-05
1.68705e-05
4.34845e-05
9.14947e-05
2.45523e-05
1.14198e-05
1.15648e-05
1.16132e-05
1.10449e-05
1.06904e-05
2.93082e-05
0.000115263
0.000116809
6.59535e-05
2.56424e-05
7.91087e-05
2.10749e-05
1.5293e-07
2.08583e-07
1.7992e-07
1.07184e-07
1.04366e-07
1.12394e-07
1.27452e-07
1.20286e-07
9.36743e-08
9.27632e-08
9.28205e-08
9.30569e-08
9.41405e-08
1.02152e-07
1.7118e-06
4.29613e-06
4.29714e-06
4.05915e-06
2.45924e-07
4.02119e-08
3.754e-08
3.68262e-08
3.67542e-08
3.81567e-08
0.000280251
0.000325576
0.000325764
0.000237851
0.000123215
0.000238169
0.000347787
0.000343252
0.000186626
0.000126519
0.000398715
0.000493357
0.000494841
0.000424188
0.000195799
0.000194909
0.000194028
0.000194417
0.000197206
0.000238943
0.000401357
0.000475299
0.000476193
0.000471008
5.82376e-05
1.21203e-06
4.27057e-07
1.97737e-06
4.27843e-06
4.1295e-06
6.56774e-08
3.65769e-06
5.52818e-06
2.285e-06
1.3651e-06
3.95585e-06
8.96004e-06
1.4963e-05
1.71495e-05
9.70443e-06
5.11718e-06
1.64522e-06
5.21532e-06
7.16717e-06
1.13936e-05
1.15078e-05
1.10138e-05
1.047e-05
1.03338e-05
1.03859e-05
7.57578e-05
0.000115885
0.000108898
4.03197e-05
5.92923e-05
4.45836e-06
1.3617e-07
1.26205e-07
1.07187e-07
9.57179e-08
9.53369e-08
9.64597e-08
9.81211e-08
9.61548e-08
9.27613e-08
9.26884e-08
9.27562e-08
9.28205e-08
9.38682e-08
2.22764e-07
4.2063e-06
4.3024e-06
4.29315e-06
1.4147e-06
5.70915e-08
4.39741e-08
4.01639e-08
3.76032e-08
3.81593e-08
4.7001e-05
0.000323389
0.00032463
0.000325661
0.000140514
0.000117489
0.000119791
0.000316332
0.000342737
0.000342705
0.000124256
0.000493357
0.000494841
0.000495358
0.000494841
0.000204003
0.000195799
0.000238606
0.000237619
0.000333444
0.000465342
0.000464072
0.000468331
0.000477468
0.000283585
1.24398e-05
4.27053e-07
6.23227e-08
1.12064e-08
4.10796e-06
2.46168e-06
1.61585e-08
5.08394e-10
3.30883e-10
5.0015e-10
5.30384e-10
5.41666e-10
1.38898e-08
1.52914e-07
5.37519e-07
9.49362e-07
1.33779e-06
1.48775e-06
1.64522e-06
2.24665e-05
2.83162e-05
1.19266e-05
1.047e-05
1.03338e-05
1.02701e-05
1.02372e-05
2.95926e-05
0.00011173
0.00010648
5.69839e-05
2.29949e-05
1.21631e-06
1.33973e-07
1.14955e-07
9.57182e-08
9.41125e-08
9.4063e-08
9.40841e-08
9.35654e-08
9.30662e-08
9.26884e-08
9.2684e-08
9.26884e-08
9.28013e-08
1.1999e-07
2.96177e-06
4.37831e-06
4.3425e-06
3.59683e-06
2.47444e-07
5.97077e-08
5.06309e-08
4.39882e-08
4.01599e-08
4.77392e-08
7.88825e-05
0.000323303
0.000348959
0.00018578
0.000117489
0.000116013
0.000116732
0.000196267
0.000256543
0.000194605
0.000122084
0.00046701
0.000495358
0.000495358
0.000495358
0.000492613
0.00048234
0.000492932
0.000490987
0.000489639
0.000479396
0.000466729
0.00047438
0.000445942
5.54846e-05
1.30045e-06
1.21329e-07
1.12064e-08
2.43462e-09
1.21658e-07
4.30097e-07
1.36804e-07
3.41687e-10
1.42766e-10
3.30883e-10
5.11432e-10
1.66438e-09
7.22321e-07
6.04964e-06
4.52468e-06
2.68326e-06
1.22967e-05
4.14432e-05
4.71203e-05
8.04829e-05
7.19572e-05
1.7402e-05
1.07029e-05
1.02701e-05
1.02116e-05
1.02379e-05
1.43051e-05
0.000104774
0.000105148
7.63353e-05
4.8238e-05
2.4387e-06
1.87896e-07
1.92664e-07
5.5322e-07
9.40841e-08
9.40841e-08
9.3547e-08
9.2899e-08
9.27234e-08
9.2684e-08
9.26832e-08
9.2684e-08
1.75159e-07
2.76586e-06
4.44371e-06
4.41101e-06
4.37831e-06
2.04052e-07
5.57634e-08
7.089e-08
5.95178e-08
5.06291e-08
5.14029e-08
1.02229e-07
2.06759e-05
0.000288866
0.000394022
0.000118298
0.000116013
0.000115792
0.000116013
0.000357577
0.000338532
0.000154138
0.000121967
0.000141047
0.000492566
0.000495358
0.000494672
0.000494371
0.000494371
0.000494389
0.000492932
0.000482936
0.000463569
0.000455362
0.000386589
6.55766e-05
1.04227e-06
1.24101e-07
2.50829e-08
5.56875e-09
7.13878e-10
5.86193e-11
3.93765e-11
4.25654e-10
2.09046e-09
7.03577e-11
1.05978e-10
4.34855e-08
5.14017e-09
7.53881e-06
5.0706e-05
5.0706e-05
5.0706e-05
2.90878e-05
5.10479e-05
8.21464e-05
9.31462e-05
8.24795e-05
5.02709e-05
2.03023e-05
1.06578e-05
1.02464e-05
1.02118e-05
1.02463e-05
8.90175e-05
0.000104517
0.000103249
0.000100263
5.02724e-06
2.63905e-07
1.17539e-05
1.30165e-05
4.7365e-06
9.3547e-08
9.29141e-08
9.27525e-08
9.2698e-08
9.26832e-08
9.2684e-08
1.82315e-07
3.76219e-06
4.44371e-06
4.44371e-06
4.44371e-06
1.20798e-06
2.34695e-08
4.40728e-08
5.57471e-08
6.97253e-08
7.52012e-08
1.04401e-07
3.37771e-07
3.73775e-06
0.000349972
0.00041892
0.000140628
0.000115845
0.000115876
0.000116057
0.000410068
0.00039811
0.000150729
0.000122008
0.000121992
0.000252466
0.000492566
0.000494449
0.00049364
0.000494404
0.000492932
0.000433867
0.00015736
0.000185945
0.000185515
1.18743e-06
1.80097e-07
2.22096e-08
2.09919e-08
1.81241e-07
1.99741e-07
3.7879e-08
5.81899e-11
1.47528e-11
1.2268e-11
1.21126e-11
1.2268e-11
1.50343e-06
7.97372e-07
7.46263e-06
4.08672e-05
4.84391e-05
4.56484e-05
2.14132e-05
6.99126e-06
9.35679e-06
0.000238336
0.000302498
0.000304057
0.000223736
3.19829e-05
1.16421e-05
1.0432e-05
1.02464e-05
1.04335e-05
5.9974e-05
0.000103249
0.000101844
0.000101829
4.7667e-05
7.17656e-07
6.89925e-06
1.31832e-05
1.32332e-05
8.70073e-06
9.42729e-08
9.29141e-08
9.27525e-08
9.2698e-08
9.2684e-08
2.81381e-06
4.43719e-06
4.44045e-06
4.44371e-06
1.99118e-06
2.01334e-08
6.29901e-09
2.34736e-08
4.36019e-08
9.81108e-08
1.73345e-07
3.36893e-07
1.29102e-06
0.000158453
0.000419621
0.000426066
0.000175285
0.000238246
0.000251739
0.000355151
0.000414678
0.000408967
0.000151829
0.000177887
0.000149287
0.000159664
0.000232937
0.000251928
0.000316876
0.000335728
0.000192141
2.50795e-05
1.21513e-05
4.80628e-06
1.19741e-06
1.80708e-07
2.1935e-08
7.68653e-09
2.01483e-08
1.80039e-07
2.21851e-07
5.6485e-08
6.03252e-11
1.45084e-11
1.20089e-11
1.18782e-11
1.20089e-11
5.13903e-06
1.01104e-05
9.80065e-06
3.94212e-07
3.60401e-07
3.51599e-07
3.6039e-07
4.3086e-07
0.000184573
0.000302498
0.000304057
0.000304057
0.000304057
0.000227656
2.40672e-05
1.09586e-05
1.04336e-05
1.0786e-05
6.96557e-05
0.000101226
5.75819e-05
9.73575e-05
5.69492e-05
1.65565e-06
2.91251e-06
4.58204e-06
1.30967e-05
1.50288e-05
1.51938e-05
4.70008e-06
9.43088e-08
9.28524e-08
9.34629e-08
3.40642e-06
4.37462e-06
4.43719e-06
2.28317e-06
1.30984e-08
1.71903e-09
3.91522e-09
5.84838e-09
5.88251e-08
2.8426e-07
5.70264e-07
1.27186e-06
5.04985e-06
0.000395515
0.000426117
0.000426839
0.000426433
0.000425321
0.00042255
0.000419338
0.000416614
0.00041433
0.00012393
0.000176477
0.000165344
0.000153987
4.86975e-05
4.88825e-05
7.12521e-05
6.85349e-05
6.21101e-05
1.79909e-05
1.68094e-05
1.60742e-05
1.24324e-05
2.61912e-06
7.69013e-09
5.47003e-09
2.23968e-08
3.9759e-10
4.30583e-09
1.35743e-09
2.82602e-10
1.3356e-11
1.18782e-11
1.18782e-11
1.18782e-11
1.52193e-10
4.18546e-06
7.72777e-07
3.55761e-07
3.51599e-07
3.51599e-07
3.51026e-07
3.56105e-07
2.14369e-05
0.000248345
0.000302498
0.000304057
0.000303533
0.000303009
7.45855e-05
1.16943e-05
1.09825e-05
1.29646e-05
9.91879e-05
9.96952e-05
2.20205e-05
2.28181e-05
8.54428e-06
2.91251e-06
3.42764e-06
3.40393e-06
3.48914e-06
1.4869e-05
1.66689e-05
1.69282e-05
1.25204e-05
1.51653e-06
1.02656e-07
2.46553e-06
4.26866e-06
1.58573e-06
1.93027e-09
1.58881e-10
4.24181e-10
1.71367e-09
2.52697e-09
2.67079e-07
9.27085e-07
2.01996e-06
5.03032e-06
0.000311213
0.00042609
0.000426874
0.000426897
0.000426847
0.000426573
0.000425551
0.000422841
0.000419179
0.000416627
3.81717e-05
1.08195e-07
2.01053e-05
4.85853e-05
1.59342e-05
4.62453e-05
7.40121e-05
6.15861e-05
9.18231e-06
7.84553e-06
2.64324e-05
4.34573e-05
4.34573e-05
1.01498e-05
5.37253e-09
5.26026e-09
2.06554e-08
4.46638e-10
1.31395e-11
1.22037e-11
1.20959e-11
1.20375e-11
1.18908e-11
1.18782e-11
4.20926e-10
2.01456e-07
2.3807e-07
5.14343e-07
4.00687e-07
3.5176e-07
3.51026e-07
3.5023e-07
3.50389e-07
3.56105e-07
5.87937e-05
0.000274723
0.000228241
0.000295431
0.000295791
6.67111e-05
1.20632e-05
1.16944e-05
8.40802e-05
9.85909e-05
5.19094e-05
1.88865e-05
1.79777e-05
1.27816e-05
5.11842e-05
0.000118518
8.3824e-05
4.07571e-06
8.93795e-06
1.67166e-05
1.69282e-05
1.69282e-05
8.62802e-06
1.8184e-07
4.0118e-07
2.23909e-08
1.6578e-10
1.10374e-12
3.59557e-11
2.34938e-10
4.0601e-10
9.73463e-08
4.71806e-06
7.75396e-06
1.30887e-05
9.34588e-05
0.000426932
0.00042693
0.000426897
0.000426897
0.000426897
0.000426847
0.000426573
0.000425556
0.000422935
0.000316331
1.51717e-05
2.89798e-09
2.66498e-09
2.50635e-09
2.66131e-09
2.70103e-09
3.03296e-09
3.62217e-09
6.27954e-08
7.90483e-06
4.29142e-05
4.34573e-05
3.3036e-05
2.59702e-06
5.16146e-09
5.08789e-09
8.09856e-10
2.27411e-09
2.0235e-10
2.73774e-11
1.25991e-11
1.27234e-11
1.1911e-11
1.18908e-11
1.22841e-11
1.28928e-06
1.42447e-06
1.43426e-06
1.05474e-06
3.53505e-07
3.5023e-07
3.50001e-07
3.5023e-07
0.000125835
0.000192311
0.000105224
1.41147e-05
4.77375e-05
0.000154647
4.74199e-05
1.45599e-05
2.78877e-05
9.73218e-05
9.85163e-05
1.90552e-05
1.92087e-05
7.76024e-05
0.000147669
0.000158116
0.000161313
0.000163004
0.000108352
1.35615e-05
9.07396e-06
1.64424e-05
1.13618e-05
1.44241e-06
4.64676e-09
4.24414e-10
4.81275e-11
1.32705e-11
1.26366e-11
2.5565e-11
3.62183e-11
5.76621e-10
8.16846e-06
4.93783e-05
5.5484e-05
0.000124966
0.000427404
0.00042693
0.000426896
0.000426897
0.000426897
0.000426889
0.000426794
0.000426153
0.000423453
0.000307675
2.96055e-05
1.25371e-05
1.51155e-07
1.72357e-08
2.26128e-09
2.96668e-09
2.91299e-09
3.59878e-09
4.31103e-09
4.36835e-07
1.85428e-05
1.3629e-05
1.67649e-05
1.56905e-08
1.25588e-08
3.78967e-08
5.46498e-09
1.76796e-10
2.41375e-10
1.42435e-10
4.18526e-11
1.75443e-11
2.07582e-11
1.80545e-11
1.22841e-11
3.30098e-08
1.24657e-06
1.43287e-06
9.36763e-07
4.28117e-07
3.12153e-07
3.50002e-07
3.5023e-07
8.36341e-05
0.000192046
0.000191493
8.99478e-05
3.70918e-06
5.35945e-06
1.54898e-05
2.2874e-05
2.61724e-05
9.61265e-05
9.61265e-05
3.26636e-05
2.1782e-05
6.45167e-05
7.85987e-05
4.17481e-05
0.000121026
0.000163004
0.000163004
0.000153587
1.34796e-05
1.99455e-07
1.51844e-06
5.08889e-07
3.24394e-08
8.2156e-11
2.43355e-11
1.44691e-11
1.26987e-11
1.27023e-11
4.59523e-11
1.83099e-10
1.13109e-07
2.23683e-05
6.65596e-05
6.50808e-05
0.000219735
0.000426563
0.000426734
0.000426882
0.000426896
0.000426889
0.000426833
0.00042632
0.000334632
0.000153422
4.27553e-05
1.25371e-05
1.25371e-05
6.96317e-08
3.33969e-09
1.37863e-09
5.36358e-08
6.08191e-08
7.30538e-09
4.33442e-09
1.25436e-06
6.48334e-06
2.42169e-07
2.06183e-07
1.95904e-07
1.12029e-08
2.83959e-08
3.35769e-09
2.424e-10
3.97412e-10
1.54182e-10
3.60614e-11
3.22378e-11
4.65218e-11
4.67815e-11
5.22122e-11
7.72661e-11
9.51036e-08
1.72804e-07
2.42134e-09
1.9487e-07
2.32336e-07
3.2051e-07
3.5023e-07
0.00015187
0.000190724
0.000144662
1.32958e-05
2.86053e-06
3.69442e-06
5.36037e-06
3.76673e-05
9.33056e-05
9.47161e-05
9.52328e-05
3.35174e-05
5.10456e-05
5.04142e-05
1.01495e-05
7.69497e-07
2.3783e-05
0.000113284
0.000129132
5.38467e-05
3.81054e-06
2.00633e-08
6.15705e-09
7.91654e-10
9.11471e-11
2.68646e-11
2.05703e-11
1.9417e-11
1.49544e-11
1.16357e-11
2.31298e-10
9.73309e-10
1.74885e-07
2.53467e-05
4.3162e-05
2.61784e-05
0.000191095
0.000426151
0.00042638
0.000426734
0.000426718
0.00042684
0.000268578
8.64897e-05
4.13049e-05
2.52957e-05
2.24055e-05
1.7276e-05
1.80987e-05
9.47022e-10
8.698e-10
4.08813e-10
8.63958e-08
1.04255e-07
7.46369e-08
4.50633e-08
1.69614e-06
9.45976e-07
9.07102e-07
6.29634e-07
2.99972e-07
9.51438e-11
8.78381e-11
8.41499e-11
2.92153e-10
3.6252e-10
6.85639e-11
3.75196e-11
6.54672e-11
9.79025e-11
6.07677e-11
6.08232e-10
3.95046e-09
2.40548e-09
2.42134e-09
2.40381e-09
1.16282e-07
2.31348e-06
3.94239e-07
3.53146e-07
0.000178607
0.000178285
1.78376e-05
2.22345e-06
2.54184e-06
2.86079e-06
5.62232e-06
8.98266e-05
9.15661e-05
9.33056e-05
5.70366e-05
4.93921e-05
4.61502e-05
8.78898e-06
5.78563e-07
5.5601e-07
6.31491e-07
3.4401e-06
6.17393e-06
2.97091e-07
4.74136e-08
2.11107e-09
6.71472e-10
6.90829e-10
6.80062e-10
2.37993e-10
2.48871e-11
2.52784e-12
1.85933e-12
7.88373e-12
2.13878e-11
9.81794e-10
4.95839e-07
8.45193e-06
8.49855e-06
1.44728e-05
5.30223e-05
0.000400151
0.000425359
0.000427915
0.000198175
4.39238e-05
2.87559e-05
1.91829e-05
1.65562e-05
1.68611e-05
2.03668e-05
2.61718e-05
2.80121e-05
6.08167e-09
1.34112e-09
3.73611e-10
1.35661e-08
9.07399e-08
1.08534e-07
4.39322e-08
1.39281e-06
1.39132e-06
9.04464e-07
9.6693e-08
3.64925e-11
1.30994e-10
1.1444e-10
8.39524e-11
8.84699e-11
1.15929e-10
3.58316e-11
6.52878e-11
1.3853e-10
1.70344e-10
6.78364e-11
1.20308e-09
7.93616e-09
6.77759e-09
2.52494e-09
2.42134e-09
2.98717e-09
2.03885e-05
1.74692e-06
1.52424e-05
0.000192253
5.13819e-05
1.57946e-06
1.91585e-06
2.22361e-06
4.11339e-06
7.2774e-05
8.88723e-05
8.98266e-05
6.27337e-05
1.0095e-05
3.65637e-05
8.31062e-06
5.78563e-07
5.53397e-07
5.61498e-07
5.53383e-07
4.62898e-07
1.21749e-07
3.14715e-08
1.63818e-09
1.31465e-10
4.09165e-10
7.01303e-10
5.50845e-10
2.05561e-11
4.48573e-12
1.24682e-12
1.59203e-12
3.02431e-12
4.90347e-11
1.00285e-09
4.97709e-08
6.80858e-07
6.81871e-06
1.22209e-05
1.38568e-05
0.000137677
0.000260016
4.10127e-05
2.15029e-05
2.39917e-05
1.89854e-05
1.45383e-05
1.14298e-05
1.39633e-05
1.73553e-05
1.7442e-05
6.27499e-06
5.2492e-09
1.08886e-09
3.66788e-10
1.33164e-10
1.34118e-10
1.00996e-07
9.9536e-08
9.34011e-11
4.81096e-07
2.39726e-13
3.39762e-12
3.45749e-11
1.37249e-10
1.35758e-10
1.81237e-11
1.09237e-11
8.84194e-12
3.36553e-11
2.11996e-10
2.57359e-10
2.44509e-10
1.36832e-10
1.27298e-09
7.80548e-09
7.66355e-09
3.35008e-09
2.98717e-09
8.31681e-08
2.03931e-05
9.82747e-06
5.31492e-05
0.000192113
2.6389e-06
1.45761e-06
1.57981e-06
1.94264e-06
4.00829e-05
8.70361e-05
8.7918e-05
7.75062e-05
1.00581e-05
7.87979e-06
6.52927e-06
4.27053e-06
1.30769e-06
7.56531e-05
0.000312988
0.000245172
7.03127e-06
1.63768e-08
2.84716e-09
1.63844e-10
6.37595e-11
4.00004e-10
2.92648e-10
9.72572e-11
8.70896e-12
2.8484e-12
6.57678e-13
9.42998e-13
4.7507e-12
7.75267e-11
1.34803e-09
1.98933e-08
1.10302e-06
1.57809e-05
2.00679e-05
1.1923e-05
1.21929e-05
1.30234e-05
1.46255e-05
1.81078e-05
2.53261e-05
1.59952e-05
1.14298e-05
9.54906e-06
1.18627e-05
3.76569e-06
1.41962e-10
1.37364e-10
3.47526e-10
2.68916e-10
1.43753e-10
1.33164e-10
1.3011e-10
1.44293e-12
7.79648e-09
3.2217e-11
9.65957e-14
2.19642e-13
4.46199e-12
5.92995e-11
8.65099e-11
4.28508e-11
1.2725e-12
9.01835e-13
2.65093e-12
7.69636e-11
5.68745e-10
3.65779e-10
3.84107e-10
5.2915e-10
1.6039e-09
3.09751e-09
3.25382e-09
1.96038e-09
6.16219e-09
4.6006e-08
1.07686e-05
6.64563e-05
0.00020346
0.00016871
1.28184e-06
1.31967e-06
1.45721e-06
1.07857e-05
8.28483e-05
8.45013e-05
8.67089e-05
1.0451e-05
9.2305e-06
9.23101e-06
7.88023e-06
6.52931e-06
0.00015508
0.000356914
0.000356914
0.000356914
0.000260106
5.22643e-09
2.71032e-10
6.39477e-11
6.00782e-11
6.9755e-11
6.22238e-11
2.83025e-11
9.10252e-12
2.47033e-12
4.50538e-13
5.65649e-13
4.67233e-12
7.00366e-11
1.08456e-09
1.5015e-08
7.90107e-07
1.17287e-05
1.72506e-05
1.18772e-05
1.18252e-05
1.23389e-05
1.33277e-05
2.31684e-05
3.00715e-05
2.89079e-05
1.15441e-05
1.676e-07
4.66732e-08
8.5362e-12
1.86873e-10
1.03274e-09
3.5886e-12
1.58557e-10
1.14841e-10
1.47154e-10
1.73739e-10
2.86982e-13
9.54958e-14
9.54958e-14
9.54958e-14
3.6663e-13
7.9678e-12
1.48137e-11
1.46494e-11
1.64553e-12
1.50206e-13
3.09166e-13
3.82404e-12
1.10668e-10
1.31855e-09
4.86024e-10
1.1128e-09
2.8687e-09
2.26047e-09
2.02052e-09
1.95125e-09
1.95748e-09
6.85665e-07
1.84305e-07
8.44531e-07
0.000122851
0.000231043
0.000134775
1.30023e-06
1.30022e-06
5.32606e-06
6.48483e-05
7.98643e-05
8.28483e-05
1.39824e-05
9.45395e-06
9.32638e-06
9.23091e-06
9.93317e-06
0.000128151
0.00035299
0.000354952
0.000356914
0.000180843
3.55675e-05
2.19322e-06
7.14625e-11
6.00782e-11
6.00782e-11
6.4573e-11
5.30481e-11
2.58715e-11
1.12302e-11
2.33626e-12
2.77921e-13
1.3807e-13
1.31759e-12
2.30757e-11
2.56071e-10
3.29286e-09
6.22686e-08
1.71028e-06
4.72665e-06
1.40905e-05
3.09294e-05
3.29387e-05
3.26822e-05
3.23123e-05
3.13045e-05
2.10946e-05
5.12039e-08
6.70362e-12
6.47843e-12
6.7745e-12
8.86894e-11
2.79885e-10
3.62735e-12
9.51891e-11
1.86584e-11
1.104e-10
2.32881e-10
9.4445e-12
1.01278e-13
1.23351e-13
1.49129e-13
3.22629e-13
5.18863e-13
7.37031e-13
7.16571e-13
9.0514e-14
8.20112e-14
6.67622e-13
6.03683e-12
1.08014e-10
2.17845e-09
1.48792e-09
6.84438e-09
5.72292e-08
4.60805e-09
3.94086e-09
1.96106e-09
1.95549e-09
1.03801e-06
2.35796e-05
5.0868e-06
0.000117546
0.000231426
8.66765e-05
1.24529e-06
1.31936e-06
1.70412e-05
7.14949e-05
7.68803e-05
1.98031e-05
9.48575e-06
9.42175e-06
9.43101e-06
9.32634e-06
1.19481e-05
0.000232157
0.000282461
6.48562e-05
2.00219e-05
1.37571e-06
1.03945e-07
1.97573e-07
7.42417e-11
6.7159e-11
8.29111e-11
1.27133e-10
7.16622e-11
3.48516e-11
1.18222e-11
2.21498e-12
1.83558e-13
1.84998e-14
1.52266e-13
2.67322e-12
2.62111e-11
4.31729e-10
5.36628e-09
4.86027e-08
1.22107e-06
2.487e-05
3.29387e-05
3.30008e-05
3.29581e-05
3.27801e-05
3.19987e-05
5.56601e-06
6.97303e-12
6.47843e-12
6.3682e-12
1.08659e-11
2.85373e-11
1.04825e-11
1.29894e-12
2.11572e-11
1.80236e-12
3.42806e-11
1.84011e-10
3.92429e-12
9.02898e-14
1.42258e-13
1.66963e-13
1.36559e-13
7.59488e-14
3.31514e-14
1.44935e-14
9.13664e-15
8.27633e-14
1.88141e-12
9.99894e-12
1.10268e-11
2.0744e-09
6.36957e-08
4.69411e-07
2.05613e-06
5.33855e-07
4.4834e-09
2.02252e-09
1.96106e-09
1.35261e-06
5.2087e-05
3.82635e-05
5.94009e-05
0.000229375
6.60316e-05
1.13979e-06
1.29118e-06
2.07163e-05
4.91572e-05
2.76724e-05
1.34122e-05
1.12577e-05
9.48575e-06
9.17114e-05
0.000127118
5.83388e-05
1.1225e-05
7.36409e-06
3.80702e-07
9.82355e-08
1.90666e-08
3.41145e-09
1.23239e-09
1.46807e-10
1.65782e-10
1.45644e-10
1.67315e-10
1.26782e-10
5.97617e-11