/*--------------------------------*- C++ -*----------------------------------*\
| =========                 |                                                 |
| \\      /  F ield         | OpenFOAM: The Open Source CFD Toolbox           |
|  \\    /   O peration     | Version:  2412                                  |
|   \\  /    A nd           | Website:  www.openfoam.com                      |
|    \\/     M anipulation  |                                                 |
\*---------------------------------------------------------------------------*/
FoamFile
{
    version     2.0;
    format      ascii;
    arch        "LSB;label=32;scalar=64";
    class       volScalarField;
    location    "6.85";
    object      p_rgh;
}
// * * * * * * * * * * * * * * * * * * * * * * * * * * * * * * * * * * * * * //

dimensions      [1 -1 -2 0 0 0 0];

internalField   nonuniform List<scalar> 
6400
(
7250.08
7250.53
7251.33
7252.5
7253.99
7255.79
7257.87
7260.18
7262.69
7265.36
7268.16
7271.05
7273.99
7276.96
7279.94
7282.9
7285.85
7288.76
7291.66
7294.54
7297.41
7300.29
7303.18
7306.09
7309.04
7312.01
7315.02
7318.04
7321.05
7324.03
7326.94
7329.74
7332.37
7334.8
7336.97
7338.82
7340.32
7341.41
7342.08
7342.29
7342.05
7341.35
7340.2
7338.64
7336.69
7334.41
7331.84
7329.04
7326.06
7322.95
7319.77
7316.56
7313.36
7310.19
7307.08
7304.03
7301.04
7298.12
7295.25
7292.42
7289.61
7286.79
7283.97
7281.12
7278.24
7275.33
7272.39
7269.44
7266.5
7263.59
7260.76
7258.03
7255.46
7253.08
7250.93
7249.06
7247.51
7246.3
7245.47
7245.04
7249.63
7250.16
7250.96
7252.14
7253.67
7255.5
7257.62
7259.97
7262.52
7265.24
7268.07
7270.99
7273.96
7276.95
7279.94
7282.91
7285.85
7288.77
7291.65
7294.52
7297.38
7300.25
7303.13
7306.04
7308.99
7311.97
7314.99
7318.04
7321.08
7324.1
7327.06
7329.91
7332.6
7335.08
7337.3
7339.21
7340.74
7341.87
7342.56
7342.79
7342.54
7341.82
7340.65
7339.05
7337.06
7334.72
7332.09
7329.23
7326.19
7323.03
7319.8
7316.55
7313.32
7310.12
7307
7303.94
7300.96
7298.05
7295.19
7292.37
7289.57
7286.78
7283.97
7281.13
7278.26
7275.34
7272.39
7269.42
7266.46
7263.52
7260.64
7257.88
7255.26
7252.83
7250.64
7248.73
7247.14
7245.9
7245.06
7244.62
7248.82
7249.36
7250.2
7251.44
7253.02
7254.93
7257.12
7259.55
7262.19
7264.98
7267.89
7270.88
7273.9
7276.94
7279.95
7282.94
7285.88
7288.79
7291.66
7294.5
7297.33
7300.17
7303.04
7305.94
7308.89
7311.89
7314.94
7318.03
7321.14
7324.24
7327.28
7330.24
7333.04
7335.63
7337.95
7339.94
7341.56
7342.75
7343.48
7343.73
7343.48
7342.73
7341.51
7339.83
7337.75
7335.31
7332.58
7329.6
7326.45
7323.19
7319.86
7316.53
7313.23
7309.99
7306.83
7303.77
7300.79
7297.9
7295.07
7292.29
7289.53
7286.77
7283.99
7281.17
7278.3
7275.38
7272.41
7269.4
7266.38
7263.37
7260.42
7257.56
7254.85
7252.34
7250.06
7248.07
7246.41
7245.12
7244.23
7243.77
7247.59
7248.16
7249.05
7250.36
7252.04
7254.06
7256.37
7258.93
7261.69
7264.61
7267.64
7270.73
7273.84
7276.94
7280
7283.01
7285.95
7288.84
7291.68
7294.49
7297.28
7300.08
7302.91
7305.79
7308.73
7311.75
7314.84
7318
7321.2
7324.42
7327.6
7330.7
7333.66
7336.42
7338.9
7341.04
7342.78
7344.07
7344.87
7345.14
7344.88
7344.09
7342.79
7341.01
7338.79
7336.19
7333.29
7330.14
7326.82
7323.39
7319.92
7316.47
7313.07
7309.77
7306.57
7303.5
7300.54
7297.68
7294.9
7292.18
7289.48
7286.78
7284.05
7281.26
7278.41
7275.48
7272.47
7269.4
7266.29
7263.18
7260.1
7257.11
7254.26
7251.6
7249.19
7247.08
7245.31
7243.92
7242.97
7242.48
7245.94
7246.47
7247.46
7248.89
7250.72
7252.89
7255.36
7258.1
7261.04
7264.14
7267.33
7270.56
7273.79
7276.98
7280.1
7283.13
7286.08
7288.95
7291.74
7294.49
7297.21
7299.95
7302.72
7305.56
7308.49
7311.53
7314.67
7317.92
7321.24
7324.62
7327.99
7331.3
7334.49
7337.47
7340.17
7342.51
7344.43
7345.85
7346.74
7347.06
7346.79
7345.94
7344.53
7342.59
7340.18
7337.36
7334.22
7330.82
7327.27
7323.62
7319.96
7316.34
7312.82
7309.43
7306.19
7303.11
7300.17
7297.37
7294.67
7292.03
7289.42
7286.81
7284.15
7281.41
7278.58
7275.64
7272.59
7269.44
7266.21
7262.95
7259.7
7256.52
7253.47
7250.61
7248.01
7245.72
7243.79
7242.27
7241.23
7240.7
7243.76
7244.32
7245.41
7247
7249.01
7251.39
7254.08
7257.05
7260.24
7263.56
7266.97
7270.39
7273.78
7277.08
7280.28
7283.35
7286.29
7289.11
7291.84
7294.5
7297.13
7299.77
7302.46
7305.24
7308.14
7311.19
7314.4
7317.75
7321.24
7324.81
7328.43
7332.02
7335.49
7338.78
7341.77
7344.38
7346.53
7348.14
7349.15
7349.52
7349.24
7348.31
7346.74
7344.6
7341.94
7338.83
7335.37
7331.66
7327.79
7323.86
7319.94
7316.12
7312.44
7308.94
7305.65
7302.57
7299.68
7296.96
7294.36
7291.85
7289.38
7286.88
7284.32
7281.66
7278.86
7275.91
7272.8
7269.54
7266.16
7262.7
7259.22
7255.78
7252.46
7249.34
7246.49
7243.96
7241.82
7240.13
7238.96
7238.38
7240.99
7241.61
7242.84
7244.62
7246.87
7249.52
7252.51
7255.79
7259.28
7262.92
7266.6
7270.27
7273.85
7277.29
7280.58
7283.68
7286.61
7289.37
7292
7294.53
7297.03
7299.53
7302.1
7304.79
7307.65
7310.7
7313.96
7317.45
7321.12
7324.95
7328.88
7332.82
7336.68
7340.35
7343.72
7346.67
7349.12
7350.97
7352.14
7352.59
7352.3
7351.26
7349.51
7347.1
7344.11
7340.62
7336.76
7332.64
7328.37
7324.06
7319.83
7315.74
7311.86
7308.24
7304.9
7301.83
7299.01
7296.41
7293.97
7291.64
7289.34
7287.01
7284.6
7282.04
7279.29
7276.33
7273.15
7269.76
7266.19
7262.48
7258.7
7254.93
7251.26
7247.79
7244.6
7241.76
7239.34
7237.42
7236.12
7235.47
7237.57
7238.27
7239.68
7241.72
7244.28
7247.25
7250.6
7254.28
7258.18
7262.21
7266.26
7270.22
7274.05
7277.67
7281.06
7284.2
7287.09
7289.76
7292.24
7294.6
7296.91
7299.22
7301.62
7304.18
7306.95
7309.98
7313.31
7316.93
7320.84
7324.99
7329.3
7333.68
7338.01
7342.18
7346.03
7349.44
7352.28
7354.43
7355.81
7356.35
7356.04
7354.87
7352.88
7350.12
7346.71
7342.75
7338.37
7333.73
7328.95
7324.18
7319.54
7315.13
7311.01
7307.25
7303.85
7300.81
7298.11
7295.68
7293.46
7291.37
7289.32
7287.23
7285.01
7282.59
7279.93
7276.98
7273.72
7270.17
7266.35
7262.33
7258.17
7253.97
7249.85
7245.91
7242.31
7239.08
7236.3
7234.09
7232.59
7231.84
7233.41
7234.31
7235.93
7238.22
7241.08
7244.42
7248.23
7252.5
7256.96
7261.48
7265.96
7270.31
7274.44
7278.28
7281.79
7284.95
7287.78
7290.31
7292.6
7294.72
7296.76
7298.81
7300.97
7303.33
7305.97
7308.95
7312.33
7316.12
7320.3
7324.83
7329.61
7334.55
7339.49
7344.27
7348.74
7352.72
7356.05
7358.59
7360.23
7360.9
7360.57
7359.23
7356.93
7353.75
7349.8
7345.23
7340.2
7334.89
7329.48
7324.13
7318.99
7314.18
7309.79
7305.87
7302.43
7299.47
7296.93
7294.74
7292.82
7291.05
7289.34
7287.56
7285.61
7283.4
7280.85
7277.92
7274.58
7270.83
7266.72
7262.3
7257.67
7252.94
7248.19
7243.56
7239.42
7235.75
7232.62
7230.12
7228.39
7227.44
7228.48
7229.71
7231.37
7233.48
7236.37
7240.28
7245.09
7250.26
7255.52
7260.71
7265.78
7270.61
7275.12
7279.21
7282.85
7286.03
7288.76
7291.1
7293.12
7294.91
7296.59
7298.28
7300.1
7302.18
7304.62
7307.52
7310.93
7314.89
7319.39
7324.37
7329.74
7335.36
7341.05
7346.62
7351.86
7356.56
7360.51
7363.55
7365.54
7366.37
7366.01
7364.46
7361.77
7358.04
7353.41
7348.07
7342.23
7336.09
7329.9
7323.84
7318.09
7312.81
7308.08
7303.98
7300.52
7297.67
7295.37
7293.52
7292
7290.67
7289.4
7288.04
7286.46
7284.52
7282.15
7279.26
7275.83
7271.85
7267.37
7262.45
7257.21
7251.75
7246.11
7240.49
7235.14
7230.78
7227.57
7225.27
7223.48
7222.23
7223.04
7224.1
7225.07
7225.96
7228.5
7233.53
7240.23
7247.21
7253.81
7259.95
7265.77
7271.21
7276.17
7280.57
7284.35
7287.52
7290.11
7292.18
7293.83
7295.18
7296.38
7297.59
7298.95
7300.64
7302.79
7305.52
7308.94
7313.08
7317.94
7323.47
7329.55
7336.01
7342.65
7349.21
7355.43
7361.04
7365.79
7369.46
7371.87
7372.91
7372.52
7370.7
7367.53
7363.11
7357.63
7351.33
7344.45
7337.28
7330.1
7323.14
7316.65
7310.78
7305.67
7301.39
7297.94
7295.28
7293.31
7291.92
7290.94
7290.21
7289.53
7288.72
7287.62
7286.06
7283.93
7281.13
7277.61
7273.36
7268.42
7262.88
7256.84
7250.35
7243.24
7235.6
7228.22
7222.44
7219.39
7218.54
7217.49
7216.36
7216.7
7217.22
7216.55
7216.06
7218.65
7224.68
7234.23
7243.51
7251.84
7259.23
7266.02
7272.22
7277.74
7282.5
7286.44
7289.57
7291.95
7293.64
7294.8
7295.56
7296.12
7296.68
7297.42
7298.56
7300.29
7302.78
7306.14
7310.46
7315.75
7321.93
7328.89
7336.4
7344.21
7352.01
7359.47
7366.24
7372.01
7376.48
7379.44
7380.74
7380.32
7378.17
7374.37
7369.08
7362.52
7354.99
7346.82
7338.35
7329.93
7321.88
7314.48
7307.92
7302.38
7297.9
7294.5
7292.12
7290.62
7289.85
7289.59
7289.63
7289.73
7289.65
7289.19
7288.14
7286.34
7283.67
7280.07
7275.5
7270.01
7263.68
7256.59
7248.83
7239.82
7229.74
7218.83
7210.52
7207.39
7209.22
7210.23
7209.66
7209.34
7209.32
7207.75
7207.75
7210.81
7217.64
7228.95
7239.99
7249.95
7258.72
7266.69
7273.82
7280.02
7285.19
7289.29
7292.32
7294.41
7295.59
7296.08
7296.08
7295.8
7295.48
7295.4
7295.8
7296.94
7299.03
7302.27
7306.75
7312.52
7319.49
7327.51
7336.32
7345.61
7354.98
7364.01
7372.26
7379.32
7384.83
7388.5
7390.15
7389.68
7387.1
7382.51
7376.11
7368.19
7359.11
7349.3
7339.2
7329.25
7319.84
7311.32
7303.95
7297.88
7293.21
7289.93
7287.95
7287.1
7287.15
7287.85
7288.9
7290.01
7290.89
7291.27
7290.9
7289.53
7287.09
7283.42
7278.48
7272.33
7265.01
7256.6
7247.58
7236.77
7224.77
7211.36
7202.5
7198.74
7198.64
7201.9
7201.86
7200.78
7200.8
7200.76
7201.43
7205.51
7213.8
7225.03
7237.03
7248.39
7258.7
7268
7276.22
7283.22
7288.87
7293.13
7296.01
7297.63
7298.15
7297.78
7296.76
7295.38
7293.94
7292.75
7292.14
7292.45
7293.97
7296.95
7301.57
7307.86
7315.77
7325.09
7335.52
7346.66
7358.02
7369.06
7379.21
7387.94
7394.78
7399.36
7401.46
7400.94
7397.83
7392.24
7384.43
7374.77
7363.73
7351.84
7339.67
7327.79
7316.7
7306.81
7298.45
7291.8
7286.95
7283.89
7282.49
7282.51
7283.67
7285.61
7287.98
7290.4
7292.51
7293.99
7294.48
7293.78
7291.64
7287.91
7282.56
7275.63
7267.21
7257.46
7246.54
7234.22
7221.06
7208.29
7196.73
7191.58
7192.26
7192.84
7192.73
7190.94
7191.55
7192.83
7195.84
7201.49
7210.25
7221.83
7234.66
7247.36
7259.3
7270.17
7279.71
7287.66
7293.88
7298.27
7300.89
7301.9
7301.51
7300.01
7297.69
7294.89
7291.97
7289.32
7287.35
7286.49
7287.15
7289.7
7294.37
7301.26
7310.27
7321.19
7333.63
7347.1
7360.99
7374.61
7387.21
7398.08
7406.63
7412.4
7415.07
7414.51
7410.73
7403.88
7394.28
7382.4
7368.85
7354.31
7339.53
7325.22
7312.02
7300.46
7290.92
7283.59
7278.61
7275.91
7275.32
7276.55
7279.18
7282.76
7286.84
7290.95
7294.66
7297.55
7299.23
7299.37
7297.67
7293.94
7288.11
7280.23
7270.46
7259.04
7246.27
7232.4
7218.16
7205.09
7194.65
7187.21
7184.4
7182.8
7182.09
7179.34
7180.69
7183.26
7187.79
7194.98
7205.13
7217.88
7232.12
7246.67
7260.68
7273.5
7284.65
7293.76
7300.6
7305.09
7307.31
7307.49
7305.92
7302.96
7298.96
7294.34
7289.53
7284.97
7281.18
7278.69
7278.08
7279.89
7284.49
7292.01
7302.37
7315.23
7330.15
7346.55
7363.67
7380.61
7396.38
7410.06
7420.83
7428.1
7431.51
7430.91
7426.3
7417.85
7405.96
7391.23
7374.44
7356.51
7338.38
7321
7305.17
7291.54
7280.61
7272.57
7267.52
7265.42
7266.01
7268.88
7273.47
7279.2
7285.47
7291.75
7297.5
7302.22
7305.43
7306.71
7305.64
7301.96
7295.57
7286.58
7275.09
7261.59
7246.55
7230.58
7214.56
7199.79
7187.74
7179.12
7173.74
7170.82
7169.35
7165.07
7167.3
7171.34
7177.42
7186.03
7197.56
7212.19
7228.84
7246.19
7263.01
7278.33
7291.48
7302.02
7309.45
7313.93
7315.54
7314.58
7311.46
7306.63
7300.57
7293.74
7286.61
7279.66
7273.49
7268.79
7266.36
7266.99
7271.27
7279.4
7291.25
7306.44
7324.35
7344.42
7365.7
7386.97
7406.85
7424.08
7437.64
7446.82
7451.17
7450.51
7444.86
7434.42
7419.66
7401.32
7380.39
7358.08
7335.67
7314.42
7295.39
7279.3
7266.88
7258.13
7253.19
7251.99
7254.22
7259.29
7266.44
7274.87
7283.87
7292.79
7301.05
7308.09
7313.32
7316.14
7315.99
7312.44
7305.4
7295.32
7281.49
7265.35
7247.33
7228.3
7209.43
7192.13
7177.65
7167.24
7160.22
7155.79
7153.45
7147.11
7150.72
7156.73
7164.72
7174.77
7187.22
7204.22
7224.36
7245.61
7266.08
7284.45
7299.92
7311.97
7320.51
7324.91
7325.51
7322.93
7317.73
7310.55
7301.92
7292.34
7282.28
7272.28
7263.03
7255.46
7250.69
7249.89
7253.85
7262.7
7276.41
7294.44
7315.85
7340.46
7366.92
7393.63
7418.74
7440.53
7457.69
7469.29
7474.8
7474.08
7467.13
7454.14
7435.69
7412.77
7386.65
7358.91
7331.27
7305.2
7282.25
7263.72
7249.19
7239.54
7234.66
7234.45
7238.62
7246.45
7256.87
7268.8
7281.3
7293.57
7304.95
7314.87
7322.7
7327.65
7328.9
7325.67
7317.4
7304.02
7288.88
7269.92
7248.22
7225.12
7202.31
7181.51
7164.08
7152.22
7143.26
7136.71
7133.23
7123.55
7125.89
7137.3
7149.23
7161.23
7176.11
7195.11
7220.27
7246.96
7272.18
7294.31
7312.42
7325.99
7334.44
7338.33
7337.55
7332.79
7324.65
7314.13
7302.02
7288.81
7274.9
7260.74
7246.99
7234.96
7226.54
7223.95
7228.38
7239.05
7255.66
7277.63
7302.68
7333.35
7367.12
7401.34
7433.21
7460.84
7482.69
7497.39
7504.29
7503.46
7494.93
7478.73
7455.53
7426.81
7394.12
7359.12
7324.38
7291.9
7263.97
7242.42
7225.08
7213.71
7208
7208.31
7214.98
7226.93
7242.21
7259.08
7276.33
7293.08
7308.68
7322.56
7333.97
7341.8
7345.02
7342.54
7333.44
7318.72
7300.94
7277.94
7251.41
7223.04
7194.99
7169.99
7150.16
7134.7
7117.26
7101.48
7107.49
4044.82
4184.25
4339.09
4448.24
4556.82
4774.47
5191.99
5723.8
6235.3
6638.67
6928.01
7126.98
7268.8
7351.09
7352.68
7309.84
7204.82
7068.25
6949.47
6834.2
6694.56
6526.48
6329.85
6105.44
5871.17
5667.09
5561.51
5604.89
5748.34
5984.76
6292.12
6630.22
6925.28
7160.24
7370.86
7448.98
7484.04
7511.87
7530.23
7538.46
7537.47
7527.39
7507.51
7478.13
7441.89
7368.16
7142.61
6898.55
6596.61
6214.37
5874.24
5625.05
5466.68
5390.01
5418.55
5570.93
5808.21
6074.43
6330.69
6563.36
6759.64
6916.59
7051.61
7175.42
7275.09
7333.78
7347.17
7290.77
7176.69
6994.94
6731.17
6371.47
5909.82
5390.12
4895.89
4508.28
4277.56
4121.91
3910.27
3771.12
4.98861
20.2254
87.5613
199.578
327.284
455.038
603.968
813.786
1091.23
1412.87
1744.66
2038.44
2270.36
2429.87
2499.24
2458.32
2365.39
2188.02
1960.17
1729.41
1498.74
1275.78
1051.59
833.429
643.04
502.394
439.251
459.928
521.485
620.707
758.923
1051.63
1594.84
2391.32
3304.59
4244.58
5048.41
5641.53
5974.75
6080.64
6072.02
5948.84
5604.15
4972.56
4129.75
3187.3
2320.69
1528.4
932.953
597.198
460.715
384.782
349.618
341.614
369.07
456.847
611.081
820.144
1062.76
1328.74
1613.87
1908.02
2222.23
2539.59
2779.69
2912.34
2896.86
2716.8
2387.99
1964.31
1511.44
1091.67
731.561
461.117
296.729
202.313
136.793
77.6681
38.2322
17.8478
2.06716
1.82542
1.65631
1.63062
1.54273
1.48969
1.42522
1.2777
1.24977
1.41354
1.80584
2.17664
2.14836
1.92685
1.67162
1.26988
0.837809
0.487012
0.256201
0.136838
0.123864
0.195109
0.315775
0.457746
0.594825
0.697968
0.750093
0.764761
0.774375
0.783327
0.794329
0.831605
2.69058
8.20517
32.3338
147.534
377.686
658.059
871.998
949.471
926.287
808.952
583.383
312.456
109.805
21.2054
6.34632
2.52495
0.622469
0.616704
0.603186
0.606446
0.599426
0.554218
0.515878
0.472403
0.38139
0.239229
0.0767501
-0.0711109
-0.166637
-0.191843
-0.154609
-0.069668
0.0525295
0.193789
0.343606
0.517321
0.726193
0.916478
1.13194
1.52119
1.91653
2.33077
2.73161
2.99409
3.06634
3.68999
3.29246
3.14901
1.96482
1.60607
1.50758
1.54298
1.47423
1.32885
1.22342
1.09546
1.08798
1.27132
1.77087
1.9291
2.09007
1.97275
1.69369
1.26339
0.877778
0.555318
0.366766
0.270558
0.248363
0.284476
0.361833
0.465736
0.583422
0.667235
0.700637
0.718617
0.731434
0.769977
1.27386
1.33903
1.3491
1.6982
2.84223
4.86074
6.63247
8.04422
9.40735
10.114
9.64581
7.49547
5.09261
3.55686
2.29197
1.32652
0.966623
0.988667
2.90611
3.12169
1.08999
0.638422
0.597009
0.485096
0.421248
0.425854
0.390673
0.275037
0.106019
-0.0418991
-0.113169
-0.105037
-0.0346808
0.0998895
0.249388
0.365314
0.457497
0.545659
0.636105
0.753204
0.924645
1.27997
1.82617
2.63048
4.67345
5.56784
5.43889
3.32701
2.98969
3.05967
1.89594
1.52918
1.47034
1.39083
3.16063
4.04939
3.27063
0.762213
0.643852
2.96263
4.29999
4.19114
3.93496
4.11399
3.71403
1.69981
0.79785
0.535934
0.384576
0.295792
0.255
0.254218
0.283972
0.340314
0.41188
0.477675
0.531755
0.584982
0.665256
0.732488
0.738072
1.34114
2.18722
1.41235
1.07607
1.24854
1.41995
1.46565
1.42119
1.46567
1.87485
1.46242
0.630697
0.497394
0.463909
0.654583
0.81949
0.966349
2.0219
2.69897
0.944455
0.708493
0.662046
0.533553
0.379984
0.314818
0.231267
0.0327033
-0.101299
-0.176694
-0.180549
-0.116966
-0.00160049
0.143481
0.296207
0.436113
0.548109
0.630171
0.690713
0.738258
0.833208
1.03359
2.59414
4.76097
5.11256
5.35567
5.55053
5.67875
3.41011
3.05473
1.8589
1.61241
1.4682
4.30117
4.02414
3.56658
3.24825
3.13475
3.15766
3.38343
3.76145
4.24561
4.72519
5.09081
5.2168
3.32772
0.649556
0.418554
0.309787
0.245476
0.21324
0.207372
0.223837
0.267288
0.303075
0.335543
0.386067
0.449418
0.518001
0.579294
0.619571
0.627206
2.03741
1.40688
0.881179
0.586849
0.4875
0.391924
0.280163
0.330929
1.07955
0.865622
0.287565
0.355682
0.440466
0.661015
0.879289
0.972054
1.41954
1.46059
0.559793
0.593636
0.544363
0.465217
0.322395
0.155741
-0.0677363
-0.191757
-0.275365
-0.304303
-0.269898
-0.173989
-0.0334839
0.128646
0.289019
0.430985
0.53704
0.606168
0.641287
0.658967
0.704357
0.847885
3.61774
4.41989
4.66613
4.83635
5.06655
5.38096
5.70859
3.33666
2.02745
1.9283
4.73166
4.24838
3.57873
3.05741
2.40332
0.154135
0.279219
2.47082
3.09768
3.78918
4.29901
4.7322
4.96717
4.01884
0.534846
0.315743
0.24729
0.204032
0.181151
0.17689
0.266715
0.304524
0.314681
0.295219
0.289174
0.33593
0.471731
0.546356
0.490103
0.519237
1.48079
1.4682
0.830099
0.457699
0.317584
0.195869
0.0968444
0.0269224
0.953354
1.03303
0.296082
0.376347
0.456034
1.01999
0.739975
0.34989
0.415032
0.398205
0.408155
0.419208
0.362417
0.261257
0.115541
-0.0806616
-0.227928
-0.334899
-0.396108
-0.402564
-0.346594
-0.231532
-0.0629611
0.10741
0.253211
0.369875
0.462375
0.520489
0.540493
0.53612
0.549783
1.73932
3.7341
3.89284
4.06934
2.45662
4.46448
4.83588
5.26817
3.28639
2.08655
2.20475
4.73829
4.03054
3.33988
1.10556
-0.122264
-0.15129
-0.0718523
0.115174
0.444802
3.50893
4.07138
4.52764
4.80871
2.26352
0.294865
0.218334
0.207673
0.190181
0.148176
0.230141
0.264322
0.278082
0.30132
0.435054
0.465908
0.502472
0.541528
0.577622
0.505533
0.563117
0.817332
1.26804
0.598071
0.400633
0.29762
0.190538
0.0932999
0.0303884
0.203163
1.09442
1.21893
0.830516
0.524662
1.08675
0.542663
0.337669
0.32647
0.330691
0.336932
0.305846
0.227426
0.101114
-0.0486489
-0.191844
-0.310933
-0.39944
-0.449374
-0.448041
-0.38818
-0.262313
-0.0965102
0.0621019
0.195936
0.270231
0.346774
0.390638
0.397734
0.375171
0.3618
3.05494
3.45479
3.39912
2.52282
1.49888
2.81444
4.24258
4.65843
3.57678
1.89992
4.37559
4.68464
3.94822
2.64633
-0.0235411
-0.231031
-0.260668
-0.153841
0.0792829
0.797888
2.8024
4.01346
4.47117
4.72612
0.72992
0.166656
0.130793
0.131958
0.151214
0.149037
0.111283
0.15473
0.184898
0.168022
0.178841
0.231092
0.313441
0.408317
0.462456
0.415704
0.388882
0.357861
0.388466
0.398804
0.399313
0.323997
0.235106
0.16058
0.120093
0.124087
0.831719
1.33151
1.36201
0.748215
0.97656
0.440053
0.379665
0.350853
0.326712
0.29519
0.238919
0.149978
0.0305664
-0.101215
-0.224238
-0.326358
-0.402254
-0.444604
-0.442454
-0.38772
-0.250752
-0.126238
0.0032453
0.0863998
0.158476
0.21487
0.241958
0.234422
0.193958
0.616902
3.30381
3.19762
3.07177
1.16744
0.992283
1.19393
3.469
4.10582
4.4478
1.76833
5.337
4.75252
4.05206
3.4817
0.130717
-0.14203
0.268704
0.374671
1.5792
3.23902
3.59716
4.06799
4.56217
2.8249
0.15205
0.0559491
0.0512515
0.0551038
0.105233
0.0956222
0.0792942
0.0910291
0.106423
0.125412
0.147798
0.172999
0.202023
0.234189
0.264912
0.289276
0.307329
0.319611
0.330213
0.545643
0.574016
0.34105
0.261337
0.217131
0.206261
0.231893
0.491882
1.42638
1.45369
1.00018
0.676988
0.448844
0.402186
0.359539
0.319497
0.271348
0.204808
0.116181
0.00948915
-0.102765
-0.207488
-0.294499
-0.359574
-0.397008
-0.396992
-0.325699
-0.233055
-0.136183
-0.047507
-0.00240967
0.0517557
0.0832441
0.0892693
0.0621699
0.00193551
0.736829
3.16011
3.27833
1.44618
0.683603
0.703026
0.846737
1.9228
2.82508
2.44218
1.75578
5.21066
4.99975
4.36244
3.82064
3.45881
3.17208
3.25377
3.34903
3.54913
3.72538
3.92724
4.35795
4.35317
0.389269
-0.0756442
-0.0450568
-0.0229426
-0.00143259
0.0179566
0.0356632
0.0463521
0.0601453
0.0775914
0.0972684
0.119156
0.143683
0.178402
0.263731
0.267469
0.258774
0.367881
0.691706
0.772117
1.13561
1.01985
0.386271
0.265796
0.238905
0.251311
0.298254
0.41263
1.45859
1.5295
1.26435
0.980603
0.472858
0.399841
0.352544
0.312171
0.255503
0.188945
0.10721
0.0149352
-0.0789332
-0.165503
-0.237787
-0.292776
-0.324035
-0.298825
-0.250464
-0.193913
-0.126981
-0.110313
-0.0672027
-0.0428442
-0.0402337
-0.0621127
-0.11614
-0.195347
-0.0692188
2.68317
3.66749
0.612916
0.550276
0.564217
0.664453
3.43686
3.44128
1.69182
1.80713
1.86676
5.35526
4.85252
4.35562
4.03106
3.87116
3.84913
3.93962
4.00946
4.0235
4.18159
3.64915
0.292097
-0.26905
-0.185221
-0.128761
-0.0854975
-0.0505095
-0.0245564
-0.00542355
0.0109906
0.0271645
0.0439024
0.0614171
0.0801704
0.098786
0.20074
0.691552
0.700161
0.700433
0.466644
0.731526
1.11779
1.25151
1.10879
0.708723
0.342071
0.235095
0.263355
0.323004
0.399861
1.34412
1.57135
1.5878
1.56188
0.487228
0.382297
0.461684
0.434152
0.298173
0.187687
0.115843
0.0371022
-0.0410858
-0.112165
-0.170882
-0.215592
-0.201814
-0.196289
-0.17452
-0.137743
-0.135864
-0.122083
-0.112355
-0.121831
-0.153702
-0.213724
-0.304018
-0.396613
-0.447419
3.25078
3.88661
0.753569
0.473118
0.491597
0.570209
3.9409
3.96469
1.48678
1.81035
1.75159
3.01791
5.40174
5.05515
4.78567
4.66456
4.62033
3.99699
0.93255
1.36543
1.47213
-0.526591
-0.427609
-0.330527
-0.248599
-0.180161
-0.125857
-0.0865384
-0.0578497
-0.037042
-0.0204937
-0.00579792
0.00813493
0.0387204
0.0431181
0.128567
0.513405
0.595253
0.554882
0.275977
0.123676
0.17716
2.82391
3.56742
3.5707
2.61714
0.414391
0.2047
0.246557
0.318619
0.401667
1.03801
1.57801
1.58278
1.58616
0.950112
0.367781
0.393336
0.428833
0.393687
0.295945
0.140136
0.0750264
0.00977362
-0.0497172
-0.0996369
-0.102322
-0.100777
-0.0996551
-0.085356
-0.096241
-0.109186
-0.114931
-0.138928
-0.183974
-0.258119
-0.368718
-0.50143
-0.602468
1.08879
3.92166
3.89845
1.02682
1.76491
1.94176
3.18817
3.96801
4.03635
1.48661
2.42365
2.0768
2.13522
2.83576
2.87296
3.48716
3.60556
1.84153
-0.170745
-0.330377
-0.422807
-0.469889
-0.457518
-0.405626
-0.337011
-0.266437
-0.2006
-0.147552
-0.110248
-0.0833273
-0.0638052
-0.0491354
-0.0374639
-0.0276512
0.0410076
0.105329
0.101985
-0.0162105
-0.0297795
-0.0447643
-0.0511302
-0.0562504
2.0884
3.45959
3.5072
3.50948
3.48694
2.6043
0.267643
0.202726
0.292251
0.387501
1.15317
1.56421
1.06907
1.5425
1.05464
0.372453
0.348522
0.333982
0.403002
0.391712
0.352936
0.181748
0.077268
0.0301246
-0.00812659
0.00637789
0.00791877
0.00962166
-0.0122042
-0.0419018
-0.0579396
-0.0921127
-0.146915
-0.229434
-0.354087
-0.524491
-0.692461
-0.78741
3.64163
3.84504
3.79367
3.80886
3.82312
3.82646
3.87153
3.97908
4.18585
1.2658
2.38386
2.2573
2.12259
0.814276
0.76665
0.968031
0.833317
0.650677
0.0309874
-0.0475452
-0.115753
-0.208885
-0.342648
-0.349584
-0.304536
-0.25143
-0.200837
-0.158281
-0.126069
-0.102969
-0.0866466
-0.0751812
-0.0673251
-0.0619389
-0.058816
-0.00837324
-0.055275
-0.0717508
-0.0887205
-0.106006
-0.119068
-0.145562
0.0481547
2.75308
3.40729
3.40783
3.38246
3.42059
0.763081
0.137228
0.253805
0.387561
1.50747
1.55398
0.642422
0.663935
0.486266
0.40398
0.381465
0.344621
0.311397
0.422802
0.419176
0.393362
0.307845
0.14319
0.100211
0.111408
0.124679
0.0869141
0.057629
0.0365263
0.000574133
-0.0559473
-0.136242
-0.256121
-0.435961
-0.659415
-0.84029
2.66622
3.82358
3.69241
3.65965
3.6918
3.72651
3.78247
3.88765
4.07597
4.46981
0.411475
0.203069
0.456334
0.823673
0.420085
0.780306
1.0759
0.846095
0.107053
0.0181057
0.181023
0.325627
0.273294
-0.166532
-0.284434
-0.259479
-0.225045
-0.190515
-0.160276
-0.136448
-0.118935
-0.106805
-0.0991867
-0.0952464
-0.0939288
-0.0924572
-0.0972464
-0.104405
-0.12246
-0.14435
-0.166637
-0.184294
-0.200637
-0.241705
0.388778
2.98924
2.35324
3.19354
3.27569
0.567858
0.0647049
0.214483
1.24499
1.50395
0.972606
0.609951
0.620419
0.556249
1.02702
1.8412
1.37023
0.343225
0.387525
0.475897
0.465476
0.448965
0.328924
0.207836
0.196454
0.179728
0.165249
0.143232
0.110059
0.0618155
-0.00857929
-0.106988
-0.211977
-0.419544
-0.636179
0.0942215
3.9439
3.69856
3.58464
3.58405
3.61783
3.67314
3.78554
3.98824
4.33777
3.61814
0.298387
0.177368
0.177275
0.18099
0.180236
0.164516
0.129086
0.0773992
0.0195757
0.0610071
0.447716
0.394967
0.215283
-0.196845
-0.231988
-0.220061
-0.200835
-0.179636
-0.160121
-0.144097
-0.132276
-0.124739
-0.121257
-0.121178
-0.123621
-0.112167
-0.120068
-0.135732
-0.162749
-0.198165
-0.226825
-0.246966
-0.24365
1.32489
2.02556
0.752921
-0.475017
-0.0115458
1.46759
0.267136
0.04429
0.386261
1.40746
1.51054
0.562014
0.623786
1.39104
2.28302
2.40191
2.40845
2.39225
1.67867
0.474222
0.433576
0.529115
0.45714
0.321779
0.292353
0.278219
0.261369
0.240001
0.211983
0.174672
0.122148
0.0471186
0.0389936
0.369799
0.161978
0.739243
4.27598
3.87978
3.66417
3.58214
3.58188
3.63203
3.73305
3.91395
4.2031
3.25218
0.308559
0.369162
0.15954
0.157772
0.157532
0.15194
0.136913
0.108718
0.0678719
0.0269135
0.216802
0.0981887
0.0913843
-0.166117
-0.185441
-0.192422
-0.190339
-0.181896
-0.170671
-0.159557
-0.150319
-0.143988
-0.141039
-0.141563
-0.14511
-0.150675
-0.143774
-0.155265
-0.182211
-0.215683
-0.247584
-0.280432
-0.305431
0.794716
2.13694
1.94421
0.477817
-0.677783
-0.595697
-0.345025
-0.0645719
0.174793
1.26547
1.39437
0.657421
0.602811
1.22199
1.41137
0.903021
1.92367
2.43509
2.39387
2.28282
0.492296
0.359783
0.388712
0.374549
0.362323
0.350299
0.333706
0.313551
0.290627
0.263444
0.228229
0.178669
0.108234
0.284171
0.647163
0.326391
2.02192
4.33149
3.95804
3.76384
3.6957
3.72076
3.81002
3.97937
3.06283
1.10713
0.208029
0.266229
0.387442
0.137938
0.135088
0.132456
0.124605
0.109698
0.0852308
0.052797
0.032731
0.0626517
-0.0642469
-0.103476
-0.131588
-0.154246
-0.165013
-0.169001
-0.167747
-0.163816
-0.159247
-0.155715
-0.154354
-0.155749
-0.160037
-0.166947
-0.176304
-0.187824
-0.204567
-0.230984
-0.258234
-0.290161
-0.3261
-0.353303
1.68281
2.06864
1.27417
-0.580935
-0.702057
-0.611494
-0.46217
0.149514
1.07866
1.24841
1.38746
0.666929
0.996802
1.03434
0.488801
0.345823
0.616925
1.7748
1.95466
0.973799
0.383707
0.380338
0.398009
0.399548
0.392011
0.377204
0.359126
0.340593
0.321206
0.298699
0.269049
0.23061
0.172203
0.396834
0.427562
-0.0893734
1.7898
4.55815
4.21055
4.03588
3.98907
4.05259
2.05535
-0.165093
-0.406224
-0.150925
0.261462
0.414492
0.438977
0.116679
0.113729
0.109499
0.101473
0.0874381
0.066754
0.0401536
0.03309
-0.0107328
-0.0451073
-0.0801797
-0.110246
-0.133555
-0.146216
-0.153475
-0.157168
-0.158608
-0.159303
-0.160623
-0.163639
-0.168998
-0.17683
-0.186939
-0.199384
-0.215351
-0.236107
-0.262653
-0.291976
-0.293856
-0.359862
-0.385504
2.04781
1.88325
-0.467782
-0.704983
-0.670422
-0.582911
-0.421936
0.900226
1.0697
1.2331
0.858511
0.873624
0.916374
0.444992
0.343063
0.330996
0.288977
0.275359
0.30163
0.270967
0.339829
0.383814
0.40312
0.403225
0.392274
0.378839
0.364444
0.350093
0.335546
0.319423
0.298955
0.272427
0.234531
0.248791
0.0759671
-0.0866951
0.12323
4.58955
4.64305
4.51996
1.28499
-0.785367
-0.81309
-0.661657
-0.320671
0.0887777
0.424736
0.581921
0.561898
0.0992944
0.0956038
0.0896641
0.0806682
0.0685526
0.0512105
0.0284753
0.0227781
-0.00457537
-0.0395766
-0.0772672
-0.101281
-0.119385
-0.132612
-0.142009
-0.149378
-0.154863
-0.159766
-0.165196
-0.17205
-0.180949
-0.19205
-0.205214
-0.220586
-0.239338
-0.262336
-0.290027
-0.319726
-0.0591012
-0.361637
-0.189078
2.27023
0.116733
-0.641733
-0.64826
-0.609567
-0.50724
0.579284
0.926746
1.06326
0.800963
0.172665
0.663962
0.344769
0.287637
0.312294
0.314714
0.28294
0.244494
0.242574
0.284518
0.336296
0.371193
0.385906
0.385296
0.376654
0.366715
0.356167
0.346184
0.336767
0.327092
0.315861
0.301983
0.27594
0.220405
0.185474
0.073492
-0.159857
1.31534
2.82691
-0.443093
-0.755451
-0.660574
-0.57581
-0.385428
-0.109277
0.224189
0.435793
0.461575
0.244841
0.0834487
0.0797166
0.0728605
0.0638247
0.0517913
0.0378154
0.0192214
-0.00338461
-0.0192722
-0.0496947
-0.0718967
-0.0918727
-0.108999
-0.122868
-0.133946
-0.143678
-0.15214
-0.160369
-0.169224
-0.179473
-0.19163
-0.205843
-0.222025
-0.240321
-0.261657
-0.286467
-0.314491
-0.340418
-0.0698723
-0.250219
0.370918
2.33211
-0.536746
-0.574209
-0.579225
-0.542008
0.0782401
0.845679
0.95188
0.902019
0.0239754
0.101785
0.178253
0.223429
0.234694
1.35218
4.83431
3.82656
0.325831
0.236492
0.278607
0.319814
0.346454
0.357608
0.357665
0.352712
0.345839
0.338795
0.332602
0.32761
0.323485
0.31986
0.316328
0.30619
0.288553
0.429719
0.364832
0.0642368
-0.142619
-0.318561
-0.419057
-0.432739
-0.321931
-0.365378
-0.246215
-0.0338226
0.209898
0.196567
0.152667
0.122901
0.0686726
0.0648072
0.058262
0.0497111
0.0388709
0.025271
0.00939988
-0.0087348
-0.0281982
-0.0479735
-0.0672142
-0.0851645
-0.101339
-0.11548
-0.127965
-0.139383
-0.149988
-0.160951
-0.172668
-0.185894
-0.201053
-0.218275
-0.237502
-0.258845
-0.282788
-0.30951
-0.337808
-0.362067
-0.223173
0.598467
2.64471
2.05126
-0.503428
-0.512776
-0.514595
-0.34697
0.778734
0.862231
0.968951
-0.0895588
-0.0133606
0.0735111
0.131035
0.181501
2.4567
5.48442
5.46701
5.46971
4.05277
0.202268
0.263675
0.301951
0.320235
0.326959
0.326933
0.323686
0.319145
0.314902
0.311819
0.310345
0.310412
0.312043
0.315187
0.316076
0.316216
0.443486
0.451537
0.253416
0.105744
-0.0336246
-0.151828
-0.110835
-0.0599785
-0.0470109
-0.185914
-0.182288
-0.0306864
0.055336
0.081304
0.0760533
0.0548784
0.0509849
0.0453632
0.0376767
0.0279831
0.0160817
0.00226639
-0.0132231
-0.0298795
-0.0469958
-0.0639834
-0.0803269
-0.0956594
-0.109874
-0.123132
-0.135814
-0.148355
-0.161398
-0.175446
-0.19127
-0.20919
-0.229382
-0.251817
-0.276366
-0.303201
-0.332407
-0.351088
-0.382769
-0.391738
1.4759
3.12644
1.59579
-0.467668
-0.468701
-0.405099
0.532283
0.790275
0.880281
-0.117676
-0.111409
-0.0398335
0.023733
0.0969076
1.98321
5.46152
5.45184
5.45229
2.76444
0.609992
0.205264
0.246454
0.281215
0.292224
0.294175
0.293052
0.290705
0.288168
0.286382
0.28593
0.287149
0.290058
0.294675
0.300913
0.306661
0.306926
0.315201
0.317809
0.388654
0.539647