/*--------------------------------*- C++ -*----------------------------------*\
| =========                 |                                                 |
| \\      /  F ield         | OpenFOAM: The Open Source CFD Toolbox           |
|  \\    /   O peration     | Version:  2412                                  |
|   \\  /    A nd           | Website:  www.openfoam.com                      |
|    \\/     M anipulation  |                                                 |
\*---------------------------------------------------------------------------*/
FoamFile
{
    version     2.0;
    format      ascii;
    arch        "LSB;label=32;scalar=64";
    class       volScalarField;
    location    "11";
    object      p;
}
// * * * * * * * * * * * * * * * * * * * * * * * * * * * * * * * * * * * * * //

dimensions      [1 -1 -2 0 0 0 0];

internalField   nonuniform List<scalar> 
6400
(
23597.1
23604.2
23606.9
23609.4
23613.8
23621
23631
23643.1
23656
23669.1
23682.8
23698.1
23716.4
23737.5
23760.6
23784
23806.4
23827.6
23848.2
23869
23890.1
23911
23930.5
23947.8
23962.8
23975.6
23986.9
23996.8
24005.4
24012.6
24018.4
24022.8
24026.3
24029
24031.1
24032.6
24033.7
24034.3
24034.6
24034.7
24034.7
24034.8
24034.9
24035.3
24036.1
24037.5
24039.5
24042.4
24046
24050.6
24055.9
24062
24068.6
24075.5
24082.7
24089.8
24096.4
24102.1
24106.6
24109.7
24111.1
24110.8
24108.8
24105.2
24099.9
24093
24084.5
24074.6
24063.8
24052.3
24040.4
24028.1
24015.4
24002
23987.8
23972.8
23956.9
23939.7
23921.8
23908.7
22371.2
22378.3
22381.9
22385.6
22390.2
22396.3
22404.7
22416
22429.5
22444
22458.7
22473.7
22490
22508.4
22529.2
22551.7
22574.5
22596.3
22616.9
22636.6
22655.9
22675
22693.4
22710.3
22725.1
22737.6
22748.3
22757.4
22765.2
22771.7
22777.1
22781.2
22784.3
22786.5
22788.2
22789.4
22790.1
22790.4
22790.4
22790.2
22790
22789.8
22789.8
22790
22790.6
22791.8
22793.6
22796.2
22799.7
22804.1
22809.3
22815.1
22821.5
22828.3
22835.1
22841.8
22848
22853.6
22858
22861.1
22862.5
22862.2
22860.1
22856.4
22851.1
22844.3
22836.2
22826.7
22816.1
22804.7
22792.7
22780.5
22768.1
22755.3
22741.9
22728
22713.3
22697.9
22686
22692.8
21144.3
21151.8
21156.6
21161.8
21167.6
21173.7
21181.3
21191.6
21205
21220.6
21237
21253.2
21269.3
21286.3
21305.4
21326.8
21349.7
21372.4
21393.8
21413.6
21432.2
21450.1
21467.6
21484.2
21499.2
21512.1
21522.8
21531.8
21539.5
21545.9
21551.3
21555.6
21558.9
21561.3
21563.1
21564.3
21565.2
21565.6
21565.7
21565.6
21565.4
21565.3
21565.3
21565.6
21566.2
21567.4
21569.2
21571.7
21575
21579.2
21584.2
21590
21596.2
21602.7
21609.2
21615.5
21621.4
21626.5
21630.7
21633.6
21634.9
21634.5
21632.3
21628.3
21622.9
21616.1
21608
21598.9
21588.6
21577.4
21565.6
21553.4
21541.1
21528.9
21516.5
21503.7
21490.6
21476.8
21467.2
21477.6
19921.7
19929
19934.3
19940.7
19947.9
19954.8
19961.9
19970.9
19983
19998.4
20015.8
20033.6
20050.8
20067.6
20085.3
20104.9
20126.7
20149.5
20171.7
20192.2
20210.7
20227.8
20244.2
20259.9
20274.6
20287.6
20298.6
20307.6
20315.1
20321.5
20326.8
20331.2
20334.7
20337.3
20339.2
20340.6
20341.5
20342
20342.3
20342.3
20342.2
20342.1
20342.2
20342.5
20343.2
20344.4
20346.1
20348.6
20351.7
20355.7
20360.5
20366
20372.1
20378.3
20384.6
20390.5
20395.9
20400.6
20404.3
20407
20408.2
20407.7
20405.4
20401.4
20395.7
20388.8
20380.8
20371.9
20362.1
20351.4
20339.9
20328
20316
20304.1
20292.5
20281
20269.2
20256.8
20248.3
20258.6
18704.3
18710.9
18715.6
18722
18730.3
18738.6
18746.4
18754.5
18764.8
18778.4
18795.2
18813.9
18832.7
18850.5
18867.8
18885.7
18905.5
18927
18949
18970
18988.9
19005.7
19021.2
19035.7
19049.6
19062.2
19073.1
19082.1
19089.5
19095.6
19100.8
19105.1
19108.6
19111.3
19113.3
19114.7
19115.7
19116.3
19116.7
19116.8
19116.8
19116.8
19116.8
19117.2
19117.9
19119
19120.8
19123.1
19126.1
19129.8
19134.3
19139.4
19145
19151
19157
19162.6
19167.6
19171.7
19175
19177.1
19178.1
19177.6
19175.4
19171.5
19165.9
19158.9
19150.8
19142
19132.7
19122.6
19111.9
19100.6
19089
19077.5
19066.4
19055.7
19045.1
19034.1
19026.6
19037.4
17490.9
17496.9
17500.2
17505.6
17514
17523.5
17532.7
17541.4
17550.6
17562
17576.8
17594.8
17614.4
17633.7
17651.9
17669.2
17687
17706.2
17726.8
17747.5
17766.8
17783.8
17798.8
17812.3
17825
17836.8
17847.3
17856.2
17863.6
17869.5
17874.4
17878.5
17881.9
17884.6
17886.7
17888.2
17889.3
17890
17890.4
17890.6
17890.7
17890.8
17890.9
17891.2
17891.9
17893
17894.7
17896.9
17899.8
17903.2
17907.2
17911.8
17916.9
17922.4
17928
17933.2
17937.9
17941.7
17944.4
17946.1
17946.6
17945.9
17943.9
17940.3
17935
17928.2
17920.2
17911.4
17902.3
17892.8
17882.9
17872.5
17861.7
17850.7
17840
17829.9
17820
17810
17803.5
17814.7
16280.1
16286.1
16288.3
16292.1
16299.2
16308.8
16319.2
16329.4
16339.1
16349.3
16361.8
16377.6
16396.3
16416.4
16435.8
16453.7
16470.7
16487.9
16506.2
16525.4
16544.2
16561.4
16576.3
16589.3
16601
16611.6
16621.4
16630
16637.2
16643.1
16647.8
16651.7
16654.9
16657.6
16659.7
16661.2
16662.4
16663.2
16663.7
16664
16664.2
16664.4
16664.6
16664.9
16665.5
16666.5
16668.1
16670.2
16672.8
16676
16679.7
16683.7
16688.2
16693
16698
16702.8
16707.2
16710.7
16713.1
16714.3
16714.3
16713.3
16711.2
16707.9
16703.1
16696.9
16689.2
16680.7
16671.6
16662.5
16653.3
16643.9
16634.2
16624.1
16613.9
16604.1
16594.6
16585.2
16579.3
16590.8
15070.6
15077.5
15079.3
15081.7
15086.9
15095.1
15105.6
15117.1
15128.3
15138.9
15150
15163.3
15179.7
15198.8
15218.7
15237.7
15254.9
15271.1
15287.3
15304.2
15321.6
15338.2
15353.1
15365.8
15376.8
15386.5
15395.4
15403.3
15410.1
15415.8
15420.4
15424.2
15427.3
15429.8
15431.9
15433.5
15434.7
15435.6
15436.2
15436.7
15437
15437.3
15437.6
15437.9
15438.5
15439.3
15440.7
15442.5
15444.9
15447.9
15451.2
15454.8
15458.7
15462.8
15467
15471.2
15475.1
15478.4
15480.6
15481.6
15481.3
15479.9
15477.5
15474.2
15469.9
15464.4
15457.5
15449.5
15440.8
15431.8
15423
15414.4
15405.7
15396.8
15387.6
15378.3
15369.1
15359.9
15354.3
15365.7
13861.8
13869.7
13872
13874
13877.6
13883.6
13892.7
13904.1
13916.5
13928.5
13939.8
13951.5
13965.3
13982
14000.9
14020.1
14038.1
14054.3
14069.3
14084.1
14099.3
14114.5
14128.7
14141.2
14151.8
14160.9
14168.8
14175.9
14182.2
14187.6
14192.1
14195.7
14198.7
14201.1
14203.2
14204.8
14206.1
14207.1
14207.8
14208.3
14208.8
14209.1
14209.5
14209.9
14210.5
14211.2
14212.3
14213.8
14215.8
14218.4
14221.4
14224.7
14228.1
14231.5
14235
14238.4
14241.7
14244.6
14246.8
14247.8
14247.4
14245.8
14243.1
14239.6
14235.4
14230.5
14224.5
14217.5
14209.4
14200.8
14192.2
14184
14176.2
14168.5
14160.5
14152.1
14143.5
14134.4
14128.8
14139.6
12653.5
12661.9
12664.8
12667.4
12670.5
12674.9
12681.7
12691.5
12703.8
12716.8
12729.3
12740.9
12753
12766.9
12783.4
12801.5
12819.5
12836.1
12850.8
12864.3
12877.5
12890.8
12903.6
12915.4
12925.6
12934.2
12941.5
12947.8
12953.4
12958.3
12962.5
12966
12968.9
12971.3
12973.3
12975
12976.4
12977.4
12978.3
12978.9
12979.4
12979.8
12980.3
12980.7
12981.3
12981.9
12982.7
12983.9
12985.5
12987.6
12990.1
12993
12996
12999
13001.9
13004.6
13007.1
13009.5
13011.4
13012.4
13012.3
13010.8
13008.1
13004.4
13000.1
12995.4
12990.2
12984.2
12977.2
12969.4
12961.3
12953.3
12945.9
12939
12932.1
12925
12917.2
12908.6
12903
12913
11446.5
11454.1
11457.1
11460.4
11464.1
11468
11473
11480.5
11491.1
11503.9
11517.2
11529.7
11541.4
11553.4
11567.1
11582.8
11599.6
11616
11630.8
11643.7
11655.6
11666.9
11678.1
11688.6
11698.1
11706.2
11712.9
11718.7
11723.6
11728
11731.9
11735.2
11737.9
11740.3
11742.2
11743.9
11745.4
11746.5
11747.5
11748.2
11748.8
11749.3
11749.7
11750.1
11750.6
11751.2
11751.9
11752.7
11753.8
11755.4
11757.4
11759.8
11762.4
11765.1
11767.6
11769.7
11771.6
11773.2
11774.6
11775.5
11775.7
11774.6
11772.3
11768.7
11764.3
11759.6
11754.7
11749.5
11743.8
11737.2
11729.9
11722.5
11715.3
11708.7
11702.7
11696.6
11689.9
11682.1
11676.8
11685.9
10240.9
10246.9
10249.1
10252.5
10256.9
10261.3
10265.7
10271.4
10279.6
10290.7
10303.5
10316.7
10328.9
10340.3
10351.9
10364.9
10379.4
10394.4
10408.8
10421.5
10432.6
10442.6
10452.1
10461.1
10469.5
10476.9
10483.1
10488.3
10492.8
10496.6
10500.1
10503.1
10505.7
10508
10509.9
10511.6
10513.1
10514.3
10515.4
10516.2
10516.8
10517.3
10517.7
10518.1
10518.5
10519
10519.5
10520.1
10520.9
10521.9
10523.3
10525.1
10527.3
10529.6
10531.9
10533.8
10535.2
10536.2
10537
10537.5
10537.6
10537
10535.3
10532.3
10528.2
10523.5
10518.6
10513.8
10509
10503.7
10497.8
10491.2
10484.6
10478.3
10472.6
10467.1
10461.4
10454.6
10449.8
10458.3
9036.58
9040.84
9041.67
9044.16
9048.68
9053.75
9058.55
9063.45
9069.64
9078.25
9089.36
9101.94
9114.48
9126.04
9136.79
9147.68
9159.53
9172.37
9185.35
9197.43
9208.02
9217.17
9225.33
9232.92
9240.01
9246.45
9252.05
9256.77
9260.74
9264.16
9267.19
9269.91
9272.34
9274.49
9276.38
9278.05
9279.51
9280.8
9281.89
9282.78
9283.46
9283.94
9284.28
9284.53
9284.79
9285.12
9285.53
9286.01
9286.55
9287.2
9288.06
9289.24
9290.81
9292.69
9294.67
9296.45
9297.77
9298.52
9298.8
9298.78
9298.56
9298.02
9296.84
9294.67
9291.33
9287.06
9282.35
9277.7
9273.31
9269
9264.36
9259.15
9253.46
9247.71
9242.26
9237.17
9231.95
9225.94
9221.82
9229.84
7832.43
7835.61
7835.3
7836.45
7840.07
7845.12
7850.41
7855.37
7860.53
7866.98
7875.64
7886.42
7898.27
7909.84
7920.41
7930.19
7939.98
7950.38
7961.29
7972.02
7981.79
7990.24
7997.48
8003.89
8009.74
8015.11
8019.91
8024.05
8027.57
8030.59
8033.24
8035.63
8037.82
8039.81
8041.61
8043.21
8044.64
8045.89
8046.99
8047.9
8048.61
8049.1
8049.39
8049.53
8049.62
8049.74
8049.96
8050.29
8050.7
8051.16
8051.68
8052.36
8053.32
8054.61
8056.18
8057.79
8059.13
8059.92
8060.07
8059.7
8059.05
8058.26
8057.26
8055.73
8053.33
8049.93
8045.78
8041.38
8037.21
8033.44
8029.81
8025.93
8021.55
8016.76
8011.84
8007
8002.03
7996.47
7992.78
8000.21
6627.61
6630.5
6629.77
6629.8
6631.96
6636.04
6641.14
6646.31
6651.2
6656.36
6662.78
6671.12
6681.13
6691.83
6702.08
6711.36
6719.9
6728.32
6737.02
6745.86
6754.3
6761.84
6768.28
6773.77
6778.57
6782.91
6786.83
6790.3
6793.32
6795.93
6798.22
6800.3
6802.21
6803.99
6805.63
6807.12
6808.46
6809.64
6810.67
6811.54
6812.23
6812.71
6812.99
6813.07
6813.02
6812.94
6812.93
6813.06
6813.33
6813.69
6814.09
6814.51
6815.02
6815.75
6816.77
6818.02
6819.27
6820.19
6820.52
6820.18
6819.32
6818.22
6817.05
6815.78
6814.1
6811.71
6808.5
6804.76
6800.96
6797.51
6794.5
6791.66
6788.6
6785.06
6781.05
6776.68
6771.87
6766.42
6762.73
6769.13
5421.92
5424.8
5424.31
5423.83
5424.63
5427.15
5431.2
5435.98
5440.77
5445.37
5450.32
5456.4
5464.02
5472.87
5482.05
5490.68
5498.43
5505.5
5512.35
5519.23
5525.99
5532.27
5537.78
5542.44
5546.38
5549.82
5552.89
5555.66
5558.11
5560.28
5562.2
5563.95
5565.56
5567.09
5568.52
5569.84
5571.03
5572.08
5572.99
5573.75
5574.36
5574.81
5575.07
5575.13
5575.03
5574.82
5574.62
5574.53
5574.62
5574.87
5575.22
5575.58
5575.92
5576.29
5576.81
5577.56
5578.49
5579.39
5579.95
5579.91
5579.22
5578.04
5576.69
5575.35
5573.99
5572.36
5570.19
5567.45
5564.38
5561.43
5558.9
5556.79
5554.8
5552.54
5549.68
5546.08
5541.52
5535.92
5531.64
5536.32
4215.79
4218.33
4218.26
4217.82
4217.73
4218.64
4220.99
4224.59
4228.77
4233
4237.17
4241.7
4247.14
4253.71
4261.05
4268.44
4275.26
4281.32
4286.79
4291.99
4297.05
4301.87
4306.24
4310
4313.15
4315.82
4318.14
4320.22
4322.09
4323.78
4325.3
4326.69
4327.99
4329.21
4330.37
4331.46
4332.45
4333.33
4334.08
4334.69
4335.17
4335.52
4335.73
4335.8
4335.71
4335.49
4335.2
4334.96
4334.86
4334.95
4335.23
4335.59
4335.93
4336.21
4336.45
4336.77
4337.27
4337.89
4338.47
4338.73
4338.42
4337.54
4336.25
4334.85
4333.54
4332.3
4330.92
4329.21
4327.17
4325.04
4323.17
4321.74
4320.66
4319.58
4318
4315.38
4311.18
4305.07
4299.2
4300.87
3009.91
3011.66
3011.82
3011.54
3010.89
3010.38
3010.79
3012.48
3015.3
3018.72
3022.29
3025.91
3029.85
3034.4
3039.64
3045.24
3050.7
3055.62
3059.93
3063.77
3067.34
3070.72
3073.84
3076.6
3078.93
3080.89
3082.54
3083.99
3085.29
3086.48
3087.57
3088.57
3089.51
3090.4
3091.25
3092.05
3092.79
3093.44
3093.99
3094.43
3094.76
3094.99
3095.13
3095.18
3095.14
3094.99
3094.75
3094.48
3094.28
3094.24
3094.39
3094.7
3095.08
3095.39
3095.6
3095.73
3095.88
3096.16
3096.53
3096.84
3096.85
3096.4
3095.49
3094.29
3093.06
3091.99
3091.06
3090.14
3089.12
3088.06
3087.18
3086.74
3086.8
3087.14
3087.16
3085.97
3082.34
3075.01
3064.61
3058.66
1804.89
1806.13
1806.44
1806.15
1804.94
1803.19
1801.75
1801.33
1802.19
1804.12
1806.64
1809.39
1812.21
1815.21
1818.48
1822
1825.55
1828.86
1831.77
1834.26
1836.45
1838.45
1840.28
1841.92
1843.33
1844.52
1845.5
1846.34
1847.09
1847.76
1848.38
1848.96
1849.5
1850.01
1850.49
1850.95
1851.38
1851.77
1852.1
1852.36
1852.55
1852.67
1852.75
1852.78
1852.78
1852.73
1852.63
1852.49
1852.35
1852.28
1852.34
1852.54
1852.84
1853.15
1853.38
1853.51
1853.55
1853.6
1853.72
1853.89
1853.99
1853.86
1853.41
1852.68
1851.83
1851.04
1850.43
1850.03
1849.79
1849.75
1850.05
1850.92
1852.55
1854.82
1857.18
1858.32
1856.15
1847.49
1828.4
1802.01
599.237
600.399
600.88
600.625
599.564
598.015
596.473
595.38
594.962
595.206
595.928
596.892
597.934
598.983
600.037
601.096
602.131
603.085
603.912
604.602
605.18
605.681
606.127
606.521
606.858
607.133
607.352
607.528
607.673
607.796
607.903
607.998
608.081
608.156
608.225
608.289
608.35
608.405
608.453
608.488
608.511
608.52
608.522
608.519
608.514
608.507
608.493
608.47
608.444
608.427
608.435
608.481
608.563
608.662
608.75
608.806
608.823
608.818
608.814
608.824
608.834
608.809
608.711
608.529
608.293
608.059
607.882
607.803
607.87
608.144
608.738
609.812
611.523
613.901
616.677
619.014
619.227
614.398
597.993
560.399
-9.87865
-9.74425
-9.64107
-9.57104
-9.53095
-9.50955
-9.49735
-9.48818
-9.48572
-9.48785
-9.493
-9.50022
-9.50817
-9.51034
-9.50987
-9.50952
-9.50976
-9.51068
-9.51299
-9.51668
-9.52135
-9.52725
-9.53419
-9.54187
-9.55053
-9.56003
-9.57024
-9.58101
-9.59221
-9.60377
-9.61564
-9.62781
-9.6403
-9.65314
-9.66637
-9.68004
-9.69419
-9.70883
-9.72402
-9.73973
-9.75596
-9.77265
-9.7897
-9.80695
-9.82422
-9.84127
-9.85812
-9.87448
-9.89021
-9.90534
-9.91987
-9.93374
-9.94697
-9.95961
-9.97157
-9.98262
-9.99288
-10.003
-10.0136
-10.0251
-10.0362
-10.0452
-10.0518
-10.0575
-10.0628
-10.0646
-10.0627
-10.0609
-10.0591
-10.0574
-10.0524
-10.0529
-10.0536
-10.0544
-10.0549
-10.0555
-10.0564
-10.0564
-10.0571
-10.0574
-10.5482
-10.5489
-10.5478
-10.547
-10.5469
-10.5472
-10.5476
-10.5476
-10.5475
-10.5474
-10.5474
-10.5474
-10.5474
-10.5474
-10.5473
-10.5473
-10.5473
-10.5473
-10.5473
-10.5473
-10.5473
-10.5474
-10.5474
-10.5474
-10.5474
-10.5474
-10.5474
-10.5475
-10.5475
-10.5475
-10.5475
-10.5475
-10.5475
-10.5475
-10.5475
-10.5475
-10.5475
-10.5475
-10.5475
-10.5475
-10.5475
-10.5475
-10.5475
-10.5475
-10.5475
-10.5475
-10.5475
-10.5475
-10.5475
-10.5475
-10.5475
-10.5475
-10.5475
-10.5475
-10.5475
-10.5475
-10.5475
-10.5475
-10.5475
-10.5475
-10.5475
-10.5475
-10.5475
-10.5475
-10.5475
-10.5475
-10.5475
-10.5475
-10.5474
-10.5473
-10.5468
-10.5467
-10.5467
-10.5468
-10.5469
-10.547
-10.5472
-10.5476
-10.5478
-10.5479
-11.0381
-11.0389
-11.0383
-11.0377
-11.0376
-11.0378
-11.038
-11.0381
-11.038
-11.0379
-11.0379
-11.0379
-11.0379
-11.0379
-11.0378
-11.0378
-11.0378
-11.0378
-11.0378
-11.0378
-11.0378
-11.0379
-11.0379
-11.0379
-11.0379
-11.0379
-11.0379
-11.038
-11.038
-11.038
-11.038
-11.038
-11.038
-11.038
-11.038
-11.038
-11.038
-11.038
-11.038
-11.038
-11.038
-11.038
-11.038
-11.038
-11.038
-11.038
-11.038
-11.038
-11.038
-11.038
-11.038
-11.038
-11.038
-11.038
-11.038
-11.038
-11.038
-11.038
-11.038
-11.038
-11.038
-11.038
-11.038
-11.038
-11.038
-11.038
-11.038
-11.038
-11.038
-11.0381
-11.0383
-11.0383
-11.0382
-11.0381
-11.0381
-11.038
-11.0378
-11.0378
-11.0379
-11.0382
-11.5275
-11.5285
-11.5289
-11.5288
-11.5285
-11.5283
-11.5284
-11.5285
-11.5285
-11.5285
-11.5284
-11.5284
-11.5284
-11.5284
-11.5283
-11.5283
-11.5283
-11.5283
-11.5283
-11.5284
-11.5284
-11.5284
-11.5284
-11.5284
-11.5284
-11.5284
-11.5284
-11.5285
-11.5285
-11.5285
-11.5285
-11.5285
-11.5285
-11.5285
-11.5285
-11.5285
-11.5285
-11.5285
-11.5285
-11.5285
-11.5285
-11.5285
-11.5285
-11.5285
-11.5285
-11.5285
-11.5285
-11.5285
-11.5285
-11.5285
-11.5285
-11.5285
-11.5285
-11.5285
-11.5285
-11.5285
-11.5285
-11.5285
-11.5285
-11.5285
-11.5285
-11.5285
-11.5285
-11.5285
-11.5285
-11.5285
-11.5285
-11.5285
-11.5285
-11.5285
-11.5286
-11.5286
-11.5286
-11.5286
-11.5286
-11.5285
-11.5285
-11.5283
-11.5283
-11.5285
-12.0184
-12.0185
-12.019
-12.0192
-12.0192
-12.019
-12.0189
-12.0189
-12.019
-12.019
-12.0189
-12.0188
-12.0188
-12.0188
-12.0188
-12.0188
-12.0188
-12.0188
-12.0188
-12.0188
-12.0189
-12.0189
-12.0189
-12.0189
-12.0189
-12.0189
-12.0189
-12.0189
-12.019
-12.019
-12.019
-12.019
-12.019
-12.019
-12.019
-12.019
-12.019
-12.019
-12.019
-12.019
-12.019
-12.019
-12.019
-12.019
-12.019
-12.019
-12.019
-12.019
-12.019
-12.019
-12.019
-12.019
-12.019
-12.019
-12.019
-12.019
-12.019
-12.019
-12.019
-12.019
-12.019
-12.019
-12.019
-12.019
-12.019
-12.019
-12.019
-12.019
-12.019
-12.019
-12.019
-12.019
-12.019
-12.019
-12.019
-12.019
-12.019
-12.019
-12.019
-12.019
-12.5095
-12.5092
-12.5092
-12.5095
-12.5096
-12.5096
-12.5095
-12.5094
-12.5094
-12.5094
-12.5094
-12.5093
-12.5093
-12.5093
-12.5093
-12.5093
-12.5093
-12.5093
-12.5093
-12.5093
-12.5094
-12.5094
-12.5094
-12.5094
-12.5094
-12.5094
-12.5094
-12.5094
-12.5095
-12.5095
-12.5095
-12.5095
-12.5095
-12.5095
-12.5095
-12.5095
-12.5095
-12.5095
-12.5095
-12.5095
-12.5095
-12.5095
-12.5095
-12.5095
-12.5095
-12.5095
-12.5095
-12.5095
-12.5095
-12.5095
-12.5095
-12.5095
-12.5095
-12.5095
-12.5095
-12.5095
-12.5095
-12.5095
-12.5095
-12.5095
-12.5095
-12.5095
-12.5095
-12.5095
-12.5095
-12.5095
-12.5095
-12.5095
-12.5095
-12.5095
-12.5095
-12.5095
-12.5095
-12.5095
-12.5095
-12.5095
-12.5095
-12.5095
-12.5095
-12.5095
-13.0003
-13
-12.9999
-12.9999
-13
-13
-13
-12.9999
-12.9999
-12.9998
-12.9998
-12.9998
-12.9998
-12.9998
-12.9998
-12.9998
-12.9998
-12.9998
-12.9998
-12.9998
-12.9998
-12.9999
-12.9999
-12.9999
-12.9999
-12.9999
-12.9999
-12.9999
-12.9999
-13
-13
-13
-13
-13
-13
-13
-13
-13
-13
-13
-13
-13
-13
-13
-13
-13
-13
-13
-13
-13
-13
-13
-13
-13
-13
-13
-13
-13
-13
-13
-13
-13
-13
-13
-13
-13
-13
-13
-13
-13
-13
-13
-13
-13
-13
-13
-13
-13
-13
-13
-13.4907
-13.4907
-13.4905
-13.4904
-13.4904
-13.4904
-13.4905
-13.4904
-13.4904
-13.4903
-13.4903
-13.4903
-13.4903
-13.4903
-13.4903
-13.4903
-13.4903
-13.4903
-13.4903
-13.4903
-13.4903
-13.4903
-13.4904
-13.4904
-13.4904
-13.4904
-13.4904
-13.4904
-13.4904
-13.4904
-13.4905
-13.4905
-13.4905
-13.4905
-13.4905
-13.4905
-13.4905
-13.4905
-13.4905
-13.4905
-13.4905
-13.4905
-13.4905
-13.4905
-13.4905
-13.4905
-13.4905
-13.4905
-13.4905
-13.4905
-13.4905
-13.4905
-13.4905
-13.4905
-13.4905
-13.4905
-13.4905
-13.4905
-13.4905
-13.4905
-13.4905
-13.4905
-13.4905
-13.4905
-13.4905
-13.4905
-13.4905
-13.4905
-13.4905
-13.4905
-13.4905
-13.4905
-13.4905
-13.4905
-13.4905
-13.4905
-13.4905
-13.4905
-13.4905
-13.4905
-13.9809
-13.9811
-13.9811
-13.981
-13.9809
-13.9809
-13.9809
-13.9809
-13.9808
-13.9808
-13.9808
-13.9807
-13.9808
-13.9808
-13.9808
-13.9808
-13.9808
-13.9808
-13.9808
-13.9808
-13.9808
-13.9808
-13.9808
-13.9809
-13.9809
-13.9809
-13.9809
-13.9809
-13.9809
-13.9809
-13.9809
-13.981
-13.981
-13.981
-13.981
-13.981
-13.981
-13.981
-13.981
-13.981
-13.981
-13.981
-13.981
-13.981
-13.981
-13.981
-13.981
-13.981
-13.981
-13.981
-13.981
-13.981
-13.981
-13.981
-13.981
-13.981
-13.981
-13.981
-13.981
-13.981
-13.981
-13.981
-13.981
-13.981
-13.981
-13.981
-13.981
-13.981
-13.981
-13.981
-13.981
-13.981
-13.981
-13.981
-13.981
-13.981
-13.981
-13.981
-13.981
-13.981
-14.4714
-14.4715
-14.4715
-14.4715
-14.4714
-14.4714
-14.4713
-14.4713
-14.4713
-14.4713
-14.4712
-14.4712
-14.4712
-14.4712
-14.4712
-14.4712
-14.4713
-14.4713
-14.4713
-14.4713
-14.4713
-14.4713
-14.4713
-14.4714
-14.4714
-14.4714
-14.4714
-14.4714
-14.4714
-14.4714
-14.4714
-14.4715
-14.4715
-14.4715
-14.4715
-14.4715
-14.4715
-14.4715
-14.4715
-14.4715
-14.4715
-14.4715
-14.4715
-14.4715
-14.4715
-14.4715
-14.4715
-14.4715
-14.4715
-14.4715
-14.4715
-14.4715
-14.4715
-14.4715
-14.4715
-14.4715
-14.4715
-14.4715
-14.4715
-14.4715
-14.4715
-14.4715
-14.4715
-14.4715
-14.4715
-14.4715
-14.4715
-14.4715
-14.4715
-14.4715
-14.4715
-14.4715
-14.4715
-14.4715
-14.4715
-14.4715
-14.4715
-14.4715
-14.4715
-14.4715
-14.9619
-14.9619
-14.9619
-14.9619
-14.9619
-14.9618
-14.9618
-14.9618
-14.9617
-14.9617
-14.9617
-14.9617
-14.9617
-14.9617
-14.9617
-14.9617
-14.9617
-14.9618
-14.9618
-14.9618
-14.9618
-14.9618
-14.9618
-14.9618
-14.9619
-14.9619
-14.9619
-14.9619
-14.9619
-14.9619
-14.9619
-14.9619
-14.962
-14.962
-14.962
-14.962
-14.962
-14.962
-14.962
-14.962
-14.962
-14.962
-14.962
-14.962
-14.962
-14.962
-14.962
-14.962
-14.962
-14.962
-14.962
-14.962
-14.962
-14.962
-14.962
-14.962
-14.962
-14.962
-14.962
-14.962
-14.962
-14.962
-14.962
-14.962
-14.962
-14.962
-14.962
-14.962
-14.962
-14.962
-14.962
-14.962
-14.962
-14.962
-14.962
-14.962
-14.962
-14.962
-14.962
-14.962
-15.4524
-15.4524
-15.4523
-15.4523
-15.4523
-15.4523
-15.4523
-15.4522
-15.4522
-15.4522
-15.4522
-15.4522
-15.4522
-15.4522
-15.4522
-15.4522
-15.4522
-15.4522
-15.4523
-15.4523
-15.4523
-15.4523
-15.4523
-15.4523
-15.4524
-15.4524
-15.4524
-15.4524
-15.4524
-15.4524
-15.4524
-15.4524
-15.4525
-15.4525
-15.4525
-15.4525
-15.4525
-15.4525
-15.4525
-15.4525
-15.4525
-15.4525
-15.4525
-15.4525
-15.4525
-15.4525
-15.4525
-15.4525
-15.4525
-15.4525
-15.4525
-15.4525
-15.4525
-15.4525
-15.4525
-15.4525
-15.4525
-15.4525
-15.4525
-15.4525
-15.4525
-15.4525
-15.4525
-15.4525
-15.4525
-15.4525
-15.4525
-15.4525
-15.4525
-15.4525
-15.4525
-15.4525
-15.4524
-15.4524
-15.4524
-15.4524
-15.4524
-15.4524
-15.4524
-15.4524
-15.9429
-15.9429
-15.9428
-15.9428
-15.9428
-15.9428
-15.9427
-15.9427
-15.9427
-15.9427
-15.9427
-15.9427
-15.9427
-15.9427
-15.9427
-15.9427
-15.9427
-15.9427
-15.9427
-15.9428
-15.9428
-15.9428
-15.9428
-15.9428
-15.9429
-15.9429
-15.9429
-15.9429
-15.9429
-15.9429
-15.9429
-15.943
-15.943
-15.943
-15.943
-15.943
-15.943
-15.943
-15.943
-15.943
-15.943
-15.943
-15.943
-15.943
-15.943
-15.943
-15.943
-15.943
-15.943
-15.943
-15.943
-15.943
-15.943
-15.943
-15.943
-15.943
-15.943
-15.9429
-15.9429
-15.9429
-15.9429
-15.9429
-15.9429
-15.9429
-15.9429
-15.9429
-15.9429
-15.9429
-15.9429
-15.9429
-15.9429
-15.9429
-15.9429
-15.9429
-15.9429
-15.9429
-15.9429
-15.9429
-15.9429
-15.9429
-16.4333
-16.4333
-16.4333
-16.4333
-16.4332
-16.4332
-16.4332
-16.4332
-16.4332
-16.4332
-16.4331
-16.4331
-16.4332
-16.4332
-16.4332
-16.4332
-16.4332
-16.4332
-16.4332
-16.4333
-16.4333
-16.4333
-16.4333
-16.4333
-16.4334
-16.4334
-16.4334
-16.4334
-16.4334
-16.4334
-16.4334
-16.4335
-16.4335
-16.4335
-16.4335
-16.4335
-16.4335
-16.4335
-16.4335
-16.4335
-16.4335
-16.4335
-16.4335
-16.4335
-16.4335
-16.4335
-16.4335
-16.4335
-16.4335
-16.4335
-16.4335
-16.4335
-16.4335
-16.4335
-16.4334
-16.4334
-16.4334
-16.4334
-16.4334
-16.4334
-16.4334
-16.4334
-16.4334
-16.4334
-16.4334
-16.4334
-16.4334
-16.4334
-16.4334
-16.4334
-16.4334
-16.4334
-16.4334
-16.4334
-16.4334
-16.4334
-16.4334
-16.4334
-16.4334
-16.4334
-16.9238
-16.9238
-16.9238
-16.9238
-16.9237
-16.9237
-16.9237
-16.9237
-16.9237
-16.9237
-16.9236
-16.9236
-16.9236
-16.9236
-16.9237
-16.9237
-16.9237
-16.9237
-16.9237
-16.9238
-16.9238
-16.9238
-16.9238
-16.9238
-16.9239
-16.9239
-16.9239
-16.9239
-16.9239
-16.9239
-16.9239
-16.924
-16.924
-16.924
-16.924
-16.924
-16.924
-16.924
-16.924
-16.924
-16.924
-16.924
-16.924
-16.924
-16.924
-16.924
-16.924
-16.924
-16.924
-16.924
-16.924
-16.924
-16.924
-16.9239
-16.9239
-16.9239
-16.9239
-16.9239
-16.9239
-16.9239
-16.9239
-16.9239
-16.9239
-16.9239
-16.9239
-16.9239
-16.9239
-16.9239
-16.9239
-16.9239
-16.9239
-16.9239
-16.9239
-16.9239
-16.9239
-16.9239
-16.9239
-16.9239
-16.9239
-16.9239
-17.4142
-17.4142
-17.4142
-17.4142
-17.4142
-17.4142
-17.4142
-17.4142
-17.4141
-17.4141
-17.4141
-17.4141
-17.4141
-17.4141
-17.4141
-17.4142
-17.4142
-17.4142
-17.4142
-17.4143
-17.4143
-17.4143
-17.4143
-17.4143
-17.4144
-17.4144
-17.4144
-17.4144
-17.4144
-17.4144
-17.4144
-17.4145
-17.4145
-17.4145
-17.4145
-17.4145
-17.4145
-17.4145
-17.4145
-17.4145
-17.4145
-17.4145
-17.4145
-17.4145
-17.4145
-17.4145
-17.4145
-17.4145
-17.4145
-17.4145
-17.4145
-17.4145
-17.4145
-17.4144
-17.4144
-17.4144
-17.4144
-17.4144
-17.4144
-17.4144
-17.4144
-17.4144
-17.4144
-17.4144
-17.4144
-17.4144
-17.4144
-17.4144
-17.4144
-17.4144
-17.4144
-17.4144
-17.4144
-17.4144
-17.4144
-17.4144
-17.4144
-17.4144
-17.4144
-17.4144
-17.9047
-17.9047
-17.9047
-17.9047
-17.9047
-17.9047
-17.9047
-17.9046
-17.9046
-17.9046
-17.9046
-17.9046
-17.9046
-17.9046
-17.9046
-17.9047
-17.9047
-17.9047
-17.9047
-17.9048
-17.9048
-17.9048
-17.9048
-17.9048
-17.9049
-17.9049
-17.9049
-17.9049
-17.9049
-17.9049
-17.9049
-17.9049
-17.905
-17.905
-17.905
-17.905
-17.905
-17.905
-17.905
-17.905
-17.905
-17.905
-17.905
-17.905
-17.905
-17.905
-17.905
-17.905
-17.905
-17.905
-17.905
-17.905
-17.905
-17.9049
-17.9049
-17.9049
-17.9049
-17.9049
-17.9049
-17.9049
-17.9049
-17.9049
-17.9049
-17.9049
-17.9049
-17.9049
-17.9049
-17.9049
-17.9049
-17.9049
-17.9049
-17.9049
-17.9049
-17.9049
-17.9049
-17.9049
-17.9049
-17.9049
-17.9049
-17.9049
-18.3952
-18.3952
-18.3952
-18.3952
-18.3952
-18.3952
-18.3952
-18.3951
-18.3951
-18.3951
-18.3951
-18.3951
-18.3951
-18.3951
-18.3951
-18.3952
-18.3952
-18.3952
-18.3952
-18.3953
-18.3953
-18.3953
-18.3953
-18.3953
-18.3954
-18.3954
-18.3954
-18.3954
-18.3954
-18.3954
-18.3954
-18.3954
-18.3954
-18.3954
-18.3955
-18.3955
-18.3955
-18.3955
-18.3955
-18.3955
-18.3955
-18.3955
-18.3955
-18.3955
-18.3955
-18.3955
-18.3955
-18.3955
-18.3955
-18.3955
-18.3955
-18.3955
-18.3955
-18.3954
-18.3954
-18.3954
-18.3954
-18.3954
-18.3954
-18.3954
-18.3954
-18.3954
-18.3954
-18.3954
-18.3954
-18.3954
-18.3954
-18.3954
-18.3954
-18.3954
-18.3954
-18.3954
-18.3954
-18.3954
-18.3954
-18.3954
-18.3953
-18.3953
-18.3953
-18.3953
-18.8857
-18.8857
-18.8857
-18.8857
-18.8857
-18.8856
-18.8856
-18.8856
-18.8856
-18.8856
-18.8856
-18.8856
-18.8856
-18.8856
-18.8856
-18.8856
-18.8857
-18.8857
-18.8857
-18.8858
-18.8858
-18.8858
-18.8858
-18.8858
-18.8859
-18.8859
-18.8859
-18.8859
-18.8859
-18.8859
-18.8859
-18.8859
-18.8859
-18.8859
-18.8859
-18.8859
-18.8859
-18.8859
-18.8859
-18.886
-18.886
-18.886
-18.886
-18.886
-18.886
-18.886
-18.886
-18.886
-18.886
-18.886
-18.886
-18.886
-18.886
-18.8859
-18.8859
-18.8859
-18.8859
-18.8859
-18.8859
-18.8859
-18.8859
-18.8859
-18.8859
-18.8859
-18.8859
-18.8859
-18.8859
-18.8859
-18.8859
-18.8859
-18.8859
-18.8859
-18.8859
-18.8859
-18.8858
-18.8858
-18.8858
-18.8858
-18.8858
-18.8858
-19.3762
-19.3762
-19.3762
-19.3762
-19.3761
-19.3761
-19.3761
-19.3761
-19.3761
-19.3761
-19.3761
-19.3761
-19.3761
-19.3761
-19.3761
-19.3761
-19.3762
-19.3762
-19.3762
-19.3763
-19.3763
-19.3763
-19.3763
-19.3763
-19.3764
-19.3764
-19.3764
-19.3764
-19.3764
-19.3764
-19.3764
-19.3764
-19.3764
-19.3764
-19.3764
-19.3764
-19.3764
-19.3764
-19.3764
-19.3764
-19.3764
-19.3764
-19.3764
-19.3764
-19.3764
-19.3765
-19.3765
-19.3765
-19.3765
-19.3765
-19.3765
-19.3765
-19.3764
-19.3764
-19.3764
-19.3764
-19.3764
-19.3764
-19.3764
-19.3764
-19.3764
-19.3764
-19.3764
-19.3764
-19.3764
-19.3764
-19.3764
-19.3764
-19.3764
-19.3764
-19.3764
-19.3764
-19.3763
-19.3763
-19.3763
-19.3763
-19.3763
-19.3763
-19.3763
-19.3763
-19.8666
-19.8666
-19.8666
-19.8666
-19.8666
-19.8666
-19.8666
-19.8666
-19.8666
-19.8666
-19.8666
-19.8666
-19.8666
-19.8666
-19.8666
-19.8666
-19.8667
-19.8667
-19.8667
-19.8668
-19.8668
-19.8668
-19.8668
-19.8668
-19.8668
-19.8668
-19.8669
-19.8668
-19.8668
-19.8668
-19.8668
-19.8668
-19.8668
-19.8668
-19.8668
-19.8668
-19.8668
-19.8669
-19.8669
-19.8669
-19.8669
-19.8669
-19.8669
-19.8669
-19.8669
-19.8669
-19.8669
-19.8669
-19.8669
-19.8669
-19.8669
-19.8669
-19.8669
-19.8669
-19.8669
-19.8669
-19.8669
-19.8669
-19.8669
-19.8669
-19.8668
-19.8668
-19.8668
-19.8668
-19.8668
-19.8669
-19.8669
-19.8669
-19.8669
-19.8668
-19.8668
-19.8668
-19.8668
-19.8668
-19.8668
-19.8668
-19.8668
-19.8668
-19.8668
-19.8668
-20.3571
-20.3571
-20.3571
-20.3571
-20.3571
-20.3571
-20.3571
-20.3571
-20.3571
-20.3571
-20.3571
-20.3571
-20.3571
-20.3571
-20.3571
-20.3571
-20.3572
-20.3572
-20.3572
-20.3572
-20.3573
-20.3573
-20.3573
-20.3573
-20.3573
-20.3573
-20.3573
-20.3573
-20.3573
-20.3573
-20.3573
-20.3573
-20.3573
-20.3573
-20.3573
-20.3573
-20.3573
-20.3573
-20.3573
-20.3573
-20.3573
-20.3573
-20.3573
-20.3574
-20.3574
-20.3574
-20.3574
-20.3574
-20.3574
-20.3574
-20.3574
-20.3574
-20.3574
-20.3574
-20.3574
-20.3574
-20.3574
-20.3574
-20.3573
-20.3573
-20.3573
-20.3573
-20.3573
-20.3573
-20.3573
-20.3573
-20.3573
-20.3573
-20.3573
-20.3573
-20.3573
-20.3573
-20.3573
-20.3573
-20.3573
-20.3573
-20.3573
-20.3573
-20.3573
-20.3573
-20.8476
-20.8476
-20.8476
-20.8476
-20.8476
-20.8476
-20.8476
-20.8476
-20.8475
-20.8475
-20.8475
-20.8475
-20.8476
-20.8476
-20.8476
-20.8476
-20.8476
-20.8477
-20.8477
-20.8477
-20.8478
-20.8478
-20.8478
-20.8478
-20.8478
-20.8478
-20.8478
-20.8478
-20.8478
-20.8478
-20.8478
-20.8478
-20.8477
-20.8477
-20.8477
-20.8477
-20.8477
-20.8477
-20.8478
-20.8478
-20.8478
-20.8478
-20.8478
-20.8478
-20.8478
-20.8478
-20.8479
-20.8479
-20.8479
-20.8479
-20.8479
-20.8479
-20.8479
-20.8479
-20.8479
-20.8479
-20.8479
-20.8478
-20.8478
-20.8478
-20.8478
-20.8478
-20.8478
-20.8478
-20.8478
-20.8478
-20.8478
-20.8478
-20.8478
-20.8478
-20.8478
-20.8478
-20.8478
-20.8478
-20.8478
-20.8478
-20.8478
-20.8478
-20.8477
-20.8477
-21.3381
-21.3381
-21.3381
-21.3381
-21.3381
-21.338
-21.338
-21.338
-21.338
-21.338
-21.338
-21.338
-21.338
-21.3381
-21.3381
-21.3381
-21.3381
-21.3382
-21.3382
-21.3382
-21.3382
-21.3383
-21.3383
-21.3383
-21.3383
-21.3383
-21.3383
-21.3382
-21.3382
-21.3382
-21.3382
-21.3382
-21.3382
-21.3382
-21.3382
-21.3382
-21.3382
-21.3382
-21.3382
-21.3382
-21.3382
-21.3382
-21.3382
-21.3383
-21.3383
-21.3383
-21.3383
-21.3383
-21.3383
-21.3384
-21.3384
-21.3384
-21.3384
-21.3384
-21.3384
-21.3383
-21.3383
-21.3383
-21.3383
-21.3383
-21.3383
-21.3383
-21.3383