/*--------------------------------*- C++ -*----------------------------------*\
| =========                 |                                                 |
| \\      /  F ield         | OpenFOAM: The Open Source CFD Toolbox           |
|  \\    /   O peration     | Version:  2412                                  |
|   \\  /    A nd           | Website:  www.openfoam.com                      |
|    \\/     M anipulation  |                                                 |
\*---------------------------------------------------------------------------*/
FoamFile
{
    version     2.0;
    format      ascii;
    arch        "LSB;label=32;scalar=64";
    class       surfaceScalarField;
    location    "1.2";
    object      phi;
}
// * * * * * * * * * * * * * * * * * * * * * * * * * * * * * * * * * * * * * //

dimensions      [0 3 -1 0 0 0 0];

oriented        oriented;

internalField   nonuniform List<scalar> 
12640
(
-4.98877e-11
5.23931e-11
-5.54243e-11
5.28521e-11
-6.96311e-11
5.14248e-11
-8.80813e-11
5.74235e-11
-1.1006e-10
5.92832e-11
-1.3129e-10
5.62173e-11
-1.49245e-10
5.06394e-11
-1.63406e-10
4.4045e-11
-1.73606e-10
3.70156e-11
-1.79593e-10
2.96846e-11
-1.81093e-10
2.20202e-11
-1.77908e-10
1.40132e-11
-1.69894e-10
5.68846e-12
-1.56988e-10
-2.85417e-12
-1.39171e-10
-1.14751e-11
-1.16518e-10
-1.99835e-11
-8.92093e-11
-2.81725e-11
-5.75856e-11
-3.58178e-11
-2.21678e-11
-4.26961e-11
1.6329e-11
-4.85937e-11
5.70079e-11
-5.33152e-11
9.88174e-11
-5.66971e-11
1.40593e-10
-5.8616e-11
1.81112e-10
-5.90016e-11
2.19142e-10
-5.78354e-11
2.53505e-10
-5.51592e-11
2.83127e-10
-5.10688e-11
3.07094e-10
-4.57145e-11
3.24687e-10
-3.92904e-11
3.35415e-10
-3.20235e-11
3.39048e-10
-2.41807e-11
3.35606e-10
-1.60243e-11
3.25364e-10
-7.82804e-12
3.08827e-10
1.49106e-13
2.86703e-10
7.67246e-12
2.59859e-10
1.45404e-11
2.29277e-10
2.05923e-11
1.96001e-10
2.5712e-11
1.61085e-10
2.98294e-11
1.25551e-10
3.29187e-11
9.0342e-11
3.49945e-11
5.62898e-11
3.6106e-11
2.40912e-11
3.63301e-11
-5.70719e-12
3.57629e-11
-3.27112e-11
3.45115e-11
-5.66733e-11
3.26865e-11
-7.74762e-11
3.03941e-11
-9.51122e-11
2.77318e-11
-1.09655e-10
2.47833e-11
-1.21237e-10
2.16196e-11
-1.30014e-10
1.82957e-11
-1.36156e-10
1.48573e-11
-1.39815e-10
1.13386e-11
-1.41128e-10
7.77259e-12
-1.40202e-10
4.18765e-12
-1.37125e-10
6.21944e-13
-1.31968e-10
-2.88508e-12
-1.24811e-10
-6.27566e-12
-1.15747e-10
-9.49076e-12
-1.04912e-10
-1.24506e-11
-9.24894e-11
-1.50802e-11
-7.87414e-11
-1.72866e-11
-6.39954e-11
-1.89944e-11
-4.86697e-11
-2.01209e-11
-3.32336e-11
-2.06202e-11
-1.82213e-11
-2.04513e-11
-4.17026e-12
-1.96222e-11
8.37135e-12
-1.81498e-11
1.89196e-11
-1.61051e-11
2.70524e-11
-1.35747e-11
3.24954e-11
-1.07086e-11
3.51416e-11
-7.69829e-12
3.5153e-11
-4.81505e-12
3.29368e-11
-2.31748e-12
2.89948e-11
-2.96003e-13
2.34157e-11
1.62657e-12
1.55496e-11
4.02329e-12
5.22298e-12
6.29092e-12
-3.07917e-12
3.97367e-12
-7.15149e-12
-3.25249e-11
1.20737e-10
-7.69927e-12
1.10196e-10
5.74708e-12
1.10404e-10
5.58541e-12
1.28151e-10
-3.44238e-12
1.34629e-10
-1.42771e-11
1.28209e-10
-2.31621e-11
1.15098e-10
-2.92877e-11
9.97069e-11
-3.27793e-11
8.3742e-11
-3.38367e-11
6.75333e-11
-3.27263e-11
5.10537e-11
-2.9697e-11
3.42702e-11
-2.5007e-11
1.72712e-11
-1.88219e-11
2.20059e-13
-1.12467e-11
-1.6649e-11
-2.30722e-12
-3.30597e-11
7.97594e-12
-4.87067e-11
1.9563e-11
-6.32667e-11
3.23387e-11
-7.641e-11
4.60977e-11
-8.78081e-11
6.05359e-11
-9.71606e-11
7.52575e-11
-1.04198e-10
8.97981e-11
-1.08721e-10
1.03648e-10
-1.10599e-10
1.16289e-10
-1.09793e-10
1.27218e-10
-1.06347e-10
1.35983e-10
-1.004e-10
1.42205e-10
-9.21709e-11
1.4561e-10
-8.19602e-11
1.46041e-10
-7.01224e-11
1.43459e-10
-5.70656e-11
1.37963e-10
-4.32212e-11
1.29768e-10
-2.90311e-11
1.19203e-10
-1.49231e-11
1.06683e-10
-1.2967e-12
9.26877e-11
1.14953e-11
7.77345e-11
2.31556e-11
6.23483e-11
3.3451e-11
4.70357e-11
4.22136e-11
3.22602e-11
4.93412e-11
1.8423e-11
5.47916e-11
5.8489e-12
5.85772e-11
-5.22157e-12
6.07555e-11
-1.46333e-11
6.14195e-11
-2.23121e-11
6.0688e-11
-2.82542e-11
5.86942e-11
-3.25122e-11
5.55788e-11
-3.51768e-11
5.14806e-11
-3.63617e-11
4.65357e-11
-3.61842e-11
4.08717e-11
-3.47568e-11
3.46136e-11
-3.21721e-11
2.78787e-11
-2.85057e-11
2.07886e-11
-2.38073e-11
1.34615e-11
-1.81176e-11
6.02975e-12
-1.14637e-11
-1.37288e-12
-3.88891e-12
-8.59039e-12
4.55346e-12
-1.54676e-11
1.37624e-11
-2.1828e-11
2.36053e-11
-2.75075e-11
3.38736e-11
-3.23268e-11
4.43153e-11
-3.61355e-11
5.45899e-11
-3.87829e-11
6.43276e-11
-4.01743e-11
7.3091e-11
-4.02388e-11
8.04607e-11
-3.89827e-11
8.6e-11
-3.64477e-11
8.93581e-11
-3.2758e-11
9.02375e-11
-2.80835e-11
8.85028e-11
-2.26848e-11
8.41623e-11
-1.69035e-11
7.74995e-11
-1.12209e-11
6.90861e-11
-6.23842e-12
5.97834e-11
-2.49978e-12
5.03047e-11
6.89532e-14
4.04523e-11
2.79352e-12
2.84182e-11
7.80139e-12
1.25104e-11
1.41151e-11
-1.95602e-12
1.05444e-11
-1.31047e-11
-6.17311e-12
1.66929e-10
4.99231e-11
1.2984e-10
9.53451e-11
1.32163e-10
1.2256e-10
1.663e-10
1.36565e-10
1.82549e-10
1.45219e-10
1.77247e-10
1.52656e-10
1.60584e-10
1.59737e-10
1.40192e-10
1.66176e-10
1.19125e-10
1.71429e-10
9.80646e-11
1.74999e-10
7.69665e-11
1.76416e-10
5.58029e-11
1.75378e-10
3.46119e-11
1.71712e-10
1.3537e-11
1.65451e-10
-7.23973e-12
1.56775e-10
-2.74753e-11
1.45995e-10
-4.68819e-11
1.33484e-10
-6.51361e-11
1.19642e-10
-8.1874e-11
1.04849e-10
-9.67301e-11
8.94499e-11
-1.09338e-10
7.37423e-11
-1.19376e-10
5.79701e-11
-1.26569e-10
4.23339e-11
-1.30734e-10
2.69905e-11
-1.31773e-10
1.20712e-11
-1.29697e-10
-2.31517e-12
-1.24615e-10
-1.60638e-11
-1.1674e-10
-2.90739e-11
-1.06373e-10
-4.12306e-11
-9.38941e-11
-5.241e-11
-7.97433e-11
-6.24719e-11
-6.44022e-11
-7.12667e-11
-4.83668e-11
-7.86385e-11
-3.21301e-11
-8.44358e-11
-1.61574e-11
-8.85198e-11
-8.72007e-13
-9.07766e-11
1.33599e-11
-9.11264e-11
2.62359e-11
-8.95326e-11
3.75223e-11
-8.60077e-11
4.70528e-11
-8.06161e-11
5.47255e-11
-7.34735e-11
6.04972e-11
-6.47428e-11
6.43751e-11
-5.4627e-11
6.64089e-11
-4.33579e-11
6.66801e-11
-3.11846e-11
6.5295e-11
-1.83582e-11
6.23742e-11
-5.12033e-12
5.80507e-11
8.31145e-12
5.24626e-11
2.17481e-11
4.57597e-11
3.50397e-11
3.80959e-11
4.80699e-11
2.9643e-11
6.07616e-11
2.05787e-11
7.30599e-11
1.11061e-11
8.49355e-11
1.436e-12
9.63557e-11
-8.1891e-12
1.07292e-10
-1.75246e-11
1.17682e-10
-2.62977e-11
1.2745e-10
-3.42528e-11
1.36465e-10
-4.11188e-11
1.4457e-10
-4.66646e-11
1.51539e-10
-5.06598e-11
1.57131e-10
-5.29463e-11
1.6105e-10
-5.33964e-11
1.63018e-10
-5.1989e-11
1.62742e-10
-4.87548e-11
1.6001e-10
-4.38436e-11
1.54654e-10
-3.7468e-11
1.46659e-10
-2.99617e-11
1.36122e-10
-2.17438e-11
1.23365e-10
-1.33872e-11
1.08934e-10
-5.6476e-12
9.37081e-11
5.38787e-13
7.87716e-11
4.37516e-12
6.49367e-11
6.11449e-12
5.17054e-11
8.18397e-12
3.67254e-11
1.45062e-11
1.78496e-11
2.44027e-11
4.61075e-13
2.01789e-11
-1.64872e-11
9.07681e-12
1.93555e-10
8.05355e-11
1.27484e-10
1.42093e-10
1.32656e-10
1.84694e-10
1.83476e-10
2.1293e-10
2.1067e-10
2.34195e-10
2.08423e-10
2.52128e-10
1.90526e-10
2.67456e-10
1.67561e-10
2.7977e-10
1.43921e-10
2.88533e-10
1.20569e-10
2.93197e-10
9.75223e-11
2.93404e-10
7.46694e-11
2.88923e-10
5.19957e-11
2.79764e-10
2.95304e-11
2.66106e-10
7.36331e-12
2.48341e-10
-1.43577e-11
2.26993e-10
-3.54164e-11
2.02693e-10
-5.55152e-11
1.76109e-10
-7.43038e-11
1.47911e-10
-9.13783e-11
1.18736e-10
-1.06342e-10
8.91686e-11
-1.188e-10
5.97364e-11
-1.28422e-10
3.08927e-11
-1.34939e-10
3.03262e-12
-1.38193e-10
-2.35135e-11
-1.38121e-10
-4.84598e-11
-1.34782e-10
-7.15658e-11
-1.28339e-10
-9.26185e-11
-1.19068e-10
-1.11431e-10
-1.0733e-10
-1.27829e-10
-9.35657e-11
-1.41659e-10
-7.82629e-11
-1.52779e-10
-6.19427e-11
-1.61067e-10
-4.51267e-11
-1.66427e-10
-2.83208e-11
-1.68795e-10
-1.19914e-11
-1.6815e-10
3.44589e-12
-1.64516e-10
1.76382e-11
-1.57975e-10
3.02987e-11
-1.48663e-10
4.12082e-11
-1.36779e-10
5.02123e-11
-1.22575e-10
5.72172e-11
-1.06354e-10
6.21831e-11
-8.84571e-11
6.51158e-11
-6.92549e-11
6.606e-11
-4.91279e-11
6.50891e-11
-2.84545e-11
6.23023e-11
-7.5927e-12
5.7816e-11
1.31293e-11
5.17699e-11
3.34281e-11
4.43192e-11
5.30644e-11
3.56484e-11
7.18544e-11
2.59596e-11
8.96559e-11
1.54916e-11
1.06376e-10
4.50041e-12
1.21945e-10
-6.71463e-12
1.36321e-10
-1.78432e-11
1.49456e-10
-2.85352e-11
1.6131e-10
-3.84522e-11
1.71806e-10
-4.72336e-11
1.80858e-10
-5.45626e-11
1.88321e-10
-6.01198e-11
1.94041e-10
-6.36652e-11
1.97798e-10
-6.49881e-11
1.99387e-10
-6.40018e-11
1.98565e-10
-6.06829e-11
1.95149e-10
-5.51593e-11
1.88977e-10
-4.76409e-11
1.80018e-10
-3.8496e-11
1.68332e-10
-2.81879e-11
1.5417e-10
-1.734e-11
1.37942e-10
-6.73617e-12
1.20326e-10
2.5999e-12
1.02265e-10
9.45409e-12
8.49124e-11
1.28875e-11
6.91128e-11
1.34229e-11
5.44321e-11
1.45839e-11
3.86397e-11
2.19183e-11
1.97141e-11
3.49191e-11
2.03546e-12
3.00658e-11
-1.83398e-11
1.84721e-11
2.0817e-10
9.14787e-11
1.20317e-10
1.54743e-10
1.2936e-10
2.0057e-10
1.94572e-10
2.33579e-10
2.31215e-10
2.59794e-10
2.32121e-10
2.81979e-10
2.13926e-10
3.00441e-10
1.89662e-10
3.14788e-10
1.64652e-10
3.24438e-10
1.40177e-10
3.29004e-10
1.1622e-10
3.28192e-10
9.2665e-11
3.21954e-10
6.9396e-11
3.10388e-10
4.63526e-11
2.93817e-10
2.35127e-11
2.72706e-10
9.28536e-13
2.47681e-10
-2.12445e-11
2.19455e-10
-4.27565e-11
1.8879e-10
-6.32427e-11
1.56453e-10
-8.22896e-11
1.23169e-10
-9.94303e-11
8.9613e-11
-1.14223e-10
5.63818e-11
-1.26244e-10
2.40022e-11
-1.3516e-10
-7.08603e-12
-1.40715e-10
-3.65065e-11
-1.42785e-10
-6.39528e-11
-1.41355e-10
-8.91634e-11
-1.36547e-10
-1.11922e-10
-1.2859e-10
-1.32039e-10
-1.17833e-10
-1.4935e-10
-1.04705e-10
-1.63706e-10
-8.97066e-11
-1.74983e-10
-7.33752e-11
-1.83072e-10
-5.62653e-11
-1.87897e-10
-3.89183e-11
-1.89412e-10
-2.18458e-11
-1.87617e-10
-5.5092e-12
-1.82559e-10
9.68898e-12
-1.74345e-10
2.34132e-11
-1.63141e-10
3.53956e-11
-1.49177e-10
4.54356e-11
-1.32742e-10
5.33965e-11
-1.14178e-10
5.91986e-11
-9.38739e-11
6.28139e-11
-7.22456e-11
6.42559e-11
-4.97269e-11
6.35762e-11
-2.67475e-11
6.08538e-11
-3.72109e-12
5.62e-11
1.89743e-11
4.97497e-11
4.10015e-11
4.16751e-11
6.20808e-11
3.21748e-11
8.19833e-11
2.1493e-11
1.00544e-10
9.90052e-12
1.17641e-10
-2.27857e-12
1.33203e-10
-1.46985e-11
1.47178e-10
-2.69599e-11
1.59547e-10
-3.86628e-11
1.70276e-10
-4.93714e-11
1.79345e-10
-5.86872e-11
1.86689e-10
-6.62008e-11
1.92245e-10
-7.15808e-11
1.95884e-10
-7.45159e-11
1.97489e-10
-7.48239e-11
1.96883e-10
-7.23849e-11
1.93931e-10
-6.72523e-11
1.88481e-10
-5.95742e-11
1.80484e-10
-4.96934e-11
1.69945e-10
-3.80673e-11
1.57031e-10
-2.53423e-11
1.42029e-10
-1.23049e-11
1.25424e-10
3.44389e-14
1.07895e-10
1.04116e-11
9.03652e-11
1.73998e-11
7.39171e-11
1.99599e-11
5.93477e-11
1.89569e-11
4.63745e-11
1.88211e-11
3.31191e-11
2.65328e-11
1.77174e-11
4.17972e-11
2.74011e-12
3.68096e-11
-1.97227e-11
2.66507e-11
2.13571e-10
9.48627e-11
1.15122e-10
1.52055e-10
1.30078e-10
1.94498e-10
2.06187e-10
2.26805e-10
2.49532e-10
2.5359e-10
2.5253e-10
2.76343e-10
2.34187e-10
2.95057e-10
2.09053e-10
3.09156e-10
1.83165e-10
3.18208e-10
1.57877e-10
3.21841e-10
1.33256e-10
3.1996e-10
1.09123e-10
3.1257e-10
8.53499e-11
2.999e-10
6.17793e-11
2.82283e-10
3.83072e-11
2.60229e-10
1.49121e-11
2.34351e-10
-8.31827e-12
2.05363e-10
-3.11427e-11
1.74029e-10
-5.32185e-11
1.4112e-10
-7.40827e-11
1.07387e-10
-9.32465e-11
7.35182e-11
-1.10182e-10
4.01471e-11
-1.24419e-10
7.81629e-12
-1.35527e-10
-2.29998e-11
-1.43197e-10
-5.19135e-11
-1.47219e-10
-7.85963e-11
-1.47532e-10
-1.02785e-10
-1.44201e-10
-1.24259e-10
-1.37431e-10
-1.42842e-10
-1.27545e-10
-1.58381e-10
-1.14973e-10
-1.70757e-10
-1.00217e-10
-1.79876e-10
-8.38389e-11
-1.8567e-10
-6.64164e-11
-1.88106e-10
-4.85292e-11
-1.87187e-10
-3.07271e-11
-1.82961e-10
-1.35165e-11
-1.75526e-10
2.65587e-12
-1.65035e-10
1.74084e-11
-1.51702e-10
3.04294e-11
-1.35794e-10
4.14766e-11
-1.17639e-10
5.03742e-11
-9.7611e-11
5.70084e-11
-7.61231e-11
6.13194e-11
-5.36152e-11
6.32967e-11
-3.05364e-11
6.29682e-11
-7.33156e-12
6.04019e-11
1.55785e-11
5.56968e-11
3.78049e-11
4.89946e-11
5.90107e-11
4.04698e-11
7.89084e-11
3.03491e-11
9.72781e-11
1.88938e-11
1.13951e-10
6.42591e-12
1.28826e-10
-6.7012e-12
1.41836e-10
-2.00685e-11
1.52968e-10
-3.32417e-11
1.62217e-10
-4.57336e-11
1.69615e-10
-5.70808e-11
1.75168e-10
-6.67948e-11
1.78905e-10
-7.44571e-11
1.80801e-10
-7.96557e-11
1.80849e-10
-8.21018e-11
1.7898e-10
-8.15579e-11
1.75156e-10
-7.79671e-11
1.69297e-10
-7.13669e-11
1.61395e-10
-6.20153e-11
1.51457e-10
-5.02967e-11
1.39616e-10
-3.68244e-11
1.26087e-10
-2.23545e-11
1.11244e-10
-7.8679e-12
9.55887e-11
5.43853e-12
7.97914e-11
1.60957e-11
6.47011e-11
2.24805e-11
5.12427e-11
2.35686e-11
4.01343e-11
2.04881e-11
3.11451e-11
1.85259e-11
2.28062e-11
2.57622e-11
1.31812e-11
4.25061e-11
2.87101e-12
3.83691e-11
-2.12596e-11
3.56856e-11
2.09548e-10
9.71739e-11
1.13144e-10
1.456e-10
1.36759e-10
1.82033e-10
2.20166e-10
2.11612e-10
2.66904e-10
2.37173e-10
2.70674e-10
2.59128e-10
2.51948e-10
2.76881e-10
2.262e-10
2.89913e-10
1.99589e-10
2.97732e-10
1.73592e-10
3.00181e-10
1.48238e-10
2.97193e-10
1.23426e-10
2.88943e-10
9.89871e-11
2.75658e-10
7.47461e-11
2.57722e-10
5.05359e-11
2.35597e-10
2.62695e-11
2.09868e-10
2.00989e-12
1.81196e-10
-2.20473e-11
1.50301e-10
-4.55333e-11
1.17935e-10
-6.80003e-11
8.48253e-11
-8.8895e-11
5.16792e-11
-1.07675e-10
1.91303e-11
-1.23785e-10
-1.22413e-11
-1.36765e-10
-4.19449e-11
-1.46221e-10
-6.95516e-11
-1.51909e-10
-9.47146e-11
-1.53701e-10
-1.17137e-10
-1.5164e-10
-1.36597e-10
-1.4588e-10
-1.52903e-10
-1.36744e-10
-1.6592e-10
-1.24642e-10
-1.75547e-10
-1.10086e-10
-1.81726e-10
-9.3643e-11
-1.84436e-10
-7.59157e-11
-1.83701e-10
-5.75069e-11
-1.79587e-10
-3.90013e-11
-1.72211e-10
-2.09395e-11
-1.61741e-10
-3.80824e-12
-1.484e-10
1.19715e-11
-1.32461e-10
2.60478e-11
-1.14252e-10
3.81396e-11
-9.41459e-11
4.80347e-11
-7.25561e-11
5.55849e-11
-4.99247e-11
6.07011e-11
-2.67084e-11
6.33443e-11
-3.36711e-12
6.35237e-11
1.96552e-11
6.12876e-11
4.19389e-11
5.67315e-11
6.31088e-11
4.99896e-11
8.28344e-11
4.12526e-11
1.0085e-10
3.07528e-11
1.16944e-10
1.87887e-11
1.30976e-10
5.69862e-12
1.42855e-10
-8.10545e-12
1.52552e-10
-2.21824e-11
1.6007e-10
-3.60227e-11
1.65462e-10
-4.91222e-11
1.68783e-10
-6.09348e-11
1.70126e-10
-7.09708e-11
1.69556e-10
-7.87305e-11
1.67166e-10
-8.38258e-11
1.63001e-10
-8.59016e-11
1.57138e-10
-8.47786e-11
1.49604e-10
-8.03596e-11
1.40482e-10
-7.27784e-11
1.29835e-10
-6.22943e-11
1.17822e-10
-4.94254e-11
1.04637e-10
-3.48383e-11
9.06055e-11
-1.94506e-11
7.6135e-11
-4.36535e-12
6.17554e-11
9.04784e-12
4.8113e-11
1.91437e-11
3.59378e-11
2.41981e-11
2.60384e-11
2.31558e-11
1.89477e-11
1.74966e-11
1.45567e-11
1.30856e-11
1.16434e-11
1.90584e-11
8.28222e-12
3.64561e-11
2.96125e-12
3.452e-11
-2.29452e-11
4.53975e-11
1.94693e-10
1.00069e-10
1.13155e-10
1.39069e-10
1.48789e-10
1.69007e-10
2.35951e-10
1.95245e-10
2.82975e-10
2.19186e-10
2.86112e-10
2.39874e-10
2.669e-10
2.56438e-10
2.40709e-10
2.68132e-10
2.1363e-10
2.74683e-10
1.86961e-10
2.75933e-10
1.6085e-10
2.72036e-10
1.35214e-10
2.63174e-10
1.09964e-10
2.49675e-10
8.49134e-11
2.3188e-10
5.98716e-11
2.10234e-10
3.47318e-11
1.85244e-10
9.50466e-12
1.57506e-10
-1.5603e-11
1.2768e-10
-4.02661e-11
9.64542e-11
-6.39944e-11
6.45389e-11
-8.62571e-11
3.26063e-11
-1.06448e-10
1.30533e-12
-1.24013e-10
-2.87899e-11
-1.38421e-10
-5.71531e-11
-1.49266e-10
-8.33425e-11
-1.56238e-10
-1.06971e-10
-1.59194e-10
-1.27733e-10
-1.58124e-10
-1.45366e-10
-1.53178e-10
-1.5968e-10
-1.44639e-10
-1.70531e-10
-1.3292e-10
-1.77831e-10
-1.18521e-10
-1.8154e-10
-1.02017e-10
-1.81672e-10
-8.40179e-11
-1.7829e-10
-6.51466e-11
-1.71513e-10
-4.60069e-11
-1.61514e-10
-2.71689e-11
-1.48517e-10
-9.14869e-12
-1.32801e-10
7.59851e-12
-1.14697e-10
2.26865e-11
-9.45788e-11
3.57994e-11
-7.28622e-11
4.66905e-11
-4.99934e-11
5.518e-11
-2.64372e-11
6.11473e-11
-2.66716e-12
6.45291e-11
2.08519e-11
6.53094e-11
4.36726e-11
6.35244e-11
6.53836e-11
5.92546e-11
8.56128e-11
5.26404e-11
1.04046e-10
4.38692e-11
1.20422e-10
3.31992e-11
1.34552e-10
2.09355e-11
1.46297e-10
7.4621e-12
1.55595e-10
-6.79739e-12
1.62423e-10
-2.13388e-11
1.66825e-10
-3.56449e-11
1.68864e-10
-4.91389e-11
1.68661e-10
-6.12814e-11
1.66327e-10
-7.15068e-11
1.62022e-10
-7.93446e-11
1.55873e-10
-8.43375e-11
1.48053e-10
-8.61898e-11
1.38685e-10
-8.46688e-11
1.2795e-10
-7.97684e-11
1.15987e-10
-7.15951e-11
1.03014e-10
-6.05297e-11
8.92414e-11
-4.71001e-11
7.49855e-11
-3.21127e-11
6.06034e-11
-1.65444e-11
4.65504e-11
-1.64072e-12
3.33564e-11
1.11131e-11
2.16e-11
1.99645e-11
1.19568e-11
2.30726e-11
5.03482e-12
1.9473e-11
1.3443e-12
1.0793e-11
7.54538e-13
3.49623e-12
2.47994e-12
7.34496e-12
4.44165e-12
2.46556e-11
3.44879e-12
2.60262e-11
-2.42911e-11
5.50063e-11
1.68214e-10
1.03012e-10
1.139e-10
1.32874e-10
1.6484e-10
1.56393e-10
2.52625e-10
1.79398e-10
2.96953e-10
2.01529e-10
2.98367e-10
2.20974e-10
2.78513e-10
2.36238e-10
2.52222e-10
2.46704e-10
2.24883e-10
2.52011e-10
1.97711e-10
2.5228e-10
1.70811e-10
2.47676e-10
1.44281e-10
2.38551e-10
1.18095e-10
2.25209e-10
9.21296e-11
2.08019e-10
6.6215e-11
1.87353e-10
4.02163e-11
1.63657e-10
1.41605e-11
1.37444e-10
-1.18023e-11
1.09287e-10
-3.73168e-11
7.98183e-11
-6.19458e-11
4.96715e-11
-8.51128e-11
1.94974e-11
-1.06248e-10
-1.01015e-11
-1.24745e-10
-3.85444e-11
-1.40087e-10
-6.53243e-11
-1.51817e-10
-8.99763e-11
-1.59628e-10
-1.12114e-10
-1.6333e-10
-1.31401e-10
-1.62908e-10
-1.4757e-10
-1.5848e-10
-1.60408e-10
-1.50324e-10
-1.69766e-10
-1.38828e-10
-1.75547e-10
-1.24495e-10
-1.77718e-10
-1.07892e-10
-1.763e-10
-8.96349e-11
-1.71374e-10
-7.03517e-11
-1.63081e-10
-5.06631e-11
-1.51619e-10
-3.11551e-11
-1.37242e-10
-1.23681e-11
-1.20258e-10
5.21824e-12
-1.01025e-10
2.11892e-11
-7.99443e-11
3.51997e-11
-5.74531e-11
4.69743e-11
-3.40136e-11
5.63034e-11
-1.01039e-11
6.30416e-11
1.37975e-11
6.70988e-11
3.72206e-11
6.84429e-11
5.97216e-11
6.70913e-11
8.08877e-11
6.31234e-11
1.00355e-10
5.66708e-11
1.17808e-10
4.79386e-11
1.32997e-10
3.71851e-11
1.45725e-10
2.47508e-11
1.55874e-10
1.10239e-11
1.6337e-10
-3.51985e-12
1.68218e-10
-1.83754e-11
1.70453e-10
-3.29625e-11
1.70183e-10
-4.67172e-11
1.67524e-10
-5.90322e-11
1.62658e-10
-6.93757e-11
1.55747e-10
-7.72097e-11
1.47016e-10
-8.21394e-11
1.36652e-10
-8.38104e-11
1.24906e-10
-8.20815e-11
1.11983e-10
-7.69013e-11
9.81568e-11
-6.84927e-11
8.36706e-11
-5.72139e-11
6.88509e-11
-4.37239e-11
5.40267e-11
-2.88412e-11
3.96101e-11
-1.36712e-11
2.60522e-11
4.85812e-13
1.38379e-11
1.20509e-11
3.53095e-12
1.91744e-11
-4.3549e-12
2.00255e-11
-9.21629e-12
1.35915e-11
-1.07297e-11
1.77412e-12
-8.74356e-12
-8.81492e-12
-3.83131e-12
-7.72998e-12
2.11119e-12
8.57446e-12
4.30244e-12
1.41909e-11
-2.48476e-11
6.36384e-11
1.30503e-10
1.05336e-10
1.14353e-10
1.26575e-10
1.83641e-10
1.44316e-10
2.69068e-10
1.64211e-10
3.08225e-10
1.84697e-10
3.06876e-10
2.02793e-10
2.86478e-10
2.16929e-10
2.60325e-10
2.26207e-10
2.33076e-10
2.30529e-10
2.05531e-10
2.29983e-10
1.77926e-10
2.24987e-10
1.5045e-10
2.15883e-10
1.23256e-10
2.03071e-10
9.63184e-11
1.86863e-10
6.95031e-11
1.67603e-10
4.27243e-11
1.45656e-10
1.59657e-11
1.21446e-10
-1.05868e-11
9.54693e-11
-3.66498e-11
6.82574e-11
-6.17479e-11
4.03936e-11
-8.53734e-11
1.24433e-11
-1.06915e-10
-1.50154e-11
-1.25818e-10
-4.14599e-11
-1.41524e-10
-6.63863e-11
-1.53609e-10
-8.93612e-11
-1.61727e-10
-1.09986e-10
-1.65706e-10
-1.27934e-10
-1.65497e-10
-1.42919e-10
-1.61227e-10
-1.54724e-10
-1.53147e-10
-1.63179e-10
-1.41649e-10
-1.68181e-10
-1.27217e-10
-1.6968e-10
-1.1042e-10
-1.67692e-10
-9.18694e-11
-1.62289e-10
-7.21991e-11
-1.53609e-10
-5.2033e-11
-1.41847e-10
-3.19707e-11
-1.27258e-10
-1.2565e-11
-1.10152e-10
5.6853e-12
-9.08887e-11
2.23463e-11
-6.98705e-11
3.70512e-11
-4.75347e-11
4.95015e-11
-2.43438e-11
5.94667e-11
-7.72196e-13
6.67784e-11
2.2703e-11
7.13309e-11
4.56184e-11
7.30736e-11
6.75305e-11
7.20197e-11
8.80337e-11
6.82382e-11
1.0676e-10
6.18725e-11
1.23402e-10
5.31249e-11
1.37699e-10
4.22816e-11
1.49466e-10
2.96832e-11
1.58567e-10
1.57612e-11
1.64945e-10
9.88119e-13
1.68586e-10
-1.40765e-11
1.69552e-10
-2.88686e-11
1.67932e-10
-4.27638e-11
1.63888e-10
-5.51914e-11
1.5758e-10
-6.55559e-11
1.49243e-10
-7.33835e-11
1.39086e-10
-7.82189e-11
1.27392e-10
-7.98008e-11
1.14401e-10
-7.79332e-11
1.0043e-10
-7.2681e-11
8.57437e-11
-6.42208e-11
7.06867e-11
-5.30406e-11
5.55703e-11
-3.97731e-11
4.0779e-11
-2.53647e-11
2.67019e-11
-1.09294e-11
1.37578e-11
2.14088e-12
2.41747e-12
1.22142e-11
-6.89179e-12
1.74243e-11
-1.36275e-11
1.58622e-11
-1.74062e-11
6.64898e-12
-1.77412e-11
-8.37399e-12
-1.4481e-11
-2.23488e-11
-7.6026e-12
-2.4724e-11
9.30579e-13
-1.01754e-11
5.37858e-12
1.14985e-13
-2.424e-11
7.07045e-11
8.27431e-11
1.06404e-10
1.13783e-10
1.20089e-10
2.03561e-10
1.32782e-10
2.84139e-10
1.50178e-10
3.15821e-10
1.69026e-10
3.11114e-10
1.85972e-10
2.902e-10
1.9898e-10
2.64602e-10
2.07378e-10
2.37688e-10
2.109e-10
2.10031e-10
2.09908e-10
1.81806e-10
2.04784e-10
1.5344e-10
1.96043e-10
1.25242e-10
1.84043e-10
9.73293e-11
1.6912e-10
6.96818e-11
1.51551e-10
4.22155e-11
1.31632e-10
1.49783e-11
1.09715e-10
-1.19153e-11
8.61932e-11
-3.81373e-11
6.15371e-11
-6.33041e-11
3.6223e-11
-8.68698e-11
1.07744e-11
-1.08308e-10
-1.43195e-11
-1.27028e-10
-3.85596e-11
-1.42541e-10
-6.15048e-11
-1.54388e-10
-8.27281e-11
-1.62272e-10
-1.01866e-10
-1.65992e-10
-1.18584e-10
-1.65529e-10
-1.32606e-10
-1.60988e-10
-1.43699e-10
-1.52634e-10
-1.51688e-10
-1.4084e-10
-1.56445e-10
-1.26097e-10
-1.57907e-10
-1.0896e-10
-1.56065e-10
-9.00441e-11
-1.50974e-10
-6.99771e-11
-1.42748e-10
-4.93886e-11
-1.31562e-10
-2.88792e-11
-1.17653e-10
-9.01098e-12
-1.01312e-10
9.70956e-12
-8.28809e-11
2.68361e-11
-6.27475e-11
4.19887e-11
-4.13336e-11
5.48553e-11
-1.90862e-11
6.519e-11
3.53224e-12
7.28132e-11
2.6059e-11
7.7605e-11
4.80382e-11
7.95111e-11
6.90379e-11
7.85357e-11
8.8653e-11
7.4757e-11
1.06525e-10
6.83153e-11
1.22339e-10
5.94358e-11
1.35843e-10
4.84036e-11
1.46837e-10
3.55954e-11
1.55198e-10
2.14378e-11
1.60845e-10
6.45083e-12
1.63784e-10
-8.82289e-12
1.64051e-10
-2.37655e-11
1.61767e-10
-3.77896e-11
1.57062e-10
-5.02657e-11
1.50148e-10
-6.06614e-11
1.41224e-10
-6.8443e-11
1.30573e-10
-7.32483e-11
1.18441e-10
-7.47557e-11
1.05158e-10
-7.28858e-11
9.10025e-11
-6.76459e-11
7.63283e-11
-5.93382e-11
6.14381e-11
-4.84012e-11
4.66998e-11
-3.55945e-11
3.24507e-11
-2.18339e-11
1.90618e-11
-8.33681e-12
6.91811e-12
3.4989e-12
-3.62625e-12
1.19988e-11
-1.21172e-11
1.52402e-11
-1.82188e-11
1.13853e-11
-2.14176e-11
-5.38724e-13
-2.14177e-11
-1.85458e-11
-1.76035e-11
-3.60845e-11
-9.80463e-12
-4.22991e-11
4.36018e-13
-3.0413e-11
6.35889e-12
-1.51151e-11
-2.2391e-11
7.55574e-11
2.68614e-11
1.05923e-10
1.11199e-10
1.13231e-10
2.22848e-10
1.22176e-10
2.96203e-10
1.37573e-10
3.18731e-10
1.55255e-10
3.10028e-10
1.71032e-10
2.88925e-10
1.83194e-10
2.64159e-10
1.90849e-10
2.37966e-10
1.94009e-10
2.10389e-10
1.92886e-10
1.81758e-10
1.8806e-10
1.52631e-10
1.79985e-10
1.23549e-10
1.69097e-10
9.48108e-11
1.55676e-10
6.64772e-11
1.39967e-10
3.85831e-11
1.22208e-10
1.11284e-11
1.02664e-10
-1.57037e-11
8.16742e-11
-4.16881e-11
5.96007e-11
-6.63961e-11
3.68784e-11
-8.93929e-11
1.39269e-11
-1.10119e-10
-8.79421e-12
-1.28081e-10
-3.08696e-11
-1.42765e-10
-5.18746e-11
-1.53788e-10
-7.14395e-11
-1.60833e-10
-8.92034e-11
-1.63755e-10
-1.0486e-10
-1.62519e-10
-1.18125e-10
-1.57264e-10
-1.28768e-10
-1.4824e-10
-1.36596e-10
-1.35837e-10
-1.41471e-10
-1.20532e-10
-1.43301e-10
-1.02887e-10
-1.42058e-10
-8.35054e-11
-1.37765e-10
-6.30162e-11
-1.30511e-10
-4.20423e-11
-1.20442e-10
-2.11849e-11
-1.07766e-10
-1.00359e-12
-9.27457e-11
1.79927e-11
-7.56988e-11
3.53559e-11
-5.69865e-11
5.07013e-11
-3.70069e-11
6.37111e-11
-1.61859e-11
7.41351e-11
5.03585e-12
8.17864e-11
2.6211e-11
8.65449e-11
4.69014e-11
8.83515e-11
6.66827e-11
8.72191e-11
8.51638e-11
8.32246e-11
1.01985e-10
7.65281e-11
1.16843e-10
6.73545e-11
1.29477e-10
5.60195e-11
1.39698e-10
4.28954e-11
1.47365e-10
2.84497e-11
1.52416e-10
1.31871e-11
1.54829e-10
-2.30208e-12
1.54669e-10
-1.74353e-11
1.5202e-10
-3.1572e-11
1.47056e-10
-4.41429e-11
1.39947e-10
-5.45577e-11
1.30949e-10
-6.2372e-11
1.20299e-10
-6.71646e-11
1.08316e-10
-6.87258e-11
9.52764e-11
-6.69122e-11
8.1536e-11
-6.18593e-11
6.73928e-11
-5.38019e-11
5.32096e-11
-4.3307e-11
3.92886e-11
-3.10696e-11
2.59693e-11
-1.81205e-11
1.35639e-11
-5.63886e-12
2.36797e-12
4.90839e-12
-7.26777e-12
1.18332e-11
-1.50755e-11
1.32279e-11
-2.0602e-11
7.17297e-12
-2.35935e-11
-7.16741e-12
-2.34356e-11
-2.80918e-11
-1.95999e-11
-4.90855e-11
-1.12391e-11
-5.96643e-11
-4.77735e-16
-5.10068e-11
7.08464e-12
-3.08179e-11
-1.92951e-11
7.77797e-11
-3.48546e-11
1.03395e-10
1.05895e-10
1.06084e-10
2.39317e-10
1.12423e-10
3.03771e-10
1.26821e-10
3.15634e-10
1.43584e-10
3.0267e-10
1.5861e-10
2.81446e-10
1.69966e-10
2.57975e-10
1.77269e-10
2.32743e-10
1.80337e-10
2.05566e-10
1.79588e-10
1.76745e-10
1.75442e-10
1.47114e-10
1.68439e-10
1.17424e-10
1.58937e-10
8.81341e-11
1.47216e-10
5.94883e-11
1.33473e-10
3.15211e-11
1.17882e-10
4.34226e-12
1.00673e-10
-2.19655e-11
8.20889e-11
-4.71121e-11
6.24638e-11
-7.08015e-11
4.21286e-11
-9.25589e-11
2.1483e-11
-1.11952e-10
8.94572e-13
-1.28464e-10
-1.92341e-11
-1.41685e-10
-3.85482e-11
-1.51219e-10
-5.66821e-11
-1.56829e-10
-7.33178e-11
-1.58365e-10
-8.81415e-11
-1.55848e-10
-1.00886e-10
-1.49409e-10
-1.11305e-10
-1.39333e-10
-1.19201e-10
-1.25997e-10
-1.24415e-10
-1.09894e-10
-1.26839e-10
-9.15693e-11
-1.26418e-10
-7.16295e-11
-1.23154e-10
-5.06907e-11
-1.17103e-10
-2.93729e-11
-1.08387e-10
-8.26225e-12
-9.71832e-11
1.20852e-11
-8.37294e-11
3.11713e-11
-6.83146e-11
4.85531e-11
-5.12747e-11
6.38506e-11
-3.29833e-11
7.67493e-11
-1.38416e-11
8.70003e-11
5.72944e-12
9.44219e-11
2.53043e-11
9.88946e-11
4.4458e-11
1.00369e-10
6.27842e-11
9.8861e-11
7.98972e-11
9.44647e-11
9.54538e-11
8.73415e-11
1.09147e-10
7.77427e-11
1.20733e-10
6.5981e-11
1.30011e-10
5.24638e-11
1.36857e-10
3.76456e-11
1.4119e-10
2.20729e-11
1.43014e-10
6.30405e-12
1.42363e-10
-9.03186e-12
1.39362e-10
-2.3351e-11
1.34143e-10
-3.60303e-11
1.26932e-10
-4.65637e-11
1.17936e-10
-5.44476e-11
1.07458e-10
-5.93716e-11
9.57621e-11
-6.106e-11
8.32013e-11
-5.94981e-11
7.00662e-11
-5.47402e-11
5.67265e-11
-4.71588e-11
4.34681e-11
-3.72267e-11
3.06264e-11
-2.5767e-11
1.8465e-11
-1.37281e-11
7.24267e-12
-2.37907e-12
-2.78241e-12
6.84789e-12
-1.14177e-11
1.22418e-11
-1.83191e-11
1.1843e-11
-2.32947e-11
3.82286e-12
-2.5839e-11
-1.28435e-11
-2.5614e-11
-3.64042e-11
-2.15542e-11
-6.09995e-11
-1.28793e-11
-7.60966e-11
-7.49273e-13
-7.13644e-11
7.26497e-12
-4.62913e-11
-1.52866e-11
7.67857e-11
-9.94959e-11
9.85159e-11
9.73835e-11
9.82155e-11
2.51499e-10
1.03598e-10
3.05518e-10
1.17589e-10
3.06154e-10
1.34129e-10
2.88499e-10
1.48535e-10
2.67369e-10
1.59513e-10
2.45297e-10
1.66607e-10
2.21368e-10
1.70047e-10
1.94797e-10
1.70026e-10
1.66104e-10
1.67043e-10
1.36304e-10
1.61471e-10
1.06382e-10
1.53656e-10
7.70234e-11
1.43812e-10
4.85277e-11
1.32085e-10
2.10888e-11
1.18631e-10
-5.26788e-12
1.03594e-10
-3.03637e-11
8.72152e-11
-5.40568e-11
6.97312e-11
-7.59949e-11
5.14741e-11
-9.58598e-11
3.27526e-11
-1.13188e-10
1.39379e-11
-1.27601e-10
-4.63952e-12
-1.38675e-10
-2.26184e-11
-1.46121e-10
-3.96823e-11
-1.49699e-10
-5.55004e-11
-1.4934e-10
-6.97822e-11
-1.45069e-10
-8.22409e-11
-1.37068e-10
-9.26341e-11
-1.25615e-10
-1.00743e-10
-1.11113e-10
-1.06401e-10
-9.4036e-11
-1.09481e-10
-7.49381e-11
-1.09912e-10
-5.44045e-11
-1.07673e-10
-3.30459e-11
-1.02807e-10
-1.1461e-11
-9.54092e-11
9.77447e-12
-8.56407e-11
3.01279e-11
-7.37179e-11
4.9116e-11
-5.99113e-11
6.63117e-11
-4.45371e-11
8.13472e-11
-2.79482e-11
9.39175e-11
-1.0528e-11
1.03785e-10
7.32262e-12
1.10776e-10
2.51933e-11
1.14781e-10
4.2678e-11
1.15758e-10
5.93799e-11
1.1374e-10
7.49319e-11
1.08822e-10
8.89946e-11
1.0119e-10
1.01281e-10
9.10908e-11
1.11542e-10
7.8868e-11
1.19598e-10
6.4918e-11
1.25313e-10
4.97295e-11
1.28633e-10
3.3822e-11
1.29539e-10
1.77922e-11
1.28107e-10
2.21655e-12
1.24429e-10
-1.22764e-11
1.18694e-10
-2.51409e-11
1.11084e-10
-3.58164e-11
1.01877e-10
-4.39064e-11
9.13242e-11
-4.90341e-11
7.97735e-11
-5.10555e-11
6.75161e-11
-4.98711e-11
5.49339e-11
-4.56769e-11
4.23194e-11
-3.87364e-11
3.0025e-11
-2.96552e-11
1.83001e-11
-1.91392e-11
7.41085e-12
-8.25078e-12
-2.44866e-12
1.83829e-12
-1.11288e-11
9.63535e-12
-1.84187e-11
1.34489e-11
-2.42101e-11
1.13459e-11
-2.81341e-11
1.38758e-12
-3.0019e-11
-1.73513e-11
-2.91322e-11
-4.35774e-11
-2.46718e-11
-7.16186e-11
-1.52597e-11
-9.16027e-11
-2.3354e-12
-9.10047e-11
6.84939e-12
-6.14595e-11
-1.08465e-11
7.24074e-11
-1.63805e-10
9.0764e-11
8.64511e-11
8.93966e-11
2.59225e-10
9.50975e-11
3.02381e-10
1.09666e-10
2.91809e-10
1.26096e-10
2.69808e-10
1.40365e-10
2.48627e-10
1.51039e-10
2.28082e-10
1.58334e-10
2.0542e-10
1.62345e-10
1.79665e-10
1.63471e-10
1.51328e-10
1.61961e-10
1.21697e-10
1.58147e-10
9.19898e-11
1.52236e-10
6.30026e-11
1.44372e-10
3.52324e-11
1.34674e-10
8.81009e-12
1.2322e-10
-1.61047e-11
1.10174e-10
-3.94885e-11
9.56837e-11
-6.11174e-11
8.00152e-11
-8.08205e-11
6.34122e-11
-9.82309e-11
4.6211e-11
-1.13055e-10
2.87125e-11
-1.24889e-10
1.12742e-11
-1.33448e-10
-5.79126e-12
-1.38431e-10
-2.21417e-11
-1.39703e-10
-3.74715e-11
-1.37197e-10
-5.14598e-11
-1.31014e-10
-6.38255e-11
-1.21332e-10
-7.42985e-11
-1.08467e-10
-8.26583e-11
-9.28047e-11
-8.87179e-11
-7.48269e-11
-9.23469e-11
-5.50621e-11
-9.34614e-11
-3.40871e-11
-9.20367e-11
-1.24857e-11
-8.8103e-11
9.16162e-12
-8.17521e-11
3.03082e-11
-7.31359e-11
5.04468e-11
-6.2466e-11
6.91222e-11
-5.00065e-11
8.59303e-11
-3.6065e-11
1.00521e-10
-2.09847e-11
1.12604e-10
-5.13658e-12
1.21957e-10
1.10867e-11
1.28423e-10
2.7292e-11
1.31896e-10
4.30814e-11
1.32354e-10
5.80758e-11
1.29832e-10
7.19154e-11
1.24443e-10
8.42817e-11
1.1637e-10
9.48899e-11
1.05882e-10
1.03516e-10
9.33113e-11
1.09971e-10
7.9084e-11
1.14154e-10
6.36555e-11
1.15993e-10
4.75816e-11
1.15515e-10
3.1405e-11
1.12774e-10
1.57361e-11
1.07919e-10
1.12885e-12
1.0111e-10
-1.18266e-11
9.26042e-11
-2.26711e-11
8.26401e-11
-3.09497e-11
7.1563e-11
-3.64148e-11
5.96714e-11
-3.88441e-11
4.73669e-11
-3.82828e-11
3.49679e-11
-3.48159e-11
2.28689e-11
-2.8845e-11
1.13415e-11
-2.08302e-11
6.9341e-13