/*--------------------------------*- C++ -*----------------------------------*\
| =========                 |                                                 |
| \\      /  F ield         | OpenFOAM: The Open Source CFD Toolbox           |
|  \\    /   O peration     | Version:  2412                                  |
|   \\  /    A nd           | Website:  www.openfoam.com                      |
|    \\/     M anipulation  |                                                 |
\*---------------------------------------------------------------------------*/
FoamFile
{
    version     2.0;
    format      ascii;
    arch        "LSB;label=32;scalar=64";
    class       volScalarField;
    location    "9.25";
    object      alpha.honey;
}
// * * * * * * * * * * * * * * * * * * * * * * * * * * * * * * * * * * * * * //

dimensions      [0 0 0 0 0 0 0];

internalField   nonuniform List<scalar> 
6400
(
0.999999
0.999996
0.999995
0.999996
0.999997
0.999997
0.999997
0.999998
0.999999
0.999999
0.999999
0.999999
1
1
1
1
1
1
1
1
1
1
1
1
1
1
1
1
1
1
1
1
0.999999
0.999999
0.999998
0.999998
0.999997
0.999996
0.999996
0.999996
0.999995
0.999995
0.999995
0.999996
0.999996
0.999996
0.999997
0.999997
0.999998
0.999998
0.999998
0.999998
0.999998
0.999998
0.999998
0.999998
0.999999
0.999999
0.999999
0.999999
0.999999
1
1
1
1
1
1
1
1
1
1
1
1
1
1
1
1
1
1
1
0.999995
0.999991
0.999992
0.999993
0.999993
0.999994
0.999996
0.999997
0.999998
0.999998
0.999998
0.999999
0.999999
0.999999
0.999999
0.999999
0.999999
0.999998
0.999998
0.999998
0.999998
0.999998
0.999998
0.999998
0.999999
0.999999
0.999999
0.999999
0.999999
0.999999
0.999999
0.999999
0.999999
0.999998
0.999997
0.999997
0.999996
0.999996
0.999995
0.999995
0.999994
0.999994
0.999994
0.999994
0.999994
0.999995
0.999995
0.999995
0.999995
0.999995
0.999995
0.999995
0.999995
0.999995
0.999994
0.999994
0.999995
0.999995
0.999995
0.999996
0.999997
0.999998
0.999998
0.999999
0.999999
0.999999
1
1
1
1
1
1
1
1
1
1
1
1
1
1
0.999996
0.999992
0.999992
0.999993
0.999994
0.999994
0.999995
0.999996
0.999997
0.999997
0.999998
0.999998
0.999998
0.999998
0.999999
0.999999
0.999998
0.999998
0.999998
0.999997
0.999997
0.999998
0.999998
0.999998
0.999998
0.999999
0.999999
0.999999
1
1
1
1
1
1
0.999999
0.999999
0.999998
0.999998
0.999997
0.999996
0.999996
0.999995
0.999995
0.999995
0.999995
0.999995
0.999995
0.999995
0.999996
0.999996
0.999996
0.999996
0.999996
0.999995
0.999994
0.999993
0.999994
0.999994
0.999995
0.999996
0.999997
0.999997
0.999998
0.999999
0.999999
0.999999
1
1
1
1
1
1
1
1
1
1
1
1
1
1
0.999996
0.999993
0.999993
0.999994
0.999994
0.999995
0.999996
0.999997
0.999998
0.999998
0.999998
0.999998
0.999999
0.999999
0.999999
0.999999
0.999999
0.999999
0.999999
0.999998
0.999998
0.999998
0.999999
0.999999
0.999999
0.999999
0.999999
0.999999
1
1
1
1
1
1
1
0.999999
0.999999
0.999998
0.999997
0.999996
0.999995
0.999995
0.999995
0.999995
0.999994
0.999995
0.999995
0.999996
0.999996
0.999996
0.999996
0.999996
0.999996
0.999996
0.999995
0.999994
0.999994
0.999994
0.999995
0.999995
0.999996
0.999996
0.999997
0.999998
0.999999
1
1
1
1
1
1
1
1
1
1
1
1
1
1
1
0.999996
0.999994
0.999994
0.999994
0.999995
0.999995
0.999996
0.999997
0.999997
0.999998
0.999998
0.999998
0.999998
0.999999
0.999999
0.999999
0.999999
0.999998
0.999998
0.999998
0.999998
0.999998
0.999998
0.999998
0.999998
0.999999
0.999999
0.999999
0.999999
1
1
1
1
1
1
1
0.999999
0.999998
0.999997
0.999996
0.999996
0.999995
0.999995
0.999995
0.999995
0.999995
0.999996
0.999996
0.999996
0.999996
0.999997
0.999997
0.999997
0.999997
0.999997
0.999996
0.999995
0.999995
0.999994
0.999994
0.999995
0.999995
0.999996
0.999998
0.999999
0.999999
1
1
1
1
1
1
1
1
1
1
1
1
1
0.999999
0.999996
0.999993
0.999993
0.999993
0.999994
0.999995
0.999995
0.999996
0.999997
0.999997
0.999997
0.999997
0.999998
0.999998
0.999998
0.999998
0.999997
0.999997
0.999997
0.999997
0.999997
0.999997
0.999997
0.999997
0.999998
0.999998
0.999998
0.999998
0.999999
1
1
1
1
1
1
0.999999
0.999998
0.999998
0.999997
0.999996
0.999996
0.999996
0.999995
0.999995
0.999995
0.999995
0.999995
0.999995
0.999995
0.999996
0.999996
0.999996
0.999996
0.999997
0.999997
0.999996
0.999995
0.999995
0.999994
0.999994
0.999994
0.999995
0.999996
0.999997
0.999998
0.999999
0.999999
1
1
1
1
1
1
1
1
1
1
1
1
0.999999
0.999996
0.999993
0.999993
0.999993
0.999994
0.999995
0.999995
0.999996
0.999996
0.999996
0.999997
0.999997
0.999997
0.999997
0.999997
0.999997
0.999997
0.999997
0.999997
0.999997
0.999997
0.999997
0.999997
0.999997
0.999997
0.999997
0.999998
0.999998
0.999999
1
1
1
1
1
0.999999
0.999998
0.999997
0.999997
0.999996
0.999996
0.999996
0.999996
0.999996
0.999996
0.999996
0.999996
0.999995
0.999995
0.999995
0.999995
0.999996
0.999995
0.999996
0.999996
0.999997
0.999996
0.999995
0.999995
0.999994
0.999994
0.999994
0.999995
0.999996
0.999997
0.999998
0.999998
0.999998
0.999999
0.999999
0.999999
0.999999
1
1
1
1
1
1
0.999999
1
0.999999
0.999996
0.999993
0.999993
0.999993
0.999994
0.999995
0.999995
0.999996
0.999996
0.999996
0.999996
0.999996
0.999996
0.999996
0.999997
0.999996
0.999996
0.999996
0.999997
0.999997
0.999997
0.999997
0.999997
0.999997
0.999997
0.999998
0.999998
0.999999
1
1
1
1
1
0.999999
0.999998
0.999997
0.999996
0.999996
0.999996
0.999996
0.999996
0.999996
0.999996
0.999996
0.999996
0.999996
0.999996
0.999996
0.999995
0.999995
0.999995
0.999995
0.999995
0.999996
0.999996
0.999996
0.999995
0.999995
0.999995
0.999995
0.999995
0.999995
0.999996
0.999997
0.999998
0.999998
0.999998
0.999998
0.999998
0.999999
0.999999
0.999999
1
1
1
1
1
0.999999
1
1
0.999996
0.999993
0.999993
0.999994
0.999995
0.999995
0.999996
0.999996
0.999996
0.999996
0.999996
0.999996
0.999996
0.999996
0.999996
0.999996
0.999996
0.999996
0.999997
0.999997
0.999997
0.999997
0.999997
0.999998
0.999998
0.999998
0.999999
1
1
1
1
0.999999
0.999998
0.999998
0.999996
0.999996
0.999995
0.999995
0.999995
0.999995
0.999995
0.999995
0.999996
0.999996
0.999997
0.999996
0.999997
0.999996
0.999996
0.999995
0.999995
0.999994
0.999995
0.999995
0.999996
0.999996
0.999996
0.999995
0.999995
0.999995
0.999996
0.999996
0.999997
0.999997
0.999998
0.999998
0.999998
0.999998
0.999998
0.999999
0.999999
0.999999
1
1
1
1
1
1
1
1
0.999996
0.999994
0.999994
0.999995
0.999995
0.999996
0.999996
0.999996
0.999996
0.999996
0.999996
0.999996
0.999996
0.999996
0.999996
0.999996
0.999996
0.999996
0.999997
0.999997
0.999997
0.999997
0.999998
0.999998
0.999998
0.999999
0.999999
0.999999
1
0.999999
0.999999
0.999998
0.999997
0.999996
0.999995
0.999995
0.999994
0.999994
0.999994
0.999995
0.999995
0.999995
0.999996
0.999996
0.999996
0.999997
0.999996
0.999996
0.999996
0.999995
0.999994
0.999993
0.999993
0.999995
0.999996
0.999996
0.999996
0.999996
0.999996
0.999996
0.999996
0.999996
0.999997
0.999997
0.999998
0.999998
0.999998
0.999998
0.999998
0.999999
0.999999
1
1
1
1
1
1
1
1
0.999999
0.999996
0.999995
0.999996
0.999996
0.999996
0.999997
0.999997
0.999997
0.999997
0.999996
0.999996
0.999996
0.999996
0.999996
0.999996
0.999996
0.999996
0.999997
0.999997
0.999997
0.999997
0.999997
0.999998
0.999998
0.999998
0.999999
0.999999
0.999999
0.999999
0.999999
0.999997
0.999997
0.999996
0.999995
0.999995
0.999994
0.999994
0.999995
0.999995
0.999995
0.999995
0.999995
0.999996
0.999995
0.999996
0.999995
0.999995
0.999995
0.999996
0.999995
0.999995
0.999993
0.999993
0.999994
0.999996
0.999996
0.999997
0.999997
0.999997
0.999996
0.999996
0.999996
0.999997
0.999997
0.999997
0.999998
0.999998
0.999998
0.999998
0.999999
0.999999
1
1
1
1
1
1
1
1
0.999999
0.999997
0.999996
0.999997
0.999997
0.999997
0.999997
0.999997
0.999997
0.999997
0.999997
0.999997
0.999997
0.999997
0.999997
0.999997
0.999997
0.999997
0.999997
0.999997
0.999997
0.999997
0.999998
0.999998
0.999998
0.999999
0.999999
0.999999
0.999999
0.999999
0.999998
0.999998
0.999997
0.999996
0.999996
0.999996
0.999996
0.999996
0.999996
0.999995
0.999995
0.999994
0.999995
0.999994
0.999994
0.999994
0.999995
0.999995
0.999996
0.999996
0.999998
0.999997
0.999997
0.999995
0.999995
0.999995
0.999997
0.999997
0.999997
0.999997
0.999996
0.999996
0.999996
0.999997
0.999997
0.999997
0.999998
0.999998
0.999998
0.999999
0.999999
1
1
1
1
1
1
1
1
1
1
0.999998
0.999997
0.999998
0.999998
0.999998
0.999997
0.999997
0.999997
0.999997
0.999996
0.999996
0.999997
0.999997
0.999997
0.999997
0.999997
0.999997
0.999997
0.999998
0.999998
0.999998
0.999998
0.999999
0.999999
0.999999
1
1
1
0.999999
0.999999
0.999998
0.999998
0.999998
0.999998
0.999998
0.999998
0.999997
0.999996
0.999994
0.999992
0.999992
0.999991
0.999992
0.999992
0.999994
0.999995
0.999998
0.999998
0.999999
0.999998
0.999999
0.999998
0.999998
0.999997
0.999997
0.999997
0.999998
0.999997
0.999997
0.999997
0.999997
0.999997
0.999997
0.999997
0.999998
0.999998
0.999998
0.999999
0.999999
1
1
1
1
1
1
1
1
1
1
1
0.999999
0.999998
0.999998
0.999998
0.999998
0.999997
0.999997
0.999997
0.999997
0.999996
0.999996
0.999996
0.999997
0.999997
0.999997
0.999997
0.999997
0.999998
0.999998
0.999998
0.999999
0.999999
1
1
1
1
1
1
1
1
1
0.999999
1
0.999999
0.999999
0.999997
0.999996
0.999993
0.999991
0.999988
0.999986
0.999987
0.999987
0.99999
0.999991
0.999994
0.999995
0.999998
0.999998
0.999998
0.999997
0.999998
0.999997
0.999998
0.999998
0.999999
0.999998
0.999999
0.999998
0.999998
0.999998
0.999998
0.999998
0.999998
0.999998
0.999999
0.999999
0.999999
0.999999
0.999999
1
1
1
1
1
1
1
1
1
0.999999
0.999999
0.999998
0.999999
0.999998
0.999998
0.999998
0.999998
0.999997
0.999997
0.999997
0.999997
0.999997
0.999997
0.999998
0.999998
0.999998
0.999998
0.999999
0.999999
0.999999
1
1
1
1
1
1
1
1
1
1
1
1
0.999999
0.999999
0.999997
0.999996
0.999993
0.999991
0.999989
0.999987
0.999985
0.999985
0.999987
0.999988
0.999993
0.999991
0.999992
0.999994
0.999997
0.999997
0.999998
0.999997
0.999998
0.999998
0.999999
0.999999
1
0.999999
0.999999
0.999999
0.999999
0.999999
0.999999
0.999999
0.999999
0.999999
0.999999
0.999999
0.999999
0.999999
0.999999
1
1
1
1
1
1
1
1
0.999998
0.999999
0.999998
1
0.999999
0.999999
0.999999
0.999999
0.999999
0.999998
0.999998
0.999998
0.999998
0.999999
0.999999
0.999999
0.999999
1
1
1
1
1
1
1
1
1
1
1
1
1
0.999999
0.999999
0.999998
0.999999
0.999997
0.999996
0.999993
0.99999
0.999987
0.999987
0.999988
0.999986
0.999987
0.999988
0.999993
0.999995
0.999996
0.999995
0.999997
0.999997
0.999999
0.999998
0.999999
0.999998
0.999999
0.999999
1
1
1
1
1
1
1
1
1
1
1
1
1
1
1
1
1
1
1
1
1
1
1
0.999999
0.999999
0.999999
0.999998
1
1
1
1
1
1
1
1
1
1
1
1
1
1
1
1
1
1
1
1
1
1
1
1
1
0.999999
0.999998
0.999998
0.999996
0.999996
0.999995
0.999995
0.999994
0.999993
0.999988
0.999984
0.999981
0.999983
0.999982
0.999982
0.999986
0.999987
0.999995
0.999996
0.999999
0.999998
1
0.999999
1
0.999999
1
0.999999
1
1
1
1
1
1
1
1
1
1
1
1
1
1
1
1
1
1
1
1
1
1
1
0.999999
0.999998
0.999999
1
0.999997
1
1
1
1
1
1
1
1
1
1
1
1
1
1
1
1
1
1
1
1
1
1
1
1
1
0.999997
0.999997
0.999995
0.999994
0.999992
0.999992
0.999992
0.999992
0.999992
0.999992
0.999992
0.999991
0.999986
0.999985
0.999989
0.999991
0.999991
0.999991
0.999985
0.999983
0.999987
0.999988
0.999992
0.999993
0.999996
0.999996
0.999998
0.999999
1
1
1
1
1
1
1
1
1
1
1
1
1
1
1
1
1
1
1
1
1
1
0.999999
0.999999
0.999998
0.999997
0.999995
0.999998
0.999999
0.999999
1
1
1
1
1
1
1
1
1
1
1
1
1
1
1
1
1
1
1
1
1
1
0.999999
0.999999
0.999998
0.999996
0.999993
0.999992
0.999992
0.999992
0.999992
0.999992
0.998919
0.991158
0.98368
0.983435
0.990803
0.998739
0.999991
0.999991
0.999988
0.999985
0.999987
0.99999
0.999994
0.999996
0.999997
0.999997
0.999997
0.999998
0.999998
1
1
1
1
1
1
1
1
1
1
1
1
1
1
1
1
1
1
1
1
1
0.999999
0.999999
0.999997
1
1
1
1.00001
1.00001
1.00001
1.00001
1.00001
1.00001
1.00001
1.00001
1.00001
1.00001
1.00001
1.00001
1.00001
1.00001
1.00001
1.00001
1.00001
1.00001
1.00001
1.00001
1.00001
1.00001
1.00001
0.999623
0.997606
0.993453
0.986706
0.976726
0.962531
0.94259
0.913862
0.862793
0.778223
0.664489
0.548845
0.455506
0.410454
0.40938
0.452971
0.544076
0.659988
0.774597
0.860394
0.912693
0.941813
0.961996
0.97636
0.986466
0.993305
0.997532
0.999601
1
1.00001
1.00001
1.00001
1.00001
1.00001
1.00001
1.00001
1.00001
1.00001
1.00001
1.00001
1.00001
1.00001
1.00001
1.00001
1.00001
1.00001
1.00001
1.00001
1.00001
1.00001
1.00001
1.00001
1.00001
1
0.027524
0.0419787
0.0524726
0.061119
0.0681241
0.0739507
0.0789426
0.083333
0.0872899
0.0909362
0.0943602
0.0976225
0.10076
0.103789
0.106706
0.109488
0.112092
0.114454
0.116493
0.1181
0.119143
0.119462
0.11887
0.117141
0.114006
0.109145
0.10256
0.09503
0.0864527
0.0765187
0.0647976
0.0508034
0.0341153
0.0139743
3.85982e-09
4.46328e-09
5.24229e-08
0.00669604
0.0156106
0.0165617
0.0171556
0.0162904
0.00585389
5.70194e-08
5.61353e-09
4.88201e-09
0.013285
0.0335625
0.0503579
0.0644448
0.0762438
0.0862455
0.0948771
0.102459
0.109107
0.114035
0.117223
0.118995
0.11962
0.119326
0.118301
0.116707
0.114677
0.112319
0.109717
0.106934
0.104014
0.100981
0.0978372
0.094568
0.0911362
0.0874812
0.0835149
0.0791143
0.0741108
0.0682707
0.061249
0.0525825
0.0420653
0.0275764
5.15223e-09
1.85278e-09
4.13618e-09
6.42782e-09
8.64996e-09
1.06905e-08
1.24797e-08
1.39898e-08
1.52038e-08
1.61029e-08
1.6675e-08
1.69046e-08
1.67875e-08
1.63153e-08
1.54998e-08
1.43499e-08
1.29061e-08
1.12069e-08
9.3331e-09
7.35748e-09
5.39555e-09
3.59641e-09
2.07404e-09
9.13805e-10
2.10685e-10
4.84193e-12
9.81129e-12
1.06824e-11
1.06899e-11
1.07152e-11
1.20041e-11
8.51934e-11
6.77149e-10
1.91398e-09
2.90063e-09
5.17765e-08
0.0648094
0.265184
0.380349
0.377527
0.377578
0.381939
0.271511
0.069053
5.62225e-08
3.93801e-09
3.06969e-09
1.51447e-09
3.96702e-10
2.98254e-11
1.18068e-11
1.14429e-11
1.13829e-11
1.13829e-11
9.69597e-12
2.13341e-10
1.26035e-09
2.12295e-09
3.56936e-09
5.36599e-09
7.33172e-09
9.32455e-09
1.12237e-08
1.29465e-08
1.44146e-08
1.55838e-08
1.64134e-08
1.68944e-08
1.70181e-08
1.67937e-08
1.62245e-08
1.53243e-08
1.4107e-08
1.25918e-08
1.07958e-08
8.74646e-09
6.51028e-09
4.19496e-09
1.90118e-09
5.22824e-09
7.70859e-12
1.06945e-12
2.94769e-12
5.15023e-12
7.42004e-12
9.41847e-12
1.12584e-11
1.2787e-11
1.40787e-11
1.48852e-11
1.50432e-11
1.45431e-11
1.31464e-11
1.07758e-11
7.37913e-12
3.15275e-12
-1.12295e-12
-1.60133e-12
-1.23862e-12
-2.93014e-12
-7.92238e-12
-6.28465e-13
8.91818e-13
2.01138e-13
2.91373e-13
5.6286e-13
1.54738e-11
1.14937e-10
2.87702e-11
1.20041e-11
4.13198e-07
2.73803e-06
4.14275e-06
2.77386e-06
1.30038e-06
2.14042e-07
0.0319789
0.31669
0.401803
0.401804
0.401804
0.401804
0.329925
0.0359918
2.37565e-07
2.9429e-07
2.66429e-06
5.00031e-06
4.64164e-06
2.09929e-06
9.11757e-08
1.18163e-11
7.80736e-10
5.71423e-11
7.46247e-12
7.29943e-12
3.52675e-10
7.95929e-11
5.72437e-12
5.91878e-13
9.90229e-14
6.58632e-14
6.40177e-14
4.91657e-12
1.42165e-11
2.19925e-11
2.71456e-11
2.99041e-11
3.04661e-11
2.84208e-11
2.5633e-11
2.25859e-11
1.86014e-11
1.20833e-11
1.01999e-11
8.94905e-12
6.25893e-12
3.63275e-12
1.36926e-12
1.29142e-11
1.57284e-14
1.33215e-15
3.90679e-15
6.93606e-15
1.03472e-14
1.39986e-14
1.75907e-14
2.1e-14
2.40188e-14
2.63397e-14
2.75681e-14
2.72102e-14
2.47367e-14
1.98003e-14
1.26188e-14
4.64709e-15
-1.87574e-16
6.24633e-16
6.23879e-16
5.80434e-16
7.37754e-15
-1.82162e-14
1.08014e-13
2.0114e-13
2.0114e-13
2.97237e-13
4.68572e-13
1.26255e-11
4.34644e-08
8.03362e-07
2.71006e-06
1.51591e-05
1.90173e-05
1.90173e-05
6.26889e-06
2.67816e-07
3.04068e-07
0.0399753
0.401803
0.401803
0.401804
0.401804
0.0484605
3.22786e-07
2.7728e-07
2.93476e-07
1.84791e-05
1.99759e-05
1.99719e-05
1.48649e-05
1.80054e-06
5.93154e-10
2.25819e-11
6.9144e-12
6.9144e-12
6.9144e-12
7.29943e-12
4.72272e-12
5.91878e-13
3.09667e-13
7.90583e-14
6.4963e-14
6.39774e-14
3.54075e-14
5.63177e-14
7.76279e-14
8.9179e-14
9.23591e-14
9.00356e-14
8.43481e-14
7.64741e-14
6.73215e-14
5.75805e-14
4.72567e-14
3.52506e-14
2.44255e-14
1.57012e-14
8.40071e-15
3.02505e-15
2.79843e-14
4.98072e-17
2.33797e-18
7.12288e-18
1.28682e-17
1.98806e-17
2.81067e-17
3.73313e-17
4.73555e-17
5.77907e-17
6.78018e-17
7.59883e-17
8.02355e-17
7.7741e-17
6.5801e-17
4.41155e-17
2.55644e-17
1.29193e-16
6.6268e-16
6.09149e-15
2.45221e-13
2.2307e-12
1.23802e-13
8.40638e-15
2.0113e-13
2.16949e-13
3.94148e-13
1.24317e-11
3.3594e-10
1.02026e-06
3.04524e-06
3.04692e-06
2.65381e-06
1.82854e-06
6.52621e-07
2.56159e-07
2.5605e-07
2.67816e-07
0.00477604
0.189425
0.237303
0.239936
0.200832
0.00694902
2.74752e-07
2.72437e-07
3.29138e-07
1.81156e-07
1.83399e-06
5.78368e-06
9.02054e-06
6.90733e-06
7.19225e-07
6.03752e-10
4.44729e-09
4.44916e-08
1.14517e-07
9.34438e-08
1.35136e-08
3.81673e-11
3.88074e-11
4.32142e-12
1.66235e-13
6.24104e-14
1.36779e-14
4.45857e-15
3.07835e-15
2.15792e-15
1.5204e-15
1.09536e-15
8.05577e-16
5.99855e-16
4.47964e-16
3.32799e-16
2.43932e-16
1.74286e-16
1.19057e-16
7.55061e-17
4.14161e-17
1.39194e-17
9.02357e-17
1.0025e-17
8.79745e-21
3.11242e-20
4.34055e-20
4.80724e-20
7.11526e-20
9.9823e-20
1.34815e-19
1.76037e-19
2.21929e-19
2.68157e-19
3.05266e-19
3.18329e-19
2.91351e-19
4.74838e-19
7.61875e-18
1.25274e-16
6.38572e-16
1.70813e-14
4.71259e-13
1.21053e-12
3.67451e-10
3.4074e-08
9.4447e-08
9.19057e-08
2.48396e-08
1.09295e-10
1.81026e-09
4.53381e-09
8.11828e-09
9.62533e-09
1.01834e-08
1.10005e-08
1.17526e-08
5.65966e-07
2.47413e-06
2.96651e-06
0.000355959
1.87157e-11
2.26271e-11
4.312e-11
5.24819e-11
0.000262962
4.24681e-07
1.8191e-07
1.39424e-07
6.82623e-08
5.41509e-11
2.58485e-10
4.53595e-10
5.3366e-10
1.64836e-08
5.31845e-09
3.49286e-09
5.71162e-08
8.91902e-07
9.34305e-07
9.33538e-07
1.96437e-07
3.835e-11
3.57e-12
3.02629e-13
6.32704e-14
7.53655e-15
4.04859e-15
2.7013e-15
1.73392e-15
1.09938e-15
7.07528e-16
4.64416e-16
3.10025e-16
2.09024e-16
1.41308e-16
9.50297e-17
6.28286e-17
4.00524e-17
2.38782e-17
1.24326e-17
3.7866e-18
1.84141e-17
8.83512e-20
4.82183e-22
3.4327e-21
3.00948e-21
2.66494e-22
3.39648e-22
4.20453e-22
5.18904e-22
6.48149e-22
8.84505e-22
1.16116e-21
1.43854e-21
1.65031e-21
3.38009e-21
2.31694e-19
2.05638e-18
5.83693e-17
3.91111e-15
1.16882e-13
7.90015e-13
3.03057e-11
4.27538e-08
1.40138e-07
1.13597e-07
1.04641e-08
7.41346e-09
1.13639e-08
3.05955e-08
3.03755e-08
1.5519e-08
3.6128e-09
1.15554e-08
3.16692e-08
4.31245e-08
1.22052e-06
4.37109e-06
4.32003e-06
1.87157e-11
1.86084e-11
2.6157e-11
5.94654e-11
5.23797e-11
5.24819e-11
5.23797e-11
5.27501e-11
5.35101e-11
5.40249e-11
5.41509e-11
5.41509e-11
2.05651e-07
2.45694e-07
2.45662e-07
2.44365e-07
3.63945e-08
1.78347e-09
1.61292e-09
6.13309e-07
7.73696e-07
1.12704e-07
1.3636e-10
4.52811e-12
4.75044e-13
5.05396e-14
2.28921e-15
7.55646e-16
3.82313e-16
1.87532e-16
9.07112e-17
4.51784e-17
2.34057e-17
1.25966e-17
6.99183e-18
3.96965e-18
2.28525e-18
1.31783e-18
7.4648e-19
4.02514e-19
1.93473e-19
5.3795e-20
2.06501e-19
1.45008e-22
4.74067e-24
2.75212e-23
3.39422e-23
2.75382e-23
1.35847e-23
2.28871e-24
3.03172e-24
4.14665e-24
5.76724e-24
7.8863e-24
8.86985e-24
1.31553e-23
5.91857e-22
1.99666e-20
1.18597e-18
1.51443e-16
9.66418e-15
7.13046e-14
3.41669e-12
4.95588e-09
1.06289e-07
1.42509e-07
8.05729e-08
1.66118e-09
1.30048e-08
3.07876e-08
3.08155e-08
1.71604e-08
5.08299e-11
5.09461e-11
5.03379e-11
4.19985e-11
3.383e-11
3.07882e-11
3.0801e-11
2.56266e-11
2.58056e-11
3.43059e-11
3.57881e-11
7.44983e-11
7.85123e-11
8.34639e-11
7.79476e-11
8.10486e-11
8.35406e-11
8.31211e-11
7.93694e-11
6.88462e-11
1.2723e-10
1.07379e-10
1.14275e-09
5.02576e-09
4.76677e-09
1.99295e-09
1.60003e-09
1.13324e-07
2.71377e-07
9.94201e-08
8.00098e-11
2.53958e-12
4.11145e-13
2.67135e-14
5.42379e-16
3.45336e-17
9.42771e-18
3.10111e-18
1.0447e-18
3.73768e-19
1.4602e-19
6.20266e-20
2.82501e-20
1.35968e-20
6.82037e-21
3.50951e-21
1.81257e-21
9.09819e-22
4.13936e-22
1.13368e-22
4.51086e-22
4.80978e-25
2.6994e-26
1.26821e-25
2.15633e-25
3.05134e-25
2.81957e-25
2.22596e-25
9.24446e-26
2.83951e-26
4.17123e-26
5.8515e-26
7.98472e-26
1.74604e-25
1.25883e-23
5.81403e-22
1.78377e-19
1.98781e-17
1.61176e-15
3.43094e-14
1.93602e-12
3.03946e-09
1.01271e-07
1.4345e-07
1.01383e-07
1.68614e-09
3.09519e-09
7.41787e-09
1.44724e-09
5.01645e-11
5.00292e-11
7.53528e-11
2.01738e-10
2.92569e-10
3.23656e-10
2.1631e-10
1.23482e-10
6.7036e-11
4.89377e-11
3.1987e-11
2.4677e-11
6.68573e-11
8.84506e-11
9.97096e-11
1.21269e-10
1.38935e-10
1.36462e-10
1.22129e-10
9.4375e-11
6.91297e-11
6.34483e-11
6.53775e-11
6.60873e-11
6.64436e-11
9.2776e-10
2.46828e-09
1.60045e-09
1.2739e-10
1.73669e-08
3.06063e-08
3.82706e-09
1.37466e-12
2.19074e-13
1.11271e-14
1.46428e-16
1.82688e-18
9.64633e-20
2.18419e-20
6.68218e-21
2.21655e-21
8.08314e-22
3.25275e-22
1.41443e-22
6.52675e-23
3.14914e-23
1.56429e-23
7.83587e-24
3.83925e-24
1.71314e-24
4.69846e-25
1.88674e-24
2.00542e-27
1.41809e-28
6.55589e-28
1.24909e-27
1.97525e-27
2.79717e-27
3.61029e-27
3.64827e-27
3.60481e-27
2.89967e-27
1.52025e-27
8.16533e-28
1.03817e-27
1.00878e-25
1.79372e-23
2.66587e-21
3.39272e-19
3.63259e-17
3.23809e-15
2.37107e-13
1.38747e-11
4.14193e-08
1.43085e-07
1.4345e-07
6.03883e-08
1.93529e-10
6.42354e-11
5.86258e-11
5.82588e-11
5.16747e-11
4.49798e-11
6.07472e-11
2.09052e-10
4.59256e-10
5.496e-10
5.19935e-10
3.31744e-10
1.7718e-10
6.28977e-11
2.22326e-11
5.77534e-11
9.12598e-11
1.15425e-10
1.43798e-10
1.43798e-10
1.21733e-10
7.18898e-11
4.63734e-11
3.78491e-11
4.15188e-11
5.96881e-11
6.77042e-11
3.95575e-10
2.16609e-09
2.66735e-09
1.48186e-09
3.15085e-11
3.15143e-11
2.84562e-09
1.13e-09
1.95044e-11
1.14548e-13
2.10192e-15
2.65027e-17
2.44167e-19
2.96519e-21
2.78457e-22
7.54512e-23
2.38729e-23
8.03822e-24
2.96322e-24
1.18408e-24
5.04767e-25
2.26592e-25
1.05599e-25
5.00937e-26
2.34792e-26
1.012e-26
2.71082e-27
1.02327e-26
8.88157e-30
7.62096e-31
3.54182e-30
7.2482e-30
1.26988e-29
2.11879e-29
3.38404e-29
5.31794e-29
7.98124e-29
1.07332e-28
1.61191e-28
2.351e-28
5.84567e-30
1.05501e-28
2.15525e-26
4.35873e-24
7.88535e-22
1.32946e-19
2.23279e-17
4.00001e-15
4.60679e-13
7.74957e-10
5.07808e-08
1.37516e-07
1.35402e-07
1.71177e-08
7.46734e-11
7.18733e-11
8.78301e-11
6.8397e-11
4.46694e-11
1.96021e-11
1.39992e-11
3.74969e-11
3.46258e-10
5.18828e-10
5.17724e-10
2.92345e-10
1.03064e-10
2.22326e-11
4.68304e-11
9.29084e-11
1.23939e-10
1.43086e-10
1.16792e-10
4.1157e-11
1.1442e-11
6.26665e-12
6.03272e-12
1.05488e-11
2.87446e-11
1.50072e-10
9.57084e-10
2.22771e-09
2.04214e-09
4.82683e-10
1.36993e-11
1.33242e-11
1.23262e-10
1.37068e-10
5.7265e-12
2.3661e-14
2.1908e-16
2.41049e-18
2.21523e-20
1.68937e-22
5.12322e-24
1.04508e-24
2.95505e-25
9.0036e-26
2.99322e-26
1.08725e-26
4.25266e-27
1.76874e-27
7.71481e-28
3.46118e-28
1.55066e-28
6.45315e-29
1.68683e-29
5.95477e-29
4.12038e-32
4.21436e-33
1.96799e-32
4.27362e-32
8.14145e-32
1.51233e-31
2.79566e-31
5.21298e-31
9.84e-31
1.92779e-30
4.29279e-30
9.78237e-30
6.92949e-31
4.49979e-31
6.77622e-29
1.44109e-26
2.49465e-24
3.50873e-22
4.76294e-20
1.88713e-17
4.00001e-15
8.15474e-13
8.22536e-11
2.29407e-08
4.08611e-08
2.1076e-08
4.52838e-09
4.38655e-10
1.23145e-10
5.19117e-11
2.11148e-11
8.84869e-12
6.55924e-12
7.40502e-12
1.37636e-11
8.21319e-11
2.02245e-10
2.06365e-10
1.13032e-10
2.33554e-11
3.59164e-11
8.99859e-11
9.82425e-11
1.19789e-10
5.602e-11
1.24288e-11
3.26937e-12
2.11792e-12
2.2837e-12
4.84835e-12
1.5153e-11
8.84282e-11
3.80226e-10
7.27889e-10
4.0912e-10
3.65483e-11
1.072e-11
1.2421e-11
1.3862e-11
6.43185e-12
2.36401e-13
1.35849e-15
1.12122e-17
1.05926e-19
9.31862e-22
7.07355e-24
1.04868e-25
1.47686e-26
3.67885e-27
1.0173e-27
3.07405e-28
1.02232e-28
3.69322e-29
1.43157e-29
5.87383e-30
2.50284e-30
1.07545e-30
4.33222e-31
1.10736e-31
3.65581e-31
1.9825e-34
2.39131e-35
1.12244e-34
2.5651e-34
5.22887e-34
1.0585e-33
2.18343e-33
4.64255e-33
1.02972e-32
2.41089e-32
6.13435e-32
1.76155e-31
6.46949e-31
6.91781e-32
4.18491e-31
6.77622e-29
1.44109e-26
2.49465e-24
3.50873e-22
4.76294e-20
1.88713e-17
6.50938e-14
2.47166e-12
2.67194e-11
3.71928e-11
2.84392e-09
1.57727e-09
4.70902e-10
9.11337e-11
1.65972e-11
4.2896e-12
1.38942e-12
1.30988e-12
2.24344e-12
7.75328e-12
2.01057e-11
4.75778e-11
5.6183e-11
4.6813e-11
2.12805e-11
2.58524e-11
9.11528e-11
5.90349e-11
7.44627e-11
3.56418e-11
7.60005e-12
1.60099e-12
6.25008e-13
5.69082e-13
1.10519e-12
2.43585e-12
6.75648e-12
1.93528e-11
3.20405e-11
1.41345e-11
5.37628e-12
5.43567e-12
3.64564e-12
7.34837e-13
1.1039e-13
2.45803e-15
2.37337e-17
2.32542e-19
2.2452e-21
2.00246e-23
1.62565e-25
2.0023e-27
2.05411e-28
4.54294e-29
1.14628e-29
3.17983e-30
9.76587e-31
3.28224e-31
1.19303e-31
4.62838e-32
1.88094e-32
7.77738e-33
3.04015e-33
7.6124e-34
2.34743e-33
9.77418e-37
1.38554e-37
6.53546e-37
1.56328e-36
3.37961e-36
7.3531e-36
1.65572e-35
3.91975e-35
9.8644e-35
2.65203e-34
7.74163e-34
2.50088e-33
1.56016e-32
6.48877e-32
5.23095e-33
4.65137e-31
1.19147e-28
2.64417e-26
4.93314e-24
1.86592e-20
8.22427e-17
1.63285e-14
9.78894e-14
7.77007e-13
1.11096e-12
9.92613e-13
3.06585e-11
1.27969e-11
3.33053e-12
8.19368e-13
1.97993e-13
1.21921e-13
2.05463e-13
8.16521e-13
3.89213e-12
1.42399e-11
3.22658e-11
3.81315e-11
3.41833e-11
1.79148e-11
1.88598e-11
1.06946e-10
4.10652e-11
4.99192e-11
2.52448e-11
5.2822e-12
9.41168e-13
1.85051e-13
8.52695e-14
1.06856e-13
2.25805e-13
4.02962e-13
6.20049e-13
6.68529e-13
8.63431e-13
9.86296e-13
8.57826e-13
2.14534e-13
1.88624e-14
1.81006e-15
3.19776e-17
3.07684e-19
3.37073e-21
3.36694e-23
3.07885e-25
2.5788e-27
3.18333e-29
2.76e-30
5.5069e-31
1.27607e-31
3.27892e-32
9.37644e-33
2.95252e-33
1.01241e-33
3.73263e-34
1.45283e-34
5.79997e-35
2.20556e-35
5.41932e-36
1.55889e-35
4.883e-39
8.14272e-40
3.85638e-39
9.62194e-39
2.19471e-38
5.09162e-38
1.23639e-37
3.19678e-37
8.90745e-37
2.68922e-36
8.90675e-36
3.25068e-35
1.36861e-34
2.40942e-33
2.82488e-34
5.23095e-33
3.23266e-29
7.703e-27
1.80332e-24
8.62565e-22
5.97137e-18
3.4172e-16
6.61252e-15
5.63298e-14
2.04692e-13
2.39531e-13
2.72696e-13
1.29092e-13
3.07831e-14
6.75306e-15
5.07051e-15
1.30194e-14
7.58612e-14
4.09839e-13
1.82185e-12
6.92169e-12
1.8891e-11
2.79542e-11
2.67164e-11
1.4905e-11
1.4932e-11
1.1647e-10
3.25806e-11
3.56834e-11
1.73329e-11
3.55553e-12
6.60953e-13
1.09925e-13
1.6157e-14
4.76473e-15
4.80584e-15
9.95305e-15
1.79643e-14
2.69094e-14
4.19864e-14
5.56624e-14
2.26988e-14
2.58648e-15
3.44725e-16
3.33127e-17
5.59877e-19
4.99266e-21
4.79822e-23
4.41331e-25
3.94854e-27
3.27113e-29
4.24543e-31
3.52542e-32
6.46708e-33
1.38797e-33
3.33316e-34
8.94821e-35
2.65881e-35
8.65383e-36
3.04798e-36
1.14115e-36
4.41379e-37
1.63707e-37
3.95414e-38
1.05961e-37
2.44705e-41
4.81682e-42
2.28807e-41
5.94066e-41
1.42502e-40
3.50916e-40
9.13044e-40
2.55309e-39
7.76363e-39
2.58251e-38
9.50609e-38
3.88336e-37
1.77282e-36
1.07462e-35
2.29478e-34
2.11536e-33
6.14214e-31
1.54514e-28
3.77118e-26
1.01972e-23
3.06143e-20
2.68635e-18
6.61369e-17
1.43309e-15
6.78053e-15
8.91486e-15
4.55625e-15
1.09932e-15
1.59626e-16
1.46655e-16
6.96082e-16
6.41227e-15
4.30864e-14
2.20475e-13
9.43289e-13
3.4518e-12
1.05299e-11
1.94783e-11
1.93441e-11
1.0555e-11
1.23499e-11
1.20911e-10
3.00417e-11
2.61477e-11
1.23178e-11
2.55223e-12
4.94274e-13
8.5385e-14
1.13095e-14
1.08177e-15
1.07682e-16
4.72081e-17
1.15468e-16
2.83653e-16
4.76033e-16
5.51046e-16
1.21374e-16
2.18147e-17
5.31253e-18
5.29455e-19
8.77321e-21
7.5869e-23
6.86578e-25
5.81671e-27
4.65563e-29
3.62025e-31
4.97268e-33
4.24162e-34
7.27815e-35
1.46152e-35
3.31005e-36
8.41066e-37
2.37509e-37
7.38305e-38
2.49726e-38
9.03284e-39
3.39672e-39
1.23204e-39
2.93035e-40
7.30456e-40
1.21636e-43
2.88044e-44
1.3533e-43
3.65234e-43
9.19256e-43
2.39562e-42
6.65478e-42
2.0039e-41
6.58575e-41
2.35398e-40
9.28443e-40
4.04699e-39
1.95904e-38
1.06231e-37
2.02641e-36
3.58439e-35
4.51379e-33
1.13427e-30
2.53728e-28
8.96691e-26
1.77445e-22
1.11952e-20
5.41853e-19
1.20877e-17
5.8865e-17
7.60154e-17
3.7281e-17
6.17176e-18
4.44002e-18
2.91409e-17
3.8421e-16
3.76176e-15
2.52392e-14
1.27746e-13
5.36828e-13
2.00155e-12
6.66268e-12
1.33751e-11
1.31538e-11
6.87626e-12
1.0841e-11
1.2282e-10
3.02258e-11
2.02899e-11
9.33008e-12
2.00745e-12
3.82708e-13
6.54702e-14
8.54376e-15
8.00884e-16
5.60815e-17
3.35498e-18
2.62039e-19
1.39917e-19
4.77417e-19
1.23341e-18
6.38601e-19
2.27577e-19
6.72361e-20
6.90095e-21
1.15972e-22
1.00344e-24
8.88245e-27
7.22211e-29
5.47303e-31
3.9729e-33
5.40229e-35
4.72749e-36
7.76718e-37
1.47895e-37
3.18796e-38
7.72845e-39
2.0888e-39
6.23886e-40
2.03703e-40
7.14914e-41
2.62275e-41
9.32739e-42
2.18832e-42
5.06529e-42
5.94397e-46
1.70465e-46
7.83256e-46
2.18966e-45
5.73207e-45
1.56004e-44
4.53899e-44
1.43297e-43
4.94503e-43
1.86707e-42
7.76311e-42
3.5502e-41
1.78947e-40
1.01633e-39
6.91684e-39
1.57652e-37
3.47417e-35
8.70278e-33
1.85241e-30
5.61968e-28
4.69533e-25
1.35253e-22
5.21204e-21
8.45405e-20
3.65793e-19
5.5897e-19
1.90983e-19
1.17188e-19
8.97172e-19
1.48335e-17
2.0546e-16
2.05698e-15
1.37836e-14
6.94248e-14
2.9454e-13
1.17301e-12
4.272e-12
8.54076e-12
8.04275e-12
4.20272e-12
1.02257e-11
1.2349e-10
3.20811e-11
1.77378e-11
8.24602e-12
1.82394e-12
3.21641e-13
5.04253e-14
6.19898e-15
5.33949e-16
3.48955e-17
1.9662e-18
1.02925e-19
2.0345e-21
2.53637e-21
3.00008e-21
1.99723e-21
1.01863e-21
6.84734e-22
7.38681e-23
1.2988e-24
1.15531e-26
1.02079e-28
8.13235e-31
5.96964e-33
4.17095e-35
5.65132e-37
4.9381e-38
7.83183e-39
1.4299e-39
2.95981e-40
6.89916e-41
1.79693e-41
5.18768e-42
1.64327e-42
5.6193e-43
2.01795e-43
7.05436e-44
1.63538e-44
3.50732e-44
2.83767e-48
9.59415e-49
4.32333e-48
1.24261e-47
3.34941e-47
9.41631e-47
2.8386e-46
9.30165e-46
3.33635e-45
1.3124e-44
5.67887e-44
2.69735e-43
1.40648e-42
8.20173e-42
5.58894e-41
1.02394e-39
2.30792e-37
5.41821e-35
9.45721e-33
1.05138e-30
6.12687e-28
1.48507e-24
3.76496e-23
3.53561e-22
2.32801e-21
2.76177e-21
1.88067e-21
1.81727e-20
3.71858e-19
6.90636e-18
9.86825e-17
9.72004e-16
6.24855e-15
3.05084e-14
1.31144e-13
5.75403e-13
2.25313e-12
4.21897e-12
3.67579e-12
2.52068e-12
1.01715e-11
1.23868e-10
3.59567e-11
1.67543e-11
8.23567e-12
1.79861e-12
2.90738e-13
3.99777e-14
4.39134e-15
3.17684e-16
1.80702e-17
9.59227e-19
4.80548e-20
1.97032e-21
2.37943e-23
1.30623e-23
1.79462e-23
4.65213e-24
3.01299e-24
6.42281e-25
1.22492e-26
1.15634e-28
1.04199e-30
8.27045e-33
5.96223e-35
4.06788e-37
5.53108e-39
4.81648e-40
7.41573e-41
1.31268e-41
2.63439e-42
5.95574e-43
1.50419e-43
4.22073e-44
1.30338e-44
4.36034e-45